/*--------------------------------*- C++ -*----------------------------------*\
| =========                 |                                                 |
| \\      /  F ield         | foam-extend: Open Source CFD                    |
|  \\    /   O peration     | Version:     3.1                                |
|   \\  /    A nd           | Web:         http://www.extend-project.de       |
|    \\/     M anipulation  |                                                 |
\*---------------------------------------------------------------------------*/
FoamFile
{
    version     2.0;
    format      ascii;
    class       surfaceScalarField;
    location    "0.6";
    object      meshPhi;
}
// * * * * * * * * * * * * * * * * * * * * * * * * * * * * * * * * * * * * * //

dimensions      [0 3 -1 0 0 0 0];

internalField   nonuniform List<scalar> 
41600
(
1.67966e-07
2.59522e-08
6.93965e-10
-7.103e-10
3.23369e-07
7.68343e-08
2.07919e-09
-2.12818e-09
4.64944e-07
1.26296e-07
3.50409e-09
-3.58643e-09
5.96384e-07
1.76293e-07
5.07698e-09
-5.19518e-09
7.20712e-07
2.29436e-07
6.93648e-09
-7.0951e-09
8.40285e-07
2.88315e-07
9.24723e-09
-9.45266e-09
9.56708e-07
3.55693e-07
1.22242e-08
-1.24846e-08
1.07059e-06
4.3468e-07
1.61691e-08
-1.64943e-08
1.18115e-06
5.28893e-07
2.15308e-08
-2.19323e-08
1.28557e-06
6.42578e-07
2.90121e-08
-2.95019e-08
1.3783e-06
7.80662e-07
3.97614e-08
-4.03487e-08
1.45042e-06
9.48618e-07
5.5715e-08
-5.63906e-08
1.4903e-06
1.15178e-06
8.01411e-08
-8.08358e-08
1.48775e-06
1.39236e-06
1.1803e-07
-1.18578e-07
1.44255e-06
1.65176e-06
1.72537e-07
-1.73532e-07
2.20916e-06
3.12534e-07
-4.51047e-07
5.01114e-07
5.07822e-08
2.02562e-09
-2.07365e-09
9.64661e-07
1.50282e-07
6.06875e-09
-6.21276e-09
1.38686e-06
2.46839e-07
1.02192e-08
-1.0461e-08
1.77873e-06
3.44194e-07
1.47784e-08
-1.5125e-08
2.14931e-06
4.47332e-07
2.01355e-08
-2.05996e-08
2.50569e-06
5.61146e-07
2.6748e-08
-2.73475e-08
2.85285e-06
6.90774e-07
3.5206e-08
-3.59636e-08
3.19297e-06
8.41914e-07
4.63241e-08
-4.72669e-08
3.52425e-06
1.02104e-06
6.12898e-08
-6.24488e-08
3.83922e-06
1.23555e-06
8.19183e-08
-8.33254e-08
4.12256e-06
1.4936e-06
1.11088e-07
-1.12766e-07
4.34912e-06
1.80333e-06
1.53464e-07
-1.55386e-07
4.48477e-06
2.17058e-06
2.16505e-07
-2.18484e-07
4.49701e-06
2.59192e-06
3.10738e-07
-3.12265e-07
4.38038e-06
3.0267e-06
4.41322e-07
-4.42908e-07
3.65173e-06
7.02686e-07
-9.15119e-07
8.26207e-07
7.34278e-08
3.23331e-09
-3.3107e-09
1.5902e-06
2.17179e-07
9.68434e-09
-9.91626e-09
2.28571e-06
3.56354e-07
1.62832e-08
-1.66721e-08
2.93089e-06
4.96184e-07
2.34778e-08
-2.40338e-08
3.5407e-06
6.4363e-07
3.185e-08
-3.25919e-08
4.12705e-06
8.05401e-07
4.20717e-08
-4.30259e-08
4.69868e-06
9.88413e-07
5.49887e-08
-5.6188e-08
5.26027e-06
1.20015e-06
7.17322e-08
-7.32152e-08
5.81063e-06
1.44888e-06
9.38888e-08
-9.56967e-08
6.34024e-06
1.74367e-06
1.23776e-07
-1.25947e-07
6.82803e-06
2.09396e-06
1.64874e-07
-1.67426e-07
7.23774e-06
2.50803e-06
2.22438e-07
-2.25316e-07
7.51749e-06
2.98902e-06
3.04076e-07
-3.06994e-07
7.61277e-06
3.52546e-06
4.18892e-07
-4.2104e-07
7.50501e-06
4.06101e-06
5.67877e-07
-5.6845e-07
4.77765e-06
7.83681e-07
-9.08241e-07
1.13826e-06
9.29486e-08
4.27501e-09
-4.37849e-09
2.19031e-06
2.7474e-07
1.27983e-08
-1.31081e-08
3.14733e-06
4.50262e-07
2.1476e-08
-2.19944e-08
4.03433e-06
6.25852e-07
3.08465e-08
-3.15852e-08
4.87192e-06
8.09926e-07
4.16144e-08
-4.25953e-08
5.67685e-06
1.01042e-06
5.45724e-08
-5.58257e-08
6.46221e-06
1.23533e-06
7.06862e-08
-7.225e-08
7.23641e-06
1.49305e-06
9.11924e-08
-9.3109e-08
8.001e-06
1.79252e-06
1.17724e-07
-1.20032e-07
8.74797e-06
2.14311e-06
1.52508e-07
-1.55233e-07
9.45646e-06
2.55409e-06
1.98655e-07
-2.01782e-07
1.00877e-05
3.03266e-06
2.60432e-07
-2.63836e-07
1.05815e-05
3.57916e-06
3.43218e-07
-3.46488e-07
1.0866e-05
4.17641e-06
4.51987e-07
-4.54032e-07
1.08961e-05
4.76059e-06
5.83705e-07
-5.82394e-07
5.48958e-06
7.4293e-07
-8.19042e-07
1.43254e-06
1.08599e-07
5.1243e-09
-5.24987e-09
2.75578e-06
3.20781e-07
1.53312e-08
-1.57068e-08
3.95834e-06
5.25027e-07
2.56656e-08
-2.62925e-08
5.07153e-06
7.28356e-07
3.67003e-08
-3.75899e-08
6.12123e-06
9.40074e-07
4.91924e-08
-5.03658e-08
7.1289e-06
1.16874e-06
6.39676e-08
-6.54546e-08
8.11239e-06
1.42276e-06
8.19985e-08
-8.38396e-08
9.08478e-06
1.71061e-06
1.04462e-07
-1.06697e-07
1.00521e-05
2.04077e-06
1.3277e-07
-1.35423e-07
1.10115e-05
2.42174e-06
1.68673e-07
-1.71736e-07
1.19488e-05
2.86173e-06
2.14398e-07
-2.17791e-07
1.28326e-05
3.36675e-06
2.72621e-07
-2.76114e-07
1.36065e-05
3.93583e-06
3.46043e-07
-3.49055e-07
1.41876e-05
4.55019e-06
4.3601e-07
-4.37169e-07
1.44827e-05
5.14405e-06
5.38122e-07
-5.34347e-07
5.84221e-06
6.40111e-07
-6.65735e-07
1.70478e-06
1.19853e-07
5.77153e-09
-5.91484e-09
3.27843e-06
3.53773e-07
1.72555e-08
-1.76837e-08
4.70685e-06
5.78239e-07
2.88127e-08
-2.95255e-08
6.02693e-06
8.00541e-07
4.10023e-08
-4.2009e-08
7.26926e-06
1.03034e-06
5.45759e-08
-5.58938e-08
8.45979e-06
1.27627e-06
7.03253e-08
-7.19824e-08
9.62091e-06
1.54648e-06
8.91517e-08
-9.119e-08
1.07701e-05
1.84871e-06
1.12069e-07
-1.14519e-07
1.19186e-05
2.19012e-06
1.40136e-07
-1.42993e-07
1.30712e-05
2.57741e-06
1.74478e-07
-1.77691e-07
1.42256e-05
3.01688e-06
2.16356e-07
-2.19773e-07
1.53656e-05
3.51316e-06
2.66949e-07
-2.70226e-07
1.64517e-05
4.06572e-06
3.2679e-07
-3.29175e-07
1.74043e-05
4.66001e-06
3.94903e-07
-3.94769e-07
1.80746e-05
5.23792e-06
4.67237e-07
-4.60826e-07
5.90112e-06
5.21492e-07
-5.08525e-07
1.95134e-06
1.26402e-07
6.22231e-09
-6.37901e-09
3.75124e-06
3.72853e-07
1.85898e-08
-1.90573e-08
5.38272e-06
6.08622e-07
3.09587e-08
-3.17348e-08
6.88736e-06
8.4091e-07
4.38394e-08
-4.49305e-08
8.29966e-06
1.07927e-06
5.79392e-08
-5.93586e-08
9.64941e-06
1.33191e-06
7.39746e-08
-7.57476e-08
1.09624e-05
1.60614e-06
9.27232e-08
-9.48883e-08
1.22594e-05
1.90836e-06
1.14988e-07
-1.17559e-07
1.35564e-05
2.24381e-06
1.4147e-07
-1.44413e-07
1.48661e-05
2.61662e-06
1.72738e-07
-1.75963e-07
1.61981e-05
3.03e-06
2.09261e-07
-2.12564e-07
1.75537e-05
3.48572e-06
2.51134e-07
-2.54091e-07
1.89182e-05
3.9827e-06
2.97552e-07
-2.99298e-07
2.02384e-05
4.51377e-06
3.46497e-07
-3.45247e-07
2.13477e-05
5.04566e-06
3.95468e-07
-3.8688e-07
5.73264e-06
4.15261e-07
-3.72686e-07
2.16922e-06
6.49437e-09
-6.6603e-09
1.28148e-07
4.16853e-06
1.9389e-08
-1.98834e-08
3.77783e-07
5.97784e-06
3.2206e-08
-3.30244e-08
6.15937e-07
7.64236e-06
4.53858e-08
-4.65317e-08
8.49443e-07
9.19951e-06
5.95699e-08
-6.10535e-08
1.08736e-06
1.06816e-05
7.53805e-08
-7.72218e-08
1.33711e-06
1.21164e-05
9.3446e-08
-9.56715e-08
1.60477e-06
1.35264e-05
1.14354e-07
-1.16962e-07
1.89503e-06
1.49308e-05
1.38526e-07
-1.41465e-07
2.21088e-06
1.6347e-05
1.66159e-07
-1.6932e-07
2.55335e-06
1.77914e-05
1.97216e-07
-2.00373e-07
2.92131e-06
1.92745e-05
2.31192e-07
-2.339e-07
3.31064e-06
2.07949e-05
2.66756e-07
-2.68172e-07
3.71248e-06
2.23156e-05
3.01761e-07
-3.00248e-07
4.10947e-06
2.36838e-05
3.34437e-07
-3.26189e-07
4.46137e-06
3.2517e-07
-2.63521e-07
5.10123e-06
1.70478e-07
2.72009e-08
6.51526e-10
3.28236e-07
8.05753e-08
1.95191e-09
4.72042e-07
1.32593e-07
3.28936e-09
6.05701e-07
1.85396e-07
4.76539e-09
7.32322e-07
2.41817e-07
6.50957e-09
8.54313e-07
3.04691e-07
8.67464e-09
9.73283e-07
3.77063e-07
1.14577e-08
1.08979e-06
4.62378e-07
1.51298e-08
1.20292e-06
5.64668e-07
2.00834e-08
1.30963e-06
6.88693e-07
2.69071e-08
1.40413e-06
8.40005e-07
3.6505e-08
1.47747e-06
1.02477e-06
5.02584e-08
1.51878e-06
1.24891e-06
7.01331e-08
1.52067e-06
1.51443e-06
9.81834e-08
1.49007e-06
1.80121e-06
1.33208e-07
2.26729e-06
1.97336e-07
5.0859e-07
5.32205e-08
1.90152e-09
9.79138e-07
1.57582e-07
5.69664e-09
1.40796e-06
2.59111e-07
9.59199e-09
1.80642e-06
3.61904e-07
1.38703e-08
2.18381e-06
4.71371e-07
1.88952e-08
2.54737e-06
5.92861e-07
2.50917e-08
2.90211e-06
7.32036e-07
3.30012e-08
3.25003e-06
8.95201e-07
4.33575e-08
3.58896e-06
1.08957e-06
5.72013e-08
3.91077e-06
1.32342e-06
7.60587e-08
4.19926e-06
1.6059e-06
1.02205e-07
4.42872e-06
1.94611e-06
1.38978e-07
4.56617e-06
2.3503e-06
1.9084e-07
4.58494e-06
2.81363e-06
2.61851e-07
4.49767e-06
3.29264e-06
3.47927e-07
3.82313e-06
4.69372e-07
8.38468e-07
7.69409e-08
3.03478e-09
1.61393e-06
2.27687e-07
9.08931e-09
2.32028e-06
3.73994e-07
1.52821e-08
2.97624e-06
5.21585e-07
2.20333e-08
3.59718e-06
6.78015e-07
2.98872e-08
4.1953e-06
8.50618e-07
3.94689e-08
4.77939e-06
1.04701e-06
5.1556e-08
5.35387e-06
1.27546e-06
6.71712e-08
5.91698e-06
1.54518e-06
8.77117e-08
6.45813e-06
1.86632e-06
1.15138e-07
6.95465e-06
2.24945e-06
1.52215e-07
7.36852e-06
2.70373e-06
2.02703e-07
7.64754e-06
3.23223e-06
2.71035e-07
7.74219e-06
3.82091e-06
3.59954e-07
7.65605e-06
4.41008e-06
4.62085e-07
5.02236e-06
5.68127e-07
1.15501e-06
9.73753e-08
4.01183e-09
2.2227e-06
2.87967e-07
1.20101e-08
3.19449e-06
4.72426e-07
2.01531e-08
4.09615e-06
6.57688e-07
2.89462e-08
4.94893e-06
8.52889e-07
3.90497e-08
5.76999e-06
1.06671e-06
5.12032e-08
6.57243e-06
1.30794e-06
6.62963e-08
7.36446e-06
1.58585e-06
8.54512e-08
8.14693e-06
1.91041e-06
1.10118e-07
8.91057e-06
2.29213e-06
1.42199e-07
9.63234e-06
2.74146e-06
1.84187e-07
1.02703e-05
3.26636e-06
2.39121e-07
1.07614e-05
3.86676e-06
3.09945e-07
1.10352e-05
4.52242e-06
3.97057e-07
1.10663e-05
5.1661e-06
4.91701e-07
5.80282e-06
5.76169e-07
1.45337e-06
1.13744e-07
4.8079e-09
2.79604e-06
3.36136e-07
1.43846e-08
4.0169e-06
5.50706e-07
2.40813e-08
5.14825e-06
7.65144e-07
3.44364e-08
6.21679e-06
9.89563e-07
4.61624e-08
7.24455e-06
1.23333e-06
6.00314e-08
8.24936e-06
1.50564e-06
7.69381e-08
9.24414e-06
1.81585e-06
9.79553e-08
1.02344e-05
2.17349e-06
1.24358e-07
1.12161e-05
2.58821e-06
1.57671e-07
1.21727e-05
3.06936e-06
1.99704e-07
1.30685e-05
3.62372e-06
2.52353e-07
1.38415e-05
4.24994e-06
3.16875e-07
1.44048e-05
4.92632e-06
3.9201e-07
1.46758e-05
5.58315e-06
4.69876e-07
6.21132e-06
5.31112e-07
1.72921e-06
1.25496e-07
5.414e-09
3.3256e-06
3.706e-07
1.61869e-08
4.77538e-06
6.06326e-07
2.70298e-08
6.11662e-06
8.4067e-07
3.84691e-08
7.38091e-06
1.08414e-06
5.12155e-08
8.5948e-06
1.34617e-06
6.60102e-08
9.78069e-06
1.63567e-06
8.36777e-08
1.09562e-05
1.96122e-06
1.0515e-07
1.21325e-05
2.33095e-06
1.31415e-07
1.33134e-05
2.75261e-06
1.63494e-07
1.4494e-05
3.23359e-06
2.02444e-07
1.5654e-05
3.77934e-06
2.49099e-07
1.67466e-05
4.38943e-06
3.03457e-07
1.76821e-05
5.04736e-06
3.63601e-07
1.83064e-05
5.69082e-06
4.23782e-07
6.31196e-06
4.65121e-07
1.97883e-06
1.32317e-07
5.83545e-09
3.80425e-06
3.90474e-07
1.74347e-08
5.45963e-06
6.37977e-07
2.90374e-08
6.98784e-06
8.82737e-07
4.11247e-08
8.42452e-06
1.13514e-06
5.43674e-08
9.8e-06
1.40416e-06
6.9436e-08
1.11404e-05
1.6978e-06
8.70414e-08
1.2467e-05
2.02324e-06
1.07935e-07
1.3796e-05
2.38652e-06
1.32805e-07
1.51391e-05
2.79259e-06
1.62212e-07
1.65041e-05
3.24555e-06
1.96589e-07
1.78886e-05
3.74794e-06
2.36019e-07
1.92706e-05
4.29921e-06
2.79817e-07
2.05844e-05
4.89194e-06
3.26208e-07
2.16417e-05
5.49101e-06
3.72292e-07
6.16705e-06
3.99599e-07
2.19919e-06
6.08898e-09
1.3411e-07
4.22625e-06
1.81798e-08
3.95526e-07
6.06144e-06
3.02007e-08
6.45445e-07
7.75133e-06
4.25668e-08
8.91378e-07
9.33454e-06
5.58865e-08
1.14318e-06
1.08439e-05
7.07432e-08
1.40896e-06
1.23079e-05
8.77187e-08
1.69544e-06
1.37499e-05
1.07378e-07
2.00794e-06
1.51889e-05
1.30159e-07
2.35002e-06
1.6642e-05
1.56298e-07
2.72327e-06
1.81241e-05
1.85828e-07
3.12704e-06
1.96425e-05
2.18419e-07
3.55743e-06
2.11897e-05
2.53157e-07
4.00537e-06
2.27149e-05
2.88647e-07
4.45212e-06
2.40338e-05
3.23473e-07
4.85387e-06
3.35184e-07
5.47683e-06
1.72672e-07
2.83278e-08
5.84665e-10
3.32493e-07
8.39475e-08
1.75137e-09
4.78256e-07
1.38255e-07
2.95074e-09
6.13851e-07
1.93541e-07
4.27309e-09
7.42449e-07
2.52818e-07
5.83284e-09
8.66493e-07
3.19097e-07
7.76277e-09
9.87588e-07
3.95599e-07
1.02298e-08
1.10624e-06
4.85948e-07
1.34553e-08
1.22144e-06
5.94327e-07
1.77421e-08
1.33005e-06
7.25561e-07
2.351e-08
1.42624e-06
8.85032e-07
3.13323e-08
1.50134e-06
1.07819e-06
4.1938e-08
1.54551e-06
1.30903e-06
5.60642e-08
1.55348e-06
1.57544e-06
7.38416e-08
1.53366e-06
1.85217e-06
9.30491e-08
2.31364e-06
1.20451e-07
5.15124e-07
5.54221e-08
1.70622e-09
9.91809e-07
1.64166e-07
5.11097e-09
1.42645e-06
2.70152e-07
8.60407e-09
1.83066e-06
3.77765e-07
1.24371e-08
2.21392e-06
4.92752e-07
1.69315e-08
2.58359e-06
6.20794e-07
2.24572e-08
2.94464e-06
7.67884e-07
2.9474e-08
3.29893e-06
9.40642e-07
3.85826e-08
3.64402e-06
1.14654e-06
5.05906e-08
3.97139e-06
1.39393e-06
6.65924e-08
4.26462e-06
1.69155e-06
8.80367e-08
4.49846e-06
2.04702e-06
1.16676e-07
4.64233e-06
2.4628e-06
1.54085e-07
4.67489e-06
2.9262e-06
2.00002e-07
4.61345e-06
3.38413e-06
2.48289e-07
3.86238e-06
2.98639e-07
8.49191e-07
8.0115e-08
2.72283e-09
1.63472e-06
2.3717e-07
8.15423e-09
2.35059e-06
3.89874e-07
1.37076e-08
3.01597e-06
5.44355e-07
1.9757e-08
3.64653e-06
7.08634e-07
2.67844e-08
4.25466e-06
8.90502e-07
3.53354e-08
4.84911e-06
1.09801e-06
4.60729e-08
5.43406e-06
1.33984e-06
5.98389e-08
6.00728e-06
1.62549e-06
7.77262e-08
6.55751e-06
1.96515e-06
1.01152e-07
7.06135e-06
2.36872e-06
1.31882e-07
7.48069e-06
2.84315e-06
1.71845e-07
7.76553e-06
3.38615e-06
2.22328e-07
7.8725e-06
3.97302e-06
2.8175e-07
7.81277e-06
4.53105e-06
3.41345e-07
5.06422e-06
3.85142e-07
1.16967e-06
1.01376e-07
3.59909e-09
2.25109e-06
2.99911e-07
1.07737e-08
3.23586e-06
4.92393e-07
1.80762e-08
4.15035e-06
6.86252e-07
2.5957e-08
5.01625e-06
8.91193e-07
3.50025e-08
5.85101e-06
1.11644e-06
4.58604e-08
6.6677e-06
1.37126e-06
5.92934e-08
7.47407e-06
1.66538e-06
7.62319e-08
8.27041e-06
2.00904e-06
9.78222e-08
9.04657e-06
2.41275e-06
1.25459e-07
9.77813e-06
2.88605e-06
1.60736e-07
1.04218e-05
3.43422e-06
2.05139e-07
1.09151e-05
4.05085e-06
2.59118e-07
1.11924e-05
4.70345e-06
3.19942e-07
1.12384e-05
5.30966e-06
3.78372e-07
5.85331e-06
4.15803e-07
1.4716e-06
1.18395e-07
4.31279e-09
2.83133e-06
3.50007e-07
1.29027e-08
4.0683e-06
5.73855e-07
2.1599e-08
5.21552e-06
7.9818e-07
3.08824e-08
6.30035e-06
1.03373e-06
4.13877e-08
7.34519e-06
1.29046e-06
5.37956e-08
8.36773e-06
1.57806e-06
6.88765e-08
9.38039e-06
1.90628e-06
8.75243e-08
1.03881e-05
2.28492e-06
1.10767e-07
1.13858e-05
2.72361e-06
1.39748e-07
1.23551e-05
3.2307e-06
1.75633e-07
1.32573e-05
3.81002e-06
2.19267e-07
1.40284e-05
4.45363e-06
2.7035e-07
1.45831e-05
5.12703e-06
3.2583e-07
1.48502e-05
5.74431e-06
3.77768e-07
6.27593e-06
4.09173e-07
1.7506e-06
1.30602e-07
4.85586e-09
3.36696e-06
3.8581e-07
1.4518e-08
4.83555e-06
6.31665e-07
2.42425e-08
6.1953e-06
8.7674e-07
3.45007e-08
7.47858e-06
1.13222e-06
4.59283e-08
8.71232e-06
1.40811e-06
5.9184e-08
9.91877e-06
1.71379e-06
7.49797e-08
1.11152e-05
2.05817e-06
9.40958e-08
1.23123e-05
2.44966e-06
1.17353e-07
1.35129e-05
2.89594e-06
1.45557e-07
1.47097e-05
3.40336e-06
1.79398e-07
1.5878e-05
3.97451e-06
2.19168e-07
1.69664e-05
4.60265e-06
2.64176e-07
1.78821e-05
5.25899e-06
3.11821e-07
1.84814e-05
5.86467e-06
3.56411e-07
6.39365e-06
3.83173e-07
2.0029e-06
1.37672e-07
5.23308e-09
3.85076e-06
4.06412e-07
1.56353e-08
5.52718e-06
6.64481e-07
2.60414e-08
7.07603e-06
9.20371e-07
3.68828e-08
8.5338e-06
1.18514e-06
4.87618e-08
9.93116e-06
1.4683e-06
6.22784e-08
1.12942e-05
1.7783e-06
7.80502e-08
1.26442e-05
2.12261e-06
9.67135e-08
1.3997e-05
2.50743e-06
1.18864e-07
1.53634e-05
2.93757e-06
1.44987e-07
1.67481e-05
3.41613e-06
1.75383e-07
1.8144e-05
3.94301e-06
2.09985e-07
1.95226e-05
4.51211e-06
2.48043e-07
2.08102e-05
5.10514e-06
2.87845e-07
2.18243e-05
5.67108e-06
3.2648e-07
6.26521e-06
3.50551e-07
2.22545e-06
5.45951e-09
1.3951e-07
4.27692e-06
1.63012e-08
4.11585e-07
6.13491e-06
2.70817e-08
6.72108e-07
7.84705e-06
3.81742e-08
9.29148e-07
9.45282e-06
5.01258e-08
1.19319e-06
1.09855e-05
6.34611e-08
1.47286e-06
1.24735e-05
7.86918e-08
1.77527e-06
1.39407e-05
9.6309e-08
2.10599e-06
1.54058e-05
1.16713e-07
2.46862e-06
1.68848e-05
1.40145e-07
2.86446e-06
1.83896e-05
1.66654e-07
3.29187e-06
1.99231e-05
1.95988e-07
3.74462e-06
2.14703e-05
2.27478e-07
4.20892e-06
2.29708e-05
2.60109e-07
4.65734e-06
2.42394e-05
2.92442e-07
5.03315e-06
3.08548e-07
5.58445e-06
1.74534e-07
2.93045e-08
4.95971e-10
3.36106e-07
8.68661e-08
1.48544e-09
4.83526e-07
1.43139e-07
2.50183e-09
6.20752e-07
2.00532e-07
3.62076e-09
7.50999e-07
2.62185e-07
4.93705e-09
8.76731e-07
3.31223e-07
6.55831e-09
9.99543e-07
4.10958e-07
8.61534e-09
1.11991e-06
5.0506e-07
1.12728e-08
1.23675e-06
6.17669e-07
1.47393e-08
1.34688e-06
7.53404e-07
1.9272e-08
1.44453e-06
9.17138e-07
2.51615e-08
1.52132e-06
1.11333e-06
3.26621e-08
1.56815e-06
1.34439e-06
4.18054e-08
1.58073e-06
1.6066e-06
5.20124e-08
1.56712e-06
1.87553e-06
6.1527e-08
2.34101e-06
7.24059e-08
5.20665e-07
5.73309e-08
1.44731e-09
1.00256e-06
1.69865e-07
4.33471e-09
1.44213e-06
2.7968e-07
7.29495e-09
1.85119e-06
3.91382e-07
1.05388e-08
2.23934e-06
5.10968e-07
1.43327e-08
2.61402e-06
6.44331e-07
1.89771e-08
2.98016e-06
7.97626e-07
2.48334e-08
3.33951e-06
9.77554e-07
3.23506e-08
3.68942e-06
1.19149e-06
4.20884e-08
4.02122e-06
1.44737e-06
5.4722e-08
4.3185e-06
1.75291e-06
7.09861e-08
4.55669e-06
2.11379e-06
9.14664e-08
4.70706e-06
2.52927e-06
1.16067e-07
4.75084e-06
2.98306e-06
1.42972e-07
4.70465e-06
3.42234e-06
1.67377e-07
3.87937e-06
1.85648e-07
8.58285e-07
8.28677e-08
2.30954e-09
1.65235e-06
2.45384e-07
6.91558e-09
2.37629e-06
4.03587e-07
1.16221e-08
3.0496e-06
5.63918e-07
1.67429e-08
3.68817e-06
7.34745e-07
2.26782e-08
4.3045e-06
9.2415e-07
2.98726e-08
4.90729e-06
1.1404e-06
3.885e-08
5.50049e-06
1.39225e-06
5.02444e-08
6.08153e-06
1.68906e-06
6.48205e-08
6.63877e-06
2.04039e-06
8.34604e-08
7.14857e-06
2.45467e-06
1.07053e-07
7.57332e-06
2.93602e-06
1.36159e-07
7.86506e-06
3.47756e-06
1.70241e-07
7.98378e-06
4.04913e-06
2.06293e-07
7.94076e-06
4.57727e-06
2.37611e-07
5.07063e-06
2.52131e-07
1.1821e-06
1.04848e-07
3.05268e-09
2.27517e-06
3.10259e-07
9.13704e-09
3.27095e-06
5.09645e-07
1.53268e-08
4.19623e-06
7.10813e-07
2.20001e-08
5.07305e-06
9.23892e-07
2.96455e-08
5.919e-06
1.15845e-06
3.87936e-08
6.74708e-06
1.424e-06
5.0051e-08
7.56467e-06
1.73031e-06
6.41252e-08
8.37156e-06
2.08742e-06
8.183e-08
9.15703e-06
2.50505e-06
1.04045e-07
9.89587e-06
2.99095e-06
1.31559e-07
1.05446e-05
3.54694e-06
1.64682e-07
1.10421e-05
4.16105e-06
2.02416e-07
1.13261e-05
4.79403e-06
2.41164e-07
1.13839e-05
5.36201e-06
2.73897e-07
5.85352e-06
2.87367e-07
1.48708e-06
1.22433e-07
3.65787e-09
2.86129e-06
3.62032e-07
1.09425e-08
4.1119e-06
5.9387e-07
1.83148e-08
5.2725e-06
8.26613e-07
2.6179e-08
6.37084e-06
1.07148e-06
3.50662e-08
7.42956e-06
1.3388e-06
4.55372e-08
8.46625e-06
1.63849e-06
5.82101e-08
9.49279e-06
1.98032e-06
7.37729e-08
1.05135e-05
2.37385e-06
9.29695e-08
1.15227e-05
2.82785e-06
1.16538e-07
1.25004e-05
3.34867e-06
1.45045e-07
1.34067e-05
3.93637e-06
1.78523e-07
1.41776e-05
4.57698e-06
2.15774e-07
1.47307e-05
5.22862e-06
2.53392e-07
1.50004e-05
5.80317e-06
2.8524e-07
6.277e-06
2.99403e-07
1.76876e-06
1.35036e-07
4.11827e-09
3.40209e-06
3.99006e-07
1.23123e-08
4.88662e-06
6.5359e-07
2.05574e-08
6.26196e-06
9.07816e-07
2.92511e-08
7.56098e-06
1.17336e-06
3.89272e-08
8.81087e-06
1.4606e-06
5.01326e-08
1.00338e-05
1.77913e-06
6.34444e-08
1.12463e-05
2.13784e-06
7.94713e-08
1.24588e-05
2.54486e-06
9.88235e-08
1.3673e-05
3.00704e-06
1.22042e-07
1.48795e-05
3.52866e-06
1.49459e-07
1.60514e-05
4.10852e-06
1.80926e-07
1.71353e-05
4.73391e-06
2.15349e-07
1.80402e-05
5.36855e-06
2.50105e-07
1.86308e-05
5.93074e-06
2.80665e-07
6.40176e-06
2.9656e-07
2.02335e-06
1.42326e-07
4.43786e-09
3.89027e-06
4.20249e-07
1.32593e-08
5.58455e-06
6.87436e-07
2.20833e-08
7.15081e-06
9.52832e-07
3.12747e-08
8.62609e-06
1.22799e-06
4.13412e-08
1.00414e-05
1.52279e-06
5.27854e-08
1.14225e-05
1.84586e-06
6.61132e-08
1.27905e-05
2.2046e-06
8.18286e-08
1.41607e-05
2.60493e-06
1.00393e-07
1.55428e-05
3.05083e-06
1.22154e-07
1.69389e-05
3.54345e-06
1.47261e-07
1.83387e-05
4.07912e-06
1.75489e-07
1.97104e-05
4.64623e-06
2.06029e-07
2.09798e-05
5.21941e-06
2.37299e-07
2.19739e-05
5.74417e-06
2.6683e-07
6.28366e-06
2.84782e-07
2.24777e-06
4.62944e-09
1.44207e-07
4.31999e-06
1.38231e-08
4.25537e-07
6.19737e-06
2.29654e-08
6.9522e-07
7.9283e-06
3.23721e-08
9.61762e-07
9.55288e-06
4.25062e-08
1.23612e-06
1.11047e-05
5.3811e-08
1.52727e-06
1.26121e-05
6.67105e-08
1.84249e-06
1.40986e-05
8.16014e-08
2.18726e-06
1.55828e-05
9.88111e-08
2.56486e-06
1.70793e-05
1.18538e-07
2.97578e-06
1.85972e-05
1.40803e-07
3.41658e-06
2.0136e-05
1.6537e-07
3.87794e-06
2.16766e-05
1.91678e-07
4.34136e-06
2.31566e-05
2.18857e-07
4.77349e-06
2.4397e-05
2.45497e-07
5.11408e-06
2.59315e-07
5.61323e-06
1.76044e-07
3.01081e-08
3.88899e-10
3.39036e-07
8.92639e-08
1.16453e-09
4.87798e-07
1.47139e-07
1.96056e-09
6.26334e-07
2.06226e-07
2.83541e-09
7.57894e-07
2.69752e-07
3.86153e-09
8.84952e-07
3.40907e-07
5.11917e-09
1.00909e-06
4.23026e-07
6.7023e-09
1.13076e-06
5.19746e-07
8.72244e-09
1.24884e-06
6.3507e-07
1.13083e-08
1.36013e-06
7.7332e-07
1.45948e-08
1.45889e-06
9.38849e-07
1.86895e-08
1.53695e-06
1.13537e-06
2.3597e-08
1.58558e-06
1.36455e-06
2.9085e-08
1.60074e-06
1.62267e-06
3.45206e-08
1.5899e-06
1.88724e-06
3.88472e-08
2.35719e-06
4.27064e-08
5.25161e-07
5.89015e-08
1.13482e-09
1.01128e-06
1.74548e-07
3.39817e-09
1.45483e-06
2.87485e-07
5.71669e-09
1.86778e-06
4.02477e-07
8.25325e-09
2.25983e-06
5.25692e-07
1.12117e-08
2.63844e-06
6.6314e-07
1.48166e-08
3.00851e-06
8.21024e-07
1.93283e-08
3.37171e-06
1.00597e-06
2.50526e-08
3.72525e-06
1.22509e-06
3.23373e-08
4.06036e-06
1.48572e-06
4.15394e-08
4.36073e-06
1.79459e-06
5.29286e-08
4.60227e-06
2.15585e-06
6.64748e-08
4.75718e-06
2.56715e-06
8.14739e-08
4.80739e-06
3.0117e-06
9.60974e-08
4.76795e-06
3.43956e-06
1.07415e-07
3.88965e-06
1.12534e-07
8.65661e-07
8.51335e-08
1.81085e-09
1.66664e-06
2.52134e-07
5.42142e-09
2.39711e-06
4.14822e-07
9.10811e-09
3.07678e-06
5.79865e-07
1.31135e-08
3.72172e-06
7.55867e-07
1.77445e-08
4.34447e-06
9.51072e-07
2.33345e-08
4.95368e-06
1.1738e-06
3.02632e-08
5.55311e-06
1.4327e-06
3.89659e-08
6.13997e-06
1.73673e-06
4.99231e-08
6.70238e-06
2.09462e-06
6.36054e-08
7.21662e-06
2.51334e-06
8.03253e-08
7.64557e-06
2.99482e-06
9.99267e-08
7.94238e-06
3.52966e-06
1.21257e-07
8.06813e-06
4.08646e-06
1.41565e-07
8.03256e-06
4.59505e-06
1.5671e-07
5.07136e-06
1.59366e-07
1.19218e-06
1.07706e-07
2.39352e-09
2.2947e-06
3.18769e-07
7.1631e-09
3.29937e-06
5.23789e-07
1.20124e-08
4.23332e-06
7.30852e-07
1.72342e-08
5.11879e-06
9.50372e-07
2.32042e-08
5.97347e-06
1.19211e-06
3.03222e-08
6.81026e-06
1.46563e-06
3.90313e-08
7.63628e-06
1.78055e-06
4.98229e-08
8.45095e-06
2.14641e-06
6.32164e-08
9.24307e-06
2.57192e-06
7.96865e-08
9.98709e-06
3.06301e-06
9.94903e-08
1.06396e-05
3.6188e-06
1.22325e-07
1.11405e-05
4.22408e-06
1.46776e-07
1.14291e-05
4.83775e-06
1.69744e-07
1.14925e-05
5.37938e-06
1.86787e-07
5.84583e-06
1.89892e-07
1.49963e-06
1.25759e-07
2.86805e-09
2.88559e-06
3.71927e-07
8.57887e-09
4.14722e-06
6.10292e-07
1.43556e-08
5.31856e-06
8.49831e-07
2.05123e-08
6.42761e-06
1.10209e-06
2.74582e-08
7.49713e-06
1.37759e-06
3.56189e-08
8.54458e-06
1.6863e-06
4.54499e-08
9.58148e-06
2.0378e-06
5.74362e-08
1.06117e-05
2.4411e-06
7.2063e-08
1.16289e-05
2.90384e-06
8.97375e-08
1.2612e-05
3.43034e-06
1.10624e-07
1.35209e-05
4.01765e-06
1.34339e-07
1.42922e-05
4.64818e-06
1.59493e-07
1.48453e-05
5.2777e-06
1.83244e-07
1.51167e-05
5.82148e-06
2.01582e-07
6.26542e-06
2.07121e-07
1.7835e-06
1.38691e-07
3.22902e-09
3.43059e-06
4.0987e-07
9.65301e-09
4.92801e-06
6.71594e-07
1.61151e-08
6.31588e-06
9.33219e-07
2.29243e-08
7.62736e-06
1.20676e-06
3.0494e-08
8.88982e-06
1.50281e-06
3.92418e-08
1.01252e-05
1.83096e-06
4.9598e-08
1.13498e-05
2.19993e-06
6.19993e-08
1.25732e-05
2.61725e-06
7.68551e-08
1.37966e-05
3.08862e-06
9.44764e-08
1.5009e-05
3.61623e-06
1.14944e-07
1.61822e-05
4.19578e-06
1.37887e-07
1.7263e-05
4.81083e-06
1.62183e-07
1.81624e-05
5.42249e-06
1.85679e-07
1.87496e-05
5.95208e-06
2.05288e-07
6.39139e-06
2.14176e-07
2.03996e-06
1.46165e-07
3.47954e-09
3.92235e-06
4.31649e-07
1.03957e-08
5.63109e-06
7.063e-07
1.73127e-08
7.21134e-06
9.79394e-07
2.45149e-08
8.70052e-06
1.26282e-06
3.23968e-08
1.01298e-05
1.56668e-06
4.13452e-08
1.15248e-05
1.8996e-06
5.17428e-08
1.29061e-05
2.26875e-06
6.39576e-08
1.42887e-05
2.67948e-06
7.83105e-08
1.56811e-05
3.13467e-06
9.50169e-08
1.70836e-05
3.63344e-06
1.14099e-07
1.84842e-05
4.16915e-06
1.3526e-07
1.98501e-05
4.72659e-06
1.57739e-07
2.1109e-05
5.27771e-06
1.80237e-07
2.2094e-05
5.77025e-06
2.00959e-07
6.27796e-06
2.12995e-07
2.2659e-06
3.62965e-09
1.48083e-07
4.355e-06
1.08377e-08
4.3704e-07
6.24808e-06
1.80053e-08
7.14229e-07
7.99415e-06
2.53787e-08
9.8848e-07
9.63371e-06
3.33191e-08
1.27108e-06
1.12005e-05
4.21703e-08
1.57121e-06
1.27228e-05
5.22578e-08
1.89614e-06
1.42237e-05
6.3878e-08
2.25113e-06
1.57215e-05
7.72682e-08
2.63891e-06
1.72294e-05
9.2565e-08
3.05892e-06
1.87546e-05
1.09752e-07
3.50589e-06
2.02944e-05
1.28602e-07
3.96785e-06
2.18285e-05
1.48629e-07
4.42315e-06
2.3295e-05
1.69088e-07
4.83596e-06
2.45207e-05
1.88791e-07
5.14751e-06
1.98516e-07
5.6135e-06
1.77189e-07
3.07225e-08
2.675e-10
3.41256e-07
9.10944e-08
8.00845e-10
4.9103e-07
1.50184e-07
1.34775e-09
6.3055e-07
2.10538e-07
1.94789e-09
7.63087e-07
2.75441e-07
2.64995e-09
8.91122e-07
3.48109e-07
3.50673e-09
1.01623e-06
4.31871e-07
4.5779e-09
1.13883e-06
5.30293e-07
5.93038e-09
1.25778e-06
6.47228e-07
7.63415e-09
1.36987e-06
7.86728e-07
9.74857e-09
1.46939e-06
9.52763e-07
1.22921e-08
1.54827e-06
1.14863e-06
1.51882e-08
1.5979e-06
1.37582e-06
1.81936e-08
1.61425e-06
1.63116e-06
2.08574e-08
1.6044e-06
1.89371e-06
2.26463e-08
2.36714e-06
2.3772e-08
5.28567e-07
6.01023e-08
7.80548e-10
1.01788e-06
1.78124e-07
2.33688e-09
1.46444e-06
2.93426e-07
3.92988e-09
1.88031e-06
4.10883e-07
5.67016e-09
2.27525e-06
5.36766e-07
7.6949e-09
2.65675e-06
6.77141e-07
1.0152e-08
3.02968e-06
8.38189e-07
1.32074e-08
3.39563e-06
1.02641e-06
1.70454e-08
3.75172e-06
1.24861e-06
2.18566e-08
4.08915e-06
1.51162e-06
2.77997e-08
4.39163e-06
1.82139e-06
3.49172e-08
4.63534e-06
2.18124e-06
4.29864e-08
4.79282e-06
2.58827e-06
5.13163e-08
4.84602e-06
3.02643e-06
5.86255e-08
4.8089e-06
3.44843e-06
6.34039e-08
3.89729e-06
6.39539e-08
8.71249e-07
8.68661e-08
1.24552e-09
1.67747e-06
2.5729e-07
3.72829e-09
2.41286e-06
4.2338e-07
6.2616e-09
3.0973e-06
5.91954e-07
9.01034e-09
3.74697e-06
7.71765e-07
1.21814e-08
4.37443e-06
9.71132e-07
1.59951e-08
4.98828e-06
1.19834e-06
2.06945e-08
5.59216e-06
1.46185e-06
2.65442e-08
6.18309e-06
1.7702e-06
3.38106e-08
6.74906e-06
2.13137e-06
4.27045e-08
7.26632e-06
2.55124e-06
5.32591e-08
7.69801e-06
3.03042e-06
6.51166e-08
7.99777e-06
3.5586e-06
7.72414e-08
8.12677e-06
4.10499e-06
8.77485e-08
8.09361e-06
4.60283e-06
9.44518e-08
5.07306e-06
9.34503e-08
1.19982e-06
1.09893e-07
1.6463e-09
2.30949e-06
3.2527e-07
4.92621e-09
3.32086e-06
5.34566e-07
8.2589e-09
4.2613e-06
7.46052e-07
1.18438e-08
5.1532e-06
9.70322e-07
1.59346e-08
6.01428e-06
1.21722e-06
2.07966e-08
6.85736e-06
1.49627e-06
2.67155e-08
7.68935e-06
1.81685e-06
3.39933e-08
8.50941e-06
2.18798e-06
4.29226e-08
9.30605e-06
2.61745e-06
5.37186e-08
1.00535e-05
3.10982e-06
6.63831e-08
1.07085e-05
3.66253e-06
8.04737e-08
1.12113e-05
4.25907e-06
9.4804e-08
1.15021e-05
4.85878e-06
1.07275e-07
1.15672e-05
5.38512e-06
1.15471e-07
5.84101e-06
1.15087e-07
1.50914e-06
1.28305e-07
1.97272e-09
2.90399e-06
3.79491e-07
5.90013e-09
4.17395e-06
6.22813e-07
9.87103e-09
5.35333e-06
8.67458e-07
1.40995e-08
6.47033e-06
1.12517e-06
1.88629e-08
7.54774e-06
1.40658e-06
2.44447e-08
8.60293e-06
1.72157e-06
3.11415e-08
9.64715e-06
2.07947e-06
3.92555e-08
1.06839e-05
2.4887e-06
4.9066e-08
1.17063e-05
2.95587e-06
6.07622e-08
1.2693e-05
3.48375e-06
7.43174e-08
1.36035e-05
4.06749e-06
8.92867e-08
1.43749e-05
4.68788e-06
1.04556e-07
1.49279e-05
5.30098e-06
1.18206e-07
1.51997e-05
5.82609e-06
1.2797e-07
6.25618e-06
1.29748e-07
1.79467e-06
1.41491e-07
2.22106e-09
3.45218e-06
4.1818e-07
6.63922e-09
4.95934e-06
6.85332e-07
1.10821e-08
6.3566e-06
9.52522e-07
1.57608e-08
7.67734e-06
1.23198e-06
2.09561e-08
8.94897e-06
1.53439e-06
2.6948e-08
1.01933e-05
1.8693e-06
3.40194e-08
1.14264e-05
2.2451e-06
4.24473e-08
1.26574e-05
2.66874e-06
5.2474e-08
1.38866e-05
3.14483e-06
6.42504e-08
1.51024e-05
3.67397e-06
7.7738e-08
1.62763e-05
4.24984e-06
9.25632e-08
1.73551e-05
4.85423e-06
1.07851e-07
1.82515e-05
5.4483e-06
1.22138e-07
1.88372e-05
5.95732e-06
1.33608e-07
6.38081e-06
1.38232e-07
2.05255e-06
1.49106e-07
2.39343e-09
3.94667e-06
4.40375e-07
7.1504e-09
5.66633e-06
7.20705e-07
1.1907e-08
7.25709e-06
9.99598e-07
1.68576e-08
8.7566e-06
1.28916e-06
2.22711e-08
1.01961e-05
1.5996e-06
2.84086e-08
1.16011e-05
1.93945e-06
3.55246e-08
1.29918e-05
2.31559e-06
4.38571e-08
1.43828e-05
2.73279e-06
5.36026e-08
1.57817e-05
3.19287e-06
6.48731e-08
1.71878e-05
3.69338e-06
7.7631e-08
1.85882e-05
4.22569e-06
9.16055e-08
1.99502e-05
4.77282e-06
1.06215e-07
2.12033e-05
5.30646e-06
1.20554e-07
2.21842e-05
5.77788e-06
1.33508e-07
6.26857e-06
1.40703e-07
2.27967e-06
2.49672e-09
1.51055e-07
4.38155e-06
7.45473e-09
4.4585e-07
6.28652e-06
1.23843e-08
7.28755e-07
8.04398e-06
1.74542e-08
1.00882e-06
9.69469e-06
2.29112e-08
1.29755e-06
1.12725e-05
2.89889e-08
1.60422e-06
1.28056e-05
3.59067e-08
1.93603e-06
1.43166e-05
4.38601e-08
2.29794e-06
1.58235e-05
5.30003e-08
2.69214e-06
1.73386e-05
6.34047e-08
3.11709e-06
1.88677e-05
7.50385e-08
3.56606e-06
2.04073e-05
8.77127e-08
4.02527e-06
2.19365e-05
1.01057e-07
4.47141e-06
2.33952e-05
1.14519e-07
4.8683e-06
2.46134e-05
1.27268e-07
5.15995e-06
1.3312e-07
5.60647e-06
1.77958e-07
3.11371e-08
1.36267e-10
3.42746e-07
9.23287e-08
4.07891e-10
4.93198e-07
1.52232e-07
6.86237e-10
6.33373e-07
2.13427e-07
9.91346e-10
7.66556e-07
2.79229e-07
1.34765e-09
8.95231e-07
3.52863e-07
1.78122e-09
1.02097e-06
4.3764e-07
2.32077e-09
1.14417e-06
5.37062e-07
2.9972e-09
1.26367e-06
6.54862e-07
3.84031e-09
1.37626e-06
7.94906e-07
4.8702e-09
1.47624e-06
9.60933e-07
6.0805e-09
1.55556e-06
1.15606e-06
7.41185e-09
1.60567e-06
1.38183e-06
8.7231e-09
1.62248e-06
1.63561e-06
9.79143e-09
1.61288e-06
1.89738e-06
1.04056e-08
2.37308e-06
1.06338e-08
5.30854e-07
6.0913e-08
3.97611e-10
1.02231e-06
1.80535e-07
1.19022e-09
1.47088e-06