/*--------------------------------*- C++ -*----------------------------------*\
| =========                 |                                                 |
| \\      /  F ield         | foam-extend: Open Source CFD                    |
|  \\    /   O peration     | Version:     3.1                                |
|   \\  /    A nd           | Web:         http://www.extend-project.de       |
|    \\/     M anipulation  |                                                 |
\*---------------------------------------------------------------------------*/
FoamFile
{
    version     2.0;
    format      ascii;
    class       volScalarField;
    location    "0.6";
    object      p;
}
// * * * * * * * * * * * * * * * * * * * * * * * * * * * * * * * * * * * * * //

dimensions      [0 2 -2 0 0 0 0];

internalField   nonuniform List<scalar> 
14592
(
0.249867
0.247983
0.244952
0.24129
0.237345
0.233259
0.229114
0.224963
0.22084
0.216776
0.212799
0.208941
0.205238
0.201739
0.198588
0.196293
0.250657
0.248167
0.244945
0.241216
0.237233
0.233121
0.228954
0.224783
0.220641
0.216561
0.212573
0.208711
0.205021
0.201564
0.198484
0.196266
0.252272
0.248932
0.2453
0.241359
0.237243
0.233041
0.228809
0.224586
0.220397
0.216273
0.212244
0.208342
0.204614
0.201125
0.198014
0.195752
0.254205
0.249986
0.245854
0.24163
0.237327
0.232995
0.228668
0.224365
0.220109
0.215918
0.211817
0.207837
0.204021
0.200433
0.197213
0.194834
0.256076
0.251078
0.246451
0.241932
0.237427
0.232952
0.228516
0.224122
0.219782
0.215504
0.211307
0.207216
0.20327
0.19953
0.196143
0.19361
0.257645
0.252027
0.246973
0.242188
0.237497
0.232885
0.228342
0.223852
0.219419
0.215042
0.21073
0.206501
0.202386
0.198443
0.19483
0.192087
0.258739
0.25269
0.247323
0.242334
0.237496
0.232771
0.228126
0.223552
0.219028
0.214547
0.210109
0.205722
0.201405
0.197206
0.193287
0.190224
0.259252
0.252975
0.247437
0.242329
0.237398
0.232591
0.22788
0.223231
0.218621
0.214039
0.209473
0.204918
0.200374
0.195858
0.191488
0.18775
0.251356
0.249364
0.246183
0.242367
0.23829
0.234106
0.229899
0.225725
0.221623
0.217633
0.213795
0.21016
0.206801
0.203821
0.201448
0.200273
0.252212
0.249565
0.246178
0.242289
0.238173
0.233962
0.229733
0.225541
0.221422
0.217417
0.213571
0.209938
0.206599
0.203663
0.201353
0.20029
0.253959
0.250396
0.246564
0.242448
0.238188
0.233881
0.229583
0.225336
0.221167
0.217118
0.213227
0.209551
0.20617
0.203194
0.200841
0.199729
0.256053
0.251543
0.247166
0.242744
0.238283
0.233837
0.229436
0.225102
0.220862
0.216739
0.212768
0.209002
0.205518
0.202423
0.199929
0.198637
0.258087
0.252735
0.247817
0.243075
0.238396
0.233795
0.229277
0.224844
0.220511
0.21629
0.21221
0.208315
0.204675
0.201392
0.19868
0.197133
0.259796
0.253773
0.248388
0.243356
0.238476
0.233726
0.22909
0.224554
0.220117
0.215784
0.211571
0.207511
0.203666
0.200129
0.197115
0.19523
0.260991
0.2545
0.248772
0.243518
0.238478
0.233605
0.22886
0.224229
0.21969
0.215236
0.210875
0.206625
0.202529
0.198666
0.195238
0.192864
0.261553
0.254814
0.248899
0.243515
0.238374
0.233411
0.228594
0.223879
0.219243
0.214672
0.210158
0.205703
0.201319
0.197042
0.193008
0.18968
0.252717
0.250632
0.24732
0.243369
0.239174
0.234901
0.230638
0.226444
0.222362
0.218437
0.214716
0.211263
0.208164
0.205533
0.203589
0.202775
0.253629
0.250848
0.247316
0.243287
0.239052
0.234752
0.230468
0.226257
0.222158
0.21822
0.214494
0.211046
0.207968
0.205377
0.203488
0.202762
0.25549
0.251738
0.247731
0.243459
0.239072
0.234671
0.230314
0.226044
0.221895
0.217909
0.214136
0.210641
0.207516
0.204877
0.202932
0.202142
0.257726
0.252967
0.248377
0.243779
0.239177
0.234627
0.230161
0.2258
0.221574
0.217508
0.213648
0.210054
0.206813
0.204039
0.201933
0.200944
0.259903
0.254247
0.249076
0.244135
0.239301
0.234586
0.229994
0.225527
0.2212
0.217028
0.213047
0.209308
0.205891
0.202905
0.200549
0.199276
0.261736
0.255364
0.24969
0.244438
0.239389
0.234514
0.229797
0.225217
0.220777
0.216481
0.212351
0.208427
0.204777
0.2015
0.198795
0.197141
0.26302
0.256148
0.250105
0.244614
0.239394
0.234387
0.229552
0.22487
0.220316
0.215886
0.211589
0.207448
0.203511
0.199858
0.196672
0.194459
0.263625
0.256488
0.250242
0.244612
0.239284
0.234182
0.229267
0.224493
0.219832
0.21527
0.210799
0.206422
0.202153
0.198024
0.19414
0.190851
0.25391
0.251748
0.248326
0.244258
0.239963
0.235613
0.231302
0.22709
0.223024
0.219151
0.215523
0.212208
0.209294
0.206891
0.205192
0.204528
0.254869
0.251978
0.248323
0.244174
0.239837
0.23546
0.231128
0.2269
0.222818
0.218933
0.215302
0.211993
0.2091
0.206734
0.205083
0.204488
0.256828
0.252917
0.248762
0.244358
0.239861
0.235378
0.23097
0.226681
0.222546
0.218612
0.214931
0.211572
0.208626
0.206205
0.204489
0.203817
0.259184
0.254216
0.249446
0.244698
0.239975
0.235336
0.230813
0.226427
0.222211
0.218192
0.214417
0.210951
0.207881
0.205312
0.203421
0.20254
0.261482
0.255572
0.250187
0.245076
0.240109
0.235295
0.230639
0.226142
0.221818
0.217685
0.213779
0.210156
0.206894
0.204095
0.201932
0.200754
0.26342
0.256757
0.250839
0.245399
0.240204
0.235221
0.230431
0.225815
0.22137
0.217102
0.213036
0.209211
0.205696
0.202581
0.200038
0.198459
0.264779
0.257589
0.251279
0.245586
0.24021
0.235088
0.230174
0.225446
0.220879
0.216466
0.212217
0.208156
0.204327
0.200802
0.197736
0.195562
0.26542
0.257951
0.251426
0.245585
0.240094
0.234871
0.229872
0.225046
0.220362
0.215805
0.211365
0.207045
0.202853
0.19881
0.194992
0.191672
0.254903
0.25268
0.249169
0.245007
0.240629
0.236216
0.231864
0.227637
0.223582
0.219748
0.216189
0.212973
0.210186
0.207927
0.206367
0.205771
0.255901
0.252921
0.249168
0.244921
0.2405
0.23606
0.231687
0.227445
0.223374
0.21953
0.215968
0.212758
0.209991
0.207767
0.206249
0.20571
0.257937
0.2539
0.249627
0.245114
0.240528
0.235977
0.231526
0.22722
0.223096
0.2192
0.215587
0.212324
0.2095
0.207214
0.205624
0.204999
0.260391
0.255257
0.250341
0.245471
0.240649
0.235936
0.231365
0.226959
0.222749
0.218764
0.215052
0.211676
0.208719
0.206277
0.204502
0.203661
0.262788
0.256675
0.251116
0.245867
0.24079
0.235895
0.231186
0.226663
0.222339
0.218234
0.214384
0.210842
0.207683
0.204998
0.202937
0.201791
0.264811
0.257914
0.251798
0.246205
0.240891
0.235819
0.23097
0.226321
0.221871
0.217623
0.213602
0.209847
0.206419
0.203401
0.20094
0.19938
0.266231
0.258787
0.25226
0.246402
0.240898
0.23568
0.230701
0.225935
0.221355
0.216954
0.212739
0.208732
0.204972
0.201521
0.198511
0.196334
0.266902
0.259167
0.252414
0.246401
0.240777
0.235454
0.230385
0.225514
0.220811
0.216255
0.211837
0.207554
0.203411
0.199415
0.195619
0.192252
0.255671
0.253402
0.249824
0.24559
0.24115
0.236688
0.232305
0.228066
0.224017
0.22021
0.216699
0.21355
0.210843
0.208673
0.20719
0.206627
0.256698
0.253651
0.249824
0.245503
0.241018
0.236529
0.232126
0.227871
0.223807
0.219991
0.216477
0.213334
0.210648
0.20851
0.207067
0.206552
0.258793
0.254661
0.250298
0.245704
0.241048
0.236446
0.231962
0.227641
0.223524
0.219655
0.216088
0.212889
0.210143
0.207939
0.206418
0.205813
0.26132
0.256062
0.251036
0.246072
0.241175
0.236405
0.231798
0.227376
0.223169
0.219207
0.215537
0.212222
0.209337
0.20697
0.205257
0.204431
0.263792
0.257526
0.251837
0.246483
0.241323
0.236365
0.231615
0.227071
0.222746
0.21866
0.214847
0.211358
0.208264
0.205646
0.203637
0.2025
0.26588
0.258808
0.252542
0.246833
0.241427
0.236287
0.231392
0.226718
0.222262
0.218027
0.214036
0.210326
0.206953
0.20399
0.20157
0.200011
0.267347
0.259711
0.25302
0.247036
0.241435
0.236144
0.231114
0.226318
0.221727
0.217332
0.213139
0.209167
0.20545
0.20204
0.199053
0.196862
0.26804
0.260105
0.25318
0.247036
0.24131
0.23591
0.230786
0.225882
0.221162
0.216606
0.212201
0.207942
0.203827
0.199854
0.196061
0.192651
0.256194
0.253894
0.250273
0.245991
0.241507
0.237013
0.232608
0.22836
0.224316
0.220525
0.217044
0.213935
0.211277
0.209157
0.207716
0.207167
0.257242
0.254151
0.250274
0.245903
0.241375
0.236853
0.232428
0.228164
0.224105
0.220306
0.216821
0.213719
0.211081
0.208992
0.207589
0.207084
0.259376
0.255182
0.250758
0.246109
0.241407
0.23677
0.232263
0.227932
0.223818
0.219965
0.216427
0.213268
0.210567
0.208409
0.206925
0.206327
0.261952
0.256612
0.251512
0.246486
0.241537
0.236729
0.232097
0.227663
0.223457
0.219509
0.215866
0.212586
0.209744
0.20742
0.205739
0.204916
0.264474
0.258109
0.252331
0.246906
0.241689
0.236689
0.231911
0.227352
0.223026
0.218951
0.21516
0.211704
0.208647
0.206066
0.204084
0.202947
0.266605
0.259419
0.253052
0.247264
0.241797
0.23661
0.231683
0.226991
0.22253
0.218303
0.214331
0.210647
0.207305
0.204372
0.201971
0.200407
0.268103
0.260342
0.25354
0.247472
0.241805
0.236464
0.231399
0.226583
0.221983
0.217591
0.213411
0.209459
0.205766
0.202376
0.199399
0.197195
0.268811
0.260745
0.253704
0.247471
0.241677
0.236225
0.231064
0.226136
0.221404
0.216846
0.212448
0.208202
0.204103
0.200141
0.196344
0.192902
0.256454
0.254131
0.250493
0.246188
0.241684
0.237173
0.232758
0.228506
0.224463
0.220681
0.217213
0.214123
0.211487
0.20939
0.20797
0.207424
0.257516
0.254396
0.250496
0.2461
0.24155
0.237012
0.232577
0.228308
0.224251
0.220459
0.216989
0.213905
0.211288
0.209221
0.207837
0.207333
0.259664
0.255436
0.250983
0.246307
0.241582
0.236928
0.23241
0.228074
0.223962
0.220117
0.216591
0.21345
0.21077
0.208633
0.207167
0.206567
0.262263
0.256882
0.251744
0.246688
0.241714
0.236888
0.232243
0.227803
0.223598
0.219657
0.216026
0.212762
0.209939
0.207634
0.205968
0.205144
0.264809
0.258396
0.252572
0.247112
0.241868
0.236847
0.232055
0.227489
0.223163
0.219092
0.215312
0.211871
0.208831
0.206265
0.204297
0.203158
0.266961
0.259722
0.253301
0.247474
0.241977
0.236768
0.231825
0.227125
0.222662
0.218438
0.214473
0.210802
0.207474
0.204553
0.202162
0.200595
0.268474
0.260655
0.253794
0.247684
0.241985
0.23662
0.231538
0.226712
0.222108
0.217717
0.213543
0.2096
0.205917
0.202536
0.199564
0.197351
0.26919
0.261063
0.25396
0.247683
0.241856
0.236378
0.231199
0.22626
0.221522
0.216963
0.212569
0.208329
0.204235
0.200277
0.196476
0.193007
0.240153
0.239415
0.237658
0.235156
0.232134
0.228723
0.225011
0.221061
0.216908
0.212574
0.208067
0.203381
0.198504
0.193421
0.188118
0.182598
0.24034
0.239549
0.237732
0.235175
0.23211
0.228661
0.224918
0.220939
0.21676
0.212403
0.207873
0.203166
0.198269
0.193168
0.187849
0.182314
0.240752
0.239846
0.237917
0.235266
0.232126
0.228619
0.224828
0.220809
0.216596
0.212209
0.207652
0.202921
0.198004
0.192886
0.187555
0.182015
0.241264
0.240223
0.238159
0.235393
0.232161
0.228582
0.224734
0.220669
0.216416
0.211994
0.207407
0.20265
0.197712
0.192579
0.187241
0.181703
0.241769
0.240602
0.238404
0.23552
0.232194
0.22854
0.224632
0.220516
0.216222
0.211764
0.207145
0.202362
0.197403
0.192257
0.186917
0.181387
0.242191
0.240924
0.238609
0.235619
0.232205
0.228481
0.224516
0.220353
0.216018
0.211524
0.206874
0.202065
0.197087
0.191931
0.186593
0.181078
0.242479
0.241138
0.238735
0.235662
0.232179
0.228397
0.224383
0.220178
0.215806
0.211279
0.206601
0.201768
0.196774
0.191612
0.18628
0.180787
0.242595
0.241214
0.238757
0.235633
0.232103
0.228281
0.224231
0.219994
0.215591
0.211036
0.206333
0.20148
0.196474
0.19131
0.185989
0.180523
0.240426
0.239615
0.2378
0.235259
0.232214
0.228788
0.225068
0.221114
0.216961
0.212631
0.208128
0.203449
0.198577
0.193496
0.188188
0.182652
0.240623
0.239701
0.237826
0.23524
0.23216
0.228704
0.224956
0.220976
0.2168
0.212447
0.207922
0.203221
0.198329
0.193229
0.187904
0.182354
0.2411
0.23999
0.237991
0.235313
0.232161
0.228649
0.224856
0.220838
0.216628
0.212245
0.207693
0.202967
0.198055
0.192937
0.187601
0.182045
0.24169
0.240375
0.238227
0.235431
0.232189
0.228606
0.224757
0.220693
0.216443
0.212025
0.207442
0.20269
0.197756
0.192623
0.187279
0.181725
0.242263
0.240767
0.23847
0.235555
0.232217
0.22856
0.224651
0.220536
0.216245
0.211791
0.207176
0.202397
0.197441
0.192294
0.186946
0.181402
0.24274
0.241099
0.238675
0.235652
0.232226
0.228499
0.224533
0.220371
0.216038
0.211547
0.206901
0.202094
0.197118
0.19196
0.186614
0.181086
0.243063
0.241322
0.238801
0.235694
0.232198
0.228413
0.224397
0.220194
0.215824
0.211299
0.206623
0.201792
0.196798
0.191634
0.186294
0.180787
0.243196
0.2414
0.238823
0.235663
0.232121
0.228295
0.224244
0.220007
0.215606
0.211052
0.206351
0.201499
0.196492
0.191325
0.185996
0.180517
0.241169
0.240217
0.238276
0.235636
0.232519
0.229044
0.225293
0.221322
0.217166
0.212842
0.208355
0.203695
0.198842
0.193769
0.188446
0.182858
0.241439
0.240299
0.238285
0.235601
0.232451
0.228948
0.225172
0.221177
0.216998
0.212651
0.208142
0.20346
0.198587
0.193494
0.188152
0.182549
0.242053
0.240624
0.238455
0.235669
0.232445
0.228886
0.225064
0.221031
0.216817
0.21244
0.207903
0.203196
0.198299
0.193187
0.187833
0.182224
0.242796
0.241065
0.23871
0.235793
0.232472
0.228838
0.224958
0.220878
0.216624
0.212211
0.20764
0.202904
0.197983
0.192854
0.18749
0.181884
0.243509
0.241514
0.238976
0.235926
0.232502
0.22879
0.224848
0.220714
0.216417
0.211965
0.20736
0.202593
0.197648
0.192501
0.187133
0.181537
0.244099
0.241896
0.239202
0.236031
0.232513
0.228727
0.224726
0.220542
0.216201
0.211709
0.207069
0.202271
0.197302
0.192141
0.186773
0.181194
0.2445
0.242153
0.239344
0.236079
0.232486
0.228638
0.224584
0.220358
0.215976
0.211448
0.206775
0.201948
0.196957
0.191786
0.186423
0.180869
0.244671
0.242247
0.239372
0.23605
0.232407
0.228517
0.224426
0.220164
0.215749
0.211189
0.206486
0.201635
0.196627
0.19145
0.186098
0.180575
0.242267
0.241143
0.239035
0.236252
0.233027
0.229476
0.225676
0.221679
0.217517
0.213205
0.208746
0.204124
0.19931
0.194261
0.188921
0.183248
0.24263
0.241236
0.239036
0.236208
0.232951
0.229373
0.225548
0.221527
0.217343
0.213009
0.208527
0.203883
0.199048
0.193978
0.188618
0.182929
0.243412
0.241622
0.239227
0.236282
0.232944
0.229305
0.225433
0.221373
0.217153
0.212788
0.208276
0.203605
0.198744
0.193653
0.188278
0.182583
0.244346
0.242148
0.239517
0.236421
0.232974
0.229255
0.225322
0.221212
0.216948
0.212544
0.207996
0.203292
0.198403
0.19329
0.187904
0.182211
0.245239
0.242684
0.239824
0.236572
0.23301
0.229206
0.225205
0.221038
0.216729
0.212281
0.207694
0.202953
0.198034
0.192899
0.187505
0.181825
0.245976
0.243141
0.240086
0.236695
0.233028
0.229142
0.225078
0.220856
0.216498
0.212006
0.207377
0.202599
0.197648
0.192493
0.187096
0.181436
0.246481
0.243451
0.240254
0.236755
0.233004
0.229051
0.224928
0.22066
0.216258
0.211724
0.207055
0.202241
0.197261
0.192088
0.186694
0.181063
0.246702
0.243571
0.240293
0.23673
0.232924
0.228924
0.224762
0.220455
0.216014
0.211443
0.206739
0.201892
0.196887
0.191701
0.186316
0.180722
0.243604
0.242306
0.240009
0.23706
0.233703
0.230056
0.226193
0.222164
0.217998
0.213709
0.209295
0.204737
0.199995
0.195002
0.189662
0.183881
0.244062
0.242414
0.240006
0.237008
0.233619
0.229945
0.226059
0.222007
0.217818
0.213507
0.209071
0.204491
0.199728
0.194714
0.189353
0.183556
0.245022
0.242873
0.240224
0.237092
0.233612
0.229874
0.225937
0.221844
0.217618
0.213273
0.208805
0.204195
0.199404
0.194367
0.188987
0.183184
0.246163
0.243499
0.240561
0.237252
0.23365
0.229824
0.22582
0.221673
0.2174
0.213011
0.208502
0.203854
0.199029
0.193964
0.18857
0.18277
0.247253
0.244139
0.24092
0.237429
0.233697
0.229775
0.225698
0.221488
0.217164
0.212727
0.208171
0.203478
0.198613
0.193518
0.188112
0.182326
0.248157
0.244686
0.241228
0.237575
0.233723
0.229711
0.225563
0.221292
0.216913
0.212425
0.207819
0.203079
0.19817
0.193044
0.18763
0.181867
0.248777
0.245062
0.241428
0.23765
0.233703
0.229616
0.225403
0.221082
0.216652
0.212114
0.207459
0.20267
0.197719
0.192563
0.187144
0.181416
0.249056
0.245212
0.241481
0.237629
0.233621
0.229482
0.225226
0.22086
0.216386
0.211803
0.207102
0.202269
0.197279
0.192097
0.18668
0.180994
0.2451
0.243635
0.241144
0.238014
0.234512
0.230758
0.226825
0.222762
0.218596
0.214341
0.209996
0.20554
0.200922
0.196046
0.190753
0.184852
0.24565
0.243762
0.241138
0.237955
0.23442
0.23064
0.226684
0.222598
0.21841
0.214134
0.209768
0.205291
0.200653
0.195757
0.190439
0.184526
0.246788
0.244298
0.241389
0.238052
0.234416
0.230565
0.226556
0.222426
0.218199
0.213887
0.209486
0.204976
0.200307
0.195384
0.190044
0.184121
0.248139
0.245033
0.241779
0.238239
0.234464
0.230515
0.226433
0.222245
0.217965
0.213604
0.209157
0.204601
0.199889
0.19493
0.189571
0.183652
0.249434
0.245786
0.242196
0.238445
0.234524
0.230468
0.226304
0.222046
0.217709
0.213292
0.208789
0.204177
0.199412
0.194411
0.189033
0.183133
0.250511
0.246434
0.242556
0.238618
0.23456
0.230403
0.226161
0.221835
0.217435
0.212958
0.208392
0.203718
0.198893
0.193843
0.188449
0.18258
0.251254
0.246881
0.242792
0.238711
0.234546
0.230305
0.225989
0.221606
0.217147
0.212609
0.207981
0.203242
0.198353
0.193252
0.187841
0.182012
0.251593
0.247064
0.242861
0.238694
0.234461
0.230162
0.225798
0.221363
0.216853
0.21226
0.207572
0.20277
0.197819
0.192669
0.187243
0.181461
0.246685
0.245065
0.242383
0.239069
0.235415
0.231549
0.227544
0.223447
0.219289
0.215085
0.210838
0.206532
0.202117
0.197472
0.192337
0.18629
0.247321
0.245211
0.242376
0.239004
0.235316
0.231424
0.227395
0.223278
0.219098
0.214873
0.210607
0.206283
0.201852
0.19719
0.192013
0.185906
0.24863
0.245827
0.242662
0.239116
0.235317
0.231347
0.227262
0.223097
0.218876
0.214613
0.210309
0.205949
0.201484
0.196789
0.191578
0.185449
0.250187
0.246672
0.243107
0.239331
0.235376
0.231299
0.227133
0.222903
0.218624
0.214307
0.209949
0.205534
0.201014
0.196271
0.191036
0.184926
0.251685
0.247542
0.243584
0.239569
0.235449
0.231253
0.226996
0.222689
0.218346
0.213963
0.209538
0.205052
0.20046
0.195655
0.190397
0.184336
0.252933
0.248292
0.243999
0.23977
0.235498
0.231188
0.226844
0.222461
0.218045
0.21359
0.209087
0.204519
0.199841
0.19496
0.189673
0.183677
0.253799
0.248813
0.244275
0.239881
0.235488
0.231085
0.226659
0.22221
0.217725
0.213197
0.208614
0.203956
0.199183
0.194215
0.18889
0.182964
0.254199
0.249031
0.244358
0.239869
0.2354
0.23093
0.226451
0.221943
0.217397
0.2128
0.20814
0.203392
0.198522
0.19346
0.188085
0.18222
0.248292
0.246533
0.243669
0.240176
0.236373
0.232395
0.228318
0.224192
0.220048
0.21591
0.21179
0.20769
0.203588
0.199396
0.194838
0.189042
0.249009
0.246698
0.243662
0.240106
0.236267
0.232263
0.228163
0.224017
0.219853
0.215696
0.21156
0.207449
0.203343
0.199152
0.194553
0.188563
0.250478
0.247391
0.243983
0.240234
0.236273
0.232185
0.228024
0.223828
0.21962
0.215422
0.211246
0.207096
0.202953
0.198727
0.194083
0.188042
0.25223
0.248344
0.244484
0.240477
0.236344
0.232137
0.227889
0.22362
0.21935
0.215091
0.210853
0.206637
0.202423
0.198127
0.193438
0.187443
0.253922
0.249328
0.245022
0.240748
0.236431
0.232093
0.227745
0.223392
0.219048
0.214713
0.210393
0.206087
0.201775
0.19738
0.192634
0.186735
0.255336
0.25018
0.245492
0.240977
0.236491
0.232027
0.227582
0.223143
0.218716
0.214296
0.209881
0.205466
0.201031
0.196508
0.191685
0.185891
0.25632
0.250774
0.245805
0.241106
0.236486
0.231919
0.227381
0.222869
0.218362
0.213854
0.209337
0.2048
0.200222
0.195545
0.190609
0.184898
0.256778
0.251026
0.245905
0.241098
0.236393
0.231752
0.227155
0.222575
0.217996
0.213403
0.208785
0.204123
0.19939
0.194533
0.189432
0.183717
0.259124
0.252837
0.247284
0.242155
0.237198
0.232358
0.227602
0.222896
0.218216
0.213542
0.208857
0.204141
0.199366
0.194482
0.189389
0.183732
0.258381
0.252292
0.246879
0.241825
0.236903
0.232073
0.227302
0.222561
0.217827
0.213079
0.208295
0.203448
0.198497
0.193374
0.187956
0.18204
0.257076
0.251395
0.246263
0.241369
0.23654
0.231756
0.226997
0.222242
0.217472
0.212668
0.207808
0.202865
0.1978
0.192557
0.187053
0.181193
0.255333
0.250254
0.245515
0.240843
0.236147
0.231436
0.226708
0.221955
0.217163
0.21232
0.207407
0.202399
0.197265
0.191964
0.186448
0.180672
0.253334
0.24902
0.244742
0.24032
0.235773
0.231146
0.226458
0.221714
0.216913
0.212045
0.207096
0.202047
0.196874
0.19155
0.186049
0.180356
0.25133
0.24788
0.244062
0.239878
0.235469
0.230918
0.226267
0.221536
0.21673
0.211847
0.206876
0.201802
0.196609
0.191278
0.185799
0.18017
0.2497
0.247078
0.243626
0.23961
0.235292
0.230788
0.226159
0.221434
0.216625
0.211733
0.20675
0.201663
0.196461
0.19113
0.185666
0.180076
0.248937
0.246884
0.243577
0.239595
0.235284
0.230779
0.226146
0.221417
0.216605
0.211708
0.20672
0.20163
0.196425
0.191094
0.185632
0.180051
0.261415
0.254665
0.248735
0.243328
0.238159
0.233161
0.228293
0.223514
0.218797
0.214118
0.20946
0.204804
0.200122
0.19536
0.190385
0.184674
0.260607
0.254072
0.248296
0.242972
0.237842
0.232853
0.227968
0.22315
0.218369
0.213602
0.208822
0.204001
0.199093
0.194014
0.188605
0.182585
0.259188
0.253095
0.247628
0.242479
0.23745
0.232511
0.227638
0.222802
0.217978
0.213143
0.208271
0.20333
0.198274
0.193034
0.187503
0.181554
0.257294
0.251853
0.246817
0.241911
0.237025
0.232166
0.227325
0.222488
0.217639
0.212757
0.207819
0.202797
0.197652
0.192332
0.186775
0.180919
0.255126
0.250513
0.24598
0.241345
0.236622
0.231853
0.227055
0.222228
0.217364
0.212451
0.20747
0.202396
0.1972
0.191846
0.1863
0.180537
0.252956
0.249276
0.245245
0.240868
0.236294
0.231608
0.226849
0.222034
0.217164
0.212232
0.207223
0.202119
0.196895
0.19153
0.186005
0.180316
0.251196
0.248407
0.244774
0.24058
0.236105
0.231469
0.226733
0.221924
0.21705
0.212107
0.207083
0.201962
0.196726
0.191359
0.185849
0.180204
0.250371
0.248197
0.244722
0.240564
0.236096
0.231459
0.226719
0.221906
0.217027
0.212079
0.20705
0.201925
0.196686
0.191317
0.18581
0.180175
0.263477
0.256329
0.250068
0.244414
0.239054
0.233913
0.228944
0.224099
0.219347
0.214663
0.210027
0.205417
0.200804
0.196116
0.191182
0.185352
0.262612
0.255693
0.249598
0.244033
0.238716
0.233584
0.228595
0.223706
0.218882
0.214096
0.20932
0.204519
0.19964
0.194585
0.189162
0.183032
0.261091
0.254644
0.248882
0.243506
0.238297
0.233219
0.228241
0.22333
0.218457
0.213594
0.20871
0.203769
0.198717
0.193471
0.187907
0.18187
0.259063
0.253311
0.248015
0.242899
0.237844
0.23285
0.227906
0.222993
0.218089
0.213171
0.208211
0.203174
0.198016
0.192676
0.187077
0.181146
0.256745
0.251875
0.247119
0.242295
0.237413
0.232516
0.227617
0.222712
0.217792
0.212837
0.207826
0.202728
0.197509
0.192126
0.186536
0.180709
0.254431
0.250552
0.246335
0.241787
0.237064
0.232255
0.227397
0.222504
0.217575
0.212598
0.207554
0.20242
0.197168
0.19177
0.186202
0.180455
0.252557
0.249626
0.245833
0.241479
0.236862
0.232106
0.227273
0.222386
0.217451
0.212461
0.2074
0.202247
0.19698
0.191577
0.186025
0.180328
0.251678
0.2494
0.245777
0.241463
0.236854
0.232096
0.227258
0.222367
0.217427
0.212431
0.207364
0.202206
0.196934
0.19153
0.185981
0.180295
0.265264
0.257784
0.251241
0.245376
0.239852
0.234587
0.229529
0.224626
0.219843
0.215152
0.21053
0.205954
0.201384
0.196738
0.191805
0.185852
0.264349
0.25711
0.250744
0.244973
0.239494
0.234239
0.229158
0.224206
0.219345
0.214542
0.209765
0.204977
0.200115
0.195068
0.189617
0.183386
0.262742
0.255999
0.249987
0.244416
0.239051
0.233852
0.228783
0.223807
0.218889
0.214
0.209105
0.20416
0.199106
0.19385
0.188249
0.182133
0.260599
0.254587
0.24907
0.243775
0.238572
0.233461
0.228428
0.223447
0.218495
0.213545
0.208564
0.203513
0.198341
0.192979
0.187341
0.181343
0.258154
0.253069
0.248124
0.243138
0.238118
0.233108
0.228121
0.223149
0.218177
0.213186
0.208147
0.203027
0.197787
0.192376
0.186747
0.180862
0.255717
0.251673
0.247297
0.242601
0.23775
0.232833
0.227888
0.222928
0.217946
0.212929
0.207853
0.202693
0.197415
0.191986
0.186379
0.180582
0.253746
0.250696
0.246768
0.242277
0.237537
0.232677
0.227757
0.222802
0.217814
0.212782
0.207686
0.202504
0.197209
0.191775
0.186185
0.180441
0.252822
0.250458
0.246709
0.24226
0.237528
0.232666
0.227742
0.222782
0.217788
0.21275
0.207648
0.20246
0.197159
0.191723
0.186137
0.180405
0.266738
0.258991
0.252221
0.246182
0.240524
0.235157
0.230025
0.225073
0.220263
0.215565
0.210952
0.206397
0.201853
0.197225
0.192276
0.186217
0.265783
0.258286
0.251701
0.245761
0.24015
0.234792
0.229636
0.224632
0.219738
0.214919
0.21014
0.205357
0.200504
0.195455
0.189972
0.183656
0.264104
0.257124
0.25091
0.24518
0.239687
0.234387
0.229242
0.224211
0.219257
0.214345
0.209438
0.204488
0.199429
0.194159
0.188524
0.182341
0.261868
0.255648
0.249951
0.24451
0.239187
0.233979
0.22887
0.223834
0.218841
0.213863
0.208863
0.203798
0.198613
0.19323
0.187557
0.181503
0.259319
0.254062
0.248964
0.243845
0.238712
0.23361
0.228549
0.22352
0.218506
0.213482
0.20842
0.203281
0.198021
0.192587
0.186923
0.18099
0.256782
0.252606
0.248102
0.243286
0.238328
0.233322
0.228305
0.223287
0.218262
0.21321
0.208108
0.202925
0.197624
0.19217
0.186529
0.18069
0.254734
0.251589
0.247551
0.242948
0.238106
0.233159
0.228168
0.223156
0.218122
0.213055
0.207931
0.202724
0.197404
0.191943
0.186321
0.180539
0.253773
0.251339
0.247489
0.24293
0.238097
0.233148
0.228152
0.223134
0.218095
0.213021
0.20789
0.202676
0.197351
0.191887
0.186269
0.1805
0.267869
0.259923
0.25298
0.246809
0.241048
0.235602
0.230413
0.225424
0.220593
0.215887
0.211278
0.206735
0.202206
0.197583
0.192614
0.186473
0.266883
0.259194
0.252443
0.246374
0.240661
0.235224
0.230011
0.224965
0.220046
0.215213
0.210431
0.205651
0.200799
0.195744
0.190233
0.18385
0.26515
0.257992
0.251625
0.245773
0.240183
0.234805
0.229602
0.224529
0.219545
0.214615
0.209698
0.204742
0.199677
0.194394
0.18873
0.182495
0.262843
0.256467
0.250635
0.245082
0.239666
0.234383
0.229217
0.224137
0.219113
0.214112
0.209097
0.204021
0.198823
0.193423
0.187722
0.181625
0.260215
0.25483
0.249616
0.244395
0.239175
0.234002
0.228884
0.223811
0.218764
0.213716
0.208635
0.20348
0.198204
0.19275
0.187059
0.181089
0.257603
0.253328
0.248727
0.243818
0.238778
0.233704
0.228632
0.22357
0.21851
0.213432
0.208309
0.203107
0.197788
0.192313
0.186646
0.180775
0.255496
0.252279
0.248158
0.24347
0.238549
0.233536
0.228489
0.223433
0.218365
0.21327
0.208124
0.202897
0.197558
0.192075
0.186428
0.180615
0.254508
0.252022
0.248095
0.243452
0.23854
0.233524
0.228473
0.223411
0.218336
0.213234
0.208081
0.202847
0.197502
0.192017
0.186373
0.180574
0.268636
0.260559
0.2535
0.24724
0.241409
0.23591
0.230682
0.225666
0.22082
0.216108
0.211501
0.206964
0.202442
0.19782
0.192835
0.186637
0.267629
0.259814
0.25295
0.246795
0.241014
0.235523
0.230269
0.225196
0.220258
0.215416
0.21063
0.20585
0.200998
0.195936
0.190404
0.183977
0.26586
0.258585
0.252114
0.246181
0.240524
0.235094
0.229851
0.224748
0.219745
0.214802
0.209877
0.204916
0.199846
0.194552
0.188867
0.182597
0.263505
0.257027
0.251103
0.245474
0.239996
0.234662
0.229456
0.224346
0.219301
0.214285
0.209259
0.204174
0.198967
0.193555
0.187834
0.181707
0.260824
0.255354
0.250063
0.244774
0.239494
0.234272
0.229115
0.224012
0.218942
0.213877
0.208783
0.203617
0.19833
0.192862
0.187152
0.181157
0.258162
0.253821
0.249155
0.244184
0.239089
0.233968
0.228857
0.223765
0.218682
0.213585
0.208448
0.203233
0.197902
0.192411
0.186727
0.180833
0.256016
0.252751
0.248575
0.243829
0.238855
0.233796
0.228712
0.223625
0.218533
0.213418
0.208257
0.203017
0.197664
0.192166
0.186502
0.180668
0.255008
0.252487
0.248509
0.243809
0.238845
0.233783
0.228694
0.223602
0.218503
0.213381
0.208212
0.202965
0.197606
0.192106
0.186445
0.180626
0.269012
0.260875
0.253754
0.247449
0.241585
0.23606
0.230813
0.225785
0.220931
0.216216
0.21161
0.207076
0.202556
0.197935
0.192947
0.186715
0.267995
0.260121
0.253198
0.247
0.241185
0.235669
0.230395
0.225309
0.220362
0.215516
0.210728
0.205947
0.201095
0.19603
0.190488
0.184029
0.266208
0.258878
0.252353
0.246379
0.24069
0.235235
0.229972
0.224855
0.219842
0.214893
0.209964
0.205001
0.199928
0.194628
0.188933
0.182642
0.26383
0.257303
0.251331
0.245665
0.240156
0.234798
0.229573
0.224449
0.219392
0.214369
0.209338
0.204249
0.199038
0.193618
0.187887
0.181746
0.261124
0.255611
0.25028
0.244958
0.23965
0.234404
0.229228
0.224111
0.219029
0.213956
0.208855
0.203684
0.198391
0.192916
0.187197
0.181189
0.258439
0.254062
0.249364
0.244363
0.239241
0.234097
0.228968
0.223861
0.218766
0.21366
0.208516
0.203295
0.197957
0.19246
0.186766
0.180861
0.256279
0.252983
0.248781
0.244006
0.239005
0.233923
0.228821
0.223719
0.218615
0.213492
0.208323
0.203076
0.197716
0.192211
0.186538
0.180694
0.255256
0.25271
0.248712
0.243985
0.238995
0.233911
0.228803
0.223696
0.218585
0.213454
0.208277
0.203023
0.197657
0.192149
0.18648
0.180651
0.242525
0.241135
0.238665
0.235524
0.231976
0.228134
0.224063
0.219803
0.215378
0.210801
0.206078
0.20121
0.196196
0.191034
0.185728
0.180291
0.242273
0.240908
0.238462
0.23534
0.231801
0.22796
0.223882
0.219611
0.215172
0.210579
0.205842
0.200964
0.195945
0.190788
0.1855
0.180095
0.24186
0.240553
0.238169
0.235097
0.231592
0.227769
0.223698
0.219426
0.21498
0.210378
0.205631
0.200746
0.195726
0.190577
0.185307
0.179931
0.241329
0.24011
0.237817
0.234819
0.231366
0.227575
0.223521
0.219254
0.214808
0.210201
0.20545
0.200561
0.195542
0.190401
0.185148
0.1798
0.240737
0.239632
0.237449
0.234539
0.231147
0.227394
0.223362
0.219106
0.214662
0.210055
0.205301
0.200411
0.195395
0.190261
0.185023
0.179697
0.240163
0.239184
0.237113
0.23429
0.230957
0.227242
0.223232
0.218988
0.214549
0.209943
0.205188
0.200299
0.195284
0.190157
0.18493
0.179622
0.239718
0.238845
0.236864
0.234109
0.230821
0.227134
0.223142
0.218907
0.214473
0.209868
0.205114
0.200225
0.195213
0.19009
0.18487
0.179572
0.239523
0.238692
0.236754
0.234028
0.230759
0.227085
0.2231
0.21887
0.214438
0.209836
0.205083
0.200194
0.195183
0.190061
0.184844
0.17955
0.243124
0.24132
0.23873
0.235554
0.231994
0.228147
0.224075
0.219815
0.21539
0.210814
0.206092
0.201224
0.196209
0.191043
0.18573
0.180282
0.242849
0.241086
0.238526
0.235369
0.231819
0.227973
0.223893
0.219622
0.215183
0.210591
0.205854
0.200975
0.195954
0.190794
0.185499
0.180084
0.242396
0.24072
0.23823
0.235126
0.231609
0.227782
0.223709
0.219435
0.214989
0.210387
0.205641
0.200754
0.195733
0.19058
0.185304
0.179921
0.241806
0.240264
0.237877
0.234849
0.231385
0.227588
0.223532
0.219264
0.214817
0.21021
0.205457
0.200568
0.195547
0.190402
0.185144
0.179789
0.241144
0.239773
0.23751
0.234572
0.231168
0.22741
0.223374
0.219116
0.214672
0.210064
0.205308
0.200417
0.195398
0.190262