/*--------------------------------*- C++ -*----------------------------------*\
| =========                 |                                                 |
| \\      /  F ield         | foam-extend: Open Source CFD                    |
|  \\    /   O peration     | Version:     3.1                                |
|   \\  /    A nd           | Web:         http://www.extend-project.de       |
|    \\/     M anipulation  |                                                 |
\*---------------------------------------------------------------------------*/
FoamFile
{
    version     2.0;
    format      ascii;
    class       surfaceScalarField;
    location    "0.6";
    object      phi;
}
// * * * * * * * * * * * * * * * * * * * * * * * * * * * * * * * * * * * * * //

dimensions      [0 3 -1 0 0 0 0];

internalField   nonuniform List<scalar> 
41600
(
1.24051e-05
-5.09522e-06
-6.25973e-06
6.68008e-06
1.66597e-05
-4.74271e-06
-8.33991e-06
8.82806e-06
1.93343e-05
-3.07534e-06
-7.96348e-06
8.36423e-06
2.08589e-05
-1.82599e-06
-7.06371e-06
7.36504e-06
2.16753e-05
-1.0363e-06
-6.17146e-06
6.39141e-06
2.20684e-05
-5.52333e-07
-5.43978e-06
5.599e-06
2.21992e-05
-2.46824e-07
-4.91725e-06
5.03332e-06
2.21524e-05
-4.02514e-08
-4.62641e-06
4.71345e-06
2.19607e-05
1.21756e-07
-4.58917e-06
4.6591e-06
2.16323e-05
2.63421e-07
-4.84403e-06
4.909e-06
2.11471e-05
4.06905e-07
-5.45731e-06
5.53562e-06
2.0445e-05
5.69649e-07
-6.54444e-06
6.67688e-06
1.93733e-05
7.70191e-07
-8.29997e-06
8.60148e-06
1.74786e-05
1.05414e-06
-1.1006e-05
1.18465e-05
1.31449e-05
1.55253e-06
-1.46715e-05
1.74526e-05
1.74224e-06
-1.53046e-05
2.5376e-05
2.45569e-05
-8.62833e-06
-8.46425e-06
9.13501e-06
2.8356e-05
-9.3587e-06
-1.26772e-05
1.34942e-05
3.12224e-05
-6.61757e-06
-1.24911e-05
1.31669e-05
3.30369e-05
-4.1496e-06
-1.11569e-05
1.1666e-05
3.40615e-05
-2.43339e-06
-9.72922e-06
1.01017e-05
3.45566e-05
-1.31843e-06
-8.52618e-06
8.79719e-06
3.46989e-05
-5.8826e-07
-7.64279e-06
7.84195e-06
3.45927e-05
-8.47407e-08
-7.11552e-06
7.26625e-06
3.42716e-05
3.21135e-07
-6.97312e-06
7.09483e-06
3.37396e-05
6.83452e-07
-7.2691e-06
7.38102e-06
3.2955e-05
1.06147e-06
-8.09462e-06
8.22469e-06
3.18075e-05
1.5081e-06
-9.6086e-06
9.81763e-06
3.0031e-05
2.08857e-06
-1.20731e-05
1.25312e-05
2.6918e-05
2.91579e-06
-1.5831e-05
1.70823e-05
2.02735e-05
4.15959e-06
-2.06595e-05
2.4697e-05
4.75001e-06
-2.0106e-05
3.3501e-05
3.38563e-05
-9.62252e-06
-8.80898e-06
9.61089e-06
3.51645e-05
-1.1653e-05
-1.39979e-05
1.49841e-05
3.6488e-05
-8.74438e-06
-1.39713e-05
1.47745e-05
3.74215e-05
-5.67787e-06
-1.24554e-05
1.30503e-05
3.795e-05
-3.39137e-06
-1.07903e-05
1.12197e-05
3.81585e-05
-1.83632e-06
-9.38472e-06
9.69416e-06
3.81254e-05
-7.81202e-07
-8.34862e-06
8.57469e-06
3.79063e-05
-3.7019e-08
-7.71296e-06
7.88429e-06
3.74985e-05
5.91804e-07
-7.50223e-06
7.63942e-06
3.68935e-05
1.16289e-06
-7.76245e-06
7.88797e-06
3.60338e-05
1.77609e-06
-8.58163e-06
8.7267e-06
3.47968e-05
2.51378e-06
-1.0115e-05
1.03463e-05
3.29062e-05
3.47742e-06
-1.26144e-05
1.31162e-05
2.96575e-05
4.81511e-06
-1.63875e-05
1.77368e-05
2.29164e-05
6.6603e-06
-2.1097e-05
2.53373e-05
7.27581e-06
-2.00306e-05
3.36076e-05
4.20456e-05
-8.93775e-06
-9.00733e-06
9.91549e-06
4.09478e-05
-1.16784e-05
-1.48133e-05
1.59366e-05
4.04355e-05
-9.1309e-06
-1.48431e-05
1.57419e-05
4.01636e-05
-6.05772e-06
-1.31403e-05
1.37921e-05
3.99476e-05
-3.63713e-06
-1.12669e-05
1.17287e-05
3.97099e-05
-1.92649e-06
-9.69776e-06
1.00256e-05
3.94184e-05
-7.26161e-07
-8.54377e-06
8.78017e-06
3.90436e-05
1.62344e-07
-7.82009e-06
7.99553e-06
3.85663e-05
9.28585e-07
-7.54041e-06
7.68091e-06
3.79426e-05
1.65897e-06
-7.73379e-06
7.86141e-06
3.71069e-05
2.46572e-06
-8.47491e-06
8.62098e-06
3.59396e-05
3.45058e-06
-9.90138e-06
1.0132e-05
3.41878e-05
4.73474e-06
-1.22372e-05
1.27316e-05
3.12197e-05
6.47265e-06
-1.57444e-05
1.70549e-05
2.51131e-05
8.72568e-06
-2.0049e-05
2.40902e-05
9.25826e-06
-1.88579e-05
3.15997e-05
4.89552e-05
-7.27473e-06
-9.23897e-06
1.02389e-05
4.60052e-05
-9.97488e-06
-1.55436e-05
1.679e-05
4.38881e-05
-7.99821e-06
-1.55905e-05
1.65748e-05
4.24772e-05
-5.34777e-06
-1.36923e-05
1.43933e-05
4.15198e-05
-3.16794e-06
-1.161e-05
1.20982e-05
4.08251e-05
-1.57325e-06
-9.8781e-06
1.02196e-05
4.02695e-05
-4.13811e-07
-8.60571e-06
8.84898e-06
3.97526e-05
4.99978e-07
-7.79117e-06
7.97039e-06
3.92271e-05
1.31324e-06
-7.42544e-06
7.5663e-06
3.8626e-05
2.13447e-06
-7.52424e-06
7.64986e-06
3.7878e-05
3.07321e-06
-8.14325e-06
8.28377e-06
3.68712e-05
4.24075e-06
-9.39628e-06
9.61291e-06
3.53796e-05
5.76944e-06
-1.14745e-05
1.19314e-05
3.28393e-05
7.81438e-06
-1.45977e-05
1.57963e-05
2.75201e-05
1.03766e-05
-1.83894e-05
2.20577e-05
1.08556e-05
-1.72089e-05
2.87893e-05
5.43057e-05
-5.05162e-06
-9.46824e-06
1.05423e-05
5.00621e-05
-7.08086e-06
-1.61748e-05
1.75243e-05
4.6725e-05
-5.71814e-06
-1.62247e-05
1.72818e-05
4.44043e-05
-3.76967e-06
-1.41495e-05
1.48922e-05
4.2837e-05
-2.11089e-06
-1.18771e-05
1.23874e-05
4.17622e-05
-8.51032e-07
-9.99379e-06
1.03464e-05
4.09947e-05
1.04839e-07
-8.60532e-06
8.85422e-06
4.03789e-05
9.35015e-07
-7.695e-06
7.8757e-06
3.98425e-05
1.7099e-06
-7.23311e-06
7.37289e-06
3.93074e-05
2.54792e-06
-7.21695e-06
7.33861e-06
3.87017e-05
3.54766e-06
-7.681e-06
7.81218e-06
3.79258e-05
4.8223e-06
-8.71168e-06
8.90601e-06
3.67802e-05
6.51544e-06
-1.04638e-05
1.08634e-05
3.47528e-05
8.80138e-06
-1.3117e-05
1.41574e-05
3.0248e-05
1.16845e-05
-1.63195e-05
1.95164e-05
1.23448e-05
-1.52278e-05
2.54949e-05
5.79302e-05
-2.51601e-06
-9.65428e-06
1.07811e-05
5.28729e-05
-3.44741e-06
-1.6643e-05
1.80668e-05
4.87325e-05
-2.68741e-06
-1.66834e-05
1.77931e-05
4.57995e-05
-1.60939e-06
-1.44675e-05
1.52402e-05
4.38198e-05
-6.56966e-07
-1.2045e-05
1.25708e-05
4.25075e-05
1.01224e-07
-1.00387e-05
1.03988e-05
4.15895e-05
7.72527e-07
-8.55116e-06
8.80144e-06
4.09434e-05
1.40049e-06
-7.54847e-06
7.72911e-06
4.04459e-05
2.06967e-06
-6.9866e-06
7.12435e-06
4.00218e-05
2.85542e-06
-6.84312e-06
6.95972e-06
3.96084e-05
3.8412e-06
-7.12926e-06
7.24908e-06
3.91286e-05
5.13494e-06
-7.8993e-06
8.06651e-06
3.84212e-05
6.89351e-06
-9.26327e-06
9.59258e-06
3.70292e-05
9.34725e-06
-1.13537e-05
1.21998e-05
3.34122e-05
1.26659e-05
-1.38687e-05
1.65043e-05
1.42141e-05
-1.29244e-05
2.17838e-05
5.97438e-05
-9.7713e-06
1.09272e-05
1.71955e-07
5.42906e-05
-1.69005e-05
1.83641e-05
5.42251e-07
4.97645e-05
-1.69152e-05
1.8052e-05
7.018e-07
4.6547e-05
-1.46058e-05
1.53932e-05
8.20669e-07
4.43911e-05
-1.2087e-05
1.26198e-05
9.66077e-07
4.29634e-05
-9.99758e-06
1.03599e-05
1.16672e-06
4.20323e-05
-8.43704e-06
8.68827e-06
1.45238e-06
4.14171e-05
-7.35779e-06
7.53748e-06
1.83595e-06
4.10062e-05
-6.70107e-06
6.83618e-06
2.34552e-06
4.07303e-05
-6.42798e-06
6.53911e-06
3.02012e-06
4.05471e-05
-6.52583e-06
6.63372e-06
3.91652e-06
4.04208e-05
-7.01155e-06
7.14979e-06
5.123e-06
4.02722e-05
-7.93505e-06
8.1857e-06
6.79147e-06
3.97952e-05
-9.34814e-06
9.96177e-06
9.21067e-06
3.75648e-05
-1.09753e-05
1.28851e-05
1.29866e-05
-1.02157e-05
1.72154e-05
1.79368e-05
1.3124e-05
-5.44335e-06
-5.66836e-06
1.74941e-05
-5.1088e-06
-7.60116e-06
2.01613e-05
-3.32667e-06
-7.30402e-06
2.1593e-05
-1.9777e-06
-6.51774e-06
2.22692e-05
-1.1214e-06
-5.72619e-06
2.24977e-05
-5.95783e-07
-5.07258e-06
2.24484e-05
-2.63356e-07
-4.60451e-06
2.22038e-05
-3.73393e-08
-4.34452e-06
2.17835e-05
1.43384e-07
-4.31228e-06
2.11727e-05
3.05509e-07
-4.53867e-06
2.03101e-05
4.76062e-07
-5.07076e-06
1.90658e-05
6.78963e-07
-5.97913e-06
1.7178e-05
9.44388e-07
-7.35657e-06
1.40977e-05
1.33948e-06
-9.26516e-06
8.77749e-06
1.96226e-06
-1.13135e-05
2.26522e-06
-1.02537e-05
2.60745e-05
-9.17523e-06
-7.59177e-06
2.9853e-05
-1.00651e-05
-1.14994e-05
3.26117e-05
-7.15501e-06
-1.14214e-05
3.42424e-05
-4.49587e-06
-1.02694e-05
3.50348e-05
-2.6356e-06
-9.00744e-06
3.52702e-05
-1.42337e-06
-7.93403e-06
3.51334e-05
-6.26896e-07
-7.14242e-06
3.47253e-05
-7.49327e-08
-6.66982e-06
3.4058e-05
3.79836e-07
-6.54227e-06
3.31027e-05
7.94984e-07
-6.80333e-06
3.17579e-05
1.24339e-06
-7.51711e-06
2.98149e-05
1.79264e-06
-8.77926e-06
2.68661e-05
2.52894e-06
-1.07088e-05
2.21378e-05
3.58447e-06
-1.33477e-05
1.43563e-05
5.05068e-06
-1.59664e-05
5.75821e-06
-1.34379e-05
3.60646e-05
-1.01963e-05
-7.82911e-06
3.71524e-05
-1.25138e-05
-1.2637e-05
3.82158e-05
-9.44974e-06
-1.274e-05
3.88614e-05
-6.15218e-06
-1.14448e-05
3.90876e-05
-3.67474e-06
-9.97735e-06
3.89869e-05
-1.98299e-06
-8.72433e-06
3.86372e-05
-8.30399e-07
-7.79548e-06
3.80841e-05
-1.07456e-08
-7.22401e-06
3.73024e-05
6.93665e-07
-7.03442e-06
3.62467e-05
1.34987e-06
-7.26156e-06
3.47972e-05
2.0771e-06
-7.96586e-06
3.27323e-05
2.97973e-06
-9.23716e-06
2.96397e-05
4.18804e-06
-1.11809e-05
2.47711e-05
5.86837e-06
-1.38028e-05
1.69603e-05
8.04468e-06
-1.62802e-05
8.86639e-06
-1.33456e-05
4.48868e-05
-9.44795e-06
-7.94545e-06
4.34031e-05
-1.25268e-05
-1.33165e-05
4.24763e-05
-9.86426e-06
-1.35019e-05
4.18047e-05
-6.5648e-06
-1.20561e-05
4.12136e-05
-3.94259e-06
-1.04079e-05
4.06224e-05
-2.08037e-06
-9.00922e-06
3.99897e-05
-7.67448e-07
-7.97396e-06
3.92657e-05
2.15941e-07
-7.32279e-06
3.84124e-05
1.07558e-06
-7.06904e-06
3.73445e-05
1.91822e-06
-7.23418e-06
3.59371e-05
2.87648e-06
-7.86689e-06
3.39774e-05
4.08052e-06
-9.04252e-06
3.10872e-05
5.68732e-06
-1.08462e-05
2.65969e-05
7.87223e-06
-1.32579e-05
1.94905e-05
1.05661e-05
-1.5464e-05
1.13324e-05
-1.25439e-05
5.23331e-05
-7.68038e-06
-8.10373e-06
4.88811e-05
-1.06934e-05
-1.39249e-05
4.622e-05
-8.6413e-06
-1.41523e-05
4.43077e-05
-5.79849e-06
-1.25464e-05
4.29074e-05
-3.43659e-06
-1.07157e-05
4.18187e-05
-1.69857e-06
-9.17118e-06
4.09004e-05
-4.26676e-07
-8.02825e-06
4.00316e-05
5.8707e-07
-7.29341e-06
3.91371e-05
1.50535e-06
-6.96071e-06
3.81136e-05
2.45697e-06
-7.03957e-06
3.68345e-05
3.57548e-06
-7.56308e-06
3.51024e-05
5.00529e-06
-8.58901e-06
3.25758e-05
6.92193e-06
-1.01825e-05
2.86487e-05
9.50911e-06
-1.23075e-05
2.2397e-05
1.26268e-05
-1.41984e-05
1.33666e-05
-1.14476e-05
5.8098e-05
-5.33463e-06
-8.27187e-06
5.32768e-05
-7.59367e-06
-1.44533e-05
4.92988e-05
-6.18383e-06
-1.47042e-05
4.63965e-05
-4.09391e-06
-1.29517e-05
4.43318e-05
-2.29489e-06
-1.09542e-05
4.28321e-05
-9.19278e-07
-9.27338e-06
4.16878e-05
1.36831e-07
-8.02449e-06
4.07219e-05
1.05955e-06
-7.20162e-06
3.9833e-05
1.94169e-06
-6.78055e-06
3.89092e-05
2.91892e-06
-6.75504e-06
3.78294e-05
4.11555e-06
-7.14134e-06
3.64191e-05
5.68206e-06
-7.97807e-06
3.4373e-05
7.81463e-06
-9.31044e-06
3.11236e-05
1.07343e-05
-1.10927e-05
2.5744e-05
1.432e-05
-1.26331e-05
1.53288e-05
-1.01282e-05
6.20021e-05
-2.66811e-06
-8.41333e-06
5.63213e-05
-3.70919e-06
-1.48466e-05
5.14767e-05
-2.91941e-06
-1.51033e-05
4.79085e-05
-1.76028e-06
-1.32329e-05
4.53954e-05
-7.24051e-07
-1.11028e-05
4.36393e-05
1.08788e-07
-9.31066e-06
4.23417e-05
8.54398e-07
-7.97114e-06
4.1354e-05
1.56184e-06
-7.06309e-06
4.05278e-05
2.33127e-06
-6.55001e-06
3.9758e-05
3.25483e-06
-6.40923e-06
3.89419e-05
4.44119e-06
-6.63879e-06
3.79419e-05
6.03823e-06
-7.25546e-06
3.65076e-05
8.26628e-06
-8.28063e-06
3.41129e-05
1.14348e-05
-9.65954e-06
2.97008e-05
1.56639e-05
-1.08006e-05
1.78898e-05
-8.60206e-06
6.39547e-05
-8.50509e-06
1.55253e-07
5.78551e-05
-1.50638e-05
5.53722e-07
5.25942e-05
-1.53044e-05
7.30705e-07
4.8717e-05
-1.33538e-05
8.65009e-07
4.60139e-05
-1.11376e-05
1.02965e-06
4.41372e-05
-9.27e-06
1.25787e-06
4.28326e-05
-7.86262e-06
1.58464e-06
4.18926e-05
-6.8834e-06
2.02741e-06
4.11828e-05
-6.28307e-06
2.62303e-06
4.06109e-05
-6.0251e-06
3.42385e-06
4.01071e-05
-6.08927e-06
4.50848e-06
3.95982e-05
-6.46729e-06
6.00287e-06
3.89513e-05
-7.14784e-06
8.12601e-06
3.78116e-05
-8.0521e-06
1.12784e-05
3.50366e-05
-8.69931e-06
1.61629e-05
-6.92585e-06
2.26908e-05
1.3743e-05
-5.74058e-06
-4.93432e-06
1.82208e-05
-5.4281e-06
-6.6509e-06
2.08894e-05
-3.5493e-06
-6.42326e-06
2.22447e-05
-2.11354e-06
-5.75952e-06
2.27993e-05
-1.19817e-06
-5.08264e-06
2.2882e-05
-6.35155e-07
-4.52011e-06
2.2671e-05
-2.78238e-07
-4.11528e-06
2.22491e-05
-3.43374e-08
-3.88831e-06
2.16273e-05
1.6417e-07
-3.8546e-06
2.0778e-05
3.45889e-07
-4.03531e-06
1.96227e-05
5.42457e-07
-4.4579e-06
1.80157e-05
7.83468e-07
-5.15556e-06
1.57056e-05
1.10777e-06
-6.15426e-06
1.22663e-05
1.5893e-06
-7.41515e-06
7.1836e-06
2.28612e-06
-8.51699e-06
2.57524e-06
-7.19113e-06
2.73819e-05
-9.63942e-06
-6.55644e-06
3.11557e-05
-1.06794e-05
-1.00219e-05
3.38326e-05
-7.62942e-06
-1.00182e-05
3.53105e-05
-4.80465e-06
-9.0562e-06
3.59024e-05
-2.81705e-06
-7.98043e-06
3.59084e-05
-1.51758e-06
-7.05766e-06
3.55218e-05
-6.60746e-07
-6.37323e-06
3.48437e-05
-6.49229e-08
-5.96116e-06
3.38711e-05
4.36336e-07
-5.84181e-06
3.25584e-05
9.00758e-07
-6.04551e-06
3.07787e-05
1.41389e-06
-6.60887e-06
2.8304e-05
2.05392e-06
-7.57495e-06
2.47538e-05
2.91897e-06
-8.96984e-06
1.95569e-05
4.14091e-06
-1.07025e-05
1.21898e-05
5.73397e-06
-1.20471e-05
6.36196e-06
-9.43009e-06
3.79688e-05
-1.0681e-05
-6.71057e-06
3.88826e-05
-1.32603e-05
-1.09698e-05
3.97338e-05
-1.00712e-05
-1.11494e-05
4.01367e-05
-6.57431e-06
-1.0078e-05
4.01012e-05
-3.92831e-06
-8.83055e-06
3.97276e-05
-2.11402e-06
-7.75432e-06
3.90955e-05
-8.72932e-07
-6.95124e-06
3.82428e-05
1.61816e-08
-6.45244e-06
3.71324e-05
7.90992e-07
-6.27867e-06
3.56967e-05
1.52596e-06
-6.45103e-06
3.3791e-05
2.35609e-06
-7.00235e-06
3.11763e-05
3.40073e-06
-7.96924e-06
2.74747e-05
4.80403e-06
-9.36444e-06
2.21541e-05
6.72538e-06
-1.10666e-05
1.48086e-05
9.08072e-06
-1.22815e-05
9.75845e-06
-9.34789e-06
4.7338e-05
-9.87764e-06
-6.76816e-06
4.55415e-05
-1.32613e-05
-1.1519e-05
4.42701e-05
-1.05095e-05
-1.17921e-05
4.32584e-05
-7.01546e-06
-1.06033e-05
4.23417e-05
-4.21528e-06
-9.20422e-06
4.14385e-05
-2.21698e-06
-8.00311e-06
4.0501e-05
-8.01511e-07
-7.10789e-06
3.94653e-05
2.69227e-07
-6.5401e-06
3.8281e-05
1.21567e-06
-6.30942e-06
3.68388e-05
2.16138e-06
-6.42734e-06
3.49898e-05
3.25517e-06
-6.91698e-06
3.2506e-05
4.64594e-06
-7.80391e-06
2.9044e-05
6.50713e-06
-9.08738e-06
2.41399e-05
9.00429e-06
-1.06327e-05
1.74843e-05
1.19378e-05
-1.16656e-05
1.25118e-05
-8.76801e-06
5.52478e-05
-8.02156e-06
-6.87068e-06
5.1387e-05
-1.13146e-05
-1.20108e-05
4.82705e-05
-9.20647e-06
-1.23389e-05
4.59299e-05
-6.19843e-06
-1.10228e-05
4.41443e-05
-3.67564e-06
-9.46974e-06
4.27078e-05
-1.80861e-06
-8.14304e-06
4.14662e-05
-4.34188e-07
-7.15399e-06
4.02826e-05
6.72121e-07
-6.51271e-06
3.90632e-05
1.68765e-06
-6.21332e-06
3.76835e-05
2.75868e-06
-6.25711e-06
3.59935e-05
4.03731e-06
-6.65524e-06
3.3782e-05
5.6897e-06
-7.42134e-06
3.07387e-05
7.91171e-06
-8.54376e-06
2.64409e-05
1.08795e-05
-9.88494e-06
2.0594e-05
1.43089e-05
-1.07226e-05
1.483e-05
-7.99139e-06
6.13701e-05
-5.57274e-06
-6.99013e-06
5.60785e-05
-8.03634e-06
-1.24399e-05
5.15629e-05
-6.59238e-06
-1.28028e-05
4.81625e-05
-4.38078e-06
-1.1369e-05
4.56649e-05
-2.45749e-06
-9.67471e-06
4.37903e-05
-9.77183e-07
-8.23015e-06
4.231e-05
1.7004e-07
-7.14846e-06
4.10313e-05
1.1794e-06
-6.43021e-06
3.98315e-05
2.16093e-06
-6.05407e-06
3.85786e-05
3.26542e-06
-6.00881e-06
3.71308e-05
4.63697e-06
-6.29326e-06
3.53008e-05
6.45061e-06
-6.90894e-06
3.28084e-05
8.92879e-06
-7.83511e-06
2.92387e-05
1.2295e-05
-8.93841e-06
2.41954e-05
1.62869e-05
-9.56791e-06
1.7102e-05
-7.06777e-06
6.55151e-05
-2.79652e-06
-7.09489e-06
5.93271e-05
-3.9345e-06
-1.27604e-05
5.38914e-05
-3.12193e-06
-1.31381e-05
4.97787e-05
-1.89244e-06
-1.16086e-05
4.68013e-05
-7.81396e-07
-9.80145e-06
4.46536e-05
1.20149e-07
-8.26027e-06
4.3018e-05
9.33959e-07
-7.09947e-06
4.17251e-05
1.71565e-06
-6.30647e-06
4.06084e-05
2.57814e-06
-5.85049e-06
3.95443e-05
3.6276e-06
-5.70735e-06
3.84136e-05
4.99179e-06
-5.86285e-06
3.70691e-05
6.84487e-06
-6.30527e-06
3.52807e-05
9.44031e-06
-7.0037e-06
3.26399e-05
1.31088e-05
-7.83264e-06
2.8495e-05
1.78651e-05
-8.23376e-06
2.00487e-05
-6.01914e-06
6.75876e-05
-7.1651e-06
1.40193e-07
6.09624e-05
-1.2938e-05
5.64896e-07
5.50846e-05
-1.33067e-05
7.58122e-07
5.06419e-05
-1.17106e-05
9.07038e-07
4.74624e-05
-9.82951e-06
1.09001e-06
4.51904e-05
-8.22253e-06
1.34463e-06
4.35533e-05
-7.00172e-06
1.71023e-06
4.2323e-05
-6.14623e-06
2.20875e-06
4.13483e-05
-5.61473e-06
2.88453e-06
4.05224e-05
-5.37241e-06
3.80073e-06
3.97652e-05
-5.39248e-06
5.05221e-06
3.9002e-05
-5.64837e-06
6.7892e-06
3.81236e-05
-6.09442e-06
9.26532e-06
3.68688e-05
-6.60694e-06
1.29184e-05
3.43624e-05
-6.7369e-06
1.84091e-05
-4.92618e-06
2.53396e-05
1.42602e-05
-5.98719e-06
-4.08394e-06
1.88335e-05
-5.69764e-06
-5.52646e-06
2.15083e-05
-3.73957e-06
-5.35851e-06
2.28024e-05
-2.23061e-06
-4.82303e-06
2.32554e-05
-1.26472e-06
-4.27094e-06
2.32141e-05
-6.69368e-07
-3.80942e-06
2.28651e-05
-2.91065e-07
-3.47525e-06
2.22931e-05
-3.14042e-08
-3.28486e-06
2.15048e-05
1.82991e-07
-3.24934e-06
2.04686e-05
3.82097e-07
-3.38112e-06
1.91026e-05
6.01201e-07
-3.69314e-06
1.72688e-05
8.73546e-07
-4.19527e-06
1.47533e-05
1.24194e-06
-4.88078e-06
1.12425e-05
1.77837e-06
-5.68272e-06
6.47839e-06
2.5115e-06
-6.26435e-06
2.78752e-06
-5.09486e-06
2.84753e-05
-1.00224e-05
-5.39203e-06
3.22531e-05
-1.11963e-05
-8.30105e-06
3.48691e-05
-8.03361e-06
-8.34019e-06
3.62233e-05
-5.06985e-06
-7.57114e-06
3.66478e-05
-2.97363e-06
-6.69603e-06
3.64594e-05
-1.59886e-06
-5.93978e-06
3.58596e-05
-6.89317e-07
-5.37522e-06
3.49532e-05
-5.58101e-08
-5.03036e-06
3.37281e-05
4.8741e-07
-4.9211e-06
3.21342e-05
9.94785e-07
-5.06432e-06
3.00405e-05
1.5628e-06
-5.4767e-06
2.72319e-05
2.27598e-06
-6.16877e-06
2.33894e-05
3.23681e-06
-7.12222e-06
1.81126e-05
4.56787e-06
-8.21519e-06
1.12295e-05
6.22596e-06
-8.87851e-06
6.76482e-06
-6.69046e-06
3.95626e-05
-1.10791e-05
-5.48531e-06
4.03409e-05
-1.38872e-05
-9.05717e-06
4.10223e-05
-1.05997e-05
-9.26475e-06
4.12261e-05
-6.93623e-06
-8.41539e-06
4.09716e-05
-4.14662e-06
-7.40304e-06
4.03668e-05
-2.22661e-06
-6.5218e-06
3.94944e-05
-9.08499e-07
-5.85967e-06
3.83875e-05
4.1438e-08
-5.44278e-06
3.70056e-05
8.78382e-07
-5.28778e-06
3.52712e-05
1.68167e-06
-5.40345e-06
3.30364e-05
2.59816e-06
-5.80289e-06
3.00777e-05
3.75604e-06
-6.49063e-06
2.60837e-05
5.30344e-06
-7.43706e-06
2.06992e-05
7.38318e-06
-8.49743e-06
1.38694e-05
9.8285e-06
-9.05422e-06
1.03447e-05
-6.62738e-06
4.93905e-05
-1.02296e-05
-5.50485e-06
4.73449e-05
-1.38769e-05
-9.48371e-06
4.57935e-05
-1.10577e-05
-9.78276e-06
4.45005e-05
-7.40134e-06
-8.84522e-06
4.33105e-05
-4.44955e-06
-7.71132e-06
4.21427e-05
-2.33373e-06
-6.72814e-06
4.09454e-05
-8.28767e-07
-5.99032e-06
3.96459e-05
3.18726e-07
-5.51797e-06
3.81878e-05
1.34126e-06
-5.31415e-06
3.6451e-05
2.37577e-06
-5.38464e-06
3.42837e-05
3.58261e-06
-5.73412e-06
3.14733e-05
5.12146e-06
-6.35896e-06
2.77403e-05
7.17002e-06
-7.22097e-06
2.27868e-05
9.87269e-06
-8.1687e-06
1.66254e-05
1.29268e-05
-8.60252e-06
1.32834e-05
-6.20664e-06
5.76886e-05
-8.30068e-06
-5.5672e-06
5.35013e-05
-1.18345e-05
-9.86594e-06
5.00129e-05
-9.68597e-06
-1.02222e-05
4.73164e-05
-6.54039e-06
-9.18725e-06
4.52069e-05
-3.88041e-06
-7.92935e-06
4.3475e-05
-1.90172e-06
-6.84321e-06
4.19578e-05
-4.37809e-07
-6.02776e-06
4.05074e-05
7.50081e-07
-5.49366e-06
3.90189e-05
1.85061e-06
-5.23411e-06
3.73581e-05
3.02418e-06
-5.24472e-06
3.53716e-05
4.43585e-06
-5.52199e-06
3.28622e-05
6.2642e-06
-6.05465e-06
2.95766e-05
8.7109e-06
-6.79904e-06
2.52397e-05
1.19303e-05
-7.60572e-06
1.98382e-05
1.55215e-05
-7.91578e-06
1.57932e-05
-5.64956e-06
6.41101e-05
-5.7676e-06
-5.64895e-06
5.84428e-05
-8.40634e-06
-1.02008e-05
5.34874e-05
-6.93843e-06
-1.05949e-05
4.96727e-05
-4.62541e-06
-9.46918e-06
4.68106e-05
-2.59588e-06
-8.09713e-06
4.46175e-05
-1.02467e-06
-6.91412e-06
4.28505e-05
2.02696e-07
-6.02196e-06
4.13063e-05
1.28811e-06
-5.42406e-06
3.98482e-05
2.3565e-06
-5.10183e-06
3.83345e-05
3.57e-06
-5.04099e-06
3.66202e-05
5.08644e-06
-5.22954e-06
3.45297e-05
7.09488e-06
-5.64909e-06
3.18312e-05
9.82688e-06
-6.25265e-06
2.82329e-05
1.34891e-05
-6.89876e-06
2.35687e-05
1.77002e-05
-7.08243e-06
1.8272e-05
-4.99552e-06
6.84567e-05
-2.90195e-06
-5.72401e-06
6.18639e-05
-4.1223e-06
-1.04516e-05
5.59443e-05
-3.29266e-06
-1.08643e-05
5.13783e-05
-2.00407e-06
-9.6639e-06
4.80099e-05
-8.28699e-07
-8.20027e-06
4.55293e-05
1.33234e-07
-6.93757e-06
4.36055e-05
1.00696e-06
-5.97985e-06
4.2053e-05
1.85427e-06
-5.32023e-06
4.06939e-05
2.79806e-06
-4.93287e-06
3.93952e-05
3.95517e-06
-4.79388e-06
3.8035e-05
5.4663e-06
-4.88253e-06
3.64771e-05
7.52053e-06
-5.173e-06
3.45309e-05
1.03846e-05
-5.61526e-06
3.18836e-05
1.43835e-05
-6.07973e-06
2.80485e-05
1.94323e-05
-6.13071e-06
2.14621e-05
-4.26693e-06
7.06295e-05
-5.77598e-06
1.27074e-07
6.35851e-05
-1.05911e-05
5.75215e-07
5.72023e-05
-1.09995e-05
7.82937e-07
5.22887e-05
-9.74612e-06
9.45042e-07
4.87079e-05
-8.22199e-06
1.14462e-06
4.61004e-05
-6.90495e-06
1.42312e-06
4.41794e-05
-5.89724e-06
1.82348e-06
4.27018e-05
-5.18589e-06
2.37151e-06
4.15048e-05
-4.73709e-06
3.11739e-06
4.04746e-05
-4.51925e-06
4.13222e-06
3.95305e-05
-4.50351e-06
5.52149e-06
3.86098e-05
-4.65599e-06
7.44886e-06
3.76391e-05
-4.9213e-06
1.01822e-05
3.64312e-05
-5.17949e-06
1.41639e-05
3.42081e-05
-5.07881e-06
1.99973e-05
-3.53626e-06
2.7077e-05
1.46749e-05
-6.18368e-06
-3.1421e-06
1.93276e-05
-5.91542e-06
-4.26371e-06
2.20107e-05
-3.89476e-06
-4.14689e-06
2.32576e-05
-2.32669e-06
-3.7433e-06
2.36295e-05
-1.31953e-06
-3.3233e-06
2.34881e-05
-6.97559e-07
-2.97043e-06
2.30277e-05
-3.01467e-07
-2.71336e-06
2.23355e-05
-2.83056e-08
-2.56436e-06
2.14178e-05
1.99039e-07
-2.53067e-06
2.02428e-05
4.12409e-07
-2.61859e-06
1.87326e-05
6.49477e-07
-2.8324e-06
1.67625e-05
9.45451e-07
-3.17063e-06
1.41532e-05
1.34448e-06
-3.61592e-06
1.06621e-05
1.91526e-06
-4.10692e-06
6.13594e-06
2.66947e-06
-4.40761e-06
2.93229e-06
-3.51363e-06
2.93523e-05
-1.03259e-05
-4.12871e-06
3.3138e-05
-1.16127e-05
-6.38944e-06
3.57097e-05
-8.3623e-06
-6.44436e-06
3.69675e-05
-5.28682e-06
-5.86878e-06
3.72584e-05
-3.10215e-06
-5.2044e-06
3.69133e-05
-1.66554e-06
-4.62669e-06
3.61418e-05
-7.1238e-07
-4.19279e-06
3.50521e-05
-4.50599e-08
-3.92389e-06
3.36304e-05
5.30507e-07
-3.83086e-06
3.18274e-05
1.07294e-06
-3.92182e-06
2.95174e-05
1.68429e-06
-4.20153e-06
2.65068e-05
2.45238e-06
-4.66511e-06
2.25301e-05
3.48027e-06
-5.28132e-06
1.72931e-05
4.88112e-06
-5.94406e-06
1.07637e-05
6.57612e-06
-6.25571e-06
7.04366e-06
-4.6195e-06
4.08418e-05
-1.13935e-05
-4.18018e-06
4.15173e-05
-1.43912e-05
-6.95423e-06
4.20674e-05
-1.10289e-05
-7.14824e-06
4.2114e-05
-7.23192e-06
-6.51691e-06
4.16843e-05
-4.32552e-06
-5.74997e-06
4.08931e-05
-2.31872e-06
-5.07741e-06
3.98271e-05
-9.37116e-07
-4.5689e-06
3.85158e-05
6.82077e-08
-4.24478e-06
3.69227e-05
9.5165e-07
-4.11575e-06
3.49659e-05
1.81063e-06
-4.18439e-06
3.25046e-05
2.79497e-06
-4.45225e-06
2.93383e-05
4.03758e-06
-4.90956e-06
2.52121e-05
5.68594e-06
-5.51653e-06
1.98795e-05
7.86738e-06
-6.15102e-06
1.34222e-05
1.03618e-05
-6.38266e-06
1.07496e-05
-4.57572e-06
5.10384e-05
-1.05069e-05
-4.17879e-06
4.88006e-05
-1.4371e-05
-7.2661e-06
4.70296e-05
-1.15023e-05
-7.53836e-06
4.55131e-05
-7.71629e-06
-6.84437e-06
4.41038e-05
-4.6412e-06
-5.98636e-06
4.2722e-05
-2.42879e-06
-5.23629e-06
4.13141e-05
-8.4964e-07
-4.66986e-06
3.98052e-05
3.623e-07
-4.30311e-06
3.81325e-05
1.44681e-06
-4.13662e-06
3.61761e-05
2.55302e-06
-4.17072e-06
3.37898e-05
3.84831e-06
-4.40107e-06
3.0783e-05
5.4977e-06
-4.81232e-06
2.69298e-05
7.67752e-06
-5.35938e-06
2.2033e-05
1.05123e-05
-5.91676e-06
1.6228e-05
1.36311e-05
-6.06689e-06
1.3814e-05
-4.28165e-06
5.96484e-05
-8.52031e-06
-4.21379e-06
5.52085e-05
-1.22512e-05
-7.54586e-06
5.14273e-05
-1.00745e-05
-7.86865e-06
4.84472e-05
-6.81912e-06
-7.10432e-06
4.60771e-05
-4.04749e-06
-6.15297e-06
4.41063e-05
-1.9769e-06
-5.32437e-06
4.23661e-05
-4.3884e-07
-4.69834e-06
4.07019e-05
8.16955e-07
-4.28414e-06
3.90026e-05
1.98727e-06
-4.07519e-06
3.71318e-05
3.24343e-06
-4.06436e-06
3.49409e-05
4.75886e-06
-4.24168e-06
3.22528e-05
6.71828e-06
-4.58708e-06
2.88618e-05
9.32231e-06
-5.05288e-06
2.4581e-05
1.27039e-05
-5.51649e-06
1.95018e-05
1.63828e-05
-5.58822e-06
1.64528e-05
-3.89405e-06
6.63099e-05
-5.92096e-06
-4.26688e-06
6.03523e-05
-8.70256e-06
-7.79179e-06
5.50501e-05
-7.21842e-06
-8.14888e-06
5.09046e-05
-4.82434e-06
-7.31838e-06
4.7749e-05
-2.70819e-06
-6.28089e-06
4.52982e-05
-1.06193e-06
-5.37823e-06
4.32989e-05
2.31803e-07
-4.6933e-06
4.15414e-05
1.38058e-06
-4.23019e-06
3.98803e-05
2.52026e-06
-3.97373e-06
3.8171e-05
3.82137e-06
-3.90967e-06
3.62723e-05
5.4505e-06
-4.02246e-06
3.40258e-05
7.60371e-06
-4.28801e-06
3.12401e-05
1.05132e-05
-4.65794e-06
2.76957e-05
1.43664e-05
-5.01683e-06
2.33077e-05
1.86996e-05
-5.01131e-06
1.90692e-05
-3.44331e-06
7.08182e-05
-2.98516e-06
-4.31798e-06
6.39128e-05
-4.27228e-06
-7.97655e-06
5.76117e-05
-3.43023e-06
-8.3513e-06
5.26835e-05
-2.0941e-06
-7.46601e-06
4.90003e-05
-8.66011e-07
-6.35916e-06
4.625e-05
1.4621e-07
-5.39542e-06
4.40923e-05
1.06971e-06
-4.66014e-06
4.23309e-05
1.97162e-06
-4.14984e-06
4.07804e-05
2.98211e-06
-3.84417e-06
3.93045e-05
4.22556e-06
-3.72219e-06
3.77845e-05
5.85071e-06
-3.76278e-06
3.60991e-05
8.05408e-06
-3.93798e-06
3.40908e-05
1.11056e-05
-4.19924e-06
3.15016e-05
1.53174e-05
-4.44156e-06
2.78947e-05
2.05339e-05
-4.35812e-06
2.24199e-05
-2.94825e-06
7.30715e-05
-4.35446e-06
1.16199e-07
6.57034e-05
-8.07946e-06
5.8418e-07
5.89223e-05
-8.45276e-06
8.0415e-07
5.36326e-05
-7.52796e-06
9.77492e-07
4.97284e-05
-6.37502e-06
1.19122e-06
4.68493e-05
-5.36967e-06
1.49005e-06
4.46979e-05
-4.59581e-06
1.91964e-06
4.30206e-05
-4.04593e-06
2.50894e-06
4.16473e-05
-3.69398e-06
3.31232e-06
4.04612e-05
-3.51379e-06
4.40621e-06
3.93854e-05
-3.4793e-06
5.90237e-06
3.8371e-05
-3.55846e-06
7.97086e-06
3.73733e-05
-3.70149e-06
1.08835e-05
3.62471e-05
-3.81292e-06
1.50771e-05
3.42333e-05
-3.64327e-06
2.11122e-05
-2.46432e-06
2.82609e-05
1.49865e-05
-6.33104e-06
-2.13232e-06
1.97002e-05
-6.08092e-06
-2.89646e-06
2.23915e-05
-4.01351e-06
-2.82468e-06
2.36043e-05
-2.40056e-06
-2.55554e-06
2.39156e-05
-1.36187e-06
-2.27275e-06
2.36988e-05
-7.19419e-07
-2.03426e-06
2.31547e-05
-3.09551e-07
-1.85965e-06
2.23731e-05
-2.58432e-08
-1.75697e-06
2.13615e-05
2.1143e-07
-1.73043e-06
2.00899e-05
4.35616e-07
-1.78269e-06
1.84858e-05
6.85887e-07
-1.91413e-06
1.64367e-05
9.98413e-07
-2.11999e-06
1.37875e-05
1.41761e-06
-2.38426e-06
1.03348e-05
2.00959e-06
-2.66389e-06
5.96353e-06
2.77655e-06
-2.81284e-06
3.02825e-06
-2.21673e-06
3.00116e-05
-1.05518e-05
-2.79451e-06
3.38055e-05
-1.1927e-05
-4.33727e-06
3.63465e-05
-8.61203e-06
-4.38687e-06
3.75336e-05
-5.45238e-06
-4.00411e-06
3.77249e-05
-3.20051e-06
-3.55707e-06
3.7262e-05
-1.71658e-06
-3.1666e-06
3.63615e-05
-7.29928e-07
-2.87194e-06
3.51352e-05
-3.62333e-08
-2.68716e-06
3.35706e-05
5.63811e-07
-2.61863e-06
3.16214e-05
1.13267e-06
-2.66966e-06
2.91698e-05
1.77566e-06
-2.83974e-06
2.60412e-05
2.58215e-06
-3.12021e-06
2.20069e-05
3.65446e-06
-3.48385e-06
1.68309e-05
5.09888e-06
-3.85734e-06
1.05302e-05
6.81568e-06
-3.99412e-06
7.23261e-06
-2.91541e-06
4.18033e-05
-1.16266e-05
-2.81815e-06
4.24049e-05
-1.47705e-05
-4.71222e-06
4.28591e-05
-1.13543e-05
-4.86013e-06
4.27893e-05
-7.4571e-06
-4.44244e-06
4.22285e-05
-4.46207e-06
-3.92761e-06
4.12971e-05
-2.38893e-06
-3.47361e-06
4.00854e-05
-9.58571e-07
-3.12863e-06
3.86222e-05
8.87405e-08
-2.90648e-06
3.68751e-05
1.00831e-06
-2.8132e-06
3.47628e-05
1.90909e-06
-2.84854e-06
3.21531e-05
2.94282e-06
-3.00968e-06
2.88656e-05
4.24466e-06
-3.28456e-06
2.46838e-05
5.96006e-06
-3.64034e-06
1.942e-05
8.20519e-06
-3.99356e-06
1.32027e-05
1.07278e-05
-4.0774e-06
1.10253e-05
-2.88889e-06
5.22769e-05
-1.07121e-05
-2.80834e-06
4.98993e-05
-1.47425e-05
-4.91652e-06
4.79663e-05
-1.18391e-05
-5.12059e-06
4.62833e-05
-7.95588e-06
-4.66256e-06
4.47094e-05
-4.78725e-06
-4.08732e-06
4.31664e-05
-2.50095e-06
-3.58131e-06
4.16e-05
-8.64777e-07
-3.19723e-06
3.99351e-05
3.96705e-07
-2.94612e-06
3.81059e-05
1.52846e-06
-2.82764e-06
3.59958e-05
2.68828e-06
-2.83978e-06
3.34658e-05
4.0478e-06
-2.97604e-06
3.03446e-05
5.77439e-06
-3.22091e-06
2.64424e-05
8.04146e-06
-3.53853e-06
2.16155e-05
1.09591e-05
-3.84375e-06
1.60398e-05
1.41142e-05
-3.87766e-06
1.41744e-05
-2.7028e-06
6.11212e-05
-8.68274e-06
-2.8255e-06
5.64974e-05
-1.25643e-05
-5.10033e-06
5.24995e-05
-1.03686e-05
-5.34119e-06
4.93074e-05
-7.03094e-06
-4.83718e-06
4.67414e-05
-4.17455e-06
-4.19967e-06
4.45904e-05
-2.03359e-06
-3.64077e-06
4.26822e-05
-4.3853e-07
-3.21639e-06
4.08585e-05
8.69519e-07
-2.93322e-06
3.90051e-05
2.09288e-06
-2.78616e-06
3.69868e-05
3.41064e-06
-2.76846e-06
3.46617e-05
5.00127e-06
-2.87006e-06
3.18697e-05
7.05212e-06
-3.07276e-06
2.8437e-05
9.76077e-06
-3.33954e-06
2.42231e-05
1.3244e-05
-3.58749e-06
1.93515e-05
1.69722e-05
-3.57468e-06
1.68986e-05
-2.4573e-06
6.7963e-05
-6.03441e-06
-2.85662e-06
6.1794e-05
-8.92481e-06
-5.26226e-06
5.62351e-05
-7.43011e-06
-5.52844e-06
5.18419e-05
-4.97523e-06
-4.98094e-06
4.84655e-05
-2.79319e-06
-4.28582e-06
4.582e-05
-1.08936e-06
-3.67697e-06
4.36455e-05
2.55395e-07
-3.21271e-06
4.17284e-05
1.45292e-06
-2.89654e-06
3.99185e-05
2.64673e-06
-2.71767e-06
3.80713e-05
4.01305e-06
-2.66482e-06
3.6051e-05
5.72369e-06
-2.72457e-06
3.37139e-05
7.97771e-06
-2.87659e-06
3.08956e-05
1.10052e-05
-3.08399e-06
2.74133e-05
1.49783e-05
-3.26882e-06
2.32039e-05
1.93814e-05
-3.21103e-06
1.9605e-05
-2.17321e-06
7.25926e-05
-3.04686e-06
-2.888e-06
6.54599e-05
-4.38456e-06
-5.38412e-06
5.88761e-05
-3.53389e-06
-5.66372e-06
5.36769e-05
-2.16193e-06
-5.08003e-06
4.97565e-05
-8.93592e-07
-4.33838e-06
4.68023e-05
1.57626e-07
-3.68824e-06
4.44682e-05
1.11928e-06
-3.18989e-06
4.255e-05
2.06316e-06
-2.84194e-06
4.08586e-05
3.12423e-06
-2.63024e-06
3.92569e-05
4.43184e-06
-2.53931e-06
3.7631e-05
6.13931e-06
-2.55248e-06
3.58719e-05
8.44636e-06
-2.6475e-06
3.38437e-05
1.16222e-05
-2.78812e-06
3.1316e-05
1.59679e-05
-2.90333e-06
2.78579e-05
2.12825e-05
-2.80109e-06
2.30611e-05
-1.8627e-06
7.49062e-05
-2.91102e-06
1.07836e-07
6.7303e-05
-5.45211e-06
5.91358e-07
6.02269e-05
-5.73149e-06
8.20893e-07
5.46554e-05
-5.12144e-06
1.00307e-06
5.05076e-05
-4.34873e-06
1.22793e-06
4.74233e-05
-3.67044e-06
1.54269e-06
4.50978e-05
-3.14595e-06
1.99495e-06
4.32704e-05
-2.77135e-06
2.61598e-06