/*--------------------------------*- C++ -*----------------------------------*\
| =========                 |                                                 |
| \\      /  F ield         | foam-extend: Open Source CFD                    |
|  \\    /   O peration     | Version:     3.1                                |
|   \\  /    A nd           | Web:         http://www.extend-project.de       |
|    \\/     M anipulation  |                                                 |
\*---------------------------------------------------------------------------*/
FoamFile
{
    version     2.0;
    format      ascii;
    class       pointVectorField;
    location    "0.6";
    object      pointMotionU;
}
// * * * * * * * * * * * * * * * * * * * * * * * * * * * * * * * * * * * * * //

dimensions      [0 1 -1 0 0 0 0];

internalField   nonuniform List<vector> 
16859
(
(0 0 0)
(0 0 0)
(0 0 0)
(0 0 0)
(0 0 0)
(0 0 0)
(0 0 0)
(0 0 0)
(0 0 0)
(0 0 0)
(0 0 0)
(0 0 0)
(0 0 0)
(0 0 0)
(0 0 0)
(0 0 0)
(0 0 0)
(0 0 0)
(-5.67204e-10 -1.99492e-09 6.83672e-10)
(-1.11049e-09 -3.92069e-09 1.36026e-09)
(-1.64286e-09 -5.83574e-09 2.0648e-09)
(-2.1942e-09 -7.85636e-09 2.85147e-09)
(-2.79434e-09 -1.01006e-08 3.77592e-09)
(-3.47489e-09 -1.27002e-08 4.90042e-09)
(-4.27028e-09 -1.58138e-08 6.29957e-09)
(-5.21761e-09 -1.96432e-08 8.06772e-09)
(-6.3535e-09 -2.4451e-08 1.03294e-08)
(-7.70433e-09 -3.05762e-08 1.32551e-08)
(-9.26245e-09 -3.84348e-08 1.70868e-08)
(-1.09332e-08 -4.84675e-08 2.21739e-08)
(-1.24313e-08 -6.09457e-08 2.9007e-08)
(-1.31257e-08 -7.54265e-08 3.81369e-08)
(-1.19466e-08 -8.92325e-08 4.9336e-08)
(7.26811e-09 -9.93035e-08 9.95851e-08)
(0 0 0)
(-1.10866e-09 -3.8902e-09 1.34283e-09)
(-2.16895e-09 -7.64112e-09 2.67023e-09)
(-3.20503e-09 -1.13627e-08 4.04963e-09)
(-4.27389e-09 -1.52761e-08 5.58551e-09)
(-5.43204e-09 -1.96026e-08 7.38401e-09)
(-6.73905e-09 -2.45854e-08 9.56232e-09)
(-8.25981e-09 -3.05128e-08 1.22585e-08)
(-1.00648e-08 -3.7747e-08 1.56432e-08)
(-1.22258e-08 -4.67541e-08 1.99345e-08)
(-1.48028e-08 -5.81322e-08 2.54174e-08)
(-1.7811e-08 -7.26147e-08 3.24669e-08)
(-2.11507e-08 -9.09911e-08 4.15616e-08)
(-2.44716e-08 -1.13799e-07 5.32285e-08)
(-2.6966e-08 -1.40443e-07 6.77017e-08)
(-2.71036e-08 -1.66743e-07 8.36481e-08)
(-1.23755e-08 -2.35859e-07 1.17038e-07)
(0 0 0)
(-1.60265e-09 -5.60046e-09 1.95728e-09)
(-3.13161e-09 -1.09904e-08 3.88856e-09)
(-4.61867e-09 -1.63187e-08 5.88884e-09)
(-6.14288e-09 -2.18912e-08 8.10601e-09)
(-7.78181e-09 -2.8007e-08 1.06879e-08)
(-9.6164e-09 -3.49856e-08 1.37944e-08)
(-1.17344e-08 -4.31959e-08 1.7609e-08)
(-1.42314e-08 -5.30883e-08 2.23504e-08)
(-1.72081e-08 -6.52293e-08 2.82848e-08)
(-2.07591e-08 -8.0332e-08 3.57359e-08)
(-2.49472e-08 -9.92593e-08 4.50839e-08)
(-2.97492e-08 -1.22935e-07 5.67237e-08)
(-3.49559e-08 -1.51989e-07 7.08977e-08)
(-3.9988e-08 -1.85716e-07 8.71906e-08)
(-4.33337e-08 -2.1923e-07 1.03357e-07)
(-4.9563e-08 -3.02322e-07 1.33916e-07)
(0 0 0)
(-2.0312e-09 -7.05298e-09 2.51005e-09)
(-3.96263e-09 -1.38251e-08 4.98102e-09)
(-5.82905e-09 -2.04886e-08 7.52916e-09)
(-7.72489e-09 -2.74083e-08 1.03369e-08)
(-9.7414e-09 -3.49297e-08 1.35832e-08)
(-1.19723e-08 -4.34078e-08 1.74563e-08)
(-1.45179e-08 -5.32337e-08 2.21652e-08)
(-1.74866e-08 -6.48631e-08 2.79483e-08)
(-2.09942e-08 -7.88431e-08 3.50785e-08)
(-2.51559e-08 -9.58328e-08 4.3859e-08)
(-3.00708e-08 -1.16597e-07 5.45965e-08)
(-3.57875e-08 -1.41916e-07 6.75191e-08)
(-4.22393e-08 -1.72263e-07 8.25676e-08)
(-4.9071e-08 -2.06813e-07 9.89263e-08)
(-5.4809e-08 -2.40795e-07 1.1418e-07)
(-7.70175e-08 -3.28642e-07 1.44383e-07)
(0 0 0)
(-2.38211e-09 -8.19422e-09 2.98924e-09)
(-4.638e-09 -1.60416e-08 5.92394e-09)
(-6.80024e-09 -2.37216e-08 8.93462e-09)
(-8.97118e-09 -3.16314e-08 1.22288e-08)
(-1.12477e-08 -4.01322e-08 1.60053e-08)
(-1.37268e-08 -4.95744e-08 2.04672e-08)
(-1.65101e-08 -6.03187e-08 2.58316e-08)
(-1.97046e-08 -7.27521e-08 3.23339e-08)
(-2.34227e-08 -8.72973e-08 4.02255e-08)
(-2.77756e-08 -1.04411e-07 4.9758e-08)
(-3.28607e-08 -1.24557e-07 6.1141e-08)
(-3.87309e-08 -1.48115e-07 7.44467e-08)
(-4.53221e-08 -1.75156e-07 8.94185e-08)
(-5.22355e-08 -2.04786e-07 1.05109e-07)
(-5.781e-08 -2.33384e-07 1.19288e-07)
(-8.68571e-08 -3.13209e-07 1.52731e-07)
(0 0 0)
(-2.64941e-09 -8.99046e-09 3.38808e-09)
(-5.14637e-09 -1.75769e-08 6.70424e-09)
(-7.51633e-09 -2.59324e-08 1.00865e-08)
(-9.8621e-09 -3.44618e-08 1.37579e-08)
(-1.22784e-08 -4.35159e-08 1.79273e-08)
(-1.4857e-08 -5.34107e-08 2.28009e-08)
(-1.769e-08 -6.44387e-08 2.85902e-08)
(-2.08702e-08 -7.68694e-08 3.55127e-08)
(-2.44896e-08 -9.09376e-08 4.37839e-08)
(-2.86331e-08 -1.06811e-07 5.3595e-08)
(-3.33645e-08 -1.2453e-07 6.50665e-08)
(-3.8696e-08 -1.43903e-07 7.8159e-08)
(-4.45012e-08 -1.64354e-07 9.25154e-08)
(-5.02422e-08 -1.84696e-07 1.07181e-07)
(-5.39413e-08 -2.02801e-07 1.20119e-07)
(-7.76971e-08 -2.64726e-07 1.53885e-07)
(0 0 0)
(-2.8333e-09 -9.42691e-09 3.70474e-09)
(-5.48898e-09 -1.84064e-08 7.31907e-09)
(-7.98106e-09 -2.70952e-08 1.09822e-08)
(-1.04062e-08 -3.58864e-08 1.49244e-08)
(-1.28505e-08 -4.51022e-08 1.93555e-08)
(-1.53934e-08 -5.50068e-08 2.44761e-08)
(-1.81095e-08 -6.58078e-08 3.04829e-08)
(-2.10682e-08 -7.76426e-08 3.75668e-08)
(-2.43301e-08 -9.05481e-08 4.59023e-08)
(-2.79401e-08 -1.04403e-07 5.56228e-08)
(-3.19169e-08 -1.18836e-07 6.67775e-08)
(-3.62369e-08 -1.33094e-07 7.92566e-08)
(-4.08056e-08 -1.45891e-07 9.26696e-08)
(-4.53516e-08 -1.55387e-07 1.06127e-07)
(-4.85914e-08 -1.60043e-07 1.17782e-07)
(-6.49106e-08 -1.86006e-07 1.4415e-07)
(0 0 0)
(-2.93945e-09 -9.50514e-09 3.94148e-09)
(-5.67802e-09 -1.85378e-08 7.77384e-09)
(-8.21517e-09 -2.72334e-08 1.16322e-08)
(-1.06363e-08 -3.59594e-08 1.57466e-08)
(-1.3014e-08 -4.49999e-08 2.03213e-08)
(-1.54108e-08 -5.45631e-08 2.55445e-08)
(-1.78795e-08 -6.4775e-08 3.15923e-08)
(-2.04614e-08 -7.56579e-08 3.8625e-08)
(-2.31809e-08 -8.70894e-08 4.67752e-08)
(-2.60375e-08 -9.87375e-08 5.61239e-08)
(-2.89942e-08 -1.09963e-07 6.66611e-08)
(-3.19642e-08 -1.19694e-07 7.82213e-08)
(-3.47971e-08 -1.26303e-07 9.03791e-08)
(-3.72148e-08 -1.27636e-07 1.02259e-07)
(-3.81206e-08 -1.21668e-07 1.12228e-07)
(-1.03899e-07 -7.033e-08 1.32718e-07)
(0 0 0)
(0 0 0)
(0 0 0)
(0 0 0)
(0 0 0)
(0 0 0)
(0 0 0)
(0 0 0)
(0 0 0)
(0 0 0)
(0 0 0)
(0 0 0)
(0 0 0)
(0 0 0)
(0 0 0)
(0 0 0)
(0 0 0)
(0 0 0)
(-6.09614e-10 -2.04925e-09 6.65418e-10)
(-1.19533e-09 -4.0294e-09 1.32357e-09)
(-1.77298e-09 -6.00281e-09 2.00841e-09)
(-2.37668e-09 -8.09177e-09 2.77262e-09)
(-3.04089e-09 -1.0421e-08 3.67036e-09)
(-3.80272e-09 -1.31303e-08 4.76226e-09)
(-4.70353e-09 -1.63886e-08 6.12113e-09)
(-5.78948e-09 -2.04114e-08 7.83928e-09)
(-7.10928e-09 -2.54789e-08 1.00391e-08)
(-8.70583e-09 -3.19519e-08 1.28895e-08)
(-1.05945e-08 -4.02706e-08 1.66325e-08)
(-1.27146e-08 -5.08978e-08 2.16233e-08)
(-1.48367e-08 -6.41103e-08 2.83662e-08)
(-1.64383e-08 -7.94042e-08 3.7393e-08)
(-1.6745e-08 -9.35997e-08 4.79008e-08)
(-1.29838e-08 -1.16898e-07 8.6381e-08)
(0 0 0)
(-1.19142e-09 -3.99517e-09 1.30693e-09)
(-2.33438e-09 -7.85088e-09 2.59811e-09)
(-3.45842e-09 -1.16844e-08 3.93887e-09)
(-4.62862e-09 -1.5728e-08 5.43074e-09)
(-5.91025e-09 -2.02152e-08 7.17697e-09)
(-7.37319e-09 -2.54036e-08 9.29158e-09)
(-9.0952e-09 -3.16001e-08 1.19091e-08)
(-1.11634e-08 -3.91903e-08 1.5196e-08)
(-1.36717e-08 -4.86704e-08 1.93656e-08)
(-1.67098e-08 -6.06754e-08 2.46975e-08)
(-2.03337e-08 -7.5979e-08 3.15614e-08)
(-2.45016e-08 -9.54042e-08 4.0432e-08)
(-2.89503e-08 -1.19487e-07 5.18269e-08)
(-3.30121e-08 -1.47491e-07 6.58907e-08)
(-3.54593e-08 -1.74214e-07 8.04709e-08)
(-3.41943e-08 -2.2559e-07 1.07127e-07)
(0 0 0)
(-1.72199e-09 -5.74934e-09 1.90485e-09)
(-3.36986e-09 -1.12873e-08 3.78332e-09)
(-4.98284e-09 -1.67725e-08 5.72737e-09)
(-6.65125e-09 -2.25256e-08 7.8807e-09)
(-8.46469e-09 -2.88614e-08 1.0387e-08)
(-1.0518e-08 -3.61178e-08 1.34016e-08)
(-1.29162e-08 -4.46859e-08 1.71029e-08)
(-1.57766e-08 -5.50434e-08 2.17036e-08)
(-1.92284e-08 -6.77909e-08 2.74623e-08)
(-2.34041e-08 -8.36807e-08 3.46925e-08)
(-2.84182e-08 -1.03615e-07 4.37601e-08)
(-3.43212e-08 -1.28541e-07 5.50384e-08)
(-4.10173e-08 -1.59054e-07 6.87275e-08)
(-4.8104e-08 -1.94192e-07 8.42786e-08)
(-5.43198e-08 -2.27651e-07 9.87104e-08)
(-6.63723e-08 -2.80633e-07 1.20133e-07)
(0 0 0)
(-2.182e-09 -7.23676e-09 2.44266e-09)
(-4.26316e-09 -1.41906e-08 4.84587e-09)
(-6.28715e-09 -2.10446e-08 7.32209e-09)
(-8.36198e-09 -2.81806e-08 1.00485e-08)
(-1.05931e-08 -3.59612e-08 1.31989e-08)
(-1.30905e-08 -4.476e-08 1.69561e-08)
(-1.59737e-08 -5.49896e-08 2.15229e-08)
(-1.93756e-08 -6.713e-08 2.71305e-08)
(-2.34426e-08 -8.17559e-08 3.40423e-08)
(-2.83307e-08 -9.95535e-08 4.2548e-08)
(-3.41932e-08 -1.21306e-07 5.29336e-08)
(-4.11589e-08 -1.47788e-07 6.53933e-08)
(-4.92917e-08 -1.79388e-07 7.98096e-08)
(-5.84599e-08 -2.14965e-07 9.52409e-08)
(-6.74944e-08 -2.48303e-07 1.08732e-07)
(-8.68786e-08 -2.98827e-07 1.27183e-07)
(0 0 0)
(-2.5584e-09 -8.40266e-09 2.9088e-09)
(-4.98858e-09 -1.64548e-08 5.7628e-09)
(-7.33285e-09 -2.43468e-08 8.68819e-09)
(-9.7085e-09 -3.24932e-08 1.18865e-08)
(-1.22277e-08 -4.12713e-08 1.55506e-08)
(-1.50046e-08 -5.10482e-08 1.98778e-08)
(-1.81604e-08 -6.22008e-08 2.50786e-08)
(-2.18263e-08 -7.51314e-08 3.1381e-08)
(-2.61443e-08 -9.02752e-08 3.90271e-08)
(-3.12638e-08 -1.08091e-07 4.82554e-08)
(-3.73326e-08 -1.29024e-07 5.9255e-08)
(-4.44776e-08 -1.53394e-07 7.20644e-08)
(-5.27584e-08 -1.81134e-07 8.63702e-08)
(-6.2003e-08 -2.11043e-07 1.01118e-07)
(-7.09892e-08 -2.38397e-07 1.13674e-07)
(-8.83233e-08 -2.7881e-07 1.31837e-07)
(0 0 0)
(-2.84485e-09 -9.21307e-09 3.29672e-09)
(-5.53416e-09 -1.80166e-08 6.5215e-09)
(-8.1032e-09 -2.65938e-08 9.80763e-09)
(-1.06703e-08 -3.53657e-08 1.33718e-08)
(-1.33455e-08 -4.4697e-08 1.74164e-08)
(-1.62373e-08 -5.4916e-08 2.21421e-08)
(-1.94562e-08 -6.63237e-08 2.77541e-08)
(-2.31172e-08 -7.91931e-08 3.44637e-08)
(-2.73383e-08 -9.37508e-08 4.24794e-08)
(-3.2237e-08 -1.10136e-07 5.19839e-08)
(-3.7921e-08 -1.2832e-07 6.30857e-08)
(-4.44684e-08 -1.47979e-07 7.57269e-08)
(-5.18704e-08 -1.68307e-07 8.95187e-08)
(-5.98174e-08 -1.87781e-07 1.03433e-07)
(-6.6914e-08 -2.03712e-07 1.15082e-07)
(-7.23789e-08 -2.24511e-07 1.31835e-07)
(0 0 0)
(-3.04174e-09 -9.65377e-09 3.60474e-09)
(-5.90148e-09 -1.88529e-08 7.11935e-09)
(-8.60265e-09 -2.77627e-08 1.06782e-08)
(-1.12572e-08 -3.67904e-08 1.45048e-08)
(-1.39659e-08 -4.62693e-08 1.88031e-08)
(-1.68234e-08 -5.64704e-08 2.3768e-08)
(-1.99208e-08 -6.7602e-08 2.95913e-08)
(-2.33459e-08 -7.97926e-08 3.64596e-08)
(-2.71804e-08 -9.3052e-08 4.45441e-08)
(-3.14952e-08 -1.07201e-07 5.39774e-08)
(-3.63454e-08 -1.21754e-07 6.48109e-08)
(-4.17717e-08 -1.35752e-07 7.69439e-08)
(-4.78261e-08 -1.47559e-07 9.00076e-08)
(-5.46089e-08 -1.54823e-07 1.03135e-07)
(-6.17929e-08 -1.5579e-07 1.14263e-07)
(-5.65692e-08 -1.4142e-07 1.26541e-07)
(0 0 0)
(-3.15522e-09 -9.72742e-09 3.83506e-09)
(-6.10386e-09 -1.89738e-08 7.56164e-09)
(-8.85393e-09 -2.78813e-08 1.13101e-08)
(-1.15053e-08 -3.68292e-08 1.53038e-08)
(-1.41439e-08 -4.61095e-08 1.97412e-08)
(-1.68457e-08 -5.59324e-08 2.48058e-08)
(-1.96769e-08 -6.64181e-08 3.067e-08)
(-2.26931e-08 -7.75703e-08 3.7492e-08)
(-2.59342e-08 -8.9227e-08 4.54054e-08)
(-2.94171e-08 -1.00981e-07 5.44976e-08)
(-3.31287e-08 -1.12058e-07 6.47739e-08)
(-3.70255e-08 -1.21152e-07 7.61019e-08)
(-4.10591e-08 -1.2624e-07 8.81205e-08)
(-4.52043e-08 -1.24571e-07 1.00057e-07)
(-4.88941e-08 -1.13569e-07 1.10312e-07)
(-9.73751e-08 -2.68736e-08 1.28575e-07)
(0 0 0)
(0 0 0)
(0 0 0)
(0 0 0)
(0 0 0)
(0 0 0)
(0 0 0)
(0 0 0)
(0 0 0)
(0 0 0)
(0 0 0)
(0 0 0)
(0 0 0)
(0 0 0)
(0 0 0)
(0 0 0)
(0 0 0)
(0 0 0)
(-6.49904e-10 -2.09678e-09 6.22568e-10)
(-1.27598e-09 -4.12427e-09 1.23803e-09)
(-1.89673e-09 -6.14782e-09 1.87792e-09)
(-2.55024e-09 -8.2941e-09 2.59125e-09)
(-3.27531e-09 -1.06924e-08 3.42821e-09)
(-4.1142e-09 -1.34872e-08 4.44458e-09)
(-5.11475e-09 -1.68527e-08 5.70664e-09)
(-6.33164e-09 -2.10083e-08 7.29713e-09)
(-7.82523e-09 -2.62351e-08 9.32334e-09)
(-9.65505e-09 -3.28853e-08 1.19289e-08)
(-1.18623e-08 -4.13664e-08 1.53114e-08)
(-1.4431e-08 -5.20555e-08 1.97437e-08)
(-1.72186e-08 -6.50436e-08 2.55752e-08)
(-1.98689e-08 -7.95161e-08 3.30691e-08)
(-2.17562e-08 -9.22634e-08 4.13241e-08)
(-2.68315e-08 -1.08061e-07 6.95672e-08)
(0 0 0)
(-1.27008e-09 -4.08717e-09 1.22279e-09)
(-2.49172e-09 -8.03432e-09 2.43025e-09)
(-3.69955e-09 -1.19642e-08 3.68304e-09)
(-4.96621e-09 -1.61174e-08 5.07563e-09)
(-6.36517e-09 -2.07357e-08 6.70369e-09)
(-7.97591e-09 -2.60853e-08 8.6721e-09)
(-9.88808e-09 -3.24819e-08 1.11032e-08)
(-1.22041e-08 -4.03181e-08 1.4146e-08)
(-1.5038e-08 -5.00909e-08 1.79862e-08)
(-1.85062e-08 -6.24187e-08 2.28585e-08)
(-2.27019e-08 -7.80149e-08 2.90558e-08)
(-2.76354e-08 -9.75452e-08 3.6919e-08)
(-3.31175e-08 -1.21196e-07 4.67408e-08)
(-3.85639e-08 -1.47603e-07 5.83601e-08)
(-4.27147e-08 -1.71312e-07 6.97451e-08)
(-4.35572e-08 -2.14663e-07 8.99777e-08)
(0 0 0)
(-1.83548e-09 -5.88e-09 1.7822e-09)
(-3.59656e-09 -1.15473e-08 3.53888e-09)
(-5.32952e-09 -1.71679e-08 5.35539e-09)
(-7.13522e-09 -2.30734e-08 7.36543e-09)
(-9.11446e-09 -2.95895e-08 9.70212e-09)
(-1.1375e-08 -3.70646e-08 1.25084e-08)
(-1.40372e-08 -4.59002e-08 1.59463e-08)
(-1.72379e-08 -5.65813e-08 2.02056e-08)
(-2.11301e-08 -6.9707e-08 2.55094e-08)
(-2.58752e-08 -8.60049e-08 3.21148e-08)
(-3.16197e-08 -1.06297e-07 4.02935e-08)
(-3.84419e-08 -1.31323e-07 5.02632e-08)
(-4.62407e-08 -1.61218e-07 6.19864e-08)
(-5.44992e-08 -1.94171e-07 7.46594e-08)
(-6.16732e-08 -2.23404e-07 8.5616e-08)
(-7.48967e-08 -2.65641e-07 1.00481e-07)
(0 0 0)
(-2.32542e-09 -7.39816e-09 2.28533e-09)
(-4.54917e-09 -1.4511e-08 4.53266e-09)
(-6.72332e-09 -2.15298e-08 6.84639e-09)
(-8.96855e-09 -2.88487e-08 9.39141e-09)
(-1.14035e-08 -3.68422e-08 1.23286e-08)
(-1.41529e-08 -4.58946e-08 1.58264e-08)
(-1.73537e-08 -5.64274e-08 2.0069e-08)
(-2.11589e-08 -6.89254e-08 2.52618e-08)
(-2.57386e-08 -8.39561e-08 3.16303e-08)
(-3.12734e-08 -1.02172e-07 3.94039e-08)
(-3.79351e-08 -1.24263e-07 4.87703e-08)
(-4.58433e-08 -1.50775e-07 5.97628e-08)
(-5.49676e-08 -1.81604e-07 7.20185e-08)
(-6.4881e-08 -2.14702e-07 8.43276e-08)
(-7.39632e-08 -2.43311e-07 9.4019e-08)
(-9.23532e-08 -2.82192e-07 1.04326e-07)
(0 0 0)
(-2.72607e-09 -8.58577e-09 2.72136e-09)
(-5.32227e-09 -1.68172e-08 5.39017e-09)
(-7.84002e-09 -2.48928e-08 8.12356e-09)
(-1.04106e-08 -3.32397e-08 1.1109e-08)
(-1.31603e-08 -4.22464e-08 1.45255e-08)
(-1.62186e-08 -5.22888e-08 1.85545e-08)
(-1.97239e-08 -6.37494e-08 2.33878e-08)
(-2.38268e-08 -7.70293e-08 2.92279e-08)
(-2.86897e-08 -9.25485e-08 3.62806e-08)
(-3.44798e-08 -1.10722e-07 4.47285e-08)
(-4.1348e-08 -1.31891e-07 5.4669e-08)
(-4.93785e-08 -1.56153e-07 6.59882e-08)
(-5.84633e-08 -1.8299e-07 7.81232e-08)
(-6.7991e-08 -2.10414e-07 8.96929e-08)
(-7.61492e-08 -2.33238e-07 9.81877e-08)
(-9.01226e-08 -2.63667e-07 1.05315e-07)
(0 0 0)
(-3.03079e-09 -9.40866e-09 3.08423e-09)
(-5.90334e-09 -1.84024e-08 6.09973e-09)
(-8.66215e-09 -2.71718e-08 9.1702e-09)
(-1.144e-08 -3.61497e-08 1.24973e-08)
(-1.43611e-08 -4.57101e-08 1.6269e-08)
(-1.75489e-08 -5.6187e-08 2.06704e-08)
(-2.11298e-08 -6.78823e-08 2.58889e-08)
(-2.52355e-08 -8.10601e-08 3.2113e-08)
(-3.00005e-08 -9.59224e-08 3.95206e-08)
(-3.55532e-08 -1.12553e-07 4.82486e-08)
(-4.1994e-08 -1.30813e-07 5.83324e-08)
(-4.93414e-08 -1.5017e-07 6.95895e-08)
(-5.73873e-08 -1.69449e-07 8.14125e-08)
(-6.53116e-08 -1.86572e-07 9.24373e-08)
(-7.10205e-08 -1.98627e-07 1.00248e-07)
(-7.0761e-08 -2.133e-07 1.04393e-07)
(0 0 0)
(-3.2401e-09 -9.8531e-09 3.37238e-09)
(-6.29431e-09 -1.92447e-08 6.65894e-09)
(-9.19491e-09 -2.83463e-08 9.98432e-09)
(-1.20681e-08 -3.75754e-08 1.35568e-08)
(-1.50281e-08 -4.72721e-08 1.75657e-08)
(-1.81832e-08 -5.77097e-08 2.21918e-08)
(-2.16384e-08 -6.9092e-08 2.76108e-08)
(-2.54951e-08 -8.1532e-08 3.39912e-08)
(-2.98471e-08 -9.50055e-08 4.1481e-08)
(-3.4771e-08 -1.09269e-07 5.01816e-08)
(-4.03102e-08 -1.23722e-07 6.00974e-08)
(-4.64487e-08 -1.37213e-07 7.10508e-08)
(-5.30638e-08 -1.47813e-07 8.25392e-08)
(-5.98034e-08 -1.52848e-07 9.34867e-08)
(-6.56446e-08 -1.50668e-07 1.01835e-07)
(-5.39832e-08 -1.35392e-07 1.04834e-07)
(0 0 0)
(-3.36064e-09 -9.92272e-09 3.58793e-09)
(-6.50958e-09 -1.93565e-08 7.0728e-09)
(-9.46288e-09 -2.8448e-08 1.05755e-08)
(-1.23338e-08 -3.75851e-08 1.43044e-08)
(-1.52208e-08 -4.70641e-08 1.84442e-08)
(-1.82115e-08 -5.70945e-08 2.31653e-08)
(-2.13837e-08 -6.77875e-08 2.8627e-08)
(-2.48031e-08 -7.91262e-08 3.4974e-08)
(-2.85172e-08 -9.09093e-08 4.23252e-08)
(-3.25442e-08 -1.02661e-07 5.0751e-08)
(-3.68561e-08 -1.13497e-07 6.02367e-08)
(-4.1358e-08 -1.21939e-07 7.06239e-08)
(-4.58573e-08 -1.25741e-07 8.1519e-08)
(-4.99691e-08 -1.21967e-07 9.21367e-08)
(-5.24467e-08 -1.08204e-07 1.01084e-07)
(-9.92536e-08 -2.42748e-08 1.23602e-07)
(0 0 0)
(0 0 0)
(0 0 0)
(0 0 0)
(0 0 0)
(0 0 0)
(0 0 0)
(0 0 0)
(0 0 0)
(0 0 0)
(0 0 0)
(0 0 0)
(0 0 0)
(0 0 0)
(0 0 0)
(0 0 0)
(0 0 0)
(0 0 0)
(-6.86735e-10 -2.13713e-09 5.56984e-10)
(-1.34972e-09 -4.20456e-09 1.10734e-09)
(-2.00988e-09 -6.26973e-09 1.67899e-09)
(-2.7089e-09 -8.46242e-09 2.31538e-09)
(-3.48947e-09 -1.09147e-08 3.06061e-09)
(-4.39841e-09 -1.37734e-08 3.96304e-09)
(-5.48934e-09 -1.72137e-08 5.07891e-09)
(-6.82443e-09 -2.14531e-08 6.47621e-09)
(-8.47423e-09 -2.67642e-08 8.23914e-09)
(-1.05131e-08 -3.34758e-08 1.04735e-08)
(-1.30052e-08 -4.19438e-08 1.33132e-08)
(-1.59744e-08 -5.24429e-08 1.6924e-08)
(-1.93492e-08 -6.48931e-08 2.14868e-08)
(-2.28788e-08 -7.82811e-08 2.70667e-08)
(-2.59207e-08 -8.94735e-08 3.28985e-08)
(-3.61215e-08 -9.83263e-08 5.13761e-08)
(0 0 0)
(-1.342e-09 -4.16532e-09 1.09401e-09)
(-2.6356e-09 -8.18964e-09 2.17378e-09)
(-3.92004e-09 -1.21997e-08 3.29305e-09)
(-5.27481e-09 -1.64417e-08 4.53554e-09)
(-6.78071e-09 -2.11628e-08 5.98537e-09)
(-8.52573e-09 -2.66333e-08 7.73349e-09)
(-1.06099e-08 -3.31705e-08 9.88368e-09)
(-1.31488e-08 -4.11637e-08 1.2558e-08)
(-1.62733e-08 -5.10945e-08 1.59012e-08)
(-2.01218e-08 -6.35406e-08 2.00822e-08)
(-2.48166e-08 -7.91264e-08 2.52877e-08)
(-3.04068e-08 -9.83447e-08 3.16925e-08)
(-3.67517e-08 -1.21105e-07 3.93623e-08)
(-4.32937e-08 -1.45772e-07 4.79641e-08)
(-4.86161e-08 -1.67197e-07 5.59139e-08)
(-5.06756e-08 -2.07691e-07 6.86067e-08)
(0 0 0)
(-1.93923e-09 -5.99107e-09 1.59454e-09)
(-3.80386e-09 -1.17677e-08 3.1655e-09)
(-5.64655e-09 -1.7501e-08 4.78852e-09)
(-7.57764e-09 -2.35305e-08 6.58211e-09)
(-9.70793e-09 -3.01885e-08 8.66339e-09)
(-1.21565e-08 -3.78285e-08 1.11564e-08)
(-1.50571e-08 -4.68538e-08 1.41985e-08)
(-1.85623e-08 -5.77447e-08 1.79448e-08)
(-2.28438e-08 -7.10802e-08 2.25668e-08)
(-2.80832e-08 -8.7538e-08 2.82415e-08)
(-3.44442e-08 -1.07833e-07 3.51175e-08)
(-4.2009e-08 -1.32504e-07 4.32331e-08)
(-5.06428e-08 -1.61372e-07 5.23403e-08)
(-5.97159e-08 -1.92351e-07 6.15719e-08)
(-6.74719e-08 -2.19125e-07 6.89433e-08)
(-8.05617e-08 -2.58584e-07 7.74752e-08)
(0 0 0)
(-2.45656e-09 -7.53547e-09 2.0447e-09)
(-4.81074e-09 -1.47828e-08 4.0545e-09)
(-7.12221e-09 -2.19391e-08 6.1219e-09)
(-9.52307e-09 -2.94073e-08 8.39313e-09)
(-1.21437e-08 -3.75693e-08 1.10099e-08)
(-1.51216e-08 -4.68142e-08 1.41185e-08)
(-1.86082e-08 -5.75646e-08 1.78752e-08)
(-2.27727e-08 -7.02984e-08 2.24475e-08)
(-2.78016e-08 -8.55607e-08 2.80061e-08)
(-3.38879e-08 -1.03952e-07 3.46984e-08)
(-4.12011e-08 -1.26055e-07 4.25895e-08)
(-4.98206e-08 -1.52222e-07 5.15411e-08)
(-5.96003e-08 -1.82058e-07 6.10009e-08)
(-6.99014e-08 -2.13284e-07 6.97329e-08)
(-7.89533e-08 -2.39615e-07 7.57778e-08)
(-9.63113e-08 -2.76616e-07 8.00045e-08)
(0 0 0)
(-2.8794e-09 -8.74167e-09 2.43484e-09)
(-5.62749e-09 -1.71249e-08 4.82163e-09)
(-8.30392e-09 -2.53541e-08 7.26417e-09)
(-1.10525e-08 -3.38652e-08 9.92887e-09)
(-1.40121e-08 -4.30537e-08 1.29735e-08)
(-1.73254e-08 -5.32992e-08 1.65561e-08)
(-2.11449e-08 -6.49835e-08 2.08398e-08)
(-2.56359e-08 -7.84984e-08 2.599e-08)
(-3.0973e-08 -9.42394e-08 3.21604e-08)
(-3.73271e-08 -1.12571e-07 3.94584e-08)
(-4.48291e-08 -1.33741e-07 4.78718e-08)
(-5.3489e-08 -1.5769e-07 5.71327e-08)
(-6.30262e-08 -1.83687e-07 6.6502e-08)
(-7.25573e-08 -2.0963e-07 7.455e-08)
(-8.01815e-08 -2.30805e-07 7.93917e-08)
(-9.2542e-08 -2.61367e-07 7.98811e-08)
(0 0 0)
(-3.20087e-09 -9.5753e-09 2.75954e-09)
(-6.24109e-09 -1.87304e-08 5.45648e-09)
(-9.17355e-09 -2.76609e-08 8.20047e-09)
(-1.21439e-08 -3.6808e-08 1.11707e-08)
(-1.52891e-08 -4.65515e-08 1.45331e-08)
(-1.8745e-08 -5.72274e-08 1.84494e-08)
(-2.26512e-08 -6.91341e-08 2.30799e-08)
(-2.71514e-08 -8.25235e-08 2.85794e-08)
(-3.23882e-08 -9.75716e-08 3.50809e-08)
(-3.84872e-08 -1.14315e-07 4.26595e-08)
(-4.55189e-08 -1.32537e-07 5.12622e-08)
(-5.34144e-08 -1.51596e-07 6.05834e-08)
(-6.17781e-08 -1.70216e-07 6.987e-08)
(-6.95092e-08 -1.86381e-07 7.77026e-08)
(-7.44626e-08 -1.97703e-07 8.21803e-08)
(-7.2425e-08 -2.15832e-07 7.97775e-08)
(0 0 0)
(-3.42158e-09 -1.0023e-08 3.01745e-09)
(-6.65382e-09 -1.95781e-08 5.95696e-09)
(-9.73698e-09 -2.88407e-08 8.92907e-09)
(-1.281e-08 -3.82358e-08 1.2119e-08)
(-1.59991e-08 -4.81074e-08 1.56944e-08)
(-1.94242e-08 -5.87289e-08 1.98137e-08)
(-2.32012e-08 -7.02976e-08 2.46285e-08)
(-2.74411e-08 -8.29116e-08 3.02787e-08)
(-3.22423e-08 -9.6519e-08 3.68773e-08)
(-3.76749e-08 -1.10831e-07 4.44799e-08)
(-4.37511e-08 -1.25186e-07 5.303e-08)
(-5.03747e-08 -1.38361e-07 6.22707e-08)
(-5.72633e-08 -1.48415e-07 7.16139e-08)
(-6.38483e-08 -1.52893e-07 7.99856e-08)
(-6.91294e-08 -1.50759e-07 8.57825e-08)
(-5.70396e-08 -1.42501e-07 8.47742e-08)
(0 0 0)
(-3.54866e-09 -1.00893e-08 3.21044e-09)
(-6.88105e-09 -1.96822e-08 6.32754e-09)
(-1.00205e-08 -2.89284e-08 9.45853e-09)
(-1.30924e-08 -3.82219e-08 1.27889e-08)
(-1.62061e-08 -4.78613e-08 1.64826e-08)
(-1.94593e-08 -5.80539e-08 2.06899e-08)
(-2.29388e-08 -6.89023e-08 2.55492e-08)
(-2.67171e-08 -8.03726e-08 3.11828e-08)
(-3.08436e-08 -9.2235e-08 3.76844e-08)
(-3.53278e-08 -1.03972e-07 4.50956e-08)
(-4.01127e-08 -1.14644e-07 5.3368e-08)
(-4.50351e-08 -1.22727e-07 6.23093e-08)
(-4.97749e-08 -1.25991e-07 7.15127e-08)
(-5.37777e-08 -1.21723e-07 8.02853e-08)
(-5.57591e-08 -1.08024e-07 8.76632e-08)
(-1.06436e-07 -3.14661e-08 1.09136e-07)
(0 0 0)
(0 0 0)
(0 0 0)
(0 0 0)
(0 0 0)
(0 0 0)
(0 0 0)
(0 0 0)
(0 0 0)
(0 0 0)
(0 0 0)
(0 0 0)
(0 0 0)
(0 0 0)
(0 0 0)
(0 0 0)
(0 0 0)
(0 0 0)
(-7.1881e-10 -2.17007e-09 4.71304e-10)
(-1.41393e-09 -4.26985e-09 9.36766e-10)
(-2.10839e-09 -6.36819e-09 1.41975e-09)
(-2.84694e-09 -8.59696e-09 1.95656e-09)
(-3.67559e-09 -1.10898e-08 2.58369e-09)
(-4.64504e-09 -1.39941e-08 3.34041e-09)
(-5.81369e-09 -1.74841e-08 4.27106e-09)
(-7.24988e-09 -2.17728e-08 5.4269e-09)
(-9.03253e-09 -2.71216e-08 6.86728e-09)
(-1.12479e-08 -3.38355e-08 8.65974e-09)
(-1.39784e-08 -4.22252e-08 1.08784e-08)
(-1.72778e-08 -5.2489e-08 1.35984e-08)
(-2.11222e-08 -6.44384e-08 1.6877e-08)
(-2.53176e-08 -7.69587e-08 2.06722e-08)
(-2.91702e-08 -8.70043e-08 2.44251e-08)
(-4.28374e-08 -9.04872e-08 3.57383e-08)
(0 0 0)
(-1.40462e-09 -4.22909e-09 9.2574e-10)
(-2.76086e-09 -8.31594e-09 1.83899e-09)
(-4.11196e-09 -1.23899e-08 2.78471e-09)
(-5.54325e-09 -1.67012e-08 3.83293e-09)
(-7.14178e-09 -2.14996e-08 5.05324e-09)
(-9.00267e-09 -2.70568e-08 6.51955e-09)
(-1.12346e-08 -3.36884e-08 8.31369e-09)
(-1.39636e-08 -4.17757e-08 1.05275e-08)
(-1.73341e-08 -5.17814e-08 1.32617e-08)
(-2.15015e-08 -6.42434e-08 1.66201e-08)
(-2.66098e-08 -7.97133e-08 2.06927e-08)
(-3.27355e-08 -9.85686e-08 2.55208e-08)
(-3.97668e-08 -1.2058e-07 3.10215e-08)
(-4.71472e-08 -1.4406e-07 3.68218e-08)
(-5.33169e-08 -1.64179e-07 4.1829e-08)
(-5.66234e-08 -2.03759e-07 4.87691e-08)
(0 0 0)
(-2.02957e-09 -6.08176e-09 1.34933e-09)
(-3.98434e-09 -1.1947e-08 2.67808e-09)
(-5.92248e-09 -1.77705e-08 4.04958e-09)
(-7.96245e-09 -2.38967e-08 5.56297e-09)
(-1.02235e-08 -3.06619e-08 7.31528e-09)
(-1.28342e-08 -3.84214e-08 9.40737e-09)
(-1.59391e-08 -4.75759e-08 1.19477e-08)
(-1.97034e-08 -5.85963e-08 1.50523e-08)
(-2.43127e-08 -7.20391e-08 1.88387e-08)
(-2.99626e-08 -8.85375e-08 2.34066e-08)
(-3.68274e-08 -1.08729e-07 2.87983e-08)
(-4.49876e-08 -1.33039e-07 3.4922e-08)
(-5.42799e-08 -1.61179e-07 4.14265e-08)
(-6.39935e-08 -1.91111e-07 4.75379e-08)
(-7.22186e-08 -2.16969e-07 5.19559e-08)
(-8.56411e-08 -2.56742e-07 5.59259e-08)
(0 0 0)
(-2.57075e-09 -7.64767e-09 1.73031e-09)
(-5.03848e-09 -1.50042e-08 3.43034e-09)
(-7.46943e-09 -2.22706e-08 5.17753e-09)
(-1.00054e-08 -2.98559e-08 7.09436e-09)
(-1.27868e-08 -3.81461e-08 9.29835e-09)
(-1.59616e-08 -4.75317e-08 1.19086e-08)
(-1.96929e-08 -5.8433e-08 1.50488e-08)
(-2.41621e-08 -7.13177e-08 1.88441e-08)
(-2.95673e-08 -8.67091e-08 2.34084e-08)
(-3.61077e-08 -1.05167e-07 2.88129e-08)
(-4.39462e-08 -1.2721e-07 3.50244e-08)
(-5.31275e-08 -1.53108e-07 4.17978e-08)
(-6.34261e-08 -1.82417e-07 4.85287e-08)
(-7.40822e-08 -2.12979e-07 5.41564e-08)
(-8.32473e-08 -2.38924e-07 5.74465e-08)
(-1.00403e-07 -2.77579e-07 5.81303e-08)
(0 0 0)
(-3.01295e-09 -8.86919e-09 2.06051e-09)
(-5.89329e-09 -1.7376e-08 4.07955e-09)
(-8.7078e-09 -2.57285e-08 6.14405e-09)
(-1.1611e-08 -3.43689e-08 8.3935e-09)
(-1.47523e-08 -4.36966e-08 1.0959e-08)
(-1.82852e-08 -5.40926e-08 1.39697e-08)
(-2.23736e-08 -6.59351e-08 1.7555e-08)
(-2.71931e-08 -7.96063e-08 2.18387e-08)
(-3.29261e-08 -9.54827e-08 2.69215e-08)
(-3.97422e-08 -1.13898e-07 3.28429e-08)
(-4.77514e-08 -1.35056e-07 3.95089e-08)
(-5.6907e-08 -1.58866e-07 4.65716e-08)
(-6.68228e-08 -1.84624e-07 5.32754e-08)
(-7.64909e-08 -2.1043e-07 5.83936e-08)
(-8.40079e-08 -2.31903e-07 6.07327e-08)
(-9.60338e-08 -2.6555e-07 5.83869e-08)
(0 0 0)
(-3.34902e-09 -9.71174e-09 2.33538e-09)
(-6.5353e-09 -1.89982e-08 4.61694e-09)
(-9.61892e-09 -2.80584e-08 6.93656e-09)
(-1.27566e-08 -3.73394e-08 9.4446e-09)
(-1.60958e-08 -4.72243e-08 1.22793e-08)
(-1.97829e-08 -5.80493e-08 1.55734e-08)
(-2.39673e-08 -7.01087e-08 1.94548e-08)
(-2.88014e-08 -8.36449e-08 2.40403e-08)
(-3.44318e-08 -9.88176e-08 2.9417e-08)
(-4.09778e-08 -1.15641e-07 3.56047e-08)
(-4.84828e-08 -1.33882e-07 4.24879e-08)
(-5.68165e-08 -1.52912e-07 4.97073e-08)
(-6.54825e-08 -1.71562e-07 5.65181e-08)
(-7.32857e-08 -1.88107e-07 6.17094e-08)
(-7.81313e-08 -2.00434e-07 6.40188e-08)
(-7.60294e-08 -2.23315e-07 5.96948e-08)
(0 0 0)
(-3.57972e-09 -1.01623e-08 2.55377e-09)
(-6.96709e-09 -1.98506e-08 5.04073e-09)
(-1.02093e-08 -2.92433e-08 7.55358e-09)
(-1.3456e-08 -3.87701e-08 1.0248e-08)
(-1.68437e-08 -4.87778e-08 1.32639e-08)
(-2.05016e-08 -5.95386e-08 1.67321e-08)
(-2.45543e-08 -7.12449e-08 2.07746e-08)
(-2.9119e-08 -8.39847e-08 2.54984e-08)
(-3.42957e-08 -9.76922e-08 3.09796e-08)
(-4.0146e-08 -1.12064e-07 3.72323e-08)
(-4.66557e-08 -1.26435e-07 4.41573e-08)
(-5.36766e-08 -1.39627e-07 5.14678e-08)
(-6.08552e-08 -1.49858e-07 5.86017e-08)
(-6.75915e-08 -1.55016e-07 6.4676e-08)
(-7.30056e-08 -1.54328e-07 6.86268e-08)
(-6.17623e-08 -1.51976e-07 6.70182e-08)
(0 0 0)
(-3.71256e-09 -1.02258e-08 2.71726e-09)
(-7.20487e-09 -1.99487e-08 5.3547e-09)
(-1.05066e-08 -2.93202e-08 8.00231e-09)
(-1.37534e-08 -3.87383e-08 1.08162e-08)
(-1.70638e-08 -4.85031e-08 1.39337e-08)
(-2.05438e-08 -5.88198e-08 1.74794e-08)
(-2.42869e-08 -6.97851e-08 2.15659e-08)
(-2.83703e-08 -8.13546e-08 2.62886e-08)
(-3.28429e-08 -9.32853e-08 3.17134e-08)
(-3.77052e-08 -1.05048e-07 3.78536e-08)
(-4.28765e-08 -1.15706e-07 4.46366e-08)
(-4.81522e-08 -1.23784e-07 5.18621e-08)
(-5.31621e-08 -1.27198e-07 5.91651e-08)
(-5.73444e-08 -1.23522e-07 6.60198e-08)
(-5.95255e-08 -1.11084e-07 7.18553e-08)
(-1.13392e-07 -3.97429e-08 9.10703e-08)
(0 0 0)
(0 0 0)
(0 0 0)
(0 0 0)
(0 0 0)
(0 0 0)
(0 0 0)
(0 0 0)
(0 0 0)
(0 0 0)
(0 0 0)
(0 0 0)
(0 0 0)
(0 0 0)
(0 0 0)
(0 0 0)
(0 0 0)
(0 0 0)
(-7.44992e-10 -2.19552e-09 3.68794e-10)
(-1.46634e-09 -4.32013e-09 7.32853e-10)
(-2.18876e-09 -6.44357e-09 1.11025e-09)
(-2.95948e-09 -8.69902e-09 1.52904e-09)
(-3.82717e-09 -1.12208e-08 2.01709e-09)
(-4.84559e-09 -1.41564e-08 2.60382e-09)
(-6.07689e-09 -1.76781e-08 3.32137e-09)
(-7.59426e-09 -2.19947e-08 4.20501e-09)
(-9.48313e-09 -2.73578e-08 5.29221e-09)
(-1.1839e-08 -3.40551e-08 6.61988e-09)
(-1.47584e-08 -4.23672e-08 8.21921e-09)
(-1.83168e-08 -5.24468e-08 1.01077e-08)
(-2.25229e-08 -6.40441e-08 1.22761e-08)
(-2.72152e-08 -7.59857e-08 1.465e-08)
(-3.165e-08 -8.52622e-08 1.68739e-08)
(-4.76762e-08 -8.46239e-08 2.34706e-08)
(0 0 0)
(-1.45573e-09 -4.27837e-09 7.24407e-10)
(-2.86309e-09 -8.41323e-09 1.43873e-09)
(-4.26852e-09 -1.25356e-08 2.17776e-09)
(-5.76208e-09 -1.68981e-08 2.99561e-09)
(-7.43578e-09 -2.17521e-08 3.9455e-09)
(-9.39039e-09 -2.7369e-08 5.0828e-09)
(-1.17413e-08 -3.40616e-08 6.46687e-09)
(-1.46228e-08 -4.22038e-08 8.16067e-09)
(-1.81896e-08 -5.22427e-08 1.02269e-08)
(-2.26105e-08 -6.46885e-08 1.27183e-08)
(-2.80464e-08 -8.00492e-08 1.56593e-08)
(-3.45956e-08 -9.86444e-08 1.90153e-08)
(-4.2168e-08 -1.20192e-07 2.26459e-08)
(-5.02052e-08 -1.43017e-07 2.62317e-08)
(-5.70336e-08 -1.62462e-07 2.91038e-08)
(-6.14014e-08 -2.01595e-07 3.24823e-08)
(0 0 0)
(-2.1033e-09 -6.15187e-09 1.0559e-09)
(-4.13162e-09 -1.20853e-08 2.09529e-09)
(-6.14756e-09 -1.7977e-08 3.16714e-09)
(-8.27612e-09 -2.41752e-08 4.34816e-09)
(-1.06433e-08 -3.10178e-08 5.71259e-09)
(-1.3385e-08 -3.88602e-08 7.33612e-09)
(-1.66543e-08 -4.81e-08 9.29746e-09)
(-2.0626e-08 -5.91993e-08 1.1676e-08)
(-2.54965e-08 -7.26981e-08 1.45426e-08)
(-3.14722e-08 -8.92022e-08 1.79401e-08)
(-3.87368e-08 -1.09311e-07 2.18455e-08)
(-4.73745e-08 -1.33413e-07 2.61113e-08)
(-5.72099e-08 -1.61224e-07 3.03914e-08)
(-6.74843e-08 -1.90818e-07 3.40927e-08)
(-7.61673e-08 -2.16554e-07 3.64611e-08)
(-9.01609e-08 -2.57225e-07 3.78358e-08)
(0 0 0)
(-2.66396e-09 -7.73449e-09 1.35408e-09)
(-5.22435e-09 -1.51751e-08 2.68397e-09)
(-7.75269e-09 -2.25252e-08 4.04961e-09)
(-1.03986e-08 -3.01978e-08 5.54583e-09)
(-1.33104e-08 -3.85811e-08 7.26267e-09)
(-1.66443e-08 -4.80659e-08 9.28976e-09)
(-2.05724e-08 -5.90691e-08 1.1717e-08)
(-2.52854e-08 -7.20507e-08 1.46297e-08)
(-3.09898e-08 -8.75203e-08 1.80945e-08)
(-3.78905e-08 -1.06018e-07 2.21293e-08)
(-4.61481e-08 -1.28044e-07 2.66503e-08)
(-5.57909e-08 -1.53871e-07 3.13913e-08)
(-6.65552e-08 -1.83119e-07 3.58189e-08)
(-7.7619e-08 -2.13804e-07 3.91433e-08)
(-8.7059e-08 -2.4021e-07 4.06882e-08)
(-1.0448e-07 -2.81053e-07 3.98318e-08)
(0 0 0)