/*--------------------------------*- C++ -*----------------------------------*\
| =========                 |                                                 |
| \\      /  F ield         | foam-extend: Open Source CFD                    |
|  \\    /   O peration     | Version:     3.1                                |
|   \\  /    A nd           | Web:         http://www.extend-project.de       |
|    \\/     M anipulation  |                                                 |
\*---------------------------------------------------------------------------*/
FoamFile
{
    version     2.0;
    format      ascii;
    class       surfaceVectorField;
    location    "0.6";
    object      Sf;
}
// * * * * * * * * * * * * * * * * * * * * * * * * * * * * * * * * * * * * * //

dimensions      [0 2 0 0 0 0 0];

internalField   nonuniform List<vector> 
41600
(
(0.000625543 -4.72295e-06 -3.84093e-08)
(-5.44341e-07 0.000707846 -1.60155e-08)
(-5.34443e-08 -6.01248e-08 0.00070582)
(5.48893e-08 6.17505e-08 -0.000705765)
(0.000626066 -9.09841e-06 -7.43367e-08)
(-5.24256e-07 0.000707496 -4.80351e-08)
(-5.27699e-08 -1.7959e-07 0.000706262)
(5.42202e-08 1.84472e-07 -0.000706178)
(0.000626582 -1.30917e-05 -1.08382e-07)
(-5.18176e-07 0.00070711 -8.10474e-08)
(-5.46623e-08 -3.00351e-07 0.000706673)
(5.61967e-08 3.08588e-07 -0.000706557)
(0.000627122 -1.68071e-05 -1.42359e-07)
(-5.41214e-07 0.000706828 -1.17599e-07)
(-6.06089e-08 -4.29812e-07 0.000707147)
(6.23369e-08 4.41714e-07 -0.000706996)
(0.000627713 -2.03309e-05 -1.77734e-07)
(-5.9282e-07 0.000706633 -1.60858e-07)
(-7.07213e-08 -5.77167e-07 0.000707711)
(7.2749e-08 5.93285e-07 -0.000707514)
(0.000628385 -2.37324e-05 -2.15524e-07)
(-6.74884e-07 0.000706505 -2.1442e-07)
(-8.55141e-08 -7.52296e-07 0.000708389)
(8.79525e-08 7.73421e-07 -0.000708137)
(0.000629174 -2.70623e-05 -2.56147e-07)
(-7.9168e-07 0.000706428 -2.82746e-07)
(-1.05983e-07 -9.66737e-07 0.000709212)
(1.08955e-07 9.93925e-07 -0.000708888)
(0.00063012 -3.03474e-05 -2.99193e-07)
(-9.50369e-07 0.000706376 -3.71645e-07)
(-1.338e-07 -1.23496e-06 0.000710211)
(1.37451e-07 1.26957e-06 -0.000709797)
(0.000631277 -3.35819e-05 -3.43108e-07)
(-1.1609e-06 0.000706316 -4.89094e-07)
(-1.71731e-07 -1.57632e-06 0.000711428)
(1.76243e-07 1.62006e-06 -0.000710895)
(0.000632708 -3.67124e-05 -3.84987e-07)
(-1.43666e-06 0.0007062 -6.4665e-07)
(-2.24465e-07 -2.01828e-06 0.000712907)
(2.30078e-07 2.07336e-06 -0.000712219)
(0.000634496 -3.96205e-05 -4.2108e-07)
(-1.7948e-06 0.000705964 -8.61885e-07)
(-3.00228e-07 -2.60236e-06 0.000714708)
(3.07251e-07 2.67157e-06 -0.00071381)
(0.000636742 -4.21087e-05 -4.49696e-07)
(-2.25529e-06 0.000705526 -1.16345e-06)
(-4.13646e-07 -3.39479e-06 0.000716907)
(4.22441e-07 3.48167e-06 -0.000715715)
(0.000639564 -4.39122e-05 -4.80766e-07)
(-2.83286e-06 0.00070482 -1.60117e-06)
(-5.88983e-07 -4.50381e-06 0.000719624)
(6.00016e-07 4.61272e-06 -0.000717991)
(0.000643028 -4.47849e-05 -5.60473e-07)
(-3.48065e-06 0.000703859 -2.2599e-06)
(-8.50165e-07 -6.09028e-06 0.000723035)
(8.67042e-07 6.2294e-06 -0.000720696)
(0.000646662 -4.46466e-05 -8.31826e-07)
(-3.7054e-06 0.000702757 -3.22979e-06)
(-1.09386e-06 -8.23484e-06 0.000727144)
(1.16483e-06 8.46408e-06 -0.000723643)
(-1.55329e-05 0.000698539 1.14911e-06)
(-3.86813e-06 -1.35434e-05 0.000736626)
(8.59283e-06 1.87667e-05 -0.000736292)
(0.000625515 -4.64357e-06 -1.14275e-07)
(-1.06347e-06 0.000712488 -3.13574e-08)
(-1.5855e-07 -5.81129e-08 0.000710527)
(1.6284e-07 5.96879e-08 -0.000710397)
(0.00062601 -8.94371e-06 -2.21154e-07)
(-1.02344e-06 0.000711791 -9.398e-08)
(-1.56445e-07 -1.73418e-07 0.000710592)
(1.60749e-07 1.78145e-07 -0.000710439)
(0.000626497 -1.28658e-05 -3.22419e-07)
(-1.00996e-06 0.000711024 -1.58399e-07)
(-1.61846e-07 -2.89493e-07 0.00071059)
(1.66396e-07 2.97459e-07 -0.000710411)
(0.000627003 -1.6512e-05 -4.23484e-07)
(-1.05235e-06 0.000710463 -2.29517e-07)
(-1.79125e-07 -4.13135e-07 0.000710754)
(1.84244e-07 4.24624e-07 -0.000710541)
(0.000627553 -1.99675e-05 -5.28755e-07)
(-1.14912e-06 0.000710073 -3.13375e-07)
(-2.08529e-07 -5.52726e-07 0.000711087)
(2.14526e-07 5.68247e-07 -0.000710829)
(0.000628174 -2.33019e-05 -6.41344e-07)
(-1.30301e-06 0.00070982 -4.16826e-07)
(-2.51426e-07 -7.17014e-07 0.000711594)
(2.58624e-07 7.37299e-07 -0.00071128)
(0.000628895 -2.6569e-05 -7.62641e-07)
(-1.52143e-06 0.000709669 -5.48233e-07)
(-3.10474e-07 -9.15796e-07 0.000712282)
(3.19229e-07 9.41811e-07 -0.000711896)
(0.00062975 -2.98031e-05 -8.91656e-07)
(-1.81626e-06 0.000709577 -7.18307e-07)
(-3.90064e-07 -1.16064e-06 0.000713154)
(4.00791e-07 1.19362e-06 -0.000712678)
(0.00063078 -3.30112e-05 -1.02404e-06)
(-2.2036e-06 0.000709482 -9.41551e-07)
(-4.97234e-07 -1.46573e-06 0.000714204)
(5.1045e-07 1.50722e-06 -0.000713619)
(0.00063203 -3.61611e-05 -1.15116e-06)
(-2.7036e-06 0.000709298 -1.23835e-06)
(-6.43424e-07 -1.84875e-06 0.000715416)
(6.5981e-07 1.90069e-06 -0.000714698)
(0.000633552 -3.91637e-05 -1.26066e-06)
(-3.33714e-06 0.000708901 -1.63856e-06)
(-8.47544e-07 -2.33155e-06 0.000716754)
(8.68014e-07 2.39649e-06 -0.000715867)
(0.000635388 -4.18504e-05 -1.34218e-06)
(-4.11655e-06 0.000708132 -2.1882e-06)
(-1.14042e-06 -2.93905e-06 0.000718156)
(1.16614e-06 3.02032e-06 -0.00071705)
(0.000637536 -4.39584e-05 -1.40818e-06)
(-5.01319e-06 0.000706825 -2.96167e-06)
(-1.56582e-06 -3.69078e-06 0.000719554)
(1.5984e-06 3.79288e-06 -0.000718127)
(0.000639842 -4.51552e-05 -1.54927e-06)
(-5.83585e-06 0.000704926 -4.0768e-06)
(-2.14203e-06 -4.56977e-06 0.000720913)
(2.19034e-06 4.69872e-06 -0.000718955)
(0.000641643 -4.51915e-05 -2.08918e-06)
(-5.67333e-06 0.000702631 -5.67046e-06)
(-2.56994e-06 -5.44968e-06 0.000722251)
(2.73748e-06 5.61256e-06 -0.000719271)
(-1.37475e-05 0.000693906 -2.50428e-06)
(-6.77311e-06 -4.53907e-06 0.000721272)
(1.4152e-05 1.94337e-06 -0.000714539)
(0.000625464 -4.48973e-06 -1.87332e-07)
(-1.53444e-06 0.000716977 -4.52752e-08)
(-2.58475e-07 -5.42675e-08 0.000715102)
(2.6548e-07 5.57456e-08 -0.000714901)
(0.000625908 -8.64396e-06 -3.62488e-07)
(-1.4748e-06 0.000715941 -1.35577e-07)
(-2.54714e-07 -1.61685e-07 0.000714769)
(2.61735e-07 1.66117e-07 -0.000714552)
(0.000626343 -1.24275e-05 -5.28379e-07)
(-1.45161e-06 0.0007148 -2.28174e-07)
(-2.62841e-07 -2.69042e-07 0.000714334)
(2.70253e-07 2.76494e-07 -0.000714098)
(0.000626789 -1.59385e-05 -6.93939e-07)
(-1.50679e-06 0.000713964 -3.29932e-07)
(-2.89871e-07 -3.82093e-07 0.00071416)
(2.98188e-07 3.92804e-07 -0.000713894)
(0.000627267 -1.92596e-05 -8.66525e-07)
(-1.63697e-06 0.000713379 -4.49294e-07)
(-3.35951e-07 -5.07841e-07 0.00071423)
(3.45667e-07 5.22246e-07 -0.000713921)
(0.000627797 -2.24606e-05 -1.05152e-06)
(-1.8445e-06 0.000713002 -5.95708e-07)
(-4.02856e-07 -6.53172e-07 0.000714526)
(4.14476e-07 6.71892e-07 -0.000714163)
(0.000628399 -2.56001e-05 -1.25161e-06)
(-2.1377e-06 0.000712784 -7.80445e-07)
(-4.94083e-07 -8.25135e-07 0.000715032)
(5.08156e-07 8.48977e-07 -0.0007146)
(0.000629095 -2.87244e-05 -1.46598e-06)
(-2.52958e-06 0.000712671 -1.0177e-06)
(-6.15208e-07 -1.03094e-06 0.000715721)
(6.32356e-07 1.06091e-06 -0.000715207)
(0.000629908 -3.18634e-05 -1.6885e-06)
(-3.03727e-06 0.000712584 -1.32621e-06)
(-7.7461e-07 -1.27746e-06 0.000716547)
(7.95592e-07 1.31475e-06 -0.00071594)
(0.000630858 -3.5023e-05 -1.90573e-06)
(-3.67959e-06 0.000712412 -1.73158e-06)
(-9.84705e-07 -1.56959e-06 0.000717434)
(1.01051e-06 1.61564e-06 -0.000716724)
(0.000631958 -3.81722e-05 -2.0956e-06)
(-4.46884e-06 0.000711994 -2.2698e-06)
(-1.26336e-06 -1.90621e-06 0.000718256)
(1.29535e-06 1.96277e-06 -0.000717434)
(0.000633192 -4.12181e-05 -2.23063e-06)
(-5.39121e-06 0.000711108 -2.99354e-06)
(-1.63372e-06 -2.27074e-06 0.000718818)
(1.67374e-06 2.34002e-06 -0.000717878)
(0.000634483 -4.39707e-05 -2.29665e-06)
(-6.35474e-06 0.000709493 -3.98383e-06)
(-2.11328e-06 -2.61193e-06 0.000718869)
(2.16393e-06 2.69659e-06 -0.000717781)
(0.000635619 -4.61221e-05 -2.35049e-06)
(-7.04309e-06 0.000706977 -5.36732e-06)
(-2.65133e-06 -2.81677e-06 0.000718198)
(2.72242e-06 2.91795e-06 -0.000716853)
(0.000636128 -4.73334e-05 -2.71716e-06)
(-6.36859e-06 0.000703749 -7.32832e-06)
(-2.84077e-06 -2.74383e-06 0.000716968)
(3.02773e-06 2.83745e-06 -0.000714944)
(-1.56104e-05 0.000696033 -3.53183e-06)
(-5.09155e-06 -1.64765e-06 0.000713163)
(1.00329e-05 1.02559e-06 -0.000709322)
(0.000625393 -4.26351e-06 -2.55801e-07)
(-1.93737e-06 0.000721239 -5.71498e-08)
(-3.50249e-07 -4.88697e-08 0.000719473)
(3.59762e-07 5.02112e-08 -0.000719205)
(0.000625768 -8.20366e-06 -4.94859e-07)
(-1.85896e-06 0.000719877 -1.70951e-07)
(-3.44508e-07 -1.45277e-07 0.00071873)
(3.54032e-07 1.49292e-07 -0.000718455)
(0.00062613 -1.17841e-05 -7.21106e-07)
(-1.82352e-06 0.000718374 -2.87146e-07)
(-3.5421e-07 -2.40635e-07 0.000717847)
(3.64238e-07 2.47364e-07 -0.000717562)
(0.000626495 -1.50962e-05 -9.46832e-07)
(-1.88321e-06 0.000717266 -4.14114e-07)
(-3.88653e-07 -3.39372e-07 0.000717316)
(3.99867e-07 3.48996e-07 -0.000717007)
(0.000626877 -1.82178e-05 -1.18235e-06)
(-2.03187e-06 0.000716488 -5.62113e-07)
(-4.47598e-07 -4.46783e-07 0.000717096)
(4.60641e-07 4.59638e-07 -0.000716748)
(0.000627287 -2.12167e-05 -1.43558e-06)
(-2.27025e-06 0.000715984 -7.42323e-07)
(-5.32671e-07 -5.67576e-07 0.00071715)
(5.48187e-07 5.84133e-07 -0.00071675)
(0.000627736 -2.41556e-05 -1.71077e-06)
(-2.60489e-06 0.000715702 -9.67712e-07)
(-6.47263e-07 -7.05798e-07 0.000717441)
(6.6594e-07 7.26659e-07 -0.000716978)
(0.00062823 -2.70935e-05 -2.00844e-06)
(-3.04681e-06 0.000715583 -1.25431e-06)
(-7.96469e-07 -8.64307e-07 0.000717919)
(8.19037e-07 8.90171e-07 -0.000717385)
(0.000628776 -3.00855e-05 -2.32258e-06)
(-3.60966e-06 0.000715544 -1.62281e-06)
(-9.87093e-07 -1.04339e-06 0.000718509)
(1.0144e-06 1.075e-06 -0.000717899)
(0.000629369 -3.31823e-05 -2.63746e-06)
(-4.30583e-06 0.000715471 -2.10086e-06)
(-1.22752e-06 -1.238e-06 0.000719095)
(1.26063e-06 1.27608e-06 -0.00071841)
(0.000629996 -3.64291e-05 -2.92406e-06)
(-5.13626e-06 0.000715196 -2.72655e-06)
(-1.52618e-06 -1.43251e-06 0.000719495)
(1.56649e-06 1.47765e-06 -0.000718751)
(0.00063062 -3.98457e-05 -3.13656e-06)
(-6.06444e-06 0.000714472 -3.55454e-06)
(-1.88555e-06 -1.59148e-06 0.000719438)
(1.935e-06 1.64399e-06 -0.000718664)
(0.000631164 -4.33736e-05 -3.22158e-06)
(-6.96005e-06 0.000712962 -4.6688e-06)
(-2.28338e-06 -1.64752e-06 0.000718561)
(2.34453e-06 1.707e-06 -0.000717791)
(0.000631501 -4.67804e-05 -3.16178e-06)
(-7.46074e-06 0.000710321 -6.2071e-06)
(-2.61325e-06 -1.50287e-06 0.000716546)
(2.69348e-06 1.56575e-06 -0.000715766)
(0.000631444 -4.95411e-05 -3.15778e-06)
(-6.47656e-06 0.00070647 -8.41174e-06)
(-2.49671e-06 -1.11961e-06 0.000713579)
(2.66215e-06 1.159e-06 -0.0007125)
(-1.56922e-05 0.000700348 -4.4674e-06)
(-3.67497e-06 1.63316e-08 0.000708874)
(7.61379e-06 -1.07053e-06 -0.000706437)
(0.000625308 -3.97193e-06 -3.18075e-07)
(-2.25689e-06 0.000725209 -6.64956e-08)
(-4.31512e-07 -4.2322e-08 0.000723573)
(4.43264e-07 4.34956e-08 -0.000723246)
(0.000625598 -7.63665e-06 -6.15115e-07)
(-2.16132e-06 0.000723538 -1.9866e-07)
(-4.23444e-07 -1.25443e-07 0.000722416)
(4.35191e-07 1.28947e-07 -0.000722091)
(0.000625874 -1.09558e-05 -8.95889e-07)
(-2.11157e-06 0.000721687 -3.32962e-07)
(-4.33379e-07 -2.06523e-07 0.000721082)
(4.45708e-07 2.1237e-07 -0.000720755)
(0.000626144 -1.40111e-05 -1.17577e-06)
(-2.16723e-06 0.000720313 -4.78797e-07)
(-4.72498e-07 -2.88547e-07 0.000720181)
(4.86222e-07 2.96851e-07 -0.000719837)
(0.000626416 -1.68724e-05 -1.46797e-06)
(-2.31894e-06 0.000719338 -6.47545e-07)
(-5.39904e-07 -3.75022e-07 0.000719652)
(5.55771e-07 3.86003e-07 -0.000719275)
(0.000626691 -1.96028e-05 -1.78296e-06)
(-2.56436e-06 0.000718701 -8.51233e-07)
(-6.36613e-07 -4.6853e-07 0.000719441)
(6.55371e-07 4.82506e-07 -0.000719017)
(0.00062697 -2.22648e-05 -2.12666e-06)
(-2.90659e-06 0.000718347 -1.10329e-06)
(-7.65182e-07 -5.70499e-07 0.000719495)
(7.87594e-07 5.87864e-07 -0.000719016)
(0.000627248 -2.49221e-05 -2.5024e-06)
(-3.35159e-06 0.000718219 -1.41998e-06)
(-9.29022e-07 -6.80403e-07 0.000719751)
(9.55802e-07 7.01538e-07 -0.00071921)
(0.000627513 -2.76457e-05 -2.9067e-06)
(-3.90635e-06 0.000718243 -1.82196e-06)
(-1.13162e-06 -7.94182e-07 0.000720118)
(1.16354e-06 8.19348e-07 -0.000719515)
(0.000627746 -3.05249e-05 -3.32569e-06)
(-4.57618e-06 0.000718321 -2.33663e-06)
(-1.37534e-06 -9.01881e-07 0.000720466)
(1.41322e-06 9.31058e-07 -0.000719811)
(0.000627919 -3.36769e-05 -3.72996e-06)
(-5.35466e-06 0.000718315 -3.00214e-06)
(-1.6575e-06 -9.8405e-07 0.000720606)
(1.70233e-06 1.01667e-06 -0.000719926)
(0.000628 -3.72401e-05 -4.06404e-06)
(-6.19869e-06 0.000718001 -3.87443e-06)
(-1.96128e-06 -1.00671e-06 0.000720256)
(2.0143e-06 1.04125e-06 -0.000719602)
(0.000627955 -4.1318e-05 -4.2424e-06)
(-6.97696e-06 0.000717006 -5.04298e-06)
(-2.23679e-06 -9.18487e-07 0.000719011)
(2.29947e-06 9.51931e-07 -0.000718458)
(0.000627754 -4.5791e-05 -4.16001e-06)
(-7.33718e-06 0.000714767 -6.66126e-06)
(-2.36059e-06 -6.64341e-07 0.000716407)
(2.43758e-06 6.90932e-07 -0.000716036)
(0.000627359 -4.98963e-05 -3.78046e-06)
(-6.21763e-06 0.000710575 -9.01569e-06)
(-2.04427e-06 -2.60658e-07 0.000712216)
(2.18018e-06 2.61029e-07 -0.000711992)
(-1.51651e-05 0.000706374 -4.89015e-06)
(-2.47627e-06 5.91328e-07 0.000707427)
(5.24382e-06 -1.35521e-06 -0.000707127)
(0.000625212 -3.62351e-06 -3.72846e-07)
(-2.48267e-06 0.000728832 -7.29872e-08)
(-5.00657e-07 -3.50721e-08 0.000727343)
(5.14334e-07 3.60567e-08 -0.000726964)
(0.00062541 -6.95971e-06 -7.20677e-07)
(-2.37249e-06 0.000726871 -2.17785e-07)
(-4.89955e-07 -1.03559e-07 0.000725778)
(5.036e-07 1.0649e-07 -0.000725411)
(0.000625591 -9.96752e-06 -1.04883e-06)
(-2.30756e-06 0.00072469 -3.64201e-07)
(-4.98777e-07 -1.69139e-07 0.000723998)
(5.13042e-07 1.74e-07 -0.000723639)
(0.00062576 -1.27161e-05 -1.37532e-06)
(-2.352e-06 0.000723055 -5.22128e-07)
(-5.3978e-07 -2.33392e-07 0.000722724)
(5.55575e-07 2.40234e-07 -0.000722354)
(0.000625916 -1.5264e-05 -1.71594e-06)
(-2.49306e-06 0.000721877 -7.03379e-07)
(-6.11241e-07 -2.98158e-07 0.000721874)
(6.29375e-07 3.07096e-07 -0.000721478)
(0.000626055 -1.7666e-05 -2.08312e-06)
(-2.7244e-06 0.000721091 -9.19899e-07)
(-7.13271e-07 -3.642e-07 0.000721381)
(7.34568e-07 3.75405e-07 -0.000720945)
(0.000626167 -1.99749e-05 -2.4851e-06)
(-3.04399e-06 0.000720642 -1.18456e-06)
(-8.47182e-07 -4.30884e-07 0.000721182)
(8.72408e-07 4.44549e-07 -0.000720699)
(0.000626237 -2.22463e-05 -2.92898e-06)
(-3.45089e-06 0.000720474 -1.51265e-06)
(-1.01421e-06 -4.95471e-07 0.000721205)
(1.04395e-06 5.11679e-07 -0.000720668)
(0.00062624 -2.4551e-05 -3.41585e-06)
(-3.94391e-06 0.000720529 -1.92319e-06)
(-1.21425e-06 -5.51967e-07 0.000721355)
(1.24904e-06 5.70553e-07 -0.000720767)
(0.000626144 -2.69922e-05 -3.93746e-06)
(-4.52122e-06 0.000720742 -2.44133e-06)
(-1.44429e-06 -5.89814e-07 0.000721515)
(1.48453e-06 6.10212e-07 -0.000720889)
(0.000625918 -2.97238e-05 -4.47155e-06)
(-5.17384e-06 0.000721026 -3.10336e-06)
(-1.69377e-06 -5.92765e-07 0.000721525)
(1.73962e-06 6.13637e-07 -0.00072089)
(0.000625537 -3.29662e-05 -4.96938e-06)
(-5.86929e-06 0.000721225 -3.96612e-06)
(-1.935e-06 -5.38662e-07 0.000721146)
(1.98637e-06 5.57255e-07 -0.000720557)
(0.000625021 -3.69951e-05 -5.33891e-06)
(-6.51772e-06 0.000721024 -5.129e-06)
(-2.10835e-06 -4.03531e-07 0.000720014)
(2.16492e-06 4.14912e-07 -0.000719559)
(0.000624467 -4.19644e-05 -5.4065e-06)
(-6.8481e-06 0.00071974 -6.77321e-06)
(-2.0972e-06 -1.77329e-07 0.000717564)
(2.16178e-06 1.73902e-07 -0.000717385)
(0.000623987 -4.7218e-05 -4.79705e-06)
(-5.8464e-06 0.000715859 -9.22676e-06)
(-1.68614e-06 9.58534e-08 0.000712852)
(1.7958e-06 -1.2666e-07 -0.000713251)
(-1.44035e-05 0.000714872 -5.02842e-06)
(-1.68679e-06 5.87775e-07 0.000709197)
(3.64196e-06 -1.16942e-06 -0.000711173)
(0.000625111 -3.2284e-06 -4.19139e-07)
(-2.60934e-06 0.00073206 -7.64971e-08)
(-5.56858e-07 -2.7567e-08 0.000730734)
(5.72119e-07 2.83534e-08 -0.000730311)
(0.000625212 -6.19319e-06 -8.09626e-07)
(-2.4882e-06 0.000729834 -2.27985e-07)
(-5.4331e-07 -8.09887e-08 0.000728777)
(5.585e-07 8.33206e-08 -0.000728376)
(0.000625298 -8.85009e-06 -1.17702e-06)
(-2.40898e-06 0.000727343 -3.80424e-07)
(-5.49818e-07 -1.30858e-07 0.000726566)
(5.65631e-07 1.34692e-07 -0.000726183)
(0.000625366 -1.12529e-05 -1.54132e-06)
(-2.43758e-06 0.000725452 -5.43681e-07)
(-5.90142e-07 -1.77489e-07 0.000724921)
(6.07548e-07 1.82817e-07 -0.000724535)
(0.000625411 -1.3446e-05 -1.92026e-06)
(-2.55783e-06 0.000724064 -7.29338e-07)
(-6.61682e-07 -2.21281e-07 0.000723744)
(6.81522e-07 2.2813e-07 -0.00072334)
(0.000625422 -1.5469e-05 -2.32752e-06)
(-2.75899e-06 0.000723106 -9.48644e-07)
(-7.63507e-07 -2.61548e-07 0.000722957)
(7.86631e-07 2.69952e-07 -0.000722521)
(0.000625384 -1.73575e-05 -2.77432e-06)
(-3.03285e-06 0.000722521 -1.21318e-06)
(-8.95519e-07 -2.96169e-07 0.000722487)
(9.22636e-07 3.06117e-07 -0.000722011)
(0.000625273 -1.9149e-05 -3.27148e-06)
(-3.37105e-06 0.000722254 -1.53624e-06)
(-1.05692e-06 -3.21168e-07 0.000722255)
(1.08843e-06 3.32514e-07 -0.000721734)
(0.000625056 -2.08929e-05 -3.82417e-06)
(-3.76336e-06 0.00072226 -1.93386e-06)
(-1.24476e-06 -3.30232e-07 0.000722173)
(1.28094e-06 3.42597e-07 -0.00072161)
(0.000624692 -2.26669e-05 -4.43111e-06)
(-4.19851e-06 0.000722503 -2.42679e-06)
(-1.45256e-06 -3.14365e-07 0.000722143)
(1.4933e-06 3.26981e-07 -0.000721551)
(0.000624137 -2.45935e-05 -5.08255e-06)
(-4.66313e-06 0.000722941 -3.04603e-06)
(-1.66621e-06 -2.62477e-07 0.000722041)
(1.71073e-06 2.73827e-07 -0.000721447)
(0.000623359 -2.6871e-05 -5.7514e-06)
(-5.1373e-06 0.000723495 -3.84428e-06)
(-1.85637e-06 -1.64528e-07 0.00072169)
(1.90293e-06 1.71671e-07 -0.000721143)
(0.000622391 -2.9832e-05 -6.37632e-06)
(-5.59612e-06 0.000723987 -4.92579e-06)
(-1.96919e-06 -2.02027e-08 0.000720821)
(2.01494e-06 1.76416e-08 -0.0007204)
(0.000621456 -3.39597e-05 -6.79455e-06)
(-5.95814e-06 0.00072389 -6.51142e-06)
(-1.91097e-06 1.42895e-07 0.00071895)
(1.95572e-06 -1.65187e-07 -0.000718793)
(0.000621033 -3.94022e-05 -6.33391e-06)
(-5.50388e-06 0.000721359 -9.0318e-06)
(-1.51101e-06 2.50622e-07 0.000714698)
(1.59206e-06 -3.07758e-07 -0.000715354)
(-1.45291e-05 0.00072972 -4.93654e-06)
(-1.39546e-06 3.03789e-07 0.000716469)
(2.82905e-06 -6.90564e-07 -0.000720904)
(0.00062501 -2.79776e-06 -4.5637e-07)
(-6.0003e-07 -2.02176e-08 0.000733706)
(6.16528e-07 2.08061e-08 -0.00073325)
(-2.63613e-06 0.000734857 -7.70463e-08)
(0.000625015 -5.3605e-06 -8.80831e-07)
(-5.83561e-07 -5.89845e-08 0.000731384)
(5.99942e-07 6.07192e-08 -0.000730958)
(-2.50882e-06 0.000732395 -2.29372e-07)
(0.000625007 -7.64054e-06 -1.27876e-06)
(-5.86812e-07 -9.38336e-08 0.000728766)
(6.03784e-07 9.66516e-08 -0.000728367)
(-2.41825e-06 0.00072962 -3.81963e-07)
(0.00062498 -9.67395e-06 -1.67141e-06)
(-6.24304e-07 -1.24003e-07 0.000726761)
(6.42867e-07 1.27847e-07 -0.000726368)
(-2.4295e-06 0.000727482 -5.44211e-07)
(0.000624925 -1.14885e-05 -2.07752e-06)
(-6.92611e-07 -1.48707e-07 0.000725257)
(7.13618e-07 1.53526e-07 -0.000724854)
(-2.52349e-06 0.000725873 -7.26961e-07)
(0.000624827 -1.31046e-05 -2.51183e-06)
(-7.89744e-07 -1.6617e-07 0.000724165)
(8.14009e-07 1.71876e-07 -0.000723739)
(-2.685e-06 0.000724716 -9.40363e-07)
(0.000624666 -1.45366e-05 -2.98799e-06)
(-9.14224e-07 -1.73301e-07 0.000723403)
(9.42362e-07 1.79716e-07 -0.000722945)
(-2.89996e-06 0.000723947 -1.19425e-06)
(0.000624415 -1.57973e-05 -3.51865e-06)
(-1.06364e-06 -1.65499e-07 0.000722888)
(1.09593e-06 1.72364e-07 -0.000722394)
(-3.15241e-06 0.000723508 -1.49921e-06)
(0.000624037 -1.69015e-05 -4.11083e-06)
(-1.23325e-06 -1.36703e-07 0.000722535)
(1.26972e-06 1.43618e-07 -0.000722009)
(-3.42262e-06 0.000723358 -1.8672e-06)
(0.000623485 -1.78687e-05 -4.76877e-06)
(-1.41474e-06 -7.95294e-08 0.000722255)
(1.45488e-06 8.58137e-08 -0.000721711)
(-3.68654e-06 0.000723464 -2.3128e-06)
(0.000622694 -1.8724e-05 -5.49317e-06)
(-1.59326e-06 1.39166e-08 0.000721937)
(1.6356e-06 -9.3409e-09 -0.000721401)
(-3.91394e-06 0.000723792 -2.85668e-06)
(0.000621578 -1.95077e-05 -6.27717e-06)
(-1.74244e-06 1.49085e-07 0.000721402)
(1.78417e-06 -1.47754e-07 -0.00072093)
(-4.06315e-06 0.000724278 -3.53266e-06)
(0.000620018 -2.0306e-05 -7.10045e-06)
(-1.81935e-06 3.22965e-07 0.000720342)
(1.85609e-06 -3.26801e-07 -0.00072004)
(-4.07281e-06 0.000724789 -4.40456e-06)
(0.000617824 -2.13635e-05 -7.88163e-06)
(-1.75519e-06 5.13706e-07 0.000718047)
(1.78446e-06 -5.25176e-07 -0.000718179)
(-3.79361e-06 0.000724959 -5.5986e-06)
(0.000614701 -2.38149e-05 -8.07222e-06)
(-1.42127e-06 6.54638e-07 0.000712573)
(1.47468e-06 -6.85577e-07 -0.000714089)
(-2.43455e-06 0.000723841 -7.32569e-06)
(-1.86213e-06 2.1616e-07 0.000732347)
(3.04389e-06 -4.17325e-07 -0.000739889)
(-2.05321e-05 0.000758487 -3.80089e-06)
(0.000625568 -4.79544e-06 -3.39498e-08)
(-5.71483e-07 0.000707917 -1.46634e-08)
(-5.00246e-08 -5.62777e-08 0.000705869)
(0.000626116 -9.23909e-06 -6.58523e-08)
(-5.51361e-07 0.000707557 -4.39282e-08)
(-4.93745e-08 -1.68077e-07 0.000706338)
(0.000626659 -1.32973e-05 -9.61412e-08)
(-5.46879e-07 0.000707164 -7.3911e-08)
(-5.11104e-08 -2.81029e-07 0.000706777)
(0.000627229 -1.70777e-05 -1.26218e-07)
(-5.73977e-07 0.000706878 -1.06706e-07)
(-5.6622e-08 -4.02023e-07 0.000707284)
(0.000627857 -2.06691e-05 -1.57193e-07)
(-6.32229e-07 0.000706679 -1.44849e-07)
(-6.59983e-08 -5.39606e-07 0.000707886)
(0.000628575 -2.41427e-05 -1.89781e-07)
(-7.23905e-07 0.000706549 -1.91008e-07)
(-7.96839e-08 -7.02907e-07 0.000708613)
(0.000629421 -2.75501e-05 -2.24185e-07)
(-8.53973e-07 0.000706468 -2.48188e-07)
(-9.85268e-08 -9.02475e-07 0.000709494)
(0.000630442 -3.09176e-05 -2.59984e-07)
(-1.03045e-06 0.000706409 -3.19782e-07)
(-1.23904e-07 -1.15131e-06 0.000710567)
(0.000631693 -3.42369e-05 -2.96071e-07)
(-1.26468e-06 0.000706334 -4.0952e-07)
(-1.57973e-07 -1.46628e-06 0.000711873)
(0.000633244 -3.74508e-05 -3.30929e-07)
(-1.57181e-06 0.000706191 -5.21076e-07)
(-2.04111e-07 -1.8703e-06 0.000713463)
(0.000635183 -4.04367e-05 -3.63895e-07)
(-1.97104e-06 0.000705904 -6.56263e-07)
(-2.67567e-07 -2.39569e-06 0.000715397)
(0.000637609 -4.29989e-05 -3.98755e-07)
(-2.48384e-06 0.000705381 -8.09565e-07)
(-3.55885e-07 -3.08859e-06 0.000717751)
(0.000640618 -4.4895e-05 -4.51165e-07)
(-3.12166e-06 0.000704529 -9.51914e-07)
(-4.76382e-07 -4.01141e-06 0.000720628)
(0.000644202 -4.59506e-05 -5.55765e-07)
(-3.81649e-06 0.000703314 -9.9112e-07)
(-6.18207e-07 -5.22358e-06 0.000724131)
(0.000647812 -4.62459e-05 -7.42573e-07)
(-4.03101e-06 0.000701845 -7.56298e-07)
(-6.7288e-07 -6.65918e-06 0.000728087)
(-1.1046e-05 0.000701409 -3.24524e-07)
(-1.69715e-06 -9.25038e-06 0.000737667)
(0.000625535 -4.71428e-06 -1.01069e-07)
(-1.11639e-06 0.000712627 -2.87292e-08)
(-1.48404e-07 -5.43938e-08 0.000710642)
(0.00062605 -9.08088e-06 -1.96044e-07)
(-1.07622e-06 0.000711913 -8.60059e-08)
(-1.46378e-07 -1.62299e-07 0.000710729)
(0.000626558 -1.30661e-05 -2.86213e-07)
(-1.06576e-06 0.000711131 -1.44553e-07)
(-1.51329e-07 -2.70866e-07 0.000710751)
(0.000627088 -1.67755e-05 -3.75766e-07)
(-1.11587e-06 0.00071056 -2.08422e-07)
(-1.67343e-07 -3.86421e-07 0.000710945)
(0.000627667 -2.02967e-05 -4.68036e-07)
(-1.22523e-06 0.000710164 -2.82446e-07)
(-1.94608e-07 -5.1676e-07 0.000711317)
(0.000628323 -2.37014e-05 -5.65208e-07)
(-1.39739e-06 0.000709907 -3.71707e-07)
(-2.34302e-07 -6.69976e-07 0.000711872)
(0.000629088 -2.70443e-05 -6.67953e-07)
(-1.64078e-06 0.00070975 -4.81813e-07)
(-2.88682e-07 -8.55045e-07 0.000712619)
(0.000629998 -3.03592e-05 -7.75078e-07)
(-1.96885e-06 0.000709646 -6.18928e-07)
(-3.61342e-07 -1.0824e-06 0.00071356)
(0.000631094 -3.36511e-05 -8.83251e-07)
(-2.39995e-06 0.000709525 -7.89664e-07)
(-4.57719e-07 -1.36444e-06 0.000714692)
(0.000632421 -3.68832e-05 -9.87417e-07)
(-2.95675e-06 0.00070929 -9.99938e-07)
(-5.85874e-07 -1.71597e-06 0.000715999)
(0.000634022 -3.99582e-05 -1.08353e-06)
(-3.66238e-06 0.000708801 -1.2512e-06)
(-7.57297e-07 -2.15377e-06 0.000717445)
(0.000635912 -4.2697e-05 -1.17699e-06)
(-4.52826e-06 0.000707875 -1.52956e-06)
(-9.85978e-07 -2.69385e-06 0.000718969)
(0.000638016 -4.48262e-05 -1.30084e-06)
(-5.51308e-06 0.000706308 -1.77614e-06)
(-1.27786e-06 -3.34134e-06 0.000720502)
(0.00064002 -4.60116e-05 -1.53471e-06)
(-6.38118e-06 0.000703993 -1.82298e-06)
(-1.58146e-06 -4.06308e-06 0.000721979)
(0.000641217 -4.60629e-05 -1.95764e-06)
(-6.18284e-06 0.000701187 -1.39179e-06)
(-1.61561e-06 -4.74087e-06 0.00072331)
(-9.17456e-06 0.000694919 1.7691e-07)
(-2.98511e-06 -4.48803e-06 0.000722448)
(0.000625478 -4.55694e-06 -1.658e-07)
(-1.61053e-06 0.000717181 -4.15077e-08)
(-2.41933e-07 -5.07916e-08 0.00071528)
(0.000625936 -8.77419e-06 -3.21581e-07)
(-1.55057e-06 0.000716119 -1.24153e-07)
(-2.3832e-07 -1.5131e-07 0.000714963)
(0.000626384 -1.26175e-05 -4.69446e-07)
(-1.53147e-06 0.000714957 -2.0838e-07)
(-2.45759e-07 -2.51716e-07 0.000714546)
(0.000626847 -1.61882e-05 -6.16313e-07)
(-1.59727e-06 0.000714106 -2.99878e-07)
(-2.70806e-07 -3.57369e-07 0.000714399)
(0.000627344 -1.95714e-05 -7.67756e-07)
(-1.74487e-06 0.000713514 -4.05382e-07)
(-3.13538e-07 -4.74787e-07 0.000714504)
(0.000627896 -2.28391e-05 -9.27533e-07)
(-1.97751e-06 0.000713132 -5.31903e-07)
(-3.75469e-07 -6.1036e-07 0.000714846)
(0.000628526 -2.60509e-05 -1.09692e-06)
(-2.30468e-06 0.000712908 -6.86934e-07)
(-4.59543e-07 -7.70576e-07 0.000715407)
(0.000629253 -2.92535e-05 -1.27418e-06)
(-2.74131e-06 0.000712779 -8.78473e-07)
(-5.7027e-07 -9.61994e-07 0.000716158)
(0.0006301 -3.2475e-05 -1.45387e-06)
(-3.30695e-06 0.00071266 -1.11473e-06)
(-7.13951e-07 -1.19071e-06 0.000717052)
(0.00063108 -3.57172e-05 -1.62662e-06)
(-4.02273e-06 0.000712424 -1.40217e-06)
(-8.98797e-07 -1.46086e-06 0.000718009)
(0.00063219 -3.89388e-05 -1.7809e-06)
(-4.90185e-06 0.000711888 -1.73991e-06)
(-1.13397e-06 -1.77099e-06 0.000718898)
(0.000633378 -4.20263e-05 -1.91134e-06)
(-5.92547e-06 0.000710798 -2.1046e-06)
(-1.42433e-06 -2.10665e-06 0.000719523)
(0.000634482 -4.4753e-05 -2.03973e-06)
(-6.97969e-06 0.000708851 -2.41218e-06)
(-1.75071e-06 -2.42743e-06 0.000719633)
(0.000635148 -4.67573e-05 -2.24309e-06)
(-7.6918e-06 0.000705835 -2.44307e-06)
(-2.00747e-06 -2.65514e-06 0.000719021)
(0.000634951 -4.76829e-05 -2.63326e-06)
(-6.97461e-06 0.000702079 -1.86195e-06)
(-1.85197e-06 -2.71023e-06 0.000717828)
(-9.93344e-06 0.000696282 2.33083e-07)
(-2.29183e-06 -2.31318e-06 0.000714828)
(0.0006254 -4.32552e-06 -2.26503e-07)
(-2.03302e-06 0.000721503 -5.24141e-08)
(-3.27824e-07 -4.57342e-08 0.00071971)
(0.000625781 -8.32365e-06 -4.39244e-07)
(-1.95401e-06 0.000720108 -1.56619e-07)
(-3.22325e-07 -1.35938e-07 0.000718975)
(0.00062615 -1.19588e-05 -6.41054e-07)
(-1.92327e-06 0.000718576 -2.62413e-07)
(-3.3118e-07 -2.25113e-07 0.000718103)
(0.000626523 -1.53254e-05 -8.41465e-07)
(-1.99558e-06 0.000717451 -3.76716e-07)
(-3.63089e-07 -3.1738e-07 0.000717594)
(0.000626913 -1.85037e-05 -1.0483e-06)
(-2.16507e-06 0.000716663 -5.07727e-07)
(-4.17758e-07 -4.17681e-07 0.000717405)
(0.000627333 -2.15639e-05 -1.26712e-06)
(-2.43314e-06 0.000716155 -6.63725e-07)
(-4.96544e-07 -5.30405e-07 0.000717501)
(0.000627791 -2.45698e-05 -1.49985e-06)
(-2.8075e-06 0.000715867 -8.53232e-07)
(-6.02246e-07 -6.59313e-07 0.00071784)
(0.000628293 -2.75812e-05 -1.74443e-06)
(-3.301e-06 0.000715733 -1.08506e-06)
(-7.38889e-07 -8.07083e-07 0.00071837)
(0.000628839 -3.06532e-05 -1.99399e-06)
(-3.92942e-06 0.000715662 -1.36772e-06)
(-9.11262e-07 -9.74128e-07 0.000719012)
(0.00062942 -3.38345e-05 -2.23523e-06)
(-4.7071e-06 0.000715523 -1.70714e-06)
(-1.12388e-06 -1.15629e-06 0.000719641)
(0.000630004 -3.71622e-05 -2.44686e-06)
(-5.63442e-06 0.000715124 -2.0998e-06)
(-1.37765e-06 -1.34076e-06 0.000720066)
(0.000630521 -4.06346e-05 -2.60308e-06)
(-6.66729e-06 0.000714179 -2.51524e-06)
(-1.66075e-06 -1.49972e-06 0.000720005)
(0.000630833 -4.41479e-05 -2.6908e-06)
(-7.64987e-06 0.000712301 -2.85402e-06)
(-1.92561e-06 -1.58469e-06 0.000719091)
(0.000630729 -4.73921e-05 -2.74464e-06)
(-8.1637e-06 0.000709113 -2.8683e-06)
(-2.03703e-06 -1.53682e-06 0.000717025)
(0.000630112 -4.97678e-05 -2.89616e-06)
(-7.15896e-06 0.000704691 -2.192e-06)
(-1.69528e-06 -1.35547e-06 0.000714061)
(-9.58903e-06 0.000699641 1.45847e-07)
(-1.73648e-06 -9.02168e-07 0.000710141)
(0.000625307 -4.02737e-06 -2.81719e-07)
(-2.36777e-06 0.000725528 -6.10072e-08)
(-4.03868e-07 -3.96005e-08 0.000723863)
(0.000625597 -7.7437e-06 -5.46169e-07)
(-2.27121e-06 0.000723817 -1.82096e-07)
(-3.96163e-07 -1.1736e-07 0.000722705)
(0.000625872 -1.11112e-05 -7.96763e-07)
(-2.22632e-06 0.00072193 -3.04493e-07)
(-4.05186e-07 -1.9317e-07 0.000721375)
(0.000626141 -1.42143e-05 -1.04544e-06)
(-2.29571e-06 0.000720535 -4.35957e-07)
(-4.41411e-07 -2.69808e-07 0.000720489)
(0.00062641 -1.71252e-05 -1.30226e-06)
(-2.47009e-06 0.00071955 -5.85588e-07)
(-5.03941e-07 -3.50564e-07 0.000719987)
(0.000626681 -1.9909e-05 -1.57455e-06)
(-2.74748e-06 0.000718908 -7.62255e-07)
(-5.93546e-07 -4.37864e-07 0.000719812)
(0.000626953 -2.26293e-05 -1.86482e-06)
(-3.13173e-06 0.00071855 -9.7465e-07)
(-7.12242e-07 -5.33058e-07 0.000719907)
(0.000627216 -2.53518e-05 -2.17148e-06)
(-3.63048e-06 0.000718411 -1.23137e-06)
(-8.62596e-07 -6.35799e-07 0.000720204)
(0.000627454 -2.81498e-05 -2.48764e-06)
(-4.25247e-06 0.000718409 -1.54045e-06)
(-1.04653e-06 -7.42767e-07 0.000720607)
(0.000627639 -3.11136e-05 -2.79798e-06)
(-5.0046e-06 0.000718431 -1.90687e-06)
(-1.26347e-06 -8.458e-07 0.000720976)
(0.000627732 -3.43575e-05 -3.07245e-06)
(-5.87957e-06 0.000718313 -2.3253e-06)
(-1.50545e-06 -9.29393e-07 0.000721106)
(0.000627677 -3.80065e-05 -3.26264e-06)
(-6.82696e-06 0.000717789 -2.76248e-06)
(-1.74652e-06 -9.68119e-07 0.000720693)
(0.000627405 -4.21248e-05 -3.30934e-06)
(-7.69233e-06 0.000716429 -3.11486e-06)
(-1.92266e-06 -9.28161e-07 0.000719318)
(0.000626852 -4.65027e-05 -3.17616e-06)
(-8.07158e-06 0.000713612 -3.12613e-06)
(-1.89912e-06 -7.84769e-07 0.000716532)
(0.000626064 -5.0224e-05 -2.99104e-06)
(-6.96224e-06 0.000708726 -2.41451e-06)
(-1.45348e-06 -5.74966e-07 0.000712253)
(-8.77042e-06 0.000704571 -3.08749e-09)