/*--------------------------------*- C++ -*----------------------------------*\
| =========                 |                                                 |
| \\      /  F ield         | foam-extend: Open Source CFD                    |
|  \\    /   O peration     | Version:     3.1                                |
|   \\  /    A nd           | Web:         http://www.extend-project.de       |
|    \\/     M anipulation  |                                                 |
\*---------------------------------------------------------------------------*/
FoamFile
{
    version     2.0;
    format      ascii;
    class       volVectorField;
    location    "0.6";
    object      U;
}
// * * * * * * * * * * * * * * * * * * * * * * * * * * * * * * * * * * * * * //

dimensions      [0 1 -1 0 0 0 0];

internalField   nonuniform List<vector> 
14592
(
(0.0180352 -0.00564831 -0.00920143)
(0.0234419 -0.00437909 -0.012219)
(0.0289023 -0.00252833 -0.0116221)
(0.0322673 -0.00139335 -0.0102681)
(0.0340395 -0.000744732 -0.00893597)
(0.0349264 -0.000368354 -0.00784623)
(0.0352873 -0.000135552 -0.00706588)
(0.0353057 2.28787e-05 -0.00662422)
(0.0350684 0.0001504 -0.00655026)
(0.0346044 0.000265561 -0.00689804)
(0.033904 0.000381777 -0.00776547)
(0.0329095 0.000507966 -0.00933305)
(0.0314821 0.000648559 -0.0119358)
(0.0291532 0.000829311 -0.0161783)
(0.024709 0.00117353 -0.0227904)
(0.0178941 0.00173682 -0.0268917)
(0.0375698 -0.0101995 -0.0124395)
(0.0423203 -0.0103939 -0.0185366)
(0.047652 -0.007038 -0.0181866)
(0.0514475 -0.00427754 -0.016179)
(0.0536365 -0.00244543 -0.0140534)
(0.0547664 -0.00128686 -0.0122671)
(0.0552081 -0.000538083 -0.0109523)
(0.0551791 -1.76589e-05 -0.0101568)
(0.0547836 0.000393809 -0.00991821)
(0.0540488 0.000764725 -0.0103121)
(0.0529483 0.00114939 -0.0114748)
(0.051376 0.00159456 -0.0136606)
(0.0490936 0.00215186 -0.0173398)
(0.0453923 0.00291404 -0.0233295)
(0.0384806 0.00404872 -0.0323664)
(0.0274397 0.00511339 -0.0358303)
(0.0536779 -0.0130648 -0.0129312)
(0.0549796 -0.0152643 -0.0204154)
(0.0570756 -0.0111713 -0.0202781)
(0.0589472 -0.00711833 -0.0180017)
(0.0601202 -0.00418338 -0.0155322)
(0.0606843 -0.00222316 -0.0134537)
(0.0607955 -0.000907637 -0.0119181)
(0.0605663 3.854e-05 -0.0109649)
(0.0600393 0.000791424 -0.0106239)
(0.0592079 0.00148817 -0.0109623)
(0.058028 0.00222864 -0.0121141)
(0.0563769 0.00310539 -0.0143356)
(0.0540052 0.00422683 -0.0181014)
(0.0502052 0.00574785 -0.0242203)
(0.0431933 0.00779959 -0.0333104)
(0.031957 0.00916884 -0.036206)
(0.0679001 -0.0130287 -0.0131954)
(0.0660962 -0.0166937 -0.0215449)
(0.0647163 -0.0128612 -0.021475)
(0.064108 -0.00843709 -0.0189281)
(0.0637879 -0.00501822 -0.0161629)
(0.0634622 -0.00263322 -0.0138538)
(0.0630568 -0.000975164 -0.0121522)
(0.0625343 0.000259895 -0.0110734)
(0.0618619 0.00127267 -0.0106354)
(0.0609975 0.00224052 -0.0108787)
(0.0598656 0.00329463 -0.0119206)
(0.0583411 0.00456082 -0.0139959)
(0.0561935 0.0061844 -0.0175435)
(0.0527782 0.00834502 -0.0233042)
(0.0464661 0.0110887 -0.0317794)
(0.0364134 0.0124861 -0.0343531)
(0.0797614 -0.0111587 -0.0134979)
(0.0757131 -0.0152356 -0.0225414)
(0.0714893 -0.0121434 -0.0224867)
(0.0686097 -0.00808708 -0.0196617)
(0.0668197 -0.00478723 -0.0166035)
(0.0655819 -0.00239718 -0.0140681)
(0.0646376 -0.000674082 -0.0122025)
(0.0638226 0.000659247 -0.0109981)
(0.063028 0.00181131 -0.0104394)
(0.0621756 0.0029541 -0.0105496)
(0.0611676 0.00423414 -0.0114191)
(0.0598814 0.00579639 -0.013247)
(0.0581088 0.00780593 -0.0164188)
(0.0552681 0.0104461 -0.0215856)
(0.0498733 0.0136715 -0.0291567)
(0.0412795 0.0149746 -0.0314817)
(0.0888663 -0.00831521 -0.0137897)
(0.0833202 -0.011819 -0.0233881)
(0.0770383 -0.00958471 -0.0233333)
(0.0723827 -0.00636546 -0.0202609)
(0.0693886 -0.00363763 -0.0169399)
(0.0673886 -0.00158784 -0.0141965)
(0.0659959 -3.21922e-05 -0.0121722)
(0.0649544 0.00121869 -0.0108359)
(0.0640942 0.00237494 -0.0101439)
(0.0633079 0.00358475 -0.0100933)
(0.0624898 0.00499007 -0.0107428)
(0.0615254 0.00674302 -0.0122477)
(0.0602319 0.00902412 -0.0149256)
(0.0580829 0.0120312 -0.0193248)
(0.0536883 0.0156797 -0.0257894)
(0.0465532 0.0170087 -0.0278707)
(0.0950096 -0.00494645 -0.0140148)
(0.0885504 -0.00714609 -0.0239958)
(0.0809564 -0.00575101 -0.0239281)
(0.0751178 -0.00365329 -0.0206647)
(0.0713058 -0.0018088 -0.0171406)
(0.068801 -0.000347139 -0.0142313)
(0.0671115 0.000826889 -0.0120721)
(0.0659371 0.00186056 -0.0106113)
(0.0650957 0.00290534 -0.00978212)
(0.0644406 0.00407779 -0.00955405)
(0.0638736 0.00550255 -0.00995098)
(0.0633038 0.00733027 -0.0110758)
(0.0625899 0.00976316 -0.0131616)
(0.0612788 0.013063 -0.0166296)
(0.0580514 0.0172778 -0.0217676)
(0.0523799 0.0192813 -0.0235181)
(0.0980928 -0.0013077 -0.0141389)
(0.0911985 -0.00177958 -0.0242997)
(0.0829811 -0.00119181 -0.0242008)
(0.0765845 -0.00037534 -0.0208172)
(0.0724038 0.000394696 -0.0171688)
(0.0696704 0.00109625 -0.0141511)
(0.0678804 0.00176328 -0.0118969)
(0.0667243 0.00249027 -0.0103334)
(0.0659806 0.0033377 -0.00937496)
(0.0655129 0.00438198 -0.00896708)
(0.0652433 0.00571917 -0.009098)
(0.065125 0.00748484 -0.00981095)
(0.0651044 0.00989618 -0.0112323)
(0.0649167 0.0133256 -0.0136039)
(0.0635635 0.0183033 -0.0170815)
(0.0602019 0.0228589 -0.0180893)
(0.0191338 -0.00606104 -0.00847825)
(0.0247026 -0.00472432 -0.0113398)
(0.030239 -0.00273398 -0.0108613)
(0.0335221 -0.00150658 -0.00965935)
(0.0351002 -0.000803495 -0.00845764)
(0.035738 -0.000395353 -0.00746737)
(0.0358209 -0.000142545 -0.00675686)
(0.0355375 3.04823e-05 -0.00635777)
(0.0349625 0.000173061 -0.00629869)
(0.0340975 0.000304858 -0.00662732)
(0.032885 0.000443015 -0.00742132)
(0.0311864 0.000601842 -0.0088072)
(0.028731 0.000797568 -0.0109761)
(0.0248494 0.00108519 -0.0141353)
(0.0183512 0.00157472 -0.017922)
(0.0110615 0.00189168 -0.0172617)
(0.0400077 -0.0108697 -0.0113408)
(0.0447417 -0.0111885 -0.0171111)
(0.0499613 -0.00761049 -0.0169365)
(0.0535226 -0.00463202 -0.0151773)
(0.0553736 -0.00264541 -0.0132675)
(0.0561058 -0.00138617 -0.0116466)
(0.0561157 -0.000570121 -0.0104489)
(0.0556254 1.4535e-06 -0.00972691)
(0.0547199 0.000459576 -0.00951874)
(0.0533859 0.000883454 -0.00989183)
(0.0515291 0.00133823 -0.0109539)
(0.0489284 0.00188611 -0.0128816)
(0.0451666 0.00260446 -0.0159353)
(0.0392771 0.00362739 -0.0203504)
(0.029584 0.00508556 -0.0253243)
(0.0184833 0.00600541 -0.0228954)
(0.0573117 -0.0138545 -0.0116695)
(0.0583372 -0.0163977 -0.0187452)
(0.060036 -0.0120713 -0.018826)
(0.0614643 -0.00770877 -0.0168534)
(0.0621665 -0.00452802 -0.0146422)
(0.0622432 -0.00239602 -0.0127582)
(0.0618581 -0.000959813 -0.0113588)
(0.0611163 8.22773e-05 -0.0104906)
(0.0600364 0.000922328 -0.0101884)
(0.0585679 0.00172024 -0.0105093)
(0.0565943 0.00259561 -0.0115581)
(0.0538755 0.00366822 -0.0135095)
(0.0499846 0.00508646 -0.0166172)
(0.0439654 0.00704938 -0.0210834)
(0.0341751 0.00961213 -0.0259661)
(0.0230476 0.0108661 -0.0229722)
(0.0726086 -0.0137663 -0.0118078)
(0.0703392 -0.0179007 -0.0196883)
(0.0683005 -0.0138865 -0.0198818)
(0.0670248 -0.00913516 -0.0176903)
(0.0660893 -0.00543209 -0.0152193)
(0.0651887 -0.00283702 -0.0131268)
(0.0642365 -0.00102476 -0.0115751)
(0.0631737 0.000336223 -0.0105916)
(0.0619381 0.00147225 -0.0101969)
(0.0604443 0.00258482 -0.0104276)
(0.0585426 0.00383311 -0.0113731)
(0.0559972 0.00538052 -0.0131895)
(0.0524112 0.00742453 -0.0161042)
(0.0469142 0.0101943 -0.0202827)
(0.0380154 0.0136315 -0.0247765)
(0.0280079 0.0149403 -0.0217451)
(0.0853652 -0.0117615 -0.0120014)
(0.0807341 -0.0163167 -0.0205195)
(0.0756525 -0.0131051 -0.0207694)
(0.0719075 -0.00875607 -0.0183486)
(0.0693658 -0.00518266 -0.0156184)
(0.0674702 -0.00258018 -0.01332)
(0.0659331 -0.000692869 -0.0116165)
(0.0645611 0.00078003 -0.0105149)
(0.0632093 0.00207804 -0.010007)
(0.0617525 0.00339746 -0.0101128)
(0.0600259 0.00491805 -0.0108987)
(0.0578047 0.00683037 -0.0124932)
(0.0547293 0.00936227 -0.0150896)
(0.0500162 0.012755 -0.0188194)
(0.0422907 0.0168391 -0.022791)
(0.0336057 0.0180578 -0.0199068)
(0.0951545 -0.00875153 -0.0122054)
(0.0889564 -0.0126495 -0.0212287)
(0.0816801 -0.0103438 -0.0215118)
(0.0760063 -0.00689511 -0.0188848)
(0.0721503 -0.00394016 -0.0159211)
(0.0694261 -0.00170527 -0.0134325)
(0.0674065 2.18184e-06 -0.0115811)
(0.0657996 0.00139351 -0.0103559)
(0.0643977 0.00270319 -0.00972235)
(0.0630468 0.00410764 -0.00967732)
(0.0615807 0.00578461 -0.0102607)
(0.0597961 0.00793783 -0.0115678)
(0.057377 0.0108219 -0.0137507)
(0.0536188 0.0147087 -0.0169076)
(0.0471892 0.0193894 -0.0202452)
(0.0397909 0.0206784 -0.017591)
(0.101758 -0.00520464 -0.0123689)
(0.0946079 -0.00765123 -0.0217388)
(0.0859353 -0.00621357 -0.0220323)
(0.0789776 -0.00396509 -0.0192445)
(0.0742293 -0.00196395 -0.0160991)
(0.0709569 -0.000365661 -0.0134581)
(0.0686234 0.000929424 -0.0114819)
(0.0668882 0.00208836 -0.0101381)
(0.0655301 0.00328211 -0.00937444)
(0.0643615 0.00465343 -0.00916298)
(0.0632334 0.0063634 -0.00951434)
(0.0619836 0.00861916 -0.0104847)
(0.060365 0.0117111 -0.0121744)
(0.0577783 0.0160089 -0.0146391)
(0.0528974 0.0214917 -0.0172108)
(0.0467929 0.0236866 -0.0147923)
(0.105072 -0.00138142 -0.0124607)
(0.0974679 -0.00191854 -0.0219931)
(0.0881319 -0.0013047 -0.0222688)
(0.0805689 -0.000424661 -0.0193773)
(0.0754194 0.000416388 -0.0161192)
(0.0719028 0.0011912 -0.0133779)
(0.0694689 0.00193846 -0.0113109)
(0.067769 0.00276428 -0.00986955)
(0.0665438 0.00374476 -0.00898322)
(0.0656221 0.00497759 -0.00860308)
(0.0648892 0.00659256 -0.00871032)
(0.0642526 0.00878209 -0.00931683)
(0.0635975 0.0118624 -0.0104576)
(0.0625846 0.0163626 -0.0121206)
(0.0602259 0.0229006 -0.0137652)
(0.05643 0.0283122 -0.0115102)
(0.0200771 -0.00641586 -0.00753364)
(0.0257941 -0.00502642 -0.0101342)
(0.0314092 -0.00291667 -0.00976117)
(0.0346313 -0.00160834 -0.0087276)
(0.0360448 -0.000856825 -0.00767972)
(0.0364639 -0.000420123 -0.00681036)
(0.0362988 -0.000149165 -0.00618401)
(0.0357447 3.70657e-05 -0.00583046)
(0.0348695 0.000193884 -0.00577339)
(0.0336584 0.000341382 -0.00604768)
(0.0320311 0.000500346 -0.00670228)
(0.0298226 0.000689975 -0.0078032)
(0.0267497 0.000935203 -0.00941923)
(0.0222243 0.0013001 -0.0115358)
(0.0155012 0.00185981 -0.0135436)
(0.00887682 0.0021444 -0.0116471)
(0.042103 -0.0114401 -0.00998773)
(0.0468373 -0.0118805 -0.0152231)
(0.0519802 -0.00811637 -0.0151758)
(0.0553541 -0.00494837 -0.0136806)
(0.0569183 -0.00282502 -0.0120213)
(0.0573028 -0.00147559 -0.0106002)
(0.0569286 -0.000598534 -0.00954469)
(0.0560255 2.0162e-05 -0.008905)
(0.0546667 0.000520791 -0.00871306)
(0.0528146 0.000992991 -0.00901899)
(0.0503429 0.00151065 -0.00989017)
(0.0469936 0.00214698 -0.0114172)
(0.0423377 0.00299372 -0.0136874)
(0.0355376 0.00419062 -0.0166327)
(0.0255943 0.00579111 -0.0191855)
(0.0156204 0.00660808 -0.0154828)
(0.0604378 -0.0145215 -0.0101901)
(0.0612452 -0.017381 -0.0166022)
(0.0626247 -0.0128643 -0.0168251)
(0.0636854 -0.0082341 -0.0151659)
(0.0639854 -0.00483637 -0.0132506)
(0.0636363 -0.00255061 -0.0116005)
(0.0628107 -0.00100521 -0.0103672)
(0.0616102 0.000124371 -0.00959681)
(0.0600385 0.00104412 -0.00932123)
(0.0580199 0.00193346 -0.00957886)
(0.0554015 0.00292719 -0.0104338)
(0.0519076 0.00416255 -0.0119721)
(0.0471034 0.00580549 -0.0142704)
(0.0401733 0.00805002 -0.0172268)
(0.0301738 0.010826 -0.0196628)
(0.0202641 0.0118453 -0.0154858)
(0.0766605 -0.0143857 -0.0102384)
(0.0740167 -0.0189447 -0.0173679)
(0.0714372 -0.0147878 -0.0177272)
(0.0696 -0.00975497 -0.015896)
(0.0681357 -0.00580129 -0.0137595)
(0.0667319 -0.00301815 -0.0119276)
(0.0652943 -0.0010663 -0.0105597)
(0.0637486 0.000409301 -0.00968755)
(0.0620128 0.00165805 -0.00932813)
(0.0599748 0.00290088 -0.00950501)
(0.0574476 0.00431822 -0.0102692)
(0.0541619 0.0060969 -0.0116926)
(0.0497156 0.00845556 -0.013835)
(0.0433752 0.0116122 -0.0165768)
(0.0343006 0.0153456 -0.0187607)
(0.0254429 0.0163233 -0.014625)
(0.0901876 -0.0122656 -0.0103504)
(0.0850873 -0.0172493 -0.0180422)
(0.0792985 -0.013949 -0.0184818)
(0.0748211 -0.00934884 -0.0164669)
(0.0716313 -0.00553419 -0.0141085)
(0.0691594 -0.00274119 -0.0120959)
(0.0670962 -0.000704814 -0.010593)
(0.0652264 0.000895749 -0.00961475)
(0.063379 0.00232667 -0.00915461)
(0.0613987 0.00380461 -0.0092215)
(0.0590866 0.00553417 -0.00984839)
(0.0561866 0.00773416 -0.0110886)
(0.0523348 0.0106584 -0.0129832)
(0.0468715 0.0145372 -0.0154057)
(0.038993 0.0190125 -0.0172783)
(0.0313234 0.0198422 -0.0133741)
(0.100565 -0.00911494 -0.0104862)
(0.0938435 -0.0133642 -0.0186201)
(0.0857471 -0.0110083 -0.0191125)
(0.0792099 -0.00736294 -0.0169308)
(0.0746091 -0.0042074 -0.0143715)
(0.0712502 -0.00180604 -0.0121914)
(0.0686743 3.94088e-05 -0.0105566)
(0.066562 0.00155932 -0.00946777)
(0.0646778 0.00300908 -0.00889566)
(0.0628361 0.00458822 -0.00883023)
(0.0608397 0.00650117 -0.00928449)
(0.0584576 0.00898397 -0.01029)
(0.0553701 0.012324 -0.0118675)
(0.0509775 0.0167906 -0.0138891)
(0.0444155 0.021978 -0.015394)
(0.0378568 0.0228745 -0.0118091)
(0.107565 -0.00541857 -0.0106007)
(0.0998607 -0.00808399 -0.0190365)
(0.0902992 -0.00661647 -0.0195539)
(0.0823918 -0.00423829 -0.0172406)
(0.0768338 -0.00209826 -0.0145243)
(0.0728884 -0.000376758 -0.0122092)
(0.0699839 0.00102914 -0.0104631)
(0.0677477 0.00230334 -0.00926777)
(0.0659287 0.0036333 -0.00857962)
(0.0643116 0.00518315 -0.00836863)
(0.0627207 0.007141 -0.00862615)
(0.0609726 0.00974962 -0.00935874)
(0.0588202 0.0133416 -0.0105619)
(0.0557505 0.0183042 -0.0121063)
(0.0507887 0.0244444 -0.0131753)
(0.0453247 0.0263493 -0.00993904)
(0.111077 -0.00144056 -0.0106664)
(0.102905 -0.0020345 -0.0192434)
(0.0926474 -0.00139949 -0.0197527)
(0.0840945 -0.000463668 -0.0173525)
(0.0781072 0.000441343 -0.0145376)
(0.0739044 0.0012831 -0.0121336)
(0.0709002 0.00210477 -0.0103052)
(0.0687146 0.00302204 -0.0090218)
(0.0670591 0.0041244 -0.00822434)
(0.0657385 0.00552669 -0.00786618)
(0.0646189 0.00738332 -0.00791744)
(0.0635976 0.00992256 -0.0083571)
(0.0625719 0.0135101 -0.00914887)
(0.0612856 0.0187215 -0.0101543)
(0.0590107 0.0260771 -0.0107261)
(0.0557016 0.0314694 -0.00786509)
(0.0208637 -0.00671203 -0.0064062)
(0.02671 -0.00528218 -0.00865627)
(0.0323995 -0.00307321 -0.00837483)
(0.0355775 -0.00169633 -0.00751996)
(0.0368554 -0.000903291 -0.00664297)
(0.0370899 -0.000441887 -0.00591086)
(0.0367135 -0.000155134 -0.00538032)
(0.0359292 4.25492e-05 -0.00507675)
(0.0348029 0.000212002 -0.00501774)
(0.0333129 0.00037322 -0.00522502)
(0.0313733 0.00054991 -0.00572364)
(0.0288208 0.000764475 -0.00653777)
(0.0254003 0.00104619 -0.00767049)
(0.0206355 0.00145947 -0.00903225)
(0.0140802 0.00205651 -0.010091)
(0.00799953 0.00234503 -0.00823729)
(0.0438523 -0.0119117 -0.0084312)
(0.0485958 -0.0124638 -0.0129549)
(0.053687 -0.00854782 -0.0129886)
(0.0569142 -0.00522029 -0.0117645)
(0.0582422 -0.00298018 -0.0103801)
(0.0583341 -0.00155299 -0.00918489)
(0.0576333 -0.000622906 -0.00829151)
(0.0563791 3.71848e-05 -0.00774358)
(0.0546407 0.000574474 -0.00756575)
(0.0523697 0.00108796 -0.00778916)
(0.049432 0.0016578 -0.00844777)
(0.0455733 0.00236386 -0.0095732)
(0.0404086 0.00330395 -0.0111609)
(0.0332692 0.00461201 -0.0130479)
(0.0236024 0.00628615 -0.0143327)
(0.0144957 0.00702951 -0.0109813)
(0.0630497 -0.0150694 -0.00854235)
(0.063687 -0.0182069 -0.0140767)
(0.0648142 -0.0135387 -0.0143692)
(0.0655773 -0.00868448 -0.0130235)
(0.0655441 -0.0051019 -0.0114299)
(0.0648363 -0.00268374 -0.0100435)
(0.0636366 -0.00104369 -0.0090001)
(0.0620457 0.000161877 -0.00834066)
(0.0600613 0.00115073 -0.00809118)
(0.0575978 0.00211771 -0.00827165)
(0.0544907 0.00320848 -0.00891253)
(0.0504697 0.00457035 -0.0100402)
(0.0451482 0.00637507 -0.0116393)
(0.0378875 0.00880054 -0.0135181)
(0.0282001 0.0116846 -0.0146917)
(0.0192089 0.0125077 -0.0109672)
(0.0800468 -0.0148918 -0.00853354)
(0.0771067 -0.019819 -0.0146777)
(0.0740923 -0.0155529 -0.0151107)
(0.0717947 -0.0102854 -0.0136345)
(0.0698898 -0.00611844 -0.0118596)
(0.0680614 -0.00317336 -0.010321)
(0.0662107 -0.00110045 -0.00916419)
(0.0642543 0.000474472 -0.00841984)
(0.062099 0.00182082 -0.00809758)
(0.0596197 0.00317385 -0.0082095)
(0.0566179 0.00472909 -0.00877525)
(0.0528292 0.00668664 -0.00981085)
(0.0478992 0.00927107 -0.0112904)
(0.0412621 0.0126766 -0.0130136)
(0.0324974 0.0165582 -0.0140169)
(0.0245087 0.01724 -0.0103341)
(0.0942178 -0.0126758 -0.00858892)
(0.0887463 -0.0180285 -0.0152068)
(0.0823867 -0.0146641 -0.0157282)
(0.0773058 -0.00985516 -0.0141097)
(0.0735741 -0.00583526 -0.012152)
(0.0706152 -0.00287802 -0.0104617)
(0.0681043 -0.000712069 -0.00919027)
(0.0658105 0.000999668 -0.00835489)
(0.0635463 0.00254495 -0.0079481)
(0.0611404 0.0041565 -0.00796871)
(0.0583826 0.00605609 -0.00842333)
(0.0550213 0.00847834 -0.00931592)
(0.0507356 0.0116846 -0.0106113)
(0.0450165 0.015878 -0.0121118)
(0.0374241 0.0205542 -0.0129208)
(0.0305301 0.0210237 -0.00943433)
(0.105087 -0.00940959 -0.00867425)
(0.0979516 -0.0139598 -0.0156622)
(0.0891934 -0.0115701 -0.016244)
(0.0819435 -0.00776144 -0.014495)
(0.076719 -0.00443506 -0.0123714)
(0.0728233 -0.00188989 -0.0105399)
(0.0697733 7.55306e-05 -0.00915624)
(0.0672301 0.00170732 -0.00822676)
(0.0649391 0.00327773 -0.00772581)
(0.0626966 0.00500398 -0.00763712)
(0.0602944 0.00710873 -0.00795325)
(0.0575051 0.00984614 -0.00866488)
(0.0540468 0.0135146 -0.00972801)
(0.0494471 0.0183595 -0.0109544)
(0.0431381 0.0238185 -0.0115423)
(0.037235 0.024336 -0.00832556)
(0.112417 -0.00559116 -0.0087513)
(0.104276 -0.00844327 -0.015991)
(0.0939979 -0.0069556 -0.0166044)
(0.0853064 -0.00446936 -0.0147513)
(0.0790697 -0.00221066 -0.0124974)
(0.0745548 -0.000382549 -0.0105518)
(0.0711636 0.00112006 -0.00907345)
(0.0684997 0.0024948 -0.00805338)
(0.0662909 0.00394207 -0.00745486)
(0.0643052 0.00564211 -0.00724647)
(0.0623571 0.0078012 -0.00740575)
(0.0602675 0.0106822 -0.0079087)
(0.0578224 0.0146342 -0.00870098)
(0.0546124 0.0200321 -0.00960664)
(0.0498837 0.0265371 -0.00994025)
(0.0449393 0.0281174 -0.0070251)
(0.116094 -0.00148678 -0.00879676)
(0.107475 -0.00212842 -0.0161537)
(0.0964754 -0.00147661 -0.0167653)
(0.0871051 -0.000493513 -0.014842)
(0.0804154 0.000466816 -0.0125056)
(0.0756321 0.00136706 -0.0104846)
(0.072142 0.0022542 -0.00893563)
(0.0695412 0.00325139 -0.0078405)
(0.0675204 0.00445868 -0.00715031)
(0.0658692 0.00600346 -0.00682132)
(0.0644473 0.00805629 -0.00681698)
(0.063159 0.0108654 -0.00709764)
(0.0619348 0.0148175 -0.00759601)
(0.0606067 0.0204931 -0.00814781)
(0.0586086 0.0283109 -0.00820881)
(0.0557083 0.0335424 -0.00563712)
(0.0214933 -0.00694926 -0.00513236)
(0.0274463 -0.00548942 -0.00695836)
(0.0332006 -0.00320121 -0.0067555)
(0.0363476 -0.00176874 -0.00608588)
(0.0375187 -0.000941725 -0.00539211)
(0.0376049 -0.00045997 -0.00480976)
(0.0370577 -0.000160066 -0.00438507)
(0.0360883 4.76323e-05 -0.00413786)
(0.0347637 0.000227014 -0.00408014)
(0.0330618 0.000399293 -0.00422342)
(0.0308991 0.000589942 -0.00457712)
(0.0281246 0.000823163 -0.00514283)
(0.0245169 0.00113018 -0.00589735)
(0.0196839 0.00157413 -0.00674392)
(0.0133331 0.00219483 -0.00728963)
(0.00760515 0.00248648 -0.00579145)
(0.0452537 -0.0122864 -0.0067162)
(0.0500097 -0.0129343 -0.0103839)
(0.055067 -0.00889907 -0.0104571)
(0.0581828 -0.00544298 -0.00950629)
(0.0593245 -0.00310773 -0.00841383)
(0.0591815 -0.00161671 -0.00746422)
(0.0582172 -0.000642882 -0.00674983)
(0.0566804 5.1702e-05 -0.00630521)
(0.0546414 0.000618715 -0.0061484)
(0.0520507 0.00116531 -0.00629526)
(0.048778 0.00177576 -0.00675809)
(0.0445876 0.00253358 -0.00753682)
(0.0391454 0.00353867 -0.00859131)
(0.0319095 0.00491811 -0.00975763)
(0.0225561 0.00663628 -0.0103743)
(0.0140053 0.00732486 -0.00773862)
(0.0651433 -0.0155019 -0.00676727)
(0.0656517 -0.018871 -0.0112502)
(0.066585 -0.0140865 -0.0115488)
(0.0671157 -0.00905247 -0.0105118)
(0.0668179 -0.0053196 -0.00925719)
(0.065822 -0.00279297 -0.0081568)
(0.0643204 -0.00107518 -0.00732309)
(0.0624149 0.000191844 -0.00678926)
(0.0601035 0.00123807 -0.00657425)
(0.0573 0.00226735 -0.00668521)
(0.0538411 0.00343319 -0.00713111)
(0.0494765 0.00488854 -0.00790692)
(0.0438743 0.00680593 -0.00896317)
(0.036527 0.0093484 -0.0101141)
(0.0271786 0.0122948 -0.0106381)
(0.0187728 0.0129753 -0.00772416)
(0.0827617 -0.0152895 -0.00672951)
(0.0795941 -0.0205203 -0.0117005)
(0.0762413 -0.0161732 -0.0121263)
(0.0735803 -0.0107181 -0.0109945)
(0.0713236 -0.006378 -0.00959926)
(0.0691532 -0.00330022 -0.00837867)
(0.0669679 -0.00112774 -0.00745482)
(0.0646813 0.000528281 -0.00685429)
(0.062194 0.00195458 -0.00658017)
(0.0593761 0.00339556 -0.00663664)
(0.0560318 0.00505708 -0.00702421)
(0.0519156 0.00714645 -0.00773051)
(0.0467253 0.00988792 -0.00869964)
(0.0400189 0.013454 -0.00974158)
(0.0315853 0.0174183 -0.0101508)
(0.0241505 0.0178812 -0.00726591)
(0.0974488 -0.012997 -0.00674959)
(0.0916924 -0.0186523 -0.0120968)
(0.0848877 -0.015243 -0.0126056)
(0.0793286 -0.0102677 -0.0113685)
(0.0751628 -0.00608109 -0.00983071)
(0.071811 -0.00298914 -0.0084898)
(0.0689374 -0.000716333 -0.00747442)
(0.0663016 0.00108743 -0.00680059)
(0.0637063 0.002725 -0.00646)
(0.060973 0.00444257 -0.00644542)
(0.0578927 0.00647286 -0.00674844)
(0.0542308 0.00905864 -0.00734924)
(0.0497137 0.0124609 -0.00818761)
(0.0439424 0.0168575 -0.00907853)
(0.0366555 0.0216451 -0.00936456)
(0.0302574 0.0218426 -0.00662264)
(0.108712 -0.00963964 -0.00679966)
(0.101259 -0.0144356 -0.0124394)
(0.0919854 -0.0120242 -0.0130058)
(0.0841698 -0.00808534 -0.0116712)
(0.0784449 -0.00462012 -0.0100036)
(0.0741157 -0.00195684 -0.00855055)
(0.0706815 0.000107491 -0.00744547)
(0.0677898 0.00183131 -0.00669649)
(0.0651745 0.00349945 -0.00628173)
(0.0626223 0.00534229 -0.00618255)
(0.0599249 0.00759423 -0.0063811)
(0.0568694 0.0105187 -0.00684986)
(0.0532154 0.0144155 -0.00752552)
(0.0485829 0.0195053 -0.0082339)
(0.0425455 0.0251176 -0.00838495)
(0.0370636 0.0253418 -0.00584097)
(0.116306 -0.00572534 -0.00684908)
(0.107832 -0.00872927 -0.012687)
(0.096995 -0.00722859 -0.013285)
(0.0876809 -0.00465606 -0.011872)
(0.0808993 -0.00230072 -0.0101021)
(0.0759242 -0.000384981 -0.00855805)
(0.0721381 0.00119752 -0.00737729)
(0.069128 0.00265494 -0.00655616)
(0.066607 0.00419721 -0.00606468)
(0.0643346 0.00601611 -0.00587325)
(0.0621245 0.00832939 -0.00595424)
(0.0598103 0.0114103 -0.00627197)
(0.0572136 0.0156121 -0.00676002)
(0.0539992 0.0212916 -0.00725829)
(0.0495149 0.0280073 -0.00725919)
(0.0449076 0.0293254 -0.00493998)
(0.120116 -0.00152168 -0.00687916)
(0.111155 -0.00220155 -0.0128091)
(0.0995777 -0.00153685 -0.0134088)
(0.0895586 -0.000515501 -0.0119418)
(0.0823046 0.000490289 -0.0101067)
(0.0770522 0.00143888 -0.0085026)
(0.0731679 0.00238031 -0.0072651)
(0.0702303 0.00344323 -0.0063841)
(0.0679156 0.0047354 -0.00582072)
(0.0660052 0.00639285 -0.00553673)
(0.0643586 0.00859588 -0.00549567)
(0.0628927 0.0116028 -0.00565367)
(0.0615699 0.0158076 -0.00594037)
(0.0602844 0.0217832 -0.00621137)
(0.0585449 0.0298737 -0.00606128)
(0.0559137 0.0349515 -0.00400499)
(0.021966 -0.00712826 -0.00374578)
(0.0280005 -0.00564786 -0.00508815)
(0.0338059 -0.00329986 -0.00495433)
(0.0369325 -0.00182493 -0.00447457)
(0.0380248 -0.000971806 -0.0039729)
(0.0379997 -0.000474322 -0.00354992)
(0.0373241 -0.000164183 -0.0032397)
(0.0362162 5.14547e-05 -0.00305621)
(0.0347459 0.000238308 -0.00300684)
(0.0328931 0.000418903 -0.00309668)
(0.0305798 0.000619782 -0.00332713)
(0.027668 0.000866106 -0.00369112)
(0.0239632 0.00118994 -0.0041617)
(0.0191256 0.00165324 -0.00466289)
(0.0129342 0.00228917 -0.00493493)
(0.00741966 0.00258119 -0.0038611)
(0.0463062 -0.0125661 -0.0048834)
(0.0510743 -0.0132904 -0.0075811)
(0.0561098 -0.00916671 -0.0076603)
(0.0591459 -0.00561342 -0.00698261)
(0.0601496 -0.00320574 -0.00619377)
(0.0598306 -0.00166588 -0.00550439)
(0.0586683 -0.00065849 -0.00498291)
(0.0569199 6.24663e-05 -0.00465405)
(0.0546592 0.000652149 -0.00452936)
(0.0518401 0.00122346 -0.00461562)
(0.0483399 0.00186339 -0.00491399)
(0.0439424 0.00265738 -0.00541257)
(0.038354 0.00370576 -0.00606779)
(0.0311118 0.00513046 -0.00675336)
(0.0219993 0.00687585 -0.00703129)
(0.0137834 0.00752547 -0.00516633)
(0.0667155 -0.0158224 -0.00489838)
(0.067131 -0.019371 -0.00819559)
(0.0679237 -0.0145018 -0.00844824)
(0.0682834 -0.00933273 -0.00771389)
(0.0677886 -0.0054859 -0.00681012)
(0.0665765 -0.00287652 -0.00601221)
(0.0648477 -0.00109933 -0.00540424)
(0.0627068 0.000214404 -0.00501057)
(0.060154 0.00130425 -0.00484282)
(0.0571072 0.00237987 -0.00490199)
(0.0534089 0.00359994 -0.00518648)
(0.0488296 0.00512045 -0.00568045)
(0.0430802 0.00711303 -0.00633339)
(0.0357346 0.00973 -0.00700388)
(0.026644 0.0127141 -0.00721386)
(0.0185899 0.0132977 -0.00515705)
(0.0848001 -0.0155833 -0.0048534)
(0.0814672 -0.0210473 -0.00850792)
(0.0778668 -0.016643 -0.0088605)
(0.0749361 -0.0110473 -0.00806207)
(0.0724163 -0.00657595 -0.0070583)
(0.0699888 -0.00339693 -0.00617375)
(0.0675513 -0.00114831 -0.0055004)
(0.0650172 0.000569614 -0.0050582)
(0.0622848 0.00205629 -0.00484762)
(0.0592239 0.00356244 -0.00486757)
(0.055646 0.00530055 -0.00511076)
(0.0513253 0.00748165 -0.00555656)
(0.0459998 0.0103279 -0.00615069)
(0.0393038 0.0139962 -0.00674958)
(0.0311211 0.0180092 -0.00688536)
(0.024019 0.0183227 -0.00484691)
(0.0998744 -0.0132337 -0.00485471)
(0.093911 -0.0191203 -0.00878319)
(0.0867804 -0.015681 -0.00920214)
(0.0808652 -0.0105811 -0.00833109)
(0.0763739 -0.00626822 -0.00722553)
(0.0727262 -0.00307345 -0.00625397)
(0.0695789 -0.000718867 -0.0055141)
(0.0666864 0.00115515 -0.00501859)
(0.0638457 0.00286221 -0.0047601)
(0.0608767 0.00465809 -0.00472954)
(0.0575759 0.00678237 -0.00491375)
(0.053726 0.00948178 -0.00528769)
(0.0490901 0.0130147 -0.0057952)
(0.0433362 0.0175404 -0.00629706)
(0.0362812 0.0223927 -0.00635655)
(0.0301812 0.0224024 -0.00441327)
(0.111433 -0.00980873 -0.00488128)
(0.10375 -0.014792 -0.00902182)
(0.0940988 -0.0123671 -0.0094873)
(0.0858619 -0.00833101 -0.00854861)
(0.0797609 -0.00476053 -0.00735011)
(0.0751048 -0.00200699 -0.0062973)
(0.0713804 0.000133039 -0.00549217)
(0.0682265 0.00192695 -0.00494217)
(0.0653702 0.00366857 -0.0046304)
(0.062594 0.0055974 -0.00454002)
(0.0596936 0.00795497 -0.00465188)
(0.0564713 0.0110093 -0.00493666)
(0.0527182 0.015058 -0.00533751)
(0.0481102 0.0203031 -0.0057237)
(0.04228 0.0260047 -0.00570198)
(0.037052 0.0260238 -0.00389117)
(0.119225 -0.0058236 -0.00491069)
(0.110509 -0.0089429 -0.00919452)
(0.0992642 -0.0074342 -0.00968612)
(0.0894861 -0.00479703 -0.00869254)
(0.0822949 -0.0023683 -0.00742056)
(0.0769723 -0.000385614 -0.00630171)
(0.0728877 0.00125812 -0.00544153)
(0.0696164 0.00277848 -0.0048393)
(0.0668627 0.00439211 -0.00447261)
(0.0643818 0.00629849 -0.00431729)
(0.0619901 0.00872223 -0.00434818)
(0.0595343 0.0119415 -0.00453168)
(0.0568628 0.0163094 -0.00481063)
(0.0536851 0.0221672 -0.0050653)
(0.0493875 0.0290074 -0.00495553)
(0.0449838 0.0301388 -0.0032958)
(0.123135 -0.00154659 -0.00492921)
(0.113927 -0.00225521 -0.00927947)
(0.101927 -0.00158114 -0.00977381)
(0.0914241 -0.000530847 -0.00874195)
(0.0837457 0.000509686 -0.00742291)
(0.0781393 0.00149532 -0.00626045)
(0.0739568 0.0024784 -0.00535888)
(0.0707646 0.00359134 -0.00471332)
(0.0682299 0.00494717 -0.00429528)
(0.0661297 0.00668741 -0.00407503)
(0.0643256 0.00899792 -0.00402224)
(0.0627464 0.0121417 -0.00409931)
(0.0613784 0.0165139 -0.00424868)
(0.0601528 0.0226791 -0.00436336)
(0.0586074 0.0309331 -0.00416947)
(0.0561406 0.0358956 -0.00268736)
(0.0222851 -0.00725308 -0.00227064)
(0.0283717 -0.00576292 -0.00307605)
(0.0342093 -0.00337234 -0.00300724)
(0.0373254 -0.00186703 -0.00272257)
(0.0383663 -0.000995151 -0.0024206)
(0.0382671 -0.000486208 -0.00216528)
(0.037506 -0.000168543 -0.00197738)
(0.0363063 5.29157e-05 -0.00186501)
(0.0347406 0.000245159 -0.00183199)
(0.0327915 0.000431586 -0.00188015)
(0.0303858 0.00063941 -0.00200834)
(0.0273954 0.000894314 -0.00220943)
(0.0236426 0.00122878 -0.00246414)
(0.0188157 0.00170418 -0.0027272)
(0.0127289 0.0023498 -0.00285523)
(0.00733639 0.00264108 -0.00220992)
(0.0470116 -0.0127526 -0.00296133)
(0.0517876 -0.0135343 -0.00459459)
(0.0568078 -0.00935018 -0.00465437)
(0.0597936 -0.00573069 -0.0042502)
(0.0607067 -0.00327383 -0.00377417)
(0.0602703 -0.00170063 -0.00335695)
(0.058976 -0.000670232 -0.0030403)
(0.0570871 6.87059e-05 -0.00283872)
(0.0546812 0.000673854 -0.00275819)
(0.0517158 0.00126169 -0.00280095)
(0.0480753 0.00192083 -0.00296473)
(0.0435581 0.00273774 -0.00323819)
(0.0378965 0.00381271 -0.00359059)
(0.0306704 0.00526461 -0.00394668)
(0.0217151 0.00702625 -0.00406324)
(0.0136895 0.00765062 -0.00295258)
(0.0677634 -0.0160312 -0.00295308)
(0.0681187 -0.0197056 -0.00495787)
(0.0688199 -0.0147803 -0.00512437)
(0.0690681 -0.00952095 -0.00468884)
(0.0684432 -0.00559805 -0.0041459)
(0.0670871 -0.00293311 -0.00366433)
(0.0652068 -0.00111588 -0.00329597)
(0.0629095 0.000229294 -0.00305551)
(0.0601986 0.00134824 -0.00294888)
(0.0569957 0.00245435 -0.00297505)
(0.0531495 0.00370937 -0.00312998)
(0.048446 0.00527079 -0.00339987)
(0.0426231 0.00730924 -0.00374987)
(0.0352988 0.0099705 -0.00409589)
(0.0263752 0.0129764 -0.00417188)
(0.0185203 0.0134994 -0.00295009)
(0.0861559 -0.0157752 -0.00291476)
(0.0827159 -0.0214001 -0.0051422)
(0.0789559 -0.0169582 -0.0053695)
(0.0758473 -0.0112684 -0.00489626)
(0.0731529 -0.00670921 -0.00429446)
(0.070554 -0.00346209 -0.0037613)
(0.0679482 -0.0011621 -0.00335375)
(0.0652497 0.000597555 -0.00308403)
(0.0623562 0.00212445 -0.00295182)
(0.0591391 0.00367343 -0.00295466)
(0.0554167 0.00546087 -0.00308524)
(0.0509776 0.00769961 -0.00332714)
(0.0455853 0.0106099 -0.00364359)
(0.038915 0.0143391 -0.00394934)
(0.0308941 0.01838 -0.0039838)
(0.0239803 0.0186003 -0.00277352)
(0.101486 -0.0133884 -0.00290849)
(0.0953889 -0.0194334 -0.00530608)
(0.0880494 -0.0159749 -0.00557394)
(0.0818984 -0.0107916 -0.00505704)
(0.0771902 -0.0063941 -0.00439458)
(0.0733451 -0.00313007 -0.00380924)
(0.0700151 -0.000720293 -0.00336162)
(0.0669515 0.00120094 -0.0030598)
(0.0639494 0.00295433 -0.00289887)
(0.0608285 0.00480162 -0.00287175)
(0.057391 0.00698637 -0.00296779)
(0.0534322 0.00975715 -0.00316825)