/*--------------------------------*- C++ -*----------------------------------*\
| =========                 |                                                 |
| \\      /  F ield         | foam-extend: Open Source CFD                    |
|  \\    /   O peration     | Version:     3.1                                |
|   \\  /    A nd           | Web:         http://www.extend-project.de       |
|    \\/     M anipulation  |                                                 |
\*---------------------------------------------------------------------------*/
FoamFile
{
    version     2.0;
    format      ascii;
    class       volVectorField;
    location    "1.5";
    object      D;
}
// * * * * * * * * * * * * * * * * * * * * * * * * * * * * * * * * * * * * * //

dimensions      [0 1 0 0 0 0 0];

internalField   nonuniform List<vector> 
256
(
(0.00028574 0.00017318 0.000283326)
(0.000135087 3.28827e-05 8.88771e-05)
(0.000118459 -4.8179e-05 -9.28498e-05)
(0.000230936 -0.000186911 -0.000296961)
(0.00114973 0.000714217 0.000196229)
(0.000954269 0.000195039 7.95241e-05)
(0.000913337 -0.000210352 -0.000117515)
(0.00101995 -0.000723897 -0.00025925)
(0.00221272 0.0011041 0.00010039)
(0.00201457 0.000331348 2.76144e-05)
(0.00196076 -0.000343125 -9.99887e-05)
(0.0020465 -0.00111813 -0.000196799)
(0.00346051 0.00140906 -1.97978e-05)
(0.00327983 0.000433048 -2.26456e-05)
(0.00321832 -0.000456578 -7.66116e-05)
(0.00327021 -0.00143852 -0.000104063)
(0.00483125 0.0016206 -0.000134821)
(0.00466745 0.000498434 -6.95238e-05)
(0.00460125 -0.000549111 -5.00667e-05)
(0.00462539 -0.00167732 -8.90769e-06)
(0.00626812 0.00175651 -0.000235439)
(0.00612027 0.00053354 -0.000110259)
(0.00605192 -0.000624367 -2.58403e-05)
(0.00605475 -0.00184995 7.7723e-05)
(0.00772629 0.00183376 -0.000315308)
(0.00758987 0.000544492 -0.000146175)
(0.00752091 -0.000685336 -7.93861e-06)
(0.00751208 -0.00197001 0.000146538)
(0.00918473 0.00186841 -0.000375487)
(0.00904199 0.000539891 -0.000179909)
(0.00896904 -0.000734657 4.39444e-07)
(0.00896365 -0.00205266 0.000186816)
(0.00030424 0.000171969 0.000130402)
(0.000154602 3.46183e-05 4.36634e-05)
(0.000137291 -4.54249e-05 -5.09803e-05)
(0.000243387 -0.000178168 -0.000147492)
(0.00117867 0.000710982 9.56093e-05)
(0.000960972 0.000199184 3.54569e-05)
(0.000919735 -0.000203507 -7.21632e-05)
(0.00104531 -0.000710459 -0.000148472)
(0.00220197 0.00111802 3.0899e-05)
(0.00200467 0.000343585 1.46531e-06)
(0.00195052 -0.00034048 -6.65809e-05)
(0.0020322 -0.00111725 -0.000111165)
(0.00340309 0.00142774 -5.46719e-05)
(0.00322499 0.000449264 -3.5947e-05)
(0.00316302 -0.000451522 -5.22994e-05)
(0.00320843 -0.00143577 -4.86395e-05)
(0.0047227 0.00164261 -0.000141154)
(0.00456402 0.000517989 -7.20174e-05)
(0.00449713 -0.000539909 -3.45377e-05)
(0.00451191 -0.00166958 2.02421e-05)
(0.00611143 0.00177909 -0.000218741)
(0.00596977 0.000555167 -0.000104375)
(0.00590073 -0.000609181 -1.80494e-05)
(0.00589303 -0.00183355 8.40017e-05)
(0.00752758 0.00185463 -0.000281575)
(0.00739933 0.000566655 -0.00013317)
(0.00733033 -0.000663003 -7.41556e-06)
(0.00730971 -0.00194229 0.000133154)
(0.00895419 0.00188596 -0.000327069)
(0.00882054 0.000561006 -0.000159009)
(0.00874869 -0.00070517 -8.06557e-06)
(0.00873286 -0.002013 0.000155233)
(0.0003089 0.000175076 5.41003e-05)
(0.000150121 3.68226e-05 1.83932e-05)
(0.000130518 -4.58045e-05 -2.65821e-05)
(0.000240507 -0.000179699 -6.79676e-05)
(0.00117657 0.000699767 3.17002e-05)
(0.000940884 0.000199003 8.57243e-06)
(0.000896113 -0.000195372 -4.10405e-05)
(0.0010325 -0.000692177 -7.32563e-05)
(0.0021753 0.0011052 -1.40143e-05)
(0.00196399 0.000346186 -1.52947e-05)
(0.00190595 -0.00032784 -4.02276e-05)
(0.00199437 -0.00108999 -4.90831e-05)
(0.00334352 0.00141605 -7.43907e-05)
(0.00315543 0.000455247 -4.26378e-05)
(0.0030895 -0.000433821 -3.22041e-05)
(0.00313758 -0.00140045 -7.32525e-06)
(0.00462773 0.00163506 -0.000137232)
(0.00446174 0.000528129 -6.9666e-05)
(0.00439096 -0.000517159 -2.1175e-05)
(0.00440582 -0.0016281 4.03689e-05)
(0.00598181 0.00177698 -0.000195181)
(0.00583516 0.000569593 -9.46969e-05)
(0.00576254 -0.000581314 -1.10142e-05)
(0.00575297 -0.00178656 8.50159e-05)
(0.00736689 0.00185862 -0.000243227)
(0.00723604 0.000584939 -0.000117606)
(0.00716401 -0.000630151 -6.20477e-06)
(0.00713974 -0.00189028 0.000117883)
(0.00876917 0.00189625 -0.000277426)
(0.00863497 0.000582495 -0.000138463)
(0.00856007 -0.000667956 -1.27652e-05)
(0.0085381 -0.00195668 0.000126272)
(0.000306249 0.000175952 1.70888e-05)
(0.000141788 3.77532e-05 5.76785e-06)
(0.000120362 -4.56063e-05 -1.2615e-05)
(0.000232362 -0.000179142 -2.65178e-05)
(0.00115975 0.00068972 -1.91961e-06)
(0.000913625 0.00019848 -4.34352e-06)
(0.000865621 -0.000187626 -2.16347e-05)
(0.00100667 -0.000674368 -2.90093e-05)
(0.00213761 0.00109015 -3.60578e-05)
(0.00191615 0.000346976 -2.19003e-05)
(0.00185465 -0.000313596 -2.22016e-05)
(0.00194748 -0.0010597 -1.15298e-05)
(0.00328128 0.00140054 -7.92805e-05)
(0.00308483 0.000458858 -4.19014e-05)
(0.00301555 -0.000413644 -1.77349e-05)
(0.0030666 -0.00136073 1.70034e-05)
(0.00453988 0.00162249 -0.000124695)
(0.00436729 0.000535627 -6.19904e-05)
(0.00429339 -0.000491632 -1.11234e-05)
(0.00430987 -0.00158159 4.97349e-05)
(0.00586895 0.00176945 -0.000167475)
(0.00571743 0.000581499 -8.1159e-05)
(0.005642 -0.000551011 -5.37647e-06)
(0.00563276 -0.00173503 8.02558e-05)
(0.00723108 0.00185711 -0.000203824)
(0.00709706 0.000601155 -9.9332e-05)
(0.00702252 -0.000595692 -4.34462e-06)
(0.00699723 -0.00183496 0.000101362)
(0.00861419 0.00190063 -0.00022957)
(0.00847782 0.000602591 -0.000116319)
(0.00839994 -0.00063012 -1.33943e-05)
(0.00837519 -0.00189854 0.000101888)
(0.000301707 0.000175492 7.93171e-07)
(0.00013427 3.81737e-05 2.19444e-07)
(0.00011159 -4.5116e-05 -5.0382e-06)
(0.000223974 -0.000177359 -6.481e-06)
(0.00113972 0.000681709 -1.56752e-05)
(0.000887785 0.000198371 -8.80975e-06)
(0.000837411 -0.000180928 -1.02024e-05)
(0.000980069 -0.000658877 -5.96718e-06)
(0.00209958 0.00107823 -4.12515e-05)
(0.00187176 0.000347992 -2.17189e-05)
(0.00180777 -0.000300827 -1.09068e-05)
(0.00190284 -0.00103346 7.17783e-06)
(0.00322412 0.00138799 -7.21039e-05)
(0.00302189 0.000462239 -3.6155e-05)
(0.00295031 -0.000395362 -8.39584e-06)
(0.00300339 -0.00132603 2.68447e-05)
(0.00446361 0.00161201 -0.0001045)
(0.00428618 0.00054226 -5.07958e-05)
(0.00421023 -0.000468483 -4.552e-06)
(0.00422823 -0.0015406 4.90796e-05)
(0.00577427 0.00176274 -0.00013546)
(0.00561897 0.000591808 -6.5121e-05)
(0.00554177 -0.000523668 -1.59618e-06)
(0.00553339 -0.00168943 6.94787e-05)
(0.00711914 0.00185485 -0.000162289)
(0.00698244 0.000615027 -7.91131e-05)
(0.00690631 -0.000564851 -2.53958e-06)
(0.00688104 -0.00178592 8.25713e-05)
(0.00848668 0.00190256 -0.000181201)
(0.00834833 0.000619623 -9.2437e-05)
(0.00826847 -0.000596479 -1.16088e-05)
(0.00824258 -0.00184701 7.94793e-05)
(0.000297507 0.00017465 -4.63861e-06)
(0.000128626 3.8375e-05 -1.58628e-06)
(0.000105111 -4.45756e-05 -1.37214e-06)
(0.000217151 -0.000175393 1.57082e-06)
(0.00112215 0.000675829 -1.75434e-05)
(0.000867097 0.000198563 -8.57901e-06)
(0.000815116 -0.000175666 -4.03987e-06)
(0.000957994 -0.00064672 3.57323e-06)
(0.00206764 0.00106985 -3.5603e-05)
(0.00183604 0.00034924 -1.7542e-05)
(0.0017704 -0.000290723 -4.53337e-06)
(0.00186647 -0.0010132 1.30124e-05)
(0.00317769 0.00137931 -5.65644e-05)
(0.00297178 0.000465399 -2.73987e-05)
(0.00289872 -0.000380837 -3.13607e-06)
(0.00295301 -0.00129923 2.60559e-05)
(0.00440316 0.00160481 -7.84982e-05)
(0.00422251 0.000547925 -3.74591e-05)
(0.00414529 -0.000450065 -1.00309e-06)
(0.00416439 -0.00150879 4.05073e-05)
(0.00570046 0.00175813 -9.96513e-05)
(0.00554254 0.000600218 -4.74867e-05)
(0.00546429 -0.000501926 3.46511e-07)
(0.00545673 -0.00165384 5.3501e-05)
(0.00703262 0.00185318 -0.000118236)
(0.00689399 0.000626036 -5.74875e-05)
(0.00681694 -0.000540377 -1.21264e-06)
(0.00679204 -0.00174746 6.12422e-05)
(0.00838816 0.00190355 -0.000131295)
(0.00824828 0.000632906 -6.71158e-05)
(0.00816725 -0.000569818 -8.65381e-06)
(0.00814109 -0.00180638 5.73948e-05)
(0.000294487 0.0001739 -4.50137e-06)
(0.000124958 3.84716e-05 -1.51277e-06)
(0.00010093 -4.4141e-05 -1.80118e-08)
(0.000212481 -0.000173835 3.08009e-06)
(0.00110959 0.000671975 -1.2726e-05)
(0.000852976 0.000198826 -5.89851e-06)
(0.000800002 -0.00017206 -1.20414e-06)
(0.000942632 -0.00063841 4.99372e-06)
(0.00204512 0.00106457 -2.3545e-05)
(0.00181143 0.000350332 -1.12042e-05)
(0.00174479 -0.0002838 -1.46297e-06)
(0.00184123 -0.000999514 1.07406e-05)
(0.00314535 0.00137398 -3.57952e-05)
(0.00293731 0.000467852 -1.6976e-05)
(0.00286336 -0.000370874 -7.54602e-07)
(0.00291829 -0.00128118 1.82501e-05)
(0.0043615 0.00160049 -4.85739e-05)
(0.00417888 0.000552081 -2.28912e-05)
(0.00410093 -0.000437424 3.02058e-07)
(0.00412072 -0.00148733 2.64288e-05)
(0.00564994 0.0017554 -6.09628e-05)
(0.00549039 0.000606186 -2.88567e-05)
(0.00541156 -0.000487003 8.23701e-07)
(0.00540458 -0.00162974 3.36587e-05)
(0.00697361 0.00185219 -7.19397e-05)
(0.00683374 0.00063368 -3.48804e-05)
(0.0067562 -0.000523588 -4.47111e-07)
(0.00673168 -0.0017213 3.77144e-05)
(0.00832094 0.0019041 -7.96356e-05)
(0.00818003 0.000642003 -4.07095e-05)
(0.00809838 -0.000551526 -5.26052e-06)
(0.00807229 -0.00177863 3.48192e-05)
(0.000292927 0.000173476 -1.7538e-06)
(0.000123164 3.85111e-05 -5.8528e-07)
(9.88899e-05 -4.39029e-05 1.20239e-07)
(0.000210126 -0.000172991 1.35172e-06)
(0.00110311 0.000670065 -4.57572e-06)
(0.00084586 0.000198996 -2.07586e-06)
(0.000792415 -0.000170231 -2.05575e-07)
(0.000934814 -0.000634203 2.11222e-06)
(0.00203356 0.00106202 -8.18466e-06)
(0.00179895 0.000350956 -3.835e-06)
(0.00173184 -0.000280291 -2.82841e-07)
(0.00182838 -0.000992632 4.04692e-06)
(0.00312883 0.00137145 -1.22232e-05)
(0.0029198 0.000469184 -5.73903e-06)
(0.00284544 -0.000365824 -6.59223e-08)
(0.00290064 -0.00127212 6.50485e-06)
(0.00434028 0.00159847 -1.64289e-05)
(0.00415675 0.000554277 -7.69433e-06)
(0.00407845 -0.000431015 2.51165e-07)
(0.00409857 -0.00147655 9.15661e-06)
(0.00562428 0.00175415 -2.05161e-05)
(0.00546396 0.000609282 -9.67721e-06)
(0.00538486 -0.000479436 3.78878e-07)
(0.00537819 -0.00161762 1.14787e-05)
(0.00694365 0.00185173 -2.41525e-05)
(0.0068032 0.0006376 -1.16908e-05)
(0.00672546 -0.000515072 -9.83306e-08)
(0.00670116 -0.00170812 1.27384e-05)
(0.00828679 0.00190428 -2.66993e-05)
(0.00814541 0.00064664 -1.36425e-05)
(0.0080635 -0.000542235 -1.75715e-06)
(0.00803749 -0.00176461 1.16824e-05)
)
;

boundaryField
{
    interface
    {
        type            tractionDisplacement;
        gradient        nonuniform List<vector> 
192
(
(0.0252645 0.0359046 -0.000116289)
(0.012115 0.0347279 -0.000418338)
(0.0136121 0.0448497 -0.00233493)
(0.0113936 0.0505573 -0.00476802)
(0.00988983 0.0548165 -0.00709384)
(0.00845563 0.0571085 -0.00919031)
(0.00765701 0.058191 -0.0108345)
(0.00708471 0.0597181 -0.0117344)
(0.0256325 0.0369333 -9.5616e-05)
(0.0139751 0.0338077 -0.00029051)
(0.0138403 0.0428334 -0.0015389)
(0.0118465 0.0485645 -0.00323521)
(0.0102343 0.0528495 -0.00493382)
(0.00884469 0.0554256 -0.00654203)
(0.00802261 0.0569253 -0.00790152)
(0.0073748 0.0591562 -0.00880037)
(0.0261998 0.0373665 -0.000341457)
(0.014525 0.0331718 -0.000864421)
(0.0142555 0.0414939 -0.00177388)
(0.012088 0.0471272 -0.00293016)
(0.0103214 0.0514016 -0.00416307)
(0.00883532 0.054127 -0.00534486)
(0.00795259 0.0558671 -0.00638426)
(0.00714837 0.058521 -0.00715047)
(0.0264258 0.0372393 -0.000413876)
(0.0149351 0.0325633 -0.00104349)
(0.014697 0.0405737 -0.00179031)
(0.0124588 0.0460741 -0.00264716)
(0.0105948 0.0503447 -0.00354028)
(0.00902156 0.0531519 -0.00440425)
(0.00806879 0.0550338 -0.00519113)
(0.00716285 0.0579236 -0.00582703)
(0.0264166 0.0368976 -0.000382875)
(0.0151755 0.0320143 -0.000974955)
(0.0149991 0.0398685 -0.0015813)
(0.0127548 0.0453056 -0.00222995)
(0.0108461 0.0495782 -0.00288304)
(0.00921735 0.0524321 -0.00351368)
(0.0082131 0.0543894 -0.00410468)
(0.00722682 0.0574027 -0.00461563)
(0.0263176 0.0365365 -0.000296054)
(0.015303 0.0315648 -0.000760855)
(0.0151856 0.0393364 -0.00121081)
(0.0129585 0.0447515 -0.00167503)
(0.0110345 0.0490329 -0.00213137)
(0.00937693 0.0519148 -0.00257042)
(0.00834105 0.0539093 -0.00298831)
(0.00730818 0.0569852 -0.00336266)
(0.0262147 0.0362579 -0.000183934)
(0.0153617 0.0312487 -0.000476086)
(0.0152879 0.0389761 -0.00075276)
(0.0130805 0.0443864 -0.00103345)
(0.0111544 0.0486772 -0.00130619)
(0.0094827 0.0515753 -0.00156834)
(0.00842919 0.0535881 -0.00181956)
(0.00737034 0.0566946 -0.0020486)
(0.026153 0.0361093 -6.19883e-05)
(0.0153827 0.0310864 -0.000161233)
(0.0153315 0.038794 -0.000254493)
(0.0131364 0.0442041 -0.000348543)
(0.0112111 0.0485004 -0.000439567)
(0.0095338 0.0514066 -0.000527123)
(0.00847145 0.0534275 -0.000611116)
(0.00740034 0.0565429 -0.000688208)
(-0.000982472 0.0108383 0.0131359)
(-0.00138488 -0.0049075 0.00174531)
(0.00142215 -0.0040687 0.0030258)
(0.00404386 -0.00498157 0.00131038)
(0.00684306 -0.0046181 0.000398923)
(0.00929142 -0.00399538 -0.000474953)
(0.0112094 -0.00322823 -0.000973884)
(0.0125746 -0.0018915 -0.00175782)
(-0.00386408 0.00439403 0.00296038)
(-0.00632882 -0.00183381 0.000563419)
(-0.00311908 -0.00154976 0.000341363)
(-7.71183e-05 -0.00187596 -0.000205297)
(0.00309664 -0.00183725 -0.000525712)
(0.00587843 -0.00175597 -0.000790488)
(0.00818902 -0.00169984 -0.000968185)
(0.0100192 -0.00132268 -0.00146431)
(-0.00419432 -0.00505021 -0.00313032)
(-0.00676536 0.00127176 -0.000716521)
(-0.00366547 0.0010591 -0.000920957)
(-0.000583277 0.001323 -0.000636492)
(0.00258742 0.00106306 -0.00043865)
(0.00540625 0.000663044 -0.000213549)
(0.00780722 0.000150856 -3.18192e-06)
(0.00964149 -0.00049061 0.000503181)
(-0.00220009 -0.0128716 -0.0123984)
(-0.00278118 0.00376624 -0.00213421)
(-0.000388913 0.00329965 -0.00358144)
(0.00221049 0.00418145 -0.00212676)
(0.00495623 0.00369477 -0.00132015)
(0.0074408 0.00292346 -0.000487114)
(0.00951713 0.0018629 0.000142268)
(0.0109817 0.00012501 0.00103282)
(0.0201102 -0.0334521 -0.000663763)
(0.00828213 -0.0341451 -0.00100969)
(0.00820536 -0.0453399 0.000457592)
(0.00525749 -0.0513657 0.00276709)
(0.00320355 -0.0556441 0.00510797)
(0.00153835 -0.0577845 0.00735115)
(0.000629014 -0.0585179 0.00927973)
(0.000445739 -0.0585668 0.0106571)
(0.0197413 -0.0346387 -0.000231224)
(0.00968384 -0.0337186 -8.03928e-05)
(0.0080443 -0.0434064 0.00107139)
(0.00526046 -0.0493646 0.00276183)
(0.00310099 -0.0535667 0.0045064)
(0.0014529 -0.0558908 0.00620518)
(0.000500635 -0.0569329 0.00770215)
(0.000420974 -0.0575232 0.0089625)
(0.0200007 -0.0347208 0.000152555)
(0.0101518 -0.0331391 0.00074314)
(0.00843871 -0.0420753 0.00167092)
(0.00551677 -0.0478997 0.00285082)
(0.00321597 -0.0520434 0.00412071)
(0.00145831 -0.0544643 0.00536492)
(0.000412836 -0.0556764 0.00651857)
(0.000158488 -0.0564522 0.00757848)
(0.0200117 -0.0341861 0.00030869)
(0.0104826 -0.0324688 0.00102775)
(0.00879441 -0.0411308 0.0018265)
(0.00582248 -0.0468281 0.00271741)
(0.00343262 -0.0509444 0.00364145)
(0.00158584 -0.0534077 0.0045507)
(0.000449067 -0.0546868 0.00541729)
(9.62387e-05 -0.0555282 0.00625259)
(0.0198584 -0.0334826 0.000323803)
(0.0106672 -0.0318349 0.000991572)
(0.00902505 -0.0403842 0.0016476)
(0.00605379 -0.0460379 0.00232673)
(0.00362392 -0.0501466 0.00300378)
(0.00172002 -0.0526302 0.00366521)
(0.000517809 -0.0539331 0.00430587)
(9.90998e-05 -0.0547844 0.0049448)
(0.0196639 -0.0328429 0.000264446)
(0.0107539 -0.0313121 0.000784515)
(0.00915689 -0.0398121 0.00127183)
(0.00620427 -0.0454625 0.00175878)
(0.00376088 -0.0495776 0.00223185)
(0.001827 -0.0520739 0.00268978)
(0.00058637 -0.0533827 0.00313595)
(0.000135633 -0.0542243 0.00358808)
(0.0195025 -0.0323779 0.000169038)
(0.010787 -0.0309449 0.00049452)
(0.00922407 -0.0394219 0.000793784)
(0.0062911 -0.0450807 0.00108841)
(0.00384567 -0.0492056 0.00137089)
(0.00189816 -0.051711 0.00164264)
(0.000637807 -0.0530206 0.00190808)
(0.000172694 -0.0538503 0.00217808)
(0.0194135 -0.0321364 5.7778e-05)
(0.0107964 -0.0307566 0.000168141)
(0.0092512 -0.0392241 0.00026893)
(0.00632991 -0.0448894 0.00036766)
(0.00388535 -0.0490207 0.000461834)
(0.00193296 -0.0515307 0.000552191)
(0.000664959 -0.0528409 0.000640586)
(0.000193995 -0.0536635 0.000730269)
(0.0598994 0.0008486 -0.000901494)
(0.0594297 0.000649159 -0.000310647)
(0.0589373 0.000985854 -0.00018505)
(0.0584106 0.00119703 -2.61499e-05)
(0.0579115 0.00136575 3.29561e-05)
(0.0575014 0.00147145 4.6508e-05)
(0.0572122 0.00153276 3.40131e-05)
(0.057061 0.00155622 1.20603e-05)
(0.0551454 0.000663901 -0.000519284)
(0.0546463 0.000554939 -0.00045758)
(0.0540817 0.000685914 -0.000513894)
(0.0534832 0.000836464 -0.000459601)
(0.0528998 0.00097255 -0.000377772)
(0.0524171 0.00107313 -0.000278137)
(0.0520789 0.00113866 -0.000169946)
(0.0519077 0.00117177 -5.70501e-05)
(0.054427 -0.00192586 -0.000248585)
(0.0538733 -0.00157799 -0.000831411)
(0.0531542 -0.0014761 -0.00103663)
(0.0524408 -0.00137619 -0.0010461)
(0.0517885 -0.00128726 -0.00090324)
(0.0512634 -0.001213 -0.00068126)
(0.0509008 -0.0011598 -0.000419646)
(0.0507172 -0.00113084 -0.00014128)
(0.0574834 -0.00273386 -0.000149432)
(0.0567025 -0.00219385 -0.00144134)
(0.0557871 -0.00221503 -0.00175596)
(0.054944 -0.00218045 -0.00174727)
(0.0542267 -0.00213807 -0.00149364)
(0.053673 -0.00208348 -0.00112073)
(0.0532983 -0.00203754 -0.000688433)
(0.0531082 -0.00201148 -0.000231609)
)
;
        traction        nonuniform List<vector> 
192
(
(26.9712 -0.88625 -2.74603)
(27.0857 -0.785101 -4.4966)
(26.9367 -0.882326 -5.13933)
(26.9539 -0.729752 -5.3846)
(27.1654 -0.406165 -5.42797)
(27.5788 0.189854 -5.28892)
(28.0017 1.33003 -4.89499)
(26.5671 3.15715 -4.01429)
(29.9984 -1.21896 -1.877)
(30.5715 -1.08609 -3.11523)
(31.1278 -1.17269 -3.54595)
(31.6467 -0.966077 -3.67736)
(32.0419 -0.527489 -3.64742)
(32.2806 0.26694 -3.47004)
(31.8464 1.76507 -3.1081)
(27.7563 3.97144 -2.45443)
(31.6984 -1.32961 -1.26787)
(32.167 -1.15607 -2.10396)
(32.7666 -1.22921 -2.3567)
(33.3317 -0.985203 -2.39752)
(33.6646 -0.465503 -2.33138)
(33.665 0.460645 -2.17137)
(32.66 2.15998 -1.90982)
(27.3094 4.49178 -1.49686)
(32.7998 -1.35842 -0.879842)
(33.1449 -1.15315 -1.46958)
(33.6891 -1.21346 -1.63099)
(34.1865 -0.939084 -1.63484)
(34.4281 -0.364883 -1.56607)
(34.2336 0.646464 -1.43745)
(32.8639 2.46538 -1.25482)
(26.7766 4.8459 -0.982777)
(33.5329 -1.36052 -0.606953)
(33.8003 -1.13084 -1.0224)
(34.2793 -1.17733 -1.12944)
(34.7053 -0.880762 -1.12158)
(34.8602 -0.269141 -1.06304)
(34.5254 0.796963 -0.966677)
(32.9184 2.69245 -0.841449)
(26.3384 5.09816 -0.658686)
(34.0169 -1.35459 -0.398739)
(34.2401 -1.10711 -0.676024)
(34.6628 -1.14114 -0.745727)
(35.0287 -0.828503 -0.736271)
(35.1142 -0.191756 -0.692916)
(34.6875 0.909013 -0.626139)
(32.9276 2.85415 -0.54373)
(26.0163 5.27396 -0.424769)
(34.3119 -1.3478 -0.225159)
(34.5016 -1.08908 -0.383422)
(34.8973 -1.11447 -0.423142)
(35.2282 -0.791089 -0.41645)
(35.2793 -0.139253 -0.39014)
(34.7821 0.983574 -0.350629)
(32.9265 2.95926 -0.301331)
(25.8123 5.38348 -0.230808)
(34.4435 -1.34268 -0.0720385)
(34.6138 -1.07856 -0.123032)
(34.9957 -1.09989 -0.135793)
(35.3208 -0.77184 -0.133471)
(35.354 -0.112219 -0.124712)
(34.8158 1.02385 -0.111553)
(32.8965 3.01698 -0.0941971)
(25.6743 5.42993 -0.0694542)
(3.73312 0.679293 12.3947)
(6.43134 1.13055 8.05606)
(7.61574 1.02023 4.52861)
(8.28256 0.855335 2.33849)
(8.74294 0.793404 1.20034)
(9.13189 0.892763 0.947374)
(9.58269 1.19993 1.57958)
(10.5042 1.6188 3.09361)
(2.63003 0.615331 11.3832)
(4.80986 1.01166 9.39691)
(5.63502 0.968337 7.24197)
(6.01426 0.712286 5.78293)
(6.26019 0.460851 5.02174)
(6.50945 0.300974 4.85898)
(6.91872 0.282444 5.23314)
(8.09176 0.320639 5.82201)
(2.21104 0.503579 10.7772)
(4.34919 0.722553 9.94214)
(5.19751 0.718118 8.57527)
(5.54871 0.454179 7.57866)
(5.73654 0.150832 7.07152)
(5.92349 -0.103972 6.98529)
(6.28548 -0.273285 7.28981)
(7.46148 -0.375546 7.8414)
(2.16646 0.536508 9.81755)
(4.46809 0.591198 9.15504)
(5.42348 0.535817 7.80333)
(5.8024 0.218082 6.82977)
(5.97723 -0.126429 6.3477)
(6.12959 -0.424542 6.21387)
(6.44236 -0.700123 6.35411)
(7.5614 -1.03006 6.87801)
(-6.64487 0.758917 0.693196)
(-4.46167 0.978414 1.40467)
(-2.63786 0.880353 1.56498)
(-1.6682 0.505982 1.56599)
(-1.22345 0.129252 1.6004)
(-0.819541 -0.181097 1.73879)
(0.468985 -0.681426 2.04679)
(5.08539 -2.6948 2.54628)
(-9.04715 0.523385 -0.0473664)
(-8.67926 0.681531 0.182684)
(-8.1646 0.74059 0.175529)
(-7.8907 0.605623 0.109164)
(-7.70623 0.45049 0.113147)
(-7.22439 0.341578 0.232272)
(-5.48552 0.0688225 0.489816)
(1.07907 -2.07278 0.990528)
(-10.599 0.402758 -0.157547)
(-10.7451 0.478222 0.00780202)
(-10.6699 0.604429 0.0587817)
(-10.5769 0.609381 0.0593842)
(-10.3471 0.598217 0.0989896)
(-9.60639 0.619921 0.212523)
(-7.39072 0.468106 0.400427)
(-0.190981 -1.65441 0.704782)
(-11.6367 0.370216 -0.116308)
(-11.9048 0.400525 0.0421823)
(-11.9633 0.55383 0.130537)
(-11.8999 0.634609 0.169493)
(-11.5692 0.712074 0.221998)
(-10.585 0.812272 0.313431)
(-8.01396 0.716437 0.437122)
(-0.42772 -1.41945 0.615491)
(-12.3521 0.36711 -0.0676841)
(-12.6462 0.38189 0.0688041)
(-12.7415 0.552093 0.157314)
(-12.6595 0.67529 0.204013)
(-12.2339 0.803638 0.250687)
(-11.0756 0.94769 0.314354)
(-8.27552 0.87926 0.388857)
(-0.438335 -1.27636 0.494498)
(-12.8228 0.370985 -0.0331368)
(-13.1169 0.384057 0.0703536)
(-13.2122 0.566662 0.140566)
(-13.1 0.713458 0.179632)
(-12.6023 0.869498 0.213959)
(-11.3284 1.03668 0.254425)
(-8.38532 0.981316 0.296964)
(-0.389457 -1.19026 0.357002)
(-13.1056 0.375157 -0.0138317)
(-13.3947 0.390543 0.0499847)
(-13.4815 0.581336 0.0935179)
(-13.3444 0.740788 0.118181)
(-12.7993 0.911234 0.138615)
(-11.4543 1.09014 0.161115)
(-8.42332 1.03939 0.183484)
(-0.333085 -1.14311 0.210694)
(-13.2387 0.377167 -0.00382943)
(-13.5252 0.394229 0.0174699)
(-13.6076 0.589156 0.0319067)
(-13.4578 0.75449 0.0401382)
(-12.89 0.931512 0.0468264)
(-11.5117 1.11595 0.0541113)
(-8.43097 1.06301 0.0613274)
(-0.312054 -1.12483 0.0676056)
(10.8492 -1.4589 -1.36794)
(10.3373 1.39004 -1.02797)
(10.4141 3.67841 -0.688591)
(10.6071 5.51337 -0.459312)
(10.7955 6.91014 -0.310047)
(10.9476 7.91638 -0.206259)
(11.0535 8.55688 -0.130965)
(11.1009 8.79113 -0.0495561)
(7.9104 -4.90511 0.0885945)
(6.79258 -3.62222 0.110786)
(6.60496 -2.03939 0.196969)
(6.62483 -0.691686 0.205175)
(6.68676 0.350211 0.171551)
(6.74873 1.11107 0.124933)
(6.80092 1.62023 0.0748693)
(6.84146 1.90442 0.0247932)
(7.05691 -7.56913 0.649628)
(5.89156 -6.60786 0.593844)
(5.62438 -5.51105 0.552306)
(5.57277 -4.54273 0.468886)
(5.57826 -3.78077 0.364174)
(5.59681 -3.21972 0.258414)
(5.61448 -2.84611 0.157567)
(5.62572 -2.63885 0.0543002)
(7.16421 -6.97933 1.06227)
(6.10548 -6.06872 0.830044)
(5.85838 -5.36486 0.673216)
(5.80553 -4.71773 0.545537)
(5.802 -4.18378 0.418781)
(5.80984 -3.78238 0.295286)
(5.81672 -3.51586 0.17678)
(5.81354 -3.38483 0.0593455)
)
;
        pressure        uniform 0;
        value           nonuniform List<vector> 
192
(
(0.000601546 0.000621988 0.000281873)
(0.00130117 0.00114832 0.000190999)
(0.00238287 0.00166472 7.12029e-05)
(0.00360293 0.00204102 -7.9398e-05)
(0.00495487 0.00230581 -0.000223494)
(0.00637382 0.00247037 -0.000350318)
(0.007822 0.00256115 -0.000450739)
(0.00927329 0.00261489 -0.000522168)
(0.000624646 0.000633635 0.000129207)
(0.00135335 0.00113358 9.1978e-05)
(0.00237498 0.00165344 1.16627e-05)
(0.00355117 0.00203479 -9.51121e-05)
(0.00485063 0.00230323 -0.000202826)
(0.00622198 0.00247191 -0.000300516)
(0.00762786 0.0025662 -0.000380344)
(0.00904637 0.00262541 -0.000437074)
(0.000636398 0.000642157 4.98321e-05)
(0.00135813 0.00111441 2.08949e-05)
(0.0023535 0.00162387 -3.61878e-05)
(0.00349462 0.00200514 -0.000111018)
(0.00475675 0.00227758 -0.000189271)
(0.00609225 0.00245356 -0.000261992)
(0.00746629 0.00255695 -0.000323031)
(0.00885852 0.00262776 -0.000366807)
(0.000636571 0.000641443 1.19153e-05)
(0.00134644 0.00109676 -1.49633e-05)
(0.00232132 0.00159732 -5.84367e-05)
(0.00343702 0.00197646 -0.00011237)
(0.00467231 0.0022518 -0.000168949)
(0.00598172 0.00243385 -0.000222528)
(0.00733194 0.00254503 -0.000268713)
(0.00870372 0.00262467 -0.000302408)
(0.000631914 0.000636712 -3.99277e-06)
(0.00132942 0.00108189 -2.78621e-05)
(0.00228706 0.00157659 -6.10178e-05)
(0.00338355 0.00195431 -9.99782e-05)
(0.00459919 0.00223174 -0.000140538)
(0.00588948 0.00241814 -0.000179381)
(0.0072218 0.00253472 -0.000213598)
(0.00857701 0.0026201 -0.000238896)
(0.000626478 0.000631356 -8.33929e-06)
(0.00131344 0.00107039 -2.70541e-05)
(0.00225746 0.00156155 -5.07381e-05)
(0.00333967 0.0019387 -7.75023e-05)
(0.00454109 0.00221773 -0.00010514)
(0.00581767 0.00240706 -0.000131781)
(0.00713689 0.00252704 -0.00015559)
(0.00847952 0.00261586 -0.000173328)
(0.000622171 0.000627123 -6.80054e-06)
(0.00130161 0.00106258 -1.86771e-05)
(0.00223622 0.00155177 -3.29545e-05)
(0.00330886 0.00192881 -4.87134e-05)
(0.00450093 0.00220895 -6.49013e-05)
(0.00576847 0.0024001 -8.05671e-05)
(0.00707897 0.00252205 -9.46842e-05)
(0.00841307 0.00261278 -0.000105243)
(0.00061984 0.000624843 -2.52866e-06)
(0.0012954 0.00105865 -6.59114e-06)
(0.0022252 0.00154695 -1.13658e-05)
(0.00329303 0.001924 -1.658e-05)
(0.00448042 0.00220472 -2.19235e-05)
(0.00574345 0.00239674 -2.71052e-05)
(0.00704954 0.00251958 -3.17915e-05)
(0.00837929 0.00261107 -3.53019e-05)
(0.000273459 0.000308659 0.000447525)
(0.00113242 0.000652874 0.000218045)
(0.0022305 0.00105324 0.000138212)
(0.00351105 0.00134679 -3.41801e-06)
(0.00491679 0.00156288 -0.000129835)
(0.00638426 0.00170657 -0.000241376)
(0.00786641 0.00179341 -0.000327481)
(0.00934191 0.00184477 -0.00039746)
(8.67857e-05 8.7808e-05 0.000125882)
(0.000875158 0.000172117 8.65669e-05)
(0.00197558 0.000311976 3.18815e-05)
(0.00327887 0.000409599 -2.52118e-05)
(0.00470616 0.000475468 -7.60952e-05)
(0.00619375 0.00051159 -0.00012014)
(0.00769223 0.000523244 -0.000158277)
(0.00916723 0.000523357 -0.000198213)
(6.60298e-05 -0.000111307 -0.000131979)
(0.00082877 -0.000194455 -0.000126472)
(0.00191494 -0.000329886 -0.000111501)
(0.00321103 -0.000440041 -8.45678e-05)
(0.00463359 -0.000535823 -5.55498e-05)
(0.00611949 -0.000616079 -2.85097e-05)
(0.0076185 -0.00068345 -7.97838e-06)
(0.00908956 -0.00074079 6.7292e-06)
(0.000203435 -0.000347806 -0.000451941)
(0.000985185 -0.000676819 -0.000285927)
(0.00204163 -0.00107688 -0.000241567)
(0.00329784 -0.00138626 -0.000130647)
(0.00468734 -0.00163114 -2.54095e-05)
(0.00614776 -0.00181341 7.1634e-05)
(0.00763105 -0.00194673 0.000148316)
(0.00910092 -0.0020511 0.000199726)
(0.000482314 -0.000605062 -0.000305258)
(0.00112348 -0.00115071 -0.000271871)
(0.00214906 -0.00168488 -0.000191079)
(0.00333593 -0.0020806 -6.94741e-05)
(0.00466543 -0.00237287 5.4942e-05)
(0.00607398 -0.00257226 0.000169612)
(0.00751994 -0.00270149 0.000262535)
(0.00896922 -0.00278474 0.00032003)
(0.000490153 -0.000611152 -0.000150383)
(0.00116636 -0.00113194 -0.000149477)
(0.00213275 -0.00165983 -9.77729e-05)
(0.00327419 -0.00205283 -1.41167e-05)
(0.00455067 -0.00233916 7.65722e-05)
(0.00591119 -0.00253219 0.000161566)
(0.00731597 -0.00265395 0.000229431)
(0.00873813 -0.00273204 0.000267265)
(0.000490515 -0.00061371 -6.60607e-05)
(0.00115939 -0.00110642 -6.39671e-05)
(0.00209985 -0.00161593 -2.81966e-05)
(0.00320654 -0.00199919 2.831e-05)
(0.00444602 -0.00227864 9.18778e-05)
(0.00577119 -0.00246736 0.000152077)
(0.0071449 -0.00258623 0.000199365)
(0.00854008 -0.00266234 0.000221003)
(0.000482508 -0.000606468 -2.26591e-05)
(0.00113771 -0.00108023 -1.61624e-05)
(0.00205741 -0.00157383 1.13015e-05)
(0.00313939 -0.00194608 5.0971e-05)
(0.00435277 -0.00221839 9.52529e-05)
(0.00565259 -0.00240263 0.00013714)
(0.00700284 -0.00251854 0.000169078)
(0.0083764 -0.00259265 0.000180046)
(0.000472204 -0.000595891 -2.43345e-06)
(0.00111341 -0.00105681 6.42746e-06)
(0.00201565 -0.00153826 2.77729e-05)
(0.00307906 -0.00190151 5.59287e-05)
(0.00427353 -0.00216743 8.66268e-05)
(0.00555489 -0.00234731 0.000115294)
(0.00688752 -0.00246008 0.000136395)
(0.00824382 -0.00253181 0.000141289)
(0.00046295 -0.00058593 4.87639e-06)
(0.00109242 -0.00103812 1.33797e-05)
(0.00198093 -0.00151085 2.89103e-05)
(0.00303056 -0.00186751 4.80406e-05)
(0.00421141 -0.00212851 6.84054e-05)
(0.00547957 -0.00230477 8.71232e-05)
(0.00679937 -0.00241474 0.000100442)
(0.00814278 -0.00248418 0.000102246)
(0.000456262 -0.000578559 5.19307e-06)
(0.00107747 -0.00102522 1.11752e-05)
(0.00195653 -0.00149229 2.06629e-05)
(0.00299693 -0.00184469 3.18552e-05)
(0.00416879 -0.0021024 4.35649e-05)
(0.00542831 -0.00227613 5.41917e-05)
(0.00673965 -0.00238406 6.15654e-05)
(0.00807445 -0.00245176 6.20452e-05)
(0.000452795 -0.000574696 2.07395e-06)
(0.00106977 -0.00101866 4.21399e-06)
(0.00194402 -0.00148293 7.40854e-06)
(0.00297976 -0.00183324 1.11006e-05)
(0.00414714 -0.00208931 1.49295e-05)
(0.00540235 -0.00226175 1.83811e-05)
(0.00670947 -0.00236863 2.07457e-05)
(0.00803992 -0.00243541 2.08107e-05)
(0.00993347 0.00187902 -0.000386756)
(0.00969706 0.00189407 -0.000330952)
(0.00950588 0.00190857 -0.000279739)
(0.00934432 0.00191559 -0.000229897)
(0.00921057 0.00191964 -0.000180789)
(0.00910693 0.00192194 -0.000130713)
(0.00903609 0.00192326 -7.92104e-05)
(0.00900005 0.00192374 -2.65485e-05)
(0.00973131 0.00054819 -0.0001864)
(0.00950361 0.000567943 -0.000164729)
(0.009311 0.000591069 -0.000144887)
(0.00914636 0.000613047 -0.000122064)
(0.00900958 0.00063178 -9.71591e-05)
(0.00890349 0.00064632 -7.05925e-05)
(0.00883102 0.000656236 -4.28338e-05)
(0.00879425 0.000661287 -1.43556e-05)
(0.00964938 -0.000758731 -2.66787e-06)
(0.0094221 -0.000724895 -1.84582e-05)
(0.0092245 -0.000686407 -2.57231e-05)
(0.00905545 -0.000647323 -2.64706e-05)
(0.00891583 -0.000612569 -2.28993e-05)
(0.00880804 -0.000584981 -1.71696e-05)
(0.00873465 -0.000566024 -1.05061e-05)
(0.00869746 -0.000556371 -3.52315e-06)
(0.00968219 -0.00208683 0.000184948)
(0.00944164 -0.00204042 0.000137217)
(0.00923544 -0.00198437 0.000104323)
(0.00906199 -0.0019258 8.00475e-05)