/*--------------------------------*- C++ -*----------------------------------*\
| =========                 |                                                 |
| \\      /  F ield         | foam-extend: Open Source CFD                    |
|  \\    /   O peration     | Version:     3.1                                |
|   \\  /    A nd           | Web:         http://www.extend-project.de       |
|    \\/     M anipulation  |                                                 |
\*---------------------------------------------------------------------------*/
FoamFile
{
    version     2.0;
    format      ascii;
    class       volVectorField;
    location    "1.5";
    object      D_0;
}
// * * * * * * * * * * * * * * * * * * * * * * * * * * * * * * * * * * * * * //

dimensions      [0 1 0 0 0 0 0];

internalField   nonuniform List<vector> 
256
(
(0.000351522 0.000222429 0.000373829)
(0.000156016 4.27865e-05 0.000113155)
(0.000137394 -6.55207e-05 -0.000133414)
(0.00029132 -0.000249526 -0.000413121)
(0.00144525 0.000918208 0.000299747)
(0.00119809 0.000245209 0.000113298)
(0.00115033 -0.000290558 -0.000171963)
(0.00129187 -0.000967337 -0.000384877)
(0.00281564 0.00141621 0.000206117)
(0.00256624 0.000408715 6.15267e-05)
(0.00250182 -0.000480253 -0.000146628)
(0.00261398 -0.00150098 -0.000314945)
(0.00443985 0.00179786 7.45922e-05)
(0.00421301 0.000522083 9.89855e-06)
(0.00413724 -0.000648768 -0.000111899)
(0.0042024 -0.00194108 -0.000199924)
(0.00623104 0.00205236 -5.60601e-05)
(0.00602562 0.000584844 -3.99705e-05)
(0.00594199 -0.000791796 -7.31924e-05)
(0.0059683 -0.00227447 -7.96516e-05)
(0.00810885 0.00220375 -0.000172322)
(0.00792369 0.000606484 -8.40542e-05)
(0.00783549 -0.000912297 -3.82264e-05)
(0.00783157 -0.00251961 2.99838e-05)
(0.0100086 0.00227582 -0.000264429)
(0.00983855 0.000596714 -0.00012271)
(0.00974847 -0.00101255 -1.16e-05)
(0.00972701 -0.00269319 0.000116887)
(0.0118958 0.00229245 -0.000331626)
(0.011721 0.000567507 -0.000158228)
(0.0116268 -0.00109547 3.63773e-06)
(0.0116075 -0.00281545 0.000169319)
(0.000384143 0.000219724 0.000179909)
(0.000193177 4.35275e-05 5.70183e-05)
(0.000174346 -6.13469e-05 -7.61454e-05)
(0.000318331 -0.000236276 -0.000215842)
(0.00151301 0.000908224 0.000162576)
(0.00123627 0.000245067 5.62066e-05)
(0.00118915 -0.000283179 -0.000109141)
(0.00135869 -0.000951007 -0.000233334)
(0.00285012 0.00142673 0.000104726)
(0.00259993 0.00041663 2.47295e-05)
(0.00253496 -0.000481742 -0.000100683)
(0.00264418 -0.00150484 -0.00019591)
(0.00442729 0.00181465 1.59579e-05)
(0.00420153 0.00053483 -1.19056e-05)
(0.00412443 -0.000648636 -7.91482e-05)
(0.004183 -0.00194465 -0.000121322)
(0.00616247 0.00207446 -7.81319e-05)
(0.00596129 0.000602496 -4.86028e-05)
(0.00587569 -0.00078689 -5.30319e-05)
(0.00589121 -0.00227278 -3.66425e-05)
(0.00798594 0.00222809 -0.000164201)
(0.00780643 0.000627856 -8.21648e-05)
(0.00771616 -0.000899889 -2.88925e-05)
(0.00769986 -0.00250775 4.21641e-05)
(0.00983836 0.0022999 -0.000233953)
(0.00967633 0.000620048 -0.000112051)
(0.00958504 -0.000991439 -1.20243e-05)
(0.00955 -0.00266844 0.000103335)
(0.0116913 0.00231464 -0.000283796)
(0.0115256 0.000591015 -0.000138662)
(0.0114319 -0.00106627 -8.14099e-06)
(0.011401 -0.00277805 0.000133591)
(0.000395822 0.00022522 8.25698e-05)
(0.000193917 4.61357e-05 2.59897e-05)
(0.00017296 -6.23146e-05 -4.23498e-05)
(0.000322865 -0.000240223 -0.000109017)
(0.00153193 0.000896616 7.43609e-05)
(0.00123254 0.000243628 2.13875e-05)
(0.00118252 -0.000274944 -6.52198e-05)
(0.00136856 -0.000933599 -0.0001286)
(0.00285195 0.00141204 3.61393e-05)
(0.00258418 0.000417419 3.94171e-07)
(0.00251564 -0.000469799 -6.3762e-05)
(0.00263574 -0.00147825 -0.000107327)
(0.00439894 0.00180028 -2.31834e-05)
(0.00416092 0.000538929 -2.52044e-05)
(0.00407983 -0.000631728 -5.15458e-05)
(0.00414337 -0.00190922 -6.00658e-05)
(0.00609848 0.00206461 -8.82658e-05)
(0.00588865 0.000611365 -5.1445e-05)
(0.00579887 -0.000764567 -3.51984e-05)
(0.00581551 -0.00223067 -3.62755e-06)
(0.00788565 0.00222501 -0.000149626)
(0.00770052 0.000642069 -7.62637e-05)
(0.00760629 -0.000871828 -1.99545e-05)
(0.00758825 -0.00245984 4.98714e-05)
(0.00970548 0.00230495 -0.000200784)
(0.00954075 0.000639376 -9.92129e-05)
(0.00944608 -0.000957828 -1.09891e-05)
(0.009407 -0.00261579 8.99563e-05)
(0.0115341 0.00232827 -0.000237441)
(0.0113681 0.000614686 -0.000120433)
(0.0112712 -0.00102813 -1.47687e-05)
(0.0112338 -0.00272212 0.000103291)
(0.000396674 0.000227815 3.403e-05)
(0.000187274 4.74298e-05 1.02542e-05)
(0.000164534 -6.25358e-05 -2.24353e-05)
(0.000318393 -0.000241632 -5.12935e-05)
(0.00152695 0.000888019 2.5453e-05)
(0.00121409 0.000243132 3.79133e-06)
(0.00116115 -0.000267077 -3.72324e-05)
(0.00135542 -0.000917252 -6.46789e-05)
(0.00283197 0.00139722 -2.18203e-06)
(0.00255156 0.000417978 -1.1242e-05)
(0.00247987 -0.000455226 -3.80069e-05)
(0.00260741 -0.00144809 -5.07288e-05)
(0.00435814 0.00178403 -4.27376e-05)
(0.00411002 0.000542188 -2.93202e-05)
(0.00402576 -0.000610949 -3.12218e-05)
(0.0040944 -0.00186848 -2.02225e-05)
(0.00603397 0.00205115 -8.76312e-05)
(0.0058165 0.000618755 -4.80628e-05)
(0.00572367 -0.0007381 -2.1354e-05)
(0.00574321 -0.00218244 1.68594e-05)
(0.0077969 0.00221731 -0.00013095)
(0.00760641 0.000654491 -6.6356e-05)
(0.00750938 -0.00084025 -1.23789e-05)
(0.00749229 -0.00240644 5.21394e-05)
(0.00959427 0.00230467 -0.000168182)
(0.00942629 0.000656955 -8.40781e-05)
(0.00932913 -0.000921862 -8.72254e-06)
(0.00928916 -0.002559 7.72118e-05)
(0.0114046 0.00233551 -0.000195206)
(0.0112367 0.000636945 -0.000101277)
(0.0111369 -0.000988834 -1.61895e-05)
(0.0110967 -0.0026634 8.0446e-05)
(0.000394031 0.000228479 1.10739e-05)
(0.000180374 4.81218e-05 2.95234e-06)
(0.000156372 -6.23032e-05 -1.10539e-05)
(0.000311961 -0.000241122 -2.13635e-05)
(0.00151391 0.000881748 1.88991e-06)
(0.00119323 0.000243504 -3.56316e-06)
(0.00113806 -0.000260212 -2.00764e-05)
(0.00133621 -0.000903 -2.86173e-05)
(0.00280524 0.00138664 -1.86215e-05)
(0.0025168 0.000419547 -1.44986e-05)
(0.0024428 -0.000441912 -2.12347e-05)
(0.00257456 -0.00142216 -1.86289e-05)
(0.00431575 0.00177229 -4.66097e-05)
(0.00406064 0.000546136 -2.72394e-05)
(0.00397423 -0.000591753 -1.74857e-05)
(0.00404641 -0.00183313 1.34693e-06)
(0.00597495 0.00204129 -7.74448e-05)
(0.00575187 0.000626115 -4.05045e-05)
(0.0056571 -0.000713718 -1.17126e-05)
(0.00567917 -0.00214015 2.54873e-05)
(0.00772114 0.00221156 -0.000107654)
(0.00752648 0.000665901 -5.38058e-05)
(0.00742776 -0.000811421 -6.78966e-06)
(0.00741211 -0.00235931 4.82042e-05)
(0.00950251 0.0023042 -0.000134294)
(0.00933177 0.000672454 -6.72205e-05)
(0.0092331 -0.000889392 -6.16262e-06)
(0.00919341 -0.00250863 6.32627e-05)
(0.0112985 0.00234022 -0.00015383)
(0.0111287 0.000656111 -8.07137e-05)
(0.0110271 -0.000953602 -1.44158e-05)
(0.0109859 -0.00261106 6.14862e-05)
(0.000390945 0.000228364 1.50332e-06)
(0.000175 4.85141e-05 6.91098e-08)
(0.000150142 -6.1916e-05 -4.9106e-06)
(0.000306251 -0.000239944 -7.10105e-06)
(0.0015006 0.000877391 -6.63675e-06)
(0.00117549 0.000244246 -5.27565e-06)
(0.00111875 -0.000254794 -1.00182e-05)
(0.00131855 -0.00089176 -1.02302e-05)
(0.00278055 0.00137985 -2.11287e-05)
(0.00248722 0.000421575 -1.28455e-05)
(0.00241166 -0.00043132 -1.09427e-05)
(0.00254567 -0.0014023 -3.17598e-06)
(0.00427931 0.00176505 -3.97316e-05)
(0.0040197 0.000550196 -2.14188e-05)
(0.00393189 -0.000576413 -8.91409e-06)
(0.00400625 -0.00180611 9.56035e-06)
(0.00592673 0.00203545 -6.00532e-05)
(0.00569987 0.000632826 -3.03625e-05)
(0.0056039 -0.00069421 -5.69057e-06)
(0.00562777 -0.00210763 2.46974e-05)
(0.00766127 0.00220848 -8.01529e-05)
(0.0074637 0.0006756 -3.95169e-05)
(0.00736399 -0.000788383 -3.20799e-06)
(0.00734957 -0.00232275 3.86868e-05)
(0.00943128 0.00230449 -9.82092e-05)
(0.00925849 0.000685073 -4.90182e-05)
(0.00915898 -0.000863501 -3.8893e-06)
(0.00911988 -0.00246921 4.72814e-05)
(0.0112164 0.00234374 -0.000111562)
(0.011045 0.000671313 -5.87945e-05)
(0.0109424 -0.000925527 -1.09605e-05)
(0.0109011 -0.00256973 4.3981e-05)
(0.000388577 0.000228053 -1.21245e-06)
(0.000171473 4.87323e-05 -6.11761e-07)
(0.00014608 -6.15671e-05 -1.867e-06)
(0.00030221 -0.000238841 -1.43967e-06)
(0.00149056 0.00087463 -6.74676e-06)
(0.00116308 0.000244944 -4.06029e-06)
(0.00110536 -0.000251077 -4.39704e-06)
(0.00130574 -0.000884053 -2.43295e-06)
(0.00276242 0.00137589 -1.54545e-05)
(0.00246633 0.000423338 -8.54006e-06)
(0.00238979 -0.00042405 -4.94548e-06)
(0.00252491 -0.00138896 1.8509e-06)
(0.00425319 0.00176106 -2.61887e-05)
(0.00399093 0.000553463 -1.35196e-05)
(0.00390228 -0.00056587 -3.94609e-06)
(0.00397786 -0.00178805 8.99776e-06)
(0.00589286 0.00203246 -3.78332e-05)
(0.00566371 0.000637918 -1.87218e-05)
(0.00556706 -0.000680792 -2.33977e-06)
(0.00559203 -0.00208584 1.735e-05)
(0.00761989 0.00220719 -4.94156e-05)
(0.0074205 0.000682657 -2.41193e-05)
(0.00732024 -0.000772532 -1.24155e-06)
(0.00730667 -0.00229812 2.49374e-05)
(0.00938246 0.00230516 -5.99415e-05)
(0.00920836 0.000693995 -2.98192e-05)
(0.0091084 -0.000845688 -2.08068e-06)
(0.00906982 -0.00244248 2.92996e-05)
(0.0111602 0.00234623 -6.77679e-05)
(0.0109878 0.000681864 -3.57549e-05)
(0.0108846 -0.000906194 -6.7549e-06)
(0.0108435 -0.0025415 2.65848e-05)
(0.000387322 0.000227839 -7.1589e-07)
(0.000169742 4.88311e-05 -2.97881e-07)
(0.000144093 -6.13673e-05 -4.53181e-07)
(0.000300144 -0.000238205 -5.02499e-08)
(0.00148526 0.000873289 -2.66817e-06)
(0.00115677 0.00024535 -1.48387e-06)
(0.00109856 -0.00024919 -1.20754e-06)
(0.0012991 -0.000880144 -2.29792e-07)
(0.00275294 0.00137407 -5.5789e-06)
(0.0024556 0.000424339 -2.96947e-06)
(0.00237859 -0.000420364 -1.38545e-06)
(0.00251416 -0.00138228 1.21362e-06)
(0.00423962 0.00175931 -9.0972e-06)
(0.00397616 0.000555263 -4.60622e-06)
(0.00388711 -0.000560522 -1.08486e-06)
(0.00396323 -0.00177903 3.52394e-06)
(0.00587542 0.00203124 -1.29001e-05)
(0.00564522 0.000640652 -6.31773e-06)
(0.00554825 -0.000673982 -6.01013e-07)
(0.00557374 -0.00207495 6.19695e-06)
(0.00759875 0.00220677 -1.66929e-05)
(0.00739849 0.000686367 -8.10531e-06)
(0.00729799 -0.000764484 -2.97758e-07)
(0.00728484 -0.00228578 8.60061e-06)
(0.00935759 0.00230563 -2.01591e-05)
(0.00918287 0.000698617 -1.0008e-05)
(0.00908273 -0.000836636 -6.46651e-07)
(0.00904444 -0.00242902 9.92976e-06)
(0.0111316 0.00234746 -2.27432e-05)
(0.0109587 0.000687287 -1.19989e-05)
(0.0108553 -0.000896349 -2.27268e-06)
(0.0108144 -0.00252724 8.91006e-06)
)
;

boundaryField
{
    interface
    {
        type            tractionDisplacement;
        gradient        nonuniform List<vector> 
192
(
(0.0012504 8.90088e-08 -6.27537e-06)
(0.00125106 2.32615e-07 -7.48491e-06)
(0.0012496 5.25483e-07 -7.47543e-06)
(0.00124673 8.45864e-07 -7.27339e-06)
(0.00124237 1.23213e-06 -6.95727e-06)
(0.00123606 1.75972e-06 -6.48764e-06)
(0.00122701 2.65546e-06 -5.77696e-06)
(0.00121237 4.4017e-06 -4.57372e-06)
(0.00127836 1.58951e-07 -4.18175e-06)
(0.00127813 3.40733e-07 -4.98588e-06)
(0.00127606 6.81215e-07 -4.94782e-06)
(0.00127234 1.07974e-06 -4.77587e-06)
(0.0012667 1.57845e-06 -4.5173e-06)
(0.00125852 2.26978e-06 -4.14438e-06)
(0.00124668 3.43378e-06 -3.60938e-06)
(0.00122774 5.61186e-06 -2.83028e-06)
(0.0012969 2.0556e-07 -2.92788e-06)
(0.00129628 4.22773e-07 -3.50022e-06)
(0.00129375 8.10625e-07 -3.4639e-06)
(0.00128935 1.27314e-06 -3.32432e-06)
(0.00128271 1.85533e-06 -3.11929e-06)
(0.00127309 2.65704e-06 -2.83373e-06)
(0.00125927 3.97152e-06 -2.44508e-06)
(0.00123752 6.33252e-06 -1.9299e-06)
(0.00131022 2.36666e-07 -2.12187e-06)
(0.00130939 4.82114e-07 -2.53952e-06)
(0.00130652 9.12912e-07 -2.50899e-06)
(0.00130157 1.426e-06 -2.39958e-06)
(0.00129415 2.06871e-06 -2.2415e-06)
(0.00128345 2.94405e-06 -2.02736e-06)
(0.00126819 4.35007e-06 -1.74696e-06)
(0.00124452 6.81512e-06 -1.39307e-06)
(0.00131978 2.59652e-07 -1.51365e-06)
(0.00131882 5.26652e-07 -1.81147e-06)
(0.00131569 9.91037e-07 -1.78752e-06)
(0.00131032 1.54199e-06 -1.7059e-06)
(0.0013023 2.22756e-06 -1.58946e-06)
(0.00129082 3.15197e-06 -1.43486e-06)
(0.00127453 4.6157e-06 -1.23756e-06)
(0.00124954 7.14639e-06 -9.95544e-07)
(0.00132642 2.76131e-07 -1.01788e-06)
(0.00132536 5.58719e-07 -1.21811e-06)
(0.00132204 1.04754e-06 -1.20117e-06)
(0.00131638 1.62535e-06 -1.14496e-06)
(0.00130794 2.34023e-06 -1.06545e-06)
(0.0012959 3.29691e-06 -9.61283e-07)
(0.00127891 4.79762e-06 -8.30326e-07)
(0.00125304 7.37104e-06 -6.71486e-07)
(0.00133063 2.87035e-07 -5.86262e-07)
(0.00132951 5.79709e-07 -7.01327e-07)
(0.00132607 1.08477e-06 -6.91544e-07)
(0.00132021 1.68017e-06 -6.58841e-07)
(0.00131151 2.41383e-06 -6.12817e-07)
(0.00129912 3.39091e-06 -5.5309e-07)
(0.00128169 4.9157e-06 -4.77739e-07)
(0.00125526 7.51474e-06 -3.82182e-07)
(0.00133265 2.92824e-07 -1.90632e-07)
(0.00133149 5.90077e-07 -2.27698e-07)
(0.001328 1.10224e-06 -2.24725e-07)
(0.00132205 1.70638e-06 -2.14081e-07)
(0.00131322 2.44881e-06 -1.99112e-07)
(0.00130067 3.43614e-06 -1.79825e-07)
(0.00128303 4.97701e-06 -1.55001e-07)
(0.00125626 7.58408e-06 -1.20792e-07)
(1.09308e-05 7.23725e-08 0.00114973)
(1.30776e-05 1.27851e-07 0.00114889)
(1.31548e-05 1.98457e-07 0.00114824)
(1.29808e-05 2.92527e-07 0.0011473)
(1.2715e-05 4.04896e-07 0.00114595)
(1.23458e-05 5.36693e-07 0.00114413)
(1.18492e-05 6.86119e-07 0.00114175)
(1.13079e-05 8.03277e-07 0.00113874)
(1.00547e-05 2.11513e-08 0.0010997)
(1.20342e-05 3.77271e-08 0.00109949)
(1.21003e-05 5.67502e-08 0.0010993)
(1.19489e-05 8.24212e-08 0.00109902)
(1.17254e-05 1.12105e-07 0.00109863)
(1.14243e-05 1.44074e-07 0.00109811)
(1.10382e-05 1.71046e-07 0.00109746)
(1.0708e-05 1.6209e-07 0.00109671)
(1.00418e-05 -2.70428e-08 0.00105277)
(1.20188e-05 -4.56996e-08 0.00105298)
(1.20844e-05 -6.9588e-08 0.00105321)
(1.1933e-05 -1.00411e-07 0.00105354)
(1.171e-05 -1.3707e-07 0.001054)
(1.141e-05 -1.80176e-07 0.00105463)
(1.10258e-05 -2.2871e-07 0.00105544)
(1.06983e-05 -2.6355e-07 0.00105648)
(1.09054e-05 -8.04064e-08 0.00100291)
(1.30452e-05 -1.36982e-07 0.00100376)
(1.312e-05 -2.11694e-07 0.00100444)
(1.29457e-05 -3.09713e-07 0.00100544)
(1.26804e-05 -4.27843e-07 0.00100685)
(1.23126e-05 -5.69225e-07 0.00100876)
(1.18188e-05 -7.38586e-07 0.00101129)
(1.12818e-05 -8.99354e-07 0.00101456)
(-0.000903606 -9.63547e-08 6.85177e-06)
(-0.000902881 -2.51564e-07 8.12936e-06)
(-0.000904348 -5.72774e-07 8.11249e-06)
(-0.00090722 -9.20022e-07 7.89131e-06)
(-0.000911576 -1.33875e-06 7.54482e-06)
(-0.000917854 -1.91504e-06 7.02877e-06)
(-0.00092686 -2.91625e-06 6.2435e-06)
(-0.00094155 -4.95238e-06 4.89368e-06)
(-0.000876477 -1.72336e-07 4.42126e-06)
(-0.000876696 -3.68407e-07 5.23941e-06)
(-0.000878763 -7.40343e-07 5.19106e-06)
(-0.000882477 -1.17274e-06 5.00456e-06)
(-0.000888098 -1.71422e-06 4.72407e-06)
(-0.000896245 -2.4707e-06 4.31857e-06)
(-0.000908024 -3.77243e-06 3.7342e-06)
(-0.000927051 -6.30466e-06 2.87503e-06)
(-0.000858904 -2.23527e-07 3.02815e-06)
(-0.000859518 -4.57468e-07 3.59773e-06)
(-0.000862036 -8.80012e-07 3.55226e-06)
(-0.00086643 -1.38156e-06 3.40144e-06)
(-0.000873045 -2.0136e-06 3.18024e-06)
(-0.000882602 -2.89053e-06 2.87178e-06)
(-0.000896351 -4.35875e-06 2.45083e-06)
(-0.000918167 -7.09737e-06 1.88924e-06)
(-0.00084644 -2.57774e-07 2.16159e-06)
(-0.000847264 -5.21851e-07 2.57079e-06)
(-0.000850126 -9.90306e-07 2.53274e-06)
(-0.00085506 -1.54618e-06 2.41474e-06)
(-0.000862449 -2.24345e-06 2.24466e-06)
(-0.000873069 -3.20009e-06 2.01421e-06)
(-0.000888236 -4.76849e-06 1.71208e-06)
(-0.000911949 -7.62329e-06 1.32891e-06)
(-0.000837595 -2.83051e-07 1.52365e-06)
(-0.00083856 -5.70096e-07 1.81175e-06)
(-0.000841682 -1.07445e-06 1.78199e-06)
(-0.000847026 -1.67087e-06 1.69407e-06)
(-0.000854997 -2.41412e-06 1.56902e-06)
(-0.000866396 -3.42352e-06 1.40308e-06)
(-0.00088257 -5.05455e-06 1.19126e-06)
(-0.000907581 -7.98206e-06 9.30362e-07)
(-0.000831511 -3.01135e-07 1.01526e-06)
(-0.000832571 -6.04765e-07 1.20705e-06)
(-0.000835879 -1.13523e-06 1.18601e-06)
(-0.000841519 -1.76034e-06 1.1255e-06)
(-0.000849902 -2.53489e-06 1.04024e-06)
(-0.000861845 -3.57878e-06 9.28656e-07)
(-0.000878708 -5.24964e-06 7.88457e-07)
(-0.000904589 -8.22417e-06 6.17775e-07)
(-0.000827684 -3.13066e-07 5.81157e-07)
(-0.000828802 -6.27424e-07 6.90621e-07)
(-0.00083223 -1.17521e-06 6.7841e-07)
(-0.000838059 -1.81904e-06 6.43226e-07)
(-0.000846706 -2.61357e-06 5.93914e-07)
(-0.000858993 -3.67914e-06 5.30029e-07)
(-0.000876286 -5.37574e-06 4.49542e-07)
(-0.000902707 -8.37837e-06 3.46949e-07)
(-0.000825854 -3.19376e-07 1.88378e-07)
(-0.000827006 -6.38536e-07 2.23531e-07)
(-0.000830489 -1.19398e-06 2.19753e-07)
(-0.000836409 -1.8471e-06 2.083e-07)
(-0.000845182 -2.65092e-06 1.92268e-07)
(-0.000857629 -3.72725e-06 1.71653e-07)
(-0.000875121 -5.44102e-06 1.45178e-07)
(-0.000901879 -8.45211e-06 1.08378e-07)
(1.13077e-05 -0.00113956 -9.86196e-07)
(1.18661e-05 -0.00114323 -8.3836e-07)
(1.23873e-05 -0.00114616 -6.69958e-07)
(1.27835e-05 -0.00114847 -5.21832e-07)
(1.30767e-05 -0.00115024 -3.91006e-07)
(1.32868e-05 -0.00115152 -2.72808e-07)
(1.34306e-05 -0.00115236 -1.66012e-07)
(1.35055e-05 -0.00115283 -5.78898e-08)
(1.07333e-05 -0.00109747 -3.23353e-07)
(1.10861e-05 -0.00109878 -2.9851e-07)
(1.14951e-05 -0.00109989 -2.50886e-07)
(1.18192e-05 -0.0011008 -2.02547e-07)
(1.20647e-05 -0.00110151 -1.55909e-07)
(1.22434e-05 -0.00110204 -1.10734e-07)
(1.23687e-05 -0.0011024 -6.67961e-08)
(1.24387e-05 -0.00110257 -2.25708e-08)
(1.07338e-05 -0.00105712 1.29308e-07)
(1.10872e-05 -0.00105654 1.24779e-07)
(1.1494e-05 -0.00105609 9.54584e-08)
(1.18153e-05 -0.00105577 6.74789e-08)
(1.20582e-05 -0.00105555 4.5425e-08)
(1.22347e-05 -0.00105541 2.87838e-08)
(1.23586e-05 -0.00105532 1.65634e-08)
(1.24277e-05 -0.00105528 5.73912e-09)
(1.13263e-05 -0.00101504 7.95589e-07)
(1.18919e-05 -0.00101212 6.58727e-07)
(1.24086e-05 -0.00100987 5.05786e-07)
(1.27978e-05 -0.00100817 3.78169e-07)
(1.3084e-05 -0.00100692 2.73189e-07)
(1.32882e-05 -0.00100604 1.85436e-07)
(1.34278e-05 -0.00100548 1.12584e-07)
(1.35008e-05 -0.00100515 4.00141e-08)
)
;
        traction        nonuniform List<vector> 
192
(
(26.7942 0.00190733 -0.134472)
(26.8085 0.00498462 -0.160391)
(26.7772 0.0112604 -0.160188)
(26.7157 0.0181257 -0.155858)
(26.6222 0.0264028 -0.149084)
(26.487 0.0377082 -0.139021)
(26.293 0.0569026 -0.123792)
(25.9793 0.0943222 -0.0980083)
(27.3935 0.0034061 -0.0896089)
(27.3884 0.00730142 -0.10684)
(27.3441 0.0145975 -0.106025)
(27.2645 0.0231373 -0.10234)
(27.1437 0.033824 -0.0967993)
(26.9683 0.0486382 -0.0888082)
(26.7147 0.0735809 -0.077344)
(26.3087 0.120254 -0.0606489)
(27.7907 0.00440487 -0.0627403)
(27.7773 0.00905942 -0.0750048)
(27.7233 0.0173705 -0.0742265)
(27.6289 0.0272816 -0.0712353)
(27.4865 0.039757 -0.066842)
(27.2806 0.0569365 -0.0607228)
(26.9843 0.085104 -0.0523946)
(26.5182 0.135697 -0.0413549)
(28.0762 0.00507141 -0.0454687)
(28.0584 0.010331 -0.0544183)
(27.997 0.0195624 -0.0537641)
(27.8909 0.0305572 -0.0514196)
(27.7317 0.0443295 -0.0480322)
(27.5026 0.0630869 -0.0434433)
(27.1755 0.0932158 -0.0374349)
(26.6683 0.146038 -0.0298516)
(28.2811 0.00556398 -0.0324353)
(28.2603 0.0112854 -0.0388172)
(28.1933 0.0212365 -0.038304)
(28.0783 0.0330426 -0.0365551)
(27.9065 0.0477333 -0.0340599)
(27.6604 0.0675421 -0.0307469)
(27.3113 0.0989078 -0.0265191)
(26.7759 0.153137 -0.0213331)
(28.4234 0.00591708 -0.0218117)
(28.4006 0.0119725 -0.0261023)
(28.3295 0.0224473 -0.0257394)
(28.2081 0.034829 -0.0245348)
(28.0273 0.0501478 -0.0228311)
(27.7694 0.0706481 -0.0205989)
(27.4052 0.102806 -0.0177927)
(26.8508 0.157951 -0.014389)
(28.5135 0.00615074 -0.0125628)
(28.4894 0.0124223 -0.0150284)
(28.4158 0.023245 -0.0148188)
(28.2903 0.0360036 -0.014118)
(28.1037 0.0517248 -0.0131318)
(27.8383 0.0726623 -0.0118519)
(27.4647 0.105336 -0.0102373)
(26.8984 0.16103 -0.00818961)
(28.5567 0.00627479 -0.00408497)
(28.532 0.0126445 -0.00487923)
(28.4571 0.0236193 -0.00481554)
(28.3296 0.0365652 -0.00458744)
(28.1404 0.0524745 -0.00426669)
(27.8714 0.0736316 -0.00385339)
(27.4935 0.10665 -0.00332146)
(26.9199 0.162516 -0.00258841)
(0.234232 0.00155084 24.637)
(0.280235 0.00273965 24.6191)
(0.281888 0.00425265 24.6052)
(0.278159 0.00626843 24.5849)
(0.272465 0.00867633 24.5561)
(0.264553 0.0115006 24.5171)
(0.253912 0.0147025 24.4661)
(0.242312 0.0172131 24.4015)
(0.215458 0.000453242 23.565)
(0.257875 0.000808438 23.5605)
(0.259292 0.00121608 23.5564)
(0.256048 0.00176617 23.5504)
(0.251258 0.00240225 23.542)
(0.244806 0.00308729 23.5309)
(0.236532 0.00366528 23.517)
(0.229457 0.00347336 23.5009)
(0.215181 -0.00057949 22.5593)
(0.257546 -0.000979277 22.564)
(0.258951 -0.00149117 22.5688)
(0.255708 -0.00215167 22.5758)
(0.250929 -0.00293722 22.5858)
(0.244501 -0.00386092 22.5992)
(0.236268 -0.00490093 22.6167)
(0.22925 -0.00564749 22.6389)
(0.233687 -0.00172299 21.4909)
(0.279539 -0.00293532 21.5091)
(0.281144 -0.00453631 21.5238)
(0.277407 -0.00663671 21.5451)
(0.271722 -0.00916805 21.5754)
(0.263841 -0.0121977 21.6164)
(0.253261 -0.0158268 21.6704)
(0.241752 -0.0192719 21.7405)
(-19.363 -0.00206474 0.146824)
(-19.3475 -0.00539066 0.174201)
(-19.3789 -0.0122737 0.173839)
(-19.4404 -0.0197148 0.1691)
(-19.5338 -0.0286875 0.161675)
(-19.6683 -0.0410367 0.150616)
(-19.8613 -0.0624911 0.133789)
(-20.1761 -0.106122 0.104865)
(-18.7816 -0.00369291 0.0947413)
(-18.7863 -0.00789443 0.112273)
(-18.8306 -0.0158645 0.111237)
(-18.9102 -0.0251302 0.107241)
(-19.0307 -0.0367334 0.10123)
(-19.2052 -0.0529437 0.0925409)
(-19.4577 -0.0808377 0.0800185)
(-19.8654 -0.1351 0.0616077)
(-18.4051 -0.00478987 0.064889)
(-18.4182 -0.00980289 0.0770943)
(-18.4722 -0.0188574 0.0761199)
(-18.5664 -0.0296049 0.0728881)
(-18.7081 -0.0431486 0.0681481)
(-18.9129 -0.06194 0.0615382)
(-19.2075 -0.0934018 0.0525179)
(-19.675 -0.152086 0.0404836)
(-18.138 -0.00552373 0.0463197)
(-18.1556 -0.0111825 0.0550883)
(-18.217 -0.0212208 0.054273)
(-18.3227 -0.0331325 0.0517444)
(-18.481 -0.048074 0.0480998)
(-18.7086 -0.0685733 0.0431617)
(-19.0336 -0.102182 0.0366875)
(-19.5418 -0.163356 0.0284766)
(-17.9485 -0.00606538 0.0326497)
(-17.9691 -0.0122163 0.0388231)
(-18.036 -0.023024 0.0381856)
(-18.1506 -0.0358044 0.0363015)
(-18.3214 -0.0517312 0.0336219)
(-18.5656 -0.0733611 0.0300661)
(-18.9122 -0.108312 0.0255271)
(-19.4482 -0.171044 0.0199363)
(-17.8181 -0.00645288 0.0217555)
(-17.8408 -0.0129593 0.0258653)
(-17.9117 -0.0243264 0.0254145)
(-18.0325 -0.0377215 0.0241178)
(-18.2122 -0.0543192 0.0222908)
(-18.4681 -0.0766882 0.0198998)
(-18.8294 -0.112492 0.0168955)
(-19.3841 -0.176232 0.013238)
(-17.7361 -0.00670857 0.0124534)
(-17.7601 -0.0134448 0.014799)
(-17.8335 -0.0251831 0.0145374)
(-17.9584 -0.0389794 0.0137834)
(-18.1437 -0.0560052 0.0127267)
(-18.407 -0.0788387 0.0113578)
(-18.7775 -0.115194 0.00963305)
(-19.3437 -0.179537 0.00743463)
(-17.6969 -0.00684377 0.00403667)
(-17.7216 -0.0136829 0.00478996)
(-17.7962 -0.0255853 0.00470898)
(-17.9231 -0.0395806 0.00446357)
(-18.111 -0.0568055 0.00412003)
(-18.3778 -0.0798697 0.00367828)
(-18.7526 -0.116593 0.00311095)
(-19.326 -0.181117 0.00232238)
(0.242309 -24.4191 -0.0211328)
(0.254273 -24.4977 -0.0179648)
(0.265441 -24.5605 -0.0143563)
(0.273931 -24.61 -0.0111821)
(0.280215 -24.6479 -0.00837869)
(0.284717 -24.6755 -0.00584588)
(0.287799 -24.6935 -0.0035574)
(0.289404 -24.7035 -0.0012405)
(0.229999 -23.5171 -0.006929)
(0.237559 -23.5453 -0.00639663)
(0.246324 -23.5691 -0.00537612)
(0.253268 -23.5885 -0.00434029)
(0.25853 -23.6038 -0.00334091)
(0.262358 -23.6152 -0.00237288)
(0.265043 -23.6228 -0.00143135)
(0.266544 -23.6265 -0.00048366)
(0.23001 -22.6525 0.00277088)
(0.237582 -22.6402 0.00267384)
(0.2463 -22.6305 0.00204554)
(0.253185 -22.6237 0.00144598)
(0.25839 -22.6189 0.000973392)
(0.262173 -22.6158 0.000616796)
(0.264827 -22.614 0.00035493)
(0.266308 -22.6131 0.000122981)
(0.242706 -21.7508 0.0170483)
(0.254825 -21.6882 0.0141156)
(0.265899 -21.64 0.0108383)
(0.274239 -21.6037 0.00810362)
(0.280372 -21.5769 0.00585405)
(0.284748 -21.558 0.00397363)
(0.287739 -21.5459 0.00241252)
(0.289303 -21.5389 0.000857445)
)
;
        pressure        uniform 0;
        value           nonuniform List<vector> 
192
(
(0.000759351 0.000777165 0.000380863)
(0.00164156 0.00146696 0.000316211)
(0.00303523 0.00213561 0.000201768)
(0.00462257 0.00261626 3.8219e-05)
(0.00638808 0.00294291 -0.000124904)
(0.00824099 0.00313111 -0.000271271)
(0.0101254 0.00321669 -0.000386972)
(0.0120032 0.00324868 -0.000466738)
(0.000797955 0.000801421 0.000183987)
(0.00173902 0.0014514 0.000173284)
(0.00307238 0.00212126 0.000103484)
(0.00461577 0.00260651 -6.10228e-06)
(0.00632329 0.00293751 -0.000122564)
(0.00812248 0.00313158 -0.000230576)
(0.00995943 0.00322311 -0.000318859)
(0.0118022 0.00326367 -0.000380402)
(0.000822567 0.000820762 8.13798e-05)
(0.00176761 0.0014365 7.21519e-05)
(0.00308153 0.00209136 2.56808e-05)
(0.00459161 0.00257416 -4.65296e-05)
(0.00626075 0.00290853 -0.000126714)
(0.00802196 0.00311109 -0.000203147)
(0.00982529 0.00321424 -0.00026763)
(0.0116415 0.00326973 -0.000313734)
(0.000830328 0.000826835 3.0645e-05)
(0.00176995 0.00142332 1.76299e-05)
(0.00306899 0.002067 -1.69714e-05)
(0.00455672 0.00254558 -6.65413e-05)
(0.00620033 0.002882 -0.000121626)
(0.00793574 0.00309107 -0.00017524)
(0.00971544 0.00320356 -0.000221977)
(0.0115118 0.00326998 -0.0002565)
(0.000830136 0.000826338 7.35134e-06)
(0.00176147 0.00141224 -7.06714e-06)
(0.00304742 0.0020493 -3.34533e-05)
(0.00451902 0.00252535 -6.81011e-05)
(0.00614505 0.00286321 -0.000106033)
(0.0078627 0.00307673 -0.000143371)
(0.00962551 0.0031954 -0.000176828)
(0.0114064 0.0032687 -0.000202208)
(0.000827393 0.000823649 -1.56343e-06)
(0.00175076 0.00140362 -1.4169e-05)
(0.00302599 0.00203715 -3.31436e-05)
(0.00448582 0.0025122 -5.64917e-05)
(0.00609965 0.00285131 -8.16437e-05)
(0.00780506 0.00306774 -0.000106541)
(0.00955595 0.00319016 -0.000129271)
(0.0113253 0.00326747 -0.00014682)
(0.000824657 0.000821009 -3.16892e-06)
(0.00174207 0.00139775 -1.16133e-05)
(0.00300972 0.00202952 -2.3127e-05)
(0.00446164 0.00250436 -3.67413e-05)
(0.00606754 0.00284447 -5.12411e-05)
(0.00776516 0.00306268 -6.56343e-05)
(0.00950829 0.0031872 -7.89166e-05)
(0.0112699 0.00326669 -8.92803e-05)
(0.000823055 0.000819482 -1.38201e-06)
(0.00173732 0.00139479 -4.33715e-06)
(0.00300105 0.00202584 -8.20224e-06)
(0.00444897 0.00250071 -1.26886e-05)
(0.00605094 0.00284136 -1.74412e-05)
(0.00774474 0.00306042 -2.21645e-05)
(0.00948398 0.00318588 -2.65442e-05)
(0.0112417 0.00326622 -2.99779e-05)
(0.000326665 0.000410892 0.000589565)
(0.00139747 0.000857403 0.000333082)
(0.00280281 0.00136571 0.000260693)
(0.00446203 0.00172966 0.000102122)
(0.00629355 0.00198701 -4.32848e-05)
(0.00820753 0.00214608 -0.000173864)
(0.0101357 0.0022293 -0.000274619)
(0.0120427 0.00226533 -0.000353388)
(8.58957e-05 0.000116461 0.000162082)
(0.0010754 0.000224614 0.000125194)
(0.00248733 0.000392571 7.04594e-05)
(0.00417787 0.000499699 1.07827e-05)
(0.00603817 0.00056154 -4.3871e-05)
(0.00797862 0.000583202 -9.19669e-05)
(0.00992853 0.000573792 -0.000133313)
(0.0118379 0.000549702 -0.000175922)
(6.19032e-05 -0.000156891 -0.000188359)
(0.00102252 -0.00026881 -0.000182897)
(0.00241692 -0.000460122 -0.000161673)
(0.0040972 -0.000623499 -0.000122053)
(0.00594971 -0.000771161 -7.99205e-05)
(0.00788594 -0.000898693 -4.10622e-05)
(0.00983489 -0.00100742 -1.08826e-05)
(0.0117398 -0.00110026 1.21428e-05)
(0.000247457 -0.000482742 -0.000619882)
(0.00122858 -0.000913663 -0.000420416)
(0.00258106 -0.00145136 -0.000375763)
(0.0042062 -0.0018743 -0.000236682)
(0.0060124 -0.00221499 -0.000102882)
(0.00791221 -0.00247266 2.0837e-05)
(0.00983741 -0.00266327 0.000118399)
(0.0117377 -0.00281107 0.000184337)
(0.000618286 -0.000791655 -0.000429681)
(0.00142592 -0.0015179 -0.000418168)
(0.00274521 -0.00224026 -0.000333132)
(0.00428303 -0.002781 -0.000186529)
(0.00601326 -0.00318438 -3.28835e-05)
(0.00784778 -0.00346207 0.000109086)
(0.00972721 -0.00364376 0.000223125)
(0.0116042 -0.00376283 0.000293698)
(0.000639271 -0.000809657 -0.000224428)
(0.00151669 -0.00150415 -0.000248938)
(0.00277335 -0.00221899 -0.00020019)
(0.00426421 -0.0027571 -0.000103888)
(0.00593491 -0.00315317 4.31969e-06)
(0.00771504 -0.00342358 0.000106409)
(0.00954861 -0.00359775 0.000187623)
(0.0113976 -0.00371304 0.000233618)
(0.000651525 -0.000825549 -0.00011042)
(0.00153475 -0.00148487 -0.000128044)
(0.00277206 -0.00217692 -9.79869e-05)
(0.00422923 -0.00270299 -3.70002e-05)
(0.00586134 -0.00309073 3.53906e-05)
(0.00760362 -0.00335663 0.000104886)
(0.00940419 -0.00352896 0.000159602)
(0.0112264 -0.00364455 0.00018577)
(0.000650772 -0.000826705 -4.92833e-05)
(0.00152783 -0.0014636 -5.70152e-05)
(0.00275016 -0.00213694 -3.52811e-05)
(0.00418554 -0.00264962 4.94368e-06)
(0.00579261 -0.00302888 5.28201e-05)
(0.00750962 -0.00328998 9.90398e-05)
(0.00928681 -0.00346007 0.000134536)
(0.0110882 -0.00357518 0.000147572)
(0.000644852 -0.000821137 -1.8355e-05)
(0.00151248 -0.00144372 -1.93259e-05)
(0.00272166 -0.00210347 -2.73783e-06)
(0.00414153 -0.00260555 2.442e-05)
(0.00573166 -0.00297735 5.60664e-05)
(0.00743146 -0.00323366 8.63328e-05)
(0.00919201 -0.00340084 0.000108782)
(0.0109773 -0.00351437 0.000114335)
(0.000638277 -0.000814135 -4.37975e-06)
(0.00149696 -0.00142742 -2.26163e-06)
(0.00269541 -0.00207781 9.80771e-06)
(0.004104 -0.00257241 2.7638e-05)
(0.00568246 -0.00293853 4.78644e-05)
(0.00737052 -0.0031908 6.69032e-05)
(0.00911942 -0.00335515 8.04995e-05)
(0.010893 -0.00346672 8.23003e-05)
(0.000633153 -0.00080843 3.71894e-07)
(0.00148521 -0.00141602 2.76727e-06)
(0.00267609 -0.0020605 1.01733e-05)
(0.00407714 -0.00255035 2.03952e-05)
(0.00564807 -0.00291274 3.17427e-05)
(0.00732867 -0.00316217 4.227e-05)
(0.00907008 -0.00332436 4.9559e-05)
(0.0108359 -0.00343432 4.98569e-05)
(0.000630411 -0.000805321 5.78353e-07)
(0.00147899 -0.00141017 1.56239e-06)
(0.00266597 -0.00205178 4.06393e-06)
(0.00406322 -0.00253934 7.4049e-06)
(0.00563042 -0.00289988 1.10709e-05)
(0.00730735 -0.00314786 1.44442e-05)
(0.00904507 -0.00330893 1.6741e-05)
(0.010807 -0.00341798 1.67158e-05)
(0.0128532 0.0022922 -0.000343751)