/*--------------------------------*- C++ -*----------------------------------*\
| =========                 |                                                 |
| \\      /  F ield         | foam-extend: Open Source CFD                    |
|  \\    /   O peration     | Version:     3.1                                |
|   \\  /    A nd           | Web:         http://www.extend-project.de       |
|    \\/     M anipulation  |                                                 |
\*---------------------------------------------------------------------------*/
FoamFile
{
    version     2.0;
    format      ascii;
    class       pointVectorField;
    location    "1.5";
    object      pointD;
}
// * * * * * * * * * * * * * * * * * * * * * * * * * * * * * * * * * * * * * //

dimensions      [0 1 0 0 0 0 0];

internalField   nonuniform List<vector> 
405
(
(0 0 0)
(0 0 0)
(0 0 0)
(0 0 0)
(0 0 0)
(0.000936563 0.00092222 0.000329444)
(0.000591956 0.000305364 0.000219505)
(0.000464186 -1.14592e-05 -1.15005e-05)
(0.000520855 -0.000332597 -0.00024908)
(0.000771762 -0.000934795 -0.000379393)
(0.00184225 0.00135042 0.000160921)
(0.00155341 0.000547553 0.000118676)
(0.00139861 -1.0062e-05 -2.98811e-05)
(0.00144263 -0.000569511 -0.000191367)
(0.00161646 -0.00137363 -0.000267198)
(0.00302706 0.00179631 2.30036e-05)
(0.002749 0.000780402 3.53659e-05)
(0.0025951 -1.2088e-05 -4.73497e-05)
(0.00261636 -0.000808267 -0.000142071)
(0.00275388 -0.00183598 -0.000165953)
(0.00434694 0.00211342 -0.000140763)
(0.00410322 0.000948683 -5.86399e-05)
(0.00395741 -2.26992e-05 -6.03561e-05)
(0.00395745 -0.000998315 -7.40436e-05)
(0.00404547 -0.00217751 -2.88093e-05)
(0.00576519 0.00233425 -0.000287381)
(0.00555024 0.00106413 -0.000141862)
(0.00541325 -4.12108e-05 -7.00738e-05)
(0.00539705 -0.00114911 -9.45876e-06)
(0.00544719 -0.0024312 0.000100982)
(0.00722604 0.00247061 -0.000409584)
(0.00703416 0.0011337 -0.000211819)
(0.00690599 -6.61736e-05 -7.87265e-05)
(0.0068792 -0.00126492 4.58656e-05)
(0.00690295 -0.00260696 0.000213918)
(0.0086963 0.00255602 -0.000503526)
(0.00851694 0.0011712 -0.000270358)
(0.00839188 -9.44097e-05 -8.94349e-05)
(0.00836001 -0.00135552 8.66984e-05)
(0.0083727 -0.00273069 0.000298627)
(0.0101792 0.00260185 -0.000555409)
(0.0099736 0.00119352 -0.000306716)
(0.00981322 -0.000116604 -0.000100541)
(0.00979468 -0.00142507 0.00010074)
(0.00982504 -0.00281735 0.000331073)
(0 0 0)
(0 0 0)
(0 0 0)
(0 0 0)
(0 0 0)
(0.000970179 0.000884379 0.000173514)
(0.000640413 0.000279009 0.000119136)
(0.000536719 -5.71732e-06 -1.07484e-05)
(0.000578551 -0.000288362 -0.00014821)
(0.000815576 -0.000874717 -0.000219247)
(0.00185309 0.00140001 9.14608e-05)
(0.0015847 0.00058956 7.08984e-05)
(0.00145985 -3.53842e-06 -2.65234e-05)
(0.00148604 -0.0005959 -0.000133992)
(0.00164291 -0.00140684 -0.00017755)
(0.00297799 0.00184849 -2.29111e-05)
(0.00272529 0.00082702 3.41324e-06)
(0.00260208 -4.30753e-06 -4.06242e-05)
(0.00260624 -0.000837673 -9.45184e-05)
(0.00272298 -0.00186953 -9.31107e-05)
(0.0042399 0.00217121 -0.000150208)
(0.00401923 0.000999843 -6.88223e-05)
(0.003902 -1.22982e-05 -5.17062e-05)
(0.00388696 -0.00102729 -4.43604e-05)
(0.00395656 -0.00221137 1.19808e-05)
(0.00560033 0.00238783 -0.000269289)
(0.00540688 0.00111299 -0.000135791)
(0.00529657 -2.71798e-05 -6.05837e-05)
(0.00526701 -0.00116912 5.5706e-06)
(0.00530032 -0.00245412 0.000115673)
(0.00701142 0.00251741 -0.000370479)
(0.00683908 0.00117798 -0.00019313)
(0.00673539 -4.7754e-05 -6.91529e-05)
(0.00669668 -0.00127221 4.77716e-05)
(0.00670527 -0.00261497 0.000205786)
(0.00844238 0.00259191 -0.000447581)
(0.00828056 0.00120685 -0.000239713)
(0.00817759 -7.20152e-05 -8.01554e-05)
(0.00813591 -0.00134577 7.48452e-05)
(0.00813581 -0.00271806 0.000269815)
(0.00990564 0.00262951 -0.000487197)
(0.00971636 0.00122231 -0.000267209)
(0.0095766 -9.18734e-05 -9.30637e-05)
(0.00954883 -0.00140272 7.52597e-05)
(0.00956734 -0.00278919 0.000283705)
(0 0 0)
(0 0 0)
(0 0 0)
(0 0 0)
(0 0 0)
(0.000993132 0.000880946 7.29779e-05)
(0.000646869 0.000278428 5.22372e-05)
(0.000536279 -2.56007e-06 -1.0585e-05)
(0.00058067 -0.000281327 -7.84943e-05)
(0.000826606 -0.000865805 -0.000107472)
(0.00185999 0.00138132 2.20869e-05)
(0.00157538 0.00059024 2.17993e-05)
(0.00144285 2.59477e-06 -2.37265e-05)
(0.00147209 -0.000584634 -7.52486e-05)
(0.00163959 -0.00137853 -8.48534e-05)
(0.00294357 0.00182931 -5.76637e-05)
(0.00268412 0.000832661 -2.5574e-05)
(0.00255726 5.07726e-06 -3.54658e-05)
(0.0025602 -0.000824641 -5.09406e-05)
(0.00267833 -0.00183195 -2.7944e-05)
(0.00416329 0.00215519 -0.000149557)
(0.0039379 0.00100901 -7.84646e-05)
(0.00381835 1.02728e-06 -4.50606e-05)
(0.00380054 -0.00100954 -1.69462e-05)
(0.00386936 -0.00216746 4.56608e-05)
(0.0054804 0.00237657 -0.000238651)
(0.0052843 0.00112558 -0.000129133)
(0.00517276 -9.58565e-06 -5.31914e-05)
(0.00513939 -0.00114567 1.81065e-05)
(0.00516977 -0.00240434 0.000120523)
(0.0068521 0.00251216 -0.000316471)
(0.0066785 0.00119321 -0.000173571)
(0.00657474 -2.59119e-05 -6.15664e-05)
(0.00653163 -0.00124204 4.71713e-05)
(0.00653581 -0.00255993 0.00018561)
(0.00824976 0.00259408 -0.000376814)
(0.00808859 0.00122382 -0.000209693)
(0.00798675 -4.63981e-05 -7.28373e-05)
(0.00794044 -0.00130857 6.22614e-05)
(0.00793477 -0.00265864 0.000229266)
(0.00969224 0.0026368 -0.000405038)
(0.00950439 0.00124041 -0.000230077)
(0.0093653 -6.30728e-05 -8.84491e-05)
(0.00933092 -0.00135902 4.93395e-05)
(0.00934216 -0.00272474 0.000224151)
(0 0 0)
(0 0 0)
(0 0 0)
(0 0 0)
(0 0 0)
(0.000994385 0.000873694 1.69198e-05)
(0.000637236 0.000276572 1.61699e-05)
(0.000519879 -2.93741e-07 -9.1853e-06)
(0.000565582 -0.000274974 -3.73279e-05)
(0.000817531 -0.000851705 -4.22123e-05)
(0.00184485 0.00135809 -2.21732e-05)
(0.00154799 0.000584435 -6.6572e-06)
(0.00140712 8.2763e-06 -1.97588e-05)
(0.00143792 -0.000567583 -3.59979e-05)
(0.00161359 -0.0013441 -2.42561e-05)
(0.00290161 0.0018007 -7.9503e-05)
(0.00263226 0.000827401 -4.06847e-05)
(0.00249826 1.47957e-05 -2.92628e-05)
(0.00250146 -0.000799971 -2.04129e-05)
(0.0026258 -0.00178376 1.55965e-05)
(0.00409017 0.00212775 -0.000145402)
(0.00385771 0.0010065 -7.89743e-05)
(0.00373234 1.52006e-05 -3.73041e-05)
(0.00371366 -0.00097839 2.19307e-06)
(0.00378618 -0.00211058 6.66029e-05)
(0.00537576 0.0023542 -0.000210685)
(0.005175 0.00112735 -0.000116512)
(0.00505881 9.21646e-06 -4.45252e-05)
(0.00502379 -0.00110905 2.58358e-05)
(0.00505564 -0.00234176 0.000119087)
(0.00671805 0.00249735 -0.000269066)
(0.0065418 0.00119992 -0.000150313)
(0.0064346 -2.62268e-06 -5.24667e-05)
(0.00638922 -0.00120062 4.46971e-05)
(0.00639288 -0.00249369 0.000164415)
(0.00809012 0.0025886 -0.000315239)
(0.0079284 0.00123547 -0.000178221)
(0.00782405 -1.90923e-05 -6.35536e-05)
(0.0077746 -0.00126305 5.13371e-05)
(0.00776606 -0.00258994 0.000192373)
(0.00951455 0.00263986 -0.000335927)
(0.00932689 0.00125707 -0.000194147)
(0.00918433 -3.24035e-05 -7.97861e-05)
(0.00914435 -0.00131097 3.30442e-05)
(0.00915031 -0.00265496 0.000178629)
(0 0 0)
(0 0 0)
(0 0 0)
(0 0 0)
(0 0 0)
(0.000986086 0.000864201 -8.7257e-06)
(0.000623112 0.000274456 -8.59848e-07)
(0.000501556 1.68768e-06 -7.08203e-06)
(0.000547258 -0.000268628 -1.46832e-05)
(0.000801457 -0.00083485 -8.70687e-06)
(0.00182106 0.00133814 -4.057e-05)
(0.00151575 0.000578954 -1.89596e-05)
(0.00136935 1.36053e-05 -1.52147e-05)
(0.00140031 -0.000551173 -1.30342e-05)
(0.00158105 -0.00131228 7.33488e-06)
(0.00285724 0.00177617 -8.29507e-05)
(0.00257965 0.000821622 -4.37962e-05)
(0.00244036 2.40796e-05 -2.26143e-05)
(0.00244357 -0.000775419 -2.46788e-06)
(0.00257288 -0.00173992 3.64935e-05)
(0.00402302 0.00210358 -0.000130459)
(0.00378363 0.00100275 -7.14278e-05)
(0.00365371 2.87328e-05 -2.90811e-05)
(0.0036347 -0.000947259 1.26071e-05)
(0.00371119 -0.00205835 7.21949e-05)
(0.00528568 0.00233388 -0.000177849)
(0.00507957 0.00112724 -9.88995e-05)
(0.00495966 2.70499e-05 -3.52143e-05)
(0.00492395 -0.00107268 2.82376e-05)
(0.00495844 -0.00228394 0.000108578)
(0.00660624 0.00248294 -0.000221055)
(0.00642617 0.00120421 -0.000124222)
(0.00631606 1.92834e-05 -4.23227e-05)
(0.00626963 -0.00116007 3.99764e-05)
(0.00627446 -0.00243214 0.000139477)
(0.00795862 0.00258113 -0.000255904)
(0.00779459 0.00124419 -0.000145511)
(0.00768786 6.4068e-06 -5.23861e-05)
(0.00763666 -0.0012192 4.16768e-05)
(0.00762764 -0.00252577 0.000156702)
(0.00936738 0.0026384 -0.00027061)
(0.00917771 0.00127001 -0.000157477)
(0.0090318 -3.76635e-06 -6.71483e-05)
(0.00898842 -0.00126486 2.28716e-05)
(0.00899242 -0.00258922 0.000140412)
(0 0 0)
(0 0 0)
(0 0 0)
(0 0 0)
(0 0 0)
(0.000975312 0.000855086 -1.68121e-05)
(0.000609858 0.000272645 -6.97745e-06)
(0.000485876 3.39972e-06 -4.92602e-06)
(0.000531052 -0.000263079 -3.49459e-06)
(0.000785245 -0.000819189 5.56252e-06)
(0.00179684 0.0013226 -4.1668e-05)
(0.00148647 0.000574972 -2.08404e-05)
(0.00133667 1.82528e-05 -1.07915e-05)
(0.00136726 -0.00053755 -1.48576e-06)
(0.0015506 -0.00128601 1.91226e-05)
(0.00281694 0.00175779 -7.23091e-05)
(0.00253381 0.000817531 -3.85422e-05)
(0.00239108 3.21401e-05 -1.62233e-05)
(0.00239411 -0.000754959 5.76484e-06)
(0.00252655 -0.00170453 4.01631e-05)
(0.00396588 0.00208562 -0.00010579)
(0.00372137 0.00100024 -5.79344e-05)
(0.00358836 4.03843e-05 -2.11119e-05)
(0.0035692 -0.000921175 1.56751e-05)
(0.00364864 -0.00201624 6.47504e-05)
(0.00521186 0.00231867 -0.00013921)
(0.00500146 0.00112749 -7.73715e-05)
(0.00487897 4.22585e-05 -2.59584e-05)
(0.00484304 -0.0010421 2.57202e-05)
(0.00487985 -0.00223701 8.93623e-05)
(0.00651646 0.00247174 -0.000170088)
(0.00633305 0.00120775 -9.56056e-05)
(0.00622091 3.77833e-05 -3.17763e-05)
(0.00617406 -0.00112593 3.27239e-05)
(0.00618034 -0.00238173 0.000109813)
(0.0078538 0.00257443 -0.000195353)
(0.00768746 0.00125097 -0.000111147)
(0.007579 2.77583e-05 -4.0021e-05)
(0.00752697 -0.00118229 3.20841e-05)
(0.00751837 -0.0024727 0.000120093)
(0.0092496 0.00263571 -0.000205616)
(0.00905764 0.00127992 -0.000119814)
(0.00890924 2.01375e-05 -5.19551e-05)
(0.00886407 -0.00122593 1.60314e-05)
(0.00886767 -0.00253438 0.000105428)
(0 0 0)
(0 0 0)
(0 0 0)
(0 0 0)
(0 0 0)
(0.000965925 0.000847863 -1.52178e-05)
(0.000599674 0.000271324 -7.12325e-06)
(0.000474352 4.72422e-06 -3.02634e-06)
(0.000518927 -0.00025885 8.22962e-07)
(0.000772275 -0.000806958 8.65609e-06)
(0.00177718 0.00131157 -3.2356e-05)
(0.00146401 0.000572398 -1.65802e-05)
(0.00131223 2.1839e-05 -6.80801e-06)
(0.00134233 -0.000527511 2.63495e-06)
(0.00152684 -0.00126662 1.8532e-05)
(0.00278555 0.00174521 -5.24771e-05)
(0.00249904 0.000815066 -2.80786e-05)
(0.00235423 3.83235e-05 -1.0376e-05)
(0.00235703 -0.00073992 7.2715e-06)
(0.00249124 -0.00167884 3.23672e-05)
(0.00392264 0.00207355 -7.40643e-05)
(0.00367477 0.000998981 -4.05196e-05)
(0.00353985 4.9257e-05 -1.36646e-05)
(0.00352059 -0.000901967 1.33313e-05)
(0.00360192 -0.00198578 4.79665e-05)
(0.00515704 0.00230846 -9.55975e-05)
(0.00494367 0.00112816 -5.30475e-05)
(0.00481955 5.3749e-05 -1.70281e-05)
(0.00478356 -0.00101952 1.93206e-05)
(0.00482202 -0.00220295 6.33213e-05)
(0.0064505 0.00246406 -0.000115656)
(0.00626466 0.00121063 -6.49377e-05)
(0.00615121 5.16532e-05 -2.11501e-05)
(0.00610425 -0.00110065 2.32033e-05)
(0.00611173 -0.00234492 7.58304e-05)
(0.00777711 0.00256943 -0.000132211)
(0.00760892 0.00125596 -7.51625e-05)
(0.00749935 4.36644e-05 -2.69709e-05)
(0.00744698 -0.00115488 2.19496e-05)
(0.00743906 -0.00243368 8.15745e-05)
(0.00916325 0.0026331 -0.000138782)
(0.00896938 0.00128694 -8.08375e-05)
(0.0088193 3.7888e-05 -3.52755e-05)
(0.0087733 -0.00119688 1.04809e-05)
(0.00877719 -0.00249373 7.08382e-05)
(0 0 0)
(0 0 0)
(0 0 0)
(0 0 0)
(0 0 0)
(0.000959755 0.000843299 -8.64936e-06)
(0.000593385 0.000270528 -4.20367e-06)
(0.000467399 5.55876e-06 -1.42249e-06)
(0.000511536 -0.000256222 1.27878e-06)
(0.000764074 -0.000799284 5.66406e-06)
(0.00176461 0.00130499 -1.73971e-05)
(0.00145008 0.000570968 -9.00563e-06)
(0.00129728 2.4091e-05 -3.27114e-06)
(0.00132701 -0.000521393 2.34224e-06)
(0.00151195 -0.00125478 1.08652e-05)
(0.00276583 0.00173788 -2.74034e-05)
(0.00247754 0.000813794 -1.46878e-05)
(0.00233162 4.21919e-05 -5.04008e-06)
(0.00233425 -0.000730779 4.62201e-06)
(0.00246931 -0.00166329 1.77568e-05)
(0.00389581 0.00206662 -3.80295e-05)
(0.00364609 0.000998473 -2.07902e-05)
(0.00351012 5.47821e-05 -6.69599e-06)
(0.0034908 -0.00089029 7.50913e-06)
(0.00357315 -0.00196741 2.53625e-05)
(0.00512332 0.00230263 -4.86242e-05)
(0.00490825 0.00112879 -2.69502e-05)
(0.00478322 6.08685e-05 -8.42046e-06)
(0.00474723 -0.00100577 1.03098e-05)
(0.00478665 -0.0021824 3.27668e-05)
(0.00641011 0.00245961 -5.8537e-05)
(0.00622285 0.00121253 -3.28345e-05)
(0.00610867 6.02062e-05 -1.0556e-05)
(0.00606171 -0.00108523 1.20309e-05)
(0.00606994 -0.00232264 3.8721e-05)
(0.00773022 0.00256637 -6.67552e-05)
(0.00756092 0.00125903 -3.79188e-05)
(0.00745074 5.34377e-05 -1.35608e-05)
(0.00739827 -0.00113814 1.11739e-05)
(0.00739087 -0.00240996 4.12917e-05)
(0.00911039 0.00263123 -6.99845e-05)
(0.00891535 0.00129113 -4.07371e-05)
(0.00876434 4.87822e-05 -1.78047e-05)
(0.00871799 -0.00117906 5.24295e-06)
(0.00872222 -0.00246889 3.56777e-05)
(0 0 0)
(0 0 0)
(0 0 0)
(0 0 0)
(0 0 0)
(0.000957618 0.000841744 -0)
(0.000591266 0.000270262 0)
(0.000465082 5.84333e-06 0)
(0.000509061 -0.000255332 0)
(0.000761282 -0.000796679 0)
(0.0017603 0.0013028 -0)
(0.00144537 0.00057051 0)
(0.00129227 2.48575e-05 0)
(0.00132186 -0.000519339 0)
(0.00150689 -0.0012508 0)
(0.00275912 0.00173548 -0)
(0.00247028 0.000813404 0)
(0.00232401 4.35063e-05 0)
(0.00232657 -0.000727717 0)
(0.00246189 -0.00165809 0)
(0.00388673 0.00206436 -0)
(0.00363641 0.000998346 0)
(0.00350011 5.66555e-05 0)
(0.00348077 -0.000886378 0)
(0.00356345 -0.00196128 0)
(0.00511193 0.00230073 -0)
(0.00489632 0.00112905 0)
(0.00477101 6.3277e-05 0)
(0.00473502 -0.00100116 0)
(0.00477474 -0.00217553 0)
(0.00639649 0.00245816 -0)
(0.00620877 0.00121319 0)
(0.00609437 6.30937e-05 0)
(0.00604742 -0.00108006 0)
(0.00605591 -0.00231519 0)
(0.00771442 0.00256532 -0)
(0.00754476 0.00126006 0)
(0.00743439 5.67332e-05 0)
(0.0073819 -0.00113251 0)
(0.00737469 -0.00240202 0)
(0.00909256 0.00263052 -0)
(0.00889715 0.00129251 -0)
(0.00874586 5.24582e-05 -0)
(0.0086994 -0.00117306 0)
(0.00870377 -0.00246055 0)
)
;

boundaryField
{
    interface
    {
        type            calculated;
    }
    symmetry
    {
        type            symmetryPlane;
    }
    bottom
    {
        type            fixedValue;
        value           uniform (0 0 0);
    }
}


// ************************************************************************* //
