/*--------------------------------*- C++ -*----------------------------------*\
| =========                 |                                                 |
| \\      /  F ield         | foam-extend: Open Source CFD                    |
|  \\    /   O peration     | Version:     3.1                                |
|   \\  /    A nd           | Web:         http://www.extend-project.de       |
|    \\/     M anipulation  |                                                 |
\*---------------------------------------------------------------------------*/
FoamFile
{
    version     2.0;
    format      ascii;
    class       volSymmTensorField;
    location    "1.5";
    object      sigmaCauchy;
}
// * * * * * * * * * * * * * * * * * * * * * * * * * * * * * * * * * * * * * //

dimensions      [1 -1 -2 0 0 0 0];

internalField   nonuniform List<symmTensor> 
256
(
(173.874 77.2868 -1.45634 409.842 31.0771 199.933)
(24.1053 59.6579 -8.13128 80.4589 10.7577 30.8862)
(-49.5194 51.7905 -9.19045 -102.206 -12.8576 -51.4958)
(-195.881 46.6157 -4.84915 -386.141 -28.1239 -214.238)
(-77.4745 34.2113 -4.12446 117.409 -13.647 -23.4044)
(-30.5894 73.1126 -14.1368 41.8441 -5.53961 -11.1125)
(0.816167 67.5188 -14.5999 -53.1047 2.51393 -5.68814)
(39.5023 21.8253 -5.16754 -125.433 9.57952 4.83562)
(-29.5442 39.9281 -2.66018 146.044 -8.06226 24.9365)
(-31.2648 69.2989 -10.774 36.8632 -2.73269 -5.94332)
(-2.07058 64.6736 -11.2175 -47.8976 0.749608 -9.4995)
(-3.7476 26.2077 -3.60974 -144.357 5.25834 -34.2037)
(-40.9458 34.261 -3.16065 98.4795 -9.64969 12.0219)
(-32.1707 62.0639 -9.84219 23.8652 -2.72388 -6.99555)
(-1.01184 58.2938 -9.95876 -35.2574 1.93116 -6.0761)
(7.43951 22.9124 -3.64978 -98.4413 7.9074 -18.1629)
(-37.9414 29.1002 -3.03057 69.5104 -8.34903 12.4419)
(-30.5236 53.0211 -8.79755 14.4505 -1.97979 -5.7376)
(-2.35003 50.2469 -8.80112 -26.2763 2.21698 -5.75965)
(4.84643 20.4745 -3.34542 -70.1848 7.83367 -16.4914)
(-38.9131 22.4567 -3.2176 42.2982 -6.98871 9.37071)
(-29.9575 42.8125 -8.25564 5.8345 -1.4566 -5.66124)
(-3.2481 41.2798 -8.09887 -18.6554 2.3256 -5.48611)
(5.31422 17.1389 -3.28288 -44.4304 7.47068 -13.3227)
(-38.178 15.2926 -3.81589 26.2004 -5.73152 9.77317)
(-30.8035 32.1547 -8.1557 -0.856148 -1.35233 -5.95139)
(-4.01888 31.4838 -7.72811 -13.2019 2.1025 -6.05472)
(5.82029 12.9182 -3.36988 -26.9819 6.4745 -12.9435)
(-50.9208 10.6352 -4.57651 8.24265 -2.82345 2.56286)
(-45.2828 20.1812 -8.25804 -10.7147 -0.528222 -13.6538)
(2.10425 18.1994 -7.90058 -3.67216 1.15619 -2.50363)
(15.0221 6.60893 -4.06584 -10.8485 3.07305 -9.34099)
(176.629 82.1106 -0.849163 406.693 16.5041 208.591)
(30.4927 65.6511 -6.45379 84.1052 5.50517 37.9273)
(-47.5249 57.9694 -7.55854 -95.4853 -8.34315 -51.3776)
(-191.105 51.1191 -3.84802 -374.422 -17.0743 -215.384)
(-45.3525 33.0034 -2.71768 161.822 -8.69558 15.268)
(-8.22918 71.6454 -12.7862 67.3352 -3.62609 10.9282)
(-19.2691 65.556 -14.0724 -75.2071 0.53028 -25.8962)
(5.21033 20.3049 -5.60222 -166.778 4.79466 -33.6759)
(-23.4882 34.1599 -2.03581 152.141 -12.8104 31.1178)
(-20.6878 61.0576 -11.2118 45.8084 -4.30481 2.00594)
(-11.1702 56.5059 -12.4159 -53.68 2.7702 -15.7762)
(-11.3764 20.9459 -4.54786 -148.921 10.1136 -39.7807)
(-29.9948 28.3816 -1.58112 109.041 -13.8447 23.1267)
(-20.9971 52.4195 -9.3418 33.387 -4.05034 1.52094)
(-10.6641 48.6819 -10.3635 -40.5518 4.03553 -12.8257)
(-4.95992 17.3843 -3.80675 -106.46 12.7477 -28.4162)
(-29.4747 23.1742 -1.00123 76.3669 -12.8588 20.9991)
(-20.9753 43.5133 -7.7825 22.088 -3.36202 1.0642)
(-10.1299 40.8635 -8.69809 -28.9595 4.60196 -10.6316)
(-5.02257 15.0319 -3.01549 -74.2991 13.3351 -24.1976)
(-30.254 17.3612 -0.748952 48.9504 -10.8724 18.4084)
(-20.977 34.6742 -6.74511 12.7691 -2.57109 0.593066)
(-9.83655 33.3045 -7.50372 -19.9492 4.55719 -9.41466)
(-4.10672 12.571 -2.4782 -47.5791 12.5969 -21.0031)
(-30.2848 11.2257 -1.00757 31.4582 -8.28291 18.0132)
(-23.0927 26.0843 -6.42165 4.34991 -1.90528 -1.09469)
(-9.0227 25.7262 -6.95884 -13.035 3.83123 -8.66353)
(-1.63036 9.72436 -2.23692 -27.7317 10.4631 -18.9282)
(-42.7786 8.64152 -1.91977 13.6935 -4.11195 10.5319)
(-38.4333 17.2501 -7.15201 -6.54552 -0.695046 -10.0483)
(-3.16372 15.5832 -7.91944 -4.64642 2.23496 -5.64344)
(7.18682 5.38823 -3.32017 -12.8881 5.67391 -15.8364)
(179.454 83.2719 -0.789407 410.506 5.95534 218.832)
(32.3862 65.2435 -4.01946 87.2579 1.74248 43.1329)
(-48.1722 57.2285 -4.6984 -95.0694 -4.46575 -54.2019)
(-193.983 51.1062 -2.3969 -376.051 -7.77857 -224.569)
(-45.4893 32.1598 -2.23447 163.048 -6.82396 27.7524)
(-7.09539 70.0454 -8.50917 71.0526 -2.87583 18.2175)
(-21.7335 63.9517 -9.48065 -76.5971 0.358746 -32.0153)
(1.27084 19.6179 -4.12031 -169.335 4.00082 -48.9414)
(-24.3537 32.6705 -2.22576 154.569 -10.661 38.9489)
(-20.5889 58.509 -8.39702 49.0285 -3.6513 7.01511)
(-13.6364 53.9688 -9.28891 -54.9451 2.60246 -20.2719)
(-15.1183 19.572 -3.69462 -152.117 8.83643 -51.1817)
(-30.9923 26.7834 -1.95104 111.005 -11.9117 27.4071)
(-21.0758 49.0614 -7.36584 36.1021 -3.55751 5.14311)
(-13.3399 45.3858 -8.07787 -41.132 4.01391 -15.9785)
(-9.12463 16.0047 -3.03384 -109.327 11.5547 -36.7984)
(-31.1336 21.4862 -1.5488 77.5326 -11.3499 22.3372)
(-21.0525 40.1445 -6.18186 24.6198 -2.98408 3.84341)
(-12.7095 37.6185 -6.76806 -29.0605 4.72221 -12.7124)
(-8.51468 13.6956 -2.3426 -76.0805 12.4921 -29.5198)
(-31.9702 15.8056 -1.2864 49.7638 -9.71602 18.0035)
(-20.8633 31.7542 -5.32893 15.1132 -2.23 2.84298)
(-12.1009 30.6224 -5.78344 -19.5399 4.76759 -10.5158)
(-7.04261 11.5804 -1.82265 -48.4267 12.0295 -23.9394)
(-31.4818 9.84099 -1.40637 32.4327 -7.34434 16.7481)
(-22.7015 23.9845 -5.18387 6.44279 -1.47686 0.744744)
(-10.8411 23.9974 -5.53455 -12.1963 4.04 -8.74186)
(-3.90921 9.22216 -1.68863 -27.6342 10.0849 -19.616)
(-44.4624 7.96457 -2.29808 13.45 -3.37421 7.42662)
(-38.1726 16.3226 -6.4029 -4.89222 -0.307763 -8.71187)
(-4.44271 14.9427 -7.11533 -3.22493 2.22236 -3.90792)
(6.89101 5.37875 -3.08241 -10.51 5.25519 -12.1995)
(179.556 82.4907 -0.52957 410.208 0.471412 223.934)
(32.5198 63.4088 -2.29748 88.3019 -0.0734142 45.6305)
(-48.4412 55.1787 -2.64842 -94.1648 -2.11546 -55.6629)
(-193.775 49.914 -1.28675 -373.697 -2.53159 -228.253)
(-45.8958 31.222 -1.40256 162.706 -5.65217 36.6419)
(-7.98516 68.4197 -5.20565 72.0445 -2.26479 21.9308)
(-22.7157 62.3958 -5.77877 -75.7172 0.432914 -35.3557)
(-0.637011 19.0131 -2.49487 -168.973 3.64963 -59.0056)
(-24.8524 31.9441 -1.69026 156.134 -8.19114 46.6187)
(-21.9026 57.2147 -5.73934 50.3437 -2.74851 9.93855)
(-14.8923 52.774 -6.2402 -54.5016 2.17715 -23.3493)
(-16.7673 19.1126 -2.44574 -152.622 7.10128 -60.0235)
(-31.464 26.1762 -1.67091 113.342 -9.12211 33.0415)
(-22.388 47.8783 -5.39908 37.5573 -2.6559 7.3038)
(-14.7563 44.3038 -5.73936 -40.7664 3.38387 -18.4106)
(-10.9215 15.6532 -2.07804 -110.316 9.25705 -43.8188)
(-31.5246 20.9559 -1.47311 80.1575 -8.81449 26.0518)
(-22.1985 39.1097 -4.74484 26.1901 -2.22012 5.42957)
(-14.1193 36.7101 -4.96645 -28.6577 4.05552 -14.3937)
(-10.2229 13.4576 -1.61119 -77.0253 10.1815 -34.4301)
(-32.1709 15.3368 -1.32196 52.4795 -7.68194 20.2779)
(-21.7361 30.9434 -4.24616 16.726 -1.64852 4.07579)
(-13.3262 29.998 -4.36697 -18.9725 4.15272 -11.3721)
(-8.54198 11.5121 -1.25293 -49.0552 9.96777 -26.8555)
(-31.2217 9.41049 -1.46673 35.3119 -5.93011 18.1743)
(-23.2707 23.4889 -4.36433 8.01251 -1.06275 1.81126)
(-11.8317 23.7401 -4.44104 -11.426 3.54011 -8.66382)
(-5.12372 9.33551 -1.25445 -27.7253 8.44874 -20.5396)
(-44.1597 7.82936 -2.39753 15.8741 -2.81422 8.03297)
(-38.7469 16.1862 -5.84789 -3.43336 -0.165931 -7.62488)
(-5.49925 14.9265 -6.24303 -2.40437 1.95415 -2.72144)
(6.07842 5.55868 -2.64124 -9.98167 4.44657 -10.7907)
(178.177 81.1355 -0.311326 407.62 -1.77278 225.439)
(32.2614 61.4392 -1.21642 88.6 -0.750661 46.8018)
(-48.3502 53.1089 -1.38125 -92.8687 -0.814971 -56.175)
(-191.868 48.5556 -0.61549 -369.234 -0.00342193 -228.44)
(-46.3394 30.3258 -0.781674 162.105 -4.54527 41.8971)
(-8.81116 66.8217 -2.97888 72.5197 -1.72201 23.9579)
(-23.3536 60.9023 -3.28952 -74.4606 0.474503 -37.3359)
(-1.88639 18.4852 -1.36104 -167.962 3.15355 -65.1751)
(-25.5403 31.3576 -1.12698 156.812 -6.06367 51.653)
(-22.9155 56.2378 -3.66365 51.2182 -1.96036 11.734)
(-15.7659 51.9268 -3.91785 -53.6472 1.71611 -25.4737)
(-17.5705 18.8355 -1.45407 -152.072 5.45497 -65.8554)
(-32.0549 25.8475 -1.23923 114.938 -6.6187 37.2364)
(-23.3527 47.3168 -3.70007 38.6919 -1.84676 8.74876)
(-15.6632 43.8548 -3.82948 -40.1022 2.62714 -20.2487)
(-11.8198 15.5821 -1.29438 -110.378 6.97349 -48.8993)
(-31.9876 20.7802 -1.19242 82.2221 -6.41812 29.1939)
(-23.0058 38.8263 -3.4347 27.4893 -1.52917 6.56866)
(-14.9637 36.5378 -3.46973 -28.0716 3.16529 -15.7542)
(-11.0664 13.5243 -1.03634 -77.2903 7.70041 -38.2704)
(-32.4554 15.2327 -1.15315 54.7099 -5.68069 22.5288)
(-22.3239 30.8516 -3.234 18.0913 -1.13786 5.04213)
(-14.0272 30.0391 -3.19666 -18.3691 3.25853 -12.1374)
(-9.24741 11.693 -0.845901 -49.2338 7.60626 -29.3181)
(-31.1976 9.31252 -1.33953 37.6056 -4.48629 19.8829)
(-23.6784 23.5389 -3.52363 9.31501 -0.736944 2.7135)
(-12.3955 23.9352 -3.46757 -10.7639 2.78173 -8.74145)
(-5.62739 9.59274 -0.950618 -27.595 6.49332 -21.5428)
(-44.3615 7.85615 -2.2183 17.5966 -2.15199 8.93711)
(-39.3698 16.319 -4.99008 -2.37664 -0.0752547 -6.85308)
(-6.09434 15.1014 -5.17506 -1.68535 1.53503 -1.99346)
(5.91138 5.75771 -2.18344 -9.40139 3.42777 -10.1102)
(176.55 79.8426 -0.159969 404.642 -2.18492 225.356)
(31.9606 59.8091 -0.589589 88.639 -0.819239 47.3151)
(-48.0836 51.4366 -0.659912 -91.5673 -0.185964 -56.2008)
(-189.655 47.3998 -0.254752 -364.683 0.891788 -227.27)
(-46.5758 29.5791 -0.381717 161.638 -3.34729 44.8776)
(-9.40031 65.4594 -1.58312 72.8248 -1.21392 25.0222)
(-23.7481 59.6387 -1.74126 -73.2717 0.425917 -38.4607)
(-2.76483 18.0606 -0.670834 -166.896 2.43638 -68.7925)
(-26.0259 30.8672 -0.669618 157.21 -4.19982 54.7302)
(-23.5775 55.4334 -2.1706 51.8702 -1.31054 12.7764)
(-16.3569 51.2374 -2.28916 -52.7921 1.24175 -26.853)
(-18.0302 18.6183 -0.785907 -151.283 3.87965 -69.4532)
(-32.4591 25.6054 -0.81099 116.07 -4.49171 40.0525)
(-23.9681 46.9365 -2.34194 39.5617 -1.20205 9.65226)
(-16.2338 43.5705 -2.37413 -39.4141 1.86258 -21.5117)
(-12.3226 15.5582 -0.737875 -110.094 4.86171 -52.2496)
(-32.2963 20.6917 -0.837603 83.7394 -4.3515 31.5251)
(-23.4996 38.7317 -2.28897 28.4926 -0.985039 7.34482)
(-15.4581 36.5303 -2.25524 -27.4795 2.24 -16.7336)
(-11.5097 13.6258 -0.617887 -77.2172 5.35651 -40.959)
(-32.6314 15.2157 -0.86104 56.363 -3.89412 24.414)
(-22.6657 30.9259 -2.2627 19.1332 -0.737092 5.76007)
(-14.4111 30.2074 -2.18097 -17.8132 2.30625 -12.7251)
(-9.59955 11.8804 -0.540075 -49.1742 5.30721 -31.1797)
(-31.1782 9.29528 -1.04345 39.2695 -3.12965 21.4913)
(-23.9184 23.6933 -2.5896 10.2822 -0.483609 3.41986)
(-12.6945 24.1843 -2.50035 -10.2187 1.96648 -8.87407)
(-5.852 9.81652 -0.676376 -27.3871 4.54573 -22.4845)
(-44.4594 7.89593 -1.74893 18.9541 -1.52004 10.1367)
(-39.7984 16.4712 -3.7924 -1.59272 -0.0317557 -6.23279)
(-6.42619 15.2722 -3.86911 -1.13582 1.08799 -1.64397)
(5.82772 5.9028 -1.62897 -9.02648 2.40893 -10.1117)
(175.249 78.8923 -0.0708756 402.264 -1.61942 224.818)
(31.7328 58.6849 -0.250425 88.6092 -0.582352 47.5195)
(-47.8142 50.2962 -0.276559 -90.5555 0.0341576 -56.0638)
(-187.879 46.5898 -0.0859996 -361.182 0.851791 -225.97)
(-46.6929 29.0528 -0.160098 161.313 -2.0512 46.4266)
(-9.76698 64.4851 -0.742927 73.0248 -0.723284 25.5443)
(-23.9657 58.7375 -0.815215 -72.3733 0.292934 -39.0506)
(-3.32131 17.7658 -0.288306 -166.042 1.53718 -70.7559)
(-26.3309 30.5112 -0.343472 157.435 -2.47863 56.4212)
(-23.9665 54.8459 -1.12272 52.3202 -0.754239 13.3362)
(-16.7186 50.7319 -1.17185 -52.1344 0.752794 -27.6671)
(-18.2891 18.4587 -0.371303 -150.606 2.32732 -71.485)
(-32.7125 25.4292 -0.449624 116.787 -2.61296 41.7082)
(-24.3248 46.6627 -1.27767 40.1576 -0.678283 10.169)
(-16.5688 43.364 -1.27686 -38.8766 1.11067 -22.2867)
(-12.6035 15.5362 -0.367203 -109.774 2.87469 -54.2393)
(-32.494 20.6296 -0.489326 84.7055 -2.52719 32.9901)
(-23.7768 38.6748 -1.30019 29.1725 -0.551525 7.82303)
(-15.7326 36.5322 -1.26104 -27.0187 1.33103 -17.3527)
(-11.7417 13.6944 -0.321659 -77.0537 3.1565 -42.6248)
(-32.7456 15.2082 -0.526479 57.4106 -2.27709 25.6904)
(-22.8478 30.9942 -1.33446 19.828 -0.415087 6.23384)
(-14.6106 30.3362 -1.26782 -17.3955 1.36831 -13.1128)
(-9.7713 12.0076 -0.299956 -49.0457 3.12844 -32.3976)
(-31.1817 9.29075 -0.659155 40.3032 -1.85163 22.6484)
(-24.0432 23.8124 -1.58114 10.9163 -0.275721 3.90571)
(-12.8427 24.3605 -1.51159 -9.83049 1.16504 -8.99385)
(-5.94062 9.96313 -0.407704 -27.1911 2.68204 -23.1812)
(-44.5383 7.92608 -1.11427 19.8088 -0.910705 11.0866)
(-40.0563 16.5813 -2.36032 -1.08353 -0.0116704 -5.80105)
(-6.59521 15.3876 -2.38754 -0.756938 0.647306 -1.49863)
(5.81008 5.99107 -1.00709 -8.76669 1.42437 -10.3095)
(174.547 78.3971 -0.019673 400.977 -0.585711 224.422)
(31.614 58.117 -0.0671867 88.5819 -0.207188 47.5863)
(-47.6531 49.7232 -0.0734641 -90.0093 0.0344791 -55.9524)
(-186.914 46.1768 -0.0182947 -359.31 0.332907 -225.184)
(-46.7386 28.7825 -0.0425817 161.145 -0.690919 47.0768)
(-9.94148 63.981 -0.214533 73.1259 -0.240368 25.7543)
(-24.06 58.2718 -0.235087 -71.8941 0.104069 -39.2998)
(-3.58992 17.6154 -0.07797 -165.572 0.524989 -71.6108)
(-26.4756 30.3245 -0.105006 157.537 -0.820468 57.1579)
(-24.1459 54.5356 -0.344595 52.551 -0.246545 13.5769)
(-16.8892 50.4634 -0.357557 -51.781 0.252353 -28.0421)
(-18.4062 18.3733 -0.107525 -150.225 0.776272 -72.3931)
(-32.8341 25.3349 -0.143596 117.133 -0.858833 42.4614)
(-24.4886 46.5147 -0.404291 40.4601 -0.21951 10.4012)
(-16.724 43.25 -0.401001 -38.5862 0.369031 -22.6524)
(-12.7308 15.5208 -0.110108 -109.579 0.951871 -55.1576)
(-32.5907 20.5941 -0.160761 85.1715 -0.829864 33.6846)
(-23.9021 38.6408 -0.42075 29.5143 -0.177788 8.04882)
(-15.8557 36.5276 -0.404923 -26.7701 0.441233 -17.6497)
(-11.8422 13.7255 -0.0993636 -76.9399 1.04297 -43.4133)
(-32.7998 15.2011 -0.177395 57.9144 -0.750284 26.3242)
(-22.9268 31.0264 -0.440825 20.1734 -0.134293 6.46746)
(-14.6955 30.3977 -0.415979 -17.173 0.453097 -13.3031)
(-9.84184 12.0684 -0.0963777 -48.9568 1.03337 -32.9936)
(-31.1845 9.28734 -0.226187 40.7916 -0.614216 23.2427)
(-24.0949 23.8712 -0.531825 11.2286 -0.0898908 4.15139)
(-12.9026 24.4452 -0.506139 -9.62808 0.385556 -9.06131)
(-5.97061 10.0321 -0.136782 -27.0776 0.885926 -23.5463)
(-44.569 7.94267 -0.383764 20.2177 -0.306393 11.6043)
(-40.17 16.6384 -0.800681 -0.830097 -0.003076 -5.57691)
(-6.66843 15.4424 -0.806807 -0.563992 0.215275 -1.45345)
(5.80447 6.02975 -0.341507 -8.63711 0.471165 -10.4674)
)
;

boundaryField
{
    interface
    {
        type            calculated;
        value           nonuniform List<symmTensor> 
192
(
(-26.3571 17.105 4.23153 440.008 37.9957 121.688)
(-26.8236 7.84076 3.88024 201.382 -18.1778 21.667)
(-26.5066 10.1759 4.56203 204.556 -11.9876 44.9357)
(-26.5769 8.37418 4.53189 149.05 -14.561 36.322)
(-26.8806 6.38503 4.54001 107.269 -12.9184 33.2626)
(-27.4334 3.94658 4.4496 70.9708 -10.9553 28.9155)
(-27.9965 1.5956 4.13453 49.2233 -8.73222 27.9459)
(-26.7114 -1.0265 3.44559 35.5061 -4.56413 29.0092)
(-29.3509 17.6078 2.68823 431.874 19.7901 128.296)
(-30.2891 8.70915 2.73457 222.44 -11.848 38.9101)
(-30.7267 9.95192 2.7522 202.097 -17.8386 44.4698)
(-31.284 8.29761 2.63668 148.761 -19.6179 38.4188)
(-31.7701 6.16369 2.54179 104.84 -18.38 34.7114)
(-32.1429 3.63448 2.43403 68.9326 -15.6536 31.5005)
(-31.8571 0.997348 2.22283 47.5719 -11.8777 31.4392)
(-27.925 -1.83301 1.8252 36.1247 -6.12892 34.2778)
(-31.0334 17.9255 1.53079 432.125 6.71308 136.591)
(-31.8975 8.55735 1.77951 219.646 -9.27641 51.1352)
(-32.3872 9.75545 1.68845 202.334 -14.5938 51.4581)
(-32.9867 8.12256 1.52318 149.337 -16.5022 41.1583)
(-33.4075 5.95047 1.39511 105.247 -15.8851 34.2685)
(-33.5395 3.35341 1.29424 69.4833 -13.7584 29.1567)
(-32.6845 0.58989 1.16625 48.7709 -10.5378 28.2424)
(-27.4955 -2.34283 0.996173 37.0681 -5.24559 30.1764)
(-32.1425 17.8036 0.852815 429.589 -0.136113 141.443)
(-32.8878 8.34519 1.1752 217.288 -7.77269 61.1849)
(-33.3252 9.57396 1.09126 202.875 -11.214 60.1678)
(-33.8539 7.99724 0.948062 151.261 -12.5891 47.3627)
(-34.1797 5.84239 0.829836 107.711 -12.2892 37.9928)
(-34.1144 3.21904 0.741078 72.2164 -10.8517 31.0148)
(-32.895 0.384051 0.653033 51.8068 -8.54596 28.9309)
(-26.9684 -2.57365 0.565411 39.8934 -4.44627 30.1945)
(-32.8935 17.4973 0.469358 425.464 -2.85151 143.29)
(-33.5538 8.14636 0.771468 215.598 -6.31738 67.3261)
(-33.9283 9.40134 0.708623 203.191 -8.361 66.3685)
(-34.3824 7.88591 0.603103 152.907 -9.17107 52.5479)
(-34.6183 5.76151 0.510297 110.02 -8.97458 41.7928)
(-34.4107 3.13002 0.439023 74.7759 -8.05122 33.605)
(-32.954 0.247219 0.375216 54.4745 -6.50831 30.7341)
(-26.5337 -2.72417 0.326808 42.2964 -3.46062 31.4338)
(-33.396 17.1769 0.252045 421.373 -3.21707 143.635)
(-34.002 7.98357 0.485933 214.398 -4.68408 70.7607)
(-34.3216 9.2583 0.443355 203.395 -5.83357 70.242)
(-34.7132 7.79426 0.372029 154.138 -6.26084 56.1437)
(-34.8773 5.69722 0.306535 111.779 -6.11526 44.7634)
(-34.5762 3.06456 0.25457 76.7149 -5.54562 35.9578)
(-32.9667 0.149389 0.209486 56.4436 -4.56929 32.6791)
(-26.2137 -2.82302 0.180527 44.1651 -2.47518 33.1469)
(-33.705 16.9306 0.12145 418.259 -2.32614 143.433)
(-34.2693 7.86931 0.265543 213.603 -2.88067 72.5042)
(-34.5629 9.15712 0.240842 203.5 -3.46042 72.3819)
(-34.9177 7.72851 0.199644 154.925 -3.65958 58.2775)
(-35.0458 5.65066 0.160791 112.899 -3.56681 46.6561)
(-34.6732 3.0175 0.128903 77.9516 -3.25574 37.5956)
(-32.9681 0.081564 0.0993994 57.6794 -2.71599 34.1428)
(-26.011 -2.88574 0.0801471 45.3578 -1.49479 34.5303)
(-33.844 16.7986 0.0351872 416.608 -0.834191 143.221)
(-34.3845 7.80976 0.0831563 213.207 -0.971733 73.2238)
(-34.6648 9.10449 0.074867 203.548 -1.14827 73.3213)
(-35.0129 7.69422 0.0614182 155.305 -1.20584 59.2512)
(-35.1224 5.62554 0.0485668 113.442 -1.17397 47.5608)
(-34.7085 2.98976 0.0377225 78.5522 -1.07501 38.4222)
(-32.9397 0.0411608 0.0264777 58.2806 -0.903086 34.9236)
(-25.8733 -2.90979 0.0181865 45.9457 -0.504431 35.3032)
(34.9857 71.7868 -3.03241 271.453 2.09704 -12.3665)
(-78.4114 35.2459 -6.36117 106.868 -1.79986 -8.02629)
(-53.7567 44.4205 -7.76705 123.214 -1.58761 -4.51584)
(-55.5351 38.8605 -8.57787 85.6189 -1.23482 -2.34652)
(-50.7779 33.6521 -9.12642 59.4303 -0.932861 -1.23564)
(-49.001 26.3083 -9.5715 35.1891 -0.865034 -1.00788)
(-48.2366 18.2638 -10.0572 19.515 -1.11406 -1.66107)
(-57.3116 12.0877 -11.0819 4.85046 -1.51434 -3.19641)
(-6.225 53.748 -2.37393 53.23 -0.63756 -11.3752)
(-38.6352 73.9704 -4.66772 32.2778 -1.64636 -9.35796)
(-38.6286 75.7715 -5.58847 32.7256 -1.383 -7.21331)
(-37.7246 69.2257 -6.08849 21.2638 -0.878223 -5.77037)
(-35.7286 59.9917 -6.42358 12.3149 -0.404937 -5.0295)
(-34.6982 48.7319 -6.73777 4.06312 -0.111676 -4.886)
(-35.0055 36.5937 -7.20096 -1.95631 -0.0512096 -5.27798)
(-44.5685 22.3969 -8.46702 -6.94941 -0.138187 -5.8873)
(-23.196 46.1483 -2.33803 -80.4491 -0.30959 -10.7647)
(5.61216 68.45 -4.31952 -45.9855 -1.31646 -9.90955)
(3.65266 71.0182 -5.15351 -45.1024 -1.11965 -8.55011)
(2.58191 65.3614 -5.47444 -34.827 -0.635503 -7.56781)
(0.405264 57.1039 -5.67651 -27.1167 -0.123047 -7.07722)
(-1.34749 47.1291 -5.89496 -20.3798 0.265715 -7.00718)
(-2.7058 35.8152 -6.29313 -15.4107 0.485606 -7.32778)
(0.388385 20.2408 -7.46629 -8.06934 0.531113 -7.89808)
(-61.4114 44.0736 -2.56313 -264.565 2.73504 -9.84641)
(41.9564 22.8389 -4.55353 -114.479 -1.09298 -9.14091)
(19.4499 30.5241 -5.36394 -124.689 -0.984491 -7.79643)
(20.6372 27.4072 -5.67714 -88.7856 -0.566852 -6.83558)
(15.8502 24.8786 -5.83235 -63.7397 -0.0295746 -6.36704)
(13.4432 20.8961 -5.98913 -41.0783 0.41894 -6.24697)
(12.4918 15.6572 -6.31396 -25.4153 0.768316 -6.40137)
(18.7369 7.74306 -7.39242 -11.1692 1.09403 -6.94331)
(-7.03869 -11.8304 -0.515779 -381.254 -33.3077 -134.151)
(-4.65411 -5.64018 1.77983 -194.617 12.2981 -32.5971)
(-2.9819 -7.55352 1.92076 -186.663 7.80972 -46.0216)
(-2.0008 -6.35082 2.22637 -133.381 11.3755 -32.6265)
(-1.51946 -5.1046 2.35015 -93.3999 11.1846 -27.2691)
(-1.04984 -3.67474 2.50371 -59.3647 10.5191 -22.728)
(0.277778 -2.88302 2.75383 -36.42 8.87036 -21.4166)
(4.83623 -3.9431 2.9882 -20.8111 3.9448 -21.0228)
(-9.46702 -12.1803 -0.750768 -373.198 -19.78 -141.393)
(-8.90586 -6.61948 0.404563 -217.937 6.82457 -53.5113)
(-8.49497 -7.45767 0.824202 -189.597 13.8411 -50.3345)
(-8.21063 -6.25365 1.07208 -138.565 17.3646 -40.2033)
(-7.97867 -4.79146 1.2307 -96.6501 18.0396 -34.5659)
(-7.42442 -3.23153 1.36876 -62.1895 16.9825 -30.8308)
(-5.63017 -2.18586 1.51187 -37.799 14.0945 -29.1679)
(0.874435 -3.37208 1.66315 -21.6083 7.54326 -27.8148)
(-11.0248 -12.3275 -0.415784 -373.904 -8.43036 -151.567)
(-10.9708 -6.69097 0.252931 -218.172 5.9036 -70.058)
(-10.9905 -7.42618 0.658104 -191.813 11.8814 -62.9574)
(-10.8849 -6.15347 0.925772 -140.992 15.2769 -49.144)
(-10.6031 -4.57759 1.11236 -98.4698 16.3749 -40.1865)
(-9.78552 -2.90763 1.24683 -63.3194 15.7256 -33.7525)
(-7.50737 -1.73486 1.32901 -38.0612 13.272 -29.5951)
(-0.3592 -2.83191 1.27405 -20.0713 6.94689 -24.2986)
(-12.0478 -12.0731 -0.135176 -371.362 -2.11892 -156.978)
(-12.1228 -6.58264 0.299097 -217.131 5.43429 -82.0614)
(-12.2724 -7.3046 0.649234 -192.251 9.50952 -73.8744)
(-12.1956 -6.01979 0.88518 -142.189 12.0817 -57.7219)
(-11.8114 -4.39815 1.05384 -99.6827 13.1442 -46.0547)
(-10.7479 -2.6698 1.16409 -64.1693 12.8379 -37.0859)
(-8.11079 -1.43208 1.20065 -38.2074 10.9965 -30.4737)
(-0.574292 -2.52882 1.07532 -19.4419 5.8408 -22.5332)
(-12.7422 -11.6826 0.0110489 -367.145 0.779699 -159.021)
(-12.855 -6.42157 0.302261 -215.885 4.68668 -89.4889)
(-13.0385 -7.14189 0.579231 -191.904 7.31722 -81.331)
(-12.9434 -5.8723 0.763436 -142.569 9.06143 -64.1786)
(-12.4639 -4.24042 0.893013 -100.287 9.87042 -50.9028)
(-11.2253 -2.48698 0.96984 -64.6118 9.72688 -40.1678)
(-8.35758 -1.21886 0.976643 -38.2066 8.40906 -31.7575)
(-0.569936 -2.33197 0.845052 -18.9666 4.48977 -21.9603)
(-13.1937 -11.315 0.0625863 -362.938 1.65026 -159.417)
(-13.3175 -6.26766 0.252711 -214.679 3.60309 -93.7717)
(-13.4988 -6.98847 0.451188 -191.296 5.21715 -85.9455)
(-13.374 -5.74171 0.581175 -142.541 6.31449 -68.4565)
(-12.8227 -4.11411 0.670188 -100.48 6.84917 -54.3474)
(-11.4683 -2.35382 0.718385 -64.759 6.76898 -42.5692)
(-8.45697 -1.07418 0.712487 -38.1107 5.87888 -33.0415)
(-0.511144 -2.20901 0.604796 -18.6708 3.15426 -22.1785)
(-13.4628 -11.0449 0.0566727 -359.721 1.37397 -159.22)
(-13.5894 -6.15246 0.164796 -213.731 2.26323 -96.0496)
(-13.7606 -6.87394 0.283234 -190.734 3.13547 -88.5404)
(-13.6114 -5.64689 0.360034 -142.387 3.73664 -70.9857)
(-13.0129 -4.0268 0.411572 -100.491 4.03472 -56.4864)
(-11.5877 -2.26665 0.437905 -64.7667 3.98792 -44.1576)
(-8.48837 -0.985053 0.431062 -37.9929 3.46856 -34.009)
(-0.448696 -2.1373 0.358633 -18.4715 1.86506 -22.5791)
(-13.5889 -10.9045 0.0216021 -358.006 0.516989 -159)
(-13.7168 -6.09231 0.0565538 -213.212 0.771029 -97.0264)
(-13.8828 -6.81409 0.0956613 -190.409 1.04678 -89.6969)
(-13.7211 -5.59777 0.120925 -142.273 1.2381 -72.1495)
(-13.1003 -3.9823 0.13772 -100.464 1.33341 -57.5009)
(-11.6418 -2.22294 0.146143 -64.7486 1.31736 -44.9414)
(-8.49294 -0.945094 0.143575 -37.9175 1.1459 -34.5167)
(-0.424958 -2.10717 0.116845 -18.3791 0.616711 -22.8571)
(-61.958 14.3811 -4.92316 -2.27816 -1.09279 -4.01067)
(-55.4607 13.4872 -2.50303 0.630227 -0.888146 2.00568)
(-55.4464 13.5357 -2.97956 2.92611 -0.522806 -0.0564895)
(-55.4342 13.6971 -3.11358 4.76248 -0.287398 -0.0099734)
(-55.8853 13.8804 -2.88554 6.1585 -0.152145 0.440356)
(-56.2549 14.0277 -2.2758 7.16418 -0.0827589 1.28112)
(-56.5077 14.1295 -1.4499 7.80436 -0.0527909 2.02464)
(-56.6675 14.1762 -0.499089 8.03864 -0.022747 2.40442)
(-51.166 10.6188 -8.31361 -5.47241 0.520514 -13.1624)
(-46.3176 9.2368 -7.8376 -4.1133 0.517788 -11.7814)
(-46.1569 9.01708 -7.4687 -2.51213 0.580717 -10.5794)
(-46.8973 9.04826 -7.0497 -1.15889 0.564046 -9.44938)
(-47.6938 9.12395 -6.12364 -0.114204 0.480188 -8.68544)
(-48.2777 9.19289 -4.69195 0.648551 0.359385 -8.08827)
(-48.6312 9.24684 -2.93101 1.15876 0.220421 -7.66567)
(-48.769 9.28599 -0.995484 1.44296 0.0740697 -7.42478)
(0.301408 7.04731 -8.11786 -7.94862 1.07342 -6.38554)
(-3.61189 6.07923 -8.95166 -6.93319 1.05369 -8.27727)
(-5.07453 5.88339 -8.55844 -5.82063 0.987551 -5.74845)
(-6.16856 5.88476 -7.75218 -4.84704 0.859425 -3.82488)
(-6.83488 5.92212 -6.53114 -4.08235 0.690056 -2.64558)
(-7.22166 5.95905 -4.91816 -3.51954 0.501659 -2.04926)
(-7.43003 5.98658 -3.04413 -3.14484 0.307137 -1.7826)
(-7.51208 6.00169 -1.02969 -2.93706 0.10472 -1.67723)
(20.3835 6.04146 -4.58493 -7.32494 1.31443 -8.97866)
(14.5258 5.30798 -4.49664 -6.36821 1.05606 -13.5017)
(13.4734 5.12827 -4.45861 -5.64889 0.898245 -9.01014)
(12.7581 5.12551 -3.94325 -4.99657 0.744512 -6.42627)
(12.5947 5.14163 -3.28883 -4.45938 0.584421 -5.02476)
(12.5467 5.16112 -2.457 -4.05592 0.418159 -4.59264)
(12.5456 5.17451 -1.51765 -3.78805 0.252138 -4.57009)
(12.5439 5.17472 -0.514133 -3.65601 0.0847667 -4.639)
)
;
    }
    symmetry
    {
        type            symmetryPlane;
    }
    bottom
    {
        type            calculated;
        value           nonuniform List<symmTensor> 
32
(
(207.71 88.7274 3.8088 314.336 87.9777 207.646)
(204.495 94.3332 1.86526 308.532 40.4326 200.943)
(207.626 95.8925 0.785995 313.303 16.7945 203.276)
(208.345 95.0997 0.246167 314.572 5.30659 203.947)
(207.558 93.6648 0.0112552 313.537 0.24624 203.277)
(206.378 92.3223 -0.0648964 311.859 -1.43945 202.217)
(205.367 91.3515 -0.0623287 310.394 -1.39635 201.291)
(204.805 90.8489 -0.0241538 309.573 -0.543926 200.771)
(39.5619 39.2256 0.551874 58.3907 25.8075 39.0862)
(41.7846 44.9289 0.310376 61.367 12.689 40.7733)
(44.1003 43.6699 0.126997 64.9769 5.35052 43.0794)
(44.9241 41.2617 0.0376185 66.3983 1.6785 44.0009)
(45.2116 39.0802 0.00135542 66.9807 0.0638706 44.3823)
(45.3052 37.4398 -0.00938609 67.227 -0.461729 44.5442)
(45.3302 36.3734 -0.00869599 67.3303 -0.440344 44.612)
(45.3343 35.8514 -0.0033161 67.3679 -0.170368 44.6365)
(-53.492 33.0789 -0.499036 -80.5683 -25.9277 -53.7375)
(-50.1693 38.3883 -0.317699 -75.982 -14.2548 -50.9068)
(-50.8571 36.4851 -0.157467 -76.8789 -7.43081 -51.5982)
(-50.8875 33.6472 -0.0689136 -76.7543 -3.52654 -51.5378)
(-50.5169 31.2012 -0.0255185 -76.071 -1.40871 -51.0809)
(-50.0262 29.3967 -0.00654688 -75.252 -0.383751 -50.5276)
(-49.6065 28.2328 -8.25259e-05 -74.5739 -0.0050384 -50.0689)
(-49.3706 27.6652 0.00053979 -74.1979 0.0336377 -49.8146)
(-206.298 60.2856 -3.04525 -303.708 -77.5212 -204.75)
(-198.704 63.7426 -1.59538 -293.457 -38.628 -200.37)
(-201.401 62.914 -0.726167 -297.223 -17.7796 -203.766)
(-201.287 60.7911 -0.273726 -296.834 -6.93764 -203.654)
(-199.597 58.6451 -0.0645004 -294.21 -1.69698 -201.825)
(-197.593 56.9127 0.0151614 -291.187 0.411693 -199.689)
(-195.969 55.7311 0.0290963 -288.762 0.80787 -197.976)
(-195.082 55.1364 0.0126293 -287.443 0.354687 -197.045)
)
;
    }
}


// ************************************************************************* //
