/*--------------------------------*- C++ -*----------------------------------*\
| =========                 |                                                 |
| \\      /  F ield         | foam-extend: Open Source CFD                    |
|  \\    /   O peration     | Version:     3.1                                |
|   \\  /    A nd           | Web:         http://www.extend-project.de       |
|    \\/     M anipulation  |                                                 |
\*---------------------------------------------------------------------------*/
FoamFile
{
    version     2.0;
    format      ascii;
    class       volScalarField;
    location    "1.5";
    object      sigmaCauchyEq;
}
// * * * * * * * * * * * * * * * * * * * * * * * * * * * * * * * * * * * * * //

dimensions      [1 -1 -2 0 0 0 0];

internalField   nonuniform List<scalar> 
256
(
266.523
118.585
107.106
204.953
185.706
144.717
130.13
156.436
170.974
135.407
121.417
136.377
136.714
119.297
107.37
104.68
106.994
100.995
91.2353
77.1963
81.8285
81.9227
74.384
54.5507
64.8128
63.8516
56.8849
38.3802
60.1881
50.2917
34.8268
29.0089
260.084
125.208
112.213
196.221
193.788
143.382
127.632
160.637
168.055
122.656
108.151
132.301
133.29
103.897
91.1822
99.5453
102.557
85.3636
75.1354
71.2542
77.7665
68.113
60.5433
49.0853
61.2352
53.0009
46.8241
34.002
57.501
44.3283
30.5994
26.2227
258.357
123.953
109.107
191.18
191.927
140.466
122.846
155.932
168.084
119.199
102.437
128.658
133.68
99.3952
84.4378
96.0725
103.129
80.9
68.681
68.0768
78.3
64.2536
55.2393
46.3174
61.5377
50.2864
43.331
31.7136
57.2852
43.7905
28.9425
23.091
255.635
120.955
104.791
186.698
190.094
138.007
118.657
151.86
167.928
117.792
98.9533
125.364
134.546
98.3909
81.3418
93.257
104.474
80.2429
66.1339
65.5251
79.779
63.9338
53.4352
43.9901
62.9112
50.3866
42.3847
29.6711
58.4783
44.7801
28.381
21.0835
252.571
117.884
100.818
182.712
188.852
135.847
115.123
148.783
167.925
116.908
96.4653
122.832
135.511
98.2663
79.6282
91.1778
105.938
80.597
65.0637
63.6706
81.3956
64.5523
52.9167
42.2502
64.4557
51.1416
42.2851
28.1339
59.9256
45.7885
28.1024
19.8706
249.829
115.379
97.6849
179.469
187.972
134.098
112.341
146.489
167.965
116.228
94.6119
120.976
136.302
98.2872
78.5196
89.7129
107.123
81.0553
64.533
62.4012
82.7027
65.2168
52.8
41.0686
65.7143
51.8364
42.3824
27.1049
61.1803
46.4863
27.8161
19.1792
247.83
113.663
95.5597
177.193
187.385
132.876
110.423
144.936
167.995
115.738
93.3455
119.74
136.835
98.2957
77.7989
88.7652
107.916
81.3768
64.2309
61.6051
83.575
65.6785
52.7775
40.3481
66.5603
52.2977
42.468
26.5013
62.0488
46.8915
27.55
18.8191
246.788
112.798
94.4913
176.024
187.085
132.251
109.446
144.148
168.007
115.478
92.698
119.117
137.097
98.2907
77.4343
88.2953
108.306
81.5317
64.0831
61.2184
84.002
65.9037
52.7704
40.0072
66.9736
52.5188
42.5066
26.2256
62.4776
47.0729
27.3884
18.6663
)
;

boundaryField
{
    interface
    {
        type            calculated;
        value           nonuniform List<scalar> 
192
(
419.086
211.149
206.859
157.043
119.289
88.2032
71.1355
60.0855
408.653
227.69
208.874
161.577
123.073
92.8787
75.6893
64.1891
407.533
223.091
208.271
161.996
123.655
93.231
75.6472
62.2333
405.131
219.766
207.615
162.786
125.135
94.9148
77.3362
63.2156
401.648
217.806
207.314
163.686
126.685
96.6741
79.1167
64.5478
398.2
216.593
207.234
164.504
127.987
98.1406
80.6039
65.8902
395.557
215.838
207.217
165.084
128.878
99.1314
81.6063
66.8559
394.142
215.462
207.208
165.374
129.319
99.6169
82.0884
67.328
291.302
173.492
176.457
141.426
113.094
87.7738
70.0848
65.133
112.037
142.471
145.465
130.789
112.681
92.1753
71.8775
56.3585
102.713
127.357
130.94
118.449
102.405
83.9909
63.9668
38.3049
245.51
143.945
143.092
109.878
83.7782
60.8674
43.9833
33.6638
335.225
179.212
167.484
121.24
84.907
54.751
36.1244
27.9889
321.464
191.393
166.478
121.945
85.2154
56.2795
38.0635
29.944
317.967
185.526
163.067
119.29
82.8693
54.1217
35.9069
25.758
313.827
181.109
159.789
116.627
80.403
51.5792
33.2582
23.4279
309.142
178.115
157.341
114.621
78.5059
49.4759
30.976
21.9409
304.883
176
155.59
113.238
77.2079
48.0145
29.3834
21.2452
301.732
174.589
154.432
112.359
76.4023
47.1219
28.4325
20.9821
300.072
173.874
153.846
111.924
76.0122
46.6997
27.9997
20.9118
64.4828
61.5801
61.8
62.8593
64.2682
65.4933
66.355
66.7661
48.3952
44.2427
45.057
46.6605
47.8789
48.6067
48.9895
49.1557
20.1931
19.2847
18.0836
17.0452
15.7546
14.1831
12.7144
11.8134
31.5287
28.0182
24.1286
21.6744
20.3368
19.5804
19.1729
18.9862
)
;
    }
    symmetry
    {
        type            symmetryPlane;
    }
    bottom
    {
        type            calculated;
        value           nonuniform List<scalar> 
32
(
241.365
206.923
200.201
197.452
194.995
192.767
191.093
190.202
83.5382
83.3272
79.1536
74.8188
71.235
68.5834
66.858
66.0106
77.6316
75.3571
69.409
63.9252
59.7112
56.7175
54.8024
53.8671
196.473
159.676
147.598
141.915
138.102
135.225
133.222
132.188
)
;
    }
}


// ************************************************************************* //
