/*--------------------------------*- C++ -*----------------------------------*\
| =========                 |                                                 |
| \\      /  F ield         | foam-extend: Open Source CFD                    |
|  \\    /   O peration     | Version:     3.1                                |
|   \\  /    A nd           | Web:         http://www.extend-project.de       |
|    \\/     M anipulation  |                                                 |
\*---------------------------------------------------------------------------*/
FoamFile
{
    version     2.0;
    format      ascii;
    class       volSymmTensorField;
    location    "1.5";
    object      sigma;
}
// * * * * * * * * * * * * * * * * * * * * * * * * * * * * * * * * * * * * * //

dimensions      [1 -1 -2 0 0 0 0];

internalField   nonuniform List<symmTensor> 
256
(
(174.245 66.6111 -2.91398 398.306 27.7245 203.429)
(21.6638 57.9286 -8.56058 80.4481 10.6446 30.8956)
(-51.397 53.7151 -8.76311 -102.414 -13.1276 -51.3474)
(-193.405 55.0783 -3.61109 -397.425 -31.9294 -210.186)
(-81.6133 27.5632 -3.72807 115.556 -13.0623 -23.6985)
(-36.2535 70.8273 -14.0736 43.8503 -5.24464 -11.3314)
(-4.16809 69.5251 -14.6534 -51.1521 2.73017 -5.85147)
(37.0492 27.4323 -5.37599 -127.535 9.88518 4.70842)
(-33.5926 31.9611 -2.19102 144.847 -7.52571 25.0289)
(-37.931 66.502 -10.7125 40.2164 -2.68872 -6.03998)
(-8.12391 66.7477 -11.2603 -44.5561 0.738492 -9.55832)
(-6.32433 32.6585 -3.88299 -145.455 5.55911 -33.9264)
(-44.9807 27.1641 -2.43838 99.1555 -9.31641 11.9816)
(-38.9561 59.3906 -9.67102 28.0266 -2.937 -7.02851)
(-7.28477 59.9537 -10.0965 -31.1334 1.69018 -6.09275)
(4.70109 28.3081 -4.15836 -97.7869 8.08348 -18.1013)
(-41.5192 23.1758 -2.23819 71.0202 -8.25454 12.401)
(-36.7396 50.6606 -8.58042 18.7326 -2.38628 -5.71237)
(-8.182 51.4322 -8.95889 -22.0345 1.79934 -5.72962)
(2.26741 24.5793 -3.9182 -68.7272 7.82656 -16.4587)
(-41.7966 17.8159 -2.42202 43.9602 -7.07996 9.34081)
(-35.1613 40.8502 -8.01267 9.71355 -1.98087 -5.59224)
(-8.21624 42.0176 -8.24966 -14.7872 1.80052 -5.42092)
(3.09506 19.9336 -3.85945 -42.7732 7.31444 -13.3039)
(-40.2308 11.5571 -3.0421 27.4727 -5.92878 9.76376)
(-34.7879 30.4964 -7.88031 2.26539 -1.92608 -5.84747)
(-7.85131 31.8904 -7.85207 -10.0655 1.53878 -5.9619)
(4.12056 14.768 -3.90444 -25.5774 6.23689 -12.9169)
(-52.5991 7.21598 -3.90215 9.19181 -3.11166 2.61645)
(-47.9288 18.3378 -7.99597 -8.67492 -1.08357 -13.4945)
(-0.121343 18.4149 -7.97332 -1.78404 0.619187 -2.39249)
(14.0327 8.03504 -4.44446 -10.0661 2.79041 -9.29036)
(176.646 71.1557 -1.63341 395.922 14.7862 212.298)
(27.6455 63.7897 -6.66391 84.1386 5.45256 38.0424)
(-49.8714 59.8745 -7.28182 -95.5229 -8.50143 -51.1673)
(-189.221 59.7036 -3.11322 -384.492 -19.2314 -211.319)
(-48.688 25.8139 -2.4436 158.427 -8.30078 15.3463)
(-13.5398 68.8552 -12.7015 68.9606 -3.52762 10.8712)
(-24.0008 67.975 -14.094 -73.5304 0.531998 -25.8611)
(3.50614 26.3269 -5.69247 -170.212 4.87555 -33.3321)
(-26.7549 26.4546 -1.37662 150.36 -12.2815 31.241)
(-26.3039 58.2163 -11.0394 48.6969 -4.41844 1.95309)
(-16.288 58.5224 -12.5587 -50.7467 2.57746 -15.7719)
(-13.2633 27.0788 -5.02492 -150.514 10.3546 -39.4486)
(-33.1011 21.4826 -0.702473 108.985 -13.4435 23.1105)
(-26.4551 49.7292 -9.09091 36.8516 -4.3193 1.5086)
(-15.7194 50.2271 -10.5994 -37.0721 3.69837 -12.7981)
(-6.88559 22.4793 -4.52214 -106.438 12.9044 -28.2901)
(-32.1527 17.4769 -0.0436043 77.2012 -12.6125 20.9304)
(-25.8466 41.1916 -7.50209 25.5789 -3.72993 1.08438)
(-14.7182 41.8655 -8.97142 -25.469 4.17392 -10.5832)
(-6.81909 18.7908 -3.84021 -73.4453 13.3736 -24.1524)
(-32.348 12.9118 0.179911 50.0165 -10.7607 18.3181)
(-25.0115 32.7756 -6.46681 15.8921 -2.98672 0.636055)
(-13.7265 33.8307 -7.76728 -16.8042 4.08909 -9.34963)
(-5.65935 15.031 -3.30105 -46.4543 12.5334 -20.9963)
(-31.6989 7.68877 -0.175244 32.2609 -8.26326 17.924)
(-26.1969 24.5362 -6.15653 6.86553 -2.34108 -1.03118)
(-12.0718 25.9053 -7.16948 -10.4702 3.35385 -8.5847)
(-2.85067 11.2252 -2.96143 -26.7121 10.337 -18.9296)
(-44.0642 5.39185 -1.255 14.3953 -4.21486 10.4935)
(-40.6185 15.5343 -6.93369 -4.8235 -1.15523 -9.93628)
(-5.03709 15.6086 -8.04272 -3.04323 1.7353 -5.54722)
(6.42621 6.51751 -3.81455 -12.2729 5.46991 -15.8164)
(179.609 72.1866 -1.0601 399.873 5.30594 222.584)
(29.6101 63.3554 -4.07584 87.2642 1.7294 43.2839)
(-50.4427 59.0776 -4.5592 -95.0826 -4.56334 -53.9521)
(-191.911 59.6274 -2.08638 -385.808 -8.80274 -220.439)
(-48.806 25.077 -1.9807 159.701 -6.55647 27.8892)
(-12.1981 67.2292 -8.40836 72.5576 -2.85304 18.2339)
(-26.2411 66.3001 -9.50109 -74.9777 0.300214 -31.8998)
(-0.273941 25.4736 -4.24256 -172.648 4.04208 -48.5141)
(-27.4721 25.062 -1.6631 152.611 -10.283 39.1063)
(-25.8699 55.6165 -8.22332 51.6944 -3.78236 7.00585)
(-18.3966 55.9105 -9.42169 -52.1837 2.40518 -20.2148)
(-16.7495 25.515 -4.12919 -153.789 9.0116 -50.7861)
(-33.9204 19.9528 -1.20061 110.721 -11.6226 27.4231)
(-26.066 46.3171 -7.13009 39.253 -3.80068 5.1472)
(-17.9163 46.821 -8.301 -37.9253 3.71522 -15.9266)
(-10.7932 20.9085 -3.68084 -109.45 11.6834 -36.6231)
(-33.6211 15.8129 -0.726811 78.1266 -11.1759 22.2952)
(-25.4363 37.7537 -5.92518 27.764 -3.28891 3.86125)
(-16.8102 38.4972 -7.03376 -25.8823 4.37036 -12.6609)
(-10.0742 17.276 -3.09702 -75.3889 12.5398 -29.4493)
(-33.8886 11.3412 -0.490877 50.6121 -9.64396 17.9385)
(-24.4667 29.7835 -5.08146 17.9148 -2.55973 2.87157)
(-15.5753 31.017 -6.04496 -16.6819 4.39777 -10.4622)
(-8.41341 13.8732 -2.57984 -47.4362 12.0007 -23.9233)
(-32.739 6.26606 -0.706429 33.0476 -7.34381 16.6823)
(-25.4883 22.3754 -4.9614 8.71418 -1.8231 0.786707)
(-13.6064 24.0446 -5.74325 -9.83646 3.66002 -8.68247)
(-5.02014 10.5605 -2.34971 -26.6955 9.99756 -19.6156)
(-45.6753 4.68344 -1.77222 14.0618 -3.49346 7.4112)
(-40.2062 14.5542 -6.23229 -3.29067 -0.705587 -8.62435)
(-6.18453 14.8308 -7.21558 -1.71401 1.7863 -3.83293)
(6.1702 6.33642 -3.49117 -9.91318 5.06832 -12.1735)
(179.892 71.5518 -0.536061 399.758 0.389053 227.594)
(29.9132 61.5594 -2.28357 88.277 -0.0654372 45.7841)
(-50.5393 56.936 -2.58849 -94.1734 -2.17124 -55.4093)
(-191.544 58.1496 -1.20515 -383.107 -2.90156 -224.243)
(-49.1707 24.2932 -1.14969 159.438 -5.43367 36.7757)
(-12.882 65.6384 -5.10151 73.4511 -2.26978 21.9647)
(-26.9952 64.6244 -5.80481 -74.1426 0.366656 -35.2215)
(-2.05774 24.6557 -2.64728 -172.112 3.71044 -58.5834)
(-27.8982 24.437 -1.22385 154.118 -7.91101 46.776)
(-26.9905 54.3095 -5.58425 52.8625 -2.86344 9.94297)
(-19.4308 54.6097 -6.35282 -51.8382 2.01511 -23.2763)
(-18.2675 24.8661 -2.81935 -154.221 7.24595 -59.6282)
(-34.3239 19.3801 -1.06838 112.939 -8.91317 33.0694)
(-27.1799 45.0878 -5.202 40.5428 -2.85516 7.31071)
(-19.1134 45.6349 -5.92405 -37.6822 3.14823 -18.3538)
(-12.4769 20.4052 -2.61112 -110.437 9.36584 -43.6326)
(-33.9449 15.2619 -0.815162 80.6229 -8.69165 26.0222)
(-26.3975 36.6471 -4.53402 29.1744 -2.46605 5.44166)
(-18.0249 37.488 -5.18842 -25.6025 3.78129 -14.347)
(-11.6934 16.9169 -2.23063 -76.3531 10.2311 -34.3513)
(-34.0281 10.8147 -0.681716 53.2144 -7.6359 20.2231)
(-25.1871 28.8889 -4.04352 19.3937 -1.9143 4.09332)
(-16.6507 30.2952 -4.58722 -16.2148 3.86392 -11.3301)
(-9.85663 13.7031 -1.87674 -48.0785 9.95709 -26.836)
(-32.4214 5.76121 -0.898807 35.8324 -5.94077 18.1144)
(-25.9536 21.7968 -4.18271 10.192 -1.34908 1.8388)
(-14.5046 23.6931 -4.6151 -9.12755 3.23414 -8.6199)
(-6.21083 10.5755 -1.79734 -26.7844 8.38469 -20.5399)
(-45.3494 4.47366 -1.96792 16.4381 -2.93558 8.01537)
(-40.7372 14.3342 -5.70776 -1.87475 -0.5174 -7.55566)
(-7.18828 14.7179 -6.31817 -0.92062 1.57972 -2.66622)
(5.37134 6.41892 -2.96711 -9.37568 4.28702 -10.7711)
(178.649 70.4408 -0.215248 397.363 -1.61826 228.985)
(29.8224 59.6409 -1.17978 88.5463 -0.735231 46.9517)
(-50.2859 54.7733 -1.36161 -92.8753 -0.843792 -55.9294)
(-189.557 56.4556 -0.635131 -378.295 -0.0516175 -224.594)
(-49.5611 23.5419 -0.554832 158.879 -4.36493 42.0125)
(-13.5111 64.0824 -2.88503 73.8363 -1.73426 23.9923)
(-27.4248 63.0163 -3.31684 -72.9288 0.418758 -37.2043)
(-3.20588 23.9304 -1.5116 -170.965 3.22719 -64.7811)
(-28.5339 23.9471 -0.756815 154.761 -5.8556 51.7934)
(-27.8505 53.3341 -3.53524 53.6204 -2.04904 11.7392)
(-20.135 53.661 -4.00759 -51.0557 1.59578 -25.4016)
(-18.9834 24.4173 -1.75658 -153.585 5.57569 -65.4857)
(-34.8826 19.0811 -0.776754 114.461 -6.46907 37.2607)
(-28.027 44.4952 -3.54538 41.5671 -1.99758 8.75223)
(-19.8901 45.0939 -3.97165 -37.0884 2.4538 -20.1964)
(-13.3132 20.2048 -1.70869 -110.459 7.06311 -48.7236)
(-34.3862 15.0632 -0.691148 82.6104 -6.33303 29.1649)
(-27.1196 36.3096 -3.27166 30.3848 -1.71669 6.57342)
(-18.7777 37.2331 -3.64026 -25.0715 2.96167 -15.7157)
(-12.499 16.8882 -1.51258 -76.5958 7.74471 -38.1966)
(-34.2977 10.6561 -0.662389 55.3818 -5.65279 22.4747)
(-25.7181 28.7324 -3.07665 20.697 -1.34371 5.04958)
(-17.2961 30.2619 -3.36573 -15.6451 3.04011 -12.1062)
(-10.5476 13.8095 -1.32494 -48.2352 7.60293 -29.3022)
(-32.3823 5.59783 -0.89832 38.0772 -4.50295 19.821)
(-26.3285 21.7826 -3.38099 11.4598 -0.965406 2.72829)
(-15.0404 23.82 -3.59945 -8.47841 2.54254 -8.71097)
(-6.71702 10.7655 -1.36657 -26.6289 6.44409 -21.5479)
(-45.5529 4.43533 -1.88139 18.1372 -2.2638 8.91162)
(-41.348 14.4026 -4.87949 -0.831106 -0.368251 -6.801)
(-7.75702 14.8233 -5.22698 -0.206284 1.23007 -1.95706)
(5.2073 6.55499 -2.42926 -8.77899 3.29672 -10.101)
(177.114 69.3816 -0.0499817 394.551 -1.9816 228.811)
(29.6539 58.0552 -0.553761 88.5622 -0.804341 47.4621)
(-49.895 53.0243 -0.6578 -91.5719 -0.199104 -55.9647)
(-187.315 55.0085 -0.304029 -373.453 0.964297 -223.566)
(-49.7433 22.9137 -0.204788 158.428 -3.21052 44.978)
(-13.9374 62.7555 -1.50995 74.0671 -1.22509 25.054)
(-27.6527 61.6597 -1.76457 -71.7759 0.386016 -38.3363)
(-4.00709 23.3457 -0.793677 -169.799 2.50466 -68.4246)
(-28.9737 23.5374 -0.400391 155.127 -4.05303 54.8552)
(-28.3895 52.5347 -2.07474 54.1805 -1.3717 12.7792)
(-20.5952 52.8891 -2.35426 -50.2561 1.1605 -26.7864)
(-19.3811 24.0614 -1.00811 -152.728 3.97227 -69.1099)
(-35.2622 18.866 -0.482365 115.537 -4.38894 40.0695)
(-28.5582 44.0952 -2.23049 42.3561 -1.30598 9.65127)
(-20.3703 44.7366 -2.47433 -36.4489 1.7453 -21.466)
(-13.7758 20.0777 -1.03367 -110.139 4.92948 -52.089)
(-34.683 14.9606 -0.48363 84.075 -4.29435 31.4921)
(-27.5623 36.1783 -2.17271 31.3298 -1.11599 7.34306)
(-19.2184 37.1622 -2.37473 -24.511 2.10016 -16.703)
(-12.9219 16.9146 -0.954361 -76.4968 5.39119 -40.8947)
(-34.469 10.6022 -0.512744 56.995 -3.87712 24.3563)
(-26.0326 28.7628 -2.14992 21.7038 -0.883547 5.75915)
(-17.6541 30.3754 -2.2989 -15.103 2.15304 -12.7031)
(-10.8959 13.9398 -0.877453 -48.1511 5.30682 -31.1706)
(-32.3574 5.53699 -0.726674 39.7121 -3.14514 21.4233)
(-26.5549 21.8941 -2.48617 12.4105 -0.650348 3.42377)
(-15.3285 24.021 -2.5912 -7.93435 1.79402 -8.85486)
(-6.94707 10.9405 -0.96873 -26.3972 4.51024 -22.4965)
(-45.6528 4.42925 -1.5037 19.4791 -1.60768 10.0994)
(-41.7677 14.5116 -3.71144 -0.0532521 -0.251069 -6.19628)
(-8.06896 14.9471 -3.90267 0.342682 0.862964 -1.62396)
(5.12734 6.65782 -1.80135 -8.39144 2.31217 -10.1137)
(175.868 68.604 0.00839488 392.29 -1.46664 228.212)
(29.5147 56.9622 -0.226092 88.5165 -0.572159 47.6649)
(-49.5441 51.8307 -0.279413 -90.5583 0.0291152 -55.8349)
(-185.532 53.992 -0.12732 -369.746 0.932298 -222.365)
(-49.8185 22.4705 -0.0486401 158.106 -1.96569 46.5185)
(-14.1903 61.8058 -0.696849 74.2148 -0.730484 25.5743)
(-27.7564 60.6942 -0.830656 -70.9029 0.26944 -38.9322)
(-4.51227 22.9394 -0.367448 -168.882 1.58451 -70.4058)
(-29.2447 23.2388 -0.179964 155.325 -2.39052 56.5363)
(-28.6916 51.9517 -1.06355 54.5666 -0.789624 13.3369)
(-20.8668 52.3264 -1.21124 -49.6369 0.706259 -27.6053)
(-19.5993 23.8051 -0.506881 -152.007 2.38579 -71.1606)
(-35.497 18.7105 -0.252671 116.216 -2.5522 41.7196)
(-28.8567 43.8097 -1.21026 42.8966 -0.738697 10.1648)
(-20.6445 44.4799 -1.33635 -35.9444 1.04317 -22.2463)
(-14.0309 19.9839 -0.544695 -109.794 2.91708 -54.0909)
(-34.8723 14.8922 -0.277942 85.0062 -2.49379 32.9532)
(-27.8061 36.0988 -1.2303 31.9711 -0.628569 7.81672)
(-19.4586 37.1212 -1.33161 -24.0707 1.24948 -17.3279)
(-13.1415 16.931 -0.522116 -76.3148 3.17853 -42.5688)
(-34.5803 10.5736 -0.317732 58.0175 -2.26774 25.6288)
(-26.198 28.8044 -1.26638 22.3766 -0.502579 6.22702)
(-17.8382 30.4679 -1.33716 -14.6933 1.27746 -13.0973)
(-11.0658 14.0278 -0.500382 -48.0053 3.12887 -32.3945)
(-32.358 5.5078 -0.467739 40.7285 -1.86224 22.5745)
(-26.6709 21.9876 -1.51819 13.0347 -0.377142 3.90162)
(-15.4694 24.1664 -1.56454 -7.54648 1.06083 -8.98284)
(-7.0389 11.0547 -0.581112 -26.1852 2.66048 -23.1992)
(-45.7328 4.43263 -0.964313 20.3244 -0.966245 11.0392)
(-42.0178 14.5962 -2.31068 0.452224 -0.14693 -5.77632)
(-8.22248 15.0332 -2.40642 0.720909 0.509646 -1.49071)
(5.11366 6.71927 -1.10953 -8.12394 1.36512 -10.3207)
(175.191 68.199 0.00866998 391.063 -0.530255 227.787)
(29.4399 56.4101 -0.0586939 88.4812 -0.20361 47.7311)
(-49.3431 51.2307 -0.0750443 -90.011 0.0332557 -55.7273)
(-184.568 53.4732 -0.0338157 -367.768 0.365362 -221.629)
(-49.8418 22.2429 -0.00462537 157.938 -0.661844 47.1651)
(-14.3068 61.3143 -0.19884 74.289 -0.242812 25.7835)
(-27.7932 60.1957 -0.240469 -70.4367 0.0963505 -39.1846)
(-4.75543 22.7321 -0.105183 -168.381 0.54181 -71.2692)
(-29.3713 23.0819 -0.0501821 155.413 -0.791042 57.2685)
(-28.8261 51.6439 -0.3246 54.7645 -0.258088 13.5767)
(-20.9914 52.0289 -0.370737 -49.3034 0.237234 -27.9829)
(-19.6963 23.6702 -0.153067 -151.605 0.796255 -72.0782)
(-35.6085 18.6276 -0.0779384 116.542 -0.838669 42.4701)
(-28.9904 43.6563 -0.381713 43.1709 -0.23929 10.3953)
(-20.7687 44.3405 -0.420716 -35.6712 0.347027 -22.6148)
(-14.1453 19.9316 -0.169281 -109.587 0.966298 -55.0155)
(-34.9643 14.8547 -0.0903955 85.4546 -0.81884 33.6455)
(-27.9141 36.0541 -0.3974 32.2932 -0.203191 8.04024)
(-19.5641 37.0949 -0.428245 -23.8327 0.414451 -17.6279)
(-13.2357 16.9352 -0.165961 -76.1919 1.05051 -43.3618)
(-34.6326 10.5576 -0.107768 58.5088 -0.747303 26.2603)
(-26.2683 28.824 -0.418034 22.7108 -0.163387 6.45761)
(-17.9151 30.5113 -0.438841 -14.4752 0.422985 -13.291)
(-11.1353 14.0685 -0.162862 -47.908 1.0336 -32.9941)
(-32.359 5.49394 -0.162042 41.2086 -0.618005 23.1654)
(-26.7177 22.0346 -0.510664 13.3419 -0.123938 4.14307)
(-15.5249 24.236 -0.523528 -7.3447 0.35068 -9.05462)
(-7.06995 11.1074 -0.194255 -26.0641 0.878674 -23.5678)
(-45.7638 4.4379 -0.333081 20.729 -0.325443 11.5512)
(-42.1267 14.6417 -0.783914 0.703857 -0.048759 -5.55852)
(-8.2869 15.0738 -0.812941 0.913123 0.168959 -1.45193)
(5.11087 6.74473 -0.375537 -7.99107 0.451195 -10.4835)
)
;

boundaryField
{
    interface
    {
        type            calculated;
        value           nonuniform List<symmTensor> 
192
(
(-28.5981 -0.104812 2.85159 413.282 33.1046 122.741)
(-27.8247 -0.1674 4.59514 194.645 -16.8486 21.756)
(-27.741 -0.351708 5.29983 198.245 -10.7052 45.177)
(-27.5671 -0.658356 5.58841 145.774 -13.3868 36.2901)
(-27.6309 -1.10719 5.67398 105.647 -12.0364 33.1089)
(-27.8944 -1.78614 5.57399 70.244 -10.3243 28.6939)
(-28.1872 -2.97851 5.21371 48.7314 -8.25754 27.6984)
(-26.5873 -4.7613 4.33067 34.9506 -4.2253 28.7723)
(-31.8376 0.0817542 1.94731 406.268 17.3816 129.686)
(-31.5492 0.0390629 3.18969 214.512 -11.0015 39.2634)
(-32.0838 -0.175992 3.66169 195.767 -16.6776 44.674)
(-32.4203 -0.585091 3.8319 145.359 -18.5871 38.3848)
(-32.6444 -1.17965 3.8406 103.17 -17.5969 34.5488)
(-32.7104 -2.07006 3.70004 68.1518 -15.1037 31.2766)
(-32.1079 -3.59422 3.36605 47.0097 -11.4848 31.1948)
(-27.7894 -5.63227 2.69876 35.471 -5.86879 34.0344)
(-33.6853 0.113252 1.32463 406.734 5.88143 138.014)
(-33.238 0.0744365 2.17553 212.119 -8.66894 51.511)
(-33.8084 -0.147122 2.46043 196.062 -13.7221 51.7024)
(-34.1714 -0.600899 2.52983 145.892 -15.7186 41.1846)
(-34.3119 -1.27918 2.49418 103.508 -15.285 34.1731)
(-34.1188 -2.29682 2.3625 68.6263 -13.3393 29.0053)
(-32.9228 -4.00016 2.12059 48.1213 -10.2409 28.0723)
(-27.3114 -6.10626 1.69097 36.3354 -5.05771 30.0085)
(-34.8728 0.103859 0.925512 404.624 -0.140113 142.773)
(-34.2819 0.0583094 1.53444 210.092 -7.28327 61.5234)
(-34.7983 -0.172008 1.72309 196.703 -10.5561 60.4073)
(-35.0817 -0.653503 1.74939 147.791 -12.0014 47.4126)
(-35.1164 -1.38475 1.70347 105.906 -11.8346 37.9297)
(-34.7125 -2.48167 1.59547 71.2876 -10.5311 30.8965)
(-33.1349 -4.29042 1.42613 51.0823 -8.3162 28.7907)
(-26.767 -6.41275 1.13754 39.0989 -4.30187 30.05)
(-35.6504 0.0896985 0.641972 401.017 -2.52747 144.53)
(-34.9798 0.0325854 1.07634 208.615 -5.92603 67.6209)
(-35.4344 -0.209168 1.20582 197.095 -7.87148 66.5837)
(-35.641 -0.710697 1.21573 149.417 -8.74106 52.5968)
(-35.5801 -1.47725 1.17428 108.163 -8.64035 41.7393)
(-35.0253 -2.62437 1.0928 73.7915 -7.81243 33.4987)
(-33.1988 -4.50049 0.976607 53.6955 -6.33434 30.6035)
(-26.3239 -6.62641 0.779175 41.4594 -3.35191 31.2939)
(-36.1559 0.0781375 0.423363 397.392 -2.84747 144.814)
(-35.4457 0.00978679 0.715938 207.547 -4.39607 71.0244)
(-35.8474 -0.24295 0.802418 197.343 -5.49156 70.4352)
(-35.9916 -0.759246 0.806079 150.63 -5.96504 56.1845)
(-35.8565 -1.54926 0.77485 109.882 -5.8849 44.7093)
(-35.2034 -2.72816 0.718377 75.691 -5.37926 35.853)
(-33.2166 -4.64805 0.641908 55.6279 -4.44644 32.5479)
(-26.0009 -6.77379 0.511414 43.3001 -2.39843 33.0017)
(-36.4602 0.0702067 0.239675 394.617 -2.05903 144.576)
(-35.7214 -0.00578336 0.40771 206.829 -2.70433 72.7504)
(-36.0991 -0.26669 0.457802 197.472 -3.2574 72.5612)
(-36.2077 -0.793331 0.459206 151.402 -3.48583 58.3116)
(-36.0359 -1.59803 0.440247 110.976 -3.43143 46.5991)
(-35.3084 -2.79661 0.40687 76.9027 -3.15734 37.489)
(-33.2216 -4.7434 0.360984 56.8416 -2.64282 34.0084)
(-25.7974 -6.86501 0.283116 44.4766 -1.44925 34.3785)
(-36.5945 0.0655098 0.0767968 393.142 -0.738555 144.349)
(-35.8393 -0.014264 0.131138 206.469 -0.912403 73.4625)
(-36.2049 -0.278909 0.1474 197.53 -1.08093 73.4944)
(-36.308 -0.810524 0.147826 151.774 -1.14851 59.2821)
(-36.1173 -1.62279 0.141543 111.506 -1.12931 47.5021)
(-35.3469 -2.83312 0.130432 77.491 -1.04247 38.3141)
(-33.1938 -4.79466 0.114178 57.4319 -0.878859 34.7868)
(-25.6597 -6.90018 0.0869058 45.058 -0.489467 35.1469)
(31.506 63.1984 -3.78743 261.295 -0.855751 -12.7838)
(-82.7537 28.9683 -6.46558 105.749 -1.25932 -8.10995)
(-58.856 36.4338 -7.67805 122.729 -1.26762 -4.56995)
(-60.4748 31.7069 -8.32746 86.8595 -1.19657 -2.33553)
(-55.2415 27.6211 -8.76478 61.4437 -1.20696 -1.16681)
(-52.6502 21.5516 -9.12569 37.2734 -1.35859 -0.888616)
(-50.9316 14.384 -9.55291 21.126 -1.70882 -1.49827)
(-59.4325 8.50884 -10.4619 5.97194 -2.18973 -2.98208)
(-8.48362 52.414 -2.58707 53.2915 -0.680235 -11.4656)
(-44.5267 71.9553 -4.73569 34.4664 -1.07183 -9.43966)
(-46.159 72.9599 -5.59251 36.3638 -1.10272 -7.2705)
(-45.4987 66.4994 -5.99466 25.8508 -0.909367 -5.78837)
(-42.9246 57.5403 -6.26165 17.1037 -0.709748 -5.00504)
(-40.7325 46.6633 -6.5263 8.43879 -0.592371 -4.82127)
(-39.604 34.8043 -6.94635 1.57519 -0.615509 -5.17524)
(-47.5368 20.3908 -8.13162 -4.7132 -0.731074 -5.73556)
(-24.9161 47.7477 -2.14222 -80.7428 -0.46368 -10.6959)
(0.496937 70.2277 -4.23441 -43.8789 -0.81214 -9.94807)
(-3.15667 73.1467 -5.10671 -41.4947 -0.86824 -8.57396)
(-4.58355 67.1249 -5.49693 -30.2908 -0.660879 -7.57235)
(-6.31938 58.4348 -5.72614 -22.3807 -0.398095 -7.05345)
(-7.07614 48.0257 -5.95028 -16.0219 -0.175737 -6.95515)
(-7.09028 36.3851 -6.34328 -11.8693 -0.0401434 -7.24715)
(-2.09133 20.5933 -7.54461 -5.97061 -0.00832833 -7.78932)
(-62.7555 50.9863 -2.08026 -275.042 -0.439465 -9.51357)
(39.3677 28.1045 -4.36055 -115.837 -0.755934 -9.11319)
(16.0214 37.078 -5.31851 -125.195 -0.763583 -7.73566)
(17.1792 32.943 -5.74266 -87.646 -0.504448 -6.7846)
(12.5774 29.1713 -5.96586 -61.8403 -0.192418 -6.30391)
(10.6343 23.8829 -6.16354 -39.0365 0.0829724 -6.16898)
(10.3379 17.7209 -6.51532 -23.7177 0.335515 -6.30427)
(17.4916 9.36366 -7.67214 -10.2531 0.607456 -6.82442)
(-6.31917 0.541622 0.670761 -405.119 -38.6616 -132.484)
(-4.39272 0.830169 1.37122 -201.298 13.0972 -32.1812)
(-2.61249 0.765519 1.53595 -192.658 8.61176 -45.5483)
(-1.66024 0.423436 1.54914 -136.525 12.1604 -32.4842)
(-1.20662 0.0635714 1.59282 -95.0003 11.7561 -27.2627)
(-0.789355 -0.226318 1.7367 -60.0792 10.903 -22.7961)
(0.522521 -0.651642 2.03812 -36.7896 9.14446 -21.5151)
(5.23049 -2.39014 2.48899 -21.2328 4.17222 -21.1326)
(-8.59423 0.216447 -0.046318 -395.594 -22.7489 -139.295)
(-8.46832 0.392935 0.177778 -225.889 7.23404 -52.762)
(-7.99974 0.389647 0.179907 -195.655 14.6038 -49.8263)
(-7.7779 0.218092 0.128463 -141.846 18.0749 -40.0125)
(-7.62684 0.0386657 0.146413 -98.2886 18.5693 -34.5448)
(-7.17219 -0.062036 0.275861 -62.9116 17.3344 -30.8963)
(-5.44522 -0.2437 0.531143 -38.1254 14.3271 -29.2652)
(1.19745 -2.00549 0.979034 -21.9792 7.72 -27.9194)
(-10.0545 0.0420477 -0.150568 -395.901 -9.75449 -149.321)
(-10.4591 0.125951 0.0152952 -225.709 6.22141 -69.257)
(-10.4287 0.159306 0.0748553 -197.712 12.4915 -62.3812)
(-10.4094 0.105348 0.0880283 -144.217 15.8617 -48.887)
(-10.2377 0.0610429 0.140198 -100.075 16.8283 -40.1167)
(-9.54712 0.096637 0.262547 -64.009 16.0355 -33.7824)
(-7.36209 0.0555213 0.447445 -38.3448 13.4763 -29.6629)
(-0.0925978 -1.66159 0.704118 -20.3855 7.08274 -24.3621)
(-11.0366 -0.0197582 -0.109065 -392.707 -2.51338 -154.793)
(-11.5743 0.0179605 0.0532493 -224.267 5.73127 -81.2992)
(-11.6776 0.0658404 0.14959 -197.906 10.0001 -73.3041)
(-11.7004 0.0801513 0.199118 -145.293 12.5498 -57.4469)
(-11.4433 0.12396 0.261699 -101.215 13.5163 -45.9631)
(-10.5239 0.246494 0.359535 -64.8041 13.0987 -37.0966)
(-7.99489 0.276496 0.479223 -38.441 11.1689 -30.5254)
(-0.343764 -1.44035 0.61613 -19.7153 5.94968 -22.5811)
(-11.7194 -0.0383902 -0.06169 -387.764 0.820245 -156.938)
(-12.2883 -0.0165236 0.0797237 -222.721 4.95126 -88.7832)
(-12.4289 0.0418969 0.175201 -197.34 7.7008 -80.7964)
(-12.4406 0.0955095 0.23048 -145.55 9.42043 -63.9155)
(-12.0982 0.191515 0.28488 -101.743 10.1585 -50.8114)
(-11.0141 0.364248 0.352973 -65.1906 9.93157 -40.1743)
(-8.2633 0.431125 0.423372 -38.3938 8.5444 -31.8044)
(-0.364469 -1.2976 0.494989 -19.2069 4.57297 -22.0041)
(-12.1723 -0.0420072 -0.0288456 -382.925 1.83207 -157.42)
(-12.7428 -0.0223355 0.0790883 -221.301 3.81128 -93.1121)
(-12.8842 0.0452366 0.154693 -196.567 5.49416 -85.4466)
(-12.87 0.121148 0.200136 -145.424 6.56913 -68.2127)
(-12.4612 0.24621 0.239979 -101.873 7.05395 -54.265)
(-11.2671 0.446285 0.283353 -65.2919 6.91559 -42.5791)
(-8.3775 0.53192 0.322455 -38.2615 5.97601 -33.0901)
(-0.322293 -1.20841 0.35719 -18.8869 3.21356 -22.2242)
(-12.4462 -0.0410346 -0.0112787 -379.258 1.5353 -157.28)
(-13.0119 -0.0195472 0.0555337 -220.213 2.3957 -95.4198)
(-13.1452 0.0545879 0.102468 -195.896 3.30316 -88.0666)
(-13.1084 0.142613 0.131063 -145.204 3.88891 -70.7576)
(-12.6553 0.283058 0.154818 -101.84 4.15713 -56.413)
(-11.3932 0.497421 0.178973 -65.2683 4.07589 -44.1727)
(-8.41808 0.591094 0.199082 -38.1196 3.52697 -34.0611)
(-0.269962 -1.15787 0.2107 -18.6721 1.90056 -22.6281)
(-12.5757 -0.0401548 -0.00297791 -377.31 0.578632 -157.087)
(-13.1385 -0.0173128 0.0193713 -219.626 0.8164 -96.4109)
(-13.2675 0.0601986 0.034971 -195.516 1.10292 -89.2356)
(-13.2192 0.153854 0.0445303 -145.057 1.28876 -71.9296)
(-12.7448 0.301318 0.0523271 -101.792 1.3741 -57.4327)
(-11.4507 0.52238 0.0601486 -65.2344 1.34663 -44.9596)
(-8.42678 0.615882 0.0665735 -38.0325 1.16536 -34.5711)
(-0.250617 -1.13827 0.067597 -18.5724 0.628451 -22.9083)
(-64.2676 10.926 -4.29374 -0.835374 -1.46241 -3.90421)
(-57.5138 10.2524 -1.97838 1.9593 -1.1021 2.02802)
(-57.4894 10.1965 -2.58678 4.22723 -0.748203 -0.0214403)
(-57.4853 10.2863 -2.80783 6.05037 -0.50874 0.020114)
(-57.9529 10.3984 -2.64881 7.43839 -0.349684 0.460059)
(-58.3343 10.4974 -2.10305 8.43853 -0.235482 1.28697)
(-58.5942 10.5703 -1.34317 9.0753 -0.148839 2.01868)
(-58.7568 10.6064 -0.462668 9.30814 -0.0555436 2.39198)
(-52.7643 8.17692 -8.07337 -4.45531 0.0237368 -12.993)
(-47.6664 6.98683 -7.66658 -3.24269 0.0647513 -11.648)
(-47.4547 6.71286 -7.33541 -1.68343 0.160927 -10.4712)
(-48.1862 6.66017 -6.94307 -0.347731 0.176866 -9.36179)
(-48.974 6.6669 -6.04015 0.686024 0.149952 -8.61818)
(-49.5455 6.68935 -4.63073 1.44113 0.109587 -8.03967)
(-49.8877 6.71552 -2.89326 1.94674 0.0656525 -7.63127)
(-50.0197 6.74165 -0.982683 2.22958 0.0217122 -7.3981)
(-0.647314 7.46224 -8.21585 -7.19383 0.592991 -6.26644)
(-4.4287 6.24153 -9.03361 -6.29149 0.55048 -8.16935)
(-5.82865 5.91261 -8.60564 -5.21361 0.517189 -5.66069)
(-6.88127 5.80658 -7.77646 -4.25295 0.440714 -3.75916)
(-7.51099 5.7694 -6.54275 -3.49516 0.342605 -2.60189)
(-7.86528 5.75678 -4.92359 -2.93673 0.243169 -2.02503)
(-8.04928 5.75388 -3.04672 -2.56469 0.148474 -1.77275)
(-8.11836 5.75384 -1.03054 -2.35815 0.0512797 -1.67501)
(19.4025 7.55378 -4.90817 -6.58655 0.997673 -8.92037)
(13.7132 6.43641 -4.7639 -5.73151 0.774153 -13.4716)
(12.7247 6.14632 -4.639 -5.04777 0.626158 -8.9708)
(12.0509 6.0538 -4.06953 -4.40866 0.506838 -6.39441)
(11.9171 6.01762 -3.37937 -3.87897 0.388707 -5.00442)
(11.8917 6.00094 -2.52021 -3.48004 0.273841 -4.5847)
(11.9063 5.99158 -1.55578 -3.21504 0.163941 -4.57198)
(11.9134 5.98042 -0.526975 -3.0851 0.0550755 -4.64631)
)
;
    }
    symmetry
    {
        type            symmetryPlane;
    }
    bottom
    {
        type            calculated;
        value           nonuniform List<symmTensor> 
32
(
(206.694 81.6401 0 310.04 80.9503 206.694)
(202.897 86.9257 0 304.345 37.2576 202.897)
(205.983 88.2571 0 308.975 15.4572 205.983)
(206.804 87.4996 0 310.206 4.88251 206.804)
(206.131 86.2019 0 309.196 0.22662 206.131)
(205.041 85.0021 0 307.562 -1.32532 205.041)
(204.09 84.1393 0 306.135 -1.2861 204.09)
(203.557 83.6936 0 305.335 -0.501087 203.557)
(38.825 38.5962 0 58.2375 25.3935 38.825)
(40.7984 44.172 0 61.1975 12.4752 40.7984)
(43.1907 42.8918 0 64.786 5.25519 43.1907)
(44.1323 40.5108 0 66.1984 1.64796 44.1323)
(44.5178 38.3629 0 66.7767 0.0626983 44.5178)
(44.6808 36.7501 0 67.0213 -0.453224 44.6808)
(44.7492 35.7024 0 67.1237 -0.432221 44.7492)
(44.774 35.1897 0 67.161 -0.167223 44.774)
(-53.92 33.8454 0 -80.88 -26.5285 -53.92)
(-50.8394 39.2259 0 -76.2591 -14.5658 -50.8394)
(-51.4411 37.2908 0 -77.1616 -7.5949 -51.4411)
(-51.3569 34.389 0 -77.0354 -3.60428 -51.3569)
(-50.8977 31.8828 0 -76.3466 -1.43949 -50.8977)
(-50.3476 30.0317 0 -75.5213 -0.392041 -50.3476)
(-49.8921 28.837 0 -74.8381 -0.00514623 -49.8921)
(-49.6396 28.2542 0 -74.4594 0.0343539 -49.6396)
(-205.546 65.9817 0 -308.318 -84.8459 -205.546)
(-198.467 69.5391 0 -297.7 -42.1406 -198.467)
(-201.039 68.7162 0 -301.558 -19.4193 -201.039)
(-200.767 66.3892 0 -301.15 -7.5765 -200.767)
(-198.963 63.9926 0 -298.444 -1.85171 -198.963)
(-196.887 62.0432 0 -295.331 0.448806 -196.887)
(-195.223 60.7088 0 -292.834 0.880026 -195.223)
(-194.318 60.0361 0 -291.477 0.386207 -194.318)
)
;
    }
}


// ************************************************************************* //
