/*--------------------------------*- C++ -*----------------------------------*\
| =========                 |                                                 |
| \\      /  F ield         | foam-extend: Open Source CFD                    |
|  \\    /   O peration     | Version:     3.1                                |
|   \\  /    A nd           | Web:         http://www.extend-project.de       |
|    \\/     M anipulation  |                                                 |
\*---------------------------------------------------------------------------*/
FoamFile
{
    version     2.0;
    format      ascii;
    class       volVectorField;
    location    "1.5";
    object      U;
}
// * * * * * * * * * * * * * * * * * * * * * * * * * * * * * * * * * * * * * //

dimensions      [0 1 -1 0 0 0 0];

internalField   nonuniform List<vector> 
256
(
(-0.000657817 -0.000492491 -0.000905028)
(-0.000209291 -9.90379e-05 -0.000242782)
(-0.000189354 0.000173417 0.000405646)
(-0.00060384 0.000626154 0.0011616)
(-0.00295521 -0.00203991 -0.00103518)
(-0.00243823 -0.000501698 -0.000337738)
(-0.00236995 0.000802066 0.000544477)
(-0.00271915 0.00243439 0.00125627)
(-0.0060292 -0.00312107 -0.00105728)
(-0.00551676 -0.000773666 -0.000339122)
(-0.0054106 0.00137128 0.000466392)
(-0.0056748 0.00382846 0.00118146)
(-0.00979348 -0.00388801 -0.0009439)
(-0.00933174 -0.000890355 -0.000325442)
(-0.00918916 0.00192189 0.000352878)
(-0.00932194 0.00502554 0.000958609)
(-0.0139979 -0.00431754 -0.000787612)
(-0.0135817 -0.000864102 -0.000295533)
(-0.0134074 0.00242685 0.000231257)
(-0.0134291 0.00597143 0.000707439)
(-0.0184073 -0.00447239 -0.000631177)
(-0.0180342 -0.000729442 -0.000262051)
(-0.0178357 0.0028793 0.00012386)
(-0.0177682 0.00669654 0.000477392)
(-0.0228227 -0.00442057 -0.000508792)
(-0.0224869 -0.000522216 -0.000234653)
(-0.0222756 0.00327211 3.66134e-05)
(-0.0221493 0.0072318 0.000296504)
(-0.0271105 -0.00424036 -0.000438609)
(-0.0267898 -0.000276163 -0.000216807)
(-0.0265781 0.00360813 -3.19829e-05)
(-0.0264383 0.00762791 0.000174975)
(-0.000799034 -0.000477547 -0.000495068)
(-0.000385755 -8.90919e-05 -0.00013355)
(-0.000370551 0.00015922 0.000251651)
(-0.000749441 0.000581077 0.000683495)
(-0.0033434 -0.00197242 -0.000669667)
(-0.00275301 -0.00045883 -0.000207497)
(-0.00269412 0.000796716 0.000369776)
(-0.00313375 0.00240547 0.000848623)
(-0.00648143 -0.00308707 -0.000738273)
(-0.00595256 -0.000730451 -0.000232642)
(-0.00584447 0.00141262 0.000341022)
(-0.00611983 0.00387585 0.000847449)
(-0.010242 -0.00386911 -0.000706299)
(-0.00976545 -0.000855658 -0.000240414)
(-0.00961414 0.00197114 0.000268488)
(-0.00974569 0.00508872 0.000726824)
(-0.0143977 -0.0043185 -0.000630216)
(-0.0139727 -0.000845068 -0.000234146)
(-0.0137855 0.00246981 0.000184942)
(-0.013793 0.00603205 0.000568847)
(-0.0187451 -0.00449002 -0.000545397)
(-0.0183666 -0.000726888 -0.000222099)
(-0.0181543 0.00290707 0.000108431)
(-0.0180683 0.006742 0.000418375)
(-0.0231079 -0.00445269 -0.00047622)
(-0.02277 -0.000533926 -0.000211184)
(-0.0225472 0.00328437 4.60876e-05)
(-0.022403 0.0072615 0.000298194)
(-0.0273716 -0.00428682 -0.000432738)
(-0.0270505 -0.000300096 -0.000203468)
(-0.0268319 0.00361104 7.54176e-07)
(-0.0266818 0.00765052 0.000216428)
(-0.00086922 -0.000501448 -0.000284695)
(-0.000437958 -9.31308e-05 -7.59659e-05)
(-0.000424423 0.0001651 0.000157676)
(-0.000823583 0.000605239 0.00041049)
(-0.00355366 -0.00196848 -0.000426608)
(-0.00291659 -0.000446242 -0.000128151)
(-0.00286403 0.000795715 0.000241793)
(-0.00336062 0.00241422 0.000553441)
(-0.00676646 -0.00306849 -0.000501536)
(-0.00620183 -0.00071233 -0.000156888)
(-0.00609695 0.00141959 0.000235344)
(-0.0064137 0.00388264 0.000582444)
(-0.0105542 -0.00384222 -0.000512073)
(-0.0100549 -0.000836822 -0.000174334)
(-0.00990322 0.00197907 0.000193417)
(-0.0100579 0.00508777 0.000527405)
(-0.0147075 -0.00429555 -0.000489664)
(-0.0142691 -0.00083236 -0.000182209)
(-0.0140791 0.00247408 0.000140234)
(-0.0140969 0.00602571 0.000439964)
(-0.0190384 -0.00448034 -0.000455551)
(-0.0186536 -0.000724766 -0.000184332)
(-0.0184375 0.00290514 8.94025e-05)
(-0.0183528 0.00673281 0.000351444)
(-0.0233859 -0.00446331 -0.000424439)
(-0.023047 -0.000544364 -0.000183931)
(-0.0228207 0.00327676 4.78431e-05)
(-0.0226725 0.00725508 0.000279264)
(-0.0276493 -0.00432018 -0.00039985)
(-0.0273309 -0.00032191 -0.000180303)
(-0.0271111 0.00360176 2.00353e-05)
(-0.0269569 0.00765433 0.000229817)
(-0.000904251 -0.000518635 -0.000169412)
(-0.000454857 -9.67659e-05 -4.48632e-05)
(-0.00044172 0.000169294 9.8203e-05)
(-0.000860304 0.000624896 0.000247758)
(-0.00367198 -0.00198299 -0.000273726)
(-0.00300461 -0.000446518 -8.13485e-05)
(-0.00295525 0.000794513 0.000155977)
(-0.00348745 0.00242884 0.000356697)
(-0.00694364 -0.00307064 -0.000338758)
(-0.00635405 -0.00071002 -0.000106583)
(-0.0062522 0.0014163 0.000158052)
(-0.00659924 0.00388388 0.00039199)
(-0.0107686 -0.0038349 -0.000365429)
(-0.010252 -0.0008333 -0.000125812)
(-0.0101021 0.00197305 0.000134869)
(-0.010278 0.00507745 0.000372259)
(-0.0149409 -0.00428662 -0.000370639)
(-0.0144921 -0.000831288 -0.000139276)
(-0.0143028 0.00246468 0.000102305)
(-0.0143335 0.00600853 0.000328755)
(-0.0192795 -0.00447857 -0.000365256)
(-0.0188898 -0.000729917 -0.00014803)
(-0.0186738 0.00289239 7.00244e-05)
(-0.0185952 0.00671407 0.000281164)
(-0.0236318 -0.00447565 -0.000356417)
(-0.0232923 -0.000558 -0.000152538)
(-0.0230661 0.0032617 4.37792e-05)
(-0.0229193 0.00724042 0.000241505)
(-0.0279044 -0.00434882 -0.000343636)
(-0.0275884 -0.000343536 -0.000150421)
(-0.0273697 0.00358714 2.79516e-05)
(-0.0272154 0.0076486 0.000214425)
(-0.000923244 -0.000529872 -0.000102808)
(-0.000461035 -9.94818e-05 -2.7329e-05)
(-0.000447817 0.000171871 6.01572e-05)
(-0.000879872 0.000637635 0.000148825)
(-0.00374189 -0.0020004 -0.000175651)
(-0.00305445 -0.000451328 -5.24659e-05)
(-0.00300645 0.00079284 9.87404e-05)
(-0.00356137 0.00244123 0.000226501)
(-0.00705662 -0.00308407 -0.000226301)
(-0.0064504 -0.000715555 -7.22027e-05)
(-0.00635033 0.00141085 0.000103279)
(-0.00671721 0.00388694 0.000258068)
(-0.0109163 -0.00384302 -0.000254942)
(-0.0103876 -0.000838972 -8.91556e-05)
(-0.0102392 0.00196391 9.08981e-05)
(-0.0104302 0.00507098 0.000254977)
(-0.0151134 -0.0042928 -0.000270555)
(-0.0146568 -0.000838547 -0.000102913)
(-0.0144687 0.00245234 7.16057e-05)
(-0.0145095 0.00599555 0.000235923)
(-0.0194687 -0.00448821 -0.000278054)
(-0.0190752 -0.000740932 -0.000113153)
(-0.01886 0.00287753 5.19348e-05)
(-0.0187872 0.0066988 0.000212745)
(-0.0238337 -0.00449344 -0.000279949)
(-0.0234933 -0.000574275 -0.000118926)
(-0.023268 0.00324541 3.62303e-05)
(-0.0231237 0.00722705 0.000193087)
(-0.0281184 -0.00437656 -0.000273707)
(-0.0278035 -0.000364877 -0.000117233)
(-0.0275863 0.00357123 2.80693e-05)
(-0.0274333 0.00764053 0.000179931)
(-0.000934377 -0.000537139 -6.14193e-05)
(-0.00046374 -0.000101391 -1.65539e-05)
(-0.000450306 0.000173405 3.53846e-05)
(-0.000891 0.000645512 8.67187e-05)
(-0.00378446 -0.00201562 -0.000109067)
(-0.00308393 -0.000456821 -3.30336e-05)
(-0.00303637 0.000791284 5.97832e-05)
(-0.00360555 0.0024504 0.000138034)
(-0.00712909 -0.00310007 -0.000144743)
(-0.00651187 -0.000723352 -4.69648e-05)
(-0.0064126 0.00140596 6.40935e-05)
(-0.00679202 0.00389097 0.000161884)
(-0.0110162 -0.00385742 -0.000168328)
(-0.0104792 -0.000847973 -5.97981e-05)
(-0.0103317 0.00195576 5.77802e-05)
(-0.0105324 0.00506875 0.000164955)
(-0.0152357 -0.00430638 -0.00018445)
(-0.0147736 -0.000849012 -7.09654e-05)
(-0.0145862 0.00244145 4.68748e-05)
(-0.0146338 0.00598836 0.000158099)
(-0.0196081 -0.00450356 -0.000194984)
(-0.0192116 -0.000753823 -7.96981e-05)
(-0.018997 0.00286457 3.5545e-05)
(-0.0189284 0.00668911 0.000148142)
(-0.0239865 -0.00451316 -0.000200272)
(-0.0236451 -0.000590376 -8.46929e-05)
(-0.0234204 0.00323124 2.67666e-05)
(-0.0232784 0.00721753 0.000139609)
(-0.0282825 -0.00440187 -0.000197327)
(-0.0279677 -0.000384067 -8.32131e-05)
(-0.0277517 0.00355709 2.30673e-05)
(-0.0276004 0.00763352 0.000134138)
(-0.000940894 -0.000541538 -3.28892e-05)
(-0.000465143 -0.000102607 -9.01012e-06)
(-0.000451503 0.000174261 1.84899e-05)
(-0.000897294 0.000650056 4.51976e-05)
(-0.00380966 -0.00202656 -5.97928e-05)
(-0.00310108 -0.000461176 -1.83821e-05)
(-0.00305354 0.000790164 3.19291e-05)
(-0.00363106 0.00245643 7.42667e-05)
(-0.00717295 -0.00311322 -8.09054e-05)
(-0.00654894 -0.000730061 -2.66419e-05)
(-0.00644995 0.0014025 3.48251e-05)
(-0.00683675 0.0038945 8.88969e-05)
(-0.0110783 -0.00387081 -9.60656e-05)
(-0.0105362 -0.000856107 -3.4564e-05)
(-0.0103892 0.00194996 3.19149e-05)
(-0.0105957 0.00506869 9.25232e-05)
(-0.0153136 -0.00431975 -0.000107407)
(-0.0148483 -0.000858371 -4.16941e-05)
(-0.0146614 0.00243368 2.64183e-05)
(-0.0147131 0.00598509 9.07885e-05)
(-0.0196995 -0.00451785 -0.000115472)
(-0.019301 -0.000764712 -4.73736e-05)
(-0.0190869 0.00285529 2.06525e-05)
(-0.0190209 0.00668384 8.72134e-05)
(-0.0240885 -0.00452969 -0.000119983)
(-0.0237462 -0.000603148 -5.0612e-05)
(-0.023522 0.003221 1.63357e-05)
(-0.0233815 0.00721176 8.41483e-05)
(-0.028393 -0.00442129 -0.000118677)
(-0.028078 -0.000398616 -4.95459e-05)
(-0.0278626 0.00354667 1.49438e-05)
(-0.0277126 0.00762871 8.23443e-05)
(-0.000943943 -0.000543632 -1.03791e-05)
(-0.000465781 -0.0001032 -2.874e-06)
(-0.000452027 0.000174644 5.7342e-06)
(-0.000900176 0.000652136 1.40197e-05)
(-0.00382145 -0.00203224 -1.90755e-05)
(-0.00310907 -0.000463534 -5.91991e-06)
(-0.00306148 0.000789588 1.00197e-05)
(-0.00364284 0.00245941 2.34202e-05)
(-0.00719376 -0.00312049 -2.60576e-05)
(-0.0065665 -0.000733834 -8.65531e-06)
(-0.00646757 0.00140073 1.10261e-05)
(-0.00685778 0.0038965 2.8333e-05)
(-0.0111079 -0.00387861 -3.12598e-05)
(-0.0105636 -0.000860792 -1.13282e-05)
(-0.0104167 0.00194698 1.01894e-05)
(-0.010626 0.00506908 2.98091e-05)
(-0.0153514 -0.00432769 -3.52873e-05)
(-0.0148847 -0.00086375 -1.3766e-05)
(-0.014698 0.00242967 8.52178e-06)
(-0.0147517 0.00598392 2.95966e-05)
(-0.0197447 -0.0045262 -3.82323e-05)
(-0.0193453 -0.000770846 -1.5719e-05)
(-0.0191313 0.00285048 6.76636e-06)
(-0.0190665 0.00668158 2.87808e-05)
(-0.0241394 -0.00453896 -3.99344e-05)
(-0.0237966 -0.000610175 -1.68277e-05)
(-0.0235727 0.00321564 5.4832e-06)
(-0.0234328 0.00720908 2.80861e-05)
(-0.0284485 -0.00443174 -3.95608e-05)
(-0.0281332 -0.000406473 -1.6436e-05)
(-0.0279182 0.00354114 5.15534e-06)
(-0.0277688 0.00762628 2.77232e-05)
)
;

boundaryField
{
    interface
    {
        type            calculated;
        value           nonuniform List<vector> 
192
(
(-0.00157804 -0.00155177 -0.0009899)
(-0.00340393 -0.00318645 -0.00125212)
(-0.00652359 -0.0047089 -0.00130565)
(-0.0101964 -0.00575238 -0.00117617)
(-0.014332 -0.00637103 -0.000985906)
(-0.0186718 -0.00660741 -0.000790471)
(-0.0230342 -0.00655545 -0.000637666)
(-0.0272993 -0.00633794 -0.000554294)
(-0.00173309 -0.00167785 -0.000547808)
(-0.0038567 -0.00317825 -0.000813063)
(-0.006974 -0.00467823 -0.000918215)
(-0.010646 -0.00571722 -0.000890098)
(-0.0147265 -0.00634282 -0.000802623)
(-0.019005 -0.0065967 -0.000699398)
(-0.0233157 -0.00656908 -0.000614853)
(-0.0275585 -0.00638263 -0.000566716)
(-0.00186169 -0.00178606 -0.000315477)
(-0.00409483 -0.00322082 -0.00051257)
(-0.00728038 -0.00467489 -0.000618686)
(-0.0109699 -0.00569015 -0.00064488)
(-0.01504 -0.00630957 -0.000625568)
(-0.019297 -0.00657525 -0.000588447)
(-0.02359 -0.00657285 -0.000554006)
(-0.0278297 -0.00641963 -0.00053072)
(-0.00193757 -0.00185392 -0.000187296)
(-0.00423512 -0.00326558 -0.000325932)
(-0.00747673 -0.00469676 -0.000414653)
(-0.011197 -0.00569113 -0.000458287)
(-0.0152801 -0.00630197 -0.000473226)
(-0.0195402 -0.0065722 -0.000472879)
(-0.023835 -0.00658532 -0.000467364)
(-0.0280811 -0.00645306 -0.00045908)
(-0.00198222 -0.00189627 -0.000113441)
(-0.00432049 -0.00330348 -0.00020795)
(-0.00760359 -0.00472716 -0.000275645)
(-0.0113546 -0.00571042 -0.000318771)
(-0.0154587 -0.00631476 -0.000345056)
(-0.0197322 -0.00658591 -0.000360101)
(-0.0240371 -0.00660682 -0.000367697)
(-0.0282936 -0.00648603 -0.000366884)
(-0.00200915 -0.00192293 -6.77585e-05)
(-0.0043732 -0.00333235 -0.000128852)
(-0.00768537 -0.00475595 -0.000175945)
(-0.0114615 -0.00573491 -0.000210106)
(-0.0155855 -0.00633582 -0.000234966)
(-0.0198739 -0.00660681 -0.0002524)
(-0.0241906 -0.00663117 -0.000263188)
(-0.0284574 -0.00651608 -0.00026508)
(-0.00202486 -0.00193886 -3.63163e-05)
(-0.00440456 -0.00335169 -7.06377e-05)
(-0.00773493 -0.0047775 -9.82749e-05)
(-0.0115278 -0.00575553 -0.000119721)
(-0.0156661 -0.00635515 -0.000136602)
(-0.0199669 -0.00662584 -0.000149327)
(-0.0242932 -0.00665156 -0.000157676)
(-0.0285681 -0.00653909 -0.000159629)
(-0.00203214 -0.00194639 -1.14665e-05)
(-0.00441923 -0.0033614 -2.25399e-05)
(-0.00775849 -0.00478889 -3.16358e-05)
(-0.0115594 -0.00576701 -3.89139e-05)
(-0.0157052 -0.00636633 -4.48232e-05)
(-0.0200129 -0.00663687 -4.94069e-05)
(-0.0243445 -0.006663 -5.24723e-05)
(-0.0286237 -0.00655145 -5.32395e-05)
(-0.00053206 -0.00102233 -0.0014204)
(-0.00265045 -0.00204529 -0.00115037)
(-0.00572313 -0.00312461 -0.00122481)
(-0.0095098 -0.00382866 -0.0010554)
(-0.0137676 -0.00424131 -0.0008655)
(-0.0182326 -0.00439509 -0.000675122)
(-0.0226932 -0.00435893 -0.000528622)
(-0.0270082 -0.00420562 -0.000440717)
(8.89984e-06 -0.000286529 -0.000362006)
(-0.00200242 -0.000524974 -0.000386271)
(-0.00511752 -0.000805945 -0.000385779)
(-0.00899001 -0.000901002 -0.000359946)
(-0.0133201 -0.000860715 -0.000322241)
(-0.0178487 -0.00071612 -0.000281734)
(-0.0223631 -0.000505478 -0.000249644)
(-0.0267063 -0.000263444 -0.000222907)
(4.12659e-05 0.00045584 0.000563802)
(-0.00193753 0.000743552 0.000564248)
(-0.00501986 0.00130236 0.000501719)
(-0.00886168 0.00183458 0.000374849)
(-0.0131612 0.00235338 0.000243707)
(-0.0176645 0.00282614 0.000125525)
(-0.0221639 0.00323967 2.90426e-05)
(-0.0265028 0.00359468 -5.41364e-05)
(-0.000440224 0.00134936 0.00167941)
(-0.00243399 0.00236843 0.00134489)
(-0.00539426 0.00374481 0.00134196)
(-0.00908359 0.00488049 0.00106034)
(-0.0132506 0.00583848 0.000774727)
(-0.0176445 0.0065925 0.000507971)
(-0.0220636 0.00716545 0.000299176)
(-0.0263674 0.00759974 0.000153893)
(-0.00135972 0.00186592 0.00124423)
(-0.00302445 0.00367192 0.00146297)
(-0.00596143 0.00555382 0.00142053)
(-0.00947106 0.00700406 0.00117055)
(-0.0134783 0.00811501 0.000878255)
(-0.017738 0.00889808 0.000605258)
(-0.0220727 0.00942274 0.000394098)
(-0.0263501 0.00978086 0.000263325)
(-0.00149118 0.00198505 0.000740454)
(-0.00350331 0.00372212 0.000994614)
(-0.00640604 0.00559158 0.00102417)
(-0.00990023 0.00704271 0.00089771)
(-0.0138424 0.00814015 0.000722525)
(-0.0180384 0.0089139 0.000551572)
(-0.0223265 0.00943797 0.000418081)
(-0.0265948 0.00981 0.000336467)
(-0.0016101 0.00211839 0.000443592)
(-0.00375359 0.00378455 0.000640768)
(-0.00672206 0.00560986 0.000697903)
(-0.0102269 0.00703801 0.000653103)
(-0.0141532 0.00812093 0.000564872)
(-0.0183242 0.00889262 0.000471909)
(-0.0225928 0.00942727 0.000397631)
(-0.0268632 0.00982211 0.000352336)
(-0.00168264 0.00220236 0.000266242)
(-0.0039012 0.00383371 0.000408528)
(-0.00692749 0.00563107 0.000465826)
(-0.0104615 0.00703534 0.000460273)
(-0.0143984 0.00810492 0.000424328)
(-0.0185703 0.00887352 0.000380997)
(-0.0228396 0.00941528 0.000345423)
(-0.0271185 0.00982537 0.000324739)
(-0.00172648 0.00225246 0.000159215)
(-0.00399068 0.00386901 0.000257533)
(-0.00706011 0.00565202 0.000305107)
(-0.0106247 0.00704042 0.000315087)
(-0.0145814 0.00809919 0.000305605)
(-0.0187657 0.00886351 0.00028961)
(-0.0230449 0.00940759 0.00027613)
(-0.0273351 0.00982557 0.000269546)
(-0.00175327 0.00228205 9.25615e-05)
(-0.00404544 0.00389302 0.000156413)
(-0.00714481 0.00566965 0.000191026)
(-0.0107343 0.00704891 0.000204026)
(-0.0147105 0.0081002 0.00020541)
(-0.0189095 0.00886035 0.000202199)
(-0.0232005 0.00940409 0.00019942)
(-0.027502 0.00982545 0.000199455)
(-0.00176891 0.00229871 4.82117e-05)
(-0.00407741 0.00390795 8.40795e-05)
(-0.00719558 0.00568211 0.000104896)
(-0.0108021 0.00705663 0.0001146)
(-0.0147928 0.0081034 0.000118222)
(-0.0190036 0.00886044 0.000119217)
(-0.0233043 0.00940307 0.000120063)
(-0.0276144 0.00982558 0.000121883)
(-0.00177616 0.00230625 1.4956e-05)
(-0.00409224 0.00391513 2.6516e-05)
(-0.00721946 0.00568851 3.34461e-05)
(-0.0108346 0.00706103 3.6957e-05)
(-0.0148328 0.00810571 3.85859e-05)
(-0.01905 0.00886112 3.93693e-05)
(-0.023356 0.00940298 4.00471e-05)
(-0.0276707 0.00982571 4.09492e-05)
(-0.0291969 -0.00413181 -0.000430047)
(-0.0294673 -0.00418489 -0.000421537)
(-0.029754 -0.00422708 -0.000387901)
(-0.0300168 -0.00426228 -0.000331754)
(-0.0302373 -0.00429422 -0.000262416)
(-0.0304068 -0.00432181 -0.00018788)
(-0.0305212 -0.00434234 -0.00011239)
(-0.0305785 -0.00435316 -3.73591e-05)
(-0.0288012 -0.000168884 -0.000220686)
(-0.0290797 -0.000196761 -0.000200489)
(-0.0293723 -0.000220675 -0.000174669)
(-0.0296382 -0.000244573 -0.000143552)
(-0.0298594 -0.000267606 -0.000110229)
(-0.0300283 -0.000287855 -7.72019e-05)
(-0.0301419 -0.000302994 -4.55012e-05)
(-0.0301988 -0.000311119 -1.50101e-05)
(-0.0285858 0.00376388 -5.19771e-05)
(-0.0288588 0.0037654 -6.80141e-06)
(-0.0291506 0.00375847 1.83126e-05)
(-0.029418 0.00374607 2.96309e-05)
(-0.0296409 0.00373177 3.09326e-05)
(-0.0298111 0.00371856 2.58327e-05)
(-0.0299255 0.00370862 1.68629e-05)
(-0.0299828 0.00370327 5.83815e-06)
(-0.0285326 0.00780266 0.000142013)
(-0.0287911 0.00782392 0.000198374)
(-0.029078 0.00783615 0.000219416)
(-0.0293465 0.00783637 0.000209377)
(-0.0295726 0.00783221 0.000177346)
(-0.029746 0.00782728 0.000132716)
(-0.0298628 0.00782347 8.15731e-05)
(-0.0299213 0.0078214 2.74739e-05)
)
;
    }
    symmetry
    {
        type            symmetryPlane;
    }
    bottom
    {
        type            calculated;
        value           uniform (0 0 0);
    }
}


// ************************************************************************* //
