/*--------------------------------*- C++ -*----------------------------------*\
| =========                 |                                                 |
| \\      /  F ield         | foam-extend: Open Source CFD                    |
|  \\    /   O peration     | Version:     3.1                                |
|   \\  /    A nd           | Web:         http://www.extend-project.de       |
|    \\/     M anipulation  |                                                 |
\*---------------------------------------------------------------------------*/
FoamFile
{
    version     2.0;
    format      ascii;
    class       volVectorField;
    location    "2.5";
    object      cellMotionU;
}
// * * * * * * * * * * * * * * * * * * * * * * * * * * * * * * * * * * * * * //

dimensions      [0 1 -1 0 0 0 0];

internalField   nonuniform List<vector> 
14592
(
(-3.59845e-11 4.09707e-12 -2.76614e-13)
(-1.04375e-10 1.1906e-11 -8.077e-13)
(-1.6703e-10 1.91201e-11 -1.30782e-12)
(-2.26211e-10 2.59587e-11 -1.79478e-12)
(-2.83998e-10 3.25479e-11 -2.27359e-12)
(-3.42416e-10 3.88882e-11 -2.73091e-12)
(-4.03557e-10 4.47765e-11 -3.12552e-12)
(-4.69715e-10 4.97822e-11 -3.37256e-12)
(-5.43504e-10 5.29962e-11 -3.32194e-12)
(-6.2799e-10 5.28332e-11 -2.73323e-12)
(-7.26797e-10 4.65208e-11 -1.26789e-12)
(-8.44145e-10 2.91917e-11 1.43669e-12)
(-9.84872e-10 -7.64508e-12 5.4159e-12)
(-1.15424e-09 -7.89679e-11 9.22621e-12)
(-1.35486e-09 -2.08071e-10 7.06486e-12)
(-1.55454e-09 -3.93671e-10 -1.18667e-11)
(-1.06922e-10 1.21477e-11 -8.27387e-13)
(-3.10109e-10 3.53332e-11 -2.41725e-12)
(-4.96146e-10 5.6756e-11 -3.91872e-12)
(-6.71657e-10 7.71249e-11 -5.38858e-12)
(-8.42704e-10 9.68461e-11 -6.84776e-12)
(-1.01514e-09 1.15937e-10 -8.26668e-12)
(-1.19498e-09 1.33946e-10 -9.53876e-12)
(-1.38874e-09 1.49746e-10 -1.04372e-11)
(-1.60378e-09 1.60994e-10 -1.05512e-11)
(-1.84862e-09 1.6375e-10 -9.20284e-12)
(-2.13297e-09 1.51037e-10 -5.38045e-12)
(-2.46749e-09 1.11493e-10 2.20815e-12)
(-2.86226e-09 2.66027e-11 1.46579e-11)
(-3.32221e-09 -1.31685e-10 3.13009e-11)
(-3.83048e-09 -3.95517e-10 4.61848e-11)
(-4.26995e-09 -7.26772e-10 4.61648e-11)
(-1.75405e-10 1.98534e-11 -1.37429e-12)
(-5.08578e-10 5.77427e-11 -4.01877e-12)
(-8.13173e-10 9.28421e-11 -6.52791e-12)
(-1.09979e-09 1.2636e-10 -9.00738e-12)
(-1.37804e-09 1.59046e-10 -1.15104e-11)
(-1.65707e-09 1.91079e-10 -1.4019e-11)
(-1.94613e-09 2.22118e-10 -1.64083e-11)
(-2.25499e-09 2.50635e-10 -1.83872e-11)
(-2.59445e-09 2.74035e-10 -1.94001e-11)
(-2.97648e-09 2.8739e-10 -1.84903e-11)
(-3.41412e-09 2.82987e-10 -1.41236e-11)
(-3.92005e-09 2.48761e-10 -4.0387e-12)
(-4.5025e-09 1.67757e-10 1.46973e-11)
(-5.15409e-09 2.00864e-11 4.49877e-11)
(-5.82225e-09 -2.02891e-10 8.73981e-11)
(-6.32189e-09 -4.35861e-10 1.32032e-10)
(-2.40013e-10 2.69608e-11 -1.91226e-12)
(-6.95616e-10 7.84609e-11 -5.59846e-12)
(-1.11127e-09 1.26316e-10 -9.11683e-12)
(-1.50097e-09 1.72273e-10 -1.26344e-11)
(-1.87722e-09 2.17485e-10 -1.62582e-11)
(-2.25174e-09 2.62566e-10 -2.00191e-11)
(-2.636e-09 3.07381e-10 -2.38392e-11)
(-3.04177e-09 3.50875e-10 -2.74708e-11)
(-3.48145e-09 3.90819e-10 -3.03942e-11)
(-3.96811e-09 4.23336e-10 -3.16543e-11)
(-4.51484e-09 4.42394e-10 -2.96163e-11)
(-5.13254e-09 4.39763e-10 -2.16363e-11)
(-5.82413e-09 4.05534e-10 -3.7706e-12)
(-6.57099e-09 3.316e-10 2.88514e-11)
(-7.30143e-09 2.21031e-10 7.84817e-11)
(-7.81352e-09 1.13621e-10 1.29831e-10)
(-2.99572e-10 3.32376e-11 -2.43304e-12)
(-8.6783e-10 9.68101e-11 -7.13199e-12)
(-1.38494e-09 1.56063e-10 -1.16451e-11)
(-1.86757e-09 2.13321e-10 -1.62117e-11)
(-2.33043e-09 2.70215e-10 -2.1012e-11)
(-2.78691e-09 3.27938e-10 -2.61609e-11)
(-3.24966e-09 3.86734e-10 -3.16898e-11)
(-3.73107e-09 4.46518e-10 -3.75036e-11)
(-4.24333e-09 5.05984e-10 -4.33083e-11)
(-4.79825e-09 5.63209e-10 -4.84807e-11)
(-5.40609e-09 6.15321e-10 -5.18522e-11)
(-6.07289e-09 6.59224e-10 -5.13469e-11)
(-6.79468e-09 6.92783e-10 -4.34597e-11)
(-7.54557e-09 7.16809e-10 -2.29458e-11)
(-8.25215e-09 7.35949e-10 1.49173e-11)
(-8.73011e-09 7.51988e-10 6.0343e-11)
(-3.53199e-10 3.84512e-11 -2.92538e-12)
(-1.02264e-09 1.1206e-10 -8.5852e-12)
(-1.63009e-09 1.80927e-10 -1.40518e-11)
(-2.19416e-09 2.47867e-10 -1.96419e-11)
(-2.73097e-09 3.15104e-10 -2.56199e-11)
(-3.25475e-09 3.84199e-10 -3.22067e-11)
(-3.77841e-09 4.56318e-10 -3.9581e-11)
(-4.31369e-09 5.31898e-10 -4.78729e-11)
(-4.87119e-09 6.11199e-10 -5.71427e-11)
(-5.45956e-09 6.94044e-10 -6.73445e-11)
(-6.08399e-09 7.80564e-10 -7.82509e-11)
(-6.74312e-09 8.71985e-10 -8.92912e-11)
(-7.4236e-09 9.71793e-10 -9.91744e-11)
(-8.09152e-09 1.08639e-09 -1.05069e-10)
(-8.67838e-09 1.21998e-09 -1.01527e-10)
(-9.05055e-09 1.34515e-09 -8.39285e-11)
(-4.00292e-10 4.2367e-11 -3.3765e-12)
(-1.15837e-09 1.23565e-10 -9.91827e-12)
(-1.84418e-09 1.99793e-10 -1.62639e-11)
(-2.47752e-09 2.74315e-10 -2.28048e-11)
(-3.07529e-09 3.49865e-10 -2.98875e-11)
(-3.65184e-09 4.28449e-10 -3.7839e-11)
(-4.21954e-09 5.11772e-10 -4.69885e-11)
(-4.78878e-09 6.01121e-10 -5.76956e-11)
(-5.3676e-09 6.97609e-10 -7.03882e-11)
(-5.96062e-09 8.02426e-10 -8.56284e-11)
(-6.567e-09 9.17418e-10 -1.04232e-10)
(-7.17672e-09 1.04563e-09 -1.27489e-10)
(-7.76486e-09 1.19239e-09 -1.57523e-10)
(-8.28362e-09 1.36492e-09 -1.97662e-10)
(-8.65582e-09 1.5656e-09 -2.50938e-10)
(-8.79528e-09 1.75419e-09 -3.05697e-10)
(-4.40537e-10 4.47846e-11 -3.77393e-12)
(-1.27418e-09 1.30754e-10 -1.10923e-11)
(-2.02606e-09 2.1168e-10 -1.82099e-11)
(-2.71657e-09 2.91284e-10 -2.55804e-11)
(-3.36271e-09 3.72519e-10 -3.36192e-11)
(-3.97851e-09 4.57889e-10 -4.27374e-11)
(-4.57537e-09 5.49431e-10 -5.33808e-11)
(-5.16192e-09 6.48903e-10 -6.60771e-11)
(-5.74355e-09 7.579e-10 -8.15075e-11)
(-6.32107e-09 8.78068e-10 -1.00624e-10)
(-6.8884e-09 1.01123e-09 -1.24863e-10)
(-7.42887e-09 1.15968e-09 -1.56564e-10)
(-7.90929e-09 1.32605e-09 -1.99896e-10)
(-8.2723e-09 1.51199e-09 -2.63086e-10)
(-8.43257e-09 1.71234e-09 -3.62354e-10)
(-8.3281e-09 1.8879e-09 -5.07522e-10)
(-3.67217e-11 4.2449e-12 -2.70374e-13)
(-1.06539e-10 1.23404e-11 -7.90357e-13)
(-1.70587e-10 1.98156e-11 -1.28289e-12)
(-2.31242e-10 2.69147e-11 -1.76756e-12)
(-2.90696e-10 3.37609e-11 -2.25225e-12)
(-3.51095e-10 4.03353e-11 -2.72802e-12)
(-4.14667e-10 4.6421e-11 -3.15993e-12)
(-4.83854e-10 5.14871e-11 -3.47209e-12)
(-5.61446e-10 5.45199e-11 -3.52539e-12)
(-6.5068e-10 5.36808e-11 -3.09114e-12)
(-7.55302e-10 4.57448e-11 -1.83532e-12)
(-8.79499e-10 2.51501e-11 6.36927e-13)
(-1.02759e-09 -1.76628e-11 4.54712e-12)
(-1.2031e-09 -9.83676e-11 9.26266e-12)
(-1.40384e-09 -2.36976e-10 1.20498e-11)
(-1.59189e-09 -4.18713e-10 8.8738e-12)
(-1.09099e-10 1.25941e-11 -8.08578e-13)
(-3.16493e-10 3.66115e-11 -2.36503e-12)
(-5.06639e-10 5.88339e-11 -3.84337e-12)
(-6.86484e-10 7.99864e-11 -5.30585e-12)
(-8.62418e-10 1.00478e-10 -6.78195e-12)
(-1.04065e-09 1.20324e-10 -8.25519e-12)
(-1.22757e-09 1.38987e-10 -9.63868e-12)
(-1.43015e-09 1.55107e-10 -1.07337e-11)
(-1.65624e-09 1.66098e-10 -1.11666e-11)
(-1.91482e-09 1.67265e-10 -1.03058e-11)
(-2.21601e-09 1.50713e-10 -7.18367e-12)
(-2.57026e-09 1.03318e-10 -5.11523e-13)
(-2.98591e-09 4.45616e-12 1.09938e-11)
(-3.4621e-09 -1.74619e-10 2.75782e-11)
(-3.9676e-09 -4.57119e-10 4.64751e-11)
(-4.3729e-09 -7.77944e-10 6.03567e-11)
(-1.78932e-10 2.0576e-11 -1.3427e-12)
(-5.18916e-10 5.98626e-11 -3.93072e-12)
(-8.30138e-10 9.62794e-11 -6.40024e-12)
(-1.12371e-09 1.31105e-10 -8.86566e-12)
(-1.40977e-09 1.65121e-10 -1.13942e-11)
(-1.698e-09 1.98542e-10 -1.39901e-11)
(-1.99822e-09 2.3078e-10 -1.65628e-11)
(-2.32092e-09 2.60303e-10 -1.88709e-11)
(-2.67761e-09 2.83881e-10 -2.04325e-11)
(-3.08105e-09 2.96077e-10 -2.03929e-11)
(-3.54482e-09 2.87834e-10 -1.73609e-11)
(-4.08135e-09 2.45494e-10 -9.26835e-12)
(-4.69619e-09 1.50237e-10 6.56595e-12)
(-5.37336e-09 -1.71862e-11 3.2747e-11)
(-6.04086e-09 -2.5461e-10 6.95223e-11)
(-6.50261e-09 -4.72809e-10 1.07168e-10)
(-2.44746e-10 2.79594e-11 -1.86744e-12)
(-7.09479e-10 8.13791e-11 -5.47318e-12)
(-1.13397e-09 1.31053e-10 -8.93382e-12)
(-1.53288e-09 1.78841e-10 -1.2428e-11)
(-1.91938e-09 2.26004e-10 -1.60818e-11)
(-2.30587e-09 2.73113e-10 -1.99572e-11)
(-2.70455e-09 3.20006e-10 -2.40252e-11)
(-3.12801e-09 3.6543e-10 -2.81138e-11)
(-3.58957e-09 4.06873e-10 -3.18186e-11)
(-4.10324e-09 4.398e-10 -3.43628e-11)
(-4.68292e-09 4.57455e-10 -3.43909e-11)
(-5.33955e-09 4.50384e-10 -2.9715e-11)
(-6.07385e-09 4.07826e-10 -1.71544e-11)
(-6.85933e-09 3.22813e-10 6.9483e-12)
(-7.60667e-09 2.06368e-10 4.3634e-11)
(-8.10443e-09 1.13045e-10 8.07209e-11)
(-3.05334e-10 3.44842e-11 -2.37459e-12)
(-8.84673e-10 1.00435e-10 -6.96808e-12)
(-1.41245e-09 1.61991e-10 -1.14034e-11)
(-1.9061e-09 2.21598e-10 -1.59337e-11)
(-2.3811e-09 2.81066e-10 -2.07624e-11)
(-2.85156e-09 3.415e-10 -2.60439e-11)
(-3.33097e-09 4.03371e-10 -3.18716e-11)
(-3.83256e-09 4.66287e-10 -3.82514e-11)
(-4.3695e-09 5.29e-10 -4.50478e-11)
(-4.95463e-09 5.89247e-10 -5.18943e-11)
(-5.59919e-09 6.43828e-10 -5.80452e-11)
(-6.3099e-09 6.89355e-10 -6.21409e-11)
(-7.08225e-09 7.2367e-10 -6.18952e-11)
(-7.88655e-09 7.4864e-10 -5.39711e-11)
(-8.63908e-09 7.72039e-10 -3.54787e-11)
(-9.14676e-09 7.99447e-10 -1.20394e-11)
(-3.59785e-10 3.98972e-11 -2.85308e-12)
(-1.04188e-09 1.16318e-10 -8.38142e-12)
(-1.66141e-09 1.87886e-10 -1.37482e-11)
(-2.23782e-09 2.57665e-10 -1.92851e-11)
(-2.78804e-09 3.27983e-10 -2.52831e-11)
(-3.32707e-09 4.0059e-10 -3.20075e-11)
(-3.86858e-09 4.76614e-10 -3.97113e-11)
(-4.42517e-09 5.56747e-10 -4.86436e-11)
(-5.00829e-09 6.41161e-10 -5.90599e-11)
(-5.62753e-09 7.29837e-10 -7.12337e-11)
(-6.28908e-09 8.23063e-10 -8.54724e-11)
(-6.99258e-09 9.22407e-10 -1.02109e-10)
(-7.72581e-09 1.03218e-09 -1.2134e-10)
(-8.45578e-09 1.15983e-09 -1.42469e-10)
(-9.1139e-09 1.3094e-09 -1.61636e-10)
(-9.56192e-09 1.44909e-09 -1.69565e-10)
(-4.075e-10 4.39804e-11 -3.29029e-12)
(-1.17939e-09 1.28312e-10 -9.67423e-12)
(-1.87828e-09 2.07579e-10 -1.58964e-11)
(-2.52484e-09 2.85346e-10 -2.23632e-11)
(-3.13671e-09 3.64413e-10 -2.94496e-11)
(-3.72903e-09 4.47112e-10 -3.75296e-11)
(-4.31486e-09 5.35227e-10 -4.70127e-11)
(-4.90529e-09 6.30263e-10 -5.83889e-11)
(-5.50904e-09 7.33565e-10 -7.22995e-11)
(-6.1314e-09 8.46636e-10 -8.96581e-11)
(-6.77212e-09 9.71684e-10 -1.11863e-10)
(-7.42197e-09 1.11258e-09 -1.4116e-10)
(-8.0573e-09 1.27566e-09 -1.81126e-10)
(-8.63332e-09 1.46908e-09 -2.36628e-10)
(-9.0801e-09 1.69377e-09 -3.09554e-10)
(-9.31677e-09 1.90177e-09 -3.78554e-10)
(-4.48176e-10 4.65191e-11 -3.67413e-12)
(-1.2964e-09 1.35808e-10 -1.08087e-11)
(-2.06198e-09 2.20038e-10 -1.77782e-11)
(-2.76613e-09 3.03098e-10 -2.5051e-11)
(-3.42661e-09 3.88275e-10 -3.30695e-11)
(-4.0581e-09 4.78179e-10 -4.2293e-11)
(-4.67261e-09 5.75142e-10 -5.32468e-11)
(-5.2793e-09 6.81177e-10 -6.65899e-11)
(-5.88399e-09 7.98189e-10 -8.32153e-11)
(-6.48775e-09 9.28134e-10 -1.04418e-10)
(-7.08464e-09 1.07334e-09 -1.32185e-10)
(-7.65789e-09 1.23662e-09 -1.69707e-10)
(-8.17453e-09 1.42111e-09 -2.22285e-10)
(-8.57917e-09 1.62825e-09 -2.98622e-10)
(-8.7954e-09 1.85007e-09 -4.10005e-10)
(-8.77851e-09 2.04065e-09 -5.46219e-10)
(-3.73844e-11 4.38088e-12 -2.53262e-13)
(-1.08485e-10 1.27355e-11 -7.41179e-13)
(-1.73793e-10 2.04608e-11 -1.20592e-12)
(-2.35777e-10 2.78027e-11 -1.66791e-12)
(-2.96728e-10 3.48924e-11 -2.1372e-12)
(-3.58888e-10 4.17052e-11 -2.6092e-12)
(-4.24588e-10 4.79918e-11 -3.05641e-12)
(-4.96376e-10 5.31782e-11 -3.41451e-12)
(-5.77133e-10 5.61482e-11 -3.56134e-12)
(-6.7014e-10 5.49031e-11 -3.29008e-12)
(-7.79065e-10 4.59944e-11 -2.28699e-12)
(-9.07724e-10 2.3571e-11 -1.46782e-13)
(-1.05955e-09 -2.20236e-11 3.4971e-12)
(-1.23641e-09 -1.05733e-10 8.59903e-12)
(-1.43435e-09 -2.44858e-10 1.40365e-11)
(-1.61765e-09 -4.21816e-10 1.73132e-11)
(-1.11054e-10 1.29956e-11 -7.57306e-13)
(-3.2224e-10 3.78014e-11 -2.21748e-12)
(-5.16096e-10 6.07599e-11 -3.61217e-12)
(-6.99855e-10 8.2646e-11 -5.00569e-12)
(-8.80185e-10 1.03885e-10 -6.4338e-12)
(-1.06357e-09 1.24466e-10 -7.89267e-12)
(-1.25672e-09 1.43784e-10 -9.31717e-12)
(-1.46689e-09 1.60376e-10 -1.05431e-11)
(-1.70223e-09 1.71364e-10 -1.1249e-11)
(-1.97189e-09 1.71711e-10 -1.08764e-11)
(-2.28579e-09 1.52865e-10 -8.54884e-12)
(-2.65344e-09 1.01061e-10 -3.05542e-12)
(-3.08069e-09 -4.57494e-12 6.93534e-12)
(-3.56192e-09 -1.90993e-10 2.21402e-11)
(-4.06035e-09 -4.75371e-10 4.10672e-11)
(-4.45102e-09 -7.87378e-10 5.7209e-11)
(-1.82102e-10 2.12486e-11 -1.25716e-12)
(-5.28221e-10 6.18157e-11 -3.68439e-12)
(-8.45433e-10 9.94628e-11 -6.01319e-12)
(-1.1453e-09 1.35524e-10 -8.36071e-12)
(-1.43838e-09 1.70816e-10 -1.08037e-11)
(-1.73482e-09 2.05521e-10 -1.33658e-11)
(-2.04492e-09 2.39056e-10 -1.59909e-11)
(-2.37962e-09 2.69624e-10 -1.8494e-11)
(-2.75094e-09 2.93827e-10 -2.04806e-11)
(-3.17196e-09 3.05619e-10 -2.12304e-11)
(-3.65619e-09 2.95344e-10 -1.95528e-11)
(-4.21501e-09 2.48469e-10 -1.36769e-11)
(-4.85096e-09 1.45887e-10 -1.35919e-12)
(-5.54208e-09 -3.00163e-11 1.93503e-11)
(-6.20933e-09 -2.71858e-10 4.77524e-11)
(-6.66074e-09 -4.86962e-10 7.43553e-11)
(-2.49e-10 2.88746e-11 -1.74772e-12)
(-7.21955e-10 8.40602e-11 -5.12782e-12)
(-1.15444e-09 1.35439e-10 -8.38918e-12)
(-1.56169e-09 1.84965e-10 -1.17129e-11)
(-1.95745e-09 2.33947e-10 -1.52361e-11)
(-2.35467e-09 2.83011e-10 -1.90454e-11)
(-2.76616e-09 3.3192e-10 -2.31556e-11)
(-3.20513e-09 3.79362e-10 -2.7468e-11)
(-3.68555e-09 4.22534e-10 -3.16964e-11)
(-4.22201e-09 4.56604e-10 -3.52525e-11)
(-4.82867e-09 4.74144e-10 -3.70846e-11)
(-5.51607e-09 4.65075e-10 -3.55039e-11)
(-6.28307e-09 4.18104e-10 -2.81575e-11)
(-7.09917e-09 3.26723e-10 -1.26687e-11)
(-7.87008e-09 2.03846e-10 1.07375e-11)
(-8.38398e-09 1.05022e-10 3.25579e-11)
(-3.1051e-10 3.5622e-11 -2.2211e-12)
(-8.99841e-10 1.03795e-10 -6.52437e-12)
(-1.43727e-09 1.67488e-10 -1.07008e-11)
(-1.94092e-09 2.29311e-10 -1.50044e-11)
(-2.42689e-09 2.91147e-10 -1.965e-11)
(-2.90997e-09 3.54236e-10 -2.48182e-11)
(-3.40428e-09 4.18982e-10 -3.06522e-11)
(-3.92378e-09 4.85082e-10 -3.72408e-11)
(-4.48241e-09 5.51147e-10 -4.4585e-11)
(-5.09376e-09 6.14737e-10 -5.25385e-11)
(-5.76989e-09 6.72413e-10 -6.07132e-11)
(-6.51821e-09 7.20328e-10 -6.834e-11)
(-7.33486e-09 7.55755e-10 -7.41063e-11)
(-8.19076e-09 7.79554e-10 -7.61614e-11)
(-9.00285e-09 7.97526e-10 -7.30776e-11)
(-9.57122e-09 8.13503e-10 -6.75182e-11)
(-3.65706e-10 4.1239e-11 -2.66677e-12)
(-1.05919e-09 1.20242e-10 -7.84193e-12)
(-1.68967e-09 1.9435e-10 -1.28903e-11)
(-2.2773e-09 2.66762e-10 -1.81421e-11)
(-2.8397e-09 3.39994e-10 -2.38979e-11)
(-3.39253e-09 4.1588e-10 -3.04493e-11)
(-3.95016e-09 4.9572e-10 -3.80988e-11)
(-4.52589e-09 5.8023e-10 -4.71813e-11)
(-5.13196e-09 6.69723e-10 -5.80915e-11)
(-5.77885e-09 7.64241e-10 -7.13245e-11)
(-6.47387e-09 8.64113e-10 -8.75336e-11)
(-7.21842e-09 9.70874e-10 -1.07582e-10)
(-8.00335e-09 1.08833e-09 -1.32448e-10)
(-8.80145e-09 1.22211e-09 -1.62496e-10)
(-9.55205e-09 1.37145e-09 -1.94984e-10)
(-1.01063e-08 1.49939e-09 -2.19258e-10)
(-4.13979e-10 4.5467e-11 -3.073e-12)
(-1.19831e-09 1.32686e-10 -9.04384e-12)
(-1.90906e-09 2.14797e-10 -1.48901e-11)
(-2.56764e-09 2.95544e-10 -2.10134e-11)
(-3.19238e-09 3.77999e-10 -2.77954e-11)
(-3.79906e-09 4.64551e-10 -3.56339e-11)
(-4.40139e-09 5.57245e-10 -4.49847e-11)
(-5.01111e-09 6.57768e-10 -5.64186e-11)
(-5.63764e-09 7.67685e-10 -7.07073e-11)
(-6.28705e-09 8.88757e-10 -8.89636e-11)
(-6.96029e-09 1.02352e-09 -1.12871e-10)
(-7.65012e-09 1.17599e-09 -1.45031e-10)
(-8.33702e-09 1.35222e-09 -1.89313e-10)
(-8.98454e-09 1.55839e-09 -2.50393e-10)
(-9.53518e-09 1.78954e-09 -3.2893e-10)
(-9.89775e-09 1.98997e-09 -4.02448e-10)
(-4.55032e-10 4.80958e-11 -3.42852e-12)
(-1.31641e-09 1.40489e-10 -1.00949e-11)
(-2.09442e-09 2.27752e-10 -1.66349e-11)
(-2.811e-09 3.14096e-10 -2.35085e-11)
(-3.48458e-09 4.02915e-10 -3.11617e-11)
(-4.13045e-09 4.97133e-10 -4.00727e-11)
(-4.76115e-09 5.99263e-10 -5.08083e-11)
(-5.38642e-09 7.11591e-10 -6.40993e-11)
(-6.01257e-09 8.36314e-10 -8.09543e-11)
(-6.64129e-09 9.7575e-10 -1.02838e-10)
(-7.26743e-09 1.13252e-09 -1.31956e-10)
(-7.87583e-09 1.30965e-09 -1.71706e-10)
(-8.43691e-09 1.50984e-09 -2.27293e-10)
(-8.90266e-09 1.73225e-09 -3.062e-10)
(-9.20874e-09 1.96284e-09 -4.15873e-10)
(-9.30447e-09 2.14702e-09 -5.41891e-10)
(-3.79597e-11 4.50256e-12 -2.2537e-13)
(-1.10178e-10 1.30932e-11 -6.60218e-13)
(-1.76579e-10 2.10391e-11 -1.07653e-12)
(-2.39717e-10 2.86027e-11 -1.49407e-12)
(-3.01959e-10 3.59168e-11 -1.92393e-12)
(-3.65621e-10 4.29504e-11 -2.365e-12)
(-4.33108e-10 4.94447e-11 -2.79678e-12)
(-5.07029e-10 5.47859e-11 -3.16705e-12)
(-5.90298e-10 5.78014e-11 -3.37247e-12)
(-6.86151e-10 5.6402e-11 -3.23247e-12)
(-7.98053e-10 4.70206e-11 -2.463e-12)
(-9.29351e-10 2.37354e-11 -6.72389e-13)
(-1.0826e-09 -2.29807e-11 2.56693e-12)
(-1.25844e-09 -1.07401e-10 7.47654e-12)
(-1.45222e-09 -2.45439e-10 1.3544e-11)
(-1.63046e-09 -4.19001e-10 1.86188e-11)
(-1.12753e-10 1.33608e-11 -6.73791e-13)
(-3.2723e-10 3.88565e-11 -1.97498e-12)
(-5.24313e-10 6.24844e-11 -3.22404e-12)
(-7.11469e-10 8.50372e-11 -4.48304e-12)
(-8.95587e-10 1.06954e-10 -5.79024e-12)
(-1.08338e-09 1.28224e-10 -7.15125e-12)
(-1.28177e-09 1.48212e-10 -8.52039e-12)
(-1.4982e-09 1.65346e-10 -9.76768e-12)
(-1.74092e-09 1.76625e-10 -1.06258e-11)
(-2.01902e-09 1.76742e-10 -1.06157e-11)
(-2.34191e-09 1.56867e-10 -8.96382e-12)
(-2.71787e-09 1.02977e-10 -4.56285e-12)
(-3.15039e-09 -5.58458e-12 3.88648e-12)
(-3.63046e-09 -1.94435e-10 1.72799e-11)
(-4.11894e-09 -4.78053e-10 3.46068e-11)
(-4.49604e-09 -7.85343e-10 4.97813e-11)
(-1.84852e-10 2.18402e-11 -1.11824e-12)
(-5.36301e-10 6.356e-11 -3.28051e-12)
(-8.58721e-10 1.02311e-10 -5.36532e-12)
(-1.16405e-09 1.39485e-10 -7.48482e-12)
(-1.4632e-09 1.75932e-10 -9.71801e-12)
(-1.76668e-09 2.1186e-10 -1.21013e-11)
(-2.08511e-09 2.46606e-10 -1.46061e-11)
(-2.42978e-09 2.78343e-10 -1.7097e-11)
(-2.81291e-09 3.03428e-10 -1.92602e-11)
(-3.2476e-09 3.15571e-10 -2.04998e-11)
(-3.74685e-09 3.04671e-10 -1.98047e-11)
(-4.32063e-09 2.55806e-10 -1.56472e-11)
(-4.96869e-09 1.49752e-10 -6.08651e-12)
(-5.6649e-09 -3.04022e-11 1.04939e-11)
(-6.32684e-09 -2.75748e-10 3.3177e-11)
(-6.76667e-09 -4.92982e-10 5.35359e-11)
(-2.52692e-10 2.96912e-11 -1.55396e-12)
(-7.32794e-10 8.64595e-11 -4.56374e-12)
(-1.17223e-09 1.39362e-10 -7.48168e-12)
(-1.58673e-09 1.90441e-10 -1.04797e-11)
(-1.99051e-09 2.41085e-10 -1.36947e-11)
(-2.39695e-09 2.91938e-10 -1.72252e-11)
(-2.81934e-09 3.42773e-10 -2.11154e-11)
(-3.27132e-09 3.92225e-10 -2.53208e-11)
(-3.76722e-09 4.37354e-10 -2.96455e-11)
(-4.32184e-09 4.73076e-10 -3.36423e-11)
(-4.9492e-09 4.9161e-10 -3.64706e-11)
(-5.65898e-09 4.8234e-10 -3.67457e-11)
(-6.4482e-09 4.33381e-10 -3.25259e-11)
(-7.28345e-09 3.37564e-10 -2.18829e-11)
(-8.06715e-09 2.07117e-10 -5.05342e-12)
(-8.58552e-09 9.848e-11 1.06629e-11)
(-3.15007e-10 3.66441e-11 -1.9738e-12)
(-9.13019e-10 1.06779e-10 -5.80345e-12)
(-1.45886e-09 1.72394e-10 -9.53721e-12)
(-1.97121e-09 2.36199e-10 -1.34144e-11)
(-2.46672e-09 3.00209e-10 -1.76448e-11)
(-2.96069e-09 3.6568e-10 -2.24163e-11)
(-3.46779e-09 4.33167e-10 -2.7896e-11)
(-4.00248e-09 5.02298e-10 -3.42199e-11)
(-4.57922e-09 5.71723e-10 -4.1467e-11)
(-5.21208e-09 6.38897e-10 -4.96091e-11)
(-5.91347e-09 7.00168e-10 -5.8424e-11)
(-6.69107e-09 7.51249e-10 -6.73572e-11)
(-7.54113e-09 7.88495e-10 -7.53388e-11)
(-8.43456e-09 8.1093e-10 -8.06899e-11)
(-9.28655e-09 8.21494e-10 -8.16954e-11)
(-9.88651e-09 8.24292e-10 -7.92105e-11)
(-3.70847e-10 4.24248e-11 -2.36838e-12)
(-1.07425e-09 1.23744e-10 -6.97076e-12)
(-1.71427e-09 2.00105e-10 -1.14799e-11)
(-2.31169e-09 2.74899e-10 -1.62048e-11)
(-2.8847e-09 3.50755e-10 -2.14344e-11)
(-3.44953e-09 4.29657e-10 -2.74599e-11)
(-4.02109e-09 5.12994e-10 -3.45973e-11)
(-4.61326e-09 6.01648e-10 -4.32119e-11)
(-5.23887e-09 6.9602e-10 -5.37473e-11)
(-5.90905e-09 7.96275e-10 -6.67604e-11)
(-6.63197e-09 9.02792e-10 -8.29571e-11)
(-7.41025e-09 1.01692e-09 -1.03181e-10)
(-8.23684e-09 1.14172e-09 -1.2819e-10)
(-9.08754e-09 1.28067e-09 -1.57753e-10)
(-9.90231e-09 1.42902e-09 -1.88162e-10)
(-1.05148e-08 1.54786e-09 -2.08554e-10)
(-4.19607e-10 4.67898e-11 -2.7272e-12)
(-1.21477e-09 1.36585e-10 -8.033e-12)
(-1.93587e-09 2.21229e-10 -1.32494e-11)
(-2.60496e-09 3.04686e-10 -1.87499e-11)
(-3.24094e-09 3.90137e-10 -2.48977e-11)
(-3.86018e-09 4.80233e-10 -3.20809e-11)
(-4.4769e-09 5.77143e-10 -4.07567e-11)
(-5.1034e-09 6.82776e-10 -5.15065e-11)
(-5.74968e-09 7.98942e-10 -6.51169e-11)
(-6.42253e-09 9.2769e-10 -8.26994e-11)
(-7.12386e-09 1.07182e-09 -1.05864e-10)
(-7.84812e-09 1.23555e-09 -1.36925e-10)
(-8.57869e-09 1.42462e-09 -1.78959e-10)
(-9.28336e-09 1.64381e-09 -2.34895e-10)
(-9.90612e-09 1.88498e-09 -3.02765e-10)
(-1.03355e-08 2.08879e-09 -3.60731e-10)
(-4.60996e-10 4.95126e-11 -3.04031e-12)
(-1.33381e-09 1.44639e-10 -8.95906e-12)
(-2.12268e-09 2.34642e-10 -1.47878e-11)
(-2.85016e-09 3.23884e-10 -2.09523e-11)
(-3.53524e-09 4.16035e-10 -2.78733e-11)
(-4.19374e-09 5.14165e-10 -3.60119e-11)
(-4.8387e-09 6.21037e-10 -4.59249e-11)
(-5.48032e-09 7.39197e-10 -5.83381e-11)
(-6.12542e-09 8.71156e-10 -7.42506e-11)
(-6.77628e-09 1.01959e-09 -9.50875e-11)
(-7.42861e-09 1.18753e-09 -1.22921e-10)
(-8.06866e-09 1.37831e-09 -1.6076e-10)
(-8.66927e-09 1.59462e-09 -2.12847e-10)
(-9.18573e-09 1.83492e-09 -2.84581e-10)
(-9.55354e-09 2.08375e-09 -3.80059e-10)
(-9.70162e-09 2.28459e-09 -4.8485e-10)
(-3.8436e-11 4.6049e-12 -1.874e-13)
(-1.11577e-10 1.33909e-11 -5.49463e-13)
(-1.78883e-10 2.1527e-11 -8.97565e-13)
(-2.42972e-10 2.92795e-11 -1.24924e-12)
(-3.0627e-10 3.67879e-11 -1.61517e-12)
(-3.7115e-10 4.40224e-11 -1.99635e-12)
(-4.40061e-10 5.07133e-11 -2.37817e-12)
(-5.15643e-10 5.6229e-11 -2.71983e-12)
(-6.00793e-10 5.93623e-11 -2.93715e-12)
(-6.9865e-10 5.79752e-11 -2.87813e-12)
(-8.12423e-10 4.84507e-11 -2.29461e-12)
(-9.44949e-10 2.48592e-11 -8.25301e-13)
(-1.09795e-09 -2.21869e-11 1.96978e-12)
(-1.271e-09 -1.06514e-10 6.44113e-12)
(-1.45883e-09 -2.43228e-10 1.23907e-11)
(-1.62992e-09 -4.13981e-10 1.79401e-11)
(-1.14157e-10 1.36624e-11 -5.60199e-13)
(-3.31358e-10 3.97505e-11 -1.64343e-12)
(-5.31107e-10 6.39401e-11 -2.68764e-12)
(-7.21061e-10 8.70609e-11 -3.74771e-12)
(-9.08286e-10 1.09569e-10 -4.85982e-12)
(-1.09965e-09 1.31455e-10 -6.03443e-12)
(-1.30222e-09 1.52062e-10 -7.24106e-12)
(-1.52354e-09 1.69782e-10 -8.38004e-12)
(-1.77183e-09 1.81515e-10 -9.2358e-12)
(-2.05593e-09 1.81829e-10 -9.40828e-12)
(-2.3846e-09 1.61744e-10 -8.22849e-12)
(-2.76478e-09 1.07153e-10 -4.69724e-12)
(-3.19771e-09 -2.40453e-12 2.44281e-12)
(-3.67152e-09 -1.91798e-10 1.42474e-11)
(-4.14537e-09 -4.74215e-10 3.02131e-11)
(-4.50477e-09 -7.78307e-10 4.49445e-11)
(-1.87127e-10 2.23432e-11 -9.29494e-13)
(-5.42982e-10 6.50291e-11 -2.7291e-12)
(-8.69707e-10 1.04714e-10 -4.47137e-12)
(-1.17954e-09 1.42839e-10 -6.25494e-12)
(-1.48367e-09 1.80291e-10 -8.15269e-12)
(-1.79286e-09 2.17284e-10 -1.02047e-11)
(-2.11799e-09 2.53168e-10 -1.24002e-11)
(-2.47049e-09 2.86045e-10 -1.46416e-11)
(-2.86262e-09 3.12187e-10 -1.66825e-11)
(-3.30722e-09 3.25136e-10 -1.80312e-11)
(-3.81652e-09 3.14565e-10 -1.78215e-11)
(-4.39883e-09 2.65306e-10 -1.4692e-11)
(-5.0511e-09 1.57989e-10 -6.82302e-12)
(-5.74355e-09 -2.42315e-11 7.4792e-12)
(-6.39141e-09 -2.72183e-10 2.78197e-11)
(-6.81252e-09 -4.92068e-10 4.68766e-11)
(-2.55746e-10 3.0378e-11 -1.29122e-12)
(-7.41757e-10 8.8474e-11 -3.79524e-12)
(-1.18695e-09 1.42669e-10 -6.23248e-12)
(-1.60744e-09 1.95081e-10 -8.75321e-12)
(-2.0178e-09 2.47152e-10 -1.14812e-11)
(-2.43178e-09 2.99575e-10 -1.45121e-11)
(-2.86296e-09 3.52148e-10 -1.7901e-11)
(-3.32524e-09 4.03489e-10 -2.16334e-11)
(-3.83311e-09 4.50607e-10 -2.55691e-11)
(-4.40123e-09 4.88292e-10 -2.93473e-11)
(-5.04303e-09 5.08536e-10 -3.22418e-11)
(-5.76688e-09 5.00347e-10 -3.29844e-11)
(-6.56746e-09 4.51246e-10 -2.96715e-11)
(-7.40811e-09 3.53117e-10 -2.01537e-11)
(-8.18841e-09 2.17103e-10 -3.91475e-12)
(-8.69669e-09 1.00827e-10 1.27492e-11)
(-3.18725e-10 3.74962e-11 -1.63935e-12)
(-9.23925e-10 1.093e-10 -4.82389e-12)
(-1.47672e-09 1.76534e-10 -7.9405e-12)
(-1.99628e-09 2.42036e-10 -1.11972e-11)
(-2.49965e-09 3.07889e-10 -1.47805e-11)
(-3.00256e-09 3.75472e-10 -1.88641e-11)
(-3.52004e-09 4.45357e-10 -2.36103e-11)
(-4.0669e-09 5.17278e-10 -2.91611e-11)
(-4.65786e-09 5.89889e-10 -3.56121e-11)
(-5.30709e-09 6.60653e-10 -4.29543e-11)
(-6.02683e-09 7.25815e-10 -5.09626e-11)
(-6.82414e-09 7.80788e-10 -5.8999e-11)
(-7.6941e-09 8.21174e-10 -6.57189e-11)
(-8.60564e-09 8.44442e-10 -6.88396e-11)
(-9.47099e-09 8.51347e-10 -6.57974e-11)
(-1.00759e-08 8.46545e-10 -5.78962e-11)
(-3.75103e-10 4.34273e-11 -1.96602e-12)
(-1.08672e-09 1.26689e-10 -5.79087e-12)
(-1.73464e-09 2.04969e-10 -9.55179e-12)
(-2.34017e-09 2.81779e-10 -1.35159e-11)
(-2.92196e-09 3.59887e-10 -1.79376e-11)
(-3.49668e-09 4.41394e-10 -2.30788e-11)
(-4.07965e-09 5.27826e-10 -2.923e-11)
(-4.68516e-09 6.20188e-10 -3.6729e-11)
(-5.32635e-09 7.19045e-10 -4.59795e-11)
(-6.0147e-09 8.24727e-10 -5.74588e-11)
(-6.75854e-09 9.37755e-10 -7.16927e-11)
(-7.56061e-09 1.05951e-09 -8.91257e-11)
(-8.41373e-09 1.1927e-09 -1.09716e-10)
(-9.29297e-09 1.33966e-09 -1.3192e-10)
(-1.01353e-08 1.49333e-09 -1.50901e-10)
(-1.07659e-08 1.6128e-09 -1.58626e-10)
(-4.24268e-10 4.79027e-11 -2.2625e-12)
(-1.2284e-09 1.39865e-10 -6.66901e-12)
(-1.95809e-09 2.2666e-10 -1.1016e-11)
(-2.6359e-09 3.12395e-10 -1.56251e-11)
(-3.28124e-09 4.00454e-10 -2.08133e-11)
(-3.91087e-09 4.93591e-10 -2.69254e-11)
(-4.53948e-09 5.94191e-10 -3.43712e-11)
(-5.17973e-09 7.04364e-10 -4.36723e-11)
(-5.84203e-09 8.26184e-10 -5.55214e-11)
(-6.53355e-09 9.6203e-10 -7.08585e-11)
(-7.25659e-09 1.11512e-09 -9.0951e-11)
(-8.00596e-09 1.29012e-09 -1.1742e-10)
(-8.76526e-09 1.49327e-09 -1.52007e-10)
(-9.50153e-09 1.72965e-09 -1.95418e-10)
(-1.01545e-08 1.9908e-09 -2.43498e-10)
(-1.06023e-08 2.21324e-09 -2.78659e-10)
(-4.65932e-10 5.06923e-11 -2.52059e-12)
(-1.34824e-09 1.48145e-10 -7.43259e-12)
(-2.14613e-09 2.40446e-10 -1.22853e-11)
(-2.88268e-09 3.32183e-10 -1.74439e-11)
(-3.57734e-09 4.27158e-10 -2.32738e-11)
(-4.24637e-09 5.28667e-10 -3.01808e-11)
(-4.90318e-09 6.39673e-10 -3.86591e-11)
(-5.55836e-09 7.62982e-10 -4.93522e-11)
(-6.21908e-09 9.01436e-10 -6.31336e-11)
(-6.88796e-09 1.05814e-09 -8.12122e-11)
(-7.56108e-09 1.23668e-09 -1.0526e-10)
(-8.22495e-09 1.44112e-09 -1.37531e-10)
(-8.85229e-09 1.67514e-09 -1.80865e-10)
(-9.39648e-09 1.93884e-09 -2.38302e-10)
(-9.78595e-09 2.21928e-09 -3.11018e-10)
(-9.93523e-09 2.45859e-09 -3.86799e-10)
(-3.88022e-11 4.68489e-12 -1.4071e-13)
(-1.12654e-10 1.36269e-11 -4.12848e-13)
(-1.80655e-10 2.19104e-11 -6.75337e-13)
(-2.45473e-10 2.98129e-11 -9.41978e-13)
(-3.09575e-10 3.74774e-11 -1.22159e-12)
(-3.75372e-10 4.48757e-11 -1.51591e-12)
(-4.4534e-10 5.17357e-11 -1.8151e-12)
(-5.22124e-10 5.74169e-11 -2.08935e-12)
(-6.08582e-10 6.0694e-11 -2.27491e-12)
(-7.07732e-10 5.94054e-11 -2.25311e-12)
(-8.22518e-10 4.99163e-11 -1.82353e-12)
(-9.55291e-10 2.63092e-11 -6.8095e-13)
(-1.107e-09 -2.06894e-11 1.5753e-12)
(-1.27625e-09 -1.04587e-10 5.32912e-12)
(-1.45709e-09 -2.39881e-10 1.05667e-11)
(-1.61982e-09 -4.07928e-10 1.57416e-11)
(-1.15238e-10 1.39028e-11 -4.20589e-13)
(-3.34533e-10 4.0449e-11 -1.23467e-12)
(-5.36331e-10 6.50835e-11 -2.02195e-12)
(-7.28429e-10 8.86541e-11 -2.8255e-12)
(-9.18019e-10 1.11635e-10 -3.67485e-12)
(-1.11208e-09 1.34024e-10 -4.5809e-12)
(-1.31776e-09 1.55162e-10 -5.52422e-12)
(-1.54262e-09 1.73417e-10 -6.43266e-12)
(-1.7948e-09 1.85647e-10 -7.14343e-12)
(-2.08282e-09 1.86361e-10 -7.34387e-12)
(-2.41473e-09 1.66505e-10 -6.49344e-12)
(-2.79616e-09 1.1196e-10 -3.74924e-12)
(-3.22628e-09 2.40444e-12 2.02116e-12)
(-3.69061e-09 -1.86558e-10 1.19244e-11)
(-4.14679e-09 -4.67276e-10 2.59104e-11)
(-4.48565e-09 -7.68165e-10 3.95248e-11)
(-1.88876e-10 2.2735e-11 -6.97708e-13)
(-5.48122e-10 6.61807e-11 -2.04989e-12)
(-8.78156e-10 1.066e-10 -3.36309e-12)
(-1.19144e-09 1.45477e-10 -4.71442e-12)
(-1.49937e-09 1.83728e-10 -6.16254e-12)
(-1.81289e-09 2.21593e-10 -7.74265e-12)
(-2.143e-09 2.58424e-10 -9.45249e-12)
(-2.50121e-09 2.92314e-10 -1.1224e-11)
(-2.89969e-09 3.19492e-10 -1.28715e-11)
(-3.35088e-09 3.33416e-10 -1.40086e-11)
(-3.8661e-09 3.23654e-10 -1.39266e-11)
(-4.45195e-09 2.74892e-10 -1.14603e-11)
(-5.10261e-09 1.67634e-10 -4.94952e-12)
(-5.78491e-09 -1.50627e-11 7.37594e-12)
(-6.41212e-09 -2.64063e-10 2.57726e-11)
(-6.80903e-09 -4.85308e-10 4.41883e-11)
(-2.58097e-10 3.0915e-11 -9.68966e-13)
(-7.48655e-10 9.00568e-11 -2.84985e-12)
(-1.19827e-09 1.45265e-10 -4.68612e-12)
(-1.62335e-09 1.98725e-10 -6.59474e-12)
(-2.03875e-09 2.51932e-10 -8.67404e-12)
(-2.45844e-09 3.05628e-10 -1.10029e-11)
(-2.89621e-09 3.59636e-10 -1.3631e-11)
(-3.36608e-09 4.12601e-10 -1.65551e-11)
(-3.88249e-09 4.61518e-10 -1.96705e-11)
(-4.45978e-09 5.01143e-10 -2.26836e-11)
(-5.11053e-09 5.23358e-10 -2.49701e-11)
(-5.84144e-09 5.16956e-10 -2.53767e-11)
(-6.64451e-09 4.69015e-10 -2.20498e-11)
(-7.47958e-09 3.70624e-10 -1.2633e-11)
(-8.2439e-09 2.31909e-10 4.12565e-12)
(-8.73151e-09 1.11017e-10 2.27562e-11)
(-3.21587e-10 3.81668e-11 -1.22979e-12)
(-9.32321e-10 1.11272e-10 -3.62091e-12)
(-1.49048e-09 1.79781e-10 -5.96784e-12)
(-2.01556e-09 2.46612e-10 -8.43176e-12)
(-2.52497e-09 3.13944e-10 -1.11595e-11)
(-3.03467e-09 3.83207e-10 -1.429e-11)
(-3.55998e-09 4.55072e-10 -1.79561e-11)
(-4.11588e-09 5.29324e-10 -2.22742e-11)
(-4.71714e-09 6.047e-10 -2.73172e-11)
(-5.37774e-09 6.78717e-10 -3.30501e-11)
(-6.1093e-09 7.4764e-10 -3.92005e-11)
(-6.9176e-09 8.06771e-10 -4.50209e-11)
(-7.79552e-09 8.5129e-10 -4.89242e-11)
(-8.70894e-09 8.77604e-10 -4.81829e-11)
(-9.56745e-09 8.84675e-10 -3.97434e-11)
(-1.01598e-08 8.76474e-10 -2.5772e-11)
(-3.78381e-10 4.42104e-11 -1.47422e-12)
(-1.09632e-09 1.28996e-10 -4.34483e-12)
(-1.75033e-09 2.08776e-10 -7.17522e-12)
(-2.36211e-09 2.87177e-10 -1.01718e-11)
(-2.95065e-09 3.67074e-10 -1.3533e-11)
(-3.53294e-09 4.50669e-10 -1.74659e-11)
(-4.12457e-09 5.39612e-10 -2.22008e-11)
(-4.74005e-09 6.35044e-10 -2.80038e-11)
(-5.3927e-09 7.37701e-10 -3.51796e-11)
(-6.09391e-09 8.48121e-10 -4.40541e-11)
(-6.85166e-09 9.67077e-10 -5.48982e-11)
(-7.66776e-09 1.09621e-09 -6.77172e-11)
(-8.53332e-09 1.23834e-09 -8.17586e-11)
(-9.42061e-09 1.39541e-09 -9.45811e-11)
(-1.02636e-08 1.55867e-09 -1.01139e-10)