/*--------------------------------*- C++ -*----------------------------------*\
| =========                 |                                                 |
| \\      /  F ield         | foam-extend: Open Source CFD                    |
|  \\    /   O peration     | Version:     3.1                                |
|   \\  /    A nd           | Web:         http://www.extend-project.de       |
|    \\/     M anipulation  |                                                 |
\*---------------------------------------------------------------------------*/
FoamFile
{
    version     2.0;
    format      ascii;
    class       surfaceScalarField;
    location    "2.5";
    object      meshPhi;
}
// * * * * * * * * * * * * * * * * * * * * * * * * * * * * * * * * * * * * * //

dimensions      [0 3 -1 0 0 0 0];

internalField   nonuniform List<scalar> 
41600
(
1.70812e-08
3.24587e-09
4.17782e-11
-4.22968e-11
3.28823e-08
9.60261e-09
1.27001e-10
-1.28513e-10
4.72672e-08
1.57589e-08
2.19772e-10
-2.22168e-10
6.06023e-08
2.19408e-08
3.30564e-10
-3.33672e-10
7.31817e-08
2.84503e-08
4.7325e-10
-4.76771e-10
8.52258e-08
3.55766e-08
6.66128e-10
-6.69509e-10
9.68697e-08
4.36144e-08
9.35235e-10
-9.3747e-10
1.08136e-07
5.28785e-08
1.31948e-09
-1.3188e-09
1.18891e-07
6.37152e-08
1.87893e-09
-1.8723e-09
1.28773e-07
7.65057e-08
2.70869e-09
-2.69088e-09
1.37117e-07
9.16586e-08
3.96258e-09
-3.92445e-09
1.42903e-07
1.09581e-07
5.89275e-09
-5.81722e-09
1.44842e-07
1.30599e-07
8.90668e-09
-8.75977e-09
1.41893e-07
1.54681e-07
1.3589e-08
-1.33085e-08
1.34482e-07
1.79814e-07
2.02173e-08
-1.98106e-08
2.33967e-07
3.68828e-08
-5.09757e-08
5.09534e-08
6.34619e-09
1.23164e-10
-1.24686e-10
9.80799e-08
1.877e-08
3.73965e-10
-3.78401e-10
1.40974e-07
3.0788e-08
6.46009e-10
-6.53033e-10
1.8073e-07
4.28328e-08
9.69582e-10
-9.78674e-10
2.18229e-07
5.54832e-08
1.38434e-09
-1.39459e-09
2.54141e-07
6.92887e-08
1.9418e-09
-1.95156e-09
2.8889e-07
8.48022e-08
2.71438e-09
-2.72063e-09
3.22591e-07
1.02607e-07
3.8086e-09
-3.80608e-09
3.54916e-07
1.23334e-07
5.38577e-09
-5.36552e-09
3.84907e-07
1.47659e-07
7.69544e-09
-7.64241e-09
4.10744e-07
1.76266e-07
1.11296e-08
-1.10182e-08
4.29569e-07
2.09744e-07
1.63058e-08
-1.609e-08
4.37674e-07
2.48331e-07
2.41657e-08
-2.37574e-08
4.31837e-07
2.91238e-07
3.59375e-08
-3.51764e-08
4.12782e-07
3.34022e-07
5.19231e-08
-5.07542e-08
3.95194e-07
8.4237e-08
-1.07101e-07
8.39939e-08
9.17357e-09
1.9705e-10
-1.99476e-10
1.61654e-07
2.7123e-08
5.97176e-10
-6.04243e-10
2.3231e-07
4.44574e-08
1.02848e-09
-1.03964e-09
2.9777e-07
6.17831e-08
1.53752e-09
-1.5519e-09
3.595e-07
7.99132e-08
2.18406e-09
-2.20014e-09
4.18636e-07
9.96077e-08
3.04399e-09
-3.05902e-09
4.7595e-07
1.21618e-07
4.2214e-09
-4.2304e-09
5.3176e-07
1.46723e-07
5.86514e-09
-5.85948e-09
5.85752e-07
1.75742e-07
8.19312e-09
-8.1584e-09
6.3671e-07
2.09525e-07
1.15292e-08
-1.14418e-08
6.82152e-07
2.48879e-07
1.63563e-08
-1.61769e-08
7.18009e-07
2.94379e-07
2.33819e-08
-2.30435e-08
7.38731e-07
3.45933e-07
3.35755e-08
-3.2957e-08
7.39002e-07
4.01824e-07
4.7967e-08
-4.68513e-08
7.18667e-07
4.55812e-07
6.62066e-08
-6.43941e-08
5.3002e-07
9.45763e-08
-1.10247e-07
1.15705e-07
1.16155e-08
2.5876e-10
-2.61933e-10
2.22638e-07
3.43286e-08
7.82268e-10
-7.91498e-10
3.19865e-07
5.62198e-08
1.34174e-09
-1.35626e-09
4.09884e-07
7.80271e-08
1.99472e-09
-2.01329e-09
4.94732e-07
1.00742e-07
2.81325e-09
-2.83376e-09
5.76032e-07
1.25273e-07
3.88589e-09
-3.90449e-09
6.54966e-07
1.52501e-07
5.32976e-09
-5.33958e-09
7.32202e-07
1.8331e-07
7.30568e-09
-7.29505e-09
8.07709e-07
2.18607e-07
1.00387e-08
-9.98819e-09
8.80467e-07
2.59296e-07
1.38443e-08
-1.37224e-08
9.48044e-07
3.06195e-07
1.91595e-08
-1.89145e-08
1.00612e-06
3.59797e-07
2.65639e-08
-2.61105e-08
1.04833e-06
4.19752e-07
3.67326e-08
-3.59232e-08
1.06762e-06
4.8375e-07
5.01438e-08
-4.87194e-08
1.06107e-06
5.44615e-07
6.58762e-08
-6.34849e-08
6.24241e-07
8.74813e-08
-9.87916e-08
1.45614e-07
1.35815e-08
3.05231e-10
-3.08954e-10
2.80118e-07
4.01207e-08
9.20086e-10
-9.30891e-10
4.02312e-07
6.56434e-08
1.57024e-09
-1.58715e-09
5.15335e-07
9.09721e-08
2.31832e-09
-2.33974e-09
6.21771e-07
1.17215e-07
3.24045e-09
-3.26366e-09
7.23724e-07
1.45365e-07
4.42619e-09
-4.44631e-09
8.22835e-07
1.76356e-07
5.9883e-09
-5.99678e-09
9.20239e-07
2.11091e-07
8.07375e-09
-8.05616e-09
1.01643e-06
2.50462e-07
1.08758e-08
-1.08082e-08
1.11102e-06
2.95326e-07
1.46447e-08
-1.4488e-08
1.20234e-06
3.46424e-07
1.96916e-08
-1.93823e-08
1.28693e-06
4.04183e-07
2.63733e-08
-2.58064e-08
1.35888e-06
4.68213e-07
3.49941e-08
-3.39926e-08
1.40998e-06
5.3612e-07
4.55259e-08
-4.37853e-08
1.43201e-06
6.00439e-07
5.68056e-08
-5.38511e-08
6.81198e-07
7.0864e-08
-7.71e-08
1.73296e-07
1.50061e-08
3.35252e-10
-3.39311e-10
3.33274e-07
4.43082e-08
1.00725e-09
-1.019e-09
4.78458e-07
7.24237e-08
1.70905e-09
-1.7273e-09
6.12557e-07
1.00214e-07
2.50287e-09
-2.52569e-09
7.38648e-07
1.28842e-07
3.46185e-09
-3.48595e-09
8.59281e-07
1.59323e-07
4.66729e-09
-4.68685e-09
9.76552e-07
1.92572e-07
6.21515e-09
-6.22016e-09
1.0921e-06
2.29431e-07
8.22194e-09
-8.19573e-09
1.20707e-06
2.70686e-07
1.08279e-08
-1.07428e-08
1.32195e-06
3.17044e-07
1.41931e-08
-1.4004e-08
1.43636e-06
3.69084e-07
1.84818e-08
-1.81148e-08
1.54852e-06
4.27139e-07
2.38288e-08
-2.3161e-08
1.65445e-06
4.90973e-07
3.02342e-08
-2.90595e-08
1.74632e-06
5.58797e-07
3.73333e-08
-3.52995e-08
1.80969e-06
6.2405e-07
4.39129e-08
-4.04558e-08
7.05032e-07
5.1489e-08
-5.37954e-08
1.98388e-07
1.5849e-08
3.49329e-10
-3.53513e-10
3.81405e-07
4.67765e-08
1.04569e-09
-1.05775e-09
5.47282e-07
7.63861e-08
1.76274e-09
-1.78132e-09
7.00211e-07
1.05536e-07
2.55809e-09
-2.58092e-09
8.43674e-07
1.3539e-07
3.49676e-09
-3.52006e-09
9.80596e-07
1.6693e-07
4.64607e-09
-4.66325e-09
1.11345e-06
2.00994e-07
6.07881e-09
-6.07876e-09
1.24432e-06
2.38299e-07
7.87448e-09
-7.83905e-09
1.37493e-06
2.79441e-07
1.01155e-08
-1.00147e-08
1.50662e-06
3.24878e-07
1.28739e-08
-1.26591e-08
1.64027e-06
3.74893e-07
1.61851e-08
-1.5777e-08
1.77605e-06
4.29548e-07
2.00113e-08
-1.92785e-08
1.91272e-06
4.88609e-07
2.41586e-08
-2.28804e-08
2.04531e-06
5.5122e-07
2.81166e-08
-2.59104e-08
2.15724e-06
6.138e-07
3.08221e-08
-2.70561e-08
7.00131e-07
3.43629e-08
-3.40411e-08
2.20585e-07
3.49348e-10
-3.53471e-10
1.60945e-08
4.2393e-07
1.04156e-09
-1.05339e-09
4.74838e-08
6.07957e-07
1.74333e-09
-1.76135e-09
7.74773e-08
7.77223e-07
2.50491e-09
-2.52657e-09
1.06897e-07
9.3551e-07
3.38034e-09
-3.40147e-09
1.3686e-07
1.08601e-06
4.42067e-09
-4.43415e-09
1.68271e-07
1.23144e-06
5.67457e-09
-5.66871e-09
2.01857e-07
1.37417e-06
7.18628e-09
-7.14222e-09
2.38166e-07
1.51627e-06
8.98763e-09
-8.87482e-09
2.77554e-07
1.65956e-06
1.10808e-08
-1.08505e-08
3.20148e-07
1.80566e-06
1.34103e-08
-1.29853e-08
3.65784e-07
1.95579e-06
1.5827e-08
-1.50835e-08
4.1391e-07
2.1102e-06
1.80243e-08
-1.67629e-08
4.63454e-07
2.26577e-06
1.94234e-08
-1.73189e-08
5.12421e-07
2.408e-06
1.90792e-08
-1.5619e-08
5.56329e-07
2.19258e-08
-2.07115e-08
6.42883e-07
1.73522e-08
3.39719e-09
3.96076e-11
3.3408e-08
1.00556e-08
1.20446e-10
4.80353e-08
1.65201e-08
2.08559e-10
6.16126e-08
2.30383e-08
3.13953e-10
7.44434e-08
2.99382e-08
4.49849e-10
8.67543e-08
3.75363e-08
6.33595e-10
9.86817e-08
4.61579e-08
8.89643e-10
1.10244e-07
5.61534e-08
1.25394e-09
1.21293e-07
6.79117e-08
1.78067e-09
1.31449e-07
8.18641e-08
2.55253e-09
1.40028e-07
9.8478e-08
3.69587e-09
1.46019e-07
1.18224e-07
5.39941e-09
1.48246e-07
1.41482e-07
7.92123e-09
1.46016e-07
1.68194e-07
1.1512e-08
1.40544e-07
1.96207e-07
1.59713e-08
2.40163e-07
2.43043e-08
5.17596e-08
6.64138e-09
1.16775e-10
9.96437e-08
1.96533e-08
3.54689e-10
1.43259e-07
3.22711e-08
6.13095e-10
1.83735e-07
4.49686e-08
9.20954e-10
2.21983e-07
5.83741e-08
1.31608e-09
2.58689e-07
7.30888e-08
1.84743e-09
2.94287e-07
8.97233e-08
2.58309e-09
3.28876e-07
1.08926e-07
3.62172e-09
3.62094e-07
1.31406e-07
5.10921e-09
3.92923e-07
1.57926e-07
7.26309e-09
4.19475e-07
1.89267e-07
1.04056e-08
4.38881e-07
2.26106e-07
1.49976e-08
4.47653e-07
2.68708e-07
2.16248e-08
4.43348e-07
3.16147e-07
3.07561e-08
4.28675e-07
3.63731e-07
4.16784e-08
4.14243e-07
5.78727e-08
8.53156e-08
9.5987e-09
1.86848e-10
1.64217e-07
2.83944e-08
5.6645e-10
2.36053e-07
4.65899e-08
9.76198e-10
3.02693e-07
6.4849e-08
1.46066e-09
3.65651e-07
8.4054e-08
2.07696e-09
4.26094e-07
1.05036e-07
2.89734e-09
4.8481e-07
1.28627e-07
4.02009e-09
5.42104e-07
1.5569e-07
5.58368e-09
5.9761e-07
1.87147e-07
7.78626e-09
6.50016e-07
2.23959e-07
1.09114e-08
6.96714e-07
2.67045e-07
1.5357e-08
7.33528e-07
3.17062e-07
2.16478e-08
7.55031e-07
3.73897e-07
3.03584e-08
7.56664e-07
4.35576e-07
4.17356e-08
7.40686e-07
4.95577e-07
5.45088e-08
5.56719e-07
6.90544e-08
1.1751e-07
1.21512e-08
2.45394e-10
2.26137e-07
3.59297e-08
7.42117e-10
3.24973e-07
5.89016e-08
1.27375e-09
4.16599e-07
8.1875e-08
1.89548e-09
5.03123e-07
1.05925e-07
2.67631e-09
5.86213e-07
1.32048e-07
3.70092e-09
6.67082e-07
1.61214e-07
5.08053e-09
7.4639e-07
1.9441e-07
6.96589e-09
8.24053e-07
2.32655e-07
9.56329e-09
8.98939e-07
2.76975e-07
1.31515e-08
9.68434e-07
3.28305e-07
1.8093e-08
1.028e-06
3.8722e-07
2.48125e-08
1.07113e-06
4.53321e-07
3.3665e-08
1.09118e-06
5.2399e-07
4.4532e-08
1.08733e-06
5.91758e-07
5.58712e-08
6.58163e-07
6.73514e-08
1.47859e-07
1.42045e-08
2.8951e-10
2.84467e-07
4.19811e-08
8.73e-10
4.08657e-07
6.87549e-08
1.49097e-09
5.23673e-07
9.54269e-08
2.20362e-09
6.32187e-07
1.23199e-07
3.08412e-09
7.36369e-07
1.53159e-07
4.2186e-09
8.37905e-07
1.86337e-07
5.7151e-09
9.3794e-07
2.23744e-07
7.71289e-09
1.03693e-06
2.66386e-07
1.03917e-08
1.13438e-06
3.15245e-07
1.39764e-08
1.22843e-06
3.71184e-07
1.87291e-08
1.3153e-06
4.34721e-07
2.49066e-08
1.38867e-06
5.05445e-07
3.26088e-08
1.44014e-06
5.80681e-07
4.14381e-08
1.46251e-06
6.52588e-07
4.98825e-08
7.21067e-07
5.78137e-08
1.75929e-07
1.56903e-08
3.18042e-10
3.38371e-07
4.63499e-08
9.55891e-10
4.85887e-07
7.58333e-08
1.62316e-09
6.22312e-07
1.05084e-07
2.37988e-09
7.50826e-07
1.35365e-07
3.29664e-09
8.74065e-07
1.67788e-07
4.45227e-09
9.94185e-07
2.03364e-07
5.93994e-09
1.11286e-06
2.43039e-07
7.87192e-09
1.23122e-06
2.87706e-07
1.03819e-08
1.3497e-06
3.38192e-07
1.36189e-08
1.46772e-06
3.95198e-07
1.77269e-08
1.5832e-06
4.59171e-07
2.27988e-08
1.69158e-06
5.29929e-07
2.87435e-08
1.78418e-06
6.05539e-07
3.5029e-08
1.84585e-06
6.79024e-07
4.03136e-08
7.49763e-07
4.51961e-08
2.01351e-07
1.65672e-08
3.3147e-10
3.87134e-07
4.89182e-08
9.92607e-10
5.55624e-07
7.99574e-08
1.67466e-09
7.1115e-07
1.10627e-07
2.43343e-09
8.57313e-07
1.42189e-07
3.33202e-09
9.97137e-07
1.75718e-07
4.43648e-09
1.13317e-06
2.12146e-07
5.81884e-09
1.26756e-06
2.5228e-07
7.55793e-09
1.40205e-06
2.96813e-07
9.7363e-09
1.53794e-06
3.46302e-07
1.24275e-08
1.676e-06
4.01136e-07
1.56702e-08
1.81617e-06
4.61489e-07
1.94302e-08
1.95664e-06
5.27249e-07
2.35076e-08
2.09136e-06
5.9764e-07
2.73736e-08
2.20124e-06
6.68977e-07
2.99837e-08
7.48268e-07
3.32624e-08
2.23815e-07
3.31577e-10
1.68196e-08
4.30171e-07
9.88977e-10
4.96445e-08
6.1703e-07
1.6568e-09
8.10756e-08
7.89099e-07
2.384e-09
1.12016e-07
9.50287e-07
3.22343e-09
1.43677e-07
1.10389e-06
4.22597e-09
1.77052e-07
1.25273e-06
5.44125e-09
2.12948e-07
1.39923e-06
6.91576e-09
2.51991e-07
1.54551e-06
8.68642e-09
2.94613e-07
1.6934e-06
1.07651e-08
3.41011e-07
1.84443e-06
1.31134e-08
3.91085e-07
1.99966e-06
1.56094e-08
4.44332e-07
2.15885e-06
1.79853e-08
4.99706e-07
2.31777e-06
1.97178e-08
5.55129e-07
2.45864e-06
1.99439e-08
6.0575e-07
2.34182e-08
6.8616e-07
1.75919e-08
3.5345e-09
3.58404e-11
3.38741e-08
1.04663e-08
1.0901e-10
4.87175e-08
1.7209e-08
1.88805e-10
6.25105e-08
2.4028e-08
2.8427e-10
7.55645e-08
3.12722e-08
4.07265e-10
8.81109e-08
3.92789e-08
5.73151e-10
1.00288e-07
4.83938e-08
8.03157e-10
1.12112e-07
5.89872e-08
1.12755e-09
1.2343e-07
7.14646e-08
1.58995e-09
1.33858e-07
8.62642e-08
2.25282e-09
1.42721e-07
1.03837e-07
3.20262e-09
1.49062e-07
1.24583e-07
4.54983e-09
1.51851e-07
1.48696e-07
6.40707e-09
1.50655e-07
1.7573e-07
8.80369e-09
1.46794e-07
2.03048e-07
1.14396e-08
2.48038e-07
1.55714e-08
5.24731e-08
6.90932e-09
1.05679e-10
1.01031e-07
2.04544e-08
3.21043e-10
1.45288e-07
3.36138e-08
5.55088e-10
1.86406e-07
4.68954e-08
8.34016e-10
2.25318e-07
6.09676e-08
1.1918e-09
2.62726e-07
7.64708e-08
1.67187e-09
2.99069e-07
9.40539e-08
2.33346e-09
3.34442e-07
1.14402e-07
3.25984e-09
3.68467e-07
1.38253e-07
4.56888e-09
4.00107e-07
1.66378e-07
6.42525e-09
4.27489e-07
1.99517e-07
9.04904e-09
4.47857e-07
2.38192e-07
1.27061e-08
4.58071e-07
2.82286e-07
1.76332e-08
4.56327e-07
3.30084e-07
2.37991e-08
4.45638e-07
3.75949e-07
3.03262e-08
4.21966e-07
3.81336e-08
8.64854e-08
9.9847e-09
1.69117e-10
1.6649e-07
2.9548e-08
5.12794e-10
2.39379e-07
4.85211e-08
8.8401e-10
3.0707e-07
6.76162e-08
1.32316e-09
3.71115e-07
8.77714e-08
1.88167e-09
4.32711e-07
1.09873e-07
2.62386e-09
4.92656e-07
1.34802e-07
3.63557e-09
5.51247e-07
1.63473e-07
5.03431e-09
6.08093e-07
1.96843e-07
6.98124e-09
6.61843e-07
2.35875e-07
9.69177e-09
7.09868e-07
2.81419e-07
1.34368e-08
7.48078e-07
3.33898e-07
1.85096e-08
7.71392e-07
3.92626e-07
2.50951e-08
7.75967e-07
4.54516e-07
3.29397e-08
7.64531e-07
5.11725e-07
4.07385e-08
5.64909e-07
4.76421e-08
1.19107e-07
1.26377e-08
2.22149e-10
2.29239e-07
3.73826e-08
6.71959e-10
3.2951e-07
6.1331e-08
1.15377e-09
4.22568e-07
8.53498e-08
1.71771e-09
5.10575e-07
1.10583e-07
2.42611e-09
5.9524e-07
1.38089e-07
3.35471e-09
6.77794e-07
1.68903e-07
4.60129e-09
7.58893e-07
2.04064e-07
6.2949e-09
8.3842e-07
2.44627e-07
8.60482e-09
9.15176e-07
2.9162e-07
1.17442e-08
9.86469e-07
3.45881e-07
1.59593e-08
1.04773e-06
4.07694e-07
2.14734e-08
1.09262e-06
4.75969e-07
2.83253e-08
1.115e-06
5.46759e-07
3.60434e-08
1.11467e-06
6.11026e-07
4.31973e-08
6.67423e-07
4.88433e-08
1.49845e-07
1.47703e-08
2.62144e-10
2.88323e-07
4.36697e-08
7.90662e-10
4.14292e-07
7.15746e-08
1.35097e-09
5.31082e-07
9.94518e-08
1.99788e-09
6.41433e-07
1.2858e-07
2.79777e-09
7.4757e-07
1.60117e-07
3.82819e-09
8.51207e-07
1.95159e-07
5.18504e-09
9.53491e-07
2.34773e-07
6.98902e-09
1.05484e-06
2.80001e-07
9.38953e-09
1.15468e-06
3.31817e-07
1.25608e-08
1.25101e-06
3.9098e-07
1.66806e-08
1.33986e-06
4.57701e-07
2.18671e-08
1.4148e-06
5.30839e-07
2.80199e-08
1.46748e-06
6.06302e-07
3.45579e-08
1.49137e-06
6.7451e-07
4.0163e-08
7.32199e-07
4.44554e-08
1.78259e-07
1.63118e-08
2.88054e-10
3.4289e-07
4.82036e-08
8.65983e-10
4.92484e-07
7.89245e-08
1.47129e-09
6.30978e-07
1.09488e-07
2.15884e-09
7.61632e-07
1.41236e-07
2.993e-09
8.8715e-07
1.75354e-07
4.04532e-09
1.00973e-06
2.12919e-07
5.39963e-09
1.13105e-06
2.5493e-07
7.15496e-09
1.25222e-06
3.02313e-07
9.42474e-09
1.37357e-06
3.55882e-07
1.23272e-08
1.49436e-06
4.16234e-07
1.59594e-08
1.61219e-06
4.83528e-07
2.03439e-08
1.72204e-06
5.56903e-07
2.52986e-08
1.81476e-06
6.33052e-07
3.02506e-08
1.8756e-06
7.03164e-07
3.40948e-08
7.63469e-07
3.73542e-08
2.03971e-07
1.72199e-08
3.00303e-10
3.92213e-07
5.08635e-08
8.99547e-10
5.63032e-07
8.31969e-08
1.51861e-09
7.20867e-07
1.15232e-07
2.20874e-09
8.69415e-07
1.48312e-07
3.02783e-09
1.01177e-06
1.83584e-07
4.03649e-09
1.15055e-06
2.22039e-07
5.30075e-09
1.2879e-06
2.64535e-07
6.89197e-09
1.42555e-06
3.11787e-07
8.88276e-09
1.56473e-06
3.64338e-07
1.13342e-08
1.706e-06
4.22477e-07
1.42707e-08
1.84892e-06
4.86122e-07
1.76416e-08
1.99103e-06
5.5458e-07
2.1237e-08
2.12524e-06
6.25886e-07
2.45807e-08
2.23233e-06
6.94582e-07
2.68703e-08
7.64802e-07
2.99758e-08
2.26672e-07
3.00502e-10
1.74787e-08
4.35703e-07
8.96595e-10
5.16079e-08
6.25087e-07
1.50313e-09
8.43414e-08
7.9965e-07
2.16529e-09
1.1665e-07
9.63404e-07
2.93194e-09
1.49823e-07
1.11973e-06
3.85049e-09
1.84923e-07
1.27149e-06
4.96767e-09
2.22809e-07
1.42117e-06
6.32745e-09
2.64149e-07
1.57085e-06
7.96512e-09
3.0939e-07
1.72229e-06
9.89369e-09
3.58706e-07
1.87686e-06
1.20813e-08
4.11897e-07
2.0352e-06
1.44223e-08
4.68228e-07
2.19636e-06
1.66838e-08
5.26166e-07
2.35491e-06
1.84376e-08
5.82685e-07
2.4923e-06
1.90354e-08
6.31446e-07
2.28736e-08
7.04485e-07
1.77976e-08
3.65413e-09
3.0611e-11
3.42741e-08
1.08237e-08
9.31086e-11
4.93034e-08
1.7807e-08
1.61259e-10
6.32817e-08
2.48836e-08
2.42726e-10
7.65266e-08
3.24183e-08
3.47461e-10
8.92739e-08
4.07623e-08
4.88121e-10
1.01664e-07
5.02729e-08
6.81733e-10
1.13713e-07
6.13271e-08
9.51644e-10
1.25267e-07
7.43281e-08
1.32962e-09
1.35945e-07
8.96948e-08
1.85744e-09
1.45091e-07
1.07829e-07
2.58567e-09
1.51797e-07
1.29037e-07
3.56522e-09
1.55126e-07
1.5337e-07
4.82182e-09
1.54743e-07
1.80253e-07
6.30074e-09
1.51852e-07
2.07162e-07
7.76638e-09
2.5383e-07
9.85537e-09
5.30848e-08
7.14277e-09
9.02696e-11
1.0222e-07
2.11517e-08
2.74244e-10
1.47031e-07
3.47796e-08
4.74168e-10
1.88699e-07
4.85615e-08
7.12274e-10
2.28179e-07
6.31964e-08
1.01711e-09
2.66185e-07
7.93513e-08
1.42452e-09
3.03162e-07
9.76964e-08
1.98216e-09
3.39205e-07
1.18929e-07
2.75442e-09
3.7393e-07
1.43781e-07
3.82742e-09
4.06309e-07
1.72981e-07
5.31145e-09
4.34503e-07
2.07171e-07
7.33429e-09
4.55875e-07
2.46676e-07
1.0013e-08
4.67514e-07
2.91065e-07
1.3378e-08
4.67854e-07
3.38289e-07
1.72211e-08
4.59615e-07
3.82762e-07
2.08712e-08
4.27454e-07
2.4632e-08
8.74881e-08
1.03211e-08
1.44481e-10
1.6844e-07
3.05521e-08
4.38121e-10
2.42233e-07
5.01983e-08
7.5532e-10
3.10826e-07
7.001e-08
1.13041e-09
3.75801e-07
9.09681e-08
1.60672e-09
4.38376e-07
1.13995e-07
2.23751e-09
4.99361e-07
1.40003e-07
3.09216e-09
5.5905e-07
1.69919e-07
4.26208e-09
6.17044e-07
2.04688e-07
5.86576e-09
6.71981e-07
2.45212e-07
8.04777e-09
7.21259e-07
2.9219e-07
1.09632e-08
7.60898e-07
3.4575e-07
1.47283e-08
7.86069e-07
4.04724e-07
1.93033e-08
7.93206e-07
4.65467e-07
2.42897e-08
7.84712e-07
5.20089e-07
2.87206e-08
5.69651e-07
3.18838e-08
1.20476e-07
1.30618e-08
1.89827e-10
2.319e-07
3.86477e-08
5.74248e-10
3.33404e-07
6.34418e-08
9.8613e-10
4.27689e-07
8.83574e-08
1.46817e-09
5.16962e-07
1.14591e-07
2.07306e-09
6.02961e-07
1.43246e-07
2.86387e-09
6.86934e-07
1.75389e-07
3.92016e-09
7.69534e-07
2.12075e-07
5.34322e-09
8.50623e-07
2.54343e-07
7.25859e-09
9.2897e-07
3.03139e-07
9.8099e-09
1.00186e-06
3.59112e-07
1.31355e-08
1.06477e-06
4.22178e-07
1.73047e-08
1.11151e-06
4.90639e-07
2.21837e-08
1.13617e-06
5.59834e-07
2.72416e-08
1.13841e-06
6.20606e-07
3.14377e-08
6.71812e-07
3.40942e-08
1.51547e-07
1.52636e-08
2.24062e-10
2.9163e-07
4.51405e-08
6.75888e-10
4.19127e-07
7.40255e-08
1.15511e-09
5.37437e-07
1.02938e-07
1.70858e-09
6.49354e-07
1.33215e-07
2.39264e-09
7.57143e-07
1.66063e-07
3.27233e-09
8.6254e-07
2.02614e-07
4.42639e-09
9.66687e-07
2.4395e-07
5.9507e-09
1.06997e-06
2.91089e-07
7.95748e-09
1.17176e-06
3.44914e-07
1.05652e-08
1.26998e-06
4.05975e-07
1.38708e-08
1.36056e-06
4.74078e-07
1.7887e-08
1.43707e-06
5.47423e-07
2.24148e-08
1.49127e-06
6.21112e-07
2.68937e-08
1.51678e-06
6.85386e-07
3.03706e-08
7.37164e-07
3.26468e-08
1.80255e-07
1.68538e-08
2.4628e-10
3.46764e-07
4.98189e-08
7.40524e-10
4.98144e-07
8.16128e-08
1.25854e-09
6.38409e-07
1.13304e-07
1.84739e-09
7.70888e-07
1.46299e-07
2.56202e-09
8.98329e-07
1.81829e-07
3.46294e-09
1.02295e-06
2.2101e-07
4.61982e-09
1.14645e-06
2.64854e-07
6.11266e-09
1.26988e-06
3.14259e-07
8.02825e-09
1.3935e-06
3.69944e-07
1.04481e-08
1.51642e-06
4.32295e-07
1.34215e-08
1.63604e-06
5.01076e-07
1.69165e-08
1.74713e-06
5.74773e-07
2.07191e-08
1.84047e-06
6.49264e-07
2.43304e-08
1.9017e-06
7.15494e-07
2.69557e-08
7.69956e-07
2.91271e-08
2.06217e-07
1.77893e-08
2.56839e-10
3.96569e-07
5.25594e-08
7.69514e-10
5.69387e-07
8.6016e-08
1.29964e-09
7.29202e-07
1.19227e-07
1.89139e-09
8.79781e-07
1.53599e-07
2.59447e-09
1.02428e-06
1.90326e-07
3.46068e-09
1.16533e-06
2.30437e-07
4.54581e-09
1.3051e-06
2.74796e-07
5.90886e-09
1.44527e-06
3.24093e-07
7.60695e-09
1.58697e-06
3.78776e-07
9.68286e-09
1.73059e-06
4.38936e-07
1.21422e-08
1.8754e-06
5.04126e-07
1.49215e-08
2.01854e-06
5.73067e-07
1.78244e-08
2.15264e-06
6.43042e-07
2.04703e-08
2.25895e-06
7.0829e-07
2.22968e-08
7.73379e-07
2.49486e-08
2.29121e-07
2.57101e-10
1.80541e-08
4.40449e-07
7.67301e-10
5.33205e-08
6.32002e-07
1.28706e-09
8.71852e-08
8.08704e-07
1.85552e-09
1.20674e-07
9.74644e-07
2.51495e-09
1.55136e-07
1.13326e-06
3.30638e-09
1.91681e-07
1.28746e-06
4.27025e-09
2.312e-07
1.43972e-06
5.44417e-09
2.74367e-07
1.59209e-06
6.85733e-09
3.21599e-07
1.74625e-06
8.51873e-09
3.72983e-07
1.90333e-06
1.03982e-08
4.28141e-07
2.06369e-06
1.24036e-08
4.86013e-07
2.22589e-06
1.43415e-08
5.44573e-07
2.38405e-06
1.58844e-08
6.00167e-07
2.5199e-06
1.65701e-08
6.46096e-07
2.01021e-08
7.1489e-07
1.7966e-08
3.75303e-09
2.41282e-11
3.46019e-08
1.11189e-08
7.33857e-11
4.97834e-08
1.82997e-08
1.27073e-10
6.39132e-08
2.55854e-08
1.91165e-10
7.73139e-08
3.33522e-08
2.73334e-10
9.02246e-08
4.196e-08
3.83154e-10
1.02788e-07
5.17705e-08
5.33135e-10
1.15019e-07
6.31594e-08
7.39724e-10
1.26768e-07
7.65176e-08
1.02394e-09
1.37657e-07
9.2236e-08
1.4108e-09
1.47044e-07
1.10667e-07
1.92577e-09
1.5405e-07
1.32048e-07
2.58546e-09
1.57778e-07
1.56371e-07
3.37927e-09
1.57901e-07
1.83084e-07
4.24288e-09
1.55499e-07
2.09867e-07
5.02936e-09
2.57897e-07
6.11031e-09
5.35856e-08
7.33576e-09
7.1159e-11
1.03195e-07
2.17275e-08
2.16174e-10
1.48458e-07
3.57399e-08
3.73698e-10
1.90577e-07
4.99282e-08
5.61082e-10
2.30519e-07
6.50132e-08
8.00364e-10
2.69011e-07
8.16781e-08
1.11872e-09
3.06502e-07
1.00602e-07
1.55123e-09
3.43088e-07
1.22478e-07
2.14341e-09
3.78388e-07
1.48013e-07
2.95238e-09
4.11382e-07
1.77882e-07
4.04422e-09
4.40266e-07
2.12623e-07
5.48211e-09
4.62471e-07
2.52417e-07
7.29856e-09
4.75182e-07
2.96679e-07
9.442e-09
4.76844e-07
3.43327e-07
1.1704e-08
4.69844e-07
3.87065e-07
1.36648e-08
4.31667e-07
1.54957e-08
8.83087e-08
1.05992e-08
1.13911e-10
1.70036e-07
3.13814e-08
3.45412e-10
2.4457e-07
5.15803e-08
5.95418e-10
3.13899e-07
7.19743e-08
8.9077e-10
3.79631e-07
9.35753e-08
1.26499e-09
4.43e-07
1.17328e-07
1.7586e-09
5.04824e-07
1.44156e-07
2.42293e-09
5.65399e-07
1.7498e-07
3.32291e-09
6.24323e-07
2.10709e-07
4.5376e-09
6.80237e-07
2.5216e-07
6.15358e-09
7.30563e-07
2.99884e-07
8.24493e-09
7.71394e-07
3.53782e-07
1.08295e-08
7.98005e-07
4.12425e-07
1.37896e-08
8.0683e-07
4.72047e-07
1.67748e-08
7.99872e-07
5.25076e-07
1.91791e-08
5.73296e-07
2.06006e-08
1.21596e-07
1.34124e-08
1.49693e-10
2.34078e-07
3.96929e-08
4.52841e-10
3.3659e-07
6.51816e-08
7.77612e-10
4.31878e-07
9.0827e-08
1.15746e-09
5.22179e-07
1.17862e-07
1.6333e-09
6.09258e-07
1.47419e-07
2.25333e-09
6.94371e-07
1.80576e-07
3.07682e-09
7.78171e-07
2.1838e-07
4.17629e-09
8.60508e-07
2.61821e-07
5.63621e-09
9.40134e-07
3.11742e-07
7.54259e-09
1.01433e-06
3.68601e-07
9.95821e-09
1.0786e-06
4.32025e-07
1.28701e-08
1.12683e-06
4.99971e-07
1.61003e-08
1.15312e-06
5.67574e-07
1.9216e-08
1.15681e-06
6.26034e-07
2.15589e-08
6.74906e-07
2.27755e-08
1.5294e-07
1.56716e-08
1.76734e-10
2.94336e-07
4.63561e-08
5.33147e-10
4.23084e-07
7.60468e-08
9.11208e-10
5.42634e-07
1.05802e-07
1.34773e-09
6.55824e-07
1.37002e-07
1.88666e-09
7.64945e-07
1.70883e-07
2.57801e-09
8.71748e-07
2.08589e-07
3.48092e-09
9.77372e-07
2.51191e-07
4.66484e-09
1.08218e-06
2.99652e-07
6.20612e-09
1.1855e-06
3.54739e-07
8.17591e-09
1.2852e-06
4.16789e-07
1.06146e-08
1.37718e-06
4.85284e-07
1.34818e-08
1.455e-06
5.58025e-07
1.65726e-08
1.51045e-06
6.29866e-07
1.94502e-08
1.53706e-06
6.91411e-07
2.1501e-08
7.40312e-07
2.26966e-08
1.81888e-07
1.73025e-08
1.94316e-10
3.49935e-07
5.11546e-08
5.84325e-10
5.02776e-07
8.38312e-08
9.93222e-10
6.44488e-07
1.16443e-07
1.45813e-09
7.78446e-07
1.50439e-07
2.0221e-09
9.07435e-07
1.87086e-07
2.73203e-09
1.03369e-06
2.27509e-07
3.64081e-09
1.1589e-06
2.72708e-07
4.80724e-09
1.28409e-06
3.23525e-07
6.29133e-09
1.40943e-06
3.80554e-07
8.14221e-09
1.53396e-06
4.43966e-07
1.03754e-08
1.65496e-06
5.13196e-07
1.29355e-08
1.7671e-06
5.86325e-07
1.56302e-08
1.86117e-06
6.58959e-07
1.80846e-08
1.92299e-06
7.22391e-07
1.97755e-08
7.73898e-07
2.1184e-08
2.08055e-07
1.82608e-08
2.0271e-10
4.00135e-07
5.39624e-08
6.07419e-10
5.7459e-07
8.83437e-08
1.02614e-09
7.3602e-07
1.22515e-07
1.49384e-09
8.88248e-07
1.57928e-07
2.04972e-09
1.03447e-06
1.95808e-07
2.73426e-09
1.17733e-06
2.37197e-07
3.59044e-09
1.31899e-06
2.82945e-07
4.66244e-09
1.46109e-06
3.33685e-07
5.99062e-09
1.60468e-06
3.89744e-07
7.60041e-09
1.75002e-06
4.51009e-07
9.48421e-09
1.89618e-06
5.1672e-07
1.15786e-08
2.04013e-06
5.85224e-07
1.37233e-08
2.17449e-06
6.53537e-07
1.56423e-08
2.28086e-06
7.16185e-07
1.6963e-08
7.78632e-07
1.89906e-08
2.31126e-07
2.02985e-10
1.85307e-08
4.44335e-07
6.05903e-10
5.4738e-08
6.37665e-07
1.01671e-09
8.95346e-08
8.16114e-07
1.46651e-09
1.23987e-07
9.83829e-07
1.98888e-09
1.59491e-07
1.14429e-06
2.61624e-09
1.97184e-07
1.30042e-06
3.38029e-09
2.37971e-07
1.4547e-06
4.30998e-09
2.8251e-07
1.60913e-06
5.42654e-09
3.31165e-07
1.76529e-06
6.73388e-09
3.83912e-07
1.92417e-06
8.20406e-09
4.40186e-07
2.08589e-06
9.76143e-09
4.9865e-07
2.24881e-06
1.12573e-08
5.5695e-07
2.40695e-06
1.24555e-08
6.11187e-07
2.5424e-06
1.30364e-08
6.54839e-07
1.58477e-08
7.2141e-07
1.80946e-08
3.82895e-09
1.66563e-11
3.48522e-08
1.13453e-08
5.06549e-11
5.01499e-08
1.86765e-08
8.76892e-11
6.43952e-08
2.61202e-08
1.3184e-10
7.79142e-08
3.40597e-08
1.88295e-10
9.09488e-08
4.28596e-08
2.63421e-10
1.03642e-07
5.28825e-08
3.6532e-10
1.16013e-07
6.44987e-08
5.04246e-10
1.27909e-07
7.80851e-08
6.92557e-10
1.38958e-07
9.40073e-08
9.4353e-10
1.48526e-07
1.12581e-07
1.26804e-09
1.55747e-07
1.34009e-07
1.66786e-09
1.59731e-07
1.58272e-07
2.12537e-09
1.60134e-07
1.8489e-07
2.59389e-09
1.57956e-07
2.11695e-07
2.99462e-09
2.60699e-07
3.546e-09
5.39681e-08
7.48391e-09
4.91267e-11
1.03939e-07
2.2169e-08
1.49228e-10
1.49547e-07
3.64746e-08
2.57908e-10
1.92009e-07
5.09699e-08
3.87024e-10
2.32303e-07
6.63899e-08
5.51497e-10
2.71163e-07
8.34268e-08
7.69429e-10
3.09041e-07
1.02761e-07
1.06359e-09
3.46037e-07
1.25075e-07
1.46243e-09
3.81773e-07
1.51048e-07
1.9996e-09
4.15234e-07
1.81303e-07
2.71012e-09
4.44635e-07
2.16306e-07
3.62006e-09
4.67439e-07
2.56155e-07
4.72711e-09
4.80848e-07
3.00222e-07
5.97068e-09
4.8325e-07
3.46507e-07
7.20485e-09
4.76822e-07
3.89958e-07
8.2017e-09
4.34849e-07
9.08081e-09
8.89351e-08
1.08127e-08
7.86515e-11
1.71255e-07
3.20175e-08
2.38478e-10
2.46353e-07
5.26378e-08
4.11008e-10
3.16242e-07
7.34721e-08
6.14615e-10
3.82549e-07
9.55521e-08
8.72032e-10
4.46518e-07
1.19835e-07
1.21035e-09
5.08974e-07
1.47246e-07
1.66299e-09
5.70215e-07
1.78689e-07
2.27072e-09
6.29837e-07
2.15033e-07
3.08034e-09
6.86487e-07
2.57021e-07
4.13762e-09
7.376e-07
3.05092e-07
5.47099e-09
7.79297e-07
3.59014e-07
7.06199e-09
8.06869e-07
4.17264e-07
8.80115e-09
8.16671e-07
4.76134e-07
1.04517e-08
8.10437e-07
5.28364e-07
1.16805e-08
5.76249e-07
1.23001e-08
1.22451e-07
1.36817e-08
1.03376e-10
2.3574e-07
4.04947e-08
3.1271e-10
3.39021e-07
6.65135e-08
5.36915e-10
4.35071e-07
9.27109e-08
7.98937e-10
5.26153e-07
1.20345e-07
1.1266e-09
6.14045e-07
1.50561e-07
1.55225e-09
7.00014e-07
1.84441e-07
2.11469e-09
7.8471e-07
2.23009e-07
2.85975e-09
8.67977e-07
2.67205e-07
3.83781e-09
9.48557e-07
3.17778e-07
5.09416e-09
1.02373e-06
3.75045e-07
6.64998e-09
1.08899e-06
4.38454e-07
8.46783e-09
1.13826e-06
5.05818e-07
1.04019e-08
1.16554e-06
5.72311e-07
1.21658e-08
1.16997e-06
6.29501e-07
1.33913e-08
6.77477e-07
1.3928e-08
1.54003e-07
1.59851e-08
1.22075e-10
2.96401e-07
4.72891e-08
3.68254e-10
4.26102e-07
7.75949e-08
6.29361e-10
5.46595e-07
1.07989e-07
9.30705e-10
6.60749e-07
1.39878e-07
1.30228e-09
7.70874e-07
1.74516e-07
1.7778e-09
8.78729e-07
2.13048e-07
2.39627e-09
9.85449e-07
2.56519e-07
3.20197e-09
1.09138e-06
3.05837e-07
4.24092e-09
1.19583e-06
3.61661e-07
5.55045e-09
1.29661e-06
4.24167e-07
7.14071e-09
1.38962e-06
4.9263e-07
8.9624e-09
1.4684e-06
5.64677e-07
1.08596e-08
1.52471e-06
6.3518e-07
1.25467e-08
1.55197e-06
6.95148e-07
1.36713e-08
7.42793e-07
1.42779e-08
1.83135e-07
1.76473e-08
1.3425e-10
3.52355e-07
5.21802e-08
4.03714e-10
5.0631e-07
8.55313e-08
6.86254e-10
6.49121e-07
1.18841e-07
1.00746e-09
7.842e-07
1.53587e-07
1.39684e-09
9.14354e-07
1.91054e-07
1.88621e-09
1.04183e-06
2.32368e-07
2.51072e-09
1.1683e-06
2.78504e-07
3.30835e-09
1.29476e-06
3.30241e-07
4.3157e-09
1.42136e-06
3.88065e-07
5.55841e-09
1.54705e-06
4.51977e-07
7.03529e-09
1.66905e-06
5.21199e-07
8.69487e-09
1.782e-06
5.93622e-07
1.03981e-08
1.87671e-06
6.64859e-07
1.19021e-08
1.93902e-06
7.26611e-07
1.28969e-08
7.76751e-07
1.37426e-08
2.09458e-07
1.86233e-08
1.40085e-10
4.02857e-07
5.50401e-08
4.19793e-10
5.7856e-07
9.01285e-08
7.09271e-10
7.41219e-07
1.25029e-07
1.0327e-09
8.94695e-07
1.61222e-07
1.41707e-09
1.0422e-06
1.99953e-07
1.89002e-09
1.18641e-06
2.42262e-07
2.48047e-09
1.32946e-06
2.88976e-07
3.21735e-09
1.47297e-06
3.40667e-07
4.12563e-09
1.61791e-06
3.97554e-07
5.21804e-09
1.76445e-06
4.59359e-07
6.48274e-09
1.91157e-06
5.25116e-07
7.8695e-09
2.05619e-06
5.92992e-07
9.26724e-09
2.19094e-06
6.59992e-07
1.04989e-08
2.2976e-06
7.21023e-07
1.13391e-08
7.82219e-07
1.26875e-08
2.32657e-07
1.40312e-10
1.88972e-08
4.47303e-07
4.18872e-10
5.58273e-08
6.41988e-07
7.03026e-10
9.13371e-08
8.21767e-07
1.01437e-09
1.26523e-07
9.90826e-07
1.37612e-09
1.62809e-07
1.15267e-06
1.81063e-09
2.01352e-07
1.31025e-06
2.33951e-09
2.43056e-07
1.466e-06
2.98204e-09
2.88556e-07
1.62192e-06
3.75159e-09
3.3816e-07
1.77949e-06
4.64864e-09
3.91744e-07
1.93961e-06
5.65111e-09
4.48591e-07
2.10228e-06
6.70468e-09
5.07177e-07
2.26576e-06
7.70879e-09
5.64978e-07
2.4241e-06
8.51012e-09
6.18071e-07
2.55963e-06
8.90524e-09
6.60232e-07
1.08155e-08
7.25744e-07
1.81815e-08
3.88036e-09
8.50253e-12
3.50212e-08
1.14984e-08
2.58553e-11
5.03973e-08
1.8931e-08
4.47481e-11
6.47203e-08
2.64801e-08
6.72485e-11
7.83189e-08
3.45336e-08
9.59677e-11
9.14365e-08
4.34583e-08
1.3407e-10
1.04218e-07
5.36157e-08
1.85512e-10
1.16681e-07
6.5371e-08
2.55168e-10
1.28676e-07
7.90898e-08
3.48663e-10
1.39831e-07
9.51203e-08
4.71566e-10
1.49517e-07
1.13757e-07
6.27504e-10
1.5687e-07
1.35187e-07
8.14869e-10
1.61001e-07
1.59403e-07
1.02248e-09
1.61544e-07
1.85985e-07
1.22709e-09
1.59464e-07
2.12855e-07
1.39544e-09
2.62479e-07
1.63051e-09
5.42262e-08
7.58424e-09
2.50788e-11
1.04441e-07
2.24678e-08
7.61729e-11
1.50282e-07
3.69707e-08
1.31621e-10