/*--------------------------------*- C++ -*----------------------------------*\
| =========                 |                                                 |
| \\      /  F ield         | foam-extend: Open Source CFD                    |
|  \\    /   O peration     | Version:     3.1                                |
|   \\  /    A nd           | Web:         http://www.extend-project.de       |
|    \\/     M anipulation  |                                                 |
\*---------------------------------------------------------------------------*/
FoamFile
{
    version     2.0;
    format      ascii;
    class       volScalarField;
    location    "2.5";
    object      p;
}
// * * * * * * * * * * * * * * * * * * * * * * * * * * * * * * * * * * * * * //

dimensions      [0 2 -2 0 0 0 0];

internalField   nonuniform List<scalar> 
14592
(
0.0263103
0.0261155
0.0259296
0.0257843
0.0256965
0.0256706
0.0256986
0.0257647
0.0258436
0.0259087
0.0259332
0.0258844
0.0257159
0.0253429
0.0246394
0.0236894
0.0263311
0.0261169
0.0259245
0.0257731
0.0256773
0.0256454
0.0256724
0.0257413
0.025829
0.0259079
0.0259492
0.0259215
0.0257812
0.0254455
0.024735
0.023575
0.0263174
0.0260859
0.0258798
0.0257141
0.0256048
0.0255642
0.0255916
0.0256711
0.0257774
0.0258822
0.0259577
0.0259756
0.0258981
0.0256376
0.0249323
0.0234998
0.0262774
0.0260314
0.025812
0.0256309
0.0255058
0.0254528
0.0254763
0.0255616
0.0256819
0.02581
0.0259183
0.0259817
0.0259694
0.0257984
0.0251557
0.0235631
0.0262131
0.025958
0.025729
0.0255356
0.0253945
0.0253244
0.0253323
0.0254099
0.0255347
0.0256731
0.0257993
0.0258923
0.0259303
0.0258473
0.0253137
0.0236846
0.0261286
0.0258659
0.0256299
0.0254267
0.0252704
0.0251805
0.0251675
0.0252256
0.025333
0.0254584
0.0255761
0.0256663
0.0257186
0.0256941
0.0252912
0.0237287
0.0260252
0.0257567
0.0255146
0.0253019
0.0251302
0.0250178
0.0249767
0.0250025
0.0250747
0.0251616
0.0252353
0.0252736
0.025275
0.0252286
0.0249361
0.0234219
0.0259076
0.0256349
0.0253863
0.0251629
0.0249741
0.0248371
0.0247634
0.0247485
0.0247713
0.0247965
0.0247902
0.0247155
0.0245622
0.0242835
0.0239319
0.021612
0.0265274
0.0263244
0.026137
0.0259984
0.0259266
0.0259288
0.0260004
0.0261265
0.0262856
0.0264552
0.0266148
0.0267447
0.0268207
0.0267971
0.0266395
0.0265459
0.0265509
0.0263267
0.026132
0.0259869
0.0259065
0.025902
0.0259705
0.0261006
0.0262708
0.0264571
0.0266373
0.0267926
0.0268994
0.0269126
0.0267841
0.0268154
0.0265394
0.0262979
0.0260898
0.0259309
0.0258371
0.0258232
0.025893
0.0260348
0.0262272
0.0264454
0.0266696
0.026884
0.027075
0.0271833
0.0271337
0.0272884
0.0264992
0.0262442
0.0260237
0.0258514
0.0257433
0.025718
0.0257837
0.025932
0.026143
0.0263892
0.0266554
0.0269309
0.0272114
0.0274474
0.0275157
0.0278097
0.0264337
0.0261686
0.0259393
0.0257568
0.025635
0.0255939
0.0256462
0.0257874
0.0259989
0.0262595
0.0265495
0.0268657
0.0272165
0.027569
0.0277591
0.0281751
0.0263433
0.0260706
0.0258347
0.0256439
0.0255089
0.025449
0.0254787
0.0255975
0.02579
0.0260335
0.0263122
0.0266255
0.0269941
0.0274124
0.0276879
0.0281842
0.0262306
0.025952
0.0257097
0.0255097
0.0253595
0.0252764
0.025275
0.025356
0.0255052
0.0256988
0.0259194
0.0261631
0.0264569
0.0268247
0.0270681
0.027355
0.0261012
0.0258179
0.0255683
0.0253563
0.0251872
0.0250764
0.0250367
0.0250681
0.0251549
0.0252684
0.0253828
0.0254747
0.0255514
0.0256005
0.0255159
0.0240018
0.0267385
0.0265295
0.0263431
0.0262135
0.0261601
0.0261918
0.0263071
0.0264928
0.0267296
0.0269971
0.0272783
0.0275587
0.0278231
0.0280411
0.0281928
0.0283501
0.0267643
0.026533
0.0263383
0.0262019
0.0261396
0.0261631
0.0262752
0.0264659
0.0267158
0.0270029
0.0273082
0.0276146
0.0279104
0.0281639
0.0283602
0.028667
0.0267561
0.0265066
0.0262987
0.0261493
0.0260732
0.026089
0.0262024
0.0264065
0.0266822
0.0270071
0.0273639
0.0277431
0.0281303
0.0284793
0.0287828
0.0292716
0.026717
0.026454
0.0262344
0.0260734
0.0259852
0.0259918
0.0261013
0.0263136
0.0266106
0.0269698
0.0273765
0.0278248
0.0283134
0.0287992
0.0292398
0.0299158
0.0266492
0.0263763
0.0261486
0.0259794
0.0258799
0.0258704
0.0259704
0.0261766
0.0264764
0.0268504
0.0272853
0.0277808
0.0283479
0.0289512
0.0295076
0.0303214
0.0265533
0.0262729
0.0260387
0.0258623
0.0257515
0.0257253
0.0258014
0.0259834
0.026261
0.0266158
0.0270367
0.0275272
0.028109
0.0287632
0.0293583
0.0302143
0.026432
0.0261455
0.0259044
0.0257188
0.0255929
0.0255429
0.0255853
0.0257246
0.0259514
0.0262464
0.0265967
0.0270018
0.0274875
0.0280519
0.0285008
0.0289939
0.0262911
0.0259995
0.0257503
0.0255512
0.0254045
0.0253237
0.0253227
0.0254041
0.0255563
0.0257543
0.0259754
0.0261976
0.0264221
0.0266047
0.0265472
0.0248185
0.0269339
0.0267202
0.0265361
0.0264166
0.0263818
0.0264422
0.0265986
0.0268395
0.0271465
0.0274997
0.0278824
0.0282812
0.0286805
0.0290542
0.0293745
0.029619
0.0269621
0.026725
0.0265317
0.0264052
0.026362
0.0264123
0.0265655
0.0268121
0.0271339
0.0275093
0.0279191
0.0283472
0.0287763
0.0291818
0.0295473
0.029926
0.0269564
0.0267009
0.0264946
0.0263556
0.0262973
0.0263425
0.026498
0.02676
0.027111
0.027529
0.0279953
0.0284981
0.029023
0.0295195
0.0299914
0.0305454
0.0269183
0.0266493
0.0264319
0.026283
0.0262148
0.0262514
0.0264054
0.0266778
0.0270531
0.0275104
0.0280327
0.028611
0.0292383
0.0298658
0.0304699
0.0312194
0.0268487
0.02657
0.026345
0.0261894
0.0261128
0.0261369
0.0262812
0.0265487
0.0269281
0.0274014
0.0279547
0.0285833
0.0292893
0.0300249
0.0307264
0.031598
0.026748
0.0264618
0.0262303
0.0260684
0.0259819
0.0259897
0.0261108
0.0263526
0.0267082
0.0271601
0.0276966
0.0283166
0.0290311
0.029799
0.0304994
0.0313771
0.026619
0.0263265
0.0260876
0.0259161
0.0258144
0.0257977
0.0258834
0.0260786
0.026377
0.0267604
0.0272157
0.0277373
0.0283384
0.0289846
0.029464
0.0298902
0.0264676
0.0261697
0.0259217
0.0257354
0.025611
0.0255604
0.0255982
0.0257284
0.0259415
0.0262136
0.0265212
0.0268364
0.0271462
0.02737
0.0272422
0.0252196
0.0271037
0.0268866
0.0267052
0.0265952
0.0265772
0.0266635
0.0268561
0.0271446
0.0275106
0.0279336
0.0283956
0.0288814
0.0293718
0.0298391
0.0302463
0.0305226
0.027134
0.0268927
0.0267013
0.0265841
0.0265566
0.0266329
0.0268222
0.0271169
0.027499
0.0279463
0.0284376
0.0289547
0.0294741
0.0299695
0.0304189
0.0308172
0.0271305
0.0268705
0.0266664
0.0265377
0.0264982
0.0265675
0.0267597
0.0270715
0.0274858
0.0279795
0.0285301
0.0291237
0.0297381
0.0303193
0.0308655
0.031431
0.0270931
0.0268198
0.0266052
0.0264676
0.0264177
0.026482
0.0266749
0.0269992
0.0274405
0.0279772
0.0285896
0.0292594
0.0299736
0.0306749
0.0313406
0.0320883
0.0270222
0.0267393
0.0265172
0.0263744
0.0263186
0.0263723
0.0265565
0.0268773
0.0273234
0.0278774
0.0285213
0.0292428
0.0300326
0.0308301
0.0315753
0.0324337
0.0269175
0.0266271
0.0263985
0.0262498
0.0261853
0.0262235
0.0263848
0.0266785
0.0271004
0.0276308
0.0282551
0.0289642
0.0297558
0.0305696
0.0312844
0.0321239
0.0267818
0.026485
0.0262485
0.0260898
0.0260099
0.0260231
0.0261476
0.0263919
0.026751
0.0272062
0.0277408
0.0283414
0.0290068
0.0296766
0.0301228
0.0304557
0.0266213
0.0263188
0.0260726
0.0258977
0.0257933
0.0257702
0.0258429
0.0260164
0.0262817
0.0266141
0.0269868
0.0273644
0.0277189
0.0279405
0.027721
0.0254553
0.0272393
0.0270197
0.0268412
0.0267393
0.0267353
0.0268426
0.0270641
0.0273901
0.0278018
0.0282774
0.028797
0.0293423
0.0298906
0.0304109
0.0308616
0.0311483
0.0272714
0.0270272
0.0268377
0.0267284
0.0267142
0.0268116
0.0270297
0.0273623
0.0277911
0.0282926
0.0288432
0.0294208
0.0299972
0.0305418
0.0310329
0.0314341
0.0272695
0.0270065
0.0268046
0.0266846
0.026659
0.0267496
0.0269714
0.0273225
0.0277858
0.0283366
0.0289498
0.0296041
0.0302741
0.0309021
0.0314768
0.0320387
0.0272328
0.0269566
0.0267446
0.0266169
0.0265834
0.0266692
0.026893
0.0272584
0.0277505
0.0283467
0.0290224
0.0297552
0.0305213
0.031258
0.0319414
0.0326717
0.0271608
0.0268751
0.0266559
0.0265236
0.0264851
0.0265627
0.0267794
0.0271432
0.02764
0.0282543
0.0289627
0.0297456
0.0305832
0.0314058
0.0321549
0.0329886
0.027053
0.0267599
0.0265339
0.0263961
0.0263496
0.0264127
0.0266062
0.0269404
0.0274145
0.0280038
0.0286902
0.0294573
0.030291
0.031118
0.0318169
0.0326152
0.0269121
0.0266124
0.0263782
0.0262299
0.0261677
0.0262054
0.0263613
0.0266447
0.0270513
0.02756
0.0281506
0.028802
0.0295006
0.0301688
0.0305694
0.0308261
0.0267444
0.0264388
0.0261942
0.0260287
0.0259406
0.02594
0.0260412
0.0262495
0.0265556
0.0269332
0.0273519
0.0277689
0.028144
0.028348
0.028048
0.0256047
0.0273338
0.027113
0.0269369
0.0268412
0.0268473
0.0269695
0.0272114
0.0275634
0.0280063
0.0285171
0.0290741
0.0296564
0.0302383
0.0307865
0.0312573
0.031546
0.0273672
0.0271217
0.026934
0.026831
0.0268269
0.0269393
0.027178
0.0275371
0.0279981
0.028536
0.0291253
0.0297407
0.0303502
0.030919
0.0314301
0.0318279
0.0273664
0.027102
0.0269021
0.0267888
0.026774
0.0268802
0.0271232
0.027502
0.0279992
0.0285885
0.0292423
0.0299349
0.0306374
0.0312905
0.0318723
0.0324245
0.0273301
0.0270525
0.0268428
0.0267225
0.026701
0.0268029
0.0270491
0.0274437
0.027971
0.0286073
0.0293247
0.0300962
0.0308915
0.0316439
0.0323283
0.0330411
0.0272573
0.0269703
0.0267533
0.026629
0.0266031
0.0266982
0.0269384
0.0273327
0.0278647
0.0285198
0.0292702
0.0300907
0.0309543
0.0317851
0.0325263
0.0333372
0.0271474
0.0268529
0.026629
0.0264992
0.0264658
0.0265468
0.0267636
0.0271266
0.0276372
0.0282664
0.0289932
0.0297955
0.0306512
0.0314787
0.0321575
0.032923
0.0270028
0.0267017
0.0264694
0.0263286
0.0262792
0.0263345
0.0265129
0.0268242
0.0272641
0.0278094
0.0284363
0.0291182
0.0298331
0.030493
0.0308559
0.0310583
0.02683
0.0265228
0.0262797
0.026121
0.0260447
0.0260602
0.026182
0.0264152
0.0267502
0.0271589
0.0276076
0.028048
0.0284318
0.0286178
0.0282587
0.0256991
0.027381
0.0271593
0.0269837
0.0268905
0.0269011
0.0270301
0.0272815
0.0276458
0.0281035
0.028631
0.0292053
0.0298043
0.0304006
0.0309606
0.0314397
0.0317312
0.0274146
0.0271678
0.0269802
0.0268793
0.0268793
0.0269983
0.0272462
0.0276176
0.0280935
0.0286485
0.0292555
0.0298876
0.0305105
0.0310908
0.0316108
0.03201
0.0274146
0.0271489
0.026949
0.0268378
0.0268272
0.0269399
0.0271922
0.0275833
0.0280958
0.0287027
0.0293748
0.0300843
0.0308009
0.0314628
0.032049
0.0325992
0.0273786
0.0270999
0.0268903
0.0267726
0.0267559
0.0268646
0.0271203
0.0275275
0.0280706
0.0287251
0.0294611
0.0302493
0.0310562
0.0318138
0.0325
0.0332068
0.0273055
0.0270176
0.0268009
0.0266795
0.0266589
0.0267615
0.0270117
0.027419
0.0279667
0.02864
0.0294088
0.0302454
0.0311187
0.031951
0.0326905
0.033492
0.0271946
0.0268992
0.0266757
0.0265489
0.0265211
0.0266099
0.0268367
0.0272124
0.0277387
0.0283854
0.0291297
0.0299467
0.0308101
0.0316351
0.032307
0.0330588
0.0270482
0.0267463
0.0265142
0.0263764
0.0263326
0.0263956
0.0265838
0.0269071
0.0273614
0.0279224
0.0285648
0.0292591
0.0299788
0.0306311
0.0309767
0.0311498
0.026873
0.0265649
0.0263218
0.0261657
0.0260946
0.0261173
0.026248
0.0264919
0.0268392
0.0272611
0.0277223
0.028172
0.028557
0.0287302
0.0283279
0.0257098
0.0253186
0.025269
0.0252022
0.0251308
0.0250566
0.0249707
0.0248575
0.024697
0.0244661
0.0241399
0.0236928
0.0230988
0.0223324
0.021374
0.0202105
0.0188618
0.025325
0.0252741
0.0252096
0.0251414
0.0250702
0.0249888
0.0248801
0.0247239
0.024497
0.0241744
0.0237305
0.0231396
0.022376
0.0214209
0.0202577
0.0189092
0.0253152
0.0252582
0.0251926
0.025128
0.0250653
0.0249934
0.0248959
0.0247512
0.0245347
0.0242214
0.0237861
0.0232041
0.0224505
0.0215091
0.0203588
0.0190268
0.0252887
0.0252216
0.0251488
0.0250822
0.0250232
0.0249608
0.024876
0.0247444
0.0245406
0.0242384
0.0238128
0.0232405
0.0224977
0.0215711
0.0204367
0.0191246
0.0252486
0.0251702
0.0250863
0.0250121
0.0249511
0.0248926
0.0248161
0.0246954
0.0245024
0.0242101
0.0237932
0.0232293
0.0224957
0.0215822
0.0204638
0.0191738
0.0251977
0.0251096
0.0250138
0.0249292
0.0248619
0.024802
0.0247285
0.0246136
0.0244274
0.0241416
0.0237306
0.0231729
0.0224471
0.0215456
0.0204445
0.019178
0.025139
0.0250437
0.0249379
0.0248433
0.0247679
0.0247031
0.0246277
0.0245131
0.0243284
0.0240445
0.0236357
0.0230815
0.0223622
0.0214724
0.0203916
0.0191532
0.0250757
0.0249761
0.0248636
0.0247612
0.0246784
0.024607
0.0245262
0.0244073
0.024219
0.0239321
0.0235216
0.0229681
0.0222541
0.0213763
0.0203191
0.0191136
0.0253346
0.0252671
0.0251867
0.0251051
0.025024
0.0249346
0.0248204
0.0246607
0.0244313
0.0241067
0.0236602
0.023065
0.0222944
0.0213284
0.020151
0.0187865
0.0253405
0.0252679
0.0251863
0.0251037
0.0250221
0.0249331
0.0248206
0.024663
0.024436
0.0241133
0.0236683
0.0230744
0.0223046
0.021341
0.0201641
0.0188043
0.0253297
0.0252477
0.0251609
0.0250765
0.0249975
0.024915
0.0248113
0.0246637
0.0244464
0.0241324
0.0236957
0.02311
0.0223489
0.0213979
0.0202314
0.0188896
0.0253043
0.0252103
0.0251136
0.0250233
0.0249441
0.0248669
0.0247731
0.0246376
0.0244326
0.0241304
0.0237031
0.0231273
0.0223765
0.0214403
0.0202892
0.0189653
0.0252663
0.0251612
0.0250525
0.0249524
0.0248679
0.0247916
0.0247037
0.0245775
0.024383
0.0240908
0.0236731
0.0231066
0.0223656
0.021443
0.0203067
0.0190046
0.0252174
0.0251034
0.0249834
0.0248721
0.0247794
0.0246994
0.0246126
0.0244911
0.0243031
0.0240177
0.023607
0.0230479
0.0223159
0.0214067
0.0202891
0.0190123
0.0251598
0.0250398
0.0249108
0.0247896
0.024688
0.0246017
0.024512
0.0243901
0.0242036
0.0239207
0.0235131
0.0229588
0.0222351
0.0213396
0.0202451
0.0189989
0.0250966
0.0249733
0.0248387
0.0247103
0.0246011
0.024508
0.0244125
0.0242862
0.0240963
0.023811
0.0234027
0.0228506
0.0221342
0.0212529
0.0201856
0.0189752
0.0253814
0.0252908
0.0251902
0.0250935
0.0250036
0.0249117
0.0248013
0.0246498
0.0244318
0.0241197
0.0236841
0.0230944
0.0223177
0.0213257
0.0200897
0.0186335
0.0253879
0.0252898
0.0251866
0.0250869
0.0249946
0.024902
0.0247923
0.024643
0.0244276
0.024118
0.0236847
0.0230969
0.0223216
0.0213333
0.0200979
0.0186507
0.0253743
0.0252643
0.0251525
0.0250472
0.0249542
0.024866
0.0247647
0.0246258
0.0244213
0.0241219
0.0236978
0.0231196
0.0223538
0.0213792
0.0201523
0.0187225
0.0253463
0.0252227
0.025098
0.0249827
0.0248855
0.0248
0.0247072
0.0245803
0.0243888
0.0241019
0.0236888
0.0231212
0.0223657
0.0214053
0.0201887
0.0187766
0.0253069
0.0251717
0.0250333
0.0249048
0.0247986
0.0247105
0.0246217
0.0245034
0.0243228
0.0240469
0.023644
0.0230865
0.0223409
0.0213943
0.0201915
0.018801
0.025257
0.0251132
0.0249629
0.024821
0.0247034
0.0246085
0.0245184
0.0244037
0.0242294
0.0239607
0.0235653
0.0230157
0.0222796
0.0213477
0.0201651
0.0188039
0.0251981
0.0250487
0.0248896
0.0247367
0.024608
0.0245045
0.0244094
0.0242931
0.0241197
0.0238533
0.0234611
0.0229166
0.0221895
0.0212733
0.0201186
0.0187956
0.0251329
0.0249806
0.0248162
0.0246558
0.0245187
0.0244069
0.0243049
0.0241831
0.0240055
0.0237362
0.0233428
0.0228003
0.0220814
0.021182
0.0200621
0.0187855
0.0254624
0.0253483
0.0252261
0.0251134
0.0250151
0.0249234
0.0248213
0.0246859
0.0244896
0.024202
0.0237903
0.0232169
0.0224375
0.0214058
0.0200668
0.0184298
0.0254705
0.0253472
0.025222
0.0251057
0.0250044
0.0249115
0.0248106
0.0246776
0.0244848
0.0242008
0.0237933
0.0232239
0.0224481
0.0214227
0.0200844
0.0184592
0.0254542
0.0253172
0.0251813
0.0250566
0.024952
0.0248618
0.0247687
0.024647
0.0244666
0.0241955
0.0237983
0.0232399
0.0224752
0.0214644
0.0201297
0.0185147
0.0254221
0.0252706
0.0251195
0.0249813
0.0248689
0.0247787
0.0246926
0.0245827
0.0244159
0.0241579
0.0237733
0.0232265
0.0224719
0.0214733
0.0201419
0.0185376
0.0253786
0.0252154
0.0250495
0.0248952
0.02477
0.0246736
0.0245889
0.0244864
0.0243302
0.0240835
0.0237095
0.0231726
0.0224273
0.0214413
0.0201202
0.0185372
0.0253248
0.0251532
0.0249752
0.0248057
0.0246657
0.0245589
0.0244699
0.0243687
0.0242177
0.0239775
0.0236104
0.0230807
0.0223445
0.0213735
0.0200743
0.0185288
0.0252618
0.0250848
0.0248982
0.0247166
0.0245633
0.0244448
0.0243477
0.0242425
0.0240905
0.023851
0.0234856
0.0229596
0.0222317
0.0212786
0.0200144
0.0185232
0.0251921
0.0250123
0.0248206
0.0246309
0.0244676
0.024339
0.0242327
0.0241197
0.0239612
0.0237165
0.0233476
0.0228213
0.0221006
0.0211672
0.0199492
0.0185274
0.0255772
0.0254412
0.0252986
0.025171
0.0250659
0.0249772
0.0248885
0.0247756
0.0246114
0.0243616
0.023989
0.0234478
0.022678
0.021603
0.0201234
0.0182007
0.0255875
0.0254402
0.0252943
0.0251626
0.0250535
0.0249628
0.0248749
0.0247662
0.0246056
0.024361
0.0239941
0.0234585
0.0226942
0.0216274
0.0201493
0.0182357
0.0255696
0.0254073
0.0252489
0.0251063
0.0249911
0.0249007
0.0248192
0.024721
0.0245738
0.0243427
0.0239886
0.0234655
0.0227126
0.0216558
0.02017
0.0182386
0.0255337
0.0253566
0.025182
0.0250232
0.0248965
0.0248024
0.0247254
0.0246376
0.0245041
0.0242869
0.0239458
0.0234341
0.0226898
0.0216384
0.0201439
0.0182021
0.0254854
0.025297
0.0251076
0.0249311
0.0247882
0.024684
0.0246046
0.0245215
0.0243972
0.0241906
0.0238595
0.0233564
0.0226195
0.0215759
0.0200862
0.018161
0.0254259
0.0252296
0.0250289
0.0248365
0.0246764
0.0245579
0.0244701
0.0243847
0.0242627
0.0240605
0.0237343
0.0232362
0.0225067
0.0214772
0.0200124
0.0181381
0.0253567
0.0251553
0.0249467
0.0247418
0.0245666
0.0244332
0.0243335
0.02424
0.0241133
0.0239082
0.0235803
0.0230825
0.0223595
0.0213503
0.0199313
0.0181429
0.0252805
0.0250761
0.0248625
0.0246491
0.0244625
0.0243165
0.0242042
0.0240992
0.023962
0.0237473
0.0234111
0.0229083
0.0221896
0.021204
0.0198479
0.0181753
0.0257242
0.0255691
0.0254093
0.02527
0.0251615
0.0250799
0.0250104
0.0249294
0.0248076
0.0246105
0.0242973
0.0238136
0.0230803
0.0219763
0.0203258
0.0179842
0.0257372
0.0255686
0.0254047
0.0252607
0.0251472
0.0250625
0.0249931
0.0249153
0.0247989
0.0246088
0.024303
0.0238265
0.0230986
0.0219959
0.0203287
0.0179387
0.0257189
0.0255344
0.0253571
0.0252002
0.0250776
0.0249904
0.0249254
0.0248578
0.0247549
0.0245794
0.0242885
0.0238254
0.0231064
0.0219962
0.0202827
0.017777
0.0256803
0.0254811
0.0252876
0.025113
0.0249759
0.0248814
0.0248175
0.0247583
0.0246684
0.0245073
0.0242302
0.0237781
0.0230644
0.0219421
0.0201896
0.0175948
0.0256274
0.0254173
0.0252101
0.0250176
0.0248623
0.0247539
0.0246836
0.0246256
0.0245424
0.0243904
0.0241224
0.0236774
0.0229685
0.0218429
0.0200826
0.0174659
0.0255616
0.025344
0.0251268
0.0249191
0.0247453
0.0246194
0.0245362
0.0244711
0.0243861
0.0242349
0.0239687
0.0235253
0.0228214
0.0217062
0.0199761
0.0174147
0.0254848
0.0252621
0.0250379
0.0248183
0.0246284
0.0244848
0.0243851
0.0243066
0.0242112
0.0240514
0.0237776
0.0233282
0.0226274
0.0215347
0.0198728
0.0174497
0.0253999
0.0251743
0.024945
0.0247166
0.024514
0.0243549
0.0242385
0.0241432
0.0240311
0.0238542
0.0235635
0.0230994
0.0223964
0.0213329
0.0197724
0.0175755
0.0258995
0.0257286
0.0255559
0.0254096
0.0253025
0.0252337
0.0251901
0.0251496
0.0250832
0.0249571
0.02473
0.0243438
0.0237043
0.0226387
0.0208372
0.0179099
0.0259158
0.0257286
0.0255511
0.0253995
0.0252864
0.0252132
0.025169
0.0251317
0.0250717
0.0249542
0.0247367
0.02436
0.0237254
0.022644
0.0207423
0.0175266
0.025898
0.0256946
0.0255032
0.0253375
0.025213
0.0251347
0.0250929
0.0250651
0.0250193
0.0249188
0.0247198
0.0243609
0.0237369
0.0226265
0.0205878
0.0169689
0.025858
0.0256401
0.0254331
0.0252496
0.0251089
0.0250202
0.0249764
0.024955
0.024922
0.0248371
0.024655
0.0243115
0.0236957
0.0225586
0.0204226
0.016492
0.025801
0.0255725
0.0253534
0.0251532
0.0249937
0.0248887
0.0248349
0.024811
0.0247822
0.0247054
0.024533
0.0241985
0.0235904
0.0224442
0.0202804
0.0161921
0.0257289
0.025493
0.0252652
0.0250514
0.0248736
0.024749
0.0246783
0.0246425
0.0246067
0.0245262
0.024352
0.0240161
0.0234128
0.0222752
0.0201532
0.0160672
0.0256433
0.0254025
0.0251683
0.0249436
0.0247495
0.024605
0.0245134
0.0244579
0.0244046
0.0243072
0.0241163
0.0237638
0.023156
0.0220379
0.0200256
0.0161186
0.0255484
0.0253044
0.025065
0.024831
0.0246229
0.02446
0.0243468
0.0242676
0.0241887
0.0240629
0.0238405
0.023453
0.0228222
0.0217187
0.0198873
0.0164092
0.0260976
0.0259136
0.0257323
0.0255841
0.0254841
0.025434
0.0254235
0.0254322
0.0254339
0.0253971
0.0252857
0.025049
0.0246025
0.0237687
0.0221501
0.0189384
0.0261164
0.0259142
0.0257273
0.0255734
0.0254663
0.0254108
0.0253994
0.0254119
0.0254206
0.0253945
0.0252961
0.0250745
0.0246413
0.0238016
0.0220219
0.0181421
0.0261003
0.0258814
0.0256806
0.0255121
0.0253922
0.0253296
0.025319
0.025341
0.0253655
0.0253602
0.0252871
0.0250953
0.024693
0.0238508
0.0218935
0.0172624
0.0260599
0.0258266
0.0256113
0.0254259
0.0252894
0.0252146
0.0251994
0.0252261
0.0252651
0.0252787
0.0252291
0.0250655
0.0246941
0.0238609
0.0218059
0.016622
0.0259995
0.0257558
0.0255298
0.0253298
0.0251754
0.0250833
0.0250557
0.0250774
0.0251186
0.0251404
0.0251037
0.0249576
0.0246111
0.0238018
0.0217448
0.0162598
0.02592
0.0256699
0.0254363
0.0252246
0.0250532
0.0249408
0.0248935
0.0248989
0.0249279
0.0249413
0.0248992
0.0247506
0.0244132
0.0236301
0.0216505
0.0160945
0.0258261
0.0255703
0.0253305
0.0251088
0.0249214
0.0247876
0.0247154
0.0246947
0.0246976
0.0246838
0.0246125
0.0244313
0.0240714
0.0232919
0.0214557
0.0160419
0.0257203
0.0254606
0.0252152
0.0249836
0.0247808
0.0246255
0.0245264
0.0244738
0.0244399
0.0243824
0.0242576
0.0240067
0.0235706
0.0227122
0.0210613
0.0160297
0.0257829
0.0255074
0.0252521
0.0250161
0.024809
0.024647
0.0245401
0.0244821
0.0244489
0.0244001
0.0242929
0.0240667
0.023668
0.0228579
0.0213152
0.0164053
0.0256598
0.0253833
0.0251215
0.0248726
0.0246479
0.0244637
0.0243276
0.0242303
0.0241441
0.0240243
0.0238208
0.0234607
0.0228658
0.0217996
0.0199927
0.0165359
0.0255477
0.0252722
0.0250054
0.0247457
0.0245079
0.0243079
0.0241506
0.024023
0.0238938
0.0237168
0.02344
0.0229984
0.0223178
0.0212756
0.0196956
0.0175279
0.0254541
0.0251832
0.0249147
0.0246501
0.0244069
0.0242003
0.0240315
0.0238835
0.0237225
0.023504
0.0231786
0.0226966
0.0219959
0.021032
0.0196658
0.0180182
0.0253856
0.0251227
0.0248582
0.0245973
0.0243585
0.0241543
0.0239815
0.0238201
0.0236356
0.0233866
0.0230287
0.022525
0.0218256
0.0209194
0.0197096
0.0183089
0.0253429
0.0250924
0.024839
0.0245909
0.0243646
0.0241683
0.0239952
0.0238237
0.0236205
0.023348
0.0229674
0.0224496
0.0217563
0.0208878
0.0197885
0.0185343
0.0253182
0.0250857
0.0248484
0.024618
0.0244089
0.0242248
0.024056
0.0238801
0.023666
0.0233792
0.0229859
0.0224606
0.0217733
0.020925
0.0198843
0.0186979
0.0252949
0.0250845
0.0248594
0.0246433
0.0244503
0.0242813
0.0241242
0.0239553
0.0237441
0.0234578
0.023065
0.0225407
0.021859
0.0210159
0.0199877
0.0188067
0.0259627
0.0256761
0.0254185
0.0251915
0.0250002
0.0248587
0.024778
0.0247551
0.0247704
0.0247875
0.0247675
0.0246535
0.0243885
0.0237139
0.0220951
0.0166321
0.025825
0.0255368
0.0252711
0.0250277
0.0248135
0.0246426
0.0245237
0.0244502
0.0243972
0.0243218
0.0241737
0.0238753
0.0233344
0.0222669
0.020286
0.016274
0.0256988
0.0254111
0.0251387
0.0248805
0.0246468
0.0244525
0.024304
0.0241905
0.0240825
0.0239337
0.0236896
0.0232778
0.0226115
0.0215372
0.019834
0.0174016
0.025593
0.0253092
0.0250334
0.0247658
0.0245208
0.0243136
0.0241473
0.0240069
0.0238597
0.0236597
0.0233541
0.0228872
0.0221873
0.0211978
0.01975
0.0179745
0.0255139
0.0252382
0.0249647
0.0246971
0.0244521
0.0242432
0.0240697
0.0239131
0.0237389
0.0235038
0.0231596
0.0226651
0.0219624
0.0210371
0.0197693
0.0182909
0.025464
0.0252003
0.0249365
0.0246795
0.024445
0.024243
0.024069
0.023902
0.0237082
0.0234476
0.0230777
0.0225665
0.021869
0.0209855
0.019845
0.0185378
0.0254341
0.0251888
0.0249407
0.0247013
0.0244846
0.0242962
0.024128
0.0239579
0.0237534
0.0234781
0.0230946
0.022575
0.0218842
0.0210234
0.0199516
0.0187237
0.0254083
0.0251869
0.0249521
0.0247274
0.0245283
0.024357
0.0242024
0.0240409
0.0238405
0.0235663
0.023184
0.022666
0.0219822
0.021128
0.0200721
0.0188515
0.0261391
0.0258437
0.0255852
0.0253686
0.0251959
0.0250791
0.0250293
0.0250456
0.0251112
0.0251919
0.0252495
0.0252235
0.025043
0.0244072
0.0226664
0.0167066
0.025987
0.0256893
0.0254214
0.0251852
0.0249844
0.024831
0.024734
0.0246882
0.0246705
0.0246384
0.0245399
0.0242903
0.0237813
0.0226864
0.0205501
0.0161409
0.0258468
0.025549
0.0252729
0.0250181
0.024792
0.0246077
0.0244723
0.0243762
0.0242911
0.0241699
0.0239552
0.0235669
0.0229057
0.0217922
0.0199749
0.0173248
0.0257285
0.0254341
0.025153
0.0248851
0.024642
0.0244381
0.0242778
0.0241476
0.0240153
0.0238334
0.0235455
0.0230903
0.022387
0.0213681
0.0198428
0.0179511
0.0256389
0.0253525
0.0250723
0.0248011
0.0245534
0.0243433
0.0241718
0.0240216
0.0238584
0.0236366
0.0233046
0.0228174
0.0221095
0.0211636
0.0198414
0.0182911
0.0255816
0.025307
0.0250354
0.0247724
0.024533
0.0243281
0.0241549
0.0239935
0.0238092
0.0235601
0.0232001
0.0226944
0.0219919
0.0210928
0.0199137
0.0185567
0.0255468
0.025291
0.0250348
0.0247889
0.0245673
0.0243768
0.0242106
0.0240469
0.0238522
0.0235879
0.0232136
0.022699
0.0220042
0.0211307
0.0200295
0.0187619
0.0255187
0.0252885
0.0250463
0.0248158
0.024613
0.0244413
0.0242905
0.024137
0.0239476
0.0236851
0.0233126
0.0228001
0.0221136
0.0212482
0.0201659
0.0189075
0.0263031
0.0260008
0.0257424
0.0255364
0.0253825
0.0252909
0.0252729
0.0253283
0.0254415
0.0255786
0.0256991
0.0257356
0.0256009
0.0249558
0.0230735
0.0166916
0.0261375
0.0258324
0.0255633
0.0253348
0.0251482
0.0250137
0.0249401
0.0249226
0.0249389
0.0249456
0.0248878
0.0246724
0.0241767
0.0230404
0.020763
0.0160484
0.025984
0.0256783
0.0253996
0.0251494
0.0249322
0.0247599
0.0246395
0.0245621
0.0244995
0.0244035
0.0242129
0.0238406
0.0231765
0.0220208
0.0201016
0.0172779
0.025854
0.025551
0.0252661
0.0249996
0.0247603
0.024562
0.0244099
0.0242912
0.0241737
0.0240083
0.0237352
0.0232878
0.0225774
0.021528
0.0199332
0.017943
0.0257545
0.0254595
0.0251744
0.0249015
0.0246536
0.0244446
0.0242769
0.0241342
0.0239817
0.0237723
0.0234507
0.0229684
0.0222539
0.0212871
0.0199163
0.0183034
0.0256902
0.0254068
0.0251294
0.0248628
0.0246207
0.0244149
0.024244
0.0240888
0.0239138
0.0236753
0.023324
0.0228224
0.0221145
0.0212002
0.0199864
0.0185851
0.0256509
0.0253866
0.0251243
0.0248742
0.0246498
0.0244589
0.0242956
0.0241386
0.0239534
0.0236993
0.0233333
0.0228226
0.0221237
0.021238
0.02011
0.0188066
0.0256208
0.0253834
0.0251359
0.0249018
0.0246972
0.0245265
0.0243803
0.0242349
0.024056
0.0238044
0.0234407
0.0229328
0.0222433
0.0213669
0.0202602
0.0189676
0.0264459
0.0261386
0.0258809
0.0256844
0.0255476
0.0254792
0.0254903
0.0255808
0.0257353
0.0259185
0.0260867
0.0261644
0.0260499
0.0253737
0.0233593
0.0166402
0.0262686
0.0259579
0.0256883
0.025467
0.0252935
0.0251768
0.0251252
0.0251338
0.02518
0.0252189
0.025192
0.0249984
0.0245031
0.0233208
0.0209228
0.0159741
0.0261035
0.0257916
0.0255113
0.0252657
0.0250574
0.024897
0.0247913
0.0247315
0.0246892
0.0246141
0.0244421
0.0240792
0.0234069
0.0222104
0.0202054
0.0172483
0.0259631
0.0256535
0.025366
0.0251014
0.0248667
0.0246748
0.0245313
0.0244239
0.0243198
0.0241684
0.0239067
0.0234635
0.0227441
0.021666
0.0200126
0.0179437
0.0258549
0.0255531
0.0252645
0.0249913
0.0247444
0.0245378
0.0243747
0.0242394
0.0240967
0.0238978
0.0235846
0.0231053
0.0223835
0.0213973
0.0199856
0.018321
0.0257843
0.0254941
0.0252126
0.0249438
0.0247007
0.0244954
0.0243274
0.0241782
0.0240117
0.0237823
0.0234382
0.0229396
0.0222263
0.0212981
0.020055
0.0186164
0.0257412
0.0254704
0.0252037
0.0249509
0.0247251
0.0245348
0.0243749
0.0242243
0.0240475
0.0238024
0.0234434
0.0229358
0.0222328
0.0213361
0.0201851
0.0188513
0.0257094
0.0254666
0.0252154
0.0249791
0.024774
0.0246051
0.0244636
0.0243258
0.0241562
0.0239142
0.0235579
0.0230536
0.022361
0.0214745
0.0203468
0.0190249
0.0265603
0.0262495
0.0259927
0.025804
0.0256811
0.0256319
0.025667
0.0257861
0.0259731
0.0261912
0.0263931
0.0264961
0.0263874
0.0256763
0.0235561
0.0165894
0.0263734
0.0260589
0.0257892
0.0255739
0.0254115
0.0253097
0.0252764
0.0253065
0.0253768
0.0254402
0.0254352
0.0252541
0.0247531
0.0235287
0.0210372
0.0159192
0.0261991
0.0258828
0.0256016
0.02536
0.0251593
0.0250092
0.0249162
0.0248713
0.0248455
0.0247867
0.0246277
0.0242694
0.0235871
0.0223556
0.0202845
0.0172312
0.0260503
0.0257359
0.0254467
0.0251841
0.0249538
0.0247679
0.0246322
0.0245345
0.0244415
0.024301
0.0240475
0.0236061
0.0228776
0.0217755
0.0200767
0.0179497
0.025935
0.0256284
0.0253375
0.0250645
0.0248191
0.0246153
0.0244567
0.0243279
0.0241934
0.0240028
0.0236957
0.0232181
0.0224895
0.0214872
0.0200436
0.0183396
0.0258595
0.0255643
0.02528
0.0250102
0.0247669
0.0245626
0.0243977
0.0242537
0.0240942
0.0238722
0.0235336
0.023037
0.0223188
0.0213792
0.020113
0.0186454
0.0258134
0.0255377
0.0252681
0.0250137
0.0247875
0.0245982
0.0244416
0.0242964
0.0241267
0.0238888
0.0235352
0.0230299
0.0223234
0.0214175
0.0202484
0.0188905
0.0257801
0.0255334
0.0252797
0.0250423
0.0248374
0.0246706
0.0245334
0.0244019
0.0242401
0.0240058
0.0236553
0.0231536
0.0224581
0.0215632
0.0204188
0.0190737
0.0266399
0.0263272
0.0260713
0.0258883
0.0257755
0.0257403
0.0257928
0.0259326
0.026143
0.0263854
0.0266095
0.0267277
0.0266194
0.0258813
0.0236895
0.0165635
0.0264465
0.0261296
0.0258603
0.0256494
0.025495
0.0254042
0.0253847
0.0254308
0.0255185
0.0255994
0.025609
0.0254352
0.0249279
0.0236722
0.0211164
0.0158885
0.0262656
0.0259467
0.0256652
0.0254267
0.0252319
0.0250897
0.0250064
0.024973
0.0249595
0.0249124
0.0247624
0.0244064
0.0237155
0.0224581
0.0203416
0.0172267
0.0261109
0.0257936
0.0255036
0.0252429
0.0250163
0.0248354
0.024706
0.024616
0.0245316
0.0243993
0.0241514
0.0237107
0.022975
0.0218553
0.0201261
0.0179614
0.0259908
0.0256812
0.0253891
0.0251168
0.0248733
0.0246722
0.0245176
0.0243943
0.0242661
0.0240817
0.023779
0.0233021
0.0225685
0.0215545
0.0200894
0.0183589
0.0259119
0.0256136
0.0253278
0.0250579
0.0248153
0.0246125
0.0244504
0.0243108
0.0241566
0.02394
0.0236054
0.0231099
0.0223882
0.0214402
0.0201583
0.0186705
0.0258637
0.0255851
0.0253139
0.025059
0.0248331
0.0246452
0.0244914
0.0243504
0.0241859
0.0239532
0.0236034
0.0230995
0.0223904
0.0214778
0.0202961
0.0189214
0.0258294
0.0255803
0.0253253
0.0250876
0.0248832
0.0247181
0.0245842
0.0244575
0.0243012
0.0240723
0.0237259
0.0232258
0.0225282
0.0216271
0.0204711
0.0191098
0.0266798
0.0263661
0.02611