/*--------------------------------*- C++ -*----------------------------------*\
| =========                 |                                                 |
| \\      /  F ield         | foam-extend: Open Source CFD                    |
|  \\    /   O peration     | Version:     3.1                                |
|   \\  /    A nd           | Web:         http://www.extend-project.de       |
|    \\/     M anipulation  |                                                 |
\*---------------------------------------------------------------------------*/
FoamFile
{
    version     2.0;
    format      ascii;
    class       pointVectorField;
    location    "2.5";
    object      pointMotionU;
}
// * * * * * * * * * * * * * * * * * * * * * * * * * * * * * * * * * * * * * //

dimensions      [0 1 -1 0 0 0 0];

internalField   nonuniform List<vector> 
16859
(
(0 0 0)
(0 0 0)
(0 0 0)
(0 0 0)
(0 0 0)
(0 0 0)
(0 0 0)
(0 0 0)
(0 0 0)
(0 0 0)
(0 0 0)
(0 0 0)
(0 0 0)
(0 0 0)
(0 0 0)
(0 0 0)
(0 0 0)
(0 0 0)
(-1.37754e-10 1.55674e-11 -1.0733e-12)
(-2.66293e-10 3.0189e-11 -2.09378e-12)
(-3.85596e-10 4.3878e-11 -3.06986e-12)
(-4.99793e-10 5.69909e-11 -4.02398e-12)
(-6.12753e-10 6.96682e-11 -4.94865e-12)
(-7.28323e-10 8.17787e-11 -5.79229e-12)
(-8.50553e-10 9.28204e-11 -6.43583e-12)
(-9.83918e-10 1.01704e-10 -6.6576e-12)
(-1.13353e-09 1.06451e-10 -6.08728e-12)
(-1.30524e-09 1.03659e-10 -4.16427e-12)
(-1.50561e-09 8.76754e-11 -1.54463e-13)
(-1.74131e-09 4.94794e-11 6.62197e-12)
(-2.01707e-09 -2.43201e-11 1.60006e-11)
(-2.32932e-09 -1.49107e-10 2.51122e-11)
(-2.64057e-09 -3.18856e-10 2.65549e-11)
(-3.63716e-09 -1.41876e-09 -2.72756e-10)
(0 0 0)
(-2.7221e-10 3.06746e-11 -2.1424e-12)
(-5.26015e-10 5.95104e-11 -4.18392e-12)
(-7.61229e-10 8.65709e-11 -6.14727e-12)
(-9.85846e-10 1.12603e-10 -8.08616e-12)
(-1.20728e-09 1.37952e-10 -1.00003e-11)
(-1.43282e-09 1.62503e-10 -1.18115e-11)
(-1.67002e-09 1.85481e-10 -1.33218e-11)
(-1.9271e-09 2.05163e-10 -1.41492e-11)
(-2.21321e-09 2.18429e-10 -1.36355e-11)
(-2.53852e-09 2.20014e-10 -1.07368e-11)
(-2.91377e-09 2.01572e-10 -3.94974e-12)
(-3.34832e-09 1.50723e-10 8.57111e-12)
(-3.84471e-09 5.14811e-11 2.83513e-11)
(-4.38414e-09 -1.08702e-10 5.48613e-11)
(-4.88758e-09 -3.07216e-10 8.3035e-11)
(-5.75836e-09 -9.52785e-10 1.96974e-10)
(0 0 0)
(-4.00561e-10 4.48843e-11 -3.2016e-12)
(-7.73596e-10 8.71386e-11 -6.26245e-12)
(-1.11848e-09 1.26932e-10 -9.22933e-12)
(-1.44658e-09 1.65449e-10 -1.22021e-11)
(-1.7683e-09 2.03359e-10 -1.5213e-11)
(-2.09366e-09 2.40764e-10 -1.81998e-11)
(-2.4328e-09 2.76989e-10 -2.09576e-11)
(-2.79637e-09 3.10352e-10 -2.30582e-11)
(-3.19581e-09 3.37753e-10 -2.37265e-11)
(-3.64316e-09 3.54128e-10 -2.16643e-11)
(-4.14998e-09 3.51947e-10 -1.48349e-11)
(-4.72402e-09 3.2117e-10 -2.96969e-13)
(-5.36094e-09 2.51238e-10 2.56052e-11)
(-6.02511e-09 1.39111e-10 6.58466e-11)
(-6.61012e-09 1.12209e-11 1.18887e-10)
(-7.46399e-09 -4.02976e-10 2.22984e-10)
(0 0 0)
(-5.20311e-10 5.77443e-11 -4.23835e-12)
(-1.00415e-09 1.12204e-10 -8.30579e-12)
(-1.45008e-09 1.63706e-10 -1.22838e-11)
(-1.87222e-09 2.13924e-10 -1.63345e-11)
(-2.28326e-09 2.6397e-10 -2.05505e-11)
(-2.69505e-09 3.14333e-10 -2.49344e-11)
(-3.11921e-09 3.64803e-10 -2.93577e-11)
(-3.56735e-09 4.14312e-10 -3.34867e-11)
(-4.0512e-09 4.60727e-10 -3.66615e-11)
(-4.58207e-09 5.00692e-10 -3.77009e-11)
(-5.16923e-09 5.29645e-10 -3.46058e-11)
(-5.81592e-09 5.42443e-10 -2.41616e-11)
(-6.51049e-09 5.35214e-10 -1.65033e-12)
(-7.20803e-09 5.0941e-10 3.8289e-11)
(-7.79728e-09 4.76753e-10 9.77817e-11)
(-8.51699e-09 3.22836e-10 2.10467e-10)
(0 0 0)
(-6.29477e-10 6.87944e-11 -5.23344e-12)
(-1.21383e-09 1.33805e-10 -1.02747e-11)
(-1.75044e-09 1.95564e-10 -1.52479e-11)
(-2.25549e-09 2.56257e-10 -2.03893e-11)
(-2.74314e-09 3.17478e-10 -2.58738e-11)
(-3.22625e-09 3.80241e-10 -3.18082e-11)
(-3.71676e-09 4.44976e-10 -3.82095e-11)
(-4.22591e-09 5.11521e-10 -4.49611e-11)
(-4.76393e-09 5.79132e-10 -5.17338e-11)
(-5.33922e-09 6.46638e-10 -5.78485e-11)
(-5.95624e-09 7.12849e-10 -6.20302e-11)
(-6.61142e-09 7.77331e-10 -6.19626e-11)
(-7.28545e-09 8.41245e-10 -5.3559e-11)
(-7.92978e-09 9.06499e-10 -3.02516e-11)
(-8.4459e-09 9.66072e-10 1.70665e-11)
(-9.01606e-09 1.02088e-09 1.51454e-10)
(0 0 0)
(-7.26629e-10 7.75838e-11 -6.16263e-12)
(-1.39994e-09 1.51053e-10 -1.21179e-11)
(-2.01579e-09 2.21164e-10 -1.80352e-11)
(-2.59169e-09 2.9059e-10 -2.42284e-11)
(-3.1426e-09 3.61388e-10 -3.09632e-11)
(-3.68159e-09 4.35094e-10 -3.84675e-11)
(-4.22007e-09 5.12788e-10 -4.69354e-11)
(-4.76783e-09 5.95176e-10 -5.6524e-11)
(-5.33246e-09 6.82761e-10 -6.73431e-11)
(-5.91806e-09 7.76117e-10 -7.94324e-11)
(-6.52276e-09 8.76405e-10 -9.27014e-11)
(-7.13443e-09 9.85959e-10 -1.06749e-10)
(-7.72412e-09 1.10817e-09 -1.20285e-10)
(-8.23771e-09 1.24352e-09 -1.29338e-10)
(-8.5934e-09 1.37137e-09 -1.20723e-10)
(-8.86993e-09 1.61732e-09 -4.75635e-11)
(0 0 0)
(-8.10901e-10 8.37087e-11 -7.00009e-12)
(-1.5609e-09 1.6314e-10 -1.378e-11)
(-2.24407e-09 2.39271e-10 -2.05506e-11)
(-2.87863e-09 3.15171e-10 -2.76965e-11)
(-3.47973e-09 3.9329e-10 -3.55664e-11)
(-4.06003e-09 4.75589e-10 -4.44985e-11)
(-4.6299e-09 5.63649e-10 -5.48464e-11)
(-5.19718e-09 6.58786e-10 -6.70097e-11)
(-5.76641e-09 7.62223e-10 -8.14817e-11)
(-6.33725e-09 8.75322e-10 -9.89257e-11)
(-6.90174e-09 9.99854e-10 -1.20306e-10)
(-7.43993e-09 1.13814e-09 -1.47093e-10)
(-7.91384e-09 1.29215e-09 -1.8147e-10)
(-8.26231e-09 1.45865e-09 -2.25693e-10)
(-8.41379e-09 1.6109e-09 -2.73031e-10)
(-7.90423e-09 1.87838e-09 -5.17734e-10)
(0 0 0)
(-8.81863e-10 8.68303e-11 -7.72178e-12)
(-1.69604e-09 1.69387e-10 -1.52096e-11)
(-2.43466e-09 2.4884e-10 -2.2706e-11)
(-3.11608e-09 3.2852e-10 -3.06503e-11)
(-3.7552e-09 4.11152e-10 -3.94522e-11)
(-4.36396e-09 4.98975e-10 -4.95262e-11)
(-4.95144e-09 5.93843e-10 -6.13279e-11)
(-5.52355e-09 6.97341e-10 -7.53974e-11)
(-6.08218e-09 8.10837e-10 -9.24212e-11)
(-6.62366e-09 9.35491e-10 -1.1332e-10)
(-7.13619e-09 1.07215e-09 -1.39376e-10)
(-7.59627e-09 1.22079e-09 -1.72373e-10)
(-7.96454e-09 1.37872e-09 -2.14613e-10)
(-8.18486e-09 1.53588e-09 -2.67862e-10)
(-8.20017e-09 1.66402e-09 -3.25643e-10)
(-7.21911e-09 1.7635e-09 -1.01523e-09)
(0 0 0)
(0 0 0)
(0 0 0)
(0 0 0)
(0 0 0)
(0 0 0)
(0 0 0)
(0 0 0)
(0 0 0)
(0 0 0)
(0 0 0)
(0 0 0)
(0 0 0)
(0 0 0)
(0 0 0)
(0 0 0)
(0 0 0)
(0 0 0)
(-1.4074e-10 1.61547e-11 -1.0701e-12)
(-2.72171e-10 3.13316e-11 -2.09111e-12)
(-3.94405e-10 4.55528e-11 -3.07545e-12)
(-5.11811e-10 5.91889e-11 -4.05062e-12)
(-6.28506e-10 7.23743e-11 -5.01597e-12)
(-7.4861e-10 8.49348e-11 -5.92926e-12)
(-8.76492e-10 9.62636e-11 -6.68355e-12)
(-1.01701e-09 1.05074e-10 -7.07137e-12)
(-1.17573e-09 1.09002e-10 -6.73629e-12)
(-1.35903e-09 1.03934e-10 -5.12457e-12)
(-1.57405e-09 8.28981e-11 -1.48727e-12)
(-1.828e-09 3.43782e-11 4.92311e-12)
(-2.12612e-09 -5.97199e-11 1.4127e-11)
(-2.4646e-09 -2.22731e-10 2.36687e-11)
(-2.79458e-09 -4.51918e-10 2.69352e-11)
(-3.68883e-09 -1.48325e-09 -4.48099e-11)
(0 0 0)
(-2.7805e-10 3.18395e-11 -2.13554e-12)
(-5.37501e-10 6.17801e-11 -4.17757e-12)
(-7.7842e-10 8.99055e-11 -6.15683e-12)
(-1.00926e-09 1.17001e-10 -8.13717e-12)
(-1.23789e-09 1.43412e-10 -1.01325e-11)
(-1.47213e-09 1.68953e-10 -1.20841e-11)
(-1.72013e-09 1.92692e-10 -1.38213e-11)
(-1.99079e-09 2.1259e-10 -1.49966e-11)
(-2.29411e-09 2.24929e-10 -1.4992e-11)
(-2.64118e-09 2.23381e-10 -1.28045e-11)
(-3.04363e-09 1.97717e-10 -6.95703e-12)
(-3.51136e-09 1.32302e-10 4.41358e-12)
(-4.04617e-09 5.81322e-12 2.29442e-11)
(-4.62457e-09 -2.01352e-10 4.82968e-11)
(-5.14293e-09 -4.6525e-10 7.44614e-11)
(-5.88023e-09 -1.01539e-09 1.85195e-10)
(0 0 0)
(-4.09013e-10 4.66055e-11 -3.19013e-12)
(-7.90196e-10 9.04984e-11 -6.25042e-12)
(-1.14326e-09 1.31887e-10 -9.23952e-12)
(-1.48023e-09 1.72031e-10 -1.22726e-11)
(-1.81214e-09 2.11619e-10 -1.54038e-11)
(-2.1497e-09 2.50698e-10 -1.86026e-11)
(-2.50385e-09 2.88441e-10 -2.17098e-11)
(-2.88616e-09 3.22859e-10 -2.43611e-11)
(-3.30913e-09 3.50283e-10 -2.58683e-11)
(-3.78597e-09 3.64674e-10 -2.50493e-11)
(-4.32928e-09 3.56917e-10 -2.00193e-11)
(-4.94717e-09 3.14547e-10 -8.04189e-12)
(-5.63338e-09 2.23801e-10 1.42257e-11)
(-6.34398e-09 7.90927e-11 4.90365e-11)
(-6.941e-09 -8.85317e-11 9.10977e-11)
(-7.71017e-09 -3.45628e-10 2.02087e-10)
(0 0 0)
(-5.31041e-10 5.99811e-11 -4.22093e-12)
(-1.02518e-09 1.16582e-10 -8.28514e-12)
(-1.48139e-09 1.70197e-10 -1.22895e-11)
(-1.91456e-09 2.22613e-10 -1.64163e-11)
(-2.33813e-09 2.74999e-10 -2.0788e-11)
(-2.76477e-09 3.2784e-10 -2.54521e-11)
(-3.20697e-09 3.80842e-10 -3.03473e-11)
(-3.67737e-09 4.32745e-10 -3.52406e-11)
(-4.18883e-09 4.81063e-10 -3.96229e-11)
(-4.75389e-09 5.21868e-10 -4.2541e-11)
(-5.38298e-09 5.49789e-10 -4.2349e-11)
(-6.07985e-09 5.5871e-10 -3.64014e-11)
(-6.83137e-09 5.44041e-10 -2.09546e-11)
(-7.58531e-09 5.07811e-10 7.45553e-12)
(-8.20076e-09 4.6484e-10 4.49932e-11)
(-8.95265e-09 4.50783e-10 1.41165e-10)
(0 0 0)
(-6.42093e-10 7.14875e-11 -5.20847e-12)
(-1.23851e-09 1.39092e-10 -1.02417e-11)
(-1.78705e-09 2.03443e-10 -1.52423e-11)
(-2.30473e-09 2.66879e-10 -2.0471e-11)
(-2.80656e-09 3.31102e-10 -2.61396e-11)
(-3.30622e-09 3.97188e-10 -3.24121e-11)
(-3.81654e-09 4.65597e-10 -3.93946e-11)
(-4.3497e-09 5.36146e-10 -4.71091e-11)
(-4.91701e-09 6.08023e-10 -5.54467e-11)
(-5.52796e-09 6.79979e-10 -6.40835e-11)
(-6.18804e-09 7.50857e-10 -7.23327e-11)
(-6.8944e-09 8.20664e-10 -7.88793e-11)
(-7.62748e-09 8.9198e-10 -8.13633e-11)
(-8.33509e-09 9.69689e-10 -7.62095e-11)
(-8.89771e-09 1.04864e-09 -6.12489e-11)
(-9.6204e-09 1.24761e-09 2.46943e-11)
(0 0 0)
(-7.40716e-10 8.06557e-11 -6.12834e-12)
(-1.42742e-09 1.571e-10 -1.20684e-11)
(-2.05638e-09 2.30214e-10 -1.80103e-11)
(-2.64599e-09 3.02861e-10 -2.42955e-11)
(-3.21203e-09 3.77257e-10 -3.1232e-11)
(-3.76835e-09 4.55084e-10 -3.91147e-11)
(-4.32718e-09 5.37554e-10 -4.82437e-11)
(-4.89911e-09 6.25521e-10 -5.89461e-11)
(-5.49252e-09 7.19661e-10 -7.1609e-11)
(-6.11221e-09 8.20853e-10 -8.67336e-11)
(-6.75687e-09 9.30883e-10 -1.05023e-10)
(-7.41462e-09 1.05343e-09 -1.27475e-10)
(-8.05617e-09 1.19466e-09 -1.55275e-10)
(-8.62575e-09 1.35983e-09 -1.88536e-10)
(-9.0321e-09 1.53063e-09 -2.2043e-10)
(-9.55486e-09 1.98139e-09 -2.01571e-10)
(0 0 0)
(-8.26047e-10 8.70586e-11 -6.95482e-12)
(-1.59037e-09 1.69748e-10 -1.371e-11)
(-2.2874e-09 2.49195e-10 -2.04982e-11)
(-2.93621e-09 3.28693e-10 -2.77332e-11)
(-3.55276e-09 4.10895e-10 -3.5809e-11)
(-4.15042e-09 4.97966e-10 -4.51359e-11)
(-4.74019e-09 5.91708e-10 -5.61825e-11)
(-5.3305e-09 6.93691e-10 -6.95343e-11)
(-5.92631e-09 8.05449e-10 -8.59887e-11)
(-6.52747e-09 9.28803e-10 -1.06718e-10)
(-7.12575e-09 1.0663e-09 -1.33566e-10)
(-7.70021e-09 1.22165e-09 -1.6958e-10)
(-8.21071e-09 1.39942e-09 -2.19841e-10)
(-8.59245e-09 1.60082e-09 -2.91692e-10)
(-8.77265e-09 1.80127e-09 -3.84177e-10)
(-8.49747e-09 2.31027e-09 -5.81328e-10)
(0 0 0)
(-8.97683e-10 9.03376e-11 -7.66422e-12)
(-1.72673e-09 1.7632e-10 -1.51157e-11)
(-2.47956e-09 2.59279e-10 -2.26186e-11)
(-3.17537e-09 3.42802e-10 -3.06415e-11)
(-3.82977e-09 4.29838e-10 -3.96394e-11)
(-4.45529e-09 5.22869e-10 -5.00986e-11)
(-5.06152e-09 6.24024e-10 -6.2589e-11)
(-5.65468e-09 7.35173e-10 -7.78335e-11)
(-6.23676e-09 8.58012e-10 -9.68111e-11)
(-6.80374e-09 9.94109e-10 -1.20918e-10)
(-7.34282e-09 1.14482e-09 -1.52216e-10)
(-7.82835e-09 1.31079e-09 -1.93788e-10)
(-8.21691e-09 1.49013e-09 -2.50069e-10)
(-8.44555e-09 1.67348e-09 -3.2593e-10)
(-8.45155e-09 1.83098e-09 -4.16642e-10)
(-7.6629e-09 2.136e-09 -9.0309e-10)
(0 0 0)
(0 0 0)
(0 0 0)
(0 0 0)
(0 0 0)
(0 0 0)
(0 0 0)
(0 0 0)
(0 0 0)
(0 0 0)
(0 0 0)
(0 0 0)
(0 0 0)
(0 0 0)
(0 0 0)
(0 0 0)
(0 0 0)
(0 0 0)
(-1.4346e-10 1.67082e-11 -1.02515e-12)
(-2.77537e-10 3.24115e-11 -2.00678e-12)
(-4.02461e-10 4.7141e-11 -2.9607e-12)
(-5.22804e-10 6.12819e-11 -3.91813e-12)
(-6.42891e-10 7.49648e-11 -4.88523e-12)
(-7.67064e-10 8.79839e-11 -5.83097e-12)
(-8.99934e-10 9.96477e-11 -6.66569e-12)
(-1.04662e-09 1.08517e-10 -7.207e-12)
(-1.21291e-09 1.11946e-10 -7.13224e-12)
(-1.40534e-09 1.05351e-10 -5.92681e-12)
(-1.63088e-09 8.10555e-11 -2.8667e-12)
(-1.89585e-09 2.6678e-11 2.8616e-12)
(-2.203e-09 -7.6176e-11 1.16965e-11)
(-2.54328e-09 -2.48069e-10 2.26677e-11)
(-2.86346e-09 -4.77558e-10 3.21858e-11)
(-3.7434e-09 -1.46745e-09 2.97061e-11)
(0 0 0)
(-2.83375e-10 3.29374e-11 -2.04537e-12)
(-5.47998e-10 6.39257e-11 -4.00815e-12)
(-7.94158e-10 9.30689e-11 -5.92549e-12)
(-1.03069e-09 1.21187e-10 -7.86842e-12)
(-1.26589e-09 1.48634e-10 -9.86401e-12)
(-1.50797e-09 1.75171e-10 -1.18759e-11)
(-1.76554e-09 1.9974e-10 -1.37681e-11)
(-2.04801e-09 2.20062e-10 -1.52455e-11)
(-2.36582e-09 2.31974e-10 -1.57662e-11)
(-2.73039e-09 2.28429e-10 -1.44313e-11)
(-3.15313e-09 1.98151e-10 -9.89524e-12)
(-3.64236e-09 1.24334e-10 -4.23291e-13)
(-4.19547e-09 -1.44938e-11 1.56172e-11)
(-4.77977e-09 -2.33661e-10 3.83311e-11)
(-5.28467e-09 -4.97842e-10 6.30054e-11)
(-5.98928e-09 -1.01537e-09 1.32934e-10)
(0 0 0)
(-4.16722e-10 4.82283e-11 -3.05428e-12)
(-8.05374e-10 9.36757e-11 -5.99449e-12)
(-1.16597e-09 1.36587e-10 -8.8882e-12)
(-1.51108e-09 1.78292e-10 -1.18605e-11)
(-1.85229e-09 2.19509e-10 -1.49843e-11)
(-2.20091e-09 2.60243e-10 -1.82617e-11)
(-2.56847e-09 2.99561e-10 -2.15853e-11)
(-2.96724e-09 3.35232e-10 -2.46721e-11)
(-3.41039e-09 3.6316e-10 -2.69589e-11)
(-3.91165e-09 3.76627e-10 -2.74547e-11)
(-4.48361e-09 3.65561e-10 -2.45717e-11)
(-5.13293e-09 3.16518e-10 -1.60395e-11)
(-5.84878e-09 2.15767e-10 7.68183e-13)
(-6.57755e-09 6.13695e-11 2.72068e-11)
(-7.1737e-09 -1.06881e-10 5.8288e-11)
(-7.95568e-09 -3.65852e-10 1.23534e-10)
(0 0 0)
(-5.40829e-10 6.2092e-11 -4.03906e-12)
(-1.04442e-09 1.20724e-10 -7.94132e-12)
(-1.51009e-09 1.76351e-10 -1.18144e-11)
(-1.95341e-09 2.30874e-10 -1.58522e-11)
(-2.38847e-09 2.85517e-10 -2.02005e-11)
(-2.82863e-09 3.40782e-10 -2.49476e-11)
(-3.28709e-09 3.96323e-10 -3.00992e-11)
(-3.77729e-09 4.50738e-10 -3.55302e-11)
(-4.31292e-09 5.01275e-10 -4.09031e-11)
(-4.9073e-09 5.43577e-10 -4.55409e-11)
(-5.57133e-09 5.71703e-10 -4.82512e-11)
(-6.30838e-09 5.78965e-10 -4.71449e-11)
(-7.10288e-09 5.60716e-10 -3.96863e-11)
(-7.89653e-09 5.20462e-10 -2.3855e-11)
(-8.54179e-09 4.76815e-10 -2.61289e-12)
(-9.43093e-09 4.33507e-10 3.49129e-11)
(0 0 0)
(-6.53601e-10 7.4031e-11 -4.98072e-12)
(-1.26107e-09 1.44096e-10 -9.80957e-12)
(-1.82061e-09 2.10911e-10 -1.46406e-11)
(-2.34995e-09 2.76969e-10 -1.97471e-11)
(-2.86483e-09 3.44079e-10 -2.53666e-11)
(-3.37963e-09 4.13395e-10 -3.17098e-11)
(-3.90797e-09 4.85419e-10 -3.89606e-11)
(-4.46282e-09 5.59973e-10 -4.72687e-11)
(-5.05638e-09 6.36205e-10 -5.67309e-11)
(-5.69906e-09 7.12783e-10 -6.73587e-11)
(-6.39737e-09 7.88449e-10 -7.90162e-11)
(-7.14951e-09 8.63118e-10 -9.12892e-11)
(-7.93684e-09 9.39226e-10 -1.03197e-10)
(-8.70731e-09 1.02097e-09 -1.1271e-10)
(-9.33772e-09 1.10202e-09 -1.16797e-10)
(-1.03683e-08 1.25331e-09 -1.18636e-10)
(0 0 0)
(-7.53562e-10 8.35563e-11 -5.85577e-12)
(-1.45255e-09 1.62818e-10 -1.15492e-11)
(-2.09361e-09 2.38785e-10 -1.7282e-11)
(-2.69588e-09 3.14507e-10 -2.34074e-11)
(-3.27589e-09 3.92361e-10 -3.02601e-11)
(-3.84819e-09 4.74169e-10 -3.81839e-11)
(-4.42572e-09 5.6129e-10 -4.75623e-11)
(-5.0198e-09 6.54724e-10 -5.88594e-11)
(-5.63961e-09 7.55311e-10 -7.26835e-11)
(-6.29086e-09 8.64138e-10 -8.98914e-11)
(-6.97341e-09 9.83265e-10 -1.11748e-10)
(-7.67725e-09 1.11666e-09 -1.40098e-10)
(-8.37654e-09 1.27036e-09 -1.7719e-10)
(-9.02126e-09 1.44777e-09 -2.23705e-10)
(-9.52111e-09 1.6261e-09 -2.70791e-10)
(-1.05049e-08 2.02138e-09 -3.49493e-10)
(0 0 0)
(-8.39854e-10 9.02192e-11 -6.6396e-12)
(-1.61731e-09 1.75993e-10 -1.31073e-11)
(-2.32714e-09 2.58588e-10 -1.96466e-11)
(-2.98917e-09 3.41518e-10 -2.66816e-11)
(-3.62004e-09 4.27633e-10 -3.46316e-11)
(-4.23378e-09 5.19301e-10 -4.39553e-11)
(-4.84202e-09 6.18544e-10 -5.5204e-11)
(-5.45376e-09 7.27177e-10 -6.90991e-11)
(-6.07456e-09 8.47023e-10 -8.66547e-11)
(-6.70488e-09 9.80246e-10 -1.09381e-10)
(-7.33739e-09 1.12979e-09 -1.39625e-10)
(-7.95278e-09 1.29968e-09 -1.81075e-10)
(-8.51465e-09 1.49411e-09 -2.39229e-10)
(-8.96599e-09 1.71177e-09 -3.20059e-10)
(-9.23956e-09 1.92229e-09 -4.16884e-10)
(-9.41184e-09 2.36723e-09 -6.53866e-10)
(0 0 0)
(-9.121e-10 9.36433e-11 -7.30982e-12)
(-1.75479e-09 1.82864e-10 -1.44357e-11)
(-2.52076e-09 2.69151e-10 -2.16517e-11)
(-3.22994e-09 3.56333e-10 -2.94339e-11)
(-3.89856e-09 4.47585e-10 -3.82603e-11)
(-4.53973e-09 5.45624e-10 -4.86619e-11)
(-5.16351e-09 6.52843e-10 -6.12859e-11)
(-5.77655e-09 7.71397e-10 -7.69809e-11)
(-6.38116e-09 9.03292e-10 -9.69232e-11)
(-6.97358e-09 1.05041e-09 -1.22804e-10)
(-7.54132e-09 1.21437e-09 -1.57095e-10)
(-8.0594e-09 1.39572e-09 -2.03323e-10)
(-8.48633e-09 1.59147e-09 -2.65956e-10)
(-8.76373e-09 1.78863e-09 -3.47989e-10)
(-8.83259e-09 1.95028e-09 -4.38812e-10)
(-8.37813e-09 2.13685e-09 -8.4959e-10)
(0 0 0)
(0 0 0)
(0 0 0)
(0 0 0)
(0 0 0)
(0 0 0)
(0 0 0)
(0 0 0)
(0 0 0)
(0 0 0)
(0 0 0)
(0 0 0)
(0 0 0)
(0 0 0)
(0 0 0)
(0 0 0)
(0 0 0)
(0 0 0)
(-1.45867e-10 1.72107e-11 -9.3767e-13)
(-2.82291e-10 3.33951e-11 -1.83859e-12)
(-4.09599e-10 4.85921e-11 -2.7205e-12)
(-5.32537e-10 6.32025e-11 -3.61615e-12)
(-6.55598e-10 7.73574e-11 -4.53692e-12)
(-7.83296e-10 9.08286e-11 -5.46249e-12)
(-9.20412e-10 1.0287e-10 -6.32169e-12)
(-1.07221e-09 1.11934e-10 -6.96145e-12)
(-1.24456e-09 1.15197e-10 -7.10196e-12)
(-1.44388e-09 1.07805e-10 -6.28422e-12)
(-1.67665e-09 8.17657e-11 -3.83782e-12)
(-1.94797e-09 2.45395e-11 1.05526e-12)
(-2.25839e-09 -8.17026e-11 9.04865e-12)
(-2.59616e-09 -2.55352e-10 1.98549e-11)
(-2.90846e-09 -4.8217e-10 3.07786e-11)
(-3.77214e-09 -1.44765e-09 4.63056e-11)
(0 0 0)
(-2.88086e-10 3.3934e-11 -1.87043e-12)
(-5.57295e-10 6.58786e-11 -3.67135e-12)
(-8.08104e-10 9.59577e-11 -5.44329e-12)
(-1.04968e-09 1.25026e-10 -7.25951e-12)
(-1.29064e-09 1.53447e-10 -9.15648e-12)
(-1.53953e-09 1.80954e-10 -1.11175e-11)
(-1.80529e-09 2.06406e-10 -1.30413e-11)
(-2.09762e-09 2.27356e-10 -1.4689e-11)
(-2.42717e-09 2.39355e-10 -1.56043e-11)
(-2.80524e-09 2.34925e-10 -1.50116e-11)
(-3.2425e-09 2.02273e-10 -1.17276e-11)
(-3.74536e-09 1.24267e-10 -4.19824e-12)
(-4.30758e-09 -1.99363e-11 9.0752e-12)
(-4.89186e-09 -2.43061e-10 2.82259e-11)
(-5.38771e-09 -5.06548e-10 4.89397e-11)
(-6.06312e-09 -1.0145e-09 9.3539e-11)
(0 0 0)
(-4.23544e-10 4.97003e-11 -2.79205e-12)
(-8.18818e-10 9.65656e-11 -5.48863e-12)
(-1.1861e-09 1.40877e-10 -8.16116e-12)
(-1.53842e-09 1.84026e-10 -1.09364e-11)
(-1.88784e-09 2.26764e-10 -1.38988e-11)
(-2.24609e-09 2.69086e-10 -1.70758e-11)
(-2.62521e-09 3.0999e-10 -2.04062e-11)
(-3.03789e-09 3.47091e-10 -2.36833e-11)
(-3.49767e-09 3.76011e-10 -2.64644e-11)
(-4.01835e-09 3.89599e-10 -2.79441e-11)
(-4.61201e-09 3.77222e-10 -2.68146e-11)
(-5.28365e-09 3.24941e-10 -2.1221e-11)
(-6.0191e-09 2.19099e-10 -9.12405e-12)
(-6.76024e-09 5.89933e-11 1.01891e-11)
(-7.36017e-09 -1.1377e-10 3.21897e-11)
(-8.13076e-09 -3.91334e-10 7.29015e-11)
(0 0 0)
(-5.49492e-10 6.40072e-11 -3.69044e-12)
(-1.06146e-09 1.24492e-10 -7.26719e-12)
(-1.53555e-09 1.81966e-10 -1.0841e-11)
(-1.98788e-09 2.38427e-10 -1.46056e-11)
(-2.43309e-09 2.95171e-10 -1.87175e-11)
(-2.88511e-09 3.5273e-10 -2.3292e-11)
(-3.35771e-09 4.10746e-10 -2.83855e-11)
(-3.86488e-09 4.67741e-10 -3.39582e-11)
(-4.42087e-09 5.20795e-10 -3.98086e-11)
(-5.0394e-09 5.6526e-10 -4.54734e-11)
(-5.7315e-09 5.94754e-10 -5.00913e-11)
(-6.50014e-09 6.02003e-10 -5.22807e-11)
(-7.32856e-09 5.81652e-10 -5.02354e-11)
(-8.15649e-09 5.36339e-10 -4.26582e-11)
(-8.83291e-09 4.84369e-10 -3.16327e-11)
(-9.76815e-09 3.99951e-10 -1.31993e-11)
(0 0 0)
(-6.63789e-10 7.63393e-11 -4.54799e-12)
(-1.28108e-09 1.48646e-10 -8.97069e-12)
(-1.85039e-09 2.17719e-10 -1.34238e-11)
(-2.39012e-09 2.86189e-10 -1.81763e-11)
(-2.91657e-09 3.55976e-10 -2.34739e-11)
(-3.44476e-09 4.28325e-10 -2.95517e-11)
(-3.9889e-09 5.03808e-10 -3.66416e-11)
(-4.56263e-09 5.82289e-10 -4.49743e-11)
(-5.17881e-09 6.6292e-10 -5.47749e-11)
(-5.84861e-09 7.44311e-10 -6.62478e-11)
(-6.57941e-09 8.25021e-10 -7.95369e-11)
(-7.37064e-09 9.0448e-10 -9.46144e-11)
(-8.20558e-09 9.83923e-10 -1.10984e-10)
(-9.03428e-09 1.06496e-09 -1.2704e-10)
(-9.72882e-09 1.13858e-09 -1.39155e-10)
(-1.08899e-08 1.23745e-09 -1.524e-10)
(0 0 0)
(-7.64936e-10 8.61874e-11 -5.3431e-12)
(-1.47484e-09 1.68016e-10 -1.05531e-11)
(-2.12667e-09 2.46592e-10 -1.58306e-11)
(-2.74025e-09 3.25143e-10 -2.15204e-11)
(-3.33272e-09 4.062e-10 -2.79603e-11)
(-3.91922e-09 4.91733e-10 -3.55129e-11)
(-4.51333e-09 5.83258e-10 -4.46017e-11)
(-5.12701e-09 6.81936e-10 -5.57582e-11)
(-5.77013e-09 7.88786e-10 -6.96928e-11)
(-6.44931e-09 9.0507e-10 -8.73986e-11)
(-7.16576e-09 1.03295e-09 -1.10289e-10)
(-7.91183e-09 1.17618e-09 -1.40288e-10)
(-8.66588e-09 1.33964e-09 -1.79462e-10)
(-9.38342e-09 1.52355e-09 -2.27831e-10)
(-9.96946e-09 1.70064e-09 -2.75879e-10)
(-1.11564e-08 2.05041e-09 -3.44308e-10)
(0 0 0)
(-8.5208e-10 9.30847e-11 -6.05334e-12)
(-1.64121e-09 1.81665e-10 -1.19659e-11)
(-2.36245e-09 2.67138e-10 -1.79776e-11)
(-3.03631e-09 3.53222e-10 -2.44988e-11)
(-3.68001e-09 4.4296e-10 -3.19466e-11)
(-4.30816e-09 5.3892e-10 -4.07915e-11)
(-4.93295e-09 6.43343e-10 -5.16147e-11)
(-5.56394e-09 7.58295e-10 -6.51887e-11)
(-6.20731e-09 8.85891e-10 -8.26e-11)
(-6.86434e-09 1.02862e-09 -1.05437e-10)
(-7.52901e-09 1.18968e-09 -1.36068e-10)
(-8.18447e-09 1.3731e-09 -1.77973e-10)
(-8.79884e-09 1.58212e-09 -2.35791e-10)
(-9.3213e-09 1.81256e-09 -3.1343e-10)
(-9.68034e-09 2.02924e-09 -4.02347e-10)
(-1.00442e-08 2.45867e-09 -5.84779e-10)
(0 0 0)
(-9.24868e-10 9.66387e-11 -6.65848e-12)
(-1.77969e-09 1.88805e-10 -1.31657e-11)
(-2.5574e-09 2.78133e-10 -1.97896e-11)
(-3.27857e-09 3.68676e-10 -2.6988e-11)
(-3.95998e-09 4.63827e-10 -3.52314e-11)
(-4.61526e-09 5.66534e-10 -4.50564e-11)
(-5.25493e-09 6.79443e-10 -5.71309e-11)
(-5.88609e-09 8.04999e-10 -7.23417e-11)
(-6.5115e-09 9.45536e-10 -9.19178e-11)
(-7.12797e-09 1.10327e-09 -1.17601e-10)
(-7.7239e-09 1.28005e-09 -1.51852e-10)
(-8.27602e-09 1.4763e-09 -1.9798e-10)
(-8.74588e-09 1.68789e-09 -2.59738e-10)
(-9.07879e-09 1.8988e-09 -3.38745e-10)
(-9.21209e-09 2.06672e-09 -4.24388e-10)
(-8.85021e-09 2.26196e-09 -8.03203e-10)
(0 0 0)
(0 0 0)
(0 0 0)
(0 0 0)
(0 0 0)
(0 0 0)
(0 0 0)
(0 0 0)
(0 0 0)
(0 0 0)
(0 0 0)
(0 0 0)
(0 0 0)
(0 0 0)
(0 0 0)
(0 0 0)
(0 0 0)
(0 0 0)
(-1.47912e-10 1.76474e-11 -8.09113e-13)
(-2.86328e-10 3.42512e-11 -1.58882e-12)
(-4.1566e-10 4.9859e-11 -2.3569e-12)
(-5.40789e-10 6.48859e-11 -3.14467e-12)
(-6.66343e-10 7.94675e-11 -3.96616e-12)
(-7.96957e-10 9.33661e-11 -4.80944e-12)
(-9.37518e-10 1.05802e-10 -5.6203e-12)
(-1.09335e-09 1.15161e-10 -6.27467e-12)
(-1.27028e-09 1.18516e-10 -6.53737e-12)
(-1.47447e-09 1.10871e-10 -6.01016e-12)
(-1.71175e-09 8.41055e-11 -4.08877e-12)
(-1.98597e-09 2.57136e-11 1.26289e-14)
(-2.29582e-09 -8.16487e-11 7.03904e-12)
(-2.6278e-09 -2.55197e-10 1.70327e-11)
(-2.93024e-09 -4.79689e-10 2.77579e-11)
(-3.76472e-09 -1.42688e-09 4.95704e-11)
(0 0 0)
(-2.92087e-10 3.47994e-11 -1.61367e-12)
(-5.6519e-10 6.75778e-11 -3.17191e-12)
(-8.19944e-10 9.84777e-11 -4.71457e-12)
(-1.06579e-09 1.28387e-10 -6.31099e-12)
(-1.31158e-09 1.57685e-10 -8.00102e-12)
(-1.56611e-09 1.86097e-10 -9.78182e-12)
(-1.83855e-09 2.12433e-10 -1.15811e-11)
(-2.13872e-09 2.34148e-10 -1.32108e-11)
(-2.47724e-09 2.46623e-10 -1.42946e-11)
(-2.86505e-09 2.42143e-10 -1.41719e-11)
(-3.31179e-09 2.08654e-10 -1.18034e-11)
(-3.82191e-09 1.2892e-10 -5.77524e-12)
(-4.38609e-09 -1.75282e-11 5.35935e-12)
(-4.96407e-09 -2.42342e-10 2.19043e-11)
(-5.44672e-09 -5.05958e-10 4.01194e-11)
(-6.08159e-09 -1.01287e-09 7.69183e-11)
(0 0 0)
(-4.29337e-10 5.09786e-11 -2.408e-12)
(-8.30237e-10 9.90794e-11 -4.74028e-12)
(-1.2032e-09 1.44616e-10 -7.06564e-12)
(-1.56163e-09 1.8904e-10 -9.50252e-12)
(-1.91794e-09 2.3314e-10 -1.21363e-11)
(-2.28422e-09 2.76919e-10 -1.50084e-11)
(-2.67281e-09 3.19351e-10 -1.80897e-11)
(-3.09667e-09 3.57964e-10 -2.12318e-11)
(-3.56939e-09 3.88217e-10 -2.40858e-11)
(-4.10451e-09 4.02703e-10 -2.59844e-11)
(-4.71319e-09 3.90441e-10 -2.5805e-11)
(-5.39855e-09 3.37114e-10 -2.19052e-11)
(-6.14345e-09 2.28779e-10 -1.24147e-11)
(-6.88653e-09 6.46162e-11 3.45225e-12)
(-7.48075e-09 -1.13333e-10 2.1959e-11)
(-8.21737e-09 -4.08584e-10 5.82545e-11)
(0 0 0)
(-5.56851e-10 6.56698e-11 -3.1814e-12)
(-1.07595e-09 1.27767e-10 -6.27329e-12)
(-1.55718e-09 1.86856e-10 -9.38045e-12)
(-2.01716e-09 2.45026e-10 -1.26816e-11)
(-2.47095e-09 3.0364e-10 -1.63284e-11)
(-2.9329e-09 3.63281e-10 -2.04439e-11)
(-3.41719e-09 4.23613e-10 -2.51091e-11)
(-3.93817e-09 4.83135e-10 -3.03313e-11)
(-4.51033e-09 5.3885e-10 -3.59849e-11)
(-5.1474e-09 5.85938e-10 -4.17129e-11)
(-5.86003e-09 6.177e-10 -4.67841e-11)
(-6.6502e-09 6.26297e-10 -4.99376e-11)
(-7.49949e-09 6.05386e-10 -4.93914e-11)
(-8.34523e-09 5.56113e-10 -4.35831e-11)
(-9.03337e-09 4.96336e-10 -3.38153e-11)
(-9.96428e-09 3.83288e-10 -1.22652e-11)
(0 0 0)
(-6.72445e-10 7.83421e-11 -3.91851e-12)
(-1.29809e-09 1.526e-10 -7.73914e-12)
(-1.87573e-09 2.23646e-10 -1.1607e-11)
(-2.42428e-09 2.94237e-10 -1.57681e-11)
(-2.96055e-09 3.66401e-10 -2.04543e-11)
(-3.50002e-09 4.41481e-10 -2.5897e-11)
(-4.05737e-09 5.2014e-10 -3.23359e-11)
(-4.64668e-09 6.02319e-10 -4.00218e-11)
(-5.28121e-09 6.87233e-10 -4.92075e-11)
(-5.97248e-09 7.73499e-10 -6.01167e-11)
(-6.72815e-09 8.59549e-10 -7.28613e-11)
(-7.54788e-09 9.44353e-10 -8.72447e-11)
(-8.41509e-09 1.02796e-09 -1.02344e-10)
(-9.279e-09 1.10971e-09 -1.15849e-10)
(-1.00058e-08 1.17883e-09 -1.23928e-10)
(-1.12048e-08 1.2527e-09 -1.22904e-10)
(0 0 0)
(-7.74604e-10 8.847e-11 -4.60063e-12)
(-1.4938e-09 1.72531e-10 -9.09786e-12)
(-2.15482e-09 2.53387e-10 -1.36769e-11)
(-2.77805e-09 3.34422e-10 -1.86504e-11)
(-3.38112e-09 4.18315e-10 -2.43322e-11)
(-3.97968e-09 5.07187e-10 -3.10673e-11)
(-4.58778e-09 6.02713e-10 -3.92659e-11)
(-5.21786e-09 7.06239e-10 -4.94453e-11)
(-5.8803e-09 8.18991e-10 -6.22829e-11)
(-6.58226e-09 9.42456e-10 -7.86799e-11)
(-7.32567e-09 1.07897e-09 -9.98063e-11)
(-8.10395e-09 1.23222e-09 -1.27014e-10)
(-8.89682e-09 1.40644e-09 -1.61237e-10)
(-9.65988e-09 1.60005e-09 -2.00885e-10)
(-1.02903e-08 1.7831e-09 -2.36593e-10)
(-1.15452e-08 2.13295e-09 -2.68225e-10)
(0 0 0)
(-8.62478e-10 9.55698e-11 -5.20845e-12)
(-1.66155e-09 1.86591e-10 -1.03077e-11)
(-2.39255e-09 2.74577e-10 -1.55175e-11)
(-3.07652e-09 3.63429e-10 -2.12079e-11)
(-3.7312e-09 4.56373e-10 -2.77622e-11)
(-4.37166e-09 5.56165e-10 -3.56204e-11)
(-5.01055e-09 6.65266e-10 -4.53317e-11)
(-5.65789e-09 7.86003e-10 -5.76249e-11)
(-6.32034e-09 9.20812e-10 -7.35058e-11)
(-6.99976e-09 1.07256e-09 -9.43903e-11)
(-7.69091e-09 1.24487e-09 -1.22261e-10)
(-8.37809e-09 1.44212e-09 -1.59767e-10)
(-9.0307e-09 1.66769e-09 -2.09927e-10)
(-9.59733e-09 1.91707e-09 -2.74191e-10)
(-9.99685e-09 2.15331e-09 -3.43657e-10)
(-1.04065e-08 2.64343e-09 -4.54234e-10)
(0 0 0)
(-9.35731e-10 9.92359e-11 -5.72473e-12)
(-1.80089e-09 1.93964e-10 -1.13317e-11)
(-2.58866e-09 2.85946e-10 -1.70646e-11)
(-3.3201e-09 3.79439e-10 -2.33347e-11)
(-4.0125e-09 4.78035e-10 -3.05712e-11)
(-4.67991e-09 5.84899e-10 -3.92713e-11)
(-5.33326e-09 7.02927e-10 -5.00592e-11)
(-5.98003e-09 8.34862e-10 -6.37629e-11)
(-6.62336e-09 9.83396e-10 -8.15148e-11)
(-7.26052e-09 1.15117e-09 -1.04874e-10)
(-7.88047e-09 1.34049e-09 -1.35944e-10)
(-8.46069e-09 1.55217e-09 -1.77356e-10)
(-8.96326e-09 1.78227e-09 -2.31763e-10)
(-9.3319e-09 2.01447e-09 -2.99707e-10)
(-9.49532e-09 2.20485e-09 -3.72569e-10)
(-9.06389e-09 2.52164e-09 -6.88308e-10)
(0 0 0)
(0 0 0)
(0 0 0)
(0 0 0)
(0 0 0)
(0 0 0)
(0 0 0)
(0 0 0)
(0 0 0)
(0 0 0)
(0 0 0)
(0 0 0)
(0 0 0)
(0 0 0)
(0 0 0)
(0 0 0)
(0 0 0)
(0 0 0)
(-1.49549e-10 1.80036e-11 -6.43469e-13)
(-2.8956e-10 3.49505e-11 -1.26503e-12)
(-4.20509e-10 5.08958e-11 -1.8804e-12)
(-5.47382e-10 6.62691e-11 -2.51639e-12)
(-6.74903e-10 8.12128e-11 -3.18668e-12)
(-8.07789e-10 9.54863e-11 -3.88496e-12)
(-9.50982e-10 1.08294e-10 -4.57168e-12)
(-1.10981e-09 1.17988e-10 -5.15078e-12)
(-1.28997e-09 1.21583e-10 -5.43363e-12)
(-1.49731e-09 1.14016e-10 -5.09011e-12)
(-1.73693e-09 8.71169e-11 -3.59937e-12)
(-2.01153e-09 2.84438e-11 -2.43771e-13)
(-2.31808e-09 -7.90253e-11 5.7438e-12)
(-2.64158e-09 -2.51813e-10 1.46339e-11)
(-2.93161e-09 -4.74103e-10 2.46553e-11)
(-3.72534e-09 -1.40267e-09 4.92369e-11)
(0 0 0)
(-2.9529e-10 3.55056e-11 -1.2831e-12)
(-5.71511e-10 6.89654e-11 -2.52503e-12)
(-8.29418e-10 1.0054e-10 -3.76059e-12)
(-1.07865e-09 1.31148e-10 -5.04872e-12)
(-1.32827e-09 1.61186e-10 -6.42615e-12)
(-1.58721e-09 1.90384e-10 -7.89709e-12)
(-1.86476e-09 2.17534e-10 -9.41153e-12)
(-2.17078e-09 2.40039e-10 -1.0826e-11)
(-2.51571e-09 2.53192e-10 -1.18404e-11)
(-2.90995e-09 2.49154e-10 -1.1908e-11)
(-3.362e-09 2.15741e-10 -1.01347e-11)
(-3.87433e-09 1.35664e-10 -5.24083e-12)
(-4.43482e-09 -1.13904e-11 4.21001e-12)
(-5.00068e-09 -2.36635e-10 1.88342e-11)
(-5.4648e-09 -5.00051e-10 3.56566e-11)
(-6.04717e-09 -1.00591e-09 7.34786e-11)
(0 0 0)
(-4.33976e-10 5.20208e-11 -1.91418e-12)
(-8.39383e-10 1.01131e-10 -3.77242e-12)
(-1.21688e-09 1.47675e-10 -5.63397e-12)
(-1.58018e-09 1.93155e-10 -7.59858e-12)
(-1.94195e-09 2.38398e-10 -9.74169e-12)
(-2.31453e-09 2.83432e-10 -1.2106e-11)
(-2.71044e-09 3.2723e-10 -1.46801e-11)
(-3.14271e-09 3.67287e-10 -1.73565e-11)
(-3.62481e-09 3.98985e-10 -1.9859e-11)
(-4.16974e-09 4.14785e-10 -2.16306e-11)
(-4.78748e-09 4.03497e-10 -2.16876e-11)
(-5.47905e-09 3.5052e-10 -1.85075e-11)
(-6.22423e-09 2.41521e-10 -1.01924e-11)
(-6.95876e-09 7.52191e-11 4.45109e-12)
(-7.53701e-09 -1.06261e-10 2.25315e-11)
(-8.22557e-09 -4.13035e-10 6.57312e-11)
(0 0 0)
(-5.62746e-10 6.70248e-11 -2.52805e-12)
(-1.08755e-09 1.3044e-10 -4.99042e-12)
(-1.57451e-09 1.90855e-10 -7.47622e-12)
(-2.04059e-09 2.50437e-10 -1.01348e-11)
(-2.5012e-09 3.10616e-10 -1.30964e-11)
(-2.97097e-09 3.7203e-10 -1.64721e-11)
(-3.46435e-09 4.34385e-10 -2.03418e-11)
(-3.99585e-09 4.96205e-10 -2.47264e-11)
(-4.57994e-09 5.54481e-10 -2.9529e-11)
(-5.23e-09 6.0433e-10 -3.44317e-11)
(-5.9558e-09 6.38875e-10 -3.87285e-11)
(-6.75766e-09 6.49874e-10 -4.11087e-11)
(-7.61462e-09 6.3016e-10 -3.95504e-11)
(-8.46121e-09 5.79571e-10 -3.19496e-11)
(-9.14296e-09 5.15408e-10 -1.92163e-11)
(-1.00463e-08 3.85008e-10 1.74003e-11)
(0 0 0)
(-6.79384e-10 7.99746e-11 -3.11239e-12)