/*--------------------------------*- C++ -*----------------------------------*\
| =========                 |                                                 |
| \\      /  F ield         | foam-extend: Open Source CFD                    |
|  \\    /   O peration     | Version:     3.1                                |
|   \\  /    A nd           | Web:         http://www.extend-project.de       |
|    \\/     M anipulation  |                                                 |
\*---------------------------------------------------------------------------*/
FoamFile
{
    version     2.0;
    format      ascii;
    class       surfaceVectorField;
    location    "2.5";
    object      Sf;
}
// * * * * * * * * * * * * * * * * * * * * * * * * * * * * * * * * * * * * * //

dimensions      [0 2 0 0 0 0 0];

internalField   nonuniform List<vector> 
41600
(
(0.000625527 -2.90169e-06 -2.04321e-08)
(-5.26727e-07 0.000706027 -1.31781e-08)
(6.56819e-09 7.38921e-09 0.000704889)
(-6.72322e-09 -7.56362e-09 -0.000704855)
(0.000626031 -5.59054e-06 -3.93804e-08)
(-5.04403e-07 0.000705814 -3.94342e-08)
(6.46794e-09 2.20529e-08 0.000705375)
(-6.62063e-09 -2.25735e-08 -0.000705316)
(0.000626524 -8.04135e-06 -5.68464e-08)
(-4.92632e-07 0.000705577 -6.62108e-08)
(6.75702e-09 3.69222e-08 0.000705829)
(-6.90885e-09 -3.77854e-08 -0.000705746)
(0.00062703 -1.03126e-05 -7.33754e-08)
(-5.05341e-07 0.000705397 -9.5339e-08)
(7.55824e-09 5.30072e-08 0.000706315)
(-7.70708e-09 -5.42086e-08 -0.000706203)
(0.00062757 -1.24517e-05 -8.95397e-08)
(-5.40639e-07 0.000705266 -1.29095e-07)
(8.7499e-09 7.13202e-08 0.000706853)
(-8.88337e-09 -7.28398e-08 -0.000706708)
(0.000628169 -1.44998e-05 -1.05844e-07)
(-5.98394e-07 0.000705175 -1.70001e-07)
(1.00478e-08 9.24236e-08 0.000707468)
(-1.01452e-08 -9.4204e-08 -0.000707282)
(0.000628848 -1.64862e-05 -1.2198e-07)
(-6.78971e-07 0.000705113 -2.2097e-07)
(1.09493e-08 1.16007e-07 0.00070818)
(-1.09882e-08 -1.17942e-07 -0.000707943)
(0.000629632 -1.84231e-05 -1.37065e-07)
(-7.84049e-07 0.000705064 -2.85497e-07)
(1.06499e-08 1.40311e-07 0.000709008)
(-1.05857e-08 -1.4222e-07 -0.000708708)
(0.000630548 -2.03025e-05 -1.49796e-07)
(-9.16446e-07 0.000705006 -3.68279e-07)
(7.53212e-09 1.6091e-07 0.000709974)
(-7.27161e-09 -1.62455e-07 -0.000709593)
(0.000631626 -2.20809e-05 -1.5734e-07)
(-1.07859e-06 0.000704904 -4.7589e-07)
(-1.57017e-09 1.68119e-07 0.000711094)
(2.11043e-09 -1.68757e-07 -0.000710611)
(0.000632901 -2.36747e-05 -1.56067e-07)
(-1.27529e-06 0.000704718 -6.18298e-07)
(-2.26169e-08 1.42248e-07 0.000712388)
(2.34285e-08 -1.41328e-07 -0.000711771)
(0.000634412 -2.49458e-05 -1.43276e-07)
(-1.51174e-06 0.000704393 -8.12558e-07)
(-6.61591e-08 4.5553e-08 0.000713879)
(6.69946e-08 -4.2652e-08 -0.00071308)
(0.0006362 -2.57044e-05 -1.22323e-07)
(-1.78892e-06 0.000703879 -1.09017e-06)
(-1.50805e-07 -1.9148e-07 0.000715606)
(1.50906e-07 1.95794e-07 -0.000714536)
(0.000638279 -2.57852e-05 -1.18171e-07)
(-2.0777e-06 0.000703202 -1.50944e-06)
(-2.99161e-07 -6.8336e-07 0.000717649)
(2.98074e-07 6.87349e-07 -0.000716143)
(0.00064037 -2.52369e-05 -2.23916e-07)
(-2.10972e-06 0.000702553 -2.14821e-06)
(-4.79705e-07 -1.53641e-06 0.00072006)
(4.98593e-07 1.56035e-06 -0.000717806)
(-8.32491e-06 0.000699499 -5.05391e-07)
(-2.08235e-06 -4.29509e-06 0.000725007)
(4.25509e-06 6.65976e-06 -0.000723752)
(0.000625505 -2.8607e-06 -6.10756e-08)
(-1.03146e-06 0.000708888 -2.5825e-08)
(1.93177e-08 6.95252e-09 0.000707778)
(-1.9784e-08 -7.12828e-09 -0.000707704)
(0.000625988 -5.51326e-06 -1.17858e-07)
(-9.8723e-07 0.000708467 -7.7234e-08)
(1.89497e-08 2.0664e-08 0.000708027)
(-1.94172e-08 -2.11978e-08 -0.000707932)
(0.00062646 -7.93121e-06 -1.70427e-07)
(-9.63158e-07 0.000707996 -1.29569e-07)
(1.97431e-08 3.44111e-08 0.000708218)
(-2.02211e-08 -3.53235e-08 -0.000708102)
(0.000626941 -1.01719e-05 -2.20255e-07)
(-9.86649e-07 0.000707639 -1.86363e-07)
(2.20966e-08 4.92174e-08 0.000708497)
(-2.25738e-08 -5.05285e-08 -0.000708356)
(0.000627455 -1.22867e-05 -2.69295e-07)
(-1.05414e-06 0.000707382 -2.52058e-07)
(2.56014e-08 6.60982e-08 0.000708875)
(-2.60441e-08 -6.78108e-08 -0.000708703)
(0.000628022 -1.43168e-05 -3.19004e-07)
(-1.16433e-06 0.000707207 -3.31549e-07)
(2.94807e-08 8.56613e-08 0.000709366)
(-2.98531e-08 -8.77746e-08 -0.000709155)
(0.000628661 -1.62905e-05 -3.68392e-07)
(-1.31801e-06 0.00070709 -4.30341e-07)
(3.25993e-08 1.08152e-07 0.000709975)
(-3.28035e-08 -1.10614e-07 -0.000709716)
(0.000629395 -1.82249e-05 -4.15207e-07)
(-1.51805e-06 0.000707001 -5.55212e-07)
(3.29032e-08 1.3321e-07 0.000710702)
(-3.27487e-08 -1.35797e-07 -0.000710386)
(0.000630245 -2.01211e-05 -4.55214e-07)
(-1.76788e-06 0.000706904 -7.14913e-07)
(2.606e-08 1.58843e-07 0.000711546)
(-2.52934e-08 -1.61141e-07 -0.000711159)
(0.000631236 -2.19579e-05 -4.8063e-07)
(-2.0709e-06 0.000706742 -9.21224e-07)
(4.01902e-09 1.80087e-07 0.000712486)
(-2.38228e-09 -1.81499e-07 -0.000712015)
(0.000632388 -2.36743e-05 -4.81125e-07)
(-2.4299e-06 0.000706434 -1.19166e-06)
(-4.77087e-08 1.87535e-07 0.000713487)
(5.02785e-08 -1.87246e-07 -0.000712914)
(0.000633714 -2.51613e-05 -4.46422e-07)
(-2.84111e-06 0.000705877 -1.55433e-06)
(-1.53921e-07 1.65406e-07 0.000714496)
(1.56974e-07 -1.62398e-07 -0.000713789)
(0.000635203 -2.62512e-05 -3.79086e-07)
(-3.27942e-06 0.000704962 -2.05801e-06)
(-3.54212e-07 9.21112e-08 0.000715443)
(3.56243e-07 -8.51674e-08 -0.000714542)
(0.000636757 -2.67504e-05 -3.30784e-07)
(-3.63286e-06 0.000703688 -2.78783e-06)
(-6.86623e-07 -4.83359e-08 0.000716318)
(6.87271e-07 6.11708e-08 -0.000715088)
(0.000637981 -2.65943e-05 -5.17502e-07)
(-3.37895e-06 0.000702372 -3.86156e-06)
(-1.04998e-06 -2.28226e-07 0.000717276)
(1.09569e-06 2.52437e-07 -0.000715376)
(-7.86994e-06 0.000697276 -2.78273e-06)
(-3.457e-06 5.47656e-07 0.00071612)
(6.70817e-06 -1.85724e-06 -0.000712434)
(0.000625463 -2.77701e-06 -1.0091e-07)
(-1.49352e-06 0.000711665 -3.73746e-08)
(3.11012e-08 6.2974e-09 0.000710592)
(-3.18777e-08 -6.47084e-09 -0.000710479)
(0.000625905 -5.35167e-06 -1.94991e-07)
(-1.42828e-06 0.000711043 -1.11733e-07)
(3.03564e-08 1.86503e-08 0.000710585)
(-3.11438e-08 -1.91746e-08 -0.000710457)
(0.000626334 -7.69681e-06 -2.82169e-07)
(-1.39119e-06 0.000710342 -1.87297e-07)
(3.15467e-08 3.09467e-08 0.000710494)
(-3.23536e-08 -3.18222e-08 -0.000710349)
(0.00062677 -9.87167e-06 -3.65124e-07)
(-1.42249e-06 0.000709816 -2.69071e-07)
(3.53783e-08 4.42245e-08 0.000710547)
(-3.61909e-08 -4.54494e-08 -0.000710381)
(0.000627233 -1.1929e-05 -4.47882e-07)
(-1.51618e-06 0.000709441 -3.63431e-07)
(4.11162e-08 5.95258e-08 0.000710747)
(-4.19185e-08 -6.11336e-08 -0.000710553)
(0.000627738 -1.39066e-05 -5.32305e-07)
(-1.66891e-06 0.000709187 -4.77264e-07)
(4.78066e-08 7.77608e-08 0.000711089)
(-4.8544e-08 -7.97886e-08 -0.000710859)
(0.000628302 -1.58363e-05 -6.16908e-07)
(-1.88131e-06 0.000709022 -6.18149e-07)
(5.42234e-08 9.99384e-08 0.000711564)
(-5.46995e-08 -1.02348e-07 -0.000711291)
(0.00062894 -1.77467e-05 -6.99125e-07)
(-2.15628e-06 0.000708914 -7.95346e-07)
(5.78071e-08 1.27093e-07 0.000712159)
(-5.7699e-08 -1.29763e-07 -0.000711837)
(0.000629668 -1.9654e-05 -7.7205e-07)
(-2.49661e-06 0.000708814 -1.02058e-06)
(5.32911e-08 1.60486e-07 0.000712849)
(-5.22053e-08 -1.63179e-07 -0.00071247)
(0.000630499 -2.15673e-05 -8.24447e-07)
(-2.90454e-06 0.000708658 -1.30933e-06)
(3.12082e-08 2.02101e-07 0.000713588)
(-2.86761e-08 -2.04364e-07 -0.000713147)
(0.00063144 -2.34709e-05 -8.39914e-07)
(-3.37516e-06 0.000708339 -1.68366e-06)
(-2.44611e-08 2.55772e-07 0.000714293)
(2.88244e-08 -2.5673e-07 -0.000713785)
(0.000632478 -2.53127e-05 -7.97973e-07)
(-3.8853e-06 0.000707717 -2.17679e-06)
(-1.39253e-07 3.30336e-07 0.000714839)
(1.45348e-07 -3.2846e-07 -0.000714259)
(0.000633562 -2.69864e-05 -6.86901e-07)
(-4.37013e-06 0.000706629 -2.8433e-06)
(-3.47386e-07 4.47077e-07 0.000715058)
(3.54218e-07 -4.3987e-07 -0.000714384)
(0.000634559 -2.83133e-05 -5.42904e-07)
(-4.63833e-06 0.000704999 -3.77578e-06)
(-6.654e-07 6.50813e-07 0.000714841)
(6.7361e-07 -6.34744e-07 -0.000713997)
(0.000635153 -2.91134e-05 -5.90327e-07)
(-4.02494e-06 0.000703154 -5.12158e-06)
(-9.54952e-07 9.93007e-07 0.000714447)
(1.00685e-06 -9.74758e-07 -0.00071314)
(-9.35007e-06 0.000698964 -3.56732e-06)
(-2.14671e-06 1.90955e-06 0.000711855)
(3.9789e-06 -2.3161e-06 -0.000710291)
(0.000625402 -2.6497e-06 -1.38677e-07)
(-1.89442e-06 0.000714315 -4.73199e-08)
(4.16088e-08 5.50791e-09 0.000713289)
(-4.26779e-08 -5.66377e-09 -0.00071314)
(0.000625785 -5.10284e-06 -2.68439e-07)
(-1.80987e-06 0.000713496 -1.41431e-07)
(4.05202e-08 1.63672e-08 0.000713012)
(-4.16017e-08 -1.68319e-08 -0.000712852)
(0.000626154 -7.33582e-06 -3.885e-07)
(-1.75977e-06 0.000712575 -2.36881e-07)
(4.21322e-08 2.73166e-08 0.000712625)
(-4.32285e-08 -2.80859e-08 -0.000712455)
(0.000626528 -9.40529e-06 -5.03814e-07)
(-1.79481e-06 0.000711886 -3.39908e-07)
(4.74203e-08 3.93076e-08 0.000712439)
(-4.85465e-08 -4.0406e-08 -0.000712253)
(0.000626919 -1.13563e-05 -6.20399e-07)
(-1.90575e-06 0.000711394 -4.58418e-07)
(5.54719e-08 5.34172e-08 0.000712442)
(-5.66465e-08 -5.4906e-08 -0.00071223)
(0.000627339 -1.323e-05 -7.39732e-07)
(-2.08778e-06 0.000711062 -6.00645e-07)
(6.54866e-08 7.0852e-08 0.000712613)
(-6.66083e-08 -7.27782e-08 -0.00071237)
(0.000627798 -1.50681e-05 -8.60943e-07)
(-2.3402e-06 0.000710862 -7.756e-07)
(7.63943e-08 9.31043e-08 0.000712935)
(-7.72199e-08 -9.54922e-08 -0.000712656)
(0.000628306 -1.69102e-05 -9.82419e-07)
(-2.66435e-06 0.000710759 -9.94163e-07)
(8.60204e-08 1.22342e-07 0.000713384)
(-8.61979e-08 -1.2522e-07 -0.000713064)
(0.00062887 -1.87928e-05 -1.0963e-06)
(-3.06149e-06 0.0007107 -1.26989e-06)
(9.03534e-08 1.62543e-07 0.000713918)
(-8.93418e-08 -1.65866e-07 -0.000713555)
(0.000629493 -2.07494e-05 -1.18966e-06)
(-3.53041e-06 0.000710618 -1.62044e-06)
(8.20627e-08 2.2113e-07 0.000714474)
(-7.91336e-08 -2.24614e-07 -0.00071407)
(0.000630172 -2.28167e-05 -1.24195e-06)
(-4.06001e-06 0.000710409 -2.07034e-06)
(4.9419e-08 3.11461e-07 0.000714946)
(-4.36678e-08 -3.1436e-07 -0.000714507)
(0.00063089 -2.50186e-05 -1.22298e-06)
(-4.6117e-06 0.00070992 -2.65559e-06)
(-2.39051e-08 4.5779e-07 0.000715173)
(3.31645e-08 -4.58504e-07 -0.000714713)
(0.000631594 -2.73378e-05 -1.09832e-06)
(-5.08718e-06 0.000708944 -3.433e-06)
(-1.57384e-07 6.99205e-07 0.000714928)
(1.70233e-07 -6.94951e-07 -0.000714463)
(0.000632188 -2.96359e-05 -8.60827e-07)
(-5.25036e-06 0.000707285 -4.49915e-06)
(-3.51923e-07 1.08256e-06 0.000714019)
(3.69258e-07 -1.07023e-06 -0.000713533)
(0.000632499 -3.15559e-05 -6.53397e-07)
(-4.3809e-06 0.000705063 -6.03193e-06)
(-5.1072e-07 1.60517e-06 0.000712672)
(5.5642e-07 -1.59405e-06 -0.000711969)
(-9.8924e-06 0.000702236 -4.20084e-06)
(-9.8277e-07 2.53575e-06 0.000709643)
(2.01174e-06 -3.13733e-06 -0.000709464)
(0.000625326 -2.47679e-06 -1.7352e-07)
(-2.21956e-06 0.000716792 -5.53351e-08)
(5.09259e-08 4.95136e-09 0.000715825)
(-5.2262e-08 -5.09595e-09 -0.000715644)
(0.000625636 -4.7657e-06 -3.36194e-07)
(-2.11806e-06 0.000715786 -1.65259e-07)
(4.96337e-08 1.47734e-08 0.000715268)
(-5.098e-08 -1.52067e-08 -0.000715082)
(0.000625933 -6.84494e-06 -4.87069e-07)
(-2.05519e-06 0.000714655 -2.76467e-07)
(5.17552e-08 2.4793e-08 0.000714581)
(-5.3133e-08 -2.55355e-08 -0.00071439)
(0.000626229 -8.76303e-06 -6.3352e-07)
(-2.08911e-06 0.000713805 -3.96161e-07)
(5.85134e-08 3.58969e-08 0.000714144)
(-5.99739e-08 -3.70031e-08 -0.000713942)
(0.000626532 -1.05627e-05 -7.81886e-07)
(-2.20789e-06 0.000713195 -5.33188e-07)
(6.90178e-08 4.91814e-08 0.000713933)
(-7.05842e-08 -5.07153e-08 -0.00071371)
(0.000626851 -1.22888e-05 -9.34159e-07)
(-2.40494e-06 0.00071279 -6.96533e-07)
(8.2702e-08 6.59208e-08 0.000713918)
(-8.42632e-08 -6.79594e-08 -0.00071367)
(0.000627189 -1.39842e-05 -1.09185e-06)
(-2.67708e-06 0.00071256 -8.96041e-07)
(9.88797e-08 8.783e-08 0.000714076)
(-1.00201e-07 -9.04786e-08 -0.000713798)
(0.000627548 -1.56914e-05 -1.25485e-06)
(-3.02259e-06 0.000712469 -1.14337e-06)
(1.16554e-07 1.17772e-07 0.000714375)
(-1.17283e-07 -1.21149e-07 -0.000714063)
(0.000627926 -1.74612e-05 -1.41665e-06)
(-3.43958e-06 0.000712474 -1.4527e-06)
(1.34138e-07 1.6097e-07 0.000714765)
(-1.33624e-07 -1.65161e-07 -0.00071442)
(0.000628316 -1.93549e-05 -1.56532e-06)
(-3.92382e-06 0.000712517 -1.84247e-06)
(1.48456e-07 2.26833e-07 0.000715175)
(-1.45745e-07 -2.31802e-07 -0.000714804)
(0.000628713 -2.14558e-05 -1.68075e-06)
(-4.4631e-06 0.000712515 -2.33877e-06)
(1.54776e-07 3.31667e-07 0.000715505)
(-1.48443e-07 -3.37033e-07 -0.000715121)
(0.000629106 -2.387e-05 -1.72638e-06)
(-5.01639e-06 0.000712338 -2.98018e-06)
(1.4913e-07 5.02777e-07 0.000715597)
(-1.37388e-07 -5.07238e-07 -0.000715227)
(0.000629476 -2.66804e-05 -1.64635e-06)
(-5.47533e-06 0.000711755 -3.82733e-06)
(1.24721e-07 7.80491e-07 0.000715212)
(-1.06335e-07 -7.81476e-07 -0.000714898)
(0.000629785 -2.98144e-05 -1.37822e-06)
(-5.58525e-06 0.000710413 -4.98348e-06)
(7.55605e-08 1.20337e-06 0.000714055)
(-4.98223e-08 -1.19782e-06 -0.000713839)
(0.000629941 -3.27379e-05 -8.99594e-07)
(-4.57494e-06 0.000707981 -6.64609e-06)
(7.38511e-09 1.74448e-06 0.000712026)
(3.10339e-08 -1.73911e-06 -0.00071189)
(-1.00985e-05 0.000706768 -4.52269e-06)
(4.77892e-08 2.54294e-06 0.000709081)
(9.39865e-08 -2.98575e-06 -0.000710704)
(0.00062524 -2.26192e-06 -2.05259e-07)
(-2.45774e-06 0.000719054 -6.1131e-08)
(5.94494e-08 4.61728e-09 0.00071816)
(-6.10394e-08 -4.7585e-09 -0.000717949)
(0.000625466 -4.34805e-06 -3.97403e-07)
(-2.34248e-06 0.000717872 -1.8241e-07)
(5.80212e-08 1.37728e-08 0.000717321)
(-5.96265e-08 -1.4202e-08 -0.000717112)
(0.00062568 -6.23436e-06 -5.76353e-07)
(-2.26759e-06 0.000716542 -3.0474e-07)
(6.06582e-08 2.30998e-08 0.000716331)
(-6.23282e-08 -2.38391e-08 -0.000716123)
(0.000625889 -7.96519e-06 -7.50476e-07)
(-2.29658e-06 0.000715537 -4.35853e-07)
(6.88471e-08 3.34246e-08 0.000715637)
(-7.06509e-08 -3.45142e-08 -0.000715423)
(0.000626098 -9.58177e-06 -9.25652e-07)
(-2.415e-06 0.000714813 -5.85028e-07)
(8.17715e-08 4.57757e-08 0.000715202)
(-8.37518e-08 -4.7289e-08 -0.000714975)
(0.000626308 -1.11199e-05 -1.10702e-06)
(-2.61313e-06 0.000714331 -7.61595e-07)
(9.91221e-08 6.13914e-08 0.000714994)
(-1.01192e-07 -6.34426e-08 -0.000714747)
(0.000626518 -1.26126e-05 -1.29892e-06)
(-2.88443e-06 0.000714056 -9.75583e-07)
(1.2077e-07 8.20081e-08 0.000714977)
(-1.22714e-07 -8.47389e-08 -0.000714705)
(0.00062672 -1.40992e-05 -1.50239e-06)
(-3.22363e-06 0.000713959 -1.23843e-06)
(1.47073e-07 1.10394e-07 0.000715113)
(-1.48576e-07 -1.14004e-07 -0.000714815)
(0.000626906 -1.56322e-05 -1.71457e-06)
(-3.62482e-06 0.000714012 -1.5639e-06)
(1.78902e-07 1.51284e-07 0.000715356)
(-1.79291e-07 -1.56046e-07 -0.000715033)
(0.000627061 -1.72888e-05 -1.92718e-06)
(-4.08057e-06 0.000714179 -1.96989e-06)
(2.17247e-07 2.12757e-07 0.000715644)
(-2.15424e-07 -2.18913e-07 -0.000715304)
(0.000627173 -1.91842e-05 -2.12525e-06)
(-4.58105e-06 0.000714418 -2.48259e-06)
(2.63814e-07 3.07957e-07 0.000715898)
(-2.57977e-07 -3.15572e-07 -0.000715556)
(0.00062724 -2.14803e-05 -2.27539e-06)
(-5.0965e-06 0.000714643 -3.14308e-06)
(3.25013e-07 4.57605e-07 0.000715998)
(-3.12356e-07 -4.66231e-07 -0.000715685)
(0.000627289 -2.43681e-05 -2.3166e-06)
(-5.54577e-06 0.000714651 -4.02059e-06)
(4.05235e-07 6.93073e-07 0.000715737)
(-3.83153e-07 -7.01053e-07 -0.000715502)
(0.000627379 -2.79591e-05 -2.1396e-06)
(-5.70848e-06 0.000714008 -5.23729e-06)
(4.87954e-07 1.04703e-06 0.000714768)
(-4.54549e-07 -1.05076e-06 -0.000714691)
(0.000627534 -3.17729e-05 -1.4803e-06)
(-4.76566e-06 0.000711796 -7.00916e-06)
(4.88947e-07 1.50453e-06 0.00071248)
(-4.53207e-07 -1.5059e-06 -0.000712777)
(-1.02968e-05 0.000713172 -4.67504e-06)
(9.16852e-07 2.17683e-06 0.000710496)
(-1.4642e-06 -2.49671e-06 -0.000714057)
(0.000625146 -2.0126e-06 -2.32801e-07)
(-2.60156e-06 0.000721067 -6.44918e-08)
(6.74486e-08 4.37293e-09 0.000720256)
(-6.92821e-08 -4.50586e-09 -0.00072002)
(0.000625282 -3.8641e-06 -4.50235e-07)
(-2.47678e-06 0.000719724 -1.92278e-07)
(6.58552e-08 1.30031e-08 0.00071914)
(-6.77111e-08 -1.34035e-08 -0.000718913)
(0.000625408 -5.52984e-06 -6.53121e-07)
(-2.39204e-06 0.000718209 -3.20812e-07)
(6.89221e-08 2.16978e-08 0.000717853)
(-7.08727e-08 -2.23842e-08 -0.000717634)
(0.000625528 -7.04702e-06 -8.49393e-07)
(-2.41378e-06 0.000717055 -4.57936e-07)
(7.83898e-08 3.12061e-08 0.000716903)
(-8.05207e-08 -3.22236e-08 -0.000716684)
(0.00062564 -8.4449e-06 -1.04596e-06)
(-2.52473e-06 0.000716212 -6.12893e-07)
(9.34897e-08 4.24444e-08 0.000716242)
(-9.58847e-08 -4.38701e-08 -0.000716017)
(0.000625741 -9.74619e-06 -1.25187e-06)
(-2.71179e-06 0.000715634 -7.94969e-07)
(1.1417e-07 5.64735e-08 0.000715826)
(-1.16768e-07 -5.84234e-08 -0.000715587)
(0.000625824 -1.09745e-05 -1.47274e-06)
(-2.96473e-06 0.000715287 -1.01368e-06)
(1.40797e-07 7.47158e-08 0.000715614)
(-1.43417e-07 -7.73522e-08 -0.000715355)
(0.000625877 -1.21585e-05 -1.71115e-06)
(-3.27411e-06 0.000715147 -1.27935e-06)
(1.74708e-07 9.9216e-08 0.000715566)
(-1.77111e-07 -1.02776e-07 -0.000715287)
(0.000625883 -1.33371e-05 -1.96806e-06)
(-3.62904e-06 0.000715196 -1.6042e-06)
(2.18466e-07 1.33036e-07 0.000715641)
(-2.20031e-07 -1.37854e-07 -0.000715344)
(0.000625818 -1.45691e-05 -2.24021e-06)
(-4.01678e-06 0.000715418 -2.00389e-06)
(2.75724e-07 1.80768e-07 0.000715789)
(-2.75305e-07 -1.87247e-07 -0.000715483)
(0.000625659 -1.59529e-05 -2.52122e-06)
(-4.42621e-06 0.00071581 -2.50185e-06)
(3.51894e-07 2.48972e-07 0.000715959)
(-3.47622e-07 -2.57645e-07 -0.000715659)
(0.000625392 -1.76356e-05 -2.79325e-06)
(-4.84056e-06 0.000716337 -3.13793e-06)
(4.58756e-07 3.46279e-07 0.000716068)
(-4.47473e-07 -3.57903e-07 -0.000715801)
(0.000625054 -1.98559e-05 -3.01676e-06)
(-5.23036e-06 0.000716886 -3.98801e-06)
(6.08572e-07 4.84795e-07 0.000715971)
(-5.86371e-07 -4.9979e-07 -0.00071578)
(0.000624814 -2.29665e-05 -3.0857e-06)
(-5.50603e-06 0.000717136 -5.20802e-06)
(7.83408e-07 6.82421e-07 0.000715405)
(-7.4571e-07 -6.99332e-07 -0.000715365)
(0.000625007 -2.70358e-05 -2.51756e-06)
(-4.99597e-06 0.000715882 -7.0848e-06)
(8.56493e-07 9.59491e-07 0.000713461)
(-8.1895e-07 -9.76213e-07 -0.000713953)
(-1.15302e-05 0.000724286 -4.67e-06)
(1.72632e-06 1.53604e-06 0.000715589)
(-2.80306e-06 -1.76537e-06 -0.000721329)
(0.000625048 -1.73399e-06 -2.55228e-07)
(7.50233e-08 4.15797e-09 0.000722083)
(-7.70857e-08 -4.28275e-09 -0.000721827)
(-2.64735e-06 0.000722801 -6.54004e-08)
(0.000625092 -3.32865e-06 -4.92982e-07)
(7.32067e-08 1.23259e-08 0.000720705)
(-7.52888e-08 -1.26944e-08 -0.000720464)
(-2.51848e-06 0.000721319 -1.94822e-07)
(0.00062513 -4.75659e-06 -7.14432e-07)
(7.65463e-08 2.04188e-08 0.000719135)
(-7.87518e-08 -2.10398e-08 -0.00071891)
(-2.4277e-06 0.000719637 -3.24605e-07)
(0.000625159 -6.03911e-06 -9.27483e-07)
(8.705e-08 2.90598e-08 0.000717933)
(-8.94895e-08 -2.99801e-08 -0.000717716)
(-2.4413e-06 0.000718339 -4.6247e-07)
(0.000625177 -7.19077e-06 -1.1412e-06)
(1.03918e-07 3.89992e-08 0.000717041)
(-1.06696e-07 -4.02847e-08 -0.000716822)
(-2.53981e-06 0.000717365 -6.17377e-07)
(0.000625176 -8.22442e-06 -1.3658e-06)
(1.2723e-07 5.09616e-08 0.000716404)
(-1.30322e-07 -5.27071e-08 -0.000716176)
(-2.70744e-06 0.000716669 -7.9798e-07)
(0.000625145 -9.15245e-06 -1.60724e-06)
(1.5767e-07 6.58189e-08 0.000715977)
(-1.60951e-07 -6.81828e-08 -0.000715737)
(-2.93025e-06 0.000716217 -1.01268e-06)
(0.000625068 -9.98604e-06 -1.87015e-06)
(1.97012e-07 8.46524e-08 0.000715719)
(-2.00285e-07 -8.78325e-08 -0.000715465)
(-3.19364e-06 0.000715984 -1.27013e-06)
(0.000624922 -1.07383e-05 -2.15726e-06)
(2.48365e-07 1.08586e-07 0.000715588)
(-2.51077e-07 -1.12828e-07 -0.000715325)
(-3.48026e-06 0.000715952 -1.58004e-06)
(0.000624675 -1.14269e-05 -2.46999e-06)
(3.1608e-07 1.38545e-07 0.000715539)
(-3.17191e-07 -1.44254e-07 -0.000715276)
(-3.76883e-06 0.000716112 -1.95399e-06)
(0.000624281 -1.20757e-05 -2.80999e-06)
(4.06125e-07 1.74751e-07 0.000715527)
(-4.03989e-07 -1.8264e-07 -0.000715281)
(-4.03409e-06 0.000716467 -2.40825e-06)
(0.000623673 -1.27162e-05 -3.1751e-06)
(5.28945e-07 2.13986e-07 0.000715452)
(-5.20784e-07 -2.25375e-07 -0.000715256)
(-4.2411e-06 0.000716989 -2.96874e-06)
(0.000622754 -1.34178e-05 -3.55652e-06)
(6.94531e-07 2.44868e-07 0.000715117)
(-6.76432e-07 -2.62099e-07 -0.000715041)
(-4.33003e-06 0.000717605 -3.68203e-06)
(0.00062137 -1.43607e-05 -3.90505e-06)
(8.83915e-07 2.46983e-07 0.00071407)
(-8.50945e-07 -2.74367e-07 -0.000714293)
(-4.15404e-06 0.000718106 -4.63695e-06)
(0.000619348 -1.62957e-05 -3.82491e-06)
(9.87104e-07 2.20783e-07 0.000710971)
(-9.51802e-07 -2.59333e-07 -0.000712167)
(-3.00961e-06 0.000717856 -5.96858e-06)
(2.53892e-06 6.08699e-07 0.000726595)
(-3.98905e-06 -7.6541e-07 -0.000735034)
(-1.76033e-05 0.000746132 -3.90725e-06)
(0.000625549 -2.93961e-06 -1.74191e-08)
(-5.49068e-07 0.000706065 -1.20276e-08)
(6.1749e-09 6.94676e-09 0.000704918)
(0.000626076 -5.66393e-06 -3.37289e-08)
(-5.26573e-07 0.000705851 -3.59723e-08)
(6.08313e-09 2.07352e-08 0.000705427)
(0.000626593 -8.14743e-06 -4.86108e-08)
(-5.15764e-07 0.000705611 -6.02596e-08)
(6.36537e-09 3.47313e-08 0.000705904)
(0.000627124 -1.04495e-05 -6.23478e-08)
(-5.31242e-07 0.00070543 -8.6382e-08)
(7.15155e-09 4.99185e-08 0.000706415)
(0.000627696 -1.26186e-05 -7.55299e-08)
(-5.71168e-07 0.000705298 -1.16198e-07)
(8.31967e-09 6.72906e-08 0.000706982)
(0.000628332 -1.46965e-05 -8.81445e-08)
(-6.35562e-07 0.000705208 -1.51547e-07)
(9.62434e-09 8.74333e-08 0.000707632)
(0.000629057 -1.6712e-05 -9.96463e-08)
(-7.25104e-07 0.000705146 -1.94408e-07)
(1.06377e-08 1.10186e-07 0.000708386)
(0.000629899 -1.86754e-05 -1.0929e-07)
(-8.4181e-07 0.000705095 -2.46902e-07)
(1.06266e-08 1.34102e-07 0.000709265)
(0.000630888 -2.05767e-05 -1.15824e-07)
(-9.89166e-07 0.000705032 -3.11072e-07)
(8.18451e-09 1.55381e-07 0.000710292)
(0.000632056 -2.23676e-05 -1.1728e-07)
(-1.17048e-06 0.000704918 -3.88799e-07)
(7.44378e-10 1.6585e-07 0.000711484)
(0.000633442 -2.39602e-05 -1.12519e-07)
(-1.39211e-06 0.00070471 -4.81268e-07)
(-1.64433e-08 1.49326e-07 0.000712865)
(0.000635087 -2.52149e-05 -1.02988e-07)
(-1.66103e-06 0.000704349 -5.86231e-07)
(-5.09264e-08 7.61753e-08 0.000714456)
(0.000637029 -2.59549e-05 -9.86309e-08)
(-1.97909e-06 0.000703777 -6.89788e-07)
(-1.13355e-07 -1.03084e-07 0.000716291)
(0.00063925 -2.60628e-05 -1.25409e-07)
(-2.31153e-06 0.000703004 -7.45659e-07)
(-2.08493e-07 -4.54911e-07 0.000718421)
(0.000641437 -2.57019e-05 -2.09754e-07)
(-2.37342e-06 0.000702233 -6.62946e-07)
(-2.93623e-07 -1.00559e-06 0.000720807)
(-6.409e-06 0.000701068 -4.10007e-07)
(-9.68135e-07 -2.36959e-06 0.000725876)
(0.000625527 -2.8984e-06 -5.22601e-08)
(-1.07515e-06 0.000708964 -2.35944e-08)
(1.81493e-08 6.52294e-09 0.000707842)
(0.000626032 -5.58645e-06 -1.0128e-07)
(-1.0305e-06 0.00070854 -7.04878e-08)
(1.77931e-08 1.93696e-08 0.00070811)
(0.000626526 -8.0375e-06 -1.46179e-07)
(-1.00823e-06 0.000708064 -1.17917e-07)
(1.85548e-08 3.22264e-08 0.00070832)
(0.000627033 -1.03097e-05 -1.87943e-07)
(-1.03701e-06 0.000707705 -1.68821e-07)
(2.08412e-08 4.60808e-08 0.000708621)
(0.000627577 -1.24556e-05 -2.28065e-07)
(-1.11343e-06 0.000707448 -2.26817e-07)
(2.42716e-08 6.19372e-08 0.000709026)
(0.000628179 -1.45171e-05 -2.66639e-07)
(-1.2365e-06 0.000707275 -2.95599e-07)
(2.8175e-08 8.04542e-08 0.000709549)
(0.000628862 -1.65217e-05 -3.02193e-07)
(-1.40732e-06 0.000707157 -3.78922e-07)
(3.15635e-08 1.01955e-07 0.000710195)
(0.00062965 -1.84855e-05 -3.32442e-07)
(-1.62964e-06 0.000707065 -4.80597e-07)
(3.26118e-08 1.26249e-07 0.000710966)
(0.000630567 -2.04063e-05 -3.53189e-07)
(-1.90788e-06 0.00070696 -6.04564e-07)
(2.76567e-08 1.51869e-07 0.00071186)
(0.000631638 -2.2259e-05 -3.58397e-07)
(-2.24674e-06 0.000706776 -7.54247e-07)
(1.00299e-08 1.74832e-07 0.000712856)
(0.000632881 -2.39784e-05 -3.44663e-07)
(-2.65087e-06 0.00070643 -9.30717e-07)
(-3.19993e-08 1.87231e-07 0.000713923)
(0.000634299 -2.54482e-05 -3.12358e-07)
(-3.11734e-06 0.000705808 -1.12721e-06)
(-1.16104e-07 1.76204e-07 0.000715005)
(0.000635849 -2.64965e-05 -2.82719e-07)
(-3.61866e-06 0.000704792 -1.31396e-06)
(-2.64611e-07 1.25321e-07 0.000716037)
(0.000637357 -2.69391e-05 -3.18266e-07)
(-4.02565e-06 0.000703374 -1.40218e-06)
(-4.80005e-07 2.4145e-08 0.00071701)
(0.000638383 -2.67525e-05 -4.84891e-07)
(-3.80064e-06 0.000701923 -1.23451e-06)
(-6.49034e-07 -1.04678e-07 0.000718015)
(-5.78468e-06 0.000697857 -3.89333e-07)
(-1.61249e-06 2.23962e-07 0.000717024)
(0.000625483 -2.81377e-06 -8.67556e-08)
(-1.55659e-06 0.000711778 -3.41671e-08)
(2.91891e-08 5.89037e-09 0.000710689)
(0.000625945 -5.42276e-06 -1.67917e-07)
(-1.49069e-06 0.00071115 -1.02011e-07)
(2.84648e-08 1.74454e-08 0.000710698)
(0.000626395 -7.79975e-06 -2.42535e-07)
(-1.45615e-06 0.000710443 -1.70556e-07)
(2.9606e-08 2.89613e-08 0.000710621)
(0.000626855 -1.00055e-05 -3.1268e-07)
(-1.4949e-06 0.000709914 -2.44045e-07)
(3.33058e-08 4.14294e-08 0.000710692)
(0.000627345 -1.20945e-05 -3.80634e-07)
(-1.60128e-06 0.000709541 -3.27607e-07)
(3.88958e-08 5.58382e-08 0.000710916)
(0.000627883 -1.41045e-05 -4.46585e-07)
(-1.77211e-06 0.000709289 -4.26417e-07)
(4.55695e-08 7.30686e-08 0.000711286)
(0.000628486 -1.60669e-05 -5.08274e-07)
(-2.0084e-06 0.000709125 -5.45571e-07)
(5.22621e-08 9.41305e-08 0.000711792)
(0.000629172 -1.801e-05 -5.61876e-07)
(-2.31421e-06 0.000709015 -6.90186e-07)
(5.6781e-08 1.2013e-07 0.000712422)
(0.000629956 -1.99475e-05 -6.00217e-07)
(-2.69342e-06 0.000708905 -8.65456e-07)
(5.47549e-08 1.52416e-07 0.000713148)
(0.000630852 -2.18861e-05 -6.13724e-07)
(-3.14968e-06 0.000708724 -1.07554e-06)
(3.81433e-08 1.92849e-07 0.000713923)
(0.000631862 -2.38033e-05 -5.93921e-07)
(-3.67897e-06 0.000708358 -1.32037e-06)
(-6.06449e-09 2.44812e-07 0.000714663)
(0.000632958 -2.56362e-05 -5.33271e-07)
(-4.2565e-06 0.000707656 -1.5874e-06)
(-9.62205e-08 3.15211e-07 0.000715239)
(0.000634053 -2.72594e-05 -4.46249e-07)
(-4.80958e-06 0.000706444 -1.83112e-06)
(-2.51426e-07 4.17906e-07 0.000715488)
(0.000634943 -2.84666e-05 -3.97556e-07)
(-5.1195e-06 0.000704656 -1.9273e-06)
(-4.61355e-07 5.76319e-07 0.000715317)
(0.000635308 -2.9064e-05 -4.73504e-07)
(-4.52686e-06 0.00070271 -1.674e-06)
(-5.93885e-07 8.03968e-07 0.000714963)
(-6.48305e-06 0.000698985 -5.21216e-07)
(-1.0004e-06 1.26663e-06 0.000712702)
(0.00062542 -2.68368e-06 -1.19616e-07)
(-1.97409e-06 0.000714462 -4.32974e-08)
(3.90281e-08 5.16337e-09 0.000713417)
(0.000625821 -5.16911e-06 -2.31394e-07)
(-1.88875e-06 0.000713637 -1.29271e-07)
(3.79789e-08 1.53397e-08 0.000713151)
(0.000626209 -7.43205e-06 -3.34406e-07)
(-1.84168e-06 0.000712708 -2.16049e-07)
(3.95372e-08 2.56072e-08 0.000712773)
(0.000626603 -9.53154e-06 -4.32332e-07)
(-1.88593e-06 0.000712016 -3.08873e-07)
(4.46308e-08 3.68722e-08 0.000712602)
(0.000627017 -1.1514e-05 -5.2853e-07)
(-2.01247e-06 0.000711527 -4.14125e-07)
(5.24184e-08 5.01379e-08 0.000712625)
(0.000627464 -1.34198e-05 -6.22737e-07)
(-2.21639e-06 0.000711199 -5.37957e-07)
(6.22645e-08 6.6533e-08 0.000712819)
(0.000627957 -1.52914e-05 -7.12158e-07)
(-2.4976e-06 0.000711003 -6.86328e-07)
(7.32972e-08 8.74984e-08 0.000713165)
(0.000628503 -1.71687e-05 -7.91882e-07)
(-2.85851e-06 0.0007109 -8.65234e-07)
(8.3717e-08 1.15118e-07 0.000713639)
(0.000629111 -1.90879e-05 -8.5277e-07)
(-3.30145e-06 0.000710834 -1.08039e-06)
(9.02034e-08 1.53015e-07 0.000714194)
(0.000629784 -2.10808e-05 -8.82316e-07)
(-3.82653e-06 0.00071073 -1.33601e-06)
(8.65062e-08 2.07798e-07 0.000714764)
(0.000630514 -2.31784e-05 -8.63684e-07)
(-4.42271e-06 0.000710476 -1.63081e-06)
(6.33324e-08 2.91172e-07 0.000715238)
(0.000631273 -2.53942e-05 -7.77618e-07)
(-5.04769e-06 0.000709907 -1.94742e-06)
(8.45546e-09 4.22818e-07 0.000715447)
(0.000631986 -2.7682e-05 -6.14078e-07)
(-5.59015e-06 0.000708801 -2.22771e-06)
(-9.02899e-08 6.2998e-07 0.000715161)
(0.000632519 -2.98546e-05 -4.07545e-07)
(-5.78184e-06 0.000706977 -2.32133e-06)
(-2.22744e-07 9.34668e-07 0.000714206)
(0.000632718 -3.15024e-05 -2.57733e-07)
(-4.93351e-06 0.000704656 -1.99637e-06)
(-3.03004e-07 1.30647e-06 0.000712845)
(-6.55087e-06 0.000701493 -6.60506e-07)
(-4.44727e-07 1.79983e-06 0.000710025)
(0.000625342 -2.50791e-06 -1.49784e-07)
(-2.31254e-06 0.00071697 -5.06565e-08)
(4.77588e-08 4.63719e-09 0.000715982)
(0.000625666 -4.82648e-06 -2.90351e-07)
(-2.21001e-06 0.000715956 -1.5121e-07)
(4.65034e-08 1.38225e-08 0.000715431)
(0.000625978 -6.93389e-06 -4.20279e-07)
(-2.15045e-06 0.000714817 -2.52521e-07)
(4.85448e-08 2.31737e-08 0.000714747)
(0.00062629 -8.88036e-06 -5.44923e-07)
(-2.19478e-06 0.000713965 -3.60547e-07)
(5.50233e-08 3.35301e-08 0.000714321)
(0.000626613 -1.0708e-05 -6.68099e-07)
(-2.33091e-06 0.000713358 -4.82468e-07)
(6.51118e-08 4.59192e-08 0.000714124)
(0.000626953 -1.24627e-05 -7.89028e-07)
(-2.55216e-06 0.000712958 -6.24994e-07)
(7.8401e-08 6.15278e-08 0.000714126)
(0.000627316 -1.41897e-05 -9.05776e-07)
(-2.85595e-06 0.000712735 -7.94574e-07)
(9.44269e-08 8.19695e-08 0.000714301)
(0.000627703 -1.59327e-05 -1.01356e-06)
(-3.24144e-06 0.000712651 -9.9753e-07)
(1.12418e-07 1.09887e-07 0.000714616)
(0.000628112 -1.77438e-05 -1.10234e-06)
(-3.70761e-06 0.000712656 -1.23962e-06)
(1.31147e-07 1.4999e-07 0.000715013)
(0.000628537 -1.96841e-05 -1.15678e-06)
(-4.25152e-06 0.000712687 -1.52484e-06)
(1.4803e-07 2.10675e-07 0.000715418)
(0.000628971 -2.18362e-05 -1.15308e-06)
(-4.86127e-06 0.000712654 -1.85127e-06)
(1.59517e-07 3.06012e-07 0.000715721)
(0.000629401 -2.42951e-05 -1.05646e-06)
(-5.49093e-06 0.00071241 -2.19906e-06)
(1.6216e-07 4.58451e-07 0.000715752)
(0.000629805 -2.71165e-05 -8.21434e-07)
(-6.017e-06 0.000711706 -2.50272e-06)
(1.48269e-07 6.97372e-07 0.000715252)
(0.000630139 -3.01701e-05 -4.31005e-07)
(-6.15061e-06 0.000710194 -2.59612e-06)
(1.10122e-07 1.04e-06 0.00071394)
(0.000630325 -3.28126e-05 1.47963e-08)
(-5.16362e-06 0.000707604 -2.22677e-06)
(5.14575e-08 1.43885e-06 0.000711811)
(-6.36351e-06 0.000705109 -7.97901e-07)
(5.41301e-08 1.89051e-06 0.000708923)
(0.000625251 -2.29003e-06 -1.77212e-07)
(-2.56025e-06 0.000719261 -5.59908e-08)