/*--------------------------------*- C++ -*----------------------------------*\
| =========                 |                                                 |
| \\      /  F ield         | foam-extend: Open Source CFD                    |
|  \\    /   O peration     | Version:     3.1                                |
|   \\  /    A nd           | Web:         http://www.extend-project.de       |
|    \\/     M anipulation  |                                                 |
\*---------------------------------------------------------------------------*/
FoamFile
{
    version     2.0;
    format      ascii;
    class       surfaceScalarField;
    location    "0.0018";
    object      meshPhi;
}
// * * * * * * * * * * * * * * * * * * * * * * * * * * * * * * * * * * * * * //

dimensions      [0 3 -1 0 0 0 0];

internalField   nonuniform List<scalar> 
45800
(
5.37085e-11
5.37708e-11
1.19375e-10
1.01675e-10
5.26598e-11
1.17981e-10
1.41321e-10
5.01837e-11
1.17206e-10
1.71724e-10
4.70222e-11
1.16811e-10
1.92537e-10
4.34367e-11
1.16535e-10
2.03719e-10
3.95265e-11
1.16097e-10
2.05518e-10
3.53913e-11
1.15211e-10
1.98525e-10
3.11391e-11
1.13601e-10
1.83708e-10
2.688e-11
1.1103e-10
2.25291e-11
1.07307e-10
1.62298e-10
5.25998e-11
1.01595e-10
1.17968e-10
1.00163e-10
1.00158e-10
1.16526e-10
1.40002e-10
9.62039e-11
1.15658e-10
1.7076e-10
9.06159e-11
1.15129e-10
1.91935e-10
8.40236e-11
1.14702e-10
2.03476e-10
7.67299e-11
1.14114e-10
2.05632e-10
6.89363e-11
1.13094e-10
1.9901e-10
6.08618e-11
1.11383e-10
1.84619e-10
5.27096e-11
1.08759e-10
4.43286e-11
1.05066e-10
1.63927e-10
5.02018e-11
1.41066e-10
1.17181e-10
9.62096e-11
1.39824e-10
1.15641e-10
1.3546e-10
1.35376e-10
1.1461e-10
1.66242e-10
1.28401e-10
1.13867e-10
1.87712e-10
1.1967e-10
1.13194e-10
1.99705e-10
1.09769e-10
1.12358e-10
2.02455e-10
9.90524e-11
1.11113e-10
1.96559e-10
8.78134e-11
1.09222e-10
1.83032e-10
7.63579e-11
1.06486e-10
6.45264e-11
1.02781e-10
1.63527e-10
4.711e-11
1.71393e-10
1.16779e-10
9.07133e-11
1.70459e-10
1.15102e-10
1.28484e-10
1.66022e-10
1.1385e-10
1.58679e-10
1.58545e-10
1.12832e-10
1.80201e-10
1.48648e-10
1.11851e-10
1.92619e-10
1.37002e-10
1.10697e-10
1.96061e-10
1.2417e-10
1.09157e-10
1.9108e-10
1.10562e-10
1.07021e-10
1.78651e-10
9.65421e-11
1.04115e-10
8.20063e-11
1.00354e-10
1.60653e-10
4.35317e-11
1.92181e-10
1.16498e-10
8.41854e-11
1.91595e-10
1.14671e-10
1.19832e-10
1.87409e-10
1.1317e-10
1.48779e-10
1.79973e-10
1.11838e-10
1.69902e-10
1.69752e-10
1.10511e-10
1.82578e-10
1.57279e-10
1.09003e-10
1.86705e-10
1.43163e-10
1.07127e-10
1.82694e-10
1.27986e-10
1.04704e-10
1.71458e-10
1.12209e-10
1.01587e-10
9.58207e-11
9.77352e-11
1.55168e-10
3.96113e-11
2.03358e-10
1.16059e-10
7.68933e-11
2.03129e-10
1.14081e-10
1.0998e-10
1.9938e-10
1.12333e-10
1.37199e-10
1.92333e-10
1.1068e-10
1.57423e-10
1.82369e-10
1.08995e-10
1.70015e-10
1.69894e-10
1.07125e-10
1.74709e-10
1.55377e-10
1.04907e-10
1.71664e-10
1.39427e-10
1.02184e-10
1.61659e-10
1.22673e-10
9.88392e-11
1.05316e-10
9.48844e-11
1.4719e-10
3.54661e-11
2.0517e-10
1.15173e-10
6.9082e-11
2.05297e-10
1.13061e-10
9.92597e-11
2.02138e-10
1.11088e-10
1.24413e-10
1.95769e-10
1.09141e-10
1.43377e-10
1.86454e-10
1.07118e-10
1.55497e-10
1.74546e-10
1.04902e-10
1.60495e-10
1.60413e-10
1.02362e-10
1.58376e-10
1.44564e-10
9.93659e-11
1.49678e-10
1.27673e-10
9.58154e-11
1.10233e-10
9.17744e-11
1.37076e-10
3.12036e-11
1.98203e-10
1.13566e-10
6.09889e-11
1.987e-10
1.11352e-10
8.79984e-11
1.96265e-10
1.092e-10
1.10798e-10
1.90808e-10
1.07009e-10
1.2825e-10
1.82451e-10
1.047e-10
1.39637e-10
1.71478e-10
1.02183e-10
1.44672e-10
1.58267e-10
9.93654e-11
1.43404e-10
1.43325e-10
9.61545e-11
1.36131e-10
1.27251e-10
9.24687e-11
1.10704e-10
8.84021e-11
1.25439e-10
2.69331e-11
1.83424e-10
1.10997e-10
5.28152e-11
1.84345e-10
1.08732e-10
7.65133e-11
1.82772e-10
1.06466e-10
9.67426e-11
1.78411e-10
1.04105e-10
1.12448e-10
1.71246e-10
1.01585e-10
1.22917e-10
1.61489e-10
9.88426e-11
1.27843e-10
1.4955e-10
9.58191e-11
1.27352e-10
1.36032e-10
9.24705e-11
1.21695e-10
1.21617e-10
8.87571e-11
1.07234e-10
8.4803e-11
1.1323e-10
2.25697e-11
1.07278e-10
1.62068e-10
4.44098e-11
1.05043e-10
1.63704e-10
6.46464e-11
1.02765e-10
1.63316e-10
8.216e-11
1.00346e-10
1.60457e-10
9.59986e-11
9.77342e-11
1.54995e-10
1.05504e-10
9.48881e-11
1.47045e-10
1.10392e-10
9.17795e-11
1.3696e-10
1.1082e-10
8.84067e-11
1.25355e-10
1.07315e-10
8.48064e-11
1.13184e-10
8.11177e-11
1.01531e-10
1.01499e-10
1.69343e-10
1.69544e-10
2.35217e-10
3.20915e-10
1.66171e-10
2.32755e-10
4.46866e-10
1.5857e-10
2.31711e-10
5.44514e-10
1.48892e-10
2.31688e-10
6.1292e-10
1.37955e-10
2.32169e-10
6.52009e-10
1.26059e-10
2.32591e-10
6.62549e-10
1.13507e-10
2.32386e-10
6.46305e-10
1.00631e-10
2.31011e-10
6.06152e-10
8.77774e-11
2.27983e-10
7.47242e-11
2.22901e-10
5.45712e-10
1.65969e-10
3.20673e-10
2.32719e-10
3.16411e-10
3.16404e-10
2.30185e-10
4.43088e-10
3.04352e-10
2.28972e-10
5.41937e-10
2.8729e-10
2.28668e-10
6.11547e-10
2.67194e-10
2.28812e-10
6.51818e-10
2.45021e-10
2.2889e-10
6.63518e-10
2.2138e-10
2.28364e-10
6.48452e-10
1.96946e-10
2.2672e-10
6.09615e-10
1.72355e-10
2.23504e-10
1.47208e-10
2.18356e-10
5.51286e-10
1.58603e-10
4.46098e-10
2.31652e-10
3.04341e-10
4.42546e-10
2.28928e-10
4.29352e-10
4.29109e-10
2.27399e-10
5.28407e-10
4.07915e-10
2.26653e-10
5.9902e-10
3.8135e-10
2.26265e-10
6.4075e-10
3.51272e-10
2.2579e-10
6.54314e-10
3.18789e-10
2.24745e-10
6.41479e-10
2.848e-10
2.22655e-10
6.05264e-10
2.50259e-10
2.19107e-10
2.14769e-10
2.13804e-10
5.505e-10
1.49152e-10
5.43527e-10
2.31624e-10
2.8756e-10
5.41036e-10
2.28608e-10
4.08133e-10
5.27748e-10
2.26614e-10
5.05532e-10
5.05146e-10
2.25289e-10
5.76409e-10
4.75133e-10
2.24239e-10
6.19494e-10
4.39792e-10
2.23057e-10
6.35193e-10
4.00904e-10
2.21332e-10
6.25143e-10
3.59765e-10
2.18649e-10
5.92242e-10
3.17511e-10
2.14641e-10
2.73924e-10
2.09087e-10
5.42023e-10
1.38244e-10
6.11865e-10
2.32102e-10
2.67679e-10
6.1054e-10
2.28753e-10
3.81812e-10
5.98118e-10
2.26216e-10
4.7549e-10
5.75727e-10
2.24209e-10
5.45255e-10
5.44825e-10
2.22407e-10
5.89185e-10
5.07046e-10
2.2044e-10
6.0697e-10
4.6428e-10
2.17939e-10
5.99851e-10
4.18381e-10
2.14558e-10
5.70536e-10
3.70832e-10
2.09994e-10
3.21707e-10
2.04121e-10
5.25481e-10
1.26316e-10
6.50943e-10
2.32524e-10
2.45517e-10
6.50794e-10
2.28832e-10
3.51902e-10
6.39788e-10
2.25744e-10
4.40354e-10
6.18645e-10
2.23022e-10
5.07435e-10
5.88562e-10
2.20418e-10
5.51174e-10
5.50833e-10
2.17637e-10
5.70695e-10
5.06895e-10
2.14344e-10
5.66462e-10
4.58632e-10
2.10227e-10
5.40816e-10
4.08091e-10
2.05054e-10
3.56054e-10
1.98826e-10
5.01253e-10
1.13734e-10
6.61524e-10
2.32324e-10
2.21822e-10
6.62531e-10
2.28311e-10
3.19415e-10
6.5338e-10
2.24706e-10
4.01629e-10
6.34333e-10
2.21306e-10
4.64885e-10
6.0623e-10
2.17918e-10
5.07194e-10
5.70205e-10
2.14324e-10
5.27657e-10
5.2744e-10
2.10266e-10
5.2619e-10
4.79474e-10
2.0546e-10
5.04402e-10
4.2845e-10
1.99704e-10
3.76093e-10
1.93131e-10
4.70441e-10
1.00827e-10
6.45361e-10
2.30958e-10
1.97331e-10
6.47542e-10
2.26675e-10
2.8536e-10
6.40616e-10
2.22624e-10
3.60483e-10
6.24345e-10
2.18632e-10
4.19169e-10
5.99137e-10
2.14551e-10
4.59212e-10
5.65901e-10
2.10213e-10
4.79735e-10
5.25857e-10
2.05444e-10
4.80782e-10
4.80569e-10
2.00043e-10
4.63184e-10
4.3191e-10
1.93823e-10
3.82117e-10
1.86998e-10
4.34906e-10
8.79382e-11
6.05321e-10
2.27939e-10
1.72675e-10
6.08814e-10
2.23469e-10
2.50729e-10
6.04504e-10
2.19084e-10
3.18117e-10
5.9154e-10
2.1463e-10
3.71556e-10
5.69916e-10
2.09994e-10
4.08811e-10
5.40316e-10
2.05055e-10
4.28915e-10
5.04019e-10
1.99698e-10
4.32173e-10
4.62893e-10
1.93817e-10
4.19274e-10
4.19058e-10
1.87309e-10
3.75512e-10
1.80444e-10
3.97515e-10
7.48469e-11
2.22868e-10
5.45038e-10
1.47453e-10
2.1833e-10
5.50636e-10
2.1513e-10
2.13788e-10
5.49884e-10
2.74385e-10
2.09081e-10
5.41455e-10
3.22239e-10
2.04123e-10
5.24977e-10
3.56612e-10
1.98831e-10
5.00831e-10
3.76556e-10
1.93135e-10
4.70104e-10
3.82442e-10
1.86999e-10
4.3466e-10
3.7573e-10
1.80445e-10
3.97379e-10
1.7374e-10
3.61593e-10
3.61506e-10
3.07507e-10
3.07875e-10
3.39064e-10
5.83967e-10
3.02132e-10
3.36251e-10
8.15845e-10
2.89028e-10
3.36126e-10
9.98965e-10
2.72426e-10
3.3815e-10
1.13214e-09
2.53757e-10
3.4155e-10
1.21536e-09
2.33546e-10
3.45485e-10
1.24992e-09
2.12311e-10
3.49108e-10
1.23865e-09
1.90631e-10
3.51593e-10
1.18613e-09
1.69114e-10
3.52172e-10
1.4742e-10
3.50147e-10
1.09806e-09
3.01744e-10
5.83563e-10
3.36189e-10
5.76579e-10
5.76581e-10
3.33283e-10
8.10103e-10
5.55996e-10
3.32897e-10
9.95623e-10
5.26794e-10
3.34442e-10
1.13116e-09
4.92531e-10
3.3725e-10
1.21667e-09
4.54914e-10
3.40564e-10
1.25343e-09
4.14974e-10
3.43577e-10
1.24433e-09
3.73881e-10
3.45503e-10
1.19414e-09
3.3275e-10
3.45602e-10
2.90923e-10
3.43184e-10
1.10948e-09
2.8903e-10
8.14589e-10
3.36034e-10
5.55924e-10
8.09218e-10
3.32824e-10
7.8697e-10
7.86616e-10
3.3193e-10
9.73265e-10
7.50616e-10
3.32742e-10
1.11084e-09
7.05468e-10
3.34637e-10
1.19908e-09
6.54515e-10
3.36973e-10
1.23918e-09
5.99716e-10
3.39033e-10
1.23394e-09
5.4262e-10
3.40075e-10
1.18819e-09
4.84882e-10
3.39415e-10
4.25855e-10
3.36439e-10
1.10947e-09
2.72844e-10
9.97383e-10
3.38063e-10
5.27198e-10
9.94175e-10
3.34352e-10
7.50884e-10
9.72212e-10
3.32679e-10
9.34758e-10
9.34199e-10
3.32524e-10
1.07312e-09
8.83471e-10
3.33288e-10
1.16386e-09
8.23711e-10
3.34376e-10
1.20768e-09
7.58139e-10
3.3519e-10
1.20716e-09
6.89073e-10
3.35084e-10
1.16694e-09
6.18476e-10
3.33435e-10
5.45995e-10
3.29739e-10
1.09583e-09
2.54243e-10
1.13045e-09
3.41467e-10
4.93334e-10
1.12955e-09
3.37174e-10
7.06168e-10
1.10939e-09
3.34566e-10
8.83942e-10
1.07203e-09
3.33237e-10
1.0207e-09
1.02007e-09
3.32703e-10
1.11306e-09
9.56381e-10
3.32403e-10
1.16043e-09
8.84287e-10
3.31789e-10
1.1648e-09
8.07158e-10
3.30332e-10
1.13051e-09
7.27697e-10
3.27521e-10
6.46016e-10
3.22986e-10
1.06803e-09
2.3398e-10
1.21366e-09
3.45407e-10
4.55749e-10
1.21503e-09
3.40497e-10
6.55546e-10
1.19754e-09
3.36918e-10
8.24559e-10
1.1625e-09
3.34324e-10
9.56888e-10
1.11207e-09
3.32363e-10
1.04907e-09
1.0486e-09
3.30598e-10
1.0994e-09
9.74609e-10
3.28511e-10
1.10849e-09
8.93386e-10
3.25609e-10
1.08015e-09
8.08747e-10
3.21512e-10
7.22145e-10
3.16052e-10
1.02679e-09
2.12693e-10
1.24829e-09
3.49043e-10
4.15715e-10
1.25186e-09
3.43522e-10
6.00764e-10
1.23769e-09
3.38994e-10
7.59328e-10
1.20631e-09
3.35163e-10
8.85189e-10
1.15925e-09
3.31753e-10
9.7492e-10
1.09861e-09
3.28464e-10
1.02682e-09
1.02657e-09
3.24907e-10
1.0404e-09
9.45748e-10
3.20606e-10
1.01818e-09
8.59996e-10
3.15205e-10
7.72593e-10
3.08782e-10
9.74007e-10
1.9096e-10
1.23715e-09
3.51548e-10
3.74528e-10
1.24289e-09
3.45467e-10
5.4356e-10
1.23257e-09
3.40051e-10
6.9028e-10
1.2059e-09
3.35073e-10
8.08458e-10
1.16366e-09
3.30323e-10
8.94208e-10
1.10756e-09
3.25568e-10
9.45989e-10
1.03984e-09
3.20556e-10
9.63505e-10
9.63231e-10
3.14929e-10
9.47851e-10
8.81032e-10
3.08338e-10
7.97463e-10
3.01018e-10
9.12811e-10
1.69385e-10
1.18482e-09
3.52148e-10
3.33286e-10
1.19288e-09
3.45585e-10
4.85669e-10
1.18699e-09
3.39408e-10
6.19491e-10
1.16584e-09
3.33435e-10
7.28917e-10
1.12953e-09
3.27526e-10
8.09905e-10
1.07934e-09
3.21501e-10
8.60646e-10
1.01755e-09
3.15171e-10
8.81355e-10
9.47383e-10
3.08312e-10
8.72892e-10
8.72583e-10
3.00691e-10
7.98602e-10
2.92639e-10
8.48005e-10
1.47626e-10
3.50142e-10
1.097e-09
2.91332e-10
3.43183e-10
1.10846e-09
4.26457e-10
3.36445e-10
1.1085e-09
5.46761e-10
3.29748e-10
1.09493e-09
6.46895e-10
3.22995e-10
1.06724e-09
7.23054e-10
3.16055e-10
1.02613e-09
7.73326e-10
3.08778e-10
9.73473e-10
7.97943e-10
3.01008e-10
9.1242e-10
7.98898e-10
2.9263e-10
8.4779e-10
2.83954e-10
7.85355e-10
7.85235e-10
4.79562e-10
4.80178e-10
4.17767e-10
9.13105e-10
4.71954e-10
4.15713e-10
1.28088e-09
4.52866e-10
4.18213e-10
1.57769e-09
4.28834e-10
4.24579e-10
1.80263e-09
4.02006e-10
4.33797e-10
1.95591e-09
3.7316e-10
4.44758e-10
2.03932e-09
3.4304e-10
4.56346e-10
2.05649e-09
3.12492e-10
4.67441e-10
2.01326e-09
2.82419e-10
4.76925e-10
2.52346e-10
4.83691e-10
1.91667e-09
4.71296e-10
9.12615e-10
4.15628e-10
9.03067e-10
9.03163e-10
4.1343e-10
1.27397e-09
8.73526e-10
4.15522e-10
1.57492e-09
8.31386e-10
4.21141e-10
1.80388e-09
7.82243e-10
4.29428e-10
1.96098e-09
7.28671e-10
4.39388e-10
2.048e-09
6.72133e-10
4.49955e-10
2.06864e-09
6.14334e-10
4.60049e-10
2.02895e-09
5.56904e-10
4.68568e-10
4.98849e-10
4.74326e-10
1.93692e-09
4.52766e-10
1.27925e-09
4.18097e-10
8.73296e-10
1.27285e-09
4.15428e-10
1.24135e-09
1.24101e-09
4.16747e-10
1.54425e-09
1.18961e-09
4.21245e-10
1.77679e-09
1.12515e-09
4.28116e-10
1.93831e-09
1.05274e-09
4.36528e-10
2.03043e-09
9.75339e-10
4.45533e-10
2.05672e-09
8.95157e-10
4.54092e-10
2.02333e-09
8.14597e-10
4.61166e-10
7.32657e-10
4.65634e-10
1.93955e-09
4.29385e-10
1.57565e-09
4.24482e-10
8.31851e-10
1.57305e-09
4.21032e-10
1.18977e-09
1.54292e-09
4.21162e-10
1.48999e-09
1.48941e-09
4.24185e-10
1.72431e-09
1.41752e-09
4.29304e-10
1.8898e-09
1.33282e-09
4.35741e-10
1.98742e-09
1.24025e-09
4.42714e-10
2.02041e-09
1.14333e-09
4.4931e-10
1.99471e-09
1.04488e-09
4.54569e-10
9.44255e-10
4.57493e-10
1.92155e-09
4.02689e-10
1.80043e-09
4.33712e-10
7.83341e-10
1.80177e-09
4.29346e-10
1.12597e-09
1.77488e-09
4.28027e-10
1.41792e-09
1.72292e-09
4.29232e-10
1.6505e-09
1.64984e-09
4.32321e-10
1.81865e-09
1.55991e-09
4.36547e-10
1.92135e-09
1.45815e-09
4.41179e-10
1.9611e-09
1.34975e-09
4.45474e-10
1.94351e-09
1.23886e-09
4.48639e-10
1.12543e-09
4.49826e-10
1.88236e-09
3.7377e-10
1.9537e-09
4.44687e-10
7.29841e-10
1.95885e-09
4.39327e-10
1.05414e-09
1.9363e-09
4.36471e-10
1.33382e-09
1.88803e-09
4.35675e-10
1.56033e-09
1.8174e-09
4.36486e-10
1.72849e-09
1.72806e-09
4.38341e-10
1.83539e-09
1.62372e-09
4.40527e-10
1.88146e-09
1.50927e-09
4.42334e-10
1.87173e-09
1.39073e-09
4.43165e-10
1.27023e-09
4.42444e-10
1.82312e-09
3.43577e-10
2.03721e-09
4.563e-10
6.73171e-10
2.04596e-09
4.49917e-10
9.76799e-10
2.02851e-09
4.45506e-10
1.24187e-09
1.98565e-09
4.4269e-10
1.4592e-09
1.91981e-09
4.41127e-10
1.62377e-09
1.83436e-09
4.40444e-10
1.7328e-09
1.73268e-09
4.40122e-10
1.78479e-09
1.61851e-09
4.39442e-10
1.78282e-09
1.49768e-09
4.37816e-10
1.37542e-09
4.35045e-10
1.74655e-09
3.12955e-10
2.05456e-09
4.67428e-10
6.15242e-10
2.06678e-09
4.60042e-10
8.96475e-10
2.05495e-09
4.54091e-10
1.14503e-09
2.01877e-09
4.49314e-10
1.35154e-09
1.95962e-09
4.45464e-10
1.51013e-09
1.88019e-09
4.4225e-10
1.61846e-09
1.78402e-09
4.39339e-10
1.6753e-09
1.67507e-09
4.36152e-10
1.68145e-09
1.55825e-09
4.32096e-10
1.44029e-09
4.27244e-10
1.65703e-09
2.828e-10
2.01158e-09
4.76949e-10
5.57656e-10
2.02732e-09
4.68594e-10
8.15699e-10
2.02179e-09
4.61192e-10
1.0463e-09
1.99328e-09
4.54591e-10
1.24059e-09
1.94222e-09
4.4865e-10
1.39226e-09
1.87064e-09
4.4313e-10
1.49834e-09
1.78194e-09
4.37735e-10
1.55847e-09
1.68083e-09
4.3204e-10
1.57315e-09
1.57281e-09
4.25596e-10
1.46637e-09
4.18623e-10
1.56126e-09
2.52636e-10
4.83742e-10
1.9153e-09
4.99422e-10
4.74375e-10
1.93561e-09
7.33495e-10
4.65679e-10
1.93831e-09
9.45319e-10
4.57529e-10
1.92041e-09
1.12665e-09
4.49845e-10
1.88134e-09
1.27147e-09
4.4244e-10
1.82225e-09
1.37638e-09
4.35023e-10
1.74584e-09
1.44085e-09
4.27213e-10
1.65651e-09
1.46666e-09
4.18594e-10
1.56097e-09
4.09383e-10
1.4677e-09
1.46758e-09
6.92197e-10
6.93243e-10
4.5352e-10
1.32145e-09
6.82503e-10
4.53589e-10
1.86167e-09
6.56942e-10
4.60642e-10
2.30734e-09
6.25026e-10
4.73808e-10
2.65843e-09
5.8979e-10
4.91854e-10
2.91568e-09
5.52256e-10
5.13455e-10
3.08133e-09
5.13395e-10
5.37269e-10
3.15949e-09
4.74338e-10
5.61907e-10
3.15659e-09
4.36313e-10
5.85878e-10
3.98688e-10
6.07596e-10
3.07993e-09
6.81398e-10
1.32106e-09
4.53486e-10
1.30915e-09
1.30957e-09
4.53305e-10
1.85471e-09
1.27055e-09
4.59735e-10
2.30699e-09
1.21492e-09
4.71822e-10
2.66441e-09
1.15058e-09
4.88529e-10
2.92756e-09
1.08108e-09
5.08665e-10
3.0987e-09
1.00833e-09
5.30941e-10
3.18201e-09
9.34615e-10
5.53999e-10
3.1841e-09
8.62098e-10
5.76339e-10
7.89334e-10
5.96149e-10
3.11291e-09
6.56632e-10
1.85981e-09
4.6051e-10
1.26993e-09
1.85353e-09
4.59626e-10
1.81289e-09
1.8128e-09
4.64926e-10
2.26908e-09
1.74591e-09
4.75409e-10
2.63229e-09
1.66201e-09
4.90093e-10
2.90206e-09
1.56837e-09
5.07988e-10
3.08043e-09
1.46907e-09
5.27945e-10
3.17134e-09
1.36702e-09
5.48628e-10
3.1816e-09
1.26541e-09
5.68595e-10
1.16268e-09
5.86061e-10
3.12076e-09
6.25679e-10
2.30498e-09
4.7371e-10
1.21531e-09
2.30484e-09
4.71703e-10
1.74572e-09
2.26763e-09
4.7531e-10
2.19961e-09
2.19924e-09
4.83692e-10
2.56625e-09
2.10658e-09
4.95871e-10
2.84187e-09
1.99739e-09
5.10908e-10
3.02771e-09
1.87877e-09
5.27861e-10
3.1273e-09
1.75556e-09
5.45543e-10
3.14725e-09
1.63146e-09
5.626e-10
1.5053e-09
5.77355e-10
3.09984e-09
5.90658e-10
2.65589e-09
4.9178e-10
1.15192e-09
2.66198e-09
4.88453e-10
1.66279e-09
2.63008e-09
4.89994e-10
2.10663e-09
2.5647e-09
4.95782e-10
2.47188e-09
2.4714e-09
5.05036e-10
2.75158e-09
2.35608e-09
5.16854e-10
2.94409e-09
2.22571e-09
5.30336e-10
3.05214e-09
2.08767e-09
5.44513e-10
3.08203e-09
1.94776e-09
5.58251e-10
1.8055e-09
5.70008e-10
3.04971e-09
5.53031e-10
2.91314e-09
5.13407e-10
1.08256e-09
2.92512e-09
5.08623e-10
1.57005e-09
2.89974e-09
5.0794e-10
1.99836e-09
2.83983e-09
5.10834e-10
2.35612e-09
2.75021e-09
5.16775e-10
2.63627e-09
2.63611e-09
5.25096e-10
2.83425e-09
2.5026e-09
5.34908e-10
2.94988e-09
2.35637e-09
5.45266e-10
2.98895e-09
2.2061e-09
5.55295e-10
2.05458e-09
5.63765e-10
2.97207e-09
5.14078e-10
3.07891e-09
5.3726e-10
1.00965e-09
3.09638e-09
5.30936e-10
1.47091e-09
3.07823e-09
5.27942e-10
1.88074e-09
3.0257e-09
5.27849e-10
2.22669e-09
2.94232e-09
5.30269e-10
2.50205e-09
2.83307e-09
5.34785e-10
2.70261e-09
2.70284e-09
5.4076e-10
2.8251e-09
2.55646e-09
5.47208e-10
2.87263e-09
2.40205e-09
5.53242e-10
2.24718e-09
5.5813e-10
2.87045e-09
4.74929e-10
3.15729e-09
5.61949e-10
9.35772e-10
3.17989e-09
5.5404e-10
1.3687e-09
3.16933e-09
5.48664e-10
1.75775e-09
3.12543e-09
5.4557e-10
2.08989e-09
3.05043e-09
5.44502e-10
2.357e-09
2.94829e-09
5.45128e-10
2.55576e-09
2.82412e-09
5.47039e-10
2.68325e-09
2.68322e-09
5.49392e-10
2.7392e-09
2.53215e-09
5.51283e-10
2.3809e-09
5.52387e-10
2.75037e-09
4.36799e-10
3.15468e-09
5.85972e-10
8.63057e-10
3.18226e-09
5.76427e-10
1.26681e-09
3.17985e-09
5.68669e-10
1.63328e-09
3.14561e-09
5.62649e-10
1.94999e-09
3.08053e-09
5.58267e-10
2.2079e-09
2.98761e-09
5.55227e-10
2.40248e-09
2.8715e-09
5.531e-10
2.53208e-09
2.73842e-09
5.51188e-10
2.59609e-09
2.5958e-09
5.48747e-10
2.45578e-09
5.45664e-10
2.62018e-09
3.99059e-10
6.07724e-10
3.07839e-09
7.90065e-10
5.96268e-10
3.11144e-09
1.16375e-09
5.86161e-10
3.11937e-09
1.50665e-09
5.77424e-10
3.09854e-09
1.80703e-09
5.70037e-10
3.04854e-09
2.0561e-09
5.63749e-10
2.97104e-09
2.2483e-09
5.58084e-10
2.8696e-09
2.38142e-09
5.52327e-10
2.74973e-09
2.45594e-09
5.45609e-10
2.61981e-09
5.37874e-10
2.49129e-09
2.49118e-09
9.45786e-10
9.47453e-10
4.25321e-10
1.81003e-09
9.34248e-10
4.28934e-10
2.56066e-09
9.01936e-10
4.42272e-10
3.1928e-09
8.62019e-10
4.64229e-10
3.70807e-09
8.18565e-10
4.93416e-10
4.10818e-09
7.7283e-10
5.28392e-10
4.3959e-09
7.26014e-10
5.67697e-10
4.57558e-09
6.79564e-10
6.09767e-10
4.65349e-09
6.3506e-10
6.52797e-10
5.91678e-10
6.9476e-10
4.63599e-09
9.32501e-10
1.80993e-09
4.28824e-10
1.79605e-09
1.79704e-09
4.32014e-10
2.55508e-09
1.74874e-09
4.44449e-10
3.19713e-09
1.67977e-09
4.64967e-10
3.72177e-09
1.60074e-09
4.92388e-10
4.13049e-09
1.51639e-09
5.25407e-10
4.42614e-09
1.42908e-09
5.62614e-10
4.61306e-09
1.3417e-09
6.02453e-10
4.69768e-09
1.257e-09
6.43075e-10
1.17289e-09
6.82037e-10
4.68613e-09
9.01287e-10
2.55872e-09
4.42135e-10
1.74748e-09
2.55404e-09
4.44337e-10
2.50498e-09
2.50539e-09
4.55211e-10
3.15383e-09
2.42384e-09
4.73586e-10
3.68722e-09
2.32158e-09
4.98346e-10
4.10533e-09
2.2084e-09
5.28398e-10
4.41073e-09
2.08971e-09
5.62473e-10
4.60735e-09
1.96914e-09
5.99011e-10
4.70191e-09
1.85065e-09
6.36193e-10
1.73189e-09
6.71535e-10
4.70241e-09
8.62727e-10
3.19031e-09
4.64139e-10
1.67989e-09
3.19489e-09
4.6485e-10
2.42301e-09
3.15245e-09
4.73483e-10
3.07081e-09
3.0709e-09
4.89078e-10
3.61004e-09
2.95929e-09
5.10531e-10
4.03638e-09
2.82793e-09
5.36803e-10
4.35144e-09
2.68641e-09
5.66843e-10
4.55867e-09
2.54114e-09
5.99248e-10
4.66459e-09
2.39664e-09
6.32285e-10
2.25082e-09
6.63523e-10
4.68085e-09
8.19596e-10
3.7054e-09
4.93365e-10
1.60224e-09
3.71921e-09
4.92328e-10
2.32211e-09
3.68489e-09
4.9825e-10
2.9587e-09
3.60853e-09
5.10435e-10
3.4976e-09
3.49758e-09
5.28016e-10
3.92991e-09
3.35979e-09
5.5e-10
4.25329e-09
3.2044e-09
5.75373e-10
4.47044e-09
3.04138e-09
6.02972e-10
4.58767e-09
2.87841e-09
6.31327e-10
2.71401e-09
6.58076e-10
4.6215e-09
7.73751e-10
4.10551e-09
5.28381e-10
1.51815e-09
4.12793e-09
5.25397e-10
2.21028e-09
4.10291e-09
5.28369e-10
2.82864e-09
4.03426e-09
5.36729e-10
3.35913e-09
3.92861e-09
5.4991e-10
3.79273e-09
3.79311e-09
5.67195e-10
4.1229e-09
3.63436e-09
5.87579e-10
4.34843e-09
3.46105e-09
6.09919e-10
4.47537e-09
3.28503e-09
6.33047e-10
3.10947e-09
6.54886e-10
4.52672e-09
7.2683e-10
4.39339e-09
5.67742e-10
1.43065e-09
4.42373e-09
5.62656e-10
2.09188e-09
4.40845e-09
5.62504e-10
2.68865e-09
4.34937e-09
5.66849e-10
3.20508e-09
4.25146e-09
5.75298e-10
3.63278e-09
4.12169e-09
5.87424e-10
3.96595e-09
3.96678e-09
6.02522e-10
4.19874e-09
3.79269e-09
6.19376e-10
4.33363e-09
3.61005e-09
6.36782e-10
3.42902e-09
6.53236e-10
4.40082e-09
6.80272e-10
4.57332e-09
6.09879e-10
1.34308e-09
4.61089e-09
6.02555e-10
1.97115e-09
4.60527e-09
5.99092e-10
2.54377e-09
4.55672e-09
5.993e-10
3.04395e-09
4.46862e-09
6.0296e-10
3.46111e-09
4.34656e-09
6.09729e-10
3.79091e-09
4.19754e-09
6.19141e-10
4.02792e-09
4.02824e-09
6.30104e-10
4.16989e-09
3.84698e-09
6.41387e-10
3.66749e-09
6.52022e-10
4.2502e-09
6.35643e-10
4.65155e-09
6.52976e-10
1.25815e-09
4.69581e-09
6.43237e-10
1.85233e-09
4.70012e-09
6.36323e-10
2.39882e-09
4.6629e-09
6.32365e-10
2.88112e-09
4.58606e-09
6.31347e-10
3.28698e-09
4.47382e-09
6.32936e-10
3.60997e-09
4.33223e-09
6.36573e-10
3.84637e-09
4.16898e-09
6.41252e-10
3.99361e-09
3.99346e-09
6.45899e-10
3.82193e-09
6.49819e-10
4.08439e-09
5.92126e-10
6.94978e-10
4.63445e-09
1.17377e-09
6.82235e-10
4.68464e-09
1.73317e-09
6.71696e-10
4.70099e-09
2.25242e-09
6.63628e-10
4.67952e-09
2.71582e-09
6.58115e-10
4.62026e-09
3.11121e-09
6.54853e-10
4.52558e-09
3.43021e-09
6.5316e-10
4.39985e-09
3.66784e-09
6.51931e-10
4.24944e-09
3.82183e-09
6.49735e-10
4.08391e-09
6.4604e-10
3.9177e-09
3.91762e-09
1.23283e-09
1.23527e-09
3.12067e-10
2.36482e-09
1.21981e-09
3.20455e-10
3.35862e-09
1.18089e-09
3.41119e-10
4.21117e-09
1.1334e-09
3.7269e-10
4.92674e-09
1.08255e-09
4.13733e-10
5.5086e-09
1.02982e-09
4.62849e-10
5.96041e-09
9.76676e-10
5.18632e-10
6.28659e-09
9.24908e-10
5.79513e-10
6.49268e-09
8.76494e-10
6.43546e-10
8.30328e-10
7.08441e-10
6.58296e-09
1.21727e-09
2.36519e-09
3.20358e-10
2.34998e-09
2.35176e-09
3.28088e-10
3.35609e-09
2.29492e-09
3.47533e-10
4.22264e-09
2.21364e-09
3.77338e-10
4.95131e-09
2.12163e-09
4.16253e-10
5.54511e-09
2.02488e-09
4.6299e-10
6.00779e-09
1.92626e-09
5.16176e-10
6.34374e-09
1.82934e-09
5.74225e-10
6.55847e-09
1.73747e-09
6.35095e-10
1.64764e-09
6.95883e-10
6.65459e-09
1.17978e-09
3.35679e-09
3.40998e-10
2.29278e-09
3.35536e-09
3.47437e-10
3.29934e-09
3.30049e-09
3.64873e-10
4.17654e-09
3.20628e-09
3.92034e-10
4.9177e-09
3.08831e-09
4.27744e-10
5.52423e-09
2.95922e-09
4.70898e-10
5.99954e-09
2.82592e-09
5.20244e-10
6.34734e-09
2.69284e-09
5.74154e-10
6.57357e-09
2.56471e-09
6.30576e-10
2.43786e-09
6.86457e-10
6.68276e-09
1.1341e-09
4.20875e-09
3.72623e-10
2.21335e-09
4.2205e-09
3.77245e-10
3.20455e-09
4.17545e-09
3.91947e-10
4.08293e-09
4.08376e-09
4.15716e-10
4.8332e-09
3.95688e-09
4.47424e-10
5.45088e-09
3.808e-09
4.86022e-10
5.93825e-09
3.64961e-09
5.30457e-10
6.29844e-09
3.48983e-09
5.79232e-10
6.53728e-09
3.33403e-09
6.30367e-10
3.17844e-09
6.80762e-10
6.66379e-09
1.0837e-09
4.92416e-09
4.13719e-10
2.12321e-09
4.94884e-09
4.16224e-10
3.08838e-09
4.91545e-09
4.27669e-10
3.95535e-09
4.83195e-09
4.47338e-10
4.7072e-09
4.70791e-09
4.74359e-10
5.33329e-09
4.55321e-09
5.07755e-10
5.83076e-09
4.37968e-09
5.46506e-10
6.20204e-09
4.20025e-09
5.89346e-10
6.45293e-09
4.02467e-09
6.34566e-10
3.84947e-09
6.79013e-10
6.59858e-09
1.03086e-09
5.50605e-09
4.6289e-10
2.02686e-09
5.54267e-09
4.63025e-10
2.96118e-09
5.52192e-09
4.70899e-10
3.80823e-09
5.44889e-09
4.85965e-10
4.55151e-09
5.33229e-09
5.07671e-10
5.18031e-09
5.18153e-09
5.35333e-10
5.68601e-09
5.00499e-09
5.67948e-10
6.06606e-09
4.81364e-09
6.04278e-10
6.32629e-09
4.6229e-09
6.42912e-10
4.4354e-09
6.8088e-10
6.49034e-09
9.77599e-10
5.95804e-09
5.18743e-10
1.92803e-09
6.00552e-09
5.16275e-10
2.82837e-09
5.9974e-09
5.20317e-10
3.652e-09
5.93632e-09
5.30487e-10
4.37981e-09
5.82903e-09
5.46436e-10
5.00199e-09
5.6849e-09
5.67781e-10
5.51117e-09
5.51287e-09
5.93831e-10
5.89833e-09
5.32006e-09
6.23264e-10
6.16467e-09
5.11988e-09
6.54613e-10
4.92457e-09
6.85447e-10
6.34411e-09
9.25713e-10
6.28449e-09
5.79704e-10
1.83091e-09
6.34172e-09
5.74395e-10
2.69512e-09
6.3454e-09
5.74286e-10
3.49286e-09
6.2966e-09
5.79311e-10
4.20308e-09
6.20026e-09
5.89335e-10
4.8128e-09
6.06393e-09
6.0405e-10
5.3168e-09
5.89691e-09
6.22982e-10
5.70642e-09
5.70725e-09
6.4487e-10
5.97666e-09
5.50517e-09
6.68227e-10
5.30795e-09
6.9124e-10
6.16675e-09
8.77158e-10
6.4909e-09
6.43813e-10
1.73878e-09
6.55675e-09
6.35334e-10
2.56661e-09
6.57191e-09
6.30761e-10
3.33651e-09
6.53566e-09
6.30476e-10
4.0278e-09
6.45131e-09
6.34583e-10
4.62481e-09
6.32457e-09
6.42759e-10
5.11899e-09
6.16298e-09
6.54343e-10
5.50377e-09
5.97563e-09
6.68059e-10
5.77378e-09
5.77386e-09
6.8254e-10
5.57791e-09
6.96286e-10
5.96822e-09
8.30841e-10
7.08749e-10
6.58156e-09
1.64864e-09
6.9616e-10
6.65324e-09
2.4393e-09
6.86675e-10
6.68145e-09
3.18024e-09
6.80899e-10
6.66253e-09
3.85148e-09
6.79057e-10
6.59736e-09
4.43726e-09
6.80824e-10
6.48917e-09
4.92571e-09
6.85338e-10
6.34305e-09
5.30799e-09
6.91118e-10
6.16588e-09
5.57739e-09
6.96174e-10
5.96761e-09
6.99294e-10
5.7653e-09
5.76529e-09
1.53712e-09
1.54045e-09
9.70619e-11
2.95476e-09
1.52314e-09
1.10991e-10
4.21143e-09
1.47823e-09
1.38882e-10
5.30708e-09
1.42421e-09
1.79115e-10
6.24971e-09
1.36743e-09
2.30353e-10
7.04493e-09
1.30965e-09
2.91432e-10
7.69779e-09
1.25261e-09
3.61206e-10
8.21298e-09
1.19849e-09
4.3834e-10
8.59492e-09
1.14973e-09
5.21016e-10
1.10477e-09
6.07015e-10
8.8451e-09
1.51968e-09
2.95575e-09
1.1093e-10
2.94002e-09
2.94276e-09
1.23939e-10
4.21352e-09
2.8788e-09
1.50318e-10
5.3279e-09
2.78729e-09
1.88578e-10
6.28789e-09
2.6852e-09
2.37496e-10
7.09883e-09
2.57986e-09
2.95963e-10
7.76593e-09
2.47472e-09
3.62845e-10
8.29371e-09
2.37409e-09
4.36755e-10
8.68633e-09
2.28199e-09
5.15732e-10
2.19398e-09
5.96771e-10
8.94155e-09
1.47659e-09
4.20989e-09
1.38806e-10
2.87562e-09
4.21334e-09
1.50262e-10
4.15241e-09
4.15454e-09
1.74264e-10
5.28208e-09
4.05081e-09
2.09539e-10
6.25896e-09
3.92136e-09
2.54956e-10
7.08643e-09
3.78188e-09
3.09519e-10
7.76926e-09
3.6409e-09
3.72164e-10
8.311e-09
3.50373e-09
4.41421e-10
8.71633e-09
3.37594e-09
5.15262e-10
3.25169e-09
5.90407e-10
8.98474e-09
1.42485e-09
5.30497e-09
1.79088e-10
2.78645e-09
5.32608e-09
1.88533e-10
4.04796e-09
5.28152e-09
2.09491e-10
5.18203e-09
5.18386e-09
2.40992e-10
6.17207e-09
5.04711e-09
2.82015e-10
7.01409e-09
4.88763e-09
3.31626e-10
7.71152e-09
4.72104e-09
3.88897e-10
8.26723e-09
4.55738e-09
4.52436e-10
8.68586e-09
4.40287e-09
5.20258e-10
4.2508e-09
5.88893e-10
8.97213e-09
1.36867e-09
6.24747e-09
2.3039e-10
2.68676e-09
6.28575e-09
2.37513e-10
3.9208e-09
6.25702e-09
2.54927e-10
5.04438e-09
6.17131e-09
2.81962e-10
6.03881e-09
6.04053e-09
3.1785e-10
6.89228e-09
5.8769e-09
3.61766e-10
7.60173e-09
5.6952e-09
4.12823e-10
8.16941e-09
5.51159e-09
4.69808e-10
8.60019e-09
5.338e-09
5.30964e-10
5.16735e-09
5.92601e-10
8.90599e-09
1.31077e-09
7.04275e-09
2.91538e-10
2.58198e-09
7.09676e-09
2.96052e-10
3.78378e-09
7.08446e-09
3.09563e-10
4.88717e-09
7.01244e-09
3.31605e-10
5.87389e-09
6.89181e-09
3.6171e-10
6.73213e-09
6.73449e-09
3.99325e-10
7.45149e-09
6.55093e-09
4.43611e-10
8.02799e-09
6.35469e-09
4.93398e-10
8.46692e-09
6.16505e-09
5.47176e-10
5.98223e-09
6.01224e-10
8.79058e-09
1.2536e-09
7.69579e-09
3.61391e-10
2.47661e-09
7.76403e-09
3.63007e-10
3.64351e-09
7.76747e-09
3.72282e-10
4.72345e-09
7.70994e-09
3.88955e-10
5.69455e-09
7.60028e-09
4.12779e-10
6.54616e-09
7.45067e-09
4.43465e-10
7.2697e-09
7.27254e-09
4.80451e-10
7.85275e-09
7.07442e-09
5.22504e-10
8.29473e-09
6.87266e-09
5.68049e-10
6.67996e-09
6.13739e-10
8.6315e-09
1.19936e-09
8.21125e-09
4.38611e-10
2.37578e-09
8.29204e-09
4.36993e-10
3.5062e-09
8.30939e-09
4.41601e-10
4.5607e-09
8.26566e-09
4.52539e-10
5.51453e-09
8.16779e-09
4.69801e-10
6.35264e-09
8.02567e-09
4.93165e-10
7.06931e-09
7.85115e-09
5.22212e-10
7.65228e-09
7.65378e-09
5.5568e-10
8.09319e-09
7.44577e-09
5.91997e-10
7.24672e-09
6.28417e-10
8.43566e-09
1.15045e-09
8.59348e-09
5.21368e-10
2.28339e-09
8.68494e-09
5.16042e-10
3.37799e-09
8.71496e-09
5.15496e-10
4.40555e-09
8.68448e-09
5.20388e-10
5.34143e-09
8.59868e-09
5.30974e-10
6.1667e-09
8.46506e-09
5.46989e-10
6.87067e-09
8.29276e-09
5.67745e-10
7.44335e-09
8.0921e-09
5.91815e-10
7.87588e-09
7.87631e-09
6.17672e-10
7.66858e-09
6.42884e-10
8.21248e-09
1.10532e-09
6.074e-10
8.84395e-09
2.19506e-09
5.97112e-10
8.94045e-09
3.25323e-09
5.90671e-10
8.98367e-09
4.25271e-09
5.89051e-10
8.97107e-09
5.16945e-09
5.92641e-10
8.90489e-09
5.98406e-09
6.01143e-10
8.78942e-09
6.68091e-09
6.13599e-10
8.6304e-09
7.24629e-09
6.28273e-10
8.43469e-09
7.66748e-09
6.42754e-10
8.21173e-09
6.55031e-10
7.98037e-09
7.98045e-09
1.83398e-09
1.83826e-09
-2.26686e-10
3.53207e-09
1.81963e-09
-2.07118e-10
5.05008e-09
1.76986e-09
-1.73493e-10
6.39201e-09
1.71088e-09
-1.2762e-10
7.57041e-09
1.65016e-09
-7.05883e-11
8.59403e-09
1.58973e-09
-3.15695e-12
9.47003e-09
1.53168e-09
7.39754e-11
1.02038e-08
1.47865e-09
1.59942e-10
1.07988e-08
1.43358e-09
2.53376e-10
1.39417e-09
3.52558e-10
1.12536e-08
1.81521e-09
3.53381e-09
-2.07118e-10
3.51832e-09
3.52215e-09
-1.88708e-10
5.05796e-09
3.45302e-09
-1.56784e-10
6.42353e-09
3.35421e-09
-1.12882e-10
7.62375e-09
3.24583e-09
-5.80927e-11
8.66707e-09
3.13656e-09
6.80504e-12