/*--------------------------------*- C++ -*----------------------------------*\
| =========                 |                                                 |
| \\      /  F ield         | foam-extend: Open Source CFD                    |
|  \\    /   O peration     | Version:     3.1                                |
|   \\  /    A nd           | Web:         http://www.extend-project.de       |
|    \\/     M anipulation  |                                                 |
\*---------------------------------------------------------------------------*/
FoamFile
{
    version     2.0;
    format      ascii;
    class       volScalarField;
    location    "0.0018";
    object      p;
}
// * * * * * * * * * * * * * * * * * * * * * * * * * * * * * * * * * * * * * //

dimensions      [0 2 -2 0 0 0 0];

internalField   nonuniform List<scalar> 
16000
(
1.32531
1.3254
1.32559
1.32587
1.32624
1.3267
1.32725
1.32787
1.32857
1.32932
1.3254
1.32549
1.32567
1.32593
1.32629
1.32673
1.32726
1.32786
1.32854
1.32927
1.32559
1.32567
1.32583
1.32608
1.32642
1.32684
1.32734
1.32792
1.32857
1.32927
1.32587
1.32593
1.32608
1.32631
1.32663
1.32702
1.3275
1.32804
1.32866
1.32933
1.32624
1.32629
1.32642
1.32663
1.32692
1.32728
1.32772
1.32823
1.32881
1.32943
1.3267
1.32673
1.32684
1.32702
1.32728
1.32761
1.32801
1.32848
1.32901
1.32959
1.32725
1.32726
1.32734
1.3275
1.32772
1.32801
1.32837
1.32879
1.32927
1.3298
1.32787
1.32786
1.32792
1.32804
1.32823
1.32848
1.32879
1.32916
1.32959
1.33005
1.32857
1.32854
1.32857
1.32866
1.32881
1.32901
1.32927
1.32959
1.32995
1.33034
1.32932
1.32927
1.32927
1.32933
1.32943
1.32959
1.3298
1.33005
1.33034
1.33066
1.30926
1.30956
1.31015
1.31104
1.31221
1.31367
1.3154
1.31738
1.31959
1.322
1.30956
1.30984
1.3104
1.31124
1.31237
1.31376
1.31542
1.31732
1.31945
1.32178
1.31015
1.3104
1.31092
1.31171
1.31277
1.3141
1.31567
1.31749
1.31952
1.32175
1.31104
1.31124
1.31171
1.31244
1.31343
1.31467
1.31616
1.31787
1.3198
1.32192
1.31221
1.31237
1.31277
1.31343
1.31434
1.31549
1.31687
1.31847
1.32028
1.32228
1.31367
1.31376
1.31409
1.31467
1.31548
1.31653
1.3178
1.31929
1.32097
1.32282
1.3154
1.31542
1.31567
1.31616
1.31687
1.3178
1.31895
1.3203
1.32185
1.32355
1.31738
1.31732
1.31749
1.31787
1.31847
1.31929
1.3203
1.32151
1.32291
1.32446
1.31959
1.31945
1.31952
1.3198
1.32028
1.32097
1.32184
1.32291
1.32414
1.32553
1.322
1.32178
1.32175
1.32192
1.32227
1.32282
1.32355
1.32446
1.32553
1.32675
1.29136
1.29187
1.29289
1.29441
1.29644
1.29896
1.30198
1.30546
1.3094
1.31375
1.29187
1.29234
1.29331
1.29476
1.2967
1.29913
1.30202
1.30537
1.30916
1.31336
1.29289
1.29331
1.2942
1.29557
1.29741
1.29971
1.30247
1.30567
1.30929
1.31331
1.29441
1.29476
1.29557
1.29683
1.29855
1.30072
1.30332
1.30635
1.30979
1.31362
1.29644
1.2967
1.29741
1.29855
1.30013
1.30214
1.30458
1.30743
1.31067
1.31428
1.29896
1.29912
1.29971
1.30072
1.30214
1.30398
1.30623
1.30888
1.31191
1.31529
1.30198
1.30202
1.30247
1.30332
1.30458
1.30623
1.30828
1.31071
1.3135
1.31664
1.30546
1.30537
1.30567
1.30635
1.30742
1.30888
1.31071
1.3129
1.31545
1.31832
1.3094
1.30916
1.30929
1.30979
1.31067
1.3119
1.3135
1.31545
1.31773
1.32032
1.31375
1.31336
1.31331
1.31362
1.31428
1.31529
1.31664
1.31832
1.32032
1.32263
1.27002
1.27074
1.2722
1.27439
1.27731
1.28097
1.28536
1.29048
1.29632
1.30287
1.27074
1.27142
1.27281
1.2749
1.2777
1.2812
1.28542
1.29035
1.29597
1.30227
1.2722
1.27281
1.27409
1.27606
1.27872
1.28206
1.28608
1.29079
1.29617
1.30221
1.27439
1.2749
1.27606
1.27789
1.28037
1.28352
1.28734
1.29181
1.29693
1.30268
1.27731
1.2777
1.27871
1.28037
1.28267
1.28561
1.28919
1.2934
1.29824
1.30369
1.28097
1.2812
1.28205
1.28352
1.28561
1.28832
1.29164
1.29557
1.30011
1.30523
1.28536
1.28542
1.28608
1.28734
1.28919
1.29164
1.29468
1.29831
1.30252
1.30729
1.29048
1.29034
1.29079
1.2918
1.2934
1.29557
1.29831
1.30162
1.30548
1.30988
1.29632
1.29597
1.29617
1.29693
1.29824
1.3001
1.30252
1.30548
1.30898
1.31299
1.30286
1.30227
1.30221
1.30268
1.30369
1.30523
1.30729
1.30988
1.31299
1.31659
1.24387
1.24481
1.2467
1.24955
1.25336
1.25815
1.26395
1.27076
1.27861
1.2875
1.24481
1.24569
1.24749
1.25021
1.25386
1.25846
1.26403
1.27059
1.27814
1.28669
1.2467
1.24749
1.24916
1.25173
1.2552
1.25959
1.26491
1.27118
1.27841
1.28661
1.24955
1.25021
1.25173
1.25411
1.25738
1.26153
1.26658
1.27255
1.27945
1.28727
1.25336
1.25386
1.2552
1.25738
1.26041
1.26429
1.26905
1.2747
1.28123
1.28866
1.25815
1.25846
1.25959
1.26153
1.26429
1.26789
1.27233
1.27763
1.28378
1.29078
1.26394
1.26403
1.26491
1.26658
1.26905
1.27233
1.27643
1.28134
1.28708
1.29364
1.27075
1.27058
1.27118
1.27255
1.27469
1.27762
1.28134
1.28585
1.29116
1.29724
1.2786
1.27813
1.27841
1.27944
1.28123
1.28377
1.28708
1.29116
1.29599
1.30158
1.28749
1.28669
1.28661
1.28726
1.28865
1.29078
1.29364
1.29724
1.30158
1.30664
1.21158
1.21271
1.21499
1.21842
1.22303
1.22886
1.23597
1.24439
1.25418
1.26539
1.21271
1.21377
1.21593
1.21921
1.22364
1.22925
1.23608
1.24418
1.2536
1.26438
1.21498
1.21593
1.21795
1.22105
1.22527
1.23063
1.23716
1.24492
1.25395
1.26429
1.21841
1.21921
1.22105
1.22395
1.22793
1.23301
1.23923
1.24663
1.25525
1.26513
1.22303
1.22364
1.22527
1.22793
1.23163
1.23641
1.24229
1.24931
1.25751
1.2669
1.22886
1.22925
1.23062
1.23301
1.23641
1.24086
1.24637
1.25299
1.26073
1.26962
1.23596
1.23608
1.23716
1.23923
1.24229
1.24637
1.25149
1.25766
1.26493
1.2733
1.24438
1.24417
1.24492
1.24663
1.24931
1.25298
1.25766
1.26337
1.27013
1.27793
1.25417
1.25359
1.25395
1.25525
1.25751
1.26073
1.26493
1.27013
1.27634
1.28355
1.26539
1.26437
1.26428
1.26512
1.2669
1.26962
1.27329
1.27793
1.28355
1.29014
1.17196
1.17323
1.17578
1.17965
1.18487
1.19151
1.19966
1.20939
1.22083
1.23407
1.17323
1.17441
1.17684
1.18055
1.18557
1.19196
1.19979
1.20915
1.22015
1.23288
1.17578
1.17684
1.17912
1.18263
1.18742
1.19353
1.20104
1.21002
1.22057
1.23277
1.17964
1.18055
1.18263
1.18592
1.19045
1.19627
1.20343
1.21202
1.22211
1.23378
1.18487
1.18556
1.18742
1.19045
1.19469
1.20018
1.20698
1.21515
1.22477
1.2359
1.19151
1.19195
1.19353
1.19626
1.20018
1.20532
1.21172
1.21946
1.22858
1.23915
1.19965
1.19978
1.20104
1.20343
1.20698
1.21172
1.2177
1.22497
1.23357
1.24356
1.20939
1.20915
1.21002
1.21201
1.21515
1.21946
1.22497
1.23172
1.23978
1.24915
1.22082
1.22014
1.22056
1.2221
1.22477
1.22858
1.23357
1.23978
1.24723
1.25595
1.23407
1.23287
1.23277
1.23377
1.23589
1.23915
1.24355
1.24914
1.25595
1.26398
1.12413
1.12545
1.12813
1.13218
1.1377
1.14475
1.15346
1.16396
1.17643
1.19105
1.12545
1.12669
1.12924
1.13314
1.13843
1.14522
1.1536
1.16371
1.17569
1.18972
1.12813
1.12924
1.13163
1.13533
1.1404
1.1469
1.15495
1.16465
1.17616
1.18961
1.13218
1.13313
1.13533
1.13881
1.14362
1.14982
1.15752
1.16682
1.17784
1.19073
1.13769
1.13843
1.1404
1.14362
1.14814
1.15402
1.16136
1.17024
1.18078
1.19309
1.14474
1.14522
1.1469
1.14982
1.15402
1.15956
1.1665
1.17494
1.18498
1.19672
1.15345
1.1536
1.15494
1.15752
1.16136
1.1665
1.17302
1.181
1.19052
1.20166
1.16396
1.1637
1.16465
1.16681
1.17023
1.17494
1.181
1.18847
1.19743
1.20795
1.17642
1.17568
1.17615
1.17784
1.18077
1.18498
1.19052
1.19743
1.2058
1.21565
1.19104
1.18972
1.1896
1.19072
1.19308
1.19671
1.20165
1.20794
1.21565
1.2248
1.0677
1.06898
1.07155
1.07547
1.08082
1.0877
1.09628
1.10673
1.11928
1.13419
1.06898
1.07017
1.07262
1.07639
1.08153
1.08817
1.09643
1.10648
1.11853
1.13282
1.07155
1.07262
1.07493
1.07852
1.08345
1.08982
1.09776
1.10742
1.119
1.13271
1.07547
1.07639
1.07852
1.0819
1.08659
1.09269
1.10031
1.10959
1.1207
1.13385
1.08081
1.08153
1.08345
1.08659
1.09103
1.09684
1.10413
1.11302
1.12367
1.13627
1.0877
1.08816
1.08982
1.09269
1.09684
1.10233
1.10927
1.11776
1.12796
1.14
1.09628
1.09642
1.09775
1.10031
1.10412
1.10927
1.11582
1.1239
1.13362
1.1451
1.10673
1.10647
1.10742
1.10958
1.11301
1.11776
1.1239
1.13152
1.14074
1.15165
1.11927
1.11852
1.11899
1.1207
1.12367
1.12795
1.13362
1.14074
1.14941
1.15971
1.13418
1.13282
1.1327
1.13384
1.13626
1.14
1.1451
1.15164
1.15971
1.16938
1.00295
1.00404
1.00625
1.00963
1.01428
1.0203
1.02787
1.03719
1.04852
1.0622
1.00404
1.00507
1.00718
1.01043
1.0149
1.02071
1.02799
1.03695
1.04783
1.06093
1.00625
1.00718
1.00917
1.01228
1.01657
1.02215
1.02917
1.03779
1.04825
1.06081
1.00963
1.01043
1.01228
1.01522
1.01932
1.02468
1.03143
1.03973
1.04979
1.06185
1.01427
1.0149
1.01657
1.01932
1.02321
1.02834
1.03482
1.04281
1.05248
1.06407
1.0203
1.0207
1.02215
1.02468
1.02834
1.03322
1.03942
1.04709
1.05639
1.06751
1.02786
1.02799
1.02916
1.03142
1.03482
1.03942
1.04533
1.05266
1.06158
1.07225
1.03718
1.03695
1.03779
1.03972
1.0428
1.04709
1.05266
1.05964
1.06817
1.07837
1.04851
1.04783
1.04824
1.04978
1.05248
1.05639
1.06158
1.06817
1.07627
1.08598
1.06219
1.06092
1.0608
1.06184
1.06406
1.06751
1.07225
1.07837
1.08598
1.09521
0.930917
0.9317
0.933287
0.935728
0.939096
0.9435
0.94909
0.956062
0.964676
0.975265
0.9317
0.932436
0.933955
0.936303
0.93955
0.943795
0.949177
0.95588
0.964141
0.974267
0.933286
0.933955
0.93539
0.937637
0.940759
0.944851
0.95004
0.956497
0.964442
0.974154
0.935726
0.936302
0.937636
0.93977
0.942763
0.946702
0.951709
0.957939
0.965596
0.974935
0.939094
0.939548
0.940758
0.942762
0.945616
0.949401
0.954228
0.960244
0.967636
0.976632
0.943497
0.943792
0.944848
0.946701
0.9494
0.953022
0.957668
0.963476
0.970616
0.979293
0.949086
0.949173
0.950037
0.951706
0.954227
0.957667
0.962124
0.967721
0.974615
0.982987
0.956057
0.955875
0.956493
0.957935
0.960241
0.963473
0.96772
0.973094
0.979739
0.987813
0.964669
0.964135
0.964437
0.965591
0.967631
0.970612
0.974612
0.979738
0.986121
0.993897
0.975257
0.97426
0.974147
0.974928
0.976626
0.979288
0.982983
0.98781
0.993895
1.00139
0.853497
0.853865
0.854613
0.855771
0.857381
0.85951
0.862252
0.865739
0.870154
0.875751
0.853865
0.854213
0.854929
0.856043
0.857596
0.859649
0.862289
0.865638
0.869866
0.875203
0.854612
0.854929
0.855607
0.856675
0.85817
0.86015
0.862698
0.865927
0.869994
0.87511
0.855769
0.856043
0.856674
0.85769
0.859126
0.861037
0.863501
0.866623
0.870551
0.875478
0.857379
0.857595
0.858168
0.859125
0.860499
0.862342
0.864727
0.867754
0.87156
0.876325
0.859508
0.859647
0.860148
0.861036
0.862341
0.864114
0.866423
0.869363
0.873062
0.877684
0.862249
0.862285
0.862695
0.863498
0.864725
0.866422
0.868655
0.871513
0.875114
0.879611
0.865735
0.865634
0.865923
0.86662
0.867752
0.869361
0.871512
0.874288
0.877799
0.882185
0.870149
0.86986
0.869989
0.870546
0.871556
0.873058
0.875112
0.877798
0.881224
0.885515
0.875744
0.875197
0.875104
0.875473
0.87632
0.87768
0.879608
0.882182
0.885514
0.889748
0.773288
0.773189
0.772986
0.77268
0.772266
0.77174
0.771103
0.770365
0.769553
0.768724
0.773189
0.773097
0.772902
0.772607
0.772206
0.771698
0.771083
0.77037
0.769583
0.768775
0.772986
0.772902
0.772717
0.772432
0.772043
0.77155
0.770954
0.770265
0.769504
0.768723
0.772679
0.772606
0.772431
0.772157
0.77178
0.771301
0.770723
0.770056
0.769322
0.768571
0.772264
0.772205
0.772042
0.771779
0.771415
0.770951
0.770391
0.769747
0.769042
0.768326
0.771738
0.771696
0.771549
0.7713
0.77095
0.770503
0.769963
0.769345
0.768671
0.767995
0.7711
0.77108
0.770952
0.770721
0.770389
0.769962
0.769448
0.76886
0.768224
0.767592
0.770362
0.770366
0.770262
0.770053
0.769744
0.769343
0.768859
0.768309
0.767719
0.767144
0.769548
0.769579
0.7695
0.769319
0.769039
0.768669
0.768221
0.767718
0.767189
0.766693
0.768718
0.768769
0.768717
0.768567
0.768322
0.767991
0.767589
0.767141
0.766691
0.766321
0.69331
0.692763
0.691646
0.689926
0.687546
0.684423
0.680446
0.675475
0.669333
0.661801
0.692763
0.692248
0.691177
0.689519
0.687222
0.684207
0.680375
0.675594
0.669701
0.662496
0.691645
0.691177
0.690159
0.688565
0.686345
0.683428
0.679721
0.675104
0.669425
0.662505
0.689926
0.689519
0.688564
0.687038
0.684893
0.682066
0.67847
0.673996
0.668504
0.661833
0.687545
0.687221
0.686343
0.684892
0.682826
0.680086
0.676593
0.672246
0.666918
0.660468
0.684421
0.684206
0.683426
0.682065
0.680085
0.677435
0.674043
0.669815
0.664636
0.658383
0.680444
0.680373
0.679719
0.678469
0.676592
0.674042
0.670754
0.666644
0.661607
0.655539
0.675472
0.675591
0.675101
0.673994
0.672244
0.669813
0.666643
0.662659
0.657766
0.651879
0.669329
0.669697
0.669422
0.668501
0.666916
0.664633
0.661604
0.657765
0.653033
0.647341
0.661796
0.662491
0.6625
0.661828
0.660464
0.65838
0.655536
0.651877
0.64734
0.641886
0.616541
0.615639
0.613799
0.610963
0.60703
0.601857
0.595246
0.58693
0.576557
0.563666
0.615639
0.61479
0.613027
0.610294
0.606499
0.601509
0.595141
0.587148
0.577205
0.56489
0.613798
0.613026
0.611352
0.608727
0.605064
0.600239
0.594082
0.586367
0.576791
0.564969
0.610962
0.610293
0.608726
0.606216
0.602683
0.598011
0.592043
0.584567
0.575306
0.563909
0.607029
0.606498
0.605063
0.602682
0.599283
0.59476
0.588965
0.581702
0.572715
0.561686
0.601855
0.601508
0.600238
0.59801
0.594759
0.590388
0.58476
0.577693
0.568949
0.558243
0.595243
0.595139
0.594081
0.592041
0.588963
0.584759
0.579303
0.572425
0.563905
0.55349
0.586927
0.587145
0.586364
0.584565
0.5817
0.577691
0.572424
0.565743
0.557444
0.547301
0.576554
0.577202
0.576787
0.575303
0.572712
0.568946
0.563903
0.557442
0.549376
0.539509
0.563661
0.564886
0.564965
0.563905
0.561682
0.55824
0.553488
0.547299
0.539508
0.529949
0.545405
0.544295
0.542036
0.538559
0.533753
0.527452
0.51943
0.509377
0.496881
0.48139
0.544295
0.543252
0.541089
0.537743
0.53311
0.527037
0.519313
0.509654
0.497678
0.482879
0.542035
0.541089
0.539041
0.535834
0.531371
0.525509
0.518054
0.50874
0.497215
0.483016
0.538559
0.537743
0.535834
0.532779
0.528488
0.522828
0.515619
0.506613
0.495483
0.481807
0.533752
0.533109
0.53137
0.528487
0.524378
0.518919
0.511942
0.503217
0.49244
0.479225
0.527451
0.527036
0.525508
0.522827
0.518919
0.51367
0.506922
0.498461
0.488005
0.475203
0.519428
0.519311
0.518052
0.515617
0.511941
0.506921
0.50041
0.492211
0.482057
0.469635
0.509375
0.509652
0.508738
0.506611
0.503216
0.49846
0.49221
0.484281
0.474428
0.462366
0.496878
0.497675
0.497212
0.495481
0.492437
0.488003
0.482056
0.474427
0.464888
0.453188
0.481386
0.482875
0.483012
0.481804
0.479222
0.475201
0.469633
0.462364
0.453187
0.441873
0.481375
0.48022
0.477874
0.474283
0.469353
0.462948
0.454884
0.444914
0.432707
0.41783
0.48022
0.479136
0.476895
0.473446
0.4687
0.462534
0.454776
0.445197
0.433492
0.419264
0.477874
0.476895
0.474783
0.47149
0.466936
0.461005
0.453537
0.44432
0.433071
0.419427
0.474283
0.473445
0.47149
0.468373
0.464021
0.458325
0.451138
0.442263
0.431436
0.418326
0.469352
0.468699
0.466935
0.464021
0.459887
0.454436
0.447529
0.438982
0.428554
0.415938
0.462947
0.462533
0.461004
0.458324
0.454435
0.449244
0.442625
0.434406
0.424361
0.412214
0.454883
0.454775
0.453535
0.451137
0.447528
0.442624
0.43631
0.428426
0.418763
0.407069
0.444911
0.445195
0.444318
0.442261
0.438981
0.434404
0.428425
0.420897
0.411626
0.400385
0.432704
0.433489
0.433069
0.431434
0.428552
0.424359
0.418761
0.411625
0.402771
0.391997
0.417827
0.419261
0.419425
0.418323
0.415936
0.412212
0.407068
0.400384
0.391997
0.381722
0.424849
0.42378
0.421619
0.418338
0.413885
0.40819
0.401159
0.392678
0.382601
0.37076
0.423779
0.42278
0.420722
0.417579
0.413303
0.407829
0.401072
0.392923
0.383249
0.371892
0.421619
0.420722
0.418796
0.415814
0.411733
0.406494
0.400017
0.392203
0.382928
0.372046
0.418338
0.417579
0.415813
0.413018
0.409154
0.404166
0.397982
0.39051
0.381634
0.371223
0.413884
0.413302
0.411732
0.409154
0.405532
0.400816
0.394941
0.387822
0.379354
0.369416
0.408189
0.407828
0.406493
0.404166
0.400816
0.396399
0.390855
0.384107
0.37606
0.366606
0.401158
0.40107
0.400016
0.397981
0.39494
0.390854
0.385671
0.37932
0.371715
0.36276
0.392676
0.392921
0.392202
0.390508
0.387821
0.384107
0.37932
0.373399
0.366265
0.357835
0.382599
0.383247
0.382926
0.381633
0.379352
0.376059
0.371714
0.366265
0.359641
0.351771
0.370758
0.371889
0.372044
0.371221
0.369415
0.366604
0.362759
0.357834
0.35177
0.344505
0.375318
0.374409
0.372582
0.369836
0.366167
0.361575
0.356066
0.349661
0.342412
0.334414
0.374408
0.373561
0.371828
0.369206
0.365694
0.36129
0.356001
0.349846
0.34287
0.33516
0.372581
0.371827
0.370218
0.36775
0.364423
0.360236
0.355197
0.349324
0.342659
0.335279
0.369835
0.369206
0.36775
0.365466
0.362354
0.358414
0.353655
0.348096
0.341777
0.334769
0.366167
0.365693
0.364422
0.362353
0.359487
0.355825
0.351379
0.346167
0.340229
0.333633
0.361574
0.361289
0.360236
0.358414
0.355825
0.352475
0.348375
0.343546
0.338027
0.331884
0.356064
0.355999
0.355196
0.353655
0.351378
0.348375
0.344657
0.340249
0.335189
0.329542
0.34966
0.349844
0.349323
0.348095
0.346166
0.343546
0.340249
0.336301
0.331744
0.326638
0.34241
0.342869
0.342657
0.341775
0.340228
0.338026
0.335189
0.331744
0.327733
0.323217
0.334412
0.335158
0.335278
0.334767
0.333632
0.331883
0.329542
0.326638
0.323217
0.319344
0.331769
0.331028
0.32955
0.327353
0.324466
0.320936
0.316835
0.312272
0.307413
0.302506
0.331028
0.330341
0.328944
0.326853
0.324098
0.32072
0.316787
0.3124
0.307711
0.302943
0.32955
0.328943
0.327656
0.325704
0.323114
0.319926
0.316203
0.312041
0.307578
0.303022
0.327352
0.326853
0.325704
0.323921
0.321528
0.318566
0.315094
0.311201
0.307019
0.302737
0.324465
0.324097
0.323113
0.321528
0.319366
0.316664
0.31348
0.3099
0.306048
0.302099
0.320935
0.320719
0.319925
0.318566
0.316663
0.314256
0.311399
0.308174
0.304698
0.301137
0.316834
0.316786
0.316202
0.315093
0.31348
0.311398
0.308903
0.306073
0.303021
0.299899
0.312271
0.312399
0.31204
0.3112
0.3099
0.308173
0.306073
0.303676
0.30109
0.298457
0.307412
0.307709
0.307577
0.307017
0.306047
0.304697
0.30302
0.30109
0.29901
0.296912
0.302504
0.302942
0.303021
0.302735
0.302098
0.301136
0.299899
0.298457
0.296912
0.295394
0.293109
0.292502
0.291295
0.289514
0.2872
0.284411
0.281235
0.277797
0.274271
0.270902
0.292502
0.29194
0.290802
0.289111
0.286905
0.28424
0.281197
0.277889
0.274479
0.27119
0.291295
0.290802
0.289758
0.288187
0.286123
0.283618
0.280748
0.277619
0.27438
0.271239
0.289514
0.289111
0.288187
0.286763
0.28487
0.282559
0.2799
0.276994
0.273978
0.271042
0.287199
0.286905
0.286123
0.28487
0.283178
0.281092
0.27868
0.276035
0.273288
0.270613
0.28441
0.28424
0.283617
0.282559
0.281092
0.279261
0.277128
0.274782
0.272344
0.269978
0.281234
0.281196
0.280747
0.2799
0.27868
0.277127
0.275302
0.273288
0.271198
0.269183
0.277795
0.277888
0.277618
0.276993
0.276035
0.274781
0.273288
0.271633
0.269924
0.268297
0.274269
0.274477
0.274379
0.273976
0.273287
0.272343
0.271198
0.269923
0.26862
0.267414
0.2709
0.271188
0.271237
0.271041
0.270611
0.269976
0.269182
0.268296
0.267414
0.266658
0.258477
0.257952
0.256908
0.255368
0.253361
0.250934
0.248149
0.245088
0.24186
0.238604
0.257952
0.257466
0.256481
0.255018
0.253105
0.250784
0.248113
0.245168
0.24205
0.238888
0.256908
0.256481
0.255578
0.254216
0.252422
0.250236
0.247711
0.244917
0.241949
0.238924
0.255367
0.255018
0.254216
0.252977
0.251328
0.249303
0.246952
0.244341
0.241556
0.238707
0.253361
0.253104
0.252422
0.251327
0.249844
0.248004
0.245854
0.243454
0.240884
0.238244
0.250933
0.250783
0.250235
0.249302
0.248004
0.24637
0.244443
0.242279
0.239951
0.237551
0.248148
0.248111
0.247709
0.246951
0.245853
0.244443
0.242759
0.240852
0.238788
0.236652
0.245086
0.245166
0.244916
0.24434
0.243453
0.242279
0.240851
0.239217
0.237436
0.235584
0.241858
0.242048
0.241947
0.241555
0.240883
0.23995
0.238787
0.237436
0.23595
0.234397
0.238602
0.238886
0.238921
0.238705
0.238242
0.237549
0.236651
0.235583
0.234396
0.233156
0.227346
0.226862
0.225896
0.224459
0.222565
0.220233
0.217486
0.214346
0.210837
0.206972
0.226862
0.226413
0.225499
0.22413
0.22232
0.220086
0.217448
0.214429
0.211049
0.207324
0.225896
0.225498
0.224655
0.223373
0.221666
0.219549
0.21704
0.214161
0.210929
0.20736
0.224458
0.224129
0.223373
0.222196
0.22061
0.218627
0.216266
0.213543
0.210475
0.207077
0.222564
0.222319
0.221666
0.220609
0.21916
0.217328
0.215129
0.212579
0.209691
0.206477
0.220232
0.220084
0.219548
0.218627
0.217328
0.215661
0.213639
0.211274
0.208578
0.205561
0.217484
0.217446
0.217039
0.216264
0.215128
0.213639
0.211805
0.209636
0.207142
0.204329
0.214344
0.214426
0.214158
0.213541
0.212577
0.211273
0.209636
0.207672
0.205386
0.202784
0.210834
0.211046
0.210926
0.210473
0.209689
0.208576
0.207141
0.205385
0.203312
0.200925
0.206968
0.207321
0.207356
0.207074
0.206475
0.205559
0.204328
0.202783
0.200925
0.198757
0.199466
0.199003
0.198074
0.19668
0.194821
0.192493
0.189687
0.186381
0.182538
0.178094
0.199003
0.198571
0.19769
0.196359
0.194579
0.192345
0.189648
0.18647
0.182776
0.178509
0.198073
0.197689
0.196871
0.195618
0.193929
0.191801
0.189224
0.186182
0.182641
0.17855
0.196679
0.196359
0.195617
0.194456
0.192872
0.190861
0.188415
0.185515
0.182132
0.178217
0.19482
0.194578
0.193928
0.192871
0.191404
0.189522
0.187215
0.184465
0.181244
0.177507
0.192492
0.192343
0.1918
0.19086
0.189521
0.187778
0.185618
0.183026
0.179971
0.176412
0.189684
0.189645
0.189222
0.188413
0.187214
0.185618
0.183614
0.181184
0.178299
0.174919
0.186378
0.186467
0.186179
0.185512
0.184463
0.183024
0.181183
0.178921
0.176209
0.173008
0.182534
0.182772
0.182638
0.182129
0.181241
0.179969
0.178297
0.176208
0.173671
0.170652
0.178089
0.178504
0.178545
0.178213
0.177503
0.176409
0.174917
0.173007
0.170651
0.167817
0.174714
0.174271
0.17338
0.172038
0.170235
0.167958
0.165184
0.161875
0.157979
0.153415
0.174271
0.173858
0.173011
0.171728
0.17
0.167813
0.165146
0.161966
0.158223
0.153844
0.17338
0.173011
0.172222
0.17101
0.169366
0.167278
0.164725
0.161677
0.158087
0.153889
0.172037
0.171727
0.17101
0.16988
0.168331
0.166351
0.163919
0.161007
0.15757
0.153549
0.170234
0.169998
0.169365
0.168331
0.166888
0.165024
0.16272
0.159948
0.156667
0.152822
0.167956
0.16781
0.167276
0.16635
0.165023
0.163284
0.161115
0.158489
0.155367
0.151697
0.16518
0.165143
0.164723
0.163917
0.162718
0.161115
0.159089
0.156614
0.153653
0.150159
0.161871
0.161962
0.161674
0.161004
0.159945
0.158487
0.156613
0.154296
0.151501
0.148186
0.157974
0.158218
0.158083
0.157566
0.156663
0.155364
0.153651
0.1515
0.148878
0.145746
0.153408
0.153838
0.153883
0.153544
0.152817
0.151693
0.150156
0.148184
0.145745
0.142805
0.152962
0.15255
0.151721
0.15047
0.14879
0.146666
0.144079
0.141002
0.137394
0.133206
0.15255
0.152165
0.151377
0.150182
0.14857
0.146531
0.144045
0.141087
0.13762
0.133599
0.15172
0.151377
0.150642
0.149513
0.14798
0.146033
0.143654
0.14082
0.137497
0.133643
0.150469
0.150181
0.149512
0.14846
0.147016
0.14517
0.142906
0.140201
0.137024
0.133337
0.148788
0.148569
0.147979
0.147015
0.145671
0.143935
0.141792
0.139223
0.136197
0.132679
0.146663
0.146528
0.146031
0.145168
0.143934
0.142318
0.140306
0.137878
0.135008
0.131665
0.144075
0.144041
0.143651
0.142903
0.141791
0.140305
0.138433
0.136155
0.133448
0.130283
0.140996
0.141082
0.140816
0.140197
0.13922
0.137876
0.136154
0.134037
0.1315
0.12852
0.137388
0.137614
0.137492
0.137019
0.136192
0.135005
0.133446
0.131499
0.129144
0.126359
0.133197
0.133591
0.133635
0.13333
0.132674
0.13166
0.130279
0.128517
0.126357
0.12378
0.134006
0.133636
0.132892
0.131774
0.130275
0.128391
0.126112
0.123429
0.120331
0.116806
0.133635
0.133291
0.132585
0.131516
0.13008
0.128271
0.126082
0.123503
0.120524
0.117134
0.132892
0.132584
0.131927
0.130919
0.129556
0.127832
0.125741
0.123274
0.120421
0.117172
0.131772
0.131515
0.130919
0.129982
0.128701
0.127072
0.125087
0.12274
0.12002
0.11692
0.130273
0.130078
0.129554
0.1287
0.127513
0.125988
0.124119
0.1219
0.119322
0.116378
0.128387
0.128268
0.127829
0.12707
0.125987
0.124577
0.122834
0.120752
0.118324
0.115544
0.126107
0.126078
0.125737
0.125084
0.124117
0.122832
0.121226
0.119291
0.117023
0.114417
0.123423
0.123497
0.123268
0.122735
0.121896
0.120749
0.11929
0.117514
0.115416
0.112995
0.120323
0.120516
0.120414
0.120014
0.119317
0.118319
0.11702
0.115415
0.113499
0.111274
0.116795
0.117124
0.117163
0.116912
0.116371
0.115538
0.114412
0.112991
0.111272
0.109258
0.117562
0.11724
0.116595
0.115627
0.114337
0.112727
0.110799
0.108559
0.106018
0.103192
0.11724
0.11694
0.116328
0.115404
0.11417
0.112625
0.110774
0.108621
0.106175
0.103452
0.116594
0.116328
0.11576
0.11489
0.113721
0.112252
0.110488
0.108431
0.106092
0.103484
0.115625
0.115403
0.11489
0.114086
0.112992
0.111609
0.109941
0.107991
0.105768
0.103285
0.114335
0.114167
0.113719
0.112991
0.111982
0.110696
0.109134
0.107301
0.105205
0.102859
0.112723
0.112622
0.11225
0.111607
0.110695
0.109514
0.108069
0.106363
0.104404
0.102206
0.110794
0.110769
0.110483
0.109937
0.109131
0.108068
0.106749
0.105181
0.10337
0.10133
0.108552
0.108614
0.108425
0.107986
0.107297
0.10636
0.105179
0.10376
0.102108
0.100237
0.106008
0.106166
0.106083
0.10576
0.105198
0.104399
0.103367
0.102106
0.100624
0.0989346
0.10318
0.103441
0.103473
0.103276
0.102851
0.102199
0.101325
0.100233
0.0989326
0.097437
0.103304
0.10303
0.102481
0.101661
0.100573
0.0992233
0.0976216
0.0957809
0.0937208
0.0914695
0.10303
0.102775
0.102255
0.101473
0.100432
0.0991384
0.0976006
0.0958308
0.093847
0.0916748
0.10248
0.102254
0.101773
0.101039
0.100055
0.0988275
0.0973639
0.095676
0.0937799
0.0916996
0.101659
0.101471
0.101038
0.100361
0.099444
0.0982922
0.0969129
0.095317
0.0935197
0.0915431
0.10057
0.100429
0.100053
0.0994429
0.0986021
0.0975354
0.0962501
0.0947563
0.0930682
0.0912066
0.099219
0.0991345
0.0988242
0.0982897
0.0975341
0.0965619
0.09538
0.093998
0.0924293
0.0906935
0.0976155
0.097595
0.097359
0.0969088
0.0962472
0.0953784
0.0943091
0.0930484
0.0916088
0.0900088
0.0957728
0.0958232
0.0956691
0.095311
0.0947515
0.0939946
0.0930465
0.091916
0.090615
0.0891606
0.0937103
0.093837
0.0937708
0.0935115
0.0930613
0.0924238
0.0916049
0.0906129
0.0894592
0.0881598
0.0914562
0.0916622
0.0916879
0.0915324
0.0911972
0.0906855
0.0900026
0.0891562
0.0881575
0.0870226
0.0909114
0.0906796
0.0902161
0.0895246
0.0886102
0.0874804
0.0861456
0.0846198
0.0829215
0.0810753
0.0906793
0.0904639
0.0900251
0.0893661
0.0884919
0.0874093
0.086128
0.0846609
0.083025
0.0812431
0.0902152
0.0900245
0.0896187
0.089001
0.0881758
0.0871496
0.0859312
0.0845326
0.0829696
0.0812631
0.0895228
0.0893646
0.0890002
0.088432
0.0876643
0.086703
0.0855564
0.0842355
0.0827551
0.0811343
0.0886072
0.0884892
0.0881738
0.0876631
0.086961
0.0860729
0.0850066
0.0837723
0.0823835
0.0808581
0.0874758
0.0874052
0.087146
0.0867004
0.0860715
0.0852645
0.0842865
0.083147
0.0818584
0.0804373
0.0861391
0.086122
0.0859258
0.085552
0.0850034
0.0842848
0.0834025
0.0823655
0.0811849
0.0798762
0.084611
0.0846527
0.0845251
0.0842291
0.0837671
0.0831433
0.0823635
0.0814357
0.0803704
0.0791815
0.0829101
0.0830143
0.0829597
0.0827463
0.082376
0.0818523
0.0811806
0.0803681
0.0794243
0.0783619
0.0810609
0.0812295
0.0812504
0.0811228
0.0808479
0.0804286
0.0798694
0.0791767
0.0783593
0.0774299
0.0800975
0.0799008
0.0795078
0.0789218
0.0781474
0.0771913
0.0760617
0.0747696
0.0733278
0.071752
0.0799005
0.0797178
0.0793458
0.0787875
0.0780472
0.077131
0.0760467
0.0748043
0.0734158
0.0718957
0.0795069
0.0793452
0.0790014
0.0784781
0.0777795
0.076911
0.0758798
0.0746952
0.0733682
0.0719123
0.0789199
0.0787859
0.0784772
0.0779961
0.0773463
0.0765328
0.0755622
0.0744429
0.0731852
0.0718014
0.0781443
0.0780444
0.0777774
0.0773451
0.0767508
0.0759991
0.0750961
0.0740493
0.072868
0.0715637
0.0771865
0.0771266
0.0769073
0.07653
0.0759976
0.0753142
0.0744851
0.0735173
0.072419
0.071201
0.076055
0.0760404
0.0758743
0.0755576
0.0750928
0.0744833
0.073734
0.0728511
0.0718419
0.0707161
0.0747604
0.0747957
0.0746875
0.0744362
0.0740439
0.0735134
0.072849
0.0720561
0.0711412
0.0701129
0.0733159
0.0734045
0.0733579
0.073176
0.0728601
0.0724128
0.0718375
0.0711389
0.0703227
0.0693966
0.0717369
0.0718813
0.071899
0.0717893
0.071553
0.071192
0.0707089
0.0701079
0.0693939
0.0685745
0.0706242
0.070456
0.0701198
0.0696182
0.0689547
0.0681341
0.0671623
0.066046
0.0647927
0.0634103
0.0704557
0.0702994
0.0699811
0.0695031
0.0688687
0.0680823
0.0671493
0.066076
0.0648694
0.0635369
0.0701188
0.0699805
0.0696861
0.069238
0.068639
0.0678931
0.0670053
0.0659814
0.0648278
0.0635514
0.0696163
0.0695015
0.0692371
0.0688246
0.0682669
0.0675676
0.0667309
0.0657624
0.0646677
0.0634532
0.0689515
0.0688659
0.0686368
0.0682657
0.067755
0.0671077
0.0663279
0.0654202
0.0643899
0.0632429
0.0681293
0.0680779
0.0678894
0.0675648
0.0671062
0.0665162
0.0657984
0.0649568
0.0639959
0.0629214
0.0671555
0.067143
0.0669997
0.0667264
0.0663246
0.0657966
0.0651453
0.0643744
0.0634876
0.0624899
0.0660368
0.0660674
0.0659736
0.0657556
0.0654148
0.0649529
0.0643723
0.0636761
0.0628673
0.0619504
0.0647808
0.0648581
0.0648174
0.0646584
0.064382
0.0639896
0.0634831
0.0628649
0.0621377
0.0613052
0.0633951
0.0635225
0.063538
0.063441
0.0632322
0.0629122
0.0624827
0.0619453
0.0613025
0.0605579
0.0622989
0.0621538
0.0618637
0.0614304
0.0608565
0.0601452
0.0593002
0.0583257
0.0572257
0.0560039
0.0621535
0.0620187
0.0617439
0.0613309
0.060782
0.0601002
0.0592889
0.058352
0.0572933
0.0561163
0.0618627
0.0617433
0.061489
0.0611016
0.0605829
0.0599358
0.0591634
0.0582691
0.0572566
0.0561291
0.0614286
0.0613294
0.0611007
0.0607437
0.0602603
0.0596528
0.0589241
0.0580773
0.0571155
0.056042
0.0608534
0.0607793
0.0605809
0.0602591
0.0598156
0.0592524
0.058572
0.0577772
0.0568706
0.0558552
0.0601405
0.060096
0.0599322
0.0596502
0.059251
0.0587364
0.0581086
0.0573698
0.0565225
0.0555693
0.0592936
0.0592828
0.059158
0.0589197
0.0585688
0.0581069
0.0575355
0.0568567
0.0560722
0.0551848
0.0583168
0.0583437
0.0582616
0.0580708
0.0577719
0.0573661
0.0568546
0.0562392
0.055521
0.0547026
0.0572142
0.0572824
0.0572465
0.0571066
0.0568629
0.0565164
0.0560679
0.0555187
0.0548699
0.0541235
0.0559892
0.0561023
0.0561161
0.0560302
0.0558448
0.0555605
0.0551778
0.0546976
0.0541209
0.0534498
0.0549644
0.0548386
0.0545868
0.0542105
0.0537116
0.0530923
0.0523553
0.0515033
0.0505393
0.0494658
0.0548383
0.0547213
0.0544828
0.0541241
0.0536468
0.0530531
0.0523454
0.0515264
0.0505986
0.0495646
0.054586
0.0544823
0.0542615
0.0539247
0.0534735
0.0529098
0.0522358
0.0514539
0.0505665
0.0495759
0.0542089
0.0541227
0.0539239
0.0536134