/*--------------------------------*- C++ -*----------------------------------*\
| =========                 |                                                 |
| \\      /  F ield         | foam-extend: Open Source CFD                    |
|  \\    /   O peration     | Version:     3.1                                |
|   \\  /    A nd           | Web:         http://www.extend-project.de       |
|    \\/     M anipulation  |                                                 |
\*---------------------------------------------------------------------------*/
FoamFile
{
    version     2.0;
    format      ascii;
    class       surfaceScalarField;
    location    "0.0018";
    object      phi_0;
}
// * * * * * * * * * * * * * * * * * * * * * * * * * * * * * * * * * * * * * //

dimensions      [0 3 -1 0 0 0 0];

internalField   nonuniform List<scalar> 
45800
(
-2.08112e-10
-2.08761e-10
3.1073e-08
-4.0179e-10
-2.05285e-10
3.05511e-08
-5.76828e-10
-1.97443e-10
3.00521e-08
-7.34437e-10
-1.87888e-10
2.95823e-08
-8.76236e-10
-1.77588e-10
2.91419e-08
-1.00303e-09
-1.66783e-10
2.87294e-08
-1.11469e-09
-1.55788e-10
2.8344e-08
-1.20978e-09
-1.45097e-10
2.7985e-08
-1.28465e-09
-1.3565e-10
2.76526e-08
-1.28236e-10
2.73466e-08
-1.33133e-09
-2.0464e-10
-4.02094e-10
3.05501e-08
-3.98071e-10
-3.98727e-10
3.00314e-08
-5.75171e-10
-3.87705e-10
2.95342e-08
-7.3502e-10
-3.72231e-10
2.90614e-08
-8.78455e-10
-3.54775e-10
2.86152e-08
-1.00628e-09
-3.36343e-10
2.81954e-08
-1.1185e-09
-3.17554e-10
2.78011e-08
-1.21391e-09
-2.99282e-10
2.74316e-08
-1.2896e-09
-2.82914e-10
2.70868e-08
-2.70258e-10
2.67648e-08
-1.33685e-09
-1.97151e-10
-5.76551e-10
3.00512e-08
-3.87025e-10
-5.7524e-10
2.95332e-08
-5.64254e-10
-5.64799e-10
2.90368e-08
-7.25961e-10
-5.47225e-10
2.85618e-08
-8.71272e-10
-5.25531e-10
2.81092e-08
-1.00054e-09
-5.01966e-10
2.76809e-08
-1.11389e-09
-4.77757e-10
2.72765e-08
-1.21029e-09
-4.53967e-10
2.68951e-08
-1.28753e-09
-4.32399e-10
2.65366e-08
-4.16255e-10
2.61995e-08
-1.33742e-09
-1.87928e-10
-7.3395e-10
2.95821e-08
-3.7198e-10
-7.34651e-10
2.90607e-08
-5.46634e-10
-7.25993e-10
2.85609e-08
-7.08326e-10
-7.08836e-10
2.80821e-08
-8.54796e-10
-6.85458e-10
2.76234e-08
-9.85163e-10
-6.58448e-10
2.71856e-08
-1.09927e-09
-6.30059e-10
2.67698e-08
-1.1964e-09
-6.01872e-10
2.63757e-08
-1.2751e-09
-5.75899e-10
2.60031e-08
-5.5722e-10
2.56516e-08
-1.32816e-09
-1.77689e-10
-8.75711e-10
2.91419e-08
-3.54875e-10
-8.77989e-10
2.86151e-08
-5.25341e-10
-8.70974e-10
2.81086e-08
-6.84892e-10
-8.54893e-10
2.76226e-08
-8.30864e-10
-8.31447e-10
2.71564e-08
-9.61514e-10
-8.02484e-10
2.67093e-08
-1.07575e-09
-7.70386e-10
2.62811e-08
-1.17284e-09
-7.37687e-10
2.58729e-08
-1.25225e-09
-7.07003e-10
2.54856e-08
-6.85874e-10
2.51199e-08
-1.3081e-09
-1.66873e-10
-1.0025e-09
2.87295e-08
-3.36515e-10
-1.00582e-09
2.81954e-08
-5.02102e-10
-1.00017e-09
2.76808e-08
-6.58291e-10
-9.84987e-10
2.7185e-08
-8.01848e-10
-9.61779e-10
2.67085e-08
-9.31006e-10
-9.31846e-10
2.62509e-08
-1.04419e-09
-8.96541e-10
2.58108e-08
-1.14005e-09
-8.58373e-10
2.53876e-08
-1.21866e-09
-8.20945e-10
2.49837e-08
-7.95807e-10
2.46035e-08
-1.27614e-09
-1.55872e-10
-1.1142e-09
2.83441e-08
-3.17715e-10
-1.11807e-09
2.78012e-08
-4.77989e-10
-1.11354e-09
2.72766e-08
-6.30302e-10
-1.09903e-09
2.67697e-08
-7.70277e-10
-1.07567e-09
2.62804e-08
-8.95661e-10
-1.04455e-09
2.58095e-08
-1.00529e-09
-1.0062e-09
2.53563e-08
-1.09762e-09
-9.61641e-10
2.49184e-08
-1.17291e-09
-9.13951e-10
2.44968e-08
-8.80459e-10
2.41009e-08
-1.2302e-09
-1.45175e-10
-1.20937e-09
2.79852e-08
-2.99432e-10
-1.21355e-09
2.74318e-08
-4.54193e-10
-1.21e-09
2.68952e-08
-6.02204e-10
-1.19618e-09
2.63758e-08
-7.3803e-10
-1.17264e-09
2.58728e-08
-8.58077e-10
-1.1399e-09
2.53864e-08
-9.60767e-10
-1.09779e-09
2.49171e-08
-1.04492e-09
-1.04546e-09
2.44628e-08
-1.11197e-09
-9.83368e-10
2.40231e-08
-9.3293e-10
2.36107e-08
-1.16602e-09
-1.35715e-10
-1.28435e-09
2.76528e-08
-2.83037e-10
-1.28935e-09
2.70869e-08
-4.32576e-10
-1.28734e-09
2.65368e-08
-5.76134e-10
-1.27496e-09
2.60033e-08
-7.07308e-10
-1.25213e-09
2.54857e-08
-8.21016e-10
-1.2185e-09
2.49834e-08
-9.13606e-10
-1.17281e-09
2.44961e-08
-9.8292e-10
-1.11209e-09
2.40226e-08
-1.03174e-09
-1.03205e-09
2.3563e-08
-9.48778e-10
2.31312e-08
-1.07494e-09
-1.28282e-10
2.73468e-08
-1.33115e-09
-2.70343e-10
2.6765e-08
-1.33671e-09
-4.1637e-10
2.61996e-08
-1.33732e-09
-5.57356e-10
2.56517e-08
-1.3281e-09
-6.8601e-10
2.512e-08
-1.30807e-09
-7.95885e-10
2.46035e-08
-1.27612e-09
-8.80466e-10
2.41009e-08
-1.23018e-09
-9.32823e-10
2.36105e-08
-1.16605e-09
-9.48535e-10
2.31308e-08
-1.07503e-09
2.2674e-08
-9.51276e-10
-9.51424e-10
-1.36587e-10
-1.37189e-10
3.13467e-08
-2.62107e-10
-1.35077e-10
3.08117e-08
-3.72936e-10
-1.30014e-10
3.0293e-08
-4.70523e-10
-1.24341e-10
2.98042e-08
-5.56501e-10
-1.18806e-10
2.93467e-08
-6.31384e-10
-1.13491e-10
2.89178e-08
-6.94314e-10
-1.08484e-10
2.85154e-08
-7.42535e-10
-1.03884e-10
2.81371e-08
-7.70629e-10
-9.96705e-11
2.77804e-08
-9.47671e-11
2.744e-08
-7.69245e-10
-1.34479e-10
-2.62352e-10
3.08097e-08
-2.60511e-10
-2.61092e-10
3.02835e-08
-3.73876e-10
-2.54504e-10
2.9772e-08
-4.74113e-10
-2.45291e-10
2.92826e-08
-5.62202e-10
-2.35541e-10
2.882e-08
-6.3872e-10
-2.26011e-10
2.83844e-08
-7.0297e-10
-2.16967e-10
2.79738e-08
-7.52416e-10
-2.08641e-10
2.75858e-08
-7.82153e-10
-2.00782e-10
2.72176e-08
-1.90636e-10
2.68616e-08
-7.83047e-10
-1.29754e-10
-3.72606e-10
3.02912e-08
-2.53894e-10
-3.73867e-10
2.97701e-08
-3.68467e-10
-3.68913e-10
2.92658e-08
-4.71325e-10
-3.59167e-10
2.87785e-08
-5.61895e-10
-3.47134e-10
2.83114e-08
-6.40364e-10
-3.3474e-10
2.78681e-08
-7.06117e-10
-3.2279e-10
2.74481e-08
-7.56666e-10
-3.11535e-10
2.70486e-08
-7.87531e-10
-3.00584e-10
2.66673e-08
-2.85744e-10
2.62974e-08
-7.90308e-10
-1.24405e-10
-4.69979e-10
2.98039e-08
-2.45095e-10
-4.73676e-10
2.92812e-08
-3.58668e-10
-4.71257e-10
2.87768e-08
-4.62623e-10
-4.63008e-10
2.82899e-08
-5.55137e-10
-4.50675e-10
2.78194e-08
-6.35221e-10
-4.36475e-10
2.73674e-08
-7.0194e-10
-4.22196e-10
2.69359e-08
-7.52899e-10
-4.08513e-10
2.65236e-08
-7.84046e-10
-3.94776e-10
2.61285e-08
-3.7557e-10
2.57455e-08
-7.88156e-10
-1.18932e-10
-5.55913e-10
2.93468e-08
-2.35691e-10
-5.61666e-10
2.88198e-08
-3.47023e-10
-5.61503e-10
2.83102e-08
-4.50228e-10
-5.55101e-10
2.78179e-08
-5.43257e-10
-5.43679e-10
2.73425e-08
-6.24272e-10
-5.28795e-10
2.68826e-08
-6.91326e-10
-5.12384e-10
2.64384e-08
-7.4179e-10
-4.96048e-10
2.60109e-08
-7.72097e-10
-4.79395e-10
2.56005e-08
-4.55902e-10
2.52047e-08
-7.76518e-10
-1.13604e-10
-6.30789e-10
2.8918e-08
-2.26234e-10
-6.38175e-10
2.83846e-08
-3.34954e-10
-6.39898e-10
2.78679e-08
-4.36424e-10
-6.34917e-10
2.73663e-08
-5.28309e-10
-6.24359e-10
2.6881e-08
-6.08816e-10
-6.09445e-10
2.64121e-08
-6.75372e-10
-5.91342e-10
2.59563e-08
-7.2439e-10
-5.71792e-10
2.55124e-08
-7.52326e-10
-5.51206e-10
2.50834e-08
-5.22902e-10
2.46735e-08
-7.55411e-10
-1.0859e-10
-6.93755e-10
2.85157e-08
-2.17177e-10
-7.02456e-10
2.79741e-08
-3.231e-10
-7.05669e-10
2.74483e-08
-4.22543e-10
-7.01566e-10
2.69358e-08
-5.124e-10
-6.9107e-10
2.6437e-08
-5.90632e-10
-6.75489e-10
2.59538e-08
-6.55069e-10
-6.55728e-10
2.54851e-08
-7.01376e-10
-6.32756e-10
2.50257e-08
-7.25073e-10
-6.06888e-10
2.45761e-08
-5.72609e-10
2.415e-08
-7.24432e-10
-1.03984e-10
-7.42057e-10
2.81375e-08
-2.08839e-10
-7.51973e-10
2.75861e-08
-3.11837e-10
-7.56266e-10
2.70488e-08
-4.08948e-10
-7.52528e-10
2.65238e-08
-4.96509e-10
-7.41404e-10
2.60107e-08
-5.71613e-10
-7.23998e-10
2.551e-08
-6.3205e-10
-7.01256e-10
2.50231e-08
-6.73516e-10
-6.73812e-10
2.45454e-08
-6.90689e-10
-6.41613e-10
2.4075e-08
-6.00654e-10
2.36308e-08
-6.82695e-10
-9.97587e-11
-7.70263e-10
2.77808e-08
-2.00954e-10
-7.81814e-10
2.7218e-08
-3.00836e-10
-7.87219e-10
2.66676e-08
-3.95112e-10
-7.83745e-10
2.61287e-08
-4.79819e-10
-7.71774e-10
2.56008e-08
-5.51388e-10
-7.51935e-10
2.5083e-08
-6.06661e-10
-7.24714e-10
2.45748e-08
-6.41313e-10
-6.90581e-10
2.4074e-08
-6.49706e-10
-6.4984e-10
2.35796e-08
-6.01749e-10
2.31109e-08
-6.28314e-10
-9.48389e-11
2.74404e-08
-7.68993e-10
-1.90773e-10
2.68619e-08
-7.82815e-10
-2.85936e-10
2.62977e-08
-7.90095e-10
-3.75803e-10
2.57457e-08
-7.87951e-10
-4.56149e-10
2.52049e-08
-7.76307e-10
-5.2309e-10
2.46737e-08
-7.55188e-10
-5.72723e-10
2.415e-08
-7.24219e-10
-6.00637e-10
2.36304e-08
-6.82526e-10
-6.01594e-10
2.31102e-08
-6.28225e-10
2.26058e-08
-5.67588e-10
-5.67614e-10
-1.05884e-11
-1.10891e-11
3.13684e-08
-1.58636e-11
-8.91546e-12
3.08259e-08
-1.25875e-11
-4.74449e-12
3.02944e-08
-2.53302e-12
-3.1863e-13
2.97945e-08
1.21975e-11
3.70345e-12
2.93282e-08
3.03348e-11
7.1847e-12
2.88925e-08
5.15122e-11
9.95114e-12
2.84843e-08
7.64897e-11
1.17991e-11
2.81003e-08
1.07236e-10
1.27909e-11
2.77369e-08
1.56168e-11
2.73861e-08
1.45557e-10
-8.42738e-12
-1.60003e-11
3.08231e-08
-1.39089e-11
-1.43445e-11
3.02944e-08
-1.26522e-11
-9.18474e-12
2.97752e-08
-4.69594e-12
-2.23886e-12
2.92766e-08
8.48112e-12
4.62559e-12
2.88059e-08
2.55769e-11
1.06327e-11
2.83639e-08
4.61387e-11
1.53738e-11
2.79478e-08
7.08454e-11
1.84568e-11
2.75545e-08
1.01417e-10
2.03057e-11
2.71795e-08
2.74912e-11
2.68116e-08
1.3947e-10
-4.57342e-12
-1.21679e-11
3.0292e-08
-8.74487e-12
-1.25288e-11
2.97725e-08
-8.94006e-12
-9.21567e-12
2.92661e-08
-3.7054e-12
-2.40333e-12
2.87734e-08
6.89855e-12
5.61963e-12
2.82998e-08
2.19725e-11
1.29693e-11
2.78507e-08
4.10427e-11
1.87099e-11
2.74257e-08
6.4873e-11
2.23759e-11
2.70208e-08
9.51007e-11
2.46577e-11
2.66327e-08
3.58627e-11
2.62509e-08
1.33191e-10
-4.38173e-13
-1.89687e-12
2.97941e-08
-2.18741e-12
-4.15463e-12
2.92745e-08
-2.11377e-12
-3.49627e-12
2.8771e-08
1.54256e-12
1.36171e-12
2.82824e-08
9.8058e-12
8.81308e-12
2.7808e-08
2.28686e-11
1.65918e-11
2.73507e-08
4.0643e-11
2.27905e-11
2.6914e-08
6.39193e-11
2.65427e-11
2.64961e-08
9.41961e-11
2.8912e-11
2.60939e-08
4.37408e-11
2.56994e-08
1.32372e-10
3.53095e-12
1.2889e-11
2.93285e-08
4.36912e-12
9.13419e-12
2.88057e-08
5.54054e-12
7.4338e-12
2.82981e-08
9.00948e-12
1.00249e-11
2.78058e-08
1.59837e-11
1.58055e-11
2.73285e-08
2.73701e-11
2.30284e-11
2.68648e-08
4.40671e-11
2.94821e-11
2.6415e-08
6.72532e-11
3.33656e-11
2.59809e-08
9.82363e-11
3.56923e-11
2.55627e-08
5.37931e-11
2.51559e-08
1.36988e-10
7.02427e-12
3.10406e-11
2.88928e-08
1.03162e-11
2.62475e-11
2.83642e-08
1.26031e-11
2.25968e-11
2.78504e-08
1.64063e-11
2.33683e-11
2.73491e-08
2.32189e-11
2.75119e-11
2.68625e-08
3.38891e-11
3.35384e-11
2.63909e-08
4.98432e-11
3.98123e-11
2.593e-08
7.33047e-11
4.41535e-11
2.54781e-08
1.05979e-10
4.69099e-11
2.50396e-08
6.8191e-11
2.46186e-08
1.465e-10
9.79864e-12
5.21872e-11
2.84847e-08
1.50718e-11
4.67863e-11
2.79482e-08
1.82655e-11
4.16615e-11
2.7426e-08
2.22552e-11
4.12336e-11
2.69139e-08
2.91874e-11
4.45724e-11
2.6413e-08
4.01768e-11
4.99782e-11
2.59263e-08
5.63008e-11
5.59511e-11
2.54529e-08
8.05851e-11
6.07741e-11
2.49848e-08
1.16192e-10
6.45866e-11
2.45229e-08
8.89651e-11
2.40847e-08
1.60637e-10
1.16553e-11
7.70876e-11
2.81009e-08
1.81715e-11
7.14269e-11
2.7555e-08
2.19484e-11
6.54501e-11
2.70213e-08
2.59523e-11
6.45139e-11
2.64966e-08
3.27045e-11
6.79071e-11
2.59806e-08
4.40336e-11
7.39742e-11
2.54747e-08
6.11265e-11
8.09787e-11
2.4981e-08
8.72332e-11
8.72323e-11
2.44928e-08
1.27126e-10
9.23409e-11
2.40074e-08
1.18017e-10
2.35495e-08
1.7935e-10
1.26598e-11
1.07725e-10
2.77375e-08
2.00498e-11
1.01897e-10
2.71801e-08
2.42856e-11
9.55899e-11
2.66332e-08
2.84301e-11
9.47197e-11
2.60944e-08
3.51134e-11
9.88201e-11
2.55632e-08
4.65378e-11
1.06651e-10
2.50389e-08
6.45446e-11
1.16821e-10
2.45209e-08
9.23683e-11
1.2747e-10
2.4006e-08
1.36068e-10
1.36141e-10
2.34921e-08
1.57619e-10
2.30043e-08
2.03011e-10
1.55045e-11
2.73866e-08
1.45929e-10
2.72766e-11
2.68122e-08
1.39837e-10
3.55611e-11
2.62514e-08
1.3357e-10
4.33727e-11
2.56999e-08
1.32778e-10
5.33981e-11
2.51562e-08
1.37425e-10
6.78516e-11
2.4619e-08
1.46957e-10
8.8685e-11
2.4085e-08
1.61075e-10
1.17856e-10
2.3549e-08
1.79717e-10
1.57616e-10
2.30033e-08
2.03265e-10
2.24696e-08
2.25672e-10
2.25776e-10
1.43531e-10
1.43165e-10
3.10817e-08
2.84803e-10
1.45431e-10
3.05392e-08
4.26552e-10
1.48547e-10
3.00041e-08
5.66705e-10
1.51581e-10
2.95028e-08
7.02604e-10
1.54028e-10
2.90383e-08
8.32005e-10
1.55666e-10
2.86074e-08
9.52979e-10
1.56205e-10
2.82071e-08
1.06392e-09
1.55298e-10
2.78341e-08
1.16325e-09
1.52938e-10
2.74846e-08
1.52214e-10
2.71501e-08
1.24696e-09
1.45763e-10
2.84781e-10
3.05357e-08
2.87364e-10
2.87108e-10
3.00111e-08
4.27977e-10
2.90828e-10
2.94923e-08
5.66978e-10
2.95409e-10
2.89937e-08
7.02312e-10
2.99321e-10
2.85253e-08
8.31771e-10
3.01821e-10
2.80882e-08
9.53456e-10
3.02303e-10
2.768e-08
1.06582e-09
3.00158e-10
2.72972e-08
1.16708e-09
2.95836e-10
2.69354e-08
2.97348e-10
2.65811e-08
1.25252e-09
1.48597e-10
4.2703e-10
3.00011e-08
2.91039e-10
4.28184e-10
2.9489e-08
4.3028e-10
4.30178e-10
2.89875e-08
5.66832e-10
4.34209e-10
2.84981e-08
6.99858e-10
4.38251e-10
2.80279e-08
8.27611e-10
4.40602e-10
2.75841e-08
9.48231e-10
4.40236e-10
2.71671e-08
1.06035e-09
4.36397e-10
2.67724e-08
1.16233e-09
4.29922e-10
2.63966e-08
4.33698e-10
2.60272e-08
1.24967e-09
1.51412e-10
5.67389e-10
2.95023e-08
2.95283e-10
5.67572e-10
2.89913e-08
4.3425e-10
5.67126e-10
2.84951e-08
5.69067e-10
5.69064e-10
2.80128e-08
6.99678e-10
5.71908e-10
2.75437e-08
8.253e-10
5.73416e-10
2.70923e-08
9.44578e-10
5.71696e-10
2.66633e-08
1.05627e-09
5.65736e-10
2.62551e-08
1.15876e-09
5.56888e-10
2.58645e-08
5.62649e-10
2.54817e-08
1.24753e-09
1.53827e-10
7.03354e-10
2.90387e-08
2.98977e-10
7.03037e-10
2.85251e-08
4.37965e-10
7.00479e-10
2.80258e-08
5.71835e-10
7.00005e-10
2.75409e-08
7.00678e-10
7.00691e-10
2.70709e-08
8.24135e-10
7.00657e-10
2.66141e-08
9.41776e-10
6.97476e-10
2.61716e-08
1.05299e-09
6.89287e-10
2.57462e-08
1.15616e-09
6.77845e-10
2.53386e-08
6.85194e-10
2.49431e-08
1.24642e-09
1.55478e-10
8.3278e-10
2.86079e-08
3.0145e-10
8.32524e-10
2.80887e-08
4.40117e-10
8.28344e-10
2.75839e-08
5.72986e-10
8.25928e-10
2.70904e-08
7.00538e-10
8.24402e-10
2.66113e-08
8.22368e-10
8.22211e-10
2.61475e-08
9.38288e-10
8.17345e-10
2.56942e-08
1.04878e-09
8.07192e-10
2.52497e-08
1.15307e-09
7.93223e-10
2.48199e-08
8.01672e-10
2.44096e-08
1.24563e-09
1.56027e-10
9.53734e-10
2.82077e-08
3.01949e-10
9.54198e-10
2.76806e-08
4.39713e-10
9.48974e-10
2.71676e-08
5.71019e-10
9.4533e-10
2.66632e-08
6.96878e-10
9.42445e-10
2.61691e-08
8.17314e-10
9.38513e-10
2.56896e-08
9.31896e-10
9.31765e-10
2.52239e-08
1.04168e-09
9.19753e-10
2.47625e-08
1.14771e-09
9.03428e-10
2.43066e-08
9.11873e-10
2.38777e-08
1.24454e-09
1.55131e-10
1.06461e-09
2.78349e-08
2.99826e-10
1.0665e-09
2.7298e-08
4.35904e-10
1.06106e-09
2.67731e-08
5.6507e-10
1.05703e-09
2.62557e-08
6.88485e-10
1.05384e-09
2.57458e-08
8.06708e-10
1.04958e-09
2.52454e-08
9.1968e-10
1.04216e-09
2.47576e-08
1.02885e-09
1.02906e-09
2.42743e-08
1.13724e-09
1.01005e-09
2.37923e-08
1.01467e-09
2.33416e-08
1.24239e-09
1.52784e-10
1.16384e-09
2.74855e-08
2.95537e-10
1.16767e-09
2.69362e-08
4.29489e-10
1.16296e-09
2.63974e-08
5.56337e-10
1.15945e-09
2.58651e-08
6.77208e-10
1.15692e-09
2.53392e-08
7.92701e-10
1.15391e-09
2.4819e-08
9.03072e-10
1.14846e-09
2.43043e-08
1.00979e-09
1.13768e-09
2.37906e-08
1.11786e-09
1.11806e-09
2.3276e-08
1.10848e-09
2.27899e-08
1.23846e-09
1.52081e-10
2.7151e-08
1.24744e-09
2.97094e-10
2.65818e-08
1.253e-09
4.33341e-10
2.60279e-08
1.25018e-09
5.62214e-10
2.54824e-08
1.24809e-09
6.84728e-10
2.49437e-08
1.24701e-09
8.01249e-10
2.44101e-08
1.24624e-09
9.11472e-10
2.38781e-08
1.24511e-09
1.01433e-09
2.33409e-08
1.24286e-09
1.10832e-09
2.27886e-08
1.23876e-09
2.22474e-08
1.21944e-09
1.2196e-09
3.13353e-10
3.13125e-10
3.04552e-08
6.16247e-10
3.15454e-10
2.99208e-08
9.10929e-10
3.17448e-10
2.9392e-08
1.19536e-09
3.19093e-10
2.88992e-08
1.4667e-09
3.20087e-10
2.84469e-08
1.72212e-09
3.20137e-10
2.80319e-08
1.95861e-09
3.18858e-10
2.76517e-08
2.1729e-09
3.15804e-10
2.7304e-08
2.36085e-09
3.10965e-10
2.69857e-08
3.0794e-10
2.66889e-08
2.51418e-09
3.15615e-10
6.16308e-10
2.99169e-08
6.195e-10
6.19403e-10
2.94033e-08
9.14133e-10
6.21773e-10
2.88934e-08
1.19855e-09
6.24118e-10
2.84043e-08
1.47047e-09
6.25374e-10
2.7948e-08
1.72717e-09
6.24917e-10
2.75268e-08
1.9658e-09
6.21989e-10
2.71383e-08
2.18323e-09
6.15844e-10
2.67798e-08
2.37511e-09
6.07065e-10
2.64474e-08
6.05194e-10
2.61273e-08
2.53166e-09
3.1737e-10
9.11403e-10
2.93887e-08
6.2175e-10
9.14354e-10
2.88896e-08
9.15395e-10
9.15417e-10
2.84002e-08
1.19796e-09
9.17105e-10
2.79225e-08
1.46812e-09
9.17736e-10
2.74653e-08
1.72369e-09
9.15969e-10
2.70375e-08
1.9619e-09
9.10819e-10
2.66401e-08
2.17984e-09
9.01346e-10
2.6269e-08
2.37349e-09
8.88653e-10
2.59214e-08
8.8829e-10
2.55842e-08
2.53346e-09
3.18894e-10
1.19602e-09
2.88988e-08
6.23823e-10
1.19911e-09
2.84016e-08
9.16915e-10
1.19824e-09
2.79192e-08
1.19797e-09
1.19807e-09
2.74508e-08
1.466e-09
1.19728e-09
2.69961e-08
1.71961e-09
1.19379e-09
2.65608e-08
1.95667e-09
1.18593e-09
2.61511e-08
2.17447e-09
1.17277e-09
2.57659e-08
2.36914e-09
1.15607e-09
2.54024e-08
1.15705e-09
2.50504e-08
2.53171e-09
3.19889e-10
1.46743e-09
2.84474e-08
6.24986e-10
1.47118e-09
2.79479e-08
9.17274e-10
1.46873e-09
2.7463e-08
1.19698e-09
1.46631e-09
2.6993e-08
1.4632e-09
1.46329e-09
2.65387e-08
1.71452e-09
1.45777e-09
2.60988e-08
1.94963e-09
1.44723e-09
2.56752e-08
2.16677e-09
1.43005e-09
2.52718e-08
2.36224e-09
1.40901e-09
2.48902e-08
1.41089e-09
2.45243e-08
2.52715e-09
3.19952e-10
1.72288e-09
2.80325e-08
6.24551e-10
1.72793e-09
2.75274e-08
9.15435e-10
1.72444e-09
2.70373e-08
1.19316e-09
1.72024e-09
2.65587e-08
1.45739e-09
1.71475e-09
2.60956e-08
1.70668e-09
1.70657e-09
2.56494e-08
1.93948e-09
1.69345e-09
2.52152e-08
2.15515e-09
1.67248e-09
2.47916e-08
2.35131e-09
1.64666e-09
2.43861e-08
1.64845e-09
2.40042e-08
2.51913e-09
3.18684e-10
1.95937e-09
2.76526e-08
6.21643e-10
1.96656e-09
2.71391e-08
9.10303e-10
1.96267e-09
2.66407e-08
1.1852e-09
1.95746e-09
2.61511e-08
1.44637e-09
1.95032e-09
2.56724e-08
1.69305e-09
1.93957e-09
2.52099e-08
1.92359e-09
1.92351e-09
2.47633e-08
2.1374e-09
1.89903e-09
2.43221e-08
2.33422e-09
1.86812e-09
2.38883e-08
1.86751e-09
2.34861e-08
2.50674e-09
3.15645e-10
2.17361e-09
2.7305e-08
6.15528e-10
2.18394e-09
2.67807e-08
9.00878e-10
2.18058e-09
2.62698e-08
1.17215e-09
2.17527e-09
2.57666e-08
1.42922e-09
2.16767e-09
2.52714e-08
1.67165e-09
2.15586e-09
2.47867e-08
1.89854e-09
2.13769e-09
2.43165e-08
2.10982e-09
2.11008e-09
2.3852e-08
2.30727e-09
2.07315e-09
2.33899e-08
2.06422e-09
2.29636e-08
2.48855e-09
3.10821e-10
2.36147e-09
2.69868e-08
6.06785e-10
2.37574e-09
2.64484e-08
8.88251e-10
2.37416e-09
2.59223e-08
1.15557e-09
2.36986e-09
2.54032e-08
1.40847e-09
2.36302e-09
2.4891e-08
1.6461e-09
2.35212e-09
2.43851e-08
1.86748e-09
2.33489e-09
2.38857e-08
2.07266e-09
2.30762e-09
2.33879e-08
2.26594e-09
2.26614e-09
2.28898e-08
2.23347e-09
2.24237e-08
2.46285e-09
3.07819e-10
2.66899e-08
2.51469e-09
6.04963e-10
2.61282e-08
2.53218e-09
8.87967e-10
2.55851e-08
2.534e-09
1.15666e-09
2.50512e-08
2.5323e-09
1.41047e-09
2.45251e-08
2.52777e-09
1.64807e-09
2.40049e-08
2.51974e-09
1.86709e-09
2.34866e-08
2.50729e-09
2.06376e-09
2.29629e-08
2.48897e-09
2.23318e-09
2.24222e-08
2.46307e-09
2.18942e-08
2.40985e-09
2.40999e-09
4.93681e-10
4.93573e-10
2.9468e-08
9.68777e-10
4.96055e-10
2.89497e-08
1.42743e-09
4.97192e-10
2.84362e-08
1.86831e-09
4.97924e-10
2.79604e-08
2.28908e-09
4.98195e-10
2.75279e-08
2.68709e-09
4.97667e-10
2.71362e-08
3.05911e-09
4.95888e-10
2.67838e-08
3.40115e-09
4.92365e-10
2.64696e-08
3.70769e-09
4.87111e-10
2.6192e-08
4.84433e-10
2.59448e-08
3.96736e-09
4.96058e-10
9.68861e-10
2.89456e-08
9.72972e-10
9.72978e-10
2.84495e-08
1.43283e-09
9.7462e-10
2.79561e-08
1.87491e-09
9.75697e-10
2.74844e-08
2.29742e-09
9.75712e-10
2.7048e-08
2.69785e-09
9.7425e-10
2.66497e-08
3.07317e-09
9.70449e-10
2.62884e-08
3.4196e-09
9.63498e-10
2.59622e-08
3.73132e-09
9.5414e-10
2.56686e-08
9.53691e-10
2.53947e-08
3.99457e-09
4.97e-10
1.42782e-09
2.84327e-08
9.74408e-10
1.43297e-09
2.79522e-08
1.43407e-09
1.43413e-09
2.7481e-08
1.87527e-09
1.435e-09
2.7022e-08
2.29684e-09
1.43433e-09
2.65851e-08
2.69688e-09
1.43127e-09
2.61805e-08
3.07243e-09
1.425e-09
2.581e-08
3.41991e-09
1.41449e-09
2.54705e-08
3.73395e-09
1.40108e-09
2.51604e-08
1.40334e-09
2.48673e-08
4.00117e-09
4.97725e-10
1.86884e-09
2.796e-08
9.75279e-10
1.87534e-09
2.74817e-08
1.43465e-09
1.87542e-09
2.70185e-08
1.87513e-09
1.87521e-09
2.65701e-08
2.29531e-09
1.87361e-09
2.61367e-08
2.69385e-09
1.86877e-09
2.57248e-08
3.06861e-09
1.85946e-09
2.53419e-08
3.41619e-09
1.84495e-09
2.49878e-08
3.73141e-09
1.8274e-09
2.46608e-08
1.83215e-09
2.43514e-08
4.00161e-09
4.98038e-10
2.28968e-09
2.75285e-08
9.75348e-10
2.29801e-09
2.70479e-08
1.43376e-09
2.29731e-09
2.65827e-08
1.87316e-09
2.29545e-09
2.61334e-08
2.29214e-09
2.29217e-09
2.57011e-08
2.68878e-09
2.28564e-09
2.52853e-08
3.06156e-09
2.27338e-09
2.48885e-08
3.40837e-09
2.25416e-09
2.45157e-08
3.72429e-09
2.23182e-09
2.41699e-08
2.23843e-09
2.38452e-08
3.99709e-09
4.97522e-10
2.68773e-09
2.7137e-08
9.73965e-10
2.69848e-09
2.66505e-08
1.43078e-09
2.6975e-09
2.61803e-08
1.86803e-09
2.69434e-09
2.57226e-08
2.28511e-09
2.68878e-09
2.52819e-08
2.68002e-09
2.67977e-09
2.48604e-08
3.0504e-09
2.66495e-09
2.44532e-08
3.39517e-09
2.64112e-09
2.40599e-08
3.71126e-09
2.61283e-09
2.3689e-08
2.61963e-09
2.33471e-08
3.98709e-09
4.95756e-10
3.05975e-09
2.67848e-08
9.70184e-10
3.07382e-09
2.62893e-08
1.4246e-09
3.07309e-09
2.58107e-08
1.8588e-09
3.0693e-09
2.53419e-08
2.27235e-09
3.06207e-09
2.48855e-08
2.66427e-09
3.05012e-09
2.44477e-08
3.0322e-09
3.03199e-09
2.40283e-08
3.37439e-09
3.00393e-09
2.36171e-08
3.69003e-09
2.96877e-09
2.32168e-08
2.97199e-09
2.28532e-08
3.97059e-09
4.92249e-10
3.40176e-09
2.64707e-08
9.6327e-10
3.42021e-09
2.59633e-08
1.41415e-09
3.42055e-09
2.54715e-08
1.84451e-09
3.41688e-09
2.49887e-08
2.25344e-09
3.40914e-09
2.45154e-08
2.64e-09
3.39558e-09
2.40547e-08
3.0031e-09
3.37424e-09
2.36112e-08
3.34148e-09
3.34162e-09
2.31759e-08
3.65619e-09
3.29794e-09
2.2746e-08
3.28943e-09
2.23568e-08
3.94556e-09
4.87012e-10
3.70824e-09
2.61933e-08
9.5395e-10
3.73187e-09
2.56698e-08
1.40081e-09
3.73452e-09
2.51615e-08
1.82708e-09
3.73202e-09
2.46618e-08
2.23153e-09
3.72492e-09
2.41708e-08
2.61236e-09
3.71185e-09
2.3688e-08
2.96793e-09
3.69041e-09
2.3214e-08
3.2973e-09
3.65624e-09
2.27439e-08
3.6044e-09
3.60446e-09
2.22761e-08
3.56375e-09
2.18446e-08
3.90924e-09
4.84358e-10
2.5946e-08
3.96781e-09
9.53552e-10
2.53959e-08
3.99502e-09
1.40315e-09
2.48684e-08
4.00164e-09
1.83193e-09
2.43524e-08
4.0021e-09
2.23821e-09
2.38462e-08
3.99758e-09
2.61944e-09
2.3348e-08
3.98754e-09
2.97169e-09
2.28538e-08
3.97098e-09
3.28894e-09
2.23561e-08
3.94579e-09
3.56342e-09
2.1843e-08
3.90922e-09
2.13456e-08
3.83788e-09
3.8379e-09
6.76783e-10
6.76769e-10
2.81144e-08
1.32756e-09
6.79592e-10
2.76193e-08
1.95512e-09
6.80388e-10
2.71282e-08
2.5596e-09
6.81031e-10
2.66749e-08
3.14006e-09
6.81745e-10
2.62657e-08
3.69496e-09
6.82172e-10
2.58991e-08
4.22192e-09
6.81839e-10
2.5575e-08
4.71746e-09
6.8025e-10
2.52938e-08
5.17604e-09
6.7747e-10
2.5056e-08
6.78662e-10
2.48575e-08
5.5846e-09
6.79461e-10
1.32761e-09
2.76153e-08
1.33302e-09
1.33309e-09
2.71424e-08
1.96311e-09
1.33502e-09
2.66714e-08
2.57002e-09
1.33641e-09
2.62221e-08
3.15324e-09
1.3374e-09
2.58091e-08
3.71139e-09
1.33785e-09
2.54359e-08
4.2423e-09
1.33685e-09
2.51025e-08
4.74263e-09
1.33361e-09
2.48085e-08
5.20648e-09
1.32902e-09
2.45532e-08
1.33633e-09
2.4326e-08
5.61759e-09
6.80116e-10
1.95532e-09
2.71249e-08
1.33466e-09
1.96309e-09
2.66677e-08
1.96579e-09
1.9658e-09
2.62191e-08
2.57312e-09
1.96814e-09
2.5783e-08
3.15643e-09
1.96932e-09
2.53699e-08
3.71496e-09
1.96911e-09
2.49907e-08
4.24658e-09
1.96695e-09
2.46482e-08
4.74808e-09
1.96179e-09
2.43409e-08
5.21398e-09
1.95518e-09
2.40684e-08
1.96885e-09
2.38204e-08
5.62833e-09
6.80871e-10
2.5599e-09
2.66746e-08
1.33593e-09
2.5702e-09
2.62195e-08
1.9677e-09
2.57302e-09
2.57795e-08
2.57569e-09
2.57564e-09
2.53546e-08
3.15882e-09
2.57723e-09
2.49456e-08
3.71663e-09
2.5763e-09
2.45598e-08
4.24788e-09
2.57213e-09
2.42055e-08
4.7495e-09
2.56435e-09
2.38837e-08
5.21617e-09
2.55533e-09
2.3594e-08
2.57486e-09
2.33288e-08
5.63277e-09
6.81666e-10
3.14042e-09
2.62663e-08
1.33713e-09
3.1536e-09
2.5809e-08
1.96873e-09
3.15662e-09
2.53675e-08
2.57675e-09
3.15865e-09
2.49423e-08
3.16e-09
3.15983e-09
2.45353e-08
3.71683e-09
3.15851e-09
2.41463e-08
4.24636e-09
3.15234e-09
2.37787e-08
4.74711e-09
3.1406e-09
2.34387e-08
5.21402e-09
3.12801e-09
2.31303e-08
3.15235e-09
2.28492e-08
5.63255e-09
6.82104e-10
3.69535e-09
2.58999e-08
1.33771e-09
3.71178e-09
2.54367e-08
1.96876e-09
3.71534e-09
2.49905e-08
2.57556e-09
3.71682e-09
2.45576e-08
3.15795e-09
3.71644e-09
2.41429e-08
3.71418e-09
3.71362e-09
2.37491e-08
4.24178e-09
3.70598e-09
2.3372e-08
4.74013e-09
3.69008e-09
2.3012e-08
5.20646e-09
3.67179e-09
2.26789e-08
3.69836e-09
2.23802e-08
5.62741e-09
6.81783e-10
4.22233e-09
2.5576e-08
1.33673e-09
4.2427e-09
2.51034e-08
1.96676e-09
4.247e-09
2.46491e-08
2.57166e-09
4.24833e-09
2.42055e-08
3.15125e-09
4.24656e-09
2.37758e-08
3.70514e-09
4.24093e-09
2.33665e-08
4.23095e-09
4.23045e-09
2.2978e-08
4.72646e-09
4.2107e-09
2.2601e-08
5.19121e-09
4.18499e-09
2.22388e-08
4.20834e-09
2.19181e-08
5.61631e-09
6.80212e-10
4.71786e-09
2.5295e-08
1.33353e-09
4.74304e-09
2.48096e-08
1.96168e-09
4.74849e-09
2.43419e-08
2.5642e-09
4.74994e-09
2.38846e-08
3.14011e-09
4.74762e-09
2.34385e-08
3.68876e-09
4.74006e-09
2.30069e-08
4.20961e-09
4.7257e-09
2.25951e-08
4.70084e-09
4.70072e-09
2.21947e-08
5.16334e-09
4.66507e-09
2.18034e-08
4.67484e-09
2.14568e-08
5.59676e-09
6.77448e-10
5.17641e-09
2.50573e-08
1.32898e-09
5.20685e-09
2.45545e-08
1.95514e-09
5.21435e-09
2.40695e-08
2.5553e-09
5.21655e-09
2.3595e-08
3.1281e-09
5.21437e-09
2.31312e-08
3.67154e-09
5.2067e-09
2.2678e-08
4.18402e-09
5.19115e-09
2.2236e-08
4.66437e-09
5.16295e-09
2.18013e-08
5.11654e-09
5.11636e-09
2.13727e-08
5.08729e-09
2.09837e-08
5.56494e-09
6.78662e-10
2.48588e-08
5.58492e-09
1.33633e-09
2.43272e-08
5.6179e-09
1.96887e-09
2.38216e-08
5.62863e-09
2.5749e-09
2.33298e-08
5.63306e-09
3.15244e-09
2.28502e-08
5.63281e-09
3.69846e-09
2.23811e-08
5.6276e-09
4.20824e-09
2.19188e-08
5.61643e-09
4.67438e-09
2.14562e-08
5.59671e-09
5.08696e-09
2.09821e-08
5.56462e-09
2.05273e-08
5.49632e-09
5.49616e-09
8.51523e-10
8.51555e-10
2.64114e-08
1.67103e-09
8.54909e-10
2.59449e-08
2.46259e-09
8.56014e-10
2.54806e-08
3.22862e-09
8.57543e-10
2.50513e-08
3.97045e-09
8.59991e-10
2.46639e-08
4.68867e-09
8.63036e-10
2.43179e-08
5.38295e-09
8.66245e-10
2.40145e-08
6.05168e-09
8.69193e-10
2.37559e-08
6.69102e-09
8.72046e-10
2.35446e-08
8.80874e-10
2.33795e-08
7.28822e-09
8.54696e-10
1.67098e-09
2.59411e-08
1.67804e-09
1.67809e-09
2.54959e-08
2.47343e-09
1.68142e-09
2.50506e-08
3.24296e-09
1.68489e-09
2.46253e-08
3.98833e-09
1.68928e-09
2.42345e-08
4.71018e-09
1.69476e-09
2.38823e-08
5.40834e-09
1.70052e-09
2.357e-08
6.08131e-09
1.70588e-09
2.32989e-08
6.72468e-09
1.7119e-09
2.307e-08
1.73367e-09
2.28759e-08
7.32192e-09
8.557e-10
2.46257e-09
2.54776e-08
1.681e-09
2.4732e-09
2.50473e-08
2.47899e-09
2.47889e-09
2.46236e-08
3.25047e-09
2.48508e-09
2.42113e-08
3.99704e-09
2.49151e-09
2.38211e-08
4.72003e-09
2.4986e-09
2.34638e-08
5.41913e-09
2.50616e-09
2.31435e-08
6.09282e-09
2.51325e-09
2.28598e-08
6.7371e-09
2.52161e-09
2.26144e-08
2.55594e-09
2.23998e-08
7.33546e-09
8.57438e-10
3.22865e-09
2.50511e-08
1.68441e-09
3.24286e-09
2.46229e-08
2.48464e-09
3.25008e-09
2.42081e-08
3.25867e-09
3.25844e-09
2.38072e-08
4.00666e-09
3.26743e-09
2.34217e-08
4.72992e-09
3.27599e-09
2.30592e-08
5.42913e-09
3.28406e-09
2.27284e-08
6.10273e-09
3.29169e-09
2.24316e-08
6.74678e-09
3.30145e-09
2.21701e-08
3.34729e-09
2.19387e-08
7.34549e-09
8.60001e-10
3.97051e-09
2.46645e-08
1.68913e-09
3.98839e-09
2.42344e-08
2.49096e-09
3.99691e-09
2.38188e-08
3.26697e-09
4.00614e-09
2.34186e-08
4.01708e-09
4.01665e-09
2.30359e-08
4.74079e-09
4.02711e-09
2.26714e-08
5.43889e-09
4.03544e-09
2.23292e-08
6.11157e-09
4.04151e-09
2.20162e-08
6.75503e-09
4.05077e-09
2.17375e-08
4.10643e-09
2.1491e-08
7.35408e-09
8.63053e-10
4.68876e-09
2.43186e-08
1.6948e-09
4.71027e-09
2.38831e-08
2.49842e-09
4.72009e-09
2.34637e-08
3.2753e-09
4.72978e-09
2.30571e-08
4.02658e-09
4.73998e-09
2.26683e-08
4.75162e-09
4.75072e-09
2.23004e-08
5.44885e-09
4.75978e-09
2.19504e-08
6.11911e-09
4.76361e-09
2.16197e-08
6.7612e-09
4.76912e-09
2.13184e-08
4.83098e-09
2.10555e-08
7.36133e-09
8.66272e-10
5.38306e-09
2.40154e-08
1.70057e-09
5.40846e-09
2.35709e-08
2.5062e-09
5.41925e-09
2.31443e-08
3.2838e-09
5.42928e-09
2.27284e-08
4.03434e-09
5.43872e-09
2.23265e-08
4.75885e-09
5.44742e-09
2.19453e-08
5.45585e-09
5.45501e-09
2.15858e-08
6.12365e-09
5.45664e-09
2.12401e-08
6.7632e-09
5.45577e-09
2.09126e-08
5.51669e-09
2.06292e-08
7.36637e-09
8.69236e-10
6.05181e-09
2.3757e-08
1.70596e-09
6.08144e-09
2.32999e-08
2.51337e-09
6.09295e-09
2.28608e-08
3.29187e-09
6.10288e-09
2.24325e-08
4.04129e-09
6.11177e-09
2.2016e-08
4.76217e-09
6.11854e-09
2.16149e-08
5.45536e-09
6.12225e-09
2.12346e-08
6.11942e-09
6.11901e-09
2.08683e-08
6.75593e-09
6.10827e-09
2.05144e-08
6.1559e-09
2.02071e-08
7.3665e-09
8.72105e-10
6.69117e-09
2.35458e-08
1.71202e-09
6.72482e-09
2.30712e-08
2.52179e-09
6.73722e-09
2.26154e-08
3.30174e-09
6.74687e-09
2.21711e-08
4.05127e-09
6.75506e-09
2.17384e-08
4.76912e-09
6.76104e-09
2.13176e-08
5.45472e-09
6.76268e-09
2.091e-08
6.10753e-09
6.75509e-09
2.05124e-08
6.73221e-09
6.73176e-09
2.01245e-08
6.73676e-09
1.9778e-08
7.35709e-09
8.80952e-10
2.33807e-08
7.28835e-09
1.73382e-09
2.28771e-08
7.32204e-09
2.55617e-09
2.24009e-08
7.33555e-09
3.34761e-09
2.19397e-08
7.34555e-09
4.10684e-09
2.14919e-08
7.35407e-09
4.8314e-09
2.10563e-08
7.36122e-09
5.51682e-09
2.06298e-08
7.36619e-09
6.1555e-09
2.02064e-08
7.36615e-09
6.73646e-09
1.97765e-08
7.35643e-09
1.93687e-08
7.31611e-09
7.31577e-09
1.00435e-09
1.00438e-09
2.44026e-08
1.97253e-09
1.00836e-09
2.39684e-08
2.91032e-09
1.01036e-09
2.35325e-08
3.82292e-09
1.0136e-09
2.31251e-08
4.71467e-09
1.0188e-09