/*--------------------------------*- C++ -*----------------------------------*\
| =========                 |                                                 |
| \\      /  F ield         | foam-extend: Open Source CFD                    |
|  \\    /   O peration     | Version:     3.1                                |
|   \\  /    A nd           | Web:         http://www.extend-project.de       |
|    \\/     M anipulation  |                                                 |
\*---------------------------------------------------------------------------*/
FoamFile
{
    version     2.0;
    format      ascii;
    class       pointVectorField;
    location    "0.0018";
    object      pointMotionU;
}
// * * * * * * * * * * * * * * * * * * * * * * * * * * * * * * * * * * * * * //

dimensions      [0 1 -1 0 0 0 0];

internalField   nonuniform List<vector> 
18306
(
(0 0 0)
(0 0 0)
(0 0 0)
(0 0 0)
(0 0 0)
(0 0 0)
(0 0 0)
(0 0 0)
(0 0 0)
(0 0 0)
(0 0 0)
(0 0 0)
(0 0 0)
(0 0 0)
(0 0 0)
(0 0 0)
(0 0 0)
(0 0 0)
(0 0 0)
(0 0 0)
(0 0 0)
(0 0 0)
(0 0 0)
(0 0 0)
(0 0 0)
(0 0 0)
(0 0 0)
(0 0 0)
(0 0 0)
(0 0 0)
(0 0 0)
(0 0 0)
(0 0 0)
(0 0 0)
(0 0 0)
(0 0 0)
(0 0 0)
(0 0 0)
(0 0 0)
(0 0 0)
(0 0 0)
(0 0 0)
(0 0 0)
(0 0 0)
(0 0 0)
(0 0 0)
(0 0 0)
(0 0 0)
(0 0 0)
(0 0 0)
(0 0 0)
(0 0 0)
(0 0 0)
(0 0 0)
(0 0 0)
(0 0 0)
(0 0 0)
(0 0 0)
(0 0 0)
(0 0 0)
(0 0 0)
(0 0 0)
(0 0 0)
(0 0 0)
(0 0 0)
(0 0 0)
(0 0 0)
(0 0 0)
(0 0 0)
(0 0 0)
(0 0 0)
(0 0 0)
(0 0 0)
(0 0 0)
(0 0 0)
(0 0 0)
(0 0 0)
(0 0 0)
(0 0 0)
(0 0 0)
(0 0 0)
(0 0 0)
(0 0 0)
(0 0 0)
(0 0 0)
(0 0 0)
(0 0 0)
(0 0 0)
(0 0 0)
(0 0 0)
(0 0 0)
(0 0 0)
(0 0 0)
(0 0 0)
(0 0 0)
(0 0 0)
(0 0 0)
(0 0 0)
(0 0 0)
(0 0 0)
(0 0 0)
(0 0 0)
(0 0 0)
(0 0 0)
(0 0 0)
(0 0 0)
(0 0 0)
(0 0 0)
(0 0 0)
(0 0 0)
(0 0 0)
(0 0 0)
(0 0 0)
(0 0 0)
(0 0 0)
(0 0 0)
(0 0 0)
(0 0 0)
(0 0 0)
(0 0 0)
(0 0 0)
(0 0 -2.0459e-08)
(-1.61577e-08 0 -2.07481e-08)
(-3.23264e-08 0 -2.16657e-08)
(-4.87406e-08 0 -2.32474e-08)
(-6.58804e-08 0 -2.56043e-08)
(-8.40853e-08 0 -2.89086e-08)
(-1.03454e-07 0 -3.33849e-08)
(-1.23753e-07 0 -3.92989e-08)
(-1.44237e-07 0 -4.69263e-08)
(-1.63361e-07 0 -5.64874e-08)
(-1.78455e-07 0 -6.81765e-08)
(0 -1.87784e-09 -2.0649e-08)
(-1.57555e-08 -1.90422e-09 -2.09374e-08)
(-3.16599e-08 -1.99492e-09 -2.18516e-08)
(-4.79074e-08 -2.18575e-09 -2.34304e-08)
(-6.48773e-08 -2.50118e-09 -2.57853e-08)
(-8.28946e-08 -2.95105e-09 -2.90875e-08)
(-1.02054e-07 -3.53048e-09 -3.35582e-08)
(-1.22137e-07 -4.21482e-09 -3.9463e-08)
(-1.42464e-07 -4.95408e-09 -4.70761e-08)
(-1.61675e-07 -5.67457e-09 -5.66182e-08)
(-1.77572e-07 -6.14133e-09 -6.81641e-08)
(0 -3.89393e-09 -2.12774e-08)
(-1.47284e-08 -3.94557e-09 -2.15598e-08)
(-2.98352e-08 -4.11657e-09 -2.24611e-08)
(-4.55171e-08 -4.459e-09 -2.40292e-08)
(-6.19804e-08 -5.03396e-09 -2.63748e-08)
(-7.94365e-08 -5.88026e-09 -2.96668e-08)
(-9.79787e-08 -6.99671e-09 -3.4125e-08)
(-1.17409e-07 -8.33687e-09 -4.00071e-08)
(-1.37137e-07 -9.79176e-09 -4.75738e-08)
(-1.56149e-07 -1.11941e-08 -5.70522e-08)
(-1.73456e-07 -1.20635e-08 -6.85484e-08)
(0 -6.21995e-09 -2.23877e-08)
(-1.33752e-08 -6.27301e-09 -2.26623e-08)
(-2.72302e-08 -6.45937e-09 -2.35437e-08)
(-4.18417e-08 -6.85412e-09 -2.5091e-08)
(-5.7384e-08 -7.56181e-09 -2.74215e-08)
(-7.39109e-08 -8.67314e-09 -3.07006e-08)
(-9.14052e-08 -1.02121e-08 -3.51439e-08)
(-1.09658e-07 -1.21124e-08 -4.09992e-08)
(-1.28107e-07 -1.42022e-08 -4.85059e-08)
(-1.45894e-07 -1.62121e-08 -5.78838e-08)
(-1.63043e-07 -1.74422e-08 -6.92e-08)
(0 -9.04089e-09 -2.40879e-08)
(-1.17997e-08 -9.05004e-09 -2.43545e-08)
(-2.41404e-08 -9.12296e-09 -2.52106e-08)
(-3.72958e-08 -9.38679e-09 -2.67257e-08)
(-5.14701e-08 -1.00169e-08 -2.90317e-08)
(-6.66946e-08 -1.1174e-08 -3.22991e-08)
(-8.27837e-08 -1.29336e-08 -3.67358e-08)
(-9.93707e-08 -1.52254e-08 -4.25773e-08)
(-1.15839e-07 -1.78113e-08 -5.00442e-08)
(-1.31272e-07 -2.0311e-08 -5.93259e-08)
(-1.46366e-07 -2.18707e-08 -7.0344e-08)
(0 -1.25053e-08 -2.6541e-08)
(-1.00736e-08 -1.24077e-08 -2.67955e-08)
(-2.07234e-08 -1.2186e-08 -2.76158e-08)
(-3.2221e-08 -1.20484e-08 -2.90855e-08)
(-4.47224e-08 -1.22889e-08 -3.13542e-08)
(-5.82751e-08 -1.31792e-08 -3.46082e-08)
(-7.26748e-08 -1.48756e-08 -3.90602e-08)
(-8.73373e-08 -1.73238e-08 -4.49225e-08)
(-1.01384e-07 -2.02172e-08 -5.23958e-08)
(-1.13747e-07 -2.30494e-08 -6.16363e-08)
(-1.25578e-07 -2.49284e-08 -7.23424e-08)
(0 -1.67024e-08 -2.99617e-08)
(-8.25187e-09 -1.64127e-08 -3.01928e-08)
(-1.70878e-08 -1.56603e-08 -3.09545e-08)
(-2.68098e-08 -1.4767e-08 -3.23555e-08)
(-3.75312e-08 -1.42002e-08 -3.45717e-08)
(-4.9222e-08 -1.44082e-08 -3.78097e-08)
(-6.16807e-08 -1.56685e-08 -4.22897e-08)
(-7.43089e-08 -1.79763e-08 -4.82182e-08)
(-8.59233e-08 -2.09555e-08 -5.57613e-08)
(-9.5152e-08 -2.39304e-08 -6.50252e-08)
(-1.03383e-07 -2.61144e-08 -7.54797e-08)
(0 -2.16099e-08 -3.46142e-08)
(-6.35829e-09 -2.10206e-08 -3.48022e-08)
(-1.33057e-08 -1.94344e-08 -3.54559e-08)
(-2.11744e-08 -1.73338e-08 -3.67348e-08)
(-3.0091e-08 -1.54327e-08 -3.88657e-08)
(-3.99603e-08 -1.44429e-08 -4.20829e-08)
(-5.04674e-08 -1.48231e-08 -4.66017e-08)
(-6.10316e-08 -1.66407e-08 -5.26261e-08)
(-7.04515e-08 -1.94644e-08 -6.02566e-08)
(-7.70522e-08 -2.23926e-08 -6.95481e-08)
(-8.20345e-08 -2.48192e-08 -7.9816e-08)
(0 -2.69945e-08 -4.07988e-08)
(-4.37785e-09 -2.59813e-08 -4.09028e-08)
(-9.36098e-09 -2.3193e-08 -4.13465e-08)
(-1.53203e-08 -1.93223e-08 -4.2396e-08)
(-2.24216e-08 -1.54379e-08 -4.43747e-08)
(-3.05777e-08 -1.26333e-08 -4.75601e-08)
(-3.93906e-08 -1.16529e-08 -5.21492e-08)
(-4.8156e-08 -1.2656e-08 -5.82748e-08)
(-5.57503e-08 -1.51369e-08 -6.59223e-08)
(-6.04444e-08 -1.79034e-08 -7.51253e-08)
(-6.29657e-08 -2.04511e-08 -8.51188e-08)
(0 -3.22575e-08 -4.8826e-08)
(-2.24702e-09 -3.0704e-08 -4.87587e-08)
(-5.13788e-09 -2.63274e-08 -4.88046e-08)
(-9.10713e-09 -2.00251e-08 -4.94491e-08)
(-1.43738e-08 -1.33631e-08 -5.11667e-08)
(-2.08856e-08 -8.01092e-09 -5.42915e-08)
(-2.82482e-08 -5.15436e-09 -5.8992e-08)
(-3.56785e-08 -5.12983e-09 -6.52667e-08)
(-4.20328e-08 -7.32505e-09 -7.29135e-08)
(-4.57201e-08 -1.01888e-08 -8.17271e-08)
(-4.69788e-08 -1.29217e-08 -9.07426e-08)
(0 -3.62336e-08 -5.91203e-08)
(1.67754e-10 -3.4209e-08 -5.85859e-08)
(-3.79568e-10 -2.82831e-08 -5.78912e-08)
(-2.09187e-09 -1.91865e-08 -5.77936e-08)
(-5.25257e-09 -8.99551e-09 -5.8931e-08)
(-9.90005e-09 -1.36085e-10 -6.16954e-08)
(-1.57416e-08 5.53213e-09 -6.62494e-08)
(-2.20956e-08 7.21955e-09 -7.25159e-08)
(-2.79327e-08 5.3447e-09 -8.01175e-08)
(-3.21582e-08 1.35807e-09 -8.82308e-08)
(-3.40789e-08 -2.79875e-09 -9.59875e-08)
(0 0 -3.70923e-08)
(-3.02946e-08 -0 -3.75191e-08)
(-6.07148e-08 -0 -3.88462e-08)
(-9.18254e-08 -0 -4.11422e-08)
(-1.24705e-07 -0 -4.45795e-08)
(-1.60269e-07 -0 -4.94254e-08)
(-1.99136e-07 -0 -5.60325e-08)
(-2.41547e-07 -0 -6.4832e-08)
(-2.87143e-07 -0 -7.63076e-08)
(-3.34591e-07 -0 -9.09428e-08)
(-3.81487e-07 -0 -1.09378e-07)
(0 -2.46033e-09 -3.735e-08)
(-2.95505e-08 -2.54198e-09 -3.77746e-08)
(-5.9488e-08 -2.79511e-09 -3.90941e-08)
(-9.02988e-08 -3.27494e-09 -4.1382e-08)
(-1.22872e-07 -4.0305e-09 -4.48103e-08)
(-1.58092e-07 -5.09431e-09 -4.96445e-08)
(-1.96562e-07 -6.47863e-09 -5.62305e-08)
(-2.38527e-07 -8.16987e-09 -6.49935e-08)
(-2.83702e-07 -1.01232e-08 -7.64008e-08)
(-3.30961e-07 -1.22761e-08 -9.0898e-08)
(-3.78225e-07 -1.42445e-08 -1.08844e-07)
(0 -5.29213e-09 -3.8184e-08)
(-2.7619e-08 -5.44341e-09 -3.85965e-08)
(-5.60592e-08 -5.90962e-09 -3.98869e-08)
(-8.58126e-08 -6.78414e-09 -4.21429e-08)
(-1.17439e-07 -8.18791e-09 -4.55355e-08)
(-1.516e-07 -1.02189e-08 -5.03247e-08)
(-1.88875e-07 -1.29192e-08 -5.68495e-08)
(-2.29497e-07 -1.62668e-08 -6.55105e-08)
(-2.73222e-07 -2.01512e-08 -7.67255e-08)
(-3.19313e-07 -2.43974e-08 -9.08783e-08)
(-3.67436e-07 -2.81615e-08 -1.08232e-07)
(0 -8.9256e-09 -3.9681e-08)
(-2.50841e-08 -9.09514e-09 -4.00772e-08)
(-5.11795e-08 -9.63494e-09 -4.1321e-08)
(-7.89342e-08 -1.06999e-08 -4.35193e-08)
(-1.08849e-07 -1.25065e-08 -4.68551e-08)
(-1.41277e-07 -1.52622e-08 -5.15823e-08)
(-1.76562e-07 -1.90781e-08 -5.80276e-08)
(-2.14863e-07 -2.39286e-08 -6.65662e-08)
(-2.55874e-07 -2.96267e-08 -7.75607e-08)
(-2.98957e-07 -3.58616e-08 -9.134e-08)
(-3.45337e-07 -4.13308e-08 -1.08046e-07)
(0 -1.385e-08 -4.20152e-08)
(-2.2151e-08 -1.39502e-08 -4.2393e-08)
(-4.54303e-08 -1.43117e-08 -4.35764e-08)
(-7.04853e-08 -1.5206e-08 -4.56916e-08)
(-9.78772e-08 -1.70077e-08 -4.89479e-08)
(-1.27912e-07 -2.00792e-08 -5.36082e-08)
(-1.60596e-07 -2.465e-08 -5.99863e-08)
(-1.95748e-07 -3.07193e-08 -6.84321e-08)
(-2.32897e-07 -3.80192e-08 -7.92726e-08)
(-2.71195e-07 -4.60814e-08 -9.27848e-08)
(-3.12914e-07 -5.32173e-08 -1.08897e-07)
(0 -2.05907e-08 -4.5449e-08)
(-1.89704e-08 -2.0497e-08 -4.57999e-08)
(-3.91432e-08 -2.03219e-08 -4.69006e-08)
(-6.11671e-08 -2.05158e-08 -4.89059e-08)
(-8.55154e-08 -2.17089e-08 -5.20576e-08)
(-1.12529e-07 -2.45077e-08 -5.66483e-08)
(-1.42177e-07 -2.93227e-08 -6.30005e-08)
(-1.7384e-07 -3.62084e-08 -7.14297e-08)
(-2.06524e-07 -4.48165e-08 -8.22355e-08)
(-2.39072e-07 -5.44956e-08 -9.56603e-08)
(-2.74425e-07 -6.33291e-08 -1.11328e-07)
(0 -2.97263e-08 -5.03339e-08)
(-1.56702e-08 -2.92611e-08 -5.06374e-08)
(-3.25707e-08 -2.80629e-08 -5.16108e-08)
(-5.14175e-08 -2.68437e-08 -5.34601e-08)
(-7.26093e-08 -2.66114e-08 -5.64798e-08)
(-9.63426e-08 -2.83492e-08 -6.10002e-08)
(-1.22599e-07 -3.27284e-08 -6.73596e-08)
(-1.50741e-07 -3.99227e-08 -7.58681e-08)
(-1.79173e-07 -4.94866e-08 -8.67797e-08)
(-2.0615e-07 -6.05065e-08 -1.00283e-07)
(-2.34886e-07 -7.10741e-08 -1.15686e-07)
(0 -4.18826e-08 -5.71205e-08)
(-1.23292e-08 -4.08029e-08 -5.73384e-08)
(-2.59179e-08 -3.7909e-08 -5.8089e-08)
(-4.1552e-08 -3.43188e-08 -5.9683e-08)
(-5.96674e-08 -3.16007e-08 -6.25136e-08)
(-8.03432e-08 -3.12884e-08 -6.69637e-08)
(-1.03341e-07 -3.44146e-08 -7.33657e-08)
(-1.28075e-07 -4.13071e-08 -8.20265e-08)
(-1.52879e-07 -5.14012e-08 -9.31082e-08)
(-1.75409e-07 -6.3417e-08 -1.06741e-07)
(-1.9838e-07 -7.56393e-08 -1.2201e-07)
(0 -5.76743e-08 -6.63654e-08)
(-8.96864e-09 -5.56435e-08 -6.64154e-08)
(-1.92501e-08 -5.01209e-08 -6.67425e-08)
(-3.17217e-08 -4.28675e-08 -6.78814e-08)
(-4.69132e-08 -3.63034e-08 -7.04105e-08)
(-6.49357e-08 -3.27458e-08 -7.47866e-08)
(-8.53861e-08 -3.37443e-08 -8.13061e-08)
(-1.07398e-07 -3.9743e-08 -9.01604e-08)
(-1.29367e-07 -4.9951e-08 -1.0134e-07)
(-1.48814e-07 -6.26026e-08 -1.14954e-07)
(-1.67396e-07 -7.6095e-08 -1.29958e-07)
(0 -7.76017e-08 -7.87441e-08)
(-5.5424e-09 -7.41383e-08 -7.84385e-08)
(-1.24862e-08 -6.47183e-08 -7.79483e-08)
(-2.18563e-08 -5.21033e-08 -7.82924e-08)
(-3.43163e-08 -3.99603e-08 -8.03418e-08)
(-5.00735e-08 -3.1729e-08 -8.46294e-08)
(-6.87384e-08 -2.96909e-08 -9.13746e-08)
(-8.92071e-08 -3.44441e-08 -1.00538e-07)
(-1.09649e-07 -4.47905e-08 -1.11817e-07)
(-1.27494e-07 -5.80577e-08 -1.2496e-07)
(-1.42937e-07 -7.19075e-08 -1.38603e-07)
(0 -1.02216e-07 -9.53269e-08)
(-1.86251e-09 -9.65951e-08 -9.40661e-08)
(-5.21361e-09 -8.21841e-08 -9.19987e-08)
(-1.11445e-08 -6.26523e-08 -9.09075e-08)
(-2.04784e-08 -4.29986e-08 -9.19856e-08)
(-3.36343e-08 -2.79935e-08 -9.57894e-08)
(-5.04396e-08 -2.09792e-08 -1.02445e-07)
(-6.99528e-08 -2.31683e-08 -1.11739e-07)
(-9.03816e-08 -3.34033e-08 -1.23069e-07)
(-1.09234e-07 -4.82739e-08 -1.35218e-07)
(-1.24465e-07 -6.34531e-08 -1.46939e-07)
(0 0 -4.86736e-08)
(-4.05e-08 -0 -4.90002e-08)
(-8.13251e-08 -0 -5.00175e-08)
(-1.23361e-07 -0 -5.17967e-08)
(-1.68279e-07 -0 -5.44955e-08)
(-2.17684e-07 -0 -5.83542e-08)
(-2.72981e-07 -0 -6.36886e-08)
(-3.35396e-07 -0 -7.08953e-08)
(-4.05846e-07 -0 -8.0453e-08)
(-4.84668e-07 -0 -9.29359e-08)
(-5.72227e-07 -0 -1.09284e-07)
(0 -3.79147e-10 -4.88035e-08)
(-3.94902e-08 -5.5298e-10 -4.91251e-08)
(-7.96681e-08 -1.06429e-09 -5.01285e-08)
(-1.21292e-07 -1.94471e-09 -5.18884e-08)
(-1.65786e-07 -3.25571e-09 -5.45611e-08)
(-2.14718e-07 -5.05831e-09 -5.83851e-08)
(-2.69452e-07 -7.39395e-09 -6.36668e-08)
(-3.31187e-07 -1.02811e-08 -7.07871e-08)
(-4.00852e-07 -1.37148e-08 -8.01886e-08)
(-4.78834e-07 -1.76964e-08 -9.23546e-08)
(-5.65109e-07 -2.17839e-08 -1.07858e-07)
(0 -1.41809e-09 -4.92484e-08)
(-3.68453e-08 -1.72284e-09 -4.95512e-08)
(-7.49669e-08 -2.63514e-09 -5.05043e-08)
(-1.15128e-07 -4.24813e-09 -5.21963e-08)
(-1.58308e-07 -6.71322e-09 -5.47831e-08)
(-2.05767e-07 -1.01853e-08 -5.84948e-08)
(-2.58798e-07 -1.47728e-08 -6.36228e-08)
(-3.18496e-07 -2.05182e-08 -7.05055e-08)
(-3.8565e-07 -2.73782e-08 -7.94947e-08)
(-4.60744e-07 -3.52746e-08 -9.09103e-08)
(-5.45251e-07 -4.31573e-08 -1.05057e-07)
(0 -3.8164e-09 -5.01065e-08)
(-3.3374e-08 -4.16642e-09 -5.03814e-08)
(-6.82623e-08 -5.24447e-09 -5.12518e-08)
(-1.05678e-07 -7.26224e-09 -5.28266e-08)
(-1.46518e-07 -1.05223e-08 -5.52769e-08)
(-1.91594e-07 -1.53315e-08 -5.88257e-08)
(-2.41845e-07 -2.19087e-08 -6.37438e-08)
(-2.98179e-07 -3.03287e-08 -7.03271e-08)
(-3.61119e-07 -4.04905e-08 -7.88415e-08)
(-4.3097e-07 -5.21919e-08 -8.94874e-08)
(-5.10792e-07 -6.37305e-08 -1.02404e-07)
(0 -8.37525e-09 -5.15478e-08)
(-2.93674e-08 -8.6464e-09 -5.17874e-08)
(-6.03963e-08 -9.52769e-09 -5.25479e-08)
(-9.41282e-08 -1.14198e-08 -5.39614e-08)
(-1.31548e-07 -1.48817e-08 -5.623e-08)
(-1.73387e-07 -2.04633e-08 -5.95899e-08)
(-2.20095e-07 -2.85582e-08 -6.42961e-08)
(-2.72058e-07 -3.93001e-08 -7.06084e-08)
(-3.29472e-07 -5.25233e-08 -7.87459e-08)
(-3.92206e-07 -6.78668e-08 -8.88483e-08)
(-4.64466e-07 -8.30193e-08 -1.00908e-07)
(0 -1.60947e-08 -5.38188e-08)
(-2.50517e-08 -1.61062e-08 -5.40096e-08)
(-5.18705e-08 -1.6274e-08 -5.46245e-08)
(-8.15137e-08 -1.72828e-08 -5.58331e-08)
(-1.14856e-07 -2.00861e-08 -5.78801e-08)
(-1.52678e-07 -2.56189e-08 -6.10376e-08)
(-1.95374e-07 -3.45566e-08 -6.55721e-08)
(-2.42694e-07 -4.71205e-08 -7.17109e-08)
(-2.94074e-07 -6.30688e-08 -7.96432e-08)
(-3.48932e-07 -8.18468e-08 -8.94958e-08)
(-4.12185e-07 -1.00686e-07 -1.01073e-07)
(0 -2.82769e-08 -5.72471e-08)
(-2.06343e-08 -2.77613e-08 -5.73625e-08)
(-4.30881e-08 -2.64822e-08 -5.77687e-08)
(-6.85256e-08 -2.55608e-08 -5.87055e-08)
(-9.77319e-08 -2.65421e-08 -6.0489e-08)
(-1.31296e-07 -3.09294e-08 -6.34404e-08)
(-1.69638e-07 -3.9794e-08 -6.78461e-08)
(-2.12485e-07 -5.35443e-08 -7.39313e-08)
(-2.58421e-07 -7.18124e-08 -8.18463e-08)
(-3.06036e-07 -9.37219e-08 -9.1692e-08)
(-3.60449e-07 -1.16324e-07 -1.03066e-07)
(0 -4.6643e-08 -6.22622e-08)
(-1.62665e-08 -4.5204e-08 -6.22508e-08)
(-3.44137e-08 -4.13968e-08 -6.23214e-08)
(-5.57218e-08 -3.70669e-08 -6.28563e-08)
(-8.1046e-08 -3.46734e-08 -6.4303e-08)
(-1.10824e-07 -3.65399e-08 -6.705e-08)
(-1.45169e-07 -4.42348e-08 -7.13813e-08)
(-1.83895e-07 -5.83843e-08 -7.75128e-08)
(-2.25441e-07 -7.84193e-08 -8.55252e-08)
(-2.6754e-07 -1.02987e-07 -9.5478e-08)
(-3.14461e-07 -1.29227e-07 -1.06801e-07)
(0 -7.34329e-08 -6.94281e-08)
(-1.20357e-08 -7.04482e-08 -6.91784e-08)
(-2.60522e-08 -6.24588e-08 -6.8651e-08)
(-4.348e-08 -5.25921e-08 -6.85342e-08)
(-6.53294e-08 -4.47555e-08 -6.95124e-08)
(-9.21026e-08 -4.24234e-08 -7.20587e-08)
(-1.23679e-07 -4.78081e-08 -7.64138e-08)
(-1.59431e-07 -6.15774e-08 -8.26773e-08)
(-1.97769e-07 -8.27266e-08 -9.07877e-08)
(-2.36191e-07 -1.09273e-07 -1.0078e-07)
(-2.77302e-07 -1.38375e-07 -1.11957e-07)
(0 -1.11539e-07 -7.95132e-08)
(-7.96325e-09 -1.05933e-07 -7.87667e-08)
(-1.8052e-08 -9.11612e-08 -7.71068e-08)
(-3.19325e-08 -7.27265e-08 -7.59023e-08)
(-5.08376e-08 -5.67225e-08 -7.62151e-08)
(-7.5435e-08 -4.81789e-08 -7.85766e-08)
(-1.05625e-07 -5.01122e-08 -8.31041e-08)
(-1.40347e-07 -6.31084e-08 -8.96591e-08)
(-1.77482e-07 -8.53146e-08 -9.79201e-08)
(-2.13977e-07 -1.13216e-07 -1.07638e-07)
(-2.49797e-07 -1.42693e-07 -1.17839e-07)
(0 -1.65487e-07 -9.38535e-08)
(-3.88552e-09 -1.54991e-07 -9.18781e-08)
(-9.97734e-09 -1.30063e-07 -8.80512e-08)
(-2.00689e-08 -9.95629e-08 -8.49961e-08)
(-3.56487e-08 -7.1997e-08 -8.42044e-08)
(-5.77103e-08 -5.39942e-08 -8.61326e-08)
(-8.64682e-08 -4.96211e-08 -9.06787e-08)
(-1.2104e-07 -5.99131e-08 -9.74614e-08)
(-1.59155e-07 -8.26414e-08 -1.05875e-07)
(-1.96919e-07 -1.12236e-07 -1.14939e-07)
(-2.30703e-07 -1.41999e-07 -1.23722e-07)
(0 0 -5.69356e-08)
(-4.52613e-08 -0 -5.69846e-08)
(-9.0957e-08 -0 -5.716e-08)
(-1.38115e-07 -0 -5.75093e-08)
(-1.88718e-07 -0 -5.81185e-08)
(-2.44764e-07 -0 -5.91017e-08)
(-3.08141e-07 -0 -6.05979e-08)
(-3.80742e-07 -0 -6.27802e-08)
(-4.64419e-07 -0 -6.58796e-08)
(-5.60873e-07 -0 -7.02531e-08)
(-6.72859e-07 -0 -7.66347e-08)
(0 5.35937e-09 -5.68008e-08)
(-4.40712e-08 5.06452e-09 -5.68408e-08)
(-8.8996e-08 4.22266e-09 -5.69929e-08)
(-1.35643e-07 2.88936e-09 -5.73064e-08)
(-1.8572e-07 1.0207e-09 -5.78651e-08)
(-2.41193e-07 -1.4582e-09 -5.87813e-08)
(-3.03887e-07 -4.60156e-09 -6.0185e-08)
(-3.75633e-07 -8.43896e-09 -6.22271e-08)
(-4.58226e-07 -1.29804e-08 -6.50919e-08)
(-5.53239e-07 -1.82555e-08 -6.90216e-08)
(-6.62397e-07 -2.38344e-08 -7.44707e-08)
(0 9.8611e-09 -5.64426e-08)
(-4.09228e-08 9.37357e-09 -5.64555e-08)
(-8.33688e-08 7.924e-09 -5.65321e-08)
(-1.28215e-07 5.48856e-09 -5.67309e-08)
(-1.76673e-07 1.9591e-09 -5.71369e-08)
(-2.30352e-07 -2.82677e-09 -5.78542e-08)
(-2.90968e-07 -9.00699e-09 -5.89929e-08)
(-3.60162e-07 -1.66449e-08 -6.0654e-08)
(-4.39414e-07 -2.5719e-08 -6.29167e-08)
(-5.30047e-07 -3.61934e-08 -6.58076e-08)
(-6.34801e-07 -4.70075e-08 -6.94788e-08)
(0 1.27083e-08 -5.59397e-08)
(-3.67526e-08 1.2154e-08 -5.59102e-08)
(-7.52838e-08 1.04536e-08 -5.58615e-08)
(-1.16795e-07 7.39561e-09 -5.5868e-08)
(-1.62409e-07 2.6788e-09 -5.60308e-08)
(-2.13202e-07 -4.00568e-09 -5.64509e-08)
(-2.70462e-07 -1.2904e-08 -5.72145e-08)
(-3.35549e-07 -2.41234e-08 -5.83749e-08)
(-4.09499e-07 -3.75854e-08 -5.99212e-08)
(-4.93178e-07 -5.3126e-08 -6.17325e-08)
(-5.9078e-07 -6.90093e-08 -6.3868e-08)
(0 1.30429e-08 -5.54011e-08)
(-3.19106e-08 1.25708e-08 -5.53143e-08)
(-6.57568e-08 1.1068e-08 -5.50964e-08)
(-1.02807e-07 8.07197e-09 -5.4844e-08)
(-1.44293e-07 2.93427e-09 -5.46888e-08)
(-1.91196e-07 -4.96027e-09 -5.47511e-08)
(-2.44227e-07 -1.60303e-08 -5.51045e-08)
(-3.04097e-07 -3.04246e-08 -5.57651e-08)
(-3.71398e-07 -4.79953e-08 -5.66791e-08)
(-4.46392e-07 -6.84077e-08 -5.76815e-08)
(-5.34492e-07 -8.92991e-08 -5.88748e-08)
(0 9.66756e-09 -5.49574e-08)
(-2.66752e-08 9.5008e-09 -5.47949e-08)
(-5.54065e-08 8.82321e-09 -5.43592e-08)
(-8.75e-08 6.80397e-09 -5.37866e-08)
(-1.2408e-07 2.30088e-09 -5.32562e-08)
(-1.66193e-07 -5.79623e-09 -5.29265e-08)
(-2.14483e-07 -1.82516e-08 -5.28859e-08)
(-2.68913e-07 -3.52732e-08 -5.31323e-08)
(-3.29166e-07 -5.65785e-08 -5.35873e-08)
(-3.94973e-07 -8.16184e-08 -5.41045e-08)
(-4.72576e-07 -1.07575e-07 -5.48581e-08)
(0 8.76231e-10 -5.47651e-08)
(-2.13078e-08 1.34731e-09 -5.44982e-08)
(-4.47355e-08 2.41216e-09 -5.37707e-08)
(-7.17303e-08 2.65192e-09 -5.2796e-08)
(-1.03338e-07 1.72589e-10 -5.18353e-08)
(-1.40399e-07 -6.81949e-09 -5.11004e-08)
(-1.83595e-07 -1.95734e-08 -5.07032e-08)
(-2.32866e-07 -3.85183e-08 -5.0646e-08)
(-2.86892e-07 -6.31429e-08 -5.0829e-08)
(-3.44453e-07 -9.24736e-08 -5.11215e-08)
(-4.12035e-07 -1.23533e-07 -5.17383e-08)
(0 -1.57629e-08 -5.50226e-08)
(-1.6006e-08 -1.41367e-08 -5.45958e-08)
(-3.4208e-08 -9.92952e-09 -5.34434e-08)
(-5.62109e-08 -5.56841e-09 -5.19316e-08)
(-8.3167e-08 -4.14682e-09 -5.04634e-08)
(-1.15761e-07 -8.44497e-09 -4.93244e-08)
(-1.5433e-07 -2.02473e-08 -4.86337e-08)
(-1.98915e-07 -4.02159e-08 -4.8378e-08)
(-2.48017e-07 -6.75626e-08 -4.84466e-08)
(-2.99397e-07 -1.00663e-07 -4.86957e-08)
(-3.58526e-07 -1.36593e-07 -4.93115e-08)
(0 -4.36542e-08 -5.60099e-08)
(-1.08964e-08 -4.00046e-08 -5.53083e-08)
(-2.41154e-08 -3.04078e-08 -5.34717e-08)
(-4.14636e-08 -1.91568e-08 -5.11857e-08)
(-6.42996e-08 -1.12798e-08 -4.90934e-08)
(-9.34034e-08 -1.09453e-08 -4.75619e-08)
(-1.28849e-07 -2.0585e-08 -4.66785e-08)
(-1.70152e-07 -4.07582e-08 -4.6357e-08)
(-2.15745e-07 -7.00818e-08 -4.64437e-08)
(-2.63059e-07 -1.06132e-07 -4.67581e-08)
(-3.15508e-07 -1.45853e-07 -4.74049e-08)
(0 -8.75498e-08 -5.81833e-08)
(-6.03112e-09 -8.02598e-08 -5.69469e-08)
(-1.45773e-08 -6.14951e-08 -5.38938e-08)
(-2.77409e-08 -3.92412e-08 -5.04207e-08)
(-4.71674e-08 -2.14985e-08 -4.75508e-08)
(-7.38514e-08 -1.4218e-08 -4.56805e-08)
(-1.079e-07 -2.05439e-08 -4.47629e-08)
(-1.48304e-07 -4.06667e-08 -4.45585e-08)
(-1.92802e-07 -7.19934e-08 -4.48054e-08)
(-2.38019e-07 -1.1014e-07 -4.52634e-08)
(-2.83969e-07 -1.50249e-07 -4.59272e-08)
(0 -1.55187e-07 -6.24558e-08)
(-1.3257e-09 -1.40658e-07 -6.0095e-08)
(-5.29614e-09 -1.07146e-07 -5.48525e-08)
(-1.41595e-08 -6.8656e-08 -4.95825e-08)
(-2.98673e-08 -3.65587e-08 -4.5759e-08)
(-5.37998e-08 -1.83907e-08 -4.36195e-08)
(-8.64325e-08 -1.80795e-08 -4.28165e-08)
(-1.26954e-07 -3.59866e-08 -4.28755e-08)
(-1.72869e-07 -6.88155e-08 -4.33992e-08)
(-2.19568e-07 -1.09434e-07 -4.4106e-08)
(-2.62555e-07 -1.49611e-07 -4.4832e-08)
(0 0 -6.56549e-08)
(-4.43298e-08 -0 -6.54031e-08)
(-8.89737e-08 -0 -6.46739e-08)
(-1.34829e-07 -0 -6.34885e-08)
(-1.83724e-07 -0 -6.18561e-08)
(-2.37483e-07 -0 -5.97546e-08)
(-2.97785e-07 -0 -5.71304e-08)
(-3.66272e-07 -0 -5.39055e-08)
(-4.44515e-07 -0 -5.00112e-08)
(-5.33945e-07 -0 -4.5482e-08)
(-6.37053e-07 -0 -4.0605e-08)
(0 1.45807e-08 -6.52599e-08)
(-4.30412e-08 1.41498e-08 -6.49942e-08)
(-8.68165e-08 1.29427e-08 -6.42305e-08)
(-1.32071e-07 1.11661e-08 -6.29905e-08)
(-1.80365e-07 8.82874e-09 -6.12808e-08)
(-2.3349e-07 5.86825e-09 -5.90779e-08)
(-2.93065e-07 2.24852e-09 -5.63217e-08)
(-3.60662e-07 -2.02968e-09 -5.29094e-08)
(-4.37787e-07 -6.93877e-09 -4.8725e-08)
(-5.25703e-07 -1.24614e-08 -4.36914e-08)
(-6.2591e-07 -1.82428e-08 -3.79876e-08)
(0 2.82984e-08 -6.41157e-08)
(-3.95942e-08 2.7625e-08 -6.38135e-08)
(-8.05967e-08 2.5616e-08 -6.29464e-08)
(-1.23779e-07 2.23914e-08 -6.15408e-08)
(-1.70223e-07 1.79744e-08 -5.96064e-08)
(-2.21366e-07 1.22681e-08 -5.71148e-08)
(-2.78717e-07 5.17204e-09 -5.39857e-08)
(-3.43655e-07 -3.31326e-09 -5.00693e-08)
(-4.17347e-07 -1.30908e-08 -4.51531e-08)
(-5.00748e-07 -2.40423e-08 -3.89448e-08)
(-5.9627e-07 -3.53161e-08 -3.14007e-08)
(0 4.05424e-08 -6.22764e-08)
(-3.4945e-08 3.97951e-08 -6.19159e-08)
(-7.15626e-08 3.74792e-08 -6.0878e-08)
(-1.1097e-07 3.34565e-08 -5.91987e-08)
(-1.5418e-07 2.75417e-08 -5.69058e-08)
(-2.02118e-07 1.95584e-08 -5.39762e-08)
(-2.55865e-07 9.36265e-09 -5.03084e-08)
(-3.16516e-07 -3.05664e-09 -4.57108e-08)
(-3.84794e-07 -1.75061e-08 -3.98982e-08)
(-4.61165e-07 -3.36936e-08 -3.24425e-08)
(-5.49568e-07 -5.03053e-08 -2.33469e-08)
(0 5.08e-08 -5.9784e-08)
(-2.94682e-08 5.01366e-08 -5.93428e-08)
(-6.07705e-08 4.80095e-08 -5.80729e-08)
(-9.51175e-08 4.3995e-08 -5.60299e-08)
(-1.33659e-07 3.74953e-08 -5.32729e-08)
(-1.77252e-07 2.80074e-08 -4.98066e-08)
(-2.2641e-07 1.52958e-08 -4.55268e-08)
(-2.81583e-07 -6.00092e-10 -4.02132e-08)
(-3.43055e-07 -1.93712e-08 -3.35565e-08)
(-4.10709e-07 -4.05124e-08 -2.51203e-08)
(-4.89943e-07 -6.23698e-08 -1.51682e-08)
(0 5.81815e-08 -5.66443e-08)
(-2.34605e-08 5.78442e-08 -5.6099e-08)
(-4.88748e-08 5.65692e-08 -5.45363e-08)
(-7.75193e-08 5.35278e-08 -5.20519e-08)
(-1.10472e-07 4.75992e-08 -4.87571e-08)
(-1.48679e-07 3.77349e-08 -4.46984e-08)
(-1.9261e-07 2.33463e-08 -3.97932e-08)
(-2.41979e-07 4.52182e-09 -3.3827e-08)
(-2.96158e-07 -1.8147e-08 -2.64803e-08)
(-3.54528e-07 -4.38927e-08 -1.73757e-08)
(-4.23643e-07 -7.09743e-08 -7.11509e-09)
(0 6.12467e-08 -5.28272e-08)
(-1.71948e-08 6.15864e-08 -5.21488e-08)
(-3.63997e-08 6.21435e-08 -5.0214e-08)
(-5.90589e-08 6.14205e-08 -4.71969e-08)
(-8.62144e-08 5.74916e-08 -4.32993e-08)
(-1.18637e-07 4.86288e-08 -3.86266e-08)
(-1.56855e-07 3.37386e-08 -3.31269e-08)
(-2.00577e-07 1.26946e-08 -2.66018e-08)
(-2.48167e-07 -1.34901e-08 -1.87385e-08)
(-2.98069e-07 -4.3461e-08 -9.22356e-09)
(-3.57373e-07 -7.56935e-08 1.0546e-09)
(0 5.77768e-08 -4.82751e-08)
(-1.08687e-08 5.93517e-08 -4.74093e-08)
(-2.38089e-08 6.32414e-08 -4.49768e-08)
(-4.04574e-08 6.68005e-08 -4.13015e-08)
(-6.20029e-08 6.67832e-08 -3.67298e-08)
(-8.90976e-08 6.04709e-08 -3.14479e-08)
(-1.21951e-07 4.63114e-08 -2.54275e-08)
(-1.60373e-07 2.39769e-08 -1.84553e-08)
(-2.02594e-07 -5.20579e-09 -1.02748e-08)
(-2.46023e-07 -3.89822e-08 -5.98567e-10)
(-2.96848e-07 -7.6014e-08 9.578e-09)
(0 4.44841e-08 -4.29379e-08)
(-4.59341e-09 4.82556e-08 -4.17801e-08)
(-1.13772e-08 5.79129e-08 -3.86264e-08)
(-2.22265e-08 6.86778e-08 -3.41009e-08)
(-3.85726e-08 7.5182e-08 -2.87747e-08)
(-6.11916e-08 7.32769e-08 -2.29127e-08)
(-9.00687e-08 6.08671e-08 -1.6479e-08)
(-1.24531e-07 3.78895e-08 -9.24552e-09)
(-1.62818e-07 6.28836e-09 -1.02386e-09)
(-2.01954e-07 -3.06802e-08 8.51578e-09)
(-2.46011e-07 -7.13894e-08 1.84164e-08)
(0 1.6535e-08 -3.68708e-08)
(1.62008e-09 2.43287e-08 -3.51966e-08)
(8.28215e-10 4.39569e-08 -3.087e-08)
(-4.56476e-09 6.63402e-08 -2.51679e-08)
(-1.63062e-08 8.28277e-08 -1.90109e-08)
(-3.54112e-08 8.75023e-08 -1.26741e-08)
(-6.19331e-08 7.77147e-08 -6.00207e-09)
(-9.47617e-08 5.39596e-08 1.27621e-09)
(-1.31553e-07 1.95215e-08 9.29174e-09)
(-1.68669e-07 -2.0309e-08 1.821e-08)
(-2.06774e-07 -6.16548e-08 2.70259e-08)
(0 -3.40977e-08 -3.03739e-08)
(7.72806e-09 -1.84149e-08 -2.78414e-08)
(1.27794e-08 1.7663e-08 -2.16102e-08)
(1.28644e-08 5.75089e-08 -1.4402e-08)
(5.93741e-09 8.86536e-08 -7.56456e-09)
(-9.39896e-09 1.03771e-07 -1.1671e-09)
(-3.35809e-08 9.97303e-08 5.27869e-09)
(-6.57596e-08 7.70296e-08 1.22348e-08)
(-1.03499e-07 3.96742e-08 1.98054e-08)
(-1.42514e-07 -4.72312e-09 2.75239e-08)
(-1.78621e-07 -4.76375e-08 3.47913e-08)
(0 0 -7.85871e-08)
(-3.90955e-08 -0 -7.81765e-08)
(-7.82037e-08 -0 -7.69725e-08)
(-1.17844e-07 -0 -7.49897e-08)
(-1.59317e-07 -0 -7.22082e-08)
(-2.03814e-07 -0 -6.85532e-08)
(-2.52248e-07 -0 -6.38996e-08)
(-3.05276e-07 -0 -5.80829e-08)
(-3.63203e-07 -0 -5.09435e-08)
(-4.2585e-07 -0 -4.24426e-08)
(-4.93179e-07 -0 -3.27835e-08)
(0 2.56189e-08 -7.80823e-08)
(-3.77828e-08 2.50499e-08 -7.7653e-08)
(-7.59627e-08 2.3474e-08 -7.64024e-08)
(-1.14934e-07 2.1287e-08 -7.43453e-08)
(-1.55763e-07 1.8572e-08 -7.14598e-08)
(-1.9962e-07 1.52974e-08 -6.767e-08)
(-2.47378e-07 1.1464e-08 -6.28449e-08)
(-2.99653e-07 7.12518e-09 -5.67918e-08)
(-3.56742e-07 2.37095e-09 -4.9299e-08)
(-4.18437e-07 -2.69893e-09 -4.02055e-08)
(-4.8439e-07 -7.86221e-09 -2.96629e-08)
(0 5.0528e-08 -7.6608e-08)
(-3.42342e-08 4.96763e-08 -7.61315e-08)
(-6.94902e-08 4.71202e-08 -7.47457e-08)
(-1.06217e-07 4.31722e-08 -7.24688e-08)
(-1.45071e-07 3.80414e-08 -6.92848e-08)
(-1.86935e-07 3.17463e-08 -6.51158e-08)
(-2.32612e-07 2.42652e-08 -5.98097e-08)
(-2.82608e-07 1.57083e-08 -5.31241e-08)
(-3.37051e-07 6.29257e-09 -4.47459e-08)
(-3.95689e-07 -3.72841e-09 -3.42787e-08)
(-4.59476e-07 -1.38872e-08 -2.16679e-08)
(0 7.45155e-08 -7.42128e-08)
(-2.93396e-08 7.35901e-08 -7.36606e-08)
(-5.99603e-08 7.06831e-08 -7.20538e-08)
(-9.26571e-08 6.57862e-08 -6.9418e-08)
(-1.2807e-07 5.89085e-08 -6.57589e-08)
(-1.66661e-07 5.00985e-08 -6.10113e-08)
(-2.08896e-07 3.9396e-08 -5.50044e-08)
(-2.55104e-07 2.69559e-08 -4.74551e-08)
(-3.05153e-07 1.31466e-08 -3.79817e-08)
(-3.58562e-07 -1.54786e-09 -2.6049e-08)
(-4.18105e-07 -1.65799e-08 -1.17215e-08)
(0 9.77022e-08 -7.09189e-08)
(-2.34644e-08 9.6854e-08 -7.02617e-08)
(-4.83692e-08 9.40968e-08 -6.83554e-08)
(-7.56373e-08 8.91305e-08 -6.52461e-08)
(-1.06082e-07 8.15188e-08 -6.09755e-08)
(-1.40158e-07 7.10009e-08 -5.5515e-08)
(-1.77878e-07 5.76587e-08 -4.87e-08)
(-2.19051e-07 4.18326e-08 -4.02262e-08)
(-2.63255e-07 2.4068e-08 -2.97007e-08)
(-3.09636e-07 5.10695e-09 -1.66041e-08)
(-3.62777e-07 -1.46599e-08 -1.38582e-09)
(0 1.19873e-07 -6.66918e-08)
(-1.68951e-08 1.19339e-07 -6.5901e-08)
(-3.53411e-08 1.17353e-07 -6.362e-08)
(-5.63644e-08 1.13225e-07 -5.99399e-08)
(-8.07725e-08 1.06031e-07 -5.49647e-08)
(-1.09152e-07 9.49732e-08 -4.87154e-08)
(-1.41526e-07 7.98177e-08 -4.10586e-08)
(-1.77107e-07 6.11078e-08 -3.17155e-08)
(-2.14693e-07 3.9861e-08 -2.03e-08)
(-2.53057e-07 1.71263e-08 -6.38725e-09)
(-2.98381e-07 -7.22748e-09 9.08776e-09)
(0 1.40352e-07 -6.14425e-08)
(-9.88731e-09 1.40452e-07 -6.04851e-08)
(-2.13642e-08 1.40154e-07 -5.77383e-08)
(-3.56492e-08 1.38095e-07 -5.33796e-08)
(-5.35824e-08 1.32602e-07 -4.76192e-08)
(-7.56489e-08 1.22304e-07 -4.05509e-08)
(-1.01965e-07 1.06501e-07 -3.20823e-08)
(-1.31779e-07 8.55534e-08 -2.19638e-08)
(-1.63009e-07 6.11298e-08 -9.84228e-09)
(-1.93616e-07 3.50356e-08 4.5996e-09)
(-2.30764e-07 6.3278e-09 2.00158e-08)
(0 1.57824e-07 -5.50361e-08)
(-2.61075e-09 1.59074e-07 -5.38526e-08)
(-6.84038e-09 1.61836e-07 -5.05042e-08)
(-1.41285e-08 1.6362e-07 -4.5332e-08)
(-2.55053e-08 1.61484e-07 -3.87084e-08)
(-4.14077e-08 1.5321e-07 -3.08246e-08)
(-6.17202e-08 1.37805e-07 -2.16295e-08)
(-8.57914e-08 1.15483e-07 -1.08638e-08)
(-1.11505e-07 8.82173e-08 1.72658e-09)
(-1.35881e-07 5.89651e-08 1.63966e-08)
(-1.65513e-07 2.63689e-08 3.1638e-08)
(0 1.70092e-07 -4.73319e-08)
(4.8647e-09 1.73381e-07 -4.5812e-08)
(8.02304e-09 1.81401e-07 -4.16322e-08)
(7.77432e-09 1.89609e-07 -3.54555e-08)
(2.8208e-09 1.93064e-07 -2.78975e-08)
(-7.42888e-09 1.88259e-07 -1.92386e-08)
(-2.27271e-08 1.73841e-07 -9.43744e-09)
(-4.20777e-08 1.50443e-07 1.74688e-09)
(-6.35245e-08 1.20558e-07 1.44418e-08)
(-8.36824e-08 8.83112e-08 2.89385e-08)
(-1.07224e-07 5.2796e-08 4.37711e-08)
(0 1.73615e-07 -3.82927e-08)
(1.25994e-08 1.80622e-07 -3.6206e-08)
(2.3261e-08 1.97726e-07 -3.07366e-08)
(2.99846e-08 2.16262e-07 -2.32395e-08)
(3.11533e-08 2.28194e-07 -1.47024e-08)
(2.59264e-08 2.28474e-07 -5.41289e-09)
(1.44289e-08 2.15383e-07 4.78969e-09)
(-2.12219e-09 1.90199e-07 1.61387e-08)
(-2.14753e-08 1.56689e-07 2.86251e-08)
(-3.99635e-08 1.20809e-07 4.22725e-08)
(-5.93233e-08 8.42595e-08 5.55265e-08)
(0 1.62408e-07 -2.80927e-08)
(2.03741e-08 1.76261e-07 -2.51566e-08)
(3.8372e-08 2.08424e-07 -1.77176e-08)
(5.19773e-08 2.42586e-07 -8.68562e-09)
(5.93217e-08 2.67004e-07 5.00305e-10)
(5.92276e-08 2.75494e-07 9.79738e-09)
(5.14489e-08 2.66113e-07 1.97428e-08)
(3.6853e-08 2.40208e-07 3.0762e-08)
(1.75087e-08 2.02064e-07 4.2757e-08)
(-3.40804e-09 1.58853e-07 5.48289e-08)
(-2.28294e-08 1.18378e-07 6.59639e-08)
(0 0 -9.74797e-08)
(-3.21461e-08 -0 -9.71443e-08)
(-6.39592e-08 -0 -9.61642e-08)
(-9.55167e-08 -0 -9.45702e-08)
(-1.27492e-07 -0 -9.23759e-08)
(-1.60362e-07 -0 -8.95664e-08)
(-1.94203e-07 -0 -8.611e-08)
(-2.28643e-07 -0 -8.19829e-08)
(-2.62716e-07 -0 -7.72349e-08)
(-2.94664e-07 -0 -7.21392e-08)