/*--------------------------------*- C++ -*----------------------------------*\
| =========                 |                                                 |
| \\      /  F ield         | foam-extend: Open Source CFD                    |
|  \\    /   O peration     | Version:     3.1                                |
|   \\  /    A nd           | Web:         http://www.extend-project.de       |
|    \\/     M anipulation  |                                                 |
\*---------------------------------------------------------------------------*/
FoamFile
{
    version     2.0;
    format      ascii;
    class       volVectorField;
    location    "0.0018";
    object      U_0;
}
// * * * * * * * * * * * * * * * * * * * * * * * * * * * * * * * * * * * * * //

dimensions      [0 1 -1 0 0 0 0];

internalField   nonuniform List<vector> 
16000
(
(0.000177191 0.000177436 0.26767)
(0.000527526 0.000177244 0.267955)
(0.000866803 0.000177868 0.268529)
(0.00119423 0.000180628 0.269394)
(0.00151172 0.000185727 0.270556)
(0.00182161 0.000193097 0.272024)
(0.00212703 0.000202665 0.273811)
(0.00243319 0.000214181 0.275938)
(0.00275112 0.000226362 0.278439)
(0.00309675 0.00021632 0.281365)
(0.000177007 0.000527897 0.267955)
(0.000527312 0.000527763 0.26822)
(0.000867084 0.000529447 0.268764)
(0.00119597 0.000536333 0.26959)
(0.00151523 0.000549327 0.270703)
(0.00182685 0.000568719 0.272111)
(0.00213356 0.000594516 0.273826)
(0.00243942 0.00062614 0.275869)
(0.00275625 0.000660398 0.27827)
(0.00308602 0.000631493 0.281076)
(0.00017776 0.000866768 0.268529)
(0.000529121 0.000867294 0.268764)
(0.000869389 0.000869768 0.269269)
(0.00119967 0.000878529 0.270047)
(0.0015207 0.000895094 0.271103)
(0.00183366 0.000920649 0.272443)
(0.00214044 0.000955718 0.274081)
(0.00244355 0.000999657 0.276032)
(0.00275613 0.00104778 0.278325)
(0.0030634 0.000989241 0.281007)
(0.000180656 0.0011938 0.269394)
(0.000536291 0.00119577 0.26959)
(0.000878278 0.00119981 0.270047)
(0.00121061 0.00121094 0.27077)
(0.00153436 0.00123069 0.271763)
(0.00185006 0.00126108 0.273033)
(0.00215832 0.00130366 0.274589)
(0.00245977 0.00135814 0.276448)
(0.00276919 0.00141842 0.278635)
(0.00305168 0.001327 0.2812)
(0.000185789 0.00151117 0.270556)
(0.00054946 0.00151478 0.270703)
(0.000895127 0.0015205 0.271103)
(0.00123049 0.00153451 0.271763)
(0.0015578 0.00155814 0.272687)
(0.00187761 0.00159383 0.27388)
(0.00218934 0.00164427 0.275353)
(0.00249131 0.00171028 0.277119)
(0.00279972 0.00178471 0.279202)
(0.00305633 0.00166238 0.281654)
(0.000193148 0.00182106 0.272024)
(0.000568879 0.00182635 0.272111)
(0.000920857 0.00183328 0.272443)
(0.00126117 0.00184995 0.273032)
(0.00159362 0.00187786 0.27388)
(0.00191947 0.00191995 0.274992)
(0.00223762 0.00198007 0.276377)
(0.00254392 0.00206087 0.27805)
(0.00285508 0.00215518 0.280029)
(0.00308511 0.00200959 0.282377)
(0.000202709 0.00212652 0.273811)
(0.000594658 0.00213309 0.273826)
(0.000955959 0.00214003 0.274081)
(0.00130396 0.00215803 0.274589)
(0.00164443 0.00218931 0.275353)
(0.00197975 0.00223798 0.276377)
(0.00230924 0.00230983 0.277672)
(0.00262674 0.00241052 0.279249)
(0.00294794 0.0025349 0.281128)
(0.00315215 0.00238265 0.283379)
(0.000214218 0.00243277 0.275938)
(0.00062626 0.00243902 0.275869)
(0.000999866 0.00244318 0.276032)
(0.00135845 0.00245942 0.276448)
(0.00171065 0.00249099 0.277119)
(0.00206089 0.00254377 0.27805)
(0.00241003 0.0026269 0.279249)
(0.00275132 0.00275174 0.280731)
(0.00309863 0.00292085 0.282512)
(0.00328511 0.0027941 0.28468)
(0.000226392 0.00275082 0.278439)
(0.000660494 0.00275596 0.27827)
(0.00104794 0.00275586 0.278325)
(0.00141863 0.00276889 0.278635)
(0.00178498 0.00279934 0.279202)
(0.00215531 0.00285462 0.280029)
(0.00253468 0.00294761 0.281128)
(0.00292048 0.00309863 0.282512)
(0.0033279 0.00332812 0.284203)
(0.00353349 0.00327011 0.286304)
(0.000216346 0.00309658 0.281365)
(0.000631572 0.00308585 0.281076)
(0.000989367 0.00306323 0.281007)
(0.00132716 0.00305149 0.2812)
(0.00166255 0.00305609 0.281654)
(0.00200973 0.00308478 0.282377)
(0.00238268 0.0031518 0.283379)
(0.002794 0.00328491 0.28468)
(0.0032699 0.00353347 0.286304)
(0.00374012 0.00374024 0.288351)
(0.000230611 0.000230637 0.266767)
(0.000693992 0.000227526 0.267057)
(0.00115432 0.000223205 0.267639)
(0.00160906 0.000218919 0.268515)
(0.00206065 0.000214951 0.269686)
(0.00251245 0.000211565 0.271156)
(0.00297196 0.000209175 0.272931)
(0.00345343 0.000208413 0.27502)
(0.00398158 0.000210393 0.277432)
(0.00459521 0.000215555 0.280182)
(0.000227502 0.000694025 0.267057)
(0.000685114 0.00068516 0.267329)
(0.00114022 0.000672753 0.267885)
(0.00159027 0.000660471 0.268725)
(0.00203758 0.000649173 0.269854)
(0.00248532 0.000639624 0.271273)
(0.00294042 0.000632931 0.272988)
(0.00341582 0.0006307 0.275009)
(0.00393467 0.000635859 0.277344)
(0.00453144 0.000649322 0.280006)
(0.000223201 0.0011543 0.267639)
(0.000672728 0.00114023 0.267885)
(0.00112037 0.00112041 0.268403)
(0.00156373 0.00110075 0.269197)
(0.00200502 0.00108267 0.270269)
(0.00244723 0.00106743 0.271623)
(0.00289689 0.00105676 0.273264)
(0.00336576 0.0010531 0.275201)
(0.00387581 0.00106115 0.277444)
(0.00445763 0.00108164 0.280002)
(0.00021893 0.00160901 0.268515)
(0.000660481 0.00159024 0.268725)
(0.00110073 0.00156374 0.269197)
(0.00153764 0.00153767 0.269934)
(0.00197344 0.00151389 0.270941)
(0.00241106 0.00149413 0.272222)
(0.00285673 0.00148075 0.27378)
(0.00332127 0.00147696 0.275625)
(0.00382582 0.00148898 0.277768)
(0.00439723 0.00151646 0.280218)
(0.000214959 0.00206059 0.269686)
(0.000649193 0.00203753 0.269854)
(0.00108268 0.002005 0.270269)
(0.00151387 0.00197345 0.270941)
(0.00194515 0.00194519 0.271875)
(0.00237956 0.00192233 0.273072)
(0.00282321 0.00190783 0.27454)
(0.0032861 0.00190569 0.276286)
(0.00378875 0.00192361 0.278321)
(0.0043547 0.00195989 0.280659)
(0.000211569 0.00251239 0.271156)
(0.000639639 0.00248527 0.271273)
(0.00106745 0.00244719 0.271623)
(0.00149414 0.00241104 0.272222)
(0.00192231 0.00237959 0.273072)
(0.00235524 0.0023553 0.274179)
(0.00279915 0.00234162 0.275548)
(0.00326341 0.00234331 0.277186)
(0.00376799 0.00236962 0.279107)
(0.00433363 0.00241796 0.281326)
(0.000209179 0.00297191 0.272931)
(0.000632943 0.00294038 0.272988)
(0.00105678 0.00289685 0.273264)
(0.00148078 0.0028567 0.27378)
(0.00190786 0.0028232 0.27454)
(0.00234159 0.0027992 0.275548)
(0.00278843 0.00278851 0.276809)
(0.0032574 0.00279643 0.278331)
(0.00376822 0.00283371 0.280126)
(0.00433923 0.00289808 0.282221)
(0.000208417 0.00345338 0.27502)
(0.000630711 0.00341578 0.275009)
(0.00105311 0.00336572 0.275201)
(0.00147698 0.00332123 0.275625)
(0.00190574 0.00328606 0.276286)
(0.00234332 0.00326338 0.277186)
(0.00279636 0.00325741 0.278331)
(0.00327357 0.00327362 0.279726)
(0.00379518 0.00332355 0.281384)
(0.00437891 0.00340715 0.283341)
(0.000210396 0.00398155 0.277432)
(0.000635868 0.00393464 0.277344)
(0.00106116 0.00387579 0.277443)
(0.00148899 0.00382579 0.277768)
(0.00192363 0.00378871 0.278321)
(0.00236963 0.00376793 0.279107)
(0.00283367 0.00376815 0.280126)
(0.0033235 0.00379517 0.281384)
(0.00386075 0.00386079 0.282888)
(0.00446797 0.00396017 0.284687)
(0.000215558 0.0045952 0.280182)
(0.000649331 0.00453143 0.280006)
(0.00108165 0.00445763 0.280002)
(0.00151647 0.00439722 0.280218)
(0.00195991 0.00435469 0.280659)
(0.00241797 0.0043336 0.281326)
(0.00289807 0.00433919 0.282221)
(0.00340713 0.00437888 0.283341)
(0.00396013 0.00446797 0.284687)
(0.0046093 0.00460932 0.286295)
(0.000471815 0.000471851 0.264155)
(0.0014203 0.000465355 0.264454)
(0.00236531 0.000456105 0.265055)
(0.00330218 0.000446447 0.265955)
(0.00423342 0.000436674 0.267152)
(0.00516027 0.000426958 0.268644)
(0.00608671 0.000417594 0.270425)
(0.00702085 0.000409072 0.272487)
(0.00797487 0.000402864 0.274817)
(0.0089629 0.000401938 0.277389)
(0.000465318 0.00142034 0.264454)
(0.00140146 0.00140153 0.264735)
(0.00233481 0.00137458 0.265306)
(0.00326069 0.00134646 0.266168)
(0.00418152 0.00131814 0.267318)
(0.0050985 0.00129015 0.268754)
(0.00601544 0.00126333 0.270472)
(0.00693978 0.00123902 0.272463)
(0.00788252 0.00122134 0.274716)
(0.00885629 0.0012204 0.277208)
(0.000456099 0.00236529 0.265055)
(0.00137454 0.00233484 0.265306)
(0.00229086 0.00229093 0.265838)
(0.00320068 0.00224498 0.266649)
(0.00410625 0.00219862 0.267738)
(0.00500873 0.00215284 0.269104)
(0.00591181 0.00210894 0.270743)
(0.00682246 0.00206905 0.272646)
(0.00775047 0.00204016 0.274804)
(0.0087074 0.00204075 0.277194)
(0.000446461 0.00330213 0.265955)
(0.00134647 0.00326066 0.266168)
(0.00224494 0.0032007 0.266649)
(0.00313797 0.00313803 0.267399)
(0.00402785 0.00307478 0.268419)
(0.00491569 0.00301231 0.269704)
(0.00580513 0.0029524 0.271253)
(0.00670286 0.00289784 0.273058)
(0.00761742 0.00285822 0.275109)
(0.00855837 0.00285959 0.277388)
(0.000436683 0.00423337 0.267152)
(0.00131816 0.00418147 0.267318)
(0.00219864 0.00410622 0.267738)
(0.00307475 0.00402787 0.268419)
(0.00394891 0.00394896 0.269358)
(0.00482237 0.00387099 0.270553)
(0.00569885 0.0037961 0.272002)
(0.00658493 0.00372775 0.273698)
(0.00748778 0.00367808 0.275632)
(0.00841464 0.00368058 0.27779)
(0.000426963 0.00516023 0.268644)
(0.00129017 0.00509846 0.268754)
(0.00215287 0.00500869 0.269104)
(0.00301233 0.00491567 0.269704)
(0.00387096 0.0048224 0.270553)
(0.00473027 0.00473035 0.271649)
(0.0055943 0.00464166 0.272988)
(0.00646979 0.00456024 0.274564)
(0.00736264 0.00450079 0.276369)
(0.00827787 0.00450514 0.278397)
(0.000417598 0.00608668 0.270425)
(0.00126335 0.00601541 0.270471)
(0.00210896 0.00591178 0.270743)
(0.00295244 0.00580509 0.271253)
(0.00379614 0.00569884 0.272002)
(0.00464161 0.00559436 0.272988)
(0.00549329 0.00549341 0.274206)
(0.00635854 0.00539957 0.275652)
(0.00724273 0.00532941 0.277316)
(0.0081498 0.00533486 0.279203)
(0.000409076 0.00702082 0.272487)
(0.00123903 0.00693976 0.272463)
(0.00206907 0.00682243 0.272646)
(0.00289787 0.00670283 0.273058)
(0.00372782 0.00658489 0.273698)
(0.00456027 0.00646975 0.274564)
(0.00539948 0.00635857 0.275651)
(0.00625322 0.00625331 0.276954)
(0.00712785 0.00616927 0.278466)
(0.00803164 0.00616873 0.280201)
(0.000402867 0.00797486 0.274817)
(0.00122135 0.00788251 0.274716)
(0.00204017 0.00775046 0.274804)
(0.00285824 0.0076174 0.275109)
(0.00367811 0.00748774 0.275632)
(0.00450082 0.00736256 0.276369)
(0.00532938 0.00724266 0.277316)
(0.00616921 0.00712785 0.278466)
(0.00702704 0.00702709 0.279812)
(0.0079322 0.00700163 0.281378)
(0.000401941 0.00896291 0.277389)
(0.00122041 0.0088563 0.277208)
(0.00204076 0.00870741 0.277194)
(0.0028596 0.00855837 0.277388)
(0.0036806 0.00841463 0.27779)
(0.00450515 0.00827783 0.278397)
(0.00533486 0.00814976 0.279203)
(0.00616874 0.00803162 0.280201)
(0.00700159 0.00793221 0.281378)
(0.00789402 0.00789405 0.282754)
(0.000749006 0.000749082 0.259669)
(0.00225306 0.000738837 0.259979)
(0.00375041 0.000724205 0.260602)
(0.00523352 0.000708863 0.261533)
(0.00670316 0.000693055 0.262769)
(0.00815562 0.000676768 0.264306)
(0.00958712 0.00066005 0.266134)
(0.0109938 0.000643052 0.268242)
(0.012369 0.000627148 0.270608)
(0.013696 0.000613996 0.2732)
(0.000738761 0.00225316 0.259979)
(0.00222331 0.00222345 0.26027)
(0.0037021 0.00218067 0.260861)
(0.00516762 0.00213572 0.261752)
(0.00662054 0.00208954 0.262938)
(0.00805744 0.00204223 0.264416)
(0.00947495 0.001994 0.266178)
(0.0108693 0.00194544 0.268211)
(0.0122338 0.00190077 0.270497)
(0.0135513 0.00186859 0.273007)
(0.000724188 0.00375037 0.260602)
(0.00218058 0.00370216 0.260861)
(0.003632 0.00363213 0.26141)
(0.00507138 0.00355804 0.262248)
(0.00649912 0.00348157 0.263371)
(0.00791191 0.00340315 0.264776)
(0.0093067 0.00332319 0.266455)
(0.0106801 0.00324275 0.268396)
(0.0120249 0.0031696 0.270584)
(0.013324 0.00312235 0.27299)
(0.000708888 0.00523341 0.261532)
(0.00213574 0.00516755 0.261752)
(0.00355797 0.00507142 0.262248)
(0.00496935 0.00496946 0.263022)
(0.00637024 0.00486382 0.264071)
(0.00775734 0.00475518 0.265392)
(0.00912786 0.0046443 0.266978)
(0.0104788 0.00453268 0.268816)
(0.0118024 0.00443145 0.270893)
(0.0130784 0.00436833 0.273184)
(0.000693074 0.00670305 0.262769)
(0.00208959 0.00662042 0.262938)
(0.00348161 0.00649906 0.263371)
(0.00486377 0.00637028 0.264071)
(0.00623646 0.00623657 0.265037)
(0.00759669 0.00609854 0.266263)
(0.00894197 0.00595713 0.267744)
(0.0102697 0.00581449 0.269469)
(0.0115715 0.00568518 0.271423)
(0.0128221 0.00560591 0.273589)
(0.000676779 0.00815552 0.264306)
(0.00204227 0.00805734 0.264416)
(0.00340322 0.0079118 0.264776)
(0.00475523 0.00775728 0.265392)
(0.0060985 0.00759675 0.266263)
(0.00743032 0.00743048 0.267385)
(0.00874891 0.00725905 0.268751)
(0.0100525 0.00708495 0.27035)
(0.0113319 0.00692643 0.27217)
(0.0125557 0.0068303 0.2742)
(0.000660061 0.00958703 0.266134)
(0.00199404 0.00947486 0.266178)
(0.00332325 0.00930661 0.266455)
(0.0046444 0.00912776 0.266977)
(0.00595723 0.00894193 0.267744)
(0.00725898 0.00874903 0.26875)
(0.00854851 0.00854873 0.26999)
(0.00982561 0.00834262 0.271453)
(0.0110815 0.0081516 0.273128)
(0.0122791 0.008035 0.275011)
(0.000643062 0.0109937 0.268242)
(0.00194547 0.0108693 0.268211)
(0.0032428 0.01068 0.268396)
(0.00453276 0.0104787 0.268816)
(0.00581464 0.0102696 0.269469)
(0.00708504 0.0100525 0.27035)
(0.0083425 0.00982568 0.271453)
(0.00958789 0.00958804 0.272769)
(0.0108155 0.00935817 0.274285)
(0.0119891 0.00920742 0.276012)
(0.000627157 0.012369 0.270608)
(0.0019008 0.0122338 0.270497)
(0.00316964 0.0120249 0.270584)
(0.00443151 0.0118023 0.270893)
(0.00568527 0.0115714 0.271423)
(0.00692651 0.0113317 0.27217)
(0.00815158 0.0110814 0.273127)
(0.00935809 0.0108155 0.274285)
(0.0105421 0.0105422 0.275631)
(0.0116923 0.0103258 0.277187)
(0.000614005 0.013696 0.273199)
(0.00186861 0.0135513 0.273007)
(0.00312238 0.0133239 0.27299)
(0.00436837 0.0130784 0.273184)
(0.00560595 0.012822 0.273589)
(0.00683034 0.0125557 0.2742)
(0.00803504 0.012279 0.275011)
(0.00920746 0.0119891 0.276012)
(0.0103258 0.0116923 0.277187)
(0.0114255 0.0114255 0.278554)
(0.00103835 0.00103847 0.253133)
(0.00312201 0.00102435 0.253456)
(0.00519603 0.00100422 0.254103)
(0.00725041 0.000983177 0.255072)
(0.00928419 0.000961386 0.256364)
(0.011289 0.000938644 0.257974)
(0.0132537 0.000914762 0.2599)
(0.0151636 0.000889591 0.262133)
(0.0169957 0.000864467 0.264661)
(0.0187085 0.000840373 0.267463)
(0.00102423 0.00312215 0.253456)
(0.00308098 0.00308121 0.253757)
(0.00512935 0.00302232 0.254373)
(0.00715929 0.00296053 0.2553)
(0.00916969 0.00289669 0.256539)
(0.0111528 0.00283047 0.258088)
(0.0130984 0.00276146 0.259942)
(0.0149926 0.00268956 0.262095)
(0.0168133 0.00261921 0.264535)
(0.0185193 0.00255864 0.267243)
(0.0010042 0.00519596 0.254103)
(0.00302218 0.00512943 0.254372)
(0.00503267 0.00503286 0.254944)
(0.00702621 0.00493064 0.255818)
(0.00900125 0.00482441 0.256992)
(0.0109502 0.00471406 0.258466)
(0.0128637 0.00459912 0.260235)
(0.0147289 0.00447966 0.262293)
(0.0165242 0.00436431 0.264628)
(0.0182089 0.00427304 0.267224)
(0.000983218 0.00725021 0.255072)
(0.00296056 0.00715916 0.2553)
(0.00493054 0.00702626 0.255818)
(0.00688485 0.00688501 0.256627)
(0.00882178 0.00673745 0.257727)
(0.0107338 0.00658365 0.259115)
(0.0126121 0.00642336 0.260789)
(0.0144448 0.00625694 0.262741)
(0.0162105 0.00609707 0.264962)
(0.0178648 0.00597434 0.267436)
(0.00096142 0.00928399 0.256363)
(0.00289679 0.00916948 0.256539)
(0.00482449 0.00900112 0.256992)
(0.00673739 0.00882182 0.257727)
(0.00863372 0.00863387 0.258742)
(0.0105064 0.00843704 0.260035)
(0.0123471 0.00823119 0.261603)
(0.0141449 0.00801733 0.26344)
(0.0158784 0.00781243 0.265535)
(0.0174962 0.00765763 0.267878)
(0.000938666 0.0112888 0.257974)
(0.00283054 0.0111526 0.258088)
(0.00471419 0.01095 0.258466)
(0.00658376 0.0107337 0.259115)
(0.008437 0.0105064 0.260035)
(0.0102672 0.0102674 0.261223)
(0.0120673 0.0100159 0.262675)
(0.0138275 0.00975326 0.264386)
(0.0155265 0.00950111 0.266345)
(0.0171036 0.00931258 0.268549)
(0.000914784 0.0132536 0.2599)
(0.00276153 0.0130982 0.259942)
(0.00459924 0.0128635 0.260235)
(0.00642355 0.0126119 0.260789)
(0.00823138 0.012347 0.261603)
(0.0100159 0.0120674 0.262675)
(0.0117708 0.0117711 0.264001)
(0.013489 0.0114581 0.265575)
(0.0151504 0.0111537 0.267388)
(0.0166851 0.0109258 0.269442)
(0.000889612 0.0151635 0.262133)
(0.00268963 0.0149924 0.262095)
(0.00447976 0.0147287 0.262292)
(0.0062571 0.0144446 0.262741)
(0.0080176 0.0141447 0.26344)
(0.00975343 0.0138274 0.264386)
(0.011458 0.0134891 0.265575)
(0.0131259 0.0131261 0.267001)
(0.014742 0.0127607 0.268656)
(0.0162349 0.0124749 0.27055)
(0.000864485 0.0169956 0.264661)
(0.00261927 0.0168132 0.264535)
(0.00436439 0.016524 0.264628)
(0.00609717 0.0162103 0.264962)
(0.0078126 0.0158782 0.265535)
(0.00950129 0.0155262 0.266345)
(0.0111537 0.0151502 0.267388)
(0.0127606 0.014742 0.268656)
(0.0143104 0.0143105 0.270142)
(0.0157593 0.0139259 0.271864)
(0.00084039 0.0187085 0.267463)
(0.00255868 0.0185193 0.267242)
(0.00427311 0.0182088 0.267224)
(0.00597443 0.0178647 0.267436)
(0.00765773 0.0174961 0.267878)
(0.00931268 0.0171034 0.268548)
(0.0109259 0.0166849 0.269442)
(0.012475 0.0162348 0.27055)
(0.0139259 0.0157593 0.271864)
(0.0152939 0.015294 0.273402)
(0.0013377 0.00133786 0.244502)
(0.0040215 0.00132005 0.244835)
(0.00669591 0.00129494 0.245504)
(0.00935099 0.00126908 0.24651)
(0.0119866 0.00124258 0.247857)
(0.0145929 0.0012151 0.249551)
(0.0171556 0.00118627 0.251596)
(0.0196546 0.00115575 0.253998)
(0.0220575 0.00112491 0.256762)
(0.0243086 0.00109591 0.259887)
(0.00131989 0.00402168 0.244835)
(0.00396972 0.00397001 0.245147)
(0.00661152 0.00389652 0.245783)
(0.00923519 0.00382053 0.246746)
(0.0118402 0.00374284 0.24804)
(0.0144175 0.00366275 0.249668)
(0.016954 0.00357942 0.251637)
(0.0194306 0.00349226 0.253951)
(0.0218167 0.00340597 0.256614)
(0.024057 0.00333246 0.259627)
(0.0012949 0.00669579 0.245504)
(0.00389635 0.00661162 0.245783)
(0.00649059 0.00649083 0.246376)
(0.00906816 0.00636467 0.247286)
(0.0116278 0.00623482 0.248515)
(0.0141605 0.0061007 0.250069)
(0.0166543 0.00596122 0.251951)
(0.0190916 0.00581573 0.254166)
(0.0214424 0.00567361 0.256718)
(0.0236526 0.00556191 0.259606)
(0.00126914 0.00935069 0.24651)
(0.00382059 0.00923499 0.246746)
(0.00636457 0.00906821 0.247286)
(0.008893 0.00889318 0.248132)
(0.0114042 0.00871192 0.249289)
(0.0138892 0.00852401 0.250759)
(0.0163367 0.00832852 0.252546)
(0.0187301 0.00812495 0.254655)
(0.0210402 0.00792724 0.257088)
(0.0232087 0.00777628 0.259846)
(0.00124263 0.0119862 0.247857)
(0.00374299 0.0118399 0.248039)
(0.00623495 0.0116275 0.248515)
(0.00871187 0.0114042 0.249289)
(0.0111718 0.011172 0.250363)
(0.0136063 0.01093 0.25174)
(0.0160044 0.0106774 0.253424)
(0.0183511 0.0104144 0.255419)
(0.0206168 0.0101599 0.257726)
(0.0227361 0.0099685 0.260347)
(0.00121514 0.0145926 0.24955)
(0.00366287 0.0144171 0.249668)
(0.0061009 0.0141602 0.250069)
(0.0085242 0.013889 0.250759)
(0.01093 0.0136063 0.25174)
(0.0133102 0.0133105 0.253015)
(0.0156554 0.0129998 0.254587)
(0.0179519 0.0126749 0.256459)
(0.0201703 0.0123602 0.258632)
(0.022235 0.0121256 0.26111)
(0.00118631 0.0171553 0.251595)
(0.00357953 0.0169537 0.251637)
(0.00596141 0.016654 0.251951)
(0.00832881 0.0163364 0.252546)
(0.0106777 0.0160043 0.253424)
(0.0129997 0.0156555 0.254587)
(0.0152865 0.0152869 0.256038)
(0.0175274 0.0148974 0.257777)
(0.0196948 0.0145157 0.259806)
(0.0217027 0.0142305 0.262133)
(0.00115578 0.0196543 0.253998)
(0.00349236 0.0194304 0.253951)
(0.0058159 0.0190913 0.254166)
(0.00812521 0.0187298 0.254655)
(0.0104148 0.0183507 0.255419)
(0.0126752 0.0179516 0.256459)
(0.0148972 0.0175275 0.257777)
(0.0170727 0.0170729 0.259373)
(0.0191798 0.0166133 0.261249)
(0.0211316 0.0162551 0.263416)
(0.00112494 0.0220573 0.256761)
(0.00340606 0.0218165 0.256614)
(0.00567375 0.0214422 0.256718)
(0.00792743 0.0210399 0.257088)
(0.0101602 0.0206165 0.257726)
(0.0123605 0.0201699 0.258632)
(0.0145158 0.0196945 0.259806)
(0.0166132 0.0191798 0.261249)
(0.0186354 0.0186355 0.26296)
(0.0205284 0.0181561 0.264956)
(0.00109594 0.0243085 0.259887)
(0.00333253 0.0240568 0.259626)
(0.00556203 0.0236524 0.259606)
(0.00777644 0.0232085 0.259846)
(0.00996868 0.0227359 0.260347)
(0.0121258 0.0222347 0.26111)
(0.0142307 0.0217024 0.262133)
(0.0162552 0.0211315 0.263416)
(0.0181561 0.0205284 0.264956)
(0.0199433 0.0199433 0.266773)
(0.00164171 0.00164191 0.233739)
(0.00493621 0.00162087 0.234073)
(0.00822684 0.00159183 0.234745)
(0.0115078 0.00156278 0.235762)
(0.0147837 0.00153382 0.237134)
(0.0180488 0.00150453 0.238874)
(0.0212919 0.00147446 0.241002)
(0.0244951 0.00144321 0.243538)
(0.0276266 0.00141225 0.24651)
(0.0306282 0.00138734 0.249944)
(0.00162068 0.00493643 0.234073)
(0.00487498 0.00487533 0.234386)
(0.00812657 0.00479027 0.235026)
(0.0113692 0.00470485 0.236001)
(0.0146068 0.00461988 0.237319)
(0.017834 0.00453446 0.238994)
(0.0210409 0.00444752 0.241042)
(0.0242107 0.00435823 0.243483)
(0.0273129 0.00427155 0.246342)
(0.0302902 0.00420844 0.249644)
(0.00159179 0.00822667 0.234745)
(0.00479007 0.00812667 0.235026)
(0.00798605 0.00798632 0.235626)
(0.011174 0.00784379 0.23655)
(0.0143567 0.00770083 0.237807)
(0.0175287 0.00755666 0.239409)
(0.0206807 0.00740983 0.241371)
(0.0237973 0.0072593 0.243713)
(0.0268486 0.00711489 0.246456)
(0.0297788 0.00701853 0.249622)
(0.00156286 0.0115074 0.235762)
(0.00470494 0.0113689 0.236001)
(0.0078437 0.0111741 0.23655)
(0.010975 0.0109752 0.237415)
(0.0141008 0.0107743 0.238603)
(0.0172152 0.0105707 0.240126)
(0.0203094 0.0103631 0.241998)
(0.0233691 0.0101507 0.244236)
(0.0263642 0.00994783 0.246859)
(0.0292357 0.00981596 0.249888)
(0.00153389 0.0147832 0.237133)
(0.00462008 0.0146063 0.237319)
(0.00770102 0.0143564 0.237807)
(0.0107742 0.0141007 0.238603)
(0.0138411 0.0138412 0.239714)
(0.0168959 0.0135767 0.241151)
(0.0199303 0.013306 0.242927)
(0.0229307 0.0130288 0.245056)
(0.0258666 0.0127649 0.247556)
(0.0286727 0.012595 0.250445)
(0.00150458 0.0180483 0.238874)
(0.00453464 0.0178335 0.238994)
(0.00755695 0.0175282 0.239409)
(0.0105709 0.0172148 0.240126)
(0.0135767 0.0168959 0.241151)
(0.016569 0.0165692 0.242494)
(0.0195404 0.0162327 0.244166)
(0.022479 0.0158865 0.246179)
(0.0253533 0.0155565 0.248551)
(0.02809 0.0153442 0.251298)
(0.00147452 0.0212915 0.241001)
(0.00444768 0.0210405 0.241041)
(0.0074101 0.0206802 0.241371)
(0.0103635 0.020309 0.241998)
(0.0133064 0.01993 0.242927)
(0.0162327 0.0195406 0.244166)
(0.0191363 0.0191367 0.245725)
(0.0220081 0.0187169 0.247615)
(0.0248177 0.0183116 0.249852)
(0.0274843 0.0180472 0.25245)
(0.00144325 0.0244946 0.243538)
(0.00435838 0.0242103 0.243483)
(0.00725954 0.0237969 0.243713)
(0.010151 0.0233686 0.244235)
(0.0130293 0.0229302 0.245055)
(0.0158869 0.0224787 0.246179)
(0.0187168 0.0220082 0.247615)
(0.0215121 0.0215124 0.249374)
(0.0242479 0.0210178 0.251466)
(0.0268468 0.0206748 0.253909)
(0.0014123 0.0276262 0.246509)
(0.00427168 0.0273125 0.246342)
(0.0071151 0.0268483 0.246455)
(0.0099481 0.0263638 0.246859)
(0.0127653 0.0258661 0.247555)
(0.0155569 0.0253527 0.248551)
(0.0183118 0.0248172 0.249852)
(0.0210178 0.0242478 0.251466)
(0.0236539 0.023654 0.253403)
(0.0261842 0.0231786 0.25568)
(0.00138738 0.030628 0.249943)
(0.00420855 0.03029 0.249643)
(0.0070187 0.0297785 0.249621)
(0.00981618 0.0292354 0.249888)
(0.0125953 0.0286724 0.250445)
(0.0153445 0.0280895 0.251297)
(0.0180474 0.0274838 0.25245)
(0.0206751 0.0268465 0.253909)
(0.0231787 0.0261841 0.25568)
(0.0255819 0.0255818 0.257786)
(0.00193765 0.00193787 0.220854)
(0.00582811 0.00191428 0.221171)
(0.00972613 0.00188266 0.221811)
(0.0136343 0.00185239 0.222785)
(0.0175669 0.00182359 0.224108)
(0.0215279 0.00179584 0.225804)
(0.0255165 0.00176877 0.227903)
(0.0295257 0.00174202 0.230442)
(0.0335353 0.0017173 0.233471)
(0.037498 0.00170649 0.237044)
(0.00191407 0.00582835 0.221171)
(0.00575932 0.00575971 0.221469)
(0.00961271 0.00566698 0.22208)
(0.013476 0.00557789 0.223014)
(0.0173622 0.00549332 0.224287)
(0.0212751 0.00541237 0.225919)
(0.0252147 0.00533402 0.227939)
(0.0291748 0.00525749 0.230382)
(0.0331353 0.00518803 0.233292)
(0.0370503 0.00516142 0.236719)
(0.00188262 0.00972592 0.221811)
(0.00566677 0.0096128 0.22208)
(0.00945866 0.00945894 0.222654)
(0.0132605 0.0093092 0.223543)
(0.0170832 0.00916548 0.22476)
(0.0209301 0.00902704 0.226326)
(0.0248013 0.00889246 0.228267)
(0.0286912 0.00876072 0.230614)
(0.0325793 0.0086418 0.233408)
(0.0364215 0.00860086 0.236695)
(0.00185248 0.0136338 0.222785)
(0.00557801 0.0134757 0.223014)
(0.00930912 0.0132605 0.223543)
(0.0130496 0.0130498 0.224379)
(0.0168092 0.0128458 0.225537)
(0.0205901 0.0126478 0.227033)
(0.0243924 0.0124547 0.228891)
(0.0282106 0.0122654 0.231142)
(0.032023 0.0120945 0.233823)
(0.0357838 0.0120348 0.236973)
(0.00182367 0.0175664 0.224108)
(0.00549356 0.0173616 0.224287)
(0.00916572 0.0170828 0.22476)
(0.0128458 0.0168091 0.225536)
(0.0165423 0.0165425 0.226627)
(0.0202574 0.0162816 0.228048)
(0.0239908 0.0160255 0.229822)
(0.0277374 0.0157737 0.231975)
(0.0314729 0.0155462 0.234542)
(0.0351492 0.0154629 0.237558)
(0.00179591 0.0215273 0.225804)
(0.0054126 0.0212745 0.225919)
(0.0090274 0.0209295 0.226326)
(0.0126481 0.0205897 0.227032)
(0.0162817 0.0202574 0.228048)
(0.01993 0.0199303 0.229388)
(0.0235935 0.0196062 0.231071)
(0.027268 0.0192854 0.233124)
(0.0309263 0.0189935 0.235575)
(0.0345177 0.01888 0.238456)
(0.00176884 0.0255158 0.227902)
(0.00533422 0.0252141 0.227939)
(0.0088928 0.0248007 0.228266)
(0.0124552 0.0243918 0.228891)
(0.016026 0.0239904 0.229821)
(0.0196062 0.0235936 0.231071)
(0.023197 0.0231974 0.232658)
(0.0267964 0.0228 0.234604)
(0.0303767 0.0224318 0.236935)
(0.0338861 0.0222753 0.239679)
(0.00174209 0.0295251 0.230442)
(0.00525768 0.0291742 0.230382)
(0.00876102 0.0286906 0.230614)
(0.0122658 0.02821 0.231142)
(0.0157744 0.0277367 0.231975)
(0.0192859 0.0272675 0.233123)
(0.0227999 0.0267964 0.234603)
(0.0263165 0.0263167 0.236434)
(0.0298114 0.0258546 0.238639)
(0.0332449 0.0256248 0.24124)
(0.00171736 0.0335348 0.23347)
(0.00518819 0.0331347 0.233292)
(0.00864206 0.0325788 0.233408)
(0.0120949 0.0320224 0.233823)
(0.0155467 0.0314722 0.234542)
(0.018994 0.0309256 0.235574)
(0.0224321 0.0303761 0.236935)
(0.0258546 0.0298112 0.238639)
(0.0292399 0.0292399 0.240707)
(0.0326007 0.0288791 0.243156)
(0.00170654 0.0374976 0.237043)
(0.00516156 0.0370499 0.236719)
(0.00860108 0.036421 0.236695)
(0.0120351 0.0357833 0.236973)
(0.0154632 0.0351487 0.237557)
(0.0188803 0.0345171 0.238456)
(0.0222756 0.0338855 0.239679)
(0.0256251 0.0332445 0.24124)
(0.0288792 0.0326005 0.243156)
(0.0320958 0.0320958 0.245454)
(0.00220519 0.00220542 0.205966)
(0.00663591 0.00218007 0.206241)
(0.0110903 0.00214725 0.206797)
(0.0155828 0.00211759 0.207647)
(0.0201411 0.00209127 0.208812)
(0.0247837 0.00206801 0.210321)
(0.0295272 0.0020476 0.21221)
(0.0343839 0.00202995 0.214531)
(0.0393558 0.0020171 0.217347)
(0.0444204 0.00202928 0.220734)
(0.00217984 0.00663616 0.20624)
(0.00656175 0.00656215 0.206499)
(0.010967 0.00646577 0.207031)
(0.0154088 0.00637838 0.207848)
(0.0199127 0.00630105 0.20897)
(0.0244966 0.00623313 0.210422)
(0.0291765 0.00617394 0.212241)
(0.0339647 0.00612319 0.214472)
(0.0388618 0.00608655 0.217173)
(0.0438473 0.00611965 0.220416)
(0.0021472 0.01109 0.206796)
(0.00646555 0.0109671 0.207031)
(0.0108057 0.010806 0.207532)
(0.0151811 0.0106577 0.208313)
(0.0196145 0.0105244 0.209389)
(0.0241224 0.0104056 0.210786)
(0.0287201 0.0103004 0.212537)
(0.0334194 0.0102084 0.214684)
(0.0382183 0.0101397 0.21728)
(0.0430989 0.01019 0.220391)
(0.00211768 0.0155823 0.207647)
(0.00637851 0.0154085 0.207848)
(0.0106576 0.0151811 0.208313)
(0.0149701 0.0149703 0.209051)
(0.0193366 0.0147782 0.210079)
(0.0237721 0.0146049 0.21142)
(0.0282906 0.0144496 0.213104)
(0.0329033 0.0143119 0.215169)
(0.0376045 0.0142061 0.217667)
(0.0423776 0.014266 0.220653)
(0.00209136 0.0201404 0.208812)
(0.00630131 0.019912 0.20897)
(0.0105246 0.019614 0.209389)
(0.0147782 0.0193365 0.210079)
(0.0190812 0.0190814 0.211055)
(0.0234478 0.018848 0.212336)
(0.0278908 0.0186357 0.213952)
(0.0324204 0.018445 0.215939)
(0.0370263 0.0182949 0.21834)
(0.0416948 0.0183568 0.221208)
(0.00206809 0.024783 0.210321)
(0.00623337 0.0244958 0.210422)
(0.010406 0.0241217 0.210786)
(0.0146052 0.0237716 0.21142)
(0.018848 0.0234477 0.212336)
(0.0231479 0.0231482 0.213555)
(0.0275177 0.0228714 0.2151)
(0.0319673 0.0226183 0.217006)
(0.0364811 0.0224135 0.219314)
(0.0410504 0.0224678 0.222067)
(0.00204768 0.0295264 0.21221)
(0.00617416 0.0291758 0.212241)
(0.0103008 0.0287194 0.212537)
(0.0144501 0.0282899 0.213103)
(0.0186363 0.0278903 0.213952)
(0.0228715 0.0275179 0.2151)
(0.0271685 0.027169 0.216571)
(0.0315386 0.0268427 0.218394)
(0.0359628 0.026568 0.220606)
(0.0404417 0.0265992 0.223244)
(0.00203002 0.0343832 0.214531)
(0.00612339 0.033964 0.214471)
(0.0102088 0.0334186 0.214683)
(0.0143124 0.0329026 0.215169)
(0.0184458 0.0324196 0.215938)
(0.0226188 0.0319668 0.217006)
(0.0268427 0.0315386 0.218393)
(0.031129 0.0311292 0.220127)
(0.0354598 0.0307633 0.22224)
(0.0398596 0.0307379 0.224761)
(0.00201716 0.0393551 0.217346)
(0.00608673 0.0388611 0.217173)
(0.01014 0.0382176 0.21728)
(0.0142065 0.0376038 0.217667)
(0.0182955 0.0370255 0.21834)
(0.022414 0.0364802 0.219314)
(0.0265683 0.0359621 0.220606)
(0.0307633 0.0354596 0.222239)
(0.0349806 0.0349806 0.224244)
(0.0393115 0.034839 0.226641)
(0.00202933 0.0444198 0.220734)
(0.0061198 0.0438467 0.220416)
(0.0101902 0.0430983 0.220391)
(0.0142663 0.042377 0.220653)
(0.0183572 0.0416941 0.221208)
(0.0224682 0.0410497 0.222067)
(0.0265996 0.040441 0.223244)
(0.0307383 0.0398591 0.224761)
(0.0348392 0.0393113 0.226641)
(0.0390152 0.0390151 0.228916)
(0.00241895 0.00241919 0.189346)
(0.00728249 0.00239283 0.189549)
(0.0121873 0.00235994 0.189962)
(0.0171613 0.00233209 0.190598)
(0.0222465 0.00230962 0.191476)
(0.0274791 0.00229244 0.192625)
(0.0328965 0.00228067 0.194083)
(0.0385367 0.00227465 0.195902)