/*--------------------------------*- C++ -*----------------------------------*\
| =========                 |                                                 |
| \\      /  F ield         | foam-extend: Open Source CFD                    |
|  \\    /   O peration     | Version:     3.1                                |
|   \\  /    A nd           | Web:         http://www.extend-project.de       |
|    \\/     M anipulation  |                                                 |
\*---------------------------------------------------------------------------*/
FoamFile
{
    version     2.0;
    format      ascii;
    class       volScalarField::DimensionedInternalField;
    location    "0.0018";
    object      V0;
}
// * * * * * * * * * * * * * * * * * * * * * * * * * * * * * * * * * * * * * //

dimensions      [0 3 0 0 0 0 0];

value           nonuniform List<scalar> 
16000
(
7.23645e-11
7.10974e-11
6.9829e-11
6.85685e-11
6.73175e-11
6.60758e-11
6.48438e-11
6.36218e-11
6.241e-11
6.12076e-11
7.10962e-11
6.98356e-11
6.85737e-11
6.73154e-11
6.60647e-11
6.48228e-11
6.35901e-11
6.23667e-11
6.11524e-11
5.99445e-11
6.98279e-11
6.85725e-11
6.73176e-11
6.60638e-11
6.48142e-11
6.35719e-11
6.23382e-11
6.11128e-11
5.98955e-11
5.86836e-11
6.85682e-11
6.73145e-11
6.60628e-11
6.48129e-11
6.35654e-11
6.23225e-11
6.10868e-11
5.98588e-11
5.86384e-11
5.74233e-11
6.73175e-11
6.60645e-11
6.48134e-11
6.35645e-11
6.23184e-11
6.10756e-11
5.98375e-11
5.86058e-11
5.73819e-11
5.61642e-11
6.60759e-11
6.48229e-11
6.35718e-11
6.23218e-11
6.10747e-11
5.98316e-11
5.85919e-11
5.73561e-11
5.61271e-11
5.49064e-11
6.4844e-11
6.35903e-11
6.23383e-11
6.10867e-11
5.98366e-11
5.85904e-11
5.73487e-11
5.61096e-11
5.48745e-11
5.36495e-11
6.3622e-11
6.23669e-11
6.11129e-11
5.98589e-11
5.86057e-11
5.73547e-11
5.6108e-11
5.4864e-11
5.36225e-11
5.23921e-11
6.24103e-11
6.11527e-11
5.98957e-11
5.86385e-11
5.7382e-11
5.61267e-11
5.48735e-11
5.36218e-11
5.23716e-11
5.11314e-11
6.12079e-11
5.99448e-11
5.86839e-11
5.74235e-11
5.61642e-11
5.49064e-11
5.36494e-11
5.23917e-11
5.11309e-11
4.98738e-11
7.34258e-11
7.21135e-11
7.07789e-11
6.94496e-11
6.81308e-11
6.68211e-11
6.55195e-11
6.4225e-11
6.29361e-11
6.16472e-11
7.211e-11
7.08187e-11
6.95049e-11
6.81846e-11
6.68693e-11
6.55621e-11
6.42624e-11
6.29687e-11
6.16789e-11
6.0383e-11
7.07758e-11
6.95015e-11
6.8211e-11
6.69074e-11
6.55993e-11
6.42955e-11
6.2998e-11
6.17046e-11
6.04138e-11
5.91167e-11
6.9449e-11
6.81821e-11
6.69045e-11
6.56165e-11
6.43194e-11
6.3019e-11
6.17219e-11
6.04281e-11
5.91363e-11
5.78403e-11
6.8131e-11
6.6869e-11
6.55971e-11
6.43167e-11
6.30295e-11
6.17357e-11
6.04382e-11
5.91413e-11
5.78474e-11
5.65539e-11
6.68214e-11
6.55625e-11
6.42951e-11
6.30171e-11
6.1733e-11
6.04452e-11
5.91507e-11
5.78498e-11
5.65495e-11
5.52573e-11
6.552e-11
6.42629e-11
6.29984e-11
6.17217e-11
6.04358e-11
5.91464e-11
5.78542e-11
5.65522e-11
5.52431e-11
5.39493e-11
6.42257e-11
6.29693e-11
6.17052e-11
6.04285e-11
5.91409e-11
5.78458e-11
5.65476e-11
5.5241e-11
5.39242e-11
5.26269e-11
6.29369e-11
6.16796e-11
6.04144e-11
5.91368e-11
5.78479e-11
5.65486e-11
5.52407e-11
5.39225e-11
5.25939e-11
5.1284e-11
6.16479e-11
6.03836e-11
5.91172e-11
5.78408e-11
5.65542e-11
5.52576e-11
5.39494e-11
5.26261e-11
5.12828e-11
4.99447e-11
7.43731e-11
7.30182e-11
7.16202e-11
7.0225e-11
6.88408e-11
6.74656e-11
6.6098e-11
6.47363e-11
6.33786e-11
6.20166e-11
7.30126e-11
7.16923e-11
7.0329e-11
6.89492e-11
6.75719e-11
6.62022e-11
6.48391e-11
6.34806e-11
6.21234e-11
6.07523e-11
7.16153e-11
7.03235e-11
6.89993e-11
6.7648e-11
6.62838e-11
6.49214e-11
6.35642e-11
6.22084e-11
6.08525e-11
5.94824e-11
7.02241e-11
6.89452e-11
6.76432e-11
6.63191e-11
6.49748e-11
6.36202e-11
6.22658e-11
6.09122e-11
5.95578e-11
5.8193e-11
6.88412e-11
6.75714e-11
6.62804e-11
6.49704e-11
6.36445e-11
6.23033e-11
6.09511e-11
5.95956e-11
5.82411e-11
5.68837e-11
6.74663e-11
6.62028e-11
6.49209e-11
6.36171e-11
6.22988e-11
6.09701e-11
5.9626e-11
5.82672e-11
5.6906e-11
5.55544e-11
6.60989e-11
6.48399e-11
6.35649e-11
6.22656e-11
6.09472e-11
5.9619e-11
5.82821e-11
5.69251e-11
5.55532e-11
5.42029e-11
6.47375e-11
6.34816e-11
6.22094e-11
6.0913e-11
5.9595e-11
5.82607e-11
5.69177e-11
5.5557e-11
5.41765e-11
5.28243e-11
6.33799e-11
6.21246e-11
6.08535e-11
5.95587e-11
5.8242e-11
5.69047e-11
5.55496e-11
5.41738e-11
5.27777e-11
5.14077e-11
6.20178e-11
6.07534e-11
5.94833e-11
5.81938e-11
5.68844e-11
5.5555e-11
5.42032e-11
5.28232e-11
5.14058e-11
4.99922e-11
7.51851e-11
7.37928e-11
7.2339e-11
7.0886e-11
6.94457e-11
6.80158e-11
6.6595e-11
6.51823e-11
6.37764e-11
6.2368e-11
7.37852e-11
7.24399e-11
7.10333e-11
6.96017e-11
6.81712e-11
6.67495e-11
6.53358e-11
6.39283e-11
6.2524e-11
6.11036e-11
7.23325e-11
7.1026e-11
6.96727e-11
6.82804e-11
6.68686e-11
6.54579e-11
6.40533e-11
6.26509e-11
6.12494e-11
5.9831e-11
7.0885e-11
6.95964e-11
6.8274e-11
6.69194e-11
6.55358e-11
6.41369e-11
6.27377e-11
6.13397e-11
5.9942e-11
5.85318e-11
6.94465e-11
6.81708e-11
6.68641e-11
6.55299e-11
6.41726e-11
6.27933e-11
6.13989e-11
6.00002e-11
5.86042e-11
5.72054e-11
6.80168e-11
6.67505e-11
6.54574e-11
6.41328e-11
6.27874e-11
6.14269e-11
6.00454e-11
5.86443e-11
5.72413e-11
5.58518e-11
6.65964e-11
6.53371e-11
6.40544e-11
6.27375e-11
6.13937e-11
6.00358e-11
5.86661e-11
5.72696e-11
5.58542e-11
5.44679e-11
6.5184e-11
6.39299e-11
6.26522e-11
6.13409e-11
5.99995e-11
5.86355e-11
5.72596e-11
5.58598e-11
5.44343e-11
5.30468e-11
6.37782e-11
6.25257e-11
6.12509e-11
5.99433e-11
5.86055e-11
5.72396e-11
5.58494e-11
5.44308e-11
5.29848e-11
5.15721e-11
6.23697e-11
6.11052e-11
5.98325e-11
5.85331e-11
5.72066e-11
5.58528e-11
5.44686e-11
5.30455e-11
5.15695e-11
5.00951e-11
7.58418e-11
7.44191e-11
7.29197e-11
7.14203e-11
6.99358e-11
6.84641e-11
6.70044e-11
6.55562e-11
6.41189e-11
6.26826e-11
7.441e-11
7.30446e-11
7.16028e-11
7.01296e-11
6.86575e-11
6.71963e-11
6.57456e-11
6.43041e-11
6.28691e-11
6.14178e-11
7.2912e-11
7.15941e-11
7.02177e-11
6.87928e-11
6.73441e-11
6.58969e-11
6.44579e-11
6.30232e-11
6.15921e-11
6.01432e-11
7.14193e-11
7.01234e-11
6.87851e-11
6.7407e-11
6.59933e-11
6.45613e-11
6.31298e-11
6.17013e-11
6.02754e-11
5.88364e-11
6.9937e-11
6.86572e-11
6.73388e-11
6.59862e-11
6.46054e-11
6.31983e-11
6.17736e-11
6.03451e-11
5.89222e-11
5.74972e-11
6.84656e-11
6.71977e-11
6.58964e-11
6.45565e-11
6.31911e-11
6.18079e-11
6.04e-11
5.89697e-11
5.7539e-11
5.61256e-11
6.70062e-11
6.57473e-11
6.44594e-11
6.31298e-11
6.17673e-11
6.03883e-11
5.89959e-11
5.75721e-11
5.61269e-11
5.47175e-11
6.55584e-11
6.43062e-11
6.30251e-11
6.1703e-11
6.03444e-11
5.8959e-11
5.75599e-11
5.61326e-11
5.46754e-11
5.32643e-11
6.41213e-11
6.28714e-11
6.15942e-11
6.02772e-11
5.89239e-11
5.7537e-11
5.61211e-11
5.46712e-11
5.31883e-11
5.17448e-11
6.26849e-11
6.14199e-11
6.01451e-11
5.88382e-11
5.74989e-11
5.61271e-11
5.47187e-11
5.32629e-11
5.17416e-11
5.02205e-11
7.63246e-11
7.48795e-11
7.33462e-11
7.18125e-11
7.02959e-11
6.87942e-11
6.73072e-11
6.58349e-11
6.4377e-11
6.29227e-11
7.48692e-11
7.34893e-11
7.20212e-11
7.05171e-11
6.90148e-11
6.75253e-11
6.60488e-11
6.45843e-11
6.3129e-11
6.16574e-11
7.33377e-11
7.20116e-11
7.0618e-11
6.91691e-11
6.76937e-11
6.62204e-11
6.47576e-11
6.3301e-11
6.18503e-11
6.03812e-11
7.18115e-11
7.05104e-11
6.91605e-11
6.77653e-11
6.63301e-11
6.48746e-11
6.34207e-11
6.19716e-11
6.05269e-11
5.90691e-11
7.02974e-11
6.90146e-11
6.76877e-11
6.63221e-11
6.49247e-11
6.3498e-11
6.20523e-11
6.06037e-11
5.91627e-11
5.77206e-11
6.87961e-11
6.75271e-11
6.622e-11
6.48692e-11
6.34899e-11
6.2091e-11
6.06649e-11
5.92147e-11
5.77652e-11
5.63361e-11
6.73095e-11
6.6051e-11
6.47595e-11
6.34208e-11
6.20454e-11
6.06517e-11
5.92438e-11
5.78012e-11
5.63355e-11
5.49108e-11
6.58377e-11
6.45869e-11
6.33033e-11
6.19736e-11
6.06029e-11
5.92025e-11
5.77874e-11
5.63411e-11
5.48618e-11
5.34349e-11
6.438e-11
6.31318e-11
6.18528e-11
6.05292e-11
5.91648e-11
5.7763e-11
5.63291e-11
5.48571e-11
5.33484e-11
5.18841e-11
6.29255e-11
6.166e-11
6.03837e-11
5.90713e-11
5.77228e-11
5.6338e-11
5.49123e-11
5.34334e-11
5.18805e-11
5.03276e-11
7.662e-11
7.51607e-11
7.36056e-11
7.20494e-11
7.05118e-11
6.89907e-11
6.74859e-11
6.59979e-11
6.45266e-11
6.30605e-11
7.51499e-11
7.37608e-11
7.22753e-11
7.07508e-11
6.92287e-11
6.77207e-11
6.62273e-11
6.47477e-11
6.32793e-11
6.17948e-11
7.35967e-11
7.22654e-11
7.086e-11
6.93952e-11
6.79023e-11
6.6412e-11
6.49335e-11
6.34627e-11
6.19992e-11
6.05176e-11
7.20486e-11
7.07438e-11
6.93861e-11
6.79795e-11
6.65301e-11
6.50594e-11
6.35909e-11
6.21283e-11
6.06716e-11
5.92021e-11
7.05136e-11
6.92286e-11
6.7896e-11
6.65216e-11
6.51133e-11
6.36739e-11
6.22147e-11
6.07531e-11
5.93005e-11
5.78481e-11
6.89928e-11
6.77227e-11
6.64117e-11
6.50537e-11
6.36652e-11
6.22561e-11
6.08184e-11
5.93556e-11
5.78942e-11
5.64559e-11
6.74885e-11
6.62297e-11
6.49357e-11
6.35911e-11
6.22073e-11
6.08044e-11
5.93866e-11
5.79324e-11
5.64541e-11
5.50207e-11
6.6001e-11
6.47506e-11
6.34653e-11
6.21306e-11
6.07524e-11
5.93427e-11
5.79177e-11
5.64601e-11
5.49676e-11
5.3532e-11
6.453e-11
6.32824e-11
6.20021e-11
6.06741e-11
5.93029e-11
5.7892e-11
5.64473e-11
5.49626e-11
5.34394e-11
5.19645e-11
6.30637e-11
6.17978e-11
6.05204e-11
5.92047e-11
5.78506e-11
5.64581e-11
5.50223e-11
5.35305e-11
5.19607e-11
5.03918e-11
7.67236e-11
7.52585e-11
7.36932e-11
7.2126e-11
7.05777e-11
6.90461e-11
6.75317e-11
6.6035e-11
6.45563e-11
6.3084e-11
7.52476e-11
7.38545e-11
7.23602e-11
7.08252e-11
6.9293e-11
6.7775e-11
6.62722e-11
6.47843e-11
6.33086e-11
6.18181e-11
7.36844e-11
7.23505e-11
7.09386e-11
6.94651e-11
6.79631e-11
6.64637e-11
6.49766e-11
6.34979e-11
6.20276e-11
6.05405e-11
7.21253e-11
7.08183e-11
6.9456e-11
6.80431e-11
6.6586e-11
6.51072e-11
6.36309e-11
6.21612e-11
6.06981e-11
5.9224e-11
7.05795e-11
6.92928e-11
6.79567e-11
6.65773e-11
6.5163e-11
6.37169e-11
6.22508e-11
6.07827e-11
5.93245e-11
5.78683e-11
6.90484e-11
6.77771e-11
6.64634e-11
6.51014e-11
6.37081e-11
6.22937e-11
6.08502e-11
5.93816e-11
5.79151e-11
5.6474e-11
6.75344e-11
6.62748e-11
6.49788e-11
6.36311e-11
6.22433e-11
6.0836e-11
5.94137e-11
5.79547e-11
5.64718e-11
5.50364e-11
6.60382e-11
6.47873e-11
6.35006e-11
6.21635e-11
6.0782e-11
5.93685e-11
5.79398e-11
5.64784e-11
5.49822e-11
5.35455e-11
6.45598e-11
6.33119e-11
6.20306e-11
6.07008e-11
5.9327e-11
5.79129e-11
5.64649e-11
5.49771e-11
5.3451e-11
5.1976e-11
6.30873e-11
6.18212e-11
6.05434e-11
5.92267e-11
5.78709e-11
5.64762e-11
5.50381e-11
5.35439e-11
5.19722e-11
5.04033e-11
7.66437e-11
7.51803e-11
7.3616e-11
7.20482e-11
7.04984e-11
6.89646e-11
6.74476e-11
6.59486e-11
6.44681e-11
6.2995e-11
7.51697e-11
7.37773e-11
7.22823e-11
7.07462e-11
6.92124e-11
6.76921e-11
6.61868e-11
6.46964e-11
6.32192e-11
6.17293e-11
7.36075e-11
7.22731e-11
7.08596e-11
6.93844e-11
6.78808e-11
6.63793e-11
6.48899e-11
6.34092e-11
6.19377e-11
6.04521e-11
7.20475e-11
7.07396e-11
6.93756e-11
6.79607e-11
6.65021e-11
6.50216e-11
6.35435e-11
6.20724e-11
6.06088e-11
5.91367e-11
7.05001e-11
6.92121e-11
6.78745e-11
6.64935e-11
6.50776e-11
6.36302e-11
6.21632e-11
6.06946e-11
5.92366e-11
5.77832e-11
6.89668e-11
6.76941e-11
6.6379e-11
6.50159e-11
6.36216e-11
6.22063e-11
6.07626e-11
5.92947e-11
5.78297e-11
5.63921e-11
6.74503e-11
6.61893e-11
6.48921e-11
6.35437e-11
6.21559e-11
6.07488e-11
5.9327e-11
5.78699e-11
5.63902e-11
5.49596e-11
6.59517e-11
6.46994e-11
6.34118e-11
6.20747e-11
6.0694e-11
5.92821e-11
5.78554e-11
5.63976e-11
5.49069e-11
5.34764e-11
6.44714e-11
6.32223e-11
6.19406e-11
6.06114e-11
5.9239e-11
5.78276e-11
5.63835e-11
5.49018e-11
5.33842e-11
5.19192e-11
6.29982e-11
6.17323e-11
6.04549e-11
5.91393e-11
5.77856e-11
5.63943e-11
5.49612e-11
5.34749e-11
5.19155e-11
5.03614e-11
7.64015e-11
7.49462e-11
7.33926e-11
7.18336e-11
7.02904e-11
6.87616e-11
6.72485e-11
6.57527e-11
6.42754e-11
6.28067e-11
7.49362e-11
7.35481e-11
7.20601e-11
7.05312e-11
6.90034e-11
6.74876e-11
6.59857e-11
6.44984e-11
6.30246e-11
6.15415e-11
7.33846e-11
7.20515e-11
7.06409e-11
6.91702e-11
6.76717e-11
6.61744e-11
6.46883e-11
6.32107e-11
6.17432e-11
6.02652e-11
7.18329e-11
7.05249e-11
6.91619e-11
6.77492e-11
6.62941e-11
6.48178e-11
6.33434e-11
6.18761e-11
6.04169e-11
5.89531e-11
7.02918e-11
6.9003e-11
6.76656e-11
6.62861e-11
6.48725e-11
6.34286e-11
6.19661e-11
6.05026e-11
5.90499e-11
5.7605e-11
6.87635e-11
6.74893e-11
6.6174e-11
6.48123e-11
6.34205e-11
6.20083e-11
6.05693e-11
5.91079e-11
5.76503e-11
5.62221e-11
6.72508e-11
6.59879e-11
6.46901e-11
6.33435e-11
6.19592e-11
6.05564e-11
5.91396e-11
5.76902e-11
5.6221e-11
5.48012e-11
6.57554e-11
6.4501e-11
6.32131e-11
6.18782e-11
6.05019e-11
5.90962e-11
5.76767e-11
5.62292e-11
5.4752e-11
5.33345e-11
6.42783e-11
6.30274e-11
6.17457e-11
6.04193e-11
5.90521e-11
5.76483e-11
5.62145e-11
5.47472e-11
5.32481e-11
5.18019e-11
6.28095e-11
6.15441e-11
6.02677e-11
5.89554e-11
5.76072e-11
5.62239e-11
5.48024e-11
5.33329e-11
5.17984e-11
5.02722e-11
7.60295e-11
7.45875e-11
7.30524e-11
7.151e-11
6.99802e-11
6.84625e-11
6.69587e-11
6.54709e-11
6.40013e-11
6.25412e-11
7.45783e-11
7.31976e-11
7.17226e-11
7.0208e-11
6.86925e-11
6.71871e-11
6.56938e-11
6.42141e-11
6.27481e-11
6.12767e-11
7.30451e-11
7.17147e-11
7.03109e-11
6.88501e-11
6.73622e-11
6.58744e-11
6.43963e-11
6.29265e-11
6.14672e-11
6.0002e-11
7.15092e-11
7.02022e-11
6.88425e-11
6.74354e-11
6.59883e-11
6.45209e-11
6.3055e-11
6.15958e-11
6.01453e-11
5.86946e-11
6.99813e-11
6.86921e-11
6.73566e-11
6.5981e-11
6.45731e-11
6.31368e-11
6.16833e-11
6.02293e-11
5.87863e-11
5.73547e-11
6.8464e-11
6.71884e-11
6.58739e-11
6.45159e-11
6.31294e-11
6.17237e-11
6.02934e-11
5.88434e-11
5.73978e-11
5.59835e-11
6.69605e-11
6.56955e-11
6.43978e-11
6.30549e-11
6.16771e-11
6.02819e-11
5.88737e-11
5.74369e-11
5.59835e-11
5.45792e-11
6.54732e-11
6.42162e-11
6.29284e-11
6.15975e-11
6.02287e-11
5.8833e-11
5.74249e-11
5.59927e-11
5.45354e-11
5.31358e-11
6.40037e-11
6.27504e-11
6.14693e-11
6.01472e-11
5.87881e-11
5.7396e-11
5.59776e-11
5.4531e-11
5.3058e-11
5.16374e-11
6.25435e-11
6.12789e-11
6.0004e-11
5.86964e-11
5.73564e-11
5.59849e-11
5.45801e-11
5.31342e-11
5.16344e-11
5.01465e-11
7.55684e-11
7.41434e-11
7.26327e-11
7.11126e-11
6.96015e-11
6.80999e-11
6.66099e-11
6.51344e-11
6.36759e-11
6.22279e-11
7.41352e-11
7.27643e-11
7.1307e-11
6.98119e-11
6.83139e-11
6.68234e-11
6.5343e-11
6.38749e-11
6.24203e-11
6.09643e-11
7.2626e-11
7.12999e-11
6.99058e-11
6.84589e-11
6.69862e-11
6.55122e-11
6.40462e-11
6.25879e-11
6.11402e-11
5.96914e-11
7.11117e-11
6.98066e-11
6.84522e-11
6.70537e-11
6.56182e-11
6.41637e-11
6.27099e-11
6.12625e-11
5.9824e-11
5.83898e-11
6.96023e-11
6.83133e-11
6.69812e-11
6.56117e-11
6.42123e-11
6.2787e-11
6.13462e-11
5.99052e-11
5.8475e-11
5.70598e-11
6.8101e-11
6.68243e-11
6.55116e-11
6.41592e-11
6.27805e-11
6.13839e-11
5.99656e-11
5.85304e-11
5.71003e-11
5.57028e-11
6.66113e-11
6.53443e-11
6.40473e-11
6.27097e-11
6.13407e-11
5.99557e-11
5.85589e-11
5.71379e-11
5.57041e-11
5.43183e-11
6.51361e-11
6.38765e-11
6.25893e-11
6.12638e-11
5.99046e-11
5.85215e-11
5.71277e-11
5.57143e-11
5.42809e-11
5.29024e-11
6.36777e-11
6.24219e-11
6.11418e-11
5.98255e-11
5.84764e-11
5.70987e-11
5.56989e-11
5.42769e-11
5.28348e-11
5.14442e-11
6.22296e-11
6.09659e-11
5.96929e-11
5.83912e-11
5.7061e-11
5.57038e-11
5.43186e-11
5.29008e-11
5.14415e-11
4.99986e-11
7.50625e-11
7.36567e-11
7.21739e-11
7.06801e-11
6.91917e-11
6.771e-11
6.62377e-11
6.47778e-11
6.33336e-11
6.19004e-11
7.36496e-11
7.22902e-11
7.08535e-11
6.93815e-11
6.79047e-11
6.64329e-11
6.49691e-11
6.35159e-11
6.20757e-11
6.06378e-11
7.21681e-11
7.08473e-11
6.94652e-11
6.80352e-11
6.6581e-11
6.51244e-11
6.36738e-11
6.22301e-11
6.0797e-11
5.93671e-11
7.06791e-11
6.93768e-11
6.80294e-11
6.66418e-11
6.52208e-11
6.37824e-11
6.23439e-11
6.09111e-11
5.94873e-11
5.80718e-11
6.91922e-11
6.7904e-11
6.65766e-11
6.52153e-11
6.38268e-11
6.2415e-11
6.09896e-11
5.95644e-11
5.81494e-11
5.67524e-11
6.77107e-11
6.64335e-11
6.51237e-11
6.37785e-11
6.24095e-11
6.10243e-11
5.96202e-11
5.82023e-11
5.67899e-11
5.54106e-11
6.62386e-11
6.49699e-11
6.36745e-11
6.23436e-11
6.0985e-11
5.9612e-11
5.82286e-11
5.68255e-11
5.54133e-11
5.4047e-11
6.47789e-11
6.3517e-11
6.22311e-11
6.0912e-11
5.95638e-11
5.81951e-11
5.68171e-11
5.54243e-11
5.40164e-11
5.266e-11
6.33349e-11
6.20768e-11
6.0798e-11
5.94883e-11
5.81505e-11
5.67885e-11
5.54088e-11
5.4013e-11
5.26034e-11
5.12435e-11
6.19015e-11
6.06389e-11
5.93681e-11
5.80727e-11
5.67532e-11
5.54111e-11
5.4047e-11
5.26585e-11
5.12414e-11
4.98446e-11
7.45542e-11
7.31684e-11
7.1715e-11
7.02495e-11
6.87864e-11
6.73276e-11
6.5876e-11
6.44349e-11
6.30081e-11
6.15921e-11
7.31624e-11
7.18153e-11
7.04007e-11
6.8954e-11
6.7501e-11
6.60507e-11
6.46065e-11
6.31714e-11
6.17484e-11
6.03307e-11
7.17099e-11
7.03954e-11
6.90269e-11
6.76158e-11
6.61826e-11
6.4746e-11
6.33137e-11
6.18876e-11
6.04715e-11
5.90622e-11
7.02485e-11
6.89499e-11
6.76109e-11
6.62362e-11
6.48319e-11
6.34119e-11
6.19913e-11
6.05757e-11
5.91688e-11
5.77734e-11
6.87866e-11
6.75002e-11
6.61789e-11
6.48273e-11
6.34515e-11
6.20554e-11
6.06477e-11
5.92404e-11
5.78425e-11
5.64645e-11
6.7328e-11
6.60511e-11
6.47452e-11
6.34086e-11
6.2051e-11
6.06788e-11
5.92908e-11
5.78918e-11
5.64984e-11
5.51377e-11
6.58765e-11
6.4607e-11
6.33141e-11
6.19909e-11
6.06439e-11
5.92843e-11
5.79156e-11
5.65315e-11
5.51414e-11
5.37944e-11
6.44356e-11
6.31721e-11
6.18881e-11
6.05763e-11
5.92398e-11
5.78861e-11
5.65248e-11
5.51528e-11
5.37703e-11
5.24348e-11
6.30088e-11
6.17491e-11
6.04722e-11
5.91695e-11
5.78433e-11
5.64973e-11
5.51376e-11
5.37673e-11
5.23887e-11
5.1057e-11
6.15928e-11
6.03313e-11
5.90628e-11
5.77738e-11
5.64649e-11
5.51379e-11
5.3794e-11
5.24334e-11
5.10553e-11
4.97005e-11
7.40787e-11
7.27124e-11
7.1288e-11
6.98515e-11
6.8415e-11
6.69811e-11
6.55526e-11
6.4133e-11
6.27261e-11
6.13298e-11
7.27075e-11
7.13729e-11
6.99807e-11
6.85599e-11
6.7132e-11
6.57054e-11
6.42832e-11
6.28689e-11
6.14656e-11
6.00696e-11
7.12837e-11
6.99762e-11
6.86221e-11
6.7231e-11
6.58202e-11
6.44055e-11
6.2994e-11
6.15878e-11
6.01912e-11
5.88034e-11
6.98505e-11
6.85564e-11
6.7227e-11
6.58664e-11
6.44803e-11
6.30806e-11
6.16799e-11
6.02837e-11
5.88957e-11
5.75207e-11
6.8415e-11
6.71313e-11
6.58171e-11
6.44766e-11
6.31152e-11
6.17363e-11
6.03478e-11
5.896e-11
5.75808e-11
5.62218e-11
6.69812e-11
6.57055e-11
6.44048e-11
6.30778e-11
6.17328e-11
6.03751e-11
5.90044e-11
5.76253e-11
5.62517e-11
5.49087e-11
6.55528e-11
6.42835e-11
6.29942e-11
6.16794e-11
6.03448e-11
5.89993e-11
5.76462e-11
5.62813e-11
5.4913e-11
5.35835e-11
6.41334e-11
6.28692e-11
6.15881e-11
6.0284e-11
5.89595e-11
5.76209e-11
5.62761e-11
5.4924e-11
5.3565e-11
5.22476e-11
6.27265e-11
6.1466e-11
6.01916e-11
5.8896e-11
5.75813e-11
5.62507e-11
5.49099e-11
5.35626e-11
5.22109e-11
5.09018e-11
6.13302e-11
6.00699e-11
5.88037e-11
5.75209e-11
5.62219e-11
5.49086e-11
5.3583e-11
5.22464e-11
5.09006e-11
4.95785e-11
7.36601e-11
7.2312e-11
7.09149e-11
6.95063e-11
6.80966e-11
6.66883e-11
6.52844e-11
6.38882e-11
6.25032e-11
6.11282e-11
7.2308e-11
7.09856e-11
6.96149e-11
6.82194e-11
6.68169e-11
6.54148e-11
6.40163e-11
6.26246e-11
6.12429e-11
5.98692e-11
7.09113e-11
6.96111e-11
6.82715e-11
6.69006e-11
6.55125e-11
6.41208e-11
6.27315e-11
6.13471e-11
5.99714e-11
5.86053e-11
6.95054e-11
6.82164e-11
6.68973e-11
6.55516e-11
6.41844e-11
6.28057e-11
6.14262e-11
6.00507e-11
5.86829e-11
5.73281e-11
6.80965e-11
6.68162e-11
6.551e-11
6.41814e-11
6.28351e-11
6.14745e-11
6.0106e-11
5.87385e-11
5.73789e-11
5.6038e-11
6.66883e-11
6.54148e-11
6.41201e-11
6.28035e-11
6.14716e-11
6.01292e-11
5.87764e-11
5.74173e-11
5.60635e-11
5.47368e-11
6.52845e-11
6.40163e-11
6.27315e-11
6.14257e-11
6.01036e-11
5.87724e-11
5.7435e-11
5.60889e-11
5.47411e-11
5.34268e-11
6.38883e-11
6.26247e-11
6.13472e-11
6.00509e-11
5.87381e-11
5.74139e-11
5.60849e-11
5.47509e-11
5.34125e-11
5.21095e-11
6.25034e-11
6.1243e-11
5.99716e-11
5.86831e-11
5.73792e-11
5.60627e-11
5.47386e-11
5.34106e-11
5.20806e-11
5.07871e-11
6.11284e-11
5.98693e-11
5.86054e-11
5.73281e-11
5.60379e-11
5.47367e-11
5.34262e-11
5.21085e-11
5.07861e-11
4.94853e-11
7.33097e-11
7.19779e-11
7.06054e-11
6.92226e-11
6.78384e-11
6.64553e-11
6.5076e-11
6.37035e-11
6.23411e-11
6.09878e-11
7.19746e-11
7.06636e-11
6.93126e-11
6.79407e-11
6.65626e-11
6.51847e-11
6.381e-11
6.24413e-11
6.10818e-11
5.973e-11
7.06024e-11
6.93094e-11
6.79838e-11
6.66321e-11
6.52661e-11
6.3897e-11
6.25301e-11
6.11678e-11
5.98135e-11
5.84681e-11
6.92218e-11
6.79382e-11
6.66294e-11
6.52986e-11
6.39499e-11
6.2592e-11
6.12336e-11
5.98791e-11
5.85316e-11
5.71956e-11
6.78383e-11
6.6562e-11
6.5264e-11
6.39475e-11
6.26165e-11
6.12738e-11
5.99251e-11
5.85777e-11
5.72372e-11
5.5913e-11
6.64552e-11
6.51846e-11
6.38964e-11
6.25902e-11
6.12715e-11
5.99442e-11
5.86088e-11
5.72689e-11
5.59339e-11
5.46216e-11
6.5076e-11
6.38099e-11
6.25301e-11
6.12332e-11
5.99231e-11
5.86057e-11
5.72835e-11
5.59547e-11
5.46252e-11
5.33232e-11
6.37035e-11
6.24414e-11
6.11679e-11
5.98792e-11
5.85773e-11
5.72662e-11
5.59515e-11
5.46332e-11
5.3312e-11
5.20195e-11
6.23411e-11
6.10818e-11
5.98136e-11
5.85317e-11
5.72374e-11
5.59332e-11
5.46232e-11
5.33104e-11
5.19964e-11
5.07118e-11
6.09878e-11
5.973e-11
5.84681e-11
5.71956e-11
5.59129e-11
5.46214e-11
5.33227e-11
5.20186e-11
5.07111e-11
4.94206e-11
7.30274e-11
7.17095e-11
7.03581e-11
6.89982e-11
6.76372e-11
6.62773e-11
6.49211e-11
6.35711e-11
6.22299e-11
6.0897e-11
7.17068e-11
7.0406e-11
6.90722e-11
6.77213e-11
6.63654e-11
6.501e-11
6.36576e-11
6.23108e-11
6.09722e-11
5.96402e-11
7.03557e-11
6.90696e-11
6.77568e-11
6.64225e-11
6.50766e-11
6.37286e-11
6.23828e-11
6.10414e-11
5.9707e-11
5.83801e-11
6.89976e-11
6.77193e-11
6.64203e-11
6.51033e-11
6.37718e-11
6.24331e-11
6.10945e-11
5.97596e-11
5.84309e-11
5.71115e-11
6.76371e-11
6.63649e-11
6.5075e-11
6.37699e-11
6.24531e-11
6.1127e-11
5.97965e-11
5.84675e-11
5.71447e-11
5.58347e-11
6.62773e-11
6.50099e-11
6.37281e-11
6.24316e-11
6.11251e-11
5.98119e-11
5.84925e-11
5.71697e-11
5.58513e-11
5.45509e-11
6.4921e-11
6.36575e-11
6.23828e-11
6.10942e-11
5.97949e-11
5.84899e-11
5.71813e-11
5.58676e-11
5.45536e-11
5.32612e-11
6.35711e-11
6.23108e-11
6.10414e-11
5.97596e-11
5.84672e-11
5.71675e-11
5.5865e-11
5.45596e-11
5.32518e-11
5.19665e-11
6.22299e-11
6.09722e-11
5.97071e-11
5.84309e-11
5.71448e-11
5.58508e-11
5.4552e-11
5.32506e-11
5.19477e-11
5.06672e-11
6.0897e-11
5.96401e-11
5.83801e-11
5.71115e-11
5.58347e-11
5.45507e-11
5.32609e-11
5.19659e-11
5.06666e-11
4.93791e-11
7.28045e-11
7.14982e-11
7.01644e-11
6.88238e-11
6.74828e-11
6.61431e-11
6.48069e-11
6.34765e-11
6.21537e-11
6.08381e-11
7.1496e-11
7.02037e-11
6.88846e-11
6.75515e-11
6.62147e-11
6.48788e-11
6.35459e-11
6.22182e-11
6.08975e-11
5.95821e-11
7.01623e-11
6.88824e-11
6.75806e-11
6.62614e-11
6.4933e-11
6.36032e-11
6.22758e-11
6.09523e-11
5.96351e-11
5.83235e-11
6.88233e-11
6.75499e-11
6.62596e-11
6.49546e-11
6.36382e-11
6.23161e-11
6.09945e-11
5.96764e-11
5.83636e-11
5.70579e-11
6.74827e-11
6.62144e-11
6.49316e-11
6.36365e-11
6.23321e-11
6.10205e-11
5.97054e-11
5.83921e-11
5.7084e-11
5.57855e-11
6.61431e-11
6.48788e-11
6.36028e-11
6.23148e-11
6.10189e-11
5.97177e-11
5.84117e-11
5.71032e-11
5.57985e-11
5.45073e-11
6.48069e-11
6.35459e-11
6.22757e-11
6.09942e-11
5.97041e-11
5.84095e-11
5.71123e-11
5.58109e-11
5.45091e-11
5.32238e-11
6.34765e-11
6.22182e-11
6.09524e-11
5.96764e-11
5.83918e-11
5.71013e-11
5.58086e-11
5.45132e-11
5.32156e-11
5.19352e-11
6.21538e-11
6.08975e-11
5.96351e-11
5.83637e-11
5.70841e-11
5.5798e-11
5.45077e-11
5.32146e-11
5.19194e-11
5.06405e-11
6.08381e-11
5.95821e-11
5.83235e-11
5.70579e-11
5.57856e-11
5.45073e-11
5.32236e-11
5.19347e-11
5.06399e-11
4.93524e-11
7.26284e-11
7.13314e-11
7.00118e-11
6.86871e-11
6.73624e-11
6.60392e-11
6.47194e-11
6.34046e-11
6.20964e-11
6.0794e-11
7.13295e-11
7.00443e-11
6.87371e-11
6.74187e-11
6.60975e-11
6.47776e-11
6.34605e-11
6.2148e-11
6.08414e-11
5.95386e-11
7.00101e-11
6.87353e-11
6.74426e-11
6.61358e-11
6.48216e-11
6.35066e-11
6.2194e-11
6.0885e-11
5.95811e-11
5.82812e-11
6.86867e-11
6.74173e-11
6.61342e-11
6.48393e-11
6.3535e-11
6.22263e-11
6.09184e-11
5.96136e-11
5.83132e-11
5.70178e-11
6.73623e-11
6.60972e-11
6.48204e-11
6.35336e-11
6.22393e-11
6.09392e-11
5.96365e-11
5.83353e-11
5.70386e-11
5.57488e-11
6.60392e-11
6.47776e-11
6.35063e-11
6.22253e-11
6.09379e-11
5.96463e-11
5.83509e-11
5.70534e-11
5.57589e-11
5.44746e-11
6.47194e-11
6.34605e-11
6.21941e-11
6.09182e-11
5.96353e-11
5.83489e-11
5.70605e-11
5.57684e-11
5.44756e-11
5.31956e-11
6.34046e-11
6.2148e-11
6.08851e-11
5.96137e-11
5.83351e-11
5.70516e-11
5.57664e-11
5.44785e-11
5.31883e-11
5.19114e-11
6.20964e-11
6.08414e-11
5.95812e-11
5.83133e-11
5.70387e-11
5.57585e-11
5.44745e-11
5.31874e-11
5.18977e-11
5.06201e-11
6.0794e-11
5.95387e-11
5.82812e-11
5.70179e-11
5.57488e-11
5.44746e-11
5.31955e-11
5.19109e-11
5.06196e-11
4.93324e-11
7.24862e-11
7.11966e-11
6.98885e-11
6.85763e-11
6.72645e-11
6.59543e-11
6.46469e-11
6.33439e-11
6.20463e-11
6.07532e-11
7.11951e-11
6.99155e-11
6.86178e-11
6.7311e-11
6.60022e-11
6.46946e-11
6.33895e-11
6.20884e-11
6.0792e-11
5.94984e-11
6.9887e-11
6.86163e-11
6.73308e-11
6.60338e-11
6.47307e-11
6.34272e-11
6.21259e-11
6.08275e-11
5.95333e-11
5.82417e-11
6.8576e-11
6.73098e-11
6.60324e-11
6.47453e-11
6.34505e-11
6.21522e-11
6.08546e-11
5.95595e-11
5.82681e-11
5.698e-11
6.72645e-11
6.60019e-11
6.47297e-11
6.34493e-11
6.21628e-11
6.08715e-11
5.9578e-11
5.82857e-11
5.6997e-11
5.57134e-11
6.59543e-11
6.46946e-11
6.3427e-11
6.21513e-11
6.08703e-11
5.9586e-11
5.82983e-11
5.70088e-11
5.57217e-11
5.44424e-11
6.4647e-11
6.33896e-11
6.21259e-11
6.08544e-11
5.9577e-11
5.82966e-11
5.70146e-11
5.57292e-11
5.4443e-11
5.31668e-11
6.3344e-11
6.20885e-11
6.08276e-11
5.95596e-11
5.82855e-11
5.70073e-11
5.57275e-11
5.44451e-11
5.31604e-11
5.18864e-11
6.20463e-11
6.07921e-11
5.95334e-11
5.82682e-11
5.69972e-11
5.57213e-11
5.44421e-11
5.31597e-11
5.18746e-11
5.0599e-11
6.07533e-11
5.94984e-11
5.82418e-11
5.69801e-11
5.57135e-11
5.44424e-11
5.31668e-11
5.18861e-11
5.05986e-11
4.93139e-11
7.23677e-11
7.10841e-11
6.9785e-11
6.84828e-11
6.7181e-11
6.58805e-11
6.45825e-11
6.3288e-11
6.19978e-11
6.07111e-11
7.10828e-11
6.98078e-11
6.85175e-11
6.72198e-11
6.59205e-11
6.46222e-11
6.33261e-11
6.20332e-11
6.0744e-11
5.94567e-11
6.97838e-11
6.85162e-11
6.72364e-11
6.59469e-11
6.46524e-11
6.33576e-11
6.20645e-11
6.07738e-11
5.94863e-11
5.82007e-11
6.84825e-11
6.72188e-11
6.59458e-11
6.46646e-11
6.3377e-11
6.20864e-11
6.07963e-11
5.95083e-11
5.8223e-11
5.69403e-11
6.7181e-11
6.59203e-11
6.46515e-11
6.3376e-11
6.20952e-11
6.08104e-11
5.95237e-11
5.82378e-11
5.69547e-11
5.56756e-11
6.58806e-11
6.46223e-11
6.33574e-11
6.20856e-11
6.08094e-11
5.95304e-11
5.82484e-11
5.69646e-11
5.56826e-11
5.44071e-11
6.45826e-11
6.33262e-11
6.20645e-11
6.07962e-11
5.95228e-11
5.82469e-11
5.69695e-11
5.5689e-11
5.44076e-11
5.31346e-11
6.32881e-11
6.20333e-11
6.07739e-11
5.95084e-11
5.82376e-11
5.69633e-11
5.56875e-11
5.44094e-11
5.31291e-11
5.18578e-11
6.19979e-11
6.07441e-11
5.94864e-11
5.82231e-11
5.69549e-11
5.56824e-11
5.44068e-11
5.31284e-11
5.18476e-11
5.05751e-11
6.07112e-11
5.94568e-11
5.82008e-11
5.69404e-11
5.56758e-11
5.44072e-11
5.31346e-11
5.18576e-11
5.05747e-11
4.92946e-11
7.2266e-11
7.09874e-11
6.96956e-11
6.84013e-11
6.71073e-11
6.58144e-11
6.45234e-11
6.32352e-11
6.19504e-11
6.06683e-11
7.09862e-11
6.97148e-11
6.84306e-11
6.714e-11
6.58481e-11
6.45571e-11
6.32677e-11
6.19807e-11
6.06967e-11
5.94142e-11
6.96946e-11
6.84295e-11
6.71541e-11
6.58704e-11
6.45825e-11
6.32943e-11
6.20074e-11
6.07223e-11
5.94398e-11
5.81587e-11
6.84011e-11
6.71392e-11
6.58695e-11
6.45929e-11
6.33108e-11
6.2026e-11
6.07416e-11
5.94587e-11
5.8178e-11
5.68994e-11
6.71073e-11
6.5848e-11
6.45818e-11
6.33099e-11
6.20336e-11
6.07537e-11
5.9472e-11
5.81908e-11
5.69119e-11
5.56365e-11
6.58145e-11
6.45571e-11
6.32942e-11
6.20254e-11
6.07528e-11
5.94777e-11
5.82e-11
5.69206e-11
5.56426e-11
5.43702e-11
6.45235e-11
6.32677e-11
6.20075e-11
6.07415e-11
5.94712e-11
5.81988e-11
5.69248e-11
5.56482e-11
5.43707e-11
5.31006e-11
6.32353e-11
6.19808e-11
6.07224e-11
5.94588e-11
5.81907e-11
5.69195e-11
5.5647e-11
5.43724e-11
5.30959e-11
5.18274e-11
6.19505e-11
6.06968e-11
5.94399e-11
5.81781e-11
5.69121e-11
5.56424e-11
5.437e-11
5.30954e-11
5.18188e-11
5.05498e-11
6.06684e-11
5.94143e-11
5.81588e-11
5.68995e-11
5.56366e-11
5.43702e-11
5.31006e-11
5.18272e-11
5.05494e-11
4.92746e-11
7.21773e-11
7.09028e-11
6.96172e-11
6.83294e-11
6.70417e-11
6.57549e-11
6.44695e-11
6.31863e-11
6.19058e-11
6.06276e-11
7.09018e-11
6.96334e-11
6.83541e-11
6.70695e-11
6.57836e-11
6.44982e-11
6.32142e-11
6.1932e-11
6.06522e-11
5.93737e-11
6.96163e-11
6.83532e-11
6.70813e-11
6.58025e-11
6.45199e-11
6.3237e-11
6.1955e-11
6.06744e-11
5.93959e-11
5.81187e-11
6.83292e-11
6.70687e-11
6.58017e-11
6.45287e-11
6.3251e-11
6.1971e-11
6.06912e-11
5.94124e-11
5.81355e-11
5.68605e-11
6.70417e-11
6.57834e-11
6.45193e-11
6.32503e-11
6.19775e-11
6.07015e-11
5.9424e-11
5.81468e-11
5.68714e-11
5.55991e-11
6.57549e-11
6.44983e-11
6.32369e-11
6.19705e-11
6.07008e-11
5.94289e-11
5.81547e-11
5.6879e-11
5.56044e-11
5.43349e-11
6.44696e-11
6.32142e-11
6.19551e-11
6.06911e-11
5.94234e-11
5.81537e-11
5.68827e-11
5.56095e-11
5.43355e-11
5.3068e-11
6.31864e-11
6.19321e-11
6.06745e-11
5.94125e-11
5.81467e-11
5.68781e-11
5.56085e-11
5.43371e-11
5.30642e-11
5.17984e-11
6.19059e-11
6.06524e-11
5.9396e-11
5.81356e-11
5.68715e-11
5.56043e-11
5.43349e-11
5.30637e-11
5.17911e-11
5.05255e-11
6.06277e-11
5.93738e-11
5.81188e-11
5.68606e-11
5.55992e-11
5.4335e-11
5.3068e-11
5.17982e-11
5.05252e-11
4.92554e-11
7.20998e-11
7.08288e-11
6.95485e-11
6.82661e-11
6.69838e-11
6.57021e-11
6.44216e-11
6.31428e-11
6.18662e-11
6.05916e-11
7.0828e-11
6.95621e-11
6.8287e-11
6.70073e-11
6.57265e-11
6.44461e-11
6.31666e-11
6.18887e-11
6.06127e-11
5.93379e-11
6.95477e-11
6.82862e-11
6.70174e-11
6.57425e-11
6.44646e-11
6.31861e-11
6.19084e-11
6.06318e-11
5.9357e-11
5.80834e-11
6.82659e-11
6.70067e-11
6.57419e-11
6.4472e-11
6.31981e-11
6.19222e-11
6.06463e-11
5.93713e-11
5.80978e-11
5.68261e-11
6.69838e-11
6.57264e-11
6.44641e-11
6.31975e-11
6.19277e-11
6.06552e-11
5.93812e-11
5.81076e-11