/*--------------------------------*- C++ -*----------------------------------*\
| =========                 |                                                 |
| \\      /  F ield         | foam-extend: Open Source CFD                    |
|  \\    /   O peration     | Version:     3.1                                |
|   \\  /    A nd           | Web:         http://www.extend-project.de       |
|    \\/     M anipulation  |                                                 |
\*---------------------------------------------------------------------------*/
FoamFile
{
    version     2.0;
    format      ascii;
    class       volVectorField;
    location    "1.6";
    object      D;
}
// * * * * * * * * * * * * * * * * * * * * * * * * * * * * * * * * * * * * * //

dimensions      [0 1 0 0 0 0 0];

internalField   nonuniform List<vector> 
256
(
(0.000236614 0.000136216 0.000216325)
(0.000118597 2.48989e-05 6.94203e-05)
(0.000103609 -3.67006e-05 -6.65361e-05)
(0.000186775 -0.000143471 -0.000218311)
(0.0009339 0.000561786 0.000121938)
(0.000775691 0.000154833 5.27881e-05)
(0.000739318 -0.00015661 -8.3176e-05)
(0.000819663 -0.000553108 -0.000176552)
(0.0017744 0.000869398 2.69109e-05)
(0.00161278 0.000267657 1.91545e-06)
(0.00156571 -0.000251726 -7.12426e-05)
(0.00163045 -0.000849763 -0.000120744)
(0.00274986 0.00111342 -8.26613e-05)
(0.00260161 0.00035583 -4.59985e-05)
(0.00254887 -0.000329933 -5.55894e-05)
(0.00258841 -0.00108753 -4.45573e-05)
(0.00381572 0.00128738 -0.000184228)
(0.00368069 0.000417165 -8.94339e-05)
(0.00362503 -0.000391168 -3.72819e-05)
(0.0036442 -0.00126215 3.22134e-05)
(0.00493161 0.00140497 -0.000271722)
(0.00480912 0.000455693 -0.000126679)
(0.00475263 -0.000439132 -2.03928e-05)
(0.00475646 -0.00138656 0.000101947)
(0.0060667 0.00147882 -0.000341292)
(0.00595276 0.000475514 -0.000159718)
(0.00589621 -0.000476848 -8.54232e-06)
(0.00589221 -0.00147181 0.000157323)
(0.00720933 0.00151996 -0.00039516)
(0.00708805 0.000483227 -0.000191308)
(0.00702725 -0.000506367 -4.8919e-06)
(0.00702702 -0.0015293 0.000188521)
(0.000245781 0.000136222 9.40638e-05)
(0.000126497 2.73646e-05 3.28219e-05)
(0.000110641 -3.4721e-05 -3.51048e-05)
(0.000189788 -0.000137392 -0.000102604)
(0.000937172 0.000562915 4.79945e-05)
(0.000762363 0.000161553 1.88281e-05)
(0.000725531 -0.000150349 -4.95725e-05)
(0.000819007 -0.000542012 -9.41608e-05)
(0.00173524 0.000884607 -1.97144e-05)
(0.00157582 0.000281721 -1.62463e-05)
(0.00152892 -0.000247189 -4.63331e-05)
(0.0015893 -0.000846672 -5.83479e-05)
(0.00266575 0.00113199 -0.000100871)
(0.00252124 0.000372916 -5.31322e-05)
(0.00246894 -0.000322852 -3.70511e-05)
(0.00250251 -0.00108192 -5.22232e-06)
(0.00368527 0.00130776 -0.000179889)
(0.00355599 0.000436351 -8.76636e-05)
(0.00350077 -0.000380594 -2.497e-05)
(0.00351192 -0.00125196 5.1824e-05)
(0.0047585 0.00142477 -0.000249661)
(0.00464257 0.000475798 -0.000118203)
(0.00458652 -0.000423748 -1.3702e-05)
(0.00458145 -0.00136892 0.00010434)
(0.00585623 0.00149598 -0.000306135)
(0.00575051 0.000495208 -0.0001454)
(0.00569484 -0.000455542 -7.31632e-06)
(0.00568069 -0.0014442 0.000144507)
(0.00696945 0.00153286 -0.000347429)
(0.00685711 0.000501069 -0.000169927)
(0.00679791 -0.000478785 -1.08599e-05)
(0.00678825 -0.00149061 0.000160691)
(0.000245964 0.0001377 3.35703e-05)
(0.000118946 2.92436e-05 1.21595e-05)
(0.000100789 -3.47133e-05 -1.70356e-05)
(0.000182471 -0.00013736 -4.20328e-05)
(0.000921952 0.000552125 1.89268e-06)
(0.000732755 0.000162058 -1.75866e-06)
(0.000692284 -0.000142638 -2.69037e-05)
(0.000792833 -0.000523939 -3.91431e-05)
(0.00169157 0.000872988 -4.7711e-05)
(0.00152099 0.000285035 -2.72384e-05)
(0.0014703 -0.000234876 -2.69718e-05)
(0.00153477 -0.000820285 -1.43078e-05)
(0.0025886 0.00112181 -0.000107147)
(0.00243599 0.000379323 -5.50482e-05)
(0.00238004 -0.00030581 -2.1957e-05)
(0.00241485 -0.00104842 2.26414e-05)
(0.00357405 0.00130115 -0.000166703)
(0.00343867 0.000446214 -8.17906e-05)
(0.00337996 -0.000359067 -1.46006e-05)
(0.00339061 -0.00121297 6.34575e-05)
(0.00461481 0.00142243 -0.000220707)
(0.00449453 0.000488992 -0.000106182)
(0.00443531 -0.000397789 -7.91322e-06)
(0.00442834 -0.00132486 0.00010128)
(0.00568335 0.0014981 -0.000265283)
(0.00557523 0.000511197 -0.000128349)
(0.00551686 -0.000425231 -5.86393e-06)
(0.00549936 -0.00139514 0.000128686)
(0.0067729 0.00153948 -0.000296791)
(0.0066599 0.000519285 -0.000148268)
(0.0065978 -0.000444461 -1.3983e-05)
(0.00658236 -0.00143678 0.00013369)
(0.000241259 0.000137428 5.17769e-06)
(0.000109877 2.98999e-05 2.05998e-06)
(8.99343e-05 -3.42703e-05 -6.97468e-06)
(0.000172368 -0.000135636 -1.1583e-05)
(0.000898383 0.000541327 -2.06108e-05)
(0.000701013 0.000161423 -1.09217e-05)
(0.000657279 -0.000135311 -1.30201e-05)
(0.000760182 -0.000505945 -8.02481e-06)
(0.00164418 0.000858004 -5.82751e-05)
(0.0014654 0.000285686 -3.00096e-05)
(0.00141125 -0.000221542 -1.38875e-05)
(0.00147815 -0.000791172 1.06811e-05)
(0.00251524 0.0011068 -0.000102097)
(0.00235566 0.000382607 -5.08413e-05)
(0.00229641 -0.000287078 -1.12036e-05)
(0.00233278 -0.00101104 3.69378e-05)
(0.00347475 0.00128893 -0.000146542)
(0.00333368 0.000452933 -7.12577e-05)
(0.00327192 -0.000335533 -6.89944e-06)
(0.00328332 -0.00116958 6.59227e-05)
(0.0044908 0.00141446 -0.000187694)
(0.00436614 0.000499417 -9.042e-05)
(0.0043042 -0.000369996 -3.3645e-06)
(0.00429714 -0.00127681 9.25754e-05)
(0.00553673 0.00149486 -0.000222356)
(0.0054256 0.000525089 -0.000108316)
(0.00536478 -0.000393709 -4.01818e-06)
(0.00534616 -0.00134325 0.000110615)
(0.00660698 0.00154074 -0.000246414)
(0.00649171 0.000536278 -0.000124572)
(0.00642656 -0.000409766 -1.37813e-05)
(0.00640825 -0.00138165 0.000109415)
(0.00023572 0.000136246 -6.22488e-06)
(0.000102265 3.01206e-05 -2.0454e-06)
(8.11124e-05 -3.36481e-05 -1.79321e-06)
(0.000163086 -0.000133158 2.02219e-06)
(0.000874781 0.000532365 -2.73778e-05)
(0.000673053 0.000160929 -1.30595e-05)
(0.00062696 -0.000129008 -5.10749e-06)
(0.000730011 -0.000490302 6.67429e-06)
(0.00160056 0.000845402 -5.57383e-05)
(0.00141668 0.000286127 -2.72138e-05)
(0.00136004 -0.000209704 -5.89713e-06)
(0.00142786 -0.000765794 2.09828e-05)
(0.00245104 0.0010938 -8.76615e-05)
(0.00228664 0.000385193 -4.24913e-05)
(0.00222506 -0.000270263 -4.43589e-06)
(0.00226243 -0.000978166 3.96658e-05)
(0.00339056 0.0012779 -0.000120151)
(0.00324529 0.000458422 -5.76568e-05)
(0.00318146 -0.000314345 -2.00596e-06)
(0.00319366 -0.00113112 5.99679e-05)
(0.0043877 0.00140669 -0.000150676)
(0.00425963 0.000508074 -7.22325e-05)
(0.0041959 -0.000345045 -4.04647e-07)
(0.00418927 -0.00123413 7.83074e-05)
(0.00541603 0.00149072 -0.000176798)
(0.00530237 0.00053671 -8.61606e-05)
(0.00523992 -0.000365604 -2.31388e-06)
(0.00522112 -0.00129722 8.98153e-05)
(0.00647031 0.00153988 -0.000194654)
(0.00635303 0.000550507 -9.88992e-05)
(0.00628576 -0.00037904 -1.16067e-05)
(0.00626609 -0.00133291 8.59929e-05)
(0.000231002 0.000134955 -8.71388e-06)
(9.66782e-05 3.01827e-05 -2.95796e-06)
(7.47291e-05 -3.30411e-05 4.12062e-07)
(0.000155835 -0.000130798 6.26041e-06)
(0.000855263 0.000525643 -2.4652e-05)
(0.000651342 0.000160708 -1.12587e-05)
(0.000603668 -0.000124067 -1.17095e-06)
(0.000706041 -0.000478054 1.08823e-05)
(0.00156538 0.000836133 -4.4678e-05)
(0.00137853 0.000286707 -2.11198e-05)
(0.00132023 -0.000200359 -1.67916e-06)
(0.00138822 -0.000746077 2.12021e-05)
(0.0024002 0.00108424 -6.66421e-05)
(0.00223276 0.000387448 -3.16517e-05)
(0.00216967 -0.000256936 -8.8277e-07)
(0.00220757 -0.000952585 3.38754e-05)
(0.0033248 0.00126971 -8.90057e-05)
(0.00317673 0.000462895 -4.21984e-05)
(0.00311161 -0.000297526 4.20908e-07)
(0.00312441 -0.00110108 4.73907e-05)
(0.0043079 0.00140075 -0.000110218)
(0.00417748 0.000514931 -5.25124e-05)
(0.00411267 -0.000325246 9.85092e-07)
(0.00410653 -0.00120065 5.93622e-05)
(0.005323 0.00148722 -0.000128568)
(0.00520752 0.000545759 -6.25259e-05)
(0.00514412 -0.00034335 -1.08714e-06)
(0.00512548 -0.00126102 6.63613e-05)
(0.00636484 0.00153849 -0.000140977)
(0.00624603 0.00056146 -7.17115e-05)
(0.00617749 -0.000354757 -8.52049e-06)
(0.00615734 -0.00129451 6.22933e-05)
(0.000227715 0.000133939 -6.6363e-06)
(9.30809e-05 3.01906e-05 -2.25874e-06)
(7.06426e-05 -3.25756e-05 8.59503e-07)
(0.000150958 -0.00012903 5.41192e-06)
(0.000841688 0.000521181 -1.65618e-05)
(0.000636736 0.000160651 -7.39217e-06)
(0.000588091 -0.000120683 2.32764e-07)
(0.000689697 -0.000469698 8.75822e-06)
(0.00154106 0.00083011 -2.85426e-05)
(0.0013526 0.000287257 -1.32357e-05)
(0.0012933 -0.000193955 -2.36861e-08)
(0.00136117 -0.00073271 1.50398e-05)
(0.00236527 0.00107808 -4.14674e-05)
(0.00219606 0.00038916 -1.9434e-05)
(0.00213209 -0.000247797 3.76069e-07)
(0.00217021 -0.000935257 2.24382e-05)
(0.00327984 0.00126443 -5.46246e-05)
(0.00313009 0.000466099 -2.56764e-05)
(0.00306422 -0.000285989 1.00107e-06)
(0.0030774 -0.0010807 3.0211e-05)
(0.00425354 0.00139687 -6.71761e-05)
(0.00412166 0.000519705 -3.18487e-05)
(0.00405624 -0.000311672 1.11976e-06)
(0.00405047 -0.00117789 3.69895e-05)
(0.0052597 0.00148479 -7.8105e-05)
(0.00514308 0.000551955 -3.78976e-05)
(0.00507915 -0.000328105 -3.91304e-07)
(0.00506074 -0.00123636 4.07436e-05)
(0.00629298 0.00153728 -8.54428e-05)
(0.00617317 0.00056888 -4.34472e-05)
(0.00610395 -0.000338132 -5.13611e-06)
(0.00608371 -0.00126829 3.78281e-05)
(0.000226042 0.000133391 -2.41957e-06)
(9.13273e-05 3.01866e-05 -8.2305e-07)
(6.86559e-05 -3.23258e-05 3.82507e-07)
(0.00014852 -0.000128096 2.05531e-06)
(0.000834775 0.000518958 -5.78944e-06)
(0.000629427 0.000160649 -2.55734e-06)
(0.00058032 -0.000118967 2.28234e-07)
(0.000681457 -0.000465471 3.27003e-06)
(0.00152869 0.000827149 -9.78184e-06)
(0.00133953 0.000287584 -4.49518e-06)
(0.00127976 -0.000190709 1.53052e-07)
(0.0013475 -0.000725974 5.38292e-06)
(0.00234752 0.00107508 -1.40553e-05)
(0.00217752 0.000390084 -6.54405e-06)
(0.00211313 -0.000243164 2.75111e-07)
(0.00215133 -0.000926533 7.82037e-06)
(0.00325704 0.00126186 -1.84049e-05)
(0.00310651 0.000467772 -8.61346e-06)
(0.0030403 -0.000280142 4.58692e-07)
(0.00305365 -0.00107044 1.03607e-05)
(0.00422599 0.00139496 -2.25656e-05)
(0.00409343 0.000522156 -1.06705e-05)
(0.00402775 -0.000304794 4.62963e-07)
(0.00402217 -0.00116642 1.25575e-05)
(0.00522762 0.00148354 -2.61999e-05)
(0.00511047 0.000555105 -1.26948e-05)
(0.00504632 -0.000320381 -8.34714e-08)
(0.00502807 -0.00122391 1.37393e-05)
(0.00625652 0.00153654 -2.86314e-05)
(0.00613626 0.000572637 -1.45508e-05)
(0.00606674 -0.000329702 -1.70913e-06)
(0.00604651 -0.00125504 1.26943e-05)
)
;

boundaryField
{
    interface
    {
        type            tractionDisplacement;
        gradient        nonuniform List<vector> 
192
(
(0.0199611 0.0295203 -0.000551566)
(0.00955614 0.027969 -0.00152763)
(0.0108 0.0355195 -0.00356097)
(0.00912377 0.0396361 -0.00583871)
(0.00802176 0.0427883 -0.00791663)
(0.00698392 0.0445788 -0.00974441)
(0.00647412 0.0456134 -0.0111797)
(0.00603659 0.0472639 -0.0119874)
(0.0202736 0.0297868 -0.00036341)
(0.0110335 0.0267557 -0.00101757)
(0.0110282 0.033546 -0.00241771)
(0.00955191 0.0377885 -0.00407789)
(0.00837607 0.0410337 -0.00566202)
(0.00737829 0.043094 -0.00712402)
(0.0068422 0.0444786 -0.00836352)
(0.00632702 0.0467231 -0.00921667)
(0.0205405 0.0297668 -0.00048764)
(0.0114272 0.0258961 -0.00127465)
(0.0113193 0.0321705 -0.00231399)
(0.00971961 0.0363986 -0.00350984)
(0.00843343 0.0396847 -0.00471605)
(0.00736661 0.041895 -0.00584443)
(0.00678645 0.0434846 -0.00683652)
(0.00613541 0.0460832 -0.00759207)
(0.0205619 0.02938 -0.000490891)
(0.0117152 0.0251519 -0.00127299)
(0.0116487 0.0311804 -0.00211449)
(0.0100124 0.0353385 -0.00302632)
(0.00866014 0.038655 -0.0039373)
(0.00753154 0.0409552 -0.00479929)
(0.00689952 0.0426723 -0.005581)
(0.00616552 0.0454741 -0.00622598)
(0.0204298 0.0288884 -0.000423462)
(0.0118715 0.0245172 -0.00110397)
(0.0118717 0.030414 -0.00177516)
(0.010248 0.0345401 -0.00247277)
(0.00887115 0.0378792 -0.00315684)
(0.00770496 0.040235 -0.00380594)
(0.00703553 0.042025 -0.00440991)
(0.00623415 0.0449376 -0.00493754)
(0.0202592 0.02844 -0.000317243)
(0.0119447 0.0240146 -0.000832698)
(0.0120059 0.029836 -0.0013243)
(0.0104106 0.033954 -0.00182511)
(0.0090307 0.0373133 -0.00230984)
(0.00784667 0.039704 -0.00277006)
(0.0071548 0.041533 -0.0032044)
(0.00631407 0.0445049 -0.00359517)
(0.0201168 0.0281124 -0.000194042)
(0.0119724 0.0236675 -0.000512411)
(0.0120771 0.0294455 -0.000812484)
(0.0105074 0.0335642 -0.00111579)
(0.00913178 0.0369388 -0.00140746)
(0.00794059 0.0393505 -0.00168455)
(0.00723644 0.0412 -0.00194776)
(0.00637339 0.0442023 -0.0021882)
(0.0200378 0.0279418 -6.49767e-05)
(0.0119795 0.0234909 -0.00017234)
(0.0121062 0.0292483 -0.000273186)
(0.010551 0.0333687 -0.000374915)
(0.0091792 0.0367516 -0.000472496)
(0.00798586 0.0391736 -0.000565278)
(0.00727543 0.0410323 -0.000653538)
(0.00640173 0.0440443 -0.000734653)
(-0.000297484 0.00770622 0.0101314)
(0.000215506 -0.00481141 0.00110666)
(0.00296176 -0.00394996 0.00207202)
(0.0053882 -0.00449242 0.000685512)
(0.00782557 -0.00404809 -3.07892e-05)
(0.00990904 -0.00344218 -0.000705446)
(0.0115352 -0.00278524 -0.0010656)
(0.0127243 -0.00163554 -0.00173287)
(-0.00265236 0.00321559 0.00221716)
(-0.00394734 -0.00189035 0.000300524)
(-0.00100637 -0.00162915 8.09937e-05)
(0.00165672 -0.00181971 -0.000391819)
(0.00432744 -0.00171239 -0.000665094)
(0.00663521 -0.00159214 -0.000885757)
(0.00855807 -0.00153079 -0.00103333)
(0.0101325 -0.00119288 -0.00146868)
(-0.00293047 -0.00360452 -0.0022984)
(-0.00440293 0.000960523 -0.000589255)
(-0.00159659 0.000728973 -0.000724062)
(0.00107919 0.000907166 -0.000518677)
(0.00374313 0.000719656 -0.000376997)
(0.00609442 0.000422645 -0.000212579)
(0.00811682 1.77813e-05 -5.4915e-05)
(0.00971306 -0.00051084 0.000358421)
(-0.00135796 -0.00906548 -0.00946467)
(-0.00129588 0.00334024 -0.00160523)
(0.00099929 0.00282691 -0.00266746)
(0.003313 0.00339271 -0.00154927)
(0.00567119 0.00297675 -0.000941962)
(0.00780037 0.00236417 -0.000319122)
(0.0096195 0.00151294 0.00015074)
(0.0109686 2.20282e-05 0.000886809)
(0.0156842 -0.0263755 -0.000250998)
(0.00642048 -0.0269745 1.55935e-05)
(0.00639997 -0.0353963 0.00158514)
(0.00419654 -0.0399208 0.00368626)
(0.00268658 -0.0431875 0.00574764)
(0.00146422 -0.0449117 0.00770722)
(0.0008168 -0.0456137 0.00943086)
(0.000706264 -0.0457924 0.010729)
(0.0153711 -0.0267355 4.17528e-05)
(0.0074621 -0.0261948 0.000615262)
(0.00624657 -0.0335745 0.00187733)
(0.00417438 -0.0381094 0.00348747)
(0.00258766 -0.0413539 0.00509416)
(0.00138022 -0.0432239 0.00664207)
(0.000692145 -0.0441459 0.00803355)
(0.000667685 -0.0447326 0.00926565)
(0.0153898 -0.0263008 0.00029814)
(0.00779567 -0.0253813 0.00112694)
(0.00651901 -0.0322325 0.00215992)
(0.0043526 -0.0367115 0.00335417)
(0.00266606 -0.0399422 0.00458301)
(0.00137832 -0.0418987 0.00577121)
(0.000616318 -0.0429408 0.00688712)
(0.000445108 -0.0436337 0.00794508)
(0.0152162 -0.0254849 0.000379429)
(0.00800917 -0.0245707 0.00123128)
(0.00676133 -0.0312244 0.0021094)
(0.00457324 -0.0356382 0.0030423)
(0.00282948 -0.0388709 0.00397654)
(0.00147967 -0.0408717 0.00488227)
(0.000648245 -0.0419593 0.00575141)
(0.000389856 -0.0426743 0.0066028)
(0.0149435 -0.0246334 0.000356496)
(0.00810726 -0.0238507 0.00109759)
(0.00690794 -0.0304177 0.00180837)
(0.00473827 -0.0348179 0.00253015)
(0.00297493 -0.0380616 0.0032345)
(0.00158738 -0.0400884 0.00391394)
(0.000706187 -0.0411912 0.00457245)
(0.00039038 -0.0418952 0.0052329)
(0.0146754 -0.0239169 0.000278919)
(0.00813602 -0.0232764 0.000838835)
(0.00698308 -0.0298003 0.00136118)
(0.00484323 -0.0342093 0.00188131)
(0.00307919 -0.0374693 0.00238107)
(0.00167375 -0.039514 0.00286034)
(0.000763494 -0.0406206 0.00332598)
(0.000419947 -0.0413057 0.00379772)
(0.0144717 -0.0234135 0.000174934)
(0.00813427 -0.0228803 0.000520191)
(0.00701575 -0.0293808 0.000838911)
(0.00490211 -0.0338022 0.00115401)
(0.00314353 -0.0370767 0.00145456)
(0.0017314 -0.0391337 0.00174174)
(0.000806551 -0.0402414 0.00202106)
(0.000450532 -0.0409109 0.0023044)
(0.0143634 -0.023156 5.93565e-05)
(0.00812729 -0.0226791 0.000175702)
(0.00702671 -0.0291687 0.000282732)
(0.00492777 -0.0335976 0.00038834)
(0.00317354 -0.0368802 0.000488802)
(0.0017597 -0.0389435 0.000584654)
(0.000829466 -0.0400521 0.000678004)
(0.000468289 -0.0407134 0.000772428)
(0.0474861 0.00123728 -0.000840613)
(0.0469759 0.000999919 -0.000236776)
(0.0464452 0.00127723 -0.000107631)
(0.0458889 0.00144313 4.63248e-05)
(0.0453662 0.00158072 9.87043e-05)
(0.0449373 0.00166783 9.99665e-05)
(0.0446347 0.00171905 6.91434e-05)
(0.0444768 0.00173861 2.4326e-05)
(0.0432479 0.00107843 -0.000525477)
(0.0426688 0.000946259 -0.000418745)
(0.0420535 0.00105736 -0.000458006)
(0.0414251 0.00118698 -0.000399446)
(0.0408237 0.0013064 -0.000321413)
(0.0403284 0.00139537 -0.000232331)
(0.0399816 0.00145371 -0.000140029)
(0.0398057 0.00148332 -4.66265e-05)
(0.0425595 -0.00116427 -0.000335055)
(0.0419172 -0.000838949 -0.000833085)
(0.041146 -0.000729347 -0.00100357)
(0.0404007 -0.000623859 -0.000996814)
(0.0397286 -0.000531702 -0.000854051)
(0.0391896 -0.000456762 -0.000641239)
(0.0388174 -0.000404054 -0.000393915)
(0.0386283 -0.000375888 -0.000132421)
(0.0450459 -0.00185253 -0.000300968)
(0.0441942 -0.00133973 -0.00148319)
(0.043227 -0.0013185 -0.00175377)
(0.0423411 -0.00125623 -0.00171916)
(0.0415902 -0.00119634 -0.00146103)
(0.0410105 -0.00113415 -0.0010934)
(0.0406177 -0.00108561 -0.00067102)
(0.0404183 -0.00105917 -0.000225685)
)
;
        traction        nonuniform List<vector> 
192
(
(24.2192 -0.633495 -2.56484)
(24.3155 -0.567646 -4.26964)
(24.1168 -0.614549 -4.91168)
(24.0519 -0.444433 -5.16259)
(24.1753 -0.111837 -5.21338)
(24.5099 0.470523 -5.09109)
(24.9312 1.557 -4.73492)
(23.8535 3.28043 -3.93378)
(26.8731 -0.895137 -1.7431)
(27.3502 -0.815042 -2.94803)
(27.7913 -0.845849 -3.38237)
(28.1557 -0.611953 -3.52199)
(28.4239 -0.163985 -3.50271)
(28.5755 0.60479 -3.344)
(28.2234 2.01328 -3.01495)
(24.8026 4.05826 -2.42009)
(28.338 -0.965586 -1.17145)
(28.6967 -0.856932 -1.98796)
(29.1614 -0.875161 -2.24603)
(29.5472 -0.604386 -2.29592)
(29.7448 -0.0807791 -2.23951)
(29.675 0.807462 -2.09585)
(28.8202 2.39383 -1.8595)
(24.3078 4.53861 -1.48742)
(29.2757 -0.970988 -0.809737)
(29.5073 -0.837152 -1.38705)
(29.897 -0.843084 -1.5546)
(30.2383 -0.545983 -1.5663)
(30.3331 0.0281386 -1.50594)
(30.0858 0.991588 -1.39071)
(28.915 2.68225 -1.22697)
(23.7715 4.86194 -0.983809)
(29.8952 -0.959214 -0.556876)
(30.0465 -0.804843 -0.964155)
(30.3727 -0.796305 -1.07726)
(30.6357 -0.479192 -1.07487)
(30.6531 0.126858 -1.02357)
(30.2807 1.13812 -0.937769)
(28.9062 2.89522 -0.826429)
(23.3426 5.0914 -0.663903)
(30.3 -0.944858 -0.364987)
(30.4013 -0.774757 -0.637286)
(30.6766 -0.753515 -0.711216)
(30.8823 -0.422163 -0.706104)
(30.8403 0.204941 -0.668067)
(30.3834 1.24623 -0.60896)
(28.8778 3.04633 -0.536178)
(23.0319 5.25105 -0.430662)
(30.5485 -0.93396 -0.205859)
(30.6259 -0.753411 -0.361772)
(30.8633 -0.722669 -0.403452)
(31.0312 -0.381928 -0.399338)
(30.9501 0.258208 -0.376271)
(30.4411 1.31789 -0.341531)
(28.8553 3.14436 -0.2981)
(22.837 5.35036 -0.235507)
(30.6599 -0.927488 -0.0658199)
(30.7284 -0.741541 -0.116182)
(30.9408 -0.705882 -0.129409)
(31.0884 -0.360839 -0.127851)
(30.9885 0.285723 -0.12017)
(30.4564 1.35622 -0.108672)
(28.8177 3.19763 -0.0933674)
(22.7074 5.39178 -0.071351)
(3.45598 0.724778 10.8142)
(6.02183 1.11654 6.70029)
(7.1552 1.01112 3.3054)
(7.7738 0.832286 1.20992)
(8.17779 0.759285 0.162317)
(8.50909 0.853902 -0.0273433)
(8.91685 1.15564 0.59601)
(9.83284 1.55865 2.01219)
(2.36047 0.630131 10.0489)
(4.38415 1.03124 8.19752)
(5.14848 1.00743 6.1394)
(5.47187 0.751467 4.74558)
(5.65716 0.494275 4.04392)
(5.84844 0.333784 3.92396)
(6.22009 0.318473 4.29371)
(7.39885 0.3555 4.81471)
(1.92777 0.490607 9.69189)
(3.88601 0.776753 8.95081)
(4.66619 0.809925 7.66063)
(4.95644 0.564987 6.69188)
(5.08089 0.265432 6.219)
(5.21127 0.015301 6.16598)
(5.53866 -0.145056 6.46259)
(6.72345 -0.245622 6.91712)
(1.86057 0.501041 9.06629)
(3.97301 0.672654 8.56163)
(4.86758 0.67758 7.3325)
(5.19182 0.398568 6.43094)
(5.3074 0.0710643 6.00326)
(5.41139 -0.2164 5.90127)
(5.69933 -0.476789 6.03148)
(6.82875 -0.792802 6.42129)
(-6.85978 0.678594 0.444426)
(-5.01353 0.958059 1.02483)
(-3.44418 0.92538 1.14013)
(-2.67525 0.615161 1.113)
(-2.40904 0.29729 1.13076)
(-2.15214 0.0557161 1.26609)
(-1.0434 -0.314518 1.59215)
(3.27521 -2.0437 2.14826)
(-9.27424 0.444182 -0.203594)
(-9.02505 0.634556 -0.0685334)
(-8.67061 0.718079 -0.0982275)
(-8.56254 0.625382 -0.170302)
(-8.53088 0.527156 -0.163613)
(-8.17547 0.495568 -0.033065)
(-6.64002 0.367372 0.242202)
(-0.873131 -1.37403 0.74987)
(-10.8133 0.317875 -0.272636)
(-11.0306 0.423049 -0.184204)
(-11.0775 0.559111 -0.148672)
(-11.1317 0.598914 -0.146439)
(-11.0633 0.647232 -0.0991104)
(-10.4858 0.755637 0.0271189)
(-8.54893 0.759082 0.231785)
(-2.3107 -0.910446 0.529919)
(-11.8899 0.27672 -0.210127)
(-12.2178 0.336554 -0.114006)
(-12.399 0.495529 -0.0379795)
(-12.4906 0.613015 0.00403799)
(-12.33 0.757338 0.0652824)
(-11.5187 0.956407 0.169953)
(-9.19806 1.01388 0.311055)
(-2.82267 -0.627746 0.479565)
(-12.646 0.266548 -0.139152)
(-12.9984 0.311498 -0.0490666)
(-13.2181 0.4866 0.0316827)
(-13.2957 0.649815 0.0824584)
(-13.0459 0.851497 0.137278)
(-12.0655 1.10267 0.211497)
(-9.50806 1.18724 0.297751)
(-3.02822 -0.448162 0.397924)
(-13.1494 0.266132 -0.0825889)
(-13.5002 0.310301 -0.0104)
(-13.7212 0.498106 0.0555565)
(-13.7712 0.687677 0.0985157)
(-13.4526 0.921329 0.13907)
(-12.3618 1.20037 0.186691)
(-9.66566 1.29883 0.236146)
(-3.10798 -0.336599 0.293474)
(-13.4547 0.267883 -0.0425638)
(-13.7999 0.31528 0.0033144)
(-14.013 0.511875 0.0448642)
(-14.0394 0.715889 0.0722277)
(-13.6756 0.966389 0.0964263)
(-12.5178 1.25973 0.122978)
(-9.74005 1.36389 0.14907)
(-3.13234 -0.27327 0.175544)
(-13.5984 0.2688 -0.0131591)
(-13.9406 0.318451 0.00233577)
(-14.1492 0.51955 0.0162284)
(-14.1636 0.730217 0.025418)
(-13.7777 0.988334 0.0333443)
(-12.5882 1.28842 0.0419308)
(-9.76488 1.39167 0.0503734)
(-3.14801 -0.247263 0.0567748)
(10.1246 -1.03902 -1.45749)
(9.50515 1.40473 -1.09112)
(9.48567 3.38255 -0.737114)
(9.60279 4.96911 -0.497488)
(9.73493 6.1766 -0.338851)
(9.8475 7.0467 -0.22619)
(9.92824 7.60001 -0.141678)
(9.96494 7.80012 -0.052486)
(7.30797 -4.17979 -0.0360709)
(6.12109 -3.07812 0.0286403)
(5.85606 -1.71198 0.136716)
(5.8149 -0.555831 0.160486)
(5.83197 0.334581 0.139678)
(5.8623 0.983646 0.10357)
(5.89366 1.41747 0.0627027)
(5.92204 1.66 0.0209214)
(6.46018 -6.57616 0.555561)
(5.21244 -5.74354 0.526032)
(4.86725 -4.75752 0.502195)
(4.75718 -3.92112 0.430656)
(4.72022 -3.27216 0.336524)
(4.70895 -2.79696 0.239629)
(4.70728 -2.48163 0.146154)
(4.70782 -2.309 0.0502796)
(6.54426 -6.30845 0.983185)
(5.37496 -5.60321 0.767967)
(5.03867 -5.04088 0.628242)
(4.92176 -4.524 0.512433)
(4.87277 -4.09979 0.395234)
(4.84929 -3.78156 0.279504)
(4.8365 -3.57063 0.167123)
(4.82429 -3.47039 0.0558554)
)
;
        pressure        uniform 0;
        value           nonuniform List<vector> 
192
(
(0.000486127 0.000505219 0.00020943)
(0.00105335 0.000911398 0.000102843)
(0.0019094 0.00131339 -1.76012e-05)
(0.00286391 0.00160887 -0.000155645)
(0.003916 0.00182223 -0.000283186)
(0.00501891 0.0019622 -0.000393527)
(0.00614762 0.00204899 -0.000481039)
(0.00728478 0.00211076 -0.000545003)
(0.000499201 0.000508557 8.95212e-05)
(0.00107509 0.000897361 3.52748e-05)
(0.00187309 0.00130393 -4.99358e-05)
(0.00278515 0.00160435 -0.000151844)
(0.00378997 0.00182068 -0.000250665)
(0.00485073 0.00196344 -0.000338711)
(0.00594176 0.00205196 -0.000410679)
(0.00704854 0.0021169 -0.000462638)
(0.000502721 0.000509785 2.74748e-05)
(0.00106479 0.000875826 -1.40404e-05)
(0.00183306 0.00127512 -7.6636e-05)
(0.00271009 0.00157679 -0.00015102)
(0.00367947 0.00179721 -0.000225654)
(0.00470689 0.00194612 -0.000293762)
(0.00576818 0.00204165 -0.00035074)
(0.00684959 0.00211552 -0.000391692)
(0.000498283 0.000504678 -9.58453e-07)
(0.00104482 0.000855725 -3.65231e-05)
(0.00178978 0.00124776 -8.47062e-05)
(0.00264039 0.00154853 -0.000139926)
(0.003583 0.00177212 -0.000195758)
(0.00458494 0.0019264 -0.000247685)
(0.00562297 0.00202827 -0.000292119)
(0.00668405 0.00210917 -0.000324238)
(0.000491093 0.000497352 -1.15182e-05)
(0.00102317 0.00083883 -4.11775e-05)
(0.00174896 0.00122558 -7.79277e-05)
(0.00257914 0.00152555 -0.000118571)
(0.00350145 0.00175139 -0.000159612)
(0.00448401 0.00190963 -0.00019825)
(0.00550397 0.00201604 -0.000231922)
(0.00654824 0.00210161 -0.000256373)
(0.000484242 0.000490455 -1.26794e-05)
(0.00100457 0.000825825 -3.50607e-05)
(0.00171546 0.00120908 -6.12317e-05)
(0.00253034 0.00150867 -8.94559e-05)
(0.00343768 0.00173612 -0.000117879)
(0.00440599 0.00189705 -0.000144844)
(0.00541244 0.00200638 -0.000168623)
(0.00644376 0.0020948 -0.000185917)
(0.000479176 0.000485345 -9.06183e-06)
(0.000991343 0.000817025 -2.29669e-05)
(0.00169203 0.00119818 -3.86986e-05)
(0.00249661 0.00149764 -5.54147e-05)
(0.00339399 0.00172617 -7.22178e-05)
(0.0043528 0.00188875 -8.82329e-05)
(0.00535016 0.00199979 -0.000102452)
(0.00637264 0.00208981 -0.000112795)
(0.000476514 0.000482664 -3.23177e-06)
(0.000984518 0.000812594 -7.94368e-06)
(0.00168002 0.00119275 -1.31967e-05)
(0.00247941 0.00149218 -1.87417e-05)
(0.00337178 0.00172125 -2.43111e-05)
(0.00432582 0.00188463 -2.96316e-05)
(0.00531857 0.00199644 -3.43691e-05)
(0.00633654 0.0020871 -3.78146e-05)
(0.000232895 0.000232543 0.000342968)
(0.000936594 0.000501643 0.000135772)
(0.00181142 0.000820024 5.28111e-05)
(0.00281721 0.00105726 -7.40924e-05)
(0.00391354 0.00123677 -0.000184613)
(0.00505547 0.00136194 -0.00028054)
(0.00621089 0.001444 -0.000354612)
(0.00736838 0.00149952 -0.000416821)
(8.54423e-05 6.50937e-05 9.71348e-05)
(0.000726349 0.000131204 5.65446e-05)
(0.0016002 0.000247293 2.92787e-06)
(0.00262232 0.000333083 -5.08962e-05)
(0.00373478 0.00039576 -9.77476e-05)
(0.00489206 0.000435791 -0.000137751)
(0.00605974 0.000456379 -0.000172635)
(0.00721471 0.000468316 -0.000209667)
(6.6978e-05 -8.17571e-05 -9.52661e-05)
(0.000684282 -0.000144603 -9.05417e-05)
(0.00154575 -0.000242614 -8.02934e-05)
(0.00256236 -0.000318593 -6.20728e-05)
(0.00367182 -0.000382172 -4.19943e-05)
(0.00482881 -0.000433849 -2.305e-05)
(0.00599767 -0.000476626 -9.22876e-06)
(0.00714866 -0.000512753 -4.11641e-07)
(0.000169801 -0.000256789 -0.000336619)
(0.000803465 -0.000511355 -0.000196617)
(0.00164294 -0.000814427 -0.000154087)
(0.00262982 -0.00104512 -6.39231e-05)
(0.00371509 -0.00122494 2.04389e-05)
(0.00485397 -0.001357 9.79584e-05)
(0.00601246 -0.0014529 0.000159207)
(0.00716413 -0.00152903 0.000199606)
(0.000382828 -0.000473165 -0.000221448)
(0.000899919 -0.00089029 -0.000176357)
(0.00171045 -0.00129222 -0.00010093)
(0.00264086 -0.00158654 1.52095e-06)
(0.00367778 -0.00180199 0.000104059)
(0.00477477 -0.00194795 0.000198288)
(0.00590242 -0.00204198 0.000275208)
(0.00703585 -0.00210171 0.000322634)
(0.000381927 -0.000471586 -0.000102082)
(0.000912284 -0.000869447 -8.647e-05)
(0.00166738 -0.00126635 -3.48813e-05)
(0.00255469 -0.00155829 3.83711e-05)
(0.00354427 -0.00176888 0.000115501)
(0.0045987 -0.00190922 0.000187366)
(0.00568934 -0.00199602 0.000244926)
(0.00679659 -0.00204977 0.000276511)
(0.000374843 -0.00046612 -3.8306e-05)
(0.000890279 -0.000841205 -2.50564e-05)
(0.00161626 -0.00122319 1.26913e-05)
(0.00246925 -0.00150731 6.45685e-05)
(0.00342393 -0.00171225 0.000120745)
(0.00444557 -0.00184859 0.00017342)
(0.00550706 -0.0019319 0.000214775)
(0.00658792 -0.0019822 0.000233004)
(0.000362571 -0.000454197 -6.84011e-06)
(0.000860296 -0.000813078 7.36614e-06)
(0.00156267 -0.00118148 3.70486e-05)
(0.00238995 -0.00145652 7.49666e-05)
(0.00331869 -0.00165546 0.000115629)
(0.00431564 -0.00178771 0.000153604)
(0.00535426 -0.00186775 0.000182507)
(0.00641312 -0.00191508 0.00019195)
(0.00034988 -0.000441076 6.47839e-06)
(0.000831352 -0.000788436 2.03942e-05)
(0.00151421 -0.00114602 4.35875e-05)
(0.00232166 -0.00141339 7.12927e-05)
(0.00323084 -0.00160689 0.000100399)
(0.00420911 -0.00173523 0.000127232)
(0.00522994 -0.00181211 0.000146971)
(0.00627097 -0.0018566 0.000151404)
(0.000339277 -0.000429759 9.7469e-06)
(0.000807742 -0.000769009 2.13677e-05)
(0.00147551 -0.00111858 3.82169e-05)
(0.00226811 -0.0013802 5.73917e-05)
(0.0031629 -0.00156944 7.7154e-05)
(0.00412745 -0.00169458 9.51164e-05)
(0.00513502 -0.00176878 0.000107936)
(0.00616259 -0.00181083 0.000109765)
(0.000331855 -0.000421699 7.5986e-06)
(0.000791375 -0.000755702 1.52606e-05)
(0.00144887 -0.00109997 2.55262e-05)
(0.00223149 -0.00135779 3.68633e-05)
(0.00311669 -0.00154416 4.83929e-05)
(0.00407211 -0.00166707 5.87612e-05)
(0.00507083 -0.00173937 6.60069e-05)
(0.00608934 -0.00177968 6.6633e-05)
(0.000328063 -0.000417546 2.79726e-06)
(0.000783048 -0.000748959 5.4663e-06)
(0.00143534 -0.00109058 8.91707e-06)
(0.00221293 -0.0013465 1.26746e-05)
(0.00309332 -0.00153144 1.64707e-05)
(0.00404417 -0.00165322 1.98657e-05)
(0.00503843 -0.00172456 2.22144e-05)
(0.00605237 -0.00176396 2.23496e-05)
(0.0078029 0.00153543 -0.000405667)
(0.00755665 0.00154536 -0.000350389)
(0.00735346 0.00155544 -0.000298136)
(0.0071806 0.00155878 -0.000245834)
(0.00703739 0.00155964 -0.00019342)
(0.00692655 0.00155934 -0.000139728)
(0.00685091 0.00155877 -8.45785e-05)
(0.00681248 0.00155828 -2.83273e-05)
(0.00762865 0.000496707 -0.000197877)
(0.00739047 0.000512897 -0.000175161)
(0.00718557 0.000532502 -0.000153993)
(0.00700953 0.000551115 -0.000129565)
(0.00686332 0.000566837 -0.000102917)
(0.00675013 0.000578902 -7.46157e-05)
(0.00667294 0.000587052 -4.51975e-05)
(0.00663383 0.000591178 -1.51336e-05)
(0.00755924 -0.00052092 -9.08008e-06)
(0.00732187 -0.000489272 -2.12734e-05)
(0.00711213 -0.000453578 -2.65277e-05)
(0.00693157 -0.000417565 -2.62415e-05)
(0.00678237 -0.000385686 -2.22824e-05)
(0.00666736 -0.000360467 -1.6536e-05)
(0.00658917 -0.000343182 -1.00601e-05)
(0.0065496 -0.000334401 -3.3644e-06)
(0.00759009 -0.00155246 0.000184759)
(0.00734067 -0.00150735 0.000142151)