/*--------------------------------*- C++ -*----------------------------------*\
| =========                 |                                                 |
| \\      /  F ield         | foam-extend: Open Source CFD                    |
|  \\    /   O peration     | Version:     3.1                                |
|   \\  /    A nd           | Web:         http://www.extend-project.de       |
|    \\/     M anipulation  |                                                 |
\*---------------------------------------------------------------------------*/
FoamFile
{
    version     2.0;
    format      ascii;
    class       volVectorField;
    location    "1.6";
    object      D_0;
}
// * * * * * * * * * * * * * * * * * * * * * * * * * * * * * * * * * * * * * //

dimensions      [0 1 0 0 0 0 0];

internalField   nonuniform List<vector> 
256
(
(0.00028574 0.00017318 0.000283326)
(0.000135087 3.28827e-05 8.88771e-05)
(0.000118459 -4.8179e-05 -9.28498e-05)
(0.000230936 -0.000186911 -0.000296961)
(0.00114973 0.000714217 0.000196229)
(0.000954269 0.000195039 7.95241e-05)
(0.000913337 -0.000210352 -0.000117515)
(0.00101995 -0.000723897 -0.00025925)
(0.00221272 0.0011041 0.00010039)
(0.00201457 0.000331348 2.76144e-05)
(0.00196076 -0.000343125 -9.99887e-05)
(0.0020465 -0.00111813 -0.000196799)
(0.00346051 0.00140906 -1.97978e-05)
(0.00327983 0.000433048 -2.26456e-05)
(0.00321832 -0.000456578 -7.66116e-05)
(0.00327021 -0.00143852 -0.000104063)
(0.00483125 0.0016206 -0.000134821)
(0.00466745 0.000498434 -6.95238e-05)
(0.00460125 -0.000549111 -5.00667e-05)
(0.00462539 -0.00167732 -8.90769e-06)
(0.00626812 0.00175651 -0.000235439)
(0.00612027 0.00053354 -0.000110259)
(0.00605192 -0.000624367 -2.58403e-05)
(0.00605475 -0.00184995 7.7723e-05)
(0.00772629 0.00183376 -0.000315308)
(0.00758987 0.000544492 -0.000146175)
(0.00752091 -0.000685336 -7.93861e-06)
(0.00751208 -0.00197001 0.000146538)
(0.00918473 0.00186841 -0.000375487)
(0.00904199 0.000539891 -0.000179909)
(0.00896904 -0.000734657 4.39444e-07)
(0.00896365 -0.00205266 0.000186816)
(0.00030424 0.000171969 0.000130402)
(0.000154602 3.46183e-05 4.36634e-05)
(0.000137291 -4.54249e-05 -5.09803e-05)
(0.000243387 -0.000178168 -0.000147492)
(0.00117867 0.000710982 9.56093e-05)
(0.000960972 0.000199184 3.54569e-05)
(0.000919735 -0.000203507 -7.21632e-05)
(0.00104531 -0.000710459 -0.000148472)
(0.00220197 0.00111802 3.0899e-05)
(0.00200467 0.000343585 1.46531e-06)
(0.00195052 -0.00034048 -6.65809e-05)
(0.0020322 -0.00111725 -0.000111165)
(0.00340309 0.00142774 -5.46719e-05)
(0.00322499 0.000449264 -3.5947e-05)
(0.00316302 -0.000451522 -5.22994e-05)
(0.00320843 -0.00143577 -4.86395e-05)
(0.0047227 0.00164261 -0.000141154)
(0.00456402 0.000517989 -7.20174e-05)
(0.00449713 -0.000539909 -3.45377e-05)
(0.00451191 -0.00166958 2.02421e-05)
(0.00611143 0.00177909 -0.000218741)
(0.00596977 0.000555167 -0.000104375)
(0.00590073 -0.000609181 -1.80494e-05)
(0.00589303 -0.00183355 8.40017e-05)
(0.00752758 0.00185463 -0.000281575)
(0.00739933 0.000566655 -0.00013317)
(0.00733033 -0.000663003 -7.41556e-06)
(0.00730971 -0.00194229 0.000133154)
(0.00895419 0.00188596 -0.000327069)
(0.00882054 0.000561006 -0.000159009)
(0.00874869 -0.00070517 -8.06557e-06)
(0.00873286 -0.002013 0.000155233)
(0.0003089 0.000175076 5.41003e-05)
(0.000150121 3.68226e-05 1.83932e-05)
(0.000130518 -4.58045e-05 -2.65821e-05)
(0.000240507 -0.000179699 -6.79676e-05)
(0.00117657 0.000699767 3.17002e-05)
(0.000940884 0.000199003 8.57243e-06)
(0.000896113 -0.000195372 -4.10405e-05)
(0.0010325 -0.000692177 -7.32563e-05)
(0.0021753 0.0011052 -1.40143e-05)
(0.00196399 0.000346186 -1.52947e-05)
(0.00190595 -0.00032784 -4.02276e-05)
(0.00199437 -0.00108999 -4.90831e-05)
(0.00334352 0.00141605 -7.43907e-05)
(0.00315543 0.000455247 -4.26378e-05)
(0.0030895 -0.000433821 -3.22041e-05)
(0.00313758 -0.00140045 -7.32525e-06)
(0.00462773 0.00163506 -0.000137232)
(0.00446174 0.000528129 -6.9666e-05)
(0.00439096 -0.000517159 -2.1175e-05)
(0.00440582 -0.0016281 4.03689e-05)
(0.00598181 0.00177698 -0.000195181)
(0.00583516 0.000569593 -9.46969e-05)
(0.00576254 -0.000581314 -1.10142e-05)
(0.00575297 -0.00178656 8.50159e-05)
(0.00736689 0.00185862 -0.000243227)
(0.00723604 0.000584939 -0.000117606)
(0.00716401 -0.000630151 -6.20477e-06)
(0.00713974 -0.00189028 0.000117883)
(0.00876917 0.00189625 -0.000277426)
(0.00863497 0.000582495 -0.000138463)
(0.00856007 -0.000667956 -1.27652e-05)
(0.0085381 -0.00195668 0.000126272)
(0.000306249 0.000175952 1.70888e-05)
(0.000141788 3.77532e-05 5.76785e-06)
(0.000120362 -4.56063e-05 -1.2615e-05)
(0.000232362 -0.000179142 -2.65178e-05)
(0.00115975 0.00068972 -1.91961e-06)
(0.000913625 0.00019848 -4.34352e-06)
(0.000865621 -0.000187626 -2.16347e-05)
(0.00100667 -0.000674368 -2.90093e-05)
(0.00213761 0.00109015 -3.60578e-05)
(0.00191615 0.000346976 -2.19003e-05)
(0.00185465 -0.000313596 -2.22016e-05)
(0.00194748 -0.0010597 -1.15298e-05)
(0.00328128 0.00140054 -7.92805e-05)
(0.00308483 0.000458858 -4.19014e-05)
(0.00301555 -0.000413644 -1.77349e-05)
(0.0030666 -0.00136073 1.70034e-05)
(0.00453988 0.00162249 -0.000124695)
(0.00436729 0.000535627 -6.19904e-05)
(0.00429339 -0.000491632 -1.11234e-05)
(0.00430987 -0.00158159 4.97349e-05)
(0.00586895 0.00176945 -0.000167475)
(0.00571743 0.000581499 -8.1159e-05)
(0.005642 -0.000551011 -5.37647e-06)
(0.00563276 -0.00173503 8.02558e-05)
(0.00723108 0.00185711 -0.000203824)
(0.00709706 0.000601155 -9.9332e-05)
(0.00702252 -0.000595692 -4.34462e-06)
(0.00699723 -0.00183496 0.000101362)
(0.00861419 0.00190063 -0.00022957)
(0.00847782 0.000602591 -0.000116319)
(0.00839994 -0.00063012 -1.33943e-05)
(0.00837519 -0.00189854 0.000101888)
(0.000301707 0.000175492 7.93171e-07)
(0.00013427 3.81737e-05 2.19444e-07)
(0.00011159 -4.5116e-05 -5.0382e-06)
(0.000223974 -0.000177359 -6.481e-06)
(0.00113972 0.000681709 -1.56752e-05)
(0.000887785 0.000198371 -8.80975e-06)
(0.000837411 -0.000180928 -1.02024e-05)
(0.000980069 -0.000658877 -5.96718e-06)
(0.00209958 0.00107823 -4.12515e-05)
(0.00187176 0.000347992 -2.17189e-05)
(0.00180777 -0.000300827 -1.09068e-05)
(0.00190284 -0.00103346 7.17783e-06)
(0.00322412 0.00138799 -7.21039e-05)
(0.00302189 0.000462239 -3.6155e-05)
(0.00295031 -0.000395362 -8.39584e-06)
(0.00300339 -0.00132603 2.68447e-05)
(0.00446361 0.00161201 -0.0001045)
(0.00428618 0.00054226 -5.07958e-05)
(0.00421023 -0.000468483 -4.552e-06)
(0.00422823 -0.0015406 4.90796e-05)
(0.00577427 0.00176274 -0.00013546)
(0.00561897 0.000591808 -6.5121e-05)
(0.00554177 -0.000523668 -1.59618e-06)
(0.00553339 -0.00168943 6.94787e-05)
(0.00711914 0.00185485 -0.000162289)
(0.00698244 0.000615027 -7.91131e-05)
(0.00690631 -0.000564851 -2.53958e-06)
(0.00688104 -0.00178592 8.25713e-05)
(0.00848668 0.00190256 -0.000181201)
(0.00834833 0.000619623 -9.2437e-05)
(0.00826847 -0.000596479 -1.16088e-05)
(0.00824258 -0.00184701 7.94793e-05)
(0.000297507 0.00017465 -4.63861e-06)
(0.000128626 3.8375e-05 -1.58628e-06)
(0.000105111 -4.45756e-05 -1.37214e-06)
(0.000217151 -0.000175393 1.57082e-06)
(0.00112215 0.000675829 -1.75434e-05)
(0.000867097 0.000198563 -8.57901e-06)
(0.000815116 -0.000175666 -4.03987e-06)
(0.000957994 -0.00064672 3.57323e-06)
(0.00206764 0.00106985 -3.5603e-05)
(0.00183604 0.00034924 -1.7542e-05)
(0.0017704 -0.000290723 -4.53337e-06)
(0.00186647 -0.0010132 1.30124e-05)
(0.00317769 0.00137931 -5.65644e-05)
(0.00297178 0.000465399 -2.73987e-05)
(0.00289872 -0.000380837 -3.13607e-06)
(0.00295301 -0.00129923 2.60559e-05)
(0.00440316 0.00160481 -7.84982e-05)
(0.00422251 0.000547925 -3.74591e-05)
(0.00414529 -0.000450065 -1.00309e-06)
(0.00416439 -0.00150879 4.05073e-05)
(0.00570046 0.00175813 -9.96513e-05)
(0.00554254 0.000600218 -4.74867e-05)
(0.00546429 -0.000501926 3.46511e-07)
(0.00545673 -0.00165384 5.3501e-05)
(0.00703262 0.00185318 -0.000118236)
(0.00689399 0.000626036 -5.74875e-05)
(0.00681694 -0.000540377 -1.21264e-06)
(0.00679204 -0.00174746 6.12422e-05)
(0.00838816 0.00190355 -0.000131295)
(0.00824828 0.000632906 -6.71158e-05)
(0.00816725 -0.000569818 -8.65381e-06)
(0.00814109 -0.00180638 5.73948e-05)
(0.000294487 0.0001739 -4.50137e-06)
(0.000124958 3.84716e-05 -1.51277e-06)
(0.00010093 -4.4141e-05 -1.80118e-08)
(0.000212481 -0.000173835 3.08009e-06)
(0.00110959 0.000671975 -1.2726e-05)
(0.000852976 0.000198826 -5.89851e-06)
(0.000800002 -0.00017206 -1.20414e-06)
(0.000942632 -0.00063841 4.99372e-06)
(0.00204512 0.00106457 -2.3545e-05)
(0.00181143 0.000350332 -1.12042e-05)
(0.00174479 -0.0002838 -1.46297e-06)
(0.00184123 -0.000999514 1.07406e-05)
(0.00314535 0.00137398 -3.57952e-05)
(0.00293731 0.000467852 -1.6976e-05)
(0.00286336 -0.000370874 -7.54602e-07)
(0.00291829 -0.00128118 1.82501e-05)
(0.0043615 0.00160049 -4.85739e-05)
(0.00417888 0.000552081 -2.28912e-05)
(0.00410093 -0.000437424 3.02058e-07)
(0.00412072 -0.00148733 2.64288e-05)
(0.00564994 0.0017554 -6.09628e-05)
(0.00549039 0.000606186 -2.88567e-05)
(0.00541156 -0.000487003 8.23701e-07)
(0.00540458 -0.00162974 3.36587e-05)
(0.00697361 0.00185219 -7.19397e-05)
(0.00683374 0.00063368 -3.48804e-05)
(0.0067562 -0.000523588 -4.47111e-07)
(0.00673168 -0.0017213 3.77144e-05)
(0.00832094 0.0019041 -7.96356e-05)
(0.00818003 0.000642003 -4.07095e-05)
(0.00809838 -0.000551526 -5.26052e-06)
(0.00807229 -0.00177863 3.48192e-05)
(0.000292927 0.000173476 -1.7538e-06)
(0.000123164 3.85111e-05 -5.8528e-07)
(9.88899e-05 -4.39029e-05 1.20239e-07)
(0.000210126 -0.000172991 1.35172e-06)
(0.00110311 0.000670065 -4.57572e-06)
(0.00084586 0.000198996 -2.07586e-06)
(0.000792415 -0.000170231 -2.05575e-07)
(0.000934814 -0.000634203 2.11222e-06)
(0.00203356 0.00106202 -8.18466e-06)
(0.00179895 0.000350956 -3.835e-06)
(0.00173184 -0.000280291 -2.82841e-07)
(0.00182838 -0.000992632 4.04692e-06)
(0.00312883 0.00137145 -1.22232e-05)
(0.0029198 0.000469184 -5.73903e-06)
(0.00284544 -0.000365824 -6.59223e-08)
(0.00290064 -0.00127212 6.50485e-06)
(0.00434028 0.00159847 -1.64289e-05)
(0.00415675 0.000554277 -7.69433e-06)
(0.00407845 -0.000431015 2.51165e-07)
(0.00409857 -0.00147655 9.15661e-06)
(0.00562428 0.00175415 -2.05161e-05)
(0.00546396 0.000609282 -9.67721e-06)
(0.00538486 -0.000479436 3.78878e-07)
(0.00537819 -0.00161762 1.14787e-05)
(0.00694365 0.00185173 -2.41525e-05)
(0.0068032 0.0006376 -1.16908e-05)
(0.00672546 -0.000515072 -9.83306e-08)
(0.00670116 -0.00170812 1.27384e-05)
(0.00828679 0.00190428 -2.66993e-05)
(0.00814541 0.00064664 -1.36425e-05)
(0.0080635 -0.000542235 -1.75715e-06)
(0.00803749 -0.00176461 1.16824e-05)
)
;

boundaryField
{
    interface
    {
        type            tractionDisplacement;
        gradient        nonuniform List<vector> 
192
(
(0.0012504 8.90088e-08 -6.27537e-06)
(0.00125106 2.32615e-07 -7.48491e-06)
(0.0012496 5.25483e-07 -7.47543e-06)
(0.00124673 8.45864e-07 -7.27339e-06)
(0.00124237 1.23213e-06 -6.95727e-06)
(0.00123606 1.75972e-06 -6.48764e-06)
(0.00122701 2.65546e-06 -5.77696e-06)
(0.00121237 4.4017e-06 -4.57372e-06)
(0.00127836 1.58951e-07 -4.18175e-06)
(0.00127813 3.40733e-07 -4.98588e-06)
(0.00127606 6.81215e-07 -4.94782e-06)
(0.00127234 1.07974e-06 -4.77587e-06)
(0.0012667 1.57845e-06 -4.5173e-06)
(0.00125852 2.26978e-06 -4.14438e-06)
(0.00124668 3.43378e-06 -3.60938e-06)
(0.00122774 5.61186e-06 -2.83028e-06)
(0.0012969 2.0556e-07 -2.92788e-06)
(0.00129628 4.22773e-07 -3.50022e-06)
(0.00129375 8.10625e-07 -3.4639e-06)
(0.00128935 1.27314e-06 -3.32432e-06)
(0.00128271 1.85533e-06 -3.11929e-06)
(0.00127309 2.65704e-06 -2.83373e-06)
(0.00125927 3.97152e-06 -2.44508e-06)
(0.00123752 6.33252e-06 -1.9299e-06)
(0.00131022 2.36666e-07 -2.12187e-06)
(0.00130939 4.82114e-07 -2.53952e-06)
(0.00130652 9.12912e-07 -2.50899e-06)
(0.00130157 1.426e-06 -2.39958e-06)
(0.00129415 2.06871e-06 -2.2415e-06)
(0.00128345 2.94405e-06 -2.02736e-06)
(0.00126819 4.35007e-06 -1.74696e-06)
(0.00124452 6.81512e-06 -1.39307e-06)
(0.00131978 2.59652e-07 -1.51365e-06)
(0.00131882 5.26652e-07 -1.81147e-06)
(0.00131569 9.91037e-07 -1.78752e-06)
(0.00131032 1.54199e-06 -1.7059e-06)
(0.0013023 2.22756e-06 -1.58946e-06)
(0.00129082 3.15197e-06 -1.43486e-06)
(0.00127453 4.6157e-06 -1.23756e-06)
(0.00124954 7.14639e-06 -9.95544e-07)
(0.00132642 2.76131e-07 -1.01788e-06)
(0.00132536 5.58719e-07 -1.21811e-06)
(0.00132204 1.04754e-06 -1.20117e-06)
(0.00131638 1.62535e-06 -1.14496e-06)
(0.00130794 2.34023e-06 -1.06545e-06)
(0.0012959 3.29691e-06 -9.61283e-07)
(0.00127891 4.79762e-06 -8.30326e-07)
(0.00125304 7.37104e-06 -6.71486e-07)
(0.00133063 2.87035e-07 -5.86262e-07)
(0.00132951 5.79709e-07 -7.01327e-07)
(0.00132607 1.08477e-06 -6.91544e-07)
(0.00132021 1.68017e-06 -6.58841e-07)
(0.00131151 2.41383e-06 -6.12817e-07)
(0.00129912 3.39091e-06 -5.5309e-07)
(0.00128169 4.9157e-06 -4.77739e-07)
(0.00125526 7.51474e-06 -3.82182e-07)
(0.00133265 2.92824e-07 -1.90632e-07)
(0.00133149 5.90077e-07 -2.27698e-07)
(0.001328 1.10224e-06 -2.24725e-07)
(0.00132205 1.70638e-06 -2.14081e-07)
(0.00131322 2.44881e-06 -1.99112e-07)
(0.00130067 3.43614e-06 -1.79825e-07)
(0.00128303 4.97701e-06 -1.55001e-07)
(0.00125626 7.58408e-06 -1.20792e-07)
(1.09308e-05 7.23725e-08 0.00114973)
(1.30776e-05 1.27851e-07 0.00114889)
(1.31548e-05 1.98457e-07 0.00114824)
(1.29808e-05 2.92527e-07 0.0011473)
(1.2715e-05 4.04896e-07 0.00114595)
(1.23458e-05 5.36693e-07 0.00114413)
(1.18492e-05 6.86119e-07 0.00114175)
(1.13079e-05 8.03277e-07 0.00113874)
(1.00547e-05 2.11513e-08 0.0010997)
(1.20342e-05 3.77271e-08 0.00109949)
(1.21003e-05 5.67502e-08 0.0010993)
(1.19489e-05 8.24212e-08 0.00109902)
(1.17254e-05 1.12105e-07 0.00109863)
(1.14243e-05 1.44074e-07 0.00109811)
(1.10382e-05 1.71046e-07 0.00109746)
(1.0708e-05 1.6209e-07 0.00109671)
(1.00418e-05 -2.70428e-08 0.00105277)
(1.20188e-05 -4.56996e-08 0.00105298)
(1.20844e-05 -6.9588e-08 0.00105321)
(1.1933e-05 -1.00411e-07 0.00105354)
(1.171e-05 -1.3707e-07 0.001054)
(1.141e-05 -1.80176e-07 0.00105463)
(1.10258e-05 -2.2871e-07 0.00105544)
(1.06983e-05 -2.6355e-07 0.00105648)
(1.09054e-05 -8.04064e-08 0.00100291)
(1.30452e-05 -1.36982e-07 0.00100376)
(1.312e-05 -2.11694e-07 0.00100444)
(1.29457e-05 -3.09713e-07 0.00100544)
(1.26804e-05 -4.27843e-07 0.00100685)
(1.23126e-05 -5.69225e-07 0.00100876)
(1.18188e-05 -7.38586e-07 0.00101129)
(1.12818e-05 -8.99354e-07 0.00101456)
(-0.000903606 -9.63547e-08 6.85177e-06)
(-0.000902881 -2.51564e-07 8.12936e-06)
(-0.000904348 -5.72774e-07 8.11249e-06)
(-0.00090722 -9.20022e-07 7.89131e-06)
(-0.000911576 -1.33875e-06 7.54482e-06)
(-0.000917854 -1.91504e-06 7.02877e-06)
(-0.00092686 -2.91625e-06 6.2435e-06)
(-0.00094155 -4.95238e-06 4.89368e-06)
(-0.000876477 -1.72336e-07 4.42126e-06)
(-0.000876696 -3.68407e-07 5.23941e-06)
(-0.000878763 -7.40343e-07 5.19106e-06)
(-0.000882477 -1.17274e-06 5.00456e-06)
(-0.000888098 -1.71422e-06 4.72407e-06)
(-0.000896245 -2.4707e-06 4.31857e-06)
(-0.000908024 -3.77243e-06 3.7342e-06)
(-0.000927051 -6.30466e-06 2.87503e-06)
(-0.000858904 -2.23527e-07 3.02815e-06)
(-0.000859518 -4.57468e-07 3.59773e-06)
(-0.000862036 -8.80012e-07 3.55226e-06)
(-0.00086643 -1.38156e-06 3.40144e-06)
(-0.000873045 -2.0136e-06 3.18024e-06)
(-0.000882602 -2.89053e-06 2.87178e-06)
(-0.000896351 -4.35875e-06 2.45083e-06)
(-0.000918167 -7.09737e-06 1.88924e-06)
(-0.00084644 -2.57774e-07 2.16159e-06)
(-0.000847264 -5.21851e-07 2.57079e-06)
(-0.000850126 -9.90306e-07 2.53274e-06)
(-0.00085506 -1.54618e-06 2.41474e-06)
(-0.000862449 -2.24345e-06 2.24466e-06)
(-0.000873069 -3.20009e-06 2.01421e-06)
(-0.000888236 -4.76849e-06 1.71208e-06)
(-0.000911949 -7.62329e-06 1.32891e-06)
(-0.000837595 -2.83051e-07 1.52365e-06)
(-0.00083856 -5.70096e-07 1.81175e-06)
(-0.000841682 -1.07445e-06 1.78199e-06)
(-0.000847026 -1.67087e-06 1.69407e-06)
(-0.000854997 -2.41412e-06 1.56902e-06)
(-0.000866396 -3.42352e-06 1.40308e-06)
(-0.00088257 -5.05455e-06 1.19126e-06)
(-0.000907581 -7.98206e-06 9.30362e-07)
(-0.000831511 -3.01135e-07 1.01526e-06)
(-0.000832571 -6.04765e-07 1.20705e-06)
(-0.000835879 -1.13523e-06 1.18601e-06)
(-0.000841519 -1.76034e-06 1.1255e-06)
(-0.000849902 -2.53489e-06 1.04024e-06)
(-0.000861845 -3.57878e-06 9.28656e-07)
(-0.000878708 -5.24964e-06 7.88457e-07)
(-0.000904589 -8.22417e-06 6.17775e-07)
(-0.000827684 -3.13066e-07 5.81157e-07)
(-0.000828802 -6.27424e-07 6.90621e-07)
(-0.00083223 -1.17521e-06 6.7841e-07)
(-0.000838059 -1.81904e-06 6.43226e-07)
(-0.000846706 -2.61357e-06 5.93914e-07)
(-0.000858993 -3.67914e-06 5.30029e-07)
(-0.000876286 -5.37574e-06 4.49542e-07)
(-0.000902707 -8.37837e-06 3.46949e-07)
(-0.000825854 -3.19376e-07 1.88378e-07)
(-0.000827006 -6.38536e-07 2.23531e-07)
(-0.000830489 -1.19398e-06 2.19753e-07)
(-0.000836409 -1.8471e-06 2.083e-07)
(-0.000845182 -2.65092e-06 1.92268e-07)
(-0.000857629 -3.72725e-06 1.71653e-07)
(-0.000875121 -5.44102e-06 1.45178e-07)
(-0.000901879 -8.45211e-06 1.08378e-07)
(1.13077e-05 -0.00113956 -9.86196e-07)
(1.18661e-05 -0.00114323 -8.3836e-07)
(1.23873e-05 -0.00114616 -6.69958e-07)
(1.27835e-05 -0.00114847 -5.21832e-07)
(1.30767e-05 -0.00115024 -3.91006e-07)
(1.32868e-05 -0.00115152 -2.72808e-07)
(1.34306e-05 -0.00115236 -1.66012e-07)
(1.35055e-05 -0.00115283 -5.78898e-08)
(1.07333e-05 -0.00109747 -3.23353e-07)
(1.10861e-05 -0.00109878 -2.9851e-07)
(1.14951e-05 -0.00109989 -2.50886e-07)
(1.18192e-05 -0.0011008 -2.02547e-07)
(1.20647e-05 -0.00110151 -1.55909e-07)
(1.22434e-05 -0.00110204 -1.10734e-07)
(1.23687e-05 -0.0011024 -6.67961e-08)
(1.24387e-05 -0.00110257 -2.25708e-08)
(1.07338e-05 -0.00105712 1.29308e-07)
(1.10872e-05 -0.00105654 1.24779e-07)
(1.1494e-05 -0.00105609 9.54584e-08)
(1.18153e-05 -0.00105577 6.74789e-08)
(1.20582e-05 -0.00105555 4.5425e-08)
(1.22347e-05 -0.00105541 2.87838e-08)
(1.23586e-05 -0.00105532 1.65634e-08)
(1.24277e-05 -0.00105528 5.73912e-09)
(1.13263e-05 -0.00101504 7.95589e-07)
(1.18919e-05 -0.00101212 6.58727e-07)
(1.24086e-05 -0.00100987 5.05786e-07)
(1.27978e-05 -0.00100817 3.78169e-07)
(1.3084e-05 -0.00100692 2.73189e-07)
(1.32882e-05 -0.00100604 1.85436e-07)
(1.34278e-05 -0.00100548 1.12584e-07)
(1.35008e-05 -0.00100515 4.00141e-08)
)
;
        traction        nonuniform List<vector> 
192
(
(26.7942 0.00190733 -0.134472)
(26.8085 0.00498462 -0.160391)
(26.7772 0.0112604 -0.160188)
(26.7157 0.0181257 -0.155858)
(26.6222 0.0264028 -0.149084)
(26.487 0.0377082 -0.139021)
(26.293 0.0569026 -0.123792)
(25.9793 0.0943222 -0.0980083)
(27.3935 0.0034061 -0.0896089)
(27.3884 0.00730142 -0.10684)
(27.3441 0.0145975 -0.106025)
(27.2645 0.0231373 -0.10234)
(27.1437 0.033824 -0.0967993)
(26.9683 0.0486382 -0.0888082)
(26.7147 0.0735809 -0.077344)
(26.3087 0.120254 -0.0606489)
(27.7907 0.00440487 -0.0627403)
(27.7773 0.00905942 -0.0750048)
(27.7233 0.0173705 -0.0742265)
(27.6289 0.0272816 -0.0712353)
(27.4865 0.039757 -0.066842)
(27.2806 0.0569365 -0.0607228)
(26.9843 0.085104 -0.0523946)
(26.5182 0.135697 -0.0413549)
(28.0762 0.00507141 -0.0454687)
(28.0584 0.010331 -0.0544183)
(27.997 0.0195624 -0.0537641)
(27.8909 0.0305572 -0.0514196)
(27.7317 0.0443295 -0.0480322)
(27.5026 0.0630869 -0.0434433)
(27.1755 0.0932158 -0.0374349)
(26.6683 0.146038 -0.0298516)
(28.2811 0.00556398 -0.0324353)
(28.2603 0.0112854 -0.0388172)
(28.1933 0.0212365 -0.038304)
(28.0783 0.0330426 -0.0365551)
(27.9065 0.0477333 -0.0340599)
(27.6604 0.0675421 -0.0307469)
(27.3113 0.0989078 -0.0265191)
(26.7759 0.153137 -0.0213331)
(28.4234 0.00591708 -0.0218117)
(28.4006 0.0119725 -0.0261023)
(28.3295 0.0224473 -0.0257394)
(28.2081 0.034829 -0.0245348)
(28.0273 0.0501478 -0.0228311)
(27.7694 0.0706481 -0.0205989)
(27.4052 0.102806 -0.0177927)
(26.8508 0.157951 -0.014389)
(28.5135 0.00615074 -0.0125628)
(28.4894 0.0124223 -0.0150284)
(28.4158 0.023245 -0.0148188)
(28.2903 0.0360036 -0.014118)
(28.1037 0.0517248 -0.0131318)
(27.8383 0.0726623 -0.0118519)
(27.4647 0.105336 -0.0102373)
(26.8984 0.16103 -0.00818961)
(28.5567 0.00627479 -0.00408497)
(28.532 0.0126445 -0.00487923)
(28.4571 0.0236193 -0.00481554)
(28.3296 0.0365652 -0.00458744)
(28.1404 0.0524745 -0.00426669)
(27.8714 0.0736316 -0.00385339)
(27.4935 0.10665 -0.00332146)
(26.9199 0.162516 -0.00258841)
(0.234232 0.00155084 24.637)
(0.280235 0.00273965 24.6191)
(0.281888 0.00425265 24.6052)
(0.278159 0.00626843 24.5849)
(0.272465 0.00867633 24.5561)
(0.264553 0.0115006 24.5171)
(0.253912 0.0147025 24.4661)
(0.242312 0.0172131 24.4015)
(0.215458 0.000453242 23.565)
(0.257875 0.000808438 23.5605)
(0.259292 0.00121608 23.5564)
(0.256048 0.00176617 23.5504)
(0.251258 0.00240225 23.542)
(0.244806 0.00308729 23.5309)
(0.236532 0.00366528 23.517)
(0.229457 0.00347336 23.5009)
(0.215181 -0.00057949 22.5593)
(0.257546 -0.000979277 22.564)
(0.258951 -0.00149117 22.5688)
(0.255708 -0.00215167 22.5758)
(0.250929 -0.00293722 22.5858)
(0.244501 -0.00386092 22.5992)
(0.236268 -0.00490093 22.6167)
(0.22925 -0.00564749 22.6389)
(0.233687 -0.00172299 21.4909)
(0.279539 -0.00293532 21.5091)
(0.281144 -0.00453631 21.5238)
(0.277407 -0.00663671 21.5451)
(0.271722 -0.00916805 21.5754)
(0.263841 -0.0121977 21.6164)
(0.253261 -0.0158268 21.6704)
(0.241752 -0.0192719 21.7405)
(-19.363 -0.00206474 0.146824)
(-19.3475 -0.00539066 0.174201)
(-19.3789 -0.0122737 0.173839)
(-19.4404 -0.0197148 0.1691)
(-19.5338 -0.0286875 0.161675)
(-19.6683 -0.0410367 0.150616)
(-19.8613 -0.0624911 0.133789)
(-20.1761 -0.106122 0.104865)
(-18.7816 -0.00369291 0.0947413)
(-18.7863 -0.00789443 0.112273)
(-18.8306 -0.0158645 0.111237)
(-18.9102 -0.0251302 0.107241)
(-19.0307 -0.0367334 0.10123)
(-19.2052 -0.0529437 0.0925409)
(-19.4577 -0.0808377 0.0800185)
(-19.8654 -0.1351 0.0616077)
(-18.4051 -0.00478987 0.064889)
(-18.4182 -0.00980289 0.0770943)
(-18.4722 -0.0188574 0.0761199)
(-18.5664 -0.0296049 0.0728881)
(-18.7081 -0.0431486 0.0681481)
(-18.9129 -0.06194 0.0615382)
(-19.2075 -0.0934018 0.0525179)
(-19.675 -0.152086 0.0404836)
(-18.138 -0.00552373 0.0463197)
(-18.1556 -0.0111825 0.0550883)
(-18.217 -0.0212208 0.054273)
(-18.3227 -0.0331325 0.0517444)
(-18.481 -0.048074 0.0480998)
(-18.7086 -0.0685733 0.0431617)
(-19.0336 -0.102182 0.0366875)
(-19.5418 -0.163356 0.0284766)
(-17.9485 -0.00606538 0.0326497)
(-17.9691 -0.0122163 0.0388231)
(-18.036 -0.023024 0.0381856)
(-18.1506 -0.0358044 0.0363015)
(-18.3214 -0.0517312 0.0336219)
(-18.5656 -0.0733611 0.0300661)
(-18.9122 -0.108312 0.0255271)
(-19.4482 -0.171044 0.0199363)
(-17.8181 -0.00645288 0.0217555)
(-17.8408 -0.0129593 0.0258653)
(-17.9117 -0.0243264 0.0254145)
(-18.0325 -0.0377215 0.0241178)
(-18.2122 -0.0543192 0.0222908)
(-18.4681 -0.0766882 0.0198998)
(-18.8294 -0.112492 0.0168955)
(-19.3841 -0.176232 0.013238)
(-17.7361 -0.00670857 0.0124534)
(-17.7601 -0.0134448 0.014799)
(-17.8335 -0.0251831 0.0145374)
(-17.9584 -0.0389794 0.0137834)
(-18.1437 -0.0560052 0.0127267)
(-18.407 -0.0788387 0.0113578)
(-18.7775 -0.115194 0.00963305)
(-19.3437 -0.179537 0.00743463)
(-17.6969 -0.00684377 0.00403667)
(-17.7216 -0.0136829 0.00478996)
(-17.7962 -0.0255853 0.00470898)
(-17.9231 -0.0395806 0.00446357)
(-18.111 -0.0568055 0.00412003)
(-18.3778 -0.0798697 0.00367828)
(-18.7526 -0.116593 0.00311095)
(-19.326 -0.181117 0.00232238)
(0.242309 -24.4191 -0.0211328)
(0.254273 -24.4977 -0.0179648)
(0.265441 -24.5605 -0.0143563)
(0.273931 -24.61 -0.0111821)
(0.280215 -24.6479 -0.00837869)
(0.284717 -24.6755 -0.00584588)
(0.287799 -24.6935 -0.0035574)
(0.289404 -24.7035 -0.0012405)
(0.229999 -23.5171 -0.006929)
(0.237559 -23.5453 -0.00639663)
(0.246324 -23.5691 -0.00537612)
(0.253268 -23.5885 -0.00434029)
(0.25853 -23.6038 -0.00334091)
(0.262358 -23.6152 -0.00237288)
(0.265043 -23.6228 -0.00143135)
(0.266544 -23.6265 -0.00048366)
(0.23001 -22.6525 0.00277088)
(0.237582 -22.6402 0.00267384)
(0.2463 -22.6305 0.00204554)
(0.253185 -22.6237 0.00144598)
(0.25839 -22.6189 0.000973392)
(0.262173 -22.6158 0.000616796)
(0.264827 -22.614 0.00035493)
(0.266308 -22.6131 0.000122981)
(0.242706 -21.7508 0.0170483)
(0.254825 -21.6882 0.0141156)
(0.265899 -21.64 0.0108383)
(0.274239 -21.6037 0.00810362)
(0.280372 -21.5769 0.00585405)
(0.284748 -21.558 0.00397363)
(0.287739 -21.5459 0.00241252)
(0.289303 -21.5389 0.000857445)
)
;
        pressure        uniform 0;
        value           nonuniform List<vector> 
192
(
(0.000601546 0.000621988 0.000281873)
(0.00130117 0.00114832 0.000190999)
(0.00238287 0.00166472 7.12029e-05)
(0.00360293 0.00204102 -7.9398e-05)
(0.00495487 0.00230581 -0.000223494)
(0.00637382 0.00247037 -0.000350318)
(0.007822 0.00256115 -0.000450739)
(0.00927329 0.00261489 -0.000522168)
(0.000624646 0.000633635 0.000129207)
(0.00135335 0.00113358 9.1978e-05)
(0.00237498 0.00165344 1.16627e-05)
(0.00355117 0.00203479 -9.51121e-05)
(0.00485063 0.00230323 -0.000202826)
(0.00622198 0.00247191 -0.000300516)
(0.00762786 0.0025662 -0.000380344)
(0.00904637 0.00262541 -0.000437074)
(0.000636398 0.000642157 4.98321e-05)
(0.00135813 0.00111441 2.08949e-05)
(0.0023535 0.00162387 -3.61878e-05)
(0.00349462 0.00200514 -0.000111018)
(0.00475675 0.00227758 -0.000189271)
(0.00609225 0.00245356 -0.000261992)
(0.00746629 0.00255695 -0.000323031)
(0.00885852 0.00262776 -0.000366807)
(0.000636571 0.000641443 1.19153e-05)
(0.00134644 0.00109676 -1.49633e-05)
(0.00232132 0.00159732 -5.84367e-05)
(0.00343702 0.00197646 -0.00011237)
(0.00467231 0.0022518 -0.000168949)
(0.00598172 0.00243385 -0.000222528)
(0.00733194 0.00254503 -0.000268713)
(0.00870372 0.00262467 -0.000302408)
(0.000631914 0.000636712 -3.99277e-06)
(0.00132942 0.00108189 -2.78621e-05)
(0.00228706 0.00157659 -6.10178e-05)
(0.00338355 0.00195431 -9.99782e-05)
(0.00459919 0.00223174 -0.000140538)
(0.00588948 0.00241814 -0.000179381)
(0.0072218 0.00253472 -0.000213598)
(0.00857701 0.0026201 -0.000238896)
(0.000626478 0.000631356 -8.33929e-06)
(0.00131344 0.00107039 -2.70541e-05)
(0.00225746 0.00156155 -5.07381e-05)
(0.00333967 0.0019387 -7.75023e-05)
(0.00454109 0.00221773 -0.00010514)
(0.00581767 0.00240706 -0.000131781)
(0.00713689 0.00252704 -0.00015559)
(0.00847952 0.00261586 -0.000173328)
(0.000622171 0.000627123 -6.80054e-06)
(0.00130161 0.00106258 -1.86771e-05)
(0.00223622 0.00155177 -3.29545e-05)
(0.00330886 0.00192881 -4.87134e-05)
(0.00450093 0.00220895 -6.49013e-05)
(0.00576847 0.0024001 -8.05671e-05)
(0.00707897 0.00252205 -9.46842e-05)
(0.00841307 0.00261278 -0.000105243)
(0.00061984 0.000624843 -2.52866e-06)
(0.0012954 0.00105865 -6.59114e-06)
(0.0022252 0.00154695 -1.13658e-05)
(0.00329303 0.001924 -1.658e-05)
(0.00448042 0.00220472 -2.19235e-05)
(0.00574345 0.00239674 -2.71052e-05)
(0.00704954 0.00251958 -3.17915e-05)
(0.00837929 0.00261107 -3.53019e-05)
(0.000273459 0.000308659 0.000447525)
(0.00113242 0.000652874 0.000218045)
(0.0022305 0.00105324 0.000138212)
(0.00351105 0.00134679 -3.41801e-06)
(0.00491679 0.00156288 -0.000129835)
(0.00638426 0.00170657 -0.000241376)
(0.00786641 0.00179341 -0.000327481)
(0.00934191 0.00184477 -0.00039746)
(8.67857e-05 8.7808e-05 0.000125882)
(0.000875158 0.000172117 8.65669e-05)
(0.00197558 0.000311976 3.18815e-05)
(0.00327887 0.000409599 -2.52118e-05)
(0.00470616 0.000475468 -7.60952e-05)
(0.00619375 0.00051159 -0.00012014)
(0.00769223 0.000523244 -0.000158277)
(0.00916723 0.000523357 -0.000198213)
(6.60298e-05 -0.000111307 -0.000131979)
(0.00082877 -0.000194455 -0.000126472)
(0.00191494 -0.000329886 -0.000111501)
(0.00321103 -0.000440041 -8.45678e-05)
(0.00463359 -0.000535823 -5.55498e-05)
(0.00611949 -0.000616079 -2.85097e-05)
(0.0076185 -0.00068345 -7.97838e-06)
(0.00908956 -0.00074079 6.7292e-06)
(0.000203435 -0.000347806 -0.000451941)
(0.000985185 -0.000676819 -0.000285927)
(0.00204163 -0.00107688 -0.000241567)
(0.00329784 -0.00138626 -0.000130647)
(0.00468734 -0.00163114 -2.54095e-05)
(0.00614776 -0.00181341 7.1634e-05)
(0.00763105 -0.00194673 0.000148316)
(0.00910092 -0.0020511 0.000199726)
(0.000482314 -0.000605062 -0.000305258)
(0.00112348 -0.00115071 -0.000271871)
(0.00214906 -0.00168488 -0.000191079)
(0.00333593 -0.0020806 -6.94741e-05)
(0.00466543 -0.00237287 5.4942e-05)
(0.00607398 -0.00257226 0.000169612)
(0.00751994 -0.00270149 0.000262535)
(0.00896922 -0.00278474 0.00032003)
(0.000490153 -0.000611152 -0.000150383)
(0.00116636 -0.00113194 -0.000149477)
(0.00213275 -0.00165983 -9.77729e-05)
(0.00327419 -0.00205283 -1.41167e-05)
(0.00455067 -0.00233916 7.65722e-05)
(0.00591119 -0.00253219 0.000161566)
(0.00731597 -0.00265395 0.000229431)
(0.00873813 -0.00273204 0.000267265)
(0.000490515 -0.00061371 -6.60607e-05)
(0.00115939 -0.00110642 -6.39671e-05)
(0.00209985 -0.00161593 -2.81966e-05)
(0.00320654 -0.00199919 2.831e-05)
(0.00444602 -0.00227864 9.18778e-05)
(0.00577119 -0.00246736 0.000152077)
(0.0071449 -0.00258623 0.000199365)
(0.00854008 -0.00266234 0.000221003)
(0.000482508 -0.000606468 -2.26591e-05)
(0.00113771 -0.00108023 -1.61624e-05)
(0.00205741 -0.00157383 1.13015e-05)
(0.00313939 -0.00194608 5.0971e-05)
(0.00435277 -0.00221839 9.52529e-05)
(0.00565259 -0.00240263 0.00013714)
(0.00700284 -0.00251854 0.000169078)
(0.0083764 -0.00259265 0.000180046)
(0.000472204 -0.000595891 -2.43345e-06)
(0.00111341 -0.00105681 6.42746e-06)
(0.00201565 -0.00153826 2.77729e-05)
(0.00307906 -0.00190151 5.59287e-05)
(0.00427353 -0.00216743 8.66268e-05)
(0.00555489 -0.00234731 0.000115294)
(0.00688752 -0.00246008 0.000136395)
(0.00824382 -0.00253181 0.000141289)
(0.00046295 -0.00058593 4.87639e-06)
(0.00109242 -0.00103812 1.33797e-05)
(0.00198093 -0.00151085 2.89103e-05)
(0.00303056 -0.00186751 4.80406e-05)
(0.00421141 -0.00212851 6.84054e-05)
(0.00547957 -0.00230477 8.71232e-05)
(0.00679937 -0.00241474 0.000100442)
(0.00814278 -0.00248418 0.000102246)
(0.000456262 -0.000578559 5.19307e-06)
(0.00107747 -0.00102522 1.11752e-05)
(0.00195653 -0.00149229 2.06629e-05)
(0.00299693 -0.00184469 3.18552e-05)
(0.00416879 -0.0021024 4.35649e-05)
(0.00542831 -0.00227613 5.41917e-05)
(0.00673965 -0.00238406 6.15654e-05)
(0.00807445 -0.00245176 6.20452e-05)
(0.000452795 -0.000574696 2.07395e-06)
(0.00106977 -0.00101866 4.21399e-06)
(0.00194402 -0.00148293 7.40854e-06)
(0.00297976 -0.00183324 1.11006e-05)
(0.00414714 -0.00208931 1.49295e-05)
(0.00540235 -0.00226175 1.83811e-05)