/*--------------------------------*- C++ -*----------------------------------*\
| =========                 |                                                 |
| \\      /  F ield         | foam-extend: Open Source CFD                    |
|  \\    /   O peration     | Version:     3.1                                |
|   \\  /    A nd           | Web:         http://www.extend-project.de       |
|    \\/     M anipulation  |                                                 |
\*---------------------------------------------------------------------------*/
FoamFile
{
    version     2.0;
    format      ascii;
    class       volSymmTensorField;
    location    "1.6";
    object      epsilon;
}
// * * * * * * * * * * * * * * * * * * * * * * * * * * * * * * * * * * * * * //

dimensions      [0 0 0 0 0 0 0];

internalField   nonuniform List<symmTensor> 
256
(
(-0.00529005 0.00774335 -0.000322268 0.0193758 0.00270959 -0.00193242)
(-0.00187281 0.00683885 -0.000958009 0.00462706 0.00109828 -0.000758172)
(0.000708152 0.00630728 -0.000975276 -0.00460341 -0.00131067 0.000770371)
(0.00381182 0.00631261 -0.000411398 -0.0181842 -0.00314294 0.00198243)
(-0.00952012 0.00323106 -0.000417284 0.012231 -0.00171489 -0.00270609)
(-0.00410211 0.00814082 -0.00159571 0.00499875 -0.00067519 -0.00104769)
(0.0012583 0.00797977 -0.00165828 -0.00352262 0.000277746 0.00123686)
(0.00656507 0.00323696 -0.000635311 -0.0110305 0.00119533 0.00307052)
(-0.00831364 0.0036332 -0.000255485 0.0115619 -0.00102664 -0.00120447)
(-0.0043972 0.00752272 -0.00125597 0.00464629 -0.000370361 -0.000406963)
(0.000819808 0.00755291 -0.0013243 -0.00272431 6.32971e-05 0.000889628)
(0.00493927 0.00372228 -0.000495923 -0.00979849 0.00070093 0.00196131)
(-0.00747223 0.00303837 -0.000292745 0.00881855 -0.0011714 -0.000385014)
(-0.00412665 0.0066345 -0.00116972 0.0037685 -0.000378298 -3.17371e-05)
(0.000341641 0.0067095 -0.00122078 -0.00182419 0.000172782 0.000737769)
(0.00383358 0.00319306 -0.000535879 -0.00696595 0.000956141 0.00137352)
(-0.00642003 0.00256154 -0.000278131 0.00659013 -0.0010162 0.000439613)
(-0.00373902 0.00561991 -0.00107163 0.00294072 -0.000300462 0.000315334)
(-2.13115e-05 0.00572715 -0.0011145 -0.00112915 0.000197283 0.000534506)
(0.00272068 0.00275731 -0.000515044 -0.00475608 0.000930425 0.000697559)
(-0.00557516 0.00195614 -0.000307962 0.00467309 -0.000866576 0.00105333)
(-0.00335832 0.00453739 -0.00103027 0.00218662 -0.000247643 0.000567689)
(-0.000244724 0.00469945 -0.00105222 -0.000613588 0.000205662 0.000351746)
(0.00192079 0.00225379 -0.000510035 -0.00294714 0.000882542 0.000132373)
(-0.00501779 0.00126856 -0.000394539 0.00342095 -0.000743495 0.00155612)
(-0.00312047 0.00344268 -0.00104383 0.00161003 -0.000248365 0.000781104)
(-0.000333098 0.00362986 -0.00103013 -0.000272449 0.000177341 0.00016047)
(0.00149865 0.00171215 -0.00051862 -0.00172431 0.000771593 -0.000398434)
(-0.00530002 0.000863829 -0.00051907 0.00260955 -0.000411983 0.00198953)
(-0.00369499 0.00216422 -0.00109734 0.00144901 -0.000148872 0.000960354)
(-0.000105292 0.00216252 -0.00108733 4.03487e-05 6.93232e-05 -6.53133e-05)
(0.00171862 0.00097829 -0.000603775 -0.000927704 0.000355147 -0.000935395)
(-0.00529326 0.00799523 -0.00015321 0.0189634 0.00123897 -0.00126455)
(-0.00173293 0.00718145 -0.000723647 0.00461625 0.000496699 -0.000525649)
(0.000605047 0.00668713 -0.000799951 -0.00414484 -0.000803132 0.000516943)
(0.0037542 0.00657947 -0.000351702 -0.0172992 -0.00172189 0.00136139)
(-0.00947117 0.00285434 -0.000211087 0.0133668 -0.00132473 -0.00205088)
(-0.00375614 0.00763573 -0.00138903 0.00560987 -0.000536192 -0.000852014)
(0.00103237 0.00753019 -0.00157068 -0.00393799 8.55381e-05 0.000969227)
(0.00643302 0.00294393 -0.00066058 -0.0120332 0.000786062 0.00245669)
(-0.00809114 0.00289318 -9.56066e-05 0.0115719 -0.0016933 -0.00109342)
(-0.00391887 0.00639018 -0.00123643 0.00469753 -0.000618342 -0.000446958)
(0.000568743 0.00643708 -0.0014446 -0.00271775 0.000294189 0.000818)
(0.00469431 0.00298664 -0.000610231 -0.0097524 0.00133668 0.00185286)
(-0.0071369 0.00232103 -3.27769e-05 0.00884687 -0.00174917 -0.000157611)
(-0.0035896 0.00541417 -0.00105981 0.00378942 -0.000577919 -5.82503e-05)
(8.26417e-05 0.00548662 -0.00126701 -0.00179281 0.000423281 0.000632248)
(0.00348894 0.00246371 -0.000570548 -0.00692467 0.00159109 0.00115609)
(-0.00608297 0.00186972 2.65857e-05 0.00648852 -0.00159988 0.00067055)
(-0.00320322 0.0044675 -0.000919376 0.00290761 -0.000486631 0.000269998)
(-0.000267917 0.00456513 -0.00112046 -0.00102872 0.000487878 0.000435765)
(0.00237201 0.0020584 -0.000507573 -0.004572 0.00163831 0.000467969)
(-0.00523949 0.00136796 3.45017e-05 0.0045447 -0.00135947 0.00133317)
(-0.00283926 0.00356954 -0.000839384 0.00214497 -0.000389256 0.000527346)
(-0.000490309 0.00371728 -0.00101672 -0.000460711 0.000486912 0.000247899)
(0.00156153 0.00166731 -0.000455707 -0.00268409 0.00155011 -0.000147114)
(-0.00468563 0.000799316 -3.05876e-05 0.00323817 -0.00106523 0.00184887)
(-0.0026312 0.00272686 -0.00084824 0.00153448 -0.000314982 0.000732193)
(-0.000580808 0.00290879 -0.000987564 -6.57289e-05 0.000402114 6.80821e-05)
(0.00113647 0.0012845 -0.000427997 -0.00134692 0.00130366 -0.000686645)
(-0.00497315 0.000633922 -0.000197585 0.00246312 -0.000568897 0.00224987)
(-0.00325273 0.00182161 -0.00100556 0.00139255 -0.00016749 0.000877435)
(-0.000380676 0.00181608 -0.00116255 0.000220633 0.000207341 -0.000149676)
(0.00134357 0.000787098 -0.000572532 -0.000596571 0.000706768 -0.00121105)
(-0.00549407 0.0079748 -9.3032e-05 0.0187414 0.000233411 -0.000677932)
(-0.00184988 0.00695286 -0.000423544 0.00464464 7.92434e-05 -0.00026719)
(0.000620408 0.00640657 -0.000484431 -0.0039702 -0.000396998 0.00030765)
(0.00383794 0.00640664 -0.000230695 -0.0168687 -0.00063184 0.000775399)
(-0.00989727 0.00269678 -0.000168404 0.0130852 -0.00108378 -0.00113183)
(-0.00400586 0.0072869 -0.000888664 0.00563751 -0.000452452 -0.000422992)
(0.00106117 0.00717249 -0.00103319 -0.00375047 6.5105e-05 0.000620667)
(0.00663229 0.00276984 -0.000481379 -0.0115928 0.000683512 0.00147173)
(-0.00845823 0.00267876 -0.000138904 0.0115494 -0.00147032 -0.000573847)
(-0.00414099 0.00596715 -0.000900182 0.00477899 -0.000551695 -0.000159653)
(0.000557876 0.00601307 -0.0010661 -0.0025925 0.000289813 0.000585435)
(0.00483967 0.00275118 -0.000489378 -0.0095154 0.00120915 0.0011817)
(-0.0073901 0.00210795 -0.000101953 0.00889747 -0.00156981 0.000114174)
(-0.00374914 0.00493631 -0.0008164 0.00386423 -0.000531539 0.000141636)
(1.42894e-05 0.00501029 -0.000979925 -0.00166929 0.000440252 0.000480072)
(0.0035118 0.00224532 -0.000456102 -0.00675453 0.00148873 0.00070727)
(-0.00627539 0.00165291 -6.49913e-05 0.00657796 -0.00147218 0.000779108)
(-0.00332672 0.00401534 -0.000718607 0.00298605 -0.000450754 0.000416753)
(-0.000368293 0.00412297 -0.000873592 -0.000911092 0.000523683 0.000343417)
(0.00232724 0.00186253 -0.000403997 -0.00443086 0.00157959 0.000183183)
(-0.00537641 0.00116823 -5.64707e-05 0.00465098 -0.00126461 0.00134168)
(-0.00293013 0.00318815 -0.000661125 0.00221708 -0.000351903 0.00064187)
(-0.000616093 0.00336026 -0.000796 -0.00033939 0.000533634 0.000203584)
(0.00145535 0.00152451 -0.00035612 -0.00254722 0.00151894 -0.000308322)
(-0.00476234 0.000617546 -0.000104881 0.00335952 -0.000977411 0.00178553)
(-0.00269129 0.00245262 -0.000694302 0.00159542 -0.000258409 0.000820308)
(-0.00073357 0.00267416 -0.000805193 5.64961e-05 0.000446743 7.79931e-05)
(0.000969916 0.00120519 -0.000344296 -0.00120653 0.00128337 -0.000729327)
(-0.00500333 0.000536933 -0.000270113 0.00256989 -0.000480115 0.00208961)
(-0.00331963 0.00169118 -0.000913263 0.00145567 -0.000107806 0.000941667)
(-0.000597691 0.00171063 -0.00105556 0.000332009 0.000217917 -2.0362e-05)
(0.00110467 0.000760773 -0.000526407 -0.000467382 0.000663347 -0.00102721)
(-0.00560297 0.00780697 -3.80297e-05 0.0184359 -0.000255211 -0.000283443)
(-0.00194175 0.00663325 -0.000222744 0.00462266 -0.000110569 -0.000103725)
(0.000614744 0.0060385 -0.00026147 -0.0038122 -0.000159032 0.000173157)
(0.00386333 0.0061225 -0.000128977 -0.0163842 -4.73384e-05 0.000384422)
(-0.0101701 0.00255936 -8.44056e-05 0.0127698 -0.00089263 -0.00041466)
(-0.00421761 0.0069921 -0.000516586 0.00561086 -0.000365074 -0.000124329)
(0.00104678 0.00686433 -0.000610049 -0.00352105 6.97556e-05 0.000368434)
(0.00673058 0.00262671 -0.000292962 -0.0111301 0.000611457 0.000731395)
(-0.00877474 0.00256641 -9.95281e-05 0.0114497 -0.00116274 -2.19941e-05)
(-0.004374 0.00572864 -0.000598717 0.00482696 -0.000432332 7.49088e-05)
(0.000529215 0.00577461 -0.000705603 -0.00240855 0.000251234 0.000374617)
(0.00497377 0.00263512 -0.000328057 -0.00919217 0.000998926 0.000556571)
(-0.00767273 0.00201263 -9.58853e-05 0.00893066 -0.001247 0.000486636)
(-0.00396257 0.00472957 -0.000589671 0.00394921 -0.00041763 0.000310347)
(-3.69334e-05 0.00480901 -0.000691622 -0.00151275 0.000382747 0.000320658)
(0.00360594 0.00215917 -0.000318998 -0.00653658 0.00122837 0.000233804)
(-0.00650729 0.0015678 -8.23134e-05 0.00668795 -0.00118894 0.00100415)
(-0.00351415 0.00384212 -0.000547839 0.00309166 -0.000356632 0.000535488)
(-0.000439112 0.00396298 -0.000640775 -0.000777195 0.000461778 0.000235995)
(0.0023707 0.00180417 -0.00028803 -0.00427858 0.00132239 -0.000144774)
(-0.00555626 0.00109145 -8.34647e-05 0.00479864 -0.00103958 0.00146269)
(-0.0030895 0.00305432 -0.00052652 0.00232637 -0.000279546 0.000729582)
(-0.000703834 0.00325024 -0.000604079 -0.000222287 0.000475602 0.000147149)
(0.001446 0.0014978 -0.000258027 -0.00243135 0.00128793 -0.000509667)
(-0.004887 0.000546116 -0.000129384 0.00352529 -0.000816802 0.00183303)
(-0.00282627 0.00236555 -0.000586044 0.00169753 -0.000202795 0.000892155)
(-0.000846299 0.0026177 -0.000648929 0.000158191 0.000399504 8.24933e-05)
(0.000898592 0.00120526 -0.000263797 -0.00110816 0.00109442 -0.000805123)
(-0.00509073 0.000504261 -0.000292114 0.00272944 -0.00041202 0.0020873)
(-0.00346656 0.00165401 -0.000830691 0.00155761 -8.31408e-05 0.00102183)
(-0.000770364 0.00168672 -0.000921029 0.000411167 0.000194801 8.02014e-05)
(0.000959787 0.000767863 -0.000445877 -0.00040678 0.000567255 -0.000940888)
(-0.00564811 0.00761218 -6.65997e-06 0.0181326 -0.000415464 -5.47063e-05)
(-0.00199577 0.00633579 -0.000103725 0.00459396 -0.000167434 -1.17106e-05)
(0.000597328 0.00570729 -0.000127091 -0.00366947 -3.41546e-05 8.73978e-05)
(0.00384524 0.00584727 -6.46204e-05 -0.0159201 0.000202898 0.000146557)
(-0.010322 0.00243923 -2.74907e-05 0.0125383 -0.000707784 3.06807e-05)
(-0.00434948 0.00673301 -0.000274858 0.00558993 -0.000280455 5.2126e-05)
(0.00100951 0.00659719 -0.000332567 -0.00331877 7.07252e-05 0.000195555)
(0.00674469 0.00250945 -0.000161658 -0.0107588 0.000516355 0.000252041)
(-0.00899815 0.00247994 -5.615e-05 0.011359 -0.000876602 0.000367667)
(-0.00453373 0.00555181 -0.000369691 0.00486418 -0.000318016 0.000224567)
(0.000489177 0.00560072 -0.000435517 -0.00223352 0.000203435 0.000210081)
(0.005048 0.00255366 -0.000200209 -0.0089017 0.000781518 0.000103271)
(-0.00790247 0.00195554 -6.98998e-05 0.00895068 -0.000931404 0.00078172)
(-0.00412145 0.00461222 -0.00039811 0.00402432 -0.000304403 0.000421628)
(-8.01417e-05 0.00469834 -0.000458677 -0.00136267 0.000304166 0.00018149)
(0.00367975 0.00211542 -0.000205888 -0.00632965 0.000947128 -0.000144824)
(-0.00671668 0.00152793 -7.25812e-05 0.00677663 -0.000895126 0.00120693)
(-0.00366031 0.00376804 -0.000394499 0.00318745 -0.000261403 0.000614722)
(-0.000488302 0.00390023 -0.000447404 -0.000650159 0.000367053 0.000130953)
(0.00242482 0.00178822 -0.000193436 -0.00413135 0.0010224 -0.000431574)
(-0.00573389 0.0010607 -8.26058e-05 0.00491867 -0.000795297 0.00159674)
(-0.00321813 0.00301252 -0.000400715 0.00242552 -0.000207998 0.000790572)
(-0.000761025 0.00322566 -0.000442585 -0.000116059 0.000378364 8.18261e-05)
(0.00146888 0.00150477 -0.000181025 -0.0023217 0.0010015 -0.000704296)
(-0.00502754 0.000517793 -0.000127027 0.00365258 -0.000637071 0.00192232)
(-0.00294051 0.00234868 -0.000472319 0.00178767 -0.000153332 0.000948284)
(-0.000919929 0.00261995 -0.000504871 0.000245128 0.000316912 6.57434e-05)
(0.000880004 0.00122581 -0.000199055 -0.00102019 0.000853536 -0.000904796)
(-0.00520973 0.000494922 -0.00027436 0.00284524 -0.000324358 0.00213836)
(-0.00359429 0.0016545 -0.000704331 0.00164371 -6.21862e-05 0.00108293)
(-0.000884063 0.00169129 -0.00075667 0.000481223 0.000152947 0.000130256)
(0.000893548 0.000782206 -0.000360982 -0.00034767 0.000441252 -0.000927129)
(-0.00565791 0.00744384 7.0776e-06 0.0178812 -0.000390066 7.1522e-05)
(-0.00202558 0.00610135 -4.0526e-05 0.00457115 -0.000152964 3.66584e-05)
(0.0005786 0.00545054 -5.41015e-05 -0.00355312 1.84641e-05 3.36742e-05)
(0.0038104 0.00562556 -2.85234e-05 -0.0155382 0.000253576 6.85177e-06)
(-0.0103934 0.00234343 2.09978e-06 0.0123837 -0.000514976 0.000287467)
(-0.00442616 0.00652452 -0.000131944 0.0055806 -0.000198558 0.000147551)
(0.000970533 0.00638425 -0.000166218 -0.0031606 6.10789e-05 8.17248e-05)
(0.00671695 0.00241931 -8.10073e-05 -0.0104839 0.000392257 -4.15633e-05)
(-0.00913527 0.00241115 -2.43368e-05 0.0112967 -0.000613668 0.000610609)
(-0.00463336 0.00541392 -0.000210736 0.00489574 -0.000217166 0.000309178)
(0.000451876 0.00546627 -0.000249745 -0.00209285 0.000149988 9.27326e-05)
(0.00507715 0.00249206 -0.000112226 -0.00867742 0.000562031 -0.000194503)
(-0.00805867 0.00191421 -4.20817e-05 0.00896612 -0.000645093 0.000980799)
(-0.00422606 0.0045308 -0.000248091 0.00408374 -0.000205631 0.000486425)
(-0.000113379 0.00462265 -0.000282838 -0.00124062 0.000219299 7.54476e-05)
(0.00372274 0.00208632 -0.000122895 -0.00616449 0.000671131 -0.000409755)
(-0.00686969 0.00150374 -5.13497e-05 0.00683972 -0.000622185 0.00135846)
(-0.00375989 0.00372741 -0.000261641 0.00326162 -0.000177385 0.000662712)
(-0.000520959 0.00386799 -0.000290809 -0.00054668 0.000263069 4.54108e-05)
(0.00246506 0.0017823 -0.000121068 -0.00400957 0.000722765 -0.000646043)
(-0.00587122 0.00104545 -6.44297e-05 0.00500121 -0.000559349 0.00171257)
(-0.00330792 0.0029988 -0.000280115 0.00250046 -0.000143502 0.000830652)
(-0.000796252 0.00322365 -0.000301941 -3.07089e-05 0.00027015 2.3451e-05)
(0.00149403 0.00151583 -0.000119249 -0.00222914 0.00070871 -0.000861825)
(-0.00514282 0.00050413 -0.000101837 0.00373534 -0.000454824 0.00201628)
(-0.00302193 0.00235078 -0.000346273 0.00185351 -0.000107892 0.000988896)
(-0.000964358 0.00263428 -0.000362307 0.000313411 0.000225137 4.09409e-05)
(0.000881217 0.00124499 -0.000140044 -0.000945743 0.000604322 -0.00100129)
(-0.00531387 0.000491117 -0.000217338 0.0029208 -0.000234093 0.00221325)
(-0.00368673 0.0016623 -0.000532712 0.00170645 -4.40193e-05 0.00112807)
(-0.000952027 0.00170051 -0.00056189 0.000537414 0.000107973 0.000145729)
(0.00086747 0.000793382 -0.00026546 -0.000294607 0.000312389 -0.000957091)
(-0.00565424 0.00732493 8.67275e-06 0.0177052 -0.000265409 0.000136424)
(-0.00204101 0.00594305 -1.19712e-05 0.00455639 -0.000102529 6.026e-05)
(0.000563922 0.00527859 -1.90453e-05 -0.00347149 2.68982e-05 2.20922e-06)
(0.00377823 0.0054738 -1.06135e-05 -0.015271 0.00019051 -7.01652e-05)
(-0.010422 0.00227744 9.7965e-06 0.0122897 -0.000313069 0.000423329)
(-0.0044677 0.00637971 -5.46847e-05 0.00557823 -0.000118496 0.000194917)
(0.000940345 0.00623717 -7.28479e-05 -0.00305274 4.12293e-05 1.27589e-05)
(0.00668165 0.00235832 -3.55001e-05 -0.0103022 0.000244905 -0.000208257)
(-0.00921112 0.00236265 -7.75333e-06 0.0112598 -0.000364232 0.000745692)
(-0.00469032 0.0053172 -0.000104984 0.00491939 -0.000126567 0.000352335)
(0.000424268 0.00537227 -0.000125622 -0.00199606 9.19941e-05 1.80836e-05)
(0.00508358 0.00244949 -5.51527e-05 -0.00852683 0.000339222 -0.000371419)
(-0.00815237 0.00188543 -2.12663e-05 0.00897781 -0.000379979 0.00109761)
(-0.00428819 0.00447493 -0.000133567 0.00412477 -0.000118896 0.000520366)
(-0.000135878 0.00457076 -0.00015151 -0.0011563 0.000132187 5.45893e-06)
(0.00374373 0.00206629 -6.40532e-05 -0.00605208 0.000400809 -0.000573587)
(-0.00696635 0.00148778 -2.9728e-05 0.00687981 -0.000367125 0.00145407)
(-0.0038205 0.00370166 -0.000148109 0.00331124 -0.000102932 0.000689199)
(-0.000541038 0.00384765 -0.000162719 -0.000475114 0.000157576 -1.31633e-05)
(0.00248931 0.00177841 -6.58719e-05 -0.0039248 0.000430307 -0.000784615)
(-0.00596128 0.00103637 -4.01561e-05 0.00505116 -0.00033255 0.00179276)
(-0.00336345 0.00299246 -0.000165113 0.00254928 -8.43692e-05 0.000854858)
(-0.000816442 0.00322449 -0.000175532 2.80323e-05 0.000161126 -1.87006e-05)
(0.00151244 0.00152332 -6.77585e-05 -0.00216348 0.000421615 -0.000969235)
(-0.00522122 0.000496568 -6.52335e-05 0.00378279 -0.000273149 0.00208778)
(-0.00307286 0.00235472 -0.000211041 0.00189522 -6.44084e-05 0.00101535)
(-0.000988916 0.00264538 -0.000218265 0.000360066 0.00013371 1.90214e-05)
(0.000887795 0.00125747 -8.35279e-05 -0.000892294 0.000359263 -0.00107422)
(-0.00538727 0.000489734 -0.000138689 0.00296325 -0.000142089 0.00227592)
(-0.00374508 0.00166922 -0.000330599 0.00174594 -2.6415e-05 0.00115758)
(-0.000989239 0.00170734 -0.000345335 0.000576755 6.40083e-05 0.000145774)
(0.000860251 0.000800088 -0.000162612 -0.000254238 0.000185632 -0.000994381)
(-0.00564956 0.00726407 3.57035e-06 0.0176151 -9.31393e-05 0.000163573)
(-0.00204753 0.00586384 -2.04937e-06 0.00454926 -3.5729e-05 6.97118e-05)
(0.000556001 0.00519287 -4.24196e-06 -0.00342954 1.14782e-05 -1.23364e-05)
(0.0037597 0.00539724 -2.51725e-06 -0.0151343 6.94234e-05 -0.000104297)
(-0.0104308 0.00224393 4.60156e-06 0.0122451 -0.000105047 0.000481145)
(-0.00448585 0.00630584 -1.43082e-05 0.00557825 -3.93985e-05 0.00021405)
(0.000924138 0.00616233 -1.99897e-05 -0.00299816 1.45343e-05 -1.97639e-05)
(0.00665929 0.0023276 -9.74428e-06 -0.0102117 8.32268e-05 -0.000283474)
(-0.00924419 0.00233754 -1.48403e-06 0.0112428 -0.000120859 0.00080489)
(-0.0047161 0.00526718 -3.14606e-05 0.00493209 -4.16068e-05 0.000370015)
(0.000409733 0.00532371 -3.79085e-05 -0.00194696 3.10099e-05 -1.80677e-05)
(0.00508292 0.00242761 -1.6409e-05 -0.00845139 0.000113451 -0.000453358)
(-0.00819557 0.00187042 -6.44307e-06 0.00898421 -0.000125621 0.00115054)
(-0.00431696 0.00444588 -4.19535e-05 0.0041457 -3.89328e-05 0.000534537)
(-0.000147243 0.00454371 -4.74844e-05 -0.00111351 4.4151e-05 -2.90721e-05)
(0.00375172 0.00205576 -1.97809e-05 -0.0059955 0.000133337 -0.000651163)
(-0.00701237 0.0014795 -9.73787e-06 0.00689925 -0.000121473 0.00149942)
(-0.00384898 0.00368834 -4.78565e-05 0.00333597 -3.37767e-05 0.00070076)
(-0.000550654 0.00383694 -5.22833e-05 -0.000438798 5.24373e-05 -4.26033e-05)
(0.00250031 0.00177608 -2.08771e-05 -0.0038817 0.000142881 -0.000851863)
(-0.00600504 0.00103173 -1.36728e-05 0.00507446 -0.000110452 0.00183295)
(-0.00338977 0.00298928 -5.45361e-05 0.00257315 -2.78855e-05 0.000866169)
(-0.000825633 0.00322467 -5.75968e-05 5.77843e-05 5.34828e-05 -4.04904e-05)
(0.00152179 0.00152671 -2.20052e-05 -0.00212976 0.000139887 -0.00102301)
(-0.00525989 0.000492948 -2.25437e-05 0.00380377 -9.12539e-05 0.00212541)
(-0.00309708 0.00235684 -7.09172e-05 0.00191524 -2.1468e-05 0.00102829)
(-0.000999736 0.00265062 -7.29479e-05 0.000383678 4.42875e-05 6.58983e-06)
(0.000892508 0.0012632 -2.78244e-05 -0.000864627 0.00011911 -0.0011128)
(-0.00542376 0.000489557 -4.77772e-05 0.00298139 -4.80243e-05 0.00231052)
(-0.00377283 0.00167316 -0.000111995 0.00176486 -8.86378e-06 0.00117204)
(-0.00100567 0.00171052 -0.000116483 0.000597083 2.12446e-05 0.000142749)
(0.00085919 0.000802819 -5.4872e-05 -0.000232634 6.15354e-05 -0.00101788)
)
;

boundaryField
{
    interface
    {
        type            calculated;
        value           nonuniform List<symmTensor> 
192
(
(-0.019326 -1.32593e-05 0.000371583 0.0295524 0.00313779 -0.0023393)
(-0.00911818 -1.69342e-05 0.000611988 0.0151724 -0.00226562 -0.00323355)
(-0.0101045 -3.64488e-05 0.000709891 0.0148081 -0.00147208 -0.00137914)
(-0.00827959 -7.37608e-05 0.000750371 0.0110816 -0.00168902 -0.000376246)
(-0.00704284 -0.000131578 0.000762381 0.00819769 -0.0014841 0.000650878)
(-0.00591842 -0.000221019 0.000749701 0.00573326 -0.0012642 0.00141237)
(-0.00535038 -0.000379246 0.000703771 0.00425857 -0.00103393 0.00201155)
(-0.00482958 -0.000619209 0.00059141 0.00306464 -0.00055713 0.00250818)
(-0.0196244 1.09501e-05 0.000252405 0.0289576 0.0013586 -0.00149306)
(-0.0106142 1.07054e-05 0.000423445 0.0163294 -0.00179033 -0.00237081)
(-0.0104018 -1.31614e-05 0.000490065 0.0147593 -0.00231297 -0.00114963)
(-0.00878399 -6.42885e-05 0.000514662 0.0111223 -0.00242176 4.37542e-05)
(-0.00748308 -0.000141391 0.00051666 0.0080949 -0.00223244 0.00110902)
(-0.00639715 -0.000258317 0.000498731 0.00561455 -0.00190626 0.00195796)
(-0.00579464 -0.000459331 0.000455906 0.00410127 -0.00147726 0.00260004)
(-0.00517301 -0.000732732 0.000370892 0.00293617 -0.000788152 0.00308401)
(-0.0198864 1.46309e-05 0.000170645 0.0285598 0.000165851 -0.000811021)
(-0.0110258 1.49124e-05 0.000287977 0.0158203 -0.00145056 -0.00134281)
(-0.0107351 -9.95069e-06 0.000328683 0.0146546 -0.00197029 -0.000644882)
(-0.00900379 -6.69999e-05 0.000339607 0.0111705 -0.00212507 0.000224679)
(-0.00759931 -0.000155023 0.00033558 0.00821022 -0.00201276 0.0010733)
(-0.00644481 -0.000288342 0.000318904 0.00577225 -0.00174688 0.00179342)
(-0.0057946 -0.000512285 0.00028817 0.00430352 -0.00136037 0.00235565)
(-0.00502594 -0.000794387 0.000233985 0.0031019 -0.0006927 0.00273375)
(-0.0199188 1.30131e-05 0.000118619 0.028059 -0.000416508 -0.00033053)
(-0.0113294 1.21968e-05 0.000202567 0.0153453 -0.00120119 -0.000472051)
(-0.0110925 -1.37832e-05 0.000229825 0.0144757 -0.00155498 1.55325e-05)
(-0.0093333 -7.4425e-05 0.000234628 0.011186 -0.0016796 0.000652373)
(-0.00786778 -0.000169382 0.00022919 0.00833518 -0.00161723 0.00130777)
(-0.006653 -0.000312762 0.000215672 0.0059565 -0.00143073 0.0018913)
(-0.00594969 -0.000550098 0.000194423 0.0045255 -0.00114032 0.00235906)
(-0.00509318 -0.000834203 0.000158342 0.00330339 -0.000601525 0.00267108)
(-0.0198038 1.08742e-05 8.19516e-05 0.0275625 -0.00059388 -5.12304e-05)
(-0.0114999 8.38649e-06 0.000141775 0.0150155 -0.000959343 7.39095e-05)
(-0.0113371 -1.9273e-05 0.000160678 0.0143269 -0.001178 0.000495916)
(-0.00959593 -8.24848e-05 0.000162846 0.0111878 -0.00125717 0.00101469)
(-0.00810941 -0.00018179 0.000157971 0.00843037 -0.00121852 0.00155099)
(-0.0068586 -0.000331523 0.00014791 0.00609749 -0.00109533 0.0020439)
(-0.00611801 -0.000577416 0.000133518 0.00468433 -0.000892493 0.00245267)
(-0.00519283 -0.000861964 0.000108986 0.00343998 -0.000477853 0.00271409)
(-0.0196495 9.15013e-06 5.38858e-05 0.0271476 -0.000540576 0.000103378)
(-0.0115847 5.06026e-06 9.41756e-05 0.0147998 -0.000701763 0.000390915)
(-0.0114879 -2.41517e-05 0.000106787 0.0142261 -0.000829328 0.000800233)
(-0.00977829 -8.92374e-05 0.00010791 0.0111905 -0.000874377 0.00126698)
(-0.00829112 -0.000191401 0.00010424 0.00849593 -0.000849424 0.00174374)
(-0.00702385 -0.000345121 9.73406e-05 0.00619078 -0.000772134 0.00219039)
(-0.00626158 -0.000596573 8.79648e-05 0.00478306 -0.000639345 0.00257073)
(-0.00529733 -0.000881115 7.18105e-05 0.00352512 -0.000346969 0.00280737)
(-0.0195193 8.05751e-06 3.04584e-05 0.0268555 -0.000363459 0.000182855)
(-0.0116205 2.7851e-06 5.36434e-05 0.0146692 -0.000427962 0.000558858)
(-0.0115703 -2.76055e-05 6.08628e-05 0.0141659 -0.000494291 0.000970277)
(-0.00988832 -9.39497e-05 6.14163e-05 0.0111946 -0.0005169 0.00141672)
(-0.00840686 -0.00019789 5.91923e-05 0.00853691 -0.000502586 0.00186795)
(-0.00713342 -0.000354061 5.51562e-05 0.00624574 -0.000460021 0.00229516)
(-0.00635964 -0.000608937 4.95526e-05 0.00483764 -0.000384922 0.00266443)
(-0.00537377 -0.000892956 3.99155e-05 0.00357089 -0.000211479 0.0028898)
(-0.0194466 7.45846e-06 9.75141e-06 0.0267055 -0.000126968 0.000216046)
(-0.0116318 1.53532e-06 1.7263e-05 0.0146074 -0.000143797 0.000630263)
(-0.0116052 -2.94395e-05 1.95797e-05 0.0141379 -0.000164361 0.00104487)
(-0.00993854 -9.63486e-05 1.97434e-05 0.0111974 -0.000171224 0.00148485)
(-0.00846162 -0.000201165 1.90063e-05 0.00855664 -0.00016655 0.00192735)
(-0.00718653 -0.000358803 1.7674e-05 0.00627095 -0.000152962 0.00234829)
(-0.00640693 -0.000615561 1.5687e-05 0.00486101 -0.000128764 0.00271446)
(-0.00541102 -0.000897511 1.23045e-05 0.00358947 -7.16298e-05 0.00293613)
(-0.00541344 0.00753844 -0.000489804 0.0197138 -0.00011741 -0.0100504)
(-0.009824 0.00352266 -0.000847534 0.0109947 -0.000169249 -0.00109445)
(-0.00872331 0.00422317 -0.00100869 0.0115776 -0.000167066 -0.00205769)
(-0.0079124 0.00360411 -0.00109301 0.00882005 -0.000151829 -0.000660669)
(-0.00683574 0.00309577 -0.00114684 0.00672291 -0.000148808 6.9603e-05)
(-0.00596525 0.00239989 -0.00119019 0.00483033 -0.000167136 0.000760713)
(-0.00537655 0.0016077 -0.00124499 0.00363545 -0.000213721 0.00113657)
(-0.00563043 0.00102266 -0.00137234 0.00277182 -0.000276851 0.00181667)
(-0.00207191 0.00642513 -0.000326555 0.00467378 -9.41314e-05 -0.00220601)
(-0.00456792 0.00845178 -0.000607328 0.00442873 -0.000149666 -0.000290901)
(-0.00496112 0.00837178 -0.000717481 0.00464927 -0.000153841 -7.91569e-05)
(-0.00470347 0.00751293 -0.00076495 0.00377932 -0.000124309 0.000394924)
(-0.00429575 0.00644354 -0.000792931 0.00300006 -9.33642e-05 0.000676145)
(-0.00388277 0.00522516 -0.000821246 0.00224667 -7.4978e-05 0.000909429)
(-0.00359986 0.00395439 -0.000874441 0.00169565 -7.69872e-05 0.00107165)
(-0.00412949 0.00241019 -0.00104092 0.00151527 -9.05302e-05 0.00152181)
(0.000825221 0.00583327 -0.00026351 -0.00496756 -6.51371e-05 0.00231183)
(0.00151172 0.00823437 -0.000533378 -0.00303766 -0.000117294 0.000599583)
(0.00106977 0.00838623 -0.000645072 -0.00269438 -0.000127771 0.000725865)
(0.000560128 0.00759078 -0.000689653 -0.00180746 -9.88607e-05 0.000519805)
(0.000166839 0.00656418 -0.000711304 -0.00117719 -6.06832e-05 0.000384333)
(-7.20184e-05 0.00541273 -0.000733402 -0.000704343 -2.86467e-05 0.000231262)
(-0.000170699 0.00416782 -0.00078251 -0.000410604 -9.50346e-06 8.7858e-05)
(5.55011e-05 0.00242717 -0.000951193 -6.95556e-05 -3.05231e-06 -0.000311054)
(0.00392615 0.00600975 -0.000252541 -0.0188729 -6.13968e-05 0.00955147)
(0.00682115 0.00343353 -0.000546182 -0.00983751 -0.000110947 0.00161294)
(0.00524712 0.00429277 -0.000671757 -0.0097699 -0.000117609 0.00267551)
(0.00415249 0.00376354 -0.000721693 -0.00694246 -8.39719e-05 0.00156171)
(0.00301081 0.00330668 -0.000742845 -0.00487263 -4.09409e-05 0.000962918)
(0.00219229 0.00272512 -0.000762114 -0.00313107 -2.66696e-06 0.00035239)
(0.00174891 0.00206999 -0.000806533 -0.00201291 3.15256e-05 -0.000103317)
(0.00195325 0.00114378 -0.000968748 -0.00115974 6.94736e-05 -0.000826261)
(0.0161551 7.01555e-05 6.0856e-05 -0.0271277 -0.00374958 0.00243337)
(0.00680491 0.000115661 0.000141075 -0.0143047 0.00164901 0.00375085)
(0.00704816 0.000112964 0.000157887 -0.0131706 0.00111598 0.00235951)
(0.00500898 7.14696e-05 0.000155447 -0.00930166 0.00146412 0.00160202)
(0.00363928 2.72567e-05 0.000159118 -0.00635485 0.00141386 0.000728546)
(0.00250352 -5.57602e-06 0.000178881 -0.00390672 0.00132758 2.38556e-06)
(0.00190191 -5.05593e-05 0.000223862 -0.00226719 0.00114489 -0.00065629)
(0.00181254 -0.000264631 0.000295518 -0.00119245 0.00054059 -0.00129037)
(0.0158467 2.80399e-05 -2.75804e-05 -0.0260675 -0.00196375 0.00167365)
(0.00783321 5.61405e-05 -8.77068e-06 -0.0153716 0.00118799 0.00300187)
(0.00683147 6.01419e-05 -1.14869e-05 -0.0130577 0.0019221 0.00221298)
(0.00491533 4.21132e-05 -1.96187e-05 -0.00925598 0.00225657 0.00129006)
(0.00345905 2.4557e-05 -1.68013e-05 -0.00615343 0.00229514 0.000372143)
(0.00233738 1.99469e-05 2.90596e-06 -0.00363171 0.00216074 -0.000443943)
(0.00169908 1.03301e-05 4.12778e-05 -0.00186877 0.00182647 -0.001143)
(0.00171134 -0.000197483 0.000105943 -0.000839255 0.00101356 -0.00178383)
(0.0158541 5.30413e-06 -3.67432e-05 -0.0254541 -0.000612542 0.000945967)
(0.00814879 2.03876e-05 -2.37248e-05 -0.0147566 0.00104884 0.00177702)
(0.00706206 2.86636e-05 -1.73127e-05 -0.0127311 0.00170559 0.00137601)
(0.00504156 2.69149e-05 -1.52134e-05 -0.00906616 0.00204847 0.00073397)
(0.00347781 2.89068e-05 -6.81342e-06 -0.00601311 0.00214195 2.80847e-05)
(0.00227368 4.42765e-05 1.21399e-05 -0.0035113 0.00204919 -0.000630058)
(0.00156218 5.47071e-05 4.05643e-05 -0.00175116 0.00175098 -0.00118945)
(0.00142872 -0.000141385 7.65875e-05 -0.000725226 0.000942867 -0.00157581)
(0.0156568 -3.03723e-06 -2.80748e-05 -0.0247363 9.58369e-05 0.000451441)
(0.00834386 5.43904e-06 -1.36777e-05 -0.0141874 0.000937188 0.000834546)
(0.0072739 1.55408e-05 -1.67943e-06 -0.0123362 0.00140115 0.000573239)
(0.00522336 2.37648e-05 5.77367e-06 -0.00882428 0.00167039 0.000126072)
(0.00359686 3.90446e-05 1.58337e-05 -0.00586018 0.00176863 -0.000391101)
(0.00232793 6.79055e-05 3.14672e-05 -0.0034063 0.00171403 -0.000888556)
(0.00154529 8.76512e-05 5.08144e-05 -0.00166325 0.00147762 -0.00129791)
(0.00132228 -0.000104636 6.96043e-05 -0.000676048 0.000801222 -0.00150201)
(0.0153587 -5.64883e-06 -1.8398e-05 -0.0240421 0.000376058 0.000153085)
(0.00842515 5.58977e-07 -4.82062e-06 -0.0137578 0.000786435 0.000229784)
(0.00739605 1.22064e-05 7.65359e-06 -0.0119982 0.00109527 -3.90568e-06)
(0.00535884 2.64226e-05 1.60632e-05 -0.00859854 0.00128274 -0.000358122)
(0.00370893 4.97883e-05 2.49143e-05 -0.0057104 0.00135964 -0.000758486)
(0.00239984 8.65387e-05 3.60215e-05 -0.00330025 0.00132556 -0.00114067)
(0.00156525 0.000111087 4.76562e-05 -0.00157669 0.00114831 -0.00143646)
(0.00128175 -8.04053e-05 5.78232e-05 -0.000620746 0.000623171 -0.0015115)
(0.0150691 -6.13176e-06 -1.07904e-05 -0.0234692 0.000403711 -1.99909e-05)
(0.00844036 -1.97167e-07 1.15162e-07 -0.0134496 0.000593315 -0.000135485)
(0.00745241 1.2867e-05 1.02432e-05 -0.0117439 0.000787705 -0.000377099)
(0.00544187 3.05827e-05 1.72324e-05 -0.0084217 0.000908197 -0.000692167)
(0.00378874 5.85081e-05 2.37666e-05 -0.00558608 0.000959575 -0.00103066)
(0.00245992 9.95342e-05 3.09273e-05 -0.00320777 0.0009367 -0.00134398)