/*--------------------------------*- C++ -*----------------------------------*\
| =========                 |                                                 |
| \\      /  F ield         | foam-extend: Open Source CFD                    |
|  \\    /   O peration     | Version:     3.1                                |
|   \\  /    A nd           | Web:         http://www.extend-project.de       |
|    \\/     M anipulation  |                                                 |
\*---------------------------------------------------------------------------*/
FoamFile
{
    version     2.0;
    format      ascii;
    class       pointVectorField;
    location    "1.6";
    object      pointD;
}
// * * * * * * * * * * * * * * * * * * * * * * * * * * * * * * * * * * * * * //

dimensions      [0 1 0 0 0 0 0];

internalField   nonuniform List<vector> 
405
(
(0 0 0)
(0 0 0)
(0 0 0)
(0 0 0)
(0 0 0)
(0.000769227 0.000726401 0.000226375)
(0.00049532 0.000232621 0.000158105)
(0.000390763 -7.51564e-06 -8.03211e-06)
(0.000431131 -0.000248626 -0.000179761)
(0.000624787 -0.00071751 -0.000268089)
(0.00150123 0.00105764 6.24877e-05)
(0.00126864 0.000425041 6.20138e-05)
(0.00113915 -2.18014e-06 -2.78407e-05)
(0.00116911 -0.00042825 -0.000130385)
(0.00130333 -0.00105271 -0.000165348)
(0.00243884 0.00140837 -6.93886e-05)
(0.00221279 0.000614416 -1.73124e-05)
(0.00208266 4.79208e-06 -4.75837e-05)
(0.00209522 -0.000605189 -9.00941e-05)
(0.00220261 -0.00140051 -7.60589e-05)
(0.00347254 0.00166217 -0.000215324)
(0.00327196 0.00075572 -0.000101837)
(0.00314782 7.01924e-06 -6.31777e-05)
(0.00314477 -0.000742707 -3.68879e-05)
(0.00321547 -0.00165446 3.72197e-05)
(0.00457829 0.0018454 -0.000342958)
(0.00439896 0.000857567 -0.000175163)
(0.00428187 3.88239e-06 -7.51358e-05)
(0.00426742 -0.000849491 1.33382e-05)
(0.00431047 -0.00184159 0.000143291)
(0.00571729 0.00196667 -0.000448352)
(0.00555454 0.000924529 -0.000236385)
(0.00544457 -4.57623e-06 -8.56662e-05)
(0.00542323 -0.000930094 5.62216e-05)
(0.00544747 -0.00197073 0.000235696)
(0.00686783 0.00205224 -0.000530511)
(0.00671343 0.000967054 -0.000288434)
(0.00660519 -1.6171e-05 -9.79855e-05)
(0.00658073 -0.000992826 8.72932e-05)
(0.00659781 -0.00206225 0.000305406)
(0.00803741 0.00210578 -0.000577171)
(0.00785863 0.000998389 -0.000321782)
(0.00771798 -2.27548e-05 -0.000110418)
(0.00770393 -0.00103974 9.56222e-05)
(0.00773603 -0.00212459 0.000329957)
(0 0 0)
(0 0 0)
(0 0 0)
(0 0 0)
(0 0 0)
(0.000778443 0.000705634 0.000109267)
(0.000517077 0.000220724 8.17725e-05)
(0.000432781 -1.21642e-06 -7.56639e-06)
(0.000461792 -0.000219295 -0.000103252)
(0.000644239 -0.000676122 -0.000146589)
(0.00147773 0.00110652 1.76452e-05)
(0.00126342 0.000468059 2.93018e-05)
(0.00116077 7.48617e-06 -2.41299e-05)
(0.00117724 -0.000449679 -8.75161e-05)
(0.00129751 -0.00107958 -9.96595e-05)
(0.00235789 0.00145764 -9.37566e-05)
(0.00215459 0.000659692 -3.62246e-05)
(0.00205299 1.58029e-05 -4.04597e-05)
(0.00205289 -0.000627199 -5.4886e-05)
(0.00214335 -0.00142585 -2.39797e-05)
(0.00333875 0.00171403 -0.000210335)
(0.00315952 0.000802851 -0.000102985)
(0.00306289 1.97143e-05 -5.38901e-05)
(0.00304883 -0.000763513 -1.50793e-05)
(0.0031044 -0.00167893 6.4863e-05)
(0.0043939 0.00189214 -0.000316522)
(0.00423493 0.000901235 -0.000163435)
(0.00414416 1.87956e-05 -6.47908e-05)
(0.00411987 -0.000863028 2.42473e-05)
(0.00414888 -0.00185701 0.000151303)
(0.00548975 0.00200665 -0.000405989)
(0.005346 0.000963343 -0.000214851)
(0.00526065 1.33677e-05 -7.49942e-05)
(0.00523013 -0.000933344 5.72705e-05)
(0.00524131 -0.00197379 0.000226447)
(0.00660568 0.00208215 -0.00047484)
(0.00646877 0.00099783 -0.000257046)
(0.00638308 4.68422e-06 -8.72455e-05)
(0.00635055 -0.000981682 7.74289e-05)
(0.00635605 -0.00204737 0.00027982)
(0.00775705 0.00212781 -0.000510554)
(0.00759467 0.0010226 -0.000282274)
(0.00747506 -1.47145e-07 -0.000100848)
(0.00745297 -0.0010175 7.41391e-05)
(0.00747397 -0.00209569 0.000288422)
(0 0 0)
(0 0 0)
(0 0 0)
(0 0 0)
(0 0 0)
(0.000785451 0.000697882 3.45576e-05)
(0.000511429 0.000221148 2.99465e-05)
(0.000421226 2.22457e-06 -8.32072e-06)
(0.000451668 -0.000212891 -5.08196e-05)
(0.000639833 -0.000662089 -6.29785e-05)
(0.00146151 0.00108806 -2.63343e-05)
(0.00123473 0.000470375 -5.4942e-06)
(0.00112612 1.44142e-05 -2.20245e-05)
(0.00114412 -0.000438495 -4.44676e-05)
(0.00127155 -0.00105005 -3.34291e-05)
(0.00230035 0.00144005 -0.000107359)
(0.0020919 0.000666299 -5.33885e-05)
(0.00198778 2.60335e-05 -3.54973e-05)
(0.0019862 -0.000613503 -2.34437e-05)
(0.0020769 -0.00138879 2.01874e-05)
(0.00324117 0.00169976 -0.000194796)
(0.00305819 0.000812189 -0.000104031)
(0.0029602 3.33102e-05 -4.70267e-05)
(0.0029437 -0.000745448 4.26523e-06)
(0.00299804 -0.00163668 8.47964e-05)
(0.00425677 0.00188186 -0.000277198)
(0.00409555 0.000912933 -0.00015135)
(0.00400429 3.57696e-05 -5.68781e-05)
(0.00397686 -0.000839988 3.24646e-05)
(0.00400312 -0.00180973 0.000149258)
(0.00531689 0.00200079 -0.000348473)
(0.00517197 0.000976559 -0.00019249)
(0.00508705 3.36105e-05 -6.66161e-05)
(0.00505292 -0.000904429 5.55022e-05)
(0.00506017 -0.00192143 0.000205122)
(0.00640202 0.00208151 -0.000403937)
(0.00626558 0.00101165 -0.000225948)
(0.00618127 2.78424e-05 -7.8746e-05)
(0.00614476 -0.000946344 6.61938e-05)
(0.00614523 -0.00198997 0.000242304)
(0.00753295 0.00213044 -0.000429317)
(0.00737154 0.00103655 -0.00024442)
(0.00725251 2.56373e-05 -9.4239e-05)
(0.00722434 -0.000975867 5.15295e-05)
(0.00723864 -0.0020326 0.000234527)
(0 0 0)
(0 0 0)
(0 0 0)
(0 0 0)
(0 0 0)
(0.000777654 0.000686504 -6.01179e-06)
(0.000496269 0.0002189 2.69614e-06)
(0.00040036 4.46135e-06 -7.79935e-06)
(0.000431017 -0.000206227 -2.05897e-05)
(0.000621997 -0.00064365 -1.57091e-05)
(0.00143312 0.00106361 -5.29764e-05)
(0.00119703 0.000464831 -2.43291e-05)
(0.00108141 1.99793e-05 -1.88389e-05)
(0.00109963 -0.000421963 -1.64472e-05)
(0.00123238 -0.00101474 8.01239e-06)
(0.00224333 0.00141205 -0.000113072)
(0.0020272 0.000661532 -5.97959e-05)
(0.00191701 3.54182e-05 -2.96447e-05)
(0.00191482 -0.000590028 -2.25843e-06)
(0.00200953 -0.00134212 4.73187e-05)
(0.00315324 0.00167366 -0.000178089)
(0.00296458 0.000809972 -9.76783e-05)
(0.00286154 4.66987e-05 -3.91998e-05)
(0.00284374 -0.000716186 1.67873e-05)
(0.00290046 -0.00158288 9.39774e-05)
(0.00413858 0.00186046 -0.000240715)
(0.00397343 0.000914316 -0.000133912)
(0.00387805 5.31464e-05 -4.78035e-05)
(0.00384885 -0.000805825 3.63073e-05)
(0.00387596 -0.001751 0.00014085)
(0.00517075 0.00198561 -0.000296076)
(0.0050234 0.000981818 -0.000166163)
(0.00493533 5.47462e-05 -5.68033e-05)
(0.00489902 -0.000865849 5.14995e-05)
(0.00490563 -0.00185899 0.000181077)
(0.0062312 0.00207365 -0.000339697)
(0.00609405 0.00102063 -0.000192544)
(0.00600731 5.23353e-05 -6.8394e-05)
(0.00596777 -0.00090375 5.5595e-05)
(0.00596559 -0.00192423 0.000205559)
(0.00734391 0.00212935 -0.000358348)
(0.00718229 0.00104946 -0.000206882)
(0.0070597 5.31188e-05 -8.4082e-05)
(0.00702597 -0.00093044 3.67312e-05)
(0.00703532 -0.00196473 0.000190771)
(0 0 0)
(0 0 0)
(0 0 0)
(0 0 0)
(0 0 0)
(0.000764343 0.000674146 -2.25443e-05)
(0.000479544 0.000216217 -9.1253e-06)
(0.000380187 6.26682e-06 -6.35775e-06)
(0.000410116 -0.00019966 -4.72584e-06)
(0.000601025 -0.000624197 6.84966e-06)
(0.00140169 0.00104197 -6.00836e-05)
(0.00115926 0.000458908 -3.04008e-05)
(0.00103896 2.4825e-05 -1.48896e-05)
(0.00105647 -0.000406097 -9.49856e-07)
(0.00119213 -0.000982252 2.70991e-05)
(0.00218957 0.00138686 -0.000105283)
(0.00196692 0.000655453 -5.67909e-05)
(0.00185214 4.38783e-05 -2.32475e-05)
(0.00184925 -0.000566845 9.10542e-06)
(0.00194712 -0.00129935 5.67238e-05)
(0.00307599 0.0016494 -0.000153467)
(0.00288161 0.000805824 -8.48373e-05)
(0.00277451 5.8992e-05 -3.0849e-05)
(0.00275588 -0.00068714 2.22437e-05)
(0.00281528 -0.00153306 9.0572e-05)
(0.00403835 0.00183988 -0.000200326)
(0.00386857 0.000913353 -0.000112079)
(0.00376978 6.92409e-05 -3.80302e-05)
(0.00373961 -0.000772069 3.55124e-05)
(0.00376857 -0.00169632 0.000124216)
(0.00504897 0.00197008 -0.000242494)
(0.00489812 0.000984503 -0.000136832)
(0.00480732 7.43671e-05 -4.59037e-05)
(0.00476981 -0.000828221 4.51515e-05)
(0.00477724 -0.0018007 0.000152578)
(0.00608981 0.00206377 -0.000276163)
(0.00595034 0.00102685 -0.000157271)
(0.00586122 7.50582e-05 -5.62085e-05)
(0.00581983 -0.000862895 4.55148e-05)
(0.00581707 -0.00186288 0.000168208)
(0.00718649 0.00212429 -0.000289399)
(0.00702271 0.00105909 -0.000167934)
(0.0068967 7.86753e-05 -7.02515e-05)
(0.00685935 -0.000887118 2.6783e-05)
(0.00686662 -0.00190117 0.000151801)
(0 0 0)
(0 0 0)
(0 0 0)
(0 0 0)
(0 0 0)
(0.00075077 0.000663115 -2.51089e-05)
(0.000465013 0.000213894 -1.20363e-05)
(0.000363726 7.7721e-06 -4.62265e-06)
(0.00039268 -0.00019401 2.27245e-06)
(0.000582063 -0.00060707 1.44968e-05)
(0.00137304 0.00102483 -5.38494e-05)
(0.00112695 0.000454252 -2.81372e-05)
(0.00100381 2.89167e-05 -1.08133e-05)
(0.00102038 -0.00039292 5.73585e-06)
(0.0011572 -0.00095551 3.08916e-05)
(0.00214347 0.00136722 -8.67966e-05)
(0.00191647 0.000650632 -4.71495e-05)
(0.0017987 5.10267e-05 -1.69214e-05)
(0.00179513 -0.000547485 1.28539e-05)
(0.00189487 -0.00126455 5.26222e-05)
(0.00301215 0.00163043 -0.000121379)
(0.0028135 0.000802451 -6.71824e-05)
(0.00270365 6.9361e-05 -2.26127e-05)
(0.00268448 -0.000662752 2.17495e-05)
(0.00274588 -0.00149248 7.65594e-05)
(0.00395728 0.00182355 -0.000155146)
(0.00378376 0.00091242 -8.68313e-05)
(0.0036826 8.27699e-05 -2.82006e-05)
(0.00365194 -0.000743642 3.05029e-05)
(0.00368258 -0.00165154 9.99753e-05)
(0.0049516 0.00195727 -0.00018591)
(0.0047977 0.000986357 -0.000104961)
(0.00470495 9.07786e-05 -3.45315e-05)
(0.00466688 -0.000796533 3.63782e-05)
(0.00467538 -0.00175267 0.000119314)
(0.0059771 0.00205471 -0.000210709)
(0.00583539 0.00103134 -0.000120037)
(0.00574453 9.39607e-05 -4.28532e-05)
(0.00570217 -0.000828552 3.51168e-05)
(0.00569963 -0.00181208 0.000129019)
(0.0070604 0.00211851 -0.000219903)
(0.00689435 0.00106618 -0.00012767)
(0.0067658 9.98966e-05 -5.40877e-05)
(0.00672642 -0.000850678 1.93844e-05)
(0.00673304 -0.00184828 0.000114619)
(0 0 0)
(0 0 0)
(0 0 0)
(0 0 0)
(0 0 0)
(0.000739833 0.000654662 -1.99422e-05)
(0.000454188 0.000212181 -1.00539e-05)
(0.000351871 8.92071e-06 -2.94178e-06)
(0.000379958 -0.000189743 3.95577e-06)
(0.000567562 -0.000594042 1.34934e-05)
(0.00135085 0.00101253 -3.94895e-05)
(0.00110283 0.000451049 -2.09301e-05)
(0.000978062 3.20323e-05 -6.95593e-06)
(0.000993802 -0.0003832 6.65517e-06)
(0.00113087 -0.000935816 2.50928e-05)
(0.00210861 0.00135339 -6.12002e-05)
(0.00187898 0.000647393 -3.33464e-05)
(0.0017594 5.64406e-05 -1.09563e-05)
(0.00175531 -0.00053321 1.12932e-05)
(0.00185599 -0.00123913 3.94995e-05)
(0.00296466 0.00161715 -8.37418e-05)
(0.00276322 0.000800258 -4.63375e-05)
(0.00265165 7.71692e-05 -1.47557e-05)
(0.00263215 -0.000644733 1.68538e-05)
(0.0026948 -0.0014629 5.49505e-05)
(0.00389761 0.00181202 -0.000105793)
(0.00372151 0.000911923 -5.91575e-05)
(0.00361884 9.28995e-05 -1.85886e-05)
(0.00358794 -0.000722595 2.2185e-05)
(0.00361979 -0.00161881 6.98561e-05)
(0.00488034 0.00194799 -0.000126038)
(0.00472423 0.000987747 -7.11065e-05)
(0.00463024 0.000102997 -2.30198e-05)
(0.00459192 -0.000773037 2.55104e-05)
(0.00460135 -0.00171745 8.19551e-05)
(0.00589475 0.0020477 -0.000142447)
(0.00575129 0.00103448 -8.10844e-05)
(0.00565931 0.000107964 -2.88397e-05)
(0.0056165 -0.000803065 2.40114e-05)
(0.00561445 -0.00177467 8.75852e-05)
(0.00696803 0.00211347 -0.000148299)
(0.00680013 0.00107102 -8.60298e-05)
(0.0066699 0.000115576 -3.66023e-05)
(0.00662948 -0.000823549 1.28675e-05)
(0.00663614 -0.00180913 7.71713e-05)
(0 0 0)
(0 0 0)
(0 0 0)
(0 0 0)
(0 0 0)
(0.000732888 0.000649407 -1.08011e-05)
(0.000447599 0.000211143 -5.5548e-06)
(0.000344785 9.64068e-06 -1.41604e-06)
(0.000372293 -0.000187106 2.64981e-06)
(0.000558585 -0.000585977 7.78069e-06)
(0.00133698 0.00100514 -2.07015e-05)
(0.00108806 0.000449192 -1.10445e-05)
(0.000962469 3.39783e-05 -3.38626e-06)
(0.000977662 -0.000377271 4.13017e-06)
(0.00111466 -0.000923804 1.37925e-05)
(0.00208702 0.00134519 -3.15129e-05)
(0.00185603 0.000645563 -1.71945e-05)
(0.0017355 5.98074e-05 -5.36605e-06)
(0.00173106 -0.000524512 6.43274e-06)
(0.00183216 -0.00122371 2.09953e-05)
(0.00293545 0.00160931 -4.26713e-05)
(0.00273248 0.00079907 -2.36025e-05)
(0.00261999 8.20027e-05 -7.26962e-06)
(0.00260029 -0.000633752 9.11765e-06)
(0.00266361 -0.00144497 2.86004e-05)
(0.0038611 0.0018052 -5.35984e-05)
(0.00368351 0.000911731 -2.99475e-05)
(0.00358002 9.91418e-05 -9.22082e-06)
(0.00354903 -0.000709756 1.16451e-05)
(0.00358157 -0.00159897 3.58726e-05)
(0.00483683 0.0019424 -6.36714e-05)
(0.00467944 0.000988635 -3.58948e-05)
(0.00458476 0.000110496 -1.15005e-05)
(0.00454636 -0.000758692 1.31422e-05)
(0.00455639 -0.00169605 4.17121e-05)
(0.00584448 0.00204329 -7.18577e-05)
(0.00569997 0.00103634 -4.08712e-05)
(0.00560739 0.000116532 -1.44888e-05)
(0.0055644 -0.000787489 1.22107e-05)
(0.00556274 -0.00175189 4.4301e-05)
(0.00691154 0.00211007 -7.47208e-05)
(0.00674254 0.00107382 -4.33092e-05)
(0.00661138 0.000125162 -1.84389e-05)
(0.00657048 -0.00080693 6.47228e-06)
(0.00657733 -0.00178522 3.88869e-05)
(0 0 0)
(0 0 0)
(0 0 0)
(0 0 0)
(0 0 0)
(0.000730516 0.000647629 -0)
(0.000445393 0.000210796 0)
(0.000342432 9.88576e-06 0)
(0.000369738 -0.000186215 0)
(0.000555556 -0.000583253 0)
(0.00133227 0.00100267 -0)
(0.0010831 0.000448585 0)
(0.000957258 3.46394e-05 0)
(0.00097226 -0.00037528 0)
(0.00110919 -0.000919771 0)
(0.00207971 0.00134247 -0)
(0.00184831 0.000644973 0)
(0.00172748 6.09487e-05 0)
(0.00172293 -0.000521595 0)
(0.00182413 -0.00121854 0)
(0.00292559 0.00160672 -0)
(0.00272215 0.000798697 0)
(0.00260936 8.36373e-05 0)
(0.0025896 -0.000630069 0)
(0.00265313 -0.00143897 0)
(0.0038488 0.00180294 -0)
(0.00367074 0.000911686 0)
(0.003567 0.000101248 0)
(0.00353597 -0.000705448 0)
(0.00356874 -0.00159233 0)
(0.00482219 0.00194054 -0)
(0.00466438 0.00098894 0)
(0.00456949 0.000113022 0)
(0.00453108 -0.000753876 0)
(0.0045413 -0.00168889 0)
(0.00582755 0.00204177 -0)
(0.00568272 0.00103696 0)
(0.00558995 0.000119415 0)
(0.00554691 -0.000782258 0)
(0.0055454 -0.00174426 0)
(0.0068925 0.00210883 -0)
(0.00672316 0.00107473 -0)
(0.00659171 0.000128389 -0)
(0.00655067 -0.00080134 0)
(0.0065576 -0.0017772 0)
)
;

boundaryField
{
    interface
    {
        type            calculated;
    }
    symmetry
    {
        type            symmetryPlane;
    }
    bottom
    {
        type            fixedValue;
        value           uniform (0 0 0);
    }
}


// ************************************************************************* //
