/*--------------------------------*- C++ -*----------------------------------*\
| =========                 |                                                 |
| \\      /  F ield         | foam-extend: Open Source CFD                    |
|  \\    /   O peration     | Version:     3.1                                |
|   \\  /    A nd           | Web:         http://www.extend-project.de       |
|    \\/     M anipulation  |                                                 |
\*---------------------------------------------------------------------------*/
FoamFile
{
    version     2.0;
    format      ascii;
    class       volSymmTensorField;
    location    "1.6";
    object      sigmaCauchy;
}
// * * * * * * * * * * * * * * * * * * * * * * * * * * * * * * * * * * * * * //

dimensions      [1 -1 -2 0 0 0 0];

internalField   nonuniform List<symmTensor> 
256
(
(135.815 62.1333 -1.49191 319.06 21.1775 157.592)
(16.8519 49.9466 -6.58282 61.5451 7.90226 23.0915)
(-38.2469 43.8546 -7.21579 -77.4546 -9.22556 -39.2325)
(-151.019 39.783 -3.64278 -300.265 -20.3794 -165.288)
(-65.1972 27.2335 -3.35159 88.4183 -12.6834 -19.0563)
(-27.7224 59.5863 -11.4848 32.2761 -4.98755 -9.51537)
(-2.42086 55.7949 -11.8014 -41.0974 1.88054 -5.76089)
(28.5685 19.7111 -4.35348 -97.5962 8.32837 2.07385)
(-27.5733 30.9121 -2.25545 112.459 -7.70198 20.5609)
(-29.3801 55.5212 -9.06494 28.8561 -2.62054 -5.11782)
(-4.76796 52.7719 -9.42977 -36.0702 0.522552 -8.12515)
(-4.42604 22.7342 -3.31599 -110.916 4.84136 -27.5573)
(-37.0689 26.169 -2.68371 76.3151 -8.57099 11.021)
(-30.7553 49.1377 -8.52088 18.8013 -2.49557 -5.79828)
(-4.24929 47.0327 -8.63915 -26.2353 1.46509 -5.38226)
(4.01862 19.6258 -3.46461 -75.4161 6.76662 -15.3611)
(-34.8788 22.112 -2.6305 54.9049 -7.29707 11.8849)
(-29.7004 41.7328 -7.85435 11.4983 -1.80909 -4.69044)
(-5.29926 40.3112 -7.87094 -19.4853 1.75641 -5.02684)
(1.97065 17.281 -3.2781 -54.0568 6.70203 -14.1611)
(-35.8135 17.0761 -2.85648 34.5739 -6.10765 9.70733)
(-29.3218 33.78 -7.58208 4.6171 -1.35516 -4.6503)
(-5.8486 33.229 -7.43273 -14.0179 1.88433 -4.79626)
(2.38073 14.4382 -3.23747 -34.8935 6.45109 -11.8521)
(-35.0649 11.6845 -3.48071 23.116 -5.16295 10.5406)
(-30.1099 25.7955 -7.71124 -0.867356 -1.32683 -4.9454)
(-6.2556 25.7724 -7.29332 -10.2849 1.70703 -5.30728)
(2.92022 11.0993 -3.31652 -22.1522 5.70661 -11.7963)
(-46.6396 8.64106 -4.32915 8.01955 -2.72146 4.15064)
(-42.8963 16.8216 -8.09829 -9.35285 -0.624309 -11.6619)
(-1.09765 15.4137 -7.73247 -2.80673 0.917398 -2.44109)
(10.9202 6.10909 -4.01825 -9.23479 2.76157 -8.80169)
(139.412 63.9932 -0.726139 319.393 9.67815 165.828)
(23.1303 52.4777 -5.06236 66.6436 3.57595 29.8482)
(-37.3557 46.6178 -5.85797 -72.805 -5.65411 -39.6207)
(-148.255 41.7646 -2.87394 -291.678 -11.2108 -166.775)
(-39.1857 24.8198 -1.81793 123.863 -9.81411 11.6838)
(-9.19949 56.3007 -10.0288 53.4087 -3.87997 8.25196)
(-17.3287 52.3822 -11.19 -56.8664 0.639319 -20.7727)
(2.11521 17.431 -4.5864 -128.93 5.52205 -27.5691)
(-21.6753 25.4147 -1.24383 117.872 -12.5024 26.2525)
(-19.7907 47.4559 -9.00147 36.5669 -4.31688 1.56709)
(-11.7905 44.8597 -10.2232 -40.2439 2.27012 -13.1927)
(-11.0727 17.7169 -3.99044 -114.63 9.39629 -32.7562)
(-26.9044 20.8854 -0.934594 85.473 -12.7901 21.0933)
(-20.2855 40.4208 -7.79018 27.0329 -3.91655 1.59954)
(-11.7117 38.3746 -8.90238 -30.3267 3.29508 -10.9222)
(-6.44693 14.6188 -3.56445 -82.1288 11.2884 -24.391)
(-26.448 16.9997 -0.562524 61.303 -11.609 20.2383)
(-20.277 33.4603 -6.80656 18.3331 -3.19203 1.53283)
(-11.401 32.1199 -7.8341 -21.7613 3.82122 -9.24142)
(-6.68255 12.5064 -3.04736 -57.9619 11.7076 -21.4363)
(-27.0208 12.7284 -0.495956 41.0198 -9.79695 18.7317)
(-20.1796 26.807 -6.23706 11.0711 -2.45826 1.33407)
(-11.1332 26.3392 -7.09966 -15.2514 3.84549 -8.34429)
(-6.00402 10.4606 -2.67337 -38.0206 11.1442 -19.2026)
(-26.8464 8.17602 -0.914078 28.4487 -7.63007 19.0284)
(-22.0226 20.5883 -6.29871 4.21396 -1.90484 -0.044715)
(-10.4601 20.7636 -6.92591 -10.3288 3.25327 -7.86222)
(-3.89761 8.27738 -2.53012 -23.0915 9.4261 -17.7309)
(-38.3206 6.85967 -2.01537 13.4497 -3.97819 12.3954)
(-35.7518 14.2663 -7.39912 -5.20672 -0.818902 -7.8861)
(-5.86698 13.0633 -8.23057 -3.88417 1.88875 -5.59984)
(3.51177 4.9505 -3.70757 -11.3125 5.22422 -15.3136)
(140.183 63.7782 -0.604912 320.001 1.85373 172.392)
(24.5894 50.8397 -3.01676 69.3058 0.567324 34.1024)
(-37.6507 44.6854 -3.52351 -71.8412 -2.78506 -41.4082)
(-148.82 40.7324 -1.75772 -289.914 -4.08482 -171.949)
(-39.2686 23.573 -1.47856 124.883 -7.99953 21.2278)
(-8.27125 53.8102 -6.46045 56.6799 -3.24047 14.2315)
(-19.2629 49.9065 -7.35373 -57.3524 0.523713 -25.1938)
(-1.54888 16.3533 -3.29229 -130.773 4.81182 -39.5846)
(-22.5678 23.7798 -1.47788 119.721 -10.8152 31.7976)
(-19.5908 44.4574 -6.59901 39.4332 -3.84285 5.69295)
(-13.8767 41.902 -7.52414 -40.8904 2.22764 -16.5681)
(-14.3654 16.1984 -3.15283 -116.992 8.51082 -41.71)
(-27.8597 19.2916 -1.33846 86.9978 -11.4441 24.0002)
(-20.1491 37.0342 -6.04256 29.4538 -3.61832 4.66872)
(-13.9606 35.0557 -6.85689 -30.6205 3.37467 -13.4036)
(-10.1357 13.2065 -2.7847 -84.456 10.5562 -31.2769)
(-27.8764 15.4144 -1.12339 62.1953 -10.657 21.0731)
(-20.0688 30.2671 -5.35858 20.5994 -2.9928 4.04273)
(-13.5523 29.047 -6.07246 -21.7665 4.0113 -10.9689)
(-9.86935 11.2384 -2.34534 -59.528 11.2649 -26.1726)
(-28.4351 11.292 -1.05182 41.6164 -9.09757 18.4566)
(-19.7749 24.1206 -4.94399 13.1833 -2.26139 3.53753)
(-13.0309 23.877 -5.52144 -14.8777 4.10107 -9.34263)
(-8.75948 9.56307 -1.99874 -38.8141 10.8854 -22.2185)
(-27.7709 6.88225 -1.3448 29.1819 -6.99123 18.291)
(-21.4165 18.6596 -5.16794 6.09491 -1.57049 1.87835)
(-12.0566 19.177 -5.62228 -9.60367 3.49699 -8.06543)
(-6.15243 7.83495 -1.97236 -23.0168 9.2461 -19.0145)
(-39.7862 6.17107 -2.41705 13.0862 -3.33206 10.0371)
(-35.4885 13.3617 -6.69945 -3.80015 -0.442018 -6.53867)
(-7.18727 12.4077 -7.48282 -2.67755 1.91391 -4.31573)
(2.82658 4.89615 -3.44259 -9.31296 4.89641 -12.9403)
(138.988 62.3631 -0.356002 317.342 -1.95385 175.03)
(24.4812 48.5106 -1.62275 69.8841 -0.802869 35.9804)
(-37.5944 42.1402 -1.88848 -70.4566 -1.10787 -42.1116)
(-147.035 39.0085 -0.908821 -285.061 -0.267397 -172.911)
(-39.4352 22.4441 -0.854094 124.437 -6.58716 28.1926)
(-9.12739 51.6629 -3.79662 57.4401 -2.60289 17.2184)
(-20.1166 47.8059 -4.3315 -56.1932 0.55498 -27.5334)
(-3.52498 15.5174 -1.94066 -130.133 4.28933 -47.4278)
(-22.9639 22.8741 -1.11478 121.009 -8.5485 37.675)
(-20.7347 42.7505 -4.42634 40.6121 -3.00789 8.07151)
(-15.0827 40.2841 -4.96255 -40.2766 1.91898 -18.8714)
(-15.9203 15.5297 -2.04689 -117.113 7.02239 -48.5674)
(-28.1846 18.5624 -1.18515 89.0925 -9.08607 28.4088)
(-21.2756 35.5798 -4.3929 30.7747 -2.84202 6.45202)
(-15.293 33.6974 -4.82084 -30.1678 2.91128 -15.3122)
(-11.8678 12.7154 -1.88065 -85.194 8.69859 -36.9666)
(-28.1169 14.8002 -1.12957 64.5552 -8.60205 24.1451)
(-21.0366 29.0705 -4.10528 22.0103 -2.36833 5.42692)
(-14.8571 27.9782 -4.43572 -21.3412 3.50656 -12.3603)
(-11.5244 10.9193 -1.60405 -60.309 9.41584 -30.4043)
(-28.5003 10.7637 -1.13217 44.0266 -7.47455 20.5839)
(-20.502 23.2137 -3.94947 14.6081 -1.79587 4.71463)
(-14.1707 23.1611 -4.17559 -14.3463 3.6218 -10.1184)
(-10.2301 9.45552 -1.38536 -39.3297 9.21424 -25.0083)
(-27.4417 6.4046 -1.4187 31.7041 -5.8374 19.8943)
(-21.9138 18.087 -4.36244 7.45581 -1.22219 2.96449)
(-13.0385 18.8416 -4.52766 -8.91812 3.09931 -8.1092)
(-7.383 7.91816 -1.47868 -23.0117 7.87355 -20.2463)
(-39.4358 5.97651 -2.49154 15.264 -2.84671 11.0237)
(-36.0808 13.1495 -6.08222 -2.53049 -0.30685 -5.44332)
(-8.37557 12.3096 -6.53919 -1.98368 1.69571 -3.47469)
(1.8007 5.02907 -2.93007 -8.85445 4.18399 -12.2837)
(136.862 60.725 -0.173886 313.276 -3.20493 175.056)
(24.089 46.3365 -0.781583 69.8335 -1.2133 36.7745)
(-37.2859 39.8506 -0.909276 -68.8705 -0.230354 -42.1514)
(-144.234 37.3429 -0.404997 -279.063 1.36506 -171.499)
(-39.6941 21.4524 -0.408289 123.642 -5.22618 32.2669)
(-9.90615 49.7681 -2.05433 57.7037 -1.99614 18.8183)
(-20.6771 45.9876 -2.35199 -54.816 0.550054 -28.876)
(-4.85411 14.8455 -1.01816 -128.909 3.6095 -52.1729)
(-23.5337 22.1604 -0.720386 121.475 -6.44683 41.5453)
(-21.63 41.4748 -2.76332 41.3656 -2.21226 9.53027)
(-15.9454 39.1196 -3.0494 -39.3792 1.54337 -20.4644)
(-16.7338 15.0906 -1.19081 -116.351 5.48495 -53.0519)
(-28.6416 18.1116 -0.888685 90.519 -6.78763 31.7369)
(-22.1299 34.7537 -2.98804 31.8 -2.07 7.64516)
(-16.1857 32.9757 -3.1839 -29.4896 2.30117 -16.7605)
(-12.798 12.5095 -1.15739 -85.1317 6.69796 -41.0597)
(-28.4647 14.5126 -0.940003 66.4249 -6.47595 26.7656)
(-21.7522 28.5706 -2.97061 23.1854 -1.73265 6.41369)
(-15.6868 27.5908 -3.08658 -20.7683 2.77486 -13.4893)
(-12.3978 10.8848 -1.02731 -60.4881 7.27126 -33.6669)
(-28.6947 10.5648 -1.0104 46.0273 -5.71636 22.6341)
(-21.0301 22.9525 -3.01313 15.823 -1.3316 5.61151)
(-14.8716 23.0397 -3.05406 -13.7845 2.87141 -10.8055)
(-10.9733 9.56877 -0.935811 -39.4467 7.15827 -27.2792)
(-27.3757 6.23226 -1.29926 33.7395 -4.5491 21.6228)
(-22.3118 18.0047 -3.51581 8.59253 -0.916065 3.83733)
(-13.6516 18.9079 -3.52505 -8.32729 2.45448 -8.26304)
(-7.95446 8.12385 -1.10684 -22.8327 6.13786 -21.3832)
(-39.6058 5.94399 -2.28195 16.7964 -2.22992 12.0827)
(-36.7373 13.1934 -5.15052 -1.62015 -0.207499 -4.70919)
(-9.13216 12.3953 -5.37951 -1.38067 1.33761 -3.00452)
(1.41078 5.18735 -2.38436 -8.34695 3.25767 -12.0774)
(134.803 59.31 -0.0636935 309.396 -3.01222 174.106)
(23.7112 44.6216 -0.324256 69.6261 -1.10806 37.062)
(-36.8887 38.0764 -0.381245 -67.4118 0.137376 -41.9006)
(-141.532 36.0022 -0.144342 -273.606 1.6905 -169.424)
(-39.8138 20.6611 -0.144257 122.966 -3.80506 34.5495)
(-10.4548 48.2426 -1.01117 57.8307 -1.41266 19.6369)
(-21.0165 44.5372 -1.16883 -53.5745 0.46737 -29.6064)
(-5.78125 14.3327 -0.472799 -127.676 2.73533 -54.9171)
(-23.934 21.5897 -0.404848 121.679 -4.51567 43.9101)
(-22.2138 40.4765 -1.59591 41.9038 -1.51157 10.3738)
(-16.5262 38.2206 -1.73965 -38.5221 1.13135 -21.4968)
(-17.2136 14.7642 -0.626797 -115.423 3.93905 -55.7944)
(-28.9508 17.7789 -0.579458 91.5085 -4.70328 33.9955)
(-22.6771 34.1775 -1.87703 32.5745 -1.3981 8.39284)
(-16.7546 32.4887 -1.95503 -28.8164 1.65253 -17.7572)
(-13.341 12.3862 -0.652648 -84.7823 4.74088 -43.7517)
(-28.6938 14.3338 -0.668749 67.7993 -4.50246 28.7303)
(-22.1951 28.2988 -1.97973 24.0911 -1.17406 7.08575)
(-16.1873 27.4067 -2.00044 -20.2053 1.98347 -14.3023)
(-12.8831 10.9047 -0.611593 -60.3814 5.13578 -35.9395)
(-28.8131 10.4678 -0.763347 47.5223 -4.02047 24.3371)
(-21.3459 22.8787 -2.11106 16.7538 -0.916165 6.26694)
(-15.2755 23.0651 -2.08175 -13.2732 2.04744 -11.3306)
(-11.3725 9.69619 -0.597183 -39.3697 5.0626 -28.966)
(-27.3301 6.15283 -1.01275 35.233 -3.24646 23.1788)
(-22.5592 18.0442 -2.57802 9.44039 -0.640802 4.4968)
(-14.0048 19.0455 -2.53216 -7.84415 1.74483 -8.44142)
(-8.24587 8.3035 -0.776512 -22.6143 4.3451 -22.3619)
(-39.6916 5.93972 -1.78907 18.012 -1.60488 13.2924)
(-37.1954 13.2753 -3.89339 -0.941371 -0.138697 -4.14894)
(-9.5932 12.4968 -3.9982 -0.920237 0.950553 -2.823)
(1.17196 5.30508 -1.7588 -8.01806 2.30815 -12.3207)
(133.261 58.3107 -0.0140638 306.496 -2.04978 173.084)
(23.4391 43.4634 -0.107977 69.4375 -0.742641 37.1379)
(-36.548 36.8884 -0.130823 -66.3219 0.193809 -41.6131)
(-139.503 35.0844 -0.034095 -269.601 1.26779 -167.642)
(-39.8656 20.1158 -0.028262 122.477 -2.31428 35.7125)
(-10.7938 47.1833 -0.433094 57.9036 -0.84312 20.0259)
(-21.199 43.5345 -0.508662 -52.6559 0.312472 -29.9702)
(-6.3646 13.9867 -0.187276 -126.712 1.70534 -56.3859)
(-24.1868 21.1872 -0.195076 121.754 -2.68143 45.199)
(-22.5541 39.7754 -0.805422 42.2654 -0.881627 10.8245)
(-16.878 37.591 -0.870695 -37.8736 0.691131 -22.1041)
(-17.4867 14.5385 -0.287754 -114.659 2.37528 -57.3297)
(-29.1417 17.5453 -0.319674 92.1204 -2.77152 35.3299)
(-22.9915 33.7802 -1.01776 33.0981 -0.808607 8.82165)
(-17.0881 32.1543 -1.04346 -28.2989 0.993443 -18.369)
(-13.6503 12.3016 -0.321967 -84.4275 2.82919 -45.3478)
(-28.8372 14.2129 -0.394145 68.6722 -2.65743 29.9736)
(-22.442 28.1252 -1.12521 24.7022 -0.680874 7.50076)
(-16.4684 27.2922 -1.11686 -19.773 1.18617 -14.8163)
(-13.1467 10.9199 -0.318698 -60.2084 3.05591 -37.3448)
(-28.8895 10.4078 -0.470236 48.4732 -2.39049 25.4864)
(-21.5148 22.8473 -1.24663 17.3749 -0.53791 6.69575)
(-15.4928 23.0971 -1.20967 -12.8927 1.22051 -11.6764)
(-11.5807 9.78264 -0.331605 -39.245 3.01071 -30.0608)
(-27.3164 6.10748 -0.639806 36.166 -1.9493 24.2752)
(-22.6922 18.0863 -1.57164 9.99736 -0.381451 4.94072)
(-14.1928 19.147 -1.52661 -7.50265 1.0373 -8.58665)
(-8.3851 8.4207 -0.462903 -22.4273 2.58301 -23.0604)
(-39.7654 5.94205 -1.13597 18.7771 -0.972698 14.2042)
(-37.4745 13.3395 -2.41575 -0.500656 -0.0808564 -3.7731)
(-9.84901 12.5676 -2.45844 -0.603899 0.566285 -2.77835)
(1.05338 5.37691 -1.07934 -7.7935 1.37243 -12.6359)
(132.448 57.7992 -0.000887544 304.968 -0.719279 172.471)
(23.2993 42.8839 -0.0223338 69.332 -0.258786 37.1459)
(-36.356 36.2963 -0.0282478 -65.7442 0.0822876 -41.4361)
(-138.43 34.6212 -0.00319754 -267.503 0.461811 -166.647)
(-39.8837 19.8388 -0.000268544 122.219 -0.776701 36.1906)
(-10.9549 46.643 -0.116552 57.9387 -0.280362 20.1775)
(-21.2766 43.0241 -0.138794 -52.1706 0.109673 -30.1169)
(-6.64508 13.8126 -0.0470892 -126.188 0.579155 -57.0181)
(-24.3071 20.9788 -0.0573302 121.775 -0.889956 45.7554)
(-22.7101 39.4126 -0.243412 42.4482 -0.28996 11.0173)
(-17.0428 37.2652 -0.261905 -37.5276 0.232502 -22.383)
(-17.6106 14.4222 -0.0816219 -114.237 0.794045 -58.011)
(-29.2301 17.4231 -0.102033 92.4121 -0.916459 35.9395)
(-23.134 33.5731 -0.321031 33.3619 -0.264851 9.01462)
(-17.2417 31.9794 -0.326331 -28.0213 0.331372 -18.6576)
(-13.7915 12.2563 -0.096044 -84.2163 0.94084 -46.0835)
(-28.9037 14.1492 -0.130294 69.0935 -0.879404 30.567)
(-22.5518 28.0346 -0.364398 25.0083 -0.223392 7.69711)
(-16.5945 27.2311 -0.358433 -19.5414 0.394426 -15.0629)
(-13.2632 10.9252 -0.0985376 -60.0935 1.01442 -38.0094)
(-28.924 10.3759 -0.159099 48.9315 -0.793994 26.057)
(-21.5875 22.8308 -0.41216 17.6834 -0.177706 6.90623)
(-15.587 23.1112 -0.396849 -12.6913 0.405051 -11.8462)
(-11.6699 9.82348 -0.106452 -39.1624 0.998758 -30.5946)
(-27.3107 6.0845 -0.219494 36.6077 -0.651139 24.8323)
(-22.7486 18.1076 -0.528209 10.2716 -0.127019 5.16248)
(-14.273 19.1953 -0.51042 -7.32567 0.343796 -8.6657)
(-8.44135 8.4755 -0.154264 -22.3232 0.856373 -23.4209)
(-39.7955 5.94529 -0.390432 19.1428 -0.328619 14.6897)
(-37.6 13.3741 -0.818325 -0.281758 -0.0269885 -3.58232)
(-9.96527 12.6009 -0.829397 -0.443801 0.188348 -2.78046)
(0.999001 5.40808 -0.364553 -7.68335 0.455116 -12.8403)
)
;

boundaryField
{
    interface
    {
        type            calculated;
        value           nonuniform List<symmTensor> 
192
(
(-23.9022 10.8775 3.33561 340.271 24.9525 95.1984)
(-24.1886 4.87937 3.78073 152.644 -17.206 17.2268)
(-23.9172 6.26938 4.42241 157.07 -11.4732 37.565)
(-23.8869 5.1187 4.5121 115.837 -12.9028 32.0609)
(-24.0623 3.84717 4.53927 85.4241 -11.2347 30.6179)
(-24.4726 2.23201 4.44286 59.0283 -9.49905 27.8375)
(-24.9755 0.503337 4.11675 43.9751 -7.75784 27.7462)
(-23.9969 -1.71095 3.42834 32.9707 -4.25813 28.7642)
(-26.5481 11.0808 2.08596 334.733 10.7641 100.426)
(-27.2145 5.39785 2.57765 169.149 -13.525 30.6915)
(-27.6035 6.12871 2.73938 155.087 -17.4168 37.5669)
(-27.9921 5.06391 2.73159 115.594 -18.0644 34.4424)
(-28.3097 3.67384 2.67361 83.5138 -16.5321 32.6869)
(-28.5346 1.94721 2.55332 57.4795 -14.043 30.9995)
(-28.2712 -0.0599276 2.30251 42.7147 -10.8749 31.765)
(-24.9581 -2.48177 1.86282 33.6089 -5.854 34.3725)
(-28.0148 11.0599 1.19679 331.824 1.33314 105.65)
(-28.5703 5.23969 1.67465 166.808 -10.9084 39.5405)
(-28.9862 5.95009 1.69642 155.276 -14.7691 42.0873)
(-29.3922 4.90255 1.61708 116.116 -15.7823 35.8154)
(-29.6368 3.47214 1.52191 83.8681 -14.8422 31.851)
(-29.639 1.66868 1.41215 57.8821 -12.8151 28.9843)
(-28.875 -0.468202 1.2499 43.6203 -9.97014 29.3555)
(-24.4732 -2.97028 1.03573 34.3129 -5.11516 31.2714)
(-28.9651 10.7894 0.683931 326.99 -3.26763 108.415)
(-29.3896 5.03623 1.11645 164.51 -9.0172 47.0927)
(-29.7318 5.77133 1.10699 155.714 -11.6449 48.571)
(-30.0906 4.76888 1.01965 117.878 -12.4646 40.4707)
(-30.23 3.34225 0.924314 86.1108 -11.9165 34.7976)
(-30.0534 1.50461 0.830499 60.3065 -10.4866 30.7133)
(-28.9739 -0.704069 0.719812 46.2645 -8.34764 30.361)
(-23.9404 -3.2173 0.600251 36.8196 -4.42912 31.8291)
(-29.6 10.4484 0.39054 321.473 -4.66557 109.019)
(-29.936 4.84951 0.742888 162.651 -7.19599 51.6673)
(-30.216 5.60045 0.728272 155.841 -8.8201 53.2528)
(-30.4943 4.64548 0.654877 119.359 -9.33052 44.5041)
(-30.5542 3.23808 0.575698 88.2128 -8.97985 37.9073)
(-30.2514 1.38651 0.501375 62.6106 -8.02861 33.0503)
(-28.9685 -0.868164 0.42375 48.6403 -6.53239 32.2252)
(-23.5138 -3.38485 0.353588 38.968 -3.51532 33.2772)
(-30.0183 10.1414 0.218618 316.57 -4.24466 108.654)
(-30.2963 4.6991 0.474199 161.244 -5.26165 54.1835)
(-30.5265 5.45952 0.461143 155.841 -6.2094 56.1902)
(-30.7459 4.54358 0.407951 120.429 -6.49102 47.3445)
(-30.7449 3.15523 0.349519 89.804 -6.26172 40.3762)
(-30.3567 1.29894 0.295517 64.3698 -5.66105 35.1597)
(-28.9425 -0.98582 0.242354 50.4174 -4.68014 34.116)
(-23.2045 -3.49824 0.199674 40.652 -2.55165 35.0062)
(-30.2763 9.91973 0.10939 313.004 -2.85208 108.066)
(-30.5247 4.59503 0.262291 160.271 -3.20787 55.4143)
(-30.7176 5.36009 0.253108 155.78 -3.70081 57.8019)
(-30.8983 4.47081 0.220881 121.093 -3.83784 49.0413)
(-30.8572 3.09624 0.185236 90.8218 -3.7057 41.9701)
(-30.4162 1.23794 0.152247 65.4965 -3.37334 36.6256)
(-28.9219 -1.06568 0.118708 51.5402 -2.81789 35.5061)
(-23.0105 -3.57034 0.0922186 41.7297 -1.55464 36.3418)
(-30.3927 9.80441 0.0324375 311.15 -0.995927 107.684)
(-30.6291 4.54112 0.0827902 159.774 -1.07769 55.9026)
(-30.7974 5.30817 0.0792438 155.736 -1.23053 58.5041)
(-30.9572 4.43275 0.0683984 121.415 -1.27134 49.8253)
(-30.8969 3.0651 0.0564459 91.32 -1.2281 42.7427)
(-30.4326 1.20393 0.0452991 66.0455 -1.12172 37.3663)
(-28.8855 -1.11097 0.0329297 52.0878 -0.942578 36.239)
(-22.881 -3.59901 0.0225372 42.2617 -0.526263 37.0723)
(24.5516 59.3537 -3.03822 207.507 0.770477 -10.8047)
(-66.1266 29.0896 -6.07078 80.1211 -1.56902 -6.68324)
(-47.5486 35.1533 -7.34715 94.2787 -1.37599 -3.30639)
(-49.7474 30.2496 -8.07438 65.7456 -1.04549 -1.23068)
(-46.5208 25.9971 -8.54444 46.1903 -0.81203 -0.205924)
(-45.5288 20.322 -8.92521 27.9069 -0.80377 -0.0366265)
(-45.1784 14.2065 -9.3681 16.3598 -1.07833 -0.677071)
(-53.4964 9.89614 -10.3847 4.1823 -1.4691 -2.11234)
(-7.48093 46.7315 -2.19333 38.9416 -0.666422 -10.0438)
(-34.7849 61.6199 -4.3369 24.0778 -1.40182 -8.1722)
(-36.0977 61.5942 -5.17581 25.3444 -1.20629 -6.12445)
(-36.1736 55.4516 -5.58701 16.6006 -0.778374 -4.74467)
(-34.9623 47.6851 -5.83964 9.63706 -0.381763 -4.05917)
(-34.2622 38.7747 -6.08362 2.96806 -0.145696 -3.95405)
(-34.5938 29.5511 -6.50253 -2.00133 -0.11457 -4.33779)
(-43.0154 18.706 -7.7682 -6.24859 -0.197413 -4.87696)
(-18.9819 40.6429 -2.01343 -61.5251 -0.402066 -9.68358)
(0.995473 57.7311 -3.84784 -36.2903 -1.11988 -8.93076)
(-0.783897 58.6782 -4.6334 -34.3782 -0.997287 -7.64781)
(-1.84005 53.2623 -4.91504 -26.1445 -0.60121 -6.69085)
(-3.51482 46.2044 -5.05847 -20.2974 -0.171802 -6.23086)
(-4.67337 38.2294 -5.21639 -15.5386 0.154817 -6.19011)
(-5.42949 29.5129 -5.57226 -12.2326 0.337561 -6.49921)
(-2.57192 17.2137 -6.7512 -6.52002 0.382978 -6.97025)
(-47.976 38.5364 -2.12259 -205.794 1.29928 -9.07459)
(30.4147 21.299 -3.97855 -89.6508 -1.00509 -8.55538)
(13.3555 26.7332 -4.80183 -96.0702 -0.939564 -7.33336)
(14.3654 23.6167 -5.08761 -67.9828 -0.577322 -6.44238)
(10.7804 21.0988 -5.19997 -48.9094 -0.127441 -6.02548)
(9.11505 17.6951 -5.31133 -32.0692 0.24965 -5.93414)
(8.69459 13.5237 -5.60752 -20.745 0.550957 -6.07572)
(14.3836 7.15939 -6.69707 -9.39134 0.855301 -6.48196)
(-7.05017 -7.19869 -0.217701 -301.353 -23.8799 -105.703)
(-5.09999 -3.14299 1.32084 -151.816 11.1986 -27.0047)
(-3.59668 -4.19515 1.45068 -144.408 7.42776 -37.1693)
(-2.82369 -3.53183 1.60231 -103.117 9.96139 -27.0661)
(-2.5454 -2.89856 1.67742 -72.89 9.74131 -23.1728)
(-2.26383 -2.14259 1.82799 -47.5221 9.23967 -19.9395)
(-1.14445 -1.77728 2.12991 -30.5822 7.99745 -19.2046)
(3.1226 -2.89019 2.50753 -17.8387 3.7034 -18.7039)
(-9.47095 -7.3343 -0.524485 -294.832 -12.5611 -111.459)
(-9.12769 -3.80857 0.170932 -169.956 8.11689 -43.8124)
(-8.81805 -4.2334 0.422447 -147.129 13.1915 -41.8166)
(-8.70499 -3.53061 0.545756 -107.833 15.6466 -34.4654)
(-8.65316 -2.70124 0.654908 -76.2003 16.0446 -30.5142)
(-8.26557 -1.78065 0.8087 -50.3654 15.1973 -27.9462)
(-6.70531 -1.14356 1.02433 -31.9236 12.8839 -26.8378)
(-0.986478 -2.27308 1.29804 -18.809 7.11108 -25.682)
(-11.005 -7.26005 -0.329752 -292.498 -3.86993 -118.207)
(-11.1319 -3.87433 0.0632669 -170.027 7.18894 -56.793)
(-11.2201 -4.24286 0.340623 -148.892 11.7313 -51.8315)
(-11.2681 -3.47306 0.515367 -109.938 14.2236 -41.9058)
(-11.1761 -2.52716 0.662009 -77.862 14.9845 -35.6421)
(-10.562 -1.48073 0.810379 -51.3795 14.4168 -31.1434)
(-8.5938 -0.703463 0.954935 -32.058 12.3566 -28.124)
(-2.39528 -1.72032 1.00206 -17.4792 6.63217 -23.6594)
(-12.0678 -6.94264 -0.140984 -287.652 0.684255 -121.288)
(-12.314 -3.7872 0.125001 -168.776 6.42071 -66.0426)
(-12.5347 -4.15135 0.387766 -149.034 9.63381 -60.3593)
(-12.6197 -3.36199 0.563314 -110.924 11.5915 -48.8885)
(-12.4337 -2.35615 0.705841 -78.926 12.3637 -40.7503)
(-11.583 -1.2338 0.829152 -52.0926 12.0502 -34.4167)
(-9.22803 -0.391788 0.91646 -32.0079 10.4229 -29.4413)
(-2.88959 -1.38327 0.867308 -16.9283 5.63815 -22.9045)
(-12.8092 -6.57402 -0.0317012 -281.94 2.48322 -121.939)
(-13.0886 -3.65166 0.156995 -167.258 5.38306 -71.6647)
(-13.3462 -4.0145 0.376997 -148.441 7.52598 -66.1286)
(-13.4172 -3.22972 0.525709 -111.155 8.89459 -54.095)
(-13.1411 -2.1999 0.641231 -79.4215 9.49686 -44.8801)
(-12.12 -1.04016 0.729011 -52.4407 9.3124 -37.2771)
(-9.52668 -0.16754 0.771282 -31.8868 8.09641 -30.8888)
(-3.0828 -1.15875 0.698306 -16.4875 4.3846 -22.8972)
(-13.3004 -6.25559 0.0158556 -276.799 2.65187 -121.536)
(-13.5853 -3.52127 0.14556 -165.811 4.05864 -74.8423)
(-13.8426 -3.88182 0.308579 -147.637 5.41013 -69.665)
(-13.886 -3.10997 0.418965 -111.022 6.29384 -57.5276)
(-13.541 -2.07458 0.501346 -79.5535 6.69833 -47.7891)
(-12.4088 -0.900223 0.55782 -52.5428 6.5769 -39.4502)
(-9.67624 -0.0148203 0.574958 -31.7352 5.72954 -32.197)
(-3.1543 -1.0153 0.508432 -16.2039 3.10921 -23.3764)
(-13.5974 -6.03071 0.0233994 -273.038 1.8994 -120.908)
(-13.8812 -3.42389 0.0997561 -164.694 2.51967 -76.4979)
(-14.1296 -3.78202 0.198798 -146.942 3.26477 -71.6364)
(-14.1496 -3.0225 0.265882 -110.8 3.75829 -59.5517)
(-13.7592 -1.98845 0.314651 -79.5336 3.98622 -49.59)
(-12.5598 -0.809643 0.346163 -52.5366 3.91184 -40.8727)
(-9.74554 0.079113 0.352534 -31.6005 3.40809 -33.1456)
(-3.17359 -0.930756 0.304945 -16.0162 1.85031 -23.8884)
(-13.7369 -5.91607 0.00981715 -271.072 0.680526 -120.498)
(-14.02 -3.37326 0.0348964 -164.09 0.853726 -77.1954)
(-14.2633 -3.72985 0.0678479 -146.548 1.09178 -72.5087)
(-14.2714 -2.97723 0.090185 -110.652 1.25044 -60.4812)
(-13.8588 -1.94483 0.10623 -79.4944 1.32372 -50.4423)
(-12.6277 -0.764568 0.116413 -52.5148 1.29817 -41.5702)
(-9.76798 0.121809 0.118222 -31.5216 1.13045 -33.6342)
(-3.18698 -0.894476 0.100016 -15.9302 0.613679 -24.2045)
(-56.9506 12.6702 -4.74756 -1.60519 -1.24825 -1.97278)
(-50.6157 11.7553 -2.71898 0.885781 -0.972078 4.09022)
(-50.6107 11.7096 -3.19905 2.87346 -0.59808 2.63597)
(-50.6095 11.7977 -3.28731 4.46436 -0.356553 3.06695)
(-51.0561 11.9209 -3.00858 5.67405 -0.211597 3.67991)
(-51.4259 12.0256 -2.3578 6.54578 -0.127672 4.53046)
(-51.6817 12.1002 -1.49654 7.1002 -0.0797219 5.22914)
(-51.8399 12.1347 -0.514011 7.30101 -0.0313168 5.57632)
(-47.8919 9.27793 -8.32563 -4.56445 0.300324 -11.0246)
(-42.9826 7.87934 -8.27551 -3.40257 0.362781 -9.57348)
(-42.9246 7.58853 -7.90702 -2.01929 0.451619 -8.42434)
(-43.74 7.55414 -7.38549 -0.85623 0.450803 -7.32966)
(-44.5951 7.57929 -6.35511 0.0383648 0.386087 -6.6331)
(-45.2218 7.6125 -4.84142 0.690346 0.289089 -6.12084)
(-45.6056 7.64333 -3.01526 1.12593 0.177266 -5.77399)
(-45.7628 7.6698 -1.02277 1.36899 0.0596101 -5.57982)
(-2.78252 6.57478 -8.11409 -6.84889 0.883487 -5.94201)
(-6.39192 5.46576 -9.43297 -5.9683 0.899989 -7.92305)
(-7.93867 5.17629 -9.04892 -4.96609 0.855541 -5.93646)
(-9.23565 5.11229 -8.1339 -4.1229 0.743595 -4.46602)
(-10.1127 5.10542 -6.79415 -3.46999 0.594158 -3.62216)
(-10.6626 5.11232 -5.08688 -2.99219 0.430071 -3.24423)
(-10.9783 5.1207 -3.13871 -2.67521 0.262562 -3.10757)
(-11.1161 5.1255 -1.06027 -2.50176 0.0894111 -3.0659)
(15.2353 5.8892 -4.57436 -6.56818 1.17674 -8.73929)
(9.58238 4.96244 -4.92435 -5.8185 0.955996 -13.4361)
(8.21673 4.6901 -4.84325 -5.23983 0.811487 -10.2608)
(7.19808 4.62307 -4.24903 -4.71592 0.670868 -8.61057)
(6.73952 4.60004 -3.50017 -4.28733 0.524062 -7.82089)
(6.47737 4.59314 -2.59409 -3.96624 0.37354 -7.72561)
(6.3395 4.5901 -1.59458 -3.75346 0.224213 -7.87423)
(6.27098 4.58277 -0.538825 -3.65207 0.0750158 -8.01523)
)
;
    }
    symmetry
    {
        type            symmetryPlane;
    }
    bottom
    {
        type            calculated;
        value           nonuniform List<symmTensor> 
32
(
(162.102 72.1816 2.39305 244.468 65.9922 161.672)
(160.799 74.9331 1.08054 242.156 28.678 158.389)
(162.128 75.029 0.385981 244.244 10.2403 159.353)
(161.56 73.5803 0.0583885 243.527 1.57911 158.841)
(159.982 71.849 -0.0685716 241.252 -1.89738 157.387)
(158.321 70.3668 -0.0940478 238.816 -2.65438 155.831)
(157.031 69.3316 -0.0705934 236.91 -2.02053 154.611)
(156.34 68.804 -0.0255466 235.886 -0.736481 153.954)
(29.9348 34.3025 0.377934 44.1089 20.0788 29.5103)
(32.7535 36.629 0.190661 48.2386 9.50407 32.0682)
(34.6841 34.4714 0.0664359 51.2905 3.52393 34.041)
(35.236 31.8518 0.0103978 52.2712 0.597159 34.6816)
(35.3398 29.6474 -0.00960923 52.5413 -0.592977 34.8595)
(35.309 28.028 -0.0131372 52.5724 -0.857541 34.88)
(35.2554 26.9848 -0.00965843 52.5389 -0.654826 34.8576)
(35.221 26.4762 -0.00345306 52.5095 -0.238606 34.8379)
(-40.8223 29.0904 -0.313336 -61.6019 -18.6815 -41.109)
(-38.5622 31.0937 -0.176591 -58.3527 -9.86561 -39.0628)
(-38.7867 28.3236 -0.0780633 -58.5463 -4.7873 -39.2354)
(-38.4792 25.2774 -0.0285198 -57.9514 -1.96034 -38.8447)
(-37.906 22.8041 -0.0066138 -56.9996 -0.504146 -38.205)
(-37.3013 21.0153 0.00140031 -56.0355 0.11588 -37.5553)
(-36.8221 19.8703 0.00276131 -55.2844 0.241761 -37.0491)
(-36.5612 19.3138 0.00119436 -54.8785 0.107604 -36.7756)
(-159.542 49.7951 -1.82258 -236.136 -58.2025 -158.971)
(-154.129 50.7173 -0.870972 -228.503 -27.4188 -155.27)
(-154.745 48.7511 -0.343009 -229.229 -11.23 -156.155)
(-153.155 46.0873 -0.0893104 -226.724 -3.09703 -154.478)
(-150.581 43.6573 0.0147579 -222.832 0.541331 -151.771)
(-148.063 41.7642 0.0436731 -219.068 1.67781 -149.149)
(-146.158 40.4923 0.0365827 -216.233 1.45167 -147.177)
(-145.146 39.8566 0.0136708 -214.731 0.551558 -146.134)
)
;
    }
}


// ************************************************************************* //
