/*--------------------------------*- C++ -*----------------------------------*\
| =========                 |                                                 |
| \\      /  F ield         | foam-extend: Open Source CFD                    |
|  \\    /   O peration     | Version:     3.1                                |
|   \\  /    A nd           | Web:         http://www.extend-project.de       |
|    \\/     M anipulation  |                                                 |
\*---------------------------------------------------------------------------*/
FoamFile
{
    version     2.0;
    format      ascii;
    class       volScalarField;
    location    "1.6";
    object      sigmaEq;
}
// * * * * * * * * * * * * * * * * * * * * * * * * * * * * * * * * * * * * * //

dimensions      [1 -1 -2 0 0 0 0];

internalField   nonuniform List<scalar> 
256
(
194.185
96.6075
89.1854
174.47
144.983
117.843
106.49
123.151
133.102
109.856
98.2567
107.371
108.851
96.7206
86.1058
81.5367
87.5075
82.2021
72.9816
60.2163
69.6382
67.5831
59.9382
43.1803
57.9876
54.4703
46.8513
31.3469
56.0602
46.2449
29.9725
24.0817
189.433
98.7511
90.3955
165.635
149.32
113.056
101.501
126.278
130.099
97.0529
85.2699
103.255
105.458
82.4293
71.6114
77.0545
83.5804
68.2519
59.1655
55.4016
66.1569
55.4158
48.335
39.0328
54.8801
44.8455
38.5623
28.1771
53.4768
40.7353
27.0619
22.2169
186.921
95.8285
85.7276
159.595
147.945
109.162
95.5049
121.606
130.304
93.1502
78.9423
99.6806
105.976
78.0595
64.9202
73.8407
84.2165
64.1907
53.1153
52.5673
66.7075
52.0218
43.5367
36.6633
55.1905
42.4664
35.4554
26.3223
53.3196
40.2356
25.6793
19.6299
183.689
92.1926
80.6571
153.884
146.329
106.184
90.5524
117.352
130.24
91.3628
74.8882
96.2987
106.814
76.8382
61.4817
71.0195
85.4329
63.4279
50.3991
50.038
68.0058
51.6494
41.6569
34.3911
56.3974
42.5052
34.4326
24.4018
54.433
41.1168
25.0594
17.8046
180.44
88.879
76.2854
148.797
145.065
103.726
86.5404
113.985
130.195
90.1883
71.9724
93.5641
107.66
76.4511
59.4108
68.8006
86.7087
63.5512
49.047
48.0522
69.4065
52.0666
40.9171
32.5403
57.7599
43.0829
34.1358
22.8315
55.7713
41.9704
24.6167
16.608
177.675
86.2839
72.9312
144.699
144.079
101.811
83.469
111.423
130.128
89.3116
69.8343
91.4971
108.305
76.2637
58.0334
67.1697
87.7148
63.803
48.2771
46.6191
70.5298
52.5387
40.5942
31.2033
58.8707
43.6096
34.049
21.7204
56.9253
42.5276
24.1655
15.8946
175.706
84.5365
70.6844
141.849
143.388
100.502
81.3875
109.678
130.054
88.7025
68.3988
90.0991
108.715
76.1365
57.1439
66.0891
88.3743
63.984
47.8173
45.6902
71.2737
52.8669
40.4302
30.3527
59.616
43.9532
34.0067
21.0412
57.7211
42.8307
23.7743
15.5148
174.69
83.6632
69.5616
140.391
143.029
99.8394
80.3367
108.791
130.004
88.3875
67.6733
89.3906
108.908
76.0654
56.6993
65.5475
88.693
64.0695
47.5934
45.2315
71.635
53.0259
40.3538
29.9405
59.9788
44.1154
33.9819
20.723
58.1126
42.9587
23.5462
15.353
)
;

boundaryField
{
    interface
    {
        type            calculated;
        value           nonuniform List<scalar> 
192
(
309.486
159.439
157.696
122.592
96.5248
75.1575
64.2515
55.9547
304.208
172.313
160.143
127.148
100.626
80.0439
68.9314
60.1301
301.945
169.194
160.075
127.754
101.169
80.238
68.7663
58.3366
298.493
166.638
159.802
128.671
102.556
81.7035
70.2224
59.2648
294.438
164.899
159.594
129.533
103.937
83.2282
71.7874
60.4977
290.729
163.678
159.452
130.234
105.064
84.4974
73.1092
61.7451
287.983
162.859
159.338
130.694
105.814
85.3485
74.0009
62.6416
286.536
162.438
159.265
130.91
106.175
85.7617
74.4278
63.079
219.07
136.903
138.851
113.804
93.3113
75.1816
62.8741
60.8201
93.3013
118.715
119.768
107.342
92.6218
76.6348
61.5907
51.8053
86.5083
106.351
107.209
95.7856
82.357
67.8356
52.5551
32.3343
200.541
113.877
112.98
86.0535
65.7224
48.4189
36.0154
28.1381
277.56
142.63
131.675
94.2653
65.9854
43.2703
29.753
23.3459
264.883
152.185
130.959
95.2646
67.0294
45.609
32.4826
25.7931
258.915
146.839
127.833
92.9682
65.0759
43.8594
30.8422
22.5194
252.401
142.408
124.529
90.3751
62.6843
41.4123
28.4254
20.5775
245.879
139.113
121.843
88.2475
60.6751
39.2159
26.1964
19.3016
240.309
136.66
119.814
86.6801
59.207
37.592
24.5626
18.7231
236.317
134.989
118.432
85.6395
58.2524
36.5511
23.5471
18.5296
234.248
134.135
117.726
85.1152
57.7788
36.0443
23.0719
18.4933
60.6272
57.697
57.9039
58.9218
60.24
61.3765
62.1703
62.5494
46.3261
42.2223
42.9402
44.4023
45.4667
46.0561
46.3358
46.4456
18.5478
19.073
18.35
17.452
16.1931
14.651
13.2223
12.3532
26.3698
23.6929
20.2889
17.9634
16.5434
15.6837
15.2007
14.978
)
;
    }
    symmetry
    {
        type            symmetryPlane;
    }
    bottom
    {
        type            calculated;
        value           nonuniform List<scalar> 
32
(
177.959
152.763
146.89
143.903
141.228
138.885
137.166
136.261
69.5706
66.633
61.5791
57.0949
53.5488
50.9582
49.2776
48.4527
64.3214
60.6641
54.2388
48.6611
44.4407
41.4536
39.5435
38.6103
162.958
131.645
120.647
114.658
110.232
106.782
104.365
103.116
)
;
    }
}


// ************************************************************************* //
