/*--------------------------------*- C++ -*----------------------------------*\
| =========                 |                                                 |
| \\      /  F ield         | foam-extend: Open Source CFD                    |
|  \\    /   O peration     | Version:     3.1                                |
|   \\  /    A nd           | Web:         http://www.extend-project.de       |
|    \\/     M anipulation  |                                                 |
\*---------------------------------------------------------------------------*/
FoamFile
{
    version     2.0;
    format      ascii;
    class       volScalarField;
    location    "1.6";
    object      sigmaCauchyEq;
}
// * * * * * * * * * * * * * * * * * * * * * * * * * * * * * * * * * * * * * //

dimensions      [1 -1 -2 0 0 0 0];

internalField   nonuniform List<scalar> 
256
(
207.356
97.7694
87.6401
162.426
146.219
118.156
105.572
121.274
135.076
109.919
97.5101
105.194
109.601
96.5503
85.594
80.4668
87.7306
81.9281
72.6311
59.6522
69.5242
67.2641
59.7104
42.9314
57.7703
54.1517
46.7111
31.249
55.6199
45.8243
29.9512
24.1032
202.249
100.116
88.882
154.569
151.741
113.965
100.237
123.41
132.263
97.3849
84.4857
101.011
106.492
82.5351
71.0634
75.85
83.9959
68.2104
58.7994
54.7629
66.2156
55.2974
48.0942
38.7166
54.8005
44.68
38.4118
28.0277
53.1745
40.4373
27.0065
22.1748
199.486
97.1955
84.2942
149.05
150.135
110.031
94.314
118.889
132.363
93.4616
78.2071
97.5084
106.958
78.1585
64.4132
72.6638
84.6009
64.156
52.7774
51.9449
66.7484
51.9178
43.3137
36.3557
55.101
42.3168
35.3121
26.1769
52.9967
39.9463
25.6213
19.5948
195.858
93.4945
79.3325
143.934
148.287
106.969
89.456
114.836
132.165
91.6231
74.209
94.2662
107.727
76.9071
61.0137
69.9209
85.7855
63.3786
50.0871
49.4644
68.0332
51.5397
41.4503
34.1149
56.3074
42.3536
34.2972
24.2758
54.1128
40.8212
25.0008
17.7758
192.188
90.1146
75.0629
139.412
146.854
104.448
85.527
111.633
132.005
90.4131
71.3423
91.6649
108.512
76.5005
58.976
67.7841
87.0284
63.4927
48.7571
47.5335
69.416
51.9529
40.7247
32.3012
57.6631
42.9283
34.0085
22.7284
55.4445
41.6676
24.5611
16.5876
189.065
87.4682
71.7894
135.775
145.762
102.492
82.5202
109.191
131.86
89.516
69.2427
89.7012
109.114
76.303
57.6247
66.2197
88.011
63.7404
48.0048
46.1469
70.5249
52.4233
40.4135
30.997
58.7671
43.4531
33.9292
21.6375
56.5934
42.2208
24.1147
15.8809
186.844
85.6871
69.5972
133.244
145.009
101.16
80.4822
107.524
131.739
88.8968
67.8333
88.3722
109.499
76.1715
56.7529
65.1843
88.6559
63.9201
47.557
45.2505
71.259
52.751
40.2578
30.1697
59.507
43.7958
33.8929
20.9728
57.3852
42.5221
23.7282
15.506
185.699
84.7975
68.5016
131.949
144.622
100.487
79.453
106.675
131.668
88.5777
67.1208
87.698
109.68
76.0989
56.3173
64.6653
88.9676
64.0053
47.3392
44.8082
71.6153
52.91
40.1857
29.7695
59.8668
43.9576
33.8713
20.6621
57.7748
42.6495
23.5029
15.3465
)
;

boundaryField
{
    interface
    {
        type            calculated;
        value           nonuniform List<scalar> 
192
(
325.1
163.291
161.184
124.398
97.3413
75.4033
64.2708
55.8732
318.594
176.627
163.592
128.952
101.42
80.2777
68.9371
60.0591
315.641
173.066
163.332
129.474
101.926
80.4542
68.7639
58.2618
311.542
170.119
162.822
130.27
103.25
81.8865
70.2088
59.1984
306.913
168.109
162.43
131.032
104.575
83.3788
71.7596
60.4368
302.744
166.713
162.164
131.664
105.662
84.6217
73.0675
61.6878
299.682
165.79
161.975
132.083
106.387
85.4547
73.9485
62.5861
298.075
165.319
161.867
132.28
106.736
85.8588
74.37
63.0249
227.573
137.423
140.259
114.163
93.2473
74.8429
62.4582
60.2262
94.0631
118.574
119.575
106.932
92.1422
76.1435
61.1414
51.3323
85.2065
105.667
106.498
95.2917
82.0051
67.602
52.4087
32.306
192.44
112.547
111.148
85.1622
65.2596
48.239
35.9713
28.1968
263.019
138.574
128.266
92.5087
65.1241
42.9031
29.5983
23.3094
251.723
147.417
127.402
93.3225
66.0253
45.1167
32.2278
25.6833
246.49
142.399
124.415
91.0786
64.0948
43.3782
30.5943
22.423
240.671
138.301
121.333
88.6101
61.7815
40.9838
28.2123
20.4954
234.774
135.262
118.848
86.6086
59.8591
38.8496
26.0227
19.2316
229.706
132.992
116.969
85.1418
58.4641
37.2804
24.4228
18.6602
226.063
131.439
115.687
84.1693
57.5604
36.2786
23.4314
18.4703
224.17
130.644
115.031
83.679
57.1125
35.792
22.9686
18.4352
59.9733
57.1601
57.3675
58.3822
59.6889
60.8154
61.6021
61.9772
45.8864
41.863
42.5817
44.0313
45.0869
45.673
45.9525
46.063
18.5259
19.0307
18.3063
17.4083
16.1516
14.6136
13.1896
12.3237
26.4277
23.7044
20.3025
17.9762
16.556
15.6959
15.2127
14.9898
)
;
    }
    symmetry
    {
        type            symmetryPlane;
    }
    bottom
    {
        type            calculated;
        value           nonuniform List<scalar> 
32
(
188.501
161.668
155.505
152.311
149.399
146.839
144.957
143.967
70.3348
67.4315
62.3616
57.8329
54.2435
51.619
49.9157
49.0796
63.3401
59.7875
53.453
47.9641
43.8154
40.8809
39.0049
38.0886
153.369
124.187
113.814
108.249
104.185
101.03
98.82
97.6777
)
;
    }
}


// ************************************************************************* //
