/*--------------------------------*- C++ -*----------------------------------*\
| =========                 |                                                 |
| \\      /  F ield         | foam-extend: Open Source CFD                    |
|  \\    /   O peration     | Version:     3.1                                |
|   \\  /    A nd           | Web:         http://www.extend-project.de       |
|    \\/     M anipulation  |                                                 |
\*---------------------------------------------------------------------------*/
FoamFile
{
    version     2.0;
    format      ascii;
    class       volVectorField;
    location    "1.6";
    object      U;
}
// * * * * * * * * * * * * * * * * * * * * * * * * * * * * * * * * * * * * * //

dimensions      [0 1 -1 0 0 0 0];

internalField   nonuniform List<vector> 
256
(
(-0.000491267 -0.000369646 -0.000670013)
(-0.000164898 -7.98387e-05 -0.000194568)
(-0.0001485 0.000114784 0.000263137)
(-0.000441606 0.000434399 0.000786501)
(-0.00215833 -0.00152432 -0.000742902)
(-0.00178578 -0.000402061 -0.00026736)
(-0.00174019 0.000537421 0.000343394)
(-0.00200287 0.00170789 0.000826977)
(-0.00438317 -0.00234705 -0.000734787)
(-0.00401785 -0.00063691 -0.00025699)
(-0.00395046 0.000913985 0.000287461)
(-0.00416045 0.00268366 0.000760549)
(-0.00710648 -0.0029564 -0.000628635)
(-0.00678228 -0.000772185 -0.000233529)
(-0.00669448 0.00126645 0.000210222)
(-0.006818 0.00350994 0.000595055)
(-0.0101553 -0.00333227 -0.000494068)
(-0.00986767 -0.000812694 -0.000199101)
(-0.00976215 0.00157943 0.000127848)
(-0.00981193 0.00415175 0.000411211)
(-0.0133651 -0.00351544 -0.00036283)
(-0.0131115 -0.000778472 -0.000164199)
(-0.0129929 0.00185235 5.44754e-05)
(-0.0129829 0.00463398 0.000242244)
(-0.0165959 -0.00354943 -0.000259846)
(-0.016371 -0.000689785 -0.00013543)
(-0.016247 0.00208487 -6.03712e-06)
(-0.0161987 0.00498204 0.000107847)
(-0.0197541 -0.00348454 -0.000196727)
(-0.0195394 -0.00056664 -0.000113993)
(-0.0194179 0.0022829 -5.33134e-05)
(-0.0193663 0.00523356 1.70494e-05)
(-0.000584591 -0.000357465 -0.000363379)
(-0.000281053 -7.25367e-05 -0.000108415)
(-0.000266499 0.000107039 0.000158756)
(-0.000535985 0.000407759 0.000448886)
(-0.00241493 -0.00148067 -0.000476149)
(-0.00198608 -0.000376311 -0.000166288)
(-0.00194204 0.000531576 0.000225906)
(-0.00226305 0.00168447 0.000543112)
(-0.00466734 -0.00233413 -0.000506134)
(-0.0042885 -0.000618638 -0.000177116)
(-0.00421601 0.000932906 0.000202478)
(-0.004429 0.00270579 0.000528174)
(-0.00737337 -0.00295746 -0.000461988)
(-0.00703749 -0.000763477 -0.000171852)
(-0.00694071 0.0012867 0.000152483)
(-0.00705922 0.00353851 0.000434172)
(-0.0103744 -0.00334854 -0.000387357)
(-0.0100803 -0.00081638 -0.000156462)
(-0.00996365 0.00159315 9.56777e-05)
(-0.00999988 0.00417621 0.000315819)
(-0.0135293 -0.00354322 -0.0003092)
(-0.013272 -0.000793691 -0.000138285)
(-0.0131421 0.00185433 4.34749e-05)
(-0.0131159 0.00464629 0.000203387)
(-0.0167135 -0.00358654 -0.000245601)
(-0.0164882 -0.000714475 -0.000122301)
(-0.0163549 0.0020746 9.92467e-07)
(-0.0162902 0.00498095 0.000113525)
(-0.0198474 -0.00353092 -0.000203598)
(-0.0196342 -0.000599373 -0.000109183)
(-0.0195078 0.00226385 -2.79431e-05)
(-0.0194462 0.00522389 5.4574e-05)
(-0.00062936 -0.00037376 -0.0002053)
(-0.000311758 -7.57906e-05 -6.23363e-05)
(-0.000297284 0.000110913 9.54656e-05)
(-0.000580361 0.000423391 0.000259349)
(-0.00254615 -0.00147642 -0.000298075)
(-0.00208129 -0.00036946 -0.000103311)
(-0.00203829 0.000527342 0.000141368)
(-0.00239663 0.00168238 0.000341132)
(-0.0048373 -0.00232207 -0.000336968)
(-0.00443009 -0.000611505 -0.000119437)
(-0.00435649 0.000929646 0.000132558)
(-0.00459596 0.00269703 0.000347753)
(-0.00754919 -0.00294246 -0.000327565)
(-0.00719438 -0.00075924 -0.000124103)
(-0.00709459 0.00128011 0.000102471)
(-0.00722735 0.00352032 0.000299666)
(-0.0105368 -0.00333905 -0.00029471)
(-0.0102307 -0.000819146 -0.000121246)
(-0.01011 0.00158092 6.5744e-05)
(-0.0101521 0.00415129 0.000230886)
(-0.01367 -0.00354545 -0.000255255)
(-0.0134064 -0.00080601 -0.000114847)
(-0.0132723 0.00183525 3.101e-05)
(-0.0132463 0.00461703 0.000162644)
(-0.0168354 -0.00360521 -0.000220556)
(-0.0166081 -0.000737424 -0.000107431)
(-0.0164715 0.0020492 3.40839e-06)
(-0.0164038 0.00495136 0.00010803)
(-0.0199627 -0.00356774 -0.000193652)
(-0.0197507 -0.000632096 -9.80544e-05)
(-0.0196227 0.00223495 -1.21783e-05)
(-0.0195575 0.005199 7.41817e-05)
(-0.000649896 -0.00038524 -0.000119111)
(-0.000319107 -7.8533e-05 -3.70787e-05)
(-0.000304272 0.00011336 5.64031e-05)
(-0.000599942 0.000435061 0.000149348)
(-0.00261369 -0.00148393 -0.000186912)
(-0.00212612 -0.000370574 -6.57815e-05)
(-0.00208342 0.000523151 8.61467e-05)
(-0.00246493 0.00168423 0.000209844)
(-0.00493431 -0.0023215 -0.000222173)
(-0.00450754 -0.0006129 -8.10935e-05)
(-0.00443398 0.000920542 8.3141e-05)
(-0.00469332 0.00268526 0.000222108)
(-0.00766045 -0.00293734 -0.000228162)
(-0.00729163 -0.000762515 -8.93992e-05)
(-0.00719145 0.00126566 6.53124e-05)
(-0.00733824 0.00349689 0.000199344)
(-0.0106513 -0.00333559 -0.000218465)
(-0.0103361 -0.000826932 -9.26735e-05)
(-0.0102146 0.00156099 4.224e-05)
(-0.0102655 0.00412012 0.000161878)
(-0.0137815 -0.00354995 -0.000202191)
(-0.0135129 -0.000820824 -9.26105e-05)
(-0.013378 0.00181015 2.01196e-05)
(-0.0133562 0.00458223 0.000123197)
(-0.0169435 -0.00362242 -0.000185324)
(-0.0167146 -0.000760659 -8.9837e-05)
(-0.0165774 0.00201983 3.26437e-06)
(-0.0165107 0.00491701 9.25228e-05)
(-0.020072 -0.00359885 -0.000168437)
(-0.019861 -0.000663134 -8.25289e-05)
(-0.0197338 0.00220354 -3.87006e-06)
(-0.0196695 0.00516893 7.52687e-05)
(-0.000659866 -0.000392451 -7.01805e-05)
(-0.00032005 -8.05302e-05 -2.26485e-05)
(-0.000304774 0.000114679 3.24499e-05)
(-0.000608887 0.000442009 8.50318e-05)
(-0.00264944 -0.00149344 -0.000117027)
(-0.00214732 -0.000374424 -4.24976e-05)
(-0.00210451 0.000519203 5.09487e-05)
(-0.00250058 0.00168575 0.000126415)
(-0.00499012 -0.00232827 -0.000144867)
(-0.00455073 -0.000618651 -5.49486e-05)
(-0.00447732 0.000911231 5.00968e-05)
(-0.0047498 0.00267668 0.00013805)
(-0.00773084 -0.00294188 -0.000155576)
(-0.00735248 -0.000770458 -6.33631e-05)
(-0.0072525 0.00125099 3.95996e-05)
(-0.00740959 0.00347866 0.000128211)
(-0.0107305 -0.00334111 -0.000156511)
(-0.0104089 -0.00083838 -6.86099e-05)
(-0.0102877 0.00154138 2.54603e-05)
(-0.0103457 0.0040948 0.000108883)
(-0.0138657 -0.00356053 -0.000152161)
(-0.0135934 -0.000837338 -7.11146e-05)
(-0.0134587 0.00178623 1.19154e-05)
(-0.0134412 0.00455305 8.82876e-05)
(-0.0170311 -0.00364127 -0.000145085)
(-0.0168007 -0.000783166 -7.0475e-05)
(-0.0166638 0.00199247 2.25703e-06)
(-0.0165993 0.00488702 7.24397e-05)
(-0.0201637 -0.00362679 -0.000134527)
(-0.0199531 -0.000691161 -6.46221e-05)
(-0.0198271 0.00217439 2.07668e-08)
(-0.0197649 0.00514094 6.51361e-05)
(-0.000665052 -0.000396947 -4.07527e-05)
(-0.000319474 -8.19223e-05 -1.37167e-05)
(-0.000303819 0.000115345 1.7842e-05)
(-0.000613166 0.000445949 4.68959e-05)
(-0.00266888 -0.00150187 -7.10854e-05)
(-0.00215755 -0.000378551 -2.67973e-05)
(-0.00211447 0.00051599 2.86892e-05)
(-0.00251952 0.00168666 7.30903e-05)
(-0.00502253 -0.00233713 -9.07495e-05)
(-0.00457509 -0.000625331 -3.57778e-05)
(-0.00450169 0.000903649 2.85421e-05)
(-0.0047825 0.00267121 8.18967e-05)
(-0.00777484 -0.00295067 -0.000100776)
(-0.00739027 -0.00077951 -4.25305e-05)
(-0.00729049 0.00123901 2.2533e-05)
(-0.00745441 0.00346649 7.81951e-05)
(-0.0107836 -0.00335109 -0.000105075)
(-0.0104577 -0.000850297 -4.73937e-05)
(-0.0103367 0.0015254 1.424e-05)
(-0.0103998 0.00407717 6.8834e-05)
(-0.0139256 -0.00357379 -0.000105665)
(-0.0136507 -0.000852875 -5.02567e-05)
(-0.0135162 0.00176679 6.3858e-06)
(-0.0135021 0.00453191 5.86123e-05)
(-0.0170962 -0.00365957 -0.000103318)
(-0.0168647 -0.000802769 -5.03847e-05)
(-0.0167282 0.00197028 1.25501e-06)
(-0.0166656 0.00486434 5.11906e-05)
(-0.0202333 -0.00365061 -9.68251e-05)
(-0.0200225 -0.00071446 -4.59568e-05)
(-0.0198976 0.00215061 1.33312e-06)
(-0.0198375 0.00511863 4.89854e-05)
(-0.000667723 -0.000399604 -2.13493e-05)
(-0.000318776 -8.28101e-05 -7.45969e-06)
(-0.00030287 0.000115654 8.77515e-06)
(-0.000615225 0.000448048 2.33183e-05)
(-0.00267904 -0.00150793 -3.83574e-05)
(-0.0021624 -0.000381757 -1.49366e-05)
(-0.00211911 0.000513769 1.4369e-05)
(-0.00252935 0.00168713 3.7645e-05)
(-0.00504059 -0.0023446 -4.99754e-05)
(-0.00458836 -0.00063075 -2.0315e-05)
(-0.00451492 0.000898446 1.43928e-05)
(-0.00480064 0.00266804 4.29922e-05)
(-0.00780082 -0.00295896 -5.67214e-05)
(-0.00741245 -0.000786918 -2.45796e-05)
(-0.00731274 0.00123077 1.13067e-05)
(-0.00748077 0.00345923 4.18815e-05)
(-0.0108165 -0.00336056 -6.05067e-05)
(-0.0104879 -0.000859823 -2.7852e-05)
(-0.010367 0.00151435 6.99009e-06)
(-0.0104332 0.00406633 3.78216e-05)
(-0.013964 -0.00358535 -6.21321e-05)
(-0.0136874 -0.000864807 -2.99205e-05)
(-0.0135531 0.00175331 2.96058e-06)
(-0.0135411 0.00451846 3.33082e-05)
(-0.017139 -0.00367402 -6.1652e-05)
(-0.0169066 -0.000817252 -3.01718e-05)
(-0.0167705 0.00195483 5.58077e-07)
(-0.0167093 0.00484943 3.02926e-05)
(-0.0202796 -0.00366816 -5.80719e-05)
(-0.0200686 -0.000731225 -2.73771e-05)
(-0.0199443 0.00213394 1.24406e-06)
(-0.0198858 0.00510343 3.00889e-05)
(-0.000668854 -0.000400849 -6.65762e-06)
(-0.000318366 -8.32446e-05 -2.3777e-06)
(-0.00030234 0.000115771 2.62268e-06)
(-0.000616061 0.000448956 7.03584e-06)
(-0.00268338 -0.00151108 -1.21371e-05)
(-0.00216433 -0.000383472 -4.81484e-06)
(-0.00212095 0.000512643 4.33809e-06)
(-0.00253357 0.00168733 1.1578e-05)
(-0.00504871 -0.00234873 -1.59718e-05)
(-0.00459426 -0.000633712 -6.60174e-06)
(-0.00452078 0.000895819 4.35893e-06)
(-0.00480876 0.00266659 1.336e-05)
(-0.00781305 -0.00296377 -1.83208e-05)
(-0.00742281 -0.000791003 -8.05017e-06)
(-0.00732308 0.00122659 3.41033e-06)
(-0.00749301 0.00345587 1.31552e-05)
(-0.0108324 -0.00336612 -1.97607e-05)
(-0.0105024 -0.00086505 -9.19135e-06)
(-0.0103816 0.00150873 2.07527e-06)
(-0.0104492 0.00406119 1.20404e-05)
(-0.0139828 -0.00359195 -2.0495e-05)
(-0.0137053 -0.000871259 -9.93246e-06)
(-0.0135712 0.00174642 8.40856e-07)
(-0.0135601 0.00451196 1.07884e-05)
(-0.0171602 -0.00368193 -2.0474e-05)
(-0.0169274 -0.000824951 -1.00402e-05)
(-0.0167914 0.00194691 1.48592e-07)
(-0.0167309 0.00484207 1.00097e-05)
(-0.0203027 -0.0036774 -1.93217e-05)
(-0.0200914 -0.000740034 -9.08264e-06)
(-0.0199676 0.00212533 4.80136e-07)
(-0.0199098 0.00509574 1.01191e-05)
)
;

boundaryField
{
    interface
    {
        type            calculated;
        value           nonuniform List<vector> 
192
(
(-0.00115419 -0.00116769 -0.000724423)
(-0.00247819 -0.00236919 -0.000881563)
(-0.00473468 -0.00351332 -0.000888042)
(-0.0073902 -0.00432155 -0.000762471)
(-0.0103888 -0.0048358 -0.000596918)
(-0.0135491 -0.00508166 -0.000432093)
(-0.0167438 -0.00512163 -0.000303006)
(-0.0198851 -0.00504132 -0.000228349)
(-0.00125445 -0.00125078 -0.000396854)
(-0.00278263 -0.00236217 -0.000567031)
(-0.00501886 -0.00349505 -0.000615984)
(-0.00766019 -0.00430446 -0.000567323)
(-0.0106067 -0.00482551 -0.000478382)
(-0.0137126 -0.00508469 -0.000381949)
(-0.016861 -0.00514237 -0.000303351)
(-0.0199783 -0.00508507 -0.000255636)
(-0.00133677 -0.00132372 -0.000223573)
(-0.00293338 -0.00238588 -0.000349353)
(-0.00520432 -0.00348749 -0.000404481)
(-0.00784524 -0.00428353 -0.000400025)
(-0.0107728 -0.00480366 -0.000363832)
(-0.0138536 -0.00507445 -0.000317701)
(-0.0169812 -0.00515301 -0.00027709)
(-0.0200893 -0.00512246 -0.000248853)
(-0.00138289 -0.00136766 -0.000128738)
(-0.00301617 -0.00241036 -0.000215598)
(-0.00531535 -0.00349565 -0.000262695)
(-0.00796625 -0.00427929 -0.000275557)
(-0.0108931 -0.00479681 -0.000268093)
(-0.0139678 -0.00507455 -0.000251572)
(-0.0170897 -0.00516761 -0.000234058)
(-0.0201967 -0.00515503 -0.000218306)
(-0.00140821 -0.0013936 -7.52539e-05)
(-0.00306244 -0.00243058 -0.000133154)
(-0.00538105 -0.00351008 -0.000169099)
(-0.00804419 -0.00428757 -0.000185929)
(-0.0109774 -0.00480348 -0.000190737)
(-0.0140547 -0.00508517 -0.000188693)
(-0.0171783 -0.00518682 -0.00018324)
(-0.0202878 -0.00518492 -0.000174766)
(-0.00142236 -0.00140901 -4.34013e-05)
(-0.00308866 -0.00244564 -8.00658e-05)
(-0.00541999 -0.00352468 -0.000104936)
(-0.00809332 -0.00430036 -0.000119536)
(-0.0110341 -0.00481604 -0.000127383)
(-0.0141169 -0.00510014 -0.000130621)
(-0.0172445 -0.00520661 -0.000130328)
(-0.0203575 -0.00521065 -0.00012589)
(-0.00142995 -0.00141778 -2.26128e-05)
(-0.0031027 -0.00245559 -4.28981e-05)
(-0.00544194 -0.00353592 -5.74409e-05)
(-0.00812245 -0.00431174 -6.70134e-05)
(-0.0110694 -0.00482785 -7.31651e-05)
(-0.0141568 -0.00511345 -7.66583e-05)
(-0.0172881 -0.00522254 -7.76778e-05)
(-0.0204043 -0.00522969 -7.55218e-05)
(-0.00143326 -0.00142178 -7.03117e-06)
(-0.00310879 -0.00246052 -1.35255e-05)
(-0.00545187 -0.00354194 -1.83084e-05)
(-0.00813622 -0.0043182 -2.16173e-05)
(-0.0110864 -0.00483472 -2.38768e-05)
(-0.0141763 -0.00512108 -2.52644e-05)
(-0.0173097 -0.00523133 -2.57768e-05)
(-0.0204275 -0.00523972 -2.51272e-05)
(-0.000405644 -0.000761155 -0.00104557)
(-0.00195829 -0.00151231 -0.000822734)
(-0.00419071 -0.00233221 -0.000854009)
(-0.00693844 -0.00289525 -0.000706744)
(-0.0100325 -0.00326102 -0.000547782)
(-0.0132879 -0.00344629 -0.000391642)
(-0.0165552 -0.00349405 -0.00027131)
(-0.0197353 -0.00345254 -0.000193609)
(-1.34335e-05 -0.000227143 -0.000287471)
(-0.00148809 -0.000409128 -0.000300222)
(-0.00375376 -0.000646835 -0.000289536)
(-0.00656555 -0.000765154 -0.000256844)
(-0.00971382 -0.000797087 -0.000216524)
(-0.0130169 -0.000757992 -0.000176107)
(-0.0163249 -0.000668653 -0.000143573)
(-0.0195253 -0.000550415 -0.00011454)
(9.48179e-06 0.000295496 0.000367126)
(-0.00144488 0.000498517 0.000359302)
(-0.00369185 0.000872719 0.000312073)
(-0.00648667 0.00121447 0.000224949)
(-0.00961769 0.00153651 0.000135555)
(-0.0129069 0.0018223 5.45966e-05)
(-0.0162083 0.00206824 -1.25038e-05)
(-0.019409 0.00228038 -7.14084e-05)
(-0.000336339 0.000910169 0.00115322)
(-0.00181721 0.00165464 0.0008931)
(-0.00398692 0.00262457 0.000874798)
(-0.00668018 0.00341134 0.000667241)
(-0.00972255 0.00406199 0.000458484)
(-0.012938 0.00456406 0.000263243)
(-0.0161859 0.0049383 0.000108907)
(-0.019368 0.00522069 -1.20213e-06)
(-0.00099486 0.00131897 0.000838097)
(-0.00223558 0.00260422 0.000955138)
(-0.00438612 0.00392661 0.000901493)
(-0.00695062 0.00494055 0.000709951)
(-0.00987655 0.00570882 0.000491169)
(-0.0129922 0.00624307 0.000286754)
(-0.0161752 0.00659507 0.000126739)
(-0.0193338 0.00683037 2.60365e-05)
(-0.00108226 0.00139566 0.000483008)
(-0.00254077 0.00262495 0.000630069)
(-0.00465372 0.00393477 0.000628916)
(-0.00719498 0.00494541 0.000524877)
(-0.010064 0.00570281 0.000389289)
(-0.0131249 0.00622964 0.000257998)
(-0.0162663 0.00657932 0.00015495)
(-0.0194153 0.00682272 9.24682e-05)
(-0.00115672 0.0014759 0.000277547)
(-0.00269115 0.0026521 0.000389106)
(-0.00483592 0.00392739 0.000408879)
(-0.00737287 0.00491885 0.000362585)
(-0.0102209 0.00566395 0.000288673)
(-0.0132563 0.00618773 0.00021343)
(-0.0163784 0.0065433 0.000154099)
(-0.0195216 0.00680131 0.000120007)
(-0.00119937 0.00152271 0.00015819)
(-0.00277411 0.0026715 0.000235285)
(-0.00494746 0.00392356 0.00025747)
(-0.0074944 0.00489563 0.000239956)
(-0.0103409 0.0056293 0.000203765)
(-0.0133695 0.00614924 0.000164642)
(-0.0164858 0.00650795 0.000134289)
(-0.0196328 0.00677566 0.000119045)
(-0.00122324 0.00154816 8.91184e-05)
(-0.00282058 0.00268378 0.000139668)
(-0.00501444 0.00392249 0.000158146)
(-0.00757403 0.00488116 0.00015364)
(-0.0104268 0.00560543 0.000137723)
(-0.0134578 0.00612077 0.000119379)
(-0.0165757 0.00647976 0.000105761)
(-0.0197285 0.00675209 0.000101148)
(-0.00123672 0.0015617 4.8705e-05)
(-0.00284676 0.00269112 7.98803e-05)
(-0.00505423 0.00392268 9.30656e-05)
(-0.00762454 0.00487313 9.35116e-05)
(-0.010485 0.00559071 8.74857e-05)
(-0.0135212 0.00610189 7.99326e-05)
(-0.0166435 0.0064596 7.49447e-05)
(-0.0198019 0.00673345 7.51896e-05)
(-0.00124407 0.0015686 2.40553e-05)
(-0.00286095 0.0026952 4.08539e-05)
(-0.00507668 0.00392317 4.8633e-05)
(-0.00765439 0.00486904 5.00812e-05)
(-0.010521 0.00558245 4.82805e-05)
(-0.013562 0.00609062 4.56953e-05)
(-0.0166882 0.00644684 4.4415e-05)
(-0.019851 0.00672086 4.58788e-05)
(-0.00124732 0.0015715 7.23315e-06)
(-0.0028672 0.00269702 1.25232e-05)
(-0.00508683 0.00392352 1.50853e-05)
(-0.00766827 0.00486734 1.57402e-05)
(-0.0105381 0.00557876 1.54114e-05)
(-0.0135818 0.00608536 1.48463e-05)
(-0.0167104 0.00644067 1.46868e-05)
(-0.0198755 0.00671451 1.5389e-05)
(-0.0213057 -0.00343595 -0.000189117)
(-0.0214041 -0.00348708 -0.000194364)
(-0.0215242 -0.00353131 -0.000183975)
(-0.0216372 -0.00356808 -0.000159377)
(-0.0217319 -0.00359992 -0.000126309)
(-0.0218038 -0.00362607 -9.01428e-05)
(-0.0218518 -0.00364487 -5.36806e-05)
(-0.0218757 -0.0036546 -1.77885e-05)
(-0.0210266 -0.000514824 -0.000114767)
(-0.0211314 -0.000550458 -0.000104328)
(-0.0212542 -0.000585666 -9.10684e-05)
(-0.0213683 -0.00061932 -7.50094e-05)
(-0.0214626 -0.000649431 -5.75772e-05)
(-0.0215336 -0.00067418 -4.02311e-05)
(-0.0215807 -0.000691843 -2.36374e-05)
(-0.0216042 -0.000701092 -7.77968e-06)
(-0.0209014 0.0023781 -6.41221e-05)
(-0.0210023 0.00235623 -2.81523e-05)
(-0.0211237 0.0023283 -8.04559e-06)
(-0.0212388 0.00229758 2.29064e-06)
(-0.0213346 0.00226884 6.16939e-06)
(-0.0214068 0.00224514 6.33588e-06)
(-0.0214548 0.00222841 4.46037e-06)
(-0.0214787 0.0022197 1.58753e-06)
(-0.020921 0.00534373 -1.89264e-06)
(-0.0210097 0.00533065 4.93423e-05)
(-0.0211275 0.00531107 7.44548e-05)
(-0.0212449 0.00528445 7.87832e-05)
(-0.0213444 0.00525865 6.92117e-05)
(-0.0214203 0.0052373 5.24015e-05)
(-0.0214708 0.00522242 3.22655e-05)
(-0.021496 0.00521478 1.08596e-05)
)
;
    }
    symmetry
    {
        type            symmetryPlane;
    }
    bottom
    {
        type            calculated;
        value           uniform (0 0 0);
    }
}


// ************************************************************************* //
