/*--------------------------------*- C++ -*----------------------------------*\
| =========                 |                                                 |
| \\      /  F ield         | foam-extend: Open Source CFD                    |
|  \\    /   O peration     | Version:     3.1                                |
|   \\  /    A nd           | Web:         http://www.extend-project.de       |
|    \\/     M anipulation  |                                                 |
\*---------------------------------------------------------------------------*/
FoamFile
{
    version     2.0;
    format      ascii;
    class       volVectorField;
    location    "0.0017";
    object      D_0;
}
// * * * * * * * * * * * * * * * * * * * * * * * * * * * * * * * * * * * * * //

dimensions      [0 1 0 0 0 0 0];

internalField   nonuniform List<vector> 
6400
(
(7.41487e-06 2.55747e-07 6.00918e-06)
(5.8187e-06 2.01736e-07 1.96281e-06)
(5.28356e-06 1.80483e-07 -1.04699e-06)
(5.70296e-06 1.89763e-07 -4.80087e-06)
(7.35498e-06 8.49032e-07 6.01418e-06)
(5.77486e-06 6.6639e-07 1.97064e-06)
(5.24642e-06 6.05326e-07 -1.0384e-06)
(5.67019e-06 6.54715e-07 -4.79209e-06)
(7.26101e-06 1.43127e-06 6.01199e-06)
(5.70118e-06 1.12323e-06 1.97042e-06)
(5.17981e-06 1.02109e-06 -1.03798e-06)
(5.59893e-06 1.10514e-06 -4.79145e-06)
(7.12388e-06 2.00115e-06 6.01044e-06)
(5.59362e-06 1.57104e-06 1.96966e-06)
(5.08216e-06 1.42813e-06 -1.03826e-06)
(5.49352e-06 1.54502e-06 -4.79131e-06)
(6.94341e-06 2.55658e-06 6.00971e-06)
(5.45194e-06 2.00757e-06 1.96933e-06)
(4.95343e-06 1.82479e-06 -1.03828e-06)
(5.35438e-06 1.97352e-06 -4.79095e-06)
(6.72042e-06 3.0949e-06 6.00957e-06)
(5.27675e-06 2.43054e-06 1.96938e-06)
(4.79419e-06 2.2091e-06 -1.03803e-06)
(5.1822e-06 2.38872e-06 -4.7904e-06)
(6.45616e-06 3.61325e-06 6.00987e-06)
(5.06905e-06 2.8377e-06 1.9697e-06)
(4.60537e-06 2.57897e-06 -1.03759e-06)
(4.97802e-06 2.78837e-06 -4.78972e-06)
(6.15215e-06 4.10875e-06 6.01048e-06)
(4.83009e-06 3.22675e-06 1.9702e-06)
(4.38814e-06 2.93233e-06 -1.03706e-06)
(4.74316e-06 3.17019e-06 -4.78899e-06)
(5.81019e-06 4.57863e-06 6.01135e-06)
(4.56135e-06 3.59551e-06 1.97081e-06)
(4.14393e-06 3.26716e-06 -1.03653e-06)
(4.47922e-06 3.53198e-06 -4.78833e-06)
(5.4322e-06 5.02035e-06 6.01244e-06)
(4.26458e-06 3.94195e-06 1.97138e-06)
(3.87444e-06 3.58165e-06 -1.03613e-06)
(4.18807e-06 3.87177e-06 -4.7879e-06)
(5.02035e-06 5.4322e-06 6.01244e-06)
(3.94195e-06 4.26458e-06 1.97138e-06)
(3.58165e-06 3.87444e-06 -1.03613e-06)
(3.87177e-06 4.18807e-06 -4.7879e-06)
(4.57863e-06 5.81019e-06 6.01135e-06)
(3.59551e-06 4.56135e-06 1.97081e-06)
(3.26716e-06 4.14393e-06 -1.03653e-06)
(3.53198e-06 4.47921e-06 -4.78833e-06)
(4.10876e-06 6.15215e-06 6.01048e-06)
(3.22675e-06 4.83009e-06 1.9702e-06)
(2.93233e-06 4.38814e-06 -1.03706e-06)
(3.1702e-06 4.74316e-06 -4.78899e-06)
(3.61325e-06 6.45616e-06 6.00987e-06)
(2.8377e-06 5.06905e-06 1.9697e-06)
(2.57898e-06 4.60537e-06 -1.03759e-06)
(2.78837e-06 4.97802e-06 -4.78972e-06)
(3.09491e-06 6.72043e-06 6.00958e-06)
(2.43055e-06 5.27675e-06 1.96938e-06)
(2.2091e-06 4.79419e-06 -1.03803e-06)
(2.38872e-06 5.1822e-06 -4.7904e-06)
(2.55659e-06 6.94341e-06 6.00971e-06)
(2.00757e-06 5.45194e-06 1.96933e-06)
(1.8248e-06 4.95343e-06 -1.03828e-06)
(1.97353e-06 5.35438e-06 -4.79095e-06)
(2.00115e-06 7.12388e-06 6.01044e-06)
(1.57105e-06 5.59363e-06 1.96966e-06)
(1.42814e-06 5.08216e-06 -1.03826e-06)
(1.54503e-06 5.49352e-06 -4.79131e-06)
(1.43127e-06 7.26102e-06 6.01199e-06)
(1.12323e-06 5.70118e-06 1.97042e-06)
(1.0211e-06 5.17981e-06 -1.03798e-06)
(1.10514e-06 5.59894e-06 -4.79145e-06)
(8.49033e-07 7.35498e-06 6.01419e-06)
(6.66392e-07 5.77487e-06 1.97064e-06)
(6.05327e-07 5.24642e-06 -1.0384e-06)
(6.54716e-07 5.67019e-06 -4.79209e-06)
(2.55748e-07 7.41488e-06 6.00918e-06)
(2.01737e-07 5.81871e-06 1.96281e-06)
(1.80483e-07 5.28357e-06 -1.04699e-06)
(1.89763e-07 5.70297e-06 -4.80087e-06)
(3.2356e-05 1.25224e-06 1.30835e-05)
(3.0575e-05 1.18905e-06 4.98969e-06)
(2.95542e-05 1.15131e-06 -2.31049e-06)
(2.92498e-05 1.14202e-06 -1.01666e-05)
(3.21351e-05 3.78524e-06 1.30692e-05)
(3.03708e-05 3.58206e-06 4.97662e-06)
(2.93638e-05 3.46659e-06 -2.32339e-06)
(2.90681e-05 3.43453e-06 -1.01791e-05)
(3.17302e-05 6.29722e-06 1.30629e-05)
(2.99884e-05 5.95439e-06 4.97162e-06)
(2.8995e-05 5.76011e-06 -2.32738e-06)
(2.87042e-05 5.70508e-06 -1.01818e-05)
(3.11328e-05 8.7693e-06 1.30602e-05)
(2.9424e-05 8.29017e-06 4.96987e-06)
(2.84494e-05 8.01809e-06 -2.32818e-06)
(2.81643e-05 7.94011e-06 -1.01814e-05)
(3.03451e-05 1.11863e-05 1.30594e-05)
(2.86796e-05 1.05743e-05 4.96981e-06)
(2.77296e-05 1.02262e-05 -2.3275e-06)
(2.74517e-05 1.01258e-05 -1.01798e-05)
(2.93713e-05 1.35334e-05 1.30599e-05)
(2.77591e-05 1.27925e-05 4.97073e-06)
(2.68395e-05 1.23707e-05 -2.32605e-06)
(2.65703e-05 1.22485e-05 -1.01777e-05)
(2.82168e-05 1.57962e-05 1.30612e-05)
(2.66677e-05 1.49311e-05 4.97223e-06)
(2.57841e-05 1.44383e-05 -2.32421e-06)
(2.55254e-05 1.42951e-05 -1.01754e-05)
(2.68886e-05 1.79611e-05 1.3063e-05)
(2.54121e-05 1.6977e-05 4.97402e-06)
(2.45699e-05 1.64162e-05 -2.32228e-06)
(2.43233e-05 1.62529e-05 -1.01731e-05)
(2.53946e-05 2.00151e-05 1.30651e-05)
(2.39999e-05 1.89179e-05 4.97579e-06)
(2.32045e-05 1.82924e-05 -2.32057e-06)
(2.29716e-05 1.811e-05 -1.01712e-05)
(2.37436e-05 2.19461e-05 1.30669e-05)
(2.24398e-05 2.07423e-05 4.97707e-06)
(2.16965e-05 2.00558e-05 -2.31948e-06)
(2.1479e-05 1.98553e-05 -1.017e-05)
(2.19461e-05 2.37436e-05 1.30669e-05)
(2.07423e-05 2.24398e-05 4.97707e-06)
(2.00558e-05 2.16964e-05 -2.31948e-06)
(1.98553e-05 2.1479e-05 -1.017e-05)
(2.00151e-05 2.53946e-05 1.30651e-05)
(1.8918e-05 2.39999e-05 4.97579e-06)
(1.82924e-05 2.32045e-05 -2.32057e-06)
(1.811e-05 2.29716e-05 -1.01712e-05)
(1.79611e-05 2.68886e-05 1.3063e-05)
(1.6977e-05 2.54121e-05 4.97402e-06)
(1.64162e-05 2.45699e-05 -2.32228e-06)
(1.6253e-05 2.43233e-05 -1.01731e-05)
(1.57962e-05 2.82168e-05 1.30612e-05)
(1.49311e-05 2.66677e-05 4.97224e-06)
(1.44383e-05 2.57841e-05 -2.32421e-06)
(1.42951e-05 2.55254e-05 -1.01754e-05)
(1.35334e-05 2.93713e-05 1.30599e-05)
(1.27925e-05 2.77591e-05 4.97073e-06)
(1.23707e-05 2.68395e-05 -2.32605e-06)
(1.22485e-05 2.65703e-05 -1.01777e-05)
(1.11863e-05 3.03451e-05 1.30594e-05)
(1.05743e-05 2.86796e-05 4.96981e-06)
(1.02262e-05 2.77296e-05 -2.3275e-06)
(1.01258e-05 2.74517e-05 -1.01798e-05)
(8.7693e-06 3.11328e-05 1.30602e-05)
(8.29018e-06 2.9424e-05 4.96987e-06)
(8.0181e-06 2.84494e-05 -2.32817e-06)
(7.94012e-06 2.81643e-05 -1.01814e-05)
(6.29722e-06 3.17302e-05 1.30629e-05)
(5.95439e-06 2.99884e-05 4.97162e-06)
(5.76012e-06 2.8995e-05 -2.32738e-06)
(5.70509e-06 2.87043e-05 -1.01818e-05)
(3.78524e-06 3.21352e-05 1.30692e-05)
(3.58207e-06 3.03708e-05 4.97662e-06)
(3.4666e-06 2.93638e-05 -2.32339e-06)
(3.43454e-06 2.90681e-05 -1.01791e-05)
(1.25224e-06 3.2356e-05 1.30835e-05)
(1.18905e-06 3.0575e-05 4.98969e-06)
(1.15131e-06 2.95542e-05 -2.31048e-06)
(1.14202e-06 2.92498e-05 -1.01666e-05)
(5.94109e-05 2.3221e-06 1.44567e-05)
(5.76953e-05 2.26378e-06 5.52702e-06)
(5.63126e-05 2.21381e-06 -2.94102e-06)
(5.52331e-05 2.17778e-06 -1.16797e-05)
(5.90281e-05 6.97279e-06 1.44414e-05)
(5.73235e-05 6.77881e-06 5.51089e-06)
(5.59515e-05 6.62226e-06 -2.95721e-06)
(5.48803e-05 6.50118e-06 -1.16938e-05)
(5.82902e-05 1.15822e-05 1.44335e-05)
(5.6606e-05 1.12526e-05 5.50325e-06)
(5.52508e-05 1.09883e-05 -2.9639e-06)
(5.41931e-05 1.0783e-05 -1.16986e-05)
(5.7195e-05 1.61192e-05 1.44301e-05)
(5.55422e-05 1.56576e-05 5.50053e-06)
(5.42121e-05 1.52869e-05 -2.9656e-06)
(5.3174e-05 1.49984e-05 -1.1699e-05)
(5.57487e-05 2.05564e-05 1.44293e-05)
(5.41375e-05 1.99659e-05 5.50055e-06)
(5.28409e-05 1.94914e-05 -2.96471e-06)
(5.18289e-05 1.91217e-05 -1.16971e-05)
(5.39599e-05 2.48663e-05 1.44303e-05)
(5.24002e-05 2.41509e-05 5.50212e-06)
(5.1145e-05 2.35757e-05 -2.96246e-06)
(5.01652e-05 2.31272e-05 -1.1694e-05)
(5.18392e-05 2.90225e-05 1.44324e-05)
(5.03405e-05 2.81867e-05 5.50454e-06)
(4.91344e-05 2.75144e-05 -2.95956e-06)
(4.81929e-05 2.699e-05 -1.16905e-05)
(4.93992e-05 3.29996e-05 1.44352e-05)
(4.79707e-05 3.20484e-05 5.5073e-06)
(4.68212e-05 3.12832e-05 -2.95657e-06)
(4.5924e-05 3.06861e-05 -1.1687e-05)
(4.66546e-05 3.67733e-05 1.4438e-05)
(4.53054e-05 3.57125e-05 5.50987e-06)
(4.42199e-05 3.48589e-05 -2.954e-06)
(4.33726e-05 3.41928e-05 -1.16842e-05)
(4.36222e-05 4.0321e-05 1.44402e-05)
(4.23611e-05 3.91568e-05 5.51159e-06)
(4.13466e-05 3.82199e-05 -2.95243e-06)
(4.05548e-05 3.74887e-05 -1.16826e-05)
(4.0321e-05 4.36222e-05 1.44402e-05)
(3.91568e-05 4.23611e-05 5.51159e-06)
(3.82199e-05 4.13466e-05 -2.95243e-06)
(3.74887e-05 4.05548e-05 -1.16826e-05)
(3.67733e-05 4.66546e-05 1.4438e-05)
(3.57125e-05 4.53054e-05 5.50987e-06)
(3.48589e-05 4.42198e-05 -2.954e-06)
(3.41928e-05 4.33725e-05 -1.16842e-05)
(3.29996e-05 4.93991e-05 1.44352e-05)
(3.20484e-05 4.79707e-05 5.5073e-06)
(3.12832e-05 4.68212e-05 -2.95657e-06)
(3.06861e-05 4.5924e-05 -1.1687e-05)
(2.90225e-05 5.18392e-05 1.44324e-05)
(2.81867e-05 5.03405e-05 5.50454e-06)
(2.75144e-05 4.91344e-05 -2.95956e-06)
(2.699e-05 4.81929e-05 -1.16905e-05)
(2.48663e-05 5.39599e-05 1.44303e-05)
(2.41509e-05 5.24002e-05 5.50212e-06)
(2.35757e-05 5.1145e-05 -2.96246e-06)
(2.31273e-05 5.01652e-05 -1.1694e-05)
(2.05564e-05 5.57487e-05 1.44293e-05)
(1.99659e-05 5.41375e-05 5.50055e-06)
(1.94914e-05 5.28409e-05 -2.96471e-06)
(1.91218e-05 5.18289e-05 -1.16971e-05)
(1.61193e-05 5.7195e-05 1.44301e-05)
(1.56576e-05 5.55422e-05 5.50054e-06)
(1.52869e-05 5.42121e-05 -2.96559e-06)
(1.49985e-05 5.3174e-05 -1.1699e-05)
(1.15822e-05 5.82902e-05 1.44335e-05)
(1.12527e-05 5.6606e-05 5.50325e-06)
(1.09884e-05 5.52508e-05 -2.96389e-06)
(1.0783e-05 5.41931e-05 -1.16986e-05)
(6.9728e-06 5.90281e-05 1.44414e-05)
(6.77882e-06 5.73235e-05 5.51089e-06)
(6.62227e-06 5.59515e-05 -2.9572e-06)
(6.50119e-06 5.48804e-05 -1.16938e-05)
(2.3221e-06 5.9411e-05 1.44568e-05)
(2.26378e-06 5.76953e-05 5.52702e-06)
(2.21381e-06 5.63126e-05 -2.94101e-06)
(2.17778e-06 5.52331e-05 -1.16797e-05)
(8.38236e-05 3.28505e-06 1.20766e-05)
(8.20243e-05 3.22348e-06 4.15506e-06)
(8.03194e-05 3.16215e-06 -3.49699e-06)
(7.86831e-05 3.10857e-06 -1.12534e-05)
(8.32924e-05 9.84682e-06 1.2065e-05)
(8.15016e-05 9.64333e-06 4.14309e-06)
(7.98058e-05 9.45023e-06 -3.50882e-06)
(7.81781e-05 9.26652e-06 -1.12636e-05)
(8.22535e-05 1.63494e-05 1.20581e-05)
(8.04834e-05 1.60042e-05 4.13665e-06)
(7.88077e-05 1.5678e-05 -3.51431e-06)
(7.72e-05 1.53655e-05 -1.12674e-05)
(8.0709e-05 2.27501e-05 1.2055e-05)
(7.89716e-05 2.22661e-05 4.13437e-06)
(7.73267e-05 2.18084e-05 -3.51555e-06)
(7.57487e-05 2.13696e-05 -1.12674e-05)
(7.86686e-05 2.901e-05 1.20546e-05)
(7.69747e-05 2.83906e-05 4.13483e-06)
(7.5371e-05 2.78044e-05 -3.51414e-06)
(7.38324e-05 2.72422e-05 -1.1265e-05)
(7.61445e-05 3.50909e-05 1.20561e-05)
(7.45045e-05 3.43399e-05 4.13699e-06)
(7.29519e-05 3.36291e-05 -3.51117e-06)
(7.14624e-05 3.29471e-05 -1.12611e-05)
(7.31518e-05 4.09554e-05 1.20588e-05)
(7.15759e-05 4.00775e-05 4.14012e-06)
(7.00841e-05 3.92464e-05 -3.50745e-06)
(6.86529e-05 3.8449e-05 -1.12566e-05)
(6.97086e-05 4.65674e-05 1.20621e-05)
(6.82067e-05 4.55681e-05 4.14356e-06)
(6.67849e-05 4.46218e-05 -3.50366e-06)
(6.5421e-05 4.37139e-05 -1.12523e-05)
(6.58359e-05 5.18928e-05 1.20655e-05)
(6.44173e-05 5.0778e-05 4.14667e-06)
(6.30747e-05 4.97223e-05 -3.50048e-06)
(6.17868e-05 4.87094e-05 -1.12488e-05)
(6.15572e-05 5.68992e-05 1.20679e-05)
(6.02314e-05 5.56754e-05 4.14868e-06)
(5.89766e-05 5.45167e-05 -3.49857e-06)
(5.7773e-05 5.3405e-05 -1.12468e-05)
(5.68993e-05 6.15572e-05 1.20679e-05)
(5.56755e-05 6.02313e-05 4.14868e-06)
(5.45167e-05 5.89766e-05 -3.49857e-06)
(5.34051e-05 5.7773e-05 -1.12468e-05)
(5.18928e-05 6.58359e-05 1.20655e-05)
(5.0778e-05 6.44173e-05 4.14667e-06)
(4.97223e-05 6.30747e-05 -3.50047e-06)
(4.87094e-05 6.17867e-05 -1.12488e-05)
(4.65674e-05 6.97086e-05 1.20621e-05)
(4.55681e-05 6.82067e-05 4.14356e-06)
(4.46218e-05 6.67849e-05 -3.50366e-06)
(4.3714e-05 6.5421e-05 -1.12523e-05)
(4.09554e-05 7.31518e-05 1.20588e-05)
(4.00775e-05 7.15759e-05 4.14012e-06)
(3.92464e-05 7.00841e-05 -3.50745e-06)
(3.8449e-05 6.86529e-05 -1.12566e-05)
(3.5091e-05 7.61445e-05 1.20561e-05)
(3.43399e-05 7.45045e-05 4.137e-06)
(3.36291e-05 7.29519e-05 -3.51117e-06)
(3.29471e-05 7.14624e-05 -1.12611e-05)
(2.90101e-05 7.86686e-05 1.20546e-05)
(2.83906e-05 7.69747e-05 4.13483e-06)
(2.78045e-05 7.5371e-05 -3.51414e-06)
(2.72422e-05 7.38324e-05 -1.1265e-05)
(2.27501e-05 8.0709e-05 1.2055e-05)
(2.22661e-05 7.89716e-05 4.13438e-06)
(2.18085e-05 7.73267e-05 -3.51554e-06)
(2.13696e-05 7.57487e-05 -1.12674e-05)
(1.63494e-05 8.22535e-05 1.20581e-05)
(1.60042e-05 8.04834e-05 4.13665e-06)
(1.5678e-05 7.88077e-05 -3.5143e-06)
(1.53655e-05 7.72e-05 -1.12674e-05)
(9.84682e-06 8.32924e-05 1.2065e-05)
(9.64334e-06 8.15016e-05 4.14309e-06)
(9.45024e-06 7.98058e-05 -3.50881e-06)
(9.26653e-06 7.81781e-05 -1.12636e-05)
(3.28505e-06 8.38236e-05 1.20766e-05)
(3.22349e-06 8.20243e-05 4.15507e-06)
(3.16215e-06 8.03194e-05 -3.49698e-06)
(3.10857e-06 7.86831e-05 -1.12534e-05)
(0.000102806 4.03117e-06 7.44162e-06)
(0.000100868 3.96464e-06 1.5205e-06)
(9.89117e-05 3.89438e-06 -4.26112e-06)
(9.69118e-05 3.8294e-06 -1.00569e-05)
(0.000102158 1.20785e-05 7.43469e-06)
(0.000100228 1.18595e-05 1.51377e-06)
(9.82799e-05 1.16381e-05 -4.26746e-06)
(9.62892e-05 1.14139e-05 -1.0062e-05)
(0.000100884 2.0053e-05 7.43015e-06)
(9.89762e-05 1.9682e-05 1.51007e-06)
(9.7051e-05 1.93079e-05 -4.27013e-06)
(9.50847e-05 1.89261e-05 -1.00632e-05)
(9.89896e-05 2.79027e-05 7.42827e-06)
(9.71167e-05 2.73823e-05 1.50923e-06)
(9.52269e-05 2.68574e-05 -4.26981e-06)
(9.32968e-05 2.63212e-05 -1.00616e-05)
(9.64866e-05 3.55798e-05 7.42858e-06)
(9.46605e-05 3.49133e-05 1.51059e-06)
(9.28178e-05 3.42408e-05 -4.26731e-06)
(9.09359e-05 3.35537e-05 -1.00579e-05)
(9.33902e-05 4.30374e-05 7.43055e-06)
(9.16221e-05 4.22289e-05 1.51346e-06)
(8.98381e-05 4.1413e-05 -4.26342e-06)
(8.80161e-05 4.05795e-05 -1.00529e-05)
(8.97191e-05 5.02298e-05 7.43365e-06)
(8.80202e-05 4.92843e-05 1.5172e-06)
(8.63059e-05 4.83301e-05 -4.25886e-06)
(8.45553e-05 4.73552e-05 -1.00474e-05)
(8.54958e-05 5.71129e-05 7.43731e-06)
(8.38765e-05 5.60362e-05 1.52116e-06)
(8.22428e-05 5.49494e-05 -4.25435e-06)
(8.05745e-05 5.38392e-05 -1.00422e-05)
(8.07457e-05 6.36445e-05 7.44088e-06)
(7.92164e-05 6.24431e-05 1.52465e-06)
(7.76737e-05 6.12304e-05 -4.25064e-06)
(7.60983e-05 5.99917e-05 -1.0038e-05)
(7.54979e-05 6.97851e-05 7.44349e-06)
(7.40687e-05 6.8466e-05 1.52686e-06)
(7.26271e-05 6.71347e-05 -4.24845e-06)
(7.11549e-05 6.57751e-05 -1.00357e-05)
(6.97851e-05 7.54979e-05 7.44349e-06)
(6.8466e-05 7.40687e-05 1.52687e-06)
(6.71348e-05 7.2627e-05 -4.24845e-06)
(6.57751e-05 7.11548e-05 -1.00357e-05)
(6.36446e-05 8.07457e-05 7.44089e-06)
(6.24431e-05 7.92164e-05 1.52465e-06)
(6.12304e-05 7.76737e-05 -4.25063e-06)
(5.99917e-05 7.60983e-05 -1.0038e-05)
(5.71129e-05 8.54957e-05 7.43731e-06)
(5.60362e-05 8.38765e-05 1.52116e-06)
(5.49494e-05 8.22428e-05 -4.25435e-06)
(5.38393e-05 8.05745e-05 -1.00422e-05)
(5.02298e-05 8.97191e-05 7.43365e-06)
(4.92843e-05 8.80202e-05 1.5172e-06)
(4.83301e-05 8.63059e-05 -4.25885e-06)
(4.73552e-05 8.45553e-05 -1.00474e-05)
(4.30374e-05 9.33902e-05 7.43056e-06)
(4.2229e-05 9.16221e-05 1.51346e-06)
(4.14131e-05 8.98381e-05 -4.26341e-06)
(4.05795e-05 8.80161e-05 -1.00529e-05)
(3.55799e-05 9.64866e-05 7.42858e-06)
(3.49133e-05 9.46605e-05 1.51059e-06)
(3.42408e-05 9.28178e-05 -4.26731e-06)
(3.35538e-05 9.09359e-05 -1.00579e-05)
(2.79027e-05 9.89896e-05 7.42827e-06)
(2.73823e-05 9.71167e-05 1.50924e-06)
(2.68574e-05 9.52269e-05 -4.2698e-06)
(2.63212e-05 9.32968e-05 -1.00616e-05)
(2.00531e-05 0.000100884 7.43016e-06)
(1.9682e-05 9.89762e-05 1.51008e-06)
(1.93079e-05 9.7051e-05 -4.27012e-06)
(1.89261e-05 9.50847e-05 -1.00632e-05)
(1.20785e-05 0.000102158 7.43469e-06)
(1.18595e-05 0.000100228 1.51378e-06)
(1.16381e-05 9.82799e-05 -4.26745e-06)
(1.14139e-05 9.62892e-05 -1.0062e-05)
(4.03117e-06 0.000102806 7.44162e-06)
(3.96465e-06 0.000100868 1.52051e-06)
(3.89438e-06 9.89117e-05 -4.26112e-06)
(3.8294e-06 9.69118e-05 -1.00569e-05)
(0.000115177 4.51557e-06 1.6311e-06)
(0.000113118 4.44498e-06 -1.86251e-06)
(0.000111 4.36912e-06 -5.30863e-06)
(0.000108799 4.29797e-06 -8.72862e-06)
(0.000114452 1.35299e-05 1.62828e-06)
(0.0001124 1.32977e-05 -1.86474e-06)
(0.00011029 1.30587e-05 -5.31026e-06)
(0.000108099 1.28127e-05 -8.72924e-06)
(0.000113024 2.24629e-05 1.62636e-06)
(0.000110995 2.20695e-05 -1.86552e-06)
(0.00010891 2.16655e-05 -5.30986e-06)
(0.000106746 2.12464e-05 -8.72749e-06)
(0.0001109 3.1256e-05 1.62595e-06)
(0.000108908 3.07041e-05 -1.86454e-06)
(0.000106862 3.0137e-05 -5.30748e-06)
(0.000104737 2.95481e-05 -8.72364e-06)
(0.000108094 3.98558e-05 1.62703e-06)
(0.000106152 3.91485e-05 -1.86203e-06)
(0.000104156 3.84217e-05 -5.30349e-06)
(0.000102085 3.7667e-05 -8.71808e-06)
(0.000104624 4.82098e-05 1.62937e-06)
(0.000102743 4.73514e-05 -1.85838e-06)
(0.000100811 4.64692e-05 -5.29842e-06)
(9.88053e-05 4.55532e-05 -8.71148e-06)
(0.000100509 5.62668e-05 1.63261e-06)
(9.87022e-05 5.52624e-05 -1.85408e-06)
(9.68455e-05 5.42302e-05 -5.29291e-06)
(9.49185e-05 5.31585e-05 -8.7046e-06)
(9.57767e-05 6.39775e-05 1.63631e-06)
(9.40542e-05 6.28333e-05 -1.84971e-06)
(9.22848e-05 6.16573e-05 -5.28765e-06)
(9.04485e-05 6.04364e-05 -8.69827e-06)
(9.04543e-05 7.12949e-05 1.6399e-06)
(8.88276e-05 7.00176e-05 -1.84595e-06)
(8.71569e-05 6.87049e-05 -5.28341e-06)
(8.5423e-05 6.73423e-05 -8.69333e-06)
(8.45747e-05 7.81744e-05 1.6425e-06)
(8.30546e-05 7.67716e-05 -1.8436e-06)
(8.14935e-05 7.53303e-05 -5.28096e-06)
(7.98734e-05 7.38342e-05 -8.69058e-06)
(7.81744e-05 8.45747e-05 1.6425e-06)
(7.67717e-05 8.30546e-05 -1.8436e-06)
(7.53303e-05 8.14935e-05 -5.28096e-06)
(7.38342e-05 7.98734e-05 -8.69057e-06)
(7.1295e-05 9.04543e-05 1.6399e-06)
(7.00176e-05 8.88276e-05 -1.84595e-06)
(6.8705e-05 8.71568e-05 -5.28341e-06)
(6.73423e-05 8.5423e-05 -8.69333e-06)
(6.39776e-05 9.57767e-05 1.63632e-06)
(6.28333e-05 9.40542e-05 -1.84971e-06)
(6.16573e-05 9.22848e-05 -5.28765e-06)
(6.04364e-05 9.04485e-05 -8.69827e-06)
(5.62668e-05 0.000100509 1.63261e-06)
(5.52624e-05 9.87022e-05 -1.85408e-06)
(5.42302e-05 9.68455e-05 -5.2929e-06)
(5.31585e-05 9.49185e-05 -8.7046e-06)
(4.82098e-05 0.000104624 1.62937e-06)
(4.73514e-05 0.000102743 -1.85838e-06)
(4.64692e-05 0.000100811 -5.29842e-06)
(4.55532e-05 9.88053e-05 -8.71147e-06)
(3.98559e-05 0.000108094 1.62704e-06)
(3.91486e-05 0.000106152 -1.86203e-06)
(3.84218e-05 0.000104156 -5.30349e-06)
(3.7667e-05 0.000102085 -8.71808e-06)
(3.1256e-05 0.0001109 1.62596e-06)
(3.07041e-05 0.000108908 -1.86454e-06)
(3.0137e-05 0.000106862 -5.30748e-06)
(2.95482e-05 0.000104737 -8.72363e-06)
(2.24629e-05 0.000113024 1.62636e-06)
(2.20695e-05 0.000110995 -1.86551e-06)
(2.16656e-05 0.00010891 -5.30985e-06)
(2.12464e-05 0.000106746 -8.72748e-06)
(1.35299e-05 0.000114452 1.62829e-06)
(1.32977e-05 0.0001124 -1.86474e-06)
(1.30587e-05 0.00011029 -5.31025e-06)
(1.28127e-05 0.000108099 -8.72924e-06)
(4.51557e-06 0.000115177 1.6311e-06)
(4.44498e-06 0.000113118 -1.86251e-06)
(4.36913e-06 0.000111 -5.30862e-06)
(4.29797e-06 0.000108799 -8.72861e-06)
(0.000120693 4.72969e-06 -4.60352e-06)
(0.000118566 4.65721e-06 -5.58797e-06)
(0.000116383 4.57938e-06 -6.59402e-06)
(0.000114119 4.50657e-06 -7.56158e-06)
(0.000119932 1.41731e-05 -4.60312e-06)
(0.000117812 1.39345e-05 -5.58673e-06)
(0.000115638 1.36892e-05 -6.59199e-06)
(0.000113384 1.34374e-05 -7.55872e-06)
(0.000118433 2.35314e-05 -4.60277e-06)
(0.000116338 2.31269e-05 -5.58493e-06)
(0.000114189 2.27123e-05 -6.58883e-06)
(0.000111963 2.22829e-05 -7.55414e-06)
(0.000116205 3.27432e-05 -4.60187e-06)
(0.000114147 3.21754e-05 -5.58222e-06)
(0.000112038 3.1593e-05 -6.58437e-06)
(0.000109852 3.09893e-05 -7.54785e-06)
(0.000113262 4.17525e-05 -4.6002e-06)
(0.000111255 4.10243e-05 -5.57859e-06)
(0.000109198 4.02774e-05 -6.57877e-06)
(0.000107066 3.95032e-05 -7.54018e-06)
(0.000109622 5.05041e-05 -4.59775e-06)
(0.000107679 4.96198e-05 -5.57422e-06)
(0.000105686 4.87127e-05 -6.57244e-06)
(0.000103623 4.77725e-05 -7.53173e-06)
(0.000105308 5.89448e-05 -4.59467e-06)
(0.00010344 5.79094e-05 -5.56948e-06)
(0.000101526 5.68474e-05 -6.56594e-06)
(9.95429e-05 5.57468e-05 -7.52327e-06)
(0.000100346 6.70231e-05 -4.59122e-06)
(9.85663e-05 6.58428e-05 -5.56484e-06)
(9.67419e-05 6.46321e-05 -6.55993e-06)
(9.48523e-05 6.33776e-05 -7.51568e-06)
(9.4767e-05 7.46898e-05 -4.58787e-06)
(9.30866e-05 7.33715e-05 -5.56092e-06)
(9.13641e-05 7.20194e-05 -6.55519e-06)
(8.95802e-05 7.06186e-05 -7.50985e-06)
(8.86051e-05 8.18982e-05 -4.58541e-06)
(8.70351e-05 8.04498e-05 -5.55851e-06)
(8.5426e-05 7.89646e-05 -6.55248e-06)
(8.37593e-05 7.7426e-05 -7.50663e-06)
(8.18982e-05 8.8605e-05 -4.58541e-06)
(8.04498e-05 8.70351e-05 -5.55851e-06)
(7.89646e-05 8.5426e-05 -6.55248e-06)
(7.7426e-05 8.37593e-05 -7.50663e-06)
(7.46898e-05 9.4767e-05 -4.58787e-06)
(7.33715e-05 9.30866e-05 -5.56092e-06)
(7.20194e-05 9.13641e-05 -6.55518e-06)
(7.06186e-05 8.95801e-05 -7.50985e-06)
(6.70232e-05 0.000100346 -4.59121e-06)
(6.58428e-05 9.85663e-05 -5.56484e-06)
(6.46321e-05 9.67419e-05 -6.55993e-06)
(6.33776e-05 9.48523e-05 -7.51568e-06)
(5.89448e-05 0.000105308 -4.59466e-06)
(5.79094e-05 0.00010344 -5.56947e-06)
(5.68474e-05 0.000101526 -6.56593e-06)
(5.57468e-05 9.95429e-05 -7.52327e-06)
(5.05041e-05 0.000109622 -4.59775e-06)
(4.96198e-05 0.000107679 -5.57422e-06)
(4.87127e-05 0.000105686 -6.57244e-06)
(4.77725e-05 0.000103623 -7.53172e-06)
(4.17525e-05 0.000113262 -4.60019e-06)
(4.10243e-05 0.000111255 -5.57858e-06)
(4.02774e-05 0.000109198 -6.57877e-06)
(3.95032e-05 0.000107066 -7.54017e-06)
(3.27432e-05 0.000116205 -4.60186e-06)
(3.21754e-05 0.000114147 -5.58222e-06)
(3.1593e-05 0.000112038 -6.58436e-06)
(3.09893e-05 0.000109852 -7.54785e-06)
(2.35314e-05 0.000118433 -4.60277e-06)
(2.31269e-05 0.000116338 -5.58492e-06)
(2.27123e-05 0.000114189 -6.58882e-06)
(2.22829e-05 0.000111963 -7.55414e-06)
(1.41731e-05 0.000119932 -4.60312e-06)
(1.39345e-05 0.000117812 -5.58672e-06)
(1.36892e-05 0.000115638 -6.59198e-06)
(1.34374e-05 0.000113384 -7.55871e-06)
(4.72969e-06 0.000120693 -4.60351e-06)
(4.65722e-06 0.000118566 -5.58796e-06)
(4.57939e-06 0.000116383 -6.59401e-06)
(4.50658e-06 0.000114119 -7.56158e-06)
(0.00011962 4.68452e-06 -1.07181e-05)
(0.000117498 4.61287e-06 -9.32582e-06)
(0.000115345 4.53666e-06 -8.01308e-06)
(0.000113137 4.46617e-06 -6.6607e-06)
(0.000118863 1.40399e-05 -1.07152e-05)
(0.000116749 1.38035e-05 -9.32189e-06)
(0.000114605 1.35633e-05 -8.00821e-06)
(0.000112406 1.33195e-05 -6.6551e-06)
(0.000117374 2.3311e-05 -1.07131e-05)
(0.000115284 2.291e-05 -9.31803e-06)
(0.000113164 2.25036e-05 -8.00278e-06)
(0.000110992 2.20873e-05 -6.64814e-06)
(0.000115161 3.24368e-05 -1.07112e-05)
(0.000113108 3.18733e-05 -9.31393e-06)
(0.000111027 3.13021e-05 -7.99655e-06)
(0.000108894 3.07165e-05 -6.63965e-06)
(0.000112239 4.13618e-05 -1.07093e-05)
(0.000110236 4.06386e-05 -9.30944e-06)
(0.000108206 3.99054e-05 -7.98956e-06)
(0.000106126 3.91536e-05 -6.63e-06)
(0.000108626 5.00316e-05 -1.07071e-05)
(0.000106686 4.91523e-05 -9.30459e-06)
(0.000104721 4.82611e-05 -7.98214e-06)
(0.000102706 4.73473e-05 -6.6198e-06)
(0.000104345 5.83934e-05 -1.07045e-05)
(0.000102481 5.7363e-05 -9.29963e-06)
(0.000100592 5.63186e-05 -7.9748e-06)
(9.86565e-05 5.5248e-05 -6.60983e-06)
(9.94238e-05 6.63967e-05 -1.07016e-05)
(9.7647e-05 6.52209e-05 -9.29492e-06)
(9.5847e-05 6.40293e-05 -7.96819e-06)
(9.40027e-05 6.2808e-05 -6.60104e-06)
(9.38918e-05 7.39928e-05 -1.06987e-05)
(9.22142e-05 7.26786e-05 -9.29102e-06)
(9.05151e-05 7.13468e-05 -7.96304e-06)
(8.87743e-05 6.99819e-05 -6.59436e-06)
(8.77832e-05 8.1136e-05 -1.06965e-05)
(8.62164e-05 7.96911e-05 -9.28863e-06)
(8.46296e-05 7.82272e-05 -7.96014e-06)
(8.30038e-05 7.67272e-05 -6.59071e-06)
(8.1136e-05 8.77832e-05 -1.06965e-05)
(7.96912e-05 8.62164e-05 -9.28863e-06)
(7.82272e-05 8.46296e-05 -7.96014e-06)
(7.67272e-05 8.30038e-05 -6.59071e-06)
(7.39928e-05 9.38917e-05 -1.06987e-05)
(7.26787e-05 9.22142e-05 -9.29101e-06)
(7.13468e-05 9.05151e-05 -7.96304e-06)
(6.9982e-05 8.87742e-05 -6.59436e-06)
(6.63967e-05 9.94238e-05 -1.07016e-05)
(6.5221e-05 9.7647e-05 -9.29492e-06)
(6.40293e-05 9.5847e-05 -7.96819e-06)
(6.2808e-05 9.40027e-05 -6.60103e-06)
(5.83934e-05 0.000104345 -1.07045e-05)
(5.7363e-05 0.000102481 -9.29963e-06)
(5.63186e-05 0.000100592 -7.9748e-06)
(5.5248e-05 9.86565e-05 -6.60983e-06)
(5.00316e-05 0.000108626 -1.07071e-05)
(4.91524e-05 0.000106686 -9.30459e-06)
(4.82611e-05 0.000104721 -7.98214e-06)
(4.73474e-05 0.000102706 -6.61979e-06)
(4.13618e-05 0.000112239 -1.07093e-05)
(4.06386e-05 0.000110236 -9.30943e-06)
(3.99054e-05 0.000108206 -7.98955e-06)
(3.91537e-05 0.000106126 -6.62999e-06)
(3.24368e-05 0.000115161 -1.07112e-05)
(3.18734e-05 0.000113108 -9.31392e-06)
(3.13021e-05 0.000111027 -7.99654e-06)
(3.07165e-05 0.000108894 -6.63965e-06)
(2.3311e-05 0.000117374 -1.07131e-05)
(2.291e-05 0.000115284 -9.31802e-06)
(2.25036e-05 0.000113164 -8.00278e-06)
(2.20874e-05 0.000110992 -6.64814e-06)
(1.40399e-05 0.000118863 -1.07152e-05)
(1.38035e-05 0.000116749 -9.32188e-06)
(1.35633e-05 0.000114605 -8.00821e-06)
(1.33195e-05 0.000112406 -6.65509e-06)
(4.68452e-06 0.00011962 -1.07181e-05)
(4.61288e-06 0.000117498 -9.32581e-06)
(4.53666e-06 0.000115345 -8.01308e-06)
(4.46617e-06 0.000113137 -6.66069e-06)
(0.000112559 4.40377e-06 -1.62737e-05)
(0.000110515 4.33566e-06 -1.27939e-05)
(0.000108481 4.26441e-06 -9.44796e-06)
(0.000106432 4.19979e-06 -6.06127e-06)
(0.000111843 1.32011e-05 -1.62688e-05)
(0.000109806 1.29758e-05 -1.27878e-05)
(0.000107781 1.27512e-05 -9.44083e-06)
(0.000105742 1.25275e-05 -6.05351e-06)
(0.000110437 2.19191e-05 -1.62654e-05)
(0.000108422 2.15362e-05 -1.27824e-05)
(0.00010642 2.11558e-05 -9.43374e-06)
(0.000104405 2.07736e-05 -6.04482e-06)
(0.000108347 3.05002e-05 -1.6263e-05)
(0.000106368 2.99615e-05 -1.27774e-05)
(0.000104402 2.94261e-05 -9.42629e-06)
(0.000102423 2.88878e-05 -6.03478e-06)
(0.00010559 3.8892e-05 -1.62611e-05)
(0.000103659 3.81997e-05 -1.27724e-05)
(0.00010174 3.75117e-05 -9.41843e-06)
(9.98101e-05 3.68197e-05 -6.02378e-06)
(0.000102182 4.70436e-05 -1.62594e-05)
(0.000100311 4.62009e-05 -1.27675e-05)
(9.84529e-05 4.53635e-05 -9.4104e-06)
(9.65838e-05 4.45213e-05 -6.01241e-06)
(9.81464e-05 5.49058e-05 -1.62575e-05)
(9.63482e-05 5.39169e-05 -1.27626e-05)
(9.45624e-05 5.29343e-05 -9.40265e-06)
(9.27662e-05 5.19462e-05 -6.00146e-06)
(9.35091e-05 6.24313e-05 -1.62553e-05)
(9.17954e-05 6.13015e-05 -1.27581e-05)
(9.00938e-05 6.0179e-05 -9.39577e-06)
(8.83827e-05 5.90503e-05 -5.99188e-06)
(8.82993e-05 6.95751e-05 -1.62531e-05)
(8.66818e-05 6.83107e-05 -1.27544e-05)
(8.5076e-05 6.70548e-05 -9.39047e-06)
(8.34614e-05 6.5792e-05 -5.98466e-06)
(8.25492e-05 7.62944e-05 -1.62513e-05)
(8.10392e-05 7.4903e-05 -1.27521e-05)
(7.95403e-05 7.35212e-05 -9.3875e-06)
(7.80333e-05 7.21318e-05 -5.98073e-06)
(7.62944e-05 8.25492e-05 -1.62513e-05)
(7.4903e-05 8.10392e-05 -1.27521e-05)
(7.35212e-05 7.95403e-05 -9.3875e-06)
(7.21319e-05 7.80333e-05 -5.98073e-06)
(6.95751e-05 8.82993e-05 -1.62531e-05)
(6.83108e-05 8.66817e-05 -1.27544e-05)
(6.70549e-05 8.5076e-05 -9.39046e-06)
(6.5792e-05 8.34613e-05 -5.98466e-06)
(6.24313e-05 9.35091e-05 -1.62553e-05)
(6.13015e-05 9.17954e-05 -1.27581e-05)
(6.01791e-05 9.00938e-05 -9.39576e-06)
(5.90503e-05 8.83826e-05 -5.99187e-06)
(5.49058e-05 9.81464e-05 -1.62575e-05)
(5.39169e-05 9.63482e-05 -1.27626e-05)
(5.29343e-05 9.45624e-05 -9.40264e-06)
(5.19462e-05 9.27662e-05 -6.00145e-06)
(4.70436e-05 0.000102182 -1.62594e-05)
(4.62009e-05 0.000100311 -1.27675e-05)
(4.53635e-05 9.8453e-05 -9.4104e-06)
(4.45213e-05 9.65838e-05 -6.0124e-06)
(3.8892e-05 0.00010559 -1.62611e-05)
(3.81997e-05 0.000103659 -1.27724e-05)
(3.75117e-05 0.00010174 -9.41842e-06)
(3.68198e-05 9.98101e-05 -6.02377e-06)
(3.05002e-05 0.000108347 -1.6263e-05)
(2.99615e-05 0.000106368 -1.27774e-05)
(2.94261e-05 0.000104402 -9.42628e-06)
(2.88878e-05 0.000102423 -6.03478e-06)
(2.19191e-05 0.000110437 -1.62654e-05)
(2.15362e-05 0.000108422 -1.27824e-05)
(2.11558e-05 0.00010642 -9.43373e-06)
(2.07736e-05 0.000104405 -6.04481e-06)
(1.32011e-05 0.000111843 -1.62688e-05)
(1.29758e-05 0.000109806 -1.27878e-05)
(1.27512e-05 0.000107781 -9.44082e-06)
(1.25275e-05 0.000105742 -6.0535e-06)
(4.40377e-06 0.000112559 -1.62737e-05)
(4.33566e-06 0.000110515 -1.27939e-05)
(4.26441e-06 0.000108481 -9.44795e-06)
(4.19979e-06 0.000106432 -6.06126e-06)
(0.000100416 3.92302e-06 -2.08704e-05)
(9.85114e-05 3.86076e-06 -1.5741e-05)
(9.66747e-05 3.79737e-06 -1.07984e-05)
(9.48799e-05 3.74172e-06 -5.80846e-06)
(9.97713e-05 1.17638e-05 -2.08638e-05)
(9.78747e-05 1.15569e-05 -1.57333e-05)
(9.6046e-05 1.13569e-05 -1.07896e-05)
(9.42597e-05 1.11643e-05 -5.7992e-06)
(9.85092e-05 1.95335e-05 -2.08593e-05)
(9.66328e-05 1.91812e-05 -1.57269e-05)
(9.48245e-05 1.88421e-05 -1.07816e-05)
(9.30592e-05 1.85124e-05 -5.78974e-06)
(9.66355e-05 2.71805e-05 -2.08566e-05)
(9.47916e-05 2.66842e-05 -1.57215e-05)
(9.3015e-05 2.62062e-05 -1.07738e-05)
(9.12811e-05 2.57408e-05 -5.77931e-06)
(9.41642e-05 3.46582e-05 -2.08549e-05)
(9.23644e-05 3.40193e-05 -1.57165e-05)
(9.06308e-05 3.3404e-05 -1.07659e-05)
(8.89389e-05 3.28048e-05 -5.76817e-06)
(9.11128e-05 4.19215e-05 -2.08536e-05)
(8.93687e-05 4.11424e-05 -1.57118e-05)
(8.76891e-05 4.03922e-05 -1.0758e-05)
(8.60504e-05 3.96613e-05 -5.75682e-06)
(8.75022e-05 4.89267e-05 -2.08524e-05)
(8.58254e-05 4.80108e-05 -1.57074e-05)
(8.42112e-05 4.7129e-05 -1.07505e-05)
(8.26364e-05 4.62697e-05 -5.74597e-06)
(8.33565e-05 5.56326e-05 -2.0851e-05)
(8.17586e-05 5.45843e-05 -1.57033e-05)
(8.02207e-05 5.35752e-05 -1.0744e-05)
(7.87209e-05 5.25918e-05 -5.7365e-06)
(7.87027e-05 6.19996e-05 -2.08494e-05)
(7.7195e-05 6.08247e-05 -1.57e-05)
(7.57443e-05 5.96938e-05 -1.07389e-05)
(7.43299e-05 5.85916e-05 -5.72937e-06)
(7.357e-05 6.79905e-05 -2.0848e-05)
(7.21636e-05 6.66958e-05 -1.5698e-05)
(7.08105e-05 6.54498e-05 -1.07361e-05)