/*--------------------------------*- C++ -*----------------------------------*\
| =========                 |                                                 |
| \\      /  F ield         | foam-extend: Open Source CFD                    |
|  \\    /   O peration     | Version:     3.1                                |
|   \\  /    A nd           | Web:         http://www.extend-project.de       |
|    \\/     M anipulation  |                                                 |
\*---------------------------------------------------------------------------*/
FoamFile
{
    version     2.0;
    format      ascii;
    class       volVectorField;
    location    "0.0017";
    object      D_0_0;
}
// * * * * * * * * * * * * * * * * * * * * * * * * * * * * * * * * * * * * * //

dimensions      [0 1 0 0 0 0 0];

internalField   nonuniform List<vector> 
6400
(
(7.40178e-06 2.55692e-07 5.9441e-06)
(5.82256e-06 2.02249e-07 1.93876e-06)
(5.28964e-06 1.81072e-07 -1.03389e-06)
(5.69763e-06 1.8996e-07 -4.74917e-06)
(7.34224e-06 8.47872e-07 5.94892e-06)
(5.77886e-06 6.67108e-07 1.94635e-06)
(5.25253e-06 6.06236e-07 -1.02557e-06)
(5.66484e-06 6.54245e-07 -4.74066e-06)
(7.24852e-06 1.42908e-06 5.94676e-06)
(5.70521e-06 1.12425e-06 1.94609e-06)
(5.18594e-06 1.02246e-06 -1.02521e-06)
(5.59375e-06 1.1042e-06 -4.74009e-06)
(7.11168e-06 1.99798e-06 5.94526e-06)
(5.59765e-06 1.57238e-06 1.94535e-06)
(5.08824e-06 1.42999e-06 -1.0255e-06)
(5.4885e-06 1.54369e-06 -4.73999e-06)
(6.93158e-06 2.55246e-06 5.94458e-06)
(5.45592e-06 2.00922e-06 1.94503e-06)
(4.95941e-06 1.82714e-06 -1.02551e-06)
(5.34954e-06 1.97183e-06 -4.73965e-06)
(6.70902e-06 3.08984e-06 5.94449e-06)
(5.28063e-06 2.4325e-06 1.94511e-06)
(4.8e-06 2.21191e-06 -1.02525e-06)
(5.17753e-06 2.38668e-06 -4.7391e-06)
(6.44522e-06 3.60727e-06 5.94481e-06)
(5.07279e-06 2.83992e-06 1.94546e-06)
(4.61094e-06 2.58222e-06 -1.02479e-06)
(4.97351e-06 2.78597e-06 -4.7384e-06)
(6.14173e-06 4.10189e-06 5.94546e-06)
(4.83365e-06 3.22923e-06 1.94598e-06)
(4.39343e-06 2.93598e-06 -1.02424e-06)
(4.73883e-06 3.16742e-06 -4.73765e-06)
(5.80034e-06 4.57093e-06 5.94635e-06)
(4.5647e-06 3.59821e-06 1.94661e-06)
(4.14892e-06 3.27117e-06 -1.02369e-06)
(4.47512e-06 3.52884e-06 -4.73696e-06)
(5.42299e-06 5.01186e-06 5.94746e-06)
(4.26772e-06 3.94487e-06 1.9472e-06)
(3.87911e-06 3.58599e-06 -1.02328e-06)
(4.18424e-06 3.86827e-06 -4.73652e-06)
(5.01186e-06 5.42299e-06 5.94746e-06)
(3.94487e-06 4.26771e-06 1.9472e-06)
(3.586e-06 3.87911e-06 -1.02328e-06)
(3.86827e-06 4.18424e-06 -4.73652e-06)
(4.57094e-06 5.80034e-06 5.94635e-06)
(3.59822e-06 4.5647e-06 1.94661e-06)
(3.27117e-06 4.14892e-06 -1.02369e-06)
(3.52884e-06 4.47511e-06 -4.73696e-06)
(4.1019e-06 6.14173e-06 5.94546e-06)
(3.22923e-06 4.83364e-06 1.94598e-06)
(2.93598e-06 4.39343e-06 -1.02424e-06)
(3.16743e-06 4.73883e-06 -4.73765e-06)
(3.60728e-06 6.44522e-06 5.94481e-06)
(2.83993e-06 5.07279e-06 1.94546e-06)
(2.58223e-06 4.61094e-06 -1.02479e-06)
(2.78598e-06 4.97351e-06 -4.7384e-06)
(3.08984e-06 6.70902e-06 5.94449e-06)
(2.4325e-06 5.28063e-06 1.94511e-06)
(2.21191e-06 4.8e-06 -1.02525e-06)
(2.38668e-06 5.17753e-06 -4.7391e-06)
(2.55246e-06 6.93158e-06 5.94457e-06)
(2.00922e-06 5.45592e-06 1.94503e-06)
(1.82714e-06 4.95941e-06 -1.02551e-06)
(1.97184e-06 5.34954e-06 -4.73965e-06)
(1.99798e-06 7.11169e-06 5.94526e-06)
(1.57238e-06 5.59766e-06 1.94534e-06)
(1.42999e-06 5.08825e-06 -1.0255e-06)
(1.5437e-06 5.48851e-06 -4.73999e-06)
(1.42908e-06 7.24852e-06 5.94675e-06)
(1.12425e-06 5.70522e-06 1.94609e-06)
(1.02246e-06 5.18594e-06 -1.02521e-06)
(1.1042e-06 5.59375e-06 -4.74008e-06)
(8.47873e-07 7.34224e-06 5.94892e-06)
(6.6711e-07 5.77887e-06 1.94635e-06)
(6.06238e-07 5.25253e-06 -1.02557e-06)
(6.54246e-07 5.66484e-06 -4.74066e-06)
(2.55692e-07 7.40179e-06 5.9441e-06)
(2.02249e-07 5.82256e-06 1.93876e-06)
(1.81072e-07 5.28965e-06 -1.03389e-06)
(1.8996e-07 5.69763e-06 -4.74916e-06)
(3.21201e-05 1.24361e-06 1.28676e-05)
(3.03654e-05 1.18126e-06 4.90641e-06)
(2.93524e-05 1.14378e-06 -2.26331e-06)
(2.90382e-05 1.13416e-06 -9.99108e-06)
(3.19013e-05 3.75825e-06 1.28532e-05)
(3.0163e-05 3.55795e-06 4.89322e-06)
(2.91635e-05 3.44325e-06 -2.27637e-06)
(2.88579e-05 3.40993e-06 -1.00038e-05)
(3.14996e-05 6.25202e-06 1.2847e-05)
(2.97836e-05 5.91413e-06 4.88819e-06)
(2.87975e-05 5.72119e-06 -2.28043e-06)
(2.8497e-05 5.66408e-06 -1.00066e-05)
(3.09068e-05 8.70618e-06 1.28444e-05)
(2.92233e-05 8.23404e-06 4.88648e-06)
(2.8256e-05 7.96388e-06 -2.28123e-06)
(2.79612e-05 7.88307e-06 -1.00063e-05)
(3.01251e-05 1.11056e-05 1.28437e-05)
(2.84842e-05 1.05026e-05 4.88649e-06)
(2.75413e-05 1.01571e-05 -2.28052e-06)
(2.7254e-05 1.00531e-05 -1.00047e-05)
(2.91585e-05 1.34357e-05 1.28443e-05)
(2.75701e-05 1.27057e-05 4.88749e-06)
(2.66573e-05 1.2287e-05 -2.279e-06)
(2.6379e-05 1.21606e-05 -1.00026e-05)
(2.80125e-05 1.5682e-05 1.28456e-05)
(2.64862e-05 1.48297e-05 4.88907e-06)
(2.56091e-05 1.43405e-05 -2.27708e-06)
(2.53416e-05 1.41925e-05 -1.00001e-05)
(2.66939e-05 1.78312e-05 1.28476e-05)
(2.52392e-05 1.68616e-05 4.89093e-06)
(2.44032e-05 1.63049e-05 -2.27507e-06)
(2.41481e-05 1.61361e-05 -9.99774e-06)
(2.52106e-05 1.98702e-05 1.28497e-05)
(2.38365e-05 1.87892e-05 4.89276e-06)
(2.30469e-05 1.81683e-05 -2.27329e-06)
(2.28061e-05 1.79797e-05 -9.99574e-06)
(2.35716e-05 2.17872e-05 1.28515e-05)
(2.2287e-05 2.06011e-05 4.89407e-06)
(2.15491e-05 1.99197e-05 -2.27215e-06)
(2.13242e-05 1.97123e-05 -9.99455e-06)
(2.17872e-05 2.35716e-05 1.28515e-05)
(2.06011e-05 2.2287e-05 4.89407e-06)
(1.99197e-05 2.15491e-05 -2.27215e-06)
(1.97123e-05 2.13242e-05 -9.99455e-06)
(1.98702e-05 2.52106e-05 1.28497e-05)
(1.87892e-05 2.38365e-05 4.89275e-06)
(1.81684e-05 2.30469e-05 -2.27329e-06)
(1.79797e-05 2.2806e-05 -9.99574e-06)
(1.78312e-05 2.66939e-05 1.28475e-05)
(1.68616e-05 2.52391e-05 4.89093e-06)
(1.6305e-05 2.44032e-05 -2.27507e-06)
(1.61361e-05 2.41481e-05 -9.99774e-06)
(1.5682e-05 2.80125e-05 1.28456e-05)
(1.48297e-05 2.64862e-05 4.88906e-06)
(1.43405e-05 2.56091e-05 -2.27708e-06)
(1.41925e-05 2.53416e-05 -1.00001e-05)
(1.34357e-05 2.91585e-05 1.28443e-05)
(1.27057e-05 2.75701e-05 4.88748e-06)
(1.2287e-05 2.66573e-05 -2.279e-06)
(1.21606e-05 2.6379e-05 -1.00026e-05)
(1.11056e-05 3.01251e-05 1.28437e-05)
(1.05026e-05 2.84842e-05 4.88648e-06)
(1.01571e-05 2.75413e-05 -2.28052e-06)
(1.00531e-05 2.7254e-05 -1.00047e-05)
(8.70619e-06 3.09068e-05 1.28444e-05)
(8.23405e-06 2.92233e-05 4.88648e-06)
(7.96389e-06 2.8256e-05 -2.28123e-06)
(7.88307e-06 2.79612e-05 -1.00063e-05)
(6.25202e-06 3.14996e-05 1.2847e-05)
(5.91414e-06 2.97836e-05 4.88819e-06)
(5.7212e-06 2.87975e-05 -2.28043e-06)
(5.66408e-06 2.8497e-05 -1.00066e-05)
(3.75825e-06 3.19013e-05 1.28532e-05)
(3.55795e-06 3.01631e-05 4.89322e-06)
(3.44325e-06 2.91635e-05 -2.27637e-06)
(3.40993e-06 2.88579e-05 -1.00038e-05)
(1.24361e-06 3.21202e-05 1.28676e-05)
(1.18126e-06 3.03654e-05 4.90641e-06)
(1.14378e-06 2.93524e-05 -2.26331e-06)
(1.13416e-06 2.90382e-05 -9.99108e-06)
(5.87298e-05 2.29617e-06 1.40883e-05)
(5.70509e-05 2.239e-06 5.38927e-06)
(5.56838e-05 2.18956e-06 -2.84975e-06)
(5.46001e-05 2.15339e-06 -1.13639e-05)
(5.8352e-05 6.89371e-06 1.4073e-05)
(5.66838e-05 6.70372e-06 5.3731e-06)
(5.53271e-05 6.5488e-06 -2.86601e-06)
(5.42515e-05 6.42705e-06 -1.13782e-05)
(5.76231e-05 1.14504e-05 1.40652e-05)
(5.59748e-05 1.11277e-05 5.3655e-06)
(5.46347e-05 1.08663e-05 -2.8727e-06)
(5.35726e-05 1.06598e-05 -1.1383e-05)
(5.65408e-05 1.59355e-05 1.40618e-05)
(5.49233e-05 1.54836e-05 5.36287e-06)
(5.36081e-05 1.5117e-05 -2.87434e-06)
(5.25657e-05 1.48271e-05 -1.13833e-05)
(5.51115e-05 2.03219e-05 1.40612e-05)
(5.35347e-05 1.9744e-05 5.36298e-06)
(5.22525e-05 1.92747e-05 -2.87335e-06)
(5.12362e-05 1.89034e-05 -1.13813e-05)
(5.33434e-05 2.45825e-05 1.40623e-05)
(5.18169e-05 2.38823e-05 5.36466e-06)
(5.05756e-05 2.33135e-05 -2.87096e-06)
(4.95916e-05 2.28632e-05 -1.13781e-05)
(5.12469e-05 2.8691e-05 1.40645e-05)
(4.97801e-05 2.78731e-05 5.3672e-06)
(4.85874e-05 2.72083e-05 -2.86792e-06)
(4.76419e-05 2.66817e-05 -1.13744e-05)
(4.88347e-05 3.26225e-05 1.40673e-05)
(4.74367e-05 3.16917e-05 5.37006e-06)
(4.62999e-05 3.0935e-05 -2.86478e-06)
(4.53987e-05 3.03355e-05 -1.13708e-05)
(4.61215e-05 3.6353e-05 1.40702e-05)
(4.48009e-05 3.53149e-05 5.37271e-06)
(4.37273e-05 3.44707e-05 -2.86209e-06)
(4.28764e-05 3.38018e-05 -1.13678e-05)
(4.31236e-05 3.98601e-05 1.40724e-05)
(4.18893e-05 3.87207e-05 5.37448e-06)
(4.0886e-05 3.77942e-05 -2.86046e-06)
(4.00908e-05 3.70599e-05 -1.13661e-05)
(3.98601e-05 4.31236e-05 1.40724e-05)
(3.87207e-05 4.18893e-05 5.37448e-06)
(3.77942e-05 4.0886e-05 -2.86046e-06)
(3.70599e-05 4.00908e-05 -1.13661e-05)
(3.6353e-05 4.61215e-05 1.40702e-05)
(3.53149e-05 4.48009e-05 5.37271e-06)
(3.44707e-05 4.37273e-05 -2.86209e-06)
(3.38018e-05 4.28764e-05 -1.13678e-05)
(3.26225e-05 4.88347e-05 1.40673e-05)
(3.16917e-05 4.74367e-05 5.37006e-06)
(3.0935e-05 4.62999e-05 -2.86478e-06)
(3.03355e-05 4.53987e-05 -1.13707e-05)
(2.86911e-05 5.12469e-05 1.40645e-05)
(2.78731e-05 4.97801e-05 5.3672e-06)
(2.72083e-05 4.85874e-05 -2.86792e-06)
(2.66818e-05 4.76418e-05 -1.13744e-05)
(2.45825e-05 5.33434e-05 1.40623e-05)
(2.38823e-05 5.18169e-05 5.36466e-06)
(2.33135e-05 5.05756e-05 -2.87096e-06)
(2.28632e-05 4.95916e-05 -1.13781e-05)
(2.03219e-05 5.51115e-05 1.40612e-05)
(1.9744e-05 5.35347e-05 5.36298e-06)
(1.92747e-05 5.22525e-05 -2.87335e-06)
(1.89034e-05 5.12362e-05 -1.13813e-05)
(1.59356e-05 5.65408e-05 1.40618e-05)
(1.54836e-05 5.49233e-05 5.36286e-06)
(1.5117e-05 5.36081e-05 -2.87434e-06)
(1.48271e-05 5.25657e-05 -1.13833e-05)
(1.14504e-05 5.76231e-05 1.40652e-05)
(1.11277e-05 5.59748e-05 5.36549e-06)
(1.08663e-05 5.46347e-05 -2.8727e-06)
(1.06598e-05 5.35726e-05 -1.1383e-05)
(6.89372e-06 5.8352e-05 1.4073e-05)
(6.70372e-06 5.66838e-05 5.3731e-06)
(6.54881e-06 5.53271e-05 -2.86601e-06)
(6.42705e-06 5.42515e-05 -1.13782e-05)
(2.29618e-06 5.87298e-05 1.40883e-05)
(2.23901e-06 5.70509e-05 5.38927e-06)
(2.18956e-06 5.56838e-05 -2.84975e-06)
(2.15339e-06 5.46001e-05 -1.13639e-05)
(8.24384e-05 3.23164e-06 1.15552e-05)
(8.06904e-05 3.1717e-06 3.97329e-06)
(7.90125e-05 3.11131e-06 -3.34228e-06)
(7.73806e-05 3.05788e-06 -1.07677e-05)
(8.19168e-05 9.68507e-06 1.15437e-05)
(8.01768e-05 9.48721e-06 3.96137e-06)
(7.85076e-05 9.29705e-06 -3.35406e-06)
(7.68841e-05 9.11363e-06 -1.07778e-05)
(8.08957e-05 1.60802e-05 1.15369e-05)
(7.91758e-05 1.57447e-05 3.95505e-06)
(7.75264e-05 1.54235e-05 -3.35944e-06)
(7.59228e-05 1.51116e-05 -1.07816e-05)
(7.93772e-05 2.23751e-05 1.15339e-05)
(7.7689e-05 2.19049e-05 3.9529e-06)
(7.607e-05 2.14543e-05 -3.36051e-06)
(7.44959e-05 2.10165e-05 -1.07814e-05)
(7.73708e-05 2.85316e-05 1.15336e-05)
(7.57249e-05 2.79298e-05 3.95349e-06)
(7.41463e-05 2.73529e-05 -3.35891e-06)
(7.26115e-05 2.6792e-05 -1.07787e-05)
(7.48885e-05 3.45119e-05 1.15351e-05)
(7.32949e-05 3.37823e-05 3.95578e-06)
(7.17666e-05 3.30828e-05 -3.35572e-06)
(7.02806e-05 3.24026e-05 -1.07745e-05)
(7.19451e-05 4.02794e-05 1.15378e-05)
(7.04138e-05 3.94266e-05 3.95901e-06)
(6.89452e-05 3.86086e-05 -3.35179e-06)
(6.75174e-05 3.78133e-05 -1.07697e-05)
(6.85585e-05 4.57986e-05 1.15412e-05)
(6.7099e-05 4.48277e-05 3.96255e-06)
(6.56993e-05 4.38964e-05 -3.34781e-06)
(6.43386e-05 4.29909e-05 -1.07651e-05)
(6.47494e-05 5.1036e-05 1.15445e-05)
(6.33709e-05 4.99528e-05 3.96574e-06)
(6.20491e-05 4.89138e-05 -3.34447e-06)
(6.07642e-05 4.79034e-05 -1.07614e-05)
(6.05411e-05 5.59598e-05 1.1547e-05)
(5.92526e-05 5.47707e-05 3.96779e-06)
(5.80175e-05 5.36301e-05 -3.34249e-06)
(5.68167e-05 5.25211e-05 -1.07592e-05)
(5.59598e-05 6.0541e-05 1.1547e-05)
(5.47707e-05 5.92526e-05 3.96779e-06)
(5.36301e-05 5.80175e-05 -3.34249e-06)
(5.25211e-05 5.68167e-05 -1.07592e-05)
(5.1036e-05 6.47494e-05 1.15445e-05)
(4.99528e-05 6.33708e-05 3.96574e-06)
(4.89138e-05 6.20491e-05 -3.34447e-06)
(4.79035e-05 6.07642e-05 -1.07614e-05)
(4.57986e-05 6.85585e-05 1.15412e-05)
(4.48277e-05 6.70989e-05 3.96255e-06)
(4.38965e-05 6.56993e-05 -3.34781e-06)
(4.29909e-05 6.43386e-05 -1.07651e-05)
(4.02794e-05 7.19451e-05 1.15378e-05)
(3.94266e-05 7.04138e-05 3.95901e-06)
(3.86087e-05 6.89452e-05 -3.35179e-06)
(3.78134e-05 6.75173e-05 -1.07697e-05)
(3.45119e-05 7.48885e-05 1.15351e-05)
(3.37823e-05 7.32949e-05 3.95577e-06)
(3.30828e-05 7.17666e-05 -3.35572e-06)
(3.24026e-05 7.02806e-05 -1.07745e-05)
(2.85316e-05 7.73708e-05 1.15336e-05)
(2.79298e-05 7.57249e-05 3.95348e-06)
(2.73529e-05 7.41462e-05 -3.35891e-06)
(2.6792e-05 7.26115e-05 -1.07787e-05)
(2.23751e-05 7.93772e-05 1.15339e-05)
(2.19049e-05 7.7689e-05 3.9529e-06)
(2.14543e-05 7.60699e-05 -3.36051e-06)
(2.10165e-05 7.44959e-05 -1.07814e-05)
(1.60802e-05 8.08957e-05 1.15369e-05)
(1.57447e-05 7.91758e-05 3.95504e-06)
(1.54235e-05 7.75264e-05 -3.35944e-06)
(1.51116e-05 7.59227e-05 -1.07816e-05)
(9.68507e-06 8.19168e-05 1.15437e-05)
(9.48722e-06 8.01768e-05 3.96137e-06)
(9.29705e-06 7.85076e-05 -3.35406e-06)
(9.11363e-06 7.68841e-05 -1.07778e-05)
(3.23164e-06 8.24384e-05 1.15552e-05)
(3.1717e-06 8.06904e-05 3.97329e-06)
(3.11131e-06 7.90125e-05 -3.34228e-06)
(3.05788e-06 7.73806e-05 -1.07677e-05)
(0.000100417 3.93842e-06 6.77826e-06)
(9.85489e-05 3.87417e-06 1.31471e-06)
(9.66349e-05 3.80545e-06 -4.01591e-06)
(9.4653e-05 3.74109e-06 -9.36559e-06)
(9.97846e-05 1.17986e-05 6.77152e-06)
(9.79237e-05 1.15874e-05 1.30819e-06)
(9.60179e-05 1.13707e-05 -4.02201e-06)
(9.40449e-05 1.11484e-05 -9.37043e-06)
(9.85409e-05 1.95876e-05 6.76715e-06)
(9.67012e-05 1.92298e-05 1.30469e-06)
(9.48178e-05 1.88639e-05 -4.02442e-06)
(9.28689e-05 1.84854e-05 -9.37137e-06)
(9.66908e-05 2.72545e-05 6.76532e-06)
(9.48848e-05 2.67529e-05 1.30403e-06)
(9.30359e-05 2.62395e-05 -4.02382e-06)
(9.11229e-05 2.57081e-05 -9.36941e-06)
(9.4246e-05 3.47529e-05 6.7656e-06)
(9.2485e-05 3.41105e-05 1.30552e-06)
(9.06822e-05 3.34528e-05 -4.02104e-06)
(8.88168e-05 3.2772e-05 -9.36525e-06)
(9.12214e-05 4.20367e-05 6.76748e-06)
(8.95162e-05 4.12575e-05 1.30848e-06)
(8.77707e-05 4.04597e-05 -4.01686e-06)
(8.59646e-05 3.96338e-05 -9.35975e-06)
(8.76351e-05 4.90616e-05 6.77044e-06)
(8.59965e-05 4.81503e-05 1.31229e-06)
(8.43192e-05 4.72171e-05 -4.01204e-06)
(8.25837e-05 4.62512e-05 -9.35376e-06)
(8.35092e-05 5.57844e-05 6.77397e-06)
(8.19474e-05 5.47464e-05 1.3163e-06)
(8.03489e-05 5.36836e-05 -4.00732e-06)
(7.8695e-05 5.25835e-05 -9.34814e-06)
(7.88689e-05 6.21641e-05 6.77746e-06)
(7.73938e-05 6.10057e-05 1.31983e-06)
(7.58844e-05 5.98195e-05 -4.00344e-06)
(7.43227e-05 5.85919e-05 -9.3437e-06)
(7.37425e-05 6.81621e-05 6.78002e-06)
(7.23641e-05 6.689e-05 1.32206e-06)
(7.09536e-05 6.55877e-05 -4.00118e-06)
(6.94942e-05 6.424e-05 -9.34119e-06)
(6.81621e-05 7.37425e-05 6.78002e-06)
(6.68901e-05 7.23641e-05 1.32206e-06)
(6.55877e-05 7.09536e-05 -4.00118e-06)
(6.42401e-05 6.94942e-05 -9.34119e-06)
(6.21642e-05 7.88689e-05 6.77746e-06)
(6.10058e-05 7.73938e-05 1.31983e-06)
(5.98196e-05 7.58843e-05 -4.00344e-06)
(5.85919e-05 7.43227e-05 -9.34369e-06)
(5.57844e-05 8.35092e-05 6.77397e-06)
(5.47465e-05 8.19474e-05 1.3163e-06)
(5.36836e-05 8.03488e-05 -4.00732e-06)
(5.25835e-05 7.8695e-05 -9.34814e-06)
(4.90616e-05 8.76351e-05 6.77044e-06)
(4.81503e-05 8.59965e-05 1.31229e-06)
(4.72171e-05 8.43192e-05 -4.01204e-06)
(4.62512e-05 8.25837e-05 -9.35376e-06)
(4.20368e-05 9.12213e-05 6.76748e-06)
(4.12575e-05 8.95162e-05 1.30848e-06)
(4.04597e-05 8.77707e-05 -4.01686e-06)
(3.96338e-05 8.59646e-05 -9.35975e-06)
(3.47529e-05 9.4246e-05 6.7656e-06)
(3.41105e-05 9.2485e-05 1.30552e-06)
(3.34528e-05 9.06822e-05 -4.02104e-06)
(3.2772e-05 8.88168e-05 -9.36525e-06)
(2.72545e-05 9.66908e-05 6.76532e-06)
(2.67529e-05 9.48848e-05 1.30403e-06)
(2.62395e-05 9.30359e-05 -4.02382e-06)
(2.57081e-05 9.11228e-05 -9.36941e-06)
(1.95876e-05 9.85409e-05 6.76715e-06)
(1.92298e-05 9.67012e-05 1.30469e-06)
(1.88639e-05 9.48178e-05 -4.02442e-06)
(1.84854e-05 9.28689e-05 -9.37137e-06)
(1.17986e-05 9.97846e-05 6.77152e-06)
(1.15874e-05 9.79237e-05 1.30819e-06)
(1.13708e-05 9.60179e-05 -4.02201e-06)
(1.11485e-05 9.40449e-05 -9.37043e-06)
(3.93843e-06 0.000100417 6.77826e-06)
(3.87417e-06 9.85489e-05 1.3147e-06)
(3.80545e-06 9.66349e-05 -4.01591e-06)
(3.74109e-06 9.4653e-05 -9.36559e-06)
(0.000111451 4.37027e-06 8.63e-07)
(0.000109482 4.30273e-06 -2.0567e-06)
(0.000107427 4.22922e-06 -4.9411e-06)
(0.000105266 4.15941e-06 -7.80173e-06)
(0.000110749 1.30923e-05 8.60552e-07)
(0.000108787 1.28705e-05 -2.0585e-06)
(0.000106741 1.26387e-05 -4.94224e-06)
(0.000104589 1.23971e-05 -7.80185e-06)
(0.000109368 2.17355e-05 8.58828e-07)
(0.000107428 2.13598e-05 -2.05895e-06)
(0.000105405 2.09682e-05 -4.94141e-06)
(0.000103279 2.05566e-05 -7.79957e-06)
(0.000107313 3.02433e-05 8.58415e-07)
(0.000105408 2.97162e-05 -2.05779e-06)
(0.000103422 2.91665e-05 -4.93866e-06)
(0.000101335 2.85883e-05 -7.79514e-06)
(0.000104597 3.85639e-05 8.59322e-07)
(0.00010274 3.78884e-05 -2.05518e-06)
(0.000100803 3.7184e-05 -4.93433e-06)
(9.8768e-05 3.6443e-05 -7.78899e-06)
(0.000101238 4.66466e-05 8.61376e-07)
(9.94391e-05 4.58267e-05 -2.05151e-06)
(9.75643e-05 4.49716e-05 -4.92897e-06)
(9.55936e-05 4.40722e-05 -7.7818e-06)
(9.72555e-05 5.4442e-05 8.64295e-07)
(9.55269e-05 5.34824e-05 -2.04724e-06)
(9.37252e-05 5.24818e-05 -4.92321e-06)
(9.18316e-05 5.14295e-05 -7.77438e-06)
(9.26746e-05 6.19025e-05 8.67696e-07)
(9.10271e-05 6.0809e-05 -2.04291e-06)
(8.93101e-05 5.96687e-05 -4.91776e-06)
(8.75055e-05 5.84697e-05 -7.7676e-06)
(8.75233e-05 6.89827e-05 8.71049e-07)
(8.59675e-05 6.77617e-05 -2.0392e-06)
(8.43463e-05 6.64886e-05 -4.91339e-06)
(8.26424e-05 6.51501e-05 -7.76234e-06)
(8.18331e-05 7.56395e-05 8.73523e-07)
(8.03794e-05 7.42983e-05 -2.03688e-06)
(7.88648e-05 7.29001e-05 -4.91087e-06)
(7.72728e-05 7.14303e-05 -7.75942e-06)
(7.56396e-05 8.18331e-05 8.73523e-07)
(7.42983e-05 8.03794e-05 -2.03688e-06)
(7.29001e-05 7.88648e-05 -4.91087e-06)
(7.14303e-05 7.72728e-05 -7.75942e-06)
(6.89827e-05 8.75233e-05 8.71049e-07)
(6.77617e-05 8.59674e-05 -2.0392e-06)
(6.64886e-05 8.43462e-05 -4.91339e-06)
(6.51501e-05 8.26424e-05 -7.76234e-06)
(6.19025e-05 9.26746e-05 8.67696e-07)
(6.0809e-05 9.10271e-05 -2.04291e-06)
(5.96688e-05 8.93101e-05 -4.91776e-06)
(5.84698e-05 8.75055e-05 -7.7676e-06)
(5.4442e-05 9.72555e-05 8.64295e-07)
(5.34825e-05 9.55269e-05 -2.04724e-06)
(5.24818e-05 9.37252e-05 -4.92321e-06)
(5.14295e-05 9.18315e-05 -7.77438e-06)
(4.66466e-05 0.000101238 8.61377e-07)
(4.58267e-05 9.94391e-05 -2.05151e-06)
(4.49716e-05 9.75642e-05 -4.92896e-06)
(4.40723e-05 9.55935e-05 -7.78179e-06)
(3.8564e-05 0.000104597 8.59323e-07)
(3.78884e-05 0.00010274 -2.05518e-06)
(3.7184e-05 0.000100803 -4.93433e-06)
(3.6443e-05 9.8768e-05 -7.78899e-06)
(3.02433e-05 0.000107313 8.58416e-07)
(2.97162e-05 0.000105408 -2.05778e-06)
(2.91666e-05 0.000103422 -4.93866e-06)
(2.85884e-05 0.000101335 -7.79514e-06)
(2.17355e-05 0.000109368 8.58829e-07)
(2.13598e-05 0.000107428 -2.05895e-06)
(2.09682e-05 0.000105405 -4.94141e-06)
(2.05566e-05 0.000103279 -7.79957e-06)
(1.30923e-05 0.000110749 8.60553e-07)
(1.28705e-05 0.000108787 -2.0585e-06)
(1.26387e-05 0.000106741 -4.94224e-06)
(1.23971e-05 0.000104589 -7.80185e-06)
(4.37028e-06 0.000111451 8.63001e-07)
(4.30274e-06 0.000109482 -2.0567e-06)
(4.22922e-06 0.000107427 -4.9411e-06)
(4.15942e-06 0.000105266 -7.80173e-06)
(0.000115301 4.51879e-06 -5.39489e-06)
(0.000113288 4.45023e-06 -5.71293e-06)
(0.000111195 4.37576e-06 -6.072e-06)
(0.000108999 4.30532e-06 -6.39058e-06)
(0.000114574 1.3539e-05 -5.39391e-06)
(0.000112568 1.33135e-05 -5.711e-06)
(0.000110483 1.30787e-05 -6.0692e-06)
(0.000108297 1.28348e-05 -6.38691e-06)
(0.000113142 2.24777e-05 -5.39331e-06)
(0.000111158 2.20956e-05 -5.70877e-06)
(0.000109097 2.16987e-05 -6.06546e-06)
(0.000106938 2.12827e-05 -6.38163e-06)
(0.000111012 3.12763e-05 -5.39249e-06)
(0.000109064 3.07399e-05 -5.70588e-06)
(0.00010704 3.01823e-05 -6.06059e-06)
(0.00010492 2.95977e-05 -6.37467e-06)
(0.000108199 3.98813e-05 -5.39115e-06)
(0.000106299 3.91932e-05 -5.70224e-06)
(0.000104325 3.84781e-05 -6.05469e-06)
(0.000102257 3.77283e-05 -6.36637e-06)
(0.000104719 4.82401e-05 -5.38917e-06)
(0.000102879 4.74042e-05 -5.69798e-06)
(0.000100968 4.65356e-05 -6.04815e-06)
(9.89656e-05 4.56249e-05 -6.35736e-06)
(0.000100596 5.6302e-05 -5.38661e-06)
(9.88271e-05 5.53229e-05 -5.69341e-06)
(9.69904e-05 5.43056e-05 -6.0415e-06)
(9.50664e-05 5.32393e-05 -6.34842e-06)
(9.58537e-05 6.40179e-05 -5.38365e-06)
(9.4168e-05 6.29013e-05 -5.68895e-06)
(9.24176e-05 6.17411e-05 -6.03541e-06)
(9.05842e-05 6.05254e-05 -6.34045e-06)
(9.05224e-05 7.13411e-05 -5.38068e-06)
(8.89307e-05 7.00934e-05 -5.68519e-06)
(8.72783e-05 6.87973e-05 -6.03062e-06)
(8.55475e-05 6.74392e-05 -6.33437e-06)
(8.46347e-05 7.82271e-05 -5.37844e-06)
(8.31478e-05 7.68558e-05 -5.68287e-06)
(8.16044e-05 7.54315e-05 -6.0279e-06)
(7.99877e-05 7.39395e-05 -6.33102e-06)
(7.82271e-05 8.46346e-05 -5.37844e-06)
(7.68558e-05 8.31478e-05 -5.68287e-06)
(7.54315e-05 8.16044e-05 -6.0279e-06)
(7.39395e-05 7.99877e-05 -6.33102e-06)
(7.13411e-05 9.05224e-05 -5.38068e-06)
(7.00934e-05 8.89307e-05 -5.68519e-06)
(6.87973e-05 8.72782e-05 -6.03062e-06)
(6.74392e-05 8.55475e-05 -6.33437e-06)
(6.40179e-05 9.58537e-05 -5.38365e-06)
(6.29013e-05 9.41679e-05 -5.68895e-06)
(6.17412e-05 9.24176e-05 -6.03541e-06)
(6.05254e-05 9.05842e-05 -6.34045e-06)
(5.6302e-05 0.000100596 -5.38661e-06)
(5.5323e-05 9.88271e-05 -5.69341e-06)
(5.43056e-05 9.69904e-05 -6.0415e-06)
(5.32393e-05 9.50664e-05 -6.34842e-06)
(4.82402e-05 0.000104719 -5.38917e-06)
(4.74043e-05 0.000102879 -5.69798e-06)
(4.65356e-05 0.000100968 -6.04815e-06)
(4.56249e-05 9.89656e-05 -6.35736e-06)
(3.98813e-05 0.000108199 -5.39114e-06)
(3.91933e-05 0.000106299 -5.70224e-06)
(3.84781e-05 0.000104325 -6.05469e-06)
(3.77283e-05 0.000102257 -6.36637e-06)
(3.12764e-05 0.000111012 -5.39249e-06)
(3.07399e-05 0.000109064 -5.70588e-06)
(3.01823e-05 0.00010704 -6.06058e-06)
(2.95977e-05 0.00010492 -6.37467e-06)
(2.24777e-05 0.000113142 -5.39331e-06)
(2.20956e-05 0.000111158 -5.70877e-06)
(2.16987e-05 0.000109097 -6.06546e-06)
(2.12827e-05 0.000106937 -6.38163e-06)
(1.3539e-05 0.000114574 -5.3939e-06)
(1.33135e-05 0.000112568 -5.71099e-06)
(1.30787e-05 0.000110483 -6.06919e-06)
(1.28348e-05 0.000108296 -6.3869e-06)
(4.51879e-06 0.000115301 -5.39488e-06)
(4.45023e-06 0.000113288 -5.71292e-06)
(4.37576e-06 0.000111195 -6.072e-06)
(4.30532e-06 0.000108999 -6.39058e-06)
(0.000112323 4.3984e-06 -1.13947e-05)
(0.000110337 4.33154e-06 -9.29866e-06)
(0.000108304 4.25984e-06 -7.30936e-06)
(0.000106201 4.19304e-06 -5.27274e-06)
(0.000111612 1.31808e-05 -1.1391e-05)
(0.000109632 1.29604e-05 -9.29379e-06)
(0.000107607 1.27343e-05 -7.30346e-06)
(0.000105514 1.25028e-05 -5.26609e-06)
(0.000110212 2.18839e-05 -1.13885e-05)
(0.000108255 2.15098e-05 -9.28944e-06)
(0.000106253 2.11273e-05 -7.29742e-06)
(0.000104185 2.07322e-05 -5.25841e-06)
(0.000108132 3.04503e-05 -1.13868e-05)
(0.000106209 2.99245e-05 -9.28522e-06)
(0.000104243 2.93867e-05 -7.29085e-06)
(0.000102212 2.88309e-05 -5.24937e-06)
(0.000105384 3.88279e-05 -1.13853e-05)
(0.000103508 3.81528e-05 -9.28084e-06)
(0.000101591 3.74622e-05 -7.28374e-06)
(9.96103e-05 3.67486e-05 -5.2393e-06)
(0.000101988 4.69657e-05 -1.13837e-05)
(0.000100171 4.61446e-05 -9.27628e-06)
(9.83139e-05 4.53048e-05 -7.27633e-06)
(9.63958e-05 4.44371e-05 -5.2288e-06)
(9.79653e-05 5.48145e-05 -1.13818e-05)
(9.62185e-05 5.38517e-05 -9.27166e-06)
(9.44336e-05 5.28671e-05 -7.26908e-06)
(9.25904e-05 5.185e-05 -5.21863e-06)
(9.33407e-05 6.2327e-05 -1.13795e-05)
(9.16759e-05 6.12276e-05 -9.2673e-06)
(8.99751e-05 6.01036e-05 -7.26258e-06)
(8.8219e-05 5.89427e-05 -5.20971e-06)
(8.81437e-05 6.94579e-05 -1.13771e-05)
(8.65721e-05 6.82283e-05 -9.26367e-06)
(8.49668e-05 6.69714e-05 -7.25755e-06)
(8.33095e-05 6.56734e-05 -5.20297e-06)
(8.24064e-05 7.61644e-05 -1.13752e-05)
(8.0939e-05 7.48118e-05 -9.26145e-06)
(7.94402e-05 7.34296e-05 -7.25472e-06)
(7.78928e-05 7.20024e-05 -5.19929e-06)
(7.61644e-05 8.24064e-05 -1.13752e-05)
(7.48118e-05 8.0939e-05 -9.26145e-06)
(7.34296e-05 7.94401e-05 -7.25472e-06)
(7.20024e-05 7.78927e-05 -5.19929e-06)
(6.94579e-05 8.81437e-05 -1.13771e-05)
(6.82283e-05 8.65721e-05 -9.26367e-06)
(6.69714e-05 8.49668e-05 -7.25755e-06)
(6.56734e-05 8.33094e-05 -5.20297e-06)
(6.2327e-05 9.33407e-05 -1.13795e-05)
(6.12277e-05 9.16759e-05 -9.26729e-06)
(6.01037e-05 8.99751e-05 -7.26258e-06)
(5.89427e-05 8.8219e-05 -5.20971e-06)
(5.48145e-05 9.79652e-05 -1.13817e-05)
(5.38517e-05 9.62185e-05 -9.27165e-06)
(5.28671e-05 9.44336e-05 -7.26907e-06)
(5.185e-05 9.25904e-05 -5.21863e-06)
(4.69657e-05 0.000101988 -1.13837e-05)
(4.61447e-05 0.000100171 -9.27627e-06)
(4.53048e-05 9.83139e-05 -7.27632e-06)
(4.44371e-05 9.63958e-05 -5.22879e-06)
(3.88279e-05 0.000105384 -1.13853e-05)
(3.81528e-05 0.000103508 -9.28084e-06)
(3.74622e-05 0.000101591 -7.28373e-06)
(3.67486e-05 9.96102e-05 -5.2393e-06)
(3.04503e-05 0.000108132 -1.13868e-05)
(2.99246e-05 0.000106209 -9.28521e-06)
(2.93867e-05 0.000104243 -7.29085e-06)
(2.88309e-05 0.000102212 -5.24936e-06)
(2.18839e-05 0.000110212 -1.13885e-05)
(2.15098e-05 0.000108255 -9.28944e-06)
(2.11273e-05 0.000106253 -7.29742e-06)
(2.07322e-05 0.000104185 -5.25841e-06)
(1.31808e-05 0.000111612 -1.1391e-05)
(1.29604e-05 0.000109632 -9.29379e-06)
(1.27343e-05 0.000107607 -7.30346e-06)
(1.25028e-05 0.000105514 -5.26609e-06)
(4.3984e-06 0.000112323 -1.13947e-05)
(4.33155e-06 0.000110337 -9.29865e-06)
(4.25984e-06 0.000108304 -7.30936e-06)
(4.19304e-06 0.000106201 -5.27274e-06)
(0.000103297 4.03993e-06 -1.66382e-05)
(0.000101407 3.97737e-06 -1.25084e-05)
(9.95245e-05 3.91183e-06 -8.54648e-06)
(9.76273e-05 3.85241e-06 -4.52981e-06)
(0.000102638 1.211e-05 -1.66323e-05)
(0.000100755 1.19029e-05 -1.25013e-05)
(9.88803e-05 1.16962e-05 -8.53824e-06)
(9.69917e-05 1.14903e-05 -4.52097e-06)
(0.000101344 2.0107e-05 -1.66285e-05)
(9.94813e-05 1.9755e-05 -1.24954e-05)
(9.76281e-05 1.94047e-05 -8.53068e-06)
(9.57619e-05 1.90527e-05 -4.51181e-06)
(9.94224e-05 2.79779e-05 -1.66262e-05)
(9.75921e-05 2.74824e-05 -1.24904e-05)
(9.57718e-05 2.69894e-05 -8.52317e-06)
(9.39389e-05 2.64933e-05 -4.50168e-06)
(9.68866e-05 3.56749e-05 -1.66247e-05)
(9.51003e-05 3.50377e-05 -1.24857e-05)
(9.33241e-05 3.44037e-05 -8.51554e-06)
(9.1536e-05 3.37657e-05 -4.49082e-06)
(9.37538e-05 4.31512e-05 -1.66235e-05)
(9.2023e-05 4.2375e-05 -1.24812e-05)
(9.03024e-05 4.16028e-05 -8.5079e-06)
(8.85705e-05 4.08258e-05 -4.47976e-06)
(9.00451e-05 5.0362e-05 -1.66222e-05)
(8.83812e-05 4.94503e-05 -1.24768e-05)
(8.67276e-05 4.85435e-05 -8.50061e-06)
(8.50633e-05 4.76312e-05 -4.4692e-06)
(8.57849e-05 5.72643e-05 -1.66207e-05)
(8.41992e-05 5.62217e-05 -1.24728e-05)
(8.26237e-05 5.51851e-05 -8.49418e-06)
(8.10383e-05 5.41422e-05 -4.45999e-06)
(8.10006e-05 6.38173e-05 -1.66189e-05)
(7.95041e-05 6.26495e-05 -1.24695e-05)
(7.80175e-05 6.14887e-05 -8.48923e-06)
(7.65221e-05 6.03209e-05 -4.45307e-06)
(7.5722e-05 6.9982e-05 -1.66174e-05)
(7.43255e-05 6.86959e-05 -1.24675e-05)
(7.29384e-05 6.74179e-05 -8.48646e-06)
(7.15432e-05 6.61323e-05 -4.44931e-06)
(6.9982e-05 7.5722e-05 -1.66174e-05)
(6.86959e-05 7.43255e-05 -1.24675e-05)
(6.74179e-05 7.29384e-05 -8.48646e-06)
(6.61323e-05 7.15432e-05 -4.44931e-06)
(6.38173e-05 8.10006e-05 -1.66189e-05)
(6.26495e-05 7.95041e-05 -1.24695e-05)
(6.14887e-05 7.80175e-05 -8.48923e-06)
(6.03209e-05 7.6522e-05 -4.45307e-06)
(5.72643e-05 8.57849e-05 -1.66207e-05)
(5.62217e-05 8.41992e-05 -1.24728e-05)
(5.51851e-05 8.26236e-05 -8.49417e-06)
(5.41422e-05 8.10383e-05 -4.45999e-06)
(5.0362e-05 9.00451e-05 -1.66222e-05)
(4.94503e-05 8.83812e-05 -1.24768e-05)
(4.85436e-05 8.67275e-05 -8.50061e-06)
(4.76312e-05 8.50633e-05 -4.46919e-06)
(4.31512e-05 9.37538e-05 -1.66235e-05)
(4.2375e-05 9.2023e-05 -1.24812e-05)
(4.16028e-05 9.03024e-05 -8.5079e-06)
(4.08258e-05 8.85705e-05 -4.47976e-06)
(3.56749e-05 9.68866e-05 -1.66246e-05)
(3.50377e-05 9.51003e-05 -1.24857e-05)
(3.44037e-05 9.33241e-05 -8.51553e-06)
(3.37657e-05 9.1536e-05 -4.49082e-06)
(2.79779e-05 9.94224e-05 -1.66261e-05)
(2.74825e-05 9.75921e-05 -1.24904e-05)
(2.69894e-05 9.57717e-05 -8.52317e-06)
(2.64933e-05 9.39389e-05 -4.50167e-06)
(2.0107e-05 0.000101344 -1.66285e-05)
(1.9755e-05 9.94813e-05 -1.24954e-05)
(1.94048e-05 9.76281e-05 -8.53067e-06)
(1.90527e-05 9.57619e-05 -4.51181e-06)
(1.211e-05 0.000102638 -1.66323e-05)
(1.19029e-05 0.000100755 -1.25013e-05)
(1.16962e-05 9.88803e-05 -8.53823e-06)
(1.14903e-05 9.69916e-05 -4.52096e-06)
(4.03993e-06 0.000103297 -1.66382e-05)
(3.97737e-06 0.000101407 -1.25084e-05)
(3.91184e-06 9.95245e-05 -8.54647e-06)
(3.85241e-06 9.76273e-05 -4.5298e-06)
(8.94132e-05 3.49036e-06 -2.06741e-05)
(8.76775e-05 3.43419e-06 -1.50767e-05)
(8.60226e-05 3.37757e-06 -9.70084e-06)
(8.4425e-05 3.32857e-06 -4.26012e-06)
(8.88366e-05 1.04677e-05 -2.06664e-05)
(8.71079e-05 1.02807e-05 -1.5068e-05)
(8.54603e-05 1.0102e-05 -9.6912e-06)
(8.38703e-05 9.93233e-06 -4.25014e-06)
(8.77084e-05 1.73815e-05 -2.06615e-05)
(8.59977e-05 1.70628e-05 -1.50613e-05)
(8.43684e-05 1.67596e-05 -9.68314e-06)
(8.27969e-05 1.64689e-05 -4.24087e-06)
(8.6034e-05 2.41856e-05 -2.06586e-05)
(8.43525e-05 2.37362e-05 -1.5056e-05)
(8.27515e-05 2.33086e-05 -9.67574e-06)
(8.12078e-05 2.28978e-05 -4.23121e-06)
(8.38265e-05 3.08385e-05 -2.06569e-05)
(8.21848e-05 3.02595e-05 -1.50514e-05)
(8.06222e-05 2.97085e-05 -9.6686e-06)
(7.91158e-05 2.9179e-05 -4.2212e-06)
(8.11021e-05 3.73e-05 -2.06558e-05)
(7.95109e-05 3.65933e-05 -1.50473e-05)
(7.79968e-05 3.59208e-05 -9.66168e-06)
(7.65375e-05 3.52743e-05 -4.21118e-06)
(7.78801e-05 4.35318e-05 -2.06549e-05)
(7.63501e-05 4.27e-05 -1.50434e-05)
(7.48949e-05 4.19087e-05 -9.65518e-06)
(7.34926e-05 4.11478e-05 -4.20167e-06)
(7.41827e-05 4.94975e-05 -2.06538e-05)
(7.27248e-05 4.85445e-05 -1.504e-05)
(7.13385e-05 4.7638e-05 -9.64948e-06)
(7.00032e-05 4.6766e-05 -4.19339e-06)
(7.00346e-05 5.51627e-05 -2.06525e-05)
(6.86593e-05 5.40932e-05 -1.50371e-05)
(6.73521e-05 5.30763e-05 -9.64511e-06)
(6.60933e-05 5.20979e-05 -4.18715e-06)
(6.54624e-05 6.04946e-05 -2.06513e-05)
(6.41801e-05 5.9315e-05 -1.50354e-05)