/*--------------------------------*- C++ -*----------------------------------*\
| =========                 |                                                 |
| \\      /  F ield         | foam-extend: Open Source CFD                    |
|  \\    /   O peration     | Version:     3.1                                |
|   \\  /    A nd           | Web:         http://www.extend-project.de       |
|    \\/     M anipulation  |                                                 |
\*---------------------------------------------------------------------------*/
FoamFile
{
    version     2.0;
    format      ascii;
    class       volVectorField;
    location    "0.0017";
    object      D_0_0_0;
}
// * * * * * * * * * * * * * * * * * * * * * * * * * * * * * * * * * * * * * //

dimensions      [0 1 0 0 0 0 0];

internalField   nonuniform List<vector> 
6400
(
(7.37694e-06 2.55329e-07 5.8542e-06)
(5.8201e-06 2.02639e-07 1.90582e-06)
(5.29017e-06 1.81571e-07 -1.01609e-06)
(5.68311e-06 1.89954e-07 -4.67754e-06)
(7.31791e-06 8.45427e-07 5.8588e-06)
(5.77664e-06 6.67158e-07 1.9131e-06)
(5.25314e-06 6.0656e-07 -1.0081e-06)
(5.65034e-06 6.52766e-07 -4.66936e-06)
(7.2246e-06 1.42467e-06 5.85666e-06)
(5.70313e-06 1.12409e-06 1.91281e-06)
(5.18664e-06 1.02278e-06 -1.0078e-06)
(5.57954e-06 1.1015e-06 -4.66886e-06)
(7.0883e-06 1.99166e-06 5.85522e-06)
(5.59569e-06 1.57203e-06 1.91207e-06)
(5.08902e-06 1.43036e-06 -1.0081e-06)
(5.47464e-06 1.53989e-06 -4.6688e-06)
(6.90886e-06 2.54428e-06 5.85458e-06)
(5.45406e-06 2.0087e-06 1.91179e-06)
(4.96022e-06 1.82756e-06 -1.0081e-06)
(5.33607e-06 1.96697e-06 -4.66847e-06)
(6.68707e-06 3.07987e-06 5.85453e-06)
(5.27887e-06 2.43181e-06 1.91189e-06)
(4.8008e-06 2.2124e-06 -1.00782e-06)
(5.1645e-06 2.38078e-06 -4.6679e-06)
(6.42416e-06 3.59557e-06 5.85489e-06)
(5.0711e-06 2.83908e-06 1.91226e-06)
(4.61171e-06 2.58275e-06 -1.00734e-06)
(4.96097e-06 2.77906e-06 -4.66718e-06)
(6.12166e-06 4.08854e-06 5.85555e-06)
(4.83203e-06 3.22822e-06 1.91281e-06)
(4.39414e-06 2.93654e-06 -1.00676e-06)
(4.72686e-06 3.15953e-06 -4.6664e-06)
(5.78136e-06 4.55601e-06 5.85647e-06)
(4.56316e-06 3.59704e-06 1.91345e-06)
(4.14957e-06 3.27174e-06 -1.00619e-06)
(4.46378e-06 3.51998e-06 -4.66568e-06)
(5.40524e-06 4.99546e-06 5.85759e-06)
(4.26627e-06 3.94355e-06 1.91405e-06)
(3.87972e-06 3.58658e-06 -1.00577e-06)
(4.17364e-06 3.8585e-06 -4.66521e-06)
(4.99547e-06 5.40524e-06 5.85759e-06)
(3.94355e-06 4.26627e-06 1.91405e-06)
(3.58658e-06 3.87972e-06 -1.00577e-06)
(3.8585e-06 4.17364e-06 -4.66521e-06)
(4.55601e-06 5.78136e-06 5.85646e-06)
(3.59704e-06 4.56316e-06 1.91345e-06)
(3.27174e-06 4.14957e-06 -1.00619e-06)
(3.51998e-06 4.46378e-06 -4.66568e-06)
(4.08854e-06 6.12165e-06 5.85555e-06)
(3.22822e-06 4.83203e-06 1.9128e-06)
(2.93654e-06 4.39414e-06 -1.00676e-06)
(3.15953e-06 4.72685e-06 -4.6664e-06)
(3.59557e-06 6.42416e-06 5.85489e-06)
(2.83908e-06 5.0711e-06 1.91226e-06)
(2.58275e-06 4.6117e-06 -1.00734e-06)
(2.77906e-06 4.96097e-06 -4.66718e-06)
(3.07987e-06 6.68707e-06 5.85453e-06)
(2.43181e-06 5.27886e-06 1.91189e-06)
(2.2124e-06 4.8008e-06 -1.00782e-06)
(2.38078e-06 5.16449e-06 -4.6679e-06)
(2.54428e-06 6.90885e-06 5.85458e-06)
(2.0087e-06 5.45406e-06 1.91179e-06)
(1.82756e-06 4.96021e-06 -1.0081e-06)
(1.96697e-06 5.33607e-06 -4.66847e-06)
(1.99166e-06 7.0883e-06 5.85521e-06)
(1.57203e-06 5.59569e-06 1.91207e-06)
(1.43036e-06 5.08902e-06 -1.0081e-06)
(1.53989e-06 5.47464e-06 -4.66879e-06)
(1.42467e-06 7.22459e-06 5.85666e-06)
(1.12409e-06 5.70313e-06 1.9128e-06)
(1.02278e-06 5.18664e-06 -1.0078e-06)
(1.1015e-06 5.57954e-06 -4.66886e-06)
(8.45427e-07 7.31791e-06 5.85879e-06)
(6.67158e-07 5.77664e-06 1.9131e-06)
(6.0656e-07 5.25314e-06 -1.0081e-06)
(6.52766e-07 5.65034e-06 -4.66936e-06)
(2.55329e-07 7.37694e-06 5.8542e-06)
(2.02639e-07 5.8201e-06 1.90582e-06)
(1.81571e-07 5.29017e-06 -1.01609e-06)
(1.89954e-07 5.68311e-06 -4.67754e-06)
(3.17783e-05 1.23096e-06 1.25815e-05)
(3.00572e-05 1.1697e-06 4.79678e-06)
(2.90545e-05 1.13257e-06 -2.20087e-06)
(2.87285e-05 1.12255e-06 -9.7577e-06)
(3.15623e-05 3.71889e-06 1.25671e-05)
(2.98573e-05 3.52229e-06 4.78349e-06)
(2.88677e-05 3.40864e-06 -2.21407e-06)
(2.85502e-05 3.37385e-06 -9.7706e-06)
(3.11652e-05 6.18618e-06 1.25609e-05)
(2.9482e-05 5.85464e-06 4.77846e-06)
(2.85058e-05 5.66352e-06 -2.21817e-06)
(2.81935e-05 5.60395e-06 -9.77347e-06)
(3.0579e-05 8.61428e-06 1.25584e-05)
(2.89277e-05 8.15108e-06 4.77679e-06)
(2.797e-05 7.88354e-06 -2.21895e-06)
(2.76637e-05 7.79937e-06 -9.77321e-06)
(2.98059e-05 1.09882e-05 1.25578e-05)
(2.81963e-05 1.03967e-05 4.77687e-06)
(2.72627e-05 1.00546e-05 -2.21819e-06)
(2.69641e-05 9.94638e-06 -9.77161e-06)
(2.88496e-05 1.32935e-05 1.25584e-05)
(2.72915e-05 1.25775e-05 4.77793e-06)
(2.63878e-05 1.2163e-05 -2.2166e-06)
(2.60986e-05 1.20315e-05 -9.76934e-06)
(2.77158e-05 1.5516e-05 1.25598e-05)
(2.62186e-05 1.46799e-05 4.77958e-06)
(2.53502e-05 1.41957e-05 -2.2146e-06)
(2.50721e-05 1.40418e-05 -9.7668e-06)
(2.64111e-05 1.76422e-05 1.25618e-05)
(2.49841e-05 1.66912e-05 4.78149e-06)
(2.41563e-05 1.61401e-05 -2.21251e-06)
(2.38912e-05 1.59647e-05 -9.76431e-06)
(2.49435e-05 1.96596e-05 1.2564e-05)
(2.35955e-05 1.85993e-05 4.78336e-06)
(2.28137e-05 1.79846e-05 -2.21066e-06)
(2.25633e-05 1.77885e-05 -9.76223e-06)
(2.33217e-05 2.15562e-05 1.25658e-05)
(2.20616e-05 2.03927e-05 4.7847e-06)
(2.1331e-05 1.97181e-05 -2.20949e-06)
(2.10972e-05 1.95025e-05 -9.76099e-06)
(2.15562e-05 2.33217e-05 1.25658e-05)
(2.03928e-05 2.20616e-05 4.7847e-06)
(1.97181e-05 2.1331e-05 -2.20949e-06)
(1.95025e-05 2.10972e-05 -9.76099e-06)
(1.96596e-05 2.49435e-05 1.2564e-05)
(1.85993e-05 2.35955e-05 4.78336e-06)
(1.79846e-05 2.28137e-05 -2.21066e-06)
(1.77885e-05 2.25633e-05 -9.76223e-06)
(1.76422e-05 2.64111e-05 1.25618e-05)
(1.66912e-05 2.49841e-05 4.78149e-06)
(1.61401e-05 2.41563e-05 -2.21251e-06)
(1.59647e-05 2.38912e-05 -9.76431e-06)
(1.5516e-05 2.77158e-05 1.25598e-05)
(1.46799e-05 2.62186e-05 4.77957e-06)
(1.41957e-05 2.53502e-05 -2.2146e-06)
(1.40418e-05 2.50721e-05 -9.7668e-06)
(1.32935e-05 2.88496e-05 1.25584e-05)
(1.25775e-05 2.72915e-05 4.77793e-06)
(1.2163e-05 2.63878e-05 -2.2166e-06)
(1.20315e-05 2.60985e-05 -9.76934e-06)
(1.09882e-05 2.98058e-05 1.25578e-05)
(1.03967e-05 2.81963e-05 4.77686e-06)
(1.00546e-05 2.72627e-05 -2.21819e-06)
(9.94637e-06 2.69641e-05 -9.7716e-06)
(8.61428e-06 3.0579e-05 1.25584e-05)
(8.15108e-06 2.89277e-05 4.77679e-06)
(7.88354e-06 2.797e-05 -2.21895e-06)
(7.79937e-06 2.76637e-05 -9.7732e-06)
(6.18618e-06 3.11652e-05 1.25609e-05)
(5.85464e-06 2.9482e-05 4.77846e-06)
(5.66352e-06 2.85058e-05 -2.21817e-06)
(5.60395e-06 2.81935e-05 -9.77347e-06)
(3.71889e-06 3.15623e-05 1.25671e-05)
(3.52229e-06 2.98572e-05 4.78348e-06)
(3.40864e-06 2.88677e-05 -2.21407e-06)
(3.37385e-06 2.85502e-05 -9.7706e-06)
(1.23096e-06 3.17783e-05 1.25815e-05)
(1.16969e-06 3.00572e-05 4.79678e-06)
(1.13257e-06 2.90545e-05 -2.20087e-06)
(1.12255e-06 2.87285e-05 -9.7577e-06)
(5.77882e-05 2.26013e-06 1.36186e-05)
(5.61547e-05 2.20439e-06 5.21504e-06)
(5.48081e-05 2.15567e-06 -2.73252e-06)
(5.37217e-05 2.11943e-06 -1.0959e-05)
(5.74171e-05 6.78401e-06 1.36034e-05)
(5.57939e-05 6.59901e-06 5.1989e-06)
(5.44574e-05 6.44631e-06 -2.74876e-06)
(5.33788e-05 6.32408e-06 -1.09733e-05)
(5.67004e-05 1.12677e-05 1.35957e-05)
(5.50965e-05 1.09536e-05 5.19138e-06)
(5.37764e-05 1.06959e-05 -2.75539e-06)
(5.27113e-05 1.04887e-05 -1.09781e-05)
(5.56359e-05 1.56809e-05 1.35924e-05)
(5.40619e-05 1.52411e-05 5.18885e-06)
(5.27663e-05 1.48799e-05 -2.75692e-06)
(5.17209e-05 1.45891e-05 -1.09783e-05)
(5.42298e-05 1.99969e-05 1.35919e-05)
(5.26954e-05 1.94346e-05 5.18906e-06)
(5.14322e-05 1.89723e-05 -2.75581e-06)
(5.0413e-05 1.85999e-05 -1.09762e-05)
(5.24901e-05 2.41892e-05 1.3593e-05)
(5.10046e-05 2.35079e-05 5.19083e-06)
(4.97817e-05 2.29477e-05 -2.75328e-06)
(4.87949e-05 2.2496e-05 -1.09727e-05)
(5.04272e-05 2.82318e-05 1.35952e-05)
(4.89997e-05 2.7436e-05 5.19344e-06)
(4.78246e-05 2.67812e-05 -2.75009e-06)
(4.68763e-05 2.62532e-05 -1.09688e-05)
(4.80534e-05 3.21002e-05 1.3598e-05)
(4.66928e-05 3.11946e-05 5.19636e-06)
(4.55728e-05 3.04492e-05 -2.74683e-06)
(4.4669e-05 2.9848e-05 -1.0965e-05)
(4.53834e-05 3.57709e-05 1.36009e-05)
(4.40982e-05 3.47608e-05 5.19906e-06)
(4.30405e-05 3.39292e-05 -2.74405e-06)
(4.21869e-05 3.32584e-05 -1.09619e-05)
(4.24333e-05 3.92219e-05 1.36032e-05)
(4.12321e-05 3.81131e-05 5.20086e-06)
(4.02436e-05 3.72004e-05 -2.74237e-06)
(3.94461e-05 3.6464e-05 -1.09601e-05)
(3.92219e-05 4.24333e-05 1.36032e-05)
(3.81132e-05 4.12321e-05 5.20086e-06)
(3.72004e-05 4.02436e-05 -2.74237e-06)
(3.6464e-05 3.94461e-05 -1.09601e-05)
(3.57709e-05 4.53834e-05 1.36009e-05)
(3.47608e-05 4.40982e-05 5.19906e-06)
(3.39292e-05 4.30404e-05 -2.74405e-06)
(3.32584e-05 4.21869e-05 -1.09619e-05)
(3.21002e-05 4.80534e-05 1.3598e-05)
(3.11946e-05 4.66928e-05 5.19636e-06)
(3.04492e-05 4.55728e-05 -2.74683e-06)
(2.9848e-05 4.46689e-05 -1.0965e-05)
(2.82318e-05 5.04271e-05 1.35952e-05)
(2.7436e-05 4.89997e-05 5.19344e-06)
(2.67812e-05 4.78246e-05 -2.75009e-06)
(2.62532e-05 4.68762e-05 -1.09688e-05)
(2.41891e-05 5.24901e-05 1.3593e-05)
(2.35079e-05 5.10046e-05 5.19083e-06)
(2.29477e-05 4.97817e-05 -2.75328e-06)
(2.2496e-05 4.87949e-05 -1.09727e-05)
(1.99969e-05 5.42298e-05 1.35919e-05)
(1.94346e-05 5.26954e-05 5.18906e-06)
(1.89723e-05 5.14322e-05 -2.75581e-06)
(1.85999e-05 5.0413e-05 -1.09762e-05)
(1.56809e-05 5.56359e-05 1.35924e-05)
(1.52411e-05 5.40619e-05 5.18884e-06)
(1.48799e-05 5.27663e-05 -2.75693e-06)
(1.45891e-05 5.17209e-05 -1.09783e-05)
(1.12677e-05 5.67003e-05 1.35957e-05)
(1.09536e-05 5.50965e-05 5.19138e-06)
(1.06959e-05 5.37764e-05 -2.75539e-06)
(1.04887e-05 5.27113e-05 -1.09781e-05)
(6.78401e-06 5.74171e-05 1.36034e-05)
(6.59901e-06 5.57938e-05 5.1989e-06)
(6.4463e-06 5.44573e-05 -2.74876e-06)
(6.32407e-06 5.33788e-05 -1.09733e-05)
(2.26013e-06 5.77882e-05 1.36186e-05)
(2.20439e-06 5.61547e-05 5.21503e-06)
(2.15567e-06 5.48081e-05 -2.73252e-06)
(2.11943e-06 5.37216e-05 -1.0959e-05)
(8.05927e-05 3.16019e-06 1.09185e-05)
(7.89064e-05 3.10226e-06 3.75434e-06)
(7.72635e-05 3.04313e-06 -3.14928e-06)
(7.56416e-05 2.99006e-06 -1.01673e-05)
(8.00835e-05 9.46905e-06 1.09071e-05)
(7.84048e-05 9.27808e-06 3.74259e-06)
(7.67702e-05 9.0918e-06 -3.16088e-06)
(7.51564e-05 8.90937e-06 -1.01773e-05)
(7.90858e-05 1.57208e-05 1.09004e-05)
(7.74264e-05 1.53971e-05 3.73644e-06)
(7.58111e-05 1.50826e-05 -3.16605e-06)
(7.4217e-05 1.47725e-05 -1.01808e-05)
(7.76017e-05 2.18746e-05 1.08975e-05)
(7.59728e-05 2.1421e-05 3.73444e-06)
(7.43872e-05 2.09799e-05 -3.16691e-06)
(7.28225e-05 2.05446e-05 -1.01804e-05)
(7.56404e-05 2.7893e-05 1.08972e-05)
(7.40522e-05 2.73126e-05 3.73514e-06)
(7.25061e-05 2.67478e-05 -3.16509e-06)
(7.09804e-05 2.61903e-05 -1.01773e-05)
(7.32135e-05 3.37392e-05 1.08987e-05)
(7.16758e-05 3.30356e-05 3.7375e-06)
(7.01789e-05 3.23507e-05 -3.1617e-06)
(6.87016e-05 3.16747e-05 -1.01728e-05)
(7.03357e-05 3.93773e-05 1.09013e-05)
(6.8858e-05 3.85548e-05 3.74078e-06)
(6.74195e-05 3.7754e-05 -3.15758e-06)
(6.6e-05 3.69636e-05 -1.01677e-05)
(6.70245e-05 4.47728e-05 1.09045e-05)
(6.5616e-05 4.38363e-05 3.74435e-06)
(6.4245e-05 4.29245e-05 -3.15345e-06)
(6.28922e-05 4.20245e-05 -1.01628e-05)
(6.33002e-05 4.98929e-05 1.09078e-05)
(6.19698e-05 4.8848e-05 3.74755e-06)
(6.06752e-05 4.78305e-05 -3.15001e-06)
(5.93977e-05 4.68262e-05 -1.01589e-05)
(5.91856e-05 5.47067e-05 1.09103e-05)
(5.79424e-05 5.35593e-05 3.74961e-06)
(5.67326e-05 5.24423e-05 -3.14798e-06)
(5.55388e-05 5.13399e-05 -1.01567e-05)
(5.47067e-05 5.91856e-05 1.09103e-05)
(5.35593e-05 5.79423e-05 3.74961e-06)
(5.24423e-05 5.67326e-05 -3.14798e-06)
(5.13399e-05 5.55388e-05 -1.01567e-05)
(4.98929e-05 6.33002e-05 1.09078e-05)
(4.8848e-05 6.19698e-05 3.74755e-06)
(4.78305e-05 6.06752e-05 -3.15001e-06)
(4.68262e-05 5.93977e-05 -1.01589e-05)
(4.47728e-05 6.70245e-05 1.09045e-05)
(4.38363e-05 6.56159e-05 3.74435e-06)
(4.29245e-05 6.4245e-05 -3.15345e-06)
(4.20245e-05 6.28921e-05 -1.01628e-05)
(3.93773e-05 7.03356e-05 1.09013e-05)
(3.85548e-05 6.88579e-05 3.74078e-06)
(3.7754e-05 6.74195e-05 -3.15758e-06)
(3.69636e-05 6.59999e-05 -1.01677e-05)
(3.37392e-05 7.32134e-05 1.08987e-05)
(3.30356e-05 7.16758e-05 3.7375e-06)
(3.23507e-05 7.01788e-05 -3.1617e-06)
(3.16747e-05 6.87016e-05 -1.01728e-05)
(2.7893e-05 7.56403e-05 1.08972e-05)
(2.73126e-05 7.40521e-05 3.73513e-06)
(2.67478e-05 7.25061e-05 -3.16509e-06)
(2.61903e-05 7.09804e-05 -1.01773e-05)
(2.18746e-05 7.76016e-05 1.08975e-05)
(2.1421e-05 7.59728e-05 3.73444e-06)
(2.09799e-05 7.43872e-05 -3.16691e-06)
(2.05446e-05 7.28224e-05 -1.01804e-05)
(1.57208e-05 7.90857e-05 1.09004e-05)
(1.53971e-05 7.74263e-05 3.73644e-06)
(1.50826e-05 7.5811e-05 -3.16605e-06)
(1.47724e-05 7.4217e-05 -1.01808e-05)
(9.46905e-06 8.00835e-05 1.09071e-05)
(9.27807e-06 7.84048e-05 3.74259e-06)
(9.0918e-06 7.67701e-05 -3.16088e-06)
(8.90937e-06 7.51563e-05 -1.01773e-05)
(3.16019e-06 8.05927e-05 1.09185e-05)
(3.10226e-06 7.89064e-05 3.75434e-06)
(3.04312e-06 7.72635e-05 -3.14928e-06)
(2.99005e-06 7.56416e-05 -1.01673e-05)
(9.73387e-05 3.8186e-06 6.00616e-06)
(9.55526e-05 3.75708e-06 1.08265e-06)
(9.36929e-05 3.69035e-06 -3.71807e-06)
(9.17397e-05 3.627e-06 -8.54122e-06)
(9.67265e-05 1.14374e-05 5.99973e-06)
(9.4947e-05 1.12354e-05 1.07649e-06)
(9.30949e-05 1.1025e-05 -3.72377e-06)
(9.11502e-05 1.08059e-05 -8.54565e-06)
(9.55212e-05 1.8987e-05 5.99554e-06)
(9.37618e-05 1.86452e-05 1.07327e-06)
(9.19314e-05 1.82898e-05 -3.72581e-06)
(9.00104e-05 1.79168e-05 -8.54616e-06)
(9.37278e-05 2.64183e-05 5.99373e-06)
(9.20006e-05 2.5939e-05 1.07279e-06)
(9.02037e-05 2.54404e-05 -3.72489e-06)
(8.83179e-05 2.49168e-05 -8.5437e-06)
(9.13577e-05 3.36861e-05 5.99388e-06)
(8.96733e-05 3.30723e-05 1.07436e-06)
(8.79211e-05 3.24337e-05 -3.72182e-06)
(8.60822e-05 3.1763e-05 -8.53904e-06)
(8.84251e-05 4.07461e-05 5.99553e-06)
(8.67941e-05 4.00015e-05 1.07734e-06)
(8.50974e-05 3.92266e-05 -3.7174e-06)
(8.33169e-05 3.8413e-05 -8.53306e-06)
(8.4948e-05 4.7555e-05 5.99823e-06)
(8.33805e-05 4.6684e-05 1.08112e-06)
(8.17501e-05 4.57776e-05 -3.7124e-06)
(8.00391e-05 4.48259e-05 -8.52666e-06)
(8.09477e-05 5.40712e-05 6.00152e-06)
(7.94537e-05 5.3079e-05 1.08508e-06)
(7.78998e-05 5.20465e-05 -3.70754e-06)
(7.62692e-05 5.09625e-05 -8.52071e-06)
(7.64489e-05 6.02552e-05 6.00481e-06)
(7.50378e-05 5.91476e-05 1.08856e-06)
(7.35706e-05 5.7995e-05 -3.70358e-06)
(7.2031e-05 5.67852e-05 -8.51604e-06)
(7.14791e-05 6.60694e-05 6.00727e-06)
(7.01606e-05 6.48528e-05 1.09076e-06)
(6.87896e-05 6.35872e-05 -3.70127e-06)
(6.7351e-05 6.22588e-05 -8.51342e-06)
(6.60694e-05 7.1479e-05 6.00727e-06)
(6.48529e-05 7.01606e-05 1.09076e-06)
(6.35872e-05 6.87896e-05 -3.70127e-06)
(6.22588e-05 6.7351e-05 -8.51342e-06)
(6.02552e-05 7.64488e-05 6.00481e-06)
(5.91476e-05 7.50378e-05 1.08855e-06)
(5.7995e-05 7.35705e-05 -3.70358e-06)
(5.67852e-05 7.20309e-05 -8.51604e-06)
(5.40712e-05 8.09477e-05 6.00151e-06)
(5.3079e-05 7.94536e-05 1.08508e-06)
(5.20465e-05 7.78998e-05 -3.70754e-06)
(5.09625e-05 7.62692e-05 -8.52071e-06)
(4.7555e-05 8.4948e-05 5.99823e-06)
(4.6684e-05 8.33805e-05 1.08112e-06)
(4.57776e-05 8.17501e-05 -3.7124e-06)
(4.48259e-05 8.00391e-05 -8.52666e-06)
(4.07461e-05 8.84251e-05 5.99553e-06)
(4.00015e-05 8.67941e-05 1.07734e-06)
(3.92266e-05 8.50974e-05 -3.7174e-06)
(3.8413e-05 8.33169e-05 -8.53306e-06)
(3.36861e-05 9.13576e-05 5.99387e-06)
(3.30723e-05 8.96733e-05 1.07436e-06)
(3.24337e-05 8.7921e-05 -3.72182e-06)
(3.17629e-05 8.60821e-05 -8.53904e-06)
(2.64183e-05 9.37278e-05 5.99372e-06)
(2.5939e-05 9.20005e-05 1.07278e-06)
(2.54404e-05 9.02036e-05 -3.72489e-06)
(2.49168e-05 8.83178e-05 -8.5437e-06)
(1.8987e-05 9.55211e-05 5.99554e-06)
(1.86451e-05 9.37618e-05 1.07327e-06)
(1.82898e-05 9.19314e-05 -3.72582e-06)
(1.79168e-05 9.00104e-05 -8.54616e-06)
(1.14374e-05 9.67264e-05 5.99972e-06)
(1.12354e-05 9.49469e-05 1.07648e-06)
(1.1025e-05 9.30949e-05 -3.72377e-06)
(1.08059e-05 9.11501e-05 -8.54566e-06)
(3.8186e-06 9.73386e-05 6.00615e-06)
(3.75708e-06 9.55526e-05 1.08264e-06)
(3.69035e-06 9.36929e-05 -3.71807e-06)
(3.62699e-06 9.17396e-05 -8.54122e-06)
(0.0001068 4.18857e-06 2.0712e-08)
(0.000104936 4.12462e-06 -2.25189e-06)
(0.00010296 4.05404e-06 -4.50585e-06)
(0.000100854 3.98617e-06 -6.73593e-06)
(0.000106129 1.25456e-05 1.87716e-08)
(0.00010427 1.23358e-05 -2.2531e-06)
(0.000102302 1.21132e-05 -4.50632e-06)
(0.000100204 1.1878e-05 -6.73535e-06)
(0.000104804 2.0827e-05 1.72778e-08)
(0.000102967 2.04718e-05 -2.25316e-06)
(0.000101022 2.00957e-05 -4.50496e-06)
(9.89494e-05 1.9695e-05 -6.73242e-06)
(0.000102834 2.89784e-05 1.68035e-08)
(0.00010103 2.84801e-05 -2.25181e-06)
(9.91199e-05 2.79522e-05 -4.50181e-06)
(9.70856e-05 2.73894e-05 -6.72736e-06)
(0.000100231 3.69505e-05 1.74321e-08)
(9.84711e-05 3.63118e-05 -2.24918e-06)
(9.66083e-05 3.56351e-05 -4.49719e-06)
(9.46244e-05 3.49138e-05 -6.72063e-06)
(9.70101e-05 4.46945e-05 1.90739e-08)
(9.5306e-05 4.3919e-05 -2.2456e-06)
(9.35022e-05 4.30976e-05 -4.49163e-06)
(9.15812e-05 4.2222e-05 -6.71292e-06)
(9.31923e-05 5.21633e-05 2.1531e-08)
(9.15546e-05 5.12555e-05 -2.24148e-06)
(8.98211e-05 5.0294e-05 -4.48575e-06)
(8.79751e-05 4.92693e-05 -6.70509e-06)
(8.88011e-05 5.93115e-05 2.45006e-08)
(8.72401e-05 5.82766e-05 -2.23733e-06)
(8.55881e-05 5.71805e-05 -4.48024e-06)
(8.38289e-05 5.60127e-05 -6.698e-06)
(8.38636e-05 6.60956e-05 2.75208e-08)
(8.23895e-05 6.49397e-05 -2.23376e-06)
(8.08297e-05 6.37155e-05 -4.47585e-06)
(7.91689e-05 6.24115e-05 -6.69255e-06)
(7.841e-05 7.24746e-05 2.9811e-08)
(7.70329e-05 7.12043e-05 -2.23153e-06)
(7.55759e-05 6.98595e-05 -4.47334e-06)
(7.40243e-05 6.84272e-05 -6.68953e-06)
(7.24746e-05 7.841e-05 2.98109e-08)
(7.12043e-05 7.70329e-05 -2.23153e-06)
(6.98595e-05 7.55758e-05 -4.47334e-06)
(6.84272e-05 7.40243e-05 -6.68953e-06)
(6.60956e-05 8.38635e-05 2.75206e-08)
(6.49397e-05 8.23895e-05 -2.23376e-06)
(6.37155e-05 8.08297e-05 -4.47585e-06)
(6.24115e-05 7.91689e-05 -6.69255e-06)
(5.93115e-05 8.88011e-05 2.45003e-08)
(5.82766e-05 8.72401e-05 -2.23733e-06)
(5.71805e-05 8.5588e-05 -4.48025e-06)
(5.60127e-05 8.38289e-05 -6.69801e-06)
(5.21633e-05 9.31923e-05 2.15304e-08)
(5.12555e-05 9.15545e-05 -2.24148e-06)
(5.0294e-05 8.98211e-05 -4.48575e-06)
(4.92692e-05 8.7975e-05 -6.70509e-06)
(4.46945e-05 9.701e-05 1.90732e-08)
(4.3919e-05 9.5306e-05 -2.2456e-06)
(4.30976e-05 9.35022e-05 -4.49163e-06)
(4.2222e-05 9.15811e-05 -6.71293e-06)
(3.69505e-05 0.000100231 1.74312e-08)
(3.63118e-05 9.8471e-05 -2.24918e-06)
(3.56351e-05 9.66083e-05 -4.49719e-06)
(3.49138e-05 9.46244e-05 -6.72063e-06)
(2.89784e-05 0.000102834 1.68024e-08)
(2.84801e-05 0.00010103 -2.25181e-06)
(2.79522e-05 9.91199e-05 -4.50181e-06)
(2.73894e-05 9.70856e-05 -6.72737e-06)
(2.0827e-05 0.000104804 1.72765e-08)
(2.04718e-05 0.000102967 -2.25316e-06)
(2.00957e-05 0.000101021 -4.50497e-06)
(1.9695e-05 9.89493e-05 -6.73242e-06)
(1.25456e-05 0.000106129 1.87702e-08)
(1.23358e-05 0.00010427 -2.2531e-06)
(1.21132e-05 0.000102302 -4.50632e-06)
(1.1878e-05 0.000100204 -6.73535e-06)
(4.18857e-06 0.0001068 2.07107e-08)
(4.12461e-06 0.000104936 -2.25189e-06)
(4.05404e-06 0.00010296 -4.50586e-06)
(3.98617e-06 0.000100854 -6.73593e-06)
(0.00010879 4.26368e-06 -6.19124e-06)
(0.000106904 4.19961e-06 -5.79739e-06)
(0.000104919 4.1292e-06 -5.469e-06)
(0.000102814 4.06194e-06 -5.09476e-06)
(0.000108103 1.27726e-05 -6.18951e-06)
(0.000106224 1.25621e-05 -5.7946e-06)
(0.000104246 1.234e-05 -5.46523e-06)
(0.00010215 1.21067e-05 -5.09011e-06)
(0.000106751 2.12045e-05 -6.18863e-06)
(0.000104892 2.08477e-05 -5.79189e-06)
(0.000102937 2.04722e-05 -5.46089e-06)
(0.000100866 2.00743e-05 -5.08409e-06)
(0.000104739 2.95039e-05 -6.18792e-06)
(0.000102914 2.90029e-05 -5.78885e-06)
(0.000100994 2.84754e-05 -5.45565e-06)
(9.89609e-05 2.79161e-05 -5.07653e-06)
(0.000102082 3.76206e-05 -6.18698e-06)
(0.000100302 3.69777e-05 -5.7853e-06)
(9.84289e-05 3.63009e-05 -5.44957e-06)
(9.64459e-05 3.55835e-05 -5.06776e-06)
(9.87968e-05 4.55049e-05 -6.18557e-06)
(9.70719e-05 4.47236e-05 -5.78128e-06)
(9.52582e-05 4.39011e-05 -5.44299e-06)
(9.33379e-05 4.30296e-05 -5.05839e-06)
(9.49033e-05 5.31093e-05 -6.18364e-06)
(9.32453e-05 5.21936e-05 -5.77702e-06)
(9.15023e-05 5.12299e-05 -5.4364e-06)
(8.9657e-05 5.02091e-05 -5.04921e-06)
(9.04265e-05 6.03875e-05 -6.18126e-06)
(8.88463e-05 5.93426e-05 -5.77288e-06)
(8.71853e-05 5.82432e-05 -5.4304e-06)
(8.5427e-05 5.70787e-05 -5.0411e-06)
(8.53945e-05 6.72958e-05 -6.17875e-06)
(8.39026e-05 6.61276e-05 -5.76939e-06)
(8.23347e-05 6.48988e-05 -5.42571e-06)
(8.0675e-05 6.35976e-05 -5.03494e-06)
(7.98383e-05 7.37924e-05 -6.17677e-06)
(7.8445e-05 7.25078e-05 -5.76722e-06)
(7.69807e-05 7.1157e-05 -5.42306e-06)
(7.54307e-05 6.97269e-05 -5.03157e-06)
(7.37924e-05 7.98383e-05 -6.17677e-06)
(7.25078e-05 7.8445e-05 -5.76722e-06)
(7.1157e-05 7.69807e-05 -5.42306e-06)
(6.97269e-05 7.54307e-05 -5.03157e-06)
(6.72958e-05 8.53945e-05 -6.17875e-06)
(6.61276e-05 8.39026e-05 -5.76939e-06)
(6.48988e-05 8.23346e-05 -5.42571e-06)
(6.35976e-05 8.06749e-05 -5.03494e-06)
(6.03875e-05 9.04265e-05 -6.18126e-06)
(5.93426e-05 8.88463e-05 -5.77288e-06)
(5.82432e-05 8.71853e-05 -5.4304e-06)
(5.70787e-05 8.5427e-05 -5.0411e-06)
(5.31092e-05 9.49032e-05 -6.18363e-06)
(5.21936e-05 9.32453e-05 -5.77702e-06)
(5.12299e-05 9.15023e-05 -5.4364e-06)
(5.0209e-05 8.96569e-05 -5.04922e-06)
(4.55049e-05 9.87967e-05 -6.18557e-06)
(4.47236e-05 9.70718e-05 -5.78128e-06)
(4.39011e-05 9.52581e-05 -5.44299e-06)
(4.30296e-05 9.33378e-05 -5.05839e-06)
(3.76205e-05 0.000102082 -6.18697e-06)
(3.69777e-05 0.000100302 -5.78529e-06)
(3.63009e-05 9.84289e-05 -5.44957e-06)
(3.55835e-05 9.64459e-05 -5.06776e-06)
(2.95039e-05 0.000104739 -6.18792e-06)
(2.90029e-05 0.000102914 -5.78885e-06)
(2.84753e-05 0.000100994 -5.45565e-06)
(2.79161e-05 9.89608e-05 -5.07653e-06)
(2.12045e-05 0.000106751 -6.18863e-06)
(2.08477e-05 0.000104892 -5.79189e-06)
(2.04722e-05 0.000102937 -5.46089e-06)
(2.00743e-05 0.000100866 -5.0841e-06)
(1.27726e-05 0.000108103 -6.18951e-06)
(1.25621e-05 0.000106224 -5.79459e-06)
(1.234e-05 0.000104246 -5.46524e-06)
(1.21067e-05 0.00010215 -5.09011e-06)
(4.26368e-06 0.00010879 -6.19124e-06)
(4.19961e-06 0.000106904 -5.79739e-06)
(4.1292e-06 0.000104919 -5.469e-06)
(4.06194e-06 0.000102814 -5.09477e-06)
(0.000103802 4.06388e-06 -1.19693e-05)
(0.000101964 4.00234e-06 -9.17358e-06)
(0.000100071 3.93593e-06 -6.51703e-06)
(9.81026e-05 3.87378e-06 -3.80114e-06)
(0.000103143 1.21771e-05 -1.19646e-05)
(0.000101311 1.19742e-05 -9.16764e-06)
(9.94255e-05 1.17647e-05 -6.50999e-06)
(9.7466e-05 1.15491e-05 -3.79336e-06)
(0.000101847 2.02168e-05 -1.19618e-05)
(0.000100035 1.98724e-05 -9.16279e-06)
(9.81708e-05 1.95178e-05 -6.5034e-06)
(9.62347e-05 1.91496e-05 -3.78509e-06)
(9.99208e-05 2.81299e-05 -1.19602e-05)
(9.81407e-05 2.76457e-05 -9.1585e-06)
(9.63097e-05 2.71468e-05 -6.49667e-06)
(9.44085e-05 2.66286e-05 -3.77576e-06)
(9.73777e-05 3.58684e-05 -1.19591e-05)
(9.56407e-05 3.52461e-05 -9.15434e-06)
(9.38544e-05 3.46053e-05 -6.48965e-06)
(9.19998e-05 3.39397e-05 -3.76565e-06)
(9.42348e-05 4.33851e-05 -1.1958e-05)
(9.25519e-05 4.26277e-05 -9.15017e-06)
(9.08217e-05 4.1848e-05 -6.48251e-06)
(8.90255e-05 4.10382e-05 -3.75525e-06)
(9.05127e-05 5.0635e-05 -1.19567e-05)
(8.88949e-05 4.9746e-05 -9.14603e-06)
(8.7232e-05 4.88313e-05 -6.47561e-06)
(8.5506e-05 4.78814e-05 -3.74529e-06)
(8.62354e-05 5.75744e-05 -1.19551e-05)
(8.46936e-05 5.65586e-05 -9.14213e-06)
(8.31091e-05 5.55137e-05 -6.46948e-06)
(8.14647e-05 5.44288e-05 -3.73659e-06)
(8.14302e-05 6.41621e-05 -1.19532e-05)
(7.99749e-05 6.30251e-05 -9.13888e-06)
(7.84796e-05 6.18558e-05 -6.46473e-06)
(7.6928e-05 6.06421e-05 -3.73005e-06)
(7.6127e-05 7.03586e-05 -1.19516e-05)
(7.47685e-05 6.9107e-05 -9.13687e-06)
(7.33728e-05 6.78205e-05 -6.46207e-06)
(7.19246e-05 6.64852e-05 -3.72649e-06)
(7.03586e-05 7.6127e-05 -1.19516e-05)
(6.9107e-05 7.47685e-05 -9.13687e-06)
(6.78205e-05 7.33728e-05 -6.46207e-06)
(6.64852e-05 7.19246e-05 -3.72649e-06)
(6.41621e-05 8.14302e-05 -1.19532e-05)
(6.30251e-05 7.99749e-05 -9.13887e-06)
(6.18558e-05 7.84796e-05 -6.46473e-06)
(6.06421e-05 7.6928e-05 -3.73005e-06)
(5.75744e-05 8.62354e-05 -1.19551e-05)
(5.65586e-05 8.46936e-05 -9.14213e-06)
(5.55137e-05 8.31091e-05 -6.46948e-06)
(5.44288e-05 8.14647e-05 -3.73659e-06)
(5.0635e-05 9.05127e-05 -1.19567e-05)
(4.9746e-05 8.88949e-05 -9.14602e-06)
(4.88313e-05 8.7232e-05 -6.47561e-06)
(4.78814e-05 8.55059e-05 -3.74529e-06)
(4.33851e-05 9.42348e-05 -1.1958e-05)
(4.26277e-05 9.25519e-05 -9.15017e-06)
(4.1848e-05 9.08217e-05 -6.48251e-06)
(4.10382e-05 8.90255e-05 -3.75525e-06)
(3.58684e-05 9.73777e-05 -1.19591e-05)
(3.52461e-05 9.56406e-05 -9.15434e-06)
(3.46053e-05 9.38544e-05 -6.48965e-06)
(3.39397e-05 9.19998e-05 -3.76565e-06)
(2.81299e-05 9.99207e-05 -1.19601e-05)
(2.76456e-05 9.81406e-05 -9.15849e-06)
(2.71468e-05 9.63097e-05 -6.49667e-06)
(2.66286e-05 9.44084e-05 -3.77576e-06)
(2.02168e-05 0.000101847 -1.19618e-05)
(1.98724e-05 0.000100035 -9.16279e-06)
(1.95178e-05 9.81708e-05 -6.5034e-06)
(1.91496e-05 9.62347e-05 -3.78509e-06)
(1.21771e-05 0.000103143 -1.19646e-05)
(1.19742e-05 0.000101311 -9.16764e-06)
(1.17647e-05 9.94254e-05 -6.50999e-06)
(1.15491e-05 9.74659e-05 -3.79336e-06)
(4.06388e-06 0.000103802 -1.19693e-05)
(4.00234e-06 0.000101964 -9.17357e-06)
(3.93593e-06 0.000100071 -6.51703e-06)
(3.87378e-06 9.81026e-05 -3.80114e-06)
(9.28535e-05 3.62941e-06 -1.6754e-05)
(9.1128e-05 3.57281e-06 -1.20544e-05)
(8.94185e-05 3.51374e-06 -7.55975e-06)
(8.77039e-05 3.46052e-06 -2.9925e-06)
(9.22587e-05 1.08798e-05 -1.67469e-05)
(9.05397e-05 1.06922e-05 -1.20461e-05)
(8.88373e-05 1.05058e-05 -7.55048e-06)
(8.71303e-05 1.03212e-05 -2.98273e-06)
(9.10919e-05 1.80642e-05 -1.67426e-05)
(8.93911e-05 1.77451e-05 -1.20399e-05)
(8.77077e-05 1.74291e-05 -7.54266e-06)
(8.60209e-05 1.71133e-05 -2.97351e-06)
(8.93591e-05 2.51349e-05 -1.67401e-05)
(8.76877e-05 2.46854e-05 -1.20349e-05)
(8.60339e-05 2.42402e-05 -7.53541e-06)
(8.4377e-05 2.37948e-05 -2.96382e-06)
(8.70735e-05 3.20489e-05 -1.67388e-05)
(8.54418e-05 3.14703e-05 -1.20305e-05)
(8.3828e-05 3.08973e-05 -7.52835e-06)
(8.22114e-05 3.03241e-05 -2.95376e-06)
(8.42511e-05 3.87643e-05 -1.6738e-05)
(8.26698e-05 3.80587e-05 -1.20265e-05)
(8.11063e-05 3.73603e-05 -7.52146e-06)
(7.95405e-05 3.66615e-05 -2.94367e-06)
(8.09115e-05 4.5241e-05 -1.67371e-05)
(7.93912e-05 4.44114e-05 -1.20228e-05)
(7.78884e-05 4.35906e-05 -7.51496e-06)
(7.63838e-05 4.27693e-05 -2.93411e-06)
(7.70771e-05 5.1441e-05 -1.6736e-05)
(7.56283e-05 5.04914e-05 -1.20193e-05)
(7.41966e-05 4.95521e-05 -7.50925e-06)
(7.27636e-05 4.86123e-05 -2.92579e-06)
(7.27731e-05 5.73279e-05 -1.67347e-05)
(7.14061e-05 5.62632e-05 -1.20164e-05)
(7.00556e-05 5.52105e-05 -7.50486e-06)
(6.87042e-05 5.41573e-05 -2.91954e-06)
(6.80266e-05 6.28673e-05 -1.67334e-05)
(6.67515e-05 6.16937e-05 -1.20147e-05)
(6.5492e-05 6.05339e-05 -7.5024e-06)
(6.42317e-05 5.93734e-05 -2.91614e-06)
(6.28673e-05 6.80266e-05 -1.67334e-05)
(6.16937e-05 6.67515e-05 -1.20147e-05)
(6.05339e-05 6.5492e-05 -7.5024e-06)
(5.93734e-05 6.42317e-05 -2.91614e-06)
(5.73279e-05 7.27731e-05 -1.67347e-05)
(5.62632e-05 7.14061e-05 -1.20164e-05)
(5.52105e-05 7.00556e-05 -7.50486e-06)
(5.41573e-05 6.87042e-05 -2.91954e-06)
(5.1441e-05 7.70771e-05 -1.6736e-05)
(5.04914e-05 7.56283e-05 -1.20193e-05)
(4.95521e-05 7.41966e-05 -7.50925e-06)
(4.86123e-05 7.27636e-05 -2.92579e-06)
(4.5241e-05 8.09114e-05 -1.67371e-05)
(4.44114e-05 7.93911e-05 -1.20228e-05)
(4.35906e-05 7.78883e-05 -7.51496e-06)
(4.27693e-05 7.63838e-05 -2.93411e-06)
(3.87642e-05 8.42511e-05 -1.67379e-05)
(3.80587e-05 8.26698e-05 -1.20265e-05)
(3.73603e-05 8.11062e-05 -7.52146e-06)
(3.66614e-05 7.95405e-05 -2.94367e-06)
(3.20488e-05 8.70734e-05 -1.67388e-05)
(3.14702e-05 8.54418e-05 -1.20305e-05)
(3.08973e-05 8.38279e-05 -7.52835e-06)
(3.03241e-05 8.22114e-05 -2.95376e-06)
(2.51349e-05 8.93591e-05 -1.67401e-05)
(2.46854e-05 8.76876e-05 -1.20349e-05)
(2.42402e-05 8.60338e-05 -7.53541e-06)
(2.37948e-05 8.4377e-05 -2.96382e-06)
(1.80642e-05 9.10919e-05 -1.67426e-05)
(1.77451e-05 8.93911e-05 -1.20399e-05)
(1.74291e-05 8.77076e-05 -7.54266e-06)
(1.71133e-05 8.60209e-05 -2.97351e-06)
(1.08798e-05 9.22587e-05 -1.67469e-05)
(1.06922e-05 9.05397e-05 -1.20461e-05)
(1.05058e-05 8.88372e-05 -7.55047e-06)
(1.03212e-05 8.71303e-05 -2.98273e-06)
(3.62941e-06 9.28535e-05 -1.6754e-05)
(3.57281e-06 9.1128e-05 -1.20544e-05)
(3.51374e-06 8.94185e-05 -7.55975e-06)
(3.46051e-06 8.77039e-05 -2.9925e-06)
(7.7529e-05 3.02292e-06 -2.00555e-05)
(7.59686e-05 2.97306e-06 -1.41696e-05)
(7.45131e-05 2.92377e-06 -8.53565e-06)
(7.31404e-05 2.88222e-06 -2.81987e-06)
(7.70256e-05 9.06847e-06 -2.00469e-05)
(7.54716e-05 8.90191e-06 -1.41603e-05)
(7.40228e-05 8.74638e-06 -8.52553e-06)
(7.26568e-05 8.6025e-06 -2.80967e-06)
(7.60423e-05 1.50587e-05 -2.00413e-05)
(7.45043e-05 1.47745e-05 -1.41534e-05)
(7.30713e-05 1.45103e-05 -8.5178e-06)
(7.17212e-05 1.42635e-05 -2.80125e-06)
(7.45838e-05 2.09533e-05 -2.00379e-05)
(7.30718e-05 2.05522e-05 -1.41483e-05)
(7.16635e-05 2.01791e-05 -8.51124e-06)
(7.03369e-05 1.983e-05 -2.79312e-06)
(7.26622e-05 2.67163e-05 -2.00359e-05)
(7.11856e-05 2.6199e-05 -1.41442e-05)
(6.98109e-05 2.57177e-05 -8.50527e-06)
(6.85162e-05 2.5267e-05 -2.78508e-06)
(7.02921e-05 3.23129e-05 -2.00345e-05)
(6.88607e-05 3.16807e-05 -1.41406e-05)
(6.75285e-05 3.10927e-05 -8.49967e-06)
(6.62742e-05 3.05416e-05 -2.77721e-06)
(6.74911e-05 3.77103e-05 -2.00334e-05)
(6.61146e-05 3.69654e-05 -1.41373e-05)
(6.48342e-05 3.62727e-05 -8.4945e-06)
(6.36291e-05 3.5623e-05 -2.76982e-06)
(6.42791e-05 4.28773e-05 -2.00323e-05)
(6.29676e-05 4.20229e-05 -1.41344e-05)
(6.17481e-05 4.12284e-05 -8.48997e-06)
(6.06008e-05 4.04829e-05 -2.76337e-06)
(6.06782e-05 4.77848e-05 -2.0031e-05)
(5.94414e-05 4.68251e-05 -1.4132e-05)
(5.82918e-05 4.59329e-05 -8.48648e-06)
(5.72108e-05 4.50951e-05 -2.75849e-06)
(5.67118e-05 5.2405e-05 -2.003e-05)
(5.55593e-05 5.13456e-05 -1.41305e-05)
(5.44882e-05 5.03607e-05 -8.48452e-06)
(5.34815e-05 4.94355e-05 -2.75582e-06)