/*--------------------------------*- C++ -*----------------------------------*\
| =========                 |                                                 |
| \\      /  F ield         | foam-extend: Open Source CFD                    |
|  \\    /   O peration     | Version:     3.1                                |
|   \\  /    A nd           | Web:         http://www.extend-project.de       |
|    \\/     M anipulation  |                                                 |
\*---------------------------------------------------------------------------*/
FoamFile
{
    version     2.0;
    format      ascii;
    class       volSymmTensorField;
    location    "0.0017";
    object      epsilon;
}
// * * * * * * * * * * * * * * * * * * * * * * * * * * * * * * * * * * * * * //

dimensions      [0 0 0 0 0 0 0];

internalField   nonuniform List<symmTensor> 
6400
(
(-0.00458099 -0.000293683 0.0084603 0.001926 0.000188089 0.0164937)
(-0.00245012 -0.000185267 0.00908579 0.00168725 0.000251039 0.00582092)
(-0.000683025 -9.49842e-05 0.00857069 0.00154892 0.000233142 -0.0031511)
(0.0011372 -4.47811e-06 0.00701213 0.00149589 0.000142838 -0.0133669)
(-0.00446635 -0.000760482 0.00841085 0.00189273 0.000976137 0.016317)
(-0.00236903 -0.000484665 0.00901529 0.00166409 0.00105366 0.00568482)
(-0.000623231 -0.000261301 0.00849225 0.00154577 0.000994303 -0.00329127)
(0.00118424 -4.04599e-05 0.00692467 0.0015185 0.000809929 -0.0135562)
(-0.00430425 -0.00124767 0.00830264 0.00172693 0.00163952 0.0163101)
(-0.00226525 -0.000791218 0.00889998 0.00156226 0.00176105 0.00568098)
(-0.000565238 -0.000424886 0.00838454 0.00148983 0.00166096 -0.00329363)
(0.0011981 -6.36376e-05 0.00683862 0.0015062 0.00135553 -0.013557)
(-0.00407077 -0.00170294 0.00814552 0.00149228 0.00228966 0.0163062)
(-0.00211732 -0.00108011 0.00873187 0.00141357 0.00245679 0.00567875)
(-0.000485618 -0.000579448 0.00822623 0.00140968 0.00231618 -0.00329456)
(0.00121036 -8.6003e-05 0.00670962 0.00149293 0.0018904 -0.0135565)
(-0.0037698 -0.00211626 0.00793883 0.00119021 0.00292397 0.0163046)
(-0.00192641 -0.00134254 0.00851049 0.00122171 0.00313624 0.00567824)
(-0.000383238 -0.000720178 0.00801771 0.0013064 0.00295608 -0.00329411)
(0.00122548 -0.000106742 0.00653953 0.00147683 0.00241242 -0.0135549)
(-0.00340824 -0.00247754 0.00768347 0.000827713 0.00353903 0.0163046)
(-0.00169697 -0.00157194 0.00823689 0.000991389 0.00379537 0.00567886)
(-0.000260203 -0.000843294 0.00775997 0.0011825 0.00357692 -0.00329281)
(0.00124352 -0.000124978 0.00632925 0.00145785 0.00291878 -0.0135526)
(-0.00299481 -0.00277798 0.00738085 0.000413513 0.00413137 0.0163057)
(-0.00143455 -0.00176269 0.00791258 0.000728225 0.00443033 0.00568021)
(-0.000119451 -0.000945676 0.00745446 0.00104098 0.00417501 -0.00329105)
(0.00126416 -0.000140154 0.00608 0.00143634 0.00340654 -0.0135502)
(-0.00253954 -0.00301028 0.00703272 -4.23248e-05 0.00469757 0.0163075)
(-0.00114549 -0.00191012 0.00753951 0.000438619 0.00503735 0.00568195)
(3.56218e-05 -0.00102476 0.00710304 0.000885287 0.00474677 -0.00328915)
(0.00128694 -0.000151838 0.00579336 0.00141279 0.00387276 -0.0135477)
(-0.00205341 -0.00316882 0.00664115 -0.000528694 0.00523437 0.0163098)
(-0.000836737 -0.00201059 0.00711998 0.000129645 0.00561286 0.00568374)
(0.000201239 -0.00107856 0.00670798 0.000719265 0.00528882 -0.00328743)
(0.00131131 -0.000159693 0.00547126 0.00138779 0.00431465 -0.0135457)
(-0.00154686 -0.00325014 0.00620878 -0.00103381 0.0057389 0.0163116)
(-0.000515819 -0.00206159 0.00665693 -0.000191026 0.00615361 0.00568499)
(0.000373189 -0.00110574 0.00627202 0.000547183 0.00579809 -0.00328635)
(0.00133656 -0.000163576 0.00511595 0.00136216 0.00472973 -0.0135445)
(-0.00103381 -0.00325014 0.0057389 -0.00154686 0.00620878 0.0163116)
(-0.000191025 -0.00206159 0.00615361 -0.000515819 0.00665692 0.00568499)
(0.000547184 -0.00110574 0.0057981 0.000373188 0.00627202 -0.00328635)
(0.00136216 -0.000163576 0.00472973 0.00133656 0.00511595 -0.0135445)
(-0.000528693 -0.00316882 0.00523437 -0.00205341 0.00664115 0.0163098)
(0.000129646 -0.00201059 0.00561286 -0.000836738 0.00711998 0.00568374)
(0.000719266 -0.00107856 0.00528882 0.000201238 0.00670798 -0.00328743)
(0.00138779 -0.000159693 0.00431465 0.00131131 0.00547126 -0.0135457)
(-4.23244e-05 -0.00301028 0.00469757 -0.00253954 0.00703273 0.0163075)
(0.00043862 -0.00191012 0.00503735 -0.00114549 0.00753951 0.00568195)
(0.000885288 -0.00102476 0.00474678 3.5621e-05 0.00710304 -0.00328914)
(0.00141279 -0.000151838 0.00387276 0.00128694 0.00579336 -0.0135477)
(0.000413513 -0.00277798 0.00413137 -0.00299482 0.00738085 0.0163057)
(0.000728226 -0.00176269 0.00443033 -0.00143455 0.00791258 0.00568022)
(0.00104098 -0.000945676 0.00417501 -0.000119452 0.00745446 -0.00329105)
(0.00143634 -0.000140154 0.00340654 0.00126416 0.00608 -0.0135502)
(0.000827714 -0.00247754 0.00353903 -0.00340824 0.00768348 0.0163046)
(0.00099139 -0.00157194 0.00379537 -0.00169697 0.00823689 0.00567887)
(0.0011825 -0.000843294 0.00357692 -0.000260204 0.00775997 -0.00329281)
(0.00145785 -0.000124978 0.00291878 0.00124352 0.00632925 -0.0135526)
(0.00119021 -0.00211627 0.00292397 -0.0037698 0.00793883 0.0163046)
(0.00122171 -0.00134254 0.00313624 -0.00192641 0.00851049 0.00567824)
(0.0013064 -0.000720178 0.00295608 -0.000383239 0.00801771 -0.00329411)
(0.00147683 -0.000106742 0.00241242 0.00122548 0.00653953 -0.0135549)
(0.00149228 -0.00170294 0.00228966 -0.00407078 0.00814552 0.0163062)
(0.00141358 -0.00108011 0.00245679 -0.00211732 0.00873187 0.00567876)
(0.00140968 -0.000579448 0.00231618 -0.000485619 0.00822623 -0.00329455)
(0.00149293 -8.60034e-05 0.00189041 0.00121036 0.00670962 -0.0135565)
(0.00172693 -0.00124767 0.00163953 -0.00430425 0.00830264 0.0163101)
(0.00156226 -0.000791218 0.00176105 -0.00226525 0.00889998 0.00568099)
(0.00148984 -0.000424887 0.00166096 -0.000565239 0.00838454 -0.00329363)
(0.0015062 -6.36379e-05 0.00135553 0.0011981 0.00683862 -0.013557)
(0.00189273 -0.000760482 0.000976137 -0.00446636 0.00841085 0.016317)
(0.00166409 -0.000484665 0.00105366 -0.00236903 0.00901529 0.00568483)
(0.00154577 -0.000261301 0.000994304 -0.000623232 0.00849225 -0.00329127)
(0.00151851 -4.046e-05 0.00080993 0.00118423 0.00692467 -0.0135562)
(0.001926 -0.000293683 0.000188089 -0.00458099 0.0084603 0.0164937)
(0.00168725 -0.000185267 0.000251039 -0.00245012 0.00908579 0.00582093)
(0.00154892 -9.49842e-05 0.000233142 -0.000683026 0.00857069 -0.00315109)
(0.00149589 -4.47816e-06 0.000142839 0.0011372 0.00701213 -0.0133669)
(-0.00850782 -0.000655106 0.00366873 0.00639714 -0.000149097 0.00625434)
(-0.00540385 -0.000490624 0.00683284 0.00580435 2.72257e-05 0.00272336)
(-0.00255119 -0.00033652 0.0066966 0.00538352 2.37642e-05 -0.00155391)
(0.000105284 -0.000195909 0.0034849 0.00511218 -0.000145518 -0.0052278)
(-0.00828444 -0.00174303 0.00369401 0.0062923 0.000435217 0.00620823)
(-0.00521841 -0.00131294 0.00678799 0.00570486 0.000803745 0.00265006)
(-0.00240206 -0.00092797 0.00660873 0.00531466 0.00078542 -0.00163148)
(0.000222208 -0.000582443 0.0033617 0.00507677 0.000406649 -0.00528668)
(-0.00791771 -0.00286255 0.00364901 0.00591654 0.000724616 0.00620257)
(-0.0049407 -0.00214567 0.00670264 0.00543229 0.00133401 0.00264222)
(-0.00220274 -0.00151529 0.00652495 0.0051208 0.00130125 -0.00163928)
(0.000350999 -0.000952127 0.00331926 0.0049518 0.000667107 -0.00529276)
(-0.00738282 -0.00390757 0.00358008 0.00538035 0.00100934 0.0062008)
(-0.00454037 -0.00292942 0.00657618 0.00503138 0.00185587 0.00264015)
(-0.00191973 -0.00206797 0.00640176 0.00483788 0.00180874 -0.001641)
(0.000529015 -0.00129894 0.00325641 0.00477317 0.000924384 -0.00529377)
(-0.00669253 -0.00485633 0.00348886 0.00468836 0.00128747 0.00620067)
(-0.00402292 -0.00364126 0.0064093 0.00451263 0.00236598 0.0026402)
(-0.00155457 -0.0025705 0.00623938 0.0044716 0.00230493 -0.00164054)
(0.000758259 -0.00161455 0.00317368 0.00454281 0.00117613 -0.00529284)
(-0.00586291 -0.00568562 0.003376 0.00385714 0.00155733 0.00620147)
(-0.00340076 -0.00426356 0.00620299 0.00388903 0.0028613 0.00264126)
(-0.00111544 -0.00300998 0.00603873 0.00403111 0.00278684 -0.00163913)
(0.00103382 -0.00189063 0.00307159 0.00426588 0.00142075 -0.00529107)
(-0.0049141 -0.00637524 0.00324216 0.00290695 0.0018172 0.0062028)
(-0.00268898 -0.00478103 0.00595848 0.00317596 0.00333875 0.0026428)
(-0.000612949 -0.00337542 0.00580098 0.00352731 0.00325148 -0.00163733)
(0.00134916 -0.00212015 0.00295073 0.00394913 0.00165669 -0.00528902)
(-0.00386912 -0.00690844 0.00308819 0.00186105 0.00206541 0.00620436)
(-0.00190489 -0.00518097 0.00567726 0.00239093 0.00379532 0.00264446)
(-5.93387e-05 -0.00365773 0.00552758 0.00297261 0.00369589 -0.00163552)
(0.00169659 -0.00229734 0.00281184 0.00360037 0.00188237 -0.0052871)
(-0.00275328 -0.00727234 0.00291511 0.000745015 0.0023003 0.00620575)
(-0.00106742 -0.00545348 0.00536116 0.00155322 0.00422811 0.00264589)
(0.000531834 -0.00384982 0.00522031 0.00238076 0.00411727 -0.00163405)
(0.00206756 -0.00241772 0.00265586 0.00322828 0.00209629 -0.0052856)
(-0.00159102 -0.00745877 0.0027251 -0.00041407 0.00252024 0.00620658)
(-0.000197126 -0.00559173 0.00501271 0.000683623 0.00463449 0.00264671)
(0.00114564 -0.00394695 0.00488139 0.0017668 0.00451309 -0.00163321)
(0.00245264 -0.00247843 0.00248394 0.00284251 0.00229713 -0.00528477)
(-0.000414069 -0.00745877 0.00252024 -0.00159102 0.00272509 0.00620658)
(0.000683625 -0.00559173 0.0046345 -0.000197128 0.00501271 0.00264671)
(0.0017668 -0.00394695 0.00451309 0.00114564 0.00488139 -0.00163321)
(0.00284251 -0.00247843 0.00229713 0.00245264 0.00248393 -0.00528477)
(0.000745016 -0.00727234 0.0023003 -0.00275328 0.00291511 0.00620576)
(0.00155322 -0.00545348 0.00422811 -0.00106742 0.00536116 0.00264589)
(0.00238077 -0.00384982 0.00411727 0.000531832 0.00522031 -0.00163405)
(0.00322828 -0.00241772 0.00209629 0.00206756 0.00265586 -0.00528559)
(0.00186105 -0.00690844 0.00206541 -0.00386912 0.00308819 0.00620436)
(0.00239094 -0.00518097 0.00379533 -0.00190489 0.00567726 0.00264447)
(0.00297261 -0.00365773 0.00369589 -5.934e-05 0.00552758 -0.00163552)
(0.00360037 -0.00229734 0.00188237 0.00169659 0.00281184 -0.0052871)
(0.00290695 -0.00637524 0.0018172 -0.0049141 0.00324216 0.00620281)
(0.00317596 -0.00478103 0.00333876 -0.00268898 0.00595848 0.0026428)
(0.00352731 -0.00337542 0.00325148 -0.00061295 0.00580098 -0.00163733)
(0.00394913 -0.00212015 0.00165669 0.00134916 0.00295073 -0.00528902)
(0.00385714 -0.00568562 0.00155733 -0.00586291 0.003376 0.00620147)
(0.00388903 -0.00426356 0.0028613 -0.00340076 0.00620299 0.00264126)
(0.00403111 -0.00300998 0.00278684 -0.00111544 0.00603873 -0.00163913)
(0.00426588 -0.00189063 0.00142076 0.00103382 0.00307159 -0.00529107)
(0.00468837 -0.00485633 0.00128747 -0.00669253 0.00348886 0.00620068)
(0.00451263 -0.00364126 0.00236598 -0.00402293 0.0064093 0.00264021)
(0.0044716 -0.0025705 0.00230493 -0.00155457 0.00623938 -0.00164054)
(0.00454281 -0.00161456 0.00117613 0.000758257 0.00317368 -0.00529284)
(0.00538036 -0.00390757 0.00100934 -0.00738282 0.00358008 0.0062008)
(0.00503139 -0.00292942 0.00185587 -0.00454037 0.00657618 0.00264015)
(0.00483788 -0.00206797 0.00180874 -0.00191973 0.00640176 -0.00164099)
(0.00477317 -0.00129894 0.000924386 0.000529013 0.00325641 -0.00529376)
(0.00591654 -0.00286255 0.000724616 -0.00791771 0.00364901 0.00620258)
(0.0054323 -0.00214567 0.00133401 -0.00494071 0.00670264 0.00264223)
(0.0051208 -0.00151529 0.00130126 -0.00220274 0.00652495 -0.00163928)
(0.0049518 -0.000952128 0.000667109 0.000350996 0.00331926 -0.00529275)
(0.0062923 -0.00174303 0.000435217 -0.00828444 0.00369401 0.00620824)
(0.00570486 -0.00131294 0.000803745 -0.00521841 0.00678799 0.00265007)
(0.00531466 -0.00092797 0.000785421 -0.00240207 0.00660873 -0.00163148)
(0.00507677 -0.000582443 0.00040665 0.000222205 0.0033617 -0.00528668)
(0.00639714 -0.000655106 -0.000149097 -0.00850782 0.00366873 0.00625435)
(0.00580435 -0.000490624 2.72258e-05 -0.00540385 0.00683284 0.00272336)
(0.00538353 -0.00033652 2.37643e-05 -0.00255119 0.0066966 -0.0015539)
(0.00511218 -0.000195909 -0.000145518 0.000105281 0.0034849 -0.00522779)
(-0.00764254 -0.000812608 0.0023159 0.0114905 -0.000229041 -0.000865104)
(-0.00628416 -0.000723855 0.00402179 0.0106591 -0.000135674 -0.000706554)
(-0.00476255 -0.000622632 0.00391679 0.00995586 -0.000139234 -0.000931204)
(-0.00365809 -0.000541836 0.0020638 0.00937059 -0.000233754 -0.00080343)
(-0.00740665 -0.00223822 0.00231155 0.0113087 0.000268262 -0.000857431)
(-0.00605578 -0.00198461 0.00398349 0.0104631 0.000466723 -0.000709488)
(-0.00455889 -0.00172167 0.00385084 0.0097724 0.000453635 -0.000934584)
(-0.00348428 -0.0015179 0.00198412 0.00918953 0.000238843 -0.000795824)
(-0.00694281 -0.00367866 0.00228241 0.0108329 0.00045254 -0.000857634)
(-0.00564269 -0.00324796 0.00393312 0.010053 0.000782646 -0.000709874)
(-0.00419856 -0.00281758 0.00380182 0.00941549 0.000759191 -0.000935048)
(-0.00316563 -0.00249181 0.00196001 0.00887491 0.000396459 -0.000796595)
(-0.0062571 -0.0050228 0.002239 0.0101467 0.000632119 -0.000857862)
(-0.00503819 -0.00443515 0.00385865 0.00944827 0.00109072 -0.000710274)
(-0.00367379 -0.00384702 0.00372995 0.0088914 0.0010567 -0.000935469)
(-0.00270161 -0.0034027 0.00192278 0.00841129 0.000549794 -0.000797077)
(-0.00537039 -0.00624318 0.00218161 0.00925898 0.000806742 -0.000857528)
(-0.00425534 -0.00551329 0.00376041 0.00866477 0.00139068 -0.000709958)
(-0.00299481 -0.00478236 0.00363509 0.00821206 0.0013463 -0.000935083)
(-0.00210104 -0.0042302 0.00187367 0.00781058 0.000698723 -0.000796672)
(-0.004304 -0.00730991 0.00211059 0.00819148 0.000975752 -0.000856693)
(-0.00331349 -0.00645582 0.003639 0.00772203 0.00168139 -0.00070907)
(-0.00217784 -0.00560015 0.00351793 0.00739434 0.001627 -0.000934078)
(-0.00137847 -0.00495367 0.0018132 0.00708742 0.000842903 -0.000795592)
(-0.00308399 -0.00819697 0.0020264 0.00697051 0.00113823 -0.000855563)
(-0.00223571 -0.00723958 0.00349519 0.00664339 0.00196132 -0.000707875)
(-0.00124284 -0.00628015 0.00337923 0.00645851 0.00189736 -0.000932768)
(-0.000551534 -0.00555514 0.00174177 0.00625966 0.000981693 -0.000794203)
(-0.00174013 -0.00888276 0.00192962 0.00562615 0.00129312 -0.000854376)
(-0.00104831 -0.00784531 0.00332992 0.00545543 0.00222875 -0.000706649)
(-0.000212703 -0.00680548 0.00321989 0.00542766 0.00215575 -0.000931459)
(0.000359478 -0.00601962 0.00165986 0.00534779 0.00111429 -0.000792841)
(-0.00030507 -0.0093507 0.00182106 0.00419139 0.00143927 -0.000853391)
(0.000219854 -0.00825799 0.0031444 0.00418742 0.00248194 -0.000705653)
(0.000887238 -0.00716303 0.00304104 0.00432736 0.00240053 -0.000930416)
(0.00133205 -0.00633551 0.00156808 0.0043744 0.00123984 -0.000791779)
(0.00118873 -0.00958992 0.00170255 0.00270117 0.00157558 -0.000852838)
(0.00153743 -0.00846724 0.00294037 0.00287086 0.00271937 -0.000705099)
(0.00202937 -0.00734391 0.00284408 0.00318528 0.00263029 -0.000929841)
(0.00234184 -0.00649516 0.00146713 0.00336408 0.0013576 -0.000791203)
(0.00270117 -0.00958992 0.00157558 0.00118873 0.00170255 -0.000852838)
(0.00287086 -0.00846724 0.00271937 0.00153743 0.00294037 -0.000705099)
(0.00318528 -0.00734391 0.00263029 0.00202937 0.00284408 -0.00092984)
(0.00336408 -0.00649516 0.0013576 0.00234183 0.00146713 -0.000791203)
(0.00419139 -0.0093507 0.00143927 -0.00030507 0.00182106 -0.000853391)
(0.00418743 -0.00825799 0.00248194 0.000219853 0.0031444 -0.000705652)
(0.00432736 -0.00716303 0.00240053 0.000887237 0.00304104 -0.000930415)
(0.0043744 -0.00633551 0.00123984 0.00133205 0.00156807 -0.000791778)
(0.00562615 -0.00888276 0.00129312 -0.00174013 0.00192962 -0.000854375)
(0.00545544 -0.00784531 0.00222875 -0.00104831 0.00332992 -0.000706647)
(0.00542766 -0.00680548 0.00215575 -0.000212704 0.00321989 -0.000931457)
(0.00534779 -0.00601962 0.00111429 0.000359478 0.00165986 -0.000792839)
(0.00697051 -0.00819697 0.00113823 -0.00308399 0.0020264 -0.000855562)
(0.0066434 -0.00723958 0.00196132 -0.00223571 0.00349519 -0.000707874)
(0.00645851 -0.00628015 0.00189736 -0.00124284 0.00337923 -0.000932766)
(0.00625967 -0.00555514 0.000981696 -0.000551536 0.00174176 -0.0007942)
(0.00819148 -0.00730991 0.000975752 -0.00430399 0.00211059 -0.000856692)
(0.00772204 -0.00645582 0.00168139 -0.00331349 0.003639 -0.000709068)
(0.00739435 -0.00560015 0.00162701 -0.00217784 0.00351793 -0.000934075)
(0.00708742 -0.00495367 0.000842905 -0.00137848 0.00181319 -0.000795589)
(0.00925899 -0.00624318 0.000806741 -0.00537039 0.00218161 -0.000857526)
(0.00866477 -0.0055133 0.00139068 -0.00425534 0.00376041 -0.000709955)
(0.00821207 -0.00478236 0.0013463 -0.00299481 0.00363509 -0.00093508)
(0.00781059 -0.0042302 0.000698725 -0.00210105 0.00187367 -0.000796668)
(0.0101467 -0.0050228 0.000632119 -0.00625709 0.002239 -0.000857861)
(0.00944827 -0.00443515 0.00109072 -0.00503819 0.00385865 -0.000710271)
(0.00889141 -0.00384702 0.0010567 -0.00367379 0.00372995 -0.000935465)
(0.00841129 -0.0034027 0.000549796 -0.00270161 0.00192278 -0.000797072)
(0.0108329 -0.00367866 0.000452539 -0.00694281 0.00228241 -0.000857632)
(0.010053 -0.00324796 0.000782646 -0.00564269 0.00393312 -0.000709871)
(0.00941549 -0.00281758 0.000759192 -0.00419856 0.00380182 -0.000935044)
(0.00887492 -0.00249181 0.000396461 -0.00316563 0.00196001 -0.00079659)
(0.0113087 -0.00223822 0.000268261 -0.00740665 0.00231155 -0.000857429)
(0.0104631 -0.00198461 0.000466723 -0.00605578 0.00398349 -0.000709485)
(0.00977241 -0.00172167 0.000453636 -0.00455889 0.00385084 -0.00093458)
(0.00918954 -0.0015179 0.000238844 -0.00348428 0.00198412 -0.000795819)
(0.0114905 -0.000812608 -0.000229041 -0.00764253 0.0023159 -0.000865102)
(0.0106591 -0.000723855 -0.000135675 -0.00628415 0.00402179 -0.000706551)
(0.00995587 -0.000622632 -0.000139234 -0.00476255 0.00391679 -0.000931199)
(0.0093706 -0.000541836 -0.000233753 -0.0036581 0.0020638 -0.000803424)
(-0.0075527 -0.000993536 0.00126325 0.0162145 -0.000237559 -0.0055194)
(-0.00708635 -0.000938608 0.00212163 0.0151458 -0.000190002 -0.00316894)
(-0.00655634 -0.000875677 0.00203852 0.0141871 -0.00019293 -0.00106489)
(-0.00631326 -0.000822361 0.00105762 0.0133352 -0.000241445 0.00124508)
(-0.00727596 -0.00278021 0.00125051 0.0159624 0.000141369 -0.00547978)
(-0.00681602 -0.00260434 0.00209005 0.0148723 0.000241695 -0.00313361)
(-0.00630312 -0.00242761 0.00199356 0.0139132 0.000232589 -0.00102792)
(-0.00607591 -0.0022875 0.00100688 0.0130428 0.000120676 0.00128997)
(-0.00670293 -0.00456899 0.00123443 0.015375 0.000242655 -0.00547659)
(-0.0062788 -0.00426535 0.00206309 0.014333 0.000409294 -0.00312997)
(-0.00580071 -0.00397519 0.00196813 0.0134089 0.000392927 -0.00102424)
(-0.00559918 -0.00375937 0.000994863 0.0125695 0.000202525 0.00129309)
(-0.0058526 -0.00623921 0.00121051 0.0145238 0.000341241 -0.00547507)
(-0.00548592 -0.00582493 0.00202363 0.0135387 0.000572517 -0.00312827)
(-0.00506113 -0.00542857 0.00193072 0.0126688 0.000548604 -0.00102252)
(-0.00490005 -0.00513489 0.00097574 0.0118698 0.000281838 0.00129465)
(-0.00475161 -0.00775586 0.00117902 0.0134219 0.000436689 -0.00547406)
(-0.0044581 -0.00724128 0.00197171 0.0125101 0.000730819 -0.00312715)
(-0.00410321 -0.00674879 0.00188129 0.0117104 0.000699426 -0.00102131)
(-0.00399393 -0.00638396 0.00095044 0.0109634 0.000358201 0.00129587)
(-0.00342694 -0.00908167 0.00114009 0.0120965 0.000528656 -0.00547314)
(-0.00322118 -0.00847952 0.00190765 0.0112726 0.000883752 -0.00312611)
(-0.00295036 -0.00790302 0.00182033 0.010557 0.000845063 -0.00102014)
(-0.00290343 -0.00747591 0.000919452 0.00987248 0.000431546 0.00129712)
(-0.00191113 -0.0101842 0.00109399 0.0105801 0.000616685 -0.00547223)
(-0.00180555 -0.00950923 0.00183187 0.00985643 0.00103061 -0.00312508)
(-0.00163086 -0.00886278 0.00174833 0.00923701 0.000984922 -0.00101896)
(-0.00165531 -0.00838375 0.000883079 0.00862388 0.00050172 0.00129841)
(-0.000241276 -0.0110365 0.0010411 0.00891006 0.000700179 -0.00547139)
(-0.000245835 -0.010305 0.00174494 0.00829651 0.00117054 -0.00312414)
(-0.000177071 -0.00960429 0.00166581 0.00778284 0.00111825 -0.00101789)
(-0.000280282 -0.00908494 0.000841612 0.00724831 0.000568439 0.00129958)
(0.0015419 -0.0116179 0.000981998 0.00712747 0.000778429 -0.00547073)
(0.00141988 -0.0108472 0.00164761 0.00663122 0.00130261 -0.00312342)
(0.00137522 -0.0101091 0.00157343 0.00623046 0.00124424 -0.00101708)
(0.00118769 -0.009562 0.000795404 0.00577978 0.00063135 0.00130046)
(0.0033973 -0.0119146 0.000918199 0.00527581 0.000850784 -0.00547036)
(0.0031504 -0.011122 0.00154104 0.00490187 0.00142609 -0.00312303)
(0.00298717 -0.0103645 0.00147204 0.00461871 0.00136225 -0.00101664)
(0.00271197 -0.00980324 0.000744849 0.00425509 0.00069017 0.00130094)
(0.00527581 -0.0119146 0.000850783 0.0033973 0.000918199 -0.00547036)
(0.00490187 -0.011122 0.00142609 0.0031504 0.00154104 -0.00312303)
(0.00461871 -0.0103645 0.00136225 0.00298717 0.00147203 -0.00101664)
(0.00425509 -0.00980324 0.000690172 0.00271197 0.000744847 0.00130094)
(0.00712747 -0.0116179 0.000778428 0.0015419 0.000981997 -0.00547073)
(0.00663122 -0.0108472 0.00130261 0.00141988 0.00164761 -0.00312342)
(0.00623046 -0.0101091 0.00124424 0.00137522 0.00157343 -0.00101708)
(0.00577978 -0.009562 0.000631352 0.00118769 0.000795402 0.00130046)
(0.00891006 -0.0110365 0.000700178 -0.000241274 0.0010411 -0.00547139)
(0.00829651 -0.010305 0.00117054 -0.000245834 0.00174494 -0.00312414)
(0.00778285 -0.00960429 0.00111825 -0.000177071 0.00166581 -0.00101789)
(0.00724831 -0.00908494 0.00056844 -0.000280282 0.00084161 0.00129958)
(0.0105801 -0.0101842 0.000616684 -0.00191112 0.00109399 -0.00547223)
(0.00985643 -0.00950923 0.00103061 -0.00180554 0.00183187 -0.00312508)
(0.00923701 -0.00886278 0.000984923 -0.00163086 0.00174833 -0.00101896)
(0.00862388 -0.00838375 0.000501722 -0.00165531 0.000883077 0.00129841)
(0.0120965 -0.00908167 0.000528655 -0.00342693 0.00114009 -0.00547314)
(0.0112726 -0.00847952 0.000883751 -0.00322118 0.00190765 -0.00312611)
(0.010557 -0.00790302 0.000845063 -0.00295036 0.00182033 -0.00102014)
(0.00987248 -0.00747591 0.000431547 -0.00290343 0.000919451 0.00129712)
(0.0134219 -0.00775586 0.000436688 -0.00475161 0.00117902 -0.00547406)
(0.0125101 -0.00724128 0.000730818 -0.00445809 0.00197171 -0.00312715)
(0.0117104 -0.00674879 0.000699426 -0.0041032 0.00188128 -0.00102131)
(0.0109634 -0.00638396 0.000358202 -0.00399393 0.000950438 0.00129587)
(0.0145238 -0.00623921 0.00034124 -0.0058526 0.00121051 -0.00547507)
(0.0135387 -0.00582493 0.000572517 -0.00548591 0.00202362 -0.00312827)
(0.0126688 -0.00542857 0.000548604 -0.00506113 0.00193072 -0.00102252)
(0.0118698 -0.00513489 0.000281838 -0.00490005 0.000975738 0.00129465)
(0.015375 -0.00456899 0.000242654 -0.00670293 0.00123443 -0.0054766)
(0.014333 -0.00426535 0.000409293 -0.0062788 0.00206309 -0.00312997)
(0.0134089 -0.0039752 0.000392927 -0.00580071 0.00196813 -0.00102424)
(0.0125695 -0.00375937 0.000202526 -0.00559918 0.000994862 0.00129309)
(0.0159624 -0.00278021 0.000141368 -0.00727595 0.00125051 -0.00547978)
(0.0148723 -0.00260434 0.000241695 -0.00681601 0.00209005 -0.00313361)
(0.0139132 -0.00242761 0.000232589 -0.00630312 0.00199356 -0.00102791)
(0.0130428 -0.0022875 0.000120676 -0.00607591 0.00100687 0.00128997)
(0.0162146 -0.000993536 -0.000237559 -0.0075527 0.00126325 -0.0055194)
(0.0151458 -0.000938608 -0.000190003 -0.00708634 0.00212163 -0.00316894)
(0.0141871 -0.000875677 -0.00019293 -0.00655634 0.00203852 -0.00106489)
(0.0133352 -0.000822362 -0.000241445 -0.00631327 0.00105762 0.00124508)
(-0.00792436 -0.00116003 0.000561204 0.0200062 -0.000198552 -0.00818878)
(-0.00788148 -0.00111822 0.000913072 0.0187348 -0.000178143 -0.00476277)
(-0.00784006 -0.00107081 0.000862001 0.0175724 -0.000179692 -0.0015055)
(-0.00800745 -0.00102702 0.00042984 0.0165193 -0.000199915 0.00185447)
(-0.00760484 -0.00326761 0.000547618 0.0197002 5.87399e-05 -0.00813484)
(-0.00756946 -0.00311854 0.000890498 0.0184036 0.000101027 -0.00470999)
(-0.00754233 -0.00297447 0.00083388 0.0172344 9.64526e-05 -0.00145027)
(-0.00771831 -0.00285483 0.000400372 0.016151 4.86645e-05 0.00191561)
(-0.00693243 -0.00536923 0.000540619 0.0190119 0.000103783 -0.00813062)
(-0.00692794 -0.0051084 0.000878675 0.0177576 0.000173245 -0.00470535)
(-0.00692854 -0.00487178 0.000822946 0.0166161 0.000164649 -0.0014455)
(-0.00712418 -0.00469322 0.000395502 0.0155606 8.24056e-05 0.00192007)
(-0.00593379 -0.00733207 0.000529904 0.0180121 0.000148003 -0.0081282)
(-0.00597859 -0.00697614 0.00086153 0.0168059 0.000243849 -0.00470261)
(-0.00602218 -0.00665334 0.000806967 0.0157083 0.0002309 -0.00144258)
(-0.00625155 -0.00641096 0.000387502 0.0146863 0.000115126 0.00192306)
(-0.00464021 -0.00911471 0.000515684 0.0167176 0.000190751 -0.00812677)
(-0.00474777 -0.00867248 0.000839 0.0155741 0.000312121 -0.00470085)
(-0.00484816 -0.0082715 0.000785874 0.0145334 0.000294766 -0.00144055)
(-0.00512036 -0.00797048 0.000376967 0.0135542 0.000146241 0.00192534)
(-0.00308351 -0.0106732 0.000498042 0.0151603 0.0002317 -0.00812584)
(-0.00326648 -0.0101556 0.000811252 0.0140921 0.000377758 -0.00469958)
(-0.00343527 -0.00968622 0.000759993 0.0131198 0.000356034 -0.00143894)
(-0.00375892 -0.00933378 0.000364263 0.0121921 0.00017563 0.00192726)
(-0.00130202 -0.0119693 0.00047714 0.0133784 0.000270562 -0.00812517)
(-0.00157107 -0.0113891 0.000778527 0.0123964 0.000440428 -0.00469856)
(-0.00181812 -0.0108626 0.000729605 0.0115022 0.000414465 -0.00143758)
(-0.00220068 -0.0104673 0.000349618 0.0106333 0.000203281 0.00192894)
(0.000660634 -0.0129712 0.000453228 0.0114158 0.000306975 -0.00812465)
(0.000296954 -0.0123424 0.000741142 0.0105283 0.000499728 -0.00469775)
(-3.63313e-05 -0.0117716 0.000695011 0.00972018 0.000469769 -0.00143648)
(-0.000483949 -0.0113429 0.000333228 0.00891609 0.000229155 0.00193034)
(0.0027565 -0.0136545 0.000426723 0.00932065 0.000340494 -0.00812429)
(0.00229195 -0.0129918 0.000699564 0.00853383 0.00055523 -0.00469718)
(0.00186623 -0.0123904 0.000656588 0.00781763 0.000521641 -0.00143569)
(0.00134889 -0.0119387 0.000315299 0.00708276 0.000253198 0.00193135)
(0.00493674 -0.0140029 0.000398944 0.00714418 0.000370736 -0.00812409)
(0.00436456 -0.013321 0.000654593 0.00646244 0.000606684 -0.00469688)
(0.00384206 -0.0127036 0.000614812 0.00584206 0.000569918 -0.00143527)
(0.00325221 -0.0122401 0.00029603 0.0051791 0.000275417 0.00193188)
(0.00714418 -0.0140028 0.000370735 0.00493674 0.000398944 -0.00812409)
(0.00646244 -0.013321 0.000606684 0.00436456 0.000654593 -0.00469688)
(0.00584206 -0.0127036 0.000569918 0.00384206 0.000614812 -0.00143527)
(0.0051791 -0.0122401 0.000275418 0.00325221 0.000296029 0.00193188)
(0.00932065 -0.0136545 0.000340493 0.0027565 0.000426723 -0.00812429)
(0.00853383 -0.0129918 0.00055523 0.00229195 0.000699563 -0.00469718)
(0.00781764 -0.0123904 0.000521641 0.00186623 0.000656587 -0.00143569)
(0.00708276 -0.0119387 0.000253198 0.00134889 0.000315299 0.00193135)
(0.0114158 -0.0129712 0.000306974 0.000660636 0.000453228 -0.00812465)
(0.0105283 -0.0123424 0.000499727 0.000296955 0.000741141 -0.00469775)
(0.00972018 -0.0117716 0.000469768 -3.63314e-05 0.00069501 -0.00143648)
(0.00891609 -0.0113429 0.000229156 -0.000483949 0.000333227 0.00193034)
(0.0133784 -0.0119693 0.000270561 -0.00130201 0.00047714 -0.00812517)
(0.0123964 -0.0113891 0.000440427 -0.00157107 0.000778526 -0.00469856)
(0.0115022 -0.0108626 0.000414464 -0.00181812 0.000729604 -0.00143759)
(0.0106333 -0.0104673 0.000203281 -0.00220068 0.000349617 0.00192894)
(0.0151603 -0.0106732 0.000231699 -0.00308351 0.000498041 -0.00812584)
(0.0140921 -0.0101556 0.000377757 -0.00326647 0.000811251 -0.00469958)
(0.0131199 -0.00968623 0.000356033 -0.00343527 0.000759991 -0.00143894)
(0.0121921 -0.00933379 0.00017563 -0.00375892 0.000364262 0.00192726)
(0.0167176 -0.00911471 0.00019075 -0.0046402 0.000515683 -0.00812677)
(0.0155741 -0.00867248 0.00031212 -0.00474777 0.000838998 -0.00470086)
(0.0145334 -0.0082715 0.000294766 -0.00484816 0.000785872 -0.00144055)
(0.0135542 -0.00797049 0.000146241 -0.00512036 0.000376966 0.00192533)
(0.0180122 -0.00733207 0.000148002 -0.00593378 0.000529903 -0.0081282)
(0.0168059 -0.00697614 0.000243848 -0.00597859 0.000861528 -0.00470261)
(0.0157083 -0.00665334 0.000230899 -0.00602217 0.000806965 -0.00144258)
(0.0146863 -0.00641096 0.000115126 -0.00625156 0.000387501 0.00192306)
(0.019012 -0.00536923 0.000103783 -0.00693242 0.000540617 -0.00813062)
(0.0177576 -0.0051084 0.000173244 -0.00692794 0.000878673 -0.00470535)
(0.0166161 -0.00487178 0.000164648 -0.00692854 0.000822944 -0.0014455)
(0.0155606 -0.00469322 8.24057e-05 -0.00712418 0.000395501 0.00192007)
(0.0197002 -0.00326761 5.87393e-05 -0.00760483 0.000547617 -0.00813484)
(0.0184036 -0.00311854 0.000101027 -0.00756946 0.000890496 -0.00471)
(0.0172344 -0.00297447 9.64523e-05 -0.00754233 0.000833877 -0.00145027)
(0.016151 -0.00285484 4.86646e-05 -0.00771831 0.000400371 0.00191561)
(0.0200062 -0.00116002 -0.000198553 -0.00792436 0.000561203 -0.00818879)
(0.0187348 -0.00111822 -0.000178143 -0.00788147 0.000913069 -0.00476277)
(0.0175724 -0.00107081 -0.000179693 -0.00784006 0.000861999 -0.0015055)
(0.0165193 -0.00102702 -0.000199915 -0.00800745 0.000429839 0.00185447)
(-0.0084047 -0.00128518 0.000132935 0.0226133 -0.000134426 -0.00947373)
(-0.00849858 -0.00124509 0.000196399 0.0211973 -0.000129704 -0.00566827)
(-0.00864014 -0.00120102 0.000173534 0.0198963 -0.000130021 -0.00198082)
(-0.00894535 -0.00115731 6.99682e-05 0.0187118 -0.000133637 0.00174378)
(-0.00805054 -0.00362918 0.000122463 0.0222723 9.66996e-06 -0.00941589)
(-0.00815392 -0.00348 0.000183042 0.0208288 1.90234e-05 -0.00560989)
(-0.00830938 -0.00334061 0.000159005 0.0195183 1.82363e-05 -0.00191975)
(-0.00862008 -0.00321926 5.61678e-05 0.0182981 8.70118e-06 0.00180931)
(-0.00730388 -0.00596299 0.000121047 0.0215094 1.99057e-05 -0.00941197)
(-0.00743845 -0.00570065 0.00018023 0.0201083 3.43958e-05 -0.0056056)
(-0.00762039 -0.00547169 0.000156442 0.0188241 3.23286e-05 -0.00191525)