/*--------------------------------*- C++ -*----------------------------------*\
| =========                 |                                                 |
| \\      /  F ield         | foam-extend: Open Source CFD                    |
|  \\    /   O peration     | Version:     3.1                                |
|   \\  /    A nd           | Web:         http://www.extend-project.de       |
|    \\/     M anipulation  |                                                 |
\*---------------------------------------------------------------------------*/
FoamFile
{
    version     2.0;
    format      ascii;
    class       pointVectorField;
    location    "0.0017";
    object      pointD;
}
// * * * * * * * * * * * * * * * * * * * * * * * * * * * * * * * * * * * * * //

dimensions      [0 1 0 0 0 0 0];

internalField   nonuniform List<vector> 
8505
(
(0 0 0)
(0 0 0)
(0 0 0)
(0 0 0)
(0 0 0)
(0 0 0)
(0 0 0)
(0 0 0)
(0 0 0)
(0 0 0)
(0 0 0)
(0 0 0)
(0 0 0)
(0 0 0)
(0 0 0)
(0 0 0)
(0 0 0)
(0 0 0)
(0 0 0)
(0 0 0)
(0 0 0)
(0 0 0)
(0 0 0)
(0 0 0)
(0 0 0)
(0 0 0)
(0 0 0)
(0 0 0)
(0 0 0)
(0 0 0)
(0 0 0)
(0 0 0)
(0 0 0)
(0 0 0)
(0 0 0)
(0 0 0)
(0 0 0)
(0 0 0)
(0 0 0)
(0 0 0)
(0 0 0)
(0 0 0)
(0 0 0)
(0 0 0)
(0 0 0)
(0 0 0)
(0 0 0)
(0 0 0)
(0 0 0)
(0 0 0)
(0 0 0)
(0 0 0)
(0 0 0)
(0 0 0)
(0 0 0)
(0 0 0)
(0 0 0)
(0 0 0)
(0 0 0)
(0 0 0)
(0 0 0)
(0 0 0)
(0 0 0)
(0 0 0)
(0 0 0)
(0 0 0)
(0 0 0)
(0 0 0)
(0 0 0)
(0 0 0)
(0 0 0)
(0 0 0)
(0 0 0)
(0 0 0)
(0 0 0)
(0 0 0)
(0 0 0)
(0 0 0)
(0 0 0)
(0 0 0)
(0 0 0)
(0 0 0)
(0 0 0)
(0 0 0)
(0 0 0)
(0 0 0)
(0 0 0)
(0 0 0)
(0 0 0)
(0 0 0)
(0 0 0)
(0 0 0)
(0 0 0)
(0 0 0)
(0 0 0)
(0 0 0)
(0 0 0)
(0 0 0)
(0 0 0)
(0 0 0)
(0 0 0)
(0 0 0)
(0 0 0)
(0 0 0)
(0 0 0)
(2.14221e-05 0 1.43156e-05)
(1.91084e-05 0 6.58018e-06)
(1.78653e-05 0 9.07278e-07)
(1.75073e-05 0 -4.63178e-06)
(1.80575e-05 0 -1.17904e-05)
(2.12674e-05 1.63925e-06 1.40597e-05)
(1.89936e-05 1.47398e-06 6.4039e-06)
(1.77821e-05 1.38281e-06 7.48729e-07)
(1.7454e-05 1.35769e-06 -4.81973e-06)
(1.80395e-05 1.40166e-06 -1.20731e-05)
(2.1057e-05 3.31611e-06 1.40527e-05)
(1.88079e-05 2.96375e-06 6.40049e-06)
(1.76108e-05 2.77749e-06 7.46569e-07)
(1.72894e-05 2.7286e-06 -4.82128e-06)
(1.78743e-05 2.82237e-06 -1.20734e-05)
(2.07253e-05 4.96273e-06 1.40485e-05)
(1.85122e-05 4.43371e-06 6.39795e-06)
(1.73343e-05 4.15341e-06 7.45067e-07)
(1.70184e-05 4.07961e-06 -4.82197e-06)
(1.75947e-05 4.21947e-06 -1.2073e-05)
(2.02682e-05 6.5762e-06 1.40465e-05)
(1.81041e-05 5.87487e-06 6.39683e-06)
(1.69523e-05 5.50264e-06 7.44655e-07)
(1.66433e-05 5.40407e-06 -4.82169e-06)
(1.7207e-05 5.58855e-06 -1.20717e-05)
(1.96873e-05 8.14759e-06 1.40458e-05)
(1.75852e-05 7.27864e-06 6.39671e-06)
(1.64663e-05 6.81698e-06 7.45003e-07)
(1.61662e-05 6.69425e-06 -4.8208e-06)
(1.67136e-05 6.92219e-06 -1.20701e-05)
(1.89856e-05 9.66771e-06 1.40461e-05)
(1.69582e-05 8.63662e-06 6.39724e-06)
(1.58791e-05 8.08847e-06 7.45814e-07)
(1.55896e-05 7.9424e-06 -4.8196e-06)
(1.61174e-05 8.21243e-06 -1.20683e-05)
(1.81673e-05 1.11275e-05 1.4047e-05)
(1.62269e-05 9.94068e-06 6.3982e-06)
(1.51941e-05 9.30944e-06 7.46876e-07)
(1.4917e-05 9.14092e-06 -4.81828e-06)
(1.54219e-05 9.45138e-06 -1.20664e-05)
(1.7237e-05 1.25184e-05 1.40485e-05)
(1.53956e-05 1.1183e-05 6.39939e-06)
(1.44156e-05 1.04725e-05 7.48003e-07)
(1.41526e-05 1.02826e-05 -4.81703e-06)
(1.46315e-05 1.06315e-05 -1.20648e-05)
(1.62005e-05 1.38323e-05 1.40503e-05)
(1.44694e-05 1.23563e-05 6.40059e-06)
(1.35483e-05 1.15708e-05 7.4896e-07)
(1.33012e-05 1.13605e-05 -4.81607e-06)
(1.37515e-05 1.17457e-05 -1.20636e-05)
(1.50627e-05 1.50627e-05 1.40513e-05)
(1.3454e-05 1.3454e-05 6.40116e-06)
(1.2598e-05 1.2598e-05 7.49362e-07)
(1.23686e-05 1.23686e-05 -4.8157e-06)
(1.27876e-05 1.27876e-05 -1.20631e-05)
(1.38323e-05 1.62005e-05 1.40503e-05)
(1.23563e-05 1.44694e-05 6.40059e-06)
(1.15708e-05 1.35483e-05 7.48961e-07)
(1.13605e-05 1.33012e-05 -4.81607e-06)
(1.17457e-05 1.37515e-05 -1.20636e-05)
(1.25184e-05 1.7237e-05 1.40485e-05)
(1.1183e-05 1.53956e-05 6.3994e-06)
(1.04725e-05 1.44156e-05 7.48005e-07)
(1.02826e-05 1.41525e-05 -4.81703e-06)
(1.06315e-05 1.46315e-05 -1.20648e-05)
(1.11275e-05 1.81673e-05 1.40471e-05)
(9.94068e-06 1.62269e-05 6.3982e-06)
(9.30945e-06 1.51941e-05 7.46879e-07)
(9.14093e-06 1.4917e-05 -4.81828e-06)
(9.45138e-06 1.54219e-05 -1.20664e-05)
(9.66771e-06 1.89856e-05 1.40461e-05)
(8.63662e-06 1.69582e-05 6.39725e-06)
(8.08848e-06 1.58791e-05 7.45818e-07)
(7.9424e-06 1.55896e-05 -4.8196e-06)
(8.21243e-06 1.61174e-05 -1.20683e-05)
(8.1476e-06 1.96873e-05 1.40458e-05)
(7.27864e-06 1.75852e-05 6.39672e-06)
(6.81698e-06 1.64663e-05 7.45007e-07)
(6.69426e-06 1.61662e-05 -4.8208e-06)
(6.9222e-06 1.67136e-05 -1.20701e-05)
(6.57621e-06 2.02682e-05 1.40465e-05)
(5.87487e-06 1.81041e-05 6.39684e-06)
(5.50264e-06 1.69523e-05 7.4466e-07)
(5.40407e-06 1.66433e-05 -4.82168e-06)
(5.58855e-06 1.7207e-05 -1.20717e-05)
(4.96273e-06 2.07253e-05 1.40486e-05)
(4.43371e-06 1.85123e-05 6.39796e-06)
(4.15341e-06 1.73343e-05 7.45072e-07)
(4.07961e-06 1.70184e-05 -4.82197e-06)
(4.21948e-06 1.75947e-05 -1.2073e-05)
(3.31612e-06 2.1057e-05 1.40527e-05)
(2.96375e-06 1.88079e-05 6.4005e-06)
(2.77749e-06 1.76108e-05 7.46575e-07)
(2.72861e-06 1.72894e-05 -4.82128e-06)
(2.82237e-06 1.78743e-05 -1.20734e-05)
(1.63925e-06 2.12674e-05 1.40597e-05)
(1.47398e-06 1.89936e-05 6.40391e-06)
(1.38281e-06 1.77821e-05 7.48735e-07)
(1.35769e-06 1.7454e-05 -4.81972e-06)
(1.40167e-06 1.80395e-05 -1.20731e-05)
(0 2.14221e-05 1.43156e-05)
(0 1.91084e-05 6.58019e-06)
(0 1.78653e-05 9.07285e-07)
(0 1.75073e-05 -4.63177e-06)
(0 1.80575e-05 -1.17904e-05)
(4.72746e-05 0 1.9116e-05)
(4.52997e-05 0 9.66396e-06)
(4.38082e-05 0 1.33232e-06)
(4.28604e-05 0 -6.89009e-06)
(4.23349e-05 0 -1.59856e-05)
(4.70626e-05 3.67511e-06 1.88331e-05)
(4.51008e-05 3.53671e-06 9.41051e-06)
(4.36299e-05 3.42679e-06 1.08302e-06)
(4.2702e-05 3.35818e-06 -7.16579e-06)
(4.21892e-05 3.32273e-06 -1.63158e-05)
(4.66146e-05 7.36482e-06 1.88227e-05)
(4.46704e-05 7.06263e-06 9.39985e-06)
(4.32153e-05 6.8374e-06 1.07291e-06)
(4.22986e-05 6.69668e-06 -7.17486e-06)
(4.17922e-05 6.62055e-06 -1.63209e-05)
(4.58842e-05 1.10008e-05 1.88172e-05)
(4.39709e-05 1.05456e-05 9.39514e-06)
(4.25385e-05 1.02059e-05 1.06916e-06)
(4.16364e-05 9.99325e-06 -7.17735e-06)
(4.11381e-05 9.87727e-06 -1.63216e-05)
(4.48737e-05 1.45677e-05 1.88147e-05)
(4.30025e-05 1.39631e-05 9.39355e-06)
(4.16016e-05 1.35114e-05 1.06846e-06)
(4.07193e-05 1.32281e-05 -7.17702e-06)
(4.02319e-05 1.30728e-05 -1.632e-05)
(4.3588e-05 1.80438e-05 1.88143e-05)
(4.17703e-05 1.72939e-05 9.39376e-06)
(4.04094e-05 1.67334e-05 1.06936e-06)
(3.95522e-05 1.63813e-05 -7.17531e-06)
(3.90787e-05 1.61877e-05 -1.63173e-05)
(4.20346e-05 2.14078e-05 1.88152e-05)
(4.02814e-05 2.05176e-05 9.39508e-06)
(3.89689e-05 1.98517e-05 1.07114e-06)
(3.81421e-05 1.94331e-05 -7.17293e-06)
(3.76852e-05 1.92026e-05 -1.63141e-05)
(4.02226e-05 2.46394e-05 1.88171e-05)
(3.85447e-05 2.36144e-05 9.39703e-06)
(3.72885e-05 2.28473e-05 1.07331e-06)
(3.64972e-05 2.23647e-05 -7.17036e-06)
(3.60599e-05 2.20988e-05 -1.63109e-05)
(3.81629e-05 2.77189e-05 1.88195e-05)
(3.65705e-05 2.65653e-05 9.39923e-06)
(3.53785e-05 2.57016e-05 1.07548e-06)
(3.46278e-05 2.51581e-05 -7.168e-06)
(3.42128e-05 2.48584e-05 -1.63082e-05)
(3.58679e-05 3.0628e-05 1.88221e-05)
(3.43709e-05 2.93525e-05 9.40118e-06)
(3.32508e-05 2.83974e-05 1.0772e-06)
(3.25454e-05 2.77962e-05 -7.16626e-06)
(3.21556e-05 2.74644e-05 -1.63062e-05)
(3.33504e-05 3.33504e-05 1.88233e-05)
(3.19597e-05 3.19597e-05 9.40202e-06)
(3.09189e-05 3.09188e-05 1.07788e-06)
(3.02635e-05 3.02635e-05 -7.16561e-06)
(2.99016e-05 2.99015e-05 -1.63054e-05)
(3.0628e-05 3.58679e-05 1.88221e-05)
(2.93525e-05 3.43709e-05 9.40118e-06)
(2.83975e-05 3.32508e-05 1.0772e-06)
(2.77962e-05 3.25454e-05 -7.16626e-06)
(2.74644e-05 3.21556e-05 -1.63062e-05)
(2.77189e-05 3.81629e-05 1.88195e-05)
(2.65653e-05 3.65705e-05 9.39924e-06)
(2.57016e-05 3.53785e-05 1.07549e-06)
(2.51581e-05 3.46278e-05 -7.16799e-06)
(2.48584e-05 3.42128e-05 -1.63082e-05)
(2.46394e-05 4.02226e-05 1.88171e-05)
(2.36144e-05 3.85447e-05 9.39704e-06)
(2.28473e-05 3.72885e-05 1.07332e-06)
(2.23647e-05 3.64972e-05 -7.17036e-06)
(2.20988e-05 3.60599e-05 -1.63109e-05)
(2.14078e-05 4.20346e-05 1.88152e-05)
(2.05176e-05 4.02815e-05 9.39508e-06)
(1.98517e-05 3.89689e-05 1.07114e-06)
(1.94331e-05 3.81421e-05 -7.17293e-06)
(1.92026e-05 3.76852e-05 -1.63141e-05)
(1.80438e-05 4.3588e-05 1.88143e-05)
(1.72939e-05 4.17703e-05 9.39377e-06)
(1.67334e-05 4.04094e-05 1.06937e-06)
(1.63813e-05 3.95523e-05 -7.1753e-06)
(1.61877e-05 3.90787e-05 -1.63173e-05)
(1.45677e-05 4.48737e-05 1.88147e-05)
(1.39631e-05 4.30025e-05 9.39356e-06)
(1.35114e-05 4.16016e-05 1.06847e-06)
(1.32281e-05 4.07193e-05 -7.17701e-06)
(1.30728e-05 4.02319e-05 -1.632e-05)
(1.10008e-05 4.58842e-05 1.88172e-05)
(1.05456e-05 4.39709e-05 9.39515e-06)
(1.02059e-05 4.25385e-05 1.06917e-06)
(9.99326e-06 4.16365e-05 -7.17734e-06)
(9.87728e-06 4.11381e-05 -1.63216e-05)
(7.36482e-06 4.66146e-05 1.88227e-05)
(7.06263e-06 4.46704e-05 9.39986e-06)
(6.8374e-06 4.32153e-05 1.07292e-06)
(6.69669e-06 4.22986e-05 -7.17485e-06)
(6.62055e-06 4.17922e-05 -1.63209e-05)
(3.67511e-06 4.70626e-05 1.88331e-05)
(3.53671e-06 4.51008e-05 9.41052e-06)
(3.42679e-06 4.36299e-05 1.08303e-06)
(3.35819e-06 4.2702e-05 -7.16578e-06)
(3.32273e-06 4.21892e-05 -1.63158e-05)
(0 4.72746e-05 1.9116e-05)
(0 4.52997e-05 9.66397e-06)
(0 4.38082e-05 1.33233e-06)
(0 4.28604e-05 -6.89008e-06)
(0 4.23349e-05 -1.59856e-05)
(7.33091e-05 0 1.83958e-05)
(7.14422e-05 0 9.29044e-06)
(6.97661e-05 0 8.27326e-07)
(6.83088e-05 0 -7.54383e-06)
(6.69877e-05 0 -1.63481e-05)
(7.30252e-05 5.72397e-06 1.81317e-05)
(7.11627e-05 5.5927e-06 9.03741e-06)
(6.94957e-05 5.46888e-06 5.7034e-07)
(6.80469e-05 5.36194e-06 -7.82024e-06)
(6.67308e-05 5.27132e-06 -1.6658e-05)
(7.23388e-05 1.14408e-05 1.81213e-05)
(7.04909e-05 1.11551e-05 9.0269e-06)
(6.88388e-05 1.09004e-05 5.60082e-07)
(6.74035e-05 1.06799e-05 -7.82926e-06)
(6.61002e-05 1.04806e-05 -1.66638e-05)
(7.12086e-05 1.708e-05 1.81155e-05)
(6.93894e-05 1.6649e-05 9.02178e-06)
(6.77624e-05 1.62643e-05 5.55786e-07)
(6.63491e-05 1.5931e-05 -7.83226e-06)
(6.50656e-05 1.56287e-05 -1.66652e-05)
(6.96416e-05 2.26131e-05 1.81131e-05)
(6.78621e-05 2.20399e-05 9.02017e-06)
(6.62705e-05 2.15279e-05 5.55065e-07)
(6.48879e-05 2.10838e-05 -7.83192e-06)
(6.36323e-05 2.06808e-05 -1.66637e-05)
(6.76468e-05 2.80062e-05 1.81131e-05)
(6.5918e-05 2.72947e-05 9.02076e-06)
(6.43717e-05 2.66588e-05 5.56417e-07)
(6.30284e-05 2.61068e-05 -7.82968e-06)
(6.18085e-05 2.56057e-05 -1.66604e-05)
(6.52361e-05 3.32263e-05 1.81146e-05)
(6.35686e-05 3.2381e-05 9.02273e-06)
(6.20772e-05 3.16252e-05 5.58923e-07)
(6.07816e-05 3.09689e-05 -7.82649e-06)
(5.96049e-05 3.0373e-05 -1.66564e-05)
(6.2424e-05 3.82414e-05 1.81173e-05)
(6.0828e-05 3.72675e-05 9.02545e-06)
(5.94007e-05 3.63965e-05 5.61926e-07)
(5.81608e-05 3.564e-05 -7.82303e-06)
(5.70348e-05 3.49531e-05 -1.66523e-05)
(5.92275e-05 4.30207e-05 1.81205e-05)
(5.77129e-05 4.19243e-05 9.02837e-06)
(5.63586e-05 4.09434e-05 5.64851e-07)
(5.51822e-05 4.00914e-05 -7.81987e-06)
(5.41139e-05 3.93177e-05 -1.66487e-05)
(5.56659e-05 4.75356e-05 1.81235e-05)
(5.42421e-05 4.6323e-05 9.03082e-06)
(5.29695e-05 4.52382e-05 5.67085e-07)
(5.18643e-05 4.42958e-05 -7.81759e-06)
(5.08605e-05 4.344e-05 -1.66462e-05)
(5.17599e-05 5.17599e-05 1.8125e-05)
(5.04374e-05 5.04374e-05 9.03184e-06)
(4.9255e-05 4.9255e-05 5.67949e-07)
(4.82279e-05 4.82279e-05 -7.81675e-06)
(4.72952e-05 4.72952e-05 -1.66453e-05)
(4.75356e-05 5.56659e-05 1.81236e-05)
(4.6323e-05 5.42421e-05 9.03082e-06)
(4.52382e-05 5.29695e-05 5.67088e-07)
(4.42958e-05 5.18642e-05 -7.81759e-06)
(4.344e-05 5.08605e-05 -1.66462e-05)
(4.30208e-05 5.92275e-05 1.81205e-05)
(4.19243e-05 5.77129e-05 9.02837e-06)
(4.09435e-05 5.63586e-05 5.64855e-07)
(4.00914e-05 5.51822e-05 -7.81987e-06)
(3.93177e-05 5.41139e-05 -1.66487e-05)
(3.82414e-05 6.2424e-05 1.81173e-05)
(3.72675e-05 6.0828e-05 9.02546e-06)
(3.63965e-05 5.94007e-05 5.61932e-07)
(3.56401e-05 5.81608e-05 -7.82302e-06)
(3.49531e-05 5.70348e-05 -1.66523e-05)
(3.32263e-05 6.52361e-05 1.81147e-05)
(3.2381e-05 6.35686e-05 9.02274e-06)
(3.16252e-05 6.20772e-05 5.5893e-07)
(3.09689e-05 6.07816e-05 -7.82649e-06)
(3.0373e-05 5.96049e-05 -1.66564e-05)
(2.80063e-05 6.76468e-05 1.81131e-05)
(2.72947e-05 6.5918e-05 9.02077e-06)
(2.66588e-05 6.43717e-05 5.56426e-07)
(2.61068e-05 6.30285e-05 -7.82967e-06)
(2.56057e-05 6.18085e-05 -1.66604e-05)
(2.26131e-05 6.96416e-05 1.81131e-05)
(2.20399e-05 6.78621e-05 9.02018e-06)
(2.1528e-05 6.62705e-05 5.55075e-07)
(2.10838e-05 6.4888e-05 -7.83191e-06)
(2.06808e-05 6.36323e-05 -1.66637e-05)
(1.708e-05 7.12087e-05 1.81155e-05)
(1.6649e-05 6.93894e-05 9.02179e-06)
(1.62644e-05 6.77624e-05 5.55798e-07)
(1.5931e-05 6.63491e-05 -7.83225e-06)
(1.56287e-05 6.50656e-05 -1.66652e-05)
(1.14408e-05 7.23388e-05 1.81213e-05)
(1.11551e-05 7.0491e-05 9.02691e-06)
(1.09004e-05 6.88389e-05 5.60095e-07)
(1.06799e-05 6.74035e-05 -7.82925e-06)
(1.04807e-05 6.61002e-05 -1.66638e-05)
(5.72398e-06 7.30252e-05 1.81317e-05)
(5.5927e-06 7.11628e-05 9.03742e-06)
(5.46889e-06 6.94957e-05 5.70353e-07)
(5.36195e-06 6.80469e-05 -7.82023e-06)
(5.27133e-06 6.67309e-05 -1.6658e-05)
(0 7.33091e-05 1.83958e-05)
(0 7.14422e-05 9.29045e-06)
(0 6.97662e-05 8.27339e-07)
(0 6.83088e-05 -7.54382e-06)
(0 6.69877e-05 -1.63481e-05)
(9.56641e-05 0 1.41038e-05)
(9.37371e-05 0 6.62327e-06)
(9.18495e-05 0 -5.17904e-07)
(9.00096e-05 0 -7.58237e-06)
(8.8158e-05 0 -1.48177e-05)
(9.53122e-05 7.47913e-06 1.38911e-05)
(9.33852e-05 7.34306e-06 6.41233e-06)
(9.15006e-05 7.20312e-06 -7.3502e-07)
(8.96632e-05 7.06796e-06 -7.81274e-06)
(8.78131e-05 6.94109e-06 -1.5067e-05)
(9.44197e-05 1.49373e-05 1.38832e-05)
(9.25067e-05 1.46424e-05 6.4049e-06)
(9.06375e-05 1.43548e-05 -7.41969e-07)
(8.88157e-05 1.40753e-05 -7.81859e-06)
(8.69828e-05 1.37948e-05 -1.50706e-05)
(9.29458e-05 2.22965e-05 1.38785e-05)
(9.10619e-05 2.18516e-05 6.4011e-06)
(8.92208e-05 2.14172e-05 -7.44865e-07)
(8.74268e-05 2.09944e-05 -7.82027e-06)
(8.56215e-05 2.05689e-05 -1.50709e-05)
(9.09009e-05 2.95177e-05 1.38768e-05)
(8.90578e-05 2.89255e-05 6.40021e-06)
(8.72566e-05 2.83471e-05 -7.44795e-07)
(8.55015e-05 2.77836e-05 -7.81913e-06)
(8.37354e-05 2.72165e-05 -1.50686e-05)
(8.82971e-05 3.65565e-05 1.38773e-05)
(8.65065e-05 3.58208e-05 6.40141e-06)
(8.47564e-05 3.5102e-05 -7.42758e-07)
(8.30512e-05 3.44016e-05 -7.81614e-06)
(8.13352e-05 3.36966e-05 -1.50646e-05)
(8.51505e-05 4.33698e-05 1.38794e-05)
(8.34232e-05 4.24952e-05 6.40399e-06)
(8.17352e-05 4.16405e-05 -7.39553e-07)
(8.00905e-05 4.08077e-05 -7.81217e-06)
(7.84354e-05 3.99693e-05 -1.50597e-05)
(8.14798e-05 4.99157e-05 1.38826e-05)
(7.98267e-05 4.89078e-05 6.4073e-06)
(7.82113e-05 4.79225e-05 -7.3587e-07)
(7.66372e-05 4.69623e-05 -7.80793e-06)
(7.50534e-05 4.59959e-05 -1.50548e-05)
(7.73075e-05 5.61543e-05 1.38862e-05)
(7.57387e-05 5.50191e-05 6.41072e-06)
(7.42059e-05 5.39093e-05 -7.3237e-07)
(7.27126e-05 5.28278e-05 -7.80413e-06)
(7.12099e-05 5.17392e-05 -1.50506e-05)
(7.26588e-05 6.20476e-05 1.38896e-05)
(7.11842e-05 6.07919e-05 6.41351e-06)
(6.97439e-05 5.95643e-05 -7.29751e-07)
(6.83408e-05 5.83679e-05 -7.80142e-06)
(6.6929e-05 5.7164e-05 -1.50476e-05)
(6.7561e-05 6.7561e-05 1.38912e-05)
(6.61914e-05 6.61913e-05 6.41465e-06)
(6.48532e-05 6.48532e-05 -7.28752e-07)
(6.35494e-05 6.35494e-05 -7.80043e-06)
(6.22374e-05 6.22373e-05 -1.50465e-05)
(6.20476e-05 7.26587e-05 1.38896e-05)
(6.07919e-05 7.11842e-05 6.41351e-06)
(5.95643e-05 6.97439e-05 -7.29749e-07)
(5.8368e-05 6.83408e-05 -7.80142e-06)
(5.7164e-05 6.69289e-05 -1.50476e-05)
(5.61543e-05 7.73075e-05 1.38862e-05)
(5.50191e-05 7.57387e-05 6.41072e-06)
(5.39093e-05 7.42059e-05 -7.32366e-07)
(5.28278e-05 7.27126e-05 -7.80412e-06)
(5.17393e-05 7.12099e-05 -1.50506e-05)
(4.99157e-05 8.14798e-05 1.38826e-05)
(4.89078e-05 7.98267e-05 6.4073e-06)
(4.79225e-05 7.82113e-05 -7.35864e-07)
(4.69624e-05 7.66372e-05 -7.80793e-06)
(4.59959e-05 7.50534e-05 -1.50548e-05)
(4.33698e-05 8.51505e-05 1.38794e-05)
(4.24952e-05 8.34232e-05 6.40399e-06)
(4.16405e-05 8.17352e-05 -7.39545e-07)
(4.08077e-05 8.00905e-05 -7.81216e-06)
(3.99693e-05 7.84354e-05 -1.50597e-05)
(3.65565e-05 8.82972e-05 1.38773e-05)
(3.58208e-05 8.65065e-05 6.40142e-06)
(3.5102e-05 8.47564e-05 -7.42749e-07)
(3.44016e-05 8.30512e-05 -7.81614e-06)
(3.36966e-05 8.13352e-05 -1.50646e-05)
(2.95177e-05 9.09009e-05 1.38768e-05)
(2.89255e-05 8.90579e-05 6.40023e-06)
(2.83471e-05 8.72566e-05 -7.44785e-07)
(2.77837e-05 8.55015e-05 -7.81912e-06)
(2.72166e-05 8.37354e-05 -1.50686e-05)
(2.22966e-05 9.29459e-05 1.38786e-05)
(2.18516e-05 9.1062e-05 6.40111e-06)
(2.14173e-05 8.92208e-05 -7.44853e-07)
(2.09944e-05 8.74268e-05 -7.82026e-06)
(2.05689e-05 8.56215e-05 -1.50709e-05)
(1.49373e-05 9.44197e-05 1.38832e-05)
(1.46424e-05 9.25067e-05 6.40492e-06)
(1.43549e-05 9.06375e-05 -7.41957e-07)
(1.40753e-05 8.88157e-05 -7.81857e-06)
(1.37948e-05 8.69828e-05 -1.50705e-05)
(7.47914e-06 9.53122e-05 1.38911e-05)
(7.34306e-06 9.33852e-05 6.41235e-06)
(7.20312e-06 9.15006e-05 -7.35007e-07)
(7.06796e-06 8.96632e-05 -7.81273e-06)
(6.9411e-06 8.78131e-05 -1.5067e-05)
(0 9.56641e-05 1.41038e-05)
(0 9.37371e-05 6.62329e-06)
(0 9.18495e-05 -5.17891e-07)
(0 9.00096e-05 -7.58236e-06)
(0 8.8158e-05 -1.48177e-05)
(0.000112346 0 7.82403e-06)
(0.000110293 0 2.58474e-06)
(0.000108221 0 -2.51098e-06)
(0.000106123 0 -7.55143e-06)
(0.000103954 0 -1.26189e-05)
(0.00011194 8.78545e-06 7.67754e-06)
(0.000109886 8.64053e-06 2.43582e-06)
(0.000107814 8.48687e-06 -2.66554e-06)
(0.000105715 8.33295e-06 -7.71384e-06)
(0.000103547 8.18475e-06 -1.27902e-05)
(0.000110893 1.75429e-05 7.67273e-06)
(0.000108853 1.72292e-05 2.43196e-06)
(0.000106797 1.69136e-05 -2.66869e-06)
(0.000104716 1.65949e-05 -7.71598e-06)
(0.000102568 1.62665e-05 -1.27907e-05)
(0.000109161 2.61852e-05 7.66991e-06)
(0.000107152 2.57119e-05 2.4302e-06)
(0.000105127 2.52351e-05 -2.66938e-06)
(0.000103078 2.47528e-05 -7.71545e-06)
(0.000100962 2.42546e-05 -1.27889e-05)
(0.000106759 3.46655e-05 7.66915e-06)
(0.000104793 3.40352e-05 2.43052e-06)
(0.000102812 3.34e-05 -2.66793e-06)
(0.000100808 3.27573e-05 -7.7128e-06)
(9.87371e-05 3.20931e-05 -1.2785e-05)
(0.000103701 4.29318e-05 7.67021e-06)
(0.000101791 4.21483e-05 2.43252e-06)
(9.98656e-05 4.13587e-05 -2.66489e-06)
(9.79177e-05 4.05595e-05 -7.70863e-06)
(9.5906e-05 3.97337e-05 -1.27796e-05)
(0.000100004 5.09334e-05 7.67269e-06)
(9.81619e-05 5.00016e-05 2.43568e-06)
(9.63051e-05 4.90623e-05 -2.66088e-06)
(9.44262e-05 4.81117e-05 -7.70363e-06)
(9.24859e-05 4.71295e-05 -1.27735e-05)
(9.56927e-05 5.86213e-05 7.67613e-06)
(9.39294e-05 5.75469e-05 2.43946e-06)
(9.21524e-05 5.64638e-05 -2.65653e-06)
(9.03544e-05 5.53676e-05 -7.69852e-06)
(8.84975e-05 5.42351e-05 -1.27675e-05)
(9.07921e-05 6.59483e-05 7.67999e-06)
(8.91188e-05 6.4738e-05 2.44323e-06)
(8.74328e-05 6.35177e-05 -2.65251e-06)
(8.5727e-05 6.22827e-05 -7.69403e-06)
(8.39654e-05 6.10069e-05 -1.27624e-05)
(8.53321e-05 7.28699e-05 7.68353e-06)
(8.37594e-05 7.15309e-05 2.44625e-06)
(8.21753e-05 7.01808e-05 -2.64955e-06)
(8.05726e-05 6.88145e-05 -7.69088e-06)
(7.89175e-05 6.74032e-05 -1.27589e-05)
(7.93451e-05 7.93451e-05 7.68511e-06)
(7.78844e-05 7.78844e-05 2.44747e-06)
(7.64127e-05 7.64127e-05 -2.64844e-06)
(7.49235e-05 7.49235e-05 -7.68973e-06)
(7.33855e-05 7.33854e-05 -1.27577e-05)
(7.287e-05 8.53321e-05 7.68353e-06)
(7.15309e-05 8.37594e-05 2.44625e-06)
(7.01809e-05 8.21753e-05 -2.64955e-06)
(6.88145e-05 8.05726e-05 -7.69088e-06)
(6.74033e-05 7.89175e-05 -1.27589e-05)
(6.59483e-05 9.07921e-05 7.67999e-06)
(6.4738e-05 8.91188e-05 2.44324e-06)
(6.35178e-05 8.74328e-05 -2.6525e-06)
(6.22827e-05 8.5727e-05 -7.69402e-06)
(6.10069e-05 8.39654e-05 -1.27624e-05)
(5.86213e-05 9.56927e-05 7.67614e-06)
(5.75469e-05 9.39294e-05 2.43946e-06)
(5.64639e-05 9.21524e-05 -2.65652e-06)
(5.53677e-05 9.03544e-05 -7.69851e-06)
(5.42351e-05 8.84975e-05 -1.27675e-05)
(5.09334e-05 0.000100004 7.6727e-06)
(5.00016e-05 9.81619e-05 2.43569e-06)
(4.90624e-05 9.63051e-05 -2.66087e-06)
(4.81117e-05 9.44262e-05 -7.70362e-06)
(4.71295e-05 9.24859e-05 -1.27735e-05)
(4.29318e-05 0.000103701 7.67022e-06)
(4.21483e-05 0.000101791 2.43253e-06)
(4.13587e-05 9.98656e-05 -2.66489e-06)
(4.05595e-05 9.79177e-05 -7.70862e-06)
(3.97337e-05 9.5906e-05 -1.27796e-05)
(3.46655e-05 0.000106759 7.66916e-06)
(3.40352e-05 0.000104793 2.43053e-06)
(3.34001e-05 0.000102812 -2.66792e-06)
(3.27573e-05 0.000100808 -7.71279e-06)
(3.20932e-05 9.87371e-05 -1.2785e-05)
(2.61852e-05 0.000109161 7.66992e-06)
(2.57119e-05 0.000107152 2.43021e-06)
(2.52351e-05 0.000105127 -2.66937e-06)
(2.47529e-05 0.000103078 -7.71544e-06)
(2.42546e-05 0.000100962 -1.27889e-05)
(1.75429e-05 0.000110893 7.67274e-06)
(1.72292e-05 0.000108853 2.43197e-06)
(1.69136e-05 0.000106797 -2.66868e-06)
(1.65949e-05 0.000104716 -7.71596e-06)
(1.62665e-05 0.000102568 -1.27907e-05)
(8.78545e-06 0.00011194 7.67755e-06)
(8.64054e-06 0.000109886 2.43584e-06)
(8.48688e-06 0.000107814 -2.66553e-06)
(8.33295e-06 0.000105715 -7.71383e-06)
(8.18475e-06 0.000103547 -1.27902e-05)
(0 0.000112346 7.82404e-06)
(0 0.000110293 2.58475e-06)
(0 0.000108221 -2.51096e-06)
(0 0.000106123 -7.55142e-06)
(0 0.000103954 -1.26189e-05)
(0.000122631 0 6.37358e-07)
(0.000120463 0 -2.15995e-06)
(0.000118266 0 -4.93937e-06)
(0.000116026 0 -7.68909e-06)
(0.000113703 0 -1.03971e-05)
(0.00012219 9.58796e-06 5.60728e-07)
(0.000120019 9.43545e-06 -2.24004e-06)
(0.000117822 9.273e-06 -5.0232e-06)
(0.000115581 9.10911e-06 -7.77615e-06)
(0.00011326 8.95112e-06 -1.04861e-05)
(0.000121046 1.91452e-05 5.58771e-07)
(0.00011889 1.8815e-05 -2.24082e-06)
(0.000116711 1.84813e-05 -5.02307e-06)
(0.000114488 1.81418e-05 -7.77501e-06)
(0.000112188 1.77912e-05 -1.04837e-05)
(0.000119155 2.85774e-05 5.57732e-07)
(0.000117032 2.80788e-05 -2.24051e-06)
(0.000114884 2.75746e-05 -5.02147e-06)
(0.000112695 2.70607e-05 -7.77208e-06)
(0.00011043 2.65285e-05 -1.04794e-05)
(0.000116531 3.7833e-05 5.57927e-07)
(0.000114454 3.71686e-05 -2.23888e-06)
(0.000112353 3.64965e-05 -5.01841e-06)
(0.000110211 3.58113e-05 -7.76755e-06)
(0.000107994 3.51017e-05 -1.04733e-05)
(0.000113191 4.6855e-05 5.59375e-07)
(0.000111172 4.60287e-05 -2.23607e-06)
(0.000109131 4.51928e-05 -5.0142e-06)
(0.000107049 4.43404e-05 -7.76184e-06)
(0.000104895 4.34578e-05 -1.0466e-05)
(0.000109154 5.55883e-05 5.61919e-07)
(0.000107207 5.4605e-05 -2.2324e-06)
(0.000105238 5.36103e-05 -5.00928e-06)
(0.00010323 5.2596e-05 -7.75554e-06)
(0.000101153 5.15458e-05 -1.04582e-05)
(0.000104447 6.39794e-05 5.65272e-07)
(0.000102583 6.28452e-05 -2.22829e-06)
(0.000100698 6.16977e-05 -5.00422e-06)
(9.87772e-05 6.05277e-05 -7.74936e-06)
(9.67891e-05 5.93163e-05 -1.04507e-05)
(9.90962e-05 7.19771e-05 5.69003e-07)
(9.7328e-05 7.06988e-05 -2.22431e-06)
(9.55398e-05 6.94055e-05 -4.99969e-06)
(9.37173e-05 6.80868e-05 -7.74406e-06)
(9.18312e-05 6.67217e-05 -1.04444e-05)
(9.31357e-05 7.95323e-05 5.72448e-07)
(9.14739e-05 7.81178e-05 -2.22117e-06)
(8.97939e-05 7.66864e-05 -4.99643e-06)
(8.80817e-05 7.52272e-05 -7.7404e-06)
(8.63098e-05 7.37168e-05 -1.04402e-05)
(8.66003e-05 8.66003e-05 5.73997e-07)
(8.50571e-05 8.50571e-05 -2.21992e-06)
(8.34964e-05 8.34964e-05 -4.99521e-06)
(8.19057e-05 8.19057e-05 -7.73908e-06)
(8.02593e-05 8.02593e-05 -1.04387e-05)
(7.95324e-05 9.31357e-05 5.72449e-07)
(7.81178e-05 9.14739e-05 -2.22117e-06)
(7.66865e-05 8.97939e-05 -4.99643e-06)
(7.52272e-05 8.80817e-05 -7.7404e-06)
(7.37168e-05 8.63098e-05 -1.04402e-05)
(7.19771e-05 9.90962e-05 5.69005e-07)
(7.06988e-05 9.7328e-05 -2.22431e-06)
(6.94055e-05 9.55398e-05 -4.99969e-06)
(6.80868e-05 9.37172e-05 -7.74406e-06)
(6.67217e-05 9.18312e-05 -1.04444e-05)
(6.39795e-05 0.000104447 5.65276e-07)
(6.28452e-05 0.000102583 -2.22829e-06)
(6.16977e-05 0.000100698 -5.00422e-06)
(6.05277e-05 9.87772e-05 -7.74936e-06)
(5.93163e-05 9.6789e-05 -1.04507e-05)
(5.55883e-05 0.000109154 5.61925e-07)
(5.4605e-05 0.000107207 -2.23239e-06)
(5.36103e-05 0.000105238 -5.00927e-06)
(5.25961e-05 0.00010323 -7.75554e-06)
(5.15459e-05 0.000101153 -1.04582e-05)
(4.6855e-05 0.000113191 5.59382e-07)
(4.60287e-05 0.000111172 -2.23606e-06)
(4.51928e-05 0.000109131 -5.01419e-06)
(4.43405e-05 0.000107049 -7.76183e-06)
(4.34579e-05 0.000104895 -1.0466e-05)
(3.7833e-05 0.000116531 5.57935e-07)
(3.71686e-05 0.000114454 -2.23887e-06)
(3.64965e-05 0.000112353 -5.01841e-06)
(3.58113e-05 0.000110211 -7.76754e-06)
(3.51017e-05 0.000107994 -1.04733e-05)
(2.85774e-05 0.000119155 5.5774e-07)
(2.80789e-05 0.000117032 -2.2405e-06)
(2.75746e-05 0.000114885 -5.02146e-06)
(2.70607e-05 0.000112695 -7.77208e-06)
(2.65285e-05 0.00011043 -1.04794e-05)
(1.91453e-05 0.000121046 5.5878e-07)
(1.8815e-05 0.00011889 -2.24081e-06)
(1.84813e-05 0.000116711 -5.02306e-06)
(1.81418e-05 0.000114488 -7.77501e-06)
(1.77912e-05 0.000112188 -1.04837e-05)
(9.58797e-06 0.00012219 5.60738e-07)
(9.43545e-06 0.000120019 -2.24003e-06)
(9.27301e-06 0.000117822 -5.02319e-06)
(9.10911e-06 0.000115581 -7.77614e-06)
(8.95112e-06 0.00011326 -1.04861e-05)
(0 0.000122631 6.37367e-07)
(0 0.000120463 -2.15994e-06)
(0 0.000118266 -4.93936e-06)
(0 0.000116026 -7.68909e-06)
(0 0.000113703 -1.03971e-05)
(0.000126496 0 -6.74828e-06)
(0.000124264 0 -7.13597e-06)
(0.000122019 0 -7.59266e-06)
(0.000119741 0 -8.04661e-06)
(0.000117395 0 -8.42956e-06)
(0.000126039 9.88598e-06 -6.75708e-06)
(0.000123806 9.72998e-06 -7.14776e-06)
(0.000121562 9.56481e-06 -7.60576e-06)
(0.000119283 9.39899e-06 -8.05894e-06)
(0.000116938 9.24035e-06 -8.43874e-06)
(0.000124857 1.97415e-05 -6.75676e-06)
(0.00012264 1.94032e-05 -7.14612e-06)
(0.000120412 1.90638e-05 -7.60302e-06)
(0.000118153 1.87202e-05 -8.05515e-06)
(0.000115829 1.83677e-05 -8.43392e-06)
(0.000122905 2.94681e-05 -6.7564e-06)
(0.00012072 2.89571e-05 -7.14406e-06)
(0.000118526 2.84439e-05 -7.5994e-06)
(0.0001163 2.79234e-05 -8.04998e-06)
(0.000114011 2.73881e-05 -8.42709e-06)
(0.000120195 3.90128e-05 -6.75559e-06)
(0.000118057 3.83313e-05 -7.14131e-06)
(0.00011591 3.76468e-05 -7.59481e-06)
(0.000113732 3.69525e-05 -8.04351e-06)
(0.000111493 3.62383e-05 -8.41858e-06)
(0.000116746 4.83167e-05 -6.75412e-06)
(0.000114669 4.74685e-05 -7.13787e-06)
(0.000112582 4.66167e-05 -7.58944e-06)
(0.000110466 4.57525e-05 -8.03613e-06)
(0.00010829 4.48635e-05 -8.409e-06)
(0.00011258 5.73231e-05 -6.75192e-06)
(0.000110575 5.63131e-05 -7.13388e-06)
(0.000108563 5.52988e-05 -7.58365e-06)
(0.000106521 5.42698e-05 -8.0284e-06)
(0.000104422 5.32113e-05 -8.39912e-06)
(0.000107721 6.59769e-05 -6.74907e-06)
(0.000105803 6.48111e-05 -7.12965e-06)
(0.000103876 6.36403e-05 -7.57794e-06)
(0.000101923 6.24526e-05 -8.02104e-06)
(9.99141e-05 6.1231e-05 -8.38987e-06)
(0.0001022 7.42253e-05 -6.74582e-06)
(0.00010038 7.29108e-05 -7.12564e-06)
(9.85523e-05 7.15905e-05 -7.57295e-06)
(9.66991e-05 7.02512e-05 -8.01485e-06)
(9.47938e-05 6.88739e-05 -8.38223e-06)
(9.60506e-05 8.20181e-05 -6.74272e-06)
(9.43401e-05 8.05627e-05 -7.12252e-06)
(9.26233e-05 7.91009e-05 -7.56942e-06)
(9.08826e-05 7.76182e-05 -8.01063e-06)
(8.90929e-05 7.60936e-05 -8.37712e-06)
(8.93088e-05 8.93087e-05 -6.74129e-06)
(8.77205e-05 8.77205e-05 -7.12127e-06)
(8.61261e-05 8.61261e-05 -7.56811e-06)
(8.45092e-05 8.45092e-05 -8.00912e-06)
(8.28468e-05 8.28467e-05 -8.37531e-06)
(8.20181e-05 9.60506e-05 -6.74272e-06)
(8.05627e-05 9.43401e-05 -7.12251e-06)
(7.91009e-05 9.26233e-05 -7.56941e-06)
(7.76182e-05 9.08826e-05 -8.01063e-06)
(7.60936e-05 8.90928e-05 -8.37712e-06)
(7.42253e-05 0.0001022 -6.74582e-06)
(7.29108e-05 0.00010038 -7.12564e-06)
(7.15905e-05 9.85523e-05 -7.57295e-06)
(7.02512e-05 9.66991e-05 -8.01484e-06)
(6.88739e-05 9.47938e-05 -8.38223e-06)
(6.59769e-05 0.000107721 -6.74906e-06)
(6.48111e-05 0.000105803 -7.12965e-06)
(6.36404e-05 0.000103876 -7.57794e-06)
(6.24527e-05 0.000101923 -8.02104e-06)
(6.1231e-05 9.99141e-05 -8.38987e-06)
(5.73231e-05 0.00011258 -6.75191e-06)
(5.63131e-05 0.000110575 -7.13387e-06)
(5.52988e-05 0.000108563 -7.58364e-06)
(5.42698e-05 0.000106521 -8.0284e-06)
(5.32114e-05 0.000104422 -8.39912e-06)
(4.83167e-05 0.000116747 -6.75412e-06)
(4.74685e-05 0.000114669 -7.13786e-06)
(4.66167e-05 0.000112582 -7.58944e-06)
(4.57525e-05 0.000110466 -8.03612e-06)
(4.48636e-05 0.00010829 -8.40899e-06)
(3.90128e-05 0.000120195 -6.75559e-06)
(3.83313e-05 0.000118057 -7.14131e-06)
(3.76469e-05 0.00011591 -7.59481e-06)
(3.69525e-05 0.000113732 -8.04351e-06)
(3.62383e-05 0.000111493 -8.41858e-06)
(2.94682e-05 0.000122905 -6.7564e-06)
(2.89571e-05 0.00012072 -7.14405e-06)
(2.84439e-05 0.000118526 -7.59939e-06)
(2.79234e-05 0.0001163 -8.04997e-06)
(2.73881e-05 0.000114011 -8.42708e-06)
(1.97415e-05 0.000124857 -6.75676e-06)
(1.94032e-05 0.00012264 -7.14611e-06)
(1.90638e-05 0.000120413 -7.60302e-06)
(1.87202e-05 0.000118153 -8.05515e-06)
(1.83677e-05 0.00011583 -8.43392e-06)
(9.88598e-06 0.000126039 -6.75708e-06)
(9.72998e-06 0.000123806 -7.14775e-06)
(9.56481e-06 0.000121562 -7.60575e-06)
(9.39899e-06 0.000119283 -8.05893e-06)
(9.24035e-06 0.000116938 -8.43873e-06)
(0 0.000126496 -6.74828e-06)
(0 0.000124264 -7.13596e-06)
(0 0.000122019 -7.59265e-06)
(0 0.000119741 -8.0466e-06)
(0 0.000117395 -8.42956e-06)
(0.000124279 0 -1.38376e-05)
(0.000122052 0 -1.19843e-05)
(0.00011984 0 -1.02723e-05)
(0.00011762 0 -8.58409e-06)
(0.000115358 0 -6.80847e-06)
(0.000123828 9.70652e-06 -1.37837e-05)
(0.000121601 9.55229e-06 -1.19326e-05)
(0.000119389 9.39072e-06 -1.02195e-05)
(0.00011717 9.23033e-06 -8.52701e-06)
(0.00011491 9.07878e-06 -6.74397e-06)
(0.000122664 1.93848e-05 -1.37817e-05)
(0.000120452 1.90497e-05 -1.19291e-05)
(0.000118258 1.87174e-05 -1.02148e-05)
(0.000116056 1.83849e-05 -8.5211e-06)
(0.000113817 1.80478e-05 -6.73716e-06)
(0.000120741 2.89364e-05 -1.37804e-05)
(0.000118562 2.84297e-05 -1.19257e-05)
(0.0001164 2.79268e-05 -1.02095e-05)
(0.000114231 2.74228e-05 -8.51404e-06)
(0.000112026 2.69103e-05 -6.72812e-06)
(0.000118075 3.83093e-05 -1.37794e-05)
(0.000115941 3.76329e-05 -1.19222e-05)