/*--------------------------------*- C++ -*----------------------------------*\
| =========                 |                                                 |
| \\      /  F ield         | foam-extend: Open Source CFD                    |
|  \\    /   O peration     | Version:     3.1                                |
|   \\  /    A nd           | Web:         http://www.extend-project.de       |
|    \\/     M anipulation  |                                                 |
\*---------------------------------------------------------------------------*/
FoamFile
{
    version     2.0;
    format      ascii;
    class       volScalarField;
    location    "0.0017";
    object      sigmaEq;
}
// * * * * * * * * * * * * * * * * * * * * * * * * * * * * * * * * * * * * * //

dimensions      [1 -1 -2 0 0 0 0];

internalField   nonuniform List<scalar> 
6400
(
5482.63
3992.07
3553.71
4398.38
5446.55
3973.72
3553.66
4427.79
5444.07
3971.57
3552.6
4427.99
5442.86
3970.73
3552.05
4427.6
5442.31
3970.31
3551.66
4427.08
5442.11
3970.09
3551.31
4426.48
5442.1
3969.91
3550.91
4425.82
5442.18
3969.71
3550.45
4425.14
5442.28
3969.44
3549.96
4424.52
5442.28
3969.21
3549.62
4424.14
5442.28
3969.21
3549.62
4424.14
5442.28
3969.44
3549.96
4424.52
5442.18
3969.71
3550.45
4425.14
5442.1
3969.91
3550.91
4425.82
5442.11
3970.09
3551.31
4426.48
5442.31
3970.31
3551.66
4427.08
5442.86
3970.73
3552.05
4427.6
5444.07
3971.57
3552.6
4427.99
5446.56
3973.72
3553.66
4427.79
5482.64
3992.07
3553.71
4398.38
3733.78
3585.26
3188.59
2494.28
3734.49
3579.68
3178.05
2486.26
3731.97
3577.81
3176.9
2486.45
3730.75
3577.03
3176.34
2486.19
3730.08
3576.45
3175.83
2485.74
3729.68
3576.02
3175.36
2485.2
3729.48
3575.67
3174.93
2484.64
3729.44
3575.37
3174.52
2484.11
3729.54
3575.09
3174.13
2483.65
3729.93
3574.9
3173.87
2483.36
3729.93
3574.9
3173.87
2483.36
3729.54
3575.09
3174.13
2483.65
3729.44
3575.37
3174.52
2484.11
3729.49
3575.67
3174.93
2484.64
3729.68
3576.02
3175.36
2485.2
3730.08
3576.45
3175.83
2485.74
3730.75
3577.03
3176.34
2486.19
3731.97
3577.81
3176.9
2486.45
3734.49
3579.68
3178.05
2486.26
3733.78
3585.26
3188.59
2494.28
4000.79
3818.75
3439.66
2868.65
4009.42
3814.43
3427.35
2851.41
4008.19
3814.03
3426.51
2851.53
4007.63
3813.91
3426.45
2851.58
4007.2
3813.67
3426.32
2851.6
4006.82
3813.39
3426.14
2851.54
4006.55
3813.15
3425.95
2851.43
4006.48
3812.98
3425.76
2851.25
4006.72
3812.9
3425.58
2851.03
4007.59
3812.95
3425.46
2850.83
4007.59
3812.95
3425.46
2850.83
4006.72
3812.9
3425.58
2851.03
4006.48
3812.98
3425.76
2851.26
4006.55
3813.15
3425.95
2851.43
4006.82
3813.39
3426.14
2851.54
4007.2
3813.67
3426.32
2851.6
4007.64
3813.92
3426.45
2851.58
4008.19
3814.03
3426.52
2851.53
4009.42
3814.43
3427.35
2851.41
4000.79
3818.75
3439.66
2868.66
5305.73
4833.93
4387.12
3998.63
5309.94
4828.03
4376.39
3981.94
5308.89
4828.04
4375.86
3982.84
5308.58
4827.98
4375.8
3983.11
5308.35
4827.89
4375.83
3983.3
5308.17
4827.81
4375.86
3983.46
5308.09
4827.77
4375.87
3983.56
5308.19
4827.82
4375.88
3983.59
5308.6
4827.95
4375.87
3983.5
5309.67
4828.16
4375.86
3983.38
5309.67
4828.16
4375.86
3983.38
5308.6
4827.95
4375.87
3983.5
5308.19
4827.82
4375.88
3983.59
5308.09
4827.77
4375.87
3983.57
5308.17
4827.81
4375.86
3983.46
5308.35
4827.89
4375.83
3983.31
5308.58
4827.98
4375.81
3983.12
5308.89
4828.04
4375.86
3982.85
5309.94
4828.03
4376.39
3981.95
5305.73
4833.93
4387.12
3998.63
6497.18
5844.84
5316.25
4953.62
6499.58
5838.47
5306.26
4936.2
6498.63
5838.7
5305.86
4937.59
6498.34
5838.47
5305.61
4937.87
6498.18
5838.35
5305.57
4938.04
6498.14
5838.35
5305.63
4938.23
6498.24
5838.45
5305.74
4938.4
6498.52
5838.64
5305.85
4938.51
6499.08
5838.91
5305.94
4938.5
6500.23
5839.21
5305.99
4938.42
6500.23
5839.21
5305.99
4938.42
6499.08
5838.91
5305.94
4938.5
6498.53
5838.64
5305.85
4938.51
6498.24
5838.45
5305.74
4938.4
6498.15
5838.35
5305.63
4938.23
6498.18
5838.35
5305.58
4938.04
6498.34
5838.48
5305.61
4937.87
6498.63
5838.7
5305.86
4937.59
6499.58
5838.47
5306.26
4936.2
6497.18
5844.84
5316.25
4953.62
7302.98
6570.35
5987.15
5594.09
7305.95
6564.45
5977.58
5575.46
7305.25
6564.92
5977.26
5577.03
7305.07
6564.65
5976.86
5577.21
7305.03
6564.51
5976.73
5577.25
7305.17
6564.56
5976.75
5577.36
7305.46
6564.76
5976.87
5577.5
7305.93
6565.06
5977.03
5577.61
7306.62
6565.43
5977.17
5577.62
7307.85
6565.8
5977.25
5577.57
7307.85
6565.8
5977.25
5577.57
7306.62
6565.44
5977.17
5577.63
7305.93
6565.06
5977.03
5577.61
7305.46
6564.76
5976.87
5577.5
7305.17
6564.56
5976.75
5577.36
7305.03
6564.51
5976.73
5577.25
7305.07
6564.65
5976.86
5577.21
7305.25
6564.92
5977.26
5577.03
7305.95
6564.45
5977.58
5575.46
7302.98
6570.35
5987.15
5594.09
7698.09
6947.09
6341.71
5917.2
7702.46
6942.02
6332.52
5897.79
7702.09
6942.72
6332.24
5899.3
7702.18
6942.53
6331.77
5899.31
7702.39
6942.47
6331.57
5899.17
7702.8
6942.63
6331.55
5899.11
7703.37
6942.95
6331.66
5899.13
7704.07
6943.37
6331.83
5899.16
7704.95
6943.85
6331.99
5899.14
7706.26
6944.27
6332.09
5899.08
7706.26
6944.27
6332.09
5899.08
7704.95
6943.85
6331.99
5899.14
7704.07
6943.37
6331.83
5899.16
7703.37
6942.95
6331.66
5899.13
7702.8
6942.63
6331.55
5899.11
7702.4
6942.48
6331.57
5899.17
7702.18
6942.53
6331.78
5899.31
7702.09
6942.73
6332.25
5899.3
7702.46
6942.02
6332.52
5897.79
7698.09
6947.09
6341.71
5917.2
7705.64
6977.77
6380.06
5941.24
7711.43
6973.57
6371.3
5921.71
7711.41
6974.46
6371.02
5922.98
7711.88
6974.45
6370.53
5922.75
7712.48
6974.56
6370.28
5922.36
7713.28
6974.89
6370.22
5922.06
7714.22
6975.37
6370.3
5921.86
7715.26
6975.95
6370.45
5921.72
7716.37
6976.54
6370.61
5921.58
7717.78
6977.03
6370.72
5921.47
7717.78
6977.03
6370.72
5921.47
7716.37
6976.54
6370.61
5921.58
7715.26
6975.95
6370.45
5921.72
7714.22
6975.37
6370.3
5921.86
7713.28
6974.89
6370.22
5922.06
7712.48
6974.56
6370.28
5922.37
7711.88
6974.45
6370.53
5922.75
7711.41
6974.46
6371.02
5922.98
7711.43
6973.57
6371.3
5921.72
7705.64
6977.77
6380.06
5941.24
7358.36
6687.74
6124.78
5691.14
7365.37
6684.39
6116.55
5672.18
7365.7
6685.4
6116.19
5673.02
7366.61
6685.62
6115.7
5672.48
7367.7
6685.97
6115.42
5671.77
7369
6686.52
6115.31
5671.13
7370.41
6687.2
6115.33
5670.59
7371.85
6687.94
6115.44
5670.16
7373.25
6688.66
6115.57
5669.82
7374.78
6689.22
6115.66
5669.6
7374.78
6689.22
6115.66
5669.6
7373.25
6688.66
6115.57
5669.82
7371.85
6687.94
6115.44
5670.16
7370.41
6687.2
6115.33
5670.59
7369
6686.52
6115.31
5671.13
7367.71
6685.97
6115.42
5671.78
7366.61
6685.63
6115.7
5672.49
7365.7
6685.41
6116.19
5673.02
7365.37
6684.39
6116.55
5672.18
7358.36
6687.74
6124.79
5691.15
6698.25
6116.6
5612.97
5200.86
6706.4
6114.19
5605.42
5183.07
6707.06
6115.25
5604.96
5183.34
6708.43
6115.72
5604.46
5182.42
6710.03
6116.31
5604.14
5181.31
6711.84
6117.07
5603.95
5180.23
6713.75
6117.95
5603.88
5179.24
6715.61
6118.86
5603.89
5178.41
6717.33
6119.7
5603.95
5177.77
6718.98
6120.3
5604.01
5177.4
6718.98
6120.3
5604.01
5177.4
6717.33
6119.7
5603.95
5177.77
6715.61
6118.86
5603.89
5178.41
6713.75
6117.95
5603.88
5179.25
6711.84
6117.07
5603.96
5180.23
6710.03
6116.31
5604.14
5181.32
6708.43
6115.72
5604.46
5182.42
6707.06
6115.25
5604.96
5183.34
6706.4
6114.19
5605.43
5183.07
6698.25
6116.6
5612.97
5200.86
5788.85
5321.94
4897.93
4521.11
5798.2
5320.65
4891.37
4505.18
5799.14
5321.72
4890.77
4504.78
5800.9
5322.4
4890.27
4503.47
5802.94
5323.17
4889.89
4501.95
5805.19
5324.1
4889.59
4500.4
5807.51
5325.1
4889.37
4498.93
5809.74
5326.11
4889.24
4497.63
5811.73
5327
4889.18
4496.63
5813.44
5327.63
4889.18
4496.06
5813.44
5327.63
4889.18
4496.06
5811.73
5327
4889.18
4496.63
5809.74
5326.11
4889.24
4497.63
5807.51
5325.1
4889.37
4498.93
5805.19
5324.1
4889.59
4500.4
5802.94
5323.17
4889.89
4501.95
5800.9
5322.4
4890.27
4503.47
5799.14
5321.72
4890.77
4504.78
5798.2
5320.65
4891.37
4505.18
5788.85
5321.94
4897.93
4521.11
4735.51
4385.2
4051.01
3729.22
4745.82
4385.13
4045.85
3716.19
4746.97
4386.11
4045.13
3715.19
4748.97
4386.91
4044.61
3713.62
4751.28
4387.74
4044.13
3711.84
4753.79
4388.67
4043.67
3709.97
4756.35
4389.65
4043.27
3708.13
4758.79
4390.61
4042.94
3706.48
4760.9
4391.45
4042.72
3705.18
4762.58
4392.01
4042.62
3704.44
4762.58
4392.01
4042.62
3704.44
4760.9
4391.45
4042.72
3705.18
4758.79
4390.61
4042.94
3706.48
4756.35
4389.65
4043.27
3708.13
4753.78
4388.67
4043.67
3709.97
4751.28
4387.74
4044.13
3711.84
4748.97
4386.91
4044.61
3713.62
4746.97
4386.11
4045.13
3715.19
4745.82
4385.12
4045.85
3716.2
4735.51
4385.2
4051.01
3729.22
3699.73
3411.12
3156.52
2930.12
3709.53
3411.85
3153.28
2921.84
3710.72
3412.63
3152.46
2920.52
3712.77
3413.34
3151.89
2919.01
3715.12
3414
3151.25
2917.33
3717.65
3414.7
3150.57
2915.51
3720.21
3415.42
3149.91
2913.67
3722.62
3416.12
3149.33
2911.98
3724.66
3416.72
3148.88
2910.61
3726.16
3417.12
3148.65
2909.83
3726.16
3417.12
3148.65
2909.83
3724.66
3416.72
3148.88
2910.61
3722.62
3416.12
3149.32
2911.98
3720.21
3415.42
3149.91
2913.67
3717.64
3414.7
3150.57
2915.51
3715.12
3414
3151.25
2917.33
3712.76
3413.34
3151.89
2919.01
3710.72
3412.62
3152.46
2920.52
3709.53
3411.85
3153.28
2921.84
3699.73
3411.12
3156.52
2930.13
2865.09
2519.25
2305.64
2229.5
2871.27
2519.64
2304.73
2228.03
2872.26
2520.04
2303.84
2226.85
2874.06
2520.5
2303.18
2225.78
2876.17
2520.82
2302.37
2224.58
2878.44
2521.11
2301.45
2223.24
2880.71
2521.4
2300.53
2221.82
2882.81
2521.67
2299.68
2220.47
2884.53
2521.89
2299.01
2219.35
2885.71
2522.05
2298.63
2218.69
2885.71
2522.05
2298.63
2218.69
2884.53
2521.89
2299.01
2219.35
2882.81
2521.67
2299.68
2220.47
2880.71
2521.4
2300.52
2221.82
2878.43
2521.11
2301.45
2223.23
2876.17
2520.82
2302.37
2224.58
2874.05
2520.49
2303.18
2225.78
2872.26
2520.03
2303.83
2226.85
2871.27
2519.63
2304.73
2228.03
2865.09
2519.25
2305.64
2229.5
2316.1
1832.27
1603.65
1678.89
2316.72
1831.11
1604.8
1683.91
2317.26
1831.16
1603.95
1683.08
2318.54
1831.43
1603.38
1682.48
2320.13
1831.57
1602.62
1681.8
2321.85
1831.65
1601.73
1680.98
2323.56
1831.71
1600.81
1680.08
2325.11
1831.74
1599.95
1679.17
2326.34
1831.74
1599.25
1678.39
2327.14
1831.75
1598.85
1677.92
2327.14
1831.75
1598.85
1677.91
2326.34
1831.74
1599.25
1678.39
2325.11
1831.74
1599.95
1679.17
2323.56
1831.7
1600.81
1680.07
2321.84
1831.65
1601.73
1680.98
2320.13
1831.57
1602.62
1681.8
2318.54
1831.43
1603.37
1682.48
2317.26
1831.15
1603.95
1683.08
2316.72
1831.11
1604.79
1683.9
2316.1
1832.26
1603.65
1678.88
1951.12
1429.1
1163.12
1255.32
1948.76
1426.79
1164.54
1262.07
1948.91
1426.79
1163.97
1261.33
1949.62
1427.23
1163.82
1260.84
1950.58
1427.62
1163.6
1260.27
1951.64
1428.01
1163.31
1259.59
1952.71
1428.38
1162.99
1258.84
1953.69
1428.7
1162.67
1258.1
1954.46
1428.92
1162.39
1257.46
1954.96
1429.03
1162.22
1257.08
1954.96
1429.03
1162.22
1257.08
1954.46
1428.92
1162.39
1257.46
1953.68
1428.7
1162.67
1258.1
1952.71
1428.38
1162.99
1258.84
1951.64
1428.01
1163.31
1259.59
1950.58
1427.62
1163.6
1260.27
1949.61
1427.22
1163.82
1260.83
1948.9
1426.79
1163.97
1261.33
1948.75
1426.78
1164.54
1262.06
1951.12
1429.1
1163.12
1255.32
1630.99
1247.01
994.445
938.405
1629.88
1245.25
994.109
940.938
1629.89
1245.44
993.839
940.025
1630.22
1246.07
994.124
939.402
1630.7
1246.76
994.486
938.77
1631.24
1247.49
994.869
938.076
1631.8
1248.22
995.243
937.351
1632.34
1248.88
995.568
936.66
1632.81
1249.39
995.803
936.091
1633.15
1249.68
995.923
935.759
1633.15
1249.68
995.923
935.759
1632.8
1249.39
995.802
936.091
1632.34
1248.88
995.567
936.659
1631.79
1248.21
995.241
937.35
1631.23
1247.48
994.867
938.075
1630.7
1246.76
994.483
938.769
1630.22
1246.07
994.121
939.4
1629.89
1245.43
993.836
940.023
1629.88
1245.24
994.106
940.937
1630.98
1247.01
994.441
938.403
1342.35
1136.43
946.225
779.691
1344.01
1135.74
944.535
777.031
1344.04
1135.98
944.37
776.325
1344.21
1136.52
944.715
775.998
1344.44
1137.1
945.178
775.783
1344.68
1137.71
945.686
775.595
1344.94
1138.33
946.198
775.411
1345.22
1138.91
946.66
775.231
1345.51
1139.37
947.013
775.074
1345.79
1139.65
947.206
774.977
1345.79
1139.65
947.205
774.976
1345.51
1139.37
947.012
775.074
1345.22
1138.91
946.659
775.231
1344.93
1138.33
946.196
775.41
1344.67
1137.71
945.684
775.594
1344.43
1137.1
945.175
775.781
1344.2
1136.52
944.712
775.996
1344.03
1135.97
944.366
776.323
1344
1135.73
944.532
777.028
1342.34
1136.42
946.221
779.689
1139.04
1031.47
908.325
781.584
1141.98
1031.28
906.684
778.246
1142.03
1031.45
906.576
778.198
1142.15
1031.76
906.84
778.463
1142.28
1032.08
907.203
778.896
1142.41
1032.4
907.604
779.409
1142.55
1032.73
908.006
779.927
1142.71
1033.04
908.37
780.385
1142.91
1033.31
908.651
780.721
1143.17
1033.49
908.806
780.896
1143.17
1033.49
908.806
780.896
1142.91
1033.31
908.65
780.721
1142.71
1033.04
908.368
780.384
1142.54
1032.73
908.004
779.926
1142.4
1032.4
907.601
779.408
1142.28
1032.07
907.2
778.894
1142.14
1031.76
906.837
778.461
1142.02
1031.44
906.572
778.196
1141.97
1031.27
906.68
778.243
1139.03
1031.46
908.32
781.582
1015.06
939.253
864.392
811.467
1017.8
939.191
863.35
809.327
1017.84
939.34
863.326
809.62
1017.91
939.531
863.548
810.079
1018
939.715
863.854
810.66
1018.08
939.906
864.189
811.305
1018.18
940.1
864.523
811.943
1018.29
940.292
864.824
812.502
1018.46
940.466
865.056
812.915
1018.7
940.591
865.184
813.131
1018.7
940.591
865.184
813.131
1018.46
940.465
865.055
812.914
1018.29
940.289
864.823
812.502
1018.17
940.096
864.521
811.942
1018.08
939.901
864.186
811.303
1018
939.711
863.85
810.658
1017.9
939.525
863.544
810.077
1017.83
939.334
863.322
809.618
1017.79
939.185
863.346
809.326
1015.05
939.246
864.388
811.464
916.979
857.464
805.719
776.833
919.411
857.526
805
775.045
919.465
857.692
804.994
775.257
919.517
857.844
805.148
775.532
919.583
857.99
805.366
775.856
919.651
858.145
805.604
776.205
919.73
858.304
805.839
776.538
919.835
858.462
806.046
776.819
919.981
858.603
806.202
777.014
920.19
858.703
806.287
777.109
920.189
858.702
806.286
777.109
919.979
858.601
806.201
777.014
919.832
858.459
806.045
776.818
919.726
858.301
805.837
776.538
919.646
858.141
805.601
776.204
919.577
857.985
805.363
775.855
919.511
857.839
805.145
775.531
919.459
857.686
804.991
775.255
919.404
857.52
804.997
775.044
916.971
857.458
805.715
776.832
827.046
771.891
721.254
679.042
829.115
771.951
720.494
676.964
829.228
772.09
720.406
676.926
829.305
772.192
720.428
676.921
829.398
772.276
720.482
676.912
829.496
772.361
720.541
676.896
829.604
772.447
720.593
676.863
829.726
772.529
720.632
676.811
829.866
772.6
720.653
676.75
830.035
772.651
720.659
676.704
830.035
772.65
720.659
676.704
829.864
772.599
720.652
676.75
829.723
772.527
720.63
676.811
829.6
772.444
720.591
676.862
829.492
772.357
720.538
676.895
829.393
772.271
720.48
676.911
829.3
772.187
720.424
676.92
829.222
772.085
720.403
676.924
829.109
771.946
720.49
676.963
827.039
771.886
721.251
679.041
757.875
687.158
623.546
561.132
759.165
686.933
622.585
558.816
759.314
686.998
622.391
558.565
759.427
687.041
622.289
558.371
759.566
687.058
622.2
558.156
759.711
687.068
622.101
557.919
759.86
687.074
621.995
557.669
760.006
687.076
621.89
557.424
760.144
687.075
621.797
557.215
760.275
687.077
621.74
557.089
760.274
687.077
621.74
557.089
760.143
687.074
621.797
557.215
760.004
687.074
621.889
557.424
759.857
687.071
621.994
557.669
759.708
687.065
622.099
557.919
759.562
687.055
622.198
558.155
759.423
687.037
622.287
558.371
759.31
686.994
622.388
558.564
759.16
686.928
622.582
558.815
757.87
687.153
623.544
561.131
708.557
619.017
540.887
464.818
708.975
618.401
539.732
462.513
709.113
618.399
539.485
462.173
709.217
618.413
539.344
461.936
709.357
618.409
539.216
461.686
709.505
618.398
539.08
461.421
709.654
618.384
538.94
461.15
709.791
618.366
538.807
460.891
709.91
618.347
538.694
460.675
710.007
618.336
538.626
460.548
710.007
618.335
538.626
460.548
709.909
618.346
538.693
460.676
709.79
618.365
538.806
460.891
709.652
618.382
538.939
461.15
709.503
618.396
539.079
461.421
709.355
618.406
539.214
461.686
709.215
618.41
539.342
461.936
709.11
618.396
539.483
462.173
708.972
618.397
539.73
462.512
708.554
619.014
540.885
464.818
663.131
571.045
489.301
410.392
663.058
570.222
488.09
408.291
663.166
570.193
487.865
407.983
663.225
570.205
487.76
407.811
663.317
570.209
487.679
407.648
663.415
570.215
487.6
407.484
663.514
570.219
487.522
407.321
663.607
570.222
487.448
407.166
663.689
570.221
487.386
407.037
663.754
570.219
487.347
406.96
663.754
570.219
487.347
406.961
663.689
570.22
487.385
407.038
663.607
570.221
487.448
407.167
663.513
570.218
487.521
407.321
663.414
570.213
487.599
407.485
663.316
570.208
487.678
407.648
663.224
570.203
487.759
407.811
663.165
570.191
487.864
407.983
663.057
570.22
488.088
408.291
663.13
571.043
489.3
410.392
612.928
534.492
462.382
392.944
612.776
533.716
461.305
391.223
612.866
533.691
461.142
391.01
612.879
533.707
461.09
390.937
612.913
533.719
461.068
390.888
612.95
533.734
461.055
390.85
612.99
533.751
461.045
390.816
613.031
533.767
461.036
390.782
613.073
533.78
461.025
390.751
613.113
533.786
461.017
390.729
613.113
533.786
461.017
390.729
613.073
533.78
461.025
390.751
613.031
533.767
461.036
390.783
612.99
533.751
461.045
390.817
612.951
533.733
461.055
390.851
612.914
533.718
461.068
390.889
612.88
533.707
461.089
390.938
612.867
533.691
461.141
391.01
612.777
533.715
461.305
391.224
612.929
534.492
462.382
392.945
561.225
501.979
445.979
393.169
561.181
501.384
445.152
391.91
561.271
501.377
445.049
391.786
561.26
501.396
445.035
391.789
561.258
501.407
445.048
391.814
561.255
501.42
445.07
391.855
561.254
501.435
445.094
391.898
561.26
501.451
445.116
391.934
561.276
501.464
445.131
391.958
561.299
501.471
445.137
391.969
561.299
501.471
445.137
391.969
561.276
501.464
445.131
391.959
561.261
501.451
445.117
391.935
561.256
501.436
445.095
391.898
561.257
501.421
445.07
391.855
561.261
501.408
445.048
391.815
561.263
501.397
445.035
391.79
561.274
501.378
445.049
391.787
561.184
501.385
445.153
391.911
561.228
501.98
445.98
393.17
514.348
471.643
430.915
393.893
514.415
471.235
430.337
393.025
514.513
471.245
430.275
392.955
514.499
471.266
430.279
392.99
514.486
471.276
430.304
393.041
514.469
471.285
430.335
393.103
514.454
471.295
430.366
393.164
514.446
471.304
430.393
393.217
514.45
471.312
430.411
393.253
514.464
471.317
430.42
393.271
514.464
471.317
430.42
393.271
514.451
471.313
430.412
393.254
514.448
471.306
430.394
393.218
514.457
471.296
430.367
393.165
514.473
471.287
430.336
393.104
514.49
471.278
430.306
393.042
514.503
471.268
430.28
392.991
514.518
471.247
430.276
392.956
514.421
471.238
430.339
393.027
514.353
471.646
430.917
393.894
475.143
443.507
413.634
387.25
475.252
443.228
413.231
386.634
475.356
443.247
413.189
386.582
475.347
443.268
413.198
386.62
475.338
443.278
413.221
386.665
475.323
443.284
413.247
386.715
475.31
443.289
413.271
386.762
475.301
443.294
413.29
386.8
475.302
443.297
413.302
386.825
475.311
443.298
413.306
386.837
475.312
443.298
413.307
386.837
475.303
443.298
413.303
386.826
475.303
443.296
413.291
386.801
475.313
443.292
413.272
386.763
475.328
443.287
413.249
386.716
475.343
443.281
413.223
386.666
475.353
443.272
413.2
386.622
475.363
443.251
413.192
386.584
475.259
443.232
413.233
386.636
475.151
443.511
413.637
387.252
442.467
417.073
393.556
372.811
442.551
416.857
393.248
372.329
442.655
416.877
393.213
372.277
442.651
416.896
393.218
372.304
442.648
416.904
393.234
372.333
442.64
416.908
393.25
372.363
442.632
416.911
393.263
372.388
442.626
416.911
393.272
372.406
442.627
416.91
393.275
372.415
442.634
416.908
393.275
372.418
442.634
416.908
393.275
372.418
442.629
416.911
393.276
372.416
442.629
416.913
393.273
372.407
442.636
416.913
393.265
372.389
442.646
416.912
393.252
372.364
442.655
416.909
393.237
372.335
442.659
416.901
393.221
372.307
442.663
416.882
393.216
372.28
442.56
416.863
393.251
372.331
442.476
417.079
393.559
372.813
413.437
391.409
371.351
353.341
413.467
391.215
371.088
352.932
413.565
391.23
371.054
352.876
413.563
391.246
371.054
352.892
413.562
391.251
371.063
352.908
413.558
391.253
371.071
352.922
413.553
391.253
371.075
352.931
413.549
391.25
371.076
352.935
413.549
391.246
371.073
352.933
413.553
391.242
371.07
352.931
413.554
391.242
371.07
352.931
413.551
391.247
371.074
352.934
413.553
391.253
371.078
352.936
413.558
391.256
371.078
352.933
413.565
391.258
371.074
352.924
413.57
391.256
371.066
352.91
413.572
391.252
371.058
352.895
413.574
391.236
371.059
352.879
413.477
391.222
371.093
352.935
413.447
391.416
371.355
353.344
385.474
365.736
347.92
331.662
385.453
365.55
347.685
331.307
385.542
365.56
347.652
331.249
385.538
365.571
347.647
331.26
385.537
365.574
347.652
331.268
385.532
365.573
347.655
331.274
385.527
365.571
347.655
331.277
385.522
365.566
347.652
331.274
385.52
365.56
347.646
331.269
385.521
365.555
347.642
331.265
385.522
365.555
347.642
331.265
385.523
365.561
347.648
331.27
385.526
365.569
347.654
331.276
385.532
365.574
347.658
331.279
385.539
365.578
347.658
331.277
385.545
365.579
347.656
331.27
385.547
365.577
347.652
331.262
385.552
365.566
347.656
331.253
385.464
365.557
347.69
331.31
385.485
365.743
347.925
331.666
357.195
339.664
323.88
309.387
357.142
339.489
323.671
309.086
357.221
339.495
323.64
309.031
357.214
339.502
323.634
309.038
357.21
339.503
323.637
309.045
357.203
339.501
323.638
309.05
357.195
339.496
323.636
309.051
357.188
339.49
323.632
309.048
357.184
339.483
323.626
309.043
357.182
339.478
323.621
309.038
357.183
339.478
323.622
309.039
357.186
339.485
323.627
309.043
357.192
339.493
323.634
309.049
357.201
339.5
323.639
309.053
357.21
339.506
323.641
309.052
357.218
339.509
323.641
309.048
357.224
339.509
323.639
309.042
357.231
339.502
323.645
309.034
357.152
339.497
323.676
309.089
357.206
339.671
323.885
309.39
328.36
313.186
299.526
287.025
328.293
313.029
299.349
286.779
328.363
313.032
299.321
286.729
328.354
313.037
299.315
286.737
328.347
313.036
299.317
286.743
328.337
313.032
299.317
286.748
328.327
313.027
299.315
286.75
328.317
313.02
299.311
286.748
328.311
313.012
299.305
286.744
328.308
313.007
299.301
286.74
328.309
313.007
299.301
286.741
328.313
313.014
299.307
286.745
328.321
313.023
299.313
286.749
328.332
313.031
299.318
286.752
328.344
313.037
299.321
286.75
328.355
313.042
299.321
286.746
328.363
313.044
299.32
286.74
328.373
313.039
299.326
286.732
328.303
313.036
299.354
286.782
328.37
313.193
299.531
287.028
299.385
286.562
275.035
264.58
299.318
286.428
274.889
264.386
299.381
286.43
274.865
264.342
299.37
286.434
274.86
264.351
299.361
286.431
274.862
264.357
299.35
286.427
274.862
264.362
299.338
286.42
274.859
264.363
299.327
286.413
274.855
264.362
299.319
286.405
274.85
264.359
299.314
286.399
274.845
264.356
299.315
286.4
274.846
264.356
299.321
286.407
274.851
264.36
299.331
286.415
274.857
264.364
299.343
286.424
274.862
264.365
299.356
286.431
274.865
264.364
299.369
286.437
274.865
264.36
299.379
286.44
274.865
264.354
299.39
286.437
274.87
264.346
299.327
286.435
274.894
264.39
299.395
286.569
275.04
264.583
270.871
260.181
250.614
242.039
270.807
260.069
250.498
241.89
270.864
260.071
250.478
241.852
270.854
260.074
250.474
241.86
270.844
260.071
250.474
241.865
270.832
260.065
250.474
241.869
270.819
260.058
250.471
241.871
270.808
260.05
250.466
241.869
270.799
260.042
250.461
241.866
270.793
260.037
250.457
241.863
270.794
260.037
250.457
241.863
270.801
260.044
250.462
241.866
270.811
260.053
250.468
241.87
270.824
260.062
250.473
241.872
270.837
260.07
250.477
241.871
270.85
260.076
250.478
241.868
270.861
260.079
250.477
241.862
270.872
260.077
250.482
241.855
270.816
260.075
250.502
241.893
270.879
260.187
250.618
242.042
243.323
234.438
226.548
219.562
243.266
234.346
226.456
219.449
243.317
234.348
226.44
219.415
243.306
234.35
226.436
219.423
243.296
234.346
226.436
219.427
243.285
234.341
226.435
219.43
243.272
234.333
226.431
219.43
243.261
234.325
226.426
219.427
243.252
234.317
226.42
219.424
243.246
234.311
226.416
219.421
243.247
234.312
226.417
219.421
243.253
234.318
226.421
219.424
243.264
234.327
226.428
219.428
243.276
234.336
226.433
219.431
243.289
234.344
226.437
219.431
243.302
234.35
226.439
219.429
243.312
234.354
226.439
219.425
243.323
234.353
226.443
219.417
243.272
234.351
226.46
219.451
243.33
234.444
226.552
219.564
217.09
209.678
203.162
197.461
217.038
209.601
203.089
197.375
217.083
209.603
203.076
197.345
217.074
209.604
203.072
197.351
217.064
209.601
203.071
197.355
217.053
209.595
203.07
197.356
217.041
209.588
203.066
197.355
217.03
209.579
203.06
197.351
217.021
209.571
203.054
197.347
217.015
209.566
203.05
197.344
217.016
209.566
203.05
197.345
217.022
209.572
203.055
197.348
217.032
209.581
203.061
197.352
217.044
209.59
203.067
197.356
217.056
209.597
203.071
197.357
217.068
209.604
203.074
197.356
217.078
209.608
203.074
197.353
217.088
209.606
203.078
197.346
217.042
209.605
203.092
197.376
217.095
209.681
203.164
197.462
192.39
186.172
180.77
176.096
192.342
186.109
180.712
176.03
192.382
186.11
180.7
176.004
192.374
186.111
180.697
176.009
192.365
186.107
180.696
176.012
192.354
186.102
180.693
176.012
192.344
186.094
180.689
176.01
192.333
186.086
180.684
176.006
192.324
186.079
180.678
176.002
192.318
186.073
180.674
175.999
192.318
186.073
180.674
175.999
192.325
186.079
180.678
176.002
192.334
186.087
180.684
176.006
192.345
186.096
180.69
176.01
192.356
186.103
180.694
176.013
192.367
186.109
180.697
176.012
192.376
186.113
180.698
176.01
192.385
186.112
180.701
176.005
192.345
186.111
180.713
176.031
192.393
186.174
180.771
176.097
169.364
164.129
159.635
155.793
169.32
164.076
159.589
155.743
169.355
164.077
159.579
155.72
169.347
164.078
159.576
155.724
169.339
164.074
159.574
155.726
169.329
164.068
159.572
155.725
169.319
164.061
159.567
155.723
169.309
164.054
159.562
155.718
169.301
164.046
159.556
155.714
169.295
164.041
159.552
155.711
169.295
164.041
159.552
155.711
169.301
164.046
159.556
155.714
169.309
164.054
159.562
155.718
169.319
164.062
159.567
155.722
169.33
164.069
159.572
155.725
169.339
164.074
159.574
155.725
169.347
164.078
159.576
155.724
169.355
164.077
159.579
155.719
169.32
164.076
159.589
155.742
169.364
164.129
159.635
155.792
148.105
143.695
139.953
136.796
148.065
143.65
139.916
136.758
148.096
143.651
139.908
136.738
148.088
143.651
139.905
136.741
148.081
143.647
139.903
136.742
148.072
143.642
139.9
136.741
148.062
143.635
139.896
136.738
148.053
143.628
139.891
136.734
148.045
143.621
139.885
136.73
148.04
143.616
139.881
136.727
148.039
143.616
139.881
136.727
148.045
143.621
139.885
136.73
148.052
143.628
139.89
136.734
148.061
143.635
139.895
136.738
148.071
143.641
139.9
136.74
148.079
143.646
139.902
136.741
148.087
143.65
139.903
136.74
148.094
143.649
139.906
136.736
148.063
143.648
139.915
136.756
148.103
143.693
139.951
136.794
128.671
124.96
121.849
119.262
128.635
124.922
121.82
119.233
128.661
124.923
121.812
119.216
128.654
124.923
121.81
119.219
128.647
124.919
121.808
119.22
128.639
124.914
121.805
119.218
128.631
124.908
121.801
119.216
128.622
124.901
121.796
119.212
128.614
124.895
121.791
119.208
128.609
124.89
121.788
119.205
128.609
124.89
121.787
119.205
128.613
124.894
121.79
119.207
128.62
124.9
121.795
119.211
128.628
124.906
121.8
119.214
128.636
124.912
121.804
119.217
128.644
124.917
121.806
119.218
128.651
124.92
121.807
119.217
128.657
124.92
121.81
119.214
128.631
124.919
121.817
119.231
128.666
124.956
121.846
119.26
111.079
107.964
105.385
103.274
111.048
107.933
105.362
103.252
111.07
107.933
105.356
103.237
111.064
107.933
105.353
103.24
111.058
107.93
105.352
103.24
111.05
107.925
105.349
103.239
111.042
107.92
105.345
103.236
111.034
107.913
105.34
103.232
111.027
107.907
105.336
103.229
111.022
107.903
105.332
103.226
111.022
107.903
105.332
103.226
111.026
107.906
105.335
103.228
111.032
107.912
105.339
103.231
111.039
107.917
105.343
103.234
111.046
107.922
105.346
103.237
111.053
107.926
105.349
103.238
111.058
107.929
105.35
103.237
111.064
107.929
105.352
103.234
111.041
107.928
105.358
103.249
111.073
107.959
105.381
103.27
95.3105
92.7024
90.5693
88.8525
95.2828
92.6761
90.551
88.8366
95.3019
92.6766
90.5456
88.8239
95.2964
92.6761
90.5434
88.8261
95.2907
92.6732
90.5419
88.8261
95.2839
92.6689
90.5393
88.8248
95.2766
92.6637
90.5356
88.8222
95.2694
92.658
90.5313
88.8188
95.2629
92.6525
90.527
88.8153
95.2582
92.6486
90.5241
88.813
95.2576
92.6481
90.5237
88.8128
95.261
92.6511
90.526
88.8145
95.2662
92.6556
90.5295
88.8174
95.2724
92.6605
90.5332
88.8203
95.2786
92.6649
90.5363
88.8225
95.2845
92.6685
90.5383
88.8233
95.2895
92.6708
90.5393
88.8229
95.2944
92.6708
90.5412
88.8205
95.2749
92.67
90.5463
88.833
95.3023
92.6961
90.5645
88.8487
81.3065
79.1273
77.367
75.9752
81.2825
79.1055
77.3526
75.9636
81.2986
79.1058
77.3481
75.9529
81.2937
79.1052
77.3461
75.9546
81.2885
79.1025
77.3446
75.9546
81.2824
79.0986
77.3422
75.9533
81.2759
79.0938
77.3389
75.9508
81.2693
79.0887
77.3349
75.9477
81.2634
79.0837
77.3311
75.9447
81.259
79.0801
77.3284
75.9426
81.2583
79.0796
77.328
75.9423
81.2612
79.0821
77.3299
75.9438
81.2656
79.086
77.333
75.9463
81.2709
79.0901
77.3362
75.9489
81.2763
79.094
77.3389
75.9508
81.2813
79.097
77.3407
75.9517
81.2856
79.0991
77.3415
75.9513
81.2899
79.0991
77.3431
75.9493
81.2733
79.0984
77.3473
75.9598
81.297
79.12
77.3617
75.9712
68.9782
67.1605
65.7103
64.5841
68.9575
67.1424
65.6989
64.5758
68.971
67.1426
65.6951
64.5667
68.9666
67.142
65.6933
64.5682
68.962
67.1394
65.692
64.568
68.9565
67.1359
65.6898
64.5668
68.9507
67.1316
65.6867
64.5646
68.9448
67.127
65.6832
64.5618
68.9395
67.1226
65.6798
64.5591
68.9354
67.1193
65.6774
64.5573
68.9346
67.1187
65.677
64.557
68.937
67.1208
65.6785
64.5583
68.9408
67.1241
65.6811
64.5605
68.9453
67.1276
65.6839
64.5627
68.9499
67.1309
65.6863
64.5644
68.9542
67.1336
65.6878
64.5652
68.9579
67.1354
65.6886
64.565
68.9615
67.1354
65.6899
64.5633
68.9475
67.1347
65.6934
64.5721
68.9679
67.1526
65.7047
64.5803
58.2135
56.6996
55.5064
54.5964
58.1958
56.6846
55.4974
54.5905
58.2071
56.6847
55.4942
54.5828
58.2032