/*--------------------------------*- C++ -*----------------------------------*\
| =========                 |                                                 |
| \\      /  F ield         | foam-extend: Open Source CFD                    |
|  \\    /   O peration     | Version:     3.1                                |
|   \\  /    A nd           | Web:         http://www.extend-project.de       |
|    \\/     M anipulation  |                                                 |
\*---------------------------------------------------------------------------*/
FoamFile
{
    version     2.0;
    format      ascii;
    class       volVectorField;
    location    "0.0017";
    object      U;
}
// * * * * * * * * * * * * * * * * * * * * * * * * * * * * * * * * * * * * * //

dimensions      [0 1 -1 0 0 0 0];

internalField   nonuniform List<vector> 
6400
(
(-7.13636e-06 -2.80351e-06 0.00033275)
(-0.000105653 -6.10929e-06 0.000126339)
(-0.000118445 -6.48711e-06 -6.96843e-05)
(-5.20677e-05 -4.10115e-06 -0.000260916)
(-8.66497e-06 -3.18717e-06 0.000333951)
(-0.00010599 -1.40023e-05 0.000127999)
(-0.000118073 -1.49824e-05 -6.78551e-05)
(-5.14607e-05 -6.86188e-06 -0.000259108)
(-8.97908e-06 -3.99871e-06 0.00033381)
(-0.000105156 -2.24885e-05 0.000128287)
(-0.000117167 -2.43123e-05 -6.73724e-05)
(-5.14967e-05 -1.07738e-05 -0.000258466)
(-9.16867e-06 -4.92343e-06 0.000333431)
(-0.00010357 -3.0945e-05 0.000128228)
(-0.00011543 -3.37096e-05 -6.72223e-05)
(-5.10804e-05 -1.50392e-05 -0.000258042)
(-9.26563e-06 -5.79257e-06 0.000332973)
(-0.000101263 -3.9192e-05 0.000128059)
(-0.00011284 -4.29328e-05 -6.7195e-05)
(-5.01507e-05 -1.93339e-05 -0.000257749)
(-9.23864e-06 -6.53724e-06 0.000332499)
(-9.82351e-05 -4.71146e-05 0.000127839)
(-0.000109419 -5.18281e-05 -6.72447e-05)
(-4.87321e-05 -2.34731e-05 -0.000257581)
(-9.07785e-06 -7.13121e-06 0.000332041)
(-9.45141e-05 -5.46265e-05 0.000127597)
(-0.000105217 -6.02784e-05 -6.73487e-05)
(-4.68825e-05 -2.73345e-05 -0.000257523)
(-8.80551e-06 -7.5685e-06 0.000331607)
(-9.01651e-05 -6.16695e-05 0.000127352)
(-0.000100323 -6.82079e-05 -6.74818e-05)
(-4.46932e-05 -3.08545e-05 -0.000257545)
(-8.48212e-06 -7.85696e-06 0.000331201)
(-8.52847e-05 -6.82179e-05 0.000127128)
(-9.48439e-05 -7.55907e-05 -6.7612e-05)
(-4.22679e-05 -3.40353e-05 -0.000257604)
(-8.21819e-06 -8.03399e-06 0.000330859)
(-7.9988e-05 -7.42948e-05 0.000126969)
(-8.88849e-05 -8.24558e-05 -6.76995e-05)
(-3.9691e-05 -3.69426e-05 -0.000257652)
(-8.06529e-06 -8.19501e-06 0.000330859)
(-7.43289e-05 -7.99635e-05 0.00012697)
(-8.24917e-05 -8.88594e-05 -6.76981e-05)
(-3.69803e-05 -3.96641e-05 -0.000257649)
(-7.89414e-06 -8.46874e-06 0.000331201)
(-6.82592e-05 -8.52716e-05 0.000127131)
(-7.56344e-05 -9.48306e-05 -6.76078e-05)
(-3.40814e-05 -4.22538e-05 -0.000257597)
(-7.60911e-06 -8.80297e-06 0.000331607)
(-6.17151e-05 -9.01648e-05 0.000127356)
(-6.82567e-05 -0.000100324 -6.74749e-05)
(-3.09062e-05 -4.46933e-05 -0.000257535)
(-7.17272e-06 -9.08651e-06 0.00033204)
(-5.46736e-05 -9.4527e-05 0.000127602)
(-6.0329e-05 -0.000105232 -6.73394e-05)
(-2.73886e-05 -4.68976e-05 -0.000257508)
(-6.57722e-06 -9.25821e-06 0.000332498)
(-4.71602e-05 -9.8261e-05 0.000127845)
(-5.18776e-05 -0.000109448 -6.72333e-05)
(-2.35262e-05 -4.87621e-05 -0.000257562)
(-5.82871e-06 -9.29525e-06 0.000332971)
(-3.92335e-05 -0.000101301 0.000128066)
(-4.29781e-05 -0.000112882 -6.71819e-05)
(-1.93827e-05 -5.01948e-05 -0.000257727)
(-4.95365e-06 -9.20715e-06 0.000333428)
(-3.09799e-05 -0.000103618 0.000128235)
(-3.3748e-05 -0.000115484 -6.72077e-05)
(-1.50807e-05 -5.11368e-05 -0.000258017)
(-4.02136e-06 -9.02527e-06 0.000333807)
(-2.25149e-05 -0.000105213 0.000128294)
(-2.43414e-05 -0.000117231 -6.73567e-05)
(-1.08055e-05 -5.15636e-05 -0.000258439)
(-3.20125e-06 -8.71671e-06 0.000333946)
(-1.40188e-05 -0.000106055 0.000128006)
(-1.50008e-05 -0.000118144 -6.78389e-05)
(-6.88191e-06 -5.15358e-05 -0.000259079)
(-2.80831e-06 -7.19099e-06 0.000332745)
(-6.11489e-06 -0.000105721 0.000126347)
(-6.49338e-06 -0.00011852 -6.9668e-05)
(-4.10798e-06 -5.21471e-05 -0.000260887)
(0.00102068 3.57399e-05 0.00124244)
(0.000853045 3.05175e-05 0.000488805)
(0.000808156 2.91097e-05 -0.000269781)
(0.000879083 3.15272e-05 -0.000995923)
(0.00101059 0.000114395 0.00124346)
(0.000844887 9.63215e-05 0.000490326)
(0.000801431 9.21425e-05 -0.000267931)
(0.000872993 0.000101237 -0.000993772)
(0.000995743 0.000192303 0.00124324)
(0.000832021 0.000161121 0.000490767)
(0.000789089 0.000153761 -0.000267041)
(0.000859754 0.000168935 -0.000992443)
(0.000974925 0.000268912 0.00124246)
(0.000814184 0.000224866 0.00049057)
(0.000771974 0.000214138 -0.000266784)
(0.000841272 0.000234857 -0.000991667)
(0.000948336 0.000343917 0.00124141)
(0.000791637 0.000287228 0.000490025)
(0.00075049 0.00027308 -0.000266927)
(0.000818066 0.000299032 -0.000991337)
(0.000916285 0.000416945 0.00124025)
(0.000764661 0.000347932 0.000489291)
(0.000724899 0.00033041 -0.000267338)
(0.000790396 0.000361383 -0.000991375)
(0.000879015 0.000487586 0.0012391)
(0.000733438 0.000406695 0.000488478)
(0.000695337 0.000385927 -0.000267914)
(0.000758379 0.000421754 -0.000991687)
(0.000836682 0.000555396 0.00123801)
(0.000698048 0.000463184 0.000487675)
(0.000661838 0.000439352 -0.000268541)
(0.000722027 0.000479878 -0.000992143)
(0.000789391 0.000619909 0.00123705)
(0.000658528 0.000517005 0.00048698)
(0.000624411 0.000490314 -0.000269095)
(0.000681345 0.000535356 -0.000992589)
(0.000737259 0.000680664 0.00123635)
(0.00061497 0.000567736 0.00048653)
(0.000583144 0.00053839 -0.000269436)
(0.000636445 0.000587712 -0.000992869)
(0.000680585 0.000737322 0.00123636)
(0.000567651 0.000615037 0.000486535)
(0.000538301 0.000583214 -0.000269432)
(0.000587619 0.000636517 -0.000992865)
(0.00061982 0.000789436 0.00123707)
(0.000516906 0.000658572 0.000486994)
(0.00049021 0.000624457 -0.000269082)
(0.000535248 0.000681394 -0.000992577)
(0.000555301 0.000836706 0.00123803)
(0.000463077 0.000698066 0.000487698)
(0.000439239 0.000661856 -0.00026852)
(0.00047976 0.000722048 -0.000992124)
(0.00048749 0.000879016 0.00123913)
(0.000406586 0.000733429 0.000488508)
(0.000385811 0.000695326 -0.000267885)
(0.000421632 0.00075837 -0.00099166)
(0.000416854 0.000916264 0.00124028)
(0.000347827 0.000764625 0.000489328)
(0.000330297 0.000724858 -0.000267303)
(0.000361264 0.000790358 -0.000991341)
(0.000343836 0.000948295 0.00124145)
(0.000287133 0.000791575 0.000490067)
(0.000272977 0.000750422 -0.000266885)
(0.000298924 0.000817999 -0.000991297)
(0.000268844 0.000974866 0.00124251)
(0.000224786 0.0008141 0.000490616)
(0.00021405 0.000771881 -0.000266738)
(0.000234765 0.000841179 -0.000991622)
(0.000192252 0.000995669 0.00124329)
(0.000161061 0.000831918 0.000490816)
(0.000153695 0.000788976 -0.000266992)
(0.000168865 0.000859639 -0.000992394)
(0.000114364 0.0010105 0.00124351)
(9.62838e-05 0.00084477 0.000490377)
(9.21007e-05 0.000801301 -0.000267879)
(0.000101192 0.000872861 -0.000993721)
(3.57293e-05 0.00102058 0.00124249)
(3.05047e-05 0.00085292 0.000488857)
(2.90954e-05 0.000808017 -0.000269728)
(3.15118e-05 0.000878942 -0.00099587)
(0.0034717 0.000129968 0.00233286)
(0.00322162 0.000122313 0.000890492)
(0.00312973 0.000119329 -0.000562217)
(0.00318703 0.000121283 -0.00196399)
(0.0034445 0.00039957 0.00233368)
(0.00319698 0.000372711 0.000891792)
(0.00310704 0.000363594 -0.000560583)
(0.00316532 0.000371633 -0.00196198)
(0.00339769 0.000666896 0.00233325)
(0.00315303 0.000620424 0.000891985)
(0.00306415 0.000604547 -0.000559937)
(0.00312174 0.000617802 -0.00196086)
(0.00333001 0.000930041 0.00233225)
(0.00308979 0.000864281 0.000891473)
(0.0030025 0.000841384 -0.000560061)
(0.00305904 0.000859134 -0.00196054)
(0.00324224 0.00118753 0.00233093)
(0.00300806 0.00110279 0.000890528)
(0.00292303 0.00107284 -0.000560741)
(0.00297829 0.0010947 -0.0019609)
(0.00313523 0.00143782 0.00232952)
(0.00290867 0.00133459 0.000889336)
(0.00282652 0.00129773 -0.000561803)
(0.00288022 0.00132352 -0.00196179)
(0.00300977 0.00167942 0.00232812)
(0.00279227 0.0015584 0.000888052)
(0.00271355 0.00151491 -0.00056307)
(0.00276538 0.00154453 -0.00196304)
(0.0028665 0.00191078 0.00232683)
(0.0026594 0.00177285 0.000886815)
(0.00258456 0.00172314 -0.000564344)
(0.00263417 0.00175654 -0.00196437)
(0.00270606 0.00213041 0.0023257)
(0.00251058 0.00197656 0.000885781)
(0.00244002 0.00192105 -0.000565407)
(0.002487 0.00195817 -0.0019655)
(0.00252915 0.00233693 0.00232492)
(0.00234646 0.00216817 0.000885142)
(0.00228056 0.00210729 -0.00056603)
(0.00232456 0.00214797 -0.00196616)
(0.00233682 0.00252925 0.00232493)
(0.00216805 0.00234656 0.000885149)
(0.00210716 0.00228067 -0.000566024)
(0.00214784 0.00232467 -0.00196616)
(0.00213029 0.00270614 0.00232573)
(0.00197643 0.00251066 0.000885802)
(0.00192091 0.0024401 -0.000565388)
(0.00195803 0.00248709 -0.00196549)
(0.00191065 0.00286657 0.00232686)
(0.00177271 0.00265946 0.00088685)
(0.00172299 0.00258462 -0.000564314)
(0.00175639 0.00263422 -0.00196434)
(0.0016793 0.00300981 0.00232817)
(0.00155826 0.0027923 0.000888098)
(0.00151477 0.00271357 -0.000563029)
(0.00154438 0.00276541 -0.001963)
(0.00143771 0.00313525 0.00232958)
(0.00133446 0.00290866 0.000889393)
(0.00129759 0.00282651 -0.000561752)
(0.00132337 0.00288021 -0.00196175)
(0.00118743 0.00324223 0.002331)
(0.00110267 0.00300803 0.000890593)
(0.00107271 0.00292299 -0.000560682)
(0.00109457 0.00297824 -0.00196085)
(0.000929959 0.00332999 0.00233232)
(0.000864182 0.00308973 0.000891546)
(0.000841275 0.00300243 -0.000559995)
(0.000859019 0.00305897 -0.00196048)
(0.000666835 0.00339765 0.00233333)
(0.000620349 0.00315295 0.000892063)
(0.000604464 0.00306405 -0.000559865)
(0.000617714 0.00312164 -0.00196079)
(0.000399533 0.00344445 0.00233377)
(0.000372665 0.00319688 0.000891873)
(0.000363541 0.00310692 -0.000560509)
(0.000371577 0.00316521 -0.00196191)
(0.000129955 0.00347164 0.00233295)
(0.000122297 0.00322151 0.000890575)
(0.000119311 0.0031296 -0.00056214)
(0.000121264 0.0031869 -0.00196392)
(0.00783574 0.000299295 0.00362173)
(0.00747006 0.000287916 0.00130171)
(0.00730495 0.000282335 -0.00102028)
(0.00732813 0.000283173 -0.0032803)
(0.00777951 0.000910357 0.00362212)
(0.00741725 0.000870707 0.00130249)
(0.00725477 0.000853493 -0.00101927)
(0.00727945 0.000858062 -0.00327895)
(0.00767737 0.00151628 0.00362136)
(0.00731933 0.00144783 0.00130216)
(0.00715883 0.00141812 -0.00101935)
(0.00718333 0.00142527 -0.00327874)
(0.00752812 0.00211284 0.00362026)
(0.00717666 0.00201605 0.00130119)
(0.00701916 0.00197355 -0.00102027)
(0.00704336 0.00198243 -0.00327957)
(0.00733331 0.00269649 0.00361903)
(0.00699079 0.00257183 0.00129985)
(0.00683746 0.0025166 -0.00102181)
(0.00686134 0.00252685 -0.00328127)
(0.00709459 0.00326365 0.00361782)
(0.0067633 0.0031119 0.0012983)
(0.00661519 0.00304428 -0.00102375)
(0.00663872 0.00305582 -0.00328361)
(0.00681356 0.00381078 0.00361669)
(0.00649559 0.00363306 0.00129671)
(0.00635365 0.00355363 -0.00102587)
(0.00637665 0.00356656 -0.00328628)
(0.00649169 0.00433439 0.00361567)
(0.00618895 0.00413206 0.00129522)
(0.00605394 0.00404158 -0.00102789)
(0.00607616 0.00405609 -0.00328888)
(0.0061305 0.0048311 0.00361479)
(0.00584469 0.00460567 0.00129402)
(0.00571731 0.00450492 -0.0010295)
(0.00573842 0.00452117 -0.00329097)
(0.00573171 0.00529777 0.00361415)
(0.00546449 0.00505074 0.0012933)
(0.00534536 0.00494049 -0.00103042)
(0.00536506 0.00495852 -0.00329214)
(0.00529763 0.00573183 0.00361416)
(0.0050506 0.00546461 0.0012933)
(0.00494034 0.00534549 -0.00103041)
(0.00495837 0.00536519 -0.00329214)
(0.00483096 0.00613061 0.00361481)
(0.00460551 0.0058448 0.00129404)
(0.00450476 0.00571741 -0.00102949)
(0.00452101 0.00573852 -0.00329095)
(0.00433425 0.00649178 0.00361571)
(0.0041319 0.00618902 0.00129526)
(0.00404142 0.00605402 -0.00102786)
(0.00405592 0.00607624 -0.00328885)
(0.00381064 0.00681363 0.00361674)
(0.0036329 0.00649564 0.00129676)
(0.00355347 0.00635369 -0.00102583)
(0.00356639 0.00637669 -0.00328624)
(0.00326352 0.00709464 0.00361788)
(0.00311175 0.00676331 0.00129836)
(0.00304412 0.0066152 -0.0010237)
(0.00305565 0.00663873 -0.00328356)
(0.00269638 0.00733334 0.0036191)
(0.0025717 0.00699078 0.00129992)
(0.00251645 0.00683743 -0.00102174)
(0.0025267 0.00686132 -0.00328121)
(0.00211275 0.00752813 0.00362034)
(0.00201594 0.00717662 0.00130127)
(0.00197343 0.00701911 -0.0010202)
(0.0019823 0.0070433 -0.00327951)
(0.00151621 0.00767736 0.00362144)
(0.00144775 0.00731926 0.00130224)
(0.00141803 0.00715874 -0.00101927)
(0.00142517 0.00718324 -0.00327867)
(0.000910316 0.00777949 0.0036222)
(0.000870655 0.00741717 0.00130258)
(0.000853435 0.00725466 -0.00101919)
(0.000858 0.00727934 -0.00327888)
(0.000299281 0.00783571 0.00362181)
(0.000287899 0.00746997 0.0013018)
(0.000282315 0.00730483 -0.0010202)
(0.000283152 0.00732801 -0.00328022)
(0.0147314 0.00056835 0.00504716)
(0.0142142 0.000551864 0.00165618)
(0.0139391 0.000542214 -0.0017127)
(0.0138898 0.00054055 -0.00501809)
(0.0146307 0.00172027 0.0050467)
(0.014118 0.00166335 0.00165588)
(0.0138463 0.00163346 -0.00171299)
(0.0137993 0.00162985 -0.00501816)
(0.0144427 0.00286249 0.00504555)
(0.0139361 0.00276455 0.00165473)
(0.0136678 0.00271332 -0.00171426)
(0.0136217 0.00270637 -0.0050195)
(0.0141664 0.00398717 0.00504456)
(0.0136693 0.00384888 0.00165325)
(0.0134063 0.00377606 -0.00171629)
(0.0133614 0.00376494 -0.00502206)
(0.0138044 0.00508748 0.00504384)
(0.0133202 0.00490962 0.00165161)
(0.0130642 0.00481551 -0.00171887)
(0.013021 0.0048 -0.00502559)
(0.0133594 0.0061566 0.00504339)
(0.0128912 0.00594042 0.00164993)
(0.012644 0.00582573 -0.00172178)
(0.0126028 0.00580604 -0.00502979)
(0.0128342 0.00718778 0.00504314)
(0.0123849 0.00693501 0.00164831)
(0.0121479 0.00680082 -0.00172476)
(0.0121089 0.00677742 -0.00503421)
(0.0122313 0.00817436 0.00504296)
(0.0118035 0.00788707 0.00164686)
(0.011578 0.00773467 -0.00172749)
(0.0115412 0.00770821 -0.0050383)
(0.0115536 0.00910987 0.00504275)
(0.0111497 0.00879028 0.00164571)
(0.0109367 0.00862101 -0.0017296)
(0.0109019 0.00859208 -0.00504148)
(0.0108045 0.0099883 0.00504251)
(0.0104265 0.00963857 0.00164504)
(0.0102271 0.0094537 -0.00173077)
(0.0101943 0.00942272 -0.00504322)
(0.00998815 0.0108046 0.00504251)
(0.00963841 0.0104267 0.00164505)
(0.00945354 0.0102273 -0.00173077)
(0.00942256 0.0101944 -0.00504322)
(0.00910972 0.0115537 0.00504277)
(0.00879011 0.0111498 0.00164573)
(0.00862083 0.0109368 -0.00172959)
(0.0085919 0.010902 -0.00504147)
(0.00817421 0.0122314 0.00504299)
(0.0078869 0.0118036 0.00164689)
(0.00773449 0.0115781 -0.00172746)
(0.00770802 0.0115413 -0.00503828)
(0.00718764 0.0128343 0.00504318)
(0.00693485 0.012385 0.00164835)
(0.00680064 0.012148 -0.00172473)
(0.00677724 0.012109 -0.00503417)
(0.00615647 0.0133595 0.00504343)
(0.00594027 0.0128913 0.00164998)
(0.00582556 0.012644 -0.00172174)
(0.00580586 0.0126028 -0.00502974)
(0.00508737 0.0138045 0.00504389)
(0.00490948 0.0133202 0.00165166)
(0.00481535 0.0130641 -0.00171881)
(0.00479984 0.0130209 -0.00502554)
(0.00398707 0.0141664 0.00504461)
(0.00384876 0.0136693 0.00165331)
(0.00377593 0.0134062 -0.00171623)
(0.0037648 0.0133613 -0.005022)
(0.00286242 0.0144427 0.00504561)
(0.00276446 0.013936 0.0016548)
(0.00271322 0.0136677 -0.00171419)
(0.00270626 0.0136216 -0.00501943)
(0.00172023 0.0146306 0.00504676)
(0.00166329 0.0141179 0.00165595)
(0.00163339 0.0138462 -0.00171292)
(0.00162978 0.0137992 -0.0050181)
(0.000568336 0.0147313 0.00504723)
(0.000551846 0.0142141 0.00165625)
(0.000542193 0.0139389 -0.00171263)
(0.000540527 0.0138897 -0.00501802)
(0.0247315 0.000960187 0.006429)
(0.0240287 0.000937168 0.00183379)
(0.0235969 0.000921566 -0.00269626)
(0.0234163 0.000915282 -0.00717548)
(0.0245678 0.00289767 0.00642712)
(0.0238706 0.00281894 0.00183172)
(0.0234432 0.00277047 -0.00269864)
(0.0232658 0.00275142 -0.00717782)
(0.024257 0.00481879 0.00642553)
(0.0235683 0.00468382 0.00182951)
(0.0231464 0.0046012 -0.00270149)
(0.0229718 0.00456785 -0.00718123)
(0.0237986 0.00671057 0.00642494)
(0.0231231 0.00652036 0.00182757)
(0.0227096 0.00640352 -0.00270476)
(0.0225388 0.00635526 -0.00718584)
(0.0231963 0.00856146 0.00642524)
(0.0225385 0.00831725 0.0018259)
(0.0221362 0.0081669 -0.00270831)
(0.0219707 0.00810388 -0.00719138)
(0.0224542 0.0103599 0.0064262)
(0.0218184 0.0100636 0.00182448)
(0.0214299 0.00988106 -0.00271201)
(0.0212706 0.00980401 -0.00719748)
(0.0215764 0.0120944 0.00642749)
(0.0209664 0.0117487 0.00182326)
(0.0205939 0.0115357 -0.00271561)
(0.0204416 0.0114458 -0.00720362)
(0.0205672 0.0137537 0.00642875)
(0.0199864 0.0133614 0.00182224)
(0.0196317 0.0131202 -0.00271879)
(0.0194868 0.0130187 -0.00720912)
(0.0194311 0.0153267 0.00642968)
(0.0188825 0.0148911 0.00182147)
(0.0185473 0.0146236 -0.00272119)
(0.0184101 0.014512 -0.0072133)
(0.018174 0.0168031 0.0064301)
(0.0176602 0.0163271 0.00182104)
(0.0173461 0.0160355 -0.00272249)
(0.0172169 0.0159148 -0.00721555)
(0.0168029 0.0181741 0.0064301)
(0.0163269 0.0176604 0.00182104)
(0.0160353 0.0173462 -0.00272248)
(0.0159146 0.0172171 -0.00721555)
(0.0153265 0.0194312 0.00642968)
(0.0148909 0.0188826 0.00182148)
(0.0146235 0.0185474 -0.00272118)
(0.0145119 0.0184103 -0.00721329)
(0.0137535 0.0205673 0.00642876)
(0.0133613 0.0199864 0.00182226)
(0.01312 0.0196318 -0.00271877)
(0.0130186 0.0194869 -0.00720911)
(0.0120943 0.0215765 0.00642751)
(0.0117485 0.0209665 0.00182328)
(0.0115355 0.020594 -0.00271559)
(0.0114456 0.0204416 -0.00720359)
(0.0103598 0.0224543 0.00642622)
(0.0100635 0.0218184 0.0018245)
(0.00988089 0.0214299 -0.00271199)
(0.00980383 0.0212706 -0.00719745)
(0.00856134 0.0231963 0.00642527)
(0.00831711 0.0225385 0.00182593)
(0.00816674 0.0221362 -0.00270828)
(0.00810371 0.0219706 -0.00719135)
(0.00671048 0.0237986 0.00642497)
(0.00652024 0.023123 0.0018276)
(0.00640338 0.0227095 -0.00270472)
(0.00635511 0.0225387 -0.00718581)
(0.00481872 0.024257 0.00642556)
(0.00468373 0.0235682 0.00182955)
(0.0046011 0.0231463 -0.00270146)
(0.00456774 0.0229716 -0.00718119)
(0.00289763 0.0245678 0.00642715)
(0.00281888 0.0238705 0.00183176)
(0.00277041 0.0234431 -0.0026986)
(0.00275135 0.0232657 -0.00717778)
(0.000960173 0.0247315 0.00642903)
(0.000937149 0.0240286 0.00183383)
(0.000921543 0.0235967 -0.00269622)
(0.000915258 0.0234161 -0.00717544)
(0.0382207 0.00149055 0.00743761)
(0.0373043 0.00145968 0.00165291)
(0.036662 0.00143595 -0.00400384)
(0.0362706 0.00142226 -0.00964052)
(0.0379738 0.0044886 0.0074338)
(0.037064 0.00438408 0.00164846)
(0.0364271 0.00431019 -0.00400896)
(0.03604 0.00426595 -0.00964582)
(0.0374991 0.00746128 0.00743174)
(0.0366006 0.00728276 0.0016451)
(0.035972 0.0071573 -0.00401353)
(0.0355906 0.00708108 -0.00965146)
(0.036797 0.0103888 0.00743183)
(0.0359161 0.0101377 0.00164291)
(0.0353002 0.00996097 -0.00401781)
(0.0349269 0.00985265 -0.00965793)
(0.0358727 0.0132533 0.00743359)
(0.0350153 0.0129315 0.00164164)
(0.0344161 0.0127048 -0.0040219)
(0.0340534 0.0125652 -0.00966502)
(0.0347318 0.0160367 0.00743646)
(0.0339033 0.0156471 0.00164099)
(0.0333245 0.0153726 -0.0040258)
(0.0329747 0.0152033 -0.00967241)
(0.03338 0.0187214 0.0074398)
(0.0325854 0.0182676 0.00164072)
(0.0320302 0.017948 -0.00402939)
(0.031695 0.0177511 -0.00967956)
(0.0318237 0.0212894 0.00744296)
(0.031067 0.0207756 0.00164065)
(0.0305382 0.0204142 -0.00403244)
(0.0302188 0.0201921 -0.00968582)
(0.03007 0.0237236 0.00744539)
(0.0293547 0.0231539 0.00164065)
(0.0288547 0.0227538 -0.00403467)
(0.0285522 0.022509 -0.00969048)
(0.0281275 0.0260077 0.00744668)
(0.0274573 0.025386 0.00164067)
(0.0269882 0.0249502 -0.00403585)
(0.0267037 0.0246848 -0.00969296)
(0.0260075 0.0281276 0.00744668)
(0.0253859 0.0274574 0.00164067)
(0.0249501 0.0269883 -0.00403585)
(0.0246846 0.0267038 -0.00969296)
(0.0237235 0.0300701 0.00744539)
(0.0231537 0.0293548 0.00164065)
(0.0227537 0.0288548 -0.00403467)
(0.0225089 0.0285523 -0.00969048)
(0.0212893 0.0318238 0.00744296)
(0.0207754 0.031067 0.00164065)
(0.020414 0.0305383 -0.00403244)
(0.0201919 0.0302189 -0.00968582)
(0.0187212 0.0333801 0.0074398)
(0.0182674 0.0325854 0.00164072)
(0.0179479 0.0320302 -0.00402939)
(0.0177509 0.031695 -0.00967956)
(0.0160366 0.0347318 0.00743646)
(0.015647 0.0339033 0.00164099)
(0.0153725 0.0333245 -0.00402581)
(0.0152031 0.0329747 -0.00967241)
(0.0132532 0.0358727 0.00743359)
(0.0129314 0.0350153 0.00164164)
(0.0127047 0.034416 -0.0040219)
(0.012565 0.0340534 -0.00966502)
(0.0103887 0.036797 0.00743183)
(0.0101376 0.0359161 0.00164291)
(0.00996084 0.0353001 -0.00401781)
(0.00985251 0.0349268 -0.00965793)
(0.00746122 0.0374991 0.00743174)
(0.00728267 0.0366005 0.0016451)
(0.00715719 0.0359719 -0.00401353)
(0.00708097 0.0355905 -0.00965146)
(0.00448856 0.0379737 0.0074338)
(0.00438403 0.0370639 0.00164847)
(0.00431012 0.0364269 -0.00400896)
(0.00426588 0.0360398 -0.00964582)
(0.00149054 0.0382207 0.00743761)
(0.00145966 0.0373042 0.00165291)
(0.00143593 0.0366618 -0.00400384)
(0.00142223 0.0362704 -0.00964052)
(0.0550658 0.00215463 0.00757929)
(0.0539217 0.00211501 0.000874121)
(0.0530159 0.00208104 -0.00562968)
(0.0523231 0.00205684 -0.0121582)
(0.0547164 0.00647749 0.00757324)
(0.0535798 0.00634477 0.000867042)
(0.0526803 0.00623876 -0.00563775)
(0.051993 0.00615833 -0.0121666)
(0.0540387 0.0107637 0.00757075)
(0.0529164 0.0105378 0.000862662)
(0.0520287 0.0103583 -0.00564371)
(0.0513511 0.0102207 -0.012174)
(0.053034 0.014985 0.00757165)
(0.0519341 0.0146679 0.000860633)
(0.0510643 0.0144158 -0.00564831)
(0.0504007 0.0142216 -0.0121814)
(0.0517092 0.0191157 0.00757504)
(0.050639 0.0187101 0.000860282)
(0.0497927 0.0183876 -0.00565201)
(0.0491474 0.0181386 -0.0121887)
(0.0500715 0.0231299 0.00757997)
(0.0490376 0.0226397 0.000860999)
(0.0482201 0.0222499 -0.00565506)
(0.0475968 0.0219487 -0.0121958)
(0.0481288 0.0270018 0.00758547)
(0.0471371 0.0264318 0.000862265)
(0.0463527 0.0259787 -0.00565758)
(0.0457548 0.0256289 -0.0122024)
(0.0458898 0.0307057 0.00759063)
(0.0449452 0.0300613 0.000863652)
(0.0441978 0.0295492 -0.00565955)
(0.0436277 0.0291546 -0.0122081)
(0.0433645 0.0342163 0.00759463)
(0.0424714 0.0335028 0.000864823)
(0.0417643 0.0329363 -0.0056609)
(0.0412243 0.0325008 -0.0122121)
(0.0405658 0.0375099 0.00759685)
(0.0397282 0.0367324 0.000865516)
(0.0390646 0.0361156 -0.00566157)
(0.038557 0.0356426 -0.0122143)
(0.0375098 0.0405659 0.00759685)
(0.0367322 0.0397283 0.000865513)
(0.0361154 0.0390648 -0.00566157)
(0.0356424 0.0385571 -0.0122143)
(0.0342162 0.0433646 0.00759462)
(0.0335027 0.0424715 0.000864814)
(0.0329362 0.0417643 -0.00566091)
(0.0325007 0.0412244 -0.0122121)
(0.0307056 0.0458898 0.00759061)
(0.0300611 0.0449452 0.000863638)
(0.0295491 0.0441978 -0.00565957)
(0.0291545 0.0436277 -0.0122081)
(0.0270017 0.0481289 0.00758545)
(0.0264317 0.0471371 0.000862246)
(0.0259785 0.0463528 -0.00565761)
(0.0256287 0.0457548 -0.0122025)
(0.0231298 0.0500716 0.00757995)
(0.0226396 0.0490376 0.000860975)
(0.0222497 0.0482201 -0.00565509)
(0.0219486 0.0475968 -0.0121959)
(0.0191156 0.0517092 0.00757502)
(0.01871 0.0506389 0.000860254)
(0.0183874 0.0497927 -0.00565204)
(0.0181384 0.0491473 -0.0121887)
(0.0149849 0.053034 0.00757162)
(0.0146678 0.051934 0.000860602)
(0.0144157 0.0510642 -0.00564835)
(0.0142215 0.0504006 -0.0121814)
(0.0107636 0.0540386 0.00757072)
(0.0105377 0.0529162 0.000862628)
(0.0103582 0.0520286 -0.00564375)
(0.0102206 0.0513509 -0.012174)
(0.00647746 0.0547163 0.00757321)
(0.00634472 0.0535796 0.000867006)
(0.0062387 0.0526801 -0.00563779)
(0.00615827 0.0519928 -0.0121667)
(0.00215461 0.0550657 0.00757925)
(0.00211499 0.0539215 0.000874085)
(0.00208102 0.0530157 -0.00562973)
(0.00205682 0.0523229 -0.0121583)
(0.0742261 0.00291143 0.0062788)
(0.0728638 0.00286312 -0.000759436)
(0.0716561 0.00281747 -0.00752329)
(0.0705774 0.00277997 -0.0143655)
(0.073762 0.00874092 0.00627057)
(0.0724073 0.00858061 -0.000768874)
(0.0712065 0.00843781 -0.00753376)
(0.0701346 0.00831123 -0.0143762)
(0.0728547 0.0145207 0.00626767)
(0.0715172 0.0142488 -0.000773768)
(0.0703321 0.0140076 -0.00754012)
(0.0692748 0.0137916 -0.0143839)
(0.0715072 0.0202133 0.00626922)
(0.0701967 0.0198323 -0.000775091)
(0.0690354 0.0194941 -0.00754376)
(0.0679993 0.0191906 -0.0143901)
(0.0697277 0.025784 0.00627387)
(0.0684529 0.0252974 -0.000773992)
(0.0673228 0.0248653 -0.00754563)
(0.0663145 0.0244771 -0.0143953)
(0.0675254 0.0311981 0.00628037)
(0.066294 0.0306107 -0.000771427)
(0.0652019 0.030089 -0.00754636)
(0.0642273 0.0296201 -0.0143997)
(0.0649102 0.0364206 0.00628751)
(0.063729 0.0357384 -0.000768203)
(0.0626809 0.0351323 -0.00754641)
(0.0617452 0.0345877 -0.0144034)
(0.0618938 0.0414166 0.00629418)
(0.0607686 0.0406463 -0.000765011)
(0.0597695 0.0399616 -0.00754612)
(0.0588771 0.0393467 -0.0144063)
(0.0584901 0.0461521 0.00629942)
(0.0574257 0.0453001 -0.000762426)
(0.0564803 0.0445427 -0.00754572)
(0.0556351 0.0438631 -0.0144083)
(0.0547163 0.0505948 0.00630242)
(0.0537177 0.0496671 -0.000760925)
(0.0528303 0.0488423 -0.00754543)
(0.0520362 0.0481032 -0.0144093)
(0.0505947 0.0547164 0.00630241)
(0.049667 0.0537178 -0.000760931)
(0.0488422 0.0528304 -0.00754544)
(0.0481031 0.0520363 -0.0144093)
(0.046152 0.0584901 0.0062994)
(0.0453 0.0574258 -0.000762444)
(0.0445425 0.0564803 -0.00754574)
(0.043863 0.0556352 -0.0144083)
(0.0414165 0.0618939 0.00629416)
(0.0406462 0.0607686 -0.000765041)
(0.0399615 0.0597695 -0.00754615)
(0.0393466 0.0588771 -0.0144064)
(0.0364204 0.0649102 0.00628747)
(0.0357383 0.0637291 -0.000768244)
(0.0351322 0.0626809 -0.00754646)
(0.0345876 0.0617452 -0.0144035)
(0.031198 0.0675254 0.00628032)
(0.0306106 0.066294 -0.000771477)
(0.0300888 0.0652019 -0.00754642)
(0.02962 0.0642273 -0.0143998)
(0.0257839 0.0697277 0.00627382)
(0.0252973 0.0684529 -0.00077405)
(0.0248652 0.0673228 -0.00754569)
(0.024477 0.0663145 -0.0143954)
(0.0202132 0.0715072 0.00626916)
(0.0198322 0.0701967 -0.000775156)
(0.019494 0.0690353 -0.00754383)
(0.0191905 0.0679992 -0.0143902)
(0.0145207 0.0728547 0.00626761)
(0.0142487 0.0715172 -0.000773838)
(0.0140075 0.070332 -0.0075402)
(0.0137915 0.0692747 -0.014384)
(0.00874089 0.0737619 0.0062705)
(0.00858057 0.0724072 -0.000768948)
(0.00843776 0.0712064 -0.00753385)
(0.00831118 0.0701344 -0.0143763)
(0.00291142 0.0742261 0.00627874)
(0.0028631 0.0728636 -0.000759511)
(0.00281746 0.0716559 -0.00752338)
(0.00277996 0.0705773 -0.0143656)
(0.0937987 0.00368565 0.00298059)
(0.0922522 0.00362987 -0.00346801)
(0.0907279 0.00357226 -0.00957925)
(0.0892021 0.00351973 -0.0158288)
(0.0932185 0.0110525 0.00297058)
(0.0916793 0.010869 -0.00347871)
(0.0901621 0.0106883 -0.00959047)
(0.088644 0.010509 -0.0158398)
(0.0920775 0.0183563 0.00296708)
(0.0905578 0.0180457 -0.00348323)
(0.0890599 0.0177408 -0.00959534)
(0.0875619 0.0174356 -0.0158449)
(0.0903802 0.0255501 0.00296835)
(0.0888912 0.0251154 -0.0034833)
(0.0874229 0.0246884 -0.00959608)
(0.0859542 0.0242602 -0.0158465)
(0.0881362 0.0325904 0.00297281)
(0.0866876 0.0320357 -0.00348048)
(0.0852583 0.0314904 -0.00959419)
(0.083828 0.0309431 -0.015846)
(0.0853562 0.0394333 0.00297914)
(0.083957 0.0387643 -0.003476)
(0.082575 0.0381058 -0.00959079)
(0.0811917 0.0374448 -0.015844)
(0.0820529 0.0460349 0.00298619)
(0.0807105 0.0452582 -0.00347086)
(0.0793837 0.044493 -0.00958676)
(0.0780548 0.0437245 -0.0158414)
(0.0782411 0.0523509 0.00299291)
(0.0769619 0.0514742 -0.00346594)
(0.0756969 0.0506091 -0.00958289)
(0.0744293 0.0497404 -0.0158389)
(0.0739385 0.0583383 0.00299833)
(0.0727283 0.0573688 -0.00346202)
(0.0715311 0.0564111 -0.00957982)
(0.0703309 0.0554494 -0.0158369)
(0.0691674 0.063956 0.00300156)
(0.0680316 0.0629006 -0.00345976)
(0.0669082 0.0618569 -0.00957809)
(0.0657813 0.0608094 -0.0158357)
(0.0639559 0.0691674 0.00300155)
(0.0629005 0.0680316 -0.00345977)
(0.0618568 0.0669083 -0.0095781)
(0.0608093 0.0657813 -0.0158357)
(0.0583382 0.0739386 0.0029983)
(0.0573687 0.0727283 -0.00346205)
(0.056411 0.0715312 -0.00957985)
(0.0554493 0.0703309 -0.0158369)
(0.0523508 0.0782411 0.00299287)
(0.0514741 0.076962 -0.00346598)
(0.050609 0.075697 -0.00958293)
(0.0497403 0.0744293 -0.015839)
(0.0460348 0.082053 0.00298614)
(0.0452581 0.0807105 -0.00347092)
(0.0444929 0.0793837 -0.00958682)
(0.0437244 0.0780549 -0.0158415)
(0.0394333 0.0853563 0.00297907)
(0.0387642 0.0839569 -0.00347607)
(0.0381057 0.082575 -0.00959087)
(0.0374447 0.0811917 -0.0158441)
(0.0325903 0.0881362 0.00297273)
(0.0320356 0.0866876 -0.00348057)
(0.0314903 0.0852582 -0.00959429)
(0.030943 0.083828 -0.0158461)
(0.0255501 0.0903802 0.00296826)
(0.0251154 0.0888911 -0.00348339)
(0.0246883 0.0874229 -0.00959618)
(0.0242601 0.0859541 -0.0158467)
(0.0183563 0.0920775 0.00296699)
(0.0180457 0.0905578 -0.00348333)
(0.0177408 0.0890598 -0.00959545)
(0.0174355 0.0875618 -0.015845)
(0.0110525 0.0932185 0.00297048)
(0.0108689 0.0916792 -0.00347881)
(0.0106882 0.090162 -0.00959059)
(0.010509 0.0886439 -0.01584)
(0.00368565 0.0937986 0.00298048)
(0.00362986 0.0922521 -0.00346812)
(0.00357225 0.0907278 -0.00957937)
(0.00351972 0.089202 -0.015829)
(0.110977 0.00436563 -0.00279585)
(0.109298 0.00430463 -0.00738437)
(0.107477 0.00423653 -0.0116234)
(0.105497 0.00416956 -0.0160403)
(0.110295 0.0130772 -0.00280619)
(0.108621 0.0128782 -0.00739382)
(0.106808 0.0126639 -0.011632)
(0.104836 0.0124331 -0.0160475)
(0.108946 0.0217135 -0.00281075)
(0.107294 0.0213773 -0.00739667)
(0.105502 0.0210159 -0.0116327)
(0.103556 0.020623 -0.0160458)
(0.106938 0.0302199 -0.00281174)
(0.105319 0.0297494 -0.00739515)
(0.103562 0.029243 -0.0116282)
(0.101652 0.0286921 -0.0160384)
(0.104283 0.0385453 -0.00281045)
(0.102706 0.0379446 -0.0073909)
(0.100995 0.0372974 -0.0116205)
(0.0991341 0.0365931 -0.0160273)
(0.100991 0.0466381 -0.00280771)
(0.0994677 0.0459129 -0.00738512)
(0.0978124 0.0451306 -0.0116111)
(0.0960115 0.0442789 -0.0160144)
(0.0970797 0.0544467 -0.00280415)
(0.0956174 0.0536039 -0.00737878)
(0.0940274 0.0526934 -0.0116014)
(0.0922968 0.0517015 -0.0160014)
(0.092566 0.0619193 -0.00280034)
(0.0911723 0.0609666 -0.00737282)
(0.089656 0.0599354 -0.0115927)