/*--------------------------------*- C++ -*----------------------------------*\
| =========                 |                                                 |
| \\      /  F ield         | foam-extend: Open Source CFD                    |
|  \\    /   O peration     | Version:     3.1                                |
|   \\  /    A nd           | Web:         http://www.extend-project.de       |
|    \\/     M anipulation  |                                                 |
\*---------------------------------------------------------------------------*/
FoamFile
{
    version     2.0;
    format      ascii;
    class       volVectorField;
    location    "1.2";
    object      cellMotionU;
}
// * * * * * * * * * * * * * * * * * * * * * * * * * * * * * * * * * * * * * //

dimensions      [0 1 -1 0 0 0 0];

internalField   nonuniform List<vector> 
14592
(
(-1.87167e-10 3.56171e-11 4.81267e-11)
(-5.41022e-10 1.0392e-10 1.41532e-10)
(-8.60454e-10 1.68416e-10 2.32816e-10)
(-1.15468e-09 2.32166e-10 3.27806e-10)
(-1.43109e-09 2.97662e-10 4.31208e-10)
(-1.69548e-09 3.66873e-10 5.46646e-10)
(-1.9517e-09 4.41007e-10 6.76224e-10)
(-2.20097e-09 5.20433e-10 8.19515e-10)
(-2.44044e-09 6.03451e-10 9.71717e-10)
(-2.66169e-09 6.85054e-10 1.12088e-09)
(-2.84838e-09 7.53735e-10 1.24422e-09)
(-2.97331e-09 7.861e-10 1.3048e-09)
(-2.99189e-09 7.3878e-10 1.25301e-09)
(-2.83422e-09 5.41402e-10 1.04853e-09)
(-2.40276e-09 1.1466e-10 7.30296e-10)
(-1.72872e-09 -4.61837e-10 5.29997e-10)
(-5.56952e-10 1.05039e-10 1.4276e-10)
(-1.61019e-09 3.06622e-10 4.19922e-10)
(-2.56153e-09 4.9691e-10 6.90999e-10)
(-3.43876e-09 6.85125e-10 9.73447e-10)
(-4.26389e-09 8.78566e-10 1.28139e-09)
(-5.05507e-09 1.08291e-09 1.62618e-09)
(-5.82572e-09 1.30225e-09 2.01531e-09)
(-6.5825e-09 1.5381e-09 2.44975e-09)
(-7.32263e-09 1.78695e-09 2.91941e-09)
(-8.03074e-09 2.03749e-09 3.39613e-09)
(-8.67558e-09 2.26186e-09 3.82423e-09)
(-9.21411e-09 2.40477e-09 4.11392e-09)
(-9.59302e-09 2.35944e-09 4.14406e-09)
(-9.79436e-09 1.94571e-09 3.82682e-09)
(-9.9377e-09 9.33935e-10 3.30146e-09)
(-1.03785e-08 -5.46841e-10 3.17369e-09)
(-9.18934e-10 1.70366e-10 2.34135e-10)
(-2.65663e-09 4.97122e-10 6.88726e-10)
(-4.22682e-09 8.05636e-10 1.13366e-09)
(-5.67732e-09 1.11097e-09 1.59823e-09)
(-7.04353e-09 1.4245e-09 2.10577e-09)
(-8.35956e-09 1.75587e-09 2.67706e-09)
(-9.65312e-09 2.1128e-09 3.32793e-09)
(-1.09439e-08 2.49846e-09 4.06639e-09)
(-1.2243e-08 2.91198e-09 4.88788e-09)
(-1.35496e-08 3.34182e-09 5.76658e-09)
(-1.48526e-08 3.76092e-09 6.64467e-09)
(-1.61667e-08 4.11701e-09 7.43307e-09)
(-1.75463e-08 4.30501e-09 8.00685e-09)
(-1.92436e-08 4.1467e-09 8.30264e-09)
(-2.19491e-08 3.4067e-09 8.58566e-09)
(-2.62555e-08 2.16841e-09 9.59861e-09)
(-1.2681e-09 2.2905e-10 3.20314e-10)
(-3.66596e-09 6.68335e-10 9.42248e-10)
(-5.83324e-09 1.08301e-09 1.55135e-09)
(-7.83276e-09 1.49241e-09 2.18701e-09)
(-9.72034e-09 1.91255e-09 2.8834e-09)
(-1.15508e-08 2.35746e-09 3.67288e-09)
(-1.33696e-08 2.8375e-09 4.58231e-09)
(-1.52191e-08 3.35988e-09 5.63353e-09)
(-1.71402e-08 3.92765e-09 6.84018e-09)
(-1.91741e-08 4.53757e-09 8.20243e-09)
(-2.13779e-08 5.17872e-09 9.7054e-09)
(-2.38359e-08 5.82634e-09 1.1306e-08)
(-2.67626e-08 6.44117e-09 1.29634e-08)
(-3.06189e-08 6.9598e-09 1.4698e-08)
(-3.63507e-08 7.30378e-09 1.68223e-08)
(-4.4216e-08 7.44747e-09 1.97799e-08)
(-1.59807e-09 2.7882e-10 3.99206e-10)
(-4.61844e-09 8.13264e-10 1.17393e-09)
(-7.34557e-09 1.31692e-09 1.93191e-09)
(-9.86278e-09 1.81385e-09 2.72363e-09)
(-1.22483e-08 2.32409e-09 3.59477e-09)
(-1.4573e-08 2.86461e-09 4.58755e-09)
(-1.69049e-08 3.44796e-09 5.74236e-09)
(-1.93175e-08 4.0857e-09 7.09973e-09)
(-2.18939e-08 4.78504e-09 8.70116e-09)
(-2.474e-08 5.55224e-09 1.05916e-08)
(-2.80026e-08 6.39304e-09 1.28245e-08)
(-3.18869e-08 7.31649e-09 1.54667e-08)
(-3.67343e-08 8.35053e-09 1.862e-08)
(-4.312e-08 9.55672e-09 2.24649e-08)
(-5.1814e-08 1.10143e-08 2.72692e-08)
(-6.22349e-08 1.25463e-08 3.2672e-08)
(-1.90222e-09 3.17617e-10 4.68852e-10)
(-5.49856e-09 9.26505e-10 1.37899e-09)
(-8.74617e-09 1.5003e-09 2.26937e-09)
(-1.17473e-08 2.06631e-09 3.20023e-09)
(-1.45954e-08 2.64733e-09 4.22606e-09)
(-1.73795e-08 3.26168e-09 5.3991e-09)
(-2.01917e-08 3.92508e-09 6.7731e-09)
(-2.31361e-08 4.64948e-09 8.40719e-09)
(-2.63427e-08 5.44596e-09 1.03722e-08)
(-2.99853e-08 6.32383e-09 1.27601e-08)
(-3.43122e-08 7.29497e-09 1.57019e-08)
(-3.96912e-08 8.38122e-09 1.93982e-08)
(-4.66584e-08 9.62832e-09 2.41589e-08)
(-5.59773e-08 1.11303e-08 3.04366e-08)
(-6.82389e-08 1.3009e-08 3.86015e-08)
(-8.15748e-08 1.50769e-08 4.73358e-08)
(-2.17902e-09 3.44572e-10 5.28847e-10)
(-6.29945e-09 1.00531e-09 1.55544e-09)
(-1.00196e-08 1.62788e-09 2.55903e-09)
(-1.34567e-08 2.24177e-09 3.60741e-09)
(-1.67185e-08 2.87152e-09 4.76232e-09)
(-1.99094e-08 3.53637e-09 6.08398e-09)
(-2.31407e-08 4.25248e-09 7.63631e-09)
(-2.65427e-08 5.03237e-09 9.49293e-09)
(-3.02825e-08 5.88575e-09 1.17463e-08)
(-3.45897e-08 6.81954e-09 1.45232e-08)
(-3.97992e-08 7.83907e-09 1.80117e-08)
(-4.64203e-08 8.94778e-09 2.25114e-08)
(-5.52751e-08 1.01523e-08 2.85371e-08)
(-6.75377e-08 1.14422e-08 3.6866e-08)
(-8.44255e-08 1.27605e-08 4.83816e-08)
(-1.03631e-07 1.39116e-08 6.15836e-08)
(-2.42477e-09 3.58781e-10 5.78475e-10)
(-7.01013e-09 1.04711e-09 1.70112e-09)
(-1.11472e-08 1.69554e-09 2.79684e-09)
(-1.49644e-08 2.33499e-09 3.93874e-09)
(-1.85799e-08 2.99004e-09 5.19324e-09)
(-2.21088e-08 3.68073e-09 6.62545e-09)
(-2.56741e-08 4.42231e-09 8.3046e-09)
(-2.94204e-08 5.226e-09 1.0311e-08)
(-3.35329e-08 6.09841e-09 1.27457e-08)
(-3.82649e-08 7.04052e-09 1.57463e-08)
(-4.39811e-08 8.04436e-09 1.95133e-08)
(-5.12335e-08 9.08707e-09 2.43599e-08)
(-6.09327e-08 1.01157e-08 3.08255e-08)
(-7.44938e-08 1.09858e-08 3.97763e-08)
(-9.41004e-08 1.13434e-08 5.25742e-08)
(-1.20012e-07 1.06247e-08 6.93417e-08)
(-1.82578e-10 3.65606e-11 4.56785e-11)
(-5.26972e-10 1.06686e-10 1.34244e-10)
(-8.35566e-10 1.72856e-10 2.20548e-10)
(-1.11593e-09 2.38277e-10 3.09951e-10)
(-1.37348e-09 3.05436e-10 4.06667e-10)
(-1.61099e-09 3.7615e-10 5.1365e-10)
(-1.82816e-09 4.51455e-10 6.3216e-10)
(-2.01974e-09 5.31018e-10 7.6051e-10)
(-2.17313e-09 6.1215e-10 8.92023e-10)
(-2.26459e-09 6.87699e-10 1.01178e-09)
(-2.25395e-09 7.42493e-10 1.09215e-09)
(-2.07619e-09 7.47794e-10 1.08804e-09)
(-1.625e-09 6.5464e-10 9.34471e-10)
(-7.2725e-10 3.97388e-10 5.58245e-10)
(8.63226e-10 -5.71625e-11 -7.40534e-11)
(3.06275e-09 -5.31796e-10 -7.92936e-10)
(-5.43585e-10 1.07865e-10 1.35514e-10)
(-1.56921e-09 3.14732e-10 3.98332e-10)
(-2.48897e-09 5.10069e-10 6.54657e-10)
(-3.3258e-09 7.03226e-10 9.20539e-10)
(-4.09651e-09 9.01616e-10 1.20878e-09)
(-4.81014e-09 1.11063e-09 1.52865e-09)
(-5.46831e-09 1.33362e-09 1.8852e-09)
(-6.05947e-09 1.57033e-09 2.2758e-09)
(-6.55285e-09 1.81447e-09 2.685e-09)
(-6.88908e-09 2.04818e-09 3.07606e-09)
(-6.96843e-09 2.23365e-09 3.37972e-09)
(-6.63846e-09 2.29779e-09 3.48272e-09)
(-5.67066e-09 2.11099e-09 3.22022e-09)
(-3.75955e-09 1.48135e-09 2.40801e-09)
(-6.08545e-10 2.43453e-10 9.64707e-10)
(3.2996e-09 -1.2703e-09 -7.05247e-10)
(-8.97747e-10 1.7492e-10 2.2229e-10)
(-2.59178e-09 5.10456e-10 6.53464e-10)
(-4.11174e-09 8.27119e-10 1.07421e-09)
(-5.49756e-09 1.14034e-09 1.51149e-09)
(-6.78019e-09 1.46245e-09 1.9874e-09)
(-7.97569e-09 1.80185e-09 2.51827e-09)
(-9.09527e-09 2.16498e-09 3.11646e-09)
(-1.01315e-08 2.55362e-09 3.78452e-09)
(-1.10525e-08 2.96111e-09 4.50933e-09)
(-1.17908e-08 3.36798e-09 5.25233e-09)
(-1.22285e-08 3.72982e-09 5.93485e-09)
(-1.22074e-08 3.96527e-09 6.43209e-09)
(-1.15029e-08 3.92096e-09 6.55193e-09)
(-9.90092e-09 3.35641e-09 6.0763e-09)
(-7.37589e-09 2.01327e-09 4.89191e-09)
(-4.59149e-09 1.59383e-10 3.35254e-09)
(-1.24061e-09 2.35314e-10 3.04212e-10)
(-3.58175e-09 6.86514e-10 8.94288e-10)
(-5.6829e-09 1.11206e-09 1.47021e-09)
(-7.60257e-09 1.53289e-09 2.06989e-09)
(-9.38242e-09 1.96483e-09 2.72331e-09)
(-1.10593e-08 2.42062e-09 3.45797e-09)
(-1.26601e-08 2.91053e-09 4.29692e-09)
(-1.41932e-08 3.43853e-09 5.25438e-09)
(-1.56478e-08 4.00238e-09 6.33338e-09)
(-1.69832e-08 4.58745e-09 7.51784e-09)
(-1.81186e-08 5.1629e-09 8.76575e-09)
(-1.89158e-08 5.66426e-09 9.99078e-09)
(-1.92068e-08 5.98157e-09 1.10658e-08)
(-1.87828e-08 5.93151e-09 1.18089e-08)
(-1.75137e-08 5.29193e-09 1.20232e-08)
(-1.56332e-08 4.149e-09 1.16124e-08)
(-1.56787e-09 2.86891e-10 3.79735e-10)
(-4.52192e-09 8.35983e-10 1.11502e-09)
(-7.17212e-09 1.35317e-09 1.83212e-09)
(-9.59749e-09 1.86429e-09 2.57941e-09)
(-1.18572e-08 2.38885e-09 3.39689e-09)
(-1.40097e-08 2.94357e-09 4.32307e-09)
(-1.60996e-08 3.54075e-09 5.39234e-09)
(-1.81642e-08 4.18792e-09 6.63649e-09)
(-2.02331e-08 4.88729e-09 8.08476e-09)
(-2.23245e-08 5.63335e-09 9.76316e-09)
(-2.44379e-08 6.40903e-09 1.16947e-08)
(-2.652e-08 7.17904e-09 1.38942e-08)
(-2.84488e-08 7.88365e-09 1.63615e-08)
(-2.99346e-08 8.41981e-09 1.90334e-08)
(-3.02871e-08 8.61335e-09 2.15758e-08)
(-2.87567e-08 8.30634e-09 2.30367e-08)
(-1.86741e-09 3.2653e-10 4.45614e-10)
(-5.39102e-09 9.52407e-10 1.30961e-09)
(-8.55712e-09 1.54219e-09 2.15286e-09)
(-1.14583e-08 2.12469e-09 3.03168e-09)
(-1.41746e-08 2.72269e-09 3.9958e-09)
(-1.67801e-08 3.35495e-09 5.09253e-09)
(-1.93441e-08 4.03552e-09 6.36877e-09)
(-2.19382e-08 4.77461e-09 7.87452e-09)
(-2.46414e-08 5.57704e-09 9.66689e-09)
(-2.75467e-08 6.44117e-09 1.18173e-08)
(-3.07647e-08 7.35666e-09 1.44234e-08)
(-3.44147e-08 8.29985e-09 1.7627e-08)
(-3.85434e-08 9.22375e-09 2.16133e-08)
(-4.2954e-08 1.00388e-08 2.65428e-08)
(-4.64588e-08 1.05593e-08 3.20744e-08)
(-4.66049e-08 1.05282e-08 3.62523e-08)
(-2.14214e-09 3.5429e-10 5.02607e-10)
(-6.18715e-09 1.03372e-09 1.47749e-09)
(-9.82377e-09 1.67418e-09 2.42849e-09)
(-1.31591e-08 2.30654e-09 3.4189e-09)
(-1.62894e-08 2.95549e-09 4.50558e-09)
(-1.93049e-08 3.64118e-09 5.74342e-09)
(-2.22974e-08 4.3786e-09 7.18919e-09)
(-2.53692e-08 5.17838e-09 8.90684e-09)
(-2.86453e-08 6.04547e-09 1.09748e-08)
(-3.22896e-08 6.97715e-09 1.34982e-08)
(-3.65264e-08 7.95848e-09 1.66297e-08)
(-4.16655e-08 8.95393e-09 2.06044e-08)
(-4.81151e-08 9.88711e-09 2.57905e-08)
(-5.6188e-08 1.05897e-08 3.26124e-08)
(-6.52804e-08 1.07562e-08 4.10538e-08)
(-7.17747e-08 1.01695e-08 4.86577e-08)
(-2.38769e-09 3.69084e-10 5.49901e-10)
(-6.89761e-09 1.07711e-09 1.61629e-09)
(-1.0952e-08 1.74475e-09 2.65511e-09)
(-1.46699e-08 2.40381e-09 3.73453e-09)
(-1.81596e-08 3.08037e-09 4.9162e-09)
(-2.15238e-08 3.79424e-09 6.2595e-09)
(-2.48698e-08 4.56086e-09 7.82666e-09)
(-2.83205e-08 5.39006e-09 9.68843e-09)
(-3.20296e-08 6.28511e-09 1.1932e-08)
(-3.62026e-08 7.2395e-09 1.46736e-08)
(-4.11278e-08 8.23126e-09 1.80788e-08)
(-4.7222e-08 9.2092e-09 2.23954e-08)
(-5.51134e-08 1.00662e-08 2.80134e-08)
(-6.55953e-08 1.05651e-08 3.54245e-08)
(-7.93381e-08 1.02493e-08 4.49591e-08)
(-9.44457e-08 8.70707e-09 5.50346e-08)
(-1.77511e-10 3.74224e-11 4.15851e-11)
(-5.11474e-10 1.09191e-10 1.22129e-10)
(-8.08138e-10 1.76951e-10 2.00376e-10)
(-1.07316e-09 2.43937e-10 2.81009e-10)
(-1.30967e-09 3.12716e-10 3.67559e-10)
(-1.51714e-09 3.85061e-10 4.62158e-10)
(-1.69052e-09 4.61857e-10 5.65023e-10)
(-1.81763e-09 5.42543e-10 6.73025e-10)
(-1.87535e-09 6.23881e-10 7.7732e-10)
(-1.8244e-09 6.97949e-10 8.59628e-10)
(-1.60169e-09 7.48685e-10 8.8684e-10)
(-1.10924e-09 7.47088e-10 8.0434e-10)
(-1.96259e-10 6.4859e-10 5.30489e-10)
(1.36122e-09 4.0661e-10 -3.60999e-11)
(3.82382e-09 3.86271e-11 -9.59925e-10)
(6.88669e-09 -2.30316e-10 -2.01185e-09)
(-5.28799e-10 1.10399e-10 1.2338e-10)
(-1.52402e-09 3.22224e-10 3.62435e-10)
(-2.40897e-09 5.222e-10 5.94861e-10)
(-3.20117e-09 7.20028e-10 8.34733e-10)
(-3.91089e-09 9.23292e-10 1.09285e-09)
(-4.53753e-09 1.13715e-09 1.376e-09)
(-5.06923e-09 1.36468e-09 1.68615e-09)
(-5.47435e-09 1.60494e-09 2.01635e-09)
(-5.69173e-09 1.85003e-09 2.34458e-09)
(-5.6165e-09 2.0801e-09 2.62397e-09)
(-5.08098e-09 2.25401e-09 2.7684e-09)
(-3.83309e-09 2.29659e-09 2.6353e-09)
(-1.51031e-09 2.08469e-09 2.00896e-09)
(2.33918e-09 1.46261e-09 6.2062e-10)
(8.01877e-09 3.62926e-10 -1.69966e-09)
(1.42882e-08 -7.97307e-10 -4.34819e-09)
(-8.74306e-10 1.79132e-10 2.02443e-10)
(-2.52005e-09 5.22656e-10 5.94706e-10)
(-3.98486e-09 8.46955e-10 9.76339e-10)
(-5.30024e-09 1.16787e-09 1.37105e-09)
(-6.48735e-09 1.49803e-09 1.79773e-09)
(-7.54695e-09 1.84547e-09 2.26853e-09)
(-8.46985e-09 2.21658e-09 2.79081e-09)
(-9.21751e-09 2.6114e-09 3.35975e-09)
(-9.71111e-09 3.0218e-09 3.95143e-09)
(-9.81088e-09 3.42394e-09 4.5098e-09)
(-9.28934e-09 3.76905e-09 4.92755e-09)
(-7.81965e-09 3.96826e-09 5.02862e-09)
(-4.94462e-09 3.86795e-09 4.5337e-09)
(-1.84637e-10 3.25162e-09 3.081e-09)
(6.51403e-09 1.94413e-09 4.08468e-10)
(1.31723e-08 3.09884e-10 -2.78741e-09)
(-1.21002e-09 2.41006e-10 2.77131e-10)
(-3.48818e-09 7.03106e-10 8.14126e-10)
(-5.51753e-09 1.13903e-09 1.3367e-09)
(-7.34656e-09 1.57053e-09 1.87847e-09)
(-9.00402e-09 2.01342e-09 2.46505e-09)
(-1.05078e-08 2.48057e-09 3.11807e-09)
(-1.18599e-08 2.98155e-09 3.85364e-09)
(-1.30302e-08 3.51935e-09 4.67602e-09)
(-1.39493e-08 4.08858e-09 5.57284e-09)
(-1.44863e-08 4.67078e-09 6.50422e-09)
(-1.44051e-08 5.22663e-09 7.3818e-09)
(-1.33436e-08 5.68075e-09 8.04979e-09)
(-1.07847e-08 5.91201e-09 8.25289e-09)
(-6.08513e-09 5.74143e-09 7.60684e-09)
(1.03288e-09 5.00702e-09 5.72262e-09)
(8.54222e-09 3.93433e-09 3.01225e-09)
(-1.53209e-09 2.93957e-10 3.46082e-10)
(-4.4123e-09 8.56594e-10 1.0155e-09)
(-6.97886e-09 1.38656e-09 1.66654e-09)
(-9.29967e-09 1.91086e-09 2.34229e-09)
(-1.14184e-08 2.44903e-09 3.07691e-09)
(-1.33743e-08 3.01832e-09 3.90225e-09)
(-1.51843e-08 3.63001e-09 4.84386e-09)
(-1.68442e-08 4.2908e-09 5.92101e-09)
(-1.83193e-08 4.99978e-09 7.14318e-09)
(-1.95255e-08 5.7459e-09 8.50412e-09)
(-2.02917e-08 6.50265e-09 9.96996e-09)
(-2.02846e-08 7.21944e-09 1.14578e-08)
(-1.89322e-08 7.81765e-09 1.2797e-08)
(-1.53218e-08 8.18233e-09 1.36595e-08)
(-8.40457e-09 8.18906e-09 1.34929e-08)
(4.59863e-10 7.86788e-09 1.20727e-08)
(-1.8279e-09 3.3468e-10 4.06196e-10)
(-5.27045e-09 9.76063e-10 1.19302e-09)
(-8.34581e-09 1.58088e-09 1.95908e-09)
(-1.11341e-08 2.17862e-09 2.75437e-09)
(-1.37004e-08 2.79292e-09 3.62204e-09)
(-1.60992e-08 3.44247e-09 4.60167e-09)
(-1.83726e-08 4.14137e-09 5.73013e-09)
(-2.05515e-08 4.89812e-09 7.04253e-09)
(-2.26522e-08 5.71491e-09 8.57294e-09)
(-2.46673e-08 6.58444e-09 1.03541e-08)
(-2.65397e-08 7.48565e-09 1.24159e-08)
(-2.81023e-08 8.37834e-09 1.47802e-08)
(-2.88875e-08 9.19131e-09 1.7402e-08)
(-2.79646e-08 9.81849e-09 2.0099e-08)
(-2.35556e-08 1.0134e-08 2.22345e-08)
(-1.52925e-08 1.01214e-08 2.27882e-08)
(-2.10061e-09 3.63175e-10 4.58234e-10)
(-6.06101e-09 1.05977e-09 1.34635e-09)
(-9.60379e-09 1.71682e-09 2.21077e-09)
(-1.28237e-08 2.36621e-09 3.10777e-09)
(-1.58028e-08 3.03379e-09 4.08714e-09)
(-1.86132e-08 3.73945e-09 5.19524e-09)
(-2.13216e-08 4.49855e-09 6.47799e-09)
(-2.39941e-08 5.3206e-09 7.98338e-09)
(-2.67006e-08 6.20814e-09 9.76476e-09)
(-2.95176e-08 7.15324e-09 1.18851e-08)
(-3.25247e-08 8.13189e-09 1.44228e-08)
(-3.57794e-08 9.0926e-09 1.74746e-08)
(-3.92283e-08 9.93741e-09 2.11394e-08)
(-4.24832e-08 1.04906e-08 2.53936e-08)
(-4.42875e-08 1.0527e-08 2.97284e-08)
(-4.27813e-08 1.00945e-08 3.25903e-08)
(-2.34575e-09 3.78429e-10 5.01477e-10)
(-6.7706e-09 1.10472e-09 1.47333e-09)
(-1.07316e-08 1.78997e-09 2.41804e-09)
(-1.43362e-08 2.46765e-09 3.39651e-09)
(-1.76796e-08 3.16412e-09 4.46274e-09)
(-2.0849e-08 3.90048e-09 5.66764e-09)
(-2.39301e-08 4.69204e-09 7.06224e-09)
(-2.70157e-08 5.54832e-09 8.70125e-09)
(-3.02151e-08 6.471e-09 1.0647e-08)
(-3.36657e-08 7.45036e-09 1.29741e-08)
(-3.75449e-08 8.45801e-09 1.57752e-08)
(-4.2081e-08 9.43449e-09 1.91629e-08)
(-4.75619e-08 1.02653e-08 2.32605e-08)
(-5.42546e-08 1.07301e-08 2.80832e-08)
(-6.23203e-08 1.04757e-08 3.32867e-08)
(-7.10777e-08 9.30495e-09 3.76114e-08)
(-1.72395e-10 3.81933e-11 3.60474e-11)
(-4.95836e-10 1.11464e-10 1.05795e-10)
(-7.80457e-10 1.80642e-10 1.73334e-10)
(-1.03e-09 2.49107e-10 2.42541e-10)
(-1.24523e-09 3.19476e-10 3.16172e-10)
(-1.42246e-09 3.93571e-10 3.9553e-10)
(-1.55219e-09 4.72377e-10 4.79891e-10)
(-1.61597e-09 5.55384e-10 5.64951e-10)
(-1.58214e-09 6.39614e-10 6.40399e-10)
(-1.40027e-09 7.17644e-10 6.86067e-10)
(-9.94676e-10 7.74705e-10 6.66605e-10)
(-2.5648e-10 7.84673e-10 5.24961e-10)
(9.62286e-10 7.09297e-10 1.78962e-10)
(2.8448e-09 5.13375e-10 -4.66145e-10)
(5.53375e-09 2.25525e-10 -1.44819e-09)
(8.55537e-09 4.72283e-11 -2.4882e-09)
(-5.13857e-10 1.12704e-10 1.06964e-10)
(-1.47832e-09 3.28878e-10 3.13983e-10)
(-2.32816e-09 5.33125e-10 5.14643e-10)
(-3.07524e-09 7.35328e-10 7.20594e-10)
(-3.72313e-09 9.43281e-10 9.40318e-10)
(-4.26207e-09 1.16241e-09 1.17813e-09)
(-4.66731e-09 1.39591e-09 1.43308e-09)
(-4.88907e-09 1.64309e-09 1.69455e-09)
(-4.84104e-09 1.89678e-09 1.93574e-09)
(-4.38483e-09 2.13848e-09 2.1033e-09)
(-3.31463e-09 2.33141e-09 2.10339e-09)
(-1.34022e-09 2.40818e-09 1.78311e-09)
(1.90029e-09 2.26424e-09 9.21794e-10)
(6.74542e-09 1.77661e-09 -7.32552e-10)
(1.3142e-08 9.11067e-10 -3.26716e-09)
(1.93107e-08 2.07841e-11 -5.90752e-09)
(-8.50519e-10 1.82832e-10 1.75532e-10)
(-2.44742e-09 5.33567e-10 5.15327e-10)
(-3.85653e-09 8.64799e-10 8.44902e-10)
(-5.10063e-09 1.19285e-09 1.18399e-09)
(-6.19042e-09 1.53073e-09 1.54762e-09)
(-7.11258e-09 1.88688e-09 1.94383e-09)
(-7.83771e-09 2.26761e-09 2.37482e-09)
(-8.29924e-09 2.67394e-09 2.82935e-09)
(-8.378e-09 3.09809e-09 3.27424e-09)
(-7.87785e-09 3.51867e-09 3.64026e-09)
(-6.51217e-09 3.89515e-09 3.80594e-09)
(-3.87132e-09 4.14916e-09 3.56768e-09)
(5.26163e-10 4.15747e-09 2.62825e-09)
(7.01876e-09 3.75812e-09 6.40893e-10)
(1.51136e-08 2.8391e-09 -2.52469e-09)
(2.18837e-08 1.6859e-09 -5.85304e-09)
(-1.17888e-09 2.46069e-10 2.40365e-10)
(-3.39315e-09 7.17952e-10 7.05673e-10)
(-5.34998e-09 1.16328e-09 1.15716e-09)
(-7.08672e-09 1.60449e-09 1.62295e-09)
(-8.6192e-09 2.05796e-09 2.12359e-09)
(-9.94714e-09 2.53681e-09 2.6744e-09)
(-1.10474e-08 3.05118e-09 3.28435e-09)
(-1.18549e-08 3.60447e-09 3.94786e-09)
(-1.22493e-08 4.19241e-09 4.63825e-09)
(-1.20269e-08 4.80027e-09 5.29595e-09)
(-1.0853e-08 5.39545e-09 5.79933e-09)
(-8.25097e-09 5.91823e-09 5.94888e-09)
(-3.61843e-09 6.28808e-09 5.44407e-09)
(3.59036e-09 6.40147e-09 3.89783e-09)
(1.3015e-08 6.20074e-09 1.09713e-09)
(2.12603e-08 5.84116e-09 -2.04361e-09)
(-1.49531e-09 3.00238e-10 3.00266e-10)
(-4.30033e-09 8.74825e-10 8.80515e-10)
(-6.78215e-09 1.41645e-09 1.4433e-09)
(-8.996e-09 1.95275e-09 2.02479e-09)
(-1.09707e-08 2.5041e-09 2.65261e-09)
(-1.27255e-08 3.08783e-09 3.35068e-09)
(-1.425e-08 3.71635e-09 4.13537e-09)
(-1.55008e-08 4.39639e-09 5.01267e-09)
(-1.63869e-08 5.12859e-09 5.97267e-09)
(-1.67435e-08 5.90529e-09 6.97953e-09)
(-1.62696e-08 6.70335e-09 7.94678e-09)
(-1.44826e-08 7.49217e-09 8.7229e-09)
(-1.0669e-08 8.23723e-09 9.05562e-09)
(-3.90632e-09 8.91224e-09 8.57065e-09)
(6.23498e-09 9.54028e-09 6.92888e-09)
(1.66903e-08 1.01164e-08 4.64366e-09)
(-1.7874e-09 3.41843e-10 3.52508e-10)
(-5.14732e-09 9.97172e-10 1.03478e-09)
(-8.1301e-09 1.61538e-09 1.69736e-09)
(-1.08028e-08 2.2272e-09 2.38234e-09)
(-1.32147e-08 2.85676e-09 3.12495e-09)
(-1.54005e-08 3.52358e-09 3.95583e-09)
(-1.73746e-08 4.24206e-09 4.90045e-09)
(-1.91288e-08 5.02163e-09 5.97804e-09)
(-2.06227e-08 5.86509e-09 7.19811e-09)
(-2.17658e-08 6.76688e-09 8.55421e-09)
(-2.23772e-08 7.70977e-09 1.00112e-08)
(-2.21201e-08 8.6689e-09 1.14928e-08)
(-2.03308e-08 9.60835e-09 1.28141e-08)
(-1.60057e-08 1.05077e-08 1.36804e-08)
(-7.8864e-09 1.14069e-08 1.36489e-08)
(2.60066e-09 1.23169e-08 1.26781e-08)
(-2.05808e-09 3.71078e-10 3.97786e-10)
(-5.93191e-09 1.08297e-09 1.16817e-09)
(-9.37859e-09 1.75491e-09 1.91625e-09)
(-1.24797e-08 2.41999e-09 2.68956e-09)
(-1.53023e-08 3.10454e-09 3.52898e-09)
(-1.78995e-08 3.82979e-09 4.47118e-09)
(-2.03124e-08 4.61134e-09 5.54938e-09)
(-2.25712e-08 5.45947e-09 6.79375e-09)
(-2.46945e-08 6.37725e-09 8.23022e-09)
(-2.66852e-08 7.35778e-09 9.87742e-09)
(-2.85159e-08 8.37917e-09 1.17399e-08)
(-3.00997e-08 9.39837e-09 1.37952e-08)
(-3.11855e-08 1.03368e-08 1.59498e-08)
(-3.13445e-08 1.10757e-08 1.79898e-08)
(-2.98032e-08 1.14973e-08 1.94762e-08)
(-2.63541e-08 1.16796e-08 1.99333e-08)
(-2.3027e-09 3.86811e-10 4.35468e-10)
(-6.64021e-09 1.1292e-09 1.27876e-09)
(-1.05051e-08 1.8304e-09 2.09682e-09)
(-1.39924e-08 2.52467e-09 2.94106e-09)
(-1.71837e-08 3.2399e-09 3.85636e-09)
(-2.01488e-08 3.99759e-09 4.88319e-09)
(-2.29513e-08 4.81415e-09 6.05964e-09)
(-2.56534e-08 5.69984e-09 7.4222e-09)
(-2.83222e-08 6.65717e-09 9.00543e-09)
(-3.1036e-08 7.67729e-09 1.08396e-08)
(-3.38907e-08 8.734e-09 1.29441e-08)
(-3.70082e-08 9.77315e-09 1.53114e-08)
(-4.0559e-08 1.06933e-08 1.78737e-08)
(-4.48352e-08 1.12998e-08 2.04233e-08)
(-5.0551e-08 1.12476e-08 2.25672e-08)
(-5.85969e-08 1.01853e-08 2.38943e-08)
(-1.67654e-10 3.88509e-11 2.93013e-11)
(-4.81348e-10 1.13372e-10 8.59371e-11)
(-7.5484e-10 1.83805e-10 1.40615e-10)
(-9.9007e-10 2.53582e-10 1.96329e-10)
(-1.18574e-09 3.25449e-10 2.55073e-10)
(-1.33548e-09 4.01396e-10 3.17477e-10)
(-1.4261e-09 4.82564e-10 3.82197e-10)
(-1.43455e-09 5.68876e-10 4.44504e-10)
(-1.32379e-09 6.58032e-10 4.94015e-10)
(-1.03848e-09 7.43952e-10 5.1135e-10)
(-5.01923e-10 8.1411e-10 4.63826e-10)
(3.84676e-10 8.45519e-10 3.00988e-10)
(1.73357e-09 8.02948e-10 -4.47199e-11)
(3.64862e-09 6.48288e-10 -6.40442e-10)
(6.1538e-09 3.86981e-10 -1.48661e-09)
(8.77024e-09 1.72079e-10 -2.31921e-09)
(-4.99986e-10 1.14614e-10 8.69475e-11)
(-1.43599e-09 3.34573e-10 2.55082e-10)
(-2.25331e-09 5.42473e-10 4.17547e-10)
(-2.95867e-09 7.48552e-10 5.83392e-10)
(-3.54959e-09 9.60961e-10 7.588e-10)
(-4.00871e-09 1.18552e-09 9.46007e-10)
(-4.30039e-09 1.42596e-09 1.14206e-09)
(-4.36149e-09 1.68282e-09 1.33474e-09)
(-4.08963e-09 1.95092e-09 1.49637e-09)
(-3.33102e-09 2.21589e-09 1.57479e-09)
(-1.87419e-09 2.44789e-09 1.48187e-09)
(5.47251e-10 2.59049e-09 1.08076e-09)
(4.19971e-09 2.55295e-09 1.89229e-10)
(9.20071e-09 2.21794e-09 -1.368e-09)
(1.51588e-08 1.51542e-09 -3.56869e-09)
(2.0271e-08 6.85671e-10 -5.66638e-09)
(-8.28427e-10 1.86e-10 1.42722e-10)
(-2.38e-09 5.4283e-10 4.18736e-10)
(-3.73752e-09 8.80042e-10 6.85667e-10)
(-4.91554e-09 1.21441e-09 9.58885e-10)
(-5.91538e-09 1.55951e-09 1.24952e-09)
(-6.71217e-09 1.92444e-09 1.56197e-09)
(-7.25914e-09 2.31645e-09 1.89477e-09)
(-7.46859e-09 2.73807e-09 2.23294e-09)
(-7.19549e-09 3.18519e-09 2.5402e-09)
(-6.21621e-09 3.64249e-09 2.74573e-09)
(-4.22943e-09 4.08209e-09 2.73166e-09)
(-8.46603e-10 4.44569e-09 2.30987e-09)
(4.28902e-09 4.6427e-09 1.23147e-09)
(1.12027e-08 4.5469e-09 -7.41368e-10)
(1.889e-08 4.04377e-09 -3.56578e-09)
(2.43154e-08 3.26393e-09 -6.22118e-09)
(-1.14987e-09 2.5035e-10 1.95481e-10)
(-3.30477e-09 7.3048e-10 5.73566e-10)
(-5.19437e-09 1.18395e-09 9.39391e-10)
(-6.84542e-09 1.63375e-09 1.31502e-09)
(-8.26266e-09 2.09702e-09 1.71606e-09)
(-9.4291e-09 2.58768e-09 2.15116e-09)
(-1.03012e-08 3.11681e-09 2.62432e-09)
(-1.07867e-08 3.69022e-09 3.12337e-09)
(-1.07314e-08 4.30758e-09 3.6141e-09)
(-9.89035e-09 4.96276e-09 4.02805e-09)
(-7.90311e-09 5.63788e-09 4.24045e-09)
(-4.29545e-09 6.30316e-09 4.05448e-09)
(1.41851e-09 6.92933e-09 3.20924e-09)
(9.44461e-09 7.48541e-09 1.43828e-09)
(1.88049e-08 7.9592e-09 -1.24058e-09)
(2.58253e-08 8.31023e-09 -3.80916e-09)
(-1.46094e-09 3.05458e-10 2.44262e-10)
(-4.19606e-09 8.90335e-10 7.15942e-10)
(-6.59917e-09 1.44193e-09 1.17215e-09)
(-8.71361e-09 1.98887e-09 1.64144e-09)
(-1.0555e-08 2.55218e-09 2.14462e-09)
(-1.2124e-08 3.15023e-09 2.69793e-09)
(-1.33878e-08 3.79644e-09 3.30977e-09)
(-1.42729e-08 4.50027e-09 3.97639e-09)
(-1.46487e-08 5.26632e-09 4.67488e-09)
(-1.43035e-08 6.09509e-09 5.35226e-09)
(-1.28915e-08 6.97916e-09 5.90243e-09)
(-9.91373e-09 7.92072e-09 6.15658e-09)
(-4.74551e-09 8.94544e-09 5.87734e-09)
(3.22584e-09 1.01227e-08 4.7975e-09)
(1.37897e-08 1.1566e-08 2.85922e-09)
(2.34308e-08 1.30771e-08 8.49813e-10)
(-1.74959e-09 3.47933e-10 2.8685e-10)
(-5.03246e-09 1.015e-09 8.416e-10)
(-7.92905e-09 1.64484e-09 1.37903e-09)
(-1.04938e-08 2.26887e-09 1.9323e-09)
(-1.27621e-08 2.91231e-09 2.5283e-09)
(-1.47501e-08 3.59545e-09 3.18868e-09)
(-1.64492e-08 4.33427e-09 3.92882e-09)
(-1.78201e-08 5.14009e-09 4.75477e-09)
(-1.87828e-08 6.01946e-09 5.65801e-09)
(-1.91986e-08 6.97353e-09 6.60622e-09)
(-1.88375e-08 7.99789e-09 7.52853e-09)
(-1.73314e-08 9.09473e-09 8.30305e-09)
(-1.4094e-08 1.0277e-08 8.72916e-09)
(-8.385e-09 1.16094e-08 8.57042e-09)
(4.455e-10 1.32283e-08 7.68104e-09)
(1.04757e-08 1.50167e-08 6.49445e-09)
(-2.01832e-09 3.77743e-10 3.23778e-10)
(-5.8113e-09 1.10259e-09 9.50372e-10)
(-9.16813e-09 1.7873e-09 1.5575e-09)
(-1.21581e-08 2.46587e-09 2.18266e-09)
(-1.48342e-08 3.16593e-09 2.85741e-09)
(-1.72323e-08 3.90924e-09 3.60819e-09)
(-1.93715e-08 4.71308e-09 4.45661e-09)
(-2.12532e-08 5.58943e-09 5.41746e-09)
(-2.28599e-08 6.54429e-09 6.49498e-09)
(-2.41519e-08 7.5754e-09 7.67595e-09)
(-2.50609e-08 8.66911e-09 8.91857e-09)
(-2.54831e-08 9.7969e-09 1.01379e-08)
(-2.52377e-08 1.09032e-08 1.11795e-08)
(-2.41879e-08 1.18984e-08 1.18396e-08)
(-2.21822e-08 1.26745e-08 1.19274e-08)
(-1.94521e-08 1.32132e-08 1.1571e-08)
(-2.26237e-09 3.9381e-10 3.54535e-10)
(-6.5181e-09 1.14996e-09 1.04071e-09)
(-1.0293e-08 1.86466e-09 1.70497e-09)
(-1.36702e-08 2.57354e-09 2.38815e-09)
(-1.67182e-08 3.30513e-09 3.12489e-09)
(-1.94915e-08 4.0824e-09 3.94511e-09)
(-2.20338e-08 4.9229e-09 4.87444e-09)
(-2.43826e-08 5.83865e-09 5.93319e-09)
(-2.65751e-08 6.83449e-09 7.13327e-09)
(-2.86564e-08 7.90493e-09 8.47188e-09)
(-3.06953e-08 9.02853e-09 9.92036e-09)
(-3.28173e-08 1.0157e-08 1.14066e-08)
(-3.52891e-08 1.11911e-08 1.27925e-08)
(-3.87365e-08 1.19119e-08 1.38618e-08)
(-4.46014e-08 1.18547e-08 1.44136e-08)
(-5.44271e-08 1.04055e-08 1.45782e-08)
(-1.63689e-10 3.93651e-11 2.16065e-11)
(-4.69248e-10 1.14909e-10 6.33376e-11)
(-7.33456e-10 1.86334e-10 1.03512e-10)
(-9.56788e-10 2.57199e-10 1.44247e-10)
(-1.13629e-09 3.30371e-10 1.86851e-10)
(-1.26365e-09 4.08023e-10 2.31521e-10)
(-1.32297e-09 4.91566e-10 2.7678e-10)
(-1.28838e-09 5.81417e-10 3.18376e-10)
(-1.12049e-09 6.76191e-10 3.47494e-10)
(-7.63905e-10 7.71269e-10 3.48268e-10)
(-1.48218e-10 8.56191e-10 2.94924e-10)
(8.05615e-10 9.1e-10 1.49645e-10)
(2.16704e-09 8.96483e-10 -1.34193e-10)
(3.96981e-09 7.6585e-10 -5.94987e-10)
(6.17102e-09 4.88748e-10 -1.21322e-09)
(8.37551e-09 1.79315e-10 -1.78782e-09)
(-4.88386e-10 1.1616e-10 6.41232e-11)
(-1.40057e-09 3.39074e-10 1.88007e-10)
(-2.19079e-09 5.49935e-10 3.07399e-10)
(-2.86137e-09 7.5921e-10 4.28676e-10)
(-3.40501e-09 9.75401e-10 5.5593e-10)
(-3.79925e-09 1.20504e-09 6.90101e-10)
(-3.99995e-09 1.45244e-09 8.2751e-10)
(-3.93581e-09 1.7196e-09 9.56919e-10)
(-3.49721e-09 2.00411e-09 1.05452e-09)
(-2.52909e-09 2.29596e-09 1.07709e-09)
(-8.35954e-10 2.57228e-09 9.54558e-10)
(1.79574e-09 2.78484e-09 5.83703e-10)
(5.515e-09 2.84726e-09 -1.60945e-10)
(1.02459e-08 2.62611e-09 -1.37591e-09)
(1.54157e-08 1.98783e-09 -2.98467e-09)
(1.9465e-08 1.08435e-09 -4.41446e-09)
(-8.09892e-10 1.88487e-10 1.05265e-10)
(-2.32353e-09 5.50148e-10 3.08685e-10)
(-3.63799e-09 8.92176e-10 5.04888e-10)
(-4.76065e-09 1.23166e-09 7.04738e-10)
(-5.68448e-09 1.58258e-09 9.15616e-10)
(-6.3806e-09 1.95611e-09 1.14017e-09)
(-6.78435e-09 2.35907e-09 1.37424e-09)
(-6.79657e-09 2.79701e-09 1.60358e-09)
(-6.2598e-09 3.26982e-09 1.79581e-09)
(-4.94597e-09 3.76976e-09 1.89091e-09)
(-2.57223e-09 4.28104e-09 1.79304e-09)
(1.17894e-09 4.76347e-09 1.35831e-09)
(6.50045e-09 5.14706e-09 4.1513e-10)
(1.31409e-08 5.31346e-09 -1.16187e-09)
(1.98297e-08 5.10622e-09 -3.24519e-09)
(2.38573e-08 4.52404e-09 -5.03993e-09)
(-1.12543e-09 2.53671e-10 1.44213e-10)
(-3.23061e-09 7.40413e-10 4.22957e-10)
(-5.06414e-09 1.20039e-09 6.91923e-10)
(-6.6429e-09 1.65691e-09 9.6677e-10)
(-7.96512e-09 2.1289e-09 1.25876e-09)
(-8.99998e-09 2.63053e-09 1.57176e-09)
(-9.68712e-09 3.17366e-09 1.90584e-09)
(-9.91929e-09 3.76795e-09 2.24783e-09)
(-9.52443e-09 4.418e-09 2.56489e-09)
(-8.24688e-09 5.12697e-09 2.79543e-09)
(-5.7423e-09 5.8935e-09 2.83451e-09)
(-1.60915e-09 6.71474e-09 2.52705e-09)
(4.46161e-09 7.6006e-09 1.69098e-09)
(1.23639e-08 8.55983e-09 1.89249e-10)
(2.0802e-08 9.57253e-09 -1.84165e-09)
(2.64078e-08 1.0412e-08 -3.58028e-09)
(-1.43186e-09 3.09561e-10 1.80257e-10)
(-4.10868e-09 9.02546e-10 5.28267e-10)
(-6.44627e-09 1.46227e-09 8.63729e-10)
(-8.4775e-09 2.01777e-09 1.20756e-09)
(-1.02098e-08 2.59173e-09 1.57425e-09)
(-1.1624e-08 3.20201e-09 1.97284e-09)
(-1.2676e-08 3.86504e-09 2.40707e-09)
(-1.32711e-08 4.59288e-09 2.86838e-09)
(-1.3258e-08 5.39542e-09 3.33085e-09)
(-1.24104e-08 6.28283e-09 3.74168e-09)
(-1.03923e-08 7.26453e-09 4.00494e-09)
(-6.76866e-09 8.37298e-09 3.97934e-09)
(-1.0844e-09 9.68042e-09 3.49347e-09)
(6.96605e-09 1.13144e-08 2.4091e-09)
(1.68486e-08 1.34117e-08 8.25591e-10)
(2.52994e-08 1.55801e-08 -5.62009e-10)
(-1.71777e-09 3.52687e-10 2.11722e-10)
(-4.93628e-09 1.02913e-09 6.20956e-10)
(-7.76056e-09 1.66818e-09 1.01648e-09)
(-1.0235e-08 2.30218e-09 1.42219e-09)
(-1.23836e-08 2.95727e-09 1.85677e-09)
(-1.42076e-08 3.65466e-09 2.33392e-09)
(-1.5682e-08 4.4121e-09 2.86153e-09)
(-1.6747e-08 5.2437e-09 3.43794e-09)
(-1.73012e-08 6.1606e-09 4.04669e-09)
(-1.71905e-08 7.17188e-09 4.64821e-09)
(-1.6192e-08 8.28667e-09 5.16836e-09)
(-1.39947e-08 9.53037e-09 5.49265e-09)
(-1.01766e-08 1.09501e-08 5.46594e-09)
(-4.29001e-09 1.26527e-08 4.95982e-09)
(4.01103e-09 1.47962e-08 4.0122e-09)
(1.30607e-08 1.71356e-08 3.10874e-09)
(-1.9849e-09 3.82983e-10 2.39032e-10)
(-5.70999e-09 1.11808e-09 7.01355e-10)
(-8.9914e-09 1.81293e-09 1.14842e-09)
(-1.1888e-08 2.50252e-09 1.60724e-09)
(-1.44414e-08 3.21518e-09 2.09981e-09)
(-1.66739e-08 3.97409e-09 2.6436e-09)
(-1.8588e-08 4.79786e-09 3.25082e-09)
(-2.01664e-08 5.7009e-09 3.92611e-09)
(-2.1372e-08 6.69272e-09 4.66203e-09)
(-2.21524e-08 7.77647e-09 5.43203e-09)
(-2.24492e-08 8.94629e-09 6.18088e-09)
(-2.22222e-08 1.0183e-08 6.81648e-09)
(-2.14594e-08 1.14366e-08 7.2047e-09)
(-2.03401e-08 1.26025e-08 7.22343e-09)
(-1.90555e-08 1.35152e-08 6.86238e-09)
(-1.75423e-08 1.40837e-08 6.41754e-09)
(-2.22843e-09 3.99366e-10 2.61816e-10)
(-6.41535e-09 1.16628e-09 7.68221e-10)