/*--------------------------------*- C++ -*----------------------------------*\
| =========                 |                                                 |
| \\      /  F ield         | foam-extend: Open Source CFD                    |
|  \\    /   O peration     | Version:     3.1                                |
|   \\  /    A nd           | Web:         http://www.extend-project.de       |
|    \\/     M anipulation  |                                                 |
\*---------------------------------------------------------------------------*/
FoamFile
{
    version     2.0;
    format      ascii;
    class       volScalarField;
    location    "1.2";
    object      p;
}
// * * * * * * * * * * * * * * * * * * * * * * * * * * * * * * * * * * * * * //

dimensions      [0 2 -2 0 0 0 0];

internalField   nonuniform List<scalar> 
14592
(
0.0403558
0.0404478
0.0406693
0.0408342
0.0408761
0.040798
0.0406316
0.0404126
0.0401726
0.0399284
0.0396824
0.0394188
0.0390926
0.0386081
0.0377793
0.0364186
0.0401816
0.0401908
0.0404246
0.0406439
0.0407398
0.0407058
0.040573
0.0403815
0.040164
0.0399428
0.0397267
0.0395067
0.0392491
0.0388739
0.0381154
0.0363551
0.0399899
0.039916
0.0401418
0.0404173
0.0405694
0.040576
0.0404708
0.0402978
0.040097
0.0398964
0.0397134
0.03955
0.039385
0.0391451
0.0385122
0.0364693
0.0398549
0.0397115
0.0398978
0.0402018
0.040392
0.0404237
0.0403322
0.0401652
0.0399677
0.0397727
0.039606
0.0394812
0.0393909
0.0392768
0.0388191
0.0367354
0.0397739
0.0395808
0.0397116
0.0400139
0.0402195
0.0402587
0.0401656
0.0399907
0.0397773
0.0395661
0.0393883
0.0392677
0.0392145
0.0391994
0.0389584
0.0370317
0.0397181
0.0394953
0.0395732
0.0398544
0.040055
0.0400843
0.039973
0.0397722
0.0395246
0.0392712
0.0390464
0.038881
0.0388045
0.0388266
0.0388051
0.0371537
0.0396543
0.0394154
0.0394528
0.039707
0.0398901
0.0398973
0.039757
0.039514
0.0392128
0.0388898
0.0385759
0.0382996
0.0381019
0.0380204
0.0381305
0.036603
0.0395594
0.0393118
0.0393254
0.0395575
0.0397189
0.0396979
0.0395185
0.0392248
0.038855
0.0384387
0.0379951
0.0375327
0.0370707
0.0365711
0.036452
0.0335063
0.0405825
0.0406771
0.0409191
0.0411134
0.0411883
0.0411494
0.0410347
0.0408877
0.0407478
0.0406421
0.0405854
0.0405815
0.0406168
0.0406415
0.0405931
0.040705
0.0404086
0.0404104
0.0406593
0.0409091
0.0410417
0.0410513
0.0409749
0.0408603
0.0407488
0.0406727
0.0406547
0.0407058
0.0408231
0.0409598
0.0410059
0.0412769
0.040225
0.0401385
0.040372
0.0406763
0.0408662
0.0409181
0.0408714
0.040778
0.0406867
0.0406367
0.0406609
0.0407837
0.0410187
0.041331
0.0415671
0.0420973
0.0401075
0.0399508
0.0401365
0.0404638
0.0406893
0.0407645
0.0407302
0.0406421
0.0405543
0.040512
0.040558
0.0407317
0.0410657
0.0415492
0.0420108
0.0428459
0.0400493
0.0398451
0.0399678
0.0402846
0.0405196
0.0405976
0.0405575
0.0404577
0.0403507
0.0402894
0.0403236
0.0405053
0.040889
0.0415015
0.042183
0.0433511
0.0400146
0.0397839
0.0398482
0.0401342
0.0403564
0.0404175
0.040353
0.0402205
0.0400719
0.0399601
0.0399379
0.0400653
0.0404171
0.0410656
0.0418931
0.0432893
0.0399636
0.0397195
0.0397393
0.0399898
0.0401863
0.0402174
0.0401161
0.0399331
0.03972
0.0395241
0.0393929
0.0393817
0.0395717
0.0400636
0.0408231
0.0418099
0.0398686
0.0396169
0.0396099
0.0398324
0.0400009
0.0399977
0.0398486
0.0396047
0.0393096
0.0390006
0.0387091
0.0384624
0.0383054
0.0382432
0.0384566
0.0362523
0.0408173
0.0409157
0.0411785
0.0414017
0.0415086
0.0415069
0.0414405
0.0413597
0.0413103
0.0413272
0.0414326
0.0416394
0.0419458
0.0423192
0.0427291
0.0433028
0.0406449
0.0406419
0.0409067
0.0411863
0.041354
0.0414049
0.041381
0.0413369
0.0413215
0.0413734
0.0415234
0.0417909
0.0421807
0.0426558
0.0431743
0.0439605
0.0404707
0.0403754
0.0406186
0.0409512
0.0411772
0.0412715
0.041279
0.0412583
0.0412657
0.0413479
0.0415458
0.0418921
0.0424076
0.0430642
0.0438007
0.0449433
0.0403711
0.0402057
0.0403947
0.0407453
0.0410043
0.0411198
0.041138
0.0411216
0.0411322
0.0412226
0.0414449
0.0418471
0.04247
0.0433066
0.044286
0.0458118
0.0403352
0.040125
0.0402454
0.0405777
0.0408406
0.040954
0.0409619
0.0409296
0.0409171
0.0409852
0.0411931
0.0416023
0.0422755
0.0432375
0.0444173
0.0463034
0.0403207
0.0400874
0.0401453
0.0404385
0.0406808
0.0407703
0.0407473
0.0406757
0.0406142
0.0406236
0.0407659
0.0411099
0.0417366
0.0427062
0.0439489
0.0459878
0.0402816
0.0400376
0.0400481
0.0402983
0.040507
0.0405578
0.0404912
0.0403605
0.0402242
0.0401365
0.0401525
0.0403344
0.0407638
0.0415143
0.0425104
0.0438419
0.0401862
0.0399357
0.039917
0.0401337
0.0403084
0.0403204
0.0401955
0.0399941
0.0397634
0.0395453
0.0393757
0.0392849
0.0393092
0.0394106
0.0396295
0.0369724
0.041044
0.0411465
0.0414289
0.0416793
0.0418158
0.0418477
0.0418238
0.0418004
0.0418278
0.0419459
0.04218
0.0425458
0.0430432
0.043643
0.0443152
0.0450541
0.0408736
0.0408677
0.0411479
0.0414553
0.0416553
0.0417432
0.0417656
0.0417826
0.0418485
0.0420057
0.0422882
0.0427169
0.043295
0.043985
0.0447547
0.0456977
0.0407088
0.0406076
0.0408612
0.0412205
0.0414794
0.0416118
0.0416668
0.0417089
0.0417995
0.0419894
0.0423225
0.0428318
0.0435345
0.0443986
0.0453852
0.046687
0.040626
0.0404554
0.0406499
0.041023
0.0413126
0.0414641
0.0415281
0.0415731
0.0416657
0.0418634
0.0422209
0.0427859
0.0435946
0.0446324
0.0458552
0.0475551
0.0406106
0.0403977
0.0405196
0.0408681
0.0411565
0.0413012
0.0413504
0.0413753
0.041441
0.0416124
0.0419515
0.0425192
0.043372
0.0445206
0.0459166
0.0479691
0.0406142
0.0403815
0.0404382
0.0407404
0.0410013
0.0411155
0.0411278
0.0411071
0.0411168
0.0412219
0.0414866
0.0419782
0.0427684
0.0438936
0.0452884
0.0474301
0.0405857
0.0403447
0.0403519
0.0406048
0.0408249
0.0408922
0.0408547
0.040767
0.0406929
0.0406897
0.0408138
0.0411241
0.0416887
0.0425438
0.0435742
0.0448364
0.0404894
0.040243
0.0402192
0.0404339
0.0406146
0.0406391
0.0405332
0.0403659
0.0401867
0.0400389
0.0399583
0.0399689
0.0400891
0.0402319
0.0403499
0.0371777
0.0412469
0.0413533
0.0416531
0.0419272
0.0420894
0.0421499
0.0421614
0.0421845
0.0422728
0.0424692
0.0427994
0.0432782
0.0439027
0.0446414
0.0454531
0.0462617
0.0410787
0.041071
0.0413649
0.0416966
0.0419246
0.0420438
0.0421047
0.0421713
0.0423017
0.04254
0.0429208
0.0434629
0.0441647
0.0449842
0.0458832
0.0468809
0.0409223
0.0408172
0.0410807
0.0414634
0.0417508
0.0419153
0.0420096
0.0421026
0.0422589
0.0425312
0.0429632
0.0435849
0.0444065
0.0453893
0.0464944
0.0478416
0.0408543
0.0406805
0.0408813
0.0412745
0.0415907
0.0417726
0.0418741
0.0419684
0.0421254
0.0424041
0.0428589
0.0435335
0.0444558
0.0456014
0.0469294
0.0486755
0.0408564
0.0406427
0.0407681
0.0411316
0.0414423
0.0416133
0.0416962
0.0417666
0.0418928
0.0421413
0.0425734
0.0432451
0.044203
0.0454435
0.0469206
0.0490075
0.0408753
0.0406446
0.0407029
0.0410147
0.0412922
0.041427
0.0414674
0.0414867
0.0415509
0.0417266
0.0420765
0.0426623
0.0435434
0.0447349
0.046166
0.0482956
0.0408554
0.0406185
0.040626
0.0408834
0.0411141
0.0411954
0.0411801
0.0411256
0.0410984
0.0411568
0.0413551
0.0417452
0.0423797
0.0432644
0.0442555
0.0453961
0.0407583
0.0405168
0.0404919
0.0407072
0.0408936
0.0409274
0.0408362
0.0406949
0.040554
0.040457
0.0404366
0.0405084
0.0406728
0.0408038
0.040801
0.0372099
0.0414124
0.0415224
0.0418361
0.0421294
0.0423121
0.0423949
0.0424335
0.0424917
0.0426248
0.0428774
0.0432744
0.0438286
0.0445333
0.045353
0.0462349
0.0470795
0.0412462
0.0412377
0.0415429
0.041894
0.0421442
0.042288
0.0423784
0.0424822
0.0426602
0.0429565
0.0434053
0.0440224
0.0448013
0.0456954
0.0466593
0.0476762
0.0410968
0.0409894
0.0412614
0.0416629
0.041973
0.0421626
0.0422869
0.0424179
0.0426223
0.0429532
0.043453
0.0441477
0.0450412
0.046089
0.0472484
0.0486064
0.0410405
0.0408652
0.0410719
0.0414816
0.0418191
0.0420246
0.0421546
0.0422856
0.0424892
0.0428251
0.0433455
0.0440897
0.0450779
0.0462782
0.0476484
0.0494037
0.0410564
0.0408432
0.0409726
0.0413489
0.0416776
0.041869
0.0419772
0.042081
0.0422507
0.0425528
0.0430466
0.0437827
0.0447987
0.0460807
0.0475817
0.0496685
0.0410872
0.0408592
0.0409204
0.0412409
0.041532
0.0416828
0.041744
0.0417922
0.0418952
0.0421192
0.0425247
0.0431672
0.0440953
0.0453096
0.0467351
0.0488321
0.041074
0.0408414
0.0408508
0.0411133
0.0413531
0.0414461
0.0414457
0.0414147
0.0414205
0.0415205
0.0417664
0.0422029
0.0428699
0.0437525
0.0446899
0.0457263
0.0409761
0.0407393
0.0407154
0.0409328
0.041124
0.0411636
0.041084
0.0409608
0.0408463
0.0407833
0.0408009
0.0409069
0.0410874
0.041189
0.0410826
0.0371861
0.0415296
0.041643
0.0419669
0.0422738
0.0424708
0.042569
0.0426258
0.0427071
0.0428695
0.0431583
0.0435972
0.0441972
0.0449485
0.0458125
0.0467297
0.0475877
0.041365
0.0413576
0.0416716
0.042037
0.0423027
0.0424633
0.0425734
0.0427019
0.0429108
0.0432444
0.0437357
0.0443983
0.0452219
0.0461563
0.0471512
0.0481724
0.0412203
0.0411132
0.0413924
0.0418081
0.0421345
0.0423412
0.0424857
0.0426416
0.0428772
0.0432454
0.0437872
0.0445256
0.0454597
0.0465411
0.047724
0.0490809
0.041172
0.0409976
0.0412098
0.0416325
0.0419856
0.0422074
0.0423563
0.0425112
0.0427448
0.0431166
0.0436772
0.0444622
0.0454863
0.0467127
0.0480978
0.0498507
0.0411973
0.0409862
0.0411199
0.0415069
0.0418493
0.0420549
0.0421797
0.042305
0.0425024
0.0428378
0.0433687
0.0441416
0.0451878
0.0464868
0.0479908
0.0500689
0.0412361
0.0410117
0.0410763
0.041405
0.0417071
0.0418692
0.0419437
0.0420103
0.0421375
0.0423912
0.0428297
0.0435036
0.0444544
0.0456735
0.0470836
0.0491511
0.0412274
0.0409994
0.0410116
0.0412797
0.0415276
0.0416289
0.0416379
0.0416217
0.0416477
0.0417729
0.0420464
0.0425077
0.0431881
0.0440601
0.0449524
0.0459145
0.0411289
0.040897
0.0408753
0.0410961
0.0412925
0.0413365
0.0412639
0.0411517
0.0410533
0.0410104
0.0410497
0.0411731
0.0413571
0.041431
0.0412481
0.0371551
0.0415872
0.0417002
0.0420273
0.0423407
0.0425452
0.0426515
0.0427178
0.0428108
0.0429873
0.0432933
0.0437516
0.0443721
0.0451436
0.0460263
0.0469588
0.04782
0.0414232
0.0414144
0.0417298
0.0421015
0.042375
0.0425441
0.0426641
0.0428047
0.0430286
0.0433796
0.0438904
0.0445731
0.0454154
0.0463664
0.0473748
0.0483991
0.0412806
0.0411724
0.0414508
0.0418721
0.0422065
0.042422
0.0425767
0.0427451
0.0429958
0.0433814
0.0439422
0.0446995
0.0456501
0.0467442
0.047937
0.0492944
0.0412361
0.0410616
0.0412719
0.0416987
0.0420595
0.0422896
0.0424482
0.042615
0.0428632
0.0432518
0.0438305
0.0446329
0.045671
0.046906
0.0482971
0.0500498
0.0412659
0.0410561
0.0411871
0.0415764
0.0419255
0.0421385
0.0422717
0.0424078
0.0426186
0.0429697
0.0435171
0.0443054
0.0453627
0.0466657
0.0481704
0.0502454
0.0413088
0.0410865
0.0411482
0.0414774
0.0417847
0.0419528
0.0420342
0.04211
0.0422491
0.0425167
0.0429696
0.0436564
0.0446147
0.0458318
0.0472342
0.0492871
0.0413023
0.041077
0.0410862
0.0413533
0.0416047
0.0417107
0.0417247
0.0417159
0.041752
0.0418889
0.0421745
0.0426455
0.043329
0.0441913
0.0450577
0.0459722
0.0412035
0.0409745
0.0409494
0.041168
0.0413666
0.0414134
0.0413446
0.0412382
0.0411478
0.0411145
0.0411634
0.0412936
0.0414763
0.0415337
0.0412872
0.0370917
0.0399966
0.0401484
0.0402687
0.0402583
0.0400944
0.0397778
0.0393175
0.0387224
0.0379958
0.037133
0.0361203
0.0349366
0.0335559
0.0319549
0.0301199
0.0280727
0.0399499
0.0401321
0.0402842
0.0402893
0.0401295
0.0398094
0.0393417
0.0387379
0.0380025
0.0371315
0.0361109
0.0349198
0.033532
0.031925
0.0300825
0.0280294
0.0398834
0.0400869
0.040276
0.0403067
0.0401567
0.0398349
0.0393586
0.0387434
0.0379962
0.0371138
0.036084
0.0348866
0.0334958
0.0318898
0.0300501
0.0280027
0.0398071
0.0400165
0.0402329
0.0402869
0.0401472
0.0398243
0.0393399
0.0387127
0.0379526
0.037058
0.0360181
0.0348138
0.0334202
0.0318167
0.0299838
0.0279495
0.0397249
0.0399332
0.0401669
0.0402378
0.0401054
0.0397803
0.039287
0.0386477
0.0378739
0.0369662
0.0359149
0.0347025
0.0333056
0.0317053
0.0298826
0.0278667
0.0396411
0.0398477
0.040092
0.0401733
0.0400435
0.0397133
0.0392096
0.0385565
0.0377678
0.0368454
0.0357814
0.0345598
0.0331594
0.0315637
0.0297557
0.0277658
0.0395599
0.0397657
0.0400158
0.0401013
0.0399696
0.0396314
0.0391151
0.0384469
0.037642
0.0367037
0.0356258
0.0343943
0.0329908
0.0314018
0.0296141
0.0276583
0.039485
0.0396908
0.0399425
0.0400268
0.039889
0.0395402
0.0390101
0.038326
0.0375042
0.0365495
0.0354572
0.034216
0.0328106
0.031231
0.029469
0.0275548
0.0399103
0.040058
0.0401862
0.0401859
0.0400335
0.0397273
0.0392759
0.0386884
0.0379678
0.0371092
0.0360995
0.0349154
0.0335291
0.0319158
0.030058
0.0279823
0.0398238
0.0399863
0.0401459
0.0401664
0.0400256
0.0397234
0.0392706
0.0386784
0.0379514
0.0370869
0.0360682
0.0348749
0.0334792
0.0318576
0.0299897
0.0279086
0.0397264
0.0398934
0.0400895
0.0401413
0.0400173
0.0397199
0.0392636
0.0386637
0.037928
0.0370522
0.036025
0.0348253
0.0334256
0.0318044
0.0299381
0.0278656
0.0396328
0.0397905
0.0400122
0.0400922
0.039984
0.0396905
0.0392299
0.0386211
0.0378741
0.0369879
0.0359514
0.0347452
0.0333425
0.0317237
0.029863
0.0278031
0.0395402
0.0396842
0.0399211
0.0400222
0.039926
0.0396343
0.0391683
0.0385497
0.0377908
0.0368926
0.0358455
0.0346319
0.0332263
0.031611
0.0297602
0.0277187
0.0394498
0.0395826
0.0398281
0.0399429
0.039853
0.0395596
0.0390857
0.0384553
0.0376828
0.0367709
0.0357118
0.0344896
0.0330812
0.0314712
0.0296361
0.0276214
0.0393641
0.03949
0.0397401
0.0398614
0.0397722
0.0394731
0.0389885
0.0383443
0.0375564
0.0366294
0.035557
0.0343256
0.0329149
0.0313129
0.0295002
0.0275216
0.0392864
0.0394096
0.039661
0.0397824
0.0396887
0.0393802
0.0388827
0.0382232
0.037419
0.0364759
0.0353897
0.0341491
0.0327377
0.0311466
0.0293629
0.0274287
0.0398337
0.0399727
0.0401129
0.0401304
0.0399971
0.0397105
0.0392794
0.0387137
0.0380167
0.0371831
0.0361961
0.0350281
0.0336422
0.0320024
0.030072
0.0278798
0.0397172
0.0398573
0.0400317
0.0400776
0.0399633
0.0396871
0.0392597
0.0386933
0.0379933
0.0371547
0.0361604
0.0349841
0.0335884
0.0319397
0.0299957
0.0277977
0.0395854
0.0397143
0.0399262
0.0400125
0.0399237
0.0396591
0.0392336
0.0386634
0.037957
0.0371106
0.0361094
0.0349278
0.0335284
0.03188
0.0299335
0.0277428
0.0394656
0.0395698
0.039805
0.0399271
0.0398617
0.0396072
0.0391821
0.0386065
0.0378916
0.0370362
0.0360269
0.0348396
0.0334374
0.0317912
0.0298472
0.0276675
0.0393552
0.0394329
0.039679
0.0398274
0.03978
0.0395324
0.0391058
0.0385231
0.0377979
0.0369313
0.0359118
0.0347171
0.0333117
0.0316688
0.0297338
0.0275735
0.0392532
0.0393103
0.0395605
0.0397259
0.0396892
0.0394433
0.0390113
0.0384184
0.0376802
0.0367999
0.0357677
0.0345637
0.0331548
0.0315176
0.0296002
0.0274714
0.03916
0.039204
0.0394554
0.0396292
0.0395959
0.0393462
0.0389048
0.0382984
0.0375446
0.0366481
0.035601
0.0343861
0.0329739
0.0313455
0.0294553
0.027371
0.039077
0.0391153
0.0393666
0.0395415
0.0395048
0.0392464
0.0387921
0.0381698
0.0373984
0.0364839
0.0354206
0.0341941
0.0327797
0.0311631
0.0293092
0.0272809
0.039797
0.0399223
0.0400733
0.0401119
0.0400027
0.0397426
0.0393418
0.0388114
0.0381547
0.0373673
0.0364264
0.0352966
0.0339254
0.032254
0.0302069
0.027802
0.0396611
0.039773
0.0399592
0.0400335
0.0399503
0.0397064
0.039314
0.0387868
0.0381317
0.0373405
0.0363946
0.0352585
0.0338782
0.0321987
0.0301327
0.0277246
0.0395008
0.0395855
0.0398072
0.0399302
0.039881
0.0396558
0.0392708
0.0387441
0.0380853
0.0372902
0.03634
0.0352009
0.0338181
0.0321394
0.0300639
0.0276571
0.0393571
0.0394038
0.0396428
0.0398077
0.0397892
0.0395802
0.0392004
0.0386715
0.0380072
0.0372051
0.0362483
0.0351046
0.0337191
0.0320418
0.0299627
0.0275617
0.0392311
0.0392412
0.0394828
0.0396774
0.0396822
0.0394845
0.0391066
0.0385736
0.0378995
0.0370866
0.0361195
0.0349679
0.0335782
0.0319037
0.0298313
0.0274509
0.0391199
0.0391023
0.0393404
0.0395528
0.0395716
0.0393781
0.0389964
0.0384536
0.0377665
0.0369387
0.0359569
0.0347937
0.0333985
0.0317297
0.0296775
0.0273375
0.0390206
0.0389856
0.039219
0.0394396
0.0394633
0.039267
0.0388762
0.0383191
0.0376146
0.0367675
0.0357669
0.0345886
0.0331868
0.0315265
0.0295089
0.0272301
0.0389324
0.0388892
0.0391195
0.039341
0.0393616
0.0391564
0.0387517
0.0381767
0.0374513
0.0365818
0.0355595
0.0343634
0.0329545
0.031305
0.0293343
0.0271335
0.0398078
0.0399186
0.0400793
0.0401403
0.0400582
0.0398298
0.0394671
0.0389832
0.0383837
0.0376626
0.0367937
0.0357312
0.034401
0.0327069
0.0305092
0.0277812
0.0396571
0.0397387
0.0399328
0.0400357
0.0399865
0.0397803
0.0394308
0.0389545
0.0383594
0.037638
0.0367673
0.0357011
0.0343627
0.0326612
0.0304394
0.0277157
0.0394759
0.0395148
0.0397378
0.0398954
0.0398878
0.0397069
0.0393704
0.0388988
0.038304
0.037582
0.0367103
0.0356442
0.0343044
0.0326021
0.0303593
0.0276235
0.0393167
0.0393064
0.0395365
0.0397386
0.0397675
0.0396079
0.0392807
0.0388099
0.0382125
0.0374855
0.0366089
0.0355396
0.0341968
0.032493
0.0302358
0.0274953
0.0391833
0.0391289
0.0393502
0.0395812
0.0396367
0.0394914
0.0391686
0.0386959
0.0380885
0.0373507
0.0364631
0.035385
0.0340367
0.032334
0.0300791
0.0273621
0.03907
0.0389834
0.0391906
0.0394366
0.0395072
0.0393671
0.039041
0.0385578
0.0379363
0.037181
0.0362755
0.0351821
0.0338252
0.0321277
0.0298967
0.0272378
0.0389695
0.0388628
0.0390577
0.0393087
0.0393838
0.0392405
0.0389042
0.0384046
0.0377622
0.0369826
0.0360519
0.0349362
0.0335668
0.0318775
0.0296914
0.0271243
0.0388773
0.0387609
0.0389488
0.0391987
0.0392697
0.0391163
0.0387639
0.0382429
0.0375746
0.0367655
0.0358037
0.0346595
0.0332734
0.0315918
0.0294658
0.0270143
0.0398713
0.0399713
0.0401432
0.0402276
0.0401746
0.039981
0.0396621
0.0392344
0.0387072
0.0380748
0.0373096
0.0363561
0.0351138
0.0334273
0.0310497
0.0278144
0.0397098
0.0397653
0.0399664
0.0400977
0.0400839
0.0399185
0.0396179
0.0392024
0.0386829
0.0380545
0.0372918
0.0363386
0.0350892
0.0333858
0.0309562
0.0276734
0.0395161
0.0395153
0.0397365
0.0399256
0.0399593
0.0398248
0.039542
0.0391351
0.03862
0.0379948
0.0372359
0.0362875
0.0350381
0.0333206
0.0308336
0.0274603
0.0393514
0.0392929
0.0395089
0.0397415
0.0398151
0.0397052
0.0394347
0.039031
0.0385155
0.0378876
0.0371264
0.0361776
0.0349259
0.033197
0.0306696
0.0272414
0.0392206
0.0391132
0.0393073
0.0395641
0.0396648
0.0395703
0.0393051
0.0389003
0.0383743
0.0377348
0.036962
0.036004
0.0347462
0.033015
0.0304815
0.0270677
0.0391133
0.0389717
0.0391404
0.0394057
0.0395198
0.0394296
0.0391599
0.0387426
0.0381997
0.0375388
0.0367432
0.0357647
0.0344948
0.0327699
0.0302683
0.0269449
0.0390168
0.0388544
0.0390025
0.0392668
0.0393827
0.0392871
0.0390046
0.038567
0.0379979
0.0373053
0.0364747
0.0354626
0.0341709
0.0324557
0.0300219
0.026866
0.038922
0.0387498
0.0388863
0.0391457
0.0392551
0.0391467
0.0388446
0.0383806
0.0377782
0.0370456
0.0361693
0.0351107
0.0337841
0.0320733
0.0297323
0.0268085
0.0399883
0.0400819
0.0402676
0.0403771
0.0403545
0.040198
0.0399274
0.0395641
0.0391234
0.0386033
0.0379796
0.0371946
0.0361285
0.0345516
0.0320156
0.0279038
0.0398195
0.0398546
0.0400642
0.0402241
0.0402464
0.0401238
0.0398766
0.0395305
0.0391016
0.0385909
0.0379766
0.0372011
0.036137
0.0345282
0.0318435
0.0273048
0.039621
0.0395888
0.0398086
0.040027
0.0401009
0.0400135
0.0397881
0.0394543
0.0390338
0.0385314
0.0379285
0.0371688
0.0361165
0.0344793
0.0316535
0.0266825
0.0394601
0.039364
0.0395661
0.0398242
0.039939
0.0398778
0.0396665
0.0393376
0.0389184
0.0384157
0.0378154
0.037063
0.0360186
0.0343656
0.0314601
0.0262274
0.0393404
0.0391934
0.0393607
0.0396355
0.0397753
0.0397285
0.0395214
0.0391902
0.0387597
0.0382444
0.0376324
0.0368728
0.0358286
0.0341771
0.0312669
0.0259606
0.0392462
0.0390651
0.0391962
0.0394705
0.0396193
0.0395736
0.0393589
0.0390122
0.0385603
0.038018
0.0373767
0.0365902
0.0355316
0.0338912
0.0310432
0.0258461
0.0391583
0.0389569
0.0390597
0.039325
0.0394706
0.0394156
0.0391843
0.0388113
0.0383256
0.0377413
0.0370508
0.0362124
0.0351143
0.0334794
0.0307531
0.0258735
0.0390631
0.0388517
0.0389383
0.0391935
0.0393287
0.0392569
0.0390008
0.0385948
0.0380661
0.0374271
0.0366691
0.035752
0.0345778
0.0329162
0.0303505
0.0260515
0.0401532
0.0402445
0.0404469
0.0405833
0.0405924
0.0404747
0.0402555
0.039963
0.03962
0.0392327
0.0387879
0.038242
0.0374926
0.0363088
0.034097
0.0293254
0.0399804
0.0400004
0.0402209
0.0404101
0.040469
0.0403905
0.0401999
0.0399297
0.0396035
0.0392322
0.0388067
0.038287
0.0375707
0.0363998
0.0339969
0.0280878
0.0397832
0.039727
0.0399481
0.040195
0.0403083
0.0402681
0.0401026
0.0398479
0.0395344
0.0391774
0.038774
0.03829
0.0376217
0.0364732
0.0339302
0.0270761
0.039633
0.0395091
0.0397009
0.0399822
0.0401355
0.0401216
0.0399704
0.0397216
0.0394106
0.0390564
0.0386623
0.0382004
0.03757
0.0364533
0.0338792
0.0264962
0.0395307
0.0393559
0.0395015
0.0397904
0.0399646
0.0399622
0.0398129
0.0395595
0.0392354
0.038867
0.0384617
0.037998
0.0373851
0.0363063
0.0338043
0.0262463
0.0394544
0.0392472
0.0393473
0.0396254
0.0398022
0.0397961
0.0396342
0.0393609
0.0390095
0.0386071
0.0381642
0.0376655
0.0370361
0.0359803
0.0336238
0.0261878
0.0393779
0.0391522
0.0392172
0.0394774
0.0396444
0.0396232
0.0394397
0.0391321
0.0387376
0.0382801
0.0377693
0.0371914
0.0364886
0.0353989
0.033225
0.0262098
0.0392829
0.0390475
0.0390923
0.0393365
0.0394878
0.0394446
0.0392295
0.0388809
0.0384312
0.0379008
0.037293
0.0365866
0.0357254
0.0344603
0.0324036
0.0260955
0.0394263
0.0391741
0.0391827
0.0394041
0.0395453
0.039494
0.0392732
0.0389234
0.038477
0.0379539
0.037357
0.0366634
0.035819
0.0345635
0.0325233
0.0258014
0.0392635
0.0390132
0.0390375
0.0392609
0.0393853
0.0393044
0.0390417
0.0386351
0.0381112
0.0374818
0.0367354
0.0358286
0.0346533
0.0329609
0.0302388
0.0255723
0.0390991
0.038861
0.038922
0.0391559
0.0392631
0.0391517
0.0388471
0.0383849
0.0377883
0.0370642
0.0361955
0.0351382
0.0337892
0.0320312
0.0295236
0.0265344
0.0389725
0.0387652
0.0388798
0.0391213
0.0392037
0.0390565
0.0387078
0.0381915
0.0375296
0.0367276
0.0357694
0.034621
0.0332072
0.0314848
0.0292388
0.0267557
0.0389255
0.0387737
0.0389466
0.039178
0.0392205
0.0390289
0.0386322
0.0380636
0.0373447
0.0364812
0.0354609
0.0342593
0.0328258
0.0311412
0.0290817
0.0268275
0.0389872
0.0389127
0.0391255
0.0393178
0.0393037
0.0390598
0.038614
0.037998
0.0372328
0.0363243
0.0352636
0.0340328
0.0325988
0.0309514
0.0290309
0.0269466
0.0391529
0.0391685
0.0393865
0.0395153
0.0394351
0.0391368
0.0386464
0.0379939
0.0371979
0.0362636
0.0351832
0.0339418
0.032516
0.0308984
0.0290623
0.027075
0.0393327
0.0394349
0.0396391
0.0397135
0.0395798
0.0392384
0.0387171
0.0380443
0.0372363
0.0362959
0.0352146
0.0339767
0.0325608
0.0309563
0.0291465
0.027178
0.0397207
0.0394636
0.0394497
0.0396587
0.0398033
0.0397645
0.0395673
0.0392575
0.0388712
0.0384328
0.0379507
0.037408
0.0367497
0.0356653
0.0335294
0.0255591
0.0395304
0.0392719
0.0392731
0.0394854
0.0396128
0.0395416
0.0392975
0.0389221
0.0384444
0.0378774
0.0372097
0.0363926
0.0352986
0.0336012
0.0306285
0.0250399
0.0393292
0.0390787
0.0391182
0.0393459
0.0394587
0.0393565
0.039067
0.0386288
0.0380663
0.0373859
0.0365671
0.0355576
0.0342325
0.0324348
0.0297422
0.0264209
0.039163
0.0389393
0.0390373
0.0392802
0.0393721
0.0392348
0.0388988
0.0384007
0.0377631
0.0369903
0.0360623
0.0349378
0.0335254
0.0317689
0.0293992
0.0267652
0.0390812
0.0389111
0.0390754
0.0393163
0.0393715
0.0391901
0.0388039
0.0382484
0.037546
0.0367013
0.0356983
0.0345072
0.0330658
0.0313495
0.0291976
0.0268335
0.0391194
0.0390284
0.0392421
0.0394492
0.039449
0.0392146
0.0387765
0.0381692
0.0374144
0.0365173
0.0354659
0.034238
0.032792
0.0311144
0.0291239
0.0269547
0.0392755
0.0392812
0.0395085
0.0396538
0.0395861
0.0392949
0.0388092
0.0381617
0.0373723
0.0364452
0.0353702
0.0341284
0.0326902
0.0310448
0.0291531
0.0270954
0.039456
0.0395589
0.0397778
0.0398681
0.0397441
0.0394065
0.038887
0.0382171
0.0374141
0.0364803
0.0354042
0.0341664
0.0327397
0.0311094
0.0292498
0.0272139
0.0400239
0.0397672
0.0397397
0.0399402
0.040087
0.0400572
0.0398783
0.0396019
0.0392668
0.0388996
0.0385097
0.0380755
0.0375235
0.0364701
0.0341495
0.0252093
0.0398076
0.0395461
0.0395325
0.0397366
0.0398654
0.0398003
0.0395697
0.0392196
0.0387807
0.0382659
0.0376615
0.036909
0.0358576
0.034111
0.0309051
0.0246535
0.0395709
0.0393135
0.0393386
0.0395618
0.0396781
0.0395815
0.0393025
0.0388831
0.0383487
0.0377046
0.0369259
0.0359505
0.0346327
0.0327796
0.0299125
0.0263053
0.0393666
0.0391319
0.0392187
0.0394634
0.0395623
0.0394314
0.0391039
0.0386195
0.0380015
0.0372527
0.0363487
0.0352407
0.0338219
0.0320234
0.0295337
0.0267563
0.0392508
0.0390673
0.0392265
0.0394761
0.0395416
0.0393673
0.0389879
0.0384419
0.0377523
0.0369225
0.035933
0.0347482
0.0332953
0.0315441
0.029304
0.026837
0.0392653
0.0391617
0.0393778
0.0395987
0.0396102
0.0393826
0.0389494
0.0383478
0.0376006
0.0367121
0.0356674
0.0344399
0.0329805
0.031272
0.0292149
0.0269657
0.0394106
0.0394089
0.0396458
0.0398067
0.0397498
0.0394637
0.0389806
0.0383358
0.0375506
0.0366285
0.0355568
0.0343131
0.0328616
0.0311884
0.0292438
0.0271191
0.0395905
0.0396952
0.039929
0.0400345
0.039919
0.0395839
0.0390644
0.0383953
0.0375953
0.0366658
0.0355931
0.0343539
0.0329157
0.0312596
0.0293521
0.0272522
0.0403134
0.0400606
0.0400262
0.0402219
0.0403709
0.0403476
0.0401825
0.0399321
0.0396374
0.0393252
0.0390021
0.0386375
0.0381363
0.0370526
0.0345327
0.0248125
0.0400746
0.0398129
0.0397907
0.0399899
0.0401197
0.0400584
0.0398373
0.0395063
0.0390975
0.0386228
0.0380642
0.0373523
0.0363149
0.0345011
0.031088
0.0243273
0.0398053
0.0395445
0.0395608
0.0397817
0.0399005
0.0398072
0.0395349
0.0391292
0.0386164
0.0379998
0.0372501
0.0362952
0.0349716
0.0330577
0.0300363
0.0261946
0.0395662
0.0393243
0.0394041
0.0396514
0.0397559
0.0396291
0.0393069
0.0388321
0.0382287
0.0374979
0.036611
0.0355117
0.0340804
0.0322373
0.02964
0.0267371
0.0394191
0.039226
0.0393827
0.0396405
0.0397146
0.0395452
0.0391699
0.0386302
0.0379498
0.0371309
0.0361504
0.0349677
0.0335006
0.0317142
0.029395
0.0268372
0.0394114
0.0392984
0.0395181
0.0397513
0.0397728
0.0395501
0.0391197
0.0385214
0.0377792
0.0368965
0.0358556
0.0346264
0.0331526
0.0314142
0.0292972
0.0269765
0.039546
0.039539
0.0397853
0.0399603
0.0399127
0.0396303
0.0391481
0.0385042
0.0377213
0.0368021
0.0357319
0.0344848
0.0330199
0.0313203
0.0293274
0.0271425
0.0397246
0.0398317
0.0400794
0.040199
0.0400911
0.0397575
0.0392369
0.0385671
0.0377683
0.0368413
0.0357701
0.0345281
0.033078
0.0313975
0.0294461
0.0272884
0.0405705
0.0403224
0.0402853
0.0404791
0.0406304
0.0406118
0.0404565
0.0402253
0.0399603
0.0396873
0.0394091
0.039085
0.0386014
0.0374635
0.0347631
0.0244344
0.0403121
0.0400519
0.0400255
0.0402222
0.0403531
0.0402941
0.0400792
0.0397618
0.0393748
0.0389286
0.0384004
0.0377108
0.0366701
0.0347857
0.031198
0.0240479
0.0400151
0.0397529
0.0397644
0.0399845
0.0401055
0.0400139
0.0397457
0.0393495
0.0388519
0.0382548
0.0375239
0.0365789
0.0352419
0.0332695
0.0301194
0.0260933
0.0397463
0.0394998
0.0395757
0.039826
0.039935
0.0398107
0.0394914
0.0390229
0.0384297
0.0377113
0.0368351
0.0357387
0.0342919
0.0324066
0.0297188
0.0267128
0.0395724
0.0393724
0.0395282
0.0397935
0.0398746
0.0397085
0.0393354
0.0387995
0.0381252
0.0373134
0.0363381
0.0351544
0.0336723
0.0318534
0.0294676
0.026834
0.0395452
0.0394253
0.0396487
0.0398928
0.0399224
0.0397032
0.0392741
0.0386774
0.0379381
0.0370588
0.0360196
0.034787
0.0332993
0.0315338
0.0293661
0.0269853
0.0396703
0.0396594
0.039914
0.0401012
0.0400615
0.0397817
0.0392994
0.0386554
0.0378731
0.0369553
0.0358851
0.0346338
0.0331561
0.031433
0.0293989
0.0271628
0.0398474
0.0399568
0.0402167
0.0403485
0.0402471
0.0399145
0.0393922
0.0387209
0.0379221
0.036996
0.0359249
0.0346793
0.0332178
0.0315154
0.0295263
0.0273195
0.0407799
0.0405355
0.040498
0.0406919
0.0408453
0.0408298
0.0406812
0.040463
0.0402182
0.0399711
0.0397208
0.039418
0.0389349
0.037742
0.0348993
0.0241296
0.0405039
0.0402469
0.0402189
0.040415
0.0405472
0.0404893
0.0402781
0.0399696
0.0395972
0.0391696
0.03866
0.0379806
0.0369288
0.0349825
0.0312604
0.0238297
0.040186
0.039924
0.039933
0.0401536
0.0402765
0.0401857
0.0399196
0.0395292
0.0390417
0.038457
0.0377373
0.0367952
0.0354426
0.0334206
0.0301715
0.0260107
0.039894
0.0396449
0.0397188
0.0399721
0.0400848
0.0399618
0.0396439
0.0391791
0.0385923
0.0378817
0.0370114
0.0359143
0.0344522
0.0325314
0.0297738
0.0266898
0.0396988
0.0394944
0.0396503
0.0399219
0.0400083
0.0398444
0.0394723
0.0389383
0.0382676
0.03746
0.0364872
0.0353006
0.033805
0.031959
0.0295216
0.0268296
0.0396562
0.0395316
0.0397584
0.0400111
0.0400472
0.0398303
0.0394015
0.0388054
0.0380673
0.0371897
0.0361507
0.0349141
0.0334143
0.0316267
0.0294193
0.0269916
0.0397733
0.0397601
0.0400216
0.0402184
0.0401848
0.0399068
0.039424
0.0387791
0.0379967
0.0370791
0.036008
0.0347524
0.0332639
0.0315214
0.029455
0.0271787
0.039949
0.0400607
0.0403305
0.0404721
0.0403758
0.0400437
0.0395197
0.0388466
0.038047
0.0371209
0.0360491
0.0347997
0.0333285
0.031608
0.0295891
0.0273437
0.0409265
0.0406866
0.0406503
0.0408463
0.0410031
0.0409899
0.0408451
0.0406344
0.0404015
0.0401697
0.039935
0.0396423
0.0391545
0.0379202
0.0349815
0.0239321
0.0406387
0.0403855
0.0403579
0.0405556
0.0406903
0.0406335
0.0404239
0.0401202
0.0397562
0.0393393
0.0388397
0.0381641
0.0371013
0.0351092
0.031295
0.0236821
0.0403064
0.0400463
0.0400551
0.0402778
0.0404034
0.0403132
0.0400476
0.0396601
0.0391781
0.0386003
0.0378863
0.0369439
0.0355779
0.0335189
0.0302018
0.0259526
0.0399985
0.0397495
0.0398234
0.0400804
0.0401967
0.0400745
0.0397567
0.0392935
0.0387099
0.0380033
0.0371357
0.0360362
0.0345619
0.0326149
0.0298102
0.0266747
0.0397888
0.0395831
0.0397405
0.0400177
0.0401086
0.0399459
0.0395737
0.0390402
0.0383709
0.0375652
0.036593
0.0354033
0.0338973
0.0320318
0.0295594
0.0268276
0.0397356
0.0396096
0.03984
0.0400997
0.0401405
0.0399249
0.0394958
0.0388992
0.0381613
0.0372839
0.0362442
0.0350041
0.0334953
0.0316916
0.0294571
0.0269971
0.0398473
0.039834
0.0401012
0.0403053
0.040276
0.0399989
0.0395152
0.0388692
0.038086
0.037168
0.0360955
0.0348364
0.0333399
0.0315836
0.0294947
0.0271906
0.0400218
0.0401361
0.0404131
0.0405617
0.0404689
0.0401371
0.0396115
0.0389368
0.0381361
0.0372095
0.0361366
0.0348841
0.0334056
0.0316722
0.0296327