/*--------------------------------*- C++ -*----------------------------------*\
| =========                 |                                                 |
| \\      /  F ield         | foam-extend: Open Source CFD                    |
|  \\    /   O peration     | Version:     3.1                                |
|   \\  /    A nd           | Web:         http://www.extend-project.de       |
|    \\/     M anipulation  |                                                 |
\*---------------------------------------------------------------------------*/
FoamFile
{
    version     2.0;
    format      ascii;
    class       surfaceVectorField;
    location    "1.2";
    object      Sf;
}
// * * * * * * * * * * * * * * * * * * * * * * * * * * * * * * * * * * * * * //

dimensions      [0 2 0 0 0 0 0];

internalField   nonuniform List<vector> 
41600
(
(0.000625911 -5.62592e-06 -4.16547e-08)
(-9.11273e-07 0.000708751 -2.44292e-08)
(-1.54036e-09 -1.7329e-09 0.000706484)
(1.59586e-09 1.79534e-09 -0.000706418)
(0.000626785 -1.08339e-05 -8.02181e-08)
(-8.74114e-07 0.000708333 -7.31525e-08)
(-1.68809e-09 -5.36218e-09 0.000707302)
(1.74875e-09 5.55525e-09 -0.00070719)
(0.000627642 -1.55796e-05 -1.16046e-07)
(-8.57234e-07 0.00070787 -1.23059e-07)
(-2.019e-09 -9.52262e-09 0.000708067)
(2.09669e-09 9.87104e-09 -0.000707908)
(0.000628527 -1.99827e-05 -1.50752e-07)
(-8.85008e-07 0.000707528 -1.77797e-07)
(-2.68971e-09 -1.47942e-08 0.000708902)
(2.80418e-09 1.5358e-08 -0.000708689)
(0.000629482 -2.41399e-05 -1.85574e-07)
(-9.54591e-07 0.000707281 -2.41846e-07)
(-3.94945e-09 -2.22037e-08 0.000709844)
(4.13136e-09 2.30989e-08 -0.000709567)
(0.000630548 -2.81306e-05 -2.21291e-07)
(-1.06645e-06 0.000707114 -3.20134e-07)
(-6.36308e-09 -3.36683e-08 0.000710934)
(6.65293e-09 3.5091e-08 -0.000710579)
(0.00063177 -3.20092e-05 -2.5749e-07)
(-1.22284e-06 0.000707001 -4.18474e-07)
(-1.09278e-08 -5.28129e-08 0.000712211)
(1.13694e-08 5.5055e-08 -0.000711757)
(0.000633198 -3.57953e-05 -2.92432e-07)
(-1.42865e-06 0.000706908 -5.43995e-07)
(-1.92828e-08 -8.61358e-08 0.000713713)
(1.99456e-08 8.96194e-08 -0.000713134)
(0.000634888 -3.94648e-05 -3.22961e-07)
(-1.69085e-06 0.000706789 -7.06145e-07)
(-3.44636e-08 -1.45196e-07 0.00071548)
(3.5468e-08 1.50563e-07 -0.000714743)
(0.000636903 -4.2923e-05 -3.43162e-07)
(-2.01656e-06 0.000706575 -9.17969e-07)
(-6.20873e-08 -2.50869e-07 0.000717549)
(6.35354e-08 2.59039e-07 -0.000716611)
(0.000639316 -4.599e-05 -3.45308e-07)
(-2.4148e-06 0.00070618 -1.19866e-06)
(-1.12429e-07 -4.41058e-07 0.00071996)
(1.14281e-07 4.53091e-07 -0.000718759)
(0.000642206 -4.8375e-05 -3.23452e-07)
(-2.89148e-06 0.000705493 -1.57948e-06)
(-2.03614e-07 -7.83931e-07 0.000722758)
(2.05401e-07 8.00495e-07 -0.0007212)
(0.000645644 -4.96926e-05 -2.84865e-07)
(-3.43836e-06 0.000704423 -2.1159e-06)
(-3.6668e-07 -1.39977e-06 0.00072601)
(3.6691e-07 1.41972e-06 -0.000723933)
(0.000649625 -4.96176e-05 -2.82348e-07)
(-3.97837e-06 0.000703031 -2.90769e-06)
(-6.37026e-07 -2.47975e-06 0.00072986)
(6.34415e-07 2.49924e-06 -0.000726955)
(0.000653549 -4.82099e-05 -5.11999e-07)
(-3.95321e-06 0.00070167 -4.08593e-06)
(-9.36994e-07 -4.17615e-06 0.000734346)
(9.65776e-07 4.22373e-06 -0.000730031)
(-1.50271e-05 0.000695235 -6.84419e-07)
(-3.75307e-06 -9.0565e-06 0.00074291)
(8.08208e-06 1.35451e-05 -0.000740387)
(0.000625871 -5.53632e-06 -1.24131e-07)
(-1.78234e-06 0.000714287 -4.79104e-08)
(-4.59194e-09 -1.70016e-09 0.000712083)
(4.74881e-09 1.75166e-09 -0.000711935)
(0.000626705 -1.06613e-05 -2.39126e-07)
(-1.70855e-06 0.000713458 -1.43344e-07)
(-5.06555e-09 -5.29373e-09 0.000712437)
(5.22965e-09 5.44463e-09 -0.000712252)
(0.000627521 -1.53301e-05 -3.46057e-07)
(-1.67348e-06 0.000712539 -2.40842e-07)
(-6.03088e-09 -9.41198e-09 0.000712693)
(6.23254e-09 9.66207e-09 -0.000712468)
(0.000628361 -1.96601e-05 -4.49883e-07)
(-1.72469e-06 0.000711857 -3.47493e-07)
(-7.89148e-09 -1.44214e-08 0.000713134)
(8.19196e-09 1.48013e-08 -0.00071286)
(0.000629262 -2.3751e-05 -5.54502e-07)
(-1.85642e-06 0.000711372 -4.71979e-07)
(-1.13896e-08 -2.10415e-08 0.000713773)
(1.1877e-08 2.1635e-08 -0.000713438)
(0.000630263 -2.76829e-05 -6.62038e-07)
(-2.06807e-06 0.000711045 -6.23752e-07)
(-1.80581e-08 -3.06685e-08 0.000714628)
(1.88274e-08 3.16053e-08 -0.000714217)
(0.000631402 -3.15124e-05 -7.71517e-07)
(-2.36363e-06 0.000710829 -8.13766e-07)
(-3.03525e-08 -4.55853e-08 0.000715705)
(3.1563e-08 4.70902e-08 -0.0007152)
(0.000632723 -3.52709e-05 -8.78427e-07)
(-2.75119e-06 0.000710664 -1.05558e-06)
(-5.25159e-08 -6.95104e-08 0.000717003)
(5.44313e-08 7.20286e-08 -0.000716384)
(0.00063427 -3.8955e-05 -9.73433e-07)
(-3.24088e-06 0.000710469 -1.36668e-06)
(-9.25258e-08 -1.09031e-07 0.000718509)
(9.54796e-08 1.13261e-07 -0.000717754)
(0.000636092 -4.25114e-05 -1.04e-06)
(-3.84294e-06 0.000710124 -1.77045e-06)
(-1.64532e-07 -1.75475e-07 0.000720182)
(1.68848e-07 1.82386e-07 -0.000719263)
(0.000638236 -4.58137e-05 -1.05545e-06)
(-4.56445e-06 0.000709471 -2.30043e-06)
(-2.93298e-07 -2.86911e-07 0.000721951)
(2.98992e-07 2.97804e-07 -0.000720834)
(0.000640732 -4.86378e-05 -9.97485e-07)
(-5.39319e-06 0.000708301 -3.00795e-06)
(-5.20355e-07 -4.69898e-07 0.000723704)
(5.26496e-07 4.86398e-07 -0.000722334)
(0.000643554 -5.06434e-05 -8.7157e-07)
(-6.2644e-06 0.000706404 -3.9782e-06)
(-9.09528e-07 -7.5587e-07 0.000725314)
(9.12918e-07 7.79781e-07 -0.000723577)
(0.000646516 -5.14572e-05 -7.87436e-07)
(-6.9386e-06 0.000703811 -5.35573e-06)
(-1.514e-06 -1.15901e-06 0.000726787)
(1.51204e-06 1.19208e-06 -0.000724423)
(0.00064888 -5.09447e-05 -1.20585e-06)
(-6.38095e-06 0.000701116 -7.34436e-06)
(-2.10442e-06 -1.61909e-06 0.00072845)
(2.16816e-06 1.66012e-06 -0.000724773)
(-1.49096e-05 0.00069029 -4.64632e-06)
(-6.36225e-06 -3.12884e-07 0.000725958)
(1.31382e-05 -2.20366e-06 -0.000718251)
(0.000625794 -5.36604e-06 -2.04114e-07)
(-2.57697e-06 0.000719653 -6.93542e-08)
(-7.46089e-09 -1.52533e-09 0.000717529)
(7.69602e-09 1.56151e-09 -0.000717304)
(0.000626553 -1.033e-05 -3.9322e-07)
(-2.46774e-06 0.000718421 -2.07323e-07)
(-8.2695e-09 -4.74058e-09 0.000717385)
(8.50814e-09 4.8484e-09 -0.000717132)
(0.000627292 -1.48452e-05 -5.69136e-07)
(-2.41222e-06 0.000717054 -3.47875e-07)
(-9.69573e-09 -8.2832e-09 0.000717097)
(9.99024e-09 8.47807e-09 -0.000716814)
(0.000628046 -1.90289e-05 -7.40483e-07)
(-2.47949e-06 0.000716041 -5.01086e-07)
(-1.22663e-08 -1.21683e-08 0.000717105)
(1.27091e-08 1.24924e-08 -0.000716781)
(0.000628849 -2.29833e-05 -9.14151e-07)
(-2.65977e-06 0.000715326 -6.79238e-07)
(-1.714e-08 -1.66078e-08 0.000717402)
(1.78373e-08 1.71029e-08 -0.000717021)
(0.000629729 -2.6787e-05 -1.09354e-06)
(-2.94976e-06 0.000714848 -8.95502e-07)
(-2.62829e-08 -2.19812e-08 0.000717971)
(2.73814e-08 2.27213e-08 -0.00071752)
(0.000630717 -3.05043e-05 -1.27795e-06)
(-3.35324e-06 0.000714545 -1.16492e-06)
(-4.26521e-08 -2.86508e-08 0.000718789)
(4.44424e-08 2.98159e-08 -0.000718254)
(0.000631842 -3.41888e-05 -1.46184e-06)
(-3.8786e-06 0.000714346 -1.50588e-06)
(-7.15861e-08 -3.69702e-08 0.000719824)
(7.45051e-08 3.886e-08 -0.00071919)
(0.000633132 -3.78722e-05 -1.6313e-06)
(-4.53565e-06 0.000714149 -1.94159e-06)
(-1.22798e-07 -4.68508e-08 0.000721013)
(1.27363e-07 4.99295e-08 -0.000720269)
(0.000634615 -4.15682e-05 -1.76226e-06)
(-5.33332e-06 0.000713815 -2.50261e-06)
(-2.12769e-07 -5.6653e-08 0.000722256)
(2.19562e-07 6.16677e-08 -0.000721392)
(0.000636308 -4.52423e-05 -1.81855e-06)
(-6.26642e-06 0.000713137 -3.23114e-06)
(-3.68238e-07 -6.04078e-08 0.000723385)
(3.77639e-07 6.86282e-08 -0.000722398)
(0.000638193 -4.87923e-05 -1.75572e-06)
(-7.28921e-06 0.000711838 -4.18831e-06)
(-6.29621e-07 -4.08515e-08 0.000724152)
(6.41038e-07 5.43758e-08 -0.000723034)
(0.000640182 -5.20104e-05 -1.54857e-06)
(-8.26456e-06 0.0007096 -5.47043e-06)
(-1.04672e-06 4.50697e-08 0.000724243)
(1.05722e-06 -2.29877e-08 -0.000722958)
(0.000642047 -5.45563e-05 -1.27646e-06)
(-8.80977e-06 0.000706323 -7.23795e-06)
(-1.62654e-06 2.84434e-07 0.000723519)
(1.63329e-06 -2.50304e-07 -0.000721908)
(0.000643248 -5.60691e-05 -1.43074e-06)
(-7.64298e-06 0.000702601 -9.75385e-06)
(-2.06619e-06 7.63118e-07 0.000722563)
(2.12717e-06 -7.35566e-07 -0.000719999)
(-1.80096e-05 0.000693333 -6.11715e-06)
(-4.26817e-06 2.26012e-06 0.000717219)
(8.61341e-06 -3.14172e-06 -0.000712639)
(0.000625686 -5.11189e-06 -2.79739e-07)
(-3.26295e-06 0.000724765 -8.78429e-08)
(-9.89965e-09 -1.20835e-09 0.000722743)
(1.01917e-08 1.23562e-09 -0.000722445)
(0.000626338 -9.83204e-06 -5.38672e-07)
(-3.12055e-06 0.000723142 -2.62332e-07)
(-1.08689e-08 -3.61251e-09 0.000722073)
(1.11699e-08 3.70142e-09 -0.000721759)
(0.000626969 -1.41171e-05 -7.7958e-07)
(-3.04297e-06 0.000721339 -4.39464e-07)
(-1.23361e-08 -5.85612e-09 0.000721215)
(1.27177e-08 6.02401e-09 -0.000720882)
(0.000627606 -1.80809e-05 -1.01493e-06)
(-3.1171e-06 0.000720004 -6.31723e-07)
(-1.48769e-08 -7.66242e-09 0.000720764)
(1.54306e-08 7.91763e-09 -0.000720398)
(0.000628273 -2.18173e-05 -1.25462e-06)
(-3.32777e-06 0.000719062 -8.54192e-07)
(-1.97756e-08 -8.68001e-09 0.000720683)
(2.06001e-08 9.01962e-09 -0.000720268)
(0.00062899 -2.54071e-05 -1.50416e-06)
(-3.66853e-06 0.000718437 -1.12272e-06)
(-2.88265e-08 -8.22246e-09 0.000720927)
(3.01354e-08 8.67468e-09 -0.00072045)
(0.000629775 -2.89278e-05 -1.76412e-06)
(-4.14035e-06 0.000718065 -1.4551e-06)
(-4.47645e-08 -4.99034e-09 0.000721452)
(4.69221e-08 5.62735e-09 -0.000720902)
(0.000630642 -3.24554e-05 -2.0301e-06)
(-4.74908e-06 0.000717873 -1.87263e-06)
(-7.23313e-08 3.60794e-09 0.0007222)
(7.58283e-08 -2.69504e-09 -0.000721567)
(0.000631603 -3.6065e-05 -2.28744e-06)
(-5.50153e-06 0.000717758 -2.40193e-06)
(-1.19385e-07 2.31944e-08 0.000723079)
(1.24903e-07 -2.18269e-08 -0.000722361)
(0.000632662 -3.98344e-05 -2.5091e-06)
(-6.4008e-06 0.000717583 -3.07766e-06)
(-1.98718e-07 6.5312e-08 0.000723953)
(2.07108e-07 -6.30739e-08 -0.000723156)
(0.000633814 -4.384e-05 -2.65043e-06)
(-7.43065e-06 0.000717139 -3.94694e-06)
(-3.29114e-07 1.52156e-07 0.000724603)
(3.4127e-07 -1.48185e-07 -0.000723746)
(0.000635029 -4.8133e-05 -2.64664e-06)
(-8.52099e-06 0.000716123 -5.07701e-06)
(-5.33835e-07 3.25049e-07 0.000724707)
(5.49915e-07 -3.17673e-07 -0.000723822)
(0.000636231 -5.26897e-05 -2.42594e-06)
(-9.48386e-06 0.000714143 -6.5719e-06)
(-8.33089e-07 6.52214e-07 0.000723847)
(8.51065e-07 -6.38725e-07 -0.000722967)
(0.000637268 -5.72419e-05 -1.97891e-06)
(-9.86294e-06 0.000710853 -8.607e-06)
(-1.19975e-06 1.21693e-06 0.000721732)
(1.21562e-06 -1.19531e-06 -0.00072081)
(0.000637875 -6.10563e-05 -1.63775e-06)
(-8.29004e-06 0.000706405 -1.15072e-05)
(-1.39733e-06 2.01118e-06 0.000718874)
(1.43718e-06 -2.00065e-06 -0.000717462)
(-1.92357e-05 0.000699643 -7.39374e-06)
(-2.41941e-06 3.52969e-06 0.000712741)
(5.41119e-06 -4.78311e-06 -0.000710302)
(0.000625552 -4.77362e-06 -3.48885e-07)
(-3.81479e-06 0.000729539 -1.02608e-07)
(-1.14373e-08 -4.85154e-10 0.000727641)
(1.17646e-08 4.96747e-10 -0.000727278)
(0.000626074 -9.17458e-06 -6.71705e-07)
(-3.64308e-06 0.000727542 -3.06116e-07)
(-1.22909e-08 -1.3029e-09 0.000726432)
(1.26327e-08 1.33716e-09 -0.000726065)
(0.000626573 -1.31615e-05 -9.72209e-07)
(-3.54293e-06 0.000725326 -5.11932e-07)
(-1.32981e-08 -1.56538e-09 0.000724994)
(1.37206e-08 1.60957e-09 -0.000724621)
(0.00062707 -1.68354e-05 -1.26629e-06)
(-3.61416e-06 0.000723678 -7.34244e-07)
(-1.49966e-08 -6.8325e-10 0.000724066)
(1.55733e-08 7.04433e-10 -0.000723669)
(0.000627577 -2.02798e-05 -1.56684e-06)
(-3.8361e-06 0.000722506 -9.90009e-07)
(-1.84509e-08 2.22422e-09 0.00072358)
(1.92833e-08 -2.26651e-09 -0.000723144)
(0.000628105 -2.35756e-05 -1.88229e-06)
(-4.1981e-06 0.000721733 -1.29668e-06)
(-2.49778e-08 8.58512e-09 0.000723473)
(2.631e-08 -8.73168e-09 -0.000722984)
(0.00062866 -2.68051e-05 -2.21549e-06)
(-4.69675e-06 0.000721295 -1.67325e-06)
(-3.65297e-08 2.07946e-08 0.000723684)
(3.87382e-08 -2.10912e-08 -0.000723133)
(0.000629239 -3.00552e-05 -2.56525e-06)
(-5.33221e-06 0.000721124 -2.14209e-06)
(-5.59235e-08 4.32979e-08 0.000724143)
(5.94926e-08 -4.38085e-08 -0.000723524)
(0.000629837 -3.34295e-05 -2.92081e-06)
(-6.10508e-06 0.000721133 -2.73098e-06)
(-8.71413e-08 8.45372e-08 0.000724746)
(9.28409e-08 -8.53321e-08 -0.000724061)
(0.00063044 -3.7058e-05 -3.25833e-06)
(-7.01216e-06 0.000721212 -3.47608e-06)
(-1.36105e-07 1.59948e-07 0.000725348)
(1.44965e-07 -1.61034e-07 -0.000724612)
(0.000631029 -4.112e-05 -3.53481e-06)
(-8.03343e-06 0.000721202 -4.42747e-06)
(-2.09777e-07 2.96344e-07 0.000725735)
(2.23096e-07 -2.97515e-07 -0.000724978)
(0.000631586 -4.58304e-05 -3.67505e-06)
(-9.0973e-06 0.000720834 -5.65836e-06)
(-3.11152e-07 5.37861e-07 0.000725586)
(3.29986e-07 -5.3824e-07 -0.000724865)
(0.000632089 -5.13682e-05 -3.56571e-06)
(-1.00099e-05 0.000719679 -7.28465e-06)
(-4.37371e-07 9.48377e-07 0.000724454)
(4.60514e-07 -9.46173e-07 -0.000723851)
(0.000632501 -5.76008e-05 -3.0809e-06)
(-1.02967e-05 0.00071708 -9.50369e-06)
(-5.63605e-07 1.58828e-06 0.000721832)
(5.85753e-07 -1.58187e-06 -0.00072142)
(0.000632718 -6.34403e-05 -2.21712e-06)
(-8.52665e-06 0.000712247 -1.26833e-05)
(-5.961e-07 2.41098e-06 0.000717552)
(6.15473e-07 -2.41298e-06 -0.00071724)
(-1.95944e-05 0.00070859 -8.14212e-06)
(-7.5615e-07 3.68951e-06 0.000711569)
(2.16313e-06 -4.63258e-06 -0.000712235)
(0.000625399 -4.36537e-06 -4.09886e-07)
(-4.21421e-06 0.000733904 -1.13116e-07)
(-1.15035e-08 4.99791e-10 0.000732151)
(1.18296e-08 -5.14027e-10 -0.000731731)
(0.000625774 -8.38453e-06 -7.8948e-07)
(-4.01877e-06 0.000731562 -3.37166e-07)
(-1.20801e-08 1.68577e-09 0.000730404)
(1.2411e-08 -1.73883e-09 -0.000729994)
(0.000626128 -1.20114e-05 -1.14282e-06)
(-3.8969e-06 0.000728953 -5.62911e-07)
(-1.22588e-08 3.61306e-09 0.000728389)
(1.26462e-08 -3.73244e-09 -0.000727985)
(0.00062647 -1.53322e-05 -1.48857e-06)
(-3.9569e-06 0.000726999 -8.05485e-07)
(-1.24138e-08 7.16756e-09 0.000726975)
(1.29152e-08 -7.39669e-09 -0.000726558)
(0.000626806 -1.84203e-05 -1.84266e-06)
(-4.17301e-06 0.000725595 -1.08282e-06)
(-1.32734e-08 1.35679e-08 0.000726068)
(1.39759e-08 -1.39783e-08 -0.000725621)
(0.000627136 -2.13466e-05 -2.21632e-06)
(-4.52919e-06 0.00072466 -1.41273e-06)
(-1.55595e-08 2.46039e-08 0.000725591)
(1.67079e-08 -2.529e-08 -0.000725101)
(0.000627453 -2.41836e-05 -2.61567e-06)
(-5.01576e-06 0.000724133 -1.81406e-06)
(-2.01181e-08 4.31281e-08 0.000725471)
(2.20646e-08 -4.42147e-08 -0.000724931)
(0.000627743 -2.70109e-05 -3.04454e-06)
(-5.62503e-06 0.000723953 -2.30863e-06)
(-2.74383e-08 7.39739e-08 0.000725631)
(3.05963e-08 -7.56812e-08 -0.000725036)
(0.000627982 -2.99331e-05 -3.4992e-06)
(-6.34891e-06 0.000724058 -2.92317e-06)
(-3.73939e-08 1.25463e-07 0.00072597)
(4.25079e-08 -1.28139e-07 -0.000725323)
(0.000628139 -3.31017e-05 -3.96479e-06)
(-7.1776e-06 0.000724385 -3.69266e-06)
(-4.92224e-08 2.11424e-07 0.000726362)
(5.73665e-08 -2.15494e-07 -0.00072568)
(0.000628185 -3.67447e-05 -4.41047e-06)
(-8.09214e-06 0.000724851 -4.66732e-06)
(-5.95178e-08 3.53695e-07 0.000726641)
(7.21905e-08 -3.59597e-07 -0.000725955)
(0.000628109 -4.11899e-05 -4.77063e-06)
(-9.04053e-06 0.000725287 -5.92536e-06)
(-5.57934e-08 5.84933e-07 0.000726549)
(7.48079e-08 -5.92881e-07 -0.000725922)
(0.000627959 -4.6832e-05 -4.92348e-06)
(-9.88466e-06 0.00072533 -7.60115e-06)
(-1.97795e-08 9.50019e-07 0.000725694)
(4.49926e-08 -9.5936e-07 -0.000725225)
(0.000627867 -5.39014e-05 -4.64544e-06)
(-1.02319e-05 0.000724157 -9.93484e-06)
(5.78566e-08 1.48952e-06 0.00072343)
(-3.08898e-08 -1.49795e-06 -0.000723277)
(0.000627957 -6.14648e-05 -3.44065e-06)
(-8.6254e-06 0.000719822 -1.33407e-05)
(1.36019e-07 2.16733e-06 0.000718544)
(-1.27501e-07 -2.17939e-06 -0.000719091)
(-1.96797e-05 0.000721289 -8.54979e-06)
(6.15176e-07 3.16649e-06 0.000714421)
(-4.71376e-07 -3.84395e-06 -0.000718604)
(0.000625236 -3.90218e-06 -4.6196e-07)
(-4.45017e-06 0.000737806 -1.19147e-07)
(-9.86403e-09 1.50502e-09 0.000736215)
(1.01427e-08 -1.54631e-09 -0.000735747)
(0.000625455 -7.48586e-06 -8.89884e-07)
(-4.23799e-06 0.000735146 -3.54796e-07)
(-1.01273e-08 4.68766e-09 0.000733945)
(1.03948e-08 -4.81892e-09 -0.000733499)
(0.000625655 -1.07016e-05 -1.28786e-06)
(-4.09742e-06 0.000732169 -5.91361e-07)
(-9.26835e-09 8.66467e-09 0.000731366)
(9.55708e-09 -8.91738e-09 -0.000730939)
(0.000625839 -1.36184e-05 -1.67663e-06)
(-4.14096e-06 0.000729916 -8.44222e-07)
(-7.43596e-09 1.44867e-08 0.000729465)
(7.78791e-09 -1.49169e-08 -0.000729038)
(0.000626003 -1.6294e-05 -2.07461e-06)
(-4.33796e-06 0.000728271 -1.13131e-06)
(-5.08517e-09 2.34734e-08 0.000728128)
(5.5565e-09 -2.41624e-08 -0.000727682)
(0.00062614 -1.87814e-05 -2.4953e-06)
(-4.66665e-06 0.000727149 -1.46992e-06)
(-2.33105e-09 3.74039e-08 0.000727264)
(3.14372e-09 -3.84791e-08 -0.000726786)
(0.000626232 -2.11316e-05 -2.94884e-06)
(-5.10968e-06 0.000726485 -1.87766e-06)
(1.06229e-09 5.89574e-08 0.00072679)
(3.80697e-10 -6.06202e-08 -0.000726273)
(0.000626255 -2.34016e-05 -3.44442e-06)
(-5.65029e-06 0.000726225 -2.3743e-06)
(6.47995e-09 9.22058e-08 0.000726623)
(-4.10992e-09 -9.47713e-08 -0.000726062)
(0.000626172 -2.56674e-05 -3.98504e-06)
(-6.26949e-06 0.000726327 -2.98336e-06)
(1.70496e-08 1.4325e-07 0.000726672)
(-1.31117e-08 -1.47186e-07 -0.000726071)
(0.000625934 -2.80444e-05 -4.56692e-06)
(-6.9463e-06 0.000726768 -3.73515e-06)
(3.79084e-08 2.20989e-07 0.000726838)
(-3.14075e-08 -2.26947e-07 -0.000726213)
(0.000625488 -3.07128e-05 -5.17777e-06)
(-7.65718e-06 0.000727528 -4.67431e-06)
(7.83159e-08 3.37521e-07 0.000727004)
(-6.78414e-08 -3.46442e-07 -0.000726386)
(0.0006248 -3.39601e-05 -5.78321e-06)
(-8.36862e-06 0.000728548 -5.87575e-06)
(1.57934e-07 5.0726e-07 0.000726991)
(-1.41499e-07 -5.20511e-07 -0.000726436)
(0.000623923 -3.82469e-05 -6.30482e-06)
(-9.03063e-06 0.000729636 -7.48399e-06)
(3.02366e-07 7.45889e-07 0.000726518)
(-2.78919e-07 -7.6467e-07 -0.000726113)
(0.000623156 -4.42456e-05 -6.52688e-06)
(-9.49388e-06 0.00073018 -9.79955e-06)
(5.1184e-07 1.06755e-06 0.000725039)
(-4.82851e-07 -1.09121e-06 -0.000724953)
(0.000623192 -5.21408e-05 -5.50995e-06)
(-8.6687e-06 0.000727745 -1.33799e-05)
(6.72814e-07 1.4712e-06 0.000720728)
(-6.65824e-07 -1.49841e-06 -0.000721705)
(-2.13009e-05 0.000742969 -8.61981e-06)
(1.735e-06 2.17252e-06 0.000724527)
(-2.55398e-06 -2.60311e-06 -0.000732683)
(0.000625068 -3.38898e-06 -5.04616e-07)
(-6.59206e-09 2.4145e-09 0.000739782)
(6.77873e-09 -2.47999e-09 -0.000739276)
(-4.51803e-06 0.000741195 -1.20647e-07)
(0.000625127 -6.49629e-06 -9.71452e-07)
(-6.55575e-09 7.38777e-09 0.000737017)
(6.72202e-09 -7.58616e-09 -0.000736546)
(-4.29788e-06 0.000738253 -3.58929e-07)
(0.000625174 -9.26685e-06 -1.40484e-06)
(-4.61703e-09 1.30854e-08 0.0007339)
(4.76374e-09 -1.34414e-08 -0.00073346)
(-4.14444e-06 0.000734939 -5.97319e-07)
(0.000625203 -1.17472e-05 -1.82688e-06)
(-6.82253e-10 2.05388e-08 0.000731523)
(8.32524e-10 -2.11111e-08 -0.000731095)
(-4.16996e-06 0.000732397 -8.50823e-07)
(0.000625205 -1.39748e-05 -2.25748e-06)
(4.95952e-09 3.09924e-08 0.000729754)
(-4.7749e-09 -3.18641e-08 -0.000729318)
(-4.33993e-06 0.000730499 -1.13663e-06)
(0.000625165 -1.59793e-05 -2.71203e-06)
(1.26655e-08 4.59604e-08 0.000728486)
(-1.22857e-08 -4.72739e-08 -0.00072803)
(-4.62699e-06 0.000729155 -1.47083e-06)
(0.000625061 -1.77848e-05 -3.20409e-06)
(2.34722e-08 6.75075e-08 0.000727629)
(-2.26906e-08 -6.94996e-08 -0.000727145)
(-5.0064e-06 0.000728293 -1.86902e-06)
(0.000624861 -1.94148e-05 -3.7461e-06)
(3.98118e-08 9.83583e-08 0.000727094)
(-3.84064e-08 -1.01333e-07 -0.000726579)
(-5.45151e-06 0.000727858 -2.34772e-06)
(0.000624519 -2.08967e-05 -4.3451e-06)
(6.61006e-08 1.41746e-07 0.000726794)
(-6.35602e-08 -1.46115e-07 -0.000726252)
(-5.93055e-06 0.000727814 -2.92552e-06)
(0.000623973 -2.22648e-05 -5.00613e-06)
(1.09028e-07 2.01139e-07 0.00072664)
(-1.04554e-07 -2.07549e-07 -0.00072609)
(-6.40504e-06 0.000728142 -3.6248e-06)
(0.000623135 -2.35602e-05 -5.73256e-06)
(1.78866e-07 2.79247e-07 0.000726526)
(-1.71358e-07 -2.88737e-07 -0.000725997)
(-6.82679e-06 0.000728833 -4.47653e-06)
(0.000621884 -2.48407e-05 -6.52071e-06)
(2.93202e-07 3.73862e-07 0.000726263)
(-2.81095e-07 -3.88145e-07 -0.00072582)
(-7.12927e-06 0.000729843 -5.52989e-06)
(0.000620044 -2.62215e-05 -7.35259e-06)
(4.72113e-07 4.70674e-07 0.000725485)
(-4.54071e-07 -4.92283e-07 -0.000725263)
(-7.20853e-06 0.000731038 -6.87422e-06)
(0.000617342 -2.80107e-05 -8.12742e-06)
(7.0719e-07 5.39662e-07 0.000723319)
(-6.83109e-07 -5.72025e-07 -0.000723662)
(-6.81649e-06 0.000732001 -8.68158e-06)
(0.000613497 -3.16803e-05 -8.06667e-06)
(8.8754e-07 5.66078e-07 0.000717158)
(-8.78961e-07 -6.05637e-07 -0.000719368)
(-4.83204e-06 0.000731454 -1.12313e-05)
(2.57004e-06 8.406e-07 0.000746163)
(-4.00429e-06 -1.02386e-06 -0.000759206)
(-3.10278e-05 0.00078439 -7.29136e-06)
(0.000625953 -5.70405e-06 -3.62155e-08)
(-9.52689e-07 0.000708829 -2.24229e-08)
(-1.41829e-09 -1.59557e-09 0.000706542)
(0.000626868 -1.09851e-05 -6.99519e-08)
(-9.15316e-07 0.000708406 -6.70997e-08)
(-1.55146e-09 -4.93403e-09 0.000707402)
(0.000627768 -1.5799e-05 -1.01148e-07)
(-9.00543e-07 0.000707938 -1.12631e-07)
(-1.84414e-09 -8.74496e-09 0.000708211)
(0.000628702 -2.02684e-05 -1.30956e-07)
(-9.33998e-07 0.000707593 -1.62057e-07)
(-2.42666e-09 -1.35267e-08 0.000709094)
(0.000629714 -2.44924e-05 -1.60441e-07)
(-1.0129e-06 0.000707347 -2.19058e-07)
(-3.53321e-09 -2.01783e-08 0.000710093)
(0.000630852 -2.85515e-05 -1.89684e-07)
(-1.13808e-06 0.000707181 -2.87327e-07)
(-5.65678e-09 -3.03943e-08 0.000711251)
(0.000632163 -3.24994e-05 -2.1796e-07)
(-1.3125e-06 0.000707067 -3.7087e-07)
(-9.65505e-09 -4.73448e-08 0.000712611)
(0.000633702 -3.63531e-05 -2.43786e-07)
(-1.54181e-06 0.000706969 -4.74021e-07)
(-1.69615e-08 -7.66939e-08 0.000714213)
(0.000635532 -4.00832e-05 -2.64586e-07)
(-1.83429e-06 0.000706838 -6.01086e-07)
(-3.01188e-08 -1.28408e-07 0.000716102)
(0.000637722 -4.35866e-05 -2.76743e-07)
(-2.19859e-06 0.000706597 -7.55875e-07)
(-5.35258e-08 -2.19924e-07 0.000718317)
(0.000640351 -4.66737e-05 -2.77921e-07)
(-2.64576e-06 0.000706153 -9.39865e-07)
(-9.48212e-08 -3.81561e-07 0.000720901)
(0.000643496 -4.90515e-05 -2.71818e-07)
(-3.18326e-06 0.000705383 -1.14611e-06)
(-1.65716e-07 -6.64266e-07 0.000723898)
(0.000647211 -5.03601e-05 -2.80362e-07)
(-3.80091e-06 0.000704181 -1.34241e-06)
(-2.81104e-07 -1.14727e-06 0.000727361)
(0.000651422 -5.03694e-05 -3.5746e-07)
(-4.40561e-06 0.000702582 -1.43137e-06)
(-4.41755e-07 -1.92716e-06 0.000731368)
(0.000655456 -4.93727e-05 -5.59349e-07)
(-4.41433e-06 0.000700961 -1.23877e-06)
(-5.56747e-07 -3.00903e-06 0.000735787)
(-1.1255e-05 0.000698457 -7.78108e-07)
(-1.63731e-06 -5.31975e-06 0.000744615)
(0.00062591 -5.61312e-06 -1.08169e-07)
(-1.86316e-06 0.000714442 -4.40146e-08)
(-4.23973e-09 -1.5787e-09 0.000712213)
(0.000626783 -1.081e-05 -2.08952e-07)
(-1.78882e-06 0.000713602 -1.31561e-07)
(-4.68515e-09 -4.93098e-09 0.000712602)
(0.00062764 -1.5546e-05 -3.02175e-07)
(-1.75769e-06 0.000712673 -2.20496e-07)
(-5.55265e-09 -8.78689e-09 0.000712894)
(0.000628525 -1.99419e-05 -3.91756e-07)
(-1.81978e-06 0.000711988 -3.16807e-07)
(-7.18533e-09 -1.34564e-08 0.000713378)
(0.00062948 -2.40999e-05 -4.80541e-07)
(-1.96937e-06 0.000711503 -4.27632e-07)
(-1.02525e-08 -1.95474e-08 0.00071407)
(0.000630547 -2.81007e-05 -5.68706e-07)
(-2.20656e-06 0.000711179 -5.60155e-07)
(-1.60908e-08 -2.82429e-08 0.000714989)
(0.000631767 -3.20009e-05 -6.54552e-07)
(-2.53636e-06 0.000710964 -7.2195e-07)
(-2.6836e-08 -4.15177e-08 0.000716142)
(0.000633188 -3.583e-05 -7.33757e-07)
(-2.96852e-06 0.000710791 -9.20938e-07)
(-4.61448e-08 -6.25597e-08 0.000717529)
(0.000634856 -3.95792e-05 -7.98312e-07)
(-3.51519e-06 0.000710575 -1.16516e-06)
(-8.05856e-08 -9.68139e-08 0.000719138)
(0.000636824 -4.31873e-05 -8.37269e-07)
(-4.18887e-06 0.000710184 -1.46127e-06)
(-1.41338e-07 -1.53524e-07 0.000720926)
(0.00063913 -4.65178e-05 -8.42526e-07)
(-4.99862e-06 0.000709443 -1.80994e-06)
(-2.46858e-07 -2.4723e-07 0.000722826)
(0.000641781 -4.93309e-05 -8.174e-07)
(-5.93084e-06 0.000708124 -2.19354e-06)
(-4.23399e-07 -3.97924e-07 0.000724727)
(0.000644679 -5.12765e-05 -8.09937e-07)
(-6.90968e-06 0.000705997 -2.54446e-06)
(-6.99028e-07 -6.25927e-07 0.000726508)
(0.000647471 -5.19939e-05 -9.49357e-07)
(-7.65542e-06 0.000703073 -2.67642e-06)
(-1.05679e-06 -9.32946e-07 0.000728172)
(0.000649335 -5.14458e-05 -1.38114e-06)
(-7.11986e-06 0.000700057 -2.28724e-06)
(-1.26223e-06 -1.26323e-06 0.000729931)
(-1.04925e-05 0.000691834 -6.42169e-07)
(-2.7273e-06 -7.12991e-07 0.000727743)
(0.00062583 -5.4399e-06 -1.78397e-07)
(-2.69339e-06 0.000719882 -6.37559e-08)
(-6.9172e-09 -1.43201e-09 0.000717728)
(0.000626623 -1.04723e-05 -3.44121e-07)
(-2.58318e-06 0.000718634 -1.90371e-07)
(-7.68316e-09 -4.44362e-09 0.00071761)
(0.000627398 -1.50517e-05 -4.97745e-07)
(-2.53314e-06 0.000717252 -3.18693e-07)
(-8.96392e-09 -7.73756e-09 0.000717349)
(0.000628193 -1.9299e-05 -6.46321e-07)
(-2.61561e-06 0.000716235 -4.57332e-07)
(-1.12181e-08 -1.13077e-08 0.000717395)
(0.000629043 -2.33182e-05 -7.93875e-07)
(-2.82086e-06 0.000715521 -6.16268e-07)
(-1.54692e-08 -1.53261e-08 0.000717738)
(0.00062998 -2.71898e-05 -9.41218e-07)
(-3.14641e-06 0.000715049 -8.05513e-07)
(-2.34168e-08 -2.00983e-08 0.000718363)
(0.000631036 -3.09784e-05 -1.08636e-06)
(-3.59725e-06 0.000714749 -1.03544e-06)
(-3.76263e-08 -2.58675e-08 0.000719248)
(0.000632242 -3.47369e-05 -1.22253e-06)
(-4.1838e-06 0.000714546 -1.31667e-06)
(-6.26009e-08 -3.27788e-08 0.000720356)
(0.000633628 -3.8494e-05 -1.33683e-06)
(-4.91817e-06 0.000714326 -1.6597e-06)
(-1.06209e-07 -4.05117e-08 0.000721622)
(0.00063522 -4.22577e-05 -1.41142e-06)
(-5.81162e-06 0.000713938 -2.07252e-06)
(-1.81538e-07 -4.74442e-08 0.000722941)
(0.00063702 -4.59804e-05 -1.42752e-06)
(-6.85916e-06 0.000713154 -2.55337e-06)
(-3.08183e-07 -4.83103e-08 0.000724145)
(0.000638979 -4.95366e-05 -1.37369e-06)
(-8.00877e-06 0.000711669 -3.07286e-06)
(-5.10502e-07 -2.94656e-08 0.000724977)
(0.000640929 -5.26779e-05 -1.28672e-06)
(-9.10133e-06 0.000709145 -3.53119e-06)
(-8.0481e-07 3.85969e-08 0.000725143)
(0.000642485 -5.50059e-05 -1.30289e-06)
(-9.69584e-06 0.000705481 -3.6717e-06)
(-1.14207e-06 2.0451e-07 0.00072453)
(0.000643084 -5.61442e-05 -1.62346e-06)
(-8.53531e-06 0.000701467 -3.10537e-06)
(-1.25017e-06 4.92208e-07 0.000723702)
(-1.20422e-05 0.000693926 -8.22684e-07)
(-1.74154e-06 1.18067e-06 0.000719113)
(0.000625716 -5.18074e-06 -2.45122e-07)
(-3.40973e-06 0.000725062 -8.08186e-08)
(-9.19576e-09 -1.12231e-09 0.000723005)
(0.000626398 -9.96434e-06 -4.71888e-07)
(-3.26585e-06 0.000723418 -2.41096e-07)
(-1.01033e-08 -3.35096e-09 0.000722351)
(0.000627058 -1.4309e-05 -6.82646e-07)
(-3.19474e-06 0.000721597 -4.03051e-07)
(-1.13912e-08 -5.40952e-09 0.00072151)
(0.000627729 -1.83315e-05 -8.87074e-07)
(-3.28723e-06 0.000720256 -5.77318e-07)
(-1.35717e-08 -7.02117e-09 0.000721088)
(0.000628434 -2.21283e-05 -1.0907e-06)
(-3.52817e-06 0.000719317 -7.76161e-07)
(-1.77867e-08 -7.85693e-09 0.000721046)
(0.000629196 -2.57828e-05 -1.29609e-06)
(-3.9117e-06 0.000718702 -1.01164e-06)
(-2.55467e-08 -7.27496e-09 0.000721339)
(0.000630033 -2.93734e-05 -1.50116e-06)
(-4.44008e-06 0.000718339 -1.29597e-06)
(-3.91528e-08 -4.01967e-09 0.000721917)
(0.000630961 -3.2977e-05 -1.69758e-06)
(-5.12107e-06 0.000718149 -1.64142e-06)
(-6.25138e-08 4.35481e-09 0.000722721)
(0.000631989 -3.6669e-05 -1.86962e-06)
(-5.9638e-06 0.000718018 -2.05963e-06)
(-1.01882e-07 2.28939e-08 0.000723651)
(0.000633119 -4.05246e-05 -1.99364e-06)
(-6.97346e-06 0.000717797 -2.5588e-06)
(-1.67204e-07 6.16765e-08 0.000724563)
(0.000634335 -4.46104e-05 -2.03568e-06)
(-8.13277e-06 0.000717252 -3.13502e-06)
(-2.71351e-07 1.395e-07 0.000725227)
(0.000635581 -4.89557e-05 -1.96037e-06)
(-9.36239e-06 0.000716051 -3.75064e-06)
(-4.266e-07 2.88766e-07 0.000725309)
(0.000636725 -5.34796e-05 -1.75842e-06)
(-1.04448e-05 0.000713765 -4.28375e-06)
(-6.32883e-07 5.55644e-07 0.000724398)
(0.000637522 -5.78135e-05 -1.5101e-06)
(-1.08584e-05 0.000710053 -4.42955e-06)
(-8.34557e-07 9.78407e-07 0.000722242)
(0.000637722 -6.11188e-05 -1.45339e-06)
(-9.29842e-06 0.000705278 -3.7367e-06)
(-8.34015e-07 1.50501e-06 0.000719448)
(-1.23637e-05 0.000698851 -1.07737e-06)
(-9.13903e-07 2.21776e-06 0.000713966)
(0.000625575 -4.83503e-06 -3.05977e-07)
(-3.98547e-06 0.000729897 -9.44368e-08)
(-1.06191e-08 -4.44605e-10 0.000727961)
(0.00062612 -9.29361e-06 -5.89176e-07)
(-3.8118e-06 0.000727876 -2.81536e-07)
(-1.14238e-08 -1.20102e-09 0.000726755)
(0.000626643 -1.33342e-05 -8.52496e-07)
(-3.7185e-06 0.000725637 -4.69958e-07)
(-1.2262e-08 -1.44435e-09 0.000725324)
(0.000627164 -1.70607e-05 -1.10781e-06)
(-3.81003e-06 0.000723983 -6.71684e-07)
(-1.36298e-08 -6.1084e-10 0.000724415)
(0.0006277 -2.05596e-05 -1.36337e-06)
(-4.06555e-06 0.000722816 -9.0063e-07)
(-1.64817e-08 2.10946e-09 0.00072396)
(0.000628259 -2.39141e-05 -1.62364e-06)
(-4.47461e-06 0.000722057 -1.17013e-06)
(-2.18558e-08 8.03826e-09 0.000723892)
(0.000628849 -2.72084e-05 -1.88679e-06)
(-5.03465e-06 0.000721635 -1.49313e-06)
(-3.12897e-08 1.94145e-08 0.000724145)
(0.000629466 -3.05319e-05 -2.14467e-06)
(-5.74772e-06 0.000721475 -1.88235e-06)
(-4.70095e-08 4.02893e-08 0.000724642)
(0.000630104 -3.39919e-05 -2.38131e-06)
(-6.61656e-06 0.000721485 -2.34968e-06)
(-7.19461e-08 7.81409e-08 0.000725272)
(0.000630744 -3.77207e-05 -2.56939e-06)
(-7.63986e-06 0.00072154 -2.90318e-06)
(-1.10181e-07 1.46375e-07 0.00072588)
(0.000631364 -4.18966e-05 -2.66237e-06)
(-8.79707e-06 0.000721457 -3.53817e-06)
(-1.65201e-07 2.67372e-07 0.000726231)
(0.000631933 -4.67176e-05 -2.59607e-06)
(-1.00074e-05 0.000720934 -4.21461e-06)
(-2.35397e-07 4.75667e-07 0.000725984)
(0.00063241 -5.23111e-05 -2.29493e-06)
(-1.10469e-05 0.000719493 -4.80201e-06)
(-3.11781e-07 8.14389e-07 0.000724671)
(0.000632725 -5.84228e-05 -1.73714e-06)
(-1.13736e-05 0.000716448 -4.97056e-06)
(-3.6299e-07 1.30538e-06 0.000721815)
(0.00063278 -6.37399e-05 -1.16168e-06)
(-9.63208e-06 0.000711137 -4.22139e-06)
(-3.17408e-07 1.86957e-06 0.000717461)
(-1.20586e-05 0.000706095 -1.39042e-06)