/*--------------------------------*- C++ -*----------------------------------*\
| =========                 |                                                 |
| \\      /  F ield         | foam-extend: Open Source CFD                    |
|  \\    /   O peration     | Version:     3.1                                |
|   \\  /    A nd           | Web:         http://www.extend-project.de       |
|    \\/     M anipulation  |                                                 |
\*---------------------------------------------------------------------------*/
FoamFile
{
    version     2.0;
    format      ascii;
    class       volVectorField;
    location    "0.0011";
    object      D_0_0;
}
// * * * * * * * * * * * * * * * * * * * * * * * * * * * * * * * * * * * * * //

dimensions      [0 1 0 0 0 0 0];

internalField   nonuniform List<vector> 
6400
(
(6.96845e-06 2.4539e-07 4.88486e-06)
(5.63208e-06 2.00249e-07 1.55526e-06)
(5.13302e-06 1.80545e-07 -8.32977e-07)
(5.38048e-06 1.84378e-07 -3.90537e-06)
(6.91501e-06 8.01313e-07 4.88739e-06)
(5.59146e-06 6.48163e-07 1.55994e-06)
(5.09742e-06 5.90994e-07 -8.27704e-07)
(5.34842e-06 6.20268e-07 -3.89972e-06)
(6.82717e-06 1.34762e-06 4.8853e-06)
(5.52061e-06 1.08961e-06 1.55939e-06)
(5.0331e-06 9.94116e-07 -8.27668e-07)
(5.28148e-06 1.0443e-06 -3.89932e-06)
(6.69847e-06 1.88272e-06 4.88397e-06)
(5.41666e-06 1.5226e-06 1.55877e-06)
(4.93836e-06 1.38908e-06 -8.27817e-07)
(5.18207e-06 1.45883e-06 -3.899e-06)
(6.52898e-06 2.40452e-06 4.88336e-06)
(5.2796e-06 1.94485e-06 1.55857e-06)
(4.81332e-06 1.7741e-06 -8.27643e-07)
(5.05076e-06 1.86269e-06 -3.89838e-06)
(6.31951e-06 2.91046e-06 4.88325e-06)
(5.11011e-06 2.35417e-06 1.55871e-06)
(4.65868e-06 2.14724e-06 -8.27228e-07)
(4.88832e-06 2.25404e-06 -3.89757e-06)
(6.07123e-06 3.39783e-06 4.88352e-06)
(4.90916e-06 2.74835e-06 1.55906e-06)
(4.47534e-06 2.50649e-06 -8.26681e-07)
(4.69579e-06 2.63079e-06 -3.8967e-06)
(5.78553e-06 3.86384e-06 4.88411e-06)
(4.67794e-06 3.12514e-06 1.55957e-06)
(4.26442e-06 2.84981e-06 -8.26087e-07)
(4.47437e-06 2.99083e-06 -3.89584e-06)
(5.46407e-06 4.30582e-06 4.88498e-06)
(4.41781e-06 3.48235e-06 1.56017e-06)
(4.02726e-06 3.17522e-06 -8.25524e-07)
(4.22551e-06 3.33206e-06 -3.89512e-06)
(5.10865e-06 4.72129e-06 4.88608e-06)
(4.13046e-06 3.81796e-06 1.56074e-06)
(3.76544e-06 3.4809e-06 -8.2512e-07)
(3.95094e-06 3.65259e-06 -3.89468e-06)
(4.72129e-06 5.10865e-06 4.88608e-06)
(3.81796e-06 4.13046e-06 1.56074e-06)
(3.4809e-06 3.76544e-06 -8.2512e-07)
(3.65259e-06 3.95094e-06 -3.89468e-06)
(4.30582e-06 5.46407e-06 4.88498e-06)
(3.48235e-06 4.41781e-06 1.56017e-06)
(3.17522e-06 4.02726e-06 -8.25524e-07)
(3.33206e-06 4.22551e-06 -3.89512e-06)
(3.86384e-06 5.78553e-06 4.88411e-06)
(3.12514e-06 4.67794e-06 1.55957e-06)
(2.84981e-06 4.26442e-06 -8.26086e-07)
(2.99083e-06 4.47437e-06 -3.89585e-06)
(3.39783e-06 6.07123e-06 4.88353e-06)
(2.74835e-06 4.90916e-06 1.55907e-06)
(2.50649e-06 4.47534e-06 -8.26681e-07)
(2.63079e-06 4.69579e-06 -3.8967e-06)
(2.91046e-06 6.31951e-06 4.88325e-06)
(2.35417e-06 5.11011e-06 1.55871e-06)
(2.14724e-06 4.65868e-06 -8.27228e-07)
(2.25404e-06 4.88832e-06 -3.89757e-06)
(2.40452e-06 6.52898e-06 4.88336e-06)
(1.94485e-06 5.2796e-06 1.55857e-06)
(1.7741e-06 4.81332e-06 -8.27642e-07)
(1.86269e-06 5.05076e-06 -3.89838e-06)
(1.88272e-06 6.69847e-06 4.88397e-06)
(1.5226e-06 5.41666e-06 1.55877e-06)
(1.38908e-06 4.93836e-06 -8.27817e-07)
(1.45883e-06 5.18207e-06 -3.899e-06)
(1.34762e-06 6.82717e-06 4.8853e-06)
(1.08961e-06 5.52061e-06 1.55939e-06)
(9.94115e-07 5.0331e-06 -8.27667e-07)
(1.0443e-06 5.28148e-06 -3.89932e-06)
(8.01313e-07 6.91501e-06 4.88739e-06)
(6.48163e-07 5.59146e-06 1.55994e-06)
(5.90994e-07 5.09742e-06 -8.27703e-07)
(6.20268e-07 5.34842e-06 -3.89972e-06)
(2.45389e-07 6.96845e-06 4.88487e-06)
(2.00249e-07 5.63208e-06 1.55526e-06)
(1.80545e-07 5.13302e-06 -8.32977e-07)
(1.84378e-07 5.38048e-06 -3.90537e-06)
(2.77593e-05 1.07918e-06 9.7486e-06)
(2.63427e-05 1.02827e-06 3.7224e-06)
(2.54436e-05 9.95145e-07 -1.59547e-06)
(2.50323e-05 9.82621e-07 -7.44526e-06)
(2.75727e-05 3.25108e-06 9.73477e-06)
(2.61685e-05 3.08921e-06 3.70959e-06)
(2.52801e-05 2.98743e-06 -1.60814e-06)
(2.48757e-05 2.94277e-06 -7.45766e-06)
(2.72258e-05 5.40488e-06 9.72904e-06)
(2.58395e-05 5.1324e-06 3.70501e-06)
(2.49628e-05 4.96131e-06 -1.6117e-06)
(2.45643e-05 4.88507e-06 -7.45984e-06)
(2.67132e-05 7.52465e-06 9.72659e-06)
(2.53529e-05 7.14398e-06 3.70367e-06)
(2.44927e-05 6.90446e-06 -1.6119e-06)
(2.41017e-05 6.79705e-06 -7.45869e-06)
(2.6037e-05 9.59744e-06 9.72575e-06)
(2.47111e-05 9.11108e-06 3.70386e-06)
(2.38724e-05 8.8046e-06 -1.61065e-06)
(2.3491e-05 8.66661e-06 -7.4562e-06)
(2.52012e-05 1.16106e-05 9.7259e-06)
(2.39175e-05 1.10216e-05 3.70485e-06)
(2.31055e-05 1.065e-05 -1.60874e-06)
(2.27361e-05 1.04822e-05 -7.45321e-06)
(2.42105e-05 1.35519e-05 9.72676e-06)
(2.2977e-05 1.28638e-05 3.70628e-06)
(2.21966e-05 1.24294e-05 -1.60661e-06)
(2.18415e-05 1.22327e-05 -7.45019e-06)
(2.30709e-05 1.54096e-05 9.72818e-06)
(2.18951e-05 1.46266e-05 3.70793e-06)
(2.11513e-05 1.41318e-05 -1.60452e-06)
(2.08127e-05 1.39075e-05 -7.44745e-06)
(2.1789e-05 1.71723e-05 9.72994e-06)
(2.06783e-05 1.62991e-05 3.70954e-06)
(1.99758e-05 1.5747e-05 -1.60275e-06)
(1.96561e-05 1.54963e-05 -7.44529e-06)
(2.03722e-05 1.88296e-05 9.73158e-06)
(1.93341e-05 1.78713e-05 3.71072e-06)
(1.86776e-05 1.72651e-05 -1.60166e-06)
(1.8379e-05 1.69896e-05 -7.44405e-06)
(1.88296e-05 2.03722e-05 9.73158e-06)
(1.78713e-05 1.93341e-05 3.71072e-06)
(1.72651e-05 1.86776e-05 -1.60166e-06)
(1.69896e-05 1.8379e-05 -7.44405e-06)
(1.71723e-05 2.1789e-05 9.72994e-06)
(1.62991e-05 2.06783e-05 3.70954e-06)
(1.5747e-05 1.99758e-05 -1.60275e-06)
(1.54963e-05 1.96561e-05 -7.44529e-06)
(1.54096e-05 2.30709e-05 9.72818e-06)
(1.46266e-05 2.18951e-05 3.70793e-06)
(1.41318e-05 2.11513e-05 -1.60452e-06)
(1.39075e-05 2.08127e-05 -7.44745e-06)
(1.35519e-05 2.42105e-05 9.72677e-06)
(1.28638e-05 2.2977e-05 3.70629e-06)
(1.24294e-05 2.21966e-05 -1.60661e-06)
(1.22327e-05 2.18415e-05 -7.45019e-06)
(1.16106e-05 2.52012e-05 9.7259e-06)
(1.10216e-05 2.39175e-05 3.70486e-06)
(1.065e-05 2.31055e-05 -1.60874e-06)
(1.04822e-05 2.27361e-05 -7.45321e-06)
(9.59744e-06 2.6037e-05 9.72575e-06)
(9.11108e-06 2.47111e-05 3.70386e-06)
(8.8046e-06 2.38724e-05 -1.61064e-06)
(8.66662e-06 2.3491e-05 -7.4562e-06)
(7.52465e-06 2.67132e-05 9.72659e-06)
(7.14398e-06 2.5353e-05 3.70367e-06)
(6.90446e-06 2.44927e-05 -1.6119e-06)
(6.79705e-06 2.41017e-05 -7.45869e-06)
(5.40488e-06 2.72258e-05 9.72905e-06)
(5.1324e-06 2.58395e-05 3.70501e-06)
(4.96131e-06 2.49628e-05 -1.6117e-06)
(4.88507e-06 2.45643e-05 -7.45984e-06)
(3.25108e-06 2.75727e-05 9.73477e-06)
(3.08921e-06 2.61685e-05 3.70959e-06)
(2.98743e-06 2.52801e-05 -1.60814e-06)
(2.94277e-06 2.48757e-05 -7.45766e-06)
(1.07918e-06 2.77593e-05 9.7486e-06)
(1.02827e-06 2.63427e-05 3.7224e-06)
(9.95145e-07 2.54436e-05 -1.59546e-06)
(9.82621e-07 2.50323e-05 -7.44526e-06)
(4.76336e-05 1.86705e-06 9.37292e-06)
(4.63782e-05 1.82408e-06 3.66192e-06)
(4.52347e-05 1.78309e-06 -1.67362e-06)
(4.41875e-05 1.74887e-06 -7.27653e-06)
(4.73293e-05 5.59348e-06 9.35979e-06)
(4.60806e-05 5.45192e-06 3.64818e-06)
(4.49444e-05 5.32291e-06 -1.68727e-06)
(4.39035e-05 5.20558e-06 -7.28841e-06)
(4.67373e-05 9.28636e-06 9.35319e-06)
(4.55031e-05 9.04629e-06 3.64213e-06)
(4.43805e-05 8.82855e-06 -1.69216e-06)
(4.33522e-05 8.62957e-06 -7.29124e-06)
(4.58575e-05 1.29213e-05 9.35004e-06)
(4.4646e-05 1.25848e-05 3.6403e-06)
(4.3544e-05 1.22795e-05 -1.69248e-06)
(4.25345e-05 1.20001e-05 -7.28977e-06)
(4.4696e-05 1.64764e-05 9.34886e-06)
(4.35146e-05 1.60457e-05 3.64064e-06)
(4.244e-05 1.56545e-05 -1.69058e-06)
(4.14555e-05 1.52964e-05 -7.28609e-06)
(4.32598e-05 1.99301e-05 9.34893e-06)
(4.21159e-05 1.94076e-05 3.64211e-06)
(4.10753e-05 1.89328e-05 -1.68763e-06)
(4.0122e-05 1.84981e-05 -7.28148e-06)
(4.15579e-05 2.32612e-05 9.3499e-06)
(4.04586e-05 2.26501e-05 3.6442e-06)
(3.94586e-05 2.20945e-05 -1.68432e-06)
(3.85425e-05 2.15857e-05 -7.27675e-06)
(3.96006e-05 2.64495e-05 9.35154e-06)
(3.85528e-05 2.57533e-05 3.64651e-06)
(3.75996e-05 2.51202e-05 -1.68114e-06)
(3.67266e-05 2.45403e-05 -7.27248e-06)
(3.73995e-05 2.94753e-05 9.35353e-06)
(3.64098e-05 2.86983e-05 3.64866e-06)
(3.55098e-05 2.79914e-05 -1.67852e-06)
(3.46854e-05 2.73439e-05 -7.26918e-06)
(3.49677e-05 3.23203e-05 9.35528e-06)
(3.40428e-05 3.14669e-05 3.65013e-06)
(3.32019e-05 3.06907e-05 -1.67697e-06)
(3.24316e-05 2.99796e-05 -7.26733e-06)
(3.23203e-05 3.49677e-05 9.35528e-06)
(3.14669e-05 3.40428e-05 3.65013e-06)
(3.06907e-05 3.32019e-05 -1.67697e-06)
(2.99796e-05 3.24316e-05 -7.26733e-06)
(2.94753e-05 3.73995e-05 9.35354e-06)
(2.86982e-05 3.64098e-05 3.64867e-06)
(2.79914e-05 3.55098e-05 -1.67852e-06)
(2.73439e-05 3.46854e-05 -7.26918e-06)
(2.64495e-05 3.96006e-05 9.35154e-06)
(2.57533e-05 3.85528e-05 3.64651e-06)
(2.51202e-05 3.75997e-05 -1.68114e-06)
(2.45403e-05 3.67266e-05 -7.27248e-06)
(2.32612e-05 4.15579e-05 9.34991e-06)
(2.26501e-05 4.04586e-05 3.6442e-06)
(2.20945e-05 3.94586e-05 -1.68432e-06)
(2.15857e-05 3.85425e-05 -7.27675e-06)
(1.99301e-05 4.32598e-05 9.34894e-06)
(1.94076e-05 4.2116e-05 3.64212e-06)
(1.89328e-05 4.10753e-05 -1.68763e-06)
(1.84981e-05 4.0122e-05 -7.28148e-06)
(1.64764e-05 4.4696e-05 9.34887e-06)
(1.60457e-05 4.35146e-05 3.64064e-06)
(1.56545e-05 4.244e-05 -1.69058e-06)
(1.52964e-05 4.14555e-05 -7.28609e-06)
(1.29213e-05 4.58575e-05 9.35004e-06)
(1.25848e-05 4.46461e-05 3.64031e-06)
(1.22795e-05 4.3544e-05 -1.69248e-06)
(1.20002e-05 4.25345e-05 -7.28977e-06)
(9.28635e-06 4.67373e-05 9.3532e-06)
(9.04629e-06 4.55031e-05 3.64214e-06)
(8.82855e-06 4.43805e-05 -1.69215e-06)
(8.62957e-06 4.33522e-05 -7.29124e-06)
(5.59348e-06 4.73293e-05 9.3598e-06)
(5.45192e-06 4.60806e-05 3.64819e-06)
(5.32291e-06 4.49444e-05 -1.68727e-06)
(5.20558e-06 4.39035e-05 -7.28841e-06)
(1.86705e-06 4.76336e-05 9.37293e-06)
(1.82408e-06 4.63782e-05 3.66193e-06)
(1.78309e-06 4.52347e-05 -1.67362e-06)
(1.74887e-06 4.41876e-05 -7.27653e-06)
(6.21063e-05 2.43902e-06 5.80611e-06)
(6.08985e-05 2.39763e-06 2.05563e-06)
(5.95885e-05 2.35116e-06 -1.53773e-06)
(5.81658e-05 2.30554e-06 -5.22859e-06)
(6.17145e-05 7.2963e-06 5.79813e-06)
(6.05106e-05 7.161e-06 2.04768e-06)
(5.92059e-05 7.01392e-06 -1.54524e-06)
(5.7789e-05 6.85516e-06 -5.23463e-06)
(6.09422e-05 1.21089e-05 5.79322e-06)
(5.97515e-05 1.18797e-05 2.0438e-06)
(5.84618e-05 1.16312e-05 -1.54779e-06)
(5.70619e-05 1.13612e-05 -5.23526e-06)
(5.97934e-05 1.68459e-05 5.79043e-06)
(5.8624e-05 1.65242e-05 2.04274e-06)
(5.73576e-05 1.61752e-05 -1.54707e-06)
(5.5983e-05 1.5796e-05 -5.23252e-06)
(5.82763e-05 2.14789e-05 5.78911e-06)
(5.71356e-05 2.10662e-05 2.04342e-06)
(5.59004e-05 2.06187e-05 -1.54442e-06)
(5.45598e-05 2.01324e-05 -5.22769e-06)
(5.6401e-05 2.59799e-05 5.78888e-06)
(5.52962e-05 2.54784e-05 2.04514e-06)
(5.41e-05 2.49347e-05 -1.54074e-06)
(5.28019e-05 2.4344e-05 -5.22185e-06)
(5.41795e-05 3.03215e-05 5.78952e-06)
(5.31176e-05 2.97339e-05 2.04746e-06)
(5.19679e-05 2.90971e-05 -1.5367e-06)
(5.07206e-05 2.84054e-05 -5.21585e-06)
(5.16254e-05 3.44773e-05 5.79087e-06)
(5.06132e-05 3.3807e-05 2.05e-06)
(4.95176e-05 3.30807e-05 -1.53285e-06)
(4.8329e-05 3.22921e-05 -5.21044e-06)
(4.87542e-05 3.84219e-05 5.79264e-06)
(4.77983e-05 3.76729e-05 2.05232e-06)
(4.67639e-05 3.68615e-05 -1.52973e-06)
(4.56418e-05 3.59806e-05 -5.20628e-06)
(4.5583e-05 4.21312e-05 5.79423e-06)
(4.469e-05 4.13078e-05 2.05387e-06)
(4.37238e-05 4.04162e-05 -1.52791e-06)
(4.26755e-05 3.94486e-05 -5.20397e-06)
(4.21312e-05 4.5583e-05 5.79423e-06)
(4.13078e-05 4.469e-05 2.05387e-06)
(4.04162e-05 4.37238e-05 -1.52791e-06)
(3.94486e-05 4.26755e-05 -5.20397e-06)
(3.84219e-05 4.87542e-05 5.79264e-06)
(3.76729e-05 4.77983e-05 2.05233e-06)
(3.68615e-05 4.67639e-05 -1.52973e-06)
(3.59806e-05 4.56418e-05 -5.20628e-06)
(3.44773e-05 5.16254e-05 5.79087e-06)
(3.3807e-05 5.06132e-05 2.05e-06)
(3.30807e-05 4.95176e-05 -1.53285e-06)
(3.22921e-05 4.8329e-05 -5.21044e-06)
(3.03215e-05 5.41795e-05 5.78953e-06)
(2.97339e-05 5.31176e-05 2.04747e-06)
(2.90971e-05 5.1968e-05 -1.5367e-06)
(2.84054e-05 5.07206e-05 -5.21585e-06)
(2.59799e-05 5.6401e-05 5.78888e-06)
(2.54784e-05 5.52962e-05 2.04515e-06)
(2.49347e-05 5.41e-05 -1.54074e-06)
(2.4344e-05 5.28019e-05 -5.22185e-06)
(2.14789e-05 5.82763e-05 5.78912e-06)
(2.10662e-05 5.71356e-05 2.04342e-06)
(2.06187e-05 5.59004e-05 -1.54442e-06)
(2.01324e-05 5.45599e-05 -5.22769e-06)
(1.68459e-05 5.97934e-05 5.79044e-06)
(1.65242e-05 5.8624e-05 2.04274e-06)
(1.61752e-05 5.73576e-05 -1.54707e-06)
(1.5796e-05 5.5983e-05 -5.23252e-06)
(1.21089e-05 6.09422e-05 5.79323e-06)
(1.18797e-05 5.97515e-05 2.0438e-06)
(1.16312e-05 5.84618e-05 -1.54779e-06)
(1.13612e-05 5.70619e-05 -5.23526e-06)
(7.2963e-06 6.17145e-05 5.79814e-06)
(7.161e-06 6.05106e-05 2.04769e-06)
(7.01392e-06 5.92059e-05 -1.54524e-06)
(6.85517e-06 5.7789e-05 -5.23463e-06)
(2.43902e-06 6.21063e-05 5.80612e-06)
(2.39763e-06 6.08985e-05 2.05564e-06)
(2.35116e-06 5.95885e-05 -1.53773e-06)
(2.30554e-06 5.81659e-05 -5.22859e-06)
(6.87991e-05 2.70117e-06 7.59082e-07)
(6.76038e-05 2.66048e-06 -3.26318e-07)
(6.62347e-05 2.61232e-06 -1.43028e-06)
(6.46839e-05 2.56324e-06 -2.51662e-06)
(6.83649e-05 8.07923e-06 7.57443e-07)
(6.71725e-05 7.94667e-06 -3.27361e-07)
(6.58079e-05 7.79412e-06 -1.43061e-06)
(6.42627e-05 7.62243e-06 -2.5159e-06)
(6.75066e-05 1.34076e-05 7.55616e-07)
(6.63268e-05 1.3183e-05 -3.27774e-07)
(6.49776e-05 1.29251e-05 -1.42965e-06)
(6.34509e-05 1.26326e-05 -2.51334e-06)
(6.623e-05 1.86518e-05 7.54076e-07)
(6.50709e-05 1.83362e-05 -3.27316e-07)
(6.37459e-05 1.79737e-05 -1.42733e-06)
(6.22467e-05 1.75625e-05 -2.50897e-06)
(6.45449e-05 2.37805e-05 7.53029e-07)
(6.34138e-05 2.33749e-05 -3.26065e-07)
(6.21211e-05 2.29095e-05 -1.42393e-06)
(6.06589e-05 2.23819e-05 -2.5032e-06)
(6.24628e-05 2.87629e-05 7.52572e-07)
(6.1367e-05 2.82691e-05 -3.24183e-07)
(6.0115e-05 2.77031e-05 -1.41984e-06)
(5.8699e-05 2.70616e-05 -2.49665e-06)
(5.99975e-05 3.35689e-05 7.52762e-07)
(5.89441e-05 3.29894e-05 -3.21875e-07)
(5.77408e-05 3.23256e-05 -1.4155e-06)
(5.63803e-05 3.15738e-05 -2.48998e-06)
(5.71647e-05 3.81695e-05 7.53594e-07)
(5.61606e-05 3.75074e-05 -3.19406e-07)
(5.50141e-05 3.67496e-05 -1.41139e-06)
(5.37178e-05 3.58917e-05 -2.48394e-06)
(5.39818e-05 4.2537e-05 7.54909e-07)
(5.30339e-05 4.1796e-05 -3.17152e-07)
(5.19516e-05 4.09485e-05 -1.40808e-06)
(5.07282e-05 3.99896e-05 -2.47928e-06)
(5.04681e-05 4.66448e-05 7.56197e-07)
(4.9583e-05 4.58293e-05 -3.15669e-07)
(4.85724e-05 4.48973e-05 -1.40616e-06)
(4.74299e-05 4.38432e-05 -2.47669e-06)
(4.66448e-05 5.04681e-05 7.56197e-07)
(4.58293e-05 4.9583e-05 -3.15669e-07)
(4.48973e-05 4.85724e-05 -1.40616e-06)
(4.38432e-05 4.74299e-05 -2.47669e-06)
(4.2537e-05 5.39819e-05 7.5491e-07)
(4.1796e-05 5.30339e-05 -3.17151e-07)
(4.09485e-05 5.19517e-05 -1.40807e-06)
(3.99896e-05 5.07282e-05 -2.47928e-06)
(3.81695e-05 5.71647e-05 7.53596e-07)
(3.75074e-05 5.61607e-05 -3.19404e-07)
(3.67496e-05 5.50141e-05 -1.41139e-06)
(3.58917e-05 5.37178e-05 -2.48394e-06)
(3.35689e-05 5.99975e-05 7.52765e-07)
(3.29894e-05 5.89441e-05 -3.21873e-07)
(3.23256e-05 5.77409e-05 -1.41549e-06)
(3.15738e-05 5.63803e-05 -2.48998e-06)
(2.87629e-05 6.24628e-05 7.52576e-07)
(2.82691e-05 6.1367e-05 -3.2418e-07)
(2.77031e-05 6.0115e-05 -1.41984e-06)
(2.70617e-05 5.8699e-05 -2.49665e-06)
(2.37805e-05 6.45449e-05 7.53034e-07)
(2.33749e-05 6.34138e-05 -3.26061e-07)
(2.29095e-05 6.21212e-05 -1.42393e-06)
(2.23819e-05 6.06589e-05 -2.5032e-06)
(1.86518e-05 6.623e-05 7.54082e-07)
(1.83362e-05 6.50709e-05 -3.27311e-07)
(1.79737e-05 6.37459e-05 -1.42733e-06)
(1.75625e-05 6.22467e-05 -2.50897e-06)
(1.34076e-05 6.75066e-05 7.55622e-07)
(1.3183e-05 6.63268e-05 -3.27769e-07)
(1.29251e-05 6.49777e-05 -1.42965e-06)
(1.26326e-05 6.34509e-05 -2.51334e-06)
(8.07923e-06 6.83649e-05 7.57449e-07)
(7.94667e-06 6.71725e-05 -3.27356e-07)
(7.79413e-06 6.58079e-05 -1.43061e-06)
(7.62243e-06 6.42628e-05 -2.5159e-06)
(2.70117e-06 6.87991e-05 7.59089e-07)
(2.66048e-06 6.76038e-05 -3.26313e-07)
(2.61232e-06 6.62347e-05 -1.43028e-06)
(2.56325e-06 6.46839e-05 -2.51662e-06)
(6.72459e-05 2.63645e-06 -4.33459e-06)
(6.60829e-05 2.59751e-06 -2.81195e-06)
(6.47768e-05 2.55207e-06 -1.45221e-06)
(6.33194e-05 2.50653e-06 4.42953e-09)
(6.68187e-05 7.88923e-06 -4.33054e-06)
(6.56586e-05 7.76197e-06 -2.80716e-06)
(6.43567e-05 7.61806e-06 -1.44668e-06)
(6.29047e-05 7.45862e-06 1.05273e-08)
(6.59752e-05 1.30934e-05 -4.32902e-06)
(6.48272e-05 1.28775e-05 -2.80431e-06)
(6.35399e-05 1.26339e-05 -1.44276e-06)
(6.21051e-05 1.23619e-05 1.54859e-08)
(6.47215e-05 1.82148e-05 -4.32873e-06)
(6.35933e-05 1.7911e-05 -2.80228e-06)
(6.23288e-05 1.75682e-05 -1.43921e-06)
(6.09198e-05 1.71854e-05 2.06747e-08)
(6.30677e-05 2.32228e-05 -4.32891e-06)
(6.19663e-05 2.28318e-05 -2.80041e-06)
(6.07326e-05 2.23912e-05 -1.43551e-06)
(5.93581e-05 2.18993e-05 2.63941e-08)
(6.10256e-05 2.80873e-05 -4.32908e-06)
(5.99583e-05 2.76104e-05 -2.79841e-06)
(5.87631e-05 2.70739e-05 -1.43156e-06)
(5.74321e-05 2.64751e-05 3.2553e-08)
(5.86093e-05 3.27792e-05 -4.32895e-06)
(5.75832e-05 3.22186e-05 -2.79622e-06)
(5.64346e-05 3.15886e-05 -1.42751e-06)
(5.51557e-05 3.0886e-05 3.87782e-08)
(5.58349e-05 3.72708e-05 -4.32838e-06)
(5.48569e-05 3.66291e-05 -2.79395e-06)
(5.37626e-05 3.59089e-05 -1.42369e-06)
(5.25445e-05 3.51061e-05 4.44863e-08)
(5.272e-05 4.15353e-05 -4.32739e-06)
(5.17972e-05 4.08161e-05 -2.7919e-06)
(5.07647e-05 4.00097e-05 -1.42059e-06)
(4.96154e-05 3.91114e-05 4.89578e-08)
(4.92839e-05 4.55477e-05 -4.32637e-06)
(4.84229e-05 4.47551e-05 -2.79056e-06)
(4.74594e-05 4.38674e-05 -1.41879e-06)
(4.6387e-05 4.28788e-05 5.14576e-08)
(4.55477e-05 4.92839e-05 -4.32637e-06)
(4.47551e-05 4.84229e-05 -2.79056e-06)
(4.38674e-05 4.74594e-05 -1.41879e-06)
(4.28788e-05 4.6387e-05 5.14578e-08)
(4.15353e-05 5.272e-05 -4.32739e-06)
(4.08161e-05 5.17972e-05 -2.7919e-06)
(4.00097e-05 5.07647e-05 -1.42059e-06)
(3.91114e-05 4.96154e-05 4.89583e-08)
(3.72708e-05 5.58349e-05 -4.32838e-06)
(3.66291e-05 5.48569e-05 -2.79395e-06)
(3.59089e-05 5.37626e-05 -1.42369e-06)
(3.51061e-05 5.25445e-05 4.44871e-08)
(3.27792e-05 5.86093e-05 -4.32895e-06)
(3.22186e-05 5.75832e-05 -2.79621e-06)
(3.15886e-05 5.64346e-05 -1.42751e-06)
(3.0886e-05 5.51557e-05 3.87793e-08)
(2.80873e-05 6.10256e-05 -4.32907e-06)
(2.76104e-05 5.99583e-05 -2.7984e-06)
(2.70739e-05 5.87631e-05 -1.43156e-06)
(2.64752e-05 5.74321e-05 3.25545e-08)
(2.32228e-05 6.30677e-05 -4.3289e-06)
(2.28318e-05 6.19663e-05 -2.8004e-06)
(2.23912e-05 6.07326e-05 -1.43551e-06)
(2.18993e-05 5.93581e-05 2.6396e-08)
(1.82148e-05 6.47215e-05 -4.32873e-06)
(1.7911e-05 6.35933e-05 -2.80228e-06)
(1.75682e-05 6.23288e-05 -1.43921e-06)
(1.71854e-05 6.09198e-05 2.06769e-08)
(1.30934e-05 6.59752e-05 -4.32902e-06)
(1.28775e-05 6.48272e-05 -2.80431e-06)
(1.26339e-05 6.35399e-05 -1.44275e-06)
(1.23619e-05 6.21051e-05 1.54885e-08)
(7.88923e-06 6.68187e-05 -4.33053e-06)
(7.76197e-06 6.56586e-05 -2.80716e-06)
(7.61806e-06 6.43567e-05 -1.44668e-06)
(7.45862e-06 6.29047e-05 1.05302e-08)
(2.63645e-06 6.72459e-05 -4.33459e-06)
(2.59751e-06 6.60829e-05 -2.81194e-06)
(2.55207e-06 6.47768e-05 -1.4522e-06)
(2.50653e-06 6.33194e-05 4.43254e-09)
(5.87605e-05 2.29794e-06 -8.30907e-06)
(5.76722e-05 2.2624e-06 -4.84829e-06)
(5.65362e-05 2.2234e-06 -1.64204e-06)
(5.5342e-05 2.18663e-06 1.70011e-06)
(5.83829e-05 6.88351e-06 -8.30117e-06)
(5.7298e-05 6.76616e-06 -4.83994e-06)
(5.61662e-05 6.64284e-06 -1.63323e-06)
(5.49769e-05 6.51455e-06 1.70891e-06)
(5.76406e-05 1.14266e-05 -8.29683e-06)
(5.65669e-05 1.12271e-05 -4.83494e-06)
(5.54476e-05 1.1018e-05 -1.62785e-06)
(5.42723e-05 1.07987e-05 1.71443e-06)
(5.65384e-05 1.5897e-05 -8.29447e-06)
(5.54829e-05 1.56157e-05 -4.83177e-06)
(5.43833e-05 1.53211e-05 -1.62406e-06)
(5.32289e-05 1.50118e-05 1.71886e-06)
(5.50854e-05 2.02674e-05 -8.29311e-06)
(5.40548e-05 1.99049e-05 -4.8294e-06)
(5.29817e-05 1.95257e-05 -1.62086e-06)
(5.18555e-05 1.91276e-05 1.72299e-06)
(5.32926e-05 2.45117e-05 -8.29216e-06)
(5.22936e-05 2.40691e-05 -4.82731e-06)
(5.1254e-05 2.36065e-05 -1.61781e-06)
(5.01633e-05 2.31211e-05 1.72717e-06)
(5.1173e-05 2.86047e-05 -8.29127e-06)
(5.02126e-05 2.80836e-05 -4.82526e-06)
(4.92134e-05 2.75397e-05 -1.61479e-06)
(4.81656e-05 2.6969e-05 1.73139e-06)
(4.87416e-05 3.25228e-05 -8.29026e-06)
(4.78264e-05 3.19256e-05 -4.82325e-06)
(4.68748e-05 3.13027e-05 -1.61193e-06)
(4.58771e-05 3.06495e-05 1.73536e-06)
(4.60145e-05 3.62435e-05 -8.28911e-06)
(4.51515e-05 3.55731e-05 -4.82147e-06)
(4.42542e-05 3.48747e-05 -1.60957e-06)
(4.33135e-05 3.41425e-05 1.73856e-06)
(4.30097e-05 3.97457e-05 -8.28811e-06)
(4.22052e-05 3.90061e-05 -4.82032e-06)
(4.13686e-05 3.82362e-05 -1.60818e-06)
(4.04918e-05 3.7429e-05 1.74038e-06)
(3.97457e-05 4.30097e-05 -8.28811e-06)
(3.90061e-05 4.22052e-05 -4.82032e-06)
(3.82362e-05 4.13687e-05 -1.60818e-06)
(3.7429e-05 4.04918e-05 1.74038e-06)
(3.62435e-05 4.60146e-05 -8.28911e-06)
(3.55731e-05 4.51515e-05 -4.82147e-06)
(3.48747e-05 4.42542e-05 -1.60957e-06)
(3.41425e-05 4.33135e-05 1.73856e-06)
(3.25228e-05 4.87416e-05 -8.29026e-06)
(3.19256e-05 4.78264e-05 -4.82325e-06)
(3.13027e-05 4.68748e-05 -1.61192e-06)
(3.06495e-05 4.58771e-05 1.73536e-06)
(2.86047e-05 5.1173e-05 -8.29127e-06)
(2.80836e-05 5.02126e-05 -4.82526e-06)
(2.75397e-05 4.92135e-05 -1.61479e-06)
(2.6969e-05 4.81656e-05 1.73139e-06)
(2.45117e-05 5.32926e-05 -8.29216e-06)
(2.40691e-05 5.22936e-05 -4.82731e-06)
(2.36065e-05 5.1254e-05 -1.61781e-06)
(2.31211e-05 5.01633e-05 1.72717e-06)
(2.02674e-05 5.50854e-05 -8.2931e-06)
(1.99049e-05 5.40548e-05 -4.8294e-06)
(1.95257e-05 5.29817e-05 -1.62086e-06)
(1.91276e-05 5.18555e-05 1.72299e-06)
(1.5897e-05 5.65384e-05 -8.29447e-06)
(1.56157e-05 5.5483e-05 -4.83176e-06)
(1.53211e-05 5.43833e-05 -1.62405e-06)
(1.50118e-05 5.32289e-05 1.71886e-06)
(1.14266e-05 5.76406e-05 -8.29682e-06)
(1.12271e-05 5.65669e-05 -4.83494e-06)
(1.1018e-05 5.54476e-05 -1.62784e-06)
(1.07987e-05 5.42723e-05 1.71443e-06)
(6.88351e-06 5.83829e-05 -8.30116e-06)
(6.76616e-06 5.7298e-05 -4.83994e-06)
(6.64284e-06 5.61662e-05 -1.63323e-06)
(6.51455e-06 5.49769e-05 1.70891e-06)
(2.29794e-06 5.87605e-05 -8.30907e-06)
(2.2624e-06 5.76722e-05 -4.84829e-06)
(2.2234e-06 5.65362e-05 -1.64203e-06)
(2.18663e-06 5.5342e-05 1.70011e-06)
(4.62511e-05 1.80185e-06 -1.04383e-05)
(4.52759e-05 1.77087e-06 -6.08125e-06)
(4.43704e-05 1.74026e-06 -1.99073e-06)
(4.35209e-05 1.71456e-06 2.22275e-06)
(4.59493e-05 5.40721e-06 -1.04292e-05)
(4.49781e-05 5.30335e-06 -6.07225e-06)
(4.40767e-05 5.20678e-06 -1.98177e-06)
(4.32314e-05 5.11808e-06 2.23108e-06)
(4.53603e-05 8.97935e-06 -1.04232e-05)
(4.43992e-05 8.80221e-06 -6.06662e-06)
(4.35076e-05 8.63821e-06 -1.97669e-06)
(4.26722e-05 8.48602e-06 2.23523e-06)
(4.44869e-05 1.24938e-05 -1.0419e-05)
(4.35419e-05 1.22439e-05 -6.06301e-06)
(4.26658e-05 1.20123e-05 -1.97372e-06)
(4.18451e-05 1.1797e-05 2.23748e-06)
(4.33363e-05 1.59289e-05 -1.04158e-05)
(4.24135e-05 1.56066e-05 -6.06044e-06)
(4.15583e-05 1.5308e-05 -1.97176e-06)
(4.07574e-05 1.50301e-05 2.23877e-06)
(4.19176e-05 1.9264e-05 -1.04132e-05)
(4.10231e-05 1.88701e-05 -6.05833e-06)
(4.01945e-05 1.85053e-05 -1.97022e-06)
(3.94187e-05 1.81655e-05 2.23975e-06)
(4.02418e-05 2.24795e-05 -1.04108e-05)
(3.93817e-05 2.20154e-05 -6.05644e-06)
(3.85855e-05 2.15856e-05 -1.96879e-06)
(3.78403e-05 2.11851e-05 2.24074e-06)
(3.83212e-05 2.55572e-05 -1.04087e-05)
(3.75019e-05 2.50249e-05 -6.0547e-06)
(3.67438e-05 2.45319e-05 -1.96743e-06)
(3.60346e-05 2.40722e-05 2.24181e-06)
(3.61697e-05 2.84805e-05 -1.04068e-05)
(3.53974e-05 2.78823e-05 -6.05321e-06)
(3.46831e-05 2.73286e-05 -1.96625e-06)
(3.40151e-05 2.68118e-05 2.2428e-06)
(3.3802e-05 3.12336e-05 -1.04056e-05)
(3.30827e-05 3.05729e-05 -6.05228e-06)
(3.24176e-05 2.99616e-05 -1.96553e-06)
(3.17959e-05 2.93906e-05 2.24343e-06)
(3.12336e-05 3.3802e-05 -1.04056e-05)
(3.05729e-05 3.30828e-05 -6.05228e-06)
(2.99615e-05 3.24176e-05 -1.96553e-06)
(2.93906e-05 3.17959e-05 2.24343e-06)
(2.84805e-05 3.61697e-05 -1.04068e-05)
(2.78823e-05 3.53974e-05 -6.05321e-06)
(2.73286e-05 3.46831e-05 -1.96625e-06)
(2.68118e-05 3.40152e-05 2.24281e-06)
(2.55572e-05 3.83212e-05 -1.04087e-05)
(2.50249e-05 3.75019e-05 -6.0547e-06)
(2.45319e-05 3.67438e-05 -1.96743e-06)
(2.40722e-05 3.60346e-05 2.24181e-06)
(2.24795e-05 4.02418e-05 -1.04108e-05)
(2.20154e-05 3.93817e-05 -6.05644e-06)
(2.15856e-05 3.85855e-05 -1.96879e-06)
(2.11851e-05 3.78403e-05 2.24074e-06)
(1.9264e-05 4.19176e-05 -1.04132e-05)
(1.88701e-05 4.10231e-05 -6.05833e-06)
(1.85053e-05 4.01945e-05 -1.97021e-06)
(1.81656e-05 3.94187e-05 2.23975e-06)
(1.59289e-05 4.33363e-05 -1.04158e-05)
(1.56066e-05 4.24135e-05 -6.06043e-06)
(1.5308e-05 4.15583e-05 -1.97175e-06)
(1.50301e-05 4.07574e-05 2.23878e-06)
(1.24938e-05 4.44869e-05 -1.0419e-05)
(1.22439e-05 4.35419e-05 -6.06301e-06)
(1.20123e-05 4.26658e-05 -1.97371e-06)
(1.1797e-05 4.18451e-05 2.23748e-06)
(8.97935e-06 4.53603e-05 -1.04232e-05)
(8.80221e-06 4.43992e-05 -6.06662e-06)
(8.63821e-06 4.35076e-05 -1.97669e-06)
(8.48602e-06 4.26722e-05 2.23523e-06)
(5.40721e-06 4.59493e-05 -1.04292e-05)
(5.30335e-06 4.49782e-05 -6.07225e-06)
(5.20678e-06 4.40767e-05 -1.98176e-06)
(5.11808e-06 4.32314e-05 2.23108e-06)
(1.80185e-06 4.62511e-05 -1.04383e-05)
(1.77087e-06 4.52759e-05 -6.08125e-06)
(1.74026e-06 4.43704e-05 -1.99073e-06)
(1.71456e-06 4.35209e-05 2.22275e-06)
(3.3277e-05 1.28989e-06 -1.06455e-05)
(3.24336e-05 1.26366e-06 -6.43615e-06)
(3.17566e-05 1.24107e-06 -2.42868e-06)
(3.12299e-05 1.22547e-06 1.64447e-06)
(3.30559e-05 3.88106e-06 -1.06378e-05)
(3.2217e-05 3.79177e-06 -6.42911e-06)
(3.15439e-05 3.72082e-06 -2.42219e-06)
(3.10207e-05 3.66815e-06 1.64984e-06)
(3.26291e-05 6.44875e-06 -1.06316e-05)
(3.17989e-05 6.29604e-06 -6.42432e-06)
(3.11331e-05 6.17524e-06 -2.41878e-06)
(3.06159e-05 6.08437e-06 1.65148e-06)
(3.19971e-05 8.97481e-06 -1.06265e-05)
(3.1181e-05 8.75924e-06 -6.42104e-06)
(3.05266e-05 8.58834e-06 -2.41726e-06)
(3.00182e-05 8.45908e-06 1.65106e-06)
(3.11652e-05 1.14434e-05 -1.06219e-05)
(3.03683e-05 1.11655e-05 -6.41861e-06)
(2.97294e-05 1.09447e-05 -2.4168e-06)
(2.92331e-05 1.07771e-05 1.64937e-06)
(3.01401e-05 1.38397e-05 -1.06177e-05)
(2.93676e-05 1.35001e-05 -6.41667e-06)
(2.87485e-05 1.32299e-05 -2.41687e-06)
(2.82675e-05 1.30241e-05 1.64712e-06)
(2.89298e-05 1.61495e-05 -1.06139e-05)
(2.81871e-05 1.57494e-05 -6.41499e-06)
(2.75921e-05 1.54307e-05 -2.4171e-06)
(2.71301e-05 1.5187e-05 1.64484e-06)
(2.75437e-05 1.83603e-05 -1.06105e-05)
(2.68363e-05 1.79013e-05 -6.41354e-06)
(2.627e-05 1.75351e-05 -2.41728e-06)
(2.58305e-05 1.72543e-05 1.64293e-06)
(2.59923e-05 2.04604e-05 -1.06079e-05)
(2.53257e-05 1.99445e-05 -6.41237e-06)
(2.47924e-05 1.95326e-05 -2.41733e-06)
(2.43791e-05 1.92157e-05 1.64162e-06)
(2.4287e-05 2.24393e-05 -1.06064e-05)
(2.36663e-05 2.18693e-05 -6.41165e-06)
(2.31702e-05 2.14139e-05 -2.4173e-06)
(2.27864e-05 2.10624e-05 1.64097e-06)
(2.24393e-05 2.4287e-05 -1.06064e-05)
(2.18693e-05 2.36663e-05 -6.41165e-06)
(2.14139e-05 2.31702e-05 -2.4173e-06)
(2.10624e-05 2.27864e-05 1.64097e-06)
(2.04604e-05 2.59923e-05 -1.06079e-05)
(1.99445e-05 2.53257e-05 -6.41236e-06)
(1.95326e-05 2.47924e-05 -2.41733e-06)
(1.92157e-05 2.43791e-05 1.64162e-06)
(1.83603e-05 2.75437e-05 -1.06105e-05)
(1.79013e-05 2.68363e-05 -6.41354e-06)
(1.75351e-05 2.627e-05 -2.41728e-06)
(1.72543e-05 2.58305e-05 1.64294e-06)
(1.61495e-05 2.89298e-05 -1.06139e-05)
(1.57495e-05 2.81871e-05 -6.41499e-06)
(1.54307e-05 2.75921e-05 -2.4171e-06)
(1.5187e-05 2.71301e-05 1.64484e-06)
(1.38396e-05 3.01401e-05 -1.06177e-05)
(1.35001e-05 2.93676e-05 -6.41667e-06)
(1.32299e-05 2.87485e-05 -2.41687e-06)
(1.30241e-05 2.82675e-05 1.64712e-06)
(1.14434e-05 3.11652e-05 -1.06219e-05)
(1.11655e-05 3.03683e-05 -6.41861e-06)
(1.09447e-05 2.97294e-05 -2.4168e-06)
(1.07771e-05 2.92331e-05 1.64938e-06)
(8.97481e-06 3.19971e-05 -1.06265e-05)
(8.75924e-06 3.1181e-05 -6.42104e-06)
(8.58835e-06 3.05266e-05 -2.41726e-06)
(8.45908e-06 3.00183e-05 1.65106e-06)
(6.44875e-06 3.26291e-05 -1.06316e-05)
(6.29604e-06 3.17989e-05 -6.42432e-06)
(6.17525e-06 3.11332e-05 -2.41878e-06)
(6.08437e-06 3.0616e-05 1.65148e-06)
(3.88106e-06 3.30559e-05 -1.06378e-05)
(3.79177e-06 3.2217e-05 -6.42911e-06)
(3.72082e-06 3.15439e-05 -2.42218e-06)
(3.66815e-06 3.10207e-05 1.64984e-06)
(1.28989e-06 3.3277e-05 -1.06455e-05)
(1.26366e-06 3.24336e-05 -6.43614e-06)
(1.24107e-06 3.17566e-05 -2.42868e-06)
(1.22547e-06 3.12299e-05 1.64448e-06)
(2.26431e-05 8.72983e-07 -9.46313e-06)
(2.193e-05 8.50926e-07 -6.10062e-06)
(2.14312e-05 8.3434e-07 -2.83892e-06)
(2.11299e-05 8.25541e-07 4.17338e-07)
(2.249e-05 2.63496e-06 -9.45849e-06)
(2.17816e-05 2.55917e-06 -6.09692e-06)
(2.12864e-05 2.50731e-06 -2.83608e-06)
(2.0988e-05 2.47879e-06 4.18849e-07)
(2.21986e-05 4.38147e-06 -9.45354e-06)
(2.14978e-05 4.25162e-06 -6.09389e-06)
(2.1008e-05 4.16318e-06 -2.83485e-06)
(2.07129e-05 4.11356e-06 4.18003e-07)
(2.17681e-05 6.09985e-06 -9.44862e-06)
(2.10792e-05 5.91664e-06 -6.09152e-06)
(2.05977e-05 5.79134e-06 -2.83481e-06)
(2.03075e-05 5.72015e-06 4.15523e-07)
(2.12016e-05 7.7793e-06 -9.44375e-06)
(2.05291e-05 7.5433e-06 -6.08962e-06)
(2.0059e-05 7.38128e-06 -2.83558e-06)
(1.97754e-05 7.28833e-06 4.11868e-07)
(2.05037e-05 9.40952e-06 -9.43902e-06)
(1.98519e-05 9.12152e-06 -6.08805e-06)
(1.93962e-05 8.92314e-06 -2.83681e-06)
(1.91212e-05 8.80837e-06 4.07603e-07)
(1.96796e-05 1.0981e-05 -9.4346e-06)
(1.90529e-05 1.06421e-05 -6.08671e-06)
(1.8615e-05 1.04079e-05 -2.83818e-06)
(1.83507e-05 1.02713e-05 4.03314e-07)
(1.87357e-05 1.24851e-05 -9.43076e-06)
(1.81387e-05 1.20966e-05 -6.08559e-06)
(1.77218e-05 1.18274e-05 -2.8394e-06)
(1.74706e-05 1.16693e-05 3.9955e-07)
(1.76793e-05 1.39139e-05 -9.42781e-06)
(1.71166e-05 1.34777e-05 -6.08472e-06)
(1.6724e-05 1.31748e-05 -2.8403e-06)
(1.64879e-05 1.29955e-05 3.96773e-07)
(1.65181e-05 1.52605e-05 -9.4261e-06)
(1.59941e-05 1.47789e-05 -6.08421e-06)
(1.56289e-05 1.44438e-05 -2.84075e-06)
(1.54102e-05 1.42442e-05 3.95307e-07)