/*--------------------------------*- C++ -*----------------------------------*\
| =========                 |                                                 |
| \\      /  F ield         | foam-extend: Open Source CFD                    |
|  \\    /   O peration     | Version:     3.1                                |
|   \\  /    A nd           | Web:         http://www.extend-project.de       |
|    \\/     M anipulation  |                                                 |
\*---------------------------------------------------------------------------*/
FoamFile
{
    version     2.0;
    format      ascii;
    class       volSymmTensorField;
    location    "0.0011";
    object      epsilon;
}
// * * * * * * * * * * * * * * * * * * * * * * * * * * * * * * * * * * * * * //

dimensions      [0 0 0 0 0 0 0];

internalField   nonuniform List<symmTensor> 
6400
(
(-0.00402633 -0.000262066 0.00821809 0.00179345 0.000195808 0.0143117)
(-0.0022122 -0.000169205 0.00891277 0.00157695 0.000259268 0.00501312)
(-0.000731416 -9.30297e-05 0.008421 0.00144677 0.000241988 -0.00266676)
(0.000810234 -1.56975e-05 0.00683982 0.00138997 0.000151967 -0.0115591)
(-0.00392517 -0.000680061 0.00817353 0.00176083 0.000951059 0.0141546)
(-0.00214077 -0.000443652 0.00884631 0.00155332 0.00103553 0.00489518)
(-0.000678094 -0.000254779 0.00834524 0.00143995 0.000978416 -0.00278821)
(0.000853612 -6.59905e-05 0.00675418 0.00140448 0.00079136 -0.0117272)
(-0.00378037 -0.00111569 0.00806906 0.00161282 0.00159539 0.014148)
(-0.00204613 -0.000724642 0.00873396 0.00146024 0.00172977 0.00489092)
(-0.000622192 -0.000414875 0.00824002 0.00138579 0.00163362 -0.0027912)
(0.00087198 -0.000106421 0.00667062 0.00138784 0.00132328 -0.0117288)
(-0.00357168 -0.00152276 0.00791683 0.00140305 0.00222689 0.0141445)
(-0.00191069 -0.000989326 0.00856952 0.00132408 0.00241241 0.00488893)
(-0.000544522 -0.000566066 0.00808497 0.00130759 0.00227754 -0.00279201)
(0.00089205 -0.000144765 0.00654516 0.00136683 0.00184504 -0.0117284)
(-0.00330263 -0.00189238 0.00771634 0.00113298 0.00284306 0.0141434)
(-0.00173588 -0.00122979 0.00835268 0.00114835 0.00307905 0.00488876)
(-0.000444575 -0.00070369 0.0078804 0.00120673 0.0029064 -0.00279124)
(0.000917441 -0.000179924 0.00637946 0.0013404 0.00235429 -0.0117265)
(-0.00297939 -0.00221553 0.00746844 0.000808898 0.00344062 0.0141437)
(-0.00152577 -0.00144004 0.00808445 0.000937391 0.0037258 0.00488969)
(-0.000324433 -0.000824097 0.0076273 0.00108568 0.00351651 -0.00278956)
(0.000947887 -0.000210751 0.00617443 0.0013089 0.00284823 -0.0117238)
(-0.00260974 -0.00248432 0.00717449 0.00043858 0.0040162 0.014145)
(-0.00128541 -0.00161491 0.00776634 0.000696326 0.00434887 0.00489129)
(-0.000186945 -0.000924246 0.00732716 0.000947383 0.00410427 -0.00278744)
(0.000982761 -0.000236404 0.00593134 0.00127303 0.00332396 -0.0117209)
(-0.00220262 -0.00269218 0.00683617 3.09881e-05 0.00456648 0.014147)
(-0.00102059 -0.00175009 0.00740028 0.000431001 0.00494459 0.00489321)
(-3.54185e-05 -0.00100163 0.00698185 0.000795206 0.00466617 -0.00278525)
(0.00102127 -0.000256197 0.00565176 0.00123366 0.00377865 -0.011718)
(-0.00176786 -0.00283408 0.00645552 -0.000403957 0.00508821 0.0141494)
(-0.000737687 -0.00184222 0.00698855 0.000147894 0.00550941 0.00489514)
(0.000126455 -0.00105427 0.00659361 0.00063291 0.00519887 -0.00278332)
(0.00106246 -0.000269589 0.0053376 0.00119177 0.00420959 -0.0117157)
(-0.00131469 -0.00290694 0.00603521 -0.000855709 0.00557854 0.0141514)
(-0.000443595 -0.00188899 0.00653409 -0.000145952 0.00604012 0.00489648)
(0.000294553 -0.00108088 0.00616515 0.00046467 0.00569938 -0.00278213)
(0.00110523 -0.000276285 0.00499106 0.0011486 0.00461439 -0.0117143)
(-0.000855708 -0.00290694 0.00557853 -0.00131469 0.00603521 0.0141514)
(-0.000145952 -0.00188899 0.00604012 -0.000443596 0.00653409 0.00489648)
(0.00046467 -0.00108088 0.00569938 0.000294553 0.00616515 -0.00278213)
(0.0011486 -0.000276285 0.00461439 0.00110523 0.00499106 -0.0117143)
(-0.000403957 -0.00283408 0.0050882 -0.00176786 0.00645552 0.0141494)
(0.000147895 -0.00184222 0.0055094 -0.000737687 0.00698855 0.00489514)
(0.00063291 -0.00105427 0.00519887 0.000126455 0.00659361 -0.00278332)
(0.00119177 -0.000269589 0.00420958 0.00106246 0.0053376 -0.0117157)
(3.09885e-05 -0.00269218 0.00456648 -0.00220262 0.00683617 0.014147)
(0.000431001 -0.00175009 0.00494459 -0.00102059 0.00740028 0.00489321)
(0.000795206 -0.00100163 0.00466616 -3.54185e-05 0.00698185 -0.00278525)
(0.00123366 -0.000256197 0.00377864 0.00102127 0.00565177 -0.011718)
(0.00043858 -0.00248431 0.0040162 -0.00260974 0.00717449 0.014145)
(0.000696326 -0.00161491 0.00434887 -0.00128541 0.00776634 0.00489129)
(0.000947383 -0.000924245 0.00410426 -0.000186945 0.00732717 -0.00278745)
(0.00127303 -0.000236404 0.00332396 0.000982761 0.00593134 -0.0117209)
(0.000808898 -0.00221553 0.00344062 -0.00297939 0.00746844 0.0141437)
(0.00093739 -0.00144004 0.00372579 -0.00152577 0.00808445 0.00488969)
(0.00108568 -0.000824097 0.0035165 -0.000324433 0.0076273 -0.00278956)
(0.0013089 -0.000210751 0.00284823 0.000947887 0.00617443 -0.0117238)
(0.00113298 -0.00189238 0.00284306 -0.00330263 0.00771634 0.0141434)
(0.00114835 -0.00122979 0.00307904 -0.00173588 0.00835268 0.00488876)
(0.00120673 -0.00070369 0.00290639 -0.000444574 0.0078804 -0.00279124)
(0.0013404 -0.000179923 0.00235429 0.000917442 0.00637946 -0.0117265)
(0.00140305 -0.00152276 0.00222689 -0.00357168 0.00791682 0.0141446)
(0.00132408 -0.000989325 0.00241241 -0.00191069 0.00856952 0.00488893)
(0.00130759 -0.000566066 0.00227754 -0.000544521 0.00808497 -0.00279201)
(0.00136683 -0.000144764 0.00184504 0.00089205 0.00654516 -0.0117284)
(0.00161282 -0.00111569 0.00159539 -0.00378037 0.00806906 0.014148)
(0.00146024 -0.000724642 0.00172976 -0.00204613 0.00873396 0.00489092)
(0.00138579 -0.000414875 0.00163362 -0.000622191 0.00824002 -0.0027912)
(0.00138784 -0.000106421 0.00132327 0.00087198 0.00667062 -0.0117288)
(0.00176083 -0.00068006 0.000951058 -0.00392517 0.00817353 0.0141546)
(0.00155332 -0.000443652 0.00103553 -0.00214077 0.00884631 0.00489518)
(0.00143995 -0.000254779 0.000978415 -0.000678093 0.00834524 -0.00278821)
(0.00140448 -6.59903e-05 0.000791359 0.000853612 0.00675418 -0.0117272)
(0.00179345 -0.000262065 0.000195808 -0.00402633 0.00821809 0.0143117)
(0.00157695 -0.000169205 0.000259267 -0.0022122 0.00891277 0.00501312)
(0.00144677 -9.30296e-05 0.000241987 -0.000731415 0.008421 -0.00266676)
(0.00138997 -1.56975e-05 0.000151967 0.000810235 0.00683982 -0.0115591)
(-0.00725759 -0.000572634 0.00359234 0.00580934 -0.000107795 0.00423812)
(-0.00479358 -0.000439965 0.00667241 0.00528162 6.27581e-05 0.00198407)
(-0.00253615 -0.000315866 0.00654883 0.00489566 5.95237e-05 -0.000992187)
(-0.000444164 -0.0002026 0.0034374 0.00463325 -0.000104582 -0.003411)
(-0.00706619 -0.00152781 0.00361964 0.00570975 0.000426926 0.00421013)
(-0.00463323 -0.00117947 0.00663242 0.00518636 0.000785081 0.00193123)
(-0.00240534 -0.000868329 0.00646696 0.00482455 0.000768127 -0.00104833)
(-0.000338928 -0.000589719 0.00332093 0.00458662 0.000401094 -0.00344895)
(-0.00674526 -0.00250894 0.00357558 0.00538089 0.000710593 0.00420508)
(-0.00438456 -0.00192844 0.00654948 0.00494157 0.00130384 0.0019244)
(-0.00222003 -0.0014192 0.00638547 0.00464356 0.00127369 -0.00105498)
(-0.000210332 -0.000966253 0.00327934 0.00446186 0.000659205 -0.00345393)
(-0.00627664 -0.00342488 0.00350833 0.00491106 0.000989277 0.00420341)
(-0.00402487 -0.00263318 0.00642631 0.00458121 0.00181381 0.00192278)
(-0.00195513 -0.00193753 0.00626529 0.00437855 0.00177059 -0.00105602)
(-3.01393e-05 -0.00131904 0.00321742 0.00428091 0.000913799 -0.00345404)
(-0.00567176 -0.00425662 0.00341928 0.00430475 0.00126149 0.00420317)
(-0.00355987 -0.0032734 0.0062636 0.00411496 0.00231219 0.00192308)
(-0.00161316 -0.0024088 0.00610668 0.00403534 0.00225626 -0.00105499)
(0.000202362 -0.0016399 0.00313581 0.004047 0.00116273 -0.00345221)
(-0.00494472 -0.00498382 0.00330896 0.00357647 0.00152573 0.00420371)
(-0.00300067 -0.00383319 0.00606229 0.00355446 0.00279615 0.00192428)
(-0.00120181 -0.00282096 0.00591053 0.00362254 0.00272791 -0.00105308)
(0.000482008 -0.00192053 0.00303504 0.00376565 0.00140449 -0.00344957)
(-0.0041131 -0.00558871 0.00317796 0.00274387 0.00178039 0.00420473)
(-0.00236083 -0.0042988 0.00582353 0.00291348 0.00326275 0.00192587)
(-0.000731007 -0.00316374 0.00567801 0.00315036 0.00318266 -0.00105089)
(0.000802128 -0.00215386 0.00291573 0.00344381 0.00163759 -0.00344678)
(-0.00319707 -0.00605652 0.00302705 0.00182724 0.00202381 0.00420598)
(-0.00165583 -0.00465874 0.00554879 0.00220769 0.00370906 0.00192753)
(-0.000212184 -0.0034286 0.00541055 0.00263041 0.00361767 -0.00104879)
(0.00115495 -0.00233403 0.00277862 0.00308944 0.00186053 -0.00344428)
(-0.00221879 -0.00637591 0.00285724 0.000848949 0.00225425 0.00420714)
(-0.000902699 -0.00490406 0.00523985 0.00145439 0.00413219 0.00192893)
(0.000341968 -0.00360887 0.00510989 0.00207556 0.00403017 -0.00104713)
(0.00153178 -0.0024565 0.00262462 0.00271136 0.00207186 -0.00344239)
(-0.0011995 -0.00653971 0.0026708 -0.000167275 0.00246994 0.00420783)
(-0.000119922 -0.00502855 0.00489924 0.000672295 0.0045295 0.00192973)
(0.000917457 -0.00370005 0.00477819 0.0014999 0.00441767 -0.00104621)
(0.00192308 -0.00251832 0.00245482 0.00231933 0.00227029 -0.00344137)
(-0.000167273 -0.00653971 0.00246993 -0.0011995 0.0026708 0.00420783)
(0.000672296 -0.00502855 0.0045295 -0.000119922 0.00489925 0.00192973)
(0.0014999 -0.00370005 0.00441767 0.000917457 0.00477819 -0.00104621)
(0.00231933 -0.00251832 0.00227029 0.00192308 0.00245483 -0.00344137)
(0.00084895 -0.0063759 0.00225425 -0.00221879 0.00285724 0.00420714)
(0.00145439 -0.00490406 0.00413219 -0.000902699 0.00523986 0.00192893)
(0.00207556 -0.00360887 0.00403017 0.000341968 0.00510989 -0.00104713)
(0.00271136 -0.0024565 0.00207186 0.00153178 0.00262462 -0.00344239)
(0.00182724 -0.00605652 0.00202381 -0.00319707 0.00302705 0.00420598)
(0.00220769 -0.00465873 0.00370905 -0.00165583 0.00554879 0.00192753)
(0.00263041 -0.0034286 0.00361766 -0.000212184 0.00541055 -0.00104879)
(0.00308944 -0.00233403 0.00186053 0.00115495 0.00277862 -0.00344428)
(0.00274387 -0.00558871 0.00178039 -0.0041131 0.00317796 0.00420473)
(0.00291348 -0.00429879 0.00326275 -0.00236082 0.00582353 0.00192587)
(0.00315036 -0.00316374 0.00318266 -0.000731006 0.00567801 -0.00105089)
(0.00344381 -0.00215385 0.00163759 0.000802128 0.00291573 -0.00344678)
(0.00357647 -0.00498382 0.00152572 -0.00494471 0.00330896 0.00420371)
(0.00355446 -0.00383319 0.00279615 -0.00300067 0.00606229 0.00192428)
(0.00362254 -0.00282096 0.00272791 -0.00120181 0.00591053 -0.00105308)
(0.00376564 -0.00192053 0.00140449 0.000482008 0.00303504 -0.00344957)
(0.00430475 -0.00425662 0.00126148 -0.00567175 0.00341928 0.00420317)
(0.00411496 -0.00327339 0.00231219 -0.00355987 0.0062636 0.00192308)
(0.00403534 -0.0024088 0.00225626 -0.00161315 0.00610668 -0.00105499)
(0.004047 -0.0016399 0.00116272 0.000202363 0.0031358 -0.00345221)
(0.00491106 -0.00342487 0.000989274 -0.00627663 0.00350833 0.00420341)
(0.00458121 -0.00263318 0.00181381 -0.00402487 0.00642631 0.00192278)
(0.00437855 -0.00193753 0.00177059 -0.00195513 0.00626529 -0.00105602)
(0.00428091 -0.00131904 0.000913797 -3.01383e-05 0.00321742 -0.00345404)
(0.00538089 -0.00250894 0.000710592 -0.00674525 0.00357558 0.00420508)
(0.00494156 -0.00192844 0.00130383 -0.00438456 0.00654948 0.0019244)
(0.00464356 -0.0014192 0.00127369 -0.00222003 0.00638547 -0.00105498)
(0.00446185 -0.000966252 0.000659204 -0.000210331 0.00327934 -0.00345393)
(0.00570975 -0.0015278 0.000426925 -0.00706618 0.00361964 0.00421013)
(0.00518636 -0.00117947 0.00078508 -0.00463323 0.00663242 0.00193123)
(0.00482455 -0.000868329 0.000768127 -0.00240534 0.00646696 -0.00104833)
(0.00458662 -0.000589718 0.000401093 -0.000338926 0.00332093 -0.00344895)
(0.00580934 -0.000572634 -0.000107796 -0.00725758 0.00359233 0.00423812)
(0.00528162 -0.000439965 6.27577e-05 -0.00479357 0.00667241 0.00198407)
(0.00489565 -0.000315866 5.95234e-05 -0.00253614 0.00654883 -0.000992187)
(0.00463324 -0.000202599 -0.000104582 -0.000444163 0.00343739 -0.003411)
(-0.00606343 -0.000681825 0.00222981 0.0100656 -0.000161551 -0.00261807)
(-0.0053669 -0.000627284 0.00390003 0.00935165 -7.09421e-05 -0.00122168)
(-0.00446577 -0.000559052 0.00381074 0.00873068 -7.4019e-05 -0.000220862)
(-0.00394267 -0.000508327 0.00202332 0.00819671 -0.000165695 0.00111895)
(-0.00587304 -0.00188641 0.00223109 0.00990003 0.000258675 -0.00259236)
(-0.00517711 -0.00172281 0.00386885 0.00917264 0.000452914 -0.00120549)
(-0.00429314 -0.00154222 0.00375261 0.00855789 0.000441755 -0.00020407)
(-0.00379243 -0.00141277 0.00195105 0.00801764 0.000234412 0.0011476)
(-0.00548314 -0.00310032 0.0022031 0.00949962 0.000435834 -0.00259199)
(-0.00481959 -0.00282071 0.00382022 0.00881645 0.000759615 -0.00120484)
(-0.00397171 -0.00252565 0.00370506 0.00823824 0.000739714 -0.000203153)
(-0.00349751 -0.00232184 0.00192729 0.00772618 0.000390008 0.00114853)
(-0.00490553 -0.00423332 0.00216153 0.0089217 0.000608413 -0.00259229)
(-0.00429479 -0.00385233 0.00374809 0.00829121 0.00105848 -0.00120473)
(-0.00350153 -0.00344939 0.00363511 0.00776828 0.00102965 -0.000202565)
(-0.00306574 -0.00317154 0.00189063 0.00729426 0.000541144 0.00114959)
(-0.00415839 -0.00526234 0.00210651 0.00817407 0.000776415 -0.00259248)
(-0.00361494 -0.00478939 0.00365286 0.00761087 0.0013495 -0.00120426)
(-0.0028929 -0.00428866 0.00354272 0.0071591 0.00131177 -0.000201446)
(-0.00250636 -0.00394325 0.00184228 0.00673417 0.000687725 0.00115137)
(-0.00325967 -0.00616211 0.00203824 0.00727502 0.000939363 -0.00259241)
(-0.0027969 -0.00560876 0.00353509 0.00679225 0.00163171 -0.00120346)
(-0.00216044 -0.0050225 0.00342859 0.00642582 0.00158523 -0.000199921)
(-0.00183312 -0.0046179 0.0017828 0.00605982 0.000829478 0.00115363)
(-0.00223132 -0.00691061 0.00195708 0.00624648 0.0010964 -0.00259212)
(-0.00186063 -0.00629027 0.00339547 0.00585549 0.00190366 -0.00120248)
(-0.00132204 -0.00563276 0.00329345 0.00558657 0.00184867 -0.000198262)
(-0.00106249 -0.00517879 0.0017126 0.00528797 0.000965845 0.00115597)
(-0.00109837 -0.00748951 0.00186352 0.00511363 0.00124643 -0.00259172)
(-0.000828963 -0.00681715 0.00323488 0.00482355 0.00216367 -0.00120152)
(-0.000398187 -0.00610433 0.00313819 0.00466202 0.00210054 -0.000196738)
(-0.000213385 -0.00561201 0.00163215 0.00443773 0.0010961 0.00115805)
(0.000111673 -0.00788471 0.00175831 0.00390417 0.00138817 -0.00259135)
(0.000273092 -0.00717626 0.00305451 0.00372178 0.00241 -0.00120075)
(0.000588462 -0.00642539 0.00296388 0.00367503 0.00233925 -0.000195582)
(0.000693266 -0.00590674 0.00154201 0.00353015 0.00121947 0.00115958)
(0.00137168 -0.00808698 0.00164338 0.00264753 0.00152033 -0.00259115)
(0.00141836 -0.00735843 0.00285605 0.0025775 0.00264104 -0.00120034)
(0.00161317 -0.00658787 0.00277185 0.00265036 0.00256335 -0.000194962)
(0.0016348 -0.00605575 0.00144285 0.00258806 0.00133521 0.00116039)
(0.00264753 -0.00808698 0.00152033 0.00137168 0.00164338 -0.00259115)
(0.0025775 -0.00735843 0.00264103 0.00141836 0.00285605 -0.00120034)
(0.00265036 -0.00658787 0.00256335 0.00161317 0.00277185 -0.000194962)
(0.00258806 -0.00605575 0.00133521 0.0016348 0.00144285 0.00116039)
(0.00390418 -0.00788471 0.00138817 0.000111673 0.00175831 -0.00259135)
(0.00372178 -0.00717626 0.00240999 0.000273092 0.00305451 -0.00120075)
(0.00367503 -0.00642539 0.00233925 0.000588462 0.00296388 -0.000195582)
(0.00353015 -0.00590674 0.00121946 0.000693265 0.00154202 0.00115958)
(0.00511363 -0.0074895 0.00124643 -0.00109836 0.00186352 -0.00259172)
(0.00482355 -0.00681715 0.00216367 -0.000828962 0.00323489 -0.00120152)
(0.00466202 -0.00610433 0.00210054 -0.000398187 0.00313819 -0.000196738)
(0.00443773 -0.005612 0.0010961 -0.000213386 0.00163215 0.00115805)
(0.00624648 -0.0069106 0.0010964 -0.00223131 0.00195708 -0.00259212)
(0.00585549 -0.00629027 0.00190366 -0.00186063 0.00339547 -0.00120248)
(0.00558656 -0.00563276 0.00184867 -0.00132204 0.00329346 -0.000198262)
(0.00528797 -0.00517879 0.000965843 -0.00106249 0.0017126 0.00115597)
(0.00727502 -0.0061621 0.000939359 -0.00325967 0.00203824 -0.00259241)
(0.00679225 -0.00560875 0.00163171 -0.00279689 0.00353509 -0.00120346)
(0.00642582 -0.0050225 0.00158523 -0.00216044 0.00342859 -0.00019992)
(0.00605982 -0.0046179 0.000829476 -0.00183312 0.0017828 0.00115363)
(0.00817407 -0.00526233 0.000776412 -0.00415838 0.00210651 -0.00259248)
(0.00761087 -0.00478938 0.0013495 -0.00361494 0.00365286 -0.00120426)
(0.0071591 -0.00428866 0.00131177 -0.0028929 0.00354272 -0.000201445)
(0.00673417 -0.00394325 0.000687723 -0.00250636 0.00184228 0.00115137)
(0.0089217 -0.00423332 0.00060841 -0.00490552 0.00216153 -0.00259229)
(0.00829121 -0.00385233 0.00105848 -0.00429478 0.00374809 -0.00120473)
(0.00776828 -0.00344939 0.00102965 -0.00350152 0.00363511 -0.000202564)
(0.00729426 -0.00317154 0.000541142 -0.00306574 0.00189063 0.00114959)
(0.00949961 -0.00310032 0.000435832 -0.00548313 0.0022031 -0.00259199)
(0.00881645 -0.00282071 0.000759614 -0.00481959 0.00382022 -0.00120484)
(0.00823824 -0.00252564 0.000739713 -0.00397171 0.00370506 -0.000203153)
(0.00772618 -0.00232184 0.000390007 -0.00349751 0.00192729 0.00114853)
(0.00990002 -0.00188641 0.000258674 -0.00587303 0.00223109 -0.00259236)
(0.00917263 -0.0017228 0.000452913 -0.0051771 0.00386885 -0.00120549)
(0.00855788 -0.00154222 0.000441755 -0.00429313 0.00375261 -0.00020407)
(0.00801763 -0.00141277 0.000234411 -0.00379242 0.00195104 0.0011476)
(0.0100656 -0.000681824 -0.000161551 -0.00606342 0.00222981 -0.00261807)
(0.00935164 -0.000627283 -7.09424e-05 -0.00536689 0.00390003 -0.00122168)
(0.00873067 -0.000559051 -7.40193e-05 -0.00446576 0.00381074 -0.000220861)
(0.00819671 -0.000508327 -0.000165695 -0.00394267 0.00202332 0.00111895)
(-0.00555339 -0.000794918 0.00111686 0.0135666 -0.000146402 -0.00686766)
(-0.00577106 -0.000777623 0.0019158 0.0126906 -0.000102827 -0.00335137)
(-0.0058589 -0.000750158 0.00185484 0.0118827 -0.000104874 -0.000116744)
(-0.00620636 -0.00073035 0.000974511 0.011144 -0.000148818 0.00333114)
(-0.00534179 -0.00223624 0.0011117 0.0133478 0.000124288 -0.00681065)
(-0.00555729 -0.00216137 0.00189392 0.0124524 0.000218197 -0.00329825)
(-0.00565391 -0.00207478 0.0018205 0.011638 0.000212177 -6.09859e-05)
(-0.00601009 -0.00201824 0.000934049 0.0108733 0.000112104 0.00339631)
(-0.00488236 -0.00367492 0.00109756 0.0128763 0.000212768 -0.00680693)
(-0.0051128 -0.00354133 0.00186951 0.0120043 0.000369337 -0.00329358)
(-0.00522601 -0.00339939 0.00179714 0.0112067 0.000358448 -5.58792e-05)
(-0.00559127 -0.00331975 0.000922553 0.0104569 0.000188622 0.00340125)
(-0.00419892 -0.00501865 0.00107664 0.0121924 0.000299074 -0.00680568)
(-0.00445471 -0.00483688 0.00183364 0.0113448 0.000516387 -0.00329149)
(-0.00459373 -0.00464324 0.00176264 0.0105735 0.000500266 -5.32128e-05)
(-0.00497445 -0.0045353 0.000904449 0.00983878 0.000262423 0.00340438)
(-0.00331363 -0.00623931 0.00104898 0.0113072 0.00038308 -0.00680552)
(-0.00360139 -0.00601363 0.00178646 0.0104911 0.000659141 -0.00329045)
(-0.0037745 -0.00577301 0.00171715 0.0097537 0.000637568 -5.14359e-05)
(-0.00417442 -0.00563878 0.000880647 0.00903781 0.000333196 0.0034069)
(-0.00224823 -0.00730684 0.00101455 0.0102423 0.000464606 -0.00680579)
(-0.00257435 -0.00704261 0.00172822 0.0094641 0.000797314 -0.00328981)
(-0.0027885 -0.00676073 0.00166116 0.00876722 0.000770161 -4.99765e-05)
(-0.00321144 -0.00660331 0.000851657 0.00807386 0.000400971 0.0034092)
(-0.00102882 -0.008195 0.000973468 0.00902359 0.000543229 -0.00680617)
(-0.00139879 -0.00789851 0.00165929 0.00828866 0.000930311 -0.00328932)
(-0.0016599 -0.00758208 0.00159514 0.00763824 0.000897574 -4.86965e-05)
(-0.00210924 -0.00740519 0.000817795 0.00697073 0.000465694 0.0034113)
(0.000314796 -0.00888194 0.000925988 0.00768075 0.000618278 -0.00680653)
(-0.00010341 -0.00856022 0.00158016 0.00699355 0.00105732 -0.00328893)
(-0.000416346 -0.00821679 0.00151958 0.00639443 0.00101916 -4.76305e-05)
(-0.000894896 -0.00802461 0.000779344 0.00575558 0.000527183 0.00341307)
(0.00174988 -0.0093508 0.000872622 0.00624665 0.000688879 -0.00680681)
(0.00128029 -0.00901125 0.00149151 0.0056105 0.00117741 -0.00328867)
(0.000911668 -0.00864901 0.00143506 0.00506641 0.00113417 -4.68644e-05)
(0.000401666 -0.00844616 0.00073661 0.00445837 0.000585178 0.00341435)
(0.00324366 -0.00959037 0.000814951 0.00475626 0.000754152 -0.00680698)
(0.0027182 -0.00924002 0.00139444 0.0041737 0.0012898 -0.00328854)
(0.00229101 -0.00886782 0.00134234 0.00368728 0.00124199 -4.64673e-05)
(0.00174819 -0.00865941 0.000689916 0.00311146 0.000639444 0.00341501)
(0.00475627 -0.00959037 0.000754149 0.00324366 0.000814953 -0.00680698)
(0.0041737 -0.00924002 0.00128979 0.0027182 0.00139444 -0.00328854)
(0.00368728 -0.00886782 0.00124199 0.00229101 0.00134234 -4.64673e-05)
(0.00311146 -0.00865941 0.000639443 0.00174819 0.000689918 0.00341501)
(0.00624665 -0.0093508 0.000688876 0.00174988 0.000872623 -0.00680681)
(0.0056105 -0.00901124 0.00117741 0.00128029 0.00149151 -0.00328867)
(0.00506641 -0.00864901 0.00113417 0.000911668 0.00143506 -4.68642e-05)
(0.00445838 -0.00844616 0.000585177 0.000401664 0.000736611 0.00341435)
(0.00768075 -0.00888193 0.000618275 0.000314799 0.000925989 -0.00680653)
(0.00699355 -0.00856022 0.00105732 -0.000103409 0.00158016 -0.00328893)
(0.00639443 -0.00821679 0.00101915 -0.000416345 0.00151958 -4.76301e-05)
(0.00575558 -0.00802461 0.000527181 -0.000894897 0.000779345 0.00341307)
(0.00902359 -0.00819499 0.000543227 -0.00102881 0.000973469 -0.00680617)
(0.00828866 -0.00789851 0.000930309 -0.00139879 0.00165929 -0.00328932)
(0.00763824 -0.00758208 0.000897573 -0.0016599 0.00159514 -4.86959e-05)
(0.00697073 -0.00740519 0.000465692 -0.00210924 0.000817796 0.0034113)
(0.0102423 -0.00730683 0.000464604 -0.00224822 0.00101455 -0.00680579)
(0.0094641 -0.00704261 0.000797312 -0.00257435 0.00172822 -0.00328981)
(0.00876722 -0.00676072 0.000770159 -0.00278849 0.00166116 -4.99758e-05)
(0.00807386 -0.00660331 0.000400969 -0.00321144 0.000851658 0.0034092)
(0.0113072 -0.0062393 0.000383078 -0.00331362 0.00104898 -0.00680552)
(0.0104911 -0.00601363 0.000659139 -0.00360139 0.00178646 -0.00329045)
(0.0097537 -0.00577301 0.000637566 -0.0037745 0.00171715 -5.1435e-05)
(0.00903781 -0.00563878 0.000333194 -0.00417442 0.000880648 0.0034069)
(0.0121924 -0.00501864 0.000299072 -0.00419891 0.00107664 -0.00680568)
(0.0113448 -0.00483687 0.000516386 -0.0044547 0.00183364 -0.00329149)
(0.0105735 -0.00464324 0.000500265 -0.00459372 0.00176264 -5.32118e-05)
(0.00983878 -0.00453529 0.000262421 -0.00497444 0.000904449 0.00340438)
(0.0128763 -0.00367491 0.000212766 -0.00488234 0.00109756 -0.00680693)
(0.0120043 -0.00354133 0.000369336 -0.00511279 0.00186951 -0.00329358)
(0.0112067 -0.00339939 0.000358447 -0.00522601 0.00179714 -5.58781e-05)
(0.0104569 -0.00331975 0.000188621 -0.00559127 0.000922553 0.00340125)
(0.0133478 -0.00223624 0.000124287 -0.00534178 0.0011117 -0.00681065)
(0.0124524 -0.00216137 0.000218196 -0.00555729 0.00189392 -0.00329824)
(0.011638 -0.00207477 0.000212176 -0.00565391 0.0018205 -6.09847e-05)
(0.0108733 -0.00201824 0.000112103 -0.00601009 0.000934048 0.00339631)
(0.0135666 -0.000794917 -0.000146402 -0.00555338 0.00111686 -0.00686766)
(0.0126906 -0.000777622 -0.000102827 -0.00577105 0.0019158 -0.00335137)
(0.0118827 -0.000750158 -0.000104875 -0.00585889 0.00185484 -0.000116743)
(0.011144 -0.00073035 -0.000148818 -0.00620636 0.00097451 0.00333114)
(-0.00544506 -0.000875867 0.000278415 0.0157542 -8.90096e-05 -0.00885862)
(-0.00607029 -0.000874155 0.00048373 0.0147727 -7.72706e-05 -0.00445634)
(-0.00660829 -0.000863846 0.000462213 0.0138511 -7.75655e-05 -0.000279522)
(-0.0073373 -0.000856125 0.000227295 0.0129939 -8.8214e-05 0.00402953)
(-0.00521483 -0.00248016 0.000273242 0.0155044 2.50783e-05 -0.0087894)
(-0.00583739 -0.00244137 0.000473428 0.0145009 5.13633e-05 -0.0043887)
(-0.00638062 -0.00239362 0.000448566 0.0135672 5.11984e-05 -0.000208689)
(-0.00711165 -0.00236489 0.000212684 0.0126745 2.69177e-05 0.00410819)
(-0.00470621 -0.00407519 0.000269848 0.0149833 4.55864e-05 -0.00878454)
(-0.00533652 -0.00400054 0.000466627 0.0139945 8.89331e-05 -0.00438303)
(-0.00588801 -0.00392227 0.000441971 0.013069 8.8041e-05 -0.00020265)
(-0.00662105 -0.0038906 0.000209401 0.012186 4.60685e-05 0.00411413)
(-0.00394894 -0.0055654 0.000264624 0.0142258 6.62651e-05 -0.00878242)
(-0.00459319 -0.00546376 0.000456781 0.0132493 0.000125622 -0.00438013)
(-0.00515822 -0.00535732 0.000432357 0.0123376 0.000123518 -0.000199235)
(-0.00589783 -0.00531511 0.000204231 0.0114606 6.41241e-05 0.00411801)
(-0.00296753 -0.00691941 0.000257497 0.0132451 8.68639e-05 -0.00878194)
(-0.00362931 -0.00679279 0.000443968 0.0122853 0.000161166 -0.00437879)
(-0.00421279 -0.00666042 0.000419911 0.0113914 0.000157413 -0.000197217)
(-0.00495989 -0.00660784 0.000197701 0.0105212 8.07242e-05 0.00412075)
(-0.00178618 -0.00810376 0.000248357 0.012065 0.000107247 -0.00878234)
(-0.00246929 -0.00795493 0.000428303 0.0111257 0.000195495 -0.00437825)
(-0.00307512 -0.00779949 0.000404948 0.0102534 0.000189718 -0.000195916)
(-0.00383113 -0.00773757 0.000190183 0.00939138 9.58989e-05 0.00412289)
(-0.000433881 -0.00908925 0.000237167 0.0107141 0.00012718 -0.00878313)
(-0.00114157 -0.00892159 0.000409938 0.00979857 0.000228455 -0.00437811)
(-0.00177314 -0.00874664 0.000387725 0.00895127 0.000220396 -0.000195)
(-0.00253942 -0.00867668 0.000181923 0.00809879 0.000109767 0.00412465)
(0.0010563 -0.00985153 0.000224009 0.00922533 0.000146248 -0.00878399)
(0.000321399 -0.00966895 0.000389093 0.00833629 0.000259778 -0.00437814)
(-0.000338715 -0.00947855 0.000368492 0.00751688 0.000249346 -0.00019434)
(-0.0011165 -0.00940211 0.000173112 0.00667521 0.000122433 0.00412607)
(0.00264796 -0.0103718 0.000209193 0.00763494 0.000163865 -0.00878473)
(0.00188404 -0.0101784 0.000366133 0.00677453 0.000289127 -0.00437824)
(0.00119302 -0.009977 0.000347544 0.00598535 0.000276439 -0.000193903)
(0.000402623 -0.00989587 0.000163911 0.00515559 0.000133985 0.00412708)
(0.00430439 -0.0106373 0.000194036 0.00598181 0.000179438 -0.00878517)
(0.00350792 -0.0104368 0.000341745 0.00515182 0.000316286 -0.00437831)
(0.00278403 -0.0102294 0.000325225 0.00439464 0.000301638 -0.000193688)
(0.0019803 -0.0101457 0.000154424 0.00357762 0.000144556 0.0041276)
(0.00598181 -0.0106373 0.000179436 0.00430439 0.000194038 -0.00878517)
(0.00515182 -0.0104368 0.000316285 0.00350792 0.000341747 -0.00437831)
(0.00439464 -0.0102294 0.000301637 0.00278403 0.000325227 -0.000193688)
(0.00357762 -0.0101457 0.000144555 0.0019803 0.000154426 0.0041276)
(0.00763494 -0.0103718 0.000163863 0.00264796 0.000209194 -0.00878473)
(0.00677453 -0.0101784 0.000289125 0.00188404 0.000366135 -0.00437824)
(0.00598534 -0.009977 0.000276437 0.00119302 0.000347545 -0.000193903)
(0.00515559 -0.00989587 0.000133984 0.000402622 0.000163912 0.00412708)
(0.00922533 -0.00985153 0.000146246 0.0010563 0.00022401 -0.00878399)
(0.00833629 -0.00966895 0.000259776 0.0003214 0.000389095 -0.00437814)
(0.00751688 -0.00947855 0.000249345 -0.000338714 0.000368494 -0.000194339)
(0.00667521 -0.00940211 0.000122431 -0.0011165 0.000173113 0.00412607)
(0.0107141 -0.00908924 0.000127177 -0.000433875 0.000237168 -0.00878313)
(0.00979857 -0.00892159 0.000228453 -0.00114157 0.00040994 -0.00437811)
(0.00895127 -0.00874664 0.000220394 -0.00177314 0.000387726 -0.000195)
(0.00809879 -0.00867668 0.000109766 -0.00253942 0.000181924 0.00412465)
(0.012065 -0.00810376 0.000107245 -0.00178617 0.000248358 -0.00878234)
(0.0111257 -0.00795492 0.000195494 -0.00246928 0.000428304 -0.00437825)
(0.0102534 -0.00779949 0.000189716 -0.00307512 0.000404949 -0.000195915)
(0.00939137 -0.00773757 9.58977e-05 -0.00383113 0.000190184 0.00412289)
(0.0132451 -0.0069194 8.68621e-05 -0.00296752 0.000257497 -0.00878194)
(0.0122853 -0.00679278 0.000161165 -0.00362931 0.000443969 -0.00437879)
(0.0113914 -0.00666041 0.000157412 -0.00421279 0.000419912 -0.000197216)
(0.0105212 -0.00660784 8.07231e-05 -0.00495989 0.000197702 0.00412075)
(0.0142258 -0.0055654 6.62636e-05 -0.00394892 0.000264624 -0.00878242)
(0.0132493 -0.00546375 0.000125621 -0.00459318 0.000456781 -0.00438013)
(0.0123375 -0.00535732 0.000123517 -0.00515822 0.000432358 -0.000199234)
(0.0114606 -0.00531511 6.41231e-05 -0.00589783 0.000204231 0.00411801)
(0.0149833 -0.00407518 4.55852e-05 -0.00470619 0.000269848 -0.00878454)
(0.0139945 -0.00400054 8.89323e-05 -0.00533651 0.000466627 -0.00438303)
(0.013069 -0.00392227 8.80403e-05 -0.00588801 0.000441971 -0.000202649)
(0.012186 -0.0038906 4.60677e-05 -0.00662105 0.000209401 0.00411413)
(0.0155044 -0.00248016 2.50776e-05 -0.00521481 0.000273241 -0.0087894)
(0.0145009 -0.00244137 5.13628e-05 -0.00583738 0.000473429 -0.0043887)
(0.0135672 -0.00239362 5.1198e-05 -0.00638061 0.000448567 -0.000208688)
(0.0126745 -0.00236489 2.69172e-05 -0.00711165 0.000212684 0.00410819)
(0.0157542 -0.000875866 -8.90099e-05 -0.00544504 0.000278414 -0.00885862)
(0.0147727 -0.000874155 -7.72708e-05 -0.00607028 0.00048373 -0.00445633)
(0.0138511 -0.000863846 -7.75657e-05 -0.00660828 0.000462213 -0.00027952)
(0.0129939 -0.000856124 -8.82142e-05 -0.0073373 0.000227295 0.00402953)
(-0.00545122 -0.000902504 -0.000368379 0.0164166 -1.56583e-05 -0.009029)
(-0.00611552 -0.000901836 -0.000597536 0.0154058 -2.75731e-05 -0.00466934)
(-0.00672419 -0.000893728 -0.000582851 0.014455 -2.63951e-05 -0.000499709)
(-0.00748491 -0.000885909 -0.000335883 0.0135697 -1.25364e-05 0.00375733)
(-0.00521292 -0.0025594 -0.000370934 0.0161603 -4.99334e-05 -0.00896132)
(-0.00587562 -0.00252251 -0.000596274 0.015127 -7.3292e-05 -0.00460258)
(-0.00648892 -0.00247932 -0.000578385 0.014163 -6.85068e-05 -0.00043006)
(-0.00724969 -0.00244972 -0.000328894 0.013241 -3.64848e-05 0.00383338)
(-0.00468807 -0.00420517 -0.00036616 0.0156239 -8.21476e-05 -0.00895653)