/*--------------------------------*- C++ -*----------------------------------*\
| =========                 |                                                 |
| \\      /  F ield         | foam-extend: Open Source CFD                    |
|  \\    /   O peration     | Version:     3.1                                |
|   \\  /    A nd           | Web:         http://www.extend-project.de       |
|    \\/     M anipulation  |                                                 |
\*---------------------------------------------------------------------------*/
FoamFile
{
    version     2.0;
    format      ascii;
    class       pointVectorField;
    location    "0.0011";
    object      pointD;
}
// * * * * * * * * * * * * * * * * * * * * * * * * * * * * * * * * * * * * * //

dimensions      [0 1 0 0 0 0 0];

internalField   nonuniform List<vector> 
8505
(
(0 0 0)
(0 0 0)
(0 0 0)
(0 0 0)
(0 0 0)
(0 0 0)
(0 0 0)
(0 0 0)
(0 0 0)
(0 0 0)
(0 0 0)
(0 0 0)
(0 0 0)
(0 0 0)
(0 0 0)
(0 0 0)
(0 0 0)
(0 0 0)
(0 0 0)
(0 0 0)
(0 0 0)
(0 0 0)
(0 0 0)
(0 0 0)
(0 0 0)
(0 0 0)
(0 0 0)
(0 0 0)
(0 0 0)
(0 0 0)
(0 0 0)
(0 0 0)
(0 0 0)
(0 0 0)
(0 0 0)
(0 0 0)
(0 0 0)
(0 0 0)
(0 0 0)
(0 0 0)
(0 0 0)
(0 0 0)
(0 0 0)
(0 0 0)
(0 0 0)
(0 0 0)
(0 0 0)
(0 0 0)
(0 0 0)
(0 0 0)
(0 0 0)
(0 0 0)
(0 0 0)
(0 0 0)
(0 0 0)
(0 0 0)
(0 0 0)
(0 0 0)
(0 0 0)
(0 0 0)
(0 0 0)
(0 0 0)
(0 0 0)
(0 0 0)
(0 0 0)
(0 0 0)
(0 0 0)
(0 0 0)
(0 0 0)
(0 0 0)
(0 0 0)
(0 0 0)
(0 0 0)
(0 0 0)
(0 0 0)
(0 0 0)
(0 0 0)
(0 0 0)
(0 0 0)
(0 0 0)
(0 0 0)
(0 0 0)
(0 0 0)
(0 0 0)
(0 0 0)
(0 0 0)
(0 0 0)
(0 0 0)
(0 0 0)
(0 0 0)
(0 0 0)
(0 0 0)
(0 0 0)
(0 0 0)
(0 0 0)
(0 0 0)
(0 0 0)
(0 0 0)
(0 0 0)
(0 0 0)
(0 0 0)
(0 0 0)
(0 0 0)
(0 0 0)
(0 0 0)
(1.98419e-05 0 1.2483e-05)
(1.78086e-05 0 5.65304e-06)
(1.66872e-05 0 7.95057e-07)
(1.63076e-05 0 -3.94423e-06)
(1.66967e-05 0 -1.02514e-05)
(1.97037e-05 1.52221e-06 1.22534e-05)
(1.77048e-05 1.37626e-06 5.50008e-06)
(1.66099e-05 1.29361e-06 6.5979e-07)
(1.62552e-05 1.26641e-06 -4.10713e-06)
(1.66747e-05 1.29821e-06 -1.05049e-05)
(1.95102e-05 3.0749e-06 1.22467e-05)
(1.7533e-05 2.76471e-06 5.49618e-06)
(1.64508e-05 2.59608e-06 6.56907e-07)
(1.61024e-05 2.54265e-06 -4.10948e-06)
(1.65222e-05 2.61011e-06 -1.05059e-05)
(1.92038e-05 4.60017e-06 1.2243e-05)
(1.72582e-05 4.13484e-06 5.4938e-06)
(1.61933e-05 3.88131e-06 6.55409e-07)
(1.58507e-05 3.80085e-06 -4.11025e-06)
(1.62643e-05 3.90142e-06 -1.05057e-05)
(1.87809e-05 6.09485e-06 1.22414e-05)
(1.68783e-05 5.47817e-06 5.49293e-06)
(1.58369e-05 5.14163e-06 6.55187e-07)
(1.55018e-05 5.03443e-06 -4.1098e-06)
(1.59063e-05 5.16706e-06 -1.05044e-05)
(1.8243e-05 7.5506e-06 1.22409e-05)
(1.63949e-05 6.78667e-06 5.49301e-06)
(1.53832e-05 6.36935e-06 6.55756e-07)
(1.50575e-05 6.23605e-06 -4.10866e-06)
(1.54502e-05 6.3999e-06 -1.05026e-05)
(1.75931e-05 8.95894e-06 1.22414e-05)
(1.58105e-05 8.05252e-06 5.49368e-06)
(1.48347e-05 7.55704e-06 6.5677e-07)
(1.45205e-05 7.39845e-06 -4.10719e-06)
(1.4899e-05 7.59248e-06 -1.05004e-05)
(1.68349e-05 1.03115e-05 1.22424e-05)
(1.51288e-05 9.26815e-06 5.49474e-06)
(1.41948e-05 8.69753e-06 6.57998e-07)
(1.3894e-05 8.51459e-06 -4.10562e-06)
(1.42559e-05 8.73754e-06 -1.04983e-05)
(1.5973e-05 1.16003e-05 1.2244e-05)
(1.43538e-05 1.04263e-05 5.49602e-06)
(1.34675e-05 9.78395e-06 6.59249e-07)
(1.31819e-05 9.57772e-06 -4.10418e-06)
(1.35252e-05 9.82815e-06 -1.04963e-05)
(1.50124e-05 1.28178e-05 1.2246e-05)
(1.34902e-05 1.15201e-05 5.49728e-06)
(1.26572e-05 1.08099e-05 6.60288e-07)
(1.2389e-05 1.05815e-05 -4.1031e-06)
(1.27117e-05 1.08578e-05 -1.0495e-05)
(1.3958e-05 1.3958e-05 1.2247e-05)
(1.25435e-05 1.25435e-05 5.49788e-06)
(1.17695e-05 1.17695e-05 6.60719e-07)
(1.15204e-05 1.15204e-05 -4.10268e-06)
(1.18208e-05 1.18208e-05 -1.04944e-05)
(1.28178e-05 1.50124e-05 1.2246e-05)
(1.15201e-05 1.34902e-05 5.49728e-06)
(1.08099e-05 1.26572e-05 6.60288e-07)
(1.05815e-05 1.2389e-05 -4.1031e-06)
(1.08578e-05 1.27117e-05 -1.0495e-05)
(1.16003e-05 1.5973e-05 1.2244e-05)
(1.04263e-05 1.43538e-05 5.49602e-06)
(9.78395e-06 1.34675e-05 6.59249e-07)
(9.57771e-06 1.31819e-05 -4.10418e-06)
(9.82814e-06 1.35252e-05 -1.04963e-05)
(1.03115e-05 1.68349e-05 1.22424e-05)
(9.26815e-06 1.51288e-05 5.49474e-06)
(8.69752e-06 1.41948e-05 6.57998e-07)
(8.51458e-06 1.3894e-05 -4.10562e-06)
(8.73754e-06 1.42559e-05 -1.04983e-05)
(8.95894e-06 1.75931e-05 1.22414e-05)
(8.05252e-06 1.58105e-05 5.49368e-06)
(7.55704e-06 1.48347e-05 6.56769e-07)
(7.39845e-06 1.45205e-05 -4.10719e-06)
(7.59247e-06 1.4899e-05 -1.05004e-05)
(7.5506e-06 1.8243e-05 1.22409e-05)
(6.78667e-06 1.63949e-05 5.49301e-06)
(6.36935e-06 1.53832e-05 6.55756e-07)
(6.23605e-06 1.50575e-05 -4.10866e-06)
(6.39989e-06 1.54502e-05 -1.05026e-05)
(6.09484e-06 1.87809e-05 1.22414e-05)
(5.47817e-06 1.68783e-05 5.49293e-06)
(5.14163e-06 1.58369e-05 6.55187e-07)
(5.03443e-06 1.55018e-05 -4.1098e-06)
(5.16706e-06 1.59063e-05 -1.05044e-05)
(4.60016e-06 1.92038e-05 1.2243e-05)
(4.13484e-06 1.72582e-05 5.4938e-06)
(3.8813e-06 1.61933e-05 6.55408e-07)
(3.80085e-06 1.58507e-05 -4.11025e-06)
(3.90142e-06 1.62643e-05 -1.05057e-05)
(3.0749e-06 1.95102e-05 1.22467e-05)
(2.76471e-06 1.7533e-05 5.49618e-06)
(2.59607e-06 1.64508e-05 6.56907e-07)
(2.54265e-06 1.61024e-05 -4.10948e-06)
(2.6101e-06 1.65222e-05 -1.05059e-05)
(1.52221e-06 1.97037e-05 1.22534e-05)
(1.37626e-06 1.77048e-05 5.50008e-06)
(1.29361e-06 1.66099e-05 6.5979e-07)
(1.26641e-06 1.62552e-05 -4.10713e-06)
(1.29821e-06 1.66747e-05 -1.05049e-05)
(0 1.98419e-05 1.2483e-05)
(0 1.78086e-05 5.65304e-06)
(0 1.66872e-05 7.95057e-07)
(0 1.63076e-05 -3.94423e-06)
(0 1.66967e-05 -1.02514e-05)
(4.23257e-05 0 1.56207e-05)
(4.07018e-05 0 7.85097e-06)
(3.93998e-05 0 1.15087e-06)
(3.84868e-05 0 -5.46296e-06)
(3.78527e-05 0 -1.2946e-05)
(4.21428e-05 3.29579e-06 1.53842e-05)
(4.05268e-05 3.18112e-06 7.64465e-06)
(3.92398e-05 3.08465e-06 9.50316e-07)
(3.83413e-05 3.01816e-06 -5.68746e-06)
(3.7715e-05 2.97449e-06 -1.32223e-05)
(4.17438e-05 6.59836e-06 1.53745e-05)
(4.01419e-05 6.34908e-06 7.63435e-06)
(3.88682e-05 6.15179e-06 9.40473e-07)
(3.79798e-05 6.01514e-06 -5.69636e-06)
(3.73603e-05 5.92071e-06 -1.32275e-05)
(4.10909e-05 9.8535e-06 1.53695e-05)
(3.95144e-05 9.4784e-06 7.63008e-06)
(3.82606e-05 9.18115e-06 9.37148e-07)
(3.73861e-05 8.97489e-06 -5.69841e-06)
(3.67762e-05 8.83179e-06 -1.32278e-05)
(4.01867e-05 1.30468e-05 1.53673e-05)
(3.86449e-05 1.25489e-05 7.62884e-06)
(3.74184e-05 1.21538e-05 9.36929e-07)
(3.6563e-05 1.18793e-05 -5.69746e-06)
(3.59662e-05 1.16884e-05 -1.32255e-05)
(3.90358e-05 1.6159e-05 1.53668e-05)
(3.75378e-05 1.55416e-05 7.62927e-06)
(3.63462e-05 1.50513e-05 9.38282e-07)
(3.5515e-05 1.47102e-05 -5.69505e-06)
(3.4935e-05 1.44728e-05 -1.32219e-05)
(3.76447e-05 1.91711e-05 1.53676e-05)
(3.61998e-05 1.84381e-05 7.63067e-06)
(3.50504e-05 1.78556e-05 9.40426e-07)
(3.42484e-05 1.745e-05 -5.69201e-06)
(3.36888e-05 1.71675e-05 -1.32178e-05)
(3.60219e-05 2.20649e-05 1.53693e-05)
(3.46388e-05 2.12206e-05 7.63263e-06)
(3.35387e-05 2.05494e-05 9.42876e-07)
(3.27711e-05 2.00818e-05 -5.68888e-06)
(3.22353e-05 1.9756e-05 -1.32137e-05)
(3.41771e-05 2.48227e-05 1.53716e-05)
(3.28644e-05 2.38723e-05 7.63481e-06)
(3.18204e-05 2.31164e-05 9.45237e-07)
(3.10921e-05 2.25895e-05 -5.6861e-06)
(3.05837e-05 2.22222e-05 -1.32103e-05)
(3.21214e-05 2.74281e-05 1.53741e-05)
(3.08875e-05 2.63771e-05 7.63676e-06)
(2.99064e-05 2.5541e-05 9.47065e-07)
(2.92221e-05 2.4958e-05 -5.68411e-06)
(2.87446e-05 2.45513e-05 -1.3208e-05)
(2.98665e-05 2.98665e-05 1.53753e-05)
(2.87203e-05 2.87203e-05 7.63761e-06)
(2.78089e-05 2.78089e-05 9.47784e-07)
(2.71732e-05 2.71732e-05 -5.68337e-06)
(2.67296e-05 2.67296e-05 -1.32071e-05)
(2.74281e-05 3.21214e-05 1.53741e-05)
(2.63771e-05 3.08875e-05 7.63676e-06)
(2.5541e-05 2.99064e-05 9.47065e-07)
(2.4958e-05 2.92222e-05 -5.68411e-06)
(2.45513e-05 2.87446e-05 -1.3208e-05)
(2.48227e-05 3.41771e-05 1.53716e-05)
(2.38723e-05 3.28645e-05 7.63481e-06)
(2.31164e-05 3.18204e-05 9.45237e-07)
(2.25895e-05 3.10921e-05 -5.6861e-06)
(2.22222e-05 3.05837e-05 -1.32103e-05)
(2.20649e-05 3.60219e-05 1.53693e-05)
(2.12206e-05 3.46388e-05 7.63263e-06)
(2.05494e-05 3.35387e-05 9.42875e-07)
(2.00818e-05 3.27711e-05 -5.68888e-06)
(1.9756e-05 3.22353e-05 -1.32137e-05)
(1.91711e-05 3.76447e-05 1.53676e-05)
(1.84381e-05 3.61998e-05 7.63067e-06)
(1.78556e-05 3.50504e-05 9.40425e-07)
(1.745e-05 3.42484e-05 -5.69201e-06)
(1.71675e-05 3.36888e-05 -1.32178e-05)
(1.6159e-05 3.90358e-05 1.53668e-05)
(1.55416e-05 3.75378e-05 7.62927e-06)
(1.50513e-05 3.63462e-05 9.38282e-07)
(1.47102e-05 3.5515e-05 -5.69505e-06)
(1.44728e-05 3.4935e-05 -1.32219e-05)
(1.30468e-05 4.01867e-05 1.53673e-05)
(1.25489e-05 3.86449e-05 7.62884e-06)
(1.21538e-05 3.74184e-05 9.36929e-07)
(1.18793e-05 3.6563e-05 -5.69746e-06)
(1.16884e-05 3.59662e-05 -1.32255e-05)
(9.85349e-06 4.10909e-05 1.53695e-05)
(9.47839e-06 3.95144e-05 7.63008e-06)
(9.18114e-06 3.82606e-05 9.37148e-07)
(8.97489e-06 3.73861e-05 -5.69841e-06)
(8.83179e-06 3.67762e-05 -1.32278e-05)
(6.59835e-06 4.17438e-05 1.53745e-05)
(6.34907e-06 4.01419e-05 7.63435e-06)
(6.15178e-06 3.88682e-05 9.40473e-07)
(6.01514e-06 3.79798e-05 -5.69636e-06)
(5.92071e-06 3.73603e-05 -1.32275e-05)
(3.29579e-06 4.21428e-05 1.53842e-05)
(3.18112e-06 4.05268e-05 7.64465e-06)
(3.08465e-06 3.92398e-05 9.50316e-07)
(3.01816e-06 3.83413e-05 -5.68746e-06)
(2.97449e-06 3.7715e-05 -1.32223e-05)
(0 4.23257e-05 1.56207e-05)
(0 4.07018e-05 7.85097e-06)
(0 3.93998e-05 1.15087e-06)
(0 3.84868e-05 -5.46296e-06)
(0 3.78527e-05 -1.2946e-05)
(6.30201e-05 0 1.34022e-05)
(6.15989e-05 0 6.75623e-06)
(6.0199e-05 0 6.94137e-07)
(5.88618e-05 0 -5.3069e-06)
(5.7513e-05 0 -1.17459e-05)
(6.27846e-05 4.92664e-06 1.3206e-05)
(6.13622e-05 4.82587e-06 6.57279e-06)
(5.99657e-05 4.7221e-06 5.09597e-07)
(5.86316e-05 4.6238e-06 -5.50737e-06)
(5.72825e-05 4.53064e-06 -1.19762e-05)
(6.21966e-05 9.83902e-06 1.31967e-05)
(6.07846e-05 9.62101e-06 6.56336e-06)
(5.93999e-05 9.40794e-06 5.0053e-07)
(5.80775e-05 9.20491e-06 -5.51516e-06)
(5.67405e-05 8.99992e-06 -1.1981e-05)
(6.12257e-05 1.46854e-05 1.31914e-05)
(5.98353e-05 1.43569e-05 6.559e-06)
(5.84714e-05 1.40353e-05 4.97267e-07)
(5.71689e-05 1.37286e-05 -5.51687e-06)
(5.5852e-05 1.34183e-05 -1.19808e-05)
(5.98783e-05 1.94406e-05 1.31888e-05)
(5.8518e-05 1.90039e-05 6.55774e-06)
(5.71835e-05 1.85759e-05 4.97389e-07)
(5.59091e-05 1.81674e-05 -5.5152e-06)
(5.46205e-05 1.77542e-05 -1.19774e-05)
(5.81626e-05 2.40759e-05 1.31881e-05)
(5.68407e-05 2.35335e-05 6.55836e-06)
(5.55439e-05 2.30017e-05 4.99382e-07)
(5.43055e-05 2.24941e-05 -5.5117e-06)
(5.30533e-05 2.19806e-05 -1.19722e-05)
(5.60889e-05 2.85627e-05 1.31888e-05)
(5.48136e-05 2.7918e-05 6.56011e-06)
(5.35626e-05 2.72857e-05 5.02335e-07)
(5.23679e-05 2.66819e-05 -5.5074e-06)
(5.11598e-05 2.60711e-05 -1.19664e-05)
(5.36699e-05 3.28739e-05 1.31904e-05)
(5.24491e-05 3.21306e-05 6.56251e-06)
(5.12517e-05 3.14015e-05 5.0562e-07)
(5.01083e-05 3.07052e-05 -5.50303e-06)
(4.89521e-05 3.00008e-05 -1.19608e-05)
(5.09204e-05 3.6983e-05 1.31928e-05)
(4.97618e-05 3.61456e-05 6.56511e-06)
(4.86256e-05 3.53239e-05 5.08702e-07)
(4.75408e-05 3.45392e-05 -5.49923e-06)
(4.64438e-05 3.37456e-05 -1.1956e-05)
(4.78572e-05 4.08652e-05 1.31955e-05)
(4.67681e-05 3.99386e-05 6.56735e-06)
(4.57006e-05 3.90293e-05 5.11011e-07)
(4.46815e-05 3.81608e-05 -5.49657e-06)
(4.36509e-05 3.72826e-05 -1.19528e-05)
(4.44979e-05 4.44979e-05 1.31967e-05)
(4.34867e-05 4.34867e-05 6.5683e-06)
(4.24951e-05 4.24951e-05 5.11897e-07)
(4.15483e-05 4.15483e-05 -5.4956e-06)
(4.05909e-05 4.05909e-05 -1.19517e-05)
(4.08652e-05 4.78572e-05 1.31955e-05)
(3.99386e-05 4.67681e-05 6.56735e-06)
(3.90292e-05 4.57006e-05 5.11011e-07)
(3.81608e-05 4.46815e-05 -5.49657e-06)
(3.72826e-05 4.36509e-05 -1.19528e-05)
(3.6983e-05 5.09204e-05 1.31928e-05)
(3.61456e-05 4.97618e-05 6.56511e-06)
(3.53239e-05 4.86256e-05 5.08702e-07)
(3.45392e-05 4.75408e-05 -5.49923e-06)
(3.37455e-05 4.64438e-05 -1.1956e-05)
(3.28738e-05 5.36699e-05 1.31904e-05)
(3.21306e-05 5.24491e-05 6.56251e-06)
(3.14015e-05 5.12517e-05 5.0562e-07)
(3.07052e-05 5.01083e-05 -5.50303e-06)
(3.00008e-05 4.89521e-05 -1.19608e-05)
(2.85627e-05 5.60889e-05 1.31888e-05)
(2.7918e-05 5.48136e-05 6.56012e-06)
(2.72857e-05 5.35626e-05 5.02335e-07)
(2.66819e-05 5.23679e-05 -5.5074e-06)
(2.60711e-05 5.11598e-05 -1.19664e-05)
(2.40759e-05 5.81626e-05 1.31881e-05)
(2.35335e-05 5.68407e-05 6.55836e-06)
(2.30017e-05 5.55439e-05 4.99382e-07)
(2.24941e-05 5.43055e-05 -5.5117e-06)
(2.19806e-05 5.30533e-05 -1.19722e-05)
(1.94406e-05 5.98783e-05 1.31888e-05)
(1.90039e-05 5.8518e-05 6.55774e-06)
(1.85759e-05 5.71835e-05 4.97389e-07)
(1.81674e-05 5.59092e-05 -5.5152e-06)
(1.77542e-05 5.46205e-05 -1.19774e-05)
(1.46853e-05 6.12257e-05 1.31914e-05)
(1.43569e-05 5.98353e-05 6.559e-06)
(1.40353e-05 5.84714e-05 4.97267e-07)
(1.37286e-05 5.7169e-05 -5.51687e-06)
(1.34183e-05 5.5852e-05 -1.19808e-05)
(9.83901e-06 6.21966e-05 1.31967e-05)
(9.62101e-06 6.07846e-05 6.56336e-06)
(9.40794e-06 5.94e-05 5.0053e-07)
(9.2049e-06 5.80775e-05 -5.51516e-06)
(8.99991e-06 5.67405e-05 -1.1981e-05)
(4.92664e-06 6.27846e-05 1.3206e-05)
(4.82587e-06 6.13622e-05 6.57279e-06)
(4.72209e-06 5.99657e-05 5.09598e-07)
(4.6238e-06 5.86316e-05 -5.50737e-06)
(4.53064e-06 5.72825e-05 -1.19762e-05)
(0 6.302e-05 1.34022e-05)
(0 6.15989e-05 6.75623e-06)
(0 6.0199e-05 6.94137e-07)
(0 5.88618e-05 -5.3069e-06)
(0 5.7513e-05 -1.17459e-05)
(7.80408e-05 0 7.88042e-06)
(7.66763e-05 0 3.60629e-06)
(7.51783e-05 0 -4.2324e-07)
(7.35745e-05 0 -4.41572e-06)
(7.18114e-05 0 -8.56686e-06)
(7.77632e-05 6.10648e-06 7.75689e-06)
(7.63928e-05 6.00963e-06 3.48598e-06)
(7.48921e-05 5.89861e-06 -5.46198e-07)
(7.32853e-05 5.78107e-06 -4.54704e-06)
(7.15181e-05 5.66001e-06 -8.71144e-06)
(7.70362e-05 1.21864e-05 7.75053e-06)
(7.56747e-05 1.1978e-05 3.48038e-06)
(7.41853e-05 1.17502e-05 -5.50988e-07)
(7.25913e-05 1.15066e-05 -4.55051e-06)
(7.08395e-05 1.12388e-05 -8.71268e-06)
(7.58328e-05 1.81863e-05 7.74619e-06)
(7.44914e-05 1.78721e-05 3.4776e-06)
(7.30239e-05 1.75281e-05 -5.5227e-07)
(7.14538e-05 1.71598e-05 -4.55003e-06)
(6.9728e-05 1.67542e-05 -8.71021e-06)
(7.41621e-05 2.40738e-05 7.74361e-06)
(7.28492e-05 2.36553e-05 3.47694e-06)
(7.14131e-05 2.3197e-05 -5.51096e-07)
(6.98767e-05 2.27062e-05 -4.54692e-06)
(6.81878e-05 2.2166e-05 -8.70493e-06)
(7.20347e-05 2.98128e-05 7.74248e-06)
(7.07586e-05 2.92923e-05 3.47777e-06)
(6.93628e-05 2.87223e-05 -5.48379e-07)
(6.78696e-05 2.8112e-05 -4.5422e-06)
(6.62284e-05 2.74403e-05 -8.69798e-06)
(6.9464e-05 3.53686e-05 7.74258e-06)
(6.82326e-05 3.47489e-05 3.47959e-06)
(6.6886e-05 3.40704e-05 -5.44828e-07)
(6.54455e-05 3.3344e-05 -4.53679e-06)
(6.38623e-05 3.25448e-05 -8.69046e-06)
(6.6466e-05 4.07072e-05 7.74374e-06)
(6.52872e-05 3.99919e-05 3.48202e-06)
(6.39982e-05 3.92088e-05 -5.41032e-07)
(6.26196e-05 3.83705e-05 -4.53145e-06)
(6.11044e-05 3.74485e-05 -8.68333e-06)
(6.30591e-05 4.57961e-05 7.74571e-06)
(6.19404e-05 4.49893e-05 3.48464e-06)
(6.07175e-05 4.41062e-05 -5.37551e-07)
(5.94096e-05 4.3161e-05 -4.52688e-06)
(5.79723e-05 4.21217e-05 -8.67742e-06)
(5.92642e-05 5.06043e-05 7.74804e-06)
(5.82129e-05 4.97107e-05 3.48688e-06)
(5.70641e-05 4.87329e-05 -5.34992e-07)
(5.58356e-05 4.76865e-05 -4.52373e-06)
(5.44854e-05 4.65362e-05 -8.67347e-06)
(5.51035e-05 5.51035e-05 7.74921e-06)
(5.41277e-05 5.41277e-05 3.48781e-06)
(5.30609e-05 5.30609e-05 -5.34024e-07)
(5.19198e-05 5.19199e-05 -4.5226e-06)
(5.06656e-05 5.06656e-05 -8.67208e-06)
(5.06043e-05 5.92642e-05 7.74804e-06)
(4.97107e-05 5.82129e-05 3.48688e-06)
(4.87328e-05 5.70641e-05 -5.34992e-07)
(4.76865e-05 5.58356e-05 -4.52373e-06)
(4.65362e-05 5.44854e-05 -8.67347e-06)
(4.57961e-05 6.30591e-05 7.74572e-06)
(4.49893e-05 6.19404e-05 3.48464e-06)
(4.41062e-05 6.07175e-05 -5.37551e-07)
(4.3161e-05 5.94096e-05 -4.52688e-06)
(4.21217e-05 5.79723e-05 -8.67742e-06)
(4.07072e-05 6.6466e-05 7.74374e-06)
(3.99918e-05 6.52872e-05 3.48202e-06)
(3.92088e-05 6.39982e-05 -5.41032e-07)
(3.83705e-05 6.26196e-05 -4.53145e-06)
(3.74485e-05 6.11045e-05 -8.68333e-06)
(3.53686e-05 6.9464e-05 7.74258e-06)
(3.47489e-05 6.82327e-05 3.47959e-06)
(3.40704e-05 6.6886e-05 -5.44827e-07)
(3.3344e-05 6.54455e-05 -4.53679e-06)
(3.25448e-05 6.38623e-05 -8.69046e-06)
(2.98128e-05 7.20347e-05 7.74248e-06)
(2.92923e-05 7.07586e-05 3.47777e-06)
(2.87223e-05 6.93628e-05 -5.48378e-07)
(2.8112e-05 6.78696e-05 -4.5422e-06)
(2.74403e-05 6.62284e-05 -8.69798e-06)
(2.40738e-05 7.41621e-05 7.74361e-06)
(2.36553e-05 7.28492e-05 3.47694e-06)
(2.3197e-05 7.14131e-05 -5.51095e-07)
(2.27062e-05 6.98767e-05 -4.54692e-06)
(2.2166e-05 6.81878e-05 -8.70493e-06)
(1.81863e-05 7.58328e-05 7.7462e-06)
(1.78721e-05 7.44914e-05 3.4776e-06)
(1.75281e-05 7.30239e-05 -5.5227e-07)
(1.71598e-05 7.14538e-05 -4.55003e-06)
(1.67542e-05 6.9728e-05 -8.71021e-06)
(1.21864e-05 7.70362e-05 7.75053e-06)
(1.1978e-05 7.56747e-05 3.48038e-06)
(1.17502e-05 7.41853e-05 -5.50987e-07)
(1.15066e-05 7.25913e-05 -4.55051e-06)
(1.12388e-05 7.08395e-05 -8.71268e-06)
(6.10647e-06 7.77632e-05 7.7569e-06)
(6.00963e-06 7.63928e-05 3.48598e-06)
(5.89861e-06 7.48921e-05 -5.46196e-07)
(5.78107e-06 7.32853e-05 -4.54704e-06)
(5.66001e-06 7.15181e-05 -8.71144e-06)
(0 7.80408e-05 7.88042e-06)
(0 7.66763e-05 3.60629e-06)
(0 7.51783e-05 -4.23239e-07)
(0 7.35745e-05 -4.41572e-06)
(0 7.18114e-05 -8.56686e-06)
(8.54761e-05 0 8.48727e-07)
(8.41104e-05 0 -5.41168e-07)
(8.25632e-05 0 -1.94646e-06)
(8.08536e-05 0 -3.34482e-06)
(7.89397e-05 0 -4.71437e-06)
(8.51754e-05 6.68625e-06 8.10459e-07)
(8.38024e-05 6.59022e-06 -5.81838e-07)
(8.22505e-05 6.47628e-06 -1.98923e-06)
(8.05358e-05 6.35184e-06 -3.38897e-06)
(7.86169e-05 6.22158e-06 -4.75862e-06)
(8.43775e-05 1.33417e-05 8.07854e-07)
(8.30128e-05 1.31351e-05 -5.82997e-07)
(8.1472e-05 1.29012e-05 -1.98919e-06)
(7.97705e-05 1.2643e-05 -3.38759e-06)
(7.78683e-05 1.23541e-05 -4.75564e-06)
(8.30562e-05 1.99101e-05 8.05204e-07)
(8.17112e-05 1.95982e-05 -5.8351e-07)
(8.01927e-05 1.92449e-05 -1.98785e-06)
(7.85166e-05 1.8854e-05 -3.38433e-06)
(7.66424e-05 1.84161e-05 -4.75018e-06)
(8.12223e-05 2.63553e-05 8.02978e-07)
(7.99054e-05 2.59392e-05 -5.83204e-07)
(7.84191e-05 2.54679e-05 -1.98529e-06)
(7.67787e-05 2.49467e-05 -3.37948e-06)
(7.49445e-05 2.43629e-05 -4.74271e-06)
(7.88879e-05 3.26382e-05 8.01443e-07)
(7.76075e-05 3.21197e-05 -5.82119e-07)
(7.61626e-05 3.15328e-05 -1.98183e-06)
(7.45683e-05 3.0884e-05 -3.37358e-06)
(7.27858e-05 3.01576e-05 -4.73402e-06)
(7.60682e-05 3.87207e-05 8.0077e-07)
(7.48324e-05 3.81023e-05 -5.80381e-07)
(7.34383e-05 3.74029e-05 -1.97787e-06)
(7.19001e-05 3.663e-05 -3.36727e-06)
(7.01806e-05 3.57649e-05 -4.725e-06)
(7.2781e-05 4.45657e-05 8.01046e-07)
(7.15979e-05 4.38508e-05 -5.78183e-07)
(7.02635e-05 4.30426e-05 -1.97382e-06)
(6.87914e-05 4.215e-05 -3.36121e-06)
(6.7146e-05 4.11512e-05 -4.71658e-06)
(6.90468e-05 5.01379e-05 8.02219e-07)
(6.79242e-05 4.93304e-05 -5.75821e-07)
(6.66583e-05 4.84182e-05 -1.97019e-06)
(6.52621e-05 4.7411e-05 -3.35611e-06)
(6.37014e-05 4.62843e-05 -4.70967e-06)
(6.48887e-05 5.54035e-05 8.03957e-07)
(6.38341e-05 5.45082e-05 -5.73789e-07)
(6.26453e-05 5.34972e-05 -1.96756e-06)
(6.1334e-05 5.23814e-05 -3.35263e-06)
(5.98683e-05 5.11337e-05 -4.70508e-06)
(6.03311e-05 6.03311e-05 8.04901e-07)
(5.93527e-05 5.93527e-05 -5.72932e-07)
(5.82492e-05 5.82492e-05 -1.96657e-06)
(5.70317e-05 5.70317e-05 -3.35138e-06)
(5.56706e-05 5.56706e-05 -4.70346e-06)
(5.54035e-05 6.48887e-05 8.03957e-07)
(5.45082e-05 6.38341e-05 -5.73788e-07)
(5.34972e-05 6.26453e-05 -1.96756e-06)
(5.23814e-05 6.1334e-05 -3.35263e-06)
(5.11337e-05 5.98684e-05 -4.70508e-06)
(5.01379e-05 6.90468e-05 8.02221e-07)
(4.93304e-05 6.79242e-05 -5.7582e-07)
(4.84182e-05 6.66584e-05 -1.97019e-06)
(4.7411e-05 6.52621e-05 -3.35611e-06)
(4.62843e-05 6.37014e-05 -4.70967e-06)
(4.45657e-05 7.2781e-05 8.01048e-07)
(4.38507e-05 7.15979e-05 -5.78182e-07)
(4.30426e-05 7.02635e-05 -1.97382e-06)
(4.215e-05 6.87915e-05 -3.36121e-06)
(4.11512e-05 6.7146e-05 -4.71658e-06)
(3.87206e-05 7.60682e-05 8.00772e-07)
(3.81023e-05 7.48324e-05 -5.8038e-07)
(3.74028e-05 7.34383e-05 -1.97786e-06)
(3.663e-05 7.19001e-05 -3.36726e-06)
(3.57649e-05 7.01806e-05 -4.725e-06)
(3.26382e-05 7.88879e-05 8.01446e-07)
(3.21197e-05 7.76075e-05 -5.82118e-07)
(3.15328e-05 7.61626e-05 -1.98183e-06)
(3.0884e-05 7.45683e-05 -3.37358e-06)
(3.01576e-05 7.27858e-05 -4.73402e-06)
(2.63553e-05 8.12223e-05 8.02981e-07)
(2.59392e-05 7.99054e-05 -5.83202e-07)
(2.54679e-05 7.84191e-05 -1.98529e-06)
(2.49467e-05 7.67787e-05 -3.37947e-06)
(2.43629e-05 7.49446e-05 -4.74271e-06)
(1.991e-05 8.30562e-05 8.05207e-07)
(1.95982e-05 8.17112e-05 -5.83508e-07)
(1.92448e-05 8.01928e-05 -1.98784e-06)
(1.8854e-05 7.85166e-05 -3.38433e-06)
(1.84161e-05 7.66424e-05 -4.75018e-06)
(1.33417e-05 8.43775e-05 8.07858e-07)
(1.31351e-05 8.30128e-05 -5.82995e-07)
(1.29012e-05 8.1472e-05 -1.98919e-06)
(1.2643e-05 7.97706e-05 -3.38759e-06)
(1.23541e-05 7.78683e-05 -4.75564e-06)
(6.68624e-06 8.51754e-05 8.10463e-07)
(6.59021e-06 8.38024e-05 -5.81836e-07)
(6.47628e-06 8.22505e-05 -1.98923e-06)
(6.35184e-06 8.05358e-05 -3.38897e-06)
(6.22158e-06 7.86169e-05 -4.75862e-06)
(0 8.54761e-05 8.48731e-07)
(0 8.41104e-05 -5.41165e-07)
(0 8.25632e-05 -1.94646e-06)
(0 8.08536e-05 -3.34482e-06)
(0 7.89397e-05 -4.71437e-06)
(8.49562e-05 0 -6.26257e-06)
(8.35882e-05 0 -4.8199e-06)
(8.20678e-05 0 -3.60411e-06)
(8.04062e-05 0 -2.41396e-06)
(7.85686e-05 0 -1.05925e-06)
(8.46551e-05 6.63877e-06 -6.21813e-06)
(8.32809e-05 6.54427e-06 -4.78174e-06)
(8.17563e-05 6.43362e-06 -3.56694e-06)
(8.00903e-05 6.31401e-06 -2.37212e-06)
(7.82488e-05 6.19061e-06 -1.00682e-06)
(8.38583e-05 1.32487e-05 -6.21703e-06)
(8.24922e-05 1.30447e-05 -4.7789e-06)
(8.09784e-05 1.28173e-05 -3.56276e-06)
(7.93251e-05 1.25689e-05 -2.36673e-06)
(7.74996e-05 1.22946e-05 -1.00047e-06)
(8.25398e-05 1.97721e-05 -6.21767e-06)
(8.11929e-05 1.94636e-05 -4.77716e-06)
(7.97007e-05 1.91196e-05 -3.55908e-06)
(7.80719e-05 1.87432e-05 -2.36119e-06)
(7.62732e-05 1.83267e-05 -9.92762e-07)
(8.07108e-05 2.61731e-05 -6.21913e-06)
(7.93915e-05 2.57606e-05 -4.77579e-06)
(7.79306e-05 2.53012e-05 -3.55535e-06)
(7.63363e-05 2.47986e-05 -2.35508e-06)
(7.45759e-05 2.42427e-05 -9.83872e-07)
(7.83841e-05 3.24127e-05 -6.22073e-06)
(7.71009e-05 3.18976e-05 -4.77439e-06)
(7.56804e-05 3.13247e-05 -3.55139e-06)
(7.41307e-05 3.06982e-05 -2.34853e-06)
(7.24197e-05 3.00057e-05 -9.74243e-07)
(7.55752e-05 3.84532e-05 -6.22197e-06)
(7.43365e-05 3.78377e-05 -4.77276e-06)
(7.29657e-05 3.7154e-05 -3.54729e-06)
(7.14705e-05 3.64068e-05 -2.34187e-06)
(6.982e-05 3.55811e-05 -9.64527e-07)
(7.23026e-05 4.42583e-05 -6.22251e-06)
(7.11166e-05 4.35454e-05 -4.77088e-06)
(6.98046e-05 4.27544e-05 -3.54328e-06)
(6.83738e-05 4.18903e-05 -2.33562e-06)
(6.67946e-05 4.09358e-05 -9.5553e-07)
(6.8587e-05 4.97932e-05 -6.22218e-06)
(6.74619e-05 4.89867e-05 -4.76887e-06)
(6.62175e-05 4.80926e-05 -3.53975e-06)
(6.48607e-05 4.71165e-05 -2.33039e-06)
(6.33632e-05 4.60386e-05 -9.48135e-07)
(6.44517e-05 5.50244e-05 -6.22111e-06)
(6.33952e-05 5.4129e-05 -4.76713e-06)
(6.2227e-05 5.31371e-05 -3.53721e-06)
(6.09533e-05 5.20547e-05 -2.32683e-06)
(5.95477e-05 5.08598e-05 -9.43214e-07)
(5.99211e-05 5.99211e-05 -6.22043e-06)
(5.89416e-05 5.89416e-05 -4.76639e-06)
(5.78579e-05 5.7858e-05 -3.53626e-06)
(5.66761e-05 5.66761e-05 -2.32556e-06)
(5.53716e-05 5.53716e-05 -9.41478e-07)
(5.50244e-05 6.44517e-05 -6.22111e-06)
(5.4129e-05 6.33952e-05 -4.76713e-06)
(5.3137e-05 6.2227e-05 -3.53721e-06)
(5.20547e-05 6.09534e-05 -2.32683e-06)
(5.08598e-05 5.95477e-05 -9.43214e-07)
(4.97931e-05 6.85871e-05 -6.22218e-06)
(4.89867e-05 6.74619e-05 -4.76887e-06)
(4.80926e-05 6.62175e-05 -3.53975e-06)
(4.71165e-05 6.48607e-05 -2.33039e-06)
(4.60386e-05 6.33633e-05 -9.48135e-07)
(4.42583e-05 7.23026e-05 -6.22251e-06)
(4.35454e-05 7.11166e-05 -4.77088e-06)
(4.27543e-05 6.98046e-05 -3.54328e-06)
(4.18903e-05 6.83738e-05 -2.33562e-06)
(4.09358e-05 6.67946e-05 -9.5553e-07)
(3.84532e-05 7.55753e-05 -6.22197e-06)
(3.78377e-05 7.43365e-05 -4.77276e-06)
(3.7154e-05 7.29657e-05 -3.54729e-06)
(3.64068e-05 7.14705e-05 -2.34187e-06)
(3.55811e-05 6.982e-05 -9.64527e-07)
(3.24127e-05 7.83841e-05 -6.22073e-06)
(3.18976e-05 7.71009e-05 -4.77439e-06)
(3.13247e-05 7.56804e-05 -3.55139e-06)
(3.06982e-05 7.41307e-05 -2.34853e-06)
(3.00057e-05 7.24197e-05 -9.74242e-07)
(2.61731e-05 8.07108e-05 -6.21913e-06)
(2.57605e-05 7.93915e-05 -4.77579e-06)
(2.53012e-05 7.79306e-05 -3.55535e-06)
(2.47985e-05 7.63363e-05 -2.35508e-06)
(2.42427e-05 7.45759e-05 -9.83872e-07)
(1.97721e-05 8.25398e-05 -6.21767e-06)
(1.94635e-05 8.11929e-05 -4.77715e-06)
(1.91196e-05 7.97008e-05 -3.55908e-06)
(1.87431e-05 7.80719e-05 -2.36118e-06)
(1.83267e-05 7.62732e-05 -9.92761e-07)
(1.32487e-05 8.38583e-05 -6.21703e-06)
(1.30447e-05 8.24922e-05 -4.7789e-06)
(1.28173e-05 8.09784e-05 -3.56276e-06)
(1.25689e-05 7.93251e-05 -2.36673e-06)
(1.22946e-05 7.74996e-05 -1.00047e-06)
(6.63876e-06 8.46551e-05 -6.21813e-06)
(6.54427e-06 8.32809e-05 -4.78174e-06)
(6.43362e-06 8.17563e-05 -3.56694e-06)
(6.314e-06 8.00903e-05 -2.37212e-06)
(6.19061e-06 7.82488e-05 -1.00682e-06)
(0 8.49562e-05 -6.26257e-06)
(0 8.35883e-05 -4.81989e-06)
(0 8.20678e-05 -3.60411e-06)
(0 8.04062e-05 -2.41396e-06)
(0 7.85686e-05 -1.05925e-06)
(7.73158e-05 0 -1.22754e-05)
(7.59692e-05 0 -8.51376e-06)
(7.4556e-05 0 -5.1437e-06)
(7.30769e-05 0 -1.82858e-06)
(7.15039e-05 0 1.74835e-06)
(7.70356e-05 6.03134e-06 -1.21634e-05)
(7.56858e-05 5.94046e-06 -8.41109e-06)
(7.42709e-05 5.83933e-06 -5.0411e-06)
(7.27899e-05 5.73455e-06 -1.71675e-06)
(7.12157e-05 5.63116e-06 1.87883e-06)
(7.63052e-05 1.20408e-05 -1.21591e-05)
(7.49634e-05 1.18432e-05 -8.40521e-06)
(7.35586e-05 1.16351e-05 -5.03413e-06)
(7.2089e-05 1.14173e-05 -1.70896e-06)
(7.05287e-05 1.11868e-05 1.88676e-06)
(7.50983e-05 1.79709e-05 -1.21575e-05)
(7.3775e-05 1.76715e-05 -8.40159e-06)
(7.23901e-05 1.7356e-05 -5.02899e-06)
(7.09419e-05 1.70256e-05 -1.70245e-06)
(6.94043e-05 1.66749e-05 1.89489e-06)
(7.34257e-05 2.37894e-05 -1.21575e-05)
(7.2129e-05 2.33884e-05 -8.3992e-06)
(7.07727e-05 2.29663e-05 -5.02469e-06)
(6.9355e-05 2.25243e-05 -1.69628e-06)
(6.78499e-05 2.20553e-05 1.90334e-06)
(7.12995e-05 2.94607e-05 -1.21583e-05)
(7.00378e-05 2.89591e-05 -8.39736e-06)
(6.87188e-05 2.84319e-05 -5.02073e-06)
(6.73405e-05 2.788e-05 -1.69018e-06)
(6.58776e-05 2.72945e-05 1.91206e-06)
(6.87348e-05 3.49509e-05 -1.21592e-05)
(6.75165e-05 3.43504e-05 -8.39566e-06)
(6.62434e-05 3.37202e-05 -5.01692e-06)
(6.49136e-05 3.30608e-05 -1.68422e-06)
(6.35025e-05 3.23613e-05 1.92073e-06)
(6.5749e-05 4.02274e-05 -1.21598e-05)
(6.45825e-05 3.95306e-05 -8.39393e-06)
(6.33641e-05 3.88001e-05 -5.01332e-06)
(6.20917e-05 3.80364e-05 -1.67868e-06)
(6.07418e-05 3.72263e-05 1.92878e-06)
(6.23617e-05 4.52589e-05 -1.21598e-05)
(6.12553e-05 4.44692e-05 -8.39218e-06)
(6.01001e-05 4.36424e-05 -5.01019e-06)
(5.88939e-05 4.27783e-05 -1.67403e-06)
(5.76146e-05 4.18619e-05 1.93547e-06)
(5.85946e-05 5.00158e-05 -1.21591e-05)
(5.75564e-05 4.91377e-05 -8.39068e-06)
(5.64726e-05 4.82192e-05 -5.00795e-06)
(5.53411e-05 4.72597e-05 -1.67087e-06)
(5.41411e-05 4.62421e-05 1.93996e-06)
(5.44705e-05 5.44705e-05 -1.21586e-05)
(5.35089e-05 5.35089e-05 -8.39005e-06)
(5.25042e-05 5.25043e-05 -5.00711e-06)
(5.14553e-05 5.14553e-05 -1.66973e-06)
(5.03428e-05 5.03429e-05 1.94155e-06)
(5.00158e-05 5.85947e-05 -1.21591e-05)
(4.91377e-05 5.75564e-05 -8.39068e-06)
(4.82192e-05 5.64726e-05 -5.00795e-06)
(4.72597e-05 5.53411e-05 -1.67087e-06)
(4.62421e-05 5.41411e-05 1.93996e-06)
(4.52589e-05 6.23618e-05 -1.21598e-05)
(4.44692e-05 6.12553e-05 -8.39218e-06)
(4.36424e-05 6.01001e-05 -5.01019e-06)
(4.27783e-05 5.8894e-05 -1.67403e-06)
(4.18619e-05 5.76146e-05 1.93547e-06)
(4.02273e-05 6.5749e-05 -1.21598e-05)
(3.95306e-05 6.45825e-05 -8.39393e-06)
(3.88001e-05 6.33641e-05 -5.01332e-06)
(3.80364e-05 6.20917e-05 -1.67868e-06)
(3.72263e-05 6.07419e-05 1.92879e-06)
(3.49509e-05 6.87349e-05 -1.21592e-05)
(3.43504e-05 6.75165e-05 -8.39566e-06)
(3.37202e-05 6.62434e-05 -5.01692e-06)
(3.30608e-05 6.49136e-05 -1.68422e-06)
(3.23613e-05 6.35025e-05 1.92073e-06)
(2.94607e-05 7.12995e-05 -1.21583e-05)
(2.89591e-05 7.00378e-05 -8.39736e-06)
(2.84319e-05 6.87188e-05 -5.02073e-06)
(2.788e-05 6.73405e-05 -1.69018e-06)
(2.72945e-05 6.58776e-05 1.91206e-06)
(2.37894e-05 7.34257e-05 -1.21575e-05)
(2.33884e-05 7.2129e-05 -8.3992e-06)
(2.29663e-05 7.07727e-05 -5.02469e-06)
(2.25243e-05 6.9355e-05 -1.69628e-06)
(2.20553e-05 6.78499e-05 1.90334e-06)
(1.79709e-05 7.50983e-05 -1.21575e-05)
(1.76715e-05 7.3775e-05 -8.40159e-06)
(1.7356e-05 7.23901e-05 -5.02899e-06)
(1.70256e-05 7.0942e-05 -1.70244e-06)
(1.66749e-05 6.94044e-05 1.89489e-06)
(1.20408e-05 7.63052e-05 -1.21591e-05)
(1.18432e-05 7.49634e-05 -8.40521e-06)
(1.16351e-05 7.35586e-05 -5.03413e-06)
(1.14173e-05 7.2089e-05 -1.70895e-06)
(1.11868e-05 7.05287e-05 1.88676e-06)
(6.03133e-06 7.70356e-05 -1.21634e-05)
(5.94046e-06 7.56858e-05 -8.41109e-06)
(5.83932e-06 7.42709e-05 -5.0411e-06)
(5.73455e-06 7.27899e-05 -1.71675e-06)
(5.63116e-06 7.12157e-05 1.87883e-06)
(0 7.73158e-05 -1.22754e-05)
(0 7.59692e-05 -8.51376e-06)
(0 7.45561e-05 -5.14369e-06)
(0 7.30769e-05 -1.82858e-06)
(0 7.15039e-05 1.74836e-06)
(6.45161e-05 0 -1.62554e-05)
(6.32217e-05 0 -1.10716e-05)
(6.19815e-05 0 -6.36347e-06)
(6.07801e-05 0 -1.73023e-06)
(5.96e-05 0 3.20392e-06)
(6.42734e-05 5.02001e-06 -1.61023e-05)
(6.29799e-05 4.93475e-06 -1.09292e-05)
(6.17415e-05 4.84784e-06 -6.22051e-06)
(6.05417e-05 4.76466e-06 -1.57573e-06)
(5.93643e-05 4.68986e-06 3.38089e-06)
(6.36577e-05 1.00283e-05 -1.60955e-05)
(6.23724e-05 9.84148e-06 -1.09217e-05)
(6.11431e-05 9.66208e-06 -6.21253e-06)
(5.99528e-05 9.48915e-06 -1.56762e-06)
(5.8786e-05 9.32159e-06 3.38813e-06)
(6.26432e-05 1.49696e-05 -1.60915e-05)
(6.13753e-05 1.46858e-05 -1.09168e-05)
(6.01631e-05 1.44133e-05 -6.2071e-06)
(5.89899e-05 1.41502e-05 -1.56182e-06)
(5.78399e-05 1.38943e-05 3.39436e-06)
(6.12386e-05 1.98172e-05 -1.60893e-05)
(5.99959e-05 1.94365e-05 -1.09135e-05)