/*--------------------------------*- C++ -*----------------------------------*\
| =========                 |                                                 |
| \\      /  F ield         | foam-extend: Open Source CFD                    |
|  \\    /   O peration     | Version:     3.1                                |
|   \\  /    A nd           | Web:         http://www.extend-project.de       |
|    \\/     M anipulation  |                                                 |
\*---------------------------------------------------------------------------*/
FoamFile
{
    version     2.0;
    format      ascii;
    class       volScalarField;
    location    "0.0011";
    object      sigmaEq;
}
// * * * * * * * * * * * * * * * * * * * * * * * * * * * * * * * * * * * * * //

dimensions      [1 -1 -2 0 0 0 0];

internalField   nonuniform List<scalar> 
6400
(
4983.55
3846.21
3466.51
4003.21
4954.44
3832.01
3464.64
4025.32
4952.25
3830.29
3463.91
4025.75
4951.28
3829.72
3463.59
4025.48
4950.92
3829.5
3463.37
4025
4950.83
3829.4
3463.1
4024.38
4950.88
3829.3
3462.76
4023.67
4950.97
3829.12
3462.33
4022.93
4951.05
3828.87
3461.87
4022.28
4951.02
3828.63
3461.53
4021.86
4951.02
3828.63
3461.53
4021.86
4951.05
3828.87
3461.87
4022.28
4950.96
3829.12
3462.33
4022.93
4950.87
3829.3
3462.76
4023.67
4950.83
3829.4
3463.1
4024.38
4950.92
3829.5
3463.36
4025
4951.28
3829.72
3463.59
4025.48
4952.24
3830.29
3463.91
4025.75
4954.44
3832.01
3464.64
4025.32
4983.55
3846.2
3466.51
4003.21
3201.09
3370.46
3053.77
2130.7
3207.35
3368.33
3042.29
2113.32
3205.3
3367.06
3041.45
2113.42
3204.28
3366.51
3041.06
2113.13
3203.73
3366.12
3040.71
2112.66
3203.42
3365.84
3040.38
2112.1
3203.27
3365.6
3040.06
2111.54
3203.24
3365.38
3039.76
2111.03
3203.32
3365.14
3039.46
2110.6
3203.69
3364.97
3039.25
2110.33
3203.69
3364.97
3039.25
2110.33
3203.32
3365.14
3039.46
2110.6
3203.24
3365.38
3039.76
2111.03
3203.27
3365.6
3040.06
2111.54
3203.42
3365.83
3040.38
2112.1
3203.73
3366.12
3040.71
2112.65
3204.28
3366.51
3041.06
2113.13
3205.29
3367.06
3041.44
2113.42
3207.35
3368.33
3042.29
2113.32
3201.09
3370.46
3053.77
2130.7
3521.28
3420.01
3101.82
2576.76
3527.19
3416.02
3089.96
2560.52
3526.25
3415.85
3089.48
2561.27
3525.92
3415.78
3089.47
2561.5
3525.77
3415.67
3089.42
2561.6
3525.72
3415.57
3089.34
2561.63
3525.78
3415.5
3089.25
2561.63
3525.96
3415.49
3089.18
2561.59
3526.34
3415.53
3089.11
2561.49
3527.24
3415.64
3089.05
2561.39
3527.24
3415.64
3089.05
2561.39
3526.34
3415.53
3089.11
2561.49
3525.96
3415.49
3089.18
2561.59
3525.78
3415.5
3089.25
2561.63
3525.72
3415.57
3089.34
2561.63
3525.77
3415.67
3089.42
2561.6
3525.92
3415.78
3089.47
2561.49
3526.25
3415.85
3089.48
2561.26
3527.19
3416.01
3089.96
2560.52
3521.28
3420
3101.82
2576.76
4604.6
4094.93
3706.02
3507.65
4601.91
4087.19
3696.42
3496.69
4601.03
4087.17
3696.26
3498.41
4600.97
4087.1
3696.24
3498.92
4601.2
4087.18
3696.31
3499.18
4601.62
4087.36
3696.41
3499.37
4602.14
4087.62
3696.52
3499.51
4602.74
4087.93
3696.64
3499.61
4603.46
4088.27
3696.75
3499.63
4604.59
4088.59
3696.81
3499.6
4604.59
4088.59
3696.81
3499.6
4603.46
4088.27
3696.75
3499.63
4602.74
4087.93
3696.64
3499.61
4602.14
4087.62
3696.52
3499.51
4601.61
4087.36
3696.4
3499.37
4601.2
4087.18
3696.31
3499.18
4600.96
4087.1
3696.24
3498.92
4601.02
4087.17
3696.26
3498.4
4601.91
4087.19
3696.42
3496.69
4604.6
4094.92
3706.02
3507.65
5342.62
4652.2
4205.16
4088.19
5336.74
4643.24
4196.51
4078.12
5335.99
4643.31
4196.42
4080.12
5336.08
4643.17
4196.2
4080.52
5336.6
4643.33
4196.2
4080.59
5337.4
4643.72
4196.32
4080.6
5338.34
4644.23
4196.49
4080.62
5339.32
4644.79
4196.7
4080.64
5340.32
4645.35
4196.89
4080.63
5341.57
4645.8
4197.01
4080.6
5341.57
4645.8
4197.01
4080.6
5340.32
4645.34
4196.89
4080.63
5339.32
4644.79
4196.7
4080.64
5338.34
4644.23
4196.49
4080.62
5337.4
4643.72
4196.32
4080.6
5336.6
4643.33
4196.2
4080.59
5336.08
4643.16
4196.2
4080.52
5335.98
4643.31
4196.41
4080.12
5336.73
4643.24
4196.51
4078.12
5342.61
4652.2
4205.16
4088.18
5519.63
4827.7
4371.78
4228.03
5514.63
4819.51
4363.57
4217.04
5514.22
4819.79
4363.45
4218.73
5514.58
4819.73
4363.09
4218.7
5515.39
4820.01
4362.98
4218.34
5516.51
4820.56
4363.01
4217.94
5517.77
4821.25
4363.14
4217.6
5519.05
4821.98
4363.33
4217.34
5520.28
4822.68
4363.53
4217.15
5521.61
4823.21
4363.66
4217.02
5521.61
4823.21
4363.66
4217.02
5520.28
4822.68
4363.53
4217.14
5519.05
4821.98
4363.33
4217.34
5517.77
4821.25
4363.14
4217.6
5516.51
4820.56
4363.01
4217.94
5515.38
4820.01
4362.98
4218.34
5514.58
4819.73
4363.09
4218.7
5514.22
4819.79
4363.45
4218.73
5514.63
4819.51
4363.57
4217.04
5519.63
4827.69
4371.78
4228.03
5158.79
4592.89
4179.99
3967.99
5157.26
4586.87
4172.31
3955.63
5157.27
4587.39
4172.11
3956.6
5157.95
4587.53
4171.69
3956.02
5159
4587.95
4171.47
3955.1
5160.34
4588.61
4171.39
3954.16
5161.81
4589.4
4171.41
3953.31
5163.28
4590.22
4171.51
3952.6
5164.66
4590.99
4171.63
3952.08
5166.01
4591.55
4171.73
3951.79
5166
4591.55
4171.73
3951.79
5164.66
4590.99
4171.63
3952.08
5163.28
4590.22
4171.51
3952.6
5161.81
4589.39
4171.41
3953.31
5160.33
4588.61
4171.39
3954.16
5158.99
4587.94
4171.47
3955.1
5157.94
4587.52
4171.69
3956.01
5157.27
4587.39
4172.1
3956.6
5157.25
4586.86
4172.3
3955.63
5158.79
4592.89
4179.99
3967.99
4385.87
4019.13
3689.08
3410.05
4389.16
4016.06
3682.39
3396.95
4389.57
4016.74
3682.07
3397.06
4390.51
4017.04
3681.62
3396.01
4391.7
4017.5
3681.28
3394.67
4393.11
4018.12
3681.03
3393.27
4394.63
4018.85
3680.87
3391.96
4396.14
4019.62
3680.79
3390.82
4397.55
4020.32
3680.78
3389.95
4398.83
4020.83
3680.8
3389.47
4398.83
4020.83
3680.8
3389.47
4397.55
4020.32
3680.78
3389.95
4396.14
4019.62
3680.79
3390.82
4394.63
4018.85
3680.86
3391.96
4393.11
4018.12
3681.02
3393.27
4391.7
4017.49
3681.27
3394.66
4390.5
4017.04
3681.62
3396.01
4389.57
4016.73
3682.06
3397.06
4389.16
4016.05
3682.38
3396.95
4385.86
4019.13
3689.08
3410.05
3427.85
3229.35
2993.62
2712.88
3434.98
3228.93
2988.72
2701.65
3435.64
3229.57
2988.26
2701.13
3436.7
3229.85
2987.74
2699.96
3437.91
3230.12
2987.2
2698.57
3439.25
3230.46
2986.68
2697.1
3440.66
3230.87
2986.22
2695.66
3442.04
3231.32
2985.85
2694.37
3443.32
3231.75
2985.59
2693.35
3444.4
3232.07
2985.47
2692.76
3444.4
3232.07
2985.47
2692.76
3443.32
3231.75
2985.59
2693.35
3442.04
3231.32
2985.85
2694.37
3440.65
3230.87
2986.22
2695.66
3439.25
3230.46
2986.68
2697.1
3437.91
3230.12
2987.2
2698.57
3436.7
3229.85
2987.74
2699.96
3435.63
3229.57
2988.26
2701.12
3434.98
3228.93
2988.72
2701.65
3427.84
3229.35
2993.62
2712.88
2570.5
2381.31
2211.62
2050.26
2577.13
2381.98
2209.37
2045.16
2577.71
2382.36
2208.81
2044.51
2578.68
2382.47
2208.23
2043.67
2579.75
2382.42
2207.51
2042.68
2580.89
2382.34
2206.72
2041.58
2582.05
2382.29
2205.95
2040.46
2583.16
2382.27
2205.27
2039.4
2584.14
2382.29
2204.74
2038.53
2584.92
2382.34
2204.45
2038.01
2584.92
2382.34
2204.44
2038.01
2584.14
2382.29
2204.74
2038.53
2583.16
2382.27
2205.27
2039.4
2582.05
2382.29
2205.95
2040.46
2580.89
2382.34
2206.72
2041.58
2579.75
2382.42
2207.51
2042.68
2578.68
2382.47
2208.23
2043.67
2577.71
2382.36
2208.81
2044.51
2577.13
2381.98
2209.37
2045.16
2570.5
2381.31
2211.61
2050.26
2000.74
1660.61
1497.56
1524.36
2002.38
1660.36
1498.13
1527.11
2002.55
1660.45
1497.63
1526.68
2003.15
1660.49
1497.2
1526.3
2003.88
1660.35
1496.58
1525.79
2004.66
1660.15
1495.86
1525.17
2005.44
1659.93
1495.12
1524.49
2006.17
1659.72
1494.42
1523.8
2006.78
1659.54
1493.85
1523.21
2007.22
1659.45
1493.53
1522.84
2007.22
1659.45
1493.53
1522.84
2006.78
1659.54
1493.85
1523.21
2006.17
1659.72
1494.42
1523.8
2005.44
1659.93
1495.12
1524.49
2004.65
1660.15
1495.86
1525.17
2003.88
1660.35
1496.58
1525.79
2003.15
1660.49
1497.2
1526.3
2002.55
1660.45
1497.63
1526.68
2002.37
1660.36
1498.13
1527.11
2000.74
1660.61
1497.56
1524.35
1652.76
1212.57
1010.55
1120.97
1650.51
1210.81
1012.3
1127.35
1650.29
1210.77
1012
1127
1650.44
1210.98
1011.97
1126.76
1650.72
1211.12
1011.85
1126.43
1651.05
1211.24
1011.66
1125.98
1651.39
1211.34
1011.43
1125.47
1651.73
1211.43
1011.2
1124.94
1652.03
1211.48
1010.99
1124.49
1652.26
1211.51
1010.86
1124.21
1652.26
1211.51
1010.86
1124.21
1652.03
1211.48
1010.99
1124.49
1651.73
1211.43
1011.2
1124.94
1651.39
1211.34
1011.43
1125.47
1651.04
1211.24
1011.66
1125.98
1650.72
1211.12
1011.85
1126.43
1650.44
1210.98
1011.97
1126.76
1650.29
1210.77
1012
1127
1650.5
1210.8
1012.3
1127.35
1652.76
1212.56
1010.55
1120.97
1359.69
998.941
784.293
796.128
1357.63
996.993
784.664
800.156
1357.32
996.972
784.469
799.628
1357.2
997.287
784.691
799.305
1357.16
997.605
784.944
798.945
1357.14
997.942
785.197
798.511
1357.15
998.29
785.437
798.034
1357.21
998.62
785.645
797.565
1357.32
998.885
785.794
797.172
1357.44
999.04
785.871
796.94
1357.44
999.04
785.871
796.94
1357.32
998.884
785.793
797.172
1357.21
998.619
785.644
797.565
1357.15
998.289
785.437
798.034
1357.13
997.94
785.196
798.511
1357.16
997.604
784.943
798.945
1357.2
997.286
784.69
799.305
1357.31
996.97
784.468
799.627
1357.63
996.991
784.663
800.155
1359.68
998.94
784.292
796.127
1078.76
860.267
682.487
573.955
1078.7
859.01
681.286
573.494
1078.5
858.996
681.063
572.914
1078.35
859.221
681.244
572.669
1078.2
859.435
681.485
572.503
1078.05
859.655
681.743
572.337
1077.93
859.887
682.002
572.158
1077.86
860.118
682.235
571.976
1077.88
860.318
682.414
571.816
1077.97
860.446
682.513
571.719
1077.97
860.446
682.513
571.719
1077.88
860.318
682.414
571.816
1077.86
860.118
682.234
571.976
1077.92
859.886
682.001
572.158
1078.05
859.654
681.743
572.337
1078.2
859.434
681.484
572.503
1078.34
859.22
681.243
572.669
1078.49
858.995
681.062
572.913
1078.7
859.008
681.285
573.494
1078.76
860.265
682.486
573.954
854.501
732.288
607.404
490.716
855.789
731.591
605.906
488.361
855.709
731.588
605.709
488.084
855.632
731.717
605.826
488.134
855.54
731.812
605.993
488.319
855.423
731.893
606.172
488.555
855.319
731.976
606.348
488.792
855.262
732.065
606.506
488.992
855.278
732.154
606.627
489.132
855.382
732.222
606.694
489.201
855.381
732.222
606.694
489.201
855.278
732.154
606.627
489.132
855.261
732.065
606.505
488.992
855.318
731.975
606.347
488.791
855.422
731.892
606.171
488.555
855.539
731.811
605.992
488.319
855.631
731.716
605.825
488.133
855.707
731.587
605.708
488.084
855.787
731.59
605.905
488.361
854.499
732.286
607.403
490.716
705.287
627.45
546.566
476.417
706.835
627.053
545.455
474.489
706.823
627.086
545.337
474.458
706.807
627.183
545.437
474.623
706.783
627.25
545.579
474.882
706.74
627.303
545.728
475.181
706.704
627.355
545.871
475.474
706.699
627.41
545.996
475.723
706.747
627.467
546.09
475.899
706.865
627.515
546.14
475.988
706.865
627.515
546.14
475.988
706.746
627.467
546.089
475.899
706.699
627.409
545.996
475.723
706.704
627.354
545.871
475.473
706.739
627.302
545.727
475.181
706.782
627.249
545.578
474.882
706.806
627.182
545.436
474.623
706.822
627.084
545.336
474.458
706.834
627.052
545.454
474.489
705.285
627.448
546.565
476.416
604.742
546.913
491.172
447.348
606.11
546.681
490.386
445.816
606.13
546.737
490.305
445.809
606.136
546.814
490.367
445.901
606.144
546.869
490.457
446.03
606.146
546.916
490.549
446.169
606.158
546.961
490.633
446.294
606.191
547.007
490.701
446.387
606.259
547.051
490.748
446.44
606.374
547.087
490.771
446.46
606.373
547.087
490.771
446.46
606.259
547.051
490.748
446.44
606.191
547.006
490.701
446.386
606.157
546.96
490.632
446.293
606.145
546.915
490.548
446.169
606.143
546.868
490.456
446.03
606.135
546.813
490.366
445.9
606.129
546.736
490.305
445.808
606.109
546.68
490.385
445.816
604.74
546.912
491.171
447.348
527.678
476.986
430.134
390.15
528.734
476.795
429.46
388.698
528.772
476.841
429.367
388.627
528.787
476.887
429.37
388.621
528.812
476.911
429.387
388.62
528.839
476.928
429.397
388.608
528.877
476.944
429.399
388.578
528.93
476.959
429.391
388.528
529.002
476.974
429.376
388.47
529.099
476.988
429.363
388.429
529.099
476.988
429.363
388.429
529.002
476.974
429.375
388.47
528.93
476.959
429.39
388.528
528.876
476.943
429.398
388.577
528.838
476.927
429.397
388.608
528.811
476.91
429.386
388.62
528.786
476.886
429.369
388.621
528.771
476.84
429.366
388.627
528.732
476.793
429.459
388.697
527.677
476.985
430.133
390.149
464.478
412.763
366.421
323.811
465.137
412.499
365.758
322.41
465.179
412.521
365.646
322.291
465.196
412.542
365.611
322.237
465.226
412.544
365.584
322.178
465.264
412.539
365.547
322.103
465.311
412.532
365.501
322.009
465.369
412.524
365.449
321.902
465.435
412.518
365.4
321.801
465.51
412.517
365.368
321.737
465.509
412.517
365.368
321.737
465.435
412.518
365.399
321.801
465.368
412.524
365.449
321.902
465.311
412.531
365.5
322.008
465.263
412.538
365.547
322.103
465.225
412.542
365.583
322.178
465.195
412.541
365.611
322.236
465.178
412.52
365.645
322.291
465.136
412.498
365.757
322.41
464.477
412.761
366.42
323.811
409.53
356.47
309.584
265.873
409.841
356.112
308.923
264.594
409.873
356.113
308.811
264.467
409.879
356.125
308.773
264.414
409.9
356.122
308.744
264.361
409.93
356.115
308.706
264.294
409.969
356.107
308.661
264.211
410.016
356.099
308.612
264.116
410.068
356.091
308.566
264.028
410.122
356.088
308.537
263.972
410.122
356.088
308.537
263.972
410.067
356.091
308.566
264.028
410.015
356.098
308.612
264.116
409.968
356.106
308.661
264.21
409.928
356.114
308.706
264.294
409.899
356.121
308.743
264.361
409.877
356.123
308.772
264.414
409.871
356.112
308.81
264.466
409.839
356.11
308.922
264.594
409.528
356.469
309.583
265.872
358.191
308.522
264.175
222.838
358.302
308.124
263.551
221.732
358.322
308.116
263.456
221.626
358.313
308.125
263.433
221.599
358.318
308.125
263.42
221.578
358.329
308.124
263.404
221.548
358.35
308.123
263.382
221.505
358.379
308.121
263.355
221.451
358.413
308.12
263.329
221.397
358.451
308.12
263.312
221.362
358.451
308.119
263.312
221.362
358.413
308.119
263.329
221.397
358.378
308.12
263.355
221.451
358.349
308.121
263.381
221.505
358.328
308.123
263.403
221.548
358.316
308.124
263.419
221.577
358.311
308.124
263.432
221.599
358.32
308.114
263.455
221.625
358.299
308.122
263.549
221.732
358.188
308.52
264.174
222.838
309.187
266.913
228.406
192.559
309.229
266.544
227.86
191.649
309.244
266.536
227.788
191.574
309.225
266.544
227.779
191.573
309.216
266.546
227.782
191.58
309.212
266.547
227.783
191.583
309.216
266.548
227.78
191.576
309.229
266.551
227.772
191.558
309.249
266.552
227.762
191.534
309.275
266.554
227.754
191.517
309.275
266.554
227.754
191.517
309.248
266.552
227.762
191.534
309.228
266.55
227.772
191.557
309.215
266.547
227.779
191.575
309.21
266.545
227.782
191.583
309.214
266.544
227.781
191.58
309.223
266.543
227.778
191.572
309.242
266.534
227.787
191.573
309.226
266.542
227.858
191.648
309.184
266.911
228.404
192.558
263.836
229.985
198.665
169.72
263.872
229.678
198.219
169.003
263.888
229.674
198.168
168.955
263.866
229.682
198.169
168.969
263.851
229.684
198.178
168.991
263.84
229.684
198.187
169.01
263.835
229.685
198.192
169.02
263.838
229.687
198.192
169.02
263.85
229.688
198.189
169.012
263.868
229.69
198.186
169.005
263.868
229.689
198.185
169.005
263.849
229.688
198.189
169.012
263.837
229.686
198.192
169.02
263.834
229.684
198.191
169.02
263.838
229.683
198.186
169.009
263.849
229.682
198.177
168.991
263.864
229.681
198.168
168.969
263.885
229.672
198.167
168.954
263.87
229.676
198.218
169.002
263.834
229.983
198.663
169.719
223.616
197.12
172.479
149.977
223.659
196.879
172.129
149.424
223.676
196.879
172.094
149.393
223.657
196.887
172.098
149.412
223.642
196.888
172.109
149.436
223.63
196.888
172.118
149.456
223.623
196.887
172.123
149.469
223.623
196.887
172.125
149.473
223.629
196.887
172.123
149.47
223.642
196.887
172.12
149.465
223.642
196.887
172.12
149.465
223.629
196.886
172.122
149.47
223.621
196.886
172.124
149.472
223.621
196.886
172.122
149.468
223.628
196.886
172.117
149.456
223.64
196.886
172.108
149.435
223.654
196.885
172.097
149.412
223.673
196.877
172.093
149.393
223.656
196.877
172.128
149.423
223.613
197.118
172.477
149.976
188.956
168.094
148.772
131.308
188.998
167.906
148.5
130.878
189.016
167.908
148.474
130.856
189
167.915
148.478
130.874
188.988
167.916
148.487
130.893
188.978
167.915
148.494
130.909
188.972
167.914
148.497
130.918
188.971
167.912
148.497
130.919
188.975
167.91
148.494
130.915
188.985
167.909
148.491
130.911
188.985
167.909
148.491
130.911
188.974
167.91
148.494
130.915
188.969
167.911
148.497
130.919
188.97
167.912
148.497
130.917
188.976
167.914
148.493
130.909
188.986
167.915
148.486
130.893
188.997
167.914
148.477
130.874
189.013
167.906
148.472
130.856
188.995
167.904
148.498
130.877
188.953
168.091
148.771
131.307
159.394
142.645
127.267
113.434
159.427
142.496
127.051
113.092
159.444
142.498
127.031
113.075
159.431
142.504
127.035
113.09
159.422
142.505
127.041
113.104
159.414
142.503
127.046
113.114
159.409
142.501
127.047
113.118
159.408
142.499
127.044
113.116
159.411
142.496
127.04
113.111
159.418
142.494
127.037
113.106
159.418
142.494
127.037
113.105
159.41
142.495
127.04
113.11
159.406
142.498
127.044
113.116
159.407
142.5
127.046
113.118
159.411
142.502
127.045
113.114
159.419
142.503
127.04
113.104
159.428
142.503
127.034
113.089
159.44
142.496
127.03
113.075
159.423
142.494
127.05
113.091
159.391
142.643
127.266
113.433
134.144
120.449
107.984
96.7788
134.164
120.326
107.81
96.5027
134.179
120.329
107.793
96.4886
134.169
120.333
107.796
96.5
134.161
120.333
107.8
96.5103
134.155
120.332
107.803
96.5168
134.15
120.329
107.802
96.5179
134.149
120.326
107.799
96.5142
134.151
120.323
107.795
96.508
134.156
120.321
107.791
96.5029
134.156
120.321
107.791
96.5029
134.15
120.322
107.794
96.5079
134.148
120.325
107.799
96.5141
134.148
120.328
107.802
96.5178
134.152
120.33
107.802
96.5166
134.158
120.332
107.8
96.5101
134.165
120.331
107.795
96.4998
134.175
120.326
107.792
96.4883
134.16
120.324
107.808
96.5023
134.14
120.447
107.983
96.7783
112.482
101.181
90.9606
81.7717
112.492
101.078
90.8174
81.5469
112.505
101.08
90.8038
81.535
112.496
101.083
90.8054
81.5442
112.489
101.083
90.8089
81.5521
112.483
101.081
90.8103
81.5566
112.479
101.078
90.8091
81.5566
112.478
101.075
90.8058
81.5527
112.479
101.072
90.8015
81.5469
112.483
101.07
90.7981
81.5425
112.482
101.07
90.798
81.5425
112.478
101.072
90.8011
81.5469
112.476
101.074
90.8053
81.5527
112.477
101.077
90.8084
81.5565
112.48
101.079
90.8095
81.5565
112.486
101.081
90.808
81.552
112.492
101.081
90.8043
81.544
112.501
101.077
90.8026
81.5347
112.488
101.076
90.8161
81.5466
112.478
101.179
90.9592
81.7714
93.8737
84.5445
76.1425
68.5976
93.8765
84.4582
76.0249
68.4148
93.8867
84.459
76.0136
68.4049
93.8786
84.4616
76.0148
68.4126
93.8725
84.4609
76.0175
68.419
93.8672
84.4591
76.0183
68.4226
93.8635
84.4565
76.0171
68.4225
93.8616
84.4536
76.0142
68.4193
93.8619
84.4507
76.0104
68.4145
93.8643
84.4485
76.0074
68.4108
93.8639
84.4483
76.0073
68.4108
93.8607
84.4499
76.01
68.4144
93.8598
84.4525
76.0136
68.4192
93.861
84.455
76.0164
68.4225
93.8642
84.4573
76.0175
68.4226
93.869
84.4589
76.0165
68.419
93.8748
84.4593
76.0137
68.4125
93.8825
84.4565
76.0124
68.4048
93.8721
84.4555
76.0236
68.4146
93.8692
84.5417
76.1411
68.5973
77.9381
70.2716
63.3865
57.2215
77.937
70.1998
63.2902
57.0737
77.9453
70.2002
63.2811
57.0658
77.9381
70.2021
63.282
57.0723
77.9324
70.2012
63.2841
57.0778
77.9275
70.1994
63.2848
57.0808
77.9239
70.197
63.2837
57.0809
77.9218
70.1943
63.2812
57.0784
77.9214
70.1916
63.278
57.0746
77.923
70.1897
63.2755
57.0717
77.9225
70.1894
63.2754
57.0717
77.9202
70.1908
63.2776
57.0746
77.9198
70.1931
63.2806
57.0784
77.9212
70.1954
63.2829
57.0809
77.9242
70.1974
63.2839
57.0809
77.9287
70.199
63.2831
57.0778
77.9339
70.1996
63.2808
57.0724
77.9408
70.1975
63.2798
57.0658
77.9324
70.1969
63.2889
57.0737
77.9333
70.2687
63.3851
57.2214
64.3799
58.1135
52.4991
47.4921
64.3771
58.0542
52.4207
47.3731
64.3837
58.0544
52.4133
47.3669
64.3774
58.0557
52.4141
47.3724
64.3723
58.0548
52.4158
47.377
64.3678
58.053
52.4163
47.3797
64.3644
58.0508
52.4153
47.3799
64.3622
58.0484
52.4132
47.378
64.3615
58.046
52.4106
47.375
64.3624
58.0442
52.4085
47.3727
64.3619
58.0439
52.4084
47.3727
64.3601
58.0451
52.4102
47.375
64.3601
58.0471
52.4126
47.378
64.3615
58.0491
52.4146
47.38
64.3643
58.0509
52.4153
47.3798
64.3683
58.0524
52.4147
47.3772
64.373
58.0531
52.4129
47.3726
64.379
58.0515
52.412
47.367
64.3722
58.0511
52.4193
47.3732
64.3748
58.1103
52.4976
47.4922
52.9346
47.8325
43.2727
39.2239
52.9313
47.784
43.2092
39.1283
52.9367
47.7842
43.2033
39.1234
52.9312
47.7851
43.2039
39.1281
52.9267
47.7841
43.2052
39.1319
52.9226
47.7825
43.2056
39.1341
52.9195
47.7805
43.2047
39.1343
52.9174
47.7783
43.2029
39.1328
52.9165
47.7761
43.2007
39.1304
52.917
47.7746
43.199
39.1286
52.9165
47.7743
43.1988
39.1286
52.9151
47.7753
43.2003
39.1305
52.9151
47.7769
43.2023
39.1329
52.9165
47.7787
43.2039
39.1345
52.919
47.7803
43.2046
39.1343
52.9225
47.7816
43.2041
39.1322
52.9265
47.7822
43.2027
39.1283
52.9316
47.7811
43.2019
39.1236
52.9261
47.7808
43.2078
39.1286
52.9292
47.8292
43.2712
39.2241
43.3467
39.201
35.5056
32.2377
43.3435
39.1614
35.4543
32.161
43.3477
39.1615
35.4495
32.1571
43.3431
39.1621
35.45
32.161
43.3392
39.1612
35.451
32.1641
43.3357
39.1598
35.4512
32.1658
43.3329
39.158
35.4504
32.1659
43.3309
39.156
35.4489
32.1647
43.33
39.1541
35.447
32.1627
43.3302
39.1527
35.4455
32.1613
43.3297
39.1524
35.4454
32.1613
43.3285
39.1532
35.4466
32.1629
43.3286
39.1546
35.4483
32.1649
43.3298
39.156
35.4497
32.1662
43.3319
39.1574
35.4503
32.1661
43.3348
39.1586
35.4499
32.1644
43.3382
39.1592
35.4488
32.1613
43.3425
39.1583
35.4482
32.1574
43.338
39.158
35.4528
32.1613
43.3411
39.1975
35.504
32.238
35.3686
32.002
29.009
26.3714
35.3657
31.9698
28.9676
26.3097
35.3691
31.9698
28.9637
26.3066
35.3651
31.9703
28.9641
26.3098
35.3618
31.9695
28.9649
26.3122
35.3588
31.9681
28.965
26.3136
35.3564
31.9666
28.9642
26.3136
35.3547
31.9649
28.9629
26.3126
35.3538
31.9632
28.9613
26.311
35.3538
31.962
28.9601
26.3098
35.3533
31.9617
28.9599
26.3098
35.3523
31.9623
28.9609
26.3111
35.3523
31.9634
28.9623
26.3128
35.3533
31.9646
28.9635
26.3139
35.355
31.9658
28.964
26.314
35.3574
31.9667
28.9638
26.3126
35.3602
31.9673
28.9629
26.3102
35.3637
31.9666
28.9624
26.307
35.3601
31.9664
28.9661
26.3101
35.3629
31.9984
29.0075
26.3718
28.7677
26.0337
23.6092
21.4784
28.765
26.0076
23.5756
21.4286
28.7677
26.0075
23.5725
21.4261
28.7645
26.0079
23.5728
21.4287
28.7617
26.0071
23.5734
21.4307
28.7592
26.006
23.5734
21.4317
28.7571
26.0046
23.5727
21.4316
28.7556
26.0031
23.5716
21.4307
28.7547
26.0017
23.5702
21.4294
28.7546
26.0006
23.5691
21.4284
28.7541
26.0003
23.569
21.4284
28.7533
26.0008
23.5698
21.4295
28.7532
26.0017
23.571
21.431
28.754
26.0027
23.5719
21.432
28.7553
26.0036
23.5724
21.4321
28.7573
26.0044
23.5723
21.4311
28.7595
26.0048
23.5716
21.4291
28.7625
26.0043
23.5712
21.4265
28.7595
26.0042
23.5742
21.4291
28.762
26.0302
23.6077
21.4788
23.3325
21.1122
19.1474
17.4244
23.3301
21.0909
19.1202
17.3842
23.3322
21.0909
19.1177
17.3822
23.3295
21.0911
19.1179
17.3843
23.3272
21.0904
19.1183
17.3858
23.3251
21.0894
19.1182
17.3866
23.3233
21.0883
19.1176
17.3865
23.322
21.087
19.1167
17.3857
23.3213
21.0858
19.1155
17.3846
23.3211
21.0849
19.1146
17.3838
23.3206
21.0846
19.1145
17.3838
23.3199
21.085
19.1152
17.3847
23.3198
21.0857
19.1161
17.3859
23.3203
21.0864
19.1169
17.3868
23.3214
21.0872
19.1173
17.387
23.3229
21.0878
19.1173
17.3862
23.3248
21.0882
19.1167
17.3847
23.3272
21.0878
19.1164
17.3826
23.3248
21.0877
19.1189
17.3846
23.327
21.1088
19.1459
17.4248
18.8758
17.0732
15.4807
14.0866
18.8738
17.0559
15.4587
14.0541
18.8754
17.0559
15.4566
14.0525
18.8731
17.056
15.4567
14.0541
18.8712
17.0554
15.457
14.0554
18.8694
17.0546
15.4569
14.0559
18.868
17.0536
15.4564
14.0558
18.8669
17.0525
15.4556
14.0552
18.8662
17.0515
15.4546
14.0542
18.8661
17.0507
15.4539
14.0536
18.8656
17.0504
15.4538
14.0536
18.8649
17.0507
15.4543
14.0544
18.8648
17.0512
15.4551
14.0554
18.8652
17.0519
15.4558
14.0561
18.866
17.0525
15.4561
14.0563
18.8673
17.053
15.4561
14.0557
18.8688
17.0533
15.4556
14.0545
18.8707
17.053
15.4554
14.0528
18.8688
17.0529
15.4574
14.0545
18.8708
17.0701
15.4794
14.0869
15.2354
13.7726
12.482
11.3539
15.2337
13.7586
12.4642
11.3275
15.2349
13.7585
12.4625
11.3262
15.233
13.7586
12.4626
11.3276
15.2314
13.7581
12.4628
11.3285
15.2299
13.7573
12.4627
11.329
15.2287
13.7565
12.4622
11.3288
15.2277
13.7556
12.4615
11.3283
15.2272
13.7548
12.4607
11.3275
15.227
13.7541
12.4601
11.327
15.2266
13.7539
12.46
11.327
15.226
13.7541
12.4605
11.3276
15.2258
13.7545
12.4611
11.3285
15.2261
13.755
12.4616
11.3291
15.2268
13.7555
12.4619
11.3292
15.2278
13.7559
12.4619
11.3288
15.2291
13.7562
12.4616
11.3278
15.2307
13.756
12.4614
11.3265
15.2292
13.7559
12.4631
11.3278
15.2308
13.7699
12.4808
11.3541
12.272
11.0858
10.0402
9.1272
12.2705
11.0744
10.0257
9.1059
12.2715
11.0743
10.0243
9.10484
12.2699
11.0743
10.0244
9.1059
12.2685
11.0739
10.0245
9.10665
12.2672
11.0732
10.0244
9.10699
12.2662
11.0725
10.024
9.10688
12.2654
11.0718
10.0234
9.10641
12.2648
11.071
10.0228
9.10579
12.2647
11.0705
10.0223
9.10534
12.2643
11.0703
10.0222
9.10538
12.2638
11.0704
10.0226
9.10589
12.2637
11.0708
10.0231
9.10656
12.2639
11.0712
10.0235
9.10706
12.2645
11.0717
10.0238
9.10718
12.2654
11.072
10.0238
9.10683
12.2664
11.0723
10.0235
9.10605
12.2678
11.0721
10.0234
9.10497
12.2667
11.0721
10.0247
9.10602
12.268
11.0835
10.0392
9.1273
9.86732
8.90604
8.0592
7.3204
9.86614
8.89679
8.04748
7.30314
9.86682
8.89667
8.04635
7.30229
9.86543
8.89663
8.04636
7.30314
9.86423
8.89622
8.04646
7.30374
9.86313
8.89566
8.04634
7.30401
9.86221
8.89505
8.046
7.30392
9.86151
8.89442
8.04551
7.30353
9.86105
8.89382
8.04497
7.30303
9.86088
8.89336
8.04456
7.30266
9.86057
8.89319
8.0445
7.30269
9.86015
8.89332
8.04478
7.30309
9.86007
8.89362
8.0452
7.30363
9.86031
8.89398
8.04558
7.30402
9.86082
8.89437
8.0458
7.30411
9.86159
8.89473
8.04582
7.30381
9.86252
8.89498
8.04564
7.30317
9.86369
8.89489
8.04556
7.30229
9.86287
8.89494
8.04665
7.30313
9.86398
8.90415
8.05834
7.32037
7.92169
7.14301
6.45732
5.85943
7.92072
7.1355
6.44782
5.84545
7.92118
7.13537
6.44689
5.84477
7.91997
7.1353
6.44688
5.84546
7.91891
7.13492
6.44694
5.84594
7.91794
7.13442
6.44682
5.84615
7.91713
7.13389
6.44653
5.84607
7.9165
7.13336
6.44613
5.84576
7.91609
7.13285
6.44568
5.84534
7.91593
7.13247
6.44535
5.84504
7.91566
7.13233
6.44529
5.84506
7.91532
7.13244
6.44552
5.84538
7.91528
7.13271
6.44587
5.84579
7.91552
7.13303
6.44617
5.84609
7.91599
7.13338
6.44637
5.84614
7.91669
7.13372
6.44639
5.84588
7.91752
7.13397
6.44626
5.84535
7.91855
7.13395
6.44621
5.84463
7.91798
7.13403
6.4471
5.84529
7.91888
7.14151
6.45659
5.85925
6.35146
5.72085
5.16566
4.6817
6.35066
5.71476
5.15796
4.67037
6.35095
5.71461
5.1572
4.66983
6.34989
5.71451
5.15718
4.67038
6.34895
5.71416
5.1572
4.67076
6.34808
5.71371
5.15708
4.67093
6.34735
5.71325
5.15683
4.67086
6.34679
5.71279
5.15649
4.6706
6.34641
5.71237
5.15612
4.67026
6.34626
5.71205
5.15585
4.67
6.34603
5.71194
5.1558
4.67
6.34575
5.71203
5.15598
4.67024
6.34574
5.71226
5.15626
4.67056
6.34598
5.71255
5.15651
4.67078
6.34642
5.71287
5.15667
4.67079
6.34706
5.71319
5.15671
4.67056
6.34782
5.71345
5.15661
4.67011
6.34873
5.71347
5.15658
4.6695
6.34835
5.71357
5.15731
4.67002
6.3491
5.71965
5.16501
4.68133
5.08698
4.5763
4.12673
3.73481
5.08632
4.57136
4.12048
3.72562
5.08647
4.57121
4.11984
3.72519
5.08554
4.57108
4.11981
3.72563
5.08469
4.57075
4.11981
3.72593
5.08391
4.57035
4.11969
3.72605
5.08326
4.56993
4.11947
3.72598
5.08275
4.56954
4.11918
3.72576
5.08241
4.56918
4.11887
3.72547
5.08226
4.56891
4.11864
3.72525
5.08206
4.56881
4.11859
3.72523
5.08182
4.56889
4.11873
3.72541
5.08182
4.56908
4.11895
3.72564
5.08205
4.56934
4.11915
3.72579
5.08246
4.56963
4.11928
3.72577
5.08304
4.56992
4.11931
3.72555
5.08372
4.57017
4.11924
3.72516
5.08453
4.57023
4.11922
3.72465
5.0843
4.57035
4.11982
3.72505
5.08492
4.57529
4.12607
3.73422
4.07057
3.65698
3.29284
2.9753
4.07002
3.65296
3.28777
2.96784
4.07007
3.65281
3.28724
2.96749
4.06924
3.65267
3.28719
2.96783
4.06848
3.65236
3.28717
2.96806
4.06778
3.65199
3.28705
2.96814
4.06719
3.65162
3.28685
2.96806
4.06672
3.65127
3.28659
2.96787
4.06641
3.65096
3.28632
2.96761
4.06626
3.65073
3.28612
2.96742
4.06607
3.65063
3.28607
2.96738
4.06586
3.65069
3.28617
2.9675
4.06585
3.65084
3.28633
2.96766
4.06605
3.65105
3.28648
2.96775
4.06642
3.65131
3.28658
2.9677
4.06694
3.65157
3.2866
2.96749
4.06754
3.6518
3.28655
2.96715
4.06825
3.65188
3.28653
2.96672
4.06813
3.65201
3.28703
2.96702
4.06865
3.65602
3.2921
2.97447
3.25476
2.91979
2.62478
2.36735
3.25429
2.91652
2.62065
2.36129
3.25426
2.91636
2.62021
2.361
3.25353
2.91621
2.62014
2.36125
3.25285
2.91591
2.62009
2.36141
3.25222
2.91557
2.61996
2.36145
3.25168
2.91524
2.61977
2.36137
3.25125
2.91492
2.61954
2.36118
3.25095
2.91464
2.61931
2.36096
3.25079
2.91443
2.61912
2.36078
3.2506
2.91433
2.61906
2.36072
3.25039
2.91435
2.61912
2.36079
3.25037
2.91446
2.61923
2.36089
3.25052
2.91463
2.61933
2.36093
3.25084
2.91484
2.6194
2.36086
3.25128
2.91507
2.61941
2.36066
3.25181
2.91527
2.61936
2.36036
3.25242
2.91536
2.61935
2.36
3.25237
2.91548
2.61975
2.36023
3.2528
2.91874
2.62387
2.36627
2.60074
2.32946
2.09041
1.88162
2.60033
2.3268
2.08705
1.87669
2.60026
2.32664
2.08667
1.87644
2.59961
2.32648
2.08659
1.87662
2.599
2.3262
2.08651
1.87671
2.59843
2.32588
2.08637
1.87671
2.59794
2.32557
2.08619
1.87661
2.59754
2.32528
2.08597
1.87644
2.59724
2.32501
2.08575
1.87623
2.59706
2.32481
2.08557
1.87605
2.59685
2.32469
2.08549
1.87598
2.59663
2.32467
2.08551
1.87601
2.59658
2.32473
2.08558
1.87606
2.59668
2.32485
2.08564
1.87606
2.59692
2.32501
2.08567
1.87598
2.59729
2.32519
2.08567
1.8758
2.59773
2.32536
2.08562
1.87553
2.59824
2.32544
2.08561
1.87523
2.59823
2.32555
2.08593
1.8754
2.59858
2.32821
2.08928
1.88031
2.07697
1.85732
1.66359
1.49418
2.07662
1.85515
1.66085
1.49016
2.07651
1.85499
1.66051
1.48994