/*--------------------------------*- C++ -*----------------------------------*\
| =========                 |                                                 |
| \\      /  F ield         | foam-extend: Open Source CFD                    |
|  \\    /   O peration     | Version:     3.1                                |
|   \\  /    A nd           | Web:         http://www.extend-project.de       |
|    \\/     M anipulation  |                                                 |
\*---------------------------------------------------------------------------*/
FoamFile
{
    version     2.0;
    format      ascii;
    class       volVectorField;
    location    "0.0011";
    object      U;
}
// * * * * * * * * * * * * * * * * * * * * * * * * * * * * * * * * * * * * * //

dimensions      [0 1 -1 0 0 0 0];

internalField   nonuniform List<vector> 
6400
(
(0.000868897 2.12219e-05 0.00207236)
(0.000399013 5.02407e-06 0.000750463)
(0.000333965 2.04209e-06 -0.000390992)
(0.000645745 1.17061e-05 -0.00165197)
(0.000857153 9.41256e-05 0.00207689)
(0.000393153 4.03461e-05 0.000756026)
(0.000331134 3.28895e-05 -0.000385226)
(0.000644477 6.89462e-05 -0.00164669)
(0.000845753 0.000164329 0.00207694)
(0.000387757 7.32965e-05 0.000756581)
(0.000326794 6.07824e-05 -0.000384738)
(0.000636563 0.000121654 -0.00164669)
(0.000829852 0.000232248 0.00207687)
(0.000380617 0.000105171 0.000756389)
(0.000320955 8.77347e-05 -0.000385121)
(0.000625151 0.000172755 -0.00164743)
(0.000808896 0.000297803 0.00207699)
(0.000371106 0.00013587 0.000756249)
(0.000313085 0.000113847 -0.000385512)
(0.000609785 0.000222621 -0.00164817)
(0.000782719 0.000360718 0.00207722)
(0.000358948 0.000165134 0.000756262)
(0.000302831 0.000138831 -0.000385728)
(0.0005901 0.000270836 -0.00164865)
(0.000751423 0.000420777 0.00207744)
(0.000344195 0.000192774 0.000756395)
(0.000290246 0.000162393 -0.000385755)
(0.000566223 0.000316835 -0.0016488)
(0.000715363 0.000477878 0.00207761)
(0.000327179 0.000218764 0.000756582)
(0.000275706 0.000184418 -0.000385648)
(0.000538666 0.000360244 -0.00164868)
(0.000675008 0.000531974 0.0020777)
(0.000308319 0.000243203 0.000756757)
(0.000259673 0.000204986 -0.000385497)
(0.000508033 0.000400968 -0.00164845)
(0.000630777 0.000582993 0.00207774)
(0.000287942 0.000266229 0.000756867)
(0.000242484 0.000224277 -0.000385389)
(0.000474774 0.000439093 -0.00164828)
(0.000582986 0.000630776 0.00207774)
(0.000266226 0.000287941 0.000756867)
(0.000224278 0.000242481 -0.000385389)
(0.000439098 0.000474768 -0.00164828)
(0.000531961 0.000674999 0.00207771)
(0.000243197 0.000308313 0.000756757)
(0.000204985 0.000259667 -0.000385497)
(0.000400971 0.000508025 -0.00164845)
(0.00047786 0.000715346 0.00207761)
(0.000218755 0.000327167 0.000756582)
(0.000184416 0.000275697 -0.000385649)
(0.000360247 0.000538657 -0.00164868)
(0.000420756 0.000751396 0.00207745)
(0.000192763 0.000344178 0.000756396)
(0.000162389 0.000290234 -0.000385756)
(0.000316837 0.000566212 -0.00164881)
(0.000360696 0.000782684 0.00207722)
(0.000165122 0.000358926 0.000756263)
(0.000138827 0.000302816 -0.00038573)
(0.000270838 0.000590089 -0.00164866)
(0.000297782 0.000808853 0.00207699)
(0.000135859 0.00037108 0.00075625)
(0.000113843 0.000313068 -0.000385513)
(0.000222623 0.000609774 -0.00164818)
(0.000232229 0.000829803 0.00207687)
(0.000105162 0.000380588 0.00075639)
(8.77312e-05 0.000320937 -0.000385123)
(0.000172757 0.00062514 -0.00164744)
(0.000164315 0.000845698 0.00207695)
(7.32888e-05 0.000387724 0.000756582)
(6.07797e-05 0.000326775 -0.00038474)
(0.000121655 0.000636553 -0.0016467)
(9.41164e-05 0.000857094 0.0020769)
(4.03411e-05 0.000393119 0.000756028)
(3.28877e-05 0.000331113 -0.000385229)
(6.89471e-05 0.000644466 -0.0016467)
(2.12185e-05 0.000868836 0.00207237)
(5.02218e-06 0.000398977 0.000750465)
(2.04131e-06 0.000333944 -0.000390995)
(1.17062e-05 0.000645734 -0.00165198)
(0.00858964 0.000324758 0.00604351)
(0.0079458 0.000302632 0.00228992)
(0.00773067 0.000294098 -0.00129973)
(0.00791819 0.000299412 -0.00494617)
(0.00852773 0.00100083 0.0060425)
(0.00789153 0.000926808 0.00228893)
(0.00768201 0.000901647 -0.00130097)
(0.00787258 0.000922731 -0.00494758)
(0.00842172 0.0016714 0.00604191)
(0.00779409 0.00154578 0.00228802)
(0.00758799 0.00150353 -0.00130237)
(0.00777704 0.00153938 -0.00494962)
(0.00826601 0.00233081 0.00604222)
(0.00765064 0.00215565 0.00228741)
(0.00744881 0.0020969 -0.00130383)
(0.00763477 0.00214722 -0.00495207)
(0.00805958 0.00297462 0.00604325)
(0.00746004 0.00275184 0.00228735)
(0.00726359 0.00267753 -0.0013049)
(0.00744512 0.00274251 -0.00495427)
(0.00780238 0.00359855 0.00604469)
(0.0072221 0.00333001 0.0022878)
(0.00703205 0.00324101 -0.00130541)
(0.00720781 0.00332067 -0.00495578)
(0.00749559 0.00419881 0.00604621)
(0.00693794 0.00388624 0.00228859)
(0.0067553 0.00378322 -0.00130538)
(0.00692408 0.00387715 -0.00495648)
(0.00714156 0.00477218 0.00604754)
(0.00660995 0.0044173 0.00228948)
(0.00643579 0.00430077 -0.001305)
(0.00659655 0.00440821 -0.0049565)
(0.00674334 0.00531588 0.00604852)
(0.00624118 0.00492056 0.00229026)
(0.00607665 0.00479098 -0.0013045)
(0.00622849 0.00491097 -0.0049562)
(0.00630418 0.00582736 0.00604906)
(0.00583477 0.00539374 0.00229074)
(0.00568101 0.0052517 -0.00130417)
(0.00582312 0.00538323 -0.00495592)
(0.00582734 0.00630418 0.00604906)
(0.00539373 0.00583477 0.00229074)
(0.0052517 0.00568101 -0.00130417)
(0.00538323 0.00582312 -0.00495592)
(0.00531585 0.00674332 0.00604852)
(0.00492054 0.00624117 0.00229026)
(0.00479097 0.00607665 -0.00130451)
(0.00491097 0.00622849 -0.00495621)
(0.00477214 0.00714152 0.00604754)
(0.00441728 0.00660994 0.00228948)
(0.00430075 0.00643579 -0.001305)
(0.00440821 0.00659654 -0.00495652)
(0.00419876 0.00749553 0.00604621)
(0.00388621 0.00693792 0.00228858)
(0.00378321 0.00675528 -0.0013054)
(0.00387715 0.00692407 -0.0049565)
(0.0035985 0.0078023 0.00604469)
(0.00332998 0.00722206 0.00228779)
(0.003241 0.00703203 -0.00130543)
(0.00332066 0.0072078 -0.00495581)
(0.00297457 0.00805948 0.00604325)
(0.00275182 0.00745999 0.00228734)
(0.00267752 0.00726358 -0.00130492)
(0.00274251 0.00744512 -0.0049543)
(0.00233076 0.0082659 0.00604223)
(0.00215562 0.00765058 0.00228741)
(0.00209689 0.00744879 -0.00130385)
(0.00214722 0.00763476 -0.0049521)
(0.00167136 0.0084216 0.00604192)
(0.00154576 0.00779404 0.00228801)
(0.00150353 0.00758797 -0.00130239)
(0.00153938 0.00777704 -0.00494966)
(0.00100081 0.0085276 0.00604251)
(0.000926797 0.00789147 0.00228892)
(0.000901642 0.00768199 -0.001301)
(0.000922732 0.00787258 -0.00494762)
(0.00032475 0.0085895 0.00604352)
(0.000302628 0.00794574 0.00228991)
(0.000294096 0.00773065 -0.00129975)
(0.000299412 0.0079182 -0.00494622)
(0.0216174 0.000837393 0.00907035)
(0.0208178 0.00081001 0.00330859)
(0.0203924 0.000793408 -0.00228206)
(0.0203158 0.000788907 -0.00789607)
(0.021477 0.00253643 0.00906611)
(0.020685 0.00244346 0.00330353)
(0.0202655 0.00239284 -0.00228774)
(0.0201927 0.00238213 -0.00790169)
(0.0212144 0.00422112 0.00906425)
(0.0204328 0.00406324 0.00330044)
(0.0200192 0.00397827 -0.00229178)
(0.019948 0.00396071 -0.00790655)
(0.0208242 0.00587907 0.00906468)
(0.020058 0.00565918 0.0032991)
(0.0196527 0.00554107 -0.00229462)
(0.0195834 0.00551719 -0.00791105)
(0.0203058 0.00749936 0.00906672)
(0.0195595 0.00722019 0.00329915)
(0.0191649 0.00707068 -0.00229634)
(0.0190976 0.0070416 -0.0079147)
(0.0196603 0.0090714 0.00906968)
(0.0189381 0.00873551 0.00330021)
(0.0185562 0.00855625 -0.00229703)
(0.0184911 0.0085229 -0.00791724)
(0.0188908 0.0105854 0.00907288)
(0.0181967 0.0101951 0.00330182)
(0.0178297 0.00998746 -0.00229691)
(0.0177669 0.00995029 -0.00791865)
(0.0180025 0.0120327 0.00907579)
(0.0173407 0.0115901 0.00330355)
(0.0169908 0.0113552 -0.0022963)
(0.0169306 0.0113142 -0.00791915)
(0.0170021 0.0134052 0.00907801)
(0.0163768 0.0129125 0.00330503)
(0.0160462 0.0126515 -0.00229558)
(0.0159893 0.0126066 -0.00791911)
(0.0158971 0.0146956 0.00907926)
(0.0153126 0.0141555 0.0033059)
(0.0150034 0.0138697 -0.00229509)
(0.0149502 0.0138206 -0.00791895)
(0.0146955 0.0158971 0.00907926)
(0.0141555 0.0153126 0.0033059)
(0.0138697 0.0150034 -0.00229509)
(0.0138206 0.0149502 -0.00791895)
(0.0134051 0.017002 0.00907801)
(0.0129125 0.0163768 0.00330502)
(0.0126515 0.0160462 -0.00229559)
(0.0126066 0.0159893 -0.00791912)
(0.0120326 0.0180024 0.00907579)
(0.01159 0.0173406 0.00330354)
(0.0113552 0.0169907 -0.00229632)
(0.0113142 0.0169306 -0.00791916)
(0.0105853 0.0188907 0.00907288)
(0.010195 0.0181966 0.00330181)
(0.00998743 0.0178297 -0.00229693)
(0.00995028 0.0177668 -0.00791867)
(0.0090713 0.0196602 0.00906967)
(0.00873545 0.018938 0.00330019)
(0.00855622 0.0185562 -0.00229705)
(0.00852288 0.018491 -0.00791727)
(0.00749927 0.0203057 0.00906672)
(0.00722014 0.0195594 0.00329914)
(0.00707065 0.0191649 -0.00229637)
(0.00704158 0.0190976 -0.00791475)
(0.00587899 0.020824 0.00906467)
(0.00565913 0.0200579 0.00329908)
(0.00554104 0.0196527 -0.00229466)
(0.00551718 0.0195834 -0.0079111)
(0.00422106 0.0212142 0.00906425)
(0.0040632 0.0204327 0.00330042)
(0.00397825 0.0200192 -0.00229182)
(0.0039607 0.019948 -0.00790661)
(0.00253639 0.0214767 0.00906611)
(0.00244344 0.0206848 0.00330351)
(0.00239283 0.0202655 -0.00228778)
(0.00238212 0.0201926 -0.00790175)
(0.000837379 0.0216172 0.00907035)
(0.000810002 0.0208177 0.00330856)
(0.000793404 0.0203924 -0.0022821)
(0.000788906 0.0203158 -0.00789613)
(0.0395193 0.00154276 0.0109496)
(0.0385014 0.00150688 0.00362908)
(0.0377967 0.0014795 -0.00347174)
(0.0373788 0.00146324 -0.0106077)
(0.0392713 0.00464809 0.0109426)
(0.0382614 0.00452795 0.00362098)
(0.0375632 0.00444351 -0.00348069)
(0.0371502 0.00439215 -0.0106166)
(0.0387939 0.00772673 0.0109394)
(0.0377973 0.00752361 0.00361619)
(0.0371084 0.00738193 -0.00348665)
(0.0367015 0.00729553 -0.0106235)
(0.0380821 0.0107572 0.0109399)
(0.0371053 0.0104747 0.00361439)
(0.03643 0.0102778 -0.00349028)
(0.0360313 0.0101581 -0.0106292)
(0.0371361 0.0137198 0.0109429)
(0.0361848 0.0133617 0.00361482)
(0.0355271 0.0131122 -0.00349205)
(0.0351387 0.0129614 -0.0106335)
(0.0359583 0.0165957 0.0109474)
(0.0350378 0.0161653 0.00361671)
(0.0344013 0.0158658 -0.00349243)
(0.0340252 0.0156861 -0.0106363)
(0.0345546 0.0193668 0.0109523)
(0.03367 0.0188672 0.00361931)
(0.0330582 0.0185201 -0.00349189)
(0.0326965 0.0183131 -0.0106379)
(0.0329339 0.0220165 0.0109568)
(0.0320903 0.0214506 0.00362198)
(0.031507 0.021058 -0.00349089)
(0.0311617 0.0208247 -0.0106387)
(0.0311075 0.0245293 0.0109603)
(0.0303104 0.0239002 0.0036242)
(0.029759 0.0234641 -0.00348985)
(0.0294325 0.0232055 -0.0106388)
(0.0290885 0.026891 0.0109623)
(0.028343 0.0262019 0.0036255)
(0.0278271 0.0257246 -0.00348918)
(0.0275215 0.0254418 -0.0106387)
(0.026891 0.0290885 0.0109623)
(0.0262018 0.028343 0.0036255)
(0.0257246 0.0278271 -0.00348918)
(0.0254418 0.0275215 -0.0106387)
(0.0245292 0.0311075 0.0109603)
(0.0239001 0.0303104 0.00362419)
(0.0234641 0.029759 -0.00348986)
(0.0232054 0.0294325 -0.0106388)
(0.0220164 0.0329338 0.0109568)
(0.0214506 0.0320903 0.00362197)
(0.021058 0.031507 -0.0034909)
(0.0208247 0.0311617 -0.0106387)
(0.0193667 0.0345545 0.0109523)
(0.0188672 0.0336699 0.00361929)
(0.0185201 0.0330582 -0.00349191)
(0.018313 0.0326964 -0.010638)
(0.0165956 0.0359582 0.0109474)
(0.0161652 0.0350377 0.00361669)
(0.0158658 0.0344012 -0.00349246)
(0.0156861 0.0340251 -0.0106363)
(0.0137197 0.0371359 0.0109429)
(0.0133616 0.0361847 0.0036148)
(0.0131121 0.035527 -0.00349209)
(0.0129614 0.0351386 -0.0106335)
(0.010757 0.0380819 0.0109399)
(0.0104747 0.0371052 0.00361436)
(0.0102777 0.03643 -0.00349032)
(0.010158 0.0360313 -0.0106293)
(0.00772665 0.0387936 0.0109394)
(0.00752355 0.0377972 0.00361616)
(0.0073819 0.0371083 -0.00348669)
(0.00729551 0.0367014 -0.0106236)
(0.00464804 0.0392709 0.0109426)
(0.00452792 0.0382613 0.00362095)
(0.00444349 0.0375631 -0.00348073)
(0.00439215 0.0371502 -0.0106166)
(0.00154274 0.0395189 0.0109496)
(0.00150687 0.0385012 0.00362905)
(0.0014795 0.0377966 -0.00347179)
(0.00146324 0.0373788 -0.0106077)
(0.0610086 0.0023899 0.0112834)
(0.0597564 0.00234492 0.00302817)
(0.0587202 0.00230493 -0.00493072)
(0.0578736 0.00227409 -0.0129705)
(0.0606321 0.00718302 0.0112732)
(0.059388 0.00703377 0.00301691)
(0.0583585 0.00690958 -0.00494271)
(0.057518 0.00680766 -0.0129821)
(0.0598969 0.0119347 0.0112686)
(0.058669 0.0116831 0.00301086)
(0.0576529 0.0114747 -0.0049495)
(0.0568238 0.0113025 -0.0129894)
(0.058799 0.0166125 0.0112687)
(0.0575956 0.0162629 0.00300912)
(0.0565994 0.015973 -0.00495258)
(0.0557863 0.0157336 -0.0129941)
(0.0573397 0.0211868 0.0112723)
(0.0561679 0.0207437 0.00301032)
(0.0551975 0.0203758 -0.00495316)
(0.054405 0.0200727 -0.0129968)
(0.0555236 0.0256285 0.0112778)
(0.0543898 0.0250961 0.00301327)
(0.0534507 0.024654 -0.00495222)
(0.0526833 0.0242905 -0.0129982)
(0.0533594 0.0299096 0.011284)
(0.0522701 0.029292 0.00301696)
(0.0513676 0.0287792 -0.00495053)
(0.0506296 0.0283583 -0.0129988)
(0.0508605 0.0340038 0.0112899)
(0.0498219 0.0333049 0.00302059)
(0.0489612 0.0327247 -0.0049487)
(0.0482571 0.032249 -0.012999)
(0.0480435 0.0378865 0.0112946)
(0.0470619 0.0371102 0.00302351)
(0.0462483 0.0364658 -0.00494714)
(0.0455824 0.035938 -0.0129989)
(0.0449276 0.0415347 0.0112973)
(0.0440092 0.0406851 0.00302522)
(0.0432478 0.0399803 -0.00494622)
(0.0426244 0.0394031 -0.0129988)
(0.0415346 0.0449276 0.0112973)
(0.0406851 0.0440093 0.00302522)
(0.0399803 0.0432478 -0.00494622)
(0.0394031 0.0426244 -0.0129988)
(0.0378864 0.0480435 0.0112946)
(0.0371101 0.0470619 0.00302351)
(0.0364658 0.0462483 -0.00494715)
(0.0359379 0.0455824 -0.0129989)
(0.0340037 0.0508604 0.0112899)
(0.0333049 0.0498219 0.00302058)
(0.0327246 0.0489612 -0.00494871)
(0.032249 0.0482571 -0.012999)
(0.0299094 0.0533593 0.011284)
(0.029292 0.0522701 0.00301695)
(0.0287791 0.0513675 -0.00495055)
(0.0283583 0.0506296 -0.0129988)
(0.0256283 0.0555233 0.0112778)
(0.025096 0.0543897 0.00301325)
(0.024654 0.0534506 -0.00495224)
(0.0242905 0.0526833 -0.0129982)
(0.0211867 0.0573395 0.0112723)
(0.0207436 0.0561678 0.0030103)
(0.0203758 0.0551974 -0.00495319)
(0.0200727 0.054405 -0.0129968)
(0.0166124 0.0587987 0.0112687)
(0.0162629 0.0575954 0.00300909)
(0.015973 0.0565993 -0.00495262)
(0.0157336 0.0557863 -0.0129941)
(0.0119346 0.0598966 0.0112686)
(0.011683 0.0586689 0.00301084)
(0.0114747 0.0576529 -0.00494954)
(0.0113025 0.0568237 -0.0129895)
(0.00718295 0.0606317 0.0112732)
(0.00703373 0.0593879 0.00301688)
(0.00690955 0.0583585 -0.00494275)
(0.00680765 0.057518 -0.0129822)
(0.00238988 0.0610083 0.0112834)
(0.00234491 0.0597562 0.00302814)
(0.00230492 0.0587201 -0.00493077)
(0.00227408 0.0578736 -0.0129705)
(0.0846562 0.00332328 0.00950072)
(0.0831879 0.00327011 0.00123741)
(0.0817738 0.00321629 -0.00660634)
(0.0803901 0.00316778 -0.0146323)
(0.0841379 0.00997118 0.00948669)
(0.082677 0.00979596 0.00122329)
(0.0812695 0.0096278 -0.00662042)
(0.0798929 0.00946401 -0.0146452)
(0.0831172 0.0165613 0.00947997)
(0.0816748 0.0162664 0.00121676)
(0.080285 0.0159839 -0.0066261)
(0.0789262 0.0157064 -0.0146496)
(0.0815924 0.02305 0.00947867)
(0.0801785 0.0226398 0.00121561)
(0.0788154 0.022246 -0.00662651)
(0.0774822 0.0218591 -0.0146494)
(0.0795671 0.0293968 0.00948108)
(0.0781902 0.028876 0.00121777)
(0.076862 0.0283752 -0.00662393)
(0.0755622 0.0278835 -0.0146467)
(0.0770486 0.0355618 0.0094858)
(0.0757166 0.0349355 0.00122171)
(0.0744309 0.0343322 -0.00661999)
(0.0731721 0.0337401 -0.0146431)
(0.0740492 0.0415061 0.00949165)
(0.0727696 0.0407791 0.00122626)
(0.0715339 0.040078 -0.00661587)
(0.0703235 0.0393901 -0.0146398)
(0.0705864 0.0471924 0.00949754)
(0.0693664 0.0463696 0.00123054)
(0.068188 0.0455753 -0.0066123)
(0.0670332 0.0447963 -0.0146374)
(0.0666818 0.0525853 0.00950244)
(0.0655284 0.0516716 0.0012339)
(0.0644144 0.0507891 -0.00660969)
(0.0633223 0.0499236 -0.0146358)
(0.0623604 0.0576514 0.00950544)
(0.0612808 0.0566521 0.00123584)
(0.060238 0.0556867 -0.00660828)
(0.0592154 0.0547398 -0.0146351)
(0.0576513 0.0623605 0.00950544)
(0.0566521 0.0612808 0.00123584)
(0.0556866 0.060238 -0.00660828)
(0.0547398 0.0592154 -0.0146351)
(0.0525852 0.0666818 0.00950243)
(0.0516716 0.0655284 0.0012339)
(0.0507891 0.0644144 -0.0066097)
(0.0499236 0.0633223 -0.0146358)
(0.0471923 0.0705863 0.00949753)
(0.0463695 0.0693663 0.00123053)
(0.0455753 0.068188 -0.00661231)
(0.0447963 0.0670332 -0.0146374)
(0.0415059 0.0740491 0.00949165)
(0.040779 0.0727695 0.00122625)
(0.0400779 0.0715339 -0.00661589)
(0.0393901 0.0703235 -0.0146399)
(0.0355616 0.0770484 0.00948579)
(0.0349354 0.0757165 0.00122169)
(0.0343321 0.0744309 -0.00662002)
(0.0337401 0.0731721 -0.0146432)
(0.0293967 0.0795668 0.00948107)
(0.028876 0.0781901 0.00121775)
(0.0283752 0.0768619 -0.00662395)
(0.0278835 0.0755622 -0.0146467)
(0.0230499 0.0815921 0.00947866)
(0.0226397 0.0801783 0.00121559)
(0.0222459 0.0788153 -0.00662654)
(0.0218591 0.0774822 -0.0146495)
(0.0165612 0.0831169 0.00947997)
(0.0162663 0.0816746 0.00121674)
(0.0159838 0.0802849 -0.00662614)
(0.0157064 0.0789261 -0.0146497)
(0.00997111 0.0841375 0.00948668)
(0.00979592 0.0826768 0.00122327)
(0.00962778 0.0812694 -0.00662046)
(0.00946401 0.0798929 -0.0146453)
(0.00332325 0.0846558 0.00950071)
(0.00327009 0.0831877 0.00123739)
(0.00321628 0.0817738 -0.00660638)
(0.00316777 0.0803901 -0.0146323)
(0.108162 0.00425249 0.00461894)
(0.106504 0.00419249 -0.00207014)
(0.10468 0.00412461 -0.00825955)
(0.102671 0.00405687 -0.014722)
(0.1075 0.0127375 0.00460294)
(0.105847 0.0125419 -0.00208411)
(0.10403 0.0123285 -0.0082719)
(0.102029 0.0120954 -0.0147319)
(0.106188 0.0211479 0.004594)
(0.104556 0.0208186 -0.00208948)
(0.10276 0.0204594 -0.00827349)
(0.100784 0.0200638 -0.014729)
(0.104231 0.0294297 0.00458933)
(0.10263 0.0289704 -0.00208956)
(0.100867 0.0284683 -0.00826883)
(0.0989284 0.027915 -0.0147193)
(0.101636 0.0375324 0.0045875)
(0.100076 0.0369473 -0.00208667)
(0.0983575 0.0363068 -0.00826099)
(0.0964665 0.0356008 -0.0147063)
(0.0984139 0.045406 0.00458773)
(0.0969041 0.0446999 -0.00208235)
(0.0952404 0.0439258 -0.00825213)
(0.0934088 0.0430727 -0.0146928)
(0.094582 0.0530011 0.00458947)
(0.0931311 0.0521793 -0.00207764)
(0.0915317 0.0512769 -0.00824375)
(0.0897707 0.0502826 -0.0146808)
(0.0901614 0.0602698 0.00459211)
(0.0887776 0.0593377 -0.00207329)
(0.0872522 0.058313 -0.00823683)
(0.0855723 0.057184 -0.0146715)
(0.0851776 0.0671652 0.00459492)
(0.0838689 0.0661288 -0.00206988)
(0.0824267 0.0649883 -0.00823192)
(0.0808383 0.0637318 -0.0146653)
(0.0796598 0.0736424 0.00459703)
(0.0784343 0.0725081 -0.00206788)
(0.0770843 0.071259 -0.00822934)
(0.0755974 0.069883 -0.0146622)
(0.0736423 0.0796598 0.00459703)
(0.0725081 0.0784343 -0.00206788)
(0.071259 0.0770843 -0.00822935)
(0.069883 0.0755974 -0.0146622)
(0.0671651 0.0851775 0.00459491)
(0.0661287 0.0838689 -0.00206989)
(0.0649883 0.0824267 -0.00823193)
(0.0637318 0.0808383 -0.0146653)
(0.0602696 0.0901613 0.00459211)
(0.0593376 0.0887776 -0.0020733)
(0.058313 0.0872522 -0.00823684)
(0.057184 0.0855723 -0.0146715)
(0.0530009 0.0945819 0.00458946)
(0.0521792 0.093131 -0.00207765)
(0.0512769 0.0915317 -0.00824376)
(0.0502826 0.0897706 -0.0146809)
(0.0454058 0.0984137 0.00458773)
(0.0446998 0.096904 -0.00208236)
(0.0439257 0.0952403 -0.00825214)
(0.0430727 0.0934088 -0.0146928)
(0.0375323 0.101635 0.00458749)
(0.0369472 0.100076 -0.00208668)
(0.0363067 0.0983574 -0.00826101)
(0.0356008 0.0964665 -0.0147063)
(0.0294296 0.104231 0.00458932)
(0.0289703 0.10263 -0.00208957)
(0.0284683 0.100867 -0.00826885)
(0.027915 0.0989284 -0.0147193)
(0.0211478 0.106188 0.004594)
(0.0208186 0.104556 -0.0020895)
(0.0204594 0.10276 -0.00827351)
(0.0200638 0.100784 -0.014729)
(0.0127374 0.1075 0.00460293)
(0.0125419 0.105847 -0.00208412)
(0.0123285 0.104029 -0.00827192)
(0.0120954 0.102029 -0.014732)
(0.00425247 0.108162 0.00461893)
(0.00419247 0.106504 -0.00207016)
(0.0041246 0.10468 -0.00825958)
(0.00405687 0.102671 -0.0147221)
(0.125399 0.00493257 -0.0040679)
(0.123603 0.00486854 -0.00700094)
(0.121441 0.00479041 -0.00958803)
(0.118904 0.00470815 -0.0123784)
(0.124624 0.0147532 -0.00407967)
(0.122831 0.0145472 -0.0070083)
(0.120676 0.0143003 -0.00959185)
(0.118148 0.0140126 -0.0123783)
(0.123085 0.0244858 -0.00408888)
(0.121313 0.0241381 -0.00700991)
(0.119183 0.0237216 -0.00958647)
(0.116685 0.0232322 -0.012365)
(0.120793 0.0340686 -0.00409737)
(0.119053 0.0335816 -0.00700834)
(0.116961 0.0329977 -0.00957563)
(0.114509 0.0323114 -0.0123439)
(0.11776 0.0434447 -0.00410537)
(0.116063 0.0428211 -0.0070051)
(0.114023 0.0420733 -0.009562)
(0.111631 0.0411948 -0.0123188)
(0.114005 0.052557 -0.00411245)
(0.112362 0.0518006 -0.00700111)
(0.110385 0.0508935 -0.00954763)
(0.108068 0.0498281 -0.0122931)
(0.109549 0.0613497 -0.00411807)
(0.107968 0.060465 -0.00699696)
(0.106068 0.0594039 -0.00953415)
(0.103841 0.0581582 -0.0122695)
(0.104416 0.0697677 -0.00412178)
(0.102908 0.0687601 -0.00699308)
(0.101096 0.0675514 -0.00952281)
(0.0989719 0.0661331 -0.01225)
(0.0986352 0.0777569 -0.00412349)
(0.0972095 0.0766327 -0.00698988)
(0.0954968 0.0752839 -0.00951455)
(0.0934896 0.073702 -0.0122362)
(0.0922391 0.0852641 -0.00412361)
(0.0909045 0.0840307 -0.00698791)
(0.0893025 0.0825504 -0.00951014)
(0.0874251 0.080815 -0.012229)
(0.085264 0.0922391 -0.00412361)
(0.0840307 0.0909045 -0.00698791)
(0.0825504 0.0893025 -0.00951014)
(0.080815 0.0874251 -0.012229)
(0.0777568 0.0986351 -0.00412349)
(0.0766327 0.0972095 -0.00698989)
(0.0752839 0.0954968 -0.00951456)
(0.073702 0.0934896 -0.0122362)
(0.0697676 0.104416 -0.00412178)
(0.06876 0.102908 -0.00699308)
(0.0675514 0.101096 -0.00952282)
(0.0661331 0.0989719 -0.01225)
(0.0613496 0.109548 -0.00411807)
(0.0604649 0.107968 -0.00699697)
(0.0594039 0.106068 -0.00953416)
(0.0581582 0.103841 -0.0122695)
(0.0525569 0.114005 -0.00411246)
(0.0518005 0.112362 -0.00700112)
(0.0508934 0.110385 -0.00954765)
(0.0498281 0.108068 -0.0122931)
(0.0434445 0.11776 -0.00410537)
(0.042821 0.116063 -0.00700511)
(0.0420733 0.114023 -0.00956201)
(0.0411948 0.111631 -0.0123189)
(0.0340685 0.120792 -0.00409738)
(0.0335816 0.119053 -0.00700834)
(0.0329977 0.116961 -0.00957565)
(0.0323114 0.114509 -0.0123439)
(0.0244856 0.123085 -0.00408888)
(0.0241381 0.121313 -0.00700992)
(0.0237216 0.119182 -0.00958649)
(0.0232322 0.116685 -0.012365)
(0.0147532 0.124623 -0.00407967)
(0.0145472 0.122831 -0.00700831)
(0.0143003 0.120676 -0.00959187)
(0.0140126 0.118148 -0.0123783)
(0.00493255 0.125399 -0.00406791)
(0.00486853 0.123602 -0.00700095)
(0.00479041 0.121441 -0.00958805)
(0.00470815 0.118904 -0.0123785)
(0.127814 0.00502097 -0.0153718)
(0.12599 0.00495855 -0.0129167)
(0.123749 0.00488035 -0.0105446)
(0.121086 0.00479737 -0.00811572)
(0.127009 0.0150082 -0.0153718)
(0.125188 0.014808 -0.0129114)
(0.122954 0.01456 -0.0105346)
(0.120299 0.0142666 -0.00810113)
(0.125413 0.0249032 -0.0153769)
(0.123611 0.0245641 -0.0129069)
(0.121401 0.0241445 -0.0105218)
(0.118778 0.0236443 -0.00807925)
(0.12304 0.0346431 -0.0153859)
(0.121268 0.0341654 -0.0129029)
(0.119098 0.0335752 -0.0105065)
(0.116522 0.0328716 -0.00805135)
(0.119909 0.04417 -0.0153973)
(0.118179 0.0435545 -0.0128993)
(0.116061 0.0427958 -0.0104896)
(0.113548 0.0418921 -0.00801974)
(0.116042 0.0534271 -0.0154094)
(0.114365 0.0526757 -0.0128958)
(0.112313 0.0517515 -0.0104724)
(0.109879 0.0506519 -0.0079871)
(0.111465 0.062359 -0.0154207)
(0.109852 0.0614748 -0.0128923)
(0.107879 0.0603894 -0.010456)
(0.10554 0.0590992 -0.00795619)
(0.106207 0.0709119 -0.0154297)
(0.104669 0.0698993 -0.012889)
(0.102788 0.0686583 -0.0104419)
(0.10056 0.0671847 -0.00792973)
(0.100299 0.0790329 -0.0154355)
(0.0988464 0.0778978 -0.0128861)
(0.0970707 0.0765084 -0.0104312)
(0.0949668 0.0748601 -0.00791023)
(0.0937747 0.0866704 -0.0154378)
(0.0924175 0.08542 -0.0128842)
(0.0907592 0.0838909 -0.0104255)
(0.0887944 0.0820784 -0.00789981)
(0.0866703 0.0937747 -0.0154378)
(0.0854199 0.0924176 -0.0128842)
(0.0838909 0.0907592 -0.0104255)
(0.0820784 0.0887944 -0.00789982)
(0.0790328 0.100299 -0.0154355)
(0.0778977 0.0988464 -0.0128861)
(0.0765084 0.0970707 -0.0104313)
(0.0748601 0.0949668 -0.00791023)
(0.0709118 0.106207 -0.0154297)
(0.0698992 0.104669 -0.012889)
(0.0686583 0.102788 -0.0104419)
(0.0671847 0.10056 -0.00792974)
(0.0623589 0.111465 -0.0154207)
(0.0614748 0.109852 -0.0128923)
(0.0603894 0.107879 -0.010456)
(0.0590992 0.10554 -0.0079562)
(0.0534269 0.116042 -0.0154094)
(0.0526756 0.114365 -0.0128958)
(0.0517515 0.112313 -0.0104724)
(0.0506519 0.109879 -0.00798711)
(0.0441699 0.119908 -0.0153973)
(0.0435545 0.118179 -0.0128993)
(0.0427958 0.116061 -0.0104896)
(0.0418922 0.113548 -0.00801976)
(0.034643 0.123039 -0.0153859)
(0.0341654 0.121268 -0.0129029)
(0.0335752 0.119098 -0.0105065)
(0.0328717 0.116522 -0.00805137)
(0.0249031 0.125412 -0.0153769)
(0.024564 0.12361 -0.0129069)
(0.0241445 0.121401 -0.0105218)
(0.0236443 0.118778 -0.00807927)
(0.0150082 0.127008 -0.0153718)
(0.014808 0.125188 -0.0129114)
(0.01456 0.122953 -0.0105346)
(0.0142666 0.120299 -0.00810114)
(0.00502094 0.127813 -0.0153718)
(0.00495854 0.12599 -0.0129167)
(0.00488034 0.123749 -0.0105446)
(0.00479737 0.121086 -0.00811574)
(0.111476 0.00436221 -0.0258752)
(0.109772 0.00430798 -0.018388)
(0.107814 0.00424271 -0.0114453)
(0.105594 0.0041768 -0.00417327)
(0.110755 0.013048 -0.0258611)
(0.109054 0.0128712 -0.0183699)
(0.107102 0.0126637 -0.0114234)
(0.104889 0.0124298 -0.004148)
(0.109331 0.0216512 -0.025858)
(0.107646 0.0213496 -0.0183592)
(0.105715 0.0209973 -0.0114064)
(0.103528 0.0205967 -0.00412474)
(0.107219 0.0301153 -0.0258617)
(0.105561 0.0296879 -0.0183526)
(0.103662 0.02919 -0.0113911)
(0.101514 0.0286241 -0.00409978)
(0.104439 0.0383893 -0.0258693)
(0.102818 0.037835 -0.018348)
(0.100965 0.0371918 -0.011376)
(0.0988687 0.0364617 -0.004073)
(0.101016 0.0464244 -0.0258789)
(0.0994434 0.0457432 -0.0183443)
(0.0976474 0.0449558 -0.011361)
(0.0956175 0.044063 -0.00404544)
(0.0969774 0.0541743 -0.0258886)
(0.0954645 0.0533673 -0.0183411)
(0.0937384 0.052438 -0.0113469)
(0.0917886 0.0513855 -0.00401886)
(0.0923527 0.0615949 -0.0258969)
(0.0909112 0.0606651 -0.018338)
(0.0892675 0.0595975 -0.0113343)
(0.0874118 0.0583899 -0.00399548)
(0.0871736 0.0686446 -0.0259025)
(0.0858149 0.0675963 -0.0183353)
(0.0842658 0.066396 -0.0113248)
(0.0825174 0.0650394 -0.00397781)
(0.0814725 0.0752834 -0.025905)
(0.0802075 0.0741228 -0.0183335)
(0.0787647 0.0727968 -0.0113194)
(0.0771361 0.0712993 -0.0039682)
(0.0752833 0.0814725 -0.025905)
(0.0741228 0.0802075 -0.0183335)
(0.0727968 0.0787647 -0.0113194)
(0.0712993 0.0771361 -0.0039682)
(0.0686446 0.0871736 -0.0259025)
(0.0675963 0.0858149 -0.0183353)
(0.066396 0.0842658 -0.0113248)
(0.0650394 0.0825174 -0.00397781)
(0.0615948 0.0923527 -0.0258969)
(0.060665 0.0909112 -0.018338)
(0.0595975 0.0892675 -0.0113343)
(0.0583899 0.0874118 -0.00399549)
(0.0541741 0.0969773 -0.0258886)
(0.0533673 0.0954644 -0.0183411)
(0.052438 0.0937384 -0.0113469)
(0.0513855 0.0917886 -0.00401886)
(0.0464243 0.101016 -0.0258789)
(0.0457431 0.0994434 -0.0183443)
(0.0449558 0.0976474 -0.011361)
(0.044063 0.0956175 -0.00404545)
(0.0383892 0.104439 -0.0258693)
(0.037835 0.102818 -0.018348)
(0.0371918 0.100965 -0.011376)
(0.0364617 0.0988687 -0.00407301)
(0.0301152 0.107219 -0.0258617)
(0.0296878 0.105561 -0.0183526)
(0.02919 0.103662 -0.0113911)
(0.0286241 0.101514 -0.00409978)
(0.0216511 0.109331 -0.025858)
(0.0213496 0.107646 -0.0183592)
(0.0209973 0.105715 -0.0114064)
(0.0205967 0.103528 -0.00412474)
(0.013048 0.110754 -0.0258611)
(0.0128711 0.109054 -0.0183699)
(0.0126637 0.107102 -0.0114234)
(0.0124298 0.104889 -0.00414801)
(0.00436219 0.111475 -0.0258752)
(0.00430797 0.109772 -0.018388)
(0.00424271 0.107814 -0.0114453)
(0.00417681 0.105594 -0.00417328)
(0.0818774 0.00318003 -0.0319589)
(0.080401 0.0031374 -0.0219509)
(0.0789822 0.00309318 -0.012667)
(0.0776021 0.00305555 -0.00297729)
(0.0813283 0.00953632 -0.0319365)
(0.0798561 0.0093917 -0.0219275)
(0.0784423 0.00925111 -0.0126421)
(0.0770681 0.00911833 -0.00295205)
(0.0802539 0.0158309 -0.0319248)
(0.0787944 0.015582 -0.0219136)
(0.0773947 0.0153415 -0.0126268)
(0.0760356 0.0151118 -0.002936)
(0.0786642 0.0220199 -0.0319191)
(0.0772264 0.021665 -0.0219052)
(0.0758494 0.0213227 -0.0126161)
(0.0745133 0.020995 -0.00292301)
(0.0765775 0.028065 -0.0319169)
(0.0751706 0.0276021 -0.0218994)
(0.0738253 0.0271566 -0.0126073)
(0.0725209 0.0267296 -0.0029111)
(0.0740157 0.0339306 -0.0319166)
(0.0726499 0.0333584 -0.021895)
(0.0713458 0.0328089 -0.0125995)
(0.0700825 0.0322817 -0.0028995)
(0.0710036 0.0395845 -0.0319173)
(0.0696898 0.0389027 -0.0218913)
(0.068437 0.0382493 -0.0125922)
(0.0672246 0.0376219 -0.00288828)
(0.0675679 0.0449974 -0.0319182)
(0.0663174 0.0442072 -0.0218881)
(0.0651262 0.0434514 -0.0125858)
(0.0639745 0.0427248 -0.00287812)
(0.0637363 0.050143 -0.0319187)
(0.0625604 0.0492473 -0.0218855)
(0.0614408 0.048392 -0.0125807)
(0.0603595 0.0475689 -0.00287017)
(0.0595368 0.054997 -0.0319187)
(0.0584461 0.0540006 -0.021884)
(0.0574074 0.0530506 -0.0125779)
(0.0564052 0.052135 -0.00286573)
(0.054997 0.0595368 -0.0319187)
(0.0540006 0.0584461 -0.021884)
(0.0530506 0.0574074 -0.0125779)
(0.052135 0.0564051 -0.00286573)
(0.0501429 0.0637363 -0.0319187)
(0.0492472 0.0625604 -0.0218855)
(0.048392 0.0614408 -0.0125807)
(0.0475689 0.0603594 -0.00287016)
(0.0449974 0.0675679 -0.0319182)
(0.0442071 0.0663174 -0.0218881)
(0.0434514 0.0651262 -0.0125858)
(0.0427248 0.0639745 -0.00287811)
(0.0395844 0.0710035 -0.0319173)
(0.0389026 0.0696898 -0.0218913)
(0.0382493 0.068437 -0.0125922)
(0.0376219 0.0672246 -0.00288828)
(0.0339305 0.0740156 -0.0319166)
(0.0333584 0.0726499 -0.021895)
(0.0328089 0.0713458 -0.0125994)
(0.0322818 0.0700826 -0.0028995)
(0.0280649 0.0765774 -0.0319168)
(0.0276021 0.0751706 -0.0218994)
(0.0271566 0.0738253 -0.0126073)
(0.0267297 0.072521 -0.00291109)
(0.0220198 0.078664 -0.0319191)
(0.021665 0.0772263 -0.0219051)
(0.0213227 0.0758494 -0.0126161)
(0.020995 0.0745133 -0.002923)