/*--------------------------------*- C++ -*----------------------------------*\
| =========                 |                                                 |
| \\      /  F ield         | foam-extend: Open Source CFD                    |
|  \\    /   O peration     | Version:     3.1                                |
|   \\  /    A nd           | Web:         http://www.extend-project.de       |
|    \\/     M anipulation  |                                                 |
\*---------------------------------------------------------------------------*/
FoamFile
{
    version     2.0;
    format      ascii;
    class       volVectorField;
    location    "0.0008";
    object      cellMotionU;
}
// * * * * * * * * * * * * * * * * * * * * * * * * * * * * * * * * * * * * * //

dimensions      [0 1 -1 0 0 0 0];

internalField   nonuniform List<vector> 
16000
(
(1.95795e-09 3.1628e-10 7.02439e-10)
(5.89086e-09 3.33434e-10 1.02642e-09)
(9.84313e-09 3.7491e-10 1.67508e-09)
(1.39485e-08 4.4044e-10 2.67499e-09)
(1.83152e-08 5.26281e-10 4.08541e-09)
(2.29963e-08 6.31609e-10 5.9981e-09)
(2.79702e-08 7.5314e-10 8.53744e-09)
(3.31179e-08 8.86803e-10 1.18608e-08)
(3.81713e-08 1.02941e-09 1.6143e-08)
(4.26628e-08 1.17301e-09 2.15567e-08)
(1.85993e-09 9.66348e-10 8.1054e-10)
(5.66549e-09 1.03071e-09 1.13514e-09)
(9.57789e-09 1.16204e-09 1.79074e-09)
(1.36529e-08 1.36298e-09 2.80031e-09)
(1.79855e-08 1.62877e-09 4.22183e-09)
(2.26327e-08 1.95194e-09 6.14466e-09)
(2.75682e-08 2.32667e-09 8.68952e-09)
(3.26877e-08 2.74659e-09 1.20169e-08)
(3.77409e-08 3.19002e-09 1.62905e-08)
(4.23126e-08 3.62868e-09 2.16619e-08)
(1.74775e-09 1.66701e-09 1.04304e-09)
(5.33594e-09 1.7868e-09 1.36822e-09)
(9.09766e-09 2.02292e-09 2.03297e-09)
(1.30976e-08 2.36745e-09 3.06077e-09)
(1.73594e-08 2.82024e-09 4.49948e-09)
(2.19306e-08 3.3741e-09 6.43618e-09)
(2.68093e-08 4.02101e-09 8.99617e-09)
(3.18787e-08 4.74772e-09 1.23225e-08)
(3.69078e-08 5.52432e-09 1.657e-08)
(4.15595e-08 6.30187e-09 2.18909e-08)
(1.61747e-09 2.45976e-09 1.42945e-09)
(4.96867e-09 2.63537e-09 1.76196e-09)
(8.5131e-09 2.98208e-09 2.4377e-09)
(1.23436e-08 3.48478e-09 3.48433e-09)
(1.65073e-08 4.13422e-09 4.94889e-09)
(2.09904e-08 4.92604e-09 6.90335e-09)
(2.57778e-08 5.85684e-09 9.4661e-09)
(3.07873e-08 6.90974e-09 1.27835e-08)
(3.57987e-08 8.05015e-09 1.69937e-08)
(4.05101e-08 9.22232e-09 2.22403e-08)
(1.48417e-09 3.35877e-09 2.02147e-09)
(4.58174e-09 3.5961e-09 2.36767e-09)
(7.90383e-09 4.05899e-09 3.06481e-09)
(1.15227e-08 4.7303e-09 4.13355e-09)
(1.55148e-08 5.58983e-09 5.61792e-09)
(1.98986e-08 6.6255e-09 7.58899e-09)
(2.46163e-08 7.84336e-09 1.01523e-08)
(2.95676e-08 9.23664e-09 1.34411e-08)
(3.45833e-08 1.07654e-08 1.75957e-08)
(3.93876e-08 1.2375e-08 2.27407e-08)
(1.35674e-09 4.34197e-09 2.89177e-09)
(4.20096e-09 4.65199e-09 3.25842e-09)
(7.29432e-09 5.25146e-09 3.98914e-09)
(1.07146e-08 6.10982e-09 5.09355e-09)
(1.45152e-08 7.19376e-09 6.59804e-09)
(1.87552e-08 8.49059e-09 8.57663e-09)
(2.34248e-08 9.99678e-09 1.1132e-08)
(2.83724e-08 1.17157e-08 1.43758e-08)
(3.34241e-08 1.36425e-08 1.84498e-08)
(3.83805e-08 1.57001e-08 2.34656e-08)
(1.2378e-09 5.33015e-09 4.13231e-09)
(3.84703e-09 5.74017e-09 4.53111e-09)
(6.72639e-09 6.52358e-09 5.31833e-09)
(9.96315e-09 7.61125e-09 6.47522e-09)
(1.36103e-08 8.95069e-09 8.01505e-09)
(1.77002e-08 1.05169e-08 9.98788e-09)
(2.22718e-08 1.23166e-08 1.25056e-08)
(2.72687e-08 1.43538e-08 1.56962e-08)
(3.24142e-08 1.66348e-08 1.96571e-08)
(3.75419e-08 1.90932e-08 2.44952e-08)
(1.12987e-09 6.15628e-09 5.84991e-09)
(3.53421e-09 6.73167e-09 6.30586e-09)
(6.22348e-09 7.78666e-09 7.17645e-09)
(9.29789e-09 9.18441e-09 8.41285e-09)
(1.28262e-08 1.08309e-08 9.99958e-09)
(1.68392e-08 1.26928e-08 1.19761e-08)
(2.133e-08 1.47772e-08 1.44312e-08)
(2.63128e-08 1.7113e-08 1.75191e-08)
(3.15401e-08 1.96446e-08 2.12856e-08)
(3.68e-08 2.23939e-08 2.5884e-08)
(1.03689e-09 6.51216e-09 8.14646e-09)
(3.25822e-09 7.39224e-09 8.69912e-09)
(5.78778e-09 8.89731e-09 9.70266e-09)
(8.73047e-09 1.07434e-08 1.10521e-08)
(1.21708e-08 1.27799e-08 1.27013e-08)
(1.61536e-08 1.49797e-08 1.46819e-08)
(2.06698e-08 1.73599e-08 1.70748e-08)
(2.56327e-08 1.99249e-08 1.99835e-08)
(3.08363e-08 2.25956e-08 2.34505e-08)
(3.60793e-08 2.5455e-08 2.76818e-08)
(9.5486e-10 5.86175e-09 1.10801e-08)
(3.01041e-09 7.37743e-09 1.18132e-08)
(5.39814e-09 9.67894e-09 1.30447e-08)
(8.24128e-09 1.21933e-08 1.45561e-08)
(1.16312e-08 1.47261e-08 1.62714e-08)
(1.56231e-08 1.73095e-08 1.82372e-08)
(2.02141e-08 2.00099e-08 2.05478e-08)
(2.52826e-08 2.28037e-08 2.32742e-08)
(3.05375e-08 2.55605e-08 2.64145e-08)
(3.55197e-08 2.8169e-08 2.99409e-08)
(5.52096e-09 7.07819e-10 5.42808e-10)
(1.66244e-08 7.58518e-10 1.34873e-09)
(2.78257e-08 8.74638e-10 2.95787e-09)
(3.95362e-08 1.055e-09 5.42871e-09)
(5.21107e-08 1.29129e-09 8.89761e-09)
(6.57716e-08 1.58267e-09 1.35772e-08)
(8.05722e-08 1.92269e-09 1.9756e-08)
(9.63574e-08 2.30336e-09 2.77982e-08)
(1.12653e-07 2.71998e-09 3.81052e-08)
(1.28591e-07 3.15815e-09 5.10677e-08)
(5.23467e-09 2.18715e-09 7.56726e-10)
(1.59583e-08 2.36755e-09 1.5656e-09)
(2.70251e-08 2.73046e-09 3.19541e-09)
(3.86251e-08 3.28055e-09 5.69483e-09)
(5.10723e-08 4.00829e-09 9.19719e-09)
(6.45956e-08 4.89913e-09 1.3911e-08)
(7.92243e-08 5.94396e-09 2.01194e-08)
(9.48244e-08 7.13412e-09 2.82019e-08)
(1.10925e-07 8.42394e-09 3.85515e-08)
(1.26685e-07 9.75592e-09 5.15506e-08)
(4.90008e-09 3.85263e-09 1.22549e-09)
(1.4972e-08 4.1776e-09 2.03815e-09)
(2.55706e-08 4.81735e-09 3.69557e-09)
(3.69106e-08 5.75073e-09 6.24855e-09)
(4.90978e-08 6.98048e-09 9.8043e-09)
(6.23262e-08 8.49617e-09 1.45674e-08)
(7.66792e-08 1.02879e-08 2.08373e-08)
(9.19542e-08 1.23343e-08 2.89613e-08)
(1.07675e-07 1.45752e-08 3.93299e-08)
(1.2312e-07 1.69082e-08 5.23634e-08)
(4.5081e-09 5.83994e-09 2.01883e-09)
(1.38594e-08 6.30787e-09 2.85363e-09)
(2.37857e-08 7.23087e-09 4.54505e-09)
(3.45781e-08 8.57346e-09 7.15429e-09)
(4.64062e-08 1.03179e-08 1.0787e-08)
(5.92784e-08 1.24641e-08 1.56101e-08)
(7.3222e-08 1.50195e-08 2.19093e-08)
(8.81067e-08 1.79603e-08 3.00476e-08)
(1.03439e-07 2.12201e-08 4.03849e-08)
(1.18531e-07 2.46876e-08 5.3332e-08)
(4.10381e-09 8.22314e-09 3.25786e-09)
(1.2679e-08 8.84509e-09 4.13233e-09)
(2.19094e-08 1.00577e-08 5.88772e-09)
(3.20226e-08 1.18225e-08 8.56369e-09)
(4.32664e-08 1.40986e-08 1.22575e-08)
(5.57358e-08 1.68719e-08 1.71348e-08)
(6.93198e-08 2.01804e-08 2.34492e-08)
(8.381e-08 2.40336e-08 3.15328e-08)
(9.88351e-08 2.83596e-08 4.17533e-08)
(1.13742e-07 3.30575e-08 5.44694e-08)
(3.71492e-09 1.0996e-08 5.11175e-09)
(1.15125e-08 1.17949e-08 6.04683e-09)
(2.00252e-08 1.33384e-08 7.90246e-09)
(2.94916e-08 1.55561e-08 1.06845e-08)
(4.00891e-08 1.83787e-08 1.4441e-08)
(5.20207e-08 2.17991e-08 1.93432e-08)
(6.53083e-08 2.58388e-08 2.56403e-08)
(7.95792e-08 3.0542e-08 3.36092e-08)
(9.4421e-08 3.59379e-08 4.36149e-08)
(1.09395e-07 4.18744e-08 5.59751e-08)
(3.35229e-09 1.40264e-08 7.79456e-09)
(1.04284e-08 1.50646e-08 8.82786e-09)
(1.82677e-08 1.70464e-08 1.08515e-08)
(2.71322e-08 1.98019e-08 1.37915e-08)
(3.71939e-08 2.32221e-08 1.76531e-08)
(4.8575e-08 2.72783e-08 2.25442e-08)
(6.14299e-08 3.20309e-08 2.87379e-08)
(7.56586e-08 3.75368e-08 3.65561e-08)
(9.05356e-08 4.3861e-08 4.62472e-08)
(1.0571e-07 5.08897e-08 5.81072e-08)
(3.02712e-09 1.6987e-08 1.15556e-08)
(9.47813e-09 1.84218e-08 1.27655e-08)
(1.6723e-08 2.10428e-08 1.50472e-08)
(2.50562e-08 2.45116e-08 1.82294e-08)
(3.46907e-08 2.86214e-08 2.22331e-08)
(4.57438e-08 3.33393e-08 2.71364e-08)
(5.82362e-08 3.87425e-08 3.31582e-08)
(7.22674e-08 4.49662e-08 4.06909e-08)
(8.72076e-08 5.19147e-08 4.9866e-08)
(1.02554e-07 5.97201e-08 6.10782e-08)
(2.75542e-09 1.92293e-08 1.66356e-08)
(8.66636e-09 2.13997e-08 1.8155e-08)
(1.54236e-08 2.5081e-08 2.08608e-08)
(2.33308e-08 2.95686e-08 2.43964e-08)
(3.26443e-08 3.45276e-08 2.85894e-08)
(4.35221e-08 3.99632e-08 3.35018e-08)
(5.59842e-08 4.5999e-08 3.93463e-08)
(6.98466e-08 5.27182e-08 4.64043e-08)
(8.46069e-08 5.99661e-08 5.48116e-08)
(9.97806e-08 6.80398e-08 6.50905e-08)
(2.53364e-09 1.9578e-08 2.3177e-08)
(7.99082e-09 2.32972e-08 2.52914e-08)
(1.4345e-08 2.88737e-08 2.87315e-08)
(2.19462e-08 3.48707e-08 3.27788e-08)
(3.10706e-08 4.08715e-08 3.71715e-08)
(4.19117e-08 4.7073e-08 4.203e-08)
(5.45179e-08 5.37543e-08 4.76303e-08)
(6.86199e-08 6.09358e-08 5.42e-08)
(8.34761e-08 6.83219e-08 6.17835e-08)
(9.78536e-08 7.56433e-08 7.03438e-08)
(8.1516e-09 4.3966e-10 -3.25952e-09)
(2.45805e-08 5.23477e-10 -2.36192e-09)
(4.12633e-08 6.94391e-10 -5.8198e-10)
(5.88945e-08 9.4901e-10 2.12361e-09)
(7.81176e-08 1.28156e-09 5.87422e-09)
(9.94344e-08 1.69423e-09 1.08581e-08)
(1.23183e-07 2.18451e-09 1.73252e-08)
(1.49524e-07 2.74785e-09 2.5574e-08)
(1.7834e-07 3.38391e-09 3.58898e-08)
(2.09231e-07 4.0833e-09 4.84504e-08)
(7.69742e-09 1.45238e-09 -3.19222e-09)
(2.35007e-08 1.71915e-09 -2.28684e-09)
(3.99185e-08 2.23859e-09 -4.72986e-10)
(5.73132e-08 3.00643e-09 2.27909e-09)
(7.626e-08 4.0187e-09 6.08569e-09)
(9.72587e-08 5.27115e-09 1.11361e-08)
(1.20585e-07 6.76691e-09 1.76853e-08)
(1.46384e-07 8.51149e-09 2.60723e-08)
(1.74435e-07 1.04661e-08 3.66294e-08)
(2.04114e-07 1.25789e-08 4.96634e-08)
(7.14511e-09 2.85475e-09 -3.01028e-09)
(2.18643e-08 3.30118e-09 -2.09314e-09)
(3.74585e-08 4.17621e-09 -2.33109e-10)
(5.43252e-08 5.45017e-09 2.60497e-09)
(7.27156e-08 7.13133e-09 6.50491e-09)
(9.30535e-08 9.22902e-09 1.16568e-08)
(1.15662e-07 1.17584e-08 1.8349e-08)
(1.40504e-07 1.47201e-08 2.69179e-08)
(1.67216e-07 1.80677e-08 3.77532e-08)
(1.95112e-07 2.1705e-08 5.13163e-08)
(6.4879e-09 4.88546e-09 -2.64662e-09)
(1.99775e-08 5.50216e-09 -1.69253e-09)
(3.43948e-08 6.71437e-09 2.26675e-10)
(5.02434e-08 8.48791e-09 3.15731e-09)
(6.78611e-08 1.08157e-08 7.18354e-09)
(8.73675e-08 1.3725e-08 1.24528e-08)
(1.08952e-07 1.72648e-08 1.92482e-08)
(1.32626e-07 2.14492e-08 2.79458e-08)
(1.57883e-07 2.62338e-08 3.89367e-08)
(1.83933e-07 3.15199e-08 5.2713e-08)
(5.79942e-09 7.72986e-09 -1.99085e-09)
(1.79485e-08 8.51869e-09 -9.7483e-10)
(3.11211e-08 1.00539e-08 1.04957e-09)
(4.5714e-08 1.23014e-08 4.09182e-09)
(6.21695e-08 1.52417e-08 8.22431e-09)
(8.07232e-08 1.89009e-08 1.35956e-08)
(1.01313e-07 2.33791e-08 2.04519e-08)
(1.23764e-07 2.87451e-08 2.9141e-08)
(1.47695e-07 3.49649e-08 4.00715e-08)
(1.72276e-07 4.19591e-08 5.36692e-08)
(5.12809e-09 1.15058e-08 -8.95899e-10)
(1.59226e-08 1.24811e-08 2.1832e-10)
(2.78019e-08 1.43592e-08 2.40686e-09)
(4.11665e-08 1.70714e-08 5.62248e-09)
(5.6341e-08 2.05757e-08 9.86557e-09)
(7.37035e-08 2.49303e-08 1.52856e-08)
(9.33799e-08 3.02392e-08 2.21318e-08)
(1.14899e-07 3.6631e-08 3.06844e-08)
(1.37741e-07 4.42088e-08 4.13298e-08)
(1.61385e-07 5.28421e-08 5.44318e-08)
(4.49905e-09 1.62232e-08 8.13736e-10)
(1.40273e-08 1.74425e-08 2.09498e-09)
(2.46787e-08 1.97566e-08 4.5575e-09)
(3.68787e-08 2.29714e-08 8.03661e-09)
(5.09319e-08 2.70175e-08 1.24521e-08)
(6.70821e-08 3.19534e-08 1.78704e-08)
(8.56356e-08 3.79644e-08 2.45686e-08)
(1.06531e-07 4.52244e-08 3.28897e-08)
(1.28721e-07 5.38871e-08 4.30708e-08)
(1.51791e-07 6.3874e-08 5.54233e-08)
(3.93871e-09 2.17145e-08 3.3217e-09)
(1.23652e-08 2.3346e-08 4.90894e-09)
(2.19262e-08 2.62823e-08 7.82083e-09)
(3.30823e-08 3.01263e-08 1.17124e-08)
(4.61892e-08 3.4709e-08 1.63691e-08)
(6.14789e-08 4.013e-08 2.18101e-08)
(7.90492e-08 4.66378e-08 2.82597e-08)
(9.91257e-08 5.45372e-08 3.61503e-08)
(1.2085e-07 6.37907e-08 4.56282e-08)
(1.43495e-07 7.46237e-08 5.70537e-08)
(3.47997e-09 2.749e-08 6.75921e-09)
(1.09781e-08 2.99113e-08 8.91241e-09)
(1.96472e-08 3.3897e-08 1.25992e-08)
(2.99485e-08 3.86108e-08 1.71214e-08)
(4.22943e-08 4.37663e-08 2.21032e-08)
(5.69766e-08 4.95735e-08 2.75519e-08)
(7.41059e-08 5.64015e-08 3.3721e-08)
(9.35007e-08 6.45284e-08 4.09617e-08)
(1.14526e-07 7.38529e-08 4.94642e-08)
(1.3644e-07 8.47831e-08 5.97063e-08)
(3.13058e-09 3.24927e-08 1.10692e-08)
(9.90126e-09 3.66367e-08 1.43662e-08)
(1.78684e-08 4.25732e-08 1.94246e-08)
(2.75404e-08 4.85577e-08 2.48886e-08)
(3.93543e-08 5.42826e-08 3.02287e-08)
(5.36647e-08 6.03098e-08 3.55721e-08)
(7.06478e-08 6.72926e-08 4.13273e-08)
(9.00438e-08 7.54798e-08 4.78683e-08)
(1.10898e-07 8.45946e-08 5.53465e-08)
(1.31442e-07 9.42527e-08 6.37364e-08)
(9.40791e-09 -7.56293e-10 -1.0477e-08)
(2.84203e-08 -6.37473e-10 -9.89092e-09)
(4.7884e-08 -4.35104e-10 -8.75068e-09)
(6.87212e-08 -1.57522e-10 -7.06611e-09)
(9.18342e-08 2.00315e-10 -4.81605e-09)
(1.18023e-07 6.45999e-10 -1.96382e-09)
(1.47996e-07 1.18771e-09 1.52388e-09)
(1.82409e-07 1.83053e-09 5.6406e-09)
(2.21801e-07 2.58007e-09 1.02554e-08)
(2.66704e-07 3.43696e-09 1.49598e-08)
(8.82109e-09 -2.05257e-09 -1.07821e-08)
(2.69838e-08 -1.7328e-09 -1.01819e-08)
(4.60141e-08 -1.14621e-09 -8.99732e-09)
(6.64437e-08 -3.25111e-10 -7.25264e-09)
(8.90844e-08 7.41593e-10 -4.92785e-09)
(1.1472e-07 2.0777e-09 -1.97428e-09)
(1.43956e-07 3.71145e-09 1.66626e-09)
(1.77373e-07 5.6728e-09 6.06016e-09)
(2.15274e-07 7.9541e-09 1.12184e-08)
(2.57632e-07 1.05281e-08 1.70868e-08)
(8.06761e-09 -2.72334e-09 -1.13558e-08)
(2.47389e-08 -2.25574e-09 -1.07327e-08)
(4.25644e-08 -1.34885e-09 -9.48684e-09)
(6.21182e-08 -3.95032e-11 -7.63248e-09)
(8.38148e-08 1.67911e-09 -5.17764e-09)
(1.08319e-07 3.85654e-09 -2.06258e-09)
(1.36252e-07 6.55599e-09 1.82372e-09)
(1.67888e-07 9.82144e-09 6.6114e-09)
(2.03198e-07 1.36534e-08 1.24683e-08)
(2.41827e-07 1.79998e-08 1.96635e-08)
(7.15223e-09 -2.46786e-09 -1.2172e-08)
(2.2076e-08 -1.87208e-09 -1.15e-08)
(3.81871e-08 -7.13354e-10 -1.01725e-08)
(5.61745e-08 9.97464e-10 -8.19668e-09)
(7.65474e-08 3.27585e-09 -5.5757e-09)
(9.95789e-08 6.18841e-09 -2.27876e-09)
(1.25669e-07 9.84695e-09 1.82233e-09)
(1.55073e-07 1.43394e-08 6.92976e-09)
(1.87459e-07 1.96813e-08 1.32847e-08)
(2.22144e-07 2.5828e-08 2.12619e-08)
(6.17269e-09 -9.9362e-10 -1.32037e-08)
(1.91591e-08 -2.87937e-10 -1.24552e-08)
(3.34083e-08 1.07785e-09 -1.09899e-08)
(4.94678e-08 3.09215e-09 -8.86458e-09)
(6.79564e-08 5.79336e-09 -6.09361e-09)
(8.92704e-08 9.28174e-09 -2.6392e-09)
(1.13453e-07 1.37287e-08 1.60167e-09)
(1.40446e-07 1.92896e-08 6.82721e-09)
(1.69989e-07 2.60233e-08 1.33125e-08)
(2.01219e-07 3.39082e-08 2.1382e-08)
(5.19801e-09 1.97915e-09 -1.44343e-08)
(1.62001e-08 2.78945e-09 -1.35591e-08)
(2.84903e-08 4.33297e-09 -1.18791e-08)
(4.26046e-08 6.56936e-09 -9.52544e-09)
(5.90086e-08 9.53398e-09 -6.59351e-09)
(7.82417e-08 1.33987e-08 -3.05349e-09)
(1.00561e-07 1.83936e-08 1.21811e-09)
(1.25492e-07 2.47488e-08 6.36529e-09)
(1.52482e-07 3.26492e-08 1.26182e-08)
(1.8102e-07 4.20614e-08 2.02406e-08)
(4.27288e-09 6.70347e-09 -1.58757e-08)
(1.33901e-08 7.6481e-09 -1.47737e-08)
(2.37833e-08 9.39723e-09 -1.27355e-08)
(3.60059e-08 1.17881e-08 -1.0026e-08)
(5.04858e-08 1.48573e-08 -6.85743e-09)
(6.75904e-08 1.88226e-08 -3.27909e-09)
(8.77649e-08 2.40511e-08 8.56101e-10)
(1.11023e-07 3.08825e-08 5.76364e-09)
(1.36112e-07 3.9541e-08 1.15407e-08)
(1.62596e-07 5.00412e-08 1.83751e-08)
(3.44348e-09 1.33586e-08 -1.76073e-08)
(1.08893e-08 1.45656e-08 -1.60814e-08)
(1.95654e-08 1.66142e-08 -1.34151e-08)
(3.00483e-08 1.91412e-08 -1.01339e-08)
(4.28124e-08 2.21199e-08 -6.61878e-09)
(5.82109e-08 2.58854e-08 -2.97743e-09)
(7.64399e-08 3.09419e-08 9.16737e-10)
(9.78334e-08 3.78143e-08 5.36431e-09)
(1.21456e-07 4.66102e-08 1.04805e-08)
(1.46351e-07 5.75528e-08 1.63786e-08)
(2.75989e-09 2.19263e-08 -1.98541e-08)
(8.79718e-09 2.3713e-08 -1.75037e-08)
(1.60372e-08 2.63482e-08 -1.37031e-08)
(2.50369e-08 2.90344e-08 -9.50328e-09)
(3.6327e-08 3.16934e-08 -5.5067e-09)
(5.03345e-08 3.48801e-08 -1.81653e-09)
(6.73037e-08 3.93436e-08 1.78311e-09)
(8.71378e-08 4.56738e-08 5.61662e-09)
(1.09231e-07 5.39624e-08 9.90433e-09)
(1.32526e-07 6.45125e-08 1.47925e-08)
(2.24535e-09 3.19535e-08 -2.31737e-08)
(7.20247e-09 3.51511e-08 -1.90838e-08)
(1.33115e-08 3.9067e-08 -1.32305e-08)
(2.11461e-08 4.19798e-08 -7.60975e-09)
(3.12592e-08 4.39147e-08 -3.03468e-09)
(4.4172e-08 4.59739e-08 5.76879e-10)
(6.02541e-08 4.93698e-08 3.70687e-09)
(7.94191e-08 5.48024e-08 6.85136e-09)
(1.00771e-07 6.22312e-08 1.03146e-08)
(1.22281e-07 7.11615e-08 1.41067e-08)
(9.12825e-09 -2.87917e-09 -1.86796e-08)
(2.7632e-08 -2.72196e-09 -1.86235e-08)
(4.67428e-08 -2.50864e-09 -1.85515e-08)
(6.74734e-08 -2.25618e-09 -1.85279e-08)
(9.08432e-08 -1.94191e-09 -1.8644e-08)
(1.17809e-07 -1.55265e-09 -1.90404e-08)
(1.49306e-07 -1.06533e-09 -1.9933e-08)
(1.86318e-07 -4.62286e-10 -2.16673e-08)
(2.29859e-07 2.66155e-10 -2.48066e-08)
(2.81153e-07 1.13181e-09 -3.03134e-08)
(8.45671e-09 -8.35066e-09 -1.94042e-08)
(2.59295e-08 -8.00557e-09 -1.93297e-08)
(4.44187e-08 -7.42994e-09 -1.92114e-08)
(6.45512e-08 -6.70664e-09 -1.91258e-08)
(8.72469e-08 -5.8053e-09 -1.91628e-08)
(1.13442e-07 -4.66261e-09 -1.94396e-08)
(1.43948e-07 -3.22045e-09 -2.01283e-08)
(1.79648e-07 -1.42342e-09 -2.14783e-08)
(2.21279e-07 7.66518e-10 -2.38268e-08)
(2.69387e-07 3.35725e-09 -2.75881e-08)
(7.53625e-09 -1.30088e-08 -2.08334e-08)
(2.31737e-08 -1.26067e-08 -2.07287e-08)
(4.00925e-08 -1.18449e-08 -2.05469e-08)
(5.89714e-08 -1.07708e-08 -2.03503e-08)
(8.0323e-08 -9.39745e-09 -2.02451e-08)
(1.04941e-07 -7.62629e-09 -2.03267e-08)
(1.33634e-07 -5.33633e-09 -2.07018e-08)
(1.66928e-07 -2.43295e-09 -2.14884e-08)
(2.0514e-07 1.14996e-09 -2.27805e-08)
(2.48372e-07 5.43288e-09 -2.45348e-08)
(6.39092e-09 -1.65981e-08 -2.29896e-08)
(1.97987e-08 -1.61643e-08 -2.28343e-08)
(3.4489e-08 -1.53471e-08 -2.25658e-08)
(5.12496e-08 -1.41203e-08 -2.2245e-08)
(7.06915e-08 -1.24497e-08 -2.19675e-08)
(9.31942e-08 -1.02376e-08 -2.18337e-08)
(1.19293e-07 -7.30749e-09 -2.19087e-08)
(1.49451e-07 -3.47982e-09 -2.22132e-08)
(1.83587e-07 1.34464e-09 -2.26952e-08)
(2.21324e-07 7.20911e-09 -2.31365e-08)
(5.13458e-09 -1.88148e-08 -2.59443e-08)
(1.60221e-08 -1.83874e-08 -2.57145e-08)
(2.82226e-08 -1.7576e-08 -2.53041e-08)
(4.23708e-08 -1.6371e-08 -2.48277e-08)
(5.91824e-08 -1.46622e-08 -2.4387e-08)
(7.9161e-08 -1.22685e-08 -2.40676e-08)
(1.02433e-07 -8.96616e-09 -2.39385e-08)
(1.29061e-07 -4.50825e-09 -2.39922e-08)
(1.58976e-07 1.30118e-09 -2.41255e-08)
(1.91483e-07 8.5375e-09 -2.41363e-08)
(3.85331e-09 -1.93126e-08 -2.9831e-08)
(1.21137e-08 -1.89062e-08 -2.94709e-08)
(2.16528e-08 -1.81682e-08 -2.88373e-08)
(3.30804e-08 -1.71193e-08 -2.81234e-08)
(4.69538e-08 -1.56385e-08 -2.75027e-08)
(6.39007e-08 -1.34289e-08 -2.7075e-08)
(8.42755e-08 -1.01207e-08 -2.68684e-08)
(1.07657e-07 -5.39475e-09 -2.68986e-08)
(1.33537e-07 1.01657e-09 -2.71208e-08)
(1.61562e-07 9.27636e-09 -2.73687e-08)
(2.61294e-09 -1.76909e-08 -3.48698e-08)
(8.32219e-09 -1.72839e-08 -3.42634e-08)
(1.52201e-08 -1.6641e-08 -3.32544e-08)
(2.39288e-08 -1.58963e-08 -3.21571e-08)
(3.49595e-08 -1.49168e-08 -3.12781e-08)
(4.87669e-08 -1.33117e-08 -3.0771e-08)
(6.58755e-08 -1.05094e-08 -3.06462e-08)
(8.63809e-08 -5.97397e-09 -3.08469e-08)
(1.08985e-07 5.60959e-10 -3.14097e-08)
(1.33355e-07 9.31091e-09 -3.22437e-08)
(1.48028e-09 -1.35204e-08 -4.14184e-08)
(4.85897e-09 -1.29982e-08 -4.03416e-08)
(9.30164e-09 -1.23966e-08 -3.86305e-08)
(1.54362e-08 -1.20807e-08 -3.68976e-08)
(2.38128e-08 -1.19508e-08 -3.5619e-08)
(3.48873e-08 -1.1421e-08 -3.50035e-08)
(4.89513e-08 -9.69343e-09 -3.50363e-08)
(6.6408e-08 -5.97804e-09 -3.55929e-08)
(8.64418e-08 7.44044e-11 -3.65614e-08)
(1.07983e-07 8.65793e-09 -3.80453e-08)
(5.18484e-10 -6.4353e-09 -5.0049e-08)
(1.89166e-09 -5.47512e-09 -4.80181e-08)
(4.2063e-09 -4.67789e-09 -4.49891e-08)
(8.05238e-09 -4.91503e-09 -4.21882e-08)
(1.4032e-08 -6.0903e-09 -4.03322e-08)
(2.26946e-08 -7.26958e-09 -3.96032e-08)
(3.44468e-08 -7.23364e-09 -3.98408e-08)
(4.93593e-08 -4.97241e-09 -4.07778e-08)
(6.70508e-08 -3.11611e-11 -4.2146e-08)
(8.62286e-08 7.67369e-09 -4.41196e-08)
(-2.33513e-10 3.64143e-09 -6.17481e-08)
(-4.32237e-10 5.91808e-09 -5.76406e-08)
(1.566e-10 7.54203e-09 -5.21828e-08)
(2.09115e-09 6.58321e-09 -4.76803e-08)
(5.99788e-09 3.34289e-09 -4.50771e-08)
(1.25665e-08 -4.58898e-10 -4.43273e-08)
(2.24199e-08 -2.87739e-09 -4.49257e-08)
(3.58101e-08 -2.52786e-09 -4.62952e-08)
(5.21921e-08 1.02351e-09 -4.79734e-08)
(6.96397e-08 7.23498e-09 -4.98604e-08)
(7.52411e-09 -5.5788e-09 -2.45385e-08)
(2.2831e-08 -5.38335e-09 -2.49667e-08)
(3.8795e-08 -5.17621e-09 -2.58527e-08)
(5.63408e-08 -4.98567e-09 -2.7277e-08)
(7.63909e-08 -4.76846e-09 -2.93843e-08)
(9.97977e-08 -4.50792e-09 -3.24055e-08)
(1.27376e-07 -4.16683e-09 -3.6684e-08)
(1.59949e-07 -3.71796e-09 -4.2732e-08)
(1.983e-07 -3.15627e-09 -5.13024e-08)
(2.43263e-07 -2.46938e-09 -6.35563e-08)
(6.82133e-09 -1.64134e-08 -2.55036e-08)
(2.09786e-08 -1.60664e-08 -2.59161e-08)
(3.61431e-08 -1.55613e-08 -2.67686e-08)
(5.29164e-08 -1.50478e-08 -2.81495e-08)
(7.21306e-08 -1.44778e-08 -3.02005e-08)
(9.46283e-08 -1.37481e-08 -3.31249e-08)
(1.21128e-07 -1.27781e-08 -3.72175e-08)
(1.52392e-07 -1.15016e-08 -4.2899e-08)
(1.89076e-07 -9.84582e-09 -5.06805e-08)
(2.31686e-07 -7.79028e-09 -6.11446e-08)
(5.78564e-09 -2.63603e-08 -2.74235e-08)
(1.78657e-08 -2.60842e-08 -2.7811e-08)
(3.11625e-08 -2.559e-08 -2.86223e-08)
(4.63428e-08 -2.49397e-08 -2.99296e-08)
(6.38888e-08 -2.41873e-08 -3.18779e-08)
(8.45153e-08 -2.31922e-08 -3.46455e-08)
(1.08953e-07 -2.17874e-08 -3.84672e-08)
(1.37698e-07 -1.98473e-08 -4.36085e-08)
(1.71112e-07 -1.72599e-08 -5.0326e-08)
(2.09513e-07 -1.39569e-08 -5.87433e-08)
(4.46407e-09 -3.53443e-08 -3.03422e-08)
(1.39264e-08 -3.51617e-08 -3.06965e-08)
(2.45754e-08 -3.48681e-08 -3.14512e-08)
(3.71743e-08 -3.43966e-08 -3.26821e-08)
(5.23112e-08 -3.37089e-08 -3.45187e-08)
(7.03432e-08 -3.27026e-08 -3.7124e-08)
(9.17476e-08 -3.11628e-08 -4.06822e-08)
(1.16981e-07 -2.88395e-08 -4.53645e-08)
(1.46076e-07 -2.55765e-08 -5.12586e-08)
(1.7892e-07 -2.1273e-08 -5.83008e-08)
(2.976e-09 -4.32034e-08 -3.43784e-08)
(9.4182e-09 -4.31637e-08 -3.46874e-08)
(1.70243e-08 -4.31204e-08 -3.53493e-08)
(2.64224e-08 -4.30571e-08 -3.64842e-08)
(3.83007e-08 -4.28015e-08 -3.822e-08)
(5.31484e-08 -4.21149e-08 -4.06988e-08)
(7.10599e-08 -4.07736e-08 -4.40925e-08)
(9.20927e-08 -3.84798e-08 -4.8527e-08)
(1.16276e-07 -3.49214e-08 -5.40369e-08)
(1.43107e-07 -2.99592e-08 -6.05468e-08)
(1.41716e-09 -4.97231e-08 -3.97365e-08)
(4.64774e-09 -4.98263e-08 -3.99558e-08)
(8.94195e-09 -5.0102e-08 -4.04652e-08)
(1.49005e-08 -5.0581e-08 -4.14465e-08)
(2.30853e-08 -5.10855e-08 -4.30722e-08)
(3.40847e-08 -5.12261e-08 -4.54989e-08)
(4.8236e-08 -5.05297e-08 -4.88458e-08)
(6.5131e-08 -4.86559e-08 -5.32337e-08)
(8.42551e-08 -4.53186e-08 -5.8761e-08)
(1.054e-07 -4.01507e-08 -6.53555e-08)
(-1.29517e-10 -5.46224e-08 -4.67277e-08)
(-1.00882e-10 -5.48093e-08 -4.67597e-08)
(8.15789e-10 -5.54125e-08 -4.70014e-08)
(3.23765e-09 -5.65786e-08 -4.77118e-08)
(7.68837e-09 -5.81483e-08 -4.91747e-08)
(1.46267e-08 -5.96094e-08 -5.15635e-08)
(2.45295e-08 -6.02288e-08 -5.49876e-08)
(3.74864e-08 -5.93159e-08 -5.95072e-08)
(5.22168e-08 -5.66631e-08 -6.5247e-08)
(6.84568e-08 -5.18485e-08 -7.21947e-08)
(-1.58246e-09 -5.75986e-08 -5.58174e-08)
(-4.5887e-09 -5.7686e-08 -5.54761e-08)
(-6.9138e-09 -5.84605e-08 -5.51645e-08)
(-7.94894e-09 -6.0409e-08 -5.53936e-08)
(-7.13503e-09 -6.34156e-08 -5.65707e-08)
(-3.97759e-09 -6.6725e-08 -5.89038e-08)
(1.84228e-09 -6.92982e-08 -6.24432e-08)
(1.0671e-08 -7.01175e-08 -6.72124e-08)
(2.18921e-08 -6.85929e-08 -7.31055e-08)
(3.43075e-08 -6.46832e-08 -8.03774e-08)
(-2.87631e-09 -5.84309e-08 -6.76802e-08)
(-8.59548e-09 -5.7902e-08 -6.65395e-08)
(-1.38594e-08 -5.83954e-08 -6.51319e-08)
(-1.81074e-08 -6.11595e-08 -6.44963e-08)
(-2.0732e-08 -6.61097e-08 -6.52303e-08)
(-2.11202e-08 -7.20233e-08 -6.7498e-08)
(-1.87475e-08 -7.72353e-08 -7.11875e-08)
(-1.33921e-08 -8.03166e-08 -7.61131e-08)
(-5.14402e-09 -8.03882e-08 -8.20052e-08)
(4.42557e-09 -7.7784e-08 -8.92748e-08)
(-3.96681e-09 -5.72836e-08 -8.33601e-08)
(-1.19394e-08 -5.4764e-08 -8.04162e-08)
(-1.97152e-08 -5.39289e-08 -7.69353e-08)
(-2.68199e-08 -5.75413e-08 -7.48679e-08)
(-3.26142e-08 -6.53021e-08 -7.49876e-08)
(-3.62934e-08 -7.49418e-08 -7.72439e-08)
(-3.70098e-08 -8.37349e-08 -8.1194e-08)
(-3.41289e-08 -8.95074e-08 -8.62959e-08)
(-2.76865e-08 -9.12214e-08 -9.20408e-08)
(-1.92667e-08 -8.94638e-08 -9.82863e-08)
(5.15986e-09 -8.18654e-09 -2.55214e-08)
(1.57179e-08 -7.96345e-09 -2.61879e-08)
(2.68935e-08 -7.7795e-09 -2.75183e-08)
(3.93939e-08 -7.67311e-09 -2.95513e-08)
(5.38821e-08 -7.58131e-09 -3.23833e-08)
(7.08915e-08 -7.48616e-09 -3.61834e-08)
(9.0811e-08 -7.34063e-09 -4.12077e-08)
(1.13841e-07 -7.11472e-09 -4.78366e-08)
(1.39833e-07 -6.81909e-09 -5.66091e-08)
(1.68113e-07 -6.4586e-09 -6.83187e-08)
(4.4756e-09 -2.42355e-08 -2.63993e-08)
(1.38397e-08 -2.3914e-08 -2.70616e-08)
(2.40818e-08 -2.35269e-08 -2.83875e-08)
(3.56835e-08 -2.32865e-08 -3.04181e-08)
(4.92395e-08 -2.31294e-08 -3.32475e-08)
(6.52969e-08 -2.29193e-08 -3.70244e-08)
(8.42059e-08 -2.25662e-08 -4.1974e-08)
(1.06208e-07 -2.20146e-08 -4.84281e-08)
(1.31313e-07 -2.11866e-08 -5.67718e-08)
(1.59243e-07 -2.00945e-08 -6.74384e-08)
(3.38963e-09 -3.94294e-08 -2.81417e-08)
(1.05658e-08 -3.93164e-08 -2.88003e-08)
(1.87575e-08 -3.9158e-08 -3.01338e-08)
(2.85273e-08 -3.90247e-08 -3.21697e-08)
(4.02202e-08 -3.90145e-08 -3.4996e-08)
(5.42984e-08 -3.89578e-08 -3.87455e-08)
(7.11746e-08 -3.8664e-08 -4.36127e-08)
(9.10105e-08 -3.80102e-08 -4.98222e-08)
(1.13831e-07 -3.68865e-08 -5.76056e-08)
(1.39726e-07 -3.5243e-08 -6.71268e-08)
(1.97033e-09 -5.39486e-08 -3.07696e-08)
(6.29421e-09 -5.40593e-08 -3.14333e-08)
(1.158e-08 -5.43654e-08 -3.27804e-08)
(1.84722e-08 -5.47545e-08 -3.4843e-08)
(2.74325e-08 -5.51885e-08 -3.76934e-08)
(3.86768e-08 -5.55794e-08 -4.14419e-08)
(5.24408e-08 -5.5708e-08 -4.62502e-08)
(6.89349e-08 -5.5302e-08 -5.22913e-08)
(8.80577e-08 -5.42097e-08 -5.96857e-08)
(1.09706e-07 -5.23573e-08 -6.84864e-08)
(3.32563e-10 -6.78772e-08 -3.43628e-08)
(1.30248e-09 -6.8265e-08 -3.50384e-08)
(3.16358e-09 -6.90569e-08 -3.63999e-08)
(6.46499e-09 -7.02275e-08 -3.85e-08)
(1.17668e-08 -7.15497e-08 -4.1401e-08)
(1.94313e-08 -7.27524e-08 -4.51927e-08)
(2.94009e-08 -7.36616e-08 -5.00218e-08)
(4.15659e-08 -7.39935e-08 -5.60298e-08)
(5.58579e-08 -7.33972e-08 -6.33064e-08)
(7.17998e-08 -7.17661e-08 -7.18871e-08)
(-1.4271e-09 -8.12848e-08 -3.90624e-08)
(-4.09334e-09 -8.19231e-08 -3.97368e-08)
(-6.02463e-09 -8.32458e-08 -4.11036e-08)
(-6.69106e-09 -8.52941e-08 -4.32385e-08)
(-5.60102e-09 -8.78485e-08 -4.62073e-08)
(-2.31517e-09 -9.04652e-08 -5.01069e-08)
(3.36591e-09 -9.26277e-08 -5.50372e-08)
(1.09565e-08 -9.40617e-08 -6.11228e-08)
(1.98046e-08 -9.45685e-08 -6.85134e-08)
(2.96679e-08 -9.36781e-08 -7.72177e-08)
(-3.21698e-09 -9.42402e-08 -4.50786e-08)
(-9.60361e-09 -9.50087e-08 -4.5714e-08)
(-1.55035e-08 -9.68196e-08 -4.70595e-08)
(-2.03579e-08 -9.98268e-08 -4.91972e-08)
(-2.36921e-08 -1.0388e-07 -5.22399e-08)
(-2.5125e-08 -1.08405e-07 -5.62621e-08)
(-2.43511e-08 -1.1259e-07 -6.13628e-08)
(-2.14107e-08 -1.1569e-07 -6.76321e-08)
(-1.76072e-08 -1.17692e-07 -7.52092e-08)
(-1.33137e-08 -1.18091e-07 -8.41357e-08)
(-4.95129e-09 -1.06918e-07 -5.27131e-08)
(-1.49955e-08 -1.07522e-07 -5.32394e-08)
(-2.4826e-08 -1.09479e-07 -5.44423e-08)
(-3.38996e-08 -1.13416e-07 -5.65114e-08)
(-4.17051e-08 -1.19256e-07 -5.95895e-08)
(-4.77828e-08 -1.26168e-07 -6.37501e-08)
(-5.1878e-08 -1.32991e-07 -6.90281e-08)
(-5.38489e-08 -1.38608e-07 -7.55164e-08)
(-5.41715e-08 -1.42309e-07 -8.31331e-08)
(-5.43126e-08 -1.44401e-07 -9.21763e-08)
(-6.57664e-09 -1.19768e-07 -6.23728e-08)
(-2.00329e-08 -1.19395e-07 -6.25995e-08)
(-3.35882e-08 -1.20672e-07 -6.34214e-08)
(-4.67478e-08 -1.2531e-07 -6.52618e-08)
(-5.89562e-08 -1.33335e-07 -6.83263e-08)
(-6.96136e-08 -1.43372e-07 -7.26406e-08)
(-7.81701e-08 -1.53463e-07 -7.81205e-08)
(-8.43523e-08 -1.61915e-07 -8.46755e-08)
(-8.80471e-08 -1.67544e-07 -9.21104e-08)
(-9.12477e-08 -1.71336e-07 -1.00913e-07)
(-8.061e-09 -1.33993e-07 -7.46348e-08)
(-2.45486e-08 -1.30517e-07 -7.40933e-08)
(-4.14735e-08 -1.2935e-07 -7.41037e-08)
(-5.84766e-08 -1.34301e-07 -7.54744e-08)
(-7.49639e-08 -1.4524e-07 -7.84616e-08)
(-9.0105e-08 -1.59539e-07 -8.29638e-08)
(-1.02935e-07 -1.73885e-07 -8.86997e-08)
(-1.12533e-07 -1.85474e-07 -9.53105e-08)
(-1.18464e-07 -1.92758e-07 -1.02414e-07)
(-1.21944e-07 -1.96462e-07 -1.09917e-07)
(2.77034e-09 -9.90094e-09 -2.10942e-08)
(8.52863e-09 -9.67557e-09 -2.17126e-08)
(1.48657e-08 -9.53542e-09 -2.29012e-08)
(2.22729e-08 -9.52179e-09 -2.46111e-08)
(3.11609e-08 -9.55531e-09 -2.6805e-08)
(4.17615e-08 -9.6157e-09 -2.94574e-08)
(5.40691e-08 -9.64954e-09 -3.25465e-08)
(6.7715e-08 -9.62778e-09 -3.60505e-08)
(8.1706e-08 -9.57843e-09 -3.99203e-08)
(9.40119e-08 -9.52922e-09 -4.40454e-08)
(2.1437e-09 -2.93913e-08 -2.15655e-08)
(6.74113e-09 -2.91345e-08 -2.2197e-08)
(1.2083e-08 -2.89113e-08 -2.3419e-08)
(1.85348e-08 -2.89631e-08 -2.51796e-08)
(2.64609e-08 -2.92065e-08 -2.74416e-08)
(3.61247e-08 -2.94773e-08 -3.01764e-08)
(4.75306e-08 -2.96802e-08 -3.33673e-08)
(6.04267e-08 -2.97764e-08 -3.70164e-08)
(7.42041e-08 -2.97002e-08 -4.10968e-08)
(8.77982e-08 -2.95139e-08 -4.5568e-08)
(1.07935e-09 -4.80889e-08 -2.24833e-08)
(3.5242e-09 -4.8162e-08 -2.31425e-08)
(6.7801e-09 -4.83683e-08 -2.44347e-08)
(1.13025e-08 -4.87609e-08 -2.63005e-08)
(1.73088e-08 -4.94489e-08 -2.86928e-08)
(2.50173e-08 -5.02334e-08 -3.1586e-08)
(3.453e-08 -5.09095e-08 -3.49793e-08)
(4.56758e-08 -5.13695e-08 -3.88772e-08)
(5.81108e-08 -5.15288e-08 -4.32935e-08)
(7.15825e-08 -5.13882e-08 -4.82665e-08)
(-3.39029e-10 -6.63694e-08 -2.38129e-08)
(-7.77751e-10 -6.6784e-08 -2.45261e-08)
(-4.74878e-10 -6.7685e-08 -2.59222e-08)
(1.0914e-09 -6.88975e-08 -2.79446e-08)
(4.25805e-09 -7.03525e-08 -3.05346e-08)
(9.10881e-09 -7.19555e-08 -3.36507e-08)
(1.56452e-08 -7.3487e-08 -3.7299e-08)
(2.38173e-08 -7.46767e-08 -4.15055e-08)
(3.33413e-08 -7.54067e-08 -4.62984e-08)
(4.39997e-08 -7.56666e-08 -5.17553e-08)
(-2.00721e-09 -8.45107e-08 -2.55264e-08)
(-5.88498e-09 -8.53273e-08 -2.6321e-08)
(-9.12572e-09 -8.69304e-08 -2.78674e-08)
(-1.12598e-08 -8.924e-08 -3.00961e-08)
(-1.18557e-08 -9.19469e-08 -3.29318e-08)
(-1.06764e-08 -9.47327e-08 -3.63186e-08)
(-7.91466e-09 -9.74616e-08 -4.02587e-08)
(-3.84439e-09 -9.98843e-08 -4.47847e-08)
(1.32872e-09 -1.0166e-07 -4.99346e-08)
(7.08568e-09 -1.02754e-07 -5.57835e-08)