/*--------------------------------*- C++ -*----------------------------------*\
| =========                 |                                                 |
| \\      /  F ield         | foam-extend: Open Source CFD                    |
|  \\    /   O peration     | Version:     3.1                                |
|   \\  /    A nd           | Web:         http://www.extend-project.de       |
|    \\/     M anipulation  |                                                 |
\*---------------------------------------------------------------------------*/
FoamFile
{
    version     2.0;
    format      ascii;
    class       surfaceScalarField;
    location    "0.0008";
    object      meshPhi;
}
// * * * * * * * * * * * * * * * * * * * * * * * * * * * * * * * * * * * * * //

dimensions      [0 3 -1 0 0 0 0];

internalField   nonuniform List<scalar> 
45800
(
2.35019e-10
2.35444e-10
1.47641e-10
4.53481e-10
2.33261e-10
1.54067e-10
6.50651e-10
2.27396e-10
1.68928e-10
8.26623e-10
2.20477e-10
1.91784e-10
9.81753e-10
2.13296e-10
2.22507e-10
1.11546e-09
2.05945e-10
2.61177e-10
1.22619e-09
1.98526e-10
3.0796e-10
1.31137e-09
1.91166e-10
3.62916e-10
1.36748e-09
1.83975e-10
4.2574e-10
1.75435e-10
4.95796e-10
1.39063e-09
2.3283e-10
4.53398e-10
1.54029e-10
4.51832e-10
4.52109e-10
1.59964e-10
6.51705e-10
4.44063e-10
1.74049e-10
8.30643e-10
4.32568e-10
1.95891e-10
9.88318e-10
4.19769e-10
2.25365e-10
1.12417e-09
4.06389e-10
2.62537e-10
1.2367e-09
3.92686e-10
3.07536e-10
1.3234e-09
3.78908e-10
3.60345e-10
1.38093e-09
3.65101e-10
4.2051e-10
3.48044e-10
4.86835e-10
1.40543e-09
2.27286e-10
6.4987e-10
1.68861e-10
4.43735e-10
6.51285e-10
1.74001e-10
6.44299e-10
6.44371e-10
1.8691e-10
8.25525e-10
6.31481e-10
2.07265e-10
9.85544e-10
6.15221e-10
2.34947e-10
1.12337e-09
5.97434e-10
2.70018e-10
1.23755e-09
5.7885e-10
3.12577e-10
1.32561e-09
5.59719e-10
3.62496e-10
1.38446e-09
5.40089e-10
4.19188e-10
5.15227e-10
4.81151e-10
1.4111e-09
2.20661e-10
8.25543e-10
1.91716e-10
4.32616e-10
8.29707e-10
1.95821e-10
6.31326e-10
8.25015e-10
2.07217e-10
8.13e-10
8.12986e-10
2.25676e-10
9.74588e-10
7.95501e-10
2.51108e-10
1.11396e-09
7.74703e-10
2.83566e-10
1.22934e-09
7.52242e-10
3.23133e-10
1.31831e-09
7.28718e-10
3.69638e-10
1.37807e-09
7.04053e-10
4.22439e-10
6.72297e-10
4.79764e-10
1.40692e-09
2.1352e-10
9.8058e-10
2.22452e-10
4.20116e-10
9.87231e-10
2.25304e-10
6.15406e-10
9.84662e-10
2.34884e-10
7.95421e-10
9.7413e-10
2.51063e-10
9.5693e-10
9.5697e-10
2.73824e-10
1.09705e-09
9.34666e-10
3.03235e-10
1.21305e-09
9.0905e-10
3.39364e-10
1.30223e-09
8.81574e-10
3.82049e-10
1.36212e-09
8.52461e-10
4.30683e-10
8.14835e-10
4.83186e-10
1.39268e-09
2.06144e-10
1.11427e-09
2.61138e-10
4.06776e-10
1.12306e-09
2.62492e-10
5.97886e-10
1.1224e-09
2.69963e-10
7.74962e-10
1.11323e-09
2.83507e-10
9.3454e-10
1.09677e-09
3.03194e-10
1.07383e-09
1.07412e-09
3.29152e-10
1.18961e-09
1.04637e-09
3.6145e-10
1.27828e-09
1.01517e-09
3.99934e-10
1.33722e-09
9.81615e-10
4.44057e-10
9.38978e-10
4.91437e-10
1.36854e-09
1.98708e-10
1.22507e-09
3.07934e-10
3.93039e-10
1.23566e-09
3.07504e-10
5.79357e-10
1.23663e-09
3.12535e-10
7.52827e-10
1.22856e-09
3.23084e-10
9.09367e-10
1.21248e-09
3.39309e-10
1.04603e-09
1.1895e-09
3.61389e-10
1.16001e-09
1.16042e-09
3.89431e-10
1.24724e-09
1.12624e-09
4.23261e-10
1.30423e-09
1.08827e-09
4.62301e-10
1.04137e-09
5.0403e-10
1.33504e-09
1.91333e-10
1.31041e-09
3.62902e-10
3.7923e-10
1.3225e-09
3.60323e-10
5.60188e-10
1.3248e-09
3.62463e-10
7.29343e-10
1.3176e-09
3.69592e-10
8.82252e-10
1.3016e-09
3.81981e-10
1.01532e-09
1.27778e-09
3.99806e-10
1.12585e-09
1.24709e-09
4.23127e-10
1.21019e-09
1.21037e-09
4.51629e-10
1.26432e-09
1.16874e-09
4.84695e-10
1.11911e-09
5.19952e-10
1.29338e-09
1.84118e-10
1.36673e-09
4.25735e-10
3.65375e-10
1.38023e-09
4.20497e-10
5.4048e-10
1.38384e-09
4.19162e-10
7.04551e-10
1.37753e-09
4.22392e-10
8.53057e-10
1.36164e-09
4.30605e-10
9.82045e-10
1.33678e-09
4.43905e-10
1.0883e-09
1.30388e-09
4.62112e-10
1.16862e-09
1.26421e-09
4.84596e-10
1.21952e-09
1.21959e-09
5.10587e-10
1.16996e-09
5.37797e-10
1.24612e-09
1.75548e-10
4.958e-10
1.39011e-09
3.48259e-10
4.86832e-10
1.40495e-09
5.15527e-10
4.81135e-10
1.41068e-09
6.7266e-10
4.79729e-10
1.40657e-09
8.15229e-10
4.83125e-10
1.39237e-09
9.39338e-10
4.91334e-10
1.36827e-09
1.04164e-09
5.03913e-10
1.33482e-09
1.11925e-09
5.19867e-10
1.29325e-09
1.16995e-09
5.37739e-10
1.24612e-09
5.55235e-10
1.19709e-09
1.19715e-09
6.99344e-10
7.00589e-10
2.28089e-10
1.35021e-09
6.94407e-10
2.39771e-10
1.93935e-09
6.77455e-10
2.66066e-10
2.46798e-09
6.57627e-10
3.06255e-10
2.93819e-09
6.37355e-10
3.60117e-10
3.3495e-09
6.16968e-10
4.27802e-10
3.69885e-09
5.96863e-10
5.09611e-10
3.98042e-09
5.77561e-10
6.05682e-10
4.18575e-09
5.59581e-10
7.15509e-10
5.38827e-10
8.37959e-10
4.30544e-09
6.93135e-10
1.34993e-09
2.39703e-10
1.34595e-09
1.34673e-09
2.50546e-10
1.94346e-09
1.32384e-09
2.75508e-10
2.48122e-09
1.29117e-09
3.13941e-10
2.95934e-09
1.25523e-09
3.65641e-10
3.37739e-09
1.21836e-09
4.30734e-10
3.73246e-09
1.18149e-09
5.0946e-10
4.01887e-09
1.14563e-09
6.01818e-10
4.22853e-09
1.11129e-09
7.0705e-10
1.06959e-09
8.23038e-10
4.35131e-09
6.77135e-10
1.937e-09
2.65946e-10
1.32289e-09
1.94215e-09
2.75419e-10
1.92302e-09
1.92316e-09
2.98354e-10
2.46811e-09
1.88715e-09
3.34217e-10
2.95367e-09
1.84196e-09
3.8281e-10
3.37806e-09
1.79335e-09
4.44259e-10
3.73846e-09
1.74383e-09
5.18754e-10
4.0291e-09
1.69451e-09
6.06102e-10
4.24257e-09
1.64602e-09
7.05309e-10
1.58523e-09
8.13734e-10
4.37074e-09
6.58208e-10
2.46475e-09
3.06134e-10
1.29135e-09
2.47839e-09
3.13816e-10
1.88675e-09
2.46649e-09
3.3413e-10
2.43397e-09
2.4338e-09
3.66714e-10
2.92489e-09
2.38603e-09
4.11413e-10
3.35448e-09
2.3298e-09
4.68326e-10
3.71892e-09
2.27047e-09
5.37627e-10
4.01258e-09
2.21041e-09
6.19044e-10
4.22879e-09
2.14999e-09
7.11482e-10
2.07253e-09
8.11859e-10
4.36275e-09
6.38065e-10
2.93469e-09
3.60021e-10
1.25634e-09
2.95607e-09
3.65535e-10
1.84258e-09
2.95096e-09
3.82697e-10
2.38589e-09
2.92337e-09
4.11329e-10
2.87759e-09
2.87753e-09
4.51404e-10
3.31025e-09
2.81815e-09
5.03038e-10
3.67719e-09
2.75109e-09
5.66367e-10
3.97198e-09
2.68137e-09
6.41133e-10
4.18882e-09
2.61054e-09
7.26306e-10
2.51913e-09
8.183e-10
4.3274e-09
6.17603e-10
3.34597e-09
4.27734e-10
1.2196e-09
3.37408e-09
4.30656e-10
1.7948e-09
3.3751e-09
4.44162e-10
2.33067e-09
3.35214e-09
4.68219e-10
2.81791e-09
3.30919e-09
5.02961e-10
3.24934e-09
3.24995e-09
5.48615e-10
3.61661e-09
3.17815e-09
6.05296e-10
3.91055e-09
3.09925e-09
6.72741e-10
4.12503e-09
3.01763e-09
7.50023e-10
2.91434e-09
8.33092e-10
4.26558e-09
5.97448e-10
3.69552e-09
5.09566e-10
1.18263e-09
3.72934e-09
5.09405e-10
1.74546e-09
3.73564e-09
5.18682e-10
2.27236e-09
3.71646e-09
5.37543e-10
2.75214e-09
3.67524e-09
5.66265e-10
3.17722e-09
3.6159e-09
6.05178e-10
3.54052e-09
3.54145e-09
6.5447e-10
3.83114e-09
3.45536e-09
7.13813e-10
4.04021e-09
3.36246e-09
7.82187e-10
3.24863e-09
8.55372e-10
4.17907e-09
5.781e-10
3.97753e-09
6.05656e-10
1.14668e-09
4.01616e-09
6.01781e-10
1.69603e-09
4.02661e-09
6.06046e-10
2.21245e-09
4.01032e-09
6.18966e-10
2.68356e-09
3.96986e-09
6.41015e-10
3.09976e-09
3.90867e-09
6.72506e-10
3.45429e-09
3.83022e-09
7.1356e-10
3.73725e-09
3.73748e-09
7.63608e-10
3.938e-09
3.63456e-09
8.21513e-10
3.51331e-09
8.83337e-10
4.07105e-09
5.60054e-10
4.18348e-09
7.15501e-10
1.1122e-09
4.2264e-09
7.0703e-10
1.64732e-09
4.24061e-09
7.05264e-10
2.15164e-09
4.22698e-09
7.11403e-10
2.61251e-09
4.18711e-09
7.26172e-10
3.01905e-09
4.12333e-09
7.49755e-10
3.36264e-09
4.03877e-09
7.81845e-10
3.63434e-09
3.9373e-09
8.21327e-10
3.82466e-09
3.82463e-09
8.66796e-10
3.70078e-09
9.14468e-10
3.9479e-09
5.39211e-10
8.37965e-10
4.30384e-09
1.07032e-09
8.23033e-10
4.34982e-09
1.58625e-09
8.13707e-10
4.36938e-09
2.07376e-09
8.118e-10
4.36149e-09
2.52047e-09
8.18195e-10
4.32622e-09
2.91556e-09
8.32912e-10
4.2645e-09
3.24955e-09
8.55164e-10
4.17813e-09
3.51379e-09
8.83183e-10
4.07037e-09
3.7008e-09
9.1436e-10
3.9476e-09
9.44835e-10
3.81958e-09
3.81957e-09
1.13931e-09
1.14129e-09
1.89925e-10
2.20185e-09
1.13198e-09
2.04886e-10
3.16829e-09
1.10571e-09
2.36866e-10
4.04304e-09
1.07548e-09
2.85045e-10
4.83226e-09
1.0454e-09
3.49195e-10
5.53845e-09
1.01619e-09
4.29544e-10
6.16057e-09
9.88747e-10
5.26553e-10
6.69385e-09
9.64315e-10
6.40554e-10
7.12949e-09
9.44233e-10
7.71219e-10
9.22565e-10
9.1756e-10
7.4574e-09
1.12995e-09
2.2013e-09
2.04806e-10
2.19649e-09
2.19765e-09
2.18787e-10
3.17734e-09
2.1631e-09
2.49212e-10
4.06774e-09
2.114e-09
2.9535e-10
4.87066e-09
2.06125e-09
3.56988e-10
5.58869e-09
2.00908e-09
4.3433e-10
6.22107e-09
1.95955e-09
5.27762e-10
6.76299e-09
1.91503e-09
6.37451e-10
7.20591e-09
1.87722e-09
7.62752e-10
1.83278e-09
9.01467e-10
7.53652e-09
1.10525e-09
3.16439e-09
2.36724e-10
2.16167e-09
3.17506e-09
2.49107e-10
3.14822e-09
3.14824e-09
2.7717e-10
4.05188e-09
3.09577e-09
3.20318e-10
4.86815e-09
3.03073e-09
3.78347e-10
5.59766e-09
2.96317e-09
4.51462e-10
6.23969e-09
2.89808e-09
5.39988e-10
6.78899e-09
2.83825e-09
6.43859e-10
7.23775e-09
2.78593e-09
7.62132e-10
2.72098e-09
8.91959e-10
7.57459e-09
1.07653e-09
4.03772e-09
2.84902e-10
2.11444e-09
4.063e-09
2.95201e-10
3.09532e-09
4.049e-09
3.20215e-10
4.00447e-09
4.00389e-09
3.59555e-10
4.83129e-09
3.93738e-09
4.13067e-10
5.5708e-09
3.86097e-09
4.80925e-10
6.22067e-09
3.7846e-09
5.63433e-10
6.77562e-09
3.71353e-09
6.60426e-10
7.22875e-09
3.64985e-09
7.70828e-10
3.56755e-09
8.91242e-10
7.57291e-09
1.04668e-09
4.82652e-09
3.4908e-10
2.06326e-09
4.86524e-09
3.56861e-10
3.03199e-09
4.8635e-09
3.78212e-10
3.93745e-09
4.82841e-09
4.12966e-10
4.76811e-09
4.76756e-09
4.61124e-10
5.51485e-09
4.68947e-09
5.22877e-10
6.17049e-09
4.60487e-09
5.98476e-10
6.72852e-09
4.5237e-09
6.8777e-10
7.18324e-09
4.45056e-09
7.89754e-10
4.35446e-09
9.00407e-10
7.53343e-09
1.01735e-09
5.53265e-09
4.29462e-10
2.01135e-09
5.5832e-09
4.34237e-10
2.96588e-09
5.59262e-09
4.51347e-10
3.86274e-09
5.5666e-09
4.80797e-10
4.68946e-09
5.51255e-09
5.22782e-10
5.43733e-09
5.43771e-09
5.7763e-10
6.09602e-09
5.34949e-09
6.45562e-10
6.65444e-09
5.25842e-09
7.264e-10
7.10631e-09
5.17413e-09
8.19254e-10
5.06625e-09
9.19541e-10
7.4587e-09
9.89831e-10
6.15512e-09
5.26497e-10
1.96167e-09
6.21587e-09
5.27696e-10
2.90112e-09
6.23485e-09
5.39903e-10
3.78813e-09
6.21625e-09
5.63333e-10
4.60697e-09
6.1667e-09
5.98353e-10
5.34835e-09
6.094e-09
6.45413e-10
6.00402e-09
6.00478e-09
7.04829e-10
6.55931e-09
5.90618e-09
7.76321e-10
7.00324e-09
5.80827e-09
8.58863e-10
5.68859e-09
9.47664e-10
7.35179e-09
9.65321e-10
6.68911e-09
6.40521e-10
1.91699e-09
6.75845e-09
6.37407e-10
2.84111e-09
6.78466e-09
6.43792e-10
3.71733e-09
6.77146e-09
6.60335e-10
4.52777e-09
6.72437e-09
6.87632e-10
5.25949e-09
6.65036e-09
7.26112e-10
5.90476e-09
6.55663e-09
7.7601e-10
6.44976e-09
6.44931e-09
8.36746e-10
6.88014e-09
6.33704e-09
9.0712e-10
6.20702e-09
9.82655e-10
7.21694e-09
9.45133e-10
7.12574e-09
7.71206e-10
1.87895e-09
7.20231e-09
7.62726e-10
2.7884e-09
7.23426e-09
7.62079e-10
3.653e-09
7.22529e-09
7.70736e-10
4.45429e-09
7.1797e-09
7.89599e-10
5.17679e-09
7.10258e-09
8.18937e-10
5.80881e-09
6.99983e-09
8.58453e-10
6.33708e-09
6.87808e-09
9.06894e-10
6.74799e-09
6.74734e-09
9.62686e-10
6.60653e-09
1.02145e-09
7.06139e-09
9.23321e-10
9.17565e-10
7.4547e-09
1.83421e-09
9.01459e-10
7.53392e-09
2.72298e-09
8.91928e-10
7.57206e-09
3.56996e-09
8.91174e-10
7.57038e-09
4.35707e-09
9.00286e-10
7.53088e-09
5.06862e-09
9.19331e-10
7.45618e-09
5.69046e-09
9.47421e-10
7.3495e-09
6.20808e-09
9.82468e-10
7.2151e-09
6.60677e-09
1.02131e-09
7.06017e-09
1.05937e-09
6.89747e-09
6.89698e-09
1.52613e-09
1.52872e-09
1.29792e-11
2.95261e-09
1.51729e-09
2.89652e-11
4.25674e-09
1.48401e-09
6.00201e-11
5.44789e-09
1.44645e-09
1.05371e-10
6.5382e-09
1.41033e-09
1.64817e-10
7.53572e-09
1.37689e-09
2.38617e-10
8.44477e-09
1.34775e-09
3.27285e-10
9.2654e-09
1.32508e-09
4.31322e-10
9.99272e-09
1.31138e-09
5.50771e-10
1.29952e-09
6.8529e-10
1.06202e-08
1.51463e-09
2.95178e-09
2.88989e-11
2.94753e-09
2.94894e-09
4.39768e-11
4.27203e-09
2.90652e-09
7.36175e-11
5.48517e-09
2.84659e-09
1.17147e-10
6.59496e-09
2.78416e-09
1.74372e-10
7.60955e-09
2.72556e-09
2.4552e-10
8.53355e-09
2.67431e-09
3.31041e-10
9.36681e-09
2.63457e-09
4.31277e-10
1.01042e-08
2.60991e-09
5.4597e-10
2.58352e-09
6.73618e-10
1.07321e-08
1.48346e-09
4.25142e-09
5.98967e-11
2.90476e-09
4.26878e-09
7.35284e-11
4.23884e-09
4.23861e-09
1.01033e-10
5.47161e-09
4.17705e-09
1.41887e-10
6.60098e-09
4.10211e-09
1.95914e-10
7.63257e-09
4.02825e-09
2.63333e-10
8.57085e-09
3.96337e-09
3.44537e-10
9.41464e-09
3.91264e-09
4.39649e-10
1.01593e-08
3.88072e-09
5.48125e-10
3.84173e-09
6.67816e-10
1.07919e-08
1.44799e-09
5.44069e-09
1.05239e-10
2.84739e-09
5.47867e-09
1.17015e-10
4.17674e-09
5.46743e-09
1.41798e-10
5.41966e-09
5.41847e-09
1.79259e-10
6.56572e-09
5.34541e-09
2.29284e-10
7.6129e-09
5.26476e-09
2.92074e-10
8.56342e-09
5.19153e-09
3.67995e-10
9.41577e-09
5.1347e-09
4.57076e-10
1.0166e-08
5.09911e-09
5.58635e-10
5.05054e-09
6.69961e-10
1.08054e-08
1.41223e-09
6.53046e-09
1.64709e-10
2.78718e-09
6.58758e-09
1.74255e-10
4.10417e-09
6.59445e-09
1.95794e-10
5.34595e-09
6.56136e-09
2.29197e-10
6.50077e-09
6.49942e-09
2.74496e-10
7.56077e-09
6.42136e-09
3.3192e-10
8.52144e-09
6.34333e-09
4.01798e-10
9.37959e-09
6.28106e-09
4.84162e-10
1.01326e-08
6.24344e-09
5.7838e-10
6.18878e-09
6.81103e-10
1.07778e-08
1.37865e-09
7.52793e-09
2.38536e-10
2.72897e-09
7.60209e-09
2.45432e-10
4.03236e-09
7.62552e-09
2.63228e-10
5.26766e-09
7.60674e-09
2.91961e-10
6.42192e-09
7.55692e-09
3.31839e-10
7.48777e-09
7.48748e-09
3.83218e-10
8.45608e-09
7.41031e-09
4.4641e-10
9.3172e-09
7.34193e-09
5.21432e-10
1.00677e-08
7.29848e-09
6.07739e-10
7.23855e-09
7.01386e-10
1.0714e-08
1.34939e-09
8.43743e-09
3.27229e-10
2.67751e-09
8.52648e-09
3.30976e-10
3.96797e-09
8.56405e-09
3.44457e-10
5.19689e-09
8.55694e-09
3.67905e-10
6.34673e-09
8.51552e-09
4.01689e-10
7.40931e-09
8.45222e-09
4.46279e-10
8.37832e-09
8.37834e-09
5.02073e-10
9.23837e-09
8.30565e-09
5.68995e-10
9.97926e-09
8.25056e-09
6.46374e-10
8.18219e-09
7.29999e-10
1.06184e-08
1.32661e-09
9.25902e-09
4.31286e-10
2.63757e-09
9.3606e-09
4.31232e-10
3.917e-09
9.40849e-09
4.39587e-10
5.14046e-09
9.40955e-09
4.56994e-10
6.28722e-09
9.37308e-09
4.84038e-10
7.34375e-09
9.31035e-09
5.21174e-10
8.30421e-09
9.23321e-09
5.68717e-10
9.15331e-09
9.15163e-09
6.26292e-10
9.87571e-09
9.07978e-09
6.93079e-10
8.99982e-09
7.65082e-10
1.04953e-08
1.31278e-09
9.98763e-09
5.50754e-10
2.6126e-09
1.00992e-08
5.45942e-10
3.88456e-09
1.01542e-08
5.48076e-10
5.10395e-09
1.01607e-08
5.58552e-10
6.24915e-09
1.01269e-08
5.78242e-10
7.30252e-09
1.00614e-08
6.07455e-10
8.25164e-09
9.97326e-09
6.46012e-10
9.08039e-09
9.87173e-09
6.9288e-10
9.77281e-09
9.77114e-09
7.46831e-10
9.66743e-09
8.03824e-10
1.03498e-08
1.30072e-09
6.8529e-10
1.06164e-08
2.5858e-09
6.73608e-10
1.07284e-08
3.84489e-09
6.67786e-10
1.07881e-08
5.05434e-09
6.69902e-10
1.08014e-08
6.19287e-09
6.80997e-10
1.07735e-08
7.24223e-09
7.01203e-10
1.07096e-08
8.18519e-09
7.29787e-10
1.06143e-08
9.00161e-09
7.64916e-10
1.04918e-08
9.66802e-09
8.03696e-10
1.03472e-08
8.41869e-10
1.0193e-08
1.01917e-08
1.82407e-09
1.82712e-09
-2.85734e-10
3.53185e-09
1.81432e-09
-2.70661e-10
5.09911e-09
1.77619e-09
-2.46266e-10
6.54023e-09
1.73388e-09
-2.13213e-10
7.87346e-09
1.69445e-09
-1.71719e-10
9.11295e-09
1.65965e-09
-1.21698e-10
1.02694e-08
1.63181e-09
-6.28915e-11
1.13492e-08
1.61409e-09
4.9798e-12
1.23534e-08
1.61016e-09
8.19833e-11
1.61212e-09
1.681e-10
1.32811e-08
1.8112e-09
3.53079e-09
-2.7069e-10
3.52756e-09
3.52914e-09
-2.56275e-10
5.12008e-09
3.48178e-09
-2.32857e-10
6.58843e-09
3.41529e-09
-2.00979e-10
7.94595e-09
3.34806e-09
-1.60878e-10
9.20693e-09
3.28827e-09
-1.12502e-10
1.03824e-08
3.24092e-09
-5.56273e-11
1.14782e-08
3.21201e-09
9.93102e-12
1.24947e-08
3.207e-09
8.40529e-11
3.2066e-09
1.65983e-10
1.34199e-08
1.77562e-09
5.0927e-09
-2.46335e-10
3.47981e-09
5.11607e-09
-2.329e-10
5.0855e-09
5.08502e-09
-2.10927e-10
6.57897e-09
5.01916e-09
-1.80804e-10
7.96148e-09
4.94055e-09
-1.42736e-10
9.24427e-09
4.86745e-09
-9.66901e-11
1.0438e-08
4.81054e-09
-4.24872e-11
1.15471e-08
4.77739e-09
1.99335e-11
1.25716e-08
4.77524e-09
9.02722e-11
4.77368e-09
1.67341e-10
1.34991e-08
1.73586e-09
6.53161e-09
-2.13301e-10
3.41646e-09
6.58056e-09
-2.01056e-10
5.01904e-09
6.57373e-09
-1.80849e-10
6.52718e-09
6.52541e-09
-1.52928e-10
7.93199e-09
6.45257e-09
-1.17416e-10
9.23549e-09
6.37606e-09
-7.42685e-11
1.04456e-08
6.3155e-09
-2.33289e-11
1.15658e-08
6.28353e-09
3.53991e-11
1.25969e-08
6.28793e-09
1.01538e-10
6.28775e-09
1.73501e-10
1.35296e-08
1.69688e-09
7.86422e-09
-1.71798e-10
3.35195e-09
7.93706e-09
-1.60958e-10
4.94336e-09
7.95344e-09
-1.42806e-10
6.4536e-09
7.92636e-09
-1.1746e-10
7.87222e-09
7.87009e-09
-8.4947e-11
9.19402e-09
7.80118e-09
-4.51624e-11
1.04186e-08
7.74078e-09
2.05291e-12
1.15475e-08
7.71006e-09
5.66922e-11
1.25826e-08
7.7222e-09
1.18397e-10
7.72643e-09
1.85118e-10
1.35201e-08
1.66192e-09
9.10368e-09
-1.21761e-10
3.29268e-09
9.19796e-09
-1.12567e-10
4.8728e-09
9.23563e-09
-9.67602e-11
6.38e-09
9.2277e-09
-7.43317e-11
7.80236e-09
9.18878e-09
-4.52007e-11
9.13526e-09
9.13424e-09
-9.18184e-12
1.03724e-08
9.08028e-09
3.39151e-11
1.15073e-08
9.04912e-09
8.41084e-11
1.25407e-08
9.06313e-09
1.41075e-10
9.07107e-09
2.02293e-10
1.3478e-08
1.63395e-09
1.02607e-08
-6.29401e-11
3.24509e-09
1.03739e-08
-5.56785e-11
4.81652e-09
1.04297e-08
-4.25438e-11
6.32249e-09
1.04373e-08
-2.33862e-11
7.7454e-09
1.04108e-08
1.99591e-12
9.07956e-09
1.03668e-08
3.38531e-11
1.03221e-08
1.03213e-08
7.24269e-11
1.14588e-08
1.02905e-08
1.17716e-10
1.2482e-08
1.02971e-08
1.69354e-10
1.03023e-08
2.24543e-10
1.34089e-08
1.6161e-09
1.13417e-08
4.94497e-12
3.21594e-09
1.14708e-08
9.89275e-12
4.78309e-09
1.15395e-08
1.9888e-11
6.29103e-09
1.15578e-08
3.53438e-11
7.71806e-09
1.15388e-08
5.66162e-11
9.05165e-09
1.14979e-08
8.39651e-11
1.02892e-08
1.14513e-08
1.17567e-10
1.14158e-08
1.14128e-08
1.57219e-10
1.24168e-08
1.1402e-08
2.02521e-10
1.13959e-08
2.50745e-10
1.33166e-08
1.61201e-09
1.23473e-08
8.19618e-11
3.21056e-09
1.24886e-08
8.40271e-11
4.78028e-09
1.25653e-08
9.02364e-11
6.29428e-09
1.259e-08
1.01484e-10
7.72964e-09
1.25749e-08
1.18311e-10
9.06837e-09
1.2532e-08
1.40907e-10
1.02988e-08
1.24735e-08
1.69153e-10
1.14032e-08
1.24109e-08
2.02417e-10
1.23651e-08
1.23624e-08
2.4002e-10
1.23198e-08
2.79129e-10
1.32035e-08
1.61373e-09
1.68091e-10
1.32766e-08
3.20964e-09
1.65969e-10
1.34154e-08
4.77789e-09
1.67318e-10
1.34943e-08
6.29281e-09
1.73462e-10
1.35243e-08
7.73184e-09
1.85054e-10
1.35143e-08
9.07592e-09
2.02186e-10
1.34719e-08
1.03063e-08
2.24424e-10
1.34031e-08
1.13983e-08
2.50652e-10
1.33116e-08
1.23208e-08
2.79053e-10
1.31995e-08
3.06805e-10
1.30772e-08
1.30751e-08
2.00073e-09
2.0041e-09
-6.57149e-10
3.87488e-09
1.99029e-09
-6.44008e-10
5.59699e-09
1.94895e-09
-6.29439e-10
7.18433e-09
1.9034e-09
-6.1396e-10
8.65894e-09
1.86153e-09
-5.97867e-10
1.0039e-08
1.82548e-09
-5.81423e-10
1.13395e-08
1.79806e-09
-5.64926e-10
1.25717e-08
1.7831e-09
-5.48732e-10
1.37409e-08
1.78507e-09
-5.33251e-10
1.79555e-09
-5.18827e-10
1.48513e-08
1.98686e-09
3.87375e-09
-6.43985e-10
3.8707e-09
3.87245e-09
-6.31145e-10
5.62085e-09
3.82152e-09
-6.1694e-10
7.23845e-09
3.75036e-09
-6.0175e-10
8.74015e-09
3.67941e-09
-5.85925e-10
1.01443e-08
3.6181e-09
-5.69756e-10
1.14662e-08
3.57243e-09
-5.53537e-10
1.27164e-08
3.54965e-09
-5.37611e-10
1.38991e-08
3.55652e-09
-5.22381e-10
3.5721e-09
-5.08228e-10
1.50051e-08
1.94836e-09
5.59001e-09
-6.29433e-10
3.8194e-09
5.61647e-09
-6.16922e-10
5.58463e-09
5.58406e-09
-6.03202e-10
7.23049e-09
5.51458e-09
-5.88503e-10
8.76035e-09
5.43266e-09
-5.73126e-10
1.01892e-08
5.35895e-09
-5.57399e-10
1.15318e-08
5.30597e-09
-5.41625e-10
1.27968e-08
5.28295e-09
-5.26131e-10
1.39881e-08
5.29887e-09
-5.1131e-10
5.32035e-09
-4.97578e-10
1.5095e-08
1.90563e-09
7.17497e-09
-6.13985e-10
3.75173e-09
7.22987e-09
-6.01751e-10
5.51455e-09
7.22471e-09
-5.88489e-10
7.1776e-09
7.17555e-09
-5.74368e-10
8.73308e-09
7.10154e-09
-5.5959e-10
1.01857e-08
7.02634e-09
-5.44434e-10
1.15473e-08
6.97251e-09
-5.29219e-10
1.28252e-08
6.95514e-09
-5.14274e-10
1.40238e-08
6.98402e-09
-4.99964e-10
7.01369e-09
-4.86773e-10
1.51349e-08
1.86429e-09
8.64894e-09
-5.97903e-10
3.68384e-09
8.73048e-09
-5.8595e-10
5.43591e-09
8.75152e-09
-5.73126e-10
7.10285e-09
8.72677e-09
-5.59575e-10
8.6751e-09
8.67257e-09
-5.45472e-10
1.01494e-08
8.60798e-09
-5.31008e-10
1.15284e-08
8.55741e-09
-5.16442e-10
1.28169e-08
8.54561e-09
-5.02108e-10
1.40206e-08
8.58855e-09
-4.88374e-10
8.62931e-09
-4.75827e-10
1.51361e-08
1.82806e-09
1.0029e-08
-5.81458e-10
3.62312e-09
1.01345e-08
-5.69787e-10
5.36504e-09
1.01797e-08
-5.57417e-10
7.0309e-09
1.0177e-08
-5.44428e-10
8.60952e-09
1.01435e-08
-5.30988e-10
1.00982e-08
1.00969e-08
-5.17272e-10
1.1493e-08
1.00563e-08
-5.03451e-10
1.27899e-08
1.00479e-08
-4.89783e-10
1.39929e-08
1.00981e-08
-4.76649e-10
1.01485e-08
-4.64814e-10
1.51075e-08
1.80051e-09
1.13301e-08
-5.64959e-10
3.57719e-09
1.1457e-08
-5.53565e-10
5.31278e-09
1.15227e-08
-5.41647e-10
6.98047e-09
1.15381e-08
-5.29229e-10
8.56277e-09
1.15195e-08
-5.16426e-10
1.00558e-08
1.14865e-08
-5.03417e-10
1.14591e-08
1.14579e-08
-4.9037e-10
1.27602e-08
1.14533e-08
-4.77452e-10
1.39532e-08
1.14994e-08
-4.64969e-10
1.15513e-08
-4.53854e-10
1.50559e-08
1.78541e-09
1.25636e-08
-5.48761e-10
3.55413e-09
1.27083e-08
-5.37636e-10
5.28944e-09
1.27885e-08
-5.2615e-10
6.96365e-09
1.28163e-08
-5.14288e-10
8.55469e-09
1.28071e-08
-5.02114e-10
1.00509e-08
1.2779e-08
-4.8976e-10
1.14521e-08
1.27513e-08
-4.77418e-10
1.2744e-08
1.27404e-08
-4.65277e-10
1.39134e-08
1.27696e-08
-4.53515e-10
1.28115e-08
-4.4311e-10
1.49852e-08
1.78718e-09
1.37344e-08
-5.33274e-10
3.56059e-09
1.38926e-08
-5.224e-10
5.30464e-09
1.39812e-08
-5.11325e-10
6.99125e-09
1.4016e-08
-4.99975e-10
8.59698e-09
1.40118e-08
-4.88385e-10
1.0104e-08
1.39828e-08
-4.7665e-10
1.15013e-08
1.39434e-08
-4.64943e-10
1.27711e-08
1.39066e-08
-4.53489e-10
1.38967e-08
1.38935e-08
-4.42459e-10
1.38926e-08
-4.32858e-10
1.48958e-08
1.7974e-09
-5.18844e-10
1.48465e-08
3.5756e-09
-5.08242e-10
1.50002e-08
5.32518e-09
-4.97589e-10
1.50896e-08
7.01948e-09
-4.86781e-10
1.51289e-08
8.63548e-09
-4.75832e-10
1.51294e-08
1.0154e-08
-4.64814e-10
1.51005e-08
1.15559e-08
-4.53845e-10
1.50492e-08
1.28143e-08
-4.43097e-10
1.49793e-08
1.38937e-08
-4.32853e-10
1.48912e-08
-4.23679e-10
1.47936e-08
1.47911e-08
2.03924e-09
2.04277e-09
-1.03496e-09
3.94754e-09
2.028e-09
-1.02348e-09
5.69743e-09
1.98461e-09
-1.01831e-09
7.30544e-09
1.93644e-09
-1.01973e-09
8.79334e-09
1.89159e-09
-1.02805e-09
1.01793e-08
1.85231e-09
-1.04379e-09
1.14786e-08
1.82152e-09
-1.06774e-09
1.27029e-08
1.80315e-09
-1.10081e-09
1.38581e-08
1.80177e-09
-1.14385e-09
1.80862e-09
-1.19756e-09
1.49495e-08
2.02443e-09
3.94656e-09
-1.02341e-09
3.94199e-09
3.94394e-09
-1.01186e-09
5.71995e-09
3.88963e-09
-1.00641e-09
7.35837e-09
3.81376e-09
-1.00723e-09
8.8735e-09
3.73732e-09
-1.01469e-09
1.02836e-08
3.66996e-09
-1.02935e-09
1.16044e-08
3.61792e-09
-1.05195e-09
1.28467e-08
3.58863e-09
-1.08329e-09
1.40156e-08
3.58905e-09
-1.12403e-09
3.59752e-09
-1.17421e-09
1.51031e-08
1.98394e-09
5.69056e-09
-1.01823e-09
3.88734e-09
5.71572e-09
-1.00634e-09
5.67971e-09
5.67935e-09
-1.00039e-09
7.34622e-09
5.60386e-09
-1.0004e-09
8.88955e-09
5.51457e-09
-1.00671e-09
1.03245e-08
5.43261e-09
-1.01993e-09
1.16663e-08
5.37082e-09
-1.04077e-09
1.29237e-08
5.33871e-09
-1.06989e-09
1.41015e-08
5.34551e-09
-1.10775e-09
5.35674e-09
-1.15404e-09
1.51906e-08
1.93865e-09
7.29618e-09
-1.01969e-09
3.81506e-09
7.34989e-09
-1.00715e-09
5.60367e-09
7.34061e-09
-1.00033e-09
7.28666e-09
7.28482e-09
-9.99262e-10
8.85544e-09
7.20228e-09
-1.0042e-09
1.03144e-08
7.11728e-09
-1.01566e-09
1.16753e-08
7.05285e-09
-1.03439e-09
1.29461e-08
7.02442e-09
-1.06097e-09
1.41317e-08
7.04206e-09
-1.09576e-09
7.05886e-09
-1.13816e-09
1.52261e-08
1.89435e-09
8.78346e-09
-1.02803e-09
3.74173e-09
8.86395e-09
-1.01465e-09
5.51775e-09
8.88086e-09
-1.00664e-09
7.20343e-09
8.84934e-09
-1.00412e-09
8.78841e-09
8.78613e-09
-1.00739e-09
1.0269e-08
8.71082e-09
-1.01688e-09
1.16477e-08
8.64847e-09
-1.03322e-09
1.29296e-08
8.6243e-09
-1.05702e-09
1.4121e-08
8.65453e-09
-1.08864e-09
8.68044e-09
-1.12722e-09
1.52208e-08
1.8549e-09
1.01694e-08
-1.04379e-09
3.67499e-09
1.0274e-08
-1.02934e-09
5.43868e-09
1.03152e-08
-1.01989e-09
7.12176e-09
1.03059e-08
-1.01559e-09
8.71217e-09
1.02633e-08
-1.01681e-09
1.02068e-08
1.02058e-08
-1.02405e-09
1.16016e-08
1.01529e-08
-1.03781e-09
1.28924e-08
1.01314e-08
-1.05859e-09
1.40838e-08
1.0168e-08
-1.08682e-09
1.02024e-08
-1.12148e-09
1.51838e-08
1.82398e-09
1.14694e-08
-1.06775e-09
3.62268e-09
1.15953e-08
-1.05195e-09
5.37762e-09
1.16573e-08
-1.04075e-09
7.06078e-09
1.16663e-08
-1.03435e-09
8.65376e-09
1.16391e-08
-1.03314e-09
1.01521e-08
1.15954e-08
-1.03769e-09
1.15554e-08
1.15545e-08
-1.04855e-09
1.28509e-08
1.15367e-08
-1.06605e-09
1.40333e-08
1.15692e-08
-1.09044e-09
1.16049e-08
-1.1207e-09
1.51224e-08
1.80546e-09
1.26949e-08
-1.10082e-09
3.59311e-09
1.28388e-08
-1.0833e-09
5.34518e-09
1.29155e-08
-1.06988e-09
7.03289e-09
1.29374e-08
-1.06094e-09
8.63333e-09
1.292e-08
-1.05696e-09
1.01343e-08
1.28819e-08
-1.05841e-09
1.15353e-08
1.28425e-08
-1.06585e-09
1.28222e-08
1.28189e-08
-1.07944e-09
1.3982e-08
1.28352e-08
-1.09917e-09
1.2862e-08
-1.12416e-09
1.50411e-08
1.80388e-09
1.38518e-08
-1.14386e-09
3.59311e-09
1.40092e-08
-1.12403e-09
5.35124e-09
1.40947e-08
-1.10774e-09
7.04923e-09
1.41242e-08
-1.09572e-09
8.66288e-09
1.41125e-08
-1.08857e-09
1.01738e-08
1.40741e-08
-1.08666e-09
1.1571e-08
1.40238e-08
-1.0902e-09
1.28366e-08
1.39755e-08
-1.09903e-09
1.3954e-08
1.39511e-08
-1.11285e-09
1.39381e-08
-1.13069e-09
1.49421e-08
1.81047e-09
-1.19757e-09
1.49448e-08
3.60099e-09
-1.17422e-09
1.50984e-08
5.36152e-09
-1.15404e-09
1.51855e-08
7.06458e-09
-1.13813e-09
1.52204e-08
8.68652e-09
-1.12717e-09
1.52144e-08
1.02078e-08
-1.12137e-09
1.51771e-08
1.16093e-08
-1.12057e-09
1.5116e-08
1.28647e-08
-1.12405e-09
1.50355e-08
1.39391e-08
-1.13061e-09
1.49376e-08
-1.13854e-09
1.48317e-08
1.48294e-08
1.94622e-09
1.94978e-09
-1.35526e-09
3.76264e-09
1.9341e-09
-1.34405e-09
5.41888e-09
1.88969e-09
-1.34456e-09
6.92707e-09
1.83938e-09
-1.35672e-09
8.30473e-09
1.7909e-09
-1.38062e-09
9.56606e-09
1.7463e-09
-1.4167e-09
1.07225e-08
1.70824e-09
-1.46568e-09
1.17821e-08
1.68018e-09
-1.52841e-09
1.27478e-08
1.66613e-09
-1.60547e-09
1.65731e-09
-1.69719e-09
1.36222e-08
1.93051e-09
3.76207e-09
-1.34395e-09
3.75428e-09
3.7565e-09
-1.33235e-09
5.43596e-09
3.69887e-09
-1.33207e-09
6.97196e-09
3.6181e-09
-1.34294e-09
8.37445e-09
3.53416e-09
-1.36514e-09
9.65775e-09
3.45605e-09
-1.39913e-09
1.08336e-08
3.38939e-09
-1.4456e-09
1.19095e-08
3.34081e-09
-1.50523e-09
1.2888e-08
3.31631e-09
-1.57832e-09
3.29483e-09
-1.6642e-09
1.37614e-08
1.88888e-09
5.41277e-09
-1.34443e-09
3.69636e-09
5.43242e-09
-1.33196e-09
5.38931e-09
5.38947e-09
-1.33037e-09
6.95003e-09
5.30545e-09
-1.33941e-09
8.37779e-09
5.20452e-09
-1.35922e-09
9.68351e-09
5.10645e-09
-1.39034e-09
1.08785e-08
5.02288e-09
-1.43343e-09
1.19687e-08
4.96228e-09
-1.48896e-09
1.29566e-08
4.93263e-09
-1.55697e-09
4.90083e-09
-1.63624e-09
1.38348e-08
1.84131e-09
6.91873e-09
-1.35663e-09
3.61902e-09
6.96442e-09
-1.34281e-09
5.30481e-09
6.94531e-09
-1.3393e-09
6.87821e-09
6.8771e-09
-1.34595e-09
8.3279e-09
6.77855e-09
-1.36283e-09
9.65489e-09
6.67244e-09
-1.39041e-09
1.08674e-08
6.57987e-09
-1.42938e-09
1.19703e-08
6.51456e-09
-1.48014e-09
1.29666e-08
6.48517e-09
-1.5426e-09
6.44718e-09
-1.61508e-09
1.38531e-08
1.79334e-09
8.29583e-09
-1.38057e-09
3.538e-09
8.36591e-09
-1.36506e-09
5.20708e-09
8.37018e-09
-1.35911e-09
6.77905e-09
8.32287e-09
-1.36272e-09
8.24097e-09
8.23959e-09
-1.37611e-09
9.58636e-09
8.13848e-09
-1.39965e-09
1.08146e-08
8.04259e-09
-1.43393e-09
1.19279e-08
7.97467e-09
-1.47942e-09
1.29304e-08
7.94867e-09
-1.53605e-09
7.90952e-09
-1.60169e-09
1.3825e-08
1.74858e-09
9.55719e-09
-1.41667e-09
3.46045e-09
9.6492e-09
-1.39909e-09
5.1117e-09
9.67531e-09
-1.39027e-09
6.6761e-09
9.64762e-09
-1.3903e-09
8.13908e-09
9.58189e-09
-1.39954e-09
9.4947e-09
9.49464e-09
-1.41852e-09
1.07363e-08
9.40358e-09
-1.4477e-09
1.18576e-08
9.3331e-09
-1.48745e-09
1.28608e-08
9.3067e-09
-1.53783e-09
9.26803e-09
-1.59633e-09
1.37586e-08
1.71039e-09
1.07143e-08
-1.46567e-09
3.39355e-09
1.08256e-08
-1.44557e-09
5.02881e-09
1.08707e-08
-1.43338e-09
6.58673e-09
1.08597e-08
-1.4293e-09
8.04696e-09
1.08074e-08
-1.43381e-09
9.40225e-09
1.07318e-08
-1.44753e-09
1.06493e-08
1.06496e-08
-1.47105e-09
1.17743e-08
1.05792e-08
-1.50455e-09
1.277e-08
1.05451e-08
-1.54789e-09
1.05032e-08
-1.59849e-09
1.36607e-08
1.6822e-09
1.1775e-08
-1.52841e-09
3.34471e-09
1.19025e-08
-1.50521e-09
4.96791e-09
1.19617e-08
-1.48892e-09
6.52193e-09
1.19629e-08
-1.48008e-09
7.98251e-09
1.19199e-08
-1.47931e-09
9.33543e-09
1.18491e-08
-1.48719e-09
1.05773e-08
1.17679e-08
-1.50426e-09
1.16937e-08
1.16917e-08
-1.53048e-09
1.26704e-08
1.16422e-08
-1.56546e-09
1.1592e-08
-1.6068e-09
1.35375e-08
1.66796e-09
1.27423e-08
-1.60547e-09
3.31982e-09
1.28825e-08
-1.57831e-09
4.93759e-09
1.29509e-08
-1.55694e-09
6.49137e-09
1.29604e-08
-1.54253e-09
7.95589e-09
1.29235e-08
-1.53593e-09
9.31171e-09
1.2853e-08
-1.53757e-09
1.05464e-08
1.27625e-08
-1.54754e-09
1.16429e-08
1.26655e-08
-1.56525e-09
1.25849e-08
1.25829e-08
-1.58997e-09
1.25046e-08
-1.61921e-09
1.33949e-08
1.65889e-09
-1.69719e-09
1.36182e-08
3.2978e-09
-1.6642e-09
1.37575e-08
4.90491e-09
-1.63622e-09
1.38306e-08
6.45206e-09
-1.61502e-09
1.38485e-08
7.9147e-09
-1.60159e-09
1.382e-08
9.2726e-09
-1.59616e-09
1.37533e-08
1.05069e-08
-1.59829e-09
1.36557e-08
1.15942e-08
-1.60663e-09
1.35332e-08
1.25052e-08
-1.61909e-09
1.33917e-08
-1.63249e-09
1.32435e-08
1.32419e-08
1.75141e-09
1.75491e-09
-1.57382e-09
3.37922e-09
1.73861e-09
-1.56103e-09
4.85011e-09
1.69449e-09
-1.56191e-09
6.16983e-09
1.64319e-09
-1.57598e-09
7.34943e-09
1.5916e-09
-1.60286e-09
8.3972e-09
1.54148e-09
-1.64247e-09
9.31899e-09