/*--------------------------------*- C++ -*----------------------------------*\
| =========                 |                                                 |
| \\      /  F ield         | foam-extend: Open Source CFD                    |
|  \\    /   O peration     | Version:     3.1                                |
|   \\  /    A nd           | Web:         http://www.extend-project.de       |
|    \\/     M anipulation  |                                                 |
\*---------------------------------------------------------------------------*/
FoamFile
{
    version     2.0;
    format      ascii;
    class       volScalarField;
    location    "0.0008";
    object      p;
}
// * * * * * * * * * * * * * * * * * * * * * * * * * * * * * * * * * * * * * //

dimensions      [0 2 -2 0 0 0 0];

internalField   nonuniform List<scalar> 
16000
(
1.28342
1.28346
1.28356
1.28372
1.28395
1.28428
1.28472
1.2853
1.28604
1.28697
1.28346
1.28351
1.28361
1.28377
1.284
1.28431
1.28474
1.28531
1.28603
1.28692
1.28356
1.28361
1.2837
1.28386
1.28409
1.2844
1.28483
1.28537
1.28607
1.28694
1.28372
1.28377
1.28386
1.28402
1.28424
1.28456
1.28497
1.28551
1.28619
1.28703
1.28395
1.284
1.28409
1.28424
1.28447
1.28478
1.28519
1.28572
1.28639
1.28721
1.28428
1.28431
1.2844
1.28456
1.28478
1.28509
1.2855
1.28602
1.28667
1.28746
1.28472
1.28474
1.28483
1.28497
1.28519
1.2855
1.2859
1.2864
1.28704
1.2878
1.2853
1.28531
1.28537
1.28551
1.28572
1.28602
1.2864
1.28689
1.2875
1.28822
1.28604
1.28603
1.28607
1.28619
1.28639
1.28667
1.28704
1.2875
1.28806
1.28872
1.28697
1.28692
1.28694
1.28703
1.28721
1.28746
1.2878
1.28822
1.28872
1.28929
1.18368
1.1838
1.18406
1.18448
1.18511
1.18601
1.18724
1.1889
1.19107
1.19385
1.1838
1.18392
1.18417
1.18458
1.1852
1.18607
1.18726
1.18885
1.19092
1.19358
1.18406
1.18417
1.18442
1.18483
1.18544
1.1863
1.18746
1.18901
1.19101
1.19356
1.18448
1.18459
1.18483
1.18525
1.18586
1.18671
1.18786
1.18938
1.19133
1.19378
1.18511
1.1852
1.18544
1.18586
1.18647
1.18733
1.18848
1.18998
1.19188
1.19427
1.18601
1.18607
1.1863
1.18671
1.18733
1.1882
1.18934
1.19083
1.1927
1.19502
1.18724
1.18726
1.18746
1.18786
1.18848
1.18934
1.19049
1.19196
1.1938
1.19606
1.1889
1.18885
1.18901
1.18938
1.18998
1.19083
1.19196
1.19341
1.19522
1.19741
1.19107
1.19092
1.19101
1.19133
1.19188
1.1927
1.1938
1.19522
1.19697
1.1991
1.19385
1.19358
1.19356
1.19378
1.19427
1.19502
1.19606
1.19741
1.1991
1.20114
1.08316
1.08329
1.08357
1.08405
1.0848
1.08592
1.08753
1.08979
1.09292
1.09714
1.08329
1.08342
1.0837
1.08417
1.08491
1.08599
1.08755
1.08972
1.0927
1.09671
1.08358
1.0837
1.08398
1.08446
1.0852
1.08628
1.08781
1.08994
1.09282
1.09667
1.08406
1.08417
1.08446
1.08496
1.08572
1.08681
1.08835
1.09045
1.09328
1.09701
1.0848
1.08491
1.0852
1.08572
1.08651
1.08763
1.08919
1.0913
1.0941
1.09775
1.08592
1.08599
1.08628
1.08682
1.08763
1.0888
1.09039
1.09253
1.09532
1.09893
1.08753
1.08755
1.08781
1.08835
1.08919
1.0904
1.09203
1.0942
1.09701
1.10058
1.08979
1.08972
1.08994
1.09045
1.0913
1.09253
1.0942
1.0964
1.09923
1.10279
1.09292
1.0927
1.09282
1.09328
1.0941
1.09532
1.09701
1.09923
1.10208
1.10563
1.09714
1.09671
1.09667
1.09701
1.09775
1.09893
1.10058
1.10279
1.10563
1.10918
0.981681
0.981713
0.981802
0.982003
0.982401
0.98312
0.984327
0.98625
0.989187
0.99353
0.981713
0.98175
0.981848
0.982058
0.98246
0.983168
0.984338
0.98618
0.98897
0.99307
0.981802
0.981848
0.981966
0.982204
0.982637
0.983369
0.984546
0.986362
0.989073
0.993012
0.982003
0.982058
0.982205
0.982486
0.98297
0.983756
0.984977
0.986816
0.989507
0.993356
0.982402
0.98246
0.982637
0.98297
0.983523
0.984385
0.985683
0.987584
0.990306
0.994126
0.98312
0.983169
0.983369
0.983756
0.984385
0.985341
0.98674
0.988736
0.99153
0.995374
0.984328
0.984339
0.984546
0.984978
0.985684
0.98674
0.988255
0.990371
0.993272
0.997183
0.986251
0.986181
0.986363
0.986816
0.987585
0.988737
0.990372
0.992622
0.995654
0.999669
0.989188
0.988971
0.989074
0.989508
0.990307
0.991531
0.993273
0.995655
0.998834
1.00298
0.993532
0.993072
0.993013
0.993357
0.994127
0.995375
0.997184
0.99967
1.00299
1.0073
0.879835
0.879648
0.879292
0.878816
0.878297
0.877843
0.877612
0.877825
0.878792
0.880947
0.879648
0.879479
0.879152
0.878714
0.878233
0.877813
0.877599
0.877796
0.878689
0.880678
0.879292
0.879152
0.878871
0.878492
0.878079
0.877729
0.877577
0.877815
0.878708
0.880621
0.878817
0.878714
0.878492
0.878191
0.877871
0.877623
0.877574
0.877903
0.878857
0.880774
0.878297
0.878233
0.878079
0.877871
0.877666
0.877547
0.877637
0.878102
0.879173
0.881163
0.877844
0.877813
0.877729
0.877623
0.877547
0.877582
0.87784
0.87848
0.879717
0.881843
0.877613
0.877599
0.877578
0.877575
0.877637
0.87784
0.878292
0.87914
0.880588
0.882903
0.877826
0.877797
0.877816
0.877904
0.878102
0.878481
0.879141
0.880224
0.881921
0.884476
0.878793
0.878691
0.878709
0.878858
0.879174
0.879718
0.880588
0.881921
0.883898
0.886745
0.880948
0.88068
0.880622
0.880776
0.881165
0.881844
0.882904
0.884477
0.886746
0.889946
0.779023
0.778515
0.777504
0.776014
0.77408
0.771751
0.769105
0.766255
0.76337
0.760705
0.778515
0.778044
0.777089
0.775672
0.773825
0.771596
0.769055
0.766308
0.763512
0.760898
0.777504
0.777089
0.77621
0.774889
0.773154
0.771051
0.768647
0.766042
0.763378
0.760874
0.776015
0.775672
0.774889
0.773683
0.772084
0.770133
0.767896
0.765465
0.762976
0.760632
0.77408
0.773825
0.773154
0.772084
0.770641
0.768868
0.766825
0.7646
0.762323
0.760186
0.771752
0.771596
0.771051
0.770134
0.768868
0.767295
0.765472
0.763484
0.761454
0.759566
0.769106
0.769056
0.768648
0.767897
0.766825
0.765472
0.763894
0.762172
0.760424
0.758824
0.766256
0.76631
0.766043
0.765466
0.764601
0.763484
0.762172
0.760744
0.75931
0.758039
0.763372
0.763513
0.76338
0.762977
0.762325
0.761455
0.760424
0.759311
0.758227
0.757331
0.760707
0.7609
0.760876
0.760634
0.760188
0.759568
0.758825
0.75804
0.757332
0.756877
0.681322
0.680452
0.6787
0.676052
0.672482
0.667954
0.662418
0.655807
0.648037
0.639007
0.680452
0.67964
0.677972
0.675436
0.672008
0.667655
0.662329
0.655971
0.648503
0.639833
0.6787
0.677972
0.676411
0.674007
0.670738
0.666571
0.661464
0.655362
0.648193
0.639876
0.676052
0.675436
0.674007
0.671756
0.668662
0.664695
0.659817
0.653975
0.647107
0.639139
0.672483
0.672009
0.670738
0.668662
0.665762
0.662011
0.657373
0.651801
0.645235
0.637616
0.667955
0.667655
0.666571
0.664695
0.662011
0.658495
0.654112
0.648819
0.642562
0.635292
0.662419
0.66233
0.661465
0.659817
0.657374
0.654112
0.650001
0.645002
0.639063
0.632148
0.655808
0.655972
0.655363
0.653976
0.651802
0.648819
0.645002
0.640314
0.634709
0.628158
0.648039
0.648504
0.648194
0.647108
0.645236
0.642563
0.639064
0.634709
0.62946
0.623297
0.63901
0.639835
0.639878
0.639141
0.637617
0.635294
0.632149
0.628159
0.623298
0.617568
0.589116
0.587925
0.585512
0.581832
0.576807
0.570319
0.562204
0.552232
0.540088
0.525335
0.587925
0.586809
0.584506
0.580974
0.576139
0.569894
0.562085
0.552501
0.540851
0.526739
0.585512
0.584506
0.58234
0.578974
0.574339
0.568336
0.560821
0.551599
0.5404
0.526862
0.581833
0.580974
0.578974
0.575795
0.571374
0.565616
0.558388
0.549508
0.538724
0.525709
0.576808
0.57614
0.574339
0.571374
0.567184
0.56168
0.554739
0.546188
0.535793
0.523258
0.57032
0.569895
0.568336
0.565616
0.56168
0.556446
0.549796
0.541569
0.531545
0.519455
0.562205
0.562086
0.560822
0.558389
0.554739
0.549796
0.54345
0.535549
0.525885
0.514217
0.552233
0.552502
0.5516
0.549509
0.546188
0.541569
0.535548
0.527984
0.518681
0.50742
0.540089
0.540853
0.540401
0.538726
0.535794
0.531545
0.525885
0.518681
0.509752
0.498903
0.525337
0.526741
0.526864
0.52571
0.523259
0.519456
0.514218
0.507421
0.498903
0.488494
0.504571
0.503168
0.500323
0.495974
0.49002
0.482306
0.472619
0.460663
0.446032
0.428174
0.503168
0.501853
0.499136
0.494961
0.489231
0.481806
0.472486
0.460998
0.446969
0.429893
0.500322
0.499136
0.496578
0.492597
0.487102
0.479962
0.470991
0.459937
0.446453
0.430076
0.495974
0.494961
0.492597
0.488833
0.483587
0.476734
0.468103
0.457456
0.444472
0.428729
0.49002
0.489232
0.487102
0.483587
0.478609
0.472054
0.463759
0.453504
0.440987
0.425825
0.482306
0.481806
0.479962
0.476734
0.472054
0.465813
0.457862
0.447991
0.435919
0.421298
0.472619
0.472487
0.470992
0.468103
0.463759
0.457861
0.450269
0.440787
0.42915
0.415042
0.460664
0.460999
0.459938
0.457457
0.453504
0.447991
0.440786
0.431709
0.42051
0.406903
0.446033
0.44697
0.446453
0.444473
0.440988
0.43592
0.42915
0.42051
0.40977
0.396671
0.428175
0.429894
0.430077
0.42873
0.425825
0.421298
0.415042
0.406903
0.396671
0.384113
0.429159
0.427685
0.424702
0.420154
0.413946
0.405944
0.395961
0.38375
0.368982
0.351228
0.427685
0.426306
0.42346
0.419097
0.413129
0.405431
0.395831
0.384099
0.369931
0.352933
0.424702
0.42346
0.420787
0.416635
0.410922
0.403534
0.394309
0.383036
0.369432
0.353136
0.420154
0.419097
0.416635
0.412723
0.407286
0.400218
0.391369
0.380543
0.367476
0.351841
0.413946
0.413129
0.410922
0.407286
0.402153
0.395423
0.386958
0.376575
0.364031
0.349027
0.405944
0.405431
0.403534
0.400218
0.395423
0.389057
0.380993
0.371061
0.359034
0.344644
0.395961
0.395831
0.394309
0.391369
0.386958
0.380993
0.373358
0.363894
0.352392
0.338611
0.383751
0.384099
0.383036
0.380543
0.376575
0.37106
0.363893
0.354929
0.343974
0.330811
0.368983
0.369931
0.369432
0.367476
0.364031
0.359034
0.352392
0.343973
0.333602
0.321087
0.351228
0.352933
0.353136
0.351841
0.349027
0.344644
0.338611
0.330811
0.321087
0.30927
0.36342
0.362006
0.359152
0.354821
0.348954
0.341467
0.332251
0.321173
0.308072
0.292761
0.362006
0.360685
0.357967
0.35382
0.348187
0.340992
0.332134
0.321489
0.308906
0.294214
0.359152
0.357967
0.355424
0.351492
0.346119
0.339235
0.330749
0.320543
0.308479
0.2944
0.354821
0.35382
0.351491
0.347809
0.342726
0.336177
0.328078
0.318323
0.306784
0.293318
0.348954
0.348187
0.346119
0.342725
0.337966
0.33178
0.324093
0.314807
0.303804
0.290959
0.341466
0.340992
0.339235
0.336177
0.33178
0.325994
0.318748
0.309956
0.29951
0.287302
0.332251
0.332134
0.330748
0.328078
0.324092
0.318747
0.311982
0.303718
0.293859
0.282311
0.321173
0.321489
0.320543
0.318323
0.314806
0.309955
0.303717
0.296025
0.286793
0.275941
0.308071
0.308906
0.308479
0.306783
0.303804
0.29951
0.293859
0.286793
0.278239
0.268133
0.29276
0.294213
0.294399
0.293317
0.290958
0.287301
0.282311
0.275941
0.268132
0.258835
0.307028
0.305759
0.303208
0.29936
0.294195
0.287687
0.279808
0.270539
0.259876
0.247848
0.305759
0.304576
0.302152
0.298474
0.293524
0.287277
0.279709
0.2708
0.260545
0.24897
0.303207
0.302152
0.299894
0.296422
0.29172
0.285767
0.27854
0.270021
0.260206
0.249118
0.29936
0.298474
0.296422
0.293195
0.288776
0.283149
0.276295
0.268198
0.258855
0.24829
0.294194
0.293524
0.29172
0.288776
0.28468
0.279416
0.272969
0.265328
0.256492
0.246487
0.287686
0.287276
0.285766
0.283149
0.279415
0.274554
0.268554
0.261407
0.253117
0.243711
0.279807
0.279708
0.278539
0.276294
0.272968
0.268553
0.263042
0.256433
0.248731
0.239967
0.270538
0.270799
0.27002
0.268197
0.265327
0.261406
0.256433
0.250408
0.243342
0.235269
0.259874
0.260544
0.260205
0.258854
0.256491
0.253116
0.24873
0.243341
0.236964
0.229637
0.247846
0.248968
0.249116
0.248288
0.246485
0.243709
0.239966
0.235268
0.229637
0.223117
0.259065
0.257976
0.255793
0.252522
0.248169
0.242749
0.236291
0.228844
0.220492
0.211372
0.257976
0.256963
0.254893
0.251772
0.247606
0.24241
0.236209
0.229049
0.221007
0.212206
0.255793
0.254893
0.252974
0.25004
0.246098
0.241163
0.235259
0.228429
0.220744
0.212316
0.252521
0.251771
0.250039
0.24733
0.24365
0.239013
0.233445
0.226985
0.219701
0.211697
0.248168
0.247605
0.246098
0.243649
0.240268
0.235968
0.230774
0.224726
0.217886
0.210355
0.242748
0.242409
0.241162
0.239012
0.235968
0.232043
0.227263
0.221667
0.215316
0.208304
0.236289
0.236208
0.235258
0.233444
0.230773
0.227263
0.222937
0.217835
0.212016
0.205569
0.228842
0.229048
0.228428
0.226984
0.224725
0.221666
0.217835
0.213269
0.208025
0.20219
0.220489
0.221005
0.220742
0.219699
0.217885
0.215315
0.212015
0.208025
0.2034
0.198222
0.211369
0.212203
0.212314
0.211695
0.210352
0.208302
0.205568
0.202189
0.198221
0.193747
0.21837
0.217455
0.215625
0.212896
0.209286
0.20483
0.199574
0.19359
0.186976
0.179876
0.217455
0.216605
0.214873
0.212271
0.208821
0.204551
0.199507
0.193752
0.18738
0.180518
0.215625
0.214872
0.213271
0.210833
0.207577
0.203531
0.198737
0.193255
0.187169
0.1806
0.212895
0.212271
0.210833
0.208591
0.205564
0.201777
0.197271
0.192101
0.186346
0.180116
0.209285
0.20882
0.207576
0.205564
0.202798
0.199305
0.195122
0.190302
0.184918
0.179072
0.204828
0.20455
0.20353
0.201776
0.199305
0.196139
0.192314
0.187881
0.182906
0.177486
0.199572
0.199505
0.198735
0.197269
0.195121
0.192314
0.18888
0.184867
0.180338
0.17538
0.193587
0.19375
0.193252
0.192099
0.190301
0.18788
0.184866
0.181304
0.177254
0.172795
0.186973
0.187376
0.187166
0.186343
0.184916
0.182904
0.180336
0.177253
0.17371
0.169781
0.179872
0.180514
0.180596
0.180112
0.179069
0.177483
0.175378
0.172793
0.16978
0.166409
0.183804
0.183037
0.181505
0.179223
0.176213
0.172508
0.168151
0.1632
0.15773
0.151835
0.183037
0.182324
0.180875
0.178701
0.175825
0.172276
0.168094
0.163333
0.158062
0.152369
0.181504
0.180874
0.179536
0.177501
0.174789
0.171428
0.167455
0.162919
0.157885
0.152433
0.179222
0.178701
0.177501
0.175633
0.173114
0.169972
0.166238
0.161961
0.157198
0.152024
0.176212
0.175824
0.174788
0.173114
0.170817
0.167921
0.164458
0.160469
0.15601
0.151147
0.172506
0.172274
0.171426
0.169971
0.167921
0.165298
0.162131
0.15846
0.154332
0.149811
0.168148
0.168092
0.167453
0.166237
0.164457
0.162131
0.159286
0.155956
0.152187
0.148035
0.163196
0.16333
0.162916
0.161959
0.160467
0.158459
0.155956
0.15299
0.149602
0.145841
0.157725
0.158058
0.157881
0.157195
0.156007
0.15433
0.152186
0.149601
0.146611
0.143262
0.15183
0.152364
0.152428
0.15202
0.151143
0.149808
0.148033
0.14584
0.143261
0.140338
0.154396
0.153747
0.152449
0.150516
0.147965
0.144818
0.141107
0.136865
0.132135
0.12696
0.153746
0.153143
0.151915
0.150074
0.147635
0.144621
0.141058
0.136979
0.132424
0.127432
0.152449
0.151915
0.150781
0.149056
0.146756
0.143899
0.140511
0.136622
0.132268
0.127486
0.150515
0.150074
0.149056
0.147471
0.145332
0.142657
0.139469
0.135795
0.131667
0.127121
0.147964
0.147634
0.146755
0.145332
0.143377
0.140907
0.137941
0.134505
0.130626
0.126339
0.144817
0.144619
0.143897
0.142656
0.140906
0.138661
0.135938
0.13276
0.129152
0.125144
0.141104
0.141055
0.140508
0.139467
0.13794
0.135937
0.133476
0.130575
0.127255
0.123544
0.136862
0.136976
0.136619
0.135793
0.134503
0.132759
0.130574
0.127965
0.124949
0.121549
0.13213
0.132419
0.132264
0.131664
0.130623
0.12915
0.127254
0.124948
0.122248
0.119172
0.126954
0.127426
0.127481
0.127116
0.126334
0.12514
0.123541
0.121547
0.119171
0.116431
0.129369
0.128812
0.1277
0.126039
0.123843
0.121124
0.1179
0.114188
0.110005
0.105363
0.128812
0.128295
0.127241
0.125659
0.123559
0.120953
0.117858
0.114289
0.110262
0.105789
0.127699
0.127241
0.126267
0.124783
0.122799
0.120327
0.11738
0.113974
0.110123
0.105838
0.126039
0.125659
0.124783
0.123417
0.121569
0.119249
0.11647
0.113245
0.109587
0.105508
0.123842
0.123558
0.122798
0.121568
0.119874
0.117725
0.115131
0.112105
0.108657
0.104798
0.121122
0.120951
0.120325
0.119248
0.117724
0.115762
0.11337
0.110558
0.107336
0.103712
0.117897
0.117855
0.117378
0.116468
0.11513
0.113369
0.111194
0.108611
0.105627
0.102251
0.114184
0.114285
0.113971
0.113242
0.112103
0.110557
0.10861
0.106267
0.103535
0.100418
0.11
0.110257
0.110118
0.109583
0.108654
0.107333
0.105625
0.103534
0.101062
0.0982147
0.105356
0.105783
0.105832
0.105502
0.104794
0.103708
0.102248
0.100416
0.0982136
0.0956455
0.108104
0.107624
0.106663
0.105226
0.103322
0.100956
0.0981399
0.0948801
0.0911833
0.0870512
0.107624
0.107177
0.106267
0.104897
0.103075
0.100807
0.0981026
0.0949686
0.0914111
0.0874325
0.106662
0.106266
0.105423
0.104138
0.102415
0.100261
0.0976845
0.0946917
0.0912881
0.0874761
0.105226
0.104896
0.104137
0.102951
0.101344
0.0993198
0.0968864
0.0940495
0.0908135
0.0871812
0.10332
0.103074
0.102414
0.101343
0.0998657
0.0979864
0.0957105
0.0930433
0.0899882
0.0865481
0.100954
0.100805
0.10026
0.0993186
0.0979857
0.0962647
0.0941598
0.0916751
0.0888133
0.085577
0.0981369
0.0980998
0.0976821
0.0968844
0.0957091
0.094159
0.0922374
0.0899473
0.0872901
0.0842684
0.0948761
0.0949649
0.0946883
0.0940465
0.0930409
0.0916734
0.0899463
0.0878615
0.0854195
0.0826225
0.091178
0.0914062
0.0912835
0.0908094
0.0899847
0.0888105
0.0872881
0.0854185
0.0832012
0.0806384
0.0870445
0.0874261
0.0874702
0.0871759
0.0865433
0.085573
0.0842653
0.0826202
0.0806373
0.0783185
0.0900954
0.0896803
0.0888495
0.0876068
0.0859567
0.0839047
0.0814568
0.0786187
0.0753951
0.0717893
0.0896802
0.0892942
0.0885069
0.0873217
0.0857428
0.0837752
0.0814245
0.0786959
0.075594
0.0721221
0.0888491
0.0885067
0.0877773
0.0866639
0.0851703
0.083301
0.0810609
0.0784549
0.075487
0.0721606
0.087606
0.0873211
0.0866636
0.0856358
0.084241
0.0824832
0.0803665
0.0778954
0.0750733
0.0719038
0.0859553
0.0857416
0.0851694
0.0842405
0.0829575
0.0813238
0.0793429
0.0770186
0.0743538
0.0713521
0.0839027
0.0837734
0.0832994
0.082482
0.0813231
0.0798255
0.0779921
0.0758258
0.0733292
0.0705059
0.0814539
0.0814218
0.0810585
0.0803646
0.0793415
0.0779913
0.0763164
0.074319
0.072001
0.069366
0.0786148
0.0786923
0.0784516
0.0778925
0.0770162
0.0758242
0.0743181
0.0724996
0.0703701
0.067933
0.07539
0.0755892
0.0754825
0.0750694
0.0743504
0.0733265
0.071999
0.0703691
0.0684374
0.0662078
0.0717827
0.0721159
0.0721548
0.0718985
0.0713475
0.070502
0.0693629
0.0679309
0.0662067
0.0641942
0.0749038
0.0745466
0.0738317
0.0727621
0.0713417
0.0695754
0.0674689
0.0650287
0.0622616
0.0591756
0.0745465
0.0742144
0.0735368
0.0725168
0.0711576
0.069464
0.0674412
0.0650951
0.0624322
0.05946
0.0738313
0.0735366
0.0729089
0.0719506
0.0706649
0.0690559
0.0671285
0.0648881
0.0623406
0.0594931
0.0727614
0.0725161
0.0719502
0.0710656
0.0698651
0.0683522
0.0665315
0.0644077
0.0619863
0.0592741
0.0713405
0.0711565
0.0706641
0.0698646
0.0687605
0.0673548
0.0656516
0.0636551
0.0613701
0.0588034
0.0695735
0.0694623
0.0690545
0.0683512
0.0673542
0.0660664
0.0644911
0.062632
0.0604935
0.0580821
0.0674663
0.0674387
0.0671263
0.0665297
0.0656503
0.0644903
0.0630527
0.0613408
0.0593583
0.0571116
0.0650251
0.0650917
0.064885
0.064405
0.0636529
0.0626304
0.06134
0.0597844
0.0579671
0.0558941
0.0622569
0.0624278
0.0623365
0.0619826
0.061367
0.060491
0.0593565
0.0579661
0.0563227
0.0544322
0.0591696
0.0594543
0.0594878
0.0592692
0.0587992
0.0580785
0.0571088
0.0558921
0.0544311
0.0527321
0.0621393
0.0618339
0.0612228
0.0603089
0.0590959
0.057589
0.0557942
0.0537194
0.0513735
0.0487677
0.0618338
0.0615499
0.0609708
0.0600993
0.0589388
0.057494
0.0557706
0.0537758
0.0515179
0.0490073
0.0612225
0.0609706
0.0604343
0.0596158
0.0585183
0.0571461
0.0555045
0.0536001
0.0514404
0.0490353
0.0603083
0.0600988
0.0596155
0.0588603
0.057836
0.0565465
0.0549966
0.0531923
0.0511406
0.0488508
0.0590948
0.0589378
0.0585176
0.0578356
0.0568943
0.0556972
0.0542487
0.052554
0.0506197
0.0484546
0.0575873
0.0574924
0.0571448
0.0565456
0.0556967
0.0546013
0.0532632
0.0516872
0.0498793
0.0478479
0.0557919
0.0557684
0.0555026
0.0549951
0.0542475
0.0532625
0.0520436
0.050595
0.0489221
0.0470328
0.0537162
0.0537728
0.0535974
0.05319
0.0525521
0.0516859
0.0505943
0.0492812
0.0477513
0.0460122
0.0513693
0.0515139
0.0514367
0.0511374
0.050617
0.0498771
0.0489205
0.0477505
0.0463712
0.0447901
0.0487624
0.0490022
0.0490306
0.0488466
0.0484509
0.0478447
0.0470303
0.0460105
0.0447892
0.0433737
0.0514516
0.0511923
0.0506735
0.0498979
0.0488694
0.0475932
0.0460758
0.0443252
0.0423513
0.0401662
0.0511922
0.0509511
0.0504595
0.0497201
0.0487363
0.0475128
0.0460558
0.0443727
0.0424726
0.0403667
0.0506732
0.0504594
0.0500042
0.0493101
0.04838
0.0472185
0.0458311
0.0442247
0.0424075
0.0403902
0.0498973
0.0497196
0.0493098
0.0486697
0.0478023
0.0467115
0.0454023
0.0438812
0.0421557
0.0402357
0.0488685
0.0487355
0.0483794
0.047802
0.0470056
0.0459938
0.0447713
0.0433439
0.0417184
0.0399041
0.0475918
0.0475116
0.0472175
0.0467107
0.0459934
0.0450687
0.0439408
0.0426149
0.0410973
0.0393967
0.0460738
0.046054
0.0458295
0.045401
0.0447704
0.0439403
0.0429145
0.0416975
0.0402952
0.0387157
0.0443226
0.0443703
0.0442224
0.0438793
0.0433423
0.0426138
0.0416969
0.0405959
0.0393158
0.0378643
0.0423479
0.0424694
0.0424045
0.0421531
0.0417161
0.0410955
0.0402939
0.0393151
0.0381636
0.0368465
0.0401618
0.0403626
0.0403863
0.0402322
0.039901
0.0393941
0.0387137
0.0378628
0.0368457
0.0356693
0.0425293
0.0423102
0.0418721
0.0412175
0.0403502
0.0392751
0.0379985
0.0365282
0.0348734
0.0330454
0.0423101
0.0421065
0.0416915
0.0410675
0.040238
0.0392074
0.0379817
0.0365681
0.034975
0.033213
0.0418719
0.0416914
0.0413073
0.0407217
0.0399378
0.0389597
0.0377929
0.0364438
0.0349204
0.0332325
0.0412171
0.0410672
0.0407215
0.0401819
0.0394512
0.0385331
0.0374326
0.0361556
0.0347095
0.0331034
0.0403495
0.0402374
0.0399373
0.0394509
0.0387805
0.0379296
0.0369026
0.035705
0.0343433
0.0328262
0.0392741
0.0392065
0.0389589
0.0385325
0.0379293
0.0371523
0.0362056
0.035094
0.0338236
0.0324023
0.0379971
0.0379804
0.0377916
0.0374316
0.0369019
0.0362052
0.035345
0.0343258
0.0331529
0.0318337
0.0365262
0.0365662
0.0364421
0.0361542
0.0357038
0.0350932
0.0343254
0.0334043
0.0323346
0.0311232
0.0348708
0.0349726
0.0349182
0.0347075
0.0343416
0.0338222
0.0331519
0.032334
0.0313728
0.0302746
0.0330421
0.0332099
0.0332297
0.0331008
0.032824
0.0324004
0.0318321
0.0311221
0.030274
0.0292939
0.0350987
0.0349145
0.034546
0.0339958
0.0332672
0.0323647
0.031294
0.030062
0.0286769
0.0271484
0.0349144
0.0347432
0.0343942
0.0338698
0.0331729
0.0323079
0.0312799
0.0300954
0.0287619
0.0272885
0.0345459
0.0343941
0.0340713
0.0335793
0.0329209
0.0321001
0.0311215
0.0299913
0.0287163
0.0273048
0.0339956
0.0338696
0.0335791
0.0331259
0.0325125
0.0317422
0.0308196
0.02975
0.0285398
0.0271969
0.0332667
0.0331725
0.0329206
0.0325123
0.0319498
0.0312362
0.0303756
0.0293727
0.0282335
0.0269652
0.032364
0.0323073
0.0320995
0.0317418
0.031236
0.0305848
0.0297918
0.0288614
0.0277988
0.0266109
0.031293
0.031279
0.0311208
0.0308189
0.0303751
0.0297916
0.0290715
0.0282188
0.0272381
0.0261357
0.0300607
0.0300942
0.0299902
0.0297491
0.029372
0.0288609
0.0282185
0.0274483
0.0265542
0.0255422
0.0286753
0.0287604
0.0287148
0.0285385
0.0282324
0.027798
0.0272375
0.0265539
0.0257507
0.0248333
0.0271464
0.0272866
0.027303
0.0271952
0.0269637
0.0266097
0.0261348
0.0255415
0.024833
0.0240142
0.0289237
0.0287692
0.0284603
0.0279991
0.0273886
0.0266328
0.0257367
0.0247061
0.0235481
0.0222706
0.0287692
0.0286256
0.028333
0.0278935
0.0273097
0.0265853
0.0257249
0.024734
0.0236191
0.0223877
0.0284602
0.028333
0.0280624
0.0276501
0.0270986
0.0264113
0.0255924
0.024647
0.0235809
0.0224013
0.027999
0.0278934
0.02765
0.0272704
0.0267566
0.0261118
0.0253398
0.0244452
0.0234334
0.0223111
0.0273884
0.0273095
0.0270985
0.0267565
0.0262856
0.0256884
0.0249684
0.0241298
0.0231774
0.0221175
0.0266325
0.026585
0.0264111
0.0261116
0.0256883
0.0251435
0.0244803
0.0237023
0.0228142
0.0218214
0.0257362
0.0257245
0.025592
0.0253395
0.0249682
0.0244801
0.0238781
0.0231652
0.0223456
0.0214244
0.0247055
0.0247334
0.0246465
0.0244448
0.0241294
0.0237021
0.0231651
0.0225213
0.0217741
0.0209285
0.0235473
0.0236184
0.0235803
0.0234329
0.023177
0.0228138
0.0223453
0.021774
0.0211028
0.0203361
0.0222697
0.0223868
0.0224005
0.0223104
0.0221169
0.0218209
0.021424
0.0209282
0.020336
0.0196516
0.0238018
0.0236725
0.0234142
0.0230285
0.0225182
0.0218865
0.0211378
0.0202771
0.0193102
0.018244
0.0236725
0.0235524
0.0233078
0.0229402
0.0224522
0.0218468
0.021128
0.0203004
0.0193696
0.0183417
0.0234142
0.0233078
0.0230815
0.0227368
0.0222758
0.0217015
0.0210173
0.0202278
0.0193377
0.0183531
0.0230285
0.0229402
0.0227368
0.0224194
0.02199
0.0214513
0.0208064
0.0200593
0.0192146
0.0182778
0.0225182
0.0224522
0.0222758
0.02199
0.0215965
0.0210976
0.0204963
0.019796
0.019001
0.0181163
0.0218865
0.0218468
0.0217015
0.0214513
0.0210976
0.0206426
0.0200887
0.0194392
0.0186978
0.0178692
0.0211378
0.021128
0.0210174
0.0208064
0.0204963
0.0200887
0.019586
0.0189909
0.0183068
0.017538
0.0202772
0.0203005
0.0202278
0.0200594
0.019796
0.0194393
0.018991
0.0184536
0.01783
0.0171242
0.0193104
0.0193697
0.0193378
0.0192147
0.0190011
0.0186979
0.0183069
0.01783
0.0172698
0.0166299
0.0182442
0.0183419
0.0183533
0.018278
0.0181165
0.0178694
0.0175381
0.0171243
0.01663
0.0160588
0.019561
0.0194532
0.0192375
0.0189157
0.01849
0.0179631
0.0173388
0.0166213
0.0158156
0.0149274
0.0194532
0.0193529
0.0191488
0.0188421
0.0184349
0.01793
0.0173306
0.0166408
0.0158651
0.0150088
0.0192376
0.0191488
0.01896
0.0186724
0.0182878
0.0178088
0.0172384
0.0165802
0.0158386
0.0150183
0.0189158
0.0188422
0.0186724
0.0184077
0.0180495
0.0176002
0.0170626
0.0164399
0.0157361
0.0149557
0.0184901
0.0184351
0.018288
0.0180496
0.0177214
0.0173055
0.0168041
0.0162205
0.0155581
0.0148212
0.0179634
0.0179303
0.017809
0.0176004
0.0173056
0.0169262
0.0164646
0.0159233
0.0153057
0.0146156
0.0173392
0.017331
0.0172388
0.0170629
0.0168044
0.0164647
0.0160458
0.01555
0.0149801
0.0143398
0.0166219
0.0166414
0.0165808
0.0164404
0.0162209
0.0159236
0.0155501
0.0151024
0.0145831
0.0139954
0.0158165
0.0158659
0.0158393
0.0157368
0.0155587
0.0153061
0.0149804
0.0145832
0.0141167
0.0135841
0.0149286
0.0150099
0.0150194
0.0149566
0.0148221
0.0146163
0.0143404
0.0139958
0.0135843
0.0131088
0.0160559
0.015966
0.0157865
0.0155185
0.015164
0.0147255
0.014206
0.0136092
0.0129393
0.0122012
0.0159661
0.0158826
0.0157125
0.0154572
0.0151182
0.014698
0.0141992
0.0136254
0.0129804
0.0122688
0.0157866
0.0157126
0.0155554
0.0153159
0.0149958
0.0145971
0.0141225
0.0135751
0.0129585
0.0122768
0.0155187
0.0154573
0.015316
0.0150956
0.0147975
0.0144236
0.0139763
0.0134585
0.0128733
0.0122248
0.0151643
0.0151185
0.014996
0.0147976
0.0145245
0.0141784
0.0137614
0.0132761
0.0127255
0.0121131
0.014726
0.0146984
0.0145975
0.0144239
0.0141786
0.013863
0.0134791
0.0130291
0.0125157
0.0119424
0.0142068
0.0141999
0.0141232
0.0139768
0.0137618
0.0134793
0.013131
0.0127188
0.0122453
0.0117134
0.0136103
0.0136264
0.013576
0.0134592
0.0132768
0.0130296
0.0127191
0.0123471
0.0119156
0.0114275
0.0129408
0.0129818
0.0129597
0.0128744
0.0127264
0.0125165
0.0122458
0.0119159
0.0115285
0.0110862
0.0122031
0.0122706
0.0122784
0.0122263
0.0121145
0.0119435
0.0117144
0.0114282
0.0110866
0.010692
0.0131635
0.0130888
0.0129396
0.0127169
0.0124224
0.0120582
0.0116269
0.0111316
0.0105759
0.00996385
0.0130888
0.0130195
0.0128782
0.012666
0.0123844
0.0120353
0.0116212
0.011145
0.01061
0.0100199
0.0129397
0.0128782
0.0127476
0.0125486
0.0122827
0.0119516
0.0115576
0.0111033
0.0105918
0.0100266
0.0127172
0.0126662
0.0125488
0.0123657
0.0121181
0.0118076
0.0114363
0.0110065
0.0105212
0.00998353
0.0124228
0.0123848
0.012283
0.0121182
0.0118915
0.0116041
0.011258
0.0108553
0.0103986
0.00989106
0.0120588
0.0120359
0.0119522
0.011808
0.0116043
0.0113424
0.0110238
0.0106505
0.0102248
0.00974965
0.0116278
0.0116221
0.0115584
0.0114369
0.0112585
0.0110241
0.0107351
0.0103933
0.0100007
0.00956006
0.0111329
0.0111463
0.0111044
0.0110075
0.0108561
0.0106511
0.0103936
0.0100852
0.00972763
0.00932336
0.0105777
0.0106117
0.0105933
0.0105226
0.0103998
0.0102258
0.0100014
0.009728
0.00940706
0.00904087
0.00996622
0.0100222
0.0100286
0.00998542
0.00989273
0.00975107
0.00956119
0.00932416
0.00904129
0.00871467
0.0107804
0.0107185
0.0105947
0.0104101
0.0101659
0.00986403
0.00950666
0.00909645
0.00863647
0.00813019
0.0107185
0.010661
0.0105438
0.0103678
0.0101344
0.00984509
0.00950201
0.0091076
0.0086647
0.00817658
0.0105949
0.0105439
0.0104355
0.0102706
0.0100502
0.00977577
0.00944933
0.00907308
0.00864966
0.00818209
0.0104103
0.0103681
0.0102707
0.0101189
0.00991372
0.00965646
0.00934887
0.00899302
0.00859129
0.00814654
0.0101664
0.0101348
0.0100505
0.0099139
0.00972598
0.00948791
0.00920126
0.00886788
0.00848994
0.00807011
0.00986476
0.00984576
0.00977633
0.00965688
0.00948815
0.0092712
0.0090074
0.00869842
0.00834621
0.00795324
0.00950772
0.00950299
0.00945019
0.00934959
0.00920178
0.00900768
0.00876848
0.00848565
0.00816092
0.00779658
0.00909792
0.00910897
0.00907432
0.00899409
0.00886875
0.00869905
0.00848599
0.00823086
0.00793517
0.00760103
0.00863843
0.00866654
0.00865135
0.0085928
0.00849124
0.00834725
0.00816166
0.00793557
0.00767028
0.00736773
0.00813275
0.008179
0.00818434
0.00814858
0.00807192
0.00795477
0.0077978
0.00760189
0.00736818
0.00709843
0.00881988
0.0087686
0.00866614
0.00851333
0.0083113
0.00806158
0.00776607
0.00742701
0.007047
0.00662899
0.00876864
0.008721
0.00862401
0.0084784
0.00828523
0.00804593
0.00776223
0.00743622
0.00707032
0.00666729
0.00866628
0.0086241
0.00853443
0.00839793
0.00821556
0.00798861
0.00771869
0.00740772
0.00705791
0.00667185
0.0085136
0.00847862
0.00839806
0.00827247
0.00810272
0.00788996
0.00763566
0.00734157
0.00700972
0.00664252
0.00831177
0.00828565
0.00821588
0.0081029
0.00794748
0.00775063
0.00751368
0.00723821
0.00692605
0.00657947
0.0080623
0.00804658
0.00798916
0.00789038
0.00775086
0.00757152
0.00735351
0.00709825
0.0068074
0.00648305
0.00776711
0.00776319
0.00771954
0.00763636
0.00751419
0.00735379
0.00715617
0.00692257
0.00665448
0.00635382
0.00742844
0.00743756
0.00740893
0.00734263
0.00723906
0.00709887
0.0069229
0.00671225
0.00646821
0.00619254
0.00704891
0.00707212
0.00705956
0.0070112
0.00692732
0.00680841
0.0066552
0.00646859
0.00624971
0.00600018
0.00663148
0.00666964
0.00667403
0.0066445
0.00658122
0.00648453
0.00635499
0.00619337
0.00600062
0.00577821
0.0072091
0.00716673
0.00708208
0.00695584
0.00678898
0.00658279
0.00633887
0.00605911
0.00574572
0.00540118
0.00716677
0.0071274
0.00704727
0.00692698
0.00676745
0.00656986
0.0063357
0.00606672
0.00576495
0.00543274
0.0070822
0.00704735
0.00697327
0.00686052
0.00670992
0.00652255
0.00629977
0.0060432
0.00575472
0.0054365