/*--------------------------------*- C++ -*----------------------------------*\
| =========                 |                                                 |
| \\      /  F ield         | foam-extend: Open Source CFD                    |
|  \\    /   O peration     | Version:     3.1                                |
|   \\  /    A nd           | Web:         http://www.extend-project.de       |
|    \\/     M anipulation  |                                                 |
\*---------------------------------------------------------------------------*/
FoamFile
{
    version     2.0;
    format      ascii;
    class       surfaceScalarField;
    location    "0.0008";
    object      phi;
}
// * * * * * * * * * * * * * * * * * * * * * * * * * * * * * * * * * * * * * //

dimensions      [0 3 -1 0 0 0 0];

internalField   nonuniform List<scalar> 
45800
(
1.00866e-11
9.87821e-12
2.14474e-08
2.16907e-11
1.0945e-11
2.11327e-08
3.57051e-11
1.35551e-11
2.08778e-08
5.10608e-11
1.66907e-11
2.06831e-08
6.64626e-11
2.00036e-11
2.05473e-08
8.07706e-11
2.34012e-11
2.04691e-08
9.29621e-11
2.67422e-11
2.04475e-08
1.02251e-10
2.97968e-11
2.04819e-08
1.0834e-10
3.22375e-11
2.05713e-08
3.44131e-11
2.07143e-08
1.11556e-10
1.11511e-11
2.16429e-11
2.11323e-08
2.25611e-11
2.23784e-11
2.08136e-08
3.54668e-11
2.57721e-11
2.05518e-08
4.95988e-11
3.05531e-11
2.0346e-08
6.39724e-11
3.57852e-11
2.01956e-08
7.74777e-11
4.10489e-11
2.00997e-08
8.91252e-11
4.60243e-11
2.00571e-08
9.82066e-11
5.02569e-11
2.0067e-08
1.04463e-10
5.32236e-11
2.01284e-08
5.55221e-11
2.02385e-08
1.09451e-10
1.36235e-11
3.58974e-11
2.08775e-08
2.59607e-11
3.55272e-11
2.05515e-08
3.83875e-11
3.82651e-11
2.02803e-08
5.13722e-11
4.32386e-11
2.00618e-08
6.46015e-11
4.92603e-11
1.98949e-08
7.71742e-11
5.53662e-11
1.97792e-08
8.8122e-11
6.09214e-11
1.97139e-08
9.68122e-11
6.53039e-11
1.96977e-08
1.02887e-10
6.7785e-11
1.97294e-08
6.91377e-11
1.98063e-08
1.08057e-10
1.6631e-11
5.13397e-11
2.0683e-08
3.05715e-11
4.98375e-11
2.03457e-08
4.33742e-11
5.14593e-11
2.00614e-08
5.57851e-11
5.56863e-11
1.98277e-08
6.8026e-11
6.15648e-11
1.96427e-08
7.97119e-11
6.79195e-11
1.95055e-08
9.00503e-11
7.3602e-11
1.94157e-08
9.83762e-11
7.76747e-11
1.93719e-08
1.04077e-10
7.92895e-11
1.93732e-08
7.93013e-11
1.94166e-08
1.08631e-10
1.992e-11
6.67537e-11
2.05474e-08
3.56651e-11
6.42484e-11
2.01956e-08
4.9232e-11
6.48256e-11
1.98946e-08
6.16813e-11
6.80997e-11
1.96424e-08
7.33951e-11
7.32685e-11
1.9437e-08
8.43257e-11
7.93769e-11
1.92769e-08
9.41163e-11
8.51187e-11
1.91608e-08
1.02171e-10
8.90212e-11
1.90879e-08
1.07498e-10
8.99342e-11
1.90574e-08
8.8625e-11
1.90667e-08
1.11185e-10
2.33233e-11
8.10562e-11
2.04692e-08
4.09008e-11
7.77482e-11
2.00997e-08
5.52049e-11
7.74247e-11
1.97792e-08
6.78606e-11
7.99025e-11
1.95053e-08
7.95234e-11
8.43368e-11
1.92765e-08
9.01497e-11
8.99026e-11
1.90914e-08
9.95805e-11
9.56386e-11
1.89477e-08
1.07539e-10
9.99285e-11
1.8844e-08
1.12808e-10
1.01124e-10
1.87799e-08
9.91988e-11
1.87542e-08
1.15823e-10
2.66685e-11
9.32225e-11
2.04476e-08
4.5883e-11
8.93727e-11
2.00572e-08
6.07215e-11
8.83557e-11
1.9714e-08
7.33728e-11
9.02706e-11
1.94157e-08
8.50312e-11
9.42957e-11
1.91604e-08
9.5911e-11
9.95705e-11
1.89471e-08
1.05663e-10
1.0539e-10
1.87738e-08
1.14158e-10
1.1071e-10
1.86379e-08
1.20176e-10
1.1404e-10
1.85383e-08
1.13479e-10
1.84759e-08
1.23108e-10
2.97283e-11
1.02465e-10
2.0482e-08
5.01249e-11
9.84119e-11
2.00671e-08
6.51126e-11
9.70144e-11
1.96978e-08
7.74172e-11
9.85885e-11
1.9372e-08
8.87481e-11
1.02419e-10
1.90878e-08
9.99652e-11
1.07807e-10
1.88434e-08
1.11004e-10
1.14286e-10
1.86373e-08
1.21768e-10
1.21673e-10
1.84666e-08
1.30544e-10
1.29665e-10
1.83295e-08
1.34842e-10
1.82286e-08
1.34596e-10
3.21773e-11
1.08492e-10
2.05714e-08
5.31094e-11
1.04609e-10
2.01285e-08
6.76247e-11
1.03037e-10
1.97295e-08
7.90901e-11
1.04245e-10
1.93733e-08
8.9704e-11
1.07704e-10
1.90574e-08
1.01029e-10
1.13074e-10
1.87798e-08
1.14126e-10
1.20428e-10
1.8538e-08
1.29776e-10
1.30638e-10
1.83293e-08
1.46029e-10
1.45979e-10
1.81517e-08
1.66739e-10
1.8008e-08
1.55029e-10
3.43642e-11
2.07144e-08
1.1165e-10
5.54313e-11
2.02385e-08
1.09541e-10
6.90154e-11
1.98064e-08
1.08152e-10
7.91606e-11
1.94166e-08
1.0874e-10
8.84865e-11
1.90668e-08
1.11316e-10
9.9104e-11
1.87542e-08
1.15975e-10
1.13413e-10
1.8476e-08
1.23258e-10
1.34829e-10
1.82285e-08
1.34717e-10
1.6681e-10
1.80078e-08
1.55101e-10
1.78168e-08
1.98069e-10
1.98074e-10
2.30426e-10
2.30241e-10
2.09867e-08
4.56368e-10
2.31754e-10
2.0675e-08
6.80935e-10
2.34741e-10
2.04185e-08
9.05048e-10
2.38528e-10
2.02204e-08
1.12908e-09
2.42805e-10
2.00804e-08
1.35315e-09
2.47402e-10
1.99976e-08
1.57692e-09
2.52071e-10
1.99717e-08
1.79956e-09
2.56486e-10
2.00027e-08
2.01958e-09
2.60366e-10
2.00909e-08
2.645e-10
2.02353e-08
2.2341e-09
2.31926e-10
4.56324e-10
2.06743e-08
4.58338e-10
4.58178e-10
2.03608e-08
6.82411e-10
4.62753e-10
2.00998e-08
9.05653e-10
4.69322e-10
1.9892e-08
1.12867e-09
4.77051e-10
1.97383e-08
1.35156e-09
4.85445e-10
1.96387e-08
1.57406e-09
4.94005e-10
1.95927e-08
1.79552e-09
5.02116e-10
1.95999e-08
2.01474e-09
5.09361e-10
1.96601e-08
5.18126e-10
1.97703e-08
2.22927e-09
2.34783e-10
6.8111e-10
2.04179e-08
4.62897e-10
6.8246e-10
2.00991e-08
6.87299e-10
6.87194e-10
1.98315e-08
9.09926e-10
6.95137e-10
1.96133e-08
1.13188e-09
7.05175e-10
1.94448e-08
1.35345e-09
7.16297e-10
1.93268e-08
1.57441e-09
7.27696e-10
1.92593e-08
1.7943e-09
7.38546e-10
1.92414e-08
2.01223e-09
7.48275e-10
1.92726e-08
7.60966e-10
1.93496e-08
2.22612e-09
2.38465e-10
9.05305e-10
2.02204e-08
4.69307e-10
9.05869e-10
1.98915e-08
6.95223e-10
9.09997e-10
1.96127e-08
9.18163e-10
9.1808e-10
1.93818e-08
1.13952e-09
9.29199e-10
1.91973e-08
1.36e-09
9.42042e-10
1.90593e-08
1.57962e-09
9.55302e-10
1.89684e-08
1.79804e-09
9.6789e-10
1.89242e-08
2.01453e-09
9.79173e-10
1.89258e-08
9.95048e-10
1.89699e-08
2.22713e-09
2.42727e-10
1.12935e-09
2.00806e-08
4.76926e-10
1.12892e-09
1.97383e-08
7.05107e-10
1.13209e-09
1.94444e-08
9.29258e-10
1.13958e-09
1.91967e-08
1.15077e-09
1.15066e-09
1.89941e-08
1.37049e-09
1.16415e-09
1.88351e-08
1.58888e-09
1.17844e-09
1.87192e-08
1.80593e-09
1.19192e-09
1.86468e-08
2.02103e-09
1.20384e-09
1.86176e-08
1.22205e-09
1.86286e-08
2.23218e-09
2.47329e-10
1.35341e-09
1.99978e-08
4.85304e-10
1.35181e-09
1.96389e-08
7.16126e-10
1.35369e-09
1.93268e-08
9.41928e-10
1.36018e-09
1.90589e-08
1.16422e-09
1.37049e-09
1.88344e-08
1.38378e-09
1.38355e-09
1.86524e-08
1.60113e-09
1.39795e-09
1.85108e-08
1.81684e-09
1.41166e-09
1.84085e-08
2.03075e-09
1.42349e-09
1.83463e-08
1.44315e-09
1.83231e-08
2.24074e-09
2.52002e-10
1.57716e-09
1.99719e-08
4.9387e-10
1.57429e-09
1.95929e-08
7.275e-10
1.57464e-09
1.92594e-08
9.55056e-10
1.57984e-09
1.89684e-08
1.17827e-09
1.58906e-09
1.87187e-08
1.3981e-09
1.6011e-09
1.85097e-08
1.61489e-09
1.61466e-09
1.83403e-08
1.82947e-09
1.62786e-09
1.82071e-08
2.04255e-09
1.63912e-09
1.81096e-08
1.65916e-09
1.80503e-08
2.25218e-09
2.56422e-10
1.79976e-09
2.00029e-08
5.01991e-10
1.79572e-09
1.96001e-08
7.38364e-10
1.79451e-09
1.92415e-08
9.67643e-10
1.79826e-09
1.89243e-08
1.19163e-09
1.8062e-09
1.86467e-08
1.41157e-09
1.8171e-09
1.84074e-08
1.628e-09
1.82957e-09
1.82059e-08
1.8419e-09
1.84185e-09
1.80387e-08
2.05468e-09
1.85197e-09
1.79038e-08
1.87059e-09
1.78064e-08
2.26548e-09
2.60309e-10
2.01973e-09
2.00911e-08
5.09253e-10
2.01489e-09
1.96603e-08
7.48122e-10
2.01239e-09
1.92728e-08
9.78984e-10
2.01472e-09
1.89259e-08
1.20363e-09
2.02125e-09
1.86178e-08
1.42337e-09
2.03104e-09
1.83461e-08
1.63909e-09
2.04281e-09
1.8109e-08
1.85199e-09
2.05478e-09
1.79034e-08
2.06412e-09
2.0641e-09
1.77274e-08
2.07785e-09
1.75857e-08
2.27918e-09
2.64453e-10
2.02355e-08
2.2342e-09
5.18038e-10
1.97705e-08
2.22937e-09
7.60846e-10
1.93497e-08
2.22623e-09
9.9491e-10
1.897e-08
2.22727e-09
1.22191e-09
1.86287e-08
2.23233e-09
1.44305e-09
1.83232e-08
2.24092e-09
1.65907e-09
1.80504e-08
2.25235e-09
1.87052e-09
1.78062e-08
2.26562e-09
2.07787e-09
1.75853e-08
2.27926e-09
1.73929e-08
2.2898e-09
2.28982e-09
4.62615e-10
4.62475e-10
2.00616e-08
9.14854e-10
4.65253e-10
1.97575e-08
1.36279e-09
4.70053e-10
1.95005e-08
1.81035e-09
4.76697e-10
1.92962e-08
2.26072e-09
4.85014e-10
1.91451e-08
2.71646e-09
4.94852e-10
1.9047e-08
3.17928e-09
5.05968e-10
1.90029e-08
3.64964e-09
5.18026e-10
1.90143e-08
4.12599e-09
5.30758e-10
1.90838e-08
5.4548e-10
1.92134e-08
4.60237e-09
4.65362e-10
9.14817e-10
1.97566e-08
9.19393e-10
9.19275e-10
1.94527e-08
1.36807e-09
9.27513e-10
1.91936e-08
1.81567e-09
9.3953e-10
1.89815e-08
2.2655e-09
9.54786e-10
1.88187e-08
2.72009e-09
9.72935e-10
1.87061e-08
3.18115e-09
9.9348e-10
1.86441e-08
3.64933e-09
1.01578e-09
1.8634e-08
4.12339e-09
1.03947e-09
1.86774e-08
1.0685e-09
1.87734e-08
4.59729e-09
4.70044e-10
1.36293e-09
1.94998e-08
9.27572e-10
1.3681e-09
1.91927e-08
1.37834e-09
1.37826e-09
1.893e-08
1.82673e-09
1.39411e-09
1.87103e-08
2.27635e-09
1.41478e-09
1.85352e-08
2.72984e-09
1.43952e-09
1.84067e-08
3.18888e-09
1.46766e-09
1.8326e-08
3.65423e-09
1.49829e-09
1.82935e-08
4.12496e-09
1.5309e-09
1.83104e-08
1.57232e-09
1.83752e-08
4.59549e-09
4.76629e-10
1.81057e-09
1.92961e-08
9.39451e-10
1.81585e-09
1.89809e-08
1.39411e-09
1.82676e-09
1.87095e-08
1.8449e-09
1.84484e-09
1.84803e-08
2.2954e-09
1.86931e-09
1.82923e-08
2.74848e-09
1.89901e-09
1.81467e-08
3.20605e-09
1.93285e-09
1.80457e-08
3.66887e-09
1.96978e-09
1.79899e-08
4.13612e-09
2.0092e-09
1.79802e-08
2.06108e-09
1.80149e-08
4.60232e-09
4.84947e-10
2.26095e-09
1.91453e-08
9.54657e-10
2.26573e-09
1.88188e-08
1.41464e-09
2.27651e-09
1.85346e-08
1.86926e-09
2.29541e-09
1.82915e-08
2.32199e-09
2.3219e-09
1.80887e-08
2.77553e-09
2.35486e-09
1.79257e-08
3.23201e-09
2.39268e-09
1.78029e-08
3.69259e-09
2.43379e-09
1.77222e-08
4.15648e-09
2.47773e-09
1.76852e-08
2.53789e-09
1.76901e-08
4.61814e-09
4.94789e-10
2.71669e-09
1.90473e-08
9.72813e-10
2.72031e-09
1.87063e-08
1.43934e-09
2.73005e-09
1.84067e-08
1.8988e-09
2.74864e-09
1.81462e-08
2.35481e-09
2.77547e-09
1.79248e-08
2.8099e-09
2.80966e-09
1.77425e-08
3.26588e-09
2.84965e-09
1.75978e-08
3.72432e-09
2.89302e-09
1.74909e-08
4.18506e-09
2.93901e-09
1.74243e-08
3.00481e-09
1.73987e-08
4.64249e-09
5.05909e-10
3.1795e-09
1.90032e-08
9.93363e-10
3.18136e-09
1.86443e-08
1.46748e-09
3.1891e-09
1.83262e-08
1.93259e-09
3.20628e-09
1.80457e-08
2.39236e-09
3.23218e-09
1.78022e-08
2.84958e-09
3.26573e-09
1.75964e-08
3.30585e-09
3.30563e-09
1.7428e-08
3.76249e-09
3.34927e-09
1.72942e-08
4.22029e-09
3.39492e-09
1.71959e-08
3.46288e-09
1.7138e-08
4.67445e-09
5.17972e-10
3.64983e-09
1.90146e-08
1.01568e-09
3.64952e-09
1.86343e-08
1.49814e-09
3.65443e-09
1.82937e-08
1.96957e-09
3.6691e-09
1.79901e-08
2.43349e-09
3.69288e-09
1.77221e-08
2.8927e-09
3.72451e-09
1.74894e-08
3.34913e-09
3.76245e-09
1.72927e-08
3.80421e-09
3.80419e-09
1.71287e-08
4.25935e-09
3.84682e-09
1.69968e-08
3.91177e-09
1.69046e-08
4.71222e-09
5.30711e-10
4.12614e-09
1.90841e-08
1.03938e-09
4.12354e-09
1.86777e-08
1.53077e-09
4.12513e-09
1.83107e-08
2.00905e-09
4.13632e-09
1.79804e-08
2.47758e-09
4.15672e-09
1.76854e-08
2.93886e-09
4.18532e-09
1.7424e-08
3.39469e-09
4.22049e-09
1.71951e-08
3.84666e-09
4.25938e-09
1.69963e-08
4.29723e-09
4.29722e-09
1.68264e-08
4.34948e-09
1.66924e-08
4.75276e-09
5.45441e-10
1.92137e-08
4.60248e-09
1.06843e-09
1.87736e-08
4.59741e-09
1.57223e-09
1.83755e-08
4.59562e-09
2.06097e-09
1.80151e-08
4.60247e-09
2.53778e-09
1.76903e-08
4.61831e-09
3.00473e-09
1.73989e-08
4.64267e-09
3.46277e-09
1.71382e-08
4.67462e-09
3.91161e-09
1.69044e-08
4.71234e-09
4.3494e-09
1.66919e-08
4.75278e-09
1.6508e-08
4.79188e-09
4.79188e-09
6.74186e-10
6.74097e-10
1.87134e-08
1.33292e-09
6.78092e-10
1.84207e-08
1.98541e-09
6.84687e-10
1.81633e-08
2.6391e-09
6.94271e-10
1.79482e-08
3.30076e-09
7.06899e-10
1.77765e-08
3.97668e-09
7.22538e-10
1.76486e-08
4.67254e-09
7.41105e-10
1.75659e-08
5.39308e-09
7.62486e-10
1.75313e-08
6.14125e-09
7.8678e-10
1.75488e-08
8.16227e-10
1.76233e-08
6.91517e-09
6.78128e-10
1.33288e-09
1.84197e-08
1.34003e-09
1.33995e-09
1.8129e-08
1.9946e-09
1.35198e-09
1.78718e-08
2.64931e-09
1.36976e-09
1.76513e-08
3.31097e-09
1.39322e-09
1.74708e-08
3.98569e-09
1.42238e-09
1.73315e-08
4.67903e-09
1.45703e-09
1.72348e-08
5.39571e-09
1.4969e-09
1.71829e-08
6.13876e-09
1.54229e-09
1.71788e-08
1.59917e-09
1.72239e-08
6.90525e-09
6.84622e-10
1.9855e-09
1.81625e-08
1.35195e-09
1.99457e-09
1.78708e-08
2.01062e-09
2.01055e-09
1.76127e-08
2.66785e-09
2.03501e-09
1.73879e-08
3.33046e-09
2.06751e-09
1.71983e-08
4.00464e-09
2.10793e-09
1.7047e-08
4.69571e-09
2.15612e-09
1.69359e-08
5.40827e-09
2.21167e-09
1.68662e-08
6.14545e-09
2.27487e-09
1.68407e-08
2.35585e-09
1.68598e-08
6.90422e-09
6.94206e-10
2.63925e-09
1.79481e-08
1.36962e-09
2.64942e-09
1.76507e-08
2.03492e-09
2.66781e-09
1.7387e-08
2.69713e-09
2.69706e-09
1.7156e-08
3.36267e-09
2.73678e-09
1.69575e-08
4.03773e-09
2.78634e-09
1.67933e-08
4.72779e-09
2.8454e-09
1.66663e-08
5.43724e-09
2.91369e-09
1.65784e-08
6.16902e-09
2.99156e-09
1.65318e-08
3.09358e-09
1.65264e-08
6.91976e-09
7.06856e-10
3.30092e-09
1.77767e-08
1.39311e-09
3.31113e-09
1.74708e-08
2.06731e-09
3.33056e-09
1.71977e-08
2.73665e-09
3.36259e-09
1.69567e-08
3.40735e-09
3.40723e-09
1.67476e-08
4.08502e-09
3.46384e-09
1.65705e-08
4.77514e-09
3.53139e-09
1.64268e-08
5.48246e-09
3.60924e-09
1.63193e-08
6.20972e-09
3.69835e-09
1.62512e-08
3.81818e-09
1.62222e-08
6.95302e-09
7.22498e-10
3.97685e-09
1.76488e-08
1.4223e-09
3.98585e-09
1.73317e-08
2.10777e-09
4.0048e-09
1.7047e-08
2.78605e-09
4.03782e-09
1.67927e-08
3.46367e-09
4.08485e-09
1.65696e-08
4.146e-09
4.1457e-09
1.63783e-08
4.83768e-09
4.21937e-09
1.62182e-08
5.54361e-09
4.304e-09
1.60902e-08
6.26719e-09
4.4005e-09
1.59986e-08
4.53422e-09
1.59456e-08
7.00422e-09
7.41069e-10
4.67271e-09
1.75662e-08
1.45695e-09
4.6792e-09
1.72351e-08
2.156e-09
4.69589e-09
1.69361e-08
2.84516e-09
4.72799e-09
1.66664e-08
3.53093e-09
4.77525e-09
1.6426e-08
4.21909e-09
4.83732e-09
1.62166e-08
4.91405e-09
4.91378e-09
1.60387e-08
5.61982e-09
5.00239e-09
1.58901e-08
6.3405e-09
5.10254e-09
1.57731e-08
5.24487e-09
1.56948e-08
7.07309e-09
7.62456e-10
5.39323e-09
1.75317e-08
1.49685e-09
5.39586e-09
1.71832e-08
2.21158e-09
5.40845e-09
1.68664e-08
2.91358e-09
5.43745e-09
1.65786e-08
3.60898e-09
5.48272e-09
1.63192e-08
4.30344e-09
5.54364e-09
1.60887e-08
5.00196e-09
5.61952e-09
1.58884e-08
5.70843e-09
5.70837e-09
1.57162e-08
6.42718e-09
5.8079e-09
1.55727e-08
5.95127e-09
1.54671e-08
7.1583e-09
7.86756e-10
6.14139e-09
1.75492e-08
1.54225e-09
6.13889e-09
1.71791e-08
2.27482e-09
6.1456e-09
1.6841e-08
2.9915e-09
6.16919e-09
1.6532e-08
3.69833e-09
6.2099e-09
1.62514e-08
4.40036e-09
6.26736e-09
1.59983e-08
5.1021e-09
6.34054e-09
1.57724e-08
5.80758e-09
6.42703e-09
1.55721e-08
6.52212e-09
6.52204e-09
1.53978e-08
6.65143e-09
1.52574e-08
7.25696e-09
8.16211e-10
1.76236e-08
6.91528e-09
1.59914e-09
1.72242e-08
6.90536e-09
2.35582e-09
1.686e-08
6.90434e-09
3.09355e-09
1.65267e-08
6.91989e-09
3.81816e-09
1.62224e-08
6.95316e-09
4.53422e-09
1.59459e-08
7.00434e-09
5.24478e-09
1.5695e-08
7.07319e-09
5.95102e-09
1.54669e-08
7.15832e-09
6.65126e-09
1.52569e-08
7.25683e-09
1.50735e-08
7.36864e-09
7.36858e-09
8.43855e-10
8.4381e-10
1.70257e-08
1.66829e-09
8.48743e-10
1.67475e-08
2.48516e-09
8.56746e-10
1.64897e-08
3.30517e-09
8.68731e-10
1.62594e-08
4.13873e-09
8.85013e-10
1.60579e-08
4.99625e-09
9.05753e-10
1.58853e-08
5.88842e-09
9.31148e-10
1.57426e-08
6.82623e-09
9.61505e-10
1.5632e-08
7.82061e-09
9.97577e-10
1.55569e-08
1.04288e-09
1.55216e-08
8.87945e-09
8.48716e-10
1.66824e-09
1.67465e-08
1.67744e-09
1.67739e-09
1.64716e-08
2.49753e-09
1.6925e-09
1.62159e-08
3.31942e-09
1.71508e-09
1.59831e-08
4.1534e-09
1.74557e-09
1.57762e-08
5.00957e-09
1.7845e-09
1.55966e-08
5.89829e-09
1.83216e-09
1.54451e-08
6.8302e-09
1.88903e-09
1.53235e-08
7.81586e-09
1.95649e-09
1.52342e-08
2.04284e-09
1.51787e-08
8.8611e-09
8.56639e-10
2.48519e-09
1.64889e-08
1.69239e-09
2.49745e-09
1.6215e-08
2.51836e-09
2.5183e-09
1.59609e-08
3.34438e-09
2.55007e-09
1.57269e-08
4.18049e-09
2.59288e-09
1.55149e-08
5.03677e-09
2.64738e-09
1.53278e-08
5.92317e-09
2.71428e-09
1.51674e-08
6.84986e-09
2.79412e-09
1.50344e-08
7.82709e-09
2.88858e-09
1.49314e-08
3.01123e-09
1.48588e-08
8.85971e-09
8.68679e-10
3.30525e-09
1.62594e-08
1.71489e-09
3.31944e-09
1.59825e-08
2.54991e-09
3.34425e-09
1.5726e-08
3.38331e-09
3.38322e-09
1.54895e-08
4.22442e-09
3.43649e-09
1.52728e-08
5.0831e-09
3.50421e-09
1.50778e-08
5.96933e-09
3.58716e-09
1.49072e-08
6.89283e-09
3.68641e-09
1.47626e-08
7.86323e-09
3.80391e-09
1.4646e-08
3.95888e-09
1.45578e-08
8.88422e-09
8.85002e-10
4.13882e-09
1.60582e-08
1.74549e-09
4.15349e-09
1.57763e-08
2.59264e-09
4.18049e-09
1.55143e-08
3.4363e-09
4.22424e-09
1.5272e-08
4.28555e-09
4.28538e-09
1.50494e-08
5.14933e-09
4.36408e-09
1.48469e-08
6.03735e-09
4.46036e-09
1.46656e-08
6.95962e-09
4.57517e-09
1.45083e-08
7.92525e-09
4.71155e-09
1.43779e-08
4.89493e-09
1.42748e-08
8.93661e-09
9.05746e-10
4.99634e-09
1.58856e-08
1.78449e-09
5.00967e-09
1.55968e-08
2.64727e-09
5.03686e-09
1.53278e-08
3.50389e-09
5.08309e-09
1.50772e-08
4.36385e-09
5.14901e-09
1.4846e-08
5.23584e-09
5.23545e-09
1.4635e-08
6.12829e-09
5.3425e-09
1.44436e-08
7.05107e-09
5.46964e-09
1.42729e-08
8.01384e-09
5.62019e-09
1.41272e-08
5.82734e-09
1.4009e-08
9.01809e-09
9.31144e-10
5.88852e-09
1.57429e-08
1.83215e-09
5.89839e-09
1.54454e-08
2.71424e-09
5.92328e-09
1.51676e-08
3.58699e-09
5.96946e-09
1.49072e-08
4.45983e-09
6.03734e-09
1.46649e-08
5.34206e-09
6.12769e-09
1.44421e-08
6.2419e-09
6.24153e-09
1.42398e-08
7.16764e-09
6.37787e-09
1.40561e-08
8.12932e-09
6.53813e-09
1.38935e-08
6.76279e-09
1.37591e-08
9.12955e-09
9.61507e-10
6.82633e-09
1.56323e-08
1.88904e-09
6.83031e-09
1.53238e-08
2.79412e-09
6.84997e-09
1.50347e-08
3.68642e-09
6.89295e-09
1.47628e-08
4.57499e-09
6.95979e-09
1.45082e-08
5.46891e-09
7.05088e-09
1.42715e-08
6.37724e-09
7.16704e-09
1.40546e-08
7.30796e-09
7.3078e-09
1.38556e-08
8.27068e-09
7.47261e-09
1.36755e-08
7.70601e-09
1.35235e-08
9.27103e-09
9.97585e-10
7.8207e-09
1.55572e-08
1.95651e-09
7.81596e-09
1.52346e-08
2.88861e-09
7.82719e-09
1.49316e-08
3.80397e-09
7.86333e-09
1.46463e-08
4.7117e-09
7.92533e-09
1.43781e-08
5.62011e-09
8.01384e-09
1.41269e-08
6.53756e-09
8.12914e-09
1.38928e-08
7.47219e-09
8.27032e-09
1.3675e-08
8.4343e-09
8.43411e-09
1.34742e-08
8.65799e-09
1.32985e-08
9.44125e-09
1.0429e-09
1.55219e-08
8.87953e-09
2.04288e-09
1.5179e-08
8.86118e-09
3.01129e-09
1.4859e-08
8.85978e-09
3.95897e-09
1.4558e-08
8.88429e-09
4.89505e-09
1.4275e-08
8.93666e-09
5.82746e-09
1.40092e-08
9.0181e-09
6.76278e-09
1.37593e-08
9.12952e-09
7.70574e-09
1.35234e-08
9.2709e-09
8.65778e-09
1.3298e-08
9.44094e-09
1.30916e-08
9.64888e-09
9.64872e-09
9.55002e-10
9.5499e-10
1.51157e-08
1.88761e-09
9.60325e-10
1.48546e-08
2.81103e-09
9.68877e-10
1.45974e-08
3.73794e-09
9.81926e-10
1.43506e-08
4.68107e-09
9.99988e-10
1.41148e-08
5.65374e-09
1.0234e-09
1.38892e-08
6.67046e-09
1.05261e-09
1.36733e-08
7.74737e-09
1.08834e-09
1.34667e-08
8.90255e-09
1.13196e-09
1.32697e-08
1.18802e-09
1.30823e-08
1.01538e-08
9.60255e-10
1.88755e-09
1.48537e-08
1.89773e-09
1.89771e-09
1.45968e-08
2.82503e-09
1.91418e-09
1.43433e-08
3.75432e-09
1.93898e-09
1.40968e-08
4.6981e-09
1.97297e-09
1.38595e-08
5.66927e-09
2.01708e-09
1.36317e-08
6.6818e-09
2.07207e-09
1.34131e-08
7.75122e-09
2.13915e-09
1.32032e-08
8.89486e-09
2.22068e-09
1.30019e-08
2.32654e-09
1.28072e-08
1.01278e-08
9.68747e-10
2.81101e-09
1.45967e-08
1.91403e-09
2.82491e-09
1.43425e-08
2.84819e-09
2.84812e-09
1.40928e-08
3.78255e-09
2.88346e-09
1.3848e-08
4.72922e-09
2.93153e-09
1.36096e-08
5.70097e-09
2.99364e-09
1.33795e-08
6.71122e-09
3.07119e-09
1.3158e-08
7.77478e-09
3.1657e-09
1.29443e-08
8.90834e-09
3.28007e-09
1.27384e-08
3.42999e-09
1.25384e-08
1.01253e-08
9.81891e-10
3.73795e-09
1.43506e-08
1.93879e-09
3.75427e-09
1.40962e-08
2.88328e-09
3.78236e-09
1.38473e-08
3.82642e-09
3.8263e-09
1.36035e-08
4.77939e-09
3.88671e-09
1.33646e-08
5.7546e-09
3.96443e-09
1.31318e-08
6.76541e-09
4.06122e-09
1.29064e-08
7.82597e-09
4.17935e-09
1.26884e-08
8.95203e-09
4.32222e-09
1.24778e-08
4.51171e-09
1.2273e-08
1.01551e-08
1.00001e-09
4.68108e-09
1.4115e-08
1.97293e-09
4.69811e-09
1.38595e-08
2.93131e-09
4.72913e-09
1.36091e-08
3.88652e-09
4.77912e-09
1.33639e-08
4.84948e-09
4.84926e-09
1.31239e-08
5.83149e-09
4.94043e-09
1.28889e-08
6.84549e-09
5.05367e-09
1.26591e-08
7.90579e-09
5.19138e-09
1.2436e-08
9.02739e-09
5.35831e-09
1.22202e-08
5.58325e-09
1.20108e-08
1.02198e-08
1.02342e-09
5.65377e-09
1.38895e-08
2.01712e-09
5.66929e-09
1.36319e-08
2.99358e-09
5.70098e-09
1.33795e-08
3.96413e-09
5.75449e-09
1.31313e-08
4.94019e-09
5.83107e-09
1.28882e-08
5.93283e-09
5.93237e-09
1.26504e-08
6.95346e-09
6.05956e-09
1.24171e-08
8.01604e-09
6.21357e-09
1.21882e-08
9.13598e-09
6.39964e-09
1.19659e-08
6.65526e-09
1.17515e-08
1.03215e-08
1.05263e-09
6.67049e-09
1.36736e-08
2.07211e-09
6.68183e-09
1.34134e-08
3.07124e-09
6.71125e-09
1.31582e-08
4.06113e-09
6.76545e-09
1.29064e-08
5.05314e-09
6.84536e-09
1.26585e-08
6.05909e-09
6.95269e-09
1.24159e-08
7.09018e-09
7.08973e-09
1.21785e-08
8.15846e-09
7.25696e-09
1.19445e-08
9.27937e-09
7.45759e-09
1.17147e-08
7.73756e-09
1.14942e-08
1.04619e-08
1.08837e-09
7.74741e-09
1.3467e-08
2.13921e-09
7.75126e-09
1.32035e-08
3.16579e-09
7.77482e-09
1.29445e-08
4.17947e-09
7.826e-09
1.26886e-08
5.19129e-09
7.90585e-09
1.24359e-08
6.21281e-09
8.01567e-09
1.2187e-08
7.25626e-09
8.15764e-09
1.19432e-08
8.33324e-09
8.33299e-09
1.17026e-08
9.45828e-09
8.54294e-09
1.14651e-08
8.83873e-09
1.12378e-08
1.06428e-08
1.132e-09
8.9026e-09
1.327e-08
2.22075e-09
8.8949e-09
1.30022e-08
3.28019e-09
8.90837e-09
1.27387e-08
4.32239e-09
8.95204e-09
1.2478e-08
5.35859e-09
9.02735e-09
1.22204e-08
6.39963e-09
9.13583e-09
1.19657e-08
7.45699e-09
9.27902e-09
1.17141e-08
8.54252e-09
9.45775e-09
1.14647e-08
9.67113e-09
9.67085e-09
1.12176e-08
9.9639e-09
1.09794e-08
1.0865e-08
1.18806e-09
1.30826e-08
1.01539e-08
2.32663e-09
1.28075e-08
1.01279e-08
3.43012e-09
1.25386e-08
1.01253e-08
4.51189e-09
1.22732e-08
1.01551e-08
5.58347e-09
1.2011e-08
1.02198e-08
6.65548e-09
1.17517e-08
1.03213e-08
7.73763e-09
1.14944e-08
1.04618e-08
8.83849e-09
1.12377e-08
1.06426e-08
9.9637e-09
1.09791e-08
1.08646e-08
1.0725e-08
1.11472e-08
1.1147e-08
9.99392e-10
9.99401e-10
1.31169e-08
1.97417e-09
1.00444e-09
1.28753e-08
2.937e-09
1.01236e-09
1.26222e-08
3.90038e-09
1.02457e-09
1.23627e-08
4.87702e-09
1.04166e-09
1.20965e-08
5.88042e-09
1.06402e-09
1.18218e-08
6.92552e-09
1.09218e-09
1.1536e-08
8.02936e-09
1.12701e-09
1.12359e-08
9.21169e-09
1.17009e-09
1.09173e-08
1.22607e-09
1.05745e-08
1.04934e-08
1.00435e-09
1.9741e-09
1.28747e-08
1.98388e-09
1.98386e-09
1.26378e-08
2.95059e-09
1.9993e-09
1.23896e-08
3.91639e-09
2.02263e-09
1.21329e-08
4.89373e-09
2.05487e-09
1.18689e-08
5.89562e-09
2.09706e-09
1.15968e-08
6.93645e-09
2.15013e-09
1.13143e-08
8.03258e-09
2.21555e-09
1.10186e-08
9.20297e-09
2.29594e-09
1.07056e-08
2.40098e-09
1.03693e-08
1.0466e-08
1.01223e-09
2.93694e-09
1.26217e-08
1.99915e-09
2.95043e-09
1.2389e-08
2.97254e-09
2.97245e-09
1.21463e-08
3.94337e-09
3.00593e-09
1.18939e-08
4.92363e-09
3.05167e-09
1.16326e-08
5.92619e-09
3.11119e-09
1.13628e-08
6.96486e-09
3.18614e-09
1.10833e-08
8.05526e-09
3.27836e-09
1.07911e-08
9.21567e-09
3.39107e-09
1.04829e-08
3.53932e-09
1.01531e-08
1.04626e-08
1.02455e-09
3.90033e-09
1.23626e-08
2.02246e-09
3.91628e-09
1.21325e-08
3.00576e-09
3.94314e-09
1.18933e-08
3.98517e-09
3.98503e-09
1.1645e-08
4.97168e-09
4.04274e-09
1.1387e-08
5.97775e-09
4.11741e-09
1.11195e-08
7.01714e-09
4.2111e-09
1.0842e-08
8.10476e-09
4.32651e-09
1.05526e-08
9.25793e-09
4.4673e-09
1.02484e-08
4.65438e-09
9.92467e-09
1.04912e-08
1.0417e-09
4.87698e-09
1.20967e-08
2.05486e-09
4.89367e-09
1.18689e-08
3.05148e-09
4.92348e-09
1.16322e-08
4.04258e-09
4.97136e-09
1.13865e-08
5.0389e-09
5.03865e-09
1.11317e-08
6.0518e-09
5.1265e-09
1.08669e-08
7.09454e-09
5.23635e-09
1.05912e-08
8.18219e-09
5.37111e-09
1.03037e-08
9.33126e-09
5.5358e-09
1.00026e-08
5.75777e-09
9.68435e-09
1.05543e-08
1.06406e-09
5.88039e-09
1.1822e-08
2.09714e-09
5.89557e-09
1.1597e-08
3.11119e-09
5.92612e-09
1.13628e-08
4.11716e-09
5.97758e-09
1.11191e-08
5.1263e-09
6.05134e-09
1.08663e-08
6.14976e-09
6.14929e-09
1.06042e-08
7.1993e-09
6.27301e-09
1.03308e-08
8.28958e-09
6.42408e-09
1.00449e-08
9.43744e-09
6.60801e-09
9.74583e-09
6.86046e-09
9.43217e-09
1.06541e-08
1.09222e-09
6.92549e-09
1.15362e-08
2.15021e-09
6.93642e-09
1.13145e-08
3.18625e-09
6.96482e-09
1.10835e-08
4.21108e-09
7.0171e-09
1.08421e-08
5.23591e-09
7.09434e-09
1.05907e-08
6.27259e-09
7.19851e-09
1.033e-08
7.33274e-09
7.33228e-09
1.00591e-08
8.42912e-09
7.49684e-09
9.77532e-09
9.57847e-09
7.69581e-09
9.4775e-09
7.97297e-09
9.16753e-09
1.07927e-08
1.12706e-09
8.02935e-09
1.12361e-08
2.21565e-09
8.03256e-09
1.10188e-08
3.27851e-09
8.05523e-09
1.07913e-08
4.32669e-09
8.10472e-09
1.05528e-08
5.37111e-09
8.18215e-09
1.03037e-08
6.4234e-09
8.28914e-09
1.00441e-08
7.4962e-09
8.42827e-09
9.77441e-09
8.60182e-09
8.60154e-09
9.49225e-09
9.75594e-09
8.8108e-09
9.19598e-09
9.10527e-09
8.88917e-09
1.09722e-08
1.17014e-09
9.21169e-09
1.09176e-08
2.29605e-09
9.20296e-09
1.07059e-08
3.39123e-09
9.21564e-09
1.04831e-08
4.46753e-09
9.25787e-09
1.02486e-08
5.53614e-09
9.33115e-09
1.00028e-08
6.60806e-09
9.43721e-09
9.74569e-09
7.69528e-09
9.57805e-09
9.47708e-09
8.81044e-09
9.75539e-09
9.19568e-09
9.96942e-09
9.96913e-09
8.90035e-09
1.02646e-08
8.59466e-09
1.11949e-08
1.22613e-09
1.05747e-08
1.04934e-08
2.4011e-09
1.03695e-08
1.0466e-08
3.53949e-09
1.01533e-08
1.04626e-08
4.6546e-09
9.92483e-09
1.04912e-08
5.75804e-09
9.68449e-09
1.05542e-08
6.86072e-09
9.4323e-09
1.06539e-08
7.97307e-09
9.16763e-09
1.07925e-08
9.10508e-09
8.88907e-09
1.0972e-08
1.02644e-08
8.59443e-09
1.11945e-08
8.28703e-09
1.14836e-08
1.14833e-08
9.79784e-10
9.798e-10
1.11573e-08
1.93336e-09
9.83901e-10
1.09379e-08
2.87099e-09
9.90046e-10
1.06945e-08
3.80279e-09
9.99585e-10
1.04313e-08
4.73896e-09
1.01301e-09
1.01473e-08
5.69011e-09
1.03061e-09
9.84006e-09
6.6677e-09
1.05278e-09
9.50564e-09
7.6845e-09
1.08017e-09
9.13892e-09
8.75488e-09
1.11404e-09
8.73291e-09
1.15805e-09
8.27795e-09
9.89337e-09
9.83815e-10
1.9333e-09
1.09373e-08
1.94135e-09
1.94134e-09
1.07228e-08
2.88228e-09
1.95347e-09
1.04853e-08
3.81615e-09
1.97174e-09
1.02269e-08
4.75294e-09
1.99707e-09
9.94808e-09
5.70288e-09
2.03027e-09
9.64721e-09
6.67702e-09
2.07202e-09
9.32095e-09
7.68767e-09
2.12342e-09
8.96467e-09
8.74878e-09
2.18647e-09
8.57209e-09
2.2687e-09
8.13412e-09
9.8733e-09
9.89933e-10
2.8709e-09
1.06941e-08
1.95333e-09
2.88212e-09
1.04848e-08
2.89962e-09
2.89954e-09
1.02539e-08
3.83753e-09
2.92587e-09
1.00018e-08
4.77658e-09
2.96179e-09
9.72878e-09
5.72691e-09
3.00854e-09
9.43424e-09
6.69916e-09
3.06739e-09
9.11568e-09
7.70509e-09
3.1397e-09
8.76888e-09
8.75829e-09
3.22778e-09
8.38838e-09
3.34334e-09
7.96624e-09
9.87053e-09
9.99581e-10
3.8027e-09
1.04312e-08
1.9716e-09
3.81602e-09
1.02265e-08
2.92573e-09
3.8373e-09
1.00014e-08
3.87042e-09
3.87028e-09
9.7559e-09
4.81432e-09
3.91559e-09
9.48934e-09
5.76719e-09
3.97408e-09
9.20106e-09
6.73967e-09
4.0474e-09
8.88955e-09
7.74304e-09
4.13755e-09
8.55142e-09
8.79022e-09
4.24714e-09
8.18188e-09
4.39236e-09
7.77425e-09
9.89162e-09
1.01306e-09
4.73888e-09
1.01474e-08
1.99708e-09
4.75285e-09
9.94808e-09
2.96165e-09
4.77642e-09
9.7285e-09
3.91546e-09
4.81401e-09
9.48897e-09
4.86693e-09
4.8667e-09
9.22912e-09
5.82487e-09
4.9353e-09
8.9477e-09
6.7995e-09
5.02088e-09
8.64304e-09
7.8023e-09
5.12564e-09
8.31281e-09
8.84563e-09
5.25317e-09
7.95328e-09
5.42472e-09
7.55909e-09
9.93852e-09
1.03066e-09
5.69003e-09
9.84018e-09
2.03036e-09
5.70279e-09
9.64732e-09
3.00857e-09
5.72681e-09
9.43423e-09
3.9739e-09
5.767e-09
9.20081e-09
4.93516e-09
5.82444e-09
8.94733e-09
5.90097e-09
5.90056e-09
8.67309e-09
6.88032e-09
5.99645e-09
8.37592e-09
7.88436e-09
6.11318e-09
8.05335e-09
8.9258e-09
6.2547e-09
7.70286e-09
6.4488e-09
7.32111e-09
1.00128e-08
1.05282e-09
6.66763e-09
9.50579e-09
2.07211e-09
6.67695e-09
9.32109e-09
3.06751e-09
6.69908e-09
9.11579e-09
4.04741e-09
6.73959e-09
8.88956e-09
5.02054e-09
6.79929e-09
8.64273e-09
5.99611e-09
6.87964e-09
8.37534e-09
6.98299e-09
6.9826e-09
8.08607e-09
7.99077e-09
7.10891e-09
7.77182e-09
9.03211e-09
7.26085e-09
7.43001e-09
7.47262e-09
7.05988e-09
1.01159e-08
1.08023e-09
7.68446e-09
9.13908e-09
2.12353e-09
7.68762e-09
8.96482e-09
3.13984e-09
7.70502e-09
8.769e-09
4.13774e-09
7.74296e-09
8.55153e-09
5.12568e-09
7.80222e-09
8.31279e-09
6.11266e-09
7.88395e-09
8.05283e-09
7.1084e-09
7.99004e-09
7.77122e-09
8.12214e-09
8.12191e-09
7.46551e-09
9.16566e-09
8.28036e-09
7.13295e-09
8.50386e-09
6.77419e-09
1.02494e-08
1.11409e-09
8.75486e-09
8.73307e-09
2.18658e-09
8.74874e-09
8.57224e-09
3.22794e-09
8.75823e-09
8.38851e-09
4.24736e-09
8.79013e-09
8.18199e-09
5.25348e-09
8.8455e-09
7.95338e-09
6.25477e-09
8.92557e-09
7.70277e-09
7.26044e-09
9.03174e-09
7.42972e-09
8.28008e-09
9.16521e-09
7.13274e-09
9.32563e-09
9.3254e-09
6.80976e-09
9.54769e-09
6.46182e-09
1.04146e-08
1.15811e-09
8.27809e-09
9.89335e-09
2.26881e-09
8.13425e-09
9.87327e-09
3.3435e-09
7.96636e-09
9.87048e-09
4.39257e-09
7.77435e-09
9.89154e-09
5.42497e-09
7.55918e-09
9.93841e-09
6.44903e-09
7.32118e-09
1.00126e-08
7.47271e-09
7.05992e-09
1.01158e-08
8.5037e-09
6.77412e-09
1.02492e-08
9.54756e-09
6.46168e-09
1.04143e-08
6.12335e-09
1.06296e-08
1.06294e-08
9.08975e-10
9.08991e-10
9.33935e-09
1.79091e-09
9.11762e-10
9.14416e-09
2.65243e-09
9.15452e-10
8.91758e-09
3.49989e-09
9.21195e-10
8.66261e-09
4.33937e-09
9.29306e-10
8.37855e-09
5.17667e-09
9.39865e-10
8.0629e-09
6.01738e-09
9.52987e-10
7.71195e-09
6.86685e-09
9.6891e-10
7.32054e-09
7.72989e-09
9.88178e-10
6.88169e-09
1.01291e-09
6.3859e-09
8.60904e-09
9.11689e-10
1.79085e-09
9.14379e-09
1.7964e-09
1.79638e-09
8.95351e-09
2.66028e-09
1.80381e-09
8.73305e-09
3.50927e-09
1.81485e-09
8.48423e-09
4.3493e-09
1.8301e-09
8.20726e-09
5.18597e-09
1.84996e-09
7.90044e-09
6.02477e-09