/*--------------------------------*- C++ -*----------------------------------*\
| =========                 |                                                 |
| \\      /  F ield         | foam-extend: Open Source CFD                    |
|  \\    /   O peration     | Version:     3.1                                |
|   \\  /    A nd           | Web:         http://www.extend-project.de       |
|    \\/     M anipulation  |                                                 |
\*---------------------------------------------------------------------------*/
FoamFile
{
    version     2.0;
    format      ascii;
    class       pointVectorField;
    location    "0.0008";
    object      pointMotionU;
}
// * * * * * * * * * * * * * * * * * * * * * * * * * * * * * * * * * * * * * //

dimensions      [0 1 -1 0 0 0 0];

internalField   nonuniform List<vector> 
18306
(
(0 0 0)
(0 0 0)
(0 0 0)
(0 0 0)
(0 0 0)
(0 0 0)
(0 0 0)
(0 0 0)
(0 0 0)
(0 0 0)
(0 0 0)
(0 0 0)
(0 0 0)
(0 0 0)
(0 0 0)
(0 0 0)
(0 0 0)
(0 0 0)
(0 0 0)
(0 0 0)
(0 0 0)
(0 0 0)
(0 0 0)
(0 0 0)
(0 0 0)
(0 0 0)
(0 0 0)
(0 0 0)
(0 0 0)
(0 0 0)
(0 0 0)
(0 0 0)
(0 0 0)
(0 0 0)
(0 0 0)
(0 0 0)
(0 0 0)
(0 0 0)
(0 0 0)
(0 0 0)
(0 0 0)
(0 0 0)
(0 0 0)
(0 0 0)
(0 0 0)
(0 0 0)
(0 0 0)
(0 0 0)
(0 0 0)
(0 0 0)
(0 0 0)
(0 0 0)
(0 0 0)
(0 0 0)
(0 0 0)
(0 0 0)
(0 0 0)
(0 0 0)
(0 0 0)
(0 0 0)
(0 0 0)
(0 0 0)
(0 0 0)
(0 0 0)
(0 0 0)
(0 0 0)
(0 0 0)
(0 0 0)
(0 0 0)
(0 0 0)
(0 0 0)
(0 0 0)
(0 0 0)
(0 0 0)
(0 0 0)
(0 0 0)
(0 0 0)
(0 0 0)
(0 0 0)
(0 0 0)
(0 0 0)
(0 0 0)
(0 0 0)
(0 0 0)
(0 0 0)
(0 0 0)
(0 0 0)
(0 0 0)
(0 0 0)
(0 0 0)
(0 0 0)
(0 0 0)
(0 0 0)
(0 0 0)
(0 0 0)
(0 0 0)
(0 0 0)
(0 0 0)
(0 0 0)
(0 0 0)
(0 0 0)
(0 0 0)
(0 0 0)
(0 0 0)
(0 0 0)
(0 0 0)
(0 0 0)
(0 0 0)
(0 0 0)
(0 0 0)
(0 0 0)
(0 0 0)
(0 0 0)
(0 0 0)
(0 0 0)
(0 0 0)
(0 0 0)
(0 0 0)
(0 0 0)
(0 0 0)
(0 0 0)
(0 0 6.22603e-10)
(7.49805e-09 0 9.05167e-10)
(1.5045e-08 0 1.75216e-09)
(2.27872e-08 0 3.18441e-09)
(3.09768e-08 0 5.27217e-09)
(3.97987e-08 0 8.14058e-09)
(4.93301e-08 0 1.19692e-08)
(5.9511e-08 0 1.69919e-08)
(7.00882e-08 0 2.34839e-08)
(8.0543e-08 0 3.17307e-08)
(9.01186e-08 0 4.21123e-08)
(0 1.04438e-09 7.03178e-10)
(7.3465e-09 1.08492e-09 9.87156e-10)
(1.48061e-08 1.20579e-09 1.83869e-09)
(2.25069e-08 1.41235e-09 3.27977e-09)
(3.06571e-08 1.70203e-09 5.37849e-09)
(3.94359e-08 2.06859e-09 8.25872e-09)
(4.89178e-08 2.50599e-09 1.20981e-08)
(5.90435e-08 3.00782e-09 1.71318e-08)
(6.95664e-08 3.56127e-09 2.36348e-08)
(7.99807e-08 4.14358e-09 3.18868e-08)
(8.95125e-08 4.60921e-09 4.21202e-08)
(0 2.16824e-09 9.59029e-10)
(6.96619e-09 2.25595e-09 1.24424e-09)
(1.41545e-08 2.51388e-09 2.10484e-09)
(2.16968e-08 2.93937e-09 3.56779e-09)
(2.97259e-08 3.52826e-09 5.69474e-09)
(3.83751e-08 4.27417e-09 8.60285e-09)
(4.77212e-08 5.16808e-09 1.24697e-08)
(5.77053e-08 6.19974e-09 1.75281e-08)
(6.80795e-08 7.34331e-09 2.40451e-08)
(7.83771e-08 8.54977e-09 3.22979e-08)
(8.80013e-08 9.49979e-09 4.24883e-08)
(0 3.45481e-09 1.42934e-09)
(6.49521e-09 3.59251e-09 1.71909e-09)
(1.32668e-08 3.99739e-09 2.5942e-09)
(2.0489e-08 4.65676e-09 4.08579e-09)
(2.82881e-08 5.55766e-09 6.25285e-09)
(3.67369e-08 6.69434e-09 9.20035e-09)
(4.58769e-08 8.06238e-09 1.30985e-08)
(5.56536e-08 9.65076e-09 1.81763e-08)
(6.58234e-08 1.14262e-08 2.46896e-08)
(7.59534e-08 1.33257e-08 3.2911e-08)
(8.56081e-08 1.48384e-08 4.3008e-08)
(0 4.97049e-09 2.18216e-09)
(5.98151e-09 5.16016e-09 2.48268e-09)
(1.2279e-08 5.717e-09 3.38454e-09)
(1.90743e-08 6.6213e-09 4.91301e-09)
(2.65209e-08 7.84884e-09 7.1236e-09)
(3.47001e-08 9.38482e-09 1.01127e-08)
(4.36057e-08 1.12316e-08 1.40356e-08)
(5.31535e-08 1.33906e-08 1.91097e-08)
(6.31221e-08 1.58307e-08 2.55833e-08)
(7.31158e-08 1.84857e-08 3.3713e-08)
(8.28003e-08 2.06521e-08 4.36061e-08)
(0 6.73027e-09 3.32122e-09)
(5.46015e-09 6.97823e-09 3.63911e-09)
(1.12673e-08 7.70264e-09 4.5853e-09)
(1.7613e-08 8.87022e-09 6.17013e-09)
(2.46436e-08 1.0441e-08 8.43013e-09)
(3.24758e-08 1.23888e-08 1.14527e-08)
(4.11374e-08 1.47158e-08 1.53874e-08)
(5.05046e-08 1.74364e-08 2.04301e-08)
(6.03331e-08 2.05462e-08 2.68151e-08)
(7.02875e-08 2.39873e-08 3.47844e-08)
(8.01215e-08 2.6884e-08 4.43692e-08)
(0 8.6743e-09 4.98358e-09)
(4.96201e-09 8.99583e-09 5.32867e-09)
(1.0292e-08 9.93046e-09 6.3463e-09)
(1.62051e-08 1.14105e-08 8.02016e-09)
(2.28416e-08 1.33605e-08 1.03523e-08)
(3.03106e-08 1.57384e-08 1.34049e-08)
(3.86905e-08 1.85458e-08 1.73208e-08)
(4.79224e-08 2.18074e-08 2.22975e-08)
(5.77229e-08 2.55491e-08 2.8547e-08)
(6.77504e-08 2.9733e-08 3.62811e-08)
(7.78788e-08 3.33813e-08 4.54628e-08)
(0 1.06262e-08 7.33494e-09)
(4.50992e-09 1.10601e-08 7.72659e-09)
(9.40816e-09 1.22996e-08 8.86082e-09)
(1.4928e-08 1.41957e-08 1.06723e-08)
(2.12259e-08 1.66013e-08 1.31123e-08)
(2.84033e-08 1.94438e-08 1.62062e-08)
(3.65241e-08 2.27273e-08 2.00753e-08)
(4.56099e-08 2.64995e-08 2.49314e-08)
(5.54204e-08 3.07789e-08 3.09649e-08)
(6.55682e-08 3.55539e-08 3.83617e-08)
(7.60248e-08 3.98832e-08 4.70355e-08)
(0 1.22231e-08 1.05503e-08)
(4.11636e-09 1.28566e-08 1.10233e-08)
(8.64211e-09 1.46003e-08 1.23504e-08)
(1.38273e-08 1.71113e-08 1.43731e-08)
(1.98503e-08 2.01084e-08 1.69671e-08)
(2.68331e-08 2.34826e-08 2.012e-08)
(3.48231e-08 2.72514e-08 2.39339e-08)
(4.38042e-08 3.14752e-08 2.86009e-08)
(5.35586e-08 3.61369e-08 3.4282e-08)
(6.37148e-08 4.12581e-08 4.11838e-08)
(7.42613e-08 4.60374e-08 4.91612e-08)
(0 1.27976e-08 1.47657e-08)
(3.78165e-09 1.38337e-08 1.53884e-08)
(7.99135e-09 1.65081e-08 1.70541e-08)
(1.29081e-08 2.00015e-08 1.94099e-08)
(1.8731e-08 2.38023e-08 2.22116e-08)
(2.56054e-08 2.78002e-08 2.54228e-08)
(3.35952e-08 3.20827e-08 2.91597e-08)
(4.2625e-08 3.67214e-08 3.35912e-08)
(5.23945e-08 4.16442e-08 3.88305e-08)
(6.23888e-08 4.67702e-08 4.49895e-08)
(7.22672e-08 5.13883e-08 5.17261e-08)
(0 1.1136e-08 2.00478e-08)
(3.40667e-09 1.30298e-08 2.08691e-08)
(7.23226e-09 1.74158e-08 2.30813e-08)
(1.17756e-08 2.23917e-08 2.58682e-08)
(1.72491e-08 2.71534e-08 2.88244e-08)
(2.38276e-08 3.17395e-08 3.19438e-08)
(3.16248e-08 3.64477e-08 3.54168e-08)
(4.06205e-08 4.14466e-08 3.9449e-08)
(5.05315e-08 4.6611e-08 4.41291e-08)
(6.06135e-08 5.14887e-08 4.92647e-08)
(6.99842e-08 5.56334e-08 5.45804e-08)
(0 -0 -1.35911e-09)
(1.37225e-08 0 -9.31809e-10)
(2.75793e-08 0 3.41829e-10)
(4.18885e-08 0 2.48394e-09)
(5.71773e-08 0 5.58405e-09)
(7.38769e-08 0 9.80652e-09)
(9.22665e-08 0 1.53864e-08)
(1.12446e-07 0 2.26242e-08)
(1.34271e-07 0 3.18577e-08)
(1.57276e-07 0 4.34003e-08)
(1.80915e-07 0 5.76119e-08)
(0 1.19716e-09 -1.28756e-09)
(1.3429e-08 1.27225e-09 -8.57461e-10)
(2.71094e-08 1.49177e-09 4.25708e-10)
(4.13252e-08 1.858e-09 2.58554e-09)
(5.65206e-08 2.367e-09 5.70797e-09)
(7.31134e-08 3.01313e-09 9.95637e-09)
(9.13725e-08 3.79237e-09 1.55655e-08)
(1.11388e-07 4.70093e-09 2.28431e-08)
(1.33e-07 5.72566e-09 3.21389e-08)
(1.55709e-07 6.83905e-09 4.37869e-08)
(1.78745e-07 7.81071e-09 5.80044e-08)
(0 2.58755e-09 -1.05454e-09)
(1.26775e-08 2.74318e-09 -6.20803e-10)
(2.58033e-08 3.19618e-09 6.81751e-10)
(3.9666e-08 3.93787e-09 2.88464e-09)
(5.45669e-08 4.9617e-09 6.06364e-09)
(7.08303e-08 6.26492e-09 1.03732e-08)
(8.8714e-08 7.84501e-09 1.60535e-08)
(1.08279e-07 9.69898e-09 2.34214e-08)
(1.29304e-07 1.17999e-08 3.28405e-08)
(1.51239e-07 1.40862e-08 4.46964e-08)
(1.73466e-07 1.60463e-08 5.92658e-08)
(0 4.35955e-09 -6.02512e-10)
(1.1731e-08 4.59602e-09 -1.58869e-10)
(2.40028e-08 5.28575e-09 1.17398e-09)
(3.71782e-08 6.40934e-09 3.43392e-09)
(5.15413e-08 7.95006e-09 6.69292e-09)
(6.72932e-08 9.90955e-09 1.10874e-08)
(8.4605e-08 1.22989e-08 1.68511e-08)
(1.0351e-07 1.51222e-08 2.43071e-08)
(1.23734e-07 1.83484e-08 3.38249e-08)
(1.44684e-07 2.19006e-08 4.58201e-08)
(1.6597e-07 2.49584e-08 6.05841e-08)
(0 6.67175e-09 1.60674e-10)
(1.06855e-08 6.98942e-09 6.25266e-10)
(2.1975e-08 7.91366e-09 2.01118e-09)
(3.42387e-08 9.41758e-09 4.34497e-09)
(4.7804e-08 1.14728e-08 7.6913e-09)
(6.28782e-08 1.40735e-08 1.2174e-08)
(7.95236e-08 1.72494e-08 1.80056e-08)
(9.76829e-08 2.10336e-08 2.54975e-08)
(1.17074e-07 2.54075e-08 3.50185e-08)
(1.37107e-07 3.02972e-08 4.69714e-08)
(1.5758e-07 3.45747e-08 6.15927e-08)
(0 9.61695e-09 1.37201e-09)
(9.61468e-09 1.00222e-08 1.87042e-09)
(1.98791e-08 1.1194e-08 3.34336e-09)
(3.11725e-08 1.3086e-08 5.78883e-09)
(4.3802e-08 1.56504e-08 9.2351e-09)
(5.80312e-08 1.88738e-08 1.37891e-08)
(7.39711e-08 2.27972e-08 1.96555e-08)
(9.14643e-08 2.74854e-08 2.7114e-08)
(1.10146e-07 3.29734e-08 3.65106e-08)
(1.295e-07 3.92091e-08 4.82202e-08)
(1.49513e-07 4.47948e-08 6.23935e-08)
(0 1.31926e-08 3.20804e-09)
(8.58539e-09 1.37049e-08 3.76126e-09)
(1.78459e-08 1.51768e-08 5.37599e-09)
(2.81954e-08 1.7508e-08 7.99781e-09)
(3.99219e-08 2.05992e-08 1.15883e-08)
(5.32665e-08 2.44245e-08 1.62062e-08)
(6.84242e-08 2.90408e-08 2.20449e-08)
(8.53459e-08 3.45455e-08 2.93891e-08)
(1.03566e-07 4.10336e-08 3.85461e-08)
(1.22529e-07 4.84919e-08 4.9832e-08)
(1.42455e-07 5.53716e-08 6.33199e-08)
(0 1.72442e-08 5.87442e-09)
(7.65073e-09 1.79191e-08 6.5237e-09)
(1.5999e-08 1.98208e-08 8.37643e-09)
(2.54829e-08 2.2718e-08 1.12771e-08)
(3.64136e-08 2.64037e-08 1.50851e-08)
(4.90113e-08 3.08209e-08 1.97883e-08)
(6.34379e-08 3.60537e-08 2.55454e-08)
(7.97875e-08 4.22582e-08 3.26676e-08)
(9.76709e-08 4.95289e-08 4.14363e-08)
(1.1643e-07 5.79001e-08 5.21178e-08)
(1.36421e-07 6.58922e-08 6.47191e-08)
(0 2.13634e-08 9.57232e-09)
(6.84661e-09 2.23307e-08 1.03949e-08)
(1.44129e-08 2.49479e-08 1.26572e-08)
(2.31574e-08 2.86722e-08 1.60021e-08)
(3.34251e-08 3.30938e-08 2.01275e-08)
(4.54709e-08 3.8124e-08 2.49493e-08)
(5.94258e-08 4.39013e-08 3.06027e-08)
(7.5316e-08 5.06287e-08 3.7384e-08)
(9.28062e-08 5.83566e-08 4.55501e-08)
(1.1126e-07 6.71739e-08 5.53979e-08)
(1.30978e-07 7.58174e-08 6.6835e-08)
(0 2.47067e-08 1.44156e-08)
(6.1899e-09 2.62745e-08 1.55703e-08)
(1.31154e-08 3.02406e-08 1.85754e-08)
(2.12737e-08 3.5296e-08 2.264e-08)
(3.1041e-08 4.06815e-08 2.72047e-08)
(4.27151e-08 4.63526e-08 3.21425e-08)
(5.64653e-08 5.26109e-08 3.7638e-08)
(7.22235e-08 5.97136e-08 4.39898e-08)
(8.95209e-08 6.7634e-08 5.14164e-08)
(1.0747e-07 7.62765e-08 6.01001e-08)
(1.25653e-07 8.44655e-08 6.96414e-08)
(0 2.56608e-08 2.03281e-08)
(5.53739e-09 2.8488e-08 2.20297e-08)
(1.17742e-08 3.49976e-08 2.6302e-08)
(1.9226e-08 4.20959e-08 3.13744e-08)
(2.82833e-08 4.85713e-08 3.63544e-08)
(3.92941e-08 5.468e-08 4.11885e-08)
(5.25242e-08 6.11285e-08 4.6231e-08)
(6.80234e-08 6.8378e-08 5.18908e-08)
(8.53843e-08 7.63393e-08 5.83979e-08)
(1.03358e-07 8.42906e-08 6.55582e-08)
(1.20409e-07 9.14407e-08 7.30295e-08)
(0 0 -6.86962e-09)
(1.76464e-08 0 -6.49675e-09)
(3.55486e-08 0 -5.39526e-09)
(5.42076e-08 0 -3.56694e-09)
(7.44157e-08 0 -9.68195e-10)
(9.68856e-08 0 2.49241e-09)
(1.22205e-07 0 6.94195e-09)
(1.50841e-07 0 1.25242e-08)
(1.83105e-07 0 1.93505e-08)
(2.19135e-07 0 2.74006e-08)
(2.59475e-07 0 3.64374e-08)
(-0 -2.29159e-10 -6.92743e-09)
(1.72253e-08 -1.29652e-10 -6.55082e-09)
(3.48566e-08 1.54806e-10 -5.43542e-09)
(5.33496e-08 6.06077e-10 -3.58244e-09)
(7.33861e-08 1.21898e-09 -9.52237e-10)
(9.56569e-08 1.99805e-09 2.54787e-09)
(1.20727e-07 2.95162e-09 7.05048e-09)
(1.4903e-07 4.08893e-09 1.27176e-08)
(1.80823e-07 5.40935e-09 1.96984e-08)
(2.16104e-07 6.89724e-09 2.80578e-08)
(2.54839e-07 8.32348e-09 3.76179e-08)
(-0 -1.16866e-10 -7.08506e-09)
(1.61283e-08 7.31723e-11 -6.70139e-09)
(3.29113e-08 6.23065e-10 -5.55562e-09)
(5.08075e-08 1.50737e-09 -3.64137e-09)
(7.03066e-08 2.71602e-09 -9.28826e-10)
(9.19623e-08 4.26173e-09 2.6697e-09)
(1.163e-07 6.16817e-09 7.30461e-09)
(1.43669e-07 8.4592e-09 1.31743e-08)
(1.7415e-07 1.11333e-08 2.05007e-08)
(2.07491e-07 1.41515e-08 2.95202e-08)
(2.43616e-07 1.69986e-08 4.03486e-08)
(0 6.38193e-10 -7.29644e-09)
(1.47112e-08 9.08473e-10 -6.8975e-09)
(3.01835e-08 1.69514e-09 -5.70553e-09)
(4.69649e-08 2.97502e-09 -3.70887e-09)
(6.55153e-08 4.73719e-09 -8.80338e-10)
(8.62085e-08 7.00384e-09 2.85324e-09)
(1.09421e-07 9.82423e-09 7.64708e-09)
(1.35409e-07 1.32468e-08 1.37337e-08)
(1.6408e-07 1.72806e-08 2.13927e-08)
(1.94962e-07 2.18815e-08 3.09738e-08)
(2.28203e-07 2.62273e-08 4.2758e-08)
(0 2.29049e-09 -7.50394e-09)
(1.31159e-08 2.63567e-09 -7.07648e-09)
(2.70554e-08 3.63522e-09 -5.80829e-09)
(4.23644e-08 5.26532e-09 -3.70408e-09)
(5.95495e-08 7.51813e-09 -7.4744e-10)
(7.89772e-08 1.04248e-08 3.12473e-09)
(1.00846e-07 1.40673e-08 8.05334e-09)
(1.25231e-07 1.8541e-08 1.42744e-08)
(1.51951e-07 2.38861e-08 2.20935e-08)
(1.80419e-07 3.00741e-08 3.18779e-08)
(2.11077e-07 3.59878e-08 4.39471e-08)
(0 5.05906e-09 -7.63233e-09)
(1.14572e-08 5.47854e-09 -7.15864e-09)
(2.37738e-08 6.68157e-09 -5.76692e-09)
(3.74924e-08 8.62656e-09 -3.50178e-09)
(5.30797e-08 1.12957e-08 -3.96211e-10)
(7.09616e-08 1.47355e-08 3.59104e-09)
(9.13776e-08 1.90668e-08 8.59637e-09)
(1.14224e-07 2.44386e-08 1.48315e-08)
(1.39136e-07 3.09635e-08 2.25804e-08)
(1.65556e-07 3.86502e-08 3.2178e-08)
(1.94245e-07 4.61422e-08 4.39398e-08)
(0 9.10923e-09 -7.59987e-09)
(9.84304e-09 9.61531e-09 -7.04751e-09)
(2.05505e-08 1.1048e-08 -5.45139e-09)
(3.26928e-08 1.33069e-08 -2.93161e-09)
(4.66994e-08 1.63287e-08 3.86923e-10)
(6.29519e-08 2.01723e-08 4.48031e-09)
(8.17843e-08 2.50125e-08 9.47327e-09)
(1.03214e-07 3.107e-08 1.55888e-08)
(1.26691e-07 3.85379e-08 2.30684e-08)
(1.51554e-07 4.74736e-08 3.21708e-08)
(1.78904e-07 5.64141e-08 4.321e-08)
(0 1.45098e-08 -7.33985e-09)
(8.36417e-09 1.51507e-08 -6.64497e-09)
(1.75893e-08 1.69117e-08 -4.69336e-09)
(2.82598e-08 1.95446e-08 -1.75836e-09)
(4.0823e-08 2.2881e-08 1.88565e-09)
(5.56239e-08 2.69819e-08 6.11866e-09)
(7.29425e-08 3.21004e-08 1.10291e-08)
(9.29751e-08 3.8569e-08 1.68762e-08)
(1.1527e-07 4.66113e-08 2.38954e-08)
(1.38992e-07 5.63345e-08 3.22818e-08)
(1.65355e-07 6.63785e-08 4.23214e-08)
(0 2.11365e-08 -6.85024e-09)
(7.09062e-09 2.20366e-08 -5.88718e-09)
(1.50351e-08 2.43751e-08 -3.29462e-09)
(2.44236e-08 2.75533e-08 3.32258e-10)
(3.57349e-08 3.12012e-08 4.46781e-09)
(4.9354e-08 3.54003e-08 8.89242e-09)
(6.5525e-08 4.05362e-08 1.36864e-08)
(8.43638e-08 4.70561e-08 1.91292e-08)
(1.05522e-07 5.51783e-08 2.54802e-08)
(1.2818e-07 6.50599e-08 3.29606e-08)
(1.53311e-07 7.55369e-08 4.17587e-08)
(0 2.84839e-08 -6.3094e-09)
(6.0703e-09 2.9952e-08 -4.8069e-09)
(1.29775e-08 3.34672e-08 -1.00792e-09)
(2.13306e-08 3.75716e-08 3.77808e-09)
(3.16343e-08 4.15466e-08 8.62116e-09)
(4.43301e-08 4.56185e-08 1.32465e-08)
(5.97303e-08 5.04674e-08 1.78404e-08)
(7.78679e-08 5.66943e-08 2.27672e-08)
(9.82739e-08 6.44828e-08 2.83278e-08)
(1.1985e-07 7.37703e-08 3.47048e-08)
(1.42454e-07 8.33447e-08 4.18e-08)
(0 3.53708e-08 -6.33756e-09)
(5.19471e-09 3.80188e-08 -3.7639e-09)
(1.11491e-08 4.39291e-08 2.21492e-09)
(1.84523e-08 4.95821e-08 8.76436e-09)
(2.7602e-08 5.37881e-08 1.44498e-08)
(3.90946e-08 5.72274e-08 1.91211e-08)
(5.33785e-08 6.11712e-08 2.3244e-08)
(7.06813e-08 6.6566e-08 2.74029e-08)
(9.06903e-08 7.36148e-08 3.20188e-08)
(1.12037e-07 8.16312e-08 3.71331e-08)
(1.32913e-07 8.96516e-08 4.25933e-08)
(0 0 -1.45793e-08)
(1.86547e-08 0 -1.44175e-08)
(3.76838e-08 0 -1.39537e-08)
(5.77255e-08 0 -1.32234e-08)
(7.97464e-08 0 -1.22627e-08)
(1.04667e-07 0 -1.11153e-08)
(1.33339e-07 0 -9.85284e-09)
(1.66583e-07 0 -8.60947e-09)
(2.05202e-07 0 -7.64751e-09)
(2.50021e-07 0 -7.48482e-09)
(3.02752e-07 0 -9.19552e-09)
(-0 -3.51103e-09 -1.48358e-08)
(1.81302e-08 -3.39733e-09 -1.46702e-08)
(3.6794e-08 -3.08129e-09 -1.41903e-08)
(5.65812e-08 -2.62348e-09 -1.34327e-08)
(7.83369e-08 -2.03267e-09 -1.24367e-08)
(1.02954e-07 -1.28651e-09 -1.12416e-08)
(1.3125e-07 -3.56659e-10 -9.90607e-09)
(1.63998e-07 7.85209e-10 -8.53433e-09)
(2.0191e-07 2.15842e-09 -7.32138e-09)
(2.45596e-07 3.76824e-09 -6.62547e-09)
(2.95932e-07 5.47902e-09 -7.16506e-09)
(-0 -6.53578e-09 -1.55946e-08)
(1.67408e-08 -6.34632e-09 -1.5419e-08)
(3.42729e-08 -5.79927e-09 -1.49013e-08)
(5.31891e-08 -4.95269e-09 -1.40737e-08)
(7.41229e-08 -3.82712e-09 -1.29813e-08)
(9.78047e-08 -2.38851e-09 -1.16604e-08)
(1.24989e-07 -5.73303e-10 -1.01375e-08)
(1.56316e-07 1.68052e-09 -8.44772e-09)
(1.92233e-07 4.41324e-09 -6.64385e-09)
(2.32938e-07 7.63133e-09 -4.77593e-09)
(2.79154e-07 1.10231e-08 -2.99107e-09)
(-0 -8.70138e-09 -1.68393e-08)
(1.48891e-08 -8.46422e-09 -1.66453e-08)
(3.06657e-08 -7.76986e-09 -1.60719e-08)
(4.80131e-08 -6.64727e-09 -1.51491e-08)
(6.75286e-08 -5.09953e-09 -1.39218e-08)
(8.97314e-08 -3.08194e-09 -1.24299e-08)
(1.15181e-07 -4.95982e-10 -1.0678e-08)
(1.44365e-07 2.7686e-09 -8.63328e-09)
(1.77454e-07 6.78548e-09 -6.22502e-09)
(2.14263e-07 1.15743e-08 -3.29282e-09)
(2.558e-07 1.66528e-08 3.68087e-10)
(-0 -9.71972e-09 -1.85803e-08)
(1.27557e-08 -9.447e-09 -1.83556e-08)
(2.64389e-08 -8.65608e-09 -1.76946e-08)
(4.17184e-08 -7.36545e-09 -1.66468e-08)
(5.92345e-08 -5.54845e-09 -1.52691e-08)
(7.94882e-08 -3.12413e-09 -1.3603e-08)
(1.0281e-07 4.91779e-11 -1.16512e-08)
(1.29429e-07 4.14116e-09 -9.35265e-09)
(1.5934e-07 9.28219e-09 -6.57459e-09)
(1.92114e-07 1.55265e-08 -3.09245e-09)
(2.29206e-07 2.22557e-08 1.47309e-09)
(-0 -9.28492e-09 -2.08581e-08)
(1.04942e-08 -8.98559e-09 -2.0583e-08)
(2.19204e-08 -8.133e-09 -1.97809e-08)
(3.49256e-08 -6.76079e-09 -1.85466e-08)
(5.00956e-08 -4.83855e-09 -1.69907e-08)
(6.79847e-08 -2.23372e-09 -1.51759e-08)
(8.89491e-08 1.27277e-09 -1.31007e-08)
(1.12972e-07 5.92493e-09 -1.07069e-08)
(1.39765e-07 1.19307e-08 -7.87116e-09)
(1.68844e-07 1.94033e-08 -4.39242e-09)
(2.02156e-07 2.76639e-08 2.37549e-10)
(-0 -7.07667e-09 -2.37601e-08)
(8.25343e-09 -6.74612e-09 -2.33942e-08)
(1.74023e-08 -5.8391e-09 -2.23537e-08)
(2.81015e-08 -4.45069e-09 -2.08217e-08)
(4.08865e-08 -2.58469e-09 -1.90104e-08)
(5.62513e-08 -6.48594e-11 -1.70526e-08)
(7.46434e-08 3.43715e-09 -1.4953e-08)
(9.61622e-08 8.29309e-09 -1.26321e-08)
(1.20251e-07 1.47995e-08 -9.99849e-09)
(1.46245e-07 2.31207e-08 -6.92287e-09)
(1.76544e-07 3.26343e-08 -2.7762e-09)
(-0 -2.77898e-09 -2.74542e-08)
(6.16295e-09 -2.37951e-09 -2.69177e-08)
(1.31672e-08 -1.36165e-09 -2.54467e-08)
(2.16609e-08 1.73518e-11 -2.34122e-08)
(3.21872e-08 1.6597e-09 -2.12019e-08)
(4.51956e-08 3.78836e-09 -1.90532e-08)
(6.10719e-08 6.87652e-09 -1.69958e-08)
(8.01059e-08 1.148e-08 -1.4907e-08)
(1.01861e-07 1.79912e-08 -1.26638e-08)
(1.25437e-07 2.66106e-08 -1.01966e-08)
(1.53272e-07 3.6867e-08 -6.83072e-09)
(0 3.84758e-09 -3.225e-08)
(4.33109e-09 4.4277e-09 -3.13792e-08)
(9.44083e-09 5.75167e-09 -2.9098e-08)
(1.59561e-08 7.17472e-09 -2.6189e-08)
(2.44411e-08 8.40838e-09 -2.33531e-08)
(3.53892e-08 9.76795e-09 -2.09377e-08)
(4.9166e-08 1.19667e-08 -1.89522e-08)
(6.60025e-08 1.57798e-08 -1.72038e-08)
(8.56417e-08 2.16964e-08 -1.54755e-08)
(1.07182e-07 2.99436e-08 -1.36828e-08)
(1.32573e-07 4.01379e-08 -1.12141e-08)
(0 1.27953e-08 -3.87344e-08)
(2.84315e-09 1.38529e-08 -3.71626e-08)
(6.39243e-09 1.60107e-08 -3.33081e-08)
(1.12497e-08 1.76834e-08 -2.88892e-08)
(1.79895e-08 1.82494e-08 -2.5116e-08)
(2.71756e-08 1.82967e-08 -2.23914e-08)
(3.92875e-08 1.9011e-08 -2.05616e-08)
(5.45475e-08 2.14962e-08 -1.92461e-08)
(7.26652e-08 2.63283e-08 -1.80787e-08)
(9.2532e-08 3.35398e-08 -1.68946e-08)
(1.14636e-07 4.24214e-08 -1.527e-08)
(0 2.3565e-08 -4.8211e-08)
(1.70981e-09 2.56713e-08 -4.50647e-08)
(4.01258e-09 2.98787e-08 -3.82415e-08)
(7.41768e-09 3.23268e-08 -3.13778e-08)
(1.2453e-08 3.19204e-08 -2.63027e-08)
(1.973e-08 2.98612e-08 -2.32524e-08)
(2.99036e-08 2.81404e-08 -2.17081e-08)
(4.34858e-08 2.84223e-08 -2.09653e-08)
(6.04913e-08 3.15002e-08 -2.04118e-08)
(7.98592e-08 3.70617e-08 -1.96496e-08)
(9.99088e-08 4.41489e-08 -1.85151e-08)
(0 0 -2.16092e-08)
(1.67856e-08 0 -2.17021e-08)
(3.40126e-08 0 -2.19989e-08)
(5.23559e-08 0 -2.2553e-08)
(7.27873e-08 0 -2.34597e-08)
(9.62455e-08 0 -2.48712e-08)
(1.23621e-07 0 -2.70204e-08)
(1.55805e-07 0 -3.02623e-08)
(1.93701e-07 0 -3.51411e-08)
(2.38271e-07 0 -4.25185e-08)
(2.91358e-07 0 -5.4016e-08)
(-0 -8.30883e-09 -2.20318e-08)
(1.61916e-08 -8.18972e-09 -2.2122e-08)
(3.29699e-08 -7.86997e-09 -2.24047e-08)
(5.09671e-08 -7.47118e-09 -2.2936e-08)
(7.10421e-08 -7.0098e-09 -2.38132e-08)
(9.41067e-08 -6.44282e-09 -2.51816e-08)
(1.2102e-07 -5.72056e-09 -2.72563e-08)
(1.52626e-07 -4.79723e-09 -3.03573e-08)
(1.89755e-07 -3.63617e-09 -3.49468e-08)
(2.33196e-07 -2.21517e-09 -4.16867e-08)
(2.84089e-07 -5.06967e-10 -5.16287e-08)
(-0 -1.60384e-08 -2.32923e-08)
(1.45911e-08 -1.5878e-08 -2.33727e-08)
(2.99977e-08 -1.54134e-08 -2.3621e-08)
(4.68594e-08 -1.47497e-08 -2.40929e-08)
(6.58408e-08 -1.39285e-08 -2.48861e-08)
(8.76968e-08 -1.28973e-08 -2.61356e-08)
(1.13223e-07 -1.15515e-08 -2.80169e-08)
(1.43139e-07 -9.79484e-09 -3.07631e-08)
(1.78034e-07 -7.5482e-09 -3.46557e-08)
(2.18352e-07 -4.76101e-09 -3.99785e-08)
(2.65366e-07 -1.37924e-09 -4.70515e-08)
(-0 -2.28338e-08 -2.53996e-08)
(1.23842e-08 -2.26816e-08 -2.5464e-08)
(2.5653e-08 -2.22233e-08 -2.56639e-08)
(4.05291e-08 -2.14988e-08 -2.60565e-08)
(5.76487e-08 -2.05091e-08 -2.67352e-08)
(7.75661e-08 -1.91986e-08 -2.78271e-08)
(1.00881e-07 -1.74271e-08 -2.94733e-08)
(1.28156e-07 -1.50277e-08 -3.18195e-08)
(1.59712e-07 -1.18648e-08 -3.49855e-08)
(1.95611e-07 -7.85548e-09 -3.89933e-08)
(2.3769e-07 -2.86845e-09 -4.36916e-08)
(-0 -2.84962e-08 -2.84178e-08)
(9.7766e-09 -2.83686e-08 -2.84584e-08)
(2.0443e-08 -2.79874e-08 -2.85855e-08)
(3.27e-08 -2.73708e-08 -2.88742e-08)
(4.72257e-08 -2.64592e-08 -2.94278e-08)
(6.4562e-08 -2.513e-08 -3.03648e-08)
(8.50778e-08 -2.32006e-08 -3.18082e-08)
(1.09056e-07 -2.04439e-08 -3.38578e-08)
(1.36615e-07 -1.66419e-08 -3.65479e-08)
(1.67523e-07 -1.1655e-08 -3.9804e-08)
(2.04302e-07 -5.20581e-09 -4.3194e-08)
(-0 -3.27689e-08 -3.24793e-08)
(6.9518e-09 -3.26781e-08 -3.24793e-08)
(1.47549e-08 -3.24175e-08 -3.24874e-08)
(2.4074e-08 -3.20239e-08 -3.26191e-08)
(3.55339e-08 -3.14273e-08 -3.30232e-08)
(4.97272e-08 -3.04159e-08 -3.38321e-08)
(6.70443e-08 -2.86891e-08 -3.5155e-08)
(8.75075e-08 -2.59345e-08 -3.70725e-08)
(1.10892e-07 -2.18685e-08 -3.96142e-08)
(1.36834e-07 -1.62661e-08 -4.27147e-08)
(1.68561e-07 -8.5988e-09 -4.57008e-08)
(-0 -3.53408e-08 -3.78016e-08)
(4.09011e-09 -3.52778e-08 -3.77222e-08)
(8.94294e-09 -3.51502e-08 -3.75206e-08)
(1.52085e-08 -3.50706e-08 -3.73939e-08)
(2.34625e-08 -3.50062e-08 -3.75782e-08)
(3.42404e-08 -3.46834e-08 -3.8264e-08)
(4.80212e-08 -3.36334e-08 -3.95573e-08)
(6.49361e-08 -3.13502e-08 -4.15089e-08)
(8.44474e-08 -2.74699e-08 -4.41638e-08)
(1.05947e-07 -2.17195e-08 -4.75076e-08)
(1.33233e-07 -1.32384e-08 -5.06457e-08)
(-0 -3.58579e-08 -4.47241e-08)
(1.35184e-09 -3.57743e-08 -4.44876e-08)
(3.3487e-09 -3.57095e-08 -4.38878e-08)
(6.61184e-09 -3.59856e-08 -4.33013e-08)
(1.17194e-08 -3.66807e-08 -4.31256e-08)
(1.91724e-08 -3.74487e-08 -4.36382e-08)
(2.94052e-08 -3.76141e-08 -4.49514e-08)
(4.27376e-08 -3.64025e-08 -4.7072e-08)
(5.87811e-08 -3.32574e-08 -4.99803e-08)
(7.66607e-08 -2.78961e-08 -5.37044e-08)
(1.00138e-07 -1.92266e-08 -5.7244e-08)
(-0 -3.39901e-08 -5.37653e-08)
(-1.12331e-09 -3.37419e-08 -5.32069e-08)
(-1.73342e-09 -3.3484e-08 -5.18208e-08)
(-1.25877e-09 -3.40508e-08 -5.03923e-08)
(8.89714e-10 -3.57641e-08 -4.96216e-08)
(5.2668e-09 -3.81336e-08 -4.98788e-08)
(1.23297e-08 -4.01276e-08 -5.12289e-08)
(2.24013e-08 -4.06221e-08 -5.35719e-08)
(3.53726e-08 -3.88013e-08 -5.67427e-08)
(5.03479e-08 -3.43876e-08 -6.07695e-08)
(7.0368e-08 -2.63597e-08 -6.46808e-08)
(-0 -2.96128e-08 -6.57458e-08)
(-3.21923e-09 -2.88097e-08 -6.44857e-08)
(-6.06077e-09 -2.7673e-08 -6.15243e-08)
(-8.03363e-09 -2.828e-08 -5.85942e-08)
(-8.55431e-09 -3.13839e-08 -5.68922e-08)
(-6.97963e-09 -3.61105e-08 -5.68274e-08)
(-2.6755e-09 -4.07389e-08 -5.82755e-08)
(4.80635e-09 -4.357e-08 -6.08852e-08)
(1.54799e-08 -4.35038e-08 -6.42688e-08)
(2.83998e-08 -4.03698e-08 -6.82833e-08)
(4.49384e-08 -3.38448e-08 -7.2042e-08)
(-0 -2.3177e-08 -8.23023e-08)
(-4.74147e-09 -2.09482e-08 -7.93225e-08)
(-9.23108e-09 -1.72591e-08 -7.32769e-08)
(-1.31634e-08 -1.70965e-08 -6.77839e-08)
(-1.60491e-08 -2.18318e-08 -6.46345e-08)
(-1.72078e-08 -2.98046e-08 -6.40629e-08)
(-1.57905e-08 -3.82091e-08 -6.55717e-08)
(-1.09491e-08 -4.44782e-08 -6.845e-08)
(-2.1761e-09 -4.69804e-08 -7.19926e-08)
(1.01343e-08 -4.53626e-08 -7.55191e-08)
(2.47809e-08 -4.03959e-08 -7.85976e-08)
(0 0 -2.50299e-08)
(1.28128e-08 0 -2.53038e-08)
(2.60678e-08 0 -2.61321e-08)
(4.03679e-08 0 -2.75512e-08)
(5.6519e-08 0 -2.96513e-08)
(7.52643e-08 0 -3.25929e-08)
(9.72519e-08 0 -3.66262e-08)
(1.23039e-07 0 -4.21245e-08)
(1.53041e-07 0 -4.96348e-08)
(1.87456e-07 0 -5.99694e-08)
(2.26598e-07 0 -7.46201e-08)
(-0 -1.36084e-08 -2.5491e-08)
(1.21888e-08 -1.34925e-08 -2.57647e-08)
(2.49347e-08 -1.31945e-08 -2.65866e-08)
(3.8811e-08 -1.29018e-08 -2.79963e-08)
(5.45346e-08 -1.26405e-08 -3.00846e-08)
(7.28298e-08 -1.23485e-08 -3.30056e-08)
(9.43278e-08 -1.19594e-08 -3.69934e-08)
(1.19567e-07 -1.14189e-08 -4.23943e-08)
(1.48963e-07 -1.06864e-08 -4.96879e-08)
(1.82727e-07 -9.7425e-09 -5.95199e-08)
(2.21084e-07 -8.3836e-09 -7.28326e-08)
(-0 -2.66172e-08 -2.68681e-08)
(1.04793e-08 -2.65056e-08 -2.71372e-08)
(2.16899e-08 -2.61793e-08 -2.79439e-08)
(3.42213e-08 -2.5793e-08 -2.93303e-08)
(4.86438e-08 -2.54141e-08 -3.13838e-08)
(6.55603e-08 -2.49784e-08 -3.4246e-08)
(8.55687e-08 -2.43506e-08 -3.81189e-08)
(1.09154e-07 -2.34183e-08 -4.32765e-08)
(1.36654e-07 -2.20884e-08 -5.00474e-08)
(1.68279e-07 -2.02998e-08 -5.87672e-08)
(2.05162e-07 -1.75881e-08 -6.974e-08)
(-0 -3.87796e-08 -2.91714e-08)
(8.04027e-09 -3.87427e-08 -2.9435e-08)
(1.68464e-08 -3.86055e-08 -3.02251e-08)
(2.708e-08 -3.84173e-08 -3.15871e-08)
(3.93054e-08 -3.8182e-08 -3.36016e-08)
(5.39753e-08 -3.78464e-08 -3.63962e-08)
(7.15401e-08 -3.72485e-08 -4.0141e-08)
(9.2398e-08 -3.61926e-08 -4.50371e-08)
(1.16753e-07 -3.45156e-08 -5.12759e-08)
(1.44665e-07 -3.21173e-08 -5.89784e-08)
(1.78348e-07 -2.81648e-08 -6.80126e-08)
(-0 -5.01034e-08 -3.24669e-08)
(5.08616e-09 -5.01585e-08 -3.27247e-08)
(1.0906e-08 -5.02895e-08 -3.34919e-08)
(1.81017e-08 -5.05143e-08 -3.48253e-08)
(2.72845e-08 -5.07455e-08 -3.68091e-08)
(3.89197e-08 -5.08354e-08 -3.95556e-08)
(5.32778e-08 -5.05924e-08 -4.32113e-08)
(7.05282e-08 -4.97745e-08 -4.79358e-08)
(9.07339e-08 -4.81213e-08 -5.38466e-08)
(1.13722e-07 -4.54625e-08 -6.09795e-08)
(1.42717e-07 -4.04843e-08 -6.89032e-08)
(-0 -6.05327e-08 -3.68908e-08)
(1.81527e-09 -6.06892e-08 -3.71352e-08)
(4.28305e-09 -6.11208e-08 -3.78586e-08)
(8.00412e-09 -6.18715e-08 -3.91416e-08)
(1.3555e-08 -6.28449e-08 -4.10918e-08)
(2.1459e-08 -6.37725e-08 -4.38236e-08)
(3.20229e-08 -6.43122e-08 -4.7465e-08)
(4.51974e-08 -6.41407e-08 -5.21474e-08)
(6.07106e-08 -6.29653e-08 -5.79814e-08)
(7.8221e-08 -6.0511e-08 -6.5002e-08)
(1.01887e-07 -5.48382e-08 -7.25018e-08)
(-0 -6.99782e-08 -4.266e-08)
(-1.57663e-09 -7.02099e-08 -4.28672e-08)
(-2.63889e-09 -7.09262e-08 -4.34963e-08)
(-2.61857e-09 -7.22697e-08 -4.46763e-08)
(-9.70487e-10 -7.41982e-08 -4.65619e-08)
(2.79531e-09 -7.63821e-08 -4.92952e-08)
(9.07791e-09 -7.8263e-08 -5.29924e-08)
(1.79367e-08 -7.92661e-08 -5.77564e-08)
(2.87913e-08 -7.90483e-08 -6.37012e-08)
(4.10233e-08 -7.73059e-08 -7.0888e-08)
(5.9491e-08 -7.14272e-08 -7.83624e-08)
(-0 -7.83543e-08 -5.00971e-08)
(-4.91582e-09 -7.85787e-08 -5.02187e-08)
(-9.49671e-09 -7.94304e-08 -5.06355e-08)
(-1.32188e-08 -8.13366e-08 -5.15898e-08)
(-1.55319e-08 -8.4411e-08 -5.33307e-08)
(-1.59528e-08 -8.8255e-08 -5.6043e-08)
(-1.4088e-08 -9.20639e-08 -5.98293e-08)
(-9.69976e-09 -9.49208e-08 -6.47597e-08)
(-3.18298e-09 -9.6189e-08 -7.08767e-08)
(4.57419e-09 -9.56033e-08 -7.82654e-08)
(1.83651e-08 -9.02099e-08 -8.58557e-08)
(-0 -8.56864e-08 -5.9665e-08)
(-8.05025e-09 -8.56764e-08 -5.95923e-08)
(-1.59641e-08 -8.62136e-08 -5.95382e-08)
(-2.32895e-08 -8.84438e-08 -6.00145e-08)
(-2.94705e-08 -9.2845e-08 -6.14616e-08)
(-3.3956e-08 -9.88588e-08 -6.41074e-08)
(-3.62687e-08 -1.0523e-07 -6.79965e-08)
(-3.60792e-08 -1.1057e-07 -7.30944e-08)
(-3.33976e-08 -1.138e-07 -7.92981e-08)
(-2.91532e-08 -1.14707e-07 -8.67121e-08)
(-1.94173e-08 -1.10568e-07 -9.42857e-08)
(-0 -9.23741e-08 -7.20399e-08)
(-1.08555e-08 -9.15229e-08 -7.15121e-08)
(-2.17649e-08 -9.06266e-08 -7.04505e-08)
(-3.24104e-08 -9.26015e-08 -7.00056e-08)
(-4.22547e-08 -9.85771e-08 -7.09351e-08)
(-5.06405e-08 -1.07547e-07 -7.34721e-08)
(-5.68486e-08 -1.17356e-07 -7.75045e-08)
(-6.026e-08 -1.25779e-07 -8.27683e-08)
(-6.05648e-08 -1.31222e-07 -8.89449e-08)
(-5.852e-08 -1.33443e-07 -9.59503e-08)
(-5.18577e-08 -1.30782e-07 -1.02755e-07)
(-0 -9.99474e-08 -8.85164e-08)
(-1.29413e-08 -9.66788e-08 -8.67444e-08)
(-2.60436e-08 -9.16709e-08 -8.35825e-08)
(-3.92706e-08 -9.18397e-08 -8.1413e-08)
(-5.22258e-08 -9.92272e-08 -8.13683e-08)
(-6.42297e-08 -1.11878e-07 -8.35534e-08)
(-7.43174e-08 -1.26255e-07 -8.75922e-08)
(-8.13661e-08 -1.38918e-07 -9.29399e-08)
(-8.43687e-08 -1.47362e-07 -9.89896e-08)
(-8.28813e-08 -1.50434e-07 -1.05016e-07)
(-7.7401e-08 -1.48561e-07 -1.10502e-07)
(0 0 -2.33084e-08)
(8.04648e-09 0 -2.36292e-08)
(1.65057e-08 0 -2.45807e-08)
(2.58626e-08 0 -2.61467e-08)
(3.6686e-08 0 -2.83396e-08)
(4.94358e-08 0 -3.121e-08)
(6.43991e-08 0 -3.48527e-08)
(8.16297e-08 0 -3.94159e-08)
(1.008e-07 0 -4.51121e-08)
(1.20947e-07 0 -5.22347e-08)
(1.40152e-07 0 -6.13326e-08)
(-0 -1.79337e-08 -2.36453e-08)
(7.43284e-09 -1.78321e-08 -2.39693e-08)
(1.53561e-08 -1.75852e-08 -2.49264e-08)
(2.42406e-08 -1.74293e-08 -2.65032e-08)
(3.45966e-08 -1.73944e-08 -2.87115e-08)
(4.68751e-08 -1.74014e-08 -3.15988e-08)
(6.13651e-08 -1.73718e-08 -3.52537e-08)
(7.8136e-08 -1.72509e-08 -3.98181e-08)
(9.69475e-08 -1.70063e-08 -4.54849e-08)
(1.17075e-07 -1.66394e-08 -5.2495e-08)
(1.37261e-07 -1.58107e-08 -6.11492e-08)
(-0 -3.5294e-08 -2.46482e-08)
(5.725e-09 -3.52449e-08 -2.49772e-08)
(1.20505e-08 -3.50967e-08 -2.59518e-08)
(1.94733e-08 -3.50348e-08 -2.75618e-08)
(2.84159e-08 -3.51394e-08 -2.98141e-08)
(3.92548e-08 -3.5334e-08 -3.27494e-08)
(5.22851e-08 -3.54616e-08 -3.64466e-08)
(6.76126e-08 -3.54091e-08 -4.10263e-08)
(8.51196e-08 -3.50935e-08 -4.66343e-08)
(1.04502e-07 -3.4478e-08 -5.3421e-08)
(1.26269e-07 -3.27694e-08 -6.14336e-08)
(-0 -5.19681e-08 -2.63032e-08)
(3.21221e-09 -5.20582e-08 -2.66437e-08)
(7.02564e-09 -5.22768e-08 -2.76532e-08)
(1.19965e-08 -5.26672e-08 -2.93244e-08)
(1.85681e-08 -5.32216e-08 -3.16572e-08)