/*--------------------------------*- C++ -*----------------------------------*\
| =========                 |                                                 |
| \\      /  F ield         | foam-extend: Open Source CFD                    |
|  \\    /   O peration     | Version:     3.1                                |
|   \\  /    A nd           | Web:         http://www.extend-project.de       |
|    \\/     M anipulation  |                                                 |
\*---------------------------------------------------------------------------*/
FoamFile
{
    version     2.0;
    format      ascii;
    class       surfaceVectorField;
    location    "0.0008";
    object      Sf;
}
// * * * * * * * * * * * * * * * * * * * * * * * * * * * * * * * * * * * * * //

dimensions      [0 2 0 0 0 0 0];

internalField   nonuniform List<vector> 
45800
(
(2.10304e-07 3.67093e-09 -4.99881e-10)
(3.67057e-09 2.10303e-07 -5.00992e-10)
(-7.11208e-12 -7.07989e-12 1.15554e-07)
(2.06645e-07 7.3387e-09 -9.71661e-10)
(3.67985e-09 2.10309e-07 -4.985e-10)
(-2.08997e-11 -7.49365e-12 1.13523e-07)
(2.02998e-07 1.10053e-08 -1.41154e-09)
(3.68186e-09 2.10324e-07 -4.90162e-10)
(-3.46673e-11 -8.35216e-12 1.11482e-07)
(1.99366e-07 1.46742e-08 -1.82538e-09)
(3.68126e-09 2.10358e-07 -4.81559e-10)
(-4.93897e-11 -9.79412e-12 1.09447e-07)
(1.95751e-07 1.83469e-08 -2.21947e-09)
(3.68066e-09 2.10415e-07 -4.74494e-10)
(-6.60528e-11 -1.19868e-11 1.0742e-07)
(1.92157e-07 2.20248e-08 -2.59819e-09)
(3.68008e-09 2.10496e-07 -4.694e-10)
(-8.55544e-11 -1.51237e-11 1.05398e-07)
(1.88586e-07 2.57099e-08 -2.96404e-09)
(3.67926e-09 2.10605e-07 -4.66883e-10)
(-1.08813e-10 -1.94789e-11 1.03382e-07)
(1.85045e-07 2.94045e-08 -3.31708e-09)
(3.67818e-09 2.10743e-07 -4.67745e-10)
(-1.36509e-10 -2.53261e-11 1.0137e-07)
(1.81537e-07 3.3112e-08 -3.6541e-09)
(3.67677e-09 2.10915e-07 -4.72889e-10)
(-1.68987e-10 -3.268e-11 9.93584e-08)
(3.68366e-09 2.11122e-07 -4.7887e-10)
(-2.07702e-10 -3.96866e-11 9.73434e-08)
(1.78061e-07 3.68412e-08 -3.97067e-09)
(2.10308e-07 3.67947e-09 -4.97402e-10)
(7.33802e-09 2.06644e-07 -9.71911e-10)
(-7.51226e-12 -2.08588e-11 1.13521e-07)
(2.06657e-07 7.35287e-09 -9.72352e-10)
(7.35216e-09 2.06656e-07 -9.73314e-10)
(-2.11383e-11 -2.10865e-11 1.11502e-07)
(2.03014e-07 1.10211e-08 -1.41984e-09)
(7.35933e-09 2.06677e-07 -9.64145e-10)
(-3.48558e-11 -2.16793e-11 1.09473e-07)
(1.99384e-07 1.46899e-08 -1.84173e-09)
(7.36079e-09 2.06712e-07 -9.51504e-10)
(-4.95327e-11 -2.27923e-11 1.07443e-07)
(1.95771e-07 1.83629e-08 -2.24287e-09)
(7.36004e-09 2.06766e-07 -9.40219e-10)
(-6.61184e-11 -2.45673e-11 1.05417e-07)
(1.92177e-07 2.20416e-08 -2.6277e-09)
(7.35917e-09 2.06844e-07 -9.32362e-10)
(-8.548e-11 -2.71997e-11 1.03398e-07)
(1.88607e-07 2.5728e-08 -2.9988e-09)
(7.35769e-09 2.06949e-07 -9.29252e-10)
(-1.08468e-10 -3.08684e-11 1.01383e-07)
(1.85065e-07 2.94253e-08 -3.35608e-09)
(7.35592e-09 2.07082e-07 -9.32382e-10)
(-1.35535e-10 -3.55242e-11 9.93704e-08)
(1.81554e-07 3.31365e-08 -3.69615e-09)
(7.35429e-09 2.07244e-07 -9.42927e-10)
(-1.66703e-10 -4.07732e-11 9.7358e-08)
(7.37076e-09 2.0744e-07 -9.52836e-10)
(-2.01101e-10 -4.51129e-11 9.53363e-08)
(1.78068e-07 3.6864e-08 -4.01118e-09)
(2.10322e-07 3.68084e-09 -4.89789e-10)
(1.1005e-08 2.02998e-07 -1.41053e-09)
(-8.34456e-12 -3.46707e-11 1.11481e-07)
(2.06676e-07 7.35865e-09 -9.63142e-10)
(1.102e-08 2.03013e-07 -1.41951e-09)
(-2.17046e-11 -3.48203e-11 1.09471e-07)
(2.0304e-07 1.10321e-08 -1.4155e-09)
(1.10313e-08 2.03039e-07 -1.41613e-09)
(-3.53093e-11 -3.5251e-11 1.07455e-07)
(1.99413e-07 1.47032e-08 -1.8452e-09)
(1.10375e-08 2.03077e-07 -1.4056e-09)
(-4.98791e-11 -3.61381e-11 1.05434e-07)
(1.95801e-07 1.83769e-08 -2.25374e-09)
(1.10386e-08 2.0313e-07 -1.3939e-09)
(-6.63038e-11 -3.76205e-11 1.03412e-07)
(1.92208e-07 2.20568e-08 -2.64461e-09)
(1.10376e-08 2.03204e-07 -1.38584e-09)
(-8.54502e-11 -3.98744e-11 1.01393e-07)
(1.88637e-07 2.57449e-08 -3.02032e-09)
(1.10359e-08 2.03304e-07 -1.38414e-09)
(-1.08015e-10 -4.30689e-11 9.93791e-08)
(1.85093e-07 2.9444e-08 -3.3803e-09)
(1.10341e-08 2.03429e-07 -1.39068e-09)
(-1.34155e-10 -4.71332e-11 9.73662e-08)
(1.81579e-07 3.31568e-08 -3.72126e-09)
(1.10326e-08 2.03583e-07 -1.4069e-09)
(-1.63757e-10 -5.18156e-11 9.53522e-08)
(1.10599e-08 2.03769e-07 -1.42007e-09)
(-1.94537e-10 -5.56016e-11 9.33279e-08)
(1.78084e-07 3.6883e-08 -4.03524e-09)
(2.10357e-07 3.68099e-09 -4.81865e-10)
(1.46742e-08 1.99366e-07 -1.82393e-09)
(-9.77522e-12 -4.94287e-11 1.09447e-07)
(2.06711e-07 7.3597e-09 -9.51388e-10)
(1.46895e-08 1.99384e-07 -1.84049e-09)
(-2.27796e-11 -4.95571e-11 1.07441e-07)
(2.03076e-07 1.10367e-08 -1.40488e-09)
(1.4702e-08 1.99412e-07 -1.84474e-09)
(-3.6164e-11 -4.98574e-11 1.05432e-07)
(1.99452e-07 1.47124e-08 -1.83988e-09)
(1.47116e-08 1.99452e-07 -1.84037e-09)
(-5.05873e-11 -5.05361e-11 1.0342e-07)
(1.95841e-07 1.83885e-08 -2.25526e-09)
(1.4717e-08 1.99506e-07 -1.83204e-09)
(-6.68072e-11 -5.17829e-11 1.01403e-07)
(1.92246e-07 2.20694e-08 -2.6519e-09)
(1.47176e-08 1.99577e-07 -1.82544e-09)
(-8.5678e-11 -5.37633e-11 9.93848e-08)
(1.88675e-07 2.57592e-08 -3.03141e-09)
(1.47157e-08 1.99671e-07 -1.8258e-09)
(-1.07831e-10 -5.66824e-11 9.73691e-08)
(1.85128e-07 2.946e-08 -3.39307e-09)
(1.47139e-08 1.99789e-07 -1.83616e-09)
(-1.33231e-10 -6.06576e-11 9.53545e-08)
(1.81609e-07 3.31739e-08 -3.7339e-09)
(1.47131e-08 1.99935e-07 -1.85793e-09)
(-1.61724e-10 -6.56772e-11 9.33386e-08)
(1.47512e-08 2.00113e-07 -1.87388e-09)
(-1.89203e-10 -6.97191e-11 9.13129e-08)
(1.78107e-07 3.69e-08 -4.04693e-09)
(2.10415e-07 3.6807e-09 -4.74922e-10)
(1.83468e-08 1.95752e-07 -2.21797e-09)
(-1.19741e-11 -6.60995e-11 1.0742e-07)
(2.06766e-07 7.35972e-09 -9.40828e-10)
(1.83628e-08 1.95771e-07 -2.24146e-09)
(-2.45389e-11 -6.6165e-11 1.05417e-07)
(2.03129e-07 1.10375e-08 -1.39403e-09)
(1.83764e-08 1.958e-07 -2.25259e-09)
(-3.75899e-11 -6.6321e-11 1.03411e-07)
(1.99505e-07 1.47163e-08 -1.83143e-09)
(1.83873e-08 1.9584e-07 -2.25486e-09)
(-5.18013e-11 -6.67698e-11 1.01401e-07)
(1.95894e-07 1.83966e-08 -2.25144e-09)
(1.83956e-08 1.95893e-07 -2.25205e-09)
(-6.78287e-11 -6.7765e-11 9.93886e-08)
(1.92298e-07 2.20797e-08 -2.65322e-09)
(1.84002e-08 1.95964e-07 -2.24872e-09)
(-8.64759e-11 -6.95803e-11 9.7373e-08)
(1.88722e-07 2.57703e-08 -3.03601e-09)
(1.84e-08 1.96053e-07 -2.25078e-09)
(-1.08271e-10 -7.23933e-11 9.53551e-08)
(1.85172e-07 2.94728e-08 -3.39834e-09)
(1.83975e-08 1.96163e-07 -2.26371e-09)
(-1.33273e-10 -7.64182e-11 9.33366e-08)
(1.81649e-07 3.3189e-08 -3.73781e-09)
(1.8397e-08 1.96301e-07 -2.29001e-09)
(-1.6121e-10 -8.18997e-11 9.13177e-08)
(1.84451e-08 1.96471e-07 -2.30825e-09)
(-1.85392e-10 -8.6123e-11 8.92911e-08)
(1.78141e-07 3.69166e-08 -4.04901e-09)
(2.10496e-07 3.68011e-09 -4.69793e-10)
(2.20248e-08 1.92157e-07 -2.59674e-09)
(-1.51152e-11 -8.55909e-11 1.05399e-07)
(2.06844e-07 7.35923e-09 -9.33111e-10)
(2.20415e-08 1.92178e-07 -2.62634e-09)
(-2.71684e-11 -8.55161e-11 1.03398e-07)
(2.03204e-07 1.10372e-08 -1.38664e-09)
(2.20567e-08 1.92208e-07 -2.64335e-09)
(-3.98202e-11 -8.54845e-11 1.01393e-07)
(1.99576e-07 1.47164e-08 -1.82571e-09)
(2.20689e-08 1.92246e-07 -2.65095e-09)
(-5.37434e-11 -8.57012e-11 9.93837e-08)
(1.95963e-07 1.83994e-08 -2.24799e-09)
(2.20782e-08 1.92297e-07 -2.65312e-09)
(-6.9595e-11 -8.64409e-11 9.73713e-08)
(1.92366e-07 2.20871e-08 -2.65279e-09)
(2.20856e-08 1.92364e-07 -2.65394e-09)
(-8.80806e-11 -8.80053e-11 9.53573e-08)
(1.88786e-07 2.578e-08 -3.03813e-09)
(2.20899e-08 1.9245e-07 -2.65786e-09)
(-1.09616e-10 -9.06521e-11 9.33391e-08)
(1.85229e-07 2.94836e-08 -3.40028e-09)
(2.20885e-08 1.92554e-07 -2.67118e-09)
(-1.34394e-10 -9.46385e-11 9.13157e-08)
(1.817e-07 3.32028e-08 -3.73632e-09)
(2.20875e-08 1.92681e-07 -2.69886e-09)
(-1.62009e-10 -1.00106e-10 8.92904e-08)
(2.21425e-08 1.92844e-07 -2.71783e-09)
(-1.82826e-10 -1.03798e-10 8.72616e-08)
(1.78186e-07 3.6934e-08 -4.04339e-09)
(2.10605e-07 3.67929e-09 -4.67247e-10)
(2.57099e-08 1.88587e-07 -2.96275e-09)
(-1.94705e-11 -1.08843e-10 1.03383e-07)
(2.06949e-07 7.35774e-09 -9.29954e-10)
(2.5728e-08 1.88608e-07 -2.99758e-09)
(-3.08351e-11 -1.08495e-10 1.01383e-07)
(2.03304e-07 1.10359e-08 -1.38514e-09)
(2.57448e-08 1.88638e-07 -3.01917e-09)
(-4.30148e-11 -1.0804e-10 9.93795e-08)
(1.9967e-07 1.47152e-08 -1.82692e-09)
(2.57592e-08 1.88675e-07 -3.03034e-09)
(-5.66401e-11 -1.07845e-10 9.73691e-08)
(1.96051e-07 1.83983e-08 -2.25117e-09)
(2.57699e-08 1.88722e-07 -3.03513e-09)
(-7.23254e-11 -1.08239e-10 9.53536e-08)
(1.92449e-07 2.20888e-08 -2.65653e-09)
(2.57782e-08 1.88783e-07 -3.03808e-09)
(-9.05967e-11 -1.09439e-10 9.33362e-08)
(1.88866e-07 2.57866e-08 -3.04204e-09)
(2.57853e-08 1.88864e-07 -3.04326e-09)
(-1.11962e-10 -1.11715e-10 9.1317e-08)
(1.85302e-07 2.94937e-08 -3.40234e-09)
(2.57886e-08 1.88962e-07 -3.05529e-09)
(-1.36158e-10 -1.14972e-10 8.92899e-08)
(1.81763e-07 3.32166e-08 -3.73198e-09)
(2.57889e-08 1.89078e-07 -3.07973e-09)
(-1.63059e-10 -1.191e-10 8.72554e-08)
(2.58443e-08 1.89229e-07 -3.0964e-09)
(-1.80755e-10 -1.2112e-10 8.5222e-08)
(1.78242e-07 3.6953e-08 -4.03115e-09)
(2.10744e-07 3.67823e-09 -4.68078e-10)
(2.94045e-08 1.85045e-07 -3.31604e-09)
(-2.53161e-11 -1.36539e-10 1.0137e-07)
(2.07082e-07 7.35601e-09 -9.33024e-10)
(2.94253e-08 1.85065e-07 -3.35508e-09)
(-3.54851e-11 -1.35558e-10 9.9371e-08)
(2.0343e-07 1.10343e-08 -1.3916e-09)
(2.94441e-08 1.85094e-07 -3.37933e-09)
(-4.70682e-11 -1.34164e-10 9.73667e-08)
(1.99789e-07 1.47142e-08 -1.8374e-09)
(2.94601e-08 1.85128e-07 -3.39205e-09)
(-6.05749e-11 -1.33206e-10 9.53548e-08)
(1.96162e-07 1.83972e-08 -2.26499e-09)
(2.94731e-08 1.85172e-07 -3.39715e-09)
(-7.6285e-11 -1.33194e-10 9.33363e-08)
(1.92552e-07 2.20869e-08 -2.67092e-09)
(2.94834e-08 1.85228e-07 -3.39894e-09)
(-9.43419e-11 -1.34157e-10 9.13129e-08)
(1.8896e-07 2.57876e-08 -3.05385e-09)
(2.94921e-08 1.85299e-07 -3.4016e-09)
(-1.15098e-10 -1.35769e-10 8.92868e-08)
(1.85386e-07 2.95008e-08 -3.40818e-09)
(2.94999e-08 1.85386e-07 -3.40856e-09)
(-1.37487e-10 -1.37062e-10 8.72525e-08)
(1.81835e-07 3.3229e-08 -3.72713e-09)
(2.95024e-08 1.85488e-07 -3.42486e-09)
(-1.62734e-10 -1.3806e-10 8.52084e-08)
(2.95515e-08 1.85621e-07 -3.43578e-09)
(-1.77401e-10 -1.36315e-10 8.31686e-08)
(1.78306e-07 3.6973e-08 -4.01268e-09)
(2.10915e-07 3.67682e-09 -4.73176e-10)
(3.3112e-08 1.81537e-07 -3.65338e-09)
(-3.26684e-11 -1.69015e-10 9.9359e-08)
(2.07245e-07 7.35441e-09 -9.43472e-10)
(3.31365e-08 1.81555e-07 -3.69546e-09)
(-4.07291e-11 -1.66728e-10 9.73586e-08)
(2.03583e-07 1.10328e-08 -1.40766e-09)
(3.31569e-08 1.81579e-07 -3.72055e-09)
(-5.17388e-11 -1.63775e-10 9.53527e-08)
(1.99935e-07 1.47134e-08 -1.85886e-09)
(3.31741e-08 1.81609e-07 -3.73311e-09)
(-6.55674e-11 -1.61728e-10 9.3339e-08)
(1.96301e-07 1.83976e-08 -2.29108e-09)
(3.31893e-08 1.81649e-07 -3.73685e-09)
(-8.17414e-11 -1.61193e-10 9.1318e-08)
(1.92681e-07 2.20875e-08 -2.69924e-09)
(3.32031e-08 1.817e-07 -3.73504e-09)
(-9.97791e-11 -1.62007e-10 8.92898e-08)
(1.89076e-07 2.57875e-08 -3.07922e-09)
(3.32159e-08 1.81762e-07 -3.73074e-09)
(-1.19211e-10 -1.63149e-10 8.7254e-08)
(1.85487e-07 2.95016e-08 -3.4243e-09)
(3.32277e-08 1.81835e-07 -3.72661e-09)
(-1.38408e-10 -1.62729e-10 8.52074e-08)
(1.81915e-07 3.32334e-08 -3.72727e-09)
(3.3233e-08 1.81915e-07 -3.72745e-09)
(-1.59021e-10 -1.58862e-10 8.31492e-08)
(3.32682e-08 1.82009e-07 -3.72511e-09)
(-1.66596e-10 -1.46508e-10 8.10934e-08)
(1.78365e-07 3.69916e-08 -3.98819e-09)
(2.11123e-07 3.68372e-09 -4.791e-10)
(-3.96719e-11 -2.07706e-10 9.73439e-08)
(3.68412e-08 1.78061e-07 -3.97024e-09)
(2.0744e-07 7.3709e-09 -9.53263e-10)
(-4.50672e-11 -2.01108e-10 9.53368e-08)
(3.68641e-08 1.78069e-07 -4.01077e-09)
(2.03769e-07 1.10601e-08 -1.42064e-09)
(-5.55266e-11 -1.94549e-10 9.33283e-08)
(3.68831e-08 1.78084e-07 -4.03481e-09)
(2.00113e-07 1.47514e-08 -1.87453e-09)
(-6.96227e-11 -1.89231e-10 9.13133e-08)
(3.69001e-08 1.78107e-07 -4.04643e-09)
(1.96472e-07 1.84453e-08 -2.30887e-09)
(-8.60071e-11 -1.85461e-10 8.92914e-08)
(3.69167e-08 1.7814e-07 -4.04841e-09)
(1.92844e-07 2.21425e-08 -2.71823e-09)
(-1.03651e-10 -1.83009e-10 8.72619e-08)
(3.6934e-08 1.78186e-07 -4.04268e-09)
(1.89229e-07 2.5844e-08 -3.09665e-09)
(-1.21216e-10 -1.81003e-10 8.52224e-08)
(3.69529e-08 1.78242e-07 -4.03042e-09)
(1.8562e-07 2.95509e-08 -3.43576e-09)
(-1.36395e-10 -1.77461e-10 8.31683e-08)
(3.69727e-08 1.78305e-07 -4.01208e-09)
(1.82008e-07 3.32679e-08 -3.72476e-09)
(-1.46497e-10 -1.66357e-10 8.10924e-08)
(3.69911e-08 1.78364e-07 -3.9878e-09)
(-1.44346e-10 -1.44028e-10 7.90107e-08)
(1.78416e-07 3.70057e-08 -3.95907e-09)
(3.70052e-08 1.78415e-07 -3.95902e-09)
(2.1107e-07 3.68066e-09 -4.515e-10)
(3.67963e-09 2.11066e-07 -4.52478e-10)
(-1.13376e-11 -1.12882e-11 1.16458e-07)
(2.07376e-07 7.35046e-09 -8.77204e-10)
(3.70614e-09 2.11051e-07 -4.5017e-10)
(-3.31209e-11 -1.19255e-11 1.14399e-07)
(2.03685e-07 1.10133e-08 -1.27349e-09)
(3.71083e-09 2.1103e-07 -4.42427e-10)
(-5.47062e-11 -1.32394e-11 1.12321e-07)
(2.00006e-07 1.46774e-08 -1.64569e-09)
(3.70733e-09 2.11027e-07 -4.34388e-10)
(-7.74339e-11 -1.54284e-11 1.10254e-07)
(1.96339e-07 1.83444e-08 -1.99972e-09)
(3.70307e-09 2.11049e-07 -4.27736e-10)
(-1.02647e-10 -1.87173e-11 1.08201e-07)
(1.92687e-07 2.20151e-08 -2.34015e-09)
(3.69793e-09 2.11093e-07 -4.22915e-10)
(-1.31441e-10 -2.33441e-11 1.06162e-07)
(1.89052e-07 2.56906e-08 -2.67034e-09)
(3.69094e-09 2.11157e-07 -4.20549e-10)
(-1.64778e-10 -2.96287e-11 1.04133e-07)
(1.85437e-07 2.93718e-08 -2.99213e-09)
(3.68175e-09 2.11235e-07 -4.21491e-10)
(-2.03029e-10 -3.78314e-11 1.02113e-07)
(1.81844e-07 3.30614e-08 -3.30536e-09)
(3.66975e-09 2.11317e-07 -4.26754e-10)
(-2.45743e-10 -4.77508e-11 1.00098e-07)
(3.67954e-09 2.11395e-07 -4.33832e-10)
(-2.93613e-10 -5.64749e-11 9.80814e-08)
(1.78251e-07 3.67753e-08 -3.60961e-09)
(2.11049e-07 3.70503e-09 -4.49198e-10)
(7.3485e-09 2.07374e-07 -8.77389e-10)
(-1.19533e-11 -3.30587e-11 1.14395e-07)
(2.07379e-07 7.39073e-09 -8.77763e-10)
(7.38866e-09 2.07378e-07 -8.78582e-10)
(-3.34454e-11 -3.33666e-11 1.12359e-07)
(2.03703e-07 1.10581e-08 -1.28094e-09)
(7.40727e-09 2.07375e-07 -8.69975e-10)
(-5.49228e-11 -3.41866e-11 1.10304e-07)
(2.0003e-07 1.47212e-08 -1.66043e-09)
(7.408e-09 2.07376e-07 -8.581e-10)
(-7.75503e-11 -3.57478e-11 1.08246e-07)
(1.96369e-07 1.83886e-08 -2.02092e-09)
(7.4008e-09 2.07395e-07 -8.47421e-10)
(-1.02613e-10 -3.82365e-11 1.06197e-07)
(1.92721e-07 2.20611e-08 -2.36702e-09)
(7.39141e-09 2.07436e-07 -8.3995e-10)
(-1.31165e-10 -4.18951e-11 1.04161e-07)
(1.89089e-07 2.57402e-08 -2.70217e-09)
(7.37797e-09 2.07494e-07 -8.37024e-10)
(-1.64077e-10 -4.69079e-11 1.02134e-07)
(1.85476e-07 2.94291e-08 -3.02803e-09)
(7.36085e-09 2.07563e-07 -8.40244e-10)
(-2.01409e-10 -5.30777e-11 1.00115e-07)
(1.81881e-07 3.31302e-08 -3.34419e-09)
(7.34058e-09 2.07635e-07 -8.51074e-10)
(-2.42312e-10 -5.967e-11 9.80985e-08)
(7.36865e-09 2.07703e-07 -8.63397e-10)
(-2.84347e-10 -6.43822e-11 9.60684e-08)
(1.78275e-07 3.68423e-08 -3.6467e-09)
(2.11025e-07 3.70787e-09 -4.42107e-10)
(1.10125e-08 2.03686e-07 -1.27253e-09)
(-1.3226e-11 -5.47141e-11 1.12318e-07)
(2.07372e-07 7.40528e-09 -8.69109e-10)
(1.10549e-08 2.037e-07 -1.28057e-09)
(-3.42236e-11 -5.48693e-11 1.103e-07)
(2.03715e-07 1.10865e-08 -1.27667e-09)
(1.10842e-08 2.03714e-07 -1.27715e-09)
(-5.546e-11 -5.53717e-11 1.0827e-07)
(2.00054e-07 1.47555e-08 -1.66326e-09)
(1.10969e-08 2.03728e-07 -1.26714e-09)
(-7.78578e-11 -5.64797e-11 1.0623e-07)
(1.96398e-07 1.84239e-08 -2.03054e-09)
(1.10927e-08 2.03747e-07 -1.25601e-09)
(-1.02605e-10 -5.83745e-11 1.04188e-07)
(1.92756e-07 2.20988e-08 -2.38232e-09)
(1.10796e-08 2.03782e-07 -1.24831e-09)
(-1.30759e-10 -6.12683e-11 1.02154e-07)
(1.89127e-07 2.57819e-08 -2.72196e-09)
(1.10613e-08 2.03833e-07 -1.24678e-09)
(-1.62976e-10 -6.53281e-11 1.00129e-07)
(1.85515e-07 2.94759e-08 -3.05065e-09)
(1.10383e-08 2.03893e-07 -1.25346e-09)
(-1.98909e-10 -7.03227e-11 9.81081e-08)
(1.81918e-07 3.31819e-08 -3.36792e-09)
(1.10111e-08 2.03953e-07 -1.27024e-09)
(-2.376e-10 -7.57207e-11 9.60887e-08)
(1.10615e-08 2.04015e-07 -1.28731e-09)
(-2.74777e-10 -7.92032e-11 9.40533e-08)
(1.78305e-07 3.68927e-08 -3.66934e-09)
(2.11025e-07 3.70654e-09 -4.34695e-10)
(1.46775e-08 2.00007e-07 -1.64432e-09)
(-1.53977e-11 -7.74987e-11 1.10253e-07)
(2.07373e-07 7.40482e-09 -8.58039e-10)
(1.472e-08 2.0003e-07 -1.65924e-09)
(-3.57254e-11 -7.75914e-11 1.08243e-07)
(2.03725e-07 1.10948e-08 -1.26656e-09)
(1.47521e-08 2.00052e-07 -1.66272e-09)
(-5.65169e-11 -7.78267e-11 1.06227e-07)
(2.00077e-07 1.47754e-08 -1.65804e-09)
(1.47731e-08 2.00075e-07 -1.65835e-09)
(-7.85856e-11 -7.85096e-11 1.04202e-07)
(1.96427e-07 1.84489e-08 -2.03169e-09)
(1.47787e-08 2.00102e-07 -1.6504e-09)
(-1.02909e-10 -7.98926e-11 1.02171e-07)
(1.92784e-07 2.21255e-08 -2.389e-09)
(1.47672e-08 2.00134e-07 -1.64421e-09)
(-1.30522e-10 -8.21648e-11 1.00138e-07)
(1.89156e-07 2.5812e-08 -2.73254e-09)
(1.47437e-08 2.00176e-07 -1.64483e-09)
(-1.61994e-10 -8.5537e-11 9.81107e-08)
(1.85543e-07 2.95096e-08 -3.06335e-09)
(1.47151e-08 2.00224e-07 -1.65556e-09)
(-1.9672e-10 -9.00366e-11 9.60874e-08)
(1.81943e-07 3.32185e-08 -3.3811e-09)
(1.46826e-08 2.00274e-07 -1.67842e-09)
(-2.33735e-10 -9.5446e-11 9.40645e-08)
(1.4756e-08 2.00333e-07 -1.69997e-09)
(-2.66353e-10 -9.87046e-11 9.20264e-08)
(1.78326e-07 3.69302e-08 -3.68192e-09)
(2.11049e-07 3.70318e-09 -4.28163e-10)
(1.83443e-08 1.96341e-07 -1.99832e-09)
(-1.86966e-11 -1.02723e-10 1.08202e-07)
(2.07394e-07 7.39986e-09 -8.48041e-10)
(1.83884e-08 1.9637e-07 -2.01958e-09)
(-3.81897e-11 -1.02689e-10 1.06197e-07)
(2.03744e-07 1.10897e-08 -1.2562e-09)
(1.84227e-08 1.96398e-07 -2.0294e-09)
(-5.83241e-11 -1.02634e-10 1.04186e-07)
(2.001e-07 1.47768e-08 -1.64997e-09)
(1.84455e-08 1.96424e-07 -2.03116e-09)
(-7.99175e-11 -1.02853e-10 1.02168e-07)
(1.96457e-07 1.84605e-08 -2.02814e-09)
(1.84577e-08 1.96454e-07 -2.0285e-09)
(-1.03782e-10 -1.03688e-10 1.00145e-07)
(1.92814e-07 2.21409e-08 -2.39057e-09)
(1.84543e-08 1.96489e-07 -2.02573e-09)
(-1.30874e-10 -1.05479e-10 9.81169e-08)
(1.89179e-07 2.58277e-08 -2.7377e-09)
(1.84315e-08 1.96525e-07 -2.02851e-09)
(-1.616e-10 -1.0838e-10 9.60859e-08)
(1.85562e-07 2.95284e-08 -3.06996e-09)
(1.83951e-08 1.9656e-07 -2.04241e-09)
(-1.95502e-10 -1.12532e-10 9.40557e-08)
(1.81958e-07 3.32421e-08 -3.3875e-09)
(1.83564e-08 1.96596e-07 -2.07073e-09)
(-2.31474e-10 -1.18045e-10 9.20275e-08)
(1.84506e-08 1.96651e-07 -2.09658e-09)
(-2.5937e-10 -1.20886e-10 8.99876e-08)
(1.78338e-07 3.69582e-08 -3.68742e-09)
(2.11093e-07 3.69802e-09 -4.23311e-10)
(2.20151e-08 1.92689e-07 -2.3388e-09)
(-2.33299e-11 -1.315e-10 1.06163e-07)
(2.07436e-07 7.39157e-09 -8.40708e-10)
(2.20609e-08 1.92722e-07 -2.36572e-09)
(-4.18437e-11 -1.31223e-10 1.04161e-07)
(2.03781e-07 1.10785e-08 -1.24915e-09)
(2.20986e-08 1.92756e-07 -2.38109e-09)
(-6.11815e-11 -1.30814e-10 1.02154e-07)
(2.00131e-07 1.47635e-08 -1.64457e-09)
(2.2124e-08 1.92784e-07 -2.38798e-09)
(-8.21315e-11 -1.30559e-10 1.00136e-07)
(1.96488e-07 1.8452e-08 -2.02523e-09)
(2.21367e-08 1.9281e-07 -2.39024e-09)
(-1.05499e-10 -1.30823e-10 9.81137e-08)
(1.92848e-07 2.21425e-08 -2.39114e-09)
(2.21383e-08 1.92843e-07 -2.39189e-09)
(-1.32086e-10 -1.31978e-10 9.60894e-08)
(1.89207e-07 2.5833e-08 -2.74149e-09)
(2.21244e-08 1.92878e-07 -2.39737e-09)
(-1.62123e-10 -1.34275e-10 9.40584e-08)
(1.85578e-07 2.95339e-08 -3.0747e-09)
(2.20857e-08 1.92902e-07 -2.41287e-09)
(-1.9534e-10 -1.379e-10 9.20194e-08)
(1.81964e-07 3.32535e-08 -3.39053e-09)
(2.20385e-08 1.92919e-07 -2.44409e-09)
(-2.30423e-10 -1.42771e-10 8.99796e-08)
(2.21447e-08 1.92966e-07 -2.47306e-09)
(-2.53356e-10 -1.44133e-10 8.79355e-08)
(1.7834e-07 3.69789e-08 -3.688e-09)
(2.11158e-07 3.69102e-09 -4.20919e-10)
(2.56906e-08 1.89054e-07 -2.66912e-09)
(-2.96144e-11 -1.64825e-10 1.04134e-07)
(2.07494e-07 7.37809e-09 -8.37739e-10)
(2.57401e-08 1.89091e-07 -2.70099e-09)
(-4.68535e-11 -1.64119e-10 1.02135e-07)
(2.03833e-07 1.10612e-08 -1.2478e-09)
(2.57818e-08 1.89128e-07 -2.72081e-09)
(-6.52418e-11 -1.63015e-10 1.00129e-07)
(2.00174e-07 1.47422e-08 -1.64599e-09)
(2.5812e-08 1.89157e-07 -2.73142e-09)
(-8.54708e-11 -1.62017e-10 9.81107e-08)
(1.9652e-07 1.84265e-08 -2.02899e-09)
(2.58267e-08 1.89179e-07 -2.73668e-09)
(-1.08279e-10 -1.61554e-10 9.6083e-08)
(1.92874e-07 2.21211e-08 -2.39633e-09)
(2.58278e-08 1.89201e-07 -2.74111e-09)
(-1.34194e-10 -1.61868e-10 9.40528e-08)
(1.89232e-07 2.58217e-08 -2.74818e-09)
(2.5818e-08 1.89229e-07 -2.74895e-09)
(-1.63576e-10 -1.63225e-10 9.20204e-08)
(1.85589e-07 2.95291e-08 -3.08121e-09)
(2.57879e-08 1.89245e-07 -2.76497e-09)
(-1.955e-10 -1.65302e-10 8.9975e-08)
(1.81956e-07 3.32556e-08 -3.39294e-09)
(2.57376e-08 1.89241e-07 -2.79525e-09)
(-2.28992e-10 -1.6764e-10 8.79183e-08)
(2.58377e-08 1.89272e-07 -2.82461e-09)
(-2.4721e-10 -1.65963e-10 8.58656e-08)
(1.7833e-07 3.69943e-08 -3.685e-09)
(2.11236e-07 3.68187e-09 -4.21832e-10)
(2.93719e-08 1.85438e-07 -2.99114e-09)
(-3.78145e-11 -2.03073e-10 1.02114e-07)
(2.07564e-07 7.3611e-09 -8.40906e-10)
(2.94292e-08 1.85477e-07 -3.02706e-09)
(-5.30147e-11 -2.01444e-10 1.00116e-07)
(2.03893e-07 1.10387e-08 -1.25442e-09)
(2.94761e-08 1.85515e-07 -3.04965e-09)
(-7.02209e-11 -1.98922e-10 9.8109e-08)
(2.00224e-07 1.47159e-08 -1.65685e-09)
(2.95101e-08 1.85544e-07 -3.06225e-09)
(-8.99109e-11 -1.96683e-10 9.60881e-08)
(1.96558e-07 1.83944e-08 -2.04375e-09)
(2.95293e-08 1.85563e-07 -3.06867e-09)
(-1.12337e-10 -1.95386e-10 9.40552e-08)
(1.92895e-07 2.20813e-08 -2.41275e-09)
(2.95334e-08 1.85575e-07 -3.07317e-09)
(-1.37475e-10 -1.94993e-10 9.2014e-08)
(1.89239e-07 2.57849e-08 -2.76383e-09)
(2.95244e-08 1.85584e-07 -3.08015e-09)
(-1.65477e-10 -1.94937e-10 8.9969e-08)
(1.85581e-07 2.95057e-08 -3.0933e-09)
(2.95029e-08 1.85581e-07 -3.09333e-09)
(-1.94318e-10 -1.93711e-10 8.79103e-08)
(1.81927e-07 3.32441e-08 -3.39727e-09)
(2.9454e-08 1.85556e-07 -3.1183e-09)
(-2.24884e-10 -1.91115e-10 8.58354e-08)
(2.95303e-08 1.8556e-07 -3.1445e-09)
(-2.38582e-10 -1.83777e-10 8.37702e-08)
(1.78295e-07 3.70035e-08 -3.67892e-09)
(2.11318e-07 3.66991e-09 -4.27056e-10)
(3.30614e-08 1.81845e-07 -3.30464e-09)
(-4.77312e-11 -2.45782e-10 1.001e-07)
(2.07636e-07 7.34092e-09 -8.51652e-10)
(3.31303e-08 1.81882e-07 -3.34347e-09)
(-5.95999e-11 -2.42347e-10 9.80996e-08)
(2.03954e-07 1.10117e-08 -1.27106e-09)
(3.31822e-08 1.81919e-07 -3.36714e-09)
(-7.56017e-11 -2.37625e-10 9.60896e-08)
(2.00274e-07 1.46836e-08 -1.67944e-09)
(3.32191e-08 1.81944e-07 -3.38019e-09)
(-9.52805e-11 -2.3374e-10 9.40653e-08)
(1.96597e-07 1.83584e-08 -2.07191e-09)
(3.32428e-08 1.81958e-07 -3.38638e-09)
(-1.17814e-10 -2.31449e-10 9.20282e-08)
(1.92918e-07 2.20385e-08 -2.44463e-09)
(3.32545e-08 1.81963e-07 -3.38908e-09)
(-1.42303e-10 -2.30414e-10 8.99784e-08)
(1.89237e-07 2.57337e-08 -2.79493e-09)
(3.32539e-08 1.81955e-07 -3.39149e-09)
(-1.67797e-10 -2.29112e-10 8.79157e-08)
(1.85553e-07 2.94517e-08 -3.11796e-09)
(3.32407e-08 1.81925e-07 -3.39647e-09)
(-1.91619e-10 -2.24881e-10 8.58336e-08)
(1.81866e-07 3.3199e-08 -3.40903e-09)
(3.31975e-08 1.81865e-07 -3.40895e-09)
(-2.15444e-10 -2.15229e-10 8.3731e-08)
(3.32344e-08 1.81804e-07 -3.42316e-09)
(-2.19712e-10 -1.93796e-10 8.16323e-08)
(1.78215e-07 3.70024e-08 -3.66932e-09)
(2.11396e-07 3.67973e-09 -4.34083e-10)
(-5.64508e-11 -2.93615e-10 9.80825e-08)
(3.67753e-08 1.78251e-07 -3.60914e-09)
(2.07703e-07 7.36903e-09 -8.63868e-10)
(-6.43096e-11 -2.84352e-10 9.60693e-08)
(3.68425e-08 1.78276e-07 -3.64622e-09)
(2.04016e-07 1.10621e-08 -1.28795e-09)
(-7.90872e-11 -2.74791e-10 9.40541e-08)
(3.6893e-08 1.78306e-07 -3.6688e-09)
(2.00334e-07 1.47567e-08 -1.70072e-09)
(-9.85595e-11 -2.66392e-10 9.20272e-08)
(3.69306e-08 1.78326e-07 -3.68127e-09)
(1.96653e-07 1.84514e-08 -2.09734e-09)
(-1.20715e-10 -2.5947e-10 8.99883e-08)
(3.69586e-08 1.78338e-07 -3.68664e-09)
(1.92968e-07 2.21449e-08 -2.47362e-09)
(-1.43924e-10 -2.53619e-10 8.79362e-08)
(3.69792e-08 1.7834e-07 -3.68711e-09)
(1.89273e-07 2.5837e-08 -2.82501e-09)
(-1.66105e-10 -2.47569e-10 8.58664e-08)
(3.69941e-08 1.7833e-07 -3.6841e-09)
(1.85558e-07 2.95286e-08 -3.14461e-09)
(-1.83917e-10 -2.38679e-10 8.37695e-08)
(3.70028e-08 1.78295e-07 -3.67813e-09)
(1.81802e-07 3.32338e-08 -3.42294e-09)
(-1.93788e-10 -2.194e-10 8.16305e-08)
(3.70012e-08 1.78213e-07 -3.66871e-09)
(-1.86674e-10 -1.8626e-10 7.94775e-08)
(1.78094e-07 3.69863e-08 -3.65657e-09)
(3.69849e-08 1.78094e-07 -3.65635e-09)
(2.11644e-07 3.68766e-09 -3.59527e-10)
(3.68607e-09 2.11638e-07 -3.60267e-10)
(-1.11786e-11 -1.11311e-11 1.17178e-07)
(2.07915e-07 7.35771e-09 -6.97546e-10)
(3.72751e-09 2.116e-07 -3.58152e-10)
(-3.24924e-11 -1.17259e-11 1.15095e-07)
(2.0418e-07 1.10155e-08 -1.01049e-09)
(3.73454e-09 2.11538e-07 -3.51432e-10)
(-5.33099e-11 -1.29409e-11 1.12985e-07)
(2.00448e-07 1.4673e-08 -1.30222e-09)
(3.72849e-09 2.1149e-07 -3.44266e-10)
(-7.4695e-11 -1.494e-11 1.1089e-07)
(1.96722e-07 1.83317e-08 -1.57738e-09)
(3.72089e-09 2.11466e-07 -3.38054e-10)
(-9.76688e-11 -1.78878e-11 1.08815e-07)
(1.93002e-07 2.19918e-08 -1.83988e-09)
(3.71143e-09 2.11458e-07 -3.33198e-10)
(-1.22901e-10 -2.19279e-11 1.06757e-07)
(1.8929e-07 2.56531e-08 -2.09313e-09)
(3.69851e-09 2.1146e-07 -3.30258e-10)
(-1.50773e-10 -2.7234e-11 1.04717e-07)
(1.85586e-07 2.93154e-08 -2.33991e-09)
(3.68145e-09 2.11459e-07 -3.30002e-10)
(-1.80934e-10 -3.38691e-11 1.0269e-07)
(1.81894e-07 3.29804e-08 -2.58214e-09)
(3.65908e-09 2.11441e-07 -3.33368e-10)
(-2.12093e-10 -4.14256e-11 1.00674e-07)
(3.66931e-09 2.11389e-07 -3.38802e-10)
(-2.437e-10 -4.72233e-11 9.86601e-08)
(1.78174e-07 3.66713e-08 -2.82204e-09)
(2.11597e-07 3.72576e-09 -3.57416e-10)
(7.35468e-09 2.07912e-07 -6.97619e-10)
(-1.17523e-11 -3.24334e-11 1.1509e-07)
(2.07906e-07 7.42068e-09 -6.97498e-10)
(7.4175e-09 2.07904e-07 -6.98067e-10)
(-3.27259e-11 -3.26509e-11 1.13039e-07)
(2.04193e-07 1.10855e-08 -1.01575e-09)
(7.44592e-09 2.07872e-07 -6.9022e-10)
(-5.33911e-11 -3.32748e-11 1.10961e-07)
(2.00473e-07 1.47414e-08 -1.31317e-09)
(7.44584e-09 2.07833e-07 -6.79355e-10)
(-7.46351e-11 -3.45057e-11 1.08878e-07)
(1.96756e-07 1.84006e-08 -1.59341e-09)
(7.43268e-09 2.07805e-07 -6.69129e-10)
(-9.74236e-11 -3.64768e-11 1.06809e-07)
(1.93044e-07 2.2063e-08 -1.86043e-09)
(7.41517e-09 2.07793e-07 -6.61259e-10)
(-1.22392e-10 -3.9343e-11 1.04756e-07)
(1.89338e-07 2.57295e-08 -2.11768e-09)
(7.39023e-09 2.07789e-07 -6.56931e-10)
(-1.49858e-10 -4.31716e-11 1.02718e-07)
(1.85639e-07 2.94035e-08 -2.36784e-09)
(7.3581e-09 2.0778e-07 -6.57599e-10)
(-1.79227e-10 -4.76539e-11 1.00693e-07)
(1.81945e-07 3.30865e-08 -2.61253e-09)
(7.3193e-09 2.0775e-07 -6.64703e-10)
(-2.08938e-10 -5.20008e-11 9.86745e-08)
(7.35332e-09 2.0769e-07 -6.74264e-10)
(-2.36005e-10 -5.41685e-11 9.66424e-08)
(1.78213e-07 3.67757e-08 -2.85103e-09)
(2.11532e-07 3.72992e-09 -3.51219e-10)
(1.10142e-08 2.0418e-07 -1.00963e-09)
(-1.29271e-11 -5.33202e-11 1.12981e-07)
(2.07868e-07 7.44278e-09 -6.89617e-10)
(1.10806e-08 2.0419e-07 -1.01534e-09)
(-3.33087e-11 -5.33415e-11 1.10956e-07)
(2.04186e-07 1.11289e-08 -1.01106e-09)
(1.11253e-08 2.04184e-07 -1.01131e-09)
(-5.36431e-11 -5.35602e-11 1.08913e-07)
(2.00486e-07 1.47935e-08 -1.31395e-09)
(1.11433e-08 2.04166e-07 -1.00148e-09)
(-7.45753e-11 -5.42054e-11 1.06855e-07)
(1.96779e-07 1.84538e-08 -1.59954e-09)
(1.11338e-08 2.04142e-07 -9.90302e-10)
(-9.6976e-11 -5.54079e-11 1.04795e-07)
(1.93076e-07 2.21194e-08 -1.87118e-09)
(1.1109e-08 2.04123e-07 -9.81554e-10)
(-1.21491e-10 -5.72974e-11 1.02746e-07)
(1.89377e-07 2.57915e-08 -2.13225e-09)
(1.10746e-08 2.04112e-07 -9.77621e-10)
(-1.48265e-10 -5.99294e-11 1.0071e-07)
(1.85682e-07 2.94728e-08 -2.38501e-09)
(1.10307e-08 2.04091e-07 -9.80387e-10)
(-1.76386e-10 -6.29715e-11 9.86837e-08)
(1.8199e-07 3.3163e-08 -2.63098e-09)
(1.09777e-08 2.0405e-07 -9.91762e-10)
(-2.04298e-10 -6.58192e-11 9.66617e-08)
(1.10422e-08 2.0399e-07 -1.00527e-09)
(-2.27656e-10 -6.64339e-11 9.46221e-08)
(1.78254e-07 3.68505e-08 -2.86885e-09)
(2.11488e-07 3.72726e-09 -3.44566e-10)
(1.46732e-08 2.0045e-07 -1.30103e-09)
(-1.49091e-11 -7.47616e-11 1.10889e-07)
(2.07827e-07 7.44087e-09 -6.79405e-10)
(1.47396e-08 2.00473e-07 -1.31209e-09)
(-3.44817e-11 -7.46777e-11 1.08875e-07)
(2.04162e-07 1.114e-08 -1.00117e-09)
(1.47883e-08 2.00482e-07 -1.31335e-09)
(-5.4239e-11 -7.4548e-11 1.0685e-07)
(2.00483e-07 1.48219e-08 -1.3077e-09)
(1.48185e-08 2.00481e-07 -1.30774e-09)
(-7.47124e-11 -7.46428e-11 1.04815e-07)
(1.96787e-07 1.84895e-08 -1.59832e-09)
(1.48232e-08 2.00469e-07 -1.29878e-09)
(-9.65694e-11 -7.51561e-11 1.0277e-07)
(1.93087e-07 2.21569e-08 -1.87451e-09)
(1.47995e-08 2.0045e-07 -1.29086e-09)
(-1.20441e-10 -7.61938e-11 1.00723e-07)
(1.89391e-07 2.58336e-08 -2.13909e-09)
(1.47551e-08 2.00427e-07 -1.28824e-09)
(-1.46408e-10 -7.78457e-11 9.86859e-08)
(1.85698e-07 2.95196e-08 -2.39409e-09)
(1.46999e-08 2.00395e-07 -1.29391e-09)
(-1.73368e-10 -7.99959e-11 9.66559e-08)
(1.82007e-07 3.32137e-08 -2.64111e-09)
(1.46353e-08 2.00343e-07 -1.31001e-09)
(-1.99828e-10 -8.22881e-11 9.46298e-08)
(1.47317e-08 2.00284e-07 -1.32756e-09)
(-2.19608e-10 -8.20674e-11 9.25867e-08)
(1.7827e-07 3.69022e-08 -2.87905e-09)
(2.11466e-07 3.72104e-09 -3.38457e-10)
(1.83316e-08 1.96724e-07 -1.57615e-09)
(-1.78664e-11 -9.77468e-11 1.08816e-07)
(2.07803e-07 7.4312e-09 -6.6974e-10)
(1.84003e-08 1.96758e-07 -1.59221e-09)
(-3.64286e-11 -9.74999e-11 1.06809e-07)
(2.04137e-07 1.11291e-08 -9.90615e-10)
(1.84519e-08 1.96779e-07 -1.59845e-09)
(-5.53574e-11 -9.70054e-11 1.04792e-07)
(2.00466e-07 1.48203e-08 -1.29866e-09)
(1.84843e-08 1.96783e-07 -1.59766e-09)
(-7.51775e-11 -9.65185e-11 1.02766e-07)
(1.96784e-07 1.85025e-08 -1.59287e-09)
(1.84982e-08 1.9678e-07 -1.59287e-09)
(-9.6395e-11 -9.63092e-11 1.00733e-07)
(1.93086e-07 2.21748e-08 -1.87337e-09)
(1.84857e-08 1.96769e-07 -1.58767e-09)
(-1.19571e-10 -9.66128e-11 9.86942e-08)
(1.89384e-07 2.58508e-08 -2.1413e-09)
(1.84405e-08 1.96741e-07 -1.58679e-09)
(-1.44648e-10 -9.74604e-11 9.66524e-08)
(1.85688e-07 2.95405e-08 -2.39823e-09)
(1.83706e-08 1.96692e-07 -1.59506e-09)
(-1.7067e-10 -9.88165e-11 9.46138e-08)
(1.81995e-07 3.32408e-08 -2.64603e-09)
(1.82931e-08 1.96625e-07 -1.61579e-09)
(-1.96066e-10 -1.00574e-10 9.25811e-08)