/*--------------------------------*- C++ -*----------------------------------*\
| =========                 |                                                 |
| \\      /  F ield         | foam-extend: Open Source CFD                    |
|  \\    /   O peration     | Version:     3.1                                |
|   \\  /    A nd           | Web:         http://www.extend-project.de       |
|    \\/     M anipulation  |                                                 |
\*---------------------------------------------------------------------------*/
FoamFile
{
    version     2.0;
    format      ascii;
    class       volVectorField;
    location    "0.0008";
    object      U_0;
}
// * * * * * * * * * * * * * * * * * * * * * * * * * * * * * * * * * * * * * //

dimensions      [0 1 -1 0 0 0 0];

internalField   nonuniform List<vector> 
16000
(
(0.000282474 0.000282555 0.169933)
(0.000850516 0.000280704 0.170512)
(0.00142667 0.000279247 0.171679)
(0.00201736 0.000279566 0.17345)
(0.00262989 0.000281744 0.175849)
(0.00327083 0.000285795 0.178906)
(0.00394582 0.000291763 0.18266)
(0.00465907 0.000299664 0.187156)
(0.00541285 0.000309441 0.192445)
(0.00620379 0.000315734 0.198584)
(0.000280626 0.000850651 0.170512)
(0.000844958 0.000845114 0.171053)
(0.00141678 0.00084052 0.172165)
(0.0020025 0.000840834 0.173862)
(0.00260897 0.000846314 0.176165)
(0.00324246 0.000857081 0.179104)
(0.00390847 0.000873227 0.182713)
(0.0046111 0.000894752 0.187036)
(0.00535326 0.000921493 0.19212)
(0.00612774 0.00093674 0.198016)
(0.000279209 0.0014267 0.171679)
(0.000840405 0.00141689 0.172164)
(0.00140785 0.001408 0.173206)
(0.00198829 0.00140625 0.174815)
(0.0025881 0.00141199 0.177013)
(0.00321309 0.0014255 0.179824)
(0.00386833 0.00144692 0.183282)
(0.00455743 0.00147608 0.187425)
(0.00528351 0.00151239 0.192298)
(0.00603349 0.00152611 0.197948)
(0.000279573 0.00201729 0.17345)
(0.000840812 0.0020025 0.173861)
(0.00140616 0.00198837 0.174815)
(0.00198325 0.00198338 0.176324)
(0.00257825 0.00198772 0.178403)
(0.0031965 0.00200176 0.181078)
(0.00384246 0.00202579 0.184378)
(0.00451901 0.00205951 0.188337)
(0.00522924 0.00210186 0.192995)
(0.00595259 0.00210874 0.198398)
(0.000281764 0.0026298 0.175849)
(0.000846356 0.0026089 0.176165)
(0.00141199 0.00258809 0.177013)
(0.00198763 0.00257834 0.178403)
(0.00257945 0.00257959 0.180352)
(0.00319251 0.00259218 0.182879)
(0.00383065 0.00261649 0.18601)
(0.00449577 0.00265232 0.189777)
(0.00519071 0.00269828 0.194216)
(0.00588605 0.00269464 0.199368)
(0.000285814 0.00327076 0.178906)
(0.000857137 0.00324239 0.179104)
(0.00142557 0.00321303 0.179824)
(0.00200178 0.00319651 0.181078)
(0.00259208 0.00319263 0.182879)
(0.00320146 0.00320165 0.185243)
(0.00383328 0.00322407 0.188193)
(0.00448834 0.00325992 0.191758)
(0.00516888 0.00330791 0.195969)
(0.00583469 0.00329123 0.200865)
(0.000291781 0.00394576 0.18266)
(0.00087328 0.00390841 0.182713)
(0.00144701 0.00386827 0.183282)
(0.00202589 0.00384241 0.184378)
(0.00261653 0.00383068 0.18601)
(0.00322392 0.00383342 0.188193)
(0.00385123 0.00385147 0.190948)
(0.0044982 0.00388548 0.194297)
(0.00516601 0.0039349 0.198268)
(0.00580047 0.0039048 0.202899)
(0.00029968 0.00465904 0.187156)
(0.000894801 0.00461106 0.187036)
(0.00147616 0.00455738 0.187425)
(0.00205962 0.00451894 0.188337)
(0.00265244 0.00449568 0.189777)
(0.00325989 0.00448827 0.191758)
(0.00388523 0.00449824 0.194297)
(0.00452753 0.00452772 0.197413)
(0.00518665 0.00457906 0.201129)
(0.0057892 0.00454048 0.205486)
(0.000309455 0.00541284 0.192445)
(0.000921535 0.00535325 0.19212)
(0.00151245 0.00528348 0.192298)
(0.00210194 0.00522918 0.192995)
(0.00269837 0.00519058 0.194216)
(0.00330791 0.00516867 0.195969)
(0.00393474 0.00516582 0.198268)
(0.00457886 0.00518662 0.201129)
(0.00524043 0.00524053 0.204573)
(0.0058213 0.00520629 0.208643)
(0.000315746 0.00620381 0.198584)
(0.000936776 0.00612776 0.198016)
(0.00152616 0.00603348 0.197948)
(0.0021088 0.00595255 0.198398)
(0.0026947 0.00588596 0.199368)
(0.00329126 0.00583453 0.200865)
(0.00390477 0.00580028 0.202899)
(0.0045404 0.00578909 0.205486)
(0.00520616 0.00582127 0.208643)
(0.00587273 0.00587279 0.212418)
(0.000753165 0.000753171 0.166296)
(0.00227037 0.000746422 0.166847)
(0.00381534 0.000739239 0.167958)
(0.00540621 0.000734803 0.169648)
(0.00706215 0.000732971 0.17194)
(0.00880052 0.000733526 0.174868)
(0.0106369 0.000736223 0.178475)
(0.0125837 0.00074078 0.182814)
(0.0146474 0.000747218 0.187946)
(0.0168232 0.000767272 0.193939)
(0.000746416 0.00227038 0.166847)
(0.00225007 0.00225008 0.167363)
(0.00377958 0.00222851 0.168424)
(0.0053525 0.00221528 0.170045)
(0.00698709 0.0022099 0.172249)
(0.00870001 0.00221164 0.175068)
(0.0105064 0.00221968 0.178541)
(0.0124186 0.00223308 0.182718)
(0.0144429 0.0022516 0.187656)
(0.0165781 0.00230496 0.193417)
(0.000739238 0.00381533 0.167958)
(0.00222851 0.00377958 0.168424)
(0.00374108 0.00374109 0.16942)
(0.00529398 0.003716 0.170959)
(0.00690434 0.00370352 0.173065)
(0.00858796 0.0037025 0.175765)
(0.0103592 0.00371157 0.179097)
(0.0122302 0.00372914 0.183106)
(0.014206 0.00375463 0.187845)
(0.0162888 0.00383593 0.193372)
(0.000734806 0.00540619 0.169648)
(0.00221528 0.00535249 0.170045)
(0.00371599 0.00529398 0.170959)
(0.0052536 0.00525361 0.172405)
(0.00684409 0.00523033 0.174401)
(0.0085023 0.00522257 0.176974)
(0.0102419 0.00522847 0.180158)
(0.0120741 0.00524587 0.183996)
(0.0140028 0.00527385 0.188535)
(0.0160339 0.00537772 0.193829)
(0.000732974 0.00706213 0.17194)
(0.0022099 0.00698707 0.172249)
(0.00370352 0.00690433 0.173065)
(0.00523033 0.00684409 0.174401)
(0.00680502 0.00680503 0.176275)
(0.00844154 0.00678517 0.17871)
(0.0101526 0.00678221 0.181739)
(0.011949 0.00679349 0.185398)
(0.0138323 0.00681796 0.189733)
(0.0158142 0.00693788 0.194792)
(0.000733529 0.0088005 0.174868)
(0.00221165 0.00869999 0.175068)
(0.00370251 0.00858794 0.175765)
(0.00522258 0.00850229 0.176974)
(0.00678516 0.00844154 0.17871)
(0.00840328 0.00840329 0.180995)
(0.0100889 0.0083848 0.183856)
(0.0118519 0.00838293 0.187328)
(0.0136918 0.00839665 0.191452)
(0.0156272 0.00852489 0.196273)
(0.000736225 0.0106369 0.178475)
(0.00221969 0.0105064 0.178541)
(0.00371159 0.0103592 0.179097)
(0.00522849 0.0102418 0.180158)
(0.00678222 0.0101526 0.181739)
(0.00838478 0.0100889 0.183856)
(0.0100473 0.0100473 0.186535)
(0.011779 0.0100242 0.189807)
(0.0135771 0.0100185 0.193709)
(0.0154682 0.0101452 0.198283)
(0.000740783 0.0125837 0.182814)
(0.00223308 0.0124186 0.182718)
(0.00372916 0.0122301 0.183106)
(0.00524588 0.0120741 0.183996)
(0.00679351 0.011949 0.185398)
(0.00838293 0.0118519 0.187328)
(0.0100242 0.011779 0.189807)
(0.0117256 0.0117257 0.192861)
(0.0134824 0.0116897 0.196525)
(0.01533 0.0118011 0.200839)
(0.00074722 0.0146473 0.187946)
(0.00225161 0.0144428 0.187656)
(0.00375464 0.014206 0.187845)
(0.00527387 0.0140027 0.188535)
(0.00681797 0.0138323 0.189733)
(0.00839665 0.0136917 0.191452)
(0.0100184 0.013577 0.193709)
(0.0116897 0.0134824 0.196524)
(0.0134031 0.0134031 0.199927)
(0.0152061 0.0134807 0.203957)
(0.000767275 0.0168231 0.193939)
(0.00230497 0.0165781 0.193417)
(0.00383593 0.0162888 0.193372)
(0.00537773 0.0160339 0.193829)
(0.00693789 0.0158142 0.194792)
(0.00852489 0.0156271 0.196273)
(0.0101452 0.0154682 0.198283)
(0.011801 0.0153299 0.200839)
(0.0134807 0.015206 0.203957)
(0.0152046 0.0152046 0.207678)
(0.00123918 0.0012392 0.158874)
(0.00373676 0.00122864 0.159359)
(0.00628455 0.00121787 0.160339)
(0.00891645 0.00121223 0.161831)
(0.0116692 0.00121164 0.163859)
(0.0145784 0.00121593 0.16646)
(0.0176791 0.00122496 0.169678)
(0.0210045 0.0012386 0.173574)
(0.0245804 0.00125729 0.178222)
(0.0284173 0.00130227 0.183713)
(0.00122862 0.00373678 0.159358)
(0.00370489 0.00370493 0.159814)
(0.00622809 0.00367241 0.160749)
(0.00883103 0.00365529 0.162181)
(0.0115487 0.00365318 0.164131)
(0.0144152 0.00366544 0.166634)
(0.0174642 0.00369137 0.169732)
(0.0207277 0.00373025 0.17348)
(0.0242302 0.00378265 0.177947)
(0.0279871 0.00390227 0.183217)
(0.00121786 0.00628453 0.160339)
(0.00367238 0.0062281 0.160749)
(0.00616937 0.00616941 0.161628)
(0.00874093 0.00613537 0.162989)
(0.01142 0.00612532 0.164854)
(0.0142389 0.00613818 0.167254)
(0.0172295 0.00617274 0.170227)
(0.0204225 0.0062276 0.173827)
(0.0238389 0.00630319 0.178115)
(0.0274984 0.00648615 0.18317)
(0.00121224 0.00891639 0.161831)
(0.0036553 0.00883099 0.162181)
(0.00613535 0.00874092 0.162989)
(0.00868431 0.00868434 0.164269)
(0.0113332 0.00866019 0.16604)
(0.0141123 0.00866696 0.16833)
(0.0170521 0.00870293 0.171177)
(0.0201811 0.00876603 0.174627)
(0.0235162 0.00885652 0.17874)
(0.0270831 0.00909273 0.183585)
(0.00121165 0.0116691 0.163859)
(0.00365321 0.0115486 0.164131)
(0.00612534 0.01142 0.164854)
(0.00866018 0.0113331 0.16604)
(0.0112867 0.0112867 0.167707)
(0.0140338 0.0112787 0.169881)
(0.0169298 0.0113066 0.172595)
(0.0200014 0.0113679 0.175893)
(0.0232605 0.0114629 0.179831)
(0.0267423 0.011741 0.18447)
(0.00121593 0.0145783 0.16646)
(0.00366546 0.0144151 0.166634)
(0.00613822 0.0142388 0.167254)
(0.00866699 0.0141123 0.16833)
(0.0112786 0.0140338 0.169881)
(0.0140004 0.0140004 0.171927)
(0.016859 0.0140093 0.174501)
(0.0198794 0.014057 0.177642)
(0.0230679 0.0141442 0.181401)
(0.0264723 0.014451 0.185836)
(0.00122497 0.0176791 0.169678)
(0.00369139 0.0174641 0.169732)
(0.00617278 0.0172295 0.170227)
(0.00870298 0.0170521 0.171177)
(0.0113066 0.0169297 0.172595)
(0.0140092 0.016859 0.174501)
(0.016836 0.0168361 0.176924)
(0.0198102 0.0168565 0.1799)
(0.0229327 0.0169207 0.183474)
(0.026267 0.0172396 0.187702)
(0.00123861 0.0210044 0.173574)
(0.00373028 0.0207277 0.17348)
(0.00622764 0.0204224 0.173827)
(0.00876608 0.0201811 0.174627)
(0.011368 0.0200013 0.175893)
(0.014057 0.0198793 0.177642)
(0.0168564 0.0198101 0.179899)
(0.0197875 0.0197875 0.182697)
(0.0228465 0.01981 0.186077)
(0.026116 0.0201174 0.190092)
(0.0012573 0.0245803 0.178222)
(0.00378268 0.0242301 0.177947)
(0.00630323 0.0238388 0.178115)
(0.00885657 0.0235161 0.17874)
(0.011463 0.0232604 0.179831)
(0.0141442 0.0230677 0.181401)
(0.0169206 0.0229325 0.183474)
(0.01981 0.0228464 0.186077)
(0.0228032 0.0228032 0.189248)
(0.0260115 0.0230685 0.193037)
(0.00130228 0.0284172 0.183713)
(0.00390229 0.027987 0.183217)
(0.00648618 0.0274983 0.18317)
(0.00909276 0.027083 0.183585)
(0.011741 0.0267422 0.18447)
(0.014451 0.0264722 0.185836)
(0.0172396 0.0262669 0.187702)
(0.0201174 0.0261159 0.190092)
(0.0230685 0.0260114 0.193037)
(0.0261579 0.0261579 0.196591)
(0.00164806 0.0016481 0.148165)
(0.00497089 0.00163441 0.148547)
(0.00836477 0.00162083 0.149318)
(0.0118789 0.00161467 0.150494)
(0.0155682 0.00161598 0.152094)
(0.0194888 0.00162482 0.15415)
(0.0237009 0.00164146 0.156703)
(0.0282686 0.00166637 0.159809)
(0.0332564 0.0017011 0.163544)
(0.0387223 0.0017781 0.168009)
(0.00163436 0.00497094 0.148546)
(0.00492956 0.00492965 0.148905)
(0.00829141 0.0048887 0.149642)
(0.0117675 0.00486991 0.15077)
(0.01541 0.00487328 0.152309)
(0.0192726 0.00489874 0.154287)
(0.0234127 0.00494649 0.156744)
(0.0278916 0.00501716 0.159731)
(0.0327691 0.00511379 0.163318)
(0.038108 0.00531753 0.167597)
(0.00162082 0.00836473 0.149318)
(0.00488864 0.00829143 0.149641)
(0.00821724 0.0082173 0.150334)
(0.0116532 0.00817871 0.151407)
(0.0152458 0.00817562 0.152879)
(0.0190459 0.00820782 0.154776)
(0.023108 0.00827541 0.157136)
(0.02749 0.00837892 0.160005)
(0.0322451 0.00852216 0.16345)
(0.03744 0.0088348 0.167554)
(0.00161469 0.0118788 0.150494)
(0.00486992 0.0117674 0.150769)
(0.00817868 0.0116532 0.151407)
(0.0115875 0.0115876 0.152416)
(0.0151429 0.0115701 0.153815)
(0.0188932 0.0116004 0.155628)
(0.0228899 0.0116784 0.157889)
(0.0271873 0.0118045 0.160643)
(0.0318311 0.0119829 0.16395)
(0.0368961 0.0123902 0.167887)
(0.00161599 0.015568 0.152094)
(0.00487333 0.0154099 0.152309)
(0.00817566 0.0152457 0.152879)
(0.0115701 0.0151429 0.153815)
(0.0151006 0.0151006 0.155133)
(0.0188131 0.0151179 0.156856)
(0.0227564 0.0151944 0.159015)
(0.0269815 0.0153303 0.161653)
(0.0315255 0.0155305 0.164826)
(0.0364779 0.0160178 0.168604)
(0.00162484 0.0194886 0.15415)
(0.00489879 0.0192725 0.154287)
(0.00820789 0.0190458 0.154776)
(0.0116005 0.0188931 0.155628)
(0.0151179 0.0188131 0.156856)
(0.0188041 0.0188042 0.158482)
(0.0227054 0.0188653 0.160535)
(0.0268697 0.0189964 0.163055)
(0.0313251 0.0192032 0.166093)
(0.0361825 0.0197548 0.169717)
(0.00164148 0.0237008 0.156703)
(0.00494653 0.0234126 0.156744)
(0.00827549 0.0231079 0.157136)
(0.0116786 0.0228897 0.157889)
(0.0151945 0.0227563 0.159015)
(0.0188653 0.0227055 0.160535)
(0.0227351 0.0227352 0.162475)
(0.026849 0.0228445 0.164872)
(0.0312264 0.0230394 0.167775)
(0.0360062 0.0236362 0.171246)
(0.00166638 0.0282685 0.159809)
(0.00501721 0.0278915 0.159731)
(0.008379 0.0274898 0.160005)
(0.0118046 0.0271872 0.160643)
(0.0153305 0.0269813 0.161653)
(0.0189965 0.0268696 0.163054)
(0.0228444 0.026849 0.164872)
(0.0269166 0.0269166 0.167139)
(0.0312244 0.0270768 0.169902)
(0.0359421 0.0276917 0.173219)
(0.00170112 0.0332562 0.163544)
(0.00511383 0.032769 0.163318)
(0.00852222 0.032245 0.16345)
(0.011983 0.031831 0.16395)
(0.0155306 0.0315253 0.164826)
(0.0192032 0.0313248 0.166093)
(0.0230394 0.0312262 0.167775)
(0.0270768 0.0312243 0.169902)
(0.0313183 0.0313183 0.172517)
(0.0359907 0.0319171 0.175674)
(0.00177811 0.0387222 0.168009)
(0.00531757 0.0381079 0.167597)
(0.00883486 0.0374399 0.167554)
(0.0123902 0.036896 0.167887)
(0.0160179 0.0364777 0.168604)
(0.0197548 0.0361823 0.169717)
(0.0236362 0.0360059 0.171246)
(0.0276918 0.0359419 0.173219)
(0.0319171 0.0359907 0.175674)
(0.0364716 0.0364716 0.178669)
(0.00194467 0.00194473 0.134877)
(0.00586582 0.00192855 0.135125)
(0.00987236 0.00191259 0.135627)
(0.0140245 0.00190558 0.13639)
(0.0183908 0.00190778 0.137426)
(0.0230445 0.00191956 0.13875)
(0.028068 0.00194166 0.140386)
(0.033556 0.00197532 0.142369)
(0.0396145 0.0020235 0.144747)
(0.0463607 0.00212928 0.147588)
(0.00192849 0.00586589 0.135125)
(0.00581705 0.00581717 0.135359)
(0.00978593 0.00576911 0.135838)
(0.0138933 0.00574785 0.136569)
(0.0182043 0.00575389 0.137563)
(0.0227887 0.00578791 0.138837)
(0.0277249 0.0058513 0.140411)
(0.0331028 0.00594658 0.142317)
(0.0390208 0.0060798 0.144599)
(0.0455989 0.00635792 0.147321)
(0.00191257 0.0098723 0.135627)
(0.00576904 0.00978595 0.135837)
(0.00969914 0.00969923 0.136287)
(0.01376 0.00965558 0.136981)
(0.018013 0.00965573 0.13793)
(0.0225244 0.0097007 0.139149)
(0.0273687 0.00979234 0.140659)
(0.0326305 0.0099339 0.142488)
(0.0383986 0.0101334 0.144679)
(0.0447959 0.01056 0.147288)
(0.00190561 0.0140244 0.13639)
(0.00574787 0.0138932 0.136569)
(0.00965554 0.0137599 0.136981)
(0.0136857 0.0136858 0.137632)
(0.0178968 0.0136713 0.138531)
(0.0223518 0.0137177 0.139692)
(0.0271211 0.0138271 0.141136)
(0.0322847 0.0140032 0.142889)
(0.0379205 0.0142554 0.14499)
(0.0441618 0.0148131 0.147492)
(0.00190781 0.0183907 0.137426)
(0.00575396 0.0182041 0.137563)
(0.00965579 0.0180128 0.13793)
(0.0136713 0.0178968 0.138531)
(0.0178561 0.0178561 0.139374)
(0.0222704 0.0178916 0.140474)
(0.0269812 0.0180057 0.141849)
(0.0320638 0.0182025 0.143524)
(0.0375849 0.0184925 0.145537)
(0.0436979 0.0191652 0.147937)
(0.00191959 0.0230443 0.13875)
(0.00578798 0.0227885 0.138837)
(0.0097008 0.0225242 0.139149)
(0.0137178 0.0223516 0.139692)
(0.0178916 0.0222703 0.140474)
(0.0222805 0.0222806 0.141508)
(0.0269485 0.0223845 0.14281)
(0.0319668 0.0225862 0.144406)
(0.0373902 0.0228978 0.146331)
(0.0434032 0.0236692 0.14863)
(0.00194168 0.0280678 0.140386)
(0.00585137 0.0277247 0.140411)
(0.00979245 0.0273685 0.140659)
(0.0138273 0.0271209 0.141135)
(0.0180059 0.026981 0.141849)
(0.0223844 0.0269486 0.14281)
(0.0270247 0.0270248 0.144036)
(0.0319943 0.0272136 0.14555)
(0.0373365 0.0275276 0.147385)
(0.0432774 0.028379 0.149584)
(0.00197535 0.0335558 0.142369)
(0.00594664 0.0331026 0.142317)
(0.00993401 0.0326303 0.142488)
(0.0140034 0.0322844 0.142889)
(0.0182027 0.0320636 0.143524)
(0.0225863 0.0319666 0.144405)
(0.0272134 0.0319942 0.145549)
(0.0321486 0.0321487 0.146977)
(0.0374243 0.0324416 0.148721)
(0.0433199 0.033347 0.150821)
(0.00202352 0.0396143 0.144747)
(0.00607986 0.0390206 0.144599)
(0.0101335 0.0383984 0.144679)
(0.0142555 0.0379203 0.14499)
(0.0184926 0.0375846 0.145537)
(0.0228979 0.0373899 0.14633)
(0.0275276 0.0373362 0.147385)
(0.0324415 0.0374242 0.148721)
(0.037661 0.037661 0.150368)
(0.0435426 0.0385887 0.152366)
(0.0021293 0.0463605 0.147588)
(0.00635797 0.0455987 0.147321)
(0.01056 0.0447958 0.147288)
(0.0148132 0.0441616 0.147492)
(0.0191653 0.0436977 0.147937)
(0.0236693 0.0434029 0.14863)
(0.0283791 0.0432771 0.149584)
(0.0333471 0.0433197 0.150821)
(0.0385887 0.0435425 0.152366)
(0.0443744 0.0443744 0.154258)
(0.00210705 0.00210712 0.119922)
(0.0063541 0.00208897 0.120024)
(0.0106896 0.00207049 0.120228)
(0.0151764 0.00206124 0.120532)
(0.019887 0.00206157 0.120934)
(0.0249 0.002072 0.121429)
(0.0303065 0.00209355 0.122012)
(0.036214 0.00212793 0.122678)
(0.0427487 0.00217882 0.123424)
(0.0500583 0.00229533 0.124246)
(0.0020889 0.00635417 0.120024)
(0.0062995 0.00629963 0.12012)
(0.0105934 0.00624421 0.120313)
(0.0150313 0.00621641 0.120602)
(0.0196819 0.00621704 0.120986)
(0.0246203 0.00624719 0.12146)
(0.0299328 0.00630892 0.122019)
(0.0357213 0.00640589 0.122659)
(0.0421029 0.00654581 0.123376)
(0.0492273 0.00684979 0.124167)
(0.00207047 0.0106895 0.120228)
(0.00624413 0.0105934 0.120313)
(0.0104943 0.0104944 0.120491)
(0.0148807 0.0104398 0.120762)
(0.0194681 0.0104309 0.121123)
(0.0243279 0.0104692 0.121571)
(0.0295419 0.0105578 0.122102)
(0.0352065 0.0107014 0.122711)
(0.0414275 0.0109101 0.123395)
(0.0483574 0.0113746 0.124151)
(0.00206127 0.0151763 0.120532)
(0.00621644 0.0150312 0.120602)
(0.0104398 0.0148806 0.120762)
(0.0147912 0.0147913 0.121011)
(0.0193323 0.0147641 0.121345)
(0.024131 0.0148012 0.121762)
(0.0292651 0.0149061 0.122259)
(0.0348256 0.0150845 0.122833)
(0.0409065 0.015348 0.123479)
(0.0476716 0.0159546 0.124197)
(0.0020616 0.0198867 0.120934)
(0.00621712 0.0196817 0.120986)
(0.010431 0.0194679 0.121123)
(0.0147641 0.0193323 0.121345)
(0.0192754 0.0192754 0.121648)
(0.02403 0.0192992 0.122031)
(0.0291019 0.0194075 0.122491)
(0.0345774 0.0196067 0.123024)
(0.0405379 0.01991 0.123629)
(0.0471712 0.0206424 0.124304)
(0.00207203 0.0248998 0.121429)
(0.00624727 0.02462 0.12146)
(0.0104694 0.0243277 0.121571)
(0.0148013 0.0241309 0.121762)
(0.0192992 0.0240299 0.122031)
(0.024026 0.0240261 0.122376)
(0.029053 0.0241231 0.122794)
(0.0344618 0.0243279 0.123284)
(0.0403213 0.0246551 0.123842)
(0.0468559 0.0254976 0.124471)
(0.00209358 0.0303063 0.122012)
(0.006309 0.0299325 0.122019)
(0.0105579 0.0295417 0.122102)
(0.0149063 0.0292649 0.122259)
(0.0194076 0.0291018 0.12249)
(0.0241231 0.029053 0.122794)
(0.0291217 0.0291218 0.123168)
(0.0344814 0.0293148 0.12361)
(0.0402586 0.0296476 0.124119)
(0.0467273 0.0305828 0.124697)
(0.00212796 0.0362138 0.122678)
(0.00640597 0.035721 0.122659)
(0.0107015 0.0352062 0.122711)
(0.0150847 0.0348254 0.122833)
(0.0196069 0.0345771 0.123024)
(0.0243281 0.0344615 0.123283)
(0.0293147 0.0344813 0.12361)
(0.0346419 0.034642 0.124001)
(0.040354 0.0349581 0.124458)
(0.0467887 0.0359626 0.124981)
(0.00217884 0.0427485 0.123424)
(0.00654588 0.0421027 0.123376)
(0.0109103 0.0414273 0.123395)
(0.0153482 0.0409062 0.123479)
(0.0199102 0.0405376 0.123629)
(0.0246553 0.0403209 0.123842)
(0.0296476 0.0402582 0.124119)
(0.0349581 0.0403539 0.124458)
(0.0406189 0.0406189 0.124859)
(0.0470576 0.0416658 0.125323)
(0.00229535 0.0500582 0.124246)
(0.00684985 0.0492271 0.124167)
(0.0113747 0.0483571 0.124151)
(0.0159547 0.0476714 0.124197)
(0.0206425 0.047171 0.124304)
(0.0254978 0.0468556 0.124471)
(0.0305829 0.0467269 0.124697)
(0.0359627 0.0467884 0.124981)
(0.0416658 0.0470575 0.125323)
(0.0480213 0.0480213 0.125723)
(0.00213167 0.00213173 0.104298)
(0.00642455 0.00211204 0.104261)
(0.0107958 0.00209072 0.10418)
(0.0153007 0.00207742 0.104046)
(0.0200031 0.00207243 0.103843)
(0.0249723 0.00207618 0.103544)
(0.0302873 0.00208952 0.103116)
(0.0360415 0.00211399 0.102513)
(0.0423434 0.0021528 0.101674)
(0.0493185 0.00225363 0.10052)
(0.00211197 0.00642462 0.10426)
(0.00636553 0.00636565 0.104224)
(0.0106927 0.00630195 0.104145)
(0.0151472 0.00626231 0.104014)
(0.0197893 0.00624742 0.103814)
(0.0246851 0.00625811 0.103522)
(0.0299097 0.00629614 0.103108)
(0.0355517 0.0063647 0.102528)
(0.0417119 0.00647049 0.101726)
(0.0485184 0.00673057 0.100629)
(0.0020907 0.0107957 0.10418)
(0.00630187 0.0106928 0.104145)
(0.0105806 0.0105807 0.104066)
(0.0149797 0.0105073 0.103934)
(0.0195561 0.0104735 0.103733)
(0.0243724 0.0104806 0.103442)
(0.0295001 0.010531 0.103033)
(0.035023 0.0106289 0.102466)
(0.0410324 0.0107829 0.101689)
(0.0476595 0.0111766 0.100634)
(0.00207745 0.0153005 0.104046)
(0.00626234 0.015147 0.104013)
(0.0105073 0.0149796 0.103933)
(0.0148653 0.0148653 0.103798)
(0.0193905 0.0148049 0.103592)
(0.0241425 0.0148 0.103297)
(0.0291891 0.0148535 0.102886)
(0.0346099 0.0149701 0.102322)
(0.0404856 0.0151594 0.101557)
(0.0469589 0.01567 0.100531)
(0.00207246 0.0200029 0.103843)
(0.00624749 0.0197891 0.103814)
(0.0104735 0.0195559 0.103733)
(0.0148049 0.0193904 0.103592)
(0.0192931 0.0192931 0.103379)
(0.0239952 0.0192653 0.103076)
(0.028976 0.01931 0.102656)
(0.0343108 0.0194326 0.102088)
(0.0400693 0.0196434 0.101325)
(0.0464174 0.0202557 0.100314)
(0.0020762 0.024972 0.103544)
(0.00625819 0.0246849 0.103522)
(0.0104807 0.0243722 0.103442)
(0.0148001 0.0241423 0.103297)
(0.0192653 0.0239952 0.103076)
(0.0239314 0.0239315 0.102761)
(0.0288608 0.0239542 0.102329)
(0.0341249 0.0240688 0.101749)
(0.0397824 0.0242866 0.100981)
(0.0460338 0.0249857 0.0999728)
(0.00208955 0.0302871 0.103116)
(0.00629622 0.0299095 0.103108)
(0.0105311 0.0294999 0.103033)
(0.0148537 0.0291889 0.102886)
(0.0193101 0.0289758 0.102656)
(0.0239542 0.0288608 0.102329)
(0.028846 0.0288461 0.101883)
(0.0340541 0.028937 0.101288)
(0.0396259 0.0291452 0.100506)
(0.0458087 0.0299148 0.0994921)
(0.00211401 0.0360413 0.102513)
(0.00636477 0.0355515 0.102528)
(0.010629 0.0350228 0.102466)
(0.0149703 0.0346097 0.102322)
(0.0194328 0.0343105 0.102088)
(0.0240689 0.0341247 0.101749)
(0.0289369 0.0340541 0.101287)
(0.0341027 0.0341028 0.100675)
(0.0396029 0.0342816 0.0998759)
(0.045744 0.0351006 0.0988488)
(0.00215282 0.0423432 0.101675)
(0.00647055 0.0417117 0.101726)
(0.010783 0.0410321 0.101689)
(0.0151596 0.0404853 0.101557)
(0.0196436 0.040069 0.101325)
(0.0242868 0.039782 0.100981)
(0.0291452 0.0396256 0.100506)
(0.0342816 0.0396028 0.0998758)
(0.0397215 0.0397214 0.0990579)
(0.0458537 0.0405665 0.0980124)
(0.00225365 0.0493183 0.10052)
(0.00673063 0.0485182 0.100629)
(0.0111767 0.0476593 0.100635)
(0.0156701 0.0469587 0.100531)
(0.0202558 0.0464172 0.100314)
(0.0249859 0.0460336 0.0999728)
(0.0299149 0.0458085 0.0994921)
(0.0351007 0.0457438 0.0988487)
(0.0405665 0.0458535 0.0980123)
(0.0466005 0.0466005 0.0969416)
(0.0020354 0.00203545 0.0889467)
(0.00612871 0.00201476 0.0887958)
(0.0102795 0.00199059 0.0884853)
(0.0145274 0.00197209 0.0879999)
(0.018918 0.00195936 0.0873129)
(0.0234981 0.00195252 0.0863861)
(0.0283188 0.00195194 0.0851668)
(0.033437 0.00195841 0.083584)
(0.0389132 0.00197377 0.081543)
(0.0448078 0.00203751 0.0789181)
(0.0020147 0.00612876 0.0887956)
(0.00606691 0.00606701 0.0886532)
(0.010173 0.00599509 0.0883546)
(0.0143714 0.00594025 0.0878848)
(0.0187052 0.00590271 0.0872195)
(0.023219 0.00588259 0.0863232)
(0.0279617 0.00588047 0.0851471)
(0.0329877 0.00589781 0.0836255)
(0.0383532 0.00593824 0.0816708)
(0.0441232 0.00609851 0.0791676)
(0.00199058 0.0102794 0.0884852)
(0.00599502 0.010173 0.0883544)
(0.0100485 0.0100486 0.0880686)
(0.0141892 0.0099514 0.0876133)
(0.0184572 0.0098817 0.086966)
(0.0228952 0.00983967 0.086094)
(0.0275496 0.00982598 0.084952)
(0.0324723 0.00984224 0.083479)
(0.0377136 0.00989258 0.081594)
(0.0433427 0.0101292 0.0791913)
(0.00197211 0.0145273 0.0879999)
(0.00594027 0.0143713 0.0878847)
(0.00995136 0.0141891 0.0876132)
(0.0140441 0.0140441 0.0871721)
(0.0182563 0.0139363 0.0865403)
(0.0226284 0.0138658 0.0856872)
(0.0272045 0.0138332 0.0845711)
(0.0320339 0.0138402 0.0831351)
(0.0371603 0.0138907 0.0813044)
(0.0426621 0.0141907 0.0789821)
(0.00195938 0.0189178 0.087313)
(0.00590277 0.018705 0.0872195)
(0.00988175 0.0184571 0.0869659)
(0.0139363 0.0182563 0.0865402)
(0.0181021 0.0181021 0.0859228)
(0.0224175 0.0179942 0.0850856)
(0.0269248 0.017933 0.0839892)
(0.0316705 0.0179202 0.0825813)
(0.0366908 0.0179595 0.0807923)
(0.0420821 0.0183103 0.0785334)
(0.00195254 0.0234979 0.0863862)
(0.00588265 0.0232188 0.0863233)
(0.00983977 0.022895 0.0860941)
(0.0138659 0.0226282 0.0856872)
(0.0179942 0.0224175 0.0850854)
(0.0222618 0.0222618 0.0842629)
(0.0267089 0.0221612 0.0831829)
(0.0313798 0.0221168 0.0817964)
(0.0363027 0.0221328 0.0800392)
(0.0416 0.0225213 0.0778299)
(0.00195197 0.0283186 0.0851669)
(0.00588054 0.0279615 0.0851472)
(0.00982608 0.0275495 0.0849521)
(0.0138334 0.0272043 0.0845711)
(0.0179332 0.0269246 0.0839891)
(0.0221611 0.0267088 0.0831826)
(0.0265561 0.0265562 0.0821182)
(0.0311604 0.0264674 0.0807499)
(0.035994 0.0264461 0.0790174)
(0.0412134 0.0268572 0.0768468)
(0.00195843 0.0334368 0.0835841)
(0.00589787 0.0329875 0.0836256)
(0.00984234 0.0324721 0.0834791)
(0.0138403 0.0320337 0.0831352)
(0.0179203 0.0316703 0.0825813)
(0.0221169 0.0313796 0.0817962)
(0.0264673 0.0311603 0.0807496)
(0.0310121 0.0310122 0.0793989)
(0.0357635 0.0309376 0.0776881)
(0.0409195 0.0313525 0.0755488)
(0.00197379 0.038913 0.0815431)
(0.00593829 0.038353 0.0816709)
(0.00989267 0.0377135 0.0815941)
(0.0138908 0.0371601 0.0813045)
(0.0179597 0.0366906 0.0807923)
(0.022133 0.0363024 0.0800391)
(0.0264461 0.0359938 0.0790173)
(0.0309375 0.0357634 0.077688)
(0.0356112 0.0356112 0.0759996)
(0.0407225 0.0360096 0.0738881)
(0.00203753 0.0448076 0.0789182)
(0.00609856 0.0441231 0.0791677)
(0.0101293 0.0433425 0.0791914)
(0.0141908 0.042662 0.0789822)
(0.0183104 0.0420819 0.0785335)
(0.0225214 0.0415998 0.0778299)
(0.0268573 0.0412132 0.0768468)
(0.0313526 0.0409193 0.0755487)
(0.0360096 0.0407224 0.073888)
(0.0409916 0.0409916 0.0718003)
(0.001851 0.00185105 0.0746295)
(0.0055668 0.00183007 0.0744042)
(0.00931448 0.00180377 0.0739442)
(0.0131147 0.00178032 0.0732324)
(0.0169904 0.00175965 0.072241)
(0.020962 0.00174153 0.0709295)
(0.0250476 0.00172581 0.0692433)
(0.0292615 0.00171238 0.0671099)
(0.0336093 0.0017016 0.0644344)
(0.0380797 0.00172179 0.0610938)
(0.00183003 0.00556685 0.0744041)
(0.00550445 0.00550453 0.0741922)
(0.00920847 0.00542648 0.0737511)
(0.0129622 0.00535722 0.0730649)
(0.0167874 0.00529648 0.0721078)
(0.0207036 0.00524358 0.0708423)
(0.0247284 0.00519784 0.0692177)
(0.0288762 0.00515874 0.067167)
(0.0331524 0.00512661 0.0646023)
(0.0375511 0.00517071 0.0614104)
(0.00180376 0.00931443 0.0739441)
(0.00542642 0.00920848 0.073751)
(0.00907547 0.00907553 0.0733323)
(0.0127712 0.00895625 0.0726727)
(0.0165336 0.0088502 0.0717482)
(0.0203811 0.00875634 0.0705244)
(0.0243309 0.00867344 0.0689543)
(0.0283972 0.0086003 0.0669757)
(0.0325838 0.00853643 0.0645072)
(0.0368889 0.00859156 0.0614451)
(0.00178034 0.0131145 0.0732324)
(0.00535723 0.0129621 0.0730649)
(0.00895622 0.0127711 0.0726726)
(0.0125985 0.0125985 0.0720415)
(0.0163023 0.0124434 0.0711491)
(0.0200852 0.0123043 0.0699638)
(0.0239632 0.0121797 0.068442)
(0.0279503 0.0120674 0.066526)
(0.0320476 0.0119661 0.0641405)
(0.0362594 0.0120245 0.0611907)
(0.00175966 0.0169903 0.072241)
(0.00529653 0.0167873 0.0721078)
(0.00885024 0.0165335 0.0717481)
(0.0124434 0.0163023 0.071149)
(0.0160925 0.0160926 0.0702903)
(0.0198142 0.0159022 0.0691425)
(0.0236234 0.015729 0.0676652)
(0.0275334 0.0155704 0.0658051)
(0.0315419 0.015424 0.0634926)
(0.0356635 0.0154768 0.0606406)
(0.00174155 0.0209619 0.0709295)
(0.00524363 0.0207035 0.0708423)
(0.00875641 0.020381 0.0705244)
(0.0123044 0.0200851 0.0699637)
(0.0159022 0.0198141 0.0691424)
(0.0195654 0.0195654 0.0680336)
(0.0233081 0.019336 0.0665999)
(0.0271429 0.0191227 0.0647918)
(0.0310633 0.0189226 0.0625451)
(0.035098 0.0189598 0.0597802)
(0.00172582 0.0250475 0.0692433)
(0.00519788 0.0247282 0.0692178)
(0.00867351 0.0243308 0.0689543)
(0.0121798 0.0239631 0.068442)
(0.0157291 0.0236233 0.0676651)
(0.019336 0.0233081 0.0665997)
(0.0230139 0.023014 0.0652118)
(0.0267747 0.022737 0.0634553)
(0.0306073 0.0224732 0.0612708)
(0.0345582 0.0224828 0.0585856)
(0.0017124 0.0292613 0.06711)
(0.00515879 0.028876 0.0671671)
(0.00860037 0.0283971 0.0669757)
(0.0120675 0.0279502 0.066526)
(0.0155705 0.0275333 0.0658051)
(0.0191228 0.0271428 0.0647917)
(0.0227369 0.0267747 0.0634551)
(0.0264239 0.026424 0.0617535)
(0.0301685 0.0260856 0.0596317)
(0.0340371 0.0260527 0.0570229)
(0.00170162 0.0336091 0.0644345)
(0.00512665 0.0331523 0.0646024)
(0.00853649 0.0325837 0.0645072)
(0.0119662 0.0320475 0.0641406)
(0.0154241 0.0315418 0.0634926)
(0.0189227 0.0310631 0.0625451)
(0.0224733 0.0306072 0.0612707)
(0.0260856 0.0301685 0.0596317)
(0.02974 0.0297399 0.0575776)
(0.0335304 0.0296483 0.0550465)
(0.0017218 0.0380796 0.0610938)
(0.00517074 0.037551 0.0614105)
(0.00859162 0.0368888 0.0614452)
(0.0120246 0.0362593 0.0611907)
(0.0154769 0.0356634 0.0606407)
(0.0189599 0.0350979 0.0597802)
(0.0224829 0.034558 0.0585856)
(0.0260528 0.0340369 0.0570229)
(0.0296484 0.0335303 0.0550464)
(0.0332886 0.0332886 0.052595)
(0.00161784 0.00161788 0.0618474)
(0.00485912 0.00159751 0.0615886)
(0.00810854 0.00157041 0.0610625)
(0.0113694 0.00154367 0.0602553)
(0.014645 0.00151709 0.0591437)
(0.0179332 0.00149025 0.0576954)
(0.0212253 0.00146264 0.0558675)
(0.0245031 0.00143361 0.0536053)
(0.0277332 0.00140253 0.0508401)
(0.0308572 0.00138762 0.0474879)
(0.00159747 0.00485916 0.0615885)
(0.0047988 0.00479886 0.0613456)
(0.00800727 0.00471869 0.0608427)
(0.0112264 0.0046399 0.0600664)
(0.0144592 0.00456197 0.0589957)
(0.0177037 0.00448377 0.0576003)