/*--------------------------------*- C++ -*----------------------------------*\
| =========                 |                                                 |
| \\      /  F ield         | foam-extend: Open Source CFD                    |
|  \\    /   O peration     | Version:     3.1                                |
|   \\  /    A nd           | Web:         http://www.extend-project.de       |
|    \\/     M anipulation  |                                                 |
\*---------------------------------------------------------------------------*/
FoamFile
{
    version     2.0;
    format      ascii;
    class       volScalarField::DimensionedInternalField;
    location    "0.0008";
    object      V0;
}
// * * * * * * * * * * * * * * * * * * * * * * * * * * * * * * * * * * * * * //

dimensions      [0 3 0 0 0 0 0];

value           nonuniform List<scalar> 
16000
(
7.18908e-11
7.0636e-11
6.93827e-11
6.8135e-11
6.68939e-11
6.56598e-11
6.44332e-11
6.3215e-11
6.20059e-11
6.08061e-11
7.06354e-11
6.93836e-11
6.81332e-11
6.68865e-11
6.56455e-11
6.44112e-11
6.31841e-11
6.19649e-11
6.0754e-11
5.95497e-11
6.93822e-11
6.81327e-11
6.68854e-11
6.56406e-11
6.43998e-11
6.3165e-11
6.19371e-11
6.07164e-11
5.95031e-11
5.82952e-11
6.8135e-11
6.68862e-11
6.56401e-11
6.43968e-11
6.31567e-11
6.19212e-11
6.06918e-11
5.94692e-11
5.82535e-11
5.70424e-11
6.68941e-11
6.56455e-11
6.43995e-11
6.31563e-11
6.19165e-11
6.06805e-11
5.94493e-11
5.82241e-11
5.70058e-11
5.57918e-11
6.566e-11
6.44113e-11
6.3165e-11
6.19209e-11
6.068e-11
5.94433e-11
5.82106e-11
5.69825e-11
5.57607e-11
5.45436e-11
6.44334e-11
6.31843e-11
6.19373e-11
6.06918e-11
5.94488e-11
5.82098e-11
5.69753e-11
5.57444e-11
5.4518e-11
5.32968e-11
6.32152e-11
6.19651e-11
6.07165e-11
5.94693e-11
5.8224e-11
5.69817e-11
5.57435e-11
5.45084e-11
5.32764e-11
5.205e-11
6.20061e-11
6.07541e-11
5.95033e-11
5.82536e-11
5.70058e-11
5.57604e-11
5.45175e-11
5.32761e-11
5.20362e-11
5.07998e-11
6.08063e-11
5.95498e-11
5.82953e-11
5.70425e-11
5.57919e-11
5.45436e-11
5.32968e-11
5.20498e-11
5.07995e-11
4.9548e-11
7.23644e-11
7.10936e-11
6.98183e-11
6.85501e-11
6.72909e-11
6.60399e-11
6.47964e-11
6.35595e-11
6.23277e-11
6.10972e-11
7.10921e-11
6.98304e-11
6.85641e-11
6.72995e-11
6.60414e-11
6.47911e-11
6.35479e-11
6.23108e-11
6.10773e-11
5.98399e-11
6.9817e-11
6.85626e-11
6.7306e-11
6.6048e-11
6.47921e-11
6.35421e-11
6.22987e-11
6.106e-11
5.98241e-11
5.85828e-11
6.855e-11
6.72985e-11
6.60467e-11
6.47945e-11
6.3542e-11
6.22918e-11
6.10465e-11
5.98054e-11
5.85667e-11
5.73224e-11
6.72913e-11
6.60415e-11
6.47912e-11
6.35408e-11
6.2291e-11
6.10416e-11
5.97935e-11
5.85482e-11
5.73057e-11
5.60587e-11
6.60403e-11
6.47914e-11
6.3542e-11
6.22909e-11
6.10402e-11
5.97911e-11
5.85416e-11
5.72911e-11
5.6042e-11
5.4791e-11
6.47968e-11
6.35483e-11
6.2299e-11
6.10465e-11
5.97923e-11
5.85393e-11
5.72876e-11
5.60325e-11
5.47742e-11
5.3517e-11
6.356e-11
6.23112e-11
6.10604e-11
5.98056e-11
5.8548e-11
5.72888e-11
5.603e-11
5.4767e-11
5.34983e-11
5.22328e-11
6.23281e-11
6.10777e-11
5.98245e-11
5.8567e-11
5.7306e-11
5.60415e-11
5.47731e-11
5.34976e-11
5.22138e-11
5.093e-11
6.10976e-11
5.98403e-11
5.85831e-11
5.73227e-11
5.60589e-11
5.47912e-11
5.35173e-11
5.22325e-11
5.09292e-11
4.96181e-11
7.27391e-11
7.14536e-11
7.0157e-11
6.88674e-11
6.75874e-11
6.63155e-11
6.50501e-11
6.37894e-11
6.25304e-11
6.12677e-11
7.14513e-11
7.01801e-11
6.88977e-11
6.7614e-11
6.63363e-11
6.50661e-11
6.38021e-11
6.25419e-11
6.12819e-11
6.00107e-11
7.01551e-11
6.88954e-11
6.76285e-11
6.63556e-11
6.5082e-11
6.38132e-11
6.25499e-11
6.12888e-11
6.0027e-11
5.87523e-11
6.88673e-11
6.76124e-11
6.63536e-11
6.50905e-11
6.38231e-11
6.2555e-11
6.12901e-11
6.0027e-11
5.87628e-11
5.74861e-11
6.75879e-11
6.63364e-11
6.50806e-11
6.38212e-11
6.2559e-11
6.12936e-11
6.0026e-11
5.87581e-11
5.74903e-11
5.62119e-11
6.63161e-11
6.50666e-11
6.38131e-11
6.25537e-11
6.12916e-11
6.0028e-11
5.87599e-11
5.74861e-11
5.62103e-11
5.49286e-11
6.50508e-11
6.38026e-11
6.25504e-11
6.12901e-11
6.00241e-11
5.87564e-11
5.74869e-11
5.62083e-11
5.4921e-11
5.36328e-11
6.37901e-11
6.25425e-11
6.12894e-11
6.00274e-11
5.87578e-11
5.74826e-11
5.62045e-11
5.49163e-11
5.36163e-11
5.23189e-11
6.25311e-11
6.12826e-11
6.00275e-11
5.87633e-11
5.74907e-11
5.62096e-11
5.49194e-11
5.36152e-11
5.22958e-11
5.09747e-11
6.12683e-11
6.00113e-11
5.87528e-11
5.74866e-11
5.62124e-11
5.49291e-11
5.36334e-11
5.23185e-11
5.09735e-11
4.96153e-11
7.2993e-11
7.16957e-11
7.03814e-11
6.9073e-11
6.77741e-11
6.64827e-11
6.51973e-11
6.39161e-11
6.26364e-11
6.13527e-11
7.16928e-11
7.04136e-11
6.91173e-11
6.78167e-11
6.6521e-11
6.52322e-11
6.39491e-11
6.26693e-11
6.13892e-11
6.00962e-11
7.0379e-11
6.91145e-11
6.78381e-11
6.65515e-11
6.52615e-11
6.39754e-11
6.26941e-11
6.14142e-11
6.01329e-11
5.88372e-11
6.90729e-11
6.78148e-11
6.6549e-11
6.52754e-11
6.39942e-11
6.271e-11
6.14279e-11
6.01468e-11
5.88642e-11
5.75677e-11
6.77747e-11
6.65211e-11
6.52599e-11
6.39918e-11
6.27182e-11
6.14387e-11
6.01547e-11
5.88695e-11
5.7584e-11
5.62874e-11
6.64834e-11
6.52329e-11
6.39753e-11
6.27084e-11
6.14362e-11
6.01605e-11
5.88777e-11
5.75869e-11
5.62938e-11
5.49953e-11
6.51982e-11
6.39499e-11
6.26947e-11
6.1428e-11
6.01525e-11
5.88733e-11
5.75909e-11
5.62964e-11
5.49915e-11
5.36877e-11
6.3917e-11
6.26701e-11
6.14149e-11
6.01474e-11
5.88691e-11
5.75827e-11
5.62918e-11
5.49883e-11
5.36706e-11
5.23582e-11
6.26373e-11
6.139e-11
6.01336e-11
5.88648e-11
5.75846e-11
5.62929e-11
5.49896e-11
5.36692e-11
5.2331e-11
5.09928e-11
6.13534e-11
6.00969e-11
5.88378e-11
5.75683e-11
5.6288e-11
5.49959e-11
5.36884e-11
5.23578e-11
5.09914e-11
4.96105e-11
7.31218e-11
7.18168e-11
7.04901e-11
6.91677e-11
6.78538e-11
6.65468e-11
6.52454e-11
6.39483e-11
6.26536e-11
6.13565e-11
7.18136e-11
7.05286e-11
6.9222e-11
6.79085e-11
6.65985e-11
6.52947e-11
6.39962e-11
6.2701e-11
6.14063e-11
6.01003e-11
7.04875e-11
6.92189e-11
6.79348e-11
6.66373e-11
6.53343e-11
6.4034e-11
6.27382e-11
6.14439e-11
6.01489e-11
5.8841e-11
6.91676e-11
6.79064e-11
6.66346e-11
6.53521e-11
6.40597e-11
6.27627e-11
6.14672e-11
6.01727e-11
5.88773e-11
5.75701e-11
6.78545e-11
6.65986e-11
6.53324e-11
6.40571e-11
6.27741e-11
6.14835e-11
6.01874e-11
5.88898e-11
5.75928e-11
5.62871e-11
6.65476e-11
6.52955e-11
6.4034e-11
6.2761e-11
6.14808e-11
6.01958e-11
5.89026e-11
5.76007e-11
5.62971e-11
5.49914e-11
6.52463e-11
6.3997e-11
6.27389e-11
6.14672e-11
6.0185e-11
5.88979e-11
5.76068e-11
5.6303e-11
5.49889e-11
5.36796e-11
6.39493e-11
6.27019e-11
6.14447e-11
6.01733e-11
5.88894e-11
5.75963e-11
5.6298e-11
5.4987e-11
5.36619e-11
5.2346e-11
6.26546e-11
6.14073e-11
6.01497e-11
5.8878e-11
5.75934e-11
5.62963e-11
5.49868e-11
5.36604e-11
5.23165e-11
5.09768e-11
6.13573e-11
6.01011e-11
5.88417e-11
5.75707e-11
5.62878e-11
5.49921e-11
5.36804e-11
5.23455e-11
5.09754e-11
4.95938e-11
7.31366e-11
7.18279e-11
7.04947e-11
6.91637e-11
6.78396e-11
6.65212e-11
6.52077e-11
6.38984e-11
6.25923e-11
6.1285e-11
7.18247e-11
7.05363e-11
6.92236e-11
6.79018e-11
6.65819e-11
6.5267e-11
6.39566e-11
6.26494e-11
6.13436e-11
6.0029e-11
7.0492e-11
6.92205e-11
6.79308e-11
6.66257e-11
6.53135e-11
6.40028e-11
6.26958e-11
6.13902e-11
6.00849e-11
5.87697e-11
6.91635e-11
6.78997e-11
6.6623e-11
6.53338e-11
6.4033e-11
6.27266e-11
6.1421e-11
6.01164e-11
5.88117e-11
5.74985e-11
6.78403e-11
6.6582e-11
6.53116e-11
6.40305e-11
6.27404e-11
6.14415e-11
6.01367e-11
5.88303e-11
5.75252e-11
5.62154e-11
6.6522e-11
6.52678e-11
6.40028e-11
6.27249e-11
6.14389e-11
6.01471e-11
5.88466e-11
5.75376e-11
5.62276e-11
5.49197e-11
6.52087e-11
6.39575e-11
6.26965e-11
6.14211e-11
6.01343e-11
5.88421e-11
5.75453e-11
5.62364e-11
5.49183e-11
5.36093e-11
6.38994e-11
6.26504e-11
6.1391e-11
6.0117e-11
5.883e-11
5.75334e-11
5.62316e-11
5.49183e-11
5.35923e-11
5.22796e-11
6.25933e-11
6.13446e-11
6.00857e-11
5.88124e-11
5.75259e-11
5.62268e-11
5.49161e-11
5.35907e-11
5.22506e-11
5.09201e-11
6.12859e-11
6.00299e-11
5.87704e-11
5.74992e-11
5.6216e-11
5.49204e-11
5.36099e-11
5.22791e-11
5.09188e-11
4.95533e-11
7.30598e-11
7.17511e-11
7.04168e-11
6.90824e-11
6.7753e-11
6.64278e-11
6.51064e-11
6.37886e-11
6.24741e-11
6.11597e-11
7.17481e-11
7.04586e-11
6.91438e-11
6.78184e-11
6.64931e-11
6.51713e-11
6.38529e-11
6.25373e-11
6.12236e-11
5.9904e-11
7.04143e-11
6.91409e-11
6.7848e-11
6.65388e-11
6.52213e-11
6.39041e-11
6.25896e-11
6.12761e-11
5.99636e-11
5.86449e-11
6.90823e-11
6.78164e-11
6.65363e-11
6.52427e-11
6.39369e-11
6.26246e-11
6.13123e-11
6.00008e-11
5.86899e-11
5.73746e-11
6.77537e-11
6.64932e-11
6.52196e-11
6.39345e-11
6.26396e-11
6.13357e-11
6.00254e-11
5.87137e-11
5.74035e-11
5.6093e-11
6.64285e-11
6.5172e-11
6.39041e-11
6.26231e-11
6.13332e-11
6.00371e-11
5.87324e-11
5.74198e-11
5.61068e-11
5.48003e-11
6.51072e-11
6.38537e-11
6.25902e-11
6.13124e-11
6.00233e-11
5.87284e-11
5.74288e-11
5.61182e-11
5.48002e-11
5.34951e-11
6.37895e-11
6.25382e-11
6.12769e-11
6.00015e-11
5.87134e-11
5.74161e-11
5.6114e-11
5.48023e-11
5.34802e-11
5.21749e-11
6.24751e-11
6.12244e-11
5.99644e-11
5.86906e-11
5.74041e-11
5.61061e-11
5.47982e-11
5.34787e-11
5.21484e-11
5.08331e-11
6.11606e-11
5.99048e-11
5.86456e-11
5.73752e-11
5.60936e-11
5.48008e-11
5.34955e-11
5.21744e-11
5.0832e-11
4.94917e-11
7.29202e-11
7.16146e-11
7.02837e-11
6.89508e-11
6.76208e-11
6.62934e-11
6.49687e-11
6.3647e-11
6.23288e-11
6.10116e-11
7.16119e-11
7.03235e-11
6.901e-11
6.76853e-11
6.63592e-11
6.5035e-11
6.37131e-11
6.23936e-11
6.10763e-11
5.97562e-11
7.02814e-11
6.90074e-11
6.77139e-11
6.6404e-11
6.50854e-11
6.3766e-11
6.24481e-11
6.11311e-11
5.98157e-11
5.84976e-11
6.89506e-11
6.76835e-11
6.64018e-11
6.51064e-11
6.3799e-11
6.24849e-11
6.11701e-11
5.98558e-11
5.85427e-11
5.72291e-11
6.76213e-11
6.63592e-11
6.50839e-11
6.37969e-11
6.25002e-11
6.11945e-11
5.98828e-11
5.85696e-11
5.72584e-11
5.59507e-11
6.6294e-11
6.50356e-11
6.37659e-11
6.24835e-11
6.11924e-11
5.98949e-11
5.85894e-11
5.72771e-11
5.59651e-11
5.46628e-11
6.49694e-11
6.37138e-11
6.24486e-11
6.11701e-11
5.9881e-11
5.85862e-11
5.72866e-11
5.5978e-11
5.46639e-11
5.33653e-11
6.36478e-11
6.23943e-11
6.11317e-11
5.98564e-11
5.85695e-11
5.72742e-11
5.59746e-11
5.46677e-11
5.33532e-11
5.20572e-11
6.23296e-11
6.10771e-11
5.98163e-11
5.85433e-11
5.7259e-11
5.59645e-11
5.46621e-11
5.33518e-11
5.20345e-11
5.07356e-11
6.10124e-11
5.97569e-11
5.84982e-11
5.72296e-11
5.59511e-11
5.46632e-11
5.33654e-11
5.20567e-11
5.07348e-11
4.94206e-11
7.27476e-11
7.14471e-11
7.0123e-11
6.87954e-11
6.74691e-11
6.61442e-11
6.48211e-11
6.35007e-11
6.21839e-11
6.0869e-11
7.14448e-11
7.01591e-11
6.88499e-11
6.75295e-11
6.62067e-11
6.48847e-11
6.35642e-11
6.22458e-11
6.093e-11
5.96141e-11
7.0121e-11
6.88477e-11
6.75558e-11
6.62485e-11
6.49326e-11
6.36151e-11
6.22986e-11
6.09829e-11
5.96694e-11
5.83563e-11
6.87952e-11
6.75279e-11
6.62466e-11
6.49522e-11
6.36466e-11
6.23346e-11
6.10215e-11
5.97091e-11
5.83984e-11
5.70902e-11
6.74695e-11
6.62067e-11
6.49313e-11
6.36449e-11
6.23492e-11
6.10453e-11
5.97361e-11
5.84258e-11
5.71178e-11
5.58158e-11
6.61447e-11
6.48852e-11
6.36151e-11
6.23334e-11
6.10436e-11
5.97478e-11
5.84451e-11
5.71369e-11
5.58296e-11
5.45339e-11
6.48217e-11
6.35647e-11
6.2299e-11
6.10215e-11
5.97346e-11
5.84425e-11
5.71462e-11
5.58427e-11
5.45357e-11
5.32449e-11
6.35013e-11
6.22463e-11
6.09834e-11
5.97095e-11
5.84257e-11
5.71346e-11
5.58401e-11
5.45403e-11
5.32355e-11
5.1949e-11
6.21845e-11
6.09306e-11
5.96699e-11
5.83989e-11
5.71182e-11
5.58292e-11
5.45342e-11
5.32343e-11
5.19305e-11
5.06458e-11
6.08696e-11
5.96146e-11
5.83567e-11
5.70906e-11
5.58161e-11
5.45341e-11
5.32449e-11
5.19485e-11
5.06452e-11
4.93523e-11
7.25673e-11
7.12732e-11
6.99579e-11
6.86384e-11
6.73191e-11
6.60005e-11
6.46832e-11
6.33685e-11
6.20574e-11
6.07493e-11
7.12713e-11
6.99893e-11
6.86865e-11
6.73731e-11
6.60569e-11
6.47408e-11
6.34258e-11
6.21129e-11
6.08031e-11
5.94949e-11
6.99562e-11
6.86846e-11
6.73962e-11
6.6094e-11
6.47839e-11
6.34721e-11
6.21608e-11
6.08507e-11
5.95433e-11
5.82381e-11
6.86382e-11
6.73718e-11
6.60924e-11
6.48014e-11
6.35004e-11
6.21938e-11
6.08862e-11
5.95795e-11
5.8275e-11
5.69747e-11
6.73194e-11
6.60568e-11
6.47829e-11
6.3499e-11
6.2207e-11
6.09078e-11
5.96043e-11
5.83004e-11
5.69989e-11
5.57046e-11
6.60008e-11
6.47411e-11
6.3472e-11
6.21928e-11
6.09065e-11
5.96149e-11
5.83178e-11
5.70166e-11
5.57169e-11
5.44288e-11
6.46836e-11
6.34262e-11
6.21611e-11
6.08861e-11
5.96032e-11
5.83158e-11
5.70249e-11
5.57289e-11
5.44308e-11
5.31479e-11
6.33689e-11
6.21133e-11
6.08511e-11
5.95798e-11
5.83003e-11
5.70149e-11
5.57268e-11
5.44354e-11
5.31408e-11
5.18627e-11
6.20579e-11
6.08035e-11
5.95437e-11
5.82753e-11
5.69992e-11
5.57166e-11
5.44296e-11
5.31398e-11
5.18481e-11
5.05738e-11
6.07497e-11
5.94952e-11
5.82384e-11
5.69749e-11
5.57048e-11
5.44289e-11
5.31478e-11
5.18622e-11
5.05733e-11
4.92946e-11
7.23974e-11
7.111e-11
6.98043e-11
6.84945e-11
6.71841e-11
6.58742e-11
6.45654e-11
6.32592e-11
6.19568e-11
6.06577e-11
7.11085e-11
6.98309e-11
6.85353e-11
6.72305e-11
6.59228e-11
6.46151e-11
6.33084e-11
6.20038e-11
6.07025e-11
5.94039e-11
6.9803e-11
6.85338e-11
6.72501e-11
6.59545e-11
6.46522e-11
6.33483e-11
6.20449e-11
6.0743e-11
5.9444e-11
5.81482e-11
6.84942e-11
6.72294e-11
6.59533e-11
6.46671e-11
6.33726e-11
6.20734e-11
6.07735e-11
5.94749e-11
5.81788e-11
5.68873e-11
6.71843e-11
6.59227e-11
6.46513e-11
6.33714e-11
6.20847e-11
6.07921e-11
5.94963e-11
5.82005e-11
5.69074e-11
5.56213e-11
6.58744e-11
6.46153e-11
6.33482e-11
6.20726e-11
6.07911e-11
5.95053e-11
5.82152e-11
5.69225e-11
5.56315e-11
5.43509e-11
6.45657e-11
6.33086e-11
6.20451e-11
6.07735e-11
5.94954e-11
5.82137e-11
5.69294e-11
5.56415e-11
5.43527e-11
5.30769e-11
6.32595e-11
6.2004e-11
6.07432e-11
5.94751e-11
5.82004e-11
5.69212e-11
5.564e-11
5.43566e-11
5.30714e-11
5.18e-11
6.1957e-11
6.07028e-11
5.94442e-11
5.8179e-11
5.69076e-11
5.56312e-11
5.43518e-11
5.30706e-11
5.17886e-11
5.05209e-11
6.06579e-11
5.94041e-11
5.81484e-11
5.68874e-11
5.56214e-11
5.43509e-11
5.30767e-11
5.17996e-11
5.05206e-11
4.92499e-11
7.2248e-11
7.0967e-11
6.96708e-11
6.83707e-11
6.707e-11
6.57695e-11
6.44704e-11
6.31736e-11
6.18806e-11
6.0591e-11
7.09658e-11
6.96926e-11
6.84045e-11
6.71085e-11
6.58101e-11
6.45116e-11
6.32141e-11
6.19188e-11
6.06269e-11
5.93378e-11
6.96697e-11
6.84033e-11
6.71247e-11
6.58363e-11
6.45424e-11
6.32472e-11
6.19526e-11
6.06597e-11
5.93697e-11
5.80831e-11
6.83705e-11
6.71076e-11
6.58353e-11
6.45547e-11
6.32672e-11
6.19762e-11
6.06848e-11
5.93948e-11
5.81074e-11
5.68243e-11
6.70701e-11
6.58099e-11
6.45417e-11
6.32664e-11
6.19855e-11
6.07001e-11
5.94124e-11
5.8125e-11
5.68403e-11
5.55617e-11
6.57697e-11
6.45117e-11
6.3247e-11
6.19755e-11
6.06993e-11
5.94197e-11
5.8137e-11
5.68525e-11
5.55698e-11
5.42957e-11
6.44705e-11
6.32142e-11
6.19527e-11
6.06847e-11
5.94117e-11
5.81358e-11
5.6858e-11
5.55777e-11
5.42972e-11
5.30271e-11
6.31738e-11
6.1919e-11
6.06598e-11
5.93949e-11
5.81249e-11
5.68515e-11
5.55765e-11
5.43002e-11
5.30228e-11
5.17562e-11
6.18807e-11
6.0627e-11
5.93699e-11
5.81075e-11
5.68405e-11
5.55696e-11
5.42965e-11
5.30222e-11
5.17475e-11
5.04837e-11
6.05911e-11
5.93379e-11
5.80832e-11
5.68244e-11
5.55617e-11
5.42957e-11
5.30269e-11
5.17559e-11
5.04834e-11
4.9217e-11
7.21226e-11
7.08473e-11
6.95595e-11
6.82686e-11
6.6977e-11
6.56858e-11
6.43958e-11
6.3108e-11
6.18237e-11
6.05425e-11
7.08463e-11
6.95772e-11
6.8296e-11
6.70083e-11
6.57186e-11
6.4429e-11
6.31405e-11
6.1854e-11
6.05706e-11
5.92898e-11
6.95587e-11
6.82951e-11
6.70215e-11
6.57399e-11
6.4454e-11
6.31671e-11
6.1881e-11
6.05965e-11
5.93148e-11
5.80359e-11
6.82684e-11
6.70076e-11
6.57391e-11
6.44639e-11
6.31833e-11
6.18999e-11
6.06165e-11
5.93345e-11
5.80549e-11
5.67789e-11
6.69771e-11
6.57185e-11
6.44534e-11
6.31826e-11
6.19074e-11
6.06288e-11
5.93484e-11
5.80687e-11
5.67914e-11
5.55189e-11
6.56858e-11
6.44291e-11
6.3167e-11
6.18994e-11
6.06281e-11
5.93543e-11
5.80781e-11
5.68008e-11
5.55252e-11
5.42563e-11
6.43959e-11
6.31406e-11
6.18811e-11
6.06165e-11
5.93479e-11
5.80772e-11
5.68052e-11
5.55313e-11
5.42575e-11
5.29917e-11
6.31081e-11
6.18541e-11
6.05966e-11
5.93346e-11
5.80686e-11
5.68e-11
5.55304e-11
5.42597e-11
5.29883e-11
5.17252e-11
6.18238e-11
6.05706e-11
5.93148e-11
5.8055e-11
5.67915e-11
5.5525e-11
5.42569e-11
5.29878e-11
5.17183e-11
5.0457e-11
6.05425e-11
5.92898e-11
5.8036e-11
5.67789e-11
5.55189e-11
5.42563e-11
5.29915e-11
5.17249e-11
5.04567e-11
4.91927e-11
7.20201e-11
7.07497e-11
6.94692e-11
6.81862e-11
6.69026e-11
6.56195e-11
6.43374e-11
6.30574e-11
6.17803e-11
6.05058e-11
7.07489e-11
6.94834e-11
6.82082e-11
6.69277e-11
6.56458e-11
6.43639e-11
6.30831e-11
6.18041e-11
6.05277e-11
5.92535e-11
6.94686e-11
6.82074e-11
6.69383e-11
6.56628e-11
6.43838e-11
6.31042e-11
6.18254e-11
6.05481e-11
5.9273e-11
5.80003e-11
6.8186e-11
6.69272e-11
6.56622e-11
6.43917e-11
6.31171e-11
6.18404e-11
6.05638e-11
5.92885e-11
5.80152e-11
5.67447e-11
6.69027e-11
6.56457e-11
6.43834e-11
6.31166e-11
6.18463e-11
6.05734e-11
5.92993e-11
5.80259e-11
5.67544e-11
5.54867e-11
6.56195e-11
6.4364e-11
6.31041e-11
6.184e-11
6.05729e-11
5.93039e-11
5.80332e-11
5.67617e-11
5.54916e-11
5.42266e-11
6.43375e-11
6.30831e-11
6.18255e-11
6.05637e-11
5.92989e-11
5.80324e-11
5.6765e-11
5.54963e-11
5.42275e-11
5.29649e-11
6.30575e-11
6.18042e-11
6.05481e-11
5.92885e-11
5.80258e-11
5.6761e-11
5.54955e-11
5.42291e-11
5.29622e-11
5.17015e-11
6.17803e-11
6.05278e-11
5.92731e-11
5.80152e-11
5.67545e-11
5.54914e-11
5.4227e-11
5.29618e-11
5.16961e-11
5.04365e-11
6.05059e-11
5.92536e-11
5.80004e-11
5.67447e-11
5.54867e-11
5.42266e-11
5.29648e-11
5.17014e-11
5.04363e-11
4.91741e-11
7.19376e-11
7.06712e-11
6.93967e-11
6.81202e-11
6.68433e-11
6.55668e-11
6.42913e-11
6.30174e-11
6.17459e-11
6.04766e-11
7.06706e-11
6.94081e-11
6.81377e-11
6.68633e-11
6.55877e-11
6.43123e-11
6.30377e-11
6.17647e-11
6.04939e-11
5.92247e-11
6.93962e-11
6.81372e-11
6.68717e-11
6.56013e-11
6.43281e-11
6.30545e-11
6.17816e-11
6.05099e-11
5.924e-11
5.7972e-11
6.81201e-11
6.68629e-11
6.56008e-11
6.43344e-11
6.30647e-11
6.17934e-11
6.05222e-11
5.92521e-11
5.79837e-11
5.67174e-11
6.68434e-11
6.55877e-11
6.43277e-11
6.30642e-11
6.17981e-11
6.05298e-11
5.92607e-11
5.79921e-11
5.6725e-11
5.54609e-11
6.55668e-11
6.43123e-11
6.30544e-11
6.17931e-11
6.05294e-11
5.92643e-11
5.79978e-11
5.67307e-11
5.54648e-11
5.42027e-11
6.42913e-11
6.30378e-11
6.17816e-11
6.05222e-11
5.92603e-11
5.79972e-11
5.67333e-11
5.54684e-11
5.42034e-11
5.29432e-11
6.30175e-11
6.17648e-11
6.05099e-11
5.92522e-11
5.7992e-11
5.67302e-11
5.54678e-11
5.42047e-11
5.2941e-11
5.16823e-11
6.1746e-11
6.04939e-11
5.92401e-11
5.79837e-11
5.67251e-11
5.54646e-11
5.42031e-11
5.29407e-11
5.16779e-11
5.04198e-11
6.04766e-11
5.92247e-11
5.7972e-11
5.67174e-11
5.54609e-11
5.42027e-11
5.29431e-11
5.16821e-11
5.04196e-11
4.91592e-11
7.18714e-11
7.06082e-11
6.93386e-11
6.80673e-11
6.67958e-11
6.55246e-11
6.42542e-11
6.29851e-11
6.17179e-11
6.04524e-11
7.06077e-11
6.93476e-11
6.80813e-11
6.68117e-11
6.55412e-11
6.42709e-11
6.30013e-11
6.17329e-11
6.04662e-11
5.92008e-11
6.93382e-11
6.80808e-11
6.68184e-11
6.5552e-11
6.42834e-11
6.30146e-11
6.17462e-11
6.04789e-11
5.9213e-11
5.79486e-11
6.80672e-11
6.68114e-11
6.55516e-11
6.42885e-11
6.30227e-11
6.17556e-11
6.04887e-11
5.92226e-11
5.79579e-11
5.66947e-11
6.67958e-11
6.55412e-11
6.42832e-11
6.30223e-11
6.17593e-11
6.04947e-11
5.92294e-11
5.79645e-11
5.67008e-11
5.54394e-11
6.55246e-11
6.42709e-11
6.30145e-11
6.17554e-11
6.04944e-11
5.92323e-11
5.7969e-11
5.67053e-11
5.54425e-11
5.41827e-11
6.42542e-11
6.30013e-11
6.17463e-11
6.04887e-11
5.92291e-11
5.79686e-11
5.67074e-11
5.54454e-11
5.41833e-11
5.29249e-11
6.29852e-11
6.17329e-11
6.04789e-11
5.92227e-11
5.79644e-11
5.67049e-11
5.54449e-11
5.41843e-11
5.29231e-11
5.16659e-11
6.1718e-11
6.04662e-11
5.92131e-11
5.79579e-11
5.67009e-11
5.54424e-11
5.4183e-11
5.29229e-11
5.16624e-11
5.04056e-11
6.04525e-11
5.92008e-11
5.79486e-11
5.66947e-11
5.54394e-11
5.41827e-11
5.29248e-11
5.16658e-11
5.04055e-11
4.91468e-11
7.18183e-11
7.05576e-11
6.92918e-11
6.80247e-11
6.67574e-11
6.54903e-11
6.42239e-11
6.29586e-11
6.16947e-11
6.04322e-11
7.05572e-11
6.9299e-11
6.80359e-11
6.67701e-11
6.55036e-11
6.42373e-11
6.29715e-11
6.17067e-11
6.04432e-11
5.91807e-11
6.92915e-11
6.80355e-11
6.67755e-11
6.55123e-11
6.42473e-11
6.29821e-11
6.17174e-11
6.04534e-11
5.91906e-11
5.79288e-11
6.80246e-11
6.67699e-11
6.5512e-11
6.42514e-11
6.29886e-11
6.17249e-11
6.04613e-11
5.91983e-11
5.79363e-11
5.66756e-11
6.67574e-11
6.55036e-11
6.42471e-11
6.29884e-11
6.17279e-11
6.04661e-11
5.92037e-11
5.79417e-11
5.66806e-11
5.54212e-11
6.54904e-11
6.42373e-11
6.29821e-11
6.17247e-11
6.04658e-11
5.9206e-11
5.79453e-11
5.66842e-11
5.54238e-11
5.41657e-11
6.4224e-11
6.29716e-11
6.17174e-11
6.04613e-11
5.92035e-11
5.79449e-11
5.66859e-11
5.54261e-11
5.41662e-11
5.29093e-11
6.29586e-11
6.17067e-11
6.04535e-11
5.91983e-11
5.79416e-11
5.66839e-11
5.54257e-11
5.4167e-11
5.29079e-11
5.16519e-11
6.16947e-11
6.04433e-11
5.91906e-11
5.79364e-11
5.66806e-11
5.54237e-11
5.4166e-11
5.29077e-11
5.16491e-11
5.03935e-11
6.04322e-11
5.91808e-11
5.79288e-11
5.66757e-11
5.54212e-11
5.41657e-11
5.29092e-11
5.16518e-11
5.03934e-11
4.91364e-11
7.17754e-11
7.05167e-11
6.9254e-11
6.79902e-11
6.67262e-11
6.54624e-11
6.41992e-11
6.29367e-11
6.16754e-11
6.04152e-11
7.05164e-11
6.92598e-11
6.79991e-11
6.67364e-11
6.54731e-11
6.42099e-11
6.29471e-11
6.16851e-11
6.04242e-11
5.9164e-11
6.92537e-11
6.79988e-11
6.67407e-11
6.548e-11
6.4218e-11
6.29557e-11
6.16937e-11
6.04324e-11
5.9172e-11
5.79123e-11
6.79901e-11
6.67362e-11
6.54798e-11
6.42212e-11
6.29609e-11
6.16998e-11
6.04387e-11
5.91782e-11
5.79184e-11
5.66597e-11
6.67262e-11
6.54731e-11
6.42178e-11
6.29607e-11
6.17022e-11
6.04426e-11
5.91826e-11
5.79227e-11
5.66637e-11
5.5406e-11
6.54625e-11
6.42099e-11
6.29557e-11
6.16996e-11
6.04424e-11
5.91844e-11
5.79257e-11
5.66666e-11
5.54081e-11
5.41515e-11
6.41992e-11
6.29472e-11
6.16938e-11
6.04387e-11
5.91824e-11
5.79254e-11
5.6668e-11
5.541e-11
5.41519e-11
5.28962e-11
6.29368e-11
6.16852e-11
6.04324e-11
5.91782e-11
5.79227e-11
5.66664e-11
5.54097e-11
5.41525e-11
5.28951e-11
5.16401e-11
6.16755e-11
6.04242e-11
5.9172e-11
5.79184e-11
5.66637e-11
5.5408e-11
5.41517e-11
5.2895e-11
5.16379e-11
5.03833e-11
6.04152e-11
5.9164e-11
5.79123e-11
5.66597e-11
5.5406e-11
5.41515e-11
5.28961e-11
5.16401e-11
5.03832e-11
4.91275e-11
7.17406e-11
7.04836e-11
6.92233e-11
6.79621e-11
6.67008e-11
6.54397e-11
6.41789e-11
6.29188e-11
6.16596e-11
6.04012e-11
7.04834e-11
6.92279e-11
6.79693e-11
6.6709e-11
6.54483e-11
6.41875e-11
6.29272e-11
6.16674e-11
6.04084e-11
5.91501e-11
6.92231e-11
6.79691e-11
6.67125e-11
6.54538e-11
6.4194e-11
6.29341e-11
6.16744e-11
6.04151e-11
5.91566e-11
5.78987e-11
6.79621e-11
6.67089e-11
6.54536e-11
6.41966e-11
6.29383e-11
6.16792e-11
6.04202e-11
5.91616e-11
5.79036e-11
5.66465e-11
6.67009e-11
6.54482e-11
6.41939e-11
6.29381e-11
6.16812e-11
6.04234e-11
5.91652e-11
5.79072e-11
5.66497e-11
5.53934e-11
6.54397e-11
6.41876e-11
6.2934e-11
6.16791e-11
6.04232e-11
5.91667e-11
5.79095e-11
5.66521e-11
5.53951e-11
5.41397e-11
6.41789e-11
6.29272e-11
6.16744e-11
6.04202e-11
5.9165e-11
5.79093e-11
5.66532e-11
5.53967e-11
5.414e-11
5.28853e-11
6.29188e-11
6.16674e-11
6.04151e-11
5.91616e-11
5.79071e-11
5.66519e-11
5.53964e-11
5.41406e-11
5.28845e-11
5.16304e-11
6.16596e-11
6.04085e-11
5.91566e-11
5.79037e-11
5.66498e-11
5.53951e-11
5.41399e-11
5.28844e-11
5.16286e-11
5.03749e-11
6.04012e-11
5.91501e-11
5.78987e-11
5.66465e-11
5.53934e-11
5.41397e-11
5.28853e-11
5.16304e-11
5.03748e-11
4.91202e-11
7.17125e-11
7.04568e-11
6.91984e-11
6.79394e-11
6.66802e-11
6.54211e-11
6.41624e-11
6.29041e-11
6.16466e-11
6.03897e-11
7.04566e-11
6.92022e-11
6.79452e-11
6.66868e-11
6.5428e-11
6.41693e-11
6.29109e-11
6.16529e-11
6.03956e-11
5.91388e-11
6.91983e-11
6.7945e-11
6.66896e-11
6.54325e-11
6.41746e-11
6.29164e-11
6.16585e-11
6.0401e-11
5.9144e-11
5.78876e-11
6.79393e-11
6.66867e-11
6.54324e-11
6.41766e-11
6.29198e-11
6.16625e-11
6.04051e-11
5.91481e-11
5.78916e-11
5.66357e-11
6.66802e-11
6.5428e-11
6.41744e-11
6.29197e-11
6.1664e-11
6.04077e-11
5.9151e-11
5.78944e-11
5.66383e-11
5.53832e-11
6.54212e-11
6.41694e-11
6.29164e-11
6.16624e-11
6.04075e-11
5.91522e-11
5.78963e-11
5.66403e-11
5.53845e-11
5.41301e-11
6.41624e-11
6.29109e-11
6.16586e-11
6.04051e-11
5.91508e-11
5.78961e-11
5.66412e-11
5.53858e-11
5.41304e-11
5.28765e-11
6.29041e-11
6.16529e-11
6.0401e-11
5.91481e-11
5.78944e-11
5.66401e-11
5.53856e-11
5.41308e-11
5.28758e-11
5.16225e-11
6.16466e-11
6.03956e-11
5.9144e-11
5.78916e-11
5.66384e-11
5.53845e-11
5.41303e-11
5.28757e-11
5.16211e-11
5.0368e-11
6.03897e-11
5.91388e-11
5.78876e-11
5.66357e-11
5.53832e-11
5.41301e-11
5.28765e-11
5.16224e-11
5.03679e-11
4.91142e-11
7.16897e-11
7.04351e-11
6.91783e-11
6.79209e-11
6.66634e-11
6.54061e-11
6.41489e-11
6.28922e-11
6.1636e-11
6.03804e-11
7.04349e-11
6.91813e-11
6.79256e-11
6.66688e-11
6.54116e-11
6.41545e-11
6.28977e-11
6.16412e-11
6.03852e-11
5.91296e-11
6.91781e-11
6.79254e-11
6.6671e-11
6.54152e-11
6.41587e-11
6.29021e-11
6.16457e-11
6.03895e-11
5.91338e-11
5.78785e-11
6.79209e-11
6.66687e-11
6.54151e-11
6.41604e-11
6.29049e-11
6.16488e-11
6.03929e-11
5.91371e-11
5.78818e-11
5.6627e-11
6.66635e-11
6.54116e-11
6.41587e-11
6.29047e-11
6.16501e-11
6.03949e-11
5.91394e-11
5.78841e-11
5.66291e-11
5.53749e-11
6.54061e-11
6.41546e-11
6.29021e-11
6.16488e-11
6.03948e-11
5.91404e-11
5.78856e-11
5.66307e-11
5.5376e-11
5.41223e-11
6.41489e-11
6.28977e-11
6.16457e-11
6.03928e-11
5.91393e-11
5.78855e-11
5.66314e-11
5.5377e-11
5.41226e-11
5.28694e-11
6.28922e-11
6.16412e-11
6.03895e-11
5.91371e-11
5.78841e-11
5.66305e-11
5.53768e-11
5.41229e-11
5.28688e-11
5.16161e-11
6.16361e-11
6.03852e-11
5.91338e-11
5.78818e-11
5.66291e-11
5.53759e-11
5.41225e-11
5.28688e-11
5.16149e-11
5.03624e-11
6.03804e-11
5.91296e-11
5.78785e-11
5.6627e-11
5.53749e-11
5.41223e-11
5.28693e-11
5.1616e-11
5.03623e-11
4.91093e-11
7.16713e-11
7.04175e-11
6.9162e-11
6.7906e-11
6.66499e-11
6.53939e-11
6.41381e-11
6.28826e-11
6.16275e-11
6.03729e-11
7.04174e-11
6.91644e-11
6.79097e-11
6.66542e-11
6.53984e-11
6.41426e-11
6.2887e-11
6.16316e-11
6.03767e-11
5.91222e-11
6.91619e-11
6.79096e-11
6.66559e-11
6.54012e-11
6.4146e-11
6.28906e-11
6.16353e-11
6.03803e-11
5.91256e-11
5.78713e-11
6.7906e-11
6.66541e-11
6.54011e-11
6.41473e-11
6.28927e-11
6.16378e-11
6.03829e-11
5.91282e-11
5.78739e-11
5.66199e-11
6.66499e-11
6.53983e-11
6.41459e-11
6.28927e-11
6.16388e-11
6.03846e-11
5.91301e-11
5.78757e-11
5.66217e-11
5.53682e-11
6.53939e-11
6.41426e-11
6.28905e-11
6.16378e-11
6.03845e-11
5.91309e-11
5.7877e-11
5.66229e-11
5.53691e-11
5.4116e-11
6.41381e-11
6.2887e-11
6.16353e-11
6.03829e-11
5.913e-11
5.78768e-11
5.66235e-11
5.53699e-11
5.41162e-11
5.28636e-11
6.28826e-11
6.16317e-11
6.03803e-11
5.91283e-11
5.78757e-11
5.66228e-11
5.53698e-11
5.41165e-11
5.28632e-11
5.16109e-11
6.16275e-11
6.03768e-11
5.91256e-11
5.78739e-11
5.66217e-11
5.5369e-11
5.41162e-11
5.28631e-11
5.161e-11
5.03578e-11
6.03729e-11
5.91222e-11
5.78713e-11
5.66199e-11
5.53682e-11
5.4116e-11
5.28636e-11
5.16108e-11
5.03578e-11
4.91053e-11
7.16564e-11
7.04033e-11
6.91488e-11
6.78939e-11
6.66389e-11
6.5384e-11
6.41293e-11
6.28748e-11
6.16207e-11
6.03669e-11
7.04032e-11
6.91507e-11
6.78969e-11
6.66424e-11
6.53876e-11
6.41329e-11
6.28783e-11
6.1624e-11
6.037e-11
5.91162e-11
6.91487e-11
6.78968e-11
6.66438e-11
6.53899e-11
6.41356e-11
6.28812e-11
6.16269e-11
6.03728e-11
5.9119e-11
5.78654e-11
6.78939e-11
6.66423e-11
6.53899e-11
6.41367e-11
6.2883e-11
6.16289e-11
6.03749e-11
5.91211e-11
5.78675e-11
5.66143e-11
6.6639e-11
6.53876e-11
6.41356e-11
6.28829e-11
6.16298e-11
6.03763e-11
5.91226e-11
5.7869e-11
5.66156e-11
5.53628e-11
6.5384e-11
6.41329e-11
6.28812e-11
6.16289e-11
6.03762e-11
5.91232e-11
5.787e-11
5.66167e-11
5.53635e-11
5.4111e-11
6.41293e-11
6.28783e-11
6.16269e-11
6.03749e-11
5.91225e-11
5.78699e-11
5.66171e-11
5.53642e-11
5.41112e-11
5.2859e-11
6.28748e-11
6.1624e-11
6.03728e-11
5.91211e-11
5.7869e-11
5.66166e-11
5.53641e-11
5.41114e-11
5.28586e-11
5.16067e-11
6.16207e-11
6.037e-11
5.9119e-11
5.78675e-11
5.66157e-11
5.53635e-11
5.41111e-11
5.28586e-11
5.1606e-11
5.03542e-11
6.03669e-11
5.91162e-11
5.78654e-11
5.66143e-11
5.53628e-11
5.4111e-11
5.2859e-11
5.16067e-11
5.03542e-11
4.91021e-11
7.16445e-11
7.03919e-11
6.91382e-11
6.78842e-11
6.66301e-11
6.53761e-11
6.41222e-11
6.28685e-11
6.16151e-11
6.0362e-11
7.03918e-11
6.91397e-11
6.78866e-11
6.66329e-11
6.5379e-11
6.41251e-11
6.28714e-11
6.16178e-11
6.03645e-11
5.91114e-11
6.91381e-11
6.78865e-11
6.6634e-11
6.53808e-11
6.41273e-11
6.28737e-11
6.16201e-11
6.03668e-11
5.91136e-11
5.78607e-11
6.78842e-11
6.66328e-11
6.53808e-11
6.41282e-11
6.28751e-11
6.16218e-11
6.03685e-11
5.91153e-11
5.78624e-11
5.66097e-11
6.66301e-11
6.5379e-11
6.41273e-11
6.2875e-11
6.16224e-11
6.03696e-11
5.91165e-11
5.78636e-11
5.66108e-11
5.53584e-11
6.53761e-11
6.41251e-11
6.28737e-11
6.16217e-11
6.03695e-11
5.9117e-11
5.78644e-11
5.66116e-11
5.5359e-11
5.41069e-11
6.41222e-11
6.28714e-11
6.16202e-11
6.03685e-11
5.91165e-11
5.78643e-11
5.6612e-11
5.53595e-11
5.41071e-11
5.28552e-11
6.28685e-11
6.16178e-11
6.03668e-11
5.91153e-11
5.78636e-11
5.66116e-11
5.53595e-11
5.41073e-11
5.2855e-11
5.16034e-11
6.16151e-11
6.03645e-11
5.91136e-11
5.78624e-11
5.66108e-11
5.5359e-11
5.4107e-11
5.28549e-11
5.16028e-11
5.03513e-11
6.0362e-11
5.91114e-11
5.78607e-11
5.66097e-11
5.53584e-11
5.41069e-11
5.28552e-11
5.16033e-11
5.03512e-11
4.90995e-11
7.16348e-11
7.03826e-11
6.91296e-11
6.78763e-11
6.6623e-11
6.53697e-11
6.41165e-11
6.28635e-11
6.16107e-11
6.03581e-11
7.03826e-11
6.91308e-11
6.78783e-11
6.66252e-11
6.5372e-11
6.41189e-11
6.28658e-11
6.16128e-11
6.03601e-11
5.91076e-11
6.91296e-11
6.78782e-11
6.66261e-11
6.53735e-11
6.41206e-11
6.28676e-11
6.16147e-11
6.03619e-11
5.91093e-11
5.78569e-11
6.78763e-11
6.66252e-11
6.53735e-11
6.41213e-11
6.28688e-11
6.1616e-11
6.03633e-11
5.91107e-11
5.78583e-11
5.6606e-11
6.6623e-11
6.5372e-11
6.41206e-11
6.28687e-11
6.16165e-11
6.03642e-11
5.91117e-11
5.78592e-11
5.66069e-11