/*--------------------------------*- C++ -*----------------------------------*\
| =========                 |                                                 |
| \\      /  F ield         | foam-extend: Open Source CFD                    |
|  \\    /   O peration     | Version:     3.1                                |
|   \\  /    A nd           | Web:         http://www.extend-project.de       |
|    \\/     M anipulation  |                                                 |
\*---------------------------------------------------------------------------*/
FoamFile
{
    version     2.0;
    format      ascii;
    class       volVectorField;
    location    "1";
    object      D;
}
// * * * * * * * * * * * * * * * * * * * * * * * * * * * * * * * * * * * * * //

dimensions      [0 1 0 0 0 0 0];

internalField   nonuniform List<vector> 
256
(
(0.000670018 0.000402267 0.000764715)
(0.000266555 5.67221e-05 0.000205411)
(0.000230614 -0.000173097 -0.000346969)
(0.000563594 -0.00057742 -0.00100758)
(0.0028446 0.00170511 0.000776729)
(0.00234731 0.00036666 0.000263708)
(0.00224773 -0.000743259 -0.000434992)
(0.00251208 -0.00216407 -0.000990308)
(0.00560711 0.00257733 0.000739965)
(0.00510368 0.00056304 0.000250448)
(0.00496091 -0.00125954 -0.000338278)
(0.0051432 -0.00337293 -0.000854174)
(0.00889209 0.00316888 0.00061007)
(0.00842859 0.000617576 0.000234566)
(0.0082493 -0.00176411 -0.000217122)
(0.00831194 -0.00440917 -0.000610494)
(0.0124937 0.00346911 0.000461439)
(0.0120675 0.000546065 0.000210463)
(0.0118588 -0.00223097 -9.48028e-05)
(0.0118237 -0.00522989 -0.000359127)
(0.0162285 0.00354275 0.000323141)
(0.0158384 0.000384424 0.000185564)
(0.0156081 -0.00265193 9.91455e-06)
(0.015497 -0.00586445 -0.000137398)
(0.01995 0.00345494 0.000218727)
(0.0195895 0.000168518 0.000165235)
(0.0193463 -0.00301839 9.26651e-05)
(0.0191868 -0.0063397 3.45117e-05)
(0.0235719 0.00327338 0.000159156)
(0.0232155 -6.87149e-05 0.000152272)
(0.0229652 -0.00333018 0.000156797)
(0.0227945 -0.00669797 0.00014882)
(0.000766671 0.000392042 0.000392343)
(0.000389094 4.93989e-05 0.000103959)
(0.00036075 -0.000163691 -0.000216751)
(0.000670581 -0.000537252 -0.000586318)
(0.00309692 0.00164424 0.000476565)
(0.00254336 0.000325406 0.000147788)
(0.00245726 -0.000754553 -0.000296462)
(0.00280002 -0.00215802 -0.000661451)
(0.00587058 0.00253719 0.000489586)
(0.00536338 0.000512582 0.000158781)
(0.0052247 -0.00131895 -0.000247308)
(0.00541416 -0.00344025 -0.000600527)
(0.00912216 0.00313341 0.000432768)
(0.00865543 0.000567881 0.000162028)
(0.00847444 -0.00183296 -0.000163213)
(0.00853402 -0.00449102 -0.000448898)
(0.0126615 0.00344439 0.00035079)
(0.0122366 0.000505156 0.000157334)
(0.0120225 -0.00229531 -7.3716e-05)
(0.0119738 -0.0053083 -0.00027662)
(0.0163293 0.00352675 0.000269356)
(0.0159425 0.000353837 0.000149395)
(0.0157057 -0.00270346 5.48469e-06)
(0.0155781 -0.00592779 -0.000119887)
(0.0199938 0.00344502 0.00020639)
(0.0196392 0.000145958 0.000142667)
(0.0193909 -0.00305666 6.8296e-05)
(0.0192148 -0.00638676 3.23766e-06)
(0.0235825 0.00326761 0.000170825)
(0.0232324 -8.61745e-05 0.000140362)
(0.022979 -0.00335976 0.000113153)
(0.0227961 -0.00673458 8.3775e-05)
(0.000811852 0.000406869 0.000206436)
(0.0004183 5.17903e-05 5.08667e-05)
(0.000391765 -0.000168973 -0.000136087)
(0.000719943 -0.000554124 -0.000345327)
(0.00322237 0.00162188 0.000281446)
(0.00263054 0.000306434 7.91057e-05)
(0.00255109 -0.000759294 -0.000193552)
(0.0029422 -0.00216302 -0.000421814)
(0.00602592 0.00249637 0.00030929)
(0.00549034 0.000482317 9.54466e-05)
(0.00535524 -0.00133642 -0.000169285)
(0.0055786 -0.00344919 -0.000399659)
(0.00927306 0.00308154 0.000292981)
(0.00878849 0.00053174 0.000107233)
(0.00860774 -0.0018557 -0.000114894)
(0.00868546 -0.00449784 -0.000311214)
(0.0127887 0.00339278 0.000256812)
(0.0123532 0.000470044 0.000113809)
(0.012137 -0.00231812 -5.3093e-05)
(0.0120959 -0.00531357 -0.00020183)
(0.0164248 0.00348294 0.000216651)
(0.016033 0.000323925 0.000116922)
(0.0157933 -0.00272327 3.70305e-06)
(0.0156661 -0.00593181 -9.8116e-05)
(0.020061 0.003414 0.000184313)
(0.0197055 0.000122837 0.000118821)
(0.0194543 -0.00307312 4.89942e-05)
(0.0192741 -0.00639232 -1.53972e-05)
(0.023634 0.00325111 0.000165639)
(0.0232859 -0.000103094 0.000120863)
(0.0230296 -0.00337482 7.86439e-05)
(0.0228388 -0.00674539 3.6624e-05)
(0.000831101 0.000416291 0.000109959)
(0.000423369 5.35355e-05 2.41083e-05)
(0.00039702 -0.000172444 -8.47702e-05)
(0.000740464 -0.000567747 -0.000203192)
(0.00328365 0.0016156 0.00016425)
(0.00266773 0.000298957 4.15859e-05)
(0.00259098 -0.000760321 -0.000124332)
(0.0030104 -0.00216841 -0.000263789)
(0.00611039 0.0024729 0.000191355)
(0.00555441 0.000467014 5.64932e-05)
(0.00542151 -0.00133943 -0.000112175)
(0.00566889 -0.00344514 -0.000258048)
(0.00936496 0.00304598 0.000193168)
(0.00886594 0.000510809 7.01005e-05)
(0.00868608 -0.00186026 -7.75438e-05)
(0.00878024 -0.00448756 -0.000207561)
(0.0128762 0.00335288 0.000182112)
(0.0124315 0.000447335 8.09746e-05)
(0.0122151 -0.00232321 -3.59092e-05)
(0.0121838 -0.00530081 -0.000140473)
(0.0165014 0.00344607 0.000166453)
(0.0161048 0.000303026 8.90509e-05)
(0.0158643 -0.00272817 3.49583e-06)
(0.0157413 -0.00591971 -7.44633e-05)
(0.0201263 0.00338558 0.000152712)
(0.0197692 0.000105932 9.47125e-05)
(0.0195168 -0.00307782 3.49045e-05)
(0.0193364 -0.00638378 -2.12114e-05)
(0.0236926 0.00323309 0.00014409)
(0.0233447 -0.000115622 9.7828e-05)
(0.0230866 -0.00338021 5.36517e-05)
(0.0228924 -0.00674256 1.0474e-05)
(0.000839546 0.000421606 5.89113e-05)
(0.000422454 5.46768e-05 1.1082e-05)
(0.000395859 -0.000174494 -5.18474e-05)
(0.000749089 -0.000576142 -0.000118473)
(0.00331388 0.00161519 9.49679e-05)
(0.00268269 0.000296918 2.15954e-05)
(0.00260688 -0.000759581 -7.81975e-05)
(0.00304321 -0.00217184 -0.000161787)
(0.00615618 0.00246279 0.00011652)
(0.00558676 0.00046095 3.31729e-05)
(0.0054549 -0.00133779 -7.20407e-05)
(0.00571733 -0.00344066 -0.000162201)
(0.00942018 0.00302728 0.000124437)
(0.00891098 0.000500919 4.52469e-05)
(0.00873179 -0.00185843 -5.02214e-05)
(0.00883737 -0.00447715 -0.000133668)
(0.0129347 0.00332955 0.00012483)
(0.0124832 0.000435383 5.6192e-05)
(0.0122671 -0.00232157 -2.28454e-05)
(0.0122432 -0.00528752 -9.34136e-05)
(0.0165589 0.00342292 0.000121507)
(0.0161582 0.000291233 6.51174e-05)
(0.0159175 -0.00272682 3.57833e-06)
(0.0157985 -0.00590637 -5.27119e-05)
(0.0201808 0.00336651 0.000117481)
(0.0198218 9.59652e-05 7.14036e-05)
(0.0195689 -0.00307689 2.44698e-05)
(0.0193894 -0.00637261 -1.97627e-05)
(0.0237445 0.00321982 0.000114114)
(0.0233958 -0.000123195 7.41292e-05)
(0.0231365 -0.00338016 3.57042e-05)
(0.022941 -0.00673507 -1.58896e-06)
(0.000843454 0.000424629 3.11386e-05)
(0.000420587 5.54128e-05 4.92345e-06)
(0.000393711 -0.00017567 -3.04048e-05)
(0.000752851 -0.000581042 -6.69366e-05)
(0.00332902 0.00161679 5.33911e-05)
(0.00268834 0.000297114 1.09868e-05)
(0.00261276 -0.000758402 -4.6972e-05)
(0.00305913 -0.00217385 -9.52193e-05)
(0.00618108 0.00245986 6.84549e-05)
(0.00560307 0.000459565 1.89993e-05)
(0.00547158 -0.00133517 -4.38764e-05)
(0.00574314 -0.0034376 -9.72632e-05)
(0.00945302 0.00301945 7.65894e-05)
(0.00893704 0.00049744 2.80876e-05)
(0.00875817 -0.00185512 -3.06276e-05)
(0.00887097 -0.00446993 -8.15569e-05)
(0.0129726 0.00331839 8.06536e-05)
(0.0125163 0.000430404 3.68648e-05)
(0.0123003 -0.00231814 -1.34959e-05)
(0.0122815 -0.00527789 -5.82916e-05)
(0.0165992 0.00341095 8.2169e-05)
(0.0161954 0.000285892 4.43032e-05)
(0.0159547 -0.00272357 3.22749e-06)
(0.0158386 -0.00589613 -3.43379e-05)
(0.0202215 0.00335605 8.22497e-05)
(0.0198607 9.12828e-05 4.95021e-05)
(0.0196075 -0.00307399 1.62793e-05)
(0.0194289 -0.00636318 -1.5018e-05)
(0.0237844 0.00321208 8.11995e-05)
(0.0234345 -0.000126752 5.13633e-05)
(0.0231745 -0.00337788 2.25694e-05)
(0.0229786 -0.00672754 -5.26194e-06)
(0.000845316 0.000426287 1.51017e-05)
(0.000419133 5.58573e-05 2.03089e-06)
(0.000392055 -0.000176304 -1.58336e-05)
(0.000754527 -0.000583716 -3.39804e-05)
(0.00333651 0.00161856 2.70706e-05)
(0.00269031 0.000297895 5.15406e-06)
(0.00261474 -0.000757414 -2.49019e-05)
(0.00306674 -0.00217495 -4.97751e-05)
(0.00619422 0.00245987 3.58648e-05)
(0.00561108 0.000459953 9.81249e-06)
(0.00547968 -0.001333 -2.34571e-05)
(0.00575644 -0.00343586 -5.15058e-05)
(0.00947157 0.00301707 4.14939e-05)
(0.00895144 0.000496883 1.53701e-05)
(0.00877266 -0.00185228 -1.63373e-05)
(0.00888964 -0.00446569 -4.36784e-05)
(0.0129954 0.00331407 4.517e-05)
(0.012536 0.000428988 2.09201e-05)
(0.0123201 -0.00231509 -6.95321e-06)
(0.0123042 -0.00527202 -3.16645e-05)
(0.0166247 0.00340583 4.73894e-05)
(0.0162188 0.000284112 2.57083e-05)
(0.0159781 -0.00272056 2.25771e-06)
(0.0158636 -0.00588959 -1.91631e-05)
(0.0202482 0.00335129 4.84362e-05)
(0.0198861 8.96704e-05 2.9025e-05)
(0.0196326 -0.00307116 9.3527e-06)
(0.0194547 -0.00635677 -9.15275e-06)
(0.0238111 0.0032084 4.82155e-05)
(0.02346 -0.000127911 3.00413e-05)
(0.0231995 -0.0033754 1.24494e-05)
(0.0230036 -0.00672195 -4.51472e-06)
(0.000846076 0.000427027 4.50804e-06)
(0.000418387 5.60682e-05 5.47777e-07)
(0.000391207 -0.000176579 -4.89935e-06)
(0.000755177 -0.000584892 -1.03793e-05)
(0.00333962 0.00161963 8.27288e-06)
(0.0026909 0.00029845 1.50982e-06)
(0.0026153 -0.000756876 -7.77945e-06)
(0.00306983 -0.00217544 -1.54403e-05)
(0.00619991 0.00246041 1.11553e-05)
(0.00561439 0.000460501 3.03451e-06)
(0.00548299 -0.00133182 -7.35715e-06)
(0.0057621 -0.00343507 -1.60846e-05)
(0.00947996 0.00301669 1.31348e-05)
(0.00895786 0.000497102 4.89727e-06)
(0.00877909 -0.00185072 -5.1124e-06)
(0.00889797 -0.00446376 -1.37167e-05)
(0.0130061 0.00331284 1.45404e-05)
(0.0125452 0.000428841 6.7851e-06)
(0.0123293 -0.00231337 -2.12632e-06)
(0.0123148 -0.0052693 -1.00124e-05)
(0.016637 0.00340413 1.54742e-05)
(0.0162301 0.000283767 8.42551e-06)
(0.0159893 -0.00271883 8.10756e-07)
(0.0158756 -0.00588645 -6.13921e-06)
(0.0202613 0.00334959 1.59702e-05)
(0.0198985 8.93436e-05 9.55545e-06)
(0.0196448 -0.00306949 3.05457e-06)
(0.0194673 -0.00635358 -3.05485e-06)
(0.0238242 0.003207 1.59508e-05)
(0.0234726 -0.000128087 9.87133e-06)
(0.0232118 -0.00337388 3.9753e-06)
(0.023016 -0.00671903 -1.70447e-06)
)
;

boundaryField
{
    interface
    {
        type            tractionDisplacement;
        gradient        nonuniform List<vector> 
192
(
(0.0680502 0.0811502 0.00388631)
(0.0327002 0.0839862 0.0100637)
(0.0364782 0.111949 0.010118)
(0.0303155 0.128602 0.0077428)
(0.0258519 0.139954 0.00468713)
(0.0212942 0.144725 0.00160051)
(0.0179497 0.144817 -0.000774416)
(0.0163903 0.143334 -0.001923)
(0.0691906 0.0883289 0.00235949)
(0.0373306 0.0859054 0.00660103)
(0.0364358 0.110685 0.00753709)
(0.0305832 0.126526 0.00667275)
(0.0256929 0.137348 0.00510573)
(0.0211956 0.142379 0.00326071)
(0.017917 0.1432 0.00171147)
(0.0164621 0.142922 0.000919119)
(0.0726368 0.0922977 0.00117998)
(0.0391508 0.0876115 0.00349752)
(0.0377419 0.11048 0.00443143)
(0.0312402 0.125585 0.00451761)
(0.0258163 0.135948 0.00395301)
(0.0210186 0.141024 0.00311689)
(0.0175974 0.14223 0.00233363)
(0.0159472 0.142705 0.00190023)
(0.0749216 0.0943785 0.000541078)
(0.040556 0.088601 0.00179023)
(0.0389914 0.110804 0.00246998)
(0.0320784 0.125312 0.00280437)
(0.0262659 0.13536 0.00277235)
(0.0211763 0.140374 0.00252505)
(0.0175681 0.141731 0.00222506)
(0.0157466 0.142564 0.00203785)
(0.0762669 0.0954638 0.000230151)
(0.0415133 0.0891858 0.000894479)
(0.0398943 0.111148 0.00133996)
(0.0327545 0.125365 0.0016723)
(0.026703 0.135215 0.00182792)
(0.0214036 0.140143 0.00184472)
(0.0176442 0.141523 0.00178435)
(0.0156967 0.14249 0.00172905)
(0.077039 0.0960323 9.04188e-05)
(0.042123 0.0895212 0.000438807)
(0.0404939 0.111411 0.00071039)
(0.0332313 0.125506 0.000961084)
(0.0270395 0.135251 0.00113564)
(0.0216084 0.140108 0.00123093)
(0.0177485 0.141461 0.00126206)
(0.0157328 0.142458 0.00126683)
(0.0774601 0.0963231 3.17097e-05)
(0.0424776 0.0897028 0.00019999)
(0.0408535 0.111581 0.000344967)
(0.0335276 0.125632 0.000495592)
(0.0272588 0.135326 0.000617536)
(0.0217524 0.140138 0.000699966)
(0.0178338 0.141458 0.000742472)
(0.0157845 0.142449 0.000760903)
(0.0776457 0.096447 7.53747e-06)
(0.0426392 0.0897827 5.77114e-05)
(0.0410203 0.111663 0.000103158)
(0.0336678 0.125701 0.000152982)
(0.027365 0.135376 0.000195764)
(0.0218247 0.140166 0.000226639)
(0.017879 0.141467 0.00024413)
(0.0158149 0.142447 0.000252638)
(-0.00643026 0.0334083 0.0365166)
(-0.0157376 -0.00265235 0.00730626)
(-0.0134425 -0.0011207 0.0108592)
(-0.0106404 -0.00443811 0.00672427)
(-0.00629536 -0.00486837 0.00445035)
(-0.00219741 -0.0045376 0.00225477)
(0.00104421 -0.00333445 0.000820707)
(0.0031415 -0.00127287 -0.000434425)
(-0.0136251 0.0125182 0.00825071)
(-0.0261249 0.00130463 0.00350695)
(-0.0215357 0.00258071 0.00307584)
(-0.0164201 0.0014475 0.00204745)
(-0.0103379 0.000648418 0.00145287)
(-0.00492827 2.42137e-07 0.000973466)
(-0.000604557 -0.000279679 0.000682596)
(0.00243503 0.000113413 -2.75559e-05)
(-0.0149367 -0.0184204 -0.0101178)
(-0.0264371 0.0060578 -0.000550222)
(-0.0216277 0.00667485 -0.00175197)
(-0.016076 0.00774588 -0.000881692)
(-0.00991581 0.00651039 -0.000288032)
(-0.00453317 0.0048783 0.000404601)
(-0.000286938 0.00328716 0.00101311)
(0.00255576 0.00199799 0.00199277)
(-0.0106312 -0.0484248 -0.0346487)
(-0.01612 0.00858815 -0.00467292)
(-0.0139713 0.0091562 -0.00972007)
(-0.00985296 0.0127309 -0.00560137)
(-0.00515758 0.0112681 -0.00333853)
(-0.00107496 0.00889032 -0.000958693)
(0.00186657 0.00609357 0.000822733)
(0.00341226 0.00329417 0.00239542)
(0.0513587 -0.0916494 -0.00474119)
(0.019015 -0.089844 -0.0112615)
(0.0169777 -0.121793 -0.0120097)
(0.0072971 -0.136683 -0.00902105)
(0.000609014 -0.145966 -0.00547395)
(-0.00442799 -0.148537 -0.00198386)
(-0.00713807 -0.147101 0.000653731)
(-0.00751455 -0.144312 0.00200137)
(0.0500562 -0.101555 -0.00331718)
(0.0232588 -0.0939871 -0.00786905)
(0.0168412 -0.119924 -0.00861309)
(0.00763628 -0.134194 -0.00709931)
(0.000611072 -0.142947 -0.00508205)
(-0.00442758 -0.145994 -0.00299211)
(-0.00718957 -0.145444 -0.00137923)
(-0.00750642 -0.143877 -0.000519343)
(0.0521873 -0.108049 -0.00180597)
(0.0246543 -0.0965185 -0.00431102)
(0.018211 -0.119637 -0.00513928)
(0.00853669 -0.133091 -0.00481728)
(0.00103462 -0.141371 -0.00391302)
(-0.00436858 -0.144529 -0.00287329)
(-0.00740965 -0.144406 -0.00198785)
(-0.00810882 -0.143447 -0.0014386)
(0.0537998 -0.111642 -0.00091194)
(0.0258363 -0.0980133 -0.00225892)
(0.0194071 -0.120105 -0.00289076)
(0.0094379 -0.132821 -0.00299156)
(0.0015702 -0.140753 -0.00273633)
(-0.00415133 -0.143845 -0.00233017)
(-0.0074472 -0.143851 -0.00192785)
(-0.00839959 -0.143157 -0.00163441)
(0.0547903 -0.11356 -0.000446556)
(0.0266735 -0.098913 -0.00115732)
(0.0202451 -0.120604 -0.00158194)
(0.0100953 -0.132932 -0.00178516)
(0.00199832 -0.140621 -0.00180242)
(-0.0039475 -0.1436 -0.00170388)
(-0.00742871 -0.143599 -0.00155564)
(-0.00854581 -0.142982 -0.00141055)
(0.0553683 -0.114574 -0.000214029)
(0.0272156 -0.0994369 -0.000582108)
(0.0207864 -0.120987 -0.00084393)
(0.0105237 -0.133135 -0.00102381)
(0.00228609 -0.140679 -0.00111601)
(-0.00379872 -0.143557 -0.00113454)
(-0.00739446 -0.143506 -0.00110094)
(-0.00859466 -0.142889 -0.00103944)
(0.055684 -0.115093 -9.53043e-05)
(0.027533 -0.0997233 -0.000270767)
(0.0211046 -0.121233 -0.000411345)
(0.010776 -0.133306 -0.000526347)
(0.00245718 -0.140772 -0.000604624)
(-0.00370673 -0.143582 -0.000643455)
(-0.00736608 -0.143482 -0.000646744)
(-0.00860526 -0.142846 -0.000625717)
(0.0558229 -0.115313 -2.70869e-05)
(0.0276782 -0.0998498 -7.89739e-05)
(0.0212507 -0.121352 -0.000123168)
(0.0108917 -0.133398 -0.000162127)
(0.00253556 -0.140831 -0.000191245)
(-0.00366385 -0.143608 -0.000208043)
(-0.00735102 -0.143481 -0.000212398)
(-0.00860755 -0.142828 -0.000208137)
(0.142458 -0.00798533 -0.000228793)
(0.142595 -0.0079307 0.000145016)
(0.142689 -0.00736628 0.000123017)
(0.1427 -0.007002 0.000101977)
(0.142674 -0.00677509 1.413e-05)
(0.14265 -0.00666983 -4.70679e-05)
(0.142637 -0.00663001 -5.76315e-05)
(0.14263 -0.00662331 -2.45495e-05)
(0.135883 -0.00768132 0.000711783)
(0.13643 -0.00767152 0.000494686)
(0.13662 -0.00755286 0.000251763)
(0.136606 -0.00742457 8.98405e-05)
(0.136494 -0.00733118 -2.35181e-05)
(0.136383 -0.00728055 -7.46754e-05)
(0.136306 -0.00725775 -7.02423e-05)
(0.13627 -0.00724962 -2.77973e-05)
(0.135228 -0.0112984 0.00180554)
(0.135769 -0.0110896 0.000819575)
(0.135861 -0.0111886 0.000290433)
(0.135763 -0.0112875 -3.44291e-05)
(0.135594 -0.0113666 -0.000165644)
(0.135445 -0.011418 -0.000182277)
(0.135346 -0.0114481 -0.00013196)
(0.135299 -0.0114609 -4.75561e-05)
(0.140926 -0.0126442 0.00256242)
(0.141025 -0.0122972 0.000932983)
(0.140862 -0.012761 0.000207527)
(0.140674 -0.0130832 -0.000209446)
(0.140502 -0.0133094 -0.000324791)
(0.140383 -0.0134336 -0.000294549)
(0.140313 -0.0134963 -0.000194583)
(0.140282 -0.013521 -6.73633e-05)
)
;
        traction        nonuniform List<vector> 
192
(
(77.2862 -6.61811 -3.55316)
(78.2928 -6.4742 -5.59173)
(78.6458 -8.43363 -6.07158)
(79.0121 -9.37733 -5.96664)
(79.3268 -9.85619 -5.61596)
(79.4358 -9.65092 -5.07392)
(78.8723 -8.66879 -4.32592)
(76.0161 -6.76807 -3.25184)
(82.1391 -7.87254 -2.39946)
(83.7664 -7.31029 -3.79698)
(84.8051 -9.14505 -4.15615)
(85.5596 -10.0695 -4.10145)
(85.9404 -10.4501 -3.84797)
(85.6975 -10.0656 -3.43311)
(84.0507 -8.7195 -2.86289)
(78.6036 -6.26918 -2.11477)
(85.0917 -8.59123 -1.6134)
(86.7323 -7.7762 -2.51531)
(87.9158 -9.51233 -2.75435)
(88.7715 -10.3718 -2.74301)
(89.1088 -10.6482 -2.58261)
(88.582 -10.1199 -2.30711)
(86.2497 -8.55536 -1.92426)
(79.4269 -5.86987 -1.43642)
(87.1159 -9.013 -1.11803)
(88.701 -8.05115 -1.72533)
(89.8919 -9.76147 -1.8821)
(90.7479 -10.5576 -1.88035)
(91.0044 -10.7544 -1.78298)
(90.2551 -10.1192 -1.60624)
(87.4767 -8.41144 -1.3548)
(79.8125 -5.5898 -1.02749)
(88.5354 -9.26907 -0.772499)
(90.0785 -8.22469 -1.18393)
(91.2462 -9.93005 -1.2859)
(92.0714 -10.6884 -1.28497)
(92.2479 -10.8296 -1.22468)
(91.3312 -10.1177 -1.11234)
(88.2495 -8.30921 -0.948449)
(80.0188 -5.39309 -0.727202)
(89.5069 -9.42591 -0.508891)
(91.0238 -8.33406 -0.776487)
(92.166 -10.0412 -0.840327)
(92.9576 -10.7789 -0.838904)
(93.0691 -10.884 -0.80184)
(92.0332 -10.1197 -0.732461)
(88.7473 -8.24122 -0.629207)
(80.1363 -5.25928 -0.485271)
(90.1181 -9.51751 -0.288853)
(91.6211 -8.39904 -0.439375)
(92.7445 -10.1093 -0.474273)
(93.5102 -10.8361 -0.473071)
(93.5768 -10.9198 -0.452877)
(92.4636 -10.1225 -0.415011)
(89.0491 -8.19885 -0.356797)
(80.2014 -5.17665 -0.27238)
(90.4041 -9.55795 -0.0929879)
(91.8979 -8.42742 -0.141128)
(93.0093 -10.1398 -0.1521)
(93.7613 -10.8621 -0.151679)
(93.8059 -10.9358 -0.145339)
(92.6558 -10.1215 -0.133364)
(89.1694 -8.17179 -0.114134)
(80.1841 -5.1341 -0.0850315)
(5.31005 -1.62167 57.3525)
(8.54742 0.598583 53.6968)
(9.33349 0.349949 51.4741)
(9.54692 0.398504 50.4518)
(9.50543 0.386019 50.1627)
(9.38312 0.439781 50.4159)
(9.26563 0.581107 51.1319)
(9.4122 0.778769 52.154)
(4.76253 -0.362705 53.6805)
(7.86629 0.303297 51.946)
(8.3722 0.101443 50.518)
(8.40146 -0.0249905 49.6998)
(8.25678 -0.12476 49.3556)
(8.09607 -0.16469 49.3972)
(7.99386 -0.125779 49.7553)
(8.27736 -0.049558 50.2046)
(4.6053 1.09329 49.9543)
(7.7231 -0.111115 49.0577)
(8.28053 -0.283373 48.0155)
(8.31038 -0.545873 47.3178)
(8.15409 -0.676093 46.9747)
(7.97234 -0.737337 46.9593)
(7.83409 -0.721366 47.2714)
(8.05991 -0.622443 47.8614)
(4.6071 2.27953 44.7378)
(7.63667 -0.238005 43.4655)
(8.37405 -0.522736 42.0918)
(8.48334 -0.970943 41.2569)
(8.37882 -1.169 40.9081)
(8.21579 -1.27536 40.9857)
(8.06091 -1.32405 41.536)
(8.20363 -1.31777 42.9176)
(-30.1887 3.30258 2.50712)
(-26.6478 3.1019 3.98856)
(-23.9542 3.41152 4.30404)
(-22.3141 3.18723 4.308)
(-21.3791 2.87719 4.23987)
(-20.9938 2.44481 4.12823)
(-20.7356 1.63353 3.98267)
(-20.3637 -0.24638 3.65853)
(-30.3412 3.24034 1.26727)
(-28.9779 2.98506 2.11409)
(-27.353 3.38619 2.25836)
(-25.9989 3.31789 2.21378)
(-24.896 3.04712 2.14396)
(-24.0479 2.58138 2.06678)
(-22.876 1.61067 1.99199)
(-20.5493 -0.811988 1.91675)
(-30.0494 3.23347 0.817456)
(-29.2424 2.85951 1.4165)
(-27.979 3.25406 1.55402)
(-26.692 3.2329 1.54925)
(-25.4826 2.97417 1.50636)
(-24.3765 2.49077 1.45361)
(-22.7306 1.44307 1.39769)
(-19.606 -1.18845 1.34497)
(-29.4733 3.22924 0.613526)
(-28.7515 2.77847 1.06977)
(-27.5513 3.13413 1.19731)
(-26.2522 3.09535 1.21327)
(-24.9648 2.82102 1.19036)
(-23.7106 2.31399 1.15137)
(-21.8029 1.20861 1.10227)
(-18.2802 -1.55574 1.0471)
(-28.9456 3.21204 0.453097)
(-28.2359 2.72539 0.784451)
(-27.0409 3.04988 0.883895)
(-25.7166 2.98756 0.902865)
(-24.3737 2.69236 0.890572)
(-23.0268 2.16281 0.862764)
(-20.954 1.01416 0.82414)
(-17.1682 -1.84663 0.77859)
(-28.5254 3.18865 0.312725)
(-27.8179 2.68657 0.536901)
(-26.6132 2.99012 0.605847)
(-25.2655 2.90884 0.621036)
(-23.8843 2.59594 0.614337)
(-22.4783 2.04861 0.595943)
(-20.2993 0.869066 0.568621)
(-16.3384 -2.05866 0.534235)
(-28.2351 3.169 0.18283)
(-27.5243 2.65994 0.3122)
(-26.3095 2.95022 0.352033)
(-24.9449 2.85617 0.361256)
(-23.5397 2.53116 0.357796)
(-22.0972 1.97163 0.347741)
(-19.8518 0.770322 0.331086)
(-15.7915 -2.19716 0.303513)
(-28.093 3.15818 0.059674)
(-27.3806 2.64624 0.101655)
(-26.1626 2.93071 0.114468)
(-24.7905 2.83089 0.117455)
(-23.3747 2.5006 0.11636)
(-21.911 1.93423 0.113356)
(-19.6271 0.715505 0.10761)
(-15.5779 -2.25711 0.0946983)
(3.34565 -48.7605 -0.519912)
(3.565 -46.4672 -0.459601)
(4.04712 -44.7366 -0.331047)
(4.4845 -43.3804 -0.232349)
(4.82779 -42.3679 -0.160815)
(5.07737 -41.6493 -0.108417)
(5.23858 -41.1995 -0.0724788)
(5.30436 -41.0612 -0.0293364)
(2.17341 -47.4228 0.462884)
(1.98712 -46.0275 0.273818)
(2.27 -44.7285 0.221596)
(2.57576 -43.6403 0.181271)
(2.8275 -42.8096 0.13813)
(3.01538 -42.2096 0.0962683)
(3.14352 -41.8124 0.0551509)
(3.21914 -41.5997 0.0172716)
(1.87559 -46.1593 0.761488)
(1.6689 -45.0439 0.556767)
(1.90361 -43.994 0.44316)
(2.17016 -43.0889 0.354541)
(2.39467 -42.379 0.268147)
(2.5637 -41.8574 0.187315)
(2.67731 -41.5093 0.11212)
(2.73911 -41.3158 0.0378883)
(2.02609 -42.272 1.0591)
(2.01594 -40.7368 0.783158)
(2.31876 -39.568 0.597773)
(2.62541 -38.5687 0.469654)
(2.87499 -37.7735 0.352753)
(3.05894 -37.1866 0.244964)
(3.17915 -36.799 0.145205)
(3.23656 -36.6009 0.0485247)
)
;
        pressure        uniform 0;
        value           nonuniform List<vector> 
192
(
(0.00152065 0.00141664 0.000813293)
(0.00325335 0.00275494 0.000902525)
(0.00606309 0.00397669 0.00086644)
(0.00927104 0.00477641 0.000706855)
(0.0128168 0.00521854 0.000520028)
(0.0164946 0.00535181 0.000343148)
(0.0201744 0.00526516 0.000209047)
(0.0237768 0.00506506 0.000135119)
(0.00163155 0.00149615 0.000421836)
(0.00356356 0.00271805 0.000559078)
(0.00632603 0.00392075 0.000583799)
(0.00950445 0.00471499 0.000516177)
(0.0129827 0.00516123 0.000414612)
(0.0165942 0.00530649 0.000310115)
(0.0202178 0.00523502 0.000227783)
(0.0237882 0.00505413 0.000182314)
(0.00171981 0.00156059 0.000221186)
(0.00371176 0.00271703 0.000325165)
(0.00649769 0.00387737 0.000364683)
(0.00966357 0.00465136 0.000349451)
(0.0131114 0.00509213 0.000306225)
(0.0166875 0.00524574 0.000255612)
(0.0202809 0.00519188 0.000213484)
(0.0238333 0.00503493 0.000189392)
(0.00176762 0.00159602 0.000116722)
(0.0037906 0.00272311 0.000186628)
(0.00659779 0.00385795 0.00022223)
(0.00976594 0.00461239 0.000228223)
(0.0132045 0.00504489 0.000216767)
(0.0167662 0.00520075 0.000198016)
(0.0203459 0.00515721 0.000180525)
(0.0238894 0.00501514 0.000169563)
(0.00179288 0.0016149 6.17882e-05)
(0.0038328 0.00273001 0.000106149)
(0.00665486 0.00385215 0.000133269)
(0.00982961 0.00459434 0.000145341)
(0.0132685 0.00501974 0.000147679)
(0.0168264 0.00517472 0.000144566)
(0.0204014 0.00513554 0.000139785)
(0.0239407 0.00500095 0.000135727)
(0.00180644 0.00162503 3.22688e-05)
(0.00385555 0.00273581 5.88762e-05)
(0.00668726 0.00385251 7.73347e-05)
(0.00986841 0.00458828 8.86029e-05)
(0.0133106 0.00500902 9.48492e-05)
(0.0168693 0.00516231 9.75557e-05)
(0.0204434 0.00512431 9.80254e-05)
(0.0239811 0.0049928 9.70348e-05)
(0.00181357 0.00163033 1.54981e-05)
(0.00386748 0.00273985 2.95705e-05)
(0.00670489 0.00385463 4.01769e-05)
(0.00989067 0.00458747 4.76888e-05)
(0.0133361 0.00500565 5.28892e-05)
(0.0168966 0.00515755 5.61389e-05)
(0.0204711 0.00511952 5.77171e-05)
(0.0240084 0.00498901 5.77268e-05)
(0.00181665 0.00163262 4.60226e-06)
(0.00387261 0.00274192 8.99427e-06)
(0.00671267 0.00385619 1.24448e-05)
(0.0099008 0.00458795 1.50471e-05)
(0.0133481 0.00500504 1.69874e-05)
(0.0169098 0.0051562 1.83072e-05)
(0.0204848 0.00511794 1.90218e-05)
(0.0240219 0.00498758 1.91088e-05)
(0.00058964 0.000819871 0.00122117)
(0.00264788 0.00167196 0.000868057)
(0.00543908 0.00256332 0.000875705)
(0.00875909 0.00311341 0.000694123)
(0.012415 0.00340826 0.000517068)
(0.016201 0.00348603 0.000351326)
(0.019963 0.00341326 0.000228986)
(0.0236112 0.00325747 0.000153726)
(9.62408e-05 0.000213199 0.000308545)
(0.00202075 0.000382968 0.000307545)
(0.00483448 0.000595299 0.000288896)
(0.00822334 0.00063567 0.000260159)
(0.0119383 0.00055417 0.000228624)
(0.0157768 0.000384427 0.000197732)
(0.0195819 0.000165022 0.000173768)
(0.023246 -6.72972e-05 0.000151928)
(4.39054e-05 -0.000403352 -0.000473441)
(0.00191727 -0.000667536 -0.00044187)
(0.00469056 -0.00117611 -0.000360178)
(0.00804835 -0.00166728 -0.000228143)
(0.0117349 -0.00214959 -9.84032e-05)
(0.0155514 -0.00259095 1.49721e-05)
(0.0193427 -0.0029773 0.000105329)
(0.0229971 -0.0033052 0.000181707)
(0.000430704 -0.00118273 -0.00144069)
(0.00231058 -0.00205672 -0.00104872)
(0.00496856 -0.00325848 -0.000975675)
(0.00818878 -0.00425003 -0.000680511)
(0.0117592 -0.00508903 -0.000400859)
(0.0154836 -0.00575332 -0.000149382)
(0.0192101 -0.00626353 4.47959e-05)
(0.0228371 -0.0066568 0.000178763)
(0.00120558 -0.00172304 -0.00106685)
(0.00274976 -0.00328712 -0.00113108)
(0.00535543 -0.00489534 -0.0010043)
(0.00840315 -0.00611771 -0.000723257)
(0.0118313 -0.00705446 -0.000427552)
(0.0154417 -0.00772116 -0.000162196)
(0.0190976 -0.00817846 4.26833e-05)
(0.0227005 -0.00850188 0.000173837)
(0.00129628 -0.00180669 -0.000627783)
(0.00309075 -0.00333286 -0.000759814)
(0.00562467 -0.00493931 -0.00070819)
(0.00862947 -0.00616844 -0.000537639)
(0.0119814 -0.00709514 -0.000340145)
(0.0155228 -0.00775272 -0.000157289)
(0.0191249 -0.00820482 -1.40027e-05)
(0.0227022 -0.00853304 7.72832e-05)
(0.00137228 -0.00190474 -0.000367902)
(0.00325038 -0.0033695 -0.000475702)
(0.00580623 -0.00494466 -0.0004639)
(0.00879217 -0.00616147 -0.00037143)
(0.0121088 -0.00708071 -0.000250743)
(0.0156115 -0.00773843 -0.000134032)
(0.0191814 -0.0081974 -4.02453e-05)
(0.0227375 -0.00853848 1.86415e-05)
(0.00141296 -0.00196327 -0.000214591)
(0.00333336 -0.00339358 -0.000292026)
(0.00591148 -0.00494645 -0.000294183)
(0.00889821 -0.00614782 -0.000244955)
(0.0122034 -0.00706022 -0.000174678)
(0.0156894 -0.00771777 -0.00010359)
(0.0192433 -0.00818192 -4.53094e-05)
(0.0227874 -0.00853202 -9.95607e-06)
(0.00143397 -0.00199564 -0.000124055)
(0.00337663 -0.00340826 -0.000176254)
(0.0059704 -0.00494821 -0.000181975)
(0.00896356 -0.0061388 -0.000155983)
(0.0122682 -0.00704528 -0.000115944)
(0.0157492 -0.00770137 -7.40104e-05)
(0.0192965 -0.0081676 -3.92082e-05)
(0.0228342 -0.00852235 -1.92209e-05)
(0.00144495 -0.00201322 -6.96119e-05)
(0.00339933 -0.00341681 -0.000102496)
(0.00600297 -0.00494994 -0.000107812)
(0.00900252 -0.00613412 -9.43545e-05)
(0.0123101 -0.00703637 -7.22418e-05)
(0.0157911 -0.0076906 -4.85197e-05)
(0.0193365 -0.008157 -2.87797e-05)
(0.0228712 -0.00851365 -1.8255e-05)
(0.00145058 -0.00202238 -3.51717e-05)
(0.00341091 -0.00342149 -5.31597e-05)
(0.00602025 -0.00495127 -5.66476e-05)
(0.00902434 -0.00613201 -5.02577e-05)
(0.0123349 -0.00703167 -3.92223e-05)
(0.0158173 -0.00768436 -2.72063e-05)
(0.0193626 -0.00815029 -1.72371e-05)
(0.0228961 -0.00850752 -1.23362e-05)
(0.00145296 -0.0020263 -1.07179e-05)
(0.00341581 -0.00342356 -1.64275e-05)
(0.00602774 -0.00495197 -1.76242e-05)
(0.00903412 -0.00613123 -1.57433e-05)
(0.0123464 -0.00702968 -1.24029e-05)
(0.0158298 -0.00768155 -8.73975e-06)
(0.0193754 -0.00814708 -5.70983e-06)
(0.0229084 -0.00850438 -4.30618e-06)
(0.0253527 0.00317356 0.000156296)
(0.0253649 0.00316847 0.000172638)
(0.0254176 0.00315903 0.000167177)
(0.0254764 0.00314557 0.000145364)
(0.0255279 0.00313513 0.000114291)
(0.0255675 0.00312871 8.06112e-05)
(0.025594 0.00312553 4.74951e-05)
(0.0256071 0.00312421 1.56439e-05)
(0.0249141 -0.000164731 0.00016117)
(0.0249378 -0.000182069 0.000146545)
(0.0249936 -0.000197505 0.00012401)
(0.0250523 -0.000208429 9.8951e-05)
(0.025102 -0.000214835 7.38352e-05)
(0.0251393 -0.000217758 5.04298e-05)
(0.0251638 -0.000218633 2.91633e-05)
(0.0251759 -0.000218707 9.52387e-06)
(0.0246555 -0.00347141 0.000179366)
(0.0246762 -0.00349838 0.000123397)
(0.0247278 -0.00351468 8.22744e-05)
(0.0247836 -0.0035213 5.32214e-05)
(0.0248315 -0.00352224 3.36336e-05)
(0.0248676 -0.00352061 2.02909e-05)
(0.0248913 -0.00351851 1.07999e-05)
(0.024903 -0.00351714 3.38085e-06)
(0.024556 -0.00685603 0.00018085)
(0.0245589 -0.0068883 9.54372e-05)
(0.0245996 -0.0069049 3.92181e-05)
(0.0246508 -0.0069061 7.85594e-06)
(0.0246973 -0.00690144 -5.64884e-06)
(0.0247334 -0.00689546 -8.94381e-06)
(0.0247576 -0.00689066 -6.94701e-06)
(0.0247695 -0.00688804 -2.54651e-06)
)
;
    }
    symmetry
    {
        type            symmetryPlane;
    }
    bottom
    {
        type            fixedDisplacement;
        value           uniform (0 0 0);
    }
}


// ************************************************************************* //
