/*--------------------------------*- C++ -*----------------------------------*\
| =========                 |                                                 |
| \\      /  F ield         | foam-extend: Open Source CFD                    |
|  \\    /   O peration     | Version:     3.1                                |
|   \\  /    A nd           | Web:         http://www.extend-project.de       |
|    \\/     M anipulation  |                                                 |
\*---------------------------------------------------------------------------*/
FoamFile
{
    version     2.0;
    format      ascii;
    class       volSymmTensorField;
    location    "1";
    object      epsilon;
}
// * * * * * * * * * * * * * * * * * * * * * * * * * * * * * * * * * * * * * //

dimensions      [0 0 0 0 0 0 0];

internalField   nonuniform List<symmTensor> 
256
(
(-0.0172331 0.0218972 -0.00105642 0.0626767 0.0126863 -0.0073787)
(-0.00556852 0.0181518 -0.00299506 0.0129425 0.00392085 -0.002795)
(0.00304662 0.0168272 -0.00318135 -0.0207097 -0.00691688 0.00289179)
(0.0130581 0.0179946 -0.00127023 -0.0673152 -0.0164572 0.00737019)
(-0.0291712 0.00888778 -0.00127192 0.0400767 -0.00203374 -0.0116975)
(-0.0111849 0.0237986 -0.00465292 0.0140595 -0.000832888 -0.00453577)
(0.00602521 0.0232135 -0.00495952 -0.0149704 0.00151174 0.00440765)
(0.0232311 0.0082227 -0.00165537 -0.0401476 0.00296977 0.0115738)
(-0.0232151 0.010911 -0.000607098 0.0363681 -0.000621485 -0.00803832)
(-0.0106792 0.0230141 -0.00301159 0.0121477 -0.000117405 -0.00326576)
(0.0048898 0.0230313 -0.0031075 -0.0127264 0.000571599 0.00270861)
(0.0174004 0.0110363 -0.00072072 -0.0366446 0.00122858 0.00765624)
(-0.0186448 0.00952296 -0.000549334 0.0259863 -0.00169316 -0.00607377)
(-0.00874458 0.0208815 -0.00225116 0.00893974 -0.000398296 -0.00258919)
(0.00351446 0.0209537 -0.00232656 -0.0093818 0.000805881 0.00181769)
(0.0133201 0.00966831 -0.000691323 -0.0259968 0.00225609 0.00546395)
(-0.0137419 0.00821756 -0.000366353 0.0172523 -0.00166743 -0.00374982)
(-0.00679612 0.0177324 -0.00155984 0.00601679 -0.000410069 -0.00185001)
(0.00229893 0.0177872 -0.00163632 -0.00656681 0.000622993 0.000724012)
(0.00902599 0.00834603 -0.000496012 -0.0173635 0.00197368 0.00277403)
(-0.00983268 0.00628213 -0.00030786 0.00982031 -0.00148575 -0.0018908)
(-0.00518546 0.01384 -0.00109592 0.00355467 -0.000400299 -0.00127189)
(0.00132964 0.0138976 -0.00116394 -0.00422419 0.000459212 -0.000179022)
(0.0057128 0.00641812 -0.000413221 -0.0101078 0.00160395 0.000577515)
(-0.00718023 0.00400811 -0.000325537 0.00473012 -0.00109574 -0.000466948)
(-0.00406534 0.00949067 -0.000765222 0.00177063 -0.000357284 -0.00082714)
(0.000695539 0.00955861 -0.000801791 -0.00251368 0.000287697 -0.000937448)
(0.00358875 0.00420582 -0.000365986 -0.00510442 0.0010697 -0.00119171)
(-0.00676583 0.0017163 -0.000326893 0.00245211 -0.000408484 0.000411463)
(-0.00437028 0.00464292 -0.000423474 0.000952457 -0.000144447 -0.000584757)
(0.00113823 0.00462255 -0.000442107 -0.00154359 8.29828e-05 -0.00156666)
(0.00346402 0.00171466 -0.000313819 -0.00281327 0.000340619 -0.00248929)
(-0.0173626 0.0258698 -0.000834196 0.0595975 0.00845032 -0.00464965)
(-0.00512192 0.0231857 -0.00253009 0.0114496 0.00232479 -0.00159541)
(0.00284424 0.0221207 -0.00276296 -0.0188279 -0.00525056 0.0022508)
(0.0131042 0.0222096 -0.00114099 -0.0641083 -0.0121495 0.00550936)
(-0.0293542 0.00994025 -0.00142333 0.0427452 0.000940586 -0.00888027)
(-0.0104706 0.025813 -0.00466416 0.0146301 0.000176471 -0.00307043)
(0.00548636 0.0254534 -0.00498992 -0.01847 7.31443e-05 0.00415294)
(0.0233618 0.00961967 -0.00180708 -0.0458117 -0.000483524 0.0103511)
(-0.0229898 0.01023 -0.000957992 0.0361054 -0.000843177 -0.00765152)
(-0.00993837 0.0221513 -0.00362108 0.0118238 -7.86949e-05 -0.00276287)
(0.00432034 0.022098 -0.00378236 -0.0136673 0.00109007 0.00318162)
(0.0171959 0.0101756 -0.00123242 -0.0375446 0.00204988 0.0083633)
(-0.0181536 0.00842719 -0.000545068 0.0260771 -0.00184328 -0.00574968)
(-0.00808106 0.0189933 -0.00241965 0.00890435 -0.000319958 -0.00230465)
(0.00283862 0.0189898 -0.00257056 -0.00976549 0.00135223 0.00194597)
(0.012702 0.00846277 -0.000859436 -0.026519 0.00307442 0.00562725)
(-0.0133063 0.00689414 -0.000154683 0.0171049 -0.00212139 -0.00368338)
(-0.00627989 0.0155305 -0.00143671 0.00599873 -0.000441779 -0.00177121)
(0.00166711 0.0155295 -0.00158406 -0.00645897 0.00125666 0.000795261)
(0.00838645 0.00694224 -0.000458252 -0.0171526 0.00307387 0.00289474)
(-0.00945477 0.00510254 9.04297e-05 0.00965256 -0.00191445 -0.00186566)
(-0.00478916 0.0118591 -0.000708422 0.00353104 -0.000440548 -0.00127459)
(0.000781267 0.0118886 -0.000833935 -0.00394509 0.000995165 -0.000145994)
(0.0051009 0.00520902 -0.000165283 -0.00971071 0.00255942 0.000596929)
(-0.00688113 0.0031297 0.000212015 0.00453402 -0.00134564 -0.000509504)
(-0.00377593 0.00803249 -0.000198249 0.00168749 -0.000338717 -0.000904071)
(0.000278414 0.0081016 -0.000281521 -0.00221258 0.000669905 -0.000882737)
(0.00309281 0.00335424 4.98001e-05 -0.00468039 0.00174344 -0.00115978)
(-0.00649094 0.00136256 0.000290804 0.00242918 -0.000523803 0.000243637)
(-0.0041319 0.00397521 0.0001918 0.000949858 -0.000113273 -0.000781176)
(0.000803763 0.00396427 0.000128704 -0.00135465 0.000306155 -0.00153421)
(0.00305077 0.00138644 0.000195794 -0.00257781 0.000740372 -0.00246615)
(-0.0181774 0.0275524 -0.000589476 0.0602046 0.00482804 -0.00266525)
(-0.00531007 0.0248428 -0.00172639 0.0112875 0.00117147 -0.000827595)
(0.00316505 0.0238611 -0.00190594 -0.0188447 -0.00342786 0.00150531)
(0.0138329 0.0239331 -0.000837617 -0.0651115 -0.00762417 0.00356616)
(-0.0308367 0.0104391 -0.00115814 0.0414998 0.00115275 -0.00550694)
(-0.0109625 0.0269381 -0.00336322 0.0141813 0.000310999 -0.00172359)
(0.00617248 0.0266549 -0.00361744 -0.0187383 -0.000160793 0.00294462)
(0.0249062 0.0101371 -0.00147743 -0.0451368 -0.000852892 0.00710481)
(-0.0240827 0.0103567 -0.000941489 0.0354752 -0.000152494 -0.00537192)
(-0.0104121 0.0226113 -0.00286536 0.0115607 0.000155131 -0.0017728)
(0.00486885 0.0225566 -0.002998 -0.0140075 0.00082142 0.00248267)
(0.0183248 0.0102358 -0.00114371 -0.0374795 0.00127955 0.00631776)
(-0.0187886 0.00833825 -0.000589472 0.0257252 -0.00100215 -0.00445154)
(-0.00840817 0.0188236 -0.00200465 0.00875596 -3.78291e-05 -0.00164773)
(0.00303765 0.0188146 -0.00211783 -0.00990739 0.00119719 0.00161959)
(0.0132109 0.0083606 -0.000778355 -0.0265208 0.00231592 0.00456606)
(-0.013669 0.00664785 -0.000245721 0.0170367 -0.0013433 -0.00320475)
(-0.00651883 0.0150739 -0.00116631 0.00598392 -0.000159811 -0.00140391)
(0.00165182 0.0150768 -0.00126905 -0.00650624 0.0012049 0.000723726)
(0.00852135 0.00670373 -0.000415942 -0.0172082 0.00250466 0.00260334)
(-0.00960126 0.00482124 1.36535e-05 0.00982933 -0.00128186 -0.0020055)
(-0.00494083 0.0113369 -0.000498323 0.00360391 -0.000189036 -0.0011406)
(0.000639644 0.0113848 -0.000580952 -0.00393835 0.00101699 -4.66728e-05)
(0.00497776 0.00496416 -0.000120765 -0.009849 0.00218938 0.000863467)
(-0.00685961 0.00287964 0.000172451 0.00490878 -0.000920859 -0.0010882)
(-0.00384447 0.00762154 -2.14328e-05 0.00181701 -0.000142077 -0.000949217)
(8.1475e-05 0.00772265 -7.67922e-05 -0.00220248 0.000721972 -0.000661471)
(0.00282154 0.00316819 8.95977e-05 -0.00491548 0.00156199 -0.000493449)
(-0.00632601 0.00128397 0.000251664 0.00282659 -0.000353734 -0.000614246)
(-0.00412801 0.00381913 0.000265808 0.0011064 -3.41393e-05 -0.000921156)
(0.00055621 0.00383241 0.000213599 -0.0013675 0.000315234 -0.00115314)
(0.00267132 0.00134631 0.000188691 -0.00281106 0.000659475 -0.00143367)
(-0.0188141 0.0283229 -0.000379717 0.0607873 0.00269693 -0.00148379)
(-0.00549051 0.0254666 -0.00111062 0.0112758 0.000567627 -0.000411099)
(0.0034036 0.0245142 -0.00123104 -0.0189457 -0.00217185 0.000986527)
(0.014431 0.0247071 -0.000546371 -0.0659192 -0.00463647 0.0022191)
(-0.0319773 0.0106951 -0.000793145 0.0407194 0.000933533 -0.00322805)
(-0.0113688 0.0276174 -0.00225262 0.0139442 0.000288125 -0.00091786)
(0.00668677 0.0273731 -0.002428 -0.0186469 -0.000171199 0.00199236)
(0.0261219 0.0104001 -0.00101721 -0.0443885 -0.000727439 0.00456972)
(-0.0250357 0.01059 -0.000712275 0.0348802 0.000211818 -0.00343624)
(-0.0108247 0.0231371 -0.00204935 0.0113542 0.000258189 -0.001065)
(0.00532975 0.0230957 -0.00214422 -0.0139968 0.000560943 0.00177556)
(0.0193428 0.0104658 -0.000853297 -0.0370635 0.00069931 0.00431854)
(-0.0194977 0.00847027 -0.000485464 0.025352 -0.000329225 -0.00311799)
(-0.00874964 0.0191328 -0.00150188 0.00862493 0.000160511 -0.00111203)
(0.00330104 0.0191352 -0.00157413 -0.00991783 0.000900311 0.00121739)
(0.0138913 0.00850168 -0.000601156 -0.02633 0.0014909 0.00332633)
(-0.014122 0.00670061 -0.000232397 0.016935 -0.000606586 -0.00251841)
(-0.00678441 0.015212 -0.000897589 0.0059574 7.57111e-05 -0.0010716)
(0.00174435 0.0152297 -0.000956379 -0.00653179 0.000961235 0.000579679)
(0.00886055 0.00677569 -0.000326117 -0.0172045 0.00172813 0.00207522)
(-0.00983865 0.00482045 -2.28731e-05 0.00997561 -0.000641125 -0.00187704)
(-0.0051301 0.0113722 -0.00038253 0.00367114 2.97732e-05 -0.000997259)
(0.00061418 0.0114396 -0.000425786 -0.00397162 0.000851842 -3.85079e-07)
(0.00505166 0.00499289 -8.93758e-05 -0.00999078 0.00158722 0.000894124)
(-0.00691818 0.00285019 0.000113654 0.00523796 -0.000490143 -0.00136815)
(-0.00396223 0.00762522 -1.15893e-05 0.00194554 1.53801e-05 -0.000945646)
(-1.89206e-05 0.00774908 -3.85122e-05 -0.00224753 0.000627876 -0.000471125)
(0.0027003 0.00317645 7.98326e-05 -0.00516136 0.00118591 -5.37304e-05)
(-0.00625753 0.00128488 0.000168719 0.00318435 -0.000207688 -0.00111354)
(-0.00420203 0.00383443 0.000172277 0.00124478 1.74174e-05 -0.000969363)
(0.00039931 0.00386175 0.000142269 -0.00144886 0.000280254 -0.000817745)
(0.00241682 0.00136648 0.000141827 -0.0031007 0.000526172 -0.00068363)
(-0.0192291 0.0286834 -0.000232645 0.0611773 0.00149788 -0.000829427)
(-0.00561474 0.0256988 -0.000688596 0.0113054 0.000268501 -0.000196873)
(0.0035487 0.0247541 -0.00076304 -0.0190036 -0.00134413 0.000648336)
(0.0148282 0.0250582 -0.000336416 -0.0663956 -0.00277039 0.001383)
(-0.0327435 0.0108296 -0.000507023 0.0403624 0.000673579 -0.00188651)
(-0.0116391 0.0279972 -0.00144164 0.0138632 0.000226903 -0.000476995)
(0.0070043 0.0277725 -0.00155325 -0.0185195 -0.000134306 0.00133989)
(0.0269434 0.0105374 -0.000651856 -0.0439196 -0.000530874 0.00292025)
(-0.0257189 0.0107614 -0.000486147 0.0345254 0.000320888 -0.00216554)
(-0.0111014 0.0235306 -0.00137774 0.0112488 0.000264884 -0.000633686)
(0.00562936 0.0235025 -0.00144083 -0.0139029 0.000369017 0.00123922)
(0.0200737 0.0106458 -0.000578886 -0.0367109 0.000365318 0.0028837)
(-0.0200472 0.00861832 -0.000350545 0.0250854 2.76592e-05 -0.0021401)
(-0.00898939 0.0194748 -0.00104834 0.00854473 0.000236716 -0.0007539)
(0.00349854 0.0194894 -0.00109317 -0.00986991 0.000629186 0.000874529)
(0.0144325 0.0086629 -0.000420515 -0.0261146 0.000898711 0.00232878)
(-0.0145093 0.00681454 -0.000182719 0.0168324 -0.000153135 -0.00192933)
(-0.00697896 0.0154764 -0.000647117 0.00593463 0.000190408 -0.00082597)
(0.00183794 0.0155066 -0.000680273 -0.00652131 0.000700754 0.000424659)
(0.00918069 0.00690619 -0.000233908 -0.0171391 0.00110057 0.00155698)
(-0.0100759 0.00489525 -3.542e-05 0.0100389 -0.000217974 -0.00165899)
(-0.00527701 0.0115599 -0.000287905 0.00371049 0.000145741 -0.000866497)
(0.000624745 0.0116404 -0.000310018 -0.00398598 0.000643125 -2.95005e-06)
(0.00517934 0.00508775 -6.73871e-05 -0.0100452 0.00105492 0.000789873)
(-0.0070285 0.00288784 6.23333e-05 0.00542284 -0.000189425 -0.00142915)
(-0.00406589 0.00775039 -2.86797e-05 0.00202494 0.000100675 -0.000897836)
(-6.82177e-05 0.00788769 -4.10202e-05 -0.00228158 0.000485857 -0.000350864)
(0.00267782 0.00323753 5.0684e-05 -0.00530146 0.000817431 0.000161566)
(-0.00629059 0.0013071 9.41814e-05 0.00339409 -8.91766e-05 -0.00132136)
(-0.00428995 0.00389968 7.98251e-05 0.00132605 4.66895e-05 -0.00094277)
(0.000311081 0.0039341 6.28862e-05 -0.00151572 0.000217568 -0.000577063)
(0.00230208 0.00140017 8.33697e-05 -0.00329183 0.000370628 -0.00022311)
(-0.0194821 0.028855 -0.000134387 0.0614267 0.000815145 -0.000478537)
(-0.00569418 0.0257795 -0.000406218 0.0113446 0.000124073 -9.1722e-05)
(0.00363362 0.024835 -0.000449176 -0.0190289 -0.000795771 0.000437136)
(0.0150712 0.025218 -0.000195176 -0.0666606 -0.00159648 0.000887627)
(-0.0332232 0.0108966 -0.000302389 0.0402288 0.000445508 -0.00113751)
(-0.0118109 0.0281978 -0.00087117 0.0138582 0.000159436 -0.000249511)
(0.00719253 0.0279819 -0.000937112 -0.0184158 -9.095e-05 0.000920825)
(0.0274556 0.0106045 -0.000389681 -0.0436536 -0.000349734 0.00191597)
(-0.0261652 0.010869 -0.000303468 0.0343567 0.000292053 -0.00140622)
(-0.0112785 0.0237833 -0.000863244 0.0112141 0.000215837 -0.000392123)
(0.00581249 0.0237635 -0.000901945 -0.0138108 0.000231505 0.000874349)
(0.0205476 0.0107607 -0.000360734 -0.0364804 0.000184154 0.0019606)
(-0.02042 0.0087285 -0.000227137 0.0249345 0.000151403 -0.001512)
(-0.00914565 0.0197325 -0.000675764 0.00850946 0.000221763 -0.000537908)
(0.00362815 0.0197555 -0.00070223 -0.00981026 0.000409708 0.000623719)
(0.0148002 0.00878308 -0.000268483 -0.0259465 0.00051464 0.00164149)
(-0.0147865 0.00691226 -0.000124493 0.0167571 4.92445e-05 -0.0015075)
(-0.00710914 0.0157048 -0.000428692 0.00592327 0.000201841 -0.000663813)
(0.00190744 0.0157431 -0.000446953 -0.00649312 0.000469212 0.000295507)
(0.00941536 0.00701514 -0.000152588 -0.0170576 0.000656652 0.00115559)
(-0.0102606 0.00496886 -3.09617e-05 0.0100528 -9.03322e-06 -0.00144908)
(-0.00537999 0.0117405 -0.000199942 0.00373094 0.000167743 -0.000763638)
(0.000641398 0.0118292 -0.000211097 -0.00398166 0.000440652 -2.51883e-05)
(0.00529049 0.00517412 -4.64748e-05 -0.0100413 0.000649902 0.000653824)
(-0.00713581 0.00293098 3.12145e-05 0.00550553 -3.02165e-05 -0.00138246)
(-0.00414564 0.00787564 -3.53359e-05 0.00206568 0.00011919 -0.000835602)
(-9.23247e-05 0.00802101 -4.0893e-05 -0.0022977 0.000337767 -0.00028169)
(0.00269029 0.00329511 2.80747e-05 -0.00535955 0.000516518 0.00024127)
(-0.0063588 0.00132588 4.9162e-05 0.00349651 -2.25342e-05 -0.00134827)
(-0.00436877 0.00395978 2.61058e-05 0.00136419 5.13118e-05 -0.000879043)
(0.000263786 0.00399822 1.63036e-05 -0.00156069 0.000151635 -0.000422636)
(0.00225957 0.00142599 4.47974e-05 -0.00339943 0.000237947 1.68023e-05)
(-0.0196255 0.0289361 -6.88059e-05 0.0615762 0.00040404 -0.000300823)
(-0.00574086 0.0258043 -0.000212134 0.0113776 5.35413e-05 -4.34438e-05)
(0.0036805 0.024858 -0.00023401 -0.0190376 -0.000417321 0.000314899)
(0.0152085 0.02529 -0.00010027 -0.0668 -0.000822354 0.000613891)
(-0.0335004 0.0109278 -0.000158385 0.0401931 0.000252364 -0.000747315)
(-0.011912 0.0282969 -0.000462463 0.0138777 9.39028e-05 -0.000140416)
(0.00729744 0.0280848 -0.000496599 -0.0183463 -5.14038e-05 0.000673756)
(0.0277492 0.0106351 -0.000204363 -0.0435128 -0.000196352 0.00135112)
(-0.0264307 0.0109293 -0.000163877 0.0342915 0.000195054 -0.000992181)
(-0.0113837 0.0239273 -0.000469492 0.0112126 0.000138083 -0.000268202)
(0.00591658 0.0239119 -0.00049006 -0.0137447 0.000127471 0.000651339)
(0.0208264 0.0108254 -0.000194564 -0.0363486 8.50134e-05 0.00142338)
(-0.0206468 0.00879641 -0.000125663 0.0248633 0.000136684 -0.00115227)
(-0.00923934 0.0198932 -0.000374706 0.00850038 0.000151605 -0.000420131)
(0.0037047 0.0199208 -0.0003885 -0.00976243 0.000230429 0.000463396)
(0.015022 0.00885698 -0.000147302 -0.0258389 0.000263103 0.0012241)
(-0.0149603 0.00697649 -7.10421e-05 0.0167134 8.72947e-05 -0.00124731)
(-0.00718843 0.0158565 -0.000242388 0.00592089 0.000145259 -0.000568406)
(0.001951 0.0158993 -0.000251496 -0.0064652 0.000268347 0.000206504)
(0.00956233 0.00708595 -8.50394e-05 -0.0169919 0.000345126 0.000893843)
(-0.0103825 0.00501952 -2.01729e-05 0.0100489 4.9733e-05 -0.00129673)
(-0.0054448 0.0118655 -0.000117258 0.00374141 0.000124611 -0.000694559)
(0.000654223 0.0119586 -0.000122457 -0.00397064 0.000255472 -4.79057e-05)
(0.00536599 0.00523219 -2.70772e-05 -0.0100185 0.000348802 0.00054404)
(-0.00721583 0.00296154 1.33124e-05 0.00553495 2.25179e-05 -0.00131398)
(-0.00419916 0.00796283 -2.75998e-05 0.00208398 8.96493e-05 -0.000782523)
(-0.000103984 0.00811252 -2.99625e-05 -0.00230258 0.000197377 -0.000245318)
(0.00270887 0.00333381 1.30338e-05 -0.00537546 0.000281442 0.000260283)
(-0.00642206 0.001338 2.21852e-05 0.00353667 2.29936e-06 -0.00131026)
(-0.0044262 0.0040007 3.77241e-06 0.00137796 3.77017e-05 -0.000816386)
(0.000239561 0.00404088 -1.50267e-06 -0.00158617 8.87609e-05 -0.000332438)
(0.00224934 0.00144172 2.04266e-05 -0.00345127 0.000130751 0.000130126)
(-0.0196902 0.0289688 -2.10977e-05 0.0616468 0.000122053 -0.000226881)
(-0.0057624 0.0258102 -6.5737e-05 0.011396 1.49248e-05 -2.50298e-05)
(0.00370135 0.0248628 -7.24032e-05 -0.0190398 -0.000129617 0.000258985)
(0.0152702 0.025318 -3.07783e-05 -0.06686 -0.000253169 0.000492551)
(-0.0336269 0.0109398 -4.9155e-05 0.0401892 8.16321e-05 -0.000582044)
(-0.0119589 0.0283374 -0.000144518 0.0138935 3.09652e-05 -9.7387e-05)
(0.00734437 0.0281266 -0.000155005 -0.0183118 -1.6507e-05 0.000559466)
(0.0278824 0.0106467 -6.3408e-05 -0.0434522 -6.30951e-05 0.00109806)
(-0.0265539 0.010956 -5.16701e-05 0.0342724 6.78371e-05 -0.000811819)
(-0.0114327 0.0239916 -0.00014853 0.0112182 4.72635e-05 -0.000216852)
(0.00596367 0.0239781 -0.000154931 -0.0137108 4.07337e-05 0.000546009)
(0.0209547 0.0108539 -6.12554e-05 -0.0362895 2.45835e-05 0.00117797)
(-0.0207533 0.00882808 -4.0129e-05 0.0248371 5.2489e-05 -0.000990762)
(-0.00928325 0.0199687 -0.000119735 0.00850046 5.3357e-05 -0.000369133)
(0.00374001 0.0199983 -0.000123991 -0.0097366 7.43363e-05 0.00038578)
(0.0151254 0.00889135 -4.68167e-05 -0.0257873 8.06655e-05 0.00102885)
(-0.0150432 0.00700742 -2.30695e-05 0.0166944 3.80409e-05 -0.00112509)
(-0.00722591 0.0159301 -7.82653e-05 0.00592168 5.21835e-05 -0.000524839)
(0.00197163 0.0159748 -8.10148e-05 -0.00644872 8.7247e-05 0.000161681)
(0.00963209 0.00711984 -2.72857e-05 -0.0169567 0.00010731 0.00076655)
(-0.0104423 0.0050443 -7.03245e-06 0.0100439 2.52562e-05 -0.00121849)
(-0.005476 0.0119272 -3.86458e-05 0.00374602 4.53232e-05 -0.000660275)
(0.000660788 0.0120222 -4.01511e-05 -0.00396266 8.35857e-05 -6.12143e-05)
(0.00540323 0.00526035 -8.94386e-06 -0.0100016 0.00010957 0.000485088)
(-0.00725735 0.00297652 3.38827e-06 0.00554228 1.39137e-05 -0.00126987)
(-0.00422586 0.00800582 -1.03674e-05 0.00209063 3.27599e-05 -0.000752892)
(-0.000108843 0.00815719 -1.10153e-05 -0.0023031 6.48099e-05 -0.000229801)
(0.00272028 0.00335217 3.55328e-06 -0.0053769 8.90243e-05 0.000260808)
(-0.00645746 0.00134387 5.95875e-06 0.00354793 2.94624e-06 -0.00127553)
(-0.00445586 0.00402099 -7.49895e-07 0.00138136 1.36003e-05 -0.000779389)
(0.000229021 0.00406136 -2.44144e-06 -0.00159725 2.92272e-05 -0.000290979)
(0.00224823 0.0014486 5.46632e-06 -0.00347117 4.15798e-05 0.000173878)
)
;

boundaryField
{
    interface
    {
        type            calculated;
        value           nonuniform List<symmTensor> 
192
(
(-0.0624346 -1.39855e-05 0.000494326 0.0964637 0.0161512 -0.00909202)
(-0.0285881 -4.27261e-05 0.000702269 0.0513926 -0.0021674 -0.0143762)
(-0.0294954 -9.8035e-05 0.000768724 0.0481651 -0.00081105 -0.00984392)
(-0.0215567 -0.000153182 0.000770962 0.0338597 -0.00239835 -0.00736777)
(-0.0157132 -0.000214122 0.000747481 0.0221597 -0.00241258 -0.00437607)
(-0.0105935 -0.000290842 0.000698823 0.0121506 -0.00214533 -0.00197825)
(-0.00730232 -0.000410829 0.000615977 0.00550583 -0.00151677 -0.000173864)
(-0.00598183 -0.000597737 0.000476236 0.00267769 -0.000554912 0.000909654)
(-0.0628931 1.05447e-05 0.000333926 0.0934741 0.010955 -0.0058247)
(-0.0329221 -2.29568e-05 0.000475045 0.0541914 0.00156762 -0.0111497)
(-0.0296181 -8.17721e-05 0.000511718 0.0476502 -0.00106384 -0.0096058)
(-0.0220888 -0.000150599 0.000507708 0.0338978 -0.00255879 -0.00709477)
(-0.0159176 -0.000229055 0.000485149 0.0219437 -0.00297145 -0.00433304)
(-0.0108297 -0.000331244 0.000444781 0.0119889 -0.00268556 -0.00191048)
(-0.0075019 -0.000489418 0.000381163 0.00538426 -0.00186119 -0.000118267)
(-0.00611285 -0.000714401 0.000285998 0.0027245 -0.00072837 0.00088191)
(-0.0657387 1.68297e-05 0.000229649 0.0950046 0.00630512 -0.0033803)
(-0.0345404 -1.84906e-05 0.000323686 0.0522408 0.00170541 -0.0070237)
(-0.0309169 -8.01556e-05 0.000343979 0.0466185 -0.000154825 -0.00687985)
(-0.0228562 -0.000156432 0.000336629 0.0333526 -0.00137237 -0.00564574)
(-0.0162343 -0.000246302 0.000317267 0.0218122 -0.00186282 -0.00395876)
(-0.0108489 -0.000364606 0.000286378 0.0122394 -0.00178598 -0.00233568)
(-0.0073251 -0.000543896 0.000241538 0.00594325 -0.00127925 -0.0010916)
(-0.00563584 -0.000782167 0.000180068 0.00327428 -0.000501869 -0.000430124)
(-0.0676612 1.73438e-05 0.000163011 0.0961959 0.00353279 -0.00188975)
(-0.0358069 -1.95511e-05 0.000229302 0.051078 0.00131842 -0.0041328)
(-0.0320894 -8.34751e-05 0.000241578 0.0457438 0.000299577 -0.00441532)
(-0.0237083 -0.00016458 0.000233767 0.0328028 -0.000464955 -0.00397715)
(-0.0167558 -0.000261921 0.000217811 0.0216416 -0.000859529 -0.00315052)
(-0.0110964 -0.000390337 0.000194455 0.0124178 -0.00091178 -0.00226433)
(-0.00736751 -0.000582109 0.000162769 0.00638628 -0.000697937 -0.00155577)
(-0.00545825 -0.000826229 0.000121237 0.0037399 -0.000302972 -0.00118367)
(-0.0688019 1.65704e-05 0.000114734 0.0969392 0.00196646 -0.0010603)
(-0.0366742 -2.18872e-05 0.000161611 0.0505464 0.000922662 -0.00242045)
(-0.0329207 -8.78355e-05 0.000169456 0.045239 0.000419196 -0.00278042)
(-0.0243585 -0.000172348 0.000162713 0.0324166 5.28357e-06 -0.00272443)
(-0.0172032 -0.000274662 0.000150369 0.0214795 -0.000250255 -0.00241424)
(-0.0113527 -0.000409565 0.000133267 0.0124804 -0.000340606 -0.00202227)
(-0.00747262 -0.000609249 0.000111085 0.00662013 -0.000293121 -0.00168641)
(-0.00542028 -0.000856431 8.25943e-05 0.00400353 -0.000140689 -0.00151607)
(-0.0694604 1.56991e-05 7.65015e-05 0.0973882 0.00107194 -0.000614107)
(-0.0372287 -2.40843e-05 0.000107948 0.0503371 0.000597354 -0.00146136)
(-0.0334676 -9.17011e-05 0.000112914 0.0449997 0.000370799 -0.00179997)
(-0.0248027 -0.00017861 0.000107901 0.0321989 0.000169628 -0.00191337)
(-0.017527 -0.000284209 9.91835e-05 0.0213618 2.50623e-05 -0.00187561)
(-0.0115591 -0.000423277 8.74879e-05 0.0124809 -5.4263e-05 -0.00176598)
(-0.00758462 -0.000628051 7.26966e-05 0.00671642 -7.44621e-05 -0.00165044)
(-0.00546116 -0.000876943 5.38374e-05 0.0041285 -4.6875e-05 -0.0015871)
(-0.069821 1.50572e-05 4.37232e-05 0.0976453 0.000531972 -0.000387656)
(-0.0375521 -2.56646e-05 6.17337e-05 0.0502706 0.000333801 -0.000961072)
(-0.0337938 -9.44518e-05 6.44786e-05 0.0449047 0.000244107 -0.00126516)
(-0.0250738 -0.000182906 6.14531e-05 0.0320946 0.000158463 -0.00144806)
(-0.0177305 -0.000290537 5.63148e-05 0.0212926 8.81046e-05 -0.00154117)
(-0.0116963 -0.000432163 4.95203e-05 0.0124634 3.75969e-05 -0.00157524)
(-0.0076693 -0.000640099 4.08795e-05 0.00674539 6.9869e-06 -0.00157432)
(-0.00551383 -0.000889685 2.96484e-05 0.00417551 -7.71899e-06 -0.00155954)
(-0.0699803 1.45789e-05 1.41169e-05 0.0977631 0.000160802 -0.000293282)
(-0.0376996 -2.65922e-05 1.9918e-05 0.0502561 0.000107263 -0.00074897)
(-0.0339447 -9.58735e-05 2.07796e-05 0.0448753 8.43605e-05 -0.00103217)
(-0.0252007 -0.000185031 1.97813e-05 0.0320551 6.12882e-05 -0.00123906)
(-0.0178271 -0.000293635 1.81022e-05 0.0212619 4.05745e-05 -0.00138369)
(-0.0117633 -0.000436649 1.58888e-05 0.0124504 2.34804e-05 -0.00147641)
(-0.00771265 -0.000646472 1.29928e-05 0.00674989 1.04075e-05 -0.0015226)
(-0.00554431 -0.000895287 9.08438e-06 0.00418765 1.76094e-07 -0.00152475)
(-0.0175358 0.0190745 -0.000728637 0.0660881 -7.13997e-05 -0.0352712)
(-0.0297937 0.0081762 -0.00110582 0.0367083 -0.000137951 -0.00715221)
(-0.0239874 0.0115883 -0.00123805 0.036361 -0.000152127 -0.0107093)
(-0.0193832 0.0104789 -0.00127763 0.0257536 -0.000165405 -0.0066352)
(-0.0143079 0.00929822 -0.0012916 0.0173796 -0.000180757 -0.00440878)
(-0.0102489 0.00721384 -0.00129204 0.0100696 -0.000201916 -0.00223952)
(-0.00745119 0.00467943 -0.00128854 0.00509815 -0.000234999 -0.000814265)
(-0.00694615 0.00200167 -0.00131611 0.00265264 -0.000282993 0.000440264)
(-0.00608985 0.0143176 -0.000568784 0.0143363 -5.39448e-05 -0.0080455)
(-0.0121353 0.0224836 -0.000913272 0.0132125 -9.52041e-05 -0.0031587)
(-0.0116432 0.0240462 -0.00101991 0.0123405 -0.000106492 -0.00283589)
(-0.00953273 0.0224772 -0.00105953 0.00890728 -0.000106629 -0.00190949)
(-0.00739758 0.0194706 -0.00108059 0.00603577 -0.00010634 -0.00139817)
(-0.00562732 0.0153483 -0.00109403 0.00361226 -0.000109726 -0.000960848)
(-0.00436196 0.0105887 -0.00110755 0.00190775 -0.000122397 -0.000682141)
(-0.00457457 0.00517006 -0.00116615 0.00102731 -0.000147762 3.05274e-05)
(0.00343079 0.0128042 -0.000527285 -0.0225038 -3.58302e-05 0.0104502)
(0.0069471 0.0217062 -0.00088247 -0.0117487 -7.18812e-05 0.000918183)
(0.00573654 0.0241296 -0.000993315 -0.0120923 -8.15051e-05 0.00200966)
(0.0042483 0.0226176 -0.00104027 -0.0091094 -7.68325e-05 0.0010413)
(0.00287839 0.0195794 -0.00106469 -0.00669469 -6.84752e-05 0.000358427)
(0.00176571 0.0154417 -0.00107961 -0.00447393 -6.15403e-05 -0.000382345)
(0.000983976 0.0106733 -0.00109141 -0.00278035 -6.14257e-05 -0.00100716)
(0.00132542 0.00515501 -0.00114249 -0.00170258 -7.75752e-05 -0.00198552)
(0.0133887 0.0149768 -0.000535157 -0.0709488 -4.54732e-05 0.0364779)
(0.0239334 0.00716147 -0.000932113 -0.0342096 -9.4366e-05 0.00485064)
(0.0181556 0.0118371 -0.00104534 -0.0358855 -8.86293e-05 0.00990683)
(0.0140847 0.0107201 -0.00109958 -0.0255477 -7.10523e-05 0.00574663)
(0.00964147 0.00950668 -0.00112532 -0.0176072 -4.96234e-05 0.00342089)
(0.00619187 0.00739922 -0.00113803 -0.0105463 -2.90441e-05 0.00099925)
(0.00390994 0.00489141 -0.00114256 -0.0056122 -9.12898e-06 -0.000802087)
(0.00367096 0.0020008 -0.00117691 -0.0031117 7.10744e-07 -0.0023813)
(0.0568886 9.28255e-05 0.000302092 -0.0961893 -0.0204606 0.00903156)
(0.0232952 0.000105002 0.000489577 -0.0509887 0.00315219 0.0142795)
(0.0246107 7.86292e-05 0.000534508 -0.0481031 0.00151146 0.00959702)
(0.0167056 2.5345e-05 0.000555227 -0.0334649 0.00309185 0.00689424)
(0.0112772 -3.04325e-05 0.000564769 -0.0219066 0.00280368 0.00352368)
(0.00661538 -9.26036e-05 0.000565981 -0.0121488 0.0023152 0.000772655)
(0.00370697 -0.000196941 0.000557636 -0.00559489 0.00152418 -0.00140281)
(0.00292867 -0.000441644 0.00051797 -0.00286079 0.000488377 -0.00292808)
(0.0564712 4.30776e-05 0.00014905 -0.0933452 -0.0150879 0.00680096)
(0.027977 4.59891e-05 0.00024931 -0.0567252 -0.00107074 0.0128664)
(0.0242111 2.25282e-05 0.000269433 -0.048662 0.00238456 0.0105352)
(0.0166947 -2.02592e-05 0.000274617 -0.0339561 0.00393195 0.00715823)
(0.0108411 -7.09406e-05 0.000276855 -0.0216577 0.00402235 0.00369045)
(0.00624378 -0.000131042 0.000276842 -0.0117863 0.00339105 0.000757547)
(0.00341426 -0.000240708 0.000274185 -0.00524479 0.00229991 -0.00146152)
(0.00287214 -0.000523505 0.000267445 -0.00268028 0.000961185 -0.00303165)
(0.059388 2.07514e-05 9.68101e-05 -0.0953058 -0.00939651 0.00441681)
(0.0296254 1.49428e-05 0.000170815 -0.0552036 -0.00136057 0.00886361)
(0.0255466 -4.7541e-06 0.000188037 -0.0481519 0.00137654 0.00798873)
(0.0174413 -4.062e-05 0.000192401 -0.0338141 0.00279347 0.00585492)
(0.0110357 -8.7124e-05 0.000193098 -0.0216989 0.00310369 0.00340219)
(0.00608943 -0.000145562 0.000192005 -0.0120336 0.00274457 0.0012144)
(0.00304637 -0.000258244 0.000189118 -0.00566678 0.00195846 -0.000477589)
(0.0022136 -0.000556698 0.000184625 -0.00305306 0.000825865 -0.00160497)
(0.0614793 1.49474e-05 7.40883e-05 -0.0967035 -0.00565251 0.00272081)
(0.0309759 4.49014e-06 0.000133088 -0.05397 -0.0010839 0.00564237)
(0.0268121 -1.56852e-05 0.000149088 -0.0474404 0.00066905 0.00541317)
(0.0183076 -5.01571e-05 0.000153698 -0.0334771 0.00169559 0.00425269)
(0.0114808 -9.57208e-05 0.000153982 -0.0216604 0.00203887 0.00273418)
(0.00620565 -0.000154289 0.000152007 -0.0122303 0.00190085 0.00128424)
(0.00292894 -0.000270521 0.0001481 -0.00602681 0.00142926 0.000124032)
(0.00188393 -0.000580973 0.000142416 -0.00344278 0.000639124 -0.000627077)
(0.0627393 1.33634e-05 5.5457e-05 -0.09751 -0.00334338 0.00167413)
(0.0319218 7.44315e-07 9.95968e-05 -0.0532682 -0.000763277 0.0035593)
(0.027724 -2.04777e-05 0.00011222 -0.0469296 0.000299826 0.00357227)
(0.0189833 -5.53055e-05 0.000116081 -0.0331553 0.000962408 0.00295649)
(0.0118891 -0.000101261 0.00011616 -0.0215531 0.00123647 0.00205712)
(0.00637221 -0.000160591 0.000114146 -0.0122955 0.00121047 0.00114836)
(0.00291047 -0.000279711 0.000110479 -0.00621605 0.000950283 0.000401078)
(0.00171369 -0.000598991 0.000105484 -0.00368464 0.000437199 -5.09858e-05)
(0.0634647 1.27995e-05 3.85792e-05 -0.0979566 -0.00191086 0.0010605)
(0.0325299 -8.60875e-07 6.89913e-05 -0.0528965 -0.000492054 0.00230491)
(0.0283218 -2.28842e-05 7.78405e-05 -0.0466242 0.000123702 0.00240072)
(0.0194421 -5.84197e-05 8.06223e-05 -0.0329249 0.0005202 0.00207035)
(0.0121846 -0.000105067 8.06195e-05 -0.0214361 0.000705145 0.00153193)
(0.00651348 -0.000165182 7.90405e-05 -0.012283 0.00071782 0.000962924)
(0.00293041 -0.0002864 7.62037e-05 -0.00628762 0.00058189 0.000489189)
(0.00165149 -0.000611741 7.22639e-05 -0.00381349 0.000273464 0.000230232)
(0.0638575 1.26386e-05 2.26493e-05 -0.0981915 -0.000978729 0.000725086)
(0.0328845 -1.57725e-06 4.03788e-05 -0.0527104 -0.000272864 0.00160745)
(0.0286762 -2.41574e-05 4.55286e-05 -0.0464606 4.52743e-05 0.00172689)
(0.0197194 -6.02927e-05 4.71583e-05 -0.0327855 0.000253652 0.00153762)
(0.0123687 -0.000107507 4.71274e-05 -0.0213473 0.000357597 0.00119132)
(0.00660825 -0.000168225 4.62046e-05 -0.0122482 0.00037403 0.00081298)
(0.00295474 -0.000291021 4.43801e-05 -0.00630294 0.000309399 0.000499781)
(0.0016344 -0.000619978 4.10011e-05 -0.00387198 0.000147078 0.000353332)