/*--------------------------------*- C++ -*----------------------------------*\
| =========                 |                                                 |
| \\      /  F ield         | foam-extend: Open Source CFD                    |
|  \\    /   O peration     | Version:     3.1                                |
|   \\  /    A nd           | Web:         http://www.extend-project.de       |
|    \\/     M anipulation  |                                                 |
\*---------------------------------------------------------------------------*/
FoamFile
{
    version     2.0;
    format      ascii;
    class       pointVectorField;
    location    "1";
    object      pointD;
}
// * * * * * * * * * * * * * * * * * * * * * * * * * * * * * * * * * * * * * //

dimensions      [0 1 0 0 0 0 0];

internalField   nonuniform List<vector> 
405
(
(0 0 0)
(0 0 0)
(0 0 0)
(0 0 0)
(0 0 0)
(0.00224845 0.00227802 0.0011318)
(0.00133863 0.000771999 0.00067633)
(0.00101954 -0.00011868 -7.48052e-05)
(0.00117561 -0.00107758 -0.00085118)
(0.00181048 -0.00275406 -0.00134472)
(0.00447584 0.00334223 0.000998016)
(0.00373555 0.00130339 0.000585051)
(0.00336576 -0.000216344 -5.14016e-05)
(0.00347174 -0.00178971 -0.00070661)
(0.00386452 -0.00398033 -0.00115764)
(0.00751654 0.00434181 0.000896544)
(0.006814 0.00172692 0.000529721)
(0.00644918 -0.000403105 -9.81654e-06)
(0.00647406 -0.00258797 -0.000561127)
(0.00673039 -0.00536973 -0.000959535)
(0.0109381 0.00493931 0.000683283)
(0.0103339 0.00192788 0.000424994)
(0.00998622 -0.000656759 4.05592e-05)
(0.0099328 -0.00328899 -0.000351979)
(0.0100234 -0.00643609 -0.000631279)
(0.0146027 0.00522639 0.000473495)
(0.0140828 0.00195822 0.000323688)
(0.0137503 -0.000950487 8.57313e-05)
(0.0136323 -0.00389572 -0.000158418)
(0.0135975 -0.00726182 -0.000321732)
(0.0183273 0.00525928 0.000295319)
(0.0178807 0.00186218 0.000237953)
(0.0175632 -0.0012547 0.00012295)
(0.017397 -0.00439627 3.92887e-06)
(0.0172746 -0.00785616 -6.06061e-05)
(0.0220018 0.00513631 0.000174497)
(0.0216005 0.00169211 0.000177102)
(0.0212919 -0.0015462 0.000153183)
(0.0210968 -0.00480071 0.000127649)
(0.020932 -0.00828149 0.000128374)
(0.0255968 0.00494933 0.000126828)
(0.0251682 0.00149717 0.000155846)
(0.024816 -0.00180487 0.000182551)
(0.0246431 -0.00513064 0.000207535)
(0.0245048 -0.00861875 0.00023581)
(0 0 0)
(0 0 0)
(0 0 0)
(0 0 0)
(0 0 0)
(0.00249228 0.00209645 0.000674183)
(0.00161557 0.00061773 0.000391402)
(0.00135533 -0.000129551 -7.17884e-05)
(0.00148033 -0.00090892 -0.000567604)
(0.00208559 -0.00253743 -0.00089638)
(0.00480151 0.00334261 0.00072796)
(0.00409712 0.00127894 0.000412946)
(0.00378104 -0.000288577 -6.20393e-05)
(0.00384501 -0.00190145 -0.000552937)
(0.00420515 -0.00411366 -0.000900844)
(0.00779115 0.00434721 0.000668318)
(0.00713038 0.00170974 0.000384776)
(0.00680755 -0.00048931 -2.00122e-05)
(0.00678908 -0.00273612 -0.000435002)
(0.00700318 -0.0055302 -0.000743346)
(0.0111438 0.00496779 0.000539418)
(0.0105697 0.00193156 0.000327432)
(0.0102492 -0.000735834 2.69422e-05)
(0.0101561 -0.00344522 -0.000280499)
(0.0102113 -0.00660894 -0.000507148)
(0.0147221 0.00525952 0.000396976)
(0.0142247 0.00197156 0.000263435)
(0.01391 -0.00101152 6.87046e-05)
(0.0137585 -0.00402651 -0.000130769)
(0.0136943 -0.00740587 -0.000271796)
(0.0183702 0.00528962 0.000272523)
(0.0179389 0.00187777 0.00020756)
(0.0176326 -0.00129721 0.000102403)
(0.017441 -0.00449364 -5.39695e-06)
(0.0172967 -0.00796429 -7.27011e-05)
(0.0219893 0.00515484 0.000188566)
(0.0215969 0.00170007 0.000169454)
(0.0212947 -0.00157568 0.000128931)
(0.0210842 -0.0048655 8.76569e-05)
(0.0209063 -0.00835455 6.99503e-05)
(0.0255641 0.00496012 0.000158193)
(0.0251424 0.00149881 0.000159162)
(0.0247959 -0.00182915 0.00015262)
(0.0246116 -0.00517853 0.000144763)
(0.0244636 -0.00867334 0.000147407)
(0 0 0)
(0 0 0)
(0 0 0)
(0 0 0)
(0 0 0)
(0.00265667 0.00212296 0.000381816)
(0.00173489 0.000599757 0.000217314)
(0.00146777 -0.000139185 -5.76415e-05)
(0.0016117 -0.000907367 -0.00035722)
(0.00225243 -0.00260345 -0.0005578)
(0.00502476 0.0033083 0.000458181)
(0.00428043 0.0012408 0.000254751)
(0.00395199 -0.00031781 -5.31857e-05)
(0.00404041 -0.00192246 -0.000373757)
(0.00444301 -0.00414658 -0.000601901)
(0.00799793 0.00429112 0.000453528)
(0.00732367 0.00166788 0.000256014)
(0.00699497 -0.000531189 -2.14013e-05)
(0.00698429 -0.00277779 -0.000306875)
(0.00721314 -0.00555347 -0.00052029)
(0.0113155 0.00490493 0.000396616)
(0.0107349 0.00189087 0.00023422)
(0.0104094 -0.000778408 1.69361e-05)
(0.0103163 -0.0034891 -0.000205435)
(0.010378 -0.00662644 -0.000374989)
(0.0148439 0.0052014 0.000321641)
(0.0143462 0.00193748 0.000203884)
(0.014028 -0.0010484 5.24799e-05)
(0.0138715 -0.0040652 -0.000101759)
(0.0138061 -0.00741675 -0.000220552)
(0.0184451 0.00524478 0.000251749)
(0.0180161 0.00185191 0.000175564)
(0.017708 -0.00132624 8.17854e-05)
(0.0175097 -0.0045244 -1.29606e-05)
(0.0173602 -0.00797334 -8.63923e-05)
(0.0220301 0.00512899 0.000203243)
(0.0216418 0.00168216 0.000156235)
(0.0213396 -0.00159811 0.000103975)
(0.0211222 -0.00489043 5.21658e-05)
(0.0209365 -0.00836843 1.04192e-05)
(0.0255938 0.00494892 0.000187528)
(0.0251785 0.00148698 0.000152593)
(0.0248338 -0.00184816 0.000119057)
(0.0246406 -0.00520157 8.50817e-05)
(0.0244816 -0.00869237 5.50905e-05)
(0 0 0)
(0 0 0)
(0 0 0)
(0 0 0)
(0 0 0)
(0.00274745 0.00214919 0.000212425)
(0.00178612 0.00059642 0.00011972)
(0.00150885 -0.000143789 -4.28842e-05)
(0.00166798 -0.000914292 -0.000221608)
(0.00234225 -0.00265777 -0.000337555)
(0.00514946 0.00329386 0.000274676)
(0.00437317 0.00122018 0.000152372)
(0.00403273 -0.000330094 -4.08391e-05)
(0.00413986 -0.00192765 -0.000242832)
(0.00457536 -0.00416355 -0.000381453)
(0.00813125 0.00424977 0.000291147)
(0.00743419 0.00163608 0.000164509)
(0.00709622 -0.000549991 -1.8078e-05)
(0.00709797 -0.00278394 -0.000206297)
(0.00735202 -0.0055501 -0.000343617)
(0.0114363 0.00485019 0.000275166)
(0.0108427 0.00185414 0.000162149)
(0.0105106 -0.000799669 1.13347e-05)
(0.0104239 -0.00349463 -0.000142815)
(0.0105007 -0.00661255 -0.000260451)
(0.0149424 0.00514588 0.000244155)
(0.0144392 0.00190238 0.000152848)
(0.0141165 -0.00106855 3.98692e-05)
(0.0139621 -0.00406983 -7.45857e-05)
(0.0139033 -0.00739928 -0.000165761)
(0.0185201 0.00519889 0.000211909)
(0.0180907 0.00182304 0.000142454)
(0.0177801 -0.00134333 6.38255e-05)
(0.0175808 -0.00452875 -1.47613e-05)
(0.0174314 -0.00795888 -8.07943e-05)
(0.0220874 0.00509979 0.000188241)
(0.0217024 0.00166173 0.000134872)
(0.0213991 -0.00161199 8.10524e-05)
(0.0211786 -0.00489625 2.83355e-05)
(0.0209874 -0.00836245 -1.92173e-05)
(0.0256451 0.00493523 0.000180883)
(0.025235 0.00147467 0.000133876)
(0.0248893 -0.00186048 8.96143e-05)
(0.0246905 -0.00521175 4.56424e-05)
(0.024522 -0.00869678 4.3307e-06)
(0 0 0)
(0 0 0)
(0 0 0)
(0 0 0)
(0 0 0)
(0.00279598 0.00216601 0.000117822)
(0.00180805 0.000596596 6.58074e-05)
(0.00152337 -0.000145344 -3.00969e-05)
(0.00169174 -0.000918873 -0.000135799)
(0.00238923 -0.00269018 -0.000201731)
(0.00521901 0.00329081 0.000162069)
(0.00441946 0.00121129 8.99925e-05)
(0.00407073 -0.00033416 -2.92372e-05)
(0.00418926 -0.0019279 -0.000154071)
(0.00464797 -0.00417412 -0.000236109)
(0.00821205 0.00422921 0.000182266)
(0.00749623 0.00161858 0.000103812)
(0.00715155 -0.000557028 -1.33709e-05)
(0.00716226 -0.0027808 -0.000134182)
(0.00743591 -0.00554532 -0.000219274)
(0.0115171 0.00481784 0.000184502)
(0.0109109 0.00183127 0.000109633)
(0.010574 -0.000808628 8.24927e-06)
(0.0104931 -0.00348956 -9.52045e-05)
(0.0105833 -0.00659803 -0.00017289)
(0.0150164 0.00511002 0.000176757)
(0.0145061 0.00187855 0.00011078)
(0.0141802 -0.00107785 2.99568e-05)
(0.0140289 -0.00406427 -5.15928e-05)
(0.0139775 -0.00738116 -0.000117056)
(0.018585 0.00516706 0.000165723)
(0.0181527 0.00180216 0.000109805)
(0.0178402 -0.00135169 4.83416e-05)
(0.0176416 -0.00452402 -1.27126e-05)
(0.0174946 -0.00794217 -6.55296e-05)
(0.0221443 0.00507721 0.0001564)
(0.0217595 0.00164601 0.000108309)
(0.021455 -0.001619 6.08504e-05)
(0.0212335 -0.00489364 1.45801e-05)
(0.0210403 -0.00835097 -2.84236e-05)
(0.0256986 0.00492194 0.000153371)
(0.0252896 0.00146436 0.00010811)
(0.0249423 -0.0018667 6.49103e-05)
(0.0247408 -0.00521277 2.22655e-05)
(0.0245681 -0.00869214 -1.79274e-05)
(0 0 0)
(0 0 0)
(0 0 0)
(0 0 0)
(0 0 0)
(0.00282192 0.00217644 6.47705e-05)
(0.0018175 0.000597792 3.58746e-05)
(0.00152791 -0.000145503 -1.98543e-05)
(0.00170169 -0.000921378 -8.12298e-05)
(0.00241372 -0.00270848 -0.000118104)
(0.00525762 0.00329262 9.39073e-05)
(0.00444263 0.00120865 5.2261e-05)
(0.00408837 -0.000334549 -1.95415e-05)
(0.00421362 -0.00192686 -9.46947e-05)
(0.00468733 -0.0041808 -0.000142134)
(0.00826004 0.00422182 0.000111137)
(0.00753104 0.00161103 6.39385e-05)
(0.00718179 -0.000558455 -8.90743e-06)
(0.00719816 -0.00277648 -8.39319e-05)
(0.00748486 -0.00554277 -0.000135031)
(0.0115693 0.00480284 0.000119118)
(0.0109535 0.00181985 7.16128e-05)
(0.0106131 -0.000811139 6.15013e-06)
(0.0105363 -0.00348322 -6.05151e-05)
(0.0106361 -0.00658864 -0.000109631)
(0.0150687 0.00509145 0.000121162)
(0.0145523 0.00186559 7.64546e-05)
(0.0142241 -0.0010809 2.16177e-05)
(0.0140752 -0.00405725 -3.35363e-05)
(0.0140296 -0.00736841 -7.7679e-05)
(0.0186351 0.00514922 0.000119983)
(0.0181996 0.0017901 7.92165e-05)
(0.0178856 -0.00135461 3.47351e-05)
(0.017688 -0.00451745 -9.28446e-06)
(0.0175433 -0.00792914 -4.76295e-05)
(0.0221916 0.0050634 0.000117643)
(0.0218055 0.00163647 8.01803e-05)
(0.0215 -0.00162145 4.31776e-05)
(0.0212782 -0.00488841 7.17387e-06)
(0.0210846 -0.00834015 -2.63659e-05)
(0.0257442 0.00491284 0.000116175)
(0.0253342 0.00145781 7.97917e-05)
(0.0249851 -0.00186886 4.45474e-05)
(0.0247824 -0.00520993 9.83298e-06)
(0.0246082 -0.00868515 -2.26088e-05)
(0 0 0)
(0 0 0)
(0 0 0)
(0 0 0)
(0 0 0)
(0.00283576 0.00218275 3.40534e-05)
(0.00182158 0.000599069 1.87247e-05)
(0.00152896 -0.000145189 -1.18771e-05)
(0.00170582 -0.000922668 -4.5503e-05)
(0.00242644 -0.00271847 -6.51097e-05)
(0.00527879 0.0032957 5.14896e-05)
(0.0044542 0.0012087 2.87168e-05)
(0.00409645 -0.000333682 -1.17819e-05)
(0.00422553 -0.00192578 -5.41214e-05)
(0.00470837 -0.00418488 -8.00288e-05)
(0.00828781 0.00422072 6.34508e-05)
(0.00755032 0.00160876 3.6834e-05)
(0.00719809 -0.000557716 -5.25362e-06)
(0.00721779 -0.00277308 -4.85378e-05)
(0.00751252 -0.00554184 -7.72681e-05)
(0.0116014 0.0047976 7.10075e-05)
(0.0109792 0.00181534 4.31437e-05)
(0.0106365 -0.000810864 4.22858e-06)
(0.0105622 -0.00347827 -3.53257e-05)
(0.010668 -0.00658354 -6.40191e-05)
(0.0151032 0.00508363 7.53582e-05)
(0.0145823 0.00185983 4.78973e-05)
(0.0142525 -0.001081 1.41041e-05)
(0.0141051 -0.00405162 -1.98026e-05)
(0.0140633 -0.00736075 -4.67975e-05)
(0.0186701 0.00514092 7.73593e-05)
(0.0182318 0.00178438 5.10979e-05)
(0.0179167 -0.00135479 2.2457e-05)
(0.0177198 -0.00451187 -5.81933e-06)
(0.0175769 -0.00792056 -3.04357e-05)
(0.022226 0.00505641 7.7626e-05)
(0.0218383 0.00163176 5.25041e-05)
(0.0215319 -0.00162152 2.75728e-05)
(0.02131 -0.00488348 3.33792e-06)
(0.0211166 -0.00833211 -1.9152e-05)
(0.0257778 0.00490778 7.67265e-05)
(0.0253662 0.00145446 5.19249e-05)
(0.0250155 -0.00186888 2.7671e-05)
(0.0248125 -0.00520631 3.80001e-06)
(0.024638 -0.0086789 -1.83527e-05)
(0 0 0)
(0 0 0)
(0 0 0)
(0 0 0)
(0 0 0)
(0.00284257 0.00218618 1.46663e-05)
(0.00182328 0.000599973 8.02448e-06)
(0.001529 -0.000144863 -5.52147e-06)
(0.00170745 -0.000923271 -2.03737e-05)
(0.00243256 -0.00272343 -2.88692e-05)
(0.00528941 0.00329815 2.27966e-05)
(0.00445962 0.00120941 1.27343e-05)
(0.00409992 -0.000332789 -5.49809e-06)
(0.00423098 -0.00192505 -2.45377e-05)
(0.00471868 -0.00418708 -3.59648e-05)
(0.00830226 0.00422156 2.88394e-05)
(0.00756005 0.00160856 1.68454e-05)
(0.00720615 -0.000556673 -2.39371e-06)
(0.00722757 -0.00277103 -2.21562e-05)
(0.00752661 -0.00554162 -3.50682e-05)
(0.0116189 0.00479653 3.31531e-05)
(0.0109929 0.00181406 2.0289e-05)
(0.010649 -0.000809956 2.18042e-06)
(0.010576 -0.00347528 -1.62002e-05)
(0.010685 -0.00658115 -2.94066e-05)
(0.0151227 0.00508111 3.60807e-05)
(0.0145992 0.00185782 2.30516e-05)
(0.0142684 -0.00108027 6.97849e-06)
(0.0141219 -0.00404815 -9.12379e-06)
(0.0140821 -0.00735681 -2.18928e-05)
(0.0186906 0.0051378 3.77962e-05)
(0.0182506 0.00178222 2.4998e-05)
(0.0179348 -0.00135414 1.10237e-05)
(0.0177383 -0.0045083 -2.75428e-06)
(0.0175963 -0.00791582 -1.47232e-05)
(0.0222465 0.00505351 3.83936e-05)
(0.0218577 0.00162991 2.58832e-05)
(0.0215507 -0.00162086 1.34156e-05)
(0.0213288 -0.00488016 1.30065e-06)
(0.0211356 -0.00832732 -9.89732e-06)
(0.0257981 0.00490546 3.79042e-05)
(0.0253852 0.0014531 2.54566e-05)
(0.0250335 -0.00186825 1.3217e-05)
(0.0248304 -0.00520359 1.17181e-06)
(0.0246559 -0.00867481 -9.95835e-06)
(0 0 0)
(0 0 0)
(0 0 0)
(0 0 0)
(0 0 0)
(0.00284463 0.00218727 0)
(0.00182375 0.000600295 -0)
(0.00152895 -0.000144734 0)
(0.00170788 -0.000923447 0)
(0.00243438 -0.00272493 0)
(0.00529264 0.00329905 0)
(0.0044612 0.00120975 -0)
(0.00410089 -0.000332436 0)
(0.00423255 -0.0019248 0)
(0.00472177 -0.00418777 0)
(0.00830673 0.00422207 0)
(0.00756303 0.00160867 -0)
(0.00720858 -0.000556234 0)
(0.00723054 -0.00277034 0)
(0.00753093 -0.0055416 0)
(0.0116245 0.0047965 0)
(0.0109973 0.00181387 -0)
(0.0106529 -0.000809537 0)
(0.0105803 -0.00347429 0)
(0.0106903 -0.00658046 0)
(0.015129 0.00508062 0)
(0.0146046 0.00185739 -0)
(0.0142735 -0.0010799 0)
(0.0141272 -0.00404699 0)
(0.0140881 -0.00735561 0)
(0.0186973 0.00513707 0)
(0.0182567 0.00178171 -0)
(0.0179407 -0.0013538 0)
(0.0177443 -0.00450709 0)
(0.0176026 -0.00791431 0)
(0.0222533 0.00505276 0)
(0.0218641 0.00162946 -0)
(0.0215569 -0.00162053 0)
(0.021335 -0.00487899 0)
(0.0211419 -0.00832573 0)
(0.0258048 0.00490479 0)
(0.0253915 0.00145275 -0)
(0.0250395 -0.00186792 0)
(0.0248363 -0.00520259 0)
(0.0246619 -0.0086734 0)
)
;

boundaryField
{
    interface
    {
        type            calculated;
    }
    symmetry
    {
        type            symmetryPlane;
    }
    bottom
    {
        type            fixedValue;
        value           uniform (0 0 0);
    }
}


// ************************************************************************* //
