/*--------------------------------*- C++ -*----------------------------------*\
| =========                 |                                                 |
| \\      /  F ield         | foam-extend: Open Source CFD                    |
|  \\    /   O peration     | Version:     3.1                                |
|   \\  /    A nd           | Web:         http://www.extend-project.de       |
|    \\/     M anipulation  |                                                 |
\*---------------------------------------------------------------------------*/
FoamFile
{
    version     2.0;
    format      ascii;
    class       volScalarField;
    location    "1";
    object      sigmaEq;
}
// * * * * * * * * * * * * * * * * * * * * * * * * * * * * * * * * * * * * * //

dimensions      [1 -1 -2 0 0 0 0];

internalField   nonuniform List<scalar> 
256
(
623.513
263.464
284.288
631.803
459.859
341.051
327.85
431.623
406.304
321.27
311.181
382.037
308.921
282.622
275.039
285.338
221.557
234.344
228.736
201.005
146.129
180.167
176.251
129.21
90.0912
123.306
120.374
76.1872
63.8806
66.9233
60.5946
48.9374
611.544
309.44
321.885
612.771
476.301
361.64
361.55
470.691
400.25
309.733
304.374
385.901
301.84
259.892
253.099
281.784
212.007
207.77
201.458
191.091
136.801
155.894
151.167
118.256
82.4133
105.083
101.808
67.1315
60.3968
58.7192
51.7823
44.3726
619.285
326.212
335.399
615.364
472.555
370.911
372.618
468.01
398.17
313.483
309.077
385.41
299.785
257.472
250.606
280.076
210.587
202.58
195.741
188.837
135.961
150.069
144.851
116.082
81.8766
100.603
97.0406
64.9404
59.6024
57.5297
49.4001
39.9307
626.213
332.895
340.531
619.446
472.132
377.225
378.675
465.424
397.723
318.596
313.996
384.136
299.782
260.743
253.533
279.306
211.26
204.396
197.117
188.384
137.244
150.947
145.319
115.923
83.3722
101.17
97.2833
64.7786
60.6968
58.3395
49.3237
38.7574
630.816
335.554
342.341
622.418
473.522
381.205
382.006
464.645
398.57
322.784
317.738
383.676
300.732
264.588
257.025
279.201
212.584
207.645
200.036
188.588
138.906
153.496
147.563
116.329
85.0592
103.035
98.9004
65.2232
62.0799
59.5877
50.0453
39.0297
633.652
336.59
342.872
624.239
475.148
383.558
383.734
464.608
399.77
325.676
320.178
383.696
301.845
267.591
259.716
279.368
213.792
210.439
202.588
188.898
140.218
155.836
149.7
116.729
86.2933
104.759
100.468
65.6442
63.1385
60.6462
50.797
39.5373
635.287
336.981
342.963
625.249
476.398
384.848
384.564
464.753
400.775
327.423
321.578
383.844
302.729
269.517
261.408
279.559
214.64
212.303
204.286
189.13
141.052
157.431
151.169
116.987
87.036
105.929
101.545
65.9072
63.7966
61.3572
51.3223
39.8949
636.037
337.11
342.951
625.694
477.055
385.415
384.892
464.86
401.326
328.235
322.203
383.948
303.204
270.439
262.205
279.671
215.068
213.21
205.109
189.245
141.446
158.212
151.89
117.105
87.3716
106.499
102.069
66.0216
64.0994
61.7082
51.5784
40.058
)
;

boundaryField
{
    interface
    {
        type            calculated;
        value           nonuniform List<scalar> 
192
(
1020.24
528.658
499.743
357.508
242.52
144.825
82.0986
57.7993
988.305
561.257
496.352
360.013
242.902
146.259
83.5962
59.1514
1005.67
549.084
491.055
356.736
241.391
146.246
83.961
56.6021
1021.09
544.247
488.143
354.899
241.131
147.481
86.1794
57.9968
1031.22
543.784
487.719
354.514
241.538
148.737
88.0487
59.5642
1037.43
544.742
488.414
354.893
242.112
149.654
89.2386
60.6686
1040.97
545.789
489.264
355.42
242.586
150.2
89.8721
61.2717
1042.58
546.397
489.779
355.751
242.841
150.444
90.1282
61.5093
710.121
430.574
417.992
316.134
231.773
155.757
98.2198
68.9765
234.408
320.604
333.455
301.074
255.222
198.767
137.37
75.2968
266.937
293.553
320.634
293.101
250.239
195.483
134.768
69.1648
723.758
377.406
389.031
290.864
212.687
140.761
85.6249
54.2805
1001.36
503.063
475.348
331.255
217.656
122.405
61.0799
42.8676
962.397
559.087
480.125
336.551
217.089
121.857
60.9453
43.279
977.116
547.324
476.571
334.345
215.352
120.93
59.5247
35.9181
991.691
539.708
472.932
331.976
213.992
120.448
59.4905
34.7017
1001.45
536.777
471.307
330.623
213.2
120.112
59.6199
35.2925
1007.34
535.95
470.897
330.06
212.76
119.828
59.6365
36.0566
1010.61
535.848
470.937
329.882
212.525
119.605
59.5697
36.5127
1012.05
535.894
471.03
329.841
212.418
119.479
59.5097
36.6922
65.7177
63.5068
63.1798
64.0255
65.3438
66.3663
67.0255
67.312
44.7843
43.3469
43.8154
44.8024
45.8205
46.6432
47.2071
47.497
30.5483
27.4287
24.7934
23.5104
23.3242
23.5396
23.7792
23.9093
51.1375
47.2663
42.0015
40.1393
40.3803
40.9932
41.4624
41.682
)
;
    }
    symmetry
    {
        type            symmetryPlane;
    }
    bottom
    {
        type            calculated;
        value           nonuniform List<scalar> 
32
(
565.069
491.346
485.299
488.503
491.603
493.616
494.763
495.276
170.187
201.857
211.237
212.713
212.106
211.203
210.521
210.174
226.698
226.442
224.903
221.845
219.387
217.774
216.839
216.414
641.562
523.439
493.148
486.362
485.823
486.599
487.343
487.738
)
;
    }
}


// ************************************************************************* //
