/*--------------------------------*- C++ -*----------------------------------*\
| =========                 |                                                 |
| \\      /  F ield         | foam-extend: Open Source CFD                    |
|  \\    /   O peration     | Version:     3.1                                |
|   \\  /    A nd           | Web:         http://www.extend-project.de       |
|    \\/     M anipulation  |                                                 |
\*---------------------------------------------------------------------------*/
FoamFile
{
    version     2.0;
    format      ascii;
    class       volScalarField;
    location    "1";
    object      sigmaCauchyEq;
}
// * * * * * * * * * * * * * * * * * * * * * * * * * * * * * * * * * * * * * //

dimensions      [1 -1 -2 0 0 0 0];

internalField   nonuniform List<scalar> 
256
(
757.208
271.326
261.78
462.827
474.088
342.971
316.559
407.819
427.074
321.703
300.809
351.887
316.751
281.553
267.938
270.604
223.914
232.583
224.081
193.593
145.59
178.179
173.519
126.331
88.8782
121.601
118.956
75.3149
62.5171
65.6172
60.2366
48.7526
738.048
318.651
297.9
455.578
500.865
367.285
341.733
429.728
420.999
311.076
292.139
354.161
310.622
259.864
245.105
265.704
214.623
206.759
196.72
183.616
136.472
154.462
148.563
115.425
81.3438
103.712
100.547
66.2998
59.1572
57.6143
51.4419
44.1424
750.107
336.325
309.58
452.287
494.582
376.36
351.506
427.845
417.781
314.447
296.404
353.537
307.975
257.182
242.573
263.942
212.92
201.469
191.047
181.414
135.564
148.658
142.293
113.267
80.8444
99.306
95.7996
64.0925
58.4084
56.4768
49.057
39.7433
760.349
343.356
313.782
451.655
492.139
382.389
357.306
426.862
416.132
319.157
301.326
352.94
307.289
260.146
245.531
263.502
213.318
203.112
192.425
181.08
136.79
149.475
142.739
113.122
82.3706
99.8725
96.0105
63.9029
59.5433
57.2866
48.9569
38.5476
766.994
346.153
315.174
451.76
492.357
386.204
360.634
427.249
416.136
323.091
305.155
353.159
307.704
263.783
249.064
263.76
214.405
206.227
195.339
181.42
138.383
151.958
144.952
113.555
84.0548
101.712
97.592
64.3342
60.9284
58.5145
49.6585
38.8014
771.045
347.251
315.529
451.95
493.377
388.479
362.425
427.927
416.85
325.845
307.684
353.654
308.475
266.663
251.796
264.204
215.443
208.934
197.892
181.847
139.632
154.247
147.07
113.987
85.2722
103.409
99.135
64.7532
61.9752
59.5501
50.3972
39.2989
773.369
347.673
315.553
452.09
494.338
389.738
363.318
428.472
417.609
327.524
309.149
354.086
309.167
268.525
253.52
264.573
216.186
210.746
199.597
182.16
140.42
155.808
148.53
114.272
85.9969
104.557
100.198
65.0196
62.6191
60.2431
50.9156
39.6531
774.433
347.818
315.519
452.159
494.882
390.297
363.682
428.756
418.059
328.309
309.809
354.32
309.558
269.42
254.335
264.77
216.564
211.631
200.423
182.316
140.79
156.573
149.248
114.405
86.3217
105.116
100.717
65.137
62.9133
60.5846
51.1688
39.8154
)
;

boundaryField
{
    interface
    {
        type            calculated;
        value           nonuniform List<scalar> 
192
(
1201.25
572.631
537.683
374.569
248.446
145.497
81.3714
56.96
1150.79
610.096
532.793
376.651
248.43
146.744
82.7785
58.2743
1168.93
593.229
525.023
372.201
246.463
146.642
83.1919
55.8451
1186.52
585.237
519.924
369.251
245.783
147.793
85.4372
57.3094
1198.37
583.086
518.096
368.059
245.862
148.973
87.3107
58.9042
1205.72
583.212
518.01
367.933
246.207
149.82
88.489
60.0128
1209.95
583.882
518.471
368.184
246.539
150.313
89.1073
60.6117
1211.88
584.35
518.831
368.395
246.727
150.53
89.354
60.846
799.079
440.146
434.56
322.005
233.204
154.799
96.7813
67.4893
239.437
320.612
333.098
299.183
252.809
196.31
135.391
73.8933
250.473
287.107
311.868
286.661
245.634
192.622
133.21
68.7015
618.118
362.17
364.222
278.039
205.783
137.938
84.7301
54.1039
815.221
452.396
430.029
308.596
207.5
118.971
60.1836
42.4901
793.365
496.35
433.409
312.855
206.733
118.294
59.948
42.8599
808.284
487.776
430.865
310.997
205.146
117.392
58.5236
35.5816
821.708
483.227
428.878
309.325
204.036
116.971
58.4915
34.3482
830.486
482.251
428.553
308.613
203.484
116.699
58.6273
34.9158
835.745
482.555
428.98
308.509
203.235
116.474
58.654
35.6673
838.655
483.06
429.497
308.613
203.13
116.296
58.5974
36.1186
839.943
483.368
429.803
308.703
203.087
116.194
58.5437
36.2964
64.1009
62.0101
61.7781
62.6795
64.0058
65.0157
65.6585
65.9341
43.8936
42.5266
43.0109
43.9921
44.9933
45.7971
46.346
46.628
30.3447
27.2353
24.6147
23.3311
23.1374
23.3462
23.5817
23.71
51.0239
47.1276
41.8999
40.0109
40.2224
40.8197
41.2825
41.5002
)
;
    }
    symmetry
    {
        type            symmetryPlane;
    }
    bottom
    {
        type            calculated;
        value           nonuniform List<scalar> 
32
(
671.303
578.553
573.851
579.475
584.248
587.278
588.994
589.762
174.695
206.791
216.683
218.364
217.838
216.969
216.302
215.961
210.88
211.55
209.593
206.393
203.897
202.278
201.346
200.923
501.424
412.558
383.844
375.409
373.175
372.743
372.761
372.823
)
;
    }
}


// ************************************************************************* //
