/*--------------------------------*- C++ -*----------------------------------*\
| =========                 |                                                 |
| \\      /  F ield         | foam-extend: Open Source CFD                    |
|  \\    /   O peration     | Version:     3.1                                |
|   \\  /    A nd           | Web:         http://www.extend-project.de       |
|    \\/     M anipulation  |                                                 |
\*---------------------------------------------------------------------------*/
FoamFile
{
    version     2.0;
    format      ascii;
    class       volSymmTensorField;
    location    "1";
    object      sigmaCauchy;
}
// * * * * * * * * * * * * * * * * * * * * * * * * * * * * * * * * * * * * * //

dimensions      [1 -1 -2 0 0 0 0];

internalField   nonuniform List<symmTensor> 
256
(
(421.227 223.487 5.40435 1063.37 118.61 474.016)
(39.145 138.053 -18.5007 156.525 28.2794 46.0451)
(-182.316 104.684 -26.2432 -352.954 -45.0673 -192.437)
(-610.819 72.8473 -18.8439 -1053.42 -77.8555 -652.896)
(-192.641 105.256 -8.30002 285.232 -15.5499 -92.6951)
(-69.0663 181.544 -32.1673 61.9094 -8.42615 -54.2907)
(6.95915 148.788 -34.9487 -182.237 8.14413 -32.0831)
(101.503 19.5409 -11.7787 -341.833 19.5744 7.09458)
(-64.2441 126.598 -3.67653 335.325 -6.15774 15.4792)
(-59.4486 176.965 -20.3585 36.7195 -2.71197 -47.9846)
(-1.77264 144.595 -21.8271 -183.598 1.87383 -53.6074)
(-30.0338 32.6886 -5.06652 -411.305 5.8915 -113.844)
(-87.3553 107.307 -5.03268 193.36 -13.7067 -24.757)
(-53.0391 158.851 -15.7658 0.167786 -3.8073 -52.0895)
(5.88441 131.699 -15.6141 -149.975 4.38326 -44.6768)
(5.38217 30.1876 -3.23112 -287.097 13.2549 -64.8585)
(-77.909 86.8717 -4.20617 104.939 -12.7759 -29.8389)
(-47.0093 132.991 -11.2089 -23.8725 -3.12682 -50.5095)
(1.06096 112.491 -10.7288 -123.356 3.96133 -45.4225)
(-2.12303 30.6975 -1.59008 -209.056 12.3271 -60.0728)
(-79.909 62.3281 -3.74844 29.1731 -10.745 -40.5151)
(-47.7439 102.409 -8.0499 -41.0266 -2.53464 -50.4865)
(-6.16825 88.9114 -7.53153 -96.7131 3.42331 -45.1991)
(-2.94491 27.5385 -1.17232 -134.603 10.7305 -50.4841)
(-82.041 38.8931 -3.44261 -17.402 -7.53388 -45.0476)
(-52.94 69.9276 -5.70111 -49.9413 -2.01035 -50.5573)
(-15.2087 61.8094 -5.20557 -73.9434 2.48799 -46.0676)
(-5.7805 19.8348 -1.38084 -81.5161 7.58069 -47.1184)
(-98.4006 20.5248 -2.70644 -43.1575 -2.55725 -53.055)
(-78.1627 36.3741 -3.07092 -59.874 -0.631297 -61.5323)
(-11.2956 29.002 -2.96803 -47.3752 0.969676 -39.3128)
(1.02536 5.49311 -1.81386 -48.6703 2.66686 -43.8934)
(422.015 256.629 3.10367 1024.88 77.0023 485.257)
(51.3453 174.436 -16.2068 146.751 16.412 56.2512)
(-161.776 140.592 -22.9773 -326.774 -34.8218 -182.583)
(-581.896 95.7806 -16.3721 -1020.75 -59.7597 -646.175)
(-119.074 117.886 -7.59424 386.014 7.51742 1.19413)
(-20.8502 198.045 -31.9983 105.146 0.0155236 -5.34341)
(-55.7251 158.871 -35.7146 -266.046 -0.68501 -97.1855)
(2.23613 23.6523 -14.5835 -467.29 -2.70461 -102.193)
(-59.3652 121.249 -6.46296 339.328 -6.66636 23.1054)
(-42.843 170.81 -24.8092 48.2701 -0.968564 -31.4213)
(-22.7824 137.057 -25.9487 -203.669 6.97016 -65.413)
(-39.1544 26.7481 -7.79697 -420.911 12.671 -114.639)
(-73.9286 99.3304 -5.09247 209.414 -14.0244 -9.75662)
(-39.686 145.794 -16.9154 15.2884 -2.26093 -37.1344)
(-16.8969 118.031 -16.7489 -163.435 9.25036 -57.3114)
(-16.107 22.5625 -3.61628 -301.97 19.8141 -78.0086)
(-73.0889 77.0081 -3.06883 111.634 -15.7722 -24.3846)
(-40.372 117.737 -10.36 -12.5383 -2.94711 -41.7573)
(-15.2025 97.6776 -9.72626 -125.912 8.86354 -51.4786)
(-14.1959 22.4581 -0.291495 -209.577 20.3727 -63.6555)
(-76.7248 53.6428 -1.30059 33.7784 -13.9898 -37.0135)
(-44.3158 88.6929 -5.35456 -32.6737 -2.94923 -45.2439)
(-18.0297 76.0268 -4.70209 -95.0285 7.10293 -48.3845)
(-12.6866 20.5811 1.45298 -132.498 17.3357 -53.1447)
(-81.0753 32.3998 0.129006 -16.1291 -9.78465 -44.5035)
(-52.3336 59.727 -1.70247 -46.1305 -2.36229 -49.2648)
(-22.1862 52.6054 -1.21705 -70.2987 4.73015 -46.5713)
(-11.5969 15.054 2.14042 -77.6026 11.9207 -47.4589)
(-96.0652 17.8483 1.53318 -41.3752 -3.98151 -53.0345)
(-77.3164 31.6565 1.25344 -58.1157 -1.00765 -62.3538)
(-16.582 24.9883 1.21459 -46.5437 1.98028 -40.7039)
(-4.75343 3.9051 2.09469 -48.6716 4.95056 -45.9351)
(443.285 273.992 1.1653 1054.79 44.1813 522.923)
(58.5953 186.814 -11.3699 151.161 8.16374 67.4361)
(-163.49 151.671 -15.8505 -333.441 -22.6797 -194.908)
(-610.155 102.181 -11.3392 -1057.11 -36.8825 -695.973)
(-118.679 122.025 -5.98991 384.379 9.328 33.9926)
(-15.8872 206.106 -22.9478 106.966 1.57554 9.46625)
(-59.866 165.986 -26.0812 -279.491 -1.70007 -117.937)
(-0.767636 25.7253 -12.156 -478.027 -4.8053 -140.801)
(-58.6726 122.417 -5.87042 342.167 -0.993922 47.0197)
(-41.2977 174.076 -19.427 49.5811 1.08492 -21.1582)
(-24.9413 139.322 -20.6426 -213.131 5.5435 -77.9161)
(-43.558 26.3436 -7.69212 -432.26 8.24674 -141.951)
(-74.1265 98.728 -4.57548 211.445 -7.4084 3.7267)
(-39.7305 144.682 -13.7485 17.1248 -0.0115978 -30.0744)
(-19.8133 116.505 -13.7555 -167.841 8.45381 -63.7375)
(-20.8691 21.6309 -3.72503 -309.416 15.218 -93.8628)
(-75.5175 75.3765 -2.8352 112.346 -9.84023 -20.3963)
(-41.5252 114.77 -8.15082 -10.2409 -0.886309 -37.6107)
(-18.3709 94.5889 -7.61654 -127.352 8.57912 -54.0158)
(-16.8953 20.8825 -0.5964 -212.4 16.7945 -68.9438)
(-79.9366 51.925 -1.11424 34.0612 -9.32059 -39.6126)
(-45.8228 85.3409 -3.59666 -30.4449 -1.25313 -43.5319)
(-20.7476 72.7736 -2.94732 -94.5929 7.17053 -48.2306)
(-14.0634 19.0364 1.34195 -132.833 14.892 -51.2701)
(-84.0324 31.0139 0.326616 -15.6021 -6.7303 -51.2293)
(-53.4889 57.1357 -0.253452 -44.2544 -1.12924 -49.3636)
(-23.9245 50.2423 0.241889 -69.0557 4.93466 -44.5273)
(-11.6372 13.877 2.20275 -76.5632 10.6624 -40.4984)
(-99.2773 17.5342 1.45617 -42.6873 -2.75031 -63.345)
(-77.2893 30.7578 1.85209 -56.4495 -0.537813 -63.0471)
(-16.8517 24.3151 1.80261 -44.6899 1.95503 -36.2909)
(-1.49582 3.79365 1.9461 -44.25 4.40037 -32.6691)
(455.284 282.632 0.333348 1075.81 24.777 546.776)
(61.5496 191.55 -7.47268 154.132 3.89319 73.5364)
(-166.455 155.637 -10.234 -339.636 -14.3186 -204.389)
(-630.236 104.367 -7.198 -1082.91 -22.1163 -730.057)
(-120.484 124.267 -4.02313 382.707 7.5841 55.268)
(-14.8259 210.971 -15.3127 107.101 1.72552 17.2777)
(-59.7336 170.481 -17.5661 -284.186 -1.4691 -130.006)
(0.259206 26.7017 -8.43669 -481.942 -4.06988 -167.216)
(-59.1305 124.309 -4.17153 342.619 1.85431 66.2921)
(-41.6425 177.751 -13.752 48.8843 1.93424 -15.0761)
(-23.8827 142.644 -14.8011 -216.802 3.88761 -86.5822)
(-44.1296 27.3168 -5.9309 -437.909 4.64884 -164.46)
(-75.1134 99.7954 -3.28486 211.998 -2.31488 16.7131)
(-40.4989 146.875 -10.0892 16.7906 1.41668 -25.4917)
(-19.4289 118.466 -10.2303 -170.293 6.43459 -68.892)
(-21.1156 22.218 -3.16289 -313.522 9.89563 -108.138)
(-76.6547 75.9553 -2.00058 113.424 -4.39477 -13.7002)
(-42.5322 115.867 -6.03909 -9.96088 0.761917 -34.7316)
(-18.564 95.54 -5.70006 -128.722 6.86748 -56.2186)
(-17.0659 21.1388 -0.725306 -215.037 11.6432 -75.469)
(-81.037 52.2415 -0.696195 35.6765 -4.66922 -38.1922)
(-46.7995 85.8031 -2.55615 -29.6576 0.267846 -42.2266)
(-21.0565 73.1542 -2.0582 -95.0036 5.98742 -48.11)
(-14.0713 19.0723 0.937035 -134.315 10.8114 -51.6529)
(-84.6 31.187 0.361605 -13.3431 -3.62266 -53.343)
(-54.1054 57.3989 -0.0214944 -43.1286 -0.0146423 -49.1327)
(-23.9688 50.4819 0.397484 -68.7354 4.2726 -42.5451)
(-11.4792 13.8279 1.74551 -77.2146 8.09041 -36.3729)
(-99.8146 17.8238 1.0248 -41.2286 -1.64381 -67.9049)
(-77.5257 31.0663 1.25232 -55.2818 -0.0932421 -63.1516)
(-16.5185 24.5888 1.26461 -43.9251 1.77849 -32.5276)
(-0.331917 3.90548 1.48988 -43.377 3.52436 -24.4184)
(461.389 286.93 0.0330383 1088.2 13.7916 560.207)
(62.7644 193.357 -4.70807 156.003 1.80309 76.7528)
(-168.782 157.016 -6.34607 -343.637 -8.83592 -210.529)
(-641.969 105.117 -4.37776 -1098.04 -13.0969 -750.141)
(-122.057 125.607 -2.52855 382.706 5.47744 67.9903)
(-14.5426 213.747 -9.7694 107.537 1.45243 21.6047)
(-59.6518 173.028 -11.2588 -286.535 -1.06327 -137.739)
(1.28612 27.1135 -5.43292 -484.399 -2.96148 -184.073)
(-60.0427 125.78 -2.69709 342.839 2.65601 78.7163)
(-41.9294 180.536 -9.15719 48.4689 1.99843 -11.4042)
(-22.9183 145.268 -9.95347 -218.537 2.5994 -92.5561)
(-43.6833 28.1243 -4.09989 -440.937 2.50325 -179.688)
(-76.2016 101.004 -2.10903 212.02 0.336668 25.9705)
(-40.8338 149.294 -6.90598 16.3897 1.90821 -22.4672)
(-18.6614 120.763 -7.10471 -171.711 4.52397 -72.8047)
(-20.4248 23.0145 -2.34746 -315.763 6.0069 -118.729)
(-77.6345 76.9456 -1.23685 113.888 -1.07493 -8.12078)
(-42.8992 117.788 -4.19888 -10.0434 1.52499 -32.6156)
(-18.0547 97.3574 -4.04289 -129.698 5.01454 -58.0929)
(-16.4577 21.8053 -0.668112 -216.665 7.43641 -81.1031)
(-81.8624 53.0145 -0.362254 36.6296 -1.60474 -36.0278)
(-47.0921 87.2415 -1.78547 -29.3073 1.07361 -40.9778)
(-20.6707 74.5025 -1.48057 -95.4585 4.51938 -48.2376)
(-13.4432 19.5556 0.55341 -135.261 7.19326 -52.8705)
(-85.0626 31.7262 0.30279 -11.9131 -1.44062 -53.5787)
(-54.2283 58.4232 -0.0585 -42.431 0.624718 -48.457)
(-23.5181 51.4424 0.224033 -68.654 3.31603 -41.1692)
(-10.7836 14.1331 1.16724 -77.5276 5.58223 -34.1047)
(-100.416 18.2083 0.616704 -40.2536 -0.738262 -69.8093)
(-77.711 31.6661 0.633674 -54.5462 0.20303 -62.6753)
(-15.782 25.1058 0.646131 -43.2953 1.42219 -29.5952)
(1.119 4.06516 0.932313 -42.5675 2.50212 -18.9355)
(464.516 289.098 -0.0399826 1095.39 7.51239 567.582)
(63.2635 194.017 -2.8091 157.2 0.811756 78.4244)
(-170.305 157.44 -3.73938 -345.982 -5.22045 -214.257)
(-648.565 105.352 -2.53324 -1106.55 -7.50678 -761.551)
(-123.079 126.389 -1.47943 383.466 3.62015 75.3199)
(-14.5364 215.257 -5.8869 108.094 1.0558 23.9167)
(-59.7181 174.379 -6.80081 -287.799 -0.690317 -142.575)
(1.8582 27.2457 -3.26222 -486.095 -1.95076 -194.391)
(-60.7353 126.786 -1.60177 343.381 2.37713 86.2446)
(-42.128 182.362 -5.68878 48.4063 1.62759 -9.30394)
(-22.3287 146.984 -6.22892 -219.429 1.64634 -96.4792)
(-43.2605 28.6218 -2.58407 -442.77 1.29936 -189.328)
(-76.9732 101.945 -1.23116 212.161 1.22416 31.9435)
(-40.9637 151.135 -4.37592 16.1899 1.73501 -20.6146)
(-18.0334 122.52 -4.55885 -172.474 2.95406 -75.5049)
(-19.7448 23.6212 -1.5535 -317.004 3.45749 -125.777)
(-78.306 77.7816 -0.67999 114.143 0.39269 -4.13708)
(-42.9889 119.434 -2.69589 -10.1321 1.55124 -31.1875)
(-17.496 98.9332 -2.64923 -130.255 3.35939 -59.4828)
(-15.794 22.3959 -0.500975 -217.499 4.44528 -85.1869)
(-82.3974 53.6943 -0.14283 37.1505 -0.0903389 -33.9859)
(-47.1204 88.5774 -1.16643 -29.1395 1.2166 -39.9646)
(-20.1712 75.7776 -1.00824 -95.7175 3.0981 -48.4241)
(-12.7881 20.0403 0.299044 -135.674 4.43469 -54.152)
(-85.3792 32.2002 0.233829 -11.0972 -0.275539 -52.9329)
(-54.185 59.3864 -0.0951401 -42.0163 0.790216 -47.6848)
(-23.003 52.3591 0.0665518 -68.5631 2.31548 -40.2671)
(-10.1006 14.4569 0.706498 -77.5414 3.5311 -33.0564)
(-100.724 18.4985 0.358091 -39.4725 -0.223293 -69.8919)
(-77.8019 32.1797 0.256951 -54.057 0.296589 -61.8943)
(-15.1058 25.5485 0.255971 -42.832 1.01549 -27.6089)
(2.14382 4.1804 0.536036 -42.0837 1.61657 -15.9428)
(466.08 290.179 -0.0370307 1099.38 3.72446 571.437)
(63.4693 194.241 -1.47755 157.935 0.341128 79.2619)
(-171.185 157.537 -1.9501 -347.248 -2.73421 -216.351)
(-652.059 105.414 -1.30336 -1111.08 -3.85521 -767.668)
(-123.696 126.819 -0.761368 384.244 2.04832 79.2409)
(-14.6056 216.03 -3.11786 108.564 0.633003 25.0744)
(-59.8083 175.048 -3.6066 -288.452 -0.381445 -145.379)
(2.15924 27.267 -1.71726 -487.138 -1.09614 -200.223)
(-61.1814 127.398 -0.830652 343.952 1.57544 90.4235)
(-42.2589 183.425 -3.07338 48.5017 1.03957 -8.19416)
(-22.0133 147.97 -3.38208 -219.876 0.910908 -98.8345)
(-42.9857 28.8853 -1.40328 -443.842 0.614962 -194.91)
(-77.4543 102.555 -0.626689 212.372 1.0754 35.3988)
(-41.0129 152.297 -2.39495 16.1462 1.17003 -19.5777)
(-17.6289 123.623 -2.51821 -172.852 1.66305 -77.1731)
(-19.2786 23.9915 -0.870124 -317.672 1.77375 -129.986)
(-78.7253 78.3375 -0.324657 114.305 0.657097 -1.67892)
(-42.989 120.529 -1.48909 -10.1622 1.09903 -30.323)
(-17.0872 99.9835 -1.4868 -130.522 1.92124 -60.3761)
(-15.3074 22.7889 -0.301444 -217.876 2.33921 -87.75)
(-82.7332 54.1471 -0.0389151 37.4028 0.342585 -32.5291)
(-47.0795 89.4931 -0.655262 -29.0455 0.899342 -39.2681)
(-19.7822 76.6579 -0.586149 -95.8176 1.79711 -48.5744)
(-12.297 20.3817 0.142638 -135.78 2.38131 -55.0998)
(-85.6003 32.5111 0.145048 -10.6952 0.126466 -52.1937)
(-54.1151 60.0446 -0.0826158 -41.7761 0.607068 -47.0544)
(-22.6116 52.9898 -0.00463448 -68.461 1.3581 -39.7266)
(-9.5827 14.6867 0.367528 -77.4105 1.92607 -32.6128)
(-100.909 18.6784 0.180755 -39.0051 -0.0168556 -69.4102)
(-77.8428 32.5206 0.0787772 -53.762 0.236524 -61.18)
(-14.6162 25.8407 0.0717523 -42.5049 0.604249 -26.3886)
(2.83088 4.24876 0.264315 -41.7422 0.892993 -14.4016)
(466.736 290.632 -0.0137375 1101.17 1.12507 573.088)
(63.5451 194.306 -0.459461 158.288 0.0934322 79.6107)
(-171.583 157.546 -0.603717 -347.797 -0.848706 -217.288)
(-653.568 105.425 -0.400664 -1113.04 -1.18528 -770.331)
(-123.986 127.008 -0.233902 384.7 0.662093 80.9341)
(-14.6576 216.355 -0.973028 108.825 0.210377 25.5496)
(-59.8624 175.322 -1.12614 -288.728 -0.121267 -146.662)
(2.28971 27.261 -0.53394 -487.628 -0.352447 -202.844)
(-61.395 127.686 -0.25605 344.302 0.546189 92.2725)
(-42.3253 183.908 -0.968722 48.591 0.355469 -7.72216)
(-21.8779 148.412 -1.06869 -220.061 0.29166 -99.9357)
(-42.8557 28.9958 -0.443242 -444.338 0.180525 -197.458)
(-77.6807 102.851 -0.191033 212.522 0.409907 36.9665)
(-41.0302 152.848 -0.759885 16.1562 0.409482 -19.1182)
(-17.4353 124.143 -0.802848 -173.004 0.536639 -77.9652)
(-19.0497 24.1617 -0.279258 -317.966 0.544838 -131.939)
(-78.9229 78.6089 -0.0950827 114.393 0.284302 -0.519516)
(-42.9763 121.062 -0.474857 -10.1622 0.392491 -29.9191)
(-16.8786 100.494 -0.47819 -130.623 0.624608 -60.8086)
(-15.0591 22.979 -0.10034 -218.016 0.727832 -88.9709)
(-82.8917 54.3665 -0.00605324 37.5075 0.176716 -31.7844)
(-47.0463 89.9437 -0.211318 -28.9988 0.326593 -38.9169)
(-19.5773 77.0922 -0.192556 -95.8411 0.588209 -48.6533)
(-12.0424 20.5513 0.0412389 -135.783 0.748316 -55.5886)
(-85.7081 32.6586 0.0477286 -10.5323 0.088359 -51.7406)
(-54.071 60.3669 -0.0326698 -41.6638 0.223624 -46.7081)
(-22.407 53.2988 -0.00994594 -68.3924 0.446933 -39.472)
(-9.31437 14.7991 0.11197 -77.3037 0.609762 -32.4593)
(-100.984 18.762 0.0526023 -38.7882 0.010923 -69.0141)
(-77.8526 32.6873 0.0133797 -53.6208 0.0878233 -60.7652)
(-14.3674 25.9812 0.00986425 -42.3342 0.200729 -25.8101)
(3.16018 4.27807 0.0766482 -41.5687 0.285087 -13.7641)
)
;

boundaryField
{
    interface
    {
        type            calculated;
        value           nonuniform List<symmTensor> 
192
(
(-67.5892 113.656 19.1982 1220.1 162.055 292.091)
(-74.0027 52.3178 4.32044 530.572 -17.2388 17.0641)
(-71.3426 66.9476 5.8207 504.809 -8.18559 54.2786)
(-72.7442 52.346 3.50162 325.571 -20.3067 17.7096)
(-74.7972 37.158 2.87614 190.755 -19.4629 -1.46379)
(-77.1228 21.4701 2.62596 79.8831 -16.5775 -19.9088)
(-78.2107 10.2553 2.67132 10.2244 -11.5063 -29.3443)
(-76.1381 4.63773 2.67486 -15.2596 -4.41655 -27.8024)
(-71.0042 120.761 13.5075 1185.5 106.355 308.296)
(-78.7784 59.2047 5.43471 580.41 12.635 63.0993)
(-77.7788 65.8512 3.60483 494.519 -8.9578 50.4583)
(-79.4953 52.0387 1.62669 322.879 -20.2755 16.4681)
(-81.6883 36.2526 0.659835 183.91 -22.6686 -6.54927)
(-83.5746 20.825 0.481896 74.1684 -19.9219 -24.1824)
(-83.5342 9.60833 0.835709 5.74656 -13.6347 -32.7937)
(-78.8384 3.9792 1.30855 -16.3106 -5.44392 -29.6287)
(-72.5516 130.04 8.34132 1218.39 61.456 340.06)
(-81.6122 59.9299 4.22426 571.207 13.884 100.283)
(-80.9198 65.9135 3.01112 491.453 -1.41849 75.3653)
(-82.7996 51.8424 1.52075 320.459 -10.8121 28.5531)
(-84.962 35.9733 0.620157 181.867 -14.1204 -5.06334)
(-86.5235 20.6748 0.328879 73.2755 -13.1784 -30.0429)
(-85.7637 9.53991 0.480909 6.42733 -9.32369 -43.1304)
(-79.7251 3.57577 0.818844 -16.3553 -3.7197 -43.0402)
(-73.6964 135.882 4.99017 1242.37 34.5645 361.273)
(-83.4855 60.5131 3.02596 567.703 10.7674 127.624)
(-82.8506 66.254 2.46171 490.054 2.28347 98.9426)
(-84.7894 51.9403 1.56166 319.884 -3.74593 44.177)
(-86.8754 36.0705 0.897681 182.228 -6.56986 2.26967)
(-88.1943 20.8444 0.56956 74.6268 -6.76642 -29.5422)
(-86.974 9.73233 0.514562 8.72594 -5.11055 -47.3314)
(-80.1158 3.55749 0.600149 -14.5584 -2.25041 -49.9437)
(-74.6104 139.25 2.95459 1256.77 19.2696 373.471)
(-84.7857 61.0612 2.07411 567.623 7.54119 144.509)
(-84.1462 66.6521 1.87389 490.095 3.27202 115.004)
(-86.0965 52.1284 1.40072 319.902 -0.0858024 56.214)
(-88.1128 36.2232 0.980804 182.809 -1.99383 9.29688)
(-89.2604 21.0045 0.696585 75.7891 -2.58761 -27.1488)
(-87.7337 9.87463 0.547014 10.4016 -2.18779 -48.2821)
(-80.3209 3.57525 0.480355 -13.0805 -1.0685 -52.7254)
(-75.299 141.152 1.7052 1265.12 10.5041 380.171)
(-85.6752 61.4916 1.34126 568.656 4.8805 154.291)
(-85.0127 67.0184 1.30512 490.88 2.90914 124.889)
(-86.9567 52.3359 1.08137 320.299 1.21532 64.163)
(-88.9217 36.3633 0.842129 183.306 0.0919794 14.5185)
(-89.9547 21.1133 0.636273 76.5235 -0.479117 -24.6162)
(-88.2258 9.95151 0.481479 11.4032 -0.600482 -47.7383)
(-80.4358 3.60045 0.361621 -11.9752 -0.381494 -53.0372)
(-75.7588 142.18 0.884058 1269.72 5.20937 383.635)
(-86.2373 61.7779 0.750396 569.697 2.72549 159.526)
(-85.5525 67.2882 0.764774 491.721 1.91881 130.402)
(-87.4866 52.5036 0.672179 320.754 1.16581 68.796)
(-89.4184 36.4666 0.553523 183.661 0.598941 17.7843)
(-90.3809 21.1756 0.432034 76.9176 0.2207 -22.7502)
(-88.5265 9.98285 0.322216 11.9179 0.00819109 -46.909)
(-80.4997 3.61303 0.219477 -11.3086 -0.0832668 -52.5286)
(-75.9786 142.632 0.273049 1271.78 1.57383 385.108)
(-86.4972 61.9183 0.240298 570.307 0.875518 161.794)
(-85.7972 67.4288 0.250332 492.237 0.663711 132.852)
(-87.7247 52.5954 0.22597 321.05 0.454011 70.9108)
(-89.641 36.5209 0.190593 183.858 0.283225 19.3388)
(-90.5712 21.2023 0.150747 77.0962 0.153029 -21.78)
(-88.6475 9.98772 0.111181 12.1433 0.0605513 -46.3597)
(-80.4818 3.6174 0.0704715 -10.9783 -0.00772239 -52.0479)
(84.0921 188.96 0.541101 731.178 25.3976 -56.5135)
(-190.27 97.6428 -5.36017 266.655 -3.10118 -53.6001)
(-115.557 130.812 -7.61371 282.902 -2.78322 -51.3546)
(-111.557 114.02 -8.5643 167.315 -2.66287 -50.3306)
(-94.6561 94.8084 -9.11728 87.8522 -1.66386 -50.0754)
(-87.8656 69.2835 -9.27328 21.698 -0.874259 -50.3681)
(-85.8971 44.0498 -9.27971 -19.7335 -0.583691 -51.1156)
(-98.254 22.8143 -9.48852 -41.6193 -0.708293 -52.1572)
(-30.4281 108.718 -2.9438 104.39 0.0555947 -53.6461)
(-83.2597 171.33 -5.30997 50.0483 -5.04892 -51.8239)
(-68.3961 184.48 -6.27 32.459 -4.38377 -50.3954)
(-56.6048 170.163 -7.08811 -3.83535 -3.14583 -49.5815)
(-48.8067 145.246 -7.5346 -27.9678 -1.71718 -49.2664)
(-48.265 113.038 -7.73853 -44.0116 -0.647308 -49.3433)
(-52.6989 77.7578 -7.8592 -51.054 -0.0851525 -49.7332)
(-71.4792 40.2432 -8.2767 -53.3098 0.0445028 -50.2052)
(-92.798 79.8815 -4.59658 -276.63 2.69374 -49.9453)
(21.5597 140.917 -7.47786 -151.14 -4.77738 -48.8964)
(18.4166 152.625 -7.68794 -169.152 -4.45311 -47.8788)
(18.482 142.888 -7.52148 -146.601 -3.19918 -47.2159)
(10.6912 124.077 -7.45331 -125.288 -1.65458 -46.9005)
(0.241994 98.7348 -7.47209 -100.935 -0.435754 -46.9133)
(-11.4183 68.8362 -7.56557 -78.2698 0.278466 -47.2522)
(-14.5039 32.2844 -7.99384 -54.9732 0.512008 -47.8626)
(-206.649 63.8327 -5.26722 -716.022 30.5296 -46.1599)
(104.505 15.7209 -9.37129 -306.681 -2.65498 -43.3292)
(33.536 38.2522 -8.5584 -355.99 -3.33622 -41.9935)
(35.2934 36.8449 -8.43429 -264.882 -2.86371 -41.1991)
(19.7094 37.577 -8.09386 -198.079 -1.3771 -40.8682)
(9.2887 33.2117 -7.94265 -132.604 -0.0498652 -40.9617)
(0.854538 23.6619 -7.90955 -83.2877 0.780406 -41.5288)
(3.319 6.96206 -8.17472 -51.0064 1.13977 -42.9227)
(-37.2574 -79.1209 -7.5308 -937.827 -92.8637 -380.328)
(-30.3395 -41.1975 4.60035 -504.007 19.4605 -93.6786)
(-30.7335 -55.4557 3.44722 -491.863 7.02757 -134.671)
(-28.5009 -44.4927 5.7702 -352.783 17.4123 -93.6174)
(-26.3121 -32.5611 6.21567 -244.024 16.7309 -77.1064)
(-24.1368 -19.6675 6.14706 -148.895 14.5581 -62.6214)
(-22.5593 -10.8367 5.44485 -84.5532 9.78296 -56.9141)
(-21.8559 -8.83486 4.16718 -59.3995 2.84308 -61.5505)
(-38.8573 -86.2459 -7.00824 -921.923 -71.3992 -397.816)
(-33.6239 -49.2207 0.348419 -567.318 -6.74358 -141.297)
(-33.9961 -54.8992 2.75952 -495.277 13.8881 -128.199)
(-32.0842 -44.251 4.74757 -358.915 24.3134 -95.2552)
(-29.6016 -31.4175 5.43731 -242.742 25.9301 -76.173)
(-27.0375 -18.7987 5.1645 -146.805 22.547 -63.0498)
(-24.6192 -10.3338 4.17071 -82.134 15.5406 -57.342)
(-22.0701 -9.11838 2.79147 -57.7146 6.39966 -61.992)
(-39.893 -94.1889 -4.51035 -947.617 -43.771 -439.642)
(-34.1695 -50.9028 -0.178026 -570.296 -8.20808 -182.33)
(-34.701 -55.6508 1.66891 -501.94 8.11687 -156.904)
(-32.7911 -44.6216 3.29519 -363.764 17.4717 -110.87)
(-30.1535 -31.4491 4.02469 -244.886 20.1966 -80.3952)
(-27.3435 -18.813 3.93777 -147.656 18.3797 -59.1667)
(-24.4726 -10.4313 3.22942 -82.2411 13.3202 -47.6903)
(-21.0988 -9.03111 2.07222 -54.6455 5.56147 -46.3372)
(-40.145 -99.1175 -2.60811 -965.683 -25.9912 -468.001)
(-33.8429 -51.9101 -0.0687508 -572.294 -6.4448 -214.453)
(-34.3867 -56.4431 1.0921 -506.101 3.9199 -183.965)
(-32.404 -45.1265 2.19794 -367.243 10.5949 -128.177)
(-29.664 -31.8027 2.79713 -247.209 13.2706 -87.9345)
(-26.7035 -19.1171 2.84317 -149.096 12.737 -58.9189)
(-23.5724 -10.7277 2.42507 -82.9136 9.73023 -41.6975)
(-19.7868 -9.24179 1.60693 -53.6282 4.31858 -35.7376)
(-40.0884 -101.91 -1.44315 -976.248 -15.2545 -484.724)
(-33.4354 -52.6109 0.0430472 -574.425 -4.50668 -235.38)
(-33.9711 -57.0655 0.734722 -508.933 1.72579 -202.999)
(-31.9244 -45.5492 1.41481 -369.419 5.9859 -141.702)
(-29.1099 -32.1246 1.83133 -248.763 8.02938 -95.1147)
(-26.047 -19.3747 1.91977 -149.998 8.10165 -60.4235)
(-22.7458 -10.9532 1.6951 -83.2013 6.46653 -38.7599)
(-18.6894 -9.43019 1.16109 -52.9382 2.95495 -29.306)
(-39.9269 -103.448 -0.764501 -982.161 -8.68166 -494.195)
(-33.0855 -53.0745 0.0853108 -576.149 -2.89524 -248.09)
(-33.6129 -57.514 0.481227 -510.869 0.689408 -215.075)
(-31.5191 -45.8615 0.873008 -370.736 3.21668 -150.793)
(-28.6496 -32.3485 1.13208 -249.574 4.56507 -100.469)
(-25.5168 -19.5381 1.21083 -150.342 4.79587 -62.209)
(-22.1041 -11.0904 1.09647 -83.1556 3.95515 -37.6196)
(-17.8723 -9.58146 0.772389 -52.5215 1.8464 -26.0156)
(-39.7717 -104.257 -0.366452 -985.286 -4.43734 -499.249)
(-32.8312 -53.3515 0.0708346 -577.275 -1.60292 -255.196)
(-33.3536 -57.7999 0.273791 -512.068 0.240077 -222.02)
(-31.2297 -46.0648 0.47406 -371.483 1.56024 -156.204)
(-28.3241 -32.4849 0.612621 -249.937 2.30889 -103.85)
(-25.1458 -19.6271 0.663065 -150.384 2.49494 -63.5686)
(-21.663 -11.1637 0.609269 -82.9698 2.10062 -37.2657)
(-17.3337 -9.67838 0.43089 -52.2321 0.99262 -24.4581)
(-39.6876 -104.606 -0.108544 -986.636 -1.36099 -501.444)
(-32.7055 -53.4805 0.0259274 -577.822 -0.511871 -258.367)
(-33.2281 -57.9381 0.0881306 -512.642 0.0551576 -225.173)
(-31.0909 -46.164 0.149394 -371.827 0.464182 -158.708)
(-28.1684 -32.5481 0.192711 -250.076 0.702728 -105.467)
(-24.9639 -19.665 0.209928 -150.356 0.770396 -64.281)
(-21.4414 -11.1995 0.193972 -82.8297 0.655085 -37.1927)
(-17.1241 -9.72187 0.134599 -52.1175 0.312153 -23.8907)
(-109.923 18.8403 -2.14355 -51.8906 -0.228407 -58.45)
(-106.249 18.5618 2.32697 -49.5394 -0.77578 -58.3599)
(-106.841 19.1271 1.94147 -47.8702 -0.592999 -67.4323)
(-107.143 19.6001 1.25422 -46.5646 -0.398902 -72.5306)
(-107.678 20.0098 0.673977 -45.5968 -0.252659 -74.7767)
(-108.028 20.3025 0.347069 -44.9102 -0.159445 -75.011)
(-108.233 20.489 0.155315 -44.481 -0.09775 -74.5346)
(-108.362 20.5713 0.0408575 -44.3523 -0.0365598 -74.1614)
(-90.2996 14.3372 -1.48063 -49.7781 0.701714 -61.6463)
(-87.9824 13.8931 2.64328 -48.3232 -0.054706 -62.7825)
(-87.3729 14.1094 2.57329 -47.0445 -0.112402 -63.6001)
(-87.5262 14.4325 1.52957 -45.9885 -0.0213564 -63.6974)
(-87.8085 14.7105 0.677248 -45.1846 0.0440327 -63.1463)
(-88.0125 14.9145 0.224315 -44.6037 0.0605844 -62.2299)
(-88.1201 15.0494 0.0419931 -44.2189 0.0447494 -61.3736)
(-88.1449 15.1246 -0.000929399 -44.0134 0.0155736 -60.8619)
(-16.2844 4.08461 -1.57689 -47.1256 1.04981 -43.8126)
(-19.5221 4.31957 2.18868 -46.0366 0.295797 -44.7745)
(-19.8133 4.59841 2.11678 -45.0155 0.167666 -39.6642)
(-19.3658 4.80494 1.21258 -44.1287 0.189328 -35.0118)
(-18.6177 4.92672 0.460805 -43.4267 0.200865 -31.4046)
(-17.9352 5.00206 0.0791232 -42.9088 0.171537 -28.9671)
(-17.4438 5.04847 -0.0427765 -42.5626 0.114387 -27.4787)
(-17.1824 5.07469 -0.0288892 -42.3703 0.0405545 -26.7642)
(7.27993 1.02723 -1.68023 -42.8345 1.40559 -44.278)
(3.42853 1.55245 1.87166 -41.356 0.56003 -45.3851)
(4.97896 1.64223 1.47547 -40.1869 0.397662 -32.114)
(6.31505 1.7658 0.995177 -39.1937 0.327017 -22.3505)
(7.89303 1.79776 0.522016 -38.3939 0.276384 -15.733)
(9.10634 1.81457 0.253571 -37.8027 0.207504 -11.9611)
(9.91651 1.82327 0.103365 -37.4121 0.129803 -9.98094)
(10.3088 1.8267 0.0243095 -37.2123 0.044854 -9.1437)
)
;
    }
    symmetry
    {
        type            symmetryPlane;
    }
    bottom
    {
        type            calculated;
        value           nonuniform List<symmTensor> 
32
(
(520.379 232.792 25.1437 796.411 265.693 527.047)
(502.84 264.035 14.7017 756.476 135.12 481.635)
(521.005 281.121 8.20634 781.599 71.483 490.819)
(533.056 288.901 4.48098 799.486 38.2229 499.78)
(539.887 292.494 2.42712 809.938 20.5244 505.469)
(543.743 294.236 1.28948 815.957 10.8626 508.863)
(545.842 295.095 0.626924 819.271 5.27193 510.761)
(546.774 295.454 0.187334 820.751 1.57423 511.616)
(73.1134 78.4024 2.52841 105.701 60.418 71.7808)
(70.7168 114.157 1.86661 96.3529 30.5008 64.2293)
(75.229 122.899 0.98239 101.562 14.9449 67.2699)
(77.5165 124.495 0.471387 104.749 7.08926 69.2652)
(78.724 124.29 0.216252 106.647 3.26041 70.486)
(79.4129 123.779 0.0956606 107.811 1.44898 71.2422)
(79.8061 123.374 0.0393254 108.498 0.597804 71.6904)
(79.9886 123.165 0.0105884 108.822 0.161255 71.9013)
(-188.8 60.6726 -3.56239 -278.865 -91.2847 -185.808)
(-174.309 95.3765 -3.48676 -263.138 -57.3054 -178.017)
(-179.627 103.285 -2.37518 -272.187 -35.8781 -185.64)
(-183.8 104.469 -1.4984 -278.384 -22.3057 -190.498)
(-186.47 104.042 -0.91342 -282.121 -13.6268 -193.324)
(-188.069 103.407 -0.532627 -284.288 -7.98573 -194.925)
(-188.954 102.934 -0.276169 -285.462 -4.15712 -195.781)
(-189.344 102.695 -0.085265 -285.975 -1.28612 -196.152)
(-598.649 121.548 -23.8805 -835.157 -217.301 -569.314)
(-570.956 146.167 -16.5543 -810.408 -127.8 -575.415)
(-595.753 154.717 -10.4188 -845.914 -74.2115 -612.477)
(-613.146 157.611 -6.28655 -869.383 -43.2502 -634.331)
(-623.385 158.565 -3.70198 -882.815 -25.078 -646.207)
(-629.225 158.862 -2.10016 -890.346 -14.1246 -652.66)
(-632.372 158.949 -1.068 -894.364 -7.15832 -656.039)
(-633.748 158.969 -0.326434 -896.111 -2.18491 -657.494)
)
;
    }
}


// ************************************************************************* //
