/*--------------------------------*- C++ -*----------------------------------*\
| =========                 |                                                 |
| \\      /  F ield         | foam-extend: Open Source CFD                    |
|  \\    /   O peration     | Version:     3.1                                |
|   \\  /    A nd           | Web:         http://www.extend-project.de       |
|    \\/     M anipulation  |                                                 |
\*---------------------------------------------------------------------------*/
FoamFile
{
    version     2.0;
    format      ascii;
    class       volVectorField;
    location    "1";
    object      U;
}
// * * * * * * * * * * * * * * * * * * * * * * * * * * * * * * * * * * * * * //

dimensions      [0 1 -1 0 0 0 0];

internalField   nonuniform List<vector> 
256
(
(-0.000629947 0.000199803 -0.000614853)
(-0.000349567 0.000232566 -0.000406778)
(-0.000186239 0.000231359 -0.000236393)
(-6.66595e-05 0.000289649 1.46009e-05)
(-0.00147382 0.0001994 -0.00103286)
(-0.00118294 0.000433171 -0.000931437)
(-0.000981393 0.000562897 -0.000756069)
(-0.00083976 0.000804243 -0.00058693)
(-0.0021368 0.000485451 -0.00142105)
(-0.00187566 0.000720347 -0.00126414)
(-0.00166487 0.000904824 -0.00112158)
(-0.00149087 0.00117574 -0.000968893)
(-0.00258215 0.000842447 -0.00171507)
(-0.00237623 0.00104079 -0.00152892)
(-0.00217405 0.00121948 -0.00138135)
(-0.00196892 0.00144021 -0.00122186)
(-0.00280416 0.0012501 -0.00196147)
(-0.00264053 0.00136812 -0.00173272)
(-0.0024485 0.00149197 -0.00155709)
(-0.00222822 0.00161668 -0.00136432)
(-0.00282051 0.00165237 -0.00217376)
(-0.00268654 0.00167405 -0.00189659)
(-0.00250128 0.0017207 -0.00167569)
(-0.00227412 0.00173835 -0.00143215)
(-0.00267273 0.00202294 -0.00236169)
(-0.00255796 0.00194701 -0.00203954)
(-0.002376 0.00191282 -0.00176606)
(-0.00214177 0.00183409 -0.00146518)
(-0.00240359 0.00234369 -0.0025363)
(-0.00231387 0.00219009 -0.0021808)
(-0.00213909 0.00208406 -0.0018618)
(-0.00188975 0.00193417 -0.00151464)
(-0.000601828 0.000243974 -0.000374984)
(-0.000373786 0.000295504 -0.000252559)
(-0.000252845 0.000299822 -0.000136999)
(-0.000190674 0.000362529 2.775e-05)
(-0.00162029 0.000387763 -0.000793066)
(-0.00129017 0.000628339 -0.000689465)
(-0.0010835 0.000754709 -0.00055335)
(-0.000958238 0.00100599 -0.00041864)
(-0.00232205 0.000680056 -0.00116905)
(-0.00205166 0.000933763 -0.00102185)
(-0.00183492 0.00112073 -0.000885082)
(-0.00165586 0.00140404 -0.000735496)
(-0.00281666 0.00104041 -0.00146597)
(-0.002599 0.00125247 -0.00128157)
(-0.00239105 0.0014303 -0.00112787)
(-0.00218374 0.00166286 -0.000958656)
(-0.00308471 0.0014403 -0.00170709)
(-0.00291269 0.00157012 -0.00148248)
(-0.0027174 0.00169351 -0.00129831)
(-0.00249974 0.00183109 -0.00109419)
(-0.00314907 0.00183687 -0.00190934)
(-0.00300805 0.00186933 -0.00164264)
(-0.00282298 0.00191905 -0.00141908)
(-0.00260535 0.00195258 -0.00117081)
(-0.00305001 0.00220325 -0.00208392)
(-0.00292642 0.00213948 -0.00178068)
(-0.00274625 0.00211736 -0.00151736)
(-0.00252901 0.00206086 -0.00122419)
(-0.00282701 0.0025205 -0.00223974)
(-0.0027258 0.00238121 -0.00191452)
(-0.00255071 0.00230072 -0.00162619)
(-0.00231862 0.00218069 -0.00130311)
(-0.000611197 0.000245448 -0.000258134)
(-0.000394705 0.000306786 -0.000176244)
(-0.000291229 0.000315595 -9.23763e-05)
(-0.000256457 0.000389183 2.39242e-05)
(-0.00172156 0.000456989 -0.000612606)
(-0.00138547 0.000714108 -0.000517411)
(-0.00118586 0.000845376 -0.000406526)
(-0.00108008 0.0011141 -0.000295537)
(-0.0024932 0.000787771 -0.000940225)
(-0.00221594 0.00106451 -0.000806907)
(-0.0019978 0.00126247 -0.000680296)
(-0.00182074 0.00156495 -0.00054129)
(-0.00303889 0.00117113 -0.00121314)
(-0.00281908 0.0014078 -0.00104258)
(-0.00260889 0.00160041 -0.0008926)
(-0.00239735 0.00185618 -0.000726906)
(-0.00335125 0.00158276 -0.00143796)
(-0.0031807 0.00173879 -0.00122989)
(-0.00298471 0.00188117 -0.00104934)
(-0.00276232 0.00204644 -0.000849369)
(-0.00345575 0.00198731 -0.0016257)
(-0.00331862 0.00204694 -0.00138124)
(-0.00313512 0.00212029 -0.00116676)
(-0.00291529 0.00218606 -0.000928835)
(-0.00339478 0.00236046 -0.00178617)
(-0.00327516 0.0023242 -0.00151197)
(-0.003098 0.00233116 -0.00126739)
(-0.00288256 0.00231143 -0.000994203)
(-0.00320709 0.00268378 -0.0019257)
(-0.00310889 0.00257108 -0.0016374)
(-0.00293759 0.00252499 -0.00138014)
(-0.00271133 0.00244616 -0.00108812)
(-0.000628525 0.000244078 -0.000186621)
(-0.000413767 0.000311404 -0.000127498)
(-0.000318025 0.000323373 -6.47925e-05)
(-0.000297978 0.000407189 2.02537e-05)
(-0.00180609 0.000483642 -0.000470217)
(-0.00146804 0.000758852 -0.000387806)
(-0.00127581 0.000898854 -0.000296815)
(-0.00118511 0.00118751 -0.000205257)
(-0.00264057 0.000847117 -0.000738428)
(-0.00236068 0.00114806 -0.000622492)
(-0.00214424 0.00136168 -0.000510923)
(-0.00197124 0.00168713 -0.000388762)
(-0.00323777 0.00125824 -0.000970802)
(-0.00301717 0.00152159 -0.000821465)
(-0.00280639 0.00173497 -0.000685552)
(-0.00259239 0.00201803 -0.000535318)
(-0.00359283 0.00169038 -0.00116739)
(-0.00342365 0.0018748 -0.000984723)
(-0.00322694 0.00204218 -0.00082082)
(-0.00299951 0.00223828 -0.000639433)
(-0.00373371 0.00210994 -0.0013334)
(-0.00359964 0.00219923 -0.00111965)
(-0.0034162 0.00230139 -0.000927212)
(-0.00319149 0.00240113 -0.00071401)
(-0.00370548 0.00249392 -0.00147548)
(-0.00358942 0.00248828 -0.0012373)
(-0.00341318 0.00252762 -0.00102177)
(-0.00319457 0.00254481 -0.00078089)
(-0.00354856 0.00282437 -0.00159657)
(-0.00345408 0.002743 -0.0013489)
(-0.00328491 0.00273221 -0.00112712)
(-0.00305768 0.00269309 -0.000874139)
(-0.000644916 0.000242376 -0.000134695)
(-0.000429603 0.000314186 -9.13207e-05)
(-0.000338078 0.000328629 -4.48652e-05)
(-0.000327682 0.000420937 1.70837e-05)
(-0.00187588 0.000494389 -0.000349839)
(-0.00153614 0.000785602 -0.000283022)
(-0.00134944 0.000935019 -0.000210932)
(-0.00126966 0.00124307 -0.000138249)
(-0.00276188 0.000880445 -0.000556909)
(-0.00248098 0.00120382 -0.000462184)
(-0.00226689 0.00143364 -0.000370233)
(-0.00209777 0.00178189 -0.000269986)
(-0.00340433 0.00131584 -0.00074116)
(-0.00318366 0.00160447 -0.000618838)
(-0.00297306 0.00183875 -0.000505175)
(-0.0027578 0.00214776 -0.000379763)
(-0.00379731 0.00176917 -0.000900781)
(-0.00362925 0.00198019 -0.000750969)
(-0.00343189 0.00217195 -0.000613826)
(-0.00320043 0.00239634 -0.000462304)
(-0.00397021 0.00220524 -0.00103768)
(-0.00383821 0.00232198 -0.00086259)
(-0.00365404 0.00245136 -0.000702611)
(-0.00342452 0.00258134 -0.000525682)
(-0.00397049 0.00260079 -0.00115544)
(-0.00385676 0.00262342 -0.000960871)
(-0.00367994 0.00269253 -0.000783473)
(-0.00345693 0.00274195 -0.000585416)
(-0.00384096 0.00293815 -0.00125416)
(-0.00374873 0.00288617 -0.001053)
(-0.00357955 0.00290737 -0.000872651)
(-0.00334883 0.00290251 -0.000666752)
(-0.000657893 0.000240813 -9.19777e-05)
(-0.000441617 0.000316043 -6.17378e-05)
(-0.000352681 0.000332392 -2.93418e-05)
(-0.000348979 0.000431239 1.33318e-05)
(-0.00192946 0.000498527 -0.000242475)
(-0.00158819 0.000802522 -0.000193307)
(-0.00140531 0.000960204 -0.00014076)
(-0.00133325 0.00128447 -8.77796e-05)
(-0.0028549 0.000899478 -0.000389176)
(-0.00257349 0.00124111 -0.00031903)
(-0.00236143 0.00148492 -0.000250519)
(-0.00219532 0.00185251 -0.000176135)
(-0.00353312 0.00135317 -0.000522059)
(-0.00331263 0.00166272 -0.000431354)
(-0.00310244 0.00191478 -0.000346009)
(-0.00288651 0.00224532 -0.000252088)
(-0.00395662 0.00182402 -0.000639231)
(-0.00378944 0.00205704 -0.000528069)
(-0.00359157 0.00226916 -0.000425088)
(-0.00335716 0.00251648 -0.000311544)
(-0.00415553 0.00227437 -0.000741071)
(-0.00402484 0.00241367 -0.000611182)
(-0.00383974 0.00256538 -0.000491495)
(-0.00360628 0.00271943 -0.000359377)
(-0.0041791 0.00267995 -0.000829124)
(-0.00406663 0.00272577 -0.000684924)
(-0.00388862 0.00281899 -0.000552934)
(-0.00366148 0.00289376 -0.000405804)
(-0.00407218 0.00302322 -0.000902004)
(-0.00398091 0.00299549 -0.000753329)
(-0.00381059 0.00304248 -0.000620034)
(-0.00357586 0.00306443 -0.000467954)
(-0.000666713 0.000239644 -5.37857e-05)
(-0.000449632 0.000317219 -3.58001e-05)
(-0.000362266 0.000334883 -1.65682e-05)
(-0.000362911 0.000438167 8.56458e-06)
(-0.00196565 0.000499901 -0.00014278)
(-0.00162324 0.000812778 -0.000112705)
(-0.00144279 0.000976478 -8.06799e-05)
(-0.00137573 0.00131221 -4.84121e-05)
(-0.00291784 0.000909923 -0.000230248)
(-0.00263611 0.00126433 -0.000187168)
(-0.00242547 0.00151824 -0.000144919)
(-0.00226137 0.00189965 -9.91883e-05)
(-0.00362069 0.00137562 -0.000310361)
(-0.00340038 0.00169996 -0.000254606)
(-0.00319055 0.00196474 -0.000201764)
(-0.00297425 0.00231051 -0.000143745)
(-0.0040655 0.00185856 -0.000381816)
(-0.00389889 0.00210718 -0.000313458)
(-0.00370068 0.00233372 -0.000249702)
(-0.00346433 0.00259707 -0.00017953)
(-0.00428276 0.00231905 -0.000444492)
(-0.00415282 0.00247433 -0.00036461)
(-0.00396692 0.00264171 -0.000290657)
(-0.0037307 0.00281239 -0.000209155)
(-0.00432289 0.00273183 -0.000498883)
(-0.00421098 0.00279406 -0.000410217)
(-0.00403183 0.00290409 -0.000328902)
(-0.00380157 0.00299622 -0.00023839)
(-0.0042321 0.00307938 -0.00054351)
(-0.00414104 0.00306886 -0.000452199)
(-0.00396941 0.0031338 -0.000370373)
(-0.00373142 0.00317404 -0.000277111)
(-0.000671153 0.000239021 -1.7719e-05)
(-0.000453629 0.000317795 -1.17392e-05)
(-0.000367016 0.000336131 -5.35314e-06)
(-0.000369814 0.000441657 2.95979e-06)
(-0.00198385 0.000500238 -4.71648e-05)
(-0.00164085 0.000817665 -3.7045e-05)
(-0.00146157 0.000984514 -2.62807e-05)
(-0.00139698 0.00132615 -1.54411e-05)
(-0.00294958 0.000914565 -7.62237e-05)
(-0.00266768 0.00127553 -6.16993e-05)
(-0.00245775 0.00153469 -4.74254e-05)
(-0.00229465 0.00192327 -3.20005e-05)
(-0.00366497 0.00138618 -0.000102981)
(-0.00344476 0.00171814 -8.41754e-05)
(-0.00323512 0.00198952 -6.62921e-05)
(-0.00301864 0.00234316 -4.66816e-05)
(-0.00412074 0.00187522 -0.000126982)
(-0.00395439 0.00213192 -0.00010392)
(-0.00375599 0.0023659 -8.23434e-05)
(-0.00351867 0.00263746 -5.86207e-05)
(-0.0043475 0.0023409 -0.000148129)
(-0.00421786 0.00250447 -0.000121176)
(-0.0040315 0.00267991 -9.61709e-05)
(-0.00379385 0.00285905 -6.86387e-05)
(-0.00439627 0.00275737 -0.000166517)
(-0.0042845 0.00282816 -0.000136598)
(-0.00410464 0.00294682 -0.000109139)
(-0.00387271 0.00304772 -7.86002e-05)
(-0.00431386 0.00310708 -0.000181538)
(-0.00422271 0.00310569 -0.000150737)
(-0.00405028 0.00317982 -0.000123149)
(-0.00381051 0.00322924 -9.1728e-05)
)
;

boundaryField
{
    interface
    {
        type            calculated;
        value           nonuniform List<vector> 
192
(
(-0.00116206 -0.00032401 -0.000641728)
(-0.00159657 -6.64011e-05 -0.0011172)
(-0.00228158 0.000240276 -0.00154261)
(-0.00266209 0.000692263 -0.00186565)
(-0.00285192 0.00118554 -0.00214253)
(-0.00284428 0.0016733 -0.00238376)
(-0.00268286 0.00211494 -0.00259803)
(-0.00241769 0.002509 -0.00278948)
(-0.00109644 -0.00032029 -0.000391755)
(-0.00178389 8.03479e-05 -0.000858423)
(-0.0024604 0.000413081 -0.00127499)
(-0.00289677 0.000864921 -0.00159795)
(-0.00312788 0.0013519 -0.00186354)
(-0.00316744 0.00183386 -0.00208782)
(-0.00305491 0.00227368 -0.00228297)
(-0.00283749 0.00267218 -0.002455)
(-0.00112463 -0.000341138 -0.000274235)
(-0.00189418 0.000109269 -0.000665815)
(-0.00263538 0.000496091 -0.00102718)
(-0.00312058 0.000972321 -0.00132873)
(-0.00339372 0.00147382 -0.00157689)
(-0.00347294 0.00196487 -0.00178461)
(-0.00339847 0.00241279 -0.00196268)
(-0.00321758 0.00282052 -0.00211687)
(-0.00116182 -0.000363422 -0.0002006)
(-0.00198508 0.000107971 -0.000513998)
(-0.00278595 0.000528966 -0.000809391)
(-0.0033199 0.00103693 -0.00106732)
(-0.00363335 0.0015619 -0.00128546)
(-0.00374767 0.00207003 -0.00146966)
(-0.00370548 0.00253021 -0.00162752)
(-0.00355579 0.00294653 -0.00176228)
(-0.00119463 -0.000383246 -0.00014588)
(-0.00205989 9.74152e-05 -0.000384248)
(-0.00290975 0.000539969 -0.000612489)
(-0.00348648 0.00107448 -0.000817522)
(-0.00383601 0.00162323 -0.000995344)
(-0.00398116 0.00214993 -0.00114785)
(-0.00396699 0.00262294 -0.00127928)
(-0.0038451 0.00304701 -0.00139009)
(-0.00122007 -0.000399019 -0.000100075)
(-0.00211724 8.56625e-05 -0.000267246)
(-0.0030047 0.000541851 -0.000429183)
(-0.0036152 0.00109582 -0.000577328)
(-0.00399388 0.00166386 -0.0007082)
(-0.00416414 0.00220645 -0.000822019)
(-0.0041729 0.00269045 -0.000920706)
(-0.00407392 0.003121 -0.0010031)
(-0.00123726 -0.000409893 -5.86671e-05)
(-0.00215597 7.63884e-05 -0.000157706)
(-0.00306897 0.000540677 -0.000254378)
(-0.00370274 0.00110722 -0.000343813)
(-0.00410181 0.00168841 -0.000423759)
(-0.00428985 0.00224218 -0.000493963)
(-0.00431497 0.00273401 -0.000555097)
(-0.00423235 0.00316921 -0.000605802)
(-0.0012459 -0.000415431 -1.93458e-05)
(-0.00217546 7.13765e-05 -5.21466e-05)
(-0.0031014 0.000539455 -8.4284e-05)
(-0.00374705 0.00111215 -0.000114178)
(-0.0041566 0.00169994 -0.000141053)
(-0.00435387 0.00225939 -0.00016477)
(-0.00438756 0.00275524 -0.000185465)
(-0.00431348 0.00319272 -0.000202575)
(-0.000616764 -0.000249443 -0.00101051)
(-0.00139601 4.19909e-05 -0.00110314)
(-0.00204374 0.000302481 -0.00154815)
(-0.00245282 0.000697223 -0.00182541)
(-0.00264343 0.00111625 -0.00207911)
(-0.00262559 0.00152904 -0.00229776)
(-0.00244603 0.00190504 -0.00249159)
(-0.0021493 0.00224288 -0.00268041)
(-0.000315949 -0.000182426 -0.0006622)
(-0.00110483 0.000247614 -0.00103674)
(-0.00180711 0.000549199 -0.00138469)
(-0.0022901 0.000908576 -0.00164856)
(-0.00253095 0.00125706 -0.0018582)
(-0.00254598 0.00157537 -0.00202681)
(-0.00238464 0.00185047 -0.00217402)
(-0.00211126 0.00209515 -0.00232234)
(-0.000143483 -9.85562e-05 -0.000419374)
(-0.000897267 0.000331929 -0.000858325)
(-0.00159621 0.000727225 -0.00123281)
(-0.00209679 0.001091 -0.00149617)
(-0.00234825 0.00139756 -0.00167539)
(-0.00236866 0.00164387 -0.00179544)
(-0.00220769 0.00183825 -0.00188561)
(-0.00194219 0.00199429 -0.00197265)
(-3.28043e-05 6.02151e-05 -6.35493e-05)
(-0.000780803 0.000546544 -0.000686253)
(-0.00142212 0.00099338 -0.00107823)
(-0.00187704 0.00131814 -0.00134481)
(-0.00210218 0.00153901 -0.0014921)
(-0.00210836 0.00168274 -0.00155972)
(-0.00193692 0.00177947 -0.00158939)
(-0.00165766 0.00184487 -0.00162015)
(-8.98091e-05 0.000595091 4.596e-05)
(-0.000767466 0.00115752 -0.000515417)
(-0.00136764 0.00146175 -0.000876042)
(-0.00182052 0.00161151 -0.00110596)
(-0.00207657 0.00167074 -0.00121845)
(-0.00212936 0.0016898 -0.00125123)
(-0.00200421 0.00170916 -0.00124825)
(-0.0017625 0.00176079 -0.00126948)
(-0.000260035 0.000759713 5.91586e-05)
(-0.000882579 0.00137337 -0.000349509)
(-0.00152746 0.00171156 -0.00064692)
(-0.0020305 0.00186097 -0.000843732)
(-0.00234391 0.00191678 -0.000951002)
(-0.00245818 0.00193837 -0.00099815)
(-0.00239295 0.00196826 -0.00102291)
(-0.00219301 0.00203018 -0.00107552)
(-0.000345604 0.000865281 4.77988e-05)
(-0.00100629 0.00150022 -0.000235479)
(-0.00169144 0.00189835 -0.000456502)
(-0.00223826 0.00208031 -0.000617671)
(-0.00259936 0.00215904 -0.000715408)
(-0.00276189 0.00219881 -0.000770497)
(-0.00274251 0.0022442 -0.000812366)
(-0.0025854 0.00231904 -0.000883297)
(-0.000401402 0.000943523 3.93503e-05)
(-0.00111269 0.00159976 -0.000154659)
(-0.00184094 0.0020456 -0.000313803)
(-0.00242797 0.00226576 -0.000438125)
(-0.0028295 0.00237367 -0.000521062)
(-0.00303115 0.0024356 -0.000575572)
(-0.00304894 0.00249833 -0.00062342)
(-0.00292778 0.0025863 -0.000697833)
(-0.000442306 0.00100351 3.20501e-05)
(-0.0011981 0.00167978 -9.78987e-05)
(-0.00196636 0.00216296 -0.00020882)
(-0.00258921 0.00241586 -0.000299877)
(-0.00302464 0.00255053 -0.000365167)
(-0.00325816 0.00263325 -0.000412613)
(-0.00330599 0.00271205 -0.000457411)
(-0.00321437 0.00281235 -0.000523898)
(-0.0004721 0.00104787 2.41735e-05)
(-0.00126241 0.00174076 -5.84048e-05)
(-0.00206302 0.00225185 -0.000131121)
(-0.00271485 0.0025296 -0.000192995)
(-0.00317709 0.00268527 -0.000239652)
(-0.00343531 0.00278465 -0.000275835)
(-0.00350623 0.00287642 -0.000311436)
(-0.00343729 0.00298698 -0.000362831)
(-0.000491785 0.00107737 1.51378e-05)
(-0.00130543 0.00178199 -3.05723e-05)
(-0.00212849 0.00231171 -7.17093e-05)
(-0.00280059 0.00260602 -0.000107557)
(-0.00328143 0.00277587 -0.000135464)
(-0.00355663 0.00288663 -0.000157968)
(-0.00364331 0.00298737 -0.000180615)
(-0.00358984 0.0031052 -0.000212828)
(-0.000501595 0.00109213 5.1611e-06)
(-0.00132697 0.00180278 -9.46174e-06)
(-0.0021615 0.00234183 -2.27707e-05)
(-0.002844 0.00264441 -3.45078e-05)
(-0.00333437 0.00282137 -4.37876e-05)
(-0.00361821 0.00293787 -5.1408e-05)
(-0.00371288 0.00304312 -5.91534e-05)
(-0.00366737 0.00316474 -7.01097e-05)
(-0.00220439 0.00248501 -0.00259982)
(-0.00264173 0.00265915 -0.00229695)
(-0.00303537 0.0028248 -0.00197746)
(-0.0033907 0.00296696 -0.00163889)
(-0.00369594 0.00308285 -0.00128636)
(-0.00393781 0.00316997 -0.000924268)
(-0.00410536 0.00322776 -0.000556495)
(-0.00419117 0.00325627 -0.000185799)
(-0.00218319 0.00232163 -0.00224485)
(-0.00261162 0.00251065 -0.0019806)
(-0.00301063 0.00270133 -0.00170106)
(-0.00337163 0.00287548 -0.00140426)
(-0.00368094 0.00302164 -0.00109714)
(-0.00392514 0.00313386 -0.000785035)
(-0.00409374 0.00320951 -0.000471194)
(-0.00417973 0.00324759 -0.000157057)
(-0.00202632 0.00216823 -0.00193047)
(-0.00245458 0.00239175 -0.00170641)
(-0.00286056 0.00261775 -0.0014598)
(-0.00322598 0.0028278 -0.00119845)
(-0.0035366 0.00300635 -0.000930666)
(-0.00378037 0.00314471 -0.000662331)
(-0.00394799 0.00323856 -0.000395962)
(-0.00403331 0.003286 -0.000131702)
(-0.00173561 0.00199319 -0.00158854)
(-0.00218205 0.00225034 -0.00140116)
(-0.00259609 0.00251794 -0.00118698)
(-0.002962 0.00276837 -0.000963215)
(-0.00326969 0.00298175 -0.000739519)
(-0.00350952 0.00314746 -0.000521233)
(-0.0036738 0.00325997 -0.000309447)
(-0.00375733 0.00331675 -0.000102555)
)
;
    }
    symmetry
    {
        type            symmetryPlane;
    }
    bottom
    {
        type            calculated;
        value           uniform (0 0 0);
    }
}


// ************************************************************************* //
