/*--------------------------------*- C++ -*----------------------------------*\
| =========                 |                                                 |
| \\      /  F ield         | foam-extend: Open Source CFD                    |
|  \\    /   O peration     | Version:     3.1                                |
|   \\  /    A nd           | Web:         http://www.extend-project.de       |
|    \\/     M anipulation  |                                                 |
\*---------------------------------------------------------------------------*/
FoamFile
{
    version     2.0;
    format      ascii;
    class       volVectorField;
    location    "3.2";
    object      cellMotionU;
}
// * * * * * * * * * * * * * * * * * * * * * * * * * * * * * * * * * * * * * //

dimensions      [0 1 -1 0 0 0 0];

internalField   nonuniform List<vector> 
14592
(
(4.06755e-12 -2.65555e-12 -8.29587e-12)
(1.17905e-11 -7.89491e-12 -2.44557e-11)
(1.8832e-11 -1.32635e-11 -4.0398e-11)
(2.53898e-11 -1.93155e-11 -5.72432e-11)
(3.15782e-11 -2.66686e-11 -7.60004e-11)
(3.73928e-11 -3.61001e-11 -9.76143e-11)
(4.26358e-11 -4.86783e-11 -1.22978e-10)
(4.68006e-11 -6.58679e-11 -1.5289e-10)
(4.88575e-11 -8.97696e-11 -1.87964e-10)
(4.69693e-11 -1.23264e-10 -2.28414e-10)
(3.81661e-11 -1.70129e-10 -2.73741e-10)
(1.83003e-11 -2.34854e-10 -3.22291e-10)
(-1.67557e-11 -3.21435e-10 -3.70795e-10)
(-6.64863e-11 -4.30258e-10 -4.14191e-10)
(-1.14855e-10 -5.50576e-10 -4.46212e-10)
(-1.24347e-10 -6.43063e-10 -4.61237e-10)
(1.20737e-11 -7.72693e-12 -2.46136e-11)
(3.49985e-11 -2.29374e-11 -7.25572e-11)
(5.58957e-11 -3.84969e-11 -1.19849e-10)
(7.53539e-11 -5.59426e-11 -1.69796e-10)
(9.37209e-11 -7.70107e-11 -2.25384e-10)
(1.11e-10 -1.0389e-10 -2.89412e-10)
(1.26654e-10 -1.39512e-10 -3.64526e-10)
(1.39247e-10 -1.87938e-10 -4.53131e-10)
(1.45813e-10 -2.54987e-10 -5.57099e-10)
(1.40895e-10 -3.48612e-10 -6.77163e-10)
(1.15153e-10 -4.79652e-10 -8.11951e-10)
(5.39457e-11 -6.6132e-10 -9.56464e-10)
(-6.29156e-11 -9.07305e-10 -1.10017e-09)
(-2.56619e-10 -1.22518e-09 -1.22502e-09)
(-5.31754e-10 -1.59996e-09 -1.30506e-09)
(-8.18325e-10 -1.93543e-09 -1.3173e-09)
(1.97635e-11 -1.21391e-11 -4.02574e-11)
(5.72782e-11 -3.60056e-11 -1.18654e-10)
(9.14509e-11 -6.02394e-11 -1.95918e-10)
(1.23249e-10 -8.71439e-11 -2.77434e-10)
(1.53268e-10 -1.19257e-10 -3.68052e-10)
(1.81582e-10 -1.59737e-10 -4.72333e-10)
(2.07467e-10 -2.12648e-10 -5.94611e-10)
(2.28819e-10 -2.83831e-10 -7.38905e-10)
(2.41195e-10 -3.81218e-10 -9.08426e-10)
(2.36054e-10 -5.16203e-10 -1.10471e-09)
(1.97918e-10 -7.0416e-10 -1.32591e-09)
(9.98364e-11 -9.65208e-10 -1.56411e-09)
(-1.02913e-10 -1.32246e-09 -1.80116e-09)
(-4.78761e-10 -1.79532e-09 -2.00303e-09)
(-1.10729e-09 -2.37629e-09 -2.11488e-09)
(-1.91373e-09 -2.92755e-09 -2.0856e-09)
(2.69503e-11 -1.55803e-11 -5.4836e-11)
(7.80866e-11 -4.6107e-11 -1.61579e-10)
(1.2462e-10 -7.67823e-11 -2.66649e-10)
(1.67871e-10 -1.10318e-10 -3.77312e-10)
(2.08697e-10 -1.49633e-10 -5.00118e-10)
(2.47339e-10 -1.98155e-10 -6.41226e-10)
(2.83088e-10 -2.60325e-10 -8.0657e-10)
(3.13643e-10 -3.42155e-10 -1.00173e-09)
(3.33923e-10 -4.51927e-10 -1.23143e-09)
(3.33879e-10 -6.01217e-10 -1.49846e-09)
(2.94549e-10 -8.06206e-10 -1.80155e-09)
(1.81165e-10 -1.08865e-09 -2.13171e-09)
(-6.81332e-11 -1.47591e-09 -2.46638e-09)
(-5.55966e-10 -1.99477e-09 -2.76071e-09)
(-1.41307e-09 -2.64271e-09 -2.93933e-09)
(-2.55004e-09 -3.25785e-09 -2.92561e-09)
(3.34786e-11 -1.78495e-11 -6.80182e-11)
(9.69792e-11 -5.2656e-11 -2.00357e-10)
(1.54677e-10 -8.71693e-11 -3.30403e-10)
(2.08213e-10 -1.24104e-10 -4.67049e-10)
(2.58712e-10 -1.66286e-10 -6.18305e-10)
(3.06665e-10 -2.16729e-10 -7.91713e-10)
(3.51599e-10 -2.79384e-10 -9.9462e-10)
(3.9153e-10 -3.58902e-10 -1.23406e-09)
(4.21787e-10 -4.61812e-10 -1.51641e-09)
(4.32956e-10 -5.96605e-10 -1.84619e-09)
(4.06955e-10 -7.75084e-10 -2.22406e-09)
(3.10025e-10 -1.01364e-09 -2.64292e-09)
(8.09579e-11 -1.33493e-09 -3.08158e-09)
(-3.83289e-10 -1.76678e-09 -3.4954e-09)
(-1.21403e-09 -2.32182e-09 -3.80731e-09)
(-2.32328e-09 -2.87397e-09 -3.92466e-09)
(3.92376e-11 -1.88979e-11 -7.95546e-11)
(1.13614e-10 -5.55564e-11 -2.34235e-10)
(1.81074e-10 -9.12629e-11 -3.85912e-10)
(2.43509e-10 -1.28448e-10 -5.44793e-10)
(3.02302e-10 -1.69348e-10 -7.20044e-10)
(3.5822e-10 -2.16264e-10 -9.2032e-10)
(4.11213e-10 -2.71509e-10 -1.15405e-09)
(4.59958e-10 -3.37797e-10 -1.42956e-09)
(5.01059e-10 -4.17797e-10 -1.75467e-09)
(5.27453e-10 -5.14497e-10 -2.13596e-09)
(5.25541e-10 -6.30926e-10 -2.57693e-09)
(4.69869e-10 -7.70662e-10 -3.0748e-09)
(3.13941e-10 -9.39958e-10 -3.61469e-09)
(-2.1789e-11 -1.15314e-09 -4.15994e-09)
(-6.41333e-10 -1.43839e-09 -4.6382e-09)
(-1.48321e-09 -1.77999e-09 -4.92953e-09)
(4.41497e-11 -1.88159e-11 -8.9272e-11)
(1.27784e-10 -5.50811e-11 -2.62714e-10)
(2.03471e-10 -8.96607e-11 -4.32341e-10)
(2.73284e-10 -1.24445e-10 -6.09325e-10)
(3.38816e-10 -1.60828e-10 -8.03645e-10)
(4.01098e-10 -2.00019e-10 -1.0247e-09)
(4.60529e-10 -2.42617e-10 -1.28165e-09)
(5.16614e-10 -2.88556e-10 -1.58361e-09)
(5.67518e-10 -3.36459e-10 -1.93951e-09)
(6.0921e-10 -3.8275e-10 -2.35757e-09)
(6.33905e-10 -4.20066e-10 -2.8441e-09)
(6.27023e-10 -4.35591e-10 -3.40139e-09)
(5.61327e-10 -4.09003e-10 -4.02328e-09)
(3.85843e-10 -3.14859e-10 -4.6858e-09)
(1.42371e-11 -1.43752e-10 -5.32302e-09)
(-5.87974e-10 2.08681e-11 -5.7651e-09)
(4.81891e-11 -1.78031e-11 -9.70977e-11)
(1.39414e-10 -5.18171e-11 -2.85565e-10)
(2.2175e-10 -8.35005e-11 -4.69323e-10)
(2.97385e-10 -1.13952e-10 -6.60119e-10)
(3.68028e-10 -1.43843e-10 -8.68401e-10)
(4.34933e-10 -1.73079e-10 -1.10387e-09)
(4.98869e-10 -2.00694e-10 -1.37595e-09)
(5.60064e-10 -2.24228e-10 -1.694e-09)
(6.18068e-10 -2.38872e-10 -2.06726e-09)
(6.71512e-10 -2.35965e-10 -2.5046e-09)
(7.17646e-10 -2.00828e-10 -3.01387e-09)
(7.51593e-10 -1.09022e-10 -3.6007e-09)
(7.65248e-10 7.94095e-11 -4.26656e-09)
(7.47075e-10 4.29372e-10 -5.00445e-09)
(6.9041e-10 1.03768e-09 -5.78248e-09)
(6.30789e-10 1.91509e-09 -6.45719e-09)
(4.51601e-12 -2.81679e-12 -7.96676e-12)
(1.31414e-11 -8.38209e-12 -2.34888e-11)
(2.11626e-11 -1.41276e-11 -3.88167e-11)
(2.89158e-11 -2.06551e-11 -5.50419e-11)
(3.66839e-11 -2.86569e-11 -7.31599e-11)
(4.46914e-11 -3.90099e-11 -9.41184e-11)
(5.30825e-11 -5.28965e-11 -1.18836e-10)
(6.18647e-11 -7.19742e-11 -1.48178e-10)
(7.08245e-11 -9.85473e-11 -1.82876e-10)
(7.9422e-11 -1.35758e-10 -2.23357e-10)
(8.68145e-11 -1.8761e-10 -2.69478e-10)
(9.2466e-11 -2.58429e-10 -3.20202e-10)
(9.86419e-11 -3.50874e-10 -3.73389e-10)
(1.1745e-10 -4.60397e-10 -4.26105e-10)
(1.82947e-10 -5.6324e-10 -4.75612e-10)
(3.29794e-10 -6.05955e-10 -5.16471e-10)
(1.33852e-11 -8.18519e-12 -2.36356e-11)
(3.89444e-11 -2.43545e-11 -6.96861e-11)
(6.26995e-11 -4.09808e-11 -1.15149e-10)
(8.5635e-11 -5.9788e-11 -1.63254e-10)
(1.08582e-10 -8.27151e-11 -2.16941e-10)
(1.32208e-10 -1.122e-10 -2.79013e-10)
(1.5695e-10 -1.51528e-10 -3.52194e-10)
(1.82855e-10 -2.05287e-10 -4.39075e-10)
(2.09294e-10 -2.79849e-10 -5.41859e-10)
(2.34525e-10 -3.8404e-10 -6.61879e-10)
(2.55273e-10 -5.29274e-10 -7.98715e-10)
(2.66973e-10 -7.28849e-10 -9.49007e-10)
(2.66791e-10 -9.93779e-10 -1.10514e-09)
(2.63939e-10 -1.32125e-09 -1.25486e-09)
(3.00645e-10 -1.66795e-09 -1.38326e-09)
(4.39408e-10 -1.90651e-09 -1.4731e-09)
(2.18454e-11 -1.2857e-11 -3.86549e-11)
(6.35391e-11 -3.81761e-11 -1.13944e-10)
(1.02224e-10 -6.40532e-11 -1.88212e-10)
(1.39483e-10 -9.30309e-11 -2.66705e-10)
(1.76655e-10 -1.27945e-10 -3.54199e-10)
(2.14834e-10 -1.72291e-10 -4.55252e-10)
(2.54773e-10 -2.30772e-10 -5.74327e-10)
(2.96656e-10 -3.09747e-10 -7.15692e-10)
(3.39598e-10 -4.18257e-10 -8.83088e-10)
(3.80775e-10 -5.68637e-10 -1.07886e-09)
(4.13949e-10 -7.77609e-10 -1.30251e-09)
(4.27419e-10 -1.06579e-09 -1.54818e-09)
(4.021e-10 -1.45438e-09 -1.80124e-09)
(3.13679e-10 -1.95228e-09 -2.03496e-09)
(1.52178e-10 -2.52044e-09 -2.21151e-09)
(-1.03654e-11 -2.98216e-09 -2.2982e-09)
(2.96639e-11 -1.64678e-11 -5.26431e-11)
(8.62354e-11 -4.87996e-11 -1.55137e-10)
(1.38599e-10 -8.15026e-11 -2.5611e-10)
(1.88845e-10 -1.17568e-10 -3.62635e-10)
(2.38758e-10 -1.60221e-10 -4.81153e-10)
(2.89826e-10 -2.13363e-10 -6.17821e-10)
(3.43166e-10 -2.81976e-10 -7.78696e-10)
(3.99266e-10 -3.72853e-10 -9.69692e-10)
(4.57449e-10 -4.95205e-10 -1.19613e-09)
(5.14742e-10 -6.61911e-10 -1.46177e-09)
(5.63803e-10 -8.90341e-10 -1.76671e-09)
(5.89166e-10 -1.20335e-09 -2.10387e-09)
(5.61732e-10 -1.62713e-09 -2.45332e-09)
(4.35341e-10 -2.17937e-09 -2.77533e-09)
(1.6818e-10 -2.82558e-09 -3.00876e-09)
(-1.53546e-10 -3.35715e-09 -3.09971e-09)
(3.66547e-11 -1.88226e-11 -6.52852e-11)
(1.0649e-10 -5.56218e-11 -1.92327e-10)
(1.7093e-10 -9.23133e-11 -3.17263e-10)
(2.3246e-10 -1.3193e-10 -4.48747e-10)
(2.93218e-10 -1.7756e-10 -5.9464e-10)
(3.55031e-10 -2.32762e-10 -7.62476e-10)
(4.19391e-10 -3.01777e-10 -9.59707e-10)
(4.87279e-10 -3.90123e-10 -1.19375e-09)
(5.58754e-10 -5.0489e-10 -1.47159e-09)
(6.32079e-10 -6.55483e-10 -1.79874e-09)
(7.01986e-10 -8.54528e-10 -2.17715e-09)
(7.56553e-10 -1.11882e-09 -2.60108e-09)
(7.72534e-10 -1.46996e-09 -3.05016e-09)
(7.13058e-10 -1.92891e-09 -3.47946e-09)
(5.47582e-10 -2.48294e-09 -3.81306e-09)
(3.47803e-10 -2.96383e-09 -3.96827e-09)
(4.26892e-11 -1.98809e-11 -7.63393e-11)
(1.23932e-10 -5.85008e-11 -2.24787e-10)
(1.98612e-10 -9.63562e-11 -3.70457e-10)
(2.69481e-10 -1.36077e-10 -5.23261e-10)
(3.38915e-10 -1.80212e-10 -6.922e-10)
(4.08988e-10 -2.31307e-10 -8.85869e-10)
(4.81508e-10 -2.92139e-10 -1.11284e-09)
(5.57995e-10 -3.65581e-10 -1.38176e-09)
(6.39515e-10 -4.54722e-10 -1.7011e-09)
(7.26342e-10 -5.62496e-10 -2.07838e-09)
(8.17246e-10 -6.91441e-10 -2.51827e-09)
(9.08199e-10 -8.43733e-10 -3.01888e-09)
(9.90618e-10 -1.02253e-09 -3.56451e-09)
(1.05147e-09 -1.23681e-09 -4.1129e-09)
(1.08603e-09 -1.50518e-09 -4.57792e-09)
(1.13509e-09 -1.80177e-09 -4.83088e-09)
(4.7702e-11 -1.97226e-11 -8.56415e-11)
(1.38368e-10 -5.7786e-11 -2.52047e-10)
(2.21346e-10 -9.42888e-11 -4.14893e-10)
(2.99515e-10 -1.31231e-10 -5.85019e-10)
(3.75356e-10 -1.70326e-10 -7.72219e-10)
(4.51064e-10 -2.12784e-10 -9.8579e-10)
(5.28633e-10 -2.59415e-10 -1.23502e-09)
(6.09962e-10 -3.10084e-10 -1.52933e-09)
(6.96956e-10 -3.63054e-10 -1.87827e-09)
(7.91666e-10 -4.13706e-10 -2.29095e-09)
(8.96486e-10 -4.52506e-10 -2.7748e-09)
(1.01433e-09 -4.61899e-10 -3.33279e-09)
(1.14819e-09 -4.13642e-10 -3.95741e-09)
(1.29746e-09 -2.72e-10 -4.61696e-09)
(1.4428e-09 -2.65419e-11 -5.22454e-09)
(1.51483e-09 1.99293e-10 -5.59256e-09)
(5.16859e-11 -1.85664e-11 -9.31215e-11)
(1.49786e-10 -5.41377e-11 -2.73895e-10)
(2.3914e-10 -8.736e-11 -4.50234e-10)
(3.22616e-10 -1.1954e-10 -6.33549e-10)
(4.02686e-10 -1.51307e-10 -8.34032e-10)
(4.81509e-10 -1.82701e-10 -1.06132e-09)
(5.61096e-10 -2.12558e-10 -1.3249e-09)
(6.43458e-10 -2.38026e-10 -1.63442e-09)
(7.3087e-10 -2.53364e-10 -1.99969e-09)
(8.26267e-10 -2.48058e-10 -2.43043e-09)
(9.33952e-10 -2.03506e-10 -2.93553e-09)
(1.06066e-09 -8.79876e-11 -3.52141e-09)
(1.21716e-09 1.51699e-10 -4.18856e-09)
(1.41999e-09 6.0065e-10 -4.92331e-09)
(1.68947e-09 1.36942e-09 -5.67349e-09)
(2.00468e-09 2.41133e-09 -6.27048e-09)
(4.95632e-12 -2.97595e-12 -7.33993e-12)
(1.44707e-11 -8.87065e-12 -2.16454e-11)
(2.34687e-11 -1.49851e-11 -3.57871e-11)
(3.24297e-11 -2.1989e-11 -5.07878e-11)
(4.18158e-11 -3.06409e-11 -6.75889e-11)
(5.21038e-11 -4.19046e-11 -8.7103e-11)
(6.38117e-11 -5.70876e-11 -1.10241e-10)
(7.75334e-11 -7.79833e-11 -1.37902e-10)
(9.39827e-11 -1.07068e-10 -1.70926e-10)
(1.1412e-10 -1.47608e-10 -2.09974e-10)
(1.39548e-10 -2.03539e-10 -2.55373e-10)
(1.73711e-10 -2.78593e-10 -3.06966e-10)
(2.25203e-10 -3.73504e-10 -3.64183e-10)
(3.15114e-10 -4.79193e-10 -4.26608e-10)
(4.84622e-10 -5.64239e-10 -4.94107e-10)
(7.45369e-10 -5.74283e-10 -5.57427e-10)
(1.46706e-11 -8.64944e-12 -2.17752e-11)
(4.2826e-11 -2.57512e-11 -6.42114e-11)
(6.94253e-11 -4.34526e-11 -1.06155e-10)
(9.58684e-11 -6.36274e-11 -1.50624e-10)
(1.23502e-10 -8.84117e-11 -2.00401e-10)
(1.53713e-10 -1.20509e-10 -2.58184e-10)
(1.88013e-10 -1.63543e-10 -3.26668e-10)
(2.28127e-10 -2.22491e-10 -4.08529e-10)
(2.76092e-10 -3.0425e-10 -5.06274e-10)
(3.34492e-10 -4.17978e-10 -6.21878e-10)
(4.07099e-10 -5.75132e-10 -7.5622e-10)
(5.00807e-10 -7.87617e-10 -9.08349e-10)
(6.30693e-10 -1.06206e-09 -1.07501e-09)
(8.30268e-10 -1.38555e-09 -1.25101e-09)
(1.15686e-09 -1.69964e-09 -1.42897e-09)
(1.59643e-09 -1.88092e-09 -1.58053e-09)
(2.38844e-11 -1.3564e-11 -3.56069e-11)
(6.96855e-11 -4.03452e-11 -1.04982e-10)
(1.12853e-10 -6.7868e-11 -1.73489e-10)
(1.55605e-10 -9.89368e-11 -2.46034e-10)
(2.00072e-10 -1.36682e-10 -3.27131e-10)
(2.48442e-10 -1.8501e-10 -4.21165e-10)
(3.03107e-10 -2.49043e-10 -5.32519e-10)
(3.66793e-10 -3.35893e-10 -6.65596e-10)
(4.42703e-10 -4.55196e-10 -8.24524e-10)
(5.34656e-10 -6.20123e-10 -1.01259e-09)
(6.47367e-10 -8.47486e-10 -1.23108e-09)
(7.87024e-10 -1.15673e-09 -1.47748e-09)
(9.62599e-10 -1.56426e-09 -1.74326e-09)
(1.18737e-09 -2.06829e-09 -2.01183e-09)
(1.47256e-09 -2.61562e-09 -2.25737e-09)
(1.76461e-09 -3.0394e-09 -2.43356e-09)
(3.2314e-11 -1.73606e-11 -4.84855e-11)
(9.42121e-11 -5.15161e-11 -1.42911e-10)
(1.52347e-10 -8.62612e-11 -2.36029e-10)
(2.09602e-10 -1.24897e-10 -3.3445e-10)
(2.68733e-10 -1.7102e-10 -4.44255e-10)
(3.32563e-10 -2.28953e-10 -5.71343e-10)
(4.04192e-10 -3.04304e-10 -7.21661e-10)
(4.87207e-10 -4.04546e-10 -9.01208e-10)
(5.85904e-10 -5.39841e-10 -1.11575e-09)
(7.05533e-10 -7.23842e-10 -1.37e-09)
(8.52505e-10 -9.74559e-10 -1.66599e-09)
(1.03443e-09 -1.31398e-09 -2.00008e-09)
(1.25947e-09 -1.76446e-09 -2.35844e-09)
(1.5337e-09 -2.33421e-09 -2.71148e-09)
(1.85043e-09 -2.9759e-09 -3.01054e-09)
(2.13998e-09 -3.48876e-09 -3.19008e-09)
(3.9744e-11 -1.98163e-11 -6.01175e-11)
(1.15771e-10 -5.86108e-11 -1.77129e-10)
(1.86852e-10 -9.7549e-11 -2.92313e-10)
(2.56345e-10 -1.39943e-10 -4.13744e-10)
(3.27432e-10 -1.89289e-10 -5.48838e-10)
(4.03359e-10 -2.49514e-10 -7.04783e-10)
(4.87699e-10 -3.25563e-10 -8.88875e-10)
(5.84677e-10 -4.23531e-10 -1.10854e-09)
(6.99581e-10 -5.51428e-10 -1.37113e-09)
(8.39404e-10 -7.19523e-10 -1.68305e-09)
(1.01382e-09 -9.40968e-10 -2.04786e-09)
(1.23677e-09 -1.23226e-09 -2.46264e-09)
(1.52875e-09 -1.61227e-09 -2.91153e-09)
(1.91873e-09 -2.095e-09 -3.3564e-09)
(2.43248e-09 -2.6573e-09 -3.72871e-09)
(2.98193e-09 -3.1338e-09 -3.93678e-09)
(4.60355e-11 -2.08755e-11 -7.02775e-11)
(1.33952e-10 -6.15319e-11 -2.06974e-10)
(2.15705e-10 -1.01604e-10 -3.41224e-10)
(2.94913e-10 -1.44058e-10 -4.82282e-10)
(3.74964e-10 -1.91732e-10 -6.38609e-10)
(4.59276e-10 -2.47611e-10 -8.18409e-10)
(5.516e-10 -3.14864e-10 -1.02999e-09)
(6.56429e-10 -3.97029e-10 -1.28196e-09)
(7.7962e-10 -4.97716e-10 -1.58304e-09)
(9.29463e-10 -6.2044e-10 -1.94137e-09)
(1.11862e-09 -7.67978e-10 -2.3628e-09)
(1.36766e-09 -9.41929e-10 -2.8472e-09)
(1.71121e-09 -1.14352e-09 -3.3812e-09)
(2.20568e-09 -1.37775e-09 -3.9252e-09)
(2.91947e-09 -1.65828e-09 -4.39525e-09)
(3.76759e-09 -1.96005e-09 -4.66007e-09)
(5.11271e-11 -2.06632e-11 -7.88223e-11)
(1.48589e-10 -6.0622e-11 -2.32009e-10)
(2.38661e-10 -9.91627e-11 -3.82035e-10)
(3.25012e-10 -1.3857e-10 -5.39006e-10)
(4.11028e-10 -1.80705e-10 -7.12099e-10)
(5.00037e-10 -2.27214e-10 -9.10187e-10)
(5.95641e-10 -2.79119e-10 -1.14222e-09)
(7.02131e-10 -3.36613e-10 -1.41751e-09)
(8.2518e-10 -3.98199e-10 -1.74568e-09)
(9.73069e-10 -4.5925e-10 -2.13624e-09)
(1.1589e-09 -5.09577e-10 -2.59725e-09)
(1.40445e-09 -5.30123e-10 -3.13239e-09)
(1.74583e-09 -4.89613e-10 -3.73439e-09)
(2.2364e-09 -3.48681e-10 -4.37088e-09)
(2.91764e-09 -9.59929e-11 -4.95531e-09)
(3.63825e-09 1.39443e-10 -5.31099e-09)
(5.50339e-11 -1.9402e-11 -8.56861e-11)
(1.59742e-10 -5.65993e-11 -2.52045e-10)
(2.55862e-10 -9.15787e-11 -4.14444e-10)
(3.46944e-10 -1.2572e-10 -5.83478e-10)
(4.3617e-10 -1.59952e-10 -7.68736e-10)
(5.26581e-10 -1.94353e-10 -9.79327e-10)
(6.21335e-10 -2.27938e-10 -1.2244e-09)
(7.24086e-10 -2.57875e-10 -1.5134e-09)
(8.39585e-10 -2.78246e-10 -1.85612e-09)
(9.74718e-10 -2.77844e-10 -2.26244e-09)
(1.1403e-09 -2.36603e-10 -2.74143e-09)
(1.3541e-09 -1.19559e-10 -3.2993e-09)
(1.64519e-09 1.32009e-10 -3.93487e-09)
(2.05794e-09 6.10893e-10 -4.62972e-09)
(2.64106e-09 1.43356e-09 -5.32446e-09)
(3.32475e-09 2.54427e-09 -5.85772e-09)
(5.36538e-12 -3.12607e-12 -6.43551e-12)
(1.5708e-11 -9.3259e-12 -1.89822e-11)
(2.56198e-11 -1.5796e-11 -3.14004e-11)
(3.57171e-11 -2.32544e-11 -4.45995e-11)
(4.66316e-11 -3.25295e-11 -5.94269e-11)
(5.90732e-11 -4.46747e-11 -7.67182e-11)
(7.39058e-11 -6.10965e-11 -9.73275e-11)
(9.22402e-11 -8.37285e-11 -1.2214e-10)
(1.15579e-10 -1.15169e-10 -1.52045e-10)
(1.46064e-10 -1.58766e-10 -1.87887e-10)
(1.87008e-10 -2.18355e-10 -2.30389e-10)
(2.44125e-10 -2.97125e-10 -2.80129e-10)
(3.28401e-10 -3.9448e-10 -3.37693e-10)
(4.61612e-10 -4.98937e-10 -4.03965e-10)
(6.78981e-10 -5.76455e-10 -4.78929e-10)
(9.72118e-10 -5.74525e-10 -5.49248e-10)
(1.58648e-11 -9.07853e-12 -1.90903e-11)
(4.64341e-11 -2.70798e-11 -5.63095e-11)
(7.56931e-11 -4.57958e-11 -9.31366e-11)
(1.05433e-10 -6.72808e-11 -1.32261e-10)
(1.37485e-10 -9.38665e-11 -1.76184e-10)
(1.73906e-10 -1.28492e-10 -2.27371e-10)
(2.1719e-10 -1.7509e-10 -2.88349e-10)
(2.70544e-10 -2.39046e-10 -3.61739e-10)
(3.38266e-10 -3.27617e-10 -4.50177e-10)
(4.2635e-10 -4.50298e-10 -5.56137e-10)
(5.43547e-10 -6.18315e-10 -6.81601e-10)
(7.03397e-10 -8.42348e-10 -8.27716e-10)
(9.2793e-10 -1.12575e-09 -9.94571e-10)
(1.25197e-09 -1.44997e-09 -1.18091e-09)
(1.71257e-09 -1.75141e-09 -1.38002e-09)
(2.23293e-09 -1.91307e-09 -1.55129e-09)
(2.5774e-11 -1.42416e-11 -3.12154e-11)
(7.5391e-11 -4.24005e-11 -9.20516e-11)
(1.2274e-10 -7.15006e-11 -1.52194e-10)
(1.70643e-10 -1.04593e-10 -2.16006e-10)
(2.21966e-10 -1.45109e-10 -2.87544e-10)
(2.79913e-10 -1.97303e-10 -3.70803e-10)
(3.48354e-10 -2.66855e-10 -4.69895e-10)
(4.32259e-10 -3.61376e-10 -5.8907e-10)
(5.38256e-10 -4.91288e-10 -7.32633e-10)
(6.75411e-10 -6.70232e-10 -9.04532e-10)
(8.56231e-10 -9.15171e-10 -1.10765e-09)
(1.09761e-09 -1.24422e-09 -1.34259e-09)
(1.42019e-09 -1.67008e-09 -1.60599e-09)
(1.84024e-09 -2.18437e-09 -1.88794e-09)
(2.33586e-09 -2.72836e-09 -2.16551e-09)
(2.74782e-09 -3.14255e-09 -2.37555e-09)
(3.47656e-11 -1.82089e-11 -4.24979e-11)
(1.016e-10 -5.40976e-11 -1.25287e-10)
(1.65104e-10 -9.08222e-11 -2.07018e-10)
(2.28905e-10 -1.31985e-10 -2.93566e-10)
(2.96658e-10 -1.81534e-10 -3.90382e-10)
(3.7241e-10 -2.44274e-10 -5.02842e-10)
(4.61031e-10 -3.26399e-10 -6.36471e-10)
(5.6878e-10 -4.36175e-10 -7.97038e-10)
(7.04075e-10 -5.84652e-10 -9.90389e-10)
(8.7856e-10 -7.86467e-10 -1.22193e-09)
(1.10844e-09 -1.06012e-09 -1.4954e-09)
(1.41546e-09 -1.42708e-09 -1.8107e-09)
(1.82488e-09 -1.90668e-09 -2.16012e-09)
(2.35197e-09 -2.5009e-09 -2.52276e-09)
(2.95564e-09 -3.15532e-09 -2.85617e-09)
(3.42878e-09 -3.6704e-09 -3.07938e-09)
(4.25945e-11 -2.07576e-11 -5.26825e-11)
(1.24338e-10 -6.15007e-11 -1.55256e-10)
(2.01574e-10 -1.0262e-10 -2.56325e-10)
(2.78466e-10 -1.47793e-10 -3.63065e-10)
(3.59154e-10 -2.00856e-10 -4.82109e-10)
(4.48152e-10 -2.66328e-10 -6.20001e-10)
(5.50855e-10 -3.49672e-10 -7.8346e-10)
(6.74198e-10 -4.57981e-10 -9.79577e-10)
(8.27657e-10 -6.00246e-10 -1.21562e-09)
(1.02479e-09 -7.87998e-10 -1.49847e-09)
(1.28564e-09 -1.03561e-09 -1.8332e-09)
(1.63988e-09 -1.36016e-09 -2.22009e-09)
(2.12933e-09 -1.7795e-09 -2.64924e-09)
(2.80104e-09 -2.30345e-09 -3.09182e-09)
(3.65873e-09 -2.90087e-09 -3.48864e-09)
(4.46883e-09 -3.39704e-09 -3.73917e-09)
(4.91103e-11 -2.18489e-11 -6.15746e-11)
(1.43167e-10 -6.4472e-11 -1.8137e-10)
(2.31443e-10 -1.06767e-10 -2.99135e-10)
(3.18347e-10 -1.51983e-10 -4.23067e-10)
(4.0818e-10 -2.03362e-10 -5.6074e-10)
(5.05529e-10 -2.64333e-10 -7.19571e-10)
(6.15769e-10 -3.38762e-10 -9.07219e-10)
(7.45759e-10 -4.30933e-10 -1.13175e-09)
(9.04944e-10 -5.45633e-10 -1.40164e-09)
(1.10722e-09 -6.8774e-10 -1.72518e-09)
(1.37412e-09 -8.61741e-10 -2.10917e-09)
(1.74016e-09 -1.07118e-09 -2.55582e-09)
(2.25995e-09 -1.31904e-09 -3.05657e-09)
(3.01063e-09 -1.61084e-09 -3.58084e-09)
(4.05167e-09 -1.95578e-09 -4.05834e-09)
(5.174e-09 -2.30878e-09 -4.36168e-09)
(5.42608e-11 -2.15862e-11 -6.90435e-11)
(1.57946e-10 -6.34145e-11 -2.03256e-10)
(2.54518e-10 -1.04037e-10 -3.34812e-10)
(3.48363e-10 -1.45971e-10 -4.72653e-10)
(4.43642e-10 -1.91509e-10 -6.24996e-10)
(5.44643e-10 -2.42577e-10 -7.99816e-10)
(6.56211e-10 -3.00816e-10 -1.00532e-09)
(7.84364e-10 -3.67123e-10 -1.25017e-09)
(9.37257e-10 -4.40962e-10 -1.54354e-09)
(1.12686e-09 -5.19013e-10 -1.8947e-09)
(1.37188e-09 -5.92975e-10 -2.31199e-09)
(1.70243e-09 -6.46384e-10 -2.80013e-09)
(2.16578e-09 -6.5218e-10 -3.35467e-09)
(2.82438e-09 -5.77431e-10 -3.95023e-09)
(3.70566e-09 -4.16534e-10 -4.51694e-09)
(4.57314e-09 -2.78695e-10 -4.90086e-09)
(5.80837e-11 -2.02164e-11 -7.50343e-11)
(1.68803e-10 -5.90981e-11 -2.20755e-10)
(2.71082e-10 -9.58682e-11 -3.631e-10)
(3.69051e-10 -1.3222e-10 -5.11473e-10)
(4.66503e-10 -1.69236e-10 -6.74386e-10)
(5.67142e-10 -2.07392e-10 -8.60066e-10)
(6.74916e-10 -2.46066e-10 -1.07683e-09)
(7.94441e-10 -2.82958e-10 -1.3334e-09)
(9.3166e-10 -3.12855e-10 -1.63895e-09)
(1.09493e-09 -3.25564e-10 -2.00287e-09)
(1.29683e-09 -3.02381e-10 -2.43382e-09)
(1.5567e-09 -2.10648e-10 -2.9377e-09)
(1.90321e-09 4.20169e-12 -3.51323e-09)
(2.37166e-09 4.2643e-10 -4.14302e-09)
(2.97635e-09 1.15627e-09 -4.77438e-09)
(3.57964e-09 2.13213e-09 -5.26694e-09)
(5.72134e-12 -3.2592e-12 -5.28493e-12)
(1.67844e-11 -9.73735e-12 -1.55924e-11)
(2.74925e-11 -1.65224e-11 -2.58044e-11)
(3.85786e-11 -2.43923e-11 -3.66794e-11)
(5.08165e-11 -3.42351e-11 -4.89291e-11)
(6.51061e-11 -4.71782e-11 -6.32651e-11)
(8.25731e-11 -6.47353e-11 -8.04346e-11)
(1.04696e-10 -8.89523e-11 -1.01236e-10)
(1.33467e-10 -1.2256e-10 -1.26525e-10)
(1.71628e-10 -1.68993e-10 -1.57196e-10)
(2.23064e-10 -2.32056e-10 -1.94169e-10)
(2.93602e-10 -3.14687e-10 -2.38409e-10)
(3.9285e-10 -4.15729e-10 -2.91004e-10)
(5.3787e-10 -5.23095e-10 -3.53097e-10)
(7.54586e-10 -6.03042e-10 -4.23955e-10)
(1.0291e-09 -6.04945e-10 -4.89178e-10)
(1.69023e-11 -9.4693e-12 -1.56772e-11)
(4.95721e-11 -2.82606e-11 -4.6249e-11)
(8.11453e-11 -4.78973e-11 -7.6533e-11)
(1.1375e-10 -7.0572e-11 -1.08765e-10)
(1.49625e-10 -9.87926e-11 -1.45045e-10)
(1.91363e-10 -1.35732e-10 -1.87475e-10)
(2.42207e-10 -1.85624e-10 -2.3826e-10)
(3.06403e-10 -2.54188e-10 -2.99755e-10)
(3.8965e-10 -3.49107e-10 -3.74482e-10)
(4.99671e-10 -4.80149e-10 -4.65041e-10)
(6.46917e-10 -6.58603e-10 -5.73986e-10)
(8.45403e-10 -8.94509e-10 -7.03627e-10)
(1.11344e-09 -1.18969e-09 -8.55731e-10)
(1.47245e-09 -1.52354e-09 -1.03033e-09)
(1.93245e-09 -1.83188e-09 -1.21949e-09)
(2.40045e-09 -2.00035e-09 -1.37923e-09)
(2.74151e-11 -1.48414e-11 -2.56302e-11)
(8.03456e-11 -4.42438e-11 -7.55986e-11)
(1.31328e-10 -7.47699e-11 -1.25048e-10)
(1.83697e-10 -1.09707e-10 -1.77607e-10)
(2.40936e-10 -1.52757e-10 -2.36679e-10)
(3.07052e-10 -2.08561e-10 -3.0567e-10)
(3.87033e-10 -2.8321e-10 -3.88137e-10)
(4.87391e-10 -3.84987e-10 -4.87906e-10)
(6.16846e-10 -5.2492e-10 -6.09023e-10)
(7.87089e-10 -7.17386e-10 -7.55601e-10)
(1.01334e-09 -9.79623e-10 -9.31358e-10)
(1.31366e-09 -1.32927e-09 -1.13882e-09)
(1.70398e-09 -1.77702e-09 -1.37776e-09)
(2.18143e-09 -2.3109e-09 -1.64177e-09)
(2.68259e-09 -2.86856e-09 -1.90865e-09)
(3.01815e-09 -3.28969e-09 -2.1106e-09)
(3.689e-11 -1.89716e-11 -3.48902e-11)
(1.08004e-10 -5.6433e-11 -1.0288e-10)
(1.7616e-10 -9.49528e-11 -1.70065e-10)
(2.45621e-10 -1.38431e-10 -2.41329e-10)
(3.2078e-10 -1.91173e-10 -3.21244e-10)
(4.06642e-10 -2.58433e-10 -4.14371e-10)
(5.0938e-10 -3.47022e-10 -5.25488e-10)
(6.37042e-10 -4.66007e-10 -6.59724e-10)
(8.00459e-10 -6.27458e-10 -8.22513e-10)
(1.01434e-09 -8.47115e-10 -1.0193e-09)
(1.29823e-09 -1.14454e-09 -1.25478e-09)
(1.67587e-09 -1.54148e-09 -1.53124e-09)
(2.16868e-09 -2.05585e-09 -1.84547e-09)
(2.77249e-09 -2.6853e-09 -2.1828e-09)
(3.40002e-09 -3.36777e-09 -2.5055e-09)
(3.80271e-09 -3.89547e-09 -2.72871e-09)
(4.50585e-11 -2.16196e-11 -4.32452e-11)
(1.31746e-10 -6.41124e-11 -1.27463e-10)
(2.14298e-10 -1.07248e-10 -2.10526e-10)
(2.97558e-10 -1.54995e-10 -2.98385e-10)
(3.86439e-10 -2.1162e-10 -3.96602e-10)
(4.8643e-10 -2.82084e-10 -5.10698e-10)
(6.04202e-10 -3.72662e-10 -6.46482e-10)
(7.48404e-10 -4.91312e-10 -8.10168e-10)
(9.30763e-10 -6.48408e-10 -1.00841e-09)
(1.16764e-09 -8.57161e-10 -1.2479e-09)
(1.48211e-09 -1.13395e-09 -1.53443e-09)
(1.90582e-09 -1.49783e-09 -1.87071e-09)
(2.47781e-09 -1.96748e-09 -2.25199e-09)
(3.2294e-09 -2.55004e-09 -2.65797e-09)
(4.12547e-09 -3.204e-09 -3.0389e-09)
(4.89388e-09 -3.73357e-09 -3.29352e-09)
(5.17608e-11 -2.27303e-11 -5.05323e-11)
(1.51109e-10 -6.71712e-11 -1.48874e-10)
(2.44995e-10 -1.11518e-10 -2.45626e-10)
(3.38484e-10 -1.59367e-10 -3.47599e-10)
(4.36596e-10 -2.14333e-10 -4.61114e-10)
(5.44774e-10 -2.80397e-10 -5.92439e-10)
(6.69453e-10 -3.62118e-10 -7.48117e-10)
(8.18816e-10 -4.64904e-10 -9.352e-10)
(1.00389e-09 -5.95027e-10 -1.16126e-09)
(1.24026e-09 -7.59594e-10 -1.43408e-09)
(1.55083e-09 -9.66223e-10 -1.76071e-09)
(1.96979e-09 -1.22265e-09 -2.1452e-09)
(2.54676e-09 -1.53681e-09 -2.58389e-09)
(3.34335e-09 -1.91734e-09 -3.05603e-09)
(4.38855e-09 -2.36603e-09 -3.50623e-09)
(5.45456e-09 -2.80024e-09 -3.81454e-09)
(5.69524e-11 -2.24376e-11 -5.66508e-11)
(1.65977e-10 -6.6012e-11 -1.66801e-10)
(2.68112e-10 -1.08586e-10 -2.7485e-10)
(3.68318e-10 -1.53022e-10 -3.88222e-10)
(4.71354e-10 -2.01893e-10 -5.13746e-10)
(5.82146e-10 -2.57721e-10 -6.58166e-10)
(7.06245e-10 -3.22792e-10 -8.2845e-10)
(8.5038e-10 -3.99063e-10 -1.03209e-09)
(1.02326e-09 -4.87606e-10 -1.27714e-09)
(1.23685e-09 -5.87592e-10 -1.57203e-09)
(1.50836e-09 -6.94597e-10 -1.9247e-09)
(1.86301e-09 -7.98407e-10 -2.34069e-09)
(2.33602e-09 -8.8147e-10 -2.81892e-09)
(2.96515e-09 -9.23444e-10 -3.34288e-09)
(3.74234e-09 -9.25126e-10 -3.86088e-09)
(4.44225e-09 -9.51621e-10 -4.2398e-09)
(6.06897e-11 -2.09971e-11 -6.15561e-11)
(1.76546e-10 -6.14337e-11 -1.81115e-10)
(2.84059e-10 -9.99672e-11 -2.97994e-10)
(3.87825e-10 -1.38481e-10 -4.19958e-10)
(4.92059e-10 -1.78447e-10 -5.54121e-10)
(6.00854e-10 -2.20705e-10 -7.0737e-10)
(7.18449e-10 -2.65271e-10 -8.86759e-10)
(8.49506e-10 -3.10779e-10 -1.09976e-09)
(9.99445e-10 -3.53497e-10 -1.35433e-09)
(1.17487e-09 -3.85592e-10 -1.65871e-09)
(1.38404e-09 -3.92336e-10 -2.02065e-09)
(1.63688e-09 -3.47701e-10 -2.44568e-09)
(1.94264e-09 -2.08493e-10 -2.93343e-09)
(2.29998e-09 9.0675e-11 -3.47076e-09)
(2.66842e-09 6.24715e-10 -4.01647e-09)
(2.91202e-09 1.34546e-09 -4.45349e-09)
(6.00504e-12 -3.36833e-12 -3.92994e-12)
(1.76427e-11 -1.00687e-11 -1.15961e-11)
(2.89839e-11 -1.7116e-11 -1.91991e-11)
(4.08527e-11 -2.5326e-11 -2.73079e-11)
(5.4128e-11 -3.56401e-11 -3.64616e-11)
(6.9842e-11 -4.92551e-11 -4.72068e-11)
(8.92882e-11 -6.77677e-11 -6.01255e-11)
(1.14143e-10 -9.33337e-11 -7.58585e-11)
(1.46594e-10 -1.28802e-10 -9.5118e-11)
(1.8946e-10 -1.77716e-10 -1.18694e-10)
(2.46311e-10 -2.43952e-10 -1.47463e-10)
(3.21709e-10 -3.30433e-10 -1.82404e-10)
(4.22112e-10 -4.35999e-10 -2.24595e-10)
(5.5867e-10 -5.48956e-10 -2.74928e-10)
(7.50169e-10 -6.37112e-10 -3.32229e-10)
(9.87016e-10 -6.5112e-10 -3.84075e-10)
(1.77297e-11 -9.78135e-12 -1.16563e-11)
(5.20718e-11 -2.92276e-11 -3.43953e-11)
(8.54848e-11 -4.9618e-11 -5.69392e-11)
(1.20356e-10 -7.32782e-11 -8.097e-11)
(1.59222e-10 -1.02869e-10 -1.08078e-10)
(2.05053e-10 -1.41758e-10 -1.39874e-10)
(2.61561e-10 -1.94428e-10 -1.78074e-10)
(3.33551e-10 -2.66943e-10 -2.24566e-10)
(4.27264e-10 -3.67334e-10 -2.81441e-10)
(5.50639e-10 -5.05771e-10 -3.5099e-10)
(7.13258e-10 -6.93763e-10 -4.35658e-10)
(9.25617e-10 -9.41351e-10 -5.37912e-10)
(1.1973e-09 -1.25007e-09 -6.59833e-10)
(1.53349e-09 -1.59926e-09 -8.01555e-10)
(1.92527e-09 -1.92589e-09 -9.55169e-10)
(2.29431e-09 -2.11514e-09 -1.08254e-09)
(2.87212e-11 -1.53344e-11 -1.90564e-11)
(8.42892e-11 -4.57519e-11 -5.62173e-11)
(1.38155e-10 -7.74556e-11 -9.30242e-11)
(1.94051e-10 -1.1393e-10 -1.32204e-10)
(2.55907e-10 -1.59121e-10 -1.76332e-10)
(3.2829e-10 -2.17964e-10 -2.2801e-10)
(4.16872e-10 -2.97007e-10 -2.90013e-10)
(5.28967e-10 -4.05034e-10 -3.65377e-10)
(6.74056e-10 -5.53791e-10 -4.57452e-10)
(8.64102e-10 -7.58345e-10 -5.69824e-10)
(1.11301e-09 -1.03659e-09 -7.06096e-10)
(1.43375e-09 -1.40635e-09 -8.69296e-10)
(1.82975e-09 -1.87762e-09 -1.0605e-09)
(2.27492e-09 -2.43652e-09 -1.27531e-09)
(2.67908e-09 -3.0175e-09 -1.49449e-09)
(2.8748e-09 -3.45465e-09 -1.65922e-09)
(3.85796e-11 -1.95969e-11 -2.59378e-11)
(1.13092e-10 -5.83445e-11 -7.64944e-11)
(1.84935e-10 -9.83609e-11 -1.26495e-10)
(2.5885e-10 -1.4379e-10 -1.79607e-10)
(3.39769e-10 -1.99242e-10 -2.39283e-10)
(4.33341e-10 -2.70381e-10 -3.09007e-10)
(5.4651e-10 -3.64591e-10 -3.92486e-10)
(6.88186e-10 -4.91699e-10 -4.93775e-10)
(8.69949e-10 -6.64791e-10 -6.17319e-10)
(1.10661e-09 -9.0087e-10 -7.67818e-10)
(1.41592e-09 -1.22082e-09 -9.49763e-10)
(1.81551e-09 -1.64737e-09 -1.16632e-09)
(2.31252e-09 -2.19813e-09 -1.41679e-09)
(2.87706e-09 -2.86743e-09 -1.69122e-09)
(3.393e-09 -3.58495e-09 -1.95907e-09)
(3.6374e-09 -4.13044e-09 -2.14683e-09)
(4.70133e-11 -2.23234e-11 -3.21436e-11)
(1.37621e-10 -6.6275e-11 -9.47608e-11)
(2.24373e-10 -1.11092e-10 -1.56564e-10)
(3.12626e-10 -1.61037e-10 -2.22025e-10)
(4.07844e-10 -2.20698e-10 -2.95334e-10)
(5.16141e-10 -2.95564e-10 -3.80711e-10)
(6.44896e-10 -3.92522e-10 -4.82623e-10)
(8.03453e-10 -5.20566e-10 -6.05972e-10)
(1.00396e-09 -6.91404e-10 -7.56115e-10)
(1.26231e-09 -9.20151e-10 -9.38722e-10)
(1.59886e-09 -1.22563e-09 -1.15917e-09)
(2.03799e-09 -1.62957e-09 -1.42106e-09)
(2.60343e-09 -2.15242e-09 -1.72296e-09)
(3.30148e-09 -2.79902e-09 -2.05159e-09)
(4.07329e-09 -3.51575e-09 -2.36841e-09)
(4.68126e-09 -4.0816e-09 -2.58626e-09)
(5.386e-11 -2.34639e-11 -3.7556e-11)
(1.57392e-10 -6.94151e-11 -1.10658e-10)
(2.55694e-10 -1.15507e-10 -1.82633e-10)
(3.54319e-10 -1.65613e-10 -2.58582e-10)
(4.58783e-10 -2.23721e-10 -3.43271e-10)
(5.75042e-10 -2.94315e-10 -4.41468e-10)
(7.10027e-10 -3.82716e-10 -5.58201e-10)
(8.72239e-10 -4.95422e-10 -6.98966e-10)
(1.07249e-09 -6.40409e-10 -8.69797e-10)
(1.32482e-09 -8.27327e-10 -1.07712e-09)
(1.64778e-09 -1.06754e-09 -1.32717e-09)
(2.06592e-09 -1.37396e-09 -1.62452e-09)
(2.61091e-09 -1.76044e-09 -1.96875e-09)
(3.31827e-09 -2.23868e-09 -2.34718e-09)