/*--------------------------------*- C++ -*----------------------------------*\
| =========                 |                                                 |
| \\      /  F ield         | foam-extend: Open Source CFD                    |
|  \\    /   O peration     | Version:     3.1                                |
|   \\  /    A nd           | Web:         http://www.extend-project.de       |
|    \\/     M anipulation  |                                                 |
\*---------------------------------------------------------------------------*/
FoamFile
{
    version     2.0;
    format      ascii;
    class       surfaceScalarField;
    location    "3.2";
    object      meshPhi;
}
// * * * * * * * * * * * * * * * * * * * * * * * * * * * * * * * * * * * * * //

dimensions      [0 3 -1 0 0 0 0];

internalField   nonuniform List<scalar> 
41600
(
-5.5106e-09
-9.38716e-10
-5.60961e-11
5.76485e-11
-1.06119e-08
-2.7792e-09
-1.67618e-10
1.72286e-10
-1.52627e-08
-4.56796e-09
-2.80394e-10
2.88289e-10
-1.95848e-08
-6.37501e-09
-4.01323e-10
4.12777e-10
-2.36775e-08
-8.29388e-09
-5.38931e-10
5.54529e-10
-2.76185e-08
-1.04172e-08
-7.02301e-10
7.22895e-10
-3.14609e-08
-1.28434e-08
-9.01949e-10
9.2869e-10
-3.52258e-08
-1.56831e-08
-1.15099e-09
1.18538e-09
-3.88891e-08
-1.9065e-08
-1.46693e-09
1.51088e-09
-4.23617e-08
-2.31407e-08
-1.87486e-09
1.93076e-09
-4.54646e-08
-2.80867e-08
-2.41353e-09
2.4841e-09
-4.79108e-08
-3.41003e-08
-3.14696e-09
3.23472e-09
-4.93232e-08
-4.13763e-08
-4.18425e-09
4.28951e-09
-4.9366e-08
-5.00029e-08
-5.69504e-09
5.81375e-09
-4.8028e-08
-5.93408e-08
-7.7755e-09
7.93237e-09
-8.05448e-08
-1.30618e-08
1.8438e-08
-1.64358e-08
-1.83285e-09
-1.6722e-10
1.71839e-10
-3.16476e-08
-5.42502e-09
-4.99378e-10
5.13261e-10
-4.55126e-08
-8.91171e-09
-8.34723e-10
8.58199e-10
-5.83937e-08
-1.24262e-08
-1.19371e-09
1.22775e-09
-7.0588e-08
-1.61467e-08
-1.6014e-09
1.64773e-09
-8.23297e-08
-2.02483e-08
-2.0842e-09
2.14531e-09
-9.3783e-08
-2.49144e-08
-2.67223e-09
2.75151e-09
-1.05023e-07
-3.03482e-08
-3.40229e-09
3.50413e-09
-1.15997e-07
-3.67825e-08
-4.32203e-09
4.45203e-09
-1.26474e-07
-4.44841e-08
-5.49697e-09
5.66216e-09
-1.35965e-07
-5.37488e-08
-7.02314e-09
7.23185e-09
-1.43664e-07
-6.48741e-08
-9.04953e-09
9.31007e-09
-1.48476e-07
-7.80713e-08
-1.18113e-08
1.21272e-08
-1.49347e-07
-9.32085e-08
-1.56375e-08
1.60004e-08
-1.46075e-07
-1.08804e-07
-2.06229e-08
2.10687e-08
-1.32043e-07
-3.05012e-08
3.93817e-08
-2.70866e-08
-2.64465e-09
-2.74109e-10
2.81669e-10
-5.21465e-08
-7.8249e-09
-8.17908e-10
8.40626e-10
-7.49753e-08
-1.28435e-08
-1.36548e-09
1.40388e-09
-9.61714e-08
-1.78856e-08
-1.94984e-09
2.00546e-09
-1.16226e-07
-2.31999e-08
-2.61097e-09
2.68657e-09
-1.35534e-07
-2.90261e-08
-3.39027e-09
3.48983e-09
-1.54382e-07
-3.56107e-08
-4.33383e-09
4.46273e-09
-1.72928e-07
-4.32214e-08
-5.49603e-09
5.66122e-09
-1.91151e-07
-5.2156e-08
-6.94381e-09
7.15418e-09
-2.08766e-07
-6.27452e-08
-8.76288e-09
9.02958e-09
-2.25113e-07
-7.53351e-08
-1.10668e-08
1.14033e-08
-2.39045e-07
-9.02299e-08
-1.40094e-08
1.44304e-08
-2.4891e-07
-1.07541e-07
-1.77933e-08
1.83088e-08
-2.5295e-07
-1.26825e-07
-2.26252e-08
2.3229e-08
-2.50477e-07
-1.45988e-07
-2.83417e-08
2.90401e-08
-1.73215e-07
-3.65373e-08
4.32596e-08
-3.73e-08
-3.34133e-09
-3.73623e-10
3.83922e-10
-7.17913e-08
-9.88157e-09
-1.11372e-09
1.14465e-09
-1.03187e-07
-1.6203e-08
-1.85643e-09
1.90865e-09
-1.32311e-07
-2.25286e-08
-2.64561e-09
2.72116e-09
-1.59842e-07
-2.91584e-08
-3.53379e-09
3.6363e-09
-1.86335e-07
-3.63758e-08
-4.57413e-09
4.70884e-09
-2.12215e-07
-4.44647e-08
-5.82412e-09
5.99803e-09
-2.37761e-07
-5.37239e-08
-7.34877e-09
7.57087e-09
-2.6305e-07
-6.44755e-08
-9.22336e-09
9.50505e-09
-2.87873e-07
-7.70634e-08
-1.15356e-08
1.18911e-08
-3.11601e-07
-9.18289e-08
-1.43857e-08
1.48321e-08
-3.33017e-07
-1.09039e-07
-1.78803e-08
1.84368e-08
-3.50216e-07
-1.28707e-07
-2.21055e-08
2.27883e-08
-3.60873e-07
-1.50192e-07
-2.70417e-08
2.78498e-08
-3.63356e-07
-1.71148e-07
-3.22611e-08
3.31756e-08
-1.99502e-07
-3.84676e-08
4.44827e-08
-4.69228e-08
-3.8972e-09
-4.63182e-10
4.75949e-10
-9.02858e-08
-1.15194e-08
-1.37912e-09
1.41744e-09
-1.29718e-07
-1.88674e-08
-2.29463e-09
2.35925e-09
-1.66248e-07
-2.61865e-08
-3.26227e-09
3.3556e-09
-2.00733e-07
-3.38083e-08
-4.3443e-09
4.47065e-09
-2.33882e-07
-4.20373e-08
-5.60226e-09
5.76782e-09
-2.66267e-07
-5.11687e-08
-7.10056e-09
7.31352e-09
-2.98314e-07
-6.15008e-08
-8.90903e-09
9.1798e-09
-3.30262e-07
-7.33422e-08
-1.11039e-08
1.14453e-08
-3.62096e-07
-8.70078e-08
-1.37654e-08
1.41932e-08
-3.93417e-07
-1.02795e-07
-1.69706e-08
1.7503e-08
-4.23256e-07
-1.20922e-07
-2.0773e-08
2.14304e-08
-4.49835e-07
-1.41361e-07
-2.51514e-08
2.5952e-08
-4.70465e-07
-1.63442e-07
-2.99024e-08
3.08512e-08
-4.81894e-07
-1.84822e-07
-3.44055e-08
3.54903e-08
-2.12717e-07
-3.89985e-08
4.43697e-08
-5.58187e-08
-4.2944e-09
-5.40927e-10
5.55839e-10
-1.07367e-07
-1.26866e-08
-1.60864e-09
1.65336e-09
-1.54183e-07
-2.07546e-08
-2.67108e-09
2.7464e-09
-1.97481e-07
-2.87515e-08
-3.78719e-09
3.89576e-09
-2.38271e-07
-3.70208e-08
-5.0261e-09
5.17269e-09
-2.77402e-07
-4.58681e-08
-6.45444e-09
6.64588e-09
-3.15587e-07
-5.55764e-08
-8.13981e-09
8.38499e-09
-3.53403e-07
-6.64163e-08
-1.01527e-08
1.04628e-08
-3.9128e-07
-7.86508e-08
-1.25665e-08
1.29547e-08
-4.29459e-07
-9.2531e-08
-1.54527e-08
1.59345e-08
-4.67906e-07
-1.08279e-07
-1.88705e-08
1.94631e-08
-5.06148e-07
-1.2605e-07
-2.28446e-08
2.35651e-08
-5.42956e-07
-1.45827e-07
-2.73081e-08
2.81709e-08
-5.75741e-07
-1.67112e-07
-3.19801e-08
3.29913e-08
-5.99442e-07
-1.87943e-07
-3.61028e-08
3.72898e-08
-2.14857e-07
-4.01023e-08
4.54585e-08
-6.38722e-08
-4.52293e-09
-6.05758e-10
6.2246e-10
-1.22812e-07
-1.33547e-08
-1.79911e-09
1.84916e-09
-1.76263e-07
-2.18225e-08
-2.98083e-09
3.065e-09
-2.25589e-07
-3.01742e-08
-4.21392e-09
4.33496e-09
-2.71928e-07
-3.87485e-08
-5.5716e-09
5.73455e-09
-3.16244e-07
-4.78351e-08
-7.12269e-09
7.33465e-09
-3.5936e-07
-5.7687e-08
-8.93488e-09
9.205e-09
-4.01981e-07
-6.8527e-08
-1.10765e-08
1.1416e-08
-4.44703e-07
-8.05487e-08
-1.36158e-08
1.40376e-08
-4.88003e-07
-9.39102e-08
-1.66167e-08
1.71349e-08
-5.32203e-07
-1.08722e-07
-2.01294e-08
2.07582e-08
-5.77382e-07
-1.25028e-07
-2.41749e-08
2.49256e-08
-6.23099e-07
-1.42784e-07
-2.87034e-08
2.958e-08
-6.67607e-07
-1.61751e-07
-3.34862e-08
3.44822e-08
-7.05295e-07
-1.80917e-07
-3.77916e-08
3.89682e-08
-2.07943e-07
-4.30286e-08
4.89255e-08
-7.09877e-08
-6.5729e-10
6.75413e-10
-4.58014e-09
-1.3644e-07
-1.94957e-09
2.00384e-09
-1.35175e-08
-1.95698e-07
-3.22277e-09
3.31386e-09
-2.20656e-08
-2.5024e-07
-4.5417e-09
4.67237e-09
-3.04577e-08
-3.01296e-07
-5.98112e-09
6.15643e-09
-3.90139e-08
-3.49906e-07
-7.60946e-09
7.83652e-09
-4.79961e-08
-3.96966e-07
-9.49198e-09
9.77983e-09
-5.76169e-08
-4.43256e-07
-1.16923e-08
1.20517e-08
-6.80407e-08
-4.89463e-07
-1.42716e-08
1.47146e-08
-7.93791e-08
-5.36191e-07
-1.72851e-08
1.7824e-08
-9.16791e-08
-5.83955e-07
-2.07754e-08
2.1421e-08
-1.04905e-07
-6.33118e-07
-2.47613e-08
2.55196e-08
-1.18907e-07
-6.83651e-07
-2.92106e-08
3.00775e-08
-1.33386e-07
-7.34336e-07
-3.39529e-08
3.49135e-08
-1.4778e-07
-7.80283e-07
-3.8395e-08
3.95137e-08
-1.60841e-07
-4.82137e-08
5.51493e-08
-1.85705e-07
-5.59023e-09
-9.79938e-10
-5.24713e-11
-1.07661e-08
-2.90265e-09
-1.56762e-10
-1.54874e-08
-4.77559e-09
-2.62144e-10
-1.98792e-08
-6.67478e-09
-3.7501e-10
-2.40435e-08
-8.70108e-09
-5.03239e-10
-2.80594e-08
-1.0955e-08
-6.55153e-10
-3.19801e-08
-1.35441e-08
-8.40238e-10
-3.58247e-08
-1.65899e-08
-1.07004e-09
-3.95646e-08
-2.02347e-08
-1.35944e-09
-4.31041e-08
-2.46466e-08
-1.72863e-09
-4.62571e-08
-3.00227e-08
-2.20651e-09
-4.8738e-08
-3.65831e-08
-2.83557e-09
-5.01997e-08
-4.45414e-08
-3.67556e-09
-5.04044e-08
-5.39745e-08
-4.78671e-09
-4.95669e-08
-6.41748e-08
-6.10899e-09
-8.11876e-08
-8.49275e-09
-1.66727e-08
-1.91308e-09
-1.56425e-10
-3.21063e-08
-5.6652e-09
-4.67061e-10
-4.61808e-08
-9.31529e-09
-7.80434e-10
-5.92691e-08
-1.3008e-08
-1.1155e-09
-7.16764e-08
-1.69355e-08
-1.49544e-09
-8.36413e-08
-2.12876e-08
-1.94445e-09
-9.53285e-08
-2.62646e-08
-2.48971e-09
-1.06808e-07
-3.20895e-08
-3.16364e-09
-1.18015e-07
-3.90193e-08
-4.00669e-09
-1.28697e-07
-4.73492e-08
-5.07136e-09
-1.3834e-07
-5.74081e-08
-6.4282e-09
-1.46131e-07
-6.95244e-08
-8.17288e-09
-1.51027e-07
-8.3921e-08
-1.04243e-08
-1.52186e-07
-1.00413e-07
-1.32688e-08
-1.49964e-07
-1.17403e-07
-1.64837e-08
-1.3631e-07
-2.0893e-08
-2.74748e-08
-2.75986e-09
-2.56428e-10
-5.28978e-08
-8.16955e-09
-7.65017e-10
-7.60696e-08
-1.34218e-08
-1.27673e-09
-9.76048e-08
-1.87177e-08
-1.82219e-09
-1.18009e-07
-2.43249e-08
-2.43838e-09
-1.37683e-07
-3.05033e-08
-3.16328e-09
-1.56917e-07
-3.7522e-08
-4.03852e-09
-1.75863e-07
-4.56742e-08
-5.11205e-09
-1.9448e-07
-5.52883e-08
-6.44064e-09
-2.1245e-07
-6.67297e-08
-8.0923e-09
-2.2907e-07
-8.03804e-08
-1.01479e-08
-2.43148e-07
-9.6573e-08
-1.26975e-08
-2.53049e-07
-1.15411e-07
-1.58156e-08
-2.57205e-07
-1.36359e-07
-1.94683e-08
-2.55587e-07
-1.57194e-07
-2.3232e-08
-1.79075e-07
-2.68404e-08
-3.78297e-08
-3.48598e-09
-3.49539e-10
-7.28163e-08
-1.03139e-08
-1.04174e-09
-1.04679e-07
-1.69273e-08
-1.73583e-09
-1.34265e-07
-2.3568e-08
-2.47251e-09
-1.62271e-07
-3.05592e-08
-3.3004e-09
-1.89264e-07
-3.82075e-08
-4.26832e-09
-2.15676e-07
-4.68227e-08
-5.42828e-09
-2.41779e-07
-5.6732e-08
-6.8377e-09
-2.6763e-07
-6.829e-08
-8.56036e-09
-2.92979e-07
-8.18758e-08
-1.06651e-08
-3.17133e-07
-9.78658e-08
-1.32194e-08
-3.38796e-07
-1.16549e-07
-1.62707e-08
-3.56e-07
-1.3792e-07
-1.97968e-08
-3.66496e-07
-1.61228e-07
-2.35972e-08
-3.69202e-07
-1.84003e-07
-2.70987e-08
-2.06758e-07
-2.97437e-08
-4.75811e-08
-4.06469e-09
-4.33339e-10
-9.15587e-08
-1.20196e-08
-1.29002e-09
-1.31569e-07
-1.97038e-08
-2.14561e-09
-1.68671e-07
-2.73835e-08
-3.04891e-09
-2.03743e-07
-3.54153e-08
-4.05759e-09
-2.37514e-07
-4.4129e-08
-5.2282e-09
-2.70564e-07
-5.38461e-08
-6.6192e-09
-3.03316e-07
-6.48933e-08
-8.29242e-09
-3.35994e-07
-7.761e-08
-1.03125e-08
-3.68541e-07
-9.23435e-08
-1.27419e-08
-4.00487e-07
-1.09423e-07
-1.56285e-08
-4.30756e-07
-1.29084e-07
-1.89765e-08
-4.57431e-07
-1.51282e-07
-2.268e-08
-4.7772e-07
-1.75244e-07
-2.64094e-08
-4.88606e-07
-1.98495e-07
-2.94861e-08
-2.20854e-07
-3.13597e-08
-5.65901e-08
-4.4775e-09
-5.06088e-10
-1.08857e-07
-1.32329e-08
-1.50473e-09
-1.56348e-07
-2.16664e-08
-2.49765e-09
-2.00311e-07
-3.00526e-08
-3.53958e-09
-2.41785e-07
-3.87609e-08
-4.69458e-09
-2.81641e-07
-4.8122e-08
-6.02402e-09
-3.20604e-07
-5.84438e-08
-7.5894e-09
-3.59256e-07
-7.00227e-08
-9.45344e-09
-3.98017e-07
-8.31485e-08
-1.16786e-08
-4.37096e-07
-9.80994e-08
-1.43206e-08
-4.76395e-07
-1.15122e-07
-1.74139e-08
-5.15331e-07
-1.34391e-07
-2.0942e-08
-5.5249e-07
-1.55881e-07
-2.47686e-08
-5.85015e-07
-1.79026e-07
-2.85135e-08
-6.0756e-07
-2.01731e-07
-3.14073e-08
-2.23452e-07
-3.30871e-08
-6.47393e-08
-4.71422e-09
-5.66759e-10
-1.24485e-07
-1.39249e-08
-1.68293e-09
-1.78691e-07
-2.27724e-08
-2.78734e-09
-2.28758e-07
-3.15259e-08
-3.9385e-09
-2.75857e-07
-4.05493e-08
-5.20432e-09
-3.20977e-07
-5.0156e-08
-6.6483e-09
-3.6496e-07
-6.06213e-08
-8.33223e-09
-4.0852e-07
-7.21895e-08
-1.03171e-08
-4.52249e-07
-8.50749e-08
-1.26616e-08
-4.96605e-07
-9.94551e-08
-1.5416e-08
-5.41865e-07
-1.15456e-07
-1.86098e-08
-5.88016e-07
-1.33135e-07
-2.22286e-08
-6.3445e-07
-1.52449e-07
-2.61586e-08
-6.79095e-07
-1.73141e-07
-3.00705e-08
-7.15544e-07
-1.94157e-07
-3.32045e-08
-2.16385e-07
-3.59061e-08
-7.19322e-08
-6.1499e-10
-4.77233e-09
-1.38261e-07
-1.82372e-09
-1.40899e-08
-1.98335e-07
-3.01364e-09
-2.30177e-08
-2.53676e-07
-4.24497e-09
-3.18089e-08
-3.05547e-07
-5.58712e-09
-4.08075e-08
-3.55016e-07
-7.10333e-09
-5.02967e-08
-4.03001e-07
-8.85333e-09
-6.0508e-08
-4.50293e-07
-1.08942e-08
-7.16224e-08
-4.97583e-07
-1.3279e-08
-8.37653e-08
-5.45466e-07
-1.60519e-08
-9.69939e-08
-5.94423e-07
-1.92382e-08
-1.11276e-07
-6.44747e-07
-2.28274e-08
-1.26455e-07
-6.96266e-07
-2.67315e-08
-1.42211e-07
-7.47436e-07
-3.06845e-08
-1.5792e-07
-7.92382e-07
-3.40326e-08
-1.72205e-07
-4.01847e-08
-1.91858e-07
-5.65968e-09
-1.01691e-09
-4.6932e-11
-1.09007e-08
-3.01322e-09
-1.40188e-10
-1.56836e-08
-4.96097e-09
-2.34334e-10
-2.01358e-08
-6.94096e-09
-3.35005e-10
-2.43612e-08
-9.05965e-09
-4.49109e-10
-2.84397e-08
-1.14231e-08
-5.83809e-10
-3.24241e-08
-1.41442e-08
-7.47038e-10
-3.63314e-08
-1.73496e-08
-9.47999e-10
-4.01299e-08
-2.11857e-08
-1.19769e-09
-4.37195e-08
-2.58213e-08
-1.50944e-09
-4.69135e-08
-3.14457e-08
-1.89928e-09
-4.9436e-08
-3.82514e-08
-2.38512e-09
-5.09752e-08
-4.63815e-08
-2.98145e-09
-5.13609e-08
-5.57639e-08
-3.67967e-09
-5.085e-08
-6.55106e-08
-4.39035e-09
-8.22283e-08
-5.38591e-09
-1.68793e-08
-1.98506e-09
-1.3992e-10
-3.25069e-08
-5.88039e-09
-4.17703e-10
-4.67646e-08
-9.67576e-09
-6.97678e-10
-6.00326e-08
-1.35249e-08
-9.96571e-10
-7.26217e-08
-1.76305e-08
-1.33471e-09
-8.47731e-08
-2.21928e-08
-1.73296e-09
-9.66504e-08
-2.74219e-08
-2.21407e-09
-1.08318e-07
-3.35503e-08
-2.8039e-09
-1.19701e-07
-4.08412e-08
-3.53232e-09
-1.30534e-07
-4.95894e-08
-4.4336e-09
-1.40295e-07
-6.01062e-08
-5.54513e-09
-1.48189e-07
-7.26628e-08
-6.90173e-09
-1.53253e-07
-8.73428e-08
-8.51599e-09
-1.54811e-07
-1.03681e-07
-1.03246e-08
-1.53353e-07
-1.19753e-07
-1.20662e-08
-1.36551e-07
-1.37835e-08
-2.78135e-08
-2.86324e-09
-2.29387e-10
-5.35544e-08
-8.47842e-09
-6.84214e-10
-7.70259e-08
-1.39386e-08
-1.14143e-09
-9.88554e-08
-1.94573e-08
-1.62806e-09
-1.19557e-07
-2.53169e-08
-2.17661e-09
-1.39537e-07
-3.17911e-08
-2.81983e-09
-1.59085e-07
-3.91623e-08
-3.59268e-09
-1.78344e-07
-4.77352e-08
-4.53352e-09
-1.97255e-07
-5.78451e-08
-5.68423e-09
-2.15478e-07
-6.98533e-08
-7.0882e-09
-2.32284e-07
-8.4113e-08
-8.78401e-09
-2.46483e-07
-1.00872e-07
-1.07893e-08
-2.5651e-07
-1.20037e-07
-1.30633e-08
-2.60982e-07
-1.40692e-07
-1.5435e-08
-2.60088e-07
-1.60192e-07
-1.75048e-08
-1.7887e-07
-1.87407e-08
-3.82922e-08
-3.61579e-09
-3.12699e-10
-7.37121e-08
-1.07015e-08
-9.31766e-10
-1.05983e-07
-1.75747e-08
-1.55199e-09
-1.35969e-07
-2.44924e-08
-2.20932e-09
-1.64381e-07
-3.17952e-08
-2.94653e-09
-1.91793e-07
-3.9806e-08
-3.80584e-09
-2.18635e-07
-4.88493e-08
-4.83107e-09
-2.45171e-07
-5.92642e-08
-6.06835e-09
-2.71434e-07
-7.14108e-08
-7.56473e-09
-2.97141e-07
-8.56599e-08
-9.3628e-09
-3.2155e-07
-1.02348e-07
-1.14881e-08
-3.43327e-07
-1.21661e-07
-1.39221e-08
-3.60517e-07
-1.43358e-07
-1.65496e-08
-3.70997e-07
-1.66254e-07
-1.90875e-08
-3.73973e-07
-1.87401e-07
-2.1057e-08
-2.06341e-07
-2.18557e-08
-4.81558e-08
-4.21502e-09
-3.8769e-10
-9.26712e-08
-1.24681e-08
-1.1539e-09
-1.33187e-07
-2.04517e-08
-1.91849e-09
-1.70785e-07
-2.84486e-08
-2.72463e-09
-2.0636e-07
-3.68345e-08
-3.62308e-09
-2.40649e-07
-4.59565e-08
-4.66291e-09
-2.74235e-07
-5.61508e-08
-5.89359e-09
-3.07532e-07
-6.77551e-08
-7.36511e-09
-3.40738e-07
-8.11114e-08
-9.12526e-09
-3.7375e-07
-9.65541e-08
-1.12117e-08
-4.06034e-07
-1.14366e-07
-1.36351e-08
-4.36426e-07
-1.34669e-07
-1.63454e-08
-4.62931e-07
-1.57171e-07
-1.91707e-08
-4.82767e-07
-1.80647e-07
-2.17481e-08
-4.9324e-07
-2.02114e-07
-2.35443e-08
-2.20391e-07
-2.40835e-08
-5.72635e-08
-4.64188e-09
-4.528e-10
-1.1016e-07
-1.37229e-08
-1.34603e-09
-1.58241e-07
-2.2482e-08
-2.23342e-09
-2.02781e-07
-3.12111e-08
-3.16341e-09
-2.4484e-07
-4.0299e-08
-4.19249e-09
-2.853e-07
-5.00935e-08
-5.37406e-09
-3.24891e-07
-6.09163e-08
-6.76045e-09
-3.64186e-07
-7.30725e-08
-8.40274e-09
-4.03579e-07
-8.68515e-08
-1.03475e-08
-4.43232e-07
-1.02514e-07
-1.2628e-08
-4.82966e-07
-1.20257e-07
-1.52466e-08
-5.22072e-07
-1.4014e-07
-1.81423e-08
-5.58968e-07
-1.61901e-07
-2.11279e-08
-5.90649e-07
-1.8453e-07
-2.38135e-08
-6.12046e-07
-2.05413e-07
-2.56077e-08
-2.23009e-07
-2.62463e-08
-6.54963e-08
-4.88601e-09
-5.07108e-10
-1.25948e-07
-1.44366e-08
-1.50552e-09
-1.80814e-07
-2.36227e-08
-2.49262e-09
-2.31526e-07
-3.27304e-08
-3.52027e-09
-2.79275e-07
-4.21427e-08
-4.64841e-09
-3.25067e-07
-5.21891e-08
-5.93248e-09
-3.69749e-07
-6.31568e-08
-7.42534e-09
-4.1403e-07
-7.5296e-08
-9.17706e-09
-4.58478e-07
-8.88173e-08
-1.12319e-08
-5.03504e-07
-1.03878e-07
-1.36204e-08
-5.49299e-07
-1.20552e-07
-1.63441e-08
-5.95705e-07
-1.3879e-07
-1.93491e-08
-6.41881e-07
-1.5833e-07
-2.24731e-08
-6.85456e-07
-1.78516e-07
-2.53702e-08
-7.20137e-07
-1.97773e-07
-2.74482e-08
-2.15803e-07
-2.89934e-08
-7.27571e-08
-5.50292e-10
-4.94501e-09
-1.39853e-07
-1.63156e-09
-1.46039e-08
-2.00644e-07
-2.69517e-09
-2.38704e-08
-2.56679e-07
-3.79456e-09
-3.30138e-08
-3.09248e-07
-4.99106e-09
-4.23963e-08
-3.59437e-07
-6.34008e-09
-5.23154e-08
-4.0817e-07
-7.89294e-09
-6.30122e-08
-4.56236e-07
-9.69685e-09
-7.46708e-08
-5.04306e-07
-1.17924e-08
-8.74103e-08
-5.52928e-07
-1.42068e-08
-1.01265e-07
-6.02504e-07
-1.69417e-08
-1.16152e-07
-6.53179e-07
-1.99518e-08
-1.31818e-07
-7.04536e-07
-2.31038e-08
-1.47756e-07
-7.54677e-07
-2.61057e-08
-1.6302e-07
-7.97637e-07
-2.84266e-08
-1.75779e-07
-3.26353e-08
-1.91054e-07
-5.71843e-09
-1.04875e-09
-3.97017e-11
-1.10146e-08
-3.10828e-09
-1.18568e-10
-1.58494e-08
-5.11975e-09
-1.98108e-10
-2.03521e-08
-7.16753e-09
-2.83006e-10
-2.46278e-08
-9.36202e-09
-3.78958e-10
-2.87566e-08
-1.18125e-08
-4.91735e-10
-3.27907e-08
-1.46342e-08
-6.27473e-10
-3.67453e-08
-1.79545e-08
-7.92831e-10
-4.05859e-08
-2.19168e-08
-9.94895e-10
-4.42099e-08
-2.66812e-08
-1.24067e-09
-4.74313e-08
-3.24173e-08
-1.53569e-09
-4.99829e-08
-3.92815e-08
-1.88098e-09
-5.15749e-08
-4.73607e-08
-2.26686e-09
-5.20656e-08
-5.6528e-08
-2.66254e-09
-5.17015e-08
-6.59331e-08
-3.00236e-09
-8.27301e-08
-3.37893e-09
-1.70541e-08
-2.04706e-09
-1.1837e-10
-3.28458e-08
-6.06541e-09
-3.53303e-10
-4.72577e-08
-9.98454e-09
-5.89859e-10
-6.06759e-08
-1.39649e-08
-8.41951e-10
-7.34145e-08
-1.82168e-08
-1.12636e-09
-8.57158e-08
-2.29464e-08
-1.45991e-09
-9.77416e-08
-2.8368e-08
-1.86024e-09
-1.0955e-07
-3.47148e-08
-2.34608e-09
-1.2106e-07
-4.22441e-08
-2.93663e-09
-1.31993e-07
-5.12327e-08
-3.64937e-09
-1.4183e-07
-6.19533e-08
-4.49487e-09
-1.4979e-07
-7.4605e-08
-5.46662e-09
-1.54966e-07
-8.91583e-08
-6.52241e-09
-1.56758e-07
-1.05029e-07
-7.55808e-09
-1.55644e-07
-1.2033e-07
-8.38946e-09
-1.36301e-07
-8.92775e-09
-2.81e-08
-2.95229e-09
-1.94072e-10
-5.41096e-08
-8.74404e-09
-5.78765e-10
-7.78337e-08
-1.43814e-08
-9.65114e-10
-9.99089e-08
-2.00872e-08
-1.37562e-09
-1.20855e-07
-2.61542e-08
-1.83715e-09
-1.41082e-07
-3.28643e-08
-2.37618e-09
-1.60874e-07
-4.05051e-08
-3.01992e-09
-1.80365e-07
-4.93812e-08
-3.79625e-09
-1.99484e-07
-5.98184e-08
-4.732e-09
-2.1787e-07
-7.21511e-08
-5.84802e-09
-2.34781e-07
-8.66762e-08
-7.14901e-09
-2.49036e-07
-1.03538e-07
-8.60497e-09
-2.59128e-07
-1.22479e-07
-1.01215e-08
-2.63772e-07
-1.4241e-07
-1.15091e-08
-2.63189e-07
-1.6071e-07
-1.25006e-08
-1.77871e-07
-1.27087e-08
-3.86832e-08
-3.72764e-09
-2.64577e-10
-7.44695e-08
-1.10349e-08
-7.88225e-10
-1.07085e-07
-1.81297e-08
-1.31237e-09
-1.37405e-07
-2.52802e-08
-1.867e-09
-1.66151e-07
-3.28394e-08
-2.4875e-09
-1.93898e-07
-4.11398e-08
-3.20813e-09
-2.21074e-07
-5.0511e-08
-4.06315e-09
-2.4793e-07
-6.12909e-08
-5.08632e-09
-2.74478e-07
-7.38261e-08
-6.30771e-09
-3.00403e-07
-8.84531e-08
-7.74599e-09
-3.24933e-07
-1.05438e-07
-9.39366e-09
-3.46713e-07
-1.24839e-07
-1.11912e-08
-3.63818e-07
-1.46219e-07
-1.29894e-08
-3.74224e-07
-1.68182e-07
-1.45253e-08
-3.77258e-07
-1.87807e-07
-1.54889e-08
-2.04799e-07
-1.54819e-08
-4.86419e-08
-4.34457e-09
-3.28052e-10
-9.36122e-08
-1.2854e-08
-9.76215e-10
-1.34555e-07
-2.1093e-08
-1.62245e-09
-1.72566e-07
-2.93569e-08
-2.30278e-09
-2.08554e-07
-3.80347e-08
-3.05932e-09
-2.43259e-07
-4.74834e-08
-3.93202e-09
-2.7726e-07
-5.80441e-08
-4.95978e-09
-3.10957e-07
-7.00514e-08
-6.1795e-09
-3.4452e-07
-8.38305e-08
-7.62184e-09
-3.77805e-07
-9.96755e-08
-9.30181e-09
-4.10221e-07
-1.17789e-07
-1.12011e-08
-4.40548e-07
-1.38156e-07
-1.3239e-08
-4.66768e-07
-1.6027e-07
-1.52295e-08
-4.86172e-07
-1.82677e-07
-1.68613e-08
-4.963e-07
-2.02426e-07
-1.77916e-08
-2.18553e-07
-1.77411e-08
-5.78332e-08
-4.7836e-09
-3.83174e-10
-1.11262e-07
-1.41447e-08
-1.13885e-09
-1.59841e-07
-2.3182e-08
-1.88896e-09
-2.04864e-07
-3.21999e-08
-2.67401e-09
-2.47403e-07
-4.16012e-08
-3.54094e-09
-2.88347e-07
-5.17432e-08
-4.53337e-09
-3.28423e-07
-6.29519e-08
-5.69275e-09
-3.68188e-07
-7.55273e-08
-7.05717e-09
-4.08005e-07
-8.97394e-08
-8.65687e-09
-4.47984e-07
-1.05805e-07
-1.05045e-08
-4.87869e-07
-1.23838e-07
-1.25778e-08
-5.26857e-07
-1.43758e-07
-1.47914e-08
-5.63281e-07
-1.65087e-07
-1.69534e-08
-5.94154e-07
-1.86583e-07
-1.87392e-08
-6.14739e-07
-2.05654e-07
-1.97629e-08
-2.21025e-07
-1.99164e-08
-6.6137e-08
-5.03419e-09
-4.29163e-10
-1.27187e-07
-1.48773e-08
-1.27389e-09
-1.8261e-07
-2.43528e-08
-2.1084e-09
-2.33861e-07
-3.37594e-08
-2.97609e-09
-2.82145e-07
-4.34934e-08
-3.92688e-09
-3.28476e-07
-5.38934e-08
-5.00621e-09
-3.73699e-07
-6.52494e-08
-6.25627e-09
-4.18507e-07
-7.78054e-08
-7.71478e-09
-4.63436e-07
-9.17509e-08
-9.41099e-09
-5.08838e-07
-1.07199e-07
-1.1357e-08
-5.54816e-07
-1.24142e-07
-1.35323e-08
-6.01087e-07
-1.42395e-07
-1.58612e-08
-6.46668e-07
-1.61496e-07
-1.81746e-08
-6.89133e-07
-1.80556e-07
-2.01803e-08
-7.22544e-07
-1.97995e-07
-2.14841e-08
-2.13636e-07
-2.23888e-08
-7.34556e-08
-4.65743e-10
-5.09403e-09
-1.41202e-07
-1.38064e-09
-1.50468e-08
-2.02597e-07
-2.27995e-09
-2.46031e-08
-2.59215e-07
-3.20843e-09
-3.40442e-08
-3.12361e-07
-4.21725e-09
-4.37448e-08
-3.63129e-07
-5.35199e-09
-5.40107e-08
-4.12443e-07
-6.65388e-09
-6.50846e-08
-4.61077e-07
-8.15884e-09
-7.71433e-08
-5.09671e-07
-9.89412e-09
-9.02846e-08
-5.58715e-07
-1.1871e-08
-1.04501e-07
-6.08516e-07
-1.40719e-08
-1.19634e-07
-6.59087e-07
-1.64315e-08
-1.35309e-07
-7.09841e-07
-1.88063e-08
-1.50848e-07
-7.58766e-07
-2.09426e-08
-1.65106e-07
-8.00152e-07
-2.24753e-08
-1.762e-07
-2.53716e-08
-1.88758e-07
-5.76597e-09
-1.07479e-09
-3.10594e-11
-1.11068e-08
-3.18589e-09
-9.27404e-11
-1.59833e-08
-5.24889e-09
-1.54889e-10
-2.05262e-08
-7.35061e-09
-2.21105e-10
-2.48413e-08
-9.60399e-09
-2.95725e-10
-2.90088e-08
-1.21199e-08
-3.83037e-10
-3.30798e-08
-1.50136e-08
-4.87399e-10
-3.70681e-08
-1.84104e-08
-6.13171e-10
-4.09367e-08
-2.24477e-08
-7.64312e-10
-4.45811e-08
-2.72741e-08
-9.43425e-10
-4.78154e-08
-3.30398e-08
-1.14996e-09
-5.0377e-08
-3.98744e-08
-1.37728e-09
-5.19858e-08
-4.78397e-08
-1.6087e-09
-5.25073e-08
-5.68117e-08
-1.81523e-09
-5.21749e-08
-6.60141e-08
-1.96012e-09
-8.29005e-08
-2.0774e-09
-1.71955e-08
-2.09776e-09
-9.2608e-11
-3.31197e-08
-6.21647e-09
-2.76357e-10
-4.76557e-08
-1.02357e-08
-4.61202e-10
-6.11935e-08
-1.43205e-08
-6.57842e-10
-7.40493e-08
-1.86862e-08
-8.79067e-10
-8.64656e-08
-2.35415e-08
-1.1374e-09
-9.86016e-08
-2.91011e-08
-1.44538e-09
-1.10511e-07
-3.55936e-08
-1.81532e-09
-1.22103e-07
-4.32646e-08
-2.25786e-09
-1.33095e-07
-5.23682e-08
-2.7789e-09
-1.42964e-07
-6.31389e-08
-3.37381e-09
-1.5094e-07
-7.5723e-08
-4.01851e-09
-1.56142e-07
-9.00369e-08
-4.65837e-09
-1.5799e-07
-1.05488e-07
-5.20361e-09
-1.56939e-07
-1.2031e-07
-5.55236e-09
-1.35994e-07
-5.62973e-09
-2.83316e-08
-3.02514e-09
-1.51843e-10
-5.45582e-08
-8.96094e-09
-4.52746e-10
-7.84854e-08
-1.47416e-08
-7.5467e-10
-1.00756e-07
-2.05964e-08
-1.07494e-09
-1.21895e-07
-2.68249e-08
-1.43406e-09
-1.42309e-07
-3.37126e-08
-1.85178e-09
-1.62282e-07
-4.15468e-08
-2.34755e-09
-1.81938e-07
-5.06254e-08
-2.93974e-09
-2.01191e-07
-6.1257e-08
-3.64313e-09
-2.19667e-07
-7.37429e-08
-4.46323e-09
-2.36614e-07
-8.83254e-08
-5.38648e-09
-2.50856e-07
-1.05071e-07
-6.36557e-09
-2.60914e-07
-1.23642e-07
-7.30284e-09
-2.65547e-07
-1.42924e-07
-8.04903e-09
-2.64979e-07
-1.60448e-07
-8.45851e-09
-1.76973e-07
-8.30889e-09
-3.89994e-08
-3.81915e-09
-2.07022e-10
-7.50816e-08
-1.13072e-08
-6.16647e-10
-1.07974e-07
-1.85813e-08
-1.02631e-09
-1.3856e-07
-2.59176e-08
-1.45912e-09
-1.67567e-07
-3.36767e-08
-1.94213e-09
-1.9557e-07
-4.21954e-08
-2.50101e-09
-2.22993e-07
-5.18024e-08
-3.16037e-09
-2.50073e-07
-6.28265e-08
-3.9426e-09
-2.76803e-07
-7.55922e-08
-4.86418e-09
-3.02842e-07
-9.03949e-08
-5.92779e-09
-3.27393e-07
-1.07433e-07
-7.10941e-09
-3.49094e-07
-1.26667e-07
-8.33912e-09
-3.66039e-07
-1.4756e-07
-9.48091e-09
-3.76265e-07
-1.68683e-07
-1.03385e-08
-3.79174e-07
-1.87288e-07
-1.07433e-08
-2.03387e-07
-1.04778e-08
-4.90349e-08
-4.45061e-09
-2.56709e-10
-9.43726e-08
-1.31693e-08
-7.63781e-10
-1.35658e-07
-2.16154e-08
-1.26893e-09
-1.73999e-07
-3.00923e-08
-1.79996e-09
-2.1031e-07
-3.8998e-08
-2.38916e-09
-2.45333e-07
-4.86937e-08
-3.06654e-09
-2.7964e-07
-5.95187e-08
-3.86024e-09
-3.13614e-07
-7.17963e-08
-4.795e-09
-3.47401e-07
-8.58262e-08
-5.88765e-09
-3.8082e-07
-1.01855e-07
-7.13823e-09
-4.13236e-07
-1.2001e-07
-8.51532e-09
-4.43396e-07
-1.40168e-07
-9.93509e-09
-4.69285e-07
-1.61707e-07
-1.12382e-08
-4.88268e-07
-1.83137e-07
-1.21985e-08
-4.98053e-07
-2.01703e-07
-1.26246e-08
-2.16799e-07
-1.23826e-08
-5.82941e-08
-4.89965e-09
-2.99867e-10
-1.12153e-07
-1.44895e-08
-8.91102e-10
-1.61133e-07
-2.37524e-08
-1.47754e-09
-2.06541e-07
-3.30012e-08
-2.09047e-09
-2.49456e-07
-4.26477e-08
-2.76597e-09
-2.9077e-07
-5.30532e-08
-3.53693e-09
-3.31203e-07
-6.4541e-08
-4.43356e-09
-3.71293e-07
-7.73988e-08
-5.48171e-09
-4.11373e-07
-9.18684e-08
-6.69828e-09
-4.51503e-07
-1.08116e-07
-8.08234e-09
-4.91371e-07
-1.26178e-07
-9.60079e-09
-5.30111e-07
-1.45859e-07
-1.11688e-08
-5.66026e-07
-1.66565e-07
-1.26254e-08
-5.96209e-07
-1.87005e-07
-1.37365e-08
-6.16186e-07
-2.04794e-07
-1.42768e-08
-2.19048e-07
-1.4233e-08
-6.66556e-08
-5.1556e-09
-3.35884e-10
-1.28189e-07
-1.52378e-08
-9.96851e-10
-1.84062e-07
-2.49482e-08
-1.64936e-09
-2.35742e-07
-3.4594e-08
-2.327e-09
-2.84447e-07
-4.45803e-08
-3.0682e-09
-3.3119e-07
-5.52492e-08
-3.90735e-09
-3.76811e-07
-6.68875e-08
-4.87543e-09
-4.21984e-07
-7.97259e-08
-5.99838e-09
-4.6721e-07
-9.39255e-08
-7.29298e-09
-5.12786e-07
-1.09549e-07
-8.75885e-09
-5.58742e-07
-1.26511e-07
-1.0366e-08
-6.04711e-07
-1.44517e-07
-1.20383e-08
-6.49647e-07
-1.62988e-07
-1.36325e-08
-6.91174e-07
-1.8098e-07
-1.49356e-08
-7.23685e-07
-1.97087e-07
-1.57095e-08
-2.1144e-07
-1.62319e-08
-7.40213e-08
-3.64543e-10
-5.21617e-09
-1.42294e-07
-1.08049e-09
-1.54093e-08
-2.04177e-07
-1.78377e-09
-2.52011e-08
-2.61261e-07
-2.50907e-09
-3.48809e-08
-3.1486e-07
-3.29585e-09
-4.48315e-08
-3.66073e-07
-4.17876e-09
-5.53621e-08
-4.15816e-07
-5.18828e-09
-6.67116e-08
-4.64847e-07
-6.34939e-09
-7.90437e-08
-5.13767e-07
-7.67808e-09
-9.24286e-08
-5.63012e-07
-9.17457e-09
-1.06812e-07
-6.12808e-07
-1.08127e-08
-1.21963e-07
-6.63071e-07
-1.25259e-08
-1.3741e-07
-7.13127e-07
-1.41901e-08
-1.52369e-07
-7.60984e-07
-1.5616e-08
-1.65641e-07
-8.01229e-07
-1.65759e-08
-1.75465e-07
-1.85115e-08
-1.86452e-07
-5.8019e-09
-1.0946e-09
-2.13259e-11
-1.11763e-08
-3.24482e-09
-6.3667e-11
-1.60842e-08
-5.3466e-09
-1.06294e-10
-2.06571e-08
-7.4883e-09
-1.51643e-10
-2.5001e-08
-9.78436e-09
-2.0262e-10
-2.91963e-08
-1.23461e-08
-2.62039e-10
-3.32932e-08
-1.52879e-08
-3.32642e-10
-3.73038e-08
-1.87317e-08
-4.16953e-10
-4.11893e-08
-2.2809e-08
-5.16848e-10
-4.48437e-08
-2.7658e-08
-6.3268e-10
-4.80802e-08
-3.34149e-08
-7.61832e-10
-5.0638e-08
-4.0195e-08
-8.96756e-10
-5.22401e-08
-4.80547e-08
-1.02326e-09
-5.27525e-08
-5.68913e-08
-1.12173e-09
-5.24046e-08
-6.5985e-08
-1.17517e-09
-8.29289e-08
-1.19629e-09
-1.73023e-08
-2.13632e-09
-6.35886e-11
-3.33265e-08
-6.33116e-09
-1.89729e-10
-4.79557e-08
-1.04257e-08
-3.16521e-10
-6.15824e-08
-1.4588e-08
-4.51203e-10
-7.45243e-08
-1.90361e-08
-6.02361e-10
-8.70232e-08
-2.39797e-08
-7.78219e-10
-9.92358e-08
-2.96313e-08
-9.86693e-10
-1.11211e-07
-3.62136e-08
-1.23491e-09
-1.22853e-07
-4.396e-08
-1.52786e-09
-1.33874e-07
-5.31046e-08
-1.8657e-09
-1.43745e-07
-6.38546e-08
-2.23929e-09
-1.51702e-07
-7.63268e-08
-2.62452e-09
-1.56872e-07
-9.0424e-08
-2.97751e-09
-1.5868e-07
-1.05586e-07
-3.23922e-09
-1.57579e-07
-1.20147e-07
-3.36269e-09
-1.35751e-07
-3.30301e-09
-2.85066e-08
-3.08054e-09
-1.04267e-10
-5.48969e-08
-9.12566e-09
-3.10843e-10
-7.89765e-08
-1.50142e-08
-5.17962e-10
-1.01393e-07
-2.09797e-08
-7.37357e-10
-1.22672e-07
-2.73253e-08
-9.82802e-10
-1.43222e-07
-3.43377e-08
-1.26732e-09
-1.6332e-07
-4.23012e-08
-1.6032e-09
-1.83083e-07
-5.15047e-08
-2.00115e-09
-2.02417e-07
-6.22393e-08
-2.46799e-09
-2.20933e-07
-7.47778e-08
-3.00207e-09
-2.37871e-07
-8.93226e-08
-3.58606e-09
-2.52057e-07
-1.05897e-07
-4.17795e-09
-2.62025e-07
-1.24138e-07
-4.70424e-09
-2.66552e-07
-1.42971e-07
-5.06964e-09
-2.6588e-07
-1.6006e-07
-5.20741e-09
-1.76353e-07
-5.00505e-09
-3.92382e-08
-3.88877e-09
-1.42166e-10
-7.55436e-08
-1.1514e-08
-4.23401e-10
-1.08643e-07
-1.89233e-08
-7.04458e-10
-1.39428e-07
-2.63975e-08
-1.001e-09
-1.68626e-07
-3.43018e-08
-1.33126e-09
-1.96813e-07
-4.29741e-08
-1.71216e-09
-2.24407e-07
-5.27391e-08
-2.15938e-09
-2.51633e-07
-6.3914e-08
-2.68605e-09
-2.78469e-07
-7.68015e-08
-3.29967e-09
-3.04553e-07
-9.16612e-08
-3.99605e-09
-3.29072e-07
-1.08642e-07
-4.75016e-09
-3.50655e-07
-1.27649e-07
-5.50464e-09
-3.67413e-07
-1.48112e-07
-6.16175e-09
-3.77424e-07
-1.68644e-07
-6.59838e-09
-3.80147e-07
-1.86663e-07
-6.73608e-09
-2.02396e-07
-6.47017e-09
-4.9332e-08
-4.53132e-09
-1.76299e-10
-9.49468e-08
-1.3409e-08
-5.24464e-10
-1.3649e-07
-2.2011e-08
-8.71075e-10
-1.75077e-07
-3.06465e-08
-1.23501e-09
-2.11625e-07
-3.97181e-08
-1.63803e-09
-2.46874e-07
-4.95879e-08
-2.10004e-09
-2.81392e-07
-6.05903e-08
-2.63904e-09
-3.15548e-07
-7.30354e-08
-3.2697e-09
-3.49463e-07
-8.71973e-08
-3.99972e-09
-3.82929e-07
-1.03283e-07
-4.82309e-09
-4.15282e-07
-1.21362e-07
-5.71012e-09
-4.45248e-07
-1.41248e-07
-6.59497e-09
-4.70825e-07
-1.6228e-07
-7.36594e-09
-4.89442e-07
-1.83012e-07
-7.88207e-09
-4.98927e-07
-2.00875e-07
-8.04954e-09
-2.15523e-07
-7.81402e-09
-5.86425e-08
-4.98801e-09
-2.05953e-10
-1.12826e-07
-1.47518e-08
-6.1194e-10
-1.62107e-07
-2.41847e-08
-1.01438e-09
-2.07801e-07
-3.36055e-08
-1.43454e-09
-2.50993e-07
-4.34308e-08
-1.89679e-09
-2.92572e-07
-5.40227e-08
-2.42302e-09
-3.33251e-07
-6.56986e-08
-3.03267e-09
-3.73552e-07
-7.8732e-08
-3.74128e-09
-4.1378e-07
-9.33374e-08
-4.55678e-09
-4.5396e-07