/*--------------------------------*- C++ -*----------------------------------*\
| =========                 |                                                 |
| \\      /  F ield         | foam-extend: Open Source CFD                    |
|  \\    /   O peration     | Version:     3.1                                |
|   \\  /    A nd           | Web:         http://www.extend-project.de       |
|    \\/     M anipulation  |                                                 |
\*---------------------------------------------------------------------------*/
FoamFile
{
    version     2.0;
    format      ascii;
    class       volScalarField;
    location    "3.2";
    object      p;
}
// * * * * * * * * * * * * * * * * * * * * * * * * * * * * * * * * * * * * * //

dimensions      [0 2 -2 0 0 0 0];

internalField   nonuniform List<scalar> 
14592
(
0.0247316
0.0245407
0.0243518
0.0241828
0.0240436
0.0239418
0.0238827
0.0238672
0.0238896
0.0239346
0.0239744
0.0239641
0.0238334
0.0234654
0.022694
0.0216063
0.0247523
0.0245438
0.024355
0.0241904
0.0240539
0.0239525
0.0238923
0.0238755
0.0238978
0.0239452
0.0239908
0.0239903
0.0238748
0.0235244
0.0227035
0.0213217
0.0247439
0.0245201
0.0243256
0.0241587
0.0240186
0.0239124
0.0238477
0.0238294
0.0238562
0.0239174
0.0239897
0.0240317
0.0239748
0.0236899
0.0228475
0.0211125
0.0247072
0.0244697
0.0242659
0.0240921
0.0239444
0.0238294
0.0237567
0.0237339
0.023764
0.023841
0.0239467
0.0240451
0.0240725
0.0239
0.023123
0.0211491
0.0246424
0.0243937
0.0241801
0.0239978
0.0238407
0.0237143
0.0236293
0.0235958
0.0236209
0.0237041
0.0238343
0.0239837
0.024099
0.0240666
0.0234487
0.0213794
0.024551
0.0242933
0.0240704
0.0238785
0.02371
0.0235691
0.0234664
0.0234131
0.0234193
0.0234887
0.0236177
0.0237877
0.0239631
0.0240601
0.0236654
0.0216285
0.0244372
0.0241726
0.023941
0.0237382
0.0235559
0.0233966
0.0232696
0.0231859
0.0231558
0.0231842
0.023271
0.0234016
0.023561
0.0236978
0.0235425
0.0215583
0.0243078
0.0240382
0.0237989
0.0235844
0.0233856
0.0232038
0.0230464
0.0229224
0.02284
0.0228007
0.0228005
0.0228111
0.0228208
0.0227209
0.0226481
0.0197717
0.0249625
0.024763
0.0245733
0.0244129
0.024292
0.0242194
0.0242026
0.0242456
0.0243466
0.0244959
0.0246736
0.0248472
0.0249684
0.0249598
0.0247527
0.0245483
0.024986
0.0247673
0.0245766
0.0244207
0.0243027
0.0242308
0.0242131
0.0242549
0.0243563
0.0245089
0.0246934
0.0248782
0.0250158
0.0250225
0.0248164
0.0246895
0.0249796
0.0247448
0.024548
0.0243904
0.0242698
0.0241941
0.0241731
0.0242153
0.0243241
0.0244956
0.0247155
0.0249562
0.0251728
0.0252777
0.0251421
0.0251083
0.0249422
0.0246937
0.0244874
0.0243235
0.0241966
0.0241137
0.0240868
0.0241274
0.0242442
0.0244391
0.0247057
0.025025
0.0253626
0.025626
0.0256286
0.0257182
0.0248733
0.0246135
0.0243972
0.0242249
0.0240893
0.0239964
0.0239592
0.0239917
0.0241075
0.0243154
0.0246187
0.0250099
0.0254694
0.0259216
0.0261151
0.0263569
0.0247741
0.0245052
0.024279
0.0240964
0.0239492
0.023842
0.0237874
0.0238006
0.023898
0.0240938
0.0244002
0.0248222
0.0253608
0.0259732
0.0263602
0.0267325
0.0246493
0.0243731
0.0241373
0.0239424
0.0237798
0.0236524
0.0235712
0.0235506
0.0236067
0.0237543
0.0240087
0.0243799
0.0248878
0.02553
0.0260197
0.0262319
0.0245063
0.0242247
0.0239799
0.0237712
0.0235894
0.0234356
0.0233188
0.0232503
0.0232429
0.0233056
0.0234467
0.0236575
0.023949
0.0242646
0.0245513
0.0227337
0.0251853
0.024979
0.0247905
0.0246403
0.0245391
0.0244969
0.024523
0.0246242
0.024802
0.0250502
0.0253544
0.0256878
0.0260108
0.0262622
0.026388
0.0264496
0.0252118
0.0249848
0.0247941
0.0246485
0.0245505
0.0245092
0.0245348
0.0246351
0.0248137
0.0250663
0.0253773
0.0257234
0.0260618
0.0263284
0.0264798
0.0266553
0.0252074
0.0249638
0.0247668
0.02462
0.0245205
0.0244766
0.0245003
0.024603
0.0247921
0.0250686
0.0254235
0.0258324
0.0262583
0.0266385
0.0269023
0.027243
0.0251696
0.0249124
0.0247058
0.0245533
0.0244486
0.0243992
0.0244193
0.0245237
0.0247256
0.0250328
0.0254454
0.0259509
0.026523
0.0270701
0.0275035
0.0280313
0.0250969
0.0248286
0.0246116
0.0244508
0.0243381
0.0242801
0.0242919
0.0243911
0.0245961
0.0249228
0.0253821
0.025974
0.0266845
0.0274359
0.028069
0.0287855
0.0249906
0.024713
0.0244855
0.0243137
0.024189
0.0241167
0.0241114
0.0241918
0.0243795
0.0246958
0.0251618
0.0257905
0.0265878
0.0274962
0.0282872
0.0291113
0.0248553
0.02457
0.024332
0.0241466
0.0240049
0.0239104
0.0238763
0.0239197
0.0240616
0.0243233
0.0247289
0.0252957
0.0260469
0.0269525
0.0277342
0.0282412
0.0246991
0.024408
0.0241599
0.0239586
0.0237948
0.0236702
0.0235952
0.0235834
0.0236513
0.0238128
0.0240826
0.0244563
0.0249429
0.0254514
0.0258389
0.0238177
0.02539
0.0251784
0.0249922
0.0248526
0.0247709
0.0247578
0.0248244
0.0249794
0.0252268
0.0255627
0.025974
0.0264358
0.026909
0.0273352
0.0276494
0.0278055
0.0254192
0.025186
0.0249963
0.0248614
0.0247832
0.0247713
0.0248375
0.024992
0.0252403
0.0255803
0.0260009
0.0264754
0.0269637
0.0274034
0.0277483
0.0280085
0.0254168
0.0251665
0.0249704
0.024835
0.024756
0.0247427
0.0248086
0.0249673
0.0252292
0.0255983
0.0260651
0.0266084
0.0271926
0.0277432
0.0282067
0.0286348
0.0253787
0.025115
0.0249093
0.0247686
0.0246856
0.0246685
0.0247329
0.0248964
0.0251754
0.025581
0.0261154
0.0267659
0.0274949
0.0282193
0.028853
0.0294663
0.0253029
0.0250281
0.0248118
0.0246627
0.0245724
0.0245478
0.0246057
0.0247667
0.0250526
0.0254829
0.0260713
0.0268165
0.0276963
0.0286203
0.0294437
0.0302537
0.0251901
0.0249059
0.0246786
0.0245179
0.0244152
0.0243762
0.0244173
0.02456
0.0248294
0.0252506
0.0258477
0.0266324
0.0276009
0.0286697
0.0296156
0.0304936
0.0250452
0.0247531
0.0245145
0.0243389
0.0242175
0.0241545
0.0241645
0.0242674
0.0244871
0.0248484
0.0253781
0.0260913
0.0270002
0.0280374
0.0288985
0.0293623
0.0248769
0.0245785
0.0243287
0.0241354
0.0239892
0.0238924
0.0238569
0.0238981
0.0240348
0.024283
0.024659
0.0251545
0.0257656
0.0263586
0.0267191
0.0243808
0.025567
0.0253517
0.0251679
0.0250383
0.024974
0.0249867
0.0250885
0.0252898
0.0255954
0.0260035
0.0264998
0.0270583
0.0276367
0.0281728
0.0285906
0.028779
0.0255984
0.0253604
0.0251725
0.0250477
0.0249872
0.0250013
0.025103
0.0253038
0.0256112
0.0260235
0.0265294
0.0271007
0.0276937
0.0282422
0.0286874
0.0289726
0.0255978
0.0253427
0.0251482
0.0250231
0.0249628
0.0249765
0.0250791
0.0252858
0.0256087
0.0260524
0.026608
0.0272514
0.0279419
0.0285966
0.0291553
0.0296007
0.0255597
0.0252913
0.0250871
0.0249573
0.0248938
0.024905
0.0250081
0.0252222
0.0255657
0.0260514
0.0266811
0.0274368
0.0282714
0.0290952
0.029815
0.0304343
0.0254813
0.0252018
0.0249868
0.0248487
0.0247783
0.024783
0.0248812
0.0250949
0.0254484
0.0259626
0.0266505
0.0275058
0.0284948
0.0295112
0.0304072
0.0312225
0.025363
0.025074
0.0248476
0.0246974
0.0246142
0.0246044
0.0246858
0.0248817
0.0252193
0.0257252
0.0264229
0.0273184
0.0283946
0.029544
0.0305355
0.0313892
0.0252098
0.0249128
0.0246744
0.0245081
0.0244049
0.0243694
0.0244178
0.0245715
0.0248563
0.0252979
0.0259225
0.0267391
0.0277453
0.0288429
0.0297021
0.0300806
0.0250311
0.0247273
0.0244769
0.0242911
0.0241608
0.0240885
0.0240873
0.024174
0.0243684
0.0246869
0.0251444
0.0257258
0.0264123
0.0270354
0.0273337
0.024729
0.0257079
0.0254902
0.0253086
0.0251873
0.0251373
0.0251708
0.0253007
0.0255382
0.0258894
0.0263517
0.0269105
0.027537
0.0281846
0.0287843
0.0292604
0.0294589
0.0257411
0.0254995
0.0253138
0.0251973
0.0251513
0.0251865
0.0253164
0.0255535
0.0259057
0.0263733
0.0269415
0.0275815
0.0282434
0.0288566
0.0293529
0.0296432
0.025742
0.0254834
0.0252907
0.0251744
0.0251292
0.0251647
0.0252966
0.025541
0.0259113
0.0264108
0.0270288
0.0277459
0.0285037
0.0292182
0.0298209
0.0302644
0.0257039
0.0254322
0.0252298
0.025109
0.0250614
0.0250956
0.0252294
0.0254832
0.0258765
0.0264224
0.0271232
0.0279471
0.0288499
0.0297274
0.0304818
0.0310915
0.0256234
0.0253407
0.0251274
0.0249983
0.0249442
0.0249726
0.0251026
0.0253577
0.0257631
0.02634
0.0270999
0.0280293
0.0290855
0.0301483
0.0310667
0.0318657
0.0255008
0.0252086
0.0249835
0.0248419
0.0247747
0.0247883
0.0249017
0.0251392
0.0255291
0.0260981
0.0268678
0.0278378
0.0289788
0.030166
0.0311617
0.0319814
0.0253411
0.0250407
0.024803
0.0246445
0.0245561
0.0245427
0.0246216
0.024815
0.0251497
0.0256512
0.0263436
0.0272293
0.0282932
0.0294155
0.03025
0.0305564
0.025154
0.0248465
0.0245961
0.0244168
0.0242995
0.0242469
0.0242729
0.0243952
0.024634
0.0250052
0.0255211
0.0261597
0.0268899
0.0275185
0.0277572
0.0249576
0.0258059
0.025587
0.0254072
0.0252921
0.0252524
0.0253006
0.0254502
0.0257128
0.0260949
0.026594
0.0271939
0.0278638
0.0285537
0.0291926
0.0296884
0.029892
0.0258403
0.025597
0.0254132
0.0253031
0.0252677
0.0253179
0.0254678
0.0257304
0.026113
0.0266187
0.0272284
0.0279123
0.0286163
0.0292659
0.0297848
0.0300729
0.0258422
0.025582
0.025391
0.0252814
0.0252474
0.0252986
0.0254513
0.0257224
0.0261261
0.0266631
0.0273244
0.0280865
0.028885
0.0296318
0.0302528
0.0306891
0.0258041
0.0255308
0.0253301
0.0252162
0.0251802
0.0252309
0.0253865
0.0256683
0.0260961
0.0266824
0.0274282
0.0282979
0.0292412
0.0301464
0.0309129
0.0315147
0.0257222
0.0254379
0.0252261
0.0251039
0.0250616
0.0251068
0.0252594
0.0255434
0.0259845
0.0266037
0.0274107
0.0283874
0.0294829
0.0305682
0.0314892
0.0322638
0.0255965
0.0253027
0.0250789
0.0249437
0.0248881
0.0249183
0.0250542
0.0253207
0.0257464
0.0263579
0.0271748
0.0281916
0.0293703
0.0305747
0.0315626
0.0323525
0.0254323
0.0251301
0.0248933
0.0247406
0.0246629
0.0246652
0.0247654
0.0249865
0.0253553
0.0258971
0.0266338
0.0275628
0.0286598
0.0297918
0.0306018
0.0308563
0.0252394
0.0249298
0.0246798
0.0245054
0.0243975
0.0243589
0.024404
0.0245511
0.0248204
0.0252271
0.0257814
0.0264559
0.0272107
0.0278371
0.02803
0.0251045
0.0258547
0.0256349
0.0254556
0.0253431
0.0253081
0.0253632
0.025522
0.0257963
0.0261929
0.026709
0.0273277
0.0280171
0.0287254
0.0293804
0.029885
0.0300933
0.0258894
0.0256448
0.0254611
0.0253533
0.0253225
0.0253794
0.0255383
0.0258124
0.0262095
0.0267317
0.0273603
0.0280636
0.0287859
0.0294511
0.0299803
0.0302718
0.0258919
0.0256306
0.0254394
0.0253321
0.0253028
0.0253609
0.0255228
0.0258055
0.0262233
0.0267776
0.027459
0.0282395
0.0290549
0.029815
0.0304446
0.0308816
0.0258539
0.0255796
0.0253787
0.0252673
0.0252364
0.0252942
0.0254595
0.0257535
0.0261964
0.0268008
0.0275651
0.0284552
0.0294147
0.0303303
0.0311029
0.031703
0.0257715
0.0254862
0.0252743
0.0251546
0.0251174
0.0251702
0.0253328
0.0256297
0.0260866
0.0267243
0.0275515
0.028548
0.0296589
0.0307517
0.0316748
0.0324415
0.0256444
0.0253496
0.0251256
0.0249929
0.0249424
0.0249802
0.0251261
0.0254057
0.0258473
0.0264773
0.0273143
0.0283505
0.0295434
0.0307523
0.0317375
0.0325165
0.025478
0.0251747
0.0249377
0.0247871
0.0247143
0.0247237
0.0248336
0.0250671
0.0254512
0.0260106
0.026766
0.0277125
0.0288212
0.0299531
0.0307494
0.030976
0.0252822
0.0249715
0.024721
0.0245484
0.0244447
0.0244125
0.0244663
0.0246246
0.0249076
0.0253299
0.0259003
0.0265893
0.0273516
0.0279719
0.0281196
0.0251344
0.0236012
0.0235446
0.0234467
0.023323
0.0231838
0.0230316
0.0228644
0.0226715
0.0224376
0.0221413
0.0217544
0.0212442
0.0205751
0.0197154
0.0186416
0.0173653
0.0236096
0.0235533
0.0234581
0.0233369
0.0232003
0.0230514
0.0228858
0.022696
0.0224662
0.0221753
0.0217944
0.0212908
0.0206281
0.0197747
0.0187033
0.0174277
0.0236046
0.0235442
0.0234484
0.0233278
0.023193
0.0230472
0.0228875
0.0227055
0.0224861
0.0222069
0.0218407
0.0213546
0.020712
0.019882
0.0188317
0.0175791
0.0235832
0.0235149
0.0234138
0.0232893
0.023152
0.0230059
0.0228487
0.0226723
0.0224617
0.0221952
0.0218451
0.0213787
0.0207589
0.0199566
0.0189337
0.0177121
0.0235464
0.0234694
0.02336
0.0232276
0.0230834
0.0229319
0.0227721
0.0225964
0.0223902
0.022132
0.021794
0.0213438
0.0207443
0.0199677
0.0189725
0.0177842
0.0234962
0.0234115
0.0232934
0.0231515
0.0229976
0.0228371
0.0226702
0.0224899
0.0222825
0.0220268
0.0216953
0.0212562
0.0206727
0.0199186
0.0189517
0.0177986
0.0234354
0.023345
0.0232193
0.0230684
0.0229043
0.0227335
0.0225568
0.0223683
0.0221548
0.021896
0.0215652
0.0211315
0.0205594
0.0198246
0.0188868
0.0177718
0.0233677
0.0232736
0.0231424
0.0229842
0.0228115
0.0226309
0.0224439
0.0222453
0.0220226
0.0217566
0.0214214
0.0209881
0.0204231
0.0197045
0.0187966
0.0177222
0.0236205
0.0235475
0.0234384
0.0233064
0.0231607
0.0230032
0.0228306
0.0226338
0.0223972
0.0220985
0.0217094
0.0211963
0.0205224
0.0196552
0.0185683
0.017278
0.0236275
0.0235521
0.0234451
0.0233144
0.0231691
0.0230114
0.0228384
0.0226415
0.022405
0.0221074
0.0217199
0.0212096
0.0205386
0.0196759
0.018591
0.0173058
0.0236217
0.0235398
0.0234307
0.0232985
0.0231521
0.0229943
0.022823
0.0226299
0.0224
0.0221116
0.0217366
0.0212409
0.0205872
0.019746
0.0186803
0.0174194
0.0236011
0.0235099
0.0233948
0.0232573
0.0231062
0.0229454
0.0227735
0.0225829
0.0223593
0.0220809
0.0217195
0.0212421
0.0206097
0.0197955
0.0187539
0.0175232
0.0235657
0.0234657
0.0233428
0.0231974
0.0230384
0.0228707
0.022694
0.0225019
0.0222805
0.0220086
0.021658
0.0211961
0.0205832
0.0197944
0.0187795
0.0175816
0.0235166
0.0234094
0.023279
0.0231251
0.0229567
0.0227794
0.0225945
0.0223964
0.0221724
0.021902
0.0215572
0.0211063
0.0205096
0.0197442
0.0187583
0.0175969
0.0234563
0.0233441
0.0232075
0.0230458
0.0228682
0.0226809
0.0224859
0.022279
0.0220485
0.0217746
0.0214305
0.0209854
0.0204011
0.0196567
0.0187023
0.0175813
0.0233882
0.0232733
0.0231323
0.0229645
0.0227792
0.0225828
0.0223781
0.0221614
0.0219219
0.021641
0.0212932
0.0208495
0.0202741
0.019548
0.018627
0.0175492
0.0236812
0.0235875
0.0234622
0.0233174
0.023162
0.0229981
0.0228224
0.022626
0.0223929
0.0220999
0.0217165
0.0212049
0.0205217
0.0196259
0.0184774
0.017092
0.023689
0.0235911
0.0234681
0.0233247
0.0231693
0.0230043
0.0228272
0.0226295
0.0223959
0.0221032
0.0217209
0.0212117
0.0205314
0.0196417
0.0184957
0.0171206
0.0236814
0.0235754
0.0234496
0.0233035
0.023145
0.0229777
0.0228
0.0226042
0.0223754
0.0220909
0.0217203
0.0212268
0.020565
0.0196976
0.0185682
0.0172178
0.0236589
0.0235426
0.0234099
0.0232571
0.0230919
0.0229189
0.0227379
0.0225422
0.0223177
0.022042
0.0216845
0.0212085
0.0205671
0.0197263
0.0186176
0.0172971
0.023622
0.0234964
0.0233559
0.0231945
0.0230199
0.0228376
0.0226491
0.0224492
0.0222247
0.0219538
0.0216061
0.0211451
0.0205226
0.0197076
0.0186233
0.0173374
0.0235713
0.0234386
0.023291
0.0231212
0.0229363
0.022743
0.0225439
0.0223356
0.0221062
0.0218348
0.0214917
0.0210412
0.0204349
0.0196446
0.0185907
0.0173466
0.0235089
0.0233714
0.0232183
0.0230412
0.022847
0.0226428
0.0224322
0.0222132
0.0219752
0.0216987
0.0213549
0.0209097
0.0203163
0.0195495
0.0185322
0.0173375
0.0234383
0.0232982
0.0231414
0.0229588
0.0227571
0.0225436
0.0223225
0.0220925
0.0218443
0.0215594
0.0212108
0.0207664
0.0201827
0.0194374
0.018462
0.0173224
0.0237823
0.0236678
0.0235256
0.0233681
0.0232043
0.0230366
0.0228624
0.0226731
0.0224523
0.0221755
0.0218084
0.0213065
0.0206141
0.019671
0.0184099
0.0168323
0.0237918
0.023671
0.0235318
0.0233766
0.0232133
0.0230448
0.0228693
0.0226788
0.0224578
0.0221819
0.021817
0.021319
0.0206317
0.0196974
0.0184391
0.0168758
0.0237822
0.0236521
0.0235097
0.0233513
0.0231839
0.0230118
0.0228343
0.0226445
0.0224276
0.0221596
0.0218067
0.021325
0.0206567
0.0197464
0.0185009
0.0169525
0.0237565
0.0236152
0.0234652
0.0232991
0.0231234
0.0229434
0.0227602
0.0225684
0.022354
0.0220935
0.021753
0.0212884
0.0206396
0.0197527
0.0185198
0.0169954
0.0237159
0.0235648
0.0234066
0.0232314
0.0230448
0.0228534
0.0226601
0.0224611
0.0222441
0.0219864
0.021654
0.021203
0.0205716
0.0197088
0.0184962
0.0170078
0.0236611
0.0235025
0.0233372
0.0231533
0.0229557
0.0227514
0.022545
0.0223346
0.0221096
0.0218486
0.0215185
0.0210762
0.0204602
0.0196232
0.0184426
0.0170068
0.0235941
0.0234305
0.0232598
0.0230686
0.0228611
0.0226446
0.0224246
0.0222007
0.0219639
0.0216946
0.0213611
0.0209221
0.0203187
0.0195083
0.0183725
0.017006
0.0235186
0.0233522
0.0231778
0.0229811
0.0227657
0.022539
0.0223067
0.0220695
0.0218197
0.0215389
0.0211976
0.0207571
0.0201631
0.0193784
0.0182979
0.0170132
0.0239193
0.0237854
0.0236279
0.02346
0.023291
0.0231238
0.022957
0.0227824
0.0225839
0.0223355
0.0219987
0.02152
0.0208265
0.019827
0.0184077
0.0165225
0.023931
0.023788
0.0236336
0.0234689
0.0233009
0.0231333
0.0229652
0.0227896
0.022591
0.0223438
0.02201
0.0215364
0.0208495
0.0198601
0.0184443
0.0165677
0.0239199
0.0237663
0.0236082
0.0234401
0.0232674
0.0230951
0.0229237
0.0227473
0.0225516
0.0223117
0.0219895
0.0215314
0.0208615
0.0198892
0.0184717
0.01658
0.0238909
0.0237253
0.0235591
0.0233828
0.0232007
0.0230187
0.0228394
0.0226586
0.0224633
0.0222292
0.021918
0.0214747
0.0208205
0.0198622
0.0184438
0.0165502
0.0238455
0.0236698
0.0234951
0.0233094
0.0231157
0.0229207
0.0227288
0.022538
0.0223372
0.022103
0.0217975
0.021365
0.020725
0.019784
0.0183792
0.0165158
0.0237848
0.0236013
0.0234193
0.0232248
0.0230196
0.0228105
0.0226032
0.0223979
0.0221854
0.0219443
0.0216378
0.0212109
0.0205845
0.0196679
0.0182986
0.0165038
0.0237112
0.0235222
0.0233345
0.0231327
0.0229171
0.0226945
0.0224714
0.0222493
0.0220211
0.021767
0.0214526
0.0210253
0.0204105
0.0195245
0.0182132
0.0165258
0.0236283
0.0234362
0.0232446
0.0230367
0.0228125
0.0225783
0.0223406
0.022102
0.0218565
0.0215858
0.0212583
0.0208247
0.0202179
0.0193643
0.0181288
0.0165793
0.0240889
0.0239373
0.0237671
0.0235926
0.023423
0.0232623
0.0231102
0.0229598
0.0227958
0.0225917
0.0223057
0.0218746
0.0212033
0.0201563
0.0185378
0.0161981
0.0241026
0.0239395
0.0237721
0.0236013
0.0234332
0.0232723
0.0231189
0.0229674
0.0228032
0.0226003
0.0223174
0.0218913
0.0212259
0.020178
0.0185401
0.0161471
0.024091
0.0239158
0.0237443
0.02357
0.023397
0.0232306
0.0230726
0.022919
0.0227567
0.0225604
0.0222888
0.0218764
0.0212212
0.0201676
0.0184823
0.0159604
0.0240591
0.0238714
0.0236913
0.0235088
0.0233259
0.0231488
0.0229813
0.0228214
0.0226576
0.0224659
0.0222043
0.0218047
0.0211589
0.0200959
0.0183725
0.0157512
0.0240087
0.0238104
0.0236215
0.0234297
0.0232353
0.0230445
0.0228629
0.0226906
0.0225188
0.0223248
0.0220674
0.0216765
0.0210416
0.0199803
0.0182537
0.0156059
0.023941
0.0237346
0.023538
0.0233375
0.0231314
0.0229259
0.0227273
0.0225378
0.022351
0.0221463
0.0218847
0.0214963
0.020874
0.0198315
0.0181461
0.0155596
0.0238588
0.0236466
0.0234438
0.0232355
0.0230186
0.0227985
0.022582
0.0223724
0.0221651
0.0219416
0.0216662
0.0212715
0.02066
0.0196517
0.0180521
0.015627
0.0237665
0.0235508
0.0233434
0.0231283
0.0229015
0.0226678
0.0224339
0.0222034
0.0219728
0.021725
0.0214272
0.0210164
0.0204088
0.0194428
0.0179686
0.0158139
0.0242859
0.0241188
0.0239391
0.0237622
0.0235976
0.0234502
0.0233212
0.0232059
0.0230908
0.0229508
0.0227438
0.0224015
0.0218109
0.0207782
0.0189677
0.0159934
0.0243014
0.0241208
0.0239433
0.0237705
0.0236078
0.0234603
0.0233301
0.0232134
0.023098
0.0229593
0.0227556
0.0224178
0.0218277
0.0207718
0.0188486
0.0155618
0.0242903
0.0240962
0.023914
0.0237381
0.0235705
0.0234172
0.0232817
0.0231623
0.0230483
0.0229167
0.022726
0.0224042
0.0218223
0.0207308
0.0186515
0.0149127
0.0242563
0.0240491
0.023858
0.0236741
0.023497
0.023333
0.0231873
0.0230607
0.0229449
0.0228187
0.0226409
0.0223364
0.0217663
0.0206456
0.0184557
0.0143425
0.0242008
0.0239828
0.0237826
0.0235896
0.0234015
0.0232239
0.0230638
0.0229239
0.0227992
0.0226706
0.0224992
0.0222081
0.0216556
0.0205298
0.0183096
0.0139702
0.0241254
0.0238989
0.0236906
0.0234888
0.0232892
0.0230967
0.0229188
0.02276
0.0226178
0.0224759
0.0222989
0.0220112
0.0214776
0.0203714
0.0182062
0.013814
0.0240334
0.0238007
0.0235855
0.0233752
0.023164
0.022956
0.0227581
0.0225757
0.0224079
0.0222405
0.0220418
0.0217395
0.0212152
0.0201444
0.0181213
0.0138953
0.0239299
0.0236932
0.0234725
0.0232541
0.0230313
0.0228073
0.0225884
0.0223796
0.0221805
0.0219774
0.0217411
0.0214012
0.0208624
0.0198207
0.0180319
0.0143048
0.0245029
0.0243227
0.0241369
0.0239621
0.0238079
0.0236805
0.0235831
0.0235135
0.0234617
0.0234066
0.0233111
0.023113
0.0227058
0.0218842
0.0202161
0.0168971
0.0245208
0.0243251
0.0241405
0.02397
0.023818
0.0236908
0.0235922
0.0235211
0.023469
0.0234156
0.0233246
0.0231336
0.0227303
0.0218883
0.0200286
0.0159866
0.0245109
0.0243006
0.0241107
0.0239374
0.0237812
0.0236484
0.0235445
0.0234709
0.0234211
0.0233773
0.0233048
0.0231405
0.0227642
0.0219083
0.0198365
0.0149495
0.0244752
0.0242515
0.0240525
0.0238718
0.0237068
0.0235639
0.0234505
0.0233703
0.0233204
0.0232859
0.0232346
0.0231038
0.0227672
0.0219247
0.0197373
0.0141714
0.0244149
0.0241801
0.0239717
0.0237822
0.0236069
0.0234514
0.0233242
0.0232315
0.0231737
0.0231398
0.0231021
0.0230005
0.0227104
0.0219131
0.0197307
0.0137151
0.0243315
0.0240879
0.0238708
0.0236722
0.0234856
0.0233154
0.0231703
0.0230578
0.0229812
0.022933
0.0228909
0.0227998
0.0225471
0.0218094
0.0197419
0.013516
0.0242289
0.0239786
0.0237538
0.0235456
0.0233465
0.0231594
0.0229922
0.0228527
0.0227452
0.0226639
0.0225904
0.0224733
0.0222223
0.0215204
0.0196675
0.0135017
0.0241128
0.0238581
0.0236267
0.0234087
0.0231958
0.0229897
0.0227971
0.0226246
0.022476
0.022344
0.0222104
0.0220187
0.0216999
0.0209251
0.0193595
0.0136138
0.0241711
0.0238989
0.0236532
0.0234268
0.02321
0.023003
0.0228114
0.0226414
0.0224977
0.0223753
0.0222607
0.0220986
0.0218358
0.021132
0.0197464
0.0142972
0.0240367
0.0237644
0.0235144
0.0232769
0.0230423
0.0228102
0.0225845
0.0223694
0.0221656
0.0219626
0.0217369
0.0214197
0.0209242
0.0199395
0.0182063
0.0146319
0.0239141
0.0236445
0.0233928
0.0231465
0.0228964
0.0226423
0.0223876
0.0221346
0.0218816
0.0216155
0.021308
0.0209002
0.0203029
0.0193672
0.0178708
0.0158308
0.023811
0.0235473
0.023297
0.0230452
0.0227842
0.0225145
0.0222394
0.0219604
0.0216742
0.021368
0.0210134
0.0205688
0.019956
0.0191265
0.0178776
0.0164058
0.0237325
0.0234783
0.0232324
0.0229792
0.0227133
0.0224363
0.0221512
0.021859
0.0215554
0.0212281
0.0208513
0.0203949
0.0197946
0.0190359
0.0179667
0.0167384
0.0236798
0.0234385
0.0231994
0.0229488
0.0226842
0.022408
0.0221227
0.0218282
0.0215191
0.0211836
0.0207982
0.0203382
0.0197529
0.0190348
0.0180868
0.0169977
0.0236485
0.0234239
0.0231925
0.0229467
0.0226878
0.0224185
0.0221406
0.021853
0.0215492
0.0212165
0.0208331
0.0203754
0.0198028
0.019104
0.0182177
0.0171892
0.0236265
0.0234244
0.0231991
0.0229566
0.0227029
0.0224414
0.0221738
0.0218983
0.0216074
0.0212874
0.0209165
0.0204694
0.0199094
0.0192181
0.018347
0.0173221
0.0243546
0.0240697
0.0238172
0.0235941
0.0233905
0.0232062
0.0230474
0.022922
0.0228373
0.0227928
0.0227819
0.0227564
0.0226628
0.0221374
0.0207097
0.0146254
0.0242049
0.0239192
0.0236611
0.0234243
0.0231986
0.0229829
0.0227812
0.022598
0.0224356
0.0222848
0.0221241
0.0218808
0.0214544
0.0204721
0.0185589
0.0143487
0.0240678
0.0237843
0.0235234
0.0232753
0.0230299
0.0227858
0.0225461
0.0223131
0.0220853
0.0218498
0.0215771
0.0212019
0.0206206
0.0196482
0.0180159
0.0156951
0.0239524
0.0236744
0.023414
0.0231583
0.0228982
0.0226329
0.0223651
0.0220963
0.0218232
0.0215327
0.0211948
0.0207636
0.0201493
0.0192939
0.0179561
0.0163612
0.0238641
0.0235955
0.0233391
0.0230805
0.0228124
0.0225356
0.0222524
0.0219639
0.021666
0.0213465
0.0209778
0.020528
0.0199229
0.0191486
0.0180194
0.0167192
0.0238045
0.0235489
0.0232993
0.0230423
0.0227738
0.0224953
0.0222091
0.0219154
0.0216092
0.0212784
0.0208984
0.0204431
0.0198543
0.0191262
0.0181392
0.0170029
0.0237688
0.0235309
0.0232894
0.0230369
0.0227734
0.0225013
0.0222223
0.0219355
0.0216348
0.0213072
0.0209297
0.0204773
0.0199038
0.0191984
0.0182855
0.0172214
0.0237444
0.0235309
0.0232966
0.0230478
0.0227899
0.0225261
0.0222583
0.0219849
0.0216987
0.0213857
0.0210229
0.0205832
0.0200251
0.0193291
0.0184359
0.0173776
0.0245326
0.0242376
0.0239805
0.0237623
0.023573
0.0234125
0.0232881
0.0232089
0.0231845
0.0232168
0.0233019
0.0233896
0.0234143
0.0229579
0.0214375
0.0147659
0.0243678
0.0240713
0.0238072
0.0235727
0.0233572
0.0231592
0.0229832
0.0228342
0.0227152
0.0226174
0.0225187
0.0223388
0.0219613
0.0209556
0.0188848
0.0142169
0.0242162
0.0239214
0.0236533
0.0234051
0.0231657
0.0229334
0.0227108
0.0225002
0.0223001
0.0220969
0.0218591
0.0215133
0.0209422
0.0199279
0.0181719
0.0156188
0.0240886
0.0237986
0.0235301
0.0232723
0.0230146
0.0227556
0.0224974
0.0222413
0.0219838
0.0217111
0.0213909
0.0209726
0.0203553
0.0194711
0.0180498
0.0163404
0.0239903
0.0237096
0.0234447
0.0231824
0.022914
0.0226393
0.0223602
0.0220779
0.0217879
0.0214779
0.0211185
0.0206754
0.0200656
0.0192744
0.0180896
0.0167217
0.0239237
0.0236561
0.023398
0.0231363
0.0228656
0.0225868
0.0223019
0.022011
0.0217094
0.0213848
0.0210111
0.020561
0.0199691
0.019231
0.0182078
0.0170267
0.0238837
0.0236345
0.0233849
0.0231275
0.0228613
0.0225882
0.0223099
0.0220256
0.0217292
0.0214078
0.0210371
0.0205905
0.0200165
0.0193048
0.018367
0.0172689
0.0238569
0.023634
0.0233927
0.0231394
0.0228791
0.0226148
0.0223485
0.0220788
0.0217986
0.0214936
0.0211395
0.0207075
0.0201516
0.0194512
0.0185373
0.0174472
0.0246967
0.0243938
0.0241338
0.0239212
0.0237461
0.0236086
0.023517
0.0234814
0.0235127
0.0236133
0.023779
0.023952
0.0240516
0.0236089
0.0219639
0.0147937
0.0245177
0.0242127
0.0239444
0.0237131
0.0235079
0.0233274
0.0231764
0.0230602
0.0229821
0.0229325
0.0228873
0.0227564
0.0224085
0.0213658
0.0191506
0.0141315
0.0243527
0.0240488
0.0237753
0.0235279
0.0232953
0.0230748
0.0228694
0.0226811
0.022508
0.0223354
0.0221286
0.0218064
0.0212389
0.0201818
0.0183157
0.0155766
0.0242131
0.0239137
0.023639
0.0233802
0.0231259
0.0228739
0.0226261
0.0223834
0.0221419
0.0218869
0.0215833
0.0211758
0.0205537
0.0196407
0.0181448
0.0163368
0.0241056
0.023815
0.0235435
0.0232788
0.0230113
0.0227398
0.0224661
0.022191
0.0219099
0.02161
0.0212599
0.0208229
0.0202081
0.0194003
0.0181662
0.0167381
0.0240323
0.023755
0.0234902
0.0232253
0.0229538
0.0226759
0.0223935
0.0221067
0.0218106
0.0214929
0.0211258
0.0206808
0.0200862
0.0193385
0.0182833
0.0170619
0.0239882
0.0237298
0.0234739
0.0232131
0.0229455
0.0226727
0.0223963
0.0221156
0.0218245
0.0215097
0.0211458
0.0207051
0.0201308
0.0194133
0.0184535
0.0173243
0.0239594
0.0237288
0.0234821
0.0232259
0.0229646
0.0227011
0.0224374
0.0221723
0.0218986
0.0216018
0.0212564
0.0208319
0.0202782
0.0195737
0.0186411
0.017522
0.024839
0.0245301
0.0242684
0.0240614
0.0238992
0.023782
0.023719
0.0237211
0.0237996
0.0239562
0.0241844
0.0244181
0.0245617
0.0241051
0.0223396
0.0147709
0.0246475
0.024336
0.0240649
0.023837
0.0236415
0.0234765
0.0233476
0.0232602
0.0232173
0.023208
0.0232051
0.0231093
0.0227763
0.0216917
0.0193529
0.0140645
0.0244707
0.0241597
0.0238824
0.0236365
0.0234102
0.0232007
0.0230108
0.0228424
0.0226932
0.0225468
0.0223654
0.0220603
0.0214912
0.0203938
0.0184355
0.0155531
0.0243205
0.0240137
0.0237345
0.0234755
0.0232248
0.0229796
0.0227416
0.0225115
0.0222846
0.0220453
0.0217558
0.0213565
0.0207283
0.0197888
0.0182304
0.0163428
0.0242048
0.0239066
0.02363
0.023364
0.0230979
0.02283
0.0225618
0.0222939
0.0220214
0.0217309
0.021389
0.0209571
0.0203375
0.0195145
0.0182391
0.0167608
0.0241256
0.0238407
0.0235708
0.0233037
0.0230323
0.0227561
0.0224767
0.0221944
0.0219038
0.0215927
0.0212317
0.0207913
0.0201944
0.0194381
0.0183563
0.0171004
0.024078
0.0238124
0.0235517
0.0232886
0.0230206
0.0227489
0.0224749
0.022198
0.0219121
0.0216038
0.0212463
0.0208108
0.0202366
0.0195139
0.0185354
0.0173796
0.0240474
0.0238109
0.0235602
0.0233021
0.0230407
0.0227787
0.0225181
0.0222577
0.0219904
0.0217013
0.0213638
0.020946
0.0203942
0.019686
0.0187374
0.0175934
0.0249523
0.0246394
0.0243768
0.0241746
0.024023
0.0239222
0.0238821
0.0239139
0.024029
0.0242279
0.0245014
0.0247755
0.0249432
0.0244644
0.0226015
0.0147405
0.0247509
0.0244348
0.0241619
0.0239372
0.0237496
0.0235974
0.0234863
0.0234217
0.0234065
0.0234281
0.0234563
0.023384
0.0230568
0.0219338
0.0194991
0.0140163
0.0245645
0.0242485
0.0239686
0.0237243
0.0235034
0.023303
0.0231258
0.0229736
0.0228435
0.0227175
0.0225551
0.0222615
0.0216884
0.0205571
0.0185279
0.0155424
0.024406
0.0240938
0.0238113
0.0235526
0.0233051
0.0230658
0.0228361
0.0226163
0.0224016
0.0221749
0.0218964
0.0215026
0.0208685
0.0199071
0.0183008
0.016354
0.0242835
0.0239797
0.0236996
0.0234329
0.0231683
0.0229038
0.0226406
0.0223789
0.0221138
0.0218311
0.0214959
0.0210678
0.020444
0.0196084
0.0183014
0.0167844
0.0241996
0.0239091
0.0236355
0.0233672
0.0230962
0.0228219
0.0225454
0.0222671
0.0219815
0.021676
0.0213203
0.0208836
0.0202848
0.0195214
0.018419
0.0171362
0.0241491
0.0238782
0.0236141
0.0233496
0.0230817
0.0228113
0.0225398
0.0222665
0.0219852
0.0216824
0.0213302
0.0208991
0.0203249
0.019598
0.0186051
0.0174282
0.0241172
0.0238762
0.0236228
0.0233636
0.0231026
0.0228423
0.0225846
0.0223284
0.0220666
0.021784
0.0214531
0.0210407
0.0204905
0.0197791
0.0188181
0.0176543
0.0250311
0.0247158
0.0244529
0.0242545
0.0241106
0.0240216
0.0239975
0.0240501
0.0241905
0.0244183
0.0247219
0.0250219
0.0252032
0.0247067
0.0227782
0.0147316
0.0248228
0.0245039
0.0242301
0.024008
0.0238263
0.0236833
0.0235847
0.0235364
0.0235406
0.0235836
0.0236329
0.0235759
0.0232512
0.0221
0.0195997
0.0139922
0.0246297
0.0243106
0.0240292
0.0237863
0.0235697
0.0233759
0.0232079
0.0230673
0.0229509
0.0228395
0.0226904
0.0224044
0.0218276
0.0206716
0.0185942
0.0155433
0.0244652
0.0241498
0.0238654
0.0236072
0.0233624
0.0231276
0.022904
0.0226921
0.0224862
0.0222689
0.0219983
0.0216084
0.0209701
0.0199932
0.0183553
0.0163708
0.0243381
0.0240309
0.0237487
0.0234818
0.0232188
0.0229571
0.0226977
0.0224411
0.0221816
0.0219049
0.0215749
0.0211497
0.0205232
0.019679
0.0183513
0.0168085
0.0242509
0.0239569
0.0236812
0.0234124
0.0231422
0.0228696
0.0225957
0.0223207
0.0220391
0.0217381
0.0213864
0.0209526
0.0203528
0.0195846
0.0184685
0.0171671
0.0241984
0.0239243
0.0236582
0.0233931
0.0231256
0.0228566
0.0225872
0.0223168
0.0220392
0.0217405
0.0213925
0.0209646
0.0203907
0.0196608
0.0186582
0.0174665
0.0241655
0.0239218
0.0236667
0.0234071
0.0231466
0.0228878
0.0226324
0.0223795
0.0221218
0.021844
0.0215178
0.0211093
0.0205602
0.0198466
0.018877