/*--------------------------------*- C++ -*----------------------------------*\
| =========                 |                                                 |
| \\      /  F ield         | foam-extend: Open Source CFD                    |
|  \\    /   O peration     | Version:     3.1                                |
|   \\  /    A nd           | Web:         http://www.extend-project.de       |
|    \\/     M anipulation  |                                                 |
\*---------------------------------------------------------------------------*/
FoamFile
{
    version     2.0;
    format      ascii;
    class       volVectorField;
    location    "3.2";
    object      U;
}
// * * * * * * * * * * * * * * * * * * * * * * * * * * * * * * * * * * * * * //

dimensions      [0 1 -1 0 0 0 0];

internalField   nonuniform List<vector> 
14592
(
(0.0190033 -8.85367e-05 -0.00168834)
(0.0189337 5.51368e-05 -0.00305205)
(0.0186477 0.000175074 -0.00390359)
(0.0181556 0.000249938 -0.00469915)
(0.0175138 0.00030239 -0.00559531)
(0.0167843 0.000335194 -0.00665408)
(0.0160379 0.000343491 -0.00791027)
(0.0153496 0.000321412 -0.00940167)
(0.0147896 0.000261714 -0.0111879)
(0.0144201 0.000152347 -0.0133677)
(0.0143045 -3.08585e-05 -0.016103)
(0.0145236 -0.000330021 -0.019649)
(0.0151857 -0.000797849 -0.0243561)
(0.0162076 -0.00136606 -0.0304455)
(0.01619 -0.00132824 -0.0366201)
(0.0115977 0.000514603 -0.0323411)
(0.0529384 -5.9719e-06 -0.00200812)
(0.0526779 0.000313308 -0.0046841)
(0.0521153 0.00066774 -0.00673717)
(0.0512421 0.000964177 -0.00868688)
(0.0500918 0.00118437 -0.010817)
(0.0487251 0.0013139 -0.0132625)
(0.0472395 0.0013451 -0.0160831)
(0.0457453 0.00128164 -0.0193225)
(0.0443354 0.00113088 -0.0230561)
(0.0430615 0.000888019 -0.027434)
(0.0419248 0.000510168 -0.0327321)
(0.0408639 -0.000108354 -0.0394156)
(0.0397359 -0.00114334 -0.0481458)
(0.0380012 -0.00266097 -0.0592317)
(0.032916 -0.00363292 -0.0693336)
(0.0190046 -0.00125139 -0.0556779)
(0.0821957 0.000141599 -0.00161991)
(0.0819303 0.000637597 -0.00433263)
(0.0813698 0.00120716 -0.0067095)
(0.0805166 0.00174606 -0.00908791)
(0.07936 0.00219191 -0.0117416)
(0.0778872 0.00249816 -0.0148417)
(0.0761325 0.00264121 -0.0184699)
(0.0741671 0.00262834 -0.0226607)
(0.0720642 0.00248749 -0.0274553)
(0.0698549 0.00224357 -0.0329637)
(0.0674895 0.00187518 -0.0394395)
(0.0647783 0.00126809 -0.0473858)
(0.0613362 0.000159552 -0.0576657)
(0.0562864 -0.00180064 -0.0710589)
(0.0458435 -0.00395889 -0.0839046)
(0.023138 -0.00260973 -0.0666848)
(0.1066 0.000254655 -0.00127836)
(0.106386 0.000896677 -0.00360842)
(0.105921 0.00161824 -0.00578284)
(0.105226 0.00234172 -0.00803542)
(0.10427 0.00299562 -0.0106191)
(0.102967 0.00351808 -0.0137441)
(0.101251 0.00387136 -0.0175457)
(0.0991067 0.00405825 -0.0220881)
(0.0965489 0.00411911 -0.0274009)
(0.0935811 0.00411372 -0.0335415)
(0.0901377 0.00407339 -0.0406875)
(0.0859755 0.00394807 -0.0492826)
(0.080561 0.00350625 -0.0602745)
(0.0728631 0.0021923 -0.0750645)
(0.0580311 -0.000384484 -0.0906959)
(0.02692 -0.00185281 -0.0733004)
(0.126119 0.000340687 -0.00106128)
(0.125951 0.00109937 -0.00302899)
(0.125576 0.00192128 -0.00488908)
(0.125035 0.00276474 -0.00682165)
(0.124304 0.00357858 -0.00905963)
(0.123259 0.00431321 -0.0118459)
(0.121754 0.00493532 -0.0153858)
(0.119676 0.00544854 -0.0198149)
(0.116958 0.00589914 -0.0252021)
(0.113552 0.00637362 -0.0315953)
(0.109378 0.00695874 -0.039111)
(0.104182 0.0077093 -0.0481034)
(0.0973479 0.00853305 -0.0594634)
(0.0878599 0.00898683 -0.0751486)
(0.0699616 0.00749972 -0.0934312)
(0.0309148 0.00230592 -0.0773288)
(0.140755 0.000407977 -0.000919971)
(0.14062 0.00126336 -0.00262453)
(0.140319 0.0021594 -0.00422587)
(0.139903 0.00308443 -0.00586279)
(0.139367 0.00401769 -0.00773659)
(0.138582 0.00493884 -0.0100954)
(0.137365 0.0058382 -0.0131933)
(0.135531 0.00673556 -0.0172385)
(0.13294 0.00768898 -0.0223654)
(0.129486 0.0088109 -0.0286516)
(0.12507 0.0102388 -0.0361889)
(0.119439 0.0121608 -0.0452635)
(0.111936 0.0146669 -0.0566165)
(0.101642 0.0178492 -0.0725614)
(0.0825128 0.0194566 -0.0930325)
(0.036102 0.0110274 -0.0788604)
(0.150509 0.000457792 -0.000820267)
(0.150403 0.00138708 -0.00233455)
(0.150172 0.00233656 -0.00374501)
(0.14987 0.00331705 -0.00516006)
(0.149512 0.00433724 -0.00674718)
(0.148981 0.00541024 -0.00873726)
(0.148086 0.00655894 -0.0113985)
(0.146613 0.00783016 -0.0149805)
(0.144387 0.00930155 -0.0196666)
(0.141265 0.0111147 -0.025566)
(0.137169 0.0134508 -0.0327564)
(0.131852 0.0166632 -0.041469)
(0.124774 0.0210369 -0.0522453)
(0.114833 0.0277055 -0.06739)
(0.0976926 0.0352132 -0.0891994)
(0.0447689 0.0273094 -0.0769631)
(0.155384 0.000489694 -0.000746834)
(0.155305 0.00146269 -0.00211796)
(0.155147 0.00243787 -0.00338357)
(0.15497 0.00344371 -0.00463372)
(0.154796 0.00451483 -0.00601162)
(0.154525 0.0056953 -0.00772644)
(0.153978 0.00703994 -0.0100368)
(0.152941 0.00862241 -0.0131964)
(0.151252 0.0105384 -0.0173991)
(0.148774 0.0129488 -0.0227534)
(0.14553 0.0160559 -0.0293035)
(0.141304 0.020339 -0.037184)
(0.136226 0.0262798 -0.0467268)
(0.127971 0.0358698 -0.059419)
(0.120255 0.0538674 -0.0809367)
(0.0632285 0.0528684 -0.0687002)
(0.0203043 -0.000108361 -0.00163892)
(0.0201657 2.85148e-05 -0.00297956)
(0.0197562 0.00015019 -0.00382486)
(0.019098 0.000223211 -0.00461516)
(0.0182486 0.00027236 -0.00550517)
(0.0172606 0.000301363 -0.00655868)
(0.0161944 0.000304301 -0.00781121)
(0.0151139 0.000273645 -0.00929725)
(0.0140742 0.000200473 -0.0110666)
(0.0131117 7.12912e-05 -0.0131976)
(0.0122437 -0.000138844 -0.0158107)
(0.0114691 -0.000475991 -0.0190688)
(0.0107587 -0.000994367 -0.0231043)
(0.00981404 -0.00164678 -0.0276395)
(0.00756436 -0.00208517 -0.0305866)
(0.00370031 -0.00167909 -0.0232347)
(0.0566236 -3.02495e-05 -0.00190486)
(0.0562478 0.000260261 -0.00449347)
(0.0554696 0.000601554 -0.00649456)
(0.0542881 0.000886881 -0.00838977)
(0.0527393 0.00109506 -0.0104546)
(0.0508659 0.00120914 -0.01283)
(0.048743 0.00121703 -0.0155829)
(0.0464576 0.00111828 -0.0187565)
(0.0440739 0.000917328 -0.0224106)
(0.0415995 0.000606334 -0.0266579)
(0.03896 0.000136434 -0.0316966)
(0.0359702 -0.000610731 -0.0378225)
(0.0323019 -0.00182521 -0.045259)
(0.0270755 -0.00356634 -0.05326)
(0.0183206 -0.00510423 -0.0570916)
(0.00721722 -0.00423508 -0.0401728)
(0.0879433 0.000124499 -0.00151134)
(0.0875719 0.000585036 -0.00409837)
(0.0867912 0.00112942 -0.00638705)
(0.0856056 0.00164932 -0.0086692)
(0.0840106 0.00207768 -0.0111999)
(0.0819727 0.00236162 -0.0141549)
(0.0794923 0.00246878 -0.0176313)
(0.0766008 0.00239909 -0.0216746)
(0.0733257 0.00217712 -0.0263204)
(0.0696385 0.00182637 -0.0316426)
(0.0653985 0.00131912 -0.037809)
(0.0602668 0.000520958 -0.0451303)
(0.05363 -0.000871144 -0.0539723)
(0.0440807 -0.00317221 -0.0636878)
(0.0286337 -0.00576461 -0.0685126)
(0.0100294 -0.00562037 -0.0480965)
(0.114063 0.000247733 -0.00118427)
(0.113761 0.000865092 -0.00338802)
(0.113098 0.00156507 -0.00546885)
(0.112091 0.0022731 -0.00761688)
(0.110719 0.00291513 -0.010055)
(0.108881 0.00342263 -0.0129878)
(0.106474 0.00374722 -0.0165673)
(0.103421 0.00388237 -0.0208817)
(0.099668 0.00386538 -0.0259734)
(0.0951327 0.00375957 -0.0318808)
(0.089634 0.00360013 -0.0387041)
(0.0827466 0.00332754 -0.0466983)
(0.073688 0.00267002 -0.0563258)
(0.0606889 0.00107776 -0.0672999)
(0.0393114 -0.0016648 -0.0736814)
(0.0130333 -0.0038892 -0.0526872)
(0.134952 0.000342468 -0.00098191)
(0.13471 0.00109465 -0.00283836)
(0.134162 0.0019097 -0.00461942)
(0.133334 0.00275175 -0.00646714)
(0.13222 0.00356972 -0.00857514)
(0.130691 0.00430977 -0.0111648)
(0.128569 0.00493009 -0.0144484)
(0.12567 0.00542643 -0.0185901)
(0.121836 0.0058438 -0.0236899)
(0.116899 0.00627794 -0.0298006)
(0.110632 0.00683422 -0.0369825)
(0.102563 0.00758528 -0.0454084)
(0.0918081 0.00844635 -0.0555325)
(0.076496 0.00890941 -0.0675352)
(0.0504623 0.0075702 -0.0756684)
(0.0165634 0.00203071 -0.0552329)
(0.150614 0.000416444 -0.000851728)
(0.150417 0.00128265 -0.0024598)
(0.149963 0.00218948 -0.0039989)
(0.149285 0.00313142 -0.00557789)
(0.148395 0.00408962 -0.00735574)
(0.147172 0.00504278 -0.0095446)
(0.14541 0.00597754 -0.0123893)
(0.142861 0.00691115 -0.0161207)
(0.139282 0.00790568 -0.020914)
(0.134422 0.00909058 -0.0268739)
(0.128005 0.0106386 -0.0340657)
(0.119528 0.0127859 -0.0426102)
(0.10803 0.0157141 -0.0528758)
(0.0918418 0.0194481 -0.0654804)
(0.0631213 0.021693 -0.0752485)
(0.0216518 0.0135457 -0.0557304)
(0.161052 0.000471263 -0.000759871)
(0.160891 0.00142527 -0.00218905)
(0.160524 0.00240156 -0.00354965)
(0.159985 0.00341658 -0.00492795)
(0.1593 0.00448198 -0.00645123)
(0.158369 0.00561298 -0.00830651)
(0.156995 0.0068345 -0.0107385)
(0.154909 0.0081986 -0.0140088)
(0.15184 0.00979504 -0.0183422)
(0.147494 0.011793 -0.0238901)
(0.141598 0.0144262 -0.0307321)
(0.133663 0.0181319 -0.0389665)
(0.12276 0.0233828 -0.0488213)
(0.107518 0.0314401 -0.0612529)
(0.079803 0.0404299 -0.0723603)
(0.0306916 0.0342796 -0.0535953)
(0.166269 0.000506704 -0.000691767)
(0.166141 0.00151484 -0.00198641)
(0.165861 0.0025298 -0.00321087)
(0.165469 0.00358471 -0.00443773)
(0.164996 0.00471752 -0.00577309)
(0.164365 0.00597689 -0.00738008)
(0.163399 0.00742518 -0.00948656)
(0.161846 0.0091493 -0.0123505)
(0.159457 0.0112651 -0.0162045)
(0.155962 0.0139717 -0.0212068)
(0.151201 0.0175333 -0.0274235)
(0.144776 0.0225572 -0.0349085)
(0.136361 0.0297392 -0.0437173)
(0.124115 0.0417737 -0.0547168)
(0.106953 0.0628448 -0.0668948)
(0.0491968 0.0643069 -0.0472765)
(0.0214161 -0.000127566 -0.00152226)
(0.0212109 1.10895e-06 -0.00277862)
(0.0206835 0.000124328 -0.00357579)
(0.0198691 0.00019498 -0.00432033)
(0.0188267 0.000239744 -0.00515755)
(0.0176018 0.000263337 -0.00614882)
(0.0162457 0.000258844 -0.00732725)
(0.0148141 0.000217272 -0.00872064)
(0.0133533 0.000128646 -0.0103638)
(0.0118883 -2.07904e-05 -0.0123068)
(0.0104205 -0.000253309 -0.0146155)
(0.00893194 -0.000611925 -0.0173548)
(0.00738945 -0.00113563 -0.0204869)
(0.00563163 -0.00180272 -0.0235183)
(0.0033246 -0.00242796 -0.0244089)
(0.000840488 -0.00225532 -0.0166996)
(0.0597798 -5.23998e-05 -0.00173545)
(0.0592967 0.000210086 -0.00413017)
(0.0583177 0.000538038 -0.00599123)
(0.05685 0.00081109 -0.00774845)
(0.0549354 0.0010049 -0.00965599)
(0.0526033 0.00110007 -0.0118504)
(0.0499099 0.00108024 -0.014399)
(0.0469238 0.000940944 -0.0173392)
(0.0436897 0.000684895 -0.0207092)
(0.040193 0.000305051 -0.024574)
(0.0363328 -0.000243757 -0.0290414)
(0.0319089 -0.00106973 -0.0342274)
(0.0266142 -0.00234399 -0.0400441)
(0.0198535 -0.00412065 -0.0453573)
(0.0111037 -0.00584559 -0.0456886)
(0.00258617 -0.00518427 -0.0288028)
(0.0928683 0.000109907 -0.00135832)
(0.0924009 0.000538801 -0.00372338)
(0.0914189 0.0010594 -0.00583184)
(0.0899276 0.00155999 -0.00792816)
(0.0879313 0.00196899 -0.0102385)
(0.0853829 0.00222746 -0.0129297)
(0.082256 0.00229437 -0.0161026)
(0.078549 0.00216215 -0.0198055)
(0.0742542 0.00185263 -0.0240624)
(0.069306 0.00139227 -0.0289034)
(0.0635266 0.000759736 -0.0343989)
(0.0565434 -0.000169668 -0.0406701)
(0.0477371 -0.00168194 -0.0477036)
(0.0359663 -0.00401568 -0.054271)
(0.020192 -0.00671179 -0.0547616)
(0.00458799 -0.00671309 -0.033995)
(0.120458 0.000242714 -0.00105874)
(0.120078 0.000840297 -0.00305915)
(0.119238 0.00152185 -0.00496627)
(0.117945 0.00221574 -0.00693137)
(0.116191 0.00284577 -0.00914201)
(0.113867 0.00333725 -0.0117835)
(0.110839 0.00363115 -0.0150069)
(0.106988 0.00371085 -0.0189095)
(0.102199 0.00361011 -0.0235363)
(0.0963282 0.00339826 -0.0288996)
(0.0891308 0.00312431 -0.0350148)
(0.080123 0.00274468 -0.0419475)
(0.0685137 0.00200992 -0.0497397)
(0.0526197 0.000456262 -0.0573718)
(0.0302803 -0.002255 -0.0587884)
(0.00706588 -0.00456865 -0.0367344)
(0.142522 0.000345589 -0.000877357)
(0.142215 0.00109563 -0.00255848)
(0.141512 0.00190735 -0.00419028)
(0.140425 0.00275004 -0.00588463)
(0.138958 0.00357322 -0.007797)
(0.136982 0.00431944 -0.0101168)
(0.134297 0.0049382 -0.0130421)
(0.130672 0.00541588 -0.0167424)
(0.125872 0.00579413 -0.0213298)
(0.119638 0.00617735 -0.0268493)
(0.111646 0.00669313 -0.0332965)
(0.101334 0.00744966 -0.0406665)
(0.0877945 0.00840208 -0.0490096)
(0.0690436 0.00908209 -0.0576157)
(0.0412945 0.00795945 -0.0603249)
(0.0103054 0.00235822 -0.0381182)
(0.159064 0.00042602 -0.000761555)
(0.15881 0.00130651 -0.00221738)
(0.158221 0.00222715 -0.00362995)
(0.157309 0.00318787 -0.00508677)
(0.156092 0.00417222 -0.00671126)
(0.154458 0.00515853 -0.00867527)
(0.15219 0.00612934 -0.0111948)
(0.148999 0.00709726 -0.0144946)
(0.144563 0.00812462 -0.0187617)
(0.138519 0.00935359 -0.0241071)
(0.130464 0.010987 -0.0305549)
(0.119769 0.0133123 -0.038068)
(0.105451 0.0165874 -0.046653)
(0.0855706 0.0208714 -0.055956)
(0.0543606 0.0236568 -0.0600629)
(0.0154441 0.0155624 -0.0381783)
(0.170088 0.000485914 -0.000679837)
(0.169877 0.0014675 -0.00197406)
(0.169392 0.00247297 -0.00322491)
(0.168641 0.00352398 -0.00450419)
(0.167656 0.00463549 -0.00590906)
(0.166348 0.00582505 -0.00758436)
(0.164518 0.00711876 -0.00973618)
(0.161872 0.00857128 -0.0126081)
(0.158066 0.0102797 -0.0164321)
(0.152693 0.0124332 -0.0213727)
(0.14534 0.0153047 -0.0274922)
(0.135368 0.0193978 -0.0347579)
(0.121817 0.0253079 -0.043104)
(0.103079 0.0343841 -0.0525522)
(0.0721829 0.0443952 -0.0580915)
(0.0249897 0.0387315 -0.0366884)
(0.175598 0.000525138 -0.000618926)
(0.175424 0.00157097 -0.00179167)
(0.17504 0.00262757 -0.00291897)
(0.174457 0.0037328 -0.00406275)
(0.173713 0.0049281 -0.00530333)
(0.17274 0.00626628 -0.00676314)
(0.17137 0.0078156 -0.00862814)
(0.169337 0.00967314 -0.0111323)
(0.166334 0.01197 -0.0145115)
(0.161989 0.0149338 -0.0189423)
(0.156013 0.0188739 -0.024493)
(0.147873 0.0244825 -0.0311262)
(0.137177 0.0325898 -0.0386859)
(0.122142 0.0462061 -0.0473554)
(0.10175 0.0690751 -0.0546145)
(0.0438938 0.0704532 -0.0328305)
(0.0223402 -0.000145176 -0.00134274)
(0.0220736 -2.54342e-05 -0.00245835)
(0.0214391 9.9473e-05 -0.00316828)
(0.0204839 0.000167813 -0.00383035)
(0.0192699 0.000208024 -0.00457321)
(0.0178369 0.000225866 -0.00545185)
(0.0162305 0.000213528 -0.0064947)
(0.0145017 0.000160727 -0.00772188)
(0.0126942 5.7161e-05 -0.0091536)
(0.0108349 -0.000109007 -0.0108138)
(0.00893095 -0.000362105 -0.0127234)
(0.00698052 -0.000727575 -0.0148798)
(0.00499788 -0.00123703 -0.0171622)
(0.00299771 -0.00187395 -0.0190565)
(0.00110246 -0.00251507 -0.0189175)
(-0.000360322 -0.00232564 -0.0122349)
(0.062408 -7.17671e-05 -0.00150672)
(0.0618293 0.000164925 -0.00361017)
(0.0606712 0.00048069 -0.00525175)
(0.058948 0.000742152 -0.00679676)
(0.0567103 0.000921855 -0.00846715)
(0.0539782 0.000998158 -0.0103861)
(0.0507949 0.000950728 -0.0126153)
(0.0472172 0.000771717 -0.0151838)
(0.043281 0.000463194 -0.0181098)
(0.0389673 2.32529e-05 -0.0214178)
(0.0341874 -0.000584045 -0.025139)
(0.0287779 -0.00145018 -0.0292679)
(0.0225394 -0.00271736 -0.0335673)
(0.0152333 -0.00441316 -0.0368867)
(0.00719269 -0.00608446 -0.035602)
(0.000557636 -0.00537805 -0.0211635)
(0.0969714 9.77902e-05 -0.00116661)
(0.0964202 0.000499687 -0.00322435)
(0.0952615 0.000999284 -0.00507016)
(0.0934999 0.00148239 -0.00690103)
(0.0911499 0.00187329 -0.00890734)
(0.0881564 0.00210754 -0.0112365)
(0.084474 0.00213597 -0.0139824)
(0.0800783 0.00194408 -0.0171902)
(0.0749398 0.00155181 -0.0208713)
(0.0689777 0.00099203 -0.0250197)
(0.0620094 0.000261114 -0.0296335)
(0.0536901 -0.000744022 -0.0347021)
(0.0435305 -0.00225345 -0.0400081)
(0.030793 -0.00446806 -0.0442146)
(0.0156117 -0.00703043 -0.0426853)
(0.00220281 -0.00697524 -0.0248037)
(0.125787 0.0002391 -0.000905732)
(0.12534 0.000821248 -0.00263615)
(0.124345 0.00148781 -0.00429845)
(0.122802 0.00216989 -0.00600995)
(0.120712 0.00278964 -0.0079216)
(0.117961 0.0032671 -0.0101904)
(0.114398 0.00353335 -0.0129525)
(0.109869 0.00356176 -0.0163015)
(0.104221 0.00338269 -0.0202781)
(0.0972713 0.00307274 -0.0248731)
(0.0887501 0.00270098 -0.0300414)
(0.0781971 0.00226015 -0.0357154)
(0.0649123 0.00155566 -0.0416981)
(0.0475681 0.000172524 -0.0467798)
(0.025471 -0.00233156 -0.0457741)
(0.0045017 -0.00461655 -0.026578)
(0.148829 0.000349203 -0.000750415)
(0.148465 0.00109977 -0.00220169)
(0.147631 0.00191062 -0.00362276)
(0.146319 0.00275542 -0.00510095)
(0.144541 0.00358464 -0.00675714)
(0.142171 0.00433817 -0.00874431)
(0.138994 0.00495757 -0.0112328)
(0.134748 0.00541945 -0.0143785)
(0.129145 0.00576082 -0.0182893)
(0.121864 0.00609397 -0.0229989)
(0.112529 0.00657043 -0.0284575)
(0.100568 0.00734147 -0.0345451)
(0.0851529 0.00840698 -0.0410731)
(0.0645502 0.00935891 -0.0470185)
(0.0365678 0.00853913 -0.046948)
(0.00768793 0.00292914 -0.0274138)
(0.166104 0.000435518 -0.000651803)
(0.1658 0.00133125 -0.0019083)
(0.165098 0.00226655 -0.0031392)
(0.163984 0.00324588 -0.00441509)
(0.162482 0.00425539 -0.00583035)
(0.160483 0.00527375 -0.007518)
(0.157766 0.00627981 -0.00965527)
(0.154018 0.00728051 -0.01244)
(0.148865 0.00833568 -0.0160475)
(0.141868 0.00959597 -0.0205812)
(0.132548 0.0112888 -0.0260335)
(0.120223 0.0137486 -0.0322723)
(0.103987 0.0172957 -0.0390894)
(0.0820214 0.0220273 -0.0457417)
(0.0500785 0.025282 -0.0468256)
(0.0129974 0.0171885 -0.027396)
(0.177617 0.000500179 -0.000582171)
(0.177361 0.00150902 -0.0016995)
(0.176776 0.00254301 -0.00279025)
(0.175846 0.00362824 -0.00391451)
(0.1746 0.00478303 -0.00514671)
(0.172956 0.00602748 -0.00659528)
(0.170718 0.00738864 -0.00842283)
(0.167578 0.00892187 -0.0108362)
(0.16315 0.0107274 -0.0140473)
(0.156952 0.0130071 -0.0182125)
(0.148481 0.0160603 -0.0233751)
(0.137021 0.0204391 -0.029428)
(0.121668 0.0268169 -0.0361358)
(0.100874 0.0365869 -0.0431183)
(0.0687518 0.047288 -0.0455636)
(0.022952 0.0418072 -0.0264774)
(0.183372 0.000543065 -0.000530047)
(0.183157 0.00162545 -0.00154276)
(0.182684 0.00272179 -0.00252651)
(0.181941 0.00387434 -0.0035342)
(0.180962 0.00512802 -0.00462777)
(0.179686 0.00653936 -0.00589686)
(0.177951 0.00818133 -0.00748428)
(0.175488 0.0101583 -0.00958415)
(0.171962 0.0126115 -0.0124089)
(0.166933 0.0157878 -0.0161279)
(0.160031 0.0200242 -0.0208037)
(0.150639 0.0260653 -0.0263499)
(0.138395 0.0348136 -0.0324989)
(0.121617 0.0494196 -0.0391268)
(0.0998223 0.0733671 -0.0434169)
(0.0420431 0.0743546 -0.0240271)
(0.0230771 -0.000159911 -0.00110758)
(0.0227584 -4.68946e-05 -0.0020328)
(0.0220324 7.78372e-05 -0.00262147)
(0.0209572 0.000143819 -0.00316984)
(0.0195984 0.000179926 -0.00378376)
(0.0179928 0.000192536 -0.00450863)
(0.016182 0.00017314 -0.00536697)
(0.0142158 0.000110595 -0.00637192)
(0.0121406 -5.41576e-06 -0.00753276)
(0.00999149 -0.000187433 -0.00885365)
(0.0077915 -0.000452465 -0.0103298)
(0.00556671 -0.000818443 -0.011925)
(0.00338412 -0.00130658 -0.0134981)
(0.00137972 -0.00189915 -0.0146117)
(-9.75477e-05 -0.00249485 -0.0140725)
(-0.000895095 -0.00227961 -0.00881791)
(0.0645098 -8.77123e-05 -0.00122722)
(0.0638501 0.000127606 -0.00295521)
(0.0625401 0.000432331 -0.00430883)
(0.0606016 0.000683651 -0.0055788)
(0.0580931 0.000851019 -0.00694644)
(0.0550298 0.000910742 -0.00851443)
(0.0514471 0.000839053 -0.0103342)
(0.0473958 0.000625409 -0.0124262)
(0.0429107 0.000272394 -0.0147945)
(0.0379834 -0.000215611 -0.0174374)
(0.03255 -0.000864611 -0.0203365)
(0.026502 -0.00174551 -0.0234319)
(0.0197586 -0.00297114 -0.0264457)
(0.0123416 -0.00454915 -0.0284088)
(0.00499987 -0.00609034 -0.0266378)
(-0.000395262 -0.0053329 -0.0153239)
(0.100253 8.80657e-05 -0.000942385)
(0.0996324 0.000467627 -0.00262073)
(0.0983263 0.000950126 -0.00413353)
(0.0963385 0.00141872 -0.00563129)
(0.0936927 0.00179435 -0.00726461)
(0.0903301 0.00200805 -0.00915393)
(0.0861935 0.0020036 -0.0113786)
(0.0812449 0.00176036 -0.0139762)
(0.0754444 0.00129739 -0.0169484)
(0.0687085 0.00065677 -0.0202698)
(0.0608685 -0.000148905 -0.0238979)
(0.0516388 -0.00118757 -0.0277579)
(0.0406761 -0.00263982 -0.0315526)
(0.0275648 -0.00468494 -0.0341291)
(0.0130412 -0.00704589 -0.0319901)
(0.00108947 -0.00692651 -0.0179178)
(0.130049 0.000236538 -0.000729555)
(0.129546 0.000806924 -0.00213465)
(0.128425 0.00146192 -0.00349215)
(0.126674 0.00213476 -0.00488948)
(0.124304 0.00274649 -0.00644185)
(0.121198 0.00321296 -0.00827306)
(0.117194 0.00345688 -0.0104953)
(0.112119 0.0034426 -0.0131886)
(0.105793 0.00319724 -0.016386)
(0.0980139 0.00280443 -0.0200663)
(0.0885143 0.00235758 -0.0241558)
(0.0768839 0.00188907 -0.0285183)
(0.0625416 0.0012578 -0.0328922)
(0.0444904 7.93017e-05 -0.0361528)
(0.0228327 -0.00217814 -0.0343129)
(0.00334504 -0.00442654 -0.0191247)
(0.153874 0.000352716 -0.000604419)
(0.153464 0.00110515 -0.001781)
(0.152521 0.0019166 -0.00294028)
(0.151024 0.00276419 -0.00414838)
(0.148988 0.00359944 -0.00549546)
(0.146289 0.00436059 -0.0070978)
(0.142704 0.00498258 -0.00909041)
(0.137952 0.00543311 -0.011603)
(0.131714 0.00574412 -0.0147278)
(0.123629 0.00603425 -0.018488)
(0.1133 0.0064782 -0.0228147)
(0.100178 0.00726529 -0.0275408)
(0.0835438 0.00844283 -0.0323937)
(0.0619467 0.00964848 -0.0363701)
(0.0340868 0.00912081 -0.0352059)
(0.00657238 0.00350404 -0.0196638)
(0.171735 0.000444066 -0.000525271)
(0.171391 0.0013541 -0.00154379)
(0.170595 0.00230317 -0.00254802)
(0.169316 0.0032993 -0.00359316)
(0.167579 0.00433099 -0.00474939)
(0.165276 0.00537783 -0.00611464)
(0.162183 0.00641578 -0.00782437)
(0.157977 0.00744626 -0.0100375)
(0.152252 0.00852511 -0.0129017)
(0.144525 0.00980781 -0.0165038)
(0.13427 0.0115407 -0.0208211)
(0.1208 0.0140956 -0.0256892)
(0.103299 0.0178431 -0.030825)
(0.0801531 0.0229119 -0.0354362)
(0.0479863 0.0265395 -0.03519)
(0.0120554 0.0184209 -0.0196727)
(0.18364 0.000512889 -0.00046934)
(0.183346 0.00154626 -0.0013753)
(0.182679 0.00260575 -0.00226546)
(0.181603 0.00372102 -0.00318811)
(0.180144 0.00491334 -0.00419935)
(0.178221 0.00620536 -0.00537727)
(0.17564 0.00762503 -0.00684233)
(0.172088 0.00922748 -0.00875603)
(0.16716 0.0111132 -0.0112929)
(0.160327 0.013491 -0.0145863)
(0.151036 0.0166763 -0.0186655)
(0.138533 0.0212543 -0.0234017)
(0.121985 0.0279472 -0.0285093)
(0.0999835 0.0381759 -0.0335033)
(0.0672874 0.0493521 -0.0344201)
(0.0223213 0.0439676 -0.0191475)
(0.18959 0.000559034 -0.000427335)
(0.189341 0.00167392 -0.00124867)
(0.188795 0.00280527 -0.00205184)
(0.187922 0.00399904 -0.00287997)
(0.186753 0.0053032 -0.00378036)
(0.185225 0.00677755 -0.00481675)
(0.183183 0.0084987 -0.00609264)
(0.180359 0.0105762 -0.00775663)
(0.176408 0.0131571 -0.00998145)
(0.170851 0.0164999 -0.0129123)
(0.163272 0.0209563 -0.0166019)
(0.153004 0.0273015 -0.0209542)
(0.13973 0.0364725 -0.0256823)
(0.121875 0.0516887 -0.0305581)
(0.0993763 0.0763315 -0.0331089)
(0.0415289 0.0770198 -0.0175474)
(0.0236277 -0.000171132 -0.000825831)
(0.0232685 -6.20338e-05 -0.0015187)
(0.0224708 6.05033e-05 -0.00195926)
(0.0213009 0.000124005 -0.00236911)
(0.0198294 0.000156576 -0.00282703)
(0.018091 0.000164754 -0.00336668)
(0.0161253 0.000139517 -0.00400415)
(0.0139827 6.93509e-05 -0.0047471)
(0.0117153 -5.58321e-05 -0.00559792)
(0.0093678 -0.000250827 -0.00655174)
(0.00697977 -0.00052385 -0.00759326)
(0.00460533 -0.000889478 -0.00867918)
(0.00235227 -0.00135709 -0.00968897)
(0.000417332 -0.00191274 -0.0103039)
(-0.000749317 -0.00245123 -0.00971984)
(-0.00114154 -0.00221552 -0.00598317)
(0.0660854 -9.98543e-05 -0.000906373)
(0.0653621 9.94553e-05 -0.00219125)
(0.0639329 0.000394656 -0.00320033)
(0.0618266 0.000637609 -0.0041446)
(0.0591077 0.000795017 -0.00515824)
(0.0557899 0.000841376 -0.00631796)
(0.0519043 0.00075026 -0.0076621)
(0.0475 0.000509212 -0.00920365)
(0.0426155 0.000122033 -0.0109386)
(0.0372561 -0.000403052 -0.0128546)
(0.0313855 -0.00107996 -0.0149165)
(0.0249497 -0.00196709 -0.0170497)
(0.0179574 -0.00314157 -0.0190154)
(0.010588 -0.00461136 -0.0201053)
(0.00377658 -0.00602296 -0.0184976)
(-0.000850372 -0.0052309 -0.0104404)
(0.102714 8.07725e-05 -0.000691752)
(0.102039 0.000442995 -0.00193316)
(0.100619 0.000912728 -0.00305589)
(0.0984553 0.00137025 -0.0041659)
(0.0955803 0.00173411 -0.00537196)
(0.0919336 0.0019319 -0.00676264)
(0.0874514 0.0019019 -0.00839741)
(0.0820887 0.00161841 -0.0103041)
(0.0758025 0.00110039 -0.0124802)
(0.0685132 0.000398701 -0.0148942)
(0.0600699 -0.00045877 -0.0174958)
(0.0502582 -0.0015024 -0.0201917)
(0.038841 -0.00289176 -0.022712)
(0.0256123 -0.00477925 -0.0242027)
(0.0116079 -0.00695519 -0.0222585)
(0.000564477 -0.00679548 -0.0122058)
(0.133245 0.000234847 -0.000534362)
(0.132699 0.000796782 -0.00157024)
(0.131481 0.00144353 -0.00257493)
(0.12957 0.00210973 -0.00360903)
(0.126983 0.00271571 -0.00475364)
(0.123603 0.00317441 -0.00609736)
(0.119262 0.00340198 -0.00772277)
(0.113775 0.00335542 -0.00969027)
(0.106949 0.00305873 -0.0120239)
(0.0985732 0.00260314 -0.0146998)
(0.0883975 0.00210224 -0.0176422)
(0.0760522 0.00163039 -0.0207173)
(0.0610591 0.00107145 -0.0236851)
(0.0426742 7.38906e-05 -0.0256689)
(0.0213969 -0.00196808 -0.0238961)
(0.0028229 -0.00419308 -0.0130147)
(0.157657 0.000355746 -0.000442648)
(0.15721 0.00111049 -0.00130904)
(0.156185 0.00192326 -0.00216618)
(0.154547 0.0027737 -0.00306064)
(0.152312 0.00361429 -0.00405516)
(0.149359 0.00438238 -0.00523068)
(0.145461 0.00500799 -0.00668386)
(0.140325 0.00545154 -0.00851065)
(0.133615 0.00574026 -0.0107809)
(0.124951 0.0059973 -0.0135089)
(0.11393 0.00641649 -0.0166291)
(0.10003 0.00721283 -0.0199864)
(0.0826303 0.00848615 -0.0233253)
(0.0604992 0.00989529 -0.0258448)
(0.0328107 0.00960441 -0.0245353)
(0.00611865 0.00397648 -0.0133537)
(0.175958 0.000451042 -0.0003848)
(0.175581 0.00137305 -0.00113473)
(0.174714 0.00233373 -0.00187714)
(0.173311 0.00334364 -0.00265186)
(0.171393 0.0043932 -0.00350799)
(0.168855 0.00546305 -0.00451227)
(0.165474 0.00652724 -0.00575901)
(0.160917 0.00758261 -0.00736296)
(0.154766 0.00868071 -0.00943422)
(0.146511 0.00997909 -0.012038)
(0.135605 0.0117373 -0.0151497)
(0.121368 0.014354 -0.0186217)
(0.103062 0.0182405 -0.0221938)
(0.0792454 0.0235468 -0.0252113)
(0.0470121 0.0274496 -0.0245723)
(0.0117401 0.0192978 -0.0133907)
(0.188156 0.000523172 -0.000343905)
(0.187833 0.00157653 -0.00101111)
(0.187103 0.00265675 -0.00166926)
(0.185916 0.00379612 -0.00235384)
(0.184296 0.00501824 -0.00310472)
(0.182159 0.00634794 -0.00397448)
(0.179312 0.00781406 -0.00504504)
(0.175443 0.00947118 -0.0064304)
(0.170139 0.0114187 -0.00825864)
(0.162847 0.0138683 -0.0106308)
(0.152986 0.0171443 -0.0135658)
(0.139787 0.0218532 -0.0169508)
(0.122474 0.0287479 -0.0205329)
(0.0997616 0.0392705 -0.0238859)
(0.066762 0.0507728 -0.0241238)
(0.0222323 0.0454483 -0.0131048)
(0.194253 0.000571938 -0.000313137)
(0.193977 0.00171311 -0.000918137)
(0.193376 0.00287259 -0.00151212)
(0.192405 0.00409918 -0.00212703)
(0.191091 0.00544331 -0.00279693)
(0.189371 0.00696733 -0.00356451)
(0.187091 0.00875058 -0.00449901)
(0.183987 0.010906 -0.00570373)
(0.179713 0.0135838 -0.00730409)
(0.173773 0.0170487 -0.00941012)
(0.165724 0.0216589 -0.012062)
(0.154872 0.0282064 -0.0151793)
(0.140938 0.0376432 -0.0185191)
(0.122425 0.0532261 -0.0218624)
(0.0995494 0.0783268 -0.0233356)
(0.0415247 0.0788253 -0.0120765)
(0.0239932 -0.000178617 -0.000506468)
(0.0236062 -7.2692e-05 -0.000932863)
(0.0227593 4.76602e-05 -0.00120349)
(0.0215244 0.000108877 -0.0014546)
(0.019976 0.00013834 -0.00173485)
(0.0181476 0.000142706 -0.00206469)
(0.0160784 0.00011251 -0.00245359)
(0.0138201 3.583e-05 -0.00290536)
(0.0114289 -9.60903e-05 -0.00341932)
(0.00895862 -0.000301301 -0.00399011)
(0.00646255 -0.000581598 -0.00460337)
(0.00401351 -0.000946699 -0.00522683)
(0.00174277 -0.00139919 -0.00578334)
(-0.000111701 -0.00192338 -0.00608478)
(-0.0010799 -0.00243341 -0.00566263)
(-0.00125526 -0.00217599 -0.00345231)
(0.0671339 -0.000107834 -0.000551878)
(0.0663668 8.03428e-05 -0.00133969)
(0.0648565 0.000368677 -0.0019579)
(0.0626354 0.000605507 -0.00253503)
(0.0597732 0.000755581 -0.00315347)
(0.0562829 0.000792181 -0.00386001)
(0.052194 0.000687085 -0.004678)
(0.0475571 0.000426341 -0.00561462)
(0.0424121 1.37855e-05 -0.00666478)
(0.0367787 -0.00053611 -0.00781537)
(0.0306448 -0.00123341 -0.00903823)
(0.0239924 -0.00211928 -0.010275)
(0.0168876 -0.00325325 -0.0113729)
(0.00959893 -0.00464071 -0.0119077)
(0.00313215 -0.00596775 -0.010832)
(-0.00105778 -0.0051511 -0.00604955)
(0.104352 7.61246e-05 -0.00041923)
(0.10364 0.000426766 -0.00117768)
(0.102143 0.000888035 -0.00186365)
(0.0998601 0.00133815 -0.0025408)
(0.0968289 0.001694 -0.00327509)
(0.0929894 0.00188097 -0.00411998)
(0.0882746 0.00183361 -0.00511174)
(0.0826363 0.00152282 -0.0062672)
(0.076032 0.000966373 -0.00758355)
(0.0683868 0.000224419 -0.0090369)
(0.0595716 -0.00066235 -0.01059)
(0.0494177 -0.00170731 -0.0121652)
(0.0377578 -0.00304587 -0.0135927)
(0.0245122 -0.00481718 -0.0143527)
(0.0108524 -0.00686373 -0.013054)
(0.000330851 -0.00668431 -0.00707214)
(0.135374 0.000233952 -0.00032331)
(0.134798 0.000790684 -0.000954808)
(0.133515 0.00143232 -0.00156751)
(0.131496 0.00209448 -0.00219762)
(0.128761 0.00269697 -0.0028938)
(0.125196 0.00315098 -0.00370856)
(0.120628 0.00336822 -0.00469164)
(0.114865 0.00330055 -0.00588012)
(0.10771 0.00297044 -0.00728836)
(0.0989519 0.00247231 -0.00889885)
(0.0883503 0.00193983 -0.0106559)
(0.0755682 0.00146668 -0.0124739)
(0.060209 0.000963013 -0.0141795)
(0.0416732 9.55389e-05 -0.0152354)
(0.020655 -0.00179471 -0.014028)
(0.00260024 -0.00400149 -0.00753942)
(0.160177 0.000357991 -0.000267812)
(0.159706 0.00111486 -0.000795647)
(0.158625 0.00192909 -0.00131801)
(0.156892 0.00278201 -0.00186297)
(0.154523 0.00362676 -0.00246819)
(0.151397 0.00440033 -0.00318084)
(0.147287 0.00502954 -0.00405808)
(0.141894 0.00546969 -0.00515811)
(0.134873 0.00574461 -0.0065239)
(0.125835 0.00597952 -0.0081635)
(0.114376 0.00637935 -0.0100313)
(0.100001 0.00718457 -0.0120234)
(0.0821566 0.00852408 -0.0139628)
(0.0597491 0.0100718 -0.0153481)
(0.032201 0.0099438 -0.0144139)
(0.00597184 0.00430953 -0.00772719)
(0.178773 0.000455946 -0.000232894)
(0.178373 0.00138661 -0.000689825)
(0.177458 0.00235571 -0.00114226)
(0.17597 0.0033755 -0.00161447)
(0.173931 0.00443767 -0.00213629)
(0.171235 0.00552378 -0.00274615)
(0.167657 0.00660679 -0.00349877)