/*--------------------------------*- C++ -*----------------------------------*\
| =========                 |                                                 |
| \\      /  F ield         | foam-extend: Open Source CFD                    |
|  \\    /   O peration     | Version:     3.1                                |
|   \\  /    A nd           | Web:         http://www.extend-project.de       |
|    \\/     M anipulation  |                                                 |
\*---------------------------------------------------------------------------*/
FoamFile
{
    version     2.0;
    format      ascii;
    class       volVectorField;
    location    "2.8";
    object      cellMotionU;
}
// * * * * * * * * * * * * * * * * * * * * * * * * * * * * * * * * * * * * * //

dimensions      [0 1 -1 0 0 0 0];

internalField   nonuniform List<vector> 
14592
(
(-2.84421e-11 -1.47233e-11 4.96698e-12)
(-8.21096e-11 -4.2925e-11 1.45757e-11)
(-1.30115e-10 -6.9374e-11 2.3853e-11)
(-1.73508e-10 -9.52011e-11 3.33131e-11)
(-2.13061e-10 -1.21288e-10 4.33408e-11)
(-2.49239e-10 -1.48269e-10 5.41718e-11)
(-2.82152e-10 -1.76501e-10 6.58346e-11)
(-3.11466e-10 -2.0604e-10 7.80244e-11)
(-3.36312e-10 -2.36508e-10 8.98979e-11)
(-3.55195e-10 -2.67012e-10 9.97195e-11)
(-3.66048e-10 -2.96012e-10 1.04347e-10)
(-3.66547e-10 -3.21237e-10 9.85672e-11)
(-3.54869e-10 -3.39929e-10 7.45226e-11)
(-3.30838e-10 -3.49575e-10 2.22743e-11)
(-2.97119e-10 -3.4984e-10 -6.47448e-11)
(-2.64111e-10 -3.45223e-10 -1.63867e-10)
(-8.48532e-11 -4.35273e-11 1.47904e-11)
(-2.44995e-10 -1.26927e-10 4.34109e-11)
(-3.88326e-10 -2.05139e-10 7.10746e-11)
(-5.18018e-10 -2.81531e-10 9.9333e-11)
(-6.36447e-10 -3.58705e-10 1.29376e-10)
(-7.4512e-10 -4.38521e-10 1.61992e-10)
(-8.44556e-10 -5.22076e-10 1.97418e-10)
(-9.34097e-10 -6.09574e-10 2.35043e-10)
(-1.01164e-09 -6.99991e-10 2.72883e-10)
(-1.07353e-09 -7.90922e-10 3.06708e-10)
(-1.1148e-09 -8.78034e-10 3.28832e-10)
(-1.1306e-09 -9.55219e-10 3.26612e-10)
(-1.11998e-09 -1.01521e-09 2.81742e-10)
(-1.09364e-09 -1.0526e-09 1.73731e-10)
(-1.08582e-09 -1.07057e-09 -1.97704e-12)
(-1.14794e-09 -1.08465e-09 -1.76038e-10)
(-1.40296e-10 -7.06934e-11 2.43624e-11)
(-4.05119e-10 -2.06119e-10 7.15272e-11)
(-6.42302e-10 -3.33126e-10 1.17177e-10)
(-8.57255e-10 -4.57175e-10 1.63945e-10)
(-1.05415e-09 -5.82496e-10 2.13924e-10)
(-1.23586e-09 -7.12123e-10 2.68664e-10)
(-1.40388e-09 -8.47962e-10 3.29011e-10)
(-1.55807e-09 -9.9034e-10 3.94821e-10)
(-1.69648e-09 -1.13801e-09 4.64328e-10)
(-1.81524e-09 -1.28731e-09 5.3329e-10)
(-1.90934e-09 -1.43206e-09 5.93687e-10)
(-1.97541e-09 -1.56325e-09 6.32553e-10)
(-2.01949e-09 -1.67046e-09 6.32419e-10)
(-2.07451e-09 -1.74633e-09 5.7876e-10)
(-2.2268e-09 -1.79639e-09 4.86702e-10)
(-2.56682e-09 -1.83876e-09 4.46593e-10)
(-1.94106e-10 -9.52041e-11 3.35162e-11)
(-5.60592e-10 -2.77587e-10 9.84347e-11)
(-8.89109e-10 -4.48627e-10 1.61374e-10)
(-1.18744e-09 -6.15677e-10 2.26081e-10)
(-1.46179e-09 -7.84431e-10 2.95669e-10)
(-1.71684e-09 -9.5906e-10 3.72685e-10)
(-1.95573e-09 -1.14213e-09 4.59092e-10)
(-2.18004e-09 -1.33437e-09 5.56096e-10)
(-2.38969e-09 -1.53435e-09 6.63832e-10)
(-2.58322e-09 -1.73789e-09 7.80892e-10)
(-2.75887e-09 -1.93747e-09 9.0383e-10)
(-2.91816e-09 -2.12223e-09 1.02703e-09)
(-3.07511e-09 -2.27894e-09 1.14452e-09)
(-3.2769e-09 -2.39655e-09 1.25806e-09)
(-3.63344e-09 -2.47582e-09 1.39851e-09)
(-4.22817e-09 -2.5277e-09 1.62068e-09)
(-2.45585e-10 -1.16173e-10 4.20784e-11)
(-7.09403e-10 -3.38745e-10 1.23624e-10)
(-1.12555e-09 -5.4745e-10 2.02812e-10)
(-1.50425e-09 -7.51283e-10 2.845e-10)
(-1.85394e-09 -9.57178e-10 3.72883e-10)
(-2.18147e-09 -1.17031e-09 4.71682e-10)
(-2.49227e-09 -1.39375e-09 5.84351e-10)
(-2.79067e-09 -1.62872e-09 7.14143e-10)
(-3.08016e-09 -1.87364e-09 8.64365e-10)
(-3.36416e-09 -2.12406e-09 1.03867e-09)
(-3.64762e-09 -2.37176e-09 1.24191e-09)
(-3.94075e-09 -2.60456e-09 1.48172e-09)
(-4.26672e-09 -2.80707e-09 1.77169e-09)
(-4.67688e-09 -2.96451e-09 2.13662e-09)
(-5.26655e-09 -3.07205e-09 2.6147e-09)
(-6.058e-09 -3.13478e-09 3.17407e-09)
(-2.93994e-10 -1.32841e-10 4.98808e-11)
(-8.49403e-10 -3.87353e-10 1.46585e-10)
(-1.34813e-09 -6.26022e-10 2.40601e-10)
(-1.80279e-09 -8.59089e-10 3.37835e-10)
(-2.22412e-09 -1.09453e-09 4.4352e-10)
(-2.62123e-09 -1.33812e-09 5.62597e-10)
(-3.00221e-09 -1.59355e-09 7.00067e-10)
(-3.37468e-09 -1.86199e-09 8.61503e-10)
(-3.74669e-09 -2.14199e-09 1.05374e-09)
(-4.12812e-09 -2.42856e-09 1.28624e-09)
(-4.5334e-09 -2.71279e-09 1.5734e-09)
(-4.98605e-09 -2.9813e-09 1.93859e-09)
(-5.52619e-09 -3.21692e-09 2.41991e-09)
(-6.21927e-09 -3.40236e-09 3.0747e-09)
(-7.1451e-09 -3.5305e-09 3.95959e-09)
(-8.20923e-09 -3.60709e-09 4.941e-09)
(-3.38603e-10 -1.44599e-10 5.67672e-11)
(-9.78443e-10 -4.21673e-10 1.66845e-10)
(-1.55329e-09 -6.81522e-10 2.73909e-10)
(-2.07799e-09 -9.35256e-10 3.84763e-10)
(-2.56534e-09 -1.19156e-09 5.05538e-10)
(-3.02661e-09 -1.45659e-09 6.42218e-10)
(-3.47236e-09 -1.73421e-09 8.01153e-10)
(-3.91332e-09 -2.02559e-09 9.89832e-10)
(-4.36177e-09 -2.3288e-09 1.21803e-09)
(-4.83375e-09 -2.6381e-09 1.49982e-09)
(-5.35289e-09 -2.94325e-09 1.85715e-09)
(-5.95723e-09 -3.22872e-09 2.32613e-09)
(-6.71098e-09 -3.47435e-09 2.96704e-09)
(-7.72003e-09 -3.65905e-09 3.87563e-09)
(-9.11582e-09 -3.77207e-09 5.16006e-09)
(-1.07416e-08 -3.82148e-09 6.64137e-09)
(-3.78723e-10 -1.51016e-10 6.26185e-11)
(-1.09452e-09 -4.40483e-10 1.84031e-10)
(-1.73773e-09 -7.11977e-10 3.02069e-10)
(-2.32506e-09 -9.77171e-10 4.24205e-10)
(-2.87098e-09 -1.24495e-09 5.57246e-10)
(-3.38848e-09 -1.52172e-09 7.07868e-10)
(-3.88989e-09 -1.81119e-09 8.83291e-10)
(-4.38808e-09 -2.11421e-09 1.0921e-09)
(-4.89793e-09 -2.42812e-09 1.34553e-09)
(-5.43875e-09 -2.74595e-09 1.65959e-09)
(-6.03828e-09 -3.0552e-09 2.05872e-09)
(-6.74006e-09 -3.33689e-09 2.58222e-09)
(-7.6173e-09 -3.56525e-09 3.29572e-09)
(-8.7992e-09 -3.7114e-09 4.31072e-09)
(-1.04931e-08 -3.75956e-09 5.79534e-09)
(-1.26999e-08 -3.73889e-09 7.716e-09)
(-2.85454e-11 -1.58284e-11 4.66189e-12)
(-8.23526e-11 -4.61997e-11 1.36614e-11)
(-1.30325e-10 -7.48286e-11 2.22951e-11)
(-1.73408e-10 -1.0304e-10 3.1001e-11)
(-2.1222e-10 -1.31881e-10 4.00775e-11)
(-2.46993e-10 -1.62145e-10 4.96476e-11)
(-2.77454e-10 -1.94356e-10 5.95808e-11)
(-3.02673e-10 -2.28692e-10 6.93499e-11)
(-3.20854e-10 -2.64894e-10 7.77848e-11)
(-3.29095e-10 -3.02078e-10 8.26891e-11)
(-3.23245e-10 -3.38545e-10 8.02805e-11)
(-2.97965e-10 -3.71613e-10 6.4473e-11)
(-2.47077e-10 -3.97519e-10 2.62489e-11)
(-1.6378e-10 -4.11439e-10 -4.59039e-11)
(-4.11309e-11 -4.07474e-10 -1.60383e-10)
(1.0738e-10 -3.82999e-10 -2.92493e-10)
(-8.51871e-11 -4.6798e-11 1.38849e-11)
(-2.45803e-10 -1.36591e-10 4.07005e-11)
(-3.8911e-10 -2.21261e-10 6.64549e-11)
(-5.17982e-10 -3.04703e-10 9.24798e-11)
(-6.34368e-10 -3.9002e-10 1.19709e-10)
(-7.39102e-10 -4.79574e-10 1.48596e-10)
(-8.31627e-10 -5.74936e-10 1.78916e-10)
(-9.09567e-10 -6.76718e-10 2.09396e-10)
(-9.68165e-10 -7.84309e-10 2.37088e-10)
(-9.99643e-10 -8.95362e-10 2.56409e-10)
(-9.92896e-10 -1.00541e-09 2.57751e-10)
(-9.34078e-10 -1.10745e-09 2.25885e-10)
(-8.09167e-10 -1.19237e-09 1.38965e-10)
(-6.09344e-10 -1.25077e-09 -2.87704e-11)
(-3.40392e-10 -1.27677e-09 -2.90664e-10)
(-6.00524e-11 -1.27395e-09 -5.79781e-10)
(-1.40932e-10 -7.59887e-11 2.28827e-11)
(-4.06722e-10 -2.21807e-10 6.70949e-11)
(-6.4409e-10 -3.59285e-10 1.09629e-10)
(-8.58017e-10 -4.94775e-10 1.52759e-10)
(-1.05204e-09 -6.33332e-10 1.98164e-10)
(-1.22804e-09 -7.78834e-10 2.46851e-10)
(-1.38588e-09 -9.33896e-10 2.98934e-10)
(-1.52284e-09 -1.09978e-09 3.53177e-10)
(-1.63286e-09 -1.27579e-09 4.06286e-10)
(-1.70565e-09 -1.45894e-09 4.51765e-10)
(-1.72628e-09 -1.64306e-09 4.78467e-10)
(-1.67635e-09 -1.81877e-09 4.69057e-10)
(-1.53934e-09 -1.97448e-09 3.99871e-10)
(-1.31361e-09 -2.10065e-09 2.45983e-10)
(-1.03383e-09 -2.19732e-09 1.05867e-12)
(-7.94201e-10 -2.27111e-09 -2.61567e-10)
(-1.95144e-10 -1.02329e-10 3.14997e-11)
(-5.63303e-10 -2.98682e-10 9.2399e-11)
(-8.925e-10 -4.83794e-10 1.51106e-10)
(-1.19002e-09 -6.66229e-10 2.10886e-10)
(-1.46136e-09 -8.52827e-10 2.74296e-10)
(-1.71e-09 -1.04884e-09 3.43171e-10)
(-1.93718e-09 -1.25801e-09 4.18478e-10)
(-2.14135e-09 -1.48222e-09 4.99996e-10)
(-2.31744e-09 -1.72127e-09 5.85767e-10)
(-2.45586e-09 -1.972e-09 6.71353e-10)
(-2.54185e-09 -2.22795e-09 7.48898e-10)
(-2.55607e-09 -2.47876e-09 8.0646e-10)
(-2.47894e-09 -2.71154e-09 8.28439e-10)
(-2.30303e-09 -2.91466e-09 7.9922e-10)
(-2.05525e-09 -3.08357e-09 7.12645e-10)
(-1.82191e-09 -3.20923e-09 5.9433e-10)
(-2.47133e-10 -1.24847e-10 3.95771e-11)
(-7.1357e-10 -3.64406e-10 1.16143e-10)
(-1.13121e-09 -5.90254e-10 1.90099e-10)
(-1.50981e-09 -8.12824e-10 2.65723e-10)
(-1.8571e-09 -1.04049e-09 3.46534e-10)
(-2.17873e-09 -1.2797e-09 4.3541e-10)
(-2.47824e-09 -1.53514e-09 5.3459e-10)
(-2.75672e-09 -1.80943e-09 6.45637e-10)
(-3.01242e-09 -2.10288e-09 7.693e-10)
(-3.24e-09 -2.4128e-09 9.05483e-10)
(-3.42973e-09 -2.73292e-09 1.0534e-09)
(-3.56665e-09 -3.05316e-09 1.21209e-09)
(-3.62999e-09 -3.36014e-09 1.381e-09)
(-3.59341e-09 -3.6397e-09 1.5579e-09)
(-3.429e-09 -3.87892e-09 1.72515e-09)
(-3.15467e-09 -4.04936e-09 1.81513e-09)
(-2.96154e-10 -1.42718e-10 4.69562e-11)
(-8.55356e-10 -4.16617e-10 1.37842e-10)
(-1.35668e-09 -6.74809e-10 2.25773e-10)
(-1.81241e-09 -9.29254e-10 3.15984e-10)
(-2.23264e-09 -1.18948e-09 4.12965e-10)
(-2.62552e-09 -1.46289e-09 5.20689e-10)
(-2.99742e-09 -1.75482e-09 6.42847e-10)
(-3.35311e-09 -2.06847e-09 7.83077e-10)
(-3.69585e-09 -2.40444e-09 9.45394e-10)
(-4.0274e-09 -2.76032e-09 1.13495e-09)
(-4.34795e-09 -3.13012e-09 1.35948e-09)
(-4.65528e-09 -3.50397e-09 1.63155e-09)
(-4.94095e-09 -3.86875e-09 1.96994e-09)
(-5.17614e-09 -4.20957e-09 2.39248e-09)
(-5.27564e-09 -4.50962e-09 2.87385e-09)
(-5.10303e-09 -4.72801e-09 3.23175e-09)
(-3.41451e-10 -1.55315e-10 5.34875e-11)
(-9.86424e-10 -4.53414e-10 1.5705e-10)
(-1.56522e-09 -7.34436e-10 2.57331e-10)
(-2.09248e-09 -1.01136e-09 3.60407e-10)
(-2.58059e-09 -1.29448e-09 4.71627e-10)
(-3.04013e-09 -1.59181e-09 5.95941e-10)
(-3.48035e-09 -1.90901e-09 7.38333e-10)
(-3.90981e-09 -2.24936e-09 9.04295e-10)
(-4.33706e-09 -2.61334e-09 1.10064e-09)
(-4.77164e-09 -2.99807e-09 1.33694e-09)
(-5.2256e-09 -3.39666e-09 1.62801e-09)
(-5.71525e-09 -3.79793e-09 1.9978e-09)
(-6.26136e-09 -4.18686e-09 2.48344e-09)
(-6.87801e-09 -4.54662e-09 3.12953e-09)
(-7.51406e-09 -4.85835e-09 3.93052e-09)
(-7.90387e-09 -5.0769e-09 4.61935e-09)
(-3.823e-10 -1.62175e-10 5.90542e-11)
(-1.10464e-09 -4.73486e-10 1.73406e-10)
(-1.75328e-09 -7.67032e-10 2.84123e-10)
(-2.34485e-09 -1.05627e-09 3.97949e-10)
(-2.89371e-09 -1.35196e-09 5.20857e-10)
(-3.41241e-09 -1.66217e-09 6.5853e-10)
(-3.91255e-09 -1.99258e-09 8.16813e-10)
(-4.40556e-09 -2.34612e-09 1.00236e-09)
(-4.90386e-09 -2.72251e-09 1.22355e-09)
(-5.42237e-09 -3.1174e-09 1.4921e-09)
(-5.98089e-09 -3.5214e-09 1.82564e-09)
(-6.60758e-09 -3.91889e-09 2.25191e-09)
(-7.34406e-09 -4.28781e-09 2.81396e-09)
(-8.2477e-09 -4.60221e-09 3.57097e-09)
(-9.36091e-09 -4.84187e-09 4.5613e-09)
(-1.04943e-08 -4.99878e-09 5.58308e-09)
(-2.85914e-11 -1.68933e-11 4.19653e-12)
(-8.24305e-11 -4.93557e-11 1.22802e-11)
(-1.30265e-10 -8.0113e-11 1.99803e-11)
(-1.7292e-10 -1.10668e-10 2.76468e-11)
(-2.10849e-10 -1.42248e-10 3.54806e-11)
(-2.44021e-10 -1.75822e-10 4.3484e-11)
(-2.71756e-10 -2.12078e-10 5.1366e-11)
(-2.92487e-10 -2.51358e-10 5.83708e-11)
(-3.03425e-10 -2.935e-10 6.3006e-11)
(-3.00171e-10 -3.37604e-10 6.26196e-11)
(-2.7637e-10 -3.81706e-10 5.28082e-11)
(-2.23586e-10 -4.22339e-10 2.67006e-11)
(-1.31582e-10 -4.54017e-10 -2.55932e-11)
(1.08287e-11 -4.68423e-10 -1.16164e-10)
(2.1151e-10 -4.53628e-10 -2.5227e-10)
(4.36933e-10 -4.04039e-10 -4.01991e-10)
(-8.53524e-11 -4.99404e-11 1.25026e-11)
(-2.46125e-10 -1.45929e-10 3.6595e-11)
(-3.89093e-10 -2.36881e-10 5.9576e-11)
(-5.168e-10 -3.27257e-10 8.25121e-11)
(-6.30718e-10 -4.20689e-10 1.06048e-10)
(-7.30939e-10 -5.20048e-10 1.30277e-10)
(-8.15743e-10 -6.27428e-10 1.5449e-10)
(-8.80923e-10 -7.43954e-10 1.76722e-10)
(-9.18841e-10 -8.69358e-10 1.93035e-10)
(-9.17327e-10 -1.00142e-09 1.96404e-10)
(-8.58656e-10 -1.13504e-09 1.75225e-10)
(-7.19481e-10 -1.26136e-09 1.11581e-10)
(-4.73121e-10 -1.36704e-09 -1.96368e-11)
(-9.71813e-11 -1.4345e-09 -2.47177e-10)
(4.0357e-10 -1.44499e-09 -5.82839e-10)
(9.03537e-10 -1.39778e-09 -9.36831e-10)
(-1.41295e-10 -8.10972e-11 2.06136e-11)
(-4.07524e-10 -2.36948e-10 6.03607e-11)
(-6.44569e-10 -3.84628e-10 9.83464e-11)
(-8.56911e-10 -5.31382e-10 1.36412e-10)
(-1.04738e-09 -6.83131e-10 1.75762e-10)
(-1.21674e-09 -8.44599e-10 2.16811e-10)
(-1.36311e-09 -1.01936e-09 2.58852e-10)
(-1.48096e-09 -1.20948e-09 2.99494e-10)
(-1.55979e-09 -1.41518e-09 3.33698e-10)
(-1.58229e-09 -1.63381e-09 3.52419e-10)
(-1.52267e-09 -1.85897e-09 3.40733e-10)
(-1.34618e-09 -2.0792e-09 2.75944e-10)
(-1.01336e-09 -2.27789e-09 1.27141e-10)
(-4.96458e-10 -2.43558e-09 -1.38795e-10)
(1.74274e-10 -2.53746e-09 -5.29722e-10)
(7.84263e-10 -2.58429e-09 -9.30208e-10)
(-1.95805e-10 -1.09189e-10 2.83956e-11)
(-5.64921e-10 -3.19032e-10 8.31864e-11)
(-8.9411e-10 -5.17863e-10 1.35675e-10)
(-1.19008e-09 -7.1546e-10 1.88539e-10)
(-1.45748e-09 -9.19827e-10 2.43685e-10)
(-1.6985e-09 -1.13745e-09 3.02127e-10)
(-1.91225e-09 -1.37331e-09 3.63705e-10)
(-2.09383e-09 -1.63073e-09 4.26538e-10)
(-2.23261e-09 -1.91083e-09 4.86162e-10)
(-2.3101e-09 -2.21176e-09 5.34268e-10)
(-2.29702e-09 -2.52746e-09 5.57072e-10)
(-2.15086e-09 -2.84655e-09 5.33591e-10)
(-1.817e-09 -3.15153e-09 4.35122e-10)
(-1.2437e-09 -3.4199e-09 2.29862e-10)
(-4.40144e-10 -3.62776e-09 -9.4211e-11)
(3.39443e-10 -3.74971e-09 -4.41985e-10)
(-2.48213e-10 -1.33192e-10 3.57062e-11)
(-7.16384e-10 -3.89188e-10 1.04654e-10)
(-1.13467e-09 -6.31726e-10 1.70869e-10)
(-1.51226e-09 -8.72765e-10 2.37895e-10)
(-1.85603e-09 -1.12209e-09 3.08452e-10)
(-2.17035e-09 -1.38774e-09 3.84389e-10)
(-2.45654e-09 -1.67596e-09 4.66545e-10)
(-2.71224e-09 -1.99135e-09 5.54353e-10)
(-2.92981e-09 -2.33623e-09 6.45302e-10)
(-3.09416e-09 -2.71013e-09 7.34097e-10)
(-3.17898e-09 -3.10878e-09 8.11581e-10)
(-3.14113e-09 -3.52284e-09 8.63351e-10)
(-2.91367e-09 -3.93638e-09 8.68018e-10)
(-2.40505e-09 -4.32455e-09 7.95945e-10)
(-1.5451e-09 -4.64876e-09 6.17012e-10)
(-5.49278e-10 -4.84543e-09 3.68467e-10)
(-2.97768e-10 -1.5224e-10 4.24001e-11)
(-8.59719e-10 -4.44849e-10 1.24331e-10)
(-1.36267e-09 -7.22083e-10 2.03174e-10)
(-1.81841e-09 -9.97571e-10 2.83328e-10)
(-2.23632e-09 -1.28254e-09 3.68346e-10)
(-2.62337e-09 -1.58612e-09 4.61032e-10)
(-2.98403e-09 -1.91569e-09 5.63427e-10)
(-3.31989e-09 -2.27668e-09 6.76713e-10)
(-3.62886e-09 -2.6725e-09 8.01007e-10)
(-3.9035e-09 -3.10392e-09 9.35135e-10)
(-4.12782e-09 -3.56856e-09 1.07628e-09)
(-4.2707e-09 -4.06e-09 1.21914e-09)
(-4.27295e-09 -4.56629e-09 1.353e-09)
(-4.02679e-09 -5.06579e-09 1.45315e-09)
(-3.37832e-09 -5.51405e-09 1.46678e-09)
(-2.3819e-09 -5.81176e-09 1.3487e-09)
(-3.43681e-10 -1.65634e-10 4.83448e-11)
(-9.92618e-10 -4.84029e-10 1.41805e-10)
(-1.57427e-09 -7.8569e-10 2.31866e-10)
(-2.10294e-09 -1.08542e-09 3.23682e-10)
(-2.59052e-09 -1.39539e-09 4.21571e-10)
(-3.04667e-09 -1.72544e-09 5.29233e-10)
(-3.47919e-09 -2.08347e-09 6.49866e-10)
(-3.89418e-09 -2.47535e-09 7.86303e-10)
(-4.29597e-09 -2.90473e-09 9.4115e-10)
(-4.68677e-09 -3.37264e-09 1.11704e-09)
(-5.0654e-09 -3.87704e-09 1.31694e-09)
(-5.42377e-09 -4.41239e-09 1.54416e-09)
(-5.73819e-09 -4.96934e-09 1.79958e-09)
(-5.94949e-09 -5.53217e-09 2.06992e-09)
(-5.93462e-09 -6.06398e-09 2.29586e-09)
(-5.58766e-09 -6.44789e-09 2.35316e-09)
(-3.85195e-10 -1.72897e-10 5.34302e-11)
(-1.11284e-09 -5.05335e-10 1.56741e-10)
(-1.76571e-09 -8.20316e-10 2.56337e-10)
(-2.36035e-09 -1.1333e-09 3.5797e-10)
(-2.91078e-09 -1.4568e-09 4.66579e-10)
(-3.42907e-09 -1.80096e-09 5.86527e-10)
(-3.92586e-09 -2.17366e-09 7.2188e-10)
(-4.41099e-09 -2.5805e-09 8.76633e-10)
(-4.89412e-09 -3.02442e-09 1.05503e-09)
(-5.38526e-09 -3.5051e-09 1.26197e-09)
(-5.89518e-09 -4.01802e-09 1.50362e-09)
(-6.43536e-09 -4.55368e-09 1.78758e-09)
(-7.01652e-09 -5.09691e-09 2.12104e-09)
(-7.6449e-09 -5.62807e-09 2.50189e-09)
(-8.31383e-09 -6.12588e-09 2.89277e-09)
(-8.95835e-09 -6.5374e-09 3.17747e-09)
(-2.85988e-11 -1.7874e-11 3.59834e-12)
(-8.23982e-11 -5.22712e-11 1.0514e-11)
(-1.30034e-10 -8.50002e-11 1.70538e-11)
(-1.72215e-10 -1.1775e-10 2.34764e-11)
(-2.09233e-10 -1.51918e-10 2.98912e-11)
(-2.40812e-10 -1.88642e-10 3.61988e-11)
(-2.65904e-10 -2.28788e-10 4.19823e-11)
(-2.82378e-10 -2.72847e-10 4.6327e-11)
(-2.86626e-10 -3.20761e-10 4.75328e-11)
(-2.73096e-10 -3.71578e-10 4.26972e-11)
(-2.33957e-10 -4.22981e-10 2.71666e-11)
(-1.59219e-10 -4.7062e-10 -6.03383e-12)
(-3.78652e-11 -5.07269e-10 -6.63618e-11)
(1.39168e-10 -5.21894e-10 -1.64145e-10)
(3.70785e-10 -4.9977e-10 -3.02517e-10)
(6.06704e-10 -4.37539e-10 -4.45396e-10)
(-8.54005e-11 -5.28414e-11 1.07226e-11)
(-2.46105e-10 -1.54531e-10 3.13416e-11)
(-3.88555e-10 -2.51322e-10 5.08677e-11)
(-5.14954e-10 -3.48193e-10 7.00977e-11)
(-6.2631e-10 -4.49282e-10 8.94012e-11)
(-7.22031e-10 -5.57991e-10 1.08561e-10)
(-7.99337e-10 -6.76942e-10 1.26479e-10)
(-8.52403e-10 -8.0774e-10 1.40687e-10)
(-8.71216e-10 -9.50509e-10 1.46561e-10)
(-8.40177e-10 -1.10297e-09 1.36207e-10)
(-7.37076e-10 -1.25921e-09 9.70057e-11)
(-5.33517e-10 -1.40803e-09 1.02593e-11)
(-1.99595e-10 -1.5313e-09 -1.48687e-10)
(2.82017e-10 -1.60387e-09 -4.04547e-10)
(8.80327e-10 -1.59923e-09 -7.57843e-10)
(1.41662e-09 -1.52228e-09 -1.10369e-09)
(-1.41453e-10 -8.57925e-11 1.76885e-11)
(-4.07754e-10 -2.50908e-10 5.17225e-11)
(-6.44162e-10 -4.08057e-10 8.40258e-11)
(-8.54664e-10 -5.65356e-10 1.15989e-10)
(-1.0414e-09 -7.29564e-10 1.48356e-10)
(-1.20411e-09 -9.06298e-10 1.81007e-10)
(-1.33929e-09 -1.09999e-09 2.12568e-10)
(-1.439e-09 -1.31371e-09 2.39711e-10)
(-1.48898e-09 -1.54838e-09 2.56112e-10)
(-1.46653e-09 -1.80177e-09 2.50901e-10)
(-1.33824e-09 -2.06663e-09 2.06783e-10)
(-1.06005e-09 -2.32857e-09 9.84166e-11)
(-5.84546e-10 -2.5642e-09 -1.06622e-10)
(1.12417e-10 -2.74245e-09 -4.3793e-10)
(9.61978e-10 -2.8353e-09 -8.86893e-10)
(1.65646e-09 -2.84793e-09 -1.30562e-09)
(-1.96184e-10 -1.15505e-10 2.43816e-11)
(-5.65731e-10 -3.37802e-10 7.13331e-11)
(-8.9446e-10 -5.49364e-10 1.16023e-10)
(-1.1885e-09 -7.61149e-10 1.60502e-10)
(-1.45169e-09 -9.8233e-10 2.06031e-10)
(-1.68499e-09 -1.22059e-09 2.52868e-10)
(-1.88563e-09 -1.48226e-09 2.99858e-10)
(-2.04571e-09 -1.77206e-09 3.43715e-10)
(-2.15009e-09 -2.09258e-09 3.77902e-10)
(-2.17329e-09 -2.44303e-09 3.9103e-10)
(-2.07584e-09 -2.81747e-09 3.64847e-10)
(-1.80134e-09 -3.20206e-09 2.7254e-10)
(-1.28023e-09 -3.57205e-09 7.96793e-11)
(-4.57039e-10 -3.88996e-09 -2.45228e-10)
(6.17381e-10 -4.11061e-09 -6.9293e-10)
(1.55672e-09 -4.20316e-09 -1.10952e-09)
(-2.48928e-10 -1.40883e-10 3.06826e-11)
(-7.18144e-10 -4.12021e-10 8.9822e-11)
(-1.13649e-09 -6.70067e-10 1.46275e-10)
(-1.51256e-09 -9.28397e-10 2.02805e-10)
(-1.85244e-09 -1.19827e-09 2.61304e-10)
(-2.1592e-09 -1.48917e-09 3.22656e-10)
(-2.43233e-09 -1.80921e-09 3.86371e-10)
(-2.66635e-09 -2.16484e-09 4.49996e-10)
(-2.84894e-09 -2.5607e-09 5.08095e-10)
(-2.95754e-09 -2.99854e-09 5.50833e-10)
(-2.9543e-09 -3.47578e-09 5.62059e-10)
(-2.77911e-09 -3.98277e-09 5.17296e-10)
(-2.34365e-09 -4.49816e-09 3.83224e-10)
(-1.54212e-09 -4.98135e-09 1.24449e-10)
(-3.38149e-10 -5.36361e-09 -2.64058e-10)
(8.96806e-10 -5.55502e-09 -6.51432e-10)
(-2.98928e-10 -1.60995e-10 3.64684e-11)
(-8.62795e-10 -4.70881e-10 1.06814e-10)
(-1.36664e-09 -7.65776e-10 1.74141e-10)
(-1.82174e-09 -1.061e-09 2.41914e-10)
(-2.2368e-09 -1.3694e-09 3.12719e-10)
(-2.61768e-09 -1.70196e-09 3.88192e-10)
(-2.96717e-09 -2.06805e-09 4.68797e-10)
(-3.28424e-09 -2.4757e-09 5.53367e-10)
(-3.56259e-09 -2.93126e-09 6.38372e-10)
(-3.78813e-09 -3.43907e-09 7.16758e-10)
(-3.93425e-09 -4.00057e-09 7.76283e-10)
(-3.95343e-09 -4.61242e-09 7.97169e-10)
(-3.76409e-09 -5.26231e-09 7.494e-10)
(-3.23911e-09 -5.91812e-09 5.92959e-10)
(-2.24706e-09 -6.50311e-09 2.98186e-10)
(-9.89463e-10 -6.86196e-09 -5.02623e-11)
(-3.45383e-10 -1.75129e-10 4.16204e-11)
(-9.97298e-10 -5.12251e-10 1.21956e-10)
(-1.58094e-09 -8.33064e-10 1.98984e-10)
(-2.11025e-09 -1.1542e-09 2.7682e-10)
(-2.59659e-09 -1.48958e-09 3.58712e-10)
(-3.04886e-09 -1.85107e-09 4.4704e-10)
(-3.4736e-09 -2.24888e-09 5.43248e-10)
(-3.87497e-09 -2.69172e-09 6.47553e-10)
(-4.25428e-09 -3.18683e-09 7.58445e-10)
(-4.609e-09 -3.73978e-09 8.71864e-10)
(-4.93039e-09 -4.35416e-09 9.79836e-10)
(-5.19899e-09 -5.03109e-09 1.06813e-09)
(-5.37629e-09 -5.76758e-09 1.1123e-09)
(-5.39383e-09 -6.54965e-09 1.07289e-09)
(-5.15755e-09 -7.32275e-09 9.01823e-10)
(-4.67801e-09 -7.89474e-09 6.25382e-10)
(-3.87497e-10 -1.82776e-10 4.6042e-11)
(-1.11929e-09 -5.34664e-10 1.34948e-10)
(-1.77542e-09 -8.69578e-10 2.20269e-10)
(-2.37219e-09 -1.20477e-09 3.06661e-10)
(-2.9234e-09 -1.55469e-09 3.97898e-10)
(-3.44061e-09 -1.93147e-09 4.96996e-10)
(-3.93378e-09 -2.34542e-09 6.0619e-10)
(-4.41166e-09 -2.80511e-09 7.26803e-10)
(-4.88227e-09 -3.31724e-09 8.58918e-10)
(-5.35315e-09 -3.88629e-09 1.00076e-09)
(-5.83155e-09 -4.51406e-09 1.14757e-09)
(-6.32429e-09 -5.19896e-09 1.28955e-09)
(-6.83897e-09 -5.93575e-09 1.40811e-09)
(-7.39174e-09 -6.71621e-09 1.47124e-09)
(-8.03172e-09 -7.52728e-09 1.43784e-09)
(-8.8122e-09 -8.27521e-09 1.31841e-09)
(-2.85826e-11 -1.87253e-11 2.89632e-12)
(-8.23029e-11 -5.47992e-11 8.45131e-12)
(-1.29726e-10 -8.92537e-11 1.3667e-11)
(-1.71454e-10 -1.23933e-10 1.872e-11)
(-2.0764e-10 -1.60391e-10 2.36486e-11)
(-2.37814e-10 -1.99928e-10 2.82912e-11)
(-2.60636e-10 -2.43563e-10 3.21798e-11)
(-2.73578e-10 -2.91937e-10 3.43651e-11)
(-2.72505e-10 -3.4507e-10 3.31527e-11)
(-2.51269e-10 -4.01958e-10 2.57358e-11)
(-2.01584e-10 -4.59957e-10 7.76172e-12)
(-1.13687e-10 -5.13952e-10 -2.70014e-11)
(2.13693e-11 -5.55471e-10 -8.64164e-11)
(2.06941e-10 -5.72174e-10 -1.77886e-10)
(4.31903e-10 -5.49606e-10 -3.00841e-10)
(6.41919e-10 -4.88447e-10 -4.2145e-10)
(-8.53733e-11 -5.53515e-11 8.63304e-12)
(-2.45896e-10 -1.62008e-10 2.51983e-11)
(-3.87768e-10 -2.63892e-10 4.07782e-11)
(-5.12906e-10 -3.66469e-10 5.59195e-11)
(-6.21927e-10 -4.74347e-10 7.07742e-11)
(-7.13671e-10 -5.91399e-10 8.49292e-11)
(-7.84539e-10 -7.20732e-10 9.71118e-11)
(-8.27572e-10 -8.64431e-10 1.04704e-10)
(-8.31215e-10 -1.02291e-09 1.03016e-10)
(-7.78114e-10 -1.19387e-09 8.42739e-11)
(-6.44527e-10 -1.37054e-09 3.64667e-11)
(-4.02298e-10 -1.5396e-09 -5.74065e-11)
(-2.66714e-11 -1.67909e-09 -2.18085e-10)
(4.84449e-10 -1.75904e-09 -4.62795e-10)
(1.07253e-09 -1.75097e-09 -7.82244e-10)
(1.5469e-09 -1.66776e-09 -1.07637e-09)
(-1.41485e-10 -8.98714e-11 1.42468e-11)
(-4.07636e-10 -2.63032e-10 4.16049e-11)
(-6.43289e-10 -4.2845e-10 6.73999e-11)
(-8.51996e-10 -5.95021e-10 9.26035e-11)
(-1.03532e-09 -7.7028e-10 1.17583e-10)
(-1.19213e-09 -9.60624e-10 1.41865e-10)
(-1.31775e-09 -1.17138e-09 1.63712e-10)
(-1.40246e-09 -1.40642e-09 1.79437e-10)
(-1.42971e-09 -1.66746e-09 1.82348e-10)
(-1.3739e-09 -1.95244e-09 1.61332e-10)
(-1.19889e-09 -2.25332e-09 9.92625e-11)
(-8.59885e-10 -2.55272e-09 -2.78089e-11)
(-3.15169e-10 -2.8211e-09 -2.48052e-10)
(4.39336e-10 -3.01801e-09 -5.81538e-10)
(1.29529e-09 -3.10717e-09 -1.00521e-09)
(1.92173e-09 -3.10051e-09 -1.37196e-09)
(-1.96365e-10 -1.20984e-10 1.96499e-11)
(-5.66004e-10 -3.54095e-10 5.74185e-11)
(-8.94069e-10 -5.76781e-10 9.3143e-11)
(-1.18618e-09 -8.01058e-10 1.28284e-10)
(-1.44548e-09 -1.03715e-09 1.63556e-10)
(-1.67194e-09 -1.29387e-09 1.98671e-10)
(-1.86138e-09 -1.57879e-09 2.31871e-10)
(-2.00386e-09 -1.89801e-09 2.59156e-10)
(-2.08142e-09 -2.25543e-09 2.73098e-10)
(-2.06506e-09 -2.65127e-09 2.61218e-10)
(-1.91146e-09 -3.07945e-09 2.04177e-10)
(-1.56196e-09 -3.52354e-09 7.48288e-11)
(-9.50968e-10 -3.95155e-09 -1.58683e-10)
(-4.25597e-11 -4.31241e-09 -5.1826e-10)
(1.06827e-09 -4.54402e-09 -9.74887e-10)
(1.95788e-09 -4.61498e-09 -1.36206e-09)
(-2.49368e-10 -1.47547e-10 2.47466e-11)
(-7.19157e-10 -4.31861e-10 7.23589e-11)
(-1.13723e-09 -7.03446e-10 1.17548e-10)
(-1.51167e-09 -9.77006e-10 1.62312e-10)
(-1.84788e-09 -1.26508e-09 2.0783e-10)
(-2.14799e-09 -1.57866e-09 2.54223e-10)
(-2.41002e-09 -1.9274e-09 3.00131e-10)
(-2.62655e-09 -2.31976e-09 3.41942e-10)
(-2.78251e-09 -2.76245e-09 3.72643e-10)
(-2.85184e-09 -3.25939e-09 3.80153e-10)
(-2.79276e-09 -3.80952e-09 3.45355e-10)
(-2.54228e-09 -4.40257e-09 2.40648e-10)
(-2.0143e-09 -5.01164e-09 3.19495e-11)
(-1.11923e-09 -5.58131e-09 -3.0808e-10)
(1.39062e-10 -6.01684e-09 -7.58349e-10)
(1.34784e-09 -6.20869e-09 -1.15357e-09)
(-2.99735e-10 -1.68596e-10 2.94363e-11)
(-8.64873e-10 -4.93485e-10 8.61276e-11)
(-1.36913e-09 -8.03827e-10 1.40097e-10)
(-1.82335e-09 -1.11642e-09 1.93899e-10)
(-2.23564e-09 -1.44566e-09 2.49239e-10)
(-2.61105e-09 -1.80417e-09 3.06802e-10)
(-2.95123e-09 -2.2034e-09 3.6589e-10)
(-3.25352e-09 -2.65372e-09 4.23777e-10)
(-3.50959e-09 -3.16453e-09 4.74643e-10)
(-3.70285e-09 -3.74364e-09 5.0802e-10)
(-3.8043e-09 -4.39626e-09 5.06713e-10)
(-3.76557e-09 -5.12211e-09 4.44641e-10)
(-3.50955e-09 -5.90862e-09 2.86652e-10)
(-2.92589e-09 -6.71429e-09 -2.88085e-12)
(-1.91716e-09 -7.43395e-09 -4.23181e-10)
(-7.0506e-10 -7.86164e-09 -8.29324e-10)
(-3.46638e-10 -1.83365e-10 3.36248e-11)
(-1.00071e-09 -5.36754e-10 9.84328e-11)
(-1.58569e-09 -8.74317e-10 1.60274e-10)
(-2.1152e-09 -1.21429e-09 2.22227e-10)
(-2.60021e-09 -1.57229e-09 2.86513e-10)
(-3.04902e-09 -1.96202e-09 3.54423e-10)
(-3.46745e-09 -2.39593e-09 4.2602e-10)
(-3.85874e-09 -2.88558e-09 4.99639e-10)
(-4.22322e-09 -3.44181e-09 5.70983e-10)
(-4.55766e-09 -4.0748e-09 6.31736e-10)
(-4.85393e-09 -4.79404e-09 6.67535e-10)
(-5.0967e-09 -5.60764e-09 6.55404e-10)
(-5.2601e-09 -6.51995e-09 5.61768e-10)
(-5.30453e-09 -7.52069e-09 3.46176e-10)
(-5.17946e-09 -8.54147e-09 -1.11091e-11)
(-4.88142e-09 -9.3161e-09 -4.03901e-10)
(-3.8925e-10 -1.9133e-10 3.72322e-11)
(-1.12423e-09 -5.60146e-10 1.09027e-10)
(-1.78277e-09 -9.12453e-10 1.77636e-10)
(-2.38106e-09 -1.26724e-09 2.46568e-10)
(-2.93265e-09 -1.64064e-09 3.18507e-10)
(-3.44889e-09 -2.04675e-09 3.95259e-10)
(-3.93944e-09 -2.49821e-09 4.77583e-10)
(-4.41286e-09 -3.00656e-09 5.64781e-10)
(-4.87738e-09 -3.58235e-09 6.53976e-10)
(-5.34177e-09 -4.23515e-09 7.38912e-10)
(-5.81695e-09 -4.97346e-09 8.08157e-10)
(-6.31917e-09 -5.8046e-09 8.42681e-10)
(-6.87772e-09 -6.7349e-09 8.13719e-10)
(-7.55432e-09 -7.77075e-09 6.85216e-10)
(-8.47266e-09 -8.91178e-09 4.36398e-10)
(-9.69386e-09 -1.00217e-08 1.49934e-10)
(-2.85574e-11 -1.94051e-11 2.11849e-12)
(-8.21935e-11 -5.68251e-11 6.17405e-12)
(-1.29424e-10 -9.26625e-11 9.95878e-12)
(-1.70773e-10 -1.28898e-10 1.35811e-11)
(-2.0629e-10 -1.67216e-10 1.70371e-11)
(-2.35361e-10 -2.09045e-10 2.01564e-11)
(-2.56461e-10 -2.5554e-10 2.25114e-11)
(-2.66831e-10 -3.07461e-10 2.32734e-11)
(-2.62102e-10 -3.64902e-10 2.10009e-11)
(-2.36019e-10 -4.26817e-10 1.33616e-11)
(-1.80592e-10 -4.90316e-10 -3.15808e-12)
(-8.73467e-11 -5.49763e-10 -3.33842e-11)
(4.9509e-11 -5.95991e-10 -8.30029e-11)
(2.27573e-10 -6.16428e-10 -1.56598e-10)
(4.29077e-10 -5.98312e-10 -2.51881e-10)
(6.04238e-10 -5.45694e-10 -3.42194e-10)
(-8.53184e-11 -5.73631e-11 6.31545e-12)
(-2.45624e-10 -1.67987e-10 1.84128e-11)
(-3.86975e-10 -2.73964e-10 2.97219e-11)
(-5.11056e-10 -3.81148e-10 4.05835e-11)
(-6.18191e-10 -4.94531e-10 5.10152e-11)
(-7.06819e-10 -6.18388e-10 6.05615e-11)
(-7.7282e-10 -7.56242e-10 6.80402e-11)
(-8.08562e-10 -9.10552e-10 7.11394e-11)
(-8.01844e-10 -1.08202e-09 6.58233e-11)
(-7.3494e-10 -1.26829e-09 4.55622e-11)
(-5.84885e-10 -1.46198e-09 5.51573e-13)
(-3.26936e-10 -1.6482e-09 -8.251e-11)
(5.51525e-11 -1.80254e-09 -2.18684e-10)
(5.47962e-10 -1.89279e-09 -4.18094e-10)
(1.07553e-09 -1.89151e-09 -6.68034e-10)
(1.46107e-09 -1.81726e-09 -8.88805e-10)
(-1.4145e-10 -9.31285e-11 1.04265e-11)
(-4.07371e-10 -2.72729e-10 3.04137e-11)
(-6.42323e-10 -4.44789e-10 4.91506e-11)
(-8.49516e-10 -6.18845e-10 6.72533e-11)
(-1.03007e-09 -8.03068e-10 8.4842e-11)
(-1.1823e-09 -1.00454e-09 1.01325e-10)
(-1.30069e-09 -1.22929e-09 1.15028e-10)
(-1.37461e-09 -1.48194e-09 1.22605e-10)
(-1.38649e-09 -1.76477e-09 1.18168e-10)
(-1.31018e-09 -2.07601e-09 9.21626e-11)
(-1.1105e-09 -2.40687e-09 3.02806e-11)
(-7.47275e-10 -2.73775e-09 -8.66463e-11)
(-1.90433e-10 -3.0346e-09 -2.79399e-10)
(5.4282e-10 -3.25072e-09 -5.5891e-10)
(1.32045e-09 -3.34523e-09 -8.98419e-10)
(1.83101e-09 -3.33404e-09 -1.17826e-09)
(-1.96431e-10 -1.25362e-10 1.43877e-11)
(-5.65996e-10 -3.67133e-10 4.1997e-11)
(-8.93395e-10 -5.9875e-10 6.79711e-11)
(-1.18385e-09 -8.33107e-10 9.32551e-11)
(-1.44001e-09 -1.08131e-09 1.18178e-10)
(-1.66116e-09 -1.35313e-09 1.42205e-10)
(-1.84224e-09 -1.65717e-09 1.63519e-10)
(-1.97222e-09 -2.00071e-09 1.78321e-10)
(-2.03208e-09 -2.38879e-09 1.79816e-10)
(-1.99225e-09 -2.82248e-09 1.56872e-10)
(-1.81058e-09 -3.29562e-09 9.27098e-11)
(-1.43361e-09 -3.78972e-09 -3.52308e-11)
(-8.08478e-10 -4.26722e-09 -2.51275e-10)
(7.78724e-11 -4.66685e-09 -5.67226e-10)
(1.10568e-09 -4.91425e-09 -9.48476e-10)
(1.87302e-09 -4.97677e-09 -1.25422e-09)
(-2.49625e-10 -1.52877e-10 1.81302e-11)
(-7.19686e-10 -4.47727e-10 5.29618e-11)
(-1.13737e-09 -7.30191e-10 8.58535e-11)
(-1.5104e-09 -1.01604e-09 1.18127e-10)
(-1.84365e-09 -1.31895e-09 1.50414e-10)
(-2.13861e-09 -1.65105e-09 1.8243e-10)
(-2.39249e-09 -2.02347e-09 2.12538e-10)
(-2.59694e-09 -2.44627e-09 2.37052e-10)
(-2.73609e-09 -2.92804e-09 2.49164e-10)
(-2.7838e-09 -3.47457e-09 2.37496e-10)
(-2.70023e-09 -4.08614e-09 1.84558e-10)
(-2.42862e-09 -4.75216e-09 6.61685e-11)
(-1.89656e-09 -5.44145e-09 -1.45115e-10)
(-1.03671e-09 -6.08712e-09 -4.65741e-10)
(1.27036e-10 -6.57429e-09 -8.64311e-10)
(1.21214e-09 -6.77635e-09 -1.19215e-09)
(-3.00268e-10 -1.74668e-10 2.15817e-11)
(-8.66213e-10 -5.11567e-10 6.30878e-11)
(-1.37062e-09 -8.34311e-10 1.02421e-10)
(-1.824e-09 -1.16094e-09 1.41295e-10)
(-2.23404e-09 -1.50713e-09 1.80711e-10)
(-2.60531e-09 -1.88694e-09 2.2076e-10)
(-2.93884e-09 -2.3135e-09 2.60234e-10)
(-3.23147e-09 -2.79935e-09 2.95972e-10)
(-3.47472e-09 -3.35645e-09 3.21826e-10)
(-3.65306e-09 -3.99577e-09 3.2719e-10)
(-3.74121e-09 -4.72589e-09 2.95238e-10)
(-3.69983e-09 -5.54947e-09 2.01631e-10)
(-3.46904e-09 -6.45434e-09 1.62441e-11)