/*--------------------------------*- C++ -*----------------------------------*\
| =========                 |                                                 |
| \\      /  F ield         | foam-extend: Open Source CFD                    |
|  \\    /   O peration     | Version:     3.1                                |
|   \\  /    A nd           | Web:         http://www.extend-project.de       |
|    \\/     M anipulation  |                                                 |
\*---------------------------------------------------------------------------*/
FoamFile
{
    version     2.0;
    format      ascii;
    class       surfaceScalarField;
    location    "2.8";
    object      meshPhi;
}
// * * * * * * * * * * * * * * * * * * * * * * * * * * * * * * * * * * * * * //

dimensions      [0 3 -1 0 0 0 0];

internalField   nonuniform List<scalar> 
41600
(
-1.98371e-09
-1.31004e-10
-8.35735e-11
8.57323e-11
-3.82345e-09
-3.91407e-10
-2.49335e-10
2.55796e-10
-5.50603e-09
-6.55061e-10
-4.15794e-10
4.26624e-10
-7.07716e-09
-9.39327e-10
-5.92216e-10
6.07708e-10
-8.57517e-09
-1.26735e-09
-7.89715e-10
8.10404e-10
-1.00315e-08
-1.66654e-09
-1.01915e-09
1.04578e-09
-1.14701e-08
-2.17182e-09
-1.29159e-09
1.32506e-09
-1.29054e-08
-2.82964e-09
-1.61849e-09
1.65984e-09
-1.43384e-08
-3.70283e-09
-2.0117e-09
2.06206e-09
-1.575e-08
-4.8763e-09
-2.48332e-09
2.54375e-09
-1.70912e-08
-6.46277e-09
-3.04583e-09
3.11716e-09
-1.82736e-08
-8.60563e-09
-3.71399e-09
3.79612e-09
-1.91656e-08
-1.14693e-08
-4.5105e-09
4.60057e-09
-1.9616e-08
-1.51785e-08
-5.4731e-09
5.56222e-09
-1.95097e-08
-1.95017e-08
-6.6009e-09
6.68223e-09
-2.98579e-08
-8.97507e-09
1.15665e-08
-5.91446e-09
-2.51179e-10
-2.49213e-10
2.55641e-10
-1.13981e-08
-7.50335e-10
-7.43177e-10
7.62412e-10
-1.64111e-08
-1.25464e-09
-1.23862e-09
1.27085e-09
-2.10895e-08
-1.79576e-09
-1.76315e-09
1.80924e-09
-2.55471e-08
-2.41623e-09
-2.34977e-09
2.41129e-09
-2.98776e-08
-3.16598e-09
-3.03063e-09
3.10976e-09
-3.41532e-08
-4.10797e-09
-3.83834e-09
3.93775e-09
-3.84194e-08
-5.32501e-09
-4.80655e-09
4.92927e-09
-4.26838e-08
-6.92771e-09
-5.96954e-09
6.11878e-09
-4.68973e-08
-9.06279e-09
-7.36089e-09
7.53982e-09
-5.09272e-08
-1.19194e-08
-9.01192e-09
9.22302e-09
-5.45266e-08
-1.57252e-08
-1.09516e-08
1.1195e-08
-5.73165e-08
-2.07092e-08
-1.32112e-08
1.348e-08
-5.88388e-08
-2.69633e-08
-1.58265e-08
1.60969e-08
-5.87148e-08
-3.39309e-08
-1.87074e-08
1.8945e-08
-4.52843e-08
-2.32969e-08
2.77433e-08
-9.74068e-09
-3.53576e-10
-4.09091e-10
4.19633e-10
-1.87669e-08
-1.05565e-09
-1.2192e-09
1.25074e-09
-2.70116e-08
-1.76215e-09
-2.03023e-09
2.08307e-09
-3.46974e-08
-2.51434e-09
-2.88727e-09
2.96278e-09
-4.20109e-08
-3.36813e-09
-3.84399e-09
3.94469e-09
-4.91062e-08
-4.38806e-09
-4.95244e-09
5.08182e-09
-5.61044e-08
-5.65405e-09
-6.26523e-09
6.42755e-09
-6.30867e-08
-7.26926e-09
-7.83636e-09
8.03637e-09
-7.0079e-08
-9.36851e-09
-9.72008e-09
9.96277e-09
-7.70251e-08
-1.21262e-08
-1.19674e-08
1.22575e-08
-8.37467e-08
-1.57589e-08
-1.46191e-08
1.49603e-08
-8.98927e-08
-2.0512e-08
-1.76955e-08
1.80883e-08
-9.49015e-08
-2.65983e-08
-2.1181e-08
2.16164e-08
-9.80531e-08
-3.40172e-08
-2.49958e-08
2.54403e-08
-9.86926e-08
-4.20163e-08
-2.88394e-08
2.92223e-08
-5.45077e-08
-3.32954e-08
3.71771e-08
-1.34012e-08
-4.33106e-10
-5.58945e-10
5.73349e-10
-2.58104e-08
-1.29196e-09
-1.66457e-09
1.70765e-09
-3.71316e-08
-2.15141e-09
-2.76884e-09
2.84097e-09
-4.76686e-08
-3.05679e-09
-3.93267e-09
4.03566e-09
-5.76754e-08
-4.07028e-09
-5.22832e-09
5.36552e-09
-6.73635e-08
-5.26188e-09
-6.72554e-09
6.90156e-09
-7.69025e-08
-6.71604e-09
-8.49465e-09
8.71505e-09
-8.64141e-08
-8.53868e-09
-1.06077e-08
1.08786e-08
-9.59563e-08
-1.08643e-08
-1.31369e-08
1.34644e-08
-1.05494e-07
-1.3861e-08
-1.61488e-08
1.65383e-08
-1.14854e-07
-1.77297e-08
-1.96924e-08
2.01475e-08
-1.2366e-07
-2.26853e-08
-2.37761e-08
2.42958e-08
-1.31271e-07
-2.88935e-08
-2.83268e-08
2.88991e-08
-1.36798e-07
-3.62985e-08
-3.31235e-08
3.3709e-08
-1.39284e-07
-4.41622e-08
-3.76327e-08
3.81409e-08
-5.60519e-08
-4.21973e-08
4.63168e-08
-1.68398e-08
-4.86991e-10
-6.95082e-10
7.1301e-10
-3.24194e-08
-1.45102e-09
-2.06824e-09
2.12184e-09
-4.66117e-08
-2.40895e-09
-3.43582e-09
3.52549e-09
-5.97934e-08
-3.40481e-09
-4.87222e-09
5.00012e-09
-7.22792e-08
-4.50014e-09
-6.46549e-09
6.63564e-09
-8.43321e-08
-5.76182e-09
-8.30015e-09
8.51806e-09
-9.61673e-08
-7.26753e-09
-1.04613e-08
1.07335e-08
-1.07949e-07
-9.11091e-09
-1.30362e-08
1.33696e-08
-1.19776e-07
-1.1406e-08
-1.61131e-08
1.65144e-08
-1.31657e-07
-1.4289e-08
-1.97756e-08
2.02497e-08
-1.43469e-07
-1.79141e-08
-2.40883e-08
2.46363e-08
-1.54886e-07
-2.24369e-08
-2.90676e-08
2.9684e-08
-1.65291e-07
-2.7966e-08
-3.46222e-08
3.52881e-08
-1.73703e-07
-3.44337e-08
-4.04429e-08
4.11129e-08
-1.78768e-07
-4.12574e-08
-4.57708e-08
4.63681e-08
-5.14579e-08
-5.10029e-08
5.55599e-08
-2.00075e-08
-5.1479e-10
-8.14609e-10
8.35651e-10
-3.84996e-08
-1.53174e-09
-2.4216e-09
2.48449e-09
-5.53154e-08
-2.53393e-09
-4.01677e-09
4.12187e-09
-7.0894e-08
-3.55963e-09
-5.68512e-09
5.83485e-09
-8.56013e-08
-4.66405e-09
-7.52705e-09
7.72593e-09
-9.97437e-08
-5.90442e-09
-9.6383e-09
9.89248e-09
-1.13575e-07
-7.34349e-09
-1.21147e-08
1.24314e-08
-1.27297e-07
-9.05243e-09
-1.50551e-08
1.54417e-08
-1.41049e-07
-1.11124e-08
-1.8561e-08
1.90238e-08
-1.54894e-07
-1.36131e-08
-2.27328e-08
2.32753e-08
-1.68778e-07
-1.66466e-08
-2.76592e-08
2.82786e-08
-1.82471e-07
-2.02951e-08
-3.33919e-08
3.40744e-08
-1.95463e-07
-2.46041e-08
-3.98851e-08
4.05978e-08
-2.06782e-07
-2.95154e-08
-4.68483e-08
4.75319e-08
-2.14699e-07
-3.46921e-08
-5.3349e-08
5.39673e-08
-4.24414e-08
-6.01291e-08
6.54793e-08
-2.28645e-08
-5.18109e-10
-9.15565e-10
9.39261e-10
-4.39747e-08
-1.53924e-09
-2.71891e-09
2.78969e-09
-6.31332e-08
-2.53629e-09
-4.50221e-09
4.62039e-09
-8.08293e-08
-3.5388e-09
-6.35786e-09
6.52599e-09
-9.74689e-08
-4.59187e-09
-8.39477e-09
8.6177e-09
-1.13391e-07
-5.7392e-09
-1.07156e-08
1.09999e-08
-1.28876e-07
-7.02445e-09
-1.34224e-08
1.37755e-08
-1.44153e-07
-8.49203e-09
-1.66197e-08
1.70492e-08
-1.59393e-07
-1.01862e-08
-2.04166e-08
2.09284e-08
-1.74695e-07
-1.21478e-08
-2.49248e-08
2.55206e-08
-1.90067e-07
-1.44064e-08
-3.02544e-08
3.09271e-08
-2.0537e-07
-1.69727e-08
-3.65001e-08
3.72265e-08
-2.20226e-07
-1.98282e-08
-4.37021e-08
4.44306e-08
-2.33803e-07
-2.29178e-08
-5.17146e-08
5.23537e-08
-2.44303e-07
-2.61766e-08
-5.96603e-08
6.01908e-08
-3.06856e-08
-6.96076e-08
7.6048e-08
-2.53788e-08
-9.96947e-10
1.02281e-09
-5.00107e-10
-4.87851e-08
-2.95734e-09
3.03454e-09
-1.48332e-09
-6.99818e-08
-4.88778e-09
5.01655e-09
-2.43393e-09
-8.94952e-08
-6.88468e-09
7.06757e-09
-3.37147e-09
-1.07758e-07
-9.0613e-09
9.30329e-09
-4.3293e-09
-1.2513e-07
-1.15227e-08
1.18305e-08
-5.33629e-09
-1.41906e-07
-1.43717e-08
1.47529e-08
-6.41676e-09
-1.58326e-07
-1.77121e-08
1.81743e-08
-7.58951e-09
-1.7457e-07
-2.16511e-08
2.21997e-08
-8.8655e-09
-1.90752e-07
-2.62989e-08
2.69344e-08
-1.02437e-08
-2.06896e-07
-3.17666e-08
3.24798e-08
-1.17048e-08
-2.22892e-07
-3.81575e-08
3.89211e-08
-1.32044e-08
-2.38398e-07
-4.55389e-08
4.62951e-08
-1.46704e-08
-2.52615e-07
-5.38284e-08
5.44795e-08
-1.60052e-08
-2.639e-07
-6.22806e-08
6.28168e-08
-1.71151e-08
-7.85995e-08
8.64448e-08
-1.66296e-08
-2.01966e-09
-1.36848e-10
-7.83226e-11
-3.89373e-09
-4.09104e-10
-2.33657e-10
-5.60989e-09
-6.85474e-10
-3.89607e-10
-7.21584e-09
-9.84635e-10
-5.5484e-10
-8.75172e-09
-1.33149e-09
-7.39752e-10
-1.02506e-08
-1.75568e-09
-9.54467e-10
-1.17377e-08
-2.29524e-09
-1.2092e-09
-1.32287e-08
-3.00099e-09
-1.51436e-09
-1.47248e-08
-3.94206e-09
-1.88025e-09
-1.62069e-08
-5.21227e-09
-2.31641e-09
-1.7626e-08
-6.93634e-09
-2.8306e-09
-1.88959e-08
-9.27221e-09
-3.42764e-09
-1.98952e-08
-1.23962e-08
-4.10786e-09
-2.05036e-08
-1.64247e-08
-4.85936e-09
-2.06728e-08
-2.10651e-08
-5.61176e-09
-2.91354e-08
-6.68422e-09
-6.02127e-09
-2.62243e-10
-2.33566e-10
-1.16068e-08
-7.83826e-10
-6.96476e-10
-1.67194e-08
-1.31209e-09
-1.16065e-09
-2.1501e-08
-1.88106e-09
-1.65193e-09
-2.60708e-08
-2.5364e-09
-2.20119e-09
-3.05274e-08
-3.33202e-09
-2.8384e-09
-3.49469e-08
-4.33632e-09
-3.59375e-09
-3.93779e-08
-5.63965e-09
-4.49778e-09
-4.38296e-08
-7.36322e-09
-5.58041e-09
-4.82525e-08
-9.66846e-09
-6.86817e-09
-5.25127e-08
-1.27635e-08
-8.37964e-09
-5.63654e-08
-1.68967e-08
-1.01183e-08
-5.94507e-08
-2.23089e-08
-1.2061e-08
-6.13727e-08
-2.90645e-08
-1.41304e-08
-6.19095e-08
-3.65087e-08
-1.60927e-08
-4.54252e-08
-1.80966e-08
-9.91528e-09
-3.68856e-10
-3.8342e-10
-1.91079e-08
-1.10185e-09
-1.14262e-09
-2.7515e-08
-1.84115e-09
-1.90248e-09
-3.53687e-08
-2.63099e-09
-2.7052e-09
-4.28646e-08
-3.53121e-09
-3.60102e-09
-5.01644e-08
-4.61128e-09
-4.63852e-09
-5.73962e-08
-5.95765e-09
-5.86645e-09
-6.46463e-08
-7.68228e-09
-7.33399e-09
-7.19437e-08
-9.93206e-09
-9.08877e-09
-7.92319e-08
-1.28973e-08
-1.11714e-08
-8.6329e-08
-1.68143e-08
-1.3605e-08
-9.28805e-08
-2.1947e-08
-1.63761e-08
-9.83344e-08
-2.85124e-08
-1.94037e-08
-1.02022e-07
-3.64687e-08
-2.24844e-08
-1.03452e-07
-4.49614e-08
-2.51913e-08
-5.4483e-08
-2.71409e-08
-1.36387e-08
-4.51355e-10
-5.23876e-10
-2.62738e-08
-1.34704e-09
-1.56002e-09
-3.78148e-08
-2.24516e-09
-2.5946e-09
-4.85785e-08
-3.19415e-09
-3.68465e-09
-5.88309e-08
-4.26031e-09
-4.89786e-09
-6.87941e-08
-5.51863e-09
-6.29936e-09
-7.86471e-08
-7.05981e-09
-7.95445e-09
-8.85193e-08
-8.99796e-09
-9.92905e-09
-9.84735e-08
-1.14781e-08
-1.2287e-08
-1.08476e-07
-1.46816e-08
-1.50826e-08
-1.18348e-07
-1.88241e-08
-1.8344e-08
-1.27705e-07
-2.41326e-08
-2.20424e-08
-1.35899e-07
-3.07697e-08
-2.60368e-08
-1.42063e-07
-3.86387e-08
-2.99899e-08
-1.45343e-07
-4.69242e-08
-3.3278e-08
-5.57148e-08
-3.53911e-08
-1.71336e-08
-5.06877e-10
-6.51464e-10
-3.29921e-08
-1.5109e-09
-1.93829e-09
-4.74549e-08
-2.51027e-09
-3.21951e-09
-6.09145e-08
-3.55184e-09
-4.56481e-09
-7.37002e-08
-4.70085e-09
-6.05667e-09
-8.6088e-08
-6.02845e-09
-7.77412e-09
-9.83051e-08
-7.61727e-09
-9.79631e-09
-1.10525e-07
-9.56688e-09
-1.22035e-08
-1.22855e-07
-1.19983e-08
-1.50747e-08
-1.35308e-07
-1.50554e-08
-1.84795e-08
-1.47756e-07
-1.88989e-08
-2.246e-08
-1.59865e-07
-2.36872e-08
-2.69926e-08
-1.71002e-07
-2.95192e-08
-3.19127e-08
-1.80172e-07
-3.62951e-08
-3.67907e-08
-1.86019e-07
-4.33947e-08
-4.07947e-08
-5.05388e-08
-4.34321e-08
-2.03501e-08
-5.35043e-10
-7.63473e-10
-3.91666e-08
-1.59256e-09
-2.26938e-09
-5.62956e-08
-2.63612e-09
-3.76373e-09
-7.21943e-08
-3.70618e-09
-5.32615e-09
-8.72454e-08
-4.8609e-09
-7.05072e-09
-1.0177e-07
-6.16048e-09
-9.02708e-09
-1.16036e-07
-7.67065e-09
-1.13447e-08
-1.30256e-07
-9.46548e-09
-1.40946e-08
-1.44582e-07
-1.16286e-08
-1.73687e-08
-1.59081e-07
-1.42506e-08
-2.12528e-08
-1.73702e-07
-1.7421e-08
-2.58117e-08
-1.88212e-07
-2.12138e-08
-3.10532e-08
-2.02088e-07
-2.56564e-08
-3.68473e-08
-2.14331e-07
-3.06657e-08
-4.27589e-08
-2.23081e-07
-3.59096e-08
-4.77675e-08
-4.07254e-08
-5.15265e-08
-2.32476e-08
-5.3764e-10
-8.58061e-10
-4.47195e-08
-1.59771e-09
-2.54788e-09
-6.42253e-08
-2.63374e-09
-4.21834e-09
-8.22744e-08
-3.67667e-09
-5.95601e-09
-9.92902e-08
-4.77353e-09
-7.86294e-09
-1.15628e-07
-5.96948e-09
-1.00354e-08
-1.31584e-07
-7.30914e-09
-1.25687e-08
-1.47399e-07
-8.83671e-09
-1.55598e-08
-1.63255e-07
-1.05947e-08
-1.9108e-08
-1.79263e-07
-1.26188e-08
-2.33108e-08
-1.95436e-07
-1.49285e-08
-2.8254e-08
-2.11638e-07
-1.75161e-08
-3.39858e-08
-2.27496e-07
-2.03364e-08
-4.04515e-08
-2.42171e-07
-2.33084e-08
-4.73237e-08
-2.53664e-07
-2.6407e-08
-5.35715e-08
-2.79224e-08
-5.96896e-08
-2.5794e-08
-9.34289e-10
-5.18089e-10
-4.95908e-08
-2.77116e-09
-1.53697e-09
-7.11605e-08
-4.5793e-09
-2.52254e-09
-9.105e-08
-6.44902e-09
-3.4949e-09
-1.09711e-07
-8.4865e-09
-4.48829e-09
-1.27518e-07
-1.07904e-08
-5.53174e-09
-1.44783e-07
-1.34567e-08
-6.64865e-09
-1.61758e-07
-1.65821e-08
-7.85524e-09
-1.78636e-07
-2.02649e-08
-9.15756e-09
-1.95538e-07
-2.46022e-08
-1.05458e-08
-2.12496e-07
-2.9683e-08
-1.19863e-08
-2.29405e-07
-3.55674e-08
-1.34125e-08
-2.45925e-07
-4.22325e-08
-1.47224e-08
-2.61251e-07
-4.94157e-08
-1.57861e-08
-2.7355e-07
-5.61796e-08
-1.65077e-08
-6.72783e-08
-1.24031e-08
-2.05195e-09
-1.41791e-10
-7.01892e-11
-3.95701e-09
-4.24016e-10
-2.09381e-10
-5.70365e-09
-7.10886e-10
-3.49084e-10
-7.3413e-09
-1.022e-09
-4.97028e-10
-8.91172e-09
-1.38345e-09
-6.62462e-10
-1.04494e-08
-1.82627e-09
-8.5431e-10
-1.19809e-08
-2.39023e-09
-1.08142e-09
-1.35228e-08
-3.12837e-09
-1.35244e-09
-1.50773e-08
-4.11242e-09
-1.67524e-09
-1.6626e-08
-5.43878e-09
-2.05562e-09
-1.81216e-08
-7.23306e-09
-2.4951e-09
-1.94818e-08
-9.64786e-09
-2.98755e-09
-2.05953e-08
-1.28373e-08
-3.51438e-09
-2.13574e-08
-1.68607e-08
-4.03727e-09
-2.17182e-08
-2.1347e-08
-4.48286e-09
-2.9582e-08
-4.97683e-09
-6.11721e-09
-2.7158e-10
-2.0932e-10
-1.17948e-08
-8.11979e-10
-6.24138e-10
-1.69979e-08
-1.35997e-09
-1.03997e-09
-2.18735e-08
-1.9512e-09
-1.47986e-09
-2.65456e-08
-2.6334e-09
-1.97129e-09
-3.11171e-08
-3.46287e-09
-2.54071e-09
-3.5668e-08
-4.51096e-09
-3.21426e-09
-4.025e-08
-5.87156e-09
-4.01744e-09
-4.48749e-08
-7.66987e-09
-4.97318e-09
-4.94953e-08
-1.00706e-08
-6.0976e-09
-5.39808e-08
-1.32815e-08
-7.39249e-09
-5.80956e-08
-1.75376e-08
-8.83325e-09
-6.15027e-08
-2.30347e-08
-1.03515e-08
-6.38443e-08
-2.97309e-08
-1.18135e-08
-6.48983e-08
-3.68331e-08
-1.29963e-08
-4.51488e-08
-1.38244e-08
-1.00721e-08
-3.81708e-10
-3.43628e-10
-1.94151e-08
-1.14055e-09
-1.02397e-09
-2.79696e-08
-1.90674e-09
-1.70471e-09
-3.59764e-08
-2.72646e-09
-2.42349e-09
-4.36385e-08
-3.66206e-09
-3.22507e-09
-5.1125e-08
-4.78579e-09
-4.15235e-09
-5.857e-08
-6.18732e-09
-5.24764e-09
-6.60654e-08
-7.98219e-09
-6.55221e-09
-7.36441e-08
-1.03207e-08
-8.10295e-09
-8.12529e-08
-1.33947e-08
-9.92496e-09
-8.87133e-08
-1.74356e-08
-1.20176e-08
-9.5679e-08
-2.26846e-08
-1.43306e-08
-1.0162e-07
-2.92942e-08
-1.67302e-08
-1.05908e-07
-3.70846e-08
-1.89624e-08
-1.0805e-07
-4.50328e-08
-2.06544e-08
-5.3458e-08
-2.14046e-08
-1.3852e-08
-4.66632e-10
-4.69518e-10
-2.66912e-08
-1.39296e-09
-1.39805e-09
-3.84319e-08
-2.32257e-09
-2.3249e-09
-4.94023e-08
-3.30583e-09
-3.301e-09
-5.98788e-08
-4.41147e-09
-4.38667e-09
-7.00929e-08
-5.71698e-09
-5.6395e-09
-8.02324e-08
-7.31561e-09
-7.11635e-09
-9.0434e-08
-9.32368e-09
-8.87285e-09
-1.00767e-07
-1.18872e-08
-1.09592e-08
-1.112e-07
-1.51852e-08
-1.34104e-08
-1.21559e-07
-1.94218e-08
-1.62265e-08
-1.31462e-07
-2.47922e-08
-1.93375e-08
-1.40276e-07
-3.13828e-08
-2.25506e-08
-1.47152e-07
-3.89497e-08
-2.54958e-08
-1.51227e-07
-4.65106e-08
-2.76517e-08
-5.39125e-08
-2.85674e-08
-1.73975e-08
-5.23425e-10
-5.8387e-10
-3.35079e-08
-1.56051e-09
-1.73705e-09
-4.82164e-08
-2.59335e-09
-2.88485e-09
-6.19293e-08
-3.67032e-09
-4.08952e-09
-7.49886e-08
-4.85862e-09
-5.42462e-09
-8.7682e-08
-6.23103e-09
-6.96014e-09
-1.00247e-07
-7.8713e-09
-8.76523e-09
-1.12867e-07
-9.87894e-09
-1.09081e-08
-1.25657e-07
-1.23724e-08
-1.34517e-08
-1.38635e-07
-1.54875e-08
-1.64439e-08
-1.51677e-07
-1.93667e-08
-1.98942e-08
-1.64448e-07
-2.41281e-08
-2.37335e-08
-1.76316e-07
-2.97897e-08
-2.77421e-08
-1.86282e-07
-3.61111e-08
-3.14656e-08
-1.92957e-07
-4.23301e-08
-3.42167e-08
-4.79045e-08
-3.55915e-08
-2.06578e-08
-5.51774e-10
-6.84249e-10
-3.97671e-08
-1.64256e-09
-2.03373e-09
-5.71805e-08
-2.71916e-09
-3.37242e-09
-7.33712e-08
-3.82297e-09
-4.77151e-09
-8.87358e-08
-5.01324e-09
-6.31493e-09
-1.03609e-07
-6.35066e-09
-8.08218e-09
-1.18271e-07
-7.90026e-09
-1.01517e-08
-1.32946e-07
-9.73338e-09
-1.26013e-08
-1.47793e-07
-1.19272e-08
-1.55054e-08
-1.62889e-07
-1.4559e-08
-1.89258e-08
-1.78187e-07
-1.7693e-08
-2.2891e-08
-1.93453e-07
-2.13563e-08
-2.73563e-08
-2.0816e-07
-2.54932e-08
-3.21237e-08
-2.21283e-07
-2.98896e-08
-3.67202e-08
-2.30899e-07
-3.41002e-08
-4.02954e-08
-3.7174e-08
-4.25673e-08
-2.35916e-08
-5.53639e-10
-7.69006e-10
-4.53899e-08
-1.64534e-09
-2.28325e-09
-6.52112e-08
-2.71209e-09
-3.77966e-09
-8.3582e-08
-3.78501e-09
-5.33564e-09
-1.00941e-07
-4.91132e-09
-7.04228e-09
-1.17659e-07
-6.1354e-09
-8.98511e-09
-1.34043e-07
-7.49937e-09
-1.12479e-08
-1.50348e-07
-9.04238e-09
-1.3914e-08
-1.66766e-07
-1.07973e-08
-1.70649e-08
-1.83416e-07
-1.27826e-08
-2.07728e-08
-2.00315e-07
-1.49879e-08
-2.50855e-08
-2.17335e-07
-1.73553e-08
-2.99919e-08
-2.34093e-07
-1.97569e-08
-3.53524e-08
-2.49723e-07
-2.19868e-08
-4.07666e-08
-2.62137e-07
-2.39147e-08
-4.53502e-08
-2.32577e-08
-4.94542e-08
-2.61666e-08
-8.373e-10
-5.32675e-10
-5.03159e-08
-2.48325e-09
-1.58021e-09
-7.22244e-08
-4.10293e-09
-2.59288e-09
-9.24569e-08
-5.77708e-09
-3.59025e-09
-1.11481e-07
-7.60055e-09
-4.60587e-09
-1.29687e-07
-9.66108e-09
-5.6669e-09
-1.47398e-07
-1.20433e-08
-6.79295e-09
-1.6488e-07
-1.48307e-08
-7.99345e-09
-1.82334e-07
-1.81044e-08
-9.263e-09
-1.99893e-07
-2.19379e-08
-1.05732e-08
-2.17592e-07
-2.63839e-08
-1.18603e-08
-2.3533e-07
-3.14445e-08
-1.30111e-08
-2.52762e-07
-3.70107e-08
-1.38528e-08
-2.69058e-07
-4.27338e-08
-1.41551e-08
-2.82295e-07
-4.7775e-08
-1.37233e-08
-5.57889e-08
-6.72218e-09
-2.08001e-09
-1.45787e-10
-5.94842e-11
-4.01208e-09
-4.3601e-10
-1.77436e-10
-5.78537e-09
-7.31115e-10
-2.9578e-10
-7.45081e-09
-1.05127e-09
-4.21022e-10
-9.05151e-09
-1.42322e-09
-5.60915e-10
-1.06232e-08
-1.87867e-09
-7.22848e-10
-1.21936e-08
-2.45806e-09
-9.13954e-10
-1.37803e-08
-3.21494e-09
-1.14086e-09
-1.53864e-08
-4.22122e-09
-1.40886e-09
-1.69942e-08
-5.5724e-09
-1.72032e-09
-1.85574e-08
-7.39095e-09
-2.07202e-09
-1.99956e-08
-9.82214e-09
-2.45147e-09
-2.11994e-08
-1.30077e-08
-2.83282e-09
-2.20613e-08
-1.69969e-08
-3.17523e-09
-2.25081e-08
-2.14399e-08
-3.42698e-09
-3.00135e-08
-3.65989e-09
-6.20057e-09
-2.79106e-10
-1.774e-10
-1.19584e-08
-8.34554e-10
-5.28929e-10
-1.72405e-08
-1.39796e-09
-8.81192e-10
-2.21985e-08
-2.00591e-09
-1.2536e-09
-2.69604e-08
-2.70726e-09
-1.66919e-09
-3.16327e-08
-3.55936e-09
-2.14988e-09
-3.62989e-08
-4.63448e-09
-2.71679e-09
-4.10137e-08
-6.02703e-09
-3.38949e-09
-4.57912e-08
-7.86177e-09
-4.18354e-09
-5.05864e-08
-1.03007e-08
-5.10542e-09
-5.52713e-08
-1.35438e-08
-6.14429e-09
-5.9614e-08
-1.78102e-08
-7.25976e-09
-6.32816e-08
-2.32678e-08
-8.36851e-09
-6.59077e-08
-2.98468e-08
-9.33938e-09
-6.72094e-08
-3.67762e-08
-1.00166e-08
-4.51458e-08
-1.0333e-08
-1.02084e-08
-3.92024e-10
-2.91238e-10
-1.96822e-08
-1.17146e-09
-8.67795e-10
-2.83657e-08
-1.95853e-09
-1.44448e-09
-3.65066e-08
-2.80049e-09
-2.05303e-09
-4.43146e-08
-3.76091e-09
-2.73098e-09
-5.19648e-08
-4.91306e-09
-3.51391e-09
-5.95969e-08
-6.34715e-09
-4.43613e-09
-6.73075e-08
-8.17838e-09
-5.52949e-09
-7.51337e-08
-1.05548e-08
-6.81937e-09
-8.30255e-08
-1.36623e-08
-8.31638e-09
-9.0807e-08
-1.77184e-08
-1.00019e-08
-9.81348e-08
-2.29387e-08
-1.18063e-08
-1.04481e-07
-2.9433e-08
-1.35836e-08
-1.092e-07
-3.69774e-08
-1.51032e-08
-1.11716e-07
-4.45702e-08
-1.61068e-08
-5.2758e-08
-1.63296e-08
-1.40372e-08
-4.78828e-10
-3.97943e-10
-2.70541e-08
-1.42942e-09
-1.18484e-09
-3.89694e-08
-2.3833e-09
-1.97005e-09
-5.01209e-08
-3.39172e-09
-2.79649e-09
-6.07939e-08
-4.5244e-09
-3.71481e-09
-7.12282e-08
-5.85928e-09
-4.77287e-09
-8.16188e-08
-7.48917e-09
-6.01691e-09
-9.21093e-08
-9.52834e-09
-7.49019e-09
-1.02774e-07
-1.21178e-08
-9.22801e-09
-1.13587e-07
-1.54257e-08
-1.1247e-08
-1.24374e-07
-1.96362e-08
-1.35254e-08
-1.34755e-07
-2.49092e-08
-1.59723e-08
-1.4409e-07
-3.12782e-08
-1.83893e-08
-1.51506e-07
-3.84495e-08
-2.04537e-08
-1.5604e-07
-4.54738e-08
-2.1803e-08
-5.24079e-08
-2.21512e-08
-1.76266e-08
-5.36544e-10
-4.94869e-10
-3.39564e-08
-1.59962e-09
-1.47216e-09
-4.88797e-08
-2.65797e-09
-2.44456e-09
-6.28146e-08
-3.76045e-09
-3.46457e-09
-7.61139e-08
-4.97463e-09
-4.59401e-09
-8.90753e-08
-6.37291e-09
-5.89114e-09
-1.01946e-07
-8.03713e-09
-7.41237e-09
-1.14916e-07
-1.00625e-08
-9.2112e-09
-1.28109e-07
-1.25588e-08
-1.1333e-08
-1.41546e-07
-1.56465e-08
-1.38036e-08
-1.55106e-07
-1.94411e-08
-1.6607e-08
-1.68451e-07
-2.40178e-08
-1.96492e-08
-1.80935e-07
-2.93355e-08
-2.27061e-08
-1.91521e-07
-3.51047e-08
-2.53866e-08
-1.98708e-07
-4.06166e-08
-2.72053e-08
-4.55411e-08
-2.79278e-08
-2.09249e-08
-5.64928e-10
-5.79949e-10
-4.02893e-08
-1.68162e-09
-1.7236e-09
-5.79514e-08
-2.78307e-09
-2.85773e-09
-7.43978e-08
-3.91052e-09
-4.0424e-09
-9.00377e-08
-5.12289e-09
-5.34822e-09
-1.05217e-07
-6.47934e-09
-6.84146e-09
-1.20226e-07
-8.04144e-09
-8.58631e-09
-1.35298e-07
-9.87392e-09
-1.06444e-08
-1.50602e-07
-1.20421e-08
-1.30703e-08
-1.66218e-07
-1.46034e-08
-1.59009e-08
-1.82103e-07
-1.75893e-08
-1.91347e-08
-1.98018e-07
-2.09782e-08
-2.26946e-08
-2.13416e-07
-2.465e-08
-2.6369e-08
-2.27223e-07
-2.83396e-08
-2.9746e-08
-2.37392e-07
-3.16703e-08
-3.22141e-08
-3.38904e-08
-3.36478e-08
-2.38902e-08
-5.6609e-10
-6.51783e-10
-4.59728e-08
-1.68215e-09
-1.93506e-09
-6.60701e-08
-2.77159e-09
-3.2028e-09
-8.4723e-08
-3.86472e-09
-4.52035e-09
-1.02384e-07
-5.00766e-09
-5.96441e-09
-1.19435e-07
-6.24218e-09
-7.60637e-09
-1.36195e-07
-7.60558e-09
-9.51508e-09
-1.52929e-07
-9.12852e-09
-1.17569e-08
-1.69838e-07
-1.08298e-08
-1.43925e-08
-1.87046e-07
-1.2705e-08
-1.74677e-08
-2.04575e-07
-1.47081e-08
-2.09965e-08
-2.2229e-07
-1.67295e-08
-2.49281e-08
-2.39787e-07
-1.85738e-08
-2.90924e-08
-2.56145e-07
-1.99754e-08
-3.31258e-08
-2.69143e-07
-2.08587e-08
-3.6381e-08
-1.89185e-08
-3.92274e-08
-2.64901e-08
-7.09659e-10
-5.43891e-10
-5.09465e-08
-2.10453e-09
-1.6132e-09
-7.31514e-08
-3.4767e-09
-2.64543e-09
-9.36849e-08
-4.89435e-09
-3.65875e-09
-1.13028e-07
-6.43738e-09
-4.68491e-09
-1.31584e-07
-8.17917e-09
-5.74769e-09
-1.49688e-07
-1.01895e-08
-6.86086e-09
-1.67615e-07
-1.25352e-08
-8.02434e-09
-1.85575e-07
-1.52772e-08
-9.21766e-09
-2.03706e-07
-1.84634e-08
-1.03894e-08
-2.22048e-07
-2.21133e-08
-1.14413e-08
-2.40492e-07
-2.61884e-08
-1.2212e-08
-2.58674e-07
-3.05432e-08
-1.24686e-08
-2.75703e-07
-3.48484e-08
-1.19271e-08
-2.89524e-07
-3.84722e-08
-1.04163e-08
-4.42965e-08
-1.40229e-09
-2.10326e-09
-1.48851e-10
-4.66099e-11
-4.05774e-09
-4.45155e-10
-1.39024e-10
-5.85319e-09
-7.46357e-10
-2.31711e-10
-7.54176e-09
-1.0729e-09
-3.29731e-10
-9.16768e-09
-1.45182e-09
-4.39086e-10
-1.07677e-08
-1.91497e-09
-5.65417e-10
-1.23705e-08
-2.50272e-09
-7.14023e-10
-1.39944e-08
-3.26822e-09
-8.89541e-10
-1.56431e-08
-4.2824e-09
-1.09511e-09
-1.7299e-08
-5.63896e-09
-1.33084e-09
-1.89158e-08
-7.45756e-09
-1.59144e-09
-2.04117e-08
-9.88049e-09
-1.86332e-09
-2.16731e-08
-1.30498e-08
-2.12244e-09
-2.25818e-08
-1.70275e-08
-2.33644e-09
-2.30468e-08
-2.14932e-08
-2.47491e-09
-3.03392e-08
-2.58689e-09
-6.26961e-09
-2.84856e-10
-1.39009e-10
-1.20939e-08
-8.51708e-10
-4.14434e-10
-1.74418e-08
-1.42647e-09
-6.90334e-10
-2.24684e-08
-2.04616e-09
-9.81806e-10
-2.7305e-08
-2.76004e-09
-1.3067e-09
-3.20612e-08
-3.62559e-09
-1.68175e-09
-3.68233e-08
-4.71467e-09
-2.12268e-09
-4.16482e-08
-6.12058e-09
-2.64323e-09
-4.65517e-08
-7.96567e-09
-3.2527e-09
-5.14895e-08
-1.04076e-08
-3.95127e-09
-5.63331e-08
-1.364e-08
-4.72276e-09
-6.08462e-08
-1.7874e-08
-5.52534e-09
-6.46843e-08
-2.32744e-08
-6.28433e-09
-6.74523e-08
-2.9787e-08
-6.89822e-09
-6.88197e-08
-3.66866e-08
-7.27407e-09
-4.52663e-08
-7.37801e-09
-1.03212e-08
-3.99871e-10
-2.28216e-10
-1.99036e-08
-1.19483e-09
-6.79963e-10
-2.86941e-08
-1.99719e-09
-1.13165e-09
-3.69466e-08
-2.85457e-09
-1.60798e-09
-4.48761e-08
-3.83088e-09
-2.13802e-09
-5.26625e-08
-4.99912e-09
-2.74902e-09
-6.045e-08
-6.44845e-09
-3.46655e-09
-6.83391e-08
-8.29161e-09
-4.31313e-09
-7.63696e-08
-1.06722e-08
-5.30428e-09
-8.44924e-08
-1.37681e-08
-6.44089e-09
-9.25303e-08
-1.77858e-08
-7.6971e-09
-1.00133e-07
-2.29265e-08
-9.00401e-09
-1.06754e-07
-2.92906e-08
-1.02357e-08
-1.11707e-07
-3.6669e-08
-1.12177e-08
-1.14351e-07
-4.41176e-08
-1.1793e-08
-5.23818e-08
-1.18105e-08
-1.41906e-08
-4.8805e-10
-3.11838e-10
-2.73548e-08
-1.45681e-09
-9.28406e-10
-3.94152e-08
-2.4283e-09
-1.54344e-09
-5.07174e-08
-3.45387e-09
-2.19035e-09
-6.15539e-08
-4.60318e-09
-2.90842e-09
-7.21713e-08
-5.9533e-09
-3.73433e-09
-8.27706e-08
-7.59487e-09
-4.70268e-09
-9.35005e-08
-9.63792e-09
-5.84431e-09
-1.04439e-07
-1.22161e-08
-7.1814e-09
-1.15561e-07
-1.54859e-08
-8.71781e-09
-1.26692e-07
-1.96141e-08
-1.04228e-08
-1.37439e-07
-2.47399e-08
-1.22083e-08
-1.47141e-07
-3.08819e-08
-1.39065e-08
-1.54874e-07
-3.77617e-08
-1.52766e-08
-1.59601e-07
-4.45051e-08
-1.60927e-08
-5.13674e-08
-1.61942e-08
-1.78163e-08
-5.46391e-10
-3.87799e-10
-3.4328e-08
-1.62877e-09
-1.15356e-09
-4.94297e-08
-2.70539e-09
-1.91523e-09
-6.35494e-08
-3.82478e-09
-2.71372e-09
-7.70485e-08
-5.05392e-09
-3.59699e-09
-9.02329e-08
-6.46343e-09
-4.60979e-09
-1.03357e-07
-8.13166e-09
-5.79447e-09
-1.16618e-07
-1.01475e-08
-7.18952e-09
-1.30142e-07
-1.26105e-08
-8.82431e-09
-1.43955e-07
-1.56249e-08
-1.07087e-08
-1.5793e-07
-1.92835e-08
-1.28148e-08
-1.71718e-07
-2.36344e-08
-1.50497e-08
-1.84646e-07
-2.8616e-08
-1.72247e-08
-1.95618e-07
-3.39564e-08
-1.90482e-08
-2.03051e-07
-3.9043e-08
-2.02092e-08
-4.37524e-08
-2.05911e-08
-2.1146e-08
-5.74708e-10
-4.54477e-10
-4.07219e-08
-1.71044e-09
-1.3506e-09
-5.85907e-08
-2.82937e-09
-2.23898e-09
-7.52502e-08
-3.97189e-09
-3.16642e-09
-9.11194e-08
-5.19564e-09
-4.18778e-09
-1.06553e-07
-6.5571e-09
-5.35401e-09
-1.21851e-07
-8.11299e-09
-6.71351e-09
-1.37253e-07
-9.91988e-09
-8.31097e-09
-1.52933e-07
-1.203e-08
-1.01826e-08
-1.68974e-07
-1.4481e-08
-1.23464e-08
-1.85329e-07
-1.72768e-08
-1.47841e-08
-2.01746e-07
-2.0363e-08
-1.7414e-08
-2.17645e-07
-2.35927e-08
-2.0054e-08
-2.31891e-07
-2.67147e-08
-2.23954e-08
-2.42348e-07
-2.94645e-08
-2.40365e-08
-3.12955e-08
-2.4951e-08
-2.41374e-08
-5.7524e-10
-5.10773e-10
-4.64559e-08
-1.70896e-09
-1.51631e-09
-6.67825e-08
-2.81399e-09
-2.50937e-09
-8.56705e-08
-3.91924e-09
-3.5409e-09
-1.03583e-07
-5.06891e-09
-4.67054e-09
-1.20911e-07
-6.30128e-09
-5.95325e-09
-1.37985e-07
-7.64767e-09
-7.44115e-09
-1.55076e-07
-9.12919e-09
-9.18271e-09
-1.72389e-07
-1.07497e-08
-1.12189e-08
-1.90054e-07
-1.2483e-08
-1.35745e-08
-2.08088e-07
-1.42528e-08
-1.62428e-08
-2.26341e-07
-1.59128e-08
-1.91608e-08
-2.44376e-07
-1.72351e-08
-2.21745e-08
-2.61203e-07
-1.79554e-08
-2.50059e-08
-2.74508e-07
-1.81032e-08
-2.72246e-08
-1.54388e-08
-2.91765e-08
-2.6758e-08
-5.56131e-10
-5.52016e-10
-5.14691e-08
-1.64912e-09
-1.63684e-09
-7.39205e-08
-2.72399e-09
-2.6821e-09
-9.4705e-08
-3.83395e-09
-3.70409e-09
-1.14315e-07
-5.04116e-09
-4.73212e-09
-1.33163e-07
-6.40221e-09
-5.78589e-09
-1.51594e-07
-7.97013e-09
-6.87254e-09
-1.6989e-07
-9.79387e-09
-7.98177e-09
-1.88269e-07
-1.19152e-08
-9.07779e-09
-2.0687e-07
-1.43609e-08
-1.00872e-08
-2.25729e-07
-1.71293e-08
-1.08822e-08
-2.44724e-07
-2.0167e-08
-1.12663e-08
-2.63453e-07
-2.33373e-08
-1.09751e-08
-2.80957e-07
-2.63823e-08
-9.7215e-09
-2.95078e-07
-2.8873e-08
-7.41072e-09
-3.29804e-08
2.87774e-09
-2.12118e-09
-1.51044e-10
-3.20431e-11
-4.09295e-09
-4.51664e-10
-9.55694e-11
-5.90551e-09
-7.57075e-10
-1.59263e-10
-7.61195e-09
-1.08781e-09
-2.26578e-10
-9.25737e-09
-1.47096e-09
-3.01597e-10
-1.08793e-08
-1.93823e-09
-3.88109e-10
-1.2507e-08
-2.52961e-09
-4.89588e-10
-1.41594e-08
-3.29753e-09
-6.08907e-10
-1.58403e-08
-4.31177e-09
-7.47681e-10
-1.75322e-08
-5.66456e-09
-9.05095e-10
-1.91872e-08
-7.47438e-09
-1.07624e-09
-2.07208e-08
-9.88428e-09
-1.25028e-09
-2.20132e-08
-1.30427e-08
-1.4097e-09
-2.2936e-08
-1.70272e-08
-1.53344e-09
-2.33898e-08
-2.15352e-08
-1.60576e-09
-3.05654e-08
-1.65828e-09
-6.32281e-09
-2.88958e-10
-9.55665e-11
-1.21984e-08
-8.63874e-10
-2.849e-10
-1.75971e-08
-1.44644e-09
-4.74498e-10
-2.26766e-08
-2.07376e-09
-6.74673e-10
-2.7571e-08
-2.7951e-09
-8.97565e-10
-3.2392e-08
-3.66754e-09
-1.15443e-09
-3.72278e-08
-4.76203e-09
-1.45558e-09
-4.21371e-08
-6.17022e-09
-1.80956e-09
-4.71362e-08
-8.01185e-09
-2.22121e-09
-5.21804e-08
-1.04412e-08
-2.68815e-09
-5.71376e-08
-1.36487e-08
-3.19567e-09
-6.17636e-08
-1.78454e-08
-3.71103e-09
-6.56972e-08
-2.32054e-08
-4.18063e-09
-6.85157e-08
-2.96993e-08
-4.53867e-09
-6.98667e-08
-3.66326e-08
-4.73609e-09
-4.54138e-08
-4.75812e-09
-1.04081e-08
-4.05444e-10
-1.56898e-10
-2.00742e-08
-1.21132e-09
-4.67445e-10
-2.89475e-08
-2.0241e-09
-7.77853e-10
-3.72862e-08
-2.89138e-09
-1.105e-09
-4.53094e-08
-3.87681e-09
-1.46867e-09
-5.32009e-08
-5.0526e-09
-1.88719e-09
-6.11081e-08
-6.50619e-09
-2.37741e-09
-6.91339e-08
-8.34742e-09
-2.95338e-09
-7.73195e-08
-1.07153e-08
-3.62341e-09
-8.56149e-08
-1.3782e-08
-4.38431e-09
-9.38378e-08
-1.77472e-08
-5.21301e-09
-1.01626e-07
-2.28095e-08
-6.05649e-09
-1.08409e-07
-2.90787e-08
-6.82572e-09
-1.13463e-07
-3.63754e-08
-7.40821e-09
-1.16116e-07
-4.37985e-08
-7.71882e-09
-5.22126e-08
-7.67676e-09
-1.43087e-08
-4.9456e-10
-2.14393e-10
-2.75866e-08
-1.47603e-09
-6.3825e-10
-3.97589e-08
-2.45938e-09
-1.06092e-09
-5.11775e-08
-3.49569e-09
-1.50525e-09
-6.21405e-08
-4.65401e-09
-1.99799e-09
-7.28991e-08
-6.00995e-09
-2.56385e-09
-8.3659e-08
-7.65146e-09
-3.22566e-09
-9.45724e-08
-9.68407e-09
-4.00286e-09
-1.05719e-07
-1.22346e-08
-4.90772e-09
-1.17073e-07
-1.54504e-08
-5.93814e-09
-1.28453e-07
-1.9488e-08
-7.06648e-09
-1.39452e-07
-2.44799e-08
-8.22542e-09
-1.4938e-07
-3.04521e-08
-9.29748e-09
-1.57271e-07
-3.71611e-08
-1.01276e-08
-1.62051e-07
-4.37909e-08
-1.05892e-08
-5.07211e-08
-1.05986e-08
-1.79624e-08
-5.53287e-10
-2.66622e-10
-3.46144e-08
-1.64904e-09
-7.93048e-10
-4.98539e-08
-2.7378e-09
-1.31651e-09
-6.41163e-08
-3.86742e-09
-1.86499e-09
-7.77699e-08
-5.10376e-09
-2.47117e-09
-9.11264e-08
-6.51529e-09
-3.16523e-09
-1.04445e-07
-8.17653e-09
-3.97522e-09
-1.17929e-07
-1.01702e-08
-4.92561e-09
-1.31706e-07
-1.25866e-08
-6.03317e-09
-1.458e-07
-1.55175e-08
-7.29931e-09
-1.60079e-07
-1.90413e-08
-8.69738e-09
-1.74176e-07
-2.31948e-08
-1.01558e-08
-1.87386e-07
-2.79209e-08
-1.15424e-08
-1.98569e-07
-3.2986e-08
-1.26693e-08
-2.061e-07
-3.78544e-08
-1.33564e-08
-4.25355e-08
-1.35516e-08
-2.13163e-08
-5.8149e-10
-3.12469e-10
-4.10553e-08
-1.73026e-09
-9.28526e-10
-5.90838e-08
-2.86057e-09
-1.53909e-09
-7.59079e-08
-4.01169e-09
-2.17618e-09
-9.19544e-08
-5.23962e-09
-2.87722e-09
-1.07585e-07
-6.59792e-09
-3.67663e-09
-1.23105e-07
-8.13846e-09
-4.60654e-09
-1.3876e-07
-9.91014e-09
-5.69558e-09
-1.54726e-07
-1.19539e-08