/*--------------------------------*- C++ -*----------------------------------*\
| =========                 |                                                 |
| \\      /  F ield         | foam-extend: Open Source CFD                    |
|  \\    /   O peration     | Version:     3.1                                |
|   \\  /    A nd           | Web:         http://www.extend-project.de       |
|    \\/     M anipulation  |                                                 |
\*---------------------------------------------------------------------------*/
FoamFile
{
    version     2.0;
    format      ascii;
    class       volScalarField;
    location    "2.8";
    object      p;
}
// * * * * * * * * * * * * * * * * * * * * * * * * * * * * * * * * * * * * * //

dimensions      [0 2 -2 0 0 0 0];

internalField   nonuniform List<scalar> 
14592
(
0.0259087
0.0257164
0.0255273
0.0253657
0.0252465
0.0251789
0.0251651
0.0251989
0.0252648
0.0253392
0.0253899
0.0253757
0.025235
0.024869
0.0241329
0.0231122
0.0259298
0.0257195
0.0255284
0.0253669
0.0252449
0.0251728
0.0251554
0.0251885
0.0252581
0.0253407
0.0254049
0.0254068
0.0252882
0.0249539
0.024191
0.0229165
0.0259194
0.0256932
0.0254933
0.0253239
0.0251926
0.0251119
0.0250899
0.0251253
0.0252064
0.0253109
0.025408
0.0254578
0.0254059
0.0251396
0.0243718
0.0227873
0.0258809
0.0256407
0.0254299
0.0252498
0.0251064
0.0250137
0.0249832
0.0250174
0.0251075
0.0252331
0.025366
0.0254693
0.0254924
0.0253311
0.0246317
0.0228515
0.0258158
0.0255646
0.0253442
0.0251542
0.0249984
0.0248909
0.0248458
0.0248695
0.024957
0.0250911
0.0252469
0.0253919
0.025484
0.0254356
0.024868
0.0230208
0.0257259
0.0254662
0.0252374
0.0250381
0.0248695
0.0247446
0.0246786
0.0246803
0.0247481
0.0248682
0.0250192
0.0251732
0.0253003
0.0253417
0.0249461
0.0231484
0.0256151
0.0253487
0.0251122
0.0249029
0.0247199
0.0245744
0.024481
0.0244492
0.024479
0.0245572
0.0246635
0.0247705
0.0248603
0.0249046
0.0246735
0.0229162
0.0254893
0.0252181
0.0249743
0.0247536
0.0245537
0.0243842
0.0242581
0.0241838
0.02416
0.0241707
0.0241909
0.0241792
0.0241118
0.0239148
0.0236775
0.0210213
0.0261353
0.0259348
0.0257451
0.0255917
0.0254901
0.0254514
0.0254807
0.0255749
0.0257224
0.0259051
0.0260974
0.0262697
0.0263842
0.0263804
0.0262111
0.0260804
0.026159
0.0259389
0.0257463
0.0255929
0.0254884
0.025445
0.0254705
0.0255645
0.0257172
0.0259086
0.0261166
0.0263094
0.0264514
0.0264756
0.0263224
0.0262983
0.026151
0.0259141
0.0257126
0.0255522
0.0254392
0.0253876
0.0254091
0.0255068
0.025674
0.0258949
0.0261454
0.0263994
0.0266239
0.0267486
0.0266695
0.0267698
0.0261121
0.0258613
0.0256491
0.0254794
0.0253559
0.0252939
0.0253084
0.025407
0.0255869
0.0258353
0.0261333
0.0264603
0.0267937
0.0270668
0.0271313
0.0273568
0.0260434
0.0257816
0.0255599
0.0253813
0.0252473
0.0251724
0.0251739
0.0252634
0.0254428
0.0257039
0.0260338
0.0264189
0.0268489
0.0272724
0.0274873
0.027863
0.0259464
0.0256759
0.0254455
0.0252578
0.025112
0.0250207
0.0250016
0.0250684
0.0252267
0.0254724
0.0257978
0.0261963
0.0266717
0.0272031
0.0275514
0.0280344
0.0258253
0.0255478
0.0253089
0.0251105
0.0249496
0.0248366
0.0247879
0.024817
0.0249302
0.0251242
0.0253921
0.0257277
0.026145
0.0266576
0.027027
0.0273036
0.0256865
0.0254038
0.0251566
0.0249449
0.0247648
0.0246244
0.0245377
0.0245159
0.024563
0.0246709
0.024825
0.0250006
0.0251939
0.0253734
0.0254529
0.0237287
0.0263549
0.026148
0.0259597
0.0258164
0.0257342
0.0257258
0.025799
0.025953
0.0261814
0.0264659
0.0267865
0.027119
0.0274341
0.0276871
0.0278468
0.0279831
0.0263812
0.0261533
0.025961
0.0258178
0.0257328
0.0257197
0.0257891
0.0259442
0.0261766
0.0264731
0.026812
0.0271678
0.0275102
0.0277892
0.0279849
0.0282597
0.0263754
0.0261302
0.0259291
0.0257797
0.025687
0.0256665
0.0257328
0.025893
0.0261438
0.0264737
0.0268632
0.0272895
0.0277255
0.0281141
0.0284192
0.0288855
0.0263365
0.0260774
0.0258658
0.0257083
0.025607
0.0255779
0.0256393
0.0258031
0.0260716
0.0264362
0.0268831
0.027396
0.0279567
0.0285064
0.0289809
0.0296287
0.0262647
0.0259946
0.0257735
0.0256079
0.0254977
0.0254578
0.0255083
0.0256651
0.0259356
0.0263175
0.0268037
0.0273857
0.0280567
0.0287625
0.0293878
0.0302126
0.0261612
0.0258822
0.025652
0.0254775
0.0253561
0.0253007
0.0253312
0.025465
0.0257136
0.0260792
0.026561
0.0271579
0.0278762
0.0286798
0.0293958
0.0302962
0.0260302
0.0257441
0.0255046
0.0253183
0.025181
0.0251029
0.0251017
0.0251941
0.0253915
0.0256967
0.0261096
0.0266292
0.0272697
0.0280169
0.0286371
0.0291691
0.0258789
0.0255872
0.0253382
0.0251369
0.0249779
0.0248688
0.0248245
0.0248583
0.024978
0.0251801
0.0254553
0.0257815
0.0261497
0.0264949
0.0266356
0.0246905
0.0265571
0.0263452
0.0261595
0.026027
0.0259642
0.0259853
0.0261
0.0263108
0.0266106
0.0269848
0.0274136
0.0278736
0.0283358
0.0287587
0.029102
0.0293337
0.026586
0.0263521
0.0261613
0.0260289
0.0259633
0.0259795
0.0260905
0.0263009
0.0266071
0.0269953
0.0274446
0.0279296
0.0284189
0.0288654
0.029247
0.0296052
0.0265822
0.0263307
0.0261311
0.0259933
0.025921
0.0259308
0.0260396
0.0262578
0.0265851
0.0270109
0.0275157
0.0280778
0.0286641
0.0292176
0.029709
0.0302619
0.0265434
0.0262781
0.0260683
0.0259233
0.025844
0.0258471
0.0259532
0.0261778
0.0265262
0.0269931
0.0275653
0.0282207
0.0289369
0.0296494
0.0303128
0.0310425
0.0264689
0.0261926
0.0259732
0.0258209
0.0257342
0.0257283
0.0258257
0.0260454
0.0263988
0.0268865
0.0275022
0.0282334
0.0290643
0.0299264
0.0307223
0.0316214
0.0263596
0.0260744
0.0258455
0.025684
0.0255867
0.0255661
0.025644
0.025841
0.0261719
0.0266425
0.0272529
0.0279983
0.0288737
0.0298174
0.0306649
0.0316041
0.0262197
0.0259271
0.0256883
0.0255141
0.0253998
0.0253553
0.0253998
0.0255521
0.0258269
0.0262296
0.0267616
0.0274175
0.0281986
0.0290545
0.0297283
0.0302028
0.0260569
0.0257583
0.025509
0.025318
0.0251796
0.025101
0.0250977
0.0251846
0.0253716
0.0256571
0.026032
0.0264691
0.0269448
0.0273532
0.0274409
0.0251784
0.0267322
0.0265165
0.026334
0.0262117
0.0261665
0.0262138
0.0263647
0.0266238
0.0269843
0.027432
0.0279463
0.0285014
0.0290654
0.0295938
0.0300351
0.0303007
0.0267634
0.0265251
0.0263363
0.026214
0.0261661
0.0262084
0.0263557
0.0266143
0.026982
0.0274451
0.0279815
0.0285628
0.0291534
0.0297032
0.0301796
0.0305621
0.0267614
0.0265051
0.0263076
0.0261807
0.0261269
0.0261636
0.0263098
0.0265778
0.0269694
0.0274739
0.0280703
0.0287307
0.0294183
0.030069
0.0306477
0.031217
0.0267228
0.0264528
0.0262453
0.026112
0.0260527
0.0260843
0.0262297
0.0265064
0.0269223
0.0274722
0.0281407
0.0289012
0.0297178
0.0305191
0.0312597
0.0319965
0.0266461
0.0263653
0.0261481
0.0260079
0.0259423
0.0259667
0.026105
0.0263791
0.0268022
0.0273758
0.0280913
0.0289293
0.0298606
0.0308018
0.0316568
0.0325499
0.0265318
0.0262421
0.0260151
0.0258656
0.0257896
0.0257998
0.0259194
0.0261709
0.0265713
0.0271269
0.027836
0.0286862
0.0296576
0.0306661
0.0315431
0.0324498
0.0263843
0.026087
0.0258495
0.0256863
0.0255925
0.0255777
0.0256623
0.0258667
0.0262067
0.0266887
0.0273117
0.028063
0.0289278
0.0298262
0.0304802
0.0308621
0.0262116
0.025908
0.0256591
0.0254776
0.0253576
0.0253059
0.0253388
0.025472
0.0257162
0.0260697
0.0265211
0.0270353
0.0275728
0.0279947
0.0280012
0.025474
0.0268718
0.0266539
0.026474
0.0263602
0.0263294
0.026398
0.0265783
0.0268749
0.0272824
0.0277859
0.0283628
0.0289842
0.0296145
0.0302054
0.0306992
0.0309711
0.0269047
0.0266632
0.0264766
0.026363
0.0263296
0.026393
0.026569
0.0268658
0.0272812
0.027801
0.0284012
0.0290494
0.0297062
0.0303166
0.0308406
0.031227
0.0269042
0.0266447
0.0264494
0.0263315
0.0262931
0.0263516
0.0265275
0.0268348
0.027276
0.02784
0.028503
0.0292304
0.0299836
0.0306895
0.0313118
0.0318734
0.0268658
0.0265928
0.0263875
0.0262639
0.0262209
0.0262757
0.0264525
0.0267704
0.0272382
0.0278507
0.0285891
0.0294223
0.0302997
0.0311458
0.0319094
0.0326405
0.0267874
0.0265036
0.0262886
0.0261585
0.0261101
0.0261589
0.0263301
0.0266469
0.0271239
0.027762
0.0285493
0.0294593
0.0304503
0.0314283
0.0322961
0.0331688
0.0266693
0.0263766
0.0261515
0.0260118
0.0259532
0.0259883
0.0261412
0.0264357
0.0268897
0.0275091
0.0282888
0.0292088
0.0302361
0.0312707
0.0321411
0.0330092
0.0265157
0.0262153
0.0259792
0.0258252
0.0257479
0.0257572
0.0258738
0.0261192
0.0265099
0.0270512
0.0277393
0.0285536
0.0294659
0.0303758
0.0309925
0.0312974
0.0263351
0.0260281
0.0257799
0.0256064
0.0255012
0.0254712
0.0255332
0.0257031
0.0259919
0.0263967
0.0269028
0.0274676
0.0280384
0.0284536
0.0283865
0.0256656
0.0269691
0.0267502
0.0265722
0.0264647
0.0264445
0.026528
0.0267289
0.0270517
0.0274915
0.0280324
0.0286502
0.0293134
0.0299833
0.0306078
0.0311236
0.0314039
0.0270031
0.0267599
0.0265756
0.0264684
0.0264458
0.0265246
0.0267209
0.0270445
0.0274927
0.0280508
0.028693
0.0293834
0.0300802
0.0307237
0.0312691
0.0316536
0.0270036
0.0267425
0.0265492
0.0264383
0.0264112
0.0264856
0.0266825
0.0270178
0.0274934
0.0280977
0.0288044
0.0295725
0.0303665
0.0311014
0.0317409
0.0322918
0.0269653
0.0266907
0.0264875
0.0263713
0.0263403
0.026412
0.0266115
0.026958
0.0274619
0.028117
0.0289018
0.0297824
0.0306931
0.0315607
0.0323294
0.0330484
0.0268857
0.0266004
0.0263873
0.0262647
0.0262289
0.0262952
0.0264899
0.0268368
0.0273513
0.028033
0.0288675
0.0298228
0.0308475
0.0318413
0.0327065
0.0335584
0.0267649
0.0264706
0.0262472
0.0261149
0.0260687
0.0261216
0.0262981
0.0266229
0.027114
0.0277766
0.0286027
0.0295662
0.0306247
0.0316684
0.0325242
0.0333605
0.0266072
0.0263051
0.0260703
0.025923
0.0258576
0.0258839
0.0260233
0.0262976
0.0267233
0.0273049
0.0280357
0.0288891
0.0298273
0.0307376
0.0313216
0.0315713
0.0264211
0.0261121
0.0258649
0.0256972
0.0256027
0.0255881
0.0256706
0.0258665
0.0261863
0.0266261
0.0271683
0.0277645
0.0283527
0.028757
0.0286349
0.025788
0.0270175
0.0267978
0.0266204
0.0265155
0.0265
0.0265905
0.0268009
0.0271361
0.027591
0.0281495
0.0287862
0.0294684
0.0301555
0.0307942
0.0313195
0.0316051
0.0270518
0.0268073
0.0266231
0.0265184
0.0265002
0.0265858
0.0267914
0.027127
0.0275904
0.0281662
0.0288275
0.0295369
0.030251
0.0309086
0.031464
0.0318513
0.0270529
0.0267906
0.0265973
0.0264889
0.0264664
0.0265476
0.026754
0.0271014
0.0275923
0.0282149
0.0289411
0.0297276
0.030538
0.0312847
0.0319321
0.0324818
0.0270148
0.0267392
0.026536
0.0264225
0.0263966
0.0264754
0.0266844
0.0270439
0.0275635
0.0282378
0.0290431
0.0299435
0.0308682
0.0317437
0.0325165
0.0332315
0.0269348
0.0266485
0.0264355
0.0263157
0.0262853
0.0263593
0.0265643
0.0269245
0.0274556
0.0281563
0.0290115
0.0299859
0.0310238
0.0320224
0.0328881
0.033732
0.0268128
0.0265176
0.0262942
0.0261647
0.0261241
0.0261848
0.0263719
0.02671
0.0272175
0.0278988
0.0287448
0.0297264
0.0307967
0.0318416
0.0326926
0.0335159
0.026653
0.0263499
0.0261151
0.0259704
0.0259104
0.0259444
0.0260939
0.0263809
0.026822
0.0274211
0.02817
0.0290392
0.0299863
0.0308927
0.0314606
0.0316801
0.0264642
0.0261542
0.0259067
0.0257412
0.0256515
0.025644
0.0257357
0.025943
0.0262764
0.0267313
0.0272886
0.0278974
0.0284903
0.0288848
0.0287175
0.0258085
0.0248264
0.0247717
0.0246858
0.0245843
0.0244753
0.0243569
0.0242194
0.0240474
0.0238201
0.0235118
0.0230934
0.0225335
0.0218009
0.0208697
0.0197227
0.0183772
0.0248341
0.0247788
0.024695
0.0245962
0.0244901
0.0243742
0.0242399
0.0240721
0.0238492
0.0235454
0.0231316
0.0225764
0.0218478
0.0209208
0.0197745
0.0184285
0.0248268
0.0247664
0.0246813
0.0245836
0.0244813
0.0243723
0.0242473
0.0240895
0.0238775
0.0235853
0.0231837
0.0226416
0.0219273
0.0210175
0.0198868
0.018559
0.024803
0.0247335
0.0246416
0.02454
0.0244374
0.0243322
0.0242147
0.0240676
0.0238682
0.0235896
0.0232019
0.0226748
0.0219767
0.0210867
0.0199757
0.0186717
0.0247642
0.0246849
0.0245828
0.0244726
0.0243644
0.0242578
0.0241431
0.0240026
0.0238126
0.0235449
0.0231692
0.0226554
0.021972
0.0211004
0.0200098
0.0187311
0.024713
0.0246252
0.0245126
0.0243916
0.0242743
0.0241616
0.0240445
0.0239054
0.0237195
0.0234582
0.0230906
0.0225866
0.0219155
0.0210608
0.0199921
0.0187416
0.0246524
0.0245582
0.0244367
0.0243055
0.0241782
0.024057
0.0239337
0.023791
0.0236039
0.0233435
0.0229788
0.0224805
0.0218192
0.0209801
0.0199359
0.0187179
0.0245858
0.0244877
0.0243599
0.0242208
0.0240848
0.0239549
0.0238235
0.0236735
0.0234805
0.0232158
0.0228492
0.0223525
0.0216983
0.0208739
0.0198567
0.0186757
0.024845
0.0247733
0.024675
0.0245642
0.024448
0.0243239
0.0241837
0.0240101
0.0237826
0.0234743
0.0230557
0.0224943
0.0217575
0.0208187
0.019658
0.0182966
0.0248519
0.0247766
0.0246787
0.0245677
0.024451
0.0243271
0.0241861
0.024013
0.0237871
0.0234806
0.0230637
0.0225043
0.0217691
0.0208333
0.0196733
0.0183162
0.024844
0.0247609
0.024659
0.0245455
0.0244284
0.0243067
0.0241713
0.0240067
0.023789
0.0234925
0.0230863
0.0225385
0.0218157
0.0208958
0.0197499
0.0184122
0.024821
0.0247276
0.0246174
0.0244973
0.0243765
0.0242549
0.024124
0.0239669
0.0237603
0.0234763
0.0230835
0.0225505
0.0218433
0.0209431
0.019814
0.0184991
0.024784
0.0246808
0.0245607
0.0244309
0.0243023
0.0241765
0.0240457
0.023893
0.0236943
0.0234206
0.0230396
0.0225202
0.0218277
0.0209462
0.0198371
0.0185475
0.0247343
0.0246234
0.0244938
0.0243536
0.024215
0.0240815
0.0239464
0.0237933
0.0235978
0.0233299
0.0229573
0.0224484
0.0217692
0.020906
0.0198201
0.0185601
0.0246745
0.0245582
0.0244211
0.0242715
0.024123
0.0239803
0.023838
0.0236803
0.023483
0.023216
0.0228468
0.0223448
0.0216769
0.0208313
0.0197725
0.0185475
0.0246077
0.0244884
0.0243463
0.0241898
0.0240331
0.0238818
0.0237312
0.0235662
0.023363
0.0230921
0.0227218
0.0222225
0.0215637
0.020735
0.0197069
0.0185218
0.0249009
0.0248075
0.0246908
0.0245655
0.0244393
0.0243105
0.0241698
0.0240006
0.0237817
0.0234836
0.0230746
0.022518
0.0217742
0.0208083
0.0195871
0.0181312
0.0249086
0.0248097
0.0246931
0.0245666
0.0244385
0.0243079
0.0241661
0.0239976
0.0237787
0.0234815
0.0230748
0.0225207
0.0217792
0.0208177
0.0195974
0.0181504
0.0248987
0.0247901
0.0246676
0.024536
0.0244046
0.0242738
0.0241354
0.0239732
0.0237637
0.0234787
0.0230825
0.0225407
0.0218121
0.0208676
0.0196586
0.0182309
0.0248737
0.0247536
0.0246211
0.0244801
0.0243416
0.0242079
0.0240714
0.0239157
0.0237163
0.0234431
0.0230612
0.0225348
0.0218217
0.0208964
0.019701
0.0182948
0.0248353
0.0247052
0.024562
0.0244094
0.0242602
0.0241189
0.0239797
0.0238264
0.0236338
0.0233706
0.0230009
0.0224885
0.0217904
0.0208841
0.0197065
0.0183265
0.0247843
0.0246467
0.0244943
0.0243304
0.0241691
0.0240172
0.0238709
0.023715
0.0235241
0.0232662
0.0229046
0.0224032
0.0217189
0.0208323
0.0196792
0.0183334
0.0247227
0.02458
0.0244207
0.0242474
0.024075
0.0239121
0.0237564
0.0235939
0.0233997
0.0231417
0.0227831
0.0222886
0.0216164
0.0207498
0.0196288
0.0183264
0.0246536
0.0245083
0.0243446
0.0241646
0.0239836
0.0238111
0.0236458
0.0234746
0.0232733
0.0230103
0.0226499
0.0221579
0.0214957
0.020649
0.0195669
0.0183156
0.0249946
0.0248794
0.0247435
0.0246032
0.0244678
0.0243364
0.0242004
0.0240434
0.0238421
0.0235662
0.0231792
0.0226371
0.0218885
0.0208798
0.0195503
0.0179064
0.025004
0.0248815
0.024746
0.0246048
0.0244673
0.0243338
0.0241966
0.0240399
0.0238401
0.0235667
0.0231827
0.0226447
0.0219002
0.0208984
0.01957
0.0179378
0.024992
0.0248584
0.0247159
0.024568
0.0244252
0.0242897
0.0241545
0.0240037
0.023813
0.0235511
0.02318
0.0226564
0.0219268
0.0209432
0.019621
0.0180001
0.0249635
0.0248176
0.0246638
0.0245044
0.0243516
0.0242102
0.0240746
0.0239289
0.0237478
0.0234985
0.0231418
0.0226337
0.0219189
0.020952
0.019636
0.0180293
0.0249214
0.024765
0.0246001
0.0244275
0.0242613
0.0241091
0.0239676
0.0238218
0.023646
0.023406
0.0230611
0.0225665
0.0218658
0.0209165
0.0196142
0.0180337
0.0248664
0.0247024
0.0245283
0.0243435
0.0241632
0.0239975
0.0238456
0.0236941
0.0235176
0.0232811
0.0229432
0.0224586
0.0217712
0.0208422
0.0195661
0.0180288
0.0248004
0.0246313
0.0244505
0.024256
0.0240632
0.023884
0.0237198
0.0235586
0.0233759
0.0231369
0.0228
0.0223208
0.0216451
0.0207388
0.0195025
0.0180262
0.0247265
0.0245547
0.0243696
0.0241682
0.023966
0.0237756
0.0235995
0.0234271
0.0232345
0.0229877
0.0226461
0.0221673
0.021501
0.0206182
0.0194332
0.0180328
0.0251235
0.024988
0.0248344
0.0246812
0.0245389
0.0244085
0.0242825
0.024145
0.0239718
0.0237308
0.0233806
0.0228684
0.0221262
0.0210688
0.0195899
0.0176486
0.0251352
0.02499
0.0248368
0.0246831
0.0245387
0.0244058
0.0242782
0.0241407
0.0239695
0.0237319
0.0233863
0.0228799
0.0221432
0.0210944
0.0196167
0.0176827
0.0251216
0.0249642
0.0248033
0.0246416
0.02449
0.024353
0.0242256
0.0240929
0.0239304
0.0237047
0.0233728
0.0228812
0.0221586
0.0211223
0.0196378
0.0176854
0.0250897
0.0249193
0.0247466
0.024572
0.0244081
0.0242623
0.0241315
0.0240017
0.0238474
0.0236337
0.0233161
0.022839
0.0221288
0.0211011
0.0196097
0.0176482
0.0250427
0.0248619
0.024678
0.0244895
0.0243104
0.0241508
0.0240106
0.0238774
0.0237258
0.0235195
0.0232123
0.0227469
0.0220482
0.0210326
0.0195485
0.0176073
0.0249819
0.0247933
0.0246006
0.0243999
0.0242054
0.0240296
0.0238755
0.0237326
0.0235766
0.0233707
0.0230678
0.02261
0.0219229
0.0209264
0.0194713
0.0175875
0.0249094
0.0247155
0.0245163
0.0243059
0.024098
0.0239065
0.0237366
0.0235799
0.0234134
0.0232005
0.0228946
0.0224386
0.0217618
0.020791
0.0193877
0.0175989
0.0248285
0.0246316
0.024428
0.0242103
0.0239919
0.0237873
0.0236027
0.0234308
0.0232497
0.023024
0.0227082
0.0222478
0.0215783
0.0206361
0.0193026
0.0176403
0.0252847
0.0251314
0.0249633
0.0248008
0.024656
0.0245317
0.0244222
0.0243129
0.0241798
0.0239896
0.0236972
0.0232406
0.0225309
0.0214374
0.0197738
0.0173954
0.0252992
0.0251334
0.0249654
0.0248026
0.0246555
0.0245282
0.0244166
0.024307
0.0241761
0.02399
0.0237034
0.0232532
0.0225482
0.0214548
0.0197719
0.0173408
0.025285
0.0251061
0.0249298
0.0247584
0.0246026
0.0244691
0.0243556
0.0242494
0.0241266
0.0239527
0.0236807
0.0232454
0.0225502
0.021449
0.0197163
0.0171613
0.0252503
0.025058
0.0248698
0.0246851
0.0245156
0.0243708
0.0242511
0.0241451
0.024029
0.0238666
0.023609
0.0231872
0.0224996
0.0213867
0.0196125
0.0169603
0.0251983
0.0249954
0.0247966
0.0245983
0.0244128
0.0242522
0.02412
0.0240071
0.0238906
0.0237334
0.023485
0.0230731
0.0223938
0.0212795
0.019497
0.0168174
0.0251306
0.0249199
0.0247126
0.0245028
0.0243016
0.0241232
0.0239737
0.023847
0.0237216
0.0235606
0.023313
0.0229053
0.0222355
0.0211355
0.0193865
0.0167625
0.0250498
0.0248336
0.0246199
0.0244005
0.0241856
0.0239897
0.0238211
0.0236757
0.0235339
0.0233596
0.0231026
0.0226904
0.0220284
0.0209568
0.0192838
0.0168077
0.0249598
0.0247401
0.0245217
0.0242945
0.0240679
0.0238567
0.0236697
0.0235039
0.023341
0.0231457
0.0228695
0.0224428
0.0217825
0.020747
0.0191879
0.0169582
0.0254742
0.0253055
0.0251266
0.0249596
0.0248178
0.024706
0.0246209
0.0245498
0.0244705
0.0243504
0.0241439
0.0237844
0.0231657
0.0221029
0.0202706
0.0172786
0.0254909
0.0253076
0.0251283
0.0249612
0.0248169
0.0247015
0.0246136
0.024542
0.0244651
0.02435
0.0241507
0.0237988
0.0231826
0.0220999
0.0201582
0.0168619
0.0254773
0.0252797
0.0250919
0.024916
0.0247622
0.0246391
0.0245476
0.0244781
0.0244094
0.0243079
0.0241262
0.0237928
0.0231865
0.0220707
0.0199791
0.0162502
0.0254406
0.0252295
0.02503
0.0248412
0.0246732
0.0245374
0.0244378
0.0243667
0.0243037
0.0242145
0.0240502
0.023735
0.0231391
0.0219945
0.0197948
0.0157171
0.0253838
0.025162
0.0249523
0.0247511
0.0245676
0.0244151
0.0243009
0.0242202
0.0241545
0.0240696
0.0239155
0.0236134
0.0230304
0.0218774
0.019644
0.0153693
0.0253088
0.0250789
0.0248611
0.0246491
0.0244506
0.0242797
0.0241459
0.0240477
0.0239686
0.0238756
0.0237193
0.0234198
0.0228485
0.0217086
0.0195193
0.0152163
0.0252186
0.0249827
0.0247584
0.024537
0.0243246
0.024135
0.023979
0.023857
0.0237547
0.0236401
0.0234651
0.023151
0.0225819
0.0214687
0.0194025
0.0152717
0.0251177
0.024878
0.0246482
0.0244182
0.0241928
0.0239853
0.0238066
0.0236578
0.0235254
0.0233777
0.0231679
0.022818
0.0222297
0.0211383
0.0192789
0.0156131
0.0256852
0.0255033
0.0253176
0.0251511
0.0250181
0.0249255
0.0248727
0.02485
0.0248381
0.0248081
0.0247192
0.0245116
0.0240864
0.0232526
0.0215912
0.0182814
0.0257037
0.0255058
0.0253189
0.0251524
0.0250167
0.02492
0.0248639
0.0248405
0.0248316
0.024808
0.0247288
0.0245329
0.0241176
0.0232711
0.0214308
0.0174138
0.0256916
0.0254784
0.0252828
0.0251079
0.0249624
0.0248572
0.0247966
0.0247749
0.0247752
0.0247684
0.0247133
0.0245481
0.0241634
0.023309
0.0212717
0.0164447
0.0256538
0.0254267
0.0252198
0.025033
0.024874
0.0247559
0.0246863
0.0246625
0.0246693
0.0246782
0.0246481
0.024516
0.0241672
0.023324
0.0211773
0.0157233
0.0255926
0.0253546
0.025138
0.02494
0.0247668
0.0246325
0.0245478
0.0245132
0.0245164
0.0245307
0.0245157
0.0244085
0.0240954
0.0232851
0.0211352
0.0152966
0.0255101
0.0252638
0.025039
0.0248311
0.0246441
0.0244916
0.0243861
0.0243311
0.0243174
0.0243201
0.0243009
0.0241987
0.0239076
0.0231375
0.0210783
0.015095
0.0254097
0.0251572
0.0249253
0.0247078
0.0245068
0.0243347
0.0242042
0.0241205
0.0240761
0.0240473
0.0239974
0.0238658
0.0235624
0.0228093
0.0209228
0.0150418
0.0252967
0.0250399
0.0248018
0.0245744
0.0243586
0.0241657
0.0240077
0.0238897
0.0238041
0.0237262
0.0236181
0.0234137
0.0230358
0.0222045
0.0205477
0.0150702
0.0253564
0.0250825
0.0248321
0.0245988
0.0243801
0.0241845
0.0240234
0.0239026
0.0238178
0.0237473
0.023657
0.0234806
0.0231498
0.0223786
0.0208611
0.0155492
0.0252256
0.0249513
0.0246956
0.0244498
0.0242123
0.0239915
0.0237972
0.0236329
0.0234901
0.023342
0.0231458
0.0228226
0.0222755
0.0212311
0.0194064
0.0157964
0.0251062
0.0248343
0.0245752
0.0243188
0.0240655
0.0238242
0.0236037
0.0234048
0.0232156
0.0230067
0.0227321
0.022321
0.0216809
0.0206724
0.0190917
0.0169257
0.0250062
0.0247397
0.0244804
0.0242176
0.0239546
0.023701
0.0234643
0.0232429
0.0230222
0.0227726
0.0224495
0.0219983
0.0213413
0.0204256
0.0190823
0.0174717
0.0249309
0.0246732
0.0244176
0.0241548
0.0238903
0.0236341
0.0233915
0.0231586
0.0229187
0.0226435
0.022292
0.0218224
0.0211717
0.0203205
0.0191481
0.0177884
0.0248808
0.0246357
0.0243882
0.0241319
0.0238743
0.0236237
0.0233832
0.0231463
0.0228955
0.0226039
0.0222348
0.0217541
0.0211122
0.0203003
0.0192452
0.018032
0.0248505
0.0246224
0.0243852
0.0241395
0.0238939
0.023655
0.0234233
0.0231902
0.0229377
0.0226397
0.0222632
0.0217773
0.0211426
0.0203499
0.0193556
0.0182084
0.0248273
0.0246208
0.0243914
0.0241532
0.0239182
0.0236922
0.0234737
0.0232527
0.0230098
0.0227189
0.0223481
0.0218667
0.0212394
0.020452
0.0194711
0.0183278
0.025539
0.025253
0.0249979
0.0247711
0.0245683
0.0243962
0.0242665
0.0241868
0.0241565
0.024159
0.0241657
0.024116
0.0239386
0.0233255
0.0217436
0.0158072
0.0253932
0.0251062
0.0248443
0.0246021
0.0243756
0.0241714
0.023999
0.0238631
0.0237577
0.0236581
0.0235228
0.0232684
0.0227829
0.0217382
0.0197293
0.0155053
0.0252596
0.0249743
0.0247078
0.024452
0.0242043
0.0239722
0.0237641
0.023582
0.0234155
0.0232357
0.022995
0.0226158
0.0219908
0.0209471
0.019233
0.0167883
0.0251472
0.024867
0.0245991
0.0243339
0.0240714
0.0238203
0.0235883
0.0233749
0.0231666
0.0229339
0.0226296
0.0221936
0.0215368
0.0205948
0.0191646
0.0174257
0.025062
0.0247904
0.0245255
0.0242575
0.0239896
0.023731
0.0234882
0.0232582
0.0230255
0.0227611
0.0224215
0.0219611
0.0213075
0.0204386
0.0192059
0.0177694
0.0250047
0.0247459
0.0244885
0.0242253
0.0239619
0.0237068
0.0234642
0.0232288
0.0229835
0.0227006
0.022341
0.0218674
0.0212228
0.0203981
0.0193016
0.0180367
0.0249699
0.0247288
0.0244817
0.0242284
0.0239767
0.0237336
0.0235004
0.0232697
0.0230234
0.0227344
0.0223672
0.0218883
0.0212523
0.0204497
0.0194253
0.0182377
0.0249443
0.0247267
0.0244882
0.0242428
0.0240023
0.0237732
0.023555
0.0233381
0.0231032
0.0228228
0.0224628
0.0219896
0.0213628
0.0205671
0.01956
0.0183782
0.0257171
0.0254215
0.0251634
0.0249445
0.024759
0.0246129
0.0245177
0.0244826
0.0245092
0.0245836
0.0246791
0.0247322
0.0246574
0.024098
0.0224025
0.0159028
0.0255564
0.0252592
0.0249929
0.0247558
0.024542
0.0243569
0.0242099
0.0241061
0.0240408
0.0239902
0.0239116
0.0237143
0.0232688
0.0221973
0.0200258
0.0153612
0.0254086
0.0251124
0.0248404
0.0245867
0.0243468
0.0241266
0.0239346
0.0237728
0.0236316
0.023482
0.0232737
0.0229215
0.0223037
0.0212182
0.0193816
0.0167067
0.0252837
0.0249921
0.0247177
0.0244519
0.0241925
0.0239469
0.0237228
0.0235205
0.023327
0.0231121
0.0228259
0.0224029
0.0217431
0.0207712
0.0192586
0.0174019
0.0251884
0.0249054
0.0246331
0.0243622
0.0240934
0.0238355
0.0235952
0.0233707
0.0231467
0.0228939
0.0225659
0.0221135
0.0214556
0.0205675
0.0192783
0.0177703
0.0251239
0.0248538
0.0245885
0.0243207
0.0240541
0.0237972
0.0235547
0.0233225
0.0230839
0.0228102
0.0224598
0.0219928
0.0213452
0.0205072
0.0193721
0.0180583
0.0250847
0.0248327
0.0245779
0.0243193
0.0240639
0.0238187
0.0235861
0.0233591
0.0231198
0.0228401
0.022482
0.0220098
0.0213723
0.0205598
0.019507
0.0182809
0.0250569
0.0248302
0.0245849
0.0243345
0.0240909
0.0238608
0.0236445
0.0234329
0.0232066
0.022937
0.0225875
0.0221222
0.0214958
0.0206917
0.0196596
0.0184412
0.0258819
0.0255789
0.0253192
0.0251084
0.02494
0.0248192
0.0247581
0.0247663
0.0248465
0.0249853
0.0251548
0.0252839
0.0252701
0.0247117
0.0228772
0.0158999
0.0257073
0.025402
0.0251329
0.0249013
0.0247005
0.0245346
0.0244133
0.0243415
0.0243149
0.024309
0.0242785
0.0241238
0.0236991
0.0225866
0.020267
0.0152637
0.0255461
0.0252412
0.0249652
0.0247144
0.0244831
0.0242759
0.0241008
0.0239602
0.0238443
0.023723
0.0235429
0.0232107
0.0225926
0.0214631
0.0195172
0.0166582
0.0254093
0.0251086
0.0248293
0.0245641
0.024309
0.0240704
0.023856
0.0236661
0.0234879
0.0232902
0.0230201
0.0226068
0.021941
0.0209385
0.0193519
0.0173944
0.0253046
0.0250122
0.0247343
0.0244619
0.0241941
0.0239387
0.0237027
0.023485
0.0232704
0.023029
0.0227115
0.0222655
0.0216023
0.0206947
0.0193552
0.0177841
0.0252332
0.0249538
0.0246826
0.0244119
0.024144
0.023887
0.0236464
0.0234185
0.023187
0.0229224
0.0225807
0.0221193
0.0214683
0.0206174
0.0194477
0.01809
0.0251898
0.024929
0.0246683
0.0244063
0.0241489
0.0239034
0.0236725
0.0234501
0.023218
0.0229474
0.022598
0.0221318
0.0214928
0.0206707
0.0195922
0.0183311
0.0251601
0.0249261
0.0246756
0.0244222
0.0241771
0.0239476
0.0237343
0.0235287
0.0233111
0.0230519
0.0227123
0.022254
0.0216277
0.0208153
0.0197605
0.0185087
0.0260251
0.0257165
0.0254562
0.0252529
0.0250999
0.0250018
0.0249709
0.0250173
0.0251437
0.0253357
0.0255623
0.0257441
0.0257627
0.0251804
0.0232141
0.0158557
0.0258383
0.0255269
0.025256
0.0250298
0.0248407
0.0246925
0.0245943
0.0245513
0.0245587
0.0245903
0.0245976
0.024472
0.0240543
0.0228959
0.0204497
0.0151865
0.0256653
0.0253538
0.0250749
0.0248274
0.0246041
0.0244091
0.02425
0.024129
0.0240358
0.0239387
0.0237811
0.0234625
0.0228386
0.0216671
0.0196294
0.0166285
0.0255181
0.0252103
0.0249274
0.0246634
0.0244129
0.0241815
0.0239767
0.0237988
0.0236347
0.0234522
0.0231953
0.0227885
0.0221148
0.0210837
0.0194348
0.0173965
0.0254049
0.0251052
0.0248232
0.0245504
0.0242843
0.0240322
0.0238012
0.0235904
0.0233849
0.0231536
0.0228451
0.0224036
0.0217346
0.020809
0.0194271
0.0178037
0.0253276
0.0250409
0.0247652
0.0244928
0.0242248
0.0239689
0.0237308
0.0235077
0.0232829
0.0230266
0.0226924
0.0222356
0.0215812
0.0207185
0.0195196
0.0181249
0.0252805
0.0250129
0.0247478
0.0244836
0.0242255
0.0239806
0.0237522
0.0235344
0.0233092
0.0230468
0.0227051
0.0222439
0.0216033
0.0207726
0.0196722
0.0183811
0.0252491
0.0250094
0.0247553
0.0245001
0.0242547
0.0240265
0.0238167
0.023617
0.0234075
0.0231576
0.0228268
0.0223744
0.0217479
0.020928
0.0198535
0.0185732
0.0261394
0.025827
0.0255666
0.0253697
0.0252292
0.0251494
0.025143
0.02522
0.0253826
0.025615
0.0258828
0.0260989
0.0261326
0.0255203
0.0234482
0.0158099
0.0259429
0.0256271
0.0253553
0.0251337
0.0249544
0.0248205
0.0247413
0.0247216
0.024756
0.0248166
0.0248513
0.0247444
0.0243261
0.0231259
0.0205813
0.0151302
0.0257604
0.0254441
0.0251635
0.0249188
0.0247024
0.0245176
0.0243719
0.0242671
0.0241923
0.0241143
0.0239732
0.0236629
0.0230313
0.0218239
0.0197154
0.0166122
0.0256047
0.0252919
0.0250065
0.0247438
0.0244976
0.0242725
0.024076
0.0239084
0.0237561
0.0235857
0.0233388
0.0229359
0.0222544
0.0211992
0.0195023
0.0174039
0.0254848
0.0251798
0.0248949
0.0246222
0.0243581
0.0241092
0.0238829
0.0236783
0.0234804
0.0232575
0.0229559
0.0225176
0.0218432
0.0209025
0.0194878
0.0178243
0.0254027
0.0251106
0.0248318
0.0245586
0.024291
0.0240366
0.0238013
0.0235824
0.0233635
0.023114
0.0227858
0.0223324
0.021675
0.0208026
0.0195809
0.0181571
0.0253527
0.0250799
0.0248118
0.0245465
0.0242883
0.0240445
0.0238186
0.023605
0.0233856
0.02313
0.0227945
0.0223372
0.0216953
0.0208575
0.0197397
0.018425
0.0253199
0.025076
0.0248195
0.0245634
0.0243183
0.0240917
0.0238852
0.0236907
0.023488
0.0232458
0.022922
0.0224743
0.0218473
0.0210212
0.019931
0.018628
0.026219
0.0259044
0.0256442
0.025452
0.0253205
0.025254
0.0252649
0.0253636
0.0255517
0.0258121
0.0261075
0.0263452
0.026386
0.0257502
0.0236066
0.0157892
0.0260156
0.0256974
0.0254252
0.025207
0.0250348
0.0249114
0.0248459
0.024843
0.0248968
0.0249778
0.0250313
0.0249362
0.0245156
0.0232844
0.0206722
0.0150996
0.0258265
0.0255074
0.0252258
0.0249835
0.0247723
0.024595
0.0244592
0.0243664
0.0243052
0.024241
0.0241116
0.0238064
0.0231682
0.0219344
0.0197774
0.0166087
0.025665
0.025349
0.0250622
0.0248009
0.024558
0.0243379
0.0241479
0.0239882
0.023845
0.0236836
0.023444
0.0230435
0.0223561
0.0212836
0.0195546
0.0174174
0.0255403
0.025232
0.0249455
0.0246733
0.0244111
0.0241651
0.0239427
0.0237433
0.0235515
0.0233349
0.0230385
0.0226023
0.0219241
0.0209728
0.0195361
0.0178457
0.0254548
0.0251594
0.0248789
0.0246057
0.0243389
0.0240861
0.0238534
0.0236382
0.0234239
0.0231796
0.0228559
0.022405
0.0217455
0.0208662
0.019629
0.0181851
0.0254028
0.025127
0.0248572
0.0245915
0.0243337
0.0240912
0.0238676
0.0236575
0.0234425
0.023192
0.0228609
0.0224064
0.0217636
0.0209205
0.0197909
0.0184597
0.0253691
0.0251226
0.0248647
0.0246083
0.0243638
0.0241388
0.0239349
0.0237443
0.0235466
0.0233098
0.022991
0.0225465
0.0219191
0.0210884
0.0199875
0.0186687
0.0262588
0.0259431
0.0256824
0.025492