/*--------------------------------*- C++ -*----------------------------------*\
| =========                 |                                                 |
| \\      /  F ield         | foam-extend: Open Source CFD                    |
|  \\    /   O peration     | Version:     3.1                                |
|   \\  /    A nd           | Web:         http://www.extend-project.de       |
|    \\/     M anipulation  |                                                 |
\*---------------------------------------------------------------------------*/
FoamFile
{
    version     2.0;
    format      ascii;
    class       surfaceScalarField;
    location    "2.8";
    object      phi;
}
// * * * * * * * * * * * * * * * * * * * * * * * * * * * * * * * * * * * * * //

dimensions      [0 3 -1 0 0 0 0];

internalField   nonuniform List<scalar> 
41600
(
1.18659e-05
-5.89435e-08
-1.14704e-06
1.1509e-06
1.17486e-05
1.20226e-07
-2.11013e-06
2.10718e-06
1.14722e-05
2.85108e-07
-2.77747e-06
2.76872e-06
1.11001e-05
3.87559e-07
-3.43454e-06
3.41914e-06
1.07015e-05
4.26311e-07
-4.15381e-06
4.1261e-06
1.03418e-05
4.08373e-07
-4.94987e-06
4.90111e-06
1.00699e-05
3.5018e-07
-5.83053e-06
5.75228e-06
9.90963e-06
2.7296e-07
-6.81659e-06
6.70392e-06
9.8619e-06
1.94201e-07
-7.95309e-06
7.80661e-06
9.91761e-06
1.15314e-07
-9.31848e-06
9.14746e-06
1.00748e-05
1.23195e-08
-1.10348e-05
1.08653e-05
1.03572e-05
-1.79064e-07
-1.32812e-05
1.31778e-05
1.07616e-05
-5.36013e-07
-1.62698e-05
1.64014e-05
1.09735e-05
-1.08791e-06
-2.00187e-05
2.08947e-05
9.18939e-06
-1.32537e-06
-2.33521e-05
2.64616e-05
-3.19868e-07
-1.92791e-05
2.8807e-05
3.30576e-05
-9.06862e-09
-1.34695e-06
1.38586e-06
3.2799e-05
3.16376e-07
-3.21103e-06
3.27345e-06
3.23502e-05
6.47328e-07
-4.787e-06
4.8736e-06
3.17406e-05
8.79888e-07
-6.39886e-06
6.51616e-06
3.10511e-05
9.74989e-07
-8.15876e-06
8.29957e-06
3.03794e-05
9.36118e-07
-1.00703e-05
1.02142e-05
2.9803e-05
8.05151e-07
-1.21088e-05
1.22302e-05
2.93531e-05
6.43781e-07
-1.42699e-05
1.43491e-05
2.90054e-05
5.10305e-07
-1.66028e-05
1.66343e-05
2.86883e-05
4.29527e-07
-1.92324e-05
1.92353e-05
2.83016e-05
3.72483e-07
-2.239e-05
2.24165e-05
2.77081e-05
2.4026e-07
-2.64252e-05
2.65993e-05
2.66187e-05
-1.12865e-07
-3.17478e-05
3.24142e-05
2.4149e-05
-8.89623e-07
-3.8284e-05
4.05554e-05
1.74356e-05
-1.56487e-06
-4.32943e-05
5.02472e-05
-7.72615e-07
-3.29217e-05
5.0864e-05
5.13704e-05
5.28916e-09
-1.07927e-06
1.12854e-06
5.11464e-05
4.39961e-07
-2.9243e-06
3.02469e-06
5.07482e-05
8.88231e-07
-4.68778e-06
4.84514e-06
5.01543e-05
1.23667e-06
-6.62606e-06
6.86312e-06
4.93896e-05
1.41589e-06
-8.86342e-06
9.18724e-06
4.85205e-05
1.41464e-06
-1.1404e-05
1.17946e-05
4.76242e-05
1.28346e-06
-1.41861e-05
1.4604e-05
4.67495e-05
1.11487e-06
-1.7142e-05
1.75456e-05
4.58841e-05
1.01364e-06
-2.02523e-05
2.06144e-05
4.49386e-05
1.05017e-06
-2.35938e-05
2.39186e-05
4.37383e-05
1.22988e-06
-2.73825e-05
2.77254e-05
4.19977e-05
1.47105e-06
-3.20201e-05
3.253e-05
3.92071e-05
1.58606e-06
-3.80664e-05
3.91581e-05
3.40012e-05
1.27354e-06
-4.56897e-05
4.87324e-05
2.29828e-05
4.50258e-07
-5.17352e-05
6.07384e-05
-3.82736e-07
-3.91688e-05
6.18543e-05
6.66475e-05
-1.3691e-08
-8.54727e-07
8.99935e-07
6.64941e-05
4.98867e-07
-2.40965e-06
2.50417e-06
6.62048e-05
1.02235e-06
-3.9555e-06
4.11065e-06
6.57186e-05
1.4647e-06
-5.73573e-06
5.99395e-06
6.49852e-05
1.75345e-06
-7.92742e-06
8.32327e-06
6.4001e-05
1.8653e-06
-1.05957e-05
1.11292e-05
6.28084e-05
1.84313e-06
-1.37007e-05
1.43337e-05
6.14623e-05
1.78987e-06
-1.71419e-05
1.7813e-05
5.99858e-05
1.83765e-06
-2.08191e-05
2.14716e-05
5.83202e-05
2.10536e-06
-2.47071e-05
2.53176e-05
5.62865e-05
2.65733e-06
-2.89343e-05
2.95406e-05
5.35276e-05
3.4807e-06
-3.38633e-05
3.46126e-05
4.9372e-05
4.44705e-06
-4.01494e-05
4.1444e-05
4.20821e-05
5.24441e-06
-4.83101e-05
5.16291e-05
2.76116e-05
5.02318e-06
-5.54183e-05
6.5316e-05
1.82312e-06
-4.26494e-05
6.81912e-05
7.88545e-05
-4.1441e-08
-7.1604e-07
7.54795e-07
7.87455e-05
5.332e-07
-2.02467e-06
2.0994e-06
7.85426e-05
1.10978e-06
-3.30057e-06
3.41597e-06
7.81707e-05
1.62958e-06
-4.76838e-06
4.97546e-06
7.75231e-05
2.0398e-06
-6.65214e-06
7.01339e-06
7.65201e-05
2.32001e-06
-9.1047e-06
9.65296e-06
7.51418e-05
2.50558e-06
-1.21661e-05
1.28819e-05
7.34221e-05
2.69071e-06
-1.57642e-05
1.6583e-05
7.14064e-05
3.01318e-06
-1.97634e-05
2.06036e-05
6.90853e-05
3.62369e-06
-2.40497e-05
2.48526e-05
6.6324e-05
4.64595e-06
-2.86378e-05
2.94105e-05
6.27602e-05
6.16863e-06
-3.37961e-05
3.4672e-05
5.7662e-05
8.18934e-06
-4.01723e-05
4.15282e-05
4.89739e-05
1.06135e-05
-4.86165e-05
5.19356e-05
3.17959e-05
1.20116e-05
-5.66411e-05
6.68307e-05
6.37833e-06
-4.44187e-05
7.18385e-05
8.79977e-05
-6.46066e-08
-6.24896e-07
6.59697e-07
8.79081e-05
5.63408e-07
-1.76881e-06
1.82827e-06
8.77591e-05
1.18197e-06
-2.84882e-06
2.92555e-06
8.74812e-05
1.76712e-06
-4.0499e-06
4.19034e-06
8.69411e-05
2.29796e-06
-5.60376e-06
5.88565e-06
8.6003e-05
2.77104e-06
-7.72414e-06
8.21119e-06
8.45856e-05
3.22055e-06
-1.05358e-05
1.12383e-05
8.26835e-05
3.72922e-06
-1.40329e-05
1.48965e-05
8.03442e-05
4.42162e-06
-1.80924e-05
1.90232e-05
7.75977e-05
5.46039e-06
-2.25522e-05
2.3462e-05
7.43726e-05
7.01087e-06
-2.73328e-05
2.81929e-05
7.0344e-05
9.27947e-06
-3.25967e-05
3.35145e-05
6.47972e-05
1.24179e-05
-3.89021e-05
4.02204e-05
5.54702e-05
1.68179e-05
-4.73537e-05
5.04763e-05
3.62751e-05
2.11843e-05
-5.60701e-05
6.60925e-05
1.41991e-05
-4.46217e-05
7.32952e-05
9.40847e-05
-7.57711e-08
-5.58816e-07
5.9051e-07
9.40055e-05
5.92382e-07
-1.5874e-06
1.63759e-06
9.3896e-05
1.24027e-06
-2.53787e-06
2.58914e-06
9.36977e-05
1.87626e-06
-3.55691e-06
3.64606e-06
9.32728e-05
2.5147e-06
-4.85865e-06
5.06679e-06
9.24573e-05
3.17637e-06
-6.67823e-06
7.08838e-06
9.11292e-05
3.90082e-06
-9.19397e-06
9.8418e-06
8.92513e-05
4.7583e-06
-1.24572e-05
1.3306e-05
8.68663e-05
5.85163e-06
-1.63753e-05
1.73303e-05
8.40384e-05
7.3342e-06
-2.07697e-05
2.17238e-05
8.07675e-05
9.38878e-06
-2.5495e-05
2.6388e-05
7.68081e-05
1.2338e-05
-3.06202e-05
3.15211e-05
7.15234e-05
1.64968e-05
-3.6557e-05
3.77627e-05
6.2697e-05
2.29316e-05
-4.4529e-05
4.72418e-05
4.26631e-05
3.19335e-05
-5.35732e-05
6.28579e-05
2.78598e-05
-4.28156e-05
7.20724e-05
9.71199e-05
-5.09093e-07
5.38503e-07
-7.19419e-08
9.70536e-05
-1.44943e-06
1.49355e-06
6.14653e-07
9.69863e-05
-2.30687e-06
2.34332e-06
1.27106e-06
9.68681e-05
-3.20458e-06
3.26337e-06
1.93568e-06
9.65652e-05
-4.33761e-06
4.49841e-06
2.65682e-06
9.59079e-05
-5.93885e-06
6.29257e-06
3.47995e-06
9.47614e-05
-8.20324e-06
8.79975e-06
4.45076e-06
9.30801e-05
-1.12065e-05
1.20221e-05
5.6241e-06
9.09148e-05
-1.48721e-05
1.58162e-05
7.0728e-06
8.8373e-05
-1.90114e-05
1.99686e-05
8.91879e-06
8.55427e-05
-2.34316e-05
2.43212e-05
1.13295e-05
8.23579e-05
-2.81131e-05
2.89569e-05
1.4679e-05
7.84e-05
-3.32827e-05
3.43163e-05
1.94211e-05
7.20358e-05
-3.99394e-05
4.19487e-05
2.72865e-05
5.4993e-05
-4.86526e-05
5.59901e-05
4.16388e-05
-3.77912e-05
6.48556e-05
5.60711e-05
1.26648e-05
-7.86189e-08
-1.09469e-06
1.24867e-05
8.79746e-08
-2.01997e-06
1.21225e-05
2.47455e-07
-2.66068e-06
1.16337e-05
3.4539e-07
-3.2912e-06
1.10861e-05
3.78614e-07
-3.98478e-06
1.05417e-05
3.52413e-07
-4.75783e-06
1.00461e-05
2.82013e-07
-5.617e-06
9.61722e-06
1.89481e-07
-6.57718e-06
9.24302e-06
9.47027e-08
-7.67359e-06
8.89008e-06
-5.60979e-09
-8.95993e-06
8.51111e-06
-1.30363e-07
-1.05255e-05
8.05461e-06
-3.46571e-07
-1.24781e-05
7.41932e-06
-7.50601e-07
-1.48839e-05
6.27455e-06
-1.36487e-06
-1.75091e-05
3.77477e-06
-1.93762e-06
-1.89147e-05
-1.78308e-06
-1.37e-05
3.53378e-05
-3.47335e-08
-1.25908e-06
3.49758e-05
2.61206e-07
-3.0223e-06
3.43691e-05
5.7555e-07
-4.50841e-06
3.35416e-05
7.9533e-07
-6.02124e-06
3.25647e-05
8.73983e-07
-7.67728e-06
3.15269e-05
8.117e-07
-9.49182e-06
3.04983e-05
6.4632e-07
-1.14445e-05
2.9499e-05
4.43319e-07
-1.35245e-05
2.84842e-05
2.66878e-07
-1.57601e-05
2.73368e-05
1.53589e-07
-1.82442e-05
2.58869e-05
6.48338e-08
-2.11353e-05
2.38854e-05
-1.13325e-07
-2.46569e-05
2.09318e-05
-5.96279e-07
-2.89486e-05
1.62689e-05
-1.531e-06
-3.34549e-05
8.68994e-06
-2.66109e-06
-3.49919e-05
-2.80506e-06
-2.31487e-05
5.4943e-05
-2.35443e-08
-9.94499e-07
5.46165e-05
3.83282e-07
-2.71994e-06
5.40551e-05
8.11972e-07
-4.36276e-06
5.32315e-05
1.14541e-06
-6.15259e-06
5.21544e-05
1.30487e-06
-8.21721e-06
5.08705e-05
1.27187e-06
-1.05802e-05
4.94384e-05
1.09098e-06
-1.31986e-05
4.78882e-05
8.62146e-07
-1.60107e-05
4.61815e-05
7.00306e-07
-1.8979e-05
4.41846e-05
6.94949e-07
-2.21383e-05
4.16423e-05
8.54245e-07
-2.56296e-05
3.81431e-05
1.07783e-06
-2.97121e-05
3.29976e-05
1.12536e-06
-3.46425e-05
2.50411e-05
6.45866e-07
-3.991e-05
1.28113e-05
-5.17212e-07
-4.16492e-05
-1.94872e-06
-2.71116e-05
7.1296e-05
-4.39662e-08
-7.83566e-07
7.10503e-05
4.51531e-07
-2.2322e-06
7.06111e-05
9.6241e-07
-3.66673e-06
6.99174e-05
1.39667e-06
-5.29326e-06
6.89017e-05
1.67394e-06
-7.28078e-06
6.75301e-05
1.76101e-06
-9.71326e-06
6.58078e-05
1.69479e-06
-1.25823e-05
6.37558e-05
1.58333e-06
-1.58111e-05
6.13623e-05
1.57401e-06
-1.92994e-05
5.85203e-05
1.81591e-06
-2.29861e-05
5.49683e-05
2.39059e-06
-2.69186e-05
5.02047e-05
3.28559e-06
-3.13075e-05
4.33345e-05
4.33697e-06
-3.64907e-05
3.27498e-05
5.12223e-06
-4.22018e-05
1.65943e-05
4.67043e-06
-4.44505e-05
1.25294e-06
-2.91095e-05
8.43625e-05
-7.42302e-08
-6.55229e-07
8.41688e-05
4.97762e-07
-1.87721e-06
8.38264e-05
1.07335e-06
-3.06914e-06
8.32687e-05
1.59653e-06
-4.41051e-06
8.23795e-05
2.00999e-06
-6.09897e-06
8.10449e-05
2.28489e-06
-8.294e-06
7.91941e-05
2.44944e-06
-1.107e-05
7.68038e-05
2.60495e-06
-1.43955e-05
7.38653e-05
2.90452e-06
-1.81555e-05
7.03138e-05
3.53326e-06
-2.22155e-05
6.59293e-05
4.65093e-06
-2.65137e-05
6.02037e-05
6.37315e-06
-3.11582e-05
5.21442e-05
8.71094e-06
-3.64867e-05
3.97212e-05
1.14311e-05
-4.25024e-05
2.02744e-05
1.28191e-05
-4.53429e-05
7.25782e-06
-2.99574e-05
9.41494e-05
-9.95047e-08
-5.71324e-07
9.39812e-05
5.3932e-07
-1.64219e-06
9.36991e-05
1.1692e-06
-2.66253e-06
9.32482e-05
1.76966e-06
-3.77209e-06
9.24974e-05
2.31886e-06
-5.16185e-06
9.12835e-05
2.80911e-06
-7.03445e-06
8.94667e-05
3.27177e-06
-9.54136e-06
8.69677e-05
3.79551e-06
-1.27245e-05
8.3759e-05
4.523e-06
-1.65021e-05
7.98001e-05
5.65145e-06
-2.07115e-05
7.49318e-05
7.39538e-06
-2.52089e-05
6.86873e-05
1.00162e-05
-2.99952e-05
6.0083e-05
1.37508e-05
-3.53376e-05
4.6723e-05
1.89236e-05
-4.14861e-05
2.46177e-05
2.37444e-05
-4.48902e-05
1.72488e-05
-2.9762e-05
0.000100665
-1.11532e-07
-5.10651e-07
0.000100512
5.7884e-07
-1.47469e-06
0.000100275
1.24934e-06
-2.38092e-06
9.99128e-05
1.91086e-06
-3.3355e-06
9.92986e-05
2.57974e-06
-4.50532e-06
9.82515e-05
3.27819e-06
-6.1002e-06
9.6594e-05
4.04901e-06
-8.31369e-06
9.42066e-05
4.97158e-06
-1.12459e-05
9.10442e-05
6.16724e-06
-1.48572e-05
8.70895e-05
7.82389e-06
-1.89874e-05
8.22563e-05
1.0179e-05
-2.34455e-05
7.61638e-05
1.36382e-05
-2.81497e-05
6.79464e-05
1.86639e-05
-3.32526e-05
5.50595e-05
2.64924e-05
-3.9211e-05
3.14738e-05
3.68841e-05
-4.31272e-05
3.45515e-05
-2.8375e-05
0.000103913
-4.64954e-07
-1.06536e-07
0.000103778
-1.34696e-06
6.11372e-07
0.00010359
-2.16931e-06
1.29982e-06
0.000103318
-3.0187e-06
1.99768e-06
0.000102844
-4.04166e-06
2.75743e-06
0.00010199
-5.43891e-06
3.63175e-06
0.000100573
-7.41318e-06
4.67633e-06
9.84654e-05
-1.00868e-05
5.95952e-06
9.563e-05
-1.34415e-05
7.5721e-06
9.2095e-05
-1.73204e-05
9.6679e-06
8.7882e-05
-2.1504e-05
1.24643e-05
8.28155e-05
-2.58498e-05
1.64414e-05
7.63446e-05
-3.03718e-05
2.22239e-05
6.63723e-05
-3.5558e-05
3.20834e-05
4.55446e-05
-3.99934e-05
4.90526e-05
-2.54204e-05
6.80242e-05
1.33456e-05
-9.67038e-08
-9.95464e-07
1.31085e-05
5.76258e-08
-1.84055e-06
1.26617e-05
2.1094e-07
-2.42476e-06
1.20658e-05
3.03178e-07
-2.99853e-06
1.13833e-05
3.29154e-07
-3.63145e-06
1.06731e-05
2.92414e-07
-4.34005e-06
9.97872e-06
2.07155e-07
-5.12973e-06
9.31248e-06
9.93416e-08
-6.01028e-06
8.66054e-06
-2.31449e-08
-6.99851e-06
7.97304e-06
-1.39931e-07
-8.13249e-06
7.1901e-06
-2.8161e-07
-9.46093e-06
6.24938e-06
-5.07238e-07
-1.10301e-05
5.0793e-06
-9.01225e-07
-1.28126e-05
3.54905e-06
-1.49376e-06
-1.4485e-05
1.57735e-06
-2.1639e-06
-1.47791e-05
-2.15282e-06
-9.94711e-06
3.72888e-05
-5.82068e-08
-1.12555e-06
3.68297e-05
2.11169e-07
-2.71675e-06
3.6077e-05
5.08737e-07
-4.05357e-06
3.50525e-05
7.13901e-07
-5.40745e-06
3.38197e-05
7.7564e-07
-6.89097e-06
3.24597e-05
6.85125e-07
-8.52448e-06
3.1035e-05
4.80273e-07
-1.02929e-05
2.95578e-05
2.33124e-07
-1.21811e-05
2.79668e-05
7.79415e-09
-1.42e-05
2.61312e-05
-1.51665e-07
-1.63969e-05
2.3855e-05
-2.72445e-07
-1.88683e-05
2.08857e-05
-4.68076e-07
-2.17268e-05
1.69117e-05
-9.37857e-07
-2.4938e-05
1.15921e-05
-1.84524e-06
-2.77838e-05
5.00033e-06
-3.08485e-06
-2.74792e-05
-3.40321e-06
-1.68329e-05
5.80035e-05
-4.84781e-08
-8.78845e-07
5.75825e-05
3.33691e-07
-2.42155e-06
5.68709e-05
7.43946e-07
-3.88637e-06
5.58397e-05
1.06179e-06
-5.46922e-06
5.44863e-05
1.20236e-06
-7.2905e-06
5.2841e-05
1.13556e-06
-9.38533e-06
5.09444e-05
9.03504e-07
-1.17253e-05
4.88122e-05
6.0926e-07
-1.42546e-05
4.63857e-05
3.83507e-07
-1.69282e-05
4.35079e-05
3.28389e-07
-1.97405e-05
3.98967e-05
4.6636e-07
-2.27572e-05
3.51287e-05
7.04556e-07
-2.61167e-05
2.86078e-05
7.95475e-07
-2.9855e-05
1.96756e-05
3.86695e-07
-3.32097e-05
8.47231e-06
-8.30395e-07
-3.27004e-05
-2.38901e-06
-1.95452e-05
7.52801e-05
-7.06322e-08
-6.89329e-07
7.49503e-05
4.1161e-07
-1.98034e-06
7.43726e-05
9.11567e-07
-3.25658e-06
7.34881e-05
1.33848e-06
-4.68553e-06
7.22202e-05
1.60579e-06
-6.4163e-06
7.05114e-05
1.66889e-06
-8.53776e-06
6.83353e-05
1.56046e-06
-1.10631e-05
6.56806e-05
1.38846e-06
-1.39356e-05
6.25071e-05
1.31777e-06
-1.70601e-05
5.86789e-05
1.52348e-06
-2.0353e-05
5.3906e-05
2.11383e-06
-2.37932e-05
4.76657e-05
3.09193e-06
-2.74546e-05
3.91239e-05
4.29065e-06
-3.14441e-05
2.71967e-05
5.26118e-06
-3.5149e-05
1.19018e-05
4.8611e-06
-3.48471e-05
1.33346e-06
-2.07756e-05
8.90837e-05
-1.03021e-07
-5.75632e-07
8.88142e-05
4.69311e-07
-1.66548e-06
8.83426e-05
1.0455e-06
-2.73147e-06
8.76102e-05
1.57317e-06
-3.91278e-06
8.64985e-05
1.99192e-06
-5.37343e-06
8.48712e-05
2.26469e-06
-7.26249e-06
8.26167e-05
2.41292e-06
-9.66791e-06
7.96614e-05
2.53654e-06
-1.25883e-05
7.59477e-05
2.80789e-06
-1.59319e-05
7.13711e-05
3.44022e-06
-1.95557e-05
6.56796e-05
4.63248e-06
-2.33407e-05
5.83454e-05
6.53539e-06
-2.72675e-05
4.84046e-05
9.18047e-06
-3.14358e-05
3.43101e-05
1.2286e-05
-3.54328e-05
1.54446e-05
1.38889e-05
-3.55053e-05
8.22199e-06
-2.12012e-05
9.94223e-05
-1.30076e-07
-5.01663e-07
9.91852e-05
5.21808e-07
-1.45755e-06
9.87806e-05
1.1644e-06
-2.37686e-06
9.81643e-05
1.78127e-06
-3.3639e-06
9.72118e-05
2.35084e-06
-4.56832e-06
9.57464e-05
2.86147e-06
-6.16576e-06
9.35873e-05
3.34004e-06
-8.30939e-06
9.05913e-05
3.8776e-06
-1.10696e-05
8.66636e-05
4.63149e-06
-1.4398e-05
8.17062e-05
5.82911e-06
-1.8143e-05
7.55193e-05
7.72987e-06
-2.21195e-05
6.76219e-05
1.06478e-05
-2.62102e-05
5.70408e-05
1.48823e-05
-3.04584e-05
4.17679e-05
2.0732e-05
-3.46592e-05
1.98896e-05
2.60718e-05
-3.51948e-05
1.95505e-05
-2.09587e-05
0.000106304
-1.42629e-07
-4.48321e-07
0.000106089
5.71596e-07
-1.30899e-06
0.000105736
1.26602e-06
-2.12975e-06
0.000105216
1.95451e-06
-2.98824e-06
0.000104415
2.65568e-06
-4.00909e-06
0.000103148
3.39269e-06
-5.36518e-06
0.000101204
4.20991e-06
-7.23964e-06
9.83976e-05
5.1931e-06
-9.75457e-06
9.46036e-05
6.47807e-06
-1.29097e-05
8.97336e-05
8.28157e-06
-1.65699e-05
8.36532e-05
1.08864e-05
-2.05216e-05
7.59698e-05
1.47626e-05
-2.45811e-05
6.5836e-05
2.04723e-05
-2.87088e-05
5.09533e-05
2.93233e-05
-3.29196e-05
2.71997e-05
4.07337e-05
-3.40355e-05
3.86991e-05
-2.00444e-05
0.000109736
-4.0809e-07
-1.3628e-07
0.000109542
-1.19565e-06
6.14078e-07
0.000109245
-1.94277e-06
1.33597e-06
0.000108824
-2.71227e-06
2.06917e-06
0.000108179
-3.6101e-06
2.86943e-06
0.000107134
-4.79666e-06
3.79504e-06
0.000105479
-6.4577e-06
4.90985e-06
0.000103025
-8.73328e-06
6.29363e-06
9.96556e-05
-1.16464e-05
8.05224e-06
9.53259e-05
-1.50746e-05
1.03654e-05
9.00128e-05
-1.87939e-05
1.34895e-05
8.35331e-05
-2.25839e-05
1.79764e-05
7.5389e-05
-2.63145e-05
2.45591e-05
6.35766e-05
-3.01397e-05
3.57174e-05
4.22168e-05
-3.21028e-05
5.4203e-05
-1.82029e-05
7.40078e-05
1.391e-05
-1.12679e-07
-8.5338e-07
1.36184e-05
3.08427e-08
-1.57981e-06
1.3097e-05
1.77868e-07
-2.08122e-06
1.24062e-05
2.64497e-07
-2.57221e-06
1.16062e-05
2.82944e-07
-3.11443e-06
1.07533e-05
2.36113e-07
-3.72327e-06
9.88953e-06
1.35883e-07
-4.40184e-06
9.03004e-06
3.67844e-09
-5.15447e-06
8.15505e-06
-1.33898e-07
-5.98962e-06
7.21702e-06
-2.7003e-07
-6.92443e-06
6.15851e-06
-4.22641e-07
-7.97979e-06
4.93414e-06
-6.43302e-07
-9.16244e-06
3.52932e-06
-1.00276e-06
-1.0405e-05
1.97923e-06
-1.53502e-06
-1.13999e-05
5.59824e-07
-2.18268e-06
-1.1177e-05
-2.15997e-06
-7.20379e-06
3.89121e-05
-7.82966e-08
-9.5179e-07
3.83657e-05
1.67998e-07
-2.30751e-06
3.74827e-05
4.50285e-07
-3.44299e-06
3.6285e-05
6.42237e-07
-4.58753e-06
3.4832e-05
6.85572e-07
-5.84057e-06
3.31978e-05
5.71495e-07
-7.22562e-06
3.14404e-05
3.30957e-07
-8.73061e-06
2.95663e-05
3.46418e-08
-1.03379e-05
2.75129e-05
-2.37666e-07
-1.20428e-05
2.51446e-05
-4.34448e-07
-1.38642e-05
2.22723e-05
-5.717e-07
-1.5847e-05
1.86867e-05
-7.56794e-07
-1.80277e-05
1.42066e-05
-1.1643e-06
-2.02963e-05
8.82277e-06
-1.95772e-06
-2.19773e-05
3.21312e-06
-3.13092e-06
-2.09213e-05
-3.467e-06
-1.22453e-05
6.05528e-05
-6.97243e-08
-7.36438e-07
6.00483e-05
2.92002e-07
-2.04103e-06
5.92034e-05
6.8623e-07
-3.27743e-06
5.79899e-05
9.90792e-07
-4.60431e-06
5.63978e-05
1.11341e-06
-6.12621e-06
5.44462e-05
1.0172e-06
-7.87946e-06
5.21627e-05
7.38219e-07
-9.84914e-06
4.95489e-05
3.81751e-07
-1.19879e-05
4.65391e-05
8.93617e-08
-1.42454e-05
4.29701e-05
-1.25115e-08
-1.65935e-05
3.85597e-05
1.28763e-07
-1.90472e-05
3.29385e-05
3.94845e-07
-2.16472e-05
2.56634e-05
5.86827e-07
-2.4331e-05
1.64999e-05
3.38181e-07
-2.63421e-05
6.36625e-06
-7.54276e-07
-2.49434e-05
-2.36562e-06
-1.41682e-05
7.85999e-05
-9.3351e-08
-5.75587e-07
7.81969e-05
3.78918e-07
-1.66424e-06
7.74965e-05
8.7007e-07
-2.73999e-06
7.64434e-05
1.29126e-06
-3.93288e-06
7.49557e-05
1.55052e-06
-5.36568e-06
7.29593e-05
1.59692e-06
-7.12111e-06
7.04055e-05
1.45013e-06
-9.22126e-06
6.7257e-05
1.22265e-06
-1.1628e-05
6.3451e-05
1.09321e-06
-1.42579e-05
5.88411e-05
1.26055e-06
-1.70162e-05
5.31486e-05
1.86698e-06
-1.98388e-05
4.58828e-05
2.93138e-06
-2.27253e-05
3.63646e-05
4.30032e-06
-2.56394e-05
2.39675e-05
5.50406e-06
-2.79177e-05
9.67209e-06
5.26331e-06
-2.65694e-05
1.66342e-06
-1.49727e-05
9.30179e-05
-1.27633e-07
-4.80164e-07
9.26836e-05
4.46897e-07
-1.39918e-06
9.20985e-05
1.02478e-06
-2.30107e-06
9.12098e-05
1.55753e-06
-3.29039e-06
8.98995e-05
1.98314e-06
-4.49573e-06
8.80194e-05
2.25775e-06
-6.04318e-06
8.54274e-05
2.39428e-06
-8.02005e-06
8.2011e-05
2.49203e-06
-1.04413e-05
7.76758e-05
2.73364e-06
-1.32371e-05
7.22917e-05
3.36198e-06
-1.6273e-05
6.56098e-05
4.61182e-06
-1.94037e-05
5.71425e-05
6.66908e-06
-2.25379e-05
4.60609e-05
9.58411e-06
-2.56379e-05
3.12734e-05
1.30365e-05
-2.81777e-05
1.32268e-05
1.48816e-05
-2.7077e-05
9.10664e-06
-1.52115e-05
0.000103816
-1.56162e-07
-4.18358e-07
0.000103521
5.09257e-07
-1.2245e-06
0.00010301
1.16457e-06
-2.00585e-06
0.000102245
1.79741e-06
-2.83917e-06
0.000101109
2.38743e-06
-3.83647e-06
9.94199e-05
2.9199e-06
-5.13868e-06
9.69707e-05
3.41691e-06
-6.88279e-06
9.35717e-05
3.96879e-06
-9.1474e-06
8.90737e-05
4.74322e-06
-1.19095e-05
8.33381e-05
5.99276e-06
-1.50382e-05
7.61556e-05
8.01464e-06
-1.83398e-05
6.70866e-05
1.11672e-05
-2.16393e-05
5.52772e-05
1.579e-05
-2.48549e-05
3.91294e-05
2.21466e-05
-2.76215e-05
1.78283e-05
2.78853e-05
-2.68974e-05
2.12498e-05
-1.50244e-05
0.000111004
-1.68991e-07
-3.73885e-07
0.000110735
5.68395e-07
-1.09959e-06
0.000110283
1.28584e-06
-1.79912e-06
0.000109622
2.00016e-06
-2.52953e-06
0.000108648
2.73262e-06
-3.38069e-06
0.000107181
3.50734e-06
-4.48576e-06
0.00010499
4.36916e-06
-6.00068e-06
0.000101843
5.40744e-06
-8.04644e-06
9.75548e-05
6.76828e-06
-1.06461e-05
9.19806e-05
8.69025e-06
-1.36932e-05
8.49641e-05
1.14905e-05
-1.6981e-05
7.61496e-05
1.56855e-05
-2.02849e-05
6.47997e-05
2.18949e-05
-2.34639e-05
4.89402e-05
3.14334e-05
-2.63469e-05
2.54783e-05
4.34819e-05
-2.61703e-05
4.14243e-05
-1.44535e-05
0.000114587
-3.40293e-07
-1.61245e-07
0.000114344
-1.00434e-06
6.19927e-07
0.000113956
-1.6421e-06
1.37363e-06
0.000113403
-2.3e-06
2.14082e-06
0.000112598
-3.0526e-06
2.98008e-06
0.000111375
-4.02018e-06
3.9541e-06
0.00010951
-5.35704e-06
5.13301e-06
0.000106776
-7.1971e-06
6.60551e-06
0.000102994
-9.58505e-06
8.48876e-06
9.80607e-05
-1.24323e-05
1.09814e-05
9.19252e-05
-1.5534e-05
1.43661e-05
8.44339e-05
-1.86468e-05
1.92397e-05
7.51952e-05
-2.15729e-05
2.63921e-05
6.24124e-05
-2.43017e-05
3.83781e-05
4.10408e-05
-2.49881e-05
5.77388e-05
-1.32622e-05
7.78414e-05
1.43597e-05
-1.26088e-07
-6.74595e-07
1.40205e-05
9.95001e-09
-1.25052e-06
1.34356e-05
1.49792e-07
-1.64619e-06
1.26649e-05
2.3163e-07
-2.03308e-06
1.17674e-05
2.43595e-07
-2.46059e-06
1.07985e-05
1.86851e-07
-2.94115e-06
9.79954e-06
7.4576e-08
-3.47748e-06
8.78857e-06
-7.5405e-08
-4.06809e-06
7.74751e-06
-2.31922e-07
-4.71663e-06
6.63436e-06
-3.83688e-07
-5.4276e-06
5.40207e-06
-5.42596e-07
-6.2049e-06
4.02745e-06
-7.51133e-07
-7.03668e-06
2.54356e-06
-1.06927e-06
-7.85187e-06
1.08357e-06
-1.53288e-06
-8.40707e-06
5.64552e-08
-2.12202e-06
-8.02789e-06
-2.0838e-06
-5.03958e-06
4.02089e-05
-9.46954e-08
-7.44326e-07
3.95886e-05
1.32759e-07
-1.8101e-06
3.85951e-05
4.01884e-07
-2.70159e-06
3.72529e-05
5.82363e-07
-3.59603e-06
3.56178e-05
6.1223e-07
-4.57414e-06
3.37613e-05
4.7457e-07
-5.65684e-06
3.17382e-05
2.02522e-07
-6.83545e-06
2.95541e-05
-1.34688e-07
-8.09457e-06
2.71484e-05
-4.48641e-07
-9.42038e-06
2.4392e-05
-6.77426e-07
-1.0814e-05
2.1116e-05
-8.24958e-07
-1.22887e-05
1.71601e-05
-9.81464e-07
-1.38415e-05
1.24548e-05
-1.30888e-06
-1.53514e-05
7.19414e-06
-1.96827e-06
-1.62812e-05
2.28827e-06
-3.02699e-06
-1.51105e-05
-3.36256e-06
-8.60944e-06
6.25915e-05
-8.69718e-08
-5.72018e-07
6.20171e-05
2.58504e-07
-1.5923e-06
6.10601e-05
6.39642e-07
-2.55823e-06
5.96938e-05
9.33316e-07
-3.58897e-06
5.79056e-05
1.04126e-06
-4.76698e-06
5.5705e-05
9.21797e-07
-6.12612e-06
5.31126e-05
6.02701e-07
-7.65689e-06
5.01212e-05
1.92474e-07
-9.32368e-06
4.66624e-05
-1.55311e-07
-1.10799e-05
4.25773e-05
-2.97711e-07
-1.28882e-05
3.76077e-05
-1.67652e-07
-1.47349e-05
3.1435e-05
1.57458e-07
-1.66135e-05
2.37641e-05
4.62608e-07
-1.84316e-05
1.4632e-05
3.90385e-07
-1.95687e-05
5.27547e-06
-5.49862e-07
-1.8064e-05
-2.18702e-06
-9.95364e-06
8.12556e-05
-1.11873e-07
-4.45924e-07
8.07921e-05
3.53178e-07
-1.29545e-06
7.99892e-05
8.37578e-07
-2.135e-06
7.87946e-05
1.25456e-06
-3.05954e-06
7.71234e-05
1.50932e-06
-4.16257e-06
7.48929e-05
1.54201e-06
-5.5108e-06
7.20372e-05
1.36593e-06
-7.12882e-06
6.85015e-05
1.09195e-06
-8.99174e-06
6.42096e-05
9.11209e-07
-1.10326e-05
5.90153e-05
1.04454e-06
-1.31641e-05
5.26569e-05
1.6623e-06
-1.53104e-05
4.47114e-05
2.8088e-06
-1.74312e-05
3.4636e-05
4.33654e-06
-1.94379e-05
2.21169e-05
5.76001e-06
-2.07682e-05
8.54058e-06
5.69442e-06
-1.92373e-05
2.03465e-06
-1.04905e-05
9.61651e-05
-1.4776e-07
-3.71734e-07
9.5778e-05
4.2981e-07
-1.08866e-06
9.50988e-05
1.00991e-06
-1.79426e-06
9.40785e-05
1.54767e-06
-2.56317e-06
9.26009e-05
1.98068e-06
-3.48951e-06
9.05111e-05
2.25919e-06
-4.67057e-06
8.76479e-05
2.3892e-06
-6.18011e-06
8.38714e-05
2.46657e-06
-8.0394e-06
7.90606e-05
2.6831e-06
-1.01983e-05
7.30726e-05
3.30433e-06
-1.25448e-05
6.56749e-05
4.5959e-06
-1.49395e-05
5.64402e-05
6.77527e-06
-1.72697e-05
4.46767e-05
9.90637e-06
-1.94443e-05
2.96098e-05
1.36384e-05
-2.09891e-05
1.2154e-05
1.57016e-05
-1.96283e-05
9.82723e-06
-1.06394e-05
0.000107331
-1.77471e-07
-3.23844e-07
0.000106988
5.0052e-07
-9.52622e-07
0.00010639
1.16744e-06
-1.56556e-06
0.000105502
1.81447e-06
-2.21704e-06
0.000104209
2.42309e-06
-2.98633e-06
0.000102331
2.97651e-06
-3.97764e-06
9.9645e-05
3.49224e-06
-5.30021e-06
9.59307e-05
4.05854e-06
-7.02507e-06
9.09999e-05
4.8496e-06
-9.14528e-06
8.46871e-05
6.13676e-06
-1.15578e-05
7.67875e-05
8.24686e-06
-1.40911e-05
6.6918e-05
1.15726e-05
-1.65671e-05
5.43528e-05
1.6478e-05
-1.88613e-05
3.77882e-05
2.31955e-05
-2.0614e-05
1.69027e-05
2.92329e-05
-1.95432e-05
2.248e-05
-1.05203e-05
0.000114763
-1.90416e-07
-2.89438e-07
0.000114451
5.67629e-07
-8.55363e-07
0.000113919
1.30548e-06
-1.40485e-06
0.00011314
2.04254e-06
-1.9788e-06
0.000112019
2.80282e-06
-2.63918e-06
0.00011038
3.61145e-06
-3.4813e-06
0.000107983
4.51323e-06
-4.62514e-06
0.00010457
5.59922e-06
-6.17343e-06
9.99088e-05
7.02185e-06
-8.15755e-06
9.38178e-05
9.03494e-06
-1.05004e-05
8.6131e-05
1.19796e-05
-1.30271e-05
7.65397e-05
1.6404e-05
-1.55249e-05
6.44236e-05
2.29587e-05
-1.78285e-05
4.80526e-05
3.29477e-05
-1.97282e-05
2.48049e-05
4.54175e-05
-1.91072e-05
4.33033e-05
-1.01792e-05
0.000118468
-2.63417e-07
-1.81374e-07
0.000118185
-7.8124e-07
6.26876e-07
0.000117723
-1.28257e-06
1.4085e-06
0.000117061
-1.80114e-06
2.2057e-06
0.000116119
-2.38752e-06
3.07953e-06
0.00011474
-3.12598e-06
4.09603e-06
0.000112699
-4.13294e-06
5.33005e-06
0.000109744
-5.51958e-06
6.87678e-06
0.000105655
-7.33486e-06
8.8611e-06
0.000100283
-9.51975e-06
1.14942e-05
9.35612e-05
-1.19074e-05
1.50748e-05
8.53702e-05
-1.42778e-05
2.02261e-05
7.54215e-05
-1.64304e-05
2.77649e-05
6.20865e-05
-1.82945e-05
4.02756e-05
4.07322e-05
-1.83951e-05
6.01788e-05
-9.40935e-06
8.05054e-05
1.46952e-05
-1.36306e-07
-4.66366e-07
1.43189e-05
-8.47969e-09
-8.65736e-07
1.36838e-05
1.27859e-07
-1.13888e-06
1.28506e-05
2.05626e-07
-1.40559e-06
1.18783e-05
2.12168e-07
-1.7004e-06
1.08207e-05
1.48549e-07
-2.0321e-06
9.72237e-06
2.22541e-08
-2.40141e-06
8.60107e-06
-1.39504e-07
-2.80729e-06
7.44455e-06
-3.11299e-07
-3.24881e-06
6.21719e-06
-4.75096e-07
-3.72515e-06
4.88305e-06
-6.37474e-07
-4.23329e-06
3.4371e-06
-8.3284e-07
-4.75789e-06
1.94346e-06
-1.11417e-06
-5.24406e-06
5.82035e-07
-1.51811e-06
-5.52754e-06
-2.11921e-07
-2.0488e-06
-5.18513e-06
-2.00967e-06
-3.21765e-06
4.11805e-05
-1.07201e-07
-5.10556e-07
4.05016e-05
1.0542e-07
-1.24508e-06
3.94218e-05
3.64816e-07
-1.85879e-06
3.79673e-05
5.36235e-07
-2.47218e-06
3.61927e-05
5.55123e-07
-3.1425e-06
3.41683e-05
4.00573e-07
-3.88446e-06
3.19465e-05
1.02291e-07
-4.69369e-06
2.95366e-05
-2.67364e-07
-5.55674e-06
2.68805e-05
-6.14701e-07
-6.46087e-06
2.38593e-05
-8.68262e-07
-7.39958e-06
2.03255e-05
-1.02076e-06
-8.37171e-06
1.61593e-05
-1.14663e-06
-9.36151e-06
1.13685e-05
-1.40038e-06
-1.02743e-05
6.25662e-06
-1.9421e-06
-1.07453e-05
1.80945e-06
-2.89929e-06
-9.81283e-06
-3.2327e-06
-5.50732e-06
6.41199e-05
-1.00037e-07
-3.90447e-07
6.34908e-05
2.33337e-07
-1.09116e-06
6.24467e-05
6.04673e-07
-1.7539e-06
6.0962e-05
8.90158e-07
-2.4582e-06
5.90222e-05
9.88725e-07
-3.26082e-06
5.66336e-05
8.50217e-07
-4.18719e-06
5.38103e-05
5.00555e-07
-5.23179e-06
5.0542e-05
4.8609e-08
-6.37139e-06
4.67604e-05
-3.43178e-07
-7.56982e-06
4.2315e-05
-5.16897e-07
-8.79422e-06
3.69745e-05
-3.92114e-07
-1.0023e-05
3.04599e-05
-1.14261e-08
-1.12341e-05
2.25909e-05
3.89424e-07
-1.23523e-05
1.35522e-05
4.71988e-07
-1.2944e-05
4.71363e-06
-3.69951e-07
-1.17548e-05
-1.98848e-06
-6.36806e-06
8.32468e-05
-1.25946e-07
-3.03779e-07
8.27368e-05
3.34206e-07
-8.86303e-07
8.18545e-05
8.13874e-07
-1.46185e-06
8.05496e-05
1.22815e-06
-2.09262e-06
7.87369e-05
1.48023e-06
-2.84138e-06
7.63276e-05
1.50387e-06
-3.75516e-06
7.32461e-05
1.30658e-06
-4.85335e-06
6.94259e-05
9.97433e-07
-6.12037e-06
6.47839e-05
7.76853e-07
-7.51065e-06
5.91777e-05
8.83315e-07
-8.95811e-06
5.23658e-05
1.50853e-06
-1.03991e-05
4.39903e-05
2.72159e-06
-1.17887e-05
3.36032e-05
4.37587e-06
-1.30372e-05
2.10868e-05
5.97605e-06
-1.37559e-05
7.95944e-06
6.0548e-06
-1.25348e-05
2.35093e-06
-6.7049e-06
9.85251e-05
-1.63102e-07
-2.53079e-07
9.80976e-05
4.17573e-07
-7.4452e-07
9.73462e-05
9.99935e-07
-1.22892e-06
9.62236e-05
1.54209e-06
-1.75455e-06
9.46157e-05
1.98178e-06
-2.38313e-06
9.23642e-05
2.26487e-06
-3.1801e-06
8.92964e-05
2.39253e-06
-4.19826e-06
8.52554e-05
2.45513e-06
-5.4561e-06
8.01025e-05
2.65363e-06
-6.92213e-06
7.36901e-05
3.26683e-06
-8.5159e-06
6.58033e-05
4.58624e-06
-1.01304e-05
5.60713e-05
6.85392e-06
-1.167e-05
4.39064e-05
1.01428e-05
-1.30463e-05
2.8729e-05
1.40813e-05
-1.39169e-05
1.16394e-05
1.63165e-05
-1.28004e-05
1.03624e-05
-6.79799e-06
0.000109966
-1.93706e-07
-2.2044e-07
0.000109588
4.94771e-07
-6.51396e-07
0.000108924
1.17131e-06
-1.07279e-06
0.000107939
1.82987e-06
-1.51983e-06
0.000106524
2.45376e-06
-2.04337e-06
0.000104498
3.02502e-06
-2.71163e-06
0.000101632
3.55756e-06
-3.59943e-06
9.76849e-05
4.13688e-06
-4.75977e-06
9.2445e-05
4.9411e-06
-6.19282e-06
8.57288e-05
6.254e-06
-7.82881e-06
7.73405e-05
8.42401e-06
-9.54057e-06
6.69469e-05
1.18686e-05
-1.11882e-05
5.39227e-05
1.69665e-05
-1.26609e-05
3.71481e-05
2.39293e-05
-1.36874e-05
1.65061e-05
3.01828e-05
-1.27675e-05
2.33372e-05
-6.73118e-06
0.000117582
-2.06689e-07
-1.97023e-07
0.000117238
5.68115e-07
-5.84858e-07
0.000116645
1.32247e-06
-9.62879e-07
0.000115776
2.07781e-06
-1.35792e-06
0.000114539
2.86053e-06
-1.80916e-06
0.000112763
3.6968e-06
-2.37754e-06
0.000110208
4.63125e-06
-3.14344e-06
0.000106596
5.75543e-06
-4.18042e-06
0.000101671
7.22516e-06
-5.51612e-06
9.52218e-05
9.304e-06
-7.10122e-06
8.70805e-05
1.23486e-05
-8.81029e-06
7.69782e-05
1.69276e-05
-1.04817e-05
6.43861e-05
2.37082e-05
-1.1978e-05
4.7731e-05
3.39845e-05
-1.31283e-05
2.45903e-05
4.67375e-05
-1.25212e-05
4.45818e-05
-6.53706e-06
0.000121378
-1.79304e-07
-1.96578e-07
0.000121065
-5.34175e-07
6.33401e-07
0.000120547
-8.79182e-07
1.43739e-06
0.000119802
-1.23674e-06
2.25871e-06
0.000118753
-1.63858e-06
3.16037e-06
0.000117251
-2.13773e-06
4.21093e-06
0.000115071
-2.81114e-06
5.48857e-06
0.000111952
-3.73724e-06
7.09289e-06
0.000107644
-4.95586e-06
9.15355e-06
0.000101971
-6.432e-06
1.18894e-05
9.48536e-05
-8.04888e-06
1.56077e-05
8.62e-05
-9.64349e-06
2.09469e-05
7.58002e-05
-1.10572e-05
2.87348e-05