/*--------------------------------*- C++ -*----------------------------------*\
| =========                 |                                                 |
| \\      /  F ield         | foam-extend: Open Source CFD                    |
|  \\    /   O peration     | Version:     3.1                                |
|   \\  /    A nd           | Web:         http://www.extend-project.de       |
|    \\/     M anipulation  |                                                 |
\*---------------------------------------------------------------------------*/
FoamFile
{
    version     2.0;
    format      ascii;
    class       pointVectorField;
    location    "2.8";
    object      pointMotionU;
}
// * * * * * * * * * * * * * * * * * * * * * * * * * * * * * * * * * * * * * //

dimensions      [0 1 -1 0 0 0 0];

internalField   nonuniform List<vector> 
16859
(
(0 0 0)
(0 0 0)
(0 0 0)
(0 0 0)
(0 0 0)
(0 0 0)
(0 0 0)
(0 0 0)
(0 0 0)
(0 0 0)
(0 0 0)
(0 0 0)
(0 0 0)
(0 0 0)
(0 0 0)
(0 0 0)
(0 0 0)
(0 0 0)
(-1.0974e-10 -5.48502e-11 1.96764e-11)
(-2.10795e-10 -1.06771e-10 3.87395e-11)
(-3.01875e-10 -1.56264e-10 5.77463e-11)
(-3.84911e-10 -2.05159e-10 7.76635e-11)
(-4.61326e-10 -2.548e-10 9.92137e-11)
(-5.31997e-10 -3.06039e-10 1.22821e-10)
(-5.97191e-10 -3.59177e-10 1.48468e-10)
(-6.56462e-10 -4.13828e-10 1.75424e-10)
(-7.08573e-10 -4.68758e-10 2.01771e-10)
(-7.51542e-10 -5.2166e-10 2.23679e-10)
(-7.8306e-10 -5.68981e-10 2.34399e-10)
(-8.01581e-10 -6.05964e-10 2.23238e-10)
(-8.08279e-10 -6.27117e-10 1.75613e-10)
(-8.09398e-10 -6.27278e-10 7.76568e-11)
(-8.15196e-10 -5.98145e-10 -6.82599e-11)
(-1.14595e-09 -6.13655e-10 -3.55944e-10)
(0 0 0)
(-2.18114e-10 -1.07584e-10 3.90033e-11)
(-4.19002e-10 -2.09412e-10 7.68127e-11)
(-6.00184e-10 -3.06474e-10 1.14568e-10)
(-7.65616e-10 -4.02367e-10 1.54247e-10)
(-9.18285e-10 -4.99728e-10 1.97394e-10)
(-1.0602e-09 -6.00255e-10 2.45057e-10)
(-1.19233e-09 -7.04577e-10 2.97588e-10)
(-1.31446e-09 -8.12037e-10 3.54231e-10)
(-1.42516e-09 -9.20384e-10 4.12426e-10)
(-1.52204e-09 -1.02537e-09 4.66726e-10)
(-1.60283e-09 -1.12044e-09 5.07361e-10)
(-1.66827e-09 -1.19677e-09 5.18933e-10)
(-1.7278e-09 -1.24408e-09 4.81217e-10)
(-1.80752e-09 -1.25213e-09 3.7737e-10)
(-1.94285e-09 -1.20136e-09 2.12189e-10)
(-3.72337e-09 -1.18536e-09 4.5285e-10)
(0 0 0)
(-3.23929e-10 -1.56288e-10 5.76642e-11)
(-6.22359e-10 -3.04196e-10 1.13608e-10)
(-8.91778e-10 -4.45173e-10 1.6959e-10)
(-1.13831e-09 -5.84447e-10 2.28665e-10)
(-1.36676e-09 -7.25869e-10 2.93352e-10)
(-1.58069e-09 -8.71943e-10 3.65641e-10)
(-1.78249e-09 -1.02366e-09 4.46859e-10)
(-1.97328e-09 -1.18026e-09 5.37346e-10)
(-2.15317e-09 -1.33876e-09 6.35885e-10)
(-2.32177e-09 -1.4935e-09 7.38841e-10)
(-2.48003e-09 -1.63563e-09 8.39031e-10)
(-2.63451e-09 -1.75298e-09 9.2482e-10)
(-2.80591e-09 -1.83059e-09 9.81064e-10)
(-3.04008e-09 -1.85117e-09 9.95695e-10)
(-3.38858e-09 -1.77943e-09 9.6263e-10)
(-6.58009e-09 -1.60561e-09 2.07659e-09)
(0 0 0)
(-4.25848e-10 -1.99182e-10 7.53166e-11)
(-8.18313e-10 -3.87665e-10 1.48449e-10)
(-1.17302e-09 -5.67299e-10 2.21798e-10)
(-1.49839e-09 -7.44758e-10 2.99536e-10)
(-1.80128e-09 -9.24974e-10 3.85289e-10)
(-2.08727e-09 -1.11116e-09 4.8229e-10)
(-2.36088e-09 -1.30468e-09 5.9342e-10)
(-2.62582e-09 -1.50474e-09 7.21187e-10)
(-2.88553e-09 -1.70793e-09 8.67628e-10)
(-3.1442e-09 -1.90761e-09 1.03418e-09)
(-3.40915e-09 -2.09325e-09 1.22156e-09)
(-3.69521e-09 -2.25001e-09 1.42962e-09)
(-4.03205e-09 -2.35843e-09 1.65695e-09)
(-4.47002e-09 -2.39325e-09 1.89842e-09)
(-5.04445e-09 -2.3028e-09 2.11637e-09)
(-9.22431e-09 -2.039e-09 4.14525e-09)
(0 0 0)
(-5.22471e-10 -2.34704e-10 9.16144e-11)
(-1.00415e-09 -4.56788e-10 1.80635e-10)
(-1.43994e-09 -6.68433e-10 2.70085e-10)
(-1.84057e-09 -8.77509e-10 3.65235e-10)
(-2.21509e-09 -1.08982e-09 4.70863e-10)
(-2.57138e-09 -1.30915e-09 5.91584e-10)
(-2.91659e-09 -1.53715e-09 7.32152e-10)
(-3.25785e-09 -1.773e-09 8.97839e-10)
(-3.60327e-09 -2.0129e-09 1.09502e-09)
(-3.96373e-09 -2.24943e-09 1.3321e-09)
(-4.35581e-09 -2.47081e-09 1.62093e-09)
(-4.80625e-09 -2.66013e-09 1.97816e-09)
(-5.35597e-09 -2.79453e-09 2.42375e-09)
(-6.05348e-09 -2.84289e-09 2.96605e-09)
(-6.89029e-09 -2.74269e-09 3.52961e-09)
(-1.17547e-08 -2.42565e-09 6.54038e-09)
(0 0 0)
(-6.12369e-10 -2.61565e-10 1.06227e-10)
(-1.17707e-09 -5.09066e-10 2.09481e-10)
(-1.68833e-09 -7.44933e-10 3.13338e-10)
(-2.1591e-09 -9.77935e-10 4.24056e-10)
(-2.60052e-09 -1.21449e-09 5.47473e-10)
(-3.02271e-09 -1.45876e-09 6.89499e-10)
(-3.43551e-09 -1.71249e-09 8.56662e-10)
(-3.84953e-09 -1.97468e-09 1.05688e-09)
(-4.27778e-09 -2.24105e-09 1.30065e-09)
(-4.7382e-09 -2.50327e-09 1.60304e-09)
(-5.25788e-09 -2.74815e-09 1.98678e-09)
(-5.87895e-09 -2.9568e-09 2.48603e-09)
(-6.66315e-09 -3.10378e-09 3.14696e-09)
(-7.67732e-09 -3.15507e-09 4.00667e-09)
(-8.88428e-09 -3.04597e-09 4.97732e-09)
(-1.45563e-08 -2.74731e-09 9.29269e-09)
(0 0 0)
(-6.94178e-10 -2.78793e-10 1.18874e-10)
(-1.33437e-09 -5.42624e-10 2.34401e-10)
(-1.91415e-09 -7.94086e-10 3.50583e-10)
(-2.44832e-09 -1.0425e-09 4.7447e-10)
(-2.94982e-09 -1.29464e-09 6.12725e-10)
(-3.43063e-09 -1.55478e-09 7.72234e-10)
(-3.90271e-09 -1.82459e-09 9.6081e-10)
(-4.3793e-09 -2.10268e-09 1.18817e-09)
(-4.87687e-09 -2.384e-09 1.46746e-09)
(-5.41812e-09 -2.65897e-09 1.81774e-09)
(-6.03693e-09 -2.91245e-09 2.26796e-09)
(-6.78608e-09 -3.12283e-09 2.86255e-09)
(-7.74634e-09 -3.26156e-09 3.66632e-09)
(-9.0205e-09 -3.29354e-09 4.75174e-09)
(-1.061e-08 -3.16475e-09 6.07733e-09)
(-1.8227e-08 -2.6937e-09 1.19949e-08)
(0 0 0)
(-7.66601e-10 -2.85752e-10 1.29345e-10)
(-1.47354e-09 -5.56243e-10 2.54957e-10)
(-2.11358e-09 -8.14155e-10 3.81094e-10)
(-2.70297e-09 -1.069e-09 5.15333e-10)
(-3.25591e-09 -1.32763e-09 6.64832e-10)
(-3.78553e-09 -1.59424e-09 8.36981e-10)
(-4.30491e-09 -1.87023e-09 1.04013e-09)
(-4.82836e-09 -2.15366e-09 1.28454e-09)
(-5.37313e-09 -2.4386e-09 1.58378e-09)
(-5.96192e-09 -2.71398e-09 1.95685e-09)
(-6.62664e-09 -2.96237e-09 2.43115e-09)
(-7.41327e-09 -3.15871e-09 3.04606e-09)
(-8.38556e-09 -3.26942e-09 3.85368e-09)
(-9.61221e-09 -3.2533e-09 4.90216e-09)
(-1.10765e-08 -3.05378e-09 6.14924e-09)
(-2.03071e-08 -2.53728e-09 1.38633e-08)
(0 0 0)
(0 0 0)
(0 0 0)
(0 0 0)
(0 0 0)
(0 0 0)
(0 0 0)
(0 0 0)
(0 0 0)
(0 0 0)
(0 0 0)
(0 0 0)
(0 0 0)
(0 0 0)
(0 0 0)
(0 0 0)
(0 0 0)
(0 0 0)
(-1.10253e-10 -5.91726e-11 1.8826e-11)
(-2.11586e-10 -1.15376e-10 3.69936e-11)
(-3.02524e-10 -1.69343e-10 5.49621e-11)
(-3.84787e-10 -2.23244e-10 7.35619e-11)
(-4.59468e-10 -2.78739e-10 9.33438e-11)
(-5.26922e-10 -3.36978e-10 1.14496e-10)
(-5.86588e-10 -3.98535e-10 1.3667e-10)
(-6.3674e-10 -4.63261e-10 1.58657e-10)
(-6.74215e-10 -5.30059e-10 1.77874e-10)
(-6.94253e-10 -5.96617e-10 1.89578e-10)
(-6.90786e-10 -6.59185e-10 1.85849e-10)
(-6.57663e-10 -7.12672e-10 1.54666e-10)
(-5.91395e-10 -7.51507e-10 8.04287e-11)
(-4.95835e-10 -7.71967e-10 -4.94915e-11)
(-3.91667e-10 -7.74353e-10 -2.16178e-10)
(1.66174e-10 -6.90562e-10 -8.15317e-10)
(0 0 0)
(-2.19233e-10 -1.16054e-10 3.73309e-11)
(-4.20788e-10 -2.26273e-10 7.33808e-11)
(-6.01847e-10 -3.32105e-10 1.091e-10)
(-7.65979e-10 -4.37814e-10 1.46202e-10)
(-9.15576e-10 -5.46665e-10 1.85898e-10)
(-1.05169e-09 -6.60951e-10 2.28785e-10)
(-1.17375e-09 -7.8187e-10 2.74577e-10)
(-1.27916e-09 -9.09279e-10 3.21618e-10)
(-1.36287e-09 -1.04131e-09 3.66092e-10)
(-1.4172e-09 -1.17391e-09 4.00876e-10)
(-1.43259e-09 -1.3005e-09 4.14149e-10)
(-1.40085e-09 -1.4124e-09 3.88493e-10)
(-1.32301e-09 -1.50094e-09 3.03079e-10)
(-1.22351e-09 -1.56277e-09 1.46177e-10)
(-1.15814e-09 -1.60191e-09 -4.64948e-11)
(-1.02477e-09 -1.79493e-09 -6.22576e-10)
(0 0 0)
(-3.25819e-10 -1.68574e-10 5.5222e-11)
(-6.25507e-10 -3.28653e-10 1.08601e-10)
(-8.95107e-10 -4.8235e-10 1.61625e-10)
(-1.14026e-09 -6.35875e-10 2.16969e-10)
(-1.365e-09 -7.93998e-10 2.76681e-10)
(-1.57166e-09 -9.60113e-10 3.42115e-10)
(-1.76062e-09 -1.1361e-09 4.13709e-10)
(-1.92986e-09 -1.32205e-09 4.90555e-10)
(-2.0746e-09 -1.51575e-09 5.6972e-10)
(-2.18716e-09 -1.71219e-09 6.45331e-10)
(-2.25803e-09 -1.90314e-09 7.07607e-10)
(-2.28034e-09 -2.07768e-09 7.42764e-10)
(-2.26108e-09 -2.22492e-09 7.36407e-10)
(-2.24169e-09 -2.34043e-09 6.86394e-10)
(-2.29656e-09 -2.42586e-09 6.25882e-10)
(-2.54038e-09 -2.68723e-09 4.06165e-10)
(0 0 0)
(-4.28713e-10 -2.14803e-10 7.21779e-11)
(-8.23276e-10 -4.18761e-10 1.42022e-10)
(-1.17883e-09 -6.14574e-10 2.11593e-10)
(-1.50329e-09 -8.1017e-10 2.84592e-10)
(-1.80272e-09 -1.01166e-09 3.64065e-10)
(-2.08137e-09 -1.22343e-09 4.52462e-10)
(-2.3416e-09 -1.44805e-09 5.51587e-10)
(-2.58367e-09 -1.68596e-09 6.62449e-10)
(-2.80553e-09 -1.93501e-09 7.85044e-10)
(-3.00291e-09 -2.18982e-09 9.18191e-10)
(-3.17038e-09 -2.44141e-09 1.05965e-09)
(-3.30478e-09 -2.67753e-09 1.20705e-09)
(-3.41404e-09 -2.88494e-09 1.36057e-09)
(-3.53229e-09 -3.05473e-09 1.52745e-09)
(-3.70782e-09 -3.17984e-09 1.70849e-09)
(-4.02418e-09 -3.47055e-09 1.92346e-09)
(0 0 0)
(-5.26517e-10 -2.53057e-10 8.78685e-11)
(-1.01138e-09 -4.93322e-10 1.72976e-10)
(-1.44903e-09 -7.23978e-10 2.57955e-10)
(-1.84979e-09 -9.54368e-10 3.47534e-10)
(-2.22199e-09 -1.1917e-09 4.45832e-10)
(-2.57229e-09 -1.44116e-09 5.56587e-10)
(-2.90584e-09 -1.70588e-09 6.83354e-10)
(-3.22651e-09 -1.98663e-09 8.29753e-10)
(-3.53716e-09 -2.28133e-09 9.99929e-10)
(-3.84024e-09 -2.58449e-09 1.19945e-09)
(-4.13911e-09 -2.88676e-09 1.43694e-09)
(-4.44021e-09 -3.17508e-09 1.72657e-09)
(-4.7558e-09 -3.43449e-09 2.08952e-09)
(-5.10217e-09 -3.65227e-09 2.54513e-09)
(-5.45785e-09 -3.81468e-09 3.04422e-09)
(-5.65716e-09 -4.14897e-09 3.77041e-09)
(0 0 0)
(-6.17764e-10 -2.8195e-10 1.01975e-10)
(-1.18695e-09 -5.49643e-10 2.00803e-10)
(-1.70141e-09 -8.0662e-10 2.99635e-10)
(-2.1738e-09 -1.06328e-09 4.04143e-10)
(-2.61477e-09 -1.32759e-09 5.1946e-10)
(-3.03349e-09 -1.6053e-09 6.50571e-10)
(-3.4382e-09 -1.89984e-09 8.02758e-10)
(-3.8369e-09 -2.21201e-09 9.82232e-10)
(-4.23827e-09 -2.53953e-09 1.19722e-09)
(-4.65327e-09 -2.8764e-09 1.45989e-09)
(-5.09774e-09 -3.21238e-09 1.78967e-09)
(-5.59588e-09 -3.53305e-09 2.21799e-09)
(-6.18229e-09 -3.82144e-09 2.79143e-09)
(-6.8872e-09 -4.06212e-09 3.55453e-09)
(-7.62983e-09 -4.23873e-09 4.42275e-09)
(-8.04278e-09 -4.66294e-09 5.87724e-09)
(0 0 0)
(-7.01023e-10 -3.00438e-10 1.14221e-10)
(-1.34714e-09 -5.85706e-10 2.24926e-10)
(-1.93162e-09 -8.59569e-10 3.35674e-10)
(-2.46923e-09 -1.13307e-09 4.52909e-10)
(-2.97262e-09 -1.41461e-09 5.82576e-10)
(-3.45321e-09 -1.71013e-09 7.3064e-10)
(-3.9219e-09 -2.02304e-09 9.03681e-10)
(-4.39017e-09 -2.35382e-09 1.10976e-09)
(-4.87153e-09 -2.69942e-09 1.35985e-09)
(-5.38391e-09 -3.05247e-09 1.67025e-09)
(-5.95357e-09 -3.40045e-09 2.06678e-09)
(-6.62149e-09 -3.72529e-09 2.5913e-09)
(-7.45164e-09 -4.00497e-09 3.30896e-09)
(-8.5257e-09 -4.21953e-09 4.29871e-09)
(-9.79397e-09 -4.35896e-09 5.50319e-09)
(-1.21443e-08 -4.49672e-09 7.94681e-09)
(0 0 0)
(-7.74912e-10 -3.07847e-10 1.24399e-10)
(-1.48923e-09 -6.00218e-10 2.44907e-10)
(-2.13557e-09 -8.80979e-10 3.65342e-10)
(-2.73031e-09 -1.16139e-09 4.92678e-10)
(-3.28764e-09 -1.44992e-09 6.33372e-10)
(-3.82049e-09 -1.75242e-09 7.93933e-10)
(-4.34145e-09 -2.07197e-09 9.81556e-10)
(-4.86387e-09 -2.40836e-09 1.20499e-09)
(-5.40339e-09 -2.75735e-09 1.47583e-09)
(-5.98e-09 -3.10949e-09 1.81065e-09)
(-6.62129e-09 -3.44862e-09 2.23416e-09)
(-7.3668e-09 -3.75038e-09 2.78347e-09)
(-8.27182e-09 -3.98122e-09 3.51067e-09)
(-9.39597e-09 -4.10015e-09 4.46801e-09)
(-1.06964e-08 -4.06019e-09 5.60135e-09)
(-1.49644e-08 -4.03977e-09 9.49763e-09)
(0 0 0)
(0 0 0)
(0 0 0)
(0 0 0)
(0 0 0)
(0 0 0)
(0 0 0)
(0 0 0)
(0 0 0)
(0 0 0)
(0 0 0)
(0 0 0)
(0 0 0)
(0 0 0)
(0 0 0)
(0 0 0)
(0 0 0)
(0 0 0)
(-1.10515e-10 -6.34229e-11 1.73052e-11)
(-2.11881e-10 -1.23862e-10 3.3934e-11)
(-3.02411e-10 -1.82298e-10 5.02307e-11)
(-3.83567e-10 -2.41257e-10 6.68538e-11)
(-4.5605e-10 -3.02737e-10 8.41465e-11)
(-5.19596e-10 -3.68222e-10 1.02024e-10)
(-5.72669e-10 -4.38605e-10 1.19751e-10)
(-6.12014e-10 -5.14009e-10 1.35572e-10)
(-6.32106e-10 -5.93482e-10 1.46111e-10)
(-6.2463e-10 -6.74587e-10 1.45514e-10)
(-5.78303e-10 -7.52934e-10 1.24346e-10)
(-4.79616e-10 -8.21841e-10 6.86062e-11)
(-3.15255e-10 -8.72383e-10 -3.97235e-11)
(-7.84434e-11 -8.94353e-10 -2.15595e-10)
(2.02553e-10 -8.80611e-10 -4.372e-10)
(1.34679e-09 -5.7279e-10 -1.17074e-09)
(0 0 0)
(-2.19861e-10 -1.24384e-10 3.43285e-11)
(-4.21609e-10 -2.42906e-10 6.7342e-11)
(-6.0203e-10 -3.575e-10 9.97652e-11)
(-7.6422e-10 -4.7313e-10 1.32972e-10)
(-9.09849e-10 -5.9374e-10 1.67766e-10)
(-1.03883e-09 -7.22292e-10 2.04204e-10)
(-1.14876e-09 -8.6065e-10 2.41236e-10)
(-1.23418e-09 -1.00928e-09 2.76103e-10)
(-1.28554e-09 -1.16676e-09 3.03384e-10)
(-1.2882e-09 -1.32903e-09 3.13655e-10)
(-1.22218e-09 -1.48878e-09 2.91861e-10)
(-1.06411e-09 -1.63512e-09 2.16169e-10)
(-7.94373e-10 -1.75481e-09 5.98377e-11)
(-4.14818e-10 -1.8361e-09 -1.9608e-10)
(4.32926e-12 -1.8737e-09 -5.13704e-10)
(1.10152e-09 -1.93557e-09 -1.43395e-09)
(0 0 0)
(-3.26998e-10 -1.80659e-10 5.08109e-11)
(-6.27258e-10 -3.52782e-10 9.97324e-11)
(-8.96302e-10 -5.19193e-10 1.47924e-10)
(-1.13916e-09 -6.87129e-10 1.97566e-10)
(-1.35893e-09 -8.62362e-10 2.50111e-10)
(-1.55645e-09 -1.0493e-09 3.0612e-10)
(-1.72966e-09 -1.25087e-09 3.64903e-10)
(-1.87271e-09 -1.4682e-09 4.23902e-10)
(-1.97461e-09 -1.70002e-09 4.77737e-10)
(-2.01781e-09 -1.94188e-09 5.16912e-10)
(-1.97734e-09 -2.18534e-09 5.2635e-10)
(-1.8226e-09 -2.4178e-09 4.84594e-10)
(-1.52631e-09 -2.62411e-09 3.66163e-10)
(-1.09015e-09 -2.79113e-09 1.53997e-10)
(-6.06384e-10 -2.90838e-09 -1.18303e-10)
(6.18008e-10 -3.12659e-09 -9.31163e-10)
(0 0 0)
(-4.30669e-10 -2.30169e-10 6.64626e-11)
(-8.26456e-10 -4.49442e-10 1.30538e-10)
(-1.18192e-09 -6.61427e-10 1.93868e-10)
(-1.50434e-09 -8.75373e-10 2.5952e-10)
(-1.79875e-09 -1.09868e-09 3.29779e-10)
(-2.06778e-09 -1.33709e-09 4.06077e-10)
(-2.31111e-09 -1.59461e-09 4.88763e-10)
(-2.52465e-09 -1.87325e-09 5.76677e-10)
(-2.69918e-09 -2.17242e-09 6.66531e-10)
(-2.81866e-09 -2.48824e-09 7.52117e-10)
(-2.85809e-09 -2.8127e-09 8.23462e-10)
(-2.78229e-09 -3.13323e-09 8.66282e-10)
(-2.54896e-09 -3.43327e-09 8.62474e-10)
(-2.12847e-09 -3.69379e-09 7.94098e-10)
(-1.58255e-09 -3.88742e-09 6.62704e-10)
(1.40443e-10 -4.19889e-09 4.71925e-11)
(0 0 0)
(-5.29481e-10 -2.7111e-10 8.09815e-11)
(-1.01651e-09 -5.29367e-10 1.59149e-10)
(-1.45495e-09 -7.79026e-10 2.36642e-10)
(-1.85453e-09 -1.03099e-09 3.17441e-10)
(-2.22266e-09 -1.294e-09 4.04769e-10)
(-2.56443e-09 -1.5749e-09 5.01167e-10)
(-2.88244e-09 -1.87862e-09 6.08464e-10)
(-3.17632e-09 -2.20797e-09 7.27687e-10)
(-3.44177e-09 -2.5632e-09 8.5896e-10)
(-3.66907e-09 -2.94136e-09 1.00149e-09)
(-3.84031e-09 -3.33561e-09 1.15366e-09)
(-3.92471e-09 -3.73474e-09 1.31276e-09)
(-3.87115e-09 -4.12253e-09 1.47232e-09)
(-3.60595e-09 -4.47547e-09 1.61197e-09)
(-3.10286e-09 -4.74907e-09 1.68174e-09)
(-6.76587e-10 -5.15639e-09 1.30482e-09)
(0 0 0)
(-6.21936e-10 -3.01997e-10 9.40719e-11)
(-1.19446e-09 -5.89668e-10 1.84953e-10)
(-1.71092e-09 -8.67744e-10 2.75248e-10)
(-2.18354e-09 -1.14835e-09 3.69796e-10)
(-2.62222e-09 -1.4412e-09 4.72741e-10)
(-3.03484e-09 -1.75386e-09 5.87751e-10)
(-3.42754e-09 -2.09185e-09 7.18211e-10)
(-3.80469e-09 -2.45842e-09 8.67464e-10)
(-4.16883e-09 -2.85415e-09 1.03923e-09)
(-4.52012e-09 -3.27646e-09 1.2384e-09)
(-4.85485e-09 -3.71906e-09 1.47215e-09)
(-5.16113e-09 -4.17168e-09 1.75063e-09)
(-5.40761e-09 -4.61949e-09 2.08281e-09)
(-5.5203e-09 -5.03919e-09 2.45407e-09)
(-5.38608e-09 -5.37708e-09 2.76613e-09)
(-2.87367e-09 -5.97333e-09 2.69806e-09)
(0 0 0)
(-7.06537e-10 -3.21718e-10 1.05475e-10)
(-1.35733e-09 -6.28189e-10 2.07407e-10)
(-1.94528e-09 -9.24439e-10 3.08781e-10)
(-2.48488e-09 -1.22334e-09 4.15158e-10)
(-2.98833e-09 -1.5351e-09 5.31446e-10)
(-3.46614e-09 -1.86764e-09 6.62248e-10)
(-3.92772e-09 -2.22656e-09 8.12199e-10)
(-4.38193e-09 -2.61492e-09 9.86433e-10)
(-4.83776e-09 -3.03275e-09 1.19132e-09)
(-5.30499e-09 -3.4764e-09 1.43568e-09)
(-5.79486e-09 -3.9378e-09 1.73259e-09)
(-6.31971e-09 -4.40402e-09 2.10101e-09)
(-6.88838e-09 -4.85758e-09 2.56327e-09)
(-7.48701e-09 -5.27647e-09 3.12294e-09)
(-8.01059e-09 -5.61933e-09 3.67766e-09)
(-8.05663e-09 -6.07234e-09 4.08538e-09)
(0 0 0)
(-7.81814e-10 -3.29559e-10 1.14988e-10)
(-1.50222e-09 -6.43562e-10 2.2609e-10)
(-2.15359e-09 -9.47149e-10 3.36537e-10)
(-2.75226e-09 -1.25343e-09 4.52407e-10)
(-3.31223e-09 -1.5727e-09 5.79124e-10)
(-3.84596e-09 -1.91275e-09 7.21864e-10)
(-4.36519e-09 -2.27883e-09 8.85956e-10)
(-4.88171e-09 -2.67321e-09 1.07738e-09)
(-5.40832e-09 -3.09449e-09 1.30351e-09)
(-5.95985e-09 -3.53643e-09 1.57412e-09)
(-6.55416e-09 -3.98641e-09 1.90269e-09)
(-7.21205e-09 -4.42322e-09 2.30693e-09)
(-7.95292e-09 -4.8142e-09 2.80445e-09)
(-8.77527e-09 -5.11062e-09 3.39074e-09)
(-9.59247e-09 -5.2307e-09 3.9705e-09)
(-1.25251e-08 -5.65388e-09 5.45378e-09)
(0 0 0)
(0 0 0)
(0 0 0)
(0 0 0)
(0 0 0)
(0 0 0)
(0 0 0)
(0 0 0)
(0 0 0)
(0 0 0)
(0 0 0)
(0 0 0)
(0 0 0)
(0 0 0)
(0 0 0)
(0 0 0)
(0 0 0)
(0 0 0)
(-1.10591e-10 -6.7434e-11 1.52142e-11)
(-2.11818e-10 -1.3189e-10 2.97681e-11)
(-3.01778e-10 -1.94599e-10 4.38903e-11)
(-3.81659e-10 -2.58439e-10 5.80555e-11)
(-4.51763e-10 -3.25757e-10 7.24016e-11)
(-5.1121e-10 -3.98384e-10 8.65868e-11)
(-5.57509e-10 -4.77549e-10 9.95342e-11)
(-5.85938e-10 -5.63656e-10 1.09012e-10)
(-5.88783e-10 -6.55871e-10 1.10994e-10)
(-5.54567e-10 -7.515e-10 9.87616e-11)
(-4.67754e-10 -8.45165e-10 6.18466e-11)
(-3.09833e-10 -9.27892e-10 -1.47058e-11)
(-6.35285e-11 -9.86453e-10 -1.49051e-10)
(2.75176e-10 -1.0042e-09 -3.53615e-10)
(6.53783e-10 -9.70299e-10 -5.98005e-10)
(1.8704e-09 -5.40068e-10 -1.30689e-09)
(0 0 0)
(-2.20119e-10 -1.32245e-10 3.01926e-11)
(-4.21715e-10 -2.5864e-10 5.9102e-11)
(-6.01171e-10 -3.81611e-10 8.7223e-11)
(-7.61084e-10 -5.06824e-10 1.15564e-10)
(-9.02385e-10 -6.38909e-10 1.44518e-10)
(-1.02384e-09 -7.81536e-10 1.7362e-10)
(-1.12127e-09 -9.37279e-10 2.01115e-10)
(-1.18646e-09 -1.10725e-09 2.23244e-10)
(-1.20561e-09 -1.29041e-09 2.33163e-10)
(-1.15788e-09 -1.48252e-09 2.19463e-10)
(-1.01456e-09 -1.67477e-09 1.64508e-10)
(-7.41397e-10 -1.85255e-09 4.35778e-11)
(-3.08997e-10 -1.99533e-09 -1.71984e-10)
(2.77248e-10 -2.08063e-09 -4.98132e-10)
(8.97643e-10 -2.09699e-09 -8.79261e-10)
(2.10356e-09 -2.04185e-09 -1.80077e-09)
(0 0 0)
(-3.27625e-10 -1.9206e-10 4.47163e-11)
(-6.27944e-10 -3.75604e-10 8.75908e-11)
(-8.95946e-10 -5.54175e-10 1.29443e-10)
(-1.13601e-09 -7.36035e-10 1.71912e-10)
(-1.35027e-09 -9.27982e-10 2.15832e-10)
(-1.53806e-09 -1.13549e-09 2.60977e-10)
(-1.69496e-09 -1.36264e-09 3.05559e-10)
(-1.81137e-09 -1.61167e-09 3.45423e-10)
(-1.87048e-09 -1.88226e-09 3.72823e-10)
(-1.84581e-09 -2.17028e-09 3.74775e-10)
(-1.69915e-09 -2.46617e-09 3.31271e-10)
(-1.38191e-09 -2.7533e-09 2.14531e-10)
(-8.47884e-10 -3.00764e-09 -6.96012e-12)
(-9.71887e-11 -3.20153e-09 -3.49073e-10)
(7.06184e-10 -3.31298e-09 -7.48727e-10)
(2.18494e-09 -3.41122e-09 -1.65706e-09)
(0 0 0)
(-4.319e-10 -2.44667e-10 5.85357e-11)
(-8.28237e-10 -4.78462e-10 1.14749e-10)
(-1.18298e-09 -7.05917e-10 1.69839e-10)
(-1.5027e-09 -9.37601e-10 2.26167e-10)
(-1.79139e-09 -1.18225e-09 2.85206e-10)
(-2.05003e-09 -1.44705e-09 3.47335e-10)
(-2.27567e-09 -1.73758e-09 4.1141e-10)
(-2.46003e-09 -2.05757e-09 4.74039e-10)
(-2.58718e-09 -2.4082e-09 5.28502e-10)
(-2.6303e-09 -2.78695e-09 5.63277e-10)
(-2.54753e-09 -3.18596e-09 5.60365e-10)
(-2.27867e-09 -3.5898e-09 4.94215e-10)
(-1.7508e-09 -3.97288e-09 3.34111e-10)
(-9.20272e-10 -4.29758e-09 5.94405e-11)
(6.70603e-11 -4.51398e-09 -2.83315e-10)
(2.26637e-09 -4.70153e-09 -1.12028e-09)
(0 0 0)
(-5.31556e-10 -2.88141e-10 7.13868e-11)
(-1.01991e-09 -5.6346e-10 1.40044e-10)
(-1.45836e-09 -8.31299e-10 2.07582e-10)
(-1.85598e-09 -1.10413e-09 2.77128e-10)
(-2.21917e-09 -1.3923e-09 3.50922e-10)
(-2.55148e-09 -1.7044e-09 4.30218e-10)
(-2.85301e-09 -2.04739e-09 5.14998e-10)
(-3.11931e-09 -2.42642e-09 6.03467e-10)
(-3.33943e-09 -2.84441e-09 6.91287e-10)
(-3.49264e-09 -3.30118e-09 7.70494e-10)
(-3.54286e-09 -3.79218e-09 8.28051e-10)
(-3.43037e-09 -4.30616e-09 8.44049e-10)
(-3.06417e-09 -4.82054e-09 7.90378e-10)
(-2.34154e-09 -5.29186e-09 6.36245e-10)
(-1.31674e-09 -5.63897e-09 3.91957e-10)
(1.83024e-09 -5.95764e-09 -3.79372e-10)
(0 0 0)
(-6.25067e-10 -3.20906e-10 8.30073e-11)
(-1.19996e-09 -6.27519e-10 1.62934e-10)
(-1.71752e-09 -9.25782e-10 2.41787e-10)
(-2.18946e-09 -1.22957e-09 3.23437e-10)
(-2.62485e-09 -1.55039e-09 4.10912e-10)
(-3.03033e-09 -1.89782e-09 5.06421e-10)
(-3.40994e-09 -2.27973e-09 6.11242e-10)
(-3.76471e-09 -2.70222e-09 7.25472e-10)
(-4.09156e-09 -3.16934e-09 8.47616e-10)
(-4.3812e-09 -3.68264e-09 9.73966e-10)
(-4.61383e-09 -4.24045e-09 1.09752e-09)
(-4.75083e-09 -4.83647e-09 1.20576e-09)
(-4.72158e-09 -5.45568e-09 1.276e-09)
(-4.41824e-09 -6.06103e-09 1.26986e-09)
(-3.79485e-09 -6.55355e-09 1.15519e-09)
(-5.1055e-10 -7.22771e-09 4.3554e-10)
(0 0 0)
(-7.10874e-10 -3.41785e-10 9.31643e-11)
(-1.36526e-09 -6.68355e-10 1.82929e-10)
(-1.95566e-09 -9.86021e-10 2.71638e-10)
(-2.49624e-09 -1.3095e-09 3.63804e-10)
(-2.99866e-09 -1.65093e-09 4.63145e-10)
(-3.47256e-09 -2.02034e-09 5.72713e-10)
(-3.92593e-09 -2.42587e-09 6.94923e-10)
(-4.36529e-09 -2.87368e-09 8.31502e-10)
(-4.79571e-09 -3.3677e-09 9.83345e-10)
(-5.2204e-09 -3.90914e-09 1.15023e-09)
(-5.63926e-09 -4.49595e-09 1.33007e-09)
(-6.04578e-09 -5.12213e-09 1.5169e-09)
(-6.4216e-09 -5.77642e-09 1.69554e-09)
(-6.73278e-09 -6.43593e-09 1.83207e-09)
(-6.93633e-09 -7.02504e-09 1.87572e-09)
(-6.77917e-09 -7.92138e-09 1.33032e-09)
(0 0 0)
(-7.87426e-10 -3.50027e-10 1.01672e-10)
(-1.51274e-09 -6.84529e-10 1.99643e-10)
(-2.16803e-09 -1.00995e-09 2.96486e-10)
(-2.76953e-09 -1.34126e-09 3.97196e-10)
(-3.331e-09 -1.69069e-09 5.05987e-10)
(-3.86445e-09 -2.06818e-09 6.26491e-10)
(-4.38087e-09 -2.48146e-09 7.6187e-10)
(-4.89079e-09 -2.93586e-09 9.14842e-10)
(-5.40489e-09 -3.43374e-09 1.08763e-09)
(-5.93442e-09 -3.97347e-09 1.28171e-09)
(-6.49114e-09 -4.54794e-09 1.49706e-09)
(-7.08606e-09 -5.14185e-09 1.72995e-09)
(-7.72623e-09 -5.72686e-09 1.96764e-09)
(-8.40894e-09 -6.2501e-09 2.17907e-09)
(-9.10818e-09 -6.5938e-09 2.31289e-09)
(-1.30201e-08 -7.99776e-09 2.7424e-09)
(0 0 0)
(0 0 0)
(0 0 0)
(0 0 0)
(0 0 0)
(0 0 0)
(0 0 0)
(0 0 0)
(0 0 0)
(0 0 0)
(0 0 0)
(0 0 0)
(0 0 0)
(0 0 0)
(0 0 0)
(0 0 0)
(0 0 0)
(0 0 0)
(-1.10548e-10 -7.10284e-11 1.26655e-11)
(-2.1154e-10 -1.39097e-10 2.47273e-11)
(-3.00874e-10 -2.05674e-10 3.63133e-11)
(-3.79488e-10 -2.7397e-10 4.77297e-11)
(-4.47328e-10 -3.46659e-10 5.89487e-11)
(-5.02986e-10 -4.25908e-10 6.94521e-11)
(-5.43187e-10 -5.13272e-10 7.79647e-11)
(-5.62091e-10 -6.0942e-10 8.20299e-11)
(-5.50456e-10 -7.13604e-10 7.73879e-11)
(-4.94944e-10 -8.22815e-10 5.71625e-11)
(-3.78255e-10 -9.30616e-10 1.1034e-11)
(-1.81505e-10 -1.02582e-09 -7.49611e-11)
(1.08676e-10 -1.0917e-09 -2.16155e-10)
(4.83709e-10 -1.10803e-09 -4.19331e-10)
(8.71031e-10 -1.06482e-09 -6.48872e-10)
(1.94992e-09 -6.27195e-10 -1.25277e-09)
(0 0 0)
(-2.20131e-10 -1.39288e-10 2.51441e-11)
(-4.21374e-10 -2.72764e-10 4.91152e-11)
(-5.99744e-10 -4.03321e-10 7.22056e-11)
(-7.57375e-10 -5.37279e-10 9.5084e-11)
(-8.94543e-10 -6.79929e-10 1.17802e-10)
(-1.00903e-09 -8.35621e-10 1.3952e-10)
(-1.09522e-09 -1.00762e-09 1.58042e-10)
(-1.14276e-09 -1.19766e-09 1.69064e-10)
(-1.13495e-09 -1.40503e-09 1.65089e-10)
(-1.04719e-09 -1.62515e-09 1.34028e-10)
(-8.46869e-10 -1.8475e-09 5.78736e-11)
(-4.97833e-10 -2.05346e-09 -8.72514e-11)
(2.38643e-11 -2.21567e-09 -3.26051e-10)
(6.90879e-10 -2.30355e-09 -6.64927e-10)
(1.34412e-09 -2.30476e-09 -1.03636e-09)
(2.35363e-09 -2.19529e-09 -1.81799e-09)
(0 0 0)
(-3.27868e-10 -2.02277e-10 3.72607e-11)
(-6.27928e-10 -3.96092e-10 7.28393e-11)
(-8.94678e-10 -5.85673e-10 1.07249e-10)
(-1.1319e-09 -7.8025e-10 1.41615e-10)
(-1.34087e-09 -9.87599e-10 1.76243e-10)
(-1.51963e-09 -1.21424e-09 2.10303e-10)
(-1.66187e-09 -1.46536e-09 2.41255e-10)
(-1.75515e-09 -1.74432e-09 2.63937e-10)
(-1.77863e-09 -2.05166e-09 2.69245e-10)
(-1.70044e-09 -2.38337e-09 2.42445e-10)
(-1.47604e-09 -2.72832e-09 1.61626e-10)
(-1.0519e-09 -3.06509e-09 -1.97503e-12)
(-3.85102e-10 -3.36001e-09 -2.7707e-10)
(4.98828e-10 -3.57177e-09 -6.67695e-10)
(1.37949e-09 -3.67148e-09 -1.08863e-09)
(2.67108e-09 -3.68328e-09 -1.8905e-09)
(0 0 0)
(-4.32596e-10 -2.57657e-10 4.88121e-11)
(-8.29034e-10 -5.04514e-10 9.55059e-11)
(-1.18273e-09 -7.45982e-10 1.40875e-10)
(-1.49962e-09 -9.93877e-10 1.86591e-10)
(-1.78276e-09 -1.25822e-09 2.33405e-10)
(-2.03174e-09 -1.54759e-09 2.80846e-10)
(-2.24153e-09 -1.86917e-09 3.26647e-10)
(-2.40075e-09 -2.22841e-09 3.65837e-10)
(-2.48892e-09 -2.62818e-09 3.89391e-10)
(-2.47287e-09 -3.06719e-09 3.82474e-10)
(-2.30252e-09 -3.53722e-09 3.22722e-10)
(-1.90941e-09 -4.01891e-09 1.80172e-10)
(-1.21908e-09 -4.47611e-09 -7.63652e-11)
(-2.10088e-10 -4.85197e-09 -4.54468e-10)
(9.057e-10 -5.07817e-09 -8.70813e-10)
(2.99361e-09 -5.16423e-09 -1.66279e-09)
(0 0 0)
(-5.32939e-10 -3.034e-10 5.95798e-11)
(-1.02203e-09 -5.94065e-10 1.16676e-10)
(-1.46004e-09 -8.78377e-10 1.724e-10)
(-1.85542e-09 -1.17029e-09 2.29029e-10)
(-2.21373e-09 -1.4817e-09 2.87899e-10)
(-2.53723e-09 -1.82293e-09 3.49165e-10)
(-2.82408e-09 -2.20299e-09 4.11321e-10)
(-3.06697e-09 -2.62943e-09 4.70398e-10)
(-3.25071e-09 -3.10787e-09 5.18739e-10)
(-3.34851e-09 -3.64094e-09 5.43321e-10)
(-3.31606e-09 -4.22609e-09 5.23809e-10)
(-3.08439e-09 -4.85128e-09 4.31384e-10)
(-2.55778e-09 -5.48616e-09 2.32193e-10)
(-1.64977e-09 -6.06636e-09 -9.25426e-11)
(-4.76729e-10 -6.47676e-09 -4.7906e-10)
(2.65782e-09 -6.7409e-09 -1.29663e-09)
(0 0 0)
(-6.27341e-10 -3.37846e-10 6.93435e-11)
(-1.20385e-09 -6.61498e-10 1.35895e-10)
(-1.72191e-09 -9.78056e-10 2.01084e-10)
(-2.19273e-09 -1.30306e-09 2.67796e-10)
(-2.62473e-09 -1.64974e-09 3.38e-10)
(-3.02351e-09 -2.0297e-09 4.12603e-10)
(-3.39164e-09 -2.4532e-09 4.91098e-10)
(-3.72797e-09 -2.92932e-09 5.70922e-10)
(-4.02631e-09 -3.46579e-09 6.46443e-10)
(-4.27307e-09 -4.06858e-09 7.07447e-10)
(-4.44287e-09 -4.7409e-09 7.3707e-10)
(-4.49151e-09 -5.48055e-09 7.09516e-10)
(-4.34801e-09 -6.27238e-09 5.89919e-10)
(-3.92281e-09 -7.06602e-09 3.46786e-10)
(-3.21989e-09 -7.71828e-09 1.32088e-11)
(7.86643e-12 -8.52677e-09 -8.88497e-10)
(0 0 0)
(-7.1419e-10 -3.5976e-10 7.79052e-11)
(-1.37126e-09 -7.04409e-10 1.52746e-10)
(-1.96334e-09 -1.04148e-09 2.26233e-10)
(-2.50431e-09 -1.38747e-09 3.01794e-10)
(-3.00538e-09 -1.75634e-09 3.8198e-10)
(-3.47557e-09 -2.16029e-09 4.68416e-10)
(-3.92196e-09 -2.61007e-09 5.61563e-10)
(-4.3499e-09 -3.11516e-09 6.60243e-10)
(-4.76294e-09 -3.6837e-09 7.60831e-10)
(-5.16259e-09 -4.32237e-09 8.55958e-10)
(-5.54762e-09 -5.03601e-09 9.32547e-10)
(-5.91325e-09 -5.82685e-09 9.69157e-10)
(-6.25261e-09 -6.69205e-09 9.34094e-10)
(-6.56678e-09 -7.61147e-09 7.92693e-10)
(-6.86564e-09 -8.47731e-09 5.56907e-10)
(-7.28101e-09 -9.94266e-09 -3.38228e-10)
(0 0 0)
(-7.9186e-10 -3.68357e-10 8.51043e-11)
(-1.52101e-09 -7.21295e-10 1.66893e-10)
(-2.17931e-09 -1.0665e-09 2.47281e-10)
(-2.78288e-09 -1.42073e-09 3.30118e-10)
(-3.3453e-09 -1.79809e-09 4.18407e-10)
(-3.87837e-09 -2.21066e-09 5.14321e-10)
(-4.39278e-09 -2.66881e-09 6.19059e-10)
(-4.89884e-09 -3.18117e-09 7.32484e-10)
(-5.40722e-09 -3.7543e-09 8.52466e-10)
(-5.92992e-09 -4.39197e-09 9.73778e-10)
(-6.48137e-09 -5.0938e-09 1.08636e-09)
(-7.08014e-09 -5.85238e-09 1.17299e-09)
(-7.75269e-09 -6.64682e-09 1.20785e-09)
(-8.53951e-09 -7.42467e-09 1.16332e-09)
(-9.48019e-09 -8.03588e-09 1.04753e-09)
(-1.52109e-08 -1.06409e-08 9.98904e-10)
(0 0 0)
(0 0 0)
(0 0 0)
(0 0 0)
(0 0 0)
(0 0 0)
(0 0 0)
(0 0 0)
(0 0 0)
(0 0 0)
(0 0 0)
(0 0 0)
(0 0 0)
(0 0 0)
(0 0 0)
(0 0 0)
(0 0 0)
(0 0 0)
(-1.10446e-10 -7.4035e-11 9.77193e-12)
(-2.1118e-10 -1.45135e-10 1.90401e-11)
(-2.99932e-10 -2.14973e-10 2.78591e-11)
(-3.77438e-10 -2.87048e-10 3.64012e-11)
(-4.43363e-10 -3.64323e-10 4.45416e-11)
(-4.95909e-10 -4.49259e-10 5.17118e-11)
(-5.31271e-10 -5.437e-10 5.66548e-11)
(-5.42934e-10 -6.48548e-10 5.70501e-11)
(-5.20935e-10 -7.63125e-10 4.89853e-11)
(-4.51464e-10 -8.84144e-10 2.63197e-11)
(-3.17753e-10 -1.00429e-09 -1.98296e-11)
(-1.03921e-10 -1.11074e-09 -1.00812e-10)
(1.95767e-10 -1.18465e-09 -2.27743e-10)
(5.59747e-10 -1.20486e-09 -4.02522e-10)
(9.07968e-10 -1.16404e-09 -5.91539e-10)
(1.78104e-09 -7.85512e-10 -1.06309e-09)
(0 0 0)
(-2.20012e-10 -1.4518e-10 1.94058e-11)
(-4.20839e-10 -2.84595e-10 3.78334e-11)
(-5.98185e-10 -4.21547e-10 5.54227e-11)
(-7.53812e-10 -5.62927e-10 7.25667e-11)
(-8.87482e-10 -7.14602e-10 8.91056e-11)
(-9.96265e-10 -8.81524e-10 1.04065e-10)
(-1.07355e-09 -1.06757e-09 1.15215e-10)
(-1.10775e-09 -1.27502e-09 1.18399e-10)
(-1.08076e-09 -1.50346e-09 1.06581e-10)
(-9.66993e-10 -1.74797e-09 6.87326e-11)
(-7.34446e-10 -1.99656e-09 -1.09829e-11)
(-3.5178e-10 -2.22736e-09 -1.52344e-10)
(1.92064e-10 -2.40807e-09 -3.73247e-10)
(8.47227e-10 -2.50355e-09 -6.72025e-10)
(1.44074e-09 -2.50269e-09 -9.83813e-10)
(2.16275e-09 -2.38644e-09 -1.58804e-09)
(0 0 0)
(-3.27884e-10 -2.10821e-10 2.8772e-11)
(-6.2755e-10 -4.13253e-10 5.61416e-11)
(-8.93089e-10 -6.12121e-10 8.23849e-11)
(-1.12779e-09 -8.17493e-10 1.08195e-10)
(-1.33228e-09 -1.03801e-09 1.33528e-10)
(-1.50368e-09 -1.28112e-09 1.57274e-10)
(-1.63438e-09 -1.553e-09 1.76706e-10)
(-1.71034e-09 -1.85801e-09 1.86618e-10)
(-1.70889e-09 -2.19746e-09 1.78123e-10)
(-1.59663e-09 -2.56741e-09 1.37242e-10)
(-1.32933e-09 -2.95527e-09 4.39227e-11)
(-8.58574e-10 -3.33544e-09 -1.26581e-10)
(-1.56161e-10 -3.66643e-09 -3.95476e-10)
(7.25415e-10 -3.89673e-09 -7.56597e-10)
(1.54671e-09 -3.99318e-09 -1.12425e-09)
(2.51703e-09 -3.95964e-09 -1.75967e-09)
(0 0 0)
(-4.32941e-10 -2.68521e-10 3.77164e-11)
(-8.29238e-10 -5.26337e-10 7.36686e-11)
(-1.18186e-09 -7.79627e-10 1.08322e-10)
(-1.4962e-09 -1.04129e-09 1.42754e-10)
(-1.77464e-09 -1.32249e-09 1.77198e-10)
(-2.01578e-09 -1.63305e-09 2.10708e-10)
(-2.21326e-09 -1.98159e-09 2.40576e-10)
(-2.35402e-09 -2.37514e-09 2.61408e-10)
(-2.4157e-09 -2.81809e-09 2.63811e-10)
(-2.36358e-09 -3.31023e-09 2.32808e-10)
(-2.1478e-09 -3.84299e-09 1.46615e-10)
(-1.70475e-09 -4.39345e-09 -2.21687e-11)
(-9.74168e-10 -4.91638e-09 -2.97914e-10)
(3.91352e-11 -5.33928e-09 -6.75677e-10)
(1.10381e-09 -5.57941e-09 -1.06357e-09)