/*--------------------------------*- C++ -*----------------------------------*\
| =========                 |                                                 |
| \\      /  F ield         | foam-extend: Open Source CFD                    |
|  \\    /   O peration     | Version:     3.1                                |
|   \\  /    A nd           | Web:         http://www.extend-project.de       |
|    \\/     M anipulation  |                                                 |
\*---------------------------------------------------------------------------*/
FoamFile
{
    version     2.0;
    format      ascii;
    class       surfaceVectorField;
    location    "2.8";
    object      Sf;
}
// * * * * * * * * * * * * * * * * * * * * * * * * * * * * * * * * * * * * * //

dimensions      [0 2 0 0 0 0 0];

internalField   nonuniform List<vector> 
41600
(
(0.000625545 -2.98662e-06 -2.10803e-08)
(-5.44922e-07 0.000706112 -1.36765e-08)
(7.70299e-09 8.66587e-09 0.000704942)
(-7.89025e-09 -8.87653e-09 -0.000704907)
(0.000626067 -5.75397e-06 -4.06264e-08)
(-5.21788e-07 0.000705893 -4.09241e-08)
(7.56866e-09 2.58442e-08 0.000705445)
(-7.75356e-09 -2.64735e-08 -0.000705385)
(0.000626577 -8.27614e-06 -5.86464e-08)
(-5.09544e-07 0.000705648 -6.8709e-08)
(7.85733e-09 4.31885e-08 0.000705916)
(-8.04292e-09 -4.42345e-08 -0.000705829)
(0.0006271 -1.06134e-05 -7.57114e-08)
(-5.22588e-07 0.000705464 -9.89314e-08)
(8.71564e-09 6.18108e-08 0.000706418)
(-8.90207e-09 -6.32753e-08 -0.000706302)
(0.000627659 -1.28145e-05 -9.24105e-08)
(-5.58942e-07 0.000705328 -1.3395e-07)
(1.00079e-08 8.28371e-08 0.000706975)
(-1.0185e-08 -8.47109e-08 -0.000706825)
(0.000628277 -1.49216e-05 -1.09252e-07)
(-6.18416e-07 0.000705234 -1.76371e-07)
(1.14324e-08 1.06908e-07 0.000707611)
(-1.15817e-08 -1.0915e-07 -0.000707418)
(0.000628979 -1.69647e-05 -1.25916e-07)
(-7.01348e-07 0.000705171 -2.292e-07)
(1.24595e-08 1.33743e-07 0.000708347)
(-1.25611e-08 -1.36268e-07 -0.000708101)
(0.000629788 -1.89557e-05 -1.41482e-07)
(-8.09395e-07 0.000705119 -2.96038e-07)
(1.22385e-08 1.61532e-07 0.000709202)
(-1.22509e-08 -1.64186e-07 -0.00070889)
(0.000630733 -2.08858e-05 -1.54576e-07)
(-9.4534e-07 0.000705058 -3.81707e-07)
(9.07198e-09 1.85661e-07 0.000710197)
(-8.90618e-09 -1.88142e-07 -0.000709803)
(0.000631844 -2.27093e-05 -1.62254e-07)
(-1.11153e-06 0.00070495 -4.92936e-07)
(-3.44465e-10 1.9602e-07 0.000711351)
(7.65304e-10 -1.9783e-07 -0.00071085)
(0.000633156 -2.43388e-05 -1.60746e-07)
(-1.31258e-06 0.000704755 -6.39903e-07)
(-2.2202e-08 1.72097e-07 0.000712682)
(2.28583e-08 -1.7265e-07 -0.000712043)
(0.000634709 -2.56306e-05 -1.47248e-07)
(-1.5534e-06 0.000704416 -8.39987e-07)
(-6.74198e-08 7.46858e-08 0.000714212)
(6.80439e-08 -7.36531e-08 -0.000713386)
(0.000636544 -2.63883e-05 -1.2525e-07)
(-1.83443e-06 0.000703881 -1.12529e-06)
(-1.55127e-07 -1.68129e-07 0.00071598)
(1.54922e-07 1.70032e-07 -0.000714876)
(0.000638671 -2.6442e-05 -1.20659e-07)
(-2.12531e-06 0.000703178 -1.5553e-06)
(-3.08346e-07 -6.74244e-07 0.000718067)
(3.06824e-07 6.75066e-07 -0.000716516)
(0.000640803 -2.58453e-05 -2.30214e-07)
(-2.15149e-06 0.000702508 -2.20996e-06)
(-4.93854e-07 -1.55209e-06 0.000720528)
(5.12674e-07 1.57235e-06 -0.000718208)
(-8.46977e-06 0.000699333 -5.31316e-07)
(-2.13715e-06 -4.3815e-06 0.00072554)
(4.36413e-06 6.79703e-06 -0.000724226)
(0.000625523 -2.94423e-06 -6.30053e-08)
(-1.06709e-06 0.000709056 -2.68038e-08)
(2.2699e-08 8.20307e-09 0.000707915)
(-2.32612e-08 -8.41425e-09 -0.000707839)
(0.000626023 -5.67398e-06 -1.21568e-07)
(-1.02126e-06 0.000708623 -8.01586e-08)
(2.223e-08 2.43779e-08 0.000708174)
(-2.27933e-08 -2.50179e-08 -0.000708076)
(0.00062651 -8.16208e-06 -1.75787e-07)
(-9.96235e-07 0.000708137 -1.34469e-07)
(2.3024e-08 4.05508e-08 0.000708374)
(-2.36024e-08 -4.16416e-08 -0.000708254)
(0.000627008 -1.04676e-05 -2.27214e-07)
(-1.02035e-06 0.000707771 -1.93404e-07)
(2.55518e-08 5.78486e-08 0.000708663)
(-2.61409e-08 -5.94163e-08 -0.000708517)
(0.00062754 -1.26434e-05 -2.77852e-07)
(-1.08986e-06 0.000707506 -2.61564e-07)
(2.93652e-08 7.74056e-08 0.000709055)
(-2.99374e-08 -7.94632e-08 -0.000708877)
(0.000628125 -1.47317e-05 -3.29176e-07)
(-1.20333e-06 0.000707325 -3.44009e-07)
(3.36394e-08 9.99219e-08 0.000709563)
(-3.41656e-08 -1.02484e-07 -0.000709344)
(0.000628786 -1.67615e-05 -3.80165e-07)
(-1.36152e-06 0.000707203 -4.46424e-07)
(3.71665e-08 1.25702e-07 0.000710191)
(-3.75562e-08 -1.28735e-07 -0.000709923)
(0.000629544 -1.87501e-05 -4.28466e-07)
(-1.56723e-06 0.000707111 -5.7579e-07)
(3.77705e-08 1.54392e-07 0.000710941)
(-3.78419e-08 -1.57698e-07 -0.000710613)
(0.000630422 -2.06982e-05 -4.69647e-07)
(-1.82383e-06 0.000707009 -7.41099e-07)
(3.09077e-08 1.83925e-07 0.00071181)
(-3.04192e-08 -1.87122e-07 -0.00071141)
(0.000631443 -2.25831e-05 -4.95606e-07)
(-2.13453e-06 0.000706838 -9.54423e-07)
(8.16734e-09 2.09122e-07 0.000712776)
(-6.87849e-09 -2.11651e-07 -0.000712288)
(0.000632631 -2.4341e-05 -4.95593e-07)
(-2.50171e-06 0.000706514 -1.23366e-06)
(-4.5532e-08 2.20148e-07 0.000713802)
(4.76551e-08 -2.21243e-07 -0.000713209)
(0.000633995 -2.58588e-05 -4.58943e-07)
(-2.92083e-06 0.000705932 -1.60747e-06)
(-1.55898e-07 2.00493e-07 0.000714832)
(1.58353e-07 -1.99198e-07 -0.000714101)
(0.000635525 -2.69627e-05 -3.88368e-07)
(-3.36528e-06 0.00070498 -2.12561e-06)
(-3.63706e-07 1.27539e-07 0.000715795)
(3.64902e-07 -1.22712e-07 -0.000714865)
(0.00063712 -2.74543e-05 -3.37617e-07)
(-3.71984e-06 0.000703659 -2.87505e-06)
(-7.07634e-07 -1.56783e-08 0.000716681)
(7.07141e-07 2.59172e-08 -0.000715412)
(0.000638374 -2.72703e-05 -5.31724e-07)
(-3.45051e-06 0.000702303 -3.9772e-06)
(-1.08187e-06 -2.01281e-07 0.000717657)
(1.12722e-06 2.22376e-07 -0.000715696)
(-8.02532e-06 0.000697007 -2.87194e-06)
(-3.55608e-06 5.8668e-07 0.000716436)
(6.89603e-06 -1.92729e-06 -0.000712615)
(0.000625479 -2.85795e-06 -1.04078e-07)
(-1.54513e-06 0.000711914 -3.87954e-08)
(3.66621e-08 7.49871e-09 0.000710812)
(-3.75962e-08 -7.706e-09 -0.000710696)
(0.000625936 -5.50735e-06 -2.01082e-07)
(-1.47754e-06 0.000711273 -1.15976e-07)
(3.57528e-08 2.22185e-08 0.000710807)
(-3.66975e-08 -2.28443e-08 -0.000710674)
(0.00062638 -7.92036e-06 -2.90971e-07)
(-1.43902e-06 0.000710551 -1.94399e-07)
(3.69493e-08 3.68483e-08 0.000710715)
(-3.7921e-08 -3.78942e-08 -0.000710565)
(0.000626832 -1.0158e-05 -3.76559e-07)
(-1.47115e-06 0.00071001 -2.79264e-07)
(4.10797e-08 5.25314e-08 0.000710772)
(-4.20755e-08 -5.40007e-08 -0.0007106)
(0.000627311 -1.22744e-05 -4.61961e-07)
(-1.56764e-06 0.000709624 -3.77174e-07)
(4.73504e-08 7.04361e-08 0.00071098)
(-4.83645e-08 -7.23719e-08 -0.000710779)
(0.000627833 -1.43085e-05 -5.49082e-07)
(-1.72495e-06 0.000709362 -4.95254e-07)
(5.47413e-08 9.15858e-08 0.000711334)
(-5.57297e-08 -9.40386e-08 -0.000711096)
(0.000628416 -1.62931e-05 -6.36403e-07)
(-1.94364e-06 0.000709191 -6.41337e-07)
(6.19305e-08 1.17093e-07 0.000711824)
(-6.2708e-08 -1.20041e-07 -0.000711542)
(0.000629076 -1.82576e-05 -7.21226e-07)
(-2.22651e-06 0.000709078 -8.24971e-07)
(6.62005e-08 1.48087e-07 0.000712437)
(-6.64571e-08 -1.51431e-07 -0.000712103)
(0.000629827 -2.02183e-05 -7.96366e-07)
(-2.57623e-06 0.000708973 -1.05822e-06)
(6.20148e-08 1.85917e-07 0.000713147)
(-6.13741e-08 -1.89445e-07 -0.000712754)
(0.000630686 -2.21844e-05 -8.50118e-07)
(-2.99477e-06 0.000708807 -1.35699e-06)
(3.94541e-08 2.32653e-07 0.000713904)
(-3.74715e-08 -2.35939e-07 -0.000713448)
(0.000631657 -2.41393e-05 -8.65394e-07)
(-3.47661e-06 0.000708471 -1.74384e-06)
(-1.82267e-08 2.92221e-07 0.000714624)
(2.1898e-08 -2.94422e-07 -0.000714099)
(0.000632728 -2.60289e-05 -8.20936e-07)
(-3.99729e-06 0.000707821 -2.25275e-06)
(-1.37623e-07 3.73607e-07 0.000715177)
(1.4282e-07 -3.73223e-07 -0.000714577)
(0.000633847 -2.77432e-05 -7.04679e-07)
(-4.48946e-06 0.000706689 -2.93951e-06)
(-3.54175e-07 4.98398e-07 0.000715391)
(3.59803e-07 -4.92955e-07 -0.000714693)
(0.000634877 -2.90988e-05 -5.54642e-07)
(-4.75665e-06 0.000705001 -3.89899e-06)
(-6.84634e-07 7.11988e-07 0.000715157)
(6.91268e-07 -6.97974e-07 -0.000714283)
(0.000635494 -2.99115e-05 -6.05858e-07)
(-4.11879e-06 0.0007031 -5.28353e-06)
(-9.84995e-07 1.06592e-06 0.000714754)
(1.03592e-06 -1.05031e-06 -0.000713397)
(-9.56282e-06 0.000698726 -3.69503e-06)
(-2.221e-06 2.0067e-06 0.000712055)
(4.11254e-06 -2.43116e-06 -0.00071039)
(0.000625416 -2.72684e-06 -1.43014e-07)
(-1.95995e-06 0.000714641 -4.9126e-08)
(4.92414e-08 6.63658e-09 0.000713587)
(-5.05263e-08 -6.82407e-09 -0.000713433)
(0.000625812 -5.25116e-06 -2.76777e-07)
(-1.87238e-06 0.000713798 -1.4682e-07)
(4.79293e-08 1.97201e-08 0.000713303)
(-4.92261e-08 -2.02795e-08 -0.000713139)
(0.000626195 -7.54871e-06 -4.00553e-07)
(-1.82038e-06 0.00071285 -2.45892e-07)
(4.95579e-08 3.28647e-08 0.000712907)
(-5.08795e-08 -3.37927e-08 -0.000712732)
(0.000626581 -9.6778e-06 -5.19484e-07)
(-1.85633e-06 0.00071214 -3.52823e-07)
(5.52755e-08 4.71262e-08 0.000712717)
(-5.66518e-08 -4.84519e-08 -0.000712525)
(0.000626986 -1.1685e-05 -6.39724e-07)
(-1.97062e-06 0.000711633 -4.75807e-07)
(6.41003e-08 6.37127e-08 0.000712722)
(-6.55635e-08 -6.55054e-08 -0.000712503)
(0.000627421 -1.36125e-05 -7.62829e-07)
(-2.15819e-06 0.000711292 -6.23369e-07)
(7.5162e-08 8.39613e-08 0.0007129)
(-7.66243e-08 -8.62798e-08 -0.000712649)
(0.000627896 -1.55034e-05 -8.87918e-07)
(-2.41818e-06 0.000711085 -8.04836e-07)
(8.72979e-08 1.09508e-07 0.000713232)
(-8.85304e-08 -1.12391e-07 -0.000712943)
(0.000628422 -1.73984e-05 -1.01326e-06)
(-2.75182e-06 0.000710977 -1.03144e-06)
(9.81873e-08 1.42699e-07 0.000713694)
(-9.88535e-08 -1.46191e-07 -0.000713363)
(0.000629006 -1.93352e-05 -1.13071e-06)
(-3.1602e-06 0.000710914 -1.31717e-06)
(1.03574e-07 1.87749e-07 0.000714243)
(-1.03152e-07 -1.91822e-07 -0.000713867)
(0.000629651 -2.13488e-05 -1.22681e-06)
(-3.6418e-06 0.000710825 -1.6802e-06)
(9.5723e-08 2.5243e-07 0.000714813)
(-9.35091e-08 -2.56819e-07 -0.000714394)
(0.000630354 -2.34771e-05 -1.28015e-06)
(-4.18479e-06 0.000710603 -2.14573e-06)
(6.22692e-08 3.50634e-07 0.000715294)
(-5.73978e-08 -3.54603e-07 -0.000714839)
(0.000631098 -2.57453e-05 -1.25939e-06)
(-4.74905e-06 0.000710092 -2.75068e-06)
(-1.40198e-08 5.07408e-07 0.00071552)
(2.21715e-08 -5.09367e-07 -0.000715043)
(0.00063183 -2.81357e-05 -1.12897e-06)
(-5.23307e-06 0.000709076 -3.55338e-06)
(-1.53624e-07 7.62905e-07 0.00071526)
(1.65037e-07 -7.60076e-07 -0.000714777)
(0.000632452 -3.05054e-05 -8.82121e-07)
(-5.39414e-06 0.00070736 -4.65319e-06)
(-3.57611e-07 1.16487e-06 0.000714319)
(3.73075e-07 -1.15419e-06 -0.000713812)
(0.000632783 -3.24852e-05 -6.70433e-07)
(-4.49385e-06 0.000705071 -6.23411e-06)
(-5.25351e-07 1.70917e-06 0.000712942)
(5.69179e-07 -1.70039e-06 -0.000712203)
(-1.01444e-05 0.000702105 -4.3655e-06)
(-1.02354e-06 2.67309e-06 0.000709791)
(2.08493e-06 -3.30067e-06 -0.000709552)
(0.000625338 -2.54903e-06 -1.7893e-07)
(-2.29645e-06 0.000717191 -5.74547e-08)
(6.04822e-08 5.98546e-09 0.000716197)
(-6.20878e-08 -6.15883e-09 -0.00071601)
(0.000625659 -4.90452e-06 -3.46595e-07)
(-2.19133e-06 0.000716154 -1.71579e-07)
(5.89121e-08 1.7845e-08 0.000715625)
(-6.05271e-08 -1.83643e-08 -0.000715433)
(0.000625966 -7.04405e-06 -5.02109e-07)
(-2.12612e-06 0.00071499 -2.87021e-07)
(6.10624e-08 2.9875e-08 0.000714918)
(-6.27211e-08 -3.07615e-08 -0.000714722)
(0.000626272 -9.01768e-06 -6.53086e-07)
(-2.16093e-06 0.000714115 -4.11266e-07)
(6.83801e-08 4.30604e-08 0.00071447)
(-7.01517e-08 -4.43722e-08 -0.000714261)
(0.000626587 -1.08694e-05 -8.06056e-07)
(-2.28335e-06 0.000713487 -5.53491e-07)
(7.99017e-08 5.86249e-08 0.000714254)
(-8.18259e-08 -6.04326e-08 -0.000714023)
(0.000626917 -1.26457e-05 -9.63133e-07)
(-2.4865e-06 0.00071307 -7.23015e-07)
(9.49997e-08 7.79791e-08 0.00071424)
(-9.69816e-08 -8.0369e-08 -0.000713983)
(0.000627268 -1.43903e-05 -1.12587e-06)
(-2.76693e-06 0.000712833 -9.30036e-07)
(1.1292e-07 1.03002e-07 0.000714404)
(-1.14741e-07 -1.06091e-07 -0.000714116)
(0.00062764 -1.61473e-05 -1.2941e-06)
(-3.12278e-06 0.000712738 -1.18661e-06)
(1.3257e-07 1.36777e-07 0.000714712)
(-1.33894e-07 -1.40695e-07 -0.000714389)
(0.000628032 -1.79696e-05 -1.46108e-06)
(-3.55195e-06 0.000712741 -1.50742e-06)
(1.52205e-07 1.84851e-07 0.000715113)
(-1.52399e-07 -1.89694e-07 -0.000714755)
(0.000628438 -1.99209e-05 -1.61442e-06)
(-4.04989e-06 0.000712782 -1.91148e-06)
(1.68397e-07 2.57129e-07 0.000715533)
(-1.66527e-07 -2.62867e-07 -0.000715149)
(0.000628852 -2.20881e-05 -1.73321e-06)
(-4.60374e-06 0.000712777 -2.42572e-06)
(1.76014e-07 3.70686e-07 0.00071587)
(-1.70688e-07 -3.76937e-07 -0.000715471)
(0.000629264 -2.45814e-05 -1.77951e-06)
(-5.17105e-06 0.00071259 -3.08991e-06)
(1.70504e-07 5.53976e-07 0.000715961)
(-1.59988e-07 -5.59416e-07 -0.000715576)
(0.000629654 -2.74876e-05 -1.69561e-06)
(-5.64028e-06 0.000711985 -3.96666e-06)
(1.44297e-07 8.48791e-07 0.000715562)
(-1.27458e-07 -8.50826e-07 -0.000715233)
(0.000629985 -3.07319e-05 -1.41729e-06)
(-5.74918e-06 0.0007106 -5.16264e-06)
(9.06593e-08 1.29478e-06 0.000714373)
(-6.69845e-08 -1.29038e-06 -0.000714141)
(0.000630161 -3.37601e-05 -9.25018e-07)
(-4.70481e-06 0.000708096 -6.88204e-06)
(1.52212e-08 1.86296e-06 0.000712295)
(2.02491e-08 -1.85945e-06 -0.000712139)
(-1.03809e-05 0.000706813 -4.71706e-06)
(4.78481e-08 2.69858e-06 0.000709231)
(8.92587e-08 -3.16568e-06 -0.000710861)
(0.000625248 -2.32825e-06 -2.11625e-07)
(-2.543e-06 0.000719519 -6.34805e-08)
(7.07444e-08 5.53732e-09 0.0007186)
(-7.26522e-08 -5.70396e-09 -0.000718382)
(0.000625483 -4.47545e-06 -4.09642e-07)
(-2.42368e-06 0.000718302 -1.8941e-07)
(6.89873e-08 1.65039e-08 0.000717736)
(-7.09092e-08 -1.70089e-08 -0.000717521)
(0.000625705 -6.41687e-06 -5.94052e-07)
(-2.34605e-06 0.000716933 -3.16417e-07)
(7.16621e-08 2.76124e-08 0.000716718)
(-7.36623e-08 -2.84783e-08 -0.000716504)
(0.000625922 -8.19822e-06 -7.73513e-07)
(-2.37581e-06 0.000715898 -4.52542e-07)
(8.05276e-08 3.97744e-08 0.000716005)
(-8.26961e-08 -4.10439e-08 -0.000715784)
(0.000626139 -9.86196e-06 -9.54142e-07)
(-2.49794e-06 0.000715152 -6.0742e-07)
(9.46946e-08 5.41316e-08 0.000715558)
(-9.7093e-08 -5.58831e-08 -0.000715324)
(0.000626357 -1.1445e-05 -1.14125e-06)
(-2.7023e-06 0.000714656 -7.90738e-07)
(1.13808e-07 7.20465e-08 0.000715344)
(-1.16367e-07 -7.44012e-08 -0.00071509)
(0.000626575 -1.29817e-05 -1.3393e-06)
(-2.98206e-06 0.000714372 -1.01289e-06)
(1.37706e-07 9.54098e-08 0.000715328)
(-1.40227e-07 -9.85174e-08 -0.000715047)
(0.000626786 -1.45128e-05 -1.54935e-06)
(-3.33167e-06 0.000714273 -1.28575e-06)
(1.66715e-07 1.27202e-07 0.000715469)
(-1.68899e-07 -1.31271e-07 -0.000715159)
(0.00062698 -1.60928e-05 -1.76842e-06)
(-3.74498e-06 0.000714326 -1.62357e-06)
(2.01664e-07 1.72476e-07 0.000715719)
(-2.02851e-07 -1.77781e-07 -0.000715384)
(0.000627143 -1.7802e-05 -1.98799e-06)
(-4.21422e-06 0.000714498 -2.04491e-06)
(2.43476e-07 2.39798e-07 0.000716015)
(-2.42583e-07 -2.46581e-07 -0.000715662)
(0.000627264 -1.97601e-05 -2.19245e-06)
(-4.72906e-06 0.000714743 -2.5769e-06)
(2.93759e-07 3.43076e-07 0.000716277)
(-2.88998e-07 -3.51384e-07 -0.000715921)
(0.00062734 -2.21353e-05 -2.34735e-06)
(-5.25881e-06 0.000714975 -3.26207e-06)
(3.58739e-07 5.04197e-07 0.00071638)
(-3.47328e-07 -5.13532e-07 -0.000716053)
(0.0006274 -2.51269e-05 -2.3896e-06)
(-5.72014e-06 0.000714985 -4.17224e-06)
(4.4236e-07 7.56145e-07 0.000716114)
(-4.21769e-07 -7.64758e-07 -0.000715867)
(0.000627505 -2.88512e-05 -2.20621e-06)
(-5.88604e-06 0.000714328 -5.43412e-06)
(5.26724e-07 1.13317e-06 0.000715125)
(-4.9532e-07 -1.13737e-06 -0.000715037)
(0.000627681 -3.28097e-05 -1.52656e-06)
(-4.91272e-06 0.000712056 -7.27115e-06)
(5.22813e-07 1.61914e-06 0.000712783)
(-4.9098e-07 -1.62135e-06 -0.000713073)
(-1.06103e-05 0.00071348 -4.89344e-06)
(9.61654e-07 2.3305e-06 0.000710716)
(-1.55139e-06 -2.67053e-06 -0.000714368)
(0.000625151 -2.07218e-06 -2.3999e-07)
(-2.69196e-06 0.000721591 -6.69808e-08)
(8.02662e-08 5.16342e-09 0.000720757)
(-8.24594e-08 -5.31802e-09 -0.000720514)
(0.000625292 -3.97844e-06 -4.64054e-07)
(-2.56281e-06 0.000720209 -1.99689e-07)
(7.82948e-08 1.53461e-08 0.000719608)
(-8.05087e-08 -1.58111e-08 -0.000719374)
(0.000625424 -5.69337e-06 -6.73099e-07)
(-2.47504e-06 0.000718648 -3.3316e-07)
(8.13986e-08 2.55571e-08 0.000718283)
(-8.37218e-08 -2.63508e-08 -0.000718057)
(0.000625548 -7.25531e-06 -8.75394e-07)
(-2.49736e-06 0.000717461 -4.75559e-07)
(9.16328e-08 3.6611e-08 0.000717305)
(-9.41738e-08 -3.77799e-08 -0.00071708)
(0.000625665 -8.69445e-06 -1.07813e-06)
(-2.61187e-06 0.000716593 -6.36495e-07)
(1.08157e-07 4.95124e-08 0.000716626)
(-1.1102e-07 -5.11369e-08 -0.000716394)
(0.000625771 -1.00344e-05 -1.29058e-06)
(-2.80496e-06 0.000715998 -8.25612e-07)
(1.30886e-07 6.54174e-08 0.000716199)
(-1.3403e-07 -6.76179e-08 -0.000715951)
(0.000625858 -1.12999e-05 -1.51853e-06)
(-3.066e-06 0.000715641 -1.05279e-06)
(1.60186e-07 8.58642e-08 0.000715981)
(-1.63445e-07 -8.88079e-08 -0.000715713)
(0.000625914 -1.25205e-05 -1.76469e-06)
(-3.38517e-06 0.000715498 -1.32877e-06)
(1.97416e-07 1.13053e-07 0.000715932)
(-2.00567e-07 -1.16981e-07 -0.000715643)
(0.000625923 -1.3737e-05 -2.03006e-06)
(-3.75117e-06 0.000715548 -1.66625e-06)
(2.45195e-07 1.5027e-07 0.00071601)
(-2.47625e-07 -1.55517e-07 -0.000715702)
(0.00062586 -1.50104e-05 -2.31132e-06)
(-4.15083e-06 0.000715778 -2.08151e-06)
(3.07268e-07 2.0244e-07 0.000716164)
(-3.07835e-07 -2.09403e-07 -0.000715846)
(0.0006257 -1.64425e-05 -2.6019e-06)
(-4.57252e-06 0.000716185 -2.59892e-06)
(3.89198e-07 2.76632e-07 0.000716341)
(-3.86023e-07 -2.85819e-07 -0.000716029)
(0.00062543 -1.81866e-05 -2.88341e-06)
(-4.99892e-06 0.000716731 -3.25983e-06)
(5.02952e-07 3.82255e-07 0.000716457)
(-4.92858e-07 -3.94362e-07 -0.000716178)
(0.000625089 -2.04903e-05 -3.11507e-06)
(-5.39984e-06 0.000717304 -4.14311e-06)
(6.60812e-07 5.3264e-07 0.000716364)
(-6.39872e-07 -5.47935e-07 -0.000716162)
(0.00062485 -2.37194e-05 -3.18716e-06)
(-5.68312e-06 0.000717574 -5.41061e-06)
(8.43574e-07 7.47567e-07 0.000715793)
(-8.07381e-07 -7.6427e-07 -0.000715744)
(0.000625062 -2.79455e-05 -2.60182e-06)
(-5.15776e-06 0.000716299 -7.3595e-06)
(9.16403e-07 1.04885e-06 0.000713806)
(-8.82918e-07 -1.06478e-06 -0.000714303)
(-1.19138e-05 0.000725037 -4.90642e-06)
(1.82403e-06 1.66965e-06 0.000716007)
(-2.97995e-06 -1.91432e-06 -0.000721935)
(0.00062505 -1.78609e-06 -2.63093e-07)
(8.91242e-08 4.8082e-09 0.000722639)
(-9.15814e-08 -4.95064e-09 -0.000722375)
(-2.73953e-06 0.000723378 -6.79351e-08)
(0.000625096 -3.42855e-06 -5.08096e-07)
(8.68808e-08 1.42482e-08 0.000721219)
(-8.93552e-08 -1.4669e-08 -0.000720971)
(-2.60615e-06 0.000721852 -2.02365e-07)
(0.000625136 -4.89916e-06 -7.3627e-07)
(9.02411e-08 2.35673e-08 0.000719602)
(-9.28538e-08 -2.42748e-08 -0.00071937)
(-2.51217e-06 0.00072012 -3.37162e-07)
(0.000625167 -6.22006e-06 -9.55886e-07)
(1.01562e-07 3.34293e-08 0.000718365)
(-1.04448e-07 -3.44707e-08 -0.000718141)
(-2.52614e-06 0.000718783 -4.80365e-07)
(0.000625187 -7.40646e-06 -1.17632e-06)
(1.19969e-07 4.46407e-08 0.000717446)
(-1.23255e-07 -4.6083e-08 -0.000717221)
(-2.62792e-06 0.000717781 -6.413e-07)
(0.000625186 -8.47176e-06 -1.40807e-06)
(1.45516e-07 5.79802e-08 0.000716791)
(-1.49197e-07 -5.99203e-08 -0.000716556)
(-2.80112e-06 0.000717065 -8.28964e-07)
(0.000625156 -9.42894e-06 -1.65729e-06)
(1.78901e-07 7.43783e-08 0.000716352)
(-1.82866e-07 -7.69763e-08 -0.000716104)
(-3.03129e-06 0.000716601 -1.0521e-06)
(0.000625078 -1.02897e-05 -1.9288e-06)
(2.21948e-07 9.4984e-08 0.000716088)
(-2.26015e-07 -9.84382e-08 -0.000715825)
(-3.3033e-06 0.000716362 -1.31973e-06)
(0.00062493 -1.10679e-05 -2.2255e-06)
(2.77868e-07 1.21001e-07 0.000715954)
(-2.81489e-07 -1.25555e-07 -0.000715681)
(-3.59918e-06 0.000716331 -1.64197e-06)
(0.000624678 -1.17821e-05 -2.54893e-06)
(3.51171e-07 1.53446e-07 0.000715906)
(-3.53298e-07 -1.59498e-07 -0.000715633)
(-3.89692e-06 0.000716499 -2.03093e-06)
(0.000624275 -1.24571e-05 -2.90085e-06)
(4.48065e-07 1.92621e-07 0.000715897)
(-4.47026e-07 -2.00869e-07 -0.00071564)
(-4.17034e-06 0.000716868 -2.50356e-06)
(0.000623652 -1.31259e-05 -3.27914e-06)
(5.793e-07 2.35324e-07 0.000715825)
(-5.7226e-07 -2.47055e-07 -0.000715619)
(-4.3833e-06 0.000717412 -3.0869e-06)
(0.000622709 -1.38601e-05 -3.67488e-06)
(7.55044e-07 2.70012e-07 0.000715487)
(-7.37983e-07 -2.87506e-07 -0.000715405)
(-4.47409e-06 0.000718055 -3.82945e-06)
(0.000621285 -1.48443e-05 -4.03734e-06)
(9.55268e-07 2.75903e-07 0.000714422)
(-9.23243e-07 -3.03319e-07 -0.000714646)
(-4.29137e-06 0.000718586 -4.82364e-06)
(0.000619208 -1.68529e-05 -3.95747e-06)
(1.06232e-06 2.54691e-07 0.000711241)
(-1.02991e-06 -2.92098e-07 -0.00071247)
(-3.11251e-06 0.000718345 -6.21014e-06)
(2.71696e-06 6.98935e-07 0.000727431)
(-4.27758e-06 -8.63205e-07 -0.000736168)
(-1.81966e-05 0.000747729 -4.13157e-06)
(0.000625569 -3.02577e-06 -1.79919e-08)
(-5.68114e-07 0.000706151 -1.2491e-08)
(7.23608e-09 8.14059e-09 0.000704973)
(0.000626114 -5.82973e-06 -3.48322e-08)
(-5.44801e-07 0.000705931 -3.73573e-08)
(7.11184e-09 2.42799e-08 0.0007055)
(0.000626648 -8.38566e-06 -5.02064e-08)
(-5.33555e-07 0.000705684 -6.258e-08)
(7.3926e-09 4.05878e-08 0.000705994)
(0.000627198 -1.07547e-05 -6.44166e-08)
(-5.49475e-07 0.000705498 -8.97115e-08)
(8.2306e-09 5.81421e-08 0.000706522)
(0.000627789 -1.29869e-05 -7.80645e-08)
(-5.90627e-07 0.000705362 -1.2068e-07)
(9.49064e-09 7.80417e-08 0.00070711)
(0.000628446 -1.5125e-05 -9.1139e-08)
(-6.56982e-07 0.000705269 -1.57395e-07)
(1.09108e-08 1.00944e-07 0.000707782)
(0.000629196 -1.71981e-05 -1.03083e-07)
(-7.49194e-07 0.000705205 -2.01902e-07)
(1.20377e-08 1.26714e-07 0.000708561)
(0.000630065 -1.92167e-05 -1.13123e-07)
(-8.69264e-07 0.000705151 -2.56391e-07)
(1.20956e-08 1.53857e-07 0.000709468)
(0.000631086 -2.11695e-05 -1.19964e-07)
(-1.02065e-06 0.000705085 -3.22963e-07)
(9.60557e-09 1.78396e-07 0.000710527)
(0.00063229 -2.3006e-05 -1.21587e-07)
(-1.20657e-06 0.000704966 -4.03542e-07)
(1.8802e-09 1.91778e-07 0.000711756)
(0.000633717 -2.46344e-05 -1.16838e-07)
(-1.43322e-06 0.000704748 -4.99299e-07)
(-1.60191e-08 1.77102e-07 0.000713176)
(0.000635409 -2.59095e-05 -1.07295e-07)
(-1.70726e-06 0.000704371 -6.07842e-07)
(-5.19056e-08 1.03533e-07 0.00071481)
(0.0006374 -2.66483e-05 -1.03395e-07)
(-2.02997e-06 0.000703776 -7.14807e-07)
(-1.16705e-07 -8.01849e-08 0.000716691)
(0.000639672 -2.67308e-05 -1.3219e-07)
(-2.36524e-06 0.000702976 -7.72689e-07)
(-2.15098e-07 -4.42491e-07 0.000718868)
(0.000641903 -2.63295e-05 -2.21078e-07)
(-2.42219e-06 0.000702181 -6.8857e-07)
(-3.0256e-07 -1.00971e-06 0.000721305)
(-6.51542e-06 0.000700957 -4.34095e-07)
(-9.94779e-07 -2.41046e-06 0.000726454)
(0.000625546 -2.98314e-06 -5.39664e-08)
(-1.11243e-06 0.000709135 -2.45051e-08)
(2.13113e-08 7.69247e-09 0.000707981)
(0.000626068 -5.74949e-06 -1.04567e-07)
(-1.06617e-06 0.000708698 -7.32081e-08)
(2.08589e-08 2.28423e-08 0.000708261)
(0.000626579 -8.27173e-06 -1.50933e-07)
(-1.04303e-06 0.000708208 -1.22471e-07)
(2.1618e-08 3.79652e-08 0.00070848)
(0.000627104 -1.06098e-05 -1.9411e-07)
(-1.07263e-06 0.00070784 -1.7535e-07)
(2.40629e-08 5.41445e-08 0.000708792)
(0.000627666 -1.28178e-05 -2.35626e-07)
(-1.1514e-06 0.000707575 -2.35601e-07)
(2.77755e-08 7.24946e-08 0.000709212)
(0.000628289 -1.49385e-05 -2.75583e-07)
(-1.27823e-06 0.000707396 -3.07049e-07)
(3.20395e-08 9.37591e-08 0.000709753)
(0.000628996 -1.70004e-05 -3.12476e-07)
(-1.45416e-06 0.000707274 -3.93584e-07)
(3.57987e-08 1.18315e-07 0.00071042)
(0.00062981 -1.90194e-05 -3.43943e-07)
(-1.68292e-06 0.000707179 -4.99146e-07)
(3.71142e-08 1.45974e-07 0.000711216)
(0.000630757 -2.0993e-05 -3.65658e-07)
(-1.96885e-06 0.000707067 -6.27794e-07)
(3.21311e-08 1.75199e-07 0.000712137)
(0.000631861 -2.28945e-05 -3.71424e-07)
(-2.31649e-06 0.000706875 -7.83023e-07)
(1.38652e-08 2.01807e-07 0.000713161)
(0.000633142 -2.46558e-05 -3.5775e-07)
(-2.73005e-06 0.000706512 -9.65864e-07)
(-2.99032e-08 2.17503e-07 0.000714255)
(0.000634602 -2.61559e-05 -3.25257e-07)
(-3.20577e-06 0.000705863 -1.16923e-06)
(-1.17512e-07 2.08792e-07 0.000715361)
(0.000636195 -2.72173e-05 -2.9633e-07)
(-3.71452e-06 0.000704806 -1.36236e-06)
(-2.71908e-07 1.58402e-07 0.000716413)
(0.000637741 -2.76509e-05 -3.36136e-07)
(-4.1235e-06 0.000703338 -1.45395e-06)
(-4.95154e-07 5.51992e-08 0.000717402)
(0.00063879 -2.74372e-05 -5.13103e-07)
(-3.88424e-06 0.000701844 -1.28289e-06)
(-6.69376e-07 -7.78375e-08 0.000718429)
(-5.89142e-06 0.000697629 -4.19441e-07)
(-1.66092e-06 2.55344e-07 0.000717387)
(0.0006255 -2.89586e-06 -8.95591e-08)
(-1.6106e-06 0.000712031 -3.54895e-08)
(3.43896e-08 7.01396e-09 0.000710912)
(0.000625979 -5.58065e-06 -1.73318e-07)
(-1.54234e-06 0.000711385 -1.05959e-07)
(3.35085e-08 2.07822e-08 0.000710923)
(0.000626445 -8.02652e-06 -2.50349e-07)
(-1.50646e-06 0.000710657 -1.77159e-07)
(3.46505e-08 3.44784e-08 0.000710847)
(0.000626921 -1.0296e-05 -3.22822e-07)
(-1.54633e-06 0.000710112 -2.53503e-07)
(3.86225e-08 4.91915e-08 0.000710922)
(0.000627428 -1.24451e-05 -3.93082e-07)
(-1.65597e-06 0.000709728 -3.40317e-07)
(4.47008e-08 6.60276e-08 0.000711155)
(0.000627985 -1.45127e-05 -4.6134e-07)
(-1.83206e-06 0.000709469 -4.42966e-07)
(5.20161e-08 8.59719e-08 0.000711538)
(0.000628608 -1.65312e-05 -5.25294e-07)
(-2.0755e-06 0.0007093 -5.66737e-07)
(5.94126e-08 1.10129e-07 0.000712061)
(0.000629317 -1.85294e-05 -5.81008e-07)
(-2.39029e-06 0.000709185 -7.16935e-07)
(6.45499e-08 1.39691e-07 0.000712711)
(0.000630128 -2.05216e-05 -6.21103e-07)
(-2.78022e-06 0.000709069 -8.98921e-07)
(6.28093e-08 1.76082e-07 0.000713458)
(0.000631054 -2.25141e-05 -6.35727e-07)
(-3.24864e-06 0.000708879 -1.11696e-06)
(4.57472e-08 2.21229e-07 0.000714253)
(0.000632097 -2.44833e-05 -6.16146e-07)
(-3.79091e-06 0.000708495 -1.37092e-06)
(-2.59386e-10 2.7857e-07 0.00071501)
(0.000633229 -2.63639e-05 -5.54884e-07)
(-4.38082e-06 0.000707762 -1.64777e-06)
(-9.4365e-08 3.55066e-07 0.000715595)
(0.000634359 -2.80265e-05 -4.67483e-07)
(-4.94284e-06 0.000706503 -1.90048e-06)
(-2.56337e-07 4.64647e-07 0.000715842)
(0.000635279 -2.92588e-05 -4.21561e-07)
(-5.25255e-06 0.000704652 -2.00119e-06)
(-4.7513e-07 6.30762e-07 0.000715659)
(0.000635659 -2.98635e-05 -5.06963e-07)
(-4.63673e-06 0.000702649 -1.74266e-06)
(-6.13289e-07 8.66279e-07 0.0007153)
(-6.62743e-06 0.000698775 -5.61588e-07)
(-1.03777e-06 1.3403e-06 0.000712953)
(0.000625435 -2.76189e-06 -1.23455e-07)
(-2.04267e-06 0.000714794 -4.49787e-08)
(4.61665e-08 6.21915e-09 0.00071372)
(0.00062585 -5.3195e-06 -2.3879e-07)
(-1.95426e-06 0.000713944 -1.34286e-07)
(4.49043e-08 1.84756e-08 0.000713447)
(0.000626252 -7.64794e-06 -3.45109e-07)
(-1.90542e-06 0.000712987 -2.24431e-07)
(4.64713e-08 3.07947e-08 0.000713061)
(0.00062666 -9.80798e-06 -4.46233e-07)
(-1.95093e-06 0.000712275 -3.20864e-07)
(5.19572e-08 4.41798e-08 0.000712886)
(0.000627089 -1.18475e-05 -5.45617e-07)
(-2.08141e-06 0.000711772 -4.30217e-07)
(6.04552e-08 5.97561e-08 0.000712911)
(0.000627553 -1.38082e-05 -6.43039e-07)
(-2.29169e-06 0.000711435 -5.5888e-07)
(7.12627e-08 7.87735e-08 0.000713113)
(0.000628063 -1.57337e-05 -7.35675e-07)
(-2.58154e-06 0.000711232 -7.13049e-07)
(8.34196e-08 1.02806e-07 0.000713471)
(0.000628629 -1.76652e-05 -8.18486e-07)
(-2.95329e-06 0.000711125 -8.98957e-07)
(9.49873e-08 1.34099e-07 0.000713959)
(0.000629259 -1.96401e-05 -8.82082e-07)
(-3.40911e-06 0.000711056 -1.12253e-06)
(1.02416e-07 1.76488e-07 0.000714531)
(0.000629956 -2.16913e-05 -9.13566e-07)
(-3.9488e-06 0.000710945 -1.38814e-06)
(9.9084e-08 2.36885e-07 0.000715116)
(0.000630712 -2.38515e-05 -8.95606e-07)
(-4.56058e-06 0.000710678 -1.69444e-06)
(7.51363e-08 3.27428e-07 0.0007156)
(0.0006315 -2.61346e-05 -8.08547e-07)
(-5.20046e-06 0.000710084 -2.02351e-06)
(1.76032e-08 4.6838e-07 0.000715809)
(0.000632244 -2.8493e-05 -6.42613e-07)
(-5.75349e-06 0.000708936 -2.31535e-06)
(-8.63496e-08 6.87589e-07 0.000715509)
(0.000632804 -3.07335e-05 -4.34232e-07)
(-5.94404e-06 0.00070705 -2.4151e-06)
(-2.26189e-07 1.00709e-06 0.000714525)
(0.000633021 -3.24325e-05 -2.87234e-07)
(-5.06636e-06 0.000704662 -2.08406e-06)
(-3.1236e-07 1.39429e-06 0.000713136)
(-6.72105e-06 0.000701365 -7.13446e-07)
(-4.67548e-07 1.90449e-06 0.000710215)
(0.000625354 -2.58111e-06 -1.54572e-07)
(-2.39297e-06 0.000717375 -5.26299e-08)
(5.66966e-08 5.60464e-09 0.000716359)
(0.00062569 -4.96717e-06 -2.99577e-07)
(-2.28679e-06 0.000716331 -1.57094e-07)
(5.51766e-08 1.66957e-08 0.000715793)
(0.000626014 -7.13571e-06 -4.33633e-07)
(-2.22502e-06 0.000715158 -2.62341e-07)
(5.72369e-08 2.79262e-08 0.00071509)
(0.000626338 -9.13855e-06 -5.62279e-07)
(-2.27064e-06 0.000714281 -3.74577e-07)
(6.42276e-08 4.02269e-08 0.000714653)
(0.000626672 -1.10193e-05 -6.89462e-07)
(-2.4111e-06 0.000713656 -5.0127e-07)
(7.52525e-08 5.47444e-08 0.000714452)
(0.000627025 -1.28249e-05 -8.14477e-07)
(-2.63936e-06 0.000713246 -6.49401e-07)
(8.98435e-08 7.27921e-08 0.000714456)
(0.000627401 -1.46022e-05 -9.35383e-07)
(-2.95267e-06 0.000713016 -8.2569e-07)
(1.0747e-07 9.61358e-08 0.000714637)
(0.000627803 -1.63964e-05 -1.04728e-06)
(-3.35003e-06 0.000712929 -1.03673e-06)
(1.27266e-07 1.27621e-07 0.000714962)
(0.000628229 -1.82615e-05 -1.13989e-06)
(-3.83024e-06 0.000712933 -1.28854e-06)
(1.47849e-07 1.72251e-07 0.000715371)
(0.000628672 -2.02612e-05 -1.19738e-06)
(-4.39007e-06 0.000712963 -1.5853e-06)
(1.66385e-07 2.38857e-07 0.000715788)
(0.000629126 -2.24816e-05 -1.19527e-06)
(-5.01699e-06 0.000712927 -1.92512e-06)
(1.78931e-07 3.4216e-07 0.000716098)
(0.000629578 -2.5022e-05 -1.09779e-06)
(-5.66354e-06 0.000712673 -2.28765e-06)
(1.81465e-07 5.05494e-07 0.000716128)
(0.000630006 -2.79405e-05 -8.5845e-07)
(-6.20262e-06 0.000711944 -2.60547e-06)
(1.65558e-07 7.59176e-07 0.000715613)
(0.000630366 -3.11024e-05 -4.60146e-07)
(-6.33682e-06 0.000710387 -2.7074e-06)
(1.22832e-07 1.12055e-06 0.000714267)
(0.000630575 -3.384e-05 -6.83607e-09)
(-5.31743e-06 0.000707724 -2.33268e-06)
(5.73171e-08 1.53927e-06 0.00071209)
(-6.55277e-06 0.000705121 -8.66554e-07)
(4.94768e-08 2.01113e-06 0.000709099)
(0.000625261 -2.35721e-06 -1.82847e-07)
(-2.64944e-06 0.000719733 -5.81787e-08)