/*--------------------------------*- C++ -*----------------------------------*\
| =========                 |                                                 |
| \\      /  F ield         | foam-extend: Open Source CFD                    |
|  \\    /   O peration     | Version:     3.1                                |
|   \\  /    A nd           | Web:         http://www.extend-project.de       |
|    \\/     M anipulation  |                                                 |
\*---------------------------------------------------------------------------*/
FoamFile
{
    version     2.0;
    format      ascii;
    class       volVectorField;
    location    "2.8";
    object      U;
}
// * * * * * * * * * * * * * * * * * * * * * * * * * * * * * * * * * * * * * //

dimensions      [0 1 -1 0 0 0 0];

internalField   nonuniform List<vector> 
14592
(
(0.0190081 -7.94809e-05 -0.00163927)
(0.0189145 8.78799e-05 -0.00301297)
(0.0185751 0.000225562 -0.00396342)
(0.0180244 0.000305509 -0.00489722)
(0.0173745 0.000343789 -0.00591453)
(0.0167395 0.000345091 -0.00703338)
(0.0162127 0.000313263 -0.00826425)
(0.0158513 0.000254475 -0.00963848)
(0.0156708 0.000173386 -0.0112239)
(0.0156579 6.56555e-05 -0.0131387)
(0.0157965 -9.44303e-05 -0.0155716)
(0.0161039 -0.000351897 -0.0188129)
(0.0166449 -0.000775263 -0.0232588)
(0.0173161 -0.0013326 -0.0292053)
(0.0167832 -0.00138836 -0.0355047)
(0.0117012 0.000239311 -0.0318899)
(0.0529502 1.36284e-05 -0.00194104)
(0.0526812 0.000376084 -0.00461493)
(0.0520876 0.000735857 -0.00687938)
(0.0511819 0.000970021 -0.00919782)
(0.0500751 0.00105377 -0.0117205)
(0.0489192 0.00100236 -0.014442)
(0.0478622 0.000860927 -0.0173213)
(0.0469954 0.000687676 -0.0203547)
(0.0463227 0.000528608 -0.023621)
(0.0457619 0.000392091 -0.0273172)
(0.0451722 0.000222494 -0.0318017)
(0.0443741 -0.000111194 -0.0376414)
(0.0431389 -0.000818354 -0.0456235)
(0.0408765 -0.00200169 -0.0562635)
(0.0348517 -0.00286083 -0.0665969)
(0.0197035 -0.00100425 -0.0544527)
(0.0822121 0.00015984 -0.00156143)
(0.081976 0.000696895 -0.00421573)
(0.0814485 0.00125267 -0.00676115)
(0.0806017 0.00166484 -0.00956966)
(0.0794497 0.00184914 -0.0128076)
(0.0780642 0.00180254 -0.0164615)
(0.0765687 0.0015972 -0.0204275)
(0.0750768 0.00135006 -0.0246047)
(0.0736278 0.00117412 -0.0289737)
(0.072147 0.00113215 -0.033667)
(0.070435 0.00118852 -0.0390366)
(0.0681465 0.00118317 -0.045743)
(0.0647898 0.000808286 -0.0548396)
(0.0593983 -0.000314936 -0.0673868)
(0.0481466 -0.00190657 -0.0802416)
(0.0241806 -0.00138769 -0.0648904)
(0.106615 0.000260892 -0.00123795)
(0.10645 0.000918982 -0.00347052)
(0.106065 0.0016049 -0.00570176)
(0.105409 0.00217041 -0.00829261)
(0.104394 0.00250286 -0.0114908)
(0.10296 0.00257223 -0.0153662)
(0.101138 0.00244712 -0.0198345)
(0.0990188 0.0022737 -0.0247335)
(0.096689 0.00222279 -0.0299212)
(0.0941421 0.00243269 -0.0353858)
(0.0912218 0.00294158 -0.0413614)
(0.0875378 0.00365179 -0.048466)
(0.0824262 0.00427872 -0.0578888)
(0.0747196 0.00424652 -0.0713415)
(0.0595816 0.00276049 -0.0864418)
(0.0279861 0.000369911 -0.070906)
(0.12613 0.000335598 -0.00103719)
(0.126008 0.00107816 -0.00290697)
(0.125728 0.00184392 -0.0047383)
(0.12525 0.00252994 -0.00687246)
(0.124428 0.00303682 -0.00963664)
(0.123086 0.00332425 -0.0132311)
(0.12113 0.00344291 -0.0176781)
(0.118579 0.0035333 -0.0228419)
(0.115524 0.00378849 -0.0285146)
(0.112028 0.00440621 -0.03455)
(0.10803 0.00551657 -0.0410228)
(0.103193 0.0071494 -0.0484262)
(0.0967948 0.00916084 -0.0579244)
(0.0876436 0.0110975 -0.071767)
(0.0700517 0.011039 -0.0887137)
(0.0318112 0.00506455 -0.0742181)
(0.140762 0.00039571 -0.000906492)
(0.140661 0.00121009 -0.00253286)
(0.140446 0.00203506 -0.00407035)
(0.1401 0.00281983 -0.00580582)
(0.13947 0.00350446 -0.00808911)
(0.138308 0.00406271 -0.0112186)
(0.136417 0.00453499 -0.0153392)
(0.133726 0.00504208 -0.0203982)
(0.130293 0.00576746 -0.0261911)
(0.126214 0.00693652 -0.0324897)
(0.121528 0.00875466 -0.0392271)
(0.115996 0.0114156 -0.0467483)
(0.108924 0.0149928 -0.0560666)
(0.0992128 0.0195472 -0.069763)
(0.0807984 0.0225636 -0.0880238)
(0.0366528 0.0135997 -0.0750589)
(0.150514 0.000442488 -0.000812382)
(0.15043 0.00131677 -0.0022695)
(0.150267 0.00218783 -0.00361318)
(0.150031 0.00305286 -0.00507403)
(0.149581 0.00390067 -0.00698357)
(0.148646 0.00473556 -0.00968165)
(0.146969 0.00560102 -0.0133954)
(0.14441 0.006598 -0.0181512)
(0.140994 0.00788254 -0.023776)
(0.13683 0.00967646 -0.030005)
(0.132057 0.012227 -0.0366653)
(0.126539 0.0159053 -0.0439593)
(0.119749 0.0210366 -0.0526642)
(0.110561 0.0286785 -0.065364)
(0.0941344 0.0371798 -0.0841463)
(0.044857 0.0288634 -0.0726245)
(0.155387 0.000473939 -0.000742108)
(0.155323 0.00138633 -0.00207045)
(0.155221 0.00228273 -0.00327692)
(0.155099 0.00320264 -0.00455661)
(0.154831 0.00418378 -0.00621625)
(0.154147 0.00526654 -0.00859865)
(0.152775 0.00650416 -0.0119603)
(0.150548 0.00797803 -0.0163635)
(0.147492 0.00980531 -0.0216536)
(0.143737 0.0121757 -0.0275433)
(0.139547 0.0153333 -0.0337821)
(0.134895 0.019773 -0.0404263)
(0.129837 0.0260422 -0.0479747)
(0.122556 0.0361442 -0.0583409)
(0.114837 0.0541508 -0.076237)
(0.0627464 0.0529477 -0.064331)
(0.0203089 -9.9303e-05 -0.00159882)
(0.0201501 5.86729e-05 -0.00294991)
(0.0196921 0.000196255 -0.00388472)
(0.0189766 0.000274688 -0.00480326)
(0.0181142 0.000311176 -0.00580989)
(0.0172125 0.000309934 -0.00692625)
(0.0163604 0.000272721 -0.00816167)
(0.015609 0.000204347 -0.00954032)
(0.0149606 0.00011001 -0.0111177)
(0.0143742 -1.27735e-05 -0.0129865)
(0.0137812 -0.000194875 -0.0152942)
(0.0131086 -0.000483636 -0.0182389)
(0.0122792 -0.000948641 -0.0219999)
(0.0109653 -0.001562 -0.0263626)
(0.00814745 -0.00203847 -0.0293621)
(0.00376083 -0.001823 -0.0225714)
(0.0566346 -1.37709e-05 -0.00184997)
(0.0562561 0.000313915 -0.00443384)
(0.0554555 0.000656622 -0.00661527)
(0.0542461 0.000877245 -0.00883851)
(0.0527341 0.000944763 -0.0112669)
(0.051055 0.000869951 -0.0139132)
(0.0493443 0.000696 -0.0167437)
(0.0476809 0.000483264 -0.0197451)
(0.0460471 0.000282963 -0.0229697)
(0.0443123 0.000104963 -0.0265703)
(0.0422489 -0.000112231 -0.0308219)
(0.0395396 -0.000515204 -0.0361271)
(0.0357613 -0.00132624 -0.0428516)
(0.0299582 -0.00265646 -0.0504256)
(0.0201289 -0.00401398 -0.0543812)
(0.00778171 -0.00369668 -0.0386653)
(0.0879578 0.000137843 -0.00146562)
(0.0876181 0.000631017 -0.00399717)
(0.0868794 0.00115754 -0.00641472)
(0.0857136 0.00154747 -0.00905788)
(0.0841278 0.00170462 -0.0121063)
(0.0821621 0.001615 -0.0155802)
(0.079908 0.00134726 -0.0194036)
(0.0774507 0.00102537 -0.023482)
(0.0747993 0.000777371 -0.0277718)
(0.0718291 0.000677882 -0.03235)
(0.0682491 0.000690463 -0.0374707)
(0.0635578 0.000628337 -0.043607)
(0.0570184 0.00013421 -0.0513319)
(0.0471111 -0.0012001 -0.0602681)
(0.0307294 -0.00321813 -0.0650219)
(0.0108729 -0.00396717 -0.0460114)
(0.114075 0.000249682 -0.00115517)
(0.113819 0.000873729 -0.0032762)
(0.11324 0.0015344 -0.00538501)
(0.112292 0.00208298 -0.00779202)
(0.110885 0.00239419 -0.010743)
(0.108922 0.00242255 -0.0143458)
(0.106374 0.00222871 -0.0185669)
(0.103274 0.00196761 -0.0232787)
(0.099658 0.00183472 -0.0283362)
(0.0954608 0.00199776 -0.0336764)
(0.0904352 0.00251165 -0.0394263)
(0.0840223 0.0032648 -0.0460011)
(0.075296 0.00390957 -0.0541201)
(0.0623346 0.00379273 -0.0638459)
(0.0406691 0.00210175 -0.0697114)
(0.0139056 -0.00112903 -0.0500515)
(0.134961 0.000334211 -0.000966518)
(0.134757 0.00106161 -0.00274819)
(0.134297 0.00181655 -0.00449168)
(0.133549 0.0025008 -0.00647191)
(0.132385 0.00300596 -0.00898629)
(0.130595 0.00327678 -0.012259)
(0.128012 0.0033534 -0.0163743)
(0.124565 0.00338253 -0.0212601)
(0.120255 0.00358443 -0.0267371)
(0.115064 0.00419853 -0.0326273)
(0.108837 0.00539811 -0.0388996)
(0.101069 0.0072344 -0.0458307)
(0.0907851 0.00955106 -0.0541466)
(0.0759444 0.0117441 -0.0643683)
(0.0504639 0.0117859 -0.0713221)
(0.0172794 0.00533511 -0.0519942)
(0.15062 0.000402324 -0.000844043)
(0.150446 0.00122082 -0.00239935)
(0.150063 0.0020521 -0.0038829)
(0.149461 0.0028524 -0.00551096)
(0.148519 0.00355813 -0.00757867)
(0.14698 0.00413301 -0.0103831)
(0.144575 0.00460969 -0.0141252)
(0.141116 0.00511389 -0.0188346)
(0.136541 0.00585441 -0.0243669)
(0.130833 0.00710457 -0.030491)
(0.123921 0.009134 -0.0370492)
(0.115406 0.0121996 -0.044164)
(0.10435 0.0164574 -0.052449)
(0.0889066 0.0218265 -0.0628201)
(0.0614029 0.0254182 -0.0706777)
(0.0220168 0.0165242 -0.0519558)
(0.161056 0.000455008 -0.00075616)
(0.160907 0.00135019 -0.00215219)
(0.160588 0.00224402 -0.00346386)
(0.160107 0.0031401 -0.00485561)
(0.159368 0.00402825 -0.00659066)
(0.158108 0.00491045 -0.00898487)
(0.156011 0.00582929 -0.0123077)
(0.152819 0.00689427 -0.0166731)
(0.148415 0.00828582 -0.0219909)
(0.142773 0.010274 -0.0280205)
(0.135907 0.0131825 -0.034523)
(0.127546 0.0174851 -0.0414923)
(0.116898 0.0237009 -0.0493493)
(0.102522 0.0329564 -0.0592929)
(0.0762541 0.0428815 -0.0677762)
(0.0305897 0.0359249 -0.0494459)
(0.166272 0.000490604 -0.000690528)
(0.166148 0.00143752 -0.00196471)
(0.165901 0.00237107 -0.00315143)
(0.165549 0.00333444 -0.00438466)
(0.165015 0.00436951 -0.00589853)
(0.164049 0.00552253 -0.0079999)
(0.162333 0.0068553 -0.0109768)
(0.159591 0.00846409 -0.0149781)
(0.155705 0.0104902 -0.0199419)
(0.150666 0.013169 -0.0256248)
(0.144624 0.0168196 -0.0317333)
(0.137477 0.0220743 -0.0381569)
(0.128986 0.0297241 -0.0450816)
(0.117746 0.0424066 -0.0536617)
(0.101329 0.0634075 -0.0626187)
(0.0486815 0.0641187 -0.0432479)
(0.0214198 -0.000118557 -0.00149045)
(0.0211974 2.94734e-05 -0.00275677)
(0.0206262 0.000166409 -0.00363162)
(0.0197576 0.00024211 -0.00448987)
(0.0187016 0.000274943 -0.00543387)
(0.01756 0.000268592 -0.00648673)
(0.0164175 0.000223181 -0.00765595)
(0.0153201 0.00014239 -0.0089575)
(0.0142654 3.49145e-05 -0.0104262)
(0.013198 -0.000110266 -0.0121239)
(0.0120267 -0.0003122 -0.014143)
(0.0106559 -0.00061272 -0.0165821)
(0.00899859 -0.00106658 -0.0194463)
(0.00685425 -0.00166327 -0.0223002)
(0.00393922 -0.002289 -0.0232196)
(0.00091862 -0.00231312 -0.01603)
(0.0597898 -3.83014e-05 -0.00169204)
(0.0593081 0.000256032 -0.00408063)
(0.0583145 0.000580934 -0.00609059)
(0.0568271 0.000785712 -0.00812834)
(0.0549514 0.000833514 -0.0103574)
(0.05281 0.000730867 -0.0128028)
(0.0505257 0.000518994 -0.0154377)
(0.0481665 0.000259782 -0.0182409)
(0.0456983 1.29119e-05 -0.0212366)
(0.0429667 -0.000209136 -0.0245194)
(0.0397118 -0.00046273 -0.0282635)
(0.0355836 -0.000891251 -0.032694)
(0.0301699 -0.00170101 -0.0378528)
(0.0227792 -0.00299977 -0.0427656)
(0.0128809 -0.00450747 -0.043187)
(0.00315969 -0.00445623 -0.0273999)
(0.092881 0.000119433 -0.00132331)
(0.0924462 0.000573049 -0.00363931)
(0.0915129 0.00107112 -0.005844)
(0.0900553 0.00143757 -0.00823329)
(0.0880804 0.00156509 -0.0109834)
(0.0856063 0.00142942 -0.0141363)
(0.0826941 0.00109454 -0.0176408)
(0.0794032 0.000689893 -0.0214108)
(0.0757178 0.000358601 -0.0253841)
(0.0714825 0.000195676 -0.0295775)
(0.0663662 0.000171631 -0.0341329)
(0.0598283 9.92354e-05 -0.0393253)
(0.0511281 -0.000381562 -0.0453399)
(0.0389712 -0.00166445 -0.0511959)
(0.0222038 -0.00378328 -0.0516173)
(0.00544286 -0.00478664 -0.0321527)
(0.120469 0.000241233 -0.00103808)
(0.120131 0.000836704 -0.00297155)
(0.119374 0.00147439 -0.00488928)
(0.118155 0.00200663 -0.00704727)
(0.116392 0.00229709 -0.0096699)
(0.113962 0.00228525 -0.0128812)
(0.110788 0.00202176 -0.0166854)
(0.106852 0.00166761 -0.0209871)
(0.102139 0.00144025 -0.0256457)
(0.0965448 0.00154002 -0.0305552)
(0.0897791 0.00204884 -0.0357321)
(0.081241 0.00286458 -0.0413772)
(0.0699816 0.00362634 -0.0477948)
(0.0541541 0.00366605 -0.0542828)
(0.0315429 0.00198457 -0.0552452)
(0.00798086 -0.00147204 -0.034504)
(0.142529 0.000334879 -0.000867408)
(0.142254 0.00105191 -0.00249348)
(0.141632 0.00179845 -0.00408865)
(0.14063 0.00248214 -0.00586757)
(0.139144 0.00298789 -0.00808312)
(0.136949 0.00324581 -0.0109547)
(0.133823 0.00328302 -0.0146002)
(0.129618 0.00324851 -0.0189983)
(0.124254 0.00338545 -0.0240025)
(0.117644 0.00397398 -0.0294146)
(0.10958 0.0052346 -0.0351052)
(0.0995167 0.00725269 -0.0411373)
(0.0864718 0.00987729 -0.0478175)
(0.0683078 0.0124454 -0.0547798)
(0.0412268 0.0126758 -0.056463)
(0.0111217 0.00600677 -0.0354513)
(0.159068 0.000410335 -0.000757205)
(0.158832 0.00123678 -0.00217856)
(0.1583 0.00207651 -0.00354828)
(0.157457 0.00289349 -0.00502704)
(0.156215 0.00362247 -0.0068503)
(0.154319 0.00421779 -0.00928515)
(0.151457 0.00470197 -0.0125507)
(0.147355 0.00520121 -0.0167309)
(0.141837 0.00594376 -0.0217364)
(0.134784 0.00724529 -0.0273448)
(0.126053 0.00943551 -0.0333217)
(0.115198 0.0128343 -0.0395834)
(0.101314 0.017654 -0.0463473)
(0.082339 0.0237403 -0.0535735)
(0.0525619 0.0278357 -0.0560038)
(0.0159406 0.0188125 -0.0351327)
(0.170091 0.000468642 -0.000678444)
(0.169886 0.00138763 -0.00195469)
(0.16943 0.00230622 -0.00317389)
(0.168722 0.0032347 -0.00445412)
(0.167698 0.00416491 -0.00599448)
(0.166118 0.00509654 -0.00806338)
(0.163638 0.00606932 -0.0109306)
(0.159915 0.00719658 -0.0147594)
(0.15471 0.00867702 -0.0195271)
(0.147869 0.0108208 -0.0250265)
(0.139313 0.0140155 -0.03097)
(0.128721 0.0188183 -0.0371656)
(0.115358 0.0258715 -0.0436902)
(0.0976283 0.0362962 -0.0508118)
(0.0684765 0.0471997 -0.0540139)
(0.0250106 0.0404934 -0.0333673)
(0.175599 0.000508425 -0.000619583)
(0.175425 0.001492 -0.00178475)
(0.175054 0.00246469 -0.00289236)
(0.17449 0.00347365 -0.0040367)
(0.173691 0.00456445 -0.00538865)
(0.172439 0.00578775 -0.00720039)
(0.1704 0.0072116 -0.00974969)
(0.167227 0.00894344 -0.0132295)
(0.16268 0.0111437 -0.0176504)
(0.156622 0.0140842 -0.0228184)
(0.149102 0.0181424 -0.0284194)
(0.139986 0.0240465 -0.0341943)
(0.129077 0.0327437 -0.0400629)
(0.115129 0.0471193 -0.0464615)
(0.0957613 0.0698219 -0.0507892)
(0.0435193 0.0702117 -0.0296038)
(0.0223429 -0.000136282 -0.00131817)
(0.0220613 1.64361e-06 -0.00244203)
(0.0213867 0.000138297 -0.00321696)
(0.0203811 0.000211087 -0.00397514)
(0.0191551 0.000239517 -0.00481052)
(0.0178057 0.000227576 -0.0057455)
(0.0164145 0.000174265 -0.00678521)
(0.015029 8.30493e-05 -0.00793788)
(0.0136443 -4.40146e-05 -0.00921902)
(0.0122025 -0.000208183 -0.010664)
(0.0106148 -0.000423665 -0.0123166)
(0.00879648 -0.000723829 -0.0142048)
(0.00670115 -0.00114724 -0.0162469)
(0.00429771 -0.00169191 -0.0179825)
(0.00176029 -0.00231456 -0.017865)
(-0.000260135 -0.00233095 -0.0116425)
(0.062417 -5.94451e-05 -0.00147351)
(0.0618425 0.000204731 -0.00357128)
(0.060676 0.000513357 -0.00533093)
(0.0589417 0.000702884 -0.00710563)
(0.05675 0.000731079 -0.00904649)
(0.0542127 0.000600331 -0.0111846)
(0.0514436 0.000350184 -0.0134991)
(0.0485033 4.58841e-05 -0.0159642)
(0.0453519 -0.000250391 -0.0185801)
(0.0418313 -0.000513793 -0.0213887)
(0.0376792 -0.000789958 -0.0244822)
(0.0325754 -0.00121217 -0.0279539)
(0.0262044 -0.00195873 -0.0316805)
(0.0182228 -0.00313285 -0.034653)
(0.00899028 -0.00456991 -0.0334445)
(0.00116231 -0.00452449 -0.0199603)
(0.0969826 0.000104516 -0.00114057)
(0.0964643 0.000524381 -0.00315756)
(0.0953586 0.000997084 -0.0050734)
(0.0936424 0.001342 -0.00713366)
(0.0913287 0.00144227 -0.00949745)
(0.0884192 0.00126334 -0.0122157)
(0.0849539 0.000863664 -0.0152572)
(0.0809711 0.000378114 -0.0185467)
(0.0764382 -3.36056e-05 -0.022013)
(0.0711902 -0.000259221 -0.0256279)
(0.0648883 -0.000310759 -0.0294425)
(0.0570242 -0.000355711 -0.0335763)
(0.0469631 -0.000737448 -0.0379951)
(0.0338071 -0.00183762 -0.0415954)
(0.0176122 -0.00382951 -0.0400159)
(0.00309066 -0.00486818 -0.0232622)
(0.125796 0.000235054 -0.000891271)
(0.125387 0.000807492 -0.00256977)
(0.124476 0.00142568 -0.00423345)
(0.123015 0.00194398 -0.00608497)
(0.120939 0.0022171 -0.00831508)
(0.118105 0.00217035 -0.0110456)
(0.114405 0.00184419 -0.0143027)
(0.109779 0.00140176 -0.0180189)
(0.104172 0.0010817 -0.0220662)
(0.0974543 0.0011163 -0.0263147)
(0.0893341 0.00161803 -0.0307007)
(0.07924 0.0025127 -0.0352734)
(0.0663115 0.00344669 -0.0400728)
(0.0490509 0.00374374 -0.0441618)
(0.0267058 0.00224821 -0.0427889)
(0.00546214 -0.00128743 -0.0247503)
(0.148835 0.000336593 -0.000744018)
(0.148499 0.00104704 -0.00215586)
(0.147737 0.00178751 -0.00354589)
(0.146512 0.00247194 -0.00507711)
(0.144736 0.00298056 -0.00695273)
(0.142182 0.00323041 -0.00936706)
(0.138595 0.0032354 -0.012446)
(0.133766 0.00314251 -0.0162011)
(0.127551 0.00321298 -0.0205189)
(0.119809 0.00376595 -0.0252018)
(0.110317 0.00506933 -0.0300608)
(0.0985565 0.00724484 -0.0350151)
(0.0836468 0.0101586 -0.0401018)
(0.063701 0.0131081 -0.0446196)
(0.036481 0.0136195 -0.0437124)
(0.00858664 0.00681411 -0.0252559)
(0.166107 0.000418482 -0.000649472)
(0.165818 0.00125468 -0.00188387)
(0.165159 0.00210368 -0.00308423)
(0.164105 0.00293694 -0.00436896)
(0.16259 0.00368922 -0.00591765)
(0.160371 0.00430743 -0.00795199)
(0.157111 0.00480276 -0.0106786)
(0.152475 0.00529814 -0.0142067)
(0.146203 0.0060359 -0.0184895)
(0.138093 0.00736659 -0.023328)
(0.127958 0.00967326 -0.0284526)
(0.115371 0.0133318 -0.0336532)
(0.0995496 0.0185957 -0.0388943)
(0.0785843 0.0252523 -0.0437334)
(0.0482234 0.0297925 -0.0434326)
(0.013571 0.0206165 -0.0249537)
(0.177619 0.00048191 -0.000582114)
(0.177366 0.00142477 -0.0016903)
(0.176797 0.00236754 -0.00276262)
(0.17589 0.0033268 -0.00388517)
(0.174608 0.00429725 -0.00520345)
(0.172729 0.00527703 -0.00693004)
(0.169904 0.00630182 -0.00930534)
(0.165737 0.00748525 -0.0125059)
(0.159897 0.00903778 -0.0165533)
(0.152128 0.0113001 -0.0212801)
(0.142282 0.0147099 -0.0263881)
(0.130039 0.0198886 -0.0315832)
(0.114802 0.0275536 -0.0367282)
(0.0950924 0.0387887 -0.0416691)
(0.0649019 0.0503623 -0.0421556)
(0.0230209 0.0436533 -0.0238169)
(0.183372 0.000525655 -0.000531711)
(0.183154 0.00154452 -0.00154342)
(0.182679 0.00255465 -0.0025196)
(0.181933 0.00360704 -0.003529)
(0.180895 0.00475076 -0.0046929)
(0.17937 0.00604002 -0.00620529)
(0.177035 0.00754711 -0.00830674)
(0.173497 0.00938704 -0.011196)
(0.168432 0.0117334 -0.0149279)
(0.161595 0.0148842 -0.0193583)
(0.15296 0.019258 -0.0241845)
(0.142383 0.0256461 -0.0290752)
(0.129789 0.0350849 -0.0337937)
(0.11413 0.0505455 -0.0384229)
(0.0935134 0.0742712 -0.0402114)
(0.0417204 0.0740969 -0.0214395)
(0.0230798 -0.000151619 -0.00108938)
(0.0227464 -2.35075e-05 -0.00202074)
(0.021983 0.000113638 -0.00266095)
(0.0208612 0.000183958 -0.00328577)
(0.0194931 0.000208472 -0.00397462)
(0.017973 0.000190964 -0.00474712)
(0.0163812 0.000129406 -0.00560646)
(0.0147674 2.66819e-05 -0.00655317)
(0.0131301 -0.000115875 -0.00759338)
(0.0114169 -0.000295142 -0.00873934)
(0.00955049 -0.000519841 -0.0100039)
(0.00746923 -0.000812984 -0.0113768)
(0.00517302 -0.00120175 -0.0127525)
(0.00275198 -0.00168661 -0.0137403)
(0.000602172 -0.00225931 -0.0132178)
(-0.00077941 -0.00225347 -0.00833358)
(0.0645174 -7.68266e-05 -0.00120293)
(0.0638639 0.000161557 -0.00292655)
(0.0625511 0.000456685 -0.00436913)
(0.060609 0.000633177 -0.005817)
(0.058154 0.000644076 -0.00739852)
(0.0552931 0.000488836 -0.0091449)
(0.0521334 0.000204305 -0.0110405)
(0.0487336 -0.000141682 -0.0130595)
(0.0450543 -0.000481452 -0.015185)
(0.0409432 -0.000779917 -0.0174266)
(0.0361566 -0.00107056 -0.0198191)
(0.0304214 -0.00146726 -0.0223772)
(0.0235296 -0.00212884 -0.0249271)
(0.0154014 -0.00315508 -0.0266111)
(0.00683531 -0.0044592 -0.0249042)
(0.000240483 -0.0043976 -0.0143625)
(0.100263 9.28626e-05 -0.000923754)
(0.0996752 0.000485481 -0.00257044)
(0.0984252 0.000937066 -0.00413244)
(0.0964917 0.0012641 -0.00580158)
(0.0938957 0.00134153 -0.00770967)
(0.09063 0.00112595 -0.00990671)
(0.0867195 0.000670568 -0.0123747)
(0.0821889 0.000114103 -0.0150535)
(0.0769966 -0.000369918 -0.0178714)
(0.0709782 -0.0006496 -0.0207783)
(0.0638144 -0.000715823 -0.0237697)
(0.0550463 -0.000718217 -0.0268649)
(0.044166 -0.000970261 -0.0299466)
(0.0306085 -0.00185293 -0.0320376)
(0.0150598 -0.00364789 -0.0298699)
(0.00201405 -0.00469623 -0.0167044)
(0.130057 0.000230653 -0.000719708)
(0.129591 0.000785319 -0.00208644)
(0.128551 0.00138786 -0.0034413)
(0.126889 0.00189518 -0.00493687)
(0.124548 0.00215515 -0.00672424)
(0.121381 0.00208055 -0.00890897)
(0.117257 0.00170243 -0.0115249)
(0.112084 0.0011844 -0.0145274)
(0.105783 0.000782098 -0.0178089)
(0.098211 0.000757779 -0.0212382)
(0.0890884 0.00125701 -0.0247128)
(0.077903 0.00222894 -0.0282013)
(0.0639201 0.00334278 -0.0316112)
(0.0459631 0.00391014 -0.0340658)
(0.0240687 0.00264994 -0.0319345)
(0.00433854 -0.000937404 -0.0176966)
(0.153879 0.000338659 -0.000600408)
(0.153494 0.00104528 -0.00174964)
(0.152617 0.00178157 -0.00288503)
(0.151205 0.00246744 -0.00412588)
(0.149184 0.00298015 -0.00562624)
(0.14633 0.00322646 -0.00754291)
(0.142366 0.00320738 -0.00999053)
(0.137042 0.00306618 -0.0129967)
(0.130168 0.00307749 -0.0164778)
(0.12157 0.00359268 -0.0202586)
(0.11102 0.00492184 -0.0241363)
(0.0980593 0.0072272 -0.0279646)
(0.081933 0.0103874 -0.031648)
(0.0610343 0.0136719 -0.0344655)
(0.0339942 0.0144627 -0.0326473)
(0.00752193 0.00755429 -0.0180024)
(0.171738 0.000425905 -0.000524165)
(0.171405 0.00127198 -0.00152878)
(0.170644 0.00212988 -0.00251256)
(0.169416 0.00297759 -0.00356097)
(0.16767 0.0037511 -0.00480482)
(0.165173 0.00439172 -0.0064146)
(0.161581 0.00490018 -0.00856449)
(0.156519 0.00539425 -0.011363)
(0.149668 0.00612478 -0.0147924)
(0.140764 0.00746959 -0.018689)
(0.129597 0.0098552 -0.0227934)
(0.115782 0.0137055 -0.0268531)
(0.0986725 0.0193022 -0.0307157)
(0.0765791 0.0263906 -0.0338511)
(0.0460875 0.031295 -0.0325124)
(0.0126697 0.0219809 -0.0177933)
(0.18364 0.000493722 -0.000469971)
(0.183349 0.00145827 -0.00137164)
(0.182687 0.0024227 -0.00225205)
(0.18162 0.00340884 -0.00317383)
(0.18012 0.00441464 -0.00423966)
(0.177983 0.0054374 -0.00560715)
(0.174862 0.00650883 -0.00747051)
(0.170336 0.0077406 -0.00999064)
(0.164009 0.00934964 -0.0132109)
(0.15555 0.0116982 -0.0170051)
(0.144765 0.015261 -0.0211035)
(0.131353 0.0207067 -0.0251929)
(0.114853 0.0287984 -0.0290481)
(0.0939686 0.0405854 -0.0323759)
(0.0633191 0.0526331 -0.0317315)
(0.0224022 0.045884 -0.0170935)
(0.189589 0.000540952 -0.000429367)
(0.189335 0.00159108 -0.00125247)
(0.188778 0.00263418 -0.00205473)
(0.187885 0.00372462 -0.00288675)
(0.186644 0.00491463 -0.00383241)
(0.184884 0.00626132 -0.0050321)
(0.182289 0.00783984 -0.00667577)
(0.178452 0.00976976 -0.00893951)
(0.172991 0.0122328 -0.0118952)
(0.165583 0.0155441 -0.0154437)
(0.156143 0.0201489 -0.0193235)
(0.144529 0.0268792 -0.0232047)
(0.130785 0.0368193 -0.0268007)
(0.114049 0.0529704 -0.0300431)
(0.0928109 0.0773643 -0.030579)
(0.0412158 0.076762 -0.0155459)
(0.0236305 -0.000163482 -0.000813428)
(0.0232564 -4.21744e-05 -0.00151097)
(0.022423 9.38764e-05 -0.00198836)
(0.0212098 0.000161768 -0.0024535)
(0.0197316 0.00018271 -0.00296647)
(0.0180807 0.000160511 -0.00354217)
(0.0163386 9.32848e-05 -0.00418232)
(0.0145572 -2.087e-05 -0.00488395)
(0.0127398 -0.000175871 -0.00564714)
(0.0108429 -0.000366793 -0.00647208)
(0.00880273 -0.000597494 -0.00735617)
(0.00657924 -0.00088217 -0.00827621)
(0.00420755 -0.00124101 -0.00913972)
(0.00184662 -0.00167398 -0.00966167)
(-5.74078e-06 -0.00219339 -0.00909682)
(-0.000999761 -0.00218176 -0.00562964)
(0.0660918 -9.00018e-05 -0.000889791)
(0.0653759 0.000128691 -0.00217126)
(0.063948 0.000412716 -0.00324258)
(0.0618438 0.000578806 -0.00431325)
(0.0591857 0.000576018 -0.00548137)
(0.0560781 0.000400677 -0.00677218)
(0.0526251 8.89425e-05 -0.00817547)
(0.0488856 -0.00029175 -0.00966899)
(0.0448256 -0.00066678 -0.0112312)
(0.0403018 -0.000992516 -0.0128548)
(0.0350939 -0.00129109 -0.0145438)
(0.028973 -0.00165812 -0.0162796)
(0.0218163 -0.00224116 -0.0179057)
(0.01371 -0.00313705 -0.0187914)
(0.00565333 -0.00431791 -0.0172349)
(-0.000183554 -0.00425061 -0.00974348)
(0.102723 8.42838e-05 -0.000679265)
(0.102081 0.00045604 -0.00189807)
(0.100718 0.000891761 -0.00305337)
(0.098616 0.00120525 -0.00428191)
(0.0958011 0.00126515 -0.0056816)
(0.0922633 0.00102112 -0.00729421)
(0.0880179 0.000521655 -0.00910909)
(0.0830816 -9.1075e-05 -0.0110832)
(0.0774099 -0.000633313 -0.0131561)
(0.0708439 -0.000955743 -0.0152749)
(0.0630904 -0.00103022 -0.0174114)
(0.0537364 -0.000990052 -0.0195419)
(0.0423822 -0.00111935 -0.0215456)
(0.0286868 -0.00180649 -0.0226829)
(0.0136557 -0.00341342 -0.0207242)
(0.00153011 -0.00448184 -0.0113318)
(0.133252 0.000227686 -0.00052803)
(0.132742 0.000769454 -0.00153758)
(0.131602 0.00136048 -0.00253873)
(0.129784 0.00185995 -0.00363757)
(0.127238 0.00211052 -0.00494293)
(0.123815 0.00201597 -0.00653501)
(0.119369 0.00159837 -0.00844507)
(0.113791 0.00102128 -0.0106449)
(0.106984 0.000553124 -0.013054)
(0.0988023 0.000480468 -0.0155623)
(0.0889818 0.000978066 -0.0180688)
(0.0770722 0.00201454 -0.0205117)
(0.0624485 0.0032844 -0.0227642)
(0.0441625 0.00408401 -0.0241541)
(0.0226478 0.00303961 -0.0221688)
(0.00383525 -0.000597829 -0.0119844)
(0.157661 0.00034063 -0.000440265)
(0.157238 0.0010453 -0.00128875)
(0.156275 0.00177904 -0.00212923)
(0.154718 0.0024666 -0.00304319)
(0.152506 0.00298379 -0.00413815)
(0.149418 0.00322962 -0.00552775)
(0.145165 0.00319423 -0.0073018)
(0.139474 0.00301677 -0.00948969)
(0.132121 0.00298061 -0.012035)
(0.122912 0.00346205 -0.0148014)
(0.111626 0.00480614 -0.0176137)
(0.0978587 0.0072093 -0.0203232)
(0.0809672 0.0105584 -0.0228013)
(0.0595566 0.0141049 -0.024468)
(0.0327172 0.0151233 -0.0226891)
(0.00709434 0.00813797 -0.0121809)
(0.175961 0.000432006 -0.000384379)
(0.175594 0.00128674 -0.0011259)
(0.174755 0.00215231 -0.00185549)
(0.173394 0.00301173 -0.00263136)
(0.171468 0.00380271 -0.00354232)
(0.168754 0.00446273 -0.00470777)
(0.164903 0.004984 -0.00625732)
(0.159522 0.00547903 -0.00828029)
(0.152249 0.00620272 -0.0107746)
(0.142784 0.00755276 -0.0136199)
(0.130902 0.00998847 -0.0166046)
(0.116259 0.013971 -0.0195021)
(0.0983238 0.0198014 -0.0221422)
(0.0755855 0.0271985 -0.0240722)
(0.0450824 0.0323789 -0.0226432)
(0.0123754 0.0229567 -0.0120573)
(0.188156 0.000503272 -0.000344726)
(0.187834 0.00148563 -0.0010101)
(0.187104 0.00246769 -0.00166359)
(0.185915 0.00347531 -0.0023484)
(0.184245 0.00450937 -0.0031329)
(0.181904 0.00556691 -0.00412444)
(0.178551 0.00667652 -0.00546329)
(0.17375 0.00794684 -0.00727544)
(0.16707 0.00959787 -0.00960623)
(0.158127 0.0120058 -0.0123695)
(0.146697 0.0156707 -0.0153537)
(0.132497 0.0212948 -0.0182916)
(0.115176 0.0296696 -0.0209631)
(0.0935917 0.0418223 -0.023087)
(0.0627063 0.0542044 -0.0221883)
(0.0223122 0.0474215 -0.0116421)
(0.194251 0.000553288 -0.000314997)
(0.193969 0.00162864 -0.000922366)
(0.19335 0.00269821 -0.0015181)
(0.192347 0.00381902 -0.00213763)
(0.19095 0.00504594 -0.0028362)
(0.189002 0.00643833 -0.00370759)
(0.186201 0.00807321 -0.00488674)
(0.182133 0.0100726 -0.00650896)
(0.176384 0.0126228 -0.00864107)
(0.168578 0.0160491 -0.0112209)
(0.158589 0.0208128 -0.0140497)
(0.146278 0.0277712 -0.0168557)
(0.131778 0.0380346 -0.0193807)
(0.114371 0.0546159 -0.0215182)
(0.0927945 0.0794575 -0.0215171)
(0.0412063 0.0785746 -0.0106501)
(0.0239956 -0.000171234 -0.000499309)
(0.0235939 -5.43e-05 -0.000928823)
(0.0227127 7.96381e-05 -0.00122112)
(0.0214364 0.000145066 -0.00150529)
(0.0198832 0.000162484 -0.00181885)
(0.0181445 0.000136526 -0.00217085)
(0.0163023 6.33114e-05 -0.0025617)
(0.0144112 -5.94691e-05 -0.00298923)
(0.0124793 -0.000224101 -0.00345083)
(0.0104705 -0.000423926 -0.00394332)
(0.00833188 -0.000659104 -0.0044605)
(0.00603879 -0.000937628 -0.00498276)
(0.0036485 -0.00127664 -0.00544981)
(0.00135511 -0.00167481 -0.00569229)
(-0.000314504 -0.00215878 -0.00528903)
(-0.00110194 -0.00213036 -0.00324423)
(0.0671398 -9.85645e-05 -0.000542188)
(0.0663805 0.000106864 -0.0013275)
(0.0648738 0.000382697 -0.00198241)
(0.0626586 0.000541185 -0.00263457)
(0.0598627 0.00052858 -0.00334576)
(0.0565889 0.000338707 -0.0041318)
(0.0529402 7.07445e-06 -0.00498729)
(0.0489779 -0.0003988 -0.00589663)
(0.0446725 -0.00079926 -0.00684385)
(0.0398898 -0.00114431 -0.00781848)
(0.0344284 -0.00144738 -0.00881456)
(0.0280907 -0.00179022 -0.00981026)
(0.0208108 -0.00231739 -0.010702)
(0.0127665 -0.00312122 -0.0111127)
(0.00503882 -0.00421454 -0.0100707)
(-0.000370478 -0.00413773 -0.0056313)
(0.104361 7.88157e-05 -0.000412094)
(0.103681 0.000436574 -0.00115682)
(0.102242 0.000861926 -0.00186125)
(0.100025 0.00116643 -0.00260754)
(0.0970613 0.00121484 -0.00345604)
(0.0933396 0.000951293 -0.00443379)
(0.0888703 0.000421383 -0.00553547)
(0.0836666 -0.000230414 -0.00673461)
(0.0776839 -0.000813449 -0.00799205)
(0.0707692 -0.0011658 -0.00926951)
(0.0626518 -0.00124582 -0.0105398)
(0.0529487 -0.00117471 -0.0117754)
(0.0413386 -0.00121132 -0.012891)
(0.0276143 -0.00175757 -0.013437)
(0.0129263 -0.0032312 -0.0121302)
(0.00132547 -0.00431271 -0.00654776)
(0.135381 0.000225963 -0.000319847)
(0.13484 0.000759545 -0.000935901)
(0.133634 0.00134331 -0.00154584)
(0.131709 0.00183813 -0.00221241)
(0.129022 0.00208305 -0.00300135)
(0.125425 0.00197606 -0.00396211)
(0.120764 0.00153215 -0.00511557)
(0.114918 0.000915059 -0.00644697)
(0.107783 0.000400969 -0.00790653)
(0.0992093 0.000293724 -0.00942247)
(0.0889494 0.000789487 -0.0109241)
(0.0766025 0.00186966 -0.0123583)
(0.0616177 0.00325249 -0.0136285)
(0.0431797 0.00421718 -0.0143241)
(0.0219267 0.0033245 -0.0129919)
(0.00363617 -0.000348189 -0.00692108)
(0.160182 0.000342179 -0.00026662)
(0.159732 0.00104613 -0.000784283)
(0.15871 0.00177863 -0.00129683)
(0.157056 0.00246792 -0.00185193)
(0.154714 0.00298903 -0.00251337)
(0.151466 0.00323599 -0.00334911)
(0.147018 0.00319142 -0.00441527)
(0.141082 0.00299016 -0.00573332)
(0.133418 0.00292125 -0.00727146)
(0.123818 0.00337749 -0.00894404)
(0.11207 0.00472942 -0.0106344)
(0.0978087 0.00719784 -0.0122376)
(0.0804712 0.0106719 -0.0136544)
(0.0587931 0.0143965 -0.0145219)
(0.0321035 0.0155744 -0.0133084)
(0.00695286 0.00853409 -0.00703414)
(0.178774 0.000436319 -0.000232812)
(0.178385 0.00129749 -0.000685218)
(0.177494 0.00216873 -0.00113065)
(0.176044 0.0030365 -0.00160315)
(0.173995 0.00384001 -0.00215466)
(0.171131 0.00451444 -0.00285505)