/*--------------------------------*- C++ -*----------------------------------*\
| =========                 |                                                 |
| \\      /  F ield         | foam-extend: Open Source CFD                    |
|  \\    /   O peration     | Version:     3.1                                |
|   \\  /    A nd           | Web:         http://www.extend-project.de       |
|    \\/     M anipulation  |                                                 |
\*---------------------------------------------------------------------------*/
FoamFile
{
    version     2.0;
    format      ascii;
    class       volSymmTensorField;
    location    "0.001";
    object      epsilon;
}
// * * * * * * * * * * * * * * * * * * * * * * * * * * * * * * * * * * * * * //

dimensions      [0 0 0 0 0 0 0];

internalField   nonuniform List<symmTensor> 
6400
(
(-0.00385172 -0.000251735 0.00809278 0.00174204 0.000196727 0.0135766)
(-0.00213721 -0.000163803 0.00879518 0.00153315 0.000259634 0.00474441)
(-0.000743888 -9.19614e-05 0.00831161 0.00140613 0.000242646 -0.00250592)
(0.000710052 -1.88075e-05 0.00673845 0.00134873 0.000153604 -0.0109473)
(-0.00375498 -0.000653632 0.00804973 0.00170974 0.000937099 0.0134264)
(-0.00206886 -0.000429696 0.00873019 0.0015094 0.00102232 0.00463267)
(-0.000692667 -0.000251435 0.00823708 0.00139818 0.00096618 -0.00262088)
(0.000752088 -7.28157e-05 0.00665392 0.0013607 0.000780239 -0.0111077)
(-0.00361587 -0.00107233 0.00794691 0.00156761 0.00157137 0.0134198)
(-0.0019773 -0.000701949 0.00861933 0.0014193 0.0017073 0.00462838)
(-0.00063768 -0.000409575 0.00813318 0.00134479 0.0016128 -0.00262385)
(0.000771606 -0.000117848 0.00657151 0.00134284 0.00130415 -0.0111092)
(-0.00341531 -0.00146358 0.00779698 0.0013661 0.00219308 0.0134163)
(-0.00184613 -0.000958348 0.008457 0.00128744 0.00238081 0.00462646)
(-0.000561033 -0.000558871 0.00798006 0.00126759 0.00224824 -0.00262451)
(0.000793751 -0.000160425 0.00644783 0.0013197 0.00181804 -0.0111085)
(-0.00315674 -0.00181884 0.00759952 0.00110663 0.0027998 0.0134151)
(-0.00167683 -0.00119128 0.00824296 0.00111727 0.00303856 0.0046263)
(-0.000462395 -0.000694746 0.00777808 0.00116805 0.0028688 -0.00262361)
(0.000821862 -0.000199394 0.00628453 0.0012905 0.00231958 -0.0111063)
(-0.00284609 -0.00212945 0.0073554 0.00079522 0.00338829 0.0134152)
(-0.00147333 -0.00139496 0.00797826 0.00091298 0.00367675 0.0046272)
(-0.000343826 -0.000813633 0.00752827 0.00104858 0.00347089 -0.00262186)
(0.00085559 -0.000233562 0.00608256 0.00125569 0.00280603 -0.0111034)
(-0.00249082 -0.00238782 0.00706594 0.000439329 0.00395523 0.0134164)
(-0.00124052 -0.00156439 0.0076644 0.000679502 0.00429166 0.00462872)
(-0.000208115 -0.000912544 0.0072321 0.000912085 0.00405099 -0.00261973)
(0.000894244 -0.000262022 0.00584315 0.00121605 0.0032746 -0.0111004)
(-0.00209952 -0.00258764 0.0067328 4.75724e-05 0.00449728 0.0134182)
(-0.000983997 -0.00169539 0.00730323 0.000422483 0.00487963 0.00463056)
(-5.851e-05 -0.000988997 0.00689136 0.000761853 0.00460563 -0.00261756)
(0.000936946 -0.000284014 0.00556782 0.00117251 0.00372251 -0.0110976)
(-0.00168164 -0.00272406 0.00635795 -0.000370503 0.00501122 0.0134206)
(-0.000709905 -0.00178469 0.00689698 0.000148197 0.00543713 0.00463242)
(0.00010135 -0.00104103 0.00650823 0.000601593 0.0051315 -0.00261567)
(0.000982654 -0.000298926 0.0052584 0.00112614 0.00414708 -0.0110952)
(-0.001246 -0.00279413 0.00594401 -0.000804751 0.00549421 0.0134224)
(-0.00042494 -0.00183003 0.00644849 -0.000136524 0.00596097 0.00463371)
(0.000267386 -0.00106734 0.00608536 0.000435426 0.0056256 -0.00261451)
(0.00103014 -0.000306401 0.00491703 0.00107828 0.00454593 -0.0110939)
(-0.000804751 -0.00279413 0.00549421 -0.001246 0.00594401 0.0134224)
(-0.000136524 -0.00183003 0.00596097 -0.00042494 0.0064485 0.00463371)
(0.000435426 -0.00106734 0.00562559 0.000267386 0.00608536 -0.00261451)
(0.00107828 -0.000306401 0.00454592 0.00103014 0.00491703 -0.0110939)
(-0.000370504 -0.00272406 0.00501122 -0.00168164 0.00635795 0.0134206)
(0.000148197 -0.00178469 0.00543713 -0.000709905 0.00689698 0.00463242)
(0.000601592 -0.00104103 0.0051315 0.00010135 0.00650823 -0.00261567)
(0.00112614 -0.000298926 0.00414708 0.000982655 0.00525841 -0.0110952)
(4.75715e-05 -0.00258764 0.00449728 -0.00209952 0.0067328 0.0134182)
(0.000422482 -0.00169539 0.00487963 -0.000983997 0.00730323 0.00463056)
(0.000761853 -0.000988997 0.00460563 -5.85102e-05 0.00689136 -0.00261756)
(0.00117251 -0.000284014 0.0037225 0.000936946 0.00556783 -0.0110976)
(0.000439328 -0.00238782 0.00395523 -0.00249082 0.00706594 0.0134164)
(0.000679501 -0.00156439 0.00429166 -0.00124053 0.0076644 0.00462872)
(0.000912084 -0.000912544 0.00405099 -0.000208115 0.0072321 -0.00261973)
(0.00121605 -0.000262022 0.0032746 0.000894244 0.00584315 -0.0111004)
(0.000795219 -0.00212945 0.00338829 -0.00284609 0.0073554 0.0134152)
(0.00091298 -0.00139496 0.00367675 -0.00147334 0.00797827 0.0046272)
(0.00104858 -0.000813634 0.00347089 -0.000343826 0.00752827 -0.00262186)
(0.00125569 -0.000233562 0.00280603 0.00085559 0.00608256 -0.0111034)
(0.00110663 -0.00181884 0.0027998 -0.00315674 0.00759953 0.0134151)
(0.00111727 -0.00119128 0.00303856 -0.00167683 0.00824297 0.0046263)
(0.00116805 -0.000694747 0.00286879 -0.000462396 0.00777808 -0.00262361)
(0.0012905 -0.000199394 0.00231957 0.000821862 0.00628453 -0.0111063)
(0.0013661 -0.00146358 0.00219308 -0.00341531 0.00779698 0.0134163)
(0.00128744 -0.000958349 0.00238081 -0.00184613 0.008457 0.00462646)
(0.00126759 -0.000558871 0.00224824 -0.000561034 0.00798006 -0.00262451)
(0.0013197 -0.000160425 0.00181804 0.000793751 0.00644783 -0.0111085)
(0.00156761 -0.00107233 0.00157137 -0.00361587 0.00794692 0.0134198)
(0.0014193 -0.000701949 0.0017073 -0.0019773 0.00861933 0.00462838)
(0.00134479 -0.000409575 0.0016128 -0.000637681 0.00813318 -0.00262385)
(0.00134284 -0.000117848 0.00130414 0.000771606 0.00657151 -0.0111092)
(0.00170974 -0.000653633 0.000937099 -0.00375498 0.00804973 0.0134264)
(0.0015094 -0.000429697 0.00102231 -0.00206887 0.00873019 0.00463267)
(0.00139818 -0.000251436 0.000966179 -0.000692668 0.00823708 -0.00262088)
(0.0013607 -7.28158e-05 0.000780238 0.000752088 0.00665392 -0.0111077)
(0.00174204 -0.000251735 0.000196727 -0.00385172 0.00809278 0.0135766)
(0.00153315 -0.000163803 0.000259634 -0.00213721 0.00879519 0.00474441)
(0.00140613 -9.19615e-05 0.000242646 -0.00074389 0.00831162 -0.00250592)
(0.00134873 -1.88075e-05 0.000153604 0.000710052 0.00673845 -0.0109473)
(-0.00688454 -0.000546494 0.00352357 0.00559395 -9.59549e-05 0.00365111)
(-0.0046066 -0.000423214 0.00654135 0.00508805 7.09758e-05 0.00177146)
(-0.0025182 -0.000307749 0.00642303 0.0047149 6.79382e-05 -0.000824685)
(-0.000589826 -0.000202508 0.00337983 0.00445761 -9.25273e-05 -0.0028755)
(-0.00670316 -0.00145903 0.00355103 0.0054965 0.000418628 0.00362861)
(-0.00445402 -0.00113485 0.00650301 0.00499445 0.000769617 0.00172478)
(-0.00239319 -0.00084501 0.00634367 0.00464353 0.000753463 -0.00087435)
(-0.000488622 -0.000586056 0.00326655 0.00440812 0.000394651 -0.00290709)
(-0.00639686 -0.00239598 0.00350775 0.00518275 0.000696698 0.00362382)
(-0.00421497 -0.00185568 0.00642161 0.00475895 0.00127822 0.00171838)
(-0.00221314 -0.00138135 0.00626365 0.0044674 0.00124946 -0.000880496)
(-0.000361244 -0.000960715 0.00322557 0.00428433 0.000648705 -0.00291159)
(-0.00594942 -0.00327067 0.00344179 0.00473438 0.000969878 0.00362215)
(-0.0038689 -0.00253382 0.00630075 0.00441229 0.00177809 0.00171688)
(-0.00195535 -0.00188589 0.00614564 0.00420942 0.0017368 -0.000881314)
(-0.000182164 -0.00131155 0.00316459 0.00410432 0.000899118 -0.00291139)
(-0.00537187 -0.00406499 0.00335444 0.00415566 0.00123681 0.00362177)
(-0.00342154 -0.00314984 0.00614115 0.0039638 0.0022666 0.00171718)
(-0.00162258 -0.00234454 0.00598996 0.00387541 0.00221307 -0.000880177)
(4.8939e-05 -0.00163053 0.00308426 0.00387168 0.00114387 -0.00290934)
(-0.00467765 -0.0047595 0.00324621 0.0034604 0.00149605 0.0036221)
(-0.00288357 -0.00368851 0.00594374 0.00342464 0.00274104 0.0017183)
(-0.00122233 -0.0027457 0.00579752 0.00347373 0.00267562 -0.000878234)
(0.000326891 -0.00190954 0.00298515 0.00359196 0.00138155 -0.00290654)
(-0.00388355 -0.00533722 0.00311771 0.0026654 0.001746 0.00362288)
(-0.00226798 -0.0041366 0.00570966 0.00280798 0.00319854 0.00171978)
(-0.000764187 -0.00307938 0.00556947 0.00301425 0.00312165 -0.000876046)
(0.000645102 -0.00214159 0.00286784 0.00327204 0.00161073 -0.00290364)
(-0.00300879 -0.00578405 0.00296965 0.00179004 0.00198496 0.0036239)
(-0.00158963 -0.00448307 0.00544032 0.00212886 0.00363622 0.00172131)
(-0.000259231 -0.0033373 0.00530717 0.00250822 0.00354837 -0.000873983)
(0.000995891 -0.00232088 0.00273304 0.00291977 0.00182997 -0.00290107)
(-0.00207452 -0.00608915 0.00280301 0.000855703 0.0022112 0.00362488)
(-0.000864842 -0.00471927 0.00513744 0.0014039 0.0040512 0.00172261)
(0.000280219 -0.0035129 0.00501229 0.00196811 0.00395307 -0.00087236)
(0.00137064 -0.0024428 0.00258161 0.00254386 0.00203785 -0.00289915)
(-0.00110093 -0.0062457 0.00262005 -0.000114917 0.00242292 0.00362547)
(-0.000111418 -0.00483916 0.00480346 0.000651136 0.00444087 0.00172335)
(0.000840531 -0.00360174 0.00468693 0.00140765 0.00433325 -0.000871459)
(0.00175984 -0.00250437 0.00241461 0.00215398 0.00223307 -0.00289812)
(-0.000114919 -0.0062457 0.00242291 -0.00110093 0.00262005 0.00362547)
(0.000651135 -0.00483916 0.00444087 -0.000111418 0.00480346 0.00172335)
(0.00140764 -0.00360174 0.00433325 0.000840532 0.00468693 -0.000871459)
(0.00215398 -0.00250437 0.00223306 0.00175984 0.00241461 -0.00289812)
(0.0008557 -0.00608915 0.00221119 -0.00207452 0.00280301 0.00362488)
(0.0014039 -0.00471927 0.0040512 -0.000864842 0.00513744 0.00172261)
(0.00196811 -0.0035129 0.00395306 0.000280219 0.0050123 -0.00087236)
(0.00254386 -0.0024428 0.00203785 0.00137064 0.00258161 -0.00289915)
(0.00179004 -0.00578405 0.00198496 -0.00300879 0.00296965 0.0036239)
(0.00212886 -0.00448307 0.00363621 -0.00158963 0.00544032 0.00172131)
(0.00250822 -0.0033373 0.00354837 -0.000259231 0.00530717 -0.000873982)
(0.00291977 -0.00232088 0.00182997 0.000995892 0.00273304 -0.00290107)
(0.0026654 -0.00533723 0.001746 -0.00388355 0.00311771 0.00362288)
(0.00280798 -0.0041366 0.00319854 -0.00226798 0.00570966 0.00171978)
(0.00301425 -0.00307938 0.00312164 -0.000764188 0.00556947 -0.000876045)
(0.00327204 -0.00214159 0.00161073 0.000645102 0.00286784 -0.00290364)
(0.0034604 -0.0047595 0.00149605 -0.00467766 0.00324622 0.0036221)
(0.00342464 -0.00368851 0.00274104 -0.00288358 0.00594374 0.0017183)
(0.00347373 -0.0027457 0.00267561 -0.00122233 0.00579753 -0.000878233)
(0.00359196 -0.00190954 0.00138155 0.000326891 0.00298515 -0.00290654)
(0.00415566 -0.00406499 0.00123681 -0.00537187 0.00335444 0.00362177)
(0.0039638 -0.00314984 0.00226659 -0.00342154 0.00614115 0.00171719)
(0.00387541 -0.00234455 0.00221307 -0.00162258 0.00598996 -0.000880175)
(0.00387167 -0.00163053 0.00114387 4.89386e-05 0.00308426 -0.00290934)
(0.00473438 -0.00327067 0.000969878 -0.00594943 0.00344179 0.00362215)
(0.00441228 -0.00253382 0.00177809 -0.0038689 0.00630076 0.00171688)
(0.00420942 -0.00188589 0.00173679 -0.00195535 0.00614565 -0.000881313)
(0.00410432 -0.00131155 0.000899117 -0.000182165 0.00316459 -0.00291139)
(0.00518275 -0.00239598 0.000696698 -0.00639687 0.00350776 0.00362382)
(0.00475895 -0.00185568 0.00127822 -0.00421497 0.00642161 0.00171838)
(0.0044674 -0.00138135 0.00124946 -0.00221314 0.00626365 -0.000880494)
(0.00428433 -0.000960715 0.000648704 -0.000361245 0.00322558 -0.00291159)
(0.0054965 -0.00145903 0.000418628 -0.00670317 0.00355103 0.00362861)
(0.00499445 -0.00113485 0.000769617 -0.00445403 0.00650301 0.00172478)
(0.00464353 -0.000845011 0.000753462 -0.00239319 0.00634367 -0.000874348)
(0.00440812 -0.000586056 0.000394651 -0.000488623 0.00326655 -0.00290709)
(0.00559395 -0.000546495 -9.59549e-05 -0.00688455 0.00352358 0.00365112)
(0.00508805 -0.000423215 7.09757e-05 -0.0046066 0.00654135 0.00177146)
(0.0047149 -0.000307749 6.7938e-05 -0.00251821 0.00642303 -0.000824683)
(0.00445761 -0.000202508 -9.25275e-05 -0.000589827 0.00337983 -0.0028755)
(-0.00563474 -0.000642242 0.00214427 0.00957224 -0.000143231 -0.00300827)
(-0.00509767 -0.000596316 0.00375957 0.00889629 -5.57124e-05 -0.00132096)
(-0.00434324 -0.000536236 0.00367666 0.00830398 -5.85218e-05 -3.5186e-05)
(-0.00395851 -0.000493 0.00195413 0.0077905 -0.000146914 0.00158923)
(-0.00545765 -0.00177873 0.00214666 0.00941279 0.000248467 -0.00297811)
(-0.00491924 -0.00163803 0.00373069 0.00872348 0.00043654 -0.00130016)
(-0.00418004 -0.00147797 0.00362169 0.00813578 0.000426351 -1.35744e-05)
(-0.00381593 -0.0013671 0.00188537 0.00761404 0.000226715 0.00162295)
(-0.00509036 -0.00292332 0.00211971 0.00903567 0.000418506 -0.00297746)
(-0.00457953 -0.00268207 0.00368369 0.00838478 0.000732073 -0.00129917)
(-0.00387221 -0.00242068 0.00357566 0.0078293 0.000713845 -1.22725e-05)
(-0.0035308 -0.00224725 0.00186227 0.00733198 0.000377196 0.00162428)
(-0.00454589 -0.00399165 0.00207973 0.00849124 0.000584216 -0.00297772)
(-0.00408058 -0.00366292 0.00361399 0.0078855 0.00102001 -0.00129893)
(-0.00342158 -0.00330599 0.00350796 0.00737878 0.000993502 -1.15123e-05)
(-0.00311291 -0.0030696 0.0018267 0.00691369 0.000523212 0.00162557)
(-0.00384156 -0.00496197 0.0020268 0.0077868 0.000745677 -0.00297802)
(-0.0034343 -0.00455378 0.00352204 0.00723889 0.00130041 -0.00129849)
(-0.00283835 -0.0041102 0.00341863 0.006795 0.0012656 -1.0353e-05)
(-0.00257154 -0.00381634 0.00177987 0.00637145 0.000664736 0.00162746)
(-0.00299432 -0.00581046 0.00196112 0.00693947 0.000902442 -0.00297816)
(-0.0026567 -0.00533277 0.00340838 0.00646086 0.00157242 -0.0012978)
(-0.00213654 -0.00481337 0.00330837 0.00609241 0.00152935 -8.8544e-06)
(-0.00192005 -0.00446915 0.00172234 0.0057188 0.000801564 0.00162978)
(-0.00202481 -0.00651634 0.00188298 0.00596986 0.00105366 -0.00297813)
(-0.0017667 -0.00598079 0.00327367 0.00557042 0.00183463 -0.00129696)
(-0.00133321 -0.00539821 0.0031779 0.00528828 0.0017835 -7.24779e-06)
(-0.00117435 -0.00501198 0.0016545 0.00497189 0.000933199 0.00163218)
(-0.000956609 -0.00706231 0.00179286 0.00490171 0.00119822 -0.00297798)
(-0.00078591 -0.00648186 0.00311877 0.00458937 0.0020854 -0.00129613)
(-0.000447913 -0.00585025 0.00302804 0.00440234 0.00202653 -5.77744e-06)
(-0.000352642 -0.00543137 0.00157679 0.00414913 0.00105897 0.0016343)
(0.000184362 -0.0074351 0.00169149 0.00376119 0.00133483 -0.00297781)
(0.000261958 -0.00682347 0.00294478 0.00354173 0.00232303 -0.00129548)
(0.000497706 -0.0061581 0.0028598 0.0034564 0.00225691 -4.66372e-06)
(0.000524857 -0.00571678 0.00148972 0.00327079 0.00117812 0.00163587)
(0.00137268 -0.00762599 0.00158074 0.00257605 0.00146219 -0.00297772)
(0.00135109 -0.00699681 0.00275334 0.00245351 0.00254592 -0.00129513)
(0.00147995 -0.00631394 0.00267446 0.00247421 0.00247322 -4.06835e-06)
(0.00143621 -0.00586112 0.00139393 0.00235895 0.00128994 0.0016367)
(0.00257604 -0.00762599 0.00146218 0.00137268 0.00158074 -0.00297772)
(0.00245351 -0.00699681 0.00254592 0.00135109 0.00275334 -0.00129513)
(0.00247421 -0.00631394 0.00247322 0.00147995 0.00267447 -4.06825e-06)
(0.00235894 -0.00586112 0.00128993 0.00143621 0.00139393 0.0016367)
(0.00376118 -0.0074351 0.00133483 0.000184361 0.00169149 -0.00297781)
(0.00354173 -0.00682347 0.00232302 0.000261958 0.00294479 -0.00129548)
(0.0034564 -0.0061581 0.00225691 0.000497706 0.0028598 -4.66341e-06)
(0.00327079 -0.00571678 0.00117811 0.000524858 0.00148973 0.00163587)
(0.00490171 -0.00706232 0.00119822 -0.000956612 0.00179286 -0.00297798)
(0.00458936 -0.00648186 0.0020854 -0.000785912 0.00311878 -0.00129613)
(0.00440233 -0.00585025 0.00202653 -0.000447914 0.00302804 -5.77692e-06)
(0.00414913 -0.00543137 0.00105897 -0.000352641 0.00157679 0.0016343)
(0.00596986 -0.00651634 0.00105366 -0.00202481 0.00188299 -0.00297813)
(0.00557042 -0.00598079 0.00183463 -0.00176671 0.00327368 -0.00129696)
(0.00528828 -0.00539821 0.00178349 -0.00133321 0.0031779 -7.24705e-06)
(0.00497189 -0.00501198 0.000933198 -0.00117435 0.0016545 0.00163218)
(0.00693946 -0.00581046 0.000902442 -0.00299433 0.00196112 -0.00297816)
(0.00646085 -0.00533278 0.00157242 -0.00265671 0.00340838 -0.0012978)
(0.0060924 -0.00481337 0.00152935 -0.00213654 0.00330837 -8.85346e-06)
(0.00571879 -0.00446915 0.000801563 -0.00192005 0.00172234 0.00162978)
(0.00778679 -0.00496198 0.000745677 -0.00384157 0.00202681 -0.00297802)
(0.00723889 -0.00455378 0.00130041 -0.00343431 0.00352204 -0.00129849)
(0.006795 -0.0041102 0.0012656 -0.00283835 0.00341863 -1.03519e-05)
(0.00637145 -0.00381634 0.000664735 -0.00257154 0.00177987 0.00162746)
(0.00849123 -0.00399165 0.000584216 -0.00454591 0.00207974 -0.00297772)
(0.0078855 -0.00366292 0.00102001 -0.00408059 0.00361399 -0.00129893)
(0.00737878 -0.00330599 0.000993501 -0.00342158 0.00350796 -1.1511e-05)
(0.00691369 -0.0030696 0.000523211 -0.00311291 0.0018267 0.00162557)
(0.00903567 -0.00292332 0.000418506 -0.00509038 0.00211972 -0.00297746)
(0.00838478 -0.00268207 0.000732073 -0.00457954 0.00368369 -0.00129917)
(0.0078293 -0.00242068 0.000713845 -0.00387222 0.00357566 -1.2271e-05)
(0.00733198 -0.00224725 0.000377196 -0.0035308 0.00186227 0.00162428)
(0.00941279 -0.00177873 0.000248467 -0.00545767 0.00214666 -0.00297811)
(0.00872348 -0.00163803 0.00043654 -0.00491925 0.00373069 -0.00130016)
(0.00813578 -0.00147797 0.000426351 -0.00418004 0.0036217 -1.35728e-05)
(0.00761404 -0.0013671 0.000226715 -0.00381593 0.00188537 0.00162295)
(0.00957224 -0.000642243 -0.000143231 -0.00563476 0.00214428 -0.00300826)
(0.00889629 -0.000596317 -5.57124e-05 -0.00509768 0.00375957 -0.00132096)
(0.00830398 -0.000536236 -5.85219e-05 -0.00434325 0.00367666 -3.51844e-05)
(0.0077905 -0.000493 -0.000146914 -0.00395851 0.00195413 0.00158923)
(-0.00505764 -0.000737661 0.00100456 0.0127022 -0.000123831 -0.0069984)
(-0.00540158 -0.000728155 0.00173282 0.0118854 -8.4214e-05 -0.00330202)
(-0.00559796 -0.0007078 0.0016798 0.0111271 -8.59467e-05 0.000101273)
(-0.00605069 -0.000694874 0.000882257 0.0104292 -0.000125733 0.003724)
(-0.00486393 -0.00207746 0.00100073 0.012495 0.000111065 -0.00693843)
(-0.0052036 -0.0020241 0.00171381 0.0116593 0.000197006 -0.00324609)
(-0.00540697 -0.00195602 0.0016494 0.0108934 0.000192129 0.000159913)
(-0.00586717 -0.00191683 0.000846227 0.0101686 0.000101815 0.00379237)
(-0.00443755 -0.00341394 0.000987968 0.0120574 0.000190147 -0.00693443)
(-0.00478754 -0.00331653 0.00169154 0.0112396 0.000333489 -0.00324118)
(-0.00500369 -0.00320499 0.001628 0.0104865 0.000324584 0.000165211)
(-0.00546954 -0.00315334 0.000835605 0.0097729 0.000171322 0.00379744)
(-0.00380289 -0.00466226 0.000969126 0.0114228 0.000267391 -0.00693309)
(-0.00417127 -0.00452967 0.00165882 0.0106221 0.000466226 -0.00323905)
(-0.0044075 -0.00437752 0.00159644 0.00988942 0.000452896 0.000167856)
(-0.00488351 -0.00430776 0.000818965 0.00918537 0.000238203 0.00380048)
(-0.00298071 -0.00579631 0.000944198 0.0106012 0.000342745 -0.00693298)
(-0.0033723 -0.00563145 0.00161588 0.00982307 0.000595115 -0.00323809)
(-0.00363521 -0.00544229 0.00155491 0.00911658 0.000577066 0.000169497)
(-0.00412354 -0.00535553 0.000797179 0.00842435 0.000302225 0.00380282)
(-0.0019912 -0.00678813 0.00091313 0.00961251 0.000416066 -0.00693339)
(-0.00241079 -0.00659485 0.00156293 0.00886172 0.000719937 -0.00323759)
(-0.00270585 -0.00637312 0.00150391 0.00818684 0.000696966 0.000170784)
(-0.00320894 -0.00627132 0.000770739 0.00750878 0.000363462 0.00380493)
(-0.000858604 -0.00761336 0.000875993 0.00848067 0.00048695 -0.00693397)
(-0.00131024 -0.00739626 0.00150032 0.00776138 0.000840163 -0.00323726)
(-0.00164216 -0.00714723 0.00144388 0.00712283 0.000812194 0.000171904)
(-0.00216222 -0.00703275 0.000739954 0.00646119 0.000421899 0.00380689)
(0.000389451 -0.0082517 0.000833008 0.00723331 0.000554735 -0.00693453)
(-9.74409e-05 -0.00801596 0.0014285 0.00654884 0.000955041 -0.00323702)
(-0.000470065 -0.00774555 0.00137526 0.00595055 0.000922167 0.000172847)
(-0.00100901 -0.00762102 0.000705088 0.00530727 0.000477391 0.00380858)
(0.00172258 -0.00868747 0.000784649 0.00590096 0.000618552 -0.00693499)
(0.00119822 -0.00843847 0.0013481 0.00525374 0.00106371 -0.00323686)
(0.000781763 -0.00815309 0.00129862 0.00469873 0.00102623 0.000173533)
(0.000222362 -0.00802148 0.000666423 0.00407536 0.00052972 0.00380983)
(0.00311052 -0.00891024 0.00073244 0.00451614 0.000677514 -0.00693526)
(0.00254486 -0.00865284 0.00126015 0.00390811 0.00116541 -0.00323679)
(0.00208214 -0.00835946 0.00121463 0.00339855 0.00112379 0.000173891)
(0.00150127 -0.00822411 0.000624241 0.00279613 0.000578685 0.00381048)
(0.00451613 -0.00891024 0.000677513 0.00311053 0.000732442 -0.00693526)
(0.00390811 -0.00865284 0.00116541 0.00254487 0.00126015 -0.00323679)
(0.00339855 -0.00835946 0.00112379 0.00208214 0.00121463 0.000173891)
(0.00279613 -0.00822411 0.000578684 0.00150128 0.000624243 0.00381048)
(0.00590096 -0.00868747 0.000618551 0.00172258 0.000784651 -0.00693499)
(0.00525374 -0.00843847 0.00106371 0.00119822 0.0013481 -0.00323686)
(0.00469873 -0.00815309 0.00102622 0.000781763 0.00129862 0.000173533)
(0.00407536 -0.00802148 0.000529719 0.000222363 0.000666425 0.00380983)
(0.0072333 -0.00825171 0.000554734 0.000389447 0.000833011 -0.00693453)
(0.00654884 -0.00801597 0.00095504 -9.74425e-05 0.0014285 -0.00323702)
(0.00595054 -0.00774555 0.000922166 -0.000470066 0.00137527 0.000172847)
(0.00530727 -0.00762103 0.00047739 -0.00100901 0.00070509 0.00380858)
(0.00848067 -0.00761337 0.000486949 -0.000858612 0.000875996 -0.00693397)
(0.00776138 -0.00739627 0.000840162 -0.00131025 0.00150032 -0.00323726)
(0.00712283 -0.00714724 0.000812193 -0.00164216 0.00144388 0.000171905)
(0.00646119 -0.00703275 0.000421898 -0.00216222 0.000739956 0.0038069)
(0.00961251 -0.00678814 0.000416065 -0.00199121 0.000913133 -0.00693339)
(0.00886172 -0.00659485 0.000719936 -0.00241079 0.00156293 -0.00323759)
(0.00818683 -0.00637313 0.000696965 -0.00270585 0.00150391 0.000170785)
(0.00750878 -0.00627133 0.000363461 -0.00320894 0.000770741 0.00380493)
(0.0106012 -0.00579632 0.000342744 -0.00298072 0.000944201 -0.00693298)
(0.00982307 -0.00563145 0.000595114 -0.00337231 0.00161588 -0.00323809)
(0.00911658 -0.0054423 0.000577065 -0.00363521 0.00155491 0.000169498)
(0.00842435 -0.00535553 0.000302224 -0.00412354 0.000797181 0.00380282)
(0.0114228 -0.00466227 0.000267391 -0.00380291 0.00096913 -0.00693309)
(0.0106221 -0.00452968 0.000466226 -0.00417128 0.00165883 -0.00323905)
(0.00988941 -0.00437752 0.000452896 -0.00440751 0.00159644 0.000167857)
(0.00918537 -0.00430776 0.000238203 -0.00488351 0.000818967 0.00380048)
(0.0120574 -0.00341394 0.000190147 -0.00443758 0.000987972 -0.00693443)
(0.0112396 -0.00331653 0.000333488 -0.00478755 0.00169154 -0.00324118)
(0.0104865 -0.00320499 0.000324584 -0.0050037 0.001628 0.000165212)
(0.00977289 -0.00315334 0.000171322 -0.00546954 0.000835607 0.00379744)
(0.012495 -0.00207746 0.000111065 -0.00486395 0.00100073 -0.00693843)
(0.0116593 -0.0020241 0.000197006 -0.00520361 0.00171382 -0.00324609)
(0.0108934 -0.00195602 0.000192129 -0.00540697 0.00164941 0.000159915)
(0.0101686 -0.00191683 0.000101815 -0.00586717 0.00084623 0.00379237)
(0.0127022 -0.000737663 -0.000123831 -0.00505766 0.00100457 -0.00699839)
(0.0118854 -0.000728156 -8.42141e-05 -0.00540159 0.00173283 -0.00330202)
(0.0111271 -0.0007078 -8.59468e-05 -0.00559796 0.0016798 0.000101274)
(0.0104292 -0.000694874 -0.000125733 -0.00605069 0.00088226 0.003724)
(-0.00488589 -0.000798623 0.000120011 0.0144552 -6.56745e-05 -0.00864147)
(-0.00558598 -0.000803143 0.000222531 0.0135575 -5.97116e-05 -0.00421784)
(-0.0061795 -0.000798346 0.000210596 0.01271 -5.97023e-05 -3.52132e-05)
(-0.00696338 -0.000796262 9.17227e-05 0.0119177 -6.45283e-05 0.00429206)
(-0.00467848 -0.0022633 0.000115916 0.0142236 6.67861e-06 -0.00857144)
(-0.00537388 -0.00224289 0.00021551 0.013305 2.11382e-05 -0.0041499)
(-0.00597109 -0.00221038 0.000201791 0.0124449 2.22034e-05 3.57984e-05)
(-0.00675632 -0.00219623 8.27595e-05 0.0116177 1.14404e-05 0.00437118)
(-0.00421477 -0.0037188 0.00011443 0.0137487 1.41574e-05 -0.00856626)
(-0.00491382 -0.0036753 0.000211782 0.0128396 3.78806e-05 -0.00414412)
(-0.00551616 -0.00362204 0.000198098 0.0119844 3.91653e-05 4.17422e-05)
(-0.00630064 -0.00361337 8.08756e-05 0.0111636 2.011e-05 0.00437679)
(-0.00352399 -0.00507868 0.000112084 0.0130582 2.2176e-05 -0.00856393)
(-0.00423088 -0.00501926 0.000206497 0.0121551 5.42233e-05 -0.00414128)
(-0.00484203 -0.00494687 0.000192792 0.0113088 5.52467e-05 4.48346e-05)
(-0.0056286 -0.004936 7.79492e-05 0.0104894 2.79291e-05 0.00438006)
(-0.00262869 -0.00631431 0.000108753 0.0121641 3.05497e-05 -0.0085633)
(-0.00334552 -0.00623977 0.000199734 0.0112699 6.99949e-05 -0.00414006)
(-0.00396895 -0.00614956 0.000186089 0.0104351 7.02844e-05 4.64407e-05)
(-0.00475727 -0.00613596 7.44202e-05 0.00961671 3.46155e-05 0.0043821)
(-0.00155097 -0.00739516 0.0001043 0.011088 3.91998e-05 -0.00856361)
(-0.00228016 -0.00730693 0.000191584 0.0102052 8.51955e-05 -0.00413968)
(-0.00291861 -0.00720072 0.00017827 0.00938463 8.43271e-05 4.73323e-05)
(-0.00370895 -0.00718447 7.06273e-05 0.00856741 4.02171e-05 0.00438356)
(-0.000317228 -0.00829459 9.86477e-05 0.00985575 4.79539e-05 -0.00856436)
(-0.00106091 -0.0081946 0.000182174 0.00898669 9.97642e-05 -0.00413967)
(-0.00171676 -0.00807474 0.000169576 0.00818279 9.74139e-05 4.78974e-05)
(-0.00250953 -0.00805604 6.68172e-05 0.00736726 4.48626e-05 0.00438478)
(0.00104239 -0.00899039 9.18336e-05 0.00849744 5.6465e-05 -0.00856526)
(0.00028255 -0.00888097 0.000171696 0.00764393 0.000113544 -0.00413983)
(-0.000392712 -0.0087502 0.000160245 0.00685887 0.000109541 4.82947e-05)
(-0.00118841 -0.00872934 6.31914e-05 0.00604563 4.86834e-05 0.00438581)
(0.00249472 -0.00946535 8.41233e-05 0.00704621 6.42058e-05 -0.00856605)
(0.00171764 -0.00934893 0.000160482 0.00620965 0.000126319 -0.00414001)
(0.00102119 -0.00921029 0.000150552 0.0054452 0.000120699 4.8561e-05)
(0.000221998 -0.00918768 5.99148e-05 0.00463486 5.18253e-05 0.00438658)
(0.00400644 -0.0097079 7.67692e-05 0.00553749 7.06266e-05 -0.00856654)
(0.00320916 -0.00958636 0.000149157 0.00471918 0.000137999 -0.00414013)
(0.0024899 -0.00944331 0.000140791 0.00397678 0.000130984 4.86937e-05)
(0.0016868 -0.00941965 5.70672e-05 0.00316985 5.45004e-05 0.004387)
(0.00553749 -0.0097079 7.06252e-05 0.00400644 7.67709e-05 -0.00856654)
(0.00471918 -0.00958636 0.000137998 0.00320916 0.000149159 -0.00414013)
(0.00397678 -0.00944331 0.000130983 0.0024899 0.000140792 4.86938e-05)
(0.00316984 -0.00941965 5.44992e-05 0.0016868 5.70685e-05 0.004387)
(0.00704621 -0.00946535 6.42046e-05 0.00249472 8.41252e-05 -0.00856605)
(0.00620964 -0.00934893 0.000126318 0.00171764 0.000160484 -0.00414001)
(0.00544519 -0.00921029 0.000120698 0.00102119 0.000150553 4.85612e-05)
(0.00463485 -0.00918768 5.18242e-05 0.000222 5.99162e-05 0.00438658)
(0.00849743 -0.00899039 5.64639e-05 0.00104239 9.18357e-05 -0.00856526)
(0.00764392 -0.00888098 0.000113543 0.000282549 0.000171698 -0.00413983)
(0.00685886 -0.0087502 0.00010954 -0.000392712 0.000160247 4.8295e-05)
(0.00604563 -0.00872934 4.86824e-05 -0.00118841 6.31929e-05 0.00438581)
(0.00985574 -0.0082946 4.7953e-05 -0.000317237 9.86499e-05 -0.00856436)
(0.00898669 -0.00819461 9.97633e-05 -0.00106092 0.000182176 -0.00413967)
(0.00818279 -0.00807474 9.7413e-05 -0.00171676 0.000169578 4.78978e-05)
(0.00736726 -0.00805604 4.48617e-05 -0.00250953 6.68187e-05 0.00438478)
(0.0110879 -0.00739517 3.91991e-05 -0.00155098 0.000104302 -0.00856361)
(0.0102052 -0.00730693 8.51947e-05 -0.00228017 0.000191587 -0.00413968)
(0.00938462 -0.00720073 8.43263e-05 -0.00291861 0.000178272 4.73327e-05)
(0.0085674 -0.00718447 4.02162e-05 -0.00370895 7.0629e-05 0.00438357)
(0.0121641 -0.00631432 3.05492e-05 -0.00262871 0.000108755 -0.0085633)
(0.0112699 -0.00623978 6.99943e-05 -0.00334553 0.000199737 -0.00414006)
(0.0104351 -0.00614956 7.02837e-05 -0.00396895 0.000186091 4.64413e-05)
(0.00961671 -0.00613596 3.46148e-05 -0.00475727 7.4422e-05 0.0043821)
(0.0130582 -0.00507869 2.21757e-05 -0.00352401 0.000112086 -0.00856393)
(0.0121551 -0.00501927 5.42228e-05 -0.0042309 0.000206499 -0.00414128)
(0.0113088 -0.00494687 5.52462e-05 -0.00484203 0.000192794 4.48352e-05)
(0.0104894 -0.004936 2.79284e-05 -0.00562861 7.7951e-05 0.00438006)
(0.0137487 -0.00371881 1.41572e-05 -0.0042148 0.000114433 -0.00856626)
(0.0128396 -0.00367531 3.78803e-05 -0.00491384 0.000211784 -0.00414412)
(0.0119844 -0.00362204 3.91648e-05 -0.00551617 0.0001981 4.17429e-05)
(0.0111636 -0.00361337 2.01095e-05 -0.00630064 8.08774e-05 0.00437679)
(0.0142236 -0.00226331 6.67849e-06 -0.00467851 0.000115919 -0.00857144)
(0.013305 -0.0022429 2.1138e-05 -0.0053739 0.000215512 -0.0041499)
(0.0124449 -0.00221038 2.22031e-05 -0.0059711 0.000201793 3.57991e-05)
(0.0116176 -0.00219623 1.144e-05 -0.00675632 8.27613e-05 0.00437118)
(0.0144552 -0.000798625 -6.56746e-05 -0.00488592 0.000120014 -0.00864147)
(0.0135575 -0.000803144 -5.97117e-05 -0.005586 0.000222533 -0.00421784)
(0.01271 -0.000798346 -5.97024e-05 -0.00617951 0.000210598 -3.52124e-05)
(0.0119177 -0.000796262 -6.45285e-05 -0.00696339 9.17246e-05 0.00429206)
(-0.00485031 -0.00080556 -0.000596806 0.0146649 3.27776e-06 -0.00834009)
(-0.00551207 -0.000808356 -0.000962685 0.0137628 -1.64046e-05 -0.00420064)
(-0.00610557 -0.000803374 -0.000936892 0.0129117 -1.50079e-05 -0.000260171)
(-0.00684684 -0.00079892 -0.00053948 0.0121173 6.36441e-06 0.00377855)
(-0.00463915 -0.00228481 -0.000598785 0.0144343 -7.60772e-05 -0.00827517)
(-0.00529794 -0.0022602 -0.000957894 0.0135112 -0.000115536 -0.00413731)
(-0.00589496 -0.00222705 -0.000926826 0.0126475 -0.000109615 -0.00019434)
(-0.00663613 -0.00220677 -0.000525693 0.0118188 -6.03376e-05 0.00385071)
(-0.00417088 -0.00375397 -0.00059126 0.0139559 -0.000126482 -0.00827009)