/*--------------------------------*- C++ -*----------------------------------*\
| =========                 |                                                 |
| \\      /  F ield         | foam-extend: Open Source CFD                    |
|  \\    /   O peration     | Version:     3.1                                |
|   \\  /    A nd           | Web:         http://www.extend-project.de       |
|    \\/     M anipulation  |                                                 |
\*---------------------------------------------------------------------------*/
FoamFile
{
    version     2.0;
    format      ascii;
    class       volScalarField;
    location    "0.001";
    object      sigmaEq;
}
// * * * * * * * * * * * * * * * * * * * * * * * * * * * * * * * * * * * * * //

dimensions      [1 -1 -2 0 0 0 0];

internalField   nonuniform List<scalar> 
6400
(
4809.37
3777.28
3414.81
3861.78
4782.45
3764.24
3412.42
3881.52
4780.29
3762.58
3411.68
3881.9
4779.32
3761.99
3411.33
3881.56
4778.93
3761.75
3411.07
3881.02
4778.81
3761.64
3410.8
3880.36
4778.84
3761.55
3410.48
3879.65
4778.92
3761.41
3410.1
3878.95
4779.01
3761.18
3409.7
3878.33
4778.98
3760.97
3409.39
3877.94
4778.98
3760.97
3409.39
3877.94
4779.01
3761.18
3409.7
3878.33
4778.92
3761.41
3410.11
3878.95
4778.84
3761.55
3410.48
3879.65
4778.81
3761.64
3410.8
3880.36
4778.93
3761.75
3411.07
3881.02
4779.32
3761.99
3411.33
3881.56
4780.29
3762.58
3411.68
3881.9
4782.46
3764.25
3412.42
3881.52
4809.38
3777.28
3414.81
3861.78
3038.92
3277.84
2982.2
2020.47
3046.46
3276.43
2970.62
2000.89
3044.55
3275.25
2969.76
2000.89
3043.61
3274.7
2969.33
2000.53
3043.1
3274.29
2968.95
2000.02
3042.8
3274
2968.62
1999.47
3042.65
3273.78
2968.33
1998.96
3042.61
3273.58
2968.07
1998.51
3042.66
3273.37
2967.82
1998.14
3043.03
3273.22
2967.64
1997.91
3043.03
3273.22
2967.64
1997.91
3042.66
3273.37
2967.82
1998.14
3042.61
3273.58
2968.07
1998.51
3042.65
3273.78
2968.33
1998.96
3042.8
3274
2968.62
1999.47
3043.1
3274.29
2968.95
2000.02
3043.61
3274.7
2969.34
2000.53
3044.56
3275.25
2969.76
2000.89
3046.46
3276.43
2970.62
2000.89
3038.93
3277.84
2982.2
2020.47
3370.36
3269.46
2968.35
2484.24
3375.13
3265.39
2956.86
2469.17
3374.32
3265.23
2956.38
2469.96
3374.13
3265.15
2956.31
2470.14
3374.11
3265.05
2956.22
2470.2
3374.17
3264.96
2956.12
2470.24
3374.29
3264.92
2956.05
2470.29
3374.5
3264.93
2956.01
2470.32
3374.87
3264.99
2955.97
2470.31
3375.76
3265.11
2955.94
2470.26
3375.76
3265.11
2955.94
2470.26
3374.87
3264.99
2955.97
2470.31
3374.5
3264.93
2956.01
2470.32
3374.29
3264.92
2956.05
2470.29
3374.17
3264.96
2956.12
2470.24
3374.12
3265.05
2956.22
2470.2
3374.14
3265.15
2956.31
2470.14
3374.32
3265.23
2956.38
2469.96
3375.14
3265.39
2956.86
2469.17
3370.36
3269.46
2968.35
2484.24
4368.49
3844.74
3475.97
3343.18
4364.13
3836.6
3466.93
3334.25
4363.35
3836.54
3466.77
3335.96
4363.44
3836.49
3466.7
3336.38
4363.84
3836.6
3466.73
3336.54
4364.38
3836.83
3466.8
3336.66
4364.99
3837.11
3466.9
3336.79
4365.63
3837.45
3467.04
3336.91
4366.35
3837.81
3467.17
3336.99
4367.44
3838.14
3467.25
3337
4367.44
3838.14
3467.25
3337
4366.35
3837.81
3467.17
3336.99
4365.63
3837.45
3467.04
3336.91
4364.99
3837.12
3466.9
3336.79
4364.38
3836.83
3466.8
3336.66
4363.84
3836.61
3466.73
3336.54
4363.44
3836.49
3466.7
3336.38
4363.35
3836.55
3466.77
3335.96
4364.14
3836.6
3466.93
3334.25
4368.5
3844.74
3475.97
3343.18
4964.42
4281.67
3865.35
3810.18
4957.18
4272.46
3857.29
3802.16
4956.53
4272.5
3857.19
3804.02
4956.76
4272.39
3856.94
3804.24
4957.43
4272.62
3856.9
3804.13
4958.34
4273.06
3856.98
3803.99
4959.34
4273.6
3857.13
3803.9
4960.34
4274.18
3857.32
3803.86
4961.33
4274.75
3857.51
3803.83
4962.54
4275.21
3857.64
3803.8
4962.54
4275.21
3857.64
3803.8
4961.33
4274.75
3857.51
3803.83
4960.34
4274.18
3857.32
3803.86
4959.34
4273.6
3857.13
3803.9
4958.34
4273.06
3856.98
3803.99
4957.43
4272.62
3856.91
3804.13
4956.76
4272.4
3856.95
3804.24
4956.53
4272.5
3857.19
3804.02
4957.19
4272.46
3857.29
3802.16
4964.43
4281.67
3865.35
3810.18
4971.68
4333.94
3924.65
3818.69
4966.22
4326.04
3917.02
3809.26
4965.9
4326.3
3916.88
3810.66
4966.34
4326.31
3916.52
3810.39
4967.21
4326.65
3916.37
3809.78
4968.35
4327.24
3916.36
3809.15
4969.6
4327.94
3916.46
3808.61
4970.85
4328.68
3916.61
3808.19
4972.05
4329.38
3916.79
3807.89
4973.31
4329.9
3916.91
3807.72
4973.31
4329.9
3916.91
3807.72
4972.05
4329.38
3916.79
3807.89
4970.85
4328.68
3916.61
3808.19
4969.6
4327.94
3916.46
3808.61
4968.35
4327.24
3916.37
3809.15
4967.21
4326.65
3916.37
3809.78
4966.34
4326.31
3916.52
3810.39
4965.9
4326.31
3916.88
3810.66
4966.22
4326.05
3917.02
3809.26
4971.68
4333.94
3924.65
3818.69
4451.93
3996.07
3646.95
3441.05
4451.22
3991.05
3639.91
3429.58
4451.3
3991.54
3639.68
3430.17
4451.96
3991.71
3639.26
3429.37
4452.95
3992.11
3638.99
3428.24
4454.17
3992.73
3638.85
3427.09
4455.51
3993.46
3638.81
3426.02
4456.87
3994.23
3638.85
3425.13
4458.15
3994.95
3638.93
3424.45
4459.38
3995.48
3639
3424.08
4459.38
3995.48
3639
3424.08
4458.15
3994.95
3638.93
3424.45
4456.87
3994.23
3638.85
3425.13
4455.52
3993.46
3638.81
3426.02
4454.18
3992.73
3638.85
3427.09
4452.95
3992.11
3638.99
3428.24
4451.96
3991.71
3639.26
3429.37
4451.3
3991.54
3639.68
3430.17
4451.22
3991.05
3639.91
3429.58
4451.93
3996.07
3646.96
3441.05
3600.52
3360.16
3101.35
2825.79
3605.19
3358.41
3095.58
2813.82
3605.61
3358.99
3095.21
2813.63
3606.43
3359.19
3094.72
2812.54
3607.44
3359.47
3094.27
2811.18
3608.61
3359.88
3093.88
2809.76
3609.88
3360.38
3093.58
2808.39
3611.16
3360.94
3093.37
2807.18
3612.38
3361.47
3093.24
2806.24
3613.48
3361.86
3093.19
2805.7
3613.48
3361.86
3093.19
2805.7
3612.38
3361.47
3093.24
2806.24
3611.16
3360.94
3093.37
2807.18
3609.88
3360.38
3093.58
2808.39
3608.61
3359.88
3093.88
2809.76
3607.44
3359.47
3094.27
2811.18
3606.44
3359.19
3094.72
2812.54
3605.62
3358.99
3095.21
2813.63
3605.19
3358.41
3095.58
2813.82
3600.52
3360.16
3101.36
2825.79
2711.45
2569.65
2391.71
2164.96
2718.4
2570.01
2388.21
2156.74
2718.93
2570.45
2387.71
2156.19
2719.76
2570.52
2387.14
2155.25
2720.68
2570.5
2386.47
2154.11
2721.69
2570.49
2385.77
2152.89
2722.76
2570.54
2385.12
2151.66
2723.84
2570.64
2384.56
2150.52
2724.82
2570.78
2384.13
2149.59
2725.66
2570.9
2383.9
2149.05
2725.66
2570.9
2383.9
2149.05
2724.83
2570.78
2384.13
2149.59
2723.84
2570.64
2384.56
2150.52
2722.77
2570.54
2385.12
2151.66
2721.69
2570.49
2385.77
2152.89
2720.68
2570.5
2386.47
2154.11
2719.76
2570.53
2387.14
2155.25
2718.93
2570.45
2387.71
2156.19
2718.4
2570.02
2388.21
2156.74
2711.45
2569.65
2391.71
2164.96
2050.59
1811.71
1666.72
1610.3
2054.36
1812.1
1666.12
1609.69
2054.61
1812.27
1665.64
1609.25
2055.21
1812.25
1665.13
1608.76
2055.9
1812.04
1664.45
1608.12
2056.65
1811.78
1663.67
1607.36
2057.42
1811.51
1662.89
1606.56
2058.17
1811.29
1662.16
1605.76
2058.83
1811.11
1661.58
1605.08
2059.34
1811.03
1661.25
1604.66
2059.34
1811.03
1661.25
1604.66
2058.83
1811.11
1661.58
1605.08
2058.18
1811.29
1662.16
1605.76
2057.42
1811.52
1662.89
1606.56
2056.65
1811.78
1663.68
1607.36
2055.91
1812.04
1664.45
1608.12
2055.22
1812.25
1665.13
1608.76
2054.62
1812.28
1665.64
1609.25
2054.36
1812.1
1666.12
1609.69
2050.6
1811.72
1666.72
1610.3
1657.48
1272.45
1103.52
1191.58
1656.5
1271.43
1105.01
1196.74
1656.33
1271.42
1104.7
1196.46
1656.53
1271.53
1104.53
1196.25
1656.84
1271.51
1104.23
1195.91
1657.21
1271.45
1103.84
1195.45
1657.6
1271.38
1103.42
1194.92
1658
1271.31
1103
1194.37
1658.34
1271.24
1102.64
1193.89
1658.61
1271.2
1102.43
1193.59
1658.61
1271.2
1102.43
1193.59
1658.34
1271.24
1102.64
1193.88
1658
1271.31
1103
1194.37
1657.6
1271.38
1103.42
1194.92
1657.21
1271.45
1103.84
1195.45
1656.85
1271.51
1104.23
1195.91
1656.53
1271.53
1104.53
1196.25
1656.34
1271.43
1104.7
1196.46
1656.5
1271.43
1105.01
1196.74
1657.48
1272.46
1103.52
1191.58
1371.41
996.179
798.767
858.699
1369.17
994.365
799.838
863.734
1368.83
994.326
799.662
863.358
1368.72
994.578
799.821
863.12
1368.69
994.813
799.967
862.805
1368.71
995.058
800.086
862.389
1368.77
995.315
800.183
861.911
1368.88
995.559
800.253
861.428
1369.01
995.754
800.289
861.014
1369.16
995.869
800.302
860.767
1369.16
995.869
800.302
860.767
1369.02
995.754
800.289
861.014
1368.88
995.56
800.253
861.427
1368.77
995.316
800.184
861.911
1368.71
995.06
800.087
862.389
1368.7
994.815
799.967
862.805
1368.72
994.58
799.821
863.12
1368.83
994.328
799.663
863.357
1369.17
994.368
799.838
863.734
1371.41
996.182
798.767
858.698
1097.05
844.366
664.461
603.056
1096.27
842.94
663.859
604.28
1095.99
842.899
663.656
603.758
1095.8
843.112
663.836
603.505
1095.64
843.318
664.06
603.274
1095.49
843.537
664.292
603
1095.37
843.774
664.518
602.69
1095.33
844.013
664.719
602.375
1095.36
844.219
664.871
602.106
1095.46
844.35
664.954
601.947
1095.46
844.35
664.954
601.946
1095.36
844.22
664.871
602.106
1095.33
844.014
664.719
602.375
1095.38
843.775
664.518
602.69
1095.49
843.538
664.292
603
1095.64
843.319
664.061
603.273
1095.81
843.113
663.837
603.505
1096
842.901
663.656
603.757
1096.28
842.943
663.859
604.279
1097.05
844.368
664.462
603.056
858.606
713.202
577.732
465.955
859.359
712.343
576.372
464.248
859.217
712.309
576.157
463.866
859.092
712.43
576.265
463.814
858.959
712.52
576.415
463.873
858.812
712.603
576.573
463.955
858.692
712.693
576.726
464.023
858.628
712.793
576.863
464.062
858.642
712.892
576.967
464.072
858.736
712.964
577.025
464.069
858.736
712.965
577.025
464.069
858.643
712.892
576.967
464.072
858.629
712.794
576.863
464.061
858.693
712.694
576.727
464.022
858.814
712.604
576.573
463.954
858.961
712.521
576.416
463.872
859.094
712.431
576.265
463.814
859.22
712.31
576.157
463.865
859.362
712.344
576.373
464.247
858.609
713.204
577.732
465.954
688.885
599.938
508.4
425.998
690.179
599.421
507.202
424.027
690.129
599.42
507.051
423.904
690.082
599.505
507.137
424.019
690.027
599.557
507.259
424.237
689.958
599.595
507.386
424.489
689.902
599.633
507.506
424.731
689.885
599.678
507.609
424.932
689.924
599.729
507.685
425.068
690.032
599.773
507.726
425.135
690.032
599.773
507.726
425.135
689.924
599.729
507.685
425.068
689.885
599.679
507.609
424.931
689.903
599.634
507.506
424.731
689.959
599.596
507.386
424.489
690.029
599.558
507.26
424.236
690.084
599.507
507.137
424.019
690.131
599.422
507.051
423.904
690.182
599.423
507.203
424.026
688.888
599.939
508.401
425.997
575.845
512.901
451.008
400.307
577.075
512.579
450.145
398.753
577.065
512.609
450.048
398.721
577.052
512.679
450.112
398.818
577.041
512.726
450.203
398.967
577.026
512.763
450.295
399.129
577.024
512.8
450.379
399.275
577.047
512.839
450.447
399.386
577.108
512.879
450.493
399.453
577.218
512.914
450.517
399.481
577.218
512.914
450.517
399.481
577.109
512.879
450.493
399.453
577.048
512.839
450.447
399.386
577.024
512.8
450.379
399.275
577.027
512.764
450.295
399.129
577.043
512.727
450.203
398.967
577.053
512.68
450.112
398.818
577.066
512.61
450.049
398.72
577.077
512.58
450.146
398.752
575.847
512.903
451.008
400.306
492.788
441.58
393.729
353.829
493.778
441.348
393.047
352.457
493.787
441.381
392.958
352.402
493.785
441.427
392.976
352.421
493.792
441.452
393.009
352.456
493.803
441.47
393.037
352.483
493.827
441.488
393.055
352.49
493.871
441.507
393.063
352.473
493.938
441.526
393.06
352.441
494.033
441.544
393.055
352.414
494.034
441.544
393.055
352.414
493.938
441.526
393.06
352.441
493.872
441.507
393.063
352.473
493.828
441.489
393.056
352.489
493.804
441.471
393.037
352.482
493.793
441.453
393.009
352.455
493.786
441.428
392.976
352.421
493.788
441.383
392.959
352.401
493.78
441.35
393.047
352.456
492.79
441.582
393.729
353.828
425.702
377.535
334.049
295.211
426.379
377.295
333.432
293.931
426.396
377.313
333.334
293.838
426.397
377.335
333.315
293.808
426.412
377.338
333.303
293.778
426.435
377.335
333.282
293.733
426.471
377.331
333.251
293.666
426.521
377.329
333.214
293.583
426.583
377.327
333.176
293.501
426.659
377.33
333.151
293.446
426.659
377.33
333.151
293.446
426.584
377.328
333.176
293.501
426.521
377.329
333.214
293.583
426.471
377.332
333.252
293.665
426.435
377.336
333.282
293.732
426.413
377.339
333.303
293.777
426.399
377.336
333.315
293.807
426.397
377.315
333.335
293.837
426.381
377.296
333.432
293.93
425.704
377.537
334.05
295.21
368.613
320.8
278.57
239.994
368.989
320.504
277.984
238.84
369.002
320.507
277.886
238.736
369
320.518
277.857
238.698
369.012
320.514
277.834
238.659
369.033
320.506
277.803
238.604
369.066
320.498
277.763
238.531
369.11
320.49
277.718
238.445
369.162
320.484
277.676
238.362
369.219
320.483
277.649
238.308
369.219
320.483
277.649
238.308
369.162
320.485
277.676
238.362
369.111
320.491
277.719
238.445
369.067
320.499
277.763
238.531
369.034
320.507
277.803
238.604
369.013
320.515
277.834
238.658
369.001
320.519
277.857
238.697
369.004
320.509
277.886
238.735
368.991
320.506
277.984
238.839
368.615
320.802
278.571
239.992
317.404
272.355
232.526
196.117
317.579
272.025
231.979
195.121
317.585
272.02
231.894
195.03
317.573
272.028
231.874
195.007
317.575
272.026
231.861
194.987
317.585
272.022
231.843
194.955
317.607
272.019
231.818
194.908
317.637
272.017
231.789
194.849
317.675
272.015
231.761
194.791
317.716
272.015
231.742
194.752
317.717
272.016
231.742
194.752
317.675
272.015
231.761
194.791
317.638
272.017
231.789
194.849
317.607
272.02
231.818
194.908
317.587
272.023
231.843
194.955
317.577
272.027
231.861
194.986
317.575
272.029
231.874
195.006
317.587
272.022
231.894
195.029
317.581
272.027
231.979
195.12
317.407
272.357
232.527
196.116
270.215
231.093
195.951
163.804
270.299
230.776
195.467
162.973
270.302
230.768
195.4
162.905
270.283
230.776
195.391
162.901
270.274
230.776
195.391
162.903
270.273
230.776
195.388
162.898
270.281
230.777
195.38
162.88
270.298
230.779
195.368
162.851
270.323
230.78
195.354
162.819
270.353
230.783
195.344
162.796
270.353
230.783
195.344
162.796
270.324
230.781
195.354
162.818
270.299
230.779
195.368
162.851
270.282
230.778
195.38
162.879
270.275
230.777
195.388
162.897
270.276
230.778
195.392
162.902
270.285
230.778
195.392
162.9
270.304
230.77
195.401
162.904
270.302
230.778
195.467
162.972
270.218
231.095
195.952
163.803
227.392
195.45
166.281
139.628
227.45
195.178
165.875
138.957
227.453
195.173
165.826
138.911
227.432
195.18
165.825
138.92
227.419
195.181
165.832
138.936
227.411
195.181
165.837
138.946
227.411
195.182
165.838
138.946
227.419
195.185
165.834
138.936
227.435
195.187
165.829
138.921
227.456
195.189
165.824
138.909
227.457
195.19
165.824
138.909
227.435
195.188
165.829
138.921
227.42
195.186
165.835
138.936
227.412
195.184
165.838
138.946
227.413
195.183
165.837
138.946
227.421
195.182
165.833
138.935
227.435
195.182
165.826
138.92
227.456
195.175
165.827
138.91
227.453
195.181
165.876
138.956
227.395
195.453
166.282
139.627
189.828
164.519
141.196
120.006
189.882
164.299
140.871
119.476
189.887
164.297
140.835
119.447
189.868
164.303
140.838
119.461
189.855
164.304
140.846
119.48
189.845
164.304
140.853
119.494
189.842
164.304
140.856
119.501
189.846
164.305
140.856
119.498
189.856
164.307
140.852
119.49
189.873
164.308
140.849
119.482
189.873
164.308
140.849
119.482
189.857
164.307
140.852
119.49
189.847
164.306
140.856
119.498
189.844
164.306
140.857
119.5
189.847
164.306
140.854
119.494
189.857
164.306
140.847
119.48
189.871
164.305
140.839
119.461
189.89
164.299
140.836
119.446
189.886
164.302
140.871
119.476
189.832
164.521
141.197
120.005
157.806
137.82
119.396
102.769
157.856
137.647
119.138
102.352
157.862
137.647
119.112
102.332
157.847
137.653
119.115
102.346
157.836
137.653
119.123
102.363
157.827
137.653
119.129
102.375
157.824
137.652
119.131
102.38
157.826
137.652
119.13
102.378
157.834
137.652
119.127
102.371
157.847
137.652
119.124
102.365
157.847
137.652
119.124
102.365
157.835
137.652
119.127
102.371
157.828
137.653
119.13
102.378
157.826
137.653
119.131
102.38
157.83
137.654
119.129
102.375
157.839
137.655
119.124
102.362
157.85
137.655
119.116
102.346
157.866
137.649
119.113
102.331
157.86
137.649
119.139
102.351
157.81
137.823
119.396
102.768
130.906
114.943
100.3
87.1407
130.947
114.805
100.096
86.8091
130.954
114.806
100.076
86.7941
130.941
114.811
100.079
86.8064
130.932
114.811
100.085
86.8192
130.926
114.81
100.089
86.8278
130.923
114.809
100.089
86.8303
130.925
114.808
100.087
86.8269
130.931
114.807
100.084
86.82
130.941
114.807
100.08
86.8142
130.941
114.807
100.081
86.8142
130.932
114.808
100.084
86.8199
130.926
114.809
100.088
86.8267
130.925
114.81
100.09
86.8301
130.928
114.812
100.089
86.8276
130.935
114.813
100.086
86.8189
130.945
114.813
100.08
86.8061
130.958
114.808
100.077
86.7936
130.951
114.808
100.097
86.8085
130.91
114.946
100.301
87.1401
108.383
95.4537
83.6687
73.0872
108.414
95.3419
83.5039
72.82
108.42
95.3427
83.4878
72.8081
108.41
95.3468
83.4903
72.818
108.403
95.3469
83.4948
72.8275
108.398
95.3458
83.497
72.8332
108.396
95.3443
83.4966
72.8336
108.397
95.3428
83.494
72.8292
108.402
95.3414
83.49
72.8224
108.41
95.3407
83.4869
72.817
108.41
95.3409
83.487
72.817
108.403
95.342
83.4903
72.8223
108.399
95.3438
83.4944
72.8292
108.398
95.3456
83.4972
72.8335
108.401
95.3474
83.4977
72.8331
108.406
95.3488
83.4956
72.8273
108.414
95.3489
83.4912
72.8178
108.424
95.345
83.4888
72.8078
108.418
95.3444
83.5049
72.8196
108.388
95.4563
83.6697
73.0868
89.4996
78.9306
69.348
60.7414
89.5204
78.8384
69.2139
60.5246
89.5257
78.839
69.2009
60.5148
89.5173
78.8421
69.2027
60.5228
89.5114
78.842
69.206
60.5301
89.5072
78.8409
69.2074
60.534
89.5055
78.8394
69.2066
60.5336
89.5063
78.8378
69.2039
60.5293
89.5099
78.8363
69.2002
60.5231
89.5159
78.8355
69.1975
60.5184
89.5163
78.8357
69.1976
60.5184
89.5108
78.8369
69.2005
60.5231
89.5078
78.8387
69.2043
60.5293
89.5074
78.8406
69.2072
60.5336
89.5096
78.8423
69.2081
60.5341
89.5142
78.8437
69.2068
60.5301
89.5205
78.8441
69.2036
60.5228
89.5293
78.8411
69.2018
60.5147
89.5243
78.8407
69.2149
60.5244
89.5037
78.9329
69.349
60.7411
73.65
64.9898
57.1654
50.1385
73.6634
64.9134
57.0558
49.9625
73.6676
64.9137
57.0452
49.9546
73.6605
64.9161
57.0466
49.9612
73.6555
64.9159
57.0492
49.9671
73.6519
64.9148
57.0502
49.9702
73.6503
64.9135
57.0494
49.9697
73.6508
64.912
57.047
49.966
73.6535
64.9106
57.0439
49.9609
73.6582
64.9099
57.0415
49.957
73.6585
64.9101
57.0416
49.957
73.6542
64.9111
57.0441
49.9609
73.652
64.9128
57.0474
49.9661
73.6519
64.9145
57.0499
49.9698
73.6539
64.9161
57.0509
49.9704
73.6579
64.9174
57.05
49.9673
73.6633
64.9178
57.0474
49.9614
73.6707
64.9155
57.0461
49.9547
73.6667
64.9153
57.0567
49.9625
73.6535
64.9918
57.1663
50.1385
60.3701
53.2895
46.9056
41.1791
60.3787
53.2263
46.8161
41.0366
60.3821
53.2264
46.8076
41.0303
60.376
53.2283
46.8087
41.0359
60.3717
53.228
46.8109
41.0408
60.3685
53.2271
46.8117
41.0434
60.367
53.2259
46.811
41.0431
60.3672
53.2246
46.8091
41.0403
60.3692
53.2234
46.8065
41.0362
60.3729
53.2227
46.8046
41.0331
60.3731
53.2229
46.8047
41.0332
60.3698
53.2238
46.8068
41.0363
60.3682
53.2252
46.8095
41.0405
60.3683
53.2267
46.8115
41.0434
60.37
53.228
46.8123
41.0438
60.3735
53.2291
46.8116
41.0412
60.3781
53.2296
46.8095
41.0362
60.3844
53.2278
46.8084
41.0306
60.3813
53.2278
46.817
41.0368
60.3729
53.291
46.9064
41.1793
49.2919
43.5242
38.3316
33.6832
49.2975
43.4724
38.2589
33.5681
49.3002
43.4724
38.252
33.5632
49.2951
43.4739
38.2531
33.568
49.2914
43.4736
38.2549
33.5722
49.2886
43.4728
38.2556
33.5745
49.2873
43.4718
38.2551
33.5743
49.2872
43.4707
38.2535
33.5722
49.2887
43.4697
38.2515
33.569
49.2915
43.4691
38.25
33.5666
49.2917
43.4692
38.25
33.5666
49.2891
43.4699
38.2517
33.5692
49.2878
43.4711
38.2539
33.5725
49.288
43.4723
38.2555
33.5748
49.2896
43.4735
38.2561
33.575
49.2925
43.4744
38.2555
33.5727
49.2964
43.4748
38.2538
33.5686
49.3017
43.4734
38.2528
33.5638
49.2992
43.4734
38.2597
33.5687
49.2938
43.5254
38.3324
33.6837
40.1033
35.4204
31.2099
27.4496
40.1072
35.3781
31.151
27.3569
40.1093
35.3781
31.1455
27.3531
40.105
35.3793
31.1464
27.3571
40.1019
35.379
31.1479
27.3606
40.0996
35.3783
31.1485
27.3625
40.0983
35.3774
31.1481
27.3626
40.0982
35.3765
31.1469
27.3609
40.0992
35.3756
31.1452
27.3584
40.1015
35.3751
31.144
27.3565
40.1015
35.3752
31.1441
27.3566
40.0994
35.3758
31.1454
27.3586
40.0984
35.3768
31.1472
27.3613
40.0986
35.3778
31.1485
27.3631
40.0999
35.3787
31.149
27.3632
40.1023
35.3794
31.1484
27.3614
40.1055
35.3798
31.147
27.3579
40.11
35.3787
31.1461
27.3539
40.108
35.3787
31.1516
27.3577
40.1042
35.4211
31.2105
27.4503
32.5268
28.7323
25.3251
22.2892
32.5296
28.6978
25.2775
22.2146
32.5313
28.6978
25.2731
22.2116
32.5277
28.6988
25.2738
22.215
32.5251
28.6985
25.2751
22.2178
32.5231
28.6979
25.2756
22.2195
32.522
28.6972
25.2753
22.2195
32.5218
28.6964
25.2743
22.2182
32.5225
28.6956
25.2729
22.2162
32.5243
28.6952
25.2719
22.2147
32.5242
28.6952
25.272
22.2148
32.5225
28.6957
25.2731
22.2165
32.5217
28.6965
25.2746
22.2187
32.5218
28.6973
25.2756
22.2202
32.5228
28.698
25.276
22.2203
32.5248
28.6986
25.2756
22.2188
32.5274
28.6989
25.2744
22.216
32.5311
28.698
25.2737
22.2126
32.5295
28.698
25.2781
22.2156
32.5268
28.7325
25.3257
22.2902
26.3122
23.2403
20.4859
18.0364
26.3143
23.2124
20.4474
17.9763
26.3156
23.2124
20.4439
17.9739
26.3126
23.2131
20.4445
17.9767
26.3105
23.2129
20.4455
17.979
26.3088
23.2123
20.4459
17.9803
26.3078
23.2117
20.4456
17.9803
26.3075
23.211
20.4448
17.9793
26.308
23.2103
20.4437
17.9777
26.3093
23.2099
20.4429
17.9765
26.3093
23.2099
20.443
17.9766
26.3078
23.2103
20.4439
17.978
26.3071
23.2109
20.4451
17.9799
26.3072
23.2116
20.446
17.9811
26.308
23.2122
20.4463
17.9813
26.3096
23.2127
20.446
17.9801
26.3117
23.2129
20.445
17.9778
26.3147
23.2122
20.4444
17.9751
26.3134
23.2122
20.4479
17.9774
26.3114
23.2401
20.4864
18.0375
21.2371
18.751
16.5249
14.5482
21.2386
18.7283
16.4938
14.4997
21.2396
18.7283
16.4909
14.4978
21.2371
18.7289
16.4914
14.5
21.2353
18.7286
16.4922
14.5019
21.2339
18.7281
16.4925
14.5029
21.233
18.7276
16.4922
14.5029
21.2327
18.7269
16.4915
14.502
21.233
18.7264
16.4906
14.5007
21.234
18.726
16.49
14.4998
21.2339
18.726
16.49
14.4999
21.2326
18.7263
16.4908
14.5011
21.232
18.7268
16.4918
14.5027
21.2321
18.7273
16.4926
14.5038
21.2327
18.7278
16.4929
14.5039
21.234
18.7282
16.4926
14.503
21.2357
18.7284
16.4919
14.5013
21.2381
18.7279
16.4914
14.4991
21.2372
18.7279
16.4942
14.5009
21.2357
18.7505
16.5253
14.5494
17.1074
15.0958
13.2968
11.7011
17.1086
15.0775
13.2716
11.662
17.1093
15.0774
13.2693
11.6604
17.1073
15.0778
13.2697
11.6622
17.1057
15.0776
13.2703
11.6637
17.1045
15.0772
13.2705
11.6645
17.1037
15.0766
13.2702
11.6645
17.1033
15.0761
13.2696
11.6637
17.1035
15.0756
13.2689
11.6627
17.1043
15.0752
13.2683
11.6619
17.1041
15.0752
13.2684
11.662
17.1031
15.0754
13.269
11.6631
17.1025
15.0759
13.2699
11.6644
17.1026
15.0763
13.2705
11.6653
17.1031
15.0767
13.2708
11.6655
17.1041
15.0771
13.2707
11.6648
17.1055
15.0773
13.2701
11.6634
17.1076
15.0769
13.2697
11.6617
17.1068
15.0769
13.272
11.6632
17.1057
15.0952
13.2972
11.7023
13.7574
12.1303
10.6765
9.38816
13.7583
12.1154
10.6561
9.35654
13.7588
12.1153
10.6543
9.35529
13.7571
12.1156
10.6545
9.3567
13.7558
12.1154
10.655
9.35788
13.7547
12.115
10.6551
9.3585
13.754
12.1145
10.6549
9.35845
13.7537
12.114
10.6543
9.35784
13.7538
12.1135
10.6537
9.35697
13.7543
12.1132
10.6533
9.35636
13.7541
12.1132
10.6533
9.35648
13.7533
12.1134
10.6538
9.35733
13.7528
12.1138
10.6546
9.35842
13.7529
12.1142
10.6551
9.35924
13.7533
12.1145
10.6554
9.35945
13.7542
12.1149
10.6553
9.35895
13.7554
12.1151
10.6549
9.35784
13.757
12.1148
10.6546
9.35645
13.7565
12.1148
10.6565
9.35767
13.7557
12.1297
10.6768
9.38924
11.0472
9.73159
8.55707
7.51696
11.0479
9.71958
8.54063
7.4914
11.0483
9.71951
8.53909
7.49038
11.0469
9.71971
8.53929
7.4915
11.0458
9.71948
8.53962
7.49243
11.0448
9.7191
8.53969
7.49292
11.0442
9.71867
8.53947
7.49286
11.0439
9.71823
8.53903
7.49235
11.0439
9.71783
8.5385
7.49164
11.0443
9.71758
8.53813
7.49115
11.0441
9.71755
8.53818
7.49125
11.0434
9.71772
8.53863
7.49196
11.0431
9.71804
8.53922
7.49286
11.0432
9.71838
8.53971
7.49354
11.0436
9.71873
8.53996
7.49374
11.0443
9.71903
8.53991
7.49335
11.0453
9.71922
8.53959
7.49247
11.0467
9.719
8.53939
7.49136
11.0463
9.71909
8.54092
7.49234
11.0457
9.7311
8.55734
7.51784
8.85981
7.79666
6.84805
6.00847
8.8604
7.78695
6.83477
5.98782
8.86069
7.78688
6.83351
5.98698
8.85955
7.78703
6.83366
5.98787
8.85864
7.78682
6.83391
5.98861
8.85785
7.78649
6.83395
5.989
8.8573
7.78612
6.83376
5.98895
8.857
7.78574
6.83339
5.98853
8.857
7.78541
6.83296
5.98795
8.85733
7.78521
6.83266
5.98754
8.85722
7.78519
6.8327
5.98763
8.85666
7.78535
6.83307
5.9882
8.85643
7.78563
6.83356
5.98893
8.85651
7.78593
6.83397
5.98948
8.85688
7.78624
6.83418
5.98963
8.85753
7.78652
6.83415
5.98931
8.85839
7.7867
6.83391
5.9886
8.85956
7.78655
6.83375
5.9877
8.85934
7.78665
6.835
5.98848
8.85881
7.79637
6.84827
6.00908
7.09812
6.23936
5.47349
4.79592
7.09862
6.23153
5.46275
4.77923
7.09885
6.23147
5.46174
4.77855
7.09794
6.2316
5.46186
4.77926
7.09721
6.23143
5.46206
4.77986
7.09658
6.23117
5.46209
4.78017
7.09614
6.23087
5.46193
4.78013
7.0959
6.23057
5.46164
4.77979
7.09592
6.2303
5.46129
4.77932
7.09621
6.23016
5.46105
4.77898
7.09615
6.23016
5.46109
4.77904
7.09573
6.23031
5.46139
4.77948
7.09559
6.23055
5.46179
4.78006
7.09571
6.23082
5.46211
4.78048
7.09606
6.23109
5.46228
4.78058
7.09663
6.23134
5.46226
4.78029
7.09737
6.23151
5.46205
4.77969
7.09835
6.23141
5.46193
4.77895
7.09823
6.2315
5.46293
4.77956
7.0978
6.23936
5.47366
4.79619
5.6817
4.98836
4.37024
3.82355
5.68216
4.98206
4.36157
3.81006
5.68235
4.98202
4.36076
3.80952
5.68166
4.98215
4.36087
3.81009
5.68111
4.98203
4.36104
3.81058
5.68064
4.98185
4.36108
3.81084
5.68032
4.98163
4.36096
3.81081
5.68017
4.98141
4.36074
3.81053
5.68023
4.98123
4.36047
3.81014
5.68052
4.98114
4.36028
3.80986
5.68052
4.98117
4.36031
3.80989
5.68023
4.98131
4.36056
3.81022
5.68017
4.98152
4.36087
3.81065
5.68031
4.98175
4.36111
3.81095
5.68064
4.98198
4.36123
3.81099
5.68115
4.98219
4.36119
3.81071
5.68178
4.98233
4.36101
3.81019
5.68261
4.98226
4.36089
3.80956
5.68256
4.98235
4.3617
3.81002
5.68222
4.9887
4.37036
3.82344
4.54446
3.98492
3.48624
3.04529
4.54487
3.97985
3.47926
3.0344
4.54506
3.97985
3.47861
3.03396
4.54456
3.97999
3.47872
3.03442
4.54418
3.97994
3.47888
3.03482
4.54388
3.97983
3.47893
3.03504
4.54368
3.9797
3.47886
3.03502
4.54363
3.97957
3.47869
3.03479
4.54375
3.97946
3.47849
3.03447
4.54406
3.97942
3.47835
3.03423
4.54413
3.97948
3.47838
3.03423
4.54396
3.97962
3.47857
3.03446
4.54396
3.97981
3.4788
3.03476
4.54413
3.98
3.47897
3.03495
4.54444
3.98019
3.47904
3.03492
4.54489
3.98035
3.47897
3.03464
4.54543
3.98046
3.4788
3.03417
4.54612
3.9804
3.47868
3.03362
4.54612
3.98048
3.47932
3.03396
4.54584
3.98561
3.48631
3.04479
3.63233
3.18099
2.77889
2.42338
3.63272
3.17693
2.77326
2.41458
3.63291
3.17697
2.77276
2.41423
3.63259
3.17712
2.77286
2.4146
3.63237
3.17714
2.77302
2.41493
3.63221
3.17711
2.77308
2.4151
3.63215
3.17706
2.77305
2.41508
3.63219
3.177
2.77294
2.4149
3.63238
3.17697
2.77279
2.41463
3.63272
3.17698
2.77269
2.41441
3.63285
3.17706
2.77271
2.41438
3.63277
3.1772
2.77285
2.41453
3.63284
3.17737
2.77302
2.41472
3.63302
3.17752
2.77313
2.41481
3.63332
3.17767
2.77314
2.41472
3.63371
3.17779
2.77305
2.41444
3.63417
3.17787
2.77287
2.414
3.63474
3.17781
2.77275
2.41351
3.63478
3.17787
2.77324
2.41374
3.63455
3.18201
2.77889
2.42248
2.90144
2.53757
2.2135
1.92704
2.90181
2.53432
2.20898
1.91993
2.90202
2.53439
2.20859
1.91965
2.90185
2.53456
2.20869
1.91995
2.90177
2.53463
2.20884
1.9202
2.90174
2.53467
2.20892
1.92034
2.90179
2.53469
2.20892
1.92032
2.90192
2.5347
2.20885
1.92016
2.90216
2.53472
2.20874
1.91992
2.90253
2.53478
2.20866
1.91972
2.90271
2.53488
2.20868
1.91966
2.90272
2.53501
2.20878
1.91974
2.90283
2.53516
2.20889
1.91984
2.90303
2.53529
2.20895
1.91985
2.9033
2.5354
2.20892
1.91972
2.90365
2.53548
2.20881
1.91942
2.90403
2.53553
2.20863
1.91901
2.90451
2.53547
2.20849
1.91857
2.90456
2.5355
2.20887
1.91873
2.90438
2.53885
2.21342
1.92577
2.31637
2.0231
1.76204
1.53133
2.31672
2.0205
1.7584
1.52559
2.31694
2.0206
1.7581
1.52535
2.31689
2.02079
1.7582
1.52558
2.31692
2.0209
1.75834
1.52577
2.317
2.02099
1.75842
1.52586
2.31714
2.02106
1.75844
1.52583
2.31734
2.02112
1.7584
1.52568
2.31761
2.02119
1.75832
1.52547
2.31799
2.02127
1.75826
1.52528
2.31822
2.02138
1.75827
1.52519
2.31829
2.02151
1.75834
1.52521
2.31843
2.02164
1.7584
1.52525
2.31864
2.02175
1.75842
1.5252
2.31889
2.02182
1.75836
1.52503
2.31919
2.02187
1.75823
1.52474
2.31952
2.02189
1.75805
1.52436
2.31991
2.02183
1.75791
1.52396
2.31996
2.02185
1.7582
1.52406
2.31982
2.02455
1.76186
1.52973
1.84856
1.61217
1.40188
1.21608
1.84888
1.6101
1.39895
1.21144
1.84911
1.6102
1.39872
1.21124
1.84915
1.6104
1.39881
1.2114
1.84927
1.61054
1.39893
1.21153
1.84942
1.61066
1.39901
1.21158
1.84961
1.61076
1.39903
1.21153
1.84985
1.61085
1.399
1.21139
1.85014
1.61094
1.39894
1.21119
1.85051
1.61104
1.39889
1.21101
1.85075
1.61116
1.39889
1.21091
1.85086
1.61128
1.39893
1.21088
1.85103
1.61139
1.39897
1.21086
1.85124
1.61147
1.39895
1.21077
1.85147
1.61152
1.39887
1.21059
1.85173
1.61155
1.39873
1.2103
1.852
1.61155
1.39856
1.20996
1.85232
1.61149
1.39842
1.20961
1.85238
1.6115
1.39864
1.20967
1.85227
1.61368
1.40159
1.21423
1.47498
1.2843
1.11481
0.965091
1.47527
1.28265
1.11245
0.961337
1.4755
1.28275
1.11226
0.961147
1.47559
1.28294
1.11233
0.961246
1.47576
1.28309
1.11243
0.961322
1.47594
1.28322
1.11249
0.961334
1.47616
1.28333
1.11251
0.961266
1.4764
1.28343
1.11248
0.961126
1.47668
1.28352
1.11243
0.960941
1.47702
1.28362
1.11239
0.960764
1.47726
1.28373
1.11238
0.960649
1.47739
1.28384
1.1124
0.960595
1.47756
1.28393
1.1124
0.960542
1.47776
1.284
1.11236
0.960431
1.47797
1.28403
1.11228
0.960239
1.47819
1.28404
1.11214
0.959975
1.47842
1.28404
1.11198
0.959667
1.47869
1.28398
1.11186
0.959369
1.47874
1.28398
1.11202
0.959403
1.47867
1.28575
1.11441
0.963085
1.17698
1.02297
0.886192
0.76538
1.17723
1.02165
0.884282
0.762333
1.17745