/*--------------------------------*- C++ -*----------------------------------*\
| =========                 |                                                 |
| \\      /  F ield         | foam-extend: Open Source CFD                    |
|  \\    /   O peration     | Version:     3.1                                |
|   \\  /    A nd           | Web:         http://www.extend-project.de       |
|    \\/     M anipulation  |                                                 |
\*---------------------------------------------------------------------------*/
FoamFile
{
    version     2.0;
    format      ascii;
    class       volSymmTensorField;
    location    "0.001";
    object      sigma;
}
// * * * * * * * * * * * * * * * * * * * * * * * * * * * * * * * * * * * * * //

dimensions      [1 -1 -2 0 0 0 0];

internalField   nonuniform List<symmTensor> 
6400
(
(1095.8 -58.0927 1867.56 2386.66 45.3985 5117.71)
(223.395 -37.8007 2029.66 1070.4 59.9155 1811.46)
(-490.764 -21.2219 1918.06 5.39423 55.9952 -897.386)
(-1374.54 -4.3402 1555.03 -1227.15 35.4471 -4064.7)
(1103.29 -150.838 1857.63 2364.38 216.254 5068.23)
(227.547 -99.1607 2014.66 1053.3 235.919 1774.05)
(-491.352 -58.0236 1900.86 -8.85014 222.965 -936.324)
(-1383.26 -16.8036 1535.52 -1242.81 180.055 -4120.14)
(1133.72 -247.461 1833.9 2329.9 362.624 5065.02)
(248.188 -161.988 1989.08 1032.02 393.993 1772.58)
(-478.901 -94.5173 1876.89 -21.4086 372.185 -937.249)
(-1378.72 -27.1958 1516.5 -1246.9 300.957 -4120.45)
(1179.24 -337.749 1799.3 2282.64 506.096 5063.46)
(278.006 -221.157 1951.62 1001.14 549.418 1771.68)
(-461.423 -128.97 1841.55 -39.4316 518.824 -937.611)
(-1373.66 -37.0211 1487.96 -1252.28 419.548 -4120.32)
(1238.54 -419.733 1753.74 2222.39 646.108 5062.8)
(316.899 -274.911 1902.22 961.691 701.206 1771.47)
(-438.661 -160.326 1794.94 -62.4055 662.03 -937.403)
(-1366.98 -46.014 1450.28 -1258.84 535.287 -4119.63)
(1310.12 -491.411 1697.4 2150.42 781.914 5062.74)
(363.877 -321.914 1841.14 914.565 848.481 1771.69)
(-411.151 -187.762 1737.29 -89.8261 800.974 -936.851)
(-1358.89 -53.8989 1403.67 -1266.56 647.546 -4118.67)
(1392.2 -551.035 1630.6 2068.38 912.746 5063.09)
(417.75 -361.013 1768.71 860.833 990.383 1772.19)
(-379.6 -210.587 1668.95 -121.093 934.843 -936.127)
(-1349.62 -60.4665 1348.42 -1275.36 755.677 -4117.62)
(1482.74 -597.147 1553.72 1978.22 1037.83 5063.76)
(477.182 -391.244 1685.36 801.755 1126.07 1772.85)
(-344.808 -228.23 1590.31 -155.494 1062.84 -935.357)
(-1339.42 -65.5417 1284.88 -1285.06 859.04 -4116.61)
(1579.54 -628.629 1467.22 1882.11 1156.44 5064.67)
(540.723 -411.851 1591.61 738.746 1254.72 1773.57)
(-307.66 -240.238 1501.9 -192.22 1184.19 -934.665)
(-1328.58 -68.9829 1213.48 -1295.47 957.018 -4115.79)
(1680.64 -644.799 1371.69 1782.47 1267.9 5065.67)
(606.749 -422.314 1488.11 673.306 1375.61 1774.13)
(-269.167 -246.308 1404.31 -230.388 1298.21 -934.221)
(-1317.46 -70.7079 1134.7 -1306.35 1049.06 -4115.31)
(1782.47 -644.799 1267.89 1680.64 1371.69 5065.67)
(673.306 -422.314 1375.61 606.749 1488.11 1774.13)
(-230.389 -246.308 1298.21 -269.167 1404.31 -934.221)
(-1306.35 -70.7079 1049.06 -1317.46 1134.7 -4115.31)
(1882.11 -628.629 1156.44 1579.54 1467.22 5064.67)
(738.746 -411.851 1254.72 540.722 1591.61 1773.57)
(-192.22 -240.238 1184.19 -307.661 1501.9 -934.665)
(-1295.47 -68.9829 957.017 -1328.58 1213.48 -4115.79)
(1978.22 -597.147 1037.83 1482.74 1553.72 5063.76)
(801.754 -391.244 1126.07 477.182 1685.36 1772.85)
(-155.494 -228.23 1062.84 -344.808 1590.31 -935.357)
(-1285.06 -65.5418 859.039 -1339.42 1284.88 -4116.61)
(2068.38 -551.035 912.745 1392.2 1630.6 5063.09)
(860.833 -361.013 990.382 417.75 1768.71 1772.19)
(-121.093 -210.587 934.843 -379.6 1668.95 -936.127)
(-1275.36 -60.4666 755.677 -1349.62 1348.42 -4117.62)
(2150.42 -491.412 781.914 1310.12 1697.4 5062.74)
(914.565 -321.915 848.48 363.877 1841.14 1771.69)
(-89.8263 -187.762 800.974 -411.151 1737.29 -936.851)
(-1266.56 -53.8989 647.546 -1358.89 1403.67 -4118.67)
(2222.39 -419.733 646.108 1238.54 1753.74 5062.8)
(961.691 -274.911 701.206 316.899 1902.22 1771.47)
(-62.4057 -160.326 662.029 -438.662 1794.94 -937.403)
(-1258.84 -46.014 535.286 -1366.98 1450.28 -4119.63)
(2282.64 -337.749 506.096 1179.24 1799.3 5063.46)
(1001.14 -221.157 549.418 278.005 1951.62 1771.68)
(-39.4318 -128.97 518.824 -461.423 1841.55 -937.611)
(-1252.28 -37.0211 419.548 -1373.66 1487.96 -4120.32)
(2329.9 -247.461 362.624 1133.71 1833.9 5065.01)
(1032.02 -161.988 393.993 248.188 1989.08 1772.58)
(-21.4088 -94.5174 372.185 -478.902 1876.89 -937.249)
(-1246.9 -27.1958 300.956 -1378.72 1516.5 -4120.45)
(2364.37 -150.838 216.254 1103.29 1857.63 5068.23)
(1053.3 -99.1608 235.919 227.546 2014.66 1774.05)
(-8.85037 -58.0236 222.964 -491.353 1900.86 -936.324)
(-1242.81 -16.8036 180.055 -1383.26 1535.52 -4120.14)
(2386.66 -58.0928 45.3985 1095.8 1867.57 5117.71)
(1070.4 -37.8008 59.9155 223.395 2029.66 1811.46)
(5.394 -21.2219 55.9952 -490.765 1918.07 -897.386)
(-1227.15 -4.3402 35.4471 -1374.54 1555.03 -4064.7)
(-1180.19 -126.114 813.132 1699.46 -22.1434 1251.12)
(-673.134 -97.6649 1509.54 1564.09 16.379 798.724)
(-343.66 -71.0189 1482.24 1325.52 15.678 47.1518)
(35.628 -46.7327 779.961 1200.42 -21.3525 -491.836)
(-1127.7 -336.7 819.468 1687.61 96.6064 1256.55)
(-635.796 -261.889 1500.69 1544.62 177.604 790.081)
(-314.12 -195.002 1463.92 1309.74 173.876 36.3805)
(62.4662 -135.244 753.818 1192.48 91.0734 -495.642)
(-1059.13 -552.918 809.481 1613.08 160.776 1253.33)
(-581.121 -428.233 1481.91 1489.78 294.973 788.113)
(-272.956 -318.773 1445.46 1268.71 288.337 34.5767)
(91.7026 -221.704 744.363 1163.76 149.701 -496.838)
(-956.33 -754.769 794.258 1509.16 223.818 1252.49)
(-501.621 -584.727 1454.02 1409.42 410.328 787.404)
(-213.643 -435.205 1418.23 1209 400.799 34.2115)
(132.902 -302.664 730.289 1122.09 207.489 -496.92)
(-823.313 -938.075 774.101 1375.35 285.418 1252.14)
(-398.526 -726.886 1417.19 1305.78 523.061 787.332)
(-136.867 -541.049 1382.3 1131.9 510.708 34.457)
(186.322 -376.277 711.752 1068.49 263.969 -496.357)
(-663.233 -1098.35 749.126 1214.78 345.243 1252.09)
(-274.395 -851.194 1371.63 1181.35 632.547 787.575)
(-44.4107 -633.622 1337.89 1039.29 617.45 34.9949)
(250.643 -440.662 688.88 1004.12 318.818 -495.534)
(-479.998 -1231.67 719.471 1031.3 402.923 1252.25)
(-132.265 -954.6 1317.61 1039.11 738.126 787.987)
(61.4607 -710.627 1285.26 933.409 720.38 35.647)
(324.283 -494.214 661.809 930.501 371.706 -494.658)
(-278.058 -1334.78 685.303 829.364 458.068 1252.56)
(24.4112 -1034.55 1255.46 882.523 839.127 788.475)
(178.159 -770.146 1224.73 816.801 818.854 36.293)
(405.423 -535.587 630.701 849.395 422.301 -493.876)
(-62.3016 -1405.19 646.849 613.904 510.276 1252.94)
(191.863 -1089.06 1185.56 715.419 934.893 788.967)
(302.815 -810.67 1156.68 692.329 912.246 36.835)
(492.033 -563.724 595.757 762.777 470.273 -493.302)
(162.99 -1441.31 604.628 390.531 559.134 1253.7)
(365.974 -1116.73 1108.49 541.948 1024.82 789.383)
(432.247 -831.171 1081.6 563.119 999.98 37.172)
(581.911 -577.932 557.217 672.865 515.323 -493.003)
(390.531 -1441.31 559.134 162.99 604.628 1253.7)
(541.947 -1116.73 1024.82 365.974 1108.49 789.383)
(563.119 -831.171 999.98 432.247 1081.6 37.172)
(672.865 -577.932 515.322 581.911 557.218 -493.003)
(613.903 -1405.19 510.276 -62.3021 646.85 1252.94)
(715.418 -1089.06 934.893 191.863 1185.56 788.967)
(692.328 -810.67 912.245 302.815 1156.68 36.8349)
(762.776 -563.724 470.273 492.033 595.757 -493.302)
(829.362 -1334.78 458.068 -278.059 685.304 1252.56)
(882.523 -1034.55 839.127 24.4106 1255.46 788.474)
(816.8 -770.146 818.854 178.159 1224.73 36.2929)
(849.395 -535.587 422.3 405.423 630.702 -493.876)
(1031.3 -1231.67 402.923 -480 719.471 1252.25)
(1039.11 -954.6 738.125 -132.266 1317.61 787.987)
(933.408 -710.627 720.379 61.4602 1285.26 35.6469)
(930.5 -494.214 371.706 324.283 661.81 -494.658)
(1214.78 -1098.35 345.243 -663.235 749.127 1252.09)
(1181.35 -851.195 632.547 -274.396 1371.63 787.575)
(1039.29 -633.622 617.449 -44.4114 1337.89 34.9948)
(1004.12 -440.662 318.818 250.643 688.88 -495.534)
(1375.35 -938.076 285.418 -823.316 774.102 1252.14)
(1305.78 -726.886 523.06 -398.528 1417.19 787.332)
(1131.9 -541.049 510.708 -136.867 1382.3 34.4569)
(1068.49 -376.277 263.969 186.322 711.752 -496.357)
(1509.16 -754.77 223.818 -956.334 794.259 1252.49)
(1409.42 -584.727 410.327 -501.623 1454.02 787.404)
(1209 -435.205 400.799 -213.644 1418.23 34.2114)
(1122.09 -302.664 207.489 132.902 730.29 -496.92)
(1613.08 -552.919 160.776 -1059.14 809.482 1253.33)
(1489.78 -428.233 294.973 -581.123 1481.91 788.113)
(1268.71 -318.773 288.337 -272.957 1445.46 34.5766)
(1163.76 -221.704 149.701 91.7022 744.364 -496.838)
(1687.6 -336.7 96.6064 -1127.7 819.469 1256.55)
(1544.62 -261.889 177.604 -635.799 1500.7 790.081)
(1309.74 -195.002 173.876 -314.121 1463.92 36.3804)
(1192.48 -135.244 91.0733 62.4658 753.819 -495.641)
(1699.46 -126.114 -22.1434 -1180.19 813.133 1251.12)
(1564.09 -97.6649 16.379 -673.136 1509.54 798.724)
(1325.52 -71.019 15.678 -343.661 1482.24 47.1518)
(1200.42 -46.7327 -21.3525 35.6276 779.961 -491.835)
(-1139.5 -148.21 494.832 2369.81 -33.0534 -533.386)
(-747.56 -137.611 867.593 2481.82 -12.8567 123.989)
(-322.865 -123.747 848.46 2595.72 -13.505 671.302)
(24.7858 -113.769 450.952 2736.1 -33.9032 1305.03)
(-1090.36 -410.476 495.383 2341.28 57.3385 -518.155)
(-701.813 -378.006 860.928 2446.51 100.74 133.359)
(-282.326 -341.069 835.776 2559.79 98.3887 679.166)
(57.661 -315.484 435.085 2695.35 52.3188 1312.79)
(-1007.18 -674.612 489.164 2252.67 96.5783 -519.592)
(-623.071 -618.939 850.081 2368.69 168.94 133.936)
(-210.832 -558.619 825.152 2489.52 164.734 679.923)
(124.222 -518.596 429.754 2631.02 87.0453 1313.86)
(-881.579 -921.149 479.938 2126.99 134.819 -519.692)
(-507.943 -845.288 833.997 2253.46 235.386 133.976)
(-106.687 -762.92 809.529 2385.7 229.27 680.251)
(220.812 -708.37 421.545 2534.64 120.741 1314.31)
(-719.112 -1145.07 467.724 1964.36 172.079 -519.833)
(-358.784 -1050.87 812.778 2104.26 300.095 134.096)
(28.0099 -948.507 788.915 2251.09 292.061 680.624)
(345.922 -880.694 410.74 2409.69 153.401 1314.92)
(-523.634 -1340.87 452.566 1768.78 208.256 -519.905)
(-179.292 -1230.64 786.548 1924.76 362.866 134.301)
(190.09 -1110.78 763.47 2089.08 352.928 681.094)
(496.464 -1031.34 397.462 2259.27 184.976 1315.66)
(-299.911 -1503.77 434.535 1545.01 243.153 -519.909)
(26.161 -1380.18 755.463 1719.34 423.376 134.564)
(375.612 -1245.74 733.361 1903.65 411.576 681.604)
(668.756 -1156.61 381.807 2087.12 215.354 1316.42)
(-53.3693 -1629.76 413.737 1298.55 276.513 -519.84)
(252.596 -1495.81 719.717 1493.04 481.247 134.852)
(580.055 -1350.06 698.778 1699.34 467.661 682.086)
(858.566 -1253.39 363.873 1897.44 244.377 1317.09)
(210.038 -1715.79 390.343 1035.46 308.038 -519.695)
(494.565 -1574.65 679.566 1251.44 536.083 135.156)
(798.413 -1421.1 659.954 1481.19 520.826 682.482)
(1061.19 -1319.26 343.783 1694.87 271.873 1317.58)
(484.83 -1759.84 364.787 762.531 337.427 -519.108)
(746.123 -1614.65 635.387 1000.53 587.52 135.456)
(1025.2 -1457.06 617.184 1254.64 570.744 682.731)
(1271.56 -1352.57 321.676 1484.5 297.677 1317.83)
(762.53 -1759.84 337.427 484.83 364.787 -519.108)
(1000.53 -1614.65 587.52 746.123 635.387 135.456)
(1254.64 -1457.06 570.744 1025.2 617.185 682.731)
(1484.5 -1352.57 297.677 1271.56 321.676 1317.83)
(1035.46 -1715.79 308.038 210.037 390.344 -519.696)
(1251.43 -1574.65 536.082 494.565 679.566 135.156)
(1481.19 -1421.1 520.826 798.413 659.955 682.482)
(1694.87 -1319.26 271.873 1061.19 343.783 1317.58)
(1298.55 -1629.77 276.513 -53.3712 413.738 -519.841)
(1493.04 -1495.81 481.247 252.595 719.718 134.851)
(1699.34 -1350.06 467.661 580.055 698.778 682.086)
(1897.44 -1253.39 244.377 858.566 363.874 1317.09)
(1545.01 -1503.77 243.153 -299.914 434.535 -519.911)
(1719.34 -1380.18 423.375 26.1594 755.464 134.563)
(1903.65 -1245.74 411.576 375.612 733.361 681.604)
(2087.12 -1156.61 215.353 668.756 381.807 1316.42)
(1768.78 -1340.88 208.256 -523.638 452.567 -519.907)
(1924.76 -1230.64 362.866 -179.294 786.549 134.3)
(2089.08 -1110.78 352.928 190.089 763.471 681.093)
(2259.27 -1031.34 184.976 496.464 397.463 1315.66)
(1964.35 -1145.07 172.079 -719.117 467.725 -519.834)
(2104.26 -1050.87 300.095 -358.786 812.779 134.095)
(2251.09 -948.507 292.061 28.0086 788.915 680.624)
(2409.69 -880.694 153.4 345.921 410.74 1314.92)
(2126.99 -921.15 134.819 -881.585 479.939 -519.695)
(2253.46 -845.289 235.386 -507.947 833.998 133.975)
(2385.7 -762.92 229.27 -106.689 809.529 680.251)
(2534.64 -708.37 120.741 220.811 421.546 1314.31)
(2252.67 -674.613 96.5783 -1007.19 489.165 -519.595)
(2368.69 -618.939 168.94 -623.075 850.082 133.935)
(2489.52 -558.619 164.733 -210.834 825.152 679.923)
(2631.02 -518.596 87.0451 124.221 429.755 1313.86)
(2341.28 -410.476 57.3385 -1090.36 495.384 -518.157)
(2446.51 -378.006 100.74 -701.817 860.929 133.358)
(2559.79 -341.07 98.3886 -282.328 835.776 679.165)
(2695.35 -315.484 52.3188 57.6605 435.085 1312.79)
(2369.81 -148.21 -33.0534 -1139.5 494.834 -533.389)
(2481.81 -137.612 -12.8567 -747.564 867.594 123.988)
(2595.72 -123.747 -13.505 -322.867 848.46 671.302)
(2736.09 -113.769 -33.9032 24.7851 450.953 1305.03)
(-1055.32 -170.23 231.822 3043.1 -28.5765 -1503.19)
(-695.816 -168.036 399.882 3293.49 -19.434 -211.303)
(-317.338 -163.338 387.646 3542.29 -19.8338 997.868)
(6.03924 -160.355 203.598 3809.08 -29.0153 2261.74)
(-1002.57 -479.413 230.938 3003.33 25.6304 -1481.3)
(-645.319 -467.099 395.495 3246.12 45.4629 -193.586)
(-270.503 -451.389 380.632 3491.13 44.3375 1014.16)
(46.8864 -442.346 195.283 3747.45 23.4958 2276.01)
(-905.415 -787.832 227.993 2901.12 43.8801 -1481.62)
(-549.089 -765.353 390.355 3149.48 76.9589 -192.237)
(-177.148 -739.613 375.692 3397.52 74.904 1015.68)
(139.859 -727.693 192.832 3657.34 39.5359 2278.39)
(-758.718 -1075.91 223.644 2754.9 61.7056 -1481.07)
(-406.714 -1045.31 382.806 3007.14 107.591 -191.586)
(-39.271 -1010.2 368.409 3260.02 104.515 1016.58)
(275.366 -994.098 188.992 3522.03 54.97 2279.36)
(-568.864 -1337.61 217.892 2565.42 79.095 -1480.93)
(-222.182 -1299.56 372.894 2822.9 137.334 -191.212)
(139.143 -1255.91 358.825 3081.86 133.169 1017.15)
(450.966 -1235.89 183.964 3346.63 69.7442 2280.12)
(-340.445 -1566.49 210.722 2337.33 96.0151 -1480.95)
(-0.178562 -1521.89 360.676 2601.17 166.139 -190.979)
(353.766 -1470.72 347.056 2867.46 160.838 1017.6)
(662.223 -1447.23 177.863 3135.54 83.8759 2280.81)
(-79.0448 -1756.93 202.152 2076.17 112.373 -1481.05)
(253.885 -1706.83 346.228 2347.34 193.884 -190.811)
(599.373 -1649.36 333.202 2622.06 187.429 1018)
(903.964 -1622.94 170.759 2893.98 97.3613 2281.45)
(208.99 -1904.24 192.233 1788.34 128.016 -1481.16)
(533.849 -1849.84 329.653 2067.61 220.394 -190.668)
(869.984 -1787.43 317.369 2351.66 212.808 1018.35)
(1170.26 -1758.7 162.713 2627.86 110.167 2282.01)
(516.693 -2004.8 181.073 1480.93 142.743 -1481.21)
(832.97 -1947.34 311.1 1768.86 245.471 -190.509)
(1158.99 -1881.48 299.682 2062.9 236.821 1018.63)
(1454.54 -1851.11 153.79 2343.7 122.243 2282.42)
(837.479 -2056.21 169.025 1161.85 156.349 -1480.78)
(1143.92 -1996.81 290.804 1458.52 268.942 -190.305)
(1459.17 -1929.11 280.299 1762.96 259.336 1018.81)
(1749.74 -1897.87 144.056 2048.55 133.543 2282.63)
(1161.85 -2056.21 156.349 837.479 169.025 -1480.78)
(1458.52 -1996.81 268.941 1143.92 290.804 -190.306)
(1762.96 -1929.11 259.336 1459.17 280.299 1018.81)
(2048.55 -1897.87 133.542 1749.74 144.056 2282.63)
(1480.93 -2004.8 142.742 516.691 181.073 -1481.21)
(1768.86 -1947.34 245.471 832.97 311.1 -190.51)
(2062.9 -1881.48 236.821 1158.99 299.682 1018.63)
(2343.7 -1851.11 122.243 1454.54 153.79 2282.42)
(1788.34 -1904.24 128.016 208.988 192.233 -1481.16)
(2067.6 -1849.84 220.394 533.848 329.654 -190.669)
(2351.66 -1787.43 212.808 869.983 317.369 1018.35)
(2627.86 -1758.7 110.167 1170.26 162.713 2282.01)
(2076.17 -1756.93 112.373 -79.0489 202.153 -1481.05)
(2347.33 -1706.83 193.883 253.883 346.228 -190.812)
(2622.06 -1649.36 187.429 599.372 333.203 1018)
(2893.98 -1622.94 97.3611 903.964 170.759 2281.45)
(2337.33 -1566.49 96.015 -340.45 210.723 -1480.95)
(2601.17 -1521.89 166.139 -0.18149 360.676 -190.981)
(2867.46 -1470.72 160.838 353.765 347.057 1017.6)
(3135.54 -1447.23 83.8757 662.223 177.863 2280.81)
(2565.42 -1337.61 79.0949 -568.871 217.893 -1480.93)
(2822.9 -1299.57 137.334 -222.186 372.895 -191.213)
(3081.86 -1255.91 133.169 139.141 358.826 1017.15)
(3346.63 -1235.89 69.744 450.966 183.965 2280.12)
(2754.9 -1075.91 61.7055 -758.725 223.645 -1481.08)
(3007.14 -1045.31 107.591 -406.718 382.806 -191.588)
(3260.02 -1010.2 104.514 -39.2731 368.409 1016.58)
(3522.03 -994.098 54.9699 275.366 188.992 2279.36)
(2901.12 -787.833 43.8801 -905.424 227.993 -1481.62)
(3149.47 -765.354 76.9588 -549.094 390.355 -192.239)
(3397.52 -739.614 74.9039 -177.15 375.693 1015.68)
(3657.34 -727.693 39.5358 139.859 192.832 2278.39)
(3003.33 -479.414 25.6304 -1002.58 230.938 -1481.3)
(3246.12 -467.099 45.4628 -645.324 395.496 -193.588)
(3491.13 -451.389 44.3375 -270.506 380.632 1014.16)
(3747.45 -442.346 23.4957 46.8857 195.284 2276.01)
(3043.09 -170.23 -28.5765 -1055.33 231.823 -1503.19)
(3293.49 -168.036 -19.434 -695.822 399.883 -211.305)
(3542.29 -163.339 -19.8339 -317.341 387.647 997.867)
(3809.08 -160.355 -29.0153 6.03848 203.598 2261.74)
(-966.929 -184.298 27.6948 3496.4 -15.1557 -1833.6)
(-639.401 -185.341 51.3532 3778.32 -13.7796 -323.675)
(-301.863 -184.234 48.599 4057.24 -13.7774 1116.05)
(-6.60153 -183.753 21.1668 4350.57 -14.8912 2590.81)
(-911.121 -522.301 26.7499 3450.91 1.54122 -1809.5)
(-585.693 -517.591 49.733 3724.81 4.87804 -303.236)
(-251.288 -510.088 46.5672 3998.55 5.12385 1134.92)
(38.7841 -506.823 19.0983 4278.93 2.64009 2606.67)
(-805.162 -858.185 26.407 3340.25 3.26709 -1809.35)
(-479.443 -848.147 48.8728 3617.5 8.74168 -301.821)
(-146.229 -835.855 45.715 3892.37 9.03814 1136.36)
(145.201 -833.856 18.6636 4175.42 4.64077 2609.22)
(-645.297 -1172 25.8655 3181.36 5.11754 -1808.36)
(-321.611 -1158.29 47.6531 3459.78 12.5131 -300.932)
(9.61783 -1141.58 44.4905 3736.73 12.7492 1137.35)
(300.469 -1139.08 17.9883 4020.01 6.44517 2610.16)
(-438.379 -1457.15 25.0968 2975.34 7.04993 -1807.9)
(-117.057 -1439.95 46.0926 3255.74 16.1527 -300.413)
(211.275 -1419.13 42.9436 3535.29 16.2195 1137.9)
(501.666 -1415.99 17.1739 3818.74 7.9882 2610.75)
(-189.447 -1706.58 24.0692 2727.23 9.04611 -1807.75)
(128.971 -1686.21 44.2118 3010.21 19.6605 -300.147)
(453.786 -1661.71 41.1393 3292.99 19.4601 1138.23)
(743.668 -1657.95 16.2986 3576.67 9.28086 2611.17)
(95.3979 -1914.14 22.7648 2443.01 11.0663 -1807.79)
(410.461 -1891.06 42.0402 2729.14 23.0225 -300.022)
(731.237 -1863.4 39.1329 3015.75 22.4801 1138.46)
(1020.54 -1859.09 15.4193 3299.8 10.3529 2611.54)
(409.229 -2074.7 21.1924 2129.62 13.0304 -1807.92)
(720.586 -2049.46 39.6221 2419.36 26.2024 -299.963)
(1036.87 -2019.28 36.9797 2710.32 25.2787 1138.65)
(1325.51 -2014.46 14.5826 2994.9 11.2346 2611.86)
(744.436 -2184.31 19.4131 1794.78 14.8167 -1808.05)
(1051.87 -2157.45 37.0343 2088.49 29.1505 -299.896)
(1363.25 -2125.45 34.7427 2384.17 27.8536 1138.79)
(1651.06 -2120.23 13.8265 2669.41 11.9597 2612.11)
(1093.73 -2240.28 17.716 1447.05 16.2984 -1807.73)
(1396.23 -2212.24 34.4209 1744.69 31.8459 -299.763)
(1702.25 -2179.23 32.4902 2045.38 30.2271 1138.9)
(1989.12 -2173.77 13.1694 2331.36 12.577 2612.25)
(1447.04 -2240.28 16.2981 1093.73 17.7164 -1807.73)
(1744.69 -2212.24 31.8456 1396.23 34.4212 -299.764)
(2045.38 -2179.23 30.2268 1702.25 32.4905 1138.9)
(2331.36 -2173.77 12.5767 1989.12 13.1696 2612.25)
(1794.78 -2184.31 14.8164 744.434 19.4135 -1808.05)
(2088.48 -2157.45 29.1502 1051.87 37.0347 -299.897)
(2384.17 -2125.45 27.8533 1363.25 34.743 1138.79)
(2669.41 -2120.23 11.9594 1651.06 13.8268 2612.11)
(2129.62 -2074.71 13.0301 409.226 21.1928 -1807.92)
(2419.36 -2049.46 26.2022 720.584 39.6225 -299.964)
(2710.31 -2019.28 25.2784 1036.87 36.9801 1138.65)
(2994.9 -2014.46 11.2344 1325.51 14.583 2611.86)
(2443 -1914.14 11.0661 95.3931 22.7654 -1807.79)
(2729.14 -1891.06 23.0223 410.459 42.0406 -300.024)
(3015.75 -1863.4 22.4799 731.236 39.1333 1138.46)
(3299.8 -1859.09 10.3527 1020.54 15.4197 2611.54)
(2727.22 -1706.58 9.04594 -189.454 24.0697 -1807.75)
(3010.21 -1686.22 19.6603 128.967 44.2123 -300.149)
(3292.99 -1661.71 19.4599 453.785 41.1397 1138.23)
(3576.67 -1657.95 9.28067 743.668 16.299 2611.17)
(2975.33 -1457.15 7.04981 -438.387 25.0974 -1807.91)
(3255.74 -1439.95 16.1525 -117.061 46.0931 -300.415)
(3535.29 -1419.13 16.2193 211.273 42.944 1137.9)
(3818.74 -1415.99 7.98803 501.665 17.1743 2610.75)
(3181.35 -1172.01 5.11746 -645.307 25.8661 -1808.37)
(3459.78 -1158.29 12.513 -321.616 47.6536 -300.935)
(3736.73 -1141.58 12.7491 9.61527 44.491 1137.35)
(4020.01 -1139.08 6.44503 300.469 17.9887 2610.16)
(3340.24 -858.187 3.26704 -805.173 26.4076 -1809.36)
(3617.49 -848.148 8.7416 -479.449 48.8733 -301.823)
(3892.37 -835.856 9.03804 -146.232 45.7154 1136.36)
(4175.42 -833.856 4.64065 145.201 18.664 2609.22)
(3450.9 -522.302 1.54119 -911.132 26.7505 -1809.5)
(3724.81 -517.591 4.878 -585.7 49.7335 -303.239)
(3998.55 -510.088 5.12379 -251.291 46.5676 1134.92)
(4278.93 -506.823 2.64001 38.7833 19.0988 2606.67)
(3496.39 -184.298 -15.1557 -966.941 27.6955 -1833.61)
(3778.32 -185.341 -13.7796 -639.408 51.3538 -323.678)
(4057.24 -184.234 -13.7775 -301.867 48.5995 1116.05)
(4350.57 -183.753 -14.8912 -6.60244 21.1672 2590.81)
(-864.099 -185.899 -137.724 3639.41 0.756405 -1669.43)
(-571.041 -186.544 -222.158 3877.01 -3.78567 -268.401)
(-276.021 -185.394 -216.206 4112.58 -3.46337 1072.92)
(-13.8569 -184.366 -124.495 4362.49 1.46871 2438.16)
(-807.496 -527.264 -138.181 3594.07 -17.5563 -1646.58)
(-517.143 -521.584 -221.053 3823.43 -26.6622 -249.306)
(-225.303 -513.935 -213.883 4053.73 -25.2957 1090.22)
(32.0575 -509.255 -121.314 4290.89 -13.9241 2452.1)
(-700.315 -866.301 -136.445 3482.79 -29.1881 -1646.29)
(-410.025 -854.575 -218.553 3715.32 -44.4731 -248.12)
(-119.466 -842.015 -211.544 3946.51 -42.2288 1091.19)
(139.003 -837.671 -120.138 4186.44 -23.1974 2453.99)
(-538.763 -1183.09 -133.925 3322.76 -40.308 -1644.97)
(-250.867 -1166.92 -214.817 3556.44 -61.8152 -247.264)
(37.5871 -1149.81 -208.042 3789.47 -58.8033 1091.84)
(294.966 -1144.1 -118.277 4029.82 -32.3592 2454.29)
(-329.68 -1470.95 -130.687 3115.2 -50.9419 -1644.12)
(-44.6535 -1450.53 -209.856 3350.96 -78.6908 -246.716)
(240.743 -1429.13 -203.336 3586.37 -75.0379 1092.07)
(497 -1421.99 -115.73 3827.18 -41.4258 2454.21)
(-78.1733 -1722.77 -126.78 2865.18 -61.0881 -1643.56)
(203.291 -1698.44 -203.682 3103.76 -95.0605 -246.42)
(484.965 -1673.17 -197.409 3342.21 -90.8915 1092.08)
(739.936 -1664.7 -112.462 3583.66 -50.3896 2453.96)
(209.582 -1932.34 -122.247 2578.69 -70.7423 -1643.26)
(486.884 -1904.61 -196.299 2820.83 -110.862 -246.281)
(764.274 -1875.99 -190.241 3062.98 -106.291 1092)
(1017.8 -1866.35 -108.428 3305.33 -59.2133 2453.69)
(526.565 -2094.47 -117.108 2262.71 -79.9179 -1643.12)
(799.222 -2063.99 -187.7 2509.05 -126.028 -246.224)
(1071.86 -2032.68 -181.804 2755.5 -121.142 1091.91)
(1323.78 -2022.06 -103.583 2999.02 -67.8341 2453.48)
(865.048 -2205.13 -111.337 1924.98 -88.6582 -1643.09)
(1132.75 -2172.62 -177.844 2176.06 -140.481 -246.176)
(1400.21 -2139.38 -172.066 2427.29 -135.329 1091.86)
(1650.37 -2128.03 -97.8917 2672.2 -76.1595 2453.35)
(1217.54 -2261.6 -104.69 1574.07 -97.0103 -1642.74)
(1479.35 -2227.73 -166.642 1830.06 -154.103 -246.07)
(1741.24 -2193.41 -161.004 2086.43 -148.69 1091.86)
(1989.53 -2181.65 -91.3564 2332.93 -84.0577 2453.28)
(1574.07 -2261.61 -97.0105 1217.54 -104.69 -1642.74)
(1830.06 -2227.73 -154.104 1479.35 -166.641 -246.071)
(2086.43 -2193.41 -148.69 1741.24 -161.004 1091.86)
(2332.93 -2181.65 -84.0579 1989.53 -91.3562 2453.28)
(1924.97 -2205.14 -88.6584 865.047 -111.337 -1643.09)
(2176.06 -2172.62 -140.481 1132.75 -177.843 -246.176)
(2427.29 -2139.38 -135.329 1400.21 -172.066 1091.86)
(2672.2 -2128.03 -76.1597 1650.38 -97.8914 2453.35)
(2262.71 -2094.47 -79.918 526.562 -117.108 -1643.12)
(2509.05 -2063.99 -126.028 799.22 -187.699 -246.225)
(2755.5 -2032.68 -121.143 1071.86 -181.804 1091.91)
(2999.02 -2022.06 -67.8343 1323.78 -103.582 2453.48)
(2578.68 -1932.35 -70.7424 209.577 -122.247 -1643.26)
(2820.82 -1904.61 -110.863 486.881 -196.299 -246.282)
(3062.98 -1875.99 -106.291 764.273 -190.241 1092)
(3305.33 -1866.35 -59.2135 1017.8 -108.428 2453.69)
(2865.17 -1722.77 -61.0882 -78.1804 -126.78 -1643.57)
(3103.75 -1698.44 -95.0606 203.287 -203.681 -246.422)
(3342.21 -1673.17 -90.8917 484.963 -197.409 1092.08)
(3583.66 -1664.7 -50.3898 739.936 -112.462 2453.96)
(3115.2 -1470.95 -50.942 -329.689 -130.686 -1644.12)
(3350.96 -1450.53 -78.6909 -44.6584 -209.856 -246.719)
(3586.36 -1429.14 -75.038 240.74 -203.335 1092.07)
(3827.18 -1421.99 -41.426 497 -115.73 2454.21)
(3322.76 -1183.09 -40.3081 -538.773 -133.924 -1644.98)
(3556.44 -1166.93 -61.8153 -250.873 -214.817 -247.266)
(3789.47 -1149.81 -58.8034 37.5843 -208.042 1091.83)
(4029.82 -1144.1 -32.3593 294.965 -118.277 2454.29)
(3482.78 -866.302 -29.1881 -700.326 -136.444 -1646.29)
(3715.32 -854.576 -44.4732 -410.032 -218.552 -248.123)
(3946.51 -842.016 -42.2289 -119.47 -211.544 1091.19)
(4186.44 -837.671 -23.1976 139.003 -120.138 2453.99)
(3594.06 -527.265 -17.5563 -807.509 -138.181 -1646.58)
(3823.43 -521.585 -26.6622 -517.15 -221.052 -249.31)
(4053.72 -513.935 -25.2958 -225.306 -213.883 1090.22)
(4290.89 -509.255 -13.9241 32.0565 -121.313 2452.1)
(3639.41 -185.899 0.756395 -864.113 -137.724 -1669.44)
(3877 -186.544 -3.78569 -571.048 -222.158 -268.405)
(4112.58 -185.394 -3.46339 -276.024 -216.205 1072.92)
(4362.49 -184.366 1.46868 -13.8579 -124.495 2438.16)
(-723.745 -174.507 -264.885 3490.01 14.554 -1106.92)
(-478.664 -172.279 -424.468 3621.42 5.77368 -81.167)
(-240.75 -168.838 -412.088 3755.3 6.25399 903.528)
(-26.7182 -165.262 -237.254 3903.99 15.3147 1900.58)
(-669.327 -493.616 -264.706 3449.79 -31.8213 -1088.43)
(-428.125 -481.305 -421.073 3573.11 -49.7777 -66.6497)
(-193.734 -468.467 -406.346 3702.51 -47.755 916.053)
(15.8228 -457.706 -230.052 3840.7 -26.8888 1909.7)
(-568.713 -811.055 -261.396 3345.84 -53.4806 -1088.18)
(-329.024 -788.377 -416.033 3473.48 -83.452 -65.8707)
(-97.0855 -767.244 -401.561 3604.61 -80.02 916.298)
(112.04 -752.516 -227.547 3746.23 -44.8998 1910.43)
(-417.194 -1107.65 -256.533 3196.39 -74.4225 -1086.64)
(-182.011 -1076.37 -408.561 3326.95 -116.297 -65.2189)
(46.0988 -1047.47 -394.461 3461.24 -111.536 916.34)
(252.122 -1027.54 -223.63 3604.92 -62.5665 1909.72)
(-221.106 -1377.15 -250.214 3002.51 -94.6464 -1085.31)
(8.42039 -1337.78 -398.701 3137.46 -148.266 -64.7227)
(231.243 -1301.65 -385.027 3275.91 -142.288 916.055)
(433.496 -1276.8 -218.391 3422.27 -79.8444 1908.62)
(14.7623 -1612.91 -242.5 2768.94 -114.122 -1084.15)
(237.318 -1566.21 -386.5 2909.59 -179.283 -64.3908)
(453.717 -1523.58 -373.297 3053.28 -172.201 915.598)
(651.491 -1494.35 -211.845 3202.99 -96.7162 1907.36)
(284.595 -1809.1 -233.448 2501.31 -132.798 -1083.2)
(499.02 -1756.07 -371.997 2648.89 -209.225 -64.1754)
(708.026 -1707.9 -359.288 2798.85 -201.158 915.095)
(900.713 -1674.94 -203.969 2952.6 -113.141 1906.13)
(581.765 -1960.86 -223.1 2206.1 -150.621 -1082.46)
(787.1 -1902.75 -355.21 2361.74 -237.945 -64.0332)
(987.926 -1850.18 -342.995 2518.91 -228.999 914.643)
(1175.04 -1814.27 -194.723 2677.31 -129.041 1905.07)
(898.947 -2064.41 -211.455 1890.5 -167.554 -1081.95)
(1094.53 -2002.66 -336.125 2055.16 -265.269 -63.9169)
(1286.57 -1946.98 -324.406 2220.31 -255.525 914.317)
(1467.75 -1909 -184.074 2383.88 -144.288 1904.3)
(1228.93 -2117.21 -198.314 1562.42 -183.559 -1081.4)
(1413.77 -2053.31 -314.691 1736.65 -290.967 -63.7867)
(1596.6 -1995.97 -303.527 1910.38 -280.474 914.161)
(1771.7 -1956.9 -172.03 2079.54 -158.697 1903.89)
(1562.42 -2117.21 -183.559 1228.93 -198.314 -1081.4)
(1736.65 -2053.31 -290.967 1413.77 -314.691 -63.787)
(1910.38 -1995.97 -280.475 1596.6 -303.527 914.161)
(2079.54 -1956.9 -158.697 1771.7 -172.03 1903.89)
(1890.5 -2064.41 -167.554 898.946 -211.454 -1081.95)
(2055.16 -2002.66 -265.269 1094.53 -336.125 -63.9178)
(2220.31 -1946.98 -255.525 1286.57 -324.406 914.316)
(2383.88 -1909 -144.288 1467.75 -184.074 1904.3)
(2206.09 -1960.86 -150.621 581.762 -223.1 -1082.46)
(2361.74 -1902.75 -237.945 787.098 -355.21 -64.0346)
(2518.91 -1850.18 -228.999 987.925 -342.995 914.642)
(2677.31 -1814.27 -129.041 1175.04 -194.723 1905.07)
(2501.3 -1809.1 -132.798 284.589 -233.448 -1083.2)
(2648.89 -1756.07 -209.225 499.017 -371.997 -64.1773)
(2798.85 -1707.9 -201.158 708.025 -359.288 915.094)
(2952.6 -1674.94 -113.141 900.713 -203.969 1906.13)
(2768.94 -1612.91 -114.122 14.755 -242.5 -1084.15)
(2909.58 -1566.21 -179.283 237.314 -386.5 -64.3932)
(3053.27 -1523.58 -172.201 453.715 -373.297 915.597)
(3202.99 -1494.35 -96.7164 651.491 -211.845 1907.36)
(3002.5 -1377.16 -94.6465 -221.115 -250.214 -1085.31)
(3137.46 -1337.79 -148.267 8.41525 -398.7 -64.7255)
(3275.91 -1301.65 -142.288 231.24 -385.026 916.053)
(3422.27 -1276.8 -79.8445 433.496 -218.391 1908.62)
(3196.39 -1107.65 -74.4225 -417.205 -256.533 -1086.64)
(3326.95 -1076.38 -116.297 -182.017 -408.561 -65.2221)
(3461.24 -1047.47 -111.536 46.0958 -394.46 916.339)
(3604.92 -1027.54 -62.5666 252.121 -223.63 1909.72)
(3345.83 -811.057 -53.4807 -568.726 -261.396 -1088.19)
(3473.48 -788.378 -83.452 -329.031 -416.032 -65.8741)
(3604.61 -767.244 -80.02 -97.0889 -401.56 916.296)
(3746.23 -752.517 -44.8999 112.039 -227.547 1910.43)
(3449.79 -493.617 -31.8214 -669.34 -264.706 -1088.43)
(3573.1 -481.306 -49.7777 -428.133 -421.072 -66.6534)
(3702.51 -468.467 -47.755 -193.738 -406.346 916.051)
(3840.7 -457.707 -26.8888 15.8218 -230.051 1909.7)
(3490 -174.507 14.554 -723.759 -264.885 -1106.93)
(3621.41 -172.28 5.77368 -478.672 -424.468 -81.1707)
(3755.3 -168.838 6.25398 -240.754 -412.088 903.526)
(3903.99 -165.262 15.3147 -26.7193 -237.254 1900.58)
(-542.983 -152.883 -319.681 3125.79 24.1123 -286.681)
(-362.994 -146.477 -509.334 3109.87 13.4911 189.403)