/*--------------------------------*- C++ -*----------------------------------*\
| =========                 |                                                 |
| \\      /  F ield         | foam-extend: Open Source CFD                    |
|  \\    /   O peration     | Version:     3.1                                |
|   \\  /    A nd           | Web:         http://www.extend-project.de       |
|    \\/     M anipulation  |                                                 |
\*---------------------------------------------------------------------------*/
FoamFile
{
    version     2.0;
    format      ascii;
    class       volVectorField;
    location    "0.001";
    object      U;
}
// * * * * * * * * * * * * * * * * * * * * * * * * * * * * * * * * * * * * * //

dimensions      [0 1 -1 0 0 0 0];

internalField   nonuniform List<vector> 
6400
(
(0.00115987 3.00992e-05 0.00251276)
(0.000602482 1.08706e-05 0.000905611)
(0.000526525 7.29957e-06 -0.00047267)
(0.000897736 1.86637e-05 -0.002007)
(0.00114538 0.000127163 0.00251801)
(0.000595003 6.31684e-05 0.000911958)
(0.000522584 5.42752e-05 -0.000466134)
(0.000895675 9.70026e-05 -0.00200108)
(0.00113072 0.000220909 0.00251811)
(0.00058753 0.00011266 0.000912511)
(0.000516412 9.77993e-05 -0.000465729)
(0.000885321 0.000170003 -0.00200138)
(0.00110999 0.000311657 0.00251816)
(0.000577224 0.000160656 0.000912274)
(0.000507667 0.000140044 -0.000466273)
(0.000869975 0.00024102 -0.00200251)
(0.00108228 0.000399211 0.00251849)
(0.000563094 0.000206902 0.000912148)
(0.000495468 0.000180966 -0.000466781)
(0.000848862 0.000310282 -0.00200357)
(0.00104741 0.000483249 0.00251894)
(0.000544855 0.000251057 0.000912209)
(0.000479462 0.00022016 -0.000467076)
(0.000821637 0.000377182 -0.0020043)
(0.00100565 0.000563542 0.00251936)
(0.000522725 0.000292923 0.000912393)
(0.000459877 0.000257299 -0.000467162)
(0.000788627 0.000441069 -0.00200462)
(0.000957498 0.000639937 0.00251968)
(0.000497174 0.000332456 0.000912627)
(0.000437227 0.000292253 -0.0004671)
(0.000750493 0.000501529 -0.00200464)
(0.000903555 0.000712306 0.00251991)
(0.000468724 0.000369715 0.000912848)
(0.000412071 0.00032506 -0.000466975)
(0.000707945 0.000558403 -0.0020045)
(0.000844399 0.000780516 0.00252005)
(0.000437833 0.000404808 0.000912996)
(0.000384867 0.000355875 -0.000466875)
(0.000661571 0.00061172 -0.00200437)
(0.000780521 0.000844401 0.00252005)
(0.000404808 0.000437837 0.000912994)
(0.000355868 0.000384876 -0.000466877)
(0.000611707 0.000661585 -0.00200437)
(0.000712317 0.000903565 0.0025199)
(0.000369718 0.000468734 0.000912841)
(0.000325056 0.000412083 -0.000466978)
(0.000558391 0.000707961 -0.0020045)
(0.000639952 0.000957517 0.00251967)
(0.000332462 0.000497189 0.000912616)
(0.00029225 0.000437242 -0.000467106)
(0.000501519 0.000750509 -0.00200464)
(0.00056356 0.00100568 0.00251934)
(0.000292931 0.000522745 0.000912379)
(0.000257298 0.000459895 -0.000467169)
(0.00044106 0.000788645 -0.00200462)
(0.000483267 0.00104745 0.00251892)
(0.000251066 0.000544881 0.000912192)
(0.000220159 0.000479483 -0.000467085)
(0.000377174 0.000821656 -0.0020043)
(0.000399228 0.00108232 0.00251847)
(0.000206911 0.000563125 0.000912128)
(0.000180967 0.000495491 -0.000466792)
(0.000310276 0.000848882 -0.00200357)
(0.000311672 0.00111004 0.00251814)
(0.000160663 0.000577259 0.000912252)
(0.000140045 0.000507693 -0.000466286)
(0.000241016 0.000869996 -0.00200251)
(0.000220921 0.00113078 0.00251808)
(0.000112666 0.000587571 0.000912487)
(9.78008e-05 0.000516442 -0.000465743)
(0.000170001 0.000885345 -0.00200138)
(0.000127171 0.00114545 0.00251798)
(6.31725e-05 0.000595048 0.000911932)
(5.42766e-05 0.000522617 -0.000466149)
(9.70021e-05 0.000895702 -0.00200108)
(3.01019e-05 0.00115994 0.00251272)
(1.08722e-05 0.000602529 0.000905585)
(7.3003e-06 0.000526561 -0.000472685)
(1.86639e-05 0.000897765 -0.00200701)
(0.0105617 0.000400532 0.0072106)
(0.00980763 0.000374427 0.00272215)
(0.00954672 0.000363987 -0.00154409)
(0.00974894 0.000369533 -0.00590112)
(0.010487 0.00123252 0.00720854)
(0.00974187 0.00114539 0.00272001)
(0.0094875 0.00111455 -0.00154658)
(0.00969335 0.00113686 -0.00590383)
(0.0103583 0.0020578 0.00720763)
(0.00962331 0.00191014 0.00271859)
(0.00937313 0.00185848 -0.00154862)
(0.0095775 0.00189652 -0.00590669)
(0.0101685 0.0028693 0.0072081)
(0.00944795 0.00266363 0.00271787)
(0.009203 0.00259194 -0.00155039)
(0.00940407 0.00264561 -0.00590972)
(0.00991581 0.00366151 0.00720955)
(0.00921384 0.00340014 0.0027179)
(0.00897541 0.00330958 -0.00155161)
(0.00917168 0.00337918 -0.00591237)
(0.00960029 0.00442932 0.00721149)
(0.00892088 0.00411439 0.00271851)
(0.0086902 0.00400598 -0.00155222)
(0.00888023 0.00409153 -0.0059143)
(0.00922371 0.00516821 0.00721349)
(0.00857083 0.00480175 0.00271944)
(0.00834915 0.0046763 -0.00155232)
(0.00853162 0.00477734 -0.00591543)
(0.00878901 0.00587419 0.00721524)
(0.00816663 0.00545823 0.00272045)
(0.00795525 0.00531639 -0.00155208)
(0.00812902 0.00543211 -0.00591587)
(0.00829975 0.00654361 0.00721657)
(0.00771181 0.00608041 0.00272132)
(0.00751208 0.00592281 -0.0015517)
(0.00767617 0.00605219 -0.00591589)
(0.00775979 0.00717316 0.00721736)
(0.00721011 0.00666528 0.00272187)
(0.00702337 0.00649266 -0.00155141)
(0.00717686 0.00663462 -0.00591578)
(0.00717316 0.0077598 0.00721735)
(0.00666527 0.00721013 0.00272186)
(0.00649264 0.00702339 -0.00155142)
(0.00663459 0.00717689 -0.00591578)
(0.00654362 0.00829978 0.00721655)
(0.00608041 0.00771183 0.00272131)
(0.00592279 0.0075121 -0.00155171)
(0.00605215 0.00767619 -0.00591589)
(0.00587421 0.00878906 0.00721521)
(0.00545823 0.00816666 0.00272042)
(0.00531637 0.00795527 -0.00155209)
(0.00543207 0.00812904 -0.00591587)
(0.00516824 0.00922378 0.00721345)
(0.00480175 0.00857086 0.00271941)
(0.00467628 0.00834916 -0.00155233)
(0.0047773 0.00853163 -0.00591542)
(0.00442935 0.00960037 0.00721144)
(0.00411439 0.00892092 0.00271848)
(0.00400596 0.00869021 -0.00155223)
(0.00409149 0.00888024 -0.00591429)
(0.00366154 0.00991591 0.00720949)
(0.00340014 0.00921388 0.00271786)
(0.00330956 0.00897542 -0.00155162)
(0.00337915 0.00917168 -0.00591236)
(0.00286933 0.0101686 0.00720803)
(0.00266364 0.00944799 0.00271782)
(0.00259192 0.00920301 -0.00155041)
(0.00264558 0.00940407 -0.00590971)
(0.00205782 0.0103584 0.00720756)
(0.00191015 0.00962337 0.00271855)
(0.00185847 0.00937315 -0.00154864)
(0.0018965 0.0095775 -0.00590668)
(0.00123253 0.0104871 0.00720846)
(0.00114539 0.00974193 0.00271996)
(0.00111455 0.00948752 -0.0015466)
(0.00113685 0.00969335 -0.00590382)
(0.000400536 0.0105618 0.00721052)
(0.000374428 0.00980769 0.0027221)
(0.000363985 0.00954675 -0.00154412)
(0.00036953 0.00974895 -0.00590111)
(0.0263825 0.00102393 0.010591)
(0.0254617 0.00099213 0.00385841)
(0.0249436 0.000971895 -0.00263925)
(0.0248017 0.000964885 -0.00919845)
(0.026213 0.00309807 0.0105846)
(0.0253008 0.00299053 0.00385102)
(0.0247894 0.00292869 -0.00264732)
(0.0246519 0.00290982 -0.00920626)
(0.0258944 0.00515478 0.0105818)
(0.0249943 0.00497241 0.00384685)
(0.0244901 0.00486867 -0.00265239)
(0.0243552 0.00483748 -0.00921202)
(0.02542 0.00717886 0.010582)
(0.0245377 0.00692508 0.00384523)
(0.0240436 0.00678095 -0.00265548)
(0.0239117 0.0067383 -0.00921675)
(0.0247887 0.00915707 0.0105843)
(0.0239293 0.00883501 0.0038454)
(0.0234481 0.00865253 -0.00265713)
(0.0233198 0.00859984 -0.00922042)
(0.0240019 0.0110767 0.0105877)
(0.0231703 0.0106893 0.00384667)
(0.0227046 0.0104703 -0.00265775)
(0.0225804 0.0104087 -0.00922307)
(0.023064 0.012926 0.0105913)
(0.0222648 0.0124758 0.00384848)
(0.0218173 0.0122221 -0.00265766)
(0.0216977 0.0121522 -0.00922478)
(0.0219812 0.014694 0.0105947)
(0.0212193 0.0141836 0.00385036)
(0.0207926 0.0138967 -0.00265717)
(0.0206783 0.0138187 -0.00922568)
(0.0207614 0.0163706 0.0105974)
(0.0200414 0.0158028 0.00385196)
(0.0196382 0.015484 -0.00265655)
(0.01953 0.0153981 -0.00922601)
(0.0194132 0.0179465 0.0105989)
(0.01874 0.0173243 0.00385293)
(0.0183628 0.0169754 -0.00265611)
(0.0182615 0.0168816 -0.00922604)
(0.0179465 0.0194133 0.0105989)
(0.0173243 0.01874 0.00385293)
(0.0169753 0.0183628 -0.00265612)
(0.0168816 0.0182616 -0.00922604)
(0.0163706 0.0207614 0.0105973)
(0.0158028 0.0200415 0.00385195)
(0.015484 0.0196382 -0.00265656)
(0.015398 0.01953 -0.00922601)
(0.014694 0.0219813 0.0105947)
(0.0141836 0.0212193 0.00385034)
(0.0138966 0.0207926 -0.00265718)
(0.0138186 0.0206783 -0.00922568)
(0.012926 0.0230641 0.0105913)
(0.0124758 0.0222649 0.00384845)
(0.0122221 0.0218174 -0.00265767)
(0.0121521 0.0216977 -0.00922477)
(0.0110767 0.0240021 0.0105876)
(0.0106892 0.0231703 0.00384664)
(0.0104703 0.0227046 -0.00265776)
(0.0104086 0.0225804 -0.00922306)
(0.00915711 0.0247888 0.0105842)
(0.00883501 0.0239293 0.00384536)
(0.0086525 0.0234481 -0.00265715)
(0.00859978 0.0233198 -0.00922041)
(0.0071789 0.0254201 0.0105819)
(0.00692508 0.0245377 0.00384519)
(0.00678092 0.0240436 -0.0026555)
(0.00673826 0.0239117 -0.00921674)
(0.00515481 0.0258946 0.0105817)
(0.00497241 0.0249943 0.0038468)
(0.00486865 0.0244901 -0.00265241)
(0.00483744 0.0243552 -0.00921201)
(0.00309809 0.0262132 0.0105845)
(0.00299053 0.0253009 0.00385097)
(0.00292868 0.0247894 -0.00264734)
(0.00290981 0.0246519 -0.00920625)
(0.00102394 0.0263827 0.0105909)
(0.000992131 0.0254618 0.00385836)
(0.000971892 0.0249436 -0.00263928)
(0.00096488 0.0248016 -0.00919844)
(0.047301 0.00184871 0.0123183)
(0.0461652 0.00180855 0.00405837)
(0.0453257 0.00177616 -0.00391315)
(0.0447563 0.00175477 -0.0119638)
(0.0470061 0.00556525 0.0123081)
(0.0458788 0.00543106 0.00404715)
(0.045046 0.00533082 -0.00392504)
(0.0444821 0.00526181 -0.0119752)
(0.0464356 0.0092499 0.0123032)
(0.045323 0.00902317 0.00404097)
(0.0445012 0.00885488 -0.00393189)
(0.0439452 0.00873846 -0.0119824)
(0.0455841 0.012877 0.0123029)
(0.0444936 0.0125617 0.00403885)
(0.043688 0.0123275 -0.00393526)
(0.0431429 0.0121659 -0.0119872)
(0.044452 0.0164234 0.0123056)
(0.0433899 0.0160234 0.00403942)
(0.0426052 0.0157263 -0.00393642)
(0.0420741 0.0155219 -0.0119903)
(0.0430427 0.0198665 0.0123102)
(0.0420151 0.0193855 0.00404155)
(0.0412557 0.0190284 -0.00393629)
(0.0407415 0.0187838 -0.0119925)
(0.0413636 0.0231848 0.0123154)
(0.0403763 0.0226264 0.00404435)
(0.0396466 0.022212 -0.0039355)
(0.0391521 0.0219293 -0.0119939)
(0.0394252 0.0263579 0.0123203)
(0.038484 0.0257255 0.00404715)
(0.0377882 0.0252567 -0.00393448)
(0.0373163 0.0249375 -0.0119948)
(0.0372404 0.0293669 0.0123243)
(0.036351 0.0286641 0.00404947)
(0.0356934 0.0281435 -0.00393353)
(0.0352472 0.0277896 -0.0119953)
(0.0348244 0.0321943 0.0123266)
(0.0339925 0.0314249 0.00405085)
(0.0333772 0.0308554 -0.00393293)
(0.0329593 0.0304685 -0.0119955)
(0.0321943 0.0348245 0.0123266)
(0.0314249 0.0339925 0.00405085)
(0.0308554 0.0333772 -0.00393293)
(0.0304685 0.0329594 -0.0119955)
(0.0293669 0.0372405 0.0123242)
(0.0286641 0.0363511 0.00404946)
(0.0281435 0.0356935 -0.00393354)
(0.0277895 0.0352472 -0.0119953)
(0.026358 0.0394253 0.0123203)
(0.0257255 0.038484 0.00404714)
(0.0252567 0.0377883 -0.00393449)
(0.0249374 0.0373164 -0.0119948)
(0.0231848 0.0413638 0.0123154)
(0.0226264 0.0403764 0.00404432)
(0.022212 0.0396467 -0.00393551)
(0.0219292 0.0391521 -0.0119939)
(0.0198666 0.0430429 0.0123102)
(0.0193855 0.0420152 0.00404152)
(0.0190283 0.0412558 -0.0039363)
(0.0187838 0.0407415 -0.0119924)
(0.0164235 0.0444522 0.0123056)
(0.0160234 0.04339 0.00403939)
(0.0157262 0.0426052 -0.00393643)
(0.0155219 0.0420741 -0.0119903)
(0.0128771 0.0455844 0.0123028)
(0.0125617 0.0444937 0.00403881)
(0.0123275 0.043688 -0.00393528)
(0.0121658 0.0431429 -0.0119872)
(0.00924994 0.0464359 0.0123032)
(0.00902317 0.0453231 0.00404093)
(0.00885486 0.0445013 -0.00393191)
(0.00873843 0.0439452 -0.0119824)
(0.00556528 0.0470064 0.0123081)
(0.00543107 0.0458789 0.00404711)
(0.00533081 0.045046 -0.00392506)
(0.00526178 0.0444821 -0.0119752)
(0.00184872 0.0473014 0.0123182)
(0.00180855 0.0461654 0.00405833)
(0.00177616 0.0453257 -0.00391316)
(0.00175476 0.0447563 -0.0119638)
(0.0714794 0.00280241 0.0119495)
(0.0701271 0.0027541 0.00306499)
(0.0689117 0.00270792 -0.00541842)
(0.0678091 0.00266896 -0.0140616)
(0.0710392 0.00841571 0.0119352)
(0.0696945 0.00825542 0.00305026)
(0.0684856 0.00811133 -0.00543329)
(0.0673895 0.0079809 -0.0140753)
(0.070176 0.0139804 0.011928)
(0.0688483 0.0137101 0.00304291)
(0.0676548 0.0134678 -0.0054401)
(0.066573 0.0132468 -0.014081)
(0.0688871 0.0194593 0.0119263)
(0.0675857 0.0190829 0.00304093)
(0.0664151 0.0187451 -0.00544183)
(0.0653539 0.0184368 -0.0140826)
(0.0671753 0.0248179 0.0119285)
(0.065908 0.0243398 0.00304223)
(0.0647675 0.02391 -0.00544076)
(0.063733 0.0235181 -0.0140821)
(0.0650471 0.0300225 0.011933)
(0.0638212 0.0294472 0.00304528)
(0.0627175 0.0289293 -0.00543846)
(0.0617157 0.0284575 -0.0140809)
(0.0625131 0.0350404 0.0119387)
(0.0613356 0.0343722 0.00304898)
(0.060275 0.0337703 -0.00543592)
(0.059312 0.0332224 -0.01408)
(0.0595881 0.03984 0.0119444)
(0.0584657 0.0390836 0.00305253)
(0.0574546 0.0384018 -0.00543371)
(0.0565359 0.0377814 -0.0140795)
(0.0562905 0.0443913 0.0119491)
(0.0552298 0.0435514 0.00305536)
(0.054274 0.0427941 -0.0054321)
(0.0534052 0.0421052 -0.0140794)
(0.0526418 0.0486668 0.011952)
(0.0516491 0.0477482 0.00305702)
(0.0507545 0.0469199 -0.0054312)
(0.049941 0.0461665 -0.0140794)
(0.0486668 0.0526418 0.011952)
(0.0477482 0.0516492 0.00305702)
(0.0469199 0.0507546 -0.00543121)
(0.0461664 0.0499411 -0.0140794)
(0.0443914 0.0562906 0.0119491)
(0.0435514 0.0552298 0.00305536)
(0.0427941 0.0542741 -0.0054321)
(0.042105 0.0534053 -0.0140794)
(0.03984 0.0595883 0.0119444)
(0.0390836 0.0584658 0.00305252)
(0.0384018 0.0574547 -0.00543372)
(0.0377813 0.0565359 -0.0140795)
(0.0350405 0.0625132 0.0119387)
(0.0343722 0.0613356 0.00304897)
(0.0337703 0.0602751 -0.00543593)
(0.0332223 0.059312 -0.01408)
(0.0300226 0.0650473 0.011933)
(0.0294472 0.0638213 0.00304526)
(0.0289292 0.0627175 -0.00543846)
(0.0284574 0.0617158 -0.0140809)
(0.024818 0.0671756 0.0119285)
(0.0243398 0.0659081 0.00304221)
(0.0239099 0.0647676 -0.00544077)
(0.023518 0.063733 -0.0140821)
(0.0194594 0.0688874 0.0119263)
(0.0190829 0.0675858 0.0030409)
(0.018745 0.0664152 -0.00544184)
(0.0184367 0.0653539 -0.0140826)
(0.0139805 0.0701764 0.011928)
(0.0137101 0.0688485 0.00304288)
(0.0134678 0.0676548 -0.00544011)
(0.0132468 0.066573 -0.014081)
(0.00841574 0.0710396 0.0119352)
(0.00825542 0.0696946 0.00305023)
(0.00811132 0.0684857 -0.0054333)
(0.00798087 0.0673895 -0.0140753)
(0.00280242 0.0714799 0.0119495)
(0.0027541 0.0701273 0.00306496)
(0.00270791 0.0689118 -0.00541843)
(0.00266895 0.0678091 -0.0140616)
(0.097249 0.00382057 0.00861137)
(0.0956895 0.00376474 0.000547807)
(0.0940397 0.00370341 -0.00698692)
(0.0922806 0.0036439 -0.0147992)
(0.0966515 0.0114502 0.00859376)
(0.0950979 0.011267 0.000531634)
(0.0934542 0.0110743 -0.00700194)
(0.0917026 0.0108704 -0.0148119)
(0.095471 0.0190132 0.00858411)
(0.0939362 0.0187041 0.000524614)
(0.0923125 0.0183795 -0.00700595)
(0.0905827 0.0180331 -0.0148122)
(0.09371 0.0264604 0.0085796)
(0.0922048 0.0260289 0.000523381)
(0.0906116 0.0255749 -0.00700361)
(0.0889139 0.0250902 -0.014806)
(0.0913757 0.0337466 0.00857854)
(0.0899095 0.0331966 0.000525393)
(0.0883565 0.032617 -0.00699813)
(0.0867012 0.0319983 -0.014797)
(0.0884788 0.0408266 0.00857991)
(0.0870602 0.0401626 0.000528994)
(0.0855568 0.0394621 -0.00699165)
(0.0839537 0.0387141 -0.0147878)
(0.0850341 0.0476559 0.0085829)
(0.0836713 0.0468831 0.000533088)
(0.0822264 0.0460666 -0.00698557)
(0.0806853 0.0451948 -0.01478)
(0.0810604 0.054191 0.00858667)
(0.0797611 0.0533149 0.00053691)
(0.0783833 0.0523881 -0.00698066)
(0.0769134 0.0513985 -0.0147744)
(0.0765805 0.0603897 0.00859029)
(0.075352 0.0594161 0.000539912)
(0.0740494 0.0583851 -0.00697726)
(0.0726595 0.0572843 -0.0147709)
(0.0716205 0.0662117 0.0085928)
(0.0704702 0.0651468 0.000541676)
(0.0692508 0.0640181 -0.0069755)
(0.0679494 0.0628133 -0.0147693)
(0.0662118 0.0716206 0.0085928)
(0.0651467 0.0704702 0.000541675)
(0.0640181 0.0692509 -0.0069755)
(0.0628132 0.0679495 -0.0147693)
(0.0603897 0.0765806 0.00859029)
(0.0594161 0.0753521 0.000539909)
(0.058385 0.0740495 -0.00697726)
(0.0572842 0.0726596 -0.0147709)
(0.0541911 0.0810606 0.00858666)
(0.0533149 0.0797612 0.000536904)
(0.052388 0.0783834 -0.00698066)
(0.0513984 0.0769135 -0.0147744)
(0.047656 0.0850343 0.00858289)
(0.0468831 0.0836714 0.00053308)
(0.0460665 0.0822264 -0.00698557)
(0.0451947 0.0806854 -0.01478)
(0.0408267 0.088479 0.0085799)
(0.0401626 0.0870603 0.000528984)
(0.039462 0.0855568 -0.00699166)
(0.038714 0.0839538 -0.0147878)
(0.0337467 0.091376 0.00857852)
(0.0331966 0.0899096 0.000525382)
(0.032617 0.0883565 -0.00699813)
(0.0319982 0.0867012 -0.014797)
(0.0264605 0.0937104 0.00857958)
(0.0260289 0.092205 0.000523369)
(0.0255749 0.0906116 -0.00700361)
(0.0250901 0.0889139 -0.014806)
(0.0190132 0.0954714 0.00858409)
(0.0187041 0.0939364 0.000524601)
(0.0183795 0.0923126 -0.00700595)
(0.018033 0.0905828 -0.0148122)
(0.0114502 0.0966519 0.00859374)
(0.011267 0.0950981 0.00053162)
(0.0110743 0.0934543 -0.00700194)
(0.0108703 0.0917027 -0.0148119)
(0.00382058 0.0972495 0.00861135)
(0.00376475 0.0956897 0.000547793)
(0.00370341 0.0940398 -0.00698693)
(0.00364389 0.0922806 -0.0147992)
(0.119534 0.00470128 0.00123074)
(0.117795 0.00463948 -0.00375787)
(0.115726 0.00456466 -0.00828312)
(0.113318 0.0044864 -0.0130763)
(0.118795 0.014065 0.00121538)
(0.117059 0.0138653 -0.00376946)
(0.114997 0.0136288 -0.00829178)
(0.112598 0.0133555 -0.0130814)
(0.117328 0.0233452 0.00120487)
(0.115612 0.0230078 -0.00377354)
(0.113574 0.0226086 -0.00828979)
(0.111204 0.0221435 -0.0130723)
(0.115145 0.0324833 0.00119664)
(0.11346 0.0320103 -0.00377336)
(0.111459 0.0314503 -0.00828172)
(0.109132 0.0307977 -0.0130556)
(0.112257 0.041425 0.00118994)
(0.110615 0.040819 -0.00377092)
(0.108664 0.0401016 -0.00827065)
(0.106394 0.0392658 -0.0130351)
(0.108682 0.0501159 0.00118476)
(0.107092 0.0493807 -0.00376743)
(0.105202 0.0485104 -0.00825878)
(0.103005 0.0474966 -0.0130141)
(0.10444 0.0585024 0.00118128)
(0.102912 0.0576429 -0.00376362)
(0.101095 0.0566251 -0.00824767)
(0.0989824 0.0554399 -0.0129952)
(0.0995534 0.0665313 0.00117956)
(0.0980956 0.0655533 -0.00376)
(0.0963632 0.0643946 -0.00823842)
(0.0943487 0.0630459 -0.01298)
(0.0940485 0.0741499 0.00117935)
(0.0926698 0.0730602 -0.00375704)
(0.0910322 0.0717682 -0.00823178)
(0.0891281 0.0702648 -0.0129694)
(0.0879548 0.0813072 0.00118002)
(0.0866637 0.0801129 -0.00375522)
(0.0851313 0.078696 -0.00822826)
(0.0833495 0.0770481 -0.012964)
(0.0813072 0.0879549 0.00118002)
(0.0801129 0.0866637 -0.00375522)
(0.078696 0.0851313 -0.00822826)
(0.077048 0.0833496 -0.012964)
(0.07415 0.0940486 0.00117935)
(0.0730602 0.0926699 -0.00375704)
(0.0717681 0.0910322 -0.00823178)
(0.0702647 0.0891282 -0.0129694)
(0.0665313 0.0995536 0.00117956)
(0.0655533 0.0980957 -0.00376)
(0.0643946 0.0963633 -0.00823842)
(0.0630458 0.0943488 -0.01298)
(0.0585025 0.10444 0.00118128)
(0.0576429 0.102912 -0.00376362)
(0.056625 0.101095 -0.00824767)
(0.0554398 0.0989824 -0.0129952)
(0.050116 0.108683 0.00118475)
(0.0493807 0.107092 -0.00376743)
(0.0485103 0.105202 -0.00825877)
(0.0474965 0.103005 -0.0130141)
(0.0414251 0.112258 0.00118994)
(0.040819 0.110615 -0.00377093)
(0.0401015 0.108664 -0.00827065)
(0.0392657 0.106394 -0.0130351)
(0.0324834 0.115145 0.00119664)
(0.0320103 0.11346 -0.00377336)
(0.0314503 0.111459 -0.00828172)
(0.0307976 0.109132 -0.0130556)
(0.0233453 0.117329 0.00120487)
(0.0230079 0.115612 -0.00377354)
(0.0226086 0.113574 -0.00828979)
(0.0221435 0.111204 -0.0130723)
(0.014065 0.118795 0.00121538)
(0.0138653 0.117059 -0.00376946)
(0.0136288 0.114997 -0.00829178)
(0.0133555 0.112598 -0.0130814)
(0.0047013 0.119535 0.00123074)
(0.00463949 0.117795 -0.00375787)
(0.00456465 0.115726 -0.00828312)
(0.00448639 0.113318 -0.0130763)
(0.129039 0.00507231 -0.00971588)
(0.12721 0.0050092 -0.00947238)
(0.124933 0.00492931 -0.00915031)
(0.122202 0.00484381 -0.00886222)
(0.128228 0.0151603 -0.00972055)
(0.126402 0.0149581 -0.00947202)
(0.124131 0.0147046 -0.00914577)
(0.12141 0.0144022 -0.00885327)
(0.126621 0.0251558 -0.0097277)
(0.124813 0.0248132 -0.00947028)
(0.122568 0.0243843 -0.00913622)
(0.119879 0.0238687 -0.00883511)
(0.124231 0.0349959 -0.00973717)
(0.122455 0.0345131 -0.00946781)
(0.12025 0.0339097 -0.00912322)
(0.117609 0.0331844 -0.00881036)
(0.121079 0.0446225 -0.00974802)
(0.119346 0.0440004 -0.00946494)
(0.117194 0.0432247 -0.00910818)
(0.114618 0.0422931 -0.00878175)
(0.117187 0.0539782 -0.00975902)
(0.115507 0.0532191 -0.00946181)
(0.113423 0.0522745 -0.00909251)
(0.110929 0.0511411 -0.00875205)
(0.112579 0.0630067 -0.00976887)
(0.110964 0.0621142 -0.00945854)
(0.10896 0.0610057 -0.00907755)
(0.106563 0.0596766 -0.00872395)
(0.107283 0.0716521 -0.00977648)
(0.105743 0.0706316 -0.00945529)
(0.103833 0.0693655 -0.00906459)
(0.101549 0.0678488 -0.00869999)
(0.101329 0.0798597 -0.00978111)
(0.0998733 0.0787176 -0.00945241)
(0.0980689 0.0773018 -0.00905488)
(0.0959121 0.0756072 -0.00868241)
(0.0947476 0.0875754 -0.00978276)
(0.0933863 0.0863194 -0.00945052)
(0.0917 0.084763 -0.00904959)
(0.0896842 0.0829016 -0.00867305)
(0.0875754 0.0947477 -0.00978275)
(0.0863194 0.0933864 -0.00945052)
(0.084763 0.0917001 -0.00904959)
(0.0829015 0.0896843 -0.00867305)
(0.0798597 0.101329 -0.0097811)
(0.0787176 0.0998734 -0.00945241)
(0.0773017 0.098069 -0.00905488)
(0.075607 0.0959122 -0.00868241)
(0.0716522 0.107284 -0.00977647)
(0.0706316 0.105743 -0.00945529)
(0.0693654 0.103833 -0.00906459)
(0.0678487 0.101549 -0.00869999)
(0.0630068 0.112579 -0.00976887)
(0.0621142 0.110964 -0.00945854)
(0.0610056 0.10896 -0.00907755)
(0.0596765 0.106564 -0.00872395)
(0.0539783 0.117187 -0.00975901)
(0.0532191 0.115507 -0.00946181)
(0.0522744 0.113423 -0.00909251)
(0.051141 0.110929 -0.00875204)
(0.0446226 0.12108 -0.00974801)
(0.0440004 0.119346 -0.00946494)
(0.0432246 0.117194 -0.00910818)
(0.042293 0.114618 -0.00878175)
(0.034996 0.124232 -0.00973715)
(0.0345131 0.122455 -0.00946781)
(0.0339096 0.12025 -0.00912322)
(0.0331843 0.117609 -0.00881036)
(0.0251558 0.126621 -0.00972768)
(0.0248132 0.124814 -0.00947027)
(0.0243843 0.122568 -0.00913622)
(0.0238687 0.119879 -0.00883511)
(0.0151603 0.128229 -0.00972053)
(0.0149581 0.126402 -0.00947201)
(0.0147046 0.124131 -0.00914576)
(0.0144022 0.12141 -0.00885327)
(0.00507233 0.129039 -0.00971586)
(0.0050092 0.12721 -0.00947237)
(0.00492931 0.124933 -0.0091503)
(0.0048438 0.122203 -0.00886222)
(0.119121 0.00466895 -0.0211376)
(0.117354 0.00461144 -0.0152749)
(0.115237 0.00453997 -0.00984637)
(0.112768 0.00446565 -0.00413951)
(0.118356 0.0139588 -0.0211271)
(0.116591 0.0137727 -0.0152603)
(0.114481 0.0135454 -0.0098279)
(0.11202 0.0132813 -0.00411752)
(0.116843 0.0231611 -0.0211262)
(0.115094 0.022844 -0.0152517)
(0.113007 0.0224582 -0.00981287)
(0.110575 0.0220064 -0.00409584)
(0.114598 0.0322164 -0.0211314)
(0.112878 0.0317671 -0.0152463)
(0.110827 0.0312224 -0.00979853)
(0.108438 0.0305847 -0.00407162)
(0.111643 0.0410707 -0.0211401)
(0.109962 0.0404884 -0.0152425)
(0.107961 0.0397853 -0.00978392)
(0.10563 0.0389632 -0.00404499)
(0.108003 0.0496717 -0.0211504)
(0.106374 0.0489569 -0.0152393)
(0.104434 0.0480972 -0.00976911)
(0.102178 0.0470932 -0.00401714)
(0.103707 0.0579691 -0.0211606)
(0.10214 0.0571239 -0.0152362)
(0.100276 0.0561109 -0.00975475)
(0.0981083 0.0549291 -0.00398999)
(0.0987828 0.0659144 -0.0211691)
(0.0972893 0.0649426 -0.0152331)
(0.0955141 0.0637811 -0.00974194)
(0.0934505 0.0624277 -0.00396594)
(0.0932622 0.0734608 -0.0211748)
(0.0918534 0.0723677 -0.0152303)
(0.0901791 0.0710643 -0.00973204)
(0.0882333 0.0695472 -0.00394769)
(0.0871773 0.0805628 -0.0211772)
(0.0858638 0.0793555 -0.0152284)
(0.0843024 0.0779183 -0.00972653)
(0.0824876 0.0762468 -0.00393774)
(0.0805629 0.0871773 -0.0211772)
(0.0793555 0.0858639 -0.0152284)
(0.0779182 0.0843025 -0.00972653)
(0.0762467 0.0824877 -0.00393774)
(0.0734608 0.0932623 -0.0211748)
(0.0723677 0.0918535 -0.0152303)
(0.0710643 0.0901792 -0.00973204)
(0.0695471 0.0882334 -0.00394769)
(0.0659145 0.098783 -0.0211691)
(0.0649426 0.0972894 -0.0152331)
(0.063781 0.0955141 -0.00974194)
(0.0624276 0.0934505 -0.00396595)
(0.0579692 0.103707 -0.0211606)
(0.0571239 0.10214 -0.0152362)
(0.0561108 0.100276 -0.00975475)
(0.054929 0.0981084 -0.00398999)
(0.0496717 0.108004 -0.0211504)
(0.0489569 0.106374 -0.0152393)
(0.0480972 0.104434 -0.0097691)
(0.0470931 0.102178 -0.00401715)
(0.0410707 0.111643 -0.02114)
(0.0404885 0.109963 -0.0152425)
(0.0397853 0.107961 -0.00978392)
(0.0389631 0.10563 -0.00404499)
(0.0322164 0.114598 -0.0211313)
(0.0317671 0.112878 -0.0152463)
(0.0312224 0.110827 -0.00979853)
(0.0305846 0.108438 -0.00407162)
(0.0231611 0.116843 -0.0211262)
(0.022844 0.115095 -0.0152517)
(0.0224582 0.113007 -0.00981287)
(0.0220064 0.110575 -0.00409585)
(0.0139588 0.118357 -0.021127)
(0.0137727 0.116591 -0.0152603)
(0.0135454 0.114481 -0.0098279)
(0.0132813 0.11202 -0.00411753)
(0.00466897 0.119122 -0.0211376)
(0.00461144 0.117354 -0.0152749)
(0.00453996 0.115238 -0.00984636)
(0.00446564 0.112768 -0.00413951)
(0.0927351 0.00361301 -0.0289645)
(0.0911601 0.00356593 -0.019524)
(0.089526 0.00351356 -0.010805)
(0.0878185 0.00346511 -0.00166079)
(0.0921213 0.0108235 -0.028943)
(0.0905499 0.010666 -0.019501)
(0.0889211 0.0104994 -0.0107802)
(0.0872203 0.0103279 -0.00163512)
(0.090916 0.0179646 -0.0289328)
(0.0893586 0.0176942 -0.0194879)
(0.0877467 0.0174099 -0.0107649)
(0.0860651 0.0171146 -0.00161816)
(0.0891317 0.0249878 -0.0289291)
(0.0875982 0.0246028 -0.0194801)
(0.0860131 0.0241991 -0.0107538)
(0.0843608 0.0237794 -0.00160361)
(0.0867883 0.0318503 -0.0289291)
(0.0852886 0.0313488 -0.019475)
(0.0837408 0.0308247 -0.0107443)
(0.0821284 0.0302801 -0.00158942)
(0.0839092 0.0385115 -0.0289311)
(0.0824541 0.0378927 -0.019471)
(0.0809543 0.0372482 -0.0107353)
(0.0793932 0.0365787 -0.00157491)
(0.0805203 0.044934 -0.0289339)
(0.0791211 0.0441984 -0.0194675)
(0.0776804 0.0434347 -0.0107266)
(0.0761819 0.0426415 -0.00156041)
(0.0766493 0.0510828 -0.0289366)
(0.0753173 0.0502326 -0.0194643)
(0.0739469 0.0493523 -0.0107187)
(0.0725223 0.0484382 -0.00154704)
(0.0723248 0.0569257 -0.0289383)
(0.0710712 0.0559648 -0.0194615)
(0.0697816 0.0549722 -0.0107124)
(0.0684418 0.0539414 -0.00153651)
(0.067576 0.0624329 -0.0289388)
(0.0664114 0.0613667 -0.0194598)
(0.0652126 0.0602675 -0.0107088)
(0.0639675 0.0591259 -0.00153062)
(0.0624329 0.067576 -0.0289388)
(0.0613667 0.0664114 -0.0194598)
(0.0602674 0.0652127 -0.0107088)
(0.0591258 0.0639676 -0.00153062)
(0.0569258 0.0723248 -0.0289383)
(0.0559648 0.0710713 -0.0194615)
(0.0549722 0.0697817 -0.0107124)
(0.0539413 0.0684418 -0.00153651)
(0.0510829 0.0766494 -0.0289366)
(0.0502326 0.0753174 -0.0194643)
(0.0493523 0.0739469 -0.0107187)
(0.0484381 0.0725224 -0.00154705)
(0.044934 0.0805205 -0.0289339)
(0.0441984 0.0791212 -0.0194675)
(0.0434346 0.0776805 -0.0107266)
(0.0426414 0.076182 -0.00156042)
(0.0385116 0.0839094 -0.0289311)
(0.0378927 0.0824542 -0.019471)
(0.0372482 0.0809543 -0.0107353)
(0.0365786 0.0793932 -0.00157493)
(0.0318504 0.0867886 -0.0289291)
(0.0313488 0.0852887 -0.019475)
(0.0308247 0.0837409 -0.0107443)
(0.03028 0.0821285 -0.00158944)
(0.0249879 0.089132 -0.0289291)
(0.0246028 0.0875983 -0.0194801)
(0.0241991 0.0860132 -0.0107538)
(0.0237794 0.0843608 -0.00160363)
(0.0179646 0.0909164 -0.0289328)
(0.0176942 0.0893588 -0.0194879)
(0.0174099 0.0877468 -0.0107649)
(0.0171145 0.0860651 -0.00161818)
(0.0108235 0.0921216 -0.0289429)
(0.010666 0.0905501 -0.019501)
(0.0104994 0.0889212 -0.0107802)
(0.0103279 0.0872203 -0.00163513)
(0.00361302 0.0927355 -0.0289645)
(0.00356593 0.0911603 -0.019524)
(0.00351356 0.0895261 -0.010805)
(0.00346511 0.0878186 -0.00166081)
(0.0609986 0.00235249 -0.0310199)
(0.0596634 0.00231567 -0.0212924)
(0.0585944 0.00228384 -0.0121846)
(0.0577648 0.00226332 -0.00276078)
(0.0605787 0.00707794 -0.0309975)
(0.0592492 0.00694911 -0.0212713)
(0.058185 0.00684815 -0.0121644)
(0.0573603 0.00677745 -0.00274274)
(0.0597659 0.0117581 -0.0309818)
(0.0584479 0.0115352 -0.0212583)
(0.0573939 0.0113613 -0.012154)
(0.0565779 0.0112368 -0.00273616)
(0.0585661 0.0163588 -0.0309697)
(0.0572677 0.0160403 -0.02125)
(0.0562303 0.0157911 -0.012149)
(0.0554273 0.0156106 -0.0027352)
(0.0569941 0.020851 -0.0309596)
(0.0557237 0.0204351 -0.0212441)
(0.0547098 0.0201087 -0.0121467)
(0.0539254 0.0198699 -0.00273716)
(0.0550676 0.0252082 -0.0309508)
(0.0538346 0.0246936 -0.0212394)
(0.0528516 0.0242888 -0.0121456)
(0.0520918 0.0239899 -0.00274013)
(0.0528065 0.0294067 -0.0309433)
(0.0516209 0.0287932 -0.0212355)
(0.050677 0.0283095 -0.0121447)
(0.0499483 0.0279494 -0.00274289)
(0.0502324 0.0334256 -0.0309371)
(0.0491045 0.0327144 -0.0212322)
(0.0482078 0.0321526 -0.0121438)
(0.0475171 0.031731 -0.00274484)
(0.0473674 0.0372468 -0.0309325)
(0.0463074 0.0364405 -0.0212296)
(0.045466 0.0358027 -0.012143)
(0.0448197 0.0353205 -0.00274589)
(0.0442339 0.0408543 -0.0309299)
(0.0432515 0.0399572 -0.0212281)
(0.0424727 0.0392467 -0.0121424)
(0.0418767 0.0387059 -0.00274629)
(0.0408543 0.0442339 -0.0309299)
(0.0399572 0.0432516 -0.0212281)
(0.0392466 0.0424727 -0.0121424)
(0.0387059 0.0418768 -0.00274629)
(0.0372468 0.0473674 -0.0309325)
(0.0364405 0.0463075 -0.0212296)
(0.0358026 0.0454661 -0.012143)
(0.0353204 0.0448198 -0.0027459)
(0.0334257 0.0502325 -0.0309371)
(0.0327144 0.0491046 -0.0212322)
(0.0321526 0.0482079 -0.0121439)
(0.0317309 0.0475171 -0.00274485)
(0.0294067 0.0528067 -0.0309433)
(0.0287932 0.051621 -0.0212355)
(0.0283095 0.0506771 -0.0121447)
(0.0279493 0.0499484 -0.00274291)
(0.0252083 0.0550677 -0.0309508)
(0.0246936 0.0538347 -0.0212394)
(0.0242887 0.0528517 -0.0121456)
(0.0239898 0.0520919 -0.00274015)
(0.0208511 0.0569943 -0.0309596)
(0.0204351 0.0557239 -0.0212441)
(0.0201087 0.0547099 -0.0121467)
(0.0198699 0.0539254 -0.00273718)
(0.0163589 0.0585664 -0.0309697)
(0.0160404 0.0572678 -0.02125)
(0.0157911 0.0562304 -0.012149)