/*--------------------------------*- C++ -*----------------------------------*\
| =========                 |                                                 |
| \\      /  F ield         | foam-extend: Open Source CFD                    |
|  \\    /   O peration     | Version:     3.1                                |
|   \\  /    A nd           | Web:         http://www.extend-project.de       |
|    \\/     M anipulation  |                                                 |
\*---------------------------------------------------------------------------*/
FoamFile
{
    version     2.0;
    format      ascii;
    class       volVectorField;
    location    "3.3";
    object      D;
}
// * * * * * * * * * * * * * * * * * * * * * * * * * * * * * * * * * * * * * //

dimensions      [0 1 0 0 0 0 0];

internalField   nonuniform List<vector> 
256
(
(0.000263412 0.000174859 0.000297138)
(0.000113072 3.39032e-05 8.89556e-05)
(0.000100302 -5.12798e-05 -0.000106312)
(0.00022272 -0.000192729 -0.000327301)
(0.00110124 0.000718195 0.000239493)
(0.000914013 0.000192697 8.42908e-05)
(0.000878376 -0.00022511 -0.000147882)
(0.000988058 -0.000747749 -0.000328622)
(0.00216121 0.0011095 0.000160891)
(0.00197308 0.000323898 3.54659e-05)
(0.00192434 -0.000366861 -0.000140927)
(0.00201029 -0.00115531 -0.000293955)
(0.00342269 0.00141191 4.87147e-05)
(0.00325246 0.000419163 -1.58231e-05)
(0.00319504 -0.000488202 -0.000127217)
(0.00324465 -0.0014858 -0.000221516)
(0.00481562 0.00161685 -6.52493e-05)
(0.00466179 0.000477395 -6.71906e-05)
(0.00459841 -0.000586913 -0.000110528)
(0.00461834 -0.00172967 -0.000142863)
(0.00627482 0.00174308 -0.000169431)
(0.0061358 0.0005055 -0.000115065)
(0.00606852 -0.000666009 -9.70364e-05)
(0.0060652 -0.00190188 -7.11559e-05)
(0.00774868 0.00180917 -0.000256085)
(0.00761933 0.000510816 -0.00015998)
(0.0075486 -0.000727518 -9.10049e-05)
(0.00753043 -0.00201572 -1.6995e-05)
(0.00921123 0.00183389 -0.000326168)
(0.00907347 0.000503385 -0.000204257)
(0.00899418 -0.000772875 -9.48823e-05)
(0.00897323 -0.00208779 8.97429e-06)
(0.000295562 0.000173365 0.000147304)
(0.00014891 3.5434e-05 4.5885e-05)
(0.000135908 -4.62512e-05 -6.16439e-05)
(0.000249459 -0.000181422 -0.000175462)
(0.00117029 0.000714674 0.00013287)
(0.000959986 0.000196372 4.09343e-05)
(0.000926511 -0.00021446 -9.72812e-05)
(0.00106091 -0.000730956 -0.000207108)
(0.00221082 0.0011238 8.35852e-05)
(0.00202294 0.000335407 8.7111e-06)
(0.00197673 -0.000362589 -0.000102345)
(0.00206452 -0.00115436 -0.000196011)
(0.00344 0.00143187 6.85031e-06)
(0.00327211 0.000434755 -2.95363e-05)
(0.00321728 -0.000483406 -9.78495e-05)
(0.00326628 -0.00148575 -0.00015419)
(0.00479177 0.00164103 -7.62191e-05)
(0.00464306 0.00049659 -6.91095e-05)
(0.00458203 -0.00057945 -8.9977e-05)
(0.004598 -0.00172678 -0.000102837)
(0.0062096 0.00176879 -0.000154517)
(0.00607675 0.00052716 -0.000107157)
(0.00601161 -0.000653776 -8.38673e-05)
(0.00600267 -0.00189216 -5.48686e-05)
(0.00764623 0.00183456 -0.00022122)
(0.00752445 0.000533569 -0.000143213)
(0.00745608 -0.0007096 -8.38729e-05)
(0.00743074 -0.00199706 -2.00651e-05)
(0.00908102 0.0018577 -0.00027431)
(0.00895121 0.000525664 -0.000177359)
(0.00887459 -0.000750079 -9.38055e-05)
(0.00884665 -0.00206062 -8.92205e-06)
(0.000310139 0.000178767 7.08829e-05)
(0.000154442 3.7927e-05 2.12558e-05)
(0.000139466 -4.66115e-05 -3.61374e-05)
(0.000257412 -0.000185301 -9.36074e-05)
(0.00120082 0.000709155 6.33471e-05)
(0.000972116 0.000197033 1.35995e-05)
(0.000936367 -0.000206925 -6.27102e-05)
(0.00108413 -0.000718953 -0.000123423)
(0.00223553 0.00111654 3.05272e-05)
(0.0020337 0.000338466 -9.46704e-06)
(0.0019851 -0.000351966 -7.18064e-05)
(0.00208214 -0.00113502 -0.000122559)
(0.00344677 0.00142469 -2.13983e-05)
(0.00326937 0.000440339 -3.77089e-05)
(0.00321198 -0.000469276 -7.32305e-05)
(0.00326552 -0.00145957 -0.000100453)
(0.00477445 0.0016368 -7.9634e-05)
(0.00461913 0.000505399 -6.75149e-05)
(0.00455534 -0.000561826 -7.16796e-05)
(0.00457259 -0.00169566 -7.00533e-05)
(0.00616595 0.00176922 -0.000136264)
(0.00602871 0.000539421 -9.69165e-05)
(0.00596079 -0.000632672 -7.10723e-05)
(0.00595057 -0.00185705 -4.08719e-05)
(0.00757765 0.00184103 -0.000185757)
(0.00745352 0.000549033 -0.000125271)
(0.00738253 -0.000685397 -7.5273e-05)
(0.00735374 -0.00195911 -2.11084e-05)
(0.0089933 0.00187121 -0.000225084)
(0.00886294 0.000543886 -0.000152063)
(0.00878316 -0.000723499 -8.82958e-05)
(0.00874872 -0.00202094 -2.05957e-05)
(0.000315199 0.000181808 3.18795e-05)
(0.000153014 3.91759e-05 8.39906e-06)
(0.000136373 -4.67446e-05 -2.10722e-05)
(0.0002575 -0.000187287 -4.88381e-05)
(0.00121064 0.0007053 2.40768e-05)
(0.000970505 0.000197381 -3.79017e-07)
(0.000932027 -0.000201145 -4.02875e-05)
(0.00108622 -0.000709161 -7.13741e-05)
(0.00224088 0.00110805 3.52303e-07)
(0.00202866 0.000339731 -1.772e-05)
(0.00197714 -0.000341315 -4.95664e-05)
(0.00207963 -0.00111494 -7.37389e-05)
(0.00344149 0.00141458 -3.54411e-05)
(0.00325588 0.000443371 -3.86219e-05)
(0.00319553 -0.00045425 -5.35743e-05)
(0.00325239 -0.00143137 -6.25994e-05)
(0.00475455 0.00162804 -7.60398e-05)
(0.00459302 0.000511034 -6.08652e-05)
(0.00452625 -0.000543006 -5.54077e-05)
(0.00454483 -0.00166175 -4.55657e-05)
(0.00612944 0.00176412 -0.000116434)
(0.0059877 0.00054823 -8.3239e-05)
(0.00591686 -0.000610705 -5.78972e-05)
(0.0059062 -0.00181948 -2.89916e-05)
(0.00752465 0.00184125 -0.000152646)
(0.00739753 0.00056116 -0.000105259)
(0.00732362 -0.000660989 -6.41146e-05)
(0.00729271 -0.00191953 -1.91193e-05)
(0.00892677 0.00187746 -0.000181632)
(0.00879422 0.000559315 -0.000126294)
(0.00871064 -0.000697226 -7.75077e-05)
(0.00867177 -0.00198044 -2.41795e-05)
(0.000316582 0.000183151 1.26937e-05)
(0.000150487 3.98479e-05 2.28841e-06)
(0.000132667 -4.66363e-05 -1.20821e-05)
(0.000255311 -0.000187706 -2.46328e-05)
(0.0012116 0.000702642 4.54587e-06)
(0.000964506 0.000197924 -6.00542e-06)
(0.000923841 -0.000196612 -2.55313e-05)
(0.00108099 -0.000701054 -4.00832e-05)
(0.0022374 0.00110206 -1.29979e-05)
(0.00201835 0.000341023 -1.90015e-05)
(0.00196447 -0.000332404 -3.34084e-05)
(0.00206968 -0.0010986 -4.29003e-05)
(0.00343076 0.00140711 -3.7786e-05)
(0.00323934 0.000446038 -3.4233e-05)
(0.00317665 -0.000441339 -3.79121e-05)
(0.00323534 -0.00140804 -3.75134e-05)
(0.00473443 0.00162114 -6.58304e-05)
(0.00456823 0.000515709 -5.0462e-05)
(0.0044992 -0.000526675 -4.10068e-05)
(0.00451857 -0.00163323 -2.8348e-05)
(0.00609854 0.0017596 -9.41309e-05)
(0.00595323 0.000555363 -6.7016e-05)
(0.00588021 -0.000591626 -4.46517e-05)
(0.00586931 -0.0017875 -1.95051e-05)
(0.00748254 0.00184034 -0.000120016)
(0.00735283 0.000570882 -8.35794e-05)
(0.00727672 -0.000639843 -5.11048e-05)
(0.0072445 -0.00188552 -1.54091e-05)
(0.00887446 0.00188066 -0.000140842)
(0.00873983 0.000571634 -9.9536e-05)
(0.00865334 -0.000674473 -6.29672e-05)
(0.00861161 -0.00194538 -2.23339e-05)
(0.000316715 0.000183684 3.98674e-06)
(0.000148366 4.02293e-05 -1.49119e-07)
(0.000129753 -4.64346e-05 -6.66984e-06)
(0.000252966 -0.000187461 -1.18005e-05)
(0.00120959 0.000700906 -3.1365e-06)
(0.000958358 0.000198554 -6.79269e-06)
(0.000916142 -0.000193228 -1.55082e-05)
(0.00107454 -0.000694827 -2.15208e-05)
(0.0022314 0.00109841 -1.54843e-05)
(0.00200809 0.000342386 -1.59481e-05)
(0.00195252 -0.000325667 -2.13482e-05)
(0.002059 -0.00108656 -2.37878e-05)
(0.00341957 0.00140255 -3.19664e-05)
(0.00322434 0.000448503 -2.64157e-05)
(0.00316002 -0.000431487 -2.51713e-05)
(0.00321961 -0.00139087 -2.13228e-05)
(0.00471702 0.00161692 -5.04792e-05)
(0.00454764 0.000519654 -3.75542e-05)
(0.00447705 -0.000514138 -2.8166e-05)
(0.00449682 -0.00161203 -1.66242e-05)
(0.00607401 0.0017568 -6.93092e-05)
(0.00592617 0.000561044 -4.90199e-05)
(0.00585169 -0.000576926 -3.16082e-05)
(0.00584064 -0.00176345 -1.22249e-05)
(0.00745036 0.00183974 -8.67709e-05)
(0.00731872 0.000578355 -6.06208e-05)
(0.00724115 -0.000623515 -3.7017e-05)
(0.00720814 -0.00185964 -1.10297e-05)
(0.00883479 0.00188256 -0.000100877)
(0.00869847 0.000580912 -7.18565e-05)
(0.00861004 -0.000656861 -4.61469e-05)
(0.00856663 -0.00191842 -1.73551e-05)
(0.000316538 0.000183856 7.02996e-07)
(0.000146966 4.04408e-05 -6.79304e-07)
(0.000127859 -4.62479e-05 -3.30631e-06)
(0.000251216 -0.000187079 -5.09979e-06)
(0.00120733 0.000699859 -4.10877e-06)
(0.000953792 0.000199083 -4.93033e-06)
(0.000910593 -0.000190976 -8.31056e-06)
(0.00106944 -0.000690627 -1.03726e-05)
(0.00222617 0.00109639 -1.15078e-05)
(0.0020004 0.00034351 -1.04019e-05)
(0.00194376 -0.000321184 -1.18693e-05)
(0.00205077 -0.00107869 -1.17769e-05)
(0.00341089 0.0014001 -2.10108e-05)
(0.00321338 0.000450419 -1.6554e-05)
(0.00314803 -0.000424916 -1.43724e-05)
(0.00320803 -0.00137971 -1.07595e-05)
(0.00470442 0.00161468 -3.16141e-05)
(0.00453308 0.000522552 -2.30903e-05)
(0.00446153 -0.000505754 -1.64535e-05)
(0.00448147 -0.0015982 -8.58778e-06)
(0.00605697 0.00175537 -4.24423e-05)
(0.00590754 0.000565045 -2.98544e-05)
(0.00583216 -0.000567072 -1.88309e-05)
(0.00582099 -0.00174764 -6.63993e-06)
(0.00742844 0.00183951 -5.25666e-05)
(0.00729554 0.000583463 -3.67419e-05)
(0.00721709 -0.000612546 -2.23736e-05)
(0.00718364 -0.00184248 -6.55526e-06)
(0.0088079 0.00188373 -6.07628e-05)
(0.00867043 0.000587132 -4.34273e-05)
(0.00858083 -0.000645001 -2.80796e-05)
(0.00853651 -0.00190039 -1.0836e-05)
(0.000316387 0.000183896 -1.5925e-08)
(0.000146282 4.05361e-05 -3.13337e-07)
(0.00012694 -4.61402e-05 -9.94339e-07)
(0.000250307 -0.000186832 -1.40043e-06)
(0.00120599 0.000699365 -1.70893e-06)
(0.000951416 0.000199378 -1.77187e-06)
(0.000907744 -0.000189852 -2.61336e-06)
(0.00106672 -0.000688516 -3.06268e-06)
(0.00222325 0.00109549 -4.17871e-06)
(0.00199635 0.000344136 -3.59448e-06)
(0.0019392 -0.000318949 -3.80613e-06)
(0.0020464 -0.0010748 -3.53334e-06)
(0.00340621 0.00139905 -7.29127e-06)
(0.00320766 0.000451462 -5.62711e-06)
(0.00314182 -0.00042164 -4.67241e-06)
(0.00320196 -0.00137423 -3.26302e-06)
(0.00469783 0.00161375 -1.07514e-05)
(0.00452557 0.000524088 -7.78477e-06)
(0.00445357 -0.00050157 -5.41071e-06)
(0.00447356 -0.0015914 -2.63835e-06)
(0.00604822 0.0017548 -1.4291e-05)
(0.00589803 0.000567115 -1.0023e-05)
(0.00582223 -0.000562146 -6.2527e-06)
(0.005811 -0.00173983 -2.09683e-06)
(0.00741728 0.00183945 -1.76134e-05)
(0.00728379 0.000586062 -1.23084e-05)
(0.00720492 -0.000607053 -7.48066e-06)
(0.00717129 -0.00183397 -2.16765e-06)
(0.00879423 0.00188423 -2.03051e-05)
(0.00865623 0.000590267 -1.45276e-05)
(0.00856609 -0.000639045 -9.41702e-06)
(0.00852137 -0.00189139 -3.66871e-06)
)
;

boundaryField
{
    interface
    {
        type            tractionDisplacement;
        gradient        nonuniform List<vector> 
192
(
(0.0248056 0.0343117 0.000657958)
(0.0118946 0.0340954 0.00151935)
(0.013225 0.0449039 0.000351136)
(0.010904 0.0511006 -0.00161206)
(0.00931898 0.055537 -0.00365911)
(0.00784411 0.0577235 -0.00559335)
(0.00702106 0.058501 -0.0071525)
(0.00659041 0.0594561 -0.00801378)
(0.0252846 0.0364489 0.00046201)
(0.0137513 0.0340163 0.00118558)
(0.0134086 0.0434882 0.000629546)
(0.0112787 0.0495036 -0.000536246)
(0.00958132 0.0538233 -0.00185578)
(0.00816489 0.0562014 -0.00319431)
(0.00737111 0.0573368 -0.00435566)
(0.00690737 0.0590107 -0.00508754)
(0.026279 0.0377491 0.000102386)
(0.0143525 0.0340815 0.000338627)
(0.0138467 0.0427485 3.17244e-05)
(0.0114928 0.0485204 -0.000607463)
(0.0096093 0.0527094 -0.00143974)
(0.00808254 0.0551479 -0.00231873)
(0.00723459 0.0564691 -0.00312559)
(0.00661419 0.0585776 -0.00369139)
(0.0269019 0.0383401 -6.86402e-05)
(0.0148287 0.0340505 -8.29863e-05)
(0.0143058 0.04237 -0.00032188)
(0.0118295 0.0479077 -0.000720175)
(0.0098192 0.0519959 -0.00123909)
(0.00819356 0.054437 -0.00180742)
(0.00728188 0.0558494 -0.00235703)
(0.00656856 0.0581971 -0.00278303)
(0.0272247 0.0385689 -0.00012321)
(0.0151404 0.033968 -0.000238812)
(0.0146332 0.042119 -0.000441099)
(0.0121029 0.047525 -0.000713708)
(0.0100221 0.0515418 -0.00105037)
(0.00832982 0.0539657 -0.00142345)
(0.00737051 0.0554128 -0.00180217)
(0.00658504 0.0578829 -0.00212265)
(0.02738 0.0386342 -0.000114625)
(0.0153296 0.0338716 -0.000240267)
(0.0148458 0.0419383 -0.000397289)
(0.0122942 0.0472773 -0.000583692)
(0.0101779 0.051251 -0.000801439)
(0.00844743 0.0536556 -0.00104217)
(0.00745933 0.055109 -0.00129383)
(0.00663492 0.0576391 -0.00151751)
(0.0274484 0.0386392 -7.64327e-05)
(0.0154337 0.0337923 -0.000165631)
(0.0149691 0.0418166 -0.000265007)
(0.0124105 0.0471237 -0.000375906)
(0.0102779 0.0510742 -0.000500726)
(0.00852719 0.0534641 -0.000638101)
(0.00752334 0.0549151 -0.000783827)
(0.00667828 0.0574733 -0.000916709)
(0.0274729 0.0386322 -2.63579e-05)
(0.0154786 0.0337488 -5.80571e-05)
(0.0150242 0.041755 -9.19682e-05)
(0.012464 0.0470493 -0.000128964)
(0.0103248 0.0509897 -0.000169902)
(0.00856566 0.0533723 -0.000214868)
(0.00755426 0.0548208 -0.00026277)
(0.00669926 0.0573874 -0.000306857)
(-0.00187963 0.0120409 0.013248)
(-0.00355052 -0.00389534 0.00195346)
(-0.00151924 -0.00344885 0.0032222)
(0.000652454 -0.00468462 0.00145901)
(0.00320417 -0.00456881 0.000447885)
(0.00552698 -0.00411914 -0.000533654)
(0.00739658 -0.00347202 -0.00116603)
(0.00878363 -0.00240006 -0.0019573)
(-0.00467332 0.00444115 0.00288689)
(-0.00827955 -0.00158209 0.000564777)
(-0.00574298 -0.00137332 0.000353877)
(-0.00310691 -0.00179422 -0.000214287)
(-0.000166403 -0.00185988 -0.000587566)
(0.00248473 -0.00187203 -0.000915162)
(0.00472601 -0.00189737 -0.00116823)
(0.00659394 -0.00166728 -0.00169955)
(-0.00502105 -0.00616825 -0.00370665)
(-0.00875305 0.000829076 -0.000894976)
(-0.0063614 0.000779853 -0.00120237)
(-0.00372519 0.00117419 -0.000961419)
(-0.000809227 0.000943625 -0.000805766)
(0.00186581 0.000525202 -0.000615701)
(0.00418105 -3.74383e-05 -0.000450302)
(0.00602612 -0.000655359 -5.5922e-05)
(-0.00315978 -0.0153585 -0.0131746)
(-0.00516392 0.00247219 -0.00239821)
(-0.00369089 0.00245735 -0.00400211)
(-0.00164913 0.00375022 -0.00253998)
(0.000768134 0.00345798 -0.0017266)
(0.00306751 0.00276525 -0.000871619)
(0.00503892 0.00169149 -0.00021557)
(0.00646845 0.00013178 0.000523201)
(0.0206091 -0.0327962 -0.00150825)
(0.00839253 -0.0335157 -0.00327205)
(0.00822577 -0.0453846 -0.00278433)
(0.00504925 -0.0517426 -0.00107968)
(0.00281206 -0.0560767 0.000880182)
(0.000983774 -0.0579338 0.00289246)
(-0.000102884 -0.0580906 0.00467414)
(-0.000322622 -0.0573236 0.00593033)
(0.0202405 -0.0353195 -0.000842204)
(0.00994391 -0.0341355 -0.00183147)
(0.00813421 -0.0441676 -0.00152588)
(0.00511645 -0.0502606 -0.000421025)
(0.00275272 -0.0543622 0.000915914)
(0.0009253 -0.056303 0.00233265)
(-0.000206355 -0.0567066 0.00362251)
(-0.000384965 -0.0564087 0.0046677)
(0.0208915 -0.0365149 -0.000334114)
(0.0104812 -0.0343862 -0.000653118)
(0.00860361 -0.043492 -0.000435218)
(0.00541605 -0.0492907 0.000188733)
(0.00287935 -0.0532023 0.00104608)
(0.000917205 -0.0551454 0.00198237)
(-0.00033086 -0.0556602 0.00289262)
(-0.000694821 -0.0555019 0.00371543)
(0.0212596 -0.0368837 -7.87783e-05)
(0.0108604 -0.03437 -8.33555e-05)
(0.00897188 -0.0431329 0.000129889)
(0.00568813 -0.0486807 0.000533702)
(0.00302842 -0.0524581 0.00107502)
(0.000953361 -0.0543592 0.00168484)
(-0.000402831 -0.0548863 0.00230916)
(-0.000878551 -0.0547411 0.00291981)
(0.0213969 -0.036879 2.49008e-05)
(0.0110865 -0.0342514 0.000137533)
(0.00919821 -0.0428716 0.000333669)
(0.0058667 -0.048291 0.000616107)
(0.00313646 -0.0519796 0.000969563)
(0.000985298 -0.0538316 0.00136979)
(-0.000448766 -0.0543333 0.00179448)
(-0.000994402 -0.0541513 0.00223502)
(0.0214217 -0.0367516 5.1366e-05)
(0.0112079 -0.0341129 0.000177939)
(0.0093249 -0.0426719 0.000334304)
(0.00597088 -0.0480325 0.000529211)
(0.00320212 -0.0516692 0.000758179)
(0.00100653 -0.053482 0.00101482)
(-0.000475236 -0.0539516 0.00129213)
(-0.00105542 -0.0537238 0.00158907)
(0.0214074 -0.0366235 4.13304e-05)
(0.0112668 -0.0340012 0.000131791)
(0.00938967 -0.0425337 0.00023163)
(0.00602624 -0.047869 0.000347816)
(0.00323778 -0.0514787 0.000478873)
(0.00101846 -0.0532659 0.000624027)
(-0.00048925 -0.0537105 0.000782164)
(-0.00108514 -0.0534466 0.000954077)
(0.0213923 -0.0365491 1.5286e-05)
(0.01129 -0.0339405 4.75178e-05)
(0.00941656 -0.0424628 8.17286e-05)
(0.00604994 -0.0477888 0.000120475)
(0.0032532 -0.051387 0.000163368)
(0.00102371 -0.0531619 0.000210553)
(-0.00049502 -0.0535935 0.00026216)
(-0.00109705 -0.0533103 0.000318491)
(0.0593804 0.000557319 -0.00174549)
(0.0591305 0.000367766 -0.00098035)
(0.0588762 0.000751629 -0.000737477)
(0.0585929 0.0009853 -0.000478203)
(0.0583169 0.00116601 -0.000325495)
(0.0580915 0.00127607 -0.000214555)
(0.0579341 0.00133847 -0.000124411)
(0.0578517 0.00136256 -4.08217e-05)
(0.0547333 0.000618079 -0.00112956)
(0.0545588 0.000484353 -0.000821039)
(0.0542915 0.000615522 -0.000748805)
(0.0539644 0.000759802 -0.000611291)
(0.0536218 0.000888887 -0.000476011)
(0.0533353 0.000981793 -0.000339095)
(0.0531357 0.00104095 -0.000202885)
(0.0530357 0.00107037 -6.73084e-05)
(0.053926 -0.001534 -0.00058879)
(0.0536477 -0.0013373 -0.000876164)
(0.0531963 -0.00125352 -0.000969498)
(0.052729 -0.00117202 -0.000918461)
(0.0522998 -0.00109712 -0.000762852)
(0.0519582 -0.00103499 -0.000559941)
(0.0517259 -0.000990902 -0.000338909)
(0.0516091 -0.00096715 -0.00011309)
(0.0563757 -0.00225235 -0.000323075)
(0.0557346 -0.00191165 -0.00124625)
(0.0549806 -0.00197067 -0.00144912)
(0.054306 -0.00198256 -0.001391)
(0.0537522 -0.00197445 -0.00115534)
(0.0533389 -0.00194758 -0.000846569)
(0.0530666 -0.00192071 -0.00051163)
(0.0529311 -0.0019045 -0.000170757)
)
;
        traction        nonuniform List<vector> 
192
(
(21.6054 -0.685533 -2.33324)
(21.6891 -0.783378 -4.0344)
(21.5893 -1.09784 -4.82113)
(21.7775 -1.17577 -5.25306)
(22.2839 -0.985604 -5.48559)
(22.948 -0.424866 -5.52666)
(23.5467 0.707122 -5.30693)
(22.5909 2.55656 -4.62787)
(24.4161 -1.01672 -1.68281)
(24.8385 -1.13911 -2.92684)
(25.4959 -1.50647 -3.50107)
(26.398 -1.57888 -3.80574)
(27.4046 -1.31204 -3.94855)
(28.2706 -0.578165 -3.93506)
(28.3984 0.89452 -3.72283)
(25.2164 3.17458 -3.21368)
(26.243 -1.17117 -1.20719)
(26.6268 -1.28532 -2.09093)
(27.4334 -1.67216 -2.46971)
(28.5137 -1.73236 -2.65263)
(29.6314 -1.40655 -2.72564)
(30.452 -0.555486 -2.69653)
(30.1832 1.10956 -2.54962)
(25.8695 3.56152 -2.23612)
(27.5592 -1.2488 -0.882174)
(27.8795 -1.34906 -1.52999)
(28.7039 -1.74622 -1.79513)
(29.8245 -1.79468 -1.91369)
(30.9552 -1.42792 -1.95689)
(31.6962 -0.499356 -1.93311)
(31.1565 1.28195 -1.83973)
(26.1675 3.82099 -1.63837)
(28.5098 -1.29203 -0.634382)
(28.7891 -1.37874 -1.10388)
(29.6021 -1.77959 -1.29171)
(30.7211 -1.81978 -1.37162)
(31.8456 -1.42637 -1.40043)
(32.5178 -0.447353 -1.38548)
(31.7986 1.40892 -1.32869)
(26.3607 4.00237 -1.1961)
(29.177 -1.31699 -0.429786)
(29.4297 -1.39261 -0.75022)
(30.2267 -1.79409 -0.877203)
(31.331 -1.82907 -0.929842)
(32.4571 -1.41946 -0.949601)
(33.0763 -0.407542 -0.941437)
(32.2397 1.49767 -0.908048)
(26.5013 4.12663 -0.822563)
(29.6036 -1.33173 -0.247759)
(29.8424 -1.39953 -0.434018)
(30.6271 -1.80027 -0.507203)
(31.7154 -1.83201 -0.537217)
(32.8533 -1.41341 -0.54878)
(33.4351 -0.380934 -0.544893)
(32.5256 1.55469 -0.525725)
(26.602 4.20275 -0.474256)
(29.8027 -1.33777 -0.0801456)
(30.0346 -1.4011 -0.140828)
(30.8096 -1.80106 -0.164401)
(31.8896 -1.8316 -0.174031)
(33.0289 -1.40869 -0.177728)
(33.5955 -0.364962 -0.176576)
(32.6395 1.58817 -0.169621)
(26.6085 4.23563 -0.151013)
(2.72734 0.547374 9.73173)
(4.71191 0.982817 6.40725)
(5.66347 0.938278 3.24218)
(6.30372 0.749406 0.86607)
(6.83677 0.628126 -0.711845)
(7.33922 0.682099 -1.53567)
(7.93047 0.926632 -1.60837)
(9.02714 1.19941 -0.829674)
(1.77379 0.49142 8.69847)
(3.22739 0.954176 7.34035)
(3.79308 1.08653 5.49798)
(4.08246 0.945073 3.97041)
(4.31217 0.724926 2.94477)
(4.59323 0.55645 2.41546)
(5.09133 0.480961 2.30436)
(6.41238 0.35903 2.28609)
(1.37641 0.397494 7.98669)
(2.69884 0.753151 7.53166)
(3.24574 0.971855 6.40644)
(3.48501 0.890204 5.35183)
(3.6399 0.667871 4.64767)
(3.84772 0.433642 4.30579)
(4.28606 0.241222 4.2663)
(5.55017 0.0185948 4.25309)
(1.29387 0.3885 7.03472)
(2.677 0.661558 6.87478)
(3.33511 0.897047 5.98459)
(3.63297 0.836035 5.10394)
(3.80443 0.619139 4.50704)
(4.00707 0.359642 4.18903)
(4.41831 0.0843953 4.07523)
(5.58126 -0.287953 4.07737)
(-4.27815 0.413904 0.302877)
(-3.31311 0.710663 0.554323)
(-2.26803 0.912523 0.579522)
(-1.46342 0.891027 0.555062)
(-0.858208 0.74621 0.586262)
(-0.262745 0.551423 0.713088)
(0.759333 0.229734 0.948486)
(3.69683 -1.06728 1.25535)
(-5.03868 0.294293 -0.0793048)
(-4.86671 0.483476 -0.11242)
(-4.49794 0.680218 -0.179822)
(-4.09378 0.742975 -0.229491)
(-3.70077 0.71921 -0.215594)
(-3.2142 0.661405 -0.129491)
(-2.21804 0.506408 0.0130431)
(0.953085 -0.637457 0.191564)
(-5.47057 0.246663 -0.145288)
(-5.49815 0.373445 -0.216734)
(-5.32766 0.561251 -0.251746)
(-5.05269 0.671512 -0.258495)
(-4.70153 0.724962 -0.219999)
(-4.18328 0.752625 -0.138537)
(-3.11096 0.682792 -0.0402668)
(-0.0675216 -0.293057 0.0261636)
(-5.78147 0.233035 -0.136738)
(-5.8632 0.327302 -0.203472)
(-5.77205 0.51152 -0.215765)
(-5.54695 0.653978 -0.198141)
(-5.19378 0.762403 -0.149783)
(-4.62509 0.850268 -0.0799058)
(-3.47469 0.83029 -0.0154256)
(-0.515496 -0.0410664 0.00185664)
(-6.0105 0.230769 -0.106979)
(-6.10933 0.31117 -0.1584)
(-6.05106 0.497891 -0.158251)
(-5.8428 0.664133 -0.13235)
(-5.47568 0.809703 -0.0873783)
(-4.86877 0.934816 -0.03547)
(-3.68461 0.9462 -0.000372982)
(-0.790411 0.141688 -0.00906863)
(-6.16623 0.232393 -0.0725986)
(-6.26858 0.308916 -0.106338)
(-6.22126 0.500935 -0.100898)
(-6.01516 0.683908 -0.0767787)
(-5.63361 0.852817 -0.0422103)
(-5.00148 0.999344 -0.00809535)
(-3.80736 1.02655 0.00843641)
(-0.968105 0.264166 -0.0112737)
(-6.26103 0.23467 -0.040826)
(-6.36282 0.311442 -0.0590129)
(-6.31785 0.508549 -0.053723)
(-6.10935 0.702029 -0.0375028)
(-5.71758 0.884002 -0.016469)
(-5.07196 1.04164 0.00218388)
(-3.87526 1.07612 0.00867733)
(-1.07823 0.338716 -0.00914494)
(-6.30437 0.236229 -0.0129889)
(-6.40462 0.313719 -0.0185834)
(-6.35987 0.513535 -0.0165327)
(-6.14984 0.711977 -0.0109541)
(-5.75385 0.899852 -0.00403381)
(-5.10306 1.06251 0.00181249)
(-3.90375 1.09872 0.00350661)
(-1.13921 0.373788 -0.00388663)
(9.7057 0.0288315 -2.34621)
(9.30716 1.84033 -1.95707)
(9.37538 3.28764 -1.53611)
(9.5354 4.42098 -1.19843)
(9.69272 5.26368 -0.912156)
(9.82149 5.85914 -0.650145)
(9.91175 6.22477 -0.399721)
(9.95173 6.32934 -0.138143)
(6.84205 -2.09941 -0.760054)
(5.91 -1.18444 -0.6686)
(5.70794 -0.183146 -0.510912)
(5.67747 0.645899 -0.400708)
(5.69024 1.25857 -0.314596)
(5.71307 1.68929 -0.230365)
(5.73771 1.96957 -0.140847)
(5.76178 2.13055 -0.0470823)
(5.70391 -3.77329 -0.0689409)
(4.6013 -3.11916 -0.10869)
(4.25131 -2.38498 -0.0886148)
(4.10157 -1.79425 -0.0844748)
(4.02102 -1.36903 -0.082039)
(3.97343 -1.07668 -0.068734)
(3.9465 -0.891506 -0.0429248)
(3.93381 -0.786282 -0.0134449)
(5.53016 -3.64662 0.356711)
(4.4268 -3.13577 0.141344)
(4.0138 -2.6782 0.0523296)
(3.80148 -2.30679 0.0046192)
(3.66887 -2.04164 -0.0228544)
(3.5811 -1.86636 -0.0307493)
(3.52574 -1.76117 -0.0235794)
(3.49545 -1.71366 -0.00841418)
)
;
        pressure        uniform 0;
        value           nonuniform List<vector> 
192
(
(0.000573481 0.000603754 0.000305363)
(0.00124992 0.00114439 0.000258485)
(0.00232652 0.0016708 0.00016528)
(0.00355899 0.00205067 2.85639e-05)
(0.00493211 0.00231106 -0.000110988)
(0.00637287 0.00246462 -0.000239348)
(0.00783644 0.00254043 -0.000345491)
(0.00929362 0.00257709 -0.00042634)
(0.00061162 0.000628976 0.000153079)
(0.00134219 0.00113988 0.00014769)
(0.00237843 0.0016674 9.14546e-05)
(0.00358098 0.00205066 1.47232e-07)
(0.00491153 0.00231382 -9.94164e-05)
(0.00631166 0.00247131 -0.000194446)
(0.00773837 0.00255127 -0.000275665)
(0.00916736 0.00259533 -0.000337904)
(0.000638627 0.000650631 7.21627e-05)
(0.00138022 0.00113517 6.75799e-05)
(0.00240861 0.0016509 3.09237e-05)
(0.00359043 0.00203119 -2.89916e-05)
(0.00489457 0.00229566 -9.76307e-05)
(0.00626699 0.00245856 -0.000165248)
(0.00766808 0.00254689 -0.000224827)
(0.00907598 0.00260343 -0.000271227)
(0.000651472 0.000661059 3.10215e-05)
(0.001396 0.00113093 2.30395e-05)
(0.00241971 0.00163767 -3.6712e-06)
(0.00358936 0.00201343 -4.44433e-05)
(0.00487729 0.00227799 -9.15283e-05)
(0.00623186 0.00244458 -0.000139027)
(0.00761567 0.00253937 -0.000182109)
(0.00900888 0.00260492 -0.000216419)
(0.000656891 0.000665262 1.11535e-05)
(0.00140085 0.00112724 1.56071e-06)
(0.00242032 0.00162855 -1.85116e-05)
(0.00358205 0.00200117 -4.67074e-05)
(0.00485971 0.00226542 -7.896e-05)
(0.00620266 0.00243417 -0.000111924)
(0.00757467 0.002533 -0.000142543)
(0.00895678 0.0026042 -0.000167375)
(0.000658965 0.000666611 2.55393e-06)
(0.00140121 0.0011243 -6.13984e-06)
(0.00241697 0.00162264 -2.04504e-05)
(0.00357325 0.00199352 -3.92625e-05)
(0.00484424 0.00225755 -6.04972e-05)
(0.0061796 0.0024275 -8.23364e-05)
(0.0075436 0.0025286 -0.000102944)
(0.00891773 0.00260305 -0.000119846)
(0.000659644 0.000666846 -2.52413e-07)
(0.00140026 0.00112226 -6.17916e-06)
(0.00241329 0.00161909 -1.48204e-05)
(0.00356602 0.00198915 -2.57096e-05)
(0.00483289 0.00225311 -3.78732e-05)
(0.00616356 0.00242367 -5.04185e-05)
(0.00752248 0.00252595 -6.23644e-05)
(0.00889138 0.00260214 -7.22216e-05)
(0.000659799 0.000666799 -3.45398e-07)
(0.00139947 0.00112122 -2.43464e-06)
(0.00241105 0.00161743 -5.32832e-06)
(0.00356201 0.00198717 -8.90332e-06)
(0.00482689 0.00225112 -1.28752e-05)
(0.00615529 0.00242195 -1.69768e-05)
(0.00751171 0.00252471 -2.08981e-05)
(0.00887797 0.00260157 -2.41409e-05)
(0.000239916 0.00032537 0.000462738)
(0.00105686 0.000669503 0.000263912)
(0.00214222 0.00106639 0.000201168)
(0.00343085 0.00135335 6.69524e-05)
(0.00485567 0.00155974 -5.96508e-05)
(0.00634391 0.00169159 -0.000176102)
(0.00784114 0.00176577 -0.00027066)
(0.00932103 0.00180389 -0.000350634)
(5.46553e-05 8.94176e-05 0.000125042)
(0.000810519 0.000172921 9.13505e-05)
(0.00190129 0.000306732 3.98894e-05)
(0.00321363 0.000396735 -1.85017e-05)
(0.00465971 0.000454146 -7.45352e-05)
(0.00616686 0.0004821 -0.000126504)
(0.0076784 0.000487099 -0.000174582)
(0.0091559 0.000482544 -0.000225502)
(3.75391e-05 -0.000128383 -0.000152646)
(0.000768963 -0.000214747 -0.00015907)
(0.00184482 -0.000357113 -0.000155957)
(0.00314847 -0.000473525 -0.000139234)
(0.00458829 -0.000575117 -0.0001206)
(0.00609185 -0.000659444 -0.000104733)
(0.00760086 -0.000727986 -9.66336e-05)
(0.00906951 -0.000781067 -9.55813e-05)
(0.000183223 -0.000384711 -0.000491984)
(0.000923509 -0.000716847 -0.0003586)
(0.00196415 -0.0011246 -0.000343981)
(0.00322403 -0.00143892 -0.000253266)
(0.00462794 -0.00168645 -0.000164446)
(0.00610355 -0.00186731 -8.20511e-05)
(0.00759342 -0.00199457 -1.96896e-05)
(0.00905408 -0.00208614 1.55143e-05)
(0.000480334 -0.000602682 -0.000346155)
(0.00109296 -0.0011667 -0.000369523)
(0.00211311 -0.00172262 -0.000328759)
(0.00330776 -0.00213258 -0.000235012)
(0.00465349 -0.00243063 -0.000131861)
(0.0060775 -0.00262605 -3.50001e-05)
(0.00752914 -0.00274185 4.14318e-05)
(0.00896919 -0.00280434 8.31034e-05)
(0.000502465 -0.000622916 -0.000185989)
(0.00118521 -0.00115765 -0.000230001)
(0.00216619 -0.00170645 -0.000215084)
(0.00333023 -0.002114 -0.000159452)
(0.00463241 -0.00240631 -9.13876e-05)
(0.00601423 -0.00259595 -2.57104e-05)
(0.00742816 -0.00270589 2.52163e-05)
(0.00884184 -0.00276573 4.94242e-05)
(0.000518556 -0.000641737 -9.77839e-05)
(0.00121515 -0.00114878 -0.000131587)
(0.00218968 -0.00167867 -0.000127999)
(0.00333322 -0.0020757 -9.80935e-05)
(0.00460859 -0.00236069 -5.69774e-05)
(0.00596204 -0.00254637 -1.60922e-05)
(0.00734961 -0.00265486 1.50494e-05)
(0.00874003 -0.00271471 2.58472e-05)
(0.000523246 -0.000648333 -4.98229e-05)
(0.00122198 -0.00113879 -7.2416e-05)
(0.00219178 -0.0016541 -7.21152e-05)
(0.00332349 -0.00203987 -5.59281e-05)
(0.00458268 -0.00231748 -3.21279e-05)
(0.00591811 -0.00249897 -7.93106e-06)
(0.00728767 -0.0026056 9.74515e-06)
(0.00866079 -0.00266471 1.23181e-05)
(0.000522771 -0.000648694 -2.43215e-05)
(0.00121958 -0.0011292 -3.83641e-05)
(0.00218466 -0.00163449 -3.87294e-05)
(0.00330867 -0.00201168 -2.98121e-05)
(0.00455778 -0.00228297 -1.62285e-05)
(0.00588163 -0.00246039 -2.38267e-06)
(0.00723889 -0.00256468 7.02196e-06)
(0.00859918 -0.00262227 5.60384e-06)
(0.000520737 -0.000646855 -1.11584e-05)
(0.00121464 -0.00112124 -1.92965e-05)
(0.00217556 -0.00161996 -1.9609e-05)
(0.00329425 -0.00199128 -1.47077e-05)
(0.00453685 -0.0022579 -7.14694e-06)
(0.00585322 -0.00243198 4.604e-07)
(0.0072022 -0.00253404 5.1219e-06)
(0.00855344 -0.00258997 2.50828e-06)
(0.000518808 -0.000644872 -4.58316e-06)
(0.00121028 -0.00111564 -8.72518e-06)
(0.00216815 -0.00161036 -8.8815e-06)
(0.00328336 -0.00197807 -6.41184e-06)
(0.00452194 -0.00224169 -2.60186e-06)
(0.00583372 -0.00241347 1.16041e-06)
(0.00717753 -0.00251386 3.22178e-06)
(0.00852295 -0.00256847 1.08995e-06)
(0.000517711 -0.000643696 -1.20935e-06)
(0.00120784 -0.00111277 -2.4687e-06)
(0.00216411 -0.00160559 -2.51173e-06)
(0.00327759 -0.00197159 -1.75708e-06)
(0.00451422 -0.00223374 -5.96248e-07)
(0.0058238 -0.00240436 5.3508e-07)
(0.0071651 -0.00250388 1.10935e-06)
(0.00850765 -0.00255777 3.1243e-07)
(0.00995349 0.00184086 -0.000347986)
(0.00982015 0.00186229 -0.000286564)
(0.00972926 0.0018806 -0.000234303)
(0.00965918 0.00188978 -0.000187609)
(0.00960342 0.00189524 -0.00014491)
(0.00956093 0.00189851 -0.000103559)
(0.00953208 0.00190046 -6.23179e-05)
(0.00951738 0.00190126 -2.08154e-05)
(0.00975764 0.000511111 -0.000218377)
(0.00963319 0.000531719 -0.000187622)
(0.00954158 0.00055158 -0.000161423)
(0.00946878 0.000568812 -0.000133935)
(0.0094101 0.000582745 -0.000105486)
(0.00936516 0.000593184 -7.60952e-05)
(0.00933463 0.000600143 -4.59634e-05)
(0.00931917 0.000603647 -1.5369e-05)
(0.00966826 -0.00079205 -0.000102242)
(0.00954519 -0.000766795 -0.000104758)
(0.00944811 -0.000739168 -0.000100414)
(0.00936976 -0.000711877 -8.89885e-05)
(0.00930709 -0.000688187 -7.25029e-05)
(0.00925952 -0.000669798 -5.31462e-05)