/*--------------------------------*- C++ -*----------------------------------*\
| =========                 |                                                 |
| \\      /  F ield         | foam-extend: Open Source CFD                    |
|  \\    /   O peration     | Version:     3.1                                |
|   \\  /    A nd           | Web:         http://www.extend-project.de       |
|    \\/     M anipulation  |                                                 |
\*---------------------------------------------------------------------------*/
FoamFile
{
    version     2.0;
    format      ascii;
    class       volVectorField;
    location    "3.3";
    object      D_0;
}
// * * * * * * * * * * * * * * * * * * * * * * * * * * * * * * * * * * * * * //

dimensions      [0 1 0 0 0 0 0];

internalField   nonuniform List<vector> 
256
(
(0.000266525 0.000176788 0.000300672)
(0.000114422 3.43001e-05 9.00337e-05)
(0.000101484 -5.18706e-05 -0.000107585)
(0.000225299 -0.000195044 -0.000331318)
(0.00111397 0.000726213 0.000243334)
(0.00092468 0.000194837 8.59138e-05)
(0.000888693 -0.000227782 -0.000149202)
(0.000999628 -0.000756602 -0.000332188)
(0.00218608 0.00112169 0.00016479)
(0.00199594 0.000327277 3.72799e-05)
(0.00194674 -0.000371393 -0.000141531)
(0.00203368 -0.00116905 -0.00029654)
(0.0034618 0.00142705 5.23348e-05)
(0.00328984 0.000423209 -1.37673e-05)
(0.00323191 -0.000494495 -0.000126936)
(0.00328209 -0.00150361 -0.000222595)
(0.00487008 0.00163365 -6.18569e-05)
(0.00471484 0.000481563 -6.4826e-05)
(0.00465096 -0.000594796 -0.000109278)
(0.00467115 -0.00175061 -0.000142346)
(0.00634499 0.0017605 -0.000166055)
(0.0062049 0.000509359 -0.000112259)
(0.00613718 -0.000675322 -9.4799e-05)
(0.00613393 -0.00192519 -6.91211e-05)
(0.00783433 0.00182643 -0.000252397)
(0.00770423 0.000514055 -0.000156542)
(0.0076332 -0.000738113 -8.77529e-05)
(0.00761504 -0.00204084 -1.3602e-05)
(0.00931175 0.00185053 -0.000321697)
(0.00917357 0.000505771 -0.000199924)
(0.00909425 -0.000784682 -9.05433e-05)
(0.00907347 -0.00211436 1.35979e-05)
(0.00029898 0.00017519 0.000149093)
(0.000150708 3.57511e-05 4.64411e-05)
(0.000137585 -4.68576e-05 -6.24131e-05)
(0.00025248 -0.000183644 -0.000177689)
(0.00118392 0.000722268 0.000135253)
(0.000971298 0.000198195 4.19342e-05)
(0.000937516 -0.000217315 -9.80989e-05)
(0.00107349 -0.000739894 -0.000209339)
(0.00223648 0.00113559 8.62255e-05)
(0.00204658 0.000338382 1.00051e-05)
(0.00199992 -0.000367545 -0.00010266)
(0.00208871 -0.00116851 -0.000197611)
(0.00347962 0.00144655 9.49705e-06)
(0.00331 0.000438325 -2.79373e-05)
(0.00325464 -0.00049022 -9.74605e-05)
(0.00330417 -0.00150408 -0.000154709)
(0.00484639 0.00165732 -7.35788e-05)
(0.0046963 0.000500232 -6.7157e-05)
(0.0046347 -0.000587902 -8.87911e-05)
(0.00465085 -0.00174829 -0.00010213)
(0.0062796 0.00178563 -0.000151748)
(0.0061457 0.000530448 -0.000104755)
(0.00608005 -0.000663671 -8.18457e-05)
(0.00607105 -0.00191604 -5.29494e-05)
(0.00773144 0.00185117 -0.000218097)
(0.00760895 0.000536189 -0.000140222)
(0.00754021 -0.000720777 -8.09897e-05)
(0.00751475 -0.00202272 -1.70256e-05)
(0.00918098 0.00187361 -0.000270501)
(0.00905077 0.00052741 -0.0001736)
(0.00897405 -0.00076244 -9.00464e-05)
(0.00894619 -0.0020877 -4.89371e-06)
(0.00031364 0.00018063 7.17986e-05)
(0.000156286 3.82367e-05 2.15469e-05)
(0.000141219 -4.7258e-05 -3.65823e-05)
(0.000260608 -0.000187602 -9.48237e-05)
(0.0012147 0.000716532 6.47736e-05)
(0.000983564 0.000198687 1.42232e-05)
(0.000947561 -0.000209867 -6.31495e-05)
(0.00109713 -0.000727927 -0.000124691)
(0.00226142 0.00112797 3.22443e-05)
(0.0020575 0.000341166 -8.54552e-06)
(0.00200849 -0.000357105 -7.18701e-05)
(0.00210671 -0.00114925 -0.00012339)
(0.00348646 0.0014389 -1.95372e-05)
(0.00330731 0.000443555 -3.647e-05)
(0.00324943 -0.000476338 -7.27423e-05)
(0.00330361 -0.001478 -0.000100507)
(0.00482893 0.00165257 -7.76455e-05)
(0.00467222 0.000508643 -6.59166e-05)
(0.00460791 -0.000570566 -7.0548e-05)
(0.0046254 -0.0017173 -6.91857e-05)
(0.00623557 0.00178552 -0.000134067)
(0.00609731 0.00054229 -9.48902e-05)
(0.00602891 -0.000642871 -6.92527e-05)
(0.00601868 -0.0018811 -3.90585e-05)
(0.00766228 0.00185708 -0.000183211)
(0.0075375 0.00055123 -0.000122726)
(0.00746615 -0.000696874 -7.27508e-05)
(0.00743726 -0.00198495 -1.84072e-05)
(0.00909253 0.00188654 -0.00022197)
(0.00896183 0.000545214 -0.000148901)
(0.00888198 -0.000736141 -8.51059e-05)
(0.00884762 -0.0020482 -1.71523e-05)
(0.000318685 0.000183688 3.2344e-05)
(0.000154809 3.94818e-05 8.55434e-06)
(0.000138096 -4.74143e-05 -2.1315e-05)
(0.000260744 -0.000189641 -4.94765e-05)
(0.00122451 0.000712549 2.49213e-05)
(0.000981879 0.000198945 2.23803e-08)
(0.000943192 -0.000204124 -4.04861e-05)
(0.00109933 -0.000718141 -7.20288e-05)
(0.00226671 0.00111922 1.44955e-06)
(0.00205234 0.000342263 -1.7059e-05)
(0.00200047 -0.000346527 -4.94741e-05)
(0.00210427 -0.00112914 -7.40649e-05)
(0.00348099 0.00142845 -3.41631e-05)
(0.00329362 0.000446358 -3.76723e-05)
(0.00323283 -0.000461417 -5.30522e-05)
(0.00329044 -0.00144977 -6.23541e-05)
(0.00480873 0.00164341 -7.45852e-05)
(0.00464581 0.000514013 -5.95891e-05)
(0.00457856 -0.000551872 -5.43769e-05)
(0.00459747 -0.00168337 -4.46299e-05)
(0.00619859 0.00178 -0.000114754)
(0.00605586 0.000550822 -8.1588e-05)
(0.00598458 -0.000621037 -5.63184e-05)
(0.00597397 -0.0018435 -2.7332e-05)
(0.00760866 0.00185687 -0.000150654)
(0.00748093 0.00056308 -0.00010318)
(0.00740671 -0.000672593 -6.19852e-05)
(0.00737575 -0.00194535 -1.67779e-05)
(0.00902524 0.00189235 -0.000179184)
(0.0088924 0.000560362 -0.000123736)
(0.0088088 -0.000709989 -7.48855e-05)
(0.00877005 -0.00200769 -2.13008e-05)
(0.000320024 0.000185034 1.29245e-05)
(0.00015222 4.01505e-05 2.37303e-06)
(0.000134341 -4.73193e-05 -1.22046e-05)
(0.000258553 -0.000190087 -2.49481e-05)
(0.00122536 0.000709807 5.04026e-06)
(0.000975741 0.000199438 -5.74288e-06)
(0.000934897 -0.000199604 -2.55931e-05)
(0.00109409 -0.000710019 -4.03788e-05)
(0.00226305 0.00111307 -1.23094e-05)
(0.00204184 0.000343458 -1.85328e-05)
(0.00198763 -0.000337638 -3.32473e-05)
(0.00209425 -0.00111275 -4.29426e-05)
(0.00347 0.00142075 -3.69324e-05)
(0.0032768 0.00044889 -3.35273e-05)
(0.00321371 -0.000448538 -3.74256e-05)
(0.00327325 -0.00142637 -3.71371e-05)
(0.00478826 0.00163624 -6.48039e-05)
(0.00462067 0.000518529 -4.94864e-05)
(0.00455119 -0.000535578 -4.01334e-05)
(0.00457097 -0.00165475 -2.74644e-05)
(0.00616722 0.00177519 -9.29033e-05)
(0.00602093 0.000557788 -6.57384e-05)
(0.00594751 -0.000601994 -4.33622e-05)
(0.00593674 -0.00181142 -1.80855e-05)
(0.00756597 0.00185566 -0.000118537)
(0.00743567 0.000572634 -8.19705e-05)
(0.00735929 -0.000651474 -4.94044e-05)
(0.00732707 -0.00191123 -1.34875e-05)
(0.00897221 0.00189523 -0.000139018)
(0.00883733 0.000572508 -9.75749e-05)
(0.00875085 -0.000687256 -6.09177e-05)
(0.00870928 -0.0019725 -2.00376e-05)
(0.000320114 0.000185562 4.09727e-06)
(0.000150049 4.05289e-05 -1.02873e-07)
(0.000131384 -4.7125e-05 -6.72527e-06)
(0.000256194 -0.000189854 -1.1943e-05)
(0.00122323 0.000708015 -2.85612e-06)
(0.000969461 0.000200041 -6.6256e-06)
(0.000927086 -0.000196222 -1.55056e-05)
(0.00108758 -0.00070377 -2.16272e-05)
(0.00225686 0.00110931 -1.50705e-05)
(0.00203138 0.000344769 -1.56334e-05)
(0.00197552 -0.000330902 -2.11861e-05)
(0.00208346 -0.00110066 -2.37099e-05)
(0.00345856 0.00141605 -3.14264e-05)
(0.00326155 0.000451283 -2.59265e-05)
(0.00319685 -0.000438684 -2.47797e-05)
(0.00325735 -0.00140913 -2.09542e-05)
(0.00477051 0.00163184 -4.97995e-05)
(0.00459974 0.000522389 -3.68647e-05)
(0.00452874 -0.000523037 -2.75017e-05)
(0.00454898 -0.00163346 -1.5905e-05)
(0.00614228 0.0017722 -6.84768e-05)
(0.00599347 0.000563377 -4.81111e-05)
(0.00591861 -0.000587284 -3.0652e-05)
(0.00590774 -0.00178726 -1.11354e-05)
(0.00753329 0.00185485 -8.57585e-05)
(0.00740107 0.000580013 -5.94787e-05)
(0.00732325 -0.000635127 -3.57776e-05)
(0.00729029 -0.00188523 -9.59628e-06)
(0.00893194 0.00189691 -9.96241e-05)
(0.00879538 0.000581687 -7.04745e-05)
(0.00870699 -0.000669617 -4.46762e-05)
(0.00866378 -0.00194539 -1.56764e-05)
(0.000319907 0.00018573 7.51289e-07)
(0.000148615 4.07382e-05 -6.55993e-07)
(0.00012946 -4.69422e-05 -3.3277e-06)
(0.00025443 -0.000189476 -5.15586e-06)
(0.00122089 0.000706932 -3.96597e-06)
(0.000964798 0.000200555 -4.83673e-06)
(0.000921451 -0.000193968 -8.29119e-06)
(0.00108243 -0.00069955 -1.03972e-05)
(0.0022515 0.00110723 -1.12879e-05)
(0.00202354 0.000345866 -1.02199e-05)
(0.00196662 -0.000326412 -1.17535e-05)
(0.00207514 -0.00109275 -1.16884e-05)
(0.0034497 0.00141351 -2.07132e-05)
(0.0032504 0.000453164 -1.62656e-05)
(0.00318469 -0.000432101 -1.41197e-05)
(0.00324563 -0.0013979 -1.04986e-05)
(0.00475765 0.00162952 -3.12269e-05)
(0.00458493 0.000525247 -2.26791e-05)
(0.00451299 -0.000514635 -1.60383e-05)
(0.00453343 -0.00161956 -8.12026e-06)
(0.00612493 0.00177066 -4.19609e-05)
(0.00597453 0.000567332 -2.93106e-05)
(0.0058988 -0.000577405 -1.82426e-05)
(0.00588785 -0.00177136 -5.95456e-06)
(0.00751101 0.00185451 -5.19781e-05)
(0.00737753 0.000585074 -3.60602e-05)
(0.00729885 -0.000624126 -2.16196e-05)
(0.00726549 -0.00186796 -5.66916e-06)
(0.00890461 0.00189794 -6.00333e-05)
(0.00876692 0.000587856 -4.26066e-05)
(0.00867738 -0.000657719 -2.7194e-05)
(0.00863328 -0.00192724 -9.8114e-06)
(0.000319741 0.000185767 -2.49185e-09)
(0.000147914 4.08323e-05 -3.0619e-07)
(0.000128526 -4.68361e-05 -9.99581e-07)
(0.000253514 -0.000189231 -1.41455e-06)
(0.00121949 0.000706421 -1.66521e-06)
(0.000962372 0.000200844 -1.74162e-06)
(0.000918557 -0.000192841 -2.604e-06)
(0.00107967 -0.000697428 -3.06461e-06)
(0.00224851 0.0011063 -4.10979e-06)
(0.00201942 0.000346481 -3.53478e-06)
(0.00196199 -0.000324171 -3.76445e-06)
(0.00207072 -0.00108884 -3.49704e-06)
(0.00344494 0.00141243 -7.19621e-06)
(0.00324458 0.000454194 -5.53175e-06)
(0.00317838 -0.000428815 -4.58518e-06)
(0.00323949 -0.00139239 -3.16947e-06)
(0.00475091 0.00162854 -1.06258e-05)
(0.00457728 0.000526767 -7.64812e-06)
(0.0045049 -0.000510438 -5.26948e-06)
(0.00452541 -0.00161271 -2.47645e-06)
(0.00611601 0.00177004 -1.41337e-05)
(0.00596486 0.000569384 -9.84208e-06)
(0.00588872 -0.000572463 -6.05417e-06)
(0.00587773 -0.0017635 -1.86297e-06)
(0.00749965 0.00185439 -1.74206e-05)
(0.00736559 0.000587654 -1.20818e-05)
(0.00728651 -0.000618612 -7.22755e-06)
(0.00725297 -0.00185938 -1.86778e-06)
(0.00889071 0.00189838 -2.00659e-05)
(0.00875248 0.000590971 -1.42556e-05)
(0.00866242 -0.000651739 -9.12123e-06)
(0.00861794 -0.00191818 -3.32407e-06)
)
;

boundaryField
{
    interface
    {
        type            tractionDisplacement;
        gradient        nonuniform List<vector> 
192
(
(0.0012504 8.90088e-08 -6.27537e-06)
(0.00125106 2.32615e-07 -7.48491e-06)
(0.0012496 5.25483e-07 -7.47543e-06)
(0.00124673 8.45864e-07 -7.27339e-06)
(0.00124237 1.23213e-06 -6.95727e-06)
(0.00123606 1.75972e-06 -6.48764e-06)
(0.00122701 2.65546e-06 -5.77696e-06)
(0.00121237 4.4017e-06 -4.57372e-06)
(0.00127836 1.58951e-07 -4.18175e-06)
(0.00127813 3.40733e-07 -4.98588e-06)
(0.00127606 6.81215e-07 -4.94782e-06)
(0.00127234 1.07974e-06 -4.77587e-06)
(0.0012667 1.57845e-06 -4.5173e-06)
(0.00125852 2.26978e-06 -4.14438e-06)
(0.00124668 3.43378e-06 -3.60938e-06)
(0.00122774 5.61186e-06 -2.83028e-06)
(0.0012969 2.0556e-07 -2.92788e-06)
(0.00129628 4.22773e-07 -3.50022e-06)
(0.00129375 8.10625e-07 -3.4639e-06)
(0.00128935 1.27314e-06 -3.32432e-06)
(0.00128271 1.85533e-06 -3.11929e-06)
(0.00127309 2.65704e-06 -2.83373e-06)
(0.00125927 3.97152e-06 -2.44508e-06)
(0.00123752 6.33252e-06 -1.9299e-06)
(0.00131022 2.36666e-07 -2.12187e-06)
(0.00130939 4.82114e-07 -2.53952e-06)
(0.00130652 9.12912e-07 -2.50899e-06)
(0.00130157 1.426e-06 -2.39958e-06)
(0.00129415 2.06871e-06 -2.2415e-06)
(0.00128345 2.94405e-06 -2.02736e-06)
(0.00126819 4.35007e-06 -1.74696e-06)
(0.00124452 6.81512e-06 -1.39307e-06)
(0.00131978 2.59652e-07 -1.51365e-06)
(0.00131882 5.26652e-07 -1.81147e-06)
(0.00131569 9.91037e-07 -1.78752e-06)
(0.00131032 1.54199e-06 -1.7059e-06)
(0.0013023 2.22756e-06 -1.58946e-06)
(0.00129082 3.15197e-06 -1.43486e-06)
(0.00127453 4.6157e-06 -1.23756e-06)
(0.00124954 7.14639e-06 -9.95544e-07)
(0.00132642 2.76131e-07 -1.01788e-06)
(0.00132536 5.58719e-07 -1.21811e-06)
(0.00132204 1.04754e-06 -1.20117e-06)
(0.00131638 1.62535e-06 -1.14496e-06)
(0.00130794 2.34023e-06 -1.06545e-06)
(0.0012959 3.29691e-06 -9.61283e-07)
(0.00127891 4.79762e-06 -8.30326e-07)
(0.00125304 7.37104e-06 -6.71486e-07)
(0.00133063 2.87035e-07 -5.86262e-07)
(0.00132951 5.79709e-07 -7.01327e-07)
(0.00132607 1.08477e-06 -6.91544e-07)
(0.00132021 1.68017e-06 -6.58841e-07)
(0.00131151 2.41383e-06 -6.12817e-07)
(0.00129912 3.39091e-06 -5.5309e-07)
(0.00128169 4.9157e-06 -4.77739e-07)
(0.00125526 7.51474e-06 -3.82182e-07)
(0.00133265 2.92824e-07 -1.90632e-07)
(0.00133149 5.90077e-07 -2.27698e-07)
(0.001328 1.10224e-06 -2.24725e-07)
(0.00132205 1.70638e-06 -2.14081e-07)
(0.00131322 2.44881e-06 -1.99112e-07)
(0.00130067 3.43614e-06 -1.79825e-07)
(0.00128303 4.97701e-06 -1.55001e-07)
(0.00125626 7.58408e-06 -1.20792e-07)
(1.09308e-05 7.23725e-08 0.00114973)
(1.30776e-05 1.27851e-07 0.00114889)
(1.31548e-05 1.98457e-07 0.00114824)
(1.29808e-05 2.92527e-07 0.0011473)
(1.2715e-05 4.04896e-07 0.00114595)
(1.23458e-05 5.36693e-07 0.00114413)
(1.18492e-05 6.86119e-07 0.00114175)
(1.13079e-05 8.03277e-07 0.00113874)
(1.00547e-05 2.11513e-08 0.0010997)
(1.20342e-05 3.77271e-08 0.00109949)
(1.21003e-05 5.67502e-08 0.0010993)
(1.19489e-05 8.24212e-08 0.00109902)
(1.17254e-05 1.12105e-07 0.00109863)
(1.14243e-05 1.44074e-07 0.00109811)
(1.10382e-05 1.71046e-07 0.00109746)
(1.0708e-05 1.6209e-07 0.00109671)
(1.00418e-05 -2.70428e-08 0.00105277)
(1.20188e-05 -4.56996e-08 0.00105298)
(1.20844e-05 -6.9588e-08 0.00105321)
(1.1933e-05 -1.00411e-07 0.00105354)
(1.171e-05 -1.3707e-07 0.001054)
(1.141e-05 -1.80176e-07 0.00105463)
(1.10258e-05 -2.2871e-07 0.00105544)
(1.06983e-05 -2.6355e-07 0.00105648)
(1.09054e-05 -8.04064e-08 0.00100291)
(1.30452e-05 -1.36982e-07 0.00100376)
(1.312e-05 -2.11694e-07 0.00100444)
(1.29457e-05 -3.09713e-07 0.00100544)
(1.26804e-05 -4.27843e-07 0.00100685)
(1.23126e-05 -5.69225e-07 0.00100876)
(1.18188e-05 -7.38586e-07 0.00101129)
(1.12818e-05 -8.99354e-07 0.00101456)
(-0.000903606 -9.63547e-08 6.85177e-06)
(-0.000902881 -2.51564e-07 8.12936e-06)
(-0.000904348 -5.72774e-07 8.11249e-06)
(-0.00090722 -9.20022e-07 7.89131e-06)
(-0.000911576 -1.33875e-06 7.54482e-06)
(-0.000917854 -1.91504e-06 7.02877e-06)
(-0.00092686 -2.91625e-06 6.2435e-06)
(-0.00094155 -4.95238e-06 4.89368e-06)
(-0.000876477 -1.72336e-07 4.42126e-06)
(-0.000876696 -3.68407e-07 5.23941e-06)
(-0.000878763 -7.40343e-07 5.19106e-06)
(-0.000882477 -1.17274e-06 5.00456e-06)
(-0.000888098 -1.71422e-06 4.72407e-06)
(-0.000896245 -2.4707e-06 4.31857e-06)
(-0.000908024 -3.77243e-06 3.7342e-06)
(-0.000927051 -6.30466e-06 2.87503e-06)
(-0.000858904 -2.23527e-07 3.02815e-06)
(-0.000859518 -4.57468e-07 3.59773e-06)
(-0.000862036 -8.80012e-07 3.55226e-06)
(-0.00086643 -1.38156e-06 3.40144e-06)
(-0.000873045 -2.0136e-06 3.18024e-06)
(-0.000882602 -2.89053e-06 2.87178e-06)
(-0.000896351 -4.35875e-06 2.45083e-06)
(-0.000918167 -7.09737e-06 1.88924e-06)
(-0.00084644 -2.57774e-07 2.16159e-06)
(-0.000847264 -5.21851e-07 2.57079e-06)
(-0.000850126 -9.90306e-07 2.53274e-06)
(-0.00085506 -1.54618e-06 2.41474e-06)
(-0.000862449 -2.24345e-06 2.24466e-06)
(-0.000873069 -3.20009e-06 2.01421e-06)
(-0.000888236 -4.76849e-06 1.71208e-06)
(-0.000911949 -7.62329e-06 1.32891e-06)
(-0.000837595 -2.83051e-07 1.52365e-06)
(-0.00083856 -5.70096e-07 1.81175e-06)
(-0.000841682 -1.07445e-06 1.78199e-06)
(-0.000847026 -1.67087e-06 1.69407e-06)
(-0.000854997 -2.41412e-06 1.56902e-06)
(-0.000866396 -3.42352e-06 1.40308e-06)
(-0.00088257 -5.05455e-06 1.19126e-06)
(-0.000907581 -7.98206e-06 9.30362e-07)
(-0.000831511 -3.01135e-07 1.01526e-06)
(-0.000832571 -6.04765e-07 1.20705e-06)
(-0.000835879 -1.13523e-06 1.18601e-06)
(-0.000841519 -1.76034e-06 1.1255e-06)
(-0.000849902 -2.53489e-06 1.04024e-06)
(-0.000861845 -3.57878e-06 9.28656e-07)
(-0.000878708 -5.24964e-06 7.88457e-07)
(-0.000904589 -8.22417e-06 6.17775e-07)
(-0.000827684 -3.13066e-07 5.81157e-07)
(-0.000828802 -6.27424e-07 6.90621e-07)
(-0.00083223 -1.17521e-06 6.7841e-07)
(-0.000838059 -1.81904e-06 6.43226e-07)
(-0.000846706 -2.61357e-06 5.93914e-07)
(-0.000858993 -3.67914e-06 5.30029e-07)
(-0.000876286 -5.37574e-06 4.49542e-07)
(-0.000902707 -8.37837e-06 3.46949e-07)
(-0.000825854 -3.19376e-07 1.88378e-07)
(-0.000827006 -6.38536e-07 2.23531e-07)
(-0.000830489 -1.19398e-06 2.19753e-07)
(-0.000836409 -1.8471e-06 2.083e-07)
(-0.000845182 -2.65092e-06 1.92268e-07)
(-0.000857629 -3.72725e-06 1.71653e-07)
(-0.000875121 -5.44102e-06 1.45178e-07)
(-0.000901879 -8.45211e-06 1.08378e-07)
(1.13077e-05 -0.00113956 -9.86196e-07)
(1.18661e-05 -0.00114323 -8.3836e-07)
(1.23873e-05 -0.00114616 -6.69958e-07)
(1.27835e-05 -0.00114847 -5.21832e-07)
(1.30767e-05 -0.00115024 -3.91006e-07)
(1.32868e-05 -0.00115152 -2.72808e-07)
(1.34306e-05 -0.00115236 -1.66012e-07)
(1.35055e-05 -0.00115283 -5.78898e-08)
(1.07333e-05 -0.00109747 -3.23353e-07)
(1.10861e-05 -0.00109878 -2.9851e-07)
(1.14951e-05 -0.00109989 -2.50886e-07)
(1.18192e-05 -0.0011008 -2.02547e-07)
(1.20647e-05 -0.00110151 -1.55909e-07)
(1.22434e-05 -0.00110204 -1.10734e-07)
(1.23687e-05 -0.0011024 -6.67961e-08)
(1.24387e-05 -0.00110257 -2.25708e-08)
(1.07338e-05 -0.00105712 1.29308e-07)
(1.10872e-05 -0.00105654 1.24779e-07)
(1.1494e-05 -0.00105609 9.54584e-08)
(1.18153e-05 -0.00105577 6.74789e-08)
(1.20582e-05 -0.00105555 4.5425e-08)
(1.22347e-05 -0.00105541 2.87838e-08)
(1.23586e-05 -0.00105532 1.65634e-08)
(1.24277e-05 -0.00105528 5.73912e-09)
(1.13263e-05 -0.00101504 7.95589e-07)
(1.18919e-05 -0.00101212 6.58727e-07)
(1.24086e-05 -0.00100987 5.05786e-07)
(1.27978e-05 -0.00100817 3.78169e-07)
(1.3084e-05 -0.00100692 2.73189e-07)
(1.32882e-05 -0.00100604 1.85436e-07)
(1.34278e-05 -0.00100548 1.12584e-07)
(1.35008e-05 -0.00100515 4.00141e-08)
)
;
        traction        nonuniform List<vector> 
192
(
(26.7942 0.00190733 -0.134472)
(26.8085 0.00498462 -0.160391)
(26.7772 0.0112604 -0.160188)
(26.7157 0.0181257 -0.155858)
(26.6222 0.0264028 -0.149084)
(26.487 0.0377082 -0.139021)
(26.293 0.0569026 -0.123792)
(25.9793 0.0943222 -0.0980083)
(27.3935 0.0034061 -0.0896089)
(27.3884 0.00730142 -0.10684)
(27.3441 0.0145975 -0.106025)
(27.2645 0.0231373 -0.10234)
(27.1437 0.033824 -0.0967993)
(26.9683 0.0486382 -0.0888082)
(26.7147 0.0735809 -0.077344)
(26.3087 0.120254 -0.0606489)
(27.7907 0.00440487 -0.0627403)
(27.7773 0.00905942 -0.0750048)
(27.7233 0.0173705 -0.0742265)
(27.6289 0.0272816 -0.0712353)
(27.4865 0.039757 -0.066842)
(27.2806 0.0569365 -0.0607228)
(26.9843 0.085104 -0.0523946)
(26.5182 0.135697 -0.0413549)
(28.0762 0.00507141 -0.0454687)
(28.0584 0.010331 -0.0544183)
(27.997 0.0195624 -0.0537641)
(27.8909 0.0305572 -0.0514196)
(27.7317 0.0443295 -0.0480322)
(27.5026 0.0630869 -0.0434433)
(27.1755 0.0932158 -0.0374349)
(26.6683 0.146038 -0.0298516)
(28.2811 0.00556398 -0.0324353)
(28.2603 0.0112854 -0.0388172)
(28.1933 0.0212365 -0.038304)
(28.0783 0.0330426 -0.0365551)
(27.9065 0.0477333 -0.0340599)
(27.6604 0.0675421 -0.0307469)
(27.3113 0.0989078 -0.0265191)
(26.7759 0.153137 -0.0213331)
(28.4234 0.00591708 -0.0218117)
(28.4006 0.0119725 -0.0261023)
(28.3295 0.0224473 -0.0257394)
(28.2081 0.034829 -0.0245348)
(28.0273 0.0501478 -0.0228311)
(27.7694 0.0706481 -0.0205989)
(27.4052 0.102806 -0.0177927)
(26.8508 0.157951 -0.014389)
(28.5135 0.00615074 -0.0125628)
(28.4894 0.0124223 -0.0150284)
(28.4158 0.023245 -0.0148188)
(28.2903 0.0360036 -0.014118)
(28.1037 0.0517248 -0.0131318)
(27.8383 0.0726623 -0.0118519)
(27.4647 0.105336 -0.0102373)
(26.8984 0.16103 -0.00818961)
(28.5567 0.00627479 -0.00408497)
(28.532 0.0126445 -0.00487923)
(28.4571 0.0236193 -0.00481554)
(28.3296 0.0365652 -0.00458744)
(28.1404 0.0524745 -0.00426669)
(27.8714 0.0736316 -0.00385339)
(27.4935 0.10665 -0.00332146)
(26.9199 0.162516 -0.00258841)
(0.234232 0.00155084 24.637)
(0.280235 0.00273965 24.6191)
(0.281888 0.00425265 24.6052)
(0.278159 0.00626843 24.5849)
(0.272465 0.00867633 24.5561)
(0.264553 0.0115006 24.5171)
(0.253912 0.0147025 24.4661)
(0.242312 0.0172131 24.4015)
(0.215458 0.000453242 23.565)
(0.257875 0.000808438 23.5605)
(0.259292 0.00121608 23.5564)
(0.256048 0.00176617 23.5504)
(0.251258 0.00240225 23.542)
(0.244806 0.00308729 23.5309)
(0.236532 0.00366528 23.517)
(0.229457 0.00347336 23.5009)
(0.215181 -0.00057949 22.5593)
(0.257546 -0.000979277 22.564)
(0.258951 -0.00149117 22.5688)
(0.255708 -0.00215167 22.5758)
(0.250929 -0.00293722 22.5858)
(0.244501 -0.00386092 22.5992)
(0.236268 -0.00490093 22.6167)
(0.22925 -0.00564749 22.6389)
(0.233687 -0.00172299 21.4909)
(0.279539 -0.00293532 21.5091)
(0.281144 -0.00453631 21.5238)
(0.277407 -0.00663671 21.5451)
(0.271722 -0.00916805 21.5754)
(0.263841 -0.0121977 21.6164)
(0.253261 -0.0158268 21.6704)
(0.241752 -0.0192719 21.7405)
(-19.363 -0.00206474 0.146824)
(-19.3475 -0.00539066 0.174201)
(-19.3789 -0.0122737 0.173839)
(-19.4404 -0.0197148 0.1691)
(-19.5338 -0.0286875 0.161675)
(-19.6683 -0.0410367 0.150616)
(-19.8613 -0.0624911 0.133789)
(-20.1761 -0.106122 0.104865)
(-18.7816 -0.00369291 0.0947413)
(-18.7863 -0.00789443 0.112273)
(-18.8306 -0.0158645 0.111237)
(-18.9102 -0.0251302 0.107241)
(-19.0307 -0.0367334 0.10123)
(-19.2052 -0.0529437 0.0925409)
(-19.4577 -0.0808377 0.0800185)
(-19.8654 -0.1351 0.0616077)
(-18.4051 -0.00478987 0.064889)
(-18.4182 -0.00980289 0.0770943)
(-18.4722 -0.0188574 0.0761199)
(-18.5664 -0.0296049 0.0728881)
(-18.7081 -0.0431486 0.0681481)
(-18.9129 -0.06194 0.0615382)
(-19.2075 -0.0934018 0.0525179)
(-19.675 -0.152086 0.0404836)
(-18.138 -0.00552373 0.0463197)
(-18.1556 -0.0111825 0.0550883)
(-18.217 -0.0212208 0.054273)
(-18.3227 -0.0331325 0.0517444)
(-18.481 -0.048074 0.0480998)
(-18.7086 -0.0685733 0.0431617)
(-19.0336 -0.102182 0.0366875)
(-19.5418 -0.163356 0.0284766)
(-17.9485 -0.00606538 0.0326497)
(-17.9691 -0.0122163 0.0388231)
(-18.036 -0.023024 0.0381856)
(-18.1506 -0.0358044 0.0363015)
(-18.3214 -0.0517312 0.0336219)
(-18.5656 -0.0733611 0.0300661)
(-18.9122 -0.108312 0.0255271)
(-19.4482 -0.171044 0.0199363)
(-17.8181 -0.00645288 0.0217555)
(-17.8408 -0.0129593 0.0258653)
(-17.9117 -0.0243264 0.0254145)
(-18.0325 -0.0377215 0.0241178)
(-18.2122 -0.0543192 0.0222908)
(-18.4681 -0.0766882 0.0198998)
(-18.8294 -0.112492 0.0168955)
(-19.3841 -0.176232 0.013238)
(-17.7361 -0.00670857 0.0124534)
(-17.7601 -0.0134448 0.014799)
(-17.8335 -0.0251831 0.0145374)
(-17.9584 -0.0389794 0.0137834)
(-18.1437 -0.0560052 0.0127267)
(-18.407 -0.0788387 0.0113578)
(-18.7775 -0.115194 0.00963305)
(-19.3437 -0.179537 0.00743463)
(-17.6969 -0.00684377 0.00403667)
(-17.7216 -0.0136829 0.00478996)
(-17.7962 -0.0255853 0.00470898)
(-17.9231 -0.0395806 0.00446357)
(-18.111 -0.0568055 0.00412003)
(-18.3778 -0.0798697 0.00367828)
(-18.7526 -0.116593 0.00311095)
(-19.326 -0.181117 0.00232238)
(0.242309 -24.4191 -0.0211328)
(0.254273 -24.4977 -0.0179648)
(0.265441 -24.5605 -0.0143563)
(0.273931 -24.61 -0.0111821)
(0.280215 -24.6479 -0.00837869)
(0.284717 -24.6755 -0.00584588)
(0.287799 -24.6935 -0.0035574)
(0.289404 -24.7035 -0.0012405)
(0.229999 -23.5171 -0.006929)
(0.237559 -23.5453 -0.00639663)
(0.246324 -23.5691 -0.00537612)
(0.253268 -23.5885 -0.00434029)
(0.25853 -23.6038 -0.00334091)
(0.262358 -23.6152 -0.00237288)
(0.265043 -23.6228 -0.00143135)
(0.266544 -23.6265 -0.00048366)
(0.23001 -22.6525 0.00277088)
(0.237582 -22.6402 0.00267384)
(0.2463 -22.6305 0.00204554)
(0.253185 -22.6237 0.00144598)
(0.25839 -22.6189 0.000973392)
(0.262173 -22.6158 0.000616796)
(0.264827 -22.614 0.00035493)
(0.266308 -22.6131 0.000122981)
(0.242706 -21.7508 0.0170483)
(0.254825 -21.6882 0.0141156)
(0.265899 -21.64 0.0108383)
(0.274239 -21.6037 0.00810362)
(0.280372 -21.5769 0.00585405)
(0.284748 -21.558 0.00397363)
(0.287739 -21.5459 0.00241252)
(0.289303 -21.5389 0.000857445)
)
;
        pressure        uniform 0;
        value           nonuniform List<vector> 
192
(
(0.000580301 0.000610311 0.000309135)
(0.00126436 0.0011571 0.000262903)
(0.00235326 0.00168921 0.00016975)
(0.00359955 0.00207285 3.26172e-05)
(0.00498766 0.00233541 -0.000107309)
(0.00644378 0.00248971 -0.000235808)
(0.00792254 0.00256522 -0.00034171)
(0.00939442 0.002601 -0.000421813)
(0.000618724 0.000635766 0.000154997)
(0.00135774 0.00115224 0.000150399)
(0.00240591 0.00168531 9.44368e-05)
(0.00362201 0.00207226 3.0494e-06)
(0.00496719 0.00233752 -9.66364e-05)
(0.00638232 0.00249571 -0.000191653)
(0.00782393 0.00257534 -0.000272617)
(0.00926751 0.00261847 -0.000334257)
(0.000645932 0.000657593 7.31341e-05)
(0.00139612 0.00114737 6.91394e-05)
(0.00243637 0.00166838 3.27787e-05)
(0.00363155 0.00205223 -2.70353e-05)
(0.00495009 0.00231874 -9.56178e-05)
(0.00633725 0.00248232 -0.000163107)
(0.00775305 0.00257033 -0.000222417)
(0.00917539 0.0026259 -0.000268334)
(0.000658822 0.000668065 3.15039e-05)
(0.00141193 0.00114299 2.39201e-05)
(0.00244745 0.00165485 -2.54865e-06)
(0.00363032 0.00203406 -4.31701e-05)
(0.00493254 0.00230059 -9.0121e-05)
(0.00630167 0.00246785 -0.000137448)
(0.00770002 0.00256231 -0.000180283)
(0.00910752 0.00262688 -0.000214217)
(0.000664216 0.000672254 1.13859e-05)
(0.00141672 0.0011392 2.05066e-06)
(0.00244792 0.00164554 -1.78442e-05)
(0.00362278 0.00202153 -4.59025e-05)
(0.00491462 0.0022877 -7.80116e-05)
(0.00627202 0.00245709 -0.000110816)
(0.00765844 0.00255558 -0.000141231)
(0.0090547 0.00262576 -0.000165782)
(0.000666246 0.00067357 2.66092e-06)
(0.00141697 0.00113618 -5.87445e-06)
(0.00244441 0.00163949 -2.0066e-05)
(0.00361376 0.00201371 -3.87781e-05)
(0.00489883 0.00227963 -5.98951e-05)
(0.00624856 0.00245018 -8.16142e-05)
(0.00762687 0.00255093 -0.000102074)
(0.00901505 0.00262433 -0.000118782)
(0.000666889 0.000673776 -2.07511e-07)
(0.00141594 0.00113408 -6.0487e-06)
(0.00244061 0.00163586 -1.46223e-05)
(0.00360637 0.00200923 -2.54525e-05)
(0.00488722 0.00227506 -3.75415e-05)
(0.00623221 0.00244623 -5.00143e-05)
(0.00760539 0.00254813 -6.18716e-05)
(0.00898828 0.00262325 -7.16159e-05)
(0.000667025 0.000673712 -3.33324e-07)
(0.00141512 0.00113302 -2.39561e-06)
(0.00243831 0.00163416 -5.26769e-06)
(0.00360228 0.0020072 -8.82284e-06)
(0.00488107 0.00227302 -1.27697e-05)
(0.00622378 0.00244444 -1.68467e-05)
(0.00759443 0.00254682 -2.07389e-05)
(0.00897464 0.0026226 -2.39447e-05)
(0.00024266 0.000329349 0.000468393)
(0.00106875 0.000677448 0.000268222)
(0.00216641 0.00107862 0.000205775)
(0.00346944 0.00136843 7.10842e-05)
(0.00490983 0.00157656 -5.58263e-05)
(0.00641394 0.00170915 -0.00017236)
(0.00792673 0.00178335 -0.000266622)
(0.00942149 0.00182109 -0.000345825)
(5.52885e-05 9.0698e-05 0.000126703)
(0.000819834 0.000175197 9.32249e-05)
(0.0019231 0.000310331 4.19691e-05)
(0.00325027 0.000400984 -1.62041e-05)
(0.00471238 0.000458551 -7.19194e-05)
(0.00623586 0.000486256 -0.000123424)
(0.00776339 0.000490734 -0.000170825)
(0.0092561 0.000485482 -0.000220826)
(3.79631e-05 -0.000129723 -0.00015434)
(0.000777943 -0.000216998 -0.000160383)
(0.00186622 -0.000361184 -0.000156576)
(0.00318469 -0.000479278 -0.000138892)
(0.00464057 -0.000582477 -0.000119221)
(0.00616054 -0.000668253 -0.000102289)
(0.0076857 -0.000738074 -9.30951e-05)
(0.00916985 -0.000792343 -9.0861e-05)
(0.000185314 -0.000389258 -0.00049782)
(0.000934335 -0.000725076 -0.000362399)
(0.00198701 -0.00113767 -0.000347028)
(0.00326126 -0.00145588 -0.000254562)
(0.00468088 -0.0017066 -0.000163998)
(0.00617267 -0.00188994 -7.9937e-05)
(0.0076786 -0.0020191 -1.61089e-05)
(0.00915493 -0.00211221 2.04364e-05)
(0.000485796 -0.00061003 -0.000350391)
(0.00110565 -0.00118057 -0.000373586)
(0.00213756 -0.00174306 -0.000331778)
(0.00334579 -0.00215788 -0.000236273)
(0.00470657 -0.00245953 -0.000131251)
(0.00614628 -0.00265745 -3.2625e-05)
(0.00761374 -0.00277502 4.5335e-05)
(0.00906943 -0.00283896 8.83229e-05)
(0.000508354 -0.000630618 -0.000188368)
(0.00119915 -0.00117172 -0.000232568)
(0.00219145 -0.00172713 -0.000216982)
(0.00336874 -0.00213962 -0.000160119)
(0.00468554 -0.00243556 -9.06561e-05)
(0.00608269 -0.00262774 -2.36005e-05)
(0.00751217 -0.00273951 2.85718e-05)
(0.00894139 -0.00280085 5.38699e-05)
(0.000524742 -0.00064978 -9.90704e-05)
(0.00122959 -0.00116294 -0.000133003)
(0.0022154 -0.00169933 -0.000128955)
(0.00337198 -0.0021013 -9.81888e-05)
(0.0046617 -0.00238993 -5.60414e-05)
(0.00603022 -0.00257821 -1.40981e-05)
(0.00743311 -0.00268856 1.80348e-05)
(0.00883893 -0.00274997 2.96724e-05)
(0.000529562 -0.000656541 -5.04844e-05)
(0.00123661 -0.00115297 -7.31133e-05)
(0.00221765 -0.0016747 -7.24552e-05)
(0.00336228 -0.00206536 -5.56401e-05)
(0.00463569 -0.00234661 -3.10769e-05)
(0.00598601 -0.00253069 -6.07738e-06)
(0.00737074 -0.0026392 1.23654e-05)
(0.00875908 -0.00269988 1.55555e-05)
(0.000529133 -0.000656963 -2.46375e-05)
(0.00123425 -0.00114335 -3.86518e-05)
(0.00221053 -0.00165501 -3.87329e-05)
(0.00334739 -0.00203704 -2.93531e-05)
(0.0046106 -0.00231195 -1.52101e-05)
(0.00594923 -0.00249195 -7.70383e-07)
(0.00732152 -0.0025981 9.20096e-06)
(0.00869689 -0.00265727 8.22564e-06)
(0.000527108 -0.000655137 -1.12938e-05)
(0.0012293 -0.00113535 -1.93793e-05)
(0.00220137 -0.00164039 -1.94801e-05)
(0.00333284 -0.00201653 -1.42547e-05)
(0.00458947 -0.00228674 -6.30558e-06)
(0.00592053 -0.00246337 1.71345e-06)
(0.00728445 -0.00256727 6.76484e-06)
(0.00865066 -0.00262476 4.44741e-06)
(0.000525176 -0.00065315 -4.63238e-06)
(0.00122491 -0.00112972 -8.72948e-06)
(0.00219388 -0.00163073 -8.75428e-06)
(0.00332184 -0.00200323 -6.09076e-06)
(0.0045744 -0.00227042 -2.05025e-06)
(0.00590082 -0.00244473 1.95509e-06)
(0.0072595 -0.00254695 4.24511e-06)
(0.00861982 -0.00260311 2.28248e-06)
(0.000524075 -0.000651968 -1.22081e-06)
(0.00122245 -0.00112683 -2.46293e-06)
(0.00218981 -0.00162593 -2.46126e-06)
(0.00331601 -0.0019967 -1.64196e-06)
(0.00456659 -0.00226241 -4.04641e-07)