/*--------------------------------*- C++ -*----------------------------------*\
| =========                 |                                                 |
| \\      /  F ield         | foam-extend: Open Source CFD                    |
|  \\    /   O peration     | Version:     3.1                                |
|   \\  /    A nd           | Web:         http://www.extend-project.de       |
|    \\/     M anipulation  |                                                 |
\*---------------------------------------------------------------------------*/
FoamFile
{
    version     2.0;
    format      ascii;
    class       pointVectorField;
    location    "3.3";
    object      pointD;
}
// * * * * * * * * * * * * * * * * * * * * * * * * * * * * * * * * * * * * * //

dimensions      [0 1 0 0 0 0 0];

internalField   nonuniform List<vector> 
405
(
(0 0 0)
(0 0 0)
(0 0 0)
(0 0 0)
(0 0 0)
(0.000877762 0.000924981 0.000376933)
(0.000540487 0.000314303 0.000235761)
(0.000417919 -2.01978e-05 -2.38307e-05)
(0.000478309 -0.000361172 -0.000290575)
(0.000734626 -0.000965228 -0.000455168)
(0.00175653 0.00136169 0.00024423)
(0.00147772 0.000553886 0.00014908)
(0.0013314 -2.30517e-05 -4.59466e-05)
(0.00137536 -0.000603326 -0.000254402)
(0.00154769 -0.00141385 -0.000389143)
(0.00293734 0.0018099 0.000126179)
(0.002672 0.000780802 7.23771e-05)
(0.00252705 -3.17927e-05 -6.84509e-05)
(0.00254537 -0.00084854 -0.00022311)
(0.00267706 -0.00188881 -0.000322774)
(0.00426966 0.00212303 -2.9294e-05)
(0.00403997 0.000940993 -2.14338e-05)
(0.00390253 -4.94403e-05 -8.82178e-05)
(0.00389718 -0.0010435 -0.000169386)
(0.00397512 -0.00223656 -0.000210103)
(0.00570706 0.00233354 -0.000175704)
(0.00550654 0.00104689 -0.000109198)
(0.00537668 -7.45788e-05 -0.000106593)
(0.00535291 -0.00119708 -0.000117957)
(0.00538947 -0.00248944 -9.96695e-05)
(0.00718543 0.00245508 -0.000303043)
(0.00700758 0.00110664 -0.000186962)
(0.00688449 -0.000104558 -0.000125613)
(0.00684742 -0.00131233 -7.57767e-05)
(0.00685399 -0.0026561 -3.5791e-06)
(0.00866616 0.00252206 -0.000405436)
(0.00849912 0.00113483 -0.000255344)
(0.00837617 -0.000134853 -0.000148075)
(0.00832947 -0.00139744 -4.90976e-05)
(0.00832109 -0.0027617 6.41903e-05)
(0.0101457 0.00255406 -0.000472625)
(0.00995167 0.00115056 -0.000306037)
(0.00979182 -0.000154986 -0.000171281)
(0.00975118 -0.00145727 -4.57327e-05)
(0.00975474 -0.00283084 8.5605e-05)
(0 0 0)
(0 0 0)
(0 0 0)
(0 0 0)
(0 0 0)
(0.000944302 0.000879249 0.000216154)
(0.000620811 0.000279937 0.000134609)
(0.000522135 -9.83685e-06 -1.91318e-05)
(0.000570281 -0.000298745 -0.000181452)
(0.000815244 -0.000887486 -0.000282917)
(0.00182426 0.00140562 0.000165727)
(0.0015642 0.000589318 9.82801e-05)
(0.001447 -1.50807e-05 -3.98792e-05)
(0.00147872 -0.000619675 -0.000189266)
(0.00163937 -0.00143836 -0.000285842)
(0.00296123 0.00185988 7.13614e-05)
(0.00271941 0.000823788 3.73573e-05)
(0.00260425 -2.34794e-05 -5.86901e-05)
(0.00261239 -0.000872785 -0.000166751)
(0.00272932 -0.00191892 -0.000234577)
(0.00424591 0.00218155 -4.54234e-05)
(0.00403744 0.000991195 -3.34454e-05)
(0.00392777 -3.87586e-05 -7.59038e-05)
(0.003915 -0.00107075 -0.000130872)
(0.00398097 -0.00227088 -0.000154428)
(0.00563204 0.0023902 -0.00016105)
(0.00545115 0.00109705 -0.000102992)
(0.00534725 -5.99378e-05 -9.24912e-05)
(0.0053181 -0.00121708 -9.41416e-05)
(0.00534441 -0.00251474 -7.09898e-05)
(0.00706484 0.00250691 -0.000263738)
(0.00690446 0.00115408 -0.000165833)
(0.00680514 -8.49821e-05 -0.000110149)
(0.00676423 -0.00132047 -6.48582e-05)
(0.00676226 -0.00266744 1.48438e-06)
(0.00850895 0.00256603 -0.00034635)
(0.00835695 0.00117609 -0.000220324)
(0.00825524 -0.00011083 -0.000131047)
(0.00820681 -0.00139016 -5.00717e-05)
(0.00819208 -0.00275445 4.97939e-05)
(0.00997118 0.00259199 -0.000399159)
(0.00979112 0.0011865 -0.000260137)
(0.00965107 -0.000129004 -0.00015325)
(0.00960868 -0.00143983 -5.6641e-05)
(0.00960621 -0.00281106 5.64555e-05)
(0 0 0)
(0 0 0)
(0 0 0)
(0 0 0)
(0 0 0)
(0.000993164 0.000888665 0.000110128)
(0.000651533 0.000280341 6.70097e-05)
(0.000546713 -5.93523e-06 -1.70123e-05)
(0.000598771 -0.00029136 -0.000107172)
(0.000855345 -0.000892771 -0.00016134)
(0.00187736 0.00139834 8.4412e-05)
(0.00160078 0.000591431 4.55134e-05)
(0.00147668 -8.58284e-06 -3.50456e-05)
(0.00151455 -0.000609403 -0.000122905)
(0.00168906 -0.00142289 -0.000176168)
(0.00298961 0.00185004 2.33835e-05)
(0.0027414 0.000830733 3.9454e-06)
(0.00262365 -1.47839e-05 -5.16541e-05)
(0.00263369 -0.00086274 -0.000114805)
(0.00275483 -0.00189371 -0.000150157)
(0.00424438 0.00217283 -5.64729e-05)
(0.00403208 0.00100143 -4.67838e-05)
(0.00392129 -2.71095e-05 -6.70758e-05)
(0.00390863 -0.00105771 -9.50336e-05)
(0.00397611 -0.00223918 -0.000101478)
(0.00559619 0.00238484 -0.000139185)
(0.00541368 0.00111055 -9.84165e-05)
(0.00530968 -4.48941e-05 -8.21617e-05)
(0.0052792 -0.00119992 -7.31533e-05)
(0.00530432 -0.00247733 -4.75419e-05)
(0.00699627 0.00250701 -0.000215047)
(0.00683536 0.00117035 -0.00014629)
(0.00673681 -6.65326e-05 -9.83304e-05)
(0.00669359 -0.00129835 -5.63749e-05)
(0.00668851 -0.00262577 -3.84256e-07)
(0.00841245 0.00257423 -0.000277406)
(0.00826129 0.00119458 -0.000188035)
(0.00816106 -8.95527e-05 -0.000117394)
(0.00810953 -0.00136329 -5.14923e-05)
(0.00808991 -0.0027103 2.88843e-05)
(0.00985921 0.00260637 -0.000315302)
(0.00968105 0.00120655 -0.000217478)
(0.00954202 -0.000105666 -0.000138554)
(0.00949315 -0.00140901 -6.70955e-05)
(0.00948291 -0.00276449 2.07896e-05)
(0 0 0)
(0 0 0)
(0 0 0)
(0 0 0)
(0 0 0)
(0.00101658 0.000894449 4.84509e-05)
(0.000660859 0.000280818 2.91327e-05)
(0.000549289 -3.73862e-06 -1.46665e-05)
(0.000603688 -0.000287766 -6.21813e-05)
(0.000869732 -0.000894409 -8.79025e-05)
(0.00190113 0.00138867 2.9468e-05)
(0.00161161 0.000588957 1.30421e-05)
(0.00147945 -3.59248e-06 -2.97921e-05)
(0.00152034 -0.000597427 -7.69331e-05)
(0.00170465 -0.00140508 -0.000101029)
(0.00300203 0.0018333 -1.15456e-05)
(0.00274404 0.00082822 -1.61847e-05)
(0.00261967 -6.86263e-06 -4.39619e-05)
(0.00263118 -0.000844711 -7.59409e-05)
(0.00275954 -0.00186208 -8.85339e-05)
(0.00423791 0.00215457 -6.56485e-05)
(0.00401933 0.00100053 -5.2153e-05)
(0.00390331 -1.60271e-05 -5.73254e-05)
(0.00389056 -0.00103459 -6.65704e-05)
(0.003962 -0.00219844 -6.07817e-05)
(0.00556768 0.0023692 -0.000123359)
(0.00538162 0.00111278 -8.96135e-05)
(0.00527348 -3.05157e-05 -7.0574e-05)
(0.00524168 -0.00117277 -5.51924e-05)
(0.00526785 -0.00243088 -2.82821e-05)
(0.00694565 0.00249735 -0.000177803)
(0.00678315 0.00117668 -0.000125223)
(0.00668141 -4.89898e-05 -8.48803e-05)
(0.00663588 -0.00126812 -4.7306e-05)
(0.00662936 -0.00257645 1.92807e-07)
(0.00834215 0.00257365 -0.000223646)
(0.00819132 0.00120554 -0.000156751)
(0.00808852 -6.92146e-05 -0.00010176)
(0.00803336 -0.00133089 -4.87743e-05)
(0.00800953 -0.00265997 1.57399e-05)
(0.00977661 0.00261503 -0.000251421)
(0.0095997 0.00122269 -0.000179317)
(0.00945706 -8.26629e-05 -0.00012119)
(0.00940111 -0.00137546 -6.74199e-05)
(0.00938345 -0.00271442 1.33184e-06)
(0 0 0)
(0 0 0)
(0 0 0)
(0 0 0)
(0 0 0)
(0.0010263 0.000896124 1.66938e-05)
(0.000661567 0.000280904 9.68736e-06)
(0.000545427 -2.10105e-06 -1.18338e-05)
(0.000600617 -0.000284543 -3.54877e-05)
(0.000871892 -0.000891253 -4.62311e-05)
(0.00190922 0.0013811 6.04355e-07)
(0.00161032 0.000586764 -3.3911e-06)
(0.00147244 5.73017e-07 -2.39874e-05)
(0.00151425 -0.000586903 -4.71113e-05)
(0.0017045 -0.00138914 -5.54062e-05)
(0.00300286 0.00182021 -2.83334e-05)
(0.0027366 0.000825246 -2.44311e-05)
(0.002607 1.06839e-07 -3.55047e-05)
(0.00261885 -0.000827781 -4.89017e-05)
(0.00275215 -0.00183504 -4.91462e-05)
(0.0042271 0.0021395 -6.54097e-05)
(0.00400221 0.000998378 -4.99099e-05)
(0.00388176 -6.13994e-06 -4.65104e-05)
(0.00386859 -0.00101246 -4.52409e-05)
(0.00394316 -0.002163 -3.35242e-05)
(0.00554288 0.00235554 -0.00010536)
(0.00535239 0.00111291 -7.67522e-05)
(0.00524059 -1.77097e-05 -5.75682e-05)
(0.00520768 -0.00114675 -4.01717e-05)
(0.00523505 -0.00238995 -1.46675e-05)
(0.00690622 0.00248778 -0.000143901)
(0.00674081 0.00118012 -0.00010279)
(0.00663609 -3.34411e-05 -6.96077e-05)
(0.00658877 -0.0012394 -3.75992e-05)
(0.00658158 -0.00253241 1.61335e-06)
(0.008289 0.00257037 -0.000177111)
(0.00813661 0.00121284 -0.000126225)
(0.00803109 -5.11925e-05 -8.37953e-05)
(0.00797312 -0.00130042 -4.2092e-05)
(0.00794663 -0.00261432 8.67226e-06)
(0.00971351 0.00261801 -0.00019692)
(0.00953537 0.00123414 -0.000142985)
(0.00938893 -6.21266e-05 -0.000100228)
(0.00932774 -0.00134384 -5.99585e-05)
(0.00930535 -0.00266822 -6.95368e-06)
(0 0 0)
(0 0 0)
(0 0 0)
(0 0 0)
(0 0 0)
(0.00102948 0.000895854 2.28208e-06)
(0.000659525 0.000280867 9.28868e-07)
(0.000540515 -7.94389e-07 -8.80629e-06)
(0.000595777 -0.000281745 -1.97286e-05)
(0.000869432 -0.000886496 -2.32851e-05)
(0.00190984 0.00137568 -1.08853e-05)
(0.00160491 0.000585489 -9.35256e-06)
(0.00146329 3.99704e-06 -1.7943e-05)
(0.00150515 -0.000578618 -2.8011e-05)
(0.00169861 -0.00137622 -2.89998e-05)
(0.00299815 0.00181147 -3.1233e-05)
(0.00272616 0.000823511 -2.42291e-05)
(0.00259297 5.88162e-06 -2.66798e-05)
(0.00260466 -0.00081437 -3.04206e-05)
(0.00274079 -0.00181435 -2.57146e-05)
(0.00421481 0.00212942 -5.63568e-05)
(0.00398517 0.000997204 -4.18409e-05)
(0.00386156 2.03312e-06 -3.51151e-05)
(0.00384791 -0.000994726 -2.95081e-05)
(0.00392439 -0.00213596 -1.69738e-05)
(0.00552155 0.00234616 -8.34294e-05)
(0.00532741 0.00111328 -6.04752e-05)
(0.00521293 -7.19946e-06 -4.36856e-05)
(0.00517919 -0.0011257 -2.77669e-05)
(0.00520737 -0.00235831 -6.32443e-06)
(0.00687513 0.00248082 -0.000109937)
(0.00670705 0.00118277 -7.88078e-05)
(0.00660009 -2.07833e-05 -5.30772e-05)
(0.00655154 -0.001216 -2.78188e-05)
(0.00654398 -0.00249777 2.5554e-06)
(0.00824819 0.00256721 -0.000133177)
(0.008094 0.00121814 -9.55122e-05)
(0.00798639 -3.66136e-05 -6.41036e-05)
(0.00792652 -0.00127546 -3.29205e-05)
(0.00789842 -0.00257774 5.06399e-06)
(0.0096648 0.00261889 -0.000146986)
(0.00948491 0.00124242 -0.000107513)
(0.00933547 -4.55139e-05 -7.68076e-05)
(0.00927087 -0.0013177 -4.75905e-05)
(0.00924563 -0.00263063 -8.45587e-06)
(0 0 0)
(0 0 0)
(0 0 0)
(0 0 0)
(0 0 0)
(0.00103002 0.000895005 -2.50437e-06)
(0.000657207 0.000280826 -1.88837e-06)
(0.000536479 1.77588e-07 -5.79329e-06)
(0.000591565 -0.00027961 -1.03236e-05)
(0.000866117 -0.000882152 -1.09408e-05)
(0.00190793 0.00137207 -1.18975e-05)
(0.00159939 0.000584887 -9.03881e-06)
(0.00145546 6.55964e-06 -1.18887e-05)
(0.0014971 -0.000572719 -1.55618e-05)
(0.00169216 -0.0013668 -1.41281e-05)
(0.00299238 0.0018061 -2.50607e-05)
(0.00271678 0.000822784 -1.86611e-05)
(0.00258132 1.01954e-05 -1.77601e-05)
(0.00259272 -0.000804885 -1.7551e-05)
(0.00273033 -0.00179992 -1.24025e-05)
(0.0042041 0.00212333 -4.08356e-05)
(0.00397129 0.000996923 -2.98356e-05)
(0.00384563 8.10411e-06 -2.34722e-05)
(0.00383157 -0.000982139 -1.76822e-05)
(0.0039091 -0.00211723 -7.71709e-06)
(0.00550507 0.00234046 -5.77813e-05)
(0.00530836 0.00111401 -4.16704e-05)
(0.00519211 5.50574e-07 -2.93222e-05)
(0.00515779 -0.00111065 -1.73919e-05)
(0.00518643 -0.00233626 -2.032e-06)
(0.00685231 0.00247643 -7.45158e-05)
(0.00668222 0.00118492 -5.34157e-05)
(0.00657376 -1.1519e-05 -3.57583e-05)
(0.00652444 -0.00119916 -1.82849e-05)
(0.00651667 -0.00247334 2.49112e-06)
(0.0082188 0.00256494 -8.93439e-05)
(0.00806308 0.00122193 -6.4203e-05)
(0.00795403 -2.60077e-05 -4.3283e-05)
(0.007893 -0.00125736 -2.24242e-05)
(0.00786403 -0.00255158 2.98548e-06)
(0.00962971 0.00261894 -9.81522e-05)
(0.0094482 0.00124807 -7.19838e-05)
(0.00929668 -3.34644e-05 -5.18802e-05)
(0.00923003 -0.00129859 -3.26577e-05)
(0.00920323 -0.00260339 -6.68963e-06)
(0 0 0)
(0 0 0)
(0 0 0)
(0 0 0)
(0 0 0)
(0.00102979 0.000894283 -2.3029e-06)
(0.000655588 0.000280802 -1.60318e-06)
(0.000533949 7.77798e-07 -2.86492e-06)
(0.000588853 -0.000278284 -4.395e-06)
(0.000863661 -0.000879245 -4.2466e-06)
(0.00190602 0.00137 -7.19064e-06)
(0.00159559 0.000584651 -5.27536e-06)
(0.00145041 8.14322e-06 -5.91225e-06)
(0.00149183 -0.000569199 -6.9181e-06)
(0.00168759 -0.00136109 -5.64678e-06)
(0.00298809 0.00180321 -1.36904e-05)
(0.00271054 0.00082257 -1.00208e-05)
(0.00257382 1.28546e-05 -8.86222e-06)
(0.002585 -0.000799264 -8.00663e-06)
(0.0027233 -0.0017914 -4.89054e-06)
(0.00419695 0.00212014 -2.13403e-05)
(0.00396238 0.000997013 -1.54655e-05)
(0.00383558 1.18301e-05 -1.17457e-05)
(0.00382124 -0.000974677 -8.26972e-06)
(0.00389928 -0.00210627 -2.84176e-06)
(0.00549466 0.00233746 -2.95359e-05)
(0.00529646 0.00111468 -2.12314e-05)
(0.00517921 5.2822e-06 -1.47125e-05)
(0.00514456 -0.0011017 -8.36384e-06)
(0.00517342 -0.00232331 -3.75656e-07)
(0.00683826 0.00247407 -3.76645e-05)
(0.00666697 0.00118635 -2.69801e-05)
(0.00655766 -5.89155e-06 -1.79832e-05)
(0.00650792 -0.00118909 -9.04969e-06)
(0.00650004 -0.00245889 1.50666e-06)
(0.00820088 0.0025636 -4.49062e-05)
(0.00804423 0.00122423 -3.22817e-05)
(0.00793436 -1.95903e-05 -2.17945e-05)
(0.00787272 -0.00124648 -1.13223e-05)
(0.00784331 -0.002536 1.43338e-06)
(0.00960834 0.00261874 -4.92139e-05)
(0.00942581 0.00125138 -3.61164e-05)
(0.0092731 -2.6183e-05 -2.61198e-05)
(0.00920536 -0.00128703 -1.65453e-05)
(0.00917779 -0.00258703 -3.56373e-06)
(0 0 0)
(0 0 0)
(0 0 0)
(0 0 0)
(0 0 0)
(0.00102963 0.000894012 -0)
(0.000655018 0.000280794 -0)
(0.000533095 9.80668e-07 -0)
(0.000587928 -0.000277835 0)
(0.000862778 -0.000878234 0)
(0.00190526 0.00136933 -0)
(0.00159425 0.000584593 0)
(0.00144868 8.67841e-06 0)
(0.00149002 -0.00056803 0)
(0.00168598 -0.00135918 0)
(0.00298653 0.0018023 -0)
(0.00270837 0.000822536 0)
(0.00257126 1.37522e-05 0)
(0.00258234 -0.000797404 0)
(0.00272085 -0.00178859 0)
(0.00419445 0.00211915 -0)
(0.00395932 0.000997088 0)
(0.00383215 1.30849e-05 -0)
(0.00381772 -0.000972209 0)
(0.0038959 -0.00210266 0)
(0.00549109 0.00233654 -0)
(0.00529241 0.00111494 0)
(0.00517485 6.87169e-06 0)
(0.00514009 -0.00109874 0)
(0.00516901 -0.00231905 0)
(0.0068335 0.00247333 -0)
(0.00666183 0.00118686 0)
(0.00655224 -4.00549e-06 0)
(0.00650236 -0.00118575 0)
(0.00649445 -0.00245412 0)
(0.00819484 0.00256314 -0)
(0.00803788 0.001225 0)
(0.00792776 -1.74424e-05 0)
(0.00786592 -0.00124286 0)
(0.00783638 -0.00253083 0)
(0.00960112 0.00261861 -0)
(0.00941827 0.00125245 -0)
(0.00926519 -2.37441e-05 0)
(0.0091971 -0.00128317 0)
(0.00916929 -0.00258158 0)
)
;

boundaryField
{
    interface
    {
        type            calculated;
    }
    symmetry
    {
        type            symmetryPlane;
    }
    bottom
    {
        type            fixedValue;
        value           uniform (0 0 0);
    }
}


// ************************************************************************* //
