/*--------------------------------*- C++ -*----------------------------------*\
| =========                 |                                                 |
| \\      /  F ield         | foam-extend: Open Source CFD                    |
|  \\    /   O peration     | Version:     3.1                                |
|   \\  /    A nd           | Web:         http://www.extend-project.de       |
|    \\/     M anipulation  |                                                 |
\*---------------------------------------------------------------------------*/
FoamFile
{
    version     2.0;
    format      ascii;
    class       volSymmTensorField;
    location    "3.3";
    object      sigmaCauchy;
}
// * * * * * * * * * * * * * * * * * * * * * * * * * * * * * * * * * * * * * //

dimensions      [1 -1 -2 0 0 0 0];

internalField   nonuniform List<symmTensor> 
256
(
(175.957 71.6364 -1.09976 412.033 35.3656 201.319)
(25.5892 54.0358 -7.75536 81.2156 11.0728 32.2599)
(-53.5133 46.8875 -8.83016 -110.203 -15.3012 -54.9741)
(-202.043 43.4686 -4.84653 -397.534 -33.5794 -219.364)
(-71.5221 32.2885 -3.28638 122.652 -11.037 -20.6618)
(-26.9547 69.6172 -12.9199 42.6888 -5.0771 -8.82362)
(3.03886 63.8678 -13.3539 -53.9578 2.03462 -2.67506)
(42.0941 19.0832 -4.67521 -127.027 7.06739 9.45763)
(-23.8751 39.3389 -1.44397 148.883 -6.42385 25.9734)
(-26.9326 67.8949 -8.85911 37.2263 -2.6512 -3.94269)
(-1.32189 62.9672 -9.20538 -49.8292 0.0407424 -7.60934)
(-4.26787 25.0648 -2.79096 -147.78 3.03023 -31.2399)
(-34.9927 34.5766 -1.68421 99.6369 -8.66535 12.8408)
(-27.6359 62.1013 -7.41305 24.0222 -2.90717 -4.86311)
(-0.635523 58.1188 -7.45071 -36.7408 1.10433 -4.02979)
(6.90422 22.8461 -2.65071 -99.6234 6.04726 -14.074)
(-32.2505 29.7191 -1.38413 68.9305 -7.77759 13.2744)
(-26.2528 53.6542 -6.02469 14.447 -2.34254 -3.37538)
(-2.46014 50.8024 -5.96159 -27.1548 1.24661 -3.58676)
(3.98176 21.1334 -2.23487 -69.1556 6.10376 -11.8432)
(-33.5743 22.9525 -1.46014 40.7108 -6.64828 10.7108)
(-26.2529 43.2871 -5.29112 5.99803 -1.91542 -2.87156)
(-4.02095 41.7445 -5.08988 -18.6576 1.25324 -3.04772)
(4.10092 18.0161 -2.15178 -40.9408 5.80679 -8.05154)
(-33.7817 15.5212 -1.97802 23.7815 -5.43523 11.4275)
(-27.9935 32.0021 -5.11504 -0.183762 -1.81805 -2.62677)
(-5.96867 31.2371 -4.6966 -12.1272 0.926702 -3.18141)
(4.23336 13.6457 -2.3348 -20.8336 4.7152 -6.58066)
(-45.5694 10.1021 -2.50075 8.25062 -3.01923 6.44839)
(-42.4622 19.35 -4.85457 -8.3836 -1.14354 -8.83072)
(-2.42056 17.1449 -4.58105 -2.20866 0.173647 0.485708)
(10.1703 6.6338 -2.98412 -5.95309 1.82851 -3.76849)
(178.566 80.5524 -0.606835 408.487 21.4591 209.528)
(32.1973 64.5932 -6.28215 84.7433 6.14837 39.0332)
(-47.4966 57.6679 -7.51474 -98.3411 -10.9475 -51.8421)
(-193.159 51.569 -4.15485 -381.218 -23.1514 -217.66)
(-39.806 33.5487 -2.29492 167.027 -4.64966 17.3505)
(-4.51494 72.0557 -12.0158 67.8448 -3.00087 12.6286)
(-16.4656 65.8818 -13.3864 -77.4939 -1.13275 -24.0655)
(8.76494 20.0308 -5.60698 -169.645 -0.170395 -29.5952)
(-18.5292 35.2537 -1.15302 154.66 -9.75283 30.7637)
(-16.2106 62.3666 -9.54867 46.1637 -3.90438 3.55372)
(-7.48099 57.5483 -10.8063 -54.829 1.32892 -12.7663)
(-8.13307 21.3505 -4.17246 -150.82 6.0834 -34.1017)
(-25.2292 29.7195 -0.250231 109.269 -11.7729 21.8115)
(-16.5661 54.1376 -6.87469 33.3317 -4.03158 2.86678)
(-6.87837 50.2149 -8.00877 -40.689 2.5756 -9.30132)
(-1.30135 18.246 -3.13947 -105.488 9.35601 -21.0855)
(-25.2236 24.3706 0.690125 74.5602 -11.5655 19.3155)
(-16.9629 45.0542 -4.7123 21.7766 -3.69223 2.44556)
(-6.50372 42.3306 -5.801 -27.9631 3.02311 -6.63332)
(-1.29555 16.1379 -2.1336 -70.4025 10.2915 -15.7513)
(-26.5877 18.1406 1.22596 45.9733 -10.1232 16.9815)
(-17.6943 35.4932 -3.26908 12.5296 -3.17472 2.25162)
(-6.78906 34.0915 -4.27036 -17.8607 2.82333 -4.97026)
(-0.67383 13.5533 -1.49894 -41.0161 9.69721 -11.6921)
(-27.3505 11.5318 1.23491 28.2228 -7.91575 17.2731)
(-20.7134 25.836 -2.61108 4.76386 -2.70445 1.21035)
(-7.38935 25.3169 -3.48275 -10.1146 1.99753 -3.86862)
(0.860726 10.272 -1.25748 -19.1923 7.65078 -8.89087)
(-38.6578 8.13873 0.873293 13.0553 -4.46584 12.5493)
(-35.9388 16.1751 -2.54891 -4.45625 -1.70536 -5.9056)
(-4.54662 14.1729 -3.75871 -1.73684 0.720438 -0.858129)
(5.69893 5.17841 -2.07612 -6.32683 3.70093 -7.0234)
(185.026 84.6028 -0.563799 418.673 10.4442 223.318)
(35.0616 67.2976 -4.05303 88.9686 2.41117 44.7417)
(-47.617 59.962 -4.89792 -97.8395 -6.82801 -54.699)
(-199.11 53.7023 -2.76474 -388.346 -13.1647 -230.852)
(-40.3957 34.0526 -1.85505 168.143 -3.21516 29.5453)
(-2.68234 73.17 -8.12749 71.972 -2.40005 19.9326)
(-17.8743 66.9239 -9.2858 -78.8555 -1.4273 -30.204)
(6.75927 20.4745 -4.33502 -171.438 -0.752202 -44.4105)
(-19.3402 34.8292 -1.36593 156.752 -7.55356 38.5096)
(-15.589 61.8377 -7.08712 49.3333 -3.30914 8.4694)
(-8.48199 56.9408 -8.18172 -55.8491 0.856036 -16.8681)
(-10.3073 20.763 -3.57827 -153.394 4.49659 -45.1301)
(-26.4323 28.8305 -0.646982 110.34 -9.58363 25.3296)
(-16.19 52.1301 -5.24907 35.86 -3.54392 6.3208)
(-7.98579 48.1872 -6.21819 -40.79 2.23432 -11.6542)
(-3.73038 17.3438 -2.60364 -107.34 7.66337 -28.3763)
(-27.3344 23.1216 0.103769 74.555 -9.76937 19.2333)
(-16.73 42.4622 -3.44066 24.025 -3.32311 4.91227)
(-7.56995 39.7842 -4.33838 -27.4782 2.83691 -7.6438)
(-3.05097 15.0095 -1.67808 -71.0103 8.91421 -19.3843)
(-29.0469 16.8115 0.63243 45.4986 -8.73987 14.5808)
(-17.4604 32.8708 -2.13683 14.5311 -2.87074 4.04068)
(-7.71135 31.6283 -2.95544 -16.9153 2.77279 -4.87823)
(-2.04168 12.5433 -1.01692 -40.8307 8.66273 -12.5862)
(-29.5026 10.2166 0.767947 28.0283 -6.84605 13.6449)
(-20.4415 23.6739 -1.56056 6.45811 -2.33119 2.41659)
(-8.23226 23.4409 -2.33116 -9.00557 2.06003 -2.91556)
(-0.231781 9.58317 -0.783962 -18.4533 7.00692 -7.55491)
(-41.4766 7.5102 0.437349 11.603 -3.61975 6.67237)
(-36.1303 15.1151 -1.88055 -3.41508 -1.28491 -5.67461)
(-5.872 13.3111 -3.07803 -0.781717 0.776589 0.87118)
(5.47119 5.00251 -1.77404 -4.23899 3.32969 -2.48765)
(188.282 86.1296 -0.367008 424.376 4.23776 231.7)
(36.0008 67.7598 -2.43502 91.0471 0.483078 47.819)
(-48.0125 60.0966 -2.94144 -97.7274 -4.17339 -56.6029)
(-202.086 54.0869 -1.65889 -391.748 -7.11124 -238.38)
(-41.418 34.1612 -1.12258 167.946 -2.68462 38.1124)
(-3.04331 73.6569 -5.08011 73.4033 -1.95171 23.8607)
(-18.2759 67.3667 -5.86189 -78.3015 -1.20935 -33.5115)
(6.29798 20.6198 -2.82739 -170.937 -0.463445 -53.9071)
(-20.0284 34.95 -0.97213 157.872 -5.45622 45.8887)
(-16.5762 62.1089 -4.78502 50.5367 -2.52216 11.4366)
(-8.90271 57.2154 -5.5328 -55.3824 0.458725 -19.5392)
(-10.9544 20.9035 -2.51845 -153.524 3.07758 -53.3749)
(-27.288 28.7909 -0.554751 111.562 -6.92954 30.1526)
(-17.268 52.0212 -3.71813 36.9743 -2.68219 8.44962)
(-8.60398 48.0994 -4.35227 -40.289 1.59129 -13.418)
(-4.42291 17.3707 -1.8778 -107.488 5.46556 -34.1668)
(-28.225 22.9398 -0.0473242 75.8305 -7.2214 21.6802)
(-17.785 42.0595 -2.49542 25.127 -2.53636 6.34268)
(-8.30592 39.4424 -3.05008 -26.9222 2.16745 -8.46809)
(-3.74352 14.9626 -1.19029 -71.0158 6.61712 -22.5793)
(-29.8832 16.5111 0.341259 46.8552 -6.62381 15.1774)
(-18.4205 32.3124 -1.56805 15.6133 -2.21954 4.95401)
(-8.45995 31.2015 -2.05371 -16.2812 2.20674 -4.82419)
(-2.72172 12.4986 -0.675506 -40.6696 6.63432 -13.5111)
(-29.9398 9.82109 0.438349 29.7803 -5.33222 13.1308)
(-21.3026 23.1476 -1.24109 7.47937 -1.80874 2.94679)
(-9.05603 23.1056 -1.71361 -8.35308 1.69162 -2.11137)
(-0.945119 9.60763 -0.530836 -18.0429 5.50665 -6.53813)
(-41.8303 7.37404 0.0505263 13.156 -2.94911 5.18574)
(-37.1239 14.8766 -1.83687 -2.42958 -1.01111 -5.36567)
(-7.29564 13.1446 -2.67227 -0.28837 0.662617 2.25599)
(4.60021 5.08417 -1.47729 -3.54799 2.67172 0.322289)
(189.447 86.5618 -0.20465 426.765 1.17407 235.966)
(36.3169 67.5059 -1.38518 92.144 -0.340411 49.48)
(-48.2026 59.6376 -1.67498 -97.3377 -2.50944 -57.5772)
(-202.901 53.9033 -0.939291 -392.2 -3.69443 -241.735)
(-42.3604 34.083 -0.591338 167.666 -2.24288 43.2363)
(-3.54517 73.693 -2.99563 74.2049 -1.53231 26.1277)
(-18.6123 67.3968 -3.48995 -77.5375 -0.906561 -35.4542)
(5.98719 20.6317 -1.70505 -170.226 -0.173984 -59.6321)
(-20.881 35.0339 -0.578699 158.297 -3.85854 50.7503)
(-17.4359 62.3533 -3.01466 51.2658 -1.82737 13.3151)
(-9.28531 57.5059 -3.49473 -54.6666 0.22474 -21.2778)
(-11.1839 21.0782 -1.60672 -152.938 2.08015 -58.6175)
(-28.1928 28.9117 -0.362442 112.254 -4.77248 33.7542)
(-18.1592 52.3021 -2.45307 37.7372 -1.89685 9.90313)
(-9.07532 48.431 -2.84716 -39.6557 1.04668 -14.6785)
(-4.69444 17.5978 -1.22849 -107.028 3.69308 -38.1484)
(-29.0856 23.0375 -0.0588728 76.7449 -5.01005 23.8797)
(-18.6357 42.2744 -1.71221 25.9284 -1.79504 7.38091)
(-8.82656 39.7236 -2.0399 -26.3491 1.50438 -9.12584)
(-4.05729 15.194 -0.782603 -70.644 4.56724 -24.9688)
(-30.6604 16.5363 0.178948 47.9235 -4.69105 16.1644)
(-19.1862 32.4236 -1.14088 16.4364 -1.59438 5.67702)
(-8.99681 31.412 -1.41518 -15.7489 1.57455 -4.87075)
(-3.05864 12.7208 -0.445809 -40.3029 4.68265 -14.3328)
(-30.4533 9.75177 0.201066 31.1154 -3.8827 13.3514)
(-22.0298 23.1835 -1.02792 8.2631 -1.32358 3.42991)
(-9.68258 23.2561 -1.30009 -7.86901 1.22352 -1.62046)
(-1.31064 9.82139 -0.397385 -17.5523 3.9594 -5.94399)
(-42.5423 7.39853 -0.204456 14.1504 -2.19934 4.48493)
(-38.1601 14.9319 -1.70717 -1.80461 -0.745326 -5.19626)
(-8.36774 13.2021 -2.24881 0.0957939 0.476699 3.13046)
(4.09944 5.21761 -1.21553 -2.92359 1.93372 2.12431)
(189.72 86.5785 -0.0961333 427.564 -0.0839486 238.002)
(36.4075 67.1104 -0.740614 92.7533 -0.547681 50.3648)
(-48.2217 59.1178 -0.900088 -96.8279 -1.45257 -57.9941)
(-202.787 53.5969 -0.500845 -391.45 -1.82208 -242.966)
(-42.9876 33.9402 -0.263485 167.516 -1.70821 46.1778)
(-3.94259 73.5309 -1.65477 74.7295 -1.10825 27.4006)
(-18.8582 67.2449 -1.95149 -76.8377 -0.615973 -36.5562)
(5.70927 20.5904 -0.95662 -169.591 -0.0109795 -62.9438)
(-21.5087 35.0459 -0.290759 158.56 -2.59255 53.7377)
(-18.0342 62.4561 -1.76295 51.7796 -1.23921 14.4454)
(-9.59022 57.6582 -2.0555 -54.0164 0.101552 -22.3522)
(-11.3163 21.1892 -0.941473 -152.29 1.35136 -61.7522)
(-28.8456 29.0085 -0.188994 112.721 -3.10758 36.1602)
(-18.7684 52.5515 -1.49353 38.2872 -1.25334 10.8318)
(-9.40424 48.7309 -1.72869 -39.0721 0.643996 -15.4966)
(-4.83735 17.7973 -0.735128 -106.47 2.359 -40.6507)
(-29.7021 23.1552 -0.0229314 77.3809 -3.26038 25.5407)
(-19.2079 42.5547 -1.08378 26.5099 -1.18265 8.09298)
(-9.16242 40.0604 -1.27239 -25.8341 0.960971 -9.57955)
(-4.21536 15.4259 -0.473315 -70.1686 2.94173 -26.5621)
(-31.2073 16.6166 0.104769 48.6813 -3.09681 17.1446)
(-19.7012 32.6536 -0.772115 17.0272 -1.06386 6.21848)
(-9.33617 31.7147 -0.924227 -15.2986 1.02216 -4.93286)
(-3.24114 12.95 -0.278838 -39.8802 3.05457 -14.9722)
(-30.8304 9.75777 0.0837433 32.0465 -2.61933 13.8925)
(-22.5403 23.3325 -0.780782 8.81032 -0.899175 3.82737)
(-10.0954 23.4798 -0.934265 -7.49168 0.796694 -1.34185)
(-1.5196 10.0249 -0.286935 -17.0934 2.61119 -5.69101)
(-43.0017 7.43664 -0.25508 14.9709 -1.5204 4.55648)
(-38.9156 15.0284 -1.36878 -1.35728 -0.514151 -5.00305)
(-9.09959 13.2878 -1.70605 0.379797 0.30573 3.59722)
(3.70722 5.32033 -0.907032 -2.51613 1.28134 2.99113)
(189.68 86.4877 -0.0376306 427.715 -0.363593 238.893)
(36.4231 66.789 -0.352475 93.0886 -0.430237 50.8164)
(-48.1727 58.725 -0.431586 -96.3886 -0.749763 -58.1369)
(-202.433 53.3426 -0.23841 -390.527 -0.809298 -243.281)
(-43.3731 33.812 -0.0964637 167.432 -1.07029 47.728)
(-4.20359 73.346 -0.809119 75.0622 -0.671891 28.0718)
(-19.0086 67.0728 -0.966529 -76.3169 -0.354564 -37.1374)
(5.5116 20.5437 -0.473533 -169.116 0.0398032 -64.7251)
(-21.915 35.024 -0.122942 158.723 -1.503 55.393)
(-18.4018 62.4702 -0.901853 52.1242 -0.720548 15.0738)
(-9.79371 57.7098 -1.05892 -53.5431 0.0406261 -22.9627)
(-11.3974 21.2449 -0.480954 -151.79 0.766331 -63.4824)
(-29.2655 29.0596 -0.0812232 113.01 -1.75812 37.5673)
(-19.1384 52.6981 -0.78852 38.6544 -0.714633 11.3732)
(-9.60954 48.9145 -0.913279 -38.6431 0.346443 -15.9755)
(-4.92011 17.9245 -0.38132 -106.029 1.31389 -42.0819)
(-30.1036 23.2328 -0.00184468 77.7633 -1.83931 26.5835)
(-19.5521 42.75 -0.590585 26.8917 -0.672204 8.53339)
(-9.36052 40.295 -0.688519 -25.4546 0.529472 -9.85346)
(-4.29797 15.5845 -0.248108 -69.7781 1.6414 -27.5105)
(-31.5675 16.6758 0.0563588 49.1294 -1.76238 17.8415)
(-20.0111 32.8286 -0.44491 17.4062 -0.610092 6.5774)
(-9.53198 31.9373 -0.521983 -14.9728 0.567962 -4.97969)
(-3.33702 13.1098 -0.152166 -39.5343 1.71465 -15.3933)
(-31.0964 9.77004 0.0261678 32.5898 -1.51277 14.3629)
(-22.8542 23.4506 -0.488058 9.15396 -0.52242 4.11082)
(-10.34 23.6432 -0.566833 -7.22921 0.442221 -1.19654)
(-1.62985 10.1627 -0.176021 -16.7452 1.47383 -5.60916)
(-43.3193 7.4658 -0.197554 15.4676 -0.895837 4.7837)
(-39.3986 15.1023 -0.877588 -1.08137 -0.301945 -4.84865)
(-9.5476 13.3482 -1.06289 0.571985 0.167979 3.81885)
(3.45782 5.38305 -0.561251 -2.24949 0.724922 3.35957)
(189.605 86.4186 -0.00946581 427.694 -0.168163 239.216)
(36.4211 66.6171 -0.103039 93.2393 -0.158482 51.0061)
(-48.1301 58.5203 -0.126834 -96.1412 -0.230942 -58.1711)
(-202.186 53.2051 -0.0697199 -389.958 -0.226366 -243.307)
(-43.556 33.7392 -0.0226594 167.392 -0.364369 48.3857)
(-4.33151 73.2336 -0.240399 75.2254 -0.225231 28.3585)
(-19.078 66.9683 -0.289524 -76.041 -0.11551 -37.3853)
(5.41121 20.5157 -0.141622 -168.861 0.0209931 -65.4978)
(-22.1122 35.0037 -0.0328854 158.801 -0.493447 56.119)
(-18.5759 62.4596 -0.275073 52.2984 -0.23676 15.3513)
(-9.89388 57.7189 -0.324393 -53.2961 0.0104673 -23.2374)
(-11.4364 21.2663 -0.146361 -151.522 0.248889 -64.2461)
(-29.4685 29.0789 -0.0221176 113.149 -0.569907 38.2051)
(-19.3127 52.7604 -0.244925 38.8387 -0.232456 11.6197)
(-9.70766 48.9958 -0.283843 -38.4186 0.10905 -16.1948)
(-4.95921 17.9838 -0.117039 -105.793 0.422174 -42.7278)
(-30.2992 23.2681 0.000894504 77.9413 -0.595064 27.0758)
(-19.7135 42.8432 -0.186919 27.0804 -0.218261 8.74161)
(-9.45224 40.408 -0.217116 -25.2556 0.168636 -9.98073)
(-4.33418 15.6615 -0.076707 -69.565 0.527319 -27.9487)
(-31.7435 16.7033 0.0169995 49.3341 -0.57262 18.193)
(-20.1564 32.9154 -0.145489 17.5901 -0.199014 6.75422)
(-9.62115 32.0472 -0.168912 -14.8026 0.181558 -5.00357)
(-3.37869 13.1881 -0.0483678 -39.345 0.552089 -15.5999)
(-31.2296 9.77526 0.00344933 32.8335 -0.495653 14.6216)
(-23.0026 23.5097 -0.166489 9.31801 -0.171598 4.25583)
(-10.4531 23.7228 -0.190549 -7.09424 0.141258 -1.13542)
(-1.67871 10.2289 -0.0596986 -16.5613 0.475611 -5.5943)
(-43.4698 7.48123 -0.0751428 15.6975 -0.298401 4.94605)
(-39.6282 15.1411 -0.302119 -0.949041 -0.0998945 -4.76395)
(-9.76171 13.3764 -0.36104 0.668791 0.0537895 3.90139)
(3.3319 5.41063 -0.190428 -2.12097 0.23439 3.4787)
)
;

boundaryField
{
    interface
    {
        type            calculated;
        value           nonuniform List<symmTensor> 
192
(
(-21.0404 16.2951 4.08033 442.248 44.8273 124.095)
(-21.4182 7.94216 3.62304 208.451 -13.8403 23.7011)
(-21.1217 10.5856 4.49078 208.66 -9.09593 45.037)
(-21.345 8.94065 4.60144 150.183 -12.668 35.659)
(-21.9414 6.92195 4.77267 105.558 -11.6684 32.4092)
(-22.753 4.37086 4.83631 67.4031 -10.0914 28.5285)
(-23.5009 1.93186 4.68914 44.4877 -8.00545 28.2745)
(-22.6946 -0.618569 4.16597 32.5511 -4.47795 30.8245)
(-23.7809 17.3597 2.83643 436.016 27.3885 131.204)
(-24.5337 9.08144 2.82109 230.053 -5.51213 40.6055)
(-25.0471 10.6067 3.00176 206.392 -12.9939 43.331)
(-25.9747 9.06935 3.01837 149.517 -16.1946 35.8098)
(-27.0734 6.88502 3.05931 102.382 -16.0598 31.4536)
(-28.083 4.2386 3.08747 64.3871 -14.0975 28.3787)
(-28.3665 1.54589 3.01412 42.173 -10.845 29.0824)
(-25.3448 -1.27792 2.72861 32.3006 -6.02728 33.543)
(-25.5479 18.3981 1.7955 443.703 13.4372 141.929)
(-26.3231 9.16532 2.01521 227.301 -3.66963 52.9993)
(-26.9959 10.6206 2.08614 205.914 -9.73825 50.212)
(-28.1029 9.04712 2.03542 148.732 -12.7325 37.5692)
(-29.3132 6.79626 2.01136 101.155 -13.1411 29.157)
(-30.2765 4.07177 2.01008 63.2603 -11.8334 23.4467)
(-30.1647 1.26255 1.98024 41.9284 -9.2467 22.7954)
(-26.017 -1.71922 1.87542 31.8592 -4.95618 25.8972)
(-26.834 18.9224 1.12708 448.006 5.46151 148.941)
(-27.578 9.1641 1.44472 225.417 -3.14178 63.0589)
(-28.2722 10.6234 1.50934 205.825 -6.93176 58.5393)
(-29.4204 9.04568 1.46892 149.184 -9.05034 42.7085)
(-30.6432 6.77948 1.43651 101.855 -9.5661 31.1731)
(-31.5261 4.01532 1.42428 64.2482 -8.85072 23.045)
(-31.1437 1.14089 1.40774 43.5268 -7.15718 20.8523)
(-26.322 -1.90516 1.35605 33.5109 -4.05702 23.0333)
(-27.7727 19.1358 0.70489 449.516 1.51866 152.613)
(-28.49 9.14213 1.01656 224.371 -2.70303 69.3112)
(-29.1745 10.6077 1.07857 205.794 -4.8925 64.4626)
(-30.3215 9.03786 1.0597 149.657 -6.18961 47.0777)
(-31.5372 6.77155 1.03781 102.673 -6.58806 33.6672)
(-32.351 3.98509 1.02614 65.3241 -6.23071 23.9081)
(-31.7894 1.06706 1.01551 44.9792 -5.2032 20.6244)
(-26.5195 -2.02182 0.985873 34.9427 -3.04731 22.0509)
(-28.4365 19.2005 0.427887 449.695 -0.10075 154.367)
(-29.1327 9.11487 0.676487 223.775 -2.09847 72.8947)
(-29.8021 10.5878 0.727289 205.834 -3.29597 68.171)
(-30.9342 9.02857 0.721983 150.05 -4.02381 50.1035)
(-32.1511 6.76476 0.710815 103.3 -4.27604 35.698)
(-32.9116 3.9642 0.702879 66.1313 -4.10504 25.022)
(-32.2329 1.01669 0.695739 46.0255 -3.51289 21.1127)
(-26.6626 -2.09399 0.675811 36.0883 -2.11859 22.1882)
(-28.863 19.2083 0.228974 449.439 -0.461842 155.119)
(-29.5471 9.09207 0.38549 223.421 -1.32828 74.7615)
(-30.2047 10.5707 0.417622 205.875 -1.91647 70.2295)
(-31.3205 9.02026 0.417394 150.311 -2.27748 51.8925)
(-32.5488 6.7584 0.412517 103.682 -2.41128 37.0007)
(-33.2718 3.94811 0.408166 66.6142 -2.33563 25.8664)
(-32.5205 0.981318 0.402285 46.6464 -2.03157 21.6402)
(-26.7646 -2.13841 0.386819 36.8036 -1.25402 22.5633)
(-29.0627 19.2026 0.0712439 449.219 -0.21395 155.389)
(-29.7402 9.07817 0.123967 223.257 -0.454096 75.5497)
(-30.3884 10.5599 0.13455 205.905 -0.630201 71.1374)
(-31.4957 9.01463 0.134788 150.446 -0.738668 52.7116)
(-32.7252 6.7537 0.133339 103.871 -0.780204 37.6305)
(-33.4331 3.93689 0.131946 66.843 -0.758989 26.3097)
(-32.6356 0.957827 0.128992 46.9414 -0.666281 21.9631)
(-26.7715 -2.1556 0.121695 37.1607 -0.418908 22.8472)
(38.6459 63.792 -2.06414 276.699 2.60995 -9.6955)
(-73.296 31.6631 -4.48402 110.855 -1.59856 -6.37875)
(-48.0895 42.7566 -5.67011 125.445 -1.53653 -3.21869)
(-49.2055 38.5668 -6.43553 86.6031 -1.21603 -0.852776)
(-44.3417 33.9511 -7.05342 59.1237 -0.864672 0.707019)
(-42.7804 26.6606 -7.60142 34.0441 -0.73621 1.51262)
(-42.684 18.4732 -8.21932 17.6361 -0.896924 1.56936)
(-51.6646 11.562 -9.3805 4.62252 -1.14002 0.774384)
(-3.82803 45.3983 -1.55824 55.2187 -0.488269 -8.69271)
(-35.1418 68.1159 -3.0296 33.1229 -1.63972 -7.30988)
(-34.5248 72.7965 -3.67855 32.6713 -1.63573 -5.47039)
(-33.4161 68.3301 -4.07939 20.9485 -1.27803 -3.95053)
(-31.6458 60.1362 -4.39119 11.8552 -0.831906 -2.93704)
(-31.1977 49.0138 -4.72874 3.7526 -0.50558 -2.42008)
(-32.4263 36.4911 -5.27147 -1.84854 -0.357236 -2.321)
(-42.4959 21.725 -6.65354 -5.59079 -0.245452 -2.31747)
(-24.497 38.4866 -1.48502 -87.0911 -0.060816 -7.9786)
(6.81773 62.3056 -2.72446 -46.4062 -1.37249 -7.50705)
(3.21428 67.6744 -3.23384 -46.8457 -1.48616 -6.38397)
(1.42654 64.1943 -3.43148 -36.4934 -1.22498 -5.33698)
(-1.37705 57.1372 -3.59338 -28.4312 -0.793716 -4.64175)
(-3.87395 47.3881 -3.83102 -20.9672 -0.404958 -4.30898)
(-6.43111 35.6345 -4.30853 -14.894 -0.133767 -4.27913)
(-5.47894 19.4109 -5.58733 -6.66385 0.0724131 -4.27813)
(-64.2969 38.5857 -1.65954 -274.798 3.6646 -7.08567)
(42.6109 18.2704 -2.88567 -116.187 -1.03332 -6.86032)
(17.0368 28.2661 -3.35111 -128.398 -1.30838 -5.9722)
(17.1754 26.6553 -3.5849 -91.369 -1.22674 -5.09883)
(11.5599 25.1762 -3.72515 -64.8351 -0.83899 -4.50875)
(8.4332 21.6242 -3.93302 -40.2172 -0.424694 -4.19784)
(6.66801 16.4177 -4.36557 -22.231 -0.0591561 -4.09195)
(10.7011 7.89786 -5.52713 -8.12525 0.324939 -4.10446)
(-4.67291 -12.1266 -1.21405 -387.327 -40.6529 -133.269)
(-3.50874 -5.87461 0.734646 -197.972 8.27452 -28.4287)
(-2.61627 -7.68819 0.665374 -190.411 4.57338 -41.707)
(-1.77554 -6.02113 0.982958 -133.897 8.89499 -26.7909)
(-1.10304 -4.32474 1.11131 -90.2706 9.08228 -20.2103)
(-0.412229 -2.51029 1.25459 -52.3787 8.64041 -14.4629)
(0.678193 -1.31036 1.40669 -25.9543 6.94843 -11.8755)
(3.59362 -1.76916 1.47808 -11.9964 2.70187 -11.8835)
(-5.48652 -12.8094 -1.1588 -377.5 -27.9088 -139.765)
(-5.10702 -6.99714 -0.207027 -220.725 -0.272147 -47.9131)
(-4.84115 -7.7145 0.118643 -191.301 8.20835 -42.464)
(-4.4048 -6.10112 0.402906 -136.562 12.8283 -30.2734)
(-3.93604 -4.21708 0.577882 -90.5739 14.1901 -23.0571)
(-3.35164 -2.31837 0.674482 -52.298 13.5051 -18.0461)
(-2.27875 -0.961637 0.684858 -25.1588 10.8381 -15.4563)
(0.876266 -1.34562 0.568217 -12.1243 5.40267 -15.6721)
(-5.95664 -13.4801 -0.744881 -383.503 -15.5251 -152.465)
(-5.74438 -7.12626 -0.277776 -220.041 -0.679188 -64.3698)
(-5.66753 -7.74952 -0.0114315 -192.375 6.02499 -54.7145)
(-5.35814 -6.08986 0.252275 -137.542 10.1989 -38.0926)
(-4.92787 -4.12171 0.442149 -90.9033 11.8982 -26.8976)
(-4.30975 -2.15388 0.544149 -52.2087 11.6766 -18.7692)
(-3.15761 -0.720681 0.538788 -24.6585 9.66693 -13.6059)
(-0.118762 -0.899833 0.332642 -10.6114 4.80767 -10.7308)
(-6.28089 -13.7209 -0.435601 -386.289 -8.08978 -160.155)
(-6.10916 -7.12641 -0.211581 -218.994 -0.173962 -76.2036)
(-6.10793 -7.71974 -0.0252749 -192.202 4.16798 -65.0931)
(-5.84597 -6.02689 0.176969 -137.639 7.18926 -45.4409)
(-5.41183 -4.01472 0.340593 -90.9358 8.69964 -30.9249)
(-4.7417 -2.00097 0.433758 -52.0871 8.80991 -19.8708)
(-3.50937 -0.515919 0.426754 -24.1448 7.51577 -12.1837)
(-0.548932 -0.583924 0.232768 -9.70582 3.83581 -7.12686)
(-6.51014 -13.7284 -0.242763 -386.58 -3.99738 -164.029)
(-6.35307 -7.0859 -0.137006 -218.173 0.193768 -83.4273)
(-6.38233 -7.65699 -0.00910625 -191.644 2.87771 -71.917)
(-6.13557 -5.94199 0.133913 -137.242 4.8541 -50.6864)
(-5.6862 -3.90406 0.256353 -90.6176 5.96775 -34.0918)
(-4.97688 -1.86346 0.326857 -51.7185 6.17964 -20.9739)
(-3.70955 -0.346244 0.314115 -23.5341 5.38728 -11.4388)
(-0.81084 -0.348936 0.152688 -8.93557 2.78067 -4.89643)
(-6.66146 -13.6519 -0.127501 -385.856 -1.84428 -165.805)
(-6.50963 -7.03435 -0.0776809 -217.502 0.320147 -87.5527)
(-6.54822 -7.58966 0.00707429 -191.059 1.90904 -76.0022)
(-6.30261 -5.86113 0.101731 -136.737 3.11529 -53.9927)
(-5.83795 -3.80716 0.18398 -90.1653 3.84188 -36.2255)
(-5.1029 -1.75259 0.230065 -51.2603 4.02717 -21.8534)
(-3.82521 -0.220997 0.215692 -22.9573 3.55773 -11.1588)
(-0.979872 -0.189706 0.0944596 -8.38226 1.85173 -3.79706)
(-6.75169 -13.571 -0.0595051 -385.006 -0.757959 -166.537)
(-6.60166 -6.99068 -0.0370883 -217.007 0.262839 -89.739)
(-6.64154 -7.53588 0.0116993 -190.602 1.0993 -78.244)
(-6.39299 -5.80033 0.0655513 -136.327 1.74498 -55.8725)
(-5.91762 -3.73761 0.112108 -89.78 2.14759 -37.495)
(-5.16886 -1.67665 0.137077 -50.8787 2.26345 -22.4377)
(-3.88854 -0.139725 0.126022 -22.5238 2.0134 -11.0948)
(-1.08472 -0.0913777 0.05042 -8.01683 1.05245 -3.32454)
(-6.79235 -13.5231 -0.0170769 -384.487 -0.199652 -166.784)
(-6.64223 -6.96629 -0.0105549 -216.74 0.0990752 -90.6762)
(-6.68182 -7.50679 0.00537634 -190.354 0.359836 -79.2273)
(-6.4315 -5.7685 0.0227806 -136.104 0.562682 -56.7153)
(-5.95169 -3.70195 0.0377081 -89.5667 0.691025 -38.08)
(-5.19769 -1.63831 0.0454914 -50.6692 0.729672 -22.7254)
(-3.91485 -0.100863 0.0414717 -22.2946 0.650879 -11.0968)
(-1.14324 -0.0450231 0.0153507 -7.84249 0.340988 -3.17135)
(-55.8681 12.881 -2.67415 -0.702725 -2.19725 1.21823)
(-50.656 12.1851 0.676455 1.15377 -1.99604 5.44726)
(-51.547 12.2894 0.15502 2.60115 -1.54705 0.673466)
(-52.0926 12.4634 -0.280928 3.73075 -1.18479 -1.38299)
(-52.9603 12.6525 -0.537192 4.5682 -0.883876 -2.51188)
(-53.622 12.8043 -0.523199 5.15941 -0.622278 -2.76849)
(-54.0683 12.9096 -0.369998 5.52205 -0.379954 -2.725)
(-54.3208 12.9584 -0.134758 5.62527 -0.130937 -2.68537)
(-48.3237 9.39604 -4.5696 -2.59837 -0.527128 -7.64195)
(-43.6847 8.2254 -2.60913 -1.62116 -0.535915 -6.73068)
(-44.0283 8.03254 -2.28315 -0.606551 -0.395581 -6.86572)
(-45.2822 8.05394 -2.40293 0.225132 -0.278854 -6.70972)
(-46.5486 8.11721 -2.28526 0.838158 -0.198802 -6.67285)
(-47.4963 8.1758 -1.83813 1.26881 -0.137453 -6.58191)
(-48.0992 8.22201 -1.17698 1.54877 -0.0814891 -6.48623)
(-48.3686 8.255 -0.404388 1.70914 -0.0267117 -6.41279)
(-4.24388 5.93132 -4.50375 -4.08887 0.165706 -1.81385)
(-6.268 4.93237 -4.22153 -3.38172 0.109786 -2.95591)
(-8.10799 4.67527 -3.89997 -2.63138 0.113386 -0.857477)
(-9.87533 4.61352 -3.57904 -2.03466 0.100976 0.936706)
(-11.2285 4.599 -3.07343 -1.60627 0.076742 2.03019)
(-12.1643 4.59623 -2.34134 -1.31191 0.0517036 2.5809)
(-12.7466 4.59677 -1.45774 -1.12549 0.0317866 2.82019)
(-13.0185 4.59677 -0.494501 -1.01962 0.0118501 2.90964)
(13.0548 4.82038 -3.38324 -3.9165 0.541171 -4.24805)
(9.03943 3.93648 -2.94071 -3.35481 0.293143 -6.8577)
(7.68131 3.60136 -2.77859 -2.876 0.19933 -1.98089)
(6.36362 3.46427 -2.40312 -2.49457 0.134717 1.41582)
(5.46386 3.38322 -1.97999 -2.22302 0.0856704 3.48953)
(4.80142 3.33314 -1.46621 -2.04357 0.0497916 4.45352)
(4.37211 3.30205 -0.900129 -1.93576 0.0257747 4.82614)
(4.15581 3.28392 -0.303958 -1.88682 0.00821975 4.92987)
)
;
    }
    symmetry
    {
        type            symmetryPlane;
    }
    bottom
    {
        type            calculated;
        value           nonuniform List<symmTensor> 
32
(
(208.834 81.8493 3.68315 317.04 92.3291 209.723)
(205.801 91.699 2.04735 310.99 45.7014 202.713)
(211.953 96.4414 1.03457 320.102 22.0418 207.663)
(215.491 98.1467 0.473106 325.486 9.92664 210.861)
(217.047 98.6365 0.189245 327.893 3.95492 212.335)
(217.648 98.7012 0.0594666 328.842 1.24243 212.925)
(217.832 98.6535 0.0104804 329.142 0.219099 213.113)
(217.868 98.6081 -0.000237301 329.207 -0.00496333 213.153)
(40.2255 32.8455 0.462395 59.7796 25.8401 40.0015)
(42.5653 43.2903 0.314197 62.6722 13.3394 41.6424)
(45.4845 44.9513 0.151015 66.9856 6.18664 44.4081)
(46.85 44.5614 0.0591321 69.0901 2.44601 45.7759)
(47.5424 43.8386 0.0158465 70.1959 0.666641 46.5006)
(47.9186 43.2282 -0.00101811 70.812 -0.0434476 46.9056)
(48.1217 42.824 -0.00459431 71.1498 -0.197941 47.1278)
(48.2119 42.6266 -0.00210935 71.3009 -0.0913065 47.2271)
(-57.2893 27.9656 -0.483565 -85.9091 -29.6413 -57.233)
(-51.0964 37.9869 -0.380234 -77.3267 -17.2298 -51.7623)
(-51.5349 38.9734 -0.228724 -78.0411 -10.0985 -52.3583)
(-51.8049 38.1053 -0.130409 -78.3838 -5.88801 -52.6288)
(-51.7854 37.0709 -0.072741 -78.2887 -3.37609 -52.5775)
(-51.6284 36.2595 -0.0392747 -78.0059 -1.86389 -52.3904)
(-51.4604 35.733 -0.0191852 -77.7251 -0.924024 -52.2018)
(-51.3586 35.4779 -0.00572836 -77.5591 -0.277904 -52.0898)
(-212.509 57.9844 -3.23435 -312.209 -85.2117 -209.956)
(-201.787 65.2396 -1.94446 -297.986 -45.8875 -203.184)
(-206.943 67.1592 -1.06954 -305.562 -24.4223 -209.495)
(-209.54 67.1042 -0.557987 -309.244 -12.7271 -212.376)
(-210.212 66.515 -0.279015 -310.127 -6.41748 -213.077)
(-210.057 65.9102 -0.132439 -309.837 -3.07461 -212.889)
(-209.699 65.4659 -0.0568431 -309.279 -1.32899 -212.498)
(-209.454 65.2366 -0.0155535 -308.906 -0.364989 -212.234)
)
;
    }
}


// ************************************************************************* //
