/*--------------------------------*- C++ -*----------------------------------*\
| =========                 |                                                 |
| \\      /  F ield         | foam-extend: Open Source CFD                    |
|  \\    /   O peration     | Version:     3.1                                |
|   \\  /    A nd           | Web:         http://www.extend-project.de       |
|    \\/     M anipulation  |                                                 |
\*---------------------------------------------------------------------------*/
FoamFile
{
    version     2.0;
    format      ascii;
    class       volSymmTensorField;
    location    "3.3";
    object      sigma;
}
// * * * * * * * * * * * * * * * * * * * * * * * * * * * * * * * * * * * * * //

dimensions      [1 -1 -2 0 0 0 0];

internalField   nonuniform List<symmTensor> 
256
(
(176.915 61.5176 -2.68829 400.3 31.5463 204.741)
(23.555 52.4126 -8.16613 81.1698 10.9582 32.2666)
(-55.0168 48.8384 -8.3432 -110.586 -15.6924 -54.8306)
(-198.994 51.8528 -3.39374 -409.707 -38.2994 -215.279)
(-75.3101 25.7117 -3.08319 120.527 -10.5263 -20.9148)
(-32.2103 67.3855 -12.8955 44.6557 -4.70564 -9.05545)
(-1.59402 65.9382 -13.3438 -52.1021 2.30846 -2.87061)
(39.8127 24.7515 -4.70459 -129.464 7.2246 9.29439)
(-27.7308 31.4182 -1.18059 147.619 -5.8598 26.1053)
(-33.4066 65.1777 -8.83488 40.6099 -2.44041 -4.0575)
(-7.21408 65.18 -9.18513 -46.5336 0.187004 -7.69122)
(-6.73205 31.6802 -2.87054 -149.158 3.29887 -30.9541)
(-38.9505 27.602 -1.15114 100.404 -8.22618 12.8118)
(-34.4138 59.5459 -7.27053 28.2939 -2.89633 -4.92615)
(-6.92664 59.9029 -7.5296 -32.5651 1.08407 -4.07703)
(4.17084 28.331 -2.98592 -99.0266 6.28134 -14.0225)
(-35.8149 24.0369 -0.774218 70.6096 -7.54835 13.2254)
(-32.5347 51.4418 -5.83415 18.8736 -2.5004 -3.39345)
(-8.38152 52.0532 -6.05353 -22.8074 1.07791 -3.59659)
(1.33892 25.1672 -2.63758 -67.6168 6.18817 -11.8247)
(-36.4327 18.6506 -0.843831 42.5244 -6.60314 10.6533)
(-31.4748 41.4708 -5.0745 9.98229 -2.18975 -2.861)
(-9.02219 42.453 -5.16422 -14.7076 0.981345 -3.03417)
(1.82278 20.5369 -2.551 -39.1626 5.74781 -8.05129)
(-35.7729 12.1674 -1.38914 25.1549 -5.50789 11.3726)
(-31.881 30.4433 -4.8692 2.95002 -2.15368 -2.59636)
(-9.69405 31.4851 -4.72678 -9.0034 0.604939 -3.1511)
(2.52896 15.0205 -2.66173 -19.3424 4.56366 -6.57321)
(-47.0581 6.9995 -1.9976 9.16888 -3.16739 6.42824)
(-44.898 17.5251 -4.61895 -6.43677 -1.46581 -8.76187)
(-4.4008 17.0507 -4.55551 -0.442871 -0.131819 0.522072)
(9.30867 7.49066 -3.14581 -5.18919 1.63264 -3.7449)
(178.778 69.7161 -1.62535 397.617 19.2709 213.214)
(29.4382 62.7446 -6.51583 84.7867 6.10677 39.1457)
(-49.8137 59.6468 -7.12911 -98.4348 -11.1646 -51.6551)
(-191.171 60.4672 -3.10814 -391.832 -26.0828 -213.594)
(-43.0338 26.2649 -2.25724 163.495 -4.37983 17.4753)
(-9.84559 69.2807 -11.9704 69.5565 -2.81949 12.557)
(-21.2625 68.4772 -13.2914 -75.8375 -1.07799 -24.0623)
(6.98728 26.3408 -5.42814 -173.372 -0.311677 -29.2833)
(-21.8137 27.4805 -0.733418 152.936 -9.25501 30.9349)
(-21.9644 59.5809 -9.41589 49.2185 -3.87473 3.47961)
(-12.7673 59.7681 -10.8465 -51.8124 1.26269 -12.7995)
(-10.1399 27.7985 -4.39186 -152.566 6.22026 -33.7828)
(-28.4156 22.8854 0.40766 109.406 -11.3211 21.825)
(-22.2361 51.5557 -6.65416 37.0227 -4.10462 2.82763)
(-12.1664 51.9369 -8.14945 -37.0436 2.41881 -9.31246)
(-3.3873 23.5328 -3.61902 -105.418 9.49333 -20.9775)
(-27.996 18.8909 1.44422 75.6306 -11.223 19.2623)
(-22.0243 42.8788 -4.45392 25.488 -3.82913 2.43009)
(-11.2968 43.4403 -5.97708 -24.2896 2.80961 -6.62765)
(-3.25611 19.8922 -2.7329 -69.3944 10.3519 -15.7198)
(-28.7337 14.0137 1.96095 47.229 -9.89242 16.8926)
(-21.8055 33.7399 -3.00649 15.7932 -3.34073 2.24755)
(-10.7596 34.6323 -4.42691 -14.5987 2.58731 -4.95414)
(-2.34028 15.7972 -2.08946 -39.7359 9.67412 -11.6921)
(-28.7547 8.33784 1.87839 29.1352 -7.76492 17.1687)
(-23.7298 24.3768 -2.35577 7.28772 -2.88043 1.21297)
(-10.3285 25.3967 -3.5745 -7.56975 1.76082 -3.84679)
(-0.384108 11.3741 -1.73003 -18.0903 7.57347 -8.89301)
(-39.7988 5.16743 1.3715 13.7349 -4.39381 12.4629)
(-37.9003 14.4673 -2.32982 -2.84324 -1.87924 -5.87535)
(-6.1497 13.9607 -3.76901 -0.281373 0.481382 -0.833228)
(5.05107 5.82442 -2.32803 -5.74321 3.57152 -7.01253)
(185.23 73.1504 -1.06917 407.708 9.35585 227.225)
(32.1194 65.3257 -4.13984 89.0104 2.40773 44.8995)
(-50.1082 61.9673 -4.65258 -97.871 -6.97136 -54.4569)
(-197.016 62.9894 -2.16444 -398.865 -14.8792 -226.502)
(-43.752 26.7143 -1.81712 164.751 -3.05852 29.7224)
(-8.12419 70.2947 -8.06311 73.6619 -2.3043 19.9425)
(-22.7749 69.521 -9.18785 -77.1569 -1.44647 -30.1113)
(4.96568 26.7867 -4.19572 -174.944 -0.926754 -44.0073)
(-22.5929 27.0468 -1.03693 154.96 -7.22116 38.7112)
(-21.2681 58.9676 -6.95455 52.2935 -3.32186 8.44546)
(-13.6793 59.1422 -8.19727 -52.8849 0.752995 -16.8417)
(-12.193 27.1426 -3.74201 -155.133 4.53664 -44.7425)
(-29.5215 22.0174 -0.119832 110.344 -9.26842 25.3718)
(-21.5754 49.4846 -5.04778 39.3492 -3.62446 6.3045)
(-12.983 49.8429 -6.32986 -37.3143 2.07484 -11.6356)
(-5.65447 22.5168 -2.99229 -107.35 7.73472 -28.2157)
(-29.9654 17.6515 0.719342 75.4511 -9.52337 19.2065)
(-21.4166 40.2219 -3.21006 27.4673 -3.43078 4.90303)
(-11.9898 40.8066 -4.49251 -24.0479 2.65768 -7.62767)
(-4.82921 18.6371 -2.18453 -70.1288 8.94913 -19.3245)
(-31.0433 12.6659 1.23587 46.5735 -8.56825 14.523)
(-21.1972 31.0541 -1.90743 17.5112 -2.98035 4.03408)
(-11.3218 32.0714 -3.10072 -13.9102 2.59807 -4.86326)
(-3.54774 14.6645 -1.52726 -39.6781 8.64855 -12.5726)
(-30.7618 6.97335 1.28716 28.7665 -6.72814 13.5772)
(-23.1586 22.1591 -1.34885 8.74128 -2.43902 2.41265)
(-10.9013 23.4233 -2.422 -6.66946 1.89369 -2.90101)
(-1.36477 10.5677 -1.19668 -17.4459 6.95479 -7.55175)
(-42.5589 4.49459 0.808708 12.2037 -3.57328 6.63088)
(-37.951 13.3539 -1.71467 -1.92584 -1.40979 -5.651)
(-7.34971 12.9873 -3.08652 0.568774 0.584922 0.886485)
(4.86878 5.5125 -1.97468 -3.68767 3.21702 -2.47355)
(188.57 74.4029 -0.570594 413.352 3.78801 235.65)
(33.0432 65.7469 -2.44521 91.076 0.499075 47.9866)
(-50.5035 62.0869 -2.79131 -97.7358 -4.26904 -56.3426)
(-199.846 63.4679 -1.33865 -402.178 -8.06283 -233.971)
(-44.8592 26.8261 -1.05255 164.684 -2.5599 38.2849)
(-8.52896 70.7489 -5.00638 75.0765 -1.89803 23.8954)
(-23.1978 69.9105 -5.7838 -76.5691 -1.24993 -33.389)
(4.50136 26.8658 -2.75362 -174.225 -0.595978 -53.4977)
(-23.3114 27.1677 -0.715256 156.109 -5.22517 46.0886)
(-22.2713 59.1927 -4.66789 53.4571 -2.54422 11.433)
(-14.0907 59.3561 -5.53449 -52.4187 0.363742 -19.4875)
(-12.8154 27.1958 -2.64224 -155.133 3.08301 -52.9794)
(-30.3832 21.9663 -0.161536 111.533 -6.71186 30.2061)
(-22.6104 49.3179 -3.55546 40.3959 -2.75202 8.443)
(-13.5396 49.685 -4.42705 -36.8505 1.46009 -13.3858)
(-6.31205 22.4508 -2.16074 -107.449 5.49975 -33.9893)
(-30.8363 17.4354 0.413189 76.6612 -7.0488 21.6685)
(-22.3871 39.7491 -2.31258 28.4802 -2.62225 6.33581)
(-12.6321 40.3907 -3.16177 -23.5564 2.02818 -8.4479)
(-5.48139 18.5037 -1.56578 -70.1298 6.63457 -22.5057)
(-31.8439 12.3066 0.798129 47.8537 -6.5009 15.1367)
(-22.0585 30.4183 -1.38653 18.4976 -2.30292 4.94671)
(-11.9741 31.5707 -2.16288 -13.3485 2.07603 -4.81087)
(-4.19408 14.5429 -1.06104 -39.5281 6.62186 -13.489)
(-31.1519 6.49872 0.836409 30.4385 -5.24649 13.0811)
(-23.9371 21.5536 -1.07462 9.68021 -1.89252 2.94151)
(-11.6532 23.0137 -1.78218 -6.07567 1.56525 -2.10133)
(-2.05906 10.5143 -0.846 -17.043 5.46589 -6.53172)
(-42.8963 4.2766 0.338061 13.7163 -2.92572 5.15923)
(-38.9155 13.0253 -1.70759 -0.98373 -1.12467 -5.3441)
(-8.73547 12.7271 -2.67373 1.02828 0.499963 2.26421)
(4.0087 5.50123 -1.62506 -2.99662 2.57544 0.333433)
(189.809 74.7465 -0.258132 415.73 1.04681 239.899)
(33.3951 65.4841 -1.36425 92.158 -0.318332 49.6482)
(-50.6489 61.5963 -1.5846 -97.3343 -2.57184 -57.3144)
(-200.57 63.2386 -0.776327 -402.505 -4.20062 -237.359)
(-45.8488 26.7638 -0.508004 164.475 -2.137 43.3893)
(-9.02309 70.7723 -2.92494 75.8528 -1.50046 26.1673)
(-23.5097 69.8827 -3.43322 -75.7901 -0.947247 -35.3253)
(4.20376 26.8023 -1.67529 -173.368 -0.260569 -59.2403)
(-24.1943 27.2577 -0.380466 156.562 -3.69502 50.9328)
(-23.1425 59.4089 -2.91788 54.156 -1.84707 13.3172)
(-14.4671 59.5832 -3.49101 -51.699 0.150127 -21.2185)
(-13.0351 27.2853 -1.70107 -154.43 2.07708 -58.2378)
(-31.3173 22.0734 -0.078183 112.22 -4.62352 33.8047)
(-23.5105 49.5559 -2.32883 41.1292 -1.95005 9.89896)
(-14.0069 49.9519 -2.89364 -36.2196 0.948676 -14.6423)
(-6.58145 22.5958 -1.42643 -106.92 3.70936 -37.9731)
(-31.7157 17.4961 0.270461 77.5518 -4.89222 23.872)
(-23.2375 39.9097 -1.57543 29.2528 -1.85976 7.37395)
(-13.1459 40.6097 -2.11363 -22.9904 1.40186 -9.10518)
(-5.79657 18.6635 -1.04419 -69.7199 4.57463 -24.8927)
(-32.6284 12.2753 0.508646 48.8911 -4.60696 16.1313)
(-22.8152 30.4689 -1.0049 19.2931 -1.65801 5.66872)
(-12.5027 31.7233 -1.4885 -12.825 1.47805 -4.85922)
(-4.53626 14.7039 -0.716643 -39.1388 4.67067 -14.3078)
(-31.6607 6.35951 0.493357 31.7381 -3.82543 13.3102)
(-24.654 21.5263 -0.902422 10.4406 -1.39137 3.42349)
(-12.2732 23.1079 -1.3446 -5.59934 1.12642 -1.61368)
(-2.43328 10.6686 -0.619777 -16.535 3.92572 -5.93708)
(-43.6177 4.22835 0.00917442 14.6942 -2.19449 4.46562)
(-39.9581 13.0082 -1.61039 -0.370038 -0.846201 -5.1762)
(-9.79877 12.7137 -2.24399 1.40359 0.342678 3.13291)
(3.50743 5.5673 -1.31599 -2.36353 1.85394 2.1308)
(190.134 74.7526 -0.089012 416.539 -0.0768781 241.909)
(33.5276 65.0902 -0.713729 92.7541 -0.527672 50.5323)
(-50.622 61.0448 -0.847503 -96.8169 -1.49124 -57.7336)
(-200.41 62.8483 -0.422212 -401.633 -2.078 -238.642)
(-46.4962 26.6397 -0.188745 164.358 -1.62523 46.3144)
(-9.39274 70.6049 -1.59753 76.3509 -1.08897 27.4399)
(-23.7175 69.6818 -1.91348 -75.0858 -0.647946 -36.4283)
(3.94416 26.6943 -0.949264 -172.641 -0.0620988 -62.57)
(-24.8385 27.2769 -0.148018 156.837 -2.48074 53.9039)
(-23.7388 59.4933 -1.69055 54.6432 -1.25309 14.4482)
(-14.7592 59.6834 -2.05072 -51.0489 0.0495014 -22.2921)
(-13.1591 27.3261 -1.00896 -153.7 1.34823 -61.3904)
(-31.9931 22.1601 0.0048812 112.682 -3.00925 36.204)
(-24.1311 49.7756 -1.40567 41.6603 -1.2895 10.8273)
(-14.3394 50.2001 -1.75574 -35.6335 0.577354 -15.4603)
(-6.72723 22.7296 -0.865956 -106.306 2.36704 -40.4828)
(-32.3526 17.5867 0.198552 78.1765 -3.18321 25.532)
(-23.8247 40.1522 -0.988753 29.823 -1.22717 8.08507)
(-13.493 40.8984 -1.31731 -22.47 0.891237 -9.5597)
(-5.96371 18.8382 -0.643863 -69.2081 2.94433 -26.488)
(-33.1891 12.3156 0.327634 49.6343 -3.04188 17.1137)
(-23.3419 30.6572 -0.677542 19.8766 -1.10896 6.20904)
(-12.8543 31.9832 -0.969045 -12.3685 0.955389 -4.9229)
(-4.73079 14.8846 -0.455439 -38.6913 3.0446 -14.9471)
(-32.0419 6.31711 0.284161 32.651 -2.58293 13.8542)
(-25.1714 21.6323 -0.692894 10.982 -0.949972 3.81969)
(-12.6943 23.2916 -0.959926 -5.21764 0.726757 -1.3375)
(-2.65403 10.8267 -0.431824 -16.0582 2.58562 -5.68484)
(-44.0874 4.21321 -0.105923 15.5044 -1.52291 4.53867)
(-40.7237 13.0544 -1.30085 0.0737882 -0.593092 -4.98487)
(-10.5281 12.7506 -1.69898 1.68486 0.205618 3.59532)
(3.11424 5.62259 -0.970745 -1.94919 1.22201 2.99354)
(190.125 74.6747 -0.0181046 416.705 -0.325915 242.78)
(33.5751 64.7721 -0.332473 93.08 -0.416796 50.9834)
(-50.5397 60.628 -0.404253 -96.3729 -0.770748 -57.8793)
(-200.036 62.5211 -0.20415 -400.619 -0.925912 -239)
(-46.8887 26.5268 -0.0459227 164.286 -1.01721 47.8546)
(-9.62658 70.4176 -0.772254 76.6628 -0.661278 28.11)
(-23.8352 69.4748 -0.944755 -74.5646 -0.374455 -37.0118)
(3.7616 26.5992 -0.474224 -172.11 0.0136485 -64.3639)
(-25.2519 27.2611 -0.0364683 157.001 -1.43708 55.5483)
(-24.0984 59.4958 -0.857032 54.9673 -0.728432 15.076)
(-14.9488 59.6989 -1.05533 -50.578 0.0102434 -22.9035)
(-13.2332 27.3327 -0.521655 -153.149 0.764715 -63.1335)
(-32.4265 22.2051 0.0321864 112.967 -1.70164 37.6057)
(-24.5065 49.9032 -0.735963 42.014 -0.735284 11.368)
(-14.5459 50.3483 -0.927149 -35.2034 0.30805 -15.94)
(-6.81186 22.8117 -0.456057 -105.83 1.31778 -41.9205)
(-32.7679 17.6477 0.126312 78.5523 -1.79536 26.5729)
(-24.1804 40.3239 -0.534426 30.1984 -0.698043 8.5246)
(-13.7007 41.1007 -0.712319 -22.0858 0.48911 -9.83451)
(-6.05342 18.9574 -0.344247 -68.7928 1.64211 -27.4391)
(-33.5597 12.3508 0.18565 50.0748 -1.73127 17.8108)
(-23.6624 30.8067 -0.388984 20.2532 -0.637009 6.56705)
(-13.0612 32.1775 -0.54566 -12.0365 0.52865 -4.97084)
(-4.83584 15.0107 -0.251413 -38.3281 1.7081 -15.3691)
(-32.3123 6.30058 0.143584 33.1842 -1.49275 14.3253)
(-25.4919 21.7246 -0.43583 11.3236 -0.553962 4.10206)
(-12.9461 23.4294 -0.57956 -4.951 0.399821 -1.19381)
(-2.77249 10.9341 -0.257205 -15.6979 1.45782 -5.60389)
(-44.413 4.2097 -0.108782 15.9953 -0.89976 4.76561)
(-41.2138 13.0977 -0.837096 0.348247 -0.351929 -4.83208)
(-10.9743 12.7806 -1.0572 1.87546 0.106216 3.81407)
(2.86471 5.65497 -0.596303 -1.67864 0.688453 3.35927)
(190.065 74.6169 -0.000677619 416.692 -0.150583 243.093)
(33.5897 64.6024 -0.0958091 93.2258 -0.153787 51.173)
(-50.4801 60.4108 -0.118374 -96.1231 -0.237583 -57.9152)
(-199.782 62.3432 -0.0602515 -400.001 -0.259584 -239.049)
(-47.0733 26.4625 -0.0049187 164.249 -0.346123 48.5077)
(-9.73873 70.3043 -0.227711 76.8148 -0.221816 28.3961)
(-23.8865 69.3525 -0.282437 -74.2892 -0.12222 -37.261)
(3.66943 26.5459 -0.142651 -171.829 0.0130362 -65.1428)
(-25.4514 27.2443 -0.00389935 157.078 -0.471617 56.2692)
(-24.2665 59.4794 -0.259898 55.1304 -0.239286 15.3531)
(-15.0403 59.6896 -0.323084 -50.333 0.000507617 -23.1789)
(-13.2682 27.329 -0.159971 -152.857 0.248445 -63.9036)
(-32.6354 22.2217 0.0152725 113.103 -0.551458 38.2407)
(-24.6822 49.9563 -0.227411 42.191 -0.239146 11.6141)
(-14.6437 50.4118 -0.288086 -34.979 0.0965334 -16.1599)
(-6.85159 22.8482 -0.141371 -105.576 0.423362 -42.5699)
(-32.9701 17.6754 0.0429128 78.7269 -0.580796 27.064)
(-24.3471 40.4057 -0.168314 30.3839 -0.226725 8.73233)
(-13.7969 41.1974 -0.224528 -21.8845 0.15543 -9.9623)
(-6.0931 19.0143 -0.107768 -68.5676 0.527434 -27.8788)
(-33.7406 12.3674 0.0594426 50.2759 -0.562585 18.1621)
(-23.8129 30.8815 -0.126956 20.4359 -0.207976 6.74337)
(-13.156 32.2733 -0.176262 -11.8633 0.168564 -4.99528)
(-4.88203 15.0719 -0.0803553 -38.1304 0.549812 -15.5763)
(-32.4476 6.29296 0.0422124 33.4235 -0.489336 14.5839)
(-25.6435 21.7717 -0.149136 11.4868 -0.18232 4.24645)
(-13.0625 23.4966 -0.194342 -4.81414 0.127026 -1.13351)
(-2.82517 10.985 -0.0858084 -15.5083 0.470151 -5.58958)
(-44.5676 4.2105 -0.0454951 16.2227 -0.300192 4.92748)
(-41.4469 13.1223 -0.288632 0.480035 -0.117005 -4.74831)
(-11.1872 12.794 -0.358935 1.97125 0.0329104 3.89519)
(2.73912 5.66771 -0.20161 -1.5486 0.222075 3.47708)
)
;

boundaryField
{
    interface
    {
        type            calculated;
        value           nonuniform List<symmTensor> 
192
(
(-22.8956 -0.0723425 2.4047 415.526 39.0159 124.961)
(-22.2916 0.0345641 4.08067 201.379 -12.8124 23.9292)
(-22.2514 0.105545 4.90589 202.213 -7.99999 45.3905)
(-22.2976 0.0390581 5.36312 146.979 -11.57 35.7169)
(-22.6904 -0.275389 5.6219 104.119 -10.8184 32.3224)
(-23.2277 -0.920667 5.68795 66.8689 -9.47569 28.3543)
(-23.7062 -2.10358 5.49093 44.17 -7.54156 28.0558)
(-22.6032 -3.91804 4.81262 32.1292 -4.13061 30.5895)
(-25.9041 0.103033 1.73086 410.21 24.088 132.545)
(-25.6419 0.280866 2.95919 221.763 -5.00561 41.0709)
(-26.2915 0.382216 3.55258 199.944 -12.0543 43.6499)
(-27.0606 0.257867 3.87517 146.222 -15.2747 35.868)
(-27.9369 -0.175728 4.03877 100.926 -15.3306 31.3621)
(-28.6586 -1.02267 4.04791 63.8235 -13.5718 28.2088)
(-28.637 -2.53654 3.85543 41.8005 -10.4597 28.8747)
(-25.254 -4.67972 3.3425 31.7913 -5.75028 33.3097)
(-27.9059 0.153315 1.24784 417.324 11.8082 143.441)
(-27.5243 0.363647 2.12518 219.434 -3.34917 53.4714)
(-28.3166 0.482862 2.51644 199.584 -9.08151 50.5525)
(-29.2433 0.333939 2.70871 145.457 -12.0717 37.6708)
(-30.2097 -0.168258 2.7958 99.6775 -12.608 29.1222)
(-30.8657 -1.13537 2.7827 62.6515 -11.4474 23.3479)
(-30.4274 -2.82608 2.64979 41.4889 -8.96188 22.6714)
(-25.8823 -5.0901 2.33177 31.2789 -4.75339 25.7614)
(-29.3464 0.162709 0.91628 421.319 4.80253 150.44)
(-28.8501 0.384927 1.56355 217.863 -2.88646 63.4889)
(-29.6588 0.512179 1.83883 199.633 -6.46584 58.8646)
(-30.611 0.349341 1.96318 145.94 -8.58276 42.8242)
(-31.5744 -0.19617 2.01518 100.359 -9.18241 31.1661)
(-32.1345 -1.2387 2.00179 63.5996 -8.56808 22.9809)
(-31.4104 -3.03419 1.91753 43.0328 -6.94394 20.7667)
(-26.1715 -5.35535 1.71157 32.8763 -3.90213 22.9364)
(-30.3801 0.161496 0.661318 422.745 1.34443 154.064)
(-29.812 0.385491 1.1332 216.996 -2.49305 69.6946)
(-30.6094 0.514018 1.32953 199.696 -4.5606 64.7575)
(-31.5507 0.342068 1.41365 146.439 -5.86417 47.1873)
(-32.4972 -0.230847 1.44826 101.164 -6.31865 33.6683)
(-32.9771 -1.32121 1.44008 64.6471 -6.02846 23.8591)
(-32.0629 -3.18367 1.3893 44.4474 -5.04698 20.5562)
(-26.3618 -5.53916 1.25254 34.2714 -2.93217 21.9713)
(-31.1011 0.157901 0.449098 422.94 -0.0771121 155.778)
(-30.488 0.380059 0.77253 216.497 -1.93932 73.2441)
(-31.2699 0.507094 0.906039 199.788 -3.07035 68.4395)
(-32.1907 0.329388 0.961787 146.845 -3.80823 50.202)
(-33.1326 -0.260713 0.985423 101.781 -4.09703 35.6984)
(-33.552 -1.38174 0.981629 65.4356 -3.96864 24.978)
(-32.5134 -3.28769 0.952084 45.4695 -3.40553 21.0513)
(-26.5033 -5.66522 0.863202 35.3928 -2.0384 22.1146)
(-31.56 0.155474 0.259256 422.725 -0.39748 156.506)
(-30.9224 0.375117 0.447779 216.195 -1.22885 75.0907)
(-31.6926 0.499854 0.525061 199.855 -1.78466 70.481)
(-32.594 0.318585 0.557046 147.111 -2.154 51.9823)
(-33.5443 -0.281786 0.570923 102.157 -2.30878 36.9986)
(-33.9218 -1.42173 0.56956 65.9077 -2.25684 25.8234)
(-32.8061 -3.35464 0.552572 46.0761 -1.96892 21.5811)
(-26.6056 -5.74302 0.498884 36.094 -1.207 22.4911)
(-31.7737 0.153789 0.0839222 422.534 -0.185025 156.765)
(-31.1246 0.37139 0.145434 216.052 -0.420335 75.8699)
(-31.8852 0.494748 0.170396 199.895 -0.586827 71.381)
(-32.7769 0.312154 0.18071 147.248 -0.698466 52.797)
(-33.7271 -0.29292 0.185187 102.343 -0.74688 37.6268)
(-34.0873 -1.44344 0.184875 66.1312 -0.733296 26.2668)
(-32.9229 -3.39154 0.178627 46.364 -0.645803 21.9045)
(-26.613 -5.77416 0.159241 36.4453 -0.403602 22.775)
(35.9706 55.7956 -2.75726 266.074 -0.694761 -10.0421)
(-77.1362 25.4997 -4.71775 109.427 -1.07895 -6.46028)
(-52.8217 34.8649 -5.69093 124.85 -1.12479 -3.28782)
(-53.9275 31.551 -6.3238 87.8969 -1.01672 -0.879856)
(-48.675 28.1667 -6.84113 61.2759 -0.963428 0.71822)
(-46.3087 22.2477 -7.31627 36.2597 -1.06966 1.55592)
(-45.239 14.9978 -7.87811 19.339 -1.35917 1.64096)
(-53.5326 8.33972 -8.95776 5.7114 -1.6963 0.878221)
(-5.55114 44.1777 -1.73306 55.1959 -0.540498 -8.7615)
(-40.424 66.1425 -3.14657 35.2121 -0.9952 -7.37566)
(-41.6926 70.077 -3.72626 36.2857 -1.17722 -5.52656)
(-41.083 65.7323 -4.03025 25.6007 -1.0794 -3.98548)
(-38.8635 57.8444 -4.27634 16.7596 -0.897713 -2.94675)
(-37.2436 47.1037 -4.56875 8.22088 -0.76372 -2.40489)
(-36.9511 34.8186 -5.07352 1.70098 -0.727439 -2.28131)
(-45.289 19.7595 -6.40637 -3.42892 -0.684306 -2.24592)
(-25.7676 40.0439 -1.32002 -87.6525 -0.357899 -7.91654)
(2.253 64.1031 -2.59248 -44.4373 -0.809539 -7.53343)
(-3.2665 69.9015 -3.14248 -43.3379 -1.06765 -6.40541)
(-5.65864 66.0518 -3.40144 -31.9573 -1.02223 -5.35129)
(-8.15114 58.5076 -3.58376 -23.6261 -0.825792 -4.64224)
(-9.63413 48.2277 -3.81837 -16.5457 -0.61507 -4.29424)
(-10.7348 36.0068 -4.27958 -11.3618 -0.453302 -4.24719)
(-7.75363 19.3965 -5.56589 -4.66921 -0.301816 -4.22619)
(-65.1364 45.2554 -1.23148 -286.483 -0.298574 -6.80496)
(40.3751 23.5095 -2.58186 -117.918 -0.759111 -6.84221)
(13.8883 34.912 -3.22346 -129.222 -1.03992 -5.93386)
(13.8616 32.2455 -3.53994 -90.3403 -1.02064 -5.07549)
(8.32752 29.3826 -3.74051 -62.8986 -0.825436 -4.48478)
(5.64394 24.3262 -3.97527 -38.0812 -0.583454 -4.16965)
(4.5713 17.9788 -4.41648 -20.451 -0.331663 -4.0547)
(9.63851 8.88921 -5.60948 -7.21997 -0.0196542 -4.05393)
(-4.06141 0.276765 0.289779 -412.196 -47.3762 -131.968)
(-3.26082 0.602887 0.532179 -205.031 8.6616 -27.9895)
(-2.25467 0.813265 0.560871 -196.778 5.06435 -41.1928)
(-1.48386 0.817631 0.543286 -137.127 9.48596 -26.6136)
(-0.88834 0.699029 0.579427 -91.7701 9.49975 -20.1681)
(-0.290376 0.536316 0.708761 -52.9042 8.88545 -14.4868)
(0.745935 0.273654 0.942315 -26.1051 7.08489 -11.9126)
(3.74703 -0.853441 1.23249 -12.1655 2.80037 -11.9172)
(-4.78119 0.120075 -0.0794798 -400.803 -32.0782 -137.885)
(-4.74945 0.32031 -0.118599 -229.135 -0.349582 -47.1802)
(-4.41844 0.484733 -0.184034 -197.702 8.62299 -41.9397)
(-4.05866 0.539339 -0.229665 -139.9 13.309 -30.0642)
(-3.69406 0.518892 -0.211876 -92.0903 14.5436 -23.0088)
(-3.22551 0.480227 -0.122544 -52.8323 13.7071 -18.0679)
(-2.23489 0.379788 0.0205294 -25.2975 10.9362 -15.4909)
(0.985329 -0.58239 0.186823 -12.2603 5.4596 -15.7006)
(-5.17967 0.0510334 -0.141658 -407.135 -17.9066 -150.227)
(-5.35284 0.186867 -0.215727 -227.993 -0.800536 -63.5766)
(-5.2171 0.332371 -0.249825 -198.581 6.28436 -54.1238)
(-4.99358 0.424531 -0.254985 -140.8 10.5362 -37.822)
(-4.68124 0.475811 -0.214166 -92.3795 12.1605 -26.8056)
(-4.19173 0.521798 -0.130415 -52.7214 11.83 -18.7605)
(-3.13398 0.508718 -0.031582 -24.7766 9.73955 -13.6186)
(-0.0509843 -0.296211 0.0262041 -10.7053 4.83854 -10.736)
(-5.46787 0.0242473 -0.132306 -409.976 -9.36617 -157.84)
(-5.70065 0.128177 -0.1999 -226.57 -0.254523 -75.4333)
(-5.64321 0.26516 -0.21143 -198.164 4.33441 -64.5026)
(-5.47442 0.385777 -0.193154 -140.77 7.41639 -45.1505)
(-5.16734 0.490711 -0.143564 -92.3457 8.88377 -30.8105)
(-4.63476 0.598504 -0.0722918 -52.561 8.91999 -19.8434)
(-3.50454 0.638478 -0.00759229 -24.2321 7.56606 -12.1834)
(-0.511653 -0.069195 0.00330961 -9.76483 3.85153 -7.12413)
(-5.68215 0.0137596 -0.103082 -410.12 -4.64617 -161.731)
(-5.9357 0.10431 -0.154514 -225.503 0.153442 -82.6993)
(-5.91114 0.240962 -0.153669 -197.413 2.98903 -71.3541)
(-5.76267 0.383607 -0.12742 -140.257 5.00425 -50.4021)
(-5.44656 0.525618 -0.0817413 -91.9632 6.09201 -33.9728)
(-4.88057 0.672168 -0.0289746 -52.1534 6.25501 -20.9391)
(-3.72012 0.744765 0.00616234 -23.592 5.42034 -11.4332)
(-0.795952 0.0986955 -0.00722424 -8.96645 2.78742 -4.8927)
(-5.82894 0.0105303 -0.0697693 -409.194 -2.1542 -163.54)
(-6.08828 0.0974741 -0.103224 -224.675 0.304869 -86.8601)
(-6.07506 0.237882 -0.0972222 -196.693 1.98225 -75.467)
(-5.93113 0.396474 -0.0728529 -139.667 3.21072 -53.7209)
(-5.60371 0.562098 -0.037829 -91.4599 3.92141 -36.1093)
(-5.01534 0.731145 -0.00316804 -51.664 4.07585 -21.8171)
(-3.84684 0.819794 0.0133448 -22.9929 3.57855 -11.1517)
(-0.979901 0.211801 -0.0096094 -8.39358 1.85436 -3.79435)
(-5.91881 0.0101739 -0.0391654 -408.177 -0.890745 -164.299)
(-6.17887 0.0974936 -0.0570818 -224.084 0.259177 -89.0695)
(-6.1684 0.242205 -0.0514257 -196.151 1.14149 -77.7281)
(-6.02353 0.410983 -0.0350311 -139.202 1.79823 -55.6112)
(-5.68766 0.589925 -0.0137193 -91.0405 2.19197 -37.3827)
(-5.08733 0.770665 0.00525159 -51.2614 2.29073 -22.4019)
(-3.91718 0.866576 0.0117206 -22.545 2.02491 -11.0876)
(-1.09379 0.280636 -0.00801218 -8.01606 1.05334 -3.32287)
(-5.96005 0.0106316 -0.0124484 -407.566 -0.235821 -164.561)
(-6.21912 0.0987358 -0.0179375 -223.773 0.0987693 -90.0178)
(-6.20909 0.245833 -0.0157591 -195.863 0.373676 -78.721)
(-6.06334 0.419444 -0.0101152 -138.952 0.57983 -56.4595)
(-5.72403 0.604384 -0.00309863 -90.8104 0.705301 -37.97)
(-5.11921 0.790369 0.00285366 -51.0415 0.738462 -22.6901)
(-3.94679 0.888068 0.0045373 -22.3089 0.65457 -11.0898)
(-1.1565 0.312557 -0.00348424 -7.83605 0.34117 -3.17024)
(-57.8405 9.69423 -2.16737 0.576561 -2.39059 1.23148)
(-52.4369 9.19687 1.07584 2.35124 -1.98734 5.40191)
(-53.3334 9.17979 0.436085 3.78672 -1.55598 0.665449)
(-53.8973 9.27456 -0.0752865 4.91493 -1.21278 -1.37695)
(-54.7932 9.38446 -0.386043 5.75456 -0.922658 -2.49958)
(-55.4792 9.48071 -0.416967 6.34844 -0.6575 -2.75527)
(-55.9429 9.55151 -0.30583 6.71347 -0.404068 -2.71241)
(-56.204 9.58644 -0.113074 6.81815 -0.13957 -2.67325)
(-49.6626 6.95076 -4.34258 -1.72604 -0.792065 -7.57187)
(-44.8033 5.96962 -2.43975 -0.866095 -0.688677 -6.69044)
(-45.1202 5.71411 -2.15839 0.116909 -0.5243 -6.83183)
(-46.3888 5.63985 -2.31078 0.93679 -0.409732 -6.6782)
(-47.6736 5.62073 -2.21804 1.54358 -0.320672 -6.64363)
(-48.6351 5.62154 -1.7914 1.97044 -0.234322 -6.5553)
(-49.2471 5.63205 -1.14916 2.24854 -0.143106 -6.46181)
(-49.5217 5.648 -0.395141 2.40885 -0.0478218 -6.38966)
(-4.93532 5.89955 -4.49073 -3.46973 -0.0971743 -1.77304)
(-6.83078 4.7619 -4.20807 -2.87279 -0.127165 -2.92648)
(-8.62785 4.37332 -3.87836 -2.15955 -0.101593 -0.837391)
(-10.3785 4.1926 -3.55412 -1.57933 -0.0937207 0.948676)
(-11.722 4.08985 -3.05011 -1.16065 -0.0885049 2.03521)
(-12.6504 4.02709 -2.32292 -0.872605 -0.0730291 2.58065)
(-13.2274 3.99062 -1.4462 -0.69006 -0.0453947 2.81647)
(-13.4965 3.97252 -0.490645 -0.586147 -0.0142519 2.9042)
(12.3804 5.72457 -3.48972 -3.34288 0.328177 -4.22117)
(8.51229 4.59119 -3.01327 -2.89214 0.11944 -6.84572)
(7.21928 4.1536 -2.80844 -2.46064 0.0357917 -1.96488)
(5.93984 3.92115 -2.41029 -2.10348 -0.00785364 1.42773)
(5.06498 3.77413 -1.9773 -1.84753 -0.0319531 3.4957)
(4.41938 3.67677 -1.46104 -1.67834 -0.0369665 4.45493)
(4.00075 3.61564 -0.896066 -1.57697 -0.0272083 4.82449)
(3.79002 3.58274 -0.30249 -1.53149 -0.00960764 4.92676)
)
;
    }
    symmetry
    {
        type            symmetryPlane;
    }
    bottom
    {
        type            calculated;
        value           nonuniform List<symmTensor> 
32
(
(208.444 75.2605 0 312.666 84.8967 208.444)
(204.49 84.4463 0 306.735 42.0867 204.49)
(210.393 88.6113 0 315.589 20.2523 210.393)
(213.88 90.0569 0 320.819 9.10843 213.88)
(215.438 90.452 0 323.158 3.62676 215.438)
(216.053 90.4899 0 324.079 1.13907 216.053)
(216.247 90.4395 0 324.371 0.200856 216.247)
(216.289 90.3964 0 324.434 -0.00455 216.289)
(39.7453 32.3062 0 59.6179 25.4159 39.7453)
(41.6634 42.5458 0 62.495 13.11 41.6634)
(44.522 44.1262 0 66.7829 6.07308 44.522)
(45.9161 43.7183 0 68.8742 2.39973 45.9161)
(46.6486 42.9962 0 69.9729 0.653831 46.6486)
(47.0566 42.3904 0 70.5849 -0.0426055 47.0566)
(47.2802 41.9902 0 70.9203 -0.194087 47.2802)
(47.3803 41.7949 0 71.0704 -0.0895249 47.3803)
(-57.5087 28.6578 0 -86.263 -30.375 -57.5087)
(-51.7426 38.8308 0 -77.6139 -17.6125 -51.7426)
(-52.2221 39.8474 0 -78.3332 -10.325 -52.2221)
(-52.452 38.9637 0 -78.678 -6.02064 -52.452)
(-52.3879 37.905 0 -78.5819 -3.45204 -52.3879)
(-52.1978 37.0722 0 -78.2967 -1.90567 -52.1978)
(-52.0091 36.531 0 -78.0137 -0.944659 -52.0091)
(-51.8976 36.2685 0 -77.8464 -0.284097 -51.8976)
(-211.399 63.6343 0 -317.098 -93.5147 -211.399)
(-201.583 71.274 0 -302.375 -50.132 -201.583)
(-206.773 73.5463 0 -310.159 -26.745 -206.773)
(-209.298 73.5715 0 -313.948 -13.9538 -209.298)
(-209.903 72.9459 0 -314.855 -7.03794 -209.903)
(-209.703 72.2759 0 -314.554 -3.37156 -209.703)
(-209.318 71.776 0 -313.978 -1.45708 -209.318)
(-209.062 71.5162 0 -313.593 -0.400122 -209.062)
)
;
    }
}


// ************************************************************************* //
