/*--------------------------------*- C++ -*----------------------------------*\
| =========                 |                                                 |
| \\      /  F ield         | foam-extend: Open Source CFD                    |
|  \\    /   O peration     | Version:     3.1                                |
|   \\  /    A nd           | Web:         http://www.extend-project.de       |
|    \\/     M anipulation  |                                                 |
\*---------------------------------------------------------------------------*/
FoamFile
{
    version     2.0;
    format      ascii;
    class       volVectorField;
    location    "0.0009";
    object      D_0;
}
// * * * * * * * * * * * * * * * * * * * * * * * * * * * * * * * * * * * * * //

dimensions      [0 1 0 0 0 0 0];

internalField   nonuniform List<vector> 
6400
(
(6.79894e-06 2.408e-07 4.54987e-06)
(5.53491e-06 1.98128e-07 1.43497e-06)
(5.04695e-06 1.78922e-07 -7.72289e-07)
(5.24845e-06 1.81365e-07 -3.64015e-06)
(6.74749e-06 7.82652e-07 4.55179e-06)
(5.49538e-06 6.37776e-07 1.43892e-06)
(5.01201e-06 5.81875e-07 -7.67785e-07)
(5.2168e-06 6.05825e-07 -3.63521e-06)
(6.66183e-06 1.31531e-06 4.54973e-06)
(5.42578e-06 1.07131e-06 1.43833e-06)
(4.94875e-06 9.77939e-07 -7.67789e-07)
(5.15143e-06 1.01914e-06 -3.63479e-06)
(6.53623e-06 1.83714e-06 4.54842e-06)
(5.32357e-06 1.49659e-06 1.43774e-06)
(4.85551e-06 1.36605e-06 -7.67877e-07)
(5.05435e-06 1.42327e-06 -3.63436e-06)
(6.37082e-06 2.34609e-06 4.54777e-06)
(5.1888e-06 1.91137e-06 1.43757e-06)
(4.73249e-06 1.74443e-06 -7.67642e-07)
(4.92614e-06 1.81701e-06 -3.63361e-06)
(6.1664e-06 2.83965e-06 4.5476e-06)
(5.02219e-06 2.31353e-06 1.4377e-06)
(4.58038e-06 2.11116e-06 -7.67182e-07)
(4.76762e-06 2.19855e-06 -3.63269e-06)
(5.92413e-06 3.31517e-06 4.54779e-06)
(4.82469e-06 2.70086e-06 1.43803e-06)
(4.40009e-06 2.46429e-06 -7.66607e-07)
(4.57979e-06 2.56589e-06 -3.63172e-06)
(5.64536e-06 3.76994e-06 4.5483e-06)
(4.59745e-06 3.07118e-06 1.43851e-06)
(4.19273e-06 2.80182e-06 -7.65999e-07)
(4.36383e-06 2.91697e-06 -3.63081e-06)
(5.3317e-06 4.2013e-06 4.5491e-06)
(4.34182e-06 3.42231e-06 1.43908e-06)
(3.95957e-06 3.12179e-06 -7.65435e-07)
(4.12115e-06 3.24975e-06 -3.63006e-06)
(4.98486e-06 4.6068e-06 4.55016e-06)
(4.0594e-06 3.75222e-06 1.43962e-06)
(3.70217e-06 3.42237e-06 -7.65035e-07)
(3.85337e-06 3.56237e-06 -3.6296e-06)
(4.6068e-06 4.98486e-06 4.55016e-06)
(3.75222e-06 4.0594e-06 1.43962e-06)
(3.42237e-06 3.70216e-06 -7.65035e-07)
(3.56237e-06 3.85337e-06 -3.6296e-06)
(4.2013e-06 5.3317e-06 4.54911e-06)
(3.42231e-06 4.34182e-06 1.43908e-06)
(3.12179e-06 3.95957e-06 -7.65435e-07)
(3.24975e-06 4.12115e-06 -3.63006e-06)
(3.76994e-06 5.64537e-06 4.5483e-06)
(3.07118e-06 4.59746e-06 1.43851e-06)
(2.80182e-06 4.19273e-06 -7.65999e-07)
(2.91697e-06 4.36384e-06 -3.63081e-06)
(3.31517e-06 5.92413e-06 4.5478e-06)
(2.70086e-06 4.82469e-06 1.43803e-06)
(2.46429e-06 4.40009e-06 -7.66607e-07)
(2.56589e-06 4.57979e-06 -3.63172e-06)
(2.83965e-06 6.16641e-06 4.5476e-06)
(2.31353e-06 5.02219e-06 1.4377e-06)
(2.11116e-06 4.58038e-06 -7.67183e-07)
(2.19856e-06 4.76762e-06 -3.63269e-06)
(2.34609e-06 6.37082e-06 4.54777e-06)
(1.91138e-06 5.18881e-06 1.43757e-06)
(1.74443e-06 4.73249e-06 -7.67643e-07)
(1.81701e-06 4.92615e-06 -3.63361e-06)
(1.83714e-06 6.53624e-06 4.54842e-06)
(1.49659e-06 5.32357e-06 1.43774e-06)
(1.36606e-06 4.85551e-06 -7.67877e-07)
(1.42327e-06 5.05435e-06 -3.63436e-06)
(1.31531e-06 6.66184e-06 4.54974e-06)
(1.07131e-06 5.42578e-06 1.43833e-06)
(9.7794e-07 4.94875e-06 -7.6779e-07)
(1.01914e-06 5.15143e-06 -3.63479e-06)
(7.82653e-07 6.74749e-06 4.55179e-06)
(6.37776e-07 5.49539e-06 1.43892e-06)
(5.81876e-07 5.01201e-06 -7.67785e-07)
(6.05826e-07 5.2168e-06 -3.63521e-06)
(2.408e-07 6.79894e-06 4.54987e-06)
(1.98128e-07 5.53491e-06 1.43498e-06)
(1.78922e-07 5.04695e-06 -7.7229e-07)
(1.81365e-07 5.24845e-06 -3.64015e-06)
(2.62953e-05 1.02346e-06 8.82125e-06)
(2.49732e-05 9.75808e-07 3.37144e-06)
(2.41104e-05 9.44088e-07 -1.40496e-06)
(2.368e-05 9.31024e-07 -6.69476e-06)
(2.61189e-05 3.08021e-06 8.80795e-06)
(2.48083e-05 2.92918e-06 3.35915e-06)
(2.39553e-05 2.83158e-06 -1.41709e-06)
(2.35315e-05 2.78474e-06 -6.70663e-06)
(2.57901e-05 5.11973e-06 8.80249e-06)
(2.4496e-05 4.86565e-06 3.35484e-06)
(2.36542e-05 4.70161e-06 -1.42035e-06)
(2.32364e-05 4.6217e-06 -6.70848e-06)
(2.53041e-05 7.12704e-06 8.80008e-06)
(2.40343e-05 6.77208e-06 3.35363e-06)
(2.32082e-05 6.54242e-06 -1.42036e-06)
(2.27981e-05 6.42991e-06 -6.70706e-06)
(2.46631e-05 9.08992e-06 8.79911e-06)
(2.34252e-05 8.63633e-06 3.35383e-06)
(2.26197e-05 8.34241e-06 -1.419e-06)
(2.22197e-05 8.19788e-06 -6.70433e-06)
(2.38709e-05 1.09964e-05 8.79904e-06)
(2.26724e-05 1.0447e-05 3.35475e-06)
(2.18925e-05 1.00905e-05 -1.41703e-06)
(2.1505e-05 9.91473e-06 -6.70112e-06)
(2.29321e-05 1.28351e-05 8.79964e-06)
(2.17804e-05 1.2193e-05 3.35608e-06)
(2.10309e-05 1.17761e-05 -1.41487e-06)
(2.06583e-05 1.157e-05 -6.69792e-06)
(2.18523e-05 1.45946e-05 8.8008e-06)
(2.07546e-05 1.38639e-05 3.3576e-06)
(2.00401e-05 1.3389e-05 -1.41278e-06)
(1.9685e-05 1.31538e-05 -6.69506e-06)
(2.06379e-05 1.62644e-05 8.80235e-06)
(1.9601e-05 1.54493e-05 3.3591e-06)
(1.89262e-05 1.49192e-05 -1.41104e-06)
(1.85909e-05 1.46564e-05 -6.69284e-06)
(1.92958e-05 1.78344e-05 8.80385e-06)
(1.83266e-05 1.69397e-05 3.3602e-06)
(1.76961e-05 1.63577e-05 -1.40996e-06)
(1.73829e-05 1.60688e-05 -6.69157e-06)
(1.78344e-05 1.92958e-05 8.80385e-06)
(1.69397e-05 1.83266e-05 3.3602e-06)
(1.63577e-05 1.76961e-05 -1.40996e-06)
(1.60688e-05 1.73829e-05 -6.69157e-06)
(1.62644e-05 2.06379e-05 8.80235e-06)
(1.54493e-05 1.9601e-05 3.3591e-06)
(1.49192e-05 1.89262e-05 -1.41104e-06)
(1.46564e-05 1.85909e-05 -6.69284e-06)
(1.45946e-05 2.18523e-05 8.8008e-06)
(1.38639e-05 2.07546e-05 3.3576e-06)
(1.3389e-05 2.00401e-05 -1.41278e-06)
(1.31538e-05 1.9685e-05 -6.69506e-06)
(1.28351e-05 2.29321e-05 8.79965e-06)
(1.2193e-05 2.17804e-05 3.35608e-06)
(1.17761e-05 2.10309e-05 -1.41487e-06)
(1.157e-05 2.06583e-05 -6.69793e-06)
(1.09964e-05 2.38709e-05 8.79904e-06)
(1.0447e-05 2.26724e-05 3.35475e-06)
(1.00905e-05 2.18925e-05 -1.41703e-06)
(9.91473e-06 2.1505e-05 -6.70113e-06)
(9.08992e-06 2.46631e-05 8.79911e-06)
(8.63634e-06 2.34252e-05 3.35383e-06)
(8.34241e-06 2.26197e-05 -1.419e-06)
(8.19788e-06 2.22197e-05 -6.70433e-06)
(7.12704e-06 2.53041e-05 8.80008e-06)
(6.77208e-06 2.40343e-05 3.35363e-06)
(6.54242e-06 2.32082e-05 -1.42036e-06)
(6.42991e-06 2.27981e-05 -6.70706e-06)
(5.11973e-06 2.57901e-05 8.80249e-06)
(4.86565e-06 2.44961e-05 3.35484e-06)
(4.70162e-06 2.36542e-05 -1.42035e-06)
(4.6217e-06 2.32364e-05 -6.70848e-06)
(3.08021e-06 2.6119e-05 8.80795e-06)
(2.92918e-06 2.48083e-05 3.35915e-06)
(2.83159e-06 2.39553e-05 -1.41709e-06)
(2.78474e-06 2.35315e-05 -6.70663e-06)
(1.02346e-06 2.62953e-05 8.82126e-06)
(9.75809e-07 2.49732e-05 3.37144e-06)
(9.44088e-07 2.41104e-05 -1.40496e-06)
(9.31024e-07 2.36801e-05 -6.69476e-06)
(4.41099e-05 1.73006e-06 8.08355e-06)
(4.29628e-05 1.69077e-06 3.19244e-06)
(4.18875e-05 1.65236e-06 -1.36011e-06)
(4.08713e-05 1.61933e-06 -6.16395e-06)
(4.38283e-05 5.17982e-06 8.07161e-06)
(4.2687e-05 5.05074e-06 3.17997e-06)
(4.16183e-05 4.92966e-06 -1.37246e-06)
(4.06077e-05 4.81597e-06 -6.17464e-06)
(4.32793e-05 8.59831e-06 8.06561e-06)
(4.21512e-05 8.37946e-06 3.17458e-06)
(4.10952e-05 8.17511e-06 -1.37668e-06)
(4.00968e-05 7.9823e-06 -6.17686e-06)
(4.24636e-05 1.1963e-05 8.06261e-06)
(4.1356e-05 1.16563e-05 3.173e-06)
(4.03193e-05 1.13697e-05 -1.37671e-06)
(3.9339e-05 1.1099e-05 -6.17504e-06)
(4.13867e-05 1.52539e-05 8.0613e-06)
(4.03066e-05 1.48611e-05 3.17334e-06)
(3.92955e-05 1.44938e-05 -1.37471e-06)
(3.83395e-05 1.41468e-05 -6.17115e-06)
(4.00556e-05 1.8451e-05 8.06106e-06)
(3.90096e-05 1.79742e-05 3.17468e-06)
(3.80305e-05 1.75283e-05 -1.37175e-06)
(3.71047e-05 1.71069e-05 -6.16638e-06)
(3.84786e-05 2.15349e-05 8.06162e-06)
(3.74733e-05 2.09769e-05 3.17656e-06)
(3.65323e-05 2.04549e-05 -1.36849e-06)
(3.56426e-05 1.99614e-05 -6.1615e-06)
(3.66654e-05 2.44867e-05 8.06285e-06)
(3.57071e-05 2.38507e-05 3.17865e-06)
(3.48102e-05 2.32556e-05 -1.36537e-06)
(3.39624e-05 2.2693e-05 -6.15712e-06)
(3.46267e-05 2.72884e-05 8.0645e-06)
(3.37216e-05 2.65783e-05 3.18062e-06)
(3.28748e-05 2.59136e-05 -1.36282e-06)
(3.20743e-05 2.52852e-05 -6.15375e-06)
(3.23747e-05 2.99229e-05 8.06602e-06)
(3.15289e-05 2.91428e-05 3.18197e-06)
(3.07377e-05 2.84126e-05 -1.36131e-06)
(2.99899e-05 2.77223e-05 -6.15187e-06)
(2.99229e-05 3.23747e-05 8.06602e-06)
(2.91428e-05 3.15289e-05 3.18197e-06)
(2.84126e-05 3.07377e-05 -1.36131e-06)
(2.77223e-05 2.99899e-05 -6.15187e-06)
(2.72884e-05 3.46268e-05 8.0645e-06)
(2.65783e-05 3.37216e-05 3.18062e-06)
(2.59136e-05 3.28748e-05 -1.36282e-06)
(2.52852e-05 3.20743e-05 -6.15375e-06)
(2.44867e-05 3.66654e-05 8.06285e-06)
(2.38507e-05 3.57071e-05 3.17865e-06)
(2.32556e-05 3.48102e-05 -1.36537e-06)
(2.2693e-05 3.39624e-05 -6.15712e-06)
(2.15349e-05 3.84786e-05 8.06162e-06)
(2.09769e-05 3.74733e-05 3.17656e-06)
(2.04549e-05 3.65323e-05 -1.36849e-06)
(1.99614e-05 3.56426e-05 -6.1615e-06)
(1.8451e-05 4.00556e-05 8.06106e-06)
(1.79742e-05 3.90096e-05 3.17468e-06)
(1.75283e-05 3.80305e-05 -1.37175e-06)
(1.71069e-05 3.71047e-05 -6.16638e-06)
(1.5254e-05 4.13867e-05 8.0613e-06)
(1.48611e-05 4.03066e-05 3.17334e-06)
(1.44938e-05 3.92955e-05 -1.37471e-06)
(1.41468e-05 3.83395e-05 -6.17115e-06)
(1.19631e-05 4.24636e-05 8.06261e-06)
(1.16563e-05 4.1356e-05 3.173e-06)
(1.13697e-05 4.03193e-05 -1.37671e-06)
(1.1099e-05 3.93391e-05 -6.17505e-06)
(8.59831e-06 4.32794e-05 8.06561e-06)
(8.37946e-06 4.21512e-05 3.17458e-06)
(8.17512e-06 4.10953e-05 -1.37668e-06)
(7.9823e-06 4.00968e-05 -6.17686e-06)
(5.17982e-06 4.38283e-05 8.07161e-06)
(5.05074e-06 4.2687e-05 3.17997e-06)
(4.92966e-06 4.16183e-05 -1.37246e-06)
(4.81597e-06 4.06077e-05 -6.17464e-06)
(1.73006e-06 4.41099e-05 8.08356e-06)
(1.69077e-06 4.29628e-05 3.19245e-06)
(1.65236e-06 4.18876e-05 -1.36011e-06)
(1.61933e-06 4.08713e-05 -6.16396e-06)
(5.60265e-05 2.20111e-06 4.42922e-06)
(5.49453e-05 2.16409e-06 1.6116e-06)
(5.37435e-05 2.12162e-06 -1.09543e-06)
(5.24131e-05 2.07917e-06 -3.87846e-06)
(5.56728e-05 6.58137e-06 4.42293e-06)
(5.45947e-05 6.46072e-06 1.60535e-06)
(5.33976e-05 6.32617e-06 -1.10123e-06)
(5.20724e-05 6.17803e-06 -3.88295e-06)
(5.49748e-05 1.09211e-05 4.41892e-06)
(5.39084e-05 1.07167e-05 1.60234e-06)
(5.2725e-05 1.04893e-05 -1.10301e-06)
(5.14155e-05 1.02374e-05 -3.88299e-06)
(5.39365e-05 1.51923e-05 4.41647e-06)
(5.2889e-05 1.49054e-05 1.60159e-06)
(5.17268e-05 1.45861e-05 -1.10207e-06)
(5.0441e-05 1.42323e-05 -3.88011e-06)
(5.25657e-05 1.93697e-05 4.4151e-06)
(5.15437e-05 1.90014e-05 1.60224e-06)
(5.041e-05 1.85919e-05 -1.09948e-06)
(4.91559e-05 1.81381e-05 -3.87537e-06)
(5.08717e-05 2.3428e-05 4.41458e-06)
(4.98817e-05 2.29802e-05 1.60376e-06)
(4.87836e-05 2.24824e-05 -1.09599e-06)
(4.75692e-05 2.19311e-05 -3.86966e-06)
(4.88656e-05 2.73428e-05 4.41479e-06)
(4.79139e-05 2.68177e-05 1.60579e-06)
(4.68586e-05 2.62344e-05 -1.09216e-06)
(4.56916e-05 2.55885e-05 -3.86377e-06)
(4.65599e-05 3.10903e-05 4.41566e-06)
(4.56527e-05 3.04908e-05 1.60803e-06)
(4.4647e-05 2.98252e-05 -1.0885e-06)
(4.3535e-05 2.90885e-05 -3.85841e-06)
(4.39688e-05 3.46479e-05 4.41701e-06)
(4.31121e-05 3.39774e-05 1.61011e-06)
(4.21627e-05 3.32334e-05 -1.08552e-06)
(4.1113e-05 3.24101e-05 -3.85425e-06)
(4.11076e-05 3.79937e-05 4.41833e-06)
(4.03075e-05 3.72562e-05 1.6115e-06)
(3.94207e-05 3.64382e-05 -1.08378e-06)
(3.84404e-05 3.55336e-05 -3.85194e-06)
(3.79937e-05 4.11076e-05 4.41833e-06)
(3.72562e-05 4.03075e-05 1.6115e-06)
(3.64382e-05 3.94207e-05 -1.08378e-06)
(3.55336e-05 3.84403e-05 -3.85194e-06)
(3.46479e-05 4.39688e-05 4.41701e-06)
(3.39774e-05 4.31121e-05 1.61011e-06)
(3.32334e-05 4.21627e-05 -1.08552e-06)
(3.24101e-05 4.1113e-05 -3.85425e-06)
(3.10904e-05 4.656e-05 4.41566e-06)
(3.04908e-05 4.56527e-05 1.60803e-06)
(2.98252e-05 4.4647e-05 -1.0885e-06)
(2.90885e-05 4.3535e-05 -3.85841e-06)
(2.73428e-05 4.88656e-05 4.41479e-06)
(2.68177e-05 4.79139e-05 1.60579e-06)
(2.62344e-05 4.68586e-05 -1.09216e-06)
(2.55885e-05 4.56916e-05 -3.86377e-06)
(2.34281e-05 5.08718e-05 4.41458e-06)
(2.29802e-05 4.98817e-05 1.60376e-06)
(2.24824e-05 4.87837e-05 -1.09599e-06)
(2.19311e-05 4.75692e-05 -3.86966e-06)
(1.93697e-05 5.25657e-05 4.41511e-06)
(1.90014e-05 5.15437e-05 1.60224e-06)
(1.85919e-05 5.041e-05 -1.09948e-06)
(1.81381e-05 4.91559e-05 -3.87537e-06)
(1.51923e-05 5.39365e-05 4.41647e-06)
(1.49054e-05 5.28891e-05 1.60159e-06)
(1.45861e-05 5.17268e-05 -1.10207e-06)
(1.42323e-05 5.0441e-05 -3.88012e-06)
(1.09211e-05 5.49748e-05 4.41893e-06)
(1.07167e-05 5.39085e-05 1.60234e-06)
(1.04893e-05 5.2725e-05 -1.10301e-06)
(1.02374e-05 5.14155e-05 -3.88299e-06)
(6.58138e-06 5.56728e-05 4.42293e-06)
(6.46072e-06 5.45948e-05 1.60535e-06)
(6.32617e-06 5.33977e-05 -1.10123e-06)
(6.17803e-06 5.20724e-05 -3.88295e-06)
(2.20111e-06 5.60266e-05 4.42923e-06)
(2.16409e-06 5.49453e-05 1.6116e-06)
(2.12162e-06 5.37436e-05 -1.09543e-06)
(2.07917e-06 5.24131e-05 -3.87846e-06)
(5.99484e-05 2.35375e-06 -3.55939e-07)
(5.89003e-05 2.31817e-06 -5.72435e-07)
(5.76862e-05 2.27566e-06 -8.63695e-07)
(5.62999e-05 2.23201e-06 -1.10734e-06)
(5.95693e-05 7.03806e-06 -3.55641e-07)
(5.85235e-05 6.92239e-06 -5.71671e-07)
(5.73133e-05 6.78762e-06 -8.62322e-07)
(5.5932e-05 6.63461e-06 -1.10515e-06)
(5.88196e-05 1.16787e-05 -3.56352e-07)
(5.77848e-05 1.14828e-05 -5.71222e-07)
(5.65881e-05 1.12549e-05 -8.60795e-07)
(5.52232e-05 1.09943e-05 -1.10241e-06)
(5.77045e-05 1.62457e-05 -3.573e-07)
(5.66876e-05 1.59703e-05 -5.70499e-07)
(5.55123e-05 1.565e-05 -8.58559e-07)
(5.41719e-05 1.52836e-05 -1.0985e-06)
(5.62328e-05 2.07117e-05 -3.58111e-07)
(5.52403e-05 2.03577e-05 -5.69324e-07)
(5.40936e-05 1.99463e-05 -8.55576e-07)
(5.27861e-05 1.94761e-05 -1.0935e-06)
(5.4415e-05 2.505e-05 -3.5859e-07)
(5.34531e-05 2.46187e-05 -5.67697e-07)
(5.23424e-05 2.41182e-05 -8.52024e-07)
(5.10762e-05 2.35464e-05 -1.08777e-06)
(5.22633e-05 2.92346e-05 -3.58604e-07)
(5.13385e-05 2.87279e-05 -5.65718e-07)
(5.02709e-05 2.81407e-05 -8.4821e-07)
(4.90544e-05 2.74703e-05 -1.08182e-06)
(4.97919e-05 3.32406e-05 -3.58081e-07)
(4.89104e-05 3.26611e-05 -5.63577e-07)
(4.78932e-05 3.19903e-05 -8.44545e-07)
(4.67342e-05 3.12249e-05 -1.07631e-06)
(4.70163e-05 3.7044e-05 -3.57089e-07)
(4.61843e-05 3.63949e-05 -5.61594e-07)
(4.52243e-05 3.56442e-05 -8.41544e-07)
(4.41306e-05 3.47882e-05 -1.07197e-06)
(4.39535e-05 4.06221e-05 -3.56038e-07)
(4.3177e-05 3.99071e-05 -5.60277e-07)
(4.22809e-05 3.90811e-05 -8.39791e-07)
(4.12599e-05 3.81396e-05 -1.06954e-06)
(4.06221e-05 4.39535e-05 -3.56038e-07)
(3.99071e-05 4.3177e-05 -5.60277e-07)
(3.90811e-05 4.22809e-05 -8.39791e-07)
(3.81396e-05 4.12599e-05 -1.06954e-06)
(3.7044e-05 4.70163e-05 -3.57088e-07)
(3.63949e-05 4.61843e-05 -5.61593e-07)
(3.56442e-05 4.52243e-05 -8.41543e-07)
(3.47882e-05 4.41306e-05 -1.07197e-06)
(3.32406e-05 4.97919e-05 -3.5808e-07)
(3.26611e-05 4.89104e-05 -5.63576e-07)
(3.19903e-05 4.78932e-05 -8.44545e-07)
(3.12249e-05 4.67342e-05 -1.07631e-06)
(2.92346e-05 5.22633e-05 -3.58602e-07)
(2.8728e-05 5.13385e-05 -5.65717e-07)
(2.81408e-05 5.0271e-05 -8.4821e-07)
(2.74703e-05 4.90544e-05 -1.08182e-06)
(2.505e-05 5.4415e-05 -3.58587e-07)
(2.46187e-05 5.34531e-05 -5.67696e-07)
(2.41182e-05 5.23424e-05 -8.52024e-07)
(2.35464e-05 5.10762e-05 -1.08777e-06)
(2.07117e-05 5.62328e-05 -3.58108e-07)
(2.03577e-05 5.52403e-05 -5.69322e-07)
(1.99463e-05 5.40936e-05 -8.55576e-07)
(1.94761e-05 5.27861e-05 -1.0935e-06)
(1.62457e-05 5.77045e-05 -3.57297e-07)
(1.59703e-05 5.66877e-05 -5.70497e-07)
(1.565e-05 5.55123e-05 -8.58559e-07)
(1.52836e-05 5.41719e-05 -1.0985e-06)
(1.16787e-05 5.88196e-05 -3.56349e-07)
(1.14828e-05 5.77848e-05 -5.7122e-07)
(1.12549e-05 5.65882e-05 -8.60794e-07)
(1.09943e-05 5.52232e-05 -1.10241e-06)
(7.03806e-06 5.95693e-05 -3.55638e-07)
(6.9224e-06 5.85236e-05 -5.71668e-07)
(6.78762e-06 5.73134e-05 -8.62321e-07)
(6.63462e-06 5.5932e-05 -1.10515e-06)
(2.35375e-06 5.99484e-05 -3.55936e-07)
(2.31818e-06 5.89003e-05 -5.72433e-07)
(2.27566e-06 5.76862e-05 -8.63695e-07)
(2.23201e-06 5.62999e-05 -1.10734e-06)
(5.59912e-05 2.19401e-06 -4.75827e-06)
(5.49949e-05 2.16086e-06 -2.67039e-06)
(5.38882e-05 2.12253e-06 -7.9202e-07)
(5.26639e-05 2.08443e-06 1.20955e-06)
(5.56343e-05 6.56577e-06 -4.75263e-06)
(5.46405e-05 6.45728e-06 -2.66432e-06)
(5.35374e-05 6.33588e-06 -7.85453e-07)
(5.23178e-05 6.20256e-06 1.21637e-06)
(5.493e-05 1.08967e-05 -4.75001e-06)
(5.39465e-05 1.07127e-05 -2.66091e-06)
(5.28557e-05 1.05072e-05 -7.81489e-07)
(5.16504e-05 1.02797e-05 1.22076e-06)
(5.38833e-05 1.51584e-05 -4.74889e-06)
(5.29165e-05 1.48994e-05 -2.65876e-06)
(5.1845e-05 1.46102e-05 -7.78491e-07)
(5.06613e-05 1.42901e-05 1.22466e-06)
(5.25024e-05 1.9325e-05 -4.7484e-06)
(5.15585e-05 1.89916e-05 -2.65701e-06)
(5.05129e-05 1.86199e-05 -7.75658e-07)
(4.93581e-05 1.82085e-05 1.2287e-06)
(5.07976e-05 2.33716e-05 -4.74808e-06)
(4.98826e-05 2.29649e-05 -2.65526e-06)
(4.88697e-05 2.25121e-05 -7.72689e-07)
(4.77514e-05 2.20112e-05 1.23309e-06)
(4.8781e-05 2.72742e-05 -4.74763e-06)
(4.79013e-05 2.67958e-05 -2.65339e-06)
(4.69277e-05 2.62638e-05 -7.6959e-07)
(4.58533e-05 2.56757e-05 1.23767e-06)
(4.64666e-05 3.101e-05 -4.74692e-06)
(4.56282e-05 3.0462e-05 -2.65146e-06)
(4.47008e-05 2.98534e-05 -7.6659e-07)
(4.36775e-05 2.91811e-05 1.24203e-06)
(4.38697e-05 3.45575e-05 -4.74593e-06)
(4.30788e-05 3.39426e-05 -2.64969e-06)
(4.2204e-05 3.32607e-05 -7.64094e-07)
(4.1239e-05 3.25078e-05 1.24554e-06)
(4.10069e-05 3.78962e-05 -4.74499e-06)
(4.02695e-05 3.7218e-05 -2.64853e-06)
(3.94537e-05 3.64668e-05 -7.62621e-07)
(3.85535e-05 3.56376e-05 1.24755e-06)
(3.78962e-05 4.1007e-05 -4.74499e-06)
(3.7218e-05 4.02695e-05 -2.64853e-06)
(3.64668e-05 3.94537e-05 -7.62621e-07)
(3.56376e-05 3.85535e-05 1.24755e-06)
(3.45575e-05 4.38697e-05 -4.74593e-06)
(3.39426e-05 4.30788e-05 -2.64969e-06)
(3.32608e-05 4.2204e-05 -7.64094e-07)
(3.25078e-05 4.1239e-05 1.24554e-06)
(3.101e-05 4.64666e-05 -4.74692e-06)
(3.0462e-05 4.56282e-05 -2.65146e-06)
(2.98534e-05 4.47008e-05 -7.66589e-07)
(2.91811e-05 4.36775e-05 1.24203e-06)
(2.72742e-05 4.8781e-05 -4.74763e-06)
(2.67958e-05 4.79013e-05 -2.65339e-06)
(2.62638e-05 4.69277e-05 -7.6959e-07)
(2.56758e-05 4.58533e-05 1.23767e-06)
(2.33716e-05 5.07976e-05 -4.74807e-06)
(2.29649e-05 4.98827e-05 -2.65526e-06)
(2.25121e-05 4.88697e-05 -7.72689e-07)
(2.20112e-05 4.77514e-05 1.23309e-06)
(1.9325e-05 5.25024e-05 -4.7484e-06)
(1.89916e-05 5.15585e-05 -2.65701e-06)
(1.86199e-05 5.05129e-05 -7.75657e-07)
(1.82085e-05 4.93582e-05 1.2287e-06)
(1.51584e-05 5.38833e-05 -4.74889e-06)
(1.48994e-05 5.29166e-05 -2.65876e-06)
(1.46103e-05 5.1845e-05 -7.7849e-07)
(1.42901e-05 5.06613e-05 1.22466e-06)
(1.08968e-05 5.49301e-05 -4.75001e-06)
(1.07127e-05 5.39465e-05 -2.66091e-06)
(1.05072e-05 5.28557e-05 -7.81488e-07)
(1.02797e-05 5.16505e-05 1.22076e-06)
(6.56578e-06 5.56343e-05 -4.75262e-06)
(6.45729e-06 5.46405e-05 -2.66431e-06)
(6.33589e-06 5.35374e-05 -7.85451e-07)
(6.20257e-06 5.23178e-05 1.21637e-06)
(2.19401e-06 5.59913e-05 -4.75827e-06)
(2.16087e-06 5.49949e-05 -2.67038e-06)
(2.12253e-06 5.38882e-05 -7.92019e-07)
(2.08443e-06 5.26639e-05 1.20955e-06)
(4.63926e-05 1.81189e-06 -7.68517e-06)
(4.54819e-05 1.7824e-06 -4.17537e-06)
(4.45683e-05 1.75114e-06 -9.28122e-07)
(4.36416e-05 1.72267e-06 2.45752e-06)
(4.60932e-05 5.43091e-06 -7.6768e-06)
(4.51856e-05 5.33298e-06 -4.16696e-06)
(4.42755e-05 5.23424e-06 -9.19572e-07)
(4.33529e-05 5.13539e-06 2.46571e-06)
(4.55057e-05 9.01632e-06 -7.6718e-06)
(4.46075e-05 8.84976e-06 -4.162e-06)
(4.37075e-05 8.68238e-06 -9.14846e-07)
(4.27957e-05 8.5133e-06 2.46989e-06)
(4.46334e-05 1.25438e-05 -7.66862e-06)
(4.37504e-05 1.23092e-05 -4.15894e-06)
(4.28661e-05 1.20733e-05 -9.12017e-07)
(4.19705e-05 1.18349e-05 2.47243e-06)
(4.34831e-05 1.59918e-05 -7.66634e-06)
(4.26209e-05 1.56896e-05 -4.15677e-06)
(4.17579e-05 1.5386e-05 -9.09994e-07)
(4.0884e-05 1.50791e-05 2.47429e-06)
(4.20638e-05 1.93396e-05 -7.66448e-06)
(4.12279e-05 1.89706e-05 -4.15492e-06)
(4.03917e-05 1.86003e-05 -9.08218e-07)
(3.95453e-05 1.82259e-05 2.47604e-06)
(4.03859e-05 2.25674e-05 -7.66279e-06)
(3.95822e-05 2.2133e-05 -4.15317e-06)
(3.87786e-05 2.16973e-05 -9.06456e-07)
(3.79655e-05 2.12569e-05 2.47791e-06)
(3.84619e-05 2.56569e-05 -7.66118e-06)
(3.76962e-05 2.51588e-05 -4.15147e-06)
(3.69309e-05 2.46596e-05 -9.04726e-07)
(3.61568e-05 2.41551e-05 2.47981e-06)
(3.63053e-05 2.85911e-05 -7.65967e-06)
(3.55834e-05 2.80317e-05 -4.14998e-06)
(3.48621e-05 2.74715e-05 -9.03237e-07)
(3.41326e-05 2.69052e-05 2.48146e-06)
(3.39308e-05 3.13541e-05 -7.65857e-06)
(3.32584e-05 3.07363e-05 -4.14902e-06)
(3.25864e-05 3.01183e-05 -9.02333e-07)
(3.19069e-05 2.94935e-05 2.48245e-06)
(3.13541e-05 3.39308e-05 -7.65857e-06)
(3.07363e-05 3.32584e-05 -4.14902e-06)
(3.01183e-05 3.25864e-05 -9.02333e-07)
(2.94935e-05 3.19069e-05 2.48245e-06)
(2.85911e-05 3.63053e-05 -7.65967e-06)
(2.80317e-05 3.55834e-05 -4.14998e-06)
(2.74715e-05 3.48621e-05 -9.03237e-07)
(2.69053e-05 3.41326e-05 2.48146e-06)
(2.56569e-05 3.84619e-05 -7.66118e-06)
(2.51588e-05 3.76962e-05 -4.15147e-06)
(2.46597e-05 3.69309e-05 -9.04725e-07)
(2.41551e-05 3.61568e-05 2.47981e-06)
(2.25674e-05 4.0386e-05 -7.66279e-06)
(2.2133e-05 3.95822e-05 -4.15317e-06)
(2.16973e-05 3.87786e-05 -9.06455e-07)
(2.12569e-05 3.79655e-05 2.47791e-06)
(1.93396e-05 4.20638e-05 -7.66448e-06)
(1.89707e-05 4.1228e-05 -4.15492e-06)
(1.86003e-05 4.03918e-05 -9.08217e-07)
(1.82259e-05 3.95454e-05 2.47604e-06)
(1.59919e-05 4.34832e-05 -7.66634e-06)
(1.56896e-05 4.26209e-05 -4.15677e-06)
(1.5386e-05 4.17579e-05 -9.09994e-07)
(1.50791e-05 4.0884e-05 2.47429e-06)
(1.25439e-05 4.46334e-05 -7.66862e-06)
(1.23092e-05 4.37504e-05 -4.15894e-06)
(1.20734e-05 4.28661e-05 -9.12016e-07)
(1.18349e-05 4.19705e-05 2.47243e-06)
(9.01633e-06 4.55058e-05 -7.6718e-06)
(8.84977e-06 4.46076e-05 -4.16199e-06)
(8.68239e-06 4.37075e-05 -9.14845e-07)
(8.51331e-06 4.27958e-05 2.46989e-06)
(5.43092e-06 4.60932e-05 -7.6768e-06)
(5.33298e-06 4.51857e-05 -4.16696e-06)
(5.23424e-06 4.42756e-05 -9.19571e-07)
(5.13539e-06 4.33529e-05 2.46571e-06)
(1.8119e-06 4.63927e-05 -7.68516e-06)
(1.7824e-06 4.54819e-05 -4.17537e-06)
(1.75115e-06 4.45683e-05 -9.28121e-07)
(1.72267e-06 4.36417e-05 2.45752e-06)
(3.46691e-05 1.34784e-06 -8.72137e-06)
(3.3868e-05 1.32252e-06 -4.86547e-06)
(3.31719e-05 1.29899e-06 -1.23585e-06)
(3.25677e-05 1.28067e-06 2.48981e-06)
(3.44418e-05 4.04983e-06 -8.71328e-06)
(3.36445e-05 3.96432e-06 -4.85779e-06)
(3.29519e-05 3.89027e-06 -1.22849e-06)
(3.2351e-05 3.82781e-06 2.49629e-06)
(3.4e-05 6.72708e-06 -8.70743e-06)
(3.32111e-05 6.58123e-06 -4.85289e-06)
(3.2526e-05 6.45546e-06 -1.22461e-06)
(3.19322e-05 6.34821e-06 2.49877e-06)
(3.33448e-05 9.36086e-06 -8.70288e-06)
(3.25693e-05 9.1553e-06 -4.8497e-06)
(3.18961e-05 8.97779e-06 -1.22273e-06)
(3.13126e-05 8.826e-06 2.4992e-06)
(3.24813e-05 1.19348e-05 -8.69903e-06)
(3.1724e-05 1.167e-05 -4.84742e-06)
(3.10669e-05 1.14412e-05 -1.22189e-06)
(3.04973e-05 1.12452e-05 2.49846e-06)
(3.14162e-05 1.44331e-05 -8.69557e-06)
(3.0682e-05 1.411e-05 -4.8456e-06)
(3.00453e-05 1.38305e-05 -1.22153e-06)
(2.94934e-05 1.35908e-05 2.49724e-06)
(3.01576e-05 1.68415e-05 -8.69243e-06)
(2.94517e-05 1.6461e-05 -4.844e-06)
(2.88397e-05 1.61317e-05 -1.22129e-06)
(2.83096e-05 1.58489e-05 2.49601e-06)
(2.87152e-05 1.91464e-05 -8.68966e-06)
(2.80428e-05 1.871e-05 -4.84256e-06)
(2.74602e-05 1.83322e-05 -1.22103e-06)
(2.69557e-05 1.80072e-05 2.49506e-06)
(2.70999e-05 2.13356e-05 -8.68741e-06)
(2.64662e-05 2.08453e-05 -4.84137e-06)
(2.59175e-05 2.04207e-05 -1.22073e-06)
(2.54427e-05 2.00548e-05 2.49448e-06)
(2.53235e-05 2.33982e-05 -8.68601e-06)
(2.47336e-05 2.28564e-05 -4.84063e-06)
(2.42229e-05 2.23873e-05 -1.2205e-06)
(2.37814e-05 2.19824e-05 2.49423e-06)
(2.33982e-05 2.53235e-05 -8.68601e-06)
(2.28564e-05 2.47336e-05 -4.84063e-06)
(2.23873e-05 2.42228e-05 -1.2205e-06)
(2.19824e-05 2.37814e-05 2.49423e-06)
(2.13356e-05 2.70999e-05 -8.68741e-06)
(2.08453e-05 2.64662e-05 -4.84137e-06)
(2.04207e-05 2.59175e-05 -1.22073e-06)
(2.00548e-05 2.54427e-05 2.49448e-06)
(1.91464e-05 2.87152e-05 -8.68966e-06)
(1.871e-05 2.80428e-05 -4.84256e-06)
(1.83322e-05 2.74602e-05 -1.22103e-06)
(1.80072e-05 2.69557e-05 2.49506e-06)
(1.68415e-05 3.01576e-05 -8.69243e-06)
(1.6461e-05 2.94517e-05 -4.844e-06)
(1.61317e-05 2.88397e-05 -1.22129e-06)
(1.58489e-05 2.83096e-05 2.49601e-06)
(1.44332e-05 3.14162e-05 -8.69557e-06)
(1.411e-05 3.0682e-05 -4.8456e-06)
(1.38305e-05 3.00453e-05 -1.22153e-06)
(1.35908e-05 2.94935e-05 2.49724e-06)
(1.19348e-05 3.24814e-05 -8.69903e-06)
(1.167e-05 3.1724e-05 -4.84742e-06)
(1.14412e-05 3.10669e-05 -1.22189e-06)
(1.12452e-05 3.04973e-05 2.49846e-06)
(9.36087e-06 3.33449e-05 -8.70288e-06)
(9.15531e-06 3.25693e-05 -4.8497e-06)
(8.97781e-06 3.18961e-05 -1.22272e-06)
(8.82601e-06 3.13126e-05 2.4992e-06)
(6.72709e-06 3.40001e-05 -8.70743e-06)
(6.58123e-06 3.32111e-05 -4.85288e-06)
(6.45547e-06 3.25261e-05 -1.22461e-06)
(6.34822e-06 3.19322e-05 2.49878e-06)
(4.04984e-06 3.44419e-05 -8.71328e-06)
(3.96432e-06 3.36445e-05 -4.85779e-06)
(3.89027e-06 3.29519e-05 -1.22849e-06)
(3.82782e-06 3.2351e-05 2.49629e-06)
(1.34785e-06 3.46692e-05 -8.72137e-06)
(1.32252e-06 3.3868e-05 -4.86547e-06)
(1.29899e-06 3.3172e-05 -1.23585e-06)
(1.28068e-06 3.25677e-05 2.48981e-06)
(2.40703e-05 9.30861e-07 -8.17389e-06)
(2.33849e-05 9.09441e-07 -4.82232e-06)
(2.28741e-05 8.92262e-07 -1.60614e-06)
(2.2523e-05 8.81728e-07 1.63584e-06)
(2.39098e-05 2.80557e-06 -8.16824e-06)
(2.32286e-05 2.73234e-06 -4.8174e-06)
(2.27211e-05 2.67856e-06 -1.60188e-06)
(2.23728e-05 2.6438e-06 1.63895e-06)
(2.3602e-05 4.66361e-06 -8.16308e-06)
(2.29282e-05 4.53842e-06 -4.81379e-06)
(2.24262e-05 4.44692e-06 -1.59977e-06)
(2.20819e-05 4.38687e-06 1.63926e-06)
(2.31463e-05 6.49159e-06 -8.15835e-06)
(2.2484e-05 6.31518e-06 -4.81117e-06)
(2.19907e-05 6.18586e-06 -1.59911e-06)
(2.16522e-05 6.10036e-06 1.63779e-06)
(2.25459e-05 8.27797e-06 -8.15387e-06)
(2.18994e-05 8.05098e-06 -4.80919e-06)
(2.14177e-05 7.88411e-06 -1.59936e-06)
(2.10871e-05 7.7732e-06 1.6351e-06)
(2.18053e-05 1.00118e-05 -8.1496e-06)
(2.11787e-05 9.73501e-06 -4.80759e-06)
(2.07119e-05 9.53104e-06 -1.60012e-06)
(2.03913e-05 9.39484e-06 1.63178e-06)
(2.09302e-05 1.1683e-05 -8.14564e-06)
(2.03277e-05 1.13574e-05 -4.80624e-06)
(1.98791e-05 1.11169e-05 -1.60106e-06)
(1.9571e-05 1.09556e-05 1.62837e-06)
(1.99274e-05 1.32824e-05 -8.14218e-06)
(1.93534e-05 1.29092e-05 -4.8051e-06)
(1.89263e-05 1.2633e-05 -1.60191e-06)
(1.86332e-05 1.24469e-05 1.62536e-06)
(1.88046e-05 1.48016e-05 -8.13949e-06)
(1.82635e-05 1.43825e-05 -4.8042e-06)
(1.78613e-05 1.40719e-05 -1.60251e-06)
(1.75858e-05 1.38615e-05 1.62315e-06)
(1.75703e-05 1.62332e-05 -8.1379e-06)
(1.70665e-05 1.57704e-05 -4.80367e-06)
(1.66923e-05 1.5427e-05 -1.60281e-06)
(1.64367e-05 1.51933e-05 1.62198e-06)
(1.62332e-05 1.75703e-05 -8.1379e-06)
(1.57704e-05 1.70665e-05 -4.80367e-06)
(1.5427e-05 1.66923e-05 -1.60281e-06)
(1.51933e-05 1.64367e-05 1.62199e-06)
(1.48016e-05 1.88046e-05 -8.13949e-06)
(1.43825e-05 1.82635e-05 -4.8042e-06)
(1.40719e-05 1.78613e-05 -1.60251e-06)
(1.38615e-05 1.75858e-05 1.62315e-06)
(1.32824e-05 1.99274e-05 -8.14218e-06)
(1.29092e-05 1.93534e-05 -4.8051e-06)
(1.26331e-05 1.89263e-05 -1.60191e-06)
(1.24469e-05 1.86332e-05 1.62536e-06)
(1.1683e-05 2.09302e-05 -8.14564e-06)
(1.13574e-05 2.03277e-05 -4.80624e-06)
(1.11169e-05 1.98791e-05 -1.60106e-06)
(1.09556e-05 1.9571e-05 1.62837e-06)
(1.00118e-05 2.18054e-05 -8.1496e-06)
(9.73502e-06 2.11787e-05 -4.80759e-06)
(9.53106e-06 2.07119e-05 -1.60012e-06)
(9.39486e-06 2.03914e-05 1.63178e-06)
(8.27798e-06 2.25459e-05 -8.15387e-06)
(8.05099e-06 2.18994e-05 -4.80919e-06)
(7.88413e-06 2.14178e-05 -1.59936e-06)
(7.77322e-06 2.10871e-05 1.63511e-06)
(6.4916e-06 2.31463e-05 -8.15835e-06)
(6.3152e-06 2.2484e-05 -4.81117e-06)
(6.18587e-06 2.19907e-05 -1.5991e-06)
(6.10038e-06 2.16522e-05 1.63779e-06)
(4.66362e-06 2.3602e-05 -8.16308e-06)
(4.53843e-06 2.29282e-05 -4.81378e-06)
(4.44693e-06 2.24263e-05 -1.59977e-06)
(4.38688e-06 2.20819e-05 1.63926e-06)
(2.80558e-06 2.39098e-05 -8.16824e-06)
(2.73234e-06 2.32287e-05 -4.8174e-06)
(2.67857e-06 2.27212e-05 -1.60188e-06)
(2.64381e-06 2.23728e-05 1.63895e-06)
(9.30863e-07 2.40703e-05 -8.17389e-06)
(9.09443e-07 2.3385e-05 -4.82232e-06)
(8.92264e-07 2.28742e-05 -1.60614e-06)
(8.8173e-07 2.2523e-05 1.63584e-06)
(1.63619e-05 6.30088e-07 -6.77291e-06)
(1.57858e-05 6.11962e-07 -4.31985e-06)
(1.54016e-05 5.98931e-07 -1.91014e-06)
(1.51948e-05 5.92657e-07 4.64681e-07)
(1.62514e-05 1.90453e-06 -6.77036e-06)
(1.56794e-05 1.84235e-06 -4.31812e-06)
(1.52983e-05 1.80174e-06 -1.90918e-06)
(1.50939e-05 1.78192e-06 4.64542e-07)
(1.60426e-05 3.16808e-06 -6.76687e-06)
(1.5477e-05 3.0617e-06 -4.31627e-06)
(1.51002e-05 2.99257e-06 -1.90886e-06)
(1.48981e-05 2.95813e-06 4.63161e-07)
(1.57342e-05 4.41154e-06 -6.76307e-06)
(1.51785e-05 4.26177e-06 -4.31463e-06)
(1.48081e-05 4.16404e-06 -1.90922e-06)
(1.46093e-05 4.11468e-06 4.60689e-07)
(1.53279e-05 5.62708e-06 -6.75912e-06)
(1.47855e-05 5.43462e-06 -4.31324e-06)
(1.44239e-05 5.30856e-06 -1.91014e-06)
(1.42296e-05 5.24425e-06 4.57304e-07)
(1.48264e-05 6.80718e-06 -6.75519e-06)
(1.43009e-05 6.57286e-06 -4.31207e-06)
(1.39504e-05 6.41888e-06 -1.91143e-06)
(1.37619e-05 6.33966e-06 4.53373e-07)
(1.42334e-05 7.94485e-06 -6.75146e-06)
(1.37281e-05 7.66966e-06 -4.31108e-06)
(1.33911e-05 7.48827e-06 -1.91286e-06)
(1.32099e-05 7.3942e-06 4.49361e-07)
(1.35531e-05 9.03371e-06 -6.7482e-06)
(1.30716e-05 8.71884e-06 -4.31027e-06)
(1.27507e-05 8.51072e-06 -1.91417e-06)
(1.25782e-05 8.4019e-06 4.45767e-07)
(1.27907e-05 1.0068e-05 -6.74567e-06)
(1.23366e-05 9.71491e-06 -4.30965e-06)
(1.20342e-05 9.48097e-06 -1.91515e-06)
(1.1872e-05 9.35767e-06 4.43063e-07)
(1.19518e-05 1.10423e-05 -6.74421e-06)
(1.15285e-05 1.0653e-05 -4.30928e-06)
(1.12471e-05 1.03945e-05 -1.91566e-06)
(1.10967e-05 1.02572e-05 4.41615e-07)