/*--------------------------------*- C++ -*----------------------------------*\
| =========                 |                                                 |
| \\      /  F ield         | foam-extend: Open Source CFD                    |
|  \\    /   O peration     | Version:     3.1                                |
|   \\  /    A nd           | Web:         http://www.extend-project.de       |
|    \\/     M anipulation  |                                                 |
\*---------------------------------------------------------------------------*/
FoamFile
{
    version     2.0;
    format      ascii;
    class       pointVectorField;
    location    "0.0009";
    object      pointD;
}
// * * * * * * * * * * * * * * * * * * * * * * * * * * * * * * * * * * * * * //

dimensions      [0 1 0 0 0 0 0];

internalField   nonuniform List<vector> 
8505
(
(0 0 0)
(0 0 0)
(0 0 0)
(0 0 0)
(0 0 0)
(0 0 0)
(0 0 0)
(0 0 0)
(0 0 0)
(0 0 0)
(0 0 0)
(0 0 0)
(0 0 0)
(0 0 0)
(0 0 0)
(0 0 0)
(0 0 0)
(0 0 0)
(0 0 0)
(0 0 0)
(0 0 0)
(0 0 0)
(0 0 0)
(0 0 0)
(0 0 0)
(0 0 0)
(0 0 0)
(0 0 0)
(0 0 0)
(0 0 0)
(0 0 0)
(0 0 0)
(0 0 0)
(0 0 0)
(0 0 0)
(0 0 0)
(0 0 0)
(0 0 0)
(0 0 0)
(0 0 0)
(0 0 0)
(0 0 0)
(0 0 0)
(0 0 0)
(0 0 0)
(0 0 0)
(0 0 0)
(0 0 0)
(0 0 0)
(0 0 0)
(0 0 0)
(0 0 0)
(0 0 0)
(0 0 0)
(0 0 0)
(0 0 0)
(0 0 0)
(0 0 0)
(0 0 0)
(0 0 0)
(0 0 0)
(0 0 0)
(0 0 0)
(0 0 0)
(0 0 0)
(0 0 0)
(0 0 0)
(0 0 0)
(0 0 0)
(0 0 0)
(0 0 0)
(0 0 0)
(0 0 0)
(0 0 0)
(0 0 0)
(0 0 0)
(0 0 0)
(0 0 0)
(0 0 0)
(0 0 0)
(0 0 0)
(0 0 0)
(0 0 0)
(0 0 0)
(0 0 0)
(0 0 0)
(0 0 0)
(0 0 0)
(0 0 0)
(0 0 0)
(0 0 0)
(0 0 0)
(0 0 0)
(0 0 0)
(0 0 0)
(0 0 0)
(0 0 0)
(0 0 0)
(0 0 0)
(0 0 0)
(0 0 0)
(0 0 0)
(0 0 0)
(0 0 0)
(0 0 0)
(1.85168e-05 0 1.11165e-05)
(1.66756e-05 0 4.97779e-06)
(1.56379e-05 0 7.12311e-07)
(1.52474e-05 0 -3.44476e-06)
(1.55305e-05 0 -9.0992e-06)
(1.83904e-05 1.42232e-06 1.09076e-05)
(1.65798e-05 1.28993e-06 4.8422e-06)
(1.55651e-05 1.2134e-06 5.94036e-07)
(1.51964e-05 1.18533e-06 -3.58884e-06)
(1.55062e-05 1.2093e-06 -9.32893e-06)
(1.82102e-05 2.87036e-06 1.0901e-05)
(1.6419e-05 2.58952e-06 4.83819e-06)
(1.5416e-05 2.43344e-06 5.91028e-07)
(1.5053e-05 2.37795e-06 -3.59125e-06)
(1.53637e-05 2.42847e-06 -9.32985e-06)
(1.79239e-05 4.29321e-06 1.08974e-05)
(1.61613e-05 3.87201e-06 4.83588e-06)
(1.51742e-05 3.63737e-06 5.89679e-07)
(1.48172e-05 3.55377e-06 -3.59175e-06)
(1.51232e-05 3.62888e-06 -9.32922e-06)
(1.75288e-05 5.68776e-06 1.08955e-05)
(1.58051e-05 5.12947e-06 4.835e-06)
(1.48397e-05 4.81793e-06 5.89589e-07)
(1.44904e-05 4.70649e-06 -3.59102e-06)
(1.47896e-05 4.80529e-06 -9.32742e-06)
(1.70265e-05 7.04621e-06 1.08948e-05)
(1.53521e-05 6.35446e-06 4.83498e-06)
(1.44141e-05 5.96798e-06 5.90215e-07)
(1.40747e-05 5.8293e-06 -3.58967e-06)
(1.43651e-05 5.95109e-06 -9.3251e-06)
(1.64197e-05 8.36061e-06 1.08949e-05)
(1.48047e-05 7.53967e-06 4.8355e-06)
(1.39e-05 7.08065e-06 5.91218e-07)
(1.35725e-05 6.91554e-06 -3.58806e-06)
(1.38523e-05 7.05948e-06 -9.32266e-06)
(1.57121e-05 9.62313e-06 1.08957e-05)
(1.41664e-05 8.67804e-06 4.83639e-06)
(1.33005e-05 8.14925e-06 5.9239e-07)
(1.29869e-05 7.95867e-06 -3.58644e-06)
(1.32544e-05 8.12384e-06 -9.32036e-06)
(1.49077e-05 1.08262e-05 1.08971e-05)
(1.34407e-05 9.76269e-06 4.83751e-06)
(1.2619e-05 9.16732e-06 5.93565e-07)
(1.23214e-05 8.9524e-06 -3.58499e-06)
(1.25751e-05 9.13774e-06 -9.3184e-06)
(1.40113e-05 1.19627e-05 1.08989e-05)
(1.26321e-05 1.07871e-05 4.83867e-06)
(1.18599e-05 1.01288e-05 5.94538e-07)
(1.15803e-05 9.89078e-06 -3.58394e-06)
(1.18188e-05 1.00951e-05 -9.31702e-06)
(1.30271e-05 1.30271e-05 1.08999e-05)
(1.17456e-05 1.17456e-05 4.83922e-06)
(1.1028e-05 1.1028e-05 5.94942e-07)
(1.07684e-05 1.07684e-05 -3.58354e-06)
(1.09905e-05 1.09905e-05 -9.31651e-06)
(1.19627e-05 1.40113e-05 1.08989e-05)
(1.07871e-05 1.26321e-05 4.83867e-06)
(1.01288e-05 1.18599e-05 5.94538e-07)
(9.89078e-06 1.15803e-05 -3.58394e-06)
(1.00951e-05 1.18188e-05 -9.31702e-06)
(1.08262e-05 1.49077e-05 1.08971e-05)
(9.76268e-06 1.34407e-05 4.83752e-06)
(9.16732e-06 1.2619e-05 5.93566e-07)
(8.9524e-06 1.23214e-05 -3.58499e-06)
(9.13774e-06 1.25751e-05 -9.3184e-06)
(9.62312e-06 1.57121e-05 1.08957e-05)
(8.67803e-06 1.41664e-05 4.83639e-06)
(8.14925e-06 1.33005e-05 5.9239e-07)
(7.95867e-06 1.29869e-05 -3.58644e-06)
(8.12384e-06 1.32544e-05 -9.32036e-06)
(8.36061e-06 1.64197e-05 1.08949e-05)
(7.53967e-06 1.48047e-05 4.83551e-06)
(7.08065e-06 1.39e-05 5.91219e-07)
(6.91554e-06 1.35725e-05 -3.58806e-06)
(7.05948e-06 1.38523e-05 -9.32266e-06)
(7.04621e-06 1.70265e-05 1.08948e-05)
(6.35445e-06 1.53521e-05 4.83498e-06)
(5.96798e-06 1.44141e-05 5.90216e-07)
(5.8293e-06 1.40747e-05 -3.58967e-06)
(5.95109e-06 1.43651e-05 -9.3251e-06)
(5.68776e-06 1.75288e-05 1.08955e-05)
(5.12947e-06 1.58051e-05 4.83501e-06)
(4.81793e-06 1.48397e-05 5.8959e-07)
(4.70648e-06 1.44905e-05 -3.59102e-06)
(4.80529e-06 1.47896e-05 -9.32742e-06)
(4.29321e-06 1.79239e-05 1.08974e-05)
(3.87201e-06 1.61613e-05 4.83589e-06)
(3.63737e-06 1.51742e-05 5.89681e-07)
(3.55377e-06 1.48172e-05 -3.59175e-06)
(3.62888e-06 1.51232e-05 -9.32922e-06)
(2.87036e-06 1.82102e-05 1.0901e-05)
(2.58952e-06 1.6419e-05 4.83819e-06)
(2.43344e-06 1.5416e-05 5.9103e-07)
(2.37795e-06 1.5053e-05 -3.59125e-06)
(2.42847e-06 1.53637e-05 -9.32985e-06)
(1.42232e-06 1.83904e-05 1.09076e-05)
(1.28993e-06 1.65798e-05 4.8422e-06)
(1.2134e-06 1.55651e-05 5.94038e-07)
(1.18533e-06 1.51964e-05 -3.58884e-06)
(1.2093e-06 1.55063e-05 -9.32893e-06)
(0 1.85168e-05 1.11165e-05)
(0 1.66756e-05 4.97779e-06)
(0 1.56379e-05 7.12313e-07)
(0 1.52474e-05 -3.44476e-06)
(0 1.55305e-05 -9.0992e-06)
(3.84381e-05 0 1.32153e-05)
(3.70284e-05 0 6.62647e-06)
(3.58498e-05 0 1.02882e-06)
(3.49745e-05 0 -4.49771e-06)
(3.42981e-05 0 -1.08482e-05)
(3.8275e-05 2.99482e-06 1.30125e-05)
(3.68702e-05 2.8952e-06 6.4527e-06)
(3.57034e-05 2.80795e-06 8.61378e-07)
(3.48396e-05 2.74439e-06 -4.6867e-06)
(3.41682e-05 2.69786e-06 -1.10851e-05)
(3.79125e-05 5.99225e-06 1.30034e-05)
(3.65196e-05 5.77614e-06 6.44315e-06)
(3.53646e-05 5.59782e-06 8.52397e-07)
(3.451e-05 5.46691e-06 -4.69466e-06)
(3.38454e-05 5.36588e-06 -1.10894e-05)
(3.73185e-05 8.94704e-06 1.29985e-05)
(3.59475e-05 8.62183e-06 6.43921e-06)
(3.48103e-05 8.35311e-06 8.49583e-07)
(3.3969e-05 8.15542e-06 -4.69604e-06)
(3.33145e-05 8.00236e-06 -1.10888e-05)
(3.6496e-05 1.1846e-05 1.29959e-05)
(3.51549e-05 1.1414e-05 6.43796e-06)
(3.40425e-05 1.10567e-05 8.49618e-07)
(3.32194e-05 1.07934e-05 -4.69456e-06)
(3.25789e-05 1.05891e-05 -1.10857e-05)
(3.54495e-05 1.46717e-05 1.29948e-05)
(3.41465e-05 1.41356e-05 6.43814e-06)
(3.30656e-05 1.36918e-05 8.51028e-07)
(3.22658e-05 1.33644e-05 -4.6918e-06)
(3.16433e-05 1.31102e-05 -1.10813e-05)
(3.41853e-05 1.74068e-05 1.29949e-05)
(3.29284e-05 1.677e-05 6.43917e-06)
(3.18857e-05 1.62424e-05 8.53093e-07)
(3.11141e-05 1.58527e-05 -4.68856e-06)
(3.05135e-05 1.555e-05 -1.10766e-05)
(3.27111e-05 2.00348e-05 1.29959e-05)
(3.1508e-05 1.9301e-05 6.44073e-06)
(3.051e-05 1.86927e-05 8.55388e-07)
(2.97714e-05 1.82432e-05 -4.68534e-06)
(2.91965e-05 1.78937e-05 -1.10723e-05)
(3.10355e-05 2.25395e-05 1.29976e-05)
(2.98937e-05 2.17132e-05 6.44255e-06)
(2.89467e-05 2.10279e-05 8.57573e-07)
(2.82459e-05 2.05212e-05 -4.68256e-06)
(2.77004e-05 2.01271e-05 -1.10687e-05)
(2.91687e-05 2.49059e-05 1.29997e-05)
(2.80953e-05 2.3992e-05 6.44424e-06)
(2.72054e-05 2.32338e-05 8.59259e-07)
(2.6547e-05 2.26729e-05 -4.6806e-06)
(2.60346e-05 2.22365e-05 -1.10663e-05)
(2.71207e-05 2.71207e-05 1.30009e-05)
(2.61237e-05 2.61237e-05 6.44499e-06)
(2.52971e-05 2.52971e-05 8.59921e-07)
(2.46855e-05 2.46855e-05 -4.67988e-06)
(2.42095e-05 2.42095e-05 -1.10654e-05)
(2.49059e-05 2.91687e-05 1.29997e-05)
(2.3992e-05 2.80953e-05 6.44425e-06)
(2.32338e-05 2.72054e-05 8.59259e-07)
(2.26729e-05 2.6547e-05 -4.6806e-06)
(2.22365e-05 2.60346e-05 -1.10663e-05)
(2.25395e-05 3.10355e-05 1.29976e-05)
(2.17132e-05 2.98937e-05 6.44256e-06)
(2.10279e-05 2.89467e-05 8.57574e-07)
(2.05212e-05 2.82459e-05 -4.68256e-06)
(2.01271e-05 2.77004e-05 -1.10687e-05)
(2.00348e-05 3.27111e-05 1.29959e-05)
(1.9301e-05 3.1508e-05 6.44073e-06)
(1.86927e-05 3.051e-05 8.5539e-07)
(1.82432e-05 2.97714e-05 -4.68534e-06)
(1.78937e-05 2.91965e-05 -1.10723e-05)
(1.74068e-05 3.41853e-05 1.29949e-05)
(1.677e-05 3.29284e-05 6.43918e-06)
(1.62424e-05 3.18857e-05 8.53095e-07)
(1.58527e-05 3.11141e-05 -4.68856e-06)
(1.555e-05 3.05135e-05 -1.10766e-05)
(1.46717e-05 3.54495e-05 1.29948e-05)
(1.41356e-05 3.41465e-05 6.43815e-06)
(1.36918e-05 3.30656e-05 8.5103e-07)
(1.33644e-05 3.22658e-05 -4.6918e-06)
(1.31102e-05 3.16433e-05 -1.10813e-05)
(1.1846e-05 3.6496e-05 1.29959e-05)
(1.1414e-05 3.51549e-05 6.43797e-06)
(1.10567e-05 3.40425e-05 8.4962e-07)
(1.07934e-05 3.32194e-05 -4.69456e-06)
(1.05891e-05 3.25789e-05 -1.10857e-05)
(8.94704e-06 3.73185e-05 1.29985e-05)
(8.62183e-06 3.59475e-05 6.43922e-06)
(8.35311e-06 3.48103e-05 8.49586e-07)
(8.15543e-06 3.3969e-05 -4.69604e-06)
(8.00236e-06 3.33145e-05 -1.10888e-05)
(5.99225e-06 3.79125e-05 1.30034e-05)
(5.77614e-06 3.65196e-05 6.44316e-06)
(5.59782e-06 3.53646e-05 8.524e-07)
(5.46691e-06 3.451e-05 -4.69466e-06)
(5.36588e-06 3.38454e-05 -1.10894e-05)
(2.99482e-06 3.8275e-05 1.30126e-05)
(2.8952e-06 3.68702e-05 6.45271e-06)
(2.80795e-06 3.57034e-05 8.61381e-07)
(2.74439e-06 3.48396e-05 -4.6867e-06)
(2.69786e-06 3.41682e-05 -1.10851e-05)
(0 3.84381e-05 1.32153e-05)
(0 3.70284e-05 6.62648e-06)
(0 3.58498e-05 1.02882e-06)
(0 3.49745e-05 -4.49771e-06)
(0 3.42981e-05 -1.08482e-05)
(5.54319e-05 0 1.03139e-05)
(5.42541e-05 0 5.22416e-06)
(5.3025e-05 0 6.2656e-07)
(5.17942e-05 0 -3.92911e-06)
(5.04896e-05 0 -8.87295e-06)
(5.5228e-05 4.33456e-06 1.01622e-05)
(5.40464e-05 4.25123e-06 5.08411e-06)
(5.28182e-05 4.16047e-06 4.86407e-07)
(5.15881e-05 4.07044e-06 -4.08221e-06)
(5.02809e-05 3.98067e-06 -9.05118e-06)
(5.47099e-05 8.65249e-06 1.01541e-05)
(5.35364e-05 8.47268e-06 5.07609e-06)
(5.23182e-05 8.28633e-06 4.78898e-07)
(5.10984e-05 8.10006e-06 -4.0884e-06)
(4.98026e-05 7.90229e-06 -9.05452e-06)
(5.38536e-05 1.29127e-05 1.0149e-05)
(5.26977e-05 1.26417e-05 5.07233e-06)
(5.14975e-05 1.23602e-05 4.76456e-07)
(5.02961e-05 1.20787e-05 -4.08913e-06)
(4.90195e-05 1.17792e-05 -9.05316e-06)
(5.26657e-05 1.70933e-05 1.0146e-05)
(5.15345e-05 1.67322e-05 5.07108e-06)
(5.036e-05 1.63573e-05 4.76888e-07)
(4.91843e-05 1.59821e-05 -4.08687e-06)
(4.79351e-05 1.55831e-05 -9.04877e-06)
(5.11539e-05 2.11686e-05 1.01445e-05)
(5.00544e-05 2.07196e-05 5.07133e-06)
(4.89129e-05 2.02533e-05 4.78863e-07)
(4.77704e-05 1.97865e-05 -4.08304e-06)
(4.65564e-05 1.92902e-05 -9.04281e-06)
(4.93278e-05 2.5114e-05 1.0144e-05)
(4.82669e-05 2.45795e-05 5.0725e-06)
(4.71657e-05 2.40245e-05 4.81607e-07)
(4.60634e-05 2.34688e-05 -4.07859e-06)
(4.48924e-05 2.28779e-05 -9.03637e-06)
(4.71986e-05 2.89053e-05 1.01446e-05)
(4.61831e-05 2.82885e-05 5.07426e-06)
(4.5129e-05 2.76479e-05 4.84598e-07)
(4.40741e-05 2.70065e-05 -4.07419e-06)
(4.29534e-05 2.63247e-05 -9.03031e-06)
(4.47794e-05 3.25194e-05 1.01461e-05)
(4.38157e-05 3.18238e-05 5.07629e-06)
(4.28155e-05 3.11014e-05 4.87385e-07)
(4.18147e-05 3.03783e-05 -4.07042e-06)
(4.07516e-05 2.96095e-05 -9.0253e-06)
(4.20847e-05 3.59341e-05 1.01481e-05)
(4.11789e-05 3.5164e-05 5.07812e-06)
(4.02393e-05 3.43642e-05 4.89471e-07)
(3.92992e-05 3.35635e-05 -4.06781e-06)
(3.83005e-05 3.27126e-05 -9.02196e-06)
(3.91297e-05 3.91297e-05 1.01491e-05)
(3.82888e-05 3.82888e-05 5.07891e-06)
(3.74163e-05 3.74163e-05 4.90271e-07)
(3.65431e-05 3.65431e-05 -4.06687e-06)
(3.56154e-05 3.56154e-05 -9.02078e-06)
(3.59341e-05 4.20847e-05 1.01481e-05)
(3.5164e-05 4.11789e-05 5.07812e-06)
(3.43642e-05 4.02393e-05 4.89471e-07)
(3.35635e-05 3.92992e-05 -4.06781e-06)
(3.27126e-05 3.83005e-05 -9.02196e-06)
(3.25194e-05 4.47794e-05 1.01461e-05)
(3.18238e-05 4.38157e-05 5.07629e-06)
(3.11014e-05 4.28156e-05 4.87386e-07)
(3.03783e-05 4.18147e-05 -4.07042e-06)
(2.96095e-05 4.07516e-05 -9.0253e-06)
(2.89053e-05 4.71986e-05 1.01447e-05)
(2.82885e-05 4.61831e-05 5.07427e-06)
(2.76479e-05 4.5129e-05 4.846e-07)
(2.70065e-05 4.40741e-05 -4.07419e-06)
(2.63247e-05 4.29534e-05 -9.03031e-06)
(2.5114e-05 4.93278e-05 1.0144e-05)
(2.45795e-05 4.82669e-05 5.07251e-06)
(2.40245e-05 4.71657e-05 4.8161e-07)
(2.34688e-05 4.60634e-05 -4.07859e-06)
(2.28779e-05 4.48924e-05 -9.03637e-06)
(2.11686e-05 5.11539e-05 1.01445e-05)
(2.07196e-05 5.00544e-05 5.07133e-06)
(2.02533e-05 4.89129e-05 4.78866e-07)
(1.97865e-05 4.77704e-05 -4.08304e-06)
(1.92902e-05 4.65564e-05 -9.04281e-06)
(1.70933e-05 5.26657e-05 1.0146e-05)
(1.67322e-05 5.15345e-05 5.07109e-06)
(1.63573e-05 5.036e-05 4.76891e-07)
(1.59821e-05 4.91843e-05 -4.08687e-06)
(1.55831e-05 4.79351e-05 -9.04877e-06)
(1.29127e-05 5.38536e-05 1.01491e-05)
(1.26417e-05 5.26977e-05 5.07234e-06)
(1.23602e-05 5.14975e-05 4.76459e-07)
(1.20787e-05 5.02961e-05 -4.08913e-06)
(1.17792e-05 4.90195e-05 -9.05316e-06)
(8.65249e-06 5.47099e-05 1.01541e-05)
(8.47268e-06 5.35364e-05 5.07609e-06)
(8.28633e-06 5.23182e-05 4.78902e-07)
(8.10006e-06 5.10984e-05 -4.0884e-06)
(7.90229e-06 4.98026e-05 -9.05452e-06)
(4.33456e-06 5.5228e-05 1.01622e-05)
(4.25123e-06 5.40464e-05 5.08412e-06)
(4.16047e-06 5.28182e-05 4.86411e-07)
(4.07044e-06 5.15881e-05 -4.08221e-06)
(3.98067e-06 5.0281e-05 -9.05118e-06)
(0 5.54319e-05 1.03139e-05)
(0 5.42541e-05 5.22417e-06)
(0 5.3025e-05 6.26565e-07)
(0 5.17942e-05 -3.92911e-06)
(0 5.04897e-05 -8.87295e-06)
(6.59422e-05 0 4.57971e-06)
(6.48519e-05 0 2.07363e-06)
(6.35814e-05 0 -3.0967e-07)
(6.21682e-05 0 -2.6783e-06)
(6.05595e-05 0 -5.13411e-06)
(6.571e-05 5.15949e-06 4.50734e-06)
(6.46121e-05 5.08269e-06 2.00247e-06)
(6.33374e-05 4.98918e-06 -3.82681e-07)
(6.192e-05 4.88634e-06 -2.75613e-06)
(6.03053e-05 4.77651e-06 -5.21911e-06)
(6.50938e-05 1.02926e-05 4.50274e-06)
(6.40023e-05 1.01277e-05 1.99878e-06)
(6.27368e-05 9.93575e-06 -3.85494e-07)
(6.13303e-05 9.72233e-06 -2.75768e-06)
(5.97293e-05 9.47914e-06 -5.21877e-06)
(6.40732e-05 1.53583e-05 4.49902e-06)
(6.29972e-05 1.51094e-05 1.99683e-06)
(6.175e-05 1.48193e-05 -3.85879e-07)
(6.03644e-05 1.44964e-05 -2.75631e-06)
(5.87871e-05 1.41279e-05 -5.21534e-06)
(6.26569e-05 2.03293e-05 4.49618e-06)
(6.16034e-05 1.9997e-05 1.99621e-06)
(6.03825e-05 1.96101e-05 -3.84519e-07)
(5.90264e-05 1.91793e-05 -2.7529e-06)
(5.74828e-05 1.86881e-05 -5.20954e-06)
(6.08548e-05 2.51753e-05 4.49419e-06)
(5.98304e-05 2.4761e-05 1.99658e-06)
(5.86436e-05 2.42791e-05 -3.82039e-07)
(5.73255e-05 2.37428e-05 -2.74822e-06)
(5.58254e-05 2.31315e-05 -5.2023e-06)
(5.86787e-05 2.9867e-05 4.49309e-06)
(5.769e-05 2.93726e-05 1.99769e-06)
(5.65448e-05 2.87982e-05 -3.78931e-07)
(5.52732e-05 2.81593e-05 -2.743e-06)
(5.38263e-05 2.74312e-05 -5.19458e-06)
(5.61425e-05 3.43759e-05 4.49294e-06)
(5.51959e-05 3.38041e-05 1.99931e-06)
(5.40998e-05 3.31403e-05 -3.75634e-07)
(5.28829e-05 3.24024e-05 -2.73788e-06)
(5.14983e-05 3.15616e-05 -5.18726e-06)
(5.32618e-05 3.86744e-05 4.49372e-06)
(5.23636e-05 3.80285e-05 2.0012e-06)
(5.13237e-05 3.72792e-05 -3.72602e-07)
(5.01695e-05 3.64465e-05 -2.7335e-06)
(4.88562e-05 3.54981e-05 -5.18118e-06)
(5.00543e-05 4.27366e-05 4.49517e-06)
(4.92103e-05 4.20203e-05 2.00291e-06)
(4.82337e-05 4.11899e-05 -3.70361e-07)
(4.71497e-05 4.02674e-05 -2.73049e-06)
(4.59163e-05 3.92172e-05 -5.17711e-06)
(4.65382e-05 4.65382e-05 4.49601e-06)
(4.57553e-05 4.57553e-05 2.00365e-06)
(4.48488e-05 4.48488e-05 -3.69511e-07)
(4.38423e-05 4.38423e-05 -2.7294e-06)
(4.26968e-05 4.26968e-05 -5.17568e-06)
(4.27366e-05 5.00543e-05 4.49517e-06)
(4.20203e-05 4.92103e-05 2.00291e-06)
(4.11899e-05 4.82337e-05 -3.70361e-07)
(4.02674e-05 4.71497e-05 -2.73049e-06)
(3.92172e-05 4.59163e-05 -5.17711e-06)
(3.86744e-05 5.32619e-05 4.49372e-06)
(3.80285e-05 5.23636e-05 2.0012e-06)
(3.72792e-05 5.13238e-05 -3.72601e-07)
(3.64465e-05 5.01695e-05 -2.7335e-06)
(3.54981e-05 4.88562e-05 -5.18118e-06)
(3.43759e-05 5.61425e-05 4.49294e-06)
(3.38041e-05 5.51959e-05 1.99932e-06)
(3.31403e-05 5.40998e-05 -3.75633e-07)
(3.24024e-05 5.28829e-05 -2.73788e-06)
(3.15616e-05 5.14983e-05 -5.18726e-06)
(2.9867e-05 5.86787e-05 4.49309e-06)
(2.93726e-05 5.769e-05 1.99769e-06)
(2.87982e-05 5.65448e-05 -3.78929e-07)
(2.81593e-05 5.52733e-05 -2.743e-06)
(2.74312e-05 5.38263e-05 -5.19458e-06)
(2.51753e-05 6.08548e-05 4.49419e-06)
(2.4761e-05 5.98304e-05 1.99659e-06)
(2.42791e-05 5.86436e-05 -3.82036e-07)
(2.37428e-05 5.73255e-05 -2.74822e-06)
(2.31315e-05 5.58255e-05 -5.2023e-06)
(2.03293e-05 6.26569e-05 4.49618e-06)
(1.9997e-05 6.16034e-05 1.99622e-06)
(1.96101e-05 6.03825e-05 -3.84516e-07)
(1.91793e-05 5.90264e-05 -2.75289e-06)
(1.86881e-05 5.74828e-05 -5.20954e-06)
(1.53583e-05 6.40732e-05 4.49903e-06)
(1.51094e-05 6.29972e-05 1.99683e-06)
(1.48193e-05 6.175e-05 -3.85875e-07)
(1.44964e-05 6.03644e-05 -2.75631e-06)
(1.41279e-05 5.87871e-05 -5.21534e-06)
(1.02926e-05 6.50938e-05 4.50275e-06)
(1.01277e-05 6.40023e-05 1.99879e-06)
(9.93575e-06 6.27368e-05 -3.8549e-07)
(9.72233e-06 6.13303e-05 -2.75768e-06)
(9.47914e-06 5.97293e-05 -5.21877e-06)
(5.15949e-06 6.571e-05 4.50734e-06)
(5.08269e-06 6.46121e-05 2.00247e-06)
(4.98918e-06 6.33374e-05 -3.82677e-07)
(4.88635e-06 6.192e-05 -2.75612e-06)
(4.77651e-06 6.03053e-05 -5.21911e-06)
(0 6.59422e-05 4.57972e-06)
(0 6.48519e-05 2.07364e-06)
(0 6.35814e-05 -3.09666e-07)
(0 6.21683e-05 -2.6783e-06)
(0 6.05595e-05 -5.13411e-06)
(6.85022e-05 0 -2.02604e-06)
(6.74329e-05 0 -1.67844e-06)
(6.61746e-05 0 -1.50519e-06)
(6.47537e-05 0 -1.34867e-06)
(6.31301e-05 0 -1.06002e-06)
(6.82617e-05 5.35579e-06 -2.01292e-06)
(6.71848e-05 5.28167e-06 -1.67144e-06)
(6.59214e-05 5.18995e-06 -1.5002e-06)
(6.44955e-05 5.08753e-06 -1.34125e-06)
(6.28662e-05 4.978e-06 -1.04521e-06)
(6.76191e-05 1.06843e-05 -2.01318e-06)
(6.6548e-05 1.05248e-05 -1.67038e-06)
(6.52934e-05 1.03365e-05 -1.49814e-06)
(6.38782e-05 1.01237e-05 -1.33816e-06)
(6.22627e-05 9.88048e-06 -1.04121e-06)
(6.65549e-05 1.59429e-05 -2.01462e-06)
(6.54986e-05 1.57018e-05 -1.66991e-06)
(6.42619e-05 1.5417e-05 -1.49613e-06)
(6.28675e-05 1.50946e-05 -1.33463e-06)
(6.12758e-05 1.47256e-05 -1.03589e-06)
(6.50787e-05 2.11029e-05 -2.01649e-06)
(6.40439e-05 2.07804e-05 -1.66946e-06)
(6.2833e-05 2.03999e-05 -1.49375e-06)
(6.14682e-05 1.99695e-05 -1.33032e-06)
(5.99104e-05 1.94772e-05 -1.02927e-06)
(6.32012e-05 2.61328e-05 -2.01832e-06)
(6.21945e-05 2.57299e-05 -1.66875e-06)
(6.10171e-05 2.52553e-05 -1.49093e-06)
(5.96905e-05 2.47189e-05 -1.32533e-06)
(5.81765e-05 2.41057e-05 -1.02168e-06)
(6.09353e-05 3.10025e-05 -2.01974e-06)
(5.99633e-05 3.05207e-05 -1.66768e-06)
(5.8827e-05 2.99542e-05 -1.48776e-06)
(5.75471e-05 2.93145e-05 -1.32e-06)
(5.60868e-05 2.85834e-05 -1.01368e-06)
(5.82957e-05 3.56826e-05 -2.02049e-06)
(5.7365e-05 3.51242e-05 -1.66626e-06)
(5.62774e-05 3.44687e-05 -1.48451e-06)
(5.50527e-05 3.37289e-05 -1.31481e-06)
(5.36555e-05 3.2884e-05 -1.00604e-06)
(5.52993e-05 4.0145e-05 -2.02039e-06)
(5.44163e-05 3.9513e-05 -1.66463e-06)
(5.33848e-05 3.8772e-05 -1.48155e-06)
(5.22234e-05 3.79364e-05 -1.31036e-06)
(5.08986e-05 3.69823e-05 -9.99613e-07)
(5.19647e-05 4.43629e-05 -2.01952e-06)
(5.11356e-05 4.36608e-05 -1.66314e-06)
(5.01673e-05 4.28387e-05 -1.47937e-06)
(4.9077e-05 4.19121e-05 -1.30728e-06)
(4.78333e-05 4.08547e-05 -9.95266e-07)
(4.83113e-05 4.83113e-05 -2.01893e-06)
(4.7543e-05 4.7543e-05 -1.66249e-06)
(4.66447e-05 4.66447e-05 -1.47855e-06)
(4.5633e-05 4.5633e-05 -1.30617e-06)
(4.44787e-05 4.44787e-05 -9.93719e-07)
(4.43629e-05 5.19647e-05 -2.01952e-06)
(4.36608e-05 5.11356e-05 -1.66314e-06)
(4.28387e-05 5.01673e-05 -1.47937e-06)
(4.19121e-05 4.9077e-05 -1.30728e-06)
(4.08547e-05 4.78333e-05 -9.95266e-07)
(4.0145e-05 5.52993e-05 -2.02038e-06)
(3.9513e-05 5.44164e-05 -1.66463e-06)
(3.8772e-05 5.33848e-05 -1.48155e-06)
(3.79364e-05 5.22234e-05 -1.31036e-06)
(3.69823e-05 5.08986e-05 -9.99613e-07)
(3.56826e-05 5.82957e-05 -2.02049e-06)
(3.51242e-05 5.7365e-05 -1.66626e-06)
(3.44687e-05 5.62775e-05 -1.48451e-06)
(3.37289e-05 5.50527e-05 -1.31481e-06)
(3.2884e-05 5.36555e-05 -1.00604e-06)
(3.10025e-05 6.09353e-05 -2.01974e-06)
(3.05207e-05 5.99633e-05 -1.66768e-06)
(2.99542e-05 5.8827e-05 -1.48776e-06)
(2.93145e-05 5.75471e-05 -1.32e-06)
(2.85834e-05 5.60868e-05 -1.01368e-06)
(2.61328e-05 6.32012e-05 -2.01831e-06)
(2.57299e-05 6.21945e-05 -1.66875e-06)
(2.52553e-05 6.10171e-05 -1.49092e-06)
(2.47189e-05 5.96905e-05 -1.32533e-06)
(2.41057e-05 5.81766e-05 -1.02167e-06)
(2.11029e-05 6.50787e-05 -2.01649e-06)
(2.07804e-05 6.40439e-05 -1.66945e-06)
(2.03999e-05 6.2833e-05 -1.49375e-06)
(1.99695e-05 6.14682e-05 -1.33032e-06)
(1.94773e-05 5.99104e-05 -1.02927e-06)
(1.59429e-05 6.65549e-05 -2.01461e-06)
(1.57018e-05 6.54986e-05 -1.6699e-06)
(1.5417e-05 6.42619e-05 -1.49613e-06)
(1.50946e-05 6.28675e-05 -1.33463e-06)
(1.47257e-05 6.12758e-05 -1.03589e-06)
(1.06843e-05 6.76191e-05 -2.01317e-06)
(1.05248e-05 6.6548e-05 -1.67037e-06)
(1.03365e-05 6.52934e-05 -1.49813e-06)
(1.01237e-05 6.38782e-05 -1.33816e-06)
(9.88048e-06 6.22628e-05 -1.04121e-06)
(5.35579e-06 6.82617e-05 -2.01292e-06)
(5.28167e-06 6.71848e-05 -1.67144e-06)
(5.18995e-06 6.59214e-05 -1.50019e-06)
(5.08753e-06 6.44955e-05 -1.34125e-06)
(4.978e-06 6.28662e-05 -1.04521e-06)
(0 6.85022e-05 -2.02604e-06)
(0 6.74329e-05 -1.67844e-06)
(0 6.61746e-05 -1.50518e-06)
(0 6.47537e-05 -1.34867e-06)
(0 6.31301e-05 -1.06002e-06)
(6.35037e-05 0 -7.85322e-06)
(6.24404e-05 0 -5.07598e-06)
(6.1267e-05 0 -2.68863e-06)
(5.99936e-05 0 -3.47432e-07)
(5.85927e-05 0 2.27076e-06)
(6.3276e-05 4.95665e-06 -7.76808e-06)
(6.2208e-05 4.88462e-06 -5.00189e-06)
(6.10317e-05 4.80039e-06 -2.61625e-06)
(5.97552e-05 4.70988e-06 -2.67229e-07)
(5.83514e-05 4.61718e-06 2.36874e-06)
(6.26763e-05 9.89193e-06 -7.76433e-06)
(6.16142e-05 9.73597e-06 -4.99702e-06)
(6.04461e-05 9.56275e-06 -2.61065e-06)
(5.91793e-05 9.3746e-06 -2.61086e-07)
(5.77877e-05 9.16815e-06 2.37474e-06)
(6.16845e-05 1.4762e-05 -7.76299e-06)
(6.06369e-05 1.45257e-05 -4.99429e-06)
(5.94852e-05 1.42633e-05 -2.60691e-06)
(5.82369e-05 1.39779e-05 -2.56463e-07)
(5.68657e-05 1.36642e-05 2.38039e-06)
(6.03098e-05 1.95401e-05 -7.76296e-06)
(5.92831e-05 1.92236e-05 -4.99259e-06)
(5.81552e-05 1.88727e-05 -2.60391e-06)
(5.69332e-05 1.84912e-05 -2.52208e-07)
(5.5591e-05 1.80719e-05 2.38619e-06)
(5.85624e-05 2.41973e-05 -7.76353e-06)
(5.75631e-05 2.38013e-05 -4.99126e-06)
(5.64663e-05 2.3363e-05 -2.60109e-06)
(5.52783e-05 2.28868e-05 -2.47897e-07)
(5.39738e-05 2.23637e-05 2.39238e-06)
(5.64547e-05 2.87057e-05 -7.7642e-06)
(5.54897e-05 2.82313e-05 -4.98994e-06)
(5.4431e-05 2.77074e-05 -2.59825e-06)
(5.32849e-05 2.71387e-05 -2.43483e-07)
(5.20266e-05 2.65141e-05 2.39883e-06)
(5.40012e-05 3.30385e-05 -7.7646e-06)
(5.30771e-05 3.24878e-05 -4.98851e-06)
(5.20639e-05 3.18806e-05 -2.59542e-06)
(5.09673e-05 3.1222e-05 -2.39195e-07)
(4.97637e-05 3.0499e-05 2.4051e-06)
(5.12181e-05 3.71703e-05 -7.76448e-06)
(5.03417e-05 3.65458e-05 -4.987e-06)
(4.9381e-05 3.58585e-05 -2.59286e-06)
(4.83415e-05 3.51136e-05 -2.35467e-07)
(4.72008e-05 3.42959e-05 2.4105e-06)
(4.81233e-05 4.10768e-05 -7.76378e-06)
(4.7301e-05 4.0382e-05 -4.98567e-06)
(4.63998e-05 3.96184e-05 -2.59097e-06)
(4.54246e-05 3.87914e-05 -2.3286e-07)
(4.43546e-05 3.78837e-05 2.41421e-06)
(4.47356e-05 4.47356e-05 -7.76331e-06)
(4.39743e-05 4.39743e-05 -4.98511e-06)
(4.3139e-05 4.3139e-05 -2.59025e-06)
(4.22349e-05 4.22349e-05 -2.31912e-07)
(4.12428e-05 4.12428e-05 2.41555e-06)
(4.10768e-05 4.81233e-05 -7.76378e-06)
(4.0382e-05 4.7301e-05 -4.98567e-06)
(3.96184e-05 4.63998e-05 -2.59097e-06)
(3.87914e-05 4.54246e-05 -2.3286e-07)
(3.78837e-05 4.43546e-05 2.41422e-06)
(3.71703e-05 5.12181e-05 -7.76447e-06)
(3.65458e-05 5.03417e-05 -4.987e-06)
(3.58585e-05 4.9381e-05 -2.59286e-06)
(3.51136e-05 4.83415e-05 -2.35466e-07)
(3.42959e-05 4.72008e-05 2.4105e-06)
(3.30385e-05 5.40012e-05 -7.7646e-06)
(3.24878e-05 5.30771e-05 -4.98851e-06)
(3.18806e-05 5.20639e-05 -2.59542e-06)
(3.1222e-05 5.09673e-05 -2.39194e-07)
(3.0499e-05 4.97637e-05 2.4051e-06)
(2.87057e-05 5.64547e-05 -7.7642e-06)
(2.82313e-05 5.54897e-05 -4.98994e-06)
(2.77074e-05 5.4431e-05 -2.59824e-06)
(2.71387e-05 5.32849e-05 -2.43481e-07)
(2.65141e-05 5.20266e-05 2.39883e-06)
(2.41973e-05 5.85624e-05 -7.76353e-06)
(2.38013e-05 5.75632e-05 -4.99125e-06)
(2.3363e-05 5.64663e-05 -2.60109e-06)
(2.28868e-05 5.52783e-05 -2.47895e-07)
(2.23637e-05 5.39738e-05 2.39238e-06)
(1.95401e-05 6.03098e-05 -7.76295e-06)
(1.92236e-05 5.92831e-05 -4.99259e-06)
(1.88727e-05 5.81552e-05 -2.60391e-06)
(1.84912e-05 5.69332e-05 -2.52206e-07)
(1.80719e-05 5.5591e-05 2.3862e-06)
(1.4762e-05 6.16845e-05 -7.76298e-06)
(1.45257e-05 6.06369e-05 -4.99429e-06)
(1.42633e-05 5.94852e-05 -2.6069e-06)
(1.39779e-05 5.8237e-05 -2.5646e-07)
(1.36642e-05 5.68657e-05 2.38039e-06)
(9.89193e-06 6.26763e-05 -7.76432e-06)
(9.73597e-06 6.16142e-05 -4.99702e-06)
(9.56275e-06 6.04461e-05 -2.61065e-06)
(9.3746e-06 5.91793e-05 -2.61082e-07)
(9.16815e-06 5.77877e-05 2.37474e-06)
(4.95665e-06 6.3276e-05 -7.76808e-06)
(4.88462e-06 6.2208e-05 -5.00189e-06)
(4.80039e-06 6.10317e-05 -2.61625e-06)
(4.70989e-06 5.97552e-05 -2.67226e-07)
(4.61718e-06 5.83515e-05 2.36875e-06)
(0 6.35037e-05 -7.85321e-06)
(0 6.24404e-05 -5.07598e-06)
(0 6.12671e-05 -2.68862e-06)
(0 5.99936e-05 -3.47428e-07)
(0 5.85928e-05 2.27076e-06)
(5.30335e-05 0 -1.16761e-05)
(5.19899e-05 0 -7.41925e-06)
(5.09637e-05 0 -3.64058e-06)
(4.99424e-05 0 7.25143e-08)
(4.89137e-05 0 4.107e-06)
(5.28353e-05 4.12872e-06 -1.1548e-05)
(5.17917e-05 4.05961e-06 -7.30366e-06)
(5.0766e-05 3.98732e-06 -3.52603e-06)
(4.97451e-05 3.91616e-06 1.9739e-07)
(4.87179e-05 3.85029e-06 4.25378e-06)
(5.233e-05 8.2462e-06 -1.15415e-05)
(5.12928e-05 8.09518e-06 -7.29673e-06)
(5.02745e-05 7.9461e-06 -3.519e-06)
(4.92616e-05 7.7982e-06 2.04261e-07)
(4.82437e-05 7.65087e-06 4.25944e-06)
(5.14965e-05 1.23084e-05 -1.15374e-05)
(5.04734e-05 1.20792e-05 -7.29244e-06)
(4.94693e-05 1.1853e-05 -3.51467e-06)
(4.84711e-05 1.16283e-05 2.08453e-07)
(4.74678e-05 1.14036e-05 4.26344e-06)
(5.03422e-05 1.62932e-05 -1.15348e-05)
(4.93394e-05 1.59861e-05 -7.28958e-06)
(4.83558e-05 1.56832e-05 -3.51171e-06)
(4.73784e-05 1.53821e-05 2.1146e-07)
(4.63962e-05 1.50811e-05 4.26656e-06)
(4.88759e-05 2.01765e-05 -1.1533e-05)
(4.78997e-05 1.9792e-05 -7.2874e-06)
(4.6943e-05 1.94132e-05 -3.50934e-06)
(4.59927e-05 1.90368e-05 2.1401e-07)
(4.5038e-05 1.86602e-05 4.26943e-06)
(4.71085e-05 2.39351e-05 -1.15316e-05)
(4.61656e-05 2.34743e-05 -7.28552e-06)
(4.52421e-05 2.30208e-05 -3.50719e-06)
(4.43252e-05 2.25704e-05 2.1645e-07)
(4.34044e-05 2.21197e-05 4.27236e-06)
(4.50526e-05 2.75471e-05 -1.15303e-05)
(4.41497e-05 2.70117e-05 -7.28374e-06)
(4.32661e-05 2.64854e-05 -3.50513e-06)
(4.2389e-05 2.59628e-05 2.1883e-07)
(4.15084e-05 2.54397e-05 4.27534e-06)
(4.27226e-05 3.09919e-05 -1.1529e-05)
(4.18665e-05 3.03842e-05 -7.28209e-06)
(4.10291e-05 2.97876e-05 -3.50328e-06)
(4.01981e-05 2.91954e-05 2.20967e-07)
(3.93641e-05 2.86023e-05 4.27807e-06)
(4.01342e-05 3.42501e-05 -1.15278e-05)
(3.93316e-05 3.35732e-05 -7.28077e-06)
(3.85465e-05 3.29096e-05 -3.5019e-06)
(3.77677e-05 3.22509e-05 2.22511e-07)
(3.69864e-05 3.15909e-05 4.28004e-06)
(3.73039e-05 3.73039e-05 -1.15272e-05)
(3.65614e-05 3.65614e-05 -7.28023e-06)
(3.58346e-05 3.58346e-05 -3.50138e-06)
(3.51135e-05 3.51135e-05 2.23083e-07)
(3.43904e-05 3.43904e-05 4.28076e-06)
(3.42501e-05 4.01342e-05 -1.15278e-05)
(3.35732e-05 3.93316e-05 -7.28077e-06)
(3.29096e-05 3.85465e-05 -3.5019e-06)
(3.22509e-05 3.77677e-05 2.22511e-07)
(3.15909e-05 3.69864e-05 4.28004e-06)
(3.09919e-05 4.27226e-05 -1.1529e-05)
(3.03842e-05 4.18665e-05 -7.28209e-06)
(2.97876e-05 4.10291e-05 -3.50328e-06)
(2.91954e-05 4.01981e-05 2.20968e-07)
(2.86023e-05 3.93641e-05 4.27807e-06)
(2.75471e-05 4.50526e-05 -1.15303e-05)
(2.70117e-05 4.41497e-05 -7.28374e-06)
(2.64854e-05 4.32661e-05 -3.50513e-06)
(2.59629e-05 4.2389e-05 2.18832e-07)
(2.54397e-05 4.15084e-05 4.27534e-06)
(2.39351e-05 4.71085e-05 -1.15316e-05)
(2.34743e-05 4.61656e-05 -7.28551e-06)
(2.30208e-05 4.52421e-05 -3.50719e-06)
(2.25704e-05 4.43252e-05 2.16451e-07)
(2.21197e-05 4.34044e-05 4.27236e-06)
(2.01765e-05 4.88759e-05 -1.1533e-05)
(1.9792e-05 4.78997e-05 -7.2874e-06)
(1.94132e-05 4.6943e-05 -3.50934e-06)
(1.90368e-05 4.59927e-05 2.14012e-07)
(1.86602e-05 4.5038e-05 4.26943e-06)
(1.62932e-05 5.03422e-05 -1.15348e-05)
(1.59861e-05 4.93394e-05 -7.28957e-06)
(1.56832e-05 4.83558e-05 -3.51171e-06)
(1.53822e-05 4.73784e-05 2.11463e-07)
(1.50811e-05 4.63962e-05 4.26656e-06)
(1.23084e-05 5.14965e-05 -1.15374e-05)
(1.20792e-05 5.04734e-05 -7.29243e-06)
(1.1853e-05 4.94693e-05 -3.51467e-06)
(1.16283e-05 4.84711e-05 2.08457e-07)
(1.14036e-05 4.74679e-05 4.26345e-06)
(8.2462e-06 5.233e-05 -1.15415e-05)
(8.09518e-06 5.12928e-05 -7.29673e-06)
(7.9461e-06 5.02745e-05 -3.519e-06)
(7.79821e-06 4.92616e-05 2.04265e-07)
(7.65088e-06 4.82437e-05 4.25945e-06)
(4.12872e-06 5.28353e-05 -1.1548e-05)
(4.05961e-06 5.17917e-05 -7.30365e-06)
(3.98732e-06 5.0766e-05 -3.52603e-06)
(3.91616e-06 4.97451e-05 1.97394e-07)
(3.85029e-06 4.87179e-05 4.25378e-06)
(0 5.30335e-05 -1.16761e-05)
(0 5.19899e-05 -7.41924e-06)
(0 5.09637e-05 -3.64058e-06)
(0 4.99424e-05 7.2518e-08)
(0 4.89137e-05 4.10701e-06)
(4.03031e-05 0 -1.29832e-05)
(3.93094e-05 0 -8.40031e-06)
(3.84591e-05 0 -4.23421e-06)
(3.77194e-05 0 -1.38056e-07)
(3.70911e-05 0 4.21283e-06)
(4.01429e-05 3.12672e-06 -1.28474e-05)
(3.91539e-05 3.06192e-06 -8.27427e-06)
(3.83077e-05 3.00315e-06 -4.10802e-06)
(3.75719e-05 2.95294e-06 -2.24731e-09)
(3.69492e-05 2.91512e-06 4.36759e-06)
(3.9755e-05 6.25285e-06 -1.28398e-05)
(3.87729e-05 6.10999e-06 -8.26736e-06)
(3.79332e-05 5.98839e-06 -4.10174e-06)
(3.72035e-05 5.88414e-06 3.14931e-09)
(3.65869e-05 5.79885e-06 4.37102e-06)
(3.91176e-05 9.33603e-06 -1.28338e-05)
(3.8149e-05 9.1191e-06 -8.26253e-06)
(3.7321e-05 8.93424e-06 -4.09798e-06)
(3.66017e-05 8.77539e-06 5.68442e-09)
(3.59938e-05 8.64441e-06 4.37208e-06)
(3.82358e-05 1.23601e-05 -1.28288e-05)
(3.72865e-05 1.20694e-05 -8.25894e-06)
(3.64753e-05 1.18216e-05 -4.09567e-06)
(3.57708e-05 1.16083e-05 6.6876e-09)