/*--------------------------------*- C++ -*----------------------------------*\
| =========                 |                                                 |
| \\      /  F ield         | foam-extend: Open Source CFD                    |
|  \\    /   O peration     | Version:     3.1                                |
|   \\  /    A nd           | Web:         http://www.extend-project.de       |
|    \\/     M anipulation  |                                                 |
\*---------------------------------------------------------------------------*/
FoamFile
{
    version     2.0;
    format      ascii;
    class       volScalarField;
    location    "0.0009";
    object      sigmaEq;
}
// * * * * * * * * * * * * * * * * * * * * * * * * * * * * * * * * * * * * * //

dimensions      [1 -1 -2 0 0 0 0];

internalField   nonuniform List<scalar> 
6400
(
4600.01
3688.32
3345.71
3691.43
4575.66
3676.58
3342.75
3708.41
4573.54
3674.96
3341.99
3708.7
4572.55
3674.34
3341.57
3708.28
4572.1
3674.05
3341.25
3707.65
4571.94
3673.91
3340.96
3706.94
4571.93
3673.81
3340.65
3706.22
4572
3673.69
3340.31
3705.53
4572.07
3673.49
3339.94
3704.93
4572.05
3673.3
3339.67
3704.56
4572.05
3673.3
3339.67
3704.56
4572.07
3673.49
3339.94
3704.93
4572
3673.69
3340.31
3705.53
4571.93
3673.81
3340.65
3706.22
4571.94
3673.91
3340.96
3706.94
4572.1
3674.05
3341.25
3707.65
4572.55
3674.34
3341.57
3708.28
4573.54
3674.96
3341.99
3708.7
4575.66
3676.58
3342.75
3708.41
4600.01
3688.32
3345.71
3691.43
2851.43
3158.2
2886.17
1895.62
2860.19
3157.5
2874.61
1873.96
2858.48
3156.4
2873.73
1873.83
2857.63
3155.83
2873.24
1873.41
2857.16
3155.4
2872.8
1872.88
2856.88
3155.08
2872.45
1872.35
2856.73
3154.85
2872.17
1871.88
2856.68
3154.67
2871.93
1871.5
2856.72
3154.48
2871.72
1871.19
2857.09
3154.35
2871.57
1871
2857.09
3154.35
2871.57
1871
2856.72
3154.48
2871.72
1871.19
2856.68
3154.67
2871.93
1871.5
2856.73
3154.85
2872.17
1871.88
2856.88
3155.08
2872.45
1872.35
2857.15
3155.39
2872.8
1872.88
2857.62
3155.83
2873.24
1873.41
2858.48
3156.4
2873.73
1873.83
2860.19
3157.5
2874.61
1873.96
2851.42
3158.2
2886.17
1895.62
3192.58
3082.1
2800.64
2375.97
3195.89
3077.87
2789.71
2362.69
3195.19
3077.71
2789.24
2363.53
3195.14
3077.61
2789.11
2363.66
3195.25
3077.51
2788.97
2363.68
3195.42
3077.43
2788.84
2363.71
3195.62
3077.4
2788.76
2363.79
3195.88
3077.43
2788.73
2363.89
3196.28
3077.52
2788.72
2363.94
3197.16
3077.65
2788.72
2363.94
3197.16
3077.65
2788.72
2363.94
3196.27
3077.52
2788.72
2363.94
3195.88
3077.43
2788.73
2363.89
3195.62
3077.4
2788.76
2363.79
3195.42
3077.43
2788.84
2363.71
3195.25
3077.51
2788.97
2363.68
3195.13
3077.61
2789.11
2363.66
3195.19
3077.7
2789.24
2363.53
3195.89
3077.87
2789.71
2362.69
3192.58
3082.1
2800.64
2375.97
4083.28
3544.75
3200.68
3144.23
4077.18
3536.23
3192.39
3137.74
4076.45
3536.13
3192.25
3139.43
4076.64
3536.08
3192.14
3139.75
4077.17
3536.23
3192.13
3139.78
4077.83
3536.49
3192.16
3139.8
4078.52
3536.81
3192.24
3139.86
4079.22
3537.16
3192.36
3139.96
4079.97
3537.54
3192.49
3140.03
4081.05
3537.88
3192.57
3140.06
4081.05
3537.88
3192.57
3140.06
4079.97
3537.54
3192.49
3140.03
4079.22
3537.16
3192.36
3139.96
4078.52
3536.8
3192.24
3139.86
4077.83
3536.49
3192.16
3139.8
4077.16
3536.23
3192.13
3139.78
4076.64
3536.08
3192.14
3139.75
4076.45
3536.13
3192.25
3139.43
4077.18
3536.23
3192.39
3137.74
4083.28
3544.75
3200.68
3144.23
4510.29
3852.24
3474.63
3476.58
4502.06
3843.06
3467.32
3470.66
4501.43
3843.06
3467.22
3472.35
4501.71
3843.01
3466.98
3472.4
4502.43
3843.29
3466.91
3472.09
4503.39
3843.77
3466.95
3471.75
4504.43
3844.35
3467.06
3471.47
4505.46
3844.95
3467.22
3471.29
4506.47
3845.54
3467.39
3471.16
4507.64
3846
3467.51
3471.09
4507.64
3846
3467.51
3471.09
4506.47
3845.54
3467.39
3471.16
4505.46
3844.95
3467.22
3471.29
4504.43
3844.34
3467.06
3471.47
4503.39
3843.77
3466.95
3471.75
4502.43
3843.29
3466.91
3472.09
4501.71
3843.01
3466.98
3472.4
4501.43
3843.06
3467.22
3472.35
4502.05
3843.06
3467.31
3470.66
4510.28
3852.24
3474.62
3476.58
4333.03
3786.34
3434.73
3344.01
4328.02
3779.29
3427.8
3335.75
4327.71
3779.53
3427.65
3336.84
4328.12
3779.57
3427.31
3336.38
4328.92
3779.93
3427.14
3335.56
4329.99
3780.52
3427.1
3334.69
4331.18
3781.23
3427.15
3333.9
4332.39
3781.97
3427.27
3333.25
4333.55
3782.67
3427.41
3332.77
4334.75
3783.19
3427.51
3332.5
4334.75
3783.19
3427.51
3332.5
4333.55
3782.67
3427.41
3332.77
4332.39
3781.97
3427.27
3333.25
4331.18
3781.22
3427.15
3333.9
4329.99
3780.52
3427.1
3334.69
4328.92
3779.93
3427.14
3335.56
4328.11
3779.57
3427.31
3336.38
4327.71
3779.52
3427.65
3336.84
4328.01
3779.29
3427.8
3335.75
4333.03
3786.34
3434.73
3344.01
3680.64
3363.85
3086.39
2868.32
3681.6
3360.31
3080.16
2857.49
3681.68
3360.74
3079.89
2857.75
3682.22
3360.85
3079.46
2856.87
3683.02
3361.13
3079.13
2855.67
3684.04
3361.6
3078.89
2854.4
3685.2
3362.19
3078.74
2853.18
3686.41
3362.84
3078.67
2852.1
3687.59
3363.46
3078.66
2851.26
3688.7
3363.91
3078.68
2850.79
3688.7
3363.91
3078.68
2850.79
3687.59
3363.46
3078.66
2851.26
3686.41
3362.84
3078.67
2852.1
3685.2
3362.19
3078.74
2853.18
3684.04
3361.6
3078.89
2854.4
3683.01
3361.13
3079.13
2855.67
3682.21
3360.85
3079.46
2856.87
3681.68
3360.74
3079.89
2857.75
3681.59
3360.31
3080.16
2857.49
3680.64
3363.85
3086.39
2868.32
2830.84
2694.31
2502.53
2247.08
2836.55
2693.81
2497.98
2237
2836.89
2694.23
2497.58
2236.68
2837.49
2694.25
2497.04
2235.75
2838.23
2694.26
2496.46
2234.57
2839.11
2694.35
2495.9
2233.29
2840.1
2694.53
2495.39
2232.01
2841.16
2694.78
2494.98
2230.83
2842.17
2695.05
2494.68
2229.87
2843.07
2695.28
2494.52
2229.31
2843.07
2695.28
2494.52
2229.31
2842.17
2695.05
2494.68
2229.87
2841.15
2694.78
2494.98
2230.83
2840.1
2694.53
2495.39
2232.02
2839.1
2694.35
2495.9
2233.29
2838.22
2694.26
2496.46
2234.57
2837.49
2694.25
2497.04
2235.75
2836.88
2694.22
2497.58
2236.68
2836.54
2693.81
2497.98
2237
2830.84
2694.3
2502.53
2247.08
2100.94
1952.34
1814.98
1675.58
2106.19
1952.95
1813.1
1671.43
2106.46
1953.19
1812.67
1671.04
2106.97
1953.11
1812.13
1670.45
2107.56
1952.87
1811.44
1669.68
2108.24
1952.61
1810.68
1668.79
2108.99
1952.38
1809.92
1667.84
2109.78
1952.2
1809.22
1666.91
2110.5
1952.09
1808.67
1666.12
2111.09
1952.06
1808.36
1665.65
2111.09
1952.06
1808.36
1665.65
2110.5
1952.09
1808.67
1666.12
2109.77
1952.2
1809.22
1666.91
2108.99
1952.37
1809.92
1667.84
2108.23
1952.6
1810.68
1668.79
2107.56
1952.87
1811.44
1669.68
2106.97
1953.11
1812.13
1670.45
2106.45
1953.19
1812.67
1671.04
2106.19
1952.95
1813.1
1671.43
2100.94
1952.34
1814.98
1675.58
1644.81
1346.79
1208.44
1240.99
1645.59
1346.54
1209.17
1243.88
1645.5
1346.6
1208.87
1243.65
1645.71
1346.59
1208.59
1243.42
1646.02
1346.44
1208.16
1243.05
1646.4
1346.24
1207.62
1242.54
1646.85
1346.03
1207.04
1241.94
1647.31
1345.85
1206.48
1241.32
1647.72
1345.69
1206.01
1240.76
1648.05
1345.61
1205.74
1240.42
1648.05
1345.61
1205.73
1240.42
1647.72
1345.69
1206.01
1240.76
1647.31
1345.85
1206.48
1241.32
1646.84
1346.03
1207.03
1241.94
1646.4
1346.23
1207.61
1242.54
1646.02
1346.43
1208.15
1243.05
1645.7
1346.59
1208.59
1243.42
1645.49
1346.59
1208.87
1243.65
1645.59
1346.54
1209.17
1243.88
1644.81
1346.78
1208.44
1240.99
1355.73
997.43
828.202
908.466
1353.89
996.043
829.631
913.579
1353.54
996.012
829.48
913.347
1353.44
996.184
829.556
913.194
1353.44
996.309
829.571
912.926
1353.5
996.434
829.531
912.533
1353.63
996.571
829.455
912.055
1353.8
996.706
829.358
911.554
1353.99
996.811
829.258
911.116
1354.17
996.875
829.192
910.85
1354.17
996.875
829.192
910.85
1353.99
996.811
829.258
911.116
1353.8
996.705
829.357
911.554
1353.63
996.57
829.455
912.055
1353.5
996.433
829.53
912.533
1353.44
996.307
829.57
912.927
1353.44
996.182
829.556
913.194
1353.53
996.01
829.48
913.347
1353.88
996.041
829.63
913.579
1355.73
997.428
828.201
908.466
1096.32
821.49
650.858
640.827
1095.07
820.058
650.962
643.471
1094.73
820.002
650.802
643.081
1094.51
820.19
650.977
642.885
1094.35
820.373
651.17
642.653
1094.21
820.576
651.355
642.337
1094.13
820.803
651.526
641.958
1094.13
821.035
651.67
641.563
1094.2
821.236
651.775
641.223
1094.3
821.362
651.83
641.021
1094.3
821.362
651.83
641.021
1094.2
821.235
651.775
641.223
1094.13
821.035
651.67
641.563
1094.13
820.802
651.525
641.958
1094.21
820.575
651.355
642.337
1094.34
820.372
651.17
642.653
1094.51
820.189
650.977
642.885
1094.73
820
650.801
643.081
1095.07
820.057
650.962
643.47
1096.32
821.489
650.857
640.826
856.243
688.803
550.249
462.562
856.452
687.836
549.242
461.972
856.243
687.778
549.036
461.574
856.071
687.89
549.144
461.472
855.906
687.978
549.285
461.433
855.746
688.068
549.426
461.377
855.628
688.173
549.558
461.282
855.578
688.291
549.674
461.16
855.603
688.406
549.761
461.041
855.697
688.487
549.81
460.964
855.697
688.487
549.81
460.964
855.603
688.406
549.761
461.04
855.577
688.291
549.674
461.16
855.628
688.172
549.558
461.282
855.745
688.067
549.425
461.377
855.905
687.978
549.285
461.433
856.07
687.889
549.144
461.471
856.243
687.778
549.035
461.573
856.452
687.836
549.242
461.971
856.243
688.803
550.248
462.561
671.704
570.88
472.101
386.109
672.685
570.271
470.938
384.366
672.587
570.24
470.764
384.162
672.503
570.312
470.839
384.221
672.416
570.352
470.943
384.376
672.324
570.38
471.047
384.549
672.257
570.413
471.141
384.7
672.237
570.457
471.22
384.81
672.276
570.508
471.277
384.874
672.378
570.552
471.308
384.9
672.379
570.552
471.308
384.9
672.276
570.508
471.277
384.874
672.237
570.457
471.22
384.81
672.258
570.413
471.141
384.7
672.325
570.38
471.047
384.549
672.417
570.352
470.943
384.375
672.504
570.312
470.839
384.22
672.589
570.24
470.764
384.161
672.687
570.271
470.938
384.365
671.706
570.88
472.101
386.108
546.207
477.764
410.259
353.196
547.27
477.364
409.349
351.655
547.225
477.367
409.233
351.584
547.191
477.427
409.293
351.674
547.16
477.464
409.379
351.825
547.129
477.49
409.463
351.988
547.116
477.517
409.537
352.13
547.134
477.55
409.596
352.235
547.192
477.586
409.635
352.296
547.298
477.619
409.656
352.321
547.298
477.619
409.656
352.321
547.193
477.586
409.635
352.296
547.135
477.55
409.596
352.235
547.117
477.518
409.537
352.13
547.131
477.491
409.463
351.987
547.162
477.465
409.379
351.824
547.194
477.429
409.293
351.673
547.229
477.368
409.233
351.583
547.274
477.366
409.349
351.654
546.21
477.765
410.258
353.195
457.149
404.511
354.95
313.959
458.043
404.232
354.255
312.657
458.021
404.248
354.164
312.603
458.001
404.289
354.191
312.64
457.992
404.312
354.235
312.703
457.989
404.33
354.274
312.76
458.004
404.347
354.302
312.795
458.042
404.367
354.319
312.803
458.106
404.389
354.324
312.789
458.2
404.409
354.324
312.772
458.2
404.409
354.324
312.772
458.107
404.389
354.324
312.788
458.044
404.368
354.319
312.802
458.006
404.348
354.302
312.794
457.992
404.331
354.274
312.759
457.996
404.314
354.235
312.702
458.006
404.291
354.191
312.639
458.025
404.25
354.164
312.602
458.049
404.234
354.255
312.656
457.154
404.513
354.95
313.957
387.189
341.333
299.74
263.726
387.844
341.095
299.156
262.562
387.832
341.105
299.067
262.488
387.818
341.125
299.06
262.479
387.817
341.129
299.062
262.476
387.826
341.128
299.056
262.46
387.852
341.127
299.04
262.42
387.896
341.129
299.015
262.361
387.955
341.132
298.988
262.297
388.032
341.139
298.97
262.252
388.033
341.139
298.97
262.252
387.957
341.133
298.988
262.297
387.898
341.13
299.015
262.361
387.855
341.129
299.04
262.419
387.83
341.13
299.056
262.459
387.822
341.131
299.062
262.475
387.823
341.127
299.061
262.478
387.838
341.107
299.067
262.487
387.85
341.097
299.156
262.56
387.196
341.336
299.74
263.724
328.906
285.663
247.508
213.613
329.316
285.412
246.987
212.589
329.307
285.413
246.9
212.506
329.293
285.421
246.88
212.482
329.294
285.416
246.865
212.459
329.305
285.407
246.841
212.42
329.332
285.399
246.809
212.361
329.372
285.394
246.771
212.287
329.423
285.39
246.735
212.213
329.483
285.391
246.711
212.164
329.483
285.391
246.711
212.164
329.425
285.391
246.735
212.213
329.375
285.395
246.771
212.287
329.335
285.401
246.809
212.36
329.31
285.409
246.842
212.419
329.299
285.418
246.865
212.457
329.299
285.423
246.88
212.48
329.314
285.415
246.9
212.504
329.322
285.415
246.987
212.587
328.913
285.666
247.508
213.611
278.416
238.121
202.876
171.554
278.641
237.853
202.406
170.683
278.631
237.847
202.33
170.607
278.614
237.852
202.313
170.589
278.61
237.848
202.301
170.573
278.617
237.842
202.283
170.545
278.636
237.837
202.258
170.499
278.668
237.834
202.229
170.44
278.707
237.833
202.2
170.381
278.752
237.834
202.182
170.341
278.753
237.834
202.182
170.341
278.709
237.834
202.2
170.38
278.67
237.835
202.229
170.439
278.64
237.839
202.258
170.498
278.621
237.844
202.283
170.543
278.615
237.85
202.301
170.572
278.62
237.855
202.313
170.587
278.638
237.85
202.33
170.605
278.649
237.856
202.406
170.681
278.424
238.124
202.876
171.552
233.579
198.218
167.004
139.274
233.704
197.958
166.589
138.548
233.693
197.95
166.528
138.488
233.672
197.955
166.52
138.483
233.662
197.953
166.517
138.481
233.661
197.951
166.51
138.471
233.672
197.95
166.499
138.446
233.692
197.951
166.483
138.41
233.721
197.953
166.466
138.371
233.755
197.956
166.455
138.344
233.755
197.957
166.455
138.344
233.723
197.954
166.466
138.37
233.695
197.953
166.483
138.409
233.675
197.952
166.499
138.445
233.666
197.953
166.511
138.469
233.668
197.955
166.517
138.48
233.678
197.957
166.52
138.481
233.699
197.953
166.528
138.486
233.711
197.96
166.589
138.545
233.586
198.221
167.004
139.271
193.926
164.612
138.336
114.93
194.01
164.382
137.984
114.335
194.001
164.375
137.937
114.292
193.979
164.38
137.935
114.297
193.967
164.38
137.939
114.306
193.961
164.379
137.94
114.309
193.965
164.38
137.936
114.3
193.977
164.383
137.929
114.281
193.997
164.386
137.921
114.258
194.023
164.389
137.915
114.242
194.023
164.389
137.915
114.241
193.999
164.386
137.921
114.258
193.98
164.384
137.93
114.281
193.968
164.382
137.936
114.299
193.965
164.381
137.94
114.308
193.972
164.382
137.939
114.305
193.985
164.383
137.935
114.295
194.006
164.378
137.937
114.29
194.016
164.385
137.983
114.332
193.932
164.615
138.336
114.927
159.692
136.192
114.878
95.8743
159.762
136.002
114.59
95.3949
159.755
135.997
114.555
95.3657
159.736
136.002
114.556
95.3757
159.723
136.002
114.562
95.3892
159.716
136.002
114.566
95.3974
159.716
136.002
114.566
95.3963
159.724
136.004
114.563
95.3867
159.739
136.007
114.558
95.3725
159.759
136.009
114.554
95.3615
159.759
136.01
114.554
95.3613
159.74
136.007
114.558
95.3719
159.727
136.005
114.563
95.3858
159.719
136.004
114.566
95.3952
159.72
136.003
114.566
95.396
159.728
136.004
114.562
95.3876
159.741
136.004
114.556
95.3738
159.76
135.999
114.555
95.3635
159.767
136.004
114.589
95.3925
159.698
136.194
114.878
95.8719
130.872
112.227
95.2378
80.1091
130.932
112.075
95.0059
79.7256
130.928
112.073
94.9796
79.7055
130.912
112.077
94.9823
79.7163
130.902
112.077
94.9882
79.7293
130.895
112.076
94.9919
79.7376
130.895
112.076
94.9925
79.7383
130.9
112.077
94.9903
79.7319
130.911
112.079
94.9863
79.7214
130.927
112.08
94.983
79.7132
130.927
112.081
94.983
79.713
130.912
112.079
94.9862
79.7209
130.902
112.078
94.9902
79.731
130.897
112.077
94.9924
79.7372
130.898
112.078
94.9918
79.7363
130.905
112.078
94.988
79.7277
130.916
112.079
94.9821
79.7145
130.932
112.074
94.9793
79.7034
130.937
112.077
95.0055
79.7233
130.876
112.229
95.2374
80.1067
106.995
92.1386
78.6138
66.5854
107.046
92.0174
78.4283
66.2782
107.043
92.0159
78.4081
66.2635
107.031
92.0197
78.4107
66.2731
107.022
92.0196
78.4155
66.2837
107.017
92.0188
78.4182
66.29
107.016
92.0184
78.4182
66.29
107.021
92.0186
78.4158
66.2842
107.029
92.0191
78.4119
66.2752
107.041
92.02
78.4089
66.2682
107.042
92.0202
78.4089
66.2681
107.03
92.0195
78.4119
66.2747
107.022
92.0192
78.4156
66.2834
107.018
92.0193
78.418
66.289
107.019
92.0199
78.418
66.2888
107.025
92.0208
78.4152
66.2822
107.034
92.021
78.4103
66.2714
107.046
92.0172
78.4077
66.2616
107.049
92.0187
78.4278
66.2761
106.999
92.14
78.6133
66.5832
87.3394
75.3892
64.5485
54.9065
87.3794
75.2915
64.3993
54.6589
87.3777
75.2907
64.3833
54.6476
87.3675
75.2937
64.3854
54.6555
87.3607
75.2935
64.389
54.6636
87.3566
75.2926
64.3907
54.6679
87.3563
75.2919
64.3901
54.667
87.3597
75.2916
64.3875
54.6613
87.3666
75.2916
64.3838
54.6533
87.3764
75.292
64.3809
54.6471
87.3767
75.2921
64.3809
54.647
87.3674
75.2919
64.3837
54.6528
87.3609
75.2921
64.3873
54.6605
87.3578
75.2925
64.3899
54.666
87.3583
75.2933
64.3905
54.6668
87.3627
75.2943
64.3887
54.6622
87.3697
75.2946
64.385
54.6539
87.3801
75.2916
64.3828
54.6459
87.3818
75.2925
64.3987
54.657
87.342
75.3902
64.5479
54.9045
71.172
61.4854
52.7301
44.9364
71.2021
61.4058
52.6093
44.7359
71.2008
61.405
52.5965
44.727
71.1923
61.4073
52.598
44.7333
71.1867
61.407
52.6007
44.7395
71.1834
61.4061
52.6018
44.7425
71.1831
61.4053
52.6009
44.7411
71.1858
61.4048
52.5983
44.7359
71.1913
61.4046
52.595
44.7289
71.1991
61.4048
52.5925
44.7237
71.1993
61.4049
52.5924
44.7235
71.1919
61.4048
52.5949
44.7285
71.1867
61.4052
52.5982
44.7353
71.1842
61.4058
52.6007
44.7403
71.1846
61.4067
52.6015
44.7415
71.1881
61.4076
52.6004
44.7384
71.1938
61.4079
52.5976
44.732
71.2023
61.4056
52.596
44.7254
71.2037
61.4064
52.6088
44.7342
71.1737
61.486
52.7295
44.9346
57.8678
49.9904
42.889
36.5634
57.8901
49.9251
42.791
36.4011
57.8888
49.9244
42.7806
36.3939
57.8817
49.9261
42.7817
36.3991
57.877
49.9257
42.7838
36.4041
57.8741
49.9249
42.7845
36.4063
57.8738
49.9241
42.7836
36.405
57.8759
49.9236
42.7814
36.4006
57.8802
49.9233
42.7786
36.3947
57.8865
49.9234
42.7764
36.3904
57.8866
49.9235
42.7764
36.3902
57.8807
49.9235
42.7785
36.3943
57.8766
49.9239
42.7813
36.4
57.8746
49.9245
42.7835
36.4043
57.875
49.9253
42.7844
36.4055
57.8779
49.9261
42.7836
36.4031
57.8826
49.9265
42.7814
36.398
57.8898
49.9248
42.7802
36.3926
57.8911
49.9255
42.7905
36.3997
57.8689
49.9908
42.8885
36.5619
46.9284
40.5255
34.7622
29.6286
46.9449
40.4719
34.6825
29.4973
46.9437
40.4712
34.6741
29.4916
46.9377
40.4725
34.675
29.4959
46.9336
40.4721
34.6767
29.5
46.9311
40.4713
34.6773
29.5018
46.9307
40.4707
34.6765
29.5008
46.9323
40.4702
34.6747
29.4972
46.9357
40.4699
34.6724
29.4924
46.9407
40.47
34.6706
29.4889
46.9409
40.4701
34.6706
29.4888
46.9361
40.4702
34.6724
29.4922
46.9329
40.4705
34.6747
29.4968
46.9313
40.4711
34.6765
29.5003
46.9318
40.4718
34.6772
29.5013
46.9342
40.4725
34.6766
29.4993
46.9383
40.4729
34.6749
29.4951
46.9443
40.4716
34.6739
29.4906
46.9455
40.4723
34.6822
29.4962
46.9291
40.5258
34.7619
29.6275
37.9562
32.7639
28.0942
23.9376
37.9686
32.7201
28.0296
23.8316
37.9675
32.7195
28.0229
23.8271
37.9624
32.7205
28.0237
23.8307
37.959
32.7201
28.025
23.8341
37.9568
32.7194
28.0255
23.8357
37.9564
32.7188
28.0249
23.8349
37.9576
32.7185
28.0234
23.8321
37.9603
32.7182
28.0216
23.8283
37.9644
32.7183
28.0202
23.8255
37.9645
32.7184
28.0202
23.8254
37.9607
32.7185
28.0216
23.8281
37.9581
32.7189
28.0235
23.8318
37.957
32.7193
28.025
23.8346
37.9574
32.7199
28.0256
23.8354
37.9595
32.7206
28.0251
23.8337
37.963
32.721
28.0237
23.8303
37.968
32.72
28.0229
23.8265
37.9692
32.7206
28.0296
23.8309
37.9568
32.7643
28.0942
23.9368
30.6247
26.4246
22.6496
19.2928
30.6342
26.389
22.5973
19.2074
30.6332
26.3885
22.5919
19.2039
30.6289
26.3892
22.5925
19.2069
30.6261
26.3888
22.5937
19.2097
30.6242
26.3883
22.594
19.211
30.6238
26.3878
22.5936
19.2104
30.6248
26.3876
22.5925
19.2081
30.6271
26.3874
22.591
19.2051
30.6304
26.3875
22.5899
19.2029
30.6305
26.3876
22.59
19.2029
30.6275
26.3877
22.5911
19.2051
30.6255
26.3881
22.5927
19.208
30.6246
26.3885
22.5939
19.2103
30.625
26.389
22.5944
19.2109
30.6268
26.3895
22.594
19.2096
30.6296
26.3899
22.5929
19.2067
30.6339
26.3891
22.5922
19.2036
30.6349
26.3897
22.5976
19.2071
30.6254
26.4253
22.6498
19.2924
24.6577
21.2666
18.2204
15.5148
24.6652
21.2377
18.1782
15.4461
24.6643
21.2372
18.1739
15.4434
24.6608
21.2378
18.1744
15.4458
24.6584
21.2375
18.1753
15.4481
24.6569
21.2371
18.1757
15.4492
24.6566
21.2367
18.1753
15.4487
24.6575
21.2366
18.1744
15.4469
24.6593
21.2365
18.1733
15.4445
24.6621
21.2366
18.1725
15.4428
24.6622
21.2368
18.1725
15.4427
24.6599
21.2369
18.1735
15.4445
24.6582
21.2372
18.1748
15.447
24.6575
21.2375
18.1758
15.4488
24.6579
21.238
18.1762
15.4494
24.6594
21.2385
18.1759
15.4483
24.6617
21.2388
18.175
15.446
24.6652
21.2382
18.1744
15.4435
24.6661
21.2387
18.1788
15.4462
24.6587
21.2675
18.2209
15.5149
19.8191
17.0841
14.629
12.4507
19.825
17.0608
14.5949
12.3954
19.8242
17.0604
14.5914
12.3932
19.8214
17.0608
14.5919
12.3952
19.8195
17.0606
14.5926
12.397
19.8183
17.0602
14.5929
12.3979
19.8181
17.06
14.5927
12.3975
19.8189
17.0599
14.592
12.3961
19.8205
17.0599
14.5911
12.3942
19.8228
17.0601
14.5904
12.3927
19.823
17.0602
14.5905
12.3927
19.8211
17.0604
14.5914
12.3942
19.8198
17.0606
14.5924
12.3962
19.8192
17.0609
14.5933
12.3978
19.8195
17.0613
14.5937
12.3983
19.8207
17.0617
14.5935
12.3975
19.8226
17.062
14.5927
12.3956
19.8255
17.0615
14.5923
12.3936
19.8263
17.0619
14.5957
12.3957
19.8204
17.0852
14.6298
12.451
15.9074
13.7028
11.7254
9.97248
15.9121
13.684
11.698
9.928
15.9114
13.6837
11.6952
9.92622
15.9091
13.6841
11.6955
9.92783
15.9076
13.6839
11.6961
9.9293
15.9067
13.6837
11.6964
9.93
15.9067
13.6835
11.6962
9.92971
15.9074
13.6835
11.6956
9.92856
15.9087
13.6835
11.695
9.92702
15.9107
13.6837
11.6945
9.92588
15.911
13.6839
11.6946
9.92591
15.9095
13.6841
11.6953
9.92714
15.9084
13.6843
11.6962
9.92882
15.908
13.6845
11.6969
9.93013
15.9082
13.6848
11.6972
9.93057
15.9091
13.6852
11.6971
9.92995
15.9107
13.6854
11.6965
9.92849
15.913
13.685
11.6962
9.92685
15.9137
13.6854
11.699
9.92858
15.909
13.7042
11.7264
9.97305
12.7527
10.9765
9.38444
7.97423
12.7565
10.9614
9.36236
7.93844
12.7559
10.9611
9.36009
7.937
12.7541
10.9614
9.36039
7.93829
12.7529
10.9613
9.36088
7.93947
12.7522
10.9611
9.36108
7.94004
12.7522
10.961
9.36094
7.93981
12.7529
10.961
9.36054
7.9389
12.7541
10.9611
9.36002
7.93766
12.7558
10.9613
9.35966
7.93676
12.7561
10.9615
9.35978
7.93681
12.7549
10.9617
9.36037
7.93782
12.754
10.9619
9.36112
7.93921
12.7537
10.9621
9.36172
7.9403
12.7538
10.9623
9.362
7.9407
12.7545
10.9626
9.3619
7.94024
12.7558
10.9628
9.36145
7.93908
12.7576
10.9625
9.36115
7.93777
12.7583
10.9628
9.36341
7.93916
12.7545
10.9779
9.38548
7.97494
10.2136
8.78317
7.50185
6.36768
10.2166
8.77096
7.48407
6.33888
10.2161
8.77073
7.48224
6.33772
10.2147
8.77097
7.48248
6.33875
10.2137
8.77086
7.48287
6.3397
10.2132
8.77073
7.48304
6.34017
10.2133
8.77069
7.48295
6.34001
10.2139
8.77075
7.48266
6.33929
10.2149
8.77088
7.48226
6.33832
10.2164
8.77109
7.482
6.3376
10.2166
8.77128
7.48212
6.33765
10.2157
8.77141
7.4826
6.33849
10.215
8.77158
7.48321
6.33962
10.2147
8.77174
7.4837
6.34052
10.2148
8.77192
7.48394
6.34086
10.2154
8.77213
7.48386
6.34051
10.2163
8.77227
7.48349
6.33959
10.2178
8.77203
7.48325
6.33853
10.2184
8.77227
7.48506
6.33965
10.2154
8.78448
7.50283
6.36842
8.17327
7.02194
5.99118
5.0794
8.17572
7.01211
5.97687
5.05624
8.17527
7.0119
5.97539
5.0553
8.17408
7.01209
5.97558
5.05612
8.17332
7.01199
5.9759
5.0569
8.17291
7.01189
5.97604
5.0573
8.17297
7.01186
5.97599
5.0572
8.17348
7.01193
5.97577
5.05665
8.17439
7.01206
5.97547
5.05589
8.1756
7.01225
5.97528
5.05532
8.17585
7.01242
5.97538
5.05537
8.17511
7.01253
5.97577
5.05604
8.17456
7.01265
5.97625
5.05696
8.17426
7.01275
5.97663
5.05768
8.1743
7.01288
5.97681
5.05796
8.17474
7.01303
5.97673
5.05767
8.17552
7.01312
5.97643
5.05692
8.17672
7.01292
5.97622
5.05607
8.1772
7.01311
5.97767
5.05695
8.17476
7.02294
5.99196
5.08009
6.53605
5.60994
4.78117
4.04854
6.53804
5.60203
4.76966
4.02991
6.53763
5.60184
4.76845
4.02915
6.53664
5.60196
4.7686
4.02981
6.53599
5.60186
4.76885
4.03045
6.53564
5.60176
4.76897
4.0308
6.53566
5.60173
4.76893
4.03075
6.53607
5.60178
4.76877
4.03034
6.53681
5.60189
4.76854
4.02975
6.53781
5.60205
4.76838
4.0293
6.53802
5.60217
4.76845
4.02934
6.5374
5.60224
4.76875
4.02987
6.53693
5.6023
4.76912
4.03059
6.53666
5.60236
4.7694
4.03116
6.53665
5.60242
4.76951
4.03137
6.53697
5.60251
4.76943
4.03112
6.53757
5.60256
4.76916
4.0305
6.53854
5.60238
4.76897
4.02979
6.53894
5.60253
4.77012
4.03049
6.53696
5.61043
4.7816
4.04908
5.22393
4.47942
3.81338
3.22499
5.22553
4.47305
3.80412
3.21001
5.22514
4.47287
3.80313
3.20939
5.2243
4.47293
3.80323
3.20992
5.22371
4.47281
3.80342
3.21045
5.22336
4.47269
3.80351
3.21075
5.22333
4.47263
3.80348
3.21074
5.22362
4.47264
3.80334
3.21043
5.22419
4.47271
3.80315
3.20997
5.22497
4.47282
3.80301
3.20962
5.22512
4.47288
3.80305
3.20964
5.22458
4.4729
3.80326
3.21005
5.22414
4.4729
3.80352
3.2106
5.22387
4.47289
3.8037
3.21104
5.22381
4.47289
3.80375
3.21117
5.22402
4.47291
3.80364
3.21095
5.22447
4.47292
3.80339
3.21042
5.22523
4.47275
3.80321
3.20983
5.22556
4.47285
3.80412
3.21038
5.22394
4.47918
3.81334
3.2253
4.17343
3.57522
3.04018
2.56782
4.17472
3.57009
3.03273
2.55578
4.17434
3.5699
3.03192
2.55528
4.17359
3.5699
3.03198
2.5557
4.17304
3.56975
3.03211
2.55613
4.17267
3.5696
3.03215
2.55638
4.17256
3.5695
3.03211
2.55639
4.17271
3.56946
3.03198
2.55617
4.17311
3.56947
3.03181
2.5558
4.17369
3.5695
3.03167
2.55551
4.17374
3.5695
3.03166
2.55551
4.17323
3.56945
3.03178
2.55581
4.17281
3.56938
3.03194
2.55623
4.1725
3.5693
3.03203
2.55654
4.17238
3.56923
3.03202
2.55662
4.17248
3.56919
3.03189
2.55641
4.1728
3.56915
3.03164
2.55595
4.17338
3.56898
3.03146
2.55546
4.17364
3.56904
3.03217
2.55588
4.17231
3.5741
3.03955
2.56785
3.3331
2.85263
2.42297
2.04388
3.33413
2.84849
2.41697
2.03421
3.33375
2.8483
2.4163
2.03379
3.33306
2.84824
2.41631
2.03412
3.33252
2.84805
2.41638
2.03446
3.33212
2.84786
2.41639
2.03467
3.33192
2.8477
2.41632
2.03468
3.33194
2.8476
2.41618
2.0345
3.33217
2.84754
2.416
2.03421
3.33255
2.8475
2.41585
2.03396
3.3325
2.84742
2.41579
2.03393
3.33199
2.8473
2.41583
2.03414
3.33154
2.84715
2.41589
2.03444
3.33119
2.847
2.4159
2.03465
3.33099
2.84686
2.41584
2.03468
3.33099
2.84675
2.41567
2.03448
3.33118
2.84666
2.41543
2.03408
3.33159
2.84647
2.41525
2.03366
3.33179
2.8465
2.41579
2.03398
3.33068
2.85053
2.4217
2.04357
2.6613
2.27552
1.93059
1.62644
2.66211
2.27218
1.92576
1.61867
2.66173
2.27197
1.92519
1.61832
2.66108
2.27186
1.92516
1.61857
2.66053
2.27163
1.92517
1.61882
2.66009
2.27139
1.92513
1.61897
2.65981
2.27118
1.92502
1.61897
2.65971
2.27102
1.92487
1.61882
2.65978
2.27088
1.92467
1.61857
2.65997
2.27076
1.92449
1.61835
2.65982
2.27061
1.92438
1.61829
2.65928
2.27041
1.92435
1.61842
2.6588
2.27019
1.92433
1.61862
2.65839
2.26996
1.92427
1.61875
2.65811
2.26976
1.92415
1.61874
2.658
2.26959
1.92396
1.61854
2.65807
2.26944
1.92371
1.6182
2.65834
2.26924
1.92352
1.61784
2.65846
2.26922
1.92393
1.61807
2.65753
2.27243
1.92865
1.62576
2.12441
1.81478
1.53796
1.29402
2.12505
1.81207
1.53407
1.28777
2.12465
1.81185
1.53357
1.28747
2.12404
1.8117
1.53351
1.28764
2.1235
1.81143
1.53346
1.28781
2.12302
1.81115
1.53337
1.28791
2.12267
1.81088
1.53323
1.28789
2.12246
1.81066
1.53304
1.28775
2.12238
1.81045
1.53283
1.28752
2.12242
1.81026
1.53262
1.28731
2.12216
1.81004
1.53246
1.28722
2.12159
1.80976
1.53235
1.28728
2.12106
1.80948
1.53226
1.2874
2.12059
1.80918
1.53214
1.28747
2.12023
1.80892
1.53197
1.28742
2.12002
1.80869
1.53176
1.28723
2.11998
1.80849
1.53151
1.28693
2.12012
1.80827
1.53132
1.28662
2.12018
1.80822
1.53162
1.28679
2.11939
1.81076
1.53539
1.29294
1.6954
1.447
1.22494
1.02935
1.69589
1.4448
1.2218
1.02433
1.69549
1.44457
1.22136
1.02407
1.69491
1.44438
1.22126
1.02417
1.69437
1.44408
1.22116
1.02426
1.69388
1.44376
1.22102
1.0243
1.69347
1.44345
1.22084
1.02425
1.69316
1.44317
1.22063
1.02411
1.69298
1.44291
1.22039
1.0239
1.69287
1.44266
1.22015
1.02369
1.69254
1.44237
1.21995
1.02357
1.69194
1.44204
1.21978
1.02357
1.69136
1.44169
1.21963
1.02362
1.69084
1.44135
1.21946
1.02363
1.69041
1.44103
1.21926
1.02356
1.69011
1.44075
1.21903
1.02338
1.68997
1.44052
1.21878
1.02312
1.69
1.44028
1.21859
1.02285
1.69
1.4402
1.21881
1.02298
1.68933
1.44221
1.2218
1.0279
1.35258
1.15342
0.975372
0.818617
1.35295
1.15163
0.972828
0.814575
1.35257
1.1514
0.97244
0.814338
1.35202
1.15117
0.972304
0.814372
1.35149
1.15085
0.972159
0.814393
1.35099
1.1505
0.971975
0.814373
1.35054
1.15016
0.971763
0.814296
1.35017
1.14984
0.971527
0.81415
1.3499
1.14954
0.971268
0.813944
1.3497
1.14924
0.971007
0.813733
1.3493
1.1489
0.970771
0.813593
1.34869
1.14853
0.970565
0.813542
1.34808
1.14815
0.970367
0.813532
1.34752
1.14776
0.97016
0.813503
1.34703
1.14741
0.969937
0.813415
1.34667
1.1471
0.969698
0.813247
1.34645
1.14683
0.969452
0.813014
1.3464
1.14659
0.969261
0.812787
1.34635
1.14648
0.969411
0.812882
1.34576
1.14807
0.971795
0.816813
1.07865
0.919055
0.776343
0.650736
1.07893
0.917598
0.774281
0.64748
1.07857
0.917361
0.77393
0.647255
1.07806
0.917118
0.773766
0.647232
1.07755
0.916785
0.773585
0.647193
1.07705
0.916421
0.77337
0.647126
1.07659
0.91606
0.773134
0.647023
1.07619
0.915717
0.772881
0.64687
1.07586
0.915387
0.772611
0.646667
1.07559
0.915059
0.772336
0.646454
1.07516
0.914702
0.772078
0.646293
1.07455
0.914309
0.771842
0.646201
1.07394
0.913903
0.771615
0.646146
1.07336
0.913501
0.771384
0.646084
1.07285
0.913127
0.771148
0.645984
1.07244
0.912799
0.770908
0.645827
1.07217
0.91252
0.770671
0.645624
1.07205
0.912269
0.770487
0.645431
1.07196
0.912152
0.770587
0.645501
1.07146
0.913398
0.772482
0.648643
0.85984
0.731975
0.617582
0.516911
0.860039
0.730784
0.615907
0.514284
0.859708
0.730553
0.615587
0.514066
0.859248
0.730303
0.615404
0.513995
0.858777
0.72997
0.615199
0.513909
0.858296
0.729604
0.614964
0.513805
0.857837
0.72924
0.614716
0.513682
0.85743
0.728892
0.614457
0.513524
0.857086
0.728557
0.614184
0.513325
0.856787
0.728222
0.613907
0.513112
0.856357
0.727862
0.61364
0.512936
0.855773
0.72747
0.613391
0.512815
0.855183
0.727066
0.61315
0.512727
0.854609
0.726666
0.61291
0.512641
0.854091
0.726292
0.612673
0.512534
0.853669
0.725962
0.612438
0.512388
0.853365
0.725683
0.612214
0.512211
0.853203
0.725438
0.612042
0.512048
0.853088
0.725315
0.612106