/*--------------------------------*- C++ -*----------------------------------*\
| =========                 |                                                 |
| \\      /  F ield         | foam-extend: Open Source CFD                    |
|  \\    /   O peration     | Version:     3.1                                |
|   \\  /    A nd           | Web:         http://www.extend-project.de       |
|    \\/     M anipulation  |                                                 |
\*---------------------------------------------------------------------------*/
FoamFile
{
    version     2.0;
    format      ascii;
    class       volSymmTensorField;
    location    "0.0009";
    object      sigma;
}
// * * * * * * * * * * * * * * * * * * * * * * * * * * * * * * * * * * * * * //

dimensions      [1 -1 -2 0 0 0 0];

internalField   nonuniform List<symmTensor> 
6400
(
(1015.58 -55.2623 1829.66 2244.41 45.5321 4787.39)
(194.342 -36.3032 1992.58 1008.3 59.8288 1688.03)
(-471.691 -20.885 1883.32 15.7046 55.9919 -831.478)
(-1303.61 -5.13636 1523.89 -1141.38 35.7859 -3798.6)
(1022.47 -143.586 1820.13 2222.82 212.002 4740.44)
(198.295 -95.2813 1978 991.811 231.724 1652.98)
(-472.163 -56.9883 1866.49 1.8542 219.051 -867.93)
(-1311.89 -18.5264 1504.74 -1156.89 176.614 -3851.06)
(1051.39 -235.564 1796.9 2190.01 355.327 4737.29)
(218.063 -155.677 1952.88 971.337 386.876 1651.49)
(-460.002 -92.8678 1842.93 -10.4852 365.541 -868.855)
(-1307.05 -30.0813 1486.07 -1161.26 295.055 -3851.31)
(1094.7 -321.507 1762.99 2145.03 495.834 4735.75)
(246.717 -212.539 1916.08 941.677 539.418 1650.64)
(-442.812 -126.726 1808.2 -28.1626 509.482 -869.145)
(-1301.41 -40.9739 1458.07 -1167.13 411.23 -3851.06)
(1151.12 -399.55 1718.34 2087.69 632.98 4735.06)
(284.093 -264.197 1867.56 903.795 688.399 1650.44)
(-420.43 -157.535 1762.4 -50.6986 650.053 -868.875)
(-1294.01 -50.9273 1421.11 -1174.34 524.604 -3850.25)
(1219.23 -467.786 1663.14 2019.19 766.034 4734.93)
(329.231 -309.371 1807.58 858.526 832.968 1650.66)
(-393.389 -184.494 1705.79 -77.6078 786.45 -868.284)
(-1285.05 -59.6547 1375.43 -1182.86 634.57 -3849.19)
(1297.33 -524.551 1597.69 1941.08 894.236 4735.21)
(380.995 -346.956 1736.48 806.897 972.282 1651.13)
(-362.382 -206.931 1638.69 -108.306 917.879 -867.542)
(-1274.79 -66.9295 1321.3 -1192.58 740.501 -3848.07)
(1383.5 -568.456 1522.38 1855.24 1016.83 4735.81)
(438.107 -376.022 1654.66 750.118 1105.51 1651.76)
(-328.189 -224.28 1561.5 -142.098 1043.56 -866.771)
(-1263.52 -72.5581 1259.06 -1203.31 841.776 -3847.03)
(1475.65 -598.436 1437.62 1763.74 1133.06 4736.65)
(499.179 -395.841 1562.63 689.552 1231.84 1652.44)
(-291.675 -236.093 1474.7 -178.188 1162.73 -866.086)
(-1251.54 -76.3814 1189.1 -1214.85 937.787 -3846.19)
(1571.92 -613.844 1344.02 1668.88 1242.3 4737.61)
(562.654 -405.907 1461.02 626.643 1350.55 1652.98)
(-253.833 -242.067 1378.88 -215.708 1274.7 -865.649)
(-1239.22 -78.3026 1111.91 -1226.91 1027.99 -3845.72)
(1668.88 -613.844 1242.3 1571.92 1344.02 4737.61)
(626.643 -405.906 1350.55 562.654 1461.02 1652.98)
(-215.708 -242.067 1274.7 -253.833 1378.88 -865.649)
(-1226.91 -78.3026 1027.99 -1239.22 1111.91 -3845.72)
(1763.74 -598.436 1133.06 1475.65 1437.62 4736.65)
(689.552 -395.841 1231.84 499.179 1562.63 1652.44)
(-178.188 -236.093 1162.73 -291.675 1474.7 -866.086)
(-1214.85 -76.3814 937.787 -1251.54 1189.1 -3846.19)
(1855.24 -568.456 1016.83 1383.5 1522.38 4735.81)
(750.118 -376.022 1105.51 438.108 1654.66 1651.76)
(-142.097 -224.28 1043.56 -328.189 1561.5 -866.77)
(-1203.31 -72.558 841.775 -1263.52 1259.06 -3847.03)
(1941.08 -524.551 894.236 1297.33 1597.69 4735.21)
(806.897 -346.956 972.282 380.996 1736.48 1651.13)
(-108.306 -206.931 917.879 -362.381 1638.69 -867.541)
(-1192.58 -66.9295 740.501 -1274.79 1321.3 -3848.07)
(2019.19 -467.786 766.033 1219.23 1663.14 4734.93)
(858.526 -309.371 832.967 329.232 1807.58 1650.66)
(-77.6074 -184.494 786.45 -393.388 1705.79 -868.283)
(-1182.86 -59.6546 634.569 -1285.05 1375.43 -3849.19)
(2087.69 -399.549 632.979 1151.12 1718.34 4735.06)
(903.796 -264.197 688.399 284.094 1867.56 1650.45)
(-50.6982 -157.534 650.053 -420.429 1762.41 -868.874)
(-1174.34 -50.9273 524.604 -1294.01 1421.11 -3850.25)
(2145.04 -321.507 495.834 1094.7 1762.99 4735.75)
(941.678 -212.539 539.418 246.718 1916.08 1650.64)
(-28.1622 -126.726 509.482 -442.811 1808.2 -869.144)
(-1167.13 -40.9738 411.23 -1301.41 1458.07 -3851.06)
(2190.01 -235.564 355.327 1051.39 1796.9 4737.29)
(971.338 -155.677 386.876 218.064 1952.88 1651.5)
(-10.4848 -92.8677 365.54 -460.002 1842.93 -868.855)
(-1161.26 -30.0812 295.055 -1307.05 1486.07 -3851.31)
(2222.82 -143.586 212.002 1022.47 1820.13 4740.44)
(991.812 -95.2812 231.724 198.296 1978 1652.99)
(1.85468 -56.9882 219.051 -472.162 1866.49 -867.929)
(-1156.89 -18.5264 176.614 -1311.89 1504.74 -3851.06)
(2244.41 -55.2623 45.5321 1015.59 1829.66 4787.4)
(1008.3 -36.3031 59.8287 194.343 1992.58 1688.04)
(15.7051 -20.885 55.9919 -471.69 1883.32 -831.477)
(-1141.38 -5.13635 35.7859 -1303.61 1523.89 -3798.6)
(-1167.42 -119.012 789.982 1551.94 -19.0612 1009.98)
(-667.483 -93.0374 1466.22 1464.27 18.3023 697.712)
(-337.544 -68.652 1440.47 1273.82 17.6578 90.4176)
(40.1867 -46.4896 760.106 1191.79 -18.2083 -310.273)
(-1118.11 -317.971 796.316 1540.22 93.8257 1016.4)
(-632.217 -249.533 1457.84 1445.31 172.498 690.732)
(-309.485 -188.23 1422.91 1258.13 169.002 81.46)
(65.795 -133.674 734.932 1183.08 88.8264 -312.49)
(-1053.37 -522.156 786.597 1469.96 156.115 1013.43)
(-580.166 -408.074 1439.56 1393.08 286.495 688.922)
(-269.811 -307.765 1404.93 1218.53 280.261 79.8199)
(94.6281 -219.244 725.694 1154.77 146.018 -313.517)
(-956.274 -712.769 771.802 1371.94 217.308 1012.67)
(-504.399 -557.19 1412.44 1316.55 398.503 688.294)
(-212.538 -420.177 1378.42 1160.9 389.539 79.5369)
(135.371 -299.316 711.947 1113.57 202.349 -313.514)
(-830.668 -885.877 752.214 1245.67 277.128 1012.32)
(-406.168 -692.64 1376.63 1217.86 507.971 688.246)
(-138.417 -522.348 1343.47 1086.5 496.329 79.8222)
(188.196 -372.097 693.854 1060.57 257.389 -312.897)
(-679.526 -1037.24 727.945 1094.1 335.256 1012.22)
(-287.911 -811.09 1332.36 1099.34 614.303 688.475)
(-49.1721 -611.714 1300.28 997.141 600.046 80.3757)
(251.799 -435.76 671.547 996.935 310.833 -312.028)
(-506.532 -1163.17 699.123 920.839 391.326 1012.3)
(-152.508 -909.639 1279.87 963.841 716.858 688.85)
(53.0246 -686.066 1249.12 894.955 700.07 81.0298)
(324.623 -488.727 645.157 924.172 362.37 -311.111)
(-315.874 -1260.57 665.912 730.114 444.95 1012.51)
(-3.23636 -985.856 1219.49 814.632 814.984 689.29)
(165.686 -743.553 1190.29 782.399 795.779 81.6702)
(404.877 -529.665 614.839 844.007 411.68 -310.291)
(-112.154 -1327.09 628.527 526.591 495.725 1012.8)
(156.33 -1037.83 1151.59 655.372 908.035 689.737)
(286.052 -782.708 1124.16 662.224 886.558 82.2037)
(490.555 -557.522 580.78 758.372 458.444 -309.687)
(100.652 -1361.25 587.476 315.605 543.24 1013.49)
(322.28 -1064.22 1076.71 490.024 995.412 690.122)
(411.051 -802.523 1051.18 537.448 971.843 82.534)
(579.476 -571.595 543.211 669.453 502.366 -309.37)
(315.605 -1361.25 543.24 100.652 587.476 1013.49)
(490.024 -1064.22 995.412 322.28 1076.71 690.122)
(537.448 -802.523 971.843 411.051 1051.18 82.5341)
(669.453 -571.595 502.366 579.476 543.211 -309.37)
(526.592 -1327.09 495.725 -112.153 628.527 1012.8)
(655.372 -1037.83 908.035 156.331 1151.59 689.738)
(662.225 -782.708 886.558 286.052 1124.16 82.204)
(758.372 -557.522 458.444 490.555 580.78 -309.686)
(730.115 -1260.57 444.949 -315.873 665.912 1012.51)
(814.633 -985.855 814.983 -3.23555 1219.49 689.291)
(782.399 -743.553 795.778 165.686 1190.29 81.6707)
(844.007 -529.665 411.68 404.877 614.839 -310.291)
(920.84 -1163.17 391.326 -506.53 699.123 1012.3)
(963.842 -909.638 716.857 -152.507 1279.87 688.851)
(894.955 -686.066 700.07 53.0253 1249.12 81.0304)
(924.173 -488.727 362.369 324.624 645.157 -311.11)
(1094.1 -1037.24 335.256 -679.524 727.945 1012.22)
(1099.34 -811.09 614.302 -287.909 1332.36 688.477)
(997.142 -611.713 600.045 -49.1712 1300.28 80.3765)
(996.935 -435.76 310.833 251.799 671.547 -312.028)
(1245.68 -885.876 277.128 -830.665 752.214 1012.32)
(1217.86 -692.64 507.97 -406.166 1376.63 688.247)
(1086.5 -522.348 496.329 -138.416 1343.47 79.8231)
(1060.57 -372.097 257.389 188.196 693.854 -312.896)
(1371.95 -712.768 217.307 -956.271 771.802 1012.67)
(1316.55 -557.19 398.503 -504.397 1412.44 688.296)
(1160.9 -420.177 389.539 -212.537 1378.42 79.5379)
(1113.57 -299.316 202.349 135.371 711.947 -313.514)
(1469.96 -522.155 156.115 -1053.37 786.597 1013.43)
(1393.08 -408.073 286.495 -580.164 1439.56 688.924)
(1218.53 -307.765 280.261 -269.81 1404.93 79.8211)
(1154.78 -219.244 146.018 94.6285 725.694 -313.517)
(1540.22 -317.971 93.8256 -1118.1 796.315 1016.41)
(1445.31 -249.533 172.498 -632.215 1457.84 690.734)
(1258.13 -188.23 169.002 -309.483 1422.91 81.4612)
(1183.08 -133.674 88.8264 65.7954 734.932 -312.489)
(1551.94 -119.011 -19.0612 -1167.41 789.982 1009.98)
(1464.27 -93.0373 18.3022 -667.48 1466.22 697.714)
(1273.82 -68.652 17.6577 -337.542 1440.47 90.4189)
(1191.8 -46.4896 -18.2083 40.1872 760.106 -310.273)
(-1116.71 -137.624 466.184 2145.09 -28.3727 -711.297)
(-732.785 -129.146 819.938 2297.96 -9.23753 45.6301)
(-313.42 -117.284 802.64 2449.78 -9.81563 690.142)
(30.6227 -109.164 426.843 2625.93 -29.1132 1421.25)
(-1071.61 -381.577 466.971 2117.76 53.9553 -695.511)
(-690.159 -354.777 813.91 2264.31 95.1939 55.9983)
(-275.417 -322.906 790.892 2415.23 93.1059 699.158)
(61.4043 -301.938 412.05 2586.15 49.5917 1430.24)
(-994.296 -627.107 461.104 2035.56 90.835 -696.658)
(-616.269 -580.94 803.626 2191.3 159.608 56.688)
(-207.761 -528.93 780.798 2348.68 155.861 700.001)
(125.07 -496.441 406.964 2524.6 82.4998 1431.38)
(-877.5 -856.279 452.409 1918.94 126.788 -696.644)
(-508.18 -793.366 788.38 2083.22 222.351 56.8075)
(-109.133 -722.349 765.962 2250.38 216.885 700.367)
(217.532 -678.086 399.151 2432.28 114.402 1431.83)
(-726.471 -1064.44 440.896 1767.94 161.852 -696.738)
(-368.188 -986.285 768.279 1943.29 283.465 56.9499)
(18.391 -898.016 746.404 2122.96 276.254 700.736)
(337.282 -842.993 388.883 2312.63 145.307 1432.42)
(-544.791 -1246.47 426.602 1586.25 195.936 -696.831)
(-199.766 -1154.98 743.444 1774.91 342.766 57.1373)
(171.813 -1051.61 722.283 1969.62 333.809 701.183)
(481.366 -987.156 376.283 2168.65 175.18 1433.14)
(-336.882 -1397.93 409.588 1378.3 228.851 -696.904)
(-6.99846 -1295.33 714.025 1582.18 399.952 57.3572)
(347.418 -1179.37 693.76 1794.11 389.273 701.665)
(646.27 -1107.04 361.443 2003.9 203.917 1433.89)
(-107.768 -1515.1 389.952 1149.18 260.345 -696.931)
(205.464 -1403.88 680.204 1369.82 454.662 57.5916)
(540.945 -1278.14 661.015 1600.73 442.323 702.124)
(827.951 -1199.69 344.457 1822.38 231.374 1434.57)
(137.038 -1595.11 367.855 904.546 290.121 -696.888)
(432.537 -1477.91 642.222 1143.04 506.516 57.8423)
(747.673 -1345.43 624.269 1394.2 492.621 702.501)
(1021.92 -1262.76 325.439 1628.52 257.389 1435.08)
(392.524 -1636.12 343.715 650.766 317.878 -696.383)
(668.666 -1515.49 600.435 907.499 555.163 58.1051)
(962.412 -1379.51 583.796 1179.69 539.852 702.739)
(1223.32 -1294.67 304.518 1427.16 281.807 1435.35)
(650.766 -1636.12 317.877 392.525 343.715 -696.382)
(907.5 -1515.49 555.162 668.666 600.435 58.1053)
(1179.69 -1379.51 539.852 962.412 583.796 702.739)
(1427.16 -1294.67 281.807 1223.32 304.518 1435.35)
(904.548 -1595.11 290.12 137.039 367.855 -696.887)
(1143.04 -1477.91 506.516 432.538 642.222 57.8428)
(1394.2 -1345.43 492.62 747.673 624.269 702.501)
(1628.52 -1262.76 257.389 1021.92 325.439 1435.08)
(1149.18 -1515.1 260.344 -107.766 389.953 -696.929)
(1369.82 -1403.88 454.662 205.466 680.204 57.5925)
(1600.73 -1278.14 442.323 540.946 661.016 702.124)
(1822.38 -1199.69 231.374 827.952 344.457 1434.58)
(1378.3 -1397.93 228.851 -336.879 409.588 -696.902)
(1582.19 -1295.33 399.951 -6.99639 714.025 57.3585)
(1794.12 -1179.37 389.273 347.419 693.76 701.666)
(2003.9 -1107.04 203.917 646.27 361.443 1433.89)
(1586.26 -1246.47 195.936 -544.787 426.602 -696.828)
(1774.91 -1154.98 342.766 -199.764 743.444 57.1389)
(1969.62 -1051.61 333.809 171.815 722.283 701.184)
(2168.65 -987.156 175.18 481.367 376.283 1433.14)
(1767.94 -1064.44 161.852 -726.466 440.896 -696.736)
(1943.29 -986.285 283.465 -368.184 768.279 56.9518)
(2122.96 -898.016 276.254 18.3928 746.404 700.737)
(2312.63 -842.993 145.307 337.283 388.883 1432.42)
(1918.94 -856.278 126.788 -877.494 452.408 -696.641)
(2083.22 -793.365 222.351 -508.176 788.38 56.8095)
(2250.38 -722.349 216.884 -109.131 765.962 700.368)
(2432.28 -678.086 114.402 217.532 399.151 1431.83)
(2035.57 -627.106 90.8347 -994.29 461.104 -696.655)
(2191.3 -580.94 159.608 -616.265 803.626 56.6902)
(2348.68 -528.929 155.861 -207.758 780.798 700.002)
(2524.6 -496.441 82.4997 125.071 406.964 1431.38)
(2117.76 -381.576 53.9552 -1071.6 466.971 -695.508)
(2264.31 -354.777 95.1938 -690.155 813.909 56.0006)
(2415.23 -322.906 93.1058 -275.415 790.892 699.159)
(2586.15 -301.938 49.5916 61.4051 412.05 1430.24)
(2145.1 -137.624 -28.3728 -1116.7 466.184 -711.293)
(2297.96 -129.146 -9.23759 -732.78 819.937 45.6325)
(2449.78 -117.284 -9.81568 -313.418 802.64 690.144)
(2625.93 -109.164 -29.1132 30.6236 426.843 1421.25)
(-1023.19 -155.208 195.499 2716.82 -23.0384 -1601.42)
(-673.818 -154.726 339.362 2998.71 -15.25 -262.915)
(-302.176 -151.58 329.39 3275.71 -15.5741 988.544)
(15.144 -150.133 172.722 3568.97 -23.3811 2297.22)
(-975.634 -437.577 194.87 2679.68 21.4132 -1579.58)
(-627.595 -430.082 335.748 2954.56 38.4656 -244.887)
(-259.064 -418.483 323.517 3227.72 37.6339 1005.3)
(52.6769 -413.337 165.735 3510.57 19.9805 2312.19)
(-886.939 -719.068 192.37 2586.62 36.6735 -1579.57)
(-538.973 -704.723 331.329 2865.59 65.1374 -243.442)
(-172.514 -685.734 319.258 3140.89 63.6021 1006.83)
(139.523 -680.06 163.604 3426.33 33.6423 2314.47)
(-752.977 -981.994 188.691 2453.43 51.5965 -1578.87)
(-407.82 -962.454 324.848 2734.63 91.0603 -242.734)
(-44.6509 -936.553 312.98 3013.38 88.731 1007.69)
(266.157 -928.973 160.278 3299.75 46.7573 2315.3)
(-579.661 -1220.86 183.818 2280.75 66.1865 -1578.62)
(-237.903 -1196.49 316.35 2565.12 116.231 -242.349)
(120.75 -1164.27 304.736 2848.22 113.03 1008.17)
(430.236 -1154.84 155.937 3135.74 59.2864 2315.88)
(-371.19 -1429.79 177.733 2072.77 80.4239 -1578.6)
(-33.5377 -1401.13 305.885 2361.09 140.615 -242.135)
(319.675 -1363.31 294.631 2649.5 136.483 1008.53)
(627.609 -1352.23 150.688 2938.44 71.2483 2316.4)
(-132.653 -1603.65 170.443 1834.52 94.2302 -1578.7)
(200.306 -1571.37 293.525 2127.49 164.111 -242.005)
(547.293 -1528.85 282.764 2422.07 159.013 1008.85)
(853.453 -1516.34 144.603 2712.72 82.641 2316.93)
(130.176 -1738.15 161.986 1571.86 107.466 -1578.86)
(457.981 -1703.03 279.365 1870.02 186.572 -241.909)
(798.081 -1656.81 269.235 2171.47 180.509 1009.13)
(1102.24 -1643.15 137.745 2464.09 93.4387 2317.41)
(410.96 -1830.01 152.462 1291.25 119.943 -1578.99)
(733.311 -1792.82 263.543 1595 207.825 -241.799)
(1065.93 -1743.99 254.164 1903.83 200.846 1009.36)
(1367.85 -1729.49 130.179 2198.61 103.605 2317.79)
(703.784 -1876.99 142.204 999.943 131.463 -1578.64)
(1019.59 -1838.4 246.276 1309.26 227.722 -241.634)
(1344.19 -1788.15 237.693 1625.8 219.917 1009.52)
(1643.66 -1773.18 121.961 1922.86 113.11 2317.99)
(999.944 -1876.99 131.463 703.784 142.205 -1578.64)
(1309.26 -1838.4 227.722 1019.59 246.277 -241.634)
(1625.8 -1788.15 219.917 1344.19 237.693 1009.52)
(1922.86 -1773.18 113.11 1643.66 121.961 2317.99)
(1291.25 -1830 119.943 410.962 152.462 -1578.98)
(1595 -1792.82 207.825 733.312 263.543 -241.799)
(1903.83 -1743.99 200.845 1065.93 254.164 1009.37)
(2198.61 -1729.49 103.604 1367.85 130.179 2317.79)
(1571.86 -1738.15 107.466 130.179 161.986 -1578.86)
(1870.03 -1703.03 186.572 457.983 279.365 -241.908)
(2171.47 -1656.81 180.509 798.082 269.235 1009.13)
(2464.09 -1643.15 93.4386 1102.24 137.745 2317.41)
(1834.53 -1603.65 94.2297 -132.649 170.443 -1578.7)
(2127.5 -1571.37 164.111 200.308 293.525 -242.003)
(2422.07 -1528.85 159.013 547.294 282.764 1008.85)
(2712.72 -1516.34 82.6409 853.453 144.603 2316.93)
(2072.77 -1429.79 80.4234 -371.184 177.733 -1578.59)
(2361.09 -1401.13 140.614 -33.534 305.885 -242.133)
(2649.5 -1363.31 136.483 319.677 294.631 1008.53)
(2938.44 -1352.23 71.2482 627.61 150.688 2316.4)
(2280.75 -1220.86 66.1861 -579.654 183.818 -1578.62)
(2565.12 -1196.49 116.23 -237.898 316.35 -242.347)
(2848.23 -1164.27 113.03 120.753 304.736 1008.17)
(3135.74 -1154.84 59.2863 430.236 155.937 2315.88)
(2453.43 -981.992 51.5962 -752.968 188.691 -1578.87)
(2734.63 -962.453 91.0601 -407.815 324.848 -242.732)
(3013.38 -936.552 88.7308 -44.6482 312.98 1007.69)
(3299.75 -928.973 46.7572 266.157 160.278 2315.3)
(2586.62 -719.067 36.6733 -886.93 192.37 -1579.57)
(2865.59 -704.722 65.1372 -538.967 331.329 -243.44)
(3140.89 -685.734 63.6019 -172.511 319.258 1006.84)
(3426.33 -680.06 33.6422 139.524 163.604 2314.47)
(2679.68 -437.576 21.413 -975.625 194.869 -1579.58)
(2954.56 -430.082 38.4654 -627.589 335.747 -244.884)
(3227.73 -418.482 37.6338 -259.06 323.517 1005.3)
(3510.57 -413.337 19.9805 52.6778 165.735 2312.19)
(2716.83 -155.208 -23.0385 -1023.18 195.499 -1601.42)
(2998.71 -154.726 -15.25 -673.812 339.362 -262.912)
(3275.71 -151.58 -15.5742 -302.172 329.39 988.546)
(3568.97 -150.133 -23.3811 15.145 172.722 2297.22)
(-918.466 -164.473 -24.5385 3065.9 -10.0452 -1816.45)
(-605.408 -166.584 -33.2985 3362.84 -10.5014 -336.698)
(-280.088 -166.433 -33.2809 3653.34 -10.4319 1068.25)
(4.51951 -166.962 -24.7287 3957.32 -9.74561 2512.33)
(-869.007 -466.383 -25.3079 3024.71 -4.44855 -1793.24)
(-557.273 -465.077 -34.0443 3314.36 -4.90636 -316.907)
(-234.593 -460.389 -33.9463 3599.92 -4.3557 1086.61)
(45.2654 -459.81 -25.1561 3891.67 -2.69749 2528.08)
(-774.328 -766.293 -25.0149 2926.13 -6.91714 -1792.76)
(-461.737 -762.09 -33.8711 3217.95 -7.73283 -315.436)
(-139.736 -754.42 -33.8038 3504 -6.88389 1087.98)
(141.793 -756.552 -25.0684 3797.64 -4.26532 2530.31)
(-631.46 -1046.5 -24.605 2784.55 -9.17087 -1791.57)
(-319.826 -1040.7 -33.5687 3076.32 -10.4995 -314.525)
(0.97342 -1030.28 -33.5699 3363.45 -9.44896 1088.8)
(282.659 -1033.39 -24.9396 3656.43 -5.92247 2530.9)
(-446.597 -1301.11 -24.1209 2600.9 -11.2427 -1790.9)
(-135.979 -1293.67 -33.1317 2893.11 -13.2312 -314)
(182.981 -1280.64 -33.202 3181.61 -12.0828 1089.16)
(465.159 -1284.48 -24.7048 3473.63 -7.72059 2531.1)
(-224.254 -1523.84 -23.6018 2379.65 -13.1314 -1790.55)
(85.0744 -1514.82 -32.5522 2672.66 -15.9102 -313.736)
(401.801 -1499.4 -32.6515 2962.94 -14.7637 1089.3)
(684.633 -1503.83 -24.2995 3253.89 -9.65357 2531.14)
(30.1256 -1709.21 -23.0747 2126.11 -14.848 -1790.44)
(337.935 -1698.77 -31.8083 2420.28 -18.5208 -313.618)
(652.098 -1681.27 -31.8687 2712.78 -17.4628 1089.37)
(935.701 -1686.12 -23.6659 3002.64 -11.6954 2531.18)
(310.362 -1852.63 -22.5421 1846.46 -16.4388 -1790.47)
(616.476 -1841.01 -30.8598 2142.13 -21.0598 -313.57)
(927.787 -1821.81 -30.7973 2437.24 -20.1498 1089.42)
(1212.22 -1826.93 -22.7494 2726.03 -13.81 2531.25)
(609.664 -1950.55 -21.9541 1547.57 -17.9923 -1790.55)
(914.001 -1937.99 -29.6329 1845 -23.5293 -313.523)
(1222.16 -1917.54 -29.3724 2143.04 -22.7839 1089.47)
(1507.39 -1922.78 -21.5034 2430.82 -15.9445 2531.33)
(921.584 -2000.59 -21.0382 1237.11 -19.6067 -1790.25)
(1223.28 -1987.21 -27.994 1536.25 -25.8983 -313.412)
(1527.94 -1966.02 -27.5318 1837.44 -25.291 1089.52)
(1813.93 -1971.29 -19.9099 2124.27 -18.0176 2531.38)
(1237.11 -2000.59 -19.607 921.584 -21.0379 -1790.25)
(1536.25 -1987.21 -25.8986 1223.28 -27.9937 -313.412)
(1837.44 -1966.02 -25.2911 1527.94 -27.5316 1089.52)
(2124.27 -1971.29 -18.0177 1813.93 -19.9098 2531.39)
(1547.57 -1950.55 -17.9927 609.666 -21.9539 -1790.55)
(1845.01 -1937.99 -23.5296 914.002 -29.6327 -313.522)
(2143.04 -1917.54 -22.7841 1222.16 -29.3723 1089.47)
(2430.82 -1922.78 -15.9446 1507.39 -21.5034 2531.33)
(1846.46 -1852.62 -16.4392 310.366 -22.542 -1790.47)
(2142.13 -1841.01 -21.0601 616.479 -30.8597 -313.569)
(2437.24 -1821.81 -20.15 927.788 -30.7972 1089.42)
(2726.03 -1826.93 -13.8101 1212.22 -22.7494 2531.25)
(2126.11 -1709.2 -14.8484 30.1311 -23.0746 -1790.44)
(2420.28 -1698.77 -18.5211 337.938 -31.8082 -313.616)
(2712.78 -1681.27 -17.463 652.1 -31.8687 1089.37)
(3002.64 -1686.12 -11.6955 935.702 -23.6659 2531.18)
(2379.66 -1523.84 -13.1318 -224.246 -23.6018 -1790.55)
(2672.66 -1514.82 -15.9105 85.0788 -32.5522 -313.734)
(2962.94 -1499.4 -14.7639 401.804 -32.6515 1089.3)
(3253.89 -1503.83 -9.65367 684.634 -24.2995 2531.14)
(2600.91 -1301.11 -11.243 -446.588 -24.121 -1790.89)
(2893.11 -1293.67 -13.2314 -135.974 -33.1318 -313.998)
(3181.61 -1280.64 -12.083 182.984 -33.2021 1089.16)
(3473.64 -1284.48 -7.7207 465.159 -24.7048 2531.1)
(2784.55 -1046.5 -9.17111 -631.45 -24.6051 -1791.56)
(3076.32 -1040.7 -10.4997 -319.82 -33.5688 -314.522)
(3363.46 -1030.28 -9.44912 0.976629 -33.57 1088.8)
(3656.43 -1033.39 -5.92259 282.66 -24.9397 2530.9)
(2926.13 -766.292 -6.91731 -774.317 -25.0151 -1792.76)
(3217.95 -762.089 -7.73299 -461.73 -33.8713 -315.433)
(3504 -754.419 -6.88403 -139.732 -33.8039 1087.98)
(3797.64 -756.552 -4.26543 141.794 -25.0685 2530.31)
(3024.72 -466.382 -4.44866 -868.995 -25.3081 -1793.24)
(3314.36 -465.077 -4.90646 -557.265 -34.0446 -316.904)
(3599.92 -460.389 -4.35579 -234.589 -33.9464 1086.61)
(3891.67 -459.81 -2.69757 45.2665 -25.1562 2528.08)
(3065.9 -164.473 -10.0453 -918.454 -24.5388 -1816.45)
(3362.84 -166.583 -10.5015 -605.401 -33.2987 -336.695)
(3653.34 -166.433 -10.4319 -280.084 -33.2811 1068.25)
(3957.32 -166.962 -9.74564 4.52071 -24.7288 2512.34)
(-784.008 -161.687 -202.278 3129.95 4.1484 -1488.72)
(-517.236 -162.502 -322.176 3353.2 -2.43223 -228.389)
(-248.315 -161.609 -313.391 3572.87 -2.07792 974.348)
(-8.71298 -160.855 -182.888 3805.75 4.77656 2201.48)
(-734.758 -458.388 -202.66 3090.56 -24.8389 -1468.14)
(-470.234 -454.063 -320.21 3306.47 -38.1962 -211.291)
(-204.087 -447.667 -309.672 3521.41 -36.6019 989.793)
(31.2525 -443.942 -177.987 3743 -20.8419 2213.98)
(-641.476 -753.138 -200.131 2993.95 -41.4889 -1467.59)
(-376.881 -743.909 -316.437 3212.36 -63.8065 -210.157)
(-111.837 -733.401 -306.082 3427.91 -61.1271 990.55)
(124.489 -730.214 -176.077 3651.75 -34.6715 2215.35)
(-500.854 -1028.53 -196.426 2855.09 -57.5535 -1466.08)
(-238.206 -1015.74 -310.832 3074.09 -88.7783 -209.332)
(25.018 -1001.4 -300.757 3291 -85.0946 990.937)
(260.429 -997.234 -173.117 3514.94 -48.2402 2215.15)
(-318.886 -1278.78 -191.625 2674.95 -73.0592 -1464.93)
(-58.5783 -1262.49 -303.433 2895.29 -113.107 -208.785)
(201.995 -1244.52 -293.682 3113.98 -108.52 990.907)
(436.486 -1239.3 -169.158 3337.99 -61.552 2214.53)
(-100.024 -1497.69 -185.785 2457.94 -87.9825 -1464.03)
(157.343 -1478.15 -294.276 2680.24 -136.735 -208.46)
(414.685 -1456.85 -284.872 2901.25 -131.352 990.666)
(648.133 -1450.62 -164.189 3125.46 -74.6045 2213.72)
(150.35 -1679.88 -178.954 2209.25 -102.279 -1463.37)
(404.24 -1657.44 -283.381 2434.15 -159.566 -208.277)
(657.859 -1633.26 -274.322 2658.07 -153.495 990.355)
(890.149 -1626.12 -158.175 2882.65 -87.3652 2212.91)
(426.112 -1820.84 -171.165 1934.92 -115.913 -1462.9)
(676.081 -1795.99 -270.747 2163.04 -181.482 -208.173)
(925.568 -1769.48 -262.007 2390.39 -174.821 990.069)
(1156.6 -1761.57 -151.066 2615.58 -99.7669 2212.24)
(720.508 -1917.05 -162.402 1641.65 -128.871 -1462.62)
(966.273 -1890.41 -256.338 1873.51 -202.35 -208.088)
(1211.28 -1862.2 -247.894 2104.77 -195.166 989.869)
(1440.95 -1853.71 -142.818 2330.78 -111.698 2211.76)
(1027 -1966.16 -152.444 1336.84 -141.15 -1462.18)
(1267.73 -1938.3 -240.073 1572.69 -221.983 -207.973)
(1507.95 -1909.13 -231.965 1808.22 -214.307 989.782)
(1736.23 -1900.31 -133.428 2035.25 -122.99 2211.51)
(1336.85 -1966.16 -141.15 1027 -152.444 -1462.18)
(1572.69 -1938.3 -221.984 1267.73 -240.073 -207.973)
(1808.22 -1909.13 -214.307 1507.95 -231.965 989.782)
(2035.25 -1900.31 -122.99 1736.23 -133.428 2211.51)
(1641.65 -1917.05 -128.872 720.51 -162.402 -1462.62)
(1873.52 -1890.41 -202.35 966.274 -256.338 -208.088)
(2104.77 -1862.2 -195.166 1211.28 -247.894 989.869)
(2330.78 -1853.71 -111.698 1440.95 -142.818 2211.76)
(1934.93 -1820.83 -115.913 426.116 -171.164 -1462.9)
(2163.04 -1795.99 -181.482 676.084 -270.747 -208.171)
(2390.39 -1769.48 -174.821 925.57 -262.007 990.07)
(2615.58 -1761.57 -99.767 1156.6 -151.066 2212.24)
(2209.25 -1679.88 -102.28 150.356 -178.954 -1463.36)
(2434.16 -1657.43 -159.566 404.243 -283.381 -208.275)
(2658.07 -1633.26 -153.495 657.861 -274.322 990.356)
(2882.65 -1626.12 -87.3653 890.15 -158.175 2212.91)
(2457.94 -1497.69 -87.9827 -100.016 -185.785 -1464.03)
(2680.24 -1478.14 -136.735 157.347 -294.276 -208.458)
(2901.26 -1456.85 -131.352 414.688 -284.872 990.667)
(3125.46 -1450.62 -74.6046 648.133 -164.189 2213.72)
(2674.96 -1278.77 -73.0594 -318.876 -191.625 -1464.93)
(2895.3 -1262.49 -113.107 -58.5726 -303.433 -208.782)
(3113.98 -1244.52 -108.521 201.998 -293.682 990.909)
(3337.99 -1239.3 -61.5521 436.486 -169.158 2214.53)
(2855.09 -1028.53 -57.5536 -500.843 -196.426 -1466.08)
(3074.09 -1015.74 -88.7784 -238.2 -310.832 -209.329)
(3291 -1001.4 -85.0947 25.0215 -300.757 990.939)
(3514.94 -997.234 -48.2403 260.43 -173.117 2215.15)
(2993.96 -753.136 -41.489 -641.464 -200.131 -1467.59)
(3212.36 -743.908 -63.8066 -376.874 -316.437 -210.154)
(3427.92 -733.4 -61.1272 -111.833 -306.082 990.551)
(3651.75 -730.214 -34.6715 124.49 -176.077 2215.35)
(3090.56 -458.387 -24.8389 -734.746 -202.66 -1468.13)
(3306.47 -454.062 -38.1963 -470.227 -320.21 -211.288)
(3521.41 -447.667 -36.602 -204.083 -309.673 989.795)
(3743 -443.942 -20.842 31.2538 -177.987 2213.98)
(3129.96 -161.686 4.14838 -783.995 -202.278 -1488.72)
(3353.21 -162.502 -2.43225 -517.228 -322.176 -228.386)
(3572.88 -161.609 -2.07794 -248.311 -313.391 974.35)
(3805.75 -160.855 4.77654 -8.71168 -182.888 2201.48)
(-605.557 -147.348 -308.734 2944.54 15.7758 -765.164)
(-403.134 -144.443 -490.682 3028.47 5.64918 9.37682)
(-209.532 -140.695 -476.81 3117.01 6.08288 757.423)
(-34.2322 -136.715 -278.27 3217.73 16.2705 1510.16)
(-559.182 -415.978 -308.561 2911.4 -36.481 -750.481)
(-360.542 -403.044 -486.757 2988.3 -57.2817 20.5641)
(-170.125 -390.183 -470.199 3073.19 -55.2866 766.783)
(1.37667 -378.768 -269.991 3165.47 -31.8823 1516.43)
(-474.299 -683.523 -304.698 2823.77 -61.339 -750.207)
(-277.454 -660.126 -480.79 2904.87 -95.9858 21.1358)
(-89.5594 -638.94 -464.472 2991.55 -92.5483 766.734)
(81.048 -622.629 -266.878 3087.05 -53.1273 1516.61)
(-346.434 -933.479 -299.004 2697.94 -85.4719 -748.632)
(-154.233 -901.228 -471.963 2782.15 -133.752 21.6766)
(29.7407 -872.223 -456.014 2871.98 -128.912 766.519)
(196.937 -850.083 -262.074 2969.84 -73.8926 1515.49)
(-180.93 -1160.59 -291.579 2534.76 -108.89 -747.102)
(5.38893 -1120.02 -460.349 2623.49 -170.536 22.1433)
(183.985 -1083.76 -444.84 2717.47 -164.359 766.016)
(346.952 -1056.16 -255.718 2818.37 -94.1229 1513.96)
(18.1721 -1359.26 -282.485 2338.23 -131.55 -745.628)
(197.236 -1311.14 -446.024 2432.75 -206.247 22.5058)
(369.288 -1268.37 -431.027 2531.93 -198.809 765.356)
(527.202 -1235.91 -247.857 2636.6 -113.804 1512.24)
(245.945 -1524.56 -271.781 2113.09 -153.37 -744.282)
(416.522 -1469.92 -429.048 2214.63 -240.744 22.7889)
(581.032 -1421.6 -414.618 2320 -232.133 764.659)
(733.195 -1385.02 -238.49 2429.14 -132.9 1510.51)
(496.76 -1652.41 -259.517 1864.8 -174.255 -743.135)
(657.812 -1592.51 -409.457 1974.5 -273.852 23.0145)
(813.972 -1539.77 -395.629 2086.97 -264.159 764.031)
(959.845 -1499.95 -227.592 2201.2 -151.339 1508.99)
(764.358 -1739.63 -245.706 1599.36 -194.118 -742.269)
(915.151 -1675.95 -387.255 1718.23 -305.36 23.205)
(1062.37 -1620.1 -374.061 1838.57 -294.667 763.567)
(1201.6 -1578.01 -215.132 1958.46 -168.994 1507.84)
(1042.52 -1784.08 -230.187 1323.33 -212.873 -741.552)
(1182.17 -1718.22 -362.41 1452.06 -335.003 23.3709)
(1320.12 -1660.72 -349.932 1580.91 -323.371 763.333)
(1452.61 -1617.45 -201.122 1706.89 -185.67 1507.22)
(1323.33 -1784.08 -212.874 1042.52 -230.187 -741.551)
(1452.06 -1718.22 -335.003 1182.17 -362.41 23.3712)
(1580.91 -1660.72 -323.371 1320.12 -349.932 763.334)
(1706.9 -1617.45 -185.67 1452.61 -201.122 1507.22)
(1599.37 -1739.63 -194.118 764.36 -245.706 -742.268)
(1718.23 -1675.95 -305.36 915.152 -387.255 23.2058)
(1838.58 -1620.1 -294.667 1062.37 -374.061 763.567)
(1958.46 -1578.01 -168.994 1201.6 -215.132 1507.84)
(1864.8 -1652.41 -174.255 496.764 -259.517 -743.133)
(1974.5 -1592.51 -273.852 657.815 -409.457 23.0157)
(2086.97 -1539.77 -264.159 813.974 -395.629 764.032)
(2201.21 -1499.95 -151.339 959.845 -227.592 1508.99)
(2113.09 -1524.56 -153.37 245.951 -271.781 -744.28)
(2214.63 -1469.92 -240.744 416.526 -429.048 22.7906)
(2320 -1421.6 -232.133 581.034 -414.617 764.66)
(2429.14 -1385.02 -132.9 733.196 -238.49 1510.51)
(2338.23 -1359.25 -131.55 18.1798 -282.485 -745.625)
(2432.75 -1311.14 -206.247 197.24 -446.024 22.5078)
(2531.93 -1268.37 -198.809 369.291 -431.027 765.358)
(2636.6 -1235.91 -113.804 527.203 -247.857 1512.24)
(2534.76 -1160.59 -108.89 -180.92 -291.579 -747.099)
(2623.49 -1120.02 -170.536 5.39466 -460.348 22.1456)
(2717.47 -1083.76 -164.359 183.988 -444.84 766.017)
(2818.37 -1056.16 -94.123 346.953 -255.718 1513.97)
(2697.95 -933.477 -85.4719 -346.424 -299.004 -748.628)
(2782.15 -901.227 -133.752 -154.226 -471.963 21.6792)
(2871.99 -872.223 -128.912 29.7442 -456.014 766.52)
(2969.84 -850.083 -73.8927 196.938 -262.074 1515.49)
(2823.78 -683.522 -61.339 -474.287 -304.698 -750.203)
(2904.88 -660.125 -95.9858 -277.446 -480.79 21.1386)
(2991.55 -638.94 -92.5484 -89.5555 -464.472 766.736)
(3087.06 -622.629 -53.1274 81.0491 -266.878 1516.61)
(2911.4 -415.977 -36.481 -559.17 -308.561 -750.476)
(2988.31 -403.043 -57.2818 -360.534 -486.757 20.5671)
(3073.2 -390.183 -55.2866 -170.12 -470.199 766.785)
(3165.47 -378.768 -31.8824 1.37791 -269.991 1516.44)
(2944.55 -147.347 15.7758 -605.544 -308.734 -765.159)
(3028.47 -144.443 5.64917 -403.126 -490.682 9.37985)
(3117.01 -140.695 6.08287 -209.528 -476.81 757.425)