/*--------------------------------*- C++ -*----------------------------------*\
| =========                 |                                                 |
| \\      /  F ield         | foam-extend: Open Source CFD                    |
|  \\    /   O peration     | Version:     3.1                                |
|   \\  /    A nd           | Web:         http://www.extend-project.de       |
|    \\/     M anipulation  |                                                 |
\*---------------------------------------------------------------------------*/
FoamFile
{
    version     2.0;
    format      ascii;
    class       volVectorField;
    location    "0.0009";
    object      U;
}
// * * * * * * * * * * * * * * * * * * * * * * * * * * * * * * * * * * * * * //

dimensions      [0 1 -1 0 0 0 0];

internalField   nonuniform List<vector> 
6400
(
(0.00145268 3.8441e-05 0.00301906)
(0.000787145 1.56127e-05 0.0010826)
(0.000688436 1.11191e-05 -0.000561124)
(0.00111736 2.41462e-05 -0.00240091)
(0.00143511 0.000159755 0.0030249)
(0.000777919 8.34336e-05 0.00108973)
(0.000683356 7.19709e-05 -0.000553725)
(0.00111455 0.000121406 -0.00239414)
(0.00141679 0.000277164 0.00302488)
(0.00076822 0.000148011 0.00109027)
(0.000675342 0.000128788 -0.000553308)
(0.00110174 0.000212302 -0.00239448)
(0.00139068 0.000390967 0.0030249)
(0.000754597 0.000210699 0.00108998)
(0.000663754 0.000183916 -0.000553927)
(0.00108254 0.00030062 -0.00239575)
(0.0013559 0.000500947 0.00302531)
(0.00073609 0.000271214 0.00108982)
(0.000647797 0.000237331 -0.000554543)
(0.00105633 0.000386646 -0.00239705)
(0.00131245 0.000606701 0.00302591)
(0.000712591 0.000329208 0.00108984)
(0.00062729 0.000288679 -0.000554997)
(0.00102295 0.000469872 -0.00239814)
(0.00126062 0.000707812 0.00302654)
(0.000684298 0.000384389 0.00108999)
(0.000602407 0.000337594 -0.000555275)
(0.000982643 0.000549654 -0.00239892)
(0.00120083 0.000803893 0.0030271)
(0.000651535 0.000436524 0.0010902)
(0.000573478 0.000383768 -0.000555395)
(0.000935853 0.000625382 -0.00239936)
(0.00113366 0.000894669 0.00302754)
(0.000614768 0.000485522 0.00109044)
(0.000540993 0.000427057 -0.000555397)
(0.000883235 0.000696636 -0.00239954)
(0.00105982 0.000980009 0.00302786)
(0.000574586 0.000531482 0.00109061)
(0.000505542 0.00046757 -0.000555355)
(0.000825538 0.000763318 -0.00239957)
(0.000979993 0.00105982 0.00302786)
(0.000531465 0.000574593 0.00109061)
(0.000467554 0.00050555 -0.000555354)
(0.000763302 0.000825546 -0.00239957)
(0.000894644 0.00113365 0.00302754)
(0.000485498 0.000614764 0.00109044)
(0.000427034 0.000540991 -0.000555393)
(0.000696614 0.000883234 -0.00239953)
(0.000803862 0.00120081 0.00302709)
(0.000436495 0.00065152 0.00109021)
(0.000383741 0.000573467 -0.000555388)
(0.000625355 0.000935844 -0.00239935)
(0.000707778 0.00126058 0.00302654)
(0.000384357 0.000684271 0.00109)
(0.000337565 0.000602386 -0.000555267)
(0.000549625 0.000982624 -0.0023989)
(0.000606666 0.0013124 0.00302591)
(0.000329176 0.000712552 0.00108985)
(0.00028865 0.000627259 -0.000554986)
(0.000469843 0.00102292 -0.00239812)
(0.000500914 0.00135584 0.00302531)
(0.000271184 0.000736041 0.00108983)
(0.000237304 0.000647756 -0.00055453)
(0.000386619 0.0010563 -0.00239703)
(0.000390939 0.00139061 0.0030249)
(0.000210674 0.000754539 0.00108999)
(0.000183893 0.000663705 -0.000553913)
(0.000300597 0.00108249 -0.00239573)
(0.000277143 0.00141671 0.00302487)
(0.000147992 0.000768156 0.00109028)
(0.00012877 0.000675287 -0.000553293)
(0.000212284 0.00110169 -0.00239446)
(0.000159742 0.00143502 0.0030249)
(8.34218e-05 0.000777851 0.00108974)
(7.196e-05 0.000683297 -0.000553709)
(0.000121395 0.0011145 -0.00239412)
(3.84364e-05 0.00145259 0.00301906)
(1.56086e-05 0.000787075 0.00108261)
(1.11154e-05 0.000688375 -0.000561107)
(2.41426e-05 0.0011173 -0.00240089)
(0.0129517 0.000492197 0.00854613)
(0.0120557 0.000461174 0.00323449)
(0.0117204 0.00044799 -0.00178066)
(0.0119183 0.000453364 -0.00693646)
(0.0128605 0.00151213 0.00854239)
(0.011975 0.0014088 0.00323074)
(0.0116473 0.00136952 -0.0017847)
(0.0118497 0.00139151 -0.00694057)
(0.0127022 0.00252404 0.00854064)
(0.0118287 0.00234894 0.0032286)
(0.0115064 0.00228298 -0.00178732)
(0.0117076 0.00232037 -0.00694381)
(0.0124687 0.00351943 0.00854077)
(0.0116124 0.00327525 0.0032276)
(0.0112967 0.0031834 -0.00178926)
(0.0114947 0.00323596 -0.00694691)
(0.0121586 0.00449175 0.00854221)
(0.0113244 0.00418101 0.00322753)
(0.0110172 0.0040645 -0.0017906)
(0.0112106 0.00413241 -0.00694976)
(0.0117727 0.00543478 0.00854435)
(0.0109655 0.00506002 0.0032281)
(0.0106684 0.00492011 -0.00179144)
(0.0108559 0.00500343 -0.00695215)
(0.0113129 0.00634267 0.00854671)
(0.0105374 0.00590649 0.00322901)
(0.0102521 0.00574435 -0.00179183)
(0.0104322 0.00584285 -0.00695396)
(0.010782 0.00720994 0.00854891)
(0.0100429 0.00671505 0.00323006)
(0.00977092 0.00653176 -0.00179188)
(0.00994243 0.00664488 -0.0069551)
(0.0101839 0.00803175 0.0085507)
(0.0094856 0.00748098 0.00323103)
(0.00922855 0.00727754 -0.0017917)
(0.00939039 0.00740442 -0.00695566)
(0.00952283 0.00880394 0.00855182)
(0.00886986 0.00820038 0.00323168)
(0.00862936 0.00797783 -0.00179149)
(0.00878056 0.00811741 -0.00695583)
(0.0088039 0.00952284 0.00855182)
(0.00820034 0.00886988 0.00323168)
(0.00797778 0.00862938 -0.00179149)
(0.00811736 0.00878058 -0.00695583)
(0.00803168 0.0101838 0.0085507)
(0.00748092 0.00948559 0.00323104)
(0.00727748 0.00922855 -0.00179169)
(0.00740436 0.00939039 -0.00695565)
(0.00720986 0.010782 0.00854892)
(0.00671497 0.0100429 0.00323007)
(0.00653168 0.0097709 -0.00179186)
(0.00664481 0.00994241 -0.00695509)
(0.00634258 0.0113128 0.00854672)
(0.0059064 0.0105374 0.00322903)
(0.00574428 0.010252 -0.00179182)
(0.00584278 0.0104321 -0.00695394)
(0.00543469 0.0117726 0.00854437)
(0.00505993 0.0109654 0.00322812)
(0.00492004 0.0106684 -0.00179142)
(0.00500336 0.0108558 -0.00695213)
(0.00449166 0.0121585 0.00854223)
(0.00418093 0.0113243 0.00322756)
(0.00406443 0.0110171 -0.00179058)
(0.00413234 0.0112106 -0.00694973)
(0.00351935 0.0124685 0.0085408)
(0.00327518 0.0116122 0.00322763)
(0.00318334 0.0112966 -0.00178923)
(0.0032359 0.0114946 -0.00694689)
(0.00252398 0.012702 0.00854066)
(0.00234889 0.0118286 0.00322863)
(0.00228294 0.0115063 -0.00178729)
(0.00232033 0.0117074 -0.00694378)
(0.00151209 0.0128603 0.00854242)
(0.00140877 0.0119748 0.00323077)
(0.00136949 0.0116472 -0.00178467)
(0.00139149 0.0118496 -0.00694054)
(0.000492184 0.0129514 0.00854615)
(0.000461163 0.0120555 0.00323452)
(0.00044798 0.0117202 -0.00178063)
(0.000453355 0.0119182 -0.00693643)
(0.031898 0.00123933 0.0121981)
(0.0308456 0.00120319 0.00445695)
(0.0302146 0.00117902 -0.00298086)
(0.0299808 0.0011691 -0.0105308)
(0.0316931 0.00374593 0.0121886)
(0.0306502 0.00362372 0.00444645)
(0.0300266 0.00354935 -0.00299191)
(0.0297979 0.00352051 -0.0105411)
(0.031306 0.00623169 0.012184)
(0.0302767 0.00602424 0.00444082)
(0.0296617 0.00589909 -0.002998)
(0.0294368 0.00585062 -0.0105472)
(0.0307299 0.00867864 0.0121833)
(0.029721 0.00838928 0.00443866)
(0.0291182 0.0082147 -0.00300116)
(0.0288981 0.00814734 -0.0105515)
(0.0299653 0.0110711 0.0121852)
(0.0289827 0.010703 0.00443865)
(0.0283957 0.0104811 -0.00300265)
(0.0281815 0.0103961 -0.0105547)
(0.0290147 0.0133937 0.0121885)
(0.0280642 0.0129502 0.00443989)
(0.0274965 0.0126831 -0.0030032)
(0.0272893 0.0125819 -0.0105573)
(0.0278831 0.0156316 0.0121925)
(0.0269701 0.0151161 0.00444174)
(0.0264248 0.0148061 -0.00300318)
(0.0262257 0.0146898 -0.0105593)
(0.0265768 0.0177709 0.0121964)
(0.0257067 0.0171868 0.00444374)
(0.0251869 0.0168361 -0.00300284)
(0.0249969 0.0167057 -0.0105607)
(0.0251044 0.0197988 0.0121995)
(0.0242823 0.0191494 0.0044455)
(0.0237911 0.0187603 -0.00300235)
(0.0236113 0.0186165 -0.0105615)
(0.0234761 0.0217039 0.0122015)
(0.0227073 0.0209929 0.00444661)
(0.0222476 0.0205674 -0.00300198)
(0.022079 0.0204109 -0.0105618)
(0.0217038 0.0234762 0.0122015)
(0.0209928 0.0227073 0.00444662)
(0.0205673 0.0222477 -0.00300198)
(0.0204108 0.0220791 -0.0105618)
(0.0197987 0.0251043 0.0121995)
(0.0191493 0.0242823 0.00444551)
(0.0187602 0.0237911 -0.00300235)
(0.0186164 0.0236113 -0.0105615)
(0.0177708 0.0265767 0.0121964)
(0.0171866 0.0257066 0.00444376)
(0.016836 0.0251868 -0.00300282)
(0.0167056 0.0249969 -0.0105606)
(0.0156315 0.0278829 0.0121925)
(0.015116 0.02697 0.00444177)
(0.014806 0.0264247 -0.00300316)
(0.0146897 0.0262256 -0.0105592)
(0.0133935 0.0290145 0.0121885)
(0.0129501 0.0280641 0.00443992)
(0.012683 0.0274964 -0.00300318)
(0.0125818 0.0272892 -0.0105572)
(0.011071 0.029965 0.0121852)
(0.0107029 0.0289825 0.00443868)
(0.010481 0.0283955 -0.00300262)
(0.010396 0.0281814 -0.0105547)
(0.00867853 0.0307296 0.0121833)
(0.00838918 0.0297207 0.00443869)
(0.00821462 0.029118 -0.00300112)
(0.00814726 0.0288979 -0.0105515)
(0.0062316 0.0313056 0.0121841)
(0.00602416 0.0302765 0.00444086)
(0.00589902 0.0296615 -0.00299796)
(0.00585056 0.0294366 -0.0105472)
(0.00374587 0.0316928 0.0121887)
(0.00362368 0.0306499 0.00444649)
(0.00354931 0.0300264 -0.00299187)
(0.00352047 0.0297977 -0.0105411)
(0.00123931 0.0318976 0.0121982)
(0.00120317 0.0308453 0.00445699)
(0.001179 0.0302144 -0.00298082)
(0.00116909 0.0299806 -0.0105308)
(0.0558207 0.00218305 0.0135846)
(0.0545814 0.00213985 0.00443065)
(0.0535902 0.00210251 -0.00433534)
(0.0528233 0.00207514 -0.0132556)
(0.0554719 0.00656614 0.01357)
(0.0542408 0.00642132 0.00441541)
(0.0532563 0.00630495 -0.00435083)
(0.0524953 0.00621486 -0.0132698)
(0.0547942 0.0109119 0.0135625)
(0.0535787 0.0106666 0.00440748)
(0.0526068 0.0104705 -0.00435841)
(0.051856 0.0103175 -0.0132763)
(0.0537843 0.0151907 0.0135603)
(0.0525927 0.0148483 0.00440474)
(0.0516397 0.0145741 -0.00436117)
(0.0509033 0.0143601 -0.0132792)
(0.052445 0.0193758 0.0135619)
(0.0512847 0.0189399 0.00440512)
(0.0503565 0.0185904 -0.0043614)
(0.049639 0.0183178 -0.0132803)
(0.0507819 0.0234406 0.0135657)
(0.0496599 0.022915 0.00440719)
(0.0487619 0.0224935 -0.00436048)
(0.0480675 0.022165 -0.0132809)
(0.048803 0.0273589 0.0135707)
(0.0477257 0.0267482 0.00441)
(0.0468633 0.0262581 -0.00435922)
(0.046196 0.0258767 -0.0132815)
(0.0465194 0.0311059 0.0135759)
(0.0454929 0.0304143 0.00441286)
(0.044671 0.0298595 -0.00435803)
(0.0440346 0.0294281 -0.0132824)
(0.043945 0.0346581 0.0135803)
(0.0429752 0.0338903 0.00441523)
(0.0421985 0.0332743 -0.00435709)
(0.0415966 0.0327959 -0.0132831)
(0.0410967 0.0379945 0.013583)
(0.0401894 0.0371549 0.00441668)
(0.0394624 0.0364815 -0.00435653)
(0.0388985 0.035959 -0.0132835)
(0.0379944 0.0410967 0.013583)
(0.0371548 0.0401894 0.00441668)
(0.0364815 0.0394624 -0.00435653)
(0.0359589 0.0388986 -0.0132835)
(0.034658 0.0439449 0.0135803)
(0.0338902 0.0429752 0.00441524)
(0.0332742 0.0421985 -0.00435708)
(0.0327958 0.0415966 -0.0132831)
(0.0311057 0.0465193 0.0135759)
(0.0304142 0.0454929 0.00441287)
(0.0298593 0.044671 -0.00435801)
(0.0294279 0.0440345 -0.0132823)
(0.0273587 0.0488028 0.0135708)
(0.026748 0.0477256 0.00441003)
(0.026258 0.0468632 -0.0043592)
(0.0258765 0.046196 -0.0132815)
(0.0234404 0.0507816 0.0135657)
(0.0229149 0.0496597 0.00440722)
(0.0224934 0.0487618 -0.00436045)
(0.0221649 0.0480674 -0.0132809)
(0.0193757 0.0524447 0.0135619)
(0.0189397 0.0512845 0.00440515)
(0.0185903 0.0503563 -0.00436136)
(0.0183176 0.0496389 -0.0132803)
(0.0151906 0.0537839 0.0135604)
(0.0148482 0.0525924 0.00440478)
(0.014574 0.0516394 -0.00436114)
(0.01436 0.0509032 -0.0132792)
(0.0109118 0.0547938 0.0135625)
(0.0106665 0.0535784 0.00440752)
(0.0104704 0.0526066 -0.00435837)
(0.0103174 0.0518558 -0.0132763)
(0.00656607 0.0554715 0.0135701)
(0.00642126 0.0542404 0.00441546)
(0.0063049 0.053256 -0.00435079)
(0.00621481 0.0524951 -0.0132697)
(0.00218302 0.0558202 0.0135846)
(0.00213983 0.054581 0.00443069)
(0.00210249 0.0535899 -0.0043353)
(0.00207513 0.0528231 -0.0132555)
(0.08304 0.00325805 0.0120597)
(0.0815976 0.00320746 0.00286386)
(0.0801644 0.00315452 -0.00578924)
(0.0787207 0.0031057 -0.0147193)
(0.0825256 0.00977252 0.0120407)
(0.0810896 0.00960472 0.00284565)
(0.0796624 0.0094384 -0.00580672)
(0.0782255 0.00927213 -0.0147346)
(0.0815137 0.0162306 0.0120303)
(0.080095 0.0159466 0.00283698)
(0.0786851 0.0156659 -0.00581307)
(0.0772663 0.0153828 -0.0147378)
(0.0800061 0.0225903 0.0120256)
(0.0786149 0.0221928 0.00283446)
(0.0772316 0.0217993 -0.00581304)
(0.0758394 0.0214023 -0.0147351)
(0.0780104 0.0288127 0.0120249)
(0.0766554 0.0283051 0.00283542)
(0.0753075 0.027802 -0.00580986)
(0.0739504 0.0272943 -0.0147298)
(0.0755361 0.0348591 0.0120268)
(0.0742257 0.0342457 0.00283815)
(0.0729214 0.033637 -0.0058056)
(0.0716076 0.0330226 -0.0147242)
(0.0725954 0.040691 0.0120306)
(0.0713373 0.0399768 0.00284157)
(0.0700843 0.0392674 -0.00580152)
(0.0688217 0.0385511 -0.0147199)
(0.0692039 0.0462706 0.012035)
(0.0680051 0.0454614 0.00284489)
(0.0668106 0.0446564 -0.00579824)
(0.0656065 0.0438437 -0.0147171)
(0.0653802 0.0515619 0.0120392)
(0.0642471 0.0506632 0.00284755)
(0.0631181 0.0497684 -0.00579602)
(0.0619795 0.0488651 -0.0147157)
(0.0611467 0.0565307 0.012042)
(0.0600859 0.0555483 0.00284915)
(0.0590289 0.0545695 -0.00579486)
(0.0579625 0.0535816 -0.0147152)
(0.0565306 0.0611467 0.012042)
(0.0555482 0.0600859 0.00284915)
(0.0545694 0.059029 -0.00579486)
(0.0535815 0.0579625 -0.0147152)
(0.0515617 0.0653801 0.0120392)
(0.050663 0.0642471 0.00284756)
(0.0497682 0.0631181 -0.00579601)
(0.0488649 0.0619795 -0.0147157)
(0.0462704 0.0692037 0.012035)
(0.0454612 0.068005 0.0028449)
(0.0446562 0.0668106 -0.00579823)
(0.0438435 0.0656065 -0.0147171)
(0.0406907 0.0725952 0.0120306)
(0.0399766 0.0713372 0.00284158)
(0.0392672 0.0700843 -0.0058015)
(0.0385509 0.0688217 -0.0147198)
(0.0348588 0.0755357 0.0120269)
(0.0342455 0.0742255 0.00283817)
(0.0336369 0.0729212 -0.00580558)
(0.0330224 0.0716075 -0.0147242)
(0.0288125 0.07801 0.0120249)
(0.0283049 0.0766552 0.00283544)
(0.0278019 0.0753073 -0.00580983)
(0.0272941 0.0739502 -0.0147297)
(0.0225901 0.0800057 0.0120257)
(0.0221927 0.0786145 0.00283449)
(0.0217992 0.0772314 -0.005813)
(0.0214022 0.0758392 -0.0147351)
(0.0162305 0.0815131 0.0120303)
(0.0159465 0.0800946 0.00283702)
(0.0156658 0.0786848 -0.00581304)
(0.0153827 0.0772661 -0.0147378)
(0.00977243 0.0825251 0.0120408)
(0.00960465 0.0810892 0.00284568)
(0.00943834 0.0796621 -0.00580669)
(0.00927207 0.0782253 -0.0147346)
(0.00325802 0.0830394 0.0120598)
(0.00320743 0.0815972 0.0028639)
(0.0031545 0.0801641 -0.0057892)
(0.00310568 0.0787205 -0.0147192)
(0.109746 0.00431425 0.00638049)
(0.108095 0.00425626 -0.000604142)
(0.106178 0.00418713 -0.0070212)
(0.103983 0.00411588 -0.0137653)
(0.109064 0.0129119 0.00636164)
(0.107417 0.0127232 -0.000619983)
(0.105506 0.0125046 -0.00703478)
(0.10332 0.0122563 -0.0137756)
(0.107716 0.0214336 0.00634974)
(0.106087 0.021114 -0.00062675)
(0.104198 0.0207444 -0.00703648)
(0.102038 0.0203212 -0.0137713)
(0.105709 0.0298256 0.00634158)
(0.104111 0.0293766 -0.00062823)
(0.102256 0.0288574 -0.00703153)
(0.100136 0.0282626 -0.0137592)
(0.103058 0.0380379 0.00633592)
(0.1015 0.0374619 -0.00062685)
(0.0996926 0.036796 -0.0070233)
(0.0976252 0.0360332 -0.0137436)
(0.099779 0.0460209 0.0063324)
(0.0982715 0.0453216 -0.000624022)
(0.0965213 0.0445132 -0.00701404)
(0.0945196 0.0435874 -0.0137275)
(0.0958889 0.0537244 0.00633084)
(0.0944407 0.0529071 -0.000620629)
(0.0927588 0.0519618 -0.0070053)
(0.0908351 0.0508793 -0.0137132)
(0.0914079 0.061099 0.00633094)
(0.0900272 0.0601697 -0.000617303)
(0.0884235 0.0590942 -0.00699807)
(0.0865893 0.0578628 -0.0137019)
(0.0863587 0.0680955 0.00633211)
(0.0850531 0.0670612 -0.000614557)
(0.0835371 0.0658629 -0.00699293)
(0.0818031 0.0644913 -0.0136944)
(0.0807676 0.0746664 0.0063335)
(0.0795446 0.0735342 -0.00061286)
(0.0781255 0.0722212 -0.00699021)
(0.0765022 0.0707189 -0.0136906)
(0.0746663 0.0807677 0.0063335)
(0.0735341 0.0795446 -0.000612858)
(0.0722211 0.0781255 -0.00699021)
(0.0707188 0.0765023 -0.0136906)
(0.0680953 0.0863587 0.00633211)
(0.0670611 0.0850531 -0.000614553)
(0.0658628 0.0835371 -0.00699292)
(0.0644912 0.0818031 -0.0136944)
(0.0610988 0.0914077 0.00633095)
(0.0601695 0.0900272 -0.000617295)
(0.059094 0.0884235 -0.00699805)
(0.0578626 0.0865893 -0.0137019)
(0.0537242 0.0958886 0.00633085)
(0.0529069 0.0944405 -0.000620618)
(0.0519616 0.0927587 -0.00700529)
(0.0508791 0.090835 -0.0137131)
(0.0460206 0.0997786 0.00633241)
(0.0453214 0.0982712 -0.000624008)
(0.044513 0.0965211 -0.00701402)
(0.0435872 0.0945195 -0.0137275)
(0.0380377 0.103058 0.00633593)
(0.0374617 0.1015 -0.000626833)
(0.0367958 0.0996924 -0.00702327)
(0.0360331 0.097625 -0.0137435)
(0.0298254 0.105708 0.00634159)
(0.0293764 0.10411 -0.00062821)
(0.0288572 0.102256 -0.0070315)
(0.0282624 0.100136 -0.0137592)
(0.0214335 0.107715 0.00634975)
(0.0211139 0.106087 -0.000626729)
(0.0207443 0.104198 -0.00703645)
(0.0203211 0.102038 -0.0137713)
(0.0129118 0.109064 0.00636165)
(0.0127231 0.107417 -0.000619962)
(0.0125045 0.105506 -0.00703474)
(0.0122562 0.103319 -0.0137756)
(0.00431422 0.109745 0.00638051)
(0.00425624 0.108094 -0.000604119)
(0.00418711 0.106177 -0.00702117)
(0.00411586 0.103983 -0.0137652)
(0.126494 0.00497405 -0.00370562)
(0.124695 0.00491184 -0.00586698)
(0.12244 0.00483263 -0.0077786)
(0.119726 0.00474749 -0.0098252)
(0.1257 0.0148662 -0.00371534)
(0.123903 0.0146667 -0.00587221)
(0.121654 0.0144152 -0.00778023)
(0.118949 0.014114 -0.00982281)
(0.124125 0.0246684 -0.00372468)
(0.122347 0.02433 -0.00587371)
(0.120123 0.0239041 -0.00777473)
(0.11745 0.0233902 -0.0098094)
(0.121785 0.0343195 -0.0037346)
(0.120038 0.0338421 -0.00587312)
(0.117855 0.0332423 -0.00776473)
(0.11523 0.0325188 -0.0097889)
(0.118701 0.0437629 -0.00374481)
(0.116997 0.0431472 -0.00587131)
(0.114867 0.0423757 -0.00775214)
(0.112307 0.0414458 -0.00976428)
(0.114895 0.0529422 -0.00375448)
(0.113244 0.0521908 -0.00586874)
(0.111181 0.0512514 -0.00773854)
(0.108703 0.0501198 -0.00973836)
(0.110389 0.0618016 -0.00376268)
(0.108802 0.0609188 -0.00586573)
(0.106819 0.0598168 -0.00772535)
(0.104438 0.0584903 -0.00971375)
(0.105209 0.0702853 -0.00376865)
(0.103695 0.069277 -0.0058626)
(0.101806 0.0680194 -0.00771384)
(0.0995362 0.0665068 -0.0096928)
(0.0993809 0.0783379 -0.00377198)
(0.0979504 0.0772114 -0.00585978)
(0.0961647 0.0758065 -0.0077052)
(0.0940209 0.074118 -0.00967748)
(0.0929349 0.085905 -0.00377289)
(0.091596 0.0846681 -0.00585791)
(0.0899261 0.0831254 -0.00770048)
(0.0879212 0.0812726 -0.00966935)
(0.0859049 0.0929349 -0.0037729)
(0.084668 0.0915961 -0.00585791)
(0.0831253 0.0899261 -0.00770048)
(0.0812724 0.0879213 -0.00966935)
(0.0783377 0.0993808 -0.00377198)
(0.0772112 0.0979504 -0.00585978)
(0.0758064 0.0961647 -0.0077052)
(0.0741178 0.094021 -0.00967748)
(0.0702851 0.105208 -0.00376865)
(0.0692768 0.103695 -0.00586259)
(0.0680193 0.101806 -0.00771384)
(0.0665066 0.0995362 -0.00969279)
(0.0618014 0.110388 -0.00376268)
(0.0609186 0.108802 -0.00586572)
(0.0598166 0.106819 -0.00772534)
(0.0584901 0.104438 -0.00971374)
(0.052942 0.114894 -0.00375448)
(0.0521906 0.113243 -0.00586873)
(0.0512512 0.111181 -0.00773853)
(0.0501196 0.108703 -0.00973834)
(0.0437626 0.118701 -0.00374481)
(0.043147 0.116996 -0.0058713)
(0.0423756 0.114867 -0.00775212)
(0.0414457 0.112307 -0.00976426)
(0.0343193 0.121785 -0.0037346)
(0.0338419 0.120038 -0.00587311)
(0.0332422 0.117855 -0.00776471)
(0.0325187 0.11523 -0.00978887)
(0.0246683 0.124124 -0.00372468)
(0.0243299 0.122346 -0.0058737)
(0.023904 0.120123 -0.00777471)
(0.0233901 0.11745 -0.00980937)
(0.0148661 0.125699 -0.00371534)
(0.0146666 0.123902 -0.0058722)
(0.0144151 0.121654 -0.00778021)
(0.014114 0.118949 -0.00982277)
(0.00497402 0.126494 -0.00370563)
(0.00491182 0.124694 -0.00586698)
(0.0048326 0.122439 -0.00777858)
(0.00474747 0.119725 -0.00982517)
(0.124033 0.00486767 -0.0156301)
(0.12223 0.00480803 -0.0117892)
(0.119997 0.00473195 -0.00824152)
(0.117332 0.00465106 -0.00448807)
(0.12324 0.014547 -0.0156241)
(0.121439 0.0143551 -0.0117792)
(0.119212 0.014113 -0.00822782)
(0.116556 0.0138252 -0.00447087)
(0.12167 0.0241358 -0.0156257)
(0.119886 0.0238091 -0.0117734)
(0.117684 0.0233982 -0.00821574)
(0.115059 0.022906 -0.00445216)
(0.119341 0.0335732 -0.0156324)
(0.117587 0.0331101 -0.0117698)
(0.115423 0.03253 -0.00820335)
(0.112846 0.0318354 -0.00443006)
(0.116277 0.0428033 -0.0156419)
(0.114563 0.0422032 -0.011767)
(0.112452 0.0414547 -0.00819002)
(0.109939 0.0405596 -0.0044049)
(0.112503 0.0517717 -0.0156525)
(0.110842 0.0510354 -0.0117644)
(0.108797 0.0501209 -0.00817596)
(0.106363 0.0490286 -0.00437795)
(0.108046 0.0604252 -0.0156628)
(0.106449 0.0595557 -0.0117615)
(0.104484 0.0584793 -0.00816199)
(0.102147 0.0571951 -0.00435126)
(0.102935 0.0687118 -0.0156712)
(0.101413 0.0677138 -0.0117585)
(0.099541 0.0664816 -0.0081493)
(0.097315 0.0650128 -0.00432739)
(0.0971989 0.0765806 -0.0156766)
(0.0957626 0.0754606 -0.0117556)
(0.093996 0.07408 -0.0081394)
(0.0918958 0.0724361 -0.00430916)
(0.0908698 0.0839824 -0.0156788)
(0.0895289 0.0827477 -0.0117536)
(0.0878798 0.0812277 -0.00813385)
(0.0859191 0.0794194 -0.00429918)
(0.0839822 0.0908699 -0.0156788)
(0.0827476 0.089529 -0.0117536)
(0.0812275 0.0878799 -0.00813385)
(0.0794193 0.0859192 -0.00429918)
(0.0765804 0.0971989 -0.0156766)
(0.0754604 0.0957626 -0.0117556)
(0.0740798 0.093996 -0.0081394)
(0.0724359 0.0918958 -0.00430916)
(0.0687115 0.102935 -0.0156712)
(0.0677136 0.101413 -0.0117585)
(0.0664814 0.0995409 -0.0081493)
(0.0650127 0.097315 -0.00432739)
(0.0604249 0.108046 -0.0156628)
(0.0595555 0.106449 -0.0117615)
(0.0584791 0.104484 -0.00816198)
(0.0571949 0.102147 -0.00435125)
(0.0517715 0.112503 -0.0156525)
(0.0510352 0.110842 -0.0117644)
(0.0501207 0.108797 -0.00817596)
(0.0490284 0.106363 -0.00437794)
(0.0428031 0.116277 -0.0156419)
(0.042203 0.114563 -0.011767)
(0.0414545 0.112452 -0.00819001)
(0.0405594 0.109938 -0.00440488)
(0.033573 0.119341 -0.0156324)
(0.0331099 0.117586 -0.0117698)
(0.0325299 0.115423 -0.00820335)
(0.0318353 0.112845 -0.00443004)
(0.0241357 0.12167 -0.0156258)
(0.0238089 0.119886 -0.0117734)
(0.0233981 0.117683 -0.00821574)
(0.0229059 0.115059 -0.00445214)
(0.0145469 0.12324 -0.0156241)
(0.014355 0.121438 -0.0117792)
(0.0141129 0.119211 -0.00822781)
(0.0138252 0.116556 -0.00447085)
(0.00486764 0.124032 -0.0156302)
(0.004808 0.122229 -0.0117892)
(0.00473192 0.119996 -0.00824151)
(0.00465104 0.117332 -0.00448804)
(0.102322 0.00399652 -0.0250317)
(0.100665 0.00394553 -0.0166154)
(0.0988308 0.00388551 -0.0088845)
(0.0968082 0.00382663 -0.000728322)
(0.101651 0.0119619 -0.025012)
(0.0999981 0.0117934 -0.016594)
(0.098169 0.0116024 -0.0088611)
(0.0961537 0.0113935 -0.000703676)
(0.100331 0.0198514 -0.0250039)
(0.0986932 0.0195627 -0.0165823)
(0.0968835 0.0192372 -0.00884671)
(0.0948913 0.0188783 -0.000687065)
(0.0983765 0.0276125 -0.0250023)
(0.096764 0.0272016 -0.0165758)
(0.0949852 0.0267401 -0.00883607)
(0.0930283 0.0262314 -0.00067216)
(0.0958083 0.0351982 -0.0250044)
(0.0942323 0.0346636 -0.0165716)
(0.0924959 0.0340656 -0.00882651)
(0.090587 0.0334069 -0.000656808)
(0.0926515 0.0425638 -0.0250084)
(0.0911231 0.0419051 -0.0165682)
(0.0894411 0.0411714 -0.00881695)
(0.0875933 0.0403639 -0.000640373)
(0.0889326 0.049667 -0.025013)
(0.0874633 0.0488856 -0.016565)
(0.0858477 0.0480183 -0.00880733)
(0.0840739 0.0470646 -0.000623433)
(0.0846797 0.0564677 -0.0250171)
(0.0832808 0.0555667 -0.0165618)
(0.0817434 0.0545697 -0.00879829)
(0.0800561 0.0534742 -0.000607541)
(0.0799217 0.0629282 -0.0250198)
(0.0786042 0.0619124 -0.0165589)
(0.0771562 0.0607912 -0.00879098)
(0.0755674 0.0595599 -0.000594894)
(0.0746889 0.069013 -0.0250208)
(0.0734631 0.0678887 -0.0165571)
(0.072115 0.06665 -0.0087868)
(0.0706357 0.0652903 -0.000587789)
(0.0690129 0.0746889 -0.0250208)
(0.0678885 0.0734632 -0.0165571)
(0.0666498 0.0721151 -0.0087868)
(0.0652902 0.0706358 -0.000587788)
(0.062928 0.0799216 -0.0250198)
(0.0619123 0.0786042 -0.0165589)
(0.060791 0.0771562 -0.00879098)
(0.0595597 0.0755674 -0.000594891)
(0.0564675 0.0846795 -0.0250171)
(0.0555665 0.0832808 -0.0165618)
(0.0545695 0.0817434 -0.00879829)
(0.053474 0.0800561 -0.000607535)
(0.0496668 0.0889324 -0.025013)
(0.0488854 0.0874632 -0.016565)
(0.0480181 0.0858476 -0.00880733)
(0.0470644 0.0840738 -0.000623425)
(0.0425636 0.0926512 -0.0250084)
(0.0419049 0.0911228 -0.0165682)
(0.0411712 0.0894409 -0.00881695)
(0.0403637 0.0875931 -0.000640362)
(0.035198 0.0958079 -0.0250044)
(0.0346634 0.094232 -0.0165716)
(0.0340654 0.0924957 -0.00882651)
(0.0334068 0.0905868 -0.000656795)
(0.0276123 0.098376 -0.0250023)
(0.0272014 0.0967637 -0.0165758)
(0.02674 0.0949849 -0.00883607)
(0.0262312 0.0930281 -0.000672145)
(0.0198513 0.100331 -0.025004)
(0.0195625 0.0986928 -0.0165823)
(0.019237 0.0968831 -0.00884671)
(0.0188782 0.0948911 -0.000687048)
(0.0119618 0.101651 -0.0250121)
(0.0117933 0.0999977 -0.016594)
(0.0116023 0.0981687 -0.0088611)
(0.0113935 0.0961534 -0.000703659)
(0.0039965 0.102321 -0.0250317)
(0.0039455 0.100665 -0.0166154)
(0.00388548 0.0988304 -0.0088845)
(0.00382661 0.0968078 -0.000728304)
(0.0713393 0.00276354 -0.028871)
(0.0699043 0.00272253 -0.0190846)
(0.0686301 0.00268305 -0.00998119)
(0.067494 0.00265248 -0.000502848)
(0.070857 0.00830114 -0.0288476)
(0.0694271 0.00815988 -0.0190621)
(0.0681578 0.00803452 -0.00995908)
(0.0670273 0.0079281 -0.000482426)
(0.0699179 0.013786 -0.0288328)
(0.0685008 0.0135423 -0.019049)
(0.0672442 0.0133273 -0.0099478)
(0.0661262 0.0131421 -0.000474119)
(0.0685301 0.0191792 -0.0288224)
(0.0671347 0.0188316 -0.019041)
(0.0658987 0.0185248 -0.00994209)
(0.0647996 0.0182591 -0.000471214)
(0.0667101 0.0244472 -0.0288146)
(0.0653455 0.0239939 -0.0190357)
(0.0641383 0.0235938 -0.00993886)
(0.0630655 0.0232462 -0.000470633)
(0.0644771 0.0295586 -0.0288083)
(0.0631533 0.0289989 -0.0190315)
(0.0619836 0.0285049 -0.00993644)
(0.0609449 0.0280743 -0.000470407)
(0.0618525 0.034485 -0.0288032)
(0.06058 0.0338193 -0.0190278)
(0.0594568 0.033232 -0.00993405)
(0.0584604 0.0327184 -0.000469549)
(0.0588592 0.0392005 -0.0287991)
(0.0576485 0.0384307 -0.0190245)
(0.056581 0.0377518 -0.00993156)
(0.055635 0.0371563 -0.000467934)
(0.055521 0.043682 -0.0287959)
(0.0543826 0.0428115 -0.0190219)
(0.0533795 0.042044 -0.00992932)
(0.0524917 0.0413691 -0.000466088)
(0.0518625 0.0479089 -0.0287941)
(0.0508061 0.0469425 -0.0190203)
(0.0498754 0.0460908 -0.00992794)
(0.049053 0.0453398 -0.000464844)
(0.0479088 0.0518625 -0.0287941)
(0.0469424 0.0508061 -0.0190203)
(0.0460907 0.0498755 -0.00992794)
(0.0453396 0.0490531 -0.000464844)
(0.0436818 0.0555209 -0.0287959)
(0.0428113 0.0543826 -0.0190219)
(0.0420439 0.0533795 -0.00992932)
(0.0413689 0.0524917 -0.000466086)
(0.0392003 0.0588591 -0.0287991)
(0.0384305 0.0576484 -0.0190246)
(0.0377516 0.056581 -0.00993156)
(0.0371562 0.055635 -0.000467929)
(0.0344848 0.0618523 -0.0288032)
(0.0338191 0.0605798 -0.0190278)
(0.0332318 0.0594567 -0.00993406)
(0.0327182 0.0584604 -0.000469543)
(0.0295584 0.0644768 -0.0288083)
(0.0289987 0.0631531 -0.0190315)
(0.0285048 0.0619834 -0.00993645)
(0.0280741 0.0609448 -0.000470398)
(0.024447 0.0667098 -0.0288146)
(0.0239937 0.0653452 -0.0190357)
(0.0235936 0.0641381 -0.00993887)
(0.023246 0.0630653 -0.000470622)
(0.0191791 0.0685297 -0.0288225)
(0.0188315 0.0671343 -0.0190411)
(0.0185246 0.0658984 -0.00994209)
(0.018259 0.0647993 -0.000471202)
(0.0137859 0.0699174 -0.0288328)
(0.0135422 0.0685004 -0.019049)
(0.0133272 0.0672439 -0.00994781)
(0.013142 0.0661259 -0.000474105)
(0.00830107 0.0708565 -0.0288477)
(0.00815981 0.0694267 -0.0190621)
(0.00803445 0.0681575 -0.00995909)
(0.00792803 0.067027 -0.000482411)
(0.00276351 0.0713389 -0.0288711)
(0.00272251 0.0699039 -0.0190846)
(0.00268303 0.0686297 -0.00998119)
(0.00265246 0.0674937 -0.000502833)
(0.0434293 0.00166248 -0.0273062)
(0.0422056 0.00162864 -0.019133)
(0.0413936 0.00160479 -0.0113353)
(0.0409617 0.00159548 -0.00339808)
(0.0431244 0.00502366 -0.027289)
(0.0419078 0.00490348 -0.0191185)
(0.0411009 0.00482834 -0.0113231)
(0.0406732 0.00479879 -0.00338957)
(0.042543 0.00835417 -0.0272736)
(0.0413377 0.00814603 -0.0191086)
(0.0405384 0.008016 -0.0113183)
(0.0401149 0.00796182 -0.00339099)
(0.0416867 0.0116288 -0.027259)
(0.0405001 0.011332 -0.0191017)
(0.0397132 0.0111449 -0.0113181)
(0.0392957 0.0110634 -0.0033985)
(0.0405659 0.0148265 -0.0272449)
(0.0394056 0.01444 -0.0190965)
(0.0386363 0.0141942 -0.0113206)
(0.0382278 0.0140833 -0.00340969)
(0.0391927 0.0179282 -0.0272314)
(0.0380671 0.0174515 -0.0190923)
(0.0373212 0.017146 -0.0113243)
(0.0369251 0.0170036 -0.00342232)
(0.0375811 0.0209167 -0.0272191)
(0.036499 0.0203503 -0.0190888)
(0.0357827 0.0199847 -0.0113281)
(0.035403 0.0198096 -0.00343451)
(0.0357462 0.0237772 -0.0272086)
(0.0347166 0.0231225 -0.0190858)
(0.0340362 0.0226975 -0.0113314)
(0.033677 0.0224888 -0.00344483)
(0.0337041 0.0264968 -0.0272008)
(0.0327359 0.0257566 -0.0190836)
(0.0320977 0.0252736 -0.0113337)
(0.031763 0.0250313 -0.00345224)
(0.0314713 0.0290646 -0.0271966)
(0.030573 0.028243 -0.0190823)
(0.0299825 0.0277045 -0.0113348)
(0.0296762 0.0274293 -0.00345611)
(0.0290645 0.0314713 -0.0271966)
(0.0282429 0.0305731 -0.0190823)
(0.0277044 0.0299825 -0.0113348)
(0.0274292 0.0296763 -0.0034561)
(0.0264966 0.033704 -0.0272009)
(0.0257565 0.0327359 -0.0190836)
(0.0252735 0.0320977 -0.0113337)
(0.0250311 0.0317631 -0.00345224)
(0.023777 0.0357461 -0.0272086)
(0.0231224 0.0347166 -0.0190858)
(0.0226973 0.0340362 -0.0113314)
(0.0224886 0.033677 -0.00344483)
(0.0209165 0.0375809 -0.0272191)
(0.0203501 0.0364989 -0.0190888)
(0.0199845 0.0357826 -0.0113281)
(0.0198094 0.0354029 -0.00343451)
(0.017928 0.0391925 -0.0272315)
(0.0174513 0.0380669 -0.0190924)
(0.0171458 0.037321 -0.0113243)
(0.0170034 0.036925 -0.00342231)
(0.0148264 0.0405656 -0.027245)
(0.0144398 0.0394054 -0.0190966)
(0.014194 0.0386361 -0.0113206)
(0.0140831 0.0382276 -0.00340968)
(0.0116287 0.0416864 -0.0272591)
(0.0113319 0.0404998 -0.0191017)
(0.0111447 0.0397129 -0.0113181)
(0.0110633 0.0392955 -0.00339849)
(0.00835408 0.0425426 -0.0272736)