/*--------------------------------*- C++ -*----------------------------------*\
| =========                 |                                                 |
| \\      /  F ield         | foam-extend: Open Source CFD                    |
|  \\    /   O peration     | Version:     3.1                                |
|   \\  /    A nd           | Web:         http://www.extend-project.de       |
|    \\/     M anipulation  |                                                 |
\*---------------------------------------------------------------------------*/
FoamFile
{
    version     2.0;
    format      ascii;
    class       volScalarField;
    location    "0.0015";
    object      p;
}
// * * * * * * * * * * * * * * * * * * * * * * * * * * * * * * * * * * * * * //

dimensions      [0 2 -2 0 0 0 0];

internalField   nonuniform List<scalar> 
16000
(
1.3164
1.31651
1.31673
1.31706
1.3175
1.31806
1.31871
1.31948
1.32034
1.32128
1.31651
1.31661
1.31682
1.31714
1.31757
1.3181
1.31873
1.31947
1.32031
1.32122
1.31673
1.31682
1.31702
1.31732
1.31772
1.31823
1.31884
1.31954
1.32035
1.32123
1.31706
1.31714
1.31732
1.3176
1.31797
1.31845
1.31903
1.3197
1.32046
1.3213
1.3175
1.31757
1.31772
1.31797
1.31832
1.31877
1.3193
1.31993
1.32065
1.32144
1.31806
1.3181
1.31823
1.31845
1.31877
1.31917
1.31966
1.32025
1.32091
1.32165
1.31871
1.31873
1.31884
1.31903
1.3193
1.31967
1.32011
1.32064
1.32125
1.32192
1.31948
1.31947
1.31954
1.3197
1.31993
1.32025
1.32064
1.32111
1.32165
1.32224
1.32034
1.32031
1.32035
1.32046
1.32065
1.32092
1.32125
1.32165
1.32211
1.32262
1.32129
1.32122
1.32123
1.3213
1.32145
1.32165
1.32192
1.32224
1.32262
1.32303
1.28239
1.28273
1.28342
1.28445
1.28583
1.28755
1.28962
1.29202
1.29474
1.29774
1.28273
1.28305
1.2837
1.28469
1.28601
1.28766
1.28964
1.29195
1.29457
1.29747
1.28342
1.2837
1.28431
1.28523
1.28648
1.28806
1.28995
1.29215
1.29466
1.29743
1.28445
1.28469
1.28523
1.28609
1.28727
1.28875
1.29054
1.29263
1.295
1.29764
1.28583
1.28601
1.28648
1.28727
1.28835
1.28973
1.2914
1.29337
1.2956
1.2981
1.28755
1.28766
1.28806
1.28875
1.28973
1.29099
1.29254
1.29437
1.29646
1.29878
1.28962
1.28964
1.28995
1.29054
1.2914
1.29254
1.29395
1.29563
1.29755
1.29971
1.29202
1.29195
1.29216
1.29263
1.29337
1.29437
1.29563
1.29714
1.29889
1.30085
1.29474
1.29457
1.29466
1.29501
1.29561
1.29646
1.29755
1.29889
1.30045
1.30222
1.29775
1.29747
1.29744
1.29765
1.2981
1.29879
1.29971
1.30085
1.30222
1.30378
1.24619
1.24676
1.24792
1.24965
1.25199
1.25492
1.25847
1.26262
1.26739
1.27276
1.24676
1.2473
1.24839
1.25006
1.25229
1.25511
1.25851
1.26251
1.2671
1.27227
1.24792
1.24839
1.24942
1.25099
1.25311
1.25579
1.25905
1.26287
1.26726
1.27222
1.24966
1.25006
1.25099
1.25245
1.25444
1.25698
1.26007
1.2637
1.26788
1.2726
1.25199
1.25229
1.25311
1.25444
1.25629
1.25867
1.26157
1.265
1.26896
1.27343
1.25492
1.25511
1.25579
1.25698
1.25867
1.26086
1.26357
1.26678
1.27049
1.2747
1.25847
1.25852
1.25905
1.26007
1.26157
1.26357
1.26605
1.26902
1.27248
1.2764
1.26263
1.26251
1.26287
1.2637
1.265
1.26678
1.26902
1.27174
1.27491
1.27853
1.2674
1.2671
1.26727
1.26789
1.26896
1.27049
1.27248
1.27491
1.27779
1.28109
1.27276
1.27227
1.27222
1.27261
1.27343
1.2747
1.2764
1.27853
1.28109
1.28406
1.20608
1.20688
1.20847
1.21089
1.21414
1.21826
1.22327
1.22922
1.23613
1.24403
1.20688
1.20762
1.20914
1.21145
1.21457
1.21852
1.22335
1.22907
1.23571
1.24331
1.20847
1.20914
1.21056
1.21274
1.21571
1.21949
1.22411
1.22959
1.23596
1.24324
1.21089
1.21145
1.21274
1.21478
1.21759
1.22117
1.22557
1.23079
1.23687
1.24382
1.21414
1.21457
1.21571
1.21759
1.2202
1.22358
1.22773
1.23268
1.23846
1.24507
1.21826
1.21853
1.21949
1.22117
1.22358
1.22671
1.2306
1.23527
1.24072
1.24697
1.22327
1.22335
1.22411
1.22557
1.22773
1.23061
1.23421
1.23856
1.24367
1.24954
1.22922
1.22907
1.22959
1.23079
1.23268
1.23527
1.23856
1.24257
1.24732
1.25278
1.23614
1.23572
1.23596
1.23687
1.23846
1.24072
1.24367
1.24732
1.25166
1.2567
1.24404
1.24331
1.24324
1.24383
1.24507
1.24698
1.24954
1.25279
1.2567
1.2613
1.16067
1.16165
1.16361
1.1666
1.17064
1.17579
1.18212
1.18971
1.19864
1.209
1.16165
1.16256
1.16443
1.16729
1.17118
1.17613
1.18222
1.18952
1.1981
1.20805
1.16361
1.16443
1.16619
1.1689
1.17261
1.17735
1.18319
1.19019
1.19843
1.20797
1.1666
1.16729
1.1689
1.17145
1.17496
1.17948
1.18505
1.19175
1.19963
1.20875
1.17064
1.17118
1.17261
1.17496
1.17825
1.18252
1.18782
1.1942
1.20171
1.21041
1.17579
1.17613
1.17736
1.17948
1.18252
1.18652
1.19152
1.19756
1.20469
1.21295
1.18213
1.18222
1.1832
1.18506
1.18782
1.19152
1.19619
1.20186
1.20859
1.2164
1.18972
1.18952
1.1902
1.19175
1.1942
1.19756
1.20186
1.20715
1.21344
1.22077
1.19865
1.19811
1.19843
1.19963
1.20171
1.20469
1.20859
1.21344
1.21927
1.22609
1.209
1.20806
1.20797
1.20876
1.21041
1.21296
1.2164
1.22077
1.22609
1.23238
1.10878
1.10986
1.11206
1.11542
1.11998
1.12584
1.13311
1.14192
1.15242
1.16478
1.10987
1.11089
1.11298
1.1162
1.12059
1.12623
1.13323
1.1417
1.15179
1.16365
1.11207
1.11299
1.11496
1.11802
1.12222
1.12763
1.13436
1.14249
1.15218
1.16355
1.11542
1.1162
1.11802
1.1209
1.1249
1.13007
1.13651
1.14432
1.1536
1.1645
1.11998
1.12059
1.12222
1.1249
1.12867
1.13358
1.13973
1.14719
1.15608
1.1665
1.12584
1.12623
1.12764
1.13007
1.13359
1.13822
1.14406
1.15116
1.15964
1.16959
1.13312
1.13323
1.13436
1.13651
1.13973
1.14406
1.14955
1.15628
1.16433
1.17378
1.14193
1.1417
1.1425
1.14432
1.1472
1.15117
1.15628
1.1626
1.1702
1.17913
1.15243
1.15179
1.15218
1.15361
1.15609
1.15965
1.16433
1.1702
1.17731
1.18569
1.16479
1.16366
1.16356
1.16451
1.16651
1.16959
1.17378
1.17913
1.18569
1.19349
1.04965
1.05075
1.05298
1.05638
1.06105
1.0671
1.07467
1.08396
1.09518
1.10859
1.05075
1.05178
1.05391
1.05719
1.06168
1.06751
1.0748
1.08372
1.0945
1.10736
1.05298
1.05391
1.05592
1.05904
1.06336
1.06896
1.07598
1.08457
1.09492
1.10725
1.05639
1.05719
1.05904
1.062
1.06612
1.0715
1.07824
1.0865
1.09645
1.10829
1.06106
1.06168
1.06336
1.06612
1.07003
1.07517
1.08163
1.08957
1.09913
1.11048
1.0671
1.06751
1.06896
1.0715
1.07517
1.08004
1.08622
1.09382
1.10299
1.11386
1.07468
1.0748
1.07598
1.07824
1.08164
1.08622
1.09209
1.09934
1.1081
1.11849
1.08396
1.08373
1.08457
1.0865
1.08957
1.09382
1.09934
1.10621
1.11454
1.12444
1.09518
1.0945
1.09492
1.09646
1.09913
1.10299
1.1081
1.11455
1.12242
1.13179
1.1086
1.10736
1.10726
1.10829
1.11048
1.11387
1.1185
1.12444
1.13179
1.14062
0.98318
0.984163
0.986155
0.98922
0.993447
0.998969
1.00596
1.01465
1.02531
1.0383
0.984163
0.985087
0.986994
0.989943
0.994017
0.999341
1.00607
1.01443
1.02466
1.03709
0.986156
0.986994
0.988798
0.991621
0.995542
1.00067
1.00717
1.01521
1.02505
1.03698
0.98922
0.989943
0.991621
0.994304
0.998064
1.00301
1.00927
1.01703
1.02651
1.03797
0.993448
0.994018
0.995542
0.998065
1.00165
1.0064
1.01244
1.01993
1.02907
1.0401
0.998971
0.999342
1.00067
1.00301
1.0064
1.01094
1.01675
1.02397
1.03279
1.0434
1.00596
1.00608
1.00717
1.00927
1.01244
1.01675
1.02231
1.02925
1.03774
1.04795
1.01465
1.01443
1.01522
1.01703
1.01993
1.02397
1.02925
1.0359
1.04405
1.05385
1.02532
1.02466
1.02506
1.02652
1.02907
1.03279
1.03774
1.04405
1.05183
1.06122
1.0383
1.0371
1.03698
1.03798
1.0401
1.04341
1.04796
1.05385
1.06122
1.07017
0.910061
0.910786
0.912262
0.914543
0.917717
0.921906
0.92728
0.934065
0.942555
0.953134
0.910787
0.91147
0.912885
0.915083
0.918146
0.922186
0.927363
0.933885
0.942024
0.952131
0.912262
0.912885
0.914227
0.916338
0.919293
0.923198
0.928199
0.934491
0.942325
0.952021
0.914544
0.915084
0.916339
0.918355
0.921201
0.924977
0.929819
0.935907
0.943474
0.952811
0.917718
0.918147
0.919294
0.921202
0.923934
0.927583
0.932277
0.93818
0.945509
0.954526
0.921908
0.922188
0.923199
0.924978
0.927584
0.931102
0.935649
0.941379
0.948491
0.957219
0.927283
0.927366
0.928201
0.929822
0.932278
0.935649
0.940044
0.945604
0.95251
0.96097
0.934069
0.933889
0.934494
0.935911
0.938183
0.941381
0.945605
0.950985
0.957687
0.96589
0.942561
0.94203
0.94233
0.943479
0.945512
0.948493
0.952512
0.957687
0.964173
0.972124
0.953141
0.952138
0.952028
0.952816
0.954531
0.957223
0.960973
0.965892
0.972126
0.97984
0.831871
0.832219
0.832927
0.834036
0.835599
0.8377
0.840455
0.84403
0.848649
0.854626
0.832219
0.832548
0.833229
0.834299
0.83581
0.837838
0.840492
0.843925
0.848346
0.854038
0.832928
0.833229
0.833879
0.834911
0.836373
0.838339
0.84091
0.844227
0.848485
0.853944
0.834037
0.8343
0.834911
0.835903
0.83732
0.839231
0.841732
0.844955
0.849081
0.854349
0.835601
0.835811
0.836374
0.83732
0.838692
0.840553
0.842995
0.846141
0.85016
0.855274
0.837702
0.83784
0.838341
0.839232
0.840554
0.842367
0.844756
0.847839
0.851772
0.85676
0.840459
0.840496
0.840913
0.841734
0.842996
0.844757
0.847096
0.850125
0.853988
0.858874
0.844035
0.84393
0.844231
0.844959
0.846144
0.847841
0.850126
0.853102
0.856907
0.861709
0.848655
0.848351
0.84849
0.849085
0.850164
0.851775
0.85399
0.856908
0.86066
0.865401
0.854633
0.854045
0.853951
0.854355
0.85528
0.856765
0.858877
0.861711
0.865402
0.870119
0.750998
0.750897
0.750691
0.750388
0.749993
0.749515
0.748974
0.748402
0.74786
0.747446
0.750897
0.750803
0.750608
0.750318
0.749938
0.749478
0.748956
0.748403
0.747873
0.747457
0.750691
0.750608
0.750425
0.75015
0.749788
0.749348
0.748848
0.748318
0.747808
0.747404
0.750389
0.750318
0.750151
0.749893
0.74955
0.749132
0.748657
0.748154
0.747672
0.747291
0.749995
0.749939
0.749789
0.74955
0.749229
0.748837
0.74839
0.74792
0.747472
0.747126
0.749518
0.749481
0.74935
0.749133
0.748837
0.748474
0.748061
0.747628
0.747222
0.74692
0.748978
0.74896
0.748851
0.748659
0.748392
0.748062
0.747689
0.747301
0.746945
0.746698
0.748408
0.748408
0.748322
0.748158
0.747923
0.74763
0.747302
0.746968
0.746673
0.746494
0.747866
0.747879
0.747814
0.747677
0.747476
0.747225
0.746947
0.746674
0.746456
0.74637
0.747455
0.747465
0.747411
0.747298
0.747131
0.746925
0.746701
0.746497
0.746371
0.746426
0.670351
0.669804
0.66869
0.666979
0.664618
0.661532
0.65762
0.652749
0.646752
0.639421
0.669804
0.669291
0.668224
0.666576
0.664298
0.661322
0.657552
0.652868
0.647114
0.640101
0.66869
0.668224
0.667212
0.66563
0.663433
0.660556
0.656913
0.652391
0.646849
0.640113
0.66698
0.666576
0.66563
0.66412
0.662002
0.659219
0.65569
0.651312
0.645955
0.639464
0.66462
0.6643
0.663434
0.662002
0.659968
0.657277
0.653855
0.649608
0.644416
0.638142
0.661535
0.661324
0.660558
0.65922
0.657278
0.654682
0.651365
0.647241
0.642199
0.636122
0.657623
0.657556
0.656916
0.655692
0.653857
0.651366
0.648159
0.644157
0.639258
0.633363
0.652754
0.652873
0.652396
0.651316
0.649611
0.647242
0.644157
0.640284
0.63553
0.629814
0.646759
0.64712
0.646855
0.64596
0.64442
0.642202
0.63926
0.635531
0.630937
0.625412
0.63943
0.640108
0.64012
0.639471
0.638148
0.636127
0.633367
0.629816
0.625413
0.620119
0.592888
0.59198
0.590129
0.587278
0.583329
0.578138
0.571509
0.563172
0.55277
0.539825
0.59198
0.591127
0.589353
0.586608
0.582798
0.577792
0.571407
0.563395
0.553425
0.541061
0.59013
0.589354
0.587672
0.585036
0.58136
0.576521
0.570351
0.562618
0.553017
0.54115
0.587279
0.586608
0.585036
0.582518
0.578975
0.574292
0.568312
0.560822
0.551538
0.540097
0.583331
0.582799
0.581361
0.578975
0.57557
0.571039
0.565235
0.55796
0.54895
0.537878
0.578141
0.577794
0.576523
0.574293
0.57104
0.566665
0.56103
0.553952
0.545186
0.534435
0.571512
0.57141
0.570354
0.568315
0.565237
0.561031
0.55557
0.548682
0.540138
0.529675
0.563177
0.563399
0.562622
0.560826
0.557963
0.553954
0.548682
0.54199
0.533662
0.523466
0.552777
0.553431
0.553022
0.551543
0.548954
0.545188
0.54014
0.533663
0.525563
0.515634
0.539833
0.541069
0.541156
0.540103
0.537883
0.534439
0.529678
0.523468
0.515635
0.506
0.521077
0.519952
0.51766
0.514135
0.509263
0.50288
0.494755
0.484577
0.471923
0.456227
0.519952
0.518894
0.516701
0.513309
0.508614
0.502462
0.49464
0.484861
0.472734
0.457742
0.51766
0.516701
0.514625
0.511376
0.506854
0.500918
0.49337
0.483942
0.472274
0.457891
0.514136
0.513309
0.511376
0.508282
0.503937
0.498209
0.490912
0.481798
0.470532
0.45668
0.509265
0.508615
0.506855
0.503938
0.49978
0.494257
0.487199
0.478371
0.467464
0.454081
0.502882
0.502464
0.50092
0.49821
0.494258
0.48895
0.482127
0.47357
0.46299
0.450027
0.494759
0.494644
0.493373
0.490914
0.4872
0.482127
0.475547
0.467258
0.456986
0.444408
0.484581
0.484865
0.483946
0.481801
0.478374
0.473572
0.467258
0.459245
0.449279
0.437067
0.471929
0.47274
0.472279
0.470536
0.467468
0.462993
0.456988
0.44928
0.439634
0.427788
0.456234
0.457749
0.457897
0.456686
0.454086
0.450031
0.444411
0.437069
0.427789
0.416335
0.456471
0.455288
0.452886
0.44921
0.444166
0.437616
0.429376
0.419196
0.406748
0.391599
0.455288
0.454178
0.451885
0.448354
0.443499
0.437195
0.429268
0.419488
0.407552
0.393062
0.452887
0.451885
0.449724
0.446355
0.441697
0.435634
0.428005
0.418598
0.407129
0.393235
0.449211
0.448355
0.446355
0.443168
0.438719
0.432899
0.425561
0.416506
0.405471
0.392124
0.444167
0.443501
0.441698
0.438719
0.434497
0.428931
0.421882
0.413168
0.402544
0.389708
0.437618
0.437197
0.435636
0.432901
0.428931
0.423636
0.416886
0.408512
0.398287
0.385935
0.429379
0.429271
0.428008
0.425563
0.421884
0.416887
0.410456
0.402431
0.392604
0.380725
0.419201
0.419492
0.418601
0.416509
0.41317
0.408513
0.402432
0.39478
0.385364
0.373959
0.406754
0.407557
0.407134
0.405475
0.402548
0.398289
0.392606
0.385365
0.376387
0.365474
0.391606
0.393068
0.393241
0.39213
0.389712
0.385939
0.380728
0.373961
0.365475
0.355089
0.39955
0.398442
0.396204
0.392804
0.38819
0.382289
0.375008
0.366231
0.355817
0.343604
0.398442
0.397407
0.395275
0.392018
0.387587
0.381916
0.374918
0.366485
0.356486
0.344771
0.396204
0.395275
0.393279
0.390189
0.385961
0.380534
0.373827
0.365742
0.356156
0.344931
0.392805
0.392018
0.390189
0.387293
0.38329
0.378124
0.371722
0.363991
0.354821
0.344085
0.388191
0.387588
0.385962
0.383291
0.379539
0.374656
0.368576
0.361214
0.352468
0.342225
0.382291
0.381918
0.380536
0.378125
0.374657
0.370085
0.36435
0.357377
0.349072
0.339333
0.375012
0.374921
0.37383
0.371724
0.368577
0.364351
0.358993
0.352435
0.344594
0.33538
0.366235
0.366489
0.365746
0.363995
0.361216
0.357379
0.352436
0.34633
0.338985
0.330325
0.355823
0.356492
0.356161
0.354825
0.352472
0.349074
0.344596
0.338986
0.33218
0.324113
0.343611
0.344777
0.344937
0.34409
0.34223
0.339337
0.335383
0.330327
0.324114
0.316691
0.34989
0.348933
0.347011
0.344119
0.34025
0.335399
0.329567
0.32277
0.315054
0.306511
0.348933
0.348042
0.346217
0.343455
0.33975
0.335097
0.329497
0.322965
0.315541
0.307307
0.347011
0.346217
0.344521
0.34192
0.338407
0.333981
0.328643
0.322408
0.315312
0.30743
0.344119
0.343456
0.34192
0.339509
0.33622
0.332051
0.327005
0.321099
0.314365
0.306875
0.340251
0.339751
0.338408
0.336221
0.333187
0.329306
0.324585
0.31904
0.312705
0.305648
0.335401
0.335099
0.333983
0.332052
0.329307
0.325749
0.321388
0.31624
0.310343
0.30376
0.32957
0.3295
0.328646
0.327008
0.324587
0.321388
0.317424
0.312713
0.307294
0.301229
0.322775
0.322969
0.322412
0.321102
0.319043
0.316242
0.312714
0.308482
0.303585
0.298085
0.31506
0.315547
0.315317
0.31437
0.312709
0.310346
0.307296
0.303586
0.299258
0.294374
0.306518
0.307314
0.307436
0.306881
0.305653
0.303764
0.301232
0.298087
0.294375
0.29016
0.306537
0.305746
0.304165
0.30181
0.298704
0.294887
0.29042
0.285398
0.27997
0.274358
0.305746
0.305012
0.303516
0.301274
0.298307
0.294652
0.290366
0.285539
0.280303
0.274861
0.304166
0.303516
0.302136
0.300038
0.297244
0.293788
0.289725
0.285136
0.280147
0.274943
0.301811
0.301274
0.300038
0.298116
0.295527
0.292305
0.288503
0.284197
0.279505
0.274598
0.298706
0.298308
0.297245
0.295527
0.293176
0.290223
0.286719
0.282738
0.278391
0.273836
0.29489
0.294654
0.29379
0.292307
0.290224
0.287574
0.284406
0.28079
0.276833
0.272682
0.290423
0.29037
0.289728
0.288505
0.286721
0.284407
0.28161
0.2784
0.274876
0.27118
0.285403
0.285543
0.28514
0.284201
0.282741
0.280792
0.278401
0.275634
0.272588
0.269392
0.279976
0.280309
0.280153
0.27951
0.278395
0.276836
0.274879
0.272589
0.270059
0.267411
0.274365
0.274869
0.27495
0.274604
0.273841
0.272687
0.271183
0.269395
0.267412
0.265355
0.268423
0.267769
0.266468
0.264542
0.262025
0.258968
0.255446
0.251567
0.24748
0.243398
0.26777
0.267164
0.265936
0.264105
0.261704
0.25878
0.255402
0.251671
0.247724
0.243755
0.266469
0.265936
0.264807
0.263101
0.260848
0.258092
0.254898
0.251359
0.247603
0.243807
0.264543
0.264106
0.263102
0.261548
0.259472
0.256917
0.253944
0.250639
0.24712
0.243552
0.262027
0.261705
0.260849
0.259473
0.257603
0.255281
0.252562
0.249527
0.246289
0.242998
0.258971
0.258782
0.258094
0.256919
0.255281
0.253219
0.250786
0.248057
0.245138
0.242168
0.25545
0.255406
0.254901
0.253947
0.252563
0.250787
0.248667
0.246277
0.243712
0.241103
0.251572
0.251676
0.251364
0.250642
0.24953
0.24806
0.246278
0.244252
0.242073
0.239858
0.247487
0.24773
0.247609
0.247125
0.246293
0.245142
0.243715
0.242074
0.240306
0.238516
0.243406
0.243763
0.243815
0.243559
0.243004
0.242173
0.241106
0.239861
0.238518
0.23718
0.234654
0.234095
0.232983
0.231334
0.229179
0.226556
0.223518
0.220138
0.216507
0.212741
0.234096
0.233578
0.232527
0.23096
0.228903
0.226392
0.223479
0.220227
0.216724
0.213075
0.232983
0.232527
0.23156
0.230099
0.228167
0.225797
0.223038
0.219948
0.216608
0.213115
0.231336
0.230961
0.2301
0.228767
0.226983
0.224781
0.222203
0.219305
0.21616
0.212858
0.229181
0.228904
0.228168
0.226984
0.225372
0.22336
0.220989
0.21831
0.215389
0.212311
0.226559
0.226395
0.2258
0.224783
0.223361
0.221562
0.21942
0.216983
0.214313
0.211484
0.223523
0.223482
0.223041
0.222206
0.220991
0.219421
0.217528
0.215354
0.212955
0.2104
0.220144
0.220233
0.219953
0.219309
0.218313
0.216986
0.215355
0.21346
0.21135
0.209086
0.216515
0.216731
0.216614
0.216166
0.215394
0.214317
0.212958
0.211352
0.209542
0.207584
0.21275
0.213083
0.213123
0.212866
0.212317
0.21149
0.210404
0.209089
0.207586
0.205945
0.204625
0.204124
0.203122
0.201632
0.199667
0.197245
0.194388
0.191119
0.187461
0.183427
0.204124
0.203658
0.202711
0.201291
0.199413
0.197092
0.194349
0.191206
0.187683
0.183795
0.203123
0.202711
0.201837
0.200507
0.198735
0.196535
0.193927
0.190928
0.187559
0.183834
0.201633
0.201293
0.200508
0.199287
0.197639
0.195579
0.193122
0.190287
0.187089
0.183542
0.199669
0.199415
0.198737
0.19764
0.196134
0.19423
0.191942
0.189285
0.186274
0.18292
0.197248
0.197095
0.196538
0.195581
0.194231
0.192497
0.190393
0.187929
0.185118
0.181969
0.194393
0.194354
0.19393
0.193125
0.191944
0.190394
0.188484
0.186225
0.183625
0.180691
0.191126
0.191212
0.190934
0.190291
0.189289
0.187932
0.186227
0.184181
0.181799
0.179087
0.187469
0.187691
0.187566
0.187095
0.186279
0.185122
0.183628
0.181801
0.179643
0.177157
0.183437
0.183805
0.183843
0.18355
0.182927
0.181975
0.180695
0.17909
0.177159
0.174905
0.177968
0.177504
0.176574
0.175183
0.17333
0.171019
0.168244
0.164997
0.161252
0.156968
0.177504
0.177072
0.176191
0.174863
0.17309
0.170872
0.168207
0.165084
0.161484
0.157367
0.176575
0.176192
0.175374
0.174125
0.172445
0.170335
0.167791
0.164804
0.161355
0.157408
0.175184
0.174864
0.174126
0.17297
0.171397
0.169407
0.166996
0.164155
0.160865
0.157093
0.173333
0.173092
0.172447
0.171398
0.169946
0.168088
0.165821
0.163135
0.16001
0.156418
0.171022
0.170875
0.170337
0.169409
0.168089
0.166375
0.164262
0.161739
0.158787
0.155378
0.168249
0.168211
0.167795
0.167
0.165824
0.164264
0.162313
0.159961
0.157187
0.153966
0.165003
0.165091
0.16481
0.16416
0.163139
0.161742
0.159962
0.157787
0.155197
0.152166
0.161261
0.161492
0.161363
0.160871
0.160016
0.158792
0.15719
0.155199
0.152796
0.14996
0.156979
0.157377
0.157418
0.157102
0.156426
0.155385
0.153971
0.15217
0.149962
0.147325
0.154444
0.154013
0.153148
0.151848
0.150109
0.147923
0.145277
0.14215
0.138507
0.134296
0.154014
0.153612
0.152791
0.151549
0.149882
0.147784
0.145242
0.142236
0.138735
0.134691
0.153149
0.152792
0.152028
0.150857
0.149274
0.147274
0.144844
0.141966
0.13861
0.134734
0.15185
0.15155
0.150857
0.14977
0.148283
0.146391
0.144082
0.141339
0.138133
0.134426
0.150111
0.149884
0.149276
0.148284
0.146905
0.145131
0.142952
0.14035
0.137299
0.133763
0.147927
0.147787
0.147277
0.146393
0.145132
0.143487
0.141446
0.138993
0.136102
0.132742
0.145282
0.145247
0.144848
0.144086
0.142954
0.141447
0.139554
0.137257
0.134532
0.131351
0.142157
0.142243
0.141972
0.141344
0.140354
0.138996
0.137258
0.135125
0.132573
0.129575
0.138517
0.138743
0.138618
0.13814
0.137305
0.136107
0.134536
0.132575
0.130203
0.127395
0.134308
0.134702
0.134744
0.134435
0.133772
0.132749
0.131356
0.129579
0.127397
0.124789
0.133839
0.133445
0.132655
0.131466
0.129873
0.127871
0.125447
0.122587
0.119267
0.115457
0.133446
0.133079
0.132328
0.131192
0.129666
0.127744
0.125416
0.122666
0.119475
0.115813
0.132656
0.132329
0.13163
0.130559
0.12911
0.127277
0.125052
0.122421
0.119363
0.115854
0.131467
0.131193
0.130559
0.129564
0.128202
0.12647
0.124357
0.12185
0.118932
0.11558
0.129876
0.129668
0.129111
0.128203
0.126941
0.125317
0.123325
0.120951
0.118179
0.114988
0.127875
0.127748
0.127281
0.126472
0.125318
0.123814
0.121951
0.119718
0.117099
0.114077
0.125453
0.125421
0.125057
0.12436
0.123327
0.121953
0.120229
0.118146
0.115688
0.112839
0.122595
0.122673
0.122427
0.121855
0.120955
0.119722
0.118148
0.116223
0.113935
0.111269
0.119277
0.119484
0.119372
0.118939
0.118185
0.117105
0.115691
0.113937
0.111828
0.109354
0.115469
0.115825
0.115865
0.115589
0.114997
0.114084
0.112845
0.111273
0.109356
0.107086
0.115904
0.115553
0.114848
0.11379
0.112376
0.110605
0.108472
0.105974
0.103107
0.0998671
0.115553
0.115226
0.114558
0.113547
0.112193
0.110493
0.108444
0.106043
0.103285
0.100168
0.114849
0.114558
0.113937
0.112985
0.111701
0.110082
0.108127
0.105831
0.103191
0.100204
0.113792
0.113548
0.112986
0.112103
0.110899
0.109372
0.107519
0.105337
0.102823
0.0999743
0.112379
0.112195
0.111702
0.1109
0.109786
0.10836
0.106619
0.10456
0.102181
0.0994794
0.110609
0.110497
0.110085
0.109374
0.108362
0.107047
0.105427
0.103501
0.101265
0.0987187
0.108478
0.10845
0.108132
0.107523
0.106622
0.105429
0.103941
0.102156
0.100073
0.0976919
0.105982
0.10605
0.105838
0.105343
0.104565
0.103504
0.102158
0.100526
0.0986054
0.0963987
0.103117
0.103295
0.103199
0.10283
0.102187
0.10127
0.100077
0.0986073
0.0968606
0.0948394
0.0998797
0.10018
0.100215
0.0999845
0.0994883
0.0987262
0.0976978
0.0964028
0.0948416
0.0930185
0.100353
0.100046
0.0994325
0.0985124
0.0972877
0.0957607
0.0939352
0.0918171
0.0894157
0.0867462
0.100047
0.0997616
0.0991795
0.0983015
0.0971292
0.0956647
0.0939116
0.0918753
0.0895642
0.0869921
0.0994333
0.09918
0.0986399
0.0978142
0.0967043
0.0953123
0.0936414
0.0916968
0.0894861
0.0870222
0.0985141
0.0983028
0.097815
0.0970516
0.0960139
0.094704
0.0931249
0.0912815
0.089181
0.0868356
0.0972904
0.0971316
0.0967061
0.0960149
0.0950592
0.093841
0.0923633
0.0906307
0.0886501
0.0864332
0.0957648
0.0956685
0.0953154
0.0947063
0.0938423
0.0927254
0.0913585
0.0897462
0.0878951
0.0858165
0.093941
0.093917
0.0936462
0.0931288
0.0923661
0.09136
0.0901136
0.0886311
0.0869191
0.0849886
0.0918249
0.0918826
0.0917034
0.0912872
0.0906353
0.0897495
0.0886329
0.0872898
0.0857266
0.0839539
0.0894259
0.0895738
0.0894949
0.0891889
0.0886567
0.0879004
0.0869228
0.0857285
0.0843237
0.0827189
0.086759
0.0870043
0.0870335
0.0868459
0.0864422
0.0858241
0.0849946
0.083958
0.0827211
0.081295
0.0868832
0.0866196
0.0860919
0.0853029
0.084256
0.0829564
0.0814118
0.0796327
0.0776336
0.0754353
0.0866198
0.0863747
0.0858747
0.0851223
0.0841207
0.082875
0.0813919
0.0796813
0.0777567
0.0756369
0.0860927
0.0858753
0.0854122
0.0847056
0.0837588
0.0825761
0.0811642
0.0795321
0.077692
0.0756617
0.0853045
0.0851236
0.0847064
0.0840548
0.0831716
0.0820612
0.0807296
0.0791852
0.0774396
0.075509
0.0842586
0.0841231
0.0837606
0.0831727
0.082362
0.0813327
0.0800903
0.0786428
0.0770008
0.0751798
0.0829605
0.0828787
0.0825793
0.0820635
0.0813339
0.0803942
0.0792498
0.0779079
0.0763786
0.0746764
0.0814176
0.0813973
0.0811689
0.0807335
0.0800931
0.0792513
0.078213
0.0769852
0.0755772
0.0740027
0.0796404
0.0796886
0.0795386
0.0791909
0.0786473
0.0779111
0.076987
0.0758813
0.0746028
0.0731642
0.0776436
0.0777661
0.0777007
0.0774473
0.0770074
0.0763838
0.0755809
0.0746048
0.0734635
0.072169
0.075448
0.0756488
0.0756728
0.0755191
0.0751886
0.0746839
0.0740086
0.0731684
0.0721711
0.0710289
0.0752064
0.0749806
0.0745291
0.0738547
0.0729618
0.0718561
0.0705459
0.0690415
0.0673569
0.0655096
0.0749809
0.074771
0.0743433
0.0737006
0.0728466
0.0717869
0.070529
0.0690826
0.0674604
0.0656787
0.0745298
0.0743438
0.0739481
0.0733451
0.0725384
0.0715331
0.0703361
0.0689565
0.0674059
0.0656995
0.0738563
0.0737018
0.0733459
0.0727905
0.072039
0.0710962
0.0699683
0.0686637
0.0671933
0.065571
0.0729644
0.0728489
0.0725402
0.07204
0.0713515
0.0704787
0.0694278
0.0682062
0.066824
0.0652943
0.0718601
0.0717905
0.0715361
0.0710984
0.07048
0.0696847
0.068718
0.067587
0.0663007
0.0648714
0.0705514
0.0705341
0.0703406
0.069972
0.0694304
0.0687195
0.067844
0.0668105
0.0656272
0.0643054
0.069049
0.0690896
0.0689628
0.0686692
0.0682106
0.0675902
0.0668122
0.0658825
0.0648087
0.063601
0.0673665
0.0674695
0.0674143
0.0672008
0.0668304
0.0663058
0.0656307
0.0648105
0.0638519
0.0627644
0.0655218
0.0656903
0.0657102
0.0655808
0.0653029
0.0648786
0.064311
0.0636049
0.0627665
0.0618051
0.065066
0.0648722
0.0644847
0.0639062
0.0631404
0.0621927
0.0610697
0.0597798
0.0583331
0.0567415
0.0648724
0.0646923
0.0643253
0.0637739
0.0630417
0.0621334
0.0610552
0.059815
0.058422
0.0568875
0.0644854
0.0643258
0.0639863
0.0634691
0.0627775
0.0619159
0.0608899
0.0597068
0.0583751
0.0569052
0.0639076
0.0637751
0.0634698
0.0629937
0.0623495
0.0615413
0.0605745
0.0594554
0.0581921
0.0567941
0.0631429
0.0630439
0.0627792
0.0623504
0.0617602
0.0610121
0.0601108
0.0590625
0.0578741
0.0565547
0.0621964
0.0621368
0.0619187
0.0615434
0.0610132
0.0603313
0.0595018
0.0585303
0.057423
0.0561884
0.061075
0.0610601
0.0608941
0.060578
0.0601134
0.0595032
0.0587512
0.057862
0.0568415
0.0556973
0.0597868
0.0598216
0.0597127
0.0594606
0.0590666
0.0585332
0.0578636
0.057062
0.0561333
0.0550845
0.0583422
0.0584306
0.058383
0.0581991
0.0578801
0.0574277
0.0568449
0.0561351
0.0553027
0.0543539
0.056753
0.0568984
0.0569153
0.0568033
0.0565627
0.0561951
0.0557026
0.0550882
0.0543559
0.0535116
0.0562455
0.0560782
0.0557435
0.0552437
0.0545818
0.0537618
0.0527886
0.0516681
0.0504067
0.0490115
0.0560784
0.0559228
0.0556059
0.0551295
0.0544964
0.0537104
0.0527761
0.0516987
0.0504844
0.0491399
0.0557442
0.0556063
0.055313
0.054866
0.0542679
0.053522
0.0526326
0.0516045
0.0504433
0.0491554
0.0552451
0.0551306
0.0548667
0.0544549
0.0538975
0.0531975
0.0523587
0.0513856
0.0502833
0.0490576
0.0545841
0.0544984
0.0542694
0.0538984
0.0533872
0.0527385
0.0519558
0.0510431
0.050005
0.0488468
0.0537652
0.0537135
0.0535246
0.0531994
0.0527396
0.0521474
0.0514259
0.0505786
0.0496096
0.0485239
0.0527934
0.0527805
0.0526365
0.0523619
0.0519582
0.0514272
0.0507715
0.0499943
0.0490989
0.0480901
0.0516745
0.0517047
0.0516099
0.0513903
0.0510469
0.0505813
0.0499957
0.0492926
0.048475
0.0475472
0.050415
0.0504923
0.0504506
0.0502897
0.0500104
0.0496139
0.0491019
0.0484766
0.0477405
0.0468973
0.0490221
0.0491499
0.0491647
0.049066
0.0488542
0.0485301
0.048095
0.0475506
0.046899
0.0461442
0.0485654
0.04842
0.0481292
0.0476946
0.0471185
0.0464038
0.045554
0.0445731
0.0434651
0.0422345
0.0484202
0.0482851
0.0480096
0.0475952
0.0470442
0.046359
0.0455431
0.0445999
0.0435336
0.042348
0.0481298
0.04801
0.0477549
0.047366
0.0468451
0.0461946
0.0454176
0.0445173
0.0434974
0.0423617
0.0476958
0.0475962
0.0473666
0.047008
0.0465222
0.0459113
0.045178
0.0443253
0.0433565
0.0422753
0.0471206
0.0470459
0.0468465
0.046523
0.046077
0.0455103
0.0448253
0.0440247
0.0431114
0.0420889
0.0464069
0.0463618
0.046197
0.0459131
0.0455112
0.0449931
0.0443607
0.0436164
0.0427628
0.041803
0.0455583
0.045547
0.0454211
0.0451809
0.0448274
0.0443618
0.043786
0.043102
0.0423118
0.0414185
0.0445788
0.0446053
0.0445222
0.0443296
0.0440281
0.0436188
0.0431032
0.0424829
0.0417597
0.0409363
0.0434726
0.0435406
0.0435039
0.0433623
0.0431163
0.0427666
0.0423145
0.0417611
0.0411081
0.0403578
0.0422439
0.0423569
0.04237
0.0422828
0.0420954
0.0418085
0.0414228
0.0409393
0.0403594
0.0396856
0.0418765
0.0417497
0.0414958
0.0411163
0.0406128
0.0399874
0.0392428
0.0383819
0.0374077
0.0363234
0.0417499
0.0416319
0.0413914
0.0410295
0.0405477
0.0399482
0.0392332
0.0384055
0.0374679
0.0364235
0.0414964
0.0413917
0.041169
0.0408291
0.0403736
0.0398042
0.0391232
0.038333
0.0374361
0.0364356
0.0411174
0.0410303
0.0408296
0.0405161
0.0400911
0.0395561
0.0389131
0.0381643
0.0373122
0.0363594
0.0406145
0.0405493
0.0403748
0.0400917
0.0397012
0.0392045
0.0386035
0.0379
0.0370963
0.0361951
0.0399901
0.0399506
0.0398063
0.0395576
0.0392053
0.0387508
0.0381954
0.037541
0.0367893
0.0359429
0.0392465
0.0392367
0.0391262
0.0389155
0.0386053
0.0381964
0.0376902
0.0370881
0.0363917
0.0356035
0.0383869
0.0384102
0.0383372
0.0381679
0.037903
0.037543
0.0370892
0.0365426
0.0359047
0.0351777
0.0374141
0.037474
0.0374417
0.0373171
0.0371005
0.0367926
0.036394
0.0359059
0.0353294
0.0346665
0.0363315
0.0364312
0.0364427
0.0363659
0.0362007
0.0359476
0.0356072
0.0351803
0.0346678
0.0340721
0.0360529
0.0359419
0.0357198
0.0353877
0.0349468
0.0343989
0.033746
0.0329907
0.0321355
0.0311833
0.0359421
0.0358389
0.0356284
0.0353117
0.0348898
0.0343645
0.0337376
0.0330114
0.0321884
0.0312712
0.0357203
0.0356287
0.0354338
0.0351362
0.0347373
0.0342383
0.0336411
0.0329478
0.0321605
0.0312819
0.0353886
0.0353124
0.0351367
0.0348621
0.0344897
0.0340207
0.0334568
0.0327998
0.0320517
0.0312151
0.0349483
0.0348911
0.0347383
0.0344903
0.034148
0.0337125
0.0331852
0.0325678
0.0318622
0.0310708
0.0344011
0.0343665
0.03424
0.034022
0.0337131
0.0333144
0.0328271
0.0322526
0.0315926
0.0308494
0.0337492
0.0337405
0.0336437
0.0334589
0.0331867
0.0328279
0.0323836
0.031855
0.0312435
0.0305515
0.0329949
0.0330154
0.0329514
0.0328028
0.0325703
0.0322543
0.0318559
0.031376
0.0308159