/*--------------------------------*- C++ -*----------------------------------*\
| =========                 |                                                 |
| \\      /  F ield         | foam-extend: Open Source CFD                    |
|  \\    /   O peration     | Version:     3.1                                |
|   \\  /    A nd           | Web:         http://www.extend-project.de       |
|    \\/     M anipulation  |                                                 |
\*---------------------------------------------------------------------------*/
FoamFile
{
    version     2.0;
    format      ascii;
    class       surfaceScalarField;
    location    "0.0015";
    object      phi_0;
}
// * * * * * * * * * * * * * * * * * * * * * * * * * * * * * * * * * * * * * //

dimensions      [0 3 -1 0 0 0 0];

internalField   nonuniform List<scalar> 
45800
(
-1.52691e-10
-1.53215e-10
2.92742e-08
-2.94722e-10
-1.50575e-10
2.87976e-08
-4.23272e-10
-1.44372e-10
2.83572e-08
-5.39961e-10
-1.36907e-10
2.79573e-08
-6.46654e-10
-1.28981e-10
2.75971e-08
-7.44422e-10
-1.20767e-10
2.72745e-08
-8.33447e-10
-1.12505e-10
2.69876e-08
-9.12695e-10
-1.04579e-10
2.67349e-08
-9.79198e-10
-9.76694e-11
2.65152e-08
-9.1873e-11
2.63268e-08
-1.02675e-09
-1.50052e-10
-2.94923e-10
2.87967e-08
-2.92194e-10
-2.92702e-10
2.83211e-08
-4.22801e-10
-2.84274e-10
2.78797e-08
-5.41655e-10
-2.72455e-10
2.7474e-08
-6.49937e-10
-2.59321e-10
2.71048e-08
-7.48704e-10
-2.45693e-10
2.67712e-08
-8.38211e-10
-2.32064e-10
2.64713e-08
-9.1757e-10
-2.1913e-10
2.62036e-08
-9.84321e-10
-2.0787e-10
2.59666e-08
-1.98742e-10
2.57573e-08
-1.03123e-09
-1.4415e-10
-4.22954e-10
2.83565e-08
-2.83741e-10
-4.22784e-10
2.78789e-08
-4.14882e-10
-4.15283e-10
2.74349e-08
-5.35663e-10
-4.02282e-10
2.70231e-08
-6.45775e-10
-3.8633e-10
2.66438e-08
-7.45869e-10
-3.6933e-10
2.62973e-08
-8.36279e-10
-3.52302e-10
2.59827e-08
-9.16223e-10
-3.36107e-10
2.56981e-08
-9.83809e-10
-3.2202e-10
2.54422e-08
-3.11172e-10
2.52121e-08
-1.03216e-09
-1.36968e-10
-5.39449e-10
2.79572e-08
-2.72288e-10
-5.41247e-10
2.74734e-08
-4.01835e-10
-5.35608e-10
2.70224e-08
-5.23085e-10
-5.23452e-10
2.66026e-08
-6.34525e-10
-5.06711e-10
2.62125e-08
-7.35718e-10
-4.87601e-10
2.58519e-08
-8.26739e-10
-4.6806e-10
2.55208e-08
-9.07044e-10
-4.49417e-10
2.5218e-08
-9.75422e-10
-4.33071e-10
2.49423e-08
-4.21228e-10
2.46917e-08
-1.02586e-09
-1.29092e-10
-6.46104e-10
2.75972e-08
-2.59452e-10
-6.49439e-10
2.71047e-08
-3.86226e-10
-6.45426e-10
2.66432e-08
-5.06288e-10
-6.34526e-10
2.62118e-08
-6.17765e-10
-6.18201e-10
2.58093e-08
-7.19473e-10
-5.98054e-10
2.5434e-08
-8.10652e-10
-5.76172e-10
2.5085e-08
-8.90735e-10
-5.54757e-10
2.47624e-08
-9.59343e-10
-5.35705e-10
2.44658e-08
-5.22796e-10
2.41944e-08
-1.01165e-09
-1.20867e-10
-7.4387e-10
2.72746e-08
-2.45884e-10
-7.48204e-10
2.67712e-08
-3.69505e-10
-7.45456e-10
2.62972e-08
-4.87531e-10
-7.35477e-10
2.58514e-08
-5.97564e-10
-7.19627e-10
2.54333e-08
-6.98398e-10
-6.99073e-10
2.50418e-08
-7.88856e-10
-6.75037e-10
2.46748e-08
-8.67813e-10
-6.49764e-10
2.43311e-08
-9.35445e-10
-6.26006e-10
2.40116e-08
-6.10532e-10
2.37187e-08
-9.88679e-10
-1.12598e-10
-8.32935e-10
2.69878e-08
-2.32243e-10
-8.37749e-10
2.64714e-08
-3.52557e-10
-8.35893e-10
2.59828e-08
-4.68337e-10
-8.26443e-10
2.55207e-08
-5.76144e-10
-8.10496e-10
2.50844e-08
-6.74317e-10
-7.89099e-10
2.46737e-08
-7.62058e-10
-7.62803e-10
2.42873e-08
-8.38048e-10
-7.32577e-10
2.39222e-08
-9.02616e-10
-7.00728e-10
2.35782e-08
-6.78727e-10
2.32625e-08
-9.5523e-10
-1.04665e-10
-9.12265e-10
2.67351e-08
-2.19295e-10
-9.17183e-10
2.62037e-08
-3.36352e-10
-9.15896e-10
2.56982e-08
-4.49765e-10
-9.06769e-10
2.52181e-08
-5.55121e-10
-8.9047e-10
2.47623e-08
-6.4955e-10
-8.67588e-10
2.433e-08
-7.31846e-10
-8.38111e-10
2.3921e-08
-8.00961e-10
-8.01377e-10
2.35325e-08
-8.58232e-10
-7.57351e-10
2.31633e-08
-7.20909e-10
2.28235e-08
-9.07633e-10
-9.77417e-11
-9.78885e-10
2.65154e-08
-2.08006e-10
-9.84045e-10
2.59668e-08
-3.22215e-10
-9.8358e-10
2.54423e-08
-4.33324e-10
-9.7523e-10
2.49425e-08
-5.36022e-10
-9.59155e-10
2.44659e-08
-6.26103e-10
-9.35218e-10
2.40114e-08
-7.00455e-10
-9.02438e-10
2.35776e-08
-7.56991e-10
-8.58286e-10
2.31629e-08
-7.98112e-10
-7.98354e-10
2.27662e-08
-7.3211e-10
2.23988e-08
-8.3758e-10
-9.19264e-11
2.6327e-08
-1.02656e-09
-1.98841e-10
2.57574e-08
-1.03107e-09
-3.11306e-10
2.52123e-08
-1.03204e-09
-4.21385e-10
2.46918e-08
-1.02577e-09
-5.22954e-10
2.41945e-08
-1.01156e-09
-6.10632e-10
2.37188e-08
-9.88594e-10
-6.78763e-10
2.32625e-08
-9.55158e-10
-7.20842e-10
2.28233e-08
-9.07604e-10
-7.31911e-10
2.23984e-08
-8.37622e-10
2.1998e-08
-7.3337e-10
-7.33476e-10
-2.53456e-11
-2.58234e-11
2.93253e-08
-4.53235e-11
-2.42462e-11
2.88418e-08
-5.73922e-11
-2.05109e-11
2.83898e-08
-6.32935e-11
-1.65132e-11
2.79797e-08
-6.49666e-11
-1.28888e-11
2.76117e-08
-6.3483e-11
-9.74641e-12
2.72828e-08
-5.88709e-11
-7.21858e-12
2.69902e-08
-4.96711e-11
-5.45254e-12
2.67311e-08
-3.23236e-11
-4.43544e-12
2.65023e-08
-2.73477e-12
2.62978e-08
-5.61321e-13
-2.37751e-11
-4.54789e-11
2.88402e-08
-4.4326e-11
-4.47661e-11
2.83622e-08
-5.86442e-11
-4.01641e-11
2.79137e-08
-6.68743e-11
-3.38373e-11
2.74995e-08
-7.03731e-11
-2.75583e-11
2.7123e-08
-7.02364e-11
-2.20224e-11
2.67833e-08
-6.65729e-11
-1.7563e-11
2.6478e-08
-5.80188e-11
-1.44899e-11
2.62041e-08
-4.13095e-11
-1.25845e-11
2.5958e-08
-8.31213e-12
2.57318e-08
-1.02336e-11
-2.03284e-11
-5.70403e-11
2.83883e-08
-3.97089e-11
-5.85747e-11
2.79121e-08
-5.5389e-11
-5.57055e-11
2.74661e-08
-6.61389e-11
-4.94742e-11
2.70495e-08
-7.19952e-11
-4.20537e-11
2.66641e-08
-7.36746e-11
-3.51534e-11
2.63121e-08
-7.13044e-11
-2.95802e-11
2.59924e-08
-6.34665e-11
-2.56996e-11
2.57015e-08
-4.70981e-11
-2.31736e-11
2.54364e-08
-1.65358e-11
2.51897e-08
-1.6409e-11
-1.65967e-11
-6.2747e-11
2.79795e-08
-3.3733e-11
-6.64238e-11
2.74983e-08
-4.91259e-11
-6.60141e-11
2.70481e-08
-6.12674e-11
-6.1529e-11
2.66268e-08
-6.91784e-11
-5.4523e-11
2.62329e-08
-7.255e-11
-4.70231e-11
2.58671e-08
-7.11541e-11
-4.07064e-11
2.55305e-08
-6.35685e-11
-3.63015e-11
2.5221e-08
-4.69671e-11
-3.32411e-11
2.49358e-08
-2.42944e-11
2.46689e-08
-1.63789e-11
-1.30189e-11
-6.4377e-11
2.76119e-08
-2.77356e-11
-6.98289e-11
2.71228e-08
-4.20359e-11
-7.15799e-11
2.66631e-08
-5.42239e-11
-6.90815e-11
2.62316e-08
-6.31374e-11
-6.3437e-11
2.58271e-08
-6.77831e-11
-5.61414e-11
2.54477e-08
-6.70125e-11
-4.90832e-11
2.50926e-08
-5.90746e-11
-4.38243e-11
2.4762e-08
-4.14342e-11
-3.99643e-11
2.44549e-08
-2.8594e-11
2.41675e-08
-1.02142e-11
-9.86388e-12
-6.28879e-11
2.7283e-08
-2.22537e-11
-6.96851e-11
2.67835e-08
-3.53996e-11
-7.31892e-11
2.6312e-08
-4.70684e-11
-7.22084e-11
2.58662e-08
-5.58091e-11
-6.78004e-11
2.54464e-08
-6.06631e-11
-6.11608e-11
2.50517e-08
-5.99803e-11
-5.35384e-11
2.46786e-08
-5.10872e-11
-4.67403e-11
2.43251e-08
-3.12578e-11
-4.10556e-11
2.39928e-08
-2.66886e-11
2.36836e-08
1.91126e-12
-7.32863e-12
-5.83112e-11
2.69905e-08
-1.77805e-11
-6.60515e-11
2.64782e-08
-2.98998e-11
-7.08358e-11
2.59926e-08
-4.10803e-11
-7.07435e-11
2.55305e-08
-4.91999e-11
-6.67093e-11
2.50914e-08
-5.30134e-11
-6.00387e-11
2.46764e-08
-5.11985e-11
-5.17229e-11
2.42837e-08
-4.04317e-11
-4.29445e-11
2.39076e-08
-1.69603e-11
-3.4051e-11
2.35477e-08
-1.56719e-11
2.32143e-08
2.01721e-11
-5.55513e-12
-4.91898e-11
2.67315e-08
-1.46931e-11
-5.75668e-11
2.62044e-08
-2.60056e-11
-6.30462e-11
2.57018e-08
-3.67338e-11
-6.31649e-11
2.52213e-08
-4.42981e-11
-5.8646e-11
2.47618e-08
-4.66806e-11
-5.06617e-11
2.4323e-08
-4.24189e-11
-4.02667e-11
2.39053e-08
-2.81253e-11
-2.83209e-11
2.35036e-08
8.17349e-13
-1.50593e-11
2.31154e-08
7.73511e-12
2.27558e-08
4.50958e-11
-4.52629e-12
-3.19512e-11
2.65027e-08
-1.27611e-11
-4.09589e-11
2.59584e-08
-2.34306e-11
-4.67654e-11
2.54367e-08
-3.35767e-11
-4.66346e-11
2.49361e-08
-4.03748e-11
-4.10726e-11
2.44551e-08
-4.12603e-11
-3.08276e-11
2.39924e-08
-3.39259e-11
-1.65656e-11
2.35466e-08
-1.48683e-11
9.65516e-13
2.31145e-08
2.09862e-11
2.09096e-11
2.26944e-08
4.76505e-11
2.23019e-08
7.7902e-11
-2.80946e-12
2.62981e-08
-3.01097e-13
-8.45406e-12
2.57321e-08
-9.98831e-12
-1.67339e-11
2.519e-08
-1.61743e-11
-2.45339e-11
2.46691e-08
-1.61434e-11
-2.88461e-11
2.41678e-08
-9.96677e-12
-2.68858e-11
2.36838e-08
2.17231e-12
-1.58125e-11
2.32145e-08
2.04234e-11
7.69848e-12
2.27554e-08
4.52979e-11
4.77481e-11
2.23013e-08
7.80194e-11
2.18661e-08
1.13665e-10
1.13673e-10
1.52386e-10
1.52e-10
2.9021e-08
3.02935e-10
1.5389e-10
2.85374e-08
4.54279e-10
1.57172e-10
2.80813e-08
6.04858e-10
1.6059e-10
2.76686e-08
7.52657e-10
1.63609e-10
2.73003e-08
8.96073e-10
1.6604e-10
2.69733e-08
1.0339e-09
1.67634e-10
2.66848e-08
1.16546e-09
1.68089e-10
2.64315e-08
1.29052e-09
1.67344e-10
2.62099e-08
1.68003e-10
2.60128e-08
1.4075e-09
1.5425e-10
3.02858e-10
2.8535e-08
3.04807e-10
3.04489e-10
2.80611e-08
4.54673e-10
3.08543e-10
2.76125e-08
6.03667e-10
3.13852e-10
2.71973e-08
7.50332e-10
3.18883e-10
2.6821e-08
8.93078e-10
3.22924e-10
2.64837e-08
1.03071e-09
3.25435e-10
2.61825e-08
1.16259e-09
3.25856e-10
2.59144e-08
1.2884e-09
3.24383e-10
2.56752e-08
3.27568e-10
2.54542e-08
1.40642e-09
1.57261e-10
4.54681e-10
2.80793e-08
3.08831e-10
4.54812e-10
2.76102e-08
4.57514e-10
4.57335e-10
2.71686e-08
6.04219e-10
4.62429e-10
2.67542e-08
7.48641e-10
4.68103e-10
2.63705e-08
8.89599e-10
4.72713e-10
2.60214e-08
1.02593e-09
4.75282e-10
2.57062e-08
1.15717e-09
4.751e-10
2.5421e-08
1.28312e-09
4.72533e-10
2.51623e-08
4.78036e-10
2.49201e-08
1.4022e-09
1.60459e-10
6.05455e-10
2.76682e-08
3.13811e-10
6.04175e-10
2.71956e-08
4.62572e-10
6.0443e-10
2.67522e-08
6.07865e-10
6.07767e-10
2.63362e-08
7.50136e-10
6.12701e-10
2.5946e-08
8.89124e-10
6.17112e-10
2.55837e-08
1.02412e-09
6.19184e-10
2.52516e-08
1.15475e-09
6.17897e-10
2.49476e-08
1.28085e-09
6.13904e-10
2.46683e-08
6.21415e-10
2.44057e-08
1.40063e-09
1.63445e-10
7.53304e-10
2.73006e-08
3.18617e-10
7.50949e-10
2.68209e-08
4.67933e-10
7.49148e-10
2.63691e-08
6.12755e-10
7.50352e-10
2.59442e-08
7.53645e-10
7.53539e-10
2.55454e-08
8.90789e-10
7.56961e-10
2.51707e-08
1.02434e-09
7.58346e-10
2.48199e-08
1.15449e-09
7.55826e-10
2.44939e-08
1.28102e-09
7.5016e-10
2.41921e-08
7.59313e-10
2.3909e-08
1.40161e-09
1.65887e-10
8.96734e-10
2.69737e-08
3.22624e-10
8.93711e-10
2.6484e-08
4.72337e-10
8.90198e-10
2.60212e-08
6.16829e-10
8.89608e-10
2.55825e-08
7.56999e-10
8.90924e-10
2.51688e-08
8.92973e-10
8.92687e-10
2.478e-08
1.02518e-09
8.93061e-10
2.44117e-08
1.1548e-09
8.89539e-10
2.40617e-08
1.28226e-09
8.8236e-10
2.37332e-08
8.92821e-10
2.34279e-08
1.40449e-09
1.67489e-10
1.03454e-09
2.66852e-08
3.25148e-10
1.03132e-09
2.6183e-08
4.74859e-10
1.02653e-09
2.57066e-08
6.18644e-10
1.0247e-09
2.52516e-08
7.5793e-10
1.02484e-09
2.48182e-08
8.93214e-10
1.02527e-09
2.44085e-08
1.02466e-09
1.02438e-09
2.40209e-08
1.15397e-09
1.01993e-09
2.36479e-08
1.28309e-09
1.01164e-09
2.32893e-08
1.02281e-09
2.29588e-08
1.40867e-09
1.67953e-10
1.16603e-09
2.64321e-08
3.25587e-10
1.16314e-09
2.59149e-08
4.747e-10
1.15772e-09
2.54214e-08
6.1735e-10
1.15534e-09
2.4948e-08
7.55177e-10
1.15515e-09
2.44936e-08
8.89252e-10
1.15543e-09
2.40588e-08
1.02005e-09
1.1543e-09
2.36446e-08
1.14958e-09
1.14964e-09
2.32444e-08
1.28125e-09
1.14035e-09
2.2855e-08
1.14987e-09
2.24964e-08
1.41354e-09
1.67221e-10
1.29098e-09
2.62105e-08
3.24143e-10
1.28886e-09
2.56758e-08
4.72187e-10
1.2836e-09
2.51628e-08
6.13462e-10
1.28137e-09
2.46688e-08
7.49645e-10
1.2816e-09
2.41925e-08
8.81984e-10
1.28293e-09
2.37326e-08
1.01146e-09
1.2837e-09
2.32877e-08
1.14024e-09
1.28157e-09
2.28538e-08
1.27321e-09
1.27331e-09
2.24285e-08
1.27469e-09
2.20318e-08
1.41857e-09
1.67897e-10
2.60134e-08
1.40785e-09
3.27366e-10
2.54547e-08
1.40678e-09
4.77753e-10
2.49206e-08
1.40258e-09
6.21073e-10
2.44061e-08
1.40104e-09
7.58949e-10
2.39094e-08
1.40206e-09
8.92506e-10
2.34283e-08
1.40495e-09
1.02252e-09
2.2959e-08
1.40912e-09
1.14964e-09
2.2496e-08
1.41391e-09
1.27461e-09
2.20308e-08
1.41881e-09
2.15818e-08
1.41672e-09
1.41683e-09
3.50384e-10
3.50112e-10
2.83205e-08
6.90762e-10
3.52397e-10
2.78446e-08
1.02403e-09
3.55264e-10
2.73927e-08
1.34923e-09
3.58275e-10
2.69851e-08
1.66462e-09
3.61055e-10
2.66238e-08
1.96836e-09
3.63337e-10
2.63063e-08
2.25829e-09
3.64748e-10
2.60301e-08
2.53192e-09
3.64835e-10
2.5793e-08
2.78589e-09
3.63446e-10
2.55925e-08
3.63712e-10
2.54219e-08
3.01303e-09
3.52612e-10
6.90755e-10
2.78418e-08
6.93847e-10
6.93662e-10
2.73786e-08
1.02677e-09
6.97527e-10
2.69373e-08
1.35146e-09
7.02327e-10
2.65285e-08
1.66672e-09
7.06912e-10
2.61599e-08
1.97075e-09
7.10628e-10
2.58323e-08
2.26153e-09
7.12718e-10
2.55438e-08
2.53671e-09
7.12385e-10
2.52917e-08
2.79293e-09
7.098e-10
2.50726e-08
7.13219e-10
2.48754e-08
3.02218e-09
3.55234e-10
1.02445e-09
2.73903e-08
6.97609e-10
1.02694e-09
2.69345e-08
1.02999e-09
1.02994e-09
2.65038e-08
1.35309e-09
1.03492e-09
2.60985e-08
1.66662e-09
1.04014e-09
2.57237e-08
1.96924e-09
1.0442e-09
2.53852e-08
2.259e-09
1.04605e-09
2.50831e-08
2.53378e-09
1.04464e-09
2.48139e-08
2.79056e-09
1.04039e-09
2.45749e-08
1.04677e-09
2.43553e-08
3.02178e-09
3.58106e-10
1.34983e-09
2.69848e-08
7.02124e-10
1.35197e-09
2.65266e-08
1.03483e-09
1.35332e-09
2.60961e-08
1.35705e-09
1.35707e-09
2.56918e-08
1.66881e-09
1.36183e-09
2.53126e-08
1.96955e-09
1.36548e-09
2.49617e-08
2.25789e-09
1.36627e-09
2.46431e-08
2.53189e-09
1.36303e-09
2.43552e-08
2.78867e-09
1.35657e-09
2.40953e-08
1.36543e-09
2.38547e-08
3.02099e-09
3.60881e-10
1.66528e-09
2.66242e-08
7.06585e-10
1.66735e-09
2.61598e-08
1.03978e-09
1.66714e-09
2.5722e-08
1.36163e-09
1.66906e-09
2.53103e-08
1.67222e-09
1.67224e-09
2.49244e-08
1.97101e-09
1.67478e-09
2.45626e-08
2.2574e-09
1.67416e-09
2.42256e-08
2.5303e-09
1.66843e-09
2.39156e-08
2.78694e-09
1.65906e-09
2.3633e-08
1.66963e-09
2.33717e-08
3.02011e-09
3.63174e-10
1.96903e-09
2.63068e-08
7.10305e-10
1.97141e-09
2.58328e-08
1.04374e-09
1.96989e-09
2.53851e-08
1.36496e-09
1.97009e-09
2.49602e-08
1.67453e-09
1.97117e-09
2.45603e-08
1.97184e-09
1.97166e-09
2.41858e-08
2.25613e-09
1.96928e-09
2.38323e-08
2.52733e-09
1.96093e-09
2.3498e-08
2.78384e-09
1.94795e-09
2.31878e-08
1.95908e-09
2.29039e-08
3.0184e-09
3.64593e-10
2.25896e-09
2.60307e-08
7.1241e-10
2.26219e-09
2.55444e-08
1.04559e-09
2.25967e-09
2.50836e-08
1.36562e-09
2.25858e-09
2.46431e-08
1.67343e-09
2.25799e-09
2.42236e-08
1.96902e-09
2.25618e-09
2.38284e-08
2.25147e-09
2.25133e-09
2.34564e-08
2.5208e-09
2.24024e-09
2.30993e-08
2.7773e-09
2.22321e-09
2.27576e-08
2.23273e-09
2.24475e-08
3.01489e-09
3.64691e-10
2.53253e-09
2.57938e-08
7.121e-10
2.53733e-09
2.52924e-08
1.04421e-09
2.53443e-09
2.48146e-08
1.36246e-09
2.5326e-09
2.43557e-08
1.66768e-09
2.5311e-09
2.39153e-08
1.96024e-09
2.52799e-09
2.34944e-08
2.23989e-09
2.52108e-09
2.30952e-08
2.50711e-09
2.50732e-09
2.27101e-08
2.76385e-09
2.48541e-09
2.23361e-08
2.48836e-09
2.19966e-08
3.00809e-09
3.63315e-10
2.78641e-09
2.55933e-08
7.09545e-10
2.79346e-09
2.50734e-08
1.04002e-09
2.79113e-09
2.45756e-08
1.35612e-09
2.78931e-09
2.4096e-08
1.65856e-09
2.78765e-09
2.36335e-08
1.94746e-09
2.7846e-09
2.31871e-08
2.22268e-09
2.77794e-09
2.27556e-08
2.48499e-09
2.76418e-09
2.23346e-08
2.7385e-09
2.73868e-09
2.19217e-08
2.72283e-09
2.15398e-08
2.99605e-09
3.63599e-10
2.54227e-08
3.01346e-09
7.13005e-10
2.48762e-08
3.02262e-09
1.04647e-09
2.4356e-08
3.02225e-09
1.36507e-09
2.38553e-08
3.02151e-09
1.66925e-09
2.33722e-08
3.02067e-09
1.95874e-09
2.29044e-08
3.01896e-09
2.23235e-09
2.2448e-08
3.01541e-09
2.48795e-09
2.19961e-08
3.00851e-09
2.72259e-09
2.15386e-08
2.99628e-09
2.10969e-08
2.9651e-09
2.96525e-09
5.54399e-10
5.5424e-10
2.72118e-08
1.09079e-09
5.57003e-10
2.67512e-08
1.61273e-09
5.59672e-10
2.63111e-08
2.12055e-09
5.62697e-10
2.59146e-08
2.6136e-09
5.65934e-10
2.55649e-08
3.09063e-09
5.6907e-10
2.52602e-08
3.54965e-09
5.71659e-10
2.49994e-08
3.98771e-09
5.7318e-10
2.47818e-08
4.40011e-09
5.73495e-10
2.46066e-08
5.76469e-10
2.44691e-08
4.77641e-09
5.57068e-10
1.09082e-09
2.67481e-08
1.09534e-09
1.09527e-09
2.6302e-08
1.61828e-09
1.09953e-09
2.58745e-08
2.12684e-09
1.10474e-09
2.54779e-08
2.62083e-09
1.11026e-09
2.51216e-08
3.09912e-09
1.11563e-09
2.48075e-08
3.55988e-09
1.11997e-09
2.45347e-08
4.00036e-09
1.12237e-09
2.4302e-08
4.41583e-09
1.12316e-09
2.41075e-08
1.13252e-09
2.39411e-08
4.79406e-09
5.59523e-10
1.6131e-09
2.63085e-08
1.09941e-09
1.61841e-09
2.58715e-08
1.62291e-09
1.62293e-09
2.54569e-08
2.13101e-09
1.62931e-09
2.50658e-08
2.62413e-09
1.63621e-09
2.47047e-08
3.10164e-09
1.64265e-09
2.43807e-08
3.56178e-09
1.64769e-09
2.40952e-08
4.00202e-09
1.65016e-09
2.38459e-08
4.41806e-09
1.65069e-09
2.36314e-08
1.6661e-09
2.34417e-08
4.79817e-09
5.62514e-10
2.12109e-09
2.59143e-08
1.10439e-09
2.12727e-09
2.54758e-08
1.62903e-09
2.13117e-09
2.50632e-08
2.13741e-09
2.13748e-09
2.46753e-08
2.6297e-09
2.14496e-09
2.43115e-08
3.10584e-09
2.15172e-09
2.39765e-08
3.56476e-09
2.15632e-09
2.36755e-08
4.00413e-09
2.15777e-09
2.34082e-08
4.41983e-09
2.1572e-09
2.31731e-08
2.17782e-09
2.29621e-08
4.80072e-09
5.65783e-10
2.61418e-09
2.55654e-08
1.10992e-09
2.62141e-09
2.51215e-08
1.6357e-09
2.62458e-09
2.47029e-08
2.14457e-09
2.62985e-09
2.43091e-08
2.63666e-09
2.63669e-09
2.39406e-08
3.11139e-09
2.6432e-09
2.35964e-08
3.5683e-09
2.64682e-09
2.32782e-08
4.0062e-09
2.6459e-09
2.29895e-08
4.42122e-09
2.64294e-09
2.27322e-08
2.66753e-09
2.25006e-08
4.80254e-09
5.68928e-10
3.09124e-09
2.52608e-08
1.11535e-09
3.09972e-09
2.48081e-08
1.64218e-09
3.10225e-09
2.43806e-08
2.15103e-09
3.10632e-09
2.39749e-08
2.64272e-09
3.11142e-09
2.35939e-08
3.11658e-09
3.11634e-09
2.32388e-08
3.57135e-09
3.11864e-09
2.29057e-08
4.00681e-09
3.11481e-09
2.25937e-08
4.42079e-09
3.1077e-09
2.2309e-08
3.13411e-09
2.20551e-08
4.80301e-09
5.71526e-10
3.55027e-09
2.50001e-08
1.1197e-09
3.56049e-09
2.45354e-08
1.64729e-09
3.56242e-09
2.40958e-08
2.15567e-09
3.56545e-09
2.36756e-08
2.64584e-09
3.56883e-09
2.3276e-08
3.11802e-09
3.57113e-09
2.29014e-08
3.57092e-09
3.57074e-09
2.25514e-08
4.00368e-09
3.56368e-09
2.22177e-08
4.41622e-09
3.55102e-09
2.19017e-08
3.57521e-09
2.16217e-08
4.80101e-09
5.73061e-10
3.98829e-09
2.47827e-08
1.12214e-09
4.00095e-09
2.43029e-08
1.64981e-09
4.00265e-09
2.38467e-08
2.1573e-09
4.00482e-09
2.34088e-08
2.64518e-09
4.00699e-09
2.29893e-08
3.11374e-09
4.00728e-09
2.25897e-08
3.56289e-09
4.00363e-09
2.22131e-08
3.9922e-09
3.99238e-09
2.18521e-08
4.40314e-09
3.97222e-09
2.15039e-08
3.98645e-09
2.11941e-08
4.79431e-09
5.7339e-10
4.40064e-09
2.46075e-08
1.12295e-09
4.41636e-09
2.41084e-08
1.65041e-09
4.41863e-09
2.36322e-08
2.15686e-09
4.42046e-09
2.31739e-08
2.64261e-09
4.42188e-09
2.27329e-08
3.10722e-09
4.42144e-09
2.23083e-08
3.55019e-09
4.41668e-09
2.18996e-08
3.97158e-09
4.40326e-09
2.15024e-08
4.37539e-09
4.3755e-09
2.11146e-08
4.36144e-09
2.07606e-08
4.77953e-09
5.76384e-10
2.44701e-08
4.77685e-09
1.13236e-09
2.3942e-08
4.7945e-09
1.66588e-09
2.34425e-08
4.79864e-09
2.17756e-09
2.29629e-08
4.80123e-09
2.66728e-09
2.25013e-08
4.80306e-09
3.13388e-09
2.20557e-08
4.80352e-09
3.57487e-09
2.16222e-08
4.80146e-09
3.98594e-09
2.11936e-08
4.79461e-09
4.36108e-09
2.07594e-08
4.77959e-09
2.03422e-08
4.73856e-09
4.73863e-09
7.52587e-10
7.5253e-10
2.57067e-08
1.48009e-09
7.55915e-10
2.52678e-08
2.1874e-09
7.58818e-10
2.4845e-08
2.87698e-09
7.62578e-10
2.44624e-08
3.55016e-09
7.67331e-10
2.41244e-08
4.20746e-09
7.72772e-10
2.38301e-08
4.84842e-09
7.78457e-10
2.358e-08
5.47128e-09
7.83896e-10
2.33751e-08
6.07204e-09
7.89054e-10
2.32167e-08
7.98685e-10
2.31033e-08
6.63921e-09
7.55838e-10
1.48012e-09
2.52647e-08
1.48639e-09
1.4864e-09
2.4841e-08
2.19616e-09
1.49194e-09
2.44316e-08
2.88773e-09
1.49899e-09
2.405e-08
3.56285e-09
1.5075e-09
2.37063e-08
4.22212e-09
1.51732e-09
2.34037e-08
4.86523e-09
1.52758e-09
2.31425e-08
5.49059e-09
1.53745e-09
2.29231e-08
6.094e-09
1.54748e-09
2.27457e-08
1.5699e-09
2.26027e-08
6.66127e-09
7.58571e-10
2.18766e-09
2.48424e-08
1.49166e-09
2.19618e-09
2.44286e-08
2.20351e-09
2.20353e-09
2.40335e-08
2.89615e-09
2.21344e-09
2.36587e-08
3.57153e-09
2.225e-09
2.33118e-08
4.2308e-09
2.23788e-09
2.30008e-08
4.87364e-09
2.25144e-09
2.27285e-08
5.49855e-09
2.26457e-09
2.24939e-08
6.10178e-09
2.27822e-09
2.22974e-08
2.31258e-09
2.21314e-08
6.66941e-09
7.6241e-10
2.87736e-09
2.44621e-08
1.49854e-09
2.88799e-09
2.40479e-08
2.21302e-09
2.89613e-09
2.36561e-08
2.90772e-09
2.90773e-09
2.32863e-08
3.58378e-09
2.92186e-09
2.29386e-08
4.24259e-09
2.93697e-09
2.26186e-08
4.88465e-09
2.95223e-09
2.23327e-08
5.50853e-09
2.96704e-09
2.20818e-08
6.1106e-09
2.98295e-09
2.18663e-08
3.02787e-09
2.16799e-08
6.67755e-09
7.67234e-10
3.55058e-09
2.41249e-08
1.50721e-09
3.56327e-09
2.37063e-08
2.22442e-09
3.5718e-09
2.331e-08
2.92135e-09
3.58371e-09
2.29362e-08
3.59901e-09
3.59892e-09
2.25859e-08
4.25767e-09
3.61579e-09
2.2259e-08
4.89813e-09
3.63192e-09
2.19581e-08
5.5204e-09
3.64627e-09
2.1688e-08
6.12103e-09
3.66236e-09
2.14522e-08
3.71594e-09
2.12465e-08
6.68712e-09
7.72682e-10
4.20791e-09
2.38308e-08
1.51714e-09
4.22257e-09
2.34043e-08
2.23748e-09
4.23125e-09
2.30008e-08
2.9362e-09
4.24289e-09
2.2617e-08
3.6152e-09
4.25741e-09
2.22564e-08
4.27461e-09
4.27417e-09
2.1921e-08
4.91372e-09
4.29077e-09
2.16077e-08
5.53329e-09
4.30356e-09
2.13168e-08
6.132e-09
4.31687e-09
2.10558e-08
4.37577e-09
2.08294e-08
6.69785e-09
7.78377e-10
4.84889e-09
2.35808e-08
1.52742e-09
4.8657e-09
2.31433e-08
2.25119e-09
4.87413e-09
2.27292e-08
2.95169e-09
4.88519e-09
2.23327e-08
3.6308e-09
4.89844e-09
2.19559e-08
4.2899e-09
4.91304e-09
2.16035e-08
4.92827e-09
4.92789e-09
2.1276e-08
5.54513e-09
4.93847e-09
2.09659e-08
6.14122e-09
4.94649e-09
2.0676e-08
5.00468e-09
2.04253e-08
6.70865e-09
7.83833e-10
5.47173e-09
2.3376e-08
1.53732e-09
5.49105e-09
2.2924e-08
2.26438e-09
5.49904e-09
2.24947e-08
2.96681e-09
5.50907e-09
2.20825e-08
3.64569e-09
5.52102e-09
2.16878e-08
4.30222e-09
5.53338e-09
2.13128e-08
4.93735e-09
5.54454e-09
2.09613e-08
5.55061e-09
5.5506e-09
2.06267e-08
6.1438e-09
5.5501e-09
2.03071e-08
5.59713e-09
2.00286e-08
6.71686e-09
7.89006e-10
6.07247e-09
2.32178e-08
1.54739e-09
6.09442e-09
2.27467e-08
2.2781e-09
6.10222e-09
2.22983e-08
2.98284e-09
6.11107e-09
2.18671e-08
3.66235e-09
6.1215e-09
2.14529e-08
4.31654e-09
6.13237e-09
2.10551e-08
4.94547e-09
6.1413e-09
2.06739e-08
5.54933e-09
6.14354e-09
2.03056e-08
6.13263e-09
6.13252e-09
1.99489e-08
6.14428e-09
1.96282e-08
6.71792e-09
7.9866e-10
2.31043e-08
6.63957e-09
1.56986e-09
2.26036e-08
6.66163e-09
2.31253e-09
2.21323e-08
6.66978e-09
3.02783e-09
2.16807e-08
6.67793e-09
3.71594e-09
2.12472e-08
6.68748e-09
4.37579e-09
2.08301e-08
6.69815e-09
5.00451e-09
2.04259e-08
6.70888e-09
5.59662e-09
2.00282e-08
6.7169e-09
6.1439e-09
1.96269e-08
6.71767e-09
1.9245e-08
6.69275e-09
6.69266e-09
9.3035e-10
9.30373e-10
2.3846e-08
1.83006e-09
9.34475e-10
2.34336e-08
2.70599e-09
9.38062e-10
2.3031e-08
3.56334e-09
9.43267e-10
2.26618e-08
4.40625e-09
9.50525e-10
2.23309e-08
5.23807e-09
9.59601e-10
2.20387e-08
6.06125e-09
9.7015e-10
2.17866e-08
6.87697e-09
9.81827e-10
2.15775e-08
7.68416e-09
9.9481e-10
2.14147e-08
1.01477e-09
2.12996e-08
8.47307e-09
9.34287e-10
1.83005e-09
2.34308e-08
1.83821e-09
1.83826e-09
2.30333e-08
2.71796e-09
1.84589e-09
2.2644e-08
3.57845e-09
1.8561e-09
2.22766e-08
4.42406e-09
1.8695e-09
2.19417e-08
5.25815e-09
1.88632e-09
2.16429e-08
6.08323e-09
1.90586e-09
2.13817e-08
6.90051e-09
1.92757e-09
2.11601e-08
7.70851e-09
1.95235e-09
2.09801e-08
1.99427e-09
2.08376e-08
8.49407e-09
9.37756e-10
2.70606e-09
2.30287e-08
1.84549e-09
2.71782e-09
2.26413e-08
2.72911e-09
2.72907e-09
2.22667e-08
3.59235e-09
2.74435e-09
2.19073e-08
4.43948e-09
2.76328e-09
2.15709e-08
5.27436e-09
2.78626e-09
2.1266e-08
6.09933e-09
2.81318e-09
2.09962e-08
6.91552e-09
2.8432e-09
2.07621e-08
7.72174e-09
2.87772e-09
2.05658e-08
2.93987e-09
2.04028e-08
8.50471e-09
9.43144e-10
3.56349e-09
2.26616e-08
1.85562e-09
3.57847e-09
2.22748e-08
2.74388e-09
3.59209e-09
2.19049e-08
3.61139e-09
3.61126e-09
2.15518e-08
4.46106e-09
3.63542e-09
2.12168e-08
5.29671e-09
3.66361e-09
2.09056e-08
6.12149e-09
3.69577e-09
2.06253e-08
6.93641e-09
3.73193e-09
2.03782e-08
7.74019e-09
3.77413e-09
2.01661e-08
3.85437e-09
1.99856e-08
8.51992e-09
9.50507e-10
4.40643e-09
2.23314e-08
1.86931e-09
4.42425e-09
2.19417e-08
2.76271e-09
4.43948e-09
2.15692e-08
3.63492e-09
4.46069e-09
2.12145e-08
4.48864e-09
4.48834e-09
2.08792e-08
5.32597e-09
4.52123e-09
2.0564e-08
6.15007e-09
4.55744e-09
2.02723e-08
6.96347e-09
4.59675e-09
2.00098e-08
7.76493e-09
4.64367e-09
1.97812e-08
4.73934e-09
1.95847e-08
8.54171e-09
9.5959e-10
5.23829e-09
2.20393e-08
1.8863e-09
5.25836e-09
2.16435e-08
2.78602e-09
5.27455e-09
2.1266e-08
3.66288e-09
5.29672e-09
2.09041e-08
4.52065e-09
5.32534e-09
2.05617e-08
5.36123e-09
5.3605e-09
2.02412e-08
6.18555e-09
5.40018e-09
1.99407e-08
6.9966e-09
5.44094e-09
1.96616e-08
7.79544e-09
5.4884e-09
1.94123e-08
5.595e-09
1.91989e-08
8.57032e-09
9.70148e-10
6.06149e-09
2.17874e-08
1.90585e-09
6.08346e-09
2.13824e-08
2.81313e-09
6.09958e-09
2.09969e-08
3.69543e-09
6.12178e-09
2.06254e-08
4.55631e-09
6.15006e-09
2.02703e-08
5.39921e-09
6.18434e-09
1.99367e-08
6.22503e-09
6.22435e-09
1.9626e-08
7.03429e-09
6.26546e-09
1.93321e-08
7.82986e-09
6.30986e-09
1.9059e-08
6.41956e-09
1.88256e-08
8.605e-09
9.81843e-10
6.87722e-09
2.15785e-08
1.9276e-09
6.90076e-09
2.1161e-08
2.84324e-09
6.91577e-09
2.07629e-08
3.732e-09
6.93669e-09
2.03789e-08
4.59642e-09
6.96381e-09
2.00096e-08
5.43946e-09
6.99622e-09
1.96579e-08
6.26415e-09
7.03309e-09
1.93279e-08
7.07105e-09
7.07076e-09
1.90145e-08
7.86336e-09
7.10762e-09
1.8717e-08
7.20779e-09
1.84607e-08
8.64308e-09
9.9484e-10
7.68441e-09
2.14158e-08
1.95241e-09
7.70876e-09
2.09811e-08
2.87782e-09
7.72198e-09
2.05667e-08
3.77431e-09
7.74042e-09
2.01669e-08
4.64404e-09
7.76511e-09
1.97819e-08
5.48829e-09
7.79545e-09
1.94116e-08
6.30876e-09
7.8295e-09
1.9057e-08
7.10683e-09
7.86265e-09
1.87156e-08
7.88826e-09
7.88789e-09
1.83872e-08
7.94983e-09
1.80949e-08
8.67949e-09
1.01482e-09
2.13006e-08
8.4733e-09
1.99438e-09
2.08385e-08
8.49429e-09
2.94003e-09
2.04037e-08
8.50492e-09
3.85461e-09
1.99865e-08
8.5201e-09
4.73965e-09
1.95855e-08
8.54183e-09
5.59532e-09
1.91996e-08
8.57034e-09
6.41961e-09
1.88262e-08
8.60494e-09
7.20734e-09
1.84603e-08
8.64283e-09
7.94948e-09
1.80938e-08
8.67891e-09
1.7748e-08
8.69828e-09
8.69798e-09
1.07187e-09
1.07193e-09
2.17022e-08
2.10947e-09
1.07669e-09
2.13193e-08
3.1217e-09
1.08123e-09
2.09375e-08
4.11671e-09
1.08824e-09
2.05785e-08
5.10181e-09
1.09844e-09
2.02474e-08
6.08384e-09
1.11172e-09
1.99449e-08
7.06913e-09
1.12795e-09
1.96734e-08
8.06335e-09
1.14705e-09
1.94362e-08
9.0705e-09
1.16956e-09
1.9238e-08
1.20195e-09
1.90821e-08
1.00861e-08
1.07646e-09
2.10938e-09
2.13168e-08
2.11925e-09
2.11928e-09
2.09479e-08
3.1364e-09
2.12928e-09
2.05788e-08
4.13536e-09
2.14323e-09
2.02227e-08
5.12357e-09
2.16233e-09
1.98896e-08
6.1077e-09
2.18723e-09
1.95832e-08
7.09401e-09
2.21761e-09
1.93057e-08
8.08797e-09
2.25338e-09
1.90598e-08
9.09295e-09
2.29597e-09
1.88487e-08
2.36081e-09
1.86712e-08
1.01005e-08
1.08091e-09
3.12159e-09
2.09355e-08
2.12887e-09
3.1361e-09
2.05766e-08
3.15156e-09
3.15143e-09
2.02219e-08
4.15484e-09
3.17267e-09
1.98746e-08
5.14571e-09
3.20007e-09
1.95422e-08
6.13129e-09
3.23475e-09
1.92329e-08
7.11748e-09
3.27727e-09
1.89504e-08
8.10936e-09
3.32737e-09
1.86962e-08
9.1104e-09
3.38704e-09
1.84737e-08
3.48146e-09
1.82811e-08
1.01115e-08
1.08817e-09
4.11663e-09
2.05784e-08
2.14278e-09
4.13515e-09
2.02211e-08
3.17223e-09
4.15436e-09
1.98725e-08
4.182e-09
4.18172e-09
1.9533e-08
5.17735e-09
4.21721e-09
1.92043e-08
6.16504e-09
4.26055e-09
1.88921e-08
7.15171e-09
4.3126e-09
1.86033e-08
8.14209e-09
4.37429e-09
1.83409e-08
9.13923e-09
4.44825e-09
1.81078e-08
4.5693e-09
1.79031e-08
1.01339e-08
1.09849e-09
5.10175e-09
2.02478e-08
2.16225e-09
5.12351e-09
1.98896e-08
3.19956e-09
5.14546e-09
1.95408e-08
4.21677e-09
5.1767e-09
1.92023e-08
5.21879e-09
5.21829e-09
1.88761e-08
6.2103e-09
5.26969e-09
1.85634e-08
7.19761e-09
5.32976e-09
1.82679e-08
8.18691e-09
5.39934e-09
1.79955e-08
9.181e-09
5.48388e-09
1.77514e-08
5.6282e-09
1.75365e-08
1.01704e-08
1.11178e-09
6.0838e-09
1.99455e-08
2.18735e-09
6.10766e-09
1.95838e-08
3.23467e-09
6.13123e-09
1.92329e-08
4.25991e-09
6.16476e-09
1.88908e-08
5.26918e-09
6.20935e-09
1.85613e-08
6.2669e-09
6.26591e-09
1.82472e-08
7.2566e-09
6.33319e-09
1.79475e-08
8.24461e-09
6.40846e-09
1.76644e-08
9.23593e-09
6.49844e-09
1.74064e-08
6.66071e-09
1.71806e-08
1.02217e-08
1.12802e-09
7.06913e-09
1.96741e-08
2.21774e-09
7.094e-09
1.93064e-08
3.27742e-09
7.11747e-09
1.8951e-08
4.31246e-09
7.15173e-09
1.86034e-08
5.3287e-09
7.19728e-09
1.82661e-08
6.33221e-09
7.25496e-09
1.79442e-08
7.3265e-09
7.32555e-09
1.76393e-08
8.31463e-09
7.405e-09
1.73475e-08
9.303e-09
7.49603e-09
1.7073e-08
7.66727e-09
1.68341e-08
1.0288e-08
1.14714e-09
8.06338e-09
1.94371e-08
2.25354e-09
8.088e-09
1.90606e-08
3.32761e-09
8.10938e-09
1.86969e-08
4.37462e-09
8.1421e-09
1.83415e-08
5.39925e-09
8.18696e-09
1.79953e-08
6.40697e-09
8.24381e-09
1.76613e-08
7.40361e-09
8.31294e-09
1.73439e-08
8.39207e-09
8.39154e-09
1.70395e-08
9.37821e-09
8.47823e-09
1.67487e-08
8.64473e-09
1.64944e-08
1.03671e-08
1.16965e-09
9.07056e-09
1.92389e-08
2.29616e-09
9.093e-09
1.88496e-08
3.38734e-09
9.11042e-09
1.84745e-08
4.44868e-09
9.13921e-09
1.81085e-08
5.48456e-09
9.18089e-09
1.7752e-08
6.49855e-09
9.23559e-09
1.74058e-08
7.49493e-09
9.30225e-09
1.70714e-08
8.47746e-09
9.37714e-09
1.67475e-08
9.45419e-09
9.4536e-09
1.64351e-08
9.58429e-09
1.61551e-08
1.04544e-08
1.20207e-09
1.9083e-08
1.00861e-08
2.36104e-09
1.8672e-08
1.01006e-08
3.4818e-09
1.82818e-08
1.01115e-08
4.56975e-09
1.79039e-08
1.01339e-08
5.62877e-09
1.75371e-08
1.01702e-08
6.66128e-09
1.71811e-08
1.02215e-08
7.66752e-09
1.68345e-08
1.02876e-08
8.64436e-09
1.6494e-08
1.03666e-08
9.58398e-09
1.61541e-08
1.04536e-08
1.58338e-08
1.05415e-08
1.0541e-08
1.16317e-09
1.16321e-09
1.93758e-08
2.2903e-09
1.16838e-09
1.90238e-08
3.39183e-09
1.17373e-09
1.86623e-08
4.47824e-09
1.18228e-09
1.83098e-08
5.55969e-09
1.19489e-09
1.7971e-08
6.64629e-09
1.21168e-09
1.76467e-08