/*--------------------------------*- C++ -*----------------------------------*\
| =========                 |                                                 |
| \\      /  F ield         | foam-extend: Open Source CFD                    |
|  \\    /   O peration     | Version:     3.1                                |
|   \\  /    A nd           | Web:         http://www.extend-project.de       |
|    \\/     M anipulation  |                                                 |
\*---------------------------------------------------------------------------*/
FoamFile
{
    version     2.0;
    format      ascii;
    class       pointVectorField;
    location    "0.0015";
    object      pointMotionU;
}
// * * * * * * * * * * * * * * * * * * * * * * * * * * * * * * * * * * * * * //

dimensions      [0 1 -1 0 0 0 0];

internalField   nonuniform List<vector> 
18306
(
(0 0 0)
(0 0 0)
(0 0 0)
(0 0 0)
(0 0 0)
(0 0 0)
(0 0 0)
(0 0 0)
(0 0 0)
(0 0 0)
(0 0 0)
(0 0 0)
(0 0 0)
(0 0 0)
(0 0 0)
(0 0 0)
(0 0 0)
(0 0 0)
(0 0 0)
(0 0 0)
(0 0 0)
(0 0 0)
(0 0 0)
(0 0 0)
(0 0 0)
(0 0 0)
(0 0 0)
(0 0 0)
(0 0 0)
(0 0 0)
(0 0 0)
(0 0 0)
(0 0 0)
(0 0 0)
(0 0 0)
(0 0 0)
(0 0 0)
(0 0 0)
(0 0 0)
(0 0 0)
(0 0 0)
(0 0 0)
(0 0 0)
(0 0 0)
(0 0 0)
(0 0 0)
(0 0 0)
(0 0 0)
(0 0 0)
(0 0 0)
(0 0 0)
(0 0 0)
(0 0 0)
(0 0 0)
(0 0 0)
(0 0 0)
(0 0 0)
(0 0 0)
(0 0 0)
(0 0 0)
(0 0 0)
(0 0 0)
(0 0 0)
(0 0 0)
(0 0 0)
(0 0 0)
(0 0 0)
(0 0 0)
(0 0 0)
(0 0 0)
(0 0 0)
(0 0 0)
(0 0 0)
(0 0 0)
(0 0 0)
(0 0 0)
(0 0 0)
(0 0 0)
(0 0 0)
(0 0 0)
(0 0 0)
(0 0 0)
(0 0 0)
(0 0 0)
(0 0 0)
(0 0 0)
(0 0 0)
(0 0 0)
(0 0 0)
(0 0 0)
(0 0 0)
(0 0 0)
(0 0 0)
(0 0 0)
(0 0 0)
(0 0 0)
(0 0 0)
(0 0 0)
(0 0 0)
(0 0 0)
(0 0 0)
(0 0 0)
(0 0 0)
(0 0 0)
(0 0 0)
(0 0 0)
(0 0 0)
(0 0 0)
(0 0 0)
(0 0 0)
(0 0 0)
(0 0 0)
(0 0 0)
(0 0 0)
(0 0 0)
(0 0 0)
(0 0 0)
(0 0 0)
(0 0 0)
(0 0 0)
(0 0 0)
(0 0 5.21573e-08)
(1.67053e-08 0 5.30621e-08)
(3.31172e-08 0 5.58845e-08)
(4.92178e-08 0 6.06988e-08)
(6.53e-08 0 6.77869e-08)
(8.15759e-08 0 7.76247e-08)
(9.80877e-08 0 9.08905e-08)
(1.14638e-07 0 1.08494e-07)
(1.30653e-07 0 1.31598e-07)
(1.44961e-07 0 1.61654e-07)
(1.55577e-07 0 2.01077e-07)
(0 4.08341e-09 5.28161e-08)
(1.63363e-08 4.08089e-09 5.37099e-08)
(3.25293e-08 4.103e-09 5.64945e-08)
(4.85273e-08 4.22422e-09 6.12547e-08)
(6.45321e-08 4.48871e-09 6.82708e-08)
(8.07565e-08 4.9277e-09 7.80092e-08)
(9.72606e-08 5.58271e-09 9.11238e-08)
(1.13884e-07 6.51315e-09 1.08487e-07)
(1.30127e-07 7.80054e-09 1.31171e-07)
(1.44963e-07 9.5581e-09 1.60396e-07)
(1.566e-07 1.16796e-08 1.97631e-07)
(0 7.98188e-09 5.49343e-08)
(1.54062e-08 7.99929e-09 5.57838e-08)
(3.09299e-08 8.08588e-09 5.84517e-08)
(4.6541e-08 8.32986e-09 6.30469e-08)
(6.22958e-08 8.82562e-09 6.98427e-08)
(7.83402e-08 9.65178e-09 7.92815e-08)
(9.47924e-08 1.08885e-08 9.19761e-08)
(1.11585e-07 1.26456e-08 1.08697e-07)
(1.28372e-07 1.50581e-08 1.30295e-07)
(1.4446e-07 1.8299e-08 1.57585e-07)
(1.58691e-07 2.21373e-08 1.91307e-07)
(0 1.16404e-08 5.86409e-08)
(1.42039e-08 1.16742e-08 5.94251e-08)
(2.86644e-08 1.18161e-08 6.19079e-08)
(4.34614e-08 1.21507e-08 6.62277e-08)
(5.86584e-08 1.27972e-08 7.26677e-08)
(7.43117e-08 1.38843e-08 8.16433e-08)
(9.05284e-08 1.55312e-08 9.37152e-08)
(1.07355e-07 1.78708e-08 1.0955e-07)
(1.2462e-07 2.10586e-08 1.298e-07)
(1.4195e-07 2.5285e-08 1.55002e-07)
(1.58886e-07 3.02903e-08 1.85509e-07)
(0 1.51217e-08 6.42571e-08)
(1.28147e-08 1.51439e-08 6.496e-08)
(2.59799e-08 1.52644e-08 6.71949e-08)
(3.96027e-08 1.55876e-08 7.11281e-08)
(5.38172e-08 1.62529e-08 7.70782e-08)
(6.87292e-08 1.74117e-08 8.54593e-08)
(8.43988e-08 1.92095e-08 9.67857e-08)
(1.00882e-07 2.17811e-08 1.11645e-07)
(1.18159e-07 2.52642e-08 1.30584e-07)
(1.36078e-07 2.98193e-08 1.5402e-07)
(1.54952e-07 3.52998e-08 1.8209e-07)
(0 1.85164e-08 7.22911e-08)
(1.13047e-08 1.84893e-08 7.28826e-08)
(2.30091e-08 1.84786e-08 7.47851e-08)
(3.52324e-08 1.86316e-08 7.8209e-08)
(4.80926e-08 1.91323e-08 8.35258e-08)
(6.17747e-08 2.01436e-08 9.11858e-08)
(7.64328e-08 2.18033e-08 1.017e-07)
(9.20762e-08 2.42187e-08 1.15585e-07)
(1.08638e-07 2.74735e-08 1.33336e-07)
(1.26087e-07 3.16563e-08 1.55358e-07)
(1.4567e-07 3.68658e-08 1.81563e-07)
(0 2.19452e-08 8.34539e-08)
(9.74989e-09 2.1813e-08 8.38743e-08)
(1.98927e-08 2.15304e-08 8.53053e-08)
(3.05606e-08 2.13263e-08 8.80471e-08)
(4.1831e-08 2.14582e-08 9.25641e-08)
(5.38552e-08 2.21056e-08 9.93679e-08)
(6.68806e-08 2.33591e-08 1.08979e-07)
(8.10445e-08 2.52598e-08 1.21892e-07)
(9.61408e-08 2.78081e-08 1.38545e-07)
(1.1199e-07 3.09838e-08 1.59306e-07)
(1.30817e-07 3.51893e-08 1.83838e-07)
(0 2.55462e-08 9.87015e-08)
(8.23625e-09 2.52234e-08 9.88447e-08)
(1.68198e-08 2.44649e-08 9.95397e-08)
(2.58493e-08 2.36799e-08 1.01298e-07)
(3.53742e-08 2.32553e-08 1.0477e-07)
(4.54897e-08 2.3377e-08 1.10557e-07)
(5.6391e-08 2.4038e-08 1.19154e-07)
(6.83427e-08 2.51561e-08 1.31035e-07)
(8.12236e-08 2.66311e-08 1.46514e-07)
(9.45714e-08 2.83296e-08 1.65897e-07)
(1.11154e-07 3.08806e-08 1.88621e-07)
(0 2.94575e-08 1.1928e-07)
(6.85846e-09 2.87872e-08 1.18924e-07)
(1.39847e-08 2.72104e-08 1.1835e-07)
(2.14006e-08 2.55501e-08 1.18581e-07)
(2.91006e-08 2.44293e-08 1.20642e-07)
(3.71532e-08 2.39904e-08 1.25229e-07)
(4.57108e-08 2.40271e-08 1.32744e-07)
(5.50031e-08 2.42488e-08 1.43468e-07)
(6.50718e-08 2.44497e-08 1.57493e-07)
(7.53477e-08 2.44406e-08 1.75122e-07)
(8.8453e-08 2.49095e-08 1.95558e-07)
(0 3.38297e-08 1.46821e-07)
(5.70793e-09 3.24674e-08 1.4545e-07)
(1.15734e-08 2.94177e-08 1.42548e-07)
(1.75153e-08 2.64742e-08 1.40354e-07)
(2.34183e-08 2.46365e-08 1.40502e-07)
(2.93011e-08 2.38311e-08 1.43715e-07)
(3.53579e-08 2.34285e-08 1.50137e-07)
(4.18796e-08 2.28156e-08 1.5966e-07)
(4.90554e-08 2.17099e-08 1.72037e-07)
(5.64181e-08 2.00769e-08 1.87238e-07)
(6.56257e-08 1.8627e-08 2.03974e-07)
(0 3.90376e-08 1.84116e-07)
(4.72878e-09 3.62016e-08 1.80147e-07)
(9.51422e-09 3.04382e-08 1.72859e-07)
(1.41477e-08 2.56325e-08 1.66766e-07)
(1.83392e-08 2.32332e-08 1.64168e-07)
(2.19916e-08 2.259e-08 1.6552e-07)
(2.53158e-08 2.2304e-08 1.70477e-07)
(2.8811e-08 2.12329e-08 1.78475e-07)
(3.31143e-08 1.89826e-08 1.88881e-07)
(3.87153e-08 1.60333e-08 2.00738e-07)
(4.57772e-08 1.33759e-08 2.13247e-07)
(0 0 9.22382e-08)
(3.21179e-08 0 9.36947e-08)
(6.3678e-08 0 9.81337e-08)
(9.46637e-08 0 1.05672e-07)
(1.25673e-07 0 1.16702e-07)
(1.57182e-07 0 1.31894e-07)
(1.89411e-07 0 1.522e-07)
(2.22261e-07 0 1.78899e-07)
(2.55168e-07 0 2.13636e-07)
(2.86898e-07 0 2.58525e-07)
(3.15602e-07 0 3.17269e-07)
(0 7.59017e-09 9.32363e-08)
(3.14216e-08 7.59671e-09 9.46745e-08)
(6.25753e-08 7.66235e-09 9.90533e-08)
(9.3378e-08 7.93057e-09 1.06506e-07)
(1.24253e-07 8.48669e-09 1.17421e-07)
(1.55677e-07 9.39482e-09 1.32454e-07)
(1.87905e-07 1.07428e-08 1.52522e-07)
(2.20902e-07 1.26608e-08 1.78846e-07)
(2.5423e-07 1.53355e-08 2.12926e-07)
(2.86866e-07 1.90426e-08 2.56515e-07)
(3.17046e-07 2.36573e-08 3.11866e-07)
(0 1.48394e-08 9.63621e-08)
(2.96357e-08 1.4893e-08 9.77283e-08)
(5.95089e-08 1.51011e-08 1.01914e-07)
(8.95788e-08 1.56377e-08 1.09095e-07)
(1.19987e-07 1.66857e-08 1.19648e-07)
(1.51082e-07 1.84044e-08 1.34191e-07)
(1.83226e-07 2.09647e-08 1.53577e-07)
(2.1655e-07 2.46096e-08 1.78866e-07)
(2.50861e-07 2.96566e-08 2.11218e-07)
(2.85661e-07 3.65454e-08 2.51736e-07)
(3.20089e-07 4.49575e-08 3.01517e-07)
(0 2.16584e-08 1.01838e-07)
(2.73315e-08 2.17502e-08 1.03098e-07)
(5.51705e-08 2.20781e-08 1.06978e-07)
(8.36912e-08 2.2816e-08 1.13705e-07)
(1.1305e-07 2.41995e-08 1.23675e-07)
(1.43423e-07 2.6489e-08 1.37463e-07)
(1.75146e-07 2.99403e-08 1.55839e-07)
(2.08553e-07 3.4857e-08 1.79704e-07)
(2.43745e-07 4.1623e-08 2.09906e-07)
(2.80734e-07 5.07535e-08 2.47107e-07)
(3.1978e-07 6.18937e-08 2.91799e-07)
(0 2.81964e-08 1.10137e-07)
(2.46728e-08 2.82709e-08 1.11267e-07)
(5.00376e-08 2.85674e-08 1.1474e-07)
(7.63237e-08 2.93052e-08 1.20833e-07)
(1.03829e-07 3.07675e-08 1.30003e-07)
(1.32824e-07 3.32683e-08 1.42825e-07)
(1.63554e-07 3.71245e-08 1.59998e-07)
(1.96356e-07 4.26622e-08 1.823e-07)
(2.31598e-07 5.02584e-08 2.10419e-07)
(2.69654e-07 6.04124e-08 2.4483e-07)
(3.12107e-07 7.29787e-08 2.85703e-07)
(0 3.46941e-08 1.22003e-07)
(2.17884e-08 3.46765e-08 1.22956e-07)
(4.43696e-08 3.47247e-08 1.25891e-07)
(6.80011e-08 3.51501e-08 1.31159e-07)
(9.29531e-08 3.63345e-08 1.39303e-07)
(1.19657e-07 3.86293e-08 1.50962e-07)
(1.48539e-07 4.23536e-08 1.66835e-07)
(1.79844e-07 4.77997e-08 1.87592e-07)
(2.13834e-07 5.52739e-08 2.13846e-07)
(2.51087e-07 6.51833e-08 2.46068e-07)
(2.94842e-07 7.78183e-08 2.84109e-07)
(0 4.15259e-08 1.38465e-07)
(1.88307e-08 4.13036e-08 1.39151e-07)
(3.84494e-08 4.08187e-08 1.41333e-07)
(5.91466e-08 4.05572e-08 1.45512e-07)
(8.11217e-08 4.10627e-08 1.52379e-07)
(1.04748e-07 4.27394e-08 1.62673e-07)
(1.3064e-07 4.58398e-08 1.77118e-07)
(1.593e-07 5.05537e-08 1.96363e-07)
(1.90714e-07 5.70595e-08 2.20944e-07)
(2.25167e-07 6.56088e-08 2.51299e-07)
(2.67657e-07 7.70222e-08 2.86925e-07)
(0 4.92462e-08 1.60898e-07)
(1.59773e-08 4.86407e-08 1.61159e-07)
(3.2666e-08 4.71938e-08 1.62185e-07)
(5.03031e-08 4.57758e-08 1.64818e-07)
(6.90477e-08 4.52175e-08 1.70044e-07)
(8.91753e-08 4.59671e-08 1.78745e-07)
(1.1121e-07 4.81131e-08 1.91621e-07)
(1.35914e-07 5.16372e-08 2.09303e-07)
(1.63433e-07 5.65441e-08 2.32166e-07)
(1.93508e-07 6.29283e-08 2.60584e-07)
(2.32081e-07 7.20006e-08 2.93738e-07)
(0 5.86832e-08 1.91104e-07)
(1.34353e-08 5.73521e-08 1.90607e-07)
(2.74415e-08 5.41875e-08 1.89673e-07)
(4.21237e-08 5.09495e-08 1.8994e-07)
(5.75558e-08 4.89999e-08 1.92979e-07)
(7.39841e-08 4.87472e-08 1.99838e-07)
(9.18623e-08 4.99156e-08 2.11084e-07)
(1.1188e-07 5.20906e-08 2.27078e-07)
(1.3447e-07 5.50617e-08 2.47891e-07)
(1.59167e-07 5.88721e-08 2.73926e-07)
(1.91522e-07 6.48117e-08 3.04031e-07)
(0 7.11862e-08 2.31496e-07)
(1.14306e-08 6.83484e-08 2.29465e-07)
(2.3225e-08 6.19555e-08 2.24966e-07)
(3.53149e-08 5.58942e-08 2.21514e-07)
(4.75987e-08 5.23846e-08 2.21625e-07)
(6.02647e-08 5.14703e-08 2.2641e-07)
(7.38716e-08 5.20675e-08 2.36072e-07)
(8.92068e-08 5.31027e-08 2.50406e-07)
(1.06905e-07 5.41363e-08 2.68985e-07)
(1.26499e-07 5.53737e-08 2.91731e-07)
(1.51343e-07 5.79732e-08 3.16764e-07)
(0 8.95461e-08 2.86329e-07)
(9.93377e-09 8.32538e-08 2.80392e-07)
(1.99965e-08 7.06307e-08 2.69213e-07)
(2.99105e-08 6.01568e-08 2.5981e-07)
(3.92958e-08 5.50758e-08 2.55744e-07)
(4.81714e-08 5.4323e-08 2.57754e-07)
(5.71659e-08 5.53109e-08 2.65336e-07)
(6.74708e-08 5.58955e-08 2.77622e-07)
(8.04895e-08 5.52766e-08 2.93621e-07)
(9.70585e-08 5.40757e-08 3.1182e-07)
(1.17181e-07 5.37915e-08 3.30922e-07)
(0 0 1.14637e-07)
(4.52066e-08 0 1.16078e-07)
(8.96182e-08 0 1.20411e-07)
(1.33202e-07 0 1.27706e-07)
(1.76794e-07 0 1.38249e-07)
(2.21061e-07 0 1.52536e-07)
(2.66321e-07 0 1.71258e-07)
(3.12476e-07 0 1.95301e-07)
(3.58846e-07 0 2.2574e-07)
(4.03949e-07 0 2.63886e-07)
(4.45686e-07 0 3.12175e-07)
(0 1.00089e-08 1.15458e-07)
(4.42338e-08 1.0038e-08 1.16878e-07)
(8.80844e-08 1.01807e-08 1.2115e-07)
(1.31422e-07 1.06291e-08 1.28357e-07)
(1.74836e-07 1.14977e-08 1.38779e-07)
(2.18999e-07 1.28747e-08 1.52903e-07)
(2.64275e-07 1.48818e-08 1.71383e-07)
(3.1066e-07 1.7701e-08 1.95051e-07)
(3.57652e-07 2.15986e-08 2.24857e-07)
(4.04067e-07 2.69762e-08 2.61797e-07)
(4.47891e-07 3.36833e-08 3.07126e-07)
(0 1.95484e-08 1.18013e-07)
(4.17207e-08 1.96573e-08 1.19358e-07)
(8.37759e-08 2.00365e-08 1.23426e-07)
(1.26096e-07 2.09231e-08 1.30347e-07)
(1.68872e-07 2.25645e-08 1.4039e-07)
(2.12596e-07 2.51783e-08 1.54001e-07)
(2.5779e-07 2.90016e-08 1.71777e-07)
(3.04679e-07 3.43733e-08 1.94402e-07)
(3.5311e-07 4.17438e-08 2.22522e-07)
(4.02622e-07 5.17526e-08 2.56567e-07)
(4.52439e-07 6.39841e-08 2.96866e-07)
(0 2.84881e-08 1.22517e-07)
(3.84816e-08 2.86584e-08 1.2375e-07)
(7.76798e-08 2.92275e-08 1.27493e-07)
(1.17834e-07 3.04404e-08 1.33934e-07)
(1.59162e-07 3.26222e-08 1.43364e-07)
(2.01909e-07 3.61296e-08 1.56189e-07)
(2.4656e-07 4.1315e-08 1.72921e-07)
(2.93626e-07 4.8601e-08 1.94101e-07)
(3.43356e-07 5.85282e-08 2.20097e-07)
(3.95979e-07 7.18411e-08 2.50952e-07)
(4.52233e-07 8.80684e-08 2.86559e-07)
(0 3.70218e-08 1.29379e-07)
(3.47406e-08 3.71718e-08 1.30474e-07)
(7.04612e-08 3.77074e-08 1.33789e-07)
(1.07486e-07 3.89454e-08 1.39563e-07)
(1.46234e-07 4.12872e-08 1.48154e-07)
(1.87089e-07 4.51713e-08 1.59973e-07)
(2.30403e-07 5.10339e-08 1.75464e-07)
(2.76688e-07 5.93238e-08 1.95048e-07)
(3.26546e-07 7.0568e-08 2.18949e-07)
(3.80676e-07 8.54824e-08 2.47057e-07)
(4.41594e-07 1.03878e-07 2.79082e-07)
(0 4.54831e-08 1.39212e-07)
(3.06739e-08 4.55025e-08 1.40124e-07)
(6.24756e-08 4.56866e-08 1.42881e-07)
(9.57763e-08 4.64921e-08 1.47802e-07)
(1.30962e-07 4.84698e-08 1.5533e-07)
(1.68643e-07 5.21249e-08 1.65943e-07)
(2.0943e-07 5.79063e-08 1.80092e-07)
(2.53691e-07 6.62106e-08 1.98096e-07)
(3.0186e-07 7.74559e-08 2.20102e-07)
(3.54883e-07 9.22216e-08 2.46008e-07)
(4.17517e-07 1.10917e-07 2.75351e-07)
(0 5.44162e-08 1.52823e-07)
(2.64913e-08 5.41401e-08 1.53469e-07)
(5.41116e-08 5.35518e-08 1.55466e-07)
(8.3288e-08 5.33703e-08 1.59285e-07)
(1.14313e-07 5.43933e-08 1.65516e-07)
(1.47721e-07 5.72177e-08 1.74733e-07)
(1.84388e-07 6.22149e-08 1.87418e-07)
(2.25038e-07 6.9648e-08 2.03881e-07)
(2.697e-07 7.9742e-08 2.24189e-07)
(3.18872e-07 9.28437e-08 2.48218e-07)
(3.79706e-07 1.10098e-07 2.75295e-07)
(0 6.46672e-08 1.71234e-07)
(2.24381e-08 6.38332e-08 1.71471e-07)
(4.59076e-08 6.18347e-08 1.72343e-07)
(7.07722e-08 5.99598e-08 1.74645e-07)
(9.72797e-08 5.94447e-08 1.79251e-07)
(1.25833e-07 6.09771e-08 1.86876e-07)
(1.57181e-07 6.47149e-08 1.97984e-07)
(1.92416e-07 7.06426e-08 2.12871e-07)
(2.31776e-07 7.87369e-08 2.31489e-07)
(2.74972e-07 8.91009e-08 2.53649e-07)
(3.30419e-07 1.03418e-07 2.78471e-07)
(0 7.75649e-08 1.95711e-07)
(1.88034e-08 7.56686e-08 1.95246e-07)
(3.84519e-08 7.11337e-08 1.94283e-07)
(5.91399e-08 6.65514e-08 1.94346e-07)
(8.10128e-08 6.39629e-08 1.9685e-07)
(1.04445e-07 6.4051e-08 2.02676e-07)
(1.30091e-07 6.64892e-08 2.12181e-07)
(1.58934e-07 7.07038e-08 2.25426e-07)
(1.91599e-07 7.63532e-08 2.42132e-07)
(2.2749e-07 8.34412e-08 2.62138e-07)
(2.74432e-07 9.3741e-08 2.84325e-07)
(0 9.53486e-08 2.27871e-07)
(1.5908e-08 9.12413e-08 2.26037e-07)
(3.23801e-08 8.19172e-08 2.21856e-07)
(4.93881e-08 7.30674e-08 2.18513e-07)
(6.68579e-08 6.80379e-08 2.18288e-07)
(8.51031e-08 6.70765e-08 2.22141e-07)
(1.04934e-07 6.87656e-08 2.30116e-07)
(1.27461e-07 7.15976e-08 2.41796e-07)
(1.53557e-07 7.48544e-08 2.56509e-07)
(1.8256e-07 7.867e-08 2.73771e-07)
(2.19118e-07 8.45233e-08 2.91966e-07)
(0 1.22608e-07 2.70609e-07)
(1.37314e-08 1.13421e-07 2.65478e-07)
(2.76884e-08 9.48443e-08 2.55475e-07)
(4.1572e-08 7.92343e-08 2.46863e-07)
(5.49586e-08 7.15005e-08 2.42891e-07)
(6.79556e-08 7.04304e-08 2.44232e-07)
(8.14878e-08 7.25608e-08 2.50327e-07)
(9.72363e-08 7.4903e-08 2.60211e-07)
(1.17128e-07 7.61893e-08 2.72784e-07)
(1.42182e-07 7.69596e-08 2.86621e-07)
(1.72189e-07 7.89236e-08 3.00586e-07)
(0 0 1.21237e-07)
(5.5117e-08 0 1.22187e-07)
(1.09257e-07 0 1.25007e-07)
(1.62327e-07 0 1.29677e-07)
(2.15293e-07 0 1.36269e-07)
(2.68876e-07 0 1.44934e-07)
(3.23279e-07 0 1.55852e-07)
(3.78064e-07 0 1.69201e-07)
(4.31873e-07 0 1.85099e-07)
(4.82018e-07 0 2.0357e-07)
(5.24329e-07 0 2.24863e-07)
(0 1.09533e-08 1.21458e-07)
(5.39319e-08 1.10218e-08 1.22394e-07)
(1.07413e-07 1.12892e-08 1.25171e-07)
(1.60196e-07 1.19667e-08 1.29778e-07)
(2.1295e-07 1.31753e-08 1.36284e-07)
(2.66423e-07 1.5015e-08 1.44829e-07)
(3.20875e-07 1.76184e-08 1.55574e-07)
(3.75992e-07 2.1183e-08 1.68662e-07)
(4.3067e-07 2.59987e-08 1.84146e-07)
(4.8268e-07 3.25085e-08 2.01885e-07)
(5.28302e-07 4.04749e-08 2.21641e-07)
(0 2.13588e-08 1.22184e-07)
(5.0868e-08 2.15491e-08 1.23062e-07)
(1.0218e-07 2.21697e-08 1.2569e-07)
(1.53744e-07 2.34855e-08 1.3009e-07)
(2.05744e-07 2.57728e-08 1.36323e-07)
(2.58726e-07 2.92716e-08 1.44498e-07)
(3.13146e-07 3.42387e-08 1.54738e-07)
(3.69004e-07 4.10371e-08 1.67103e-07)
(4.25689e-07 5.01434e-08 1.81475e-07)
(4.82032e-07 6.224e-08 1.97424e-07)
(5.36204e-07 7.67232e-08 2.14372e-07)
(0 3.10329e-08 1.23568e-07)
(4.69311e-08 3.13111e-08 1.24361e-07)
(9.47528e-08 3.21991e-08 1.26744e-07)
(1.43698e-07 3.39831e-08 1.30789e-07)
(1.93981e-07 3.7039e-08 1.36577e-07)
(2.4583e-07 4.17602e-08 1.44187e-07)
(2.99678e-07 4.85226e-08 1.53685e-07)
(3.55895e-07 5.77641e-08 1.65043e-07)
(4.14414e-07 7.00301e-08 1.7799e-07)
(4.75012e-07 8.60736e-08 1.91897e-07)
(5.379e-07 1.05189e-07 2.06114e-07)
(0 4.01435e-08 1.25842e-07)
(4.23723e-08 4.04004e-08 1.2653e-07)
(8.59433e-08 4.12643e-08 1.28593e-07)
(1.31085e-07 4.31181e-08 1.32146e-07)
(1.78264e-07 4.64392e-08 1.37322e-07)
(2.27864e-07 5.17224e-08 1.44218e-07)
(2.80161e-07 5.94259e-08 1.52845e-07)
(3.35539e-07 6.99849e-08 1.63093e-07)
(3.94374e-07 8.38835e-08 1.74613e-07)
(4.57025e-07 1.01778e-07 1.86707e-07)
(5.25927e-07 1.23286e-07 1.98786e-07)
(0 4.90012e-08 1.29302e-07)
(3.73888e-08 4.90943e-08 1.29853e-07)
(7.61595e-08 4.95257e-08 1.31512e-07)
(1.16755e-07 5.08599e-08 1.34453e-07)
(1.59605e-07 5.3763e-08 1.3887e-07)
(2.05371e-07 5.88238e-08 1.44916e-07)
(2.54642e-07 6.65141e-08 1.52616e-07)
(3.07617e-07 7.71721e-08 1.61789e-07)
(3.64455e-07 9.10882e-08 1.7202e-07)
(4.25774e-07 1.08687e-07 1.82635e-07)
(4.96742e-07 1.30328e-07 1.93115e-07)
(0 5.81124e-08 1.34275e-07)
(3.22208e-08 5.78339e-08 1.3464e-07)
(6.58318e-08 5.72947e-08 1.35769e-07)
(1.01354e-07 5.73948e-08 1.37945e-07)
(1.39113e-07 5.91169e-08 1.41471e-07)
(1.7967e-07 6.31706e-08 1.4656e-07)
(2.23936e-07 6.99422e-08 1.53272e-07)
(2.7253e-07 7.95973e-08 1.61426e-07)
(3.25091e-07 9.21273e-08 1.70541e-07)
(3.81649e-07 1.07585e-07 1.79924e-07)
(4.50283e-07 1.27274e-07 1.89097e-07)
(0 6.82492e-08 1.41095e-07)
(2.71419e-08 6.72732e-08 1.4119e-07)
(5.55638e-08 6.49652e-08 1.41574e-07)
(8.57216e-08 6.29297e-08 1.42747e-07)
(1.17893e-07 6.27089e-08 1.45207e-07)
(1.52484e-07 6.51456e-08 1.49261e-07)
(1.9024e-07 7.03718e-08 1.54956e-07)
(2.32212e-07 7.82102e-08 1.62107e-07)
(2.78286e-07 8.83227e-08 1.70191e-07)
(3.27504e-07 1.00356e-07 1.78456e-07)
(3.89489e-07 1.16317e-07 1.86397e-07)
(0 8.06046e-08 1.50067e-07)
(2.24654e-08 7.83228e-08 1.49726e-07)
(4.5997e-08 7.28776e-08 1.48974e-07)
(7.08593e-08 6.74431e-08 1.48753e-07)
(9.72133e-08 6.45661e-08 1.49903e-07)
(1.25431e-07 6.5136e-08 1.52851e-07)
(1.56139e-07 6.8729e-08 1.57582e-07)
(1.90254e-07 7.44826e-08 1.63774e-07)
(2.28139e-07 8.16565e-08 1.70818e-07)
(2.68461e-07 8.9668e-08 1.77953e-07)
(3.20184e-07 1.00656e-07 1.84595e-07)
(0 9.72022e-08 1.61462e-07)
(1.85242e-08 9.227e-08 1.60333e-07)
(3.77976e-08 8.10258e-08 1.57711e-07)
(5.78302e-08 7.02979e-08 1.5549e-07)
(7.85223e-08 6.42507e-08 1.55038e-07)
(1.00167e-07 6.33445e-08 1.5685e-07)
(1.23575e-07 6.59152e-08 1.60735e-07)
(1.49825e-07 6.99976e-08 1.66111e-07)
(1.79623e-07 7.43805e-08 1.72195e-07)
(2.11661e-07 7.85985e-08 1.78159e-07)
(2.51296e-07 8.44162e-08 1.83297e-07)
(0 1.22336e-07 1.75803e-07)
(1.52326e-08 1.11573e-07 1.73031e-07)
(3.0861e-08 8.94234e-08 1.67262e-07)
(4.65689e-08 7.04866e-08 1.62135e-07)
(6.18333e-08 6.08807e-08 1.59644e-07)
(7.66907e-08 5.94904e-08 1.60158e-07)
(9.209e-08 6.23408e-08 1.63151e-07)
(1.09827e-07 6.57888e-08 1.67753e-07)
(1.3195e-07 6.80463e-08 1.73024e-07)
(1.595e-07 6.94113e-08 1.7805e-07)
(1.92121e-07 7.15713e-08 1.82233e-07)
(0 0 1.19836e-07)
(6.12288e-08 0 1.20081e-07)
(1.21428e-07 0 1.20773e-07)
(1.80454e-07 0 1.21833e-07)
(2.39352e-07 0 1.23162e-07)
(2.98874e-07 0 1.24627e-07)
(3.59104e-07 0 1.26034e-07)
(4.19287e-07 0 1.27103e-07)
(4.77447e-07 0 1.27449e-07)
(5.29798e-07 0 1.26577e-07)
(5.70243e-07 0 1.23865e-07)
(0 1.01793e-08 1.1929e-07)
(5.9927e-08 1.03136e-08 1.19527e-07)
(1.19422e-07 1.07735e-08 1.20207e-07)
(1.78144e-07 1.1754e-08 1.21249e-07)
(2.36819e-07 1.33697e-08 1.22547e-07)
(2.96246e-07 1.57243e-08 1.23966e-07)
(3.56572e-07 1.895e-08 1.25305e-07)
(4.17197e-07 2.32433e-08 1.26272e-07)
(4.76466e-07 2.88947e-08 1.26462e-07)
(5.31214e-07 3.63582e-08 1.25349e-07)
(5.76189e-07 4.53174e-08 1.22373e-07)
(0 1.98428e-08 1.17707e-07)
(5.65514e-08 2.01516e-08 1.17917e-07)
(1.13671e-07 2.11187e-08 1.1854e-07)
(1.71076e-07 2.29993e-08 1.19512e-07)
(2.28964e-07 2.60669e-08 1.20716e-07)
(2.87921e-07 3.05626e-08 1.21998e-07)
(3.48325e-07 3.67415e-08 1.23145e-07)
(4.0996e-07 4.49589e-08 1.23836e-07)
(4.71801e-07 5.56765e-08 1.23622e-07)
(5.32066e-07 6.95688e-08 1.2191e-07)
(5.88019e-07 8.58553e-08 1.18214e-07)
(0 2.88056e-08 1.15196e-07)
(5.22172e-08 2.92337e-08 1.15367e-07)
(1.05481e-07 3.05667e-08 1.15884e-07)
(1.60033e-07 3.31041e-08 1.16713e-07)
(2.16103e-07 3.72389e-08 1.17757e-07)
(2.73915e-07 4.33648e-08 1.18844e-07)
(3.33838e-07 5.1848e-08 1.19727e-07)
(3.96098e-07 6.31015e-08 1.20057e-07)
(4.60341e-07 7.76228e-08 1.19344e-07)
(5.25949e-07 9.61092e-08 1.16937e-07)
(5.92652e-07 1.17606e-07 1.12502e-07)
(0 3.72212e-08 1.11839e-07)
(4.71883e-08 3.76352e-08 1.11962e-07)
(9.57579e-08 3.89799e-08 1.12344e-07)
(1.46143e-07 4.16801e-08 1.12973e-07)
(1.9886e-07 4.62621e-08 1.13791e-07)
(2.54298e-07 5.32422e-08 1.1465e-07)
(3.12663e-07 6.30581e-08 1.15271e-07)
(3.74204e-07 7.60855e-08 1.15259e-07)
(4.39075e-07 9.27104e-08 1.14101e-07)
(5.0732e-07 1.13463e-07 1.11134e-07)
(5.8115e-07 1.37687e-07 1.0622e-07)
(0 4.53905e-08 1.07672e-07)
(4.16679e-08 4.5619e-08 1.07736e-07)
(8.49292e-08 4.64875e-08 1.07958e-07)
(1.30313e-07 4.86448e-08 1.0836e-07)
(1.78306e-07 5.28491e-08 1.0892e-07)
(2.29604e-07 5.97479e-08 1.09531e-07)
(2.84761e-07 6.98023e-08 1.09935e-07)
(3.43816e-07 8.32455e-08 1.09699e-07)
(4.06659e-07 1.00189e-07 1.08258e-07)
(4.73583e-07 1.20846e-07 1.04976e-07)
(5.49773e-07 1.45343e-07 9.99174e-08)
(0 5.3791e-08 1.02664e-07)
(3.59077e-08 5.35883e-08 1.02656e-07)
(7.34323e-08 5.33375e-08 1.02683e-07)
(1.13206e-07 5.40951e-08 1.02829e-07)
(1.55606e-07 5.7008e-08 1.03134e-07)
(2.01222e-07 6.28857e-08 1.0352e-07)
(2.50958e-07 7.21166e-08 1.03763e-07)
(3.05309e-07 8.47409e-08 1.03446e-07)
(3.6356e-07 1.00472e-07 1.01952e-07)
(4.253e-07 1.19028e-07 9.86344e-08)
(4.98882e-07 1.41584e-07 9.37368e-08)
(0 6.31226e-08 9.66978e-08)
(3.01883e-08 6.21083e-08 9.6594e-08)
(6.18902e-08 5.97992e-08 9.63712e-08)
(9.56842e-08 5.8078e-08 9.62182e-08)
(1.31907e-07 5.87752e-08 9.62778e-08)
(1.70975e-07 6.28942e-08 9.652e-08)
(2.13603e-07 7.05569e-08 9.67156e-08)
(2.60754e-07 8.14286e-08 9.64535e-08)
(3.1197e-07 9.48234e-08 9.51407e-08)
(3.65714e-07 1.09907e-07 9.20828e-08)
(4.32031e-07 1.28658e-07 8.75863e-08)
(0 7.44313e-08 8.95621e-08)
(2.48233e-08 7.19129e-08 8.93173e-08)
(5.09502e-08 6.59764e-08 8.87567e-08)
(7.87695e-08 6.02903e-08 8.8241e-08)
(1.08502e-07 5.78832e-08 8.80634e-08)
(1.4053e-07 5.98959e-08 8.82646e-08)
(1.75432e-07 6.58725e-08 8.85997e-08)
(2.14007e-07 7.4697e-08 8.86065e-08)
(2.56324e-07 8.51967e-08 8.77187e-08)
(3.00426e-07 9.61856e-08 8.51925e-08)
(3.55684e-07 1.09815e-07 8.13183e-08)
(0 8.94849e-08 8.09585e-08)
(2.01312e-08 8.3977e-08 8.04905e-08)
(4.12605e-08 7.14429e-08 7.94252e-08)
(6.35218e-08 5.96128e-08 7.84392e-08)
(8.68551e-08 5.34254e-08 7.80507e-08)
(1.11555e-07 5.36821e-08 7.83546e-08)
(1.38405e-07 5.86355e-08 7.90548e-08)
(1.68379e-07 6.59379e-08 7.96147e-08)
(2.01918e-07 7.38142e-08 7.94285e-08)
(2.37127e-07 8.108e-08 7.77884e-08)
(2.79533e-07 8.93901e-08 7.49806e-08)
(0 1.12172e-07 7.04071e-08)
(1.59549e-08 1.00322e-07 6.9724e-08)
(3.25999e-08 7.56666e-08 6.79067e-08)
(4.97157e-08 5.44269e-08 6.62919e-08)
(6.67662e-08 4.38581e-08 6.57087e-08)
(8.376e-08 4.32343e-08 6.62587e-08)
(1.01652e-07 4.84167e-08 6.75432e-08)
(1.22247e-07 5.52938e-08 6.89497e-08)
(1.47507e-07 6.14649e-08 6.98567e-08)
(1.78202e-07 6.65645e-08 6.98372e-08)
(2.1359e-07 7.17216e-08 6.86736e-08)
(0 0 1.20474e-07)
(6.30507e-08 0 1.20067e-07)
(1.25154e-07 0 1.18818e-07)
(1.86215e-07 0 1.16631e-07)
(2.47376e-07 0 1.13331e-07)
(3.09493e-07 0 1.08648e-07)
(3.72733e-07 0 1.02237e-07)
(4.36399e-07 0 9.37004e-08)
(4.98524e-07 0 8.26358e-08)
(5.55235e-07 0 6.8724e-08)
(6.0019e-07 0 5.15908e-08)
(0 7.40186e-09 1.19255e-07)
(6.17351e-08 7.63168e-09 1.18846e-07)
(1.2313e-07 8.35698e-09 1.17612e-07)
(1.83898e-07 9.72125e-09 1.15451e-07)
(2.44859e-07 1.1826e-08 1.12173e-07)
(3.0692e-07 1.47759e-08 1.07511e-07)
(3.70315e-07 1.87026e-08 1.01125e-07)
(4.34517e-07 2.3802e-08 9.26129e-08)
(4.97913e-07 3.03691e-08 8.15799e-08)
(5.57332e-07 3.88783e-08 6.77371e-08)
(6.07385e-07 4.8986e-08 5.10445e-08)
(0 1.44639e-08 1.15663e-07)
(5.83084e-08 1.49292e-08 1.15257e-07)
(1.17302e-07 1.63573e-08 1.14053e-07)
(1.76773e-07 1.89572e-08 1.11949e-07)
(2.37006e-07 2.29718e-08 1.08744e-07)
(2.98694e-07 2.86348e-08 1.0416e-07)
(3.6232e-07 3.62024e-08 9.78565e-08)
(4.27769e-07 4.60251e-08 8.94363e-08)
(4.94121e-07 5.85603e-08 7.85235e-08)
(5.59736e-07 7.44991e-08 6.48576e-08)
(6.22001e-07 9.29604e-08 4.86255e-08)
(0 2.11083e-08 1.09798e-07)
(5.39053e-08 2.17284e-08 1.09397e-07)
(1.08997e-07 2.36441e-08 1.08219e-07)
(1.65622e-07 2.71449e-08 1.06173e-07)
(2.24112e-07 3.26124e-08 1.03072e-07)
(2.8479e-07 4.04264e-08 9.86318e-08)
(3.48137e-07 5.09458e-08 9.2494e-08)
(4.14506e-07 6.45714e-08 8.42621e-08)
(4.83683e-07 8.17752e-08 7.35736e-08)
(5.55268e-07 1.03241e-07 6.01608e-08)
(6.29204e-07 1.27816e-07 4.44107e-08)
(0 2.75615e-08 1.01677e-07)
(4.87954e-08 2.81853e-08 1.01282e-07)
(9.91365e-08 3.01752e-08 1.00141e-07)
(1.51584e-07 3.39829e-08 9.81637e-08)
(2.06779e-07 4.01732e-08 9.51954e-08)
(2.65221e-07 4.92783e-08 9.09789e-08)
(3.2722e-07 6.17209e-08 8.51385e-08)
(3.93147e-07 7.78417e-08 7.72484e-08)
(4.63295e-07 9.79722e-08 6.69431e-08)
(5.37901e-07 1.22585e-07 5.39518e-08)
(6.19334e-07 1.50704e-07 3.88642e-08)
(0 3.42475e-08 9.12109e-08)
(4.31812e-08 3.46755e-08 9.08252e-08)
(8.81468e-08 3.61782e-08 8.97423e-08)
(1.35573e-07 3.9482e-08 8.78865e-08)
(1.8608e-07 4.54433e-08 8.5119e-08)
(2.40492e-07 5.47856e-08 8.12173e-08)
(2.99479e-07 6.79828e-08 7.58271e-08)
(3.63169e-07 8.52033e-08 6.85057e-08)
(4.31541e-07 1.06453e-07 5.88355e-08)
(5.05013e-07 1.3184e-07 4.6548e-08)
(5.88821e-07 1.61053e-07 3.24603e-08)
(0 4.18323e-08 7.8227e-08)
(3.73153e-08 4.17791e-08 7.78648e-08)
(7.64653e-08 4.20422e-08 7.68687e-08)
(1.18254e-07 4.38435e-08 7.51963e-08)
(1.63202e-07 4.85222e-08 7.2742e-08)
(2.12024e-07 5.70322e-08 6.92926e-08)
(2.65753e-07 6.98205e-08 6.45292e-08)
(3.24969e-07 8.68691e-08 5.80321e-08)
(3.88979e-07 1.07716e-07 4.93288e-08)
(4.57394e-07 1.31897e-07 3.81374e-08)
(5.38526e-07 1.60064e-07 2.54715e-08)
(0 5.12961e-08 6.24923e-08)
(3.14807e-08 5.03172e-08 6.21678e-08)
(6.47231e-08 4.8233e-08 6.13048e-08)
(1.00503e-07 4.72434e-08 5.9899e-08)
(1.39317e-07 4.95332e-08 5.78989e-08)
(1.81706e-07 5.63501e-08 5.51098e-08)
(2.28489e-07 6.78979e-08 5.12152e-08)
(2.80728e-07 8.37892e-08 4.58031e-08)
(3.37944e-07 1.03099e-07 3.84551e-08)
(3.98526e-07 1.24709e-07 2.88369e-08)
(4.72411e-07 1.5004e-07 1.80104e-08)
(0 6.40911e-08 4.37731e-08)
(2.59933e-08 6.13799e-08 4.35065e-08)
(5.35763e-08 5.50994e-08 4.28586e-08)
(8.33629e-08 4.95179e-08 4.18461e-08)
(1.15752e-07 4.8282e-08 4.04617e-08)
(1.5126e-07 5.29248e-08 3.856e-08)
(1.90554e-07 6.30859e-08 3.5835e-08)
(2.34483e-07 7.75096e-08 3.18684e-08)
(2.83044e-07 9.46653e-08 2.63134e-08)
(3.34169e-07 1.12996e-07 1.87334e-08)
(3.9706e-07 1.34078e-07 1.01403e-08)
(0 8.25794e-08 2.19253e-08)
(2.11727e-08 7.64288e-08 2.17681e-08)
(4.36825e-08 6.24877e-08 2.14457e-08)
(6.79217e-08 4.96574e-08 2.09642e-08)
(9.40207e-08 4.39015e-08 2.03833e-08)
(1.2242e-07 4.65832e-08 1.96123e-08)
(1.53997e-07 5.60399e-08 1.83688e-08)
(1.89725e-07 6.96185e-08 1.62519e-08)
(2.29868e-07 8.49444e-08 1.29031e-08)
(2.72242e-07 1.00171e-07 7.88403e-09)
(3.21948e-07 1.16155e-07 2.13785e-09)
(0 1.11653e-07 -3.33558e-09)
(1.68311e-08 9.82143e-08 -2.9579e-09)
(3.47514e-08 7.02582e-08 -2.76117e-09)
(5.3813e-08 4.61756e-08 -2.56914e-09)
(7.3654e-08 3.47347e-08 -2.15524e-09)
(9.44342e-08 3.58982e-08 -1.53106e-09)
(1.17248e-07 4.55865e-08 -9.58896e-10)
(1.43949e-07 5.92814e-08 -8.19287e-10)
(1.76298e-07 7.37749e-08 -1.47746e-09)
(2.14426e-07 8.74681e-08 -3.09558e-09)
(2.56801e-07 1.00308e-07 -5.75478e-09)
(0 0 1.31958e-07)
(6.0111e-08 0 1.31151e-07)
(1.19435e-07 0 1.28708e-07)
(1.77995e-07 0 1.24546e-07)
(2.37009e-07 0 1.18465e-07)
(2.97457e-07 0 1.10153e-07)
(3.59716e-07 0 9.92257e-08)
(4.23414e-07 0 8.52819e-08)
(4.87066e-07 0 6.79932e-08)
(5.47455e-07 0 4.72399e-08)
(5.99155e-07 0 2.29107e-08)
(0 2.1947e-09 1.30349e-07)
(5.88665e-08 2.54111e-09 1.29543e-07)
(1.17529e-07 3.58706e-09 1.27128e-07)
(1.75832e-07 5.38479e-09 1.2301e-07)
(2.34689e-07 8.00903e-09 1.16976e-07)
(2.95134e-07 1.15624e-08 1.08714e-07)
(3.5761e-07 1.6173e-08 9.78523e-08)
(4.21916e-07 2.20308e-08 8.3985e-08)
(4.86919e-07 2.94269e-08 6.67972e-08)
(5.5011e-07 3.8845e-08 4.62152e-08)
(6.06914e-07 4.99626e-08 2.25717e-08)
(0 4.33413e-09 1.25594e-07)
(5.56231e-08 4.9799e-09 1.24803e-07)
(1.12031e-07 6.9436e-09 1.2246e-07)
(1.69156e-07 1.03468e-08 1.1846e-07)
(2.27414e-07 1.5368e-08 1.12575e-07)
(2.87637e-07 2.222e-08 1.04488e-07)
(3.50521e-07 3.11547e-08 9.38286e-08)
(4.16266e-07 4.25081e-08 8.02058e-08)
(4.84418e-07 5.67217e-08 6.33391e-08)
(5.53987e-07 7.44891e-08 4.31989e-08)
(6.23107e-07 9.49191e-08 2.03799e-08)
(0 6.51653e-09 1.17799e-07)
(5.14562e-08 7.34931e-09 1.17035e-07)
(1.04192e-07 9.91973e-09 1.1478e-07)
(1.58689e-07 1.448e-08 1.10928e-07)
(2.15422e-07 2.13682e-08 1.05267e-07)
(2.74883e-07 3.09234e-08 9.74784e-08)
(3.37766e-07 4.34844e-08 8.7178e-08)
(4.04719e-07 5.94311e-08 7.39809e-08)
(4.75953e-07 7.92004e-08 5.76316e-08)
(5.51647e-07 1.0345e-07 3.809e-08)
(6.32305e-07 1.30926e-07 1.61561e-08)
(0 9.07958e-09 1.06965e-07)
(4.6617e-08 9.93441e-09 1.06231e-07)
(9.48785e-08 1.26435e-08 1.04089e-07)
(1.45491e-07 1.76634e-08 1.00429e-07)
(1.99247e-07 2.55802e-08 9.50638e-08)
(2.56816e-07 3.69218e-08 8.77085e-08)
(3.18723e-07 5.20758e-08 7.79651e-08)
(3.85615e-07 7.1338e-08 6.54214e-08)
(4.5814e-07 9.49838e-08 4.9816e-08)
(5.37e-07 1.23423e-07 3.10916e-08)
(6.24814e-07 1.55419e-07 1.02536e-08)
(0 1.26502e-08 9.29643e-08)
(4.1295e-08 1.33013e-08 9.22677e-08)
(8.44897e-08 1.55208e-08 9.02795e-08)
(1.30425e-07 2.00969e-08 8.68933e-08)
(1.7989e-07 2.79765e-08 8.19377e-08)