/*--------------------------------*- C++ -*----------------------------------*\
| =========                 |                                                 |
| \\      /  F ield         | foam-extend: Open Source CFD                    |
|  \\    /   O peration     | Version:     3.1                                |
|   \\  /    A nd           | Web:         http://www.extend-project.de       |
|    \\/     M anipulation  |                                                 |
\*---------------------------------------------------------------------------*/
FoamFile
{
    version     2.0;
    format      ascii;
    class       surfaceVectorField;
    location    "0.0015";
    object      Sf;
}
// * * * * * * * * * * * * * * * * * * * * * * * * * * * * * * * * * * * * * //

dimensions      [0 2 0 0 0 0 0];

internalField   nonuniform List<vector> 
45800
(
(2.11001e-07 3.68324e-09 -8.67336e-10)
(3.68261e-09 2.10998e-07 -8.69572e-10)
(-1.32309e-11 -1.31608e-11 1.1629e-07)
(2.07339e-07 7.36092e-09 -1.67615e-09)
(3.7012e-09 2.11001e-07 -8.62239e-10)
(-3.89235e-11 -1.38172e-11 1.14224e-07)
(2.03695e-07 1.10363e-08 -2.41171e-09)
(3.70686e-09 2.11013e-07 -8.42068e-10)
(-6.32988e-11 -1.51465e-11 1.1213e-07)
(2.00075e-07 1.47155e-08 -3.07759e-09)
(3.70776e-09 2.1105e-07 -8.18904e-10)
(-8.7658e-11 -1.73244e-11 1.10036e-07)
(1.9648e-07 1.84007e-08 -3.67919e-09)
(3.70849e-09 2.11116e-07 -7.9594e-10)
(-1.13157e-10 -2.0519e-11 1.07948e-07)
(1.92911e-07 2.20938e-08 -4.21963e-09)
(3.70913e-09 2.11214e-07 -7.73883e-10)
(-1.40709e-10 -2.48887e-11 1.05865e-07)
(1.89373e-07 2.5797e-08 -4.69978e-09)
(3.7093e-09 2.11344e-07 -7.53618e-10)
(-1.71151e-10 -3.06666e-11 1.03784e-07)
(1.85869e-07 2.95129e-08 -5.11793e-09)
(3.70895e-09 2.11509e-07 -7.36289e-10)
(-2.04871e-10 -3.80406e-11 1.01704e-07)
(1.82403e-07 3.32449e-08 -5.46929e-09)
(3.70797e-09 2.11708e-07 -7.23142e-10)
(-2.41738e-10 -4.67955e-11 9.9623e-08)
(3.71914e-09 2.11946e-07 -7.091e-10)
(-2.83251e-10 -5.42353e-11 9.75362e-08)
(1.78967e-07 3.70007e-08 -5.74842e-09)
(2.11e-07 3.70055e-09 -8.6001e-10)
(7.3597e-09 2.07337e-07 -1.6771e-09)
(-1.38617e-11 -3.88253e-11 1.1422e-07)
(2.07352e-07 7.3902e-09 -1.67162e-09)
(7.38893e-09 2.07351e-07 -1.67382e-09)
(-3.90518e-11 -3.89348e-11 1.12175e-07)
(2.03716e-07 1.10704e-08 -2.41799e-09)
(7.40564e-09 2.07372e-07 -1.64712e-09)
(-6.31763e-11 -3.94004e-11 1.10103e-07)
(2.00099e-07 1.47505e-08 -3.09574e-09)
(7.41198e-09 2.0741e-07 -1.60947e-09)
(-8.7334e-11 -4.0471e-11 1.08019e-07)
(1.96506e-07 1.84366e-08 -3.70777e-09)
(7.41425e-09 2.07473e-07 -1.56931e-09)
(-1.12616e-10 -4.23164e-11 1.05936e-07)
(1.92939e-07 2.21307e-08 -4.25727e-09)
(7.41611e-09 2.07565e-07 -1.53009e-09)
(-1.39898e-10 -4.51458e-11 1.03855e-07)
(1.89401e-07 2.58351e-08 -4.74527e-09)
(7.4168e-09 2.07689e-07 -1.49374e-09)
(-1.69938e-10 -4.91094e-11 1.01777e-07)
(1.85896e-07 2.95532e-08 -5.17001e-09)
(7.41674e-09 2.07844e-07 -1.46245e-09)
(-2.02825e-10 -5.39943e-11 9.96994e-08)
(1.82426e-07 3.32877e-08 -5.52686e-09)
(7.41655e-09 2.08033e-07 -1.4379e-09)
(-2.3805e-10 -5.91232e-11 9.76195e-08)
(7.44225e-09 2.08257e-07 -1.40863e-09)
(-2.74099e-10 -6.24305e-11 9.55277e-08)
(1.78977e-07 3.70388e-08 -5.8077e-09)
(2.11011e-07 3.70511e-09 -8.41077e-10)
(1.10358e-08 2.03695e-07 -2.41054e-09)
(-1.51419e-11 -6.32842e-11 1.12127e-07)
(2.07371e-07 7.40448e-09 -1.64481e-09)
(1.10684e-08 2.03714e-07 -2.41806e-09)
(-3.94686e-11 -6.30905e-11 1.101e-07)
(2.03745e-07 1.10954e-08 -2.39534e-09)
(1.10939e-08 2.03744e-07 -2.39712e-09)
(-6.30794e-11 -6.29537e-11 1.08051e-07)
(2.00134e-07 1.47809e-08 -3.08319e-09)
(1.11101e-08 2.03788e-07 -2.35681e-09)
(-8.68126e-11 -6.31768e-11 1.05986e-07)
(1.96543e-07 1.84691e-08 -3.70556e-09)
(1.11172e-08 2.03848e-07 -2.30747e-09)
(-1.11655e-10 -6.39612e-11 1.0391e-07)
(1.92977e-07 2.21653e-08 -4.26401e-09)
(1.11206e-08 2.03934e-07 -2.25705e-09)
(-1.38493e-10 -6.55227e-11 1.01835e-07)
(1.89439e-07 2.58719e-08 -4.75956e-09)
(1.11227e-08 2.0405e-07 -2.20976e-09)
(-1.67882e-10 -6.8033e-11 9.97601e-08)
(1.85931e-07 2.95919e-08 -5.19003e-09)
(1.1124e-08 2.04196e-07 -2.16828e-09)
(-1.99518e-10 -7.12894e-11 9.76842e-08)
(1.82455e-07 3.33277e-08 -5.5512e-09)
(1.11251e-08 2.04372e-07 -2.13481e-09)
(-2.32811e-10 -7.48596e-11 9.56054e-08)
(1.11666e-08 2.04585e-07 -2.09183e-09)
(-2.64454e-10 -7.67068e-11 9.3515e-08)
(1.78995e-07 3.70761e-08 -5.83624e-09)
(2.11048e-07 3.7073e-09 -8.19076e-10)
(1.47155e-08 2.00075e-07 -3.07564e-09)
(-1.72977e-11 -8.77206e-11 1.10036e-07)
(2.07408e-07 7.41014e-09 -1.60865e-09)
(1.47496e-08 2.00099e-07 -3.09422e-09)
(-4.04696e-11 -8.73679e-11 1.08017e-07)
(2.03786e-07 1.11089e-08 -2.35482e-09)
(1.47788e-08 2.00132e-07 -3.08312e-09)
(-6.32464e-11 -8.67653e-11 1.05983e-07)
(2.0018e-07 1.48037e-08 -3.04688e-09)
(1.48023e-08 2.00179e-07 -3.04853e-09)
(-8.63694e-11 -8.62719e-11 1.03934e-07)
(1.9659e-07 1.84968e-08 -3.67758e-09)
(1.4818e-08 2.00241e-07 -2.99831e-09)
(-1.10605e-10 -8.61868e-11 1.01871e-07)
(1.93022e-07 2.21953e-08 -4.24414e-09)
(1.48256e-08 2.00323e-07 -2.9418e-09)
(-1.36828e-10 -8.67326e-11 9.97998e-08)
(1.89481e-07 2.59045e-08 -4.74612e-09)
(1.48288e-08 2.00429e-07 -2.88708e-09)
(-1.65517e-10 -8.81574e-11 9.77272e-08)
(1.8597e-07 2.96269e-08 -5.18124e-09)
(1.48316e-08 2.00564e-07 -2.83868e-09)
(-1.9613e-10 -9.05502e-11 9.56528e-08)
(1.82488e-07 3.33643e-08 -5.54584e-09)
(1.48348e-08 2.00728e-07 -2.79876e-09)
(-2.28079e-10 -9.38243e-11 9.35753e-08)
(1.48914e-08 2.00933e-07 -2.74437e-09)
(-2.55723e-10 -9.52763e-11 9.14888e-08)
(1.79019e-07 3.71122e-08 -5.83603e-09)
(2.11116e-07 3.70855e-09 -7.96323e-10)
(1.84006e-08 1.9648e-07 -3.67709e-09)
(-2.0503e-11 -1.13249e-10 1.07949e-07)
(2.07472e-07 7.41371e-09 -1.56972e-09)
(1.84363e-08 1.96506e-07 -3.7059e-09)
(-4.22847e-11 -1.12706e-10 1.05935e-07)
(2.03846e-07 1.11155e-08 -2.30687e-09)
(1.84681e-08 1.96542e-07 -3.70431e-09)
(-6.3933e-11 -1.1169e-10 1.03908e-07)
(2.0024e-07 1.48169e-08 -2.99643e-09)
(1.84947e-08 1.96588e-07 -3.67775e-09)
(-8.62312e-11 -1.10546e-10 1.01868e-07)
(1.96651e-07 1.85183e-08 -3.63043e-09)
(1.85167e-08 1.9665e-07 -3.63234e-09)
(-1.09775e-10 -1.09674e-10 9.98166e-08)
(1.9308e-07 2.22211e-08 -4.20315e-09)
(1.8532e-08 1.96729e-07 -3.57522e-09)
(-1.35377e-10 -1.09471e-10 9.77541e-08)
(1.89533e-07 2.59319e-08 -4.71038e-09)
(1.85392e-08 1.96829e-07 -3.51544e-09)
(-1.63369e-10 -1.1016e-10 9.56829e-08)
(1.86016e-07 2.9657e-08 -5.14851e-09)
(1.85421e-08 1.96951e-07 -3.46122e-09)
(-1.93363e-10 -1.11971e-10 9.36074e-08)
(1.82529e-07 3.33978e-08 -5.51473e-09)
(1.85469e-08 1.97102e-07 -3.4164e-09)
(-2.24644e-10 -1.15169e-10 9.153e-08)
(1.86167e-08 1.97299e-07 -3.35329e-09)
(-2.48252e-10 -1.16176e-10 8.94489e-08)
(1.79051e-07 3.71478e-08 -5.80921e-09)
(2.11214e-07 3.70917e-09 -7.74217e-10)
(2.20937e-08 1.92912e-07 -4.21753e-09)
(-2.48807e-11 -1.40796e-10 1.05865e-07)
(2.07565e-07 7.41619e-09 -1.53074e-09)
(2.21304e-08 1.92939e-07 -4.2554e-09)
(-4.51066e-11 -1.39983e-10 1.03856e-07)
(2.03934e-07 1.112e-08 -2.2576e-09)
(2.21649e-08 1.92977e-07 -4.26252e-09)
(-6.54498e-11 -1.38569e-10 1.01834e-07)
(2.00321e-07 1.48236e-08 -2.94134e-09)
(2.21942e-08 1.93022e-07 -4.24335e-09)
(-8.67136e-11 -1.36879e-10 9.97979e-08)
(1.96729e-07 1.85307e-08 -3.5731e-09)
(2.22185e-08 1.93078e-07 -4.20392e-09)
(-1.095e-10 -1.35338e-10 9.77513e-08)
(1.93156e-07 2.22416e-08 -4.14743e-09)
(2.22394e-08 1.93153e-07 -4.15021e-09)
(-1.34483e-10 -1.34384e-10 9.56966e-08)
(1.89602e-07 2.59567e-08 -4.65799e-09)
(2.22546e-08 1.93248e-07 -4.08874e-09)
(-1.61839e-10 -1.34356e-10 9.36306e-08)
(1.86075e-07 2.96835e-08 -5.0975e-09)
(2.22603e-08 1.9336e-07 -4.02874e-09)
(-1.91393e-10 -1.35574e-10 9.15531e-08)
(1.82579e-07 3.34282e-08 -5.46227e-09)
(2.22653e-08 1.93496e-07 -3.97785e-09)
(-2.22229e-10 -1.3816e-10 8.94717e-08)
(2.2343e-08 1.93682e-07 -3.90759e-09)
(-2.41707e-10 -1.37901e-10 8.7395e-08)
(1.79095e-07 3.71829e-08 -5.75811e-09)
(2.11344e-07 3.70932e-09 -7.53928e-10)
(2.57969e-08 1.89374e-07 -4.69785e-09)
(-3.06595e-11 -1.71235e-10 1.03784e-07)
(2.07689e-07 7.41683e-09 -1.49434e-09)
(2.58349e-08 1.89402e-07 -4.74355e-09)
(-4.90654e-11 -1.70016e-10 1.01778e-07)
(2.0405e-07 1.11226e-08 -2.21063e-09)
(2.58715e-08 1.89439e-07 -4.75818e-09)
(-6.79554e-11 -1.67951e-10 9.97605e-08)
(2.00428e-07 1.48279e-08 -2.88801e-09)
(2.59042e-08 1.89482e-07 -4.74512e-09)
(-8.80982e-11 -1.65564e-10 9.77271e-08)
(1.96826e-07 1.85364e-08 -3.51514e-09)
(2.5931e-08 1.89533e-07 -4.70994e-09)
(-1.10065e-10 -1.6334e-10 9.56805e-08)
(1.93246e-07 2.22526e-08 -4.08577e-09)
(2.59537e-08 1.89598e-07 -4.65905e-09)
(-1.34274e-10 -1.61604e-10 9.36262e-08)
(1.89688e-07 2.59757e-08 -4.59507e-09)
(2.59741e-08 1.89685e-07 -4.59804e-09)
(-1.61059e-10 -1.6073e-10 9.15647e-08)
(1.8615e-07 2.97074e-08 -5.03332e-09)
(2.59872e-08 1.89789e-07 -4.53364e-09)
(-1.89658e-10 -1.60588e-10 8.94886e-08)
(1.82641e-07 3.3456e-08 -5.39291e-09)
(2.59943e-08 1.89908e-07 -4.47435e-09)
(-2.19481e-10 -1.60981e-10 8.7401e-08)
(2.60707e-08 1.90079e-07 -4.39702e-09)
(-2.35216e-10 -1.58207e-10 8.53261e-08)
(1.79148e-07 3.72173e-08 -5.68525e-09)
(2.11509e-07 3.709e-09 -7.36572e-10)
(2.95128e-08 1.85869e-07 -5.11634e-09)
(-3.80317e-11 -2.04958e-10 1.01704e-07)
(2.07845e-07 7.41684e-09 -1.46301e-09)
(2.9553e-08 1.85897e-07 -5.1686e-09)
(-5.39393e-11 -2.029e-10 9.97e-08)
(2.04196e-07 1.11242e-08 -2.16911e-09)
(2.95916e-08 1.85931e-07 -5.18888e-09)
(-7.11904e-11 -1.99567e-10 9.76847e-08)
(2.00564e-07 1.48319e-08 -2.8399e-09)
(2.96267e-08 1.8597e-07 -5.18032e-09)
(-9.04214e-11 -1.96119e-10 9.56533e-08)
(1.9695e-07 1.85416e-08 -3.46246e-09)
(2.96571e-08 1.86016e-07 -5.14766e-09)
(-1.11772e-10 -1.93261e-10 9.3607e-08)
(1.93356e-07 2.22576e-08 -4.02772e-09)
(2.96827e-08 1.86073e-07 -5.09677e-09)
(-1.35157e-10 -1.91061e-10 9.15491e-08)
(1.89786e-07 2.59851e-08 -4.53067e-09)
(2.9705e-08 1.86147e-07 -5.03362e-09)
(-1.60747e-10 -1.89115e-10 8.9484e-08)
(1.86236e-07 2.97246e-08 -4.962e-09)
(2.97237e-08 1.86235e-07 -4.96368e-09)
(-1.86773e-10 -1.86188e-10 8.74063e-08)
(1.82711e-07 3.34786e-08 -5.31168e-09)
(2.97338e-08 1.86337e-07 -4.89452e-09)
(-2.14439e-10 -1.82368e-10 8.53141e-08)
(2.97996e-08 1.86484e-07 -4.81086e-09)
(-2.26765e-10 -1.74836e-10 8.32397e-08)
(1.79209e-07 3.72485e-08 -5.59384e-09)
(2.11709e-07 3.70805e-09 -7.23376e-10)
(3.32449e-08 1.82403e-07 -5.46816e-09)
(-4.67832e-11 -2.41817e-10 9.96237e-08)
(2.08033e-07 7.4167e-09 -1.43834e-09)
(3.32876e-08 1.82426e-07 -5.52588e-09)
(-5.90575e-11 -2.38123e-10 9.76202e-08)
(2.04372e-07 1.11254e-08 -2.13545e-09)
(3.33275e-08 1.82456e-07 -5.55043e-09)
(-7.47354e-11 -2.32867e-10 9.5606e-08)
(2.00728e-07 1.48352e-08 -2.79961e-09)
(3.33642e-08 1.82488e-07 -5.54524e-09)
(-9.3644e-11 -2.28106e-10 9.35758e-08)
(1.97103e-07 1.85478e-08 -3.41747e-09)
(3.33978e-08 1.82528e-07 -5.51416e-09)
(-1.1492e-10 -2.2463e-10 9.15305e-08)
(1.93495e-07 2.22651e-08 -3.97805e-09)
(3.34284e-08 1.82578e-07 -5.46154e-09)
(-1.37691e-10 -2.2222e-10 8.94709e-08)
(1.89906e-07 2.5992e-08 -4.47311e-09)
(3.34551e-08 1.8264e-07 -5.39231e-09)
(-1.6112e-10 -2.19588e-10 8.73986e-08)
(1.86335e-07 2.97321e-08 -4.893e-09)
(3.34771e-08 1.8271e-07 -5.31193e-09)
(-1.82858e-10 -2.14429e-10 8.53124e-08)
(1.82786e-07 3.34881e-08 -5.22776e-09)
(3.34878e-08 1.82785e-07 -5.22873e-09)
(-2.04866e-10 -2.04654e-10 8.32127e-08)
(3.35299e-08 1.82886e-07 -5.13754e-09)
(-2.0913e-10 -1.84466e-10 8.11312e-08)
(1.79265e-07 3.72705e-08 -5.48918e-09)
(2.11947e-07 3.71922e-09 -7.0927e-10)
(-5.42137e-11 -2.83265e-10 9.75368e-08)
(3.70007e-08 1.78967e-07 -5.74776e-09)
(2.08258e-07 7.4424e-09 -1.40894e-09)
(-6.2356e-11 -2.74116e-10 9.55283e-08)
(3.70387e-08 1.78977e-07 -5.80715e-09)
(2.04586e-07 1.11668e-08 -2.09226e-09)
(-7.65765e-11 -2.64479e-10 9.35154e-08)
(3.70759e-08 1.78996e-07 -5.83585e-09)
(2.00933e-07 1.48917e-08 -2.74487e-09)
(-9.51065e-11 -2.55768e-10 9.14892e-08)
(3.71121e-08 1.79019e-07 -5.83577e-09)
(1.97299e-07 1.8617e-08 -3.35378e-09)
(-1.1598e-10 -2.48354e-10 8.94493e-08)
(3.71478e-08 1.79051e-07 -5.809e-09)
(1.93682e-07 2.2343e-08 -3.90786e-09)
(-1.37673e-10 -2.41965e-10 8.73953e-08)
(3.71829e-08 1.79094e-07 -5.75789e-09)
(1.90079e-07 2.60701e-08 -4.39701e-09)
(-1.5833e-10 -2.35567e-10 8.53262e-08)
(3.72171e-08 1.79148e-07 -5.68505e-09)
(1.86483e-07 2.97984e-08 -4.81046e-09)
(-1.74976e-10 -2.26863e-10 8.3239e-08)
(3.72481e-08 1.79208e-07 -5.59378e-09)
(1.82885e-07 3.35291e-08 -5.1367e-09)
(-1.84466e-10 -2.08833e-10 8.113e-08)
(3.72699e-08 1.79263e-07 -5.48935e-09)
(-1.78298e-10 -1.779e-10 7.90275e-08)
(1.79313e-07 3.72806e-08 -5.3794e-09)
(3.72803e-08 1.79313e-07 -5.37984e-09)
(2.12356e-07 3.7031e-09 -8.31196e-10)
(3.70126e-09 2.12349e-07 -8.33237e-10)
(-2.31474e-11 -2.3029e-11 1.17955e-07)
(2.08629e-07 7.38675e-09 -1.60672e-09)
(3.75515e-09 2.123e-07 -8.26554e-10)
(-6.72526e-11 -2.41241e-11 1.15826e-07)
(2.04905e-07 1.10577e-08 -2.31318e-09)
(3.76957e-09 2.12222e-07 -8.07546e-10)
(-1.08949e-10 -2.63301e-11 1.13644e-07)
(2.01199e-07 1.47308e-08 -2.95504e-09)
(3.7689e-09 2.12158e-07 -7.85895e-10)
(-1.49987e-10 -2.99164e-11 1.11464e-07)
(1.97511e-07 1.84084e-08 -3.53871e-09)
(3.76661e-09 2.12122e-07 -7.64783e-10)
(-1.92049e-10 -3.51148e-11 1.09297e-07)
(1.93844e-07 2.2092e-08 -4.06881e-09)
(3.7627e-09 2.12108e-07 -7.44965e-10)
(-2.36267e-10 -4.21006e-11 1.0714e-07)
(1.902e-07 2.57829e-08 -4.5485e-09)
(3.75581e-09 2.12112e-07 -7.2742e-10)
(-2.83441e-10 -5.11178e-11 1.04991e-07)
(1.86583e-07 2.9482e-08 -4.97929e-09)
(3.74552e-09 2.12126e-07 -7.13467e-10)
(-3.33348e-10 -6.22624e-11 1.02848e-07)
(1.82995e-07 3.31916e-08 -5.36083e-09)
(3.73108e-09 2.12139e-07 -7.04651e-10)
(-3.84566e-10 -7.48857e-11 1.00709e-07)
(3.75006e-09 2.12145e-07 -6.97231e-10)
(-4.37714e-10 -8.44506e-11 9.85656e-08)
(1.79399e-07 3.69254e-08 -5.69305e-09)
(2.12298e-07 3.75322e-09 -8.24495e-10)
(7.38319e-09 2.08624e-07 -1.60743e-09)
(-2.41975e-11 -6.70864e-11 1.15819e-07)
(2.08614e-07 7.47128e-09 -1.60314e-09)
(7.46754e-09 2.08611e-07 -1.60505e-09)
(-6.73733e-11 -6.71762e-11 1.13732e-07)
(2.04916e-07 1.11553e-08 -2.32039e-09)
(7.51243e-09 2.08566e-07 -1.58031e-09)
(-1.08594e-10 -6.77579e-11 1.11593e-07)
(2.01222e-07 1.48301e-08 -2.974e-09)
(7.52461e-09 2.08512e-07 -1.54542e-09)
(-1.49247e-10 -6.92428e-11 1.09432e-07)
(1.97545e-07 1.851e-08 -3.5681e-09)
(7.52249e-09 2.08472e-07 -1.50871e-09)
(-1.90904e-10 -7.18765e-11 1.07274e-07)
(1.93886e-07 2.21963e-08 -4.10738e-09)
(7.51654e-09 2.08453e-07 -1.47376e-09)
(-2.3464e-10 -7.59312e-11 1.05124e-07)
(1.90249e-07 2.58904e-08 -4.59514e-09)
(7.50401e-09 2.0845e-07 -1.44267e-09)
(-2.81142e-10 -8.15344e-11 1.0298e-07)
(1.86636e-07 2.95962e-08 -5.03278e-09)
(7.48558e-09 2.08454e-07 -1.41799e-09)
(-3.29742e-10 -8.81732e-11 1.00842e-07)
(1.83045e-07 3.33147e-08 -5.41981e-09)
(7.46241e-09 2.08455e-07 -1.402e-09)
(-3.78512e-10 -9.45637e-11 9.87039e-08)
(7.51146e-09 2.08455e-07 -1.38581e-09)
(-4.23637e-10 -9.73108e-11 9.65488e-08)
(1.79433e-07 3.70391e-08 -5.75237e-09)
(2.12215e-07 3.76439e-09 -8.06654e-10)
(1.10561e-08 2.04905e-07 -2.31183e-09)
(-2.63191e-11 -1.08928e-10 1.13638e-07)
(2.08561e-07 7.50897e-09 -1.57824e-09)
(1.11495e-08 2.04911e-07 -2.32016e-09)
(-6.78691e-11 -1.0845e-10 1.11586e-07)
(2.049e-07 1.12227e-08 -2.30011e-09)
(1.12185e-08 2.04897e-07 -2.30151e-09)
(-1.08106e-10 -1.07896e-10 1.09495e-07)
(2.01229e-07 1.49118e-08 -2.964e-09)
(1.12568e-08 2.04868e-07 -2.26492e-09)
(-1.47943e-10 -1.07769e-10 1.07369e-07)
(1.97564e-07 1.85961e-08 -3.56856e-09)
(1.12649e-08 2.04832e-07 -2.22041e-09)
(-1.88764e-10 -1.0837e-10 1.05227e-07)
(1.93916e-07 2.22871e-08 -4.11706e-09)
(1.12579e-08 2.04806e-07 -2.17603e-09)
(-2.3167e-10 -1.09992e-10 1.03085e-07)
(1.90286e-07 2.59869e-08 -4.61272e-09)
(1.12427e-08 2.04795e-07 -2.13636e-09)
(-2.7704e-10 -1.12802e-10 1.00949e-07)
(1.86676e-07 2.96982e-08 -5.05636e-09)
(1.12197e-08 2.04788e-07 -2.10458e-09)
(-3.23618e-10 -1.16311e-10 9.88144e-08)
(1.83085e-07 3.34216e-08 -5.44767e-09)
(1.11899e-08 2.04777e-07 -2.08376e-09)
(-3.69465e-10 -1.19629e-10 9.66785e-08)
(1.12737e-08 2.04778e-07 -2.06008e-09)
(-4.0823e-10 -1.19414e-10 9.45247e-08)
(1.79467e-07 3.71416e-08 -5.78316e-09)
(2.12155e-07 3.76756e-09 -7.86158e-10)
(1.47307e-08 2.012e-07 -2.95292e-09)
(-2.98689e-11 -1.50102e-10 1.11463e-07)
(2.08506e-07 7.51917e-09 -1.54478e-09)
(1.48276e-08 2.01222e-07 -2.97225e-09)
(-6.92354e-11 -1.49311e-10 1.09427e-07)
(2.04863e-07 1.12532e-08 -2.26326e-09)
(1.49055e-08 2.01225e-07 -2.96353e-09)
(-1.0788e-10 -1.47868e-10 1.07363e-07)
(2.01218e-07 1.49667e-08 -2.93212e-09)
(1.49626e-08 2.01214e-07 -2.93328e-09)
(-1.46528e-10 -1.4637e-10 1.05271e-07)
(1.97566e-07 1.86632e-08 -3.54552e-09)
(1.49923e-08 2.01194e-07 -2.88913e-09)
(-1.86172e-10 -1.45275e-10 1.03153e-07)
(1.93922e-07 2.23589e-08 -4.10257e-09)
(1.49929e-08 2.01169e-07 -2.84036e-09)
(-2.27894e-10 -1.44881e-10 1.01021e-07)
(1.90296e-07 2.60649e-08 -4.60522e-09)
(1.49744e-08 2.01146e-07 -2.79544e-09)
(-2.7196e-10 -1.45477e-10 9.8889e-08)
(1.86689e-07 2.97822e-08 -5.05408e-09)
(1.49477e-08 2.01127e-07 -2.75972e-09)
(-3.16768e-10 -1.47025e-10 9.67568e-08)
(1.83097e-07 3.35103e-08 -5.44918e-09)
(1.49141e-08 2.01104e-07 -2.73648e-09)
(-3.60468e-10 -1.49145e-10 9.46231e-08)
(1.50318e-08 2.0111e-07 -2.70737e-09)
(-3.93322e-10 -1.47442e-10 9.2476e-08)
(1.79477e-07 3.72311e-08 -5.78911e-09)
(2.12121e-07 3.76678e-09 -7.65267e-10)
(1.84081e-08 1.97512e-07 -3.53643e-09)
(-3.50868e-11 -1.92215e-10 1.09297e-07)
(2.08469e-07 7.5209e-09 -1.5093e-09)
(1.85092e-08 1.97546e-07 -3.56601e-09)
(-7.18191e-11 -1.91065e-10 1.07273e-07)
(2.04826e-07 1.12598e-08 -2.22007e-09)
(1.85932e-08 1.97563e-07 -3.56697e-09)
(-1.08316e-10 -1.88829e-10 1.05222e-07)
(2.01191e-07 1.49891e-08 -2.88766e-09)
(1.86569e-08 1.97561e-07 -3.54514e-09)
(-1.45341e-10 -1.86079e-10 1.03147e-07)
(1.97555e-07 1.87065e-08 -3.50554e-09)
(1.87017e-08 1.97551e-07 -3.5068e-09)
(-1.83591e-10 -1.83431e-10 1.01052e-07)
(1.93916e-07 2.24119e-08 -4.06969e-09)
(1.87205e-08 1.97535e-07 -3.45916e-09)
(-2.24037e-10 -1.81457e-10 9.8937e-08)
(1.90286e-07 2.61202e-08 -4.57841e-09)
(1.87079e-08 1.97508e-07 -3.41145e-09)
(-2.66695e-10 -1.80388e-10 9.68076e-08)
(1.86677e-07 2.98436e-08 -5.0313e-09)
(1.86739e-08 1.97472e-07 -3.37276e-09)
(-3.10224e-10 -1.8038e-10 9.46733e-08)
(1.83083e-07 3.35801e-08 -5.42905e-09)
(1.86355e-08 1.97434e-07 -3.3486e-09)
(-3.52618e-10 -1.81558e-10 9.25398e-08)
(1.8782e-08 1.97444e-07 -3.31653e-09)
(-3.79305e-10 -1.78206e-10 9.04024e-08)
(1.79464e-07 3.73079e-08 -5.77335e-09)
(2.12108e-07 3.76279e-09 -7.45399e-10)
(2.20918e-08 1.93845e-07 -4.06653e-09)
(-4.20863e-11 -2.36422e-10 1.0714e-07)
(2.08453e-07 7.51676e-09 -1.47461e-09)
(2.21955e-08 1.93887e-07 -4.10528e-09)
(-7.58613e-11 -2.3479e-10 1.05124e-07)
(2.04804e-07 1.12562e-08 -2.17686e-09)
(2.2286e-08 1.93917e-07 -4.11525e-09)
(-1.09863e-10 -2.31806e-10 1.03085e-07)
(2.01163e-07 1.4987e-08 -2.84023e-09)
(2.23558e-08 1.93921e-07 -4.1013e-09)
(-1.44841e-10 -2.27984e-10 1.01017e-07)
(1.97533e-07 1.87166e-08 -3.45755e-09)
(2.24046e-08 1.9391e-07 -4.06972e-09)
(-1.81497e-10 -2.23978e-10 9.89315e-08)
(1.93904e-07 2.24419e-08 -4.02508e-09)
(2.24354e-08 1.93896e-07 -4.027e-09)
(-2.20567e-10 -2.20417e-10 9.6832e-08)
(1.90271e-07 2.61592e-08 -4.53866e-09)
(2.24412e-08 1.93874e-07 -3.98008e-09)
(-2.61801e-10 -2.17686e-10 9.47128e-08)
(1.86649e-07 2.98844e-08 -4.99437e-09)
(2.24082e-08 1.93827e-07 -3.93866e-09)
(-3.04185e-10 -2.16073e-10 9.25747e-08)
(1.83047e-07 3.363e-08 -5.39233e-09)
(2.23609e-08 1.93766e-07 -3.91229e-09)
(-3.4538e-10 -2.1543e-10 9.04334e-08)
(2.25219e-08 1.93773e-07 -3.87842e-09)
(-3.65585e-10 -2.09146e-10 8.83035e-08)
(1.79431e-07 3.73716e-08 -5.73891e-09)
(2.12112e-07 3.75587e-09 -7.27825e-10)
(2.57827e-08 1.90202e-07 -4.54638e-09)
(-5.11051e-11 -2.83589e-10 1.04992e-07)
(2.0845e-07 7.50408e-09 -1.44347e-09)
(2.58898e-08 1.9025e-07 -4.59318e-09)
(-8.14565e-11 -2.8128e-10 1.02981e-07)
(2.04795e-07 1.12425e-08 -2.13753e-09)
(2.5986e-08 1.90287e-07 -4.61099e-09)
(-1.12667e-10 -2.77164e-10 1.0095e-07)
(2.01144e-07 1.49719e-08 -2.79673e-09)
(2.6064e-08 1.90298e-07 -4.60375e-09)
(-1.45373e-10 -2.72045e-10 9.88887e-08)
(1.97501e-07 1.86997e-08 -3.4115e-09)
(2.61178e-08 1.90285e-07 -4.57732e-09)
(-1.80228e-10 -2.66649e-10 9.68028e-08)
(1.93869e-07 2.24352e-08 -3.97765e-09)
(2.61504e-08 1.9026e-07 -4.53872e-09)
(-2.17547e-10 -2.61428e-10 9.4704e-08)
(1.9024e-07 2.61713e-08 -4.4925e-09)
(2.61664e-08 1.90234e-07 -4.49451e-09)
(-2.57335e-10 -2.56829e-10 9.2594e-08)
(1.86607e-07 2.99071e-08 -4.94911e-09)
(2.61492e-08 1.90183e-07 -4.45191e-09)
(-2.97661e-10 -2.52426e-10 9.04585e-08)
(1.82985e-07 3.36608e-08 -5.34392e-09)
(2.61002e-08 1.90099e-07 -4.42088e-09)
(-3.36599e-10 -2.4756e-10 8.83044e-08)
(2.62491e-08 1.90091e-07 -4.38436e-09)
(-3.50821e-10 -2.36565e-10 8.61768e-08)
(1.79374e-07 3.74211e-08 -5.68868e-09)
(2.12127e-07 3.74565e-09 -7.13847e-10)
(2.94818e-08 1.86584e-07 -4.9775e-09)
(-6.22462e-11 -3.335e-10 1.02849e-07)
(2.08455e-07 7.48586e-09 -1.41874e-09)
(2.95957e-08 1.86637e-07 -5.03111e-09)
(-8.80769e-11 -3.29873e-10 1.00843e-07)
(2.04788e-07 1.12202e-08 -2.10572e-09)
(2.96977e-08 1.86677e-07 -5.05483e-09)
(-1.16141e-10 -3.23705e-10 9.88155e-08)
(2.01127e-07 1.49487e-08 -2.76133e-09)
(2.97819e-08 1.8669e-07 -5.05265e-09)
(-1.46808e-10 -3.16757e-10 9.67578e-08)
(1.97469e-07 1.86724e-08 -3.37441e-09)
(2.98441e-08 1.86678e-07 -5.02981e-09)
(-1.80054e-10 -3.10064e-10 9.46726e-08)
(1.93817e-07 2.24003e-08 -3.93795e-09)
(2.98825e-08 1.86645e-07 -4.99274e-09)
(-2.1541e-10 -3.0365e-10 9.25666e-08)
(1.90175e-07 2.61431e-08 -4.44943e-09)
(2.99001e-08 1.86599e-07 -4.94832e-09)
(-2.52658e-10 -2.96798e-10 9.04493e-08)
(1.86531e-07 2.98979e-08 -4.90193e-09)
(2.98951e-08 1.8653e-07 -4.90275e-09)
(-2.88371e-10 -2.87461e-10 8.83096e-08)
(1.8289e-07 3.36652e-08 -5.2891e-09)
(2.98495e-08 1.86424e-07 -4.86488e-09)
(-3.23322e-10 -2.75523e-10 8.61453e-08)
(2.99613e-08 1.86388e-07 -4.82466e-09)
(-3.32202e-10 -2.5691e-10 8.40164e-08)
(1.79284e-07 3.7451e-08 -5.62549e-09)
(2.1214e-07 3.73128e-09 -7.04988e-10)
(3.31915e-08 1.82996e-07 -5.35949e-09)
(-7.48633e-11 -3.84698e-10 1.00711e-07)
(2.08457e-07 7.46284e-09 -1.40265e-09)
(3.33143e-08 1.83046e-07 -5.41856e-09)
(-9.44493e-11 -3.78634e-10 9.87053e-08)
(2.04778e-07 1.11907e-08 -2.08471e-09)
(3.34212e-08 1.83086e-07 -5.4465e-09)
(-1.19416e-10 -3.6956e-10 9.66797e-08)
(2.01105e-07 1.49155e-08 -2.73773e-09)
(3.35101e-08 1.83098e-07 -5.44803e-09)
(-1.48843e-10 -3.60514e-10 9.46242e-08)
(1.97435e-07 1.86382e-08 -3.35017e-09)
(3.35804e-08 1.83083e-07 -5.4278e-09)
(-1.81154e-10 -3.52598e-10 9.25409e-08)
(1.93764e-07 2.23607e-08 -3.91294e-09)
(3.36307e-08 1.83046e-07 -5.39079e-09)
(-2.14688e-10 -3.45359e-10 9.04317e-08)
(1.90092e-07 2.60938e-08 -4.42001e-09)
(3.36585e-08 1.82983e-07 -5.34246e-09)
(-2.47768e-10 -3.3675e-10 8.82998e-08)
(1.8642e-07 2.98449e-08 -4.86382e-09)
(3.36608e-08 1.82888e-07 -5.28851e-09)
(-2.76294e-10 -3.23309e-10 8.6142e-08)
(1.8275e-07 3.36177e-08 -5.23738e-09)
(3.36166e-08 1.82749e-07 -5.23771e-09)
(-3.02462e-10 -3.02147e-10 8.39591e-08)
(3.3661e-08 1.82638e-07 -5.18752e-09)
(-2.99996e-10 -2.6552e-10 8.18093e-08)
(1.79142e-07 3.74482e-08 -5.55266e-09)
(2.12147e-07 3.75028e-09 -6.97508e-10)
(-8.44116e-11 -4.37731e-10 9.8567e-08)
(3.69253e-08 1.794e-07 -5.69215e-09)
(2.08457e-07 7.51189e-09 -1.38633e-09)
(-9.71803e-11 -4.23659e-10 9.65501e-08)
(3.70388e-08 1.79434e-07 -5.75152e-09)
(2.0478e-07 1.12744e-08 -2.06081e-09)
(-1.19191e-10 -4.08264e-10 9.45258e-08)
(3.71413e-08 1.79467e-07 -5.78236e-09)
(2.01111e-07 1.50327e-08 -2.70825e-09)
(-1.47156e-10 -3.93392e-10 9.2477e-08)
(3.72309e-08 1.79477e-07 -5.78832e-09)
(1.97445e-07 1.8783e-08 -3.31746e-09)
(-1.77883e-10 -3.79466e-10 9.04032e-08)
(3.7308e-08 1.79464e-07 -5.77252e-09)
(1.93775e-07 2.25221e-08 -3.87913e-09)
(-2.08782e-10 -3.65992e-10 8.83042e-08)
(3.73717e-08 1.7943e-07 -5.73803e-09)
(1.90091e-07 2.62477e-08 -4.38477e-09)
(-2.36757e-10 -3.51375e-10 8.61772e-08)
(3.74208e-08 1.79373e-07 -5.68783e-09)
(1.86384e-07 2.9958e-08 -4.82455e-09)
(-2.57159e-10 -3.32369e-10 8.40151e-08)
(3.745e-08 1.79283e-07 -5.62479e-09)
(1.82635e-07 3.36588e-08 -5.18696e-09)
(-2.65531e-10 -2.99573e-10 8.18068e-08)
(3.74466e-08 1.79139e-07 -5.5522e-09)
(-2.50422e-10 -2.49858e-10 7.96048e-08)
(1.7896e-07 3.74096e-08 -5.47589e-09)
(3.74087e-08 1.78959e-07 -5.4759e-09)
(2.13458e-07 3.71829e-09 -7.53298e-10)
(3.71533e-09 2.13446e-07 -7.54964e-10)
(-2.72578e-11 -2.71205e-11 1.19463e-07)
(2.09667e-07 7.40405e-09 -1.45665e-09)
(3.80163e-09 2.13347e-07 -7.49153e-10)
(-7.86256e-11 -2.83377e-11 1.17278e-07)
(2.05862e-07 1.10671e-08 -2.09872e-09)
(3.82345e-09 2.13179e-07 -7.32313e-10)
(-1.26704e-10 -3.07677e-11 1.15018e-07)
(2.02064e-07 1.473e-08 -2.68465e-09)
(3.82053e-09 2.13014e-07 -7.13327e-10)
(-1.73037e-10 -3.46771e-11 1.12763e-07)
(1.98277e-07 1.83953e-08 -3.22154e-09)
(3.81446e-09 2.12872e-07 -6.95198e-10)
(-2.19151e-10 -4.02515e-11 1.10529e-07)
(1.94501e-07 2.20637e-08 -3.71521e-09)
(3.80508e-09 2.12745e-07 -6.78691e-10)
(-2.658e-10 -4.75625e-11 1.08312e-07)
(1.90741e-07 2.57355e-08 -4.17061e-09)
(3.79006e-09 2.12621e-07 -6.64811e-10)
(-3.13174e-10 -5.66952e-11 1.06111e-07)
(1.86999e-07 2.94099e-08 -4.59166e-09)
(3.76848e-09 2.12488e-07 -6.54932e-10)
(-3.60115e-10 -6.75007e-11 1.03924e-07)
(1.8328e-07 3.30891e-08 -4.98103e-09)
(3.73883e-09 2.12326e-07 -6.50696e-10)
(-4.0396e-10 -7.89635e-11 1.01749e-07)
(3.76206e-09 2.12129e-07 -6.49555e-10)
(-4.43948e-10 -8.61413e-11 9.95755e-08)
(1.79524e-07 3.67958e-08 -5.34138e-09)
(2.13343e-07 3.79849e-09 -7.47453e-10)
(7.39835e-09 2.09659e-07 -1.45696e-09)
(-2.84215e-11 -7.84337e-11 1.17268e-07)
(2.09622e-07 7.53909e-09 -1.45399e-09)
(7.53312e-09 2.09618e-07 -1.45536e-09)
(-7.86033e-11 -7.8377e-11 1.15145e-07)
(2.0586e-07 1.12226e-08 -2.10619e-09)
(7.60275e-09 2.09506e-07 -1.43387e-09)
(-1.26052e-10 -7.87113e-11 1.12947e-07)
(2.02085e-07 1.48877e-08 -2.70309e-09)
(7.61873e-09 2.0936e-07 -1.40361e-09)
(-1.71874e-10 -7.98905e-11 1.1072e-07)
(1.98315e-07 1.85561e-08 -3.24982e-09)
(7.61055e-09 2.09214e-07 -1.37233e-09)
(-2.17468e-10 -8.21377e-11 1.08498e-07)
(1.94555e-07 2.22283e-08 -3.75226e-09)
(7.59485e-09 2.09082e-07 -1.34356e-09)
(-2.63534e-10 -8.56573e-11 1.06291e-07)
(1.90807e-07 2.59051e-08 -4.21547e-09)
(7.56683e-09 2.08953e-07 -1.31942e-09)
(-3.10166e-10 -9.04462e-11 1.04098e-07)
(1.87074e-07 2.95909e-08 -4.64319e-09)
(7.52727e-09 2.08809e-07 -1.30255e-09)
(-3.55771e-10 -9.57655e-11 1.01917e-07)
(1.83354e-07 3.3286e-08 -5.03772e-09)
(7.47751e-09 2.08637e-07 -1.2955e-09)
(-3.97265e-10 -1.00066e-10 9.97432e-08)
(7.54295e-09 2.08438e-07 -1.29178e-09)
(-4.2963e-10 -9.97649e-11 9.75505e-08)
(1.79579e-07 3.69797e-08 -5.39722e-09)
(2.13167e-07 3.81508e-09 -7.3166e-10)
(1.10646e-08 2.05862e-07 -2.09707e-09)
(-3.07532e-11 -1.26684e-10 1.15009e-07)
(2.09498e-07 7.59711e-09 -1.43232e-09)
(1.12133e-08 2.05853e-07 -2.10547e-09)
(-7.8836e-11 -1.25889e-10 1.12937e-07)
(2.05797e-07 1.13272e-08 -2.08938e-09)
(1.13204e-08 2.05793e-07 -2.09011e-09)
(-1.24979e-10 -1.24743e-10 1.10808e-07)
(2.02061e-07 1.50141e-08 -2.69623e-09)
(1.13768e-08 2.05689e-07 -2.05921e-09)
(-1.69723e-10 -1.23808e-10 1.08631e-07)
(1.98314e-07 1.86884e-08 -3.25302e-09)
(1.13828e-08 2.05555e-07 -2.02193e-09)
(-2.14239e-10 -1.23382e-10 1.06433e-07)
(1.94574e-07 2.23674e-08 -3.76445e-09)
(1.13625e-08 2.05417e-07 -1.98603e-09)
(-2.59273e-10 -1.23711e-10 1.04239e-07)
(1.90842e-07 2.60525e-08 -4.23541e-09)
(1.13263e-08 2.0528e-07 -1.9561e-09)
(-3.0461e-10 -1.24855e-10 1.02057e-07)
(1.87119e-07 2.97469e-08 -4.66898e-09)
(1.12748e-08 2.05125e-07 -1.93551e-09)
(-3.4809e-10 -1.26122e-10 9.9881e-08)
(1.83405e-07 3.34498e-08 -5.0674e-09)
(1.12086e-08 2.04941e-07 -1.92766e-09)
(-3.86762e-10 -1.26402e-10 9.7709e-08)
(1.13248e-08 2.04754e-07 -1.92227e-09)
(-4.13273e-10 -1.22204e-10 9.55163e-08)
(1.79629e-07 3.7137e-08 -5.4285e-09)
(2.13009e-07 3.81837e-09 -7.13762e-10)
(1.473e-08 2.02067e-07 -2.68225e-09)
(-3.46209e-11 -1.73179e-10 1.12762e-07)
(2.09349e-07 7.6099e-09 -1.40337e-09)
(1.48838e-08 2.02084e-07 -2.70096e-09)
(-7.98781e-11 -1.71954e-10 1.10712e-07)
(2.05682e-07 1.13709e-08 -2.05819e-09)
(1.5004e-08 2.02054e-07 -2.69514e-09)
(-1.2393e-10 -1.69642e-10 1.08623e-07)
(2.0199e-07 1.50955e-08 -2.67053e-09)
(1.50891e-08 2.01985e-07 -2.67086e-09)
(-1.67082e-10 -1.66911e-10 1.06495e-07)
(1.98269e-07 1.87881e-08 -3.23621e-09)
(1.51277e-08 2.01881e-07 -2.63518e-09)
(-2.10058e-10 -1.64231e-10 1.04332e-07)
(1.9454e-07 2.24733e-08 -3.75614e-09)
(1.51168e-08 2.01749e-07 -2.59678e-09)
(-2.53578e-10 -1.61855e-10 1.02152e-07)
(1.9082e-07 2.61672e-08 -4.23417e-09)
(1.50718e-08 2.016e-07 -2.564e-09)
(-2.97335e-10 -1.59985e-10 9.99749e-08)
(1.87107e-07 2.98702e-08 -4.67304e-09)
(1.50097e-08 2.01433e-07 -2.54245e-09)
(-3.38852e-10 -1.58408e-10 9.78026e-08)
(1.83399e-07 3.35796e-08 -5.07509e-09)
(1.49319e-08 2.01239e-07 -2.53589e-09)
(-3.75371e-10 -1.56525e-10 9.56334e-08)
(1.50984e-08 2.01068e-07 -2.53043e-09)
(-3.96355e-10 -1.49783e-10 9.34486e-08)
(1.79629e-07 3.72678e-08 -5.43947e-09)
(2.12872e-07 3.81474e-09 -6.95854e-10)
(1.83949e-08 1.98279e-07 -3.21895e-09)
(-4.02184e-11 -2.19356e-10 1.1053e-07)
(2.09211e-07 7.60797e-09 -1.37327e-09)
(1.85549e-08 1.98318e-07 -3.24736e-09)
(-8.20683e-11 -2.17665e-10 1.08497e-07)
(2.05546e-07 1.13746e-08 -2.02214e-09)
(1.86841e-08 1.98313e-07 -3.25089e-09)
(-1.23315e-10 -2.14322e-10 1.06427e-07)
(2.01876e-07 1.51225e-08 -2.63451e-09)
(1.87782e-08 1.98261e-07 -3.23502e-09)
(-1.64295e-10 -2.0996e-10 1.04324e-07)
(1.98186e-07 1.88468e-08 -3.20555e-09)
(1.88392e-08 1.98179e-07 -3.20577e-09)
(-2.05391e-10 -2.05221e-10 1.02194e-07)
(1.94471e-07 2.25456e-08 -3.73303e-09)
(1.88549e-08 1.98069e-07 -3.17007e-09)
(-2.47202e-10 -2.00653e-10 1.00038e-07)
(1.90749e-07 2.62416e-08 -4.21745e-09)
(1.8816e-08 1.9792e-07 -3.13672e-09)
(-2.8915e-10 -1.96382e-10 9.78648e-08)
(1.8704e-07 2.99528e-08 -4.66076e-09)
(1.87377e-08 1.97734e-07 -3.11487e-09)
(-3.29068e-10 -1.92388e-10 9.5689e-08)
(1.83337e-07 3.36744e-08 -5.06579e-09)
(1.86468e-08 1.97524e-07 -3.11079e-09)
(-3.64102e-10 -1.88567e-10 9.35198e-08)