/*--------------------------------*- C++ -*----------------------------------*\
| =========                 |                                                 |
| \\      /  F ield         | foam-extend: Open Source CFD                    |
|  \\    /   O peration     | Version:     3.1                                |
|   \\  /    A nd           | Web:         http://www.extend-project.de       |
|    \\/     M anipulation  |                                                 |
\*---------------------------------------------------------------------------*/
FoamFile
{
    version     2.0;
    format      ascii;
    class       volVectorField;
    location    "0.0015";
    object      U;
}
// * * * * * * * * * * * * * * * * * * * * * * * * * * * * * * * * * * * * * //

dimensions      [0 1 -1 0 0 0 0];

internalField   nonuniform List<vector> 
16000
(
(0.000202823 0.000203047 0.258848)
(0.000605427 0.000202369 0.259202)
(0.000999004 0.000202295 0.259916)
(0.00138281 0.000204225 0.260991)
(0.00175879 0.000208372 0.262432)
(0.00212904 0.000214704 0.264247)
(0.00249615 0.000223203 0.266448)
(0.00286425 0.000233714 0.269052)
(0.0032421 0.000245306 0.272088)
(0.00364153 0.000236994 0.275598)
(0.000202153 0.000605763 0.259202)
(0.000603725 0.000604136 0.259532)
(0.000996701 0.000603731 0.260209)
(0.00138076 0.000608212 0.261236)
(0.00175727 0.000618469 0.262616)
(0.00212802 0.000634849 0.264357)
(0.00249532 0.000657478 0.26647)
(0.00286239 0.000686027 0.268973)
(0.00323884 0.000718239 0.271889)
(0.00362348 0.000693651 0.275259)
(0.000202197 0.000998966 0.259916)
(0.000603435 0.000996889 0.260209)
(0.000995468 0.000995811 0.260838)
(0.00137937 0.00100062 0.261805)
(0.00175603 0.00101278 0.263113)
(0.00212654 0.00103344 0.264771)
(0.0024925 0.00106325 0.266788)
(0.00285583 0.00110183 0.269178)
(0.0032273 0.00114584 0.271965)
(0.00358977 0.00109298 0.275188)
(0.000204253 0.00138241 0.260991)
(0.000608179 0.00138057 0.261236)
(0.0010004 0.00137949 0.261805)
(0.00138473 0.00138502 0.262702)
(0.00176237 0.0013986 0.263932)
(0.00213386 0.00142215 0.265499)
(0.00249968 0.00145721 0.267414)
(0.00286011 0.00150376 0.269689)
(0.00322731 0.00155734 0.272346)
(0.00356482 0.00147223 0.275425)
(0.000208431 0.00175828 0.262432)
(0.0006186 0.00175685 0.262615)
(0.00101282 0.00175584 0.263113)
(0.00139842 0.00176249 0.263932)
(0.00177773 0.00177804 0.265073)
(0.00215133 0.00180473 0.266543)
(0.00251865 0.00184511 0.26835)
(0.00287788 0.00190012 0.270507)
(0.00324243 0.0019646 0.27303)
(0.00355329 0.00184814 0.275967)
(0.000214754 0.00212853 0.264247)
(0.000635005 0.00212755 0.264357)
(0.00103365 0.00212618 0.264771)
(0.00142224 0.00213374 0.265499)
(0.00180455 0.00215155 0.266543)
(0.00218182 0.00218225 0.267908)
(0.00255303 0.00222935 0.269601)
(0.00291419 0.00229542 0.271634)
(0.00327903 0.00237549 0.274023)
(0.00356189 0.00223376 0.27682)
(0.000223246 0.00249567 0.266448)
(0.000657616 0.00249487 0.26647)
(0.00106348 0.00249211 0.266788)
(0.00145751 0.00249939 0.267414)
(0.00184528 0.0025186 0.26835)
(0.00222907 0.00255335 0.269601)
(0.00260829 0.00260883 0.271173)
(0.00297709 0.00269022 0.273079)
(0.00334831 0.00279467 0.275332)
(0.00360301 0.00264187 0.277994)
(0.00023375 0.00286385 0.269052)
(0.000686145 0.00286201 0.268973)
(0.00110204 0.00285547 0.269178)
(0.00150406 0.00285976 0.269689)
(0.00190048 0.00287756 0.270507)
(0.00229545 0.00291402 0.271634)
(0.00268977 0.00297723 0.273079)
(0.00307709 0.00307748 0.274852)
(0.00346857 0.00321924 0.27697)
(0.00370159 0.00308426 0.279504)
(0.000245336 0.00324181 0.272088)
(0.000718334 0.00323856 0.271889)
(0.001146 0.00322703 0.271965)
(0.00155756 0.003227 0.272346)
(0.00196487 0.00324204 0.27303)
(0.00237562 0.00327856 0.274023)
(0.00279447 0.00334795 0.275332)
(0.0032189 0.00346855 0.27697)
(0.00366155 0.00366173 0.278953)
(0.00390638 0.00358582 0.281373)
(0.00023702 0.00364135 0.275598)
(0.00069373 0.0036233 0.275259)
(0.00109311 0.00358959 0.275188)
(0.00147239 0.00356461 0.275424)
(0.00184832 0.00355303 0.275967)
(0.00223391 0.00356154 0.27682)
(0.00264191 0.00360263 0.277994)
(0.00308419 0.00370137 0.279504)
(0.00358564 0.00390634 0.281372)
(0.00407967 0.00407977 0.283688)
(0.000343039 0.00034306 0.257406)
(0.0010314 0.000338401 0.257767)
(0.00171707 0.000331955 0.258492)
(0.00239747 0.000325422 0.259583)
(0.00307443 0.00031902 0.261041)
(0.00374992 0.000312931 0.262873)
(0.00442895 0.000307469 0.265082)
(0.00512183 0.000303156 0.267677)
(0.00584704 0.000301091 0.270666)
(0.00663428 0.000303453 0.27406)
(0.00033838 0.00103142 0.257767)
(0.00101793 0.00101797 0.258105)
(0.00169527 0.000999301 0.258797)
(0.00236781 0.000980466 0.259843)
(0.00303728 0.000962142 0.261246)
(0.00370555 0.000944867 0.263011)
(0.00437733 0.00092948 0.265143)
(0.00506197 0.000917312 0.26765)
(0.00577675 0.000911262 0.270541)
(0.0065481 0.000916954 0.273822)
(0.000331954 0.00171704 0.258492)
(0.000999285 0.00169527 0.258797)
(0.00166492 0.00166495 0.259441)
(0.00232643 0.00163434 0.260429)
(0.00298539 0.00160458 0.261762)
(0.0036436 0.00157657 0.263446)
(0.00430555 0.00155162 0.265484)
(0.00497984 0.00153174 0.267886)
(0.00568284 0.00152157 0.270659)
(0.00643809 0.00152971 0.273811)
(0.000325434 0.0023974 0.259583)
(0.000980483 0.00236776 0.259843)
(0.00163434 0.00232642 0.260429)
(0.00228483 0.00228484 0.261346)
(0.00293353 0.00224454 0.262598)
(0.00358221 0.0022068 0.264189)
(0.00423523 0.00217341 0.266125)
(0.00490066 0.00214702 0.268411)
(0.00559416 0.00213374 0.271058)
(0.00633653 0.00214432 0.274073)
(0.00031903 0.00307435 0.261041)
(0.00096217 0.00303721 0.261246)
(0.0016046 0.00298534 0.261762)
(0.00224455 0.00293351 0.262598)
(0.00288361 0.00288361 0.263759)
(0.0035237 0.00283721 0.265247)
(0.0041692 0.00279662 0.267068)
(0.00482774 0.00276514 0.26923)
(0.00551439 0.00275032 0.271742)
(0.00624768 0.00276476 0.274614)
(0.000312938 0.00374983 0.262872)
(0.000944891 0.00370547 0.263011)
(0.0015766 0.00364352 0.263445)
(0.00220683 0.00358215 0.264189)
(0.00283722 0.00352368 0.265247)
(0.00346995 0.00346997 0.266621)
(0.0041096 0.00342369 0.268318)
(0.0047635 0.00338882 0.270345)
(0.00544623 0.00337446 0.272712)
(0.00617452 0.00339535 0.275433)
(0.000307476 0.00442886 0.265082)
(0.000929501 0.00437724 0.265143)
(0.00155165 0.00430547 0.265484)
(0.00217346 0.00423516 0.266124)
(0.00279667 0.00416915 0.267068)
(0.0034237 0.0041096 0.268318)
(0.00405946 0.0040595 0.26988)
(0.00471123 0.0040232 0.271761)
(0.00539334 0.00401127 0.27397)
(0.00612126 0.00404158 0.276531)
(0.000303163 0.00512173 0.267676)
(0.000917332 0.00506188 0.26765)
(0.00153177 0.00497976 0.267886)
(0.00214707 0.00490057 0.268411)
(0.00276521 0.00482764 0.26923)
(0.00338887 0.00476342 0.270345)
(0.00402318 0.00471119 0.271761)
(0.00467533 0.00467534 0.273482)
(0.0053601 0.0046669 0.27552)
(0.00609363 0.00470823 0.277905)
(0.000301097 0.00584695 0.270666)
(0.000911281 0.00577667 0.27054)
(0.0015216 0.00568275 0.270659)
(0.00213378 0.00559407 0.271058)
(0.00275037 0.00551428 0.271742)
(0.00337451 0.0054461 0.272712)
(0.00401127 0.00539322 0.27397)
(0.00466689 0.00536004 0.27552)
(0.00535713 0.00535711 0.277367)
(0.00610483 0.00540475 0.279554)
(0.000303459 0.0066342 0.27406)
(0.000916972 0.00654802 0.273822)
(0.00152974 0.00643801 0.273811)
(0.00214435 0.00633645 0.274073)
(0.0027648 0.00624759 0.274613)
(0.00339539 0.00617442 0.275433)
(0.00404162 0.00612115 0.276531)
(0.00470826 0.00609354 0.277905)
(0.00540476 0.00610476 0.279554)
(0.00617584 0.0061758 0.28151)
(0.00065878 0.000658817 0.25368)
(0.00198146 0.000650101 0.254049)
(0.00330229 0.000637987 0.254789)
(0.00461778 0.0006256 0.255901)
(0.00593067 0.000613143 0.257385)
(0.00724149 0.000600677 0.259242)
(0.00855208 0.000588355 0.26147)
(0.0098664 0.000576494 0.264066)
(0.0111898 0.000566389 0.267021)
(0.0125258 0.00056286 0.270315)
(0.000650063 0.0019815 0.254049)
(0.00195602 0.00195609 0.254394)
(0.00326058 0.00192062 0.255099)
(0.00456028 0.00188441 0.256163)
(0.00585771 0.00184818 0.257588)
(0.00715347 0.00181218 0.259374)
(0.00844944 0.00177683 0.261521)
(0.00974933 0.00174306 0.264025)
(0.0110577 0.00171451 0.266878)
(0.0123776 0.00170594 0.270063)
(0.000637983 0.00330224 0.254789)
(0.00192058 0.00326058 0.255099)
(0.0032021 0.00320215 0.255754)
(0.00447941 0.00314227 0.256758)
(0.00575486 0.0030822 0.25811)
(0.00702901 0.00302245 0.259811)
(0.0083038 0.00296377 0.26186)
(0.00958282 0.00290756 0.264255)
(0.0108698 0.00286008 0.266987)
(0.0121673 0.00284744 0.270042)
(0.000625619 0.00461767 0.255901)
(0.00188444 0.0045602 0.256163)
(0.00314226 0.0044794 0.256758)
(0.00439654 0.00439657 0.257689)
(0.00564951 0.00431333 0.258956)
(0.0069017 0.00423045 0.260561)
(0.00815511 0.00414897 0.262501)
(0.00941337 0.0040708 0.264775)
(0.0106792 0.0040045 0.267376)
(0.0119535 0.00398663 0.270289)
(0.000613159 0.00593055 0.257385)
(0.00184823 0.00585759 0.257588)
(0.00308225 0.00575477 0.25811)
(0.00431334 0.00564948 0.258956)
(0.00554365 0.00554366 0.260128)
(0.00677386 0.0054381 0.261624)
(0.00800614 0.00533408 0.263445)
(0.00924424 0.00523402 0.265587)
(0.0104896 0.00514883 0.268044)
(0.0117414 0.00512531 0.270806)
(0.000600688 0.00724136 0.259242)
(0.00181221 0.00715335 0.259374)
(0.00302252 0.00702889 0.259811)
(0.00423051 0.0069016 0.260561)
(0.00543811 0.00677384 0.261624)
(0.0066462 0.00664624 0.263001)
(0.00785735 0.00651998 0.26469)
(0.00907569 0.00639779 0.266688)
(0.0103015 0.00629304 0.268989)
(0.0115319 0.00626345 0.271589)
(0.000588366 0.00855195 0.26147)
(0.00177687 0.00844931 0.261521)
(0.00296382 0.00830367 0.26186)
(0.00414906 0.00815498 0.262501)
(0.00533417 0.00800605 0.263445)
(0.00651998 0.00785735 0.26469)
(0.00770949 0.00770955 0.266234)
(0.00890767 0.00756493 0.268075)
(0.0101143 0.00743858 0.270207)
(0.0113255 0.0074007 0.272634)
(0.000576505 0.00986626 0.264066)
(0.00174309 0.00974919 0.264025)
(0.00290761 0.00958269 0.264255)
(0.00407088 0.00941323 0.264775)
(0.00523414 0.00924409 0.265587)
(0.00639789 0.00907556 0.266688)
(0.0075649 0.00890762 0.268075)
(0.00874072 0.00874074 0.269746)
(0.0099262 0.00858857 0.271694)
(0.0111214 0.00853357 0.273934)
(0.000566399 0.0111896 0.26702)
(0.00171454 0.0110576 0.266878)
(0.00286013 0.0108697 0.266987)
(0.00400456 0.010679 0.267376)
(0.00514892 0.0104895 0.268044)
(0.00629313 0.0103013 0.268989)
(0.00743861 0.0101141 0.270207)
(0.00858859 0.00992611 0.271694)
(0.00974436 0.00974432 0.273443)
(0.0109263 0.00965201 0.275478)
(0.000562869 0.0125256 0.270314)
(0.00170597 0.0123774 0.270063)
(0.00284748 0.0121672 0.270041)
(0.00398669 0.0119534 0.270289)
(0.00512538 0.0117412 0.270806)
(0.00626352 0.0115317 0.271589)
(0.00740077 0.0113253 0.272634)
(0.00853365 0.0111213 0.273934)
(0.00965206 0.0109262 0.275478)
(0.0108005 0.0108004 0.277289)
(0.000999917 0.000999994 0.247578)
(0.0030069 0.000987068 0.247952)
(0.00501204 0.000969203 0.248701)
(0.00701133 0.000951129 0.249828)
(0.00900793 0.000932985 0.251332)
(0.0109998 0.000914637 0.253216)
(0.0129832 0.000895985 0.255478)
(0.0149524 0.000877002 0.258116)
(0.0168962 0.000858873 0.261121)
(0.0187896 0.000846435 0.264474)
(0.00098699 0.00300698 0.247951)
(0.00296912 0.00296927 0.248301)
(0.00494993 0.00291683 0.249014)
(0.00692539 0.00286375 0.250092)
(0.00889837 0.00281065 0.251537)
(0.0108671 0.0027573 0.253348)
(0.0128284 0.0027035 0.255526)
(0.014777 0.00264932 0.258069)
(0.0167019 0.00259846 0.260968)
(0.0185787 0.00256724 0.264206)
(0.00096919 0.00501195 0.248701)
(0.00291675 0.00494996 0.249014)
(0.00486312 0.00486323 0.249678)
(0.00680471 0.00477476 0.250695)
(0.00874392 0.00468576 0.252066)
(0.0106789 0.00459614 0.253791)
(0.012607 0.00450567 0.255871)
(0.0145235 0.0044146 0.258302)
(0.016417 0.00432974 0.261078)
(0.0182638 0.00428207 0.264183)
(0.000951163 0.00701114 0.249828)
(0.00286379 0.00692525 0.250092)
(0.00477472 0.0068047 0.250695)
(0.00668129 0.00668135 0.251639)
(0.00858557 0.0065567 0.252924)
(0.0104857 0.00643075 0.254553)
(0.0123791 0.00630344 0.256523)
(0.0142617 0.00617523 0.258833)
(0.0161215 0.00605592 0.261475)
(0.0179327 0.00598997 0.264436)
(0.000933015 0.00900771 0.251332)
(0.00281074 0.00889815 0.251537)
(0.00468584 0.00874376 0.252066)
(0.0065567 0.00858554 0.252924)
(0.00842511 0.00842516 0.254114)
(0.0102894 0.00826241 0.255634)
(0.0121472 0.00809726 0.257484)
(0.0139951 0.00793065 0.259661)
(0.0158201 0.00777551 0.262158)
(0.0175925 0.00768956 0.264965)
(0.000914659 0.0109995 0.253216)
(0.00275737 0.0108668 0.253348)
(0.00459626 0.0106787 0.253791)
(0.00643087 0.0104855 0.254553)
(0.00826243 0.0102893 0.255634)
(0.0100894 0.0100895 0.257034)
(0.0119102 0.00988544 0.258752)
(0.0137222 0.00967836 0.260785)
(0.0155115 0.0094846 0.263125)
(0.0172431 0.00937612 0.265769)
(0.000896007 0.0129829 0.255478)
(0.00270356 0.0128281 0.255526)
(0.00450578 0.0126068 0.255871)
(0.00630361 0.0123789 0.256523)
(0.00809744 0.0121471 0.257484)
(0.00988545 0.0119103 0.258752)
(0.0116667 0.0116669 0.260326)
(0.0134402 0.011417 0.262202)
(0.0151921 0.0111795 0.264373)
(0.0168827 0.0110426 0.266842)
(0.000877023 0.0149522 0.258116)
(0.00264938 0.0147768 0.258069)
(0.0044147 0.0145232 0.258302)
(0.00617539 0.0142615 0.258833)
(0.00793089 0.0139949 0.259661)
(0.00967854 0.013722 0.260784)
(0.011417 0.0134401 0.262201)
(0.0131462 0.0131462 0.263907)
(0.0148553 0.0128567 0.265896)
(0.0165061 0.0126752 0.268179)
(0.000858892 0.016896 0.261121)
(0.00259852 0.0167017 0.260968)
(0.00432983 0.0164167 0.261078)
(0.00605604 0.0161213 0.261475)
(0.00777568 0.0158199 0.262157)
(0.00948478 0.0155111 0.263125)
(0.0111796 0.0151918 0.264372)
(0.0128568 0.0148552 0.265895)
(0.0145072 0.0145071 0.267687)
(0.0161171 0.014248 0.269769)
(0.000846453 0.0187894 0.264474)
(0.00256729 0.0185785 0.264206)
(0.00428215 0.0182636 0.264183)
(0.00599008 0.0179325 0.264436)
(0.00768969 0.0175922 0.264965)
(0.00937625 0.0172428 0.265769)
(0.0110427 0.0168824 0.266842)
(0.0126754 0.0165059 0.268179)
(0.014248 0.0161169 0.269769)
(0.0157829 0.0157828 0.271633)
(0.00134354 0.00134366 0.239004)
(0.00404003 0.00132668 0.239376)
(0.00673667 0.00130345 0.240123)
(0.00943055 0.00128033 0.24125)
(0.0121267 0.00125741 0.24276)
(0.0148222 0.00123435 0.24466)
(0.0175104 0.00121086 0.246958)
(0.0201794 0.00118661 0.24966)
(0.0228063 0.00116281 0.252771)
(0.025347 0.00114545 0.256292)
(0.00132656 0.00404016 0.239376)
(0.00399039 0.00399061 0.239724)
(0.00665488 0.00392239 0.240436)
(0.00931693 0.00385438 0.241514)
(0.011981 0.00378713 0.242964)
(0.0146447 0.00371993 0.244792)
(0.0173022 0.00365203 0.247004)
(0.0199423 0.00358284 0.249607)
(0.0225434 0.00351619 0.252606)
(0.0250625 0.00347244 0.255999)
(0.00130343 0.00673654 0.240123)
(0.00392227 0.00665492 0.240436)
(0.00654162 0.00654178 0.2411)
(0.0091589 0.00642791 0.242119)
(0.0117777 0.00631443 0.243497)
(0.0143955 0.00620068 0.245241)
(0.017007 0.00608559 0.247356)
(0.0196023 0.00596843 0.249848)
(0.0221596 0.00585666 0.252721)
(0.0246376 0.00578928 0.255975)
(0.00128039 0.00943024 0.24125)
(0.00385445 0.00931671 0.241514)
(0.00642786 0.00915887 0.242119)
(0.00899917 0.00899927 0.243068)
(0.0115714 0.0088392 0.244365)
(0.0141418 0.00867806 0.246015)
(0.0167054 0.00851476 0.248024)
(0.0192531 0.00834861 0.250397)
(0.0217627 0.00819058 0.253137)
(0.0241906 0.00809695 0.256244)
(0.00125746 0.0121263 0.24276)
(0.00378726 0.0119807 0.242964)
(0.00631456 0.0117774 0.243497)
(0.00883922 0.0115714 0.244365)
(0.0113637 0.0113638 0.24557)
(0.0138854 0.0111536 0.247117)
(0.0163997 0.0109397 0.249011)
(0.018898 0.0107219 0.251255)
(0.0213578 0.0105149 0.253853)
(0.0237301 0.0103921 0.256807)
(0.00123439 0.0148218 0.24466)
(0.00372006 0.0146443 0.244792)
(0.00620088 0.0143951 0.245241)
(0.00867825 0.0141416 0.246015)
(0.0111536 0.0138854 0.247117)
(0.0136246 0.0136247 0.24855)
(0.0160872 0.0133576 0.250318)
(0.0185343 0.0130842 0.252425)
(0.0209422 0.0128235 0.254871)
(0.0232555 0.012667 0.257664)
(0.00121089 0.01751 0.246958)
(0.00365214 0.0173018 0.247004)
(0.00608578 0.0170067 0.247356)
(0.00851504 0.0167051 0.248024)
(0.01094 0.0163994 0.249011)
(0.0133577 0.0160872 0.250318)
(0.015765 0.0157652 0.251949)
(0.018157 0.0154318 0.253907)
(0.0205103 0.0151095 0.256192)
(0.0227633 0.0149104 0.258815)
(0.00118665 0.020179 0.24966)
(0.00358294 0.019942 0.249607)
(0.00596861 0.0196019 0.249848)
(0.00834887 0.0192527 0.250397)
(0.0107223 0.0188976 0.251255)
(0.0130845 0.018534 0.252424)
(0.0154318 0.0181569 0.253907)
(0.0177607 0.0177608 0.255703)
(0.0200521 0.017365 0.257815)
(0.0222452 0.0171012 0.260257)
(0.00116284 0.0228059 0.252771)
(0.00351629 0.022543 0.252605)
(0.00585681 0.0221592 0.252721)
(0.00819079 0.0217624 0.253136)
(0.0105152 0.0213573 0.253853)
(0.0128238 0.0209417 0.254871)
(0.0151096 0.0205099 0.256192)
(0.0173651 0.0200519 0.257815)
(0.0195736 0.0195735 0.25974)
(0.0217043 0.019202 0.261988)
(0.00114548 0.0253467 0.256292)
(0.00347252 0.0250621 0.255999)
(0.00578941 0.0246372 0.255975)
(0.00809712 0.0241902 0.256244)
(0.0103923 0.0237297 0.256807)
(0.0126672 0.0232551 0.257664)
(0.0149106 0.0227629 0.258814)
(0.0171014 0.0222449 0.260257)
(0.0192021 0.0217042 0.261988)
(0.021224 0.0212239 0.264031)
(0.00168042 0.00168058 0.228003)
(0.00505384 0.00166004 0.228362)
(0.00843367 0.00163245 0.229086)
(0.0118215 0.0016058 0.23018)
(0.0152275 0.0015801 0.231657)
(0.0186529 0.00155495 0.233531)
(0.0220938 0.00152992 0.235819)
(0.0255394 0.00150459 0.238546)
(0.0289655 0.00148023 0.241736)
(0.0323221 0.00146625 0.245417)
(0.00165989 0.005054 0.228362)
(0.00499375 0.00499404 0.228699)
(0.00833431 0.00491299 0.229389)
(0.0116826 0.00483448 0.230438)
(0.015048 0.00475902 0.231857)
(0.0184319 0.00468565 0.233659)
(0.0218312 0.00461326 0.235863)
(0.0252361 0.00454091 0.238487)
(0.0286232 0.00447275 0.241558)
(0.0319445 0.00443792 0.245098)
(0.00163243 0.00843348 0.229086)
(0.00491284 0.00833435 0.229388)
(0.00819929 0.00819949 0.230034)
(0.0114933 0.00806733 0.231029)
(0.0148028 0.00793903 0.232381)
(0.0181287 0.00781362 0.234105)
(0.0214685 0.00768951 0.236216)
(0.0248133 0.0075654 0.238733)
(0.0281397 0.0074494 0.241678)
(0.0314016 0.00739532 0.245073)
(0.00160587 0.011821 0.23018)
(0.00483458 0.0116823 0.230438)
(0.00806729 0.0114932 0.231028)
(0.0113068 0.0113069 0.231959)
(0.0145601 0.0111245 0.233238)
(0.0178275 0.0109451 0.234876)
(0.0211065 0.0107671 0.236889)
(0.0243889 0.0105891 0.239293)
(0.0276506 0.010423 0.242109)
(0.0308436 0.0103457 0.245358)
(0.00158017 0.015227 0.231657)
(0.00475921 0.0150475 0.231857)
(0.00793924 0.0148024 0.232381)
(0.0111246 0.01456 0.233237)
(0.0143213 0.0143213 0.234433)
(0.0175296 0.0140849 0.235978)
(0.020747 0.0138489 0.237886)
(0.0239661 0.0136125 0.240173)
(0.0271611 0.013392 0.242855)
(0.0302801 0.0132868 0.245954)
(0.00155501 0.0186524 0.23353)
(0.00468583 0.0184314 0.233659)
(0.00781391 0.0181282 0.234105)
(0.0109454 0.0178271 0.234876)
(0.014085 0.0175295 0.235978)
(0.0172327 0.0172328 0.237421)
(0.0203869 0.0169345 0.239216)
(0.0235411 0.0166337 0.241378)
(0.0266679 0.0163517 0.243921)
(0.0297103 0.0162122 0.246866)
(0.00152998 0.0220933 0.235819)
(0.00461342 0.0218306 0.235862)
(0.00768978 0.021468 0.236216)
(0.0107676 0.0211059 0.236889)
(0.0138494 0.0207466 0.237886)
(0.0169346 0.0203869 0.239216)
(0.0200221 0.0200223 0.240889)
(0.0231079 0.0196504 0.242917)
(0.0261643 0.0192963 0.245314)
(0.0291299 0.0191106 0.248098)
(0.00150464 0.0255389 0.238545)
(0.00454106 0.0252355 0.238487)
(0.00756566 0.0248127 0.238733)
(0.0105895 0.0243883 0.239293)
(0.0136131 0.0239655 0.240172)
(0.0166341 0.0235407 0.241377)
(0.0196504 0.0231077 0.242917)
(0.0226596 0.0226597 0.2448)
(0.025638 0.0222179 0.247041)
(0.0285289 0.0219589 0.249658)
(0.00148028 0.028965 0.241735)
(0.00447289 0.0286226 0.241557)
(0.00744962 0.0281392 0.241678)
(0.0104233 0.02765 0.242109)
(0.0133924 0.0271604 0.242855)
(0.0163521 0.0266672 0.243921)
(0.0192965 0.0261637 0.245313)
(0.022218 0.0256377 0.247041)
(0.0250956 0.0250954 0.249112)
(0.0279104 0.0247125 0.25155)
(0.00146629 0.0323216 0.245416)
(0.00443805 0.031944 0.245098)
(0.00739551 0.0314011 0.245073)
(0.0103459 0.030843 0.245358)
(0.0132871 0.0302795 0.245954)
(0.0162125 0.0297097 0.246865)
(0.0191109 0.0291293 0.248098)
(0.0219592 0.0285284 0.249657)
(0.0247127 0.0279101 0.251549)
(0.0273924 0.0273922 0.2538)
(0.00199631 0.00199649 0.214686)
(0.00600586 0.00197316 0.215014)
(0.0100333 0.00194264 0.215676)
(0.0140887 0.00191441 0.216683)
(0.0181918 0.00188854 0.218051)
(0.0223537 0.00186461 0.219803)
(0.0265807 0.00184223 0.22197)
(0.0308727 0.00182105 0.224589)
(0.0352161 0.00180262 0.22771)
(0.0395709 0.00180223 0.231388)
(0.00197298 0.00600604 0.215013)
(0.00593749 0.00593781 0.215321)
(0.00991962 0.00584807 0.215954)
(0.0139285 0.00576488 0.21692)
(0.0179825 0.00568883 0.218236)
(0.0220922 0.00561895 0.219923)
(0.0262644 0.00555416 0.222008)
(0.0304994 0.00549357 0.224529)
(0.0347838 0.0054418 0.227528)
(0.0390797 0.00544244 0.231057)
(0.00194261 0.0100331 0.215676)
(0.00584791 0.00991964 0.215954)
(0.00976938 0.00976959 0.216547)
(0.0137164 0.00962853 0.217467)
(0.0177053 0.00949779 0.218725)
(0.0217457 0.00937645 0.220343)
(0.0258441 0.00926291 0.222346)
(0.0300014 0.00915589 0.224767)
(0.0342029 0.00906403 0.227646)
(0.0384131 0.00906407 0.231032)
(0.0019145 0.0140881 0.216683)
(0.00576501 0.0139281 0.21692)
(0.0096285 0.0137163 0.217466)
(0.0135157 0.0135158 0.218331)
(0.0174415 0.0133279 0.219527)
(0.0214142 0.0131518 0.221071)
(0.0254399 0.0129858 0.222989)
(0.0295194 0.0128285 0.225311)
(0.0336359 0.0126925 0.228072)
(0.0377536 0.0126857 0.231317)
(0.00188863 0.0181912 0.218051)
(0.00568907 0.0179819 0.218236)
(0.00949806 0.0177048 0.218725)
(0.013328 0.0174413 0.219526)
(0.0171924 0.0171924 0.220652)
(0.021099 0.0169565 0.222119)
(0.0250535 0.016732 0.223948)
(0.0290564 0.0165179 0.226168)
(0.0330878 0.0163311 0.228812)
(0.0371113 0.0163106 0.231918)
(0.00186468 0.022353 0.219803)
(0.00561918 0.0220915 0.219922)
(0.00937682 0.021745 0.220343)
(0.0131522 0.0214137 0.221071)
(0.0169567 0.0210989 0.222119)
(0.0207978 0.0207979 0.2235)
(0.0246813 0.020508 0.225236)
(0.0286083 0.0202285 0.22735)
(0.0325553 0.0199816 0.229874)
(0.0364854 0.0199384 0.232842)
(0.0018423 0.0265799 0.22197)
(0.00555437 0.0262636 0.222008)
(0.00926327 0.0258434 0.222345)
(0.0129864 0.0254392 0.222989)
(0.0167326 0.025053 0.223948)
(0.0205081 0.0246812 0.225235)
(0.0243192 0.0243194 0.22687)
(0.0281687 0.023965 0.228873)
(0.0320313 0.023644 0.231274)
(0.0358715 0.0235633 0.2341)
(0.00182112 0.0308719 0.224589)
(0.00549377 0.0304987 0.224528)
(0.00915622 0.0300007 0.224766)
(0.012829 0.0295186 0.22531)
(0.0165186 0.0290556 0.226167)
(0.0202291 0.0286077 0.22735)
(0.0239651 0.0281685 0.228873)
(0.0277306 0.0277306 0.230757)
(0.0315027 0.0273162 0.233026)
(0.0352589 0.0271666 0.235707)
(0.00180268 0.0352154 0.227709)
(0.00544197 0.0347831 0.227527)
(0.00906431 0.0342022 0.227646)
(0.0126929 0.0336351 0.228072)
(0.0163317 0.033087 0.228812)
(0.0199822 0.0325544 0.229874)
(0.0236444 0.0320305 0.231273)
(0.0273164 0.0315023 0.233026)
(0.0309763 0.0309761 0.235154)
(0.0346515 0.0307016 0.237679)
(0.00180228 0.0395703 0.231387)
(0.0054426 0.0390791 0.231057)
(0.00906432 0.0384125 0.231031)
(0.012686 0.0377529 0.231317)
(0.016311 0.0371106 0.231918)
(0.0199389 0.0364846 0.232842)
(0.0235637 0.0358708 0.2341)
(0.027167 0.0352583 0.235707)
(0.0307018 0.0346512 0.237679)
(0.0342229 0.0342227 0.240045)
(0.00227041 0.0022706 0.199271)
(0.00683337 0.00224536 0.199543)
(0.0114298 0.00221338 0.200092)
(0.0160813 0.00218547 0.200933)
(0.0208211 0.00216176 0.202084)
(0.0256747 0.00214198 0.203573)
(0.0306659 0.00212595 0.205438)
(0.0358148 0.00211361 0.207729)
(0.0411307 0.00210694 0.210508)
(0.0466 0.00212948 0.213856)
(0.00224516 0.00683356 0.199542)
(0.00675923 0.00675956 0.199798)
(0.0113057 0.00666544 0.200324)
(0.0159048 0.0065831 0.201131)
(0.0205873 0.00651336 0.202239)
(0.0253781 0.00645555 0.203674)
(0.0303 0.00640901 0.205469)
(0.0353725 0.00637345 0.207671)
(0.0406036 0.00635419 0.210338)
(0.045982 0.00641448 0.213544)
(0.00221335 0.0114295 0.200092)
(0.00666527 0.0113057 0.200323)
(0.0111471 0.0111473 0.200819)
(0.0156792 0.0110064 0.20159)
(0.0202894 0.0108846 0.202653)
(0.0250007 0.0107814 0.204033)
(0.0298351 0.0106958 0.20576)
(0.0348111 0.0106274 0.207879)
(0.0399336 0.0105853 0.210443)
(0.045194 0.0106767 0.213518)
(0.00218557 0.0160807 0.200933)
(0.00658325 0.0159043 0.201131)
(0.0110064 0.015679 0.20159)
(0.0154766 0.0154767 0.202319)
(0.0200198 0.0152989 0.203334)
(0.0246569 0.0151455 0.204658)
(0.0294083 0.0150155 0.206319)
(0.0342917 0.0149084 0.208358)
(0.0393073 0.0148371 0.210824)
(0.0444491 0.0149503 0.213776)
(0.00216186 0.0208203 0.202084)
(0.00651364 0.0205866 0.202239)
(0.0108849 0.0202888 0.202653)
(0.015299 0.0200196 0.203334)
(0.0197801 0.0197801 0.204297)
(0.0243479 0.0195694 0.205561)
(0.0290215 0.0193868 0.207156)
(0.0338171 0.0192321 0.209116)
(0.0387294 0.0191225 0.211488)
(0.043757 0.019248 0.214324)
(0.00214206 0.0256739 0.203573)
(0.00645582 0.0253772 0.203673)
(0.0107818 0.0249999 0.204032)
(0.0151459 0.0246563 0.204657)
(0.0195696 0.0243477 0.205561)
(0.0240719 0.024072 0.206763)
(0.0286714 0.0238274 0.208288)
(0.0333835 0.0236141 0.210169)
(0.0381969 0.0234543 0.212449)
(0.0431173 0.0235805 0.215173)
(0.00212603 0.030665 0.205438)
(0.00640926 0.0302991 0.205469)
(0.0106963 0.0298342 0.20576)
(0.0150161 0.0294075 0.206319)
(0.0193874 0.0290209 0.207155)
(0.0238276 0.0286713 0.208287)
(0.0283548 0.0283551 0.209738)
(0.0329853 0.0280705 0.211538)
(0.0377033 0.0278435 0.213725)
(0.0425261 0.027953 0.216338)
(0.00211368 0.0358138 0.207728)
(0.00637368 0.0353716 0.20767)
(0.0106278 0.0348102 0.207879)
(0.014909 0.0342908 0.208357)
(0.0192329 0.0338161 0.209116)
(0.0236148 0.0333828 0.210169)
(0.0280706 0.0329851 0.211538)
(0.0326168 0.0326168 0.21325)
(0.037237 0.0322997 0.21534)
(0.0419738 0.0323579 0.21784)
(0.00210701 0.0411299 0.210508)
(0.00635439 0.0406027 0.210338)
(0.0105857 0.0399327 0.210443)
(0.0148375 0.0393064 0.210823)
(0.0191232 0.0387284 0.211488)
(0.0234549 0.0381958 0.212448)
(0.0278439 0.0377024 0.213724)
(0.0322999 0.0372366 0.21534)
(0.0368048 0.0368046 0.217325)
(0.0414661 0.0367533 0.219706)
(0.00212954 0.0465992 0.213856)
(0.00641466 0.0459812 0.213543)
(0.010677 0.0451932 0.213517)
(0.0149506 0.0444482 0.213776)
(0.0192485 0.0437561 0.214324)
(0.023581 0.0431163 0.215173)
(0.0279535 0.0425252 0.216337)
(0.0323584 0.0419731 0.21784)
(0.0367537 0.0414657 0.219706)
(0.0412516 0.0412514 0.221968)
(0.00247781 0.00247801 0.18213)
(0.00746066 0.00245169 0.182318)
(0.0124934 0.00241944 0.182699)
(0.0176101 0.00239303 0.183285)
(0.022858 0.00237275 0.184095)
(0.02828 0.00235858 0.185154)
(0.0339209 0.00235069 0.186499)
(0.0398272 0.00234953 0.188179)
(0.0460412 0.00235772 0.19026)
(0.0525897 0.0024084 0.192828)
(0.00245149 0.00746084 0.182318)
(0.00738316 0.00738349 0.182495)
(0.0123627 0.00728844 0.18286)
(0.0174224 0.00721049 0.183424)
(0.0226065 0.00715083 0.184204)
(0.0279561 0.00710936 0.185224)
(0.0335138 0.00708624 0.186518)
(0.0393243 0.0070823 0.188132)
(0.0454258 0.00710393 0.190125)
(0.051848 0.00723704 0.192577)
(0.00241941 0.0124931 0.182698)
(0.00728827 0.0123627 0.18286)
(0.0122016 0.0122018 0.183205)
(0.0171913 0.012067 0.183746)
(0.0222981 0.0119605 0.184496)
(0.0275604 0.0118828 0.18548)
(0.033019 0.0118341 0.186728)
(0.0387157 0.0118152 0.188283)
(0.0446834 0.0118365 0.190201)
(0.0509547 0.0120392 0.192553)
(0.00239313 0.0176094 0.183285)
(0.00721065 0.0174219 0.183423)
(0.012067 0.0171911 0.183746)
(0.0169954 0.0169954 0.184259)
(0.0220339 0.0168371 0.18498)
(0.0272183 0.016717 0.185928)
(0.0325867 0.0166356 0.187133)
(0.0381785 0.0165941 0.188634)
(0.0440194 0.0166062 0.190484)
(0.0501477 0.0168663 0.192746)
(0.00237285 0.0228572 0.184095)
(0.00715112 0.0226058 0.184203)
(0.0119608 0.0222975 0.184496)
(0.0168373 0.0220337 0.184979)
(0.0218161 0.0218161 0.185667)
(0.0269313 0.0216448 0.186579)
(0.0322187 0.0215208 0.187742)
(0.037715 0.021446 0.189194)
(0.0434376 0.0214376 0.190982)
(0.0494359 0.0217431 0.193163)
(0.00235867 0.0282791 0.185154)
(0.00710963 0.0279552 0.185224)
(0.0118833 0.0275596 0.18548)
(0.0167174 0.0272176 0.185927)
(0.021645 0.026931 0.186579)
(0.0266987 0.0266988 0.187453)
(0.0319131 0.0265209 0.188575)
(0.0373227 0.0263997 0.189978)
(0.0429359 0.026357 0.191707)
(0.0488192 0.0266943 0.193813)
(0.00235077 0.0339199 0.186499)
(0.0070865 0.0335129 0.186518)
(0.0118345 0.0330181 0.186728)
(0.0166362 0.0325858 0.187133)
(0.0215215 0.032218 0.187742)
(0.0265211 0.031913 0.188574)
(0.0316686 0.0316689 0.189653)
(0.036998 0.0314863 0.191008)
(0.0425099 0.0313904 0.192681)
(0.0482957 0.0317406 0.194716)
(0.00234961 0.0398262 0.188179)
(0.00708254 0.0393233 0.188132)
(0.0118156 0.0387148 0.188283)
(0.0165947 0.0381775 0.188634)
(0.0214468 0.037714 0.189194)
(0.0264004 0.037322 0.189978)
(0.0314864 0.0369978 0.191008)
(0.0367379 0.0367379 0.192313)
(0.0421515 0.0365637 0.193929)
(0.0478586 0.0368917 0.195894)
(0.00235779 0.0460402 0.19026)
(0.00710414 0.0454248 0.190125)
(0.0118368 0.0446824 0.190201)
(0.0166066 0.0440184 0.190484)
(0.0214383 0.0434365 0.190981)
(0.0263577 0.0429347 0.191707)
(0.0313908 0.042509 0.192681)
(0.0365639 0.042151 0.193929)
(0.0418682 0.041868 0.195485)
(0.0475174 0.0421174 0.197377)
(0.00240846 0.0525888 0.192827)
(0.00723723 0.0518471 0.192576)
(0.0120395 0.0509538 0.192553)
(0.0168667 0.0501467 0.192746)
(0.0217436 0.0494349 0.193163)
(0.0266949 0.0488182 0.193813)
(0.0317411 0.0482947 0.194716)
(0.0368921 0.0478579 0.195894)
(0.0421177 0.047517 0.197377)
(0.0476079 0.0476077 0.199198)
(0.00259466 0.00259485 0.163806)
(0.00781464 0.00256811 0.163887)
(0.0130971 0.00253619 0.164051)
(0.0184859 0.00251137 0.164307)
(0.0240393 0.00249413 0.164665)
(0.029815 0.00248471 0.165143)
(0.035877 0.00248371 0.165764)
(0.0422976 0.00249221 0.166561)
(0.0491535 0.00251352 0.167582)
(0.0565178 0.00258989 0.168892)
(0.00256792 0.00781482 0.163886)
(0.00773573 0.00773605 0.163963)
(0.0129633 0.00764184 0.164121)