/*--------------------------------*- C++ -*----------------------------------*\
| =========                 |                                                 |
| \\      /  F ield         | foam-extend: Open Source CFD                    |
|  \\    /   O peration     | Version:     3.1                                |
|   \\  /    A nd           | Web:         http://www.extend-project.de       |
|    \\/     M anipulation  |                                                 |
\*---------------------------------------------------------------------------*/
FoamFile
{
    version     2.0;
    format      ascii;
    class       volScalarField::DimensionedInternalField;
    location    "0.0015";
    object      V0;
}
// * * * * * * * * * * * * * * * * * * * * * * * * * * * * * * * * * * * * * //

dimensions      [0 3 0 0 0 0 0];

value           nonuniform List<scalar> 
16000
(
7.22679e-11
7.10039e-11
6.97398e-11
6.84837e-11
6.72371e-11
6.59999e-11
6.47723e-11
6.35547e-11
6.23473e-11
6.11494e-11
7.10028e-11
6.97448e-11
6.84864e-11
6.72323e-11
6.59858e-11
6.47483e-11
6.35199e-11
6.23008e-11
6.10909e-11
5.98874e-11
6.97388e-11
6.84853e-11
6.72332e-11
6.5983e-11
6.47373e-11
6.34992e-11
6.22697e-11
6.10485e-11
5.98355e-11
5.86278e-11
6.84835e-11
6.72315e-11
6.59821e-11
6.47352e-11
6.34912e-11
6.22522e-11
6.10205e-11
5.97966e-11
5.85802e-11
5.7369e-11
6.72371e-11
6.59857e-11
6.47367e-11
6.34903e-11
6.22474e-11
6.10081e-11
5.97738e-11
5.85461e-11
5.7326e-11
5.61118e-11
6.6e-11
6.47484e-11
6.34991e-11
6.22516e-11
6.10072e-11
5.97673e-11
5.85311e-11
5.72991e-11
5.60739e-11
5.48562e-11
6.47725e-11
6.35201e-11
6.22699e-11
6.10204e-11
5.9773e-11
5.85297e-11
5.72912e-11
5.60556e-11
5.4824e-11
5.36017e-11
6.35549e-11
6.23011e-11
6.10487e-11
5.97967e-11
5.85459e-11
5.72978e-11
5.6054e-11
5.48132e-11
5.35749e-11
5.23467e-11
6.23476e-11
6.10912e-11
5.98357e-11
5.85804e-11
5.73261e-11
5.60735e-11
5.48231e-11
5.35743e-11
5.23269e-11
5.10883e-11
6.11497e-11
5.98877e-11
5.8628e-11
5.73692e-11
5.61118e-11
5.48562e-11
5.36016e-11
5.23464e-11
5.10879e-11
4.98321e-11
7.32238e-11
7.19206e-11
7.05996e-11
6.92851e-11
6.79815e-11
6.66873e-11
6.54013e-11
6.41221e-11
6.28479e-11
6.15731e-11
7.19175e-11
7.06331e-11
6.93307e-11
6.80241e-11
6.67234e-11
6.54313e-11
6.41466e-11
6.28678e-11
6.15923e-11
6.031e-11
7.05968e-11
6.93276e-11
6.80459e-11
6.67539e-11
6.54591e-11
6.41694e-11
6.28862e-11
6.1607e-11
6.03299e-11
5.90454e-11
6.92846e-11
6.80218e-11
6.67512e-11
6.54728e-11
6.41872e-11
6.28998e-11
6.16159e-11
6.03354e-11
5.90564e-11
5.77719e-11
6.79818e-11
6.67232e-11
6.54572e-11
6.41848e-11
6.29073e-11
6.16248e-11
6.03395e-11
5.9055e-11
5.7773e-11
5.64895e-11
6.66877e-11
6.54316e-11
6.41691e-11
6.2898e-11
6.16223e-11
6.03442e-11
5.90604e-11
5.77708e-11
5.64817e-11
5.51979e-11
6.54018e-11
6.41471e-11
6.28866e-11
6.16158e-11
6.03373e-11
5.90564e-11
5.77733e-11
5.64813e-11
5.51824e-11
5.38955e-11
6.41228e-11
6.28685e-11
6.16075e-11
6.03358e-11
5.90547e-11
5.77671e-11
5.6477e-11
5.5179e-11
5.38709e-11
5.25788e-11
6.28487e-11
6.1593e-11
6.03305e-11
5.9057e-11
5.77735e-11
5.64809e-11
5.51802e-11
5.38693e-11
5.25479e-11
5.12413e-11
6.15739e-11
6.03107e-11
5.9046e-11
5.77724e-11
5.64899e-11
5.51982e-11
5.38956e-11
5.25782e-11
5.12401e-11
4.99046e-11
7.40567e-11
7.27171e-11
7.13421e-11
6.99719e-11
6.86134e-11
6.72642e-11
6.59224e-11
6.45859e-11
6.3252e-11
6.19126e-11
7.27121e-11
7.14032e-11
7.0059e-11
6.87023e-11
6.73496e-11
6.60049e-11
6.46668e-11
6.33327e-11
6.19988e-11
6.06496e-11
7.13378e-11
7.00541e-11
6.87443e-11
6.74124e-11
6.60706e-11
6.47316e-11
6.33979e-11
6.20654e-11
6.07315e-11
5.93818e-11
6.99712e-11
6.86988e-11
6.74081e-11
6.60996e-11
6.47745e-11
6.34412e-11
6.21088e-11
6.07768e-11
5.94431e-11
5.80967e-11
6.8614e-11
6.73493e-11
6.60676e-11
6.47706e-11
6.34607e-11
6.21379e-11
6.08058e-11
5.94704e-11
5.81351e-11
5.67936e-11
6.7265e-11
6.60056e-11
6.47313e-11
6.34385e-11
6.21339e-11
6.08208e-11
5.94941e-11
5.81539e-11
5.68106e-11
5.54722e-11
6.59234e-11
6.46677e-11
6.33986e-11
6.21087e-11
6.08023e-11
5.94876e-11
5.81656e-11
5.68248e-11
5.54693e-11
5.41297e-11
6.45871e-11
6.33338e-11
6.20663e-11
6.07777e-11
5.94699e-11
5.81479e-11
5.68179e-11
5.5471e-11
5.41046e-11
5.27608e-11
6.32533e-11
6.2e-11
6.07326e-11
5.94441e-11
5.8136e-11
5.68094e-11
5.5466e-11
5.41022e-11
5.27179e-11
5.13535e-11
6.19138e-11
6.06507e-11
5.93828e-11
5.80975e-11
5.67944e-11
5.54729e-11
5.41302e-11
5.27598e-11
5.13516e-11
4.99431e-11
7.47405e-11
7.33699e-11
7.19487e-11
7.05309e-11
6.91263e-11
6.77321e-11
6.63466e-11
6.49679e-11
6.35939e-11
6.22156e-11
7.33632e-11
7.20337e-11
7.06538e-11
6.92546e-11
6.78582e-11
6.64709e-11
6.50912e-11
6.37167e-11
6.23436e-11
6.09527e-11
7.1943e-11
7.06474e-11
6.93139e-11
6.79485e-11
6.65677e-11
6.5189e-11
6.38164e-11
6.24453e-11
6.10736e-11
5.9683e-11
7.05301e-11
6.925e-11
6.79428e-11
6.66096e-11
6.52523e-11
6.38826e-11
6.25132e-11
6.11445e-11
5.97747e-11
5.83895e-11
6.91272e-11
6.7858e-11
6.65638e-11
6.52471e-11
6.39115e-11
6.25575e-11
6.11903e-11
5.9819e-11
5.8449e-11
5.70718e-11
6.77332e-11
6.6472e-11
6.51887e-11
6.38791e-11
6.25521e-11
6.12129e-11
5.98551e-11
5.84794e-11
5.71009e-11
5.57295e-11
6.6348e-11
6.50926e-11
6.38175e-11
6.25132e-11
6.11857e-11
5.98464e-11
5.84969e-11
5.71227e-11
5.573e-11
5.43588e-11
6.49696e-11
6.37183e-11
6.24467e-11
6.11458e-11
5.98184e-11
5.84714e-11
5.71136e-11
5.5733e-11
5.43277e-11
5.29522e-11
6.35957e-11
6.23454e-11
6.10751e-11
5.9776e-11
5.84503e-11
5.70993e-11
5.57258e-11
5.43246e-11
5.28962e-11
5.14926e-11
6.22173e-11
6.09543e-11
5.96844e-11
5.83908e-11
5.7073e-11
5.57306e-11
5.43597e-11
5.29512e-11
5.14901e-11
5.00254e-11
7.52549e-11
7.38602e-11
7.24032e-11
7.09489e-11
6.95094e-11
6.80823e-11
6.66662e-11
6.52598e-11
6.38617e-11
6.24624e-11
7.38523e-11
7.25069e-11
7.10995e-11
6.96677e-11
6.82386e-11
6.68201e-11
6.54115e-11
6.40107e-11
6.2614e-11
6.11995e-11
7.23965e-11
7.10919e-11
6.97403e-11
6.83495e-11
6.69396e-11
6.55323e-11
6.4133e-11
6.27369e-11
6.13424e-11
5.99283e-11
7.09481e-11
6.96623e-11
6.83428e-11
6.69912e-11
6.56103e-11
6.42147e-11
6.28201e-11
6.14279e-11
6.00365e-11
5.86292e-11
6.95107e-11
6.82384e-11
6.69351e-11
6.56041e-11
6.42502e-11
6.28745e-11
6.14837e-11
6.00895e-11
5.86989e-11
5.73016e-11
6.80838e-11
6.68216e-11
6.55321e-11
6.42106e-11
6.28681e-11
6.15112e-11
6.0133e-11
5.87348e-11
5.73351e-11
5.59452e-11
6.6668e-11
6.54133e-11
6.41345e-11
6.28202e-11
6.14783e-11
6.01226e-11
5.87556e-11
5.73603e-11
5.59447e-11
5.45554e-11
6.5262e-11
6.40127e-11
6.27387e-11
6.14295e-11
6.00889e-11
5.87252e-11
5.73494e-11
5.59474e-11
5.45173e-11
5.31231e-11
6.38641e-11
6.26162e-11
6.13444e-11
6.00383e-11
5.87006e-11
5.73333e-11
5.59397e-11
5.45137e-11
5.30558e-11
5.16267e-11
6.24647e-11
6.12016e-11
5.99302e-11
5.86309e-11
5.73033e-11
5.59467e-11
5.45566e-11
5.31219e-11
5.16238e-11
5.01197e-11
7.55851e-11
7.41743e-11
7.26929e-11
7.12136e-11
6.97505e-11
6.83012e-11
6.68649e-11
6.5441e-11
6.40284e-11
6.26171e-11
7.41656e-11
7.28095e-11
7.13832e-11
6.99289e-11
6.84775e-11
6.70381e-11
6.56105e-11
6.41929e-11
6.27821e-11
6.13541e-11
7.26857e-11
7.13748e-11
7.00107e-11
6.86023e-11
6.71728e-11
6.57463e-11
6.43294e-11
6.29175e-11
6.15095e-11
6.0082e-11
7.12129e-11
6.99231e-11
6.8595e-11
6.72307e-11
6.58339e-11
6.44211e-11
6.30103e-11
6.16034e-11
6.01991e-11
5.87794e-11
6.9752e-11
6.84775e-11
6.71678e-11
6.58271e-11
6.4461e-11
6.3071e-11
6.16653e-11
6.02569e-11
5.88542e-11
5.74458e-11
6.8303e-11
6.70399e-11
6.57462e-11
6.44166e-11
6.30641e-11
6.16959e-11
6.03049e-11
5.8893e-11
5.74807e-11
5.60809e-11
6.68672e-11
6.56126e-11
6.43312e-11
6.30105e-11
6.16594e-11
6.02935e-11
5.89158e-11
5.75079e-11
5.60787e-11
5.46798e-11
6.54437e-11
6.41954e-11
6.29197e-11
6.16052e-11
6.02564e-11
5.88824e-11
5.74959e-11
5.60813e-11
5.46367e-11
5.32325e-11
6.40313e-11
6.27847e-11
6.15119e-11
6.02012e-11
5.88561e-11
5.74789e-11
5.60733e-11
5.46328e-11
5.31579e-11
5.17152e-11
6.26198e-11
6.13566e-11
6.00843e-11
5.87815e-11
5.74478e-11
5.60828e-11
5.46814e-11
5.32314e-11
5.1712e-11
5.01865e-11
7.57263e-11
7.43072e-11
7.28127e-11
7.13194e-11
6.98423e-11
6.83798e-11
6.69312e-11
6.54966e-11
6.4075e-11
6.26566e-11
7.42983e-11
7.29365e-11
7.14993e-11
7.00321e-11
6.85675e-11
6.71155e-11
6.56762e-11
6.42482e-11
6.28287e-11
6.13935e-11
7.28054e-11
7.14909e-11
7.0119e-11
6.86999e-11
6.72587e-11
6.58207e-11
6.43929e-11
6.29714e-11
6.15551e-11
6.0121e-11
7.13187e-11
7.00262e-11
6.86925e-11
6.73202e-11
6.59138e-11
6.44907e-11
6.30701e-11
6.16543e-11
6.02425e-11
5.8817e-11
6.9844e-11
6.85676e-11
6.72537e-11
6.59068e-11
6.45331e-11
6.31347e-11
6.17202e-11
6.03038e-11
5.88942e-11
5.74812e-11
6.83818e-11
6.71174e-11
6.58206e-11
6.44861e-11
6.31275e-11
6.17526e-11
6.03544e-11
5.89353e-11
5.75167e-11
5.61132e-11
6.69337e-11
6.56785e-11
6.43949e-11
6.30704e-11
6.17142e-11
6.03427e-11
5.89593e-11
5.75453e-11
5.61103e-11
5.47085e-11
6.54994e-11
6.42509e-11
6.29738e-11
6.16563e-11
6.03033e-11
5.89244e-11
5.7533e-11
5.61133e-11
5.46635e-11
5.32572e-11
6.40781e-11
6.28316e-11
6.15577e-11
6.02448e-11
5.88963e-11
5.75149e-11
5.61047e-11
5.46594e-11
5.31798e-11
5.17354e-11
6.26595e-11
6.13962e-11
6.01236e-11
5.88194e-11
5.74834e-11
5.61153e-11
5.47102e-11
5.3256e-11
5.17322e-11
5.02038e-11
7.56862e-11
7.42665e-11
7.27694e-11
7.12717e-11
6.97895e-11
6.8321e-11
6.68663e-11
6.54258e-11
6.39993e-11
6.25773e-11
7.42577e-11
7.2895e-11
7.14544e-11
6.99825e-11
6.85129e-11
6.7055e-11
6.56095e-11
6.41759e-11
6.27516e-11
6.13143e-11
7.27623e-11
7.14464e-11
7.00708e-11
6.86473e-11
6.72013e-11
6.57578e-11
6.43244e-11
6.28977e-11
6.14773e-11
6.00421e-11
7.12712e-11
6.99769e-11
6.864e-11
6.72637e-11
6.58529e-11
6.44252e-11
6.29998e-11
6.15797e-11
6.01645e-11
5.87388e-11
6.97911e-11
6.85129e-11
6.71963e-11
6.5846e-11
6.44686e-11
6.30662e-11
6.16482e-11
6.02285e-11
5.88165e-11
5.74042e-11
6.8323e-11
6.70569e-11
6.57577e-11
6.44207e-11
6.30592e-11
6.16813e-11
6.02805e-11
5.88595e-11
5.744e-11
5.60386e-11
6.68687e-11
6.56118e-11
6.43264e-11
6.30001e-11
6.16422e-11
6.02691e-11
5.88842e-11
5.74698e-11
5.60359e-11
5.46377e-11
6.54287e-11
6.41786e-11
6.29001e-11
6.15817e-11
6.02281e-11
5.88491e-11
5.74578e-11
5.604e-11
5.45937e-11
5.31929e-11
6.40024e-11
6.27545e-11
6.148e-11
6.01668e-11
5.88186e-11
5.74383e-11
5.60304e-11
5.45897e-11
5.3117e-11
5.16824e-11
6.25803e-11
6.13171e-11
6.00446e-11
5.87411e-11
5.74064e-11
5.60405e-11
5.46393e-11
5.31918e-11
5.16794e-11
5.01659e-11
7.54876e-11
7.40736e-11
7.25831e-11
7.10898e-11
6.96097e-11
6.81415e-11
6.6686e-11
6.5244e-11
6.38162e-11
6.23941e-11
7.40654e-11
7.27054e-11
7.12682e-11
6.97993e-11
6.83313e-11
6.68735e-11
6.54268e-11
6.39915e-11
6.25663e-11
6.11315e-11
7.25765e-11
7.12609e-11
6.98856e-11
6.8463e-11
6.70181e-11
6.55746e-11
6.41401e-11
6.27122e-11
6.12914e-11
5.98599e-11
7.10893e-11
6.97941e-11
6.84562e-11
6.70793e-11
6.56687e-11
6.42412e-11
6.28154e-11
6.13949e-11
5.99801e-11
5.85592e-11
6.96111e-11
6.83313e-11
6.70134e-11
6.56622e-11
6.42842e-11
6.2882e-11
6.14647e-11
6.00462e-11
5.86357e-11
5.72292e-11
6.81433e-11
6.68751e-11
6.55745e-11
6.4237e-11
6.28755e-11
6.14978e-11
6.00983e-11
5.86804e-11
5.72647e-11
5.58704e-11
6.66882e-11
6.54289e-11
6.41419e-11
6.28157e-11
6.14592e-11
6.00878e-11
5.87051e-11
5.72955e-11
5.58688e-11
5.44799e-11
6.52466e-11
6.3994e-11
6.27144e-11
6.13968e-11
6.00458e-11
5.86708e-11
5.72844e-11
5.58744e-11
5.44393e-11
5.30507e-11
6.3819e-11
6.25689e-11
6.12938e-11
5.99823e-11
5.86377e-11
5.72631e-11
5.58636e-11
5.44355e-11
5.298e-11
5.1565e-11
6.23968e-11
6.1134e-11
5.98623e-11
5.85613e-11
5.72311e-11
5.58721e-11
5.44812e-11
5.30495e-11
5.15622e-11
5.00788e-11
7.51658e-11
7.37625e-11
7.22861e-11
7.08044e-11
6.93327e-11
6.78706e-11
6.64191e-11
6.49799e-11
6.35544e-11
6.21358e-11
7.37551e-11
7.24007e-11
7.09726e-11
6.95132e-11
6.80529e-11
6.66004e-11
6.51572e-11
6.37244e-11
6.23017e-11
6.08737e-11
7.22802e-11
7.09661e-11
6.95946e-11
6.81779e-11
6.67393e-11
6.53006e-11
6.38693e-11
6.24441e-11
6.10266e-11
5.96034e-11
7.08038e-11
6.95086e-11
6.81718e-11
6.67976e-11
6.53911e-11
6.39683e-11
6.25463e-11
6.11292e-11
5.97185e-11
5.83066e-11
6.93338e-11
6.80527e-11
6.6735e-11
6.53853e-11
6.40098e-11
6.26114e-11
6.11989e-11
5.97855e-11
5.83803e-11
5.69836e-11
6.7872e-11
6.66017e-11
6.53004e-11
6.39644e-11
6.26056e-11
6.12311e-11
5.98367e-11
5.8426e-11
5.70183e-11
5.56352e-11
6.64209e-11
6.51589e-11
6.38708e-11
6.25465e-11
6.1194e-11
5.98275e-11
5.84502e-11
5.70496e-11
5.56352e-11
5.42599e-11
6.49821e-11
6.37264e-11
6.24459e-11
6.11308e-11
5.97852e-11
5.84177e-11
5.704e-11
5.56426e-11
5.42245e-11
5.28529e-11
6.35568e-11
6.23039e-11
6.10286e-11
5.97203e-11
5.8382e-11
5.7017e-11
5.56305e-11
5.4221e-11
5.279e-11
5.14014e-11
6.21381e-11
6.08758e-11
5.96053e-11
5.83084e-11
5.69852e-11
5.56365e-11
5.42607e-11
5.28517e-11
5.1399e-11
4.99563e-11
7.47644e-11
7.33751e-11
7.19184e-11
7.0454e-11
6.89961e-11
6.7545e-11
6.61024e-11
6.46704e-11
6.32513e-11
6.184e-11
7.33686e-11
7.20219e-11
7.06077e-11
6.91631e-11
6.77155e-11
6.6273e-11
6.48379e-11
6.34118e-11
6.19958e-11
6.05787e-11
7.19131e-11
7.06019e-11
6.92374e-11
6.78308e-11
6.6403e-11
6.49736e-11
6.35497e-11
6.21313e-11
6.07209e-11
5.93098e-11
7.04534e-11
6.91589e-11
6.78254e-11
6.64568e-11
6.50583e-11
6.36443e-11
6.22301e-11
6.08203e-11
5.94173e-11
5.80181e-11
6.89969e-11
6.77151e-11
6.63991e-11
6.50532e-11
6.36833e-11
6.22922e-11
6.08883e-11
5.94838e-11
5.80873e-11
5.67036e-11
6.7546e-11
6.6274e-11
6.49732e-11
6.36408e-11
6.22871e-11
6.09188e-11
5.95327e-11
5.81329e-11
5.67368e-11
5.53678e-11
6.61037e-11
6.48392e-11
6.35508e-11
6.22301e-11
6.08841e-11
5.9525e-11
5.81562e-11
5.67679e-11
5.53694e-11
5.40103e-11
6.46721e-11
6.34134e-11
6.21327e-11
6.08216e-11
5.94834e-11
5.81261e-11
5.67599e-11
5.53784e-11
5.39811e-11
5.2629e-11
6.32531e-11
6.19974e-11
6.07224e-11
5.94186e-11
5.80886e-11
5.67357e-11
5.53653e-11
5.3978e-11
5.25755e-11
5.12163e-11
6.18417e-11
6.05802e-11
5.93113e-11
5.80194e-11
5.67048e-11
5.53686e-11
5.40107e-11
5.26278e-11
5.12143e-11
4.98166e-11
7.43287e-11
7.29555e-11
7.15219e-11
7.00788e-11
6.86389e-11
6.72033e-11
6.57742e-11
6.43541e-11
6.29458e-11
6.15458e-11
7.29499e-11
7.16126e-11
7.02151e-11
6.87893e-11
6.73584e-11
6.59305e-11
6.4508e-11
6.30931e-11
6.1688e-11
6.02854e-11
7.15172e-11
7.02101e-11
6.88551e-11
6.74619e-11
6.60487e-11
6.46327e-11
6.32206e-11
6.18133e-11
6.0414e-11
5.90184e-11
7.0078e-11
6.87855e-11
6.74573e-11
6.6097e-11
6.47098e-11
6.33083e-11
6.19059e-11
6.05075e-11
5.91158e-11
5.77322e-11
6.86393e-11
6.7358e-11
6.60454e-11
6.47056e-11
6.33439e-11
6.19634e-11
6.05717e-11
5.91797e-11
5.77954e-11
5.6427e-11
6.7204e-11
6.59311e-11
6.46323e-11
6.33053e-11
6.19593e-11
6.05998e-11
5.92251e-11
5.78394e-11
5.64579e-11
5.51044e-11
6.57751e-11
6.45088e-11
6.32213e-11
6.19058e-11
6.05683e-11
5.9219e-11
5.7861e-11
5.64877e-11
5.51075e-11
5.37656e-11
6.43552e-11
6.30942e-11
6.18143e-11
6.05083e-11
5.91793e-11
5.7834e-11
5.64813e-11
5.51174e-11
5.37425e-11
5.241e-11
6.2947e-11
6.16891e-11
6.04151e-11
5.91168e-11
5.77963e-11
5.64569e-11
5.5104e-11
5.37398e-11
5.23662e-11
5.10351e-11
6.1547e-11
6.02864e-11
5.90193e-11
5.7733e-11
5.64276e-11
5.51049e-11
5.37655e-11
5.24089e-11
5.10335e-11
4.96784e-11
7.38994e-11
7.25429e-11
7.11338e-11
6.97144e-11
6.82956e-11
6.68793e-11
6.54677e-11
6.40638e-11
6.26706e-11
6.1286e-11
7.25383e-11
7.12113e-11
6.98323e-11
6.84274e-11
6.70165e-11
6.56067e-11
6.42008e-11
6.28015e-11
6.14115e-11
6.00266e-11
7.11298e-11
6.98279e-11
6.84842e-11
6.71068e-11
6.57112e-11
6.43121e-11
6.29157e-11
6.15235e-11
6.01393e-11
5.87617e-11
6.97136e-11
6.84242e-11
6.7103e-11
6.57534e-11
6.43803e-11
6.29945e-11
6.16074e-11
6.02239e-11
5.88472e-11
5.7481e-11
6.82958e-11
6.70159e-11
6.57084e-11
6.43768e-11
6.3026e-11
6.1659e-11
6.02825e-11
5.8906e-11
5.75368e-11
5.6185e-11
6.68797e-11
6.5607e-11
6.43116e-11
6.2992e-11
6.16556e-11
6.03075e-11
5.89467e-11
5.75775e-11
5.62127e-11
5.48754e-11
6.54683e-11
6.42013e-11
6.2916e-11
6.16071e-11
6.02796e-11
5.89419e-11
5.75968e-11
5.62401e-11
5.48793e-11
5.35539e-11
6.40645e-11
6.28022e-11
6.15241e-11
6.02244e-11
5.89056e-11
5.75734e-11
5.62352e-11
5.48893e-11
5.35363e-11
5.22216e-11
6.26713e-11
6.14121e-11
6.01399e-11
5.88478e-11
5.75374e-11
5.62119e-11
5.48764e-11
5.3534e-11
5.21868e-11
5.0879e-11
6.12867e-11
6.00272e-11
5.87622e-11
5.74814e-11
5.61853e-11
5.48755e-11
5.35535e-11
5.22205e-11
5.08779e-11
4.95571e-11
7.35072e-11
7.2167e-11
7.07821e-11
6.9387e-11
6.7991e-11
6.65963e-11
6.52053e-11
6.38209e-11
6.24464e-11
6.10803e-11
7.21632e-11
7.08469e-11
6.94866e-11
6.81036e-11
6.67142e-11
6.53251e-11
6.3939e-11
6.25587e-11
6.1187e-11
5.9822e-11
7.07788e-11
6.94829e-11
6.81514e-11
6.67911e-11
6.54148e-11
6.40351e-11
6.26572e-11
6.12835e-11
5.99172e-11
5.85591e-11
6.93862e-11
6.81008e-11
6.6788e-11
6.54508e-11
6.40936e-11
6.27256e-11
6.13565e-11
5.99907e-11
5.86315e-11
5.72837e-11
6.7991e-11
6.67137e-11
6.54125e-11
6.40908e-11
6.27527e-11
6.1401e-11
6.00418e-11
5.86831e-11
5.73312e-11
5.59962e-11
6.65964e-11
6.53252e-11
6.40345e-11
6.27235e-11
6.13984e-11
6.00633e-11
5.87182e-11
5.73669e-11
5.60201e-11
5.46982e-11
6.52055e-11
6.39392e-11
6.26574e-11
6.13561e-11
6.00396e-11
5.87145e-11
5.73834e-11
5.60438e-11
5.47022e-11
5.33917e-11
6.38213e-11
6.25589e-11
6.12837e-11
5.9991e-11
5.86827e-11
5.73637e-11
5.60401e-11
5.47114e-11
5.33784e-11
5.20783e-11
6.24467e-11
6.11873e-11
5.99175e-11
5.86318e-11
5.73315e-11
5.60194e-11
5.46999e-11
5.33765e-11
5.20511e-11
5.076e-11
6.10806e-11
5.98223e-11
5.85593e-11
5.72839e-11
5.59962e-11
5.46981e-11
5.33912e-11
5.20773e-11
5.07591e-11
4.94612e-11
7.31698e-11
7.18447e-11
7.04824e-11
6.91107e-11
6.77376e-11
6.63653e-11
6.49962e-11
6.36331e-11
6.22788e-11
6.09327e-11
7.18417e-11
7.05357e-11
6.91932e-11
6.78315e-11
6.6464e-11
6.50964e-11
6.37314e-11
6.23718e-11
6.10201e-11
5.96755e-11
7.04796e-11
6.91903e-11
6.78711e-11
6.65279e-11
6.51713e-11
6.38118e-11
6.2454e-11
6.11001e-11
5.97533e-11
5.84146e-11
6.911e-11
6.78292e-11
6.65254e-11
6.52012e-11
6.38606e-11
6.25112e-11
6.11611e-11
5.98143e-11
5.84737e-11
5.71439e-11
6.77375e-11
6.64634e-11
6.51694e-11
6.38584e-11
6.25338e-11
6.11983e-11
5.9857e-11
5.85167e-11
5.71827e-11
5.58637e-11
6.63653e-11
6.50964e-11
6.38113e-11
6.25095e-11
6.11962e-11
5.98748e-11
5.85457e-11
5.72123e-11
5.58832e-11
5.45754e-11
6.49962e-11
6.37315e-11
6.2454e-11
6.11607e-11
5.98552e-11
5.85428e-11
5.72259e-11
5.59028e-11
5.45789e-11
5.32808e-11
6.36332e-11
6.23719e-11
6.11001e-11
5.98144e-11
5.85164e-11
5.72099e-11
5.58999e-11
5.45865e-11
5.32706e-11
5.19815e-11
6.22789e-11
6.10202e-11
5.97534e-11
5.84738e-11
5.71828e-11
5.58827e-11
5.45771e-11
5.32691e-11
5.19602e-11
5.06791e-11
6.09328e-11
5.96756e-11
5.84146e-11
5.71438e-11
5.58636e-11
5.45752e-11
5.32803e-11
5.19807e-11
5.06784e-11
4.93926e-11
7.28927e-11
7.15809e-11
7.02385e-11
6.88882e-11
6.75365e-11
6.61857e-11
6.48379e-11
6.34956e-11
6.21612e-11
6.08344e-11
7.15785e-11
7.0282e-11
6.89556e-11
6.76134e-11
6.62664e-11
6.49196e-11
6.35753e-11
6.22359e-11
6.09038e-11
5.95782e-11
7.02363e-11
6.89532e-11
6.76457e-11
6.63187e-11
6.49808e-11
6.36406e-11
6.23024e-11
6.09679e-11
5.96399e-11
5.8319e-11
6.88875e-11
6.76116e-11
6.63166e-11
6.50051e-11
6.36804e-11
6.23488e-11
6.10171e-11
5.96886e-11
5.83659e-11
5.70521e-11
6.75364e-11
6.6266e-11
6.49792e-11
6.36786e-11
6.23671e-11
6.10471e-11
5.97229e-11
5.84e-11
5.70828e-11
5.57778e-11
6.61856e-11
6.49195e-11
6.36402e-11
6.23474e-11
6.10455e-11
5.97372e-11
5.84232e-11
5.71062e-11
5.57932e-11
5.44972e-11
6.48378e-11
6.35752e-11
6.23023e-11
6.10168e-11
5.97215e-11
5.84209e-11
5.7117e-11
5.58085e-11
5.44999e-11
5.32115e-11
6.34956e-11
6.22359e-11
6.09679e-11
5.96887e-11
5.83997e-11
5.71042e-11
5.58062e-11
5.45056e-11
5.32033e-11
5.19218e-11
6.21612e-11
6.09038e-11
5.96399e-11
5.83659e-11
5.70829e-11
5.57928e-11
5.44984e-11
5.32021e-11
5.19049e-11
5.06289e-11
6.08344e-11
5.95781e-11
5.83189e-11
5.7052e-11
5.57777e-11
5.4497e-11
5.32111e-11
5.19212e-11
5.06283e-11
4.9347e-11
7.26718e-11
7.13711e-11
7.00456e-11
6.87137e-11
6.7381e-11
6.60492e-11
6.47204e-11
6.33966e-11
6.20799e-11
6.07696e-11
7.13692e-11
7.0081e-11
6.87685e-11
6.74432e-11
6.61143e-11
6.47859e-11
6.34601e-11
6.21388e-11
6.08239e-11
5.95142e-11
7.00438e-11
6.87665e-11
6.74694e-11
6.61566e-11
6.48351e-11
6.35123e-11
6.21914e-11
6.08741e-11
5.95625e-11
5.82565e-11
6.87132e-11
6.74417e-11
6.61549e-11
6.48548e-11
6.35442e-11
6.22284e-11
6.09129e-11
5.96005e-11
5.82931e-11
5.69926e-11
6.73809e-11
6.61139e-11
6.48339e-11
6.35427e-11
6.2243e-11
6.09367e-11
5.96273e-11
5.83194e-11
5.70164e-11
5.57228e-11
6.60491e-11
6.47859e-11
6.35119e-11
6.22272e-11
6.09353e-11
5.96386e-11
5.83375e-11
5.70343e-11
5.57347e-11
5.44478e-11
6.47204e-11
6.346e-11
6.21914e-11
6.09126e-11
5.96261e-11
5.83356e-11
5.70426e-11
5.57462e-11
5.44497e-11
5.31686e-11
6.33966e-11
6.21387e-11
6.08741e-11
5.96005e-11
5.83192e-11
5.70327e-11
5.57442e-11
5.44537e-11
5.31616e-11
5.18853e-11
6.20798e-11
6.08238e-11
5.95624e-11
5.82931e-11
5.70165e-11
5.57342e-11
5.44485e-11
5.31607e-11
5.18716e-11
5.05978e-11
6.07696e-11
5.95142e-11
5.82564e-11
5.69925e-11
5.57227e-11
5.44477e-11
5.31683e-11
5.18848e-11
5.05973e-11
4.9317e-11
7.24975e-11
7.12059e-11
6.98942e-11
6.85775e-11
6.72604e-11
6.59446e-11
6.46315e-11
6.33228e-11
6.20201e-11
6.07228e-11
7.12043e-11
6.99229e-11
6.86219e-11
6.73107e-11
6.59968e-11
6.46837e-11
6.33731e-11
6.20665e-11
6.07653e-11
5.94681e-11
6.98927e-11
6.86203e-11
6.73319e-11
6.60309e-11
6.47232e-11
6.34146e-11
6.2108e-11
6.08046e-11
5.9506e-11
5.82114e-11
6.85771e-11
6.73095e-11
6.60296e-11
6.4739e-11
6.34401e-11
6.21372e-11
6.0835e-11
5.95355e-11
5.82401e-11
5.69498e-11
6.72604e-11
6.59965e-11
6.47222e-11
6.34389e-11
6.21489e-11
6.08537e-11
5.95563e-11
5.82603e-11
5.69684e-11
5.56832e-11
6.59445e-11
6.46837e-11
6.34143e-11
6.21363e-11
6.08526e-11
5.95652e-11
5.82744e-11
5.69819e-11
5.56924e-11
5.44124e-11
6.46315e-11
6.33731e-11
6.2108e-11
6.08348e-11
5.95553e-11
5.82727e-11
5.69884e-11
5.57011e-11
5.44136e-11
5.31377e-11
6.33228e-11
6.20665e-11
6.08046e-11
5.95355e-11
5.82601e-11
5.69805e-11
5.56994e-11
5.44163e-11
5.31316e-11
5.1859e-11
6.20201e-11
6.07653e-11
5.9506e-11
5.82401e-11
5.69684e-11
5.5692e-11
5.44126e-11
5.31309e-11
5.18475e-11
5.05752e-11
6.07228e-11
5.9468e-11
5.82114e-11
5.69497e-11
5.56832e-11
5.44124e-11
5.31376e-11
5.18586e-11
5.05748e-11
4.92953e-11
7.23588e-11
7.10744e-11
6.97737e-11
6.84691e-11
6.71646e-11
6.58612e-11
6.45603e-11
6.32632e-11
6.19709e-11
6.06829e-11
7.10731e-11
6.97972e-11
6.85053e-11
6.72053e-11
6.59034e-11
6.46023e-11
6.33035e-11
6.2008e-11
6.07169e-11
5.94287e-11
6.97725e-11
6.8504e-11
6.72226e-11
6.59311e-11
6.46341e-11
6.33368e-11
6.20412e-11
6.07483e-11
5.94591e-11
5.81729e-11
6.84688e-11
6.72043e-11
6.59299e-11
6.4647e-11
6.33573e-11
6.20645e-11
6.07723e-11
5.94824e-11
5.81959e-11
5.69129e-11
6.71646e-11
6.59032e-11
6.46333e-11
6.33563e-11
6.20738e-11
6.07872e-11
5.94989e-11
5.82117e-11
5.69277e-11
5.56487e-11
6.58612e-11
6.46023e-11
6.33365e-11
6.20637e-11
6.07863e-11
5.95059e-11
5.82228e-11
5.69383e-11
5.5656e-11
5.4381e-11
6.45603e-11
6.33035e-11
6.20412e-11
6.07721e-11
5.9498e-11
5.82214e-11
5.69434e-11
5.56628e-11
5.43817e-11
5.31097e-11
6.32632e-11
6.2008e-11
6.07483e-11
5.94825e-11
5.82115e-11
5.6937e-11
5.56613e-11
5.43837e-11
5.31044e-11
5.18346e-11
6.19709e-11
6.07169e-11
5.94592e-11
5.81959e-11
5.69278e-11
5.56557e-11
5.43809e-11
5.31038e-11
5.18248e-11
5.05544e-11
6.0683e-11
5.94287e-11
5.81729e-11
5.69129e-11
5.56488e-11
5.4381e-11
5.31096e-11
5.18343e-11
5.05541e-11
4.92767e-11
7.2246e-11
7.09673e-11
6.96752e-11
6.83802e-11
6.70854e-11
6.57916e-11
6.44998e-11
6.32111e-11
6.19263e-11
6.06448e-11
7.09662e-11
6.96946e-11
6.84099e-11
6.71187e-11
6.5826e-11
6.45341e-11
6.3244e-11
6.19567e-11
6.06728e-11
5.93909e-11
6.96742e-11
6.84089e-11
6.7133e-11
6.58487e-11
6.45601e-11
6.32712e-11
6.19838e-11
6.06984e-11
5.94161e-11
5.81358e-11
6.838e-11
6.71179e-11
6.58478e-11
6.45706e-11
6.32879e-11
6.20027e-11
6.0718e-11
5.94351e-11
5.81547e-11
5.6877e-11
6.70854e-11
6.58259e-11
6.45594e-11
6.32871e-11
6.20104e-11
6.07302e-11
5.94485e-11
5.81676e-11
5.68893e-11
5.56148e-11
6.57916e-11
6.45341e-11
6.3271e-11
6.20021e-11
6.07294e-11
5.94542e-11
5.81767e-11
5.68979e-11
5.56207e-11
5.43494e-11
6.44999e-11
6.32441e-11
6.19838e-11
6.07179e-11
5.94478e-11
5.81755e-11
5.69021e-11
5.56263e-11
5.43499e-11
5.30809e-11
6.32112e-11
6.19568e-11
6.06985e-11
5.94352e-11
5.81675e-11
5.68968e-11
5.56251e-11
5.43515e-11
5.30764e-11
5.18091e-11
6.19264e-11
6.06728e-11
5.94161e-11
5.81548e-11
5.68894e-11
5.56205e-11
5.43492e-11
5.30759e-11
5.18008e-11
5.05328e-11
6.06448e-11
5.9391e-11
5.81358e-11
5.68771e-11
5.56148e-11
5.43494e-11
5.30809e-11
5.18089e-11
5.05325e-11
4.92587e-11
7.21518e-11
7.08777e-11
6.95925e-11
6.8305e-11
6.70177e-11
6.57312e-11
6.44464e-11
6.31639e-11
6.18845e-11
6.06076e-11
7.08767e-11
6.96086e-11
6.83297e-11
6.70453e-11
6.57597e-11
6.44748e-11
6.31913e-11
6.19099e-11
6.06312e-11
5.9354e-11
6.95917e-11
6.83287e-11
6.70571e-11
6.57785e-11
6.44963e-11
6.32138e-11
6.19325e-11
6.06527e-11
5.93753e-11
5.80994e-11
6.83049e-11
6.70446e-11
6.57777e-11
6.4505e-11
6.32277e-11
6.19482e-11
6.06691e-11
5.93913e-11
5.81155e-11
5.68417e-11
6.70177e-11
6.57596e-11
6.44957e-11
6.3227e-11
6.19546e-11
6.06792e-11
5.94025e-11
5.81263e-11
5.68521e-11
5.55811e-11
6.57312e-11
6.44748e-11
6.32137e-11
6.19477e-11
6.06785e-11
5.94073e-11
5.8134e-11
5.68594e-11
5.55861e-11
5.43177e-11
6.44464e-11
6.31913e-11
6.19325e-11
6.0669e-11
5.94019e-11
5.8133e-11
5.6863e-11
5.55909e-11
5.43182e-11
5.30517e-11
6.3164e-11
6.191e-11
6.06528e-11
5.93914e-11
5.81262e-11
5.68585e-11
5.55899e-11
5.43196e-11
5.3048e-11
5.1783e-11
6.18846e-11
6.06313e-11
5.93754e-11
5.81156e-11
5.68522e-11
5.55859e-11
5.43176e-11
5.30475e-11
5.1776e-11
5.05108e-11
6.06077e-11
5.93541e-11
5.80995e-11
5.68418e-11
5.55811e-11
5.43177e-11
5.30517e-11
5.17829e-11
5.05106e-11
4.92409e-11
7.20716e-11
7.08013e-11
6.95218e-11
6.82403e-11
6.69589e-11
6.56781e-11
6.43987e-11
6.31211e-11
6.18459e-11
6.05727e-11
7.08005e-11
6.95351e-11
6.82608e-11
6.69819e-11
6.5702e-11
6.44225e-11
6.31441e-11
6.18674e-11
6.05928e-11
5.93194e-11
6.95211e-11
6.826e-11
6.69917e-11
6.57176e-11
6.44405e-11
6.3163e-11
6.18864e-11
6.06111e-11
5.93375e-11
5.80652e-11
6.82401e-11
6.69813e-11
6.5717e-11
6.44478e-11
6.31747e-11
6.18997e-11
6.06249e-11
5.93511e-11
5.80789e-11
5.68085e-11
6.69589e-11
6.57019e-11
6.444e-11
6.31741e-11
6.1905e-11
6.06335e-11
5.93606e-11
5.80882e-11
5.68174e-11
5.55492e-11
6.56782e-11
6.44225e-11
6.31629e-11
6.18993e-11
6.06329e-11
5.93647e-11
5.80948e-11
5.68237e-11
5.55536e-11
5.42877e-11
6.43987e-11
6.31442e-11
6.18865e-11
6.06248e-11
5.93602e-11
5.80939e-11
5.68267e-11
5.55577e-11
5.42882e-11
5.30241e-11
6.31211e-11
6.18675e-11
6.06111e-11
5.93512e-11
5.80881e-11
5.6823e-11
5.55569e-11
5.42895e-11
5.3021e-11
5.17583e-11
6.1846e-11
6.05929e-11
5.93376e-11
5.8079e-11
5.68175e-11
5.55534e-11
5.42877e-11
5.30206e-11
5.17524e-11
5.04899e-11
6.05728e-11
5.93195e-11
5.80653e-11
5.68086e-11
5.55493e-11
5.42877e-11
5.30241e-11
5.17581e-11
5.04897e-11
4.92238e-11
7.20027e-11
7.07355e-11
6.94607e-11
6.81842e-11
6.69077e-11
6.56317e-11
6.43566e-11
6.30831e-11
6.18115e-11
6.05415e-11
7.07349e-11
6.94718e-11
6.82013e-11
6.69269e-11
6.56516e-11
6.43766e-11
6.31025e-11
6.18297e-11
6.05586e-11
5.92885e-11
6.94601e-11
6.82006e-11
6.69351e-11
6.56647e-11
6.43917e-11
6.31184e-11
6.18457e-11
6.0574e-11
5.93038e-11
5.80348e-11
6.8184e-11
6.69264e-11
6.56642e-11
6.43978e-11
6.31282e-11
6.18569e-11
6.05858e-11
5.93154e-11
5.80464e-11
5.67789e-11
6.69077e-11
6.56515e-11
6.43913e-11
6.31277e-11
6.18614e-11
6.0593e-11
5.93235e-11
5.80543e-11
5.67864e-11
5.55209e-11
6.56317e-11
6.43766e-11
6.31183e-11
6.18566e-11
6.05925e-11
5.9327e-11
5.80599e-11
5.67918e-11
5.55246e-11
5.4261e-11
6.43567e-11
6.31025e-11
6.18458e-11
6.05857e-11
5.93231e-11
5.80592e-11
5.67944e-11
5.55282e-11
5.42615e-11
5.29995e-11
6.30831e-11
6.18297e-11
6.05741e-11
5.93155e-11
5.80543e-11
5.67912e-11
5.55275e-11
5.42627e-11
5.2997e-11
5.17362e-11
6.18115e-11
6.05586e-11
5.93039e-11
5.80464e-11
5.67865e-11
5.55245e-11
5.42611e-11
5.29966e-11
5.17314e-11
5.04711e-11
6.05416e-11
5.92886e-11
5.80348e-11
5.67789e-11
5.55209e-11
5.42611e-11
5.29994e-11
5.17361e-11
5.04709e-11
4.92081e-11
7.19435e-11
7.0679e-11
6.94081e-11
6.81358e-11
6.68634e-11
6.55914e-11
6.43201e-11
6.30501e-11
6.17817e-11
6.05147e-11
7.06785e-11
6.94173e-11
6.815e-11
6.68794e-11
6.5608e-11
6.43369e-11
6.30664e-11
6.1797e-11
6.0529e-11
5.9262e-11
6.94076e-11
6.81494e-11
6.68862e-11
6.56189e-11
6.43495e-11
6.30797e-11
6.18105e-11
6.0542e-11
5.92748e-11
5.80086e-11
6.81356e-11
6.6879e-11
6.56185e-11
6.43546e-11
6.30879e-11
6.18199e-11
6.05519e-11
5.92846e-11
5.80183e-11
5.67535e-11
6.68634e-11
6.5608e-11
6.43492e-11
6.30875e-11
6.18236e-11
6.0558e-11
5.92914e-11
5.8025e-11
5.67598e-11
5.54966e-11
6.55914e-11
6.43369e-11
6.30797e-11
6.18196e-11
6.05576e-11
5.92943e-11
5.80297e-11
5.67644e-11
5.54997e-11
5.42383e-11
6.43202e-11
6.30664e-11
6.18105e-11
6.05518e-11
5.92911e-11
5.80292e-11
5.67666e-11
5.55028e-11
5.42387e-11
5.29785e-11
6.30502e-11
6.1797e-11
6.05421e-11
5.92846e-11
5.8025e-11
5.67639e-11
5.55022e-11
5.42397e-11
5.29765e-11
5.17175e-11
6.17818e-11
6.05291e-11
5.92749e-11
5.80184e-11
5.67599e-11
5.54997e-11
5.42383e-11
5.29762e-11
5.17135e-11
5.04549e-11
6.05148e-11
5.9262e-11
5.80087e-11
5.67535e-11
5.54967e-11
5.42383e-11
5.29785e-11
5.17173e-11
5.04548e-11
4.91943e-11
7.18928e-11
7.06306e-11
6.9363e-11
6.80942e-11
6.68253e-11
6.55568e-11
6.42889e-11
6.30219e-11
6.17564e-11
6.04921e-11
7.06301e-11
6.93707e-11
6.8106e-11
6.68387e-11
6.55706e-11
6.43028e-11
6.30355e-11
6.17691e-11
6.05039e-11
5.92396e-11
6.93626e-11
6.81056e-11
6.68443e-11
6.55797e-11
6.43133e-11
6.30466e-11
6.17803e-11
6.05147e-11
5.92502e-11
5.79866e-11
6.80941e-11
6.68383e-11
6.55793e-11
6.43175e-11
6.30534e-11
6.17882e-11
6.05229e-11
5.92583e-11
5.79946e-11
5.67321e-11
6.68253e-11
6.55706e-11
6.4313e-11
6.30531e-11
6.17913e-11
6.0528e-11
5.9264e-11
5.80002e-11