/*--------------------------------*- C++ -*----------------------------------*\
| =========                 |                                                 |
| \\      /  F ield         | foam-extend: Open Source CFD                    |
|  \\    /   O peration     | Version:     3.1                                |
|   \\  /    A nd           | Web:         http://www.extend-project.de       |
|    \\/     M anipulation  |                                                 |
\*---------------------------------------------------------------------------*/
FoamFile
{
    version     2.0;
    format      ascii;
    class       volVectorField;
    location    "3.6";
    object      cellMotionU;
}
// * * * * * * * * * * * * * * * * * * * * * * * * * * * * * * * * * * * * * //

dimensions      [0 1 -1 0 0 0 0];

internalField   nonuniform List<vector> 
14592
(
(3.71177e-12 -4.57921e-12 -4.43086e-13)
(1.05364e-11 -1.33929e-11 -1.27078e-12)
(1.60919e-11 -2.17805e-11 -1.97915e-12)
(2.01376e-11 -3.01897e-11 -2.54244e-12)
(2.22865e-11 -3.90187e-11 -2.89273e-12)
(2.18957e-11 -4.86438e-11 -2.89369e-12)
(1.79069e-11 -5.94518e-11 -2.30082e-12)
(8.60203e-12 -7.18565e-11 -6.98982e-13)
(-8.78017e-12 -8.63469e-11 2.58451e-12)
(-3.86372e-11 -1.03513e-10 8.59473e-12)
(-8.78843e-11 -1.24119e-10 1.8852e-11)
(-1.67201e-10 -1.49255e-10 3.5323e-11)
(-2.92546e-10 -1.80733e-10 5.99251e-11)
(-4.8603e-10 -2.2234e-10 9.27455e-11)
(-7.69233e-10 -2.82298e-10 1.27388e-10)
(-1.09797e-09 -3.64267e-10 1.44143e-10)
(1.12314e-11 -1.35087e-11 -1.34368e-12)
(3.19251e-11 -3.95e-11 -3.85966e-12)
(4.89049e-11 -6.42254e-11 -6.03315e-12)
(6.15407e-11 -8.89837e-11 -7.80137e-12)
(6.88025e-11 -1.14927e-10 -8.98219e-12)
(6.8967e-11 -1.43139e-10 -9.20075e-12)
(5.92006e-11 -1.74711e-10 -7.77495e-12)
(3.49144e-11 -2.10796e-10 -3.53845e-12)
(-1.12312e-11 -2.52736e-10 5.42076e-12)
(-9.08478e-11 -3.02085e-10 2.21249e-11)
(-2.22033e-10 -3.60807e-10 5.11001e-11)
(-4.32255e-10 -4.31318e-10 9.85942e-11)
(-7.61121e-10 -5.16702e-10 1.71921e-10)
(-1.25888e-09 -6.20752e-10 2.76381e-10)
(-1.96042e-09 -7.46308e-10 4.0628e-10)
(-2.71994e-09 -8.73529e-10 5.20533e-10)
(1.90606e-11 -2.18327e-11 -2.28947e-12)
(5.43023e-11 -6.38247e-11 -6.59515e-12)
(8.36168e-11 -1.03711e-10 -1.03736e-11)
(1.06235e-10 -1.43548e-10 -1.35673e-11)
(1.20834e-10 -1.85137e-10 -1.59398e-11)
(1.25159e-10 -2.30145e-10 -1.69702e-11)
(1.15486e-10 -2.80165e-10 -1.56823e-11)
(8.58205e-11 -3.36901e-10 -1.03837e-11)
(2.66633e-11 -4.02145e-10 1.76184e-12)
(-7.68236e-11 -4.77995e-10 2.53383e-11)
(-2.47393e-10 -5.66797e-10 6.75128e-11)
(-5.18805e-10 -6.71125e-10 1.38903e-10)
(-9.37786e-10 -7.92959e-10 2.53897e-10)
(-1.55837e-09 -9.31031e-10 4.28531e-10)
(-2.40277e-09 -1.07244e-09 6.69581e-10)
(-3.26784e-09 -1.17071e-09 9.22208e-10)
(2.73081e-11 -2.92042e-11 -3.29789e-12)
(7.80235e-11 -8.53405e-11 -9.53347e-12)
(1.20922e-10 -1.38549e-10 -1.51128e-11)
(1.55433e-10 -1.91501e-10 -2.00421e-11)
(1.80409e-10 -2.46498e-10 -2.41154e-11)
(1.93775e-10 -3.0558e-10 -2.67958e-11)
(1.92056e-10 -3.70651e-10 -2.70272e-11)
(1.69686e-10 -4.43566e-10 -2.29193e-11)
(1.17987e-10 -5.26198e-10 -1.12384e-11)
(2.36768e-11 -6.205e-10 1.33971e-11)
(-1.332e-10 -7.28564e-10 5.97197e-11)
(-3.81691e-10 -8.52464e-10 1.41447e-10)
(-7.61423e-10 -9.93746e-10 2.78866e-10)
(-1.31776e-09 -1.15129e-09 4.97994e-10)
(-2.06905e-09 -1.31467e-09 8.16532e-10)
(-2.84189e-09 -1.44221e-09 1.16344e-09)
(3.59658e-11 -3.53385e-11 -4.36966e-12)
(1.03075e-10 -1.03206e-10 -1.26795e-11)
(1.60821e-10 -1.67381e-10 -2.02649e-11)
(2.09173e-10 -2.30966e-10 -2.7258e-11)
(2.4761e-10 -2.96583e-10 -3.35735e-11)
(2.74904e-10 -3.66431e-10 -3.87993e-11)
(2.88858e-10 -4.42477e-10 -4.20297e-11)
(2.85952e-10 -5.26363e-10 -4.15523e-11)
(2.6087e-10 -6.19579e-10 -3.43612e-11)
(2.0582e-10 -7.23323e-10 -1.53115e-11)
(1.09607e-10 -8.38599e-10 2.42158e-11)
(-4.36943e-11 -9.66266e-10 9.83667e-11)
(-2.76398e-10 -1.10732e-09 2.29453e-10)
(-6.17784e-10 -1.26318e-09 4.49087e-10)
(-1.09174e-09 -1.4333e-09 7.85497e-10)
(-1.6139e-09 -1.58954e-09 1.17201e-09)
(4.49024e-11 -4.00122e-11 -5.48878e-12)
(1.29054e-10 -1.1681e-10 -1.5983e-11)
(2.02601e-10 -1.8922e-10 -2.57388e-11)
(2.66303e-10 -2.60624e-10 -3.50675e-11)
(3.20597e-10 -3.33757e-10 -4.40774e-11)
(3.65547e-10 -4.10835e-10 -5.26037e-11)
(4.00871e-10 -4.93561e-10 -6.00748e-11)
(4.26028e-10 -5.83183e-10 -6.52919e-11)
(4.40406e-10 -6.80302e-10 -6.60239e-11)
(4.4366e-10 -7.84855e-10 -5.83542e-11)
(4.36167e-10 -8.95916e-10 -3.55641e-11)
(4.19277e-10 -1.01181e-09 1.36693e-11)
(3.94099e-10 -1.13088e-09 1.07974e-10)
(3.5572e-10 -1.25364e-09 2.76012e-10)
(2.79681e-10 -1.38518e-09 5.50257e-10)
(1.31402e-10 -1.51708e-09 8.9156e-10)
(5.3884e-11 -4.30992e-11 -6.62343e-12)
(1.55248e-10 -1.25754e-10 -1.93465e-11)
(2.44976e-10 -2.03473e-10 -3.13557e-11)
(3.24757e-10 -2.79729e-10 -4.31733e-11)
(3.96111e-10 -3.57222e-10 -5.51461e-11)
(4.60529e-10 -4.38009e-10 -6.74221e-11)
(5.19766e-10 -5.23429e-10 -7.98782e-11)
(5.76305e-10 -6.14053e-10 -9.19982e-11)
(6.341e-10 -7.09465e-10 -1.02646e-10)
(6.99728e-10 -8.07967e-10 -1.09697e-10)
(7.83995e-10 -9.06191e-10 -1.09445e-10)
(9.03773e-10 -9.98943e-10 -9.57255e-11)
(1.08271e-09 -1.07963e-09 -5.8661e-11)
(1.34593e-09 -1.14302e-09 1.67052e-11)
(1.69286e-09 -1.19262e-09 1.49178e-10)
(2.00429e-09 -1.24493e-09 3.30867e-10)
(6.26141e-11 -4.45293e-11 -7.73303e-12)
(1.80749e-10 -1.29866e-10 -2.26421e-11)
(2.86337e-10 -2.09908e-10 -3.68814e-11)
(3.8198e-10 -2.88051e-10 -5.11878e-11)
(4.70216e-10 -3.66885e-10 -6.61568e-11)
(5.538e-10 -4.48171e-10 -8.2251e-11)
(6.36163e-10 -5.32826e-10 -9.98012e-11)
(7.2209e-10 -6.20732e-10 -1.1897e-10)
(8.18714e-10 -7.10443e-10 -1.39686e-10)
(9.36931e-10 -7.98726e-10 -1.61545e-10)
(1.09328e-09 -8.80008e-10 -1.83725e-10)
(1.31202e-09 -9.45785e-10 -2.0505e-10)
(1.62654e-09 -9.84593e-10 -2.24713e-10)
(2.07678e-09 -9.84428e-10 -2.4504e-10)
(2.6895e-09 -9.43395e-10 -2.78781e-10)
(3.36033e-09 -8.97662e-10 -3.52293e-10)
(3.83544e-12 -4.85164e-12 -4.53768e-13)
(1.0887e-11 -1.41991e-11 -1.30918e-12)
(1.6626e-11 -2.31294e-11 -2.06682e-12)
(2.08017e-11 -3.21346e-11 -2.72065e-12)
(2.3008e-11 -4.16573e-11 -3.2314e-12)
(2.257e-11 -5.21198e-11 -3.50675e-12)
(1.83813e-11 -6.39477e-11 -3.37023e-12)
(8.66109e-12 -7.76013e-11 -2.51343e-12)
(-9.41671e-12 -9.35924e-11 -4.25357e-13)
(-4.02651e-11 -1.12528e-10 3.69594e-12)
(-9.06299e-11 -1.35168e-10 1.10181e-11)
(-1.70444e-10 -1.62582e-10 2.30222e-11)
(-2.93306e-10 -1.96636e-10 4.1017e-11)
(-4.74566e-10 -2.41286e-10 6.45587e-11)
(-7.1899e-10 -3.04375e-10 8.79286e-11)
(-9.65533e-10 -3.86169e-10 9.75206e-11)
(1.16096e-11 -1.43101e-11 -1.37317e-12)
(3.29997e-11 -4.18803e-11 -3.96727e-12)
(5.05534e-11 -6.82027e-11 -6.28119e-12)
(6.36165e-11 -9.47162e-11 -8.31023e-12)
(7.11118e-11 -1.22704e-10 -9.95542e-12)
(7.12374e-11 -1.53375e-10 -1.09691e-11)
(6.10416e-11 -1.8794e-10 -1.08681e-11)
(3.57905e-11 -2.2768e-10 -8.79597e-12)
(-1.19787e-11 -2.73994e-10 -3.3127e-12)
(-9.38239e-11 -3.28483e-10 7.8881e-12)
(-2.2717e-10 -3.9298e-10 2.82925e-11)
(-4.37043e-10 -4.69684e-10 6.26646e-11)
(-7.5575e-10 -5.61297e-10 1.1628e-10)
(-1.21365e-09 -6.71171e-10 1.91721e-10)
(-1.79932e-09 -8.01098e-10 2.80424e-10)
(-2.32962e-09 -9.2949e-10 3.47484e-10)
(1.9714e-11 -2.31304e-11 -2.33121e-12)
(5.6169e-11 -6.76691e-11 -6.75014e-12)
(8.65115e-11 -1.10134e-10 -1.07409e-11)
(1.09954e-10 -1.528e-10 -1.43361e-11)
(1.25128e-10 -1.97677e-10 -1.74296e-11)
(1.29694e-10 -2.46619e-10 -1.96994e-11)
(1.19812e-10 -3.01448e-10 -2.04843e-11)
(8.93687e-11 -3.63986e-10 -1.85735e-11)
(2.88522e-11 -4.36181e-10 -1.18835e-11)
(-7.62005e-11 -5.20039e-10 3.04461e-12)
(-2.47066e-10 -6.17631e-10 3.1698e-11)
(-5.13112e-10 -7.30692e-10 8.22565e-11)
(-9.09278e-10 -8.59641e-10 1.65515e-10)
(-1.4599e-09 -1.00052e-09 2.91843e-10)
(-2.12355e-09 -1.13702e-09 4.58889e-10)
(-2.65745e-09 -1.22563e-09 6.13647e-10)
(2.82647e-11 -3.09385e-11 -3.34148e-12)
(8.07715e-11 -9.04779e-11 -9.70347e-12)
(1.25238e-10 -1.47127e-10 -1.55374e-11)
(1.61105e-10 -2.03848e-10 -2.09641e-11)
(1.87216e-10 -2.63204e-10 -2.59432e-11)
(2.01461e-10 -3.27507e-10 -3.01937e-11)
(2.00334e-10 -3.98899e-10 -3.30574e-11)
(1.78312e-10 -4.79449e-10 -3.32667e-11)
(1.27005e-10 -5.7111e-10 -2.8545e-11)
(3.40683e-11 -6.75727e-10 -1.49709e-11)
(-1.17935e-10 -7.94735e-10 1.40151e-11)
(-3.51892e-10 -9.28708e-10 6.8905e-11)
(-6.92868e-10 -1.076e-09 1.6513e-10)
(-1.15314e-09 -1.22958e-09 3.20838e-10)
(-1.6862e-09 -1.3701e-09 5.41104e-10)
(-2.08773e-09 -1.45586e-09 7.58598e-10)
(3.72524e-11 -3.74332e-11 -4.40309e-12)
(1.06791e-10 -1.0942e-10 -1.28259e-11)
(1.66729e-10 -1.77743e-10 -2.06723e-11)
(2.17101e-10 -2.45861e-10 -2.82048e-11)
(2.57444e-10 -3.16703e-10 -3.55243e-11)
(2.86594e-10 -3.92803e-10 -4.25111e-11)
(3.02481e-10 -4.76362e-10 -4.87063e-11)
(3.01887e-10 -5.69295e-10 -5.31071e-11)
(2.8022e-10 -6.73124e-10 -5.37891e-11)
(2.31355e-10 -7.88815e-10 -4.72612e-11)
(1.47707e-10 -9.16454e-10 -2.73833e-11)
(2.09469e-11 -1.05464e-09 1.63063e-11)
(-1.5572e-10 -1.19954e-09 1.0053e-10)
(-3.80894e-10 -1.34309e-09 2.47808e-10)
(-6.25854e-10 -1.46867e-09 4.71655e-10)
(-7.92626e-10 -1.54293e-09 7.08451e-10)
(4.65373e-11 -4.23875e-11 -5.49939e-12)
(1.33801e-10 -1.23836e-10 -1.60652e-11)
(2.10223e-10 -2.00934e-10 -2.6052e-11)
(2.76704e-10 -2.77436e-10 -3.59046e-11)
(3.33825e-10 -3.56443e-10 -4.59273e-11)
(3.8184e-10 -4.4049e-10 -5.62542e-11)
(4.20782e-10 -5.31604e-10 -6.67847e-11)
(4.5071e-10 -6.31211e-10 -7.70414e-11)
(4.72211e-10 -7.39997e-10 -8.59125e-11)
(4.87319e-10 -8.57525e-10 -9.11662e-11)
(5.01052e-10 -9.81706e-10 -8.85954e-11)
(5.23484e-10 -1.10802e-09 -7.05663e-11)
(5.71425e-10 -1.22852e-09 -2.39019e-11)
(6.65865e-10 -1.33075e-09 7.15044e-11)
(8.15816e-10 -1.39662e-09 2.34487e-10)
(9.74118e-10 -1.40691e-09 4.27402e-10)
(5.58722e-11 -4.56538e-11 -6.59973e-12)
(1.61041e-10 -1.33315e-10 -1.93278e-11)
(2.54351e-10 -2.16067e-10 -3.15031e-11)
(3.37706e-10 -2.97776e-10 -4.37764e-11)
(4.12861e-10 -3.8155e-10 -5.66857e-11)
(4.81623e-10 -4.69749e-10 -7.06651e-11)
(5.46238e-10 -5.64033e-10 -8.60433e-11)
(6.10046e-10 -6.65177e-10 -1.02993e-10)
(6.78576e-10 -7.72777e-10 -1.21426e-10)
(7.61316e-10 -8.84719e-10 -1.40772e-10)
(8.74403e-10 -9.9635e-10 -1.59585e-10)
(1.04419e-09 -1.09925e-09 -1.74841e-10)
(1.31015e-09 -1.1797e-09 -1.80861e-10)
(1.72018e-09 -1.21708e-09 -1.68037e-10)
(2.29186e-09 -1.1857e-09 -1.23632e-10)
(2.86358e-09 -1.08316e-09 -4.99511e-11)
(6.49431e-11 -4.71647e-11 -7.66561e-12)
(1.87553e-10 -1.37675e-10 -2.24935e-11)
(2.97405e-10 -2.22894e-10 -3.68055e-11)
(3.97386e-10 -3.06659e-10 -5.14579e-11)
(4.90353e-10 -3.91908e-10 -6.72141e-11)
(5.79466e-10 -4.80767e-10 -8.48016e-11)
(6.68775e-10 -5.74425e-10 -1.04951e-10)
(7.64078e-10 -6.7296e-10 -1.28434e-10)
(8.74258e-10 -7.74919e-10 -1.5608e-10)
(1.01329e-09 -8.76651e-10 -1.88785e-10)
(1.20309e-09 -9.71259e-10 -2.27492e-10)
(1.47714e-09 -1.04713e-09 -2.73226e-10)
(1.88382e-09 -1.08585e-09 -3.27308e-10)
(2.48416e-09 -1.06027e-09 -3.92179e-10)
(3.32058e-09 -9.37648e-10 -4.72362e-10)
(4.24282e-09 -7.22516e-10 -5.64596e-10)
(3.94033e-12 -5.1144e-12 -4.44671e-13)
(1.11819e-11 -1.49805e-11 -1.29051e-12)
(1.70671e-11 -2.44399e-11 -2.0639e-12)
(2.13301e-11 -3.40346e-11 -2.77956e-12)
(2.35412e-11 -4.42537e-11 -3.43047e-12)
(2.29881e-11 -5.55657e-11 -3.97748e-12)
(1.85138e-11 -6.84482e-11 -4.33305e-12)
(8.27793e-12 -8.34038e-11 -4.33572e-12)
(-1.05845e-11 -1.00986e-10 -3.71711e-12)
(-4.24299e-11 -1.21803e-10 -2.06847e-12)
(-9.36542e-11 -1.46552e-10 1.1557e-12)
(-1.73128e-10 -1.76105e-10 6.49701e-12)
(-2.91872e-10 -2.11823e-10 1.39959e-11)
(-4.60264e-10 -2.5642e-10 2.20087e-11)
(-6.77433e-10 -3.14762e-10 2.55506e-11)
(-8.91067e-10 -3.83521e-10 1.87674e-11)
(1.19309e-11 -1.50863e-11 -1.34319e-12)
(3.39069e-11 -4.41823e-11 -3.9021e-12)
(5.19203e-11 -7.20675e-11 -6.25491e-12)
(6.52792e-11 -1.00319e-10 -8.45599e-12)
(7.28435e-11 -1.30357e-10 -1.04993e-11)
(7.27129e-11 -1.63533e-10 -1.22912e-11)
(6.18026e-11 -2.01204e-10 -1.36051e-11)
(3.52302e-11 -2.44782e-10 -1.40106e-11)
(-1.45515e-11 -2.95781e-10 -1.27737e-11)
(-9.88876e-11 -3.55799e-10 -8.73876e-12)
(-2.34144e-10 -4.26497e-10 -2.71842e-13)
(-4.42207e-10 -5.09447e-10 1.45194e-11)
(-7.47881e-10 -6.05917e-10 3.67582e-11)
(-1.16705e-09 -7.16147e-10 6.41194e-11)
(-1.67167e-09 -8.35957e-10 8.64637e-11)
(-2.10249e-09 -9.39174e-10 8.76094e-11)
(2.02719e-11 -2.43827e-11 -2.27227e-12)
(5.77516e-11 -7.13917e-11 -6.6134e-12)
(8.89271e-11 -1.16378e-10 -1.06422e-11)
(1.12966e-10 -1.61847e-10 -1.44825e-11)
(1.2842e-10 -2.10029e-10 -1.81712e-11)
(1.32826e-10 -2.63012e-10 -2.16248e-11)
(1.2218e-10 -3.22828e-10 -2.45777e-11)
(9.01998e-11 -3.91556e-10 -2.6485e-11)
(2.73381e-11 -4.71276e-10 -2.6361e-11)
(-8.04265e-11 -5.64054e-10 -2.25688e-11)
(-2.52616e-10 -6.7161e-10 -1.25865e-11)
(-5.13765e-10 -7.94707e-10 7.01056e-12)
(-8.87641e-10 -9.31564e-10 3.97515e-11)
(-1.37757e-09 -1.07429e-09 8.62873e-11)
(-1.91857e-09 -1.20153e-09 1.37573e-10)
(-2.30279e-09 -1.27079e-09 1.68024e-10)
(2.90852e-11 -3.26147e-11 -3.24221e-12)
(8.31148e-11 -9.54559e-11 -9.45789e-12)
(1.28867e-10 -1.55472e-10 -1.5294e-11)
(1.65755e-10 -2.15931e-10 -2.09837e-11)
(1.92556e-10 -2.79694e-10 -2.6665e-11)
(2.07055e-10 -3.49364e-10 -3.23532e-11)
(2.05614e-10 -4.27406e-10 -3.7888e-11)
(1.8261e-10 -5.16173e-10 -4.28319e-11)
(1.29764e-10 -6.17877e-10 -4.62978e-11)
(3.54725e-11 -7.34381e-10 -4.66686e-11)
(-1.154e-10 -8.66766e-10 -4.1208e-11)
(-3.3996e-10 -1.01434e-09 -2.56686e-11)
(-6.50752e-10 -1.17278e-09 5.51646e-12)
(-1.03767e-09 -1.33077e-09 5.67154e-11)
(-1.43087e-09 -1.46524e-09 1.22555e-10)
(-1.66647e-09 -1.54061e-09 1.72299e-10)
(3.83621e-11 -3.94616e-11 -4.25017e-12)
(1.0998e-10 -1.15438e-10 -1.24282e-11)
(1.71739e-10 -1.87829e-10 -2.02005e-11)
(2.23679e-10 -2.60455e-10 -2.79497e-11)
(2.6532e-10 -3.36605e-10 -3.59729e-11)
(2.9545e-10 -4.19156e-10 -4.4474e-11)
(3.11953e-10 -5.1071e-10 -5.35444e-11)
(3.11656e-10 -6.1352e-10 -6.30929e-11)
(2.90298e-10 -7.29439e-10 -7.27245e-11)
(2.42809e-10 -8.59546e-10 -8.14961e-11)
(1.64294e-10 -1.00356e-09 -8.75105e-11)
(5.23783e-11 -1.15881e-09 -8.73375e-11)
(-8.79871e-11 -1.31862e-09 -7.55891e-11)
(-2.36284e-10 -1.47048e-09 -4.61505e-11)
(-3.46846e-10 -1.59504e-09 7.81208e-13)
(-3.62442e-10 -1.66834e-09 4.16821e-11)
(4.79557e-11 -4.46818e-11 -5.27952e-12)
(1.37899e-10 -1.3065e-10 -1.54739e-11)
(2.16737e-10 -2.12343e-10 -2.52692e-11)
(2.85432e-10 -2.93934e-10 -3.5229e-11)
(3.44608e-10 -3.78912e-10 -4.585e-11)
(3.94557e-10 -4.70227e-10 -5.75922e-11)
(4.3539e-10 -5.70305e-10 -7.08986e-11)
(4.67382e-10 -6.81026e-10 -8.6204e-11)
(4.91694e-10 -8.03434e-10 -1.03904e-10)
(5.11724e-10 -9.37317e-10 -1.2427e-10)
(5.35414e-10 -1.08037e-09 -1.47241e-10)
(5.78609e-10 -1.22698e-09 -1.72026e-10)
(6.6819e-10 -1.36664e-09 -1.96545e-10)
(8.39229e-10 -1.48286e-09 -2.17162e-10)
(1.10869e-09 -1.55572e-09 -2.30422e-10)
(1.38964e-09 -1.57688e-09 -2.38412e-10)
(5.76057e-11 -4.81255e-11 -6.30262e-12)
(1.66073e-10 -1.40652e-10 -1.85078e-11)
(2.62423e-10 -2.28345e-10 -3.03407e-11)
(3.48682e-10 -3.1552e-10 -4.2557e-11)
(4.26722e-10 -4.0568e-10 -5.58673e-11)
(4.98476e-10 -5.01648e-10 -7.10081e-11)
(5.6639e-10 -6.05508e-10 -8.88053e-11)
(6.34181e-10 -7.18505e-10 -1.10259e-10)
(7.08157e-10 -8.40678e-10 -1.36633e-10)
(7.9938e-10 -9.70226e-10 -1.69558e-10)
(9.27036e-10 -1.10247e-09 -2.11132e-10)
(1.12296e-09 -1.22829e-09 -2.63998e-10)
(1.4354e-09 -1.33209e-09 -3.31299e-10)
(1.92295e-09 -1.39045e-09 -4.1605e-10)
(2.60584e-09 -1.37753e-09 -5.17344e-10)
(3.2853e-09 -1.30157e-09 -6.12198e-10)
(6.69836e-11 -4.97203e-11 -7.28455e-12)
(1.93497e-10 -1.45249e-10 -2.14219e-11)
(3.07e-10 -2.35572e-10 -3.52175e-11)
(4.10568e-10 -3.24951e-10 -4.96073e-11)
(5.07232e-10 -4.1678e-10 -6.55046e-11)
(6.00363e-10 -5.13593e-10 -8.38872e-11)
(6.94301e-10 -6.17046e-10 -1.05911e-10)
(7.95329e-10 -7.27691e-10 -1.3304e-10)
(9.13211e-10 -8.44542e-10 -1.6721e-10)
(1.06354e-09 -9.64325e-10 -2.11047e-10)
(1.27115e-09 -1.0803e-09 -2.68148e-10)
(1.57453e-09 -1.1805e-09 -3.43394e-10)
(2.02976e-09 -1.24541e-09 -4.43275e-10)
(2.70744e-09 -1.24663e-09 -5.75655e-10)
(3.65409e-09 -1.15378e-09 -7.45416e-10)
(4.69127e-09 -9.8425e-10 -9.24943e-10)
(4.02399e-12 -5.35734e-12 -4.124e-13)
(1.14142e-11 -1.57026e-11 -1.20316e-12)
(1.74027e-11 -2.56573e-11 -1.94678e-12)
(2.17039e-11 -3.58094e-11 -2.67476e-12)
(2.38558e-11 -4.66961e-11 -3.40895e-12)
(2.30969e-11 -5.88385e-11 -4.1607e-12)
(1.81972e-11 -7.27666e-11 -4.92942e-12)
(7.21836e-12 -8.90454e-11 -5.70276e-12)
(-1.28209e-11 -1.08276e-10 -6.46193e-12)
(-4.63752e-11 -1.31102e-10 -7.20684e-12)
(-9.98439e-11 -1.58189e-10 -8.03208e-12)
(-1.81872e-10 -1.90245e-10 -9.31749e-12)
(-3.02967e-10 -2.28213e-10 -1.21249e-11)
(-4.73217e-10 -2.73933e-10 -1.87694e-11)
(-6.93822e-10 -3.30928e-10 -3.26451e-11)
(-9.18048e-10 -3.95841e-10 -5.2493e-11)
(1.21883e-11 -1.58015e-11 -1.24355e-12)
(3.46232e-11 -4.63148e-11 -3.63134e-12)
(5.29666e-11 -7.56585e-11 -5.88589e-12)
(6.647e-11 -1.05554e-10 -8.1097e-12)
(7.39053e-11 -1.37564e-10 -1.03792e-11)
(7.32351e-11 -1.73187e-10 -1.2745e-11)
(6.1171e-11 -2.13946e-10 -1.52307e-11)
(3.25557e-11 -2.61433e-10 -1.7836e-11)
(-2.04804e-11 -3.17319e-10 -2.05502e-11)
(-1.09562e-10 -3.83318e-10 -2.34139e-11)
(-2.51056e-10 -4.6101e-10 -2.66918e-11)
(-4.6619e-10 -5.51536e-10 -3.13062e-11)
(-7.78157e-10 -6.54991e-10 -3.97154e-11)
(-1.20138e-09 -7.69224e-10 -5.7108e-11)
(-1.71164e-09 -8.86375e-10 -9.06596e-11)
(-2.16271e-09 -9.79436e-10 -1.36004e-10)
(2.07206e-11 -2.55412e-11 -2.0975e-12)
(5.90105e-11 -7.48375e-11 -6.13322e-12)
(9.07958e-11 -1.22181e-10 -9.97076e-12)
(1.15168e-10 -1.70307e-10 -1.38049e-11)
(1.30554e-10 -2.21673e-10 -1.77972e-11)
(1.34295e-10 -2.78606e-10 -2.20831e-11)
(1.22091e-10 -3.43428e-10 -2.6782e-11)
(8.72643e-11 -4.18486e-10 -3.20068e-11)
(1.97939e-11 -5.06182e-10 -3.78972e-11)
(-9.47565e-11 -6.08767e-10 -4.46893e-11)
(-2.75959e-10 -7.27968e-10 -5.29033e-11)
(-5.47478e-10 -8.64001e-10 -6.37674e-11)
(-9.30864e-10 -1.01359e-09 -8.00578e-11)
(-1.42719e-09 -1.16589e-09 -1.07162e-10)
(-1.97578e-09 -1.29532e-09 -1.51873e-10)
(-2.38479e-09 -1.35782e-09 -2.06891e-10)
(2.97504e-11 -3.41638e-11 -2.98062e-12)
(8.49952e-11 -1.00064e-10 -8.73114e-12)
(1.31711e-10 -1.63234e-10 -1.42471e-11)
(1.69234e-10 -2.27242e-10 -1.98449e-11)
(1.96208e-10 -2.95255e-10 -2.58115e-11)
(2.102e-10 -3.70213e-10 -3.24302e-11)
(2.0724e-10 -4.54945e-10 -4.00101e-11)
(1.81253e-10 -5.52231e-10 -4.89282e-11)
(1.23413e-10 -6.64713e-10 -5.96912e-11)
(2.15937e-11 -7.94664e-10 -7.30395e-11)
(-1.39547e-10 -9.43331e-10 -9.01216e-11)
(-3.76544e-10 -1.10974e-09 -1.12807e-10)
(-7.00338e-10 -1.28838e-09 -1.44186e-10)
(-1.0999e-09 -1.4656e-09 -1.88986e-10)
(-1.5118e-09 -1.61528e-09 -2.51559e-10)
(-1.78764e-09 -1.69908e-09 -3.19607e-10)
(3.92687e-11 -4.13346e-11 -3.88905e-12)
(1.12563e-10 -1.21016e-10 -1.1414e-11)
(1.75716e-10 -1.97217e-10 -1.86968e-11)
(2.28711e-10 -2.74133e-10 -2.62036e-11)
(2.70951e-10 -3.55412e-10 -3.43854e-11)
(3.01023e-10 -4.44358e-10 -4.37316e-11)
(3.16495e-10 -5.44005e-10 -5.48319e-11)
(3.13754e-10 -6.5718e-10 -6.84723e-11)
(2.87986e-10 -7.8632e-10 -8.57586e-11)
(2.33533e-10 -9.33152e-10 -1.08306e-10)
(1.45033e-10 -1.09797e-09 -1.38485e-10)
(1.99755e-11 -1.2784e-09 -1.79712e-10)
(-1.36799e-10 -1.46764e-09 -2.3663e-10)
(-3.07023e-10 -1.65244e-09 -3.14444e-10)
(-4.54984e-10 -1.81208e-09 -4.14351e-10)
(-5.34694e-10 -1.91637e-09 -5.12307e-10)
(4.9123e-11 -4.68056e-11 -4.80775e-12)
(1.41249e-10 -1.36965e-10 -1.41343e-11)
(2.21973e-10 -2.22973e-10 -2.32341e-11)
(2.92239e-10 -3.09409e-10 -3.27397e-11)
(3.52592e-10 -4.00188e-10 -4.32909e-11)
(4.03168e-10 -4.98713e-10 -5.56151e-11)
(4.43819e-10 -6.07968e-10 -7.06373e-11)
(4.74441e-10 -7.30453e-10 -8.96285e-11)
(4.95697e-10 -8.68014e-10 -1.14429e-10)
(5.10378e-10 -1.02135e-09 -1.4776e-10)
(5.25752e-10 -1.18922e-09 -1.93654e-10)
(5.56761e-10 -1.36728e-09 -2.57935e-10)
(6.28376e-10 -1.54653e-09 -3.484e-10)
(7.70174e-10 -1.71249e-09 -4.73226e-10)
(9.86206e-10 -1.84654e-09 -6.3219e-10)
(1.18353e-09 -1.92865e-09 -7.83126e-10)
(5.90433e-11 -5.04132e-11 -5.71194e-12)
(1.70221e-10 -1.47456e-10 -1.68165e-11)
(2.68983e-10 -2.39793e-10 -2.77192e-11)
(3.57386e-10 -3.32171e-10 -3.92219e-11)
(4.37272e-10 -4.28569e-10 -5.21535e-11)
(5.1048e-10 -5.32276e-10 -6.74752e-11)
(5.7927e-10 -6.45985e-10 -8.64318e-11)
(6.47071e-10 -7.71661e-10 -1.10751e-10)
(7.19776e-10 -9.10247e-10 -1.42941e-10)
(8.07892e-10 -1.06112e-09 -1.86718e-10)
(9.29825e-10 -1.22115e-09 -2.47611e-10)
(1.11608e-09 -1.38344e-09 -3.33699e-10)
(1.41201e-09 -1.53588e-09 -4.56135e-10)
(1.86926e-09 -1.66082e-09 -6.2761e-10)
(2.49503e-09 -1.73914e-09 -8.50888e-10)
(3.08978e-09 -1.7643e-09 -1.06957e-09)
(6.8688e-11 -5.20826e-11 -6.57185e-12)
(1.98434e-10 -1.52284e-10 -1.93683e-11)
(3.14879e-10 -2.47395e-10 -3.19837e-11)
(4.21171e-10 -3.4215e-10 -4.53756e-11)
(5.20371e-10 -4.40385e-10 -6.05332e-11)
(6.15814e-10 -5.45162e-10 -7.8612e-11)
(7.11731e-10 -6.58735e-10 -1.01095e-10)
(8.14202e-10 -7.82409e-10 -1.30019e-10)
(9.32669e-10 -9.16172e-10 -1.68292e-10)
(1.08224e-09 -1.05804e-09 -2.20126e-10)
(1.28697e-09 -1.20309e-09 -2.91614e-10)
(1.58395e-09 -1.34209e-09 -3.91378e-10)
(2.02625e-09 -1.46019e-09 -5.30949e-10)
(2.67773e-09 -1.53754e-09 -7.23499e-10)
(3.57244e-09 -1.55729e-09 -9.74725e-10)
(4.52812e-09 -1.53148e-09 -1.23591e-09)
(4.08624e-12 -5.56903e-12 -3.55307e-13)
(1.15832e-11 -1.63347e-11 -1.04133e-12)
(1.76347e-11 -2.67252e-11 -1.70137e-12)
(2.19296e-11 -3.73743e-11 -2.37618e-12)
(2.39676e-11 -4.88652e-11 -3.10624e-12)
(2.29247e-11 -6.17683e-11 -3.93815e-12)
(1.74722e-11 -7.66753e-11 -4.935e-12)
(5.52101e-12 -9.42156e-11 -6.19445e-12)
(-1.61352e-11 -1.15068e-10 -7.88229e-12)
(-5.22796e-11 -1.39943e-10 -1.02939e-11)
(-1.09788e-10 -1.69551e-10 -1.39631e-11)
(-1.98035e-10 -2.04598e-10 -1.98382e-11)
(-3.28759e-10 -2.45956e-10 -2.94998e-11)
(-5.1429e-10 -2.95441e-10 -4.51766e-11)
(-7.59122e-10 -3.57026e-10 -6.8484e-11)
(-1.01422e-09 -4.28292e-10 -9.39767e-11)
(1.23801e-11 -1.64271e-11 -1.07002e-12)
(3.51483e-11 -4.81773e-11 -3.13786e-12)
(5.36966e-11 -7.88082e-11 -5.13389e-12)
(6.72079e-11 -1.10171e-10 -7.18512e-12)
(7.43437e-11 -1.43962e-10 -9.42006e-12)
(7.28883e-11 -1.81835e-10 -1.1989e-11)
(5.92715e-11 -2.25488e-10 -1.50966e-11)
(2.79019e-11 -2.76717e-10 -1.90564e-11)
(-2.97424e-11 -3.37427e-10 -2.43898e-11)
(-1.2624e-10 -4.09544e-10 -3.19969e-11)
(-2.79347e-10 -4.94818e-10 -4.34458e-11)
(-5.12361e-10 -5.94371e-10 -6.14025e-11)
(-8.51786e-10 -7.07979e-10 -9.00728e-11)
(-1.3175e-09 -8.32824e-10 -1.34876e-10)
(-1.89187e-09 -9.60337e-10 -1.9841e-10)
(-2.41844e-09 -1.06276e-09 -2.63493e-10)
(2.10584e-11 -2.6551e-11 -1.80006e-12)
(5.99419e-11 -7.78491e-11 -5.28478e-12)
(9.21217e-11 -1.27273e-10 -8.66591e-12)
(1.16587e-10 -1.7777e-10 -1.21716e-11)
(1.31602e-10 -2.32017e-10 -1.60378e-11)
(1.34237e-10 -2.92596e-10 -2.05478e-11)
(1.19764e-10 -3.62109e-10 -2.6089e-11)
(8.08347e-11 -4.43275e-10 -3.32506e-11)
(6.412e-12 -5.38875e-10 -4.29819e-11)
(-1.19453e-10 -6.51607e-10 -5.68549e-11)
(-3.18555e-10 -7.83538e-10 -7.74625e-11)
(-6.17856e-10 -9.35002e-10 -1.08933e-10)
(-1.04393e-09 -1.10227e-09 -1.57247e-10)
(-1.60529e-09 -1.27306e-09 -2.29105e-10)
(-2.24819e-09 -1.41885e-09 -3.25287e-10)
(-2.76104e-09 -1.49092e-09 -4.17409e-10)
(3.02555e-11 -3.55152e-11 -2.54939e-12)
(8.64034e-11 -1.04095e-10 -7.49493e-12)
(1.33769e-10 -1.70046e-10 -1.23245e-11)
(1.71571e-10 -2.37225e-10 -1.73859e-11)
(1.98261e-10 -3.09097e-10 -2.30484e-11)
(2.11079e-10 -3.88938e-10 -2.97644e-11)
(2.05528e-10 -4.7999e-10 -3.81596e-11)
(1.74696e-10 -5.8553e-10 -4.91772e-11)
(1.08459e-10 -7.08817e-10 -6.43042e-11)
(-7.28727e-12 -8.52814e-10 -8.59216e-11)
(-1.90888e-10 -1.01951e-09 -1.1779e-10)
(-4.63424e-10 -1.20848e-09 -1.65573e-10)
(-8.42743e-10 -1.41424e-09 -2.36866e-10)
(-1.32752e-09 -1.62183e-09 -3.39035e-10)
(-1.86206e-09 -1.8012e-09 -4.70019e-10)
(-2.27041e-09 -1.9054e-09 -5.9009e-10)
(3.99642e-11 -4.2972e-11 -3.31355e-12)
(1.14522e-10 -1.25893e-10 -9.75519e-12)
(1.78648e-10 -2.05463e-10 -1.60874e-11)
(2.32216e-10 -2.86214e-10 -2.27938e-11)
(2.7443e-10 -3.72167e-10 -3.03992e-11)
(3.03531e-10 -4.6703e-10 -3.95542e-11)
(3.16514e-10 -5.74373e-10 -5.11684e-11)
(3.08837e-10 -6.97655e-10 -6.66014e-11)
(2.74207e-10 -8.40169e-10 -8.79734e-11)
(2.04634e-10 -1.0047e-09 -1.18616e-10)
(9.1094e-11 -1.19282e-09 -1.63685e-10)
(-7.4696e-11 -1.40362e-09 -2.30753e-10)
(-2.96788e-10 -1.6315e-09 -3.29655e-10)
(-5.69234e-10 -1.86313e-09 -4.69246e-10)
(-8.65369e-10 -2.07338e-09 -6.44892e-10)
(-1.10484e-09 -2.21636e-09 -8.02555e-10)
(5.00278e-11 -4.86597e-11 -4.07931e-12)
(1.4382e-10 -1.42492e-10 -1.20256e-11)
(2.259e-10 -2.32312e-10 -1.98807e-11)
(2.97125e-10 -3.23092e-10 -2.82737e-11)
(3.57859e-10 -4.1916e-10 -3.78915e-11)
(4.07904e-10 -5.24402e-10 -4.95951e-11)
(4.46542e-10 -6.42398e-10 -6.45823e-11)
(4.72722e-10 -7.76455e-10 -8.46374e-11)
(4.85551e-10 -9.29469e-10 -1.12509e-10)
(4.85298e-10 -1.10359e-09 -1.52479e-10)
(4.7512e-10 -1.29957e-09 -2.11122e-10)
(4.63323e-10 -1.51567e-09 -2.98107e-10)
(4.64479e-10 -1.74608e-09 -4.26154e-10)
(4.93987e-10 -1.97877e-09 -6.07231e-10)
(5.46507e-10 -2.1914e-09 -8.36467e-10)
(5.69123e-10 -2.3385e-09 -1.04406e-09)
(6.01679e-11 -5.24117e-11 -4.82693e-12)
(1.73439e-10 -1.53414e-10 -1.42436e-11)
(2.7398e-10 -2.49856e-10 -2.35905e-11)
(3.6379e-10 -3.46915e-10 -3.36367e-11)
(4.44566e-10 -4.48995e-10 -4.52214e-11)
(5.17852e-10 -5.59934e-10 -5.93943e-11)
(5.85377e-10 -6.83075e-10 -7.75997e-11)
(6.49662e-10 -8.21275e-10 -1.0196e-10)
(7.15076e-10 -9.76721e-10 -1.35697e-10)
(7.89584e-10 -1.15055e-09 -1.83752e-10)
(8.87373e-10 -1.34221e-09 -2.5364e-10)
(1.03202e-09 -1.54861e-09 -3.56405e-10)
(1.25797e-09 -1.76307e-09 -5.06928e-10)
(1.60225e-09 -1.97429e-09 -7.20663e-10)
(2.06357e-09 -2.16368e-09 -9.96626e-10)
(2.48636e-09 -2.29233e-09 -1.25718e-09)
(7.00316e-11 -5.41507e-11 -5.53253e-12)
(2.02302e-10 -1.58442e-10 -1.63351e-11)
(3.20958e-10 -2.57799e-10 -2.70824e-11)
(4.29132e-10 -3.57374e-10 -3.86632e-11)
(5.29778e-10 -4.61478e-10 -5.20431e-11)
(6.25991e-10 -5.737e-10 -6.84063e-11)
(7.21534e-10 -6.96988e-10 -8.9354e-11)
(8.21663e-10 -8.33579e-10 -1.17182e-10)
(9.34405e-10 -9.84767e-10 -1.5528e-10)
(1.07248e-09 -1.15048e-09 -2.08693e-10)
(1.25594e-09 -1.32864e-09 -2.8484e-10)
(1.5153e-09 -1.51438e-09 -3.94232e-10)
(1.89323e-09 -1.69956e-09 -5.50597e-10)
(2.4393e-09 -1.87368e-09 -7.6837e-10)
(3.17697e-09 -2.0276e-09 -1.05031e-09)
(3.95887e-09 -2.14889e-09 -1.33458e-09)
(4.12874e-12 -5.73918e-12 -2.74378e-13)
(1.1696e-11 -1.68422e-11 -8.06895e-13)
(1.77779e-11 -2.75863e-11 -1.32833e-12)
(2.20383e-11 -3.8642e-11 -1.87832e-12)
(2.39361e-11 -5.06324e-11 -2.50157e-12)
(2.25804e-11 -6.4175e-11 -3.25714e-12)
(1.65325e-11 -7.9916e-11 -4.23347e-12)
(3.52335e-12 -9.85548e-11 -5.57374e-12)
(-1.99445e-11 -1.20851e-10 -7.51859e-12)
(-5.91231e-11 -1.47611e-10 -1.04748e-11)
(-1.21642e-10 -1.79653e-10 -1.51171e-11)
(-2.18076e-10 -2.1781e-10 -2.25098e-11)
(-3.62024e-10 -2.63164e-10 -3.41688e-11)
(-5.68361e-10 -3.18044e-10 -5.17769e-11)
(-8.43443e-10 -3.8762e-10 -7.56848e-11)
(-1.1316e-09 -4.69944e-10 -9.95039e-11)
(1.25123e-11 -1.69282e-11 -8.25335e-13)
(3.55005e-11 -4.96752e-11 -2.42867e-12)
(5.41542e-11 -8.13485e-11 -4.00237e-12)
(6.75832e-11 -1.13911e-10 -5.66846e-12)
(7.43329e-11 -1.49178e-10 -7.56501e-12)
(7.19948e-11 -1.88941e-10 -9.87476e-12)
(5.66804e-11 -2.35064e-10 -1.28706e-11)
(2.22758e-11 -2.89553e-10 -1.69918e-11)
(-4.05876e-11 -3.54562e-10 -2.29684e-11)
(-1.45854e-10 -4.32321e-10 -3.20192e-11)
(-3.1346e-10 -5.24894e-10 -4.613e-11)
(-5.70124e-10 -6.33735e-10 -6.83556e-11)
(-9.47419e-10 -7.58969e-10 -1.02858e-10)
(-1.4715e-09 -8.98278e-10 -1.53763e-10)
(-2.12733e-09 -1.04378e-09 -2.20376e-10)
(-2.73629e-09 -1.1655e-09 -2.82532e-10)
(2.12927e-11 -2.73618e-11 -1.38587e-12)
(6.0575e-11 -8.02711e-11 -4.08146e-12)
(9.2973e-11 -1.31381e-10 -6.73776e-12)
(1.17367e-10 -1.83819e-10 -9.56774e-12)
(1.31844e-10 -2.40457e-10 -1.2814e-11)
(1.33176e-10 -3.04098e-10 -1.67983e-11)
(1.1614e-10 -3.77633e-10 -2.19993e-11)
(7.25706e-11 -4.64122e-10 -2.91784e-11)
(-9.90297e-12 -5.66803e-10 -3.95822e-11)
(-1.49387e-10 -6.88892e-10 -5.52507e-11)
(-3.71112e-10 -8.33053e-10 -7.94253e-11)
(-7.0734e-10 -1.00015e-09 -1.16921e-10)
(-1.19218e-09 -1.18674e-09 -1.73922e-10)
(-1.84254e-09 -1.38009e-09 -2.55691e-10)
(-2.60537e-09 -1.54955e-09 -3.58622e-10)
(-3.23221e-09 -1.63966e-09 -4.49366e-10)
(3.06103e-11 -3.66013e-11 -1.95762e-12)
(8.73752e-11 -1.07335e-10 -5.77146e-12)
(1.35126e-10 -1.75544e-10 -9.54803e-12)
(1.72951e-10 -2.45324e-10 -1.36018e-11)
(1.99083e-10 -3.20399e-10 -1.82934e-11)
(2.1039e-10 -4.04357e-10 -2.4102e-11)
(2.01749e-10 -5.00831e-10 -3.17364e-11)
(1.65205e-10 -6.13604e-10 -4.23111e-11)
(8.89105e-11 -7.46593e-10 -5.76249e-11)
(-4.40486e-11 -9.03596e-10 -8.05695e-11)
(-2.56506e-10 -1.08758e-09 -1.15649e-10)
(-5.76448e-10 -1.29909e-09 -1.69383e-10)
(-1.03135e-09 -1.53317e-09 -2.49804e-10)
(-1.63004e-09 -1.77391e-09 -3.6298e-10)
(-2.31628e-09 -1.98696e-09 -5.02104e-10)
(-2.86657e-09 -2.11483e-09 -6.21389e-10)
(4.04585e-11 -4.42873e-11 -2.53663e-12)
(1.15895e-10 -1.29816e-10 -7.48706e-12)
(1.80631e-10 -2.12119e-10 -1.24123e-11)
(2.34407e-10 -2.96022e-10 -1.77372e-11)
(2.76189e-10 -3.85858e-10 -2.39498e-11)
(3.03806e-10 -4.85728e-10 -3.1698e-11)
(3.13549e-10 -5.99686e-10 -4.19325e-11)
(2.99685e-10 -7.31866e-10 -5.61334e-11)
(2.53928e-10 -8.86444e-10 -7.66587e-11)
(1.65009e-10 -1.06741e-09 -1.07257e-10)
(1.8596e-11 -1.27787e-09 -1.53709e-10)
(-2.01774e-10 -1.51865e-09 -2.24325e-10)
(-5.11537e-10 -1.78553e-09 -3.29281e-10)
(-9.16557e-10 -2.06455e-09 -4.76123e-10)
(-1.38911e-09 -2.3243e-09 -6.55615e-10)
(-1.79361e-09 -2.5021e-09 -8.08494e-10)
(5.06781e-11 -5.0148e-11 -3.1131e-12)
(1.45645e-10 -1.46941e-10 -9.19685e-12)
(2.28615e-10 -2.39857e-10 -1.52736e-11)
(3.00315e-10 -3.34208e-10 -2.18796e-11)
(3.60875e-10 -4.3468e-10 -2.96299e-11)
(4.09683e-10 -5.45609e-10 -3.93354e-11)
(4.45286e-10 -6.71156e-10 -5.21731e-11)
(4.65377e-10 -8.15425e-10 -6.99513e-11)
(4.66942e-10 -9.82437e-10 -9.55165e-11)
(4.46704e-10 -1.17592e-09 -1.33349e-10)
(4.02042e-10 -1.39881e-09 -1.90334e-10)