/*--------------------------------*- C++ -*----------------------------------*\
| =========                 |                                                 |
| \\      /  F ield         | foam-extend: Open Source CFD                    |
|  \\    /   O peration     | Version:     3.1                                |
|   \\  /    A nd           | Web:         http://www.extend-project.de       |
|    \\/     M anipulation  |                                                 |
\*---------------------------------------------------------------------------*/
FoamFile
{
    version     2.0;
    format      ascii;
    class       surfaceScalarField;
    location    "3.6";
    object      meshPhi;
}
// * * * * * * * * * * * * * * * * * * * * * * * * * * * * * * * * * * * * * //

dimensions      [0 3 -1 0 0 0 0];

internalField   nonuniform List<scalar> 
41600
(
1.40923e-09
2.4991e-10
6.33281e-12
-6.20357e-12
2.71161e-09
7.39234e-10
1.94271e-11
-1.90079e-11
3.89447e-09
1.21277e-09
3.41964e-11
-3.33807e-11
4.98623e-09
1.68757e-09
5.26061e-11
-5.11803e-11
6.00871e-09
2.18635e-09
7.72089e-11
-7.48064e-11
6.97652e-09
2.73055e-09
1.11338e-10
-1.07366e-10
7.89553e-09
3.34149e-09
1.59609e-10
-1.53135e-10
8.75985e-09
4.04122e-09
2.28611e-10
-2.18184e-10
9.54709e-09
4.85289e-09
3.27881e-10
-3.11271e-10
1.02115e-08
5.80021e-09
4.71311e-10
-4.45115e-10
1.06765e-08
6.90563e-09
6.79159e-10
-6.38178e-10
1.08302e-08
8.18609e-09
9.80782e-10
-9.16928e-10
1.05363e-08
9.64412e-09
1.41724e-09
-1.31744e-09
9.69374e-09
1.12451e-08
2.03694e-09
-1.87974e-09
8.40585e-09
1.28158e-08
2.83574e-09
-2.59622e-09
1.57422e-08
4.52313e-09
-5.37945e-09
4.20429e-09
4.88375e-10
1.85259e-11
-1.8138e-11
8.08926e-09
1.44429e-09
5.67776e-11
-5.55215e-11
1.16172e-08
2.36833e-09
9.98064e-11
-9.73675e-11
1.48733e-08
3.29305e-09
1.53295e-10
-1.49041e-10
1.79233e-08
4.26197e-09
2.24566e-10
-2.17414e-10
2.0812e-08
5.31579e-09
3.23107e-10
-3.11306e-10
2.35596e-08
6.49451e-09
4.61956e-10
-4.42751e-10
2.61534e-08
7.83898e-09
6.59555e-10
-6.2867e-10
2.85346e-08
9.39146e-09
9.42294e-10
-8.93171e-10
3.05793e-08
1.11941e-08
1.34802e-09
-1.2707e-09
3.20773e-08
1.32846e-08
1.93074e-09
-1.81013e-09
3.27176e-08
1.5686e-08
2.76604e-09
-2.57907e-09
3.21177e-08
1.83861e-08
3.95374e-09
-3.66408e-09
2.99852e-08
2.12907e-08
5.59798e-09
-5.14787e-09
2.65861e-08
2.40577e-08
7.65116e-09
-6.96976e-09
2.78517e-08
1.12942e-08
-1.26773e-08
6.93232e-09
7.05573e-10
2.91877e-11
-2.85434e-11
1.33364e-08
2.08594e-09
8.9321e-11
-8.72403e-11
1.91503e-08
3.4181e-09
1.56655e-10
-1.52631e-10
2.45155e-08
4.74762e-09
2.39928e-10
-2.32937e-10
2.95422e-08
6.13555e-09
3.50265e-10
-3.38556e-10
3.43085e-08
7.63814e-09
5.0188e-10
-4.8263e-10
3.88555e-08
9.30974e-09
7.1405e-10
-6.82821e-10
4.31766e-08
1.12048e-08
1.0136e-09
-9.6352e-10
4.71987e-08
1.33783e-08
1.43819e-09
-1.35874e-09
5.0756e-08
1.58833e-08
2.04049e-09
-1.91576e-09
5.35578e-08
1.87641e-08
2.89301e-09
-2.69911e-09
5.51645e-08
2.20411e-08
4.09175e-09
-3.79272e-09
5.50206e-08
2.56792e-08
5.75154e-09
-5.29259e-09
5.2676e-08
2.95259e-08
7.96551e-09
-7.26277e-09
4.84347e-08
3.31226e-08
1.06032e-08
-9.54721e-09
3.80463e-08
1.45391e-08
-1.53654e-08
9.55304e-09
8.92859e-10
3.74073e-11
-3.65126e-11
1.8375e-08
2.63857e-09
1.14254e-10
-1.11373e-10
2.63805e-08
4.32003e-09
1.9976e-10
-1.94216e-10
3.37659e-08
5.99252e-09
3.04719e-10
-2.95145e-10
4.06863e-08
7.73039e-09
4.4265e-10
-4.26709e-10
4.72564e-08
9.60085e-09
6.30504e-10
-6.04437e-10
5.35468e-08
1.16674e-08
8.9081e-10
-8.48718e-10
5.95728e-08
1.39919e-08
1.25424e-09
-1.18701e-09
6.52763e-08
1.66347e-08
1.76275e-09
-1.65646e-09
7.04976e-08
1.96521e-08
2.4732e-09
-2.30678e-09
7.49381e-08
2.30884e-08
3.4605e-09
-3.20234e-09
7.81285e-08
2.69584e-08
4.8177e-09
-4.42049e-09
7.94446e-08
3.12114e-08
6.64354e-09
-6.03626e-09
7.83143e-08
3.56577e-08
8.99041e-09
-8.06647e-09
7.48648e-08
3.97733e-08
1.16654e-08
-1.02785e-08
4.51705e-08
1.53943e-08
-1.5637e-08
1.20279e-08
1.04332e-09
4.25809e-11
-4.14452e-11
2.31305e-08
3.08187e-09
1.29747e-10
-1.26105e-10
3.31995e-08
5.0411e-09
2.25958e-10
-2.18993e-10
4.24834e-08
6.98244e-09
3.42894e-10
-3.30955e-10
5.1181e-08
8.98885e-09
4.94902e-10
-4.75173e-10
5.94456e-08
1.11336e-08
6.99515e-10
-6.6748e-10
6.73835e-08
1.34839e-08
9.79407e-10
-9.28006e-10
7.50468e-08
1.61023e-08
1.36458e-09
-1.28293e-09
8.24185e-08
1.90478e-08
1.89479e-09
-1.76625e-09
8.93893e-08
2.23725e-08
2.62171e-09
-2.42108e-09
9.57251e-08
2.61152e-08
3.61015e-09
-3.29934e-09
1.0103e-07
3.02861e-08
4.93532e-09
-4.45689e-09
1.04728e-07
3.48334e-08
6.66706e-09
-5.93414e-09
1.06169e-07
3.95632e-08
8.81883e-09
-7.70052e-09
1.05044e-07
4.39286e-08
1.11768e-08
-9.48727e-09
4.93506e-08
1.43663e-08
-1.3837e-08
1.43218e-08
1.15199e-09
4.44651e-11
-4.31018e-11
2.75352e-08
3.40132e-09
1.35101e-10
-1.30749e-10
3.95088e-08
5.55822e-09
2.34145e-10
-2.25882e-10
5.05381e-08
7.68672e-09
3.53028e-10
-3.3899e-10
6.08627e-08
9.87378e-09
5.05448e-10
-4.82466e-10
7.06731e-08
1.2194e-08
7.07586e-10
-6.706e-10
8.01133e-08
1.47129e-08
9.79615e-10
-9.20753e-10
8.92788e-08
1.74881e-08
1.34721e-09
-1.25439e-09
9.82083e-08
2.05703e-08
1.84286e-09
-1.69766e-09
1.0687e-07
2.40002e-08
2.50652e-09
-2.28093e-09
1.15142e-07
2.78043e-08
3.38477e-09
-3.03624e-09
1.22781e-07
3.19866e-08
4.5271e-09
-3.99048e-09
1.2938e-07
3.65065e-08
5.97167e-09
-5.14627e-09
1.34325e-07
4.12146e-08
7.70422e-09
-6.43405e-09
1.3677e-07
4.56302e-08
9.52407e-09
-7.5789e-09
5.09141e-08
1.20073e-08
-1.06773e-08
1.64043e-08
1.21587e-09
4.31695e-11
-4.15967e-11
3.15302e-08
3.5884e-09
1.30707e-10
-1.25709e-10
4.52224e-08
5.8584e-09
2.25186e-10
-2.15775e-10
5.78168e-08
8.0894e-09
3.36832e-10
-3.21005e-10
6.95875e-08
1.03681e-08
4.77506e-10
-4.51876e-10
8.07572e-08
1.27664e-08
6.60597e-10
-6.19789e-10
9.15034e-08
1.53437e-08
9.01946e-10
-8.37662e-10
1.01961e-07
1.81481e-08
1.22055e-09
-1.12016e-09
1.12223e-07
2.12157e-08
1.6387e-09
-1.48306e-09
1.22333e-07
2.45687e-08
2.18104e-09
-1.94121e-09
1.32284e-07
2.82113e-08
2.87203e-09
-2.50405e-09
1.42004e-07
3.21273e-08
3.73153e-09
-3.1677e-09
1.51316e-07
3.62757e-08
4.76463e-09
-3.8983e-09
1.59834e-07
4.05753e-08
5.93736e-09
-4.59621e-09
1.66481e-07
4.4771e-08
7.09678e-09
-5.00543e-09
5.02016e-08
8.82655e-09
-6.76318e-09
1.82495e-08
3.91088e-11
-3.7349e-11
1.23388e-09
3.50661e-08
1.17895e-10
-1.1233e-10
3.64023e-09
5.02694e-08
2.01607e-10
-1.91219e-10
5.93807e-09
6.42266e-08
2.98575e-10
-2.81299e-10
8.18794e-09
7.72381e-08
4.18048e-10
-3.90409e-10
1.04728e-08
8.95501e-08
5.69789e-10
-5.26326e-10
1.28585e-08
1.01364e-07
7.64444e-10
-6.96824e-10
1.53959e-08
1.12842e-07
1.01346e-09
-9.09156e-10
1.81203e-08
1.24111e-07
1.32819e-09
-1.16846e-09
2.10498e-08
1.35265e-07
1.71756e-09
-1.47454e-09
2.41817e-08
1.46363e-07
2.18394e-09
-1.8161e-09
2.74874e-08
1.57427e-07
2.71664e-09
-2.1615e-09
3.09049e-08
1.68407e-07
3.28098e-09
-2.44294e-09
3.43303e-08
1.79044e-07
3.79811e-09
-2.5276e-09
3.75926e-08
1.88359e-07
4.09256e-09
-2.15374e-09
4.03491e-08
4.87636e-09
-2.34676e-09
4.55666e-08
1.44116e-09
2.6379e-10
6.18894e-12
2.77408e-09
7.80839e-10
1.90043e-11
3.98691e-09
1.28286e-09
3.35141e-11
5.10988e-09
1.78898e-09
5.16873e-11
6.16638e-09
2.32441e-09
7.60841e-11
7.17237e-09
2.91326e-09
1.1005e-10
8.13481e-09
3.57992e-09
1.58201e-10
9.04852e-09
4.35001e-09
2.27065e-10
9.8913e-09
5.25099e-09
3.2592e-10
1.06173e-08
6.3117e-09
4.67873e-10
1.115e-08
7.56052e-09
6.71032e-10
1.13811e-08
9.02066e-09
9.59198e-10
1.11884e-08
1.06994e-08
1.35964e-09
1.05089e-08
1.25598e-08
1.88949e-09
9.52808e-09
1.44147e-08
2.50062e-09
1.67396e-08
3.5382e-09
4.29926e-09
5.15444e-10
1.81142e-11
8.27503e-09
1.5254e-09
5.55708e-11
1.18921e-08
2.50487e-09
9.78699e-11
1.5241e-08
3.49037e-09
1.50712e-10
1.8392e-08
4.5302e-09
2.21457e-10
2.13944e-08
5.67014e-09
3.19651e-10
2.42714e-08
6.95593e-09
4.58377e-10
2.70129e-08
8.43509e-09
6.55983e-10
2.95607e-08
1.01577e-08
9.38286e-10
3.17906e-08
1.21752e-08
1.34121e-09
3.34923e-08
1.45352e-08
1.91331e-09
3.43621e-08
1.72702e-08
2.71601e-09
3.40498e-08
2.0372e-08
3.81417e-09
3.23548e-08
2.37352e-08
5.23448e-09
2.97526e-08
2.69959e-08
6.82446e-09
3.00981e-08
9.02165e-09
7.08794e-09
7.44548e-10
2.85693e-11
1.36407e-08
2.20266e-09
8.75189e-11
1.96005e-08
3.6144e-09
1.53799e-10
2.51174e-08
5.03085e-09
2.36203e-10
3.03096e-08
6.51977e-09
3.45953e-10
3.52621e-08
8.14446e-09
4.97431e-10
4.00219e-08
9.96711e-09
7.10111e-10
4.45867e-08
1.20512e-08
1.01092e-09
4.8886e-08
1.4462e-08
1.4371e-09
5.27537e-08
1.72644e-08
2.03931e-09
5.58979e-08
2.05152e-08
2.88367e-09
5.78843e-08
2.42448e-08
4.04894e-09
5.81898e-08
2.84195e-08
5.60705e-09
5.6467e-08
3.28684e-08
7.55779e-09
5.32802e-08
3.71126e-08
9.65044e-09
4.12334e-08
1.20619e-08
9.76542e-09
9.41966e-10
3.66776e-11
1.87901e-08
2.78555e-09
1.12148e-10
2.69942e-08
4.56688e-09
1.96498e-10
3.45862e-08
6.34801e-09
3.00638e-10
4.17318e-08
8.21146e-09
4.38292e-10
4.85558e-08
1.02329e-08
6.26753e-10
5.51373e-08
1.24851e-08
8.89035e-10
6.14989e-08
1.50403e-08
1.25637e-09
6.75874e-08
1.79709e-08
1.77101e-09
7.32446e-08
2.13464e-08
2.48889e-09
7.81708e-08
2.52249e-08
3.48029e-09
8.18967e-08
2.96323e-08
4.82359e-09
8.38166e-08
3.45193e-08
6.57864e-09
8.34346e-08
3.96778e-08
8.711e-09
8.11115e-08
4.45686e-08
1.09153e-08
4.92721e-08
1.33545e-08
1.22919e-08
1.10042e-09
4.18562e-11
2.36462e-08
3.25263e-09
1.27693e-10
3.39613e-08
5.32748e-09
2.22902e-10
4.35007e-08
7.39402e-09
3.3938e-10
5.2477e-08
9.54431e-09
4.91817e-10
6.10559e-08
1.1861e-08
6.98325e-10
6.93554e-08
1.4421e-08
9.8246e-10
7.7438e-08
1.72984e-08
1.37544e-09
8.52953e-08
2.05643e-08
1.91844e-09
9.28235e-08
2.4285e-08
2.66427e-09
9.97896e-08
2.8514e-08
3.67684e-09
1.05795e-07
3.32754e-08
5.02356e-09
1.10263e-07
3.85239e-08
6.74744e-09
1.12568e-07
4.40545e-08
8.79426e-09
1.12529e-07
4.93068e-08
1.08527e-08
5.42788e-08
1.31659e-08
1.46312e-08
1.21468e-09
4.38674e-11
2.81391e-08
3.5887e-09
1.33466e-10
4.04e-08
5.87202e-09
2.31924e-10
5.17269e-08
8.13673e-09
3.51004e-10
6.23754e-08
1.04794e-08
5.04912e-10
7.2551e-08
1.29842e-08
7.10673e-10
8.24121e-08
1.57266e-08
9.89778e-10
9.20679e-08
1.87753e-08
1.36984e-09
1.0157e-07
2.21931e-08
1.88606e-09
1.10897e-07
2.60344e-08
2.58191e-09
1.19933e-07
3.03414e-08
3.50765e-09
1.28436e-07
3.51351e-08
4.71381e-09
1.35987e-07
4.03916e-08
6.22821e-09
1.41944e-07
4.59688e-08
7.99572e-09
1.45424e-07
5.13795e-08
9.73848e-09
5.65863e-08
1.18453e-08
1.67522e-08
1.28167e-09
4.2812e-11
3.22085e-08
3.78493e-09
1.2983e-10
4.62221e-08
6.18705e-09
2.24368e-10
5.91483e-08
8.55971e-09
3.37102e-10
7.12787e-08
1.09992e-08
4.80574e-10
8.28531e-08
1.35868e-08
6.69267e-10
9.40652e-08
1.63915e-08
9.20729e-10
1.05067e-07
1.94714e-08
1.25652e-09
1.15966e-07
2.28737e-08
1.70277e-09
1.26822e-07
2.66328e-08
2.28968e-09
1.37642e-07
3.07674e-08
3.04935e-09
1.4836e-07
3.52793e-08
4.01071e-09
1.58795e-07
4.01522e-08
5.1848e-09
1.68511e-07
4.53371e-08
6.52678e-09
1.76252e-07
5.06116e-08
7.83489e-09
5.6553e-08
9.73123e-09
1.86285e-08
3.9083e-11
1.30029e-09
3.58043e-08
1.18046e-10
3.83845e-09
5.13555e-08
2.02628e-10
6.26916e-09
6.56701e-08
3.01728e-10
8.66078e-09
7.9067e-08
4.25425e-10
1.11055e-08
9.18105e-08
5.84776e-10
1.36782e-08
1.04119e-07
7.92404e-10
1.64381e-08
1.16173e-07
1.06274e-09
1.94293e-08
1.28117e-07
1.41163e-09
2.26789e-08
1.4006e-07
1.85472e-09
2.6194e-08
1.5208e-07
2.40411e-09
2.99564e-08
1.64207e-07
3.06247e-09
3.3916e-08
1.76387e-07
3.81074e-09
3.7984e-08
1.88306e-07
4.58022e-09
4.20043e-08
1.9874e-07
5.17801e-09
4.56377e-08
6.69931e-09
5.16963e-08
1.4706e-09
2.76619e-10
5.75333e-12
2.83189e-09
8.19293e-10
1.76799e-11
4.0729e-09
1.34763e-09
3.12212e-11
5.22559e-09
1.88259e-09
4.82369e-11
6.31498e-09
2.45162e-09
7.11389e-11
7.35863e-09
3.08112e-09
1.03064e-10
8.36506e-09
3.79797e-09
1.48295e-10
9.33076e-09
4.63056e-09
2.12773e-10
1.02354e-08
5.60934e-09
3.04684e-10
1.1036e-08
6.7661e-09
4.35008e-10
1.1661e-08
8.13146e-09
6.17681e-10
1.20124e-08
9.72865e-09
8.68417e-10
1.19886e-08
1.15596e-08
1.19994e-09
1.15567e-08
1.35709e-08
1.60866e-09
1.08954e-08
1.55476e-08
2.04092e-09
1.85845e-08
2.719e-09
4.38684e-09
5.40467e-10
1.68467e-11
8.44695e-09
1.60038e-09
5.1722e-11
1.21478e-08
2.63105e-09
9.122e-11
1.55849e-08
3.67256e-09
1.40732e-10
1.88337e-08
4.77744e-09
2.07204e-10
2.1948e-08
5.99581e-09
2.99611e-10
2.49559e-08
7.37812e-09
4.30129e-10
2.7852e-08
8.97703e-09
6.15526e-10
3.0584e-08
1.0848e-08
8.78699e-10
3.30355e-08
1.30472e-08
1.24994e-09
3.50094e-08
1.56254e-08
1.76681e-09
3.62287e-08
1.86117e-08
2.46967e-09
3.63949e-08
2.19801e-08
3.38629e-09
3.53805e-08
2.55792e-08
4.49249e-09
3.36357e-08
2.89714e-08
5.62636e-09
3.2304e-08
7.01398e-09
7.23141e-09
7.80581e-10
2.65951e-11
1.39223e-08
2.31058e-09
8.15369e-11
2.0019e-08
3.79584e-09
1.43502e-10
2.56803e-08
5.29244e-09
2.20829e-10
3.10321e-08
6.87405e-09
3.2415e-10
3.61675e-08
8.61001e-09
4.67048e-10
4.11414e-08
1.0569e-08
6.67765e-10
4.59596e-08
1.28211e-08
9.51121e-10
5.05607e-08
1.54388e-08
1.35051e-09
5.47906e-08
1.84926e-08
1.90918e-09
5.83753e-08
2.20413e-08
2.679e-09
6.09138e-08
2.61064e-08
3.71173e-09
6.19443e-08
3.06211e-08
5.03295e-09
6.12017e-08
3.53363e-08
6.58244e-09
5.91991e-08
3.96558e-08
8.10684e-09
4.3655e-08
9.62034e-09
9.96113e-09
9.87363e-10
3.41945e-11
1.9174e-08
2.92143e-09
1.04647e-10
2.75645e-08
4.79505e-09
1.83656e-10
3.53526e-08
6.67639e-09
2.81612e-10
4.27151e-08
8.65517e-09
4.11589e-10
4.97875e-08
1.08143e-08
5.90045e-10
5.66598e-08
1.32342e-08
8.38756e-10
6.33663e-08
1.59948e-08
1.18689e-09
6.98662e-08
1.91764e-08
1.67299e-09
7.6016e-08
2.28544e-08
2.34586e-09
8.15359e-08
2.70875e-08
3.2621e-09
8.59876e-08
3.18887e-08
4.47432e-09
8.88168e-08
3.71643e-08
5.99856e-09
8.95884e-08
4.26055e-08
7.74592e-09
8.85851e-08
4.75277e-08
9.41547e-09
5.18646e-08
1.10308e-08
1.25349e-08
1.15319e-09
3.91087e-11
2.41226e-08
3.41049e-09
1.19426e-10
3.46685e-08
5.59222e-09
2.08853e-10
4.44502e-08
7.77427e-09
3.18789e-10
5.36939e-08
1.00568e-08
4.63339e-10
6.2579e-08
1.25303e-08
6.59928e-10
7.12371e-08
1.52801e-08
9.31172e-10
7.97454e-08
1.83884e-08
1.3068e-09
8.81112e-08
2.19342e-08
1.82528e-09
9.62481e-08
2.59898e-08
2.53432e-09
1.03944e-07
3.0609e-08
3.48774e-09
1.10823e-07
3.5802e-08
4.73361e-09
1.16341e-07
4.14764e-08
6.28136e-09
1.19886e-07
4.73188e-08
8.03496e-09
1.21169e-07
5.26043e-08
9.68939e-09
5.71015e-08
1.13642e-08
1.49158e-08
1.27264e-09
4.1116e-11
2.86965e-08
3.76193e-09
1.25232e-10
4.12264e-08
6.16214e-09
2.18072e-10
5.2835e-08
8.55257e-09
3.31004e-10
6.37936e-08
1.10383e-08
4.77818e-10
7.43233e-08
1.37117e-08
6.7514e-10
8.45989e-08
1.66566e-08
9.44036e-10
9.47467e-08
1.99498e-08
1.31152e-09
1.04837e-07
2.36617e-08
1.81171e-09
1.14868e-07
2.78526e-08
2.48586e-09
1.24747e-07
3.25654e-08
3.37947e-09
1.34248e-07
3.78096e-08
4.53293e-09
1.42961e-07
4.35211e-08
5.95472e-09
1.50208e-07
4.94579e-08
7.56444e-09
1.54945e-07
5.49637e-08
9.08951e-09
5.97452e-08
1.081e-08
1.70719e-08
1.3425e-09
4.03046e-11
3.28341e-08
3.96664e-09
1.22383e-10
4.71482e-08
6.49096e-09
2.1202e-10
6.03877e-08
8.99442e-09
3.1966e-10
7.28616e-08
1.15819e-08
4.57663e-10
8.48268e-08
1.43427e-08
6.40481e-10
9.6495e-08
1.73538e-08
8.85838e-10
1.08037e-07
2.06807e-08
1.21569e-09
1.19581e-07
2.43778e-08
1.65679e-09
1.3121e-07
2.84845e-08
2.24015e-09
1.42951e-07
3.30208e-08
2.99853e-09
1.54754e-07
3.79802e-08
3.96008e-09
1.66435e-07
4.33175e-08
5.13143e-09
1.77487e-07
4.89076e-08
6.46082e-09
1.86442e-07
5.43795e-08
7.75209e-09
6.01522e-08
9.55343e-09
1.89766e-08
3.70296e-11
1.36169e-09
3.64845e-08
1.1202e-10
4.02177e-09
5.23607e-08
1.92862e-10
6.57537e-09
6.70123e-08
2.88419e-10
9.09798e-09
8.07764e-08
4.0885e-10
1.169e-08
9.39354e-08
5.65557e-10
1.4434e-08
1.06726e-07
7.71899e-10
1.73963e-08
1.19349e-07
1.04357e-09
2.06277e-08
1.31968e-07
1.39848e-09
2.4161e-08
1.44716e-07
1.85548e-09
2.80073e-08
1.57691e-07
2.43138e-09
3.21487e-08
1.70937e-07
3.1351e-09
3.65275e-08
1.84388e-07
3.95491e-09
4.10318e-08
1.97649e-07
4.83137e-09
4.54486e-08
2.09276e-07
5.58565e-09
4.93246e-08
7.33493e-09
5.55219e-08
1.4968e-09
2.87989e-10
5.02775e-12
2.88346e-09
8.53367e-10
1.54584e-11
4.14989e-09
1.40497e-09
2.73241e-11
5.32969e-09
1.96537e-09
4.2264e-11
6.44951e-09
2.56385e-09
6.23952e-11
7.52858e-09
3.22869e-09
9.04488e-11
8.57727e-09
3.98869e-09
1.30101e-10
9.59422e-09
4.87423e-09
1.86333e-10
1.05619e-08
5.91764e-09
2.65758e-10
1.1441e-08
7.15225e-09
3.76733e-10
1.21661e-08
8.60949e-09
5.28852e-10
1.26478e-08
1.03125e-08
7.31002e-10
1.27958e-08
1.2263e-08
9.86661e-10
1.25811e-08
1.44126e-08
1.28475e-09
1.2142e-08
1.65585e-08
1.58216e-09
2.02481e-08
2.04133e-09
4.46472e-09
5.62644e-10
1.47276e-11
8.60023e-09
1.66682e-09
4.52409e-11
1.23766e-08
2.74279e-09
7.98681e-11
1.58942e-08
3.83368e-09
1.23368e-10
1.92334e-08
4.99559e-09
1.81847e-10
2.24527e-08
6.28219e-09
2.63136e-10
2.5586e-08
7.74753e-09
3.77718e-10
2.86341e-08
9.44789e-09
5.39708e-10
3.15528e-08
1.1442e-08
7.67697e-10
3.42365e-08
1.37883e-08
1.08488e-09
3.65039e-08
1.65372e-08
1.51722e-09
3.81013e-08
1.97137e-08
2.08722e-09
3.87572e-08
2.32818e-08
2.79928e-09
3.83483e-08
2.70787e-08
3.61235e-09
3.72064e-08
3.06617e-08
4.39608e-09
3.43872e-08
5.30584e-09
7.35892e-09
8.12516e-10
2.32681e-11
1.41731e-08
2.4062e-09
7.13788e-11
2.03933e-08
3.9565e-09
1.25758e-10
2.61861e-08
5.52379e-09
1.93784e-10
3.16853e-08
7.18672e-09
2.84833e-10
3.69921e-08
9.01955e-09
4.1081e-10
4.21702e-08
1.10958e-08
5.8751e-10
4.7236e-08
1.34905e-08
8.35991e-10
5.21404e-08
1.62797e-08
1.18364e-09
5.67456e-08
1.95361e-08
1.664e-09
6.08e-08
2.33156e-08
2.31336e-09
6.39318e-08
2.76279e-08
3.16021e-09
6.57102e-08
3.23806e-08
4.20129e-09
6.58607e-08
3.72861e-08
5.35947e-09
6.47179e-08
4.17194e-08
6.43011e-09
4.58647e-08
7.4076e-09
1.0135e-08
1.0276e-09
2.99546e-11
1.95158e-08
3.04183e-09
9.17313e-11
2.80741e-08
4.99713e-09
1.6118e-10
3.60407e-08
6.96688e-09
2.4753e-10
4.3603e-08
9.0469e-09
3.62363e-10
5.09073e-08
1.1326e-08
5.20203e-10
5.8056e-08
1.38902e-08
7.40075e-10
6.50968e-08
1.68251e-08
1.04702e-09
7.20055e-08
2.02148e-08
1.47314e-09
7.86584e-08
2.41359e-08
2.05708e-09
8.48005e-08
2.86413e-08
2.8395e-09
9.00227e-08
3.37254e-08
3.84988e-09
9.37937e-08
3.92547e-08
5.07696e-09
9.56493e-08
4.48604e-08
6.4194e-09
9.56593e-08
4.98121e-08
7.63139e-09
5.40742e-08
8.71391e-09
1.27507e-08
1.19997e-09
3.43225e-11
2.45466e-08
3.55038e-09
1.04887e-10
3.53e-08
5.82671e-09
1.83677e-10
4.53018e-08
8.11072e-09
2.80866e-10
5.47914e-08
1.05094e-08
4.09038e-10
6.39613e-08
1.31197e-08
5.8371e-10
7.29582e-08
1.60331e-08
8.24886e-10
8.18758e-08
1.93374e-08
1.15851e-09
9.07406e-08
2.31156e-08
1.61735e-09
9.9489e-08
2.74402e-08
2.24031e-09
1.07934e-07
3.23575e-08
3.06787e-09
1.15725e-07
3.78555e-08
4.12901e-09
1.22326e-07
4.37952e-08
5.41148e-09
1.27075e-07
4.97904e-08
6.81153e-09
1.29451e-07
5.50582e-08
8.07483e-09
5.93426e-08
9.27529e-09
1.51684e-08
1.324e-09
3.61775e-11
2.91922e-08
3.91546e-09
1.10283e-10
4.19637e-08
6.41915e-09
1.92344e-10
5.38278e-08
8.92062e-09
2.9258e-10
6.50706e-08
1.15321e-08
4.23405e-10
7.59288e-08
1.43527e-08
5.99806e-10
8.65938e-08
1.74724e-08
8.40731e-10
9.72109e-08
2.09737e-08
1.17029e-09
1.07872e-07
2.49304e-08
1.61841e-09
1.18599e-07
2.94027e-08
2.22019e-09
1.29325e-07
3.44258e-08
3.01207e-09
1.39844e-07
3.99877e-08
4.02177e-09
1.49744e-07
4.59788e-08
5.2436e-09
1.58275e-07
5.20844e-08
6.59361e-09
1.64148e-07
5.7583e-08
7.83874e-09
6.21263e-08
9.18506e-09
1.73554e-08
1.39643e-09
3.55919e-11
3.339e-08
4.12771e-09
1.08181e-10
4.79738e-08
6.76025e-09
1.87768e-10
6.14971e-08
9.3793e-09
2.83834e-10
7.42852e-08
1.20969e-08
4.0764e-10
8.66116e-08
1.50091e-08
5.72435e-10
9.87064e-08
1.81988e-08
7.94529e-10
1.1076e-07
2.17367e-08
1.09413e-09
1.22924e-07
2.56801e-08
1.49568e-09
1.35306e-07
3.00683e-08
2.02714e-09
1.47958e-07
3.49143e-08
2.71712e-09
1.60848e-07
4.01925e-08
3.5883e-09
1.73783e-07
4.58199e-08
4.64149e-09
1.86178e-07
5.16104e-08
5.82551e-09
1.96323e-07
5.71321e-08
6.96895e-09
6.27925e-08
8.52197e-09
1.92849e-08
3.28686e-11
1.41613e-09
3.70885e-08
9.95529e-11
4.1843e-09
5.3256e-08
1.71794e-10
6.84678e-09
6.82125e-08
2.57742e-10
9.48518e-09
8.23119e-08
3.66819e-10
1.2207e-08
9.58538e-08
5.09727e-10
1.51008e-08
1.09094e-07
6.99175e-10
1.82388e-08
1.22252e-07
9.50272e-10
2.16759e-08
1.35516e-07
1.28045e-09
2.54478e-08
1.49042e-07
1.70837e-09
2.95648e-08
1.6295e-07
2.25113e-09
3.40023e-08
1.77302e-07
2.91875e-09
3.86862e-08
1.9202e-07
3.70232e-09
4.34733e-08
2.06635e-07
4.55068e-09
4.81014e-08
2.1948e-07
5.30716e-09
5.20639e-08
6.97005e-09
5.83285e-08
1.51894e-09
2.97535e-10
4.03606e-12
2.92711e-09
8.81964e-10
1.24138e-11
4.21526e-09
1.45306e-09
2.19558e-11
5.41845e-09
2.03468e-09
3.39831e-11
6.56479e-09
2.65759e-09
5.01933e-11
7.67512e-09
3.3515e-09
7.27573e-11
8.76162e-09
4.14661e-09
1.04554e-10
9.82516e-09
5.07462e-09
1.49395e-10
1.0851e-08
6.16903e-09
2.1216e-10
1.18032e-08
7.46401e-09
2.98669e-10
1.26208e-08
8.99165e-09
4.14947e-10
1.32189e-08
1.07762e-08
5.65379e-10
1.35087e-08
1.2824e-08
7.49207e-10
1.34517e-08
1.5098e-08
9.55286e-10
1.31482e-08
1.74073e-08
1.15369e-09
2.15933e-08
1.46279e-09
4.53051e-09
5.81261e-10
1.18263e-11
8.72995e-09
1.72257e-09
3.63419e-11
1.25708e-08
2.83648e-09
6.41991e-11
1.61579e-08
3.96858e-09
9.92366e-11
1.95757e-08
5.17781e-09
1.46358e-10
2.28877e-08
6.52055e-09
2.11799e-10
2.6133e-08
8.05345e-09
3.03791e-10
2.9319e-08
9.8352e-09
4.33171e-10
3.24095e-08
1.19264e-08
6.13724e-10
3.53087e-08
1.43863e-08
8.61682e-10
3.78475e-08
1.72651e-08
1.1934e-09
3.97833e-08
2.05858e-08
1.61964e-09
4.08468e-08
2.43122e-08
2.13465e-09
4.0882e-08
2.82863e-08
2.69999e-09
4.01111e-08
3.207e-08
3.22391e-09
3.61555e-08
3.82072e-09
7.46658e-09
8.39324e-10
1.8696e-11
1.43853e-08
2.48644e-09
5.73764e-11
2.07108e-08
4.09123e-09
1.01161e-10
2.66168e-08
5.71751e-09
1.56012e-10
3.22442e-08
7.44794e-09
2.29478e-10
3.77018e-08
9.3605e-09
3.31075e-10
4.30621e-08
1.15322e-08
4.73266e-10
4.83516e-08
1.40412e-08
6.72328e-10
5.3534e-08
1.69656e-08
9.48752e-10
5.84863e-08
2.03779e-08
1.32628e-09
6.29737e-08
2.43307e-08
1.82802e-09
6.66389e-08
2.88258e-08
2.46712e-09
6.90475e-08
3.37583e-08
3.22881e-09
6.98677e-08
3.88294e-08
4.04462e-09
6.9268e-08
4.34073e-08
4.76816e-09
4.77649e-08
5.3984e-09
1.02817e-08
1.06137e-09
2.40928e-11
1.98048e-08
3.14288e-09
7.3814e-11
2.85062e-08
5.1666e-09
1.29804e-10
3.66262e-08
7.21018e-09
1.99544e-10
4.43619e-08
9.37426e-09
2.92396e-10
5.187e-08
1.17522e-08
4.20031e-10
5.92641e-08
1.4434e-08
5.97574e-10
6.66058e-08
1.75087e-08
8.44572e-10
7.38869e-08
2.1062e-08
1.18537e-09
8.10023e-08
2.51694e-08
1.64783e-09
8.77162e-08
2.9877e-08
2.25854e-09
9.36329e-08
3.51641e-08
3.0313e-09
9.82098e-08
4.08732e-08
3.94478e-09
1.00905e-07
4.66091e-08
4.91112e-09
1.01586e-07
5.16293e-08
5.75095e-09
5.59456e-08
6.46589e-09
1.29327e-08
1.23924e-09
2.76461e-11
2.49049e-08
3.6678e-09
8.45283e-11
3.5835e-08
6.0234e-09
1.48166e-10
4.6026e-08
8.39258e-09
2.26841e-10
5.57285e-08
1.08877e-08
3.30781e-10
6.51479e-08
1.36109e-08
4.72546e-10
7.44446e-08
1.66577e-08
6.682e-10
8.37287e-08
2.01193e-08
9.38271e-10
9.30454e-08
2.40803e-08
1.30807e-09
1.02352e-07
2.86104e-08
1.80639e-09
1.11481e-07
3.37471e-08
2.46088e-09
1.20095e-07
3.94586e-08
3.28665e-09
1.27637e-07
4.55745e-08
4.26342e-09
1.33353e-07
5.16721e-08
5.30189e-09
1.365e-07
5.69525e-08
6.21161e-09
6.11768e-08
7.04415e-09
1.53812e-08
1.36714e-09
2.91992e-11
2.96108e-08
4.04435e-09
8.90645e-11
4.25881e-08
6.63478e-09
1.55513e-10
5.46713e-08
9.22905e-09
2.36909e-10
6.616e-08
1.19451e-08
3.43414e-10
7.7305e-08
1.48872e-08
4.8728e-10
8.83135e-08
1.81497e-08
6.83917e-10
9.93487e-08
2.18183e-08
9.52744e-10
1.10523e-07
2.59678e-08
1.31743e-09
1.21882e-07
3.06552e-08
1.80486e-09
1.33377e-07
3.59057e-08
2.44136e-09
1.44814e-07
4.16868e-08
3.24386e-09
1.55757e-07
4.78558e-08
4.20057e-09
1.65357e-07
5.40587e-08
5.23919e-09
1.7209e-07
5.95559e-08
6.18009e-09
6.39956e-08
7.17221e-09
1.75942e-08
1.44172e-09
2.88073e-11
3.38591e-08
4.26296e-09
8.76228e-11
4.86723e-08
6.98624e-09
1.52294e-10
6.24388e-08
9.70194e-09
2.30636e-10
7.54983e-08
1.25279e-08
3.31955e-10
8.81395e-08
1.55652e-08
4.67218e-10
1.00609e-07
1.8901e-08
6.49921e-10
1.13117e-07
2.2609e-08
8.96714e-10
1.25836e-07
2.67471e-08
1.22753e-09
1.38896e-07
3.13512e-08
1.66473e-09
1.52371e-07
3.64246e-08
2.23038e-09
1.66239e-07
4.19225e-08
2.94047e-09
1.80285e-07
4.77322e-08
3.79219e-09
1.93833e-07
5.36325e-08
4.7415e-09
2.04937e-07
5.91753e-08
5.65249e-09
6.47882e-08
6.86963e-09
1.95447e-08
2.67083e-11
1.46186e-09
3.7598e-08
8.09671e-11
4.32079e-09
5.40132e-08
1.39957e-10
7.0746e-09
6.92305e-08
2.10464e-10
9.80988e-09
8.36191e-08
3.00373e-10
1.26397e-08
9.74939e-08
4.18699e-10
1.56577e-08
1.11128e-07
5.76208e-10
1.89396e-08
1.24759e-07
7.85744e-10
2.25433e-08
1.38597e-07
1.06214e-09
2.65046e-08
1.52821e-07
1.42123e-09
3.08305e-08
1.6757e-07
1.87746e-09
3.54873e-08
1.82917e-07
2.43914e-09
4.03834e-08
1.98764e-07
3.0988e-09
4.53498e-08
2.1456e-07
3.81465e-09
5.00933e-08
2.28432e-07
4.46024e-09
5.40889e-08
5.83684e-09
6.03886e-08
1.53627e-09
3.04958e-10
2.82343e-12
2.96135e-09
9.04193e-10
8.68599e-12
4.26665e-09
1.49042e-09
1.53681e-11
5.48843e-09
2.08844e-09
2.37951e-11
6.65603e-09
2.73013e-09
3.51503e-11
7.79162e-09
3.44622e-09
5.09357e-11
8.90897e-09
4.26786e-09
7.31183e-11
1.00108e-08
5.22762e-09
1.04253e-10
1.10846e-08
6.35968e-09
1.47514e-10
1.20971e-08
7.69881e-09
2.06506e-10
1.29895e-08
9.27787e-09
2.84632e-10
1.36783e-08
1.11232e-08
3.83767e-10
1.40714e-08
1.32464e-08
5.0209e-10
1.4118e-08
1.56212e-08
6.31454e-10
1.3893e-08
1.80619e-08
7.53513e-10
2.25994e-08
9.46306e-10
4.58203e-09
5.95735e-10
8.27489e-12
8.83167e-09
1.7659e-09
2.54346e-11
1.27234e-08
2.90925e-09
4.49484e-11
1.63656e-08
4.07321e-09
6.95071e-11
1.98464e-08
5.31882e-09
1.02532e-10
2.32333e-08
6.7044e-09
1.48345e-10
2.657e-08
8.28839e-09
2.1258e-10
2.98693e-08
1.01309e-08
3.02521e-10
3.31014e-08
1.22937e-08
4.27166e-10
3.61781e-08
1.48366e-08
5.96615e-10
3.89368e-08
1.78095e-08
8.20123e-10
4.11373e-08
2.12365e-08
1.10202e-09
4.24994e-08
2.50849e-08
1.43491e-09
4.28292e-08
2.92053e-08
1.79115e-09
4.22743e-08
3.31601e-08
2.11369e-09
3.75225e-08
2.47919e-09
7.55085e-09
8.60168e-10
1.30877e-11
1.45516e-08
2.54882e-09
4.01754e-11
2.09602e-08
4.19587e-09
7.08647e-11
2.69561e-08
5.86778e-09
1.09341e-10
3.26861e-08
7.65012e-09
1.60882e-10
3.82653e-08
9.62354e-09
2.32101e-10
4.37738e-08
1.18675e-08
3.31562e-10
4.92467e-08
1.44618e-08
4.70258e-10
5.4658e-08
1.74857e-08
6.61662e-10
5.98958e-08
2.10112e-08
9.20679e-10
6.47348e-08
2.50885e-08
1.26052e-09
6.88194e-08
2.97158e-08
1.68606e-09
7.16955e-08
3.47845e-08
2.18249e-09
7.29687e-08
3.9995e-08
2.7012e-09
7.26928e-08
4.47114e-08
3.14965e-09
4.92608e-08
3.52982e-09
1.03965e-08
1.08764e-09
1.6878e-11
2.00312e-08
3.22143e-09
5.17246e-11
2.88454e-08
5.29824e-09
9.10062e-11
3.70872e-08
7.39892e-09
1.39985e-10
4.49616e-08
9.6277e-09
2.05228e-10
5.26336e-08
1.20811e-08
2.94877e-10
6.0227e-08
1.48519e-08
4.19384e-10
6.78148e-08
1.8031e-08
5.92051e-10
7.54019e-08
2.17047e-08
8.29058e-10
8.28971e-08
2.59466e-08
1.14815e-09
9.00758e-08
3.07976e-08
1.5649e-09
9.65425e-08
3.62281e-08
2.08447e-09
1.01727e-07
4.20686e-08
2.68732e-09
1.05006e-07
4.79141e-08
3.31122e-09
1.06105e-07
5.30181e-08
3.84072e-09
5.74229e-08
4.27852e-09
1.30751e-08
1.26978e-09
1.93875e-11
2.51854e-08
3.75908e-09
5.92977e-11
3.62549e-08
6.17622e-09
1.04005e-10
4.65957e-08
8.6113e-09
1.59352e-10
5.64683e-08
1.11808e-08
2.3254e-10
6.60882e-08
1.39901e-08
3.32383e-10
7.56279e-08
1.71379e-08
4.70059e-10
8.52107e-08
2.07172e-08
6.59684e-10
9.48976e-08
2.48123e-08
9.18311e-10
1.04662e-07
2.94904e-08
1.26468e-09
1.14348e-07
3.47811e-08
1.71558e-09
1.23617e-07
4.06396e-08
2.27776e-09
1.31881e-07
4.68776e-08
2.93294e-09
1.38293e-07
5.30567e-08
3.61763e-09
1.41945e-07
5.83745e-08
4.20649e-09
6.26054e-08
4.73376e-09
1.55477e-08
1.40068e-09
2.05064e-11
2.99385e-08
4.14457e-09
6.25748e-11
4.30777e-08
6.80236e-09
1.09342e-10
5.53345e-08
9.46846e-09
1.66732e-10
6.70193e-08
1.22651e-08
2.41939e-10
7.83945e-08
1.53001e-08
3.43617e-10
8.96805e-08
1.86709e-08
4.82593e-10
1.01056e-07
2.24646e-08
6.7239e-10
1.12649e-07
2.67558e-08
9.29243e-10
1.24524e-07
3.15977e-08
1.27109e-09
1.36646e-07
3.70068e-08
1.71468e-09
1.48819e-07
4.29357e-08
2.26918e-09
1.60575e-07
4.92218e-08
2.92329e-09
1.70969e-07
5.54929e-08
3.62522e-09
1.78298e-07
6.1007e-08
4.25394e-09
6.54146e-08
4.9077e-09
1.77809e-08
1.47694e-09
2.02716e-11
3.42262e-08
4.36814e-09
6.16903e-11
4.92199e-08
7.1619e-09
1.07319e-10
6.31788e-08
9.95246e-09
1.62724e-10
7.64543e-08
1.2862e-08
2.34536e-10
8.93478e-08
1.59951e-08
3.3057e-10
1.0212e-07
1.94418e-08
4.60425e-10
1.14996e-07
2.32772e-08
6.3588e-10
1.28167e-07
2.75587e-08
8.70905e-10
1.41781e-07
3.23181e-08
1.18088e-09
1.55925e-07
3.75497e-08
1.5805e-09
1.70582e-07
4.31941e-08
2.07963e-09
1.85505e-07
4.91197e-08
2.67457e-09
1.99931e-07
5.50885e-08
3.3334e-09
2.11733e-07
6.06521e-08
3.9624e-09
6.62579e-08
4.79554e-09
1.97475e-08
1.8847e-11
1.49744e-09
3.79964e-08
5.71702e-11
4.42696e-09
5.46064e-08
9.89347e-11
7.25172e-09
7.003e-08
1.49007e-10
1.00621e-08
8.46485e-08
2.13053e-10
1.29753e-08
9.87898e-08
2.97575e-10
1.60884e-08
1.12741e-07
4.10352e-10
1.948e-08
1.26755e-07
5.60661e-10
2.32088e-08
1.4106e-07
7.59182e-10
2.731e-08
1.55852e-07
1.01724e-09
3.17866e-08
1.71286e-07
1.345e-09
3.65963e-08
1.87436e-07
1.74805e-09
4.16339e-08
2.04182e-07
2.22066e-09
4.67125e-08
2.20898e-07
2.73295e-09
5.15222e-08
2.35542e-07
3.19621e-09
5.55346e-08
4.16938e-09
6.18645e-08
1.5482e-09
3.10033e-10
1.45282e-12
2.98493e-09
9.19388e-10
4.47002e-12
4.30208e-09
1.51593e-09
7.91031e-12
5.53678e-09
2.12511e-09
1.22498e-11
6.71923e-09
2.77952e-09
1.80955e-11
7.87258e-09
3.51055e-09
2.62139e-11
9.01172e-09
4.34993e-09
3.76007e-11
1.01407e-08
5.33074e-09
5.35322e-11
1.12485e-08
6.48759e-09
7.55651e-11
1.23034e-08
7.85565e-09
1.05409e-10
1.32477e-08
9.46853e-09
1.44575e-10
1.39973e-08
1.13545e-08
1.93702e-10
1.44562e-08
1.35296e-08
2.5155e-10
1.45642e-08
1.59744e-08
3.13937e-10
1.43819e-08
1.8505e-08
3.72215e-10
2.32667e-08
4.65256e-10
4.61745e-09
6.05634e-10
4.25851e-12
8.90169e-09
1.79552e-09
1.30911e-11
1.28286e-08
2.95895e-09
2.31396e-11