/*--------------------------------*- C++ -*----------------------------------*\
| =========                 |                                                 |
| \\      /  F ield         | foam-extend: Open Source CFD                    |
|  \\    /   O peration     | Version:     3.1                                |
|   \\  /    A nd           | Web:         http://www.extend-project.de       |
|    \\/     M anipulation  |                                                 |
\*---------------------------------------------------------------------------*/
FoamFile
{
    version     2.0;
    format      ascii;
    class       volScalarField;
    location    "3.6";
    object      p;
}
// * * * * * * * * * * * * * * * * * * * * * * * * * * * * * * * * * * * * * //

dimensions      [0 2 -2 0 0 0 0];

internalField   nonuniform List<scalar> 
14592
(
0.0242193
0.0240294
0.0238423
0.0236734
0.0235294
0.0234148
0.0233335
0.0232878
0.0232757
0.0232883
0.0233047
0.0232849
0.0231583
0.0227987
0.0220196
0.0209034
0.0242394
0.0240318
0.0238451
0.0236822
0.0235433
0.0234325
0.0233535
0.0233089
0.0232972
0.0233102
0.0233278
0.0233109
0.0231908
0.0228382
0.0219973
0.0205798
0.0242314
0.0240084
0.0238171
0.0236544
0.0235155
0.0234034
0.0233228
0.0232773
0.023268
0.0232898
0.0233273
0.0233457
0.0232779
0.0229877
0.0221211
0.0203465
0.0241951
0.0239586
0.0237586
0.0235907
0.0234468
0.0233288
0.0232422
0.0231925
0.0231844
0.0232178
0.023284
0.0233562
0.0233751
0.0232061
0.0224182
0.0204103
0.0241302
0.0238827
0.0236729
0.0234967
0.0233445
0.023217
0.0231201
0.0230611
0.0230481
0.0230867
0.0231769
0.0233033
0.023422
0.0234179
0.0228228
0.020723
0.0240382
0.0237816
0.023562
0.0233757
0.0232121
0.0230711
0.0229583
0.0228818
0.0228521
0.0228787
0.0229706
0.0231242
0.0233196
0.0234761
0.0231512
0.0210987
0.0239231
0.0236594
0.0234307
0.0232329
0.023055
0.022896
0.0227606
0.0226562
0.0225932
0.0225819
0.0226353
0.0227548
0.0229477
0.0231697
0.0231429
0.0211689
0.0237918
0.0235232
0.0232864
0.0230764
0.022882
0.022701
0.0225365
0.0223939
0.0222815
0.022205
0.0221735
0.0221729
0.0222194
0.0222035
0.0223091
0.0194829
0.0244532
0.0242546
0.0240666
0.0239065
0.0237813
0.0236966
0.0236581
0.0236706
0.0237362
0.0238513
0.0240035
0.0241659
0.0242912
0.0242923
0.0240796
0.0238399
0.0244764
0.0242583
0.0240696
0.0239154
0.0237957
0.0237153
0.0236797
0.0236938
0.0237601
0.0238759
0.0240292
0.0241929
0.0243244
0.0243306
0.0241139
0.0239486
0.0244703
0.0242362
0.0240423
0.0238887
0.0237698
0.0236893
0.0236535
0.0236688
0.0237405
0.0238699
0.0240508
0.0242645
0.0244657
0.0245687
0.0244257
0.0243585
0.0244332
0.0241856
0.0239828
0.0238242
0.023701
0.0236159
0.0235761
0.0235905
0.0236683
0.0238173
0.0240407
0.0243303
0.0246587
0.0249308
0.0249405
0.0250233
0.0243641
0.0241054
0.0238923
0.0237252
0.0235939
0.0234999
0.0234513
0.023459
0.0235366
0.0236988
0.0239604
0.0243283
0.0247953
0.0252889
0.0255416
0.0257848
0.024264
0.0239961
0.0237726
0.0235944
0.0234508
0.0233427
0.0232779
0.0232684
0.0233305
0.0234841
0.0237544
0.0241639
0.0247322
0.0254243
0.0259178
0.0263425
0.0241377
0.0238623
0.0236286
0.0234373
0.0232775
0.0231489
0.0230587
0.0230177
0.0230423
0.0231523
0.0233769
0.0237443
0.0243001
0.0250553
0.0257139
0.0260314
0.0239926
0.0237117
0.0234688
0.0232631
0.0230836
0.0229289
0.0228041
0.0227176
0.0226821
0.022711
0.0228262
0.0230349
0.0233791
0.0238079
0.0243126
0.0226328
0.0246787
0.0244731
0.024286
0.0241361
0.0240308
0.0239768
0.0239815
0.0240518
0.0241929
0.0244054
0.0246824
0.0250042
0.0253331
0.0255993
0.025725
0.025752
0.0247048
0.0244784
0.0242894
0.0241455
0.0240461
0.0239969
0.024005
0.0240774
0.0242196
0.0244329
0.0247107
0.0250341
0.0253665
0.0256381
0.0257887
0.0259297
0.0247008
0.0244579
0.0242634
0.0241204
0.0240227
0.0239746
0.0239841
0.0240599
0.0242105
0.0244418
0.0247533
0.0251326
0.0255489
0.025931
0.0262027
0.0265181
0.0246632
0.024407
0.0242033
0.0240556
0.0239544
0.023903
0.0239106
0.0239887
0.0241504
0.0244088
0.0247743
0.0252469
0.0258081
0.0263795
0.0268446
0.0273757
0.0245902
0.0243229
0.0241087
0.0239522
0.023843
0.0237834
0.0237837
0.0238577
0.0240237
0.0243028
0.0247183
0.0252866
0.0260094
0.0268163
0.027528
0.0282656
0.0244827
0.024206
0.0239807
0.0238122
0.0236899
0.0236154
0.0235992
0.0236564
0.0238083
0.0240818
0.0245117
0.0251307
0.0259663
0.0269711
0.0278973
0.0287995
0.0243455
0.024061
0.0238246
0.0236415
0.0235009
0.0234036
0.023359
0.0233814
0.0234918
0.0237166
0.0240945
0.0246631
0.0254738
0.0265118
0.0274953
0.0281392
0.024187
0.0238964
0.0236496
0.0234499
0.0232867
0.0231592
0.0230747
0.0230443
0.0230847
0.0232141
0.0234618
0.0238405
0.0243926
0.0250333
0.0256703
0.0238121
0.0248855
0.0246745
0.0244895
0.0243501
0.0242642
0.0242395
0.0242845
0.024408
0.0246173
0.0249156
0.0252985
0.0257489
0.0262309
0.0266774
0.0269979
0.0271198
0.0249144
0.0246816
0.0244935
0.0243601
0.0242806
0.0242611
0.0243101
0.0244361
0.0246468
0.0249458
0.0253291
0.0257805
0.0262644
0.026716
0.0270679
0.0272978
0.0249123
0.0246628
0.024469
0.024337
0.0242598
0.0242426
0.0242946
0.0244261
0.0246478
0.0249683
0.0253899
0.0259011
0.0264736
0.0270374
0.0275205
0.0279315
0.0248745
0.0246117
0.0244087
0.0242722
0.0241923
0.0241731
0.0242251
0.0243618
0.0245989
0.0249528
0.0254366
0.0260517
0.0267767
0.0275319
0.0282111
0.0288455
0.0247982
0.0245243
0.0243104
0.024165
0.0240773
0.0240504
0.0240964
0.0242314
0.0244768
0.0248573
0.0253996
0.0261209
0.0270183
0.0280093
0.0289278
0.0297607
0.024684
0.0244006
0.024175
0.0240168
0.0239153
0.0238728
0.0239019
0.0240203
0.0242526
0.0246297
0.0251902
0.0259669
0.0269805
0.0281588
0.0292588
0.0302267
0.0245369
0.0242454
0.0240079
0.0238336
0.0237119
0.0236443
0.0236425
0.0237231
0.0239103
0.0242343
0.0247373
0.0254559
0.0264329
0.0276171
0.0287013
0.0293171
0.0243659
0.0240679
0.0238188
0.023626
0.0234789
0.0233774
0.0233307
0.0233521
0.0234606
0.0236774
0.0240337
0.0245391
0.0252251
0.0259641
0.0265958
0.0244327
0.0250641
0.0248495
0.0246666
0.0245369
0.0244685
0.0244696
0.0245496
0.0247186
0.0249851
0.0253536
0.0258203
0.0263678
0.0269575
0.0275183
0.0279492
0.0281032
0.0250953
0.0248576
0.0246713
0.0245477
0.0244859
0.0244926
0.024577
0.0247488
0.0250169
0.025386
0.0258526
0.0264004
0.026991
0.0275569
0.0280151
0.0282731
0.0250951
0.0248406
0.0246482
0.0245264
0.0244677
0.0244777
0.0245664
0.0247454
0.0250266
0.0254197
0.0259276
0.0265364
0.0272167
0.0278916
0.0284773
0.0289121
0.0250572
0.0247896
0.0245878
0.0244618
0.0244011
0.0244101
0.0245006
0.0246872
0.0249872
0.0254183
0.0259941
0.0267136
0.0275469
0.0284079
0.0291772
0.0298353
0.0249781
0.0246994
0.0244866
0.0243516
0.0242832
0.024285
0.0243705
0.0245574
0.0248687
0.0253308
0.0259705
0.0268017
0.027812
0.028905
0.0299134
0.0307456
0.0248581
0.0245699
0.0243449
0.0241964
0.0241135
0.0240991
0.0241674
0.0243378
0.0246368
0.025097
0.0257571
0.0266456
0.0277718
0.0290408
0.0302
0.0311486
0.0247025
0.0244059
0.0241683
0.0240024
0.0238978
0.0238564
0.0238915
0.0240214
0.0242725
0.024676
0.0252741
0.0260983
0.0271787
0.0284339
0.0295311
0.0300701
0.0245208
0.0242172
0.0239671
0.023781
0.0236485
0.02357
0.0235561
0.0236214
0.0237868
0.0240737
0.0245128
0.0251074
0.0258757
0.0266549
0.0272401
0.0248182
0.0252062
0.0249891
0.0248082
0.0246867
0.0246325
0.0246543
0.0247622
0.0249669
0.0252776
0.0256992
0.0262275
0.0268432
0.0275041
0.0281377
0.0286208
0.0287897
0.0252392
0.024998
0.0248136
0.0246983
0.0246509
0.0246786
0.0247912
0.0249989
0.0253112
0.0257332
0.0262612
0.0268761
0.0275378
0.0281733
0.0286855
0.0289506
0.0252405
0.0249826
0.0247918
0.0246785
0.0246349
0.0246667
0.0247847
0.0250009
0.0253279
0.0257755
0.0263455
0.0270203
0.027773
0.028513
0.0291477
0.0295843
0.0252025
0.0249317
0.0247315
0.0246143
0.0245692
0.0246009
0.0247219
0.0249475
0.0252958
0.0257846
0.0264269
0.0272204
0.0281199
0.0290393
0.0298477
0.0305028
0.0251213
0.0248394
0.024628
0.0245016
0.024449
0.0244739
0.0245907
0.0248181
0.0251799
0.0257026
0.0264121
0.0273179
0.0283976
0.029544
0.0305842
0.0314007
0.0249968
0.0247053
0.0244813
0.024341
0.0242733
0.0242815
0.0243808
0.0245917
0.0249417
0.0254634
0.0261943
0.0271578
0.0283523
0.0296664
0.0308388
0.0317569
0.0248344
0.0245343
0.0242971
0.0241384
0.0240478
0.0240275
0.0240917
0.0242602
0.0245599
0.0250223
0.0256879
0.0265826
0.027725
0.0290126
0.030095
0.0305674
0.0246442
0.0243367
0.0240862
0.023906
0.0237855
0.0237255
0.0237376
0.0238372
0.0240461
0.0243852
0.0248833
0.0255372
0.0263541
0.027146
0.0276826
0.0250714
0.025305
0.0250866
0.0249075
0.024792
0.0247481
0.0247845
0.0249119
0.0251412
0.0254822
0.0259395
0.0265083
0.0271673
0.0278696
0.028548
0.029055
0.0292274
0.0253393
0.0250963
0.0249137
0.0248046
0.0247678
0.0248106
0.024943
0.0251758
0.0255186
0.0259765
0.0265453
0.0272038
0.0279085
0.0285835
0.0291213
0.0293841
0.0253416
0.025082
0.0248929
0.0247861
0.0247535
0.024801
0.0249397
0.0251819
0.0255406
0.0260253
0.026637
0.0273577
0.028151
0.0289264
0.0295824
0.0300125
0.0253035
0.0250311
0.0248325
0.0247219
0.0246883
0.0247362
0.0248788
0.0251317
0.0255132
0.0260411
0.0267269
0.0275639
0.0285067
0.0294574
0.0302803
0.0309249
0.0252207
0.0249373
0.0247272
0.0246074
0.0245663
0.0246077
0.0247465
0.025002
0.0253984
0.025962
0.0267171
0.0276696
0.0287909
0.0299645
0.0310138
0.0318125
0.0250931
0.0247998
0.024577
0.0244428
0.0243862
0.0244105
0.0245315
0.0247704
0.0251552
0.0257182
0.0264952
0.0275057
0.0287403
0.0300766
0.0312473
0.0321387
0.024926
0.024624
0.0243875
0.0242342
0.0241538
0.0241484
0.0242331
0.0244282
0.024761
0.0252627
0.0259722
0.0269108
0.0280891
0.0293916
0.0304564
0.0308805
0.0247298
0.0244202
0.0241698
0.023994
0.0238824
0.0238356
0.0238658
0.0239893
0.0242277
0.0246017
0.0251382
0.0258292
0.0266737
0.0274683
0.0279665
0.0252335
0.0253542
0.0251348
0.0249562
0.0248433
0.024804
0.0248473
0.0249838
0.0252247
0.0255798
0.0260536
0.0266408
0.0273196
0.028043
0.028733
0.0292527
0.0294304
0.0253888
0.0251445
0.0249619
0.0248552
0.024823
0.0248724
0.0250138
0.025258
0.0256146
0.0260886
0.0266755
0.0273534
0.028077
0.0287679
0.0293177
0.0295842
0.0253917
0.025131
0.0249416
0.0248371
0.0248093
0.0248636
0.0250115
0.0252653
0.025638
0.026139
0.0267688
0.0275086
0.0283189
0.0291087
0.0297742
0.0302062
0.0253537
0.0250802
0.0248814
0.0247732
0.0247445
0.0247997
0.0249518
0.0252169
0.0256131
0.026158
0.0268624
0.0277181
0.0286777
0.02964
0.0304691
0.031113
0.0252703
0.0249859
0.0247756
0.0246582
0.0246221
0.0246709
0.0248196
0.0250878
0.0254995
0.0260809
0.0268555
0.0278275
0.0289649
0.0301482
0.0312023
0.031995
0.0251412
0.024847
0.0246239
0.024492
0.0244403
0.0244719
0.0246027
0.0248544
0.0252547
0.0258358
0.0266325
0.0276623
0.028912
0.030255
0.0314251
0.0323073
0.0249718
0.0246688
0.0244319
0.0242806
0.0242047
0.0242062
0.0243003
0.0245074
0.0248552
0.0253742
0.0261023
0.0270588
0.0282497
0.0295544
0.0306074
0.0310062
0.0247727
0.0244619
0.024211
0.0240368
0.023929
0.0238883
0.0239268
0.0240611
0.024313
0.0247025
0.0252554
0.0259616
0.0268147
0.0276055
0.0280594
0.0252692
0.0230622
0.0230054
0.0229027
0.0227677
0.0226108
0.0224353
0.0222407
0.0220222
0.0217677
0.0214597
0.0210748
0.0205811
0.019943
0.0191255
0.0180995
0.0168705
0.0230706
0.0230147
0.0229151
0.0227828
0.0226284
0.0224557
0.0222642
0.022048
0.021797
0.0214933
0.0211151
0.0206287
0.0199983
0.0191885
0.0181662
0.0169391
0.0230663
0.0230069
0.0229077
0.0227765
0.0226235
0.0224527
0.0222644
0.0220537
0.0218109
0.02152
0.0211546
0.0206869
0.020079
0.0192968
0.0183009
0.0171022
0.0230459
0.0229792
0.0228758
0.0227416
0.022586
0.0224134
0.0222246
0.0220158
0.0217777
0.0214948
0.0211438
0.0206958
0.0201136
0.019364
0.0184019
0.0172426
0.0230097
0.0229348
0.0228244
0.0226837
0.0225215
0.0223426
0.0221484
0.0219359
0.0216971
0.0214172
0.0210746
0.0206408
0.0200793
0.0193589
0.0184302
0.017312
0.0229596
0.0228774
0.0227594
0.0226106
0.0224395
0.0222512
0.0220476
0.0218269
0.0215818
0.021299
0.0209579
0.0205316
0.0199846
0.0192881
0.0183913
0.0173145
0.0228985
0.0228107
0.0226859
0.0225291
0.0223488
0.02215
0.0219353
0.0217034
0.0214483
0.0211577
0.0208125
0.0203874
0.0198492
0.0191713
0.0183051
0.0172701
0.02283
0.0227385
0.0226086
0.022445
0.0222565
0.022048
0.0218223
0.0215787
0.0213118
0.0210106
0.0206573
0.020229
0.0196948
0.0190311
0.0181944
0.0172013
0.0230814
0.0230084
0.0228953
0.022753
0.0225903
0.0224097
0.0222103
0.0219867
0.0217276
0.0214153
0.0210269
0.0205288
0.0198853
0.0190602
0.0180217
0.01678
0.023088
0.0230132
0.0229029
0.0227629
0.0226016
0.0224216
0.0222224
0.0219987
0.0217398
0.0214289
0.0210404
0.0205434
0.0199039
0.0190838
0.0180478
0.0168115
0.0230828
0.0230019
0.0228909
0.0227507
0.0225889
0.0224085
0.0222095
0.0219873
0.0217322
0.021428
0.0210507
0.0205714
0.0199485
0.0191532
0.0181406
0.016934
0.023063
0.0229733
0.0228576
0.0227136
0.0225479
0.0223638
0.0221619
0.0219388
0.0216856
0.0213871
0.0210205
0.0205569
0.0199576
0.0191932
0.0182109
0.0170423
0.0230281
0.0229298
0.0228075
0.0226573
0.0224849
0.0222938
0.0220852
0.0218569
0.021601
0.0213036
0.0209433
0.0204921
0.019912
0.0191756
0.0182246
0.0170964
0.022979
0.0228736
0.0227448
0.0225875
0.0224069
0.0222067
0.0219887
0.0217514
0.0214884
0.0211871
0.0208274
0.020383
0.0198169
0.0191047
0.0181854
0.0170993
0.0229182
0.0228079
0.0226734
0.0225093
0.0223206
0.0221108
0.0218822
0.0216341
0.0213612
0.021052
0.0206881
0.0202453
0.0196886
0.0189961
0.0181093
0.0170668
0.0228493
0.0227361
0.0225976
0.0224279
0.0222321
0.0220136
0.0217749
0.0215158
0.0212319
0.0209128
0.0205419
0.0200968
0.0195457
0.0188693
0.0180153
0.0170169
0.0231443
0.0230511
0.0229229
0.0227696
0.0225986
0.0224123
0.0222094
0.0219845
0.0217265
0.0214173
0.0210308
0.0205319
0.0198772
0.0190223
0.0179221
0.0165852
0.0231514
0.0230545
0.0229299
0.0227794
0.02261
0.022424
0.0222206
0.0219948
0.021736
0.0214264
0.02104
0.0205425
0.0198906
0.0190417
0.0179447
0.0166185
0.0231443
0.0230398
0.0229141
0.022763
0.0225921
0.0224042
0.0221991
0.0219728
0.0217156
0.021411
0.0210338
0.0205512
0.0199183
0.0190961
0.0180202
0.0167246
0.0231225
0.0230081
0.0228771
0.0227216
0.0225456
0.0223522
0.0221421
0.0219124
0.0216547
0.0213536
0.0209854
0.020518
0.0199062
0.0191137
0.0180644
0.0168076
0.0230859
0.0229624
0.0228248
0.0226629
0.0224796
0.0222778
0.0220591
0.0218218
0.021559
0.0212568
0.0208927
0.0204361
0.0198418
0.0190769
0.0180564
0.0168426
0.023035
0.0229043
0.0227605
0.0225919
0.0224003
0.0221888
0.0219594
0.0217114
0.0214393
0.0211309
0.0207654
0.0203142
0.0197329
0.0189929
0.018005
0.0168393
0.022972
0.0228363
0.0226875
0.0225127
0.0223134
0.0220922
0.0218515
0.0215915
0.0213079
0.0209899
0.0206185
0.0201677
0.0195955
0.0188774
0.0179266
0.016814
0.0229004
0.022762
0.0226097
0.02243
0.022224
0.0219943
0.0217434
0.0214719
0.0211763
0.0208473
0.0204677
0.0200139
0.0194477
0.0187486
0.0178387
0.0167818
0.023249
0.0231355
0.022992
0.022828
0.0226505
0.0224615
0.02226
0.0220408
0.0217925
0.021496
0.0211221
0.0206293
0.0199626
0.0190586
0.0178442
0.0163124
0.0232578
0.0231382
0.0229989
0.022839
0.0226639
0.022476
0.0222745
0.0220547
0.0218059
0.0215095
0.0211367
0.0206469
0.019985
0.0190902
0.0178798
0.0163625
0.0232486
0.0231202
0.0229796
0.0228191
0.0226423
0.0224518
0.0222476
0.0220262
0.021778
0.0214857
0.0211216
0.0206462
0.0200038
0.0191358
0.0179432
0.0164482
0.0232236
0.0230844
0.022938
0.0227726
0.0225899
0.0223925
0.0221815
0.0219546
0.0217038
0.0214131
0.0210561
0.0205945
0.0199711
0.0191298
0.0179557
0.0164941
0.0231833
0.0230343
0.0228809
0.0227088
0.022518
0.0223111
0.0220897
0.0218528
0.0215943
0.0212998
0.0209443
0.0204911
0.0198828
0.0190669
0.0179174
0.0165018
0.0231282
0.0229716
0.0228117
0.0226328
0.0224334
0.0222158
0.021982
0.0217322
0.0214616
0.021158
0.0207982
0.0203479
0.019751
0.0189606
0.0178453
0.0164906
0.0230604
0.0228986
0.0227335
0.0225485
0.0223411
0.0221131
0.0218668
0.0216029
0.0213182
0.0210019
0.0206333
0.0201808
0.0195922
0.0188269
0.0177568
0.0164766
0.0229837
0.022819
0.0226504
0.0224604
0.0222461
0.022009
0.0217512
0.0214742
0.0211752
0.020845
0.0204652
0.0200073
0.0194242
0.0186822
0.0176662
0.0164698
0.0233905
0.0232577
0.0231003
0.0229281
0.0227476
0.0225609
0.0223673
0.022162
0.0219337
0.0216623
0.0213147
0.0208412
0.0201693
0.0192055
0.0178292
0.015984
0.0234013
0.0232596
0.0231063
0.022939
0.0227618
0.0225768
0.0223838
0.0221783
0.0219499
0.0216788
0.0213328
0.0208631
0.0201977
0.0192436
0.0178719
0.0160351
0.0233905
0.0232386
0.0230836
0.0229158
0.0227368
0.0225489
0.0223524
0.0221444
0.0219154
0.0216473
0.0213089
0.0208518
0.0202027
0.0192681
0.0178997
0.0160527
0.0233622
0.0231986
0.0230371
0.0228642
0.0226788
0.0224831
0.0222785
0.0220631
0.0218295
0.0215609
0.0212275
0.0207808
0.0201459
0.0192273
0.0178638
0.0160244
0.0233171
0.0231434
0.0229743
0.0227943
0.0226005
0.0223943
0.0221779
0.0219506
0.0217069
0.0214318
0.0210971
0.0206554
0.0200317
0.0191311
0.0177859
0.0159878
0.0232561
0.0230744
0.0228983
0.0227112
0.0225084
0.0222908
0.0220606
0.0218183
0.0215598
0.0212724
0.0209302
0.020488
0.019874
0.0189975
0.0176907
0.015972
0.0231816
0.0229943
0.0228126
0.0226189
0.0224075
0.0221786
0.0219343
0.0216757
0.0213999
0.021096
0.020741
0.020293
0.0196866
0.0188393
0.0175916
0.0159895
0.0230975
0.022907
0.0227213
0.0225221
0.0223029
0.0220637
0.0218062
0.0215316
0.021238
0.0209156
0.0205444
0.0200864
0.0194844
0.0186678
0.0174949
0.016037
0.0235647
0.0234143
0.0232452
0.0230681
0.0228893
0.0227111
0.0225333
0.022352
0.0221566
0.0219265
0.021626
0.021196
0.0205425
0.0195252
0.0179432
0.0156352
0.0235773
0.0234156
0.02325
0.0230784
0.0229035
0.0227276
0.0225508
0.0223697
0.0221742
0.0219443
0.021645
0.0212177
0.0205677
0.0195496
0.0179483
0.0155855
0.0235661
0.0233925
0.0232245
0.0230526
0.0228761
0.022697
0.0225165
0.022332
0.0221352
0.0219074
0.0216145
0.0211971
0.0205558
0.0195321
0.0178865
0.0153962
0.0235348
0.0233489
0.0231738
0.0229965
0.0228135
0.0226264
0.022437
0.0222442
0.0220415
0.0218121
0.021523
0.0211133
0.0204791
0.0194469
0.0177687
0.0151848
0.0234847
0.0232882
0.0231049
0.0229203
0.0227286
0.0225308
0.0223289
0.0221231
0.0219089
0.0216716
0.0213803
0.0209737
0.020348
0.019318
0.0176429
0.0150398
0.0234167
0.0232119
0.023021
0.0228287
0.0226277
0.0224178
0.0222012
0.0219788
0.0217478
0.0214958
0.0211949
0.0207859
0.0201705
0.0191596
0.0175313
0.0149984
0.0233336
0.0231228
0.0229256
0.0227259
0.0225155
0.0222932
0.0220608
0.0218196
0.0215678
0.0212947
0.0209763
0.0205567
0.0199499
0.0189729
0.0174347
0.0150747
0.02324
0.0230256
0.0228237
0.0226174
0.0223978
0.0221633
0.021915
0.0216541
0.0213793
0.0210808
0.0207378
0.0202987
0.0196932
0.0187575
0.017346
0.0152713
0.023766
0.0236001
0.0234221
0.0232441
0.0230722
0.0229091
0.0227558
0.0226098
0.0224621
0.0222937
0.0220689
0.0217234
0.0211443
0.0201362
0.0183521
0.0154037
0.0237807
0.0236012
0.0234259
0.0232536
0.0230861
0.0229259
0.022774
0.0226283
0.0224806
0.0223122
0.022088
0.0217438
0.0211633
0.0201273
0.0182285
0.0149679
0.0237698
0.0235771
0.0233985
0.0232261
0.0230573
0.0228943
0.0227388
0.0225897
0.0224407
0.0222748
0.0220582
0.0217249
0.0211484
0.0200758
0.0180203
0.0143078
0.0237363
0.0235307
0.0233444
0.0231665
0.0229915
0.0228207
0.0226565
0.0224993
0.0223449
0.0221788
0.021969
0.0216481
0.0210815
0.0199809
0.0178199
0.0137311
0.0236811
0.0234646
0.0232695
0.023084
0.0229004
0.022719
0.0225424
0.0223724
0.0222069
0.0220343
0.0218259
0.0215147
0.0209661
0.0198641
0.0176818
0.0133599
0.0236054
0.0233802
0.0231768
0.022983
0.0227895
0.0225956
0.0224038
0.0222164
0.0220331
0.021845
0.0216279
0.0213178
0.0207902
0.0197124
0.0175972
0.0132146
0.0235124
0.0232809
0.0230703
0.0228679
0.0226637
0.0224559
0.0222464
0.0220374
0.0218296
0.0216153
0.021375
0.0210483
0.0205318
0.0194923
0.017533
0.0133158
0.0234075
0.023172
0.0229557
0.0227451
0.0225297
0.0223071
0.0220781
0.0218444
0.0216064
0.0213564
0.0210775
0.0207107
0.0201788
0.0191672
0.0174524
0.0137546
0.023987
0.023808
0.023624
0.0234489
0.0232889
0.0231475
0.023027
0.022927
0.0228417
0.0227561
0.0226398
0.0224352
0.0220352
0.0212292
0.0195725
0.0162703
0.0240043
0.0238094
0.0236271
0.0234579
0.0233027
0.0231646
0.0230459
0.0229466
0.0228613
0.0227759
0.0226604
0.0224575
0.022056
0.0212223
0.0193667
0.0153484
0.0239945
0.0237853
0.023599
0.0234297
0.0232738
0.0231335
0.0230119
0.0229101
0.0228249
0.0227443
0.0226413
0.022459
0.0220792
0.0212287
0.019158
0.0142956
0.0239594
0.0237369
0.0235423
0.0233677
0.023206
0.0230587
0.0229295
0.022821
0.0227329
0.0226567
0.0225695
0.0224169
0.0220765
0.0212442
0.019064
0.0135157
0.0238992
0.0236657
0.0234618
0.0232792
0.0231091
0.0229517
0.0228109
0.0226909
0.022594
0.022516
0.0224396
0.0223157
0.0220276
0.0212532
0.0190952
0.0130753
0.0238155
0.023573
0.02336
0.0231682
0.0229875
0.0228172
0.0226608
0.0225232
0.0224086
0.0223162
0.0222353
0.0221238
0.0218823
0.0211836
0.0191672
0.0129082
0.0237116
0.0234625
0.0232413
0.0230396
0.0228466
0.0226604
0.0224841
0.0223218
0.0221785
0.0220541
0.0219429
0.0218069
0.0215747
0.0209242
0.019156
0.0129355
0.0235939
0.0233403
0.0231124
0.0229006
0.0226939
0.0224895
0.0222892
0.022096
0.0219135
0.0217397
0.0215689
0.0213568
0.0210582
0.0203327
0.0188814
0.0130974
0.0236532
0.0233818
0.0231387
0.0229168
0.0227048
0.0224993
0.0223016
0.0221144
0.0219421
0.0217833
0.0216371
0.021459
0.021224
0.0205771
0.0193269
0.0139526
0.0235169
0.0232454
0.0229982
0.0227659
0.0225369
0.0223069
0.0220757
0.0218434
0.0216106
0.02137
0.0211092
0.0207696
0.0202853
0.0193379
0.0176842
0.0142118
0.0233922
0.0231236
0.0228752
0.022635
0.0223913
0.0221398
0.0218789
0.0216074
0.021323
0.0210167
0.0206695
0.0202341
0.0196338
0.0187281
0.0172855
0.0153457
0.0232876
0.0230249
0.0227783
0.0225333
0.022279
0.0220112
0.0217279
0.0214276
0.0211069
0.0207574
0.02036
0.0198853
0.0192634
0.0184614
0.0172618
0.0158775
0.023208
0.0229547
0.0227128
0.0224663
0.022206
0.0219286
0.0216322
0.0213153
0.0209745
0.0206027
0.020183
0.0196974
0.0190884
0.0183564
0.0173379
0.0161877
0.0231547
0.0229142
0.0226789
0.0224336
0.022172
0.0218917
0.0215914
0.0212695
0.0209224
0.0205436
0.0201184
0.0196331
0.0190433
0.0183524
0.0174562
0.0164398
0.0231235
0.0228999
0.0226717
0.0224292
0.0221698
0.0218923
0.0215956
0.0212782
0.0209361
0.0205626
0.020144
0.0196662
0.0190947
0.0184254
0.017592
0.0166341
0.0231022
0.0229018
0.02268
0.02244
0.0221835
0.0219104
0.0216204
0.0213119
0.0209811
0.0206205
0.0202166
0.0197529
0.0191986
0.0185403
0.0177249
0.0167727
0.0238387
0.0235544
0.0233037
0.0230836
0.0228828
0.0226983
0.0225329
0.0223912
0.0222805
0.0222037
0.0221672
0.0221345
0.022083
0.0216338
0.0203674
0.0143695
0.0236869
0.0234018
0.0231457
0.0229126
0.0226907
0.0224759
0.0222686
0.0220699
0.0218815
0.0216974
0.0215073
0.0212481
0.0208427
0.0199064
0.018084
0.0139756
0.0235477
0.023265
0.0230065
0.0227631
0.0225228
0.0222808
0.0220357
0.0217863
0.0215304
0.0212583
0.02095
0.0205512
0.0199718
0.0190331
0.0174575
0.0152397
0.0234306
0.0231534
0.022896
0.022646
0.0223919
0.0221287
0.0218544
0.0215668
0.021262
0.0209309
0.0205521
0.0200923
0.0194701
0.0186442
0.0173564
0.0158514
0.0233412
0.0230733
0.0228202
0.0225675
0.0223051
0.0220289
0.0217365
0.0214258
0.0210928
0.02073
0.0203184
0.019839
0.0192244
0.0184778
0.0174001
0.0161799
0.023281
0.023026
0.0227797
0.0225277
0.0222626
0.0219816
0.0216825
0.0213634
0.0210202
0.0206463
0.0202253
0.0197434
0.0191486
0.0184484
0.0175145
0.0164531
0.0232454
0.0230082
0.0227697
0.0225205
0.0222573
0.0219784
0.0216823
0.021367
0.0210283
0.0206593
0.0202451
0.0197712
0.0191976
0.0185226
0.0176645
0.0166736
0.0232215
0.0230095
0.0227785
0.0225323
0.0222725
0.0219984
0.0217095
0.021404
0.0210778
0.0207234
0.0203261
0.0198685
0.0193154
0.0186538
0.0178188
0.0168363
0.0240181
0.0237235
0.0234675
0.023251
0.0230626
0.0229
0.0227677
0.0226719
0.0226226
0.0226253
0.0226896
0.0227772
0.0228559
0.0224892
0.0211496
0.0145657
0.023851
0.0235549
0.0232921
0.0230599
0.0228465
0.0226479
0.0224656
0.0223013
0.022158
0.0220299
0.0219066
0.0217169
0.0213696
0.0204171
0.0184456
0.0138792
0.0236976
0.0234031
0.0231367
0.0228918
0.0226562
0.022425
0.0221969
0.0219709
0.0217448
0.021508
0.0212383
0.0208731
0.0203093
0.0193327
0.0176363
0.0151876
0.0235677
0.0232785
0.0230123
0.022759
0.0225065
0.0222494
0.0219854
0.0217121
0.0214249
0.0211139
0.0207548
0.0203102
0.0196871
0.0188351
0.017465
0.0158469
0.0234685
0.0231882
0.022926
0.0226688
0.0224057
0.0221321
0.0218452
0.0215424
0.021219
0.020867
0.020465
0.0199929
0.0193737
0.018612
0.0174799
0.0161933
0.0234012
0.0231341
0.0228787
0.0226216
0.0223545
0.022074
0.0217776
0.0214629
0.0211253
0.0207578
0.0203426
0.0198652
0.0192668
0.0185577
0.0175895
0.0164853
0.0233612
0.0231127
0.0228656
0.0226114
0.0223458
0.0220669
0.0217727
0.021461
0.0211271
0.0207639
0.0203554
0.0198864
0.0193118
0.0186318
0.0177513
0.0167289
0.023335
0.0231133
0.0228749
0.0226242
0.0223624
0.0220888
0.0218023
0.0215012
0.0211811
0.0208339
0.0204443
0.0199937
0.0194428
0.0187785
0.0179254
0.0169142
0.0241831
0.0238805
0.023621
0.0234089
0.0232331
0.0230918
0.0229906
0.0229375
0.0229439
0.0230163
0.0231645
0.0233429
0.0235059
0.0231629
0.0217131
0.0146321
0.0240017
0.0236969
0.0234293
0.0231991
0.0229946
0.0228119
0.0226533
0.0225214
0.0224197
0.0223418
0.0222756
0.0221399
0.0218298
0.0208468
0.0187377
0.0138211
0.0238348
0.0235309
0.0232585
0.0230135
0.0227832
0.0225628
0.0223513
0.0221479
0.02195
0.0217457
0.0215102
0.0211725
0.0206173
0.0196021
0.0177984
0.0151652
0.0236927
0.023394
0.0231211
0.0228658
0.0226156
0.0223651
0.0221117
0.0218526
0.0215829
0.0212913
0.0209507
0.0205194
0.0198938
0.019016
0.0175728
0.0158571
0.0235843
0.0232941
0.0230247
0.0227644
0.0225016
0.0222313
0.0219505
0.0216561
0.0213428
0.021002
0.0206099
0.0201448
0.0195214
0.0187451
0.0175654
0.0162198
0.0235104
0.0232334
0.0229708
0.0227099
0.0224419
0.0221629
0.0218701
0.0215605
0.0212293
0.0208689
0.0204599
0.0199876
0.0193863
0.0186693
0.0176713
0.0165284
0.0234663
0.0232084
0.0229547
0.0226967
0.02243
0.022152
0.0218606
0.0215531
0.0212248
0.0208681
0.0204657
0.0200021
0.0194273
0.0187429
0.0178428
0.0167918
0.0234379
0.0232084
0.0229643
0.0227103
0.0224477
0.0221755
0.0218924
0.0215963
0.0212827
0.0209433
0.0205616
0.0201182
0.0195699
0.0189033
0.0180344
0.0169971
0.0243258
0.0240171
0.0237555
0.023548
0.0233839
0.0232613
0.0231873
0.0231707
0.0232238
0.0233527
0.0235657
0.0238086
0.0240226
0.0236736
0.0221144
0.0146365
0.0241319
0.0238204
0.0235495
0.0233219
0.0231257
0.0229573
0.0228196
0.0227157
0.0226493
0.0226126
0.0225914
0.0224947
0.0222057
0.0211861
0.018959
0.0137745
0.0239531
0.023642
0.0233653
0.0231208
0.0228958
0.0226853
0.0224886
0.022305
0.0221315
0.0219547
0.0217469
0.0214296
0.0208773
0.0198256
0.0179322
0.0151572
0.0238005
0.0234943
0.0232163
0.0229599
0.0227125
0.0224681
0.0222244
0.0219783
0.0217241
0.0214494
0.0211245
0.0207035
0.0200744
0.0191729
0.0176689
0.0158745
0.0236837
0.0233859
0.023111
0.0228485
0.0225866
0.0223198
0.0220449
0.0217585
0.0214547
0.021124
0.0207408
0.0202818
0.0196545
0.018865
0.0176459
0.0162511
0.0236039
0.0233193
0.0230511
0.0227876
0.0225194
0.0222423
0.0219532
0.0216488
0.0213237
0.0209703
0.0205673
0.0200997
0.0194963
0.0187723
0.0177496
0.0165741
0.0235563
0.0232911
0.0230323
0.0227717
0.0225044
0.0222279
0.0219395
0.0216365
0.0213137
0.0209631
0.0205667
0.0201082
0.0195336
0.0188457
0.0179293
0.0168539
0.0235261
0.0232905
0.023042
0.022786
0.0225233
0.0222528
0.0219732
0.0216822
0.021375
0.0210429
0.0206686
0.0202318
0.0196859
0.0190175
0.0181353
0.0170757
0.0244394
0.0241264
0.0238636
0.0236604
0.0235058
0.0233985
0.0233461
0.0233581
0.0234472
0.0236184
0.023878
0.0241639
0.0244072
0.0240417
0.0223933
0.0146251
0.0242354
0.0239192
0.0236462
0.0234211
0.0232319
0.0230752
0.0229542
0.0228724
0.0228334
0.0228281
0.0228396
0.0227692
0.0224908
0.0214369
0.0191184
0.0137413
0.0240469
0.0237307
0.0234511
0.0232075
0.0229871
0.0227848
0.0226002
0.0224324
0.0222781
0.0221226
0.0219354
0.0216321
0.0210793
0.0199969
0.0180349
0.0151581
0.0238861
0.0235743
0.0232927
0.023036
0.0227911
0.022552
0.0223163
0.0220808
0.0218391
0.0215778
0.021265
0.0208514
0.0202185
0.0192976
0.0177473
0.0158946
0.0237625
0.023459
0.0231802
0.0229165
0.0226556
0.022392
0.0221222
0.0218425
0.0215465
0.0212242
0.0208482
0.0203939
0.0197634
0.0189633
0.0177141
0.0162816
0.023678
0.0233876
0.0231155
0.0228504
0.0225824
0.0223071
0.0220213
0.0217215
0.0214018
0.0210541
0.0206562
0.0201926
0.0195878
0.0188581
0.0178168
0.0166157
0.0236274
0.0233569
0.0230944
0.0228321
0.0225649
0.0222898
0.0220043
0.0217052
0.0213871
0.0210419
0.0206505
0.0201964
0.0196222
0.0189314
0.0180026
0.0169079
0.0235958
0.0233557
0.0231043
0.0228469
0.0225845
0.0223158
0.0220394
0.0217528
0.021451
0.0211251
0.0207571
0.0203257
0.019782
0.0191121
0.0182196
0.0171424
0.0245183
0.0242028
0.0239395
0.0237395
0.0235921
0.0234958
0.0234585
0.0234904
0.0236041
0.0238038
0.0240941
0.0244074
0.0246677
0.0242884
0.0225803
0.0146288
0.0243072
0.0239882
0.0237141
0.0234911
0.0233072
0.0231589
0.0230498
0.0229835
0.0229634
0.0229795
0.0230131
0.0229596
0.0226869
0.0216078
0.019227
0.0137272
0.024112
0.0237927
0.0235114
0.0232688
0.023052
0.0228557
0.0226798
0.0225232
0.0223824
0.0222417
0.0220687
0.0217745
0.0212205
0.0201157
0.0181073
0.0151666
0.0239454
0.0236302
0.0233465
0.0230899
0.0228471
0.0226121
0.0223823
0.0221544
0.0219217
0.0216702
0.0213659
0.0209573
0.0203217
0.0193872
0.0178067
0.0159171
0.0238171
0.02351
0.0232289
0.0229647
0.022705
0.0224439
0.022178
0.0219034
0.0216133
0.0212973
0.0209266
0.0204759
0.0198435
0.0190362
0.0177678
0.0163103
0.0237293
0.0234354
0.0231609
0.0228949
0.0226274
0.0223539
0.0220708
0.0217746
0.021459
0.0211158
0.0207219
0.0202614
0.019656
0.0189227
0.0178692
0.0166506
0.0236767
0.0234029
0.0231381
0.022875
0.0226081
0.0223344
0.0220511
0.0217551
0.0214408
0.0210997
0.0207122
0.0202613
0.0196878
0.0189951
0.0180581
0.0169501
0.0236441
0.0234012
0.0231479
0.0228898
0.0226279
0.0223607
0.0220868
0.0218035
0.0215057
0.0211844
0.0208209
0.0203935
0.0198514
0.0191804
0.0182811
0.0171916
0.0245578