/*--------------------------------*- C++ -*----------------------------------*\
| =========                 |                                                 |
| \\      /  F ield         | foam-extend: Open Source CFD                    |
|  \\    /   O peration     | Version:     3.1                                |
|   \\  /    A nd           | Web:         http://www.extend-project.de       |
|    \\/     M anipulation  |                                                 |
\*---------------------------------------------------------------------------*/
FoamFile
{
    version     2.0;
    format      ascii;
    class       surfaceScalarField;
    location    "3.6";
    object      phi;
}
// * * * * * * * * * * * * * * * * * * * * * * * * * * * * * * * * * * * * * //

dimensions      [0 3 -1 0 0 0 0];

internalField   nonuniform List<scalar> 
41600
(
1.18659e-05
-6.9315e-08
-1.19585e-06
1.21004e-06
1.17772e-05
7.86979e-08
-2.15834e-06
2.16832e-06
1.15573e-05
2.23262e-07
-2.73518e-06
2.73184e-06
1.12373e-05
3.38477e-07
-3.24822e-06
3.22975e-06
1.08357e-05
4.35653e-07
-3.82231e-06
3.78823e-06
1.03719e-05
5.15246e-07
-4.52125e-06
4.46988e-06
9.87395e-06
5.7011e-07
-5.38777e-06
5.31558e-06
9.38119e-06
5.90139e-07
-6.46091e-06
6.36353e-06
8.9447e-06
5.62167e-07
-7.78823e-06
7.66255e-06
8.62969e-06
4.66754e-07
-9.43674e-06
9.285e-06
8.52111e-06
2.70206e-07
-1.15054e-05
1.13438e-05
8.72322e-06
-8.42812e-08
-1.41342e-05
1.40163e-05
9.30612e-06
-6.70696e-07
-1.74713e-05
1.75591e-05
9.98696e-06
-1.45865e-06
-2.14251e-05
2.2203e-05
8.8286e-06
-1.73003e-06
-2.46228e-05
2.75112e-05
-2.4191e-07
-1.97982e-05
2.8864e-05
3.30467e-05
-2.27146e-08
-1.41215e-06
1.46521e-06
3.27957e-05
2.51719e-07
-3.30239e-06
3.38043e-06
3.23782e-05
5.67258e-07
-4.70281e-06
4.77623e-06
3.17872e-05
8.65552e-07
-5.95616e-06
6.02009e-06
3.10261e-05
1.13859e-06
-7.28261e-06
7.34082e-06
3.01111e-05
1.3746e-06
-8.82718e-06
8.88282e-06
2.90758e-05
1.5538e-06
-1.06898e-05
1.07414e-05
2.79698e-05
1.65371e-06
-1.29499e-05
1.29923e-05
2.68528e-05
1.64945e-06
-1.56902e-05
1.57199e-05
2.57866e-05
1.5083e-06
-1.90217e-05
1.90464e-05
2.48247e-05
1.17354e-06
-2.31086e-05
2.31672e-05
2.39808e-05
5.46003e-07
-2.81857e-05
2.83992e-05
2.31118e-05
-5.308e-07
-3.44867e-05
3.52158e-05
2.14455e-05
-2.14304e-06
-4.16429e-05
4.39936e-05
1.61305e-05
-3.34409e-06
-4.64307e-05
5.33598e-05
-1.56601e-06
-3.43879e-05
5.18261e-05
5.13452e-05
1.30332e-09
-1.13196e-06
1.19681e-06
5.10751e-05
3.99452e-07
-3.05534e-06
3.17771e-06
5.06457e-05
8.55767e-07
-4.70393e-06
4.84477e-06
5.00434e-05
1.3187e-06
-6.2608e-06
6.41002e-06
4.92498e-05
1.76752e-06
-7.90835e-06
8.07298e-06
4.82514e-05
2.18134e-06
-9.80782e-06
9.99949e-06
4.70477e-05
2.53175e-06
-1.20913e-05
1.23171e-05
4.56536e-05
2.78839e-06
-1.48662e-05
1.51256e-05
4.40932e-05
2.9206e-06
-1.82326e-05
1.85218e-05
4.23836e-05
2.89433e-06
-2.23094e-05
2.2633e-05
4.05082e-05
2.65318e-06
-2.7268e-05
2.76638e-05
3.83607e-05
2.09498e-06
-3.33716e-05
3.39701e-05
3.55838e-05
1.0218e-06
-4.0937e-05
4.21613e-05
3.10197e-05
-8.35955e-07
-4.97208e-05
5.29779e-05
2.14271e-05
-2.9488e-06
-5.58812e-05
6.50784e-05
-2.4973e-06
-4.13616e-05
6.3685e-05
6.66183e-05
-1.90424e-09
-8.88068e-07
9.46754e-07
6.63864e-05
5.04127e-07
-2.54487e-06
2.67209e-06
6.60175e-05
1.06436e-06
-4.08165e-06
4.24196e-06
6.55089e-05
1.64692e-06
-5.60015e-06
5.78052e-06
6.48345e-05
2.23394e-06
-7.23112e-06
7.43909e-06
6.3954e-05
2.80715e-06
-9.12195e-06
9.37667e-06
6.28238e-05
3.34157e-06
-1.14202e-05
1.17406e-05
6.14057e-05
3.81046e-06
-1.42619e-05
1.46579e-05
5.96677e-05
4.18758e-06
-1.77739e-05
1.82449e-05
5.75674e-05
4.44981e-06
-2.20909e-05
2.26357e-05
5.50202e-05
4.55896e-06
-2.7388e-05
2.80294e-05
5.18176e-05
4.44905e-06
-3.39336e-05
3.47821e-05
4.74499e-05
3.9545e-06
-4.21453e-05
4.35802e-05
4.03551e-05
2.72054e-06
-5.21062e-05
5.56445e-05
2.66586e-05
5.35027e-07
-6.00619e-05
7.02745e-05
-1.34155e-06
-4.55439e-05
7.09845e-05
7.88307e-05
-1.6517e-08
-7.33694e-07
7.83138e-07
7.86405e-05
5.80476e-07
-2.13256e-06
2.24645e-06
7.83382e-05
1.21817e-06
-3.46473e-06
3.61317e-06
7.79342e-05
1.88264e-06
-4.80827e-06
4.9766e-06
7.74072e-05
2.5674e-06
-6.2631e-06
6.45663e-06
7.67067e-05
3.26625e-06
-7.95767e-06
8.19905e-06
7.57601e-05
3.96933e-06
-1.00436e-05
1.03624e-05
7.44832e-05
4.66728e-06
-1.26813e-05
1.31014e-05
7.27871e-05
5.35254e-06
-1.60331e-05
1.65642e-05
7.0567e-05
6.02935e-06
-2.02684e-05
2.0909e-05
6.76743e-05
6.69449e-06
-2.55874e-05
2.63446e-05
6.38087e-05
7.35634e-06
-3.22731e-05
3.32314e-05
5.83562e-05
7.93583e-06
-4.07931e-05
4.22643e-05
4.93661e-05
8.26281e-06
-5.16675e-05
5.51154e-05
3.20217e-05
7.41359e-06
-6.15909e-05
7.20567e-05
2.85924e-06
-4.80453e-05
7.57703e-05
8.79814e-05
-3.09927e-08
-6.33282e-07
6.75713e-07
8.78246e-05
6.38493e-07
-1.84286e-06
1.94162e-06
8.75809e-05
1.33337e-06
-2.9948e-06
3.12329e-06
8.72687e-05
2.05304e-06
-4.15797e-06
4.29977e-06
8.6876e-05
2.80406e-06
-5.41368e-06
5.56972e-06
8.63552e-05
3.5956e-06
-6.87108e-06
7.06253e-06
8.56242e-05
4.4383e-06
-8.67415e-06
8.93623e-06
8.45739e-05
5.34877e-06
-1.09939e-05
1.13627e-05
8.30782e-05
6.34909e-06
-1.40189e-05
1.4518e-05
8.09856e-05
7.48695e-06
-1.79543e-05
1.85893e-05
7.81006e-05
8.80981e-06
-2.30343e-05
2.3804e-05
7.40445e-05
1.04467e-05
-2.95735e-05
3.05392e-05
6.81437e-05
1.2426e-05
-3.80398e-05
3.94503e-05
5.81667e-05
1.50737e-05
-4.93525e-05
5.25186e-05
3.79141e-05
1.74321e-05
-6.10382e-05
7.12723e-05
1.12075e-05
-4.89367e-05
7.83692e-05
9.40744e-05
-3.79882e-08
-5.62091e-07
5.99972e-07
9.39448e-05
6.81108e-07
-1.63513e-06
1.72205e-06
9.37558e-05
1.41132e-06
-2.64852e-06
2.75957e-06
9.35298e-05
2.16186e-06
-3.66398e-06
3.78121e-06
9.32628e-05
2.95119e-06
-4.74989e-06
4.86977e-06
9.29158e-05
3.8031e-06
-5.99772e-06
6.13721e-06
9.2411e-05
4.74829e-06
-7.53626e-06
7.73104e-06
9.16369e-05
5.82975e-06
-9.53068e-06
9.8238e-06
9.04587e-05
7.10098e-06
-1.21756e-05
1.26018e-05
8.8714e-05
8.65682e-06
-1.56903e-05
1.62651e-05
8.62026e-05
1.05998e-05
-2.03217e-05
2.10432e-05
8.25314e-05
1.32135e-05
-2.64029e-05
2.73073e-05
7.69985e-05
1.6667e-05
-3.43483e-05
3.56402e-05
6.73684e-05
2.19907e-05
-4.52964e-05
4.80095e-05
4.57043e-05
2.97112e-05
-5.82681e-05
6.7653e-05
2.62784e-05
-4.76151e-05
7.80762e-05
9.71136e-05
-5.09135e-07
5.44193e-07
-3.35054e-08
9.70083e-05
-1.48036e-06
1.5591e-06
7.07682e-07
9.68753e-05
-2.38775e-06
2.48592e-06
1.44623e-06
9.67392e-05
-3.28658e-06
3.3854e-06
2.19909e-06
9.66025e-05
-4.23617e-06
4.32926e-06
2.99477e-06
9.64355e-05
-5.31442e-06
5.41518e-06
3.86935e-06
9.61714e-05
-6.63405e-06
6.77628e-06
4.87014e-06
9.57121e-05
-8.34438e-06
8.5729e-06
6.06054e-06
9.49394e-05
-1.06262e-05
1.09815e-05
7.51845e-06
9.37248e-05
-1.36835e-05
1.41868e-05
9.36815e-06
9.19218e-05
-1.77388e-05
1.8391e-05
1.17506e-05
8.92932e-05
-2.30782e-05
2.38835e-05
1.50368e-05
8.52647e-05
-3.00197e-05
3.11458e-05
1.95693e-05
7.80984e-05
-3.93638e-05
4.13911e-05
2.71297e-05
5.94024e-05
-5.26123e-05
5.98952e-05
4.11244e-05
-4.25079e-05
7.10449e-05
5.69327e-05
1.26641e-05
-8.75524e-08
-1.13381e-06
1.25103e-05
5.23537e-08
-2.05696e-06
1.21981e-05
1.94678e-07
-2.61766e-06
1.17612e-05
3.06853e-07
-3.11817e-06
1.1216e-05
3.995e-07
-3.67657e-06
1.05756e-05
4.73351e-07
-4.3542e-06
9.85974e-06
5.20223e-07
-5.19213e-06
9.09685e-06
5.28118e-07
-6.22614e-06
8.32337e-06
4.81222e-07
-7.49596e-06
7.58206e-06
3.56597e-07
-9.05202e-06
6.9204e-06
1.1599e-07
-1.09597e-05
6.37879e-06
-3.02305e-07
-1.32903e-05
5.94218e-06
-9.85397e-07
-1.60493e-05
5.32462e-06
-1.90302e-06
-1.89046e-05
3.51918e-06
-2.57719e-06
-2.02401e-05
-1.92341e-06
-1.43633e-05
3.53259e-05
-4.53363e-08
-1.31076e-06
3.49648e-05
2.08955e-07
-3.09783e-06
3.43807e-05
5.13794e-07
-4.4379e-06
3.35687e-05
8.03263e-07
-5.64055e-06
3.25273e-05
1.06701e-06
-6.90871e-06
3.12615e-05
1.29208e-06
-8.3801e-06
2.97884e-05
1.45535e-06
-1.01518e-05
2.81365e-05
1.52909e-06
-1.2299e-05
2.6339e-05
1.48141e-06
-1.48929e-05
2.44196e-05
1.27045e-06
-1.80162e-05
2.23757e-05
8.25788e-07
-2.17745e-05
2.01274e-05
4.15624e-08
-2.62812e-05
1.74505e-05
-1.3033e-06
-3.14919e-05
1.3723e-05
-3.23661e-06
-3.65817e-05
7.63359e-06
-4.94765e-06
-3.79708e-05
-4.02324e-06
-2.46784e-05
5.49188e-05
-2.24786e-08
-1.03472e-06
5.45429e-05
3.57543e-07
-2.82804e-06
5.39392e-05
8.00636e-07
-4.38707e-06
5.30948e-05
1.25314e-06
-5.86621e-06
5.19867e-05
1.69257e-06
-7.42588e-06
5.05891e-05
2.09642e-06
-9.21449e-06
4.88803e-05
2.43179e-06
-1.13589e-05
4.68461e-05
2.66091e-06
-1.39639e-05
4.44725e-05
2.74346e-06
-1.7121e-05
4.17242e-05
2.63317e-06
-2.09238e-05
3.85077e-05
2.25655e-06
-2.54823e-05
3.46115e-05
1.48571e-06
-3.09195e-05
2.95285e-05
9.91643e-08
-3.72565e-05
2.23292e-05
-2.17949e-06
-4.35786e-05
1.1586e-05
-4.64142e-06
-4.54442e-05
-4.62456e-06
-2.92198e-05
7.12704e-05
-2.74602e-08
-8.0676e-07
7.09496e-05
4.70834e-07
-2.33738e-06
7.04226e-05
1.02414e-06
-3.77811e-06
6.96855e-05
1.60191e-06
-5.21178e-06
6.87085e-05
2.18627e-06
-6.74788e-06
6.74409e-05
2.75825e-06
-8.51613e-06
6.58171e-05
3.28928e-06
-1.06539e-05
6.37633e-05
3.746e-06
-1.32932e-05
6.1196e-05
4.09326e-06
-1.65564e-05
5.80015e-05
4.29745e-06
-2.05606e-05
5.39919e-05
4.30681e-06
-2.54286e-05
4.88076e-05
4.03507e-06
-3.12986e-05
4.17435e-05
3.28681e-06
-3.82688e-05
3.13906e-05
1.71479e-06
-4.56475e-05
1.593e-05
-5.78086e-07
-4.86647e-05
-2.58332e-06
-3.17295e-05
8.43428e-05
-4.50128e-08
-6.65919e-07
8.40783e-05
5.56661e-07
-1.95388e-06
8.36373e-05
1.19823e-06
-3.19783e-06
8.30262e-05
1.8687e-06
-4.46399e-06
8.22207e-05
2.56306e-06
-5.83436e-06
8.11628e-05
3.27576e-06
-7.41726e-06
7.97609e-05
3.99554e-06
-9.34795e-06
7.78936e-05
4.70988e-06
-1.17779e-05
7.54115e-05
5.40682e-06
-1.48646e-05
7.21199e-05
6.08687e-06
-1.87663e-05
6.77377e-05
6.74409e-06
-2.36425e-05
6.17757e-05
7.38209e-06
-2.9658e-05
5.3338e-05
7.92457e-06
-3.69932e-05
4.05123e-05
8.16809e-06
-4.52952e-05
2.07404e-05
7.38687e-06
-4.9784e-05
3.09809e-06
-3.30949e-05
9.41366e-05
-6.21118e-08
-5.7502e-07
9.3916e-05
6.22828e-07
-1.6885e-06
9.35504e-05
1.33274e-06
-2.76366e-06
9.30521e-05
2.07058e-06
-3.86157e-06
9.24055e-05
2.84553e-06
-5.04953e-06
9.15582e-05
3.66878e-06
-6.41681e-06
9.0414e-05
4.55223e-06
-8.08667e-06
8.88305e-05
5.51407e-06
-1.02145e-05
8.66201e-05
6.57887e-06
-1.29806e-05
8.35315e-05
7.80152e-06
-1.65803e-05
7.92162e-05
9.24337e-06
-2.12183e-05
7.30725e-05
1.10543e-05
-2.7102e-05
6.40955e-05
1.33213e-05
-3.44595e-05
4.98956e-05
1.63597e-05
-4.33442e-05
2.63886e-05
1.92155e-05
-4.93598e-05
1.37708e-05
-3.3367e-05
0.000100657
-7.0334e-08
-5.10301e-07
0.000100471
6.72491e-07
-1.49882e-06
0.000100174
1.42716e-06
-2.44565e-06
9.97807e-05
2.20681e-06
-3.40693e-06
9.92834e-05
3.03337e-06
-4.44037e-06
9.86401e-05
3.93389e-06
-5.61953e-06
9.77642e-05
4.94285e-06
-7.05095e-06
9.65176e-05
6.10963e-06
-8.87971e-06
9.4711e-05
7.49724e-06
-1.12873e-05
9.20849e-05
9.22029e-06
-1.4483e-05
8.82876e-05
1.14122e-05
-1.86932e-05
8.26799e-05
1.44178e-05
-2.41588e-05
7.4241e-05
1.85128e-05
-3.11009e-05
6.03175e-05
2.49264e-05
-3.99395e-05
3.45804e-05
3.40519e-05
-4.73674e-05
3.28497e-05
-3.22985e-05
0.00010391
-4.61763e-07
-6.51341e-08
0.000103753
-1.35693e-06
7.05593e-07
0.000103523
-2.20591e-06
1.47577e-06
0.000103236
-3.05944e-06
2.2663e-06
0.000102892
-3.96816e-06
3.10971e-06
0.000102459
-4.99407e-06
4.04618e-06
0.000101867
-6.22818e-06
5.12886e-06
0.000101
-7.79836e-06
6.43137e-06
9.96947e-05
-9.87042e-06
8.04635e-06
9.77424e-05
-1.26388e-05
1.01279e-05
9.48735e-05
-1.63135e-05
1.28557e-05
9.0621e-05
-2.11166e-05
1.67087e-05
8.41756e-05
-2.72089e-05
2.21474e-05
7.3174e-05
-3.50068e-05
3.1571e-05
5.00648e-05
-4.36172e-05
4.8166e-05
-2.92696e-05
6.94524e-05
1.33449e-05
-1.04615e-07
-1.02596e-06
1.31288e-05
2.73362e-08
-1.86827e-06
1.27296e-05
1.66242e-07
-2.38461e-06
1.21827e-05
2.74965e-07
-2.8463e-06
1.15034e-05
3.62382e-07
-3.35965e-06
1.06999e-05
4.29431e-07
-3.98013e-06
9.78528e-06
4.66904e-07
-4.74441e-06
8.78038e-06
4.61084e-07
-5.68233e-06
7.7134e-06
3.94117e-07
-6.8231e-06
6.61799e-06
2.41302e-07
-8.19792e-06
5.53274e-06
-3.642e-08
-9.83806e-06
4.49776e-06
-4.99577e-07
-1.17557e-05
3.53781e-06
-1.22155e-06
-1.38678e-05
2.57235e-06
-2.17641e-06
-1.57627e-05
1.33685e-06
-2.99006e-06
-1.60146e-05
-2.44107e-06
-1.05952e-05
3.72767e-05
-6.58742e-08
-1.16536e-06
3.68136e-05
1.69448e-07
-2.77687e-06
3.60746e-05
4.63491e-07
-3.99615e-06
3.50574e-05
7.43779e-07
-5.09219e-06
3.37574e-05
9.97304e-07
-6.24358e-06
3.21707e-05
1.20979e-06
-7.57381e-06
3.03017e-05
1.35491e-06
-9.17076e-06
2.81638e-05
1.39999e-06
-1.11e-05
2.5774e-05
1.30725e-06
-1.34162e-05
2.31409e-05
1.02897e-06
-1.61708e-05
2.02487e-05
4.92036e-07
-1.94107e-05
1.70407e-05
-4.26489e-07
-2.31463e-05
1.33924e-05
-1.88844e-06
-2.71768e-05
9.08976e-06
-3.90867e-06
-3.05468e-05
4.0218e-06
-5.75726e-06
-3.01357e-05
-4.89886e-06
-1.82285e-05
5.79807e-05
-4.37402e-08
-9.08694e-07
5.75088e-05
3.20713e-07
-2.50739e-06
5.67456e-05
7.51971e-07
-3.91241e-06
5.56788e-05
1.19461e-06
-5.25024e-06
5.42822e-05
1.6244e-06
-6.6564e-06
5.25206e-05
2.01725e-06
-8.26029e-06
5.03562e-05
2.33599e-06
-1.01756e-05
4.77529e-05
2.53577e-06
-1.24963e-05
4.46704e-05
2.56756e-06
-1.52988e-05
4.10459e-05
2.37632e-06
-1.86467e-05
3.67653e-05
1.88153e-06
-2.25913e-05
3.1607e-05
9.54277e-07
-2.71419e-05
2.51936e-05
-6.12618e-07
-3.2119e-05
1.70785e-05
-2.97101e-06
-3.64011e-05
7.36175e-06
-5.47241e-06
-3.60123e-05
-5.42264e-06
-2.13882e-05
7.52572e-05
-5.02945e-08
-7.05194e-07
7.48567e-05
4.43412e-07
-2.05962e-06
7.41871e-05
9.92075e-07
-3.34861e-06
7.32421e-05
1.56653e-06
-4.6387e-06
7.19885e-05
2.14889e-06
-6.01872e-06
7.03674e-05
2.71965e-06
-7.5974e-06
6.82969e-05
3.24692e-06
-9.49441e-06
6.56763e-05
3.69083e-06
-1.18277e-05
6.23846e-05
4.0077e-06
-1.47048e-05
5.82625e-05
4.15558e-06
-1.82179e-05
5.30755e-05
4.07675e-06
-2.24368e-05
4.64356e-05
3.68691e-06
-2.73914e-05
3.77011e-05
2.81193e-06
-3.29589e-05
2.59929e-05
1.22321e-06
-3.81335e-05
1.13389e-05
-1.00704e-06
-3.8476e-05
-2.90514e-06
-2.29928e-05
8.90666e-05
-7.00826e-08
-5.81827e-07
8.87357e-05
5.38964e-07
-1.71858e-06
8.81707e-05
1.18685e-06
-2.82763e-06
8.73729e-05
1.86508e-06
-3.96475e-06
8.63134e-05
2.57008e-06
-5.19603e-06
8.49279e-05
3.29721e-06
-6.60927e-06
8.31108e-05
4.03406e-06
-8.31804e-06
8.07134e-05
4.76467e-06
-1.04543e-05
7.7542e-05
5.4721e-06
-1.31576e-05
7.33405e-05
6.15319e-06
-1.65625e-05
6.77549e-05
6.80159e-06
-2.07817e-05
6.02336e-05
7.4309e-06
-2.58807e-05
4.98842e-05
7.99385e-06
-3.18257e-05
3.52857e-05
8.38297e-06
-3.78565e-05
1.5977e-05
7.84282e-06
-3.93251e-05
3.66342e-06
-2.38065e-05
9.94115e-05
-8.9112e-08
-5.02557e-07
9.91337e-05
6.13579e-07
-1.48537e-06
9.86595e-05
1.3407e-06
-2.44334e-06
9.79946e-05
2.09828e-06
-3.42982e-06
9.71173e-05
2.89807e-06
-4.50025e-06
9.59699e-05
3.75352e-06
-5.72572e-06
9.44458e-05
4.67785e-06
-7.2063e-06
9.23788e-05
5.69022e-06
-9.07314e-06
8.95375e-05
6.81603e-06
-1.14832e-05
8.56018e-05
8.11485e-06
-1.46063e-05
8.01319e-05
9.65776e-06
-1.86045e-05
7.24385e-05
1.16176e-05
-2.35953e-05
6.14615e-05
1.413e-05
-2.96187e-05
4.51741e-05
1.75994e-05
-3.62732e-05
2.16969e-05
2.09908e-05
-3.90305e-05
1.57452e-05
-2.39102e-05
0.000106299
-9.80525e-08
-4.45918e-07
0.000106062
6.70682e-07
-1.31903e-06
0.000105668
1.45169e-06
-2.1632e-06
0.000105126
2.26168e-06
-3.02825e-06
0.000104421
3.12608e-06
-3.9629e-06
0.000103505
4.07526e-06
-5.02558e-06
0.000102286
5.14728e-06
-6.3007e-06
0.000100606
6.39688e-06
-7.90704e-06
9.82403e-05
7.89406e-06
-9.99937e-06
9.48628e-05
9.76822e-06
-1.27589e-05
9.00277e-05
1.21741e-05
-1.63744e-05
8.29931e-05
1.55002e-05
-2.10068e-05
7.26613e-05
2.00895e-05
-2.67286e-05
5.65444e-05
2.73144e-05
-3.35377e-05
3.03643e-05
3.74809e-05
-3.76774e-05
3.68607e-05
-2.32473e-05
0.000109734
-4.03176e-07
-9.18506e-08
0.000109531
-1.19416e-06
7.1063e-07
0.000109215
-1.95181e-06
1.51407e-06
0.000108795
-2.72129e-06
2.34324e-06
0.000108264
-3.546e-06
3.23473e-06
0.000107588
-4.47522e-06
4.23278e-06
0.000106691
-5.57989e-06
5.39572e-06
0.000105446
-6.96241e-06
6.80596e-06
0.000103664
-8.76194e-06
8.56795e-06
0.00010108
-1.1146e-05
1.0859e-05
9.73484e-05
-1.42944e-05
1.38869e-05
9.19003e-05
-1.83679e-05
1.81996e-05
8.38768e-05
-2.34212e-05
2.43253e-05
7.08681e-05
-2.96054e-05
3.49217e-05
4.68977e-05
-3.52327e-05
5.30668e-05
-2.13545e-05
7.56064e-05
1.39096e-05
-1.1978e-07
-8.76412e-07
1.36368e-05
5.54329e-09
-1.60103e-06
1.31591e-05
1.39833e-07
-2.04668e-06
1.25136e-05
2.45123e-07
-2.44592e-06
1.1715e-05
3.27397e-07
-2.88845e-06
1.07682e-05
3.87726e-07
-3.42109e-06
9.68201e-06
4.15989e-07
-4.07422e-06
8.47339e-06
3.97039e-07
-4.87075e-06
7.16845e-06
3.11638e-07
-5.82979e-06
5.80232e-06
1.34738e-07
-6.96653e-06
4.42204e-06
-1.7024e-07
-8.28754e-06
3.0938e-06
-6.58572e-07
-9.7689e-06
1.90771e-06
-1.38696e-06
-1.12947e-05
9.49866e-07
-2.32399e-06
-1.24808e-05
3.01772e-07
-3.13439e-06
-1.22321e-05
-2.54425e-06
-7.76068e-06
3.89001e-05
-8.37854e-08
-9.81271e-07
3.83465e-05
1.34638e-07
-2.35234e-06
3.74694e-05
4.18578e-07
-3.39781e-06
3.62698e-05
6.90284e-07
-4.33779e-06
3.47412e-05
9.34074e-07
-5.3216e-06
3.28739e-05
1.13448e-06
-6.45333e-06
3.06639e-05
1.26225e-06
-7.80696e-06
2.81159e-05
1.28042e-06
-9.43542e-06
2.52413e-05
1.14685e-06
-1.13769e-05
2.2051e-05
8.11026e-07
-1.36567e-05
1.85446e-05
2.07768e-07
-1.62824e-05
1.4727e-05
-7.89626e-07
-1.91977e-05
1.06119e-05
-2.2952e-06
-2.21534e-05
6.29916e-06
-4.28215e-06
-2.42759e-05
2.24508e-06
-6.07807e-06
-2.31379e-05
-5.14948e-06
-1.34124e-05
6.05312e-05
-6.2039e-08
-7.57865e-07
5.99753e-05
2.89372e-07
-2.10623e-06
5.90721e-05
7.10548e-07
-3.30115e-06
5.78094e-05
1.14456e-06
-4.44187e-06
5.6159e-05
1.56567e-06
-5.63755e-06
5.40793e-05
1.94842e-06
-6.99456e-06
5.15219e-05
2.2519e-06
-8.60793e-06
4.84365e-05
2.42507e-06
-1.05555e-05
4.4769e-05
2.41176e-06
-1.28962e-05
4.04488e-05
2.15188e-06
-1.56674e-05
3.53753e-05
1.56612e-06
-1.88761e-05
2.93697e-05
5.43355e-07
-2.24694e-05
2.22389e-05
-1.09645e-06
-2.61869e-05
1.39257e-05
-3.40074e-06
-2.89692e-05
5.28464e-06
-5.7828e-06
-2.76665e-05
-5.64075e-06
-1.56728e-05
7.85788e-05
-6.98418e-08
-5.86145e-07
7.81093e-05
4.21197e-07
-1.72196e-06
7.73159e-05
9.66989e-07
-2.81165e-06
7.61895e-05
1.53941e-06
-3.90712e-06
7.46935e-05
2.12065e-06
-5.07768e-06
7.27633e-05
2.69097e-06
-6.40978e-06
7.0306e-05
3.21567e-06
-8.00093e-06
6.7203e-05
3.64917e-06
-9.9487e-06
6.331e-05
3.94041e-06
-1.23404e-05
5.84452e-05
4.04169e-06
-1.52429e-05
5.23652e-05
3.89548e-06
-1.86861e-05
4.47205e-05
3.43224e-06
-2.26355e-05
3.5012e-05
2.51656e-06
-2.68635e-05
2.2826e-05
1.01752e-06
-3.03658e-05
9.12991e-06
-1.02765e-06
-2.9535e-05
-2.84369e-06
-1.67529e-05
9.30024e-05
-9.14671e-08
-4.83497e-07
9.26141e-05
5.25886e-07
-1.43497e-06
9.19421e-05
1.18113e-06
-2.36982e-06
9.09826e-05
1.86774e-06
-3.33357e-06
8.97017e-05
2.58348e-06
-4.37794e-06
8.80296e-05
3.32481e-06
-5.57102e-06
8.58512e-05
4.0786e-06
-7.0026e-06
8.29998e-05
4.82586e-06
-8.77952e-06
7.92537e-05
5.54477e-06
-1.10159e-05
7.43217e-05
6.22902e-06
-1.38177e-05
6.78201e-05
6.87368e-06
-1.72584e-05
5.92038e-05
7.50779e-06
-2.13399e-05
4.76949e-05
8.12032e-06
-2.59205e-05
3.23334e-05
8.68468e-06
-3.01621e-05
1.37768e-05
8.40165e-06
-3.01978e-05
4.28198e-06
-1.72851e-05
0.000103807
-1.11966e-07
-4.17705e-07
0.000103479
6.08514e-07
-1.24047e-06
0.000102911
1.35294e-06
-2.04752e-06
0.000102103
2.12986e-06
-2.88353e-06
0.000101026
2.95341e-06
-3.79299e-06
9.96162e-05
3.83928e-06
-4.83065e-06
9.776e-05
4.8022e-06
-6.0737e-06
9.52761e-05
5.86203e-06
-7.62543e-06
9.1906e-05
7.04395e-06
-9.61224e-06
8.72892e-05
8.41002e-06
-1.21705e-05
8.09421e-05
1.00373e-05
-1.5421e-05
7.21571e-05
1.21175e-05
-1.94201e-05
5.99435e-05
1.48215e-05
-2.41062e-05
4.2672e-05
1.86175e-05
-2.89345e-05
1.96592e-05
2.24052e-05
-3.00213e-05
1.72229e-05
-1.7361e-05
0.000110999
-1.21288e-07
-3.70554e-07
0.000110718
6.7277e-07
-1.10191e-06
0.000110242
1.4794e-06
-1.81344e-06
0.000109572
2.31837e-06
-2.54712e-06
0.000108687
3.21834e-06
-3.34296e-06
0.000107534
4.21287e-06
-4.24626e-06
0.000106014
5.34331e-06
-5.3211e-06
0.000103959
6.66879e-06
-6.65878e-06
0.000101121
8.2641e-06
-8.38146e-06
9.71373e-05
1.02685e-05
-1.06342e-05
9.15152e-05
1.2849e-05
-1.3564e-05
8.34788e-05
1.64214e-05
-1.72743e-05
7.19637e-05
2.13621e-05
-2.17542e-05
5.47571e-05
2.91128e-05
-2.68264e-05
2.87132e-05
3.99064e-05
-2.91345e-05
3.94721e-05
-1.69925e-05
0.000114587
-3.34808e-07
-1.13989e-07
0.000114344
-9.97594e-07
7.19296e-07
0.000113953
-1.63663e-06
1.55466e-06
0.00011342
-2.29e-06
2.42035e-06
0.000112729
-2.99371e-06
3.35676e-06
0.000111842
-3.78631e-06
4.41187e-06
0.000110678
-4.72115e-06
5.64852e-06
0.000109103
-5.87557e-06
7.15627e-06
0.000106915
-7.35777e-06
9.04827e-06
0.00010382
-9.30097e-06
1.15184e-05
9.9432e-05
-1.18479e-05
1.47905e-05
9.3145e-05
-1.51122e-05
1.94527e-05
8.41192e-05
-1.90905e-05
2.60572e-05
7.00562e-05
-2.38057e-05
3.73761e-05
4.58827e-05
-2.75369e-05
5.6384e-05
-1.57633e-05
7.95143e-05
1.43591e-05
-1.32229e-07
-6.90926e-07
1.40389e-05
-1.57125e-08
-1.26505e-06
1.34937e-05
1.17351e-07
-1.61884e-06
1.27646e-05
2.19233e-07
-1.93605e-06
1.18659e-05
2.9695e-07
-2.28668e-06
1.08004e-05
3.51386e-07
-2.70704e-06
9.57481e-06
3.71671e-07
-3.22025e-06
8.20494e-06
3.4157e-07
-3.84246e-06
6.71895e-06
2.40972e-07
-4.58477e-06
5.15905e-06
4.5395e-08
-5.45201e-06
3.5882e-06
-2.79552e-07
-6.43715e-06
2.10166e-06
-7.78689e-07
-7.50367e-06
8.45737e-07
-1.49765e-06
-8.54117e-06
1.23225e-08
-2.39643e-06
-9.25099e-06
-2.32955e-07
-3.15229e-06
-8.83453e-06
-2.52744e-06
-5.47891e-06
4.0198e-05
-9.86801e-08
-7.65092e-07
3.95671e-05
1.05104e-07
-1.84225e-06
3.8574e-05
3.80807e-07
-2.66818e-06
3.7221e-05
6.45094e-07
-3.41066e-06
3.55012e-05
8.80478e-07
-4.18532e-06
3.34018e-05
1.07046e-06
-5.07299e-06
3.09139e-05
1.18345e-06
-6.13081e-06
2.8039e-05
1.17904e-06
-7.39802e-06
2.479e-05
1.01207e-06
-8.89895e-06
2.11879e-05
6.32444e-07
-1.06417e-05
1.72651e-05
-2.68688e-08
-1.26122e-05
1.30819e-05
-1.05811e-06
-1.4735e-05
8.77182e-06
-2.56401e-06
-1.6777e-05
4.62349e-06
-4.47374e-06
-1.80503e-05
1.30708e-06
-6.16039e-06
-1.68134e-05
-5.16618e-06
-9.50412e-06
6.25709e-05
-7.70851e-08
-5.86707e-07
6.19451e-05
2.63823e-07
-1.63908e-06
6.09251e-05
6.76868e-07
-2.57724e-06
5.94989e-05
1.10385e-06
-3.47443e-06
5.76369e-05
1.51777e-06
-4.41283e-06
5.5294e-05
1.8922e-06
-5.47338e-06
5.24153e-05
2.18321e-06
-6.72901e-06
4.8943e-05
2.33473e-06
-8.23895e-06
4.48186e-05
2.28521e-06
-1.00448e-05
3.99774e-05
1.97206e-06
-1.21659e-05
3.43411e-05
1.31975e-06
-1.45864e-05
2.77911e-05
2.5374e-07
-1.72312e-05
2.02952e-05
-1.40979e-06
-1.98452e-05
1.20422e-05
-3.6144e-06
-2.15755e-05
4.18758e-06
-5.8366e-06
-2.01357e-05
-5.62542e-06
-1.10916e-05
8.12356e-05
-8.58398e-08
-4.52669e-07
8.07091e-05
4.03769e-07
-1.33539e-06
7.98134e-05
9.47952e-07
-2.187e-06
7.85366e-05
1.51935e-06
-3.04586e-06
7.68395e-05
2.10021e-06
-3.96298e-06
7.46536e-05
2.67078e-06
-5.00242e-06
7.1879e-05
3.19434e-06
-6.23754e-06
6.83868e-05
3.62067e-06
-7.74237e-06
6.40208e-05
3.89277e-06
-9.58204e-06
5.85919e-05
3.95925e-06
-1.18012e-05
5.18656e-05
3.76573e-06
-1.44059e-05
4.35574e-05
3.26209e-06
-1.73357e-05
3.32952e-05
2.34688e-06
-2.03579e-05
2.09903e-05
9.59596e-07
-2.26349e-05
7.99324e-06
-8.68241e-07
-2.15063e-05
-2.65942e-06
-1.18252e-05
9.61506e-05
-1.08914e-07
-3.73339e-07
9.57148e-05
5.16427e-07
-1.11183e-06
9.49548e-05
1.17892e-06
-1.84081e-06
9.38622e-05
1.87355e-06
-2.59515e-06
9.23985e-05
2.59919e-06
-3.41326e-06
9.04897e-05
3.3534e-06
-4.34476e-06
8.80142e-05
4.12282e-06
-5.45559e-06
8.47947e-05
4.88603e-06
-6.82544e-06
8.05944e-05
5.61706e-06
-8.53984e-06
7.5105e-05
6.30685e-06
-1.0676e-05
6.79384e-05
6.95213e-06
-1.32781e-05
5.85833e-05
7.5967e-06
-1.63195e-05
4.63835e-05
8.26132e-06
-1.96351e-05
3.06987e-05
8.97745e-06
-2.24952e-05
1.27099e-05
8.91533e-06
-2.19926e-05
4.81396e-06
-1.21861e-05
0.000107322
-1.30514e-07
-3.22559e-07
0.000106953
6.0609e-07
-9.61279e-07
0.000106309
1.36627e-06
-1.59036e-06
0.000105383
2.1606e-06
-2.24452e-06
0.000104141
3.00513e-06
-2.95758e-06
0.000102516
3.91767e-06
-3.76944e-06
0.000100386
4.91443e-06
-4.7358e-06
9.75631e-05
6.01591e-06
-5.93205e-06
9.37731e-05
7.24655e-06
-7.45172e-06
8.8636e-05
8.66921e-06
-9.39576e-06
8.1652e-05
1.03637e-05
-1.18485e-05
7.21263e-05
1.25342e-05
-1.4832e-05
5.91593e-05
1.53743e-05
-1.82521e-05
4.14098e-05
1.93942e-05
-2.16018e-05
1.8752e-05
2.34614e-05
-2.19095e-05
1.82874e-05
-1.22604e-05
0.000114759
-1.40012e-07
-2.86086e-07
0.000114441
6.76688e-07
-8.54115e-07
0.000113897
1.50617e-06
-1.40895e-06
0.000113123
2.37074e-06
-1.98328e-06
0.000112091
3.30176e-06
-2.60802e-06
0.000110743
4.33559e-06
-3.31655e-06
0.000108975
5.51641e-06
-4.1547e-06
0.000106613
6.90686e-06
-5.18786e-06
0.000103398
8.5847e-06
-6.50492e-06
9.8951e-05
1.06952e-05
-8.21277e-06
9.2758e-05
1.34107e-05
-1.0418e-05
8.40413e-05
1.71619e-05
-1.31852e-05
7.17963e-05
2.2337e-05
-1.64719e-05
5.40207e-05
3.04124e-05
-2.00689e-05
2.81017e-05
4.15961e-05
-2.13503e-05
4.12513e-05
-1.20737e-05
0.000118469
-2.58348e-07
-1.31661e-07
0.000118192
-7.73255e-07
7.29051e-07
0.000117741
-1.27182e-06
1.59265e-06
0.000117115
-1.78365e-06
2.49033e-06
0.000116294
-2.33679e-06
3.46575e-06
0.000115233
-2.95989e-06
4.57012e-06
0.000113849
-3.69101e-06
5.86989e-06
0.000112005
-4.58484e-06
7.46019e-06
0.000109491
-5.71904e-06
9.46012e-06
0.000106002
-7.19117e-06
1.20744e-05
0.000101137
-9.10584e-06
1.55342e-05
9.42786e-05
-1.15414e-05
2.04492e-05
8.46257e-05
-1.44719e-05
2.73713e-05
6.99752e-05
-1.78739e-05
3.9131e-05
4.57078e-05
-2.03196e-05
5.86463e-05
-1.12761e-05
8.2212e-05
1.46947e-05
-1.41742e-07
-4.7674e-07
1.43377e-05
-3.3773e-08
-8.7426e-07
1.37392e-05
9.95617e-08
-1.11991e-06
1.29448e-05
1.98338e-07
-1.33995e-06
1.19684e-05
2.72273e-07
-1.58258e-06
1.0812e-05
3.21897e-07
-1.87257e-06
9.48133e-06
3.35785e-07
-2.22533e-06
7.99294e-06
2.96912e-07
-2.65099e-06
6.37861e-06
1.84681e-07
-3.15512e-06
4.68922e-06
-2.4943e-08
-3.73768e-06
3.00329e-06
-3.63016e-07
-4.3882e-06
1.43998e-06
-8.66527e-07
-5.07383e-06
1.80034e-07
-1.5718e-06
-5.70942e-06
-5.37871e-07
-2.42665e-06
-6.10644e-06
-4.97165e-07
-3.13801e-06
-5.73722e-06
-2.48142e-06
-3.50823e-06
4.11705e-05
-1.10168e-07
-5.23858e-07
4.04787e-05
8.20839e-08
-1.26625e-06
3.93955e-05
3.5142e-07
-1.83682e-06
3.79231e-05
6.09775e-07
-2.34975e-06
3.60554e-05
8.38449e-07
-2.88376e-06
3.37779e-05
1.02021e-06
-3.4938e-06
3.10797e-05
1.12168e-06
-4.21857e-06
2.79624e-05
1.10002e-06
-5.08377e-06
2.44436e-05
9.07595e-07
-6.10313e-06
2.05568e-05
4.97169e-07
-7.27702e-06
1.63664e-05
-1.99372e-07
-8.58545e-06
1.19772e-05
-1.24736e-06
-9.96502e-06
7.60383e-06
-2.73662e-06
-1.12388e-05
3.63846e-06
-4.56658e-06
-1.1945e-05
8.04511e-07
-6.15105e-06
-1.09664e-05
-5.11272e-06
-6.10816e-06
6.41e-05
-8.85625e-08
-3.99629e-07
6.34199e-05
2.44495e-07
-1.12143e-06
6.23096e-05
6.51443e-07
-1.76699e-06
6.07569e-05
1.07314e-06
-2.38504e-06
5.87315e-05
1.48161e-06
-3.0306e-06
5.61865e-05
1.84976e-06
-3.75792e-06
5.30637e-05
2.13151e-06
-4.6161e-06
4.93025e-05
2.26705e-06
-5.64476e-06
4.48445e-05
2.19096e-06
-6.87021e-06
3.96363e-05
1.83963e-06
-8.3002e-06
3.36233e-05
1.14313e-06
-9.91584e-06
2.6741e-05
5.72854e-08
-1.16536e-05
1.90692e-05
-1.60504e-06
-1.33049e-05
1.09379e-05
-3.71264e-06
-1.42983e-05
3.60329e-06
-5.799e-06
-1.31531e-05
-5.54155e-06
-7.12862e-06
8.32276e-05
-9.80153e-08
-3.07736e-07
8.26571e-05
3.90996e-07
-9.11407e-07
8.16826e-05
9.34446e-07
-1.49555e-06
8.02902e-05
1.50553e-06
-2.08583e-06
7.84383e-05
2.08652e-06
-2.71602e-06
7.60561e-05
2.65778e-06
-3.42824e-06
7.30399e-05
3.18129e-06
-4.27113e-06
6.92554e-05
3.6034e-06
-5.29413e-06
6.45417e-05
3.86264e-06
-6.5401e-06
5.87107e-05
3.90522e-06
-8.03577e-06
5.15446e-05
3.68027e-06
-9.7769e-06
4.28144e-05
3.15525e-06
-1.17035e-05
3.22452e-05
2.25544e-06
-1.36492e-05
1.99426e-05
9.67185e-07
-1.50121e-05
7.4089e-06
-7.1351e-07
-1.4058e-05
-2.46921e-06
-7.593e-06
9.85111e-05
-1.22179e-07
-2.53728e-07
9.80387e-05
5.09983e-07
-7.58342e-07
9.72111e-05
1.17877e-06
-1.2576e-06
9.60166e-05
1.88029e-06
-1.77534e-06
9.44129e-05
2.6142e-06
-2.33733e-06
9.23227e-05
3.37907e-06
-2.97584e-06
8.96207e-05
4.1616e-06
-3.73386e-06
8.61239e-05
4.93864e-06
-4.66391e-06
8.15883e-05
5.68097e-06
-5.8225e-06
7.57e-05
6.37712e-06
-7.25958e-06
6.80764e-05
7.02507e-06
-8.99934e-06
5.82431e-05
7.67992e-06
-1.10109e-05
4.56395e-05
8.38633e-06
-1.31623e-05
2.98241e-05
9.21481e-06
-1.49275e-05
1.21902e-05
9.31414e-06
-1.43863e-05
5.21619e-06
-7.82471e-06
0.000109958
-1.44575e-07
-2.192e-07
0.000109557
6.05243e-07
-6.55729e-07
0.000108854
1.3784e-06
-1.08645e-06
0.000107838
2.18697e-06
-1.53525e-06
0.000106471
3.04849e-06
-2.02525e-06
0.000104681
3.98241e-06
-2.58247e-06
0.000102343
5.00633e-06
-3.24279e-06
9.92637e-05
6.14131e-06
-4.05514e-06
9.51628e-05
7.41084e-06
-5.08067e-06
8.96522e-05
8.8776e-06
-6.3856e-06
8.22298e-05
1.06219e-05
-8.023e-06
7.22217e-05
1.2855e-05
-9.99901e-06
5.88028e-05
1.57845e-05
-1.22314e-05
4.08128e-05
1.9948e-05
-1.43449e-05
1.83656e-05
2.4205e-05
-1.43532e-05
1.90227e-05
-7.88587e-06
0.000117579
-1.54144e-07
-1.94373e-07
0.000117232
6.80929e-07
-5.82729e-07
0.000116635
1.52895e-06
-9.62731e-07
0.000115781
2.41417e-06
-1.35684e-06
0.000114638
3.37002e-06
-1.7864e-06
0.000113142
4.43507e-06
-2.27344e-06
0.000111186
5.65572e-06
-2.84732e-06
0.000108592
7.09727e-06
-3.54994e-06
0.000105097
8.83912e-06
-4.43866e-06
0.000100316
1.10298e-05
-5.58334e-06
9.37294e-05
1.38429e-05
-7.05284e-06
8.45686e-05
1.77159e-05
-8.88528e-06
7.18798e-05
2.30393e-05
-1.10379e-05
5.37945e-05
3.13079e-05
-1.33435e-05
2.79319e-05
4.27387e-05
-1.40213e-05
4.24497e-05
-7.79539e-06
0.00012138
-1.75466e-07
-1.44914e-07
0.000121077
-5.27569e-07
7.37984e-07
0.000120579
-8.69156e-07
1.62435e-06
0.000119882
-1.22054e-06
2.54764e-06
0.000118963
-1.60116e-06
3.55411e-06
0.00011777
-2.03008e-06
4.69746e-06
0.00011622
-2.53167e-06
6.04683e-06
0.000114172
-3.14069e-06
7.70143e-06
0.000111414
-3.90673e-06
9.78407e-06
0.00010764
-4.89326e-06
1.25062e-05
0.000102445
-6.16814e-06
1.61007e-05
9.52126e-05
-7.78178e-06
2.11884e-05
8.51746e-05