/*--------------------------------*- C++ -*----------------------------------*\
| =========                 |                                                 |
| \\      /  F ield         | foam-extend: Open Source CFD                    |
|  \\    /   O peration     | Version:     3.1                                |
|   \\  /    A nd           | Web:         http://www.extend-project.de       |
|    \\/     M anipulation  |                                                 |
\*---------------------------------------------------------------------------*/
FoamFile
{
    version     2.0;
    format      ascii;
    class       pointVectorField;
    location    "3.6";
    object      pointMotionU;
}
// * * * * * * * * * * * * * * * * * * * * * * * * * * * * * * * * * * * * * //

dimensions      [0 1 -1 0 0 0 0];

internalField   nonuniform List<vector> 
16859
(
(0 0 0)
(0 0 0)
(0 0 0)
(0 0 0)
(0 0 0)
(0 0 0)
(0 0 0)
(0 0 0)
(0 0 0)
(0 0 0)
(0 0 0)
(0 0 0)
(0 0 0)
(0 0 0)
(0 0 0)
(0 0 0)
(0 0 0)
(0 0 0)
(1.40777e-11 -1.72069e-11 -1.67549e-12)
(2.63509e-11 -3.36543e-11 -3.16967e-12)
(3.59609e-11 -4.96685e-11 -4.38937e-12)
(4.23469e-11 -6.6031e-11 -5.23262e-12)
(4.45871e-11 -8.34544e-11 -5.48646e-12)
(4.11619e-11 -1.02633e-10 -4.76127e-12)
(2.9599e-11 -1.2429e-10 -2.39155e-12)
(5.92678e-12 -1.49237e-10 2.70857e-12)
(-3.61637e-11 -1.78429e-10 1.22402e-11)
(-1.06546e-10 -2.13029e-10 2.87306e-11)
(-2.20291e-10 -2.54461e-10 5.56265e-11)
(-3.99298e-10 -3.04381e-10 9.68844e-11)
(-6.71976e-10 -3.64433e-10 1.55153e-10)
(-1.06351e-09 -4.34938e-10 2.26925e-10)
(-1.54995e-09 -5.06123e-10 2.9323e-10)
(-3.6099e-09 -9.33019e-10 2.35864e-10)
(0 0 0)
(2.85746e-11 -3.36242e-11 -3.41861e-12)
(5.36352e-11 -6.574e-11 -6.49195e-12)
(7.36051e-11 -9.69623e-11 -9.05859e-12)
(8.756e-11 -1.28788e-10 -1.09503e-11)
(9.395e-11 -1.62566e-10 -1.17942e-11)
(9.0205e-11 -1.99581e-10 -1.08929e-11)
(7.21494e-11 -2.41151e-10 -7.04131e-12)
(3.31081e-11 -2.8871e-10 1.75047e-12)
(-3.74459e-11 -3.43905e-10 1.86474e-11)
(-1.55837e-10 -4.08679e-10 4.8471e-11)
(-3.46657e-10 -4.85253e-10 9.81076e-11)
(-6.44839e-10 -5.7576e-10 1.76297e-10)
(-1.0935e-09 -6.8078e-10 2.91401e-10)
(-1.72472e-09 -7.94803e-10 4.44088e-10)
(-2.48795e-09 -8.92876e-10 6.08895e-10)
(-5.05631e-09 -8.80682e-10 1.15831e-09)
(0 0 0)
(4.38126e-11 -4.85541e-11 -5.28262e-12)
(8.25685e-11 -9.48747e-11 -1.00868e-11)
(1.14212e-10 -1.39796e-10 -1.42269e-11)
(1.37792e-10 -1.85414e-10 -1.75315e-11)
(1.51627e-10 -2.33572e-10 -1.95623e-11)
(1.52875e-10 -2.85974e-10 -1.94619e-11)
(1.36918e-10 -3.44297e-10 -1.57156e-11)
(9.64306e-11 -4.10281e-10 -5.77989e-12)
(1.99991e-11 -4.85829e-10 1.44717e-11)
(-1.09835e-10 -5.73095e-10 5.15123e-11)
(-3.18977e-10 -6.74438e-10 1.15038e-10)
(-6.43552e-10 -7.91943e-10 2.18447e-10)
(-1.1268e-09 -9.2554e-10 3.77193e-10)
(-1.79763e-09 -1.06751e-09 6.00089e-10)
(-2.60101e-09 -1.18982e-09 8.60815e-10)
(-5.33787e-09 -1.36385e-09 1.66249e-09)
(0 0 0)
(5.98995e-11 -6.13897e-11 -7.28974e-12)
(1.13403e-10 -1.19866e-10 -1.40064e-11)
(1.58255e-10 -1.76399e-10 -1.99933e-11)
(1.93862e-10 -2.33526e-10 -2.51531e-11)
(2.18959e-10 -2.93408e-10 -2.90968e-11)
(2.31276e-10 -3.57959e-10 -3.09899e-11)
(2.27091e-10 -4.28929e-10 -2.93001e-11)
(2.00555e-10 -5.07986e-10 -2.13963e-11)
(1.42735e-10 -5.96786e-10 -2.92165e-12)
(4.02487e-11 -6.97053e-10 3.31397e-11)
(-1.26439e-10 -8.10647e-10 9.77091e-11)
(-3.84501e-10 -9.39498e-10 2.06818e-10)
(-7.6736e-10 -1.08486e-09 3.81016e-10)
(-1.30099e-09 -1.2441e-09 6.36633e-10)
(-1.95803e-09 -1.40068e-09 9.50891e-10)
(-4.36888e-09 -1.87657e-09 1.96101e-09)
(0 0 0)
(7.6702e-11 -7.16546e-11 -9.42636e-12)
(1.45868e-10 -1.39793e-10 -1.82235e-11)
(2.05299e-10 -2.05427e-10 -2.6316e-11)
(2.55091e-10 -2.71365e-10 -3.37537e-11)
(2.94847e-10 -3.39909e-10 -4.0308e-11)
(3.23541e-10 -4.12959e-10 -4.53427e-11)
(3.39354e-10 -4.92073e-10 -4.75964e-11)
(3.39455e-10 -5.78478e-10 -4.4827e-11)
(3.19725e-10 -6.73085e-10 -3.32434e-11)
(2.74357e-10 -7.76512e-10 -6.62596e-12)
(1.95227e-10 -8.89239e-10 4.49432e-11)
(7.08181e-11 -1.01204e-09 1.36587e-10)
(-1.15405e-10 -1.14678e-09 2.89091e-10)
(-3.84947e-10 -1.29651e-09 5.22584e-10)
(-7.5679e-10 -1.45965e-09 8.2477e-10)
(-2.50077e-09 -2.18478e-09 1.90873e-09)
(0 0 0)
(9.38624e-11 -7.90174e-11 -1.16442e-11)
(1.79214e-10 -1.54024e-10 -2.26352e-11)
(2.54092e-10 -2.25994e-10 -3.30191e-11)
(3.19487e-10 -2.97842e-10 -4.30476e-11)
(3.76126e-10 -3.71845e-10 -5.27344e-11)
(4.24554e-10 -4.49717e-10 -6.17708e-11)
(4.65282e-10 -5.32607e-10 -6.93768e-11)
(4.99048e-10 -6.21033e-10 -7.40539e-11)
(5.27223e-10 -7.14783e-10 -7.31912e-11)
(5.52385e-10 -8.12811e-10 -6.24651e-11)
(5.78878e-10 -9.13301e-10 -3.49895e-11)
(6.12628e-10 -1.01422e-09 1.96898e-11)
(6.57936e-10 -1.11502e-09 1.16027e-10)
(7.05748e-10 -1.21976e-09 2.68995e-10)
(6.97689e-10 -1.33929e-09 4.75152e-10)
(-8.22663e-11 -2.09863e-09 1.38427e-09)
(0 0 0)
(1.1086e-10 -8.32911e-11 -1.38686e-11)
(2.12349e-10 -1.62219e-10 -2.70813e-11)
(3.02821e-10 -2.37662e-10 -3.98272e-11)
(3.84209e-10 -3.125e-10 -5.25864e-11)
(4.58381e-10 -3.88864e-10 -6.56515e-11)
(5.27396e-10 -4.68163e-10 -7.9096e-11)
(5.93908e-10 -5.51027e-10 -9.27053e-11)
(6.61737e-10 -6.37155e-10 -1.05856e-10)
(7.36724e-10 -7.25091e-10 -1.17337e-10)
(8.27855e-10 -8.11948e-10 -1.25115e-10)
(9.48494e-10 -8.93255e-10 -1.26119e-10)
(1.11689e-09 -9.63253e-10 -1.1631e-10)
(1.35316e-09 -1.01664e-09 -9.17618e-11)
(1.66415e-09 -1.0537e-09 -5.25788e-11)
(1.98187e-09 -1.09142e-09 -1.04618e-11)
(2.51601e-09 -1.81135e-09 2.86554e-10)
(0 0 0)
(1.27078e-10 -8.44202e-11 -1.60086e-11)
(2.43997e-10 -1.64301e-10 -3.13681e-11)
(3.49405e-10 -2.40391e-10 -4.64108e-11)
(4.46084e-10 -3.15432e-10 -6.18403e-11)
(5.36846e-10 -3.91327e-10 -7.82168e-11)
(6.24914e-10 -4.69141e-10 -9.59734e-11)
(7.14423e-10 -5.48993e-10 -1.15412e-10)
(8.11095e-10 -6.29834e-10 -1.36683e-10)
(9.23122e-10 -7.09136e-10 -1.59766e-10)
(1.06219e-09 -7.82513e-10 -1.84489e-10)
(1.24425e-09 -8.43361e-10 -2.10729e-10)
(1.48904e-09 -8.82862e-10 -2.39106e-10)
(1.81507e-09 -8.91137e-10 -2.72896e-10)
(2.22252e-09 -8.61174e-10 -3.22319e-10)
(2.64475e-09 -7.95293e-10 -4.11197e-10)
(4.01216e-09 -1.27311e-09 -1.53858e-09)
(0 0 0)
(0 0 0)
(0 0 0)
(0 0 0)
(0 0 0)
(0 0 0)
(0 0 0)
(0 0 0)
(0 0 0)
(0 0 0)
(0 0 0)
(0 0 0)
(0 0 0)
(0 0 0)
(0 0 0)
(0 0 0)
(0 0 0)
(0 0 0)
(1.4588e-11 -1.82728e-11 -1.75209e-12)
(2.73088e-11 -3.57802e-11 -3.34507e-12)
(3.72753e-11 -5.29082e-11 -4.71576e-12)
(4.39033e-11 -7.05263e-11 -5.80326e-12)
(4.6225e-11 -8.94301e-11 -6.45262e-12)
(4.26413e-11 -1.10395e-10 -6.35921e-12)
(3.05562e-11 -1.34224e-10 -4.98155e-12)
(5.81857e-12 -1.618e-10 -1.40944e-12)
(-3.81181e-11 -1.94135e-10 5.82105e-12)
(-1.11401e-10 -2.32441e-10 1.89448e-11)
(-2.29326e-10 -2.78236e-10 4.11085e-11)
(-4.1374e-10 -3.33565e-10 7.61019e-11)
(-6.92167e-10 -4.01506e-10 1.26859e-10)
(-1.08586e-09 -4.86599e-10 1.91079e-10)
(-1.54573e-09 -5.86157e-10 2.51616e-10)
(-2.79504e-09 -1.15482e-09 2.60251e-10)
(0 0 0)
(2.96255e-11 -3.57063e-11 -3.5636e-12)
(5.56197e-11 -6.98909e-11 -6.82477e-12)
(7.63605e-11 -1.03285e-10 -9.67977e-12)
(9.08946e-11 -1.37554e-10 -1.20393e-11)
(9.76071e-11 -1.74206e-10 -1.36421e-11)
(9.38143e-11 -2.14682e-10 -1.39547e-11)
(7.51685e-11 -2.60443e-10 -1.20109e-11)
(3.47635e-11 -3.13044e-10 -6.16098e-12)
(-3.81877e-11 -3.74205e-10 6.301e-12)
(-1.60191e-10 -4.45864e-10 2.96307e-11)
(-3.55651e-10 -5.30169e-10 7.01401e-11)
(-6.58227e-10 -6.29275e-10 1.36282e-10)
(-1.107e-09 -7.44472e-10 2.37078e-10)
(-1.72235e-09 -8.72993e-10 3.75636e-10)
(-2.40811e-09 -9.9479e-10 5.2767e-10)
(-3.65022e-09 -1.1727e-09 8.99662e-10)
(0 0 0)
(4.54566e-11 -5.15588e-11 -5.48088e-12)
(8.5698e-11 -1.00861e-10 -1.05439e-11)
(1.18626e-10 -1.48907e-10 -1.50844e-11)
(1.43285e-10 -1.9803e-10 -1.90419e-11)
(1.57952e-10 -2.50299e-10 -2.21351e-11)
(1.59712e-10 -3.07631e-10 -2.37375e-11)
(1.43845e-10 -3.7189e-10 -2.26721e-11)
(1.02941e-10 -4.44956e-10 -1.68773e-11)
(2.56228e-11 -5.28763e-10 -2.88003e-12)
(-1.05156e-10 -6.25295e-10 2.49828e-11)
(-3.13957e-10 -7.36421e-10 7.55834e-11)
(-6.33439e-10 -8.63307e-10 1.61915e-10)
(-1.09881e-09 -1.00459e-09 3.00414e-10)
(-1.72078e-09 -1.15125e-09 5.03296e-10)
(-2.39184e-09 -1.27385e-09 7.43244e-10)
(-3.51117e-09 -1.39903e-09 1.34512e-09)
(0 0 0)
(6.21953e-11 -6.51859e-11 -7.52101e-12)
(1.17811e-10 -1.27425e-10 -1.45431e-11)
(1.64573e-10 -1.87889e-10 -2.10084e-11)
(2.0194e-10 -2.49412e-10 -2.69541e-11)
(2.28676e-10 -3.14431e-10 -3.21825e-11)
(2.42553e-10 -3.8511e-10 -3.61399e-11)
(2.39935e-10 -4.6341e-10 -3.77071e-11)
(2.15222e-10 -5.51124e-10 -3.48441e-11)
(1.60097e-10 -6.49852e-10 -2.40024e-11)
(6.25975e-11 -7.60919e-10 8.19108e-13)
(-9.38126e-11 -8.8517e-10 4.94831e-11)
(-3.3034e-10 -1.0225e-09 1.37441e-10)
(-6.69244e-10 -1.1707e-09 2.8632e-10)
(-1.11652e-09 -1.32205e-09 5.16414e-10)
(-1.60022e-09 -1.45236e-09 8.02327e-10)
(-2.37184e-09 -1.57912e-09 1.56012e-09)
(0 0 0)
(7.96983e-11 -7.6082e-11 -9.66752e-12)
(1.51665e-10 -1.48601e-10 -1.8789e-11)
(2.13728e-10 -2.18801e-10 -2.73986e-11)
(2.6611e-10 -2.89827e-10 -3.56951e-11)
(3.08556e-10 -3.64288e-10 -4.36615e-11)
(3.40242e-10 -4.44358e-10 -5.09729e-11)
(3.59701e-10 -5.31803e-10 -5.68255e-11)
(3.64789e-10 -6.27941e-10 -5.96358e-11)
(3.52739e-10 -7.33519e-10 -5.65204e-11)
(3.20355e-10 -8.48504e-10 -4.24184e-11)
(2.64385e-10 -9.71813e-10 -8.66949e-12)
(1.8189e-10 -1.10105e-09 5.90332e-11)
(7.0186e-11 -1.23231e-09 1.82406e-10)
(-7.28908e-11 -1.35944e-09 3.85853e-10)
(-2.38837e-10 -1.46755e-09 6.55233e-10)
(-5.16174e-10 -1.52073e-09 1.45484e-09)
(0 0 0)
(9.75834e-11 -8.38955e-11 -1.18718e-11)
(1.86458e-10 -1.63721e-10 -2.31777e-11)
(2.6474e-10 -2.407e-10 -3.40771e-11)
(3.3364e-10 -3.1811e-10 -4.49753e-11)
(3.94145e-10 -3.98552e-10 -5.61035e-11)
(4.47177e-10 -4.84015e-10 -6.74723e-11)
(4.93875e-10 -5.75843e-10 -7.87708e-11)
(5.36091e-10 -6.74596e-10 -8.91757e-11)
(5.77233e-10 -7.79794e-10 -9.70104e-11)
(6.23582e-10 -8.89519e-10 -9.9159e-11)
(6.86049e-10 -9.99908e-10 -9.0092e-11)
(7.81695e-10 -1.10473e-09 -6.03692e-11)
(9.32031e-10 -1.19549e-09 5.08997e-12)
(1.14905e-09 -1.26291e-09 1.25704e-10)
(1.38385e-09 -1.30131e-09 3.01163e-10)
(1.78565e-09 -1.09779e-09 9.65832e-10)
(0 0 0)
(1.15296e-10 -8.84281e-11 -1.40611e-11)
(2.21024e-10 -1.72425e-10 -2.75533e-11)
(3.15669e-10 -2.53122e-10 -4.07761e-11)
(4.01472e-10 -3.33775e-10 -5.43585e-11)
(4.80669e-10 -4.16838e-10 -6.88025e-11)
(5.55848e-10 -5.03987e-10 -8.44884e-11)
(6.30498e-10 -5.96024e-10 -1.01648e-10)
(7.09861e-10 -6.92647e-10 -1.20299e-10)
(8.02254e-10 -7.92053e-10 -1.40107e-10)
(9.20995e-10 -8.90339e-10 -1.60171e-10)
(1.08694e-09 -9.80717e-10 -1.78699e-10)
(1.33096e-09 -1.05267e-09 -1.92656e-10)
(1.69326e-09 -1.09171e-09 -1.97734e-10)
(2.20731e-09 -1.08235e-09 -1.89918e-10)
(2.81052e-09 -1.02551e-09 -1.70744e-10)
(4.23491e-09 -5.17315e-10 8.96317e-11)
(0 0 0)
(1.32182e-10 -8.96221e-11 -1.61487e-11)
(2.54006e-10 -1.74631e-10 -3.1731e-11)
(3.64299e-10 -2.56026e-10 -4.71817e-11)
(4.66216e-10 -3.36917e-10 -6.33405e-11)
(5.63019e-10 -4.19524e-10 -8.09582e-11)
(6.58552e-10 -5.05161e-10 -1.00744e-10)
(7.57893e-10 -5.94094e-10 -1.23398e-10)
(8.68296e-10 -6.85241e-10 -1.49629e-10)
(1.0005e-09 -7.75696e-10 -1.80168e-10)
(1.17047e-09 -8.60032e-10 -2.15782e-10)
(1.40123e-09 -9.29379e-10 -2.57341e-10)
(1.72396e-09 -9.70384e-10 -3.06125e-10)
(2.17463e-09 -9.64711e-10 -3.64773e-10)
(2.77582e-09 -8.91369e-10 -4.39669e-10)
(3.47262e-09 -7.37263e-10 -5.44337e-10)
(5.73831e-09 1.07743e-10 -1.22629e-09)
(0 0 0)
(0 0 0)
(0 0 0)
(0 0 0)
(0 0 0)
(0 0 0)
(0 0 0)
(0 0 0)
(0 0 0)
(0 0 0)
(0 0 0)
(0 0 0)
(0 0 0)
(0 0 0)
(0 0 0)
(0 0 0)
(0 0 0)
(0 0 0)
(1.50322e-11 -1.93202e-11 -1.75999e-12)
(2.81357e-11 -3.7876e-11 -3.39114e-12)
(3.83901e-11 -5.61176e-11 -4.8655e-12)
(4.51813e-11 -7.50058e-11 -6.1715e-12)
(4.74914e-11 -9.54262e-11 -7.2311e-12)
(4.3647e-11 -1.18244e-10 -7.86352e-12)
(3.09563e-11 -1.4435e-10 -7.72749e-12)
(5.17738e-12 -1.747e-10 -6.23435e-12)
(-4.02368e-11 -2.10343e-10 -2.43084e-12)
(-1.15114e-10 -2.52455e-10 5.12149e-12)
(-2.33544e-10 -3.02375e-10 1.83626e-11)
(-4.13984e-10 -3.61731e-10 3.9349e-11)
(-6.75715e-10 -4.32734e-10 6.88279e-11)
(-1.02346e-09 -5.18021e-10 1.02912e-10)
(-1.39485e-09 -6.11986e-10 1.29027e-10)
(-2.38433e-09 -1.0342e-09 8.41693e-11)
(0 0 0)
(3.05431e-11 -3.77533e-11 -3.56897e-12)
(5.73392e-11 -7.39855e-11 -6.89367e-12)
(7.87097e-11 -1.09552e-10 -9.93731e-12)
(9.36564e-11 -1.46298e-10 -1.27041e-11)
(1.00487e-10 -1.85903e-10 -1.50788e-11)
(9.64026e-11 -2.29983e-10 -1.67635e-11)
(7.69171e-11 -2.80166e-10 -1.71734e-11)
(3.50198e-11 -3.38145e-10 -1.52726e-11)
(-3.9973e-11 -4.05699e-10 -9.33591e-12)
(-1.63811e-10 -4.8465e-10 3.34813e-12)
(-3.58426e-10 -5.76701e-10 2.67043e-11)
(-6.50905e-10 -6.82975e-10 6.56077e-11)
(-1.06496e-09 -8.02785e-10 1.24062e-10)
(-1.59155e-09 -9.30121e-10 1.99724e-10)
(-2.11337e-09 -1.0428e-09 2.72615e-10)
(-2.83617e-09 -1.13091e-09 3.56612e-10)
(0 0 0)
(4.68978e-11 -5.45146e-11 -5.46462e-12)
(8.84227e-11 -1.06771e-10 -1.0593e-11)
(1.22415e-10 -1.57947e-10 -1.53728e-11)
(1.47883e-10 -2.10632e-10 -1.98718e-11)
(1.63037e-10 -2.67141e-10 -2.40096e-11)
(1.64861e-10 -3.2964e-10 -2.74841e-11)
(1.48539e-10 -4.00227e-10 -2.96444e-11)
(1.0666e-10 -4.80967e-10 -2.92787e-11)
(2.82046e-11 -5.7386e-10 -2.42782e-11)
(-1.02555e-10 -6.8067e-10 -1.11498e-11)
(-3.06524e-10 -8.02489e-10 1.55636e-11)
(-6.07457e-10 -9.38705e-10 6.35707e-11)
(-1.02103e-09 -1.08463e-09 1.41474e-10)
(-1.52287e-09 -1.22649e-09 2.51979e-10)
(-1.98391e-09 -1.33354e-09 3.71647e-10)
(-2.42475e-09 -1.42306e-09 5.63233e-10)
(0 0 0)
(6.42171e-11 -6.8922e-11 -7.45827e-12)
(1.21669e-10 -1.34891e-10 -1.4517e-11)
(1.70035e-10 -1.99301e-10 -2.12274e-11)
(2.08775e-10 -2.65305e-10 -2.77772e-11)
(2.36636e-10 -3.35649e-10 -3.42058e-11)
(2.51363e-10 -4.128e-10 -4.0342e-11)
(2.49345e-10 -4.99008e-10 -4.56877e-11)
(2.25202e-10 -5.96292e-10 -4.92073e-11)
(1.71349e-10 -7.06315e-10 -4.89687e-11)
(7.77668e-11 -8.30088e-10 -4.15578e-11)
(-6.74995e-11 -9.67379e-10 -2.12284e-11)
(-2.75669e-10 -1.11561e-09 2.09867e-11)
(-5.49062e-10 -1.26784e-09 9.68598e-11)
(-8.61023e-10 -1.40938e-09 2.14363e-10)
(-1.12415e-09 -1.51347e-09 3.52156e-10)
(-1.19021e-09 -1.63497e-09 6.07682e-10)
(0 0 0)
(8.23494e-11 -8.04419e-11 -9.53138e-12)
(1.56767e-10 -1.57309e-10 -1.86273e-11)
(2.21065e-10 -2.32099e-10 -2.74388e-11)
(2.75531e-10 -3.08326e-10 -3.63238e-11)
(3.19967e-10 -3.88953e-10 -4.55169e-11)
(3.5364e-10 -4.76499e-10 -5.50997e-11)
(3.75287e-10 -5.73056e-10 -6.49273e-11)
(3.83265e-10 -6.80199e-10 -7.44781e-11)
(3.75968e-10 -7.9874e-10 -8.25735e-11)
(3.52748e-10 -9.28281e-10 -8.68759e-11)
(3.15595e-10 -1.06647e-09 -8.30578e-11)
(2.71717e-10 -1.20791e-09 -6.36604e-11)
(2.36258e-10 -1.34275e-09 -1.74748e-11)
(2.31849e-10 -1.45549e-09 6.64456e-11)
(2.71234e-10 -1.52637e-09 1.76921e-10)
(6.34139e-10 -1.59339e-09 4.16777e-10)
(0 0 0)
(1.00891e-10 -8.87022e-11 -1.1637e-11)
(1.92867e-10 -1.73316e-10 -2.28237e-11)
(2.74072e-10 -2.5534e-10 -3.38349e-11)
(3.45851e-10 -3.38453e-10 -4.52308e-11)
(4.09345e-10 -4.25638e-10 -5.74882e-11)
(4.65693e-10 -5.19253e-10 -7.10148e-11)
(5.16426e-10 -6.2099e-10 -8.61397e-11)
(5.6417e-10 -7.31687e-10 -1.03062e-10)
(6.13881e-10 -8.50942e-10 -1.21728e-10)
(6.74861e-10 -9.76469e-10 -1.41574e-10)
(7.6371e-10 -1.10309e-09 -1.61052e-10)
(9.07476e-10 -1.22134e-09 -1.76845e-10)
(1.14312e-09 -1.31609e-09 -1.82949e-10)
(1.49928e-09 -1.36689e-09 -1.71125e-10)
(1.91849e-09 -1.3603e-09 -1.3888e-10)
(2.85856e-09 -1.18034e-09 -2.42348e-11)
(0 0 0)
(1.19257e-10 -9.34936e-11 -1.37075e-11)
(2.28738e-10 -1.82531e-10 -2.69611e-11)
(3.27e-10 -2.6853e-10 -4.01669e-11)
(4.16493e-10 -3.5516e-10 -5.40931e-11)
(4.9969e-10 -4.4527e-10 -6.9465e-11)
(5.79512e-10 -5.40914e-10 -8.70227e-11)
(6.59989e-10 -6.43247e-10 -1.07573e-10)
(7.47331e-10 -7.5225e-10 -1.32035e-10)
(8.51627e-10 -8.66216e-10 -1.61478e-10)
(9.8943e-10 -9.80914e-10 -1.97127e-10)
(1.18734e-09 -1.08832e-09 -2.40331e-10)
(1.4858e-09 -1.17486e-09 -2.92459e-10)
(1.93894e-09 -1.21958e-09 -3.54681e-10)
(2.5931e-09 -1.19546e-09 -4.27063e-10)
(3.37107e-09 -1.09295e-09 -5.01623e-10)
(5.33622e-09 -5.91477e-10 -6.38033e-10)
(0 0 0)
(1.3676e-10 -9.47549e-11 -1.56635e-11)
(2.62952e-10 -1.84867e-10 -3.08709e-11)
(3.77514e-10 -2.71622e-10 -4.61492e-11)
(4.8387e-10 -3.58541e-10 -6.24542e-11)
(5.85588e-10 -4.48234e-10 -8.07259e-11)
(6.86919e-10 -5.42386e-10 -1.01978e-10)
(7.93564e-10 -6.41604e-10 -1.27389e-10)
(9.13806e-10 -7.45084e-10 -1.58407e-10)
(1.06016e-09 -8.50027e-10 -1.96864e-10)
(1.25164e-09 -9.50731e-10 -2.45099e-10)
(1.51644e-09 -1.03727e-09 -3.0608e-10)
(1.89394e-09 -1.09371e-09 -3.83422e-10)
(2.43161e-09 -1.0964e-09 -4.81044e-10)
(3.16283e-09 -1.01521e-09 -6.01231e-10)
(4.0286e-09 -8.27483e-10 -7.3719e-10)
(6.95799e-09 -1.61754e-11 -1.22121e-09)
(0 0 0)
(0 0 0)
(0 0 0)
(0 0 0)
(0 0 0)
(0 0 0)
(0 0 0)
(0 0 0)
(0 0 0)
(0 0 0)
(0 0 0)
(0 0 0)
(0 0 0)
(0 0 0)
(0 0 0)
(0 0 0)
(0 0 0)
(0 0 0)
(1.53968e-11 -2.03118e-11 -1.68338e-12)
(2.8803e-11 -3.98656e-11 -3.2715e-12)
(3.9258e-11 -5.91787e-11 -4.7703e-12)
(4.61056e-11 -7.93061e-11 -6.21585e-12)
(4.82619e-11 -1.01228e-10 -7.60992e-12)
(4.39556e-11 -1.25912e-10 -8.90729e-12)
(3.0365e-11 -1.54351e-10 -9.99602e-12)
(3.10509e-12 -1.87598e-10 -1.06716e-11)
(-4.4455e-11 -2.26769e-10 -1.06147e-11)
(-1.21981e-10 -2.73011e-10 -9.40731e-12)
(-2.42752e-10 -3.27446e-10 -6.68034e-12)
(-4.23064e-10 -3.91083e-10 -2.58658e-12)
(-6.78016e-10 -4.64737e-10 1.14556e-12)
(-1.00763e-09 -5.48345e-10 -1.32123e-13)
(-1.35384e-09 -6.33392e-10 -1.16699e-11)
(-2.37117e-09 -9.92001e-10 -1.06224e-10)
(0 0 0)
(3.12993e-11 -3.96913e-11 -3.40446e-12)
(5.87343e-11 -7.78736e-11 -6.62892e-12)
(8.05551e-11 -1.15533e-10 -9.70021e-12)
(9.5692e-11 -1.54697e-10 -1.27116e-11)
(1.02339e-10 -1.97234e-10 -1.56977e-11)
(9.75283e-11 -2.44955e-10 -1.86161e-11)
(7.65507e-11 -2.99695e-10 -2.13153e-11)
(3.21576e-11 -3.63342e-10 -2.34886e-11)
(-4.64542e-11 -4.3781e-10 -2.46229e-11)
(-1.74694e-10 -5.24894e-10 -2.39823e-11)
(-3.7296e-10 -6.25897e-10 -2.07501e-11)
(-6.64338e-10 -7.40835e-10 -1.46043e-11)
(-1.06483e-09 -8.66683e-10 -7.15114e-12)
(-1.5565e-09 -9.93517e-10 -4.06844e-12)
(-2.02895e-09 -1.09603e-09 -1.32249e-11)
(-2.74869e-09 -1.11255e-09 -1.05142e-10)
(0 0 0)
(4.80926e-11 -5.73137e-11 -5.19162e-12)
(9.06507e-11 -1.12385e-10 -1.01368e-11)
(1.25427e-10 -1.66579e-10 -1.4909e-11)
(1.51353e-10 -2.22751e-10 -1.96951e-11)
(1.66506e-10 -2.83484e-10 -2.46169e-11)
(1.67676e-10 -3.51231e-10 -2.97185e-11)
(1.49791e-10 -4.28392e-10 -3.49386e-11)
(1.05183e-10 -5.1733e-10 -4.00626e-11)
(2.27448e-11 -6.20273e-10 -4.46527e-11)
(-1.12745e-10 -7.39002e-10 -4.79758e-11)
(-3.20209e-10 -8.74159e-10 -4.9013e-11)
(-6.18452e-10 -1.0238e-09 -4.67917e-11)
(-1.01389e-09 -1.18062e-09 -4.15525e-11)
(-1.47188e-09 -1.32712e-09 -3.7139e-11)
(-1.87202e-09 -1.43093e-09 -4.12319e-11)
(-2.32102e-09 -1.49051e-09 -1.22923e-10)
(0 0 0)
(6.59048e-11 -7.24616e-11 -7.05081e-12)
(1.24851e-10 -1.41988e-10 -1.38107e-11)
(1.74435e-10 -2.10209e-10 -2.04292e-11)
(2.14055e-10 -2.8061e-10 -2.72286e-11)
(2.42345e-10 -3.56279e-10 -3.44796e-11)
(2.56873e-10 -4.40046e-10 -4.241e-11)
(2.53811e-10 -5.34557e-10 -5.12028e-11)
(2.27575e-10 -6.42231e-10 -6.0979e-11)
(1.70585e-10 -7.65082e-10 -7.17548e-11)
(7.34477e-11 -9.04273e-10 -8.33666e-11)
(-7.37272e-11 -1.05926e-09 -9.53789e-11)
(-2.77416e-10 -1.22629e-09 -1.07095e-10)
(-5.31708e-10 -1.3961e-09 -1.18057e-10)
(-8.0202e-10 -1.55116e-09 -1.29605e-10)
(-1.01123e-09 -1.66416e-09 -1.45171e-10)
(-1.12561e-09 -1.81204e-09 -2.41213e-10)
(0 0 0)
(8.45781e-11 -8.45741e-11 -8.96266e-12)
(1.61013e-10 -1.65591e-10 -1.76102e-11)
(2.27051e-10 -2.44822e-10 -2.61939e-11)
(2.82959e-10 -3.26167e-10 -3.52064e-11)
(3.28471e-10 -4.12986e-10 -4.51183e-11)
(3.62741e-10 -5.08227e-10 -5.64211e-11)
(3.84369e-10 -6.14455e-10 -6.96713e-11)
(3.91622e-10 -7.33751e-10 -8.55381e-11)
(3.83032e-10 -8.67424e-10 -1.04849e-10)
(3.58662e-10 -1.01545e-09 -1.28621e-10)
(3.22402e-10 -1.1755e-09 -1.58041e-10)
(2.85268e-10 -1.34158e-09 -1.94369e-10)
(2.68048e-10 -1.50245e-09 -2.38694e-10)
(2.96716e-10 -1.64112e-09 -2.91209e-10)
(3.72289e-10 -1.73749e-09 -3.46235e-10)
(6.28285e-10 -1.90321e-09 -5.089e-10)
(0 0 0)
(1.0369e-10 -9.32604e-11 -1.08841e-11)
(1.98245e-10 -1.82449e-10 -2.1443e-11)
(2.81773e-10 -2.6936e-10 -3.20448e-11)
(3.55652e-10 -3.58098e-10 -4.33701e-11)
(4.21017e-10 -4.52082e-10 -5.61141e-11)
(4.78976e-10 -5.54143e-10 -7.10678e-11)
(5.31031e-10 -6.66504e-10 -8.92158e-11)
(5.79854e-10 -7.906e-10 -1.11865e-10)
(6.30677e-10 -9.26674e-10 -1.4081e-10)
(6.93592e-10 -1.07306e-09 -1.78549e-10)
(7.86891e-10 -1.22509e-09 -2.28511e-10)
(9.40506e-10 -1.3736e-09 -2.95183e-10)
(1.19467e-09 -1.50364e-09 -3.83624e-10)
(1.57757e-09 -1.59567e-09 -4.9617e-10)
(2.01956e-09 -1.63619e-09 -6.17068e-10)
(2.80894e-09 -1.63967e-09 -9.14012e-10)
(0 0 0)
(1.22631e-10 -9.83e-11 -1.27549e-11)
(2.35261e-10 -1.92157e-10 -2.51804e-11)
(3.36449e-10 -2.83298e-10 -3.77614e-11)
(4.28732e-10 -3.75838e-10 -5.13619e-11)
(5.14647e-10 -4.73078e-10 -6.68914e-11)
(5.97164e-10 -5.7757e-10 -8.54179e-11)
(6.80385e-10 -6.91032e-10 -1.0831e-10)
(7.70682e-10 -8.14097e-10 -1.37424e-10)
(8.78528e-10 -9.45801e-10 -1.75365e-10)
(1.0213e-09 -1.08275e-09 -2.25826e-10)
(1.22712e-09 -1.21784e-09 -2.94014e-10)
(1.53871e-09 -1.33864e-09 -3.87025e-10)
(2.01233e-09 -1.42616e-09 -5.13545e-10)
(2.69274e-09 -1.45752e-09 -6.79831e-10)
(3.4917e-09 -1.42597e-09 -8.66664e-10)
(5.36238e-09 -1.22636e-09 -1.35254e-09)
(0 0 0)
(1.40683e-10 -9.96279e-11 -1.4506e-11)
(2.70572e-10 -1.94623e-10 -2.86761e-11)
(3.88637e-10 -2.86581e-10 -4.30971e-11)
(4.98446e-10 -3.79469e-10 -5.87899e-11)
(6.03686e-10 -4.7635e-10 -7.6835e-11)
(7.08724e-10 -5.79403e-10 -9.85042e-11)
(8.19402e-10 -6.89799e-10 -1.25419e-10)
(9.44236e-10 -8.07392e-10 -1.59754e-10)
(1.09616e-09 -9.30151e-10 -2.04496e-10)
(1.29494e-09 -1.05327e-09 -2.63752e-10)
(1.57006e-09 -1.16789e-09 -3.43022e-10)
(1.96271e-09 -1.25945e-09 -4.49159e-10)
(2.52212e-09 -1.30654e-09 -5.89029e-10)
(3.2813e-09 -1.28308e-09 -7.63876e-10)
(4.17625e-09 -1.17061e-09 -9.5114e-10)
(6.99255e-09 -7.92151e-10 -1.52532e-09)
(0 0 0)
(0 0 0)
(0 0 0)
(0 0 0)
(0 0 0)
(0 0 0)
(0 0 0)
(0 0 0)
(0 0 0)
(0 0 0)
(0 0 0)
(0 0 0)
(0 0 0)
(0 0 0)
(0 0 0)
(0 0 0)
(0 0 0)
(0 0 0)
(1.56764e-11 -2.12045e-11 -1.51143e-12)
(2.93011e-11 -4.16619e-11 -2.95945e-12)
(3.98668e-11 -6.19551e-11 -4.37567e-12)
(4.66622e-11 -8.3231e-11 -5.83122e-12)
(4.85165e-11 -1.06567e-10 -7.39185e-12)
(4.35231e-11 -1.33037e-10 -9.12625e-12)
(2.86582e-11 -1.63756e-10 -1.11206e-11)
(-7.47371e-13 -1.99905e-10 -1.35069e-11)
(-5.16965e-11 -2.42718e-10 -1.65221e-11)
(-1.34297e-10 -2.93411e-10 -2.06285e-11)
(-2.62301e-10 -3.53038e-10 -2.67489e-11)
(-4.52545e-10 -4.22286e-10 -3.6663e-11)
(-7.21175e-10 -5.0123e-10 -5.3433e-11)
(-1.07093e-09 -5.88649e-10 -8.08167e-11)
(-1.44641e-09 -6.75246e-10 -1.17035e-10)
(-2.62115e-09 -1.05767e-09 -2.38279e-10)
(0 0 0)
(3.18826e-11 -4.14364e-11 -3.04969e-12)
(5.97845e-11 -8.13845e-11 -5.98018e-12)
(8.187e-11 -1.20959e-10 -8.8654e-12)
(9.69708e-11 -1.62367e-10 -1.18624e-11)
(1.03122e-10 -2.07668e-10 -1.51239e-11)
(9.7108e-11 -2.58886e-10 -1.88193e-11)
(7.38456e-11 -3.18097e-10 -2.31673e-11)
(2.55564e-11 -3.87454e-10 -2.84951e-11)
(-5.92662e-11 -4.69129e-10 -3.53465e-11)
(-1.96884e-10 -5.65089e-10 -4.46838e-11)
(-4.08634e-10 -6.76586e-10 -5.82449e-11)
(-7.18646e-10 -8.03093e-10 -7.90788e-11)
(-1.14463e-09 -9.40225e-10 -1.11956e-10)
(-1.67252e-09 -1.07568e-09 -1.61891e-10)
(-2.19447e-09 -1.18172e-09 -2.23814e-10)
(-3.11442e-09 -1.18669e-09 -3.90731e-10)
(0 0 0)
(4.90222e-11 -5.98347e-11 -4.63449e-12)
(9.23476e-11 -1.17456e-10 -9.10712e-12)
(1.27619e-10 -1.74415e-10 -1.35522e-11)
(1.53643e-10 -2.33827e-10 -1.82379e-11)
(1.68296e-10 -2.98553e-10 -2.34402e-11)
(1.68042e-10 -3.71359e-10 -2.94836e-11)
(1.47318e-10 -4.55011e-10 -3.68012e-11)
(9.77437e-11 -5.52285e-10 -4.60316e-11)
(7.24084e-12 -6.65843e-10 -5.81768e-11)
(-1.40649e-10 -7.97841e-10 -7.48572e-11)
(-3.66336e-10 -9.49059e-10 -9.86895e-11)
(-6.90441e-10 -1.11715e-09 -1.33721e-10)
(-1.12215e-09 -1.29339e-09 -1.8541e-10)
(-1.63174e-09 -1.45755e-09 -2.58014e-10)
(-2.09996e-09 -1.57324e-09 -3.41693e-10)
(-2.8044e-09 -1.64119e-09 -5.46883e-10)
(0 0 0)
(6.72305e-11 -7.56506e-11 -6.26747e-12)
(1.27307e-10 -1.48402e-10 -1.23457e-11)
(1.77706e-10 -2.20118e-10 -1.84496e-11)
(2.17702e-10 -2.94614e-10 -2.49857e-11)
(2.45709e-10 -3.75332e-10 -3.23926e-11)
(2.58945e-10 -4.65511e-10 -4.12091e-11)
(2.53028e-10 -5.68278e-10 -5.21729e-11)
(2.21557e-10 -6.86633e-10 -6.63705e-11)
(1.5579e-10 -8.23248e-10 -8.5464e-11)
(4.47391e-11 -9.79985e-10 -1.12019e-10)
(-1.23641e-10 -1.1569e-09 -1.4991e-10)
(-3.58856e-10 -1.35049e-09 -2.04606e-10)
(-6.59711e-10 -1.5509e-09 -2.82532e-10)
(-9.98722e-10 -1.73849e-09 -3.8681e-10)
(-1.29836e-09 -1.8801e-09 -5.00838e-10)
(-1.74078e-09 -2.07537e-09 -7.61003e-10)
(0 0 0)
(8.63459e-11 -8.82988e-11 -7.93007e-12)
(1.64331e-10 -1.73081e-10 -1.5657e-11)
(2.3159e-10 -2.56389e-10 -2.34921e-11)
(2.88283e-10 -3.4251e-10 -3.20009e-11)
(3.33945e-10 -4.35222e-10 -4.18124e-11)
(3.67383e-10 -5.37958e-10 -5.37207e-11)
(3.86647e-10 -6.53876e-10 -6.88291e-11)
(3.89155e-10 -7.85801e-10 -8.8766e-11)
(3.72173e-10 -9.35962e-10 -1.16004e-10)
(3.33891e-10 -1.10546e-09 -1.54308e-10)
(2.75401e-10 -1.29328e-09 -2.09263e-10)
(2.03366e-10 -1.49487e-09 -2.88568e-10)
(1.31607e-10 -1.70014e-09 -4.00887e-10)
(7.6611e-11 -1.89159e-09 -5.49428e-10)
(4.16343e-11 -2.04055e-09 -7.09013e-10)
(-9.36297e-11 -2.30329e-09 -1.05744e-09)
(0 0 0)
(1.05932e-10 -9.73711e-11 -9.58497e-12)
(2.02497e-10 -1.90712e-10 -1.8961e-11)
(2.87714e-10 -2.82117e-10 -2.85425e-11)
(3.6289e-10 -3.76117e-10 -3.90598e-11)
(4.28995e-10 -4.7659e-10 -5.13373e-11)
(4.86834e-10 -5.86914e-10 -6.64267e-11)
(5.37401e-10 -7.09995e-10 -8.57938e-11)
(5.82552e-10 -8.48148e-10 -1.11593e-10)
(6.26241e-10 -1.00278e-09 -1.47076e-10)
(6.76558e-10 -1.17378e-09 -1.97162e-10)
(7.48591e-10 -1.35864e-09 -2.69149e-10)
(8.6702e-10 -1.55112e-09 -3.73204e-10)
(1.06362e-09 -1.74006e-09 -5.21216e-10)
(1.3559e-09 -1.90865e-09 -7.18819e-10)
(1.67878e-09 -2.03314e-09 -9.34151e-10)
(2.06773e-09 -2.20452e-09 -1.40985e-09)
(0 0 0)
(1.25355e-10 -1.02637e-10 -1.11818e-11)
(2.40474e-10 -2.00872e-10 -2.215e-11)
(3.43849e-10 -2.96746e-10 -3.34169e-11)
(4.37991e-10 -3.94821e-10 -4.58649e-11)
(5.25323e-10 -4.98885e-10 -6.04908e-11)
(6.08568e-10 -6.12065e-10 -7.85607e-11)
(6.9139e-10 -7.36813e-10 -1.0182e-10)
(7.79423e-10 -8.74728e-10 -1.32799e-10)
(8.81932e-10 -1.02617e-09 -1.75242e-10)
(1.01432e-09 -1.1896e-09 -2.34716e-10)
(1.20146e-09 -1.36069e-09 -3.19341e-10)
(1.48062e-09 -1.53117e-09 -4.40342e-10)
(1.89927e-09 -1.68839e-09 -6.11157e-10)
(2.49121e-09 -1.81686e-09 -8.40124e-10)
(3.17261e-09 -1.90305e-09 -1.09649e-09)
(4.7063e-09 -2.00042e-09 -1.71742e-09)
(0 0 0)
(1.43876e-10 -1.04026e-10 -1.26635e-11)
(2.76718e-10 -2.0346e-10 -2.51039e-11)
(3.97462e-10 -3.00211e-10 -3.79141e-11)
(5.09694e-10 -3.98696e-10 -5.20989e-11)
(6.17035e-10 -5.02466e-10 -6.87803e-11)
(7.23669e-10 -6.14279e-10 -8.93576e-11)
(8.3508e-10 -7.36043e-10 -1.15715e-10)
(9.59141e-10 -8.68586e-10 -1.50503e-10)
(1.10771e-09 -1.01122e-09 -1.97509e-10)
(1.29874e-09 -1.16106e-09 -2.62111e-10)
(1.55876e-09 -1.31203e-09 -3.51676e-10)
(1.92407e-09 -1.45383e-09 -4.75428e-10)
(2.43635e-09 -1.5713e-09 -6.42332e-10)
(3.11962e-09 -1.64563e-09 -8.52815e-10)
(3.90991e-09 -1.65627e-09 -1.07384e-09)
(6.3329e-09 -1.74416e-09 -1.69698e-09)
(0 0 0)
(0 0 0)
(0 0 0)
(0 0 0)
(0 0 0)
(0 0 0)
(0 0 0)
(0 0 0)
(0 0 0)
(0 0 0)
(0 0 0)
(0 0 0)
(0 0 0)
(0 0 0)
(0 0 0)
(0 0 0)
(0 0 0)
(0 0 0)
(1.58747e-11 -2.19553e-11 -1.24211e-12)
(2.96412e-11 -4.31763e-11 -2.44697e-12)
(4.02429e-11 -6.43056e-11 -3.65838e-12)
(4.69065e-11 -8.65727e-11 -4.96151e-12)
(4.83604e-11 -1.11146e-10 -6.45513e-12)
(4.25343e-11 -1.39205e-10 -8.2727e-12)
(2.61424e-11 -1.71992e-10 -1.0617e-11)
(-5.89699e-12 -2.10834e-10 -1.38196e-11)
(-6.12287e-11 -2.57132e-10 -1.84404e-11)
(-1.5095e-10 -3.12267e-10 -2.54277e-11)
(-2.90342e-10 -3.77426e-10 -3.63445e-11)
(-4.98602e-10 -4.53374e-10 -5.3593e-11)
(-7.95381e-10 -5.40246e-10 -8.02956e-11)
(-1.18729e-09 -6.37073e-10 -1.1864e-10)
(-1.61543e-09 -7.34515e-10 -1.62825e-10)
(-2.96327e-09 -1.18323e-09 -2.8171e-10)
(0 0 0)
(3.22998e-11 -4.2904e-11 -2.50167e-12)
(6.05103e-11 -8.43448e-11 -4.93387e-12)
(8.27045e-11 -1.25553e-10 -7.39115e-12)
(9.75993e-11 -1.68901e-10 -1.00531e-11)
(1.03042e-10 -2.16623e-10 -1.313e-11)
(9.55077e-11 -2.70957e-10 -1.69073e-11)
(6.94187e-11 -3.34232e-10 -2.18157e-11)
(1.62092e-11 -4.08906e-10 -2.85493e-11)
(-7.68573e-11 -4.97504e-10 -3.82558e-11)
(-2.27946e-10 -6.02353e-10 -5.28259e-11)
(-4.61308e-10 -7.25005e-10 -7.52679e-11)
(-8.05454e-10 -8.65036e-10 -1.09985e-10)
(-1.28416e-09 -1.01779e-09 -1.6224e-10)
(-1.88892e-09 -1.17007e-09 -2.3462e-10)
(-2.50281e-09 -1.29167e-09 -3.14515e-10)
(-3.64963e-09 -1.32165e-09 -4.86569e-10)
(0 0 0)
(4.96943e-11 -6.19553e-11 -3.79114e-12)
(9.35397e-11 -1.21733e-10 -7.4891e-12)
(1.29057e-10 -1.81054e-10 -1.12507e-11)
(1.54903e-10 -2.43268e-10 -1.53653e-11)
(1.687e-10 -3.115e-10 -2.01761e-11)
(1.66496e-10 -3.88826e-10 -2.61502e-11)
(1.42044e-10 -4.784e-10 -3.3989e-11)
(8.58742e-11 -5.83476e-10 -4.48041e-11)
(-1.58217e-11 -7.07292e-10 -6.03922e-11)
(-1.82204e-10 -8.52647e-10 -8.36279e-11)
(-4.37834e-10 -1.02092e-09 -1.18917e-10)
(-8.09481e-10 -1.2101e-09 -1.72382e-10)
(-1.31443e-09 -1.41098e-09 -2.50674e-10)
(-1.92928e-09 -1.60115e-09 -3.55505e-10)
(-2.5201e-09 -1.7387e-09 -4.66899e-10)
(-3.51006e-09 -1.83741e-09 -6.91387e-10)
(0 0 0)
(6.82009e-11 -7.8334e-11 -5.10945e-12)
(1.29062e-10 -1.53813e-10 -1.01116e-11)
(1.79924e-10 -2.28516e-10 -1.52378e-11)
(2.19892e-10 -3.0656e-10 -2.09027e-11)
(2.47094e-10 -3.91722e-10 -2.76031e-11)
(2.58261e-10 -4.87649e-10 -3.60173e-11)
(2.48207e-10 -5.97985e-10 -4.71572e-11)
(2.09218e-10 -7.26396e-10 -6.26062e-11)
(1.30443e-10 -8.76405e-10 -8.48804e-11)
(-2.46921e-12 -1.05092e-09 -1.17927e-10)
(-2.06799e-10 -1.25114e-09 -1.67661e-10)
(-4.99834e-10 -1.47455e-09 -2.42052e-10)
(-8.90491e-10 -1.71134e-09 -3.49291e-10)
(-1.35867e-09 -1.93911e-09 -4.90251e-10)