/*--------------------------------*- C++ -*----------------------------------*\
| =========                 |                                                 |
| \\      /  F ield         | foam-extend: Open Source CFD                    |
|  \\    /   O peration     | Version:     3.1                                |
|   \\  /    A nd           | Web:         http://www.extend-project.de       |
|    \\/     M anipulation  |                                                 |
\*---------------------------------------------------------------------------*/
FoamFile
{
    version     2.0;
    format      ascii;
    class       surfaceVectorField;
    location    "3.6";
    object      Sf;
}
// * * * * * * * * * * * * * * * * * * * * * * * * * * * * * * * * * * * * * //

dimensions      [0 2 0 0 0 0 0];

internalField   nonuniform List<vector> 
41600
(
(0.000625513 -2.7606e-06 -1.94019e-08)
(-5.12378e-07 0.000705886 -1.2848e-08)
(1.02771e-08 1.15618e-08 0.00070481)
(-1.05386e-08 -1.18559e-08 -0.000704777)
(0.000626003 -5.31874e-06 -3.73932e-08)
(-4.90487e-07 0.000705684 -3.84417e-08)
(1.00979e-08 3.44809e-08 0.000705285)
(-1.03577e-08 -3.53614e-08 -0.000705228)
(0.000626482 -7.65012e-06 -5.39596e-08)
(-4.78671e-07 0.000705458 -6.45264e-08)
(1.04541e-08 5.75898e-08 0.000705729)
(-1.072e-08 -5.90617e-08 -0.000705647)
(0.000626973 -9.80998e-06 -6.95974e-08)
(-4.90434e-07 0.000705287 -9.28709e-08)
(1.156e-08 8.23286e-08 0.000706201)
(-1.18387e-08 -8.44131e-08 -0.000706093)
(0.000627497 -1.18429e-05 -8.48398e-08)
(-5.23853e-07 0.000705161 -1.25671e-07)
(1.32766e-08 1.10223e-07 0.000706724)
(-1.35647e-08 -1.12945e-07 -0.000706583)
(0.000628076 -1.37878e-05 -1.00165e-07)
(-5.78667e-07 0.000705073 -1.65351e-07)
(1.5313e-08 1.42322e-07 0.000707319)
(-1.55995e-08 -1.45691e-07 -0.000707139)
(0.000628731 -1.56723e-05 -1.15256e-07)
(-6.55012e-07 0.000705013 -2.14691e-07)
(1.71654e-08 1.78791e-07 0.000708007)
(-1.74401e-08 -1.82791e-07 -0.000707777)
(0.000629486 -1.75071e-05 -1.29244e-07)
(-7.54209e-07 0.000704964 -2.77004e-07)
(1.80303e-08 2.18346e-07 0.000708804)
(-1.82635e-08 -2.22916e-07 -0.000708513)
(0.000630365 -1.92843e-05 -1.40871e-07)
(-8.78582e-07 0.000704907 -3.56716e-07)
(1.62929e-08 2.57038e-07 0.00070973)
(-1.64106e-08 -2.61998e-07 -0.000709362)
(0.000631394 -2.09612e-05 -1.47392e-07)
(-1.02991e-06 0.000704807 -4.59993e-07)
(8.80206e-09 2.85668e-07 0.0007108)
(-8.74566e-09 -2.90684e-07 -0.000710333)
(0.000632606 -2.24573e-05 -1.45292e-07)
(-1.2122e-06 0.000704626 -5.9617e-07)
(-1.03345e-08 2.85114e-07 0.00071203)
(1.05274e-08 -2.89801e-07 -0.000711436)
(0.000634036 -2.36398e-05 -1.31938e-07)
(-1.42984e-06 0.000704312 -7.81273e-07)
(-5.14412e-08 2.18494e-07 0.000713441)
(5.14985e-08 -2.22756e-07 -0.000712673)
(0.000635721 -2.43272e-05 -1.10449e-07)
(-1.68349e-06 0.000703817 -1.04509e-06)
(-1.32546e-07 1.79879e-08 0.000715064)
(1.31711e-07 -2.27446e-08 -0.000714041)
(0.000637669 -2.43633e-05 -1.04574e-07)
(-1.94662e-06 0.000703168 -1.44317e-06)
(-2.75343e-07 -4.27641e-07 0.000716978)
(2.7317e-07 4.20323e-07 -0.00071554)
(0.000639623 -2.38048e-05 -2.03581e-07)
(-1.97056e-06 0.000702557 -2.05122e-06)
(-4.50361e-07 -1.22252e-06 0.000719236)
(4.67134e-07 1.23179e-06 -0.000717086)
(-7.7867e-06 0.000699662 -5.56774e-07)
(-1.9778e-06 -3.84103e-06 0.000723859)
(3.99687e-06 6.03043e-06 -0.000722607)
(0.000625492 -2.72217e-06 -5.80145e-08)
(-1.00352e-06 0.000708608 -2.5181e-08)
(3.03423e-08 1.10099e-08 0.000707558)
(-3.11247e-08 -1.1302e-08 -0.000707488)
(0.000625962 -5.24648e-06 -1.11955e-07)
(-9.6016e-07 0.000708209 -7.53007e-08)
(2.9736e-08 3.27436e-08 0.000707807)
(-3.05218e-08 -3.3627e-08 -0.000707716)
(0.000626421 -7.54738e-06 -1.61853e-07)
(-9.36064e-07 0.00070776 -1.26295e-07)
(3.0723e-08 5.44833e-08 0.000708)
(-3.154e-08 -5.59865e-08 -0.000707889)
(0.000626889 -9.679e-06 -2.09038e-07)
(-9.57818e-07 0.000707421 -1.8158e-07)
(3.3974e-08 7.76635e-08 0.000708275)
(-3.48366e-08 -7.98305e-08 -0.00070814)
(0.000627388 -1.16901e-05 -2.55342e-07)
(-1.02182e-06 0.000707175 -2.45445e-07)
(3.90279e-08 1.03791e-07 0.000708645)
(-3.99284e-08 -1.06666e-07 -0.000708479)
(0.000627937 -1.36195e-05 -3.02146e-07)
(-1.12655e-06 0.000707006 -3.22605e-07)
(4.50868e-08 1.33936e-07 0.000709121)
(-4.60189e-08 -1.37581e-07 -0.000708917)
(0.000628555 -1.54937e-05 -3.48424e-07)
(-1.27239e-06 0.000706892 -4.18324e-07)
(5.10108e-08 1.68793e-07 0.000709709)
(-5.19113e-08 -1.7324e-07 -0.000709459)
(0.000629263 -1.73286e-05 -3.91961e-07)
(-1.46162e-06 0.000706804 -5.39049e-07)
(5.47436e-08 2.08441e-07 0.000710408)
(-5.54652e-08 -2.13576e-07 -0.000710103)
(0.000630082 -1.91245e-05 -4.2865e-07)
(-1.69683e-06 0.000706709 -6.93058e-07)
(5.19444e-08 2.51299e-07 0.000711217)
(-5.22895e-08 -2.56855e-07 -0.000710844)
(0.000631032 -2.08607e-05 -4.50954e-07)
(-1.98038e-06 0.000706549 -8.91425e-07)
(3.45583e-08 2.92749e-07 0.000712114)
(-3.43408e-08 -2.98315e-07 -0.000711661)
(0.000632133 -2.24781e-05 -4.48905e-07)
(-2.31396e-06 0.000706248 -1.15061e-06)
(-1.18409e-08 3.23582e-07 0.000713066)
(1.25978e-08 -3.28587e-07 -0.000712514)
(0.000633395 -2.38721e-05 -4.12545e-07)
(-2.69306e-06 0.000705709 -1.49707e-06)
(-1.11746e-07 3.27916e-07 0.000714019)
(1.12512e-07 -3.3165e-07 -0.000713339)
(0.000634806 -2.4882e-05 -3.44165e-07)
(-3.09372e-06 0.000704829 -1.97705e-06)
(-3.03917e-07 2.83444e-07 0.000714905)
(3.03177e-07 -2.8505e-07 -0.000714042)
(0.000636274 -2.53244e-05 -2.93098e-07)
(-3.41192e-06 0.000703609 -2.67197e-06)
(-6.25411e-07 1.72152e-07 0.000715718)
(6.22861e-07 -1.69987e-07 -0.000714541)
(0.000637423 -2.51455e-05 -4.67158e-07)
(-3.16052e-06 0.000702367 -3.69667e-06)
(-9.81152e-07 1.73169e-08 0.00071662)
(1.02168e-06 -5.71919e-09 -0.0007148)
(-7.34225e-06 0.000697535 -2.74669e-06)
(-3.28166e-06 7.58201e-07 0.000715463)
(6.28393e-06 -2.0005e-06 -0.000711981)
(0.000625451 -2.64324e-06 -9.5903e-08)
(-1.45338e-06 0.000711252 -3.64519e-08)
(4.91488e-08 1.01403e-08 0.000710236)
(-5.04428e-08 -1.04238e-08 -0.000710129)
(0.000625882 -5.09419e-06 -1.85339e-07)
(-1.38947e-06 0.000710661 -1.08968e-07)
(4.8003e-08 3.00829e-08 0.000710241)
(-4.9311e-08 -3.09378e-08 -0.000710118)
(0.0006263 -7.32668e-06 -2.68158e-07)
(-1.35249e-06 0.000709994 -1.82628e-07)
(4.94914e-08 4.99175e-08 0.000710165)
(-5.0852e-08 -5.13507e-08 -0.000710026)
(0.000626725 -9.39687e-06 -3.46801e-07)
(-1.38154e-06 0.000709493 -2.62277e-07)
(5.47652e-08 7.10585e-08 0.000710224)
(-5.6206e-08 -7.3089e-08 -0.000710065)
(0.000627175 -1.1355e-05 -4.251e-07)
(-1.4706e-06 0.000709135 -3.54087e-07)
(6.30022e-08 9.5e-08 0.000710423)
(-6.4549e-08 -9.76987e-08 -0.000710236)
(0.000627666 -1.32366e-05 -5.0478e-07)
(-1.61607e-06 0.000708891 -4.64706e-07)
(7.32125e-08 1.23075e-07 0.000710757)
(-7.48574e-08 -1.26533e-07 -0.000710535)
(0.000628214 -1.50716e-05 -5.84289e-07)
(-1.81814e-06 0.000708731 -6.01403e-07)
(8.41589e-08 1.56702e-07 0.000711216)
(-8.57596e-08 -1.60953e-07 -0.000710953)
(0.000628832 -1.68871e-05 -6.61094e-07)
(-2.07899e-06 0.000708625 -7.73024e-07)
(9.32674e-08 1.97307e-07 0.000711789)
(-9.45681e-08 -2.02324e-07 -0.000711478)
(0.000629537 -1.86981e-05 -7.28466e-07)
(-2.40048e-06 0.000708525 -9.9071e-07)
(9.52231e-08 2.46496e-07 0.000712451)
(-9.59161e-08 -2.52161e-07 -0.000712086)
(0.00063034 -2.05131e-05 -7.75539e-07)
(-2.78379e-06 0.00070837 -1.26912e-06)
(8.04465e-08 3.06476e-07 0.000713159)
(-8.01738e-08 -3.12485e-07 -0.000712734)
(0.000631247 -2.23166e-05 -7.86511e-07)
(-3.22305e-06 0.000708057 -1.62907e-06)
(3.27249e-08 3.80987e-07 0.000713832)
(-3.12386e-08 -3.86659e-07 -0.000713342)
(0.000632247 -2.40585e-05 -7.41643e-07)
(-3.6951e-06 0.000707455 -2.102e-06)
(-7.37383e-08 4.78061e-07 0.00071435)
(7.61993e-08 -4.82117e-07 -0.00071379)
(0.000633289 -2.56367e-05 -6.29605e-07)
(-4.1382e-06 0.000706407 -2.73981e-06)
(-2.73518e-07 6.16713e-07 0.000714554)
(2.75906e-07 -6.16965e-07 -0.000713903)
(0.000634247 -2.68806e-05 -4.85259e-07)
(-4.37312e-06 0.000704846 -3.6313e-06)
(-5.84429e-07 8.37078e-07 0.000714343)
(5.8752e-07 -8.30276e-07 -0.000713528)
(0.000634818 -2.76216e-05 -5.2613e-07)
(-3.7764e-06 0.0007031 -4.92017e-06)
(-8.76733e-07 1.18473e-06 0.000713982)
(9.2201e-07 -1.177e-06 -0.000712717)
(-8.7459e-06 0.000699115 -3.53196e-06)
(-2.0264e-06 2.07282e-06 0.000711455)
(3.67473e-06 -2.47398e-06 -0.000710009)
(0.000625392 -2.52279e-06 -1.31859e-07)
(-1.84402e-06 0.000713775 -4.61681e-08)
(6.62204e-08 9.0473e-09 0.000712803)
(-6.79949e-08 -9.30445e-09 -0.000712661)
(0.000625766 -4.85876e-06 -2.55303e-07)
(-1.76127e-06 0.000712998 -1.37986e-07)
(6.45633e-08 2.68861e-08 0.00071255)
(-6.63539e-08 -2.76546e-08 -0.000712397)
(0.000626127 -6.98534e-06 -3.69446e-07)
(-1.71155e-06 0.000712122 -2.31088e-07)
(6.65436e-08 4.47364e-08 0.000712191)
(-6.83924e-08 -4.60168e-08 -0.000712029)
(0.000626492 -8.95638e-06 -4.78916e-07)
(-1.74416e-06 0.000711466 -3.31521e-07)
(7.37435e-08 6.38784e-08 0.000712022)
(-7.57209e-08 -6.57122e-08 -0.000711844)
(0.000626873 -1.08146e-05 -5.8946e-07)
(-1.8499e-06 0.000710996 -4.46959e-07)
(8.51293e-08 8.57872e-08 0.000712033)
(-8.73094e-08 -8.82665e-08 -0.00071183)
(0.000627283 -1.25989e-05 -7.02359e-07)
(-2.02378e-06 0.000710679 -5.85368e-07)
(9.98497e-08 1.1204e-07 0.000712203)
(-1.02191e-07 -1.15256e-07 -0.000711969)
(0.000627732 -1.43494e-05 -8.16628e-07)
(-2.26469e-06 0.000710486 -7.55428e-07)
(1.16817e-07 1.44488e-07 0.000712516)
(-1.19147e-07 -1.48522e-07 -0.000712247)
(0.000628228 -1.61038e-05 -9.30659e-07)
(-2.57332e-06 0.000710384 -9.67589e-07)
(1.33832e-07 1.85649e-07 0.00071295)
(-1.35881e-07 -1.906e-07 -0.000712641)
(0.000628779 -1.78968e-05 -1.03676e-06)
(-2.95012e-06 0.000710324 -1.23482e-06)
(1.4679e-07 2.3982e-07 0.000713465)
(-1.48122e-07 -2.45726e-07 -0.000713115)
(0.000629389 -1.97603e-05 -1.12243e-06)
(-3.39303e-06 0.00071024 -1.57397e-06)
(1.48118e-07 3.14649e-07 0.000714001)
(-1.48139e-07 -3.21326e-07 -0.00071361)
(0.000630054 -2.17293e-05 -1.16785e-06)
(-3.8904e-06 0.000710033 -2.0084e-06)
(1.25553e-07 4.23469e-07 0.000714457)
(-1.23529e-07 -4.30285e-07 -0.000714032)
(0.000630759 -2.38265e-05 -1.14399e-06)
(-4.40433e-06 0.000709558 -2.5724e-06)
(6.17237e-08 5.89908e-07 0.000714679)
(-5.71541e-08 -5.9541e-07 -0.000714232)
(0.000631454 -2.60357e-05 -1.01775e-06)
(-4.84063e-06 0.000708618 -3.32028e-06)
(-6.48061e-08 8.51208e-07 0.000714454)
(7.18874e-08 -8.52815e-07 -0.000714)
(0.000632046 -2.82238e-05 -7.8264e-07)
(-4.97621e-06 0.000707029 -4.34477e-06)
(-2.58702e-07 1.25055e-06 0.000713599)
(2.69318e-07 -1.24542e-06 -0.000713121)
(0.000632363 -3.00496e-05 -5.79742e-07)
(-4.13096e-06 0.000704923 -5.81893e-06)
(-4.32262e-07 1.78115e-06 0.000712347)
(4.70153e-07 -1.7786e-06 -0.000711651)
(-9.28433e-06 0.000702251 -4.17608e-06)
(-8.94091e-07 2.69908e-06 0.000709392)
(1.75367e-06 -3.28894e-06 -0.000709302)
(0.000625319 -2.35862e-06 -1.6507e-07)
(-2.16124e-06 0.000716134 -5.40135e-08)
(8.15002e-08 8.11481e-09 0.000715217)
(-8.37122e-08 -8.34976e-09 -0.000715044)
(0.000625622 -4.53863e-06 -3.19924e-07)
(-2.06198e-06 0.000715178 -1.61316e-07)
(7.94674e-08 2.41619e-08 0.000714697)
(-8.16929e-08 -2.48657e-08 -0.000714519)
(0.000625913 -6.51938e-06 -4.63492e-07)
(-1.99989e-06 0.000714104 -2.69864e-07)
(8.19834e-08 4.02978e-08 0.000714051)
(-8.42918e-08 -4.14937e-08 -0.000713869)
(0.000626203 -8.34691e-06 -6.02742e-07)
(-2.03152e-06 0.000713295 -3.86658e-07)
(9.10251e-08 5.76783e-08 0.000713643)
(-9.35346e-08 -5.94334e-08 -0.000713448)
(0.000626501 -1.00618e-05 -7.43677e-07)
(-2.14512e-06 0.000712713 -5.20303e-07)
(1.05549e-07 7.7731e-08 0.000713448)
(-1.08349e-07 -8.01323e-08 -0.000713233)
(0.000626814 -1.17073e-05 -8.88031e-07)
(-2.33402e-06 0.000712328 -6.79519e-07)
(1.24923e-07 1.02036e-07 0.00071344)
(-1.27973e-07 -1.05193e-07 -0.000713202)
(0.000627147 -1.33242e-05 -1.03714e-06)
(-2.59475e-06 0.000712107 -8.7384e-07)
(1.48444e-07 1.32608e-07 0.000713597)
(-1.51587e-07 -1.36666e-07 -0.00071333)
(0.000627502 -1.49535e-05 -1.19085e-06)
(-2.92517e-06 0.000712019 -1.11453e-06)
(1.75091e-07 1.72613e-07 0.000713889)
(-1.78066e-07 -1.77735e-07 -0.000713589)
(0.000627877 -1.66439e-05 -1.34275e-06)
(-3.32283e-06 0.000712021 -1.41529e-06)
(2.03176e-07 2.27591e-07 0.000714268)
(-2.05444e-07 -2.33909e-07 -0.000713936)
(0.000628268 -1.84544e-05 -1.48128e-06)
(-3.78298e-06 0.000712058 -1.79384e-06)
(2.29228e-07 3.07279e-07 0.000714668)
(-2.29972e-07 -3.14795e-07 -0.000714309)
(0.000628669 -2.0465e-05 -1.58709e-06)
(-4.2933e-06 0.000712052 -2.27532e-06)
(2.47811e-07 4.28293e-07 0.000714993)
(-2.45777e-07 -4.36651e-07 -0.00071462)
(0.000629072 -2.27782e-05 -1.62489e-06)
(-4.81372e-06 0.000711879 -2.89685e-06)
(2.5345e-07 6.18142e-07 0.000715096)
(-2.47054e-07 -6.26046e-07 -0.000714733)
(0.000629459 -2.54741e-05 -1.5409e-06)
(-5.23985e-06 0.000711319 -3.7168e-06)
(2.36347e-07 9.16955e-07 0.000714749)
(-2.24533e-07 -9.21868e-07 -0.000714437)
(0.000629794 -2.84833e-05 -1.27566e-06)
(-5.32871e-06 0.000710037 -4.83462e-06)
(1.84896e-07 1.36206e-06 0.000713674)
(-1.67028e-07 -1.36114e-06 -0.00071345)
(0.000629979 -3.1292e-05 -8.12294e-07)
(-4.34501e-06 0.000707733 -6.44196e-06)
(9.42905e-08 1.92329e-06 0.000711786)
(-6.55938e-08 -1.92418e-06 -0.000711626)
(-9.5242e-06 0.000706646 -4.5263e-06)
(1.30395e-07 2.73504e-06 0.000708911)
(-1.49795e-07 -3.18095e-06 -0.000710593)
(0.000625235 -2.15408e-06 -1.95387e-07)
(-2.39406e-06 0.000718288 -5.97034e-08)
(9.52744e-08 7.35162e-09 0.00071744)
(-9.789e-08 -7.57063e-09 -0.000717239)
(0.000625458 -4.14106e-06 -3.78409e-07)
(-2.28144e-06 0.000717166 -1.78161e-07)
(9.29294e-08 2.18724e-08 0.000716649)
(-9.55625e-08 -2.25339e-08 -0.000716449)
(0.000625668 -5.93816e-06 -5.48862e-07)
(-2.20779e-06 0.000715902 -2.97658e-07)
(9.5936e-08 3.64237e-08 0.000715714)
(-9.86903e-08 -3.75506e-08 -0.000715516)
(0.000625875 -7.58764e-06 -7.14641e-07)
(-2.23493e-06 0.000714946 -4.25726e-07)
(1.06664e-07 5.20332e-08 0.000715059)
(-1.09685e-07 -5.36732e-08 -0.000714855)
(0.000626082 -9.12904e-06 -8.8123e-07)
(-2.34869e-06 0.000714257 -5.71411e-07)
(1.24114e-07 6.99823e-08 0.000714651)
(-1.27517e-07 -7.22238e-08 -0.000714434)
(0.000626291 -1.05966e-05 -1.05345e-06)
(-2.53941e-06 0.000713798 -7.43807e-07)
(1.47897e-07 9.17375e-08 0.000714458)
(-1.51672e-07 -9.47151e-08 -0.000714222)
(0.0006265 -1.20221e-05 -1.23542e-06)
(-2.80048e-06 0.000713536 -9.5268e-07)
(1.77868e-07 1.19256e-07 0.000714448)
(-1.81881e-07 -1.23134e-07 -0.000714188)
(0.000626706 -1.34433e-05 -1.42806e-06)
(-3.12646e-06 0.000713445 -1.20917e-06)
(2.1438e-07 1.55542e-07 0.000714586)
(-2.18408e-07 -1.60541e-07 -0.000714298)
(0.000626898 -1.49108e-05 -1.62851e-06)
(-3.51124e-06 0.000713495 -1.52666e-06)
(2.58244e-07 2.05614e-07 0.000714826)
(-2.61715e-07 -2.12014e-07 -0.000714514)
(0.000627064 -1.64995e-05 -1.82872e-06)
(-3.94728e-06 0.000713655 -1.92254e-06)
(3.10223e-07 2.77939e-07 0.000715111)
(-3.12161e-07 -2.85968e-07 -0.000714782)
(0.000627194 -1.83212e-05 -2.01428e-06)
(-4.42492e-06 0.000713883 -2.42233e-06)
(3.71438e-07 3.8628e-07 0.000715368)
(-3.70175e-07 -3.95936e-07 -0.000715036)
(0.000627289 -2.05325e-05 -2.15295e-06)
(-4.91532e-06 0.000714101 -3.066e-06)
(4.46944e-07 5.52418e-07 0.000715485)
(-4.39829e-07 -5.63108e-07 -0.000715178)
(0.000627374 -2.33183e-05 -2.18593e-06)
(-5.34012e-06 0.000714114 -3.92078e-06)
(5.3816e-07 8.09479e-07 0.000715268)
(-5.22767e-07 -8.19313e-07 -0.000715031)
(0.000627507 -2.67874e-05 -2.00868e-06)
(-5.48736e-06 0.000713511 -5.10506e-06)
(6.22062e-07 1.1923e-06 0.000714388)
(-5.96862e-07 -1.19755e-06 -0.000714294)
(0.000627706 -3.04753e-05 -1.37146e-06)
(-4.56794e-06 0.000711425 -6.82831e-06)
(5.9948e-07 1.68508e-06 0.000712267)
(-5.75859e-07 -1.689e-06 -0.000712518)
(-9.78145e-06 0.000712893 -4.71707e-06)
(1.02691e-06 2.40133e-06 0.000710326)
(-1.74954e-06 -2.73262e-06 -0.000713932)
(0.000625144 -1.91637e-06 -2.21738e-07)
(-2.53515e-06 0.000720205 -6.30214e-08)
(1.07738e-07 6.64642e-09 0.000719435)
(-1.10724e-07 -6.84365e-09 -0.000719209)
(0.000625279 -3.67963e-06 -4.28971e-07)
(-2.41333e-06 0.00071893 -1.87913e-07)
(1.05048e-07 1.97197e-08 0.000718379)
(-1.08057e-07 -2.03115e-08 -0.000718162)
(0.000625405 -5.26648e-06 -6.22388e-07)
(-2.3303e-06 0.00071749 -3.13568e-07)
(1.08404e-07 3.26852e-08 0.000717159)
(-1.11566e-07 -3.36886e-08 -0.00071695)
(0.000625524 -6.71253e-06 -8.09406e-07)
(-2.35081e-06 0.000716394 -4.47647e-07)
(1.20539e-07 4.64198e-08 0.000716259)
(-1.24022e-07 -4.78827e-08 -0.00071605)
(0.000625637 -8.04577e-06 -9.96492e-07)
(-2.45795e-06 0.000715592 -5.99182e-07)
(1.40468e-07 6.20062e-08 0.000715634)
(-1.44434e-07 -6.40126e-08 -0.000715419)
(0.000625741 -9.28787e-06 -1.19234e-06)
(-2.63887e-06 0.000715043 -7.77261e-07)
(1.68044e-07 8.06432e-08 0.000715244)
(-1.72511e-07 -8.33177e-08 -0.000715014)
(0.000625829 -1.04615e-05 -1.40229e-06)
(-2.88347e-06 0.000714714 -9.91203e-07)
(2.03614e-07 1.03876e-07 0.000715047)
(-2.08481e-07 -1.07387e-07 -0.000714799)
(0.00062589 -1.15945e-05 -1.62874e-06)
(-3.18245e-06 0.000714582 -1.25113e-06)
(2.48529e-07 1.33875e-07 0.000715008)
(-2.53641e-07 -1.38459e-07 -0.00071474)
(0.000625909 -1.27247e-05 -1.87258e-06)
(-3.52506e-06 0.000714631 -1.56905e-06)
(3.05352e-07 1.73869e-07 0.000715088)
(-3.10173e-07 -1.79842e-07 -0.000714801)
(0.000625864 -1.39093e-05 -2.13059e-06)
(-3.89884e-06 0.000714847 -1.96032e-06)
(3.7765e-07 2.28729e-07 0.00071524)
(-3.81118e-07 -2.3644e-07 -0.000714944)
(0.000625732 -1.52441e-05 -2.39671e-06)
(-4.29317e-06 0.000715228 -2.448e-06)
(4.70554e-07 3.0558e-07 0.00071542)
(-4.70868e-07 -3.15435e-07 -0.000715128)
(0.000625503 -1.68725e-05 -2.65377e-06)
(-4.69205e-06 0.000715742 -3.0712e-06)
(5.95122e-07 4.14255e-07 0.000715549)
(-5.89161e-07 -4.26762e-07 -0.000715286)
(0.000625214 -1.9026e-05 -2.86383e-06)
(-5.06717e-06 0.000716283 -3.9042e-06)
(7.61788e-07 5.69461e-07 0.000715493)
(-7.45646e-07 -5.84536e-07 -0.000715299)
(0.000625028 -2.20475e-05 -2.92549e-06)
(-5.33185e-06 0.000716548 -5.09899e-06)
(9.47347e-07 7.94182e-07 0.000715007)
(-9.16768e-07 -8.09485e-07 -0.000714951)
(0.000625268 -2.60029e-05 -2.37786e-06)
(-4.83248e-06 0.000715393 -6.93422e-06)
(1.00609e-06 1.11447e-06 0.000713227)
(-9.81489e-07 -1.1279e-06 -0.000713668)
(-1.1078e-05 0.000723737 -4.75968e-06)
(1.91757e-06 1.78245e-06 0.000715285)
(-3.20481e-06 -2.02946e-06 -0.000721062)
(0.000625049 -1.6504e-06 -2.43217e-07)
(1.18952e-07 5.9589e-09 0.000721173)
(-1.22269e-07 -6.13409e-09 -0.000720929)
(-2.5808e-06 0.000721855 -6.39458e-08)
(0.000625094 -3.16863e-06 -4.69919e-07)
(1.15859e-07 1.76265e-08 0.000719865)
(-1.19193e-07 -1.81442e-08 -0.000719636)
(-2.45509e-06 0.000720449 -1.90514e-07)
(0.000625134 -4.52873e-06 -6.81157e-07)
(1.19353e-07 2.90196e-08 0.000718375)
(-1.22869e-07 -2.98854e-08 -0.00071816)
(-2.36643e-06 0.000718851 -3.17489e-07)
(0.000625166 -5.75097e-06 -8.84285e-07)
(1.32518e-07 4.08141e-08 0.000717234)
(-1.36412e-07 -4.20731e-08 -0.000717026)
(-2.37946e-06 0.000717617 -4.52428e-07)
(0.000625188 -6.84912e-06 -1.0879e-06)
(1.54306e-07 5.38367e-08 0.000716387)
(-1.58762e-07 -5.55541e-08 -0.000716178)
(-2.47518e-06 0.000716692 -6.04114e-07)
(0.000625192 -7.83549e-06 -1.30186e-06)
(1.84676e-07 6.88524e-08 0.000715784)
(-1.89747e-07 -7.11212e-08 -0.000715566)
(-2.63818e-06 0.000716031 -7.81047e-07)
(0.000625169 -8.72214e-06 -1.53179e-06)
(2.24274e-07 8.67412e-08 0.000715381)
(-2.29909e-07 -8.97126e-08 -0.000715151)
(-2.85486e-06 0.000715603 -9.91498e-07)
(0.000625104 -9.52001e-06 -1.78211e-06)
(2.74883e-07 1.08566e-07 0.000715141)
(-2.8096e-07 -1.1242e-07 -0.000714897)
(-3.11101e-06 0.000715384 -1.24403e-06)
(0.000624975 -1.02421e-05 -2.05543e-06)
(3.39638e-07 1.35416e-07 0.000715022)
(-3.45668e-07 -1.40361e-07 -0.00071477)
(-3.38976e-06 0.000715358 -1.54823e-06)
(0.000624751 -1.09061e-05 -2.35312e-06)
(4.22889e-07 1.68195e-07 0.000714986)
(-4.27872e-07 -1.74566e-07 -0.000714733)
(-3.67049e-06 0.000715517 -1.91564e-06)
(0.000624389 -1.15356e-05 -2.67694e-06)
(5.30536e-07 2.07162e-07 0.000714989)
(-5.32826e-07 -2.15544e-07 -0.000714751)
(-3.92886e-06 0.000715866 -2.36241e-06)
(0.000623825 -1.21615e-05 -3.02497e-06)
(6.72777e-07 2.49297e-07 0.000714939)
(-6.69503e-07 -2.60787e-07 -0.000714748)
(-4.1312e-06 0.00071638 -2.91425e-06)
(0.000622964 -1.28513e-05 -3.3891e-06)
(8.58764e-07 2.83744e-07 0.000714648)
(-8.45775e-07 -3.00294e-07 -0.000714571)
(-4.21946e-06 0.000716989 -3.61706e-06)
(0.000621656 -1.37781e-05 -3.7228e-06)
(1.06603e-06 2.91405e-07 0.000713688)
(-1.03829e-06 -3.16565e-07 -0.000713896)
(-4.05079e-06 0.0007175 -4.55793e-06)
(0.000619737 -1.56573e-05 -3.64737e-06)
(1.16812e-06 2.78833e-07 0.000710772)
(-1.14261e-06 -3.10957e-07 -0.000711913)
(-2.93976e-06 0.000717305 -5.86867e-06)
(2.93179e-06 8.37826e-07 0.000725972)
(-4.64422e-06 -1.01225e-06 -0.000734431)
(-1.70656e-05 0.000745093 -4.05025e-06)
(0.000625535 -2.79659e-06 -1.65195e-08)
(-5.34174e-07 0.000705922 -1.17389e-08)
(9.64146e-09 1.08466e-08 0.000704838)
(0.000626048 -5.38838e-06 -3.19911e-08)
(-5.1211e-07 0.000705719 -3.5107e-08)
(9.47345e-09 3.23483e-08 0.000705335)
(0.000626549 -7.75075e-06 -4.60874e-08)
(-5.01216e-07 0.000705491 -5.8801e-08)
(9.81385e-09 5.4035e-08 0.000705801)
(0.000627066 -9.93968e-06 -5.90567e-08)
(-5.1565e-07 0.000705319 -8.42682e-08)
(1.08777e-08 7.7287e-08 0.000706299)
(0.00062762 -1.20009e-05 -7.1464e-08)
(-5.53536e-07 0.000705193 -1.13311e-07)
(1.25253e-08 1.03571e-07 0.00070685)
(0.000628236 -1.39738e-05 -8.32843e-08)
(-6.14751e-07 0.000705106 -1.47708e-07)
(1.45018e-08 1.33913e-07 0.000707479)
(0.000628936 -1.58853e-05 -9.39778e-08)
(-6.99719e-07 0.000705047 -1.89362e-07)
(1.63731e-08 1.68578e-07 0.000708207)
(0.000629747 -1.77448e-05 -1.02826e-07)
(-8.10063e-07 0.000704996 -2.40305e-07)
(1.73966e-08 2.06524e-07 0.000709053)
(0.000630696 -1.95418e-05 -1.08632e-07)
(-9.4872e-07 0.000704935 -3.02475e-07)
(1.61488e-08 2.44321e-07 0.000710038)
(0.000631813 -2.12294e-05 -1.09503e-07)
(-1.11828e-06 0.000704824 -3.77649e-07)
(1.00375e-08 2.7412e-07 0.000711178)
(0.000633132 -2.27226e-05 -1.04368e-07)
(-1.32422e-06 0.000704623 -4.66966e-07)
(-5.70665e-09 2.79998e-07 0.000712492)
(0.000634692 -2.38876e-05 -9.46379e-08)
(-1.57266e-06 0.000704276 -5.684e-07)
(-3.86116e-08 2.32563e-07 0.000714)
(0.000636524 -2.45549e-05 -8.99092e-08)
(-1.86532e-06 0.000703728 -6.69132e-07)
(-9.92493e-08 8.26546e-08 0.000715729)
(0.000638612 -2.46146e-05 -1.1523e-07)
(-2.17094e-06 0.000702993 -7.26209e-07)
(-1.92527e-07 -2.3594e-07 0.000717729)
(0.000640666 -2.42336e-05 -1.95896e-07)
(-2.22608e-06 0.000702273 -6.54584e-07)
(-2.77914e-07 -7.5165e-07 0.000719972)
(-6.02657e-06 0.000701145 -4.23357e-07)
(-9.32515e-07 -2.06102e-06 0.00072473)
(0.000625514 -2.75799e-06 -4.9585e-08)
(-1.04614e-06 0.000708681 -2.30309e-08)
(2.84535e-08 1.03153e-08 0.000707619)
(0.000626006 -5.31604e-06 -9.61131e-08)
(-1.00237e-06 0.000708279 -6.88013e-08)
(2.78675e-08 3.06578e-08 0.000707887)
(0.000626487 -7.64838e-06 -1.38678e-07)
(-9.80007e-07 0.000707827 -1.1508e-07)
(2.87969e-08 5.09755e-08 0.000708099)
(0.00062698 -9.8099e-06 -1.78161e-07)
(-1.00687e-06 0.000707486 -1.64722e-07)
(3.19013e-08 7.2635e-08 0.000708395)
(0.000627508 -1.18504e-05 -2.15981e-07)
(-1.0795e-06 0.00070724 -2.21241e-07)
(3.67468e-08 9.70935e-08 0.000708791)
(0.000628093 -1.38094e-05 -2.52193e-07)
(-1.19668e-06 0.000707074 -2.88215e-07)
(4.26344e-08 1.25431e-07 0.000709298)
(0.000628754 -1.57127e-05 -2.85338e-07)
(-1.35903e-06 0.00070696 -3.69268e-07)
(4.85562e-08 1.58373e-07 0.000709922)
(0.000629516 -1.75749e-05 -3.13206e-07)
(-1.56968e-06 0.000706871 -4.68059e-07)
(5.26557e-08 1.96105e-07 0.000710664)
(0.0006304 -1.93936e-05 -3.31759e-07)
(-1.8321e-06 0.000706767 -5.88357e-07)
(5.12075e-08 2.3749e-07 0.000711522)
(0.000631429 -2.11438e-05 -3.35191e-07)
(-2.14987e-06 0.000706588 -7.33431e-07)
(3.74329e-08 2.78762e-07 0.000712474)
(0.00063262 -2.27627e-05 -3.2034e-07)
(-2.52642e-06 0.000706254 -9.04351e-07)
(-5.56906e-10 3.12016e-07 0.000713489)
(0.000633974 -2.41386e-05 -2.87601e-07)
(-2.95816e-06 0.000705656 -1.09489e-06)
(-8.06213e-08 3.23979e-07 0.000714513)
(0.00063545 -2.51072e-05 -2.57502e-07)
(-3.41925e-06 0.000704683 -1.27744e-06)
(-2.25362e-07 2.97052e-07 0.000715483)
(0.000636882 -2.54943e-05 -2.90448e-07)
(-3.79028e-06 0.000703334 -1.36916e-06)
(-4.38366e-07 2.1833e-07 0.000716394)
(0.000637857 -2.52862e-05 -4.49261e-07)
(-3.57085e-06 0.000701976 -1.22216e-06)
(-6.1181e-07 1.06469e-07 0.000717346)
(-5.43199e-06 0.000698087 -4.37118e-07)
(-1.55968e-06 4.18216e-07 0.000716372)
(0.000625472 -2.67822e-06 -8.23764e-08)
(-1.51494e-06 0.00071136 -3.33596e-08)
(4.6058e-08 9.48256e-09 0.000710329)
(0.000625923 -5.16186e-06 -1.59462e-07)
(-1.45039e-06 0.000710765 -9.95989e-08)
(4.49473e-08 2.81299e-08 0.000710349)
(0.000626362 -7.42465e-06 -2.30265e-07)
(-1.41586e-06 0.000710093 -1.66511e-07)
(4.63458e-08 4.66833e-08 0.000710287)
(0.000626811 -9.52418e-06 -2.96685e-07)
(-1.45213e-06 0.00070959 -2.38225e-07)
(5.13604e-08 6.64821e-08 0.000710364)
(0.000627288 -1.15124e-05 -3.60879e-07)
(-1.55348e-06 0.000709234 -3.19732e-07)
(5.92347e-08 8.89324e-08 0.000710586)
(0.000627812 -1.34248e-05 -4.22968e-07)
(-1.71649e-06 0.000708994 -4.16059e-07)
(6.91159e-08 1.15302e-07 0.000710947)
(0.000628399 -1.52908e-05 -4.80701e-07)
(-1.94165e-06 0.000708836 -5.32143e-07)
(7.9905e-08 1.4697e-07 0.000711437)
(0.000629066 -1.71371e-05 -5.30368e-07)
(-2.23224e-06 0.000708729 -6.72926e-07)
(8.9353e-08 1.85387e-07 0.000712044)
(0.000629827 -1.89764e-05 -5.65038e-07)
(-2.59115e-06 0.000708621 -8.43423e-07)
(9.29637e-08 2.32185e-07 0.000712741)
(0.000630696 -2.08149e-05 -5.75527e-07)
(-3.02086e-06 0.000708444 -1.04768e-06)
(8.2442e-08 2.89371e-07 0.000713483)
(0.000631674 -2.26304e-05 -5.53843e-07)
(-3.51635e-06 0.00070809 -1.28576e-06)
(4.431e-08 3.60151e-07 0.000714191)
(0.000632736 -2.43626e-05 -4.92792e-07)
(-4.05305e-06 0.000707415 -1.54605e-06)
(-4.05916e-08 4.5058e-07 0.00071474)
(0.000633798 -2.58914e-05 -4.06454e-07)
(-4.56218e-06 0.000706256 -1.78605e-06)
(-1.9279e-07 5.72444e-07 0.000714976)
(0.000634668 -2.70199e-05 -3.57434e-07)
(-4.83937e-06 0.000704554 -1.88922e-06)
(-4.04812e-07 7.45426e-07 0.000714814)
(0.000635039 -2.75672e-05 -4.27642e-07)
(-4.26767e-06 0.000702729 -1.66475e-06)
(-5.50754e-07 9.79172e-07 0.000714495)
(-6.10493e-06 0.000699135 -5.92872e-07)
(-9.76993e-07 1.42968e-06 0.000712299)
(0.000625411 -2.55515e-06 -1.13651e-07)
(-1.92184e-06 0.000713916 -4.22897e-08)
(6.2033e-08 8.47204e-09 0.000712925)
(0.000625803 -4.92191e-06 -2.19883e-07)
(-1.8383e-06 0.000713133 -1.26266e-07)
(6.04369e-08 2.51709e-08 0.000712683)
(0.000626183 -7.07706e-06 -3.17711e-07)
(-1.79153e-06 0.000712251 -2.11032e-07)
(6.2311e-08 4.18819e-08 0.000712334)
(0.000626569 -9.07676e-06 -4.10584e-07)
(-1.83308e-06 0.000711593 -3.01693e-07)
(6.9148e-08 5.98156e-08 0.000712179)
(0.000626974 -1.0965e-05 -5.01682e-07)
(-1.95399e-06 0.000711128 -4.04476e-07)
(7.99857e-08 8.0344e-08 0.000712209)
(0.000627413 -1.278e-05 -5.90643e-07)
(-2.14913e-06 0.000710816 -5.2538e-07)
(9.4125e-08 1.04938e-07 0.000712401)
(0.000627895 -1.45624e-05 -6.74669e-07)
(-2.41797e-06 0.000710628 -6.70203e-07)
(1.1065e-07 1.35365e-07 0.000712738)
(0.000628431 -1.63503e-05 -7.48979e-07)
(-2.76223e-06 0.000710529 -8.44789e-07)
(1.27685e-07 1.74024e-07 0.000713196)
(0.000629028 -1.81781e-05 -8.04737e-07)
(-3.18337e-06 0.000710464 -1.05473e-06)
(1.41729e-07 2.24819e-07 0.000713732)
(0.00062969 -2.0076e-05 -8.2996e-07)
(-3.68058e-06 0.000710362 -1.30423e-06)
(1.46133e-07 2.94542e-07 0.000714282)
(0.000630411 -2.20737e-05 -8.0856e-07)
(-4.24233e-06 0.000710117 -1.59235e-06)
(1.30796e-07 3.94841e-07 0.000714742)
(0.000631165 -2.41838e-05 -7.22119e-07)
(-4.82731e-06 0.000709571 -1.90301e-06)
(8.19524e-08 5.44802e-07 0.00071495)
(0.000631883 -2.63621e-05 -5.61023e-07)
(-5.32926e-06 0.000708515 -2.18168e-06)
(-1.53264e-08 7.70055e-07 0.000714689)
(0.000632435 -2.84291e-05 -3.58621e-07)
(-5.4951e-06 0.000706782 -2.28654e-06)
(-1.55438e-07 1.08965e-06 0.000713794)
(0.000632669 -2.99935e-05 -2.09375e-07)
(-4.67546e-06 0.000704604 -1.99733e-06)
(-2.58179e-07 1.47009e-06 0.000712531)
(-6.19663e-06 0.000701533 -7.53828e-07)
(-4.36674e-07 1.96114e-06 0.000709787)
(0.000625335 -2.3883e-06 -1.4239e-07)
(-2.2521e-06 0.000716304 -4.95009e-08)
(7.63378e-08 7.59473e-09 0.000715367)
(0.000625654 -4.59665e-06 -2.7609e-07)
(-2.15185e-06 0.000715343 -1.47774e-07)
(7.43714e-08 2.25983e-08 0.000714852)
(0.000625961 -6.60436e-06 -3.99615e-07)
(-2.09297e-06 0.000714261 -2.46806e-07)
(7.67473e-08 3.76614e-08 0.00071421)
(0.000626268 -8.45911e-06 -5.18029e-07)
(-2.13477e-06 0.000713452 -3.52419e-07)
(8.5309e-08 5.38734e-08 0.000713812)
(0.000626586 -1.02009e-05 -6.34925e-07)
(-2.2653e-06 0.000712875 -4.71636e-07)
(9.90772e-08 7.25698e-08 0.000713632)
(0.000626922 -1.18736e-05 -7.49391e-07)
(-2.47778e-06 0.000712496 -6.11022e-07)
(1.17566e-07 9.52215e-08 0.00071364)
(0.000627282 -1.35209e-05 -8.59467e-07)
(-2.76937e-06 0.000712284 -7.76898e-07)
(1.40262e-07 1.2372e-07 0.000713814)
(0.000627667 -1.51845e-05 -9.60488e-07)
(-3.13875e-06 0.000712204 -9.75492e-07)
(1.66319e-07 1.60988e-07 0.000714121)
(0.000628077 -1.69146e-05 -1.04276e-06)
(-3.58433e-06 0.000712209 -1.21254e-06)
(1.94314e-07 2.12033e-07 0.000714508)
(0.000628507 -1.87699e-05 -1.09152e-06)
(-4.10267e-06 0.000712239 -1.49217e-06)
(2.21208e-07 2.85552e-07 0.000714904)
(0.000628952 -2.08298e-05 -1.08395e-06)
(-4.68186e-06 0.000712209 -1.81304e-06)
(2.42468e-07 3.95908e-07 0.000715206)
(0.000629402 -2.31862e-05 -9.8658e-07)
(-5.27731e-06 0.000711979 -2.15688e-06)
(2.52675e-07 5.65725e-07 0.000715252)
(0.000629839 -2.58926e-05 -7.55351e-07)
(-5.77041e-06 0.000711314 -2.46214e-06)
(2.40446e-07 8.24166e-07 0.000714799)
(0.000630223 -2.88241e-05 -3.73582e-07)
(-5.88578e-06 0.000709888 -2.57144e-06)
(1.91969e-07 1.18721e-06 0.000713577)
(0.000630467 -3.13618e-05 6.43225e-08)
(-4.92974e-06 0.000707461 -2.24365e-06)
(1.04336e-07 1.60422e-06 0.000711595)
(-6.06177e-06 0.000705032 -9.14061e-07)
(6.10043e-08 2.06866e-06 0.000708781)
(0.000625248 -2.18097e-06 -1.68573e-07)
(-2.4943e-06 0.000718486 -5.47431e-08)