/*--------------------------------*- C++ -*----------------------------------*\
| =========                 |                                                 |
| \\      /  F ield         | foam-extend: Open Source CFD                    |
|  \\    /   O peration     | Version:     3.1                                |
|   \\  /    A nd           | Web:         http://www.extend-project.de       |
|    \\/     M anipulation  |                                                 |
\*---------------------------------------------------------------------------*/
FoamFile
{
    version     2.0;
    format      ascii;
    class       volVectorField;
    location    "3.6";
    object      U;
}
// * * * * * * * * * * * * * * * * * * * * * * * * * * * * * * * * * * * * * //

dimensions      [0 1 -1 0 0 0 0];

internalField   nonuniform List<vector> 
14592
(
(0.0189981 -8.99432e-05 -0.001716)
(0.0189327 4.41582e-05 -0.00309072)
(0.0186681 0.000151448 -0.00390686)
(0.0182191 0.000214193 -0.0046291)
(0.0176245 0.000261417 -0.00543689)
(0.0169132 0.00029993 -0.00642025)
(0.0161219 0.000325281 -0.00763834)
(0.0153043 0.00032848 -0.00914556)
(0.0145318 0.000296096 -0.01101)
(0.0138951 0.000208022 -0.0133312)
(0.013511 3.2094e-05 -0.0162624)
(0.013532 -0.000278944 -0.0200379)
(0.014148 -0.000777436 -0.0249653)
(0.0153483 -0.00137181 -0.0311663)
(0.0157184 -0.00128184 -0.0371661)
(0.0115635 0.000718618 -0.0323337)
(0.0529323 -1.12317e-05 -0.00204441)
(0.052669 0.000285367 -0.00475793)
(0.0521147 0.00061774 -0.00675457)
(0.0512722 0.000910421 -0.00853602)
(0.0501565 0.00116535 -0.0104216)
(0.0487773 0.00137591 -0.0126171)
(0.0471714 0.00152353 -0.0152607)
(0.0454058 0.00158494 -0.0184617)
(0.0435696 0.00153142 -0.022338)
(0.0417613 0.00132107 -0.0270561)
(0.040077 0.000879693 -0.0328778)
(0.0385845 8.00572e-05 -0.0402143)
(0.0372886 -0.00125894 -0.0496139)
(0.0357968 -0.00315549 -0.0611325)
(0.0314415 -0.00429442 -0.0709557)
(0.0187081 -0.00136958 -0.0560353)
(0.0821897 0.000136161 -0.00164872)
(0.081908 0.0006087 -0.00442095)
(0.0813183 0.0011582 -0.00678175)
(0.0804456 0.00170804 -0.00900423)
(0.079292 0.00223045 -0.0113577)
(0.0778213 0.00269724 -0.0140739)
(0.0760147 0.00307056 -0.0173367)
(0.0738826 0.00330994 -0.0212924)
(0.0714594 0.00337286 -0.0260797)
(0.0687839 0.00320644 -0.0318745)
(0.0658717 0.00271852 -0.0389512)
(0.0626556 0.00173903 -0.0477739)
(0.0589037 -3.31722e-05 -0.0590697)
(0.0539246 -0.00291514 -0.0733012)
(0.0440922 -0.00575826 -0.0861008)
(0.0227524 -0.00351908 -0.0673785)
(0.106594 0.000252364 -0.00129723)
(0.106359 0.000882369 -0.00368876)
(0.105841 0.00159906 -0.00589495)
(0.105084 0.00235195 -0.00806699)
(0.104102 0.00310782 -0.0104016)
(0.102832 0.00383245 -0.0131147)
(0.101196 0.00448178 -0.0164152)
(0.0991246 0.00500906 -0.0204893)
(0.0965636 0.00536777 -0.0255095)
(0.0934613 0.0055097 -0.0316674)
(0.0897418 0.00535571 -0.0392363)
(0.0852174 0.00475926 -0.0486841)
(0.0794659 0.00340101 -0.0608728)
(0.0716305 0.000690105 -0.0769219)
(0.056979 -0.00320125 -0.0930837)
(0.0267372 -0.00363301 -0.0743421)
(0.126115 0.000341482 -0.00107364)
(0.125927 0.0011026 -0.00309015)
(0.125497 0.00193871 -0.00500295)
(0.124878 0.00282851 -0.00692419)
(0.124101 0.00375138 -0.00900528)
(0.123106 0.0046854 -0.0114382)
(0.121784 0.00560053 -0.0144424)
(0.120004 0.00646458 -0.0182417)
(0.117631 0.00724587 -0.0230571)
(0.114515 0.00792105 -0.0291229)
(0.110487 0.00844784 -0.0367356)
(0.105251 0.00875636 -0.0463729)
(0.098208 0.00862328 -0.0589294)
(0.0884649 0.00748877 -0.0762218)
(0.0703246 0.0042459 -0.0958325)
(0.0312242 -2.0635e-05 -0.0787542)
(0.140751 0.000411102 -0.000929307)
(0.140603 0.00127964 -0.00266806)
(0.140256 0.00220447 -0.00431975)
(0.139765 0.00318664 -0.00598008)
(0.139177 0.00422334 -0.00777159)
(0.138447 0.00531339 -0.00985986)
(0.137464 0.00645343 -0.0124579)
(0.136071 0.00764333 -0.0158096)
(0.134085 0.00888633 -0.0201757)
(0.131285 0.0102093 -0.0258371)
(0.127434 0.0116327 -0.0331259)
(0.122146 0.0132262 -0.042549)
(0.114685 0.0149204 -0.0549488)
(0.104157 0.0166614 -0.0726568)
(0.0845651 0.0164509 -0.0952497)
(0.0370104 0.00869689 -0.0806956)
(0.150506 0.000462593 -0.000828351)
(0.150391 0.00141083 -0.00236626)
(0.150125 0.00239704 -0.00381658)
(0.14976 0.00343796 -0.00526298)
(0.149355 0.00454756 -0.00680737)
(0.148879 0.00574571 -0.00858982)
(0.148237 0.00705811 -0.0108044)
(0.147272 0.00852264 -0.0136916)
(0.145797 0.0101868 -0.0175245)
(0.143566 0.0121435 -0.022604)
(0.140349 0.0144903 -0.0292718)
(0.135698 0.0175073 -0.0380406)
(0.128962 0.0213163 -0.0496376)
(0.118843 0.026946 -0.066463)
(0.101361 0.0329904 -0.0910592)
(0.0463188 0.0255601 -0.0791234)
(0.155381 0.000495274 -0.000754143)
(0.155296 0.00148972 -0.00214276)
(0.15511 0.00250467 -0.0034391)
(0.15488 0.00356828 -0.00471704)
(0.154667 0.00470899 -0.00606426)
(0.154453 0.00596496 -0.00760085)
(0.154165 0.00738728 -0.00949899)
(0.153661 0.00904697 -0.0119794)
(0.152786 0.011031 -0.015299)
(0.151309 0.0134886 -0.0197382)
(0.149121 0.0165818 -0.0256027)
(0.14574 0.0207717 -0.0333137)
(0.141305 0.0264208 -0.0434601)
(0.132838 0.0354232 -0.0575107)
(0.125251 0.0527283 -0.0821401)
(0.0654668 0.052161 -0.0709497)
(0.0202997 -0.0001099 -0.00166131)
(0.0201641 1.84864e-05 -0.00301051)
(0.0197729 0.000129057 -0.00382421)
(0.0191546 0.000190698 -0.00454775)
(0.0183521 0.000234209 -0.00535473)
(0.0173866 0.000267809 -0.00633419)
(0.0162829 0.000286808 -0.00754527)
(0.0150796 0.00028124 -0.00904027)
(0.0138293 0.000236046 -0.0108798)
(0.0125951 0.000128919 -0.0131455)
(0.0114493 -7.47106e-05 -0.015951)
(0.0104683 -0.000424491 -0.0194401)
(0.00971663 -0.000983542 -0.0237024)
(0.00898762 -0.00168707 -0.0283771)
(0.00720604 -0.00211605 -0.031242)
(0.00378791 -0.0015466 -0.0234671)
(0.0566183 -3.4643e-05 -0.00193365)
(0.056238 0.000236639 -0.00455437)
(0.0554633 0.000559658 -0.00650998)
(0.0543058 0.000843911 -0.00826063)
(0.0527882 0.00108859 -0.0101069)
(0.0509068 0.00128626 -0.0122494)
(0.0486748 0.00141514 -0.0148274)
(0.04613 0.00144674 -0.0179492)
(0.0433253 0.00134537 -0.021722)
(0.040311 0.0010597 -0.0262805)
(0.0371118 0.000501901 -0.0318131)
(0.0336808 -0.000473839 -0.0385603)
(0.02986 -0.00205914 -0.0466267)
(0.0249617 -0.00425268 -0.0550377)
(0.0171167 -0.00599562 -0.0587343)
(0.00713203 -0.00453338 -0.0408617)
(0.0879381 0.000120441 -0.00153314)
(0.0875511 0.000562444 -0.0041699)
(0.0867393 0.00109164 -0.00645193)
(0.0855265 0.00162619 -0.0086113)
(0.0839241 0.00213478 -0.0108891)
(0.0818839 0.0025864 -0.0135039)
(0.0793589 0.00293685 -0.0166388)
(0.0763199 0.0031359 -0.0204431)
(0.072749 0.00312842 -0.0250509)
(0.068616 0.00284536 -0.0306108)
(0.0638394 0.00217114 -0.0373222)
(0.0582089 0.000900143 -0.0454597)
(0.0512778 -0.00130171 -0.0552495)
(0.041876 -0.00465135 -0.0657238)
(0.0272438 -0.00792425 -0.0706361)
(0.00988598 -0.0068092 -0.0491405)
(0.114058 0.000246537 -0.00119806)
(0.113738 0.000856699 -0.00344947)
(0.113026 0.00155642 -0.00556183)
(0.111953 0.00229729 -0.00765753)
(0.11054 0.00304499 -0.00990326)
(0.108718 0.00376323 -0.0124934)
(0.106383 0.00440157 -0.015629)
(0.103419 0.0049024 -0.0194991)
(0.0997059 0.00520494 -0.0242796)
(0.0950961 0.00524378 -0.0301489)
(0.0893815 0.004917 -0.0373197)
(0.0821755 0.00404434 -0.0460881)
(0.0728023 0.00225686 -0.056828)
(0.059688 -0.000931882 -0.0689777)
(0.0386079 -0.00495663 -0.075951)
(0.0130703 -0.00601279 -0.0540486)
(0.134948 0.000344132 -0.00099111)
(0.134691 0.0011023 -0.00288181)
(0.134096 0.0019351 -0.00470542)
(0.133194 0.00282618 -0.00655588)
(0.132023 0.00375614 -0.00855793)
(0.130517 0.00470292 -0.0108763)
(0.12855 0.00563279 -0.0137124)
(0.125948 0.0065061 -0.017287)
(0.122499 0.007281 -0.0218269)
(0.117939 0.00792311 -0.0275655)
(0.111929 0.00837801 -0.0347611)
(0.103919 0.00855933 -0.0437403)
(0.0929994 0.00822716 -0.0549881)
(0.0773953 0.00683783 -0.0685305)
(0.0511284 0.00378919 -0.0779285)
(0.0171255 -0.000685675 -0.056891)
(0.150611 0.00042031 -0.000858784)
(0.150403 0.00130171 -0.0024884)
(0.149915 0.00223946 -0.00406252)
(0.149174 0.00324042 -0.0056653)
(0.148229 0.0043046 -0.00739781)
(0.147032 0.00543256 -0.00939682)
(0.145463 0.00662089 -0.0118492)
(0.143328 0.00786812 -0.0149856)
(0.140373 0.00917593 -0.0190686)
(0.136255 0.0105731 -0.0243842)
(0.130545 0.0120887 -0.0312473)
(0.122566 0.013805 -0.0400358)
(0.1112 0.0157079 -0.051272)
(0.094753 0.0177153 -0.0656117)
(0.0653869 0.0181834 -0.0773289)
(0.0227601 0.0108421 -0.057685)
(0.16105 0.000476613 -0.000765853)
(0.160882 0.00145038 -0.00220826)
(0.160492 0.00246394 -0.00359226)
(0.159908 0.00354038 -0.00499387)
(0.159181 0.00469771 -0.00649837)
(0.158282 0.00595928 -0.00821866)
(0.157111 0.00735424 -0.0103185)
(0.155487 0.00892597 -0.0130169)
(0.153162 0.0107304 -0.0165818)
(0.149778 0.0128792 -0.02132)
(0.144912 0.015504 -0.0275713)
(0.13784 0.0189435 -0.0357497)
(0.127412 0.0234659 -0.046326)
(0.112036 0.0302275 -0.0604512)
(0.083641 0.0377541 -0.0741047)
(0.0324084 0.032292 -0.055751)
(0.166267 0.000512708 -0.000696929)
(0.166134 0.00154197 -0.00200001)
(0.16584 0.00259558 -0.00323916)
(0.165414 0.0037083 -0.00448242)
(0.164913 0.0049135 -0.00580385)
(0.164321 0.00625419 -0.00729863)
(0.163563 0.00778791 -0.00910801)
(0.162485 0.00959725 -0.0114276)
(0.160887 0.011786 -0.0145047)
(0.158445 0.0145384 -0.0186259)
(0.154888 0.0180667 -0.0241026)
(0.149529 0.0229536 -0.0313069)
(0.141933 0.0297323 -0.040588)
(0.129598 0.0409947 -0.0529706)
(0.112225 0.0613474 -0.0680513)
(0.0515553 0.0635917 -0.0494111)
(0.0214122 -0.000129281 -0.0015399)
(0.0212093 -8.32187e-06 -0.00280287)
(0.0206982 0.000105155 -0.00357288)
(0.0199204 0.000165305 -0.00425927)
(0.018923 0.000204448 -0.00502225)
(0.0177214 0.000232149 -0.00594477)
(0.0163309 0.000243463 -0.0070815)
(0.0147788 0.000227612 -0.00847777)
(0.0131055 0.000168451 -0.0101804)
(0.0113611 4.29218e-05 -0.0122437)
(0.00960304 -0.000183035 -0.0147304)
(0.00789654 -0.000558663 -0.0176881)
(0.00631262 -0.00113493 -0.0210389)
(0.00479482 -0.0018765 -0.0242169)
(0.00299599 -0.00252045 -0.0250645)
(0.00095705 -0.00217656 -0.0169931)
(0.0597752 -5.6258e-05 -0.00175771)
(0.059287 0.000189767 -0.00417868)
(0.0583082 0.000502916 -0.00600418)
(0.0568578 0.000777916 -0.00764158)
(0.0549679 0.00101086 -0.00936168)
(0.0526248 0.00119329 -0.0113495)
(0.0498234 0.00130028 -0.0137354)
(0.0465791 0.00129849 -0.0166173)
(0.0429203 0.00114653 -0.0200811)
(0.0388725 0.000787514 -0.0242168)
(0.0344362 0.00013049 -0.0291243)
(0.0295626 -0.000964419 -0.0348752)
(0.0241354 -0.0026735 -0.0412625)
(0.0177728 -0.00495592 -0.0469567)
(0.0100106 -0.00690776 -0.0472059)
(0.00256531 -0.00560448 -0.0295107)
(0.0928638 0.000106778 -0.00137465)
(0.0923817 0.000521194 -0.00377951)
(0.0913683 0.00103109 -0.0058869)
(0.0898437 0.00155033 -0.00788916)
(0.0878289 0.00204392 -0.00999385)
(0.0852672 0.00247798 -0.0123966)
(0.0820905 0.00280214 -0.0152668)
(0.0782388 0.00295674 -0.0187436)
(0.0736561 0.00287544 -0.0229435)
(0.0682691 0.0024778 -0.0279739)
(0.0619561 0.00163874 -0.0339434)
(0.054472 0.000154784 -0.0409374)
(0.0453964 -0.00227744 -0.0488175)
(0.0338463 -0.00575863 -0.0560677)
(0.0189617 -0.00913779 -0.0566657)
(0.00451715 -0.00807992 -0.0349773)
(0.120454 0.000242368 -0.00106877)
(0.120058 0.000836812 -0.00310497)
(0.119173 0.00152252 -0.00504002)
(0.117813 0.00225288 -0.00697222)
(0.116008 0.00299249 -0.0090387)
(0.11368 0.00370313 -0.011406)
(0.110708 0.00432823 -0.0142546)
(0.106943 0.00479947 -0.0177601)
(0.102211 0.00504252 -0.0220841)
(0.0963012 0.00497839 -0.0273729)
(0.0889286 0.00449401 -0.033761)
(0.0796368 0.00340544 -0.0413653)
(0.0677241 0.00138325 -0.0501552)
(0.0517275 -0.00190464 -0.0588516)
(0.0297307 -0.00587765 -0.0608068)
(0.00715365 -0.00689706 -0.0379435)
(0.142518 0.000348014 -0.000884025)
(0.142198 0.00110722 -0.00258877)
(0.141457 0.00194035 -0.00425291)
(0.140302 0.00283508 -0.00595563)
(0.138773 0.0037731 -0.00779831)
(0.1368 0.00473249 -0.00991671)
(0.134242 0.00567601 -0.0124846)
(0.130894 0.00655628 -0.0157014)
(0.126489 0.0073207 -0.019777)
(0.12068 0.00792472 -0.0249186)
(0.113021 0.0083072 -0.0313196)
(0.102839 0.00838762 -0.0391441)
(0.0891645 0.00795665 -0.0484922)
(0.0700957 0.00662267 -0.0585017)
(0.0421048 0.00381233 -0.0623275)
(0.0108971 -0.000588183 -0.0395277)
(0.159061 0.000430608 -0.000766726)
(0.158798 0.0013284 -0.0022359)
(0.158184 0.00228245 -0.00367143)
(0.157222 0.00330449 -0.0051475)
(0.155955 0.00439713 -0.00674779)
(0.154332 0.00556296 -0.00858244)
(0.152222 0.00679853 -0.0108066)
(0.149406 0.00810022 -0.0136215)
(0.145583 0.00946602 -0.0172658)
(0.14032 0.0109241 -0.0219991)
(0.133067 0.0125082 -0.028083)
(0.122979 0.014321 -0.0357489)
(0.108864 0.0163996 -0.0451873)
(0.0886853 0.0187769 -0.0560825)
(0.056749 0.0197844 -0.0619184)
(0.0165362 0.0126241 -0.0397923)
(0.170086 0.000491908 -0.000684073)
(0.169869 0.0014944 -0.00198535)
(0.16937 0.00253823 -0.00324844)
(0.16859 0.003652 -0.00454185)
(0.167576 0.00485758 -0.00593801)
(0.166293 0.00618196 -0.00752714)
(0.164632 0.00765746 -0.00944128)
(0.162397 0.00933152 -0.0118653)
(0.159303 0.0112651 -0.0150372)
(0.15491 0.0135826 -0.0192351)
(0.148678 0.016437 -0.0247559)
(0.139705 0.0202105 -0.0318855)
(0.126746 0.02526 -0.0408339)
(0.107871 0.0328703 -0.0518399)
(0.076169 0.0413983 -0.0596573)
(0.0266674 0.0365591 -0.0384385)
(0.175597 0.000531686 -0.000622342)
(0.17542 0.00159892 -0.00179842)
(0.175029 0.00269373 -0.00293055)
(0.17443 0.00385692 -0.00408045)
(0.173674 0.00512672 -0.005312)
(0.172739 0.00655092 -0.00670106)
(0.171547 0.0081928 -0.00835926)
(0.169932 0.0101444 -0.0104477)
(0.167673 0.0125223 -0.0131825)
(0.164382 0.0155366 -0.0168222)
(0.15969 0.019434 -0.021647)
(0.152764 0.0248743 -0.0279329)
(0.143045 0.032489 -0.0358403)
(0.127981 0.0451952 -0.0457708)
(0.107284 0.0673325 -0.0556691)
(0.0462196 0.0696592 -0.0345607)
(0.0223368 -0.00014694 -0.00135622)
(0.0220727 -3.38594e-05 -0.00247694)
(0.0214531 8.18519e-05 -0.0031644)
(0.0205317 0.000140369 -0.00377814)
(0.01936 0.00017513 -0.00445801)
(0.0179496 0.000196907 -0.00527653)
(0.0163091 0.000200547 -0.00628062)
(0.0144593 0.000174678 -0.0075063)
(0.0124358 0.000102567 -0.00898541)
(0.0102877 -3.85989e-05 -0.010747)
(0.00807937 -0.000280251 -0.0128114)
(0.00589867 -0.000667979 -0.0151602)
(0.00387275 -0.00124031 -0.0176374)
(0.00212844 -0.00197053 -0.0196667)
(0.000769522 -0.00264473 -0.0195021)
(-0.000238113 -0.00228178 -0.0125111)
(0.0624043 -7.5275e-05 -0.00152337)
(0.0618202 0.000147315 -0.00364724)
(0.0606601 0.000450897 -0.00526194)
(0.058949 0.000716948 -0.00671145)
(0.0567287 0.000938437 -0.00822821)
(0.0539794 0.00110586 -0.00997318)
(0.0506833 0.00119142 -0.0120601)
(0.0468418 0.00115766 -0.0145707)
(0.0424715 0.000959008 -0.0175671)
(0.0375937 0.00053649 -0.0210981)
(0.0322201 -0.000196804 -0.0251928)
(0.0263521 -0.00136245 -0.0298049)
(0.0199993 -0.00310777 -0.0345942)
(0.0131401 -0.00535195 -0.038247)
(0.00612823 -0.00726151 -0.0369068)
(0.000548964 -0.00588032 -0.0217903)
(0.0969675 9.52713e-05 -0.00117853)
(0.0964025 0.000485735 -0.00326686)
(0.0952127 0.000978423 -0.00511445)
(0.0934139 0.00148368 -0.00687523)
(0.0910357 0.00196317 -0.00872048)
(0.0880162 0.00238038 -0.0108157)
(0.084273 0.00267933 -0.0133076)
(0.0797258 0.00279205 -0.0163157)
(0.0742953 0.0026431 -0.019933)
(0.0678898 0.00214549 -0.0242268)
(0.060387 0.00117546 -0.0292314)
(0.051573 -0.000448595 -0.0349074)
(0.041162 -0.00296796 -0.0409265)
(0.0286913 -0.00639522 -0.0457213)
(0.0144322 -0.00963888 -0.0442924)
(0.0021417 -0.00846491 -0.0256413)
(0.125783 0.000239424 -0.000912889)
(0.125321 0.000821644 -0.0026694)
(0.124286 0.00149618 -0.00435457)
(0.122678 0.00221795 -0.00604589)
(0.120528 0.00295056 -0.00785242)
(0.117758 0.00365429 -0.00991003)
(0.114232 0.00426717 -0.0123705)
(0.109776 0.00471123 -0.0153848)
(0.104188 0.00490036 -0.0190891)
(0.0972138 0.00474629 -0.0235934)
(0.0885413 0.00413483 -0.0289652)
(0.0777218 0.0028983 -0.0351977)
(0.064147 0.000779192 -0.042033)
(0.0467214 -0.00243211 -0.0480162)
(0.0249669 -0.00618861 -0.0474571)
(0.00457723 -0.00707908 -0.0275823)
(0.148825 0.000352305 -0.000755173)
(0.148451 0.00111471 -0.00222242)
(0.147583 0.00195032 -0.00366694)
(0.14621 0.00284998 -0.0051544)
(0.14437 0.00379637 -0.00676543)
(0.141989 0.00476794 -0.00860761)
(0.138915 0.0057246 -0.0108223)
(0.134921 0.00661185 -0.0135767)
(0.129707 0.00736698 -0.0170492)
(0.122872 0.00793714 -0.0214091)
(0.113916 0.00825978 -0.0267874)
(0.102131 0.00827325 -0.0332315)
(0.0866026 0.00781865 -0.0406103)
(0.0656704 0.00663784 -0.047758)
(0.0374282 0.00413284 -0.0486277)
(0.00827971 -0.000168049 -0.0285677)
(0.166101 0.000440792 -0.000655455)
(0.165791 0.00135575 -0.00192005)
(0.165068 0.00232692 -0.00316536)
(0.163915 0.00336994 -0.00445493)
(0.162371 0.00448969 -0.00585709)
(0.160377 0.00569085 -0.00745823)
(0.157793 0.00697022 -0.00938094)
(0.154386 0.00832193 -0.0117889)
(0.149822 0.00973928 -0.0148816)
(0.143615 0.0112481 -0.0188755)
(0.135148 0.0128847 -0.0239715)
(0.123506 0.0147727 -0.0302919)
(0.107522 0.0169973 -0.037817)
(0.0852426 0.0196934 -0.0458396)
(0.0525168 0.0211565 -0.0483729)
(0.0140654 0.014088 -0.0286987)
(0.177615 0.000506817 -0.000584997)
(0.177355 0.00153781 -0.00170576)
(0.176761 0.00261146 -0.00280207)
(0.175814 0.00376096 -0.00393323)
(0.174554 0.00501164 -0.00515996)
(0.172938 0.00639391 -0.00655332)
(0.170849 0.00794307 -0.00821566)
(0.168079 0.00970958 -0.0102933)
(0.164322 0.0117567 -0.012981)
(0.159093 0.0142162 -0.0165097)
(0.151787 0.0172521 -0.0211183)
(0.141415 0.0212754 -0.0269935)
(0.126742 0.0266946 -0.0341748)
(0.105822 0.0348753 -0.0424979)
(0.0728251 0.0440577 -0.046863)
(0.0246037 0.0394968 -0.0278802)
(0.183371 0.000550156 -0.000532101)
(0.183154 0.00165451 -0.00154539)
(0.18268 0.0027891 -0.00252879)
(0.181934 0.00399997 -0.00353583)
(0.18096 0.00532973 -0.0046208)
(0.17973 0.00683061 -0.00584382)
(0.178158 0.00857078 -0.00729044)
(0.176072 0.0106498 -0.00908566)
(0.17324 0.013193 -0.0114035)
(0.169238 0.0164277 -0.0144573)
(0.163652 0.0206195 -0.0184774)
(0.155566 0.0264732 -0.0236604)
(0.144422 0.0346632 -0.0300447)
(0.12767 0.0482545 -0.0377479)
(0.105539 0.0714377 -0.0442869)
(0.0443532 0.0734844 -0.0254134)
(0.0230739 -0.00016156 -0.00111739)
(0.0227583 -5.37306e-05 -0.00204623)
(0.0220466 6.15311e-05 -0.0026175)
(0.0210027 0.000118009 -0.00312804)
(0.019684 0.000148821 -0.00369184)
(0.0180994 0.000165337 -0.00436774)
(0.0162536 0.000162264 -0.00519302)
(0.0141645 0.00012785 -0.00619406)
(0.0118684 4.513e-05 -0.00739002)
(0.00942091 -0.000108159 -0.00879164)
(0.00690407 -0.000361569 -0.0103934)
(0.00443825 -0.00075138 -0.0121451)
(0.00220965 -0.00131068 -0.0138785)
(0.000471564 -0.00201019 -0.0151105)
(-0.000447299 -0.00264488 -0.0145421)
(-0.000775239 -0.00225491 -0.00904446)
(0.0645068 -9.0964e-05 -0.00123918)
(0.0638421 0.000112424 -0.00298239)
(0.0625285 0.000406666 -0.00431635)
(0.060598 0.000664505 -0.0055139)
(0.0581005 0.000875863 -0.00676254)
(0.055013 0.00103011 -0.00819287)
(0.0513103 0.00109704 -0.0098968)
(0.0469868 0.00103591 -0.0119376)
(0.0420567 0.000798402 -0.014356)
(0.0365491 0.000325875 -0.017171)
(0.0305078 -0.000460021 -0.0203697)
(0.0239954 -0.00166282 -0.0238496)
(0.0171495 -0.00339989 -0.0272587)
(0.0102137 -0.00555715 -0.0294946)
(0.00392991 -0.00734166 -0.0276816)
(-0.00040914 -0.00588539 -0.0158268)
(0.10025 8.59429e-05 -0.000950776)
(0.099616 0.000456238 -0.00265157)
(0.0982795 0.000934837 -0.00416708)
(0.0962518 0.00142833 -0.00561453)
(0.0935702 0.00189574 -0.00712763)
(0.0901702 0.00229844 -0.00883763)
(0.0859604 0.00257587 -0.0108621)
(0.0808489 0.0026532 -0.0132964)
(0.0747459 0.00244813 -0.0162089)
(0.0675583 0.00187072 -0.0196358)
(0.0591832 0.000805747 -0.0235656)
(0.0494592 -0.000904286 -0.0279011)
(0.0382574 -0.0034326 -0.0322701)
(0.0254474 -0.00673538 -0.0353202)
(0.0118683 -0.00977444 -0.0332633)
(0.00101955 -0.00849435 -0.0185755)
(0.130045 0.000237376 -0.000734508)
(0.129529 0.000810266 -0.0021579)
(0.12837 0.00147634 -0.00353283)
(0.126556 0.00219146 -0.00491806)
(0.124122 0.0029185 -0.00639646)
(0.120985 0.00361665 -0.00807249)
(0.117 0.00421967 -0.0100653)
(0.111983 0.00464158 -0.0124945)
(0.10571 0.00478679 -0.0154665)
(0.0979111 0.0045611 -0.0190575)
(0.0882698 0.00385354 -0.0232904)
(0.0763817 0.00252294 -0.0280953)
(0.0617636 0.000384143 -0.0331436)
(0.0436518 -0.00269048 -0.0371242)
(0.022334 -0.00620542 -0.0356364)
(0.00339488 -0.00698435 -0.0198979)
(0.153871 0.0003564 -0.000607703)
(0.15345 0.0011228 -0.00179477)
(0.152479 0.00196184 -0.0029703)
(0.150927 0.00286674 -0.00418636)
(0.148831 0.00382093 -0.00550463)
(0.146112 0.00480343 -0.00700621)
(0.142611 0.0057721 -0.00879906)
(0.138089 0.00666653 -0.0110132)
(0.132225 0.0074154 -0.0137885)
(0.124592 0.00795933 -0.0172534)
(0.114665 0.00823711 -0.0214903)
(0.101748 0.0082104 -0.0264816)
(0.0850159 0.00776816 -0.0320071)
(0.0630822 0.00675232 -0.0369468)
(0.0349539 0.00452503 -0.0365282)
(0.00715673 0.000296802 -0.0205596)
(0.171733 0.000449955 -0.000527731)
(0.171382 0.00138084 -0.00155101)
(0.17057 0.00236796 -0.00256393)
(0.169261 0.00342996 -0.00361793)
(0.167489 0.00457354 -0.00476668)
(0.165191 0.00580527 -0.00607519)
(0.162217 0.00712248 -0.00763514)
(0.158323 0.00851737 -0.00957079)
(0.153161 0.00997865 -0.0120362)
(0.146216 0.0115289 -0.0151986)
(0.13684 0.0132053 -0.0192028)
(0.124098 0.0151491 -0.0241044)
(0.106885 0.0174839 -0.0297903)
(0.0834207 0.0204219 -0.0355009)
(0.0504406 0.022238 -0.0364039)
(0.0131029 0.0152049 -0.020674)
(0.183638 0.000520114 -0.000471101)
(0.183342 0.00157677 -0.00137845)
(0.182669 0.0026772 -0.00227056)
(0.181585 0.00385825 -0.0031956)
(0.180124 0.00514803 -0.00420224)
(0.178235 0.00657991 -0.00534454)
(0.175794 0.00819179 -0.00669818)
(0.172584 0.0100364 -0.00837185)
(0.168291 0.0121778 -0.0105132)
(0.162404 0.0147508 -0.0132998)
(0.154292 0.0179238 -0.0169111)
(0.14293 0.0221247 -0.0214657)
(0.127124 0.0277897 -0.0269227)
(0.105014 0.0363375 -0.0329896)
(0.0714105 0.0459534 -0.0354335)
(0.0239562 0.0415506 -0.0202232)
(0.189589 0.000566618 -0.00042843)
(0.18934 0.00170414 -0.00124899)
(0.188796 0.00287402 -0.00204969)
(0.18793 0.00412657 -0.00287397)
(0.186779 0.00550808 -0.00376573)
(0.185308 0.0070745 -0.00477117)
(0.183424 0.008898 -0.00595326)
(0.180951 0.0110838 -0.0074035)
(0.177651 0.0137626 -0.00925192)
(0.173086 0.0171726 -0.0116612)
(0.166826 0.0215871 -0.0148069)
(0.157916 0.0277352 -0.0188267)
(0.145829 0.0363024 -0.0237012)
(0.128048 0.0504252 -0.029429)
(0.105214 0.0742628 -0.033779)
(0.0438314 0.0760825 -0.0186107)
(0.0236249 -0.000172791 -0.000832427)
(0.0232693 -6.82472e-05 -0.00152745)
(0.0224852 4.5018e-05 -0.00195585)
(0.0213452 9.93078e-05 -0.00233869)
(0.0199118 0.000126731 -0.00276032)
(0.0181928 0.000138844 -0.00326391)
(0.0161908 0.000130257 -0.00387622)
(0.0139235 8.89846e-05 -0.00461483)
(0.0114301 -1.9721e-06 -0.0054898)
(0.00877554 -0.000163876 -0.00650191)
(0.00606087 -0.000425558 -0.00763511)
(0.00343643 -0.000814622 -0.00883578)
(0.00112911 -0.00135992 -0.00996204)
(-0.000521071 -0.00202085 -0.010672)
(-0.00111048 -0.00262308 -0.0100611)
(-0.00103422 -0.00220139 -0.00614783)
(0.0660829 -0.00010299 -0.000914438)
(0.0653551 8.57698e-05 -0.00220997)
(0.0639215 0.000371846 -0.00320549)
(0.0618203 0.000622734 -0.00409908)
(0.0591075 0.000825783 -0.00502822)
(0.0557592 0.000969369 -0.00608868)
(0.0517464 0.00102143 -0.00734752)
(0.0470612 0.000938817 -0.0088491)
(0.0417211 0.000671481 -0.0106177)
(0.0357672 0.000162161 -0.0126556)
(0.0292773 -0.000658941 -0.0149334)
(0.0223716 -0.0018796 -0.0173469)
(0.0152829 -0.0035928 -0.0196016)
(0.0084216 -0.00565593 -0.0208935)
(0.00269216 -0.00732846 -0.0192554)
(-0.0008735 -0.00581375 -0.0108026)
(0.10271 7.89225e-05 -0.000697298)
(0.102023 0.000433492 -0.00195406)
(0.100573 0.000901402 -0.00307925)
(0.0983689 0.00138578 -0.00415549)
(0.0954526 0.00184367 -0.00527854)
(0.0917594 0.00223499 -0.00654295)
(0.0871929 0.00249571 -0.00803401)
(0.0816557 0.0025458 -0.00982023)
(0.0750552 0.00229813 -0.0119476)
(0.0673051 0.00166192 -0.0144324)
(0.058327 0.000532095 -0.017246)
(0.0480163 -0.0012257 -0.0202869)
(0.0363652 -0.00373238 -0.0232258)
(0.0234659 -0.00690732 -0.0250619)
(0.0104261 -0.00976519 -0.0231775)
(0.000484895 -0.00841093 -0.0126735)
(0.133241 0.000236078 -0.000537579)
(0.132683 0.000802303 -0.00158551)
(0.131429 0.00146242 -0.00260231)
(0.129457 0.00217279 -0.00362944)
(0.126803 0.00289575 -0.00472522)
(0.123383 0.00358986 -0.00596319)
(0.119049 0.00418575 -0.00742818)
(0.113606 0.00459137 -0.00920613)
(0.106823 0.00470406 -0.011372)
(0.0984255 0.00442612 -0.0139746)
(0.0881053 0.00365138 -0.0170133)
(0.0755095 0.00226547 -0.0204018)
(0.0602567 0.000138869 -0.0238572)
(0.0418218 -0.00280188 -0.0263656)
(0.0208908 -0.00610807 -0.0248479)
(0.00285905 -0.00682 -0.0135536)
(0.157654 0.000359896 -0.000444765)
(0.157198 0.00113019 -0.00131769)
(0.156146 0.00197272 -0.00218537)
(0.154458 0.00288242 -0.00308566)
(0.152165 0.00384321 -0.00406253)
(0.149188 0.00483472 -0.00517228)
(0.145361 0.00581346 -0.00649026)
(0.140438 0.00671466 -0.00810837)
(0.134088 0.00746027 -0.0101259)
(0.125872 0.00798603 -0.0126316)
(0.115262 0.00823282 -0.0156734)
(0.101584 0.00818261 -0.0192106)
(0.0840977 0.00776331 -0.0230338)
(0.061629 0.00688643 -0.0262543)
(0.033665 0.00488099 -0.0254818)
(0.00668295 0.000688317 -0.0139969)
(0.175956 0.000457435 -0.000386338)
(0.175573 0.00140156 -0.00113892)
(0.174693 0.002402 -0.0018863)
(0.173264 0.00347961 -0.00266631)
(0.171319 0.00464236 -0.00351804)
(0.168788 0.00589839 -0.00448675)
(0.165516 0.00724561 -0.00563553)
(0.161253 0.00867486 -0.00705057)
(0.155641 0.010171 -0.00883988)
(0.148157 0.0117532 -0.0111208)
(0.138138 0.0134586 -0.0139903)
(0.124655 0.0154404 -0.0174687)
(0.106661 0.0178517 -0.0214308)
(0.082527 0.0209582 -0.0252483)
(0.0494648 0.0230247 -0.0254408)
(0.0127684 0.0160021 -0.0141012)
(0.188155 0.000530879 -0.000344915)
(0.18783 0.00160846 -0.00101247)
(0.187097 0.00273068 -0.00167092)
(0.185908 0.00393714 -0.00235568)
(0.184293 0.00525801 -0.00310268)
(0.182197 0.00672895 -0.00395003)
(0.179489 0.00838992 -0.00494947)
(0.175945 0.0102954 -0.00617524)
(0.171246 0.0125091 -0.00772925)
(0.164876 0.015167 -0.00973557)
(0.156193 0.0184378 -0.012318)
(0.144164 0.0227579 -0.0155494)
(0.127633 0.0285786 -0.0193681)
(0.10483 0.0373542 -0.0234995)
(0.07091 0.0472568 -0.0248444)
(0.0238545 0.042953 -0.0138654)
(0.194253 0.000579926 -0.00031364)
(0.193978 0.00174433 -0.000917454)
(0.193381 0.00294269 -0.0015087)
(0.192422 0.00422854 -0.00211922)
(0.191136 0.00565101 -0.00278162)
(0.189483 0.00726889 -0.00352877)
(0.187363 0.0091573 -0.0044037)
(0.184595 0.0114256 -0.00546827)
(0.180942 0.0142074 -0.00681113)
(0.17596 0.0177472 -0.00854529)
(0.16922 0.0223201 -0.0107927)
(0.159752 0.0286667 -0.0136459)
(0.14706 0.0374705 -0.0170679)
(0.128659 0.0519035 -0.021024)
(0.105462 0.07616 -0.0238041)
(0.043822 0.0778349 -0.012827)
(0.0239909 -0.000180416 -0.000510255)
(0.0236075 -7.91062e-05 -0.000937784)
(0.022774 3.24842e-05 -0.00120128)
(0.0215681 8.48393e-05 -0.00143636)
(0.0200564 0.000109342 -0.00169484)
(0.0182463 0.000117777 -0.00200283)
(0.0161396 0.000104663 -0.00237619)
(0.0137546 5.7796e-05 -0.00282475)
(0.0111338 -3.98617e-05 -0.00335295)
(0.00835076 -0.000208842 -0.00395826)
(0.00552104 -0.000477112 -0.00462665)
(0.00281785 -0.000868542 -0.00531978)
(0.000485517 -0.00140668 -0.00594676)
(-0.00107862 -0.00203098 -0.00630197)
(-0.00145182 -0.00261236 -0.00587003)
(-0.00115082 -0.00216573 -0.00355088)
(0.0671315 -0.000110944 -0.000556517)
(0.0663603 6.72533e-05 -0.00135067)
(0.0648454 0.000347502 -0.00196102)
(0.0626278 0.000593293 -0.00250841)
(0.0597683 0.000790132 -0.00307673)
(0.0562429 0.00092586 -0.00372381)
(0.0520215 0.000967193 -0.00448999)
(0.0470959 0.000869327 -0.00540127)
(0.0414879 0.000581126 -0.00646996)
(0.035251 4.68496e-05 -0.00769274)
(0.0284872 -0.000797443 -0.00904447)
(0.0213618 -0.00203085 -0.0104519)
(0.0141647 -0.00372133 -0.0117241)
(0.00739988 -0.00570752 -0.0123806)
(0.00203423 -0.0073016 -0.0112875)
(-0.00108557 -0.00574923 -0.00626534)
(0.104349 7.44631e-05 -0.000422346)
(0.103625 0.000418527 -0.00118973)
(0.102099 0.000879249 -0.00187739)
(0.0997742 0.00135743 -0.00253526)
(0.0966983 0.00180869 -0.00322126)
(0.0928062 0.00219211 -0.0039917)
(0.0879991 0.00244144 -0.00489764)
(0.0821777 0.00247318 -0.00597998)
(0.0752496 0.00219703 -0.00726484)
(0.0671373 0.00152247 -0.00875801)
(0.0577795 0.000352672 -0.0104341)
(0.0471261 -0.00142611 -0.0122222)
(0.0352401 -0.00391249 -0.0138997)
(0.0223399 -0.00699044 -0.0148674)
(0.00966078 -0.00972048 -0.0136033)
(0.000246329 -0.00832228 -0.00734889)
(0.135371 0.000235456 -0.000325075)
(0.134783 0.000797666 -0.000963392)
(0.133465 0.00145415 -0.00158321)
(0.131386 0.00216168 -0.00220979)
(0.128583 0.00288212 -0.00287846)
(0.124973 0.00357374 -0.0036323)
(0.120402 0.00416526 -0.0045214)
(0.114674 0.00456059 -0.00559694)
(0.107553 0.00465241 -0.00690311)
(0.098768 0.00434089 -0.00846648)
(0.088022 0.00352458 -0.01028)
(0.0749945 0.0021125 -0.0122776)
(0.0593785 -1.72479e-07 -0.0142781)
(0.040804 -0.00284295 -0.0156502)
(0.0201447 -0.00600543 -0.0145933)
(0.00263606 -0.00668076 -0.00785318)
(0.160175 0.000362463 -0.000268964)
(0.159693 0.00113594 -0.000800348)
(0.158589 0.00198138 -0.00132861)
(0.156807 0.0028949 -0.00187707)
(0.154382 0.00386065 -0.00247289)
(0.151232 0.0048587 -0.0031488)
(0.147185 0.00584492 -0.00394864)
(0.141992 0.00675168 -0.00492652)
(0.13532 0.00749644 -0.00614101)
(0.126724 0.00801144 -0.00764384)
(0.11568 0.00823917 -0.00945929)
(0.101535 0.00817274 -0.0115531)
(0.0836097 0.00777645 -0.0137827)
(0.0608657 0.00699605 -0.0155912)
(0.033034 0.00513894 -0.0149789)
(0.00650954 0.000960856 -0.00811275)
(0.178771 0.000462688 -0.000233718)
(0.178366 0.00141632 -0.00069195)
(0.177439 0.00242637 -0.00114692)
(0.175929 0.00351516 -0.00162187)
(0.173867 0.00469145 -0.00214138)
(0.17118 0.0059644 -0.00273193)
(0.167707 0.00733251 -0.0034298)