/*--------------------------------*- C++ -*----------------------------------*\
| =========                 |                                                 |
| \\      /  F ield         | foam-extend: Open Source CFD                    |
|  \\    /   O peration     | Version:     3.1                                |
|   \\  /    A nd           | Web:         http://www.extend-project.de       |
|    \\/     M anipulation  |                                                 |
\*---------------------------------------------------------------------------*/
FoamFile
{
    version     2.0;
    format      ascii;
    class       volVectorField;
    location    "2.2";
    object      D;
}
// * * * * * * * * * * * * * * * * * * * * * * * * * * * * * * * * * * * * * //

dimensions      [0 1 0 0 0 0 0];

internalField   nonuniform List<vector> 
256
(
(0.000239362 0.000148915 0.000253724)
(0.000110421 2.74101e-05 7.82757e-05)
(9.7573e-05 -4.37552e-05 -8.48042e-05)
(0.00019769 -0.000163651 -0.000269354)
(0.000977155 0.000612327 0.000191178)
(0.000814363 0.000163717 7.30884e-05)
(0.000781166 -0.000187651 -0.000113093)
(0.000872371 -0.000630332 -0.000255644)
(0.00189136 0.000942954 0.000116672)
(0.00172818 0.000277494 3.00314e-05)
(0.00168417 -0.000303052 -0.000102617)
(0.00175598 -0.000968141 -0.000215321)
(0.00296362 0.00119821 1.86116e-05)
(0.0028173 0.000361888 -1.26599e-05)
(0.00276713 -0.000399366 -8.63881e-05)
(0.00280919 -0.00123784 -0.000145078)
(0.00413578 0.00137134 -7.62518e-05)
(0.00400548 0.00041556 -5.29934e-05)
(0.0039519 -0.000475523 -6.71123e-05)
(0.00397009 -0.00143305 -7.08114e-05)
(0.00535545 0.00147894 -0.000159461)
(0.00523979 0.00044414 -8.8422e-05)
(0.00518471 -0.000534906 -4.99675e-05)
(0.00518471 -0.00156798 -3.05452e-06)
(0.00658271 0.00153701 -0.000225806)
(0.00647686 0.000453582 -0.00011998)
(0.00642052 -0.000580094 -3.87275e-05)
(0.0064096 -0.00165525 4.95325e-05)
(0.00779927 0.00156146 -0.000276199)
(0.00768757 0.000452115 -0.000149535)
(0.00762543 -0.000612949 -3.54722e-05)
(0.00761354 -0.00170957 7.78253e-05)
(0.00026201 0.000147499 0.000122663)
(0.000135533 2.86796e-05 3.9803e-05)
(0.000122738 -4.03556e-05 -4.83222e-05)
(0.000216684 -0.000155348 -0.00014072)
(0.00102193 0.000609175 0.000102336)
(0.000840335 0.00016658 3.50323e-05)
(0.000809027 -0.000180492 -7.28591e-05)
(0.000920391 -0.000618168 -0.000156821)
(0.00191181 0.00095441 5.45081e-05)
(0.00175048 0.000286626 7.13266e-06)
(0.00170908 -0.000301243 -7.27424e-05)
(0.00178166 -0.000969174 -0.000137722)
(0.00295159 0.00121313 -1.33035e-05)
(0.00280898 0.000373421 -2.43525e-05)
(0.00276167 -0.000397427 -6.44258e-05)
(0.00280258 -0.00123958 -9.37871e-05)
(0.00408579 0.00138826 -8.31718e-05)
(0.00396153 0.000428889 -5.51682e-05)
(0.00391065 -0.000471859 -5.27558e-05)
(0.00392504 -0.00143254 -4.25028e-05)
(0.0052687 0.00149544 -0.00014639)
(0.00515986 0.000458236 -8.31719e-05)
(0.00510725 -0.000527844 -4.20865e-05)
(0.00510211 -0.00156189 5.52477e-06)
(0.00646327 0.00155138 -0.000197954)
(0.00636538 0.000467302 -0.000108315)
(0.0063116 -0.000568742 -3.63172e-05)
(0.00629419 -0.00164157 4.20298e-05)
(0.00765489 0.00157259 -0.00023569)
(0.00755131 0.000464317 -0.000130548)
(0.00749183 -0.000597488 -3.90161e-05)
(0.00747356 -0.00168812 5.72617e-05)
(0.000271102 0.000151222 5.63093e-05)
(0.000137023 3.06492e-05 1.78885e-05)
(0.000122582 -4.0732e-05 -2.7439e-05)
(0.000220309 -0.000158094 -7.19245e-05)
(0.00103709 0.000601843 4.46945e-05)
(0.000840328 0.000166236 1.10741e-05)
(0.000807009 -0.000174491 -4.55401e-05)
(0.000929239 -0.000606693 -8.91718e-05)
(0.00191565 0.0009452 1.23832e-05)
(0.00174312 0.000287844 -8.46844e-06)
(0.00169973 -0.000292847 -4.92992e-05)
(0.00177965 -0.000951615 -8.01339e-05)
(0.00293515 0.00120372 -3.40043e-05)
(0.00278519 0.000376311 -3.13733e-05)
(0.0027359 -0.000386328 -4.62829e-05)
(0.00278033 -0.00121655 -5.35942e-05)
(0.00404513 0.00138091 -8.35544e-05)
(0.00391599 0.000433942 -5.43375e-05)
(0.00386312 -0.00045813 -4.02842e-05)
(0.00387848 -0.00140561 -2.0324e-05)
(0.00520284 0.00149119 -0.000129848)
(0.00509105 0.000465508 -7.58302e-05)
(0.00503655 -0.000511477 -3.46961e-05)
(0.00503042 -0.00153168 1.16802e-05)
(0.00637383 0.00155091 -0.000168519)
(0.00627478 0.000476499 -9.5502e-05)
(0.0062193 -0.000549899 -3.30945e-05)
(0.00619916 -0.0016086 3.51842e-05)
(0.00754654 0.00157645 -0.000196215)
(0.00744332 0.000475128 -0.000112804)
(0.00738162 -0.000576476 -3.94863e-05)
(0.00735789 -0.00165279 4.04906e-05)
(0.000272841 0.00015301 2.30458e-05)
(0.000133638 3.15272e-05 6.58477e-06)
(0.00011781 -4.08129e-05 -1.52562e-05)
(0.000217964 -0.000159091 -3.49977e-05)
(0.0010368 0.000595839 1.27835e-05)
(0.00083091 0.00016563 -1.04944e-06)
(0.000795279 -0.000169501 -2.80598e-05)
(0.000922537 -0.000596413 -4.78399e-05)
(0.00190626 0.000934607 -1.06837e-05)
(0.00172537 0.000287573 -1.54865e-05)
(0.00167954 -0.000283782 -3.25489e-05)
(0.00176382 -0.000932438 -4.29198e-05)
(0.00291215 0.00119156 -4.29812e-05)
(0.00275567 0.000377263 -3.22096e-05)
(0.00270399 -0.000373661 -3.22236e-05)
(0.00275112 -0.00119059 -2.66697e-05)
(0.00400598 0.00136969 -7.79209e-05)
(0.003872 0.000436826 -4.91846e-05)
(0.00381684 -0.000442365 -2.96507e-05)
(0.00383339 -0.00137491 -5.47225e-06)
(0.00514648 0.00148261 -0.000111348)
(0.00503133 0.000470715 -6.54612e-05)
(0.00497471 -0.000493127 -2.73536e-05)
(0.00496846 -0.00149775 1.51725e-05)
(0.0063007 0.00154598 -0.000139941)
(0.0061996 0.000484047 -8.07348e-05)
(0.00614206 -0.000529455 -2.82739e-05)
(0.00612046 -0.0015725 2.95231e-05)
(0.00745896 0.00157548 -0.000160244)
(0.00735438 0.000484969 -9.43525e-05)
(0.00728986 -0.000554293 -3.60005e-05)
(0.00726266 -0.00161513 2.91532e-05)
(0.000272052 0.000153486 7.28278e-06)
(0.00012994 3.194e-05 1.34153e-06)
(0.000113155 -4.06665e-05 -8.18794e-06)
(0.000214297 -0.000158833 -1.57354e-05)
(0.00103088 0.000591279 -2.2262e-06)
(0.000819654 0.000165363 -5.79581e-06)
(0.000782231 -0.000165415 -1.68864e-05)
(0.000911651 -0.00058764 -2.39765e-05)
(0.00189227 0.000926545 -1.95711e-05)
(0.00170599 0.000287576 -1.6485e-05)
(0.00165826 -0.000275899 -2.0836e-05)
(0.00174473 -0.000916271 -2.08545e-05)
(0.00288815 0.00118198 -4.21287e-05)
(0.00272704 0.000378245 -2.85462e-05)
(0.00267354 -0.00036236 -2.16007e-05)
(0.00272228 -0.00116838 -1.07297e-05)
(0.00397066 0.00136046 -6.65174e-05)
(0.00383301 0.000439369 -4.08461e-05)
(0.00377617 -0.000428151 -2.08479e-05)
(0.0037936 -0.00134821 2.65452e-06)
(0.00509912 0.0014751 -9.02036e-05)
(0.00498124 0.000475148 -5.28633e-05)
(0.00492307 -0.000476544 -2.0377e-05)
(0.00491696 -0.00146792 1.56354e-05)
(0.00624117 0.00154097 -0.000110847)
(0.00613819 0.000490399 -6.43843e-05)
(0.00607913 -0.000511021 -2.24171e-05)
(0.00605681 -0.00154053 2.39896e-05)
(0.00738799 0.00157317 -0.000125395)
(0.00728199 0.000493187 -7.47739e-05)
(0.00721534 -0.000534346 -2.97743e-05)
(0.00718606 -0.00158165 2.11076e-05)
(0.00027073 0.000153429 7.46671e-07)
(0.000127053 3.2144e-05 -6.20296e-07)
(0.000109637 -4.04402e-05 -4.16044e-06)
(0.000211019 -0.000158142 -6.24566e-06)
(0.00102421 0.000588047 -7.06769e-06)
(0.000809951 0.000165368 -6.30166e-06)
(0.000771296 -0.000162282 -9.69636e-06)
(0.000901514 -0.000580799 -1.09646e-05)
(0.00187895 0.000921105 -1.92498e-05)
(0.0016894 0.000287934 -1.37731e-05)
(0.00164036 -0.000269779 -1.2637e-05)
(0.00172786 -0.000904032 -8.86674e-06)
(0.00286741 0.00117554 -3.43449e-05)
(0.00270333 0.00037941 -2.20049e-05)
(0.00264861 -0.000353512 -1.36164e-05)
(0.00269823 -0.00115157 -2.66736e-06)
(0.00394194 0.00135418 -5.05818e-05)
(0.00380182 0.000441711 -3.04115e-05)
(0.00374388 -0.000416956 -1.36634e-05)
(0.00376189 -0.00132785 5.50336e-06)
(0.00506197 0.00146984 -6.64912e-05)
(0.00494217 0.000478859 -3.87341e-05)
(0.00488302 -0.000463435 -1.39793e-05)
(0.00487709 -0.00144494 1.33191e-05)
(0.0061953 0.0015372 -8.05359e-05)
(0.00609091 0.00049547 -4.68348e-05)
(0.00603089 -0.000496423 -1.61015e-05)
(0.00600826 -0.00151565 1.79214e-05)
(0.00733347 0.001571 -9.03846e-05)
(0.00722628 0.000499573 -5.41953e-05)
(0.00715826 -0.000518534 -2.19816e-05)
(0.0071279 -0.0015554 1.46562e-05)
(0.000269643 0.000153233 -1.02976e-06)
(0.000125173 3.22442e-05 -8.90808e-07)
(0.000107371 -4.02385e-05 -1.89254e-06)
(0.000208708 -0.000157488 -2.03638e-06)
(0.00101902 0.000585977 -6.15002e-06)
(0.000803148 0.000165474 -4.51196e-06)
(0.00076373 -0.000160161 -4.94223e-06)
(0.00089416 -0.00057614 -4.3583e-06)
(0.00186906 0.000917796 -1.34356e-05)
(0.00167766 0.000288371 -8.95637e-06)
(0.00162781 -0.000265634 -6.72633e-06)
(0.00171576 -0.000895878 -3.09916e-06)
(0.00285252 0.00117168 -2.21753e-05)
(0.0026867 0.00038044 -1.3775e-05)
(0.00263124 -0.000347507 -7.46065e-06)
(0.00268132 -0.00114042 2.83589e-07)
(0.00392184 0.00135042 -3.15304e-05)
(0.00378022 0.000443532 -1.8698e-05)
(0.00372163 -0.00040934 -7.70093e-06)
(0.00373998 -0.0013143 4.70293e-06)
(0.00503641 0.00146664 -4.07407e-05)
(0.00491541 0.000481562 -2.36118e-05)
(0.00485568 -0.000454496 -8.13523e-06)
(0.0048499 -0.00142954 8.86762e-06)
(0.00616401 0.00153481 -4.89341e-05)
(0.00605871 0.000499024 -2.8438e-05)
(0.00599813 -0.000486452 -9.65914e-06)
(0.00597539 -0.00149888 1.11283e-05)
(0.00729633 0.00156946 -5.46608e-05)
(0.00718833 0.000503941 -3.28385e-05)
(0.00711952 -0.00050772 -1.34094e-05)
(0.00708863 -0.00153761 8.74004e-06)
(0.000269054 0.000153094 -5.61848e-07)
(0.000124257 3.22856e-05 -3.72961e-07)
(0.000106274 -4.01234e-05 -5.36776e-07)
(0.000207537 -0.000157111 -4.19529e-07)
(0.00101626 0.000584966 -2.34078e-06)
(0.000799687 0.000165558 -1.61298e-06)
(0.000759909 -0.000159091 -1.50785e-06)
(0.000890363 -0.000573787 -1.10552e-06)
(0.00186386 0.000916234 -4.77008e-06)
(0.00167164 0.00028865 -3.09022e-06)
(0.00162141 -0.000263546 -2.10347e-06)
(0.00170953 -0.00089181 -6.81376e-07)
(0.00284479 0.00116989 -7.63852e-06)
(0.00267818 0.000381035 -4.67946e-06)
(0.00262237 -0.000344482 -2.37043e-06)
(0.00267264 -0.00113487 3.96647e-07)
(0.00391151 0.00134868 -1.07007e-05)
(0.0037692 0.000444526 -6.3034e-06)
(0.0037103 -0.000405501 -2.4839e-06)
(0.00372881 -0.00130756 1.796e-06)
(0.00502337 0.00146514 -1.37219e-05)
(0.00490181 0.000482987 -7.9305e-06)
(0.00484182 -0.000449985 -2.66777e-06)
(0.00483611 -0.00142186 3.10263e-06)
(0.0061481 0.00153364 -1.64193e-05)
(0.00604238 0.000500857 -9.5351e-06)
(0.00598155 -0.000481414 -3.21575e-06)
(0.00595878 -0.00149047 3.77762e-06)
(0.00727746 0.00156863 -1.83016e-05)
(0.00716908 0.000506166 -1.09998e-05)
(0.00709991 -0.000502247 -4.50011e-06)
(0.0070688 -0.00152866 2.91533e-06)
)
;

boundaryField
{
    interface
    {
        type            tractionDisplacement;
        gradient        nonuniform List<vector> 
192
(
(0.0214849 0.0306124 0.000284185)
(0.0101197 0.029804 0.000549129)
(0.0112236 0.0386118 -0.00074714)
(0.00915517 0.0433769 -0.002574)
(0.00773319 0.0467317 -0.00435215)
(0.00642531 0.0482881 -0.00597152)
(0.00570288 0.0487886 -0.00725618)
(0.00532537 0.0495598 -0.00799062)
(0.0218372 0.0320492 0.000218855)
(0.0116997 0.0294296 0.000501736)
(0.0113604 0.0371825 -0.000227456)
(0.00946337 0.0419044 -0.00140029)
(0.00793841 0.0452298 -0.00263072)
(0.00666602 0.0469827 -0.00383494)
(0.00594246 0.0477843 -0.00487547)
(0.00553553 0.0491067 -0.00559053)
(0.0225189 0.0328706 -4.29699e-05)
(0.0121676 0.0292474 -0.000101529)
(0.0116872 0.0363489 -0.000569992)
(0.00960982 0.0409249 -0.00128586)
(0.00793565 0.0441831 -0.00212131)
(0.00657613 0.046011 -0.00296708)
(0.00580773 0.0469711 -0.00374134)
(0.00527918 0.0486161 -0.00433923)
(0.0229044 0.0331377 -0.000154878)
(0.0125337 0.0290352 -0.000369727)
(0.0120464 0.0358525 -0.000741641)
(0.0098769 0.0402634 -0.00123119)
(0.00810141 0.0434645 -0.00179625)
(0.00666137 0.0453112 -0.00238446)
(0.00583741 0.0463494 -0.00294971)
(0.00523537 0.0481671 -0.00343085)
(0.0230621 0.0331452 -0.000175263)
(0.0127641 0.0288182 -0.000427186)
(0.0122994 0.0354956 -0.000731161)
(0.0100959 0.039814 -0.00108599)
(0.0082662 0.0429723 -0.00147866)
(0.0067724 0.0448158 -0.00189038)
(0.00590699 0.0458838 -0.00230205)
(0.00524742 0.0477851 -0.00267947)
(0.0231062 0.0330607 -0.000145748)
(0.0128973 0.0286259 -0.000360473)
(0.0124603 0.0352317 -0.00058882)
(0.0102485 0.0395043 -0.00083819)
(0.00839306 0.0426369 -0.0011044)
(0.00686923 0.0444715 -0.00138291)
(0.00597866 0.0455452 -0.0016675)
(0.00528818 0.0474841 -0.00193884)
(0.0231058 0.0329719 -9.32569e-05)
(0.0129666 0.0284848 -0.000233055)
(0.0125512 0.0350534 -0.000374802)
(0.0103404 0.0393049 -0.000524774)
(0.00847386 0.0424239 -0.000681518)
(0.00693482 0.0442507 -0.000844995)
(0.00603061 0.0453224 -0.00101374)
(0.00532393 0.0472773 -0.00117773)
(0.0230973 0.0329197 -3.17416e-05)
(0.0129949 0.0284109 -7.98625e-05)
(0.0125909 0.0349632 -0.00012787)
(0.0103821 0.0392063 -0.000178068)
(0.00851167 0.0423196 -0.000230065)
(0.00696648 0.0441423 -0.000284227)
(0.00605593 0.045212 -0.000340304)
(0.00534167 0.0471706 -0.00039517)
(-0.00129905 0.0100305 0.0114026)
(-0.00217273 -0.0038228 0.00152944)
(-0.000101326 -0.00319917 0.00263194)
(0.00190341 -0.00404613 0.00112645)
(0.00409131 -0.00374832 0.000319781)
(0.00600096 -0.00322712 -0.000440017)
(0.00750161 -0.00258968 -0.000890584)
(0.00860544 -0.00158003 -0.0015124)
(-0.00373526 0.00388915 0.00254725)
(-0.00636756 -0.00149045 0.000460396)
(-0.00390628 -0.00123968 0.000278018)
(-0.00151283 -0.00151353 -0.000204041)
(0.00103013 -0.00146602 -0.000490442)
(0.00325452 -0.00138567 -0.000724817)
(0.00509403 -0.00132645 -0.000886729)
(0.00659994 -0.00103132 -0.0012992)
(-0.00404011 -0.00479449 -0.00292362)
(-0.00683747 0.0008919 -0.000701647)
(-0.00451447 0.000809018 -0.000923871)
(-0.00211282 0.00112803 -0.000704463)
(0.000428935 0.000954621 -0.00055175)
(0.00270185 0.000638292 -0.000368345)
(0.00463405 0.00020786 -0.000200479)
(0.00615326 -0.00025048 0.000152483)
(-0.00243921 -0.0121907 -0.0110213)
(-0.00377608 0.00263537 -0.00189874)
(-0.00220989 0.00248785 -0.00319907)
(-0.000307658 0.00346987 -0.00194002)
(0.00182594 0.00317121 -0.00124476)
(0.00380982 0.00257715 -0.000526761)
(0.00550708 0.00168528 1.90948e-05)
(0.00674964 0.000382615 0.000641874)
(0.0176106 -0.0284805 -0.00112439)
(0.00705456 -0.0290489 -0.00226366)
(0.00691591 -0.0387512 -0.0015497)
(0.00426443 -0.0437822 7.95442e-05)
(0.00243194 -0.0471389 0.00184851)
(0.000957055 -0.0484889 0.00362149)
(0.000113027 -0.0485043 0.00519722)
(-1.64003e-05 -0.0478237 0.00636306)
(0.0173411 -0.030261 -0.000600443)
(0.00835251 -0.0292512 -0.00114628)
(0.00682383 -0.0375105 -0.000632354)
(0.00430512 -0.042385 0.000486916)
(0.00236458 -0.0455931 0.00175123)
(0.000887145 -0.0470295 0.00305498)
(2.29295e-06 -0.0472378 0.00425519)
(-7.17095e-05 -0.046912 0.0052968)
(0.0177959 -0.0309502 -0.000190963)
(0.00879932 -0.0292086 -0.000223483)
(0.00720405 -0.0367388 0.000177072)
(0.00454327 -0.0414106 0.000885106)
(0.00246139 -0.0444885 0.00175348)
(0.000878509 -0.0459368 0.00267013)
(-9.67796e-05 -0.0462271 0.00356991)
(-0.000324074 -0.0459755 0.00443106)
(0.0180069 -0.0309951 7.08821e-06)
(0.00910977 -0.0289945 0.000194415)
(0.00751091 -0.0362529 0.000555933)
(0.0047772 -0.0407435 0.00105941)
(0.00259887 -0.0437296 0.00165457)
(0.000928923 -0.0451498 0.00229448)
(-0.000134118 -0.0454384 0.00294897)
(-0.000450264 -0.0451678 0.00361813)
(0.0180371 -0.0307846 7.91387e-05)
(0.00928935 -0.0287359 0.000322074)
(0.00770262 -0.0358783 0.00063144)
(0.0049407 -0.0402791 0.00100388)
(0.00271072 -0.043204 0.00142125)
(0.000981781 -0.0445882 0.00186913)
(-0.000145011 -0.0448488 0.00233837)
(-0.000517651 -0.044529 0.0028382)
(0.0179922 -0.0305265 8.582e-05)
(0.00938168 -0.0285006 0.000297918)
(0.00781106 -0.0355907 0.000533789)
(0.00504167 -0.0399519 0.000797687)
(0.00278672 -0.0428416 0.00108167)
(0.00102361 -0.0441967 0.00138341)
(-0.000142503 -0.0444273 0.00170252)
(-0.000542687 -0.0440588 0.00204844)
(0.017936 -0.0303204 6.07965e-05)
(0.00942373 -0.028328 0.000200012)
(0.00786685 -0.0353932 0.000347)
(0.00509841 -0.0397382 0.00050614)
(0.00283182 -0.0426097 0.000673436)
(0.00105095 -0.0439459 0.000849648)
(-0.000136453 -0.0441545 0.00103656)
(-0.000549776 -0.0437502 0.00124036)
(0.0179012 -0.0302095 2.16061e-05)
(0.00943937 -0.0282377 6.96685e-05)
(0.00789019 -0.0352927 0.000119523)
(0.00512334 -0.0396319 0.000172829)
(0.00285233 -0.0424956 0.000228304)
(0.00106421 -0.0438228 0.000286458)
(-0.000132158 -0.0440202 0.000348218)
(-0.000550909 -0.0435974 0.000415591)
(0.0494457 0.000629041 -0.000974166)
(0.0490752 0.000423415 -0.00034785)
(0.048693 0.00069319 -0.0001931)
(0.0482958 0.000850295 -4.11545e-05)
(0.0479246 0.000972665 1.38364e-05)
(0.0476242 0.00104498 2.81684e-05)
(0.0474151 0.00108492 2.14921e-05)
(0.047307 0.00109934 7.76357e-06)
(0.0456407 0.000663672 -0.000556787)
(0.0453164 0.000537946 -0.000366375)
(0.0449206 0.000627176 -0.000366742)
(0.0444895 0.000729794 -0.000308209)
(0.0440658 0.000823673 -0.000245524)
(0.0437167 0.000891646 -0.000177309)
(0.0434738 0.000935019 -0.000106989)
(0.0433513 0.000956447 -3.55948e-05)
(0.0450116 -0.0011331 -0.00018928)
(0.0446117 -0.000920291 -0.000549566)
(0.044065 -0.000845247 -0.000700083)
(0.0435169 -0.000772357 -0.000708008)
(0.0430208 -0.000706341 -0.000607871)
(0.0426265 -0.000651686 -0.000454923)
(0.042357 -0.000613008 -0.000278547)
(0.0422209 -0.000592499 -9.34889e-05)
(0.047076 -0.0016794 -2.77334e-05)
(0.0463738 -0.00132876 -0.000990974)
(0.0455628 -0.00135373 -0.0012508)
(0.0448299 -0.00133824 -0.00124503)
(0.0442235 -0.00131239 -0.00105488)
(0.0437669 -0.00127572 -0.000783331)
(0.0434636 -0.00124382 -0.000477711)
(0.0433121 -0.00122572 -0.000160222)
)
;
        traction        nonuniform List<vector> 
192
(
(23.0545 -0.697348 -2.12412)
(23.439 -0.735311 -3.68097)
(23.5021 -0.894143 -4.33245)
(23.6086 -0.828968 -4.60459)
(23.7898 -0.581109 -4.66673)
(24.0103 -0.0941439 -4.56202)
(24.1639 0.797917 -4.26402)
(23.308 2.27495 -3.6542)
(25.4706 -0.952788 -1.44807)
(26.0724 -0.983442 -2.53585)
(26.6882 -1.14599 -2.98977)
(27.2192 -1.0371 -3.16346)
(27.5792 -0.697801 -3.17541)
(27.6821 -0.0610836 -3.05602)
(27.232 1.08426 -2.7947)
(24.644 2.85294 -2.36044)
(26.9477 -1.05115 -0.984763)
(27.4591 -1.05596 -1.72945)
(28.1337 -1.21063 -2.01969)
(28.7295 -1.07312 -2.11209)
(29.08 -0.673446 -2.0957)
(29.0358 0.0600402 -1.99607)
(28.1895 1.34526 -1.81554)
(24.7558 3.21514 -1.55652)
(27.9746 -1.08844 -0.689808)
(28.3996 -1.06843 -1.21957)
(29.0444 -1.21503 -1.41824)
(29.6219 -1.05643 -1.47152)
(29.9247 -0.617858 -1.44973)
(29.7586 0.176637 -1.37483)
(28.6569 1.54382 -1.25465)
(24.7252 3.45844 -1.09321)
(28.6991 -1.10327 -0.480298)
(29.0723 -1.06267 -0.855615)
(29.6785 -1.20016 -0.994438)
(30.2241 -1.0267 -1.02772)
(30.4794 -0.562846 -1.0089)
(30.2229 0.270547 -0.95612)
(28.9514 1.68987 -0.877408)
(24.6878 3.63041 -0.773354)
(29.1976 -1.10919 -0.317945)
(29.5391 -1.05294 -0.569845)
(30.1192 -1.18231 -0.663033)
(30.6346 -0.998516 -0.684102)
(30.8527 -0.518388 -0.670601)
(30.5334 0.339756 -0.635964)
(29.1502 1.79292 -0.586235)
(24.6639 3.7497 -0.520221)
(29.5133 -1.11172 -0.180618)
(29.8388 -1.04525 -0.325125)
(30.4021 -1.16852 -0.378816)
(30.897 -0.977888 -0.390449)
(31.0905 -0.48796 -0.382506)
(30.7317 0.385312 -0.362939)
(29.2795 1.85946 -0.334181)
(24.6549 3.82405 -0.294997)
(29.66 -1.11167 -0.0579816)
(29.9766 -1.04006 -0.104651)
(30.5296 -1.16024 -0.121979)
(31.013 -0.966489 -0.125594)
(31.1945 -0.472121 -0.122983)
(30.8181 0.409462 -0.116672)
(29.3249 1.89567 -0.106762)
(24.6196 3.85699 -0.0927521)
(2.71944 0.495815 11.5971)
(4.79061 0.890804 8.50146)
(5.72933 0.830864 5.79067)
(6.22812 0.663069 4.04538)
(6.52332 0.567528 3.17992)
(6.74079 0.627202 3.00696)
(7.04023 0.8514 3.38247)
(7.84407 1.12323 4.24036)
(1.78618 0.472245 10.5215)
(3.32538 0.896339 9.22379)
(3.90699 0.959342 7.60305)
(4.13176 0.771594 6.43089)
(4.23636 0.543918 5.81633)
(4.35363 0.399248 5.66907)
(4.65975 0.372573 5.85597)
(5.7182 0.364969 6.06637)
(1.38689 0.408745 9.79642)
(2.7962 0.746291 9.34229)
(3.36309 0.897157 8.299)
(3.54929 0.751404 7.44552)
(3.60034 0.506881 6.98538)
(3.6741 0.293862 6.87353)
(3.95868 0.160296 7.02801)
(5.00931 0.0637128 7.20945)
(1.29072 0.437807 8.84514)
(2.77078 0.718183 8.65734)
(3.45532 0.894141 7.77835)
(3.69514 0.762067 7.02179)
(3.7573 0.514452 6.61016)
(3.82607 0.273672 6.48378)
(4.09672 0.0584897 6.5486)
(5.07932 -0.190418 6.75155)
(-6.3662 0.527321 0.135392)
(-5.24184 0.85762 0.348023)
(-4.12246 1.0047 0.366888)
(-3.41377 0.898984 0.331868)
(-3.00766 0.723296 0.354536)
(-2.61035 0.567695 0.490442)
(-1.78828 0.330128 0.776644)
(0.599315 -0.738823 1.21822)
(-7.34213 0.38212 -0.269415)
(-7.09191 0.589429 -0.365201)
(-6.65049 0.749521 -0.431878)
(-6.29294 0.75598 -0.475885)
(-6.02737 0.722979 -0.446938)
(-5.69744 0.727339 -0.323136)
(-4.85827 0.68883 -0.100017)
(-2.10008 -0.230658 0.231832)
(-8.01056 0.319285 -0.31203)
(-7.9915 0.445535 -0.427521)
(-7.78294 0.605636 -0.448128)
(-7.55907 0.692913 -0.43848)
(-7.3024 0.777409 -0.376334)
(-6.85495 0.899767 -0.247143)
(-5.83744 0.952502 -0.0711271)
(-3.16718 0.18355 0.12008)
(-8.49223 0.300189 -0.259897)
(-8.525 0.382257 -0.346656)
(-8.43316 0.544196 -0.331252)
(-8.26611 0.687179 -0.28875)
(-7.98376 0.855237 -0.21528)
(-7.40839 1.05801 -0.107483)
(-6.25769 1.17069 0.0135642)
(-3.60151 0.490326 0.134233)
(-8.8378 0.29803 -0.189209)
(-8.87528 0.363128 -0.244586)
(-8.8135 0.531553 -0.212495)
(-8.65262 0.711743 -0.159969)
(-8.33229 0.93271 -0.0917669)
(-7.68123 1.18385 -0.0122642)
(-6.45291 1.33253 0.0628059)
(-3.81575 0.705802 0.130873)
(-9.06807 0.301936 -0.122736)
(-9.09625 0.364367 -0.153266)
(-9.02795 0.541348 -0.120308)
(-8.85142 0.745169 -0.0736039)
(-8.48647 0.995735 -0.0211496)
(-7.80198 1.27309 0.0315488)
(-6.54069 1.43979 0.0745287)
(-3.91966 0.845494 0.10701)
(-9.20288 0.306102 -0.0671773)
(-9.22255 0.371087 -0.0814785)
(-9.13858 0.555716 -0.0582641)
(-8.93776 0.772527 -0.0275814)
(-8.55442 1.0387 0.004204)
(-7.85565 1.3293 0.03405)
(-6.57832 1.50301 0.0558576)
(-3.98695 0.928888 0.067845)
(-9.26062 0.308349 -0.0211089)
(-9.27498 0.375541 -0.0251805)
(-9.17929 0.563949 -0.0170089)
(-8.97364 0.786829 -0.00667924)
(-8.58403 1.06025 0.00380437)
(-7.87781 1.35651 0.0134893)
(-6.59205 1.53134 0.020197)
(-4.02953 0.967296 0.0225804)
(7.95548 -4.41956 -1.64425)
(7.34511 -3.06576 -1.29666)
(7.24147 -1.98359 -0.956544)
(7.26932 -1.13093 -0.705305)
(7.32788 -0.494048 -0.514349)
(7.38612 -0.0406756 -0.356784)
(7.43088 0.241632 -0.21863)
(7.45099 0.323321 -0.07657)
(5.72465 -5.58677 -0.396419)
(4.70291 -4.90196 -0.314333)
(4.40686 -4.14141 -0.190897)
(4.31013 -3.5068 -0.118848)
(4.27892 -3.03466 -0.0801277)
(4.27282 -2.69968 -0.0540112)
(4.27834 -2.48009 -0.0319446)
(4.29053 -2.35714 -0.0105623)
(4.86218 -6.47921 0.188039)
(3.72085 -5.95323 0.145612)
(3.32485 -5.36481 0.148822)
(3.15465 -4.88213 0.133081)
(3.07037 -4.52706 0.104247)
(3.02573 -4.27788 0.0735996)
(3.0027 -4.11669 0.0448692)
(2.99196 -4.02907 0.01562)
(4.78116 -6.07396 0.590505)
(3.63489 -5.66952 0.381447)
(3.18889 -5.30187 0.289283)
(2.97456 -4.97271 0.231109)
(2.856 -4.72193 0.176255)
(2.7867 -4.5445 0.12359)
(2.74727 -4.42916 0.0726652)
(2.72636 -4.37701 0.0237477)
)
;
        pressure        uniform 0;
        value           nonuniform List<vector> 
192
(
(0.000507923 0.00053157 0.000257276)
(0.00110365 0.000984876 0.000198042)
(0.00203166 0.0014256 0.000107333)
(0.00307806 0.00174042 -1.35635e-05)
(0.00423244 0.00195548 -0.000130654)
(0.00543577 0.00208254 -0.000234105)
(0.00665399 0.00214687 -0.000316508)
(0.00786584 0.00218096 -0.000376082)
(0.000534976 0.000548113 0.000125398)
(0.00116818 0.000977045 0.000108607)
(0.00205381 0.00141919 5.16649e-05)
(0.00306988 0.00173694 -3.08071e-05)
(0.00418502 0.00195363 -0.000116056)
(0.00535203 0.00208272 -0.000194327)
(0.00653755 0.00214868 -0.000258898)
(0.00772409 0.00218642 -0.000305572)
(0.000552588 0.000562104 5.57722e-05)
(0.00118919 0.000967435 4.34254e-05)
(0.00206174 0.00139956 5.25825e-06)
(0.00305527 0.00171528 -5.00775e-05)
(0.00414433 0.0019332 -0.000110071)
(0.00528504 0.00206632 -0.000166936)
(0.00644643 0.00213805 -0.000215285)
(0.00761253 0.00218415 -0.000250456)
(0.000559146 0.000567231 2.11099e-05)
(0.00119348 0.00095878 8.16192e-06)
(0.00205684 0.00138276 -1.99542e-05)
(0.00303562 0.00169485 -5.8371e-05)
(0.00410725 0.001913 -0.000100374)
(0.00522975 0.002049 -0.000141154)
(0.00637367 0.00212534 -0.000176813)
(0.0075244 0.00217757 -0.00020313)
(0.000560328 0.000567801 5.09199e-06)
(0.00119043 0.000951506 -7.56602e-06)
(0.00204601 0.00137024 -2.87106e-05)
(0.00301434 0.00167965 -5.57036e-05)
(0.00407399 0.00189762 -8.50006e-05)
(0.00518377 0.0020353 -0.000113833)
(0.00631501 0.00211452 -0.000139623)
(0.00745358 0.00217049 -0.000158888)
(0.000559558 0.000566689 -1.07518e-06)
(0.00118542 0.000945871 -1.15736e-05)
(0.0020347 0.0013615 -2.661e-05)
(0.00299552 0.00166934 -4.48222e-05)
(0.00404685 0.00188714 -6.43868e-05)
(0.00514784 0.00202573 -8.37776e-05)
(0.00627003 0.00210651 -0.00010138)
(0.00739957 0.00216455 -0.00011462)
(0.000558466 0.000565382 -2.19547e-06)
(0.0011811 0.000942037 -9.06321e-06)
(0.00202595 0.00135596 -1.81207e-05)
(0.00298178 0.00166299 -2.8735e-05)
(0.00402776 0.00188072 -4.00494e-05)
(0.0051231 0.00201977 -5.13031e-05)
(0.00623939 0.00210134 -6.16058e-05)
(0.00736288 0.00216043 -6.93825e-05)
(0.000557771 0.000564591 -9.58619e-07)
(0.00117869 0.000940102 -3.33906e-06)
(0.00202125 0.00135327 -6.36845e-06)
(0.00297457 0.00165997 -9.86437e-06)
(0.00401791 0.00187768 -1.35765e-05)
(0.00511045 0.00201692 -1.72747e-05)
(0.0062238 0.00209879 -2.06731e-05)
(0.00734423 0.00215826 -2.32412e-05)
(0.000223123 0.000274296 0.000396256)
(0.000949996 0.000564542 0.000210296)
(0.00189009 0.000902964 0.000149572)
(0.00298741 0.00114763 3.26922e-05)
(0.00418692 0.00132448 -7.22546e-05)
(0.00543046 0.0014386 -0.000164962)
(0.00667648 0.00150464 -0.000236938)
(0.00790684 0.00154171 -0.000295104)
(6.37299e-05 7.60244e-05 0.000110116)
(0.000734769 0.000145086 7.88433e-05)
(0.00167935 0.000261998 3.35066e-05)
(0.00279839 0.000342969 -1.52104e-05)
(0.00401836 0.000397235 -5.91239e-05)
(0.00528048 0.000426819 -9.74822e-05)
(0.00654053 0.000437002 -0.000131064)
(0.00777007 0.000439224 -0.000165775)
(4.70716e-05 -0.000103686 -0.000121349)
(0.000695698 -0.000176502 -0.000121864)
(0.00162774 -0.000292939 -0.000114165)
(0.00274072 -0.000385266 -9.51939e-05)
(0.00395726 -0.000463591 -7.40092e-05)
(0.00521848 -0.000526927 -5.45718e-05)
(0.00647844 -0.000577496 -4.12335e-05)
(0.00770235 -0.00061608 -3.35661e-05)
(0.0001672 -0.000316035 -0.000407121)
(0.00082517 -0.00059739 -0.000279378)
(0.00172835 -0.000937043 -0.000255309)
(0.00280534 -0.00119447 -0.000169328)
(0.00399291 -0.00139341 -8.6371e-05)
(0.00523233 -0.00153577 -9.63904e-06)
(0.00647844 -0.00163418 4.97712e-05)
(0.00769791 -0.00170478 8.58487e-05)
(0.000417822 -0.000519658 -0.000283409)
(0.000960553 -0.000993444 -0.000283939)
(0.00184243 -0.00145253 -0.000234692)
(0.00286249 -0.00178512 -0.000144084)
(0.00400049 -0.00202229 -4.7705e-05)
(0.00519667 -0.00217409 4.22141e-05)
(0.00641101 -0.00226155 0.000114498)
(0.00761333 -0.00230736 0.000157364)
(0.000433447 -0.000533611 -0.000148225)
(0.0010248 -0.000983808 -0.000171149)
(0.00186696 -0.00143806 -0.000145627)
(0.0028564 -0.00176939 -8.77006e-05)
(0.0039546 -0.00200245 -2.06125e-05)
(0.0051132 -0.00214976 4.37121e-05)
(0.00629421 -0.00223205 9.52197e-05)
(0.00747266 -0.00227452 0.000123472)
(0.000442757 -0.000544972 -7.43116e-05)
(0.00103923 -0.000971801 -9.19653e-05)
(0.00186971 -0.00141085 -7.79205e-05)
(0.00283712 -0.00173418 -4.25303e-05)
(0.00390924 -0.00196172 1.59445e-06)
(0.0050414 -0.00210589 4.50568e-05)
(0.00619795 -0.00218644 7.98081e-05)
(0.00735384 -0.00222748 9.58789e-05)
(0.00044305 -0.00054653 -3.49091e-05)
(0.00103641 -0.000958845 -4.54097e-05)
(0.00185771 -0.0013856 -3.59706e-05)
(0.00281083 -0.00169988 -1.34271e-05)
(0.00386587 -0.00192153 1.52098e-05)
(0.00498007 -0.00206212 4.38536e-05)
(0.00611879 -0.00214048 6.63852e-05)
(0.00725703 -0.00217972 7.43799e-05)
(0.000439761 -0.000543641 -1.47461e-05)
(0.00102777 -0.000946838 -1.99506e-05)
(0.00184101 -0.00136475 -1.29615e-05)
(0.00278404 -0.00167186 1.81874e-06)
(0.00382748 -0.00188826 2.04201e-05)
(0.00492923 -0.00202528 3.89996e-05)
(0.006055 -0.00210114 5.32192e-05)
(0.00717959 -0.00213826 5.65851e-05)
(0.000435922 -0.000539724 -5.17291e-06)
(0.00101879 -0.000937056 -7.24062e-06)
(0.0018255 -0.00134892 -2.19437e-06)
(0.00276125 -0.00165097 7.30373e-06)
(0.00379672 -0.00186337 1.90243e-05)
(0.00488988 -0.0019974 3.06117e-05)
(0.00600648 -0.00207099 3.9203e-05)
(0.00712111 -0.00210614 4.02617e-05)
(0.000432908 -0.000536493 -1.27642e-06)
(0.00101196 -0.00093024 -1.85815e-06)
(0.0018141 -0.00133829 1.23835e-06)
(0.00274505 -0.00163715 6.61033e-06)
(0.00377538 -0.00184692 1.31209e-05)
(0.00486303 -0.00197887 1.94882e-05)
(0.00597368 -0.00205081 2.40854e-05)
(0.00708175 -0.00208448 2.42445e-05)
(0.000431302 -0.00053473 -1.49453e-07)
(0.00100836 -0.000926758 -2.34665e-07)
(0.00180816 -0.00133297 8.12665e-07)
(0.00273668 -0.00163027 2.55701e-06)
(0.00376446 -0.00183875 4.64981e-06)
(0.00484941 -0.00196964 6.68336e-06)
(0.00595712 -0.00204073 8.13035e-06)
(0.00706191 -0.00207363 8.11021e-06)
(0.00841734 0.00156932 -0.000288376)
(0.00826833 0.00157788 -0.000240038)
(0.0081552 0.00158511 -0.000198629)
(0.00806266 0.00158611 -0.000160759)
(0.00798705 0.00158533 -0.000125222)
(0.00792877 0.00158406 -9.00325e-05)
(0.00788902 0.00158302 -5.43922e-05)
(0.0078688 0.00158237 -1.82046e-05)
(0.00825808 0.000460411 -0.000156495)
(0.00811777 0.000471042 -0.000135128)
(0.00800482 0.000482967 -0.000117388)
(0.0079105 0.000494091 -9.82051e-05)
(0.00783281 0.000503483 -7.7843e-05)
(0.00777274 0.000510718 -5.64116e-05)
(0.00773175 0.000515629 -3.41759e-05)
(0.00771097 0.000518122 -1.14447e-05)
(0.00818808 -0.000627113 -3.78382e-05)
(0.00804947 -0.000608992 -4.58857e-05)
(0.00793243 -0.000587041 -4.82374e-05)
(0.00783382 -0.000563947 -4.48506e-05)
(0.0077531 -0.000543175 -3.73727e-05)
(0.0076911 -0.00052668 -2.76681e-05)