/*--------------------------------*- C++ -*----------------------------------*\
| =========                 |                                                 |
| \\      /  F ield         | foam-extend: Open Source CFD                    |
|  \\    /   O peration     | Version:     3.1                                |
|   \\  /    A nd           | Web:         http://www.extend-project.de       |
|    \\/     M anipulation  |                                                 |
\*---------------------------------------------------------------------------*/
FoamFile
{
    version     2.0;
    format      ascii;
    class       volVectorField;
    location    "2.2";
    object      D_0;
}
// * * * * * * * * * * * * * * * * * * * * * * * * * * * * * * * * * * * * * //

dimensions      [0 1 0 0 0 0 0];

internalField   nonuniform List<vector> 
256
(
(0.000221151 0.00013299 0.000223264)
(0.000105958 2.38246e-05 6.97449e-05)
(9.3368e-05 -3.86393e-05 -7.23034e-05)
(0.000179985 -0.000144752 -0.000232668)
(0.000891712 0.00054705 0.000153547)
(0.000743418 0.000146577 6.04437e-05)
(0.000711419 -0.000163737 -9.55328e-05)
(0.000791149 -0.000556047 -0.000212733)
(0.00171244 0.000842575 7.68183e-05)
(0.00156307 0.000250705 1.7041e-05)
(0.00152107 -0.000262682 -8.65099e-05)
(0.00158387 -0.00085177 -0.000172161)
(0.00266858 0.00107221 -1.82717e-05)
(0.00253405 0.000329716 -2.50053e-05)
(0.00248669 -0.000343838 -7.28086e-05)
(0.00252353 -0.0010863 -0.000106865)
(0.00371041 0.00123008 -0.000108259)
(0.00359016 0.000382013 -6.39099e-05)
(0.00354008 -0.000406833 -5.63301e-05)
(0.00355622 -0.00125491 -3.88521e-05)
(0.00479355 0.0013309 -0.000186328)
(0.00468639 0.000412281 -9.76861e-05)
(0.00463536 -0.000455117 -4.15634e-05)
(0.00463588 -0.00137075 2.30592e-05)
(0.00588473 0.0013886 -0.000248491)
(0.00578616 0.000425481 -0.000127775)
(0.00573427 -0.000491355 -3.20891e-05)
(0.00572572 -0.00144529 7.12213e-05)
(0.00697016 0.00141659 -0.000296289)
(0.00686527 0.000428874 -0.000156229)
(0.00680781 -0.00051722 -3.01399e-05)
(0.0067991 -0.00149139 9.67816e-05)
(0.000238246 0.000132222 0.000104952)
(0.000124146 2.55092e-05 3.4776e-05)
(0.000111433 -3.57744e-05 -4.04413e-05)
(0.000193136 -0.000137787 -0.00011843)
(0.000920699 0.000546048 7.69317e-05)
(0.00075605 0.000150852 2.6769e-05)
(0.000725538 -0.000157041 -6.07022e-05)
(0.000822226 -0.000545027 -0.000127022)
(0.00171348 0.000854936 2.55198e-05)
(0.00156653 0.000261099 -2.19783e-06)
(0.00152694 -0.000259886 -6.06344e-05)
(0.00158961 -0.00085148 -0.000105655)
(0.00263611 0.00108751 -4.19993e-05)
(0.00250573 0.000342266 -3.3804e-05)
(0.00246116 -0.000340461 -5.36542e-05)
(0.00249629 -0.00108595 -6.35617e-05)
(0.00364075 0.00124683 -0.000109726)
(0.00352671 0.000395987 -6.40695e-05)
(0.00347936 -0.000401656 -4.36666e-05)
(0.00349154 -0.00125205 -1.56121e-05)
(0.00468856 0.00134682 -0.000170269)
(0.00458827 0.000426673 -9.12357e-05)
(0.00453977 -0.000446717 -3.44924e-05)
(0.00453517 -0.00136245 2.9065e-05)
(0.00574837 0.00140203 -0.00021952)
(0.00565775 0.000439199 -0.00011557)
(0.00560846 -0.000478838 -2.9851e-05)
(0.00559347 -0.00142953 6.29576e-05)
(0.00680931 0.00142634 -0.000255639)
(0.00671256 0.000440782 -0.000137189)
(0.00665778 -0.000500584 -3.34032e-05)
(0.00664266 -0.00146769 7.63712e-05)
(0.000244295 0.000135004 4.54039e-05)
(0.000123119 2.73385e-05 1.47961e-05)
(0.000108673 -3.59567e-05 -2.23007e-05)
(0.000193477 -0.000139537 -5.78403e-05)
(0.000926392 0.000538377 2.76831e-05)
(0.000748067 0.00015088 5.67207e-06)
(0.000715281 -0.00015096 -3.72381e-05)
(0.000820893 -0.000532666 -6.88195e-05)
(0.00170393 0.000845876 -8.22063e-06)
(0.00154687 0.0002629 -1.50009e-05)
(0.00150507 -0.000251043 -4.04781e-05)
(0.00157359 -0.000832975 -5.6921e-05)
(0.00260422 0.00107866 -5.56697e-05)
(0.0024671 0.000345876 -3.83937e-05)
(0.00242041 -0.000328715 -3.79601e-05)
(0.00245814 -0.00106208 -3.0377e-05)
(0.00358384 0.00124011 -0.000104895)
(0.0034652 0.000401733 -6.13653e-05)
(0.00341577 -0.000387179 -3.28029e-05)
(0.00342842 -0.00122429 1.6554e-06)
(0.00460636 0.00134298 -0.00015027)
(0.00450317 0.000434493 -8.26001e-05)
(0.00445274 -0.000429547 -2.80262e-05)
(0.00444695 -0.00133125 3.21552e-05)
(0.00564266 0.00140148 -0.000187993)
(0.0055508 0.000448714 -0.000101944)
(0.0054998 -0.000459115 -2.70691e-05)
(0.00548211 -0.00139522 5.4396e-05)
(0.0066844 0.00142943 -0.000214828)
(0.00658785 0.000451653 -0.000118936)
(0.00653085 -0.00047854 -3.40075e-05)
(0.00651042 -0.00143048 5.86206e-05)
(0.000244281 0.000136067 1.61008e-05)
(0.000118597 2.80838e-05 4.63115e-06)
(0.000102728 -3.58695e-05 -1.18653e-05)
(0.000189253 -0.000139694 -2.59262e-05)
(0.000920091 0.000531443 1.30698e-06)
(0.000733651 0.000150263 -4.62296e-06)
(0.00069842 -0.000145758 -2.23641e-05)
(0.000807823 -0.000521155 -3.3917e-05)
(0.0016853 0.000834778 -2.52268e-05)
(0.00152066 0.000262787 -2.00273e-05)
(0.0014763 -0.000241643 -2.61856e-05)
(0.00154818 -0.000812752 -2.6286e-05)
(0.00256969 0.00106646 -5.9034e-05)
(0.00242655 0.000347169 -3.73304e-05)
(0.00237738 -0.000315622 -2.59074e-05)
(0.00241714 -0.00103529 -9.19508e-06)
(0.00353171 0.00122911 -9.45565e-05)
(0.00340848 0.000405059 -5.45737e-05)
(0.0033567 -0.000370906 -2.36652e-05)
(0.00337017 -0.00119284 1.19407e-05)
(0.00453617 0.00133461 -0.000128057)
(0.00442968 0.000440126 -7.09126e-05)
(0.00437708 -0.000410594 -2.17402e-05)
(0.004371 -0.00129648 3.21945e-05)
(0.00555512 0.00139646 -0.000156511)
(0.00546116 0.000456576 -8.61397e-05)
(0.00540808 -0.000437944 -2.29878e-05)
(0.00538894 -0.00135798 4.61176e-05)
(0.00658179 0.00142793 -0.00017644)
(0.00648376 0.000461645 -9.96241e-05)
(0.00642393 -0.000455479 -3.10565e-05)
(0.00640016 -0.00139124 4.51706e-05)
(0.000242395 0.000136039 2.80623e-06)
(0.00011427 2.83987e-05 9.42061e-08)
(9.74301e-05 -3.56021e-05 -5.96356e-06)
(0.000184425 -0.000138845 -9.88e-06)
(0.000910188 0.000525946 -9.92595e-06)
(0.000719119 0.000149865 -8.15546e-06)
(0.000682034 -0.00014146 -1.30188e-05)
(0.000792783 -0.000511281 -1.45479e-05)
(0.00166484 0.000825926 -2.96633e-05)
(0.00149536 0.000262734 -1.95926e-05)
(0.00144902 -0.00023346 -1.63464e-05)
(0.00152244 -0.000795506 -9.1798e-06)
(0.00253718 0.0010564 -5.36837e-05)
(0.00238977 0.000348233 -3.2182e-05)
(0.00233871 -0.000303959 -1.69661e-05)
(0.00237964 -0.00101214 2.00279e-06)
(0.00348636 0.00121967 -7.89526e-05)
(0.00335965 0.000407797 -4.48196e-05)
(0.00330613 -0.000356265 -1.62757e-05)
(0.00332022 -0.0011653 1.58387e-05)
(0.00447769 0.00132697 -0.000103137)
(0.00436853 0.000444796 -5.70283e-05)
(0.00431436 -0.0003935 -1.59267e-05)
(0.0043083 -0.00126576 2.89837e-05)
(0.00548367 0.0013912 -0.000124023)
(0.00538781 0.000463128 -6.86323e-05)
(0.00533321 -0.000418896 -1.81045e-05)
(0.00531334 -0.00132492 3.73496e-05)
(0.00649819 0.00142511 -0.000138462)
(0.00639867 0.00046998 -7.89788e-05)
(0.00633672 -0.000434802 -2.56697e-05)
(0.00631095 -0.00135641 3.41957e-05)
(0.000240362 0.000135642 -2.05811e-06)
(0.000110994 2.85347e-05 -1.39603e-06)
(9.35165e-05 -3.52929e-05 -2.76e-06)
(0.000180401 -0.000137757 -2.59136e-06)
(0.000900864 0.000521944 -1.20201e-05)
(0.000707245 0.000149723 -7.80196e-06)
(0.000668896 -0.00013815 -7.19222e-06)
(0.000779909 -0.000503583 -4.86672e-06)
(0.00164708 0.000819707 -2.58978e-05)
(0.00147468 0.00026296 -1.57981e-05)
(0.00142699 -0.000227087 -9.64826e-06)
(0.00150101 -0.000782329 -1.11726e-06)
(0.0025104 0.00104934 -4.21548e-05)
(0.00236025 0.000349352 -2.44364e-05)
(0.00230792 -0.000294803 -1.04428e-05)
(0.00234943 -0.000994433 6.01149e-06)
(0.0034503 0.00121295 -5.92081e-05)
(0.00332124 0.000410182 -3.31394e-05)
(0.00326659 -0.000344707 -1.04414e-05)
(0.00328107 -0.00114409 1.47343e-05)
(0.00443222 0.00132137 -7.56754e-05)
(0.00432119 0.000448601 -4.16627e-05)
(0.00426601 -0.000379966 -1.0761e-05)
(0.00426006 -0.00124192 2.28913e-05)
(0.00542871 0.00138706 -9.00587e-05)
(0.00533145 0.000468291 -4.9877e-05)
(0.00527587 -0.000403804 -1.29224e-05)
(0.0052557 -0.0012991 2.76691e-05)
(0.00643394 0.00142245 -9.99123e-05)
(0.00633321 0.000476419 -5.72313e-05)
(0.00626989 -0.000418419 -1.89219e-05)
(0.00624307 -0.00132905 2.42958e-05)
(0.000238835 0.000135234 -2.58075e-06)
(0.000108873 2.85921e-05 -1.31801e-06)
(9.10068e-05 -3.50396e-05 -1.1195e-06)
(0.000177628 -0.000136858 -2.62221e-08)
(0.00089403 0.000519337 -8.93111e-06)
(0.000699087 0.000149716 -5.34874e-06)
(0.000659957 -0.000135905 -3.53294e-06)
(0.000770852 -0.000498343 -9.25617e-07)
(0.00163437 0.000815801 -1.72258e-05)
(0.00146034 0.000263273 -1.01029e-05)
(0.00141182 -0.000222758 -5.01351e-06)
(0.00148603 -0.000773492 1.33765e-06)
(0.00249161 0.00104496 -2.67002e-05)
(0.00233985 0.000350303 -1.5174e-05)
(0.00228675 -0.000288569 -5.60785e-06)
(0.00232852 -0.000982593 5.33762e-06)
(0.00342539 0.00120878 -3.6609e-05)
(0.0032949 0.000411982 -2.02928e-05)
(0.00323957 -0.000336822 -5.78443e-06)
(0.00325427 -0.00112987 1.01706e-05)
(0.00440112 0.00131783 -4.62251e-05)
(0.00428892 0.000451322 -2.53488e-05)
(0.00423316 -0.000370721 -6.18936e-06)
(0.00422732 -0.00122586 1.46214e-05)
(0.00539131 0.00138433 -5.46804e-05)
(0.00529314 0.00047187 -3.02618e-05)
(0.00523701 -0.000393488 -7.71413e-06)
(0.00521673 -0.00128162 1.70482e-05)
(0.00639022 0.00142052 -6.04386e-05)
(0.00628867 0.000480797 -3.46661e-05)
(0.00622458 -0.000407216 -1.15243e-05)
(0.00619726 -0.00131047 1.46277e-05)
(0.000238033 0.000134993 -1.05916e-06)
(0.00010784 2.86127e-05 -5.09732e-07)
(8.97894e-05 -3.48997e-05 -2.89592e-07)
(0.000176229 -0.000136364 2.22719e-07)
(0.000890466 0.000518052 -3.23879e-06)
(0.000694969 0.000149738 -1.8824e-06)
(0.000655467 -0.00013477 -1.05281e-06)
(0.000766225 -0.000495696 3.54998e-09)
(0.0016278 0.00081392 -6.00287e-06)
(0.00145305 0.000263481 -3.46195e-06)
(0.00140413 -0.000220572 -1.54537e-06)
(0.00147837 -0.000769065 7.64149e-07)
(0.00248196 0.00104288 -9.12164e-06)
(0.00232947 0.000350844 -5.13645e-06)
(0.00227601 -0.000285422 -1.76103e-06)
(0.00231788 -0.000976675 2.05714e-06)
(0.00341267 0.00120679 -1.2378e-05)
(0.00328153 0.000412951 -6.8282e-06)
(0.00322589 -0.00033284 -1.84765e-06)
(0.00324069 -0.00112275 3.60726e-06)
(0.00438532 0.00131613 -1.55453e-05)
(0.00427257 0.000452741 -8.50594e-06)
(0.00421655 -0.00036605 -2.01666e-06)
(0.00421078 -0.00121781 5.02194e-06)
(0.00537234 0.00138297 -1.83391e-05)
(0.00527374 0.000473704 -1.01423e-05)
(0.00521738 -0.000388273 -2.56127e-06)
(0.00519708 -0.00127284 5.76175e-06)
(0.00636803 0.00141948 -2.02361e-05)
(0.00626611 0.000483018 -1.16092e-05)
(0.00620166 -0.000401548 -3.86361e-06)
(0.00617416 -0.00130113 4.894e-06)
)
;

boundaryField
{
    interface
    {
        type            tractionDisplacement;
        gradient        nonuniform List<vector> 
192
(
(0.0012504 8.90088e-08 -6.27537e-06)
(0.00125106 2.32615e-07 -7.48491e-06)
(0.0012496 5.25483e-07 -7.47543e-06)
(0.00124673 8.45864e-07 -7.27339e-06)
(0.00124237 1.23213e-06 -6.95727e-06)
(0.00123606 1.75972e-06 -6.48764e-06)
(0.00122701 2.65546e-06 -5.77696e-06)
(0.00121237 4.4017e-06 -4.57372e-06)
(0.00127836 1.58951e-07 -4.18175e-06)
(0.00127813 3.40733e-07 -4.98588e-06)
(0.00127606 6.81215e-07 -4.94782e-06)
(0.00127234 1.07974e-06 -4.77587e-06)
(0.0012667 1.57845e-06 -4.5173e-06)
(0.00125852 2.26978e-06 -4.14438e-06)
(0.00124668 3.43378e-06 -3.60938e-06)
(0.00122774 5.61186e-06 -2.83028e-06)
(0.0012969 2.0556e-07 -2.92788e-06)
(0.00129628 4.22773e-07 -3.50022e-06)
(0.00129375 8.10625e-07 -3.4639e-06)
(0.00128935 1.27314e-06 -3.32432e-06)
(0.00128271 1.85533e-06 -3.11929e-06)
(0.00127309 2.65704e-06 -2.83373e-06)
(0.00125927 3.97152e-06 -2.44508e-06)
(0.00123752 6.33252e-06 -1.9299e-06)
(0.00131022 2.36666e-07 -2.12187e-06)
(0.00130939 4.82114e-07 -2.53952e-06)
(0.00130652 9.12912e-07 -2.50899e-06)
(0.00130157 1.426e-06 -2.39958e-06)
(0.00129415 2.06871e-06 -2.2415e-06)
(0.00128345 2.94405e-06 -2.02736e-06)
(0.00126819 4.35007e-06 -1.74696e-06)
(0.00124452 6.81512e-06 -1.39307e-06)
(0.00131978 2.59652e-07 -1.51365e-06)
(0.00131882 5.26652e-07 -1.81147e-06)
(0.00131569 9.91037e-07 -1.78752e-06)
(0.00131032 1.54199e-06 -1.7059e-06)
(0.0013023 2.22756e-06 -1.58946e-06)
(0.00129082 3.15197e-06 -1.43486e-06)
(0.00127453 4.6157e-06 -1.23756e-06)
(0.00124954 7.14639e-06 -9.95544e-07)
(0.00132642 2.76131e-07 -1.01788e-06)
(0.00132536 5.58719e-07 -1.21811e-06)
(0.00132204 1.04754e-06 -1.20117e-06)
(0.00131638 1.62535e-06 -1.14496e-06)
(0.00130794 2.34023e-06 -1.06545e-06)
(0.0012959 3.29691e-06 -9.61283e-07)
(0.00127891 4.79762e-06 -8.30326e-07)
(0.00125304 7.37104e-06 -6.71486e-07)
(0.00133063 2.87035e-07 -5.86262e-07)
(0.00132951 5.79709e-07 -7.01327e-07)
(0.00132607 1.08477e-06 -6.91544e-07)
(0.00132021 1.68017e-06 -6.58841e-07)
(0.00131151 2.41383e-06 -6.12817e-07)
(0.00129912 3.39091e-06 -5.5309e-07)
(0.00128169 4.9157e-06 -4.77739e-07)
(0.00125526 7.51474e-06 -3.82182e-07)
(0.00133265 2.92824e-07 -1.90632e-07)
(0.00133149 5.90077e-07 -2.27698e-07)
(0.001328 1.10224e-06 -2.24725e-07)
(0.00132205 1.70638e-06 -2.14081e-07)
(0.00131322 2.44881e-06 -1.99112e-07)
(0.00130067 3.43614e-06 -1.79825e-07)
(0.00128303 4.97701e-06 -1.55001e-07)
(0.00125626 7.58408e-06 -1.20792e-07)
(1.09308e-05 7.23725e-08 0.00114973)
(1.30776e-05 1.27851e-07 0.00114889)
(1.31548e-05 1.98457e-07 0.00114824)
(1.29808e-05 2.92527e-07 0.0011473)
(1.2715e-05 4.04896e-07 0.00114595)
(1.23458e-05 5.36693e-07 0.00114413)
(1.18492e-05 6.86119e-07 0.00114175)
(1.13079e-05 8.03277e-07 0.00113874)
(1.00547e-05 2.11513e-08 0.0010997)
(1.20342e-05 3.77271e-08 0.00109949)
(1.21003e-05 5.67502e-08 0.0010993)
(1.19489e-05 8.24212e-08 0.00109902)
(1.17254e-05 1.12105e-07 0.00109863)
(1.14243e-05 1.44074e-07 0.00109811)
(1.10382e-05 1.71046e-07 0.00109746)
(1.0708e-05 1.6209e-07 0.00109671)
(1.00418e-05 -2.70428e-08 0.00105277)
(1.20188e-05 -4.56996e-08 0.00105298)
(1.20844e-05 -6.9588e-08 0.00105321)
(1.1933e-05 -1.00411e-07 0.00105354)
(1.171e-05 -1.3707e-07 0.001054)
(1.141e-05 -1.80176e-07 0.00105463)
(1.10258e-05 -2.2871e-07 0.00105544)
(1.06983e-05 -2.6355e-07 0.00105648)
(1.09054e-05 -8.04064e-08 0.00100291)
(1.30452e-05 -1.36982e-07 0.00100376)
(1.312e-05 -2.11694e-07 0.00100444)
(1.29457e-05 -3.09713e-07 0.00100544)
(1.26804e-05 -4.27843e-07 0.00100685)
(1.23126e-05 -5.69225e-07 0.00100876)
(1.18188e-05 -7.38586e-07 0.00101129)
(1.12818e-05 -8.99354e-07 0.00101456)
(-0.000903606 -9.63547e-08 6.85177e-06)
(-0.000902881 -2.51564e-07 8.12936e-06)
(-0.000904348 -5.72774e-07 8.11249e-06)
(-0.00090722 -9.20022e-07 7.89131e-06)
(-0.000911576 -1.33875e-06 7.54482e-06)
(-0.000917854 -1.91504e-06 7.02877e-06)
(-0.00092686 -2.91625e-06 6.2435e-06)
(-0.00094155 -4.95238e-06 4.89368e-06)
(-0.000876477 -1.72336e-07 4.42126e-06)
(-0.000876696 -3.68407e-07 5.23941e-06)
(-0.000878763 -7.40343e-07 5.19106e-06)
(-0.000882477 -1.17274e-06 5.00456e-06)
(-0.000888098 -1.71422e-06 4.72407e-06)
(-0.000896245 -2.4707e-06 4.31857e-06)
(-0.000908024 -3.77243e-06 3.7342e-06)
(-0.000927051 -6.30466e-06 2.87503e-06)
(-0.000858904 -2.23527e-07 3.02815e-06)
(-0.000859518 -4.57468e-07 3.59773e-06)
(-0.000862036 -8.80012e-07 3.55226e-06)
(-0.00086643 -1.38156e-06 3.40144e-06)
(-0.000873045 -2.0136e-06 3.18024e-06)
(-0.000882602 -2.89053e-06 2.87178e-06)
(-0.000896351 -4.35875e-06 2.45083e-06)
(-0.000918167 -7.09737e-06 1.88924e-06)
(-0.00084644 -2.57774e-07 2.16159e-06)
(-0.000847264 -5.21851e-07 2.57079e-06)
(-0.000850126 -9.90306e-07 2.53274e-06)
(-0.00085506 -1.54618e-06 2.41474e-06)
(-0.000862449 -2.24345e-06 2.24466e-06)
(-0.000873069 -3.20009e-06 2.01421e-06)
(-0.000888236 -4.76849e-06 1.71208e-06)
(-0.000911949 -7.62329e-06 1.32891e-06)
(-0.000837595 -2.83051e-07 1.52365e-06)
(-0.00083856 -5.70096e-07 1.81175e-06)
(-0.000841682 -1.07445e-06 1.78199e-06)
(-0.000847026 -1.67087e-06 1.69407e-06)
(-0.000854997 -2.41412e-06 1.56902e-06)
(-0.000866396 -3.42352e-06 1.40308e-06)
(-0.00088257 -5.05455e-06 1.19126e-06)
(-0.000907581 -7.98206e-06 9.30362e-07)
(-0.000831511 -3.01135e-07 1.01526e-06)
(-0.000832571 -6.04765e-07 1.20705e-06)
(-0.000835879 -1.13523e-06 1.18601e-06)
(-0.000841519 -1.76034e-06 1.1255e-06)
(-0.000849902 -2.53489e-06 1.04024e-06)
(-0.000861845 -3.57878e-06 9.28656e-07)
(-0.000878708 -5.24964e-06 7.88457e-07)
(-0.000904589 -8.22417e-06 6.17775e-07)
(-0.000827684 -3.13066e-07 5.81157e-07)
(-0.000828802 -6.27424e-07 6.90621e-07)
(-0.00083223 -1.17521e-06 6.7841e-07)
(-0.000838059 -1.81904e-06 6.43226e-07)
(-0.000846706 -2.61357e-06 5.93914e-07)
(-0.000858993 -3.67914e-06 5.30029e-07)
(-0.000876286 -5.37574e-06 4.49542e-07)
(-0.000902707 -8.37837e-06 3.46949e-07)
(-0.000825854 -3.19376e-07 1.88378e-07)
(-0.000827006 -6.38536e-07 2.23531e-07)
(-0.000830489 -1.19398e-06 2.19753e-07)
(-0.000836409 -1.8471e-06 2.083e-07)
(-0.000845182 -2.65092e-06 1.92268e-07)
(-0.000857629 -3.72725e-06 1.71653e-07)
(-0.000875121 -5.44102e-06 1.45178e-07)
(-0.000901879 -8.45211e-06 1.08378e-07)
(1.13077e-05 -0.00113956 -9.86196e-07)
(1.18661e-05 -0.00114323 -8.3836e-07)
(1.23873e-05 -0.00114616 -6.69958e-07)
(1.27835e-05 -0.00114847 -5.21832e-07)
(1.30767e-05 -0.00115024 -3.91006e-07)
(1.32868e-05 -0.00115152 -2.72808e-07)
(1.34306e-05 -0.00115236 -1.66012e-07)
(1.35055e-05 -0.00115283 -5.78898e-08)
(1.07333e-05 -0.00109747 -3.23353e-07)
(1.10861e-05 -0.00109878 -2.9851e-07)
(1.14951e-05 -0.00109989 -2.50886e-07)
(1.18192e-05 -0.0011008 -2.02547e-07)
(1.20647e-05 -0.00110151 -1.55909e-07)
(1.22434e-05 -0.00110204 -1.10734e-07)
(1.23687e-05 -0.0011024 -6.67961e-08)
(1.24387e-05 -0.00110257 -2.25708e-08)
(1.07338e-05 -0.00105712 1.29308e-07)
(1.10872e-05 -0.00105654 1.24779e-07)
(1.1494e-05 -0.00105609 9.54584e-08)
(1.18153e-05 -0.00105577 6.74789e-08)
(1.20582e-05 -0.00105555 4.5425e-08)
(1.22347e-05 -0.00105541 2.87838e-08)
(1.23586e-05 -0.00105532 1.65634e-08)
(1.24277e-05 -0.00105528 5.73912e-09)
(1.13263e-05 -0.00101504 7.95589e-07)
(1.18919e-05 -0.00101212 6.58727e-07)
(1.24086e-05 -0.00100987 5.05786e-07)
(1.27978e-05 -0.00100817 3.78169e-07)
(1.3084e-05 -0.00100692 2.73189e-07)
(1.32882e-05 -0.00100604 1.85436e-07)
(1.34278e-05 -0.00100548 1.12584e-07)
(1.35008e-05 -0.00100515 4.00141e-08)
)
;
        traction        nonuniform List<vector> 
192
(
(26.7942 0.00190733 -0.134472)
(26.8085 0.00498462 -0.160391)
(26.7772 0.0112604 -0.160188)
(26.7157 0.0181257 -0.155858)
(26.6222 0.0264028 -0.149084)
(26.487 0.0377082 -0.139021)
(26.293 0.0569026 -0.123792)
(25.9793 0.0943222 -0.0980083)
(27.3935 0.0034061 -0.0896089)
(27.3884 0.00730142 -0.10684)
(27.3441 0.0145975 -0.106025)
(27.2645 0.0231373 -0.10234)
(27.1437 0.033824 -0.0967993)
(26.9683 0.0486382 -0.0888082)
(26.7147 0.0735809 -0.077344)
(26.3087 0.120254 -0.0606489)
(27.7907 0.00440487 -0.0627403)
(27.7773 0.00905942 -0.0750048)
(27.7233 0.0173705 -0.0742265)
(27.6289 0.0272816 -0.0712353)
(27.4865 0.039757 -0.066842)
(27.2806 0.0569365 -0.0607228)
(26.9843 0.085104 -0.0523946)
(26.5182 0.135697 -0.0413549)
(28.0762 0.00507141 -0.0454687)
(28.0584 0.010331 -0.0544183)
(27.997 0.0195624 -0.0537641)
(27.8909 0.0305572 -0.0514196)
(27.7317 0.0443295 -0.0480322)
(27.5026 0.0630869 -0.0434433)
(27.1755 0.0932158 -0.0374349)
(26.6683 0.146038 -0.0298516)
(28.2811 0.00556398 -0.0324353)
(28.2603 0.0112854 -0.0388172)
(28.1933 0.0212365 -0.038304)
(28.0783 0.0330426 -0.0365551)
(27.9065 0.0477333 -0.0340599)
(27.6604 0.0675421 -0.0307469)
(27.3113 0.0989078 -0.0265191)
(26.7759 0.153137 -0.0213331)
(28.4234 0.00591708 -0.0218117)
(28.4006 0.0119725 -0.0261023)
(28.3295 0.0224473 -0.0257394)
(28.2081 0.034829 -0.0245348)
(28.0273 0.0501478 -0.0228311)
(27.7694 0.0706481 -0.0205989)
(27.4052 0.102806 -0.0177927)
(26.8508 0.157951 -0.014389)
(28.5135 0.00615074 -0.0125628)
(28.4894 0.0124223 -0.0150284)
(28.4158 0.023245 -0.0148188)
(28.2903 0.0360036 -0.014118)
(28.1037 0.0517248 -0.0131318)
(27.8383 0.0726623 -0.0118519)
(27.4647 0.105336 -0.0102373)
(26.8984 0.16103 -0.00818961)
(28.5567 0.00627479 -0.00408497)
(28.532 0.0126445 -0.00487923)
(28.4571 0.0236193 -0.00481554)
(28.3296 0.0365652 -0.00458744)
(28.1404 0.0524745 -0.00426669)
(27.8714 0.0736316 -0.00385339)
(27.4935 0.10665 -0.00332146)
(26.9199 0.162516 -0.00258841)
(0.234232 0.00155084 24.637)
(0.280235 0.00273965 24.6191)
(0.281888 0.00425265 24.6052)
(0.278159 0.00626843 24.5849)
(0.272465 0.00867633 24.5561)
(0.264553 0.0115006 24.5171)
(0.253912 0.0147025 24.4661)
(0.242312 0.0172131 24.4015)
(0.215458 0.000453242 23.565)
(0.257875 0.000808438 23.5605)
(0.259292 0.00121608 23.5564)
(0.256048 0.00176617 23.5504)
(0.251258 0.00240225 23.542)
(0.244806 0.00308729 23.5309)
(0.236532 0.00366528 23.517)
(0.229457 0.00347336 23.5009)
(0.215181 -0.00057949 22.5593)
(0.257546 -0.000979277 22.564)
(0.258951 -0.00149117 22.5688)
(0.255708 -0.00215167 22.5758)
(0.250929 -0.00293722 22.5858)
(0.244501 -0.00386092 22.5992)
(0.236268 -0.00490093 22.6167)
(0.22925 -0.00564749 22.6389)
(0.233687 -0.00172299 21.4909)
(0.279539 -0.00293532 21.5091)
(0.281144 -0.00453631 21.5238)
(0.277407 -0.00663671 21.5451)
(0.271722 -0.00916805 21.5754)
(0.263841 -0.0121977 21.6164)
(0.253261 -0.0158268 21.6704)
(0.241752 -0.0192719 21.7405)
(-19.363 -0.00206474 0.146824)
(-19.3475 -0.00539066 0.174201)
(-19.3789 -0.0122737 0.173839)
(-19.4404 -0.0197148 0.1691)
(-19.5338 -0.0286875 0.161675)
(-19.6683 -0.0410367 0.150616)
(-19.8613 -0.0624911 0.133789)
(-20.1761 -0.106122 0.104865)
(-18.7816 -0.00369291 0.0947413)
(-18.7863 -0.00789443 0.112273)
(-18.8306 -0.0158645 0.111237)
(-18.9102 -0.0251302 0.107241)
(-19.0307 -0.0367334 0.10123)
(-19.2052 -0.0529437 0.0925409)
(-19.4577 -0.0808377 0.0800185)
(-19.8654 -0.1351 0.0616077)
(-18.4051 -0.00478987 0.064889)
(-18.4182 -0.00980289 0.0770943)
(-18.4722 -0.0188574 0.0761199)
(-18.5664 -0.0296049 0.0728881)
(-18.7081 -0.0431486 0.0681481)
(-18.9129 -0.06194 0.0615382)
(-19.2075 -0.0934018 0.0525179)
(-19.675 -0.152086 0.0404836)
(-18.138 -0.00552373 0.0463197)
(-18.1556 -0.0111825 0.0550883)
(-18.217 -0.0212208 0.054273)
(-18.3227 -0.0331325 0.0517444)
(-18.481 -0.048074 0.0480998)
(-18.7086 -0.0685733 0.0431617)
(-19.0336 -0.102182 0.0366875)
(-19.5418 -0.163356 0.0284766)
(-17.9485 -0.00606538 0.0326497)
(-17.9691 -0.0122163 0.0388231)
(-18.036 -0.023024 0.0381856)
(-18.1506 -0.0358044 0.0363015)
(-18.3214 -0.0517312 0.0336219)
(-18.5656 -0.0733611 0.0300661)
(-18.9122 -0.108312 0.0255271)
(-19.4482 -0.171044 0.0199363)
(-17.8181 -0.00645288 0.0217555)
(-17.8408 -0.0129593 0.0258653)
(-17.9117 -0.0243264 0.0254145)
(-18.0325 -0.0377215 0.0241178)
(-18.2122 -0.0543192 0.0222908)
(-18.4681 -0.0766882 0.0198998)
(-18.8294 -0.112492 0.0168955)
(-19.3841 -0.176232 0.013238)
(-17.7361 -0.00670857 0.0124534)
(-17.7601 -0.0134448 0.014799)
(-17.8335 -0.0251831 0.0145374)
(-17.9584 -0.0389794 0.0137834)
(-18.1437 -0.0560052 0.0127267)
(-18.407 -0.0788387 0.0113578)
(-18.7775 -0.115194 0.00963305)
(-19.3437 -0.179537 0.00743463)
(-17.6969 -0.00684377 0.00403667)
(-17.7216 -0.0136829 0.00478996)
(-17.7962 -0.0255853 0.00470898)
(-17.9231 -0.0395806 0.00446357)
(-18.111 -0.0568055 0.00412003)
(-18.3778 -0.0798697 0.00367828)
(-18.7526 -0.116593 0.00311095)
(-19.326 -0.181117 0.00232238)
(0.242309 -24.4191 -0.0211328)
(0.254273 -24.4977 -0.0179648)
(0.265441 -24.5605 -0.0143563)
(0.273931 -24.61 -0.0111821)
(0.280215 -24.6479 -0.00837869)
(0.284717 -24.6755 -0.00584588)
(0.287799 -24.6935 -0.0035574)
(0.289404 -24.7035 -0.0012405)
(0.229999 -23.5171 -0.006929)
(0.237559 -23.5453 -0.00639663)
(0.246324 -23.5691 -0.00537612)
(0.253268 -23.5885 -0.00434029)
(0.25853 -23.6038 -0.00334091)
(0.262358 -23.6152 -0.00237288)
(0.265043 -23.6228 -0.00143135)
(0.266544 -23.6265 -0.00048366)
(0.23001 -22.6525 0.00277088)
(0.237582 -22.6402 0.00267384)
(0.2463 -22.6305 0.00204554)
(0.253185 -22.6237 0.00144598)
(0.25839 -22.6189 0.000973392)
(0.262173 -22.6158 0.000616796)
(0.264827 -22.614 0.00035493)
(0.266308 -22.6131 0.000122981)
(0.242706 -21.7508 0.0170483)
(0.254825 -21.6882 0.0141156)
(0.265899 -21.64 0.0108383)
(0.274239 -21.6037 0.00810362)
(0.280372 -21.5769 0.00585405)
(0.284748 -21.558 0.00397363)
(0.287739 -21.5459 0.00241252)
(0.289303 -21.5389 0.000857445)
)
;
        pressure        uniform 0;
        value           nonuniform List<vector> 
192
(
(0.000462534 0.000484057 0.000223243)
(0.00100528 0.000884764 0.000151406)
(0.00183885 0.0012758 5.66508e-05)
(0.00277232 0.00155607 -6.12341e-05)
(0.00379881 0.00175004 -0.000172659)
(0.00486791 0.00186815 -0.000269909)
(0.00595175 0.00193265 -0.000347265)
(0.00703301 0.00197215 -0.000403855)
(0.000483669 0.000495513 0.00010537)
(0.00105203 0.000876199 7.70177e-05)
(0.00184173 0.00126959 1.45978e-05)
(0.00274377 0.00155308 -6.82265e-05)
(0.00373198 0.00174869 -0.000151343)
(0.00476618 0.00186849 -0.000226615)
(0.00581856 0.001934 -0.000288568)
(0.00687487 0.00197619 -0.000333607)
(0.000496039 0.000504884 4.33809e-05)
(0.00106269 0.000863983 2.23589e-05)
(0.0018356 0.00124899 -2.10225e-05)
(0.00271339 0.00153153 -7.84315e-05)
(0.003675 0.00172888 -0.000138586)
(0.00468298 0.00185264 -0.000194722)
(0.00571137 0.00192333 -0.000242222)
(0.00674705 0.00197288 -0.000276722)
(0.000499185 0.000506872 1.32063e-05)
(0.00106023 0.000852804 -6.02122e-06)
(0.00182086 0.00123049 -3.84815e-05)
(0.00268186 0.00151034 -7.94025e-05)
(0.00362482 0.00170851 -0.000122658)
(0.0046139 0.00183531 -0.000163947)
(0.00562434 0.00191034 -0.000199779)
(0.0066441 0.00196544 -0.000226025)
(0.000498134 0.000505332 -1.23429e-08)
(0.00105266 0.000843443 -1.70874e-05)
(0.00180312 0.00121617 -4.15807e-05)
(0.00265182 0.00149392 -7.08688e-05)
(0.00358142 0.0016924 -0.000101689)
(0.00455681 0.00182111 -0.000131498)
(0.00555383 0.00189896 -0.000157896)
(0.00656078 0.00195752 -0.000177373)
(0.000495901 0.000502814 -4.28081e-06)
(0.00104463 0.000836232 -1.77112e-05)
(0.00178707 0.00120588 -3.51076e-05)
(0.00262677 0.00148236 -5.50946e-05)
(0.00354686 0.001681 -7.5982e-05)
(0.00451254 0.00181084 -9.63307e-05)
(0.0054998 0.00189029 -0.000114589)
(0.00649709 0.0019508 -0.000128105)
(0.000493908 0.000500635 -3.97228e-06)
(0.00103843 0.000831347 -1.25187e-05)
(0.00177531 0.00119923 -2.29764e-05)
(0.00260901 0.00147504 -3.46974e-05)
(0.0035229 0.00167381 -4.68836e-05)
(0.00448225 0.00180425 -5.88021e-05)
(0.00546307 0.00188455 -6.95757e-05)
(0.00645384 0.00194608 -7.75619e-05)
(0.000492781 0.000499423 -1.5292e-06)
(0.00103511 0.000828886 -4.45665e-06)
(0.00176915 0.00119596 -7.94998e-06)
(0.00259983 0.0014715 -1.18206e-05)
(0.00351064 0.00167033 -1.58348e-05)
(0.00446684 0.00180104 -1.97682e-05)
(0.00544442 0.00188168 -2.33353e-05)
(0.00643189 0.00194358 -2.59799e-05)
(0.000210005 0.000239534 0.000349548)
(0.00087644 0.000498036 0.000168881)
(0.00172395 0.000801995 0.000104229)
(0.00270484 0.00102338 -7.89291e-06)
(0.00377259 0.00118563 -0.000106827)
(0.004878 0.00129299 -0.000193238)
(0.00598663 0.00135814 -0.000260165)
(0.00708506 0.00139802 -0.000315172)
(6.6952e-05 6.58121e-05 9.757e-05)
(0.00067945 0.000127114 6.47095e-05)
(0.00152948 0.000234314 1.89755e-05)
(0.002529 0.000310689 -2.87007e-05)
(0.00361464 0.00036399 -7.08943e-05)
(0.00473645 0.000395488 -0.000107318)
(0.0058574 0.000409433 -0.000139214)
(0.00695412 0.000416362 -0.000172496)
(5.08329e-05 -8.95212e-05 -0.000103756)
(0.000641544 -0.000153697 -0.000103447)
(0.00147977 -0.000254084 -9.67164e-05)
(0.00247395 -0.000331965 -8.06394e-05)
(0.00355684 -0.000396871 -6.2508e-05)
(0.00467833 -0.000448628 -4.57445e-05)
(0.00579962 -0.000489713 -3.44153e-05)
(0.00689102 -0.000520913 -2.83594e-05)
(0.000155443 -0.000273538 -0.000353902)
(0.000755596 -0.000523517 -0.000233374)
(0.00156879 -0.000822113 -0.00020683)
(0.00253159 -0.00104673 -0.000127601)
(0.00358941 -0.00121906 -5.19769e-05)
(0.0046923 -0.00134166 1.77594e-05)
(0.00580219 -0.0014263 7.18634e-05)
(0.00689058 -0.00148782 0.000104678)
(0.000375893 -0.00046455 -0.000243156)
(0.000869296 -0.000882291 -0.000231966)
(0.00166068 -0.00128378 -0.000180404)
(0.00257142 -0.00157293 -9.49045e-05)
(0.00358428 -0.00177831 -5.66251e-06)
(0.00464802 -0.00190953 7.7286e-05)
(0.00572887 -0.00198522 0.000144299)
(0.006801 -0.00202487 0.000184173)
(0.000385932 -0.000473343 -0.00012348)
(0.000914482 -0.000870318 -0.00013484)
(0.00166522 -0.00126743 -0.000105139)
(0.00254449 -0.00155529 -4.85572e-05)
(0.00351874 -0.00175684 1.51088e-05)
(0.00454641 -0.00188365 7.57194e-05)
(0.00559521 -0.00195395 0.000124347)
(0.00664386 -0.00198953 0.000150878)
(0.000390062 -0.000479178 -5.86507e-05)
(0.000917915 -0.000854892 -6.7321e-05)
(0.00165318 -0.00123819 -4.87511e-05)
(0.00250881 -0.00151881 -1.24215e-05)
(0.00345659 -0.00171527 3.08869e-05)
(0.00445803 -0.00183892 7.3003e-05)
(0.00548272 -0.00190702 0.000106607)
(0.00650872 -0.0019403 0.000121851)
(0.000386947 -0.000476949 -2.48247e-05)
(0.000908028 -0.00083894 -2.86271e-05)
(0.001631 -0.00121064 -1.51545e-05)
(0.00247035 -0.00148296 9.19053e-06)
(0.00339989 -0.00167395 3.83996e-05)
(0.00438268 -0.00179409 6.70714e-05)
(0.00538918 -0.0018597 8.94967e-05)
(0.0063971 -0.00189063 9.72555e-05)
(0.000381421 -0.000471559 -8.22765e-06)
(0.000894707 -0.000824577 -8.59421e-06)
(0.0016072 -0.00118765 1.63995e-06)
(0.00243461 -0.00145323 1.83053e-05)
(0.0033512 -0.0016393 3.7979e-05)
(0.00432063 -0.00175597 5.71858e-05)
(0.00531351 -0.00181897 7.17811e-05)
(0.00630717 -0.00184747 7.52201e-05)
(0.000376113 -0.00046601 -1.093e-06)
(0.000882624 -0.000813065 1.18142e-07)
(0.00158683 -0.00117006 7.51484e-06)
(0.00240547 -0.00143079 1.85598e-05)
(0.0033129 -0.00161307 3.1323e-05)
(0.00427291 -0.00172687 4.3636e-05)
(0.00525595 -0.00178756 5.27115e-05)
(0.00623906 -0.00181394 5.39487e-05)
(0.000372189 -0.000461781 9.75199e-07)
(0.000873866 -0.000805111 2.29773e-06)
(0.00157235 -0.00115821 6.81185e-06)
(0.00238514 -0.00141581 1.31762e-05)
(0.00328661 -0.00159559 2.04062e-05)
(0.00424051 -0.00170739 2.73062e-05)
(0.00521709 -0.00176644 3.22711e-05)
(0.00619321 -0.00179129 3.25824e-05)
(0.000370138 -0.000459539 5.71583e-07)
(0.000869324 -0.000801064 1.11156e-06)
(0.00156488 -0.00115225 2.63177e-06)
(0.00237475 -0.00140833 4.71623e-06)