/*--------------------------------*- C++ -*----------------------------------*\
| =========                 |                                                 |
| \\      /  F ield         | foam-extend: Open Source CFD                    |
|  \\    /   O peration     | Version:     3.1                                |
|   \\  /    A nd           | Web:         http://www.extend-project.de       |
|    \\/     M anipulation  |                                                 |
\*---------------------------------------------------------------------------*/
FoamFile
{
    version     2.0;
    format      ascii;
    class       volSymmTensorField;
    location    "2.2";
    object      epsilon;
}
// * * * * * * * * * * * * * * * * * * * * * * * * * * * * * * * * * * * * * //

dimensions      [0 0 0 0 0 0 0];

internalField   nonuniform List<symmTensor> 
256
(
(-0.005624 0.00781607 -0.000338144 0.0212008 0.00363882 -0.00222698)
(-0.00191695 0.00679537 -0.00100061 0.00499486 0.00133766 -0.000847816)
(0.000888218 0.00631655 -0.00101715 -0.00555493 -0.00172938 0.000918431)
(0.00429859 0.00652972 -0.00042382 -0.0207123 -0.00429098 0.00232875)
(-0.00996352 0.00328659 -0.000404742 0.0133161 -0.0014268 -0.00326392)
(-0.00411133 0.00847798 -0.00159787 0.00518535 -0.000609559 -0.00122363)
(0.00159924 0.00830379 -0.00164729 -0.00420785 0.000287985 0.0014798)
(0.00735024 0.00321286 -0.000608321 -0.012503 0.000974206 0.00367641)
(-0.0084143 0.00387673 -0.00018729 0.0123666 -0.000793739 -0.00173555)
(-0.00427816 0.00804227 -0.00113002 0.00470886 -0.000315296 -0.000587072)
(0.00108769 0.00805535 -0.0011724 -0.00333792 3.45803e-05 0.00106811)
(0.00539796 0.00393737 -0.000405403 -0.0111095 0.000477432 0.00246892)
(-0.00729156 0.0033154 -0.000195657 0.00914008 -0.0010332 -0.000882057)
(-0.0039013 0.00720352 -0.000958637 0.00369723 -0.000356129 -0.00021037)
(0.000523712 0.00726629 -0.000985652 -0.00228802 0.000142954 0.000880853)
(0.00404334 0.00344887 -0.000421909 -0.00778006 0.000808383 0.00181593)
(-0.0059873 0.0028204 -0.000156295 0.00649418 -0.00091746 1.50729e-05)
(-0.00343401 0.00611007 -0.000794894 0.00275929 -0.000296133 0.000153162)
(8.04016e-05 0.00620603 -0.000814041 -0.00144958 0.000147036 0.000630175)
(0.00268462 0.00300436 -0.000377472 -0.00512963 0.00078676 0.001034)
(-0.00495848 0.00214531 -0.000167994 0.00425672 -0.000790521 0.000698061)
(-0.00301023 0.00484916 -0.000709115 0.0019381 -0.000254296 0.000424497)
(-0.000224233 0.00498852 -0.000710019 -0.000796595 0.000137052 0.000411218)
(0.00167694 0.00241792 -0.000359784 -0.00293821 0.000729988 0.000381243)
(-0.0043062 0.00137839 -0.000234291 0.00280194 -0.000661041 0.00124623)
(-0.00276609 0.00351877 -0.000693691 0.00134896 -0.000249977 0.000653169)
(-0.000416651 0.00366072 -0.000666062 -0.000325932 9.00323e-05 0.000211758)
(0.00107469 0.00175636 -0.000363958 -0.00142703 0.00058858 -0.000183028)
(-0.00452083 0.000797326 -0.000324214 0.00203509 -0.000366485 0.00169231)
(-0.00328768 0.00202368 -0.000700755 0.00119713 -0.000157823 0.000847425)
(-0.000337055 0.00198177 -0.000680689 6.39754e-05 3.69477e-06 2.09441e-05)
(0.00111975 0.000883281 -0.000429838 -0.000618331 0.000231078 -0.000673568)
(-0.00564437 0.00861261 -0.000197507 0.0206016 0.002126 -0.00147196)
(-0.00176057 0.00781669 -0.000788212 0.00484416 0.000729191 -0.000579512)
(0.000813996 0.00740217 -0.000861591 -0.00492133 -0.00119207 0.000614405)
(0.00429649 0.00739806 -0.000383289 -0.0196315 -0.00281306 0.0016151)
(-0.0099451 0.00322875 -0.000276257 0.0145597 -0.000740972 -0.00255029)
(-0.00374912 0.00850733 -0.00145895 0.00580465 -0.000381001 -0.000992733)
(0.00146292 0.00840991 -0.00162378 -0.00481878 -5.336e-05 0.00116863)
(0.00735263 0.00327424 -0.000686262 -0.013789 0.000193257 0.00301866)
(-0.00820535 0.00331987 -0.000106546 0.0123965 -0.0012716 -0.00169341)
(-0.00379532 0.00723439 -0.00117776 0.00475328 -0.000503218 -0.000635816)
(0.000971288 0.00726976 -0.00136025 -0.00342804 0.000203019 0.000999537)
(0.00530057 0.00339084 -0.00057943 -0.01118 0.000920696 0.00244917)
(-0.0069539 0.00270871 8.63502e-06 0.00918396 -0.00145727 -0.00075345)
(-0.00336489 0.00617319 -0.00087594 0.00371578 -0.000511201 -0.000263472)
(0.000410524 0.0062345 -0.00106046 -0.00232342 0.000336004 0.000765671)
(0.003836 0.00282895 -0.000494313 -0.00782631 0.00127348 0.00168603)
(-0.00564641 0.00219182 0.000110351 0.00639284 -0.00139723 0.000123122)
(-0.00290826 0.00506047 -0.000639275 0.00272113 -0.000460659 6.89278e-05)
(-1.54104e-05 0.00514413 -0.000819489 -0.00138955 0.000383059 0.000522401)
(0.00246871 0.00235716 -0.00039229 -0.00499304 0.00135447 0.000905164)
(-0.00462517 0.0015959 0.000149612 0.00412673 -0.00121381 0.000842079)
(-0.00251314 0.00393119 -0.000492305 0.00188805 -0.000392435 0.000340581)
(-0.000318789 0.00405248 -0.000651901 -0.000679455 0.000357798 0.000304497)
(0.00144571 0.00185331 -0.000315708 -0.00271963 0.00126577 0.000216608)
(-0.00399137 0.000935026 0.000117058 0.00263851 -0.000952408 0.00140043)
(-0.00231174 0.00281544 -0.000449698 0.00126937 -0.000331144 0.000562378)
(-0.000515678 0.00294713 -0.000578342 -0.000172137 0.000259349 0.000123336)
(0.000836973 0.00133128 -0.00027408 -0.00112945 0.00101505 -0.000346776)
(-0.00421635 0.000578757 9.80217e-06 0.00191642 -0.000521547 0.00182792)
(-0.00288032 0.00166856 -0.00052049 0.00113826 -0.00019679 0.000732484)
(-0.000475151 0.00161772 -0.000670029 0.000185039 0.000101933 -5.77734e-05)
(0.000856473 0.00068531 -0.000377241 -0.000383418 0.000513022 -0.000830581)
(-0.00589364 0.00890917 -0.000130782 0.0206379 0.000951346 -0.000834563)
(-0.00186846 0.00798819 -0.000492913 0.00488198 0.000271904 -0.000312331)
(0.000864407 0.00754316 -0.000554164 -0.00478395 -0.000716098 0.000376491)
(0.0044656 0.00759101 -0.000265714 -0.0195204 -0.00151728 0.000963817)
(-0.0104308 0.00322694 -0.000226511 0.0142442 -0.000544968 -0.00153068)
(-0.00398104 0.00850858 -0.000974793 0.00581207 -0.000307379 -0.00054616)
(0.00158076 0.00841279 -0.00111343 -0.00469068 -9.38049e-05 0.000770594)
(0.00771139 0.00326658 -0.00052712 -0.0133716 0.000106965 0.00191471)
(-0.0085749 0.00322111 -0.000147761 0.0123185 -0.00102163 -0.00110089)
(-0.00398927 0.00707042 -0.000872854 0.00479873 -0.000429408 -0.000338046)
(0.00106227 0.00710551 -0.00102868 -0.00336615 0.000159423 0.000739632)
(0.00556796 0.00326963 -0.000489624 -0.010978 0.000738374 0.001704)
(-0.00716935 0.00257257 -5.74516e-05 0.00917012 -0.00122533 -0.000466641)
(-0.0034817 0.00586581 -0.000675399 0.00374995 -0.000451024 -6.98031e-05)
(0.000429025 0.00592678 -0.000832286 -0.00225503 0.000314913 0.000612364)
(0.00394294 0.00268213 -0.00041026 -0.00768659 0.00109667 0.00122911)
(-0.0057758 0.00202251 2.30191e-05 0.00642616 -0.00121811 0.000190988)
(-0.00298193 0.00470996 -0.000484671 0.00276052 -0.000412301 0.000192421)
(-4.35738e-05 0.00479989 -0.00063557 -0.00132472 0.000386135 0.000450688)
(0.00247741 0.00219825 -0.000319684 -0.00488949 0.00122694 0.000672757)
(-0.00468837 0.00142353 6.49446e-05 0.0041943 -0.00108101 0.00076658)
(-0.00255395 0.00359798 -0.000358381 0.00192578 -0.000348056 0.000418281)
(-0.0003844 0.00373783 -0.00049185 -0.000613717 0.000380719 0.0002963)
(0.00137168 0.00172162 -0.000244252 -0.00263861 0.00118505 0.000153174)
(-0.00399799 0.000769724 4.93521e-05 0.00274286 -0.000848462 0.00122497)
(-0.00232784 0.0025505 -0.000331982 0.00130422 -0.000275954 0.000603747)
(-0.000618201 0.00271324 -0.000445488 -0.000109322 0.000294016 0.000172608)
(0.000689659 0.00124462 -0.000210921 -0.00106156 0.00097725 -0.000271529)
(-0.00417565 0.000489717 -5.56665e-05 0.00202234 -0.000433004 0.00153848)
(-0.00290032 0.00153058 -0.00045523 0.00118428 -0.000140636 0.000733486)
(-0.000657806 0.00149697 -0.000600399 0.00024501 0.000119195 8.44134e-05)
(0.000620352 0.000648756 -0.00034199 -0.00032517 0.000483304 -0.000558542)
(-0.00606218 0.0089715 -6.99037e-05 0.0205983 0.000308917 -0.000415797)
(-0.00196052 0.00794094 -0.000285719 0.00488924 3.99368e-05 -0.000143578)
(0.000887428 0.00746053 -0.000326376 -0.00469173 -0.000416221 0.00022976)
(0.00457389 0.0075661 -0.000162548 -0.0193632 -0.000749248 0.000540719)
(-0.0107762 0.00320108 -0.000134023 0.0139445 -0.000446448 -0.000757668)
(-0.00418755 0.00847415 -0.000600346 0.00578078 -0.000248427 -0.000232908)
(0.00163034 0.00836982 -0.000694101 -0.00452167 -7.84718e-05 0.000497241)
(0.00794411 0.0032357 -0.000343245 -0.0129699 0.000114842 0.00111074)
(-0.0089022 0.0032015 -0.000108131 0.0121749 -0.00075888 -0.000497364)
(-0.00420367 0.00703074 -0.000589825 0.0048117 -0.00032659 -8.57908e-05)
(0.0010975 0.00706517 -0.000695704 -0.00323375 0.000114437 0.000521846)
(0.00578383 0.00324422 -0.000343748 -0.010689 0.000553168 0.00103784)
(-0.0074273 0.00254139 -5.86769e-05 0.00913143 -0.000912796 -7.48716e-05)
(-0.00366447 0.00579892 -0.000485381 0.0037878 -0.000341647 0.00011111)
(0.000426746 0.00586328 -0.000589453 -0.0021475 0.000247056 0.000468029)
(0.00408338 0.00265531 -0.000295674 -0.00749021 0.00083244 0.000764192)
(-0.00595728 0.0019791 -6.69666e-06 0.00646488 -0.000927896 0.000393291)
(-0.00313208 0.00462416 -0.000363381 0.00281712 -0.000314617 0.000312686)
(-8.00794e-05 0.00472459 -0.000460671 -0.00124077 0.000317992 0.000378359)
(0.00253524 0.002175 -0.00023083 -0.00476504 0.000960727 0.000405342)
(-0.00480473 0.00137013 2.25875e-05 0.00428595 -0.000844199 0.000825573)
(-0.00267454 0.00350748 -0.000279853 0.00199094 -0.000267749 0.000494817)
(-0.000449299 0.00366754 -0.000363822 -0.000548701 0.000325221 0.000287505)
(0.00135467 0.0017091 -0.000175149 -0.00256461 0.000954656 5.17457e-05)
(-0.00405687 0.000709297 7.59695e-06 0.0028746 -0.000679598 0.00118051)
(-0.00242644 0.00247347 -0.000280756 0.00137225 -0.000211758 0.000651022)
(-0.000716668 0.00266255 -0.000352539 -5.82999e-05 0.000259149 0.000224475)
(0.000597563 0.00124494 -0.00015765 -0.00101418 0.000806077 -0.000231833)
(-0.00419445 0.000457603 -9.66021e-05 0.00216692 -0.000359849 0.00142426)
(-0.00300802 0.0014866 -0.000431044 0.00126407 -0.000108728 0.000772929)
(-0.000827349 0.00146332 -0.000530454 0.000286656 0.000108759 0.000215977)
(0.00044305 0.000650214 -0.000287531 -0.000308218 0.000405704 -0.000369789)
(-0.00615947 0.00894617 -3.17772e-05 0.0205161 1.02607e-05 -0.000173042)
(-0.00201868 0.00783788 -0.000155428 0.00488744 -5.59024e-05 -4.6998e-05)
(0.000891793 0.00733154 -0.000180801 -0.00461185 -0.000234274 0.000140132)
(0.00462274 0.00747789 -9.27641e-05 -0.0191726 -0.000333872 0.000288677)
(-0.010994 0.00316416 -6.70945e-05 0.013749 -0.000361438 -0.000278898)
(-0.00432252 0.00840974 -0.000346865 0.00576155 -0.000193286 -4.34514e-05)
(0.00163875 0.00829944 -0.00040668 -0.00437849 -5.43287e-05 0.000320199)
(0.00806298 0.00319953 -0.000206436 -0.012678 0.000118411 0.000605311)
(-0.00913882 0.00318653 -6.40425e-05 0.0120615 -0.000547586 -7.35162e-05)
(-0.00435513 0.00700595 -0.000370992 0.00482198 -0.000235312 8.17558e-05)
(0.00109876 0.00704233 -0.000438857 -0.00310572 8.1082e-05 0.000364083)
(0.0059142 0.00323177 -0.000219418 -0.0104435 0.000405081 0.000573931)
(-0.0076393 0.00253506 -4.13758e-05 0.00909332 -0.000645451 0.000237727)
(-0.00380523 0.00579116 -0.000324425 0.00382181 -0.000241171 0.000239251)
(0.000411973 0.00586068 -0.000389468 -0.00204026 0.000180239 0.000350929)
(0.00418141 0.00265868 -0.000193957 -0.00730621 0.000599099 0.000406243)
(-0.00612724 0.00197278 -1.30224e-05 0.00648849 -0.000661832 0.000586598)
(-0.00325483 0.00462008 -0.000256572 0.00286783 -0.000222481 0.00040241)
(-0.000112477 0.00473008 -0.00031561 -0.00115599 0.00023787 0.000309332)
(0.00258689 0.00218821 -0.000153794 -0.00463939 0.000700091 0.000174324)
(-0.00493163 0.00135819 2.07318e-06 0.00435106 -0.000614545 0.000920543)
(-0.0027783 0.00350127 -0.000211285 0.00204901 -0.000191926 0.00055627)
(-0.000498874 0.0036764 -0.00026075 -0.000484699 0.000247955 0.000266389)
(0.00135665 0.00172905 -0.000119649 -0.00248356 0.000707869 -5.91948e-05)
(-0.0041442 0.000689341 -1.59625e-05 0.00296633 -0.000507607 0.00120509)
(-0.00251722 0.00246558 -0.000231633 0.00143104 -0.00015436 0.000695913)
(-0.000789544 0.00267164 -0.000273447 -1.04756e-05 0.000200071 0.000250978)
(0.00054713 0.00126802 -0.000116496 -0.000959643 0.000606575 -0.000235878)
(-0.00425887 0.00044743 -0.000111638 0.00226516 -0.000273617 0.00139629)
(-0.00311088 0.00148128 -0.000379764 0.0013292 -7.96732e-05 0.000811864)
(-0.00094869 0.00146088 -0.000441717 0.000327144 8.39733e-05 0.000297802)
(0.000336496 0.000661293 -0.000231426 -0.000280007 0.000306859 -0.000269304)
(-0.00620982 0.0088987 -1.10441e-05 0.0204319 -9.22923e-05 -3.84387e-05)
(-0.00205311 0.0077398 -7.86222e-05 0.00488515 -7.65444e-05 5.13798e-06)
(0.000888813 0.00721603 -9.37191e-05 -0.00454648 -0.000125473 8.60709e-05)
(0.00463785 0.0073881 -4.93429e-05 -0.0189984 -0.000126903 0.000143372)
(-0.0111183 0.00312808 -2.68211e-05 0.0136314 -0.000268617 -1.89413e-06)
(-0.00440472 0.00834101 -0.000186625 0.00575526 -0.000138637 6.25486e-05)
(0.00163192 0.00822726 -0.000222936 -0.00427033 -3.32151e-05 0.000209017)
(0.00811281 0.00316693 -0.000115162 -0.0124776 0.000102263 0.000303502)
(-0.00928928 0.00317012 -3.09081e-05 0.01199 -0.000372752 0.000191036)
(-0.00445189 0.00697903 -0.000215953 0.00483444 -0.000158543 0.000181206)
(0.00108899 0.00701804 -0.000257305 -0.0030047 5.50471e-05 0.000257557)
(0.00598324 0.00322064 -0.000128699 -0.0102645 0.000279698 0.000279052)
(-0.00778458 0.00253139 -2.24446e-05 0.00906781 -0.000429059 0.00044938)
(-0.00389937 0.00579072 -0.00019958 0.0038499 -0.000158814 0.000319124)
(0.000396328 0.00586497 -0.000238354 -0.00195288 0.000122025 0.000265579)
(0.00423915 0.00266491 -0.000116725 -0.00716378 0.000403855 0.000163413)
(-0.00625252 0.00197359 -9.07786e-06 0.00650121 -0.000440577 0.000733902)
(-0.00333981 0.00463166 -0.000166413 0.00290656 -0.000146327 0.000461539)
(-0.000136156 0.00474895 -0.000200729 -0.0010852 0.000162527 0.000253202)
(0.00262155 0.00220458 -9.44669e-05 -0.00453443 0.000472789 3.76985e-06)
(-0.00503254 0.00135698 -3.50925e-06 0.00438908 -0.000414904 0.00101191)
(-0.00285234 0.0035144 -0.000146581 0.00209135 -0.000127899 0.00060031)
(-0.000531899 0.00369996 -0.000174557 -0.000430712 0.000170689 0.00024231)
(0.00136232 0.00175054 -7.63047e-05 -0.0024101 0.00048195 -0.000154891)
(-0.00422143 0.000681742 -2.08685e-05 0.00301933 -0.000349458 0.00125603)
(-0.00258406 0.0024746 -0.000173236 0.00147206 -0.000104761 0.000731925)
(-0.000836865 0.00269166 -0.000196557 2.94727e-05 0.000138145 0.000259552)
(0.000520704 0.00128973 -8.06215e-05 -0.000906965 0.000416142 -0.000262005)
(-0.00432477 0.000442619 -9.61308e-05 0.00232474 -0.000191757 0.00141889)
(-0.00318837 0.00148468 -0.000294075 0.00137482 -5.48138e-05 0.000845669)
(-0.00102569 0.00146517 -0.000330944 0.000361603 5.77519e-05 0.000339367)
(0.000276758 0.000670365 -0.000169272 -0.000248024 0.000211469 -0.000233792)
(-0.00623358 0.00885796 -2.27864e-06 0.0203675 -8.90939e-05 3.13228e-05)
(-0.0020721 0.00766893 -3.52383e-05 0.00488398 -5.80255e-05 3.13807e-05)
(0.000884463 0.00713449 -4.32027e-05 -0.00450028 -6.00921e-05 5.53112e-05)
(0.0046389 0.00732131 -2.32572e-05 -0.0188706 -3.71031e-05 6.44515e-05)
(-0.0111834 0.0031008 -7.83364e-06 0.0135656 -0.000165745 0.00014576)
(-0.00445106 0.00828689 -8.86962e-05 0.00575542 -8.35415e-05 0.000117245)
(0.0016226 0.00817135 -0.000108143 -0.00419822 -1.72927e-05 0.000143919)
(0.00812918 0.00314315 -5.65374e-05 -0.0123514 6.8659e-05 0.000135481)
(-0.00937561 0.00315603 -1.21186e-05 0.0119505 -0.000217727 0.000339012)
(-0.00450822 0.00695506 -0.000109784 0.00484589 -9.1689e-05 0.000234655)
(0.00107882 0.00699625 -0.000131992 -0.00293646 3.2253e-05 0.00019219)
(0.00601618 0.00321131 -6.57639e-05 -0.0101493 0.000165006 0.000108029)
(-0.00787229 0.00252748 -9.86124e-06 0.00905406 -0.000246135 0.00057421)
(-0.00395573 0.00578829 -0.000106133 0.00387014 -9.02515e-05 0.000363767)
(0.00038456 0.00586593 -0.000126651 -0.00189297 7.06219e-05 0.000210744)
(0.00426956 0.00266844 -6.09854e-05 -0.00706951 0.000233699 1.6545e-05)
(-0.00633172 0.00197421 -4.59378e-06 0.00650789 -0.000252511 0.000827713)
(-0.00339182 0.00464051 -9.23757e-05 0.00293227 -8.30196e-05 0.000496391)
(-0.000151253 0.00476256 -0.000110235 -0.00103587 9.42298e-05 0.000214785)
(0.00264145 0.00221565 -5.03974e-05 -0.0044616 0.000273053 -0.00010532)
(-0.00509939 0.0013572 -3.55138e-06 0.0044086 -0.000239845 0.00107788)
(-0.00289852 0.00352592 -8.58316e-05 0.00211804 -7.32893e-05 0.000628343)
(-0.000551638 0.00371794 -0.000100106 -0.000392668 9.91477e-05 0.000223033)
(0.00136702 0.00176518 -4.22275e-05 -0.00235635 0.000279165 -0.000222289)
(-0.00427579 0.000678033 -1.61004e-05 0.00304607 -0.000204636 0.00130163)
(-0.00262655 0.00248309 -0.000106941 0.00149686 -6.08795e-05 0.000756822)
(-0.000864421 0.00270666 -0.000118711 5.76823e-05 8.02073e-05 0.00025992)
(0.000508058 0.001304 -4.76578e-05 -0.000866744 0.000241829 -0.000289502)
(-0.00437445 0.000440248 -6.40341e-05 0.00235568 -0.000113957 0.00145036)
(-0.00323842 0.00148852 -0.000184895 0.00140232 -3.21832e-05 0.000869893)
(-0.00106994 0.00146884 -0.000204493 0.000386511 3.34484e-05 0.000357519)
(0.000246333 0.000675824 -0.000103419 -0.000220999 0.000123162 -0.000228277)
(-0.00624271 0.00883555 -9.3093e-08 0.0203334 -3.47428e-05 6.07318e-05)
(-0.00208049 0.00763254 -9.86755e-06 0.00488359 -2.11222e-05 4.21751e-05)
(0.000881694 0.00709305 -1.2345e-05 -0.00447644 -1.76427e-05 4.13352e-05)
(0.00463702 0.00728654 -6.73403e-06 -0.0188037 -6.37754e-06 2.97965e-05)
(-0.0112108 0.00308635 -1.32141e-06 0.0135361 -5.60231e-05 0.000209067)
(-0.00447183 0.0082577 -2.58337e-05 0.0057568 -2.79166e-05 0.000140085)
(0.00161677 0.00814141 -3.19325e-05 -0.00416218 -5.29407e-06 0.000113813)
(0.00813279 0.00313075 -1.67911e-05 -0.0122902 2.41059e-05 6.05614e-05)
(-0.00941437 0.00314799 -3.00919e-06 0.0119333 -7.1728e-05 0.000404273)
(-0.00453397 0.00694107 -3.33292e-05 0.00485263 -3.00385e-05 0.000257542)
(0.00107289 0.00698344 -4.03068e-05 -0.00290225 1.06538e-05 0.000161145)
(0.00602898 0.00320594 -2.00105e-05 -0.0100931 5.46238e-05 2.99268e-05)
(-0.00791292 0.00252484 -2.70697e-06 0.00904835 -8.03425e-05 0.000631022)
(-0.00398192 0.00578579 -3.3087e-05 0.00388075 -2.93012e-05 0.000383406)
(0.000378398 0.00586515 -3.94887e-05 -0.00186276 2.31224e-05 0.000184074)
(0.00428234 0.00266964 -1.88309e-05 -0.00702294 7.65752e-05 -5.21213e-05)
(-0.00636939 0.00197419 -1.40619e-06 0.00651082 -8.23591e-05 0.000872397)
(-0.00341629 0.00464441 -2.95201e-05 0.00294503 -2.69301e-05 0.000512332)
(-0.000158579 0.00476877 -3.50471e-05 -0.00101081 3.08434e-05 0.000195496)
(0.00265026 0.0022208 -1.57811e-05 -0.00442475 8.93118e-05 -0.00015796)
(-0.00513196 0.0013572 -1.46326e-06 0.0044166 -7.85568e-05 0.00111151)
(-0.00292049 0.00353163 -2.82577e-05 0.00213079 -2.39037e-05 0.00064186)
(-0.000560837 0.00372669 -3.26252e-05 -0.000373205 3.24565e-05 0.000212621)
(0.00136945 0.00177218 -1.35209e-05 -0.00232838 9.138e-05 -0.000256591)
(-0.00430297 0.000676239 -6.05961e-06 0.00305663 -6.75081e-05 0.00132715)
(-0.00264693 0.00248739 -3.6179e-05 0.00150834 -2.00138e-05 0.000769409)
(-0.000877012 0.00271389 -3.97516e-05 7.218e-05 2.62367e-05 0.000258611)
(0.000503031 0.00131065 -1.58217e-05 -0.000845317 7.92417e-05 -0.000305997)
(-0.00439981 0.000439349 -2.2542e-05 0.00236804 -3.80943e-05 0.0014704)
(-0.00326256 0.00149075 -6.30223e-05 0.00141506 -1.06729e-05 0.000882362)
(-0.0010901 0.00147053 -6.91654e-05 0.000399563 1.09537e-05 0.000363821)
(0.000233578 0.000678095 -3.4856e-05 -0.000205873 4.03999e-05 -0.000230731)
)
;

boundaryField
{
    interface
    {
        type            calculated;
        value           nonuniform List<symmTensor> 
192
(
(-0.0207855 -3.12769e-06 0.000305855 0.0322 0.00443183 -0.00271869)
(-0.00962416 4.0605e-06 0.000522041 0.016717 -0.00178741 -0.00395957)
(-0.0104149 -4.32453e-06 0.000618687 0.0160118 -0.00110161 -0.00207634)
(-0.00816916 -2.97272e-05 0.000660614 0.011595 -0.00146099 -0.00102551)
(-0.00660189 -7.65426e-05 0.000672995 0.00811478 -0.00131868 9.88865e-05)
(-0.00522097 -0.00015106 0.000661684 0.00518221 -0.00113658 0.000952515)
(-0.00447013 -0.00027844 0.000622856 0.00338988 -0.000909201 0.00161431)
(-0.00405118 -0.000481847 0.000538064 0.00231381 -0.000486412 0.00212909)
(-0.0210852 1.64984e-05 0.000208114 0.0315303 0.0025965 -0.0017788)
(-0.0111981 2.89259e-05 0.000359509 0.0179812 -0.000925784 -0.0030586)
(-0.0106046 2.00486e-05 0.000426128 0.0159647 -0.00168543 -0.00197415)
(-0.00853962 -1.57605e-05 0.0004534 0.0116377 -0.00198074 -0.000772045)
(-0.00688057 -7.80587e-05 0.000458147 0.00800008 -0.00191798 0.000360793)
(-0.00553276 -0.000174579 0.000444498 0.00505481 -0.00167354 0.00128605)
(-0.00477124 -0.000335197 0.000410454 0.0032515 -0.00129628 0.00198655)
(-0.00429885 -0.000570429 0.000349805 0.00221673 -0.000701318 0.00250339)
(-0.0217251 2.02584e-05 0.000142284 0.0316225 0.00115949 -0.00102312)
(-0.0116659 3.39969e-05 0.000246739 0.0174047 -0.000669546 -0.00188211)
(-0.0109581 2.47656e-05 0.000289537 0.0157707 -0.00131933 -0.0013551)
(-0.0087254 -1.56933e-05 0.000304342 0.0115903 -0.00161867 -0.00055459)
(-0.00692584 -8.67167e-05 0.000304303 0.00803563 -0.0016307 0.000286429)
(-0.0054916 -0.000196446 0.00029264 0.00515948 -0.00146132 0.00102425)
(-0.00468072 -0.000374815 0.000269244 0.00342995 -0.00115136 0.00160558)
(-0.00407407 -0.000619914 0.000232952 0.00238166 -0.000599044 0.00199503)
(-0.022093 1.95402e-05 0.000100201 0.031582 0.000362394 -0.000508227)
(-0.0120336 3.26748e-05 0.000175149 0.0169374 -0.000557109 -0.000932685)
(-0.0113309 2.26255e-05 0.000204744 0.01553 -0.000972456 -0.000622367)
(-0.00901679 -2.05723e-05 0.00021355 0.0115079 -0.00119231 -0.000100166)
(-0.0071224 -9.68776e-05 0.000212067 0.00806662 -0.00122986 0.00048944)
(-0.00560979 -0.00021463 0.000203183 0.00527206 -0.00113266 0.00103745)
(-0.00474189 -0.000403231 0.000187667 0.00360977 -0.00092228 0.0014846)
(-0.00405574 -0.000652117 0.000164934 0.00256766 -0.000502564 0.00178424)
(-0.0222469 1.81305e-05 7.00671e-05 0.0314599 -6.13667e-06 -0.000209578)
(-0.0122673 2.99699e-05 0.000123575 0.0166472 -0.000459173 -0.000341455)
(-0.0115935 1.87457e-05 0.000144484 0.0153521 -0.000703831 -9.72988e-05)
(-0.00925172 -2.63581e-05 0.000150179 0.0114334 -0.000841553 0.000282636)
(-0.00730763 -0.000105994 0.000148662 0.00807804 -0.00087479 0.000715616)
(-0.00574346 -0.000228747 0.000142392 0.00534372 -0.000823116 0.00113295)
(-0.00483423 -0.00042378 0.000132283 0.00372484 -0.000690373 0.00148707)
(-0.00408835 -0.000674623 0.000117548 0.00268558 -0.000385246 0.00171804)
(-0.0222927 1.69408e-05 4.65175e-05 0.0313261 -0.000129166 -4.3919e-05)
(-0.0124044 2.74854e-05 8.2631e-05 0.0164756 -0.000345491 1.57707e-06)
(-0.0117618 1.51077e-05 9.67914e-05 0.0152413 -0.000481967 0.000233406)
(-0.00941534 -3.13495e-05 0.000100506 0.0113835 -0.000560817 0.00054781)
(-0.00744828 -0.000113112 9.93937e-05 0.00807956 -0.000583004 0.000897895)
(-0.00585583 -0.000239006 9.53028e-05 0.0053811 -0.000556421 0.0012417)
(-0.00492222 -0.000438185 8.89486e-05 0.0037869 -0.000476852 0.00154271)
(-0.00414495 -0.000690179 7.95408e-05 0.00275338 -0.000271686 0.00173677)
(-0.0222953 1.61739e-05 2.64739e-05 0.0312209 -0.000119664 4.17581e-05)
(-0.0124768 2.57773e-05 4.72677e-05 0.0163798 -0.000214647 0.000184169)
(-0.011858 1.25031e-05 5.54781e-05 0.0151797 -0.000282927 0.000418515)
(-0.00951438 -3.4876e-05 5.75834e-05 0.0113555 -0.000322758 0.000705191)
(-0.00753783 -0.000117922 5.69401e-05 0.00807836 -0.000334876 0.00101611)
(-0.00593135 -0.00024573 5.46493e-05 0.00539795 -0.000322278 0.00132378)
(-0.00498485 -0.000447475 5.09765e-05 0.00381603 -0.000280031 0.00159819)
(-0.0041915 -0.000699869 4.53717e-05 0.00278668 -0.000162205 0.00177385)
(-0.0222887 1.56968e-05 8.50688e-06 0.0311643 -4.61841e-05 7.7785e-05)
(-0.0125069 2.48019e-05 1.52363e-05 0.0163367 -7.27659e-05 0.000262275)
(-0.0119004 1.10877e-05 1.78971e-05 0.0151524 -9.34536e-05 0.00050003)
(-0.00955967 -3.6704e-05 1.85659e-05 0.0113432 -0.000105563 0.000776882)
(-0.00757994 -0.000120329 1.83584e-05 0.00807731 -0.000109385 0.00107274)
(-0.0059679 -0.000249208 1.76249e-05 0.00540404 -0.000105688 0.00136627)
(-0.00501547 -0.000452411 1.63535e-05 0.0038267 -9.2531e-05 0.00163017)
(-0.0042148 -0.000703911 1.43481e-05 0.00279913 -5.43623e-05 0.00179878)
(-0.0057477 0.00725109 -0.000384455 0.0218434 -8.94202e-05 -0.0112864)
(-0.0102592 0.00335179 -0.000671868 0.0119388 -0.000135234 -0.0015186)
(-0.00880814 0.00434732 -0.000806563 0.0123345 -0.000137781 -0.00262336)
(-0.00771006 0.00381212 -0.000875882 0.00909981 -0.000122421 -0.00111582)
(-0.00637135 0.00331622 -0.000916239 0.00660603 -0.000115199 -0.000304335)
(-0.00530686 0.00256496 -0.00094492 0.00440346 -0.00012765 0.000463327)
(-0.00461278 0.00170197 -0.000985076 0.00299545 -0.000162496 0.000922471)
(-0.00479495 0.000951927 -0.00109669 0.00217499 -0.000206766 0.00155181)
(-0.00212476 0.00594388 -0.000244511 0.005178 -7.30755e-05 -0.00252947)
(-0.00458093 0.00845669 -0.000455169 0.00459167 -0.000129962 -0.000438907)
(-0.00483104 0.00871383 -0.000539447 0.00470177 -0.000144967 -0.000269582)
(-0.00445396 0.00798482 -0.000573627 0.00369392 -0.000123589 0.000206352)
(-0.00395379 0.00688468 -0.000591167 0.002809 -9.56199e-05 0.000492167)
(-0.00348631 0.00551189 -0.000609779 0.00199396 -7.84393e-05 0.000731336)
(-0.00318861 0.00402229 -0.00065412 0.00142953 -7.80751e-05 0.000900977)
(-0.00366424 0.00227818 -0.000803825 0.00125961 -8.46559e-05 0.00132236)
(0.000995499 0.00539115 -0.000186628 -0.00609755 -5.17823e-05 0.00294754)
(0.001815 0.00821114 -0.000377618 -0.00355718 -0.000111712 0.000725667)
(0.00126564 0.00870624 -0.00045854 -0.00324824 -0.000137559 0.000934815)
(0.000651933 0.00804843 -0.000488134 -0.00223394 -0.000121394 0.000707579)
(0.000166704 0.00699448 -0.000499557 -0.00148351 -8.9725e-05 0.00055245)
(-0.000159398 0.00567682 -0.000513766 -0.000878999 -6.18439e-05 0.000372267)
(-0.000365028 0.00418968 -0.00055671 -0.000442324 -4.5664e-05 0.000211258)
(-0.000285193 0.00225437 -0.000706287 -1.745e-05 -3.89446e-05 -0.000133508)
(0.00439765 0.00584075 -0.000172757 -0.0217387 -4.83927e-05 0.0111593)
(0.00755641 0.00315584 -0.000375804 -0.0110265 -0.00011375 0.00191114)
(0.00563123 0.00438163 -0.000470585 -0.0109862 -0.000143646 0.00320972)
(0.00427806 0.00394861 -0.000507538 -0.00768902 -0.000129951 0.00194797)
(0.00288154 0.00352001 -0.000520699 -0.0052206 -9.71126e-05 0.00125223)
(0.0018503 0.00287124 -0.000534743 -0.00310877 -6.44575e-05 0.000537478)
(0.0012244 0.00210508 -0.000576427 -0.00167757 -3.58944e-05 -2.51061e-06)
(0.00125675 0.00104892 -0.000717336 -0.00079975 -6.46953e-06 -0.000618816)
(0.0181718 4.89775e-05 1.79824e-05 -0.0305442 -0.00529384 0.00286033)
(0.00750392 9.92669e-05 4.61312e-05 -0.0161319 0.00121951 0.00451453)
(0.00769185 0.000118767 4.94169e-05 -0.0148458 0.000741195 0.00302257)
(0.00523197 0.000105208 4.5634e-05 -0.0102745 0.0012242 0.00218827)
(0.00354764 8.15275e-05 4.97837e-05 -0.00671502 0.00120359 0.00118285)
(0.00213966 6.1787e-05 6.95369e-05 -0.00373827 0.00112187 0.000345483)
(0.00130287 3.40725e-05 0.000109772 -0.00171837 0.000910072 -0.000361394)
(0.0011474 -9.92223e-05 0.000169932 -0.000726617 0.000385569 -0.000949732)
(0.0179495 2.29557e-05 -3.70224e-05 -0.0294231 -0.00343924 0.0020075)
(0.00881587 5.39123e-05 -5.13513e-05 -0.0174667 0.000287658 0.00375671)
(0.00755083 7.0456e-05 -6.02623e-05 -0.0148248 0.00128687 0.00304041)
(0.00521275 6.87989e-05 -6.56864e-05 -0.0103042 0.00178654 0.00204867)
(0.00340827 6.29006e-05 -6.08585e-05 -0.00655032 0.00189819 0.00101786)
(0.00199809 6.43348e-05 -4.27961e-05 -0.00350295 0.00178535 0.000107131)
(0.00112705 6.42086e-05 -1.11838e-05 -0.00140155 0.00145782 -0.000629951)
(0.00104269 -4.60252e-05 3.39938e-05 -0.000476363 0.000770423 -0.00123327)
(0.0184332 1.06055e-05 -4.25465e-05 -0.0293811 -0.00180204 0.001196)
(0.00926463 3.00652e-05 -5.90807e-05 -0.016819 0.000207217 0.00237518)
(0.00790488 4.51686e-05 -6.16813e-05 -0.0144916 0.00102301 0.00209936)
(0.0054114 5.34937e-05 -5.99276e-05 -0.010113 0.00149347 0.00147258)
(0.00345558 6.35263e-05 -5.06806e-05 -0.00642522 0.00166257 0.000733423)
(0.00193756 8.18885e-05 -3.20519e-05 -0.00342743 0.00161333 4.13835e-05)
(0.00097807 9.54266e-05 -7.11576e-06 -0.00135205 0.00136023 -0.000525165)
(0.000742668 5.26236e-06 1.87707e-05 -0.0004347 0.000713997 -0.000900861)
(0.0186494 5.83188e-06 -3.52886e-05 -0.0291993 -0.000841933 0.000658128)
(0.00957163 1.92628e-05 -4.75084e-05 -0.016284 0.000225554 0.00134383)
(0.00819641 3.37626e-05 -4.50964e-05 -0.0141063 0.000769557 0.00123276)
(0.00561919 4.93249e-05 -3.8867e-05 -0.00986457 0.00112076 0.000864118)
(0.00355976 7.09792e-05 -2.81961e-05 -0.00627751 0.0012822 0.00038219)
(0.00195124 0.000101241 -1.2725e-05 -0.00334989 0.00127916 -9.55824e-05)
(0.000902562 0.000123888 4.41336e-06 -0.00130699 0.00110735 -0.000486979)
(0.000576448 4.57492e-05 2.06355e-05 -0.000427668 0.000593643 -0.00068994)
(0.0186736 4.31081e-06 -2.56144e-05 -0.0289402 -0.000337913 0.000339602)
(0.00974542 1.54785e-05 -3.33025e-05 -0.0159241 0.000222585 0.000699661)
(0.00837611 3.05042e-05 -2.85865e-05 -0.0138017 0.000568683 0.000632938)
(0.00576461 5.10882e-05 -2.10138e-05 -0.00964135 0.000804729 0.000396306)
(0.0036487 8.02597e-05 -1.11824e-05 -0.00613014 0.000928372 7.72193e-05)
(0.00197806 0.00011769 2.19215e-07 -0.00325823 0.000941985 -0.000246764)
(0.000863439 0.000145796 1.08523e-05 -0.00124442 0.000829201 -0.000504993)
(0.000477926 7.4867e-05 1.98734e-05 -0.000400514 0.000448474 -0.000584998)
(0.01862 4.2005e-06 -1.65775e-05 -0.0286934 -0.000100709 0.000157837)
(0.00983187 1.5058e-05 -2.07487e-05 -0.0156885 0.000185399 0.000319433)
(0.00847505 3.11487e-05 -1.59611e-05 -0.0135885 0.000395728 0.000256735)
(0.00585278 5.50291e-05 -9.25474e-06 -0.00947389 0.000543334 8.29656e-05)
(0.00370889 8.85501e-05 -1.70806e-06 -0.00600827 0.000626034 -0.000145697)