/*--------------------------------*- C++ -*----------------------------------*\
| =========                 |                                                 |
| \\      /  F ield         | foam-extend: Open Source CFD                    |
|  \\    /   O peration     | Version:     3.1                                |
|   \\  /    A nd           | Web:         http://www.extend-project.de       |
|    \\/     M anipulation  |                                                 |
\*---------------------------------------------------------------------------*/
FoamFile
{
    version     2.0;
    format      ascii;
    class       pointVectorField;
    location    "2.2";
    object      pointD;
}
// * * * * * * * * * * * * * * * * * * * * * * * * * * * * * * * * * * * * * //

dimensions      [0 1 0 0 0 0 0];

internalField   nonuniform List<vector> 
405
(
(0 0 0)
(0 0 0)
(0 0 0)
(0 0 0)
(0 0 0)
(0.000784088 0.000797021 0.000308484)
(0.000492905 0.000264987 0.000198878)
(0.000385317 -1.47694e-05 -1.35633e-05)
(0.000433785 -0.000298403 -0.000232428)
(0.000650342 -0.000816271 -0.000364425)
(0.00155344 0.00116135 0.000178696)
(0.00131355 0.000468648 0.000118054)
(0.00118439 -1.55891e-05 -3.09198e-05)
(0.00121924 -0.000500969 -0.000192679)
(0.00136408 -0.00119097 -0.000291177)
(0.00256612 0.00153773 7.03748e-05)
(0.00233881 0.00066389 5.014e-05)
(0.00221155 -1.83094e-05 -4.77658e-05)
(0.00222554 -0.00070243 -0.000158499)
(0.00233672 -0.00158159 -0.000221507)
(0.00369272 0.00179924 -6.30697e-05)
(0.00349777 0.000803079 -2.84742e-05)
(0.00337868 -2.71632e-05 -6.08844e-05)
(0.00337406 -0.000859185 -0.000106226)
(0.00344098 -0.0018622 -0.000115799)
(0.00489718 0.00197541 -0.000183131)
(0.00472905 0.000896783 -9.84556e-05)
(0.00461864 -4.1616e-05 -7.12968e-05)
(0.00460025 -0.000979925 -5.61477e-05)
(0.0046338 -0.00206226 -1.38175e-05)
(0.00612927 0.00207835 -0.000283623)
(0.00598199 0.000951765 -0.000157612)
(0.00587948 -6.01506e-05 -8.10879e-05)
(0.00585192 -0.00106859 -1.39183e-05)
(0.00586207 -0.00219118 7.5183e-05)
(0.00736058 0.00213785 -0.000361313)
(0.00722348 0.000980644 -0.00020722)
(0.00712285 -7.93378e-05 -9.29098e-05)
(0.00708928 -0.00113314 1.52051e-05)
(0.00708878 -0.00227153 0.000140062)
(0.00859148 0.00216907 -0.000407164)
(0.00843274 0.000998546 -0.000240008)
(0.00830279 -9.13623e-05 -0.000104334)
(0.00827568 -0.00117801 2.4785e-05)
(0.00828615 -0.00232357 0.00016504)
(0 0 0)
(0 0 0)
(0 0 0)
(0 0 0)
(0 0 0)
(0.000828681 0.000760401 0.000172331)
(0.000550138 0.000238038 0.000112012)
(0.000463894 -8.23339e-06 -1.16099e-05)
(0.000502205 -0.000252469 -0.000142702)
(0.000709155 -0.00075763 -0.000221681)
(0.00158932 0.00120168 0.000116412)
(0.00136695 0.00050166 7.62473e-05)
(0.0012646 -9.75252e-06 -2.70034e-05)
(0.00128923 -0.000519782 -0.000140852)
(0.00142368 -0.00121696 -0.000208852)
(0.00255835 0.00158054 2.86569e-05)
(0.00235291 0.000701016 2.208e-05)
(0.00225337 -1.27074e-05 -4.07527e-05)
(0.00225893 -0.000726978 -0.00011476)
(0.00235707 -0.00161127 -0.000153026)
(0.00364135 0.00184662 -7.277e-05)
(0.00346626 0.000843836 -3.74112e-05)
(0.00337308 -2.05523e-05 -5.1982e-05)
(0.00336228 -0.000885899 -7.78577e-05)
(0.00341849 -0.00189481 -7.50255e-05)
(0.00480131 0.00201859 -0.000168785)
(0.00465155 0.000935099 -9.31288e-05)
(0.00456515 -3.29134e-05 -6.14597e-05)
(0.00454206 -0.0010007 -4.03458e-05)
(0.00456624 -0.00208715 4.40217e-06)
(0.00599484 0.0021152 -0.000250959)
(0.005864 0.000985753 -0.000141188)
(0.00578325 -4.85407e-05 -7.08735e-05)
(0.00575183 -0.00107979 -9.13327e-06)
(0.00575378 -0.00220436 7.39109e-05)
(0.00719537 0.00216573 -0.000314265)
(0.00707266 0.00100747 -0.000180503)
(0.00699131 -6.52446e-05 -8.22389e-05)
(0.00695503 -0.00113172 9.63954e-06)
(0.0069478 -0.00226887 0.000122638)
(0.00841072 0.00219027 -0.000349089)
(0.00826538 0.00101966 -0.000205009)
(0.00815335 -7.6163e-05 -9.38366e-05)
(0.00812319 -0.00116785 9.65733e-06)
(0.00812706 -0.00230974 0.000134051)
(0 0 0)
(0 0 0)
(0 0 0)
(0 0 0)
(0 0 0)
(0.000861232 0.000763674 8.33009e-05)
(0.000568169 0.000237735 5.3725e-05)
(0.000476822 -5.49085e-06 -1.12953e-05)
(0.000518497 -0.000246797 -8.15997e-05)
(0.000735058 -0.000758548 -0.000121413)
(0.00161823 0.00119081 5.2239e-05)
(0.00138259 0.000502239 3.23365e-05)
(0.00127489 -5.22336e-06 -2.44588e-05)
(0.00130447 -0.00051184 -8.80362e-05)
(0.00145017 -0.00120113 -0.000121665)
(0.00256018 0.00156774 -5.99036e-06)
(0.00235025 0.000705083 -4.68476e-06)
(0.00224927 -6.70528e-06 -3.62265e-05)
(0.00225633 -0.000719345 -7.47485e-05)
(0.00235754 -0.00158812 -8.84446e-05)
(0.00361363 0.00183476 -7.67528e-05)
(0.00343617 0.000849823 -4.74082e-05)
(0.00334288 -1.26476e-05 -4.61225e-05)
(0.00333222 -0.000876003 -5.17446e-05)
(0.00338934 -0.00186694 -3.73123e-05)
(0.0047416 0.00200897 -0.000146847)
(0.00459136 0.000942796 -8.89339e-05)
(0.00450575 -2.28417e-05 -5.47913e-05)
(0.0044817 -0.000987629 -2.69306e-05)
(0.00450461 -0.00205496 1.74377e-05)
(0.00590526 0.00210894 -0.000208861)
(0.00577496 0.000994557 -0.000125691)
(0.00569572 -3.63021e-05 -6.36267e-05)
(0.00566257 -0.00106271 -6.47192e-06)
(0.00566169 -0.00216853 6.59491e-05)
(0.00708015 0.00216432 -0.000257553)
(0.00695916 0.00101682 -0.000155693)
(0.00687989 -5.117e-05 -7.43854e-05)
(0.00684114 -0.00111046 3.38151e-06)
(0.00682967 -0.00223012 9.85946e-05)
(0.00827936 0.00219226 -0.000281395)
(0.00813653 0.00102925 -0.000172796)
(0.00802612 -6.0506e-05 -8.66597e-05)
(0.00799064 -0.00114262 -6.09824e-06)
(0.00798785 -0.00226776 9.56642e-05)
(0 0 0)
(0 0 0)
(0 0 0)
(0 0 0)
(0 0 0)
(0.000873599 0.000763888 3.21173e-05)
(0.000569967 0.000236994 2.14164e-05)
(0.000473072 -3.93689e-06 -1.02247e-05)
(0.000516591 -0.000243229 -4.50286e-05)
(0.000740362 -0.000755537 -6.16489e-05)
(0.00162531 0.00117713 9.22284e-06)
(0.00137944 0.000498096 5.6559e-06)
(0.00126516 -1.66731e-06 -2.11723e-05)
(0.0012971 -0.000500973 -5.19392e-05)
(0.00145076 -0.00118177 -6.28165e-05)
(0.00255237 0.00154811 -3.07861e-05)
(0.00233482 0.00070051 -2.0353e-05)
(0.00222856 -9.53371e-07 -3.09866e-05)
(0.00223676 -0.000703476 -4.5459e-05)
(0.00234384 -0.00155763 -4.24621e-05)
(0.00358562 0.00181408 -7.97233e-05)
(0.00340341 0.000846278 -5.06957e-05)
(0.00330609 -4.51768e-06 -3.94433e-05)
(0.0032954 -0.000856018 -3.18127e-05)
(0.00335577 -0.00182933 -9.78829e-06)
(0.00469159 0.00199038 -0.000129634)
(0.00453885 0.000941423 -8.09355e-05)
(0.0044502 -1.22634e-05 -4.70998e-05)
(0.00442525 -0.000964381 -1.6366e-05)
(0.00444915 -0.00201281 2.64287e-05)
(0.00583372 0.00209468 -0.000175047)
(0.00570258 0.000995931 -0.000108398)
(0.00562117 -2.33987e-05 -5.51183e-05)
(0.00558639 -0.00103681 -3.98225e-06)
(0.00558455 -0.00212373 5.87759e-05)
(0.00698926 0.00215628 -0.000211421)
(0.00686901 0.00102118 -0.000131039)
(0.00678811 -3.61851e-05 -6.50311e-05)
(0.00674663 -0.00108239 -3.13013e-07)
(0.0067319 -0.00218353 7.9113e-05)
(0.00817465 0.00219051 -0.000228257)
(0.0080333 0.00103707 -0.000143745)
(0.0079204 -4.34826e-05 -7.71703e-05)
(0.00787918 -0.00111314 -1.36605e-05)
(0.00787039 -0.00222043 6.95304e-05)
(0 0 0)
(0 0 0)
(0 0 0)
(0 0 0)
(0 0 0)
(0.000875846 0.000761329 6.69944e-06)
(0.00056584 0.000236009 5.24587e-06)
(0.000465327 -2.74191e-06 -8.41366e-06)
(0.000509366 -0.000239797 -2.38675e-05)
(0.000736747 -0.000748963 -2.87539e-05)
(0.00162169 0.00116582 -1.20172e-05)
(0.00136852 0.000494302 -7.31427e-06)
(0.00124965 1.4431e-06 -1.71435e-05)
(0.00128226 -0.00049092 -2.92402e-05)
(0.00144072 -0.00116401 -2.85731e-05)
(0.0025382 0.00153188 -4.06848e-05)
(0.00231411 0.000695668 -2.60115e-05)
(0.00220368 4.36933e-06 -2.49921e-05)
(0.00221216 -0.000687922 -2.60479e-05)
(0.00232339 -0.00153052 -1.51351e-05)
(0.0035578 0.00179628 -7.48623e-05)
(0.00337058 0.000841924 -4.75418e-05)
(0.00326978 3.14579e-06 -3.18887e-05)
(0.00325887 -0.000836078 -1.80675e-05)
(0.00332205 -0.00179538 6.0054e-06)
(0.00464869 0.00197373 -0.00011009)
(0.00449248 0.00093874 -6.92931e-05)
(0.00440105 -2.26624e-06 -3.83231e-05)
(0.0043754 -0.000941123 -8.77988e-06)
(0.00440066 -0.0019743 2.96208e-05)
(0.00577555 0.00208104 -0.000142856)
(0.00564223 0.00099562 -8.94729e-05)
(0.00555867 -1.123e-05 -4.52332e-05)
(0.00552271 -0.00101111 -1.76262e-06)
(0.00552077 -0.00208225 5.06144e-05)
(0.00691666 0.00214698 -0.000169613)
(0.00679537 0.00102353 -0.000106334)
(0.00671257 -2.20641e-05 -5.38389e-05)
(0.00666905 -0.00105487 -1.58653e-06)
(0.0066526 -0.0021399 6.26423e-05)
(0.00809037 0.00218542 -0.00018118)
(0.00794825 0.00104225 -0.000115507)
(0.00783256 -2.73869e-05 -6.45678e-05)
(0.0077872 -0.00108426 -1.51778e-05)
(0.00777489 -0.00217556 5.11081e-05)
(0 0 0)
(0 0 0)
(0 0 0)
(0 0 0)
(0 0 0)
(0.000873936 0.000757967 -3.7807e-06)
(0.000560559 0.000235132 -1.58008e-06)
(0.000457865 -1.74871e-06 -6.28843e-06)
(0.00050185 -0.000236777 -1.19817e-05)
(0.000730559 -0.000741815 -1.17776e-05)
(0.00161414 0.00115728 -1.86151e-05)
(0.00135641 0.000491652 -1.13088e-05)
(0.00123464 4.10813e-06 -1.28014e-05)
(0.00126724 -0.000482765 -1.55898e-05)
(0.00142826 -0.00114939 -1.05868e-05)
(0.00252264 0.00152018 -3.89616e-05)
(0.00229407 0.000692291 -2.45129e-05)
(0.00218082 8.95192e-06 -1.86874e-05)
(0.00218923 -0.000675225 -1.39761e-05)
(0.00230295 -0.00150912 -1.50835e-06)
(0.00353268 0.00178344 -6.24783e-05)
(0.00334167 0.000838862 -3.94227e-05)
(0.00323843 9.71957e-06 -2.39421e-05)
(0.00322727 -0.000819623 -9.37095e-06)
(0.00329237 -0.00176862 1.21417e-05)
(0.00461311 0.00196145 -8.67496e-05)
(0.00445399 0.000936833 -5.45811e-05)
(0.00436055 6.25011e-06 -2.89653e-05)
(0.00433446 -0.000921751 -3.96941e-06)
(0.00436083 -0.00194358 2.72639e-05)
(0.00572916 0.00207052 -0.000109653)
(0.00559376 0.000995373 -6.88618e-05)
(0.00550858 -9.43449e-07 -3.44614e-05)
(0.0054719 -0.000989557 -2.51183e-07)
(0.00547015 -0.0020487 4.05083e-05)
(0.00685955 0.00213902 -0.000128628)
(0.00673691 0.00102512 -8.09188e-05)
(0.00665263 -1.02118e-05 -4.13079e-05)
(0.00660783 -0.00103169 -1.57496e-06)
(0.00659054 -0.00210413 4.73172e-05)
(0.00802376 0.00218013 -0.000136492)
(0.00788034 0.0010459 -8.73772e-05)
(0.00776244 -1.39133e-05 -4.98239e-05)
(0.00771451 -0.00105981 -1.30636e-05)
(0.00770029 -0.00213837 3.69346e-05)
(0 0 0)
(0 0 0)
(0 0 0)
(0 0 0)
(0 0 0)
(0.000871138 0.000754995 -5.97687e-06)
(0.000556116 0.00023449 -3.22819e-06)
(0.00045217 -9.86441e-07 -4.12704e-06)
(0.000495929 -0.000234461 -5.53706e-06)
(0.000724893 -0.000735878 -3.88703e-06)
(0.00160679 0.00115134 -1.63419e-05)
(0.00134642 0.000490009 -9.93078e-06)
(0.00122292 6.16132e-06 -8.44312e-06)
(0.00125531 -0.000476838 -7.66133e-06)
(0.00141758 -0.00113863 -2.5137e-06)
(0.00250949 0.00151245 -2.9572e-05)
(0.00227813 0.000690284 -1.84644e-05)
(0.00216314 1.24655e-05 -1.23687e-05)
(0.0021714 -0.000666041 -6.84876e-06)
(0.00228648 -0.00149383 3.23951e-06)
(0.00351298 0.00177505 -4.44983e-05)
(0.00331947 0.000837114 -2.79402e-05)
(0.00321468 1.47224e-05 -1.59163e-05)
(0.00320335 -0.000807682 -4.32736e-06)
(0.0032696 -0.0017496 1.15148e-05)
(0.00458639 0.00195334 -5.98792e-05)
(0.00442522 0.000935843 -3.75999e-05)
(0.00433048 1.26798e-05 -1.93668e-05)
(0.00430413 -0.000907607 -1.38574e-06)
(0.00433125 -0.00192164 2.05613e-05)
(0.00569509 0.00206334 -7.45166e-05)
(0.00555811 0.000995425 -4.67901e-05)
(0.00547187 6.76385e-06 -2.31867e-05)
(0.0054348 -0.000973726 4.20156e-07)
(0.00543327 -0.00202452 2.83471e-05)
(0.00681797 0.00213321 -8.6747e-05)
(0.00669417 0.00102631 -5.46028e-05)
(0.00660888 -1.38999e-06 -2.79323e-05)
(0.00656337 -0.00101458 -1.0882e-06)
(0.00654576 -0.0020781 3.19486e-05)
(0.00797522 0.0021758 -9.16909e-05)
(0.00783057 0.00104836 -5.87531e-05)
(0.00771114 -3.92873e-06 -3.37867e-05)
(0.00766175 -0.00104164 -9.23152e-06)
(0.00764662 -0.00211106 2.43716e-05)
(0 0 0)
(0 0 0)
(0 0 0)
(0 0 0)
(0 0 0)
(0.000869008 0.000753028 -3.88909e-06)
(0.00055328 0.000234104 -2.18389e-06)
(0.000448694 -5.0646e-07 -2.03351e-06)
(0.000492257 -0.000233017 -2.09989e-06)
(0.00072113 -0.000732055 -8.79672e-07)
(0.00160175 0.00114784 -9.22284e-06)
(0.00134004 0.000489128 -5.6085e-06)
(0.00121563 7.45265e-06 -4.18143e-06)
(0.00124784 -0.000473256 -3.06553e-06)
(0.00141064 -0.00113206 -1.04504e-08)
(0.00250088 0.00150805 -1.57721e-05)
(0.00226805 0.000689262 -9.81506e-06)
(0.00215213 1.46659e-05 -6.14524e-06)
(0.00216026 -0.000660519 -2.72015e-06)
(0.002276 -0.00148467 2.80459e-06)
(0.0035005 0.00177034 -2.30563e-05)
(0.00330562 0.000836276 -1.44376e-05)
(0.00319998 1.7838e-05 -7.93397e-06)
(0.00318854 -0.000800497 -1.60459e-06)
(0.00325539 -0.00173827 6.73451e-06)
(0.0045698 0.00194877 -3.05509e-05)
(0.00440747 0.000935437 -1.91547e-05)
(0.00431201 1.66608e-05 -9.69145e-06)
(0.00428553 -0.000899072 -3.14831e-07)
(0.00431307 -0.00190855 1.09856e-05)
(0.00567419 0.00205921 -3.77142e-05)
(0.00553627 0.000995583 -2.36664e-05)
(0.00544944 1.15104e-05 -1.16492e-05)
(0.00541217 -0.000964137 3.9979e-07)
(0.00541081 -0.00201001 1.45968e-05)
(0.00679258 0.00212971 -4.37257e-05)
(0.00666805 0.00102707 -2.75159e-05)
(0.0065822 4.01949e-06 -1.40745e-05)
(0.00653634 -0.00100418 -5.27879e-07)
(0.00651862 -0.00206241 1.61426e-05)
(0.00794557 0.002173 -4.6129e-05)
(0.00780013 0.00104979 -2.95543e-05)
(0.00767984 2.17887e-06 -1.70451e-05)
(0.00762969 -0.00103054 -4.71968e-06)
(0.00761418 -0.00209449 1.21903e-05)
(0 0 0)
(0 0 0)
(0 0 0)
(0 0 0)
(0 0 0)
(0.000868231 0.000752347 -0)
(0.000552314 0.000233976 0)
(0.000447532 -3.42731e-07 0)
(0.000491021 -0.000232528 0)
(0.000719829 -0.000730744 0)
(0.00159997 0.00114669 -0)
(0.00133786 0.000488852 0)
(0.00121316 7.89266e-06 0)
(0.0012453 -0.000472058 0)
(0.00140826 -0.00112986 0)
(0.00249791 0.00150662 -0)
(0.00226462 0.000688952 0)
(0.0021484 1.54141e-05 0)
(0.00215649 -0.000658678 0)
(0.00227242 -0.00148162 0)
(0.00349624 0.00176882 -0)
(0.00330092 0.000836032 0)
(0.00319501 1.88944e-05 0)
(0.00318353 -0.000798103 0)
(0.00325057 -0.00173451 0)
(0.00456418 0.0019473 -0)
(0.00440147 0.000935334 0)
(0.00430578 1.80067e-05 0)
(0.00427926 -0.000896225 0)
(0.00430693 -0.0019042 0)
(0.00566713 0.00205786 -0)
(0.00552892 0.000995657 0)
(0.00544189 1.31111e-05 0)
(0.00540456 -0.000960933 0)
(0.00540327 -0.00200518 0)
(0.00678402 0.00212853 -0)
(0.00665925 0.00102732 0)
(0.00657323 5.84049e-06 0)
(0.00652726 -0.0010007 0)
(0.00650952 -0.00205718 0)
(0.00793557 0.00217201 -0)
(0.00778988 0.00105025 -0)
(0.00766932 4.23432e-06 -0)
(0.00761893 -0.00102682 0)
(0.00760331 -0.00208895 0)
)
;

boundaryField
{
    interface
    {
        type            calculated;
    }
    symmetry
    {
        type            symmetryPlane;
    }
    bottom
    {
        type            fixedValue;
        value           uniform (0 0 0);
    }
}


// ************************************************************************* //
