/*--------------------------------*- C++ -*----------------------------------*\
| =========                 |                                                 |
| \\      /  F ield         | foam-extend: Open Source CFD                    |
|  \\    /   O peration     | Version:     3.1                                |
|   \\  /    A nd           | Web:         http://www.extend-project.de       |
|    \\/     M anipulation  |                                                 |
\*---------------------------------------------------------------------------*/
FoamFile
{
    version     2.0;
    format      ascii;
    class       volSymmTensorField;
    location    "2.2";
    object      sigmaCauchy;
}
// * * * * * * * * * * * * * * * * * * * * * * * * * * * * * * * * * * * * * //

dimensions      [1 -1 -2 0 0 0 0];

internalField   nonuniform List<symmTensor> 
256
(
(150.093 63.5486 -1.25894 350.678 28.6807 172.257)
(19.8923 49.7704 -6.8192 67.5271 9.63404 25.8068)
(-45.9012 43.6352 -7.60904 -93.005 -12.112 -47.1057)
(-172.514 40.284 -4.06073 -340.455 -27.4407 -187.6)
(-66.9244 28.282 -3.11037 97.6658 -10.5837 -21.8298)
(-27.3672 62.1704 -11.4433 33.3775 -4.61069 -10.7072)
(-1.06532 57.7808 -11.7443 -47.6062 1.85619 -5.43164)
(33.1777 18.8083 -4.27286 -108.79 6.79054 5.26743)
(-25.497 33.3838 -1.59596 120.732 -6.06165 19.2079)
(-27.8758 59.4077 -8.09927 28.8745 -2.36002 -6.34805)
(-4.64416 55.9674 -8.36379 -43.1991 0.172863 -9.21313)
(-5.86771 23.4044 -2.78518 -124.888 3.20134 -28.9009)
(-35.3681 28.6196 -1.83662 78.4453 -7.64515 7.54171)
(-28.7958 53.29 -6.95681 17.3812 -2.48656 -7.38728)
(-4.24109 50.6775 -6.96157 -32.0157 1.08743 -6.3092)
(3.47851 20.8152 -2.72724 -83.5816 5.62216 -14.5135)
(-32.7683 24.1248 -1.59651 52.6278 -6.65825 7.60083)
(-27.4723 45.2252 -5.81859 9.10956 -1.93187 -6.35782)
(-5.72346 43.4964 -5.72891 -24.0215 1.23 -6.06303)
(0.937083 18.7039 -2.3693 -57.9681 5.58754 -12.7911)
(-33.4757 18.3152 -1.67631 29.095 -5.62663 4.96299)
(-27.0807 35.9266 -5.2234 1.80839 -1.55534 -6.24595)
(-6.78125 35.1719 -5.00083 -17.1746 1.2299 -5.79565)
(1.02775 15.5684 -2.25044 -34.8411 5.28513 -9.85414)
(-33.068 12.1786 -2.12889 15.3994 -4.62999 5.23296)
(-27.9686 26.2334 -5.13397 -3.43864 -1.48881 -6.29348)
(-7.96177 25.9858 -4.7196 -12.0781 0.924339 -6.10758)
(1.22944 11.6052 -2.33144 -18.892 4.33572 -8.96455)
(-42.5817 7.85126 -2.70716 2.579 -2.4754 0.734132)
(-39.5386 15.7231 -5.17477 -10.5496 -0.839621 -11.7855)
(-4.61939 14.2051 -4.86118 -4.3662 0.296819 -3.49548)
(6.15728 5.69715 -2.91602 -7.41556 1.81191 -7.29085)
(152.321 69.6225 -0.713298 347.722 16.6733 179.406)
(25.3764 57.1953 -5.45118 70.3115 5.2405 31.5581)
(-42.2692 51.3763 -6.40649 -85.0025 -8.37718 -45.6652)
(-166.664 46.1978 -3.43488 -328.532 -18.1493 -187.489)
(-39.0618 28.3363 -2.07828 135.844 -5.52703 11.2183)
(-7.54291 62.7773 -10.4645 55.3492 -2.83459 8.1462)
(-17.156 58.1777 -11.6272 -66.9247 -0.416464 -22.9182)
(5.03824 18.8172 -4.95912 -144.761 1.41805 -27.5069)
(-20.4808 29.2482 -1.14355 125.32 -9.44433 23.4987)
(-18.2325 53.6698 -8.52184 36.3041 -3.57736 0.111763)
(-9.94874 50.3587 -9.65235 -47.5339 1.52465 -13.6701)
(-9.63843 19.6495 -3.90655 -127.764 6.44816 -31.749)
(-26.276 24.1472 -0.477754 86.5163 -10.7026 15.7258)
(-18.6714 45.9292 -6.42497 25.1309 -3.54452 -0.610207)
(-9.60789 43.3497 -7.44294 -35.6248 2.55505 -10.9265)
(-3.98851 16.5378 -3.12043 -88.9799 8.99671 -20.9592)
(-25.9628 19.4587 0.195766 57.3096 -10.1786 13.3502)
(-18.8663 37.6779 -4.75682 15.1257 -3.1293 -1.19386)
(-9.29828 36.0028 -5.69982 -25.1434 2.94025 -8.89376)
(-4.08837 14.2786 -2.31527 -59.5668 9.64532 -16.6914)
(-26.6537 14.2354 0.498982 33.5227 -8.78409 10.9854)
(-19.1434 29.2997 -3.70716 7.15311 -2.61805 -1.64172)
(-9.39959 28.5945 -4.51895 -17.0446 2.77961 -7.75993)
(-3.59866 11.7298 -1.77968 -35.4509 9.07709 -13.558)
(-26.8754 8.86053 0.333546 18.9165 -6.86024 10.7434)
(-21.2806 21.1114 -3.39521 0.475448 -2.16955 -2.86077)
(-9.70197 21.0011 -4.04031 -11.0525 2.08109 -7.21255)
(-2.27771 8.7668 -1.56617 -17.975 7.32655 -11.6067)
(-36.076 6.16082 -0.322422 6.49504 -3.71706 6.34695)
(-33.6298 13.0805 -3.86856 -7.39807 -1.19639 -9.23986)
(-7.23711 11.6922 -4.75211 -4.65008 0.972872 -5.4181)
(1.47413 4.44573 -2.46131 -8.25674 3.7862 -11.049)
(156.572 72.0448 -0.621086 354.032 7.48025 189.911)
(27.4877 58.4801 -3.45858 73.4033 1.94711 36.2512)
(-42.5651 52.383 -4.10892 -84.7699 -5.02446 -48.1155)
(-170.858 47.4024 -2.26693 -333.155 -9.761 -197.592)
(-39.3591 28.3089 -1.71119 136.631 -4.03586 21.5787)
(-6.03689 62.8328 -7.01916 58.6158 -2.24642 14.4506)
(-18.5029 58.2106 -7.98704 -68.1825 -0.650449 -27.9956)
(2.88234 18.8008 -3.79631 -146.587 0.832403 -40.1367)
(-21.1104 28.5083 -1.36542 126.906 -7.54219 29.776)
(-17.6178 52.5407 -6.3433 38.8632 -3.02494 4.33647)
(-10.9694 49.2046 -7.29964 -48.5466 1.23471 -17.0956)
(-11.7947 18.8562 -3.30196 -130.231 5.20969 -41.058)
(-27.0917 23.1309 -0.854534 87.3538 -8.95673 18.5733)
(-18.1814 43.7621 -4.97941 27.1349 -3.11776 2.34449)
(-10.6886 41.1984 -5.83019 -35.9318 2.39833 -12.9894)
(-6.37239 15.5802 -2.57766 -90.9029 7.77136 -27.2631)
(-27.4115 18.2183 -0.331403 57.2804 -8.83983 13.4124)
(-18.4213 35.2033 -3.63391 16.8934 -2.81311 0.960368)
(-10.2995 33.6009 -4.39718 -24.9862 2.92976 -9.91207)
(-5.88766 13.2366 -1.85277 -60.4391 8.74285 -20.0875)
(-28.242 12.9916 -0.0153869 33.1222 -7.80088 9.40953)
(-18.6541 26.946 -2.72786 8.70034 -2.3473 -0.0161871)
(-10.2552 26.4096 -3.37891 -16.4972 2.8938 -7.93084)
(-5.05136 10.879 -1.3157 -35.584 8.48691 -14.8263)
(-28.1449 7.68312 -0.0636571 18.6736 -6.09889 8.35858)
(-20.7589 19.2388 -2.5238 1.75724 -1.8265 -1.69838)
(-10.4958 19.3945 -3.08851 -10.3154 2.27617 -6.71686)
(-3.46658 8.23881 -1.14977 -17.4849 7.03498 -11.1325)
(-37.8831 5.52481 -0.697757 5.27184 -3.06809 2.21487)
(-33.5004 12.1138 -3.365 -6.58944 -0.829764 -8.83763)
(-8.36133 10.9074 -4.25865 -3.86259 1.06342 -4.11571)
(1.09912 4.29115 -2.24879 -6.47001 3.56213 -7.76512)
(158.291 72.5645 -0.401741 356.719 2.43953 195.921)
(27.9895 58.1476 -2.03737 74.6664 0.275936 38.6511)
(-42.8999 51.8222 -2.41706 -84.5706 -2.91397 -49.6227)
(-172.451 47.2545 -1.3351 -334.411 -4.80395 -202.863)
(-39.9754 28.0726 -1.06175 136.229 -3.30192 28.9256)
(-6.4718 62.5853 -4.34992 59.5014 -1.79713 17.7494)
(-18.9858 57.9554 -4.98344 -67.7571 -0.526229 -30.749)
(2.08802 18.665 -2.44483 -146.279 0.866152 -48.3025)
(-21.5612 28.3313 -1.0199 127.772 -5.5933 35.9806)
(-18.4709 52.2729 -4.30875 39.7378 -2.28977 6.85086)
(-11.5011 48.9655 -4.93416 -48.2868 0.902428 -19.3833)
(-12.6074 18.7603 -2.29496 -130.542 3.91115 -48.1251)
(-27.5947 22.8919 -0.761406 88.4777 -6.66176 22.7205)
(-19.0488 43.3118 -3.59367 27.9934 -2.35259 4.1453)
(-11.3525 40.7957 -4.12302 -35.6688 1.88588 -14.5862)
(-7.24725 15.4654 -1.8368 -91.3461 5.90502 -32.4248)
(-27.8891 17.9129 -0.430976 58.4653 -6.7239 15.6966)
(-19.2035 34.6277 -2.7337 17.7616 -2.14026 2.20065)
(-11.0118 33.1135 -3.178 -24.6773 2.40624 -10.7853)
(-6.73263 13.1365 -1.31071 -60.7599 6.84675 -23.2231)
(-28.6211 12.6315 -0.21303 34.3257 -6.08359 10.3098)
(-19.3029 26.341 -2.1335 9.54681 -1.80152 0.834434)
(-10.9274 25.9565 -2.4898 -16.0946 2.45808 -8.1148)
(-5.83616 10.8477 -0.909681 -35.6809 6.83367 -16.1916)
(-28.2008 7.28301 -0.274221 20.0763 -4.87715 8.43715)
(-21.2946 18.7301 -2.12648 2.54596 -1.39371 -1.11843)
(-11.196 19.0823 -2.44126 -9.84093 1.99124 -6.27837)
(-4.20914 8.30253 -0.83987 -17.2152 5.79944 -10.9232)
(-37.874 5.32859 -0.92734 6.50089 -2.53558 1.55879)
(-34.1381 11.8478 -3.16747 -5.81856 -0.61913 -8.38609)
(-9.55606 10.7304 -3.76743 -3.48419 0.95999 -3.11672)
(0.229066 4.3726 -1.9031 -5.94323 2.99137 -6.00961)
(158.43 72.3486 -0.228737 356.975 0.0912098 198.601)
(28.0338 57.3989 -1.12944 75.1893 -0.413334 39.8653)
(-43.0132 50.939 -1.33899 -84.0811 -1.63618 -50.3391)
(-172.349 46.7354 -0.734638 -333.374 -2.13062 -204.785)
(-40.5897 27.7564 -0.581132 135.718 -2.67521 33.293)
(-6.9909 62.1139 -2.5354 59.9009 -1.39072 19.6037)
(-19.3598 57.5062 -2.92157 -67.0902 -0.355124 -32.3796)
(1.54954 18.4926 -1.44774 -145.643 0.867459 -53.2491)
(-22.1992 28.1879 -0.650254 128.006 -4.03507 40.0727)
(-19.2139 52.1012 -2.72874 40.2311 -1.64575 8.42096)
(-11.9496 48.8532 -3.10909 -47.7584 0.644789 -20.9203)
(-12.9632 18.7534 -1.43986 -130.114 2.8632 -52.6819)
(-28.2144 22.8352 -0.549871 89.1147 -4.70813 25.8466)
(-19.7786 43.2756 -2.41484 28.5836 -1.65551 5.36523)
(-11.8485 40.8249 -2.71926 -35.2317 1.37773 -15.7754)
(-7.65034 15.5581 -1.18059 -91.1533 4.24995 -36.0628)
(-28.4332 17.8778 -0.375514 59.3305 -4.79226 17.745)
(-19.8533 34.6273 -1.93717 18.4131 -1.50736 3.09551)
(-11.5102 33.1961 -2.17259 -24.2887 1.79924 -11.5147)
(-7.14048 13.286 -0.849255 -60.6506 4.98878 -25.6411)
(-29.0583 12.5703 -0.26355 35.2909 -4.42413 11.4576)
(-19.8417 26.3296 -1.61117 10.2165 -1.28476 1.50078)
(-11.3976 26.059 -1.78253 -15.7172 1.8727 -8.35837)
(-6.22122 11.0365 -0.601893 -35.5159 5.06649 -17.3841)
(-28.4199 7.17148 -0.361904 21.1709 -3.63685 9.02332)
(-21.7764 18.7076 -1.74678 3.17246 -1.00671 -0.610244)
(-11.7093 19.1851 -1.89715 -9.46821 1.53843 -6.06434)
(-4.56287 8.51347 -0.619717 -16.8393 4.36527 -10.9514)
(-38.252 5.2884 -0.977595 7.2999 -1.91616 1.44141)
(-34.8619 11.8486 -2.77938 -5.3235 -0.434786 -8.08595)
(-10.4234 10.7602 -3.14203 -3.17181 0.749831 -2.5119)
(-0.216797 4.50172 -1.54391 -5.43262 2.26781 -4.97181)
(158.023 71.944 -0.113136 356.314 -0.717507 199.603)
(27.9514 56.6835 -0.584191 75.4038 -0.559696 40.4596)
(-42.973 50.1485 -0.694736 -83.4979 -0.874083 -50.6029)
(-171.646 46.2117 -0.376412 -331.634 -0.802368 -205.134)
(-40.9826 27.4538 -0.275146 135.356 -1.99046 35.7837)
(-7.38631 61.6118 -1.37918 60.1362 -0.994886 20.6119)
(-19.6141 57.0356 -1.60236 -66.4485 -0.211954 -33.3122)
(1.13826 18.3323 -0.792784 -145.013 0.736927 -56.1262)
(-22.6712 28.0401 -0.359934 128.102 -2.74788 42.5816)
(-19.7242 51.9108 -1.60128 40.5719 -1.10778 9.34782)
(-12.2804 48.7218 -1.82024 -47.2379 0.438521 -21.8985)
(-13.1605 18.7412 -0.826354 -129.556 1.97466 -55.4418)
(-28.6664 22.799 -0.337175 89.5279 -3.12987 27.946)
(-20.2728 43.2849 -1.49491 29.011 -1.08805 6.13404)
(-12.1789 40.8941 -1.66067 -34.7881 0.933006 -16.5782)
(-7.85706 15.658 -0.691772 -90.7773 2.86376 -38.3995)
(-28.8279 17.89 -0.259427 59.9329 -3.1894 19.2942)
(-20.2856 34.7294 -1.26192 18.8942 -0.988135 3.70335)
(-11.8189 33.3647 -1.37907 -23.9038 1.22951 -12.0425)
(-7.33602 13.4471 -0.504296 -60.3645 3.36831 -27.2984)
(-29.3701 12.578 -0.217806 35.9831 -2.98526 12.5162)
(-20.1992 26.4456 -1.11863 10.7086 -0.852116 1.99373)
(-11.6812 26.2565 -1.19333 -15.373 1.29019 -8.57241)
(-6.41253 11.2264 -0.372502 -35.2447 3.44939 -18.3033)
(-28.5921 7.13803 -0.322804 21.9443 -2.50099 9.76831)
(-22.1124 18.7945 -1.30263 3.6198 -0.67754 -0.204727)
(-12.0318 19.3548 -1.36703 -9.16475 1.06567 -5.98261)
(-4.7426 8.70271 -0.431038 -16.4754 2.99608 -11.1351)
(-38.4892 5.2778 -0.814611 7.96668 -1.33742 1.83744)
(-35.39 11.8994 -2.14778 -4.96446 -0.289518 -7.81259)
(-10.9962 10.8228 -2.35673 -2.93563 0.523608 -2.22339)
(-0.533564 4.60068 -1.13552 -5.0993 1.56615 -4.60327)
(157.563 71.5956 -0.0477698 355.548 -0.695373 199.867)
(27.8628 56.166 -0.268074 75.4898 -0.423212 40.7348)
(-42.8849 49.5909 -0.320734 -83.0115 -0.417629 -50.6611)
(-170.938 45.8244 -0.171165 -330.102 -0.229628 -204.938)
(-41.2178 27.2269 -0.110095 135.115 -1.22921 37.0837)
(-7.64023 61.217 -0.663026 60.281 -0.598801 21.1252)
(-19.7611 56.6679 -0.77761 -65.9583 -0.108004 -33.8076)
(0.870009 18.2139 -0.382065 -144.515 0.490512 -57.6795)
(-22.9779 27.9175 -0.170856 128.139 -1.60581 43.9622)
(-20.0323 51.7402 -0.82045 40.8014 -0.640567 9.85261)
(-12.489 48.5955 -0.932416 -46.8418 0.256674 -22.468)
(-13.2673 18.7218 -0.413183 -129.093 1.16363 -56.9801)
(-28.959 22.7632 -0.17511 89.7725 -1.79584 29.175)
(-20.5679 43.275 -0.799693 29.2977 -0.617764 6.57568)
(-12.3752 40.9275 -0.880665 -34.4459 0.539835 -17.0637)
(-7.96305 15.7215 -0.351924 -90.4421 1.65643 -39.7596)
(-29.0871 17.8972 -0.147185 60.2942 -1.82786 20.2698)
(-20.5402 34.8043 -0.703366 19.2132 -0.559485 4.07573)
(-11.9925 33.4849 -0.756125 -23.6064 0.71297 -12.375)
(-7.4276 13.557 -0.260592 -60.093 1.94492 -28.3083)
(-29.5791 12.5885 -0.138999 36.3969 -1.72514 13.2542)
(-20.4087 26.5411 -0.655723 11.0287 -0.48671 2.31744)
(-11.8365 26.4042 -0.68457 -15.1141 0.750202 -8.72218)
(-6.50304 11.3562 -0.201359 -35.0004 1.99803 -18.9112)
(-28.7236 7.12314 -0.218292 22.3998 -1.46343 10.3518)
(-22.3144 18.8683 -0.802894 3.90471 -0.391478 0.0782954)
(-12.2144 19.479 -0.827193 -8.94868 0.620689 -5.96297)
(-4.82716 8.82726 -0.256421 -16.1964 1.74176 -11.3291)
(-38.6608 5.27492 -0.534383 8.37466 -0.792717 2.24662)
(-35.725 11.9424 -1.34903 -4.7407 -0.166436 -7.6121)
(-11.3356 10.8687 -1.45725 -2.77225 0.307044 -2.10667)
(-0.721898 4.66111 -0.696253 -4.87956 0.91366 -4.53049)
(157.287 71.4036 -0.0127815 355.083 -0.271409 199.893)
(27.8114 55.9002 -0.0763411 75.5195 -0.15393 40.841)
(-42.8229 49.3078 -0.0917569 -82.7409 -0.122426 -50.6578)
(-170.522 45.6234 -0.0483786 -329.24 -0.0378948 -204.728)
(-41.3273 27.1069 -0.0281079 134.992 -0.415655 37.6305)
(-7.76301 61.0043 -0.194635 60.3518 -0.200009 21.3381)
(-19.826 56.4703 -0.229674 -65.695 -0.032619 -34.0197)
(0.740752 18.152 -0.112073 -144.241 0.171574 -58.3536)
(-23.1265 27.8486 -0.0497377 128.151 -0.52915 44.5641)
(-20.1764 51.6405 -0.250333 40.9183 -0.209873 10.0719)
(-12.5878 48.5191 -0.284474 -46.6301 0.0846917 -22.7283)
(-13.3129 18.7076 -0.123949 -128.837 0.384966 -57.6621)
(-29.1003 22.74 -0.0540331 89.8864 -0.58626 29.7322)
(-20.7051 43.2607 -0.250219 29.4421 -0.2005 6.77449)
(-12.4657 40.9354 -0.274251 -34.2623 0.176704 -17.2909)
(-8.00796 15.7497 -0.106839 -90.2527 0.542611 -40.38)
(-29.2134 17.8979 -0.0478306 60.4619 -0.596155 20.7318)
(-20.6577 34.8377 -0.225322 19.3715 -0.181316 4.25067)
(-12.0702 33.5408 -0.240177 -23.4468 0.233398 -12.5341)
(-7.46448 13.6094 -0.0800516 -59.9369 0.636086 -28.7823)
(-29.6814 12.5922 -0.0480513 36.5873 -0.56493 13.6243)
(-20.505 26.5879 -0.21602 11.185 -0.15849 2.47626)
(-11.9046 26.4764 -0.22316 -14.9766 0.245745 -8.79772)
(-6.53974 11.4189 -0.0636893 -34.8622 0.654034 -19.2111)
(-28.7907 7.11509 -0.0776206 22.606 -0.482559 10.6619)
(-22.4083 18.905 -0.271437 4.04183 -0.128331 0.222076)
(-12.2963 19.5389 -0.277271 -8.83639 0.203418 -5.96252)
(-4.86242 8.88602 -0.0855012 -16.049 0.570864 -11.4474)
(-38.7407 5.27444 -0.186843 8.56584 -0.264665 2.49188)
(-35.8831 11.9654 -0.459646 -4.6328 -0.0547182 -7.50578)
(-11.4948 10.8901 -0.493032 -2.68924 0.101194 -2.07112)
(-0.815193 4.68772 -0.235087 -4.77414 0.299982 -4.54749)
)
;

boundaryField
{
    interface
    {
        type            calculated;
        value           nonuniform List<symmTensor> 
192
(
(-22.6742 12.422 3.33596 373.862 35.6637 104.122)
(-23.2695 5.80442 3.29905 169.012 -13.6135 16.3959)
(-23.2255 7.49252 4.01326 169.082 -8.70956 35.2755)
(-23.3714 6.05886 4.08435 119.268 -11.2199 26.9746)
(-23.6193 4.45998 4.13013 81.9607 -10.0022 23.8247)
(-23.9334 2.57092 4.06177 50.448 -8.53105 19.9933)
(-24.1771 0.798886 3.82226 32.0866 -6.80419 19.3123)
(-23.416 -1.15546 3.33174 22.4416 -3.70888 20.9553)
(-25.0555 13.0327 2.20011 367.916 20.7254 110.101)
(-25.8852 6.56539 2.36403 187.362 -7.08584 31.0878)
(-26.4262 7.41954 2.53275 166.812 -12.7683 34.1051)
(-26.9886 6.05824 2.52641 118.573 -14.8095 27.7201)
(-27.4155 4.32523 2.49235 79.2758 -14.1987 23.8177)
(-27.6094 2.35376 2.41997 48.0533 -12.3009 20.8613)
(-27.2538 0.383678 2.26143 30.1772 -9.5093 21.0017)
(-24.7676 -1.75849 1.99457 22.2301 -5.18977 24.0483)
(-26.5059 13.5688 1.32649 371.718 9.2634 118.381)
(-27.2765 6.53932 1.59544 184.828 -5.09564 41.3647)
(-27.8825 7.33871 1.65519 166.372 -9.94496 39.5239)
(-28.5091 5.95496 1.59672 118.006 -12.0445 29.0116)
(-28.926 4.16826 1.53105 78.3474 -12.0164 22.0418)
(-28.9721 2.13197 1.46565 47.1754 -10.6933 17.2852)
(-28.2213 0.0702861 1.37303 29.8943 -8.40734 16.6269)
(-24.8922 -2.1654 1.27566 21.7564 -4.40777 18.6631)
(-27.5238 13.7518 0.794356 372.944 2.89747 123.611)
(-28.2217 6.45853 1.09461 182.888 -4.22574 49.8066)
(-28.8002 7.25941 1.13746 166.261 -7.32358 46.4651)
(-29.4084 5.88069 1.08548 118.554 -8.86503 33.3938)
(-29.7765 4.08267 1.02288 79.1199 -9.05452 24.0042)
(-29.7 2.01376 0.967336 48.1149 -8.27955 17.4636)
(-28.694 -0.0996315 0.907182 31.1789 -6.72536 15.7054)
(-24.8669 -2.36606 0.86758 23.0248 -3.68698 17.0431)
(-28.2488 13.7476 0.474398 372.273 -0.0484702 126.116)
(-28.8983 6.37662 0.744238 181.632 -3.47733 55.0223)
(-29.4397 7.17974 0.78137 166.126 -5.30038 51.4403)
(-30.0155 5.81466 0.747656 119.055 -6.25832 37.1767)
(-30.3353 4.01884 0.700684 79.961 -6.44132 26.3602)
(-30.1678 1.93294 0.658254 49.1241 -6.0166 18.6134)
(-28.9922 -0.214105 0.617333 32.3837 -5.03287 16.0727)
(-24.8329 -2.49951 0.600994 24.1613 -2.82377 16.8347)
(-28.7511 13.6769 0.27631 370.967 -1.03192 127.135)
(-29.3684 6.30732 0.482657 180.811 -2.61442 57.9853)
(-29.8846 7.11289 0.512002 166.031 -3.63004 54.5571)
(-30.4297 5.76136 0.492746 119.43 -4.17208 39.8151)
(-30.7116 3.96999 0.461706 80.5961 -4.29433 28.278)
(-30.4808 1.87473 0.432509 49.8859 -4.0681 19.8691)
(-29.1935 -0.294555 0.40527 33.2659 -3.47653 16.8913)
(-24.8111 -2.58735 0.397369 25.0872 -1.99083 17.3948)
(-29.0705 13.605 0.143168 369.779 -0.955895 127.454)
(-29.6704 6.25795 0.26997 180.282 -1.62361 59.5073)
(-30.1704 7.06525 0.288311 165.956 -2.13105 56.2797)
(-30.6945 5.72361 0.278412 119.659 -2.40161 41.3771)
(-30.9513 3.93574 0.260969 80.9849 -2.46721 29.516)
(-30.6809 1.83474 0.244037 50.348 -2.35659 20.7893)
(-29.3246 -0.348758 0.227103 33.7966 -2.04163 17.601)
(-24.8033 -2.64263 0.220829 25.6733 -1.18813 18.0009)
(-29.2195 13.562 0.0436505 369.108 -0.368864 127.52)
(-29.8094 6.23139 0.0858175 180.023 -0.550279 60.1419)
(-30.2993 7.03977 0.0917964 165.92 -0.703874 57.036)
(-30.8117 5.70363 0.0886331 119.772 -0.785509 42.0937)
(-31.0564 3.91779 0.0830143 81.1722 -0.805927 30.1138)
(-30.7682 1.81285 0.0774848 50.5666 -0.772814 21.2646)
(-29.3709 -0.379476 0.0712246 34.0487 -0.674533 18.0014)
(-24.7684 -2.66618 0.0677657 25.9665 -0.397943 18.381)
(29.9746 57.9304 -2.20382 232.314 1.70312 -11.5761)
(-67.9134 28.4573 -4.66549 88.353 -1.34975 -8.47959)
(-46.381 36.7488 -5.77412 101.241 -1.24055 -5.77644)
(-47.6572 32.2145 -6.37014 67.8842 -0.944882 -4.04228)
(-43.3853 27.7551 -6.72853 44.6381 -0.678949 -3.19239)
(-41.7053 21.4072 -6.98395 23.6265 -0.619639 -3.03348)
(-41.0894 14.596 -7.30763 10.3113 -0.800076 -3.42052)
(-48.1825 9.06239 -8.16847 -0.468076 -1.06461 -4.29054)
(-6.16991 43.3877 -1.59685 44.4221 -0.488971 -10.5168)
(-34.6109 61.8187 -3.17954 25.0481 -1.39006 -9.19848)
(-34.7145 64.2132 -3.82886 25.1769 -1.31765 -7.58206)
(-34.0498 58.9133 -4.14134 15.0844 -0.954692 -6.41824)
(-32.3717 50.8302 -4.31231 7.24766 -0.563743 -5.81474)
(-31.5175 40.7429 -4.47774 0.246856 -0.317127 -5.67769)
(-31.8926 29.9271 -4.8225 -4.4953 -0.253286 -5.87387)
(-39.6864 17.6553 -5.9355 -7.95151 -0.26823 -6.09568)
(-22.5328 37.301 -1.46972 -74.0101 -0.211857 -9.78913)
(2.0857 57.3092 -2.7725 -41.4501 -1.20989 -9.32236)
(-0.970883 60.5998 -3.32333 -40.8074 -1.24956 -8.28179)
(-2.59073 56.212 -3.48905 -31.7729 -0.954787 -7.43566)
(-4.84697 49.0473 -3.55715 -24.9608 -0.555645 -6.9838)
(-6.58852 40.0001 -3.66247 -18.9074 -0.237766 -6.87979)
(-8.12692 29.6786 -3.98219 -14.1283 -0.0583408 -7.04207)
(-6.68079 16.0916 -5.04524 -7.73668 0.0145724 -7.23345)
(-56.0806 36.6198 -1.58125 -235.321 2.32004 -8.86965)
(33.4725 18.6979 -2.87675 -99.9424 -1.04489 -8.64698)
(12.0077 26.5453 -3.43396 -108.732 -1.21985 -7.77033)
(12.1401 24.3091 -3.6323 -76.7075 -1.0434 -7.02041)
(7.41297 22.2693 -3.68422 -54.2746 -0.661157 -6.61507)
(4.91077 18.6836 -3.76596 -34.0425 -0.307643 -6.4949)
(3.7214 13.9661 -4.05724 -19.7457 -0.0306629 -6.56639)
(7.4343 6.77843 -5.03686 -8.66389 0.222695 -6.77836)
(-6.62098 -8.9439 -0.930094 -335.864 -33.2063 -116.537)
(-5.35995 -4.03192 0.526966 -169.021 8.31758 -26.8479)
(-4.3265 -5.21005 0.493753 -160.711 4.86701 -37.7983)
(-3.59262 -4.00791 0.69513 -112.031 8.29162 -25.2673)
(-3.14669 -2.84631 0.780853 -75.3567 8.28926 -19.9266)
(-2.69484 -1.60955 0.92518 -44.2829 7.83552 -15.4102)
(-1.83659 -0.83225 1.1562 -23.286 6.39786 -13.6428)
(0.526716 -1.35751 1.43297 -12.635 2.67106 -14.3006)
(-7.62618 -9.40881 -0.982096 -328.278 -21.7927 -122.358)
(-7.23808 -4.90405 -0.352738 -188.742 1.9848 -43.6349)
(-6.85353 -5.30315 -0.122632 -161.975 8.80929 -39.1416)
(-6.47281 -4.1137 0.0654941 -114.843 12.3745 -28.9806)
(-6.16059 -2.77456 0.20177 -76.1517 13.286 -23.1017)
(-5.77153 -1.41559 0.330239 -44.6588 12.5975 -19.1754)
(-4.88647 -0.437407 0.46366 -22.8602 10.333 -17.3809)
(-2.14579 -0.861289 0.582813 -12.8546 5.44682 -18.299)
(-8.31207 -9.7844 -0.672263 -331.993 -11.3801 -132.441)
(-8.14065 -5.02331 -0.391426 -188.498 1.45804 -57.6124)
(-7.98441 -5.36889 -0.17642 -163.338 7.03472 -49.5366)
(-7.73578 -4.11864 0.0257365 -116.178 10.3742 -35.8001)
(-7.42862 -2.66517 0.191636 -76.8813 11.6569 -26.7661)
(-6.91829 -1.19688 0.333124 -44.8636 11.3939 -20.3927)
(-5.85107 -0.123424 0.436077 -22.4537 9.64755 -16.5734)
(-3.18939 -0.369272 0.418418 -11.5384 5.06031 -14.8877)
(-8.79574 -9.83684 -0.410653 -332.831 -5.2918 -138.299)
(-8.6728 -5.01713 -0.282053 -187.653 1.5761 -67.6617)
(-8.63151 -5.35176 -0.103059 -163.461 5.29633 -58.4351)
(-8.4382 -4.06328 0.0754943 -116.662 7.78779 -42.3362)
(-8.10302 -2.54153 0.230321 -77.2924 8.98999 -30.7106)
(-7.46218 -1.00074 0.352779 -44.9975 9.03276 -22.0388)
(-6.25904 0.141167 0.420112 -22.0527 7.85435 -16.201)
(-3.60712 -0.0124529 0.370305 -10.7821 4.21077 -12.6508)
(-9.1363 -9.73602 -0.234939 -331.74 -2.10599 -141.041)
(-9.02027 -4.96297 -0.172267 -186.848 1.54366 -73.806)
(-9.00765 -5.28701 -0.0291084 -163.077 3.91272 -64.3482)
(-8.81956 -3.97754 0.113545 -116.565 5.59008 -47.0888)
(-8.44499 -2.4176 0.238318 -77.2699 6.50655 -33.8727)
(-7.72698 -0.835557 0.329538 -44.8447 6.64945 -23.5913)
(-6.44469 0.347001 0.366041 -21.5571 5.88068 -16.2569)
(-3.8095 0.244548 0.305238 -10.1348 3.18209 -11.4241)
(-9.36004 -9.59868 -0.124557 -330.077 -0.612637 -142.138)
(-9.23827 -4.89685 -0.0911534 -186.122 1.27976 -77.3237)
(-9.21797 -5.21118 0.0140198 -162.57 2.72128 -67.9275)
(-9.01367 -3.89156 0.117449 -116.257 3.77272 -50.1407)
(-8.59371 -2.31243 0.205987 -77.0231 4.38568 -36.0454)
(-7.84162 -0.710757 0.266186 -44.5579 4.51699 -24.8066)
(-6.52578 0.490499 0.282802 -21.0915 4.0315 -16.5363)
(-3.90566 0.413679 0.226552 -9.67242 2.19727 -10.9856)
(-9.48958 -9.48558 -0.057899 -328.637 -0.0583043 -142.483)
(-9.36223 -4.8423 -0.0405678 -185.56 0.837495 -79.1892)
(-9.3254 -5.14901 0.0235704 -162.137 1.61282 -69.9077)
(-9.09656 -3.82604 0.0856166 -115.953 2.18767 -51.8978)
(-8.65784 -2.23849 0.13733 -76.7693 2.53351 -37.3668)
(-7.89122 -0.62847 0.171118 -44.2972 2.61633 -25.6163)
(-6.55925 0.57899 0.177405 -20.744 2.34474 -16.8244)
(-3.96829 0.515696 0.137658 -9.37855 1.28269 -10.9182)
(-9.54447 -9.42408 -0.0164723 -327.831 0.0277482 -142.552)
(-9.4134 -4.81255 -0.0109986 -185.251 0.290478 -79.9857)
(-9.36442 -5.11561 0.0104558 -161.889 0.535059 -70.777)
(-9.13064 -3.79187 0.0308428 -115.777 0.717809 -52.6954)
(-8.68551 -2.2008 0.0476941 -76.6221 0.829155 -37.9876)
(-7.91136 -0.587694 0.0585845 -44.1506 0.856781 -26.0176)
(-6.57104 0.620153 0.0601506 -20.5622 0.768928 -16.9971)
(-4.00875 0.562791 0.045554 -9.24335 0.421289 -10.9564)
(-51.1839 10.3742 -2.96436 -4.91401 -1.50839 -3.81482)
(-46.2821 9.52583 -0.737316 -3.5163 -1.26348 0.0461247)
(-46.6137 9.42131 -1.18816 -2.42465 -0.901985 -3.26711)
(-46.8079 9.43952 -1.44132 -1.56809 -0.638798 -4.41455)
(-47.3481 9.50477 -1.45578 -0.929913 -0.447436 -4.90118)
(-47.7762 9.56751 -1.18964 -0.475966 -0.302424 -4.78715)
(-48.0687 9.61491 -0.771885 -0.193437 -0.183535 -4.53536)
(-48.2382 9.63715 -0.268166 -0.111593 -0.0644104 -4.39149)
(-44.0876 7.66462 -5.14517 -5.92895 -0.175665 -10.9237)
(-39.8826 6.45741 -4.29715 -5.19027 -0.128806 -10.1861)
(-39.93 6.15079 -4.1015 -4.41355 -0.0154197 -10.097)
(-40.794 6.07543 -4.01648 -3.77253 0.05187 -9.75185)
(-41.7107 6.06681 -3.58288 -3.29702 0.0709703 -9.54104)
(-42.3978 6.07574 -2.7829 -2.95998 0.062535 -9.33754)
(-42.832 6.0895 -1.75027 -2.73928 0.0409847 -9.17635)
(-43.0262 6.10465 -0.596296 -2.61609 0.0142198 -9.07754)
(-6.20416 5.13621 -4.98988 -6.7093 0.404405 -5.98567)
(-8.47324 4.09001 -5.49737 -6.13671 0.380648 -7.48914)
(-10.0427 3.75685 -5.33644 -5.53145 0.37467 -5.803)
(-11.5139 3.64443 -4.89443 -5.04158 0.338463 -4.3835)
(-12.6058 3.60161 -4.14554 -4.68266 0.276757 -3.53626)
(-13.3378 3.58379 -3.12545 -4.43115 0.202671 -3.13672)
(-13.78 3.57649 -1.93511 -4.2686 0.12433 -2.97896)
(-13.9852 3.57287 -0.654739 -4.18028 0.0424258 -2.9271)
(8.35155 4.40353 -3.33218 -6.28158 0.741915 -8.25225)
(4.25726 3.44185 -3.39702 -5.83085 0.523427 -11.3291)
(2.93302 3.05663 -3.33477 -5.44311 0.428308 -7.65953)
(1.75118 2.89658 -2.91181 -5.1045 0.352523 -5.27533)
(1.01552 2.81197 -2.38351 -4.84819 0.275597 -3.91314)
(0.511064 2.76588 -1.7549 -4.66744 0.196364 -3.39327)
(0.201885 2.74062 -1.07436 -4.55014 0.116971 -3.26882)
(0.0475245 2.72675 -0.362229 -4.49698 0.0386346 -3.27516)
)
;
    }
    symmetry
    {
        type            symmetryPlane;
    }
    bottom
    {
        type            calculated;
        value           nonuniform List<symmTensor> 
32
(
(177.368 73.4663 2.84547 268.306 77.8745 177.7)
(174.583 80.3117 1.50495 263.155 37.5987 172.073)
(178.698 83.2282 0.715198 269.281 17.2869 175.403)
(180.686 83.8273 0.294665 272.343 7.08056 177.222)
(181.162 83.6014 0.0928546 273.126 2.23799 177.696)
(181.03 83.1919 0.00947357 272.972 0.229442 177.595)
(180.754 82.8498 -0.0130124 272.582 -0.316401 177.347)
(180.568 82.6631 -0.00708402 272.313 -0.17262 177.176)
(32.6871 31.9754 0.396922 48.4024 22.6669 32.4086)
(34.4929 39.2721 0.247789 50.7057 11.5334 33.722)
(36.7183 39.7403 0.112621 54.0475 5.18815 35.8703)
(37.6228 38.7739 0.0404371 55.482 1.91052 36.8041)
(38.0023 37.7076 0.00801079 56.1252 0.389301 37.2264)
(38.1668 36.873 -0.00362184 56.4266 -0.18002 37.425)
(38.2376 36.3287 -0.00512442 56.567 -0.258537 37.5176)
(38.2639 36.0635 -0.00212979 56.6228 -0.108245 37.5543)
(-48.8948 27.3025 -0.375678 -73.4735 -23.7296 -49.0005)
(-44.7131 34.4016 -0.269424 -67.6571 -13.5439 -45.2913)
(-45.2207 34.3503 -0.152781 -68.4069 -7.68906 -45.8691)
(-45.442 33.0109 -0.0816383 -68.6581 -4.27484 -46.0619)
(-45.38 31.7078 -0.0420839 -68.4945 -2.2944 -45.9585)
(-45.1943 30.7249 -0.0207193 -68.1673 -1.16593 -45.7396)
(-45.0085 30.0926 -0.00923048 -67.8593 -0.530418 -45.5321)
(-44.8981 29.7868 -0.00259132 -67.6801 -0.150449 -45.4111)
(-181.358 52.1962 -2.37292 -267.505 -71.1176 -179.866)
(-173.474 57.4012 -1.36005 -256.847 -37.2778 -174.685)
(-177.186 58.2638 -0.706367 -262.262 -19.0215 -179.119)
(-178.616 57.6083 -0.339979 -264.244 -9.24997 -180.679)
(-178.507 56.6437 -0.15029 -263.991 -4.15922 -180.543)
(-177.843 55.795 -0.058746 -262.96 -1.6514 -179.826)
(-177.176 55.2014 -0.0189461 -261.949 -0.538604 -179.118)
(-176.784 54.9016 -0.00388153 -261.361 -0.110982 -178.705)
)
;
    }
}


// ************************************************************************* //
