/*--------------------------------*- C++ -*----------------------------------*\
| =========                 |                                                 |
| \\      /  F ield         | foam-extend: Open Source CFD                    |
|  \\    /   O peration     | Version:     3.1                                |
|   \\  /    A nd           | Web:         http://www.extend-project.de       |
|    \\/     M anipulation  |                                                 |
\*---------------------------------------------------------------------------*/
FoamFile
{
    version     2.0;
    format      ascii;
    class       volSymmTensorField;
    location    "2.2";
    object      sigma;
}
// * * * * * * * * * * * * * * * * * * * * * * * * * * * * * * * * * * * * * //

dimensions      [1 -1 -2 0 0 0 0];

internalField   nonuniform List<symmTensor> 
256
(
(150.54 55.829 -2.41531 342.145 25.9916 174.804)
(18.1659 48.5383 -7.14724 67.5359 9.55475 25.8026)
(-47.2025 45.1182 -7.26534 -93.2249 -12.3527 -46.9866)
(-170.51 46.6409 -3.02729 -349.16 -30.6498 -184.58)
(-69.901 23.4757 -2.89102 96.3822 -10.1914 -22.0467)
(-31.5038 60.557 -11.4133 34.9011 -4.35399 -10.8774)
(-4.70262 59.3128 -11.7663 -46.1819 2.05704 -5.55576)
(31.4112 22.949 -4.34515 -110.398 6.95862 5.16957)
(-28.4336 27.6909 -1.33779 120.002 -5.66956 19.2717)
(-32.7922 57.4448 -8.0716 31.4008 -2.25211 -6.42727)
(-9.11829 57.5382 -8.37425 -40.7298 0.247002 -9.25814)
(-7.76607 28.124 -2.89574 -125.676 3.41023 -28.6878)
(-38.2759 23.6814 -1.39755 79.0929 -7.38003 7.50624)
(-33.7871 51.4537 -6.84741 20.4881 -2.54378 -7.42331)
(-8.87993 51.9021 -7.04037 -28.9637 1.0211 -6.32892)
(1.44119 24.6348 -3.01364 -83.0116 5.77417 -14.4689)
(-35.3099 20.1457 -1.11639 53.8434 -6.55329 7.56413)
(-31.9795 43.6433 -5.67781 12.2584 -2.11523 -6.3568)
(-9.98285 44.3288 -5.81458 -20.9113 1.05026 -6.05589)
(-0.981401 21.4597 -2.69623 -56.7975 5.61972 -12.7716)
(-35.4706 15.3237 -1.19996 30.3523 -5.64658 4.93332)
(-30.7535 34.6368 -5.06511 4.59167 -1.8164 -6.21977)
(-10.3104 35.6323 -5.07156 -14.3987 0.978945 -5.77146)
(-0.593763 17.2709 -2.56989 -33.5591 5.2142 -9.84873)
(-34.4447 9.84565 -1.67351 16.3278 -4.72172 5.21551)
(-30.6715 25.1341 -4.95494 -1.27825 -1.78555 -6.24821)
(-10.5593 26.148 -4.75759 -9.91131 0.643088 -6.07067)
(0.028174 12.5454 -2.5997 -17.8413 4.20414 -8.95553)
(-43.6263 5.69518 -2.31582 3.20171 -2.61775 0.753225)
(-41.2425 14.4549 -5.00539 -9.20811 -1.12731 -11.706)
(-6.00947 14.1555 -4.86206 -3.14496 0.0263912 -3.45233)
(5.53895 6.30915 -3.07027 -6.87591 1.65055 -7.27046)
(152.33 61.5186 -1.41076 339.802 15.1857 182.133)
(23.197 55.8335 -5.63009 70.3737 5.20851 31.6331)
(-44.0847 52.8726 -6.15422 -85.0514 -8.51479 -45.5104)
(-165.309 52.8433 -2.73778 -336.223 -20.0933 -184.462)
(-41.5462 23.0625 -1.97327 133.488 -5.29266 11.2738)
(-11.5967 60.7666 -10.4211 56.6445 -2.72144 8.0918)
(-20.7966 60.0708 -11.5984 -65.6659 -0.381143 -22.8987)
(3.69417 23.3874 -4.90187 -147.318 1.38041 -27.2627)
(-22.9271 23.7134 -0.761045 124.229 -9.08287 23.5868)
(-22.5074 51.6742 -8.4126 38.554 -3.59442 0.0604822)
(-13.8796 51.9269 -9.7161 -45.3033 1.45014 -13.6778)
(-11.1422 24.2203 -4.13878 -128.86 6.5764 -31.5093)
(-28.5763 19.3479 0.0616787 86.6941 -10.4091 15.7126)
(-22.7861 44.0942 -6.25672 27.7901 -3.65144 -0.633138)
(-13.4566 44.5321 -7.57471 -32.9848 2.40003 -10.9199)
(-5.51816 20.2068 -3.53081 -88.8204 9.09626 -20.8751)
(-27.9094 15.6559 0.788221 58.0853 -9.98023 13.3016)
(-22.4618 36.1462 -4.56625 17.748 -3.29042 -1.19625)
(-12.718 36.7438 -5.85349 -22.5333 2.73614 -8.87654)
(-5.49729 16.8368 -2.80207 -58.7955 9.67479 -16.6655)
(-28.1278 11.3993 1.06866 34.3857 -8.6701 10.9239)
(-22.0154 28.08 -3.51646 9.42159 -2.80311 -1.63173)
(-12.1877 28.9463 -4.65643 -14.7639 2.5557 -7.7357)
(-4.77802 13.2379 -2.25506 -34.5304 9.04122 -13.5573)
(-27.8303 6.67876 0.836127 19.526 -6.80292 10.6826)
(-23.3696 20.1103 -3.21213 2.20981 -2.36532 -2.84012)
(-11.7474 21.0509 -4.13101 -9.29352 1.8525 -7.183)
(-3.1538 9.50912 -1.95772 -17.1997 7.25037 -11.6092)
(-36.8597 4.13398 0.0700155 6.94576 -3.72533 6.31361)
(-34.9961 11.9183 -3.71779 -6.29194 -1.40565 -9.19037)
(-8.36373 11.5551 -4.78592 -3.64809 0.728092 -5.38246)
(1.01015 4.89507 -2.69458 -7.84621 3.66444 -11.0402)
(156.612 63.6369 -0.934154 346.123 6.79533 192.749)
(25.2423 57.0585 -3.52081 73.4597 1.94217 36.3575)
(-44.4408 53.8797 -3.95832 -84.7862 -5.11499 -47.9259)
(-169.402 54.2215 -1.89795 -340.73 -10.8377 -194.415)
(-41.8942 23.0496 -1.61794 134.356 -3.89263 21.6779)
(-10.0806 60.7756 -6.96281 59.8702 -2.19556 14.4542)
(-22.1278 60.0914 -7.95307 -66.9238 -0.670035 -27.9147)
(1.57402 23.3327 -3.76514 -149.019 0.764035 -39.8308)
(-23.4966 23.008 -1.05543 125.742 -7.29737 29.8891)
(-21.7603 50.503 -6.23467 41.0111 -3.0672 4.31985)
(-14.7586 50.7536 -7.34774 -46.3902 1.13874 -17.0632)
(-13.1717 23.3545 -3.49731 -131.357 5.2741 -40.7714)
(-29.2935 18.3755 -0.410369 87.417 -8.75233 18.583)
(-22.0344 41.8987 -4.82428 29.6202 -3.2216 2.33627)
(-14.2732 42.3341 -5.9449 -33.445 2.24938 -12.9636)
(-7.75814 19.1581 -2.93043 -90.8262 7.83333 -27.1427)
(-29.2364 14.4465 0.164422 57.9204 -8.70076 13.3835)
(-21.7136 33.6426 -3.46194 19.3039 -2.94501 0.960347)
(-13.4199 34.2849 -4.53978 -22.5709 2.75811 -9.88943)
(-7.1518 15.7018 -2.28346 -59.7725 8.76386 -20.0422)
(-29.5953 10.1681 0.46389 33.8524 -7.72148 9.36862)
(-21.2409 25.6999 -2.55986 10.7572 -2.48611 -0.0106769)
(-12.7717 26.6988 -3.51321 -14.4097 2.71942 -7.90953)
(-6.11302 12.2973 -1.74465 -34.7579 8.46468 -14.8166)
(-28.9878 5.49803 0.352515 19.1611 -6.06044 8.31908)
(-22.6258 18.2179 -2.3713 3.31755 -1.9711 -1.68581)
(-12.3431 19.3803 -3.18206 -8.70824 2.10012 -6.69445)
(-4.26577 8.89015 -1.50658 -16.7745 6.98036 -11.1314)
(-38.6093 3.49798 -0.397618 5.66207 -3.09289 2.20588)
(-34.753 10.9327 -3.25164 -5.5773 -1.00454 -8.79726)
(-9.3898 10.6926 -4.28857 -2.94111 0.851393 -4.08823)
(0.668793 4.63397 -2.44278 -6.08493 3.45217 -7.75187)
(158.418 64.0822 -0.499312 348.85 2.20655 198.749)
(25.784 56.721 -2.04085 74.7109 0.285263 38.7622)
(-44.7261 53.2895 -2.33126 -84.5773 -2.97301 -49.4238)
(-170.881 54.0436 -1.16106 -341.86 -5.35177 -199.689)
(-42.5362 22.8649 -0.957304 134.041 -3.18891 29.0251)
(-10.4779 60.5296 -4.28819 60.7244 -1.77448 17.7695)
(-22.5559 59.7844 -4.95786 -66.4989 -0.560513 -30.6495)
(0.813675 23.1121 -2.45175 -148.572 0.820298 -47.9961)
(-23.939 22.8679 -0.772367 126.612 -5.42057 36.0955)
(-22.5656 50.2196 -4.21304 41.8299 -2.33279 6.84781)
(-15.2235 50.4655 -4.96932 -46.161 0.817406 -19.3353)
(-13.9351 23.173 -2.45534 -131.599 3.9512 -47.8351)
(-29.7769 18.1528 -0.419121 88.4998 -6.51997 22.7404)
(-22.8255 41.4208 -3.46701 30.405 -2.44034 4.14287)
(-14.8478 41.8806 -4.21038 -33.2353 1.76469 -14.553)
(-8.585 18.9665 -2.11195 -91.2535 5.946 -32.2935)
(-29.6822 14.1364 -0.0478333 59.0476 -6.62783 15.6791)
(-22.4045 33.0297 -2.59558 20.0898 -2.24726 2.20098)
(-14.0362 33.7471 -3.29051 -22.3269 2.27137 -10.7616)
(-7.95496 15.5357 -1.64879 -60.0998 6.86234 -23.1685)
(-29.9366 9.78668 0.161339 34.9968 -6.02999 10.2798)
(-21.8006 25.0534 -1.99895 11.5243 -1.91249 0.837623)
(-13.3592 26.1967 -2.59873 -14.0692 2.32301 -8.09633)
(-6.86945 12.2079 -1.25106 -34.8643 6.81897 -16.1761)
(-29.0028 5.06641 0.0542639 20.5077 -4.85427 8.40706)
(-23.0913 17.6676 -2.0054 4.04214 -1.51256 -1.10945)
(-12.9832 19.0182 -2.51813 -8.28061 1.85107 -6.26079)
(-4.99526 8.89244 -1.12607 -16.5077 5.75769 -10.9195)
(-38.5785 3.26859 -0.690015 6.85988 -2.57035 1.55521)
(-35.3577 10.6186 -3.07889 -4.8428 -0.776632 -8.35092)
(-10.5484 10.4523 -3.78896 -2.59127 0.776849 -3.09611)
(-0.191885 4.64438 -2.05379 -5.55808 2.89789 -5.99787)
(158.626 63.9012 -0.22698 349.166 0.0732907 201.387)
(25.8918 55.9849 -1.1102 75.2212 -0.399303 39.9752)
(-44.7718 52.3682 -1.29143 -84.0836 -1.67339 -50.1408)
(-170.711 53.4135 -0.662601 -340.677 -2.3848 -201.669)
(-43.1564 22.6012 -0.479247 133.58 -2.5817 33.3804)
(-10.9383 60.0695 -2.47761 61.0908 -1.38061 19.6265)
(-22.8595 59.2817 -2.90485 -65.8398 -0.388062 -32.2778)
(0.310507 22.8538 -1.47454 -147.84 0.845791 -52.9586)
(-24.5753 22.7609 -0.457447 126.855 -3.91133 40.1769)
(-23.2708 50.0425 -2.64994 42.28 -1.6808 8.42124)
(-15.6214 50.3024 -3.13469 -45.6533 0.579157 -20.869)
(-14.2609 23.0841 -1.56727 -131.102 2.89344 -52.4057)
(-30.3986 18.1076 -0.295542 89.1201 -4.61036 25.8659)
(-23.5255 41.3655 -2.31732 30.9533 -1.72265 5.36362)
(-15.3052 41.862 -2.78192 -32.8211 1.28742 -15.7413)
(-8.96932 18.9906 -1.3854 -91.0237 4.27928 -35.9348)
(-30.2254 14.0913 -0.0930169 59.8869 -4.72737 17.7306)
(-23.0285 33.0006 -1.83265 20.7048 -1.58915 3.0946)
(-14.5053 33.7863 -2.25436 -21.959 1.69907 -11.4924)
(-8.35338 15.6301 -1.09853 -59.9697 5.00065 -25.586)
(-30.3692 9.70137 0.0148085 35.9357 -4.38961 11.432)
(-22.3167 25.0091 -1.50918 12.1641 -1.3709 1.50167)
(-13.8089 26.26 -1.8625 -13.7076 1.77111 -8.34271)
(-7.25391 12.3504 -0.854632 -34.684 5.05621 -17.3671)
(-29.2124 4.92386 -0.114018 21.5771 -3.62576 8.99684)
(-23.5553 17.6113 -1.65452 4.64651 -1.10257 -0.604385)
(-13.4831 19.0832 -1.95319 -7.91828 1.42908 -6.05076)
(-5.35465 9.05729 -0.832116 -16.1173 4.33268 -10.9476)
(-38.9551 3.19593 -0.797415 7.64515 -1.95441 1.43894)
(-36.075 10.5805 -2.7126 -4.36013 -0.569094 -8.05541)
(-11.4013 10.4349 -3.15512 -2.28818 0.599809 -2.49777)
(-0.63667 4.72352 -1.65304 -5.04026 2.19185 -4.96381)
(158.267 63.5621 -0.0788865 348.565 -0.659231 202.348)
(25.8661 55.2843 -0.561587 75.4252 -0.546745 40.5679)
(-44.6741 51.5431 -0.669422 -83.4976 -0.896235 -50.408)
(-169.976 52.7721 -0.35245 -338.806 -0.906453 -202.079)
(-43.5426 22.3434 -0.191579 133.241 -1.91869 35.8605)
(-11.2752 59.5787 -1.33304 61.2961 -0.990264 20.6338)
(-23.049 58.7662 -1.5924 -65.208 -0.237251 -33.2126)
(-0.070206 22.621 -0.822589 -147.145 0.730453 -55.851)
(-25.0414 22.6437 -0.220772 126.953 -2.66251 42.6751)
(-23.7455 49.8502 -1.54252 42.5855 -1.13245 9.34804)
(-15.9094 50.1289 -1.83789 -45.15 0.393193 -21.8482)
(-14.4365 23.0046 -0.919281 -130.492 1.99784 -55.1807)
(-30.8526 18.0813 -0.160319 89.5215 -3.06471 27.9614)
(-24.0005 41.3623 -1.42557 31.3514 -1.13439 6.13157)
(-15.6116 41.8927 -1.70253 -32.3917 0.871605 -16.5455)
(-9.16619 19.0351 -0.833748 -90.6157 2.88468 -38.2786)
(-30.6237 14.0971 -0.0648418 60.4743 -3.14698 19.2793)
(-23.4517 33.0833 -1.18867 21.1653 -1.04519 3.70084)
(-14.8034 33.9211 -1.43378 -21.5823 1.16091 -12.0222)
(-8.54771 15.747 -0.674763 -59.6619 3.37707 -27.2461)
(-30.6833 9.69269 -0.0250661 36.614 -2.9636 12.4914)
(-22.6693 25.1029 -1.047 12.6428 -0.913566 1.99252)
(-14.0893 26.4283 -1.24683 -13.3665 1.2192 -8.55925)
(-7.45001 12.5038 -0.545033 -34.3959 3.4425 -18.2873)
(-29.3827 4.86958 -0.14906 22.337 -2.49613 9.74205)
(-23.8873 17.6757 -1.2374 5.08498 -0.748292 -0.201693)
(-13.8039 19.2261 -1.40398 -7.61578 0.986753 -5.97235)
(-5.54163 9.21235 -0.575868 -15.7393 2.97244 -11.1324)
(-39.1933 3.16156 -0.686648 8.30318 -1.3697 1.83282)
(-36.6011 10.6049 -2.10053 -4.00684 -0.391527 -7.78647)
(-11.9652 10.4655 -2.36388 -2.05598 0.412513 -2.21481)
(-0.952563 4.78832 -1.20908 -4.701 1.51049 -4.59935)
(157.835 63.2712 -0.016276 347.843 -0.636385 202.585)
(25.8174 54.778 -0.251702 75.5036 -0.414468 40.8422)
(-44.5468 50.9607 -0.308591 -83.0093 -0.42923 -50.4694)
(-169.254 52.2951 -0.166123 -337.178 -0.265022 -201.928)
(-43.7688 22.1486 -0.0559545 133.01 -1.18389 37.154)
(-11.4846 59.1921 -0.633544 61.4188 -0.596725 21.1461)
(-23.1486 58.3668 -0.772449 -64.7258 -0.123519 -33.7106)
(-0.316951 22.4511 -0.403839 -146.607 0.490421 -57.4148)
(-25.3415 22.5431 -0.0865614 126.988 -1.55519 44.0487)
(-24.0255 49.679 -0.784168 42.7896 -0.654922 9.8522)
(-16.0863 49.9732 -0.942803 -44.7668 0.230379 -22.4193)
(-14.5287 22.938 -0.469742 -129.997 1.17861 -56.7298)
(-31.1452 18.0534 -0.0704374 89.7573 -1.7581 29.1869)
(-24.2813 41.3449 -0.758092 31.6178 -0.644654 6.57227)
(-15.7911 41.8995 -0.904652 -32.0592 0.504442 -17.0327)
(-9.26607 19.0603 -0.43561 -90.2594 1.66928 -39.6447)
(-30.8853 14.1015 -0.0328127 60.8262 -1.80365 20.2535)
(-23.7009 33.1465 -0.659826 21.4711 -0.592997 4.07197)
(-14.971 34.0183 -0.787391 -21.2897 0.67307 -12.3564)
(-8.63928 15.8261 -0.359982 -59.3753 1.95038 -28.259)
(-30.8944 9.69426 -0.025367 37.0199 -1.71318 13.229)
(-22.8772 25.1851 -0.613083 12.9553 -0.523495 2.31468)
(-14.2442 26.5567 -0.715046 -13.1087 0.708198 -8.71081)
(-7.54429 12.6085 -0.301625 -34.1398 1.99404 -18.8965)
(-29.514 4.8431 -0.115003 22.785 -1.46169 10.3248)
(-24.0878 17.7363 -0.763863 5.36514 -0.434853 0.0791574)
(-13.9861 19.3333 -0.847939 -7.39967 0.57291 -5.95512)
(-5.63085 9.31428 -0.340413 -15.4509 1.72735 -11.3277)
(-39.3663 3.14463 -0.457387 8.70603 -0.813977 2.2395)
(-36.9345 10.6323 -1.32068 -3.78633 -0.22988 -7.58941)
(-12.2982 10.4917 -1.46066 -1.89501 0.238917 -2.1021)
(-1.13967 4.82732 -0.738704 -4.47775 0.879729 -4.52974)
(157.572 63.1111 -0.00066495 347.401 -0.248163 202.596)
(25.7861 54.5181 -0.0704825 75.5295 -0.150873 40.948)
(-44.4652 50.6647 -0.0881784 -82.7376 -0.126019 -50.4678)
(-168.834 52.0467 -0.0481002 -336.267 -0.0455539 -201.742)
(-43.8727 22.0454 -0.00943866 132.891 -0.400165 37.6979)
(-11.5838 58.9835 -0.184526 61.4779 -0.199404 21.3585)
(-23.1888 58.1529 -0.22809 -64.467 -0.0378148 -33.9242)
(-0.435293 22.3625 -0.119937 -146.314 0.172185 -58.0941)
(-25.4859 22.4856 -0.0214942 126.997 -0.512343 44.6472)
(-24.1541 49.5791 -0.238066 42.8931 -0.214561 10.0711)
(-16.1682 49.8817 -0.287905 -44.562 0.0760986 -22.6807)
(-14.567 22.8996 -0.142932 -129.725 0.39017 -57.4173)
(-31.2857 18.0346 -0.0193355 89.8662 -0.573875 29.7424)
(-24.4103 41.3271 -0.236336 31.7516 -0.209294 6.77056)
(-15.8727 41.8939 -0.282062 -31.881 0.16516 -17.2607)
(-9.30782 19.0688 -0.134506 -90.0598 0.546966 -40.2683)
(-31.0124 14.1013 -0.0100442 60.9891 -0.588279 20.7146)
(-23.8153 33.1744 -0.210858 21.6227 -0.192358 4.24627)
(-15.0454 34.0626 -0.250336 -21.1327 0.22031 -12.5163)
(-8.67609 15.8628 -0.112722 -59.2118 0.637941 -28.7348)
(-30.9976 9.69429 -0.0104519 37.2064 -0.56112 13.5987)
(-22.9727 25.2259 -0.201841 13.1079 -0.170741 2.47269)
(-14.312 26.6192 -0.233037 -12.9718 0.231832 -8.78729)
(-7.58275 12.6585 -0.0965776 -33.9959 0.652715 -19.1974)
(-29.5809 4.83028 -0.043283 22.9876 -0.482201 10.6342)
(-24.1807 17.7671 -0.258421 5.49986 -0.142955 0.221763)
(-14.0675 19.3849 -0.28394 -7.28758 0.187405 -5.95593)
(-5.6681 9.36177 -0.113012 -15.2992 0.566012 -11.4469)
(-39.4469 3.13821 -0.161014 8.89488 -0.272102 2.4832)
(-37.0915 10.6482 -0.450159 -3.67997 -0.0762347 -7.48497)
(-12.4538 10.5038 -0.494039 -1.81336 0.0782404 -2.06866)
(-1.23196 4.84353 -0.248972 -4.37089 0.288571 -4.54845)
)
;

boundaryField
{
    interface
    {
        type            calculated;
        value           nonuniform List<symmTensor> 
192
(
(-24.2417 -0.0223407 2.18468 354.226 31.656 104.807)
(-23.9825 0.0290036 3.72886 164.169 -12.7672 16.4788)
(-24.0975 -0.0308895 4.4192 164.665 -7.86862 35.4635)
(-24.0615 -0.212337 4.71867 117.111 -10.4356 26.9646)
(-24.131 -0.546733 4.80711 80.9881 -9.41911 23.7317)
(-24.239 -1.079 4.72631 50.0694 -8.11843 19.8573)
(-24.3 -1.98886 4.44897 31.843 -6.49429 19.1603)
(-23.3409 -3.44177 3.84331 22.1233 -3.47437 20.8039)
(-26.8046 0.117846 1.48653 349.021 18.5464 111.098)
(-26.7785 0.206613 2.56792 181.645 -6.61274 31.3606)
(-27.3756 0.143205 3.04377 162.405 -12.0388 34.2704)
(-27.7689 -0.112575 3.23857 116.354 -14.1481 27.7137)
(-27.9999 -0.557562 3.27248 78.2905 -13.6998 23.7242)
(-27.9755 -1.24699 3.17498 47.6501 -11.9539 20.7303)
(-27.4116 -2.39427 2.93181 29.8937 -9.25915 20.8584)
(-24.6879 -4.0745 2.4986 21.8519 -5.00941 23.8995)
(-28.4032 0.144703 1.01631 352.651 8.28205 119.468)
(-28.2318 0.242835 1.76242 179.415 -4.78247 41.6523)
(-28.8792 0.176897 2.06812 162.041 -9.42379 39.7138)
(-29.3198 -0.112095 2.17387 115.792 -11.5619 29.0431)
(-29.5242 -0.619405 2.17359 77.3434 -11.6479 21.992)
(-29.3381 -1.40319 2.09028 46.741 -10.438 17.2037)
(-28.3651 -2.67725 1.92317 29.5683 -8.224 16.5371)
(-24.7773 -4.42796 1.66394 21.3351 -4.27889 18.5734)
(-29.5108 0.139573 0.715725 353.882 2.58853 124.666)
(-29.2229 0.233392 1.25106 177.713 -3.97935 50.0691)
(-29.8385 0.161611 1.46246 162.025 -6.94611 46.651)
(-30.2493 -0.146945 1.52536 116.356 -8.51652 33.4409)
(-30.3935 -0.691983 1.51476 78.0995 -8.7847 23.9768)
(-30.0738 -1.53307 1.4513 47.6537 -8.09043 17.4065)
(-28.8353 -2.88022 1.34048 30.8194 -6.58771 15.6396)
(-24.7388 -4.65798 1.1781 22.5712 -3.58974 16.9753)
(-30.285 0.129503 0.500479 353.335 -0.0438334 127.124)
(-29.9304 0.214071 0.882676 176.602 -3.27981 55.254)
(-30.5073 0.133898 1.03203 161.961 -5.02737 51.6085)
(-30.8795 -0.188272 1.07271 116.871 -6.01109 37.223)
(-30.9684 -0.757099 1.06187 78.9293 -6.2485 26.3405)
(-30.5503 -1.6339 1.01708 48.6438 -5.8794 18.5669)
(-29.1349 -3.027 0.944876 32.0014 -4.93123 16.0173)
(-24.6987 -4.81873 0.839625 23.6865 -2.75175 16.7755)
(-30.8132 0.121005 0.332268 352.179 -0.922615 128.107)
(-30.4198 0.196324 0.590222 175.866 -2.46779 58.1942)
(-30.9715 0.107912 0.691367 161.908 -3.44262 54.7088)
(-31.3097 -0.223925 0.717902 117.254 -4.00583 39.8557)
(-31.3566 -0.80794 0.709955 79.5565 -4.16432 28.2589)
(-30.8706 -1.70718 0.680734 49.3932 -3.97444 19.826)
(-29.3389 -3.12989 0.635347 32.8691 -3.40609 16.8392)
(-24.6752 -4.92985 0.568148 24.5986 -1.94062 17.3371)
(-31.1457 0.115528 0.189099 351.113 -0.854745 128.404)
(-30.733 0.184124 0.337627 175.386 -1.53319 59.7027)
(-31.2687 0.0893077 0.396272 161.857 -2.02091 56.4206)
(-31.5844 -0.249114 0.41131 117.486 -2.30541 41.4126)
(-31.6039 -0.842303 0.406715 79.9403 -2.39197 29.4956)
(-31.0756 -1.75522 0.390352 49.848 -2.30199 20.7468)
(-29.4721 -3.19625 0.364118 33.3913 -2.00022 17.5496)
(-24.6674 -4.99907 0.324084 25.1768 -1.15861 17.9423)
(-31.2996 0.11212 0.0607634 350.508 -0.329887 128.461)
(-30.8768 0.177156 0.108831 175.148 -0.519756 60.3314)
(-31.4025 0.0791981 0.127837 161.831 -0.667526 57.1718)
(-31.7058 -0.262172 0.132613 117.6 -0.754021 42.1267)
(-31.7124 -0.859494 0.131132 80.1251 -0.781323 30.0925)
(-31.165 -1.78006 0.125892 50.0631 -0.754913 21.2219)
(-29.5191 -3.23151 0.116811 33.6393 -0.660936 17.9498)
(-24.6326 -5.02794 0.102486 25.4668 -0.388302 18.3215)
(27.6486 51.7935 -2.74611 224.728 -0.638716 -11.9136)
(-70.9799 23.9414 -4.79906 87.5776 -0.96596 -8.54694)
(-50.0148 31.0523 -5.76117 101.004 -0.984149 -5.83775)
(-51.1585 27.2294 -6.2563 68.912 -0.874437 -4.0568)
(-46.5047 23.6873 -6.54457 46.1909 -0.822851 -3.16886)
(-44.1928 18.3212 -6.74943 25.1666 -0.911788 -2.97723)
(-42.8749 12.1569 -7.03626 11.4695 -1.16069 -3.33746)
(-49.5089 6.79948 -7.83352 0.276446 -1.4769 -4.17483)
(-7.69426 42.4563 -1.74651 44.4683 -0.521968 -10.5851)
(-38.8377 60.405 -3.25121 26.6809 -0.928303 -9.25177)
(-40.2053 62.2416 -3.85319 27.8862 -1.03548 -7.62347)
(-39.7239 57.0345 -4.09734 18.4752 -0.882779 -6.43596)
(-37.5645 49.1763 -4.22262 10.7411 -0.682999 -5.80768)
(-35.7739 39.3707 -4.35556 3.3709 -0.560281 -5.64783)
(-35.0344 28.7306 -4.67228 -2.04777 -0.557679 -5.82312)
(-41.6342 16.2727 -5.74161 -6.4639 -0.604685 -6.01567)
(-23.668 38.5082 -1.33306 -74.3327 -0.369874 -9.72484)
(-1.55727 58.651 -2.69727 -39.93 -0.79794 -9.33824)
(-5.92801 62.1874 -3.27529 -38.17 -0.982562 -8.29105)
(-7.83518 57.4888 -3.48667 -28.4486 -0.867103 -7.43771)
(-9.72862 49.9606 -3.56827 -21.5158 -0.640893 -6.97329)
(-10.6547 40.5487 -3.66976 -15.7947 -0.441742 -6.85709)
(-11.123 29.9263 -3.9765 -11.6751 -0.326172 -7.00663)
(-8.26783 16.1027 -5.04491 -6.35538 -0.278176 -7.18437)
(-56.8984 41.7197 -1.23398 -243.586 -0.345662 -8.60066)
(31.7036 22.5417 -2.68432 -101.032 -0.812501 -8.61979)
(9.57718 31.2974 -3.36132 -109.119 -1.02604 -7.71935)
(9.65762 28.2044 -3.62527 -75.8215 -0.928219 -6.98589)
(5.0563 25.1429 -3.71928 -52.8161 -0.693661 -6.58158)
(2.91653 20.5089 -3.81959 -32.5054 -0.460411 -6.46078)
(2.2361 15.0363 -4.11734 -18.4923 -0.256388 -6.52757)
(6.66519 7.4923 -5.12383 -8.02412 -0.0462109 -6.73173)
(-6.08838 0.349839 0.128446 -354.06 -37.8131 -115.456)
(-5.1644 0.709049 0.329509 -173.992 8.71081 -26.5172)
(-4.07775 0.848333 0.352978 -165.061 5.29425 -37.4298)
(-3.40391 0.751482 0.325957 -114.164 8.7443 -25.1446)
(-3.01023 0.58234 0.355598 -76.3149 8.5971 -19.9016)
(-2.61854 0.441335 0.496692 -44.6037 8.01336 -15.4341)
(-1.79224 0.243375 0.784085 -23.3726 6.50051 -13.6799)
(0.639286 -0.708731 1.2138 -12.7465 2.75406 -14.3402)
(-7.01979 0.163969 -0.264445 -345.395 -24.566 -120.891)
(-6.94567 0.385088 -0.366795 -194.678 2.0547 -43.0825)
(-6.54465 0.503257 -0.430445 -166.37 9.19194 -38.7619)
(-6.23447 0.491421 -0.469189 -117.07 12.761 -28.8351)
(-6.00075 0.44929 -0.434703 -77.1336 13.5585 -23.0751)
(-5.69546 0.459535 -0.305687 -44.9887 12.7525 -19.2023)
(-4.87037 0.458633 -0.0798842 -22.9318 10.413 -17.4204)
(-2.08002 -0.328752 0.242813 -12.9304 5.50302 -18.3369)
(-7.64698 0.0757534 -0.303904 -349.178 -12.8717 -130.77)
(-7.81191 0.214752 -0.422005 -194.123 1.48012 -57.0223)
(-7.64207 0.322633 -0.44058 -167.617 7.30725 -49.1101)
(-7.47527 0.382098 -0.428054 -118.364 10.6677 -35.6097)
(-7.26342 0.453759 -0.362004 -77.8406 11.8755 -26.7074)
(-6.85307 0.584918 -0.228942 -45.1744 11.5238 -20.3972)
(-5.85878 0.681619 -0.0508269 -22.5025 9.71595 -16.5962)
(-3.16513 0.0375883 0.134076 -11.5749 5.09998 -14.9046)
(-8.1013 0.0416563 -0.252061 -349.878 -6.01381 -136.61)
(-8.32444 0.137592 -0.339346 -193.007 1.6111 -67.0945)
(-8.27023 0.241162 -0.322117 -167.575 5.49684 -58.0106)
(-8.16666 0.352321 -0.277621 -118.765 8.00545 -42.1315)
(-7.93822 0.506994 -0.201401 -78.2044 9.15856 -30.6352)
(-7.40875 0.723152 -0.0908932 -45.2739 9.13683 -22.0289)
(-6.28754 0.884915 0.031524 -22.0701 7.90961 -16.2128)
(-3.61338 0.32678 0.147396 -10.7856 4.24031 -12.659)
(-8.43 0.0307915 -0.18296 -348.528 -2.41366 -139.387)
(-8.66164 0.110561 -0.237875 -192.015 1.58989 -73.2742)
(-8.63776 0.217887 -0.204189 -167.051 4.06202 -63.9461)
(-8.54462 0.364916 -0.150099 -118.587 5.74806 -46.8897)
(-8.28395 0.573284 -0.0798745 -78.1328 6.63123 -33.7945)
(-7.6842 0.840642 0.00156582 -45.0863 6.72846 -23.5758)
(-6.48929 1.0414 0.0775166 -21.5454 5.92287 -16.2638)
(-3.83746 0.534764 0.141953 -10.112 3.20339 -11.4298)
(-8.65065 0.0300036 -0.118411 -346.604 -0.719351 -140.523)
(-8.87504 0.107557 -0.148205 -191.163 1.32428 -76.821)
(-8.84544 0.222491 -0.114008 -166.442 2.82663 -67.5477)
(-8.73938 0.393065 -0.0661053 -118.216 3.88096 -49.9523)
(-8.43754 0.632501 -0.0122004 -77.8458 4.47167 -35.9703)
(-7.80722 0.927323 0.0418624 -44.7716 4.5724 -24.7905)
(-6.58142 1.14732 0.085412 -21.0579 4.06135 -16.5418)
(-3.94766 0.671561 0.115303 -9.63146 2.21199 -10.9913)
(-8.78063 0.0319625 -0.0646973 -344.966 -0.0832291 -140.897)
(-8.99739 0.112243 -0.0784078 -190.523 0.86888 -78.7054)
(-8.95288 0.234665 -0.0544087 -165.943 1.67599 -69.5437)
(-8.8242 0.418784 -0.0229576 -117.87 2.25115 -51.7184)
(-8.50564 0.674415 0.00972892 -77.5647 2.584 -37.2956)
(-7.86248 0.983005 0.0404027 -44.4922 2.64916 -25.6011)
(-6.62159 1.21057 0.0625367 -20.6966 2.36256 -16.83)
(-4.0186 0.753171 0.0729825 -9.32639 1.2914 -10.9247)
(-8.83658 0.0334827 -0.0203089 -344.054 0.0253859 -140.98)
(-9.04827 0.116033 -0.0241594 -190.175 0.301713 -79.5111)
(-8.99247 0.24235 -0.0157185 -165.663 0.556143 -70.4209)
(-8.85954 0.43257 -0.00511936 -117.674 0.73875 -52.5207)
(-8.53543 0.695626 0.005672 -77.4039 0.845799 -37.9188)
(-7.88544 1.01015 0.0156346 -44.3363 0.867644 -26.0033)
(-6.63645 1.23914 0.0224485 -20.5081 0.77485 -17.0031)
(-4.0628 0.790312 0.0243248 -9.18595 0.424158 -10.9634)
(-52.5877 8.1676 -2.58366 -4.01956 -1.69079 -3.76499)
(-47.5104 7.49472 -0.433164 -2.70639 -1.32938 0.0505749)
(-47.8202 7.33741 -0.97285 -1.63655 -0.980762 -3.24503)
(-48.01 7.32403 -1.28234 -0.790351 -0.72406 -4.3884)
(-48.5565 7.35245 -1.33772 -0.157446 -0.528804 -4.87515)
(-48.9913 7.38986 -1.10581 0.293397 -0.367215 -4.76409)
(-49.2891 7.42197 -0.720886 0.574283 -0.224936 -4.51538)
(-49.461 7.43865 -0.250876 0.655514 -0.0786692 -4.37326)
(-45.0624 5.97616 -4.98454 -5.30527 -0.427321 -10.8404)
(-40.6759 4.92215 -4.18382 -4.67098 -0.334361 -10.1252)
(-40.6843 4.5909 -4.01995 -3.92824 -0.205678 -10.0455)
(-41.5439 4.46487 -3.95669 -3.30244 -0.129918 -9.7064)
(-42.461 4.41183 -3.53928 -2.8356 -0.0883242 -9.50147)
(-43.1473 4.39037 -2.75241 -2.504 -0.0597319 -9.30353)
(-43.5803 4.38592 -1.73198 -2.28633 -0.0353485 -9.14664)
(-43.7742 4.3926 -0.590177 -2.16406 -0.0116956 -9.0502)
(-6.72766 5.1496 -5.0064 -6.26035 0.162863 -5.9377)
(-8.89315 3.98278 -5.51351 -5.78242 0.127719 -7.44751)
(-10.4195 3.55877 -5.34135 -5.21321 0.134831 -5.76898)
(-11.8686 3.36531 -4.89213 -4.73986 0.12202 -4.35738)
(-12.9445 3.26365 -4.14045 -4.39009 0.0958563 -3.51797)
(-13.6635 3.20672 -3.12044 -4.14409 0.0677055 -3.12517)
(-14.0965 3.17575 -1.93173 -3.98474 0.0413676 -2.97229)
(-14.2967 3.16075 -0.653583 -3.89801 0.0144589 -2.92298)
(7.8399 5.06098 -3.45447 -5.85522 0.564335 -8.23001)
(3.86939 3.89181 -3.49271 -5.5008 0.358778 -11.3184)
(2.60141 3.42623 -3.39069 -5.15687 0.270373 -7.6425)
(1.45364 3.19416 -2.9442 -4.83984 0.215658 -5.26045)
(0.74039 3.06188 -2.40279 -4.59613 0.164357 -3.90288)
(0.251336 2.98274 -1.76669 -4.42287 0.115179 -3.38785)
(-0.0479763 2.93689 -1.08094 -4.30989 0.0676607 -3.26707)
(-0.197233 2.91302 -0.364366 -4.25895 0.0220867 -3.27537)
)
;
    }
    symmetry
    {
        type            symmetryPlane;
    }
    bottom
    {
        type            calculated;
        value           nonuniform List<symmTensor> 
32
(
(176.765 68.389 0 265.147 72.4926 176.765)
(173.391 74.8601 0 260.086 35.0465 173.391)
(177.375 77.4578 0 266.062 16.0884 177.375)
(179.366 77.9547 0 269.049 6.58452 179.366)
(179.876 77.7291 0 269.813 2.08079 179.876)
(179.775 77.3515 0 269.662 0.213335 179.775)
(179.52 77.041 0 269.281 -0.294217 179.52)
(179.346 76.8726 0 269.018 -0.160528 179.346)
(32.1977 31.5488 0 48.2965 22.3645 32.1977)
(33.7264 38.7236 0 50.5896 11.3723 33.7264)
(35.9435 39.1493 0 53.9153 5.11099 35.9435)
(36.8949 38.1822 0 55.3424 1.88136 36.8949)
(37.3215 37.1256 0 55.9822 0.383293 37.3215)
(37.5212 36.3009 0 56.2818 -0.177227 37.5212)
(37.6143 35.7637 0 56.4215 -0.254517 37.6143)
(37.6513 35.5021 0 56.4769 -0.10656 37.6513)
(-49.1544 27.878 0 -73.7316 -24.2298 -49.1544)
(-45.2508 35.0681 0 -67.8763 -13.8063 -45.2508)
(-45.7537 35.0234 0 -68.6306 -7.83971 -45.7537)
(-45.922 33.6601 0 -68.883 -4.35892 -45.922)
(-45.8121 32.3299 0 -68.7181 -2.33941 -45.8121)
(-45.5924 31.3247 0 -68.3886 -1.1887 -45.5924)
(-45.3856 30.6774 0 -68.0785 -0.540725 -45.3856)
(-45.2654 30.364 0 -67.8981 -0.153365 -45.2654)
(-180.702 56.483 0 -271.054 -76.9584 -180.702)
(-173.386 61.9096 0 -260.079 -40.2056 -173.386)
(-177.081 62.9453 0 -265.622 -20.5499 -177.081)
(-178.433 62.2754 0 -267.65 -9.99934 -178.433)
(-178.259 61.2278 0 -267.389 -4.49582 -178.259)
(-177.553 60.2911 0 -266.33 -1.78447 -177.553)
(-176.861 59.6309 0 -265.292 -0.581823 -176.861)
(-176.458 59.2962 0 -264.688 -0.119865 -176.458)
)
;
    }
}


// ************************************************************************* //
