/*--------------------------------*- C++ -*----------------------------------*\
| =========                 |                                                 |
| \\      /  F ield         | foam-extend: Open Source CFD                    |
|  \\    /   O peration     | Version:     3.1                                |
|   \\  /    A nd           | Web:         http://www.extend-project.de       |
|    \\/     M anipulation  |                                                 |
\*---------------------------------------------------------------------------*/
FoamFile
{
    version     2.0;
    format      ascii;
    class       volScalarField;
    location    "2.2";
    object      sigmaEq;
}
// * * * * * * * * * * * * * * * * * * * * * * * * * * * * * * * * * * * * * //

dimensions      [1 -1 -2 0 0 0 0];

internalField   nonuniform List<scalar> 
256
(
209.874
98.0497
94.0805
197.413
154.831
122.125
112.552
137.328
140.107
115.038
105.534
119.61
111.129
101.55
93.2438
89.3848
85.5235
85.4656
78.5979
63.9881
64.1096
68.3376
62.8083
43.1683
50.0323
52.1629
46.2381
28.017
47.0973
40.7213
26.0668
17.7497
206.15
106.899
101.684
189.515
160.851
122.991
114.686
144.245
137.513
105.459
96.8119
117.541
107.665
88.9867
81.0929
86.0604
81.151
72.3094
65.7599
59.3715
60.0874
56.4721
51.3442
38.5654
46.6561
42.5634
37.5042
24.3
44.5483
34.9666
22.0892
15.8391
206.548
108.296
101.656
186.753
159.838
122.555
113.159
140.836
137.5
103.826
93.9501
114.996
107.56
85.8529
76.7601
83.5271
80.941
68.7311
61.1517
56.9429
59.6766
53.0559
47.2438
36.3967
45.99
39.9059
34.5685
22.5347
43.4139
34.0729
20.877
13.3313
206.266
107.665
99.9255
184.365
158.953
122.117
111.526
137.948
137.442
103.699
92.5376
112.61
107.947
85.5934
75.2866
81.4546
81.4679
68.3656
59.7592
55.0521
60.1566
52.6745
46.1215
34.6566
46.3283
39.7284
33.9128
20.9741
43.6468
34.7121
20.789
11.5719
205.515
106.509
97.9992
182.106
158.492
121.532
110
135.904
137.548
103.76
91.6151
110.82
108.505
85.9476
74.7317
79.9378
82.2274
68.8283
59.4604
53.696
60.928
53.1394
46.0209
33.3731
47.0224
40.214
33.9841
19.7843
44.3271
35.5131
20.9472
10.4214
204.669
105.425
96.3917
180.2
158.206
120.939
108.721
134.452
137.677
103.759
90.9172
109.556
108.988
86.2925
74.4495
78.895
82.8795
69.3361
59.4531
52.7827
61.6087
53.6707
46.1692
32.5114
47.666
40.7154
34.1896
18.9826
45.0277
36.1187
21.0356
9.6796
203.994
104.645
95.2809
178.841
158.018
120.475
107.81
133.497
137.771
103.709
90.4203
108.739
109.317
86.5051
74.2692
78.2376
83.3216
69.683
59.483
52.2192
62.0754
54.0438
46.3081
31.9906
48.1207
41.0582
34.3431
18.507
45.5432
36.4928
21.0456
9.22967
203.628
104.244
94.72
178.139
157.92
120.224
107.338
133.02
137.816
103.666
90.1584
108.335
109.477
86.5986
74.1728
77.9174
83.5379
69.8489
59.4976
51.9488
62.3045
54.2258
46.3788
31.7457
48.3462
41.2238
34.4157
18.2873
45.8031
36.6669
21.0311
9.01427
)
;

boundaryField
{
    interface
    {
        type            calculated;
        value           nonuniform List<scalar> 
192
(
337.744
173.078
167.87
125.393
92.9837
66.7662
52.9019
46.0957
330.867
186.692
169.057
128.396
95.2437
69.7973
56.1065
49.0842
333.062
183.215
168.342
128.101
94.8237
68.9868
54.8329
46.1376
334.174
180.98
167.744
128.206
95.2255
69.3913
55.1728
45.9644
334.002
179.87
167.516
128.522
95.8433
70.0659
55.8484
46.3572
333.281
179.293
167.496
128.891
96.4318
70.7166
56.5244
46.9895
332.552
178.971
167.525
129.172
96.8491
71.1768
57.0084
47.492
332.119
178.816
167.543
129.313
97.0539
71.4029
57.2442
47.7426
237.221
144.674
145.196
115.43
90.9242
69.2598
54.4411
51.0502
91.0915
119.206
123.083
111.218
95.4867
77.2568
59.3347
46.3392
89.0064
107.601
112.276
101.916
87.7873
70.9503
52.4788
29.2785
226.778
124.259
123.735
92.6795
68.9245
48.1324
32.4674
21.11
315.085
159.947
147.463
102.781
68.1455
39.7856
21.8924
15.2228
301.238
172.566
147.268
103.828
68.4802
41.0421
24.1451
17.233
300.416
167.249
144.357
101.54
66.4153
39.1474
22.3203
13.7077
299.187
163.45
141.49
99.1061
64.1108
36.6874
19.519
11.0776
297.146
161.103
139.434
97.2611
62.2952
34.569
16.8397
9.00436
295.021
159.578
138.042
96.0071
61.0389
33.0503
14.7662
7.61286
293.36
158.617
137.163
95.2319
60.2595
32.1028
13.4085
6.7773
292.465
158.144
136.734
94.8581
59.8854
31.6517
12.7474
6.39748
50.9905
48.0926
47.2067
47.3304
48.0081
48.7156
49.2487
49.509
39.6665
35.4296
35.713
36.9506
38.0324
38.7598
39.1878
39.3855
12.4619
12.0873
12.1721
12.6297
12.8379
12.7056
12.4486
12.2668
18.4205
16.0804
12.4732
9.95913
8.41344
7.36038
6.64846
6.2711
)
;
    }
    symmetry
    {
        type            symmetryPlane;
    }
    bottom
    {
        type            calculated;
        value           nonuniform List<scalar> 
32
(
193.928
167.371
163.221
162.493
161.948
161.337
160.82
160.529
68.8887
71.909
70.7061
68.7355
66.9597
65.615
64.7381
64.3089
68.5335
69.0874
66.2393
63.1127
60.6364
58.8865
57.7854
57.2558
188.42
154.478
144.888
141.047
138.749
137.098
135.973
135.398
)
;
    }
}


// ************************************************************************* //
