/*--------------------------------*- C++ -*----------------------------------*\
| =========                 |                                                 |
| \\      /  F ield         | foam-extend: Open Source CFD                    |
|  \\    /   O peration     | Version:     3.1                                |
|   \\  /    A nd           | Web:         http://www.extend-project.de       |
|    \\/     M anipulation  |                                                 |
\*---------------------------------------------------------------------------*/
FoamFile
{
    version     2.0;
    format      ascii;
    class       volScalarField;
    location    "2.2";
    object      sigmaCauchyEq;
}
// * * * * * * * * * * * * * * * * * * * * * * * * * * * * * * * * * * * * * //

dimensions      [1 -1 -2 0 0 0 0];

internalField   nonuniform List<scalar> 
256
(
225.539
99.3556
92.1378
181.865
156.416
122.505
111.454
135.003
142.498
115.168
104.586
116.843
112.044
101.416
92.5842
88.0553
85.799
85.2078
78.1507
63.3216
64.0097
68.0297
62.5298
42.9044
49.8253
51.8665
46.078
27.936
46.7427
40.3753
26.0299
17.756
221.359
108.467
99.7236
175.187
163.827
124.058
113.064
140.591
140.063
105.868
95.818
114.715
108.823
89.1276
80.4218
84.6268
81.5658
72.2715
65.3424
58.6883
60.1089
56.3453
51.0984
38.288
46.5455
42.3988
37.3695
24.2066
44.2905
34.7228
22.0455
15.8155
221.944
109.953
99.68
172.506
162.552
123.62
111.556
137.359
139.931
104.22
92.9897
112.243
108.65
85.9862
76.1287
82.1296
81.3163
68.6987
60.7647
56.286
59.6796
52.9427
47.0175
36.134
45.8708
39.757
34.4418
22.4475
43.1397
33.8382
20.8297
13.3136
221.671
109.32
97.9853
170.305
161.415
123.119
109.978
134.688
139.727
104.04
91.6171
109.994
108.955
85.6908
74.6837
80.1335
81.8033
68.3135
59.3891
54.4375
60.1429
52.5528
45.9031
34.4164
46.2056
39.5763
33.7866
20.898
43.374
34.4708
20.7365
11.5577
220.819
108.138
96.1101
168.303
160.781
122.484
108.504
132.805
139.713
104.061
90.7285
108.327
109.442
86.0184
74.1502
78.6894
82.5245
68.7606
59.102
53.1227
60.8946
53.0091
45.8071
33.1554
46.8911
40.0562
33.8576
19.7193
44.0479
35.2628
20.8916
10.4111
219.847
107.031
94.5496
166.64
160.389
121.858
107.269
131.46
139.764
104.036
90.057
107.153
109.876
86.347
73.8846
77.7018
83.1489
69.2585
59.1037
52.2419
61.5597
53.5344
45.9592
32.3119
47.5266
40.5527
34.0633
18.9267
44.7426
35.8615
20.9787
9.67226
219.069
106.234
93.4729
165.461
160.142
121.375
106.387
130.572
139.812
103.972
89.5783
106.393
110.176
86.551
73.7157
77.0802
83.5737
69.6
59.14
51.7
62.0157
53.9038
46.1009
31.8033
47.9751
40.8924
34.2174
18.4573
45.2534
36.2313
20.9883
9.22459
218.648
105.824
92.9296
164.854
160.018
121.116
105.93
130.127
139.836
103.923
89.3257
106.017
110.323
86.6408
73.6251
76.7775
83.7818
69.7636
59.158
51.4402
62.2396
54.0841
46.1731
31.5645
48.1974
41.0565
34.2904
18.2407
45.5108
36.4034
20.9738
9.0104
)
;

boundaryField
{
    interface
    {
        type            calculated;
        value           nonuniform List<scalar> 
192
(
356.863
177.788
172.043
127.425
93.8078
66.9513
52.8649
45.9951
348.417
192.01
173.152
130.403
96.0277
69.964
56.0591
48.9853
350.274
188.028
172.195
129.988
95.5519
69.1298
54.7734
46.0282
351.121
185.379
171.333
129.952
95.882
69.4993
55.0994
45.8558
350.696
184.005
170.912
130.158
96.4404
70.1424
55.7603
46.2483
349.756
183.267
170.769
130.453
96.9867
70.7687
56.4231
46.8788
348.869
182.853
170.727
130.691
97.3779
71.2126
56.8975
47.3794
348.354
182.657
170.713
130.812
97.5706
71.4308
57.1285
47.6292
247.318
145.479
146.979
115.976
90.9611
68.9894
54.0927
50.585
91.9467
119.121
122.953
110.845
95.0298
76.7873
58.9203
45.9399
87.4588
106.814
111.373
101.254
87.3038
70.6307
52.2853
29.2236
216.483
122.602
121.388
91.5112
68.3124
47.8877
32.3985
21.1294
296.385
154.878
143.162
100.669
67.2044
39.4584
21.7971
15.1994
284.404
166.574
142.877
101.596
67.4744
40.658
24.0026
17.1718
284.036
161.667
140.147
99.3863
65.4495
38.7842
22.191
13.6617
283.163
158.237
137.52
97.079
63.2144
36.3647
19.4145
11.0446
281.455
156.142
135.659
95.3495
61.4661
34.2873
16.7598
8.98128
279.611
154.781
134.403
94.181
60.2624
32.8016
14.7065
7.59632
278.151
153.918
133.609
93.4606
59.5173
31.8761
13.3629
6.76476
277.361
153.492
133.221
93.1132
59.16
31.4358
12.7091
6.38681
50.4879
47.6718
46.7879
46.912
47.5821
48.2815
48.8083
49.0649
39.3216
35.1531
35.4377
36.6622
37.7318
38.4511
38.8744
39.0703
12.4396
12.0586
12.1407
12.5952
12.8014
12.6685
12.4117
12.2304
18.4387
16.0763
12.4731
9.95891
8.41232
7.35847
6.64617
6.26869
)
;
    }
    symmetry
    {
        type            symmetryPlane;
    }
    bottom
    {
        type            calculated;
        value           nonuniform List<scalar> 
32
(
206.517
177.964
173.763
173.096
172.542
171.883
171.317
170.996
69.7176
72.8154
71.6546
69.6809
67.8907
66.5317
65.6445
65.21
67.2867
67.9296
65.1173
62.0402
59.6087
57.8936
56.8156
56.2976
175.828
144.605
135.456
131.806
129.674
128.17
127.154
126.637
)
;
    }
}


// ************************************************************************* //
