/*--------------------------------*- C++ -*----------------------------------*\
| =========                 |                                                 |
| \\      /  F ield         | foam-extend: Open Source CFD                    |
|  \\    /   O peration     | Version:     3.1                                |
|   \\  /    A nd           | Web:         http://www.extend-project.de       |
|    \\/     M anipulation  |                                                 |
\*---------------------------------------------------------------------------*/
FoamFile
{
    version     2.0;
    format      ascii;
    class       volVectorField;
    location    "1.1";
    object      D;
}
// * * * * * * * * * * * * * * * * * * * * * * * * * * * * * * * * * * * * * //

dimensions      [0 1 0 0 0 0 0];

internalField   nonuniform List<vector> 
256
(
(0.000585398 0.000385878 0.000675856)
(0.000229065 6.81342e-05 0.000173968)
(0.000204366 -0.000142056 -0.000319994)
(0.000514871 -0.000505525 -0.000903315)
(0.00253679 0.00159945 0.000654517)
(0.00209567 0.000377515 0.00019751)
(0.00201609 -0.000634776 -0.000426793)
(0.00227063 -0.00192226 -0.000918998)
(0.00503946 0.00243603 0.000587435)
(0.00459217 0.000591055 0.000158686)
(0.00447505 -0.00107522 -0.000363879)
(0.00465884 -0.00300015 -0.000817789)
(0.00803695 0.00302414 0.000439105)
(0.00762485 0.00068129 0.00012013)
(0.00747578 -0.0015019 -0.00027376)
(0.00755435 -0.00392223 -0.000612086)
(0.0113433 0.00335062 0.000276874)
(0.0109646 0.000658819 7.7891e-05)
(0.0107898 -0.00189419 -0.000177247)
(0.0107816 -0.00465008 -0.000392291)
(0.0147899 0.00346955 0.000127247)
(0.0144438 0.0005528 3.81843e-05)
(0.0142504 -0.00224657 -9.2543e-05)
(0.0141744 -0.00520992 -0.000194269)
(0.0182398 0.00343712 1.14493e-05)
(0.0179204 0.000393406 4.55807e-06)
(0.0177163 -0.00255253 -2.57396e-05)
(0.0175974 -0.0056259 -3.94627e-05)
(0.0216114 0.00331255 -6.16571e-05)
(0.0212935 0.000209882 -2.21311e-05)
(0.0210828 -0.00281199 2.34343e-05)
(0.020956 -0.00593552 6.06367e-05)
(0.000673782 0.000379172 0.000343042)
(0.000337059 6.54635e-05 8.65419e-05)
(0.000316129 -0.000130087 -0.000197545)
(0.000602493 -0.000467157 -0.000519144)
(0.00275443 0.00155767 0.000390952)
(0.00226232 0.000354255 0.000102088)
(0.00219344 -0.000631533 -0.000290807)
(0.00251657 -0.00190232 -0.000610063)
(0.00525933 0.00241685 0.000372304)
(0.00480853 0.000564065 8.74891e-05)
(0.00469447 -0.0011107 -0.000267897)
(0.00488371 -0.00304176 -0.000572813)
(0.00821875 0.00301095 0.000292533)
(0.00780425 0.000656438 6.8164e-05)
(0.00765345 -0.00154466 -0.000209589)
(0.00772829 -0.00397566 -0.000448727)
(0.0114612 0.00334732 0.000192985)
(0.0110844 0.000641966 4.49358e-05)
(0.0109046 -0.00193268 -0.000142063)
(0.010883 -0.00470014 -0.000300548)
(0.0148399 0.00347379 9.70736e-05)
(0.0144976 0.000544935 2.17145e-05)
(0.0142984 -0.00227329 -8.05128e-05)
(0.0142058 -0.0052458 -0.000162632)
(0.0182315 0.00344627 2.09e-05)
(0.0179186 0.000392473 1.46412e-06)
(0.0177098 -0.00256642 -3.24097e-05)
(0.0175737 -0.00564541 -5.41827e-05)
(0.0215669 0.00332483 -2.78564e-05)
(0.0212563 0.00021326 -1.42087e-05)
(0.0210431 -0.00281661 -1.94823e-06)
(0.020903 -0.00594314 1.22571e-05)
(0.000713546 0.000392969 0.000176208)
(0.000360799 6.87107e-05 4.00945e-05)
(0.000339895 -0.000133738 -0.000123029)
(0.000640965 -0.000480689 -0.000301493)
(0.00285899 0.00154177 0.000220639)
(0.00233075 0.000343514 4.64577e-05)
(0.00226594 -0.000628507 -0.00019077)
(0.00263075 -0.0018971 -0.000386471)
(0.00538299 0.00238773 0.000220272)
(0.00490528 0.000547478 4.06646e-05)
(0.00479314 -0.00111406 -0.000186153)
(0.00501207 -0.00303449 -0.000379656)
(0.0083313 0.00297442 0.000181008)
(0.00789947 0.000637478 3.20998e-05)
(0.00774792 -0.00154938 -0.000152032)
(0.00783875 -0.00396273 -0.000310307)
(0.0115458 0.00331281 0.000126041)
(0.0111581 0.000625839 2.12451e-05)
(0.0109757 -0.00193518 -0.000108163)
(0.0109608 -0.00468317 -0.000218408)
(0.0148899 0.00344767 7.00974e-05)
(0.0145419 0.000534839 9.59213e-06)
(0.0143392 -0.00227133 -6.64149e-05)
(0.0142467 -0.00522559 -0.000129113)
(0.0182503 0.00343283 2.38741e-05)
(0.0179358 0.000389519 -1.5782e-06)
(0.0177236 -0.00255989 -3.42567e-05)
(0.0175832 -0.00562468 -5.85976e-05)
(0.0215666 0.00332556 -7.29806e-06)
(0.0212573 0.000216678 -1.19788e-05)
(0.0210408 -0.00280751 -1.78389e-05)
(0.0208928 -0.00592546 -1.95641e-05)
(0.000729232 0.000401524 9.0211e-05)
(0.000363073 7.0793e-05 1.69792e-05)
(0.000341476 -0.000136175 -7.60715e-05)
(0.000655075 -0.000491315 -0.000174405)
(0.00290606 0.00153737 0.000120493)
(0.00235511 0.000340163 1.7859e-05)
(0.00229129 -0.000624684 -0.000123335)
(0.00268009 -0.00189449 -0.000239699)
(0.00544415 0.0023701 0.000124411)
(0.00494697 0.000540369 1.49502e-05)
(0.00483567 -0.00110776 -0.000125633)
(0.00507548 -0.00301853 -0.000243855)
(0.00839279 0.00294835 0.000105922)
(0.00794687 0.000628252 1.1522e-05)
(0.00779526 -0.00154089 -0.000106428)
(0.00790062 -0.0039371 -0.000206348)
(0.0115976 0.00328505 7.73033e-05)
(0.0112007 0.000617446 7.23567e-06)
(0.0110174 -0.00192431 -7.89302e-05)
(0.0110111 -0.00465212 -0.000151634)
(0.0149268 0.00342453 4.65028e-05)
(0.0145735 0.000530021 2.09769e-06)
(0.0143695 -0.00225803 -5.18604e-05)
(0.0142807 -0.00519266 -9.6382e-05)
(0.0182723 0.00341887 1.95735e-05)
(0.0179556 0.000389804 -4.00851e-06)
(0.0177419 -0.00254463 -3.16168e-05)
(0.0176012 -0.005593 -5.29043e-05)
(0.0215784 0.00332217 -2.06725e-07)
(0.0212687 0.000222022 -1.17687e-05)
(0.02105 -0.00279157 -2.4273e-05)
(0.0208987 -0.00589745 -3.23152e-05)
(0.000735227 0.000406209 4.56782e-05)
(0.000360403 7.21262e-05 6.23581e-06)
(0.000338079 -0.000137497 -4.61745e-05)
(0.000659563 -0.000497431 -9.96722e-05)
(0.00292618 0.0015372 6.38382e-05)
(0.00236095 0.000340375 4.57259e-06)
(0.00229701 -0.000620641 -7.8092e-05)
(0.00269987 -0.00189168 -0.000145556)
(0.0054726 0.00236264 6.75169e-05)
(0.00496262 0.00053935 2.63115e-06)
(0.00485143 -0.00109958 -8.22646e-05)
(0.00510418 -0.00300473 -0.000152282)
(0.0084244 0.00293514 5.90405e-05)
(0.00796856 0.000626279 1.39107e-06)
(0.00781693 -0.00152946 -7.17408e-05)
(0.00793236 -0.00391449 -0.000132399)
(0.0116274 0.00326973 4.46972e-05)
(0.0112235 0.00061589 1.29133e-07)
(0.0110401 -0.00191039 -5.50136e-05)
(0.0110406 -0.00462403 -0.00010067)
(0.0149514 0.00341122 2.83727e-05)
(0.0145938 0.000530515 -1.83595e-06)
(0.0143893 -0.00224222 -3.81728e-05)
(0.0143042 -0.00516222 -6.77184e-05)
(0.0182904 0.00341071 1.30358e-05)
(0.0179714 0.000393416 -5.30747e-06)
(0.0177569 -0.00252754 -2.61792e-05)
(0.0176172 -0.00556274 -4.22049e-05)
(0.0215905 0.00332031 4.78239e-07)
(0.0212797 0.000228855 -1.13848e-05)
(0.0210598 -0.00277406 -2.40729e-05)
(0.0209073 -0.0058692 -3.28234e-05)
(0.00073745 0.000408783 2.25257e-05)
(0.000357357 7.2986e-05 1.72791e-06)
(0.000334462 -0.000138159 -2.68732e-05)
(0.000660571 -0.000500701 -5.51236e-05)
(0.00293423 0.00153848 3.24222e-05)
(0.0023602 0.000341864 -5.45959e-07)
(0.00229585 -0.000617171 -4.71969e-05)
(0.00270688 -0.00188904 -8.47581e-05)
(0.00548504 0.00236079 3.48572e-05)
(0.0049669 0.00054109 -1.97695e-06)
(0.0048555 -0.00109239 -5.10319e-05)
(0.00511601 -0.00299465 -9.06653e-05)
(0.00843982 0.00293033 3.10634e-05)
(0.00797739 0.000628017 -2.38223e-06)
(0.00782563 -0.00151927 -4.54939e-05)
(0.00794742 -0.00389801 -8.04501e-05)
(0.0116436 0.00326355 2.41319e-05)
(0.011235 0.000618088 -2.49385e-06)
(0.0110513 -0.00189798 -3.57844e-05)
(0.0110564 -0.00460312 -6.27415e-05)
(0.0149664 0.00340581 1.57842e-05)
(0.0146056 0.000533946 -3.11821e-06)
(0.0144009 -0.00222823 -2.58888e-05)
(0.0143186 -0.00513893 -4.40118e-05)
(0.0183027 0.00340786 7.2743e-06)
(0.0179818 0.000398649 -5.1751e-06)
(0.0177669 -0.00251252 -1.92816e-05)
(0.0176283 -0.00553875 -2.98996e-05)
(0.0215994 0.00332073 -5.69795e-07)
(0.0212872 0.000235975 -9.73959e-06)
(0.0210665 -0.00275862 -1.96045e-05)
(0.020914 -0.00584585 -2.64602e-05)
(0.00073824 0.000410146 1.02016e-05)
(0.000355156 7.35078e-05 1.9511e-07)
(0.000331884 -0.00013846 -1.39039e-05)
(0.000660523 -0.000502324 -2.74586e-05)
(0.00293715 0.00153987 1.49241e-05)
(0.00235806 0.000343369 -1.5491e-06)
(0.00229334 -0.000614708 -2.51404e-05)
(0.00270886 -0.00188705 -4.38945e-05)
(0.00549006 0.00236115 1.62048e-05)
(0.00496707 0.000543311 -2.46718e-06)
(0.00485542 -0.00108727 -2.76867e-05)
(0.0051203 -0.00298817 -4.77085e-05)
(0.00844685 0.0029295 1.4613e-05)
(0.0079804 0.000630636 -2.58837e-06)
(0.00782848 -0.00151197 -2.50571e-05)
(0.00795394 -0.00388752 -4.29252e-05)
(0.0116519 0.00326208 1.15309e-05)
(0.0112402 0.000621169 -2.42586e-06)
(0.0110564 -0.00188905 -2.00539e-05)
(0.0110643 -0.00458964 -3.40483e-05)
(0.0149748 0.00340463 7.62519e-06)
(0.0146119 0.000537778 -2.57561e-06)
(0.014407 -0.00221812 -1.49292e-05)
(0.0143264 -0.00512359 -2.45629e-05)
(0.0183101 0.00340783 3.33094e-06)
(0.0179878 0.000403472 -3.71376e-06)
(0.0177726 -0.00250165 -1.17281e-05)
(0.0176349 -0.00552255 -1.76315e-05)
(0.0216047 0.00332224 -1.04199e-06)
(0.0212914 0.00024182 -6.59282e-06)
(0.0210702 -0.00274737 -1.26226e-05)
(0.0209179 -0.00582963 -1.67848e-05)
(0.000738477 0.00041074 2.91339e-06)
(0.000354045 7.37561e-05 -5.27084e-08)
(0.000330588 -0.000138572 -4.2858e-06)
(0.000660336 -0.000502985 -8.29215e-06)
(0.00293803 0.0015407 4.29001e-06)
(0.00235663 0.000344254 -6.91558e-07)
(0.00229169 -0.000613442 -7.8746e-06)
(0.00270921 -0.00188599 -1.35407e-05)
(0.00549173 0.00236177 4.67913e-06)
(0.0049665 0.000544711 -1.01055e-06)
(0.00485469 -0.00108464 -8.75592e-06)
(0.00512154 -0.00298501 -1.48424e-05)
(0.00844949 0.00292977 4.24297e-06)
(0.00798115 0.000632361 -1.03694e-06)
(0.00782913 -0.0015082 -7.98588e-06)
(0.00795626 -0.00388244 -1.34498e-05)
(0.0116553 0.00326212 3.37158e-06)
(0.0112421 0.000623186 -9.52731e-07)
(0.0110583 -0.00188442 -6.44816e-06)
(0.0110674 -0.00458308 -1.07599e-05)
(0.0149785 0.00340478 2.23153e-06)
(0.0146145 0.000540165 -9.73579e-07)
(0.0144095 -0.00221287 -4.87098e-06)
(0.0143297 -0.00511603 -7.87285e-06)
(0.0183134 0.00340838 9.1788e-07)
(0.0179904 0.000406306 -1.34407e-06)
(0.0177751 -0.00249597 -3.92867e-06)
(0.0176378 -0.00551444 -5.80676e-06)
(0.021607 0.00332333 -4.96721e-07)
(0.0212931 0.00024511 -2.33165e-06)
(0.0210718 -0.00274146 -4.34085e-06)
(0.0209196 -0.00582138 -5.71917e-06)
)
;

boundaryField
{
    interface
    {
        type            tractionDisplacement;
        gradient        nonuniform List<vector> 
192
(
(0.0600771 0.0732197 0.00328659)
(0.0293857 0.0764925 0.00840247)
(0.0327454 0.102417 0.00805225)
(0.0273278 0.118175 0.00551664)
(0.0233556 0.129093 0.00238671)
(0.0192916 0.133993 -0.000738583)
(0.0163398 0.134571 -0.00316904)
(0.0148945 0.133849 -0.0043766)
(0.0612406 0.0795244 0.002)
(0.0335132 0.077919 0.00548805)
(0.0327857 0.100949 0.00596648)
(0.0276442 0.115978 0.00485698)
(0.0233066 0.126433 0.0031388)
(0.0193036 0.131597 0.00120126)
(0.016401 0.13288 -0.000435676)
(0.0150222 0.133347 -0.00132427)
(0.064233 0.0830208 0.000933004)
(0.0351363 0.0791786 0.0027395)
(0.0339742 0.100488 0.00328834)
(0.0282584 0.114859 0.00307366)
(0.023446 0.124918 0.00230063)
(0.0191684 0.130144 0.00131314)
(0.0161293 0.131802 0.000403843)
(0.0145475 0.133002 -0.000145633)
(0.0661704 0.0847781 0.000368528)
(0.0363927 0.0798571 0.00125395)
(0.0351165 0.100539 0.00162976)
(0.0290475 0.114379 0.00168804)
(0.0238946 0.124172 0.00143639)
(0.0193557 0.129362 0.00101574)
(0.0161442 0.131177 0.000571611)
(0.0143933 0.132729 0.000259024)
(0.0672727 0.0856327 0.000108951)
(0.0372414 0.0802122 0.000513594)
(0.0359384 0.100653 0.000729033)
(0.0296828 0.114233 0.000836246)
(0.0243241 0.123861 0.000797828)
(0.0195998 0.128991 0.000652334)
(0.0162507 0.130842 0.000454208)
(0.0143748 0.132532 0.000280633)
(0.0678797 0.0860391 8.93703e-06)
(0.0377761 0.080382 0.000181026)
(0.0364808 0.10074 0.000291083)
(0.0301295 0.114212 0.000377382)
(0.0246528 0.123754 0.000403699)
(0.0198137 0.128832 0.000370327)
(0.0163737 0.130668 0.000290162)
(0.0144293 0.132396 0.000199341)
(0.0681974 0.0862255 -1.55521e-05)
(0.0380836 0.0804555 4.98876e-05)
(0.0368039 0.10079 9.88991e-05)
(0.0304061 0.114224 0.000149801)
(0.024866 0.123727 0.000179571)
(0.0199618 0.128771 0.000180252)
(0.0164689 0.130584 0.00015122)
(0.0144898 0.132312 0.000107926)
(0.068333 0.0862982 -7.96007e-06)
(0.0382225 0.0804819 8.3552e-06)
(0.036953 0.100812 2.19716e-05)
(0.0305365 0.114236 3.83989e-05)
(0.0249688 0.123724 4.99684e-05)
(0.0200356 0.128751 5.28757e-05)
(0.0165179 0.13055 4.57837e-05)
(0.0145233 0.132271 3.30077e-05)
(-0.00572748 0.0289419 0.0319007)
(-0.0135932 -0.00371215 0.00627569)
(-0.0111984 -0.00249142 0.00933604)
(-0.00824518 -0.00542001 0.00558323)
(-0.00392838 -0.00571402 0.00344668)
(0.000150748 -0.00528757 0.00137534)
(0.00339979 -0.00409371 1.7173e-05)
(0.0055474 -0.00202039 -0.00126412)
(-0.0122295 0.00995313 0.00662777)
(-0.0232685 -6.78411e-05 0.00263538)
(-0.0189428 0.00104706 0.00220494)
(-0.0140322 0.000143344 0.00124175)
(-0.00820195 -0.000439431 0.000653857)
(-0.00295327 -0.000909247 0.000171765)
(0.00130134 -0.00111048 -0.000134381)
(0.00434716 -0.000697215 -0.000861709)
(-0.0133125 -0.017764 -0.00987315)
(-0.0235628 0.00421309 -0.00109461)
(-0.0190942 0.0048801 -0.00214921)
(-0.0138489 0.00604336 -0.00136877)
(-0.00795454 0.00512541 -0.000837742)
(-0.00271649 0.00377239 -0.000213119)
(0.00150019 0.00235856 0.000341939)
(0.00437382 0.0010824 0.0013067)
(-0.00925634 -0.0441222 -0.032082)
(-0.0141774 0.00660304 -0.00490867)
(-0.0119796 0.0073069 -0.00944969)
(-0.00798925 0.0107852 -0.00574653)
(-0.00337182 0.00970373 -0.00368299)
(0.00072602 0.00767837 -0.00149499)
(0.00377887 0.00513181 0.000155794)
(0.00546585 0.00228758 0.00174374)
(0.0474024 -0.0821223 -0.0040765)
(0.0182353 -0.0808555 -0.00962283)
(0.0167909 -0.110439 -0.00996195)
(0.00816604 -0.12494 -0.00696515)
(0.00210877 -0.134321 -0.00342909)
(-0.00254918 -0.137486 7.62086e-05)
(-0.0051006 -0.1368 0.00280623)
(-0.00553533 -0.134657 0.00429559)
(0.046098 -0.0904145 -0.00274936)
(0.0221144 -0.08426 -0.00650579)
(0.0166623 -0.108478 -0.00691683)
(0.00846321 -0.122384 -0.00527617)
(0.00209669 -0.131265 -0.00316719)
(-0.00256428 -0.134847 -0.000986618)
(-0.00517917 -0.134986 0.000751617)
(-0.00554332 -0.134034 0.00178694)
(0.0479496 -0.0956152 -0.00141843)
(0.0233955 -0.086266 -0.00334193)
(0.0179065 -0.107939 -0.00382821)
(0.00929782 -0.12111 -0.00329368)
(0.00250264 -0.129564 -0.00223425)
(-0.00249196 -0.133253 -0.00105669)
(-0.00536895 -0.133797 -2.75415e-05)
(-0.00610165 -0.133418 0.000691457)
(0.0493194 -0.0983144 -0.000646604)
(0.0244714 -0.0873356 -0.00156779)
(0.0189998 -0.108101 -0.00189898)
(0.0101422 -0.120623 -0.00177508)
(0.00302501 -0.128774 -0.00134088)
(-0.00225761 -0.132417 -0.000780534)
(-0.00537258 -0.133089 -0.00023327)
(-0.00634314 -0.132958 0.000212559)
(0.0501278 -0.099622 -0.000263454)
(0.0252273 -0.0879058 -0.00066803)
(0.019767 -0.108326 -0.000853027)
(0.0107636 -0.120519 -0.000858667)
(0.0034485 -0.128467 -0.000710205)
(-0.00203524 -0.132021 -0.000468873)
(-0.0053223 -0.132698 -0.000191692)
(-0.00644623 -0.132639 8.10721e-05)
(0.0505764 -0.100226 -9.21884e-05)
(0.0257118 -0.0881908 -0.000251987)
(0.020262 -0.108494 -0.000341481)
(0.0111714 -0.120543 -0.000371373)
(0.00373745 -0.128374 -0.000333713)
(-0.00186954 -0.131851 -0.00023958)
(-0.00526208 -0.13249 -0.000105737)
(-0.006462 -0.132431 5.21309e-05)
(0.0508091 -0.100489 -2.496e-05)
(0.0259926 -0.0883219 -7.88567e-05)
(0.0205522 -0.108594 -0.000115908)
(0.0114129 -0.120588 -0.000138186)
(0.00391165 -0.128359 -0.0001347)
(-0.00176462 -0.131784 -0.00010215)
(-0.00521521 -0.132385 -4.22318e-05)
(-0.00645007 -0.132308 3.85932e-05)
(0.0509074 -0.100585 -4.03719e-06)
(0.0261201 -0.088372 -1.59046e-05)
(0.0206851 -0.108639 -2.56005e-05)
(0.0115241 -0.120615 -3.32711e-05)
(0.00399233 -0.128363 -3.45691e-05)
(-0.00171464 -0.131762 -2.69888e-05)
(-0.00519033 -0.132342 -9.77859e-06)
(-0.00644085 -0.132251 1.46991e-05)
(0.133283 -0.00583917 -0.000727372)
(0.133277 -0.00582225 -0.000285255)
(0.133232 -0.00526427 -0.000244833)
(0.133109 -0.00490151 -0.000178346)
(0.132962 -0.00466263 -0.000181881)
(0.13284 -0.00454021 -0.000171269)
(0.132755 -0.00448486 -0.000124999)
(0.132711 -0.0044698 -4.57698e-05)
(0.126575 -0.00567924 0.000138714)
(0.126913 -0.0056875 -4.12893e-05)
(0.126935 -0.00555518 -0.000231944)
(0.126774 -0.00540474 -0.000307925)
(0.126535 -0.00528381 -0.000325665)
(0.126321 -0.00520663 -0.000283163)
(0.126172 -0.00516315 -0.000191641)
(0.126098 -0.00514344 -6.7605e-05)
(0.125838 -0.0094332 0.00110344)
(0.126165 -0.00916917 0.000127422)
(0.126069 -0.00922868 -0.00033974)
(0.125813 -0.0092827 -0.000565965)
(0.125511 -0.00931847 -0.000581696)
(0.125258 -0.00933331 -0.000478125)
(0.125086 -0.00933708 -0.000308242)
(0.125002 -0.00933566 -0.000106039)
(0.131461 -0.010828 0.00175194)
(0.131371 -0.0104032 6.60067e-05)
(0.131021 -0.0107975 -0.000590655)
(0.130666 -0.0110532 -0.00088748)
(0.130354 -0.011221 -0.000861576)
(0.130125 -0.0112994 -0.00068099)
(0.12998 -0.0113307 -0.000427144)
(0.129909 -0.0113393 -0.000144929)
)
;
        traction        nonuniform List<vector> 
192
(
(44.2938 -3.35274 -3.35524)
(45.1486 -3.2482 -5.25307)
(45.6498 -4.15698 -5.81055)
(46.2921 -4.53058 -5.87882)
(46.997 -4.62991 -5.71668)
(47.5914 -4.2732 -5.34608)
(47.5725 -3.23859 -4.70718)
(44.9493 -1.26032 -3.62387)
(48.8134 -4.24463 -2.29573)
(50.3175 -3.93914 -3.60568)
(51.6481 -4.8605 -3.9823)
(52.8397 -5.24936 -4.00854)
(53.7592 -5.27681 -3.85203)
(54.1103 -4.72597 -3.52834)
(52.9902 -3.26843 -3.01202)
(47.3706 -0.660009 -2.24118)
(51.5311 -4.72976 -1.56016)
(53.0353 -4.27876 -2.42397)
(54.5293 -5.17566 -2.6533)
(55.8588 -5.53072 -2.65756)
(56.7721 -5.47179 -2.53181)
(56.8586 -4.76883 -2.2927)
(55.0201 -3.05945 -1.93293)
(47.8502 -0.184022 -1.4304)
(53.3753 -5.0073 -1.09009)
(54.8178 -4.46493 -1.68549)
(56.3179 -5.3568 -1.82969)
(57.6549 -5.67251 -1.82101)
(58.4966 -5.54545 -1.72682)
(58.3596 -4.73418 -1.5575)
(56.0522 -2.86633 -1.31208)
(47.9462 0.1543 -0.973283)
(54.6553 -5.17406 -0.757245)
(56.0599 -4.57637 -1.16875)
(57.5304 -5.46643 -1.2609)
(58.8378 -5.75564 -1.24772)
(59.602 -5.58014 -1.17918)
(59.2946 -4.6939 -1.06221)
(56.6699 -2.71923 -0.896555)
(47.9346 0.396331 -0.665799)
(55.5253 -5.27541 -0.500476)
(56.9088 -4.64371 -0.771592)
(58.3486 -5.53299 -0.829009)
(59.6222 -5.80562 -0.8167)
(60.3224 -5.59797 -0.769738)
(59.8932 -4.66148 -0.692822)
(57.0557 -2.61485 -0.585401)
(47.8974 0.564055 -0.434186)
(56.0725 -5.33419 -0.284483)
(57.4425 -4.68235 -0.438137)
(58.8614 -5.57157 -0.469372)
(60.1092 -5.83448 -0.461011)
(60.7649 -5.60718 -0.433637)
(60.2567 -4.6392 -0.389817)
(57.2849 -2.54699 -0.327757)
(47.8648 0.668808 -0.238646)
(56.327 -5.35964 -0.0915588)
(57.6894 -4.69831 -0.140932)
(59.0945 -5.5875 -0.150644)
(60.328 -5.84613 -0.147712)
(60.9615 -5.60943 -0.138785)
(60.4147 -4.62468 -0.124584)
(57.3642 -2.50591 -0.103714)
(47.7979 0.720339 -0.0729249)
(4.84148 -0.248862 25.4778)
(7.87802 0.740468 21.3246)
(8.92089 0.559604 18.5614)
(9.42108 0.475755 17.1232)
(9.72019 0.43406 16.5696)
(9.9347 0.498056 16.7331)
(10.1376 0.70603 17.5871)
(10.6152 1.022 19.0443)
(3.98633 0.196353 22.7742)
(6.72799 0.539761 20.779)
(7.5184 0.383825 19.0244)
(7.85444 0.178767 17.9698)
(8.05504 0.00310959 17.5026)
(8.2292 -0.102769 17.5404)
(8.45056 -0.103876 18.0346)
(9.10878 -0.0376547 18.7678)
(3.7466 0.60708 20.1838)
(6.53158 0.207554 19.173)
(7.37975 0.0462124 17.9556)
(7.72018 -0.235114 17.1406)
(7.89735 -0.468892 16.7579)
(8.03584 -0.644379 16.7718)
(8.21022 -0.737598 17.1874)
(8.80469 -0.734105 18.0214)
(3.83565 0.940173 16.4639)
(6.72813 0.0791526 15.1509)
(7.6762 -0.203124 13.6172)
(8.04453 -0.607309 12.6322)
(8.21835 -0.917881 12.1804)
(8.3264 -1.15967 12.1901)
(8.43799 -1.36913 12.6324)
(8.92866 -1.54386 14.1412)
(-5.44366 1.08996 2.05125)
(-1.91685 0.915889 3.28804)
(0.885124 0.464124 3.60102)
(2.73874 -0.199382 3.70719)
(3.94771 -0.834049 3.78285)
(4.73218 -1.43512 3.84466)
(5.70382 -2.37267 3.89343)
(7.6008 -4.63066 3.76246)
(-6.48556 0.850332 0.925067)
(-5.21918 0.751065 1.58122)
(-3.68499 0.570012 1.69407)
(-2.27857 0.142764 1.68663)
(-1.038 -0.372482 1.6883)
(0.135016 -0.952626 1.71411)
(2.07702 -2.0124 1.76751)
(6.37884 -4.88008 1.84372)
(-6.83041 0.738425 0.583361)
(-6.17087 0.597652 1.07041)
(-5.03022 0.502466 1.18628)
(-3.72071 0.174699 1.19413)
(-2.38618 -0.282147 1.19322)
(-0.917665 -0.850482 1.20593)
(1.59726 -1.97142 1.23341)
(6.90853 -5.07352 1.27507)
(-6.76768 0.702698 0.455867)
(-6.19621 0.523308 0.851044)
(-5.11949 0.431299 0.970075)
(-3.80852 0.126048 0.992342)
(-2.36137 -0.318381 0.994517)
(-0.683468 -0.894031 0.996289)
(2.18818 -2.06749 0.999359)
(8.04418 -5.32429 1.00099)
(-6.60701 0.682982 0.350081)
(-6.04966 0.486442 0.648962)
(-4.97537 0.386491 0.746444)
(-3.63179 0.0804483 0.769736)
(-2.10086 -0.367372 0.771597)
(-0.282808 -0.954919 0.767783)
(2.82162 -2.16829 0.76053)
(9.04393 -5.53644 0.749529)
(-6.44166 0.667265 0.248422)
(-5.88307 0.463987 0.455988)
(-4.79627 0.356277 0.525552)
(-3.42002 0.0439209 0.543671)
(-1.83007 -0.411329 0.544828)
(0.080383 -1.01 0.540098)
(3.33662 -2.2518 0.530989)
(9.80358 -5.69607 0.516788)
(-6.31123 0.655858 0.147637)
(-5.74762 0.449835 0.269289)
(-4.64776 0.336121 0.310152)
(-3.24746 0.0177286 0.321088)
(-1.61964 -0.443963 0.32166)
(0.348804 -1.05103 0.318794)
(3.70078 -2.31344 0.311784)
(10.31 -5.80293 0.29402)
(-6.24549 0.649857 0.0484799)
(-5.67882 0.442567 0.0882495)
(-4.5737 0.3261 0.101483)
(-3.16179 0.0048368 0.105027)
(-1.51625 -0.459581 0.105186)
(0.484627 -1.07172 0.104486)
(3.89136 -2.35197 0.101816)
(10.5082 -5.85017 0.0915126)
(9.40674 -15.696 -0.703665)
(9.5653 -12.7006 -0.579193)
(10.0675 -10.4098 -0.402533)
(10.5426 -8.60447 -0.274395)
(10.9215 -7.24818 -0.188668)
(11.2002 -6.28071 -0.128111)
(11.3821 -5.67031 -0.086401)
(11.4576 -5.46447 -0.0350351)
(7.31201 -16.5489 0.482864)
(6.96039 -14.8468 0.306192)
(7.2207 -13.1814 0.264069)
(7.53161 -11.7747 0.220003)
(7.79217 -10.6934 0.167054)
(7.98866 -9.90757 0.115413)
(8.12465 -9.38448 0.0660289)
(8.20788 -9.09906 0.0208567)
(6.70314 -17.2087 0.845285)
(6.31908 -15.935 0.636528)
(6.50867 -14.6763 0.514424)
(6.75882 -13.5843 0.409282)
(6.97531 -12.7211 0.307293)
(7.14027 -12.0828 0.213607)
(7.25223 -11.6546 0.128313)
(7.31451 -11.4113 0.0437775)
(6.89155 -14.4598 1.1724)
(6.70003 -12.8046 0.858906)
(6.9412 -11.5495 0.65016)
(7.21757 -10.4665 0.503989)
(7.44886 -9.59485 0.375703)
(7.62118 -8.94697 0.259848)
(7.73398 -8.5181 0.154092)
(7.78606 -8.299 0.0516567)
)
;
        pressure        uniform 0;
        value           nonuniform List<vector> 
192
(
(0.00133636 0.00130112 0.000716939)
(0.00290411 0.00255561 0.000759548)
(0.00544878 0.00371624 0.000688088)
(0.00837855 0.00450133 0.000508063)
(0.0116352 0.00496428 0.000306708)
(0.015031 0.00514447 0.000118015)
(0.0184441 0.00511926 -2.81638e-05)
(0.0217975 0.00498566 -0.000116365)
(0.00143929 0.00137323 0.000368042)
(0.00317334 0.00253166 0.000459553)
(0.00566915 0.00367871 0.000446885)
(0.00856431 0.00446068 0.000353246)
(0.0117526 0.00492773 0.000232221)
(0.0150812 0.00511876 0.000112089)
(0.0184365 0.00510727 1.5454e-05)
(0.0217547 0.00499167 -4.44097e-05)
(0.00151646 0.00143073 0.000187871)
(0.00329819 0.0025315 0.000254883)
(0.00580767 0.00364383 0.000261376)
(0.00868453 0.00441015 0.000219428)
(0.0118388 0.00487428 0.000154799)
(0.0151295 0.00507447 8.65116e-05)
(0.0184519 0.00508036 2.89221e-05)
(0.0217485 0.00498808 -9.11847e-06)
(0.00155636 0.00146125 9.48176e-05)
(0.00336097 0.00253558 0.000136167)
(0.0058831 0.00362684 0.000144783)
(0.00875589 0.00437808 0.000127022)
(0.0118963 0.00483719 9.52582e-05)
(0.0151687 0.00504155 5.91995e-05)
(0.0184741 0.00505858 2.67186e-05)
(0.0217584 0.00498129 3.03108e-06)
(0.00157614 0.00147662 4.70401e-05)
(0.0033917 0.00253985 7.02582e-05)
(0.00592183 0.0036208 7.66299e-05)
(0.00879544 0.00436306 6.94935e-05)
(0.0119314 0.004818 5.46701e-05)
(0.0151964 0.00502361 3.65269e-05)
(0.0184935 0.00504623 1.87134e-05)
(0.0217702 0.00497696 3.98615e-06)
(0.00158595 0.00148427 2.26374e-05)
(0.00340643 0.00254326 3.4685e-05)
(0.00594105 0.00362003 3.84957e-05)
(0.00881644 0.00435798 3.57807e-05)
(0.0119518 0.00481048 2.91781e-05)
(0.0152141 0.00501622 2.04133e-05)
(0.0185074 0.00504121 1.09013e-05)
(0.0217797 0.00497569 1.92198e-06)
(0.00159071 0.00148797 1.00072e-05)
(0.0034132 0.00254556 1.55477e-05)
(0.00595011 0.00362103 1.7441e-05)
(0.00882692 0.00435731 1.64855e-05)
(0.0119627 0.00480867 1.37756e-05)
(0.0152244 0.00501427 9.87834e-06)
(0.018516 0.00504012 5.2212e-06)
(0.0217858 0.00497615 3.07093e-07)
(0.00159264 0.00148947 2.81389e-06)
(0.00341581 0.00254672 4.39445e-06)
(0.00595364 0.00362192 4.95378e-06)
(0.0088312 0.00435771 4.72296e-06)
(0.0119674 0.00480867 3.99618e-06)
(0.0152289 0.00501417 2.89248e-06)
(0.0185199 0.00504026 1.49018e-06)
(0.0217885 0.00497672 -8.41233e-08)
(0.000513805 0.000747652 0.00107461)
(0.00236687 0.00155305 0.000732963)
(0.00489948 0.00240489 0.000704136)
(0.00793389 0.00295639 0.000508896)
(0.0112942 0.00327919 0.000319958)
(0.0147918 0.00340346 0.000144439)
(0.0182823 0.00338595 1.16639e-05)
(0.0216807 0.0032873 -7.74586e-05)
(7.61961e-05 0.000192548 0.000256815)
(0.00180481 0.000376667 0.000230452)
(0.00435538 0.000604143 0.000186247)
(0.00744945 0.000683082 0.000135652)
(0.010862 0.000653326 8.60642e-05)
(0.0144069 0.000541434 4.03314e-05)
(0.0179367 0.000379525 2.8783e-06)
(0.0213479 0.000201166 -3.29025e-05)
(3.7959e-05 -0.000364106 -0.000443408)
(0.00172156 -0.000582112 -0.000440476)
(0.00423638 -0.00101422 -0.000390744)
(0.00730267 -0.00142636 -0.00029087)
(0.0106904 -0.00183012 -0.000187719)
(0.0142165 -0.00219941 -9.5207e-05)
(0.0177351 -0.00252305 -2.14654e-05)
(0.0211375 -0.00279846 3.97681e-05)
(0.000399166 -0.00105705 -0.00130434)
(0.00209341 -0.00183973 -0.000980356)
(0.0045091 -0.00290881 -0.00093591)
(0.00745448 -0.00378741 -0.000683918)
(0.0107394 -0.00452878 -0.000438329)
(0.0141835 -0.00511394 -0.000212956)
(0.0176447 -0.00556175 -3.75153e-05)
(0.0210243 -0.00590692 8.24336e-05)
(0.0011074 -0.00153205 -0.000954272)
(0.00249857 -0.00293296 -0.00103928)
(0.00486873 -0.00438064 -0.000942313)
(0.00765642 -0.00548397 -0.000699151)
(0.0108079 -0.00632909 -0.000435155)
(0.0141426 -0.00692849 -0.000193316)
(0.0175337 -0.0073359 -4.38478e-06)
(0.0208868 -0.00761873 0.000114332)
(0.00117872 -0.00159734 -0.000553511)
(0.002793 -0.00295557 -0.000691386)
(0.00509199 -0.00439773 -0.000659273)
(0.00783408 -0.00550547 -0.000514679)
(0.0109092 -0.00634096 -0.000340138)
(0.0141737 -0.00693139 -0.000174965)
(0.0175089 -0.00733273 -4.47875e-05)
(0.0208337 -0.00761857 3.45939e-05)
(0.00124034 -0.00167588 -0.000319224)
(0.0029232 -0.00297542 -0.000428245)
(0.00523591 -0.00438373 -0.000427509)
(0.00795498 -0.00547661 -0.000351478)
(0.0109921 -0.00630272 -0.000246337)
(0.0142156 -0.00689125 -0.000142321)
(0.017516 -0.00729714 -5.89419e-05)
(0.0208165 -0.00759319 -1.09209e-05)
(0.00127157 -0.00172024 -0.000182487)
(0.00298598 -0.00298618 -0.000259297)
(0.00531298 -0.00436979 -0.000267592)
(0.0080274 -0.00544489 -0.000228537)
(0.011049 -0.00626179 -0.000168395)
(0.0142525 -0.00684786 -0.000106139)
(0.017534 -0.00725662 -5.58202e-05)
(0.0208194 -0.00755943 -2.96582e-05)
(0.00128616 -0.00174271 -0.000102965)
(0.00301521 -0.00299051 -0.000153906)
(0.00535126 -0.00435881 -0.000162945)
(0.00806691 -0.00542099 -0.000143133)
(0.0110837 -0.00622986 -0.000109548)
(0.0142788 -0.00681249 -7.35793e-05)
(0.0175507 -0.00722147 -4.46011e-05)
(0.0208267 -0.00752719 -3.181e-05)
(0.00129278 -0.00175352 -5.62759e-05)
(0.00302828 -0.00299143 -8.79079e-05)
(0.00536928 -0.00435083 -9.49339e-05)
(0.00808707 -0.0054048 -8.50922e-05)
(0.0111032 -0.00620779 -6.69129e-05)
(0.0142952 -0.00678706 -4.70066e-05)
(0.0175626 -0.00719487 -3.12214e-05)
(0.0208332 -0.00750124 -2.58086e-05)
(0.00129564 -0.00175843 -2.77706e-05)
(0.00303377 -0.00299108 -4.48803e-05)
(0.00537721 -0.0043456 -4.91573e-05)
(0.0080966 -0.00539487 -4.46525e-05)
(0.0111131 -0.00619413 -3.57321e-05)
(0.0143043 -0.00677089 -2.58397e-05)
(0.0175697 -0.00717736 -1.81594e-05)
(0.0208373 -0.00748349 -1.63024e-05)
(0.00129668 -0.0017603 -8.34261e-06)
(0.00303571 -0.00299064 -1.37395e-05)
(0.00538011 -0.004343 -1.51625e-05)
(0.00810031 -0.00539013 -1.38657e-05)
(0.0111173 -0.00618761 -1.1192e-05)
(0.0143083 -0.00676305 -8.21021e-06)
(0.0175729 -0.00716872 -5.92899e-06)
(0.0208391 -0.00747451 -5.53543e-06)
(0.0232774 0.00323956 -7.07493e-05)
(0.0232328 0.00325205 -3.14221e-05)
(0.023232 0.00325975 -1.03585e-05)
(0.0232423 0.0032609 -2.43606e-06)
(0.0232526 0.00326202 -1.79528e-06)
(0.0232599 0.00326398 -2.71067e-06)
(0.0232641 0.00326618 -2.60448e-06)
(0.0232659 0.00326746 -1.06884e-06)
(0.0228757 0.000138891 -2.03972e-05)
(0.0228427 0.000142166 -1.47249e-05)
(0.022844 0.000147239 -1.48782e-05)
(0.0228534 0.000154463 -1.56177e-05)
(0.0228614 0.000162807 -1.54556e-05)
(0.0228662 0.000170892 -1.32791e-05)
(0.0228685 0.00017728 -8.98834e-06)
(0.0228694 0.000180817 -3.17671e-06)
(0.0226558 -0.00292991 3.72273e-05)
(0.0226201 -0.00293123 -3.55468e-07)
(0.0226167 -0.00292287 -2.20857e-05)
(0.0226227 -0.0029076 -3.13475e-05)
(0.0226286 -0.00289055 -3.13441e-05)
(0.0226322 -0.00287529 -2.5581e-05)
(0.0226338 -0.00286409 -1.64756e-05)
(0.0226343 -0.00285815 -5.66634e-06)
(0.0225992 -0.00607087 8.2536e-05)
(0.0225451 -0.00607318 1.30822e-05)
(0.0225305 -0.00606043 -2.69473e-05)
(0.022532 -0.00603562 -4.34087e-05)
(0.0225367 -0.00600946 -4.35931e-05)
(0.0225405 -0.00598709 -3.49726e-05)
(0.0225427 -0.00597127 -2.21241e-05)
(0.0225435 -0.00596312 -7.53079e-06)
)
;
    }
    symmetry
    {
        type            symmetryPlane;
    }
    bottom
    {
        type            fixedDisplacement;
        value           uniform (0 0 0);
    }
}


// ************************************************************************* //
