/*--------------------------------*- C++ -*----------------------------------*\
| =========                 |                                                 |
| \\      /  F ield         | foam-extend: Open Source CFD                    |
|  \\    /   O peration     | Version:     3.1                                |
|   \\  /    A nd           | Web:         http://www.extend-project.de       |
|    \\/     M anipulation  |                                                 |
\*---------------------------------------------------------------------------*/
FoamFile
{
    version     2.0;
    format      ascii;
    class       volVectorField;
    location    "1.1";
    object      D_0;
}
// * * * * * * * * * * * * * * * * * * * * * * * * * * * * * * * * * * * * * //

dimensions      [0 1 0 0 0 0 0];

internalField   nonuniform List<vector> 
256
(
(0.000670018 0.000402267 0.000764715)
(0.000266555 5.67221e-05 0.000205411)
(0.000230614 -0.000173097 -0.000346969)
(0.000563594 -0.00057742 -0.00100758)
(0.0028446 0.00170511 0.000776729)
(0.00234731 0.00036666 0.000263708)
(0.00224773 -0.000743259 -0.000434992)
(0.00251208 -0.00216407 -0.000990308)
(0.00560711 0.00257733 0.000739965)
(0.00510368 0.00056304 0.000250448)
(0.00496091 -0.00125954 -0.000338278)
(0.0051432 -0.00337293 -0.000854174)
(0.00889209 0.00316888 0.00061007)
(0.00842859 0.000617576 0.000234566)
(0.0082493 -0.00176411 -0.000217122)
(0.00831194 -0.00440917 -0.000610494)
(0.0124937 0.00346911 0.000461439)
(0.0120675 0.000546065 0.000210463)
(0.0118588 -0.00223097 -9.48028e-05)
(0.0118237 -0.00522989 -0.000359127)
(0.0162285 0.00354275 0.000323141)
(0.0158384 0.000384424 0.000185564)
(0.0156081 -0.00265193 9.91455e-06)
(0.015497 -0.00586445 -0.000137398)
(0.01995 0.00345494 0.000218727)
(0.0195895 0.000168518 0.000165235)
(0.0193463 -0.00301839 9.26651e-05)
(0.0191868 -0.0063397 3.45117e-05)
(0.0235719 0.00327338 0.000159156)
(0.0232155 -6.87149e-05 0.000152272)
(0.0229652 -0.00333018 0.000156797)
(0.0227945 -0.00669797 0.00014882)
(0.000766671 0.000392042 0.000392343)
(0.000389094 4.93989e-05 0.000103959)
(0.00036075 -0.000163691 -0.000216751)
(0.000670581 -0.000537252 -0.000586318)
(0.00309692 0.00164424 0.000476565)
(0.00254336 0.000325406 0.000147788)
(0.00245726 -0.000754553 -0.000296462)
(0.00280002 -0.00215802 -0.000661451)
(0.00587058 0.00253719 0.000489586)
(0.00536338 0.000512582 0.000158781)
(0.0052247 -0.00131895 -0.000247308)
(0.00541416 -0.00344025 -0.000600527)
(0.00912216 0.00313341 0.000432768)
(0.00865543 0.000567881 0.000162028)
(0.00847444 -0.00183296 -0.000163213)
(0.00853402 -0.00449102 -0.000448898)
(0.0126615 0.00344439 0.00035079)
(0.0122366 0.000505156 0.000157334)
(0.0120225 -0.00229531 -7.3716e-05)
(0.0119738 -0.0053083 -0.00027662)
(0.0163293 0.00352675 0.000269356)
(0.0159425 0.000353837 0.000149395)
(0.0157057 -0.00270346 5.48469e-06)
(0.0155781 -0.00592779 -0.000119887)
(0.0199938 0.00344502 0.00020639)
(0.0196392 0.000145958 0.000142667)
(0.0193909 -0.00305666 6.8296e-05)
(0.0192148 -0.00638676 3.23766e-06)
(0.0235825 0.00326761 0.000170825)
(0.0232324 -8.61745e-05 0.000140362)
(0.022979 -0.00335976 0.000113153)
(0.0227961 -0.00673458 8.3775e-05)
(0.000811852 0.000406869 0.000206436)
(0.0004183 5.17903e-05 5.08667e-05)
(0.000391765 -0.000168973 -0.000136087)
(0.000719943 -0.000554124 -0.000345327)
(0.00322237 0.00162188 0.000281446)
(0.00263054 0.000306434 7.91057e-05)
(0.00255109 -0.000759294 -0.000193552)
(0.0029422 -0.00216302 -0.000421814)
(0.00602592 0.00249637 0.00030929)
(0.00549034 0.000482317 9.54466e-05)
(0.00535524 -0.00133642 -0.000169285)
(0.0055786 -0.00344919 -0.000399659)
(0.00927306 0.00308154 0.000292981)
(0.00878849 0.00053174 0.000107233)
(0.00860774 -0.0018557 -0.000114894)
(0.00868546 -0.00449784 -0.000311214)
(0.0127887 0.00339278 0.000256812)
(0.0123532 0.000470044 0.000113809)
(0.012137 -0.00231812 -5.3093e-05)
(0.0120959 -0.00531357 -0.00020183)
(0.0164248 0.00348294 0.000216651)
(0.016033 0.000323925 0.000116922)
(0.0157933 -0.00272327 3.70305e-06)
(0.0156661 -0.00593181 -9.8116e-05)
(0.020061 0.003414 0.000184313)
(0.0197055 0.000122837 0.000118821)
(0.0194543 -0.00307312 4.89942e-05)
(0.0192741 -0.00639232 -1.53972e-05)
(0.023634 0.00325111 0.000165639)
(0.0232859 -0.000103094 0.000120863)
(0.0230296 -0.00337482 7.86439e-05)
(0.0228388 -0.00674539 3.6624e-05)
(0.000831101 0.000416291 0.000109959)
(0.000423369 5.35355e-05 2.41083e-05)
(0.00039702 -0.000172444 -8.47702e-05)
(0.000740464 -0.000567747 -0.000203192)
(0.00328365 0.0016156 0.00016425)
(0.00266773 0.000298957 4.15859e-05)
(0.00259098 -0.000760321 -0.000124332)
(0.0030104 -0.00216841 -0.000263789)
(0.00611039 0.0024729 0.000191355)
(0.00555441 0.000467014 5.64932e-05)
(0.00542151 -0.00133943 -0.000112175)
(0.00566889 -0.00344514 -0.000258048)
(0.00936496 0.00304598 0.000193168)
(0.00886594 0.000510809 7.01005e-05)
(0.00868608 -0.00186026 -7.75438e-05)
(0.00878024 -0.00448756 -0.000207561)
(0.0128762 0.00335288 0.000182112)
(0.0124315 0.000447335 8.09746e-05)
(0.0122151 -0.00232321 -3.59092e-05)
(0.0121838 -0.00530081 -0.000140473)
(0.0165014 0.00344607 0.000166453)
(0.0161048 0.000303026 8.90509e-05)
(0.0158643 -0.00272817 3.49583e-06)
(0.0157413 -0.00591971 -7.44633e-05)
(0.0201263 0.00338558 0.000152712)
(0.0197692 0.000105932 9.47125e-05)
(0.0195168 -0.00307782 3.49045e-05)
(0.0193364 -0.00638378 -2.12114e-05)
(0.0236926 0.00323309 0.00014409)
(0.0233447 -0.000115622 9.7828e-05)
(0.0230866 -0.00338021 5.36517e-05)
(0.0228924 -0.00674256 1.0474e-05)
(0.000839546 0.000421606 5.89113e-05)
(0.000422454 5.46768e-05 1.1082e-05)
(0.000395859 -0.000174494 -5.18474e-05)
(0.000749089 -0.000576142 -0.000118473)
(0.00331388 0.00161519 9.49679e-05)
(0.00268269 0.000296918 2.15954e-05)
(0.00260688 -0.000759581 -7.81975e-05)
(0.00304321 -0.00217184 -0.000161787)
(0.00615618 0.00246279 0.00011652)
(0.00558676 0.00046095 3.31729e-05)
(0.0054549 -0.00133779 -7.20407e-05)
(0.00571733 -0.00344066 -0.000162201)
(0.00942018 0.00302728 0.000124437)
(0.00891098 0.000500919 4.52469e-05)
(0.00873179 -0.00185843 -5.02214e-05)
(0.00883737 -0.00447715 -0.000133668)
(0.0129347 0.00332955 0.00012483)
(0.0124832 0.000435383 5.6192e-05)
(0.0122671 -0.00232157 -2.28454e-05)
(0.0122432 -0.00528752 -9.34136e-05)
(0.0165589 0.00342292 0.000121507)
(0.0161582 0.000291233 6.51174e-05)
(0.0159175 -0.00272682 3.57833e-06)
(0.0157985 -0.00590637 -5.27119e-05)
(0.0201808 0.00336651 0.000117481)
(0.0198218 9.59652e-05 7.14036e-05)
(0.0195689 -0.00307689 2.44698e-05)
(0.0193894 -0.00637261 -1.97627e-05)
(0.0237445 0.00321982 0.000114114)
(0.0233958 -0.000123195 7.41292e-05)
(0.0231365 -0.00338016 3.57042e-05)
(0.022941 -0.00673507 -1.58896e-06)
(0.000843454 0.000424629 3.11386e-05)
(0.000420587 5.54128e-05 4.92345e-06)
(0.000393711 -0.00017567 -3.04048e-05)
(0.000752851 -0.000581042 -6.69366e-05)
(0.00332902 0.00161679 5.33911e-05)
(0.00268834 0.000297114 1.09868e-05)
(0.00261276 -0.000758402 -4.6972e-05)
(0.00305913 -0.00217385 -9.52193e-05)
(0.00618108 0.00245986 6.84549e-05)
(0.00560307 0.000459565 1.89993e-05)
(0.00547158 -0.00133517 -4.38764e-05)
(0.00574314 -0.0034376 -9.72632e-05)
(0.00945302 0.00301945 7.65894e-05)
(0.00893704 0.00049744 2.80876e-05)
(0.00875817 -0.00185512 -3.06276e-05)
(0.00887097 -0.00446993 -8.15569e-05)
(0.0129726 0.00331839 8.06536e-05)
(0.0125163 0.000430404 3.68648e-05)
(0.0123003 -0.00231814 -1.34959e-05)
(0.0122815 -0.00527789 -5.82916e-05)
(0.0165992 0.00341095 8.2169e-05)
(0.0161954 0.000285892 4.43032e-05)
(0.0159547 -0.00272357 3.22749e-06)
(0.0158386 -0.00589613 -3.43379e-05)
(0.0202215 0.00335605 8.22497e-05)
(0.0198607 9.12828e-05 4.95021e-05)
(0.0196075 -0.00307399 1.62793e-05)
(0.0194289 -0.00636318 -1.5018e-05)
(0.0237844 0.00321208 8.11995e-05)
(0.0234345 -0.000126752 5.13633e-05)
(0.0231745 -0.00337788 2.25694e-05)
(0.0229786 -0.00672754 -5.26194e-06)
(0.000845316 0.000426287 1.51017e-05)
(0.000419133 5.58573e-05 2.03089e-06)
(0.000392055 -0.000176304 -1.58336e-05)
(0.000754527 -0.000583716 -3.39804e-05)
(0.00333651 0.00161856 2.70706e-05)
(0.00269031 0.000297895 5.15406e-06)
(0.00261474 -0.000757414 -2.49019e-05)
(0.00306674 -0.00217495 -4.97751e-05)
(0.00619422 0.00245987 3.58648e-05)
(0.00561108 0.000459953 9.81249e-06)
(0.00547968 -0.001333 -2.34571e-05)
(0.00575644 -0.00343586 -5.15058e-05)
(0.00947157 0.00301707 4.14939e-05)
(0.00895144 0.000496883 1.53701e-05)
(0.00877266 -0.00185228 -1.63373e-05)
(0.00888964 -0.00446569 -4.36784e-05)
(0.0129954 0.00331407 4.517e-05)
(0.012536 0.000428988 2.09201e-05)
(0.0123201 -0.00231509 -6.95321e-06)
(0.0123042 -0.00527202 -3.16645e-05)
(0.0166247 0.00340583 4.73894e-05)
(0.0162188 0.000284112 2.57083e-05)
(0.0159781 -0.00272056 2.25771e-06)
(0.0158636 -0.00588959 -1.91631e-05)
(0.0202482 0.00335129 4.84362e-05)
(0.0198861 8.96704e-05 2.9025e-05)
(0.0196326 -0.00307116 9.3527e-06)
(0.0194547 -0.00635677 -9.15275e-06)
(0.0238111 0.0032084 4.82155e-05)
(0.02346 -0.000127911 3.00413e-05)
(0.0231995 -0.0033754 1.24494e-05)
(0.0230036 -0.00672195 -4.51472e-06)
(0.000846076 0.000427027 4.50804e-06)
(0.000418387 5.60682e-05 5.47777e-07)
(0.000391207 -0.000176579 -4.89935e-06)
(0.000755177 -0.000584892 -1.03793e-05)
(0.00333962 0.00161963 8.27288e-06)
(0.0026909 0.00029845 1.50982e-06)
(0.0026153 -0.000756876 -7.77945e-06)
(0.00306983 -0.00217544 -1.54403e-05)
(0.00619991 0.00246041 1.11553e-05)
(0.00561439 0.000460501 3.03451e-06)
(0.00548299 -0.00133182 -7.35715e-06)
(0.0057621 -0.00343507 -1.60846e-05)
(0.00947996 0.00301669 1.31348e-05)
(0.00895786 0.000497102 4.89727e-06)
(0.00877909 -0.00185072 -5.1124e-06)
(0.00889797 -0.00446376 -1.37167e-05)
(0.0130061 0.00331284 1.45404e-05)
(0.0125452 0.000428841 6.7851e-06)
(0.0123293 -0.00231337 -2.12632e-06)
(0.0123148 -0.0052693 -1.00124e-05)
(0.016637 0.00340413 1.54742e-05)
(0.0162301 0.000283767 8.42551e-06)
(0.0159893 -0.00271883 8.10756e-07)
(0.0158756 -0.00588645 -6.13921e-06)
(0.0202613 0.00334959 1.59702e-05)
(0.0198985 8.93436e-05 9.55545e-06)
(0.0196448 -0.00306949 3.05457e-06)
(0.0194673 -0.00635358 -3.05485e-06)
(0.0238242 0.003207 1.59508e-05)
(0.0234726 -0.000128087 9.87133e-06)
(0.0232118 -0.00337388 3.9753e-06)
(0.023016 -0.00671903 -1.70447e-06)
)
;

boundaryField
{
    interface
    {
        type            tractionDisplacement;
        gradient        nonuniform List<vector> 
192
(
(0.0012504 8.90088e-08 -6.27537e-06)
(0.00125106 2.32615e-07 -7.48491e-06)
(0.0012496 5.25483e-07 -7.47543e-06)
(0.00124673 8.45864e-07 -7.27339e-06)
(0.00124237 1.23213e-06 -6.95727e-06)
(0.00123606 1.75972e-06 -6.48764e-06)
(0.00122701 2.65546e-06 -5.77696e-06)
(0.00121237 4.4017e-06 -4.57372e-06)
(0.00127836 1.58951e-07 -4.18175e-06)
(0.00127813 3.40733e-07 -4.98588e-06)
(0.00127606 6.81215e-07 -4.94782e-06)
(0.00127234 1.07974e-06 -4.77587e-06)
(0.0012667 1.57845e-06 -4.5173e-06)
(0.00125852 2.26978e-06 -4.14438e-06)
(0.00124668 3.43378e-06 -3.60938e-06)
(0.00122774 5.61186e-06 -2.83028e-06)
(0.0012969 2.0556e-07 -2.92788e-06)
(0.00129628 4.22773e-07 -3.50022e-06)
(0.00129375 8.10625e-07 -3.4639e-06)
(0.00128935 1.27314e-06 -3.32432e-06)
(0.00128271 1.85533e-06 -3.11929e-06)
(0.00127309 2.65704e-06 -2.83373e-06)
(0.00125927 3.97152e-06 -2.44508e-06)
(0.00123752 6.33252e-06 -1.9299e-06)
(0.00131022 2.36666e-07 -2.12187e-06)
(0.00130939 4.82114e-07 -2.53952e-06)
(0.00130652 9.12912e-07 -2.50899e-06)
(0.00130157 1.426e-06 -2.39958e-06)
(0.00129415 2.06871e-06 -2.2415e-06)
(0.00128345 2.94405e-06 -2.02736e-06)
(0.00126819 4.35007e-06 -1.74696e-06)
(0.00124452 6.81512e-06 -1.39307e-06)
(0.00131978 2.59652e-07 -1.51365e-06)
(0.00131882 5.26652e-07 -1.81147e-06)
(0.00131569 9.91037e-07 -1.78752e-06)
(0.00131032 1.54199e-06 -1.7059e-06)
(0.0013023 2.22756e-06 -1.58946e-06)
(0.00129082 3.15197e-06 -1.43486e-06)
(0.00127453 4.6157e-06 -1.23756e-06)
(0.00124954 7.14639e-06 -9.95544e-07)
(0.00132642 2.76131e-07 -1.01788e-06)
(0.00132536 5.58719e-07 -1.21811e-06)
(0.00132204 1.04754e-06 -1.20117e-06)
(0.00131638 1.62535e-06 -1.14496e-06)
(0.00130794 2.34023e-06 -1.06545e-06)
(0.0012959 3.29691e-06 -9.61283e-07)
(0.00127891 4.79762e-06 -8.30326e-07)
(0.00125304 7.37104e-06 -6.71486e-07)
(0.00133063 2.87035e-07 -5.86262e-07)
(0.00132951 5.79709e-07 -7.01327e-07)
(0.00132607 1.08477e-06 -6.91544e-07)
(0.00132021 1.68017e-06 -6.58841e-07)
(0.00131151 2.41383e-06 -6.12817e-07)
(0.00129912 3.39091e-06 -5.5309e-07)
(0.00128169 4.9157e-06 -4.77739e-07)
(0.00125526 7.51474e-06 -3.82182e-07)
(0.00133265 2.92824e-07 -1.90632e-07)
(0.00133149 5.90077e-07 -2.27698e-07)
(0.001328 1.10224e-06 -2.24725e-07)
(0.00132205 1.70638e-06 -2.14081e-07)
(0.00131322 2.44881e-06 -1.99112e-07)
(0.00130067 3.43614e-06 -1.79825e-07)
(0.00128303 4.97701e-06 -1.55001e-07)
(0.00125626 7.58408e-06 -1.20792e-07)
(1.09308e-05 7.23725e-08 0.00114973)
(1.30776e-05 1.27851e-07 0.00114889)
(1.31548e-05 1.98457e-07 0.00114824)
(1.29808e-05 2.92527e-07 0.0011473)
(1.2715e-05 4.04896e-07 0.00114595)
(1.23458e-05 5.36693e-07 0.00114413)
(1.18492e-05 6.86119e-07 0.00114175)
(1.13079e-05 8.03277e-07 0.00113874)
(1.00547e-05 2.11513e-08 0.0010997)
(1.20342e-05 3.77271e-08 0.00109949)
(1.21003e-05 5.67502e-08 0.0010993)
(1.19489e-05 8.24212e-08 0.00109902)
(1.17254e-05 1.12105e-07 0.00109863)
(1.14243e-05 1.44074e-07 0.00109811)
(1.10382e-05 1.71046e-07 0.00109746)
(1.0708e-05 1.6209e-07 0.00109671)
(1.00418e-05 -2.70428e-08 0.00105277)
(1.20188e-05 -4.56996e-08 0.00105298)
(1.20844e-05 -6.9588e-08 0.00105321)
(1.1933e-05 -1.00411e-07 0.00105354)
(1.171e-05 -1.3707e-07 0.001054)
(1.141e-05 -1.80176e-07 0.00105463)
(1.10258e-05 -2.2871e-07 0.00105544)
(1.06983e-05 -2.6355e-07 0.00105648)
(1.09054e-05 -8.04064e-08 0.00100291)
(1.30452e-05 -1.36982e-07 0.00100376)
(1.312e-05 -2.11694e-07 0.00100444)
(1.29457e-05 -3.09713e-07 0.00100544)
(1.26804e-05 -4.27843e-07 0.00100685)
(1.23126e-05 -5.69225e-07 0.00100876)
(1.18188e-05 -7.38586e-07 0.00101129)
(1.12818e-05 -8.99354e-07 0.00101456)
(-0.000903606 -9.63547e-08 6.85177e-06)
(-0.000902881 -2.51564e-07 8.12936e-06)
(-0.000904348 -5.72774e-07 8.11249e-06)
(-0.00090722 -9.20022e-07 7.89131e-06)
(-0.000911576 -1.33875e-06 7.54482e-06)
(-0.000917854 -1.91504e-06 7.02877e-06)
(-0.00092686 -2.91625e-06 6.2435e-06)
(-0.00094155 -4.95238e-06 4.89368e-06)
(-0.000876477 -1.72336e-07 4.42126e-06)
(-0.000876696 -3.68407e-07 5.23941e-06)
(-0.000878763 -7.40343e-07 5.19106e-06)
(-0.000882477 -1.17274e-06 5.00456e-06)
(-0.000888098 -1.71422e-06 4.72407e-06)
(-0.000896245 -2.4707e-06 4.31857e-06)
(-0.000908024 -3.77243e-06 3.7342e-06)
(-0.000927051 -6.30466e-06 2.87503e-06)
(-0.000858904 -2.23527e-07 3.02815e-06)
(-0.000859518 -4.57468e-07 3.59773e-06)
(-0.000862036 -8.80012e-07 3.55226e-06)
(-0.00086643 -1.38156e-06 3.40144e-06)
(-0.000873045 -2.0136e-06 3.18024e-06)
(-0.000882602 -2.89053e-06 2.87178e-06)
(-0.000896351 -4.35875e-06 2.45083e-06)
(-0.000918167 -7.09737e-06 1.88924e-06)
(-0.00084644 -2.57774e-07 2.16159e-06)
(-0.000847264 -5.21851e-07 2.57079e-06)
(-0.000850126 -9.90306e-07 2.53274e-06)
(-0.00085506 -1.54618e-06 2.41474e-06)
(-0.000862449 -2.24345e-06 2.24466e-06)
(-0.000873069 -3.20009e-06 2.01421e-06)
(-0.000888236 -4.76849e-06 1.71208e-06)
(-0.000911949 -7.62329e-06 1.32891e-06)
(-0.000837595 -2.83051e-07 1.52365e-06)
(-0.00083856 -5.70096e-07 1.81175e-06)
(-0.000841682 -1.07445e-06 1.78199e-06)
(-0.000847026 -1.67087e-06 1.69407e-06)
(-0.000854997 -2.41412e-06 1.56902e-06)
(-0.000866396 -3.42352e-06 1.40308e-06)
(-0.00088257 -5.05455e-06 1.19126e-06)
(-0.000907581 -7.98206e-06 9.30362e-07)
(-0.000831511 -3.01135e-07 1.01526e-06)
(-0.000832571 -6.04765e-07 1.20705e-06)
(-0.000835879 -1.13523e-06 1.18601e-06)
(-0.000841519 -1.76034e-06 1.1255e-06)
(-0.000849902 -2.53489e-06 1.04024e-06)
(-0.000861845 -3.57878e-06 9.28656e-07)
(-0.000878708 -5.24964e-06 7.88457e-07)
(-0.000904589 -8.22417e-06 6.17775e-07)
(-0.000827684 -3.13066e-07 5.81157e-07)
(-0.000828802 -6.27424e-07 6.90621e-07)
(-0.00083223 -1.17521e-06 6.7841e-07)
(-0.000838059 -1.81904e-06 6.43226e-07)
(-0.000846706 -2.61357e-06 5.93914e-07)
(-0.000858993 -3.67914e-06 5.30029e-07)
(-0.000876286 -5.37574e-06 4.49542e-07)
(-0.000902707 -8.37837e-06 3.46949e-07)
(-0.000825854 -3.19376e-07 1.88378e-07)
(-0.000827006 -6.38536e-07 2.23531e-07)
(-0.000830489 -1.19398e-06 2.19753e-07)
(-0.000836409 -1.8471e-06 2.083e-07)
(-0.000845182 -2.65092e-06 1.92268e-07)
(-0.000857629 -3.72725e-06 1.71653e-07)
(-0.000875121 -5.44102e-06 1.45178e-07)
(-0.000901879 -8.45211e-06 1.08378e-07)
(1.13077e-05 -0.00113956 -9.86196e-07)
(1.18661e-05 -0.00114323 -8.3836e-07)
(1.23873e-05 -0.00114616 -6.69958e-07)
(1.27835e-05 -0.00114847 -5.21832e-07)
(1.30767e-05 -0.00115024 -3.91006e-07)
(1.32868e-05 -0.00115152 -2.72808e-07)
(1.34306e-05 -0.00115236 -1.66012e-07)
(1.35055e-05 -0.00115283 -5.78898e-08)
(1.07333e-05 -0.00109747 -3.23353e-07)
(1.10861e-05 -0.00109878 -2.9851e-07)
(1.14951e-05 -0.00109989 -2.50886e-07)
(1.18192e-05 -0.0011008 -2.02547e-07)
(1.20647e-05 -0.00110151 -1.55909e-07)
(1.22434e-05 -0.00110204 -1.10734e-07)
(1.23687e-05 -0.0011024 -6.67961e-08)
(1.24387e-05 -0.00110257 -2.25708e-08)
(1.07338e-05 -0.00105712 1.29308e-07)
(1.10872e-05 -0.00105654 1.24779e-07)
(1.1494e-05 -0.00105609 9.54584e-08)
(1.18153e-05 -0.00105577 6.74789e-08)
(1.20582e-05 -0.00105555 4.5425e-08)
(1.22347e-05 -0.00105541 2.87838e-08)
(1.23586e-05 -0.00105532 1.65634e-08)
(1.24277e-05 -0.00105528 5.73912e-09)
(1.13263e-05 -0.00101504 7.95589e-07)
(1.18919e-05 -0.00101212 6.58727e-07)
(1.24086e-05 -0.00100987 5.05786e-07)
(1.27978e-05 -0.00100817 3.78169e-07)
(1.3084e-05 -0.00100692 2.73189e-07)
(1.32882e-05 -0.00100604 1.85436e-07)
(1.34278e-05 -0.00100548 1.12584e-07)
(1.35008e-05 -0.00100515 4.00141e-08)
)
;
        traction        nonuniform List<vector> 
192
(
(26.7942 0.00190733 -0.134472)
(26.8085 0.00498462 -0.160391)
(26.7772 0.0112604 -0.160188)
(26.7157 0.0181257 -0.155858)
(26.6222 0.0264028 -0.149084)
(26.487 0.0377082 -0.139021)
(26.293 0.0569026 -0.123792)
(25.9793 0.0943222 -0.0980083)
(27.3935 0.0034061 -0.0896089)
(27.3884 0.00730142 -0.10684)
(27.3441 0.0145975 -0.106025)
(27.2645 0.0231373 -0.10234)
(27.1437 0.033824 -0.0967993)
(26.9683 0.0486382 -0.0888082)
(26.7147 0.0735809 -0.077344)
(26.3087 0.120254 -0.0606489)
(27.7907 0.00440487 -0.0627403)
(27.7773 0.00905942 -0.0750048)
(27.7233 0.0173705 -0.0742265)
(27.6289 0.0272816 -0.0712353)
(27.4865 0.039757 -0.066842)
(27.2806 0.0569365 -0.0607228)
(26.9843 0.085104 -0.0523946)
(26.5182 0.135697 -0.0413549)
(28.0762 0.00507141 -0.0454687)
(28.0584 0.010331 -0.0544183)
(27.997 0.0195624 -0.0537641)
(27.8909 0.0305572 -0.0514196)
(27.7317 0.0443295 -0.0480322)
(27.5026 0.0630869 -0.0434433)
(27.1755 0.0932158 -0.0374349)
(26.6683 0.146038 -0.0298516)
(28.2811 0.00556398 -0.0324353)
(28.2603 0.0112854 -0.0388172)
(28.1933 0.0212365 -0.038304)
(28.0783 0.0330426 -0.0365551)
(27.9065 0.0477333 -0.0340599)
(27.6604 0.0675421 -0.0307469)
(27.3113 0.0989078 -0.0265191)
(26.7759 0.153137 -0.0213331)
(28.4234 0.00591708 -0.0218117)
(28.4006 0.0119725 -0.0261023)
(28.3295 0.0224473 -0.0257394)
(28.2081 0.034829 -0.0245348)
(28.0273 0.0501478 -0.0228311)
(27.7694 0.0706481 -0.0205989)
(27.4052 0.102806 -0.0177927)
(26.8508 0.157951 -0.014389)
(28.5135 0.00615074 -0.0125628)
(28.4894 0.0124223 -0.0150284)
(28.4158 0.023245 -0.0148188)
(28.2903 0.0360036 -0.014118)
(28.1037 0.0517248 -0.0131318)
(27.8383 0.0726623 -0.0118519)
(27.4647 0.105336 -0.0102373)
(26.8984 0.16103 -0.00818961)
(28.5567 0.00627479 -0.00408497)
(28.532 0.0126445 -0.00487923)
(28.4571 0.0236193 -0.00481554)
(28.3296 0.0365652 -0.00458744)
(28.1404 0.0524745 -0.00426669)
(27.8714 0.0736316 -0.00385339)
(27.4935 0.10665 -0.00332146)
(26.9199 0.162516 -0.00258841)
(0.234232 0.00155084 24.637)
(0.280235 0.00273965 24.6191)
(0.281888 0.00425265 24.6052)
(0.278159 0.00626843 24.5849)
(0.272465 0.00867633 24.5561)
(0.264553 0.0115006 24.5171)
(0.253912 0.0147025 24.4661)
(0.242312 0.0172131 24.4015)
(0.215458 0.000453242 23.565)
(0.257875 0.000808438 23.5605)
(0.259292 0.00121608 23.5564)
(0.256048 0.00176617 23.5504)
(0.251258 0.00240225 23.542)
(0.244806 0.00308729 23.5309)
(0.236532 0.00366528 23.517)
(0.229457 0.00347336 23.5009)
(0.215181 -0.00057949 22.5593)
(0.257546 -0.000979277 22.564)
(0.258951 -0.00149117 22.5688)
(0.255708 -0.00215167 22.5758)
(0.250929 -0.00293722 22.5858)
(0.244501 -0.00386092 22.5992)
(0.236268 -0.00490093 22.6167)
(0.22925 -0.00564749 22.6389)
(0.233687 -0.00172299 21.4909)
(0.279539 -0.00293532 21.5091)
(0.281144 -0.00453631 21.5238)
(0.277407 -0.00663671 21.5451)
(0.271722 -0.00916805 21.5754)
(0.263841 -0.0121977 21.6164)
(0.253261 -0.0158268 21.6704)
(0.241752 -0.0192719 21.7405)
(-19.363 -0.00206474 0.146824)
(-19.3475 -0.00539066 0.174201)
(-19.3789 -0.0122737 0.173839)
(-19.4404 -0.0197148 0.1691)
(-19.5338 -0.0286875 0.161675)
(-19.6683 -0.0410367 0.150616)
(-19.8613 -0.0624911 0.133789)
(-20.1761 -0.106122 0.104865)
(-18.7816 -0.00369291 0.0947413)
(-18.7863 -0.00789443 0.112273)
(-18.8306 -0.0158645 0.111237)
(-18.9102 -0.0251302 0.107241)
(-19.0307 -0.0367334 0.10123)
(-19.2052 -0.0529437 0.0925409)
(-19.4577 -0.0808377 0.0800185)
(-19.8654 -0.1351 0.0616077)
(-18.4051 -0.00478987 0.064889)
(-18.4182 -0.00980289 0.0770943)
(-18.4722 -0.0188574 0.0761199)
(-18.5664 -0.0296049 0.0728881)
(-18.7081 -0.0431486 0.0681481)
(-18.9129 -0.06194 0.0615382)
(-19.2075 -0.0934018 0.0525179)
(-19.675 -0.152086 0.0404836)
(-18.138 -0.00552373 0.0463197)
(-18.1556 -0.0111825 0.0550883)
(-18.217 -0.0212208 0.054273)
(-18.3227 -0.0331325 0.0517444)
(-18.481 -0.048074 0.0480998)
(-18.7086 -0.0685733 0.0431617)
(-19.0336 -0.102182 0.0366875)
(-19.5418 -0.163356 0.0284766)
(-17.9485 -0.00606538 0.0326497)
(-17.9691 -0.0122163 0.0388231)
(-18.036 -0.023024 0.0381856)
(-18.1506 -0.0358044 0.0363015)
(-18.3214 -0.0517312 0.0336219)
(-18.5656 -0.0733611 0.0300661)
(-18.9122 -0.108312 0.0255271)
(-19.4482 -0.171044 0.0199363)
(-17.8181 -0.00645288 0.0217555)
(-17.8408 -0.0129593 0.0258653)
(-17.9117 -0.0243264 0.0254145)
(-18.0325 -0.0377215 0.0241178)
(-18.2122 -0.0543192 0.0222908)
(-18.4681 -0.0766882 0.0198998)
(-18.8294 -0.112492 0.0168955)
(-19.3841 -0.176232 0.013238)
(-17.7361 -0.00670857 0.0124534)
(-17.7601 -0.0134448 0.014799)
(-17.8335 -0.0251831 0.0145374)
(-17.9584 -0.0389794 0.0137834)
(-18.1437 -0.0560052 0.0127267)
(-18.407 -0.0788387 0.0113578)
(-18.7775 -0.115194 0.00963305)
(-19.3437 -0.179537 0.00743463)
(-17.6969 -0.00684377 0.00403667)
(-17.7216 -0.0136829 0.00478996)
(-17.7962 -0.0255853 0.00470898)
(-17.9231 -0.0395806 0.00446357)
(-18.111 -0.0568055 0.00412003)
(-18.3778 -0.0798697 0.00367828)
(-18.7526 -0.116593 0.00311095)
(-19.326 -0.181117 0.00232238)
(0.242309 -24.4191 -0.0211328)
(0.254273 -24.4977 -0.0179648)
(0.265441 -24.5605 -0.0143563)
(0.273931 -24.61 -0.0111821)
(0.280215 -24.6479 -0.00837869)
(0.284717 -24.6755 -0.00584588)
(0.287799 -24.6935 -0.0035574)
(0.289404 -24.7035 -0.0012405)
(0.229999 -23.5171 -0.006929)
(0.237559 -23.5453 -0.00639663)
(0.246324 -23.5691 -0.00537612)
(0.253268 -23.5885 -0.00434029)
(0.25853 -23.6038 -0.00334091)
(0.262358 -23.6152 -0.00237288)
(0.265043 -23.6228 -0.00143135)
(0.266544 -23.6265 -0.00048366)
(0.23001 -22.6525 0.00277088)
(0.237582 -22.6402 0.00267384)
(0.2463 -22.6305 0.00204554)
(0.253185 -22.6237 0.00144598)
(0.25839 -22.6189 0.000973392)
(0.262173 -22.6158 0.000616796)
(0.264827 -22.614 0.00035493)
(0.266308 -22.6131 0.000122981)
(0.242706 -21.7508 0.0170483)
(0.254825 -21.6882 0.0141156)
(0.265899 -21.64 0.0108383)
(0.274239 -21.6037 0.00810362)
(0.280372 -21.5769 0.00585405)
(0.284748 -21.558 0.00397363)
(0.287739 -21.5459 0.00241252)
(0.289303 -21.5389 0.000857445)
)
;
        pressure        uniform 0;
        value           nonuniform List<vector> 
192
(
(0.00152065 0.00141664 0.000813293)
(0.00325335 0.00275494 0.000902525)
(0.00606309 0.00397669 0.00086644)
(0.00927104 0.00477641 0.000706855)
(0.0128168 0.00521854 0.000520028)
(0.0164946 0.00535181 0.000343148)
(0.0201744 0.00526516 0.000209047)
(0.0237768 0.00506506 0.000135119)
(0.00163155 0.00149615 0.000421836)
(0.00356356 0.00271805 0.000559078)
(0.00632603 0.00392075 0.000583799)
(0.00950445 0.00471499 0.000516177)
(0.0129827 0.00516123 0.000414612)
(0.0165942 0.00530649 0.000310115)
(0.0202178 0.00523502 0.000227783)
(0.0237882 0.00505413 0.000182314)
(0.00171981 0.00156059 0.000221186)
(0.00371176 0.00271703 0.000325165)
(0.00649769 0.00387737 0.000364683)
(0.00966357 0.00465136 0.000349451)
(0.0131114 0.00509213 0.000306225)
(0.0166875 0.00524574 0.000255612)
(0.0202809 0.00519188 0.000213484)
(0.0238333 0.00503493 0.000189392)
(0.00176762 0.00159602 0.000116722)
(0.0037906 0.00272311 0.000186628)
(0.00659779 0.00385795 0.00022223)
(0.00976594 0.00461239 0.000228223)
(0.0132045 0.00504489 0.000216767)
(0.0167662 0.00520075 0.000198016)
(0.0203459 0.00515721 0.000180525)
(0.0238894 0.00501514 0.000169563)
(0.00179288 0.0016149 6.17882e-05)
(0.0038328 0.00273001 0.000106149)
(0.00665486 0.00385215 0.000133269)
(0.00982961 0.00459434 0.000145341)
(0.0132685 0.00501974 0.000147679)
(0.0168264 0.00517472 0.000144566)
(0.0204014 0.00513554 0.000139785)
(0.0239407 0.00500095 0.000135727)
(0.00180644 0.00162503 3.22688e-05)
(0.00385555 0.00273581 5.88762e-05)
(0.00668726 0.00385251 7.73347e-05)
(0.00986841 0.00458828 8.86029e-05)
(0.0133106 0.00500902 9.48492e-05)
(0.0168693 0.00516231 9.75557e-05)
(0.0204434 0.00512431 9.80254e-05)
(0.0239811 0.0049928 9.70348e-05)
(0.00181357 0.00163033 1.54981e-05)
(0.00386748 0.00273985 2.95705e-05)
(0.00670489 0.00385463 4.01769e-05)
(0.00989067 0.00458747 4.76888e-05)
(0.0133361 0.00500565 5.28892e-05)
(0.0168966 0.00515755 5.61389e-05)
(0.0204711 0.00511952 5.77171e-05)
(0.0240084 0.00498901 5.77268e-05)
(0.00181665 0.00163262 4.60226e-06)
(0.00387261 0.00274192 8.99427e-06)
(0.00671267 0.00385619 1.24448e-05)
(0.0099008 0.00458795 1.50471e-05)
(0.0133481 0.00500504 1.69874e-05)
(0.0169098 0.0051562 1.83072e-05)
(0.0204848 0.00511794 1.90218e-05)
(0.0240219 0.00498758 1.91088e-05)
(0.00058964 0.000819871 0.00122117)
(0.00264788 0.00167196 0.000868057)
(0.00543908 0.00256332 0.000875705)
(0.00875909 0.00311341 0.000694123)
(0.012415 0.00340826 0.000517068)
(0.016201 0.00348603 0.000351326)
(0.019963 0.00341326 0.000228986)
(0.0236112 0.00325747 0.000153726)
(9.62408e-05 0.000213199 0.000308545)
(0.00202075 0.000382968 0.000307545)
(0.00483448 0.000595299 0.000288896)
(0.00822334 0.00063567 0.000260159)
(0.0119383 0.00055417 0.000228624)
(0.0157768 0.000384427 0.000197732)
(0.0195819 0.000165022 0.000173768)
(0.023246 -6.72972e-05 0.000151928)
(4.39054e-05 -0.000403352 -0.000473441)
(0.00191727 -0.000667536 -0.00044187)
(0.00469056 -0.00117611 -0.000360178)
(0.00804835 -0.00166728 -0.000228143)
(0.0117349 -0.00214959 -9.84032e-05)
(0.0155514 -0.00259095 1.49721e-05)
(0.0193427 -0.0029773 0.000105329)
(0.0229971 -0.0033052 0.000181707)
(0.000430704 -0.00118273 -0.00144069)
(0.00231058 -0.00205672 -0.00104872)
(0.00496856 -0.00325848 -0.000975675)
(0.00818878 -0.00425003 -0.000680511)
(0.0117592 -0.00508903 -0.000400859)
(0.0154836 -0.00575332 -0.000149382)
(0.0192101 -0.00626353 4.47959e-05)
(0.0228371 -0.0066568 0.000178763)
(0.00120558 -0.00172304 -0.00106685)
(0.00274976 -0.00328712 -0.00113108)
(0.00535543 -0.00489534 -0.0010043)
(0.00840315 -0.00611771 -0.000723257)
(0.0118313 -0.00705446 -0.000427552)
(0.0154417 -0.00772116 -0.000162196)
(0.0190976 -0.00817846 4.26833e-05)
(0.0227005 -0.00850188 0.000173837)
(0.00129628 -0.00180669 -0.000627783)
(0.00309075 -0.00333286 -0.000759814)
(0.00562467 -0.00493931 -0.00070819)
(0.00862947 -0.00616844 -0.000537639)
(0.0119814 -0.00709514 -0.000340145)
(0.0155228 -0.00775272 -0.000157289)
(0.0191249 -0.00820482 -1.40027e-05)
(0.0227022 -0.00853304 7.72832e-05)
(0.00137228 -0.00190474 -0.000367902)
(0.00325038 -0.0033695 -0.000475702)
(0.00580623 -0.00494466 -0.0004639)
(0.00879217 -0.00616147 -0.00037143)
(0.0121088 -0.00708071 -0.000250743)
(0.0156115 -0.00773843 -0.000134032)
(0.0191814 -0.0081974 -4.02453e-05)
(0.0227375 -0.00853848 1.86415e-05)
(0.00141296 -0.00196327 -0.000214591)
(0.00333336 -0.00339358 -0.000292026)
(0.00591148 -0.00494645 -0.000294183)
(0.00889821 -0.00614782 -0.000244955)
(0.0122034 -0.00706022 -0.000174678)
(0.0156894 -0.00771777 -0.00010359)
(0.0192433 -0.00818192 -4.53094e-05)
(0.0227874 -0.00853202 -9.95607e-06)
(0.00143397 -0.00199564 -0.000124055)
(0.00337663 -0.00340826 -0.000176254)
(0.0059704 -0.00494821 -0.000181975)
(0.00896356 -0.0061388 -0.000155983)
(0.0122682 -0.00704528 -0.000115944)
(0.0157492 -0.00770137 -7.40104e-05)
(0.0192965 -0.0081676 -3.92082e-05)
(0.0228342 -0.00852235 -1.92209e-05)
(0.00144495 -0.00201322 -6.96119e-05)
(0.00339933 -0.00341681 -0.000102496)
(0.00600297 -0.00494994 -0.000107812)
(0.00900252 -0.00613412 -9.43545e-05)
(0.0123101 -0.00703637 -7.22418e-05)
(0.0157911 -0.0076906 -4.85197e-05)
(0.0193365 -0.008157 -2.87797e-05)
(0.0228712 -0.00851365 -1.8255e-05)
(0.00145058 -0.00202238 -3.51717e-05)
(0.00341091 -0.00342149 -5.31597e-05)
(0.00602025 -0.00495127 -5.66476e-05)
(0.00902434 -0.00613201 -5.02577e-05)
(0.0123349 -0.00703167 -3.92223e-05)
(0.0158173 -0.00768436 -2.72063e-05)
(0.0193626 -0.00815029 -1.72371e-05)
(0.0228961 -0.00850752 -1.23362e-05)
(0.00145296 -0.0020263 -1.07179e-05)
(0.00341581 -0.00342356 -1.64275e-05)
(0.00602774 -0.00495197 -1.76242e-05)
(0.00903412 -0.00613123 -1.57433e-05)
(0.0123464 -0.00702968 -1.24029e-05)
(0.0158298 -0.00768155 -8.73975e-06)
(0.0193754 -0.00814708 -5.70983e-06)
(0.0229084 -0.00850438 -4.30618e-06)
(0.0253527 0.00317356 0.000156296)
(0.0253649 0.00316847 0.000172638)
(0.0254176 0.00315903 0.000167177)
(0.0254764 0.00314557 0.000145364)
(0.0255279 0.00313513 0.000114291)
(0.0255675 0.00312871 8.06112e-05)
(0.025594 0.00312553 4.74951e-05)
(0.0256071 0.00312421 1.56439e-05)
(0.0249141 -0.000164731 0.00016117)
(0.0249378 -0.000182069 0.000146545)