/*--------------------------------*- C++ -*----------------------------------*\
| =========                 |                                                 |
| \\      /  F ield         | foam-extend: Open Source CFD                    |
|  \\    /   O peration     | Version:     3.1                                |
|   \\  /    A nd           | Web:         http://www.extend-project.de       |
|    \\/     M anipulation  |                                                 |
\*---------------------------------------------------------------------------*/
FoamFile
{
    version     2.0;
    format      ascii;
    class       volSymmTensorField;
    location    "1.1";
    object      epsilon;
}
// * * * * * * * * * * * * * * * * * * * * * * * * * * * * * * * * * * * * * //

dimensions      [0 0 0 0 0 0 0];

internalField   nonuniform List<symmTensor> 
256
(
(-0.0153656 0.0192879 -0.00094647 0.0574897 0.0109562 -0.0064299)
(-0.00489494 0.0159922 -0.00271694 0.01259 0.00316024 -0.0022909)
(0.00294629 0.0149735 -0.00286743 -0.0179955 -0.00651216 0.00285734)
(0.0121199 0.016299 -0.00114174 -0.0603179 -0.0149476 0.00691528)
(-0.0262498 0.00796791 -0.00116686 0.0376543 -0.00208746 -0.0101292)
(-0.00990555 0.0212667 -0.0042797 0.0136858 -0.000917175 -0.00364088)
(0.00581704 0.0207623 -0.00452807 -0.0129291 0.00119324 0.00448795)
(0.0215778 0.00733154 -0.00151584 -0.0361318 0.00254237 0.0110029)
(-0.0211495 0.00985632 -0.000587101 0.0344334 -0.00081542 -0.00679529)
(-0.00955012 0.0207691 -0.00286223 0.0120089 -0.000244268 -0.00246466)
(0.0048028 0.020776 -0.00294587 -0.0109457 0.00042438 0.00299534)
(0.0164062 0.0099718 -0.000720777 -0.0331522 0.00109878 0.00751828)
(-0.0171752 0.00870033 -0.000544657 0.0251483 -0.00173518 -0.00492904)
(-0.00790654 0.0190397 -0.00221267 0.00914911 -0.000449685 -0.00179122)
(0.00354175 0.0191069 -0.00228778 -0.00794008 0.000699995 0.00223214)
(0.0127703 0.00883685 -0.00071595 -0.0236072 0.00211246 0.00556851)
(-0.0128376 0.00757864 -0.000390742 0.0172181 -0.00168545 -0.00273938)
(-0.00620772 0.0163548 -0.00161375 0.00649023 -0.000427306 -0.00106624)
(0.00243611 0.0164229 -0.00169273 -0.00540891 0.000584747 0.00126866)
(0.00890674 0.00772493 -0.000553747 -0.0157896 0.001927 0.00313551)
(-0.00933132 0.00585642 -0.000350187 0.010378 -0.0014927 -0.000968001)
(-0.00476352 0.0129371 -0.00121295 0.00419632 -0.00039477 -0.000491871)
(0.00157699 0.013027 -0.00128379 -0.00330985 0.000467917 0.000459657)
(0.00591941 0.00603755 -0.000488406 -0.00916065 0.00163256 0.00111692)
(-0.00691843 0.00377344 -0.000388418 0.0056293 -0.00112588 0.000411285)
(-0.00374006 0.00903224 -0.000932826 0.00248649 -0.000351889 -4.18477e-05)
(0.00104686 0.00914417 -0.000969785 -0.00179142 0.000325835 -0.000240124)
(0.00402195 0.00404676 -0.000454086 -0.00455386 0.00116241 -0.000550249)
(-0.00660849 0.00170809 -0.000421018 0.00337313 -0.000447863 0.00129375)
(-0.00412239 0.00456189 -0.000650423 0.00169255 -0.000148993 0.000216942)
(0.00153666 0.00455984 -0.000671987 -0.000907711 0.000107683 -0.000845957)
(0.00400045 0.00173143 -0.000430004 -0.00233779 0.000406413 -0.00182151)
(-0.0154876 0.0227772 -0.000734327 0.0551738 0.00713444 -0.00409593)
(-0.00450795 0.0203992 -0.00228875 0.011716 0.00175424 -0.00133516)
(0.00272703 0.019576 -0.00249288 -0.0158708 -0.00493409 0.00214861)
(0.0121281 0.0199321 -0.00103453 -0.0569595 -0.0109446 0.00509042)
(-0.0264059 0.00881108 -0.00126411 0.0402001 0.000345964 -0.00772607)
(-0.00925138 0.0229315 -0.00426505 0.0143486 -0.000194247 -0.00247967)
(0.00528278 0.0226281 -0.00456129 -0.0159202 -0.000227134 0.00407647)
(0.0216413 0.00850474 -0.00167359 -0.0410736 -0.000621797 0.00968431)
(-0.020916 0.00914756 -0.000870371 0.0342686 -0.00121127 -0.00645015)
(-0.00883296 0.0198361 -0.00339791 0.0117761 -0.000344422 -0.00205918)
(0.00424838 0.0197881 -0.00356646 -0.0117498 0.000813709 0.00335106)
(0.0161787 0.00910778 -0.00119417 -0.0339277 0.00182019 0.00805557)
(-0.0166944 0.00761201 -0.0005072 0.0252313 -0.00204197 -0.00459326)
(-0.0072356 0.0171741 -0.00236041 0.00911132 -0.00048049 -0.00154073)
(0.00289367 0.0171759 -0.00252865 -0.00829946 0.00116151 0.00232386)
(0.0121635 0.00765301 -0.000882843 -0.024093 0.00288577 0.00566106)
(-0.0124011 0.0062866 -0.00015991 0.017061 -0.00222414 -0.00260637)
(-0.00565905 0.0142056 -0.00149837 0.00644746 -0.000519031 -0.000980391)
(0.00182106 0.0142204 -0.00166817 -0.00533455 0.00116629 0.00132891)
(0.00827045 0.00635709 -0.000533572 -0.0156176 0.00299884 0.00320346)
(-0.00894517 0.00469917 5.67557e-05 0.0101945 -0.00197339 -0.000857582)
(-0.00432213 0.0110001 -0.000854837 0.00415061 -0.000464325 -0.00047259)
(0.00102508 0.0110588 -0.00100514 -0.0030616 0.000989341 0.000490287)
(0.00529393 0.00484968 -0.000273036 -0.00879291 0.00260162 0.00108992)
(-0.00660004 0.00289967 0.000151069 0.00541251 -0.00140169 0.000464229)
(-0.00339829 0.00759892 -0.000411731 0.00239167 -0.000342496 -8.934e-05)
(0.000601651 0.0077091 -0.000519097 -0.0014892 0.00071185 -0.000185428)
(0.00348788 0.0032032 -8.00582e-05 -0.00411024 0.00186674 -0.00056509)
(-0.00631005 0.00134779 0.000181897 0.00331908 -0.000571513 0.00123144)
(-0.0038344 0.00390411 -0.000108047 0.0016761 -0.000117791 6.17107e-05)
(0.00115586 0.003911 -0.000201414 -0.000702465 0.000337489 -0.000799561)
(0.00353292 0.00140366 1.60399e-05 -0.0020587 0.000835196 -0.00182835)
(-0.0162319 0.0242255 -0.000521519 0.0557841 0.00391827 -0.00233444)
(-0.00470831 0.0217735 -0.00155395 0.0117124 0.000770698 -0.000676927)
(0.00298137 0.02099 -0.00171077 -0.0157237 -0.00321976 0.00142528)
(0.0127507 0.0213381 -0.000752251 -0.0575952 -0.00679418 0.0032689)
(-0.0277742 0.00919182 -0.00103143 0.0391907 0.000550251 -0.00473008)
(-0.00974497 0.0238149 -0.0030636 0.0140971 -6.08805e-05 -0.00132718)
(0.00584417 0.0235788 -0.00329787 -0.015979 -0.000398779 0.00288279)
(0.0229747 0.00892643 -0.00135978 -0.0402922 -0.000892372 0.00660958)
(-0.0219416 0.00921524 -0.000858606 0.033786 -0.000607183 -0.00441668)
(-0.00929822 0.0201403 -0.00268024 0.0116343 -0.000154937 -0.00120724)
(0.00470345 0.02009 -0.0028213 -0.0119415 0.000571159 0.00262627)
(0.0171714 0.00911086 -0.00109643 -0.0337362 0.0011393 0.0060611)
(-0.0173125 0.00749219 -0.000557997 0.0249695 -0.00130904 -0.00341693)
(-0.00756267 0.016927 -0.00195043 0.00903452 -0.000253126 -0.000960465)
(0.00304548 0.0169219 -0.00207723 -0.00835725 0.00101118 0.00195915)
(0.0126087 0.0075184 -0.00078803 -0.0240093 0.00219499 0.00457358)
(-0.0127754 0.00603063 -0.00025749 0.0170359 -0.00154106 -0.00215122)
(-0.00590499 0.0137141 -0.00122093 0.00646887 -0.000287098 -0.000639165)
(0.0017803 0.0137314 -0.00134038 -0.00533023 0.00110899 0.00121708)
(0.00837923 0.00610809 -0.000472384 -0.0156081 0.00247007 0.00283461)
(-0.00912387 0.00441485 -3.08776e-05 0.0103798 -0.00141114 -0.00095193)
(-0.00448933 0.0104656 -0.000634822 0.00424031 -0.000250986 -0.000325849)
(0.000864155 0.0105432 -0.000735469 -0.00301698 0.00100119 0.000554744)
(0.00516098 0.00460587 -0.000210035 -0.00886862 0.0022485 0.00125344)
(-0.0066201 0.00264484 9.78561e-05 0.00577219 -0.00101494 -2.38776e-05)
(-0.00348884 0.00718437 -0.000227549 0.00252503 -0.000167307 -9.2048e-05)
(0.000381987 0.00733069 -0.000300741 -0.0014457 0.000752862 1.5282e-05)
(0.0032072 0.00302592 -2.48828e-05 -0.00427924 0.00168175 -2.74841e-06)
(-0.00619381 0.00125995 0.000128635 0.00369036 -0.000406773 0.000490164)
(-0.00386335 0.00374259 -2.86554e-05 0.00182604 -4.08931e-05 -1.10043e-05)
(0.000877729 0.00377819 -0.000105724 -0.000690781 0.000340349 -0.000409935)
(0.0031408 0.00136701 2.09978e-05 -0.00223793 0.000743872 -0.000867997)
(-0.0168024 0.0248478 -0.000333543 0.0562865 0.00205793 -0.00126653)
(-0.00489157 0.0222306 -0.000992155 0.0117636 0.000280422 -0.000311534)
(0.00317061 0.0214501 -0.00109603 -0.0157156 -0.00204001 0.000933031)
(0.0132605 0.0219157 -0.000485582 -0.0581135 -0.00407432 0.00201901)
(-0.0288201 0.00937241 -0.000702507 0.0385341 0.000423647 -0.00267325)
(-0.010154 0.02432 -0.00204158 0.0139749 -2.49218e-05 -0.000627163)
(0.00625839 0.0241141 -0.00220229 -0.0157649 -0.000347553 0.00196166)
(0.0240175 0.00912092 -0.000929806 -0.0394856 -0.000718566 0.00422994)
(-0.0228405 0.0093866 -0.000648991 0.0333183 -0.000224544 -0.00267108)
(-0.00971388 0.0205299 -0.00191299 0.0115356 -2.81115e-05 -0.000600121)
(0.00507897 0.0204919 -0.00201289 -0.0118177 0.000365727 0.00191063)
(0.0180652 0.00928062 -0.000812419 -0.0332292 0.00063823 0.00413262)
(-0.0179991 0.0075838 -0.000461717 0.0247005 -0.000665777 -0.00220575)
(-0.00791145 0.0171432 -0.00146158 0.00898896 -5.89982e-05 -0.000500773)
(0.00325538 0.017148 -0.001542 -0.00827666 0.000748034 0.00152175)
(0.0132148 0.00761903 -0.000603144 -0.0237337 0.00143925 0.00332588)
(-0.0132343 0.00605868 -0.000244778 0.0170028 -0.000851154 -0.00151112)
(-0.00618427 0.0137944 -0.000943604 0.00650289 -7.12815e-05 -0.000349387)
(0.00184101 0.0138259 -0.00101212 -0.00528365 0.000877141 0.00102662)
(0.00868529 0.00615662 -0.000365613 -0.0155258 0.00173413 0.00224307)
(-0.009388 0.0043998 -6.48295e-05 0.0105598 -0.000815002 -0.000803627)
(-0.00469916 0.0104693 -0.000498265 0.00434584 -5.66202e-05 -0.000191067)
(0.00081764 0.0105676 -0.000551515 -0.0029933 0.000830939 0.00055666)
(0.00522601 0.00462553 -0.000157322 -0.00893688 0.00165656 0.00119195)
(-0.00671806 0.00260648 4.34392e-05 0.00610703 -0.000613333 -0.000235193)
(-0.00363297 0.00717291 -0.000190871 0.00267298 -2.95352e-05 -6.72787e-05)
(0.000263345 0.00734558 -0.000227303 -0.00144721 0.000645048 0.000174155)
(0.00308784 0.00303563 -1.23098e-05 -0.00445746 0.00129213 0.000341219)
(-0.00617288 0.00125584 5.24783e-05 0.00403928 -0.000269601 8.90483e-05)
(-0.00397219 0.00375166 -8.94775e-05 0.00197142 3.02579e-06 -1.38491e-05)
(0.000697948 0.00380345 -0.000133792 -0.000742051 0.000296513 -8.44491e-05)
(0.00289015 0.00138915 6.69211e-07 -0.00247603 0.000595834 -0.000195626)
(-0.0171686 0.0251082 -0.000201681 0.056594 0.00104982 -0.000670666)
(-0.00501554 0.0223534 -0.000608965 0.0118231 6.36053e-05 -0.000122157)
(0.00328289 0.0215653 -0.000672537 -0.0156963 -0.00126233 0.000614237)
(0.013593 0.0221382 -0.000295297 -0.058373 -0.00239364 0.00124424)
(-0.0295178 0.00945428 -0.000444706 0.0382302 0.000276643 -0.00145529)
(-0.010426 0.0245757 -0.0012978 0.0139585 -1.48047e-05 -0.000244048)
(0.00650667 0.0243837 -0.00139975 -0.0155549 -0.00025858 0.00133281)
(0.0247118 0.00920983 -0.000591112 -0.038961 -0.000502362 0.00268089)
(-0.023487 0.00950995 -0.000441466 0.0330465 -4.49976e-05 -0.00152197)
(-0.00999637 0.0208187 -0.00128277 0.0115086 3.09735e-05 -0.00023497)
(0.00531583 0.0207931 -0.00134883 -0.0116396 0.000227998 0.00136809)
(0.0187018 0.00941391 -0.000547987 -0.0328036 0.000350501 0.00274641)
(-0.0185348 0.00769629 -0.000334307 0.0245199 -0.000278294 -0.0013194)
(-0.00816057 0.0174057 -0.00102102 0.00898271 4.48895e-05 -0.000201959)
(0.00340985 0.0174221 -0.00107062 -0.00815144 0.000515384 0.00114926)
(0.0136955 0.00774572 -0.000419953 -0.0234478 0.000890092 0.0023228)
(-0.0136286 0.00614796 -0.000193846 0.0169681 -0.000392927 -0.000967635)
(-0.00639181 0.0140043 -0.000683703 0.00654019 5.09309e-05 -0.000144585)
(0.00190749 0.0140483 -0.000722319 -0.0052067 0.000634076 0.000830557)
(0.0089762 0.00626472 -0.000261111 -0.0153937 0.00112868 0.00167762)
(-0.0096475 0.00445903 -7.0166e-05 0.0106652 -0.000398476 -0.000583433)
(-0.00486262 0.0106238 -0.000378919 0.00442735 5.44925e-05 -7.7449e-05)
(0.000811158 0.0107368 -0.000406261 -0.00295388 0.000621609 0.000513205)
(0.00534556 0.00470964 -0.000116876 -0.00893013 0.0011225 0.00101725)
(-0.00685998 0.00263479 3.91969e-06 0.00630919 -0.000318998 -0.000255089)
(-0.00375607 0.00728124 -0.000172141 0.00277692 4.73552e-05 -1.41015e-05)
(0.000201825 0.00746996 -0.000188989 -0.00144085 0.000492669 0.000262031)
(0.00306903 0.00309527 -1.92086e-05 -0.00454358 0.000905006 0.000480674)
(-0.00624268 0.00127464 -4.25265e-06 0.00425147 -0.00015154 -5.69179e-05)
(-0.004084 0.00381151 -0.00013408 0.00206621 2.81108e-05 3.31141e-05)
(0.000596157 0.00387113 -0.000158212 -0.000779132 0.000226691 0.000135699)
(0.00278296 0.00142369 -2.76724e-05 -0.00262399 0.000425424 0.000196664)
(-0.0173879 0.0252118 -0.000114521 0.0567756 0.000515569 -0.000349982)
(-0.00509398 0.0223608 -0.000355204 0.0118776 -1.46602e-05 -2.93657e-05)
(0.0033464 0.0215636 -0.000391617 -0.015667 -0.000746961 0.000415282)
(0.0137913 0.0222129 -0.000169044 -0.0584821 -0.00135455 0.000784733)
(-0.0299505 0.00948509 -0.000261873 0.0381162 0.00016387 -0.000773769)
(-0.0105984 0.0246908 -0.000778332 0.01399 -1.06486e-05 -4.82838e-05)
(0.00664891 0.0245045 -0.000838605 -0.0153935 -0.000172716 0.000928224)
(0.0251363 0.00924429 -0.000350471 -0.0386448 -0.000319144 0.00173519)
(-0.0239094 0.00958325 -0.000274098 0.0329264 2.05698e-05 -0.000835148)
(-0.0101786 0.0209969 -0.000801357 0.011526 4.53741e-05 -3.46971e-05)
(0.00545611 0.0209795 -0.000841951 -0.0114874 0.000137402 0.00099749)
(0.0191101 0.0094959 -0.000339843 -0.0325154 0.000189632 0.00185085)
(-0.0189003 0.00777982 -0.000216805 0.0244293 -8.70075e-05 -0.000751036)
(-0.00832506 0.0176043 -0.000658649 0.00900215 7.56483e-05 -2.70225e-05)
(0.00350873 0.017629 -0.000687931 -0.00803386 0.000331883 0.000875899)
(0.0140202 0.00784058 -0.000267584 -0.0232263 0.000524562 0.00162926)
(-0.0139125 0.00622628 -0.000133063 0.0169467 -0.000146662 -0.000579986)
(-0.00653239 0.0141903 -0.000455257 0.00657691 8.97236e-05 -1.4078e-05)
(0.00195706 0.0142429 -0.000476561 -0.00512701 0.000421414 0.00067004)
(0.0091893 0.00635643 -0.000170584 -0.0152626 0.000688913 0.00124286)
(-0.00984898 0.00451988 -5.64326e-05 0.0107168 -0.000162209 -0.000377531)
(-0.00497749 0.0107776 -0.000265074 0.00448366 8.94935e-05 8.39595e-06)
(0.000815727 0.0109 -0.000278885 -0.00290739 0.000422396 0.000458857)
(0.00545072 0.00478706 -8.02458e-05 -0.00888208 0.000705235 0.000831796)
(-0.00698946 0.00267024 -1.1828e-05 0.00641137 -0.000141962 -0.000186231)
(-0.00384837 0.00739253 -0.000139182 0.00284012 7.04917e-05 4.55757e-05)
(0.000170378 0.00759124 -0.000146678 -0.00142506 0.000338825 0.000303689)
(0.00308511 0.00315092 -2.0903e-05 -0.00456311 0.000581723 0.000505725)
(-0.00633519 0.0012911 -2.47137e-05 0.00436208 -7.55748e-05 -4.96288e-05)
(-0.00417685 0.00386753 -0.000131393 0.00211908 3.35938e-05 0.00010186)
(0.000541967 0.00393148 -0.000144482 -0.000799136 0.000156144 0.000267876)
(0.00274776 0.00144996 -3.51932e-05 -0.00269893 0.000277601 0.000383931)
(-0.0175101 0.0252501 -5.76727e-05 0.056878 0.000231091 -0.000187355)
(-0.00513977 0.0223395 -0.000183618 0.0119186 -2.7191e-05 1.28914e-05)
(0.00338022 0.0215353 -0.00020207 -0.0156403 -0.000391453 0.000299973)
(0.0139005 0.022232 -8.58028e-05 -0.05852 -0.000686644 0.000530343)
(-0.0301984 0.00949338 -0.000135521 0.0380857 8.44629e-05 -0.000418722)
(-0.0106997 0.024736 -0.000410379 0.0140294 -6.85258e-06 4.40555e-05)
(0.00672558 0.0245518 -0.000441664 -0.0152867 -9.77144e-05 0.000688989)
(0.025375 0.00925459 -0.000182477 -0.0384665 -0.000174246 0.00120157)
(-0.0241604 0.00962158 -0.000147239 0.0328871 2.89908e-05 -0.000461181)
(-0.0102873 0.0210933 -0.000434642 0.0115559 3.50006e-05 6.54287e-05)
(0.00553358 0.0210804 -0.000456341 -0.0113822 7.37305e-05 0.000770007)
(0.0193478 0.00953974 -0.000182605 -0.0323434 9.42116e-05 0.0013273)
(-0.0191234 0.00783031 -0.000119966 0.024395 -1.33235e-05 -0.000426212)
(-0.00842454 0.0177265 -0.000365396 0.00902815 6.08439e-05 6.5568e-05)
(0.00356578 0.0177561 -0.000380716 -0.00794798 0.000185248 0.000700595)
(0.0142147 0.0078982 -0.00014668 -0.0230828 0.000275051 0.00120619)
(-0.0140914 0.00627757 -7.64045e-05 0.0169387 -3.94345e-05 -0.00034142)
(-0.00661876 0.0143138 -0.000258479 0.00660683 7.33176e-05 6.05814e-05)
(0.00198781 0.0143715 -0.000269142 -0.00506487 0.000239684 0.00056029)
(0.0093225 0.00641592 -9.53492e-05 -0.0151648 0.000369074 0.000959588)
(-0.009982 0.00456187 -3.56512e-05 0.0107399 -5.16597e-05 -0.000229731)
(-0.00504984 0.0108845 -0.00015629 0.0045192 7.25034e-05 6.48098e-05)
(0.000821041 0.0110123 -0.00016272 -0.00286814 0.000243374 0.000414474)
(0.00552256 0.00483906 -4.67343e-05 -0.00883113 0.000384685 0.000690714)
(-0.00708319 0.00269564 -1.29397e-05 0.00645627 -5.23428e-05 -0.000107066)
(-0.00390912 0.00747031 -9.02758e-05 0.00287491 5.61186e-05 9.4062e-05)
(0.000154816 0.00767453 -9.33612e-05 -0.00140832 0.000196501 0.000320435)
(0.00310655 0.00318811 -1.59454e-05 -0.00455458 0.000321623 0.000489444)
(-0.00641261 0.00130197 -2.34809e-05 0.00441051 -3.31545e-05 4.83932e-06)
(-0.00424155 0.00390594 -9.24157e-05 0.00214473 2.52827e-05 0.000162955)
(0.000514752 0.00397164 -9.9008e-05 -0.000806881 9.07649e-05 0.000340186)
(0.00274304 0.00146588 -2.78413e-05 -0.00272908 0.000154835 0.00046171)
(-0.0175645 0.025262 -1.75052e-05 0.0569245 6.54118e-05 -0.000119689)
(-0.00516083 0.0223232 -5.65536e-05 0.0119404 -1.16159e-05 2.88406e-05)
(0.00339485 0.0215153 -6.21615e-05 -0.015625 -0.000121522 0.000247148)
(0.0139486 0.0222344 -2.61447e-05 -0.0585298 -0.000209373 0.000417408)
(-0.0303108 0.00949428 -4.17539e-05 0.0380824 2.58652e-05 -0.000268477)
(-0.0107465 0.0247503 -0.000127719 0.0140541 -2.3866e-06 7.9839e-05)
(0.00675903 0.0245667 -0.000137351 -0.0152337 -3.14946e-05 0.000578059)
(0.0254817 0.00925645 -5.6371e-05 -0.038386 -5.51324e-05 0.000961937)
(-0.0242768 0.00963752 -4.62779e-05 0.0328791 1.20272e-05 -0.000298575)
(-0.010338 0.0211345 -0.000137275 0.0115762 1.28125e-05 0.000105941)
(0.0055679 0.0211235 -0.000144058 -0.0113291 2.32734e-05 0.000662245)
(0.0194563 0.00955825 -5.73621e-05 -0.0322636 2.8581e-05 0.00108736)
(-0.0192283 0.00785343 -3.83111e-05 0.024386 1.41768e-06 -0.000280657)
(-0.00847138 0.0177831 -0.000116784 0.00904521 2.26375e-05 0.000104689)
(0.00359166 0.0178149 -0.000121525 -0.00790339 5.95345e-05 0.000615539)
(0.014305 0.00792464 -4.65934e-05 -0.0230133 8.5596e-05 0.00100764)
(-0.0141771 0.00630208 -2.48935e-05 0.0169373 -5.66276e-06 -0.00022951)
(-0.00665978 0.0143735 -8.36485e-05 0.00662366 2.74605e-05 9.39976e-05)
(0.00200223 0.0144333 -8.68732e-05 -0.00503144 7.77024e-05 0.000505199)
(0.00938564 0.00644425 -3.06363e-05 -0.0151138 0.000116023 0.00082173)
(-0.0100472 0.00458233 -1.22285e-05 0.0107485 -1.00905e-05 -0.00015421)
(-0.00508466 0.0109371 -5.16392e-05 0.00453653 2.71121e-05 9.24621e-05)
(0.000824064 0.0110673 -5.34944e-05 -0.00284613 7.93704e-05 0.000390296)
(0.00555817 0.00486419 -1.53833e-05 -0.00880069 0.000121961 0.000616579)
(-0.00713113 0.00270811 -5.44109e-06 0.0064719 -1.23537e-05 -5.88202e-05)
(-0.00393905 0.00750868 -3.13064e-05 0.0028902 2.08736e-05 0.00012056)
(0.00014834 0.00771509 -3.2121e-05 -0.00139796 6.42835e-05 0.00032576)
(0.0031196 0.00320566 -6.02215e-06 -0.00454421 0.000102595 0.000472653)
(-0.00645433 0.00130741 -9.49686e-06 0.00442659 -9.534e-06 4.59111e-05)
(-0.00427417 0.00392516 -3.30739e-05 0.0021547 9.17925e-06 0.000197729)
(0.000503195 0.00399086 -3.51006e-05 -0.000808727 2.9819e-05 0.000371792)
(0.00274491 0.00147274 -1.06661e-05 -0.00273816 4.96687e-05 0.000487586)
)
;

boundaryField
{
    interface
    {
        type            calculated;
        value           nonuniform List<symmTensor> 
192
(
(-0.0555865 -1.2377e-05 0.000486026 0.0878034 0.0140105 -0.00797099)
(-0.025993 -4.15712e-05 0.000712622 0.0481639 -0.00228399 -0.0125424)
(-0.0269323 -9.50086e-05 0.000793675 0.0453942 -0.00107379 -0.00841568)
(-0.0199564 -0.00015304 0.000810432 0.032596 -0.00245516 -0.00607215)
(-0.0147475 -0.000220931 0.000799684 0.0219673 -0.0024406 -0.00326311)
(-0.0101281 -0.000310546 0.000760959 0.012764 -0.00216338 -0.000987252)
(-0.00714657 -0.000454878 0.000682626 0.00659041 -0.00156726 0.000751166)
(-0.00581627 -0.000674106 0.000535481 0.00372711 -0.000613149 0.00183216)
(-0.0562013 1.49692e-05 0.00033173 0.0855338 0.00930544 -0.00515105)
(-0.0299009 -1.6504e-05 0.00048786 0.0508181 0.000804115 -0.00975526)
(-0.0271351 -7.29148e-05 0.000535359 0.045008 -0.00153029 -0.00817375)
(-0.0205248 -0.000145024 0.00054049 0.0326352 -0.00280536 -0.00574402)
(-0.0150374 -0.000232247 0.000525098 0.0217523 -0.0031044 -0.00310522)
(-0.0104577 -0.000350951 0.000489232 0.0125884 -0.00277192 -0.000785852)
(-0.0074379 -0.000539969 0.00042593 0.00644415 -0.00194993 0.000950339)
(-0.00601771 -0.000799656 0.000322608 0.00373842 -0.000802546 0.0019566)
(-0.0587234 2.18378e-05 0.000228625 0.0868975 0.00516674 -0.00297733)
(-0.0313807 -1.03433e-05 0.000333565 0.0491487 0.000951525 -0.00608555)
(-0.0283428 -6.85842e-05 0.000360369 0.0441627 -0.000718903 -0.00574386)
(-0.0212582 -0.000147961 0.000358031 0.0322024 -0.00175223 -0.00443957)
(-0.0153663 -0.000247485 0.000342288 0.021676 -0.00211373 -0.0027559)
(-0.0105151 -0.000384384 0.000313315 0.0128474 -0.00196024 -0.00115405)
(-0.00731327 -0.000598062 0.000268133 0.00698178 -0.00141643 8.61776e-05)
(-0.00559691 -0.000871114 0.000201286 0.00425621 -0.000585717 0.000781669)
(-0.0603874 2.24457e-05 0.000162165 0.0878742 0.00273488 -0.00162562)
(-0.0325411 -1.09222e-05 0.000236618 0.0481235 0.000686987 -0.00346645)
(-0.0294445 -7.09178e-05 0.000253161 0.0434376 -0.000238906 -0.00351163)
(-0.022083 -0.000155023 0.000248299 0.0317765 -0.000882653 -0.00291678)
(-0.0158988 -0.000262602 0.000234261 0.0215859 -0.00116911 -0.00199669)
(-0.0108006 -0.000410849 0.000211747 0.0130626 -0.00114069 -0.00104962)
(-0.00741 -0.000639058 0.000179737 0.00742721 -0.000869566 -0.000285866)
(-0.00548114 -0.000917393 0.000134609 0.0047079 -0.00039681 0.000153566)
(-0.0613434 2.174e-05 0.000113981 0.0884358 0.00140765 -0.000867854)
(-0.0333308 -1.31623e-05 0.00016687 0.047644 0.000432977 -0.00190493)
(-0.0302268 -7.50425e-05 0.000177619 0.0430237 -3.14281e-05 -0.00202382)
(-0.0227173 -0.000162519 0.00017271 0.0314893 -0.000374669 -0.00177192)
(-0.0163571 -0.000275452 0.000161451 0.0215016 -0.00055327 -0.00130937)
(-0.0110881 -0.000430939 0.000144754 0.0131719 -0.000575521 -0.000796516)
(-0.00755875 -0.000668372 0.000122359 0.00767825 -0.000469395 -0.000357309)
(-0.00548905 -0.000949226 9.14091e-05 0.00497094 -0.000232545 -9.47231e-05)
(-0.0618745 2.09172e-05 7.59229e-05 0.0887465 0.000698528 -0.000458591)
(-0.0338319 -1.53927e-05 0.000111469 0.0474486 0.000250298 -0.00102759)
(-0.0307411 -7.89471e-05 0.000118362 0.0428339 3.65832e-05 -0.00112969)
(-0.0231534 -0.000168826 0.000114488 0.0313388 -0.000126455 -0.00102977)
(-0.0166912 -0.000285295 0.000106394 0.0214447 -0.000222072 -0.000806702)
(-0.0113184 -0.000445415 9.48994e-05 0.0132144 -0.000252281 -0.000538109)
(-0.00770248 -0.000688796 7.99711e-05 0.00779536 -0.000224511 -0.000286414)
(-0.00556076 -0.000970938 5.94958e-05 0.00510274 -0.000123676 -0.000115478)
(-0.0621545 2.0269e-05 4.33544e-05 0.0889109 0.000316437 -0.000250535)
(-0.0341219 -1.70439e-05 6.37459e-05 0.0473818 0.000126928 -0.00056955)
(-0.0310474 -8.17927e-05 6.75847e-05 0.0427635 3.96517e-05 -0.000641924)
(-0.0234203 -0.000173245 6.51766e-05 0.0312746 -2.78208e-05 -0.000603973)
(-0.0169025 -0.000291909 6.03577e-05 0.0214153 -7.15631e-05 -0.000494543)
(-0.0114716 -0.000454874 5.36436e-05 0.013227 -9.29711e-05 -0.00034807)
(-0.00780723 -0.000701931 4.48726e-05 0.00784122 -9.28427e-05 -0.000191698)
(-0.00563152 -0.00098442 3.27004e-05 0.00515746 -5.86236e-05 -6.14418e-05)
(-0.0622746 1.98191e-05 1.3982e-05 0.0889822 9.02174e-05 -0.000163802)
(-0.0342533 -1.80143e-05 2.05712e-05 0.0473647 3.85448e-05 -0.000375429)
(-0.0311887 -8.3307e-05 2.17771e-05 0.042744 1.56388e-05 -0.000429606)
(-0.0235454 -0.000175471 2.0968e-05 0.0312536 -2.1317e-06 -0.000412828)
(-0.0170032 -0.000295189 1.93841e-05 0.021404 -1.44537e-05 -0.000347549)
(-0.0115464 -0.00045973 1.71862e-05 0.0132293 -2.19568e-05 -0.000250089)
(-0.00785985 -0.000708918 1.42164e-05 0.00785479 -2.45219e-05 -0.000132071)
(-0.00567003 -0.000990123 9.98772e-06 0.00517415 -1.76944e-05 -1.55535e-05)
(-0.0156432 0.0168048 -0.000689249 0.0601585 -8.87207e-05 -0.0309566)
(-0.0268402 0.00739015 -0.00108671 0.0345557 -0.000158358 -0.00615672)
(-0.0218948 0.0105365 -0.00124537 0.0344005 -0.000173799 -0.00922665)
(-0.0179002 0.00963843 -0.00131393 0.0249587 -0.000186457 -0.00551897)
(-0.0134136 0.00862957 -0.001356 0.0173662 -0.000202881 -0.0034167)
(-0.00977377 0.00676875 -0.00138453 0.0106388 -0.000227751 -0.0013604)
(-0.00722918 0.00443931 -0.0014105 0.00600443 -0.000268606 -3.01432e-06)
(-0.00683528 0.00199379 -0.00147444 0.00358648 -0.000328207 0.00128234)
(-0.00536777 0.0126054 -0.000522794 0.0134698 -6.75894e-05 -0.0064815)
(-0.0107984 0.0201597 -0.000875349 0.0128694 -0.000112924 -0.00236119)
(-0.0104826 0.0217912 -0.00100136 0.0121706 -0.000122729 -0.00202254)
(-0.00870009 0.0205839 -0.00106172 0.00914651 -0.00011709 -0.00114252)
(-0.00684228 0.0180332 -0.00110428 0.00654166 -0.000111246 -0.000619911)
(-0.00525507 0.0144032 -0.00114069 0.00427627 -0.000110778 -0.000166976)
(-0.00409638 0.010108 -0.00118049 0.00263185 -0.000122281 0.000135854)
(-0.00438911 0.00507687 -0.00127859 0.00177349 -0.000149026 0.000871772)
(0.00330875 0.0114333 -0.000475629 -0.0199398 -4.3707e-05 0.0101683)
(0.00666602 0.0194869 -0.000835963 -0.010084 -7.97933e-05 0.00138169)
(0.00558879 0.0218484 -0.00096662 -0.0103644 -8.64121e-05 0.00234572)
(0.00422874 0.0207086 -0.00103314 -0.00765583 -7.40332e-05 0.00148386)
(0.00298942 0.0181522 -0.00107795 -0.00548764 -5.7907e-05 0.000882866)
(0.00200836 0.014532 -0.001115 -0.00351868 -4.44923e-05 0.000223946)
(0.00135131 0.0102417 -0.00115309 -0.00204736 -3.92922e-05 -0.000337974)
(0.00175361 0.00508352 -0.0012447 -0.00107288 -5.22224e-05 -0.0012957)
(0.0124322 0.0136645 -0.000479545 -0.0639097 -4.87878e-05 0.0336128)
(0.0222342 0.00644011 -0.000878443 -0.0308505 -8.92538e-05 0.00504301)
(0.0171174 0.0107516 -0.00101258 -0.0324421 -8.03502e-05 0.00959279)
(0.0134994 0.00985549 -0.0010855 -0.0231549 -5.41354e-05 0.00585312)
(0.00950947 0.00885031 -0.00113091 -0.0159706 -2.48869e-05 0.00374254)
(0.00640654 0.00700202 -0.00116507 -0.00954599 1.87279e-06 0.00152585)
(0.00437168 0.00473126 -0.00119574 -0.00505185 2.897e-05 -0.000135474)
(0.00424868 0.00201923 -0.00127439 -0.00265325 4.73385e-05 -0.00172467)
(0.0519063 9.20184e-05 0.000261906 -0.0866189 -0.0184528 0.00842248)
(0.0217166 0.000106564 0.000435779 -0.0461727 0.00275624 0.0134643)
(0.0230799 8.0339e-05 0.000482114 -0.0438597 0.00141768 0.00929206)
(0.0160286 2.18001e-05 0.00050512 -0.0307371 0.00294089 0.00687662)
(0.0111379 -4.01189e-05 0.000521022 -0.0202512 0.00276038 0.00381703)
(0.00690521 -0.000106697 0.000532979 -0.0113015 0.00236198 0.00127955)
(0.00427341 -0.00021863 0.000541228 -0.00522042 0.00165392 -0.00077539)
(0.00355547 -0.000497532 0.000522072 -0.00249399 0.000581967 -0.00227261)
(0.0512517 4.07551e-05 0.00011702 -0.0835318 -0.0134723 0.00625416)
(0.0259299 4.54233e-05 0.000205368 -0.0511934 -0.0010632 0.0119534)
(0.0227088 2.47277e-05 0.000222943 -0.0443275 0.00221629 0.0100176)
(0.0160019 -1.8927e-05 0.000227155 -0.0311924 0.00376594 0.00703581)
(0.0107192 -7.10828e-05 0.00023164 -0.020042 0.00397111 0.00389601)
(0.00653137 -0.000130005 0.000238144 -0.0109627 0.00347107 0.00118342)
(0.00394508 -0.00024003 0.000247036 -0.00484002 0.00247846 -0.000916179)
(0.00345623 -0.000556552 0.000256801 -0.00225979 0.00110039 -0.00244052)
(0.0536713 1.61754e-05 7.3473e-05 -0.0849499 -0.00827501 0.00402494)
(0.0273957 1.09682e-05 0.00013956 -0.049672 -0.00125666 0.00817392)
(0.0238996 -4.48109e-06 0.000156128 -0.0437272 0.00132174 0.00754482)
(0.0166803 -3.82524e-05 0.00016043 -0.0309722 0.002727 0.0057023)
(0.0109017 -8.25891e-05 0.000163325 -0.0200148 0.00311636 0.00350332)
(0.00638995 -0.000135539 0.000167351 -0.0111355 0.00285479 0.00149553)
(0.00359626 -0.000243971 0.000172456 -0.00518022 0.00213673 -8.6201e-05)
(0.00281742 -0.000574854 0.000177764 -0.00256654 0.000953174 -0.00113676)
(0.0553686 9.6049e-06 5.76347e-05 -0.0859215 -0.00488762 0.00245632)
(0.0285858 -6.64914e-07 0.000111964 -0.0484455 -0.000951489 0.0051623)
(0.025025 -1.57354e-05 0.000128583 -0.0429491 0.000698931 0.00507432)
(0.0174702 -4.60642e-05 0.000133814 -0.030561 0.00171326 0.00410145)
(0.0113218 -8.67708e-05 0.000136239 -0.0198991 0.00210463 0.0027597)
(0.00651233 -0.000137099 0.000138167 -0.0112532 0.00202739 0.00144608)
(0.00349827 -0.000246579 0.000139624 -0.00546205 0.00159228 0.000384097)
(0.00251595 -0.000589485 0.00013957 -0.00289561 0.000747152 -0.000274565)
(0.0563465 7.84778e-06 4.44064e-05 -0.0864104 -0.00282693 0.00148918)
(0.0294095 -4.51209e-06 8.58796e-05 -0.0477219 -0.000637116 0.00321372)
(0.02583 -1.98871e-05 9.94245e-05 -0.0423787 0.000365512 0.00330684)
(0.0180843 -4.92496e-05 0.000104103 -0.0301783 0.00102109 0.00281003)
(0.0117065 -8.86715e-05 0.000105806 -0.0197291 0.00132368 0.00203085)
(0.00668178 -0.000138034 0.000106453 -0.0112569 0.00133224 0.00122353)
(0.0034963 -0.000248936 0.000106183 -0.00559247 0.00108805 0.000561951)
(0.00237114 -0.000600994 0.000104423 -0.00308912 0.000524271 0.000207273)
(0.056878 7.35294e-06 3.15734e-05 -0.0866294 -0.00157697 0.00092154)
(0.0299312 -5.8499e-06 6.05453e-05 -0.0473166 -0.000391401 0.00203731)
(0.0263528 -2.14749e-05 7.02045e-05 -0.0420217 0.000190649 0.00217793)
(0.0184992 -5.07125e-05 7.3665e-05 -0.0299009 0.000584211 0.00192496)
(0.0119844 -8.98146e-05 7.47616e-05 -0.0195671 0.000785713 0.00147074)
(0.00682457 -0.000138911 7.48747e-05 -0.0112019 0.000816839 0.000979618)
(0.00352853 -0.000251036 7.40885e-05 -0.00562397 0.000686237 0.000581267)
(0.00232793 -0.000609442 7.19183e-05 -0.00318268 0.000337607 0.000419609)
(0.0571489 7.29136e-06 1.87837e-05 -0.0867168 -0.0007905 0.000610697)
(0.0302308 -6.28022e-06 3.5819e-05 -0.0471009 -0.000208675 0.00138117)
(0.0266597 -2.20981e-05 4.14952e-05 -0.04182 9.26316e-05 0.00152589)
(0.0187488 -5.14459e-05 4.35507e-05 -0.0297293 0.000300122 0.00139077)
(0.0121574 -9.05307e-05 4.41557e-05 -0.0194494 0.000412732 0.00110805)
(0.00692048 -0.000139622 4.41903e-05 -0.011141 0.000437996 0.000793488)
(0.00356125 -0.000252869 4.34807e-05 -0.00561475 0.000374349 0.000548574)