/*--------------------------------*- C++ -*----------------------------------*\
| =========                 |                                                 |
| \\      /  F ield         | foam-extend: Open Source CFD                    |
|  \\    /   O peration     | Version:     3.1                                |
|   \\  /    A nd           | Web:         http://www.extend-project.de       |
|    \\/     M anipulation  |                                                 |
\*---------------------------------------------------------------------------*/
FoamFile
{
    version     2.0;
    format      ascii;
    class       pointVectorField;
    location    "1.1";
    object      pointD;
}
// * * * * * * * * * * * * * * * * * * * * * * * * * * * * * * * * * * * * * //

dimensions      [0 1 0 0 0 0 0];

internalField   nonuniform List<vector> 
405
(
(0 0 0)
(0 0 0)
(0 0 0)
(0 0 0)
(0 0 0)
(0.00199948 0.00208605 0.000976846)
(0.00119042 0.000717479 0.000573711)
(0.000910131 -9.42509e-05 -9.91542e-05)
(0.00106302 -0.000960749 -0.000792145)
(0.00165653 -0.002467 -0.00122797)
(0.0040215 0.00309715 0.000821391)
(0.00335664 0.00123469 0.00046345)
(0.00302953 -0.000153881 -0.00010363)
(0.00314011 -0.00158622 -0.000686871)
(0.00352017 -0.00356986 -0.00108054)
(0.00679214 0.00405934 0.000691321)
(0.00615955 0.00166213 0.000383733)
(0.00583597 -0.00028834 -8.99287e-05)
(0.00587566 -0.0022842 -0.00057536)
(0.00613777 -0.00481923 -0.000915708)
(0.00993081 0.00466322 0.000463823)
(0.00938489 0.001893 0.000262642)
(0.00907613 -0.000480019 -6.42181e-05)
(0.00904674 -0.00289317 -0.000400209)
(0.00916117 -0.00577848 -0.000626087)
(0.0133095 0.00498562 0.000242499)
(0.0128387 0.00196935 0.000147698)
(0.0125439 -0.000708693 -3.91326e-05)
(0.0124575 -0.00341806 -0.000233553)
(0.0124587 -0.00652015 -0.000346598)
(0.0167598 0.00507323 5.36289e-05)
(0.0163544 0.00192759 4.98282e-05)
(0.0160738 -0.000950376 -1.83657e-05)
(0.0159449 -0.00384954 -9.1786e-05)
(0.0158663 -0.00705213 -0.000107221)
(0.0201767 0.00501425 -8.00576e-05)
(0.0198119 0.00181348 -2.39547e-05)
(0.0195393 -0.00118521 -2.93038e-06)
(0.0193854 -0.00419755 1.58052e-05)
(0.019268 -0.00743094 6.68455e-05)
(0.0235329 0.00488742 -0.000141258)
(0.0231384 0.00167224 -5.88597e-05)
(0.0228203 -0.0013931 1.11963e-05)
(0.022689 -0.00447932 7.8947e-05)
(0.0225984 -0.00772549 0.000158028)
(0 0 0)
(0 0 0)
(0 0 0)
(0 0 0)
(0 0 0)
(0.00221328 0.00194041 0.00057602)
(0.00143431 0.000598443 0.000328059)
(0.00120677 -8.41356e-05 -8.4379e-05)
(0.00132932 -0.000791964 -0.000523332)
(0.00189442 -0.00225448 -0.000809613)
(0.00429885 0.00312056 0.000588518)
(0.00366859 0.00123711 0.000318873)
(0.00339222 -0.000195668 -0.000100451)
(0.0034636 -0.00166484 -0.00053363)
(0.00381307 -0.00366672 -0.000833064)
(0.0070152 0.00408924 0.00049907)
(0.00642304 0.0016726 0.000265731)
(0.00614107 -0.000342455 -8.50821e-05)
(0.00614049 -0.00239654 -0.000445817)
(0.00636281 -0.00494195 -0.000703854)
(0.0100827 0.00471351 0.000350059)
(0.00956728 0.00192144 0.000189077)
(0.00928772 -0.000529365 -6.14423e-05)
(0.00922137 -0.00301519 -0.000319539)
(0.00930192 -0.00591487 -0.000497281)
(0.013375 0.00503881 0.000192258)
(0.0129281 0.00200498 0.000109613)
(0.0126542 -0.000743527 -3.87051e-05)
(0.012536 -0.00351908 -0.000192763)
(0.0125084 -0.00663248 -0.000285894)
(0.0167482 0.00512244 5.43487e-05)
(0.0163602 0.00196379 4.03239e-05)
(0.0160944 -0.0009694 -2.06605e-05)
(0.0159408 -0.00392073 -8.5219e-05)
(0.0158397 -0.00713213 -0.000104363)
(0.0201082 0.00505097 -4.3371e-05)
(0.0197548 0.00184122 -1.09352e-05)
(0.0194926 -0.00119232 -8.37262e-06)
(0.0193228 -0.00423719 -7.17686e-06)
(0.0191908 -0.00747648 2.49383e-05)
(0.0234421 0.00491578 -8.67161e-05)
(0.0230572 0.00169317 -3.43234e-05)
(0.0227486 -0.00139502 4.37447e-07)
(0.0226051 -0.0045013 3.31225e-05)
(0.022503 -0.00775135 8.58249e-05)
(0 0 0)
(0 0 0)
(0 0 0)
(0 0 0)
(0 0 0)
(0.00235682 0.00196678 0.000317587)
(0.00153646 0.000587941 0.000175753)
(0.00130079 -8.64903e-05 -6.58713e-05)
(0.00143827 -0.000783891 -0.000327415)
(0.00203381 -0.00230105 -0.000498091)
(0.00448709 0.00309643 0.000355674)
(0.00382033 0.00121417 0.000185108)
(0.00353173 -0.000209437 -8.23661e-05)
(0.00362376 -0.00167006 -0.000360579)
(0.00401102 -0.00367811 -0.000551603)
(0.00718141 0.00404834 0.000320234)
(0.00657624 0.00164943 0.000161817)
(0.00628831 -0.000364168 -7.34068e-05)
(0.00629398 -0.00241668 -0.000315897)
(0.00652924 -0.00494088 -0.000488235)
(0.0102101 0.00466821 0.000239923)
(0.00968791 0.0019009 0.000119877)
(0.0094035 -0.000550023 -5.56754e-05)
(0.00933658 -0.00303545 -0.00023623)
(0.00942259 -0.00590644 -0.000363158)
(0.0134505 0.00499881 0.000146405)
(0.0130023 0.00199115 7.29607e-05)
(0.012725 -0.000758114 -3.74584e-05)
(0.0126018 -0.0035334 -0.000150982)
(0.0125726 -0.00661658 -0.00022594)
(0.0167748 0.00509521 6.07443e-05)
(0.0163882 0.00195779 3.03922e-05)
(0.0161206 -0.000976146 -2.28002e-05)
(0.01596 -0.00392655 -7.72649e-05)
(0.0158536 -0.00711313 -0.000105254)
(0.0200979 0.00504184 -2.28802e-06)
(0.0197479 0.00184268 -2.08525e-06)
(0.0194857 -0.00119231 -1.40944e-05)
(0.0193087 -0.00423614 -2.58176e-05)
(0.0191688 -0.00746041 -2.00141e-05)
(0.0234172 0.00492058 -3.00772e-05)
(0.0230379 0.0017003 -1.78459e-05)
(0.0227309 -0.00139117 -1.3011e-05)
(0.0225781 -0.00449693 -9.07656e-06)
(0.0224651 -0.00773839 8.55741e-06)
(0 0 0)
(0 0 0)
(0 0 0)
(0 0 0)
(0 0 0)
(0.002433 0.00198977 0.000168435)
(0.00157719 0.000587101 9.11178e-05)
(0.00133104 -8.74905e-05 -4.89769e-05)
(0.00148069 -0.000785837 -0.000201909)
(0.00210527 -0.00233943 -0.000297313)
(0.00458748 0.00308444 0.000199302)
(0.00389129 0.00120106 0.000100718)
(0.00359052 -0.000212936 -6.3245e-05)
(0.00369806 -0.00166495 -0.000234447)
(0.00411452 -0.00367878 -0.000345661)
(0.0072828 0.00401473 0.000188152)
(0.00665623 0.00162927 9.13561e-05)
(0.00635882 -0.000369814 -5.88763e-05)
(0.00637486 -0.00240812 -0.000213802)
(0.00663281 -0.00491875 -0.000318779)
(0.0102939 0.00462493 0.000149127)
(0.00975907 0.0018787 7.02971e-05)
(0.00946768 -0.000555094 -4.66815e-05)
(0.00940596 -0.00302311 -0.000166531)
(0.00950585 -0.0058715 -0.000248686)
(0.0135083 0.00495687 9.89421e-05)
(0.0130543 0.00197227 4.50144e-05)
(0.012772 -0.000760088 -3.31498e-05)
(0.0126502 -0.0035178 -0.000112613)
(0.0126273 -0.00657591 -0.000165798)
(0.016806 0.00506374 5.0338e-05)
(0.0164183 0.00194601 2.07689e-05)
(0.0161476 -0.000973712 -2.22557e-05)
(0.0159857 -0.00390873 -6.51432e-05)
(0.0158795 -0.00707322 -9.08055e-05)
(0.0201082 0.00502707 1.23883e-05)
(0.0197606 0.00183968 8.26065e-07)
(0.0194967 -0.0011857 -1.71649e-05)
(0.0193165 -0.00421802 -3.39208e-05)
(0.0191715 -0.00742659 -3.88353e-05)
(0.023418 0.00492115 -5.68858e-06)
(0.0230429 0.00170559 -1.08226e-05)
(0.0227342 -0.00138219 -2.09823e-05)
(0.0225755 -0.00448163 -3.09473e-05)
(0.0224535 -0.00771288 -2.95279e-05)
(0 0 0)
(0 0 0)
(0 0 0)
(0 0 0)
(0 0 0)
(0.00247129 0.00200332 8.70708e-05)
(0.00159203 0.000588219 4.57334e-05)
(0.00133842 -8.69425e-05 -3.47533e-05)
(0.00149531 -0.000786739 -0.000122876)
(0.00213973 -0.00235991 -0.000174664)
(0.0046394 0.00308077 0.00010696)
(0.00392183 0.00119595 5.2034e-05)
(0.00361263 -0.000211551 -4.61639e-05)
(0.00372938 -0.00165776 -0.00014884)
(0.00416636 -0.00367632 -0.000210935)
(0.00733907 0.0039972 0.000104482)
(0.00669487 0.00161881 4.84231e-05)
(0.00639054 -0.000367929 -4.44465e-05)
(0.00641399 -0.00239407 -0.000140119)
(0.00668964 -0.00489862 -0.000200552)
(0.0103447 0.00459908 8.66111e-05)
(0.00979772 0.00186577 3.84051e-05)
(0.00950116 -0.000552148 -3.64794e-05)
(0.0094443 -0.0030041 -0.000112895)
(0.00955674 -0.00583938 -0.000162403)
(0.0135482 0.00493009 6.14137e-05)
(0.0130868 0.00196055 2.55628e-05)
(0.012801 -0.000755134 -2.70438e-05)
(0.0126816 -0.00349575 -8.00476e-05)
(0.012666 -0.006538 -0.000114415)
(0.0168332 0.00504249 3.52896e-05)
(0.0164419 0.00193864 1.23038e-05)
(0.016169 -0.000966083 -1.96104e-05)
(0.0160076 -0.00388538 -5.08799e-05)
(0.015904 -0.00703461 -7.00348e-05)
(0.020124 0.00501576 1.31123e-05)
(0.0197759 0.00183827 5.14151e-08)
(0.0195105 -0.00117546 -1.73264e-05)
(0.0193291 -0.00419503 -3.32987e-05)
(0.0191827 -0.00739118 -4.04724e-05)
(0.0234272 0.00491935 1.25719e-06)
(0.0230524 0.00171005 -8.82616e-06)
(0.0227415 -0.00137022 -2.34412e-05)
(0.02258 -0.00446081 -3.74234e-05)
(0.0224544 -0.00768253 -4.16657e-05)
(0 0 0)
(0 0 0)
(0 0 0)
(0 0 0)
(0 0 0)
(0.00249005 0.002011 4.36552e-05)
(0.0015965 0.000589753 2.20568e-05)
(0.00133804 -8.57646e-05 -2.32933e-05)
(0.00149904 -0.000786541 -7.29308e-05)
(0.00215561 -0.00236954 -0.000100264)
(0.00466525 0.00308099 5.50172e-05)
(0.00393359 0.00119522 2.54144e-05)
(0.00361881 -0.000208388 -3.17381e-05)
(0.00374084 -0.00165124 -9.14808e-05)
(0.00419101 -0.00367289 -0.000124923)
(0.00736869 0.00399047 5.51e-05)
(0.00671217 0.00161545 2.40176e-05)
(0.00640312 -0.000363245 -3.13585e-05)
(0.00643118 -0.00238157 -8.8291e-05)
(0.00671863 -0.00488386 -0.000121526)
(0.0103738 0.00458738 4.72806e-05)
(0.00981745 0.00186088 1.94471e-05)
(0.0095173 -0.000546103 -2.64236e-05)
(0.00946385 -0.00298709 -7.30367e-05)
(0.0095852 -0.00581586 -0.000101171)
(0.0135734 0.00491708 3.51971e-05)
(0.0131058 0.00195609 1.32084e-05)
(0.0128174 -0.000747547 -2.02723e-05)
(0.0127002 -0.00347589 -5.37502e-05)
(0.0126902 -0.0065093 -7.42616e-05)
(0.0168528 0.00503182 2.16387e-05)
(0.0164579 0.00193652 6.12877e-06)
(0.0161833 -0.000956748 -1.56199e-05)
(0.0160228 -0.00386414 -3.66696e-05)
(0.0159218 -0.00700397 -4.91021e-05)
(0.0201377 0.00501002 8.88071e-06)
(0.0197879 0.00183956 -1.42355e-06)
(0.0195213 -0.00116448 -1.50931e-05)
(0.0193396 -0.00417366 -2.75658e-05)
(0.0191933 -0.00736119 -3.33603e-05)
(0.0234362 0.0049188 7.46873e-07)
(0.02306 0.00171493 -8.31016e-06)
(0.0227471 -0.00135803 -2.1415e-05)
(0.0225845 -0.0044406 -3.38727e-05)
(0.0224579 -0.00765497 -3.84504e-05)
(0 0 0)
(0 0 0)
(0 0 0)
(0 0 0)
(0 0 0)
(0.00249907 0.00201526 2.07193e-05)
(0.00159723 0.000591126 9.9877e-06)
(0.00133579 -8.45965e-05 -1.41608e-05)
(0.00149905 -0.000785952 -4.05437e-05)
(0.00216262 -0.00237362 -5.42087e-05)
(0.0046777 0.00308247 2.65424e-05)
(0.00393734 0.00119624 1.14836e-05)
(0.00361904 -0.000205239 -1.96994e-05)
(0.00374402 -0.00164631 -5.22603e-05)
(0.00420213 -0.00366973 -6.92198e-05)
(0.00738363 0.00398909 2.70507e-05)
(0.00671919 0.0016156 1.09154e-05)
(0.0064071 -0.000358481 -1.98355e-05)
(0.00643784 -0.00237241 -5.13773e-05)
(0.00673254 -0.00487402 -6.8459e-05)
(0.0103895 0.00458361 2.3805e-05)
(0.00982688 0.00186042 8.93111e-06)
(0.00952435 -0.000540045 -1.70349e-05)
(0.00947299 -0.00297457 -4.33193e-05)
(0.00959999 -0.0058004 -5.80974e-05)
(0.0135882 0.00491241 1.83113e-05)
(0.0131162 0.00195588 6.05733e-06)
(0.012826 -0.0007403 -1.34087e-05)
(0.0127102 -0.00346108 -3.27526e-05)
(0.012704 -0.00648997 -4.38728e-05)
(0.0168655 0.00502796 1.16035e-05)
(0.0164676 0.0019375 2.42899e-06)
(0.0161918 -0.000948335 -1.08013e-05)
(0.0160319 -0.00384804 -2.34917e-05)
(0.0159329 -0.00698255 -3.05568e-05)
(0.0201472 0.00500829 4.5879e-06)
(0.0197956 0.00184232 -2.02848e-06)
(0.0195281 -0.00115503 -1.10573e-05)
(0.0193464 -0.00415712 -1.92516e-05)
(0.0192007 -0.00733924 -2.28729e-05)
(0.0234427 0.00491951 -7.37146e-07)
(0.0230647 0.00171958 -6.89566e-06)
(0.0227502 -0.0013478 -1.6081e-05)
(0.0225873 -0.00442443 -2.47883e-05)
(0.0224609 -0.0076338 -2.79813e-05)
(0 0 0)
(0 0 0)
(0 0 0)
(0 0 0)
(0 0 0)
(0.00250309 0.00201743 8.19081e-06)
(0.00159697 0.000592042 3.77886e-06)
(0.00133393 -8.37869e-05 -6.66287e-06)
(0.0014983 -0.000785442 -1.80488e-05)
(0.00216545 -0.00237511 -2.36833e-05)
(0.00468319 0.00308381 1.05842e-05)
(0.00393816 0.00119739 4.29746e-06)
(0.00361793 -0.000203052 -9.397e-06)
(0.00374438 -0.00164329 -2.36805e-05)
(0.0042067 -0.00366758 -3.07349e-05)
(0.00739047 0.00398949 1.09008e-05)
(0.00672166 0.00161665 4.0796e-06)
(0.00640785 -0.000355133 -9.57358e-06)
(0.00643997 -0.0023669 -2.35514e-05)
(0.00673856 -0.0048684 -3.07095e-05)
(0.0103971 0.00458309 9.74505e-06)
(0.00983092 0.00186135 3.34432e-06)
(0.00952702 -0.000535787 -8.31862e-06)
(0.00947677 -0.00296704 -2.0091e-05)
(0.00960683 -0.00579169 -2.63606e-05)
(0.0135958 0.00491145 7.63564e-06)
(0.0131211 0.00195699 2.22893e-06)
(0.01283 -0.000735272 -6.65375e-06)
(0.0127149 -0.0034521 -1.54433e-05)
(0.0127108 -0.00647892 -2.02435e-05)
(0.0168723 0.00502721 4.87055e-06)
(0.0164727 0.00193917 6.87315e-07)
(0.0161961 -0.000942613 -5.50799e-06)
(0.0160366 -0.00383815 -1.14164e-05)
(0.0159388 -0.00697001 -1.45346e-05)
(0.0201525 0.00500831 1.73359e-06)
(0.0197997 0.00184481 -1.40902e-06)
(0.0195316 -0.00114872 -5.82532e-06)
(0.01935 -0.00414681 -9.8203e-06)
(0.0192047 -0.00732602 -1.14815e-05)
(0.0234463 0.00492047 -9.55823e-07)
(0.023067 0.00172293 -3.95959e-06)
(0.0227515 -0.00134104 -8.57676e-06)
(0.0225886 -0.00441416 -1.29492e-05)
(0.0224625 -0.00762069 -1.44944e-05)
(0 0 0)
(0 0 0)
(0 0 0)
(0 0 0)
(0 0 0)
(0.00250422 0.00201809 0)
(0.0015968 0.000592361 -0)
(0.00133324 -8.35009e-05 0)
(0.00149796 -0.000785248 0)
(0.00216619 -0.00237547 0)
(0.00468473 0.00308432 0)
(0.00393822 0.00119786 -0)
(0.00361738 -0.000202279 0)
(0.00374428 -0.00164227 0)
(0.00420791 -0.00366682 0)
(0.00739242 0.00398982 0)
(0.00672222 0.00161715 -0)
(0.00640787 -0.000353942 0)
(0.0064404 -0.00236507 0)
(0.00674021 -0.00486657 0)
(0.0103993 0.00458319 0)
(0.00983201 0.00186186 -0)
(0.00952767 -0.00053427 0)
(0.00947776 -0.00296454 0)
(0.00960879 -0.00578887 0)
(0.0135982 0.00491142 0)
(0.0131226 0.00195756 -0)
(0.0128311 -0.000733487 0)
(0.0127162 -0.0034491 0)
(0.0127128 -0.00647533 0)
(0.0168744 0.00502721 0)
(0.0164742 0.00193991 -0)
(0.0161974 -0.000940595 0)
(0.016038 -0.00383483 0)
(0.0159406 -0.00696589 0)
(0.0201542 0.00500849 0)
(0.019801 0.00184578 -0)
(0.0195326 -0.0011465 0)
(0.0193511 -0.00414331 0)
(0.019206 -0.00732161 0)
(0.0234474 0.00492085 -0)
(0.0230676 0.00172414 -0)
(0.0227518 -0.00133867 0)
(0.0225889 -0.00441064 0)
(0.022463 -0.00761625 0)
)
;

boundaryField
{
    interface
    {
        type            calculated;
    }
    symmetry
    {
        type            symmetryPlane;
    }
    bottom
    {
        type            fixedValue;
        value           uniform (0 0 0);
    }
}


// ************************************************************************* //
