/*--------------------------------*- C++ -*----------------------------------*\
| =========                 |                                                 |
| \\      /  F ield         | foam-extend: Open Source CFD                    |
|  \\    /   O peration     | Version:     3.1                                |
|   \\  /    A nd           | Web:         http://www.extend-project.de       |
|    \\/     M anipulation  |                                                 |
\*---------------------------------------------------------------------------*/
FoamFile
{
    version     2.0;
    format      ascii;
    class       volScalarField;
    location    "1.1";
    object      sigmaEq;
}
// * * * * * * * * * * * * * * * * * * * * * * * * * * * * * * * * * * * * * //

dimensions      [1 -1 -2 0 0 0 0];

internalField   nonuniform List<scalar> 
256
(
563.136
235.426
253.669
570.02
423.846
308.245
293.403
392.499
377.433
292.863
280.699
349.785
291.018
260.182
250.602
263.648
212.264
218.2
210.988
187.868
143.483
170.12
165.119
122.915
92.0767
118.912
115.186
74.5874
68.9155
68.2053
59.5877
49.0789
554.599
276.193
283.635
548.227
439.106
325.392
321.358
425.753
372.116
280.889
272.67
352.302
284.279
237.849
228.961
259.914
203.146
192.294
184.475
178.477
134.559
146.356
140.637
112.481
84.6759
100.865
96.8812
65.7057
65.2722
59.7097
50.5048
44.0521
561.799
290.23
293.189
547.61
436.227
332.601
328.989
421.497
370.751
283.274
275.021
350.36
282.825
234.809
225.185
257.253
202.194
186.896
178.085
175.551
134.058
140.55
134.024
109.782
84.3466
96.4581
92.0275
63.195
64.5294
58.6066
48.0772
39.581
567.537
295.19
295.877
549.103
435.93
337.306
332.603
417.802
370.719
287.171
277.958
347.892
283.278
237.266
226.663
255.456
203.254
188.242
178.496
174.21
135.611
141.228
133.936
108.848
85.9765
97.0109
92.0452
62.436
65.6637
59.6405
48.0621
38.2081
571.02
296.686
296.063
550.077
437.122
340.089
334.2
416.072
371.748
290.41
280.198
346.464
284.564
240.408
228.958
254.494
204.919
191.029
180.553
173.655
137.542
143.531
135.645
108.586
87.8317
98.8146
93.4152
62.3304
67.1654
61.0678
48.7896
38.1765
572.974
296.934
295.5
550.437
438.491
341.605
334.733
415.278
373.007
292.627
281.578
345.749
285.91
242.895
230.779
254.027
206.407
193.468
182.46
173.42
139.102
145.67
137.369
108.52
89.2567
100.477
94.7784
62.361
68.408
62.2438
49.4931
38.4131
574.009
296.829
294.903
550.484
439.534
342.365
334.808
414.899
374.021
293.946
282.305
345.404
286.939
244.49
231.913
253.806
207.452
195.101
183.742
173.31
140.128
147.13
138.568
108.496
90.1638
101.605
95.7161
62.3909
69.2368
63.0243
49.9603
38.5883
574.457
296.718
294.557
550.451
440.078
342.676
334.769
414.738
374.568
294.55
282.604
345.261
287.483
245.253
232.439
253.714
207.981
195.897
184.361
173.261
140.625
147.847
139.157
108.484
90.5925
102.155
96.1716
62.3989
69.6373
63.408
50.1799
38.662
)
;

boundaryField
{
    interface
    {
        type            calculated;
        value           nonuniform List<scalar> 
192
(
920.013
489.684
465.116
338.439
234.538
145.409
88.0559
63.8613
895.552
519.906
463.138
341.311
235.474
147.411
90.1963
65.9066
911.254
509.645
459.101
338.923
234.518
147.6
90.5291
63.2248
924.299
505.5
457.068
337.948
234.926
149.214
92.7979
64.3673
932.385
505.099
457.102
338.234
235.958
150.916
94.8534
65.8445
937.037
505.91
458.008
339.076
237.044
152.265
96.3206
67.0745
939.54
506.792
458.943
339.889
237.873
153.142
97.2082
67.8584
940.628
507.303
459.486
340.355
238.307
153.564
97.6089
68.2109
638.471
397.366
388.238
298.253
222.311
153.043
100.261
74.4639
208.811
290.428
304.785
278.045
238.389
188.244
132.758
76.7745
241.157
263.542
289.983
267.825
231.504
183.663
129.232
68.0828
656.775
344.616
356.409
268.848
198.768
133.936
83.9371
54.9586
905.714
459.603
437.689
308.841
206.125
119.166
62.6454
43.9632
865.171
508.547
441.417
313.574
205.833
118.977
62.6325
44.3193
874.935
496.535
436.834
310.574
203.423
117.349
60.707
37.215
885.205
488.693
432.358
307.431
201.285
115.997
59.7308
35.5328
891.615
485.304
429.99
305.441
199.869
114.974
59.039
35.4435
895.077
483.979
428.968
304.4
199.003
114.248
58.5096
35.6887
896.76
483.484
428.575
303.905
198.512
113.779
58.1381
35.8365
897.424
483.318
428.444
303.706
198.287
113.547
57.9481
35.8781
71.4542
68.8478
68.5648
69.4172
70.8329
72.0346
72.8653
73.249
49.192
46.5394
47.1913
48.6231
50.0034
51.0638
51.7654
52.1195
30.0255
25.5341
22.8145
21.8533
21.8539
22.0421
22.1743
22.2234
51.4116
46.6843
41.4304
39.515
39.5654
39.9622
40.269
40.4041
)
;
    }
    symmetry
    {
        type            symmetryPlane;
    }
    bottom
    {
        type            calculated;
        value           nonuniform List<scalar> 
32
(
504.42
440.792
436.005
438.724
441.07
442.418
443.094
443.365
148.112
176.858
184.58
185.077
183.799
182.421
181.429
180.927
203.22
197.586
193.216
188.515
184.959
182.59
181.17
180.506
575.744
464.927
435.203
427.343
425.463
425.077
425.002
424.979
)
;
    }
}


// ************************************************************************* //
