/*--------------------------------*- C++ -*----------------------------------*\
| =========                 |                                                 |
| \\      /  F ield         | foam-extend: Open Source CFD                    |
|  \\    /   O peration     | Version:     3.1                                |
|   \\  /    A nd           | Web:         http://www.extend-project.de       |
|    \\/     M anipulation  |                                                 |
\*---------------------------------------------------------------------------*/
FoamFile
{
    version     2.0;
    format      ascii;
    class       volScalarField;
    location    "1.1";
    object      sigmaCauchyEq;
}
// * * * * * * * * * * * * * * * * * * * * * * * * * * * * * * * * * * * * * //

dimensions      [1 -1 -2 0 0 0 0];

internalField   nonuniform List<scalar> 
256
(
675.349
243.174
236.961
435.791
439.526
312.045
286.18
374.993
398.024
295.287
274.029
326.611
300.148
261.091
246.314
252.648
216.018
218.173
208.406
182.553
144.082
169.511
163.821
121.085
91.6056
118.15
114.672
74.2275
67.9985
67.3675
59.6649
49.2417
662.365
285.825
266.603
425.493
463.634
332.497
307.635
394.513
392.862
284.122
264.493
327.792
294.261
239.559
223.789
247.676
207.125
192.801
181.617
172.969
135.328
146.134
139.257
110.572
84.3114
100.329
96.3687
65.3001
64.4784
59.0375
50.5251
44.121
673.347
300.806
275.067
421.489
458.796
339.703
314.471
391.098
390.613
286.268
266.595
325.874
292.308
236.307
220.008
245.007
205.915
187.291
175.251
170.092
134.752
140.31
132.654
107.886
84.0046
95.9591
91.5049
62.7696
63.7621
57.9728
48.0767
39.6593
681.719
306.105
277.256
420.28
456.909
344.246
318.048
388.862
389.637
289.899
269.636
324.117
292.214
238.551
221.578
243.566
206.753
188.514
175.703
168.898
136.265
140.946
132.569
106.992
85.6722
96.5144
91.5044
62.0011
64.9394
59.0065
48.0398
38.2627
686.685
307.721
277.284
419.819
457.181
346.933
319.769
388.203
390.013
292.984
272.032
323.382
293.087
241.569
223.973
242.989
208.239
191.227
177.805
168.509
138.15
143.22
134.285
106.784
87.5364
98.3108
92.863
61.9012
66.4495
60.4199
48.7569
38.2214
689.44
308.015
276.706
419.522
458.081
348.407
320.445
388.083
390.908
295.127
273.55
323.161
294.182
243.995
225.881
242.818
209.606
193.628
179.754
168.414
139.671
145.34
136.022
106.77
88.9556
99.9642
94.2232
61.9438
67.6861
61.5808
49.4569
38.4562
690.89
307.929
276.138
419.308
458.905
349.155
320.631
388.091
391.744
296.416
274.373
323.119
295.077
245.566
227.078
242.789
210.581
195.244
181.069
168.4
140.667
146.791
137.233
106.786
89.8525
101.084
95.1623
61.9856
68.5044
62.3499
49.924
38.6333
691.515
307.826
275.815
419.193
459.367
349.464
320.652
388.106
392.222
297.011
274.721
323.118
295.564
246.319
227.636
242.79
211.077
196.033
181.706
168.4
141.148
147.503
137.829
106.794
90.2743
101.631
95.6196
62.0007
68.8982
62.7276
50.1442
38.7087
)
;

boundaryField
{
    interface
    {
        type            calculated;
        value           nonuniform List<scalar> 
192
(
1073.05
530.951
501.359
356.255
241.875
147.268
88.0546
63.4972
1035.05
565.58
498.219
358.777
242.441
149.086
90.0975
65.5091
1051.69
551.497
492.173
355.388
241.074
149.189
90.4753
62.915
1066.39
544.754
488.361
353.486
241.12
150.731
92.7847
64.1362
1075.61
542.96
487.27
353.121
241.885
152.374
94.857
65.6549
1080.93
543.085
487.565
353.575
242.796
153.671
96.3211
66.8983
1083.79
543.656
488.204
354.184
243.521
154.511
97.1986
67.6825
1085.03
544.051
488.633
354.566
243.909
154.913
97.5924
68.0335
714.514
408.625
405.231
305.641
225.24
153.265
99.5854
73.4317
214.024
292.427
306.556
278.328
237.889
187.298
131.801
75.8871
229.165
259.927
284.656
264.217
229.131
182.401
128.698
68.1226
573.534
333.811
337.792
259.603
194.053
132.289
83.6527
55.1782
757.68
419.866
401.762
291
198.303
116.686
62.1244
43.8887
732.496
459.264
404.289
294.758
197.724
116.308
61.9829
44.1874
743.383
450.046
400.698
292.107
195.464
114.715
60.0578
37.1134
753.481
444.87
397.771
289.657
193.6
113.453
59.1062
35.4177
759.733
443.212
396.637
288.309
192.454
112.524
58.4414
35.3182
763.175
442.917
396.429
287.735
191.804
111.88
57.9366
35.561
764.906
442.991
396.51
287.529
191.456
111.469
57.5839
35.7101
765.613
443.076
396.596
287.467
191.301
111.267
57.4041
35.7529
70.2452
67.7679
67.5664
68.4712
69.898
71.0903
71.9071
72.2807
48.5652
46.0012
46.6679
48.0911
49.4559
50.5014
51.1923
51.5411
30.046
25.5391
22.8108
21.839
21.8329
22.018
22.1488
22.1974
51.6828
46.891
41.629
39.6761
39.7039
40.0928
40.3988
40.5345
)
;
    }
    symmetry
    {
        type            symmetryPlane;
    }
    bottom
    {
        type            calculated;
        value           nonuniform List<scalar> 
32
(
593.362
515.052
511.518
516.19
519.794
521.85
522.894
523.321
152.645
182.223
190.474
191.149
189.924
188.557
187.565
187.062
191.582
187.246
182.778
178.111
174.631
172.331
170.961
170.323
464.715
378.844
351.196
342.681
339.997
339.076
338.714
338.573
)
;
    }
}


// ************************************************************************* //
