/*--------------------------------*- C++ -*----------------------------------*\
| =========                 |                                                 |
| \\      /  F ield         | foam-extend: Open Source CFD                    |
|  \\    /   O peration     | Version:     3.1                                |
|   \\  /    A nd           | Web:         http://www.extend-project.de       |
|    \\/     M anipulation  |                                                 |
\*---------------------------------------------------------------------------*/
FoamFile
{
    version     2.0;
    format      ascii;
    class       volSymmTensorField;
    location    "1.1";
    object      sigma;
}
// * * * * * * * * * * * * * * * * * * * * * * * * * * * * * * * * * * * * * //

dimensions      [1 -1 -2 0 0 0 0];

internalField   nonuniform List<symmTensor> 
256
(
(400.163 137.771 -6.7605 920.558 78.2585 463.989)
(42.2384 114.23 -19.4067 167.131 22.5732 60.8387)
(-153.125 106.954 -20.4816 -302.71 -46.5154 -153.76)
(-503.183 116.422 -8.15531 -1020.6 -106.768 -540.358)
(-169.28 56.9136 -8.33473 287.178 -14.9104 -54.1328)
(-68.7634 151.905 -30.5693 99.7459 -6.55125 -24.0158)
(4.06231 148.302 -32.3434 -129.839 8.52313 -5.43114)
(103.398 52.3681 -10.8274 -308.813 18.1598 27.8631)
(-58.3734 70.4023 -4.19358 338.647 -5.82443 44.1567)
(-68.2998 148.351 -20.4445 85.6928 -1.74477 -17.6894)
(-10.6596 148.4 -21.042 -123.149 3.03129 -23.57)
(-14.6366 71.2271 -5.14841 -368.625 7.84845 -78.1219)
(-79.1939 62.1452 -3.8904 223.117 -12.3941 8.27877)
(-64.3132 135.998 -15.8048 57.513 -3.21203 -20.6323)
(-5.64733 136.478 -16.3413 -87.6603 4.99996 -15.0016)
(15.9528 63.1203 -5.11393 -243.887 15.089 -35.4884)
(-68.2529 54.1331 -2.79102 146.431 -12.0389 3.87759)
(-55.5371 116.82 -11.5268 35.1625 -3.05219 -18.8122)
(-6.94423 117.307 -12.091 -62.9801 4.17677 -15.2832)
(10.0857 55.178 -3.95534 -166.317 13.7643 -31.1374)
(-65.5287 41.8316 -2.50133 75.2519 -10.6622 -5.79075)
(-49.1547 92.4077 -8.6639 14.8442 -2.81978 -18.6429)
(-6.92453 93.0499 -9.1699 -41.8305 3.34226 -14.9055)
(11.9341 43.1254 -3.48862 -95.7807 11.6612 -22.3695)
(-61.958 26.9531 -2.77441 27.6686 -8.04201 -9.60291)
(-45.2208 64.516 -6.66304 -0.745386 -2.5135 -18.8049)
(-6.58926 65.3155 -6.92704 -26.8627 2.32739 -15.782)
(13.2687 28.9054 -3.24347 -47.9871 8.30291 -19.3898)
(-74.9408 12.2007 -3.00727 -3.64353 -3.19902 -18.4962)
(-61.0584 32.5849 -4.64588 -19.5232 -1.06424 -30.0632)
(7.87606 32.5703 -4.79991 -9.58374 0.769163 -9.14264)
(26.3053 12.3674 -3.07146 -18.9678 2.90295 -15.2801)
(397.806 162.694 -5.24519 902.53 50.9603 479.175)
(51.6991 145.709 -16.3482 167.585 12.5303 74.3619)
(-137.595 139.828 -17.8063 -270.437 -35.2435 -141.727)
(-481.099 142.372 -7.38949 -974.582 -78.1755 -531.368)
(-101.925 62.9363 -9.02935 373.832 2.47117 31.5019)
(-28.6878 163.796 -30.4646 139.883 -1.38748 19.6816)
(-55.9939 161.629 -32.5806 -207.444 -1.62238 -64.6104)
(15.3245 60.7481 -11.9542 -432.639 -4.44141 -70.0827)
(-50.7937 65.3397 -6.21693 343.382 -8.65192 52.5338)
(-50.4654 141.686 -24.2708 96.7418 -2.46016 -2.08126)
(-28.9458 141.343 -25.4747 -143.219 5.81221 -35.3553)
(-22.9152 65.0556 -8.5298 -380.818 13.0014 -80.9375)
(-62.9069 54.3715 -3.62285 236.562 -14.5855 23.5296)
(-46.8973 122.672 -16.8601 69.8664 -3.43207 -6.21967)
(-23.3585 122.685 -18.0618 -103.309 8.29649 -27.4285)
(-2.66782 54.6644 -6.30602 -261.643 20.6126 -49.1137)
(-59.2431 44.9043 -1.14221 151.2 -15.8867 10.7192)
(-43.1643 101.468 -10.7026 43.3108 -3.70737 -9.74531)
(-18.2006 101.574 -11.9155 -69.3121 8.33062 -21.716)
(-0.120429 45.4078 -3.81123 -170.749 21.4203 -36.3132)
(-58.298 33.5655 0.405398 78.4137 -14.0956 -0.529546)
(-40.0739 78.5719 -6.10598 20.4456 -3.31661 -12.5772)
(-14.767 78.9918 -7.17955 -43.9576 7.06672 -18.587)
(3.39862 34.6406 -1.95026 -97.2217 18.583 -26.6301)
(-57.476 20.7119 1.07907 28.3279 -10.012 -7.01696)
(-39.93 54.278 -2.94093 1.42679 -2.4464 -16.2947)
(-11.0307 55.065 -3.70783 -25.9653 5.08464 -16.6527)
(7.94987 22.88 -0.571844 -46.3224 13.3339 -20.9999)
(-70.2079 9.62704 1.29926 -1.42832 -4.08223 -16.3401)
(-57.3399 27.8865 -0.771764 -17.9792 -0.841366 -29.5105)
(3.31089 27.9357 -1.43867 -9.96285 2.41063 -10.6564)
(20.176 10.0262 0.114571 -19.7641 5.96568 -18.1187)
(415.74 173.04 -3.72514 930.14 27.9877 515.008)
(56.7572 155.525 -11.0997 174.048 5.50499 85.5528)
(-140.377 149.928 -12.2198 -273.985 -22.9983 -151.492)
(-502.862 152.415 -5.37322 -1005.33 -48.5299 -570.589)
(-102.867 65.6559 -7.36738 375.454 3.93037 61.7339)
(-26.394 170.106 -21.8829 143.906 -0.434861 33.7331)
(-61.8568 168.42 -23.5562 -217.737 -2.84842 -83.0094)
(11.1335 63.7602 -9.71269 -440.773 -6.37408 -105.76)
(-50.6153 65.8231 -6.1329 347.438 -4.33702 74.5625)
(-50.29 143.859 -19.1446 99.2279 -1.10669 7.50278)
(-32.2863 143.5 -20.1521 -151.179 4.07971 -47.1233)
(-27.3994 65.0776 -7.83161 -391.025 8.13788 -106.759)
(-63.0886 53.5157 -3.98569 238.926 -9.35031 36.1658)
(-46.7134 120.907 -13.9317 71.8379 -1.80804 0.445146)
(-26.1412 120.871 -14.8374 -107.589 7.22275 -33.9007)
(-7.46652 53.7029 -5.62879 -269.024 15.6785 -64.8605)
(-61.1218 43.0759 -1.83921 151.816 -11.0076 14.7655)
(-43.2539 97.9575 -8.72095 45.1308 -2.0507 -5.6409)
(-20.6099 98.0812 -9.57417 -71.3995 7.92135 -24.633)
(-2.92337 43.6292 -3.37417 -174.261 17.6434 -42.5278)
(-60.8278 31.5346 -0.220554 78.4842 -10.0796 -2.45675)
(-40.2791 74.7546 -4.53445 22.0755 -1.79275 -10.5399)
(-16.6573 75.3086 -5.25335 -44.3797 7.15134 -18.8673)
(1.80422 32.8991 -1.50025 -98.4072 16.0607 -26.1068)
(-59.7406 18.8917 0.698972 28.7758 -7.24954 -12.6247)
(-40.004 51.3169 -1.62535 2.9522 -1.19505 -15.7412)
(-12.2491 52.3621 -2.14815 -25.304 5.37758 -14.8684)
(7.5545 21.6137 -0.177734 -45.9201 12.0125 -15.3737)
(-73.0028 8.99966 0.918824 -2.40152 -2.90552 -25.2601)
(-56.857 26.7328 -0.204682 -16.2185 -0.292094 -29.3403)
(3.08398 26.9871 -0.755174 -8.11966 2.43106 -6.11362)
(22.9324 9.76435 0.149985 -15.4871 5.31337 -5.70186)
(425.948 177.484 -2.38245 948.011 14.6995 536.918)
(58.7818 158.79 -7.08682 177.747 2.00302 91.4963)
(-143.238 153.215 -7.82875 -278.139 -14.5715 -159.22)
(-517.195 156.541 -3.46844 -1027.01 -29.1023 -597.492)
(-105.277 66.9458 -5.01791 375.825 3.02605 81.4868)
(-26.9045 173.714 -14.5827 145.445 -0.178013 41.1447)
(-63.0808 172.244 -15.7307 -220.39 -2.48252 -93.7717)
(11.0088 65.1495 -6.64147 -442.585 -5.13261 -130.331)
(-51.6222 67.0472 -4.63565 349.513 -1.60389 92.4453)
(-51.9331 146.642 -13.6642 99.849 -0.200797 13.1651)
(-32.6944 146.37 -14.3778 -153.385 2.61233 -55.3254)
(-28.5535 66.2901 -5.80299 -394.942 4.55879 -128.072)
(-64.3413 54.17 -3.29798 240.656 -4.75555 48.4683)
(-48.2712 122.452 -10.4398 72.446 -0.421416 4.66218)
(-26.7405 122.486 -11.0143 -109.112 5.3431 -39.1236)
(-8.36535 54.4216 -4.30817 -272.283 10.2804 -79.0005)
(-62.2833 43.2763 -1.74841 153.696 -6.07967 21.4539)
(-44.6127 98.5316 -6.74003 46.0098 -0.509154 -2.93503)
(-21.3645 98.7565 -7.22942 -72.2549 6.26529 -27.1816)
(-3.63982 43.9758 -2.61152 -176.576 12.3867 -49.6557)
(-61.797 31.4271 -0.463068 80.6877 -5.82144 -0.479982)
(-41.3424 74.7804 -3.55903 23.2647 -0.40443 -9.14176)
(-17.2883 75.4827 -3.93939 -44.5094 5.93528 -19.1525)
(1.34404 33.0395 -1.12373 -99.8194 11.8326 -27.4706)
(-60.075 18.6177 0.31028 31.5328 -4.38095 -13.7688)
(-40.6249 51.2351 -1.36336 4.41756 -0.210965 -15.1557)
(-12.5434 52.4684 -1.62359 -24.7616 4.60749 -13.1804)
(7.36459 21.6831 -0.0879273 -46.5304 9.22948 -12.2542)
(-73.2998 8.97025 0.374845 -0.355823 -1.92572 -28.5718)
(-57.1532 26.7976 -0.639125 -14.6988 0.0216128 -28.8793)
(3.14889 27.1675 -0.955658 -7.13682 2.11795 -2.43966)
(23.7653 9.92247 0.00478008 -14.5646 4.25596 1.72402)
(431.006 179.344 -1.44058 957.881 7.49869 548.848)
(59.6802 159.667 -4.34975 179.956 0.454323 94.633)
(-145.111 154.038 -4.80384 -280.677 -9.01668 -164.173)
(-524.848 158.13 -2.10927 -1038.89 -17.0975 -613.053)
(-107.167 67.5306 -3.17647 376.747 1.97602 93.2792)
(-27.4937 175.541 -9.26999 146.681 -0.105748 45.2344)
(-63.7438 174.169 -9.99822 -221.326 -1.847 -100.7)
(11.2513 65.7845 -4.22223 -443.554 -3.5883 -146.112)
(-52.9427 67.9282 -3.15333 350.868 -0.321412 103.951)
(-53.156 148.705 -9.16264 100.451 0.221239 16.5683)
(-32.8258 148.522 -9.63447 -153.936 1.62855 -61.024)
(-28.635 67.2422 -3.91419 -396.531 2.50358 -142.602)
(-65.7388 54.9735 -2.38791 241.795 -1.98782 57.2285)
(-49.4301 124.326 -7.29299 73.0219 0.320639 7.41716)
(-26.9629 124.444 -7.64727 -109.544 3.68132 -43.11)
(-8.31022 55.3266 -2.99966 -273.62 6.3578 -89.5439)
(-63.462 43.914 -1.38461 155.086 -2.80662 26.9731)
(-45.6015 100.03 -4.88359 46.7699 0.363792 -0.978479)
(-21.6415 100.345 -5.15942 -72.4572 4.52911 -29.3339)
(-3.59618 44.748 -1.86508 -177.667 8.06202 -55.7289)
(-62.7069 31.8502 -0.501186 82.3839 -2.84626 2.03645)
(-42.0575 75.8846 -2.70656 24.2993 0.389232 -7.87778)
(-17.4849 76.6912 -2.90186 -44.378 4.44007 -19.6131)
(1.50663 33.6403 -0.834831 -100.463 8.01784 -29.4099)
(-60.5125 18.8199 0.0279978 33.553 -2.27856 -13.3347)
(-41.0185 52.0088 -1.22958 5.64574 0.338251 -14.2901)
(-12.5154 53.3569 -1.34992 -24.2488 3.51907 -12.0854)
(7.72344 22.1091 -0.137204 -46.6524 6.46433 -10.7648)
(-73.8495 9.10454 -0.0303761 1.10866 -1.08243 -29.6655)
(-57.524 27.2251 -0.957711 -13.594 0.200791 -28.1161)
(3.5829 27.6509 -1.13008 -6.24059 1.61922 0.293917)
(24.9588 10.1692 -0.19766 -13.6622 3.03874 6.48528)
(433.482 180.084 -0.818004 963.221 3.68264 555.181)
(60.1045 159.72 -2.53717 181.33 -0.104715 96.2803)
(-146.173 154.026 -2.79726 -281.983 -5.33544 -167.11)
(-528.721 158.664 -1.20746 -1044.96 -9.67533 -621.625)
(-108.334 67.7507 -1.87052 377.856 1.1705 100.071)
(-27.9405 176.363 -5.55952 147.691 -0.0760614 47.4172)
(-64.1704 175.032 -5.99003 -221.616 -1.23369 -105.032)
(11.3556 66.0307 -2.50337 -444.223 -2.2796 -155.795)
(-53.8982 68.4518 -1.95785 352.072 0.146927 110.918)
(-53.9508 149.978 -5.72398 101.082 0.3241 18.5056)
(-32.9393 149.853 -6.01394 -153.964 0.981441 -64.7866)
(-28.5631 67.8279 -2.42745 -397.317 1.35451 -151.844)
(-66.7449 55.5701 -1.54861 242.752 -0.621482 62.8926)
(-50.178 125.745 -4.70464 73.5878 0.540345 9.0937)
(-27.0695 125.922 -4.91379 -109.517 2.37059 -45.8755)
(-8.09683 56.0041 -1.91131 -274.143 3.74687 -96.6033)
(-64.3132 44.4734 -0.950449 156.11 -1.04758 30.9187)
(-46.2251 101.359 -3.25183 47.4128 0.640883 0.334317)
(-21.7339 101.735 -3.40401 -72.3344 3.0101 -30.9269)
(-3.36876 45.4031 -1.21846 -178.025 4.92081 -60.1291)
(-63.345 32.2849 -0.40309 83.5537 -1.15864 4.30815)
(-42.4882 76.983 -1.89339 25.0915 0.639239 -6.87472)
(-17.4992 77.8571 -1.99204 -44.0929 3.01711 -20.0482)
(1.79712 34.1933 -0.573184 -100.58 5.0374 -31.1952)
(-60.8436 19.0731 -0.0844856 34.8766 -1.01402 -12.2491)
(-41.2408 52.8038 -0.994154 6.53405 0.503512 -13.427)
(-12.3687 54.2231 -1.0477 -23.7647 2.42018 -11.4165)
(8.14689 22.5066 -0.149307 -46.4833 4.15516 -10.2773)
(-74.1475 9.22218 -0.176527 2.26154 -0.53982 -29.2507)
(-57.7763 27.6252 -0.938519 -12.8054 0.239956 -27.214)
(4.02414 28.082 -1.03202 -5.55517 1.11532 2.06635)
(25.8091 10.3569 -0.25138 -13.0959 1.98287 8.92458)
(434.65 180.358 -0.411948 965.993 1.65065 558.383)
(60.3122 159.568 -1.31156 182.158 -0.194221 97.1169)
(-146.715 153.824 -1.44336 -282.576 -2.79609 -168.717)
(-530.557 158.8 -0.612877 -1047.85 -4.9046 -626.058)
(-109.009 67.8098 -0.968009 378.735 0.603307 103.703)
(-28.2288 176.686 -2.93128 148.408 -0.048947 48.5121)
(-64.4189 175.37 -3.15474 -221.649 -0.69796 -107.537)
(11.3936 66.1042 -1.30341 -444.617 -1.24462 -161.274)
(-54.4968 68.7256 -1.05171 352.985 0.207077 114.784)
(-54.4218 150.667 -3.10458 101.601 0.250004 19.5259)
(-33.0263 150.574 -3.25958 -153.853 0.526646 -67.0518)
(-28.4923 68.141 -1.30432 -397.715 0.67294 -157.21)
(-67.3751 55.9308 -0.856897 243.47 -0.0951681 66.1759)
(-50.6156 126.618 -2.60997 74.0465 0.434599 10.028)
(-27.1246 126.829 -2.7194 -109.366 1.3232 -47.5902)
(-7.9219 56.4157 -1.04771 -274.333 1.96465 -100.84)
(-64.8545 44.8398 -0.545746 156.789 -0.281675 33.3597)
(-46.5818 102.242 -1.84628 47.8867 0.523697 1.12777)
(-21.7552 102.653 -1.92244 -72.1315 1.71203 -31.9518)
(-3.16439 45.828 -0.681066 -178.074 2.63624 -62.8995)
(-63.755 32.5848 -0.254651 84.2584 -0.368998 5.90407)
(-42.725 77.7462 -1.11635 25.6253 0.517882 -6.19178)
(-17.4586 78.659 -1.16228 -43.8099 1.73839 -20.3627)
(2.04891 34.5647 -0.333816 -100.478 2.74775 -32.4643)
(-61.0796 19.2546 -0.0924262 35.6308 -0.373877 -11.2502)
(-41.353 53.3593 -0.644827 7.10444 0.400847 -12.7588)
(-12.2238 54.8181 -0.666865 -23.3891 1.40358 -11.0408)
(8.49563 22.7722 -0.113896 -46.2268 2.29731 -10.198)
(-74.3367 9.2998 -0.167721 2.97131 -0.236818 -28.4978)
(-57.9234 27.8996 -0.660112 -12.3071 0.180591 -26.4627)
(4.36333 28.3688 -0.7072 -5.07691 0.648321 3.11643)
(26.3884 10.4706 -0.198866 -12.6982 1.10597 10.0932)
(435.115 180.443 -0.125037 967.179 0.467227 559.721)
(60.4001 159.451 -0.403954 182.552 -0.082971 97.4692)
(-146.937 153.681 -0.444011 -282.793 -0.868017 -169.42)
(-531.279 158.817 -0.186748 -1048.98 -1.49552 -627.931)
(-109.317 67.8163 -0.298242 379.206 0.184752 105.271)
(-28.3685 176.788 -0.912277 148.779 -0.0170472 48.9626)
(-64.5307 175.477 -0.981076 -221.622 -0.224961 -108.681)
(11.4057 66.1175 -0.40265 -444.792 -0.393803 -163.735)
(-54.7797 68.8394 -0.330556 353.477 0.0859089 116.493)
(-54.6406 150.961 -0.980536 101.889 0.0915178 19.959)
(-33.0717 150.882 -1.02899 -153.765 0.166239 -68.1121)
(-28.4542 68.2732 -0.409729 -397.882 0.20415 -159.661)
(-67.6728 56.096 -0.273651 243.858 0.0101263 67.6676)
(-50.8168 127.022 -0.834173 74.3017 0.161696 10.4408)
(-27.1481 127.249 -0.868036 -109.256 0.425246 -48.4061)
(-7.83034 56.6046 -0.33281 -274.39 0.6114 -102.812)
(-65.1121 45.0149 -0.177811 157.133 -0.0404483 34.5134)
(-46.7431 102.668 -0.59749 48.1386 0.196147 1.49816)
(-21.7557 103.095 -0.620523 -71.9962 0.555017 -32.4488)
(-3.05181 46.0303 -0.218831 -178.048 0.828736 -64.2226)
(-63.9497 32.7309 -0.0873462 84.5911 -0.0720752 6.71448)
(-42.8287 78.1222 -0.368851 25.8941 0.193658 -5.8492)
(-17.4248 79.0519 -0.382103 -43.6404 0.566931 -20.5231)
(2.18769 34.7442 -0.109881 -100.376 0.871153 -33.1094)
(-61.1943 19.3436 -0.0388649 35.9702 -0.0882405 -10.6779)
(-41.3975 53.6334 -0.223617 7.38287 0.149097 -12.4002)
(-12.1385 55.1078 -0.229436 -23.1835 0.459168 -10.8712)
(8.68354 22.8976 -0.0430154 -46.0579 0.732819 -10.2232)
(-74.4142 9.33866 -0.0678347 3.30667 -0.0681 -27.9839)
(-57.9832 28.0369 -0.236242 -12.0627 0.065566 -26.0411)
(4.54083 28.5061 -0.250718 -4.83004 0.212993 3.60223)
(26.6684 10.5196 -0.0761867 -12.4964 0.354777 10.5447)
)
;

boundaryField
{
    interface
    {
        type            calculated;
        value           nonuniform List<symmTensor> 
192
(
(-50.6771 -0.0884073 3.47162 973.537 100.075 289.434)
(-48.1156 -0.296937 5.09016 481.577 -16.3142 47.9603)
(-48.8561 -0.678633 5.66911 467.762 -7.66994 83.4055)
(-48.725 -1.09315 5.7888 326.65 -17.5368 50.4484)
(-48.8152 -1.57808 5.71203 213.433 -17.4328 33.2161)
(-48.7914 -2.21819 5.43542 114.723 -15.4527 16.5003)
(-48.2611 -3.24913 4.8759 49.8601 -11.1947 8.15124)
(-45.2161 -4.81504 3.82486 22.9509 -4.37964 9.41557)
(-55.9885 0.106923 2.3695 956.405 66.4674 308.656)
(-54.1219 -0.117886 3.48471 522.443 5.74368 89.7758)
(-55.2624 -0.52082 3.824 460.045 -10.9306 80.1757)
(-55.6569 -1.03588 3.86064 324.058 -20.0383 49.9201)
(-55.8444 -1.6589 3.7507 206.939 -22.1743 29.3857)
(-55.4858 -2.50679 3.49451 109.129 -19.7994 13.5987)
(-53.7479 -3.85692 3.04236 45.4096 -13.928 6.16811)
(-47.5935 -5.71183 2.30434 22.0931 -5.73247 9.36585)
(-59.5 0.155984 1.63303 980.649 36.9053 338.686)
(-57.2553 -0.073881 2.38261 517.955 6.79661 123.424)
(-58.504 -0.489887 2.57406 459.393 -5.13502 102.917)
(-58.9195 -1.05686 2.55737 322.942 -12.516 61.2132)
(-58.9909 -1.76775 2.44491 205.597 -15.0981 31.0834)
(-58.2749 -2.7456 2.23796 108.6 -14.0017 8.58944)
(-55.7421 -4.27187 1.91524 46.3654 -10.1174 -2.88889)
(-47.9641 -6.22224 1.43775 22.4153 -4.1837 -2.4028)
(-61.8931 0.160326 1.15832 997.118 19.5349 357.834)
(-59.3521 -0.0780156 1.69013 516.823 4.90705 148.324)
(-60.5835 -0.506556 1.80829 460.003 -1.70647 124.652)
(-60.9253 -1.10731 1.77357 323.785 -6.30467 75.976)
(-60.8425 -1.87573 1.67329 206.906 -8.35078 38.4584)
(-59.8285 -2.93463 1.51248 110.623 -8.14776 9.82152)
(-56.7664 -4.5647 1.28384 49.2136 -6.21118 -5.87979)
(-48.0035 -6.55281 0.961496 24.7753 -2.83435 -7.75561)
(-63.53 0.155286 0.814149 1006.32 10.0547 368.438)
(-60.8159 -0.0940163 1.19193 517.575 3.09269 163.654)
(-62.0049 -0.536018 1.26871 461.213 -0.224486 139.445)
(-62.2648 -1.16085 1.23364 324.925 -2.67621 87.345)
(-62.0489 -1.96751 1.15322 208.37 -3.95193 45.4347)
(-60.8113 -3.07814 1.03396 112.474 -4.11086 12.7001)
(-57.3883 -4.77409 0.873993 51.4474 -3.35282 -5.94946)
(-47.9622 -6.78019 0.652922 26.7519 -1.66103 -9.43135)
(-64.626 0.149408 0.542306 1011.24 4.98948 374.059)
(-61.8125 -0.109948 0.796206 518.762 1.78784 172.504)
(-62.9643 -0.563908 0.845442 462.572 0.261309 148.546)
(-63.1574 -1.2059 0.817774 326.072 -0.903248 94.8681)
(-62.8416 -2.03782 0.759958 209.558 -1.58623 50.6195)
(-61.4476 -3.18154 0.677853 113.787 -1.80201 15.5546)
(-57.7825 -4.91997 0.571222 52.9164 -1.60365 -4.81058)
(-47.9125 -6.93527 0.42497 28.2554 -0.883399 -9.0176)
(-65.3072 0.144778 0.309674 1013.73 2.26027 376.864)
(-62.4357 -0.121742 0.455328 519.734 0.906626 177.224)
(-63.5638 -0.584234 0.482748 463.656 0.283226 153.618)
(-63.7117 -1.23747 0.465547 326.966 -0.19872 99.2619)
(-63.3299 -2.08507 0.431126 210.369 -0.511165 53.8701)
(-61.8359 -3.2491 0.383169 114.582 -0.664079 17.6179)
(-58.0188 -5.0138 0.320518 53.7558 -0.663162 -3.62221)
(-47.8752 -7.03157 0.233574 29.189 -0.41874 -8.08891)
(-65.6223 0.141565 0.0998715 1014.78 0.64441 378.026)
(-62.7236 -0.128674 0.146937 520.262 0.27532 179.261)
(-63.8367 -0.59505 0.155551 464.254 0.111705 155.871)
(-63.9617 -1.25336 0.149771 327.459 -0.0152264 101.271)
(-63.5479 -2.1085 0.138458 210.789 -0.103241 55.421)
(-62.0054 -3.28379 0.122759 114.964 -0.156834 18.6826)
(-58.1008 -5.0637 0.101546 54.1466 -0.175156 -2.90237)
(-47.8064 -7.0723 0.0713409 29.652 -0.126388 -7.41729)
(81.959 120.034 -4.92321 623.4 -0.633719 -27.4228)
(-169.446 52.7868 -7.76219 269.096 -1.13113 -21.7073)
(-109.549 75.2608 -8.8955 292.56 -1.24142 -19.0619)
(-105.865 68.8459 -9.38525 200.27 -1.33183 -17.4273)
(-88.156 61.6398 -9.68571 131.699 -1.44915 -16.7496)
(-76.8899 48.3482 -9.8895 68.9138 -1.6268 -16.7944)
(-69.1765 31.7093 -10.075 25.3493 -1.91862 -17.561)
(-76.9156 14.2414 -10.5317 -2.47454 -2.34434 -18.9326)
(-15.1914 90.0388 -3.73424 119.362 -0.482782 -23.1466)
(-81.2774 143.998 -6.25249 87.7782 -0.806601 -21.0116)
(-79.6551 155.652 -7.15257 82.1536 -0.876636 -19.2261)
(-72.0879 147.028 -7.58374 55.3879 -0.836354 -18.1052)
(-62.0238 128.809 -7.88769 33.5757 -0.794615 -17.5784)
(-53.9045 102.88 -8.14776 14.1765 -0.791271 -17.561)
(-48.2409 72.1999 -8.43208 -0.182121 -0.873437 -18.0107)
(-56.2628 36.2634 -9.13278 -12.2442 -1.06447 -18.6851)
(-68.6921 81.6662 -3.39735 -234.754 -0.312193 -19.6954)
(18.5249 139.192 -5.97117 -101.118 -0.569952 -19.2204)
(5.20698 156.06 -6.90443 -108.744 -0.61723 -17.9578)
(2.4448 147.919 -7.37954 -82.445 -0.528809 -17.1615)
(-1.7236 129.659 -7.69966 -62.274 -0.413621 -16.7704)
(-4.03136 103.8 -7.96431 -43.5102 -0.317802 -16.7771)
(-5.11965 73.1553 -8.23633 -29.3959 -0.280659 -17.1859)
(3.74048 36.3109 -8.89068 -16.4488 -0.373017 -18.0403)
(-166.408 97.6035 -3.42532 -711.708 -0.348484 -15.1181)
(107.77 46.0008 -6.2746 -271.407 -0.637527 -15.0247)
(40.3818 76.7973 -7.23273 -313.614 -0.57393 -13.3651)
(42.1051 70.3963 -7.75357 -219.712 -0.386681 -12.5115)
(29.0879 63.2165 -8.07792 -152.913 -0.177764 -12.1044)
(22.7096 50.0144 -8.32193 -91.237 0.0133771 -12.1524)
(19.5743 33.7947 -8.541 -47.7367 0.206929 -12.6197)
(28.5014 14.4231 -9.1028 -20.7981 0.338132 -14.1654)
(-4.81454 0.657274 1.87076 -994.28 -131.806 -315.413)
(-1.90646 0.76117 3.11271 -486.83 19.6874 -60.8518)
(0.745732 0.57385 3.44367 -477.394 10.1263 -97.7386)
(2.60512 0.155715 3.608 -331.436 21.0063 -62.7661)
(3.8965 -0.286564 3.72159 -220.312 19.717 -48.3958)
(4.79751 -0.762122 3.80699 -125.251 16.8713 -35.3858)
(5.91866 -1.56164 3.86591 -61.8944 11.8137 -30.1442)
(8.09438 -3.5538 3.72909 -35.1161 4.15691 -33.5348)
(-5.71515 0.291108 0.835857 -968.455 -96.2307 -327.126)
(-4.92969 0.324452 1.46691 -555.81 -7.59428 -104.762)
(-3.52367 0.176627 1.59245 -482.354 15.8306 -94.1752)
(-2.19671 -0.135193 1.62253 -339.299 26.8996 -66.2402)
(-0.960459 -0.507734 1.65457 -220.683 28.365 -49.6972)
(0.254484 -0.928604 1.70103 -124.703 24.7934 -37.9452)
(2.30584 -1.7145 1.76455 -60.4449 17.7033 -32.4174)
(6.91478 -3.97537 1.83429 -33.914 7.85991 -35.2049)
(-5.97116 0.115539 0.524807 -996.123 -59.1072 -360.588)
(-5.77854 0.078344 0.996855 -556.262 -8.97614 -143.077)
(-4.75754 -0.0320078 1.1152 -487.806 9.44102 -121.577)
(-3.5637 -0.273232 1.14593 -343.939 19.4786 -81.9781)
(-2.2696 -0.589922 1.16661 -223.102 22.2597 -55.1153)
(-0.786116 -0.968136 1.19536 -125.968 20.3914 -35.7463)
(1.8282 -1.74265 1.23183 -60.8609 15.2623 -24.4751)
(7.46894 -4.1061 1.26974 -30.9879 6.80839 -20.7752)
(-5.88921 0.0686064 0.411676 -1015.1 -34.9115 -383.834)
(-5.77829 -0.00474939 0.799741 -556.002 -6.79635 -173.089)
(-4.81856 -0.112396 0.918452 -490.348 4.99237 -147.323)
(-3.63282 -0.32903 0.955815 -346.713 12.2376 -99.1239)
(-2.238 -0.619792 0.973139 -225.245 15.0331 -63.3961)
(-0.552086 -0.979275 0.986907 -127.449 14.4814 -36.7396)
(2.42076 -1.76128 0.997313 -61.5815 11.3734 -19.8233)
(8.625 -4.21061 0.99693 -30.029 5.3368 -11.3072)
(-5.73529 0.0560556 0.317189 -1025.43 -20.1924 -397.573)
(-5.62808 -0.0322292 0.613426 -556.566 -4.55083 -192.74)
(-4.66968 -0.142051 0.710175 -491.875 2.6108 -165.549)
(-3.4537 -0.351783 0.743592 -348.186 7.29347 -112.556)
(-1.97843 -0.633368 0.755758 -226.519 9.45484 -71.0904)
(-0.153329 -0.985961 0.76038 -128.287 9.51602 -39.1408)
(3.05613 -1.77811 0.758452 -61.8637 7.7718 -17.9035)
(9.64093 -4.29281 0.745882 -29.3609 3.74479 -5.81528)
(-5.58458 0.052521 0.225524 -1030.64 -11.2641 -405.273)
(-5.46541 -0.041785 0.432466 -557.235 -2.79572 -204.707)
(-4.49397 -0.153392 0.501461 -492.883 1.36178 -177.171)
(-3.24507 -0.362232 0.526179 -348.96 4.17294 -121.632)
(-1.7108 -0.641533 0.534012 -227.079 5.61223 -76.8084)
(0.207876 -0.992224 0.534819 -128.553 5.83456 -41.5418)
(3.57283 -1.79312 0.529204 -61.8022 4.90169 -17.4791)
(10.4117 -4.35316 0.513702 -28.9499 2.41148 -3.21919)
(-5.46809 0.0520811 0.134169 -1033.08 -5.64643 -409.313)
(-5.33547 -0.0448587 0.25585 -557.704 -1.49054 -211.404)
(-4.35061 -0.157844 0.296394 -493.491 0.661654 -183.878)
(-3.07663 -0.367471 0.311076 -349.348 2.14373 -127.062)
(-1.50352 -0.646648 0.315398 -227.266 2.94809 -80.4272)
(0.474709 -0.997298 0.315645 -128.536 3.12854 -43.2896)
(3.93845 -1.8062 0.310577 -61.6044 2.67392 -17.5806)
(10.925 -4.39359 0.291931 -28.6592 1.33149 -2.11529)
(-5.40973 0.0518374 0.0440768 -1034.03 -1.71104 -411.039)
(-5.26975 -0.0463964 0.083908 -557.934 -0.465769 -214.392)
(-4.27936 -0.160017 0.0970452 -493.779 0.19874 -186.927)
(-2.99319 -0.369995 0.101797 -349.514 0.66023 -129.582)
(-1.40182 -0.648784 0.103155 -227.314 0.917413 -82.1609)
(0.609668 -0.999808 0.103448 -128.475 0.983119 -44.188)
(4.13057 -1.81926 0.101393 -61.4565 0.846875 -17.7256)
(11.1266 -4.41488 0.0907849 -28.5398 0.424549 -1.7686)
(-87.328 11.4246 -2.90775 -14.2191 -0.739693 -24.7266)
(-82.2696 11.1839 1.40898 -11.2558 -0.59286 -22.772)
(-82.6175 11.3676 0.864575 -8.93021 -0.403648 -30.3346)
(-82.8044 11.5926 0.202576 -7.09392 -0.270326 -34.17)
(-83.3547 11.7853 -0.240013 -5.71461 -0.183947 -35.626)
(-83.7531 11.9327 -0.350553 -4.73123 -0.124432 -35.4073)
(-84.0042 12.0325 -0.279228 -4.11055 -0.0841239 -34.7023)
(-84.1637 12.0805 -0.106239 -3.89974 -0.0342483 -34.2422)
(-67.0373 9.34738 -3.46298 -15.4098 0.463038 -30.1755)
(-63.6301 8.78497 0.122769 -13.772 0.29724 -30.352)
(-62.9463 8.83143 0.0838499 -12.0962 0.260968 -30.206)
(-63.1872 8.95987 -0.726947 -10.6715 0.220102 -29.6349)
(-63.5799 9.07976 -1.20132 -9.57544 0.168147 -28.7528)
(-63.8738 9.17437 -1.17747 -8.77903 0.116436 -27.7108)
(-64.0401 9.24282 -0.821069 -8.24857 0.0666618 -26.827)
(-64.0887 9.28928 -0.291984 -7.95805 0.0210687 -26.3111)
(9.86867 8.81109 -3.67654 -16.2889 0.847403 -13.8288)
(6.21995 8.27268 -0.631812 -15.0564 0.63352 -14.6538)
(5.71259 8.30425 -0.598174 -13.7862 0.51149 -9.1949)
(5.92207 8.41481 -1.15649 -12.6754 0.406647 -4.48575)
(6.47836 8.51985 -1.45822 -11.7955 0.305281 -1.00911)
(7.02401 8.60206 -1.32932 -11.1441 0.212146 1.23751)
(7.42902 8.65849 -0.902402 -10.7067 0.127409 2.55897)
(7.65354 8.68932 -0.317831 -10.458 0.0434728 3.18442)
(34.5141 8.72 -2.92693 -13.5041 1.17845 -15.1046)
(29.9438 8.30813 0.238044 -11.8719 0.851508 -16.627)
(31.1414 8.38785 -0.0293958 -10.6074 0.643067 -3.76669)
(32.2358 8.52327 -0.283524 -9.50355 0.497726 5.37611)
(33.641 8.64026 -0.49838 -8.61215 0.371019 11.3695)
(34.7299 8.72696 -0.489725 -7.94794 0.256618 14.6271)
(35.4585 8.78283 -0.348831 -7.50778 0.152205 16.2479)
(35.8111 8.80579 -0.127602 -7.28339 0.0510367 16.9014)
)
;
    }
    symmetry
    {
        type            symmetryPlane;
    }
    bottom
    {
        type            calculated;
        value           nonuniform List<symmTensor> 
32
(
(484.358 167.257 0 726.537 193.102 484.358)
(466.045 192.509 0 699.068 98.012 466.045)
(480.861 203.87 0 721.292 50.3452 480.861)
(490.936 208.352 0 736.404 25.7746 490.936)
(496.588 210.065 0 744.883 13.0509 496.588)
(499.703 210.7 0 749.555 6.43592 499.703)
(501.347 210.926 0 752.021 2.91474 501.347)
(502.06 210.993 0 753.09 0.832396 502.06)
(81.862 65.4471 0 122.793 49.7051 81.862)
(80.5472 96.3027 0 120.821 24.7263 80.5472)
(84.7667 103.086 0 127.15 11.4556 84.7667)
(87.1747 103.735 0 130.762 4.85121 87.1747)
(88.6073 102.972 0 132.911 1.78166 88.6073)
(89.4942 102.102 0 134.241 0.493688 89.4942)
(90.0222 101.473 0 135.033 0.0557458 90.0222)
(90.2716 101.156 0 135.407 -0.0150595 90.2716)
(-154.837 58.3902 0 -232.255 -91.4267 -154.837)
(-141.545 90.3226 0 -212.318 -56.4415 -141.545)
(-146.052 97.1127 0 -219.079 -35.1512 -146.052)
(-149.186 97.5646 0 -223.778 -21.7347 -149.186)
(-150.953 96.5939 0 -226.429 -13.1927 -150.953)
(-151.877 95.5605 0 -227.815 -7.67805 -151.877)
(-152.32 94.824 0 -228.48 -3.97255 -152.32)
(-152.493 94.4536 0 -228.739 -1.22451 -152.493)
(-516.64 147.106 0 -774.959 -258.09 -516.64)
(-495.002 172.141 0 -742.503 -148.327 -495.002)
(-515.86 183.133 0 -773.789 -86.1409 -515.86)
(-529.46 187.164 0 -794.19 -49.8299 -529.46)
(-536.84 188.447 0 -805.26 -28.4778 -536.84)
(-540.682 188.735 0 -811.023 -15.7496 -540.682)
(-542.571 188.721 0 -813.856 -7.84533 -542.571)
(-543.338 188.667 0 -815.007 -2.36918 -543.338)
)
;
    }
}


// ************************************************************************* //
