/*--------------------------------*- C++ -*----------------------------------*\
| =========                 |                                                 |
| \\      /  F ield         | foam-extend: Open Source CFD                    |
|  \\    /   O peration     | Version:     3.1                                |
|   \\  /    A nd           | Web:         http://www.extend-project.de       |
|    \\/     M anipulation  |                                                 |
\*---------------------------------------------------------------------------*/
FoamFile
{
    version     2.0;
    format      ascii;
    class       volSymmTensorField;
    location    "1.1";
    object      sigmaCauchy;
}
// * * * * * * * * * * * * * * * * * * * * * * * * * * * * * * * * * * * * * //

dimensions      [1 -1 -2 0 0 0 0];

internalField   nonuniform List<symmTensor> 
256
(
(397.699 192.435 2.9777 982.178 100.492 448.134)
(52.5223 121.822 -17.4256 166.68 22.8477 61.0116)
(-147.088 95.0732 -23.5892 -298.521 -42.9964 -154.837)
(-528.713 70.9804 -16.4581 -943.282 -74.5195 -567.394)
(-148.53 92.6389 -8.00373 298.801 -16.2692 -52.8177)
(-41.1309 162.989 -30.0887 88.4639 -8.62302 -22.6024)
(27.8432 135.486 -32.3426 -139.097 6.66507 -4.08879)
(114.326 20.2012 -10.9153 -292.58 17.2704 29.0416)
(-36.107 112.608 -4.00697 343.407 -7.63423 43.4886)
(-33.5747 160.641 -19.8149 66.199 -3.22075 -16.893)
(19.9946 133.193 -20.9915 -139.913 1.49739 -23.0206)
(-4.01595 32.9105 -5.0804 -356.508 5.77027 -79.9617)
(-56.7894 97.2216 -5.13651 216.382 -14.0152 8.39909)
(-27.9185 146.117 -15.7777 33.2516 -3.87054 -20.1403)
(27.2173 122.752 -15.65 -109.317 4.17161 -14.62)
(28.1748 30.4383 -3.60099 -243.469 12.9733 -35.7808)
(-48.5948 80.1685 -4.41927 135.029 -12.907 4.02592)
(-22.2563 124.085 -11.7454 10.5147 -3.00926 -18.5799)
(23.5779 106.196 -11.3305 -85.4471 4.08392 -15.108)
(21.9056 30.5534 -2.1399 -171.767 12.4944 -31.213)
(-50.5752 58.7587 -4.0721 64.0155 -10.8086 -5.66321)
(-22.4143 97.0796 -8.96418 -6.60439 -2.29435 -18.5634)
(18.0047 85.1553 -8.48934 -61.7796 3.78004 -14.8378)
(21.8851 27.2567 -1.76171 -103.068 11.2402 -22.3032)
(-52.391 37.5385 -3.97005 19.6317 -7.74636 -9.56661)
(-26.7847 67.6223 -6.95533 -16.5708 -1.78173 -18.8122)
(10.7818 60.3472 -6.4299 -41.7942 3.00001 -15.7668)
(20.1154 19.7629 -1.95331 -53.8937 8.41974 -19.3136)
(-69.6957 20.7909 -3.52461 -7.98082 -2.76816 -18.5846)
(-51.5993 36.3419 -4.7491 -28.1077 -0.444327 -30.1559)
(16.1431 29.3449 -4.58938 -17.1927 1.37608 -9.13901)
(29.0213 6.07983 -2.53591 -21.2894 3.25076 -15.2254)
(401.632 221.836 1.43012 957.256 64.0764 462.115)
(67.2255 154.248 -15.1885 166.205 12.4253 74.1004)
(-125.87 127.02 -20.6356 -268.195 -33.1552 -143.116)
(-499.243 91.9901 -14.2367 -906.59 -56.6358 -558.078)
(-82.3818 102.83 -7.45172 390.741 2.69977 31.046)
(1.68685 176.784 -29.937 128.625 -2.4035 20.3703)
(-30.2641 144.289 -33.0946 -214.796 -2.29896 -64.7299)
(23.291 23.996 -13.486 -407.158 -3.47674 -72.0726)
(-30.2153 107.076 -6.43468 349.145 -9.60878 51.7257)
(-17.5808 153.991 -23.8719 77.9982 -2.70392 -1.45997)
(-0.30154 125.46 -24.9313 -158.669 5.48772 -35.0918)
(-14.1465 27.0082 -7.73968 -366.535 11.7201 -82.9444)
(-43.3196 89.1634 -5.08872 232.096 -15.6163 23.3968)
(-14.5713 133.02 -16.8977 47.7552 -3.25499 -5.85947)
(5.3058 109.182 -16.903 -122.596 8.32043 -27.2491)
(6.715 22.8322 -4.1066 -258.659 19.125 -49.7201)
(-42.6655 70.4236 -3.17615 142.239 -16.6162 10.7789)
(-14.7116 108.961 -11.0032 21.5952 -3.32987 -9.58056)
(7.50802 91.46 -10.6217 -88.8716 8.59543 -21.6245)
(8.81503 22.2926 -1.08166 -173.957 20.3466 -36.4423)
(-46.0125 50.1263 -1.54634 69.4146 -14.4768 -0.434612)
(-17.6471 83.4542 -6.47641 1.95389 -2.91927 -12.5262)
(5.93647 72.275 -6.05586 -61.0548 7.40592 -18.5546)
(10.9133 20.2313 0.586093 -102.544 18.0034 -26.5712)
(-49.835 30.987 -0.338137 21.9775 -10.1888 -6.98027)
(-24.5775 57.4419 -3.24483 -12.0448 -2.1488 -16.3014)
(3.4071 51.1378 -2.92261 -38.6856 5.36149 -16.6418)
(13.1598 14.953 1.27472 -50.8413 13.0648 -20.9109)
(-65.7946 18.0077 0.67535 -5.04284 -4.21943 -16.3986)
(-49.2334 31.6038 -0.883445 -25.43 -0.729607 -29.5775)
(10.35 25.3652 -1.08778 -16.5437 2.56141 -10.6409)
(22.2703 4.52092 0.950023 -21.5757 5.84912 -18.0416)
(420.545 236.523 0.0602634 985.287 35.3421 496.471)
(74.1675 164.684 -10.6056 172.419 5.34375 85.0919)
(-126.935 136.322 -14.1584 -272.034 -21.5937 -153.439)
(-522.159 97.8365 -9.76532 -936.046 -34.7126 -600.421)
(-82.1279 106.084 -6.01552 390.925 4.47961 60.9665)
(5.84944 183.322 -21.4919 132.134 -0.950646 33.9436)
(-34.4784 150.19 -24.11 -225.346 -3.04245 -83.803)
(19.5953 25.9568 -11.1102 -416.166 -5.09202 -108.441)
(-29.7722 107.805 -5.9825 352.851 -4.60254 73.5563)
(-16.6028 156.286 -18.7493 80.265 -1.03192 7.79389)
(-3.07483 126.987 -19.8078 -166.611 4.11556 -47.2912)
(-18.9228 26.5604 -7.44905 -376.526 7.65914 -109.262)
(-43.7235 88.346 -4.78488 234.656 -9.79197 35.8735)
(-14.8776 131.409 -13.814 50.1226 -1.44008 0.632743)
(1.91252 107.256 -13.8655 -126.396 7.46217 -33.9436)
(1.44835 21.8576 -4.00102 -265.625 14.8101 -65.8077)
(-45.0701 68.7054 -3.14709 143.392 -11.3509 14.7386)
(-15.9009 105.73 -8.80366 24.2106 -1.64529 -5.5517)
(3.95384 88.1573 -8.39891 -90.1582 8.21644 -24.6412)
(5.40948 20.729 -1.17334 -176.927 16.9315 -42.8274)
(-49.1117 48.3498 -1.54657 70.078 -10.2776 -2.41023)
(-19.0333 79.9769 -4.69292 4.48209 -1.49804 -10.5146)
(2.88489 68.9374 -4.17878 -60.6193 7.37716 -18.8722)
(8.77792 18.7496 0.641732 -103.218 15.6159 -26.1344)
(-52.5735 29.5241 -0.282673 22.9116 -7.37371 -12.6149)
(-25.5136 54.7933 -1.76151 -9.8137 -1.06304 -15.7518)
(1.39354 48.7843 -1.37216 -37.3859 5.48074 -14.8705)
(12.3995 13.8981 1.43969 -50.0764 11.7567 -15.3382)
(-68.7401 17.6168 0.512677 -5.88543 -3.01158 -25.333)
(-49.0449 30.6634 -0.239113 -23.4022 -0.2769 -29.4008)
(9.8834 24.7124 -0.432837 -14.4935 2.48703 -6.10881)
(24.9743 4.49129 0.854305 -17.2527 5.21805 -5.6857)
(430.815 243.352 -0.383794 1003.83 18.6295 517.878)
(76.8308 168.231 -6.93429 176.048 1.85173 90.9781)
(-129.303 139.232 -9.07237 -276.265 -13.6366 -161.421)
(-537.967 99.7396 -6.12251 -956.513 -20.5869 -628.826)
(-83.7298 107.71 -4.1203 390.4 3.48756 80.7107)
(6.41353 187.059 -14.3393 133.377 -0.437642 41.1628)
(-34.7516 153.728 -16.1672 -228.337 -2.48565 -94.8266)
(19.8358 26.8502 -7.61998 -418.979 -4.07442 -133.18)
(-30.2765 109.251 -4.38006 354.36 -1.591 91.4276)
(-17.3718 159.137 -13.3282 80.601 -0.0427742 13.2842)
(-2.72781 129.624 -14.175 -169.096 2.75303 -55.7107)
(-19.9127 27.442 -5.64093 -380.982 4.44285 -130.736)
(-44.6834 89.159 -3.60664 236.176 -4.88753 48.1145)
(-15.9755 133.056 -10.2306 50.5899 -0.0590505 4.74832)
(1.69441 108.759 -10.3086 -128.064 5.60413 -39.2995)
(0.651509 22.3976 -3.26299 -269.091 9.81473 -80.1086)
(-46.1216 69.136 -2.41202 145.289 -6.20881 21.3737)
(-17.1243 106.491 -6.64941 25.0946 -0.150924 -2.89113)
(3.297 88.8351 -6.31884 -91.0276 6.5265 -27.2543)
(4.71416 20.9836 -1.08571 -179.274 11.9492 -50.064)
(-50.0703 48.5739 -1.19522 72.3803 -5.91123 -0.4647)
(-20.1195 80.2552 -3.53719 5.74503 -0.166379 -9.13093)
(2.22707 69.1933 -3.06856 -60.7031 6.10666 -19.1822)
(8.30299 18.8362 0.436278 -104.596 11.5305 -27.5609)
(-52.9432 29.6298 -0.264094 25.7649 -4.45267 -13.7677)
(-26.1609 54.9723 -1.36558 -8.29933 -0.110455 -15.168)
(1.09257 49.0047 -0.974886 -36.8261 4.6761 -13.1912)
(12.1976 13.9429 1.14025 -50.6578 9.04106 -12.2517)
(-69.0179 17.8776 0.125698 -3.8431 -1.97269 -28.6354)
(-49.2973 30.9483 -0.619082 -21.9038 0.0775923 -28.9374)
(9.99068 25.006 -0.681908 -13.5485 2.20011 -2.43902)
(25.8349 4.6732 0.557856 -16.3619 4.20636 1.72359)
(435.733 246.413 -0.431838 1014.2 9.52104 529.667)
(77.89 169.239 -4.34233 178.258 0.333866 94.0987)
(-131.108 139.917 -5.57467 -278.836 -8.41423 -166.47)
(-546.647 100.296 -3.66727 -967.76 -12.0085 -644.978)
(-85.1321 108.569 -2.63796 390.931 2.29026 92.5749)
(6.36796 189 -9.1341 134.488 -0.234232 45.1837)
(-34.9526 155.577 -10.3047 -229.507 -1.78709 -101.841)
(20.2703 27.2188 -4.84289 -420.579 -2.83268 -148.936)
(-31.1967 110.35 -2.92317 355.349 -0.2244 103)
(-17.9687 161.279 -8.90844 81.0027 0.376242 16.6127)
(-2.29826 131.712 -9.51214 -169.915 1.77558 -61.4983)
(-19.8197 28.1868 -3.83882 -383.083 2.52039 -145.247)
(-45.734 90.143 -2.44623 237.081 -1.98224 56.881)
(-16.5832 135.018 -7.07193 50.9452 0.614597 7.45403)
(1.97857 110.67 -7.16403 -128.759 3.90072 -43.3489)
(0.909635 23.1577 -2.35598 -270.75 6.11929 -90.6877)
(-47.044 69.9924 -1.65104 146.557 -2.82851 26.8787)
(-17.6887 108.115 -4.71842 25.6525 0.64604 -0.958655)
(3.4198 90.4092 -4.50798 -91.4637 4.7366 -29.4405)
(4.93123 21.6441 -0.877069 -180.556 7.80816 -56.1791)
(-50.806 49.2678 -0.83809 74.0142 -2.87449 2.03808)
(-20.5292 81.5225 -2.59349 6.60579 0.577176 -7.87528)
(2.32827 70.4196 -2.25861 -60.7703 4.57571 -19.6569)
(8.60028 19.3507 0.215884 -105.359 7.83158 -29.5302)
(-53.2807 30.1196 -0.259683 27.7504 -2.30902 -13.3375)
(-26.3382 55.917 -1.16043 -7.21896 0.431347 -14.3038)
(1.34052 49.9333 -0.86034 -36.4802 3.58711 -12.1007)
(12.652 14.3109 0.717982 -50.8618 6.3497 -10.777)
(-69.4923 18.2509 -0.157969 -2.42225 -1.08381 -29.724)
(-49.5336 31.5346 -0.908267 -20.8993 0.293157 -28.1742)
(10.5433 25.5379 -0.922702 -12.7573 1.73015 0.294527)
(27.0826 4.88748 0.194205 -15.5152 3.0371 6.48472)
(438.052 247.744 -0.331898 1019.87 4.67805 535.963)
(78.3116 169.357 -2.57429 179.656 -0.189331 95.7405)
(-132.225 139.874 -3.25316 -280.165 -4.96827 -169.438)
(-551.146 100.389 -2.08708 -973.553 -6.76548 -653.754)
(-86.0302 108.993 -1.57079 391.915 1.35954 99.4314)
(6.17012 189.92 -5.49029 135.464 -0.138131 47.3438)
(-35.1833 156.443 -6.18734 -229.94 -1.16874 -106.192)
(20.4557 27.3322 -2.86904 -421.611 -1.79262 -158.554)
(-31.8918 111.069 -1.79193 356.377 0.243561 110.033)
(-18.3766 162.637 -5.55098 81.519 0.44323 18.5205)
(-2.06569 133.044 -5.94008 -170.131 1.09661 -65.2906)
(-19.6359 28.6493 -2.38652 -384.221 1.40151 -154.426)
(-46.4748 90.9084 -1.51271 237.882 -0.574368 62.5684)
(-16.9089 136.519 -4.52259 51.3356 0.749098 9.10905)
(2.26668 112.144 -4.60277 -128.955 2.52868 -46.1392)
(1.2881 23.7425 -1.52886 -271.537 3.62883 -97.7335)
(-47.6704 70.7261 -1.02172 147.464 -1.02955 30.8263)
(-17.9248 109.535 -3.08917 26.0952 0.840014 0.342515)
(3.6993 91.7998 -2.97349 -91.5721 3.15763 -31.0487)
(5.32255 22.2288 -0.615366 -181.102 4.78072 -60.5862)
(-51.2747 49.8908 -0.526467 75.0997 -1.16002 4.30506)
(-20.6462 82.7262 -1.76494 7.20498 0.775339 -6.87682)
(2.62204 71.5969 -1.55828 -60.6989 3.11747 -20.099)
(9.02961 19.8523 0.0851212 -105.61 4.93086 -31.3263)
(-53.5064 30.5612 -0.20586 29.0195 -1.02293 -12.2545)
(-26.3373 56.8187 -0.90844 -6.48979 0.582233 -13.4419)
(1.71119 50.8206 -0.713412 -36.1693 2.48258 -11.4338)
(13.1736 14.6738 0.398525 -50.7838 4.09309 -10.2951)
(-69.7235 18.5381 -0.232923 -1.30385 -0.524217 -29.3085)
(-49.6647 32.0405 -0.886224 -20.2015 0.333926 -27.2736)
(11.09 25.9919 -0.889999 -12.1652 1.22272 2.06785)
(27.9755 5.04212 0.00322054 -14.9921 2.00143 8.92695)
(439.105 248.298 -0.198647 1022.85 2.09611 539.156)
(78.4795 169.237 -1.34648 180.507 -0.24372 96.5742)
(-132.832 139.678 -1.68218 -280.774 -2.59991 -171.051)
(-553.325 100.355 -1.05795 -976.34 -3.42056 -658.242)
(-86.5655 109.184 -0.820263 392.777 0.700965 103.105)
(5.9841 190.313 -2.90026 136.183 -0.076692 48.4316)
(-35.3609 156.807 -3.264 -230.054 -0.65285 -108.695)
(20.5235 27.3465 -1.49273 -422.2 -0.976212 -163.98)
(-32.3399 111.487 -0.954629 357.224 0.271616 113.942)
(-18.635 163.396 -3.00525 81.981 0.322778 19.5299)
(-1.96507 133.785 -3.21939 -170.135 0.597466 -67.5628)
(-19.505 28.8958 -1.28192 -384.826 0.709948 -159.739)
(-46.937 91.3982 -0.810138 238.515 -0.0534116 65.8714)
(-17.0821 137.457 -2.49327 51.6843 0.557633 10.0347)
(2.45908 113.064 -2.54562 -128.951 1.41688 -47.8619)
(1.56709 24.1018 -0.844731 -271.898 1.91087 -101.948)
(-48.0605 71.2134 -0.546628 148.066 -0.259537 33.2727)
(-18.0189 110.482 -1.73314 26.4305 0.641166 1.13084)
(3.93089 92.7283 -1.67835 -91.531 1.7995 -32.0793)
(5.63859 22.6178 -0.357206 -181.283 2.56689 -63.352)
(-51.5671 50.3078 -0.28577 75.7411 -0.362995 5.90002)
(-20.6616 83.5546 -1.02203 7.59998 0.600247 -6.19618)
(2.88051 72.4113 -0.913537 -60.5694 1.80029 -20.4163)
(9.37957 20.202 0.0249461 -105.606 2.69411 -32.5975)
(-53.6681 30.8534 -0.13358 29.7321 -0.373869 -11.2571)
(-26.2928 57.4371 -0.579947 -6.03191 0.453632 -12.7746)
(2.01234 51.4306 -0.473872 -35.9152 1.4475 -11.059)
(13.5911 14.9259 0.188425 -50.5931 2.2685 -10.2175)
(-69.8664 18.7192 -0.188953 -0.616226 -0.22069 -28.5567)
(-49.7297 32.3785 -0.622615 -19.7644 0.247906 -26.5237)
(11.4992 26.2918 -0.625 -11.749 0.723993 3.11864)
(28.5819 5.13523 -0.0572132 -14.6215 1.12532 10.0976)
(439.512 248.496 -0.0655765 1024.13 0.593044 540.491)
(78.5394 169.135 -0.41731 180.915 -0.0991938 96.9251)
(-133.093 139.545 -0.518144 -280.999 -0.806522 -171.755)
(-554.198 100.318 -0.322321 -977.449 -1.04171 -660.124)
(-86.8148 109.256 -0.254079 393.257 0.214631 104.691)
(5.8789 190.452 -0.903609 136.561 -0.0249164 48.88)
(-35.4525 156.933 -1.01595 -230.063 -0.209137 -109.834)
(20.5443 27.3385 -0.460909 -422.461 -0.308448 -166.413)
(-32.555 111.677 -0.298843 357.697 0.108188 115.672)
(-18.7614 163.729 -0.948252 82.2475 0.11583 19.9595)
(-1.9301 134.109 -1.01616 -170.099 0.189943 -68.6235)
(-19.4416 28.9995 -0.40238 -385.089 0.217541 -162.161)
(-47.1549 91.6327 -0.254427 238.869 0.0260044 67.3732)
(-17.1591 137.898 -0.794243 51.8882 0.20222 10.4446)
(2.55149 113.495 -0.812138 -128.912 0.456152 -48.6795)
(1.70737 24.2676 -0.269114 -272.037 0.595985 -103.906)
(-48.2441 71.4504 -0.171765 148.372 -0.0313191 34.4298)
(-18.0518 110.941 -0.557444 26.6141 0.234917 1.49935)
(4.05405 93.1785 -0.541504 -91.4761 0.583961 -32.578)
(5.80575 22.806 -0.116816 -181.324 0.807923 -64.6705)
(-51.7039 50.5097 -0.0910904 76.0418 -0.0689112 6.7105)
(-20.6553 83.9623 -0.334754 7.79938 0.22127 -5.85451)
(3.02267 72.8127 -0.301163 -60.4768 0.587893 -20.5777)
(9.56714 20.375 0.00385133 -105.554 0.854975 -33.2424)
(-53.7464 30.9926 -0.0476955 30.0505 -0.0871779 -10.6854)
(-26.2599 57.7404 -0.199901 -5.8092 0.167737 -12.4164)
(2.17435 51.7289 -0.166439 -35.7695 0.475013 -10.8896)
(13.8122 15.0483 0.0533486 -50.4568 0.724736 -10.2431)
(-69.9208 18.805 -0.073308 -0.291563 -0.0613424 -28.0438)
(-49.7486 32.5453 -0.222853 -19.5503 0.0898699 -26.1029)
(11.7102 26.4361 -0.22377 -11.532 0.24014 3.60481)
(28.8737 5.17581 -0.0307923 -14.4317 0.362811 10.5499)
)
;

boundaryField
{
    interface
    {
        type            calculated;
        value           nonuniform List<symmTensor> 
192
(
(-37.2587 91.2049 15.3337 1120.43 136.954 287.954)
(-41.7755 44.0975 4.27202 521.125 -18.6561 46.454)
(-39.8277 56.9844 5.54794 500.546 -10.4773 81.3811)
(-41.0656 45.701 3.75519 340.68 -20.8971 49.7947)
(-43.005 33.2849 3.28585 217.815 -19.8546 33.1392)
(-45.3149 19.9408 3.10853 115.007 -16.9118 16.6594)
(-46.6534 10.024 3.09957 49.5532 -12.0371 8.29797)
(-44.7717 4.4055 2.96421 23.1777 -4.91029 9.50412)
(-40.7079 97.3716 10.6605 1095.96 88.4377 303.846)
(-46.4454 49.6965 4.69934 567.128 6.16786 87.3168)
(-46.059 56.0953 3.23242 492.21 -12.8769 78.3243)
(-47.8006 45.4045 1.67382 338.306 -22.3899 49.2555)
(-50.0109 32.4859 0.924411 211.403 -23.9205 29.3212)
(-52.0064 19.345 0.812769 109.556 -20.8078 13.7333)
(-52.2092 9.35951 1.10349 45.2842 -14.4636 6.27353)
(-47.3005 3.68555 1.44455 22.5459 -6.05668 9.42851)
(-42.4333 104.676 6.43515 1125.02 49.2829 332.575)
(-49.0777 50.2647 3.48023 560.026 7.56554 120.913)
(-48.9812 56.1372 2.45701 490.527 -6.06513 100.979)
(-50.9084 45.2298 1.27402 336.844 -13.8905 60.4098)
(-53.1225 32.2327 0.585218 210.065 -16.1795 30.9005)
(-54.8204 19.1803 0.399418 109.16 -14.633 8.63175)
(-54.2764 9.23437 0.560053 46.3898 -10.4494 -2.8509)
(-47.8395 3.25154 0.858707 23.0278 -4.38251 -2.39991)
(-43.6876 109.048 3.73221 1145.03 26.1655 351.597)
(-50.8032 50.6713 2.40808 557.402 5.49014 146.008)
(-50.7494 56.3976 1.89111 490.275 -2.11963 122.811)
(-52.723 45.3315 1.17363 337.356 -7.05652 75.142)
(-54.8653 32.3465 0.676327 211.352 -8.99013 38.2116)
(-56.3221 19.3476 0.465338 111.27 -8.54338 9.81326)
(-55.2973 9.39879 0.468971 49.3352 -6.43 -5.86514)
(-47.9384 3.22653 0.583766 25.4807 -2.96617 -7.76032)
(-44.6516 111.408 2.12916 1156.3 13.4758 362.34)
(-52.0024 51.0298 1.60269 557.514 3.45307 161.556)
(-51.9308 56.6869 1.38091 491.021 -0.401564 137.763)
(-53.8983 45.5063 1.00163 338.284 -3.06734 86.5576)
(-55.9658 32.5154 0.695363 212.796 -4.31269 45.1791)
(-57.247 19.5213 0.514325 113.176 -4.3543 12.6725)
(-55.9031 9.53743 0.43937 51.6338 -3.49956 -5.94342)
(-47.9233 3.24641 0.434977 27.5184 -1.75206 -9.43492)
(-45.3596 112.639 1.18287 1162.37 6.6786 368.099)
(-52.8228 51.2974 1.01166 558.476 1.98478 170.562)
(-52.7203 56.9458 0.933715 492.192 0.188157 146.994)
(-54.6666 45.689 0.75239 339.33 -1.09683 94.1383)
(-56.6752 32.6674 0.582916 213.974 -1.77963 50.3761)
(-57.8363 19.6485 0.453618 114.521 -1.94546 15.5225)
(-56.2816 9.62188 0.364988 53.1439 -1.6984 -4.8084)
(-47.8813 3.27708 0.310041 29.0607 -0.9445 -9.02091)
(-45.8278 113.253 0.593507 1165.47 3.01879 370.992)
(-53.3398 51.468 0.555621 559.393 0.999977 175.373)
(-53.2126 57.1327 0.535579 493.224 0.255247 152.147)
(-55.139 45.832 0.45914 340.188 -0.285429 98.574)
(-57.108 32.7768 0.377313 214.783 -0.604032 53.6406)
(-58.1937 19.7258 0.301889 115.333 -0.738767 17.5864)
(-56.5078 9.66208 0.235646 54.0072 -0.715947 -3.62166)
(-47.8458 3.2951 0.179344 30.017 -0.453305 -8.09265)
(-46.0501 113.506 0.179567 1166.79 0.859236 372.194)
(-53.5791 51.5489 0.175855 559.92 0.30243 177.452)
(-53.4352 57.2285 0.172915 493.817 0.10468 154.437)
(-55.3495 45.9087 0.152416 340.673 -0.0395717 100.603)
(-57.2991 32.8331 0.128433 215.203 -0.130471 55.1993)
(-58.3489 19.7598 0.103846 115.723 -0.179784 18.6522)
(-56.5867 9.67145 0.0791913 54.4103 -0.191869 -2.90235)
(-47.7769 3.30421 0.0550257 30.4897 -0.137156 -7.42129)
(96.063 163.06 -0.690602 682.617 19.3965 -24.9065)
(-149.416 86.3705 -5.83073 278.187 -3.19145 -21.2222)
(-84.0449 117.054 -8.05586 294.674 -2.94458 -18.4438)
(-80.6997 103.944 -9.10363 191.335 -2.66779 -17.0097)
(-65.7276 87.9805 -9.78552 118.255 -1.70679 -16.4946)
(-59.6905 65.634 -10.1265 55.985 -0.973786 -16.701)
(-58.0072 42.6966 -10.3485 16.0542 -0.751967 -17.5894)
(-70.9189 23.1277 -10.8463 -7.36888 -0.947051 -19.0696)
(-7.37508 95.8442 -2.93662 119.273 -0.293596 -22.741)
(-54.6628 154.334 -5.37931 76.5514 -4.42606 -20.6498)
(-42.4354 168.141 -6.45461 61.9496 -3.8542 -18.897)
(-32.0778 157.227 -7.30644 29.5393 -2.7202 -17.8543)
(-24.832 136.112 -7.84448 6.80421 -1.4259 -17.4212)
(-23.816 107.582 -8.19107 -9.39885 -0.454507 -17.4973)
(-27.4312 75.4179 -8.49838 -17.7267 0.0409211 -18.0255)
(-45.6877 40.2063 -9.21562 -21.6755 0.122713 -18.7842)
(-63.5672 72.714 -4.13257 -229.416 2.41304 -20.1732)
(41.3222 128.645 -7.0362 -111.277 -3.91541 -19.0184)
(38.4639 141.058 -7.4955 -126.62 -3.62652 -17.8204)
(38.9345 133.724 -7.51698 -105.783 -2.53954 -17.0393)
(32.649 117.635 -7.60347 -86.8015 -1.17809 -16.6885)
(24.1551 94.9496 -7.77563 -65.4882 -0.0853967 -16.7341)
(14.5141 67.3908 -8.04652 -45.9437 0.564858 -17.1796)
(13.0081 32.5968 -8.73736 -24.8619 0.763533 -18.0371)
(-165.738 62.1586 -4.86074 -638.276 25.7616 -17.5343)
(118.136 16.8304 -8.48889 -259.978 -2.04239 -15.0321)
(54.7137 38.3874 -8.15461 -304.938 -2.55215 -13.5246)
(57.0888 37.0572 -8.21689 -221.5 -2.1766 -12.5745)
(43.5586 37.4581 -8.09015 -160.138 -0.879952 -12.1448)
(34.7534 33.0308 -8.11704 -99.9655 0.309063 -12.1753)
(27.8293 23.6902 -8.26768 -54.6715 1.10131 -12.6383)
(31.8136 7.55716 -8.81375 -23.5489 1.50216 -14.1634)
(-10.6765 -65.9904 -6.31781 -848.307 -88.4667 -323.676)
(-4.61691 -34.3556 4.0511 -445.284 17.6372 -63.3235)
(-4.18221 -46.9614 3.32007 -436.727 7.18275 -100.925)
(-1.95925 -38.4103 5.36303 -309.331 17.2003 -63.8684)
(0.15855 -28.7477 5.87071 -208.904 16.9557 -48.7066)
(2.30619 -17.9964 5.93403 -120.361 15.1741 -35.3163)
(4.29471 -10.6019 5.46528 -59.747 10.8245 -29.9877)
(6.42433 -9.15633 4.37943 -33.2794 3.52739 -33.3662)
(-12.6824 -71.148 -5.85141 -829.958 -67.189 -339.076)
(-8.60979 -40.8911 0.307134 -504.052 -6.56483 -109.089)
(-8.64193 -46.4032 2.43443 -440.974 13.4451 -97.3456)
(-6.89527 -38.1147 4.21362 -316.484 23.8869 -67.481)
(-4.65011 -27.6758 4.93432 -209.373 26.0828 -50.0071)
(-2.16469 -17.106 4.83342 -119.911 23.4154 -37.8727)
(0.752824 -9.92659 4.08446 -58.3703 16.957 -32.2647)
(5.20059 -9.21271 2.89794 -32.022 7.43007 -35.043)
(-13.8988 -77.0675 -3.69662 -851.784 -40.7661 -375.975)
(-9.74436 -42.1175 -0.0892763 -506.308 -7.59388 -147.959)
(-10.0188 -46.8419 1.54733 -446.857 8.14434 -125.241)
(-8.32626 -38.2741 3.00016 -321.168 17.485 -83.5961)
(-5.9545 -27.5667 3.72551 -211.784 20.644 -55.6562)
(-3.18379 -16.9776 3.7506 -121.122 19.3834 -35.8205)
(0.291997 -9.85481 3.20639 -58.7317 14.7076 -24.4296)
(5.77229 -8.99097 2.15951 -29.0869 6.50966 -20.7347)
(-14.3466 -80.5402 -2.06611 -866.765 -23.8298 -400.616)
(-9.86364 -42.7579 0.0581164 -507.612 -5.68739 -178.037)
(-10.162 -47.2986 1.11426 -450.168 4.32181 -151.13)
(-8.42925 -38.5357 2.10701 -324.22 10.9927 -100.921)
(-5.93185 -27.7323 2.68848 -213.981 13.953 -64.0776)
(-2.95376 -17.1199 2.79051 -122.57 13.7774 -36.9068)
(0.875885 -9.99898 2.46082 -59.404 10.9738 -19.8343)
(6.90866 -9.09487 1.68843 -28.0853 5.12389 -11.3064)
(-14.4498 -82.3406 -1.08706 -874.989 -13.6968 -414.835)
(-9.77199 -43.16 0.165299 -509.078 -3.78282 -197.567)
(-10.0606 -47.6344 0.816143 -452.28 2.26049 -169.298)
(-8.27207 -38.7469 1.43368 -325.975 6.54025 -114.374)
(-5.68207 -27.8919 1.8326 -215.339 8.76617 -71.8199)
(-2.56086 -17.2483 1.94214 -123.411 9.04938 -39.3496)
(1.50297 -10.1141 1.75666 -59.667 7.49996 -17.9382)
(7.90498 -9.20711 1.23163 -27.3889 3.60111 -5.82157)
(-14.4117 -83.2215 -0.539384 -879.205 -7.61358 -422.675)
(-9.6357 -43.3997 0.182636 -510.242 -2.31387 -209.397)
(-9.91056 -47.8623 0.568347 -453.654 1.17777 -180.82)
(-8.07659 -38.8966 0.928961 -326.956 3.73388 -123.415)
(-5.41975 -27.9956 1.17549 -215.982 5.19583 -77.5395)
(-2.20168 -17.3217 1.2592 -123.698 5.54363 -41.7635)
(2.01569 -10.1784 1.15851 -59.6035 4.72836 -17.5222)
(8.65997 -9.30527 0.827289 -26.9587 2.31974 -3.22427)
(-14.3385 -83.626 -0.241409 -881.221 -3.80924 -426.742)
(-9.51546 -43.5288 0.132731 -510.972 -1.23025 -215.997)
(-9.77925 -47.9998 0.33619 -454.468 0.571651 -187.447)
(-7.91493 -38.9907 0.522787 -327.473 1.91495 -128.805)
(-5.21441 -28.054 0.654302 -216.231 2.72617 -81.1466)
(-1.9343 -17.3553 0.704511 -123.704 2.97025 -43.5124)
(2.37991 -10.2089 0.653981 -59.4096 2.57815 -17.6261)
(9.16333 -9.36965 0.465517 -26.6572 1.28151 -2.11868)
(-14.2943 -83.7815 -0.0683784 -882.021 -1.15331 -428.469)
(-9.45289 -43.5847 0.0471214 -511.315 -0.383854 -218.936)
(-9.71308 -48.0638 0.11048 -454.847 0.171694 -190.454)
(-7.83461 -39.0354 0.167965 -327.699 0.589355 -131.302)
(-5.11328 -28.0789 0.209054 -216.311 0.847941 -82.8716)
(-1.79845 -17.3669 0.225783 -123.657 0.93306 -44.4095)
(2.57033 -10.2257 0.210205 -59.2636 0.816405 -17.7714)
(9.35988 -9.39917 0.146233 -26.5329 0.40918 -1.7712)
(-82.0738 20.2202 -3.12299 -18.4746 -0.314508 -24.8847)
(-77.2248 19.7525 1.22791 -15.3937 -0.747646 -22.8894)
(-77.5117 20.2832 0.782875 -13.1492 -0.512314 -30.4483)
(-77.6223 20.758 0.173745 -11.3854 -0.302898 -34.2694)
(-78.0835 21.1817 -0.244452 -10.0677 -0.163083 -35.7171)
(-78.406 21.4903 -0.347869 -9.12816 -0.0888039 -35.4973)
(-78.603 21.6896 -0.277519 -8.53584 -0.0546118 -34.7938)
(-78.7364 21.7783 -0.106283 -8.33842 -0.0227741 -34.3353)
(-63.4021 15.2706 -3.41263 -18.5801 0.911943 -30.276)
(-60.224 14.5508 0.132555 -16.7834 0.288111 -30.422)
(-59.5129 14.7237 0.11597 -15.1265 0.242328 -30.2696)
(-59.6846 15.045 -0.67337 -13.7454 0.294797 -29.6962)
(-60.0125 15.3307 -1.14341 -12.6865 0.300045 -28.8141)
(-60.2556 15.5437 -1.12939 -11.917 0.247945 -27.774)
(-60.3868 15.6865 -0.790421 -11.4047 0.159013 -26.892)
(-60.415 15.7685 -0.28161 -11.1258 0.0540153 -26.377)
(11.7348 5.2966 -3.47477 -18.0023 1.29649 -13.8161)
(7.98666 5.37006 -0.528607 -16.7301 0.70676 -14.6289)
(7.50593 5.62164 -0.532983 -15.492 0.580485 -9.18737)
(7.7509 5.84461 -1.1062 -14.4172 0.547189 -4.48453)
(8.33417 5.99236 -1.41903 -13.5633 0.485306 -1.00828)
(8.8992 6.09086 -1.30123 -12.9304 0.377247 1.23923)
(9.3171 6.15385 -0.885265 -12.5054 0.239773 2.5614)
(9.54888 6.18899 -0.311954 -12.2639 0.0830806 3.18721)
(36.3156 2.21728 -2.59418 -14.8737 1.54214 -15.0432)
(31.6543 2.6294 0.413488 -13.2557 0.809305 -16.5468)
(32.8445 2.72781 0.0641022 -12.0011 0.644354 -3.75727)
(33.953 2.87408 -0.22459 -10.9264 0.542901 5.36834)
(35.3722 2.93429 -0.457955 -10.054 0.449163 11.3641)
(36.4749 2.9742 -0.462733 -9.40507 0.332883 14.6265)
(37.214 2.99846 -0.332998 -8.97528 0.206028 16.2503)
(37.5712 3.00785 -0.12229 -8.75535 0.0705662 16.905)
)
;
    }
    symmetry
    {
        type            symmetryPlane;
    }
    bottom
    {
        type            calculated;
        value           nonuniform List<symmTensor> 
32
(
(486.596 201.282 19.3296 748.966 232.385 492.17)
(474.438 230.191 11.2588 720.273 117.197 458.057)
(491.05 245.044 6.13532 743.968 60.513 467.72)
(501.639 251.313 3.2141 760.059 31.0891 476.055)
(507.388 253.878 1.642 769.089 15.7729 481.061)
(510.479 254.921 0.812505 774.067 7.78667 483.904)
(512.082 255.34 0.368443 776.696 3.52848 485.425)
(512.77 255.485 0.105264 777.836 1.00792 486.088)
(83.8449 67.6973 1.84298 123.462 51.4141 82.8179)
(85.3815 99.5606 1.34897 121.454 25.5627 80.474)
(90.3271 106.756 0.669399 127.849 11.8634 84.3777)
(92.7857 107.533 0.285358 131.503 5.02883 86.6971)
(94.1126 106.804 0.10405 133.678 1.84797 88.1008)
(94.8877 105.94 0.0285913 135.025 0.512245 88.9748)
(95.3368 105.31 0.00320877 135.827 0.0578535 89.4959)
(95.5466 104.991 -0.000864153 136.206 -0.0156305 89.7421)
(-154.748 54.593 -2.92556 -229.616 -85.4811 -152.036)
(-138.554 84.953 -2.79912 -210.108 -53.0862 -141.284)
(-142.457 91.1556 -1.87304 -216.735 -32.9949 -146.954)
(-145.608 91.4514 -1.16297 -221.341 -20.3729 -150.57)
(-147.516 90.4699 -0.698692 -223.939 -12.3563 -152.536)
(-148.568 89.4649 -0.402223 -225.297 -7.18828 -153.542)
(-149.097 88.7577 -0.206488 -225.949 -3.71841 -154.017)
(-149.312 88.4041 -0.0633981 -226.203 -1.14609 -154.201)
(-527.155 115.186 -19.7534 -743.619 -202.087 -503.758)
(-498.774 136.353 -13.3096 -714.754 -117.489 -502.752)
(-519.074 143.455 -8.19215 -744.033 -67.4775 -532.637)
(-532.973 145.544 -4.83199 -762.974 -38.7491 -549.835)
(-540.712 145.957 -2.77697 -773.215 -22.0568 -558.669)
(-544.823 145.876 -1.53717 -778.537 -12.1731 -563.115)
(-546.875 145.715 -0.765411 -781.15 -6.05753 -565.255)
(-547.719 145.613 -0.231049 -782.212 -1.82853 -566.115)
)
;
    }
}


// ************************************************************************* //
