/*--------------------------------*- C++ -*----------------------------------*\
| =========                 |                                                 |
| \\      /  F ield         | foam-extend: Open Source CFD                    |
|  \\    /   O peration     | Version:     3.1                                |
|   \\  /    A nd           | Web:         http://www.extend-project.de       |
|    \\/     M anipulation  |                                                 |
\*---------------------------------------------------------------------------*/
FoamFile
{
    version     2.0;
    format      ascii;
    class       volVectorField;
    location    "1.1";
    object      U;
}
// * * * * * * * * * * * * * * * * * * * * * * * * * * * * * * * * * * * * * //

dimensions      [0 1 -1 0 0 0 0];

internalField   nonuniform List<vector> 
256
(
(-0.0008462 -0.000163888 -0.000888584)
(-0.000374903 0.00011412 -0.00031443)
(-0.000262481 0.000310409 0.000269754)
(-0.000487237 0.000718954 0.00104267)
(-0.00307808 -0.00105659 -0.00122212)
(-0.0025164 0.000108544 -0.000661989)
(-0.00231641 0.00108483 8.19878e-05)
(-0.00241444 0.00241803 0.000713101)
(-0.00567643 -0.00141297 -0.0015253)
(-0.00511513 0.000280144 -0.000917622)
(-0.00485852 0.00184319 -0.000256011)
(-0.0048436 0.00372779 0.000363851)
(-0.00855142 -0.00144743 -0.00170965)
(-0.00803741 0.000637142 -0.00114435)
(-0.00773516 0.00262203 -0.000566385)
(-0.00757591 0.00486941 -1.59233e-05)
(-0.011504 -0.00118494 -0.00184565)
(-0.0110299 0.00112754 -0.00132572)
(-0.01069 0.00336784 -0.000824444)
(-0.0104208 0.00579806 -0.00033164)
(-0.0143857 -0.000731912 -0.00195894)
(-0.0139464 0.00168376 -0.0014738)
(-0.0135762 0.00405363 -0.00102458)
(-0.013226 0.00654528 -0.000568711)
(-0.0171014 -0.000178208 -0.00207278)
(-0.0166908 0.00224887 -0.00160677)
(-0.0162995 0.00465858 -0.00118405)
(-0.0158936 0.00713795 -0.000739744)
(-0.0196059 0.000391726 -0.00220813)
(-0.0192202 0.00278596 -0.00174404)
(-0.0188235 0.00518188 -0.00133363)
(-0.0183848 0.00762456 -0.000881835)
(-0.000928895 -0.000128695 -0.000493007)
(-0.000520351 0.000160646 -0.000174172)
(-0.000446209 0.000336035 0.000192054)
(-0.000680881 0.000700955 0.000671745)
(-0.00342494 -0.000865631 -0.000856125)
(-0.00281048 0.00028849 -0.000457001)
(-0.00263824 0.0012302 5.65478e-05)
(-0.00283449 0.00255708 0.000513873)
(-0.00611254 -0.00120336 -0.00117282)
(-0.00554849 0.000514827 -0.000712923)
(-0.00530228 0.00208247 -0.000205895)
(-0.00530447 0.00398496 0.000277139)
(-0.00903409 -0.00122464 -0.00140234)
(-0.00851181 0.000885578 -0.000938644)
(-0.0082099 0.00288308 -0.000463755)
(-0.00805723 0.00515352 1.7143e-06)
(-0.012003 -0.000970621 -0.00157804)
(-0.0115228 0.00136809 -0.00112398)
(-0.0111783 0.00362625 -0.000683473)
(-0.0109075 0.00608156 -0.000239282)
(-0.0148932 -0.000529524 -0.00172283)
(-0.0144486 0.00191099 -0.00127681)
(-0.0140737 0.00430167 -0.000859975)
(-0.0137235 0.00681998 -0.000427448)
(-0.0176229 1.25328e-05 -0.0018549)
(-0.0172059 0.00246515 -0.00141203)
(-0.0168111 0.00490242 -0.00100706)
(-0.0164113 0.00741351 -0.000574204)
(-0.0201559 0.000572217 -0.00198682)
(-0.0197609 0.00299434 -0.00154571)
(-0.0193597 0.00543148 -0.00115101)
(-0.0189306 0.00791439 -0.000715178)
(-0.000983056 -0.000139006 -0.000302282)
(-0.000575003 0.000169204 -0.000107722)
(-0.000518709 0.000352357 0.000130578)
(-0.000789784 0.000734351 0.000438338)
(-0.00363386 -0.000801132 -0.000608065)
(-0.00299788 0.000370795 -0.00032648)
(-0.00285142 0.00130786 2.78138e-05)
(-0.0031145 0.00265923 0.000353432)
(-0.00642924 -0.00108643 -0.000890182)
(-0.00585066 0.00065161 -0.00054782)
(-0.00562101 0.00222363 -0.00016868)
(-0.0056652 0.004147 0.000200028)
(-0.00941759 -0.00107121 -0.00111974)
(-0.00889027 0.00105738 -0.000751335)
(-0.0085982 0.00306317 -0.000371387)
(-0.00846707 0.00535106 9.06539e-06)
(-0.012429 -0.000799684 -0.00130771)
(-0.0119503 0.00155794 -0.000925641)
(-0.0116121 0.00382933 -0.000550704)
(-0.0113512 0.00630405 -0.000165785)
(-0.0153491 -0.000352746 -0.00146553)
(-0.0149105 0.00210914 -0.0010733)
(-0.0145404 0.00451938 -0.000701179)
(-0.0141942 0.00706226 -0.000309968)
(-0.0181071 0.000188295 -0.00160439)
(-0.0176973 0.00266682 -0.00120399)
(-0.0173067 0.0051323 -0.000832509)
(-0.016909 0.00767639 -0.000432004)
(-0.0206738 0.000744475 -0.00172937)
(-0.0202853 0.00319773 -0.00132842)
(-0.0198876 0.00567312 -0.000964828)
(-0.0194606 0.0081993 -0.000561882)
(-0.00101869 -0.000147674 -0.000197477)
(-0.00060296 0.000172575 -7.12911e-05)
(-0.000555434 0.000362691 8.69865e-05)
(-0.000853896 0.000764322 0.00028787)
(-0.00377592 -0.000782303 -0.000437566)
(-0.00312627 0.000412054 -0.000237269)
(-0.00299687 0.00135637 9.97106e-06)
(-0.00330315 0.00273924 0.000240901)
(-0.00666249 -0.00102801 -0.000669439)
(-0.00607445 0.000733547 -0.00041543)
(-0.0058584 0.00231676 -0.000134579)
(-0.00593413 0.00426611 0.000141929)
(-0.00972167 -0.00097636 -0.000872463)
(-0.00919071 0.00117444 -0.000585784)
(-0.00890818 0.00319369 -0.000288845)
(-0.00879621 0.00550458 1.213e-05)
(-0.0127859 -0.000678332 -0.00104809)
(-0.0123086 0.00170111 -0.000737389)
(-0.0119772 0.00398899 -0.000430209)
(-0.0117262 0.00648688 -0.000111602)
(-0.0157467 -0.00021543 -0.0011995)
(-0.0153128 0.00226996 -0.000869533)
(-0.0149479 0.00470143 -0.000553562)
(-0.0146056 0.00727059 -0.000219187)
(-0.0185401 0.000332854 -0.00133138)
(-0.0181364 0.00283872 -0.00098721)
(-0.0177496 0.00533182 -0.000665213)
(-0.0173523 0.00790782 -0.00031693)
(-0.0211418 0.000890806 -0.00144296)
(-0.0207595 0.00337644 -0.00109597)
(-0.0203653 0.00588641 -0.000779247)
(-0.019937 0.00845109 -0.000427892)
(-0.00104319 -0.000153974 -0.000132332)
(-0.000620511 0.000174493 -4.84614e-05)
(-0.000577802 0.000369968 5.67286e-05)
(-0.000895252 0.000787117 0.00018801)
(-0.00387698 -0.00077992 -0.000311297)
(-0.00321745 0.000434575 -0.000170228)
(-0.00309865 0.0013894 1.05526e-06)
(-0.00343342 0.0028016 0.000162318)
(-0.00683575 -0.00100147 -0.000490029)
(-0.00624141 0.000783997 -0.000305417)
(-0.00603466 0.00238207 -0.000102239)
(-0.00613155 0.00435926 9.91834e-05)
(-0.00995778 -0.000921422 -0.000653968)
(-0.0094242 0.0012536 -0.000438558)
(-0.00914859 0.00328976 -0.000215194)
(-0.00905011 0.0056266 1.2691e-05)
(-0.0130732 -0.000598225 -0.000801332)
(-0.0125965 0.00180507 -0.000560629)
(-0.01227 0.00411181 -0.000321682)
(-0.0120262 0.00663489 -7.25656e-05)
(-0.0160754 -0.000117043 -0.000931339)
(-0.0156444 0.00239282 -0.000669533)
(-0.015283 0.00484609 -0.000417511)
(-0.0149431 0.00744153 -0.000150064)
(-0.0189045 0.000442037 -0.00104445)
(-0.0185044 0.0029745 -0.000767111)
(-0.0181198 0.00549346 -0.00050649)
(-0.0177217 0.00809869 -0.000224423)
(-0.0215395 0.00100486 -0.00113636)
(-0.0211606 0.0035205 -0.00085514)
(-0.0207678 0.00606093 -0.00059777)
(-0.020337 0.00865871 -0.000312345)
(-0.00106004 -0.000158469 -8.61284e-05)
(-0.000632293 0.000175732 -3.19554e-05)
(-0.000592492 0.000375107 3.53161e-05)
(-0.000922797 0.000803417 0.00011813)
(-0.00394791 -0.000783075 -0.000209689)
(-0.00328138 0.000447492 -0.000115327)
(-0.00316911 0.00141231 -2.2486e-06)
(-0.0035225 0.00284803 0.000104612)
(-0.00696039 -0.000990753 -0.000335977)
(-0.00636168 0.000815244 -0.000209763)
(-0.00616082 0.0024278 -7.15547e-05)
(-0.00627135 0.00442952 6.5979e-05)
(-0.010132 -0.000891161 -0.00045526)
(-0.0095965 0.00130576 -0.000304698)
(-0.00932534 0.0033585 -0.000148663)
(-0.00923547 0.0057192 1.10681e-05)
(-0.0132899 -0.000548393 -0.000565218)
(-0.0128133 0.00187685 -0.000393586)
(-0.01249 0.00420154 -0.000222885)
(-0.0122505 0.00674768 -4.44983e-05)
(-0.0163278 -5.14366e-05 -0.000663848)
(-0.0158982 0.00248055 -0.000474214)
(-0.0155387 0.00495347 -0.000291163)
(-0.0151998 0.00757203 -9.67391e-05)
(-0.0191876 0.00051808 -0.000749754)
(-0.0187893 0.00307366 -0.000546772)
(-0.0184055 0.00561466 -0.000355609)
(-0.018006 0.00824426 -0.000148816)
(-0.0218506 0.0010865 -0.000817693)
(-0.0214729 0.00362727 -0.000611029)
(-0.0210801 0.00619259 -0.000421739)
(-0.0206466 0.00881689 -0.000211983)
(-0.00107075 -0.000161408 -4.90015e-05)
(-0.000639767 0.000176505 -1.83578e-05)
(-0.000601708 0.000378434 1.92965e-05)
(-0.000940049 0.000813918 6.52177e-05)
(-0.00399352 -0.000786967 -0.000121465)
(-0.0033225 0.000454741 -6.70316e-05)
(-0.00321405 0.00142706 -2.3849e-06)
(-0.00357883 0.00287899 5.88059e-05)
(-0.00704164 -0.000987209 -0.0001966)
(-0.00644009 0.000833579 -0.000122797)
(-0.00624268 0.00245727 -4.2296e-05)
(-0.0063614 0.00447681 3.7973e-05)
(-0.0102473 -0.000875661 -0.000268809)
(-0.00971038 0.00133753 -0.000179584)
(-0.00944178 0.00340314 -8.7198e-05)
(-0.00935695 0.0057817 7.53245e-06)
(-0.013435 -0.000519969 -0.000336391)
(-0.0129584 0.00192181 -0.00023346)
(-0.0126367 0.00426036 -0.000131007)
(-0.0123995 0.00682382 -2.38381e-05)
(-0.0164986 -1.1927e-05 -0.000397642)
(-0.0160697 0.00253666 -0.000282839)
(-0.015711 0.00502437 -0.000171869)
(-0.0153723 0.00766 -5.39971e-05)
(-0.0193808 0.000565399 -0.000451052)
(-0.0189831 0.00313802 -0.000327388)
(-0.0185992 0.00569508 -0.000210808)
(-0.0181984 0.00834218 -8.4787e-05)
(-0.0220639 0.00113839 -0.000492575)
(-0.0216863 0.00369731 -0.000366342)
(-0.0212928 0.00628032 -0.00025072)
(-0.020857 0.00892317 -0.0001227)
(-0.00107599 -0.000162873 -1.59466e-05)
(-0.000643425 0.000176879 -6.00486e-06)
(-0.000606194 0.000380074 6.1355e-06)
(-0.00094841 0.000819066 2.08718e-05)
(-0.0040159 -0.00078937 -3.98287e-05)
(-0.0033427 0.000458036 -2.20138e-05)
(-0.00323603 0.00143434 -9.51476e-07)
(-0.00360622 0.00289449 1.89964e-05)
(-0.0070818 -0.000986392 -6.47617e-05)
(-0.00647886 0.000842103 -4.04506e-05)
(-0.00628303 0.00247178 -1.39878e-05)
(-0.00640559 0.00450063 1.24215e-05)
(-0.0103047 -0.00086921 -8.89183e-05)
(-0.00976708 0.00135259 -5.9342e-05)
(-0.00949964 0.00342518 -2.87348e-05)
(-0.00941709 0.0058132 2.66945e-06)
(-0.0135079 -0.000507163 -0.000111688)
(-0.013031 0.00194345 -7.73783e-05)
(-0.0127101 0.00428948 -4.32184e-05)
(-0.0124739 0.00686216 -7.4751e-06)
(-0.0165848 6.50912e-06 -0.000132427)
(-0.016156 0.00256397 -9.39908e-05)
(-0.0157976 0.00505959 -5.68173e-05)
(-0.0154589 0.00770424 -1.73364e-05)
(-0.0194787 0.000587917 -0.000150523)
(-0.0190811 0.00316962 -0.000108995)
(-0.018697 0.00573516 -6.98324e-05)
(-0.0182954 0.00839135 -2.75191e-05)
(-0.0221723 0.00116336 -0.000164475)
(-0.0217944 0.00373197 -0.00012203)
(-0.0214004 0.00632418 -8.31615e-05)
(-0.0209634 0.0089765 -4.0147e-05)
)
;

boundaryField
{
    interface
    {
        type            calculated;
        value           nonuniform List<vector> 
192
(
(-0.00184284 -0.0011552 -0.000963549)
(-0.0034924 -0.0019933 -0.00142977)
(-0.00614302 -0.00260448 -0.00178351)
(-0.00892488 -0.00275076 -0.00198792)
(-0.011816 -0.00254262 -0.0021332)
(-0.014636 -0.00207333 -0.00225132)
(-0.0173026 -0.001459 -0.00237211)
(-0.0197929 -0.000793915 -0.00251483)
(-0.00192265 -0.00122926 -0.000537943)
(-0.00390211 -0.00186393 -0.000995248)
(-0.00656881 -0.00242039 -0.00136915)
(-0.00940147 -0.00254312 -0.00162931)
(-0.0123012 -0.00233499 -0.00182391)
(-0.0151297 -0.0018773 -0.00198026)
(-0.0178124 -0.00127749 -0.00212329)
(-0.0203359 -0.000624585 -0.00226724)
(-0.00203354 -0.00129863 -0.000333154)
(-0.00413567 -0.00185524 -0.000702818)
(-0.0069002 -0.00233538 -0.00103307)
(-0.00979032 -0.00241206 -0.00130023)
(-0.0127253 -0.00217849 -0.00151426)
(-0.0155804 -0.00171275 -0.001691)
(-0.0182906 -0.00111521 -0.00184562)
(-0.0208488 -0.000468505 -0.0019851)
(-0.00211259 -0.00134773 -0.000219046)
(-0.00429633 -0.00187528 -0.000504601)
(-0.00714684 -0.00231112 -0.000774467)
(-0.0101005 -0.00234304 -0.001012)
(-0.0130823 -0.00207695 -0.00121508)
(-0.0159742 -0.00159193 -0.00138816)
(-0.018718 -0.000986362 -0.00153806)
(-0.021311 -0.000338587 -0.00166532)
(-0.00216746 -0.00138286 -0.000147482)
(-0.00441097 -0.00190162 -0.000358907)
(-0.00733025 -0.00231342 -0.000566395)
(-0.0103417 -0.00231286 -0.000758475)
(-0.0133705 -0.00201742 -0.000930093)
(-0.0163009 -0.00151104 -0.00108039)
(-0.0190787 -0.0008931 -0.00121072)
(-0.0217047 -0.000239888 -0.00131741)
(-0.00220496 -0.00140762 -9.63136e-05)
(-0.00449127 -0.00192547 -0.000241912)
(-0.00746203 -0.00232475 -0.00038839)
(-0.0105197 -0.00230292 -0.000528222)
(-0.0135882 -0.0019854 -0.000656711)
(-0.0165521 -0.00146092 -0.000771424)
(-0.0193595 -0.00083101 -0.000871241)
(-0.0220136 -0.000171178 -0.000951129)
(-0.00222859 -0.0014236 -5.49092e-05)
(-0.00454277 -0.00194288 -0.000140228)
(-0.00754783 -0.00233604 -0.000227358)
(-0.0106374 -0.00230161 -0.000312033)
(-0.0137342 -0.00196981 -0.000391136)
(-0.0167225 -0.00143278 -0.000462606)
(-0.0195514 -0.000793923 -0.000524959)
(-0.0222258 -0.000128618 -0.000574197)
(-0.00224008 -0.00143148 -1.78837e-05)
(-0.00456799 -0.00195197 -4.59982e-05)
(-0.00759022 -0.00234268 -7.49099e-05)
(-0.0106961 -0.00230241 -0.000103241)
(-0.0138074 -0.00196368 -0.000129912)
(-0.0168085 -0.0014203 -0.000154147)
(-0.0196488 -0.00077677 -0.000175316)
(-0.0223337 -0.000108602 -0.000191929)
(-0.000758352 -0.000722188 -0.00146558)
(-0.00281002 -0.00118907 -0.00135094)
(-0.00539592 -0.00158431 -0.00171569)
(-0.00825202 -0.00157017 -0.00185228)
(-0.0112081 -0.00129064 -0.00197111)
(-0.0140922 -0.000825657 -0.00206887)
(-0.0168069 -0.000273116 -0.00217322)
(-0.0193052 0.000298287 -0.00231184)
(-0.000200447 -0.00020651 -0.000517296)
(-0.00215935 -6.30147e-05 -0.000770935)
(-0.00479102 8.84386e-05 -0.00102649)
(-0.00773892 0.000474122 -0.00124507)
(-0.0107629 0.000991556 -0.0014256)
(-0.0136995 0.00157007 -0.00157401)
(-0.0164526 0.00214502 -0.00170889)
(-0.0189812 0.00268464 -0.0018483)
(-5.94641e-05 0.000392451 0.000300333)
(-0.00195711 0.000854241 1.39394e-05)
(-0.00454183 0.00161884 -0.000305665)
(-0.00745678 0.00240922 -0.00062727)
(-0.0104449 0.00319471 -0.000893158)
(-0.0133491 0.00391539 -0.00110179)
(-0.0160761 0.00454251 -0.00126794)
(-0.0185962 0.00506743 -0.00141939)
(-0.00031538 0.00125678 0.0013635)
(-0.00217162 0.00216989 0.000683632)
(-0.00459464 0.00349663 0.000397648)
(-0.00734295 0.0046262 -3.40688e-05)
(-0.0101976 0.00560251 -0.000374698)
(-0.0130009 0.00639379 -0.000635749)
(-0.0156546 0.00701773 -0.000823112)
(-0.0181281 0.00749874 -0.000963294)
(-0.000981765 0.00190984 0.00112575)
(-0.00251191 0.00354159 0.00091793)
(-0.00486695 0.00514707 0.000619825)
(-0.0074673 0.0063374 0.000241064)
(-0.0102333 0.00725369 -7.60325e-05)
(-0.0129911 0.00792671 -0.000311203)
(-0.0156389 0.00842562 -0.000470681)
(-0.0181374 0.00883144 -0.000595058)
(-0.00117564 0.00209355 0.000742723)
(-0.00297754 0.00377296 0.000684281)
(-0.00532683 0.00541572 0.00048917)
(-0.00795386 0.00662979 0.000229607)
(-0.0107218 0.00754183 7.61241e-08)
(-0.0134906 0.0082133 -0.000176761)
(-0.01616 0.00872086 -0.000307848)
(-0.0186852 0.0091447 -0.000426893)
(-0.00131949 0.00228862 0.000486781)
(-0.00327184 0.0039408 0.000474567)
(-0.00570326 0.00560928 0.000363912)
(-0.00837193 0.00684862 0.000199515)
(-0.0111677 0.00777989 4.40606e-05)
(-0.0139596 0.00847172 -8.28924e-05)
(-0.0166539 0.00900258 -0.000186966)
(-0.0192097 0.00945288 -0.000295624)
(-0.00141395 0.00243022 0.000321037)
(-0.00347376 0.00407396 0.000327293)
(-0.00598504 0.00576658 0.000265902)
(-0.00870818 0.00702926 0.00016419)
(-0.0115444 0.00798422 6.283e-05)
(-0.0143689 0.00869909 -2.54826e-05)
(-0.0170929 0.00925302 -0.000105108)
(-0.0196799 0.00972589 -0.000197022)
(-0.00147807 0.00252933 0.000210898)
(-0.00361419 0.00417749 0.00022348)
(-0.00619131 0.005894 0.000190297)
(-0.00896658 0.00717818 0.000128503)
(-0.0118449 0.0081542 6.39618e-05)
(-0.0147041 0.00888884 4.31111e-06)
(-0.0174584 0.00946132 -5.39294e-05)
(-0.0200746 0.0099516 -0.000125892)
(-0.00152178 0.00259695 0.00013336)
(-0.00371048 0.00425379 0.000145877)
(-0.00633691 0.00599117 0.000128785)
(-0.00915451 0.0072932 9.26226e-05)
(-0.012069 0.00828578 5.32893e-05)
(-0.0149587 0.00903532 1.51314e-05)
(-0.0177394 0.00962124 -2.44163e-05)
(-0.02038 0.0101241 -7.55362e-05)
(-0.00154941 0.00263944 7.40107e-05)
(-0.00377138 0.00430416 8.27946e-05)
(-0.00643045 0.00605675 7.49027e-05)
(-0.00927733 0.00737146 5.60526e-05)
(-0.0122177 0.00837535 3.49023e-05)
(-0.0151296 0.00913473 1.3666e-05)
(-0.0179296 0.00972929 -9.22295e-06)
(-0.0205876 0.0102403 -3.96617e-05)
(-0.00156284 0.00266002 2.3753e-05)
(-0.00380099 0.00432922 2.68801e-05)
(-0.00647628 0.00608976 2.46174e-05)
(-0.00933804 0.00741103 1.87764e-05)
(-0.0122918 0.00842065 1.21094e-05)
(-0.0152153 0.00918491 5.29537e-06)
(-0.0180253 0.00978367 -2.19162e-06)
(-0.0206925 0.0102987 -1.22925e-05)
(-0.0207528 0.000659997 -0.00227046)
(-0.0213206 0.000835773 -0.0020406)
(-0.0218559 0.00100723 -0.00177535)
(-0.0223406 0.00115337 -0.001478)
(-0.0227533 0.00126892 -0.00116086)
(-0.023077 0.0013527 -0.000833218)
(-0.0232992 0.00140653 -0.000500996)
(-0.0234122 0.00143254 -0.000167128)
(-0.0203837 0.00303622 -0.00181567)
(-0.0209506 0.00324235 -0.0016127)
(-0.0214959 0.00344744 -0.00138888)
(-0.0219885 0.00362892 -0.00114569)
(-0.0224055 0.00377642 -0.000892908)
(-0.0227307 0.00388651 -0.00063709)
(-0.0229531 0.00395913 -0.000381517)
(-0.0230659 0.00399524 -0.000127006)
(-0.0199972 0.00541503 -0.00142139)
(-0.0205602 0.00567154 -0.00123753)
(-0.0211116 0.00591811 -0.0010436)
(-0.021609 0.006137 -0.000845689)
(-0.0220281 0.00631694 -0.000649777)
(-0.0223534 0.00645317 -0.00045872)
(-0.0225752 0.0065442 -0.000272756)
(-0.0226875 0.00658983 -9.04719e-05)
(-0.0195679 0.00785159 -0.000983145)
(-0.0201373 0.00815115 -0.00082355)
(-0.0206907 0.00844474 -0.000661654)
(-0.021188 0.00870485 -0.000512647)
(-0.0216055 0.00891976 -0.000379443)
(-0.0219288 0.00908367 -0.000260288)
(-0.0221488 0.00919389 -0.000151771)
(-0.02226 0.00924921 -4.98428e-05)
)
;
    }
    symmetry
    {
        type            symmetryPlane;
    }
    bottom
    {
        type            calculated;
        value           uniform (0 0 0);
    }
}


// ************************************************************************* //
