/*--------------------------------*- C++ -*----------------------------------*\
| =========                 |                                                 |
| \\      /  F ield         | foam-extend: Open Source CFD                    |
|  \\    /   O peration     | Version:     3.1                                |
|   \\  /    A nd           | Web:         http://www.extend-project.de       |
|    \\/     M anipulation  |                                                 |
\*---------------------------------------------------------------------------*/
FoamFile
{
    version     2.0;
    format      ascii;
    class       volVectorField;
    location    "1.4";
    object      D;
}
// * * * * * * * * * * * * * * * * * * * * * * * * * * * * * * * * * * * * * //

dimensions      [0 1 0 0 0 0 0];

internalField   nonuniform List<vector> 
256
(
(0.000351522 0.000222429 0.000373829)
(0.000156016 4.27865e-05 0.000113155)
(0.000137394 -6.55207e-05 -0.000133414)
(0.00029132 -0.000249526 -0.000413121)
(0.00144525 0.000918208 0.000299747)
(0.00119809 0.000245209 0.000113298)
(0.00115033 -0.000290558 -0.000171963)
(0.00129187 -0.000967337 -0.000384877)
(0.00281564 0.00141621 0.000206117)
(0.00256624 0.000408715 6.15267e-05)
(0.00250182 -0.000480253 -0.000146628)
(0.00261398 -0.00150098 -0.000314945)
(0.00443985 0.00179786 7.45922e-05)
(0.00421301 0.000522083 9.89855e-06)
(0.00413724 -0.000648768 -0.000111899)
(0.0042024 -0.00194108 -0.000199924)
(0.00623104 0.00205236 -5.60601e-05)
(0.00602562 0.000584844 -3.99705e-05)
(0.00594199 -0.000791796 -7.31924e-05)
(0.0059683 -0.00227447 -7.96516e-05)
(0.00810885 0.00220375 -0.000172322)
(0.00792369 0.000606484 -8.40542e-05)
(0.00783549 -0.000912297 -3.82264e-05)
(0.00783157 -0.00251961 2.99838e-05)
(0.0100086 0.00227582 -0.000264429)
(0.00983855 0.000596714 -0.00012271)
(0.00974847 -0.00101255 -1.16e-05)
(0.00972701 -0.00269319 0.000116887)
(0.0118958 0.00229245 -0.000331626)
(0.011721 0.000567507 -0.000158228)
(0.0116268 -0.00109547 3.63773e-06)
(0.0116075 -0.00281545 0.000169319)
(0.000384143 0.000219724 0.000179909)
(0.000193177 4.35275e-05 5.70183e-05)
(0.000174346 -6.13469e-05 -7.61454e-05)
(0.000318331 -0.000236276 -0.000215842)
(0.00151301 0.000908224 0.000162576)
(0.00123627 0.000245067 5.62066e-05)
(0.00118915 -0.000283179 -0.000109141)
(0.00135869 -0.000951007 -0.000233334)
(0.00285012 0.00142673 0.000104726)
(0.00259993 0.00041663 2.47295e-05)
(0.00253496 -0.000481742 -0.000100683)
(0.00264418 -0.00150484 -0.00019591)
(0.00442729 0.00181465 1.59579e-05)
(0.00420153 0.00053483 -1.19056e-05)
(0.00412443 -0.000648636 -7.91482e-05)
(0.004183 -0.00194465 -0.000121322)
(0.00616247 0.00207446 -7.81319e-05)
(0.00596129 0.000602496 -4.86028e-05)
(0.00587569 -0.00078689 -5.30319e-05)
(0.00589121 -0.00227278 -3.66425e-05)
(0.00798594 0.00222809 -0.000164201)
(0.00780643 0.000627856 -8.21648e-05)
(0.00771616 -0.000899889 -2.88925e-05)
(0.00769986 -0.00250775 4.21641e-05)
(0.00983836 0.0022999 -0.000233953)
(0.00967633 0.000620048 -0.000112051)
(0.00958504 -0.000991439 -1.20243e-05)
(0.00955 -0.00266844 0.000103335)
(0.0116913 0.00231464 -0.000283796)
(0.0115256 0.000591015 -0.000138662)
(0.0114319 -0.00106627 -8.14099e-06)
(0.011401 -0.00277805 0.000133591)
(0.000395822 0.00022522 8.25698e-05)
(0.000193917 4.61357e-05 2.59897e-05)
(0.00017296 -6.23146e-05 -4.23498e-05)
(0.000322865 -0.000240223 -0.000109017)
(0.00153193 0.000896616 7.43609e-05)
(0.00123254 0.000243628 2.13875e-05)
(0.00118252 -0.000274944 -6.52198e-05)
(0.00136856 -0.000933599 -0.0001286)
(0.00285195 0.00141204 3.61393e-05)
(0.00258418 0.000417419 3.94171e-07)
(0.00251564 -0.000469799 -6.3762e-05)
(0.00263574 -0.00147825 -0.000107327)
(0.00439894 0.00180028 -2.31834e-05)
(0.00416092 0.000538929 -2.52044e-05)
(0.00407983 -0.000631728 -5.15458e-05)
(0.00414337 -0.00190922 -6.00658e-05)
(0.00609848 0.00206461 -8.82658e-05)
(0.00588865 0.000611365 -5.1445e-05)
(0.00579887 -0.000764567 -3.51984e-05)
(0.00581551 -0.00223067 -3.62755e-06)
(0.00788565 0.00222501 -0.000149626)
(0.00770052 0.000642069 -7.62637e-05)
(0.00760629 -0.000871828 -1.99545e-05)
(0.00758825 -0.00245984 4.98714e-05)
(0.00970548 0.00230495 -0.000200784)
(0.00954075 0.000639376 -9.92129e-05)
(0.00944608 -0.000957828 -1.09891e-05)
(0.009407 -0.00261579 8.99563e-05)
(0.0115341 0.00232827 -0.000237441)
(0.0113681 0.000614686 -0.000120433)
(0.0112712 -0.00102813 -1.47687e-05)
(0.0112338 -0.00272212 0.000103291)
(0.000396674 0.000227815 3.403e-05)
(0.000187274 4.74298e-05 1.02542e-05)
(0.000164534 -6.25358e-05 -2.24353e-05)
(0.000318393 -0.000241632 -5.12935e-05)
(0.00152695 0.000888019 2.5453e-05)
(0.00121409 0.000243132 3.79133e-06)
(0.00116115 -0.000267077 -3.72324e-05)
(0.00135542 -0.000917252 -6.46789e-05)
(0.00283197 0.00139722 -2.18203e-06)
(0.00255156 0.000417978 -1.1242e-05)
(0.00247987 -0.000455226 -3.80069e-05)
(0.00260741 -0.00144809 -5.07288e-05)
(0.00435814 0.00178403 -4.27376e-05)
(0.00411002 0.000542188 -2.93202e-05)
(0.00402576 -0.000610949 -3.12218e-05)
(0.0040944 -0.00186848 -2.02225e-05)
(0.00603397 0.00205115 -8.76312e-05)
(0.0058165 0.000618755 -4.80628e-05)
(0.00572367 -0.0007381 -2.1354e-05)
(0.00574321 -0.00218244 1.68594e-05)
(0.0077969 0.00221731 -0.00013095)
(0.00760641 0.000654491 -6.6356e-05)
(0.00750938 -0.00084025 -1.23789e-05)
(0.00749229 -0.00240644 5.21394e-05)
(0.00959427 0.00230467 -0.000168182)
(0.00942629 0.000656955 -8.40781e-05)
(0.00932913 -0.000921862 -8.72254e-06)
(0.00928916 -0.002559 7.72118e-05)
(0.0114046 0.00233551 -0.000195206)
(0.0112367 0.000636945 -0.000101277)
(0.0111369 -0.000988834 -1.61895e-05)
(0.0110967 -0.0026634 8.0446e-05)
(0.000394031 0.000228479 1.10739e-05)
(0.000180374 4.81218e-05 2.95234e-06)
(0.000156372 -6.23032e-05 -1.10539e-05)
(0.000311961 -0.000241122 -2.13635e-05)
(0.00151391 0.000881748 1.88991e-06)
(0.00119323 0.000243504 -3.56316e-06)
(0.00113806 -0.000260212 -2.00764e-05)
(0.00133621 -0.000903 -2.86173e-05)
(0.00280524 0.00138664 -1.86215e-05)
(0.0025168 0.000419547 -1.44986e-05)
(0.0024428 -0.000441912 -2.12347e-05)
(0.00257456 -0.00142216 -1.86289e-05)
(0.00431575 0.00177229 -4.66097e-05)
(0.00406064 0.000546136 -2.72394e-05)
(0.00397423 -0.000591753 -1.74857e-05)
(0.00404641 -0.00183313 1.34693e-06)
(0.00597495 0.00204129 -7.74448e-05)
(0.00575187 0.000626115 -4.05045e-05)
(0.0056571 -0.000713718 -1.17126e-05)
(0.00567917 -0.00214015 2.54873e-05)
(0.00772114 0.00221156 -0.000107654)
(0.00752648 0.000665901 -5.38058e-05)
(0.00742776 -0.000811421 -6.78966e-06)
(0.00741211 -0.00235931 4.82042e-05)
(0.00950251 0.0023042 -0.000134294)
(0.00933177 0.000672454 -6.72205e-05)
(0.0092331 -0.000889392 -6.16262e-06)
(0.00919341 -0.00250863 6.32627e-05)
(0.0112985 0.00234022 -0.00015383)
(0.0111287 0.000656111 -8.07137e-05)
(0.0110271 -0.000953602 -1.44158e-05)
(0.0109859 -0.00261106 6.14862e-05)
(0.000390945 0.000228364 1.50332e-06)
(0.000175 4.85141e-05 6.91098e-08)
(0.000150142 -6.1916e-05 -4.9106e-06)
(0.000306251 -0.000239944 -7.10105e-06)
(0.0015006 0.000877391 -6.63675e-06)
(0.00117549 0.000244246 -5.27565e-06)
(0.00111875 -0.000254794 -1.00182e-05)
(0.00131855 -0.00089176 -1.02302e-05)
(0.00278055 0.00137985 -2.11287e-05)
(0.00248722 0.000421575 -1.28455e-05)
(0.00241166 -0.00043132 -1.09427e-05)
(0.00254567 -0.0014023 -3.17598e-06)
(0.00427931 0.00176505 -3.97316e-05)
(0.0040197 0.000550196 -2.14188e-05)
(0.00393189 -0.000576413 -8.91409e-06)
(0.00400625 -0.00180611 9.56035e-06)
(0.00592673 0.00203545 -6.00532e-05)
(0.00569987 0.000632826 -3.03625e-05)
(0.0056039 -0.00069421 -5.69057e-06)
(0.00562777 -0.00210763 2.46974e-05)
(0.00766127 0.00220848 -8.01529e-05)
(0.0074637 0.0006756 -3.95169e-05)
(0.00736399 -0.000788383 -3.20799e-06)
(0.00734957 -0.00232275 3.86868e-05)
(0.00943128 0.00230449 -9.82092e-05)
(0.00925849 0.000685073 -4.90182e-05)
(0.00915898 -0.000863501 -3.8893e-06)
(0.00911988 -0.00246921 4.72814e-05)
(0.0112164 0.00234374 -0.000111562)
(0.011045 0.000671313 -5.87945e-05)
(0.0109424 -0.000925527 -1.09605e-05)
(0.0109011 -0.00256973 4.3981e-05)
(0.000388577 0.000228053 -1.21245e-06)
(0.000171473 4.87323e-05 -6.11761e-07)
(0.00014608 -6.15671e-05 -1.867e-06)
(0.00030221 -0.000238841 -1.43967e-06)
(0.00149056 0.00087463 -6.74676e-06)
(0.00116308 0.000244944 -4.06029e-06)
(0.00110536 -0.000251077 -4.39704e-06)
(0.00130574 -0.000884053 -2.43295e-06)
(0.00276242 0.00137589 -1.54545e-05)
(0.00246633 0.000423338 -8.54006e-06)
(0.00238979 -0.00042405 -4.94548e-06)
(0.00252491 -0.00138896 1.8509e-06)
(0.00425319 0.00176106 -2.61887e-05)
(0.00399093 0.000553463 -1.35196e-05)
(0.00390228 -0.00056587 -3.94609e-06)
(0.00397786 -0.00178805 8.99776e-06)
(0.00589286 0.00203246 -3.78332e-05)
(0.00566371 0.000637918 -1.87218e-05)
(0.00556706 -0.000680792 -2.33977e-06)
(0.00559203 -0.00208584 1.735e-05)
(0.00761989 0.00220719 -4.94156e-05)
(0.0074205 0.000682657 -2.41193e-05)
(0.00732024 -0.000772532 -1.24155e-06)
(0.00730667 -0.00229812 2.49374e-05)
(0.00938246 0.00230516 -5.99415e-05)
(0.00920836 0.000693995 -2.98192e-05)
(0.0091084 -0.000845688 -2.08068e-06)
(0.00906982 -0.00244248 2.92996e-05)
(0.0111602 0.00234623 -6.77679e-05)
(0.0109878 0.000681864 -3.57549e-05)
(0.0108846 -0.000906194 -6.7549e-06)
(0.0108435 -0.0025415 2.65848e-05)
(0.000387322 0.000227839 -7.1589e-07)
(0.000169742 4.88311e-05 -2.97881e-07)
(0.000144093 -6.13673e-05 -4.53181e-07)
(0.000300144 -0.000238205 -5.02499e-08)
(0.00148526 0.000873289 -2.66817e-06)
(0.00115677 0.00024535 -1.48387e-06)
(0.00109856 -0.00024919 -1.20754e-06)
(0.0012991 -0.000880144 -2.29792e-07)
(0.00275294 0.00137407 -5.5789e-06)
(0.0024556 0.000424339 -2.96947e-06)
(0.00237859 -0.000420364 -1.38545e-06)
(0.00251416 -0.00138228 1.21362e-06)
(0.00423962 0.00175931 -9.0972e-06)
(0.00397616 0.000555263 -4.60622e-06)
(0.00388711 -0.000560522 -1.08486e-06)
(0.00396323 -0.00177903 3.52394e-06)
(0.00587542 0.00203124 -1.29001e-05)
(0.00564522 0.000640652 -6.31773e-06)
(0.00554825 -0.000673982 -6.01013e-07)
(0.00557374 -0.00207495 6.19695e-06)
(0.00759875 0.00220677 -1.66929e-05)
(0.00739849 0.000686367 -8.10531e-06)
(0.00729799 -0.000764484 -2.97758e-07)
(0.00728484 -0.00228578 8.60061e-06)
(0.00935759 0.00230563 -2.01591e-05)
(0.00918287 0.000698617 -1.0008e-05)
(0.00908273 -0.000836636 -6.46651e-07)
(0.00904444 -0.00242902 9.92976e-06)
(0.0111316 0.00234746 -2.27432e-05)
(0.0109587 0.000687287 -1.19989e-05)
(0.0108553 -0.000896349 -2.27268e-06)
(0.0108144 -0.00252724 8.91006e-06)
)
;

boundaryField
{
    interface
    {
        type            tractionDisplacement;
        gradient        nonuniform List<vector> 
192
(
(0.0326263 0.0443788 0.000562687)
(0.0157048 0.0439003 0.00131715)
(0.0175672 0.0575523 -0.000347975)
(0.0146172 0.0654722 -0.00290986)
(0.012563 0.0712444 -0.00550749)
(0.0105715 0.0741887 -0.00791596)
(0.00934839 0.07527 -0.00980347)
(0.00859493 0.0764988 -0.010809)
(0.033105 0.0465358 0.000326309)
(0.0180815 0.0434543 0.000856658)
(0.0177809 0.0555626 -9.9364e-05)
(0.0150787 0.0633494 -0.00176482)
(0.0128653 0.0690441 -0.00355457)
(0.0109235 0.0722791 -0.00531002)
(0.0096856 0.0738565 -0.00679245)
(0.00887031 0.0759227 -0.00772854)
(0.0341396 0.0476433 -9.51985e-05)
(0.0188545 0.0431904 -0.000176718)
(0.0183669 0.0543451 -0.000836684)
(0.0154138 0.0619106 -0.0018677)
(0.0129814 0.0675138 -0.00307584)
(0.0109046 0.0708862 -0.0042817)
(0.00958515 0.0727434 -0.00534772)
(0.00859164 0.0753166 -0.00610351)
(0.0346923 0.0479216 -0.000270803)
(0.0194402 0.0428241 -0.000625845)
(0.0189616 0.0535826 -0.00118315)
(0.0158861 0.0609239 -0.0019043)
(0.0133081 0.0664675 -0.00271958)
(0.0111076 0.0699009 -0.00354326)
(0.00969386 0.0719112 -0.00430356)
(0.00857692 0.0747575 -0.00490347)
(0.0348884 0.0478288 -0.000297808)
(0.0198043 0.042439 -0.000716564)
(0.0193748 0.0530132 -0.00118655)
(0.0162612 0.0602448 -0.00171931)
(0.013608 0.0657539 -0.00228703)
(0.011325 0.0692137 -0.0028573)
(0.00984024 0.0712965 -0.0034027)
(0.00862835 0.0742784 -0.00387021)
(0.0349158 0.0476228 -0.00024534)
(0.0200128 0.0420986 -0.000602576)
(0.0196358 0.0525835 -0.000961191)
(0.0165204 0.0597714 -0.0013408)
(0.0138331 0.0652685 -0.00172724)
(0.0115032 0.0687408 -0.00211109)
(0.00997355 0.0708533 -0.00248498)
(0.00870728 0.0738989 -0.00282064)
(0.0348864 0.0474365 -0.000156518)
(0.0201209 0.0418498 -0.000389326)
(0.0197838 0.0522903 -0.000613804)
(0.0166765 0.0594641 -0.000844212)
(0.0139746 0.0649604 -0.00107263)
(0.0116218 0.0684393 -0.0012975)
(0.0100667 0.0705631 -0.00151801)
(0.00877072 0.073637 -0.00172099)
(0.0348586 0.0473314 -5.32894e-05)
(0.0201649 0.0417198 -0.000133518)
(0.0198493 0.0521412 -0.000209867)
(0.0167478 0.0593113 -0.00028731)
(0.0140412 0.0648095 -0.00036328)
(0.0116795 0.068292 -0.000437726)
(0.0101118 0.0704199 -0.000510812)
(0.00880192 0.0735006 -0.000578778)
(-0.00198853 0.015077 0.0172589)
(-0.00382293 -0.00486441 0.00266675)
(-0.00102642 -0.00404033 0.00436604)
(0.00177443 -0.00545635 0.00220241)
(0.00500086 -0.00522795 0.00102202)
(0.0078942 -0.00461375 -0.000123397)
(0.0101727 -0.00372139 -0.00081524)
(0.0117566 -0.00216941 -0.00174096)
(-0.00560961 0.00589396 0.00391418)
(-0.00981532 -0.00164761 0.000951687)
(-0.00631299 -0.00129152 0.000714621)
(-0.00281097 -0.00179077 7.07359e-05)
(0.00100408 -0.00186434 -0.000312045)
(0.00439382 -0.00186255 -0.000633019)
(0.00719861 -0.00183374 -0.000848258)
(0.00935141 -0.00142443 -0.00141551)
(-0.00603928 -0.0073096 -0.00439557)
(-0.0102246 0.00173987 -0.000874692)
(-0.0067914 0.00161042 -0.00120357)
(-0.00320313 0.00202148 -0.000812267)
(0.000617801 0.00165085 -0.000538247)
(0.00403598 0.00108835 -0.000226863)
(0.00691333 0.00041036 5.73844e-05)
(0.00903906 -0.000383017 0.000680408)
(-0.00350902 -0.0186573 -0.0165409)
(-0.00506247 0.00429393 -0.00284311)
(-0.00263325 0.00396889 -0.00486548)
(0.000303663 0.00534192 -0.00294064)
(0.00352836 0.00475839 -0.00185845)
(0.00645111 0.00375578 -0.000731743)
(0.0088318 0.00239374 0.000120898)
(0.0104142 0.000350374 0.00120148)
(0.0261573 -0.0433703 -0.00132483)
(0.0107245 -0.0440453 -0.00266324)
(0.0104984 -0.0591428 -0.00145498)
(0.00645044 -0.0671938 0.00107159)
(0.00359712 -0.0727928 0.00374144)
(0.00129674 -0.0753968 0.00632822)
(1.60474e-05 -0.0760454 0.00849898)
(-0.000260404 -0.0757904 0.00995032)
(0.0256752 -0.0458705 -0.000686891)
(0.0126403 -0.0442518 -0.00124833)
(0.010334 -0.0571323 -0.00034238)
(0.00649679 -0.0649965 0.00139474)
(0.00349602 -0.0704315 0.00327698)
(0.00121368 -0.073266 0.0051396)
(-0.000111446 -0.0743447 0.00674306)
(-0.000275175 -0.0747991 0.00800218)
(0.0262928 -0.0468261 -0.000112257)
(0.0132956 -0.0441017 4.45196e-05)
(0.0109056 -0.055893 0.00074725)
(0.00686893 -0.0635017 0.00184524)
(0.00366638 -0.0688052 0.00312145)
(0.00122972 -0.0717428 0.0044012)
(-0.000224534 -0.0730539 0.00557163)
(-0.000591284 -0.0737945 0.00659832)
(0.0265904 -0.0468058 0.000160818)
(0.0137926 -0.0437077 0.000613097)
(0.0114204 -0.0551083 0.00123581)
(0.00729094 -0.0624912 0.0020133)
(0.00395191 -0.0677155 0.00287686)
(0.00138651 -0.0706834 0.00375204)
(-0.000187992 -0.0720858 0.00458594)
(-0.000679206 -0.0729424 0.00537007)
(0.0266312 -0.0464012 0.00024068)
(0.0141017 -0.0432572 0.000743312)
(0.0117683 -0.0545049 0.00127129)
(0.00761 -0.0617933 0.00184585)
(0.0041993 -0.0669757 0.00244633)
(0.00154826 -0.0699479 0.00305029)
(-0.000112543 -0.0713774 0.00364152)
(-0.000687038 -0.0722647 0.00422789)
(0.026562 -0.0459352 0.000217703)
(0.014273 -0.0428531 0.000637484)
(0.0119792 -0.0540415 0.00103869)
(0.00781968 -0.0613038 0.00144621)
(0.00437496 -0.0664723 0.00185336)
(0.00167562 -0.0694439 0.00225731)
(-3.66416e-05 -0.0708752 0.00265745)
(-0.000651671 -0.0717598 0.00306555)
(0.0264754 -0.0455671 0.000144925)
(0.0143579 -0.0425571 0.000416018)
(0.0120947 -0.0537228 0.000665789)
(0.00794263 -0.0609842 0.000911796)
(0.00448354 -0.0661522 0.00115142)
(0.00175974 -0.0691238 0.00138661)
(2.03446e-05 -0.070551 0.00162076)
(-0.0006129 -0.0714253 0.00186177)
(0.0264214 -0.0453693 5.02882e-05)
(0.0143915 -0.0424023 0.000143375)
(0.0121446 -0.0535602 0.000228025)
(0.00799848 -0.060825 0.000310476)
(0.00453445 -0.065995 0.00038992)
(0.00180076 -0.0689671 0.000467483)
(5.04186e-05 -0.0703921 0.000544899)
(-0.000590541 -0.0712589 0.000624461)
(0.0765908 -1.97402e-05 -0.000969984)
(0.0761951 -0.000166246 -0.000400254)
(0.0757746 0.000241046 -0.00028064)
(0.0753098 0.000504784 -0.000121211)
(0.0748633 0.000707069 -5.73691e-05)
(0.0744959 0.000831002 -2.90693e-05)
(0.0742372 0.000901125 -1.62765e-05)
(0.0741016 0.000927592 -5.55267e-06)
(0.0712367 -0.00019433 -0.000488254)
(0.0708801 -0.000271739 -0.000481416)
(0.0704126 -0.000123973 -0.000558967)
(0.0698813 4.47591e-05 -0.000514557)
(0.0693472 0.000194376 -0.0004338)
(0.0689021 0.000303429 -0.000326227)
(0.0685902 0.000373688 -0.000202303)
(0.068433 0.000408944 -6.84569e-05)
(0.0704889 -0.00317185 -8.86312e-05)
(0.0700886 -0.00281283 -0.000770967)
(0.0694704 -0.00272979 -0.00102285)
(0.0688271 -0.0026477 -0.00105953)
(0.0682256 -0.00257156 -0.000926146)
(0.0677391 -0.00250474 -0.000703384)
(0.0674038 -0.00245538 -0.000434998)
(0.0672346 -0.00242784 -0.000146743)
(0.0742376 -0.00413188 0.000114262)
(0.0735771 -0.00358102 -0.0012969)
(0.0727561 -0.00366961 -0.00167275)
(0.071993 -0.00368264 -0.00170689)
(0.0713404 -0.00367152 -0.00147296)
(0.0708381 -0.00363354 -0.00110936)
(0.0704995 -0.00359559 -0.000682263)
(0.0703281 -0.00357241 -0.000229615)
)
;
        traction        nonuniform List<vector> 
192
(
(30.6606 -1.29371 -2.93275)
(30.8515 -1.16125 -4.73193)
(30.8048 -1.36207 -5.37219)
(30.9424 -1.26397 -5.60079)
(31.2734 -0.98147 -5.62486)
(31.769 -0.39445 -5.45572)
(32.1494 0.777933 -5.01192)
(30.3049 2.70534 -4.05082)
(34.13 -1.7331 -2.01432)
(34.8634 -1.54178 -3.28517)
(35.6002 -1.74097 -3.71167)
(36.2886 -1.60468 -3.82917)
(36.8575 -1.21547 -3.78257)
(37.1875 -0.421776 -3.57944)
(36.6174 1.14486 -3.17848)
(31.8128 3.52799 -2.46832)
(36.1236 -1.91 -1.36689)
(36.7752 -1.65909 -2.22078)
(37.5913 -1.84384 -2.46906)
(38.3499 -1.67054 -2.50303)
(38.8798 -1.19663 -2.42513)
(38.958 -0.259231 -2.24595)
(37.7411 1.53363 -1.9559)
(31.4979 4.07908 -1.50331)
(37.4393 -1.98014 -0.952032)
(37.9707 -1.68598 -1.55191)
(38.7426 -1.8597 -1.70836)
(39.4666 -1.65426 -1.70829)
(39.911 -1.11955 -1.63157)
(39.7718 -0.0864238 -1.48875)
(38.1282 1.84313 -1.2853)
(31.0329 4.45904 -0.985123)
(38.3175 -2.008 -0.658717)
(38.7812 -1.68376 -1.0801)
(39.5 -1.84599 -1.183)
(40.1781 -1.61744 -1.17219)
(40.547 -1.04038 -1.1085)
(40.2373 0.056795 -1.00138)
(38.3028 2.07517 -0.86094)
(30.633 4.73074 -0.658353)
(38.9081 -2.01826 -0.434022)
(39.3322 -1.6735 -0.715132)
(40.008 -1.82584 -0.781485)
(40.653 -1.58121 -0.769355)
(40.9624 -0.975078 -0.7217)
(40.5238 0.164572 -0.648118)
(38.3915 2.24109 -0.5554)
(30.3333 4.92034 -0.423257)
(39.2762 -2.02216 -0.24577)
(39.6866 -1.66466 -0.406588)
(40.3315 -1.80884 -0.443986)
(40.9414 -1.55206 -0.434386)
(41.1857 -0.927491 -0.404849)
(40.6917 0.235949 -0.362586)
(38.4381 2.34905 -0.307416)
(30.1414 5.03865 -0.229214)
(39.4433 -2.02211 -0.0787839)
(39.8427 -1.65848 -0.130653)
(40.481 -1.7985 -0.142676)
(41.0553 -1.53485 -0.138897)
(41.2707 -0.902142 -0.129146)
(40.7611 0.274485 -0.115378)
(38.4288 2.40909 -0.0960855)
(30.0049 5.09018 -0.0687507)
(4.02446 0.565747 14.7988)
(6.84579 1.10869 10.2983)
(8.06152 0.991409 6.72169)
(8.75912 0.843819 4.501)
(9.25992 0.790337 3.31847)
(9.69005 0.887943 3.03111)
(10.1645 1.18795 3.67475)
(11.0628 1.60778 5.25779)
(2.93681 0.567164 13.4268)
(5.27677 0.957169 11.3324)
(6.14927 0.89131 9.12774)
(6.57712 0.639363 7.63284)
(6.87725 0.396395 6.83234)
(7.17653 0.238579 6.64149)
(7.61107 0.21546 7.02039)
(8.74682 0.25241 7.67273)
(2.54344 0.516702 12.4377)
(4.86807 0.635419 11.5129)
(5.77348 0.59039 10.0994)
(6.17897 0.309849 9.06264)
(6.42664 0.00432861 8.5257)
(6.66679 -0.2513 8.42889)
(7.05163 -0.422993 8.74652)
(8.17833 -0.521608 9.3857)
(2.5262 0.590197 10.9678)
(5.01609 0.481878 10.1217)
(6.0211 0.360731 8.65095)
(6.44824 0.00438711 7.60151)
(6.67982 -0.354771 7.06093)
(6.87923 -0.661515 6.90113)
(7.20593 -0.948182 7.06325)
(8.26888 -1.28074 7.77836)
(-6.38665 0.850137 0.992331)
(-3.83788 0.989162 1.84174)
(-1.72377 0.812034 2.04956)
(-0.494223 0.361575 2.08366)
(0.188361 -0.0879442 2.13923)
(0.780096 -0.486438 2.27955)
(2.24044 -1.15011 2.55881)
(6.86052 -3.43651 2.94585)
(-8.67517 0.623793 0.152211)
(-8.13456 0.734992 0.486765)
(-7.40303 0.758471 0.506162)
(-6.89681 0.569333 0.449773)
(-6.48125 0.340475 0.453251)
(-5.80526 0.12726 0.557561)
(-3.78761 -0.360575 0.786375)
(3.18834 -2.91924 1.23938)
(-10.1154 0.513635 -0.00593283)
(-10.1432 0.548509 0.241912)
(-9.87249 0.654788 0.309261)
(-9.55088 0.609304 0.309825)
(-9.09049 0.515156 0.340407)
(-8.15354 0.414453 0.435487)
(-5.69619 0.0352208 0.596905)
(2.34438 -2.59078 0.88105)
(-11.0253 0.493186 0.00473823)
(-11.1758 0.483242 0.228658)
(-11.0387 0.619516 0.32822)
(-10.7374 0.643921 0.363602)
(-10.1657 0.626284 0.405148)
(-8.97957 0.589255 0.479819)
(-6.14641 0.249253 0.583486)
(2.40647 -2.43376 0.742214)
(-11.632 0.498374 0.0231089)
(-11.8094 0.472013 0.207033)
(-11.7036 0.624617 0.301523)
(-11.3787 0.685438 0.343187)
(-10.7086 0.709341 0.38003)
(-9.34113 0.705526 0.430666)
(-6.25621 0.381014 0.491232)
(2.61521 -2.34903 0.583268)
(-12.0221 0.506935 0.0290897)
(-12.201 0.477552 0.1641)
(-12.0924 0.641277 0.237007)
(-11.7348 0.721179 0.271363)
(-10.99 0.766514 0.298269)
(-9.501 0.779211 0.329853)
(-6.25587 0.460449 0.363669)
(2.81968 -2.30333 0.415143)
(-12.2516 0.513632 0.0221703)
(-12.4265 0.485296 0.103917)
(-12.308 0.655949 0.148439)
(-11.9241 0.745626 0.169897)
(-11.1301 0.80169 0.185831)
(-9.56556 0.822287 0.20337)
(-6.22101 0.503557 0.220842)
(2.97619 -2.28163 0.242324)
(-12.3594 0.516797 0.00785616)
(-12.5318 0.489367 0.0349454)
(-12.4089 0.663486 0.0495959)
(-12.0118 0.757736 0.0567094)
(-11.1945 0.818821 0.0619059)
(-9.59362 0.843044 0.0676535)
(-6.19172 0.518769 0.073224)
(3.03786 -2.27481 0.0770743)
(11.393 -2.92406 -1.2515)
(11.0384 0.299262 -0.951672)
(11.2372 2.85247 -0.637961)
(11.5218 4.89395 -0.424345)
(11.7765 6.4453 -0.286072)
(11.9747 7.56147 -0.190675)
(12.1096 8.27185 -0.122968)
(12.1689 8.53114 -0.0474815)
(8.40342 -6.42303 0.214394)
(7.41629 -4.89939 0.182911)
(7.33601 -3.14312 0.237564)
(7.43382 -1.63623 0.230333)
(7.55155 -0.468642 0.187033)
(7.65253 0.385008 0.134177)
(7.73011 0.956937 0.079582)
(7.78506 1.27579 0.0261263)
(7.54648 -9.15097 0.729698)
(6.5167 -8.04664 0.639354)
(6.35564 -6.82307 0.575269)
(6.37874 -5.75643 0.480277)
(6.4376 -4.91157 0.370093)
(6.49361 -4.28488 0.261613)
(6.53561 -3.86473 0.159428)
(6.56018 -3.63004 0.05502)
(7.66965 -8.10428 1.11991)
(6.7752 -6.94768 0.86659)
(6.6414 -6.06329 0.691978)
(6.66828 -5.27121 0.55443)
(6.72169 -4.62096 0.422668)
(6.76905 -4.13232 0.296825)
(6.80098 -3.80767 0.177706)
(6.80992 -3.64491 0.0598391)
)
;
        pressure        uniform 0;
        value           nonuniform List<vector> 
192
(
(0.000759351 0.000777165 0.000380863)
(0.00164156 0.00146696 0.000316211)
(0.00303523 0.00213561 0.000201768)
(0.00462257 0.00261626 3.8219e-05)
(0.00638808 0.00294291 -0.000124904)
(0.00824099 0.00313111 -0.000271271)
(0.0101254 0.00321669 -0.000386972)
(0.0120032 0.00324868 -0.000466738)
(0.000797955 0.000801421 0.000183987)
(0.00173902 0.0014514 0.000173284)
(0.00307238 0.00212126 0.000103484)
(0.00461577 0.00260651 -6.10228e-06)
(0.00632329 0.00293751 -0.000122564)
(0.00812248 0.00313158 -0.000230576)
(0.00995943 0.00322311 -0.000318859)
(0.0118022 0.00326367 -0.000380402)
(0.000822567 0.000820762 8.13798e-05)
(0.00176761 0.0014365 7.21519e-05)
(0.00308153 0.00209136 2.56808e-05)
(0.00459161 0.00257416 -4.65296e-05)
(0.00626075 0.00290853 -0.000126714)
(0.00802196 0.00311109 -0.000203147)
(0.00982529 0.00321424 -0.00026763)
(0.0116415 0.00326973 -0.000313734)
(0.000830328 0.000826835 3.0645e-05)
(0.00176995 0.00142332 1.76299e-05)
(0.00306899 0.002067 -1.69714e-05)
(0.00455672 0.00254558 -6.65413e-05)
(0.00620033 0.002882 -0.000121626)
(0.00793574 0.00309107 -0.00017524)
(0.00971544 0.00320356 -0.000221977)
(0.0115118 0.00326998 -0.0002565)
(0.000830136 0.000826338 7.35134e-06)
(0.00176147 0.00141224 -7.06714e-06)
(0.00304742 0.0020493 -3.34533e-05)
(0.00451902 0.00252535 -6.81011e-05)
(0.00614505 0.00286321 -0.000106033)
(0.0078627 0.00307673 -0.000143371)
(0.00962551 0.0031954 -0.000176828)
(0.0114064 0.0032687 -0.000202208)
(0.000827393 0.000823649 -1.56343e-06)
(0.00175076 0.00140362 -1.4169e-05)
(0.00302599 0.00203715 -3.31436e-05)
(0.00448582 0.0025122 -5.64917e-05)
(0.00609965 0.00285131 -8.16437e-05)
(0.00780506 0.00306774 -0.000106541)
(0.00955595 0.00319016 -0.000129271)
(0.0113253 0.00326747 -0.00014682)
(0.000824657 0.000821009 -3.16892e-06)
(0.00174207 0.00139775 -1.16133e-05)
(0.00300972 0.00202952 -2.3127e-05)
(0.00446164 0.00250436 -3.67413e-05)
(0.00606754 0.00284447 -5.12411e-05)
(0.00776516 0.00306268 -6.56343e-05)
(0.00950829 0.0031872 -7.89166e-05)
(0.0112699 0.00326669 -8.92803e-05)
(0.000823055 0.000819482 -1.38201e-06)
(0.00173732 0.00139479 -4.33715e-06)
(0.00300105 0.00202584 -8.20224e-06)
(0.00444897 0.00250071 -1.26886e-05)
(0.00605094 0.00284136 -1.74412e-05)
(0.00774474 0.00306042 -2.21645e-05)
(0.00948398 0.00318588 -2.65442e-05)
(0.0112417 0.00326622 -2.99779e-05)
(0.000326665 0.000410892 0.000589565)
(0.00139747 0.000857403 0.000333082)
(0.00280281 0.00136571 0.000260693)
(0.00446203 0.00172966 0.000102122)
(0.00629355 0.00198701 -4.32848e-05)
(0.00820753 0.00214608 -0.000173864)
(0.0101357 0.0022293 -0.000274619)
(0.0120427 0.00226533 -0.000353388)
(8.58957e-05 0.000116461 0.000162082)
(0.0010754 0.000224614 0.000125194)
(0.00248733 0.000392571 7.04594e-05)
(0.00417787 0.000499699 1.07827e-05)
(0.00603817 0.00056154 -4.3871e-05)
(0.00797862 0.000583202 -9.19669e-05)
(0.00992853 0.000573792 -0.000133313)
(0.0118379 0.000549702 -0.000175922)
(6.19032e-05 -0.000156891 -0.000188359)
(0.00102252 -0.00026881 -0.000182897)
(0.00241692 -0.000460122 -0.000161673)
(0.0040972 -0.000623499 -0.000122053)
(0.00594971 -0.000771161 -7.99205e-05)
(0.00788594 -0.000898693 -4.10622e-05)
(0.00983489 -0.00100742 -1.08826e-05)
(0.0117398 -0.00110026 1.21428e-05)
(0.000247457 -0.000482742 -0.000619882)
(0.00122858 -0.000913663 -0.000420416)
(0.00258106 -0.00145136 -0.000375763)
(0.0042062 -0.0018743 -0.000236682)
(0.0060124 -0.00221499 -0.000102882)
(0.00791221 -0.00247266 2.0837e-05)
(0.00983741 -0.00266327 0.000118399)
(0.0117377 -0.00281107 0.000184337)
(0.000618286 -0.000791655 -0.000429681)
(0.00142592 -0.0015179 -0.000418168)
(0.00274521 -0.00224026 -0.000333132)
(0.00428303 -0.002781 -0.000186529)
(0.00601326 -0.00318438 -3.28835e-05)
(0.00784778 -0.00346207 0.000109086)
(0.00972721 -0.00364376 0.000223125)
(0.0116042 -0.00376283 0.000293698)
(0.000639271 -0.000809657 -0.000224428)
(0.00151669 -0.00150415 -0.000248938)
(0.00277335 -0.00221899 -0.00020019)
(0.00426421 -0.0027571 -0.000103888)
(0.00593491 -0.00315317 4.31969e-06)
(0.00771504 -0.00342358 0.000106409)
(0.00954861 -0.00359775 0.000187623)
(0.0113976 -0.00371304 0.000233618)
(0.000651525 -0.000825549 -0.00011042)
(0.00153475 -0.00148487 -0.000128044)
(0.00277206 -0.00217692 -9.79869e-05)
(0.00422923 -0.00270299 -3.70002e-05)
(0.00586134 -0.00309073 3.53906e-05)
(0.00760362 -0.00335663 0.000104886)
(0.00940419 -0.00352896 0.000159602)
(0.0112264 -0.00364455 0.00018577)
(0.000650772 -0.000826705 -4.92833e-05)
(0.00152783 -0.0014636 -5.70152e-05)
(0.00275016 -0.00213694 -3.52811e-05)
(0.00418554 -0.00264962 4.94368e-06)
(0.00579261 -0.00302888 5.28201e-05)
(0.00750962 -0.00328998 9.90398e-05)
(0.00928681 -0.00346007 0.000134536)
(0.0110882 -0.00357518 0.000147572)
(0.000644852 -0.000821137 -1.8355e-05)
(0.00151248 -0.00144372 -1.93259e-05)
(0.00272166 -0.00210347 -2.73783e-06)
(0.00414153 -0.00260555 2.442e-05)
(0.00573166 -0.00297735 5.60664e-05)
(0.00743146 -0.00323366 8.63328e-05)
(0.00919201 -0.00340084 0.000108782)
(0.0109773 -0.00351437 0.000114335)
(0.000638277 -0.000814135 -4.37975e-06)
(0.00149696 -0.00142742 -2.26163e-06)
(0.00269541 -0.00207781 9.80771e-06)
(0.004104 -0.00257241 2.7638e-05)
(0.00568246 -0.00293853 4.78644e-05)
(0.00737052 -0.0031908 6.69032e-05)
(0.00911942 -0.00335515 8.04995e-05)
(0.010893 -0.00346672 8.23003e-05)
(0.000633153 -0.00080843 3.71894e-07)
(0.00148521 -0.00141602 2.76727e-06)
(0.00267609 -0.0020605 1.01733e-05)
(0.00407714 -0.00255035 2.03952e-05)
(0.00564807 -0.00291274 3.17427e-05)
(0.00732867 -0.00316217 4.227e-05)
(0.00907008 -0.00332436 4.9559e-05)
(0.0108359 -0.00343432 4.98569e-05)
(0.000630411 -0.000805321 5.78353e-07)
(0.00147899 -0.00141017 1.56239e-06)
(0.00266597 -0.00205178 4.06393e-06)
(0.00406322 -0.00253934 7.4049e-06)
(0.00563042 -0.00289988 1.10709e-05)
(0.00730735 -0.00314786 1.44442e-05)
(0.00904507 -0.00330893 1.6741e-05)
(0.010807 -0.00341798 1.67158e-05)
(0.0128532 0.0022922 -0.000343751)
(0.0126438 0.00231256 -0.000288799)
(0.0124813 0.00233128 -0.000240949)
(0.012346 0.00234182 -0.000196721)
(0.0122343 0.00234906 -0.000154548)
(0.0121476 0.00235412 -0.000111925)
(0.0120882 0.00235749 -6.79714e-05)
(0.0120579 0.00235905 -2.28126e-05)
(0.0126114 0.000565078 -0.000164331)
(0.0124116 0.000587619 -0.00014468)
(0.0122482 0.000613136 -0.00012742)
(0.0121102 0.000637504 -0.000107709)
(0.0119955 0.00065854 -8.61362e-05)
(0.0119063 0.000675106 -6.28723e-05)
(0.0118452 0.000686536 -3.82837e-05)
(0.0118141 0.000692399 -1.28546e-05)
(0.012508 -0.00113512 2.52984e-06)
(0.012308 -0.00110143 -1.77781e-05)
(0.0121396 -0.00106225 -2.75544e-05)
(0.0119973 -0.00102193 -2.94337e-05)
(0.0118799 -0.000985747 -2.59926e-05)
(0.0117892 -0.000956837 -1.97528e-05)
(0.0117272 -0.000936886 -1.21924e-05)
(0.0116957 -0.000926698 -4.10696e-06)
(0.0125355 -0.0028671 0.000170747)
(0.0123208 -0.00282281 0.000117379)
(0.0121432 -0.00276799 8.23812e-05)
(0.0119966 -0.00270944 5.91098e-05)
(0.0118777 -0.00265696 4.30743e-05)
(0.0117866 -0.00261515 3.0114e-05)
(0.0117248 -0.00258645 1.80565e-05)
(0.0116935 -0.0025719 6.03988e-06)
)
;
    }