/*--------------------------------*- C++ -*----------------------------------*\
| =========                 |                                                 |
| \\      /  F ield         | foam-extend: Open Source CFD                    |
|  \\    /   O peration     | Version:     3.1                                |
|   \\  /    A nd           | Web:         http://www.extend-project.de       |
|    \\/     M anipulation  |                                                 |
\*---------------------------------------------------------------------------*/
FoamFile
{
    version     2.0;
    format      ascii;
    class       volSymmTensorField;
    location    "1.4";
    object      epsilon;
}
// * * * * * * * * * * * * * * * * * * * * * * * * * * * * * * * * * * * * * //

dimensions      [0 0 0 0 0 0 0];

internalField   nonuniform List<symmTensor> 
256
(
(-0.00851407 0.011463 -0.000524165 0.031997 0.00549514 -0.00341728)
(-0.00285376 0.00980592 -0.00152587 0.00763281 0.00197947 -0.00130585)
(0.00143025 0.00913411 -0.00157272 -0.00840226 -0.00266352 0.00138137)
(0.00654158 0.00958745 -0.000636429 -0.0312323 -0.0064668 0.00351328)
(-0.0149944 0.00471489 -0.000661226 0.0206022 -0.00193481 -0.00513687)
(-0.00603642 0.0123328 -0.0024739 0.00800039 -0.000798237 -0.00195431)
(0.0027053 0.0121085 -0.00258322 -0.00641617 0.000531269 0.0022013)
(0.0114403 0.00462938 -0.000911947 -0.019135 0.00162031 0.00554344)
(-0.0126297 0.00562591 -0.000370066 0.0192482 -0.00105012 -0.00299218)
(-0.0061706 0.0117598 -0.00181359 0.00726633 -0.0003709 -0.00108983)
(0.00208822 0.0117959 -0.00189773 -0.00522086 0.000159164 0.00153422)
(0.00872549 0.00573191 -0.00059695 -0.0173015 0.000858328 0.0037074)
(-0.0108778 0.00485532 -0.000396172 0.0144645 -0.0014501 -0.00180463)
(-0.00551641 0.0106242 -0.00157557 0.00576489 -0.000443663 -0.000592959)
(0.00134208 0.0107056 -0.00164334 -0.00366844 0.000325054 0.00120542)
(0.00682088 0.00501867 -0.00063061 -0.0123921 0.00135329 0.00269433)
(-0.00884203 0.0041858 -0.0003463 0.0104522 -0.00131701 -0.000503556)
(-0.00475093 0.00911349 -0.0013395 0.00435614 -0.000371393 -9.36481e-05)
(0.000730113 0.00921936 -0.00140308 -0.00240213 0.000323479 0.000783315)
(0.00484365 0.00437941 -0.0005757 -0.00842602 0.00130041 0.00147518)
(-0.00718788 0.00323397 -0.000363026 0.00696248 -0.00113836 0.00051644)
(-0.00404687 0.00732801 -0.00120083 0.0030916 -0.000312755 0.00028811)
(0.000308472 0.00748707 -0.00124682 -0.0014037 0.000308259 0.000415902)
(0.00336222 0.0035209 -0.000560175 -0.00510203 0.0011927 0.000450587)
(-0.00604689 0.00209748 -0.000446075 0.00457157 -0.00092776 0.00133609)
(-0.00355278 0.00537302 -0.00113338 0.00211298 -0.000294603 0.0006005)
(0.000108607 0.00556797 -0.00114137 -0.000719836 0.000256157 6.50706e-05)
(0.00249967 0.00253707 -0.000561459 -0.0028125 0.000981832 -0.000458143)
(-0.00616742 0.00119337 -0.000555504 0.0032194 -0.000457122 0.00194655)
(-0.00410329 0.00307682 -0.00109267 0.00171856 -0.000154462 0.000821927)
(0.000482696 0.00309643 -0.00109758 -0.000246356 0.000101869 -0.000293433)
(0.00270678 0.00129934 -0.000620881 -0.00151757 0.000419939 -0.00126351)
(-0.00855684 0.0126781 -0.000334631 0.030934 0.00323019 -0.00222576)
(-0.00265086 0.0113482 -0.0012216 0.00728918 0.00109063 -0.000845786)
(0.00126925 0.0107332 -0.00132546 -0.00751648 -0.00182047 0.000971706)
(0.00649822 0.0108205 -0.000556131 -0.0296323 -0.00420333 0.00247442)
(-0.0150238 0.00468291 -0.000528632 0.022348 -0.000876947 -0.00395556)
(-0.00560896 0.0124293 -0.00231101 0.00881104 -0.000426729 -0.00148464)
(0.00234613 0.0122775 -0.00252488 -0.00743581 3.31645e-05 0.00183569)
(0.0113386 0.0047109 -0.000985343 -0.0211591 0.000462311 0.00461252)
(-0.0124229 0.00484077 -0.000329255 0.0192866 -0.00168677 -0.00283863)
(-0.00562998 0.010608 -0.00195652 0.00732338 -0.000595229 -0.00103549)
(0.00169225 0.0106406 -0.00217011 -0.00536553 0.000445889 0.00153592)
(0.00843896 0.00491318 -0.000824056 -0.0174143 0.00155454 0.00371235)
(-0.010507 0.00397349 -0.000185335 0.0145636 -0.00200147 -0.00154256)
(-0.00493711 0.00912447 -0.00153788 0.0058213 -0.000618324 -0.000551462)
(0.000914651 0.00918659 -0.00174963 -0.00370194 0.000643493 0.00113105)
(0.00635001 0.00410272 -0.000707113 -0.0124554 0.00206268 0.00251676)
(-0.00847828 0.00325899 -4.34273e-05 0.010356 -0.00194114 -0.000284349)
(-0.00420162 0.00757604 -0.0011919 0.0043428 -0.00055346 -0.000102855)
(0.000322135 0.00766122 -0.00139948 -0.00228259 0.000708979 0.000718048)
(0.0043604 0.00342976 -0.000562768 -0.00821569 0.00215386 0.0012938)
(-0.00683533 0.00242531 2.36521e-05 0.00682632 -0.00166808 0.000774826)
(-0.00353618 0.00599329 -0.00094968 0.00305915 -0.000447231 0.000269069)
(-7.99656e-05 0.00613385 -0.00113437 -0.00120187 0.000676323 0.000344306)
(0.00287351 0.00270793 -0.000451889 -0.00478339 0.00199236 0.000208345)
(-0.0057115 0.0014667 -5.04449e-07 0.00437743 -0.00125363 0.0015892)
(-0.00308902 0.00438743 -0.000827839 0.00203629 -0.000340134 0.000555952)
(-0.000247596 0.00458055 -0.000970184 -0.000457738 0.000544575 1.21475e-05)
(0.0020373 0.00195382 -0.000375017 -0.00237976 0.00159915 -0.000700321)
(-0.0058375 0.000907523 -0.000122074 0.00310055 -0.000606586 0.00213903)
(-0.00368788 0.00261906 -0.0008594 0.00167855 -0.000154156 0.00071948)
(0.000130729 0.00264202 -0.001009 -3.49833e-05 0.000278773 -0.000337238)
(0.00226106 0.001059 -0.000453626 -0.00116825 0.000817651 -0.00148455)
(-0.00893259 0.0130807 -0.000226666 0.0309468 0.00146843 -0.00124942)
(-0.00281346 0.0115609 -0.000776735 0.00731064 0.000440119 -0.000444575)
(0.0013413 0.0109025 -0.000856674 -0.0073367 -0.00105186 0.000606772)
(0.00674289 0.0110739 -0.000381713 -0.0294545 -0.00220708 0.00149232)
(-0.0157762 0.00467105 -0.000431988 0.0218543 -0.000635432 -0.00235319)
(-0.00597764 0.0124075 -0.00157674 0.00879194 -0.000320284 -0.000802063)
(0.00250031 0.012256 -0.00174301 -0.00726637 -1.99379e-05 0.00122576)
(0.0118585 0.00468736 -0.000753019 -0.0205551 0.000324654 0.00294832)
(-0.0130404 0.00468781 -0.000362872 0.0191613 -0.00133121 -0.00182979)
(-0.00597464 0.0103577 -0.00148734 0.00738867 -0.000478261 -0.000559397)
(0.00178132 0.0103879 -0.00165512 -0.00527434 0.000387065 0.00113726)
(0.00881463 0.00473083 -0.000696697 -0.0171255 0.00127479 0.00258742)
(-0.0109172 0.00376875 -0.000253737 0.0145607 -0.00164132 -0.000979317)
(-0.00518879 0.00867152 -0.00122591 0.00589426 -0.000510224 -0.000228483)
(0.000877961 0.00873317 -0.001388 -0.00358275 0.000620051 0.000891372)
(0.00647852 0.00389101 -0.000587775 -0.012255 0.00178887 0.00182105)
(-0.00876819 0.00301183 -0.000142173 0.0104499 -0.00163628 -6.07404e-05)
(-0.00439694 0.00707206 -0.000949144 0.00444115 -0.000455567 0.000107014)
(0.000209617 0.00716598 -0.00110264 -0.0021581 0.000721062 0.000596595)
(0.00434292 0.00320196 -0.000460978 -0.00807006 0.00195096 0.00093504)
(-0.0070219 0.00218347 -7.1811e-05 0.00699347 -0.00142481 0.000757348)
(-0.00367905 0.00553387 -0.000739861 0.00316798 -0.000355946 0.000396823)
(-0.00024444 0.00569923 -0.000873177 -0.00106888 0.000712347 0.000313458)
(0.00274026 0.00252266 -0.000351875 -0.00467625 0.00185478 0.000106497)
(-0.00579979 0.0012482 -7.28922e-05 0.00460581 -0.00106827 0.0013984)
(-0.00318051 0.00405151 -0.00064739 0.00214479 -0.000246129 0.000621095)
(-0.000446284 0.00428847 -0.000753808 -0.000330301 0.000584332 6.86462e-05)
(0.00181733 0.00184266 -0.00028924 -0.00230858 0.00151476 -0.000583396)
(-0.00584484 0.000807404 -0.000192467 0.00331445 -0.000489913 0.00180397)
(-0.00376186 0.00247367 -0.000757257 0.00178658 -8.78281e-05 0.000753441)
(-0.000126617 0.00252823 -0.000886834 6.53527e-05 0.000281991 -0.000122301)
(0.0019608 0.00103407 -0.00041148 -0.00111677 0.00074697 -0.00106191)
(-0.00918552 0.0131255 -0.000128355 0.0308654 0.000507772 -0.000622863)
(-0.00294631 0.0114346 -0.000458031 0.00731774 0.000113605 -0.000204332)
(0.001383 0.0107315 -0.000508478 -0.00719967 -0.000566731 0.000365765)
(0.00690864 0.0110045 -0.000228416 -0.0291958 -0.00101938 0.000832433)
(-0.0163087 0.00461236 -0.000270928 0.0214227 -0.000534163 -0.00117698)
(-0.00628149 0.0123145 -0.00099131 0.00875032 -0.000248433 -0.000353113)
(0.00258822 0.0121553 -0.00109867 -0.00700646 -2.09069e-06 0.000771556)
(0.0122216 0.00462617 -0.000483148 -0.0199492 0.000322414 0.00168923)
(-0.0135721 0.00464603 -0.000270561 0.0189634 -0.000975438 -0.000874424)
(-0.00630166 0.0102758 -0.00102787 0.00742049 -0.000341878 -0.000192516)
(0.0018445 0.0103083 -0.00113596 -0.0050672 0.000307633 0.000764598)
(0.00916147 0.00468603 -0.00048611 -0.0166992 0.000978214 0.00153294)
(-0.011363 0.00371797 -0.000218143 0.0145323 -0.00119216 -0.000325916)
(-0.00547955 0.00856556 -0.000901367 0.00597431 -0.00035673 3.60619e-05)
(0.000880044 0.00863389 -0.00100087 -0.00340715 0.000507558 0.000628749)
(0.00671508 0.00385011 -0.000424123 -0.011973 0.0013755 0.00106894)
(-0.00910757 0.00295128 -0.000148028 0.0105546 -0.00120486 0.000305218)
(-0.00464415 0.00695459 -0.000727107 0.00456154 -0.000313882 0.00027746)
(0.000157775 0.00706251 -0.000816687 -0.00201121 0.000608741 0.000440345)
(0.00445787 0.00316788 -0.000335907 -0.00789831 0.00153719 0.000481143)
(-0.00726168 0.00211747 -9.87597e-05 0.00719159 -0.00106952 0.000894755)
(-0.00388088 0.00542725 -0.000586131 0.00331099 -0.000241689 0.000495654)
(-0.000337236 0.005617 -0.000660023 -0.000945226 0.000614941 0.000252257)
(0.00274753 0.00250539 -0.000255912 -0.00458402 0.00149546 -9.28627e-05)
(-0.00594394 0.00118062 -0.00010429 0.00486177 -0.00082421 0.00137223)
(-0.00333994 0.003981 -0.000543981 0.00229049 -0.000164948 0.000676609)
(-0.000575191 0.00425064 -0.000601276 -0.00023244 0.000509396 0.00010443)
(0.0017269 0.00184723 -0.000219041 -0.00227302 0.001243 -0.000559733)
(-0.00592117 0.00078265 -0.000228826 0.00356245 -0.000398217 0.00168625)
(-0.00391594 0.00245089 -0.000703404 0.00192405 -5.86582e-05 0.000811754)
(-0.000312414 0.00252234 -0.000782152 0.00012176 0.000246461 4.27135e-05)
(0.00178229 0.00105017 -0.000352453 -0.00113646 0.000622697 -0.000808796)
(-0.0093282 0.0130437 -6.46945e-05 0.0307247 5.84197e-05 -0.000264804)
(-0.00302914 0.0112294 -0.000254495 0.00732129 -2.48412e-05 -7.29459e-05)
(0.00139664 0.0104934 -0.00028442 -0.0070713 -0.000281682 0.000211144)
(0.00698901 0.010843 -0.000126519 -0.0288828 -0.000387867 0.000428503)
(-0.0166403 0.00453809 -0.000150765 0.0211564 -0.00044269 -0.000461638)
(-0.00647554 0.0121773 -0.000587132 0.00873844 -0.000188237 -9.53285e-05)
(0.002618 0.0120128 -0.000653052 -0.0067755 1.83863e-05 0.000461398)
(0.0124223 0.00455647 -0.000285754 -0.0195008 0.000305388 0.00087411)
(-0.0139505 0.00461128 -0.000174713 0.0188237 -0.000697414 -0.000223815)
(-0.00652405 0.0102139 -0.000663829 0.00745632 -0.00023286 3.56883e-05)
(0.00186709 0.0102513 -0.000730684 -0.00486138 0.000234717 0.000478925)
(0.00939283 0.0046577 -0.000309728 -0.0163324 0.000729694 0.000774249)
(-0.0117166 0.00370387 -0.000157611 0.0145129 -0.000824667 0.000169251)
(-0.00569152 0.00854421 -0.000618343 0.00605063 -0.00023195 0.000208832)
(0.000878668 0.00862042 -0.000677214 -0.00323226 0.000384667 0.000403927)
(0.00690393 0.00384993 -0.000281633 -0.0117072 0.00100215 0.000469052)
(-0.00940438 0.00294428 -0.000121547 0.0106367 -0.000833543 0.000623155)
(-0.00483251 0.00695337 -0.000524208 0.00466951 -0.00019902 0.000392821)
(0.000129279 0.00707321 -0.000574514 -0.00186723 0.000467242 0.0002879)
(0.00458019 0.00318438 -0.00022986 -0.00772374 0.00112848 7.38229e-05)
(-0.00749292 0.00210924 -9.54457e-05 0.00734124 -0.000752196 0.00106139)
(-0.00404027 0.00543721 -0.000444735 0.00343452 -0.000151971 0.000567821)
(-0.000390238 0.00564434 -0.000483634 -0.000830197 0.000476869 0.000173585)
(0.00279913 0.00253347 -0.000181435 -0.00447956 0.00111299 -0.000315441)
(-0.00610862 0.00116615 -0.00010995 0.00504395 -0.000596931 0.00143302)
(-0.00347277 0.00399998 -0.000441729 0.00241035 -0.000105602 0.000727661)
(-0.000653157 0.0042898 -0.000470018 -0.000146937 0.00039608 0.000103654)
(0.00170985 0.00188136 -0.000168049 -0.00222014 0.00093605 -0.000613392)
(-0.00604459 0.000782294 -0.000227865 0.00373326 -0.000296605 0.00168157)
(-0.00405222 0.00247137 -0.000610806 0.00203282 -3.72315e-05 0.000866775)
(-0.000427239 0.00254924 -0.000654897 0.000174877 0.000190081 0.000135481)
(0.00170798 0.00107385 -0.000293802 -0.00112961 0.000471239 -0.000696357)
(-0.00939989 0.0129379 -2.80204e-05 0.0305847 -0.00010266 -6.88817e-05)
(-0.00307799 0.0110419 -0.000132165 0.0073259 -6.3644e-05 -5.20646e-06)
(0.00139706 0.0102833 -0.000149131 -0.00696279 -0.000125375 0.000114754)
(0.00701762 0.0106835 -6.48862e-05 -0.0285966 -9.29076e-05 0.000190816)
(-0.0168282 0.00446881 -7.38461e-05 0.0210044 -0.000333904 -5.43306e-05)
(-0.00659302 0.0120406 -0.000325317 0.0087467 -0.000132635 4.17221e-05)
(0.00262042 0.0118728 -0.000364099 -0.00659663 2.66332e-05 0.000260049)
(0.0125155 0.00449336 -0.000156644 -0.0191897 0.000250889 0.000376901)
(-0.0141909 0.00457649 -9.97802e-05 0.0187473 -0.000472089 0.000173134)
(-0.00666482 0.010152 -0.000398226 0.00749591 -0.000150019 0.000163241)
(0.00186912 0.0101938 -0.000438013 -0.00469573 0.000166682 0.000280042)
(0.00952638 0.00463063 -0.000181975 -0.0160629 0.00051027 0.000281202)
(-0.0119574 0.00369412 -9.93679e-05 0.0145111 -0.000539216 0.000494003)
(-0.00583145 0.00853367 -0.000391712 0.00611631 -0.000142026 0.000309397)
(0.000873111 0.00861619 -0.000425478 -0.00308828 0.000268075 0.000236536)
(0.00702607 0.00385237 -0.00017265 -0.0115003 0.000682195 5.31339e-05)
(-0.00961952 0.0029466 -8.43015e-05 0.0106965 -0.000541783 0.000854463)
(-0.00496079 0.00697226 -0.000347986 0.00475428 -0.000118337 0.000463723)
(0.000111766 0.00710071 -0.000375494 -0.00174744 0.000326302 0.000165236)
(0.00467055 0.00320438 -0.000146045 -0.00757639 0.000767256 -0.000232328)
(-0.00767075 0.00211379 -7.37805e-05 0.0074394 -0.000494478 0.00120944)
(-0.00415168 0.00546929 -0.000310297 0.00352597 -8.9847e-05 0.000617589)
(-0.000420637 0.00568811 -0.000330191 -0.000735053 0.000333957 0.000101355)
(0.00284911 0.00256323 -0.000120643 -0.00438148 0.000761209 -0.000506238)
(-0.00624575 0.00116517 -9.113e-05 0.00515606 -0.00040157 0.00152329)
(-0.00356835 0.0040342 -0.000326491 0.00249456 -6.41337e-05 0.000770003)
(-0.000698233 0.00433679 -0.0003398 -7.71572e-05 0.000277043 8.60913e-05)
(0.00171833 0.00191273 -0.000120398 -0.00216044 0.000644162 -0.000694236)
(-0.00615963 0.000785073 -0.000185644 0.00383869 -0.000204684 0.00173914)
(-0.00415361 0.00249548 -0.000469428 0.00210819 -2.28701e-05 0.000915819)
(-0.00049291 0.00257625 -0.0004934 0.000220649 0.000132351 0.000176845)
(0.0016841 0.00109158 -0.000220617 -0.00110597 0.000325921 -0.00067643)
(-0.00943254 0.0128532 -1.00207e-05 0.0304788 -0.000110094 3.15068e-05)
(-0.00310498 0.0109078 -6.09904e-05 0.00733062 -5.28292e-05 2.73409e-05)
(0.00139333 0.0101349 -6.96087e-05 -0.006885 -4.73917e-05 5.87756e-05)
(0.00702287 0.0105653 -2.95166e-05 -0.0283858 9.33002e-06 5.98685e-05)
(-0.0169263 0.00441741 -3.10901e-05 0.0209233 -0.00020772 0.000159982)
(-0.00665943 0.0119358 -0.000159353 0.00876048 -7.9025e-05 0.000108933)
(0.00261392 0.0117659 -0.000179685 -0.00647575 2.1934e-05 0.000139849)
(0.0125516 0.00444697 -7.58549e-05 -0.0189926 0.000164056 9.61117e-05)
(-0.0143296 0.00454803 -4.92198e-05 0.0187117 -0.00027492 0.0003916)
(-0.006747 0.0101003 -0.000208386 0.00752939 -8.415e-05 0.00022793)
(0.00186417 0.0101452 -0.00022947 -0.00458231 0.000100088 0.000156003)
(0.0095954 0.00460819 -9.34774e-05 -0.0158887 0.000303422 -8.84698e-06)
(-0.0121032 0.00368485 -5.34366e-05 0.0145184 -0.00030609 0.000681818)
(-0.00591531 0.0085222 -0.00021408 0.00616458 -7.65053e-05 0.000362147)
(0.000866936 0.00860895 -0.000231481 -0.00298845 0.00015818 0.000127909)
(0.00709527 0.00385175 -9.20047e-05 -0.0113626 0.000397458 -0.000201834)
(-0.00975504 0.00294796 -4.87251e-05 0.0107363 -0.000305657 0.000998372)
(-0.0050392 0.00698568 -0.0001973 0.0048121 -6.21856e-05 0.000503154)
(0.00010098 0.00711951 -0.000210955 -0.00166352 0.000192189 8.19706e-05)
(0.00472624 0.0032172 -8.03425e-05 -0.00747322 0.000445396 -0.000430083)
(-0.00778723 0.00211815 -4.58641e-05 0.00749723 -0.000280885 0.00131334)
(-0.00422102 0.00549412 -0.000182756 0.00358517 -4.70633e-05 0.000648611)
(-0.000437494 0.00571995 -0.000192095 -0.000668152 0.000196639 4.86696e-05)
(0.00288426 0.00258328 -6.90283e-05 -0.004308 0.000442631 -0.000639718)
(-0.00634012 0.0011662 -5.94749e-05 0.00521774 -0.000231764 0.00159979)
(-0.00362895 0.00405993 -0.000200144 0.00254676 -3.44358e-05 0.00080014)
(-0.00072261 0.00436985 -0.000205892 -2.79845e-05 0.000162822 6.69683e-05)
(0.00173168 0.00193333 -7.28523e-05 -0.00211131 0.000375475 -0.000764382)
(-0.00624355 0.000787792 -0.000120327 0.00389541 -0.000120793 0.00180132)
(-0.00421917 0.00251315 -0.000293998 0.00215405 -1.23995e-05 0.000951992)
(-0.000527764 0.00259455 -0.000305905 0.000254662 7.77564e-05 0.000191352)
(0.00168149 0.00110218 -0.000137057 -0.00107995 0.000190494 -0.000690881)
(-0.00944463 0.0128076 -2.30334e-06 0.0304228 -4.39202e-05 7.35032e-05)
(-0.00311694 0.010839 -1.74533e-05 0.00733354 -1.97084e-05 4.02211e-05)
(0.00139039 0.0100593 -2.00795e-05 -0.00684459 -1.13946e-05 3.30715e-05)
(0.00702166 0.0105037 -8.36567e-06 -0.0282753 1.31535e-05 1.89848e-06)
(-0.0169675 0.0043904 -8.29953e-06 0.0208881 -7.04672e-05 0.000251115)
(-0.00668934 0.0118798 -4.73857e-05 0.00876976 -2.62597e-05 0.00013585)
(0.00260847 0.011709 -5.36978e-05 -0.00641493 8.3471e-06 8.37366e-05)
(0.0125623 0.00442265 -2.24006e-05 -0.0188968 5.6951e-05 -3.00903e-05)
(-0.0143923 0.00453212 -1.46932e-05 0.0186985 -9.04586e-05 0.000487055)
(-0.00678478 0.0100711 -6.44388e-05 0.00754832 -2.71487e-05 0.000254358)
(0.00185997 0.0101176 -7.10259e-05 -0.00452499 3.34222e-05 9.66509e-05)
(0.00962392 0.00459548 -2.86122e-05 -0.0158034 0.000100835 -0.000142332)
(-0.0121711 0.00367896 -1.68136e-05 0.0145248 -9.942e-05 0.000766432)
(-0.00595442 0.00851417 -6.78554e-05 0.00619011 -2.41507e-05 0.000384208)
(0.000863094 0.00860302 -7.32082e-05 -0.00293772 5.23001e-05 7.4819e-05)
(0.00712588 0.00385031 -2.87921e-05 -0.0112943 0.000130696 -0.00032192)
(-0.00981958 0.0029481 -1.59447e-05 0.0107564 -9.89349e-05 0.00106622)
(-0.00507617 0.0069914 -6.38218e-05 0.00484135 -1.93634e-05 0.000520418)
(9.57173e-05 0.00712777 -6.79367e-05 -0.00162064 6.34343e-05 4.03034e-05)
(0.00475219 0.00322288 -2.56278e-05 -0.0074207 0.000146092 -0.000526004)
(-0.00784391 0.00212017 -1.55889e-05 0.00752387 -9.12242e-05 0.00136583)
(-0.00425404 0.00550633 -6.0348e-05 0.00361412 -1.46412e-05 0.000663355)
(-0.000445071 0.00573536 -6.30665e-05 -0.000633825 6.48599e-05 2.13072e-05)
(0.00290184 0.00259278 -2.25176e-05 -0.00426928 0.00014521 -0.000707362)
(-0.00638706 0.00116678 -2.07535e-05 0.00524431 -7.5969e-05 0.00164198)
(-0.00365808 0.00407276 -6.74671e-05 0.00257157 -1.08793e-05 0.000815601)
(-0.000733258 0.00438579 -6.90376e-05 -2.59773e-06 5.3658e-05 5.53796e-05)
(0.00174012 0.00194291 -2.44855e-05 -0.0020842 0.000123255 -0.000803568)
(-0.00628604 0.000789615 -4.17998e-05 0.00391891 -4.04106e-05 0.00183885)
(-0.0042508 0.00252241 -0.000100023 0.00217557 -3.97755e-06 0.000970956)
(-0.000542925 0.00260322 -0.00010362 0.000272928 2.57163e-05 0.00019477)
(0.00168334 0.00110661 -4.6629e-05 -0.0010639 6.26494e-05 -0.000705797)
)
;

boundaryField
{
    interface
    {
        type            calculated;
        value           nonuniform List<symmTensor> 
192
(
(-0.0311092 -1.52428e-05 0.000427625 0.0485291 0.00672444 -0.00417919)
(-0.014617 -2.97481e-05 0.000673365 0.0259406 -0.00241234 -0.00625154)
(-0.0157567 -6.32065e-05 0.000771924 0.0250053 -0.00147483 -0.00360973)
(-0.0123628 -0.000112176 0.000810726 0.0184564 -0.00207397 -0.00214138)
(-0.00993105 -0.000179711 0.000821343 0.0131599 -0.00191607 -0.000499983)
(-0.00773233 -0.000279148 0.00080457 0.00855668 -0.00165806 0.000786383)
(-0.00642386 -0.000451351 0.000748241 0.00557705 -0.00129355 0.00179061)
(-0.00557354 -0.00070626 0.000613605 0.00372561 -0.00062307 0.0025116)
(-0.0314741 1.25828e-05 0.000293261 0.0473462 0.00396036 -0.00271357)
(-0.0169735 -4.60232e-08 0.000468129 0.027724 -0.0011017 -0.00480515)
(-0.0160792 -3.76189e-05 0.0005328 0.0249272 -0.00226703 -0.00339835)
(-0.0129569 -0.000101253 0.000554719 0.0185519 -0.00276088 -0.00173488)
(-0.0103927 -0.000189805 0.000554321 0.013047 -0.00270676 -9.7823e-05)
(-0.00823763 -0.000320588 0.000532105 0.00843294 -0.00234243 0.00127914)
(-0.00688824 -0.000542125 0.000480824 0.00542652 -0.00174511 0.00231914)
(-0.00591897 -0.000835063 0.00037993 0.00364251 -0.000848244 0.00300713)
(-0.0324219 1.78874e-05 0.000200694 0.0474409 0.00177996 -0.00154374)
(-0.017744 5.73793e-06 0.000320108 0.0268515 -0.000804737 -0.00292106)
(-0.0167212 -3.27423e-05 0.000358589 0.0246251 -0.00175947 -0.00228191)
(-0.0133768 -0.000102947 0.000366875 0.0184954 -0.00221434 -0.00119984)
(-0.0106134 -0.000203871 0.000360431 0.0131468 -0.00223739 -1.25474e-05)
(-0.00832352 -0.000353696 0.000339825 0.00866471 -0.00197246 0.00105016)
(-0.00687912 -0.000602068 0.000302498 0.00577515 -0.00149145 0.00187847)
(-0.00569981 -0.000905541 0.000237159 0.0039494 -0.000710309 0.00239683)
(-0.0329423 1.69916e-05 0.000140969 0.0473405 0.00057681 -0.00076594)
(-0.0183341 3.96337e-06 0.000226367 0.0261812 -0.00070077 -0.00145683)
(-0.0173456 -3.55905e-05 0.000251544 0.024286 -0.00129146 -0.00109412)
(-0.0139023 -0.000109948 0.000254156 0.0184062 -0.00160152 -0.00040638)
(-0.0110069 -0.000218998 0.000246496 0.0132473 -0.00164126 0.000400977)
(-0.00859659 -0.000380767 0.000229518 0.00890417 -0.00147806 0.00116109)
(-0.00705201 -0.000644959 0.000203107 0.00611137 -0.00115668 0.00177404)
(-0.00573377 -0.000951156 0.000159001 0.00426326 -0.000584904 0.0021679)
(-0.033136 1.52579e-05 9.81972e-05 0.0471172 2.01194e-05 -0.000319972)
(-0.0187074 7.1273e-07 0.000159134 0.0257822 -0.000596653 -0.00055958)
(-0.0177812 -4.03388e-05 0.000176355 0.0240571 -0.000933775 -0.000269885)
(-0.0143128 -0.000117709 0.00017691 0.0183407 -0.00111364 0.000220792)
(-0.011351 -0.000232295 0.000170184 0.0133206 -0.00113972 0.000796084)
(-0.00886154 -0.000401768 0.000157225 0.00907334 -0.00104409 0.00135484)
(-0.00724444 -0.00067605 0.000138865 0.0063355 -0.000844018 0.00182569)
(-0.005825 -0.000982919 0.00010858 0.00446737 -0.00044131 0.00212932)
(-0.0331722 1.37533e-05 6.49996e-05 0.0468821 -0.000169844 -7.53168e-05)
(-0.0189262 -2.22702e-06 0.000106115 0.0255555 -0.000457287 -4.63102e-05)
(-0.0180601 -4.47028e-05 0.000117576 0.0239288 -0.000639695 0.000237719)
(-0.0145967 -0.00012432 0.000117431 0.018311 -0.000734459 0.000640133)
(-0.011606 -0.000242714 0.000112282 0.0133725 -0.000746036 0.00109526)
(-0.00907221 -0.000417154 0.000103328 0.00917865 -0.000691033 0.001544)
(-0.00741063 -0.000697941 9.11441e-05 0.00646657 -0.000572372 0.00193706)
(-0.00593487 -0.00100482 7.10872e-05 0.00458804 -0.000307755 0.00219468)
(-0.0331527 1.28254e-05 3.69146e-05 0.0466998 -0.000163785 5.00735e-05)
(-0.0190427 -4.23023e-06 6.06135e-05 0.0254332 -0.000286863 0.00022401)
(-0.0182208 -4.79114e-05 6.72176e-05 0.023865 -0.000375832 0.000517871)
(-0.0147691 -0.000129184 6.68471e-05 0.0183033 -0.000420111 0.000884437)
(-0.0117664 -0.000249778 6.36256e-05 0.0134072 -0.000423675 0.00128424)
(-0.00921145 -0.000427179 5.84987e-05 0.00923823 -0.000394895 0.00168057)
(-0.00752527 -0.000712077 5.12092e-05 0.0065354 -0.000332437 0.00203647)
(-0.00601958 -0.00101839 3.92513e-05 0.00465012 -0.00018302 0.00227317)
(-0.0331309 1.22771e-05 1.18524e-05 0.0466022 -6.38058e-05 0.000102513)
(-0.0190914 -5.308e-06 1.95283e-05 0.0253795 -9.76598e-05 0.00033897)
(-0.0182929 -4.96529e-05 2.16786e-05 0.0238393 -0.000124223 0.000640417)
(-0.0148486 -0.000131719 2.14814e-05 0.0183033 -0.000137039 0.000994885)
(-0.0118424 -0.000253289 2.04243e-05 0.0134249 -0.000137654 0.00137396)
(-0.00927931 -0.000432462 1.87602e-05 0.00926497 -0.000128677 0.00175032)
(-0.00758104 -0.00071968 1.61956e-05 0.00656382 -0.000109339 0.0020922)
(-0.00606185 -0.00102367 1.2018e-05 0.00467452 -6.14626e-05 0.00232175)
(-0.00868775 0.0105771 -0.000572879 0.0331005 -0.000118785 -0.0169943)
(-0.015394 0.00475906 -0.000962419 0.0186322 -0.000180426 -0.00264406)
(-0.0131505 0.00628244 -0.00113872 0.0191949 -0.000186141 -0.00434782)
(-0.0114196 0.0055732 -0.00123403 0.0143775 -0.000182846 -0.00218353)
(-0.00932453 0.00491723 -0.00130072 0.010586 -0.000189448 -0.000995331)
(-0.00761436 0.00385633 -0.00135627 0.00715772 -0.000213498 0.000165207)
(-0.00641306 0.00256409 -0.00141835 0.00484996 -0.0002638 0.000874239)
(-0.00648873 0.00140209 -0.00154128 0.00340795 -0.000333813 0.00181393)
(-0.00313662 0.00850136 -0.000401303 0.00799774 -9.36443e-05 -0.00387341)
(-0.00664605 0.012245 -0.000721151 0.00720025 -0.00014726 -0.000901706)
(-0.00686214 0.0127124 -0.000849765 0.00725964 -0.000152603 -0.000693605)
(-0.00618119 0.0117594 -0.000914583 0.00574282 -0.000129583 -6.51792e-05)
(-0.00535755 0.0102525 -0.000961201 0.004408 -0.000105936 0.000314336)
(-0.00459005 0.00830275 -0.00100649 0.00316043 -9.24238e-05 0.000644607)
(-0.00402394 0.00609362 -0.00106961 0.00222221 -9.72951e-05 0.000876209)
(-0.00451473 0.00341902 -0.00123082 0.0017922 -0.000116381 0.00146125)
(0.00163473 0.00775692 -0.000340884 -0.00917151 -6.27467e-05 0.00445018)
(0.00315794 0.0119504 -0.00065638 -0.00535814 -0.000107732 0.00092886)
(0.0025301 0.0127511 -0.000787918 -0.00508041 -0.000113852 0.00122866)
(0.00173288 0.0118586 -0.000852531 -0.0035971 -8.631e-05 0.00081977)
(0.00106064 0.0103817 -0.000895481 -0.00246658 -5.20245e-05 0.000539946)
(0.000592225 0.00849179 -0.000936472 -0.00153391 -2.30158e-05 0.000235625)
(0.000346291 0.00631436 -0.000996336 -0.000905652 -5.55758e-06 -3.34014e-05)
(0.000690934 0.00345456 -0.00115863 -0.00038578 -4.19753e-06 -0.000639251)
(0.00672176 0.00860471 -0.000334825 -0.0327446 -6.02696e-05 0.0168579)
(0.0118346 0.00454886 -0.00067928 -0.0168431 -9.99864e-05 0.00286919)
(0.0091859 0.0063994 -0.000820477 -0.0171181 -9.61202e-05 0.00488866)
(0.0072964 0.0057619 -0.000889372 -0.0122637 -5.86801e-05 0.00295927)
(0.00526245 0.00514067 -0.000931311 -0.00857 -1.54999e-05 0.00187772)
(0.00373392 0.00417729 -0.000968052 -0.00535362 2.2541e-05 0.000759872)
(0.00281406 0.00302079 -0.00102127 -0.00318652 5.82993e-05 -7.90257e-05)
(0.00297654 0.00151174 -0.00117692 -0.00179792 9.48445e-05 -0.00114647)
(0.0274407 8.12514e-05 0.000132693 -0.0458873 -0.00791398 0.00430754)
(0.0117555 0.000115468 0.000249653 -0.0246953 0.002039 0.00679826)
(0.0123035 0.000100325 0.000279462 -0.0231173 0.00128219 0.00454177)
(0.00872933 4.66253e-05 0.000286693 -0.0163895 0.00199563 0.00326013)
(0.00625998 -9.80423e-06 0.00029611 -0.0110799 0.00192927 0.00170374)
(0.00415994 -5.9249e-05 0.000316607 -0.00658175 0.00176223 0.000399148)
(0.00294362 -0.000136374 0.00035471 -0.00352572 0.00142418 -0.000727024)
(0.00266123 -0.000406405 0.000402336 -0.00181832 0.000618239 -0.00167784)
(0.0270571 3.30825e-05 1.99027e-05 -0.0442052 -0.00508498 0.00305182)
(0.0137 5.3348e-05 6.48867e-05 -0.0267918 0.000657525 0.00569044)
(0.0120195 4.76355e-05 6.87181e-05 -0.0230947 0.00213345 0.00456092)
(0.00863114 1.72793e-05 6.31695e-05 -0.0164392 0.002844 0.00301882)
(0.0059878 -1.61044e-05 6.57593e-05 -0.0108455 0.00295861 0.00141662)
(0.00391158 -4.16809e-05 8.18532e-05 -0.00626453 0.00273158 -4.44817e-06)
(0.00267486 -8.97481e-05 0.000113502 -0.00310016 0.00219123 -0.00117249)
(0.00255433 -0.000373755 0.000169625 -0.00146783 0.00113443 -0.0021268)
(0.0277348 7.30191e-06 -9.02328e-07 -0.0440994 -0.00258781 0.00183704)
(0.0143565 1.50028e-05 3.30373e-05 -0.0258462 0.000514835 0.00362632)
(0.0125273 1.52114e-05 4.32758e-05 -0.0226207 0.00172176 0.00315921)
(0.00891045 8.85524e-07 4.50764e-05 -0.0161814 0.00238549 0.0021612)
(0.00604505 -1.52137e-05 5.11017e-05 -0.0106946 0.00258389 0.000999846)
(0.00381368 -2.3854e-05 6.5629e-05 -0.00620116 0.00245019 -8.48198e-05)
(0.00245945 -5.3343e-05 8.7805e-05 -0.00310396 0.00201379 -0.000980233)
(0.00215347 -0.000337285 0.000120758 -0.00147042 0.00102392 -0.00158342)
(0.0280393 -1.32775e-06 8.61496e-07 -0.0437822 -0.00111753 0.00100445)
(0.0148431 1.75074e-07 3.21225e-05 -0.0250445 0.000519665 0.00202625)
(0.0130049 2.46723e-06 4.6769e-05 -0.022062 0.0013167 0.00180638)
(0.00927211 -3.19992e-06 5.30537e-05 -0.0158411 0.0018052 0.00119794)
(0.00625655 -8.41667e-06 6.01713e-05 -0.0105131 0.00199763 0.000427049)
(0.00389258 -6.37192e-06 7.14517e-05 -0.00613481 0.00193868 -0.000327345)
(0.00242072 -2.72317e-05 8.53867e-05 -0.003113 0.00162913 -0.000945502)
(0.00199574 -0.000315106 0.000101653 -0.00152983 0.000846769 -0.00128407)
(0.0280624 -3.82808e-06 3.45311e-06 -0.0433503 -0.000359325 0.000498463)
(0.015137 -4.46078e-06 2.94487e-05 -0.0244995 0.000486172 0.000998462)
(0.0133237 -8.65601e-07 4.33052e-05 -0.021618 0.000985186 0.000839765)
(0.00954987 -1.79789e-06 5.01687e-05 -0.0155334 0.00130673 0.000430199)
(0.00645399 -7.67279e-07 5.6267e-05 -0.0103268 0.00145182 -9.27395e-05)
(0.00400046 7.3118e-06 6.38803e-05 -0.00603903 0.00142863 -0.00061034)
(0.00244146 -9.2728e-06 7.17434e-05 -0.00307883 0.00121865 -0.0010191)
(0.00193323 -0.000301387 7.97153e-05 -0.00154232 0.000639821 -0.0011639)
(0.0279699 -4.33734e-06 4.23396e-06 -0.0429428 -2.72655e-05 0.00020416)
(0.0152932 -5.32004e-06 2.34612e-05 -0.024141 0.000393677 0.000379504)
(0.0135117 -6.50776e-07 3.4167e-05 -0.0213064 0.000691545 0.000220251)
(0.00973038 9.9459e-07 3.97255e-05 -0.0153021 0.000888147 -9.58809e-05)
(0.00659554 5.42272e-06 4.41373e-05 -0.0101699 0.000982775 -0.000481342)
(0.0040908 1.67646e-05 4.88752e-05 -0.00594128 0.000972756 -0.000854871)
(0.00247854 2.31575e-06 5.30797e-05 -0.00302378 0.000836797 -0.00113015)
(0.00192797 -0.000293093 5.66117e-05 -0.00152603 0.000443063 -0.00115848)
(0.0278641 -4.22833e-06 3.20018e-06 -0.0426391 6.39623e-05 4.39284e-05)
(0.0153666 -5.0463e-06 1.48932e-05 -0.023921 0.000254712 3.44396e-05)