/*--------------------------------*- C++ -*----------------------------------*\
| =========                 |                                                 |
| \\      /  F ield         | foam-extend: Open Source CFD                    |
|  \\    /   O peration     | Version:     3.1                                |
|   \\  /    A nd           | Web:         http://www.extend-project.de       |
|    \\/     M anipulation  |                                                 |
\*---------------------------------------------------------------------------*/
FoamFile
{
    version     2.0;
    format      ascii;
    class       pointVectorField;
    location    "1.4";
    object      pointD;
}
// * * * * * * * * * * * * * * * * * * * * * * * * * * * * * * * * * * * * * //

dimensions      [0 1 0 0 0 0 0];

internalField   nonuniform List<vector> 
405
(
(0 0 0)
(0 0 0)
(0 0 0)
(0 0 0)
(0 0 0)
(0.00116414 0.00118589 0.000473072)
(0.000721357 0.000402342 0.000302481)
(0.000561431 -2.11564e-05 -2.09948e-05)
(0.000640117 -0.000455526 -0.000352888)
(0.000968532 -0.00124455 -0.000545074)
(0.00230809 0.00174563 0.000302945)
(0.00194075 0.000710074 0.000197357)
(0.00175054 -2.79369e-05 -3.7229e-05)
(0.00181227 -0.00077349 -0.000285187)
(0.00203747 -0.00182744 -0.000423829)
(0.00383357 0.00231658 0.000161046)
(0.00348251 0.000996908 0.000111014)
(0.00329483 -4.7838e-05 -5.06208e-05)
(0.00332535 -0.00110232 -0.000224043)
(0.00349956 -0.00245244 -0.000308619)
(0.00554767 0.00271281 -2.31896e-05)
(0.00524291 0.00119448 6.43733e-06)
(0.00506574 -8.33552e-05 -5.87654e-05)
(0.00506638 -0.00137099 -0.000135384)
(0.0051721 -0.00291956 -0.0001397)
(0.00739513 0.0029755 -0.000192471)
(0.00712947 0.00131946 -8.82467e-05)
(0.00696311 -0.000131278 -6.42052e-05)
(0.00694007 -0.00158938 -5.0757e-05)
(0.00699289 -0.00327001 2.19128e-05)
(0.00929612 0.00312181 -0.000334988)
(0.0090626 0.00138309 -0.000168441)
(0.00890699 -0.000187279 -6.93062e-05)
(0.00886761 -0.00176051 2.18227e-05)
(0.00888301 -0.00351448 0.000162288)
(0.0112014 0.00319587 -0.000442831)
(0.0109862 0.00140453 -0.000234311)
(0.0108353 -0.000246046 -7.69938e-05)
(0.0107874 -0.0018955 7.5999e-05)
(0.010786 -0.00368614 0.000266676)
(0.0131076 0.00322132 -0.000500625)
(0.0128642 0.00140618 -0.000273769)
(0.0126746 -0.000296317 -8.54952e-05)
(0.0126433 -0.00200131 9.84002e-05)
(0.0126624 -0.0038101 0.000310145)
(0 0 0)
(0 0 0)
(0 0 0)
(0 0 0)
(0 0 0)
(0.00123447 0.00112424 0.000263586)
(0.000809685 0.000355647 0.000169467)
(0.000679347 -1.55018e-05 -1.88732e-05)
(0.000738928 -0.000388094 -0.00021723)
(0.00105004 -0.00115584 -0.000330304)
(0.00237205 0.00179381 0.000198687)
(0.00202807 0.000748124 0.000128616)
(0.0018721 -2.75138e-05 -3.40818e-05)
(0.00191062 -0.000807486 -0.000207185)
(0.00211529 -0.00187033 -0.000300107)
(0.00383649 0.00236991 8.43422e-05)
(0.0035142 0.00104221 6.07054e-05)
(0.0033599 -4.71426e-05 -4.42637e-05)
(0.00336775 -0.00114387 -0.000158807)
(0.00351645 -0.00249934 -0.000205935)
(0.00548743 0.0027758 -5.38378e-05)
(0.00520776 0.00124795 -1.67778e-05)
(0.0050601 -7.89796e-05 -5.09815e-05)
(0.00504053 -0.00141363 -9.43514e-05)
(0.00512385 -0.00296891 -7.97451e-05)
(0.00726871 0.00303578 -0.000187329)
(0.00702567 0.00137254 -9.06884e-05)
(0.0068858 -0.000121149 -5.60169e-05)
(0.00684503 -0.00162068 -2.96862e-05)
(0.00687775 -0.0033058 4.6733e-05)
(0.00911208 0.00317562 -0.00030192)
(0.00889834 0.00143233 -0.000154486)
(0.00876627 -0.000170634 -6.14654e-05)
(0.0087117 -0.00177565 2.52034e-05)
(0.00870966 -0.00353179 0.000156561)
(0.0109726 0.00323804 -0.000388243)
(0.0107744 0.00144476 -0.000205682)
(0.0106442 -0.000223806 -6.99724e-05)
(0.0105847 -0.00189011 6.18755e-05)
(0.0105694 -0.00367934 0.000234516)
(0.0128576 0.00325502 -0.000432134)
(0.01263 0.00143936 -0.00023539)
(0.0124597 -0.000270964 -8.10648e-05)
(0.012418 -0.00198162 6.82195e-05)
(0.0124248 -0.00378614 0.000256266)
(0 0 0)
(0 0 0)
(0 0 0)
(0 0 0)
(0 0 0)
(0.00128179 0.00112752 0.000127701)
(0.000835102 0.000353518 8.25022e-05)
(0.00069686 -1.29283e-05 -1.65317e-05)
(0.000760926 -0.000380361 -0.000122456)
(0.00108556 -0.00115606 -0.000177957)
(0.00241514 0.00177513 9.36503e-05)
(0.00204999 0.000745794 6.00651e-05)
(0.0018844 -2.3365e-05 -2.9511e-05)
(0.00192868 -0.00079717 -0.000125497)
(0.00214921 -0.00184623 -0.00016879)
(0.00384032 0.00234832 1.91333e-05)
(0.00350936 0.00104519 1.52067e-05)
(0.00335018 -4.05122e-05 -3.83907e-05)
(0.00335764 -0.00113361 -9.74706e-05)
(0.00350971 -0.002464 -0.000109766)
(0.00544786 0.00275668 -7.54775e-05)
(0.00516245 0.0012552 -3.88476e-05)
(0.0050114 -6.80253e-05 -4.45103e-05)
(0.00498899 -0.00139864 -5.50728e-05)
(0.00507243 -0.002926 -2.52944e-05)
(0.00718212 0.00302218 -0.00017075)
(0.00693618 0.0013845 -9.23377e-05)
(0.00679424 -0.000104924 -4.94442e-05)
(0.00674898 -0.00159928 -1.0664e-05)
(0.00677873 -0.00325603 6.27515e-05)
(0.00898229 0.00317 -0.000255053)
(0.00876743 0.00144841 -0.000139782)
(0.0086347 -0.000148954 -5.51942e-05)
(0.00857484 -0.0017466 2.66833e-05)
(0.00856786 -0.00347673 0.00013963)
(0.0108071 0.00324269 -0.000320156)
(0.01061 0.00146411 -0.000178291)
(0.0104806 -0.000197319 -6.45353e-05)
(0.0104158 -0.00185351 4.80312e-05)
(0.0103942 -0.00362107 0.000191653)
(0.0126717 0.00326717 -0.000351324)
(0.0124462 0.00146115 -0.000200462)
(0.0122768 -0.000240734 -7.9358e-05)
(0.0122279 -0.00193862 3.8607e-05)
(0.0122266 -0.00372411 0.000191133)
(0 0 0)
(0 0 0)
(0 0 0)
(0 0 0)
(0 0 0)
(0.00129762 0.00112685 5.04516e-05)
(0.0008349 0.000352249 3.47296e-05)
(0.000688622 -1.08183e-05 -1.32268e-05)
(0.000755799 -0.000374947 -6.51033e-05)
(0.00109122 -0.00115018 -8.61906e-05)
(0.00242202 0.00175454 2.46228e-05)
(0.00204065 0.000739506 1.85128e-05)
(0.00186519 -1.81113e-05 -2.37363e-05)
(0.00191329 -0.000780529 -6.94446e-05)
(0.0021462 -0.00181558 -7.95818e-05)
(0.00382471 0.00231952 -2.60904e-05)
(0.00348096 0.00103876 -1.2167e-05)
(0.00331347 -3.13985e-05 -3.12386e-05)
(0.00332275 -0.00110897 -5.28601e-05)
(0.00348425 -0.00241662 -4.13311e-05)
(0.00540235 0.00272757 -9.03527e-05)
(0.0051082 0.00125141 -4.94813e-05)
(0.00495053 -5.42633e-05 -3.6669e-05)
(0.00492808 -0.00136702 -2.57971e-05)
(0.00501718 -0.00286806 1.40385e-05)
(0.00710469 0.00299817 -0.000156682)
(0.00685339 0.0013856 -8.7325e-05)
(0.00670629 -8.60081e-05 -4.13767e-05)
(0.00665968 -0.00156177 3.29461e-06)
(0.0066918 -0.00319156 7.30342e-05)
(0.00887461 0.00315499 -0.000216999)
(0.00865703 0.0014556 -0.000121931)
(0.00852061 -0.000124859 -4.72445e-05)
(0.00845845 -0.0017041 2.71418e-05)
(0.00845106 -0.00340891 0.000124516)
(0.0106735 0.00323938 -0.00026496)
(0.0104763 0.00147767 -0.000150827)
(0.0103444 -0.000168587 -5.69588e-05)
(0.0102762 -0.00180712 3.75294e-05)
(0.0102514 -0.00355219 0.00015687)
(0.0125209 0.00327451 -0.000287629)
(0.0122964 0.00148094 -0.0001682)
(0.0121238 -0.000208386 -7.30292e-05)
(0.0120692 -0.0018904 2.11258e-05)
(0.012062 -0.00365582 0.000145548)
(0 0 0)
(0 0 0)
(0 0 0)
(0 0 0)
(0 0 0)
(0.00129797 0.00112218 1.21398e-05)
(0.000825816 0.000351031 1.07352e-05)
(0.000674384 -8.74263e-06 -9.67041e-06)
(0.000742761 -0.000369392 -3.20939e-05)
(0.00108398 -0.00113879 -3.59948e-05)
(0.00241196 0.00173796 -9.96549e-06)
(0.00201922 0.000734723 -2.37164e-06)
(0.00183719 -1.25333e-05 -1.77579e-05)
(0.00188693 -0.000764365 -3.49005e-05)
(0.00212803 -0.00178693 -2.859e-05)
(0.00379804 0.00229681 -4.62668e-05)
(0.00344377 0.00103325 -2.40564e-05)
(0.00327021 -2.17488e-05 -2.37812e-05)
(0.00328068 -0.00108396 -2.45228e-05)
(0.00344972 -0.00237389 -2.16381e-06)
(0.00535528 0.00270403 -9.05753e-05)
(0.00505273 0.00124774 -4.99438e-05)
(0.00488997 -4.01657e-05 -2.83626e-05)
(0.00486799 -0.00133484 -7.28786e-06)
(0.00496284 -0.00281535 3.45625e-05)
(0.00703595 0.00297825 -0.000136567)
(0.00677853 0.00138582 -7.65511e-05)
(0.0066274 -6.72783e-05 -3.26205e-05)
(0.00658059 -0.00152398 1.13069e-05)
(0.00661634 -0.00313247 7.35648e-05)
(0.00878485 0.00314169 -0.000179354)
(0.00856322 0.00146094 -0.000101568)
(0.00842379 -0.00010164 -3.81893e-05)
(0.00836079 -0.00166204 2.58456e-05)
(0.00835497 -0.00334614 0.000107173)
(0.0105648 0.00323441 -0.000214378)
(0.0103654 0.00148838 -0.0001231)
(0.0102312 -0.000141403 -4.73475e-05)
(0.0101614 -0.00176197 2.96145e-05)
(0.0101361 -0.00348762 0.000126306)
(0.0123977 0.00327691 -0.00023047)
(0.0121715 0.00149673 -0.000136279)
(0.0119957 -0.000177908 -6.23179e-05)
(0.0119379 -0.00184352 1.16895e-05)
(0.0119286 -0.00359074 0.000111079)
(0 0 0)
(0 0 0)
(0 0 0)
(0 0 0)
(0 0 0)
(0.00129244 0.00111646 -3.86205e-06)
(0.000815448 0.000350046 2.51631e-07)
(0.000660927 -6.855e-06 -6.48456e-06)
(0.000729536 -0.000364382 -1.41714e-05)
(0.00107314 -0.0011266 -1.10806e-05)
(0.00239641 0.00172558 -2.19583e-05)
(0.00199663 0.000731813 -1.0085e-05)
(0.0018105 -7.42075e-06 -1.23069e-05)
(0.00186078 -0.000750931 -1.53656e-05)
(0.00210663 -0.0017631 -3.62941e-06)
(0.00376956 0.002281 -4.77974e-05)
(0.00340815 0.00103016 -2.52617e-05)
(0.00323062 -1.29928e-05 -1.68225e-05)
(0.00324168 -0.00106314 -8.68436e-06)
(0.00341565 -0.00233981 1.4782e-05)
(0.00531238 0.00268802 -7.80673e-05)
(0.0050036 0.00124617 -4.29206e-05)
(0.0048374 -2.76026e-05 -2.0416e-05)
(0.00481584 -0.00130789 2.16114e-06)
(0.00491491 -0.00277346 3.89972e-05)
(0.00697811 0.00296475 -0.000109397)
(0.00671575 0.00138715 -6.11869e-05)
(0.00656183 -5.09113e-05 -2.39488e-05)
(0.00651517 -0.0014922 1.37094e-05)
(0.00655403 -0.00308509 6.42917e-05)
(0.00871231 0.00313251 -0.000139003)
(0.00848708 0.00146597 -7.8734e-05)
(0.00834554 -8.17086e-05 -2.87014e-05)
(0.00828235 -0.00162657 2.21732e-05)
(0.00827835 -0.00329511 8.56293e-05)
(0.0104783 0.00323043 -0.000163782)
(0.0102766 0.0014972 -9.42054e-05)
(0.0101407 -0.000118384 -3.63969e-05)
(0.0100702 -0.00172383 2.25729e-05)
(0.0100454 -0.00343427 9.64791e-05)
(0.0122993 0.0032777 -0.000175054)
(0.0120709 0.00150921 -0.00010387)
(0.0118927 -0.000152234 -4.86885e-05)
(0.0118333 -0.00180367 6.86072e-06)
(0.0118238 -0.0035362 8.21781e-05)
(0 0 0)
(0 0 0)
(0 0 0)
(0 0 0)
(0 0 0)
(0.00128622 0.00111151 -7.62866e-06)
(0.000806966 0.000349359 -2.8714e-06)
(0.000650672 -5.36476e-06 -3.88393e-06)
(0.000719135 -0.000360494 -5.29958e-06)
(0.0010634 -0.0011165 -8.75554e-07)
(0.00238213 0.00171701 -2.05132e-05)
(0.00197828 0.000730234 -1.0086e-05)
(0.00178971 -3.39228e-06 -7.62812e-06)
(0.00184005 -0.000741039 -5.53646e-06)
(0.00208842 -0.00174544 5.12165e-06)
(0.00374579 0.00227081 -3.73759e-05)
(0.00337996 0.0010288 -1.98534e-05)
(0.00319998 -6.13509e-06 -1.06341e-05)
(0.00321129 -0.00104788 -1.43942e-06)
(0.00338816 -0.00231527 1.70035e-05)
(0.00527866 0.00267808 -5.65295e-05)
(0.00496579 0.00124605 -3.09787e-05)
(0.00479742 -1.78602e-05 -1.31142e-05)
(0.00477613 -0.00128811 4.96437e-06)
(0.00487792 -0.00274351 3.19101e-05)
(0.00693435 0.00295655 -7.62652e-05)
(0.00666857 0.00138907 -4.25219e-05)
(0.00651287 -3.83644e-05 -1.56501e-05)
(0.00646641 -0.00146878 1.1649e-05)
(0.00650743 -0.00305106 4.71951e-05)
(0.00865862 0.00312695 -9.5091e-05)
(0.00843074 0.00147033 -5.37741e-05)
(0.00828783 -6.65973e-05 -1.91116e-05)
(0.0082247 -0.00160033 1.62232e-05)
(0.00822217 -0.00325812 5.98079e-05)
(0.0104148 0.00322788 -0.000111072)
(0.0102113 0.00150398 -6.38584e-05)
(0.0100743 -0.000101083 -2.4634e-05)
(0.0100036 -0.00169548 1.54327e-05)
(0.00997959 -0.00339514 6.55539e-05)
(0.0122271 0.00327791 -0.000118334)
(0.0119968 0.00151831 -7.02632e-05)
(0.011817 -0.00013302 -3.32753e-05)
(0.0117569 -0.00177383 4.05632e-06)
(0.0117478 -0.0034957 5.4881e-05)
(0 0 0)
(0 0 0)
(0 0 0)
(0 0 0)
(0 0 0)
(0.00128178 0.00110826 -5.12535e-06)
(0.000801598 0.000348959 -2.22463e-06)
(0.000644395 -4.41799e-06 -1.79732e-06)
(0.00071266 -0.000358056 -1.50968e-06)
(0.00105694 -0.00110999 1.31998e-06)
(0.00237254 0.00171197 -1.18199e-05)
(0.00196662 0.000729482 -5.93775e-06)
(0.00177676 -8.38759e-07 -3.62365e-06)
(0.00182703 -0.000735016 -1.44172e-06)
(0.00207657 -0.00173462 4.64171e-06)
(0.00373035 0.00226511 -2.01898e-05)
(0.00336215 0.00102834 -1.07443e-05)
(0.00318085 -1.80036e-06 -5.12465e-06)
(0.00319224 -0.00103864 5.28042e-07)
(0.0033706 -0.00230049 1.05093e-05)
(0.00525727 0.00267272 -2.9528e-05)
(0.00494214 0.00124642 -1.61481e-05)
(0.00477259 -1.17338e-05 -6.39214e-06)
(0.00475145 -0.00127613 3.51211e-06)
(0.00485471 -0.00272558 1.76534e-05)
(0.0069071 0.00295223 -3.91203e-05)
(0.00663935 0.00139066 -2.17633e-05)
(0.00648268 -3.05245e-05 -7.71803e-06)
(0.00643635 -0.00145456 6.5756e-06)
(0.00647863 -0.00303067 2.48819e-05)
(0.00862554 0.00312405 -4.83149e-05)
(0.00839611 0.0014733 -2.72826e-05)
(0.00825245 -5.7213e-05 -9.53981e-06)
(0.00818939 -0.00158434 8.56258e-06)
(0.00818779 -0.00323583 3.07535e-05)
(0.010376 0.0032265 -5.61797e-05)
(0.0101712 0.00150828 -3.22741e-05)
(0.0100336 -9.03879e-05 -1.2417e-05)
(0.00996291 -0.00167814 7.87115e-06)
(0.00993951 -0.0033714 3.32182e-05)
(0.0121829 0.00327788 -5.97655e-05)
(0.0119514 0.00152387 -3.54806e-05)
(0.0117706 -0.000121162 -1.68594e-05)
(0.0117103 -0.00175548 1.94925e-06)
(0.0117016 -0.00347095 2.75871e-05)
(0 0 0)
(0 0 0)
(0 0 0)
(0 0 0)
(0 0 0)
(0.00128019 0.00110713 -0)
(0.000799772 0.000348827 0)
(0.000642291 -4.09412e-06 0)
(0.000710474 -0.000357227 0)
(0.0010547 -0.00110775 0)
(0.00236919 0.00171031 -0)
(0.00196264 0.000729262 0)
(0.00177238 3.36847e-08 0)
(0.0018226 -0.000732995 0)
(0.00207248 -0.00173098 0)
(0.00372501 0.00226327 -0)
(0.00335608 0.00102825 0)
(0.00317437 -3.20881e-07 0)
(0.00318578 -0.00103555 0)
(0.00336459 -0.00229556 0)
(0.00524995 0.00267103 -0)
(0.00493411 0.00124662 0)
(0.00476419 -9.64729e-06 0)
(0.00474309 -0.00127212 0)
(0.00484682 -0.00271961 0)
(0.00689784 0.00295089 -0)
(0.00662947 0.00139126 0)
(0.00647249 -2.78619e-05 0)
(0.00642621 -0.0014498 0)
(0.00646888 -0.00302387 0)
(0.00861436 0.00312315 -0)
(0.00838442 0.00147435 0)
(0.00824052 -5.40339e-05 0)
(0.0081775 -0.00157898 0)
(0.00817621 -0.00322839 0)
(0.0103628 0.00322605 -0)
(0.0101577 0.00150975 0)
(0.0100199 -8.67702e-05 0)
(0.00994921 -0.00167231 0)
(0.00992603 -0.00336345 0)
(0.0121679 0.00327781 -0)
(0.011936 0.00152573 -0)
(0.0117549 -0.000117149 0)
(0.0116946 -0.0017493 0)
(0.0116861 -0.00346263 0)
)
;

boundaryField
{
    interface
    {
        type            calculated;
    }
    symmetry
    {
        type            symmetryPlane;
    }
    bottom
    {
        type            fixedValue;
        value           uniform (0 0 0);
    }
}


// ************************************************************************* //
