/*--------------------------------*- C++ -*----------------------------------*\
| =========                 |                                                 |
| \\      /  F ield         | foam-extend: Open Source CFD                    |
|  \\    /   O peration     | Version:     3.1                                |
|   \\  /    A nd           | Web:         http://www.extend-project.de       |
|    \\/     M anipulation  |                                                 |
\*---------------------------------------------------------------------------*/
FoamFile
{
    version     2.0;
    format      ascii;
    class       volScalarField;
    location    "1.4";
    object      sigmaCauchyEq;
}
// * * * * * * * * * * * * * * * * * * * * * * * * * * * * * * * * * * * * * //

dimensions      [1 -1 -2 0 0 0 0];

internalField   nonuniform List<scalar> 
256
(
350.42
146.426
134.124
261.298
240.325
180.823
163.68
204.693
220.421
170.131
154.251
178.968
173.499
150.326
137.364
137.76
132.591
126.957
116.817
101.015
97.5479
101.727
94.3661
70.0476
72.9982
76.6494
70.3975
47.421
64.6828
55.4472
41.0343
34.7665
342.27
159.711
144.725
251.559
252.063
183.948
165.794
211.999
217.356
157.491
141.236
175.436
169.684
133.336
119.335
132.22
127.23
108.932
97.9412
93.8908
92.4717
85.5629
77.7472
63.1086
68.6051
64.0384
58.1413
41.6854
61.7263
48.7678
35.248
31.0672
342.521
161.325
144.004
247.197
249.781
182.863
163.062
207.236
217.169
154.995
136.74
171.799
169.832
128.902
112.817
128.546
127.631
104.075
91.1611
90.4128
92.9164
81.1524
71.905
59.9941
68.8579
60.8974
54.2125
39.0173
61.417
48.1491
33.3186
27.3826
341.553
159.702
140.898
243.719
247.995
181.591
160.18
203.314
217.003
154.452
134.305
168.576
170.712
128.437
110.419
125.757
129.075
103.715
89.0183
87.8887
94.5668
80.9806
70.3113
57.7059
70.3963
61.0984
53.4142
36.971
62.6564
49.2543
32.8947
25.2745
339.73
157.355
137.598
240.64
247.072
180.214
157.494
200.566
217.185
154.24
132.604
166.247
171.835
128.865
109.369
123.826
130.735
104.502
88.463
86.1925
96.4064
81.9255
70.1702
56.1445
72.1263
62.0977
53.6003
35.5643
64.1983
50.4504
32.8704
24.1265
337.817
155.257
134.864
238.095
246.549
178.967
155.248
198.596
217.471
154.029
131.287
164.616
172.821
129.311
108.754
122.533
132.111
105.325
88.3509
85.0926
97.9006
82.8859
70.3842
55.1443
73.5296
63.0194
53.9533
34.6705
65.539
51.325
32.8298
23.5073
336.332
153.77
132.97
236.288
246.241
178.044
153.647
197.284
217.709
153.828
130.347
163.556
173.513
129.59
108.344
121.721
133.046
105.889
88.3233
84.4252
98.9006
83.5507
70.5853
54.5566
74.4709
63.6381
54.2135
34.1627
66.4693
51.8603
32.7458
23.1876
335.536
153.011
132.009
235.353
246.091
177.558
152.817
196.62
217.836
153.704
129.852
163.027
173.862
129.714
108.127
121.324
133.509
106.162
88.3085
84.1064
99.3914
83.8766
70.6883
54.2842
74.931
63.938
54.3382
33.9342
66.9295
52.1101
32.6796
23.049
)
;

boundaryField
{
    interface
    {
        type            calculated;
        value           nonuniform List<scalar> 
192
(
552.39
278.363
270.303
201.633
148.41
104.149
78.3942
63.9239
536.363
299.282
271.675
206.037
151.685
108.398
82.6246
67.7719
538.365
293.026
270.339
206.043
152.159
108.874
82.7147
65.5902
538.923
289.11
269.298
206.6
153.643
110.755
84.6483
66.5888
537.559
287.222
269.017
207.506
155.312
112.728
86.638
67.9888
535.524
286.289
269.134
208.452
156.767
114.369
88.2704
69.3876
533.747
285.803
269.325
209.172
157.776
115.48
89.3646
70.391
532.746
285.58
269.442
209.543
158.281
116.028
89.8914
70.8804
380.359
223.554
226.225
178.35
139.413
104.272
78.9745
69.9397
135.67
174.706
180.522
163.182
140.545
113.782
86.0458
62.2199
127.629
156.411
164.215
150.126
130.287
106.183
79.2549
45.9213
318.287
186.645
186.643
143.503
108.813
77.6144
54.0876
39.9977
432.449
234.221
220.718
160.103
111.366
70.0731
43.8018
33.1416
415.513
251.497
219.881
160.959
111.092
70.8601
44.9856
34.594
414.829
244.592
216.057
157.913
108.37
68.3809
42.3694
29.4281
413.457
239.838
212.608
155.052
105.777
65.7964
39.6309
26.7524
410.853
237.003
210.278
153.052
103.912
63.7812
37.3917
25.1272
408.033
235.182
208.748
151.771
102.704
62.4371
35.8715
24.343
405.783
234.025
207.788
151
101.986
61.6413
34.9811
24.005
404.557
233.448
207.314
150.631
101.647
61.2726
34.5815
23.8875
68.7477
65.8042
65.9695
67.0296
68.5149
69.818
70.7401
71.1793
50.4841
46.297
47.1815
48.9287
50.3302
51.2334
51.7506
51.9903
22.3213
19.6267
17.8607
16.7998
15.7125
14.4049
13.1836
12.4383
37.4037
33.1368
28.7507
26.2441
25.0718
24.4725
24.1654
24.0225
)
;
    }
    symmetry
    {
        type            symmetryPlane;
    }
    bottom
    {
        type            calculated;
        value           nonuniform List<scalar> 
32
(
315.483
270.842
263.902
262.181
260.655
259.104
257.868
257.19
100.555
104.961
102.643
98.9548
95.6234
93.0951
91.4413
90.6289
98.8172
97.6175
92.3029
87.0121
82.8884
79.9638
78.1034
77.1988
255.868
208.442
193.808
187.959
184.588
182.209
180.586
179.751
)
;
    }
}


// ************************************************************************* //
