/*--------------------------------*- C++ -*----------------------------------*\
| =========                 |                                                 |
| \\      /  F ield         | foam-extend: Open Source CFD                    |
|  \\    /   O peration     | Version:     3.1                                |
|   \\  /    A nd           | Web:         http://www.extend-project.de       |
|    \\/     M anipulation  |                                                 |
\*---------------------------------------------------------------------------*/
FoamFile
{
    version     2.0;
    format      ascii;
    class       volSymmTensorField;
    location    "1.4";
    object      sigmaCauchy;
}
// * * * * * * * * * * * * * * * * * * * * * * * * * * * * * * * * * * * * * //

dimensions      [1 -1 -2 0 0 0 0];

internalField   nonuniform List<symmTensor> 
256
(
(224.862 99.1954 -1.10095 534.564 45.4224 256.645)
(32.8668 72.8033 -10.1908 104.18 14.3373 40.288)
(-66.9579 61.9878 -12.0008 -139.32 -18.4486 -70.2538)
(-260.85 54.4998 -6.77705 -505.603 -38.9272 -284.464)
(-93.8161 44.6891 -5.09271 157.301 -14.6007 -29.516)
(-34.0259 91.8106 -17.6723 53.972 -6.23842 -13.4323)
(5.64151 83.0026 -18.3944 -70.5137 3.36074 -5.52325)
(54.8439 23.5499 -6.30919 -163.408 11.1364 9.10956)
(-31.8108 53.3967 -3.10409 191.33 -8.29079 30.2362)
(-33.1785 88.4623 -12.937 46.3447 -2.85499 -7.50463)
(1.88636 80.4702 -13.5011 -65.573 0.991203 -11.7417)
(-3.21689 29.8245 -3.96233 -190.717 5.58545 -43.554)
(-45.5979 46.2806 -3.71024 127.509 -10.9107 12.6123)
(-33.1547 80.0286 -11.4156 29.1977 -3.00709 -9.05606)
(3.8896 73.2987 -11.5094 -49.0494 2.50641 -7.32998)
(11.9817 26.4557 -3.78907 -130.34 9.25618 -21.9453)
(-41.4388 39.3153 -3.46168 87.7216 -9.61309 12.2645)
(-30.6343 68.6131 -9.79798 16.8592 -2.20096 -7.63299)
(2.15035 63.4738 -9.75597 -36.9242 2.76807 -7.09702)
(8.63334 24.137 -3.28723 -92.512 9.16638 -19.6004)
(-42.4804 30.1521 -3.56839 50.9156 -8.04847 7.89017)
(-29.9083 55.134 -8.83769 6.00738 -1.59827 -7.51991)
(0.625894 51.9073 -8.64956 -26.1457 2.83355 -6.77814)
(9.13208 20.3515 -3.17766 -57.4897 8.64851 -15.202)
(-41.9345 20.3354 -4.08673 28.4052 -6.37263 7.56953)
(-31.0329 40.6271 -8.38444 -2.04522 -1.39216 -7.79112)
(-0.931146 38.832 -7.941 -18.0367 2.52589 -7.41519)
(9.46006 15.0579 -3.27917 -33.3008 7.28611 -14.2959)
(-55.9934 13.2688 -4.66896 7.16003 -2.89952 -0.462501)
(-47.7475 24.4518 -8.04914 -13.2427 -0.426019 -16.607)
(5.98149 21.5232 -7.71739 -5.51568 1.38559 -3.00651)
(19.6636 6.96783 -3.9658 -13.0318 3.34481 -10.1217)
(226.86 108.653 -0.798294 526.583 26.4758 266.035)
(39.8907 84.0565 -8.33616 106.125 7.87032 47.9731)
(-62.5095 73.3433 -10.0244 -128.854 -12.6703 -68.7848)
(-252.384 62.6889 -5.46605 -489.028 -25.6435 -284.513)
(-53.6474 45.5156 -3.88919 213.478 -6.65119 19.7006)
(-6.66408 93.3042 -16.5242 84.6087 -3.24947 14.0548)
(-21.8817 83.3493 -18.0534 -102.271 0.160983 -33.4108)
(9.3579 23.2306 -7.09819 -219.217 3.30105 -42.0359)
(-25.6577 47.4771 -3.07927 198.075 -12.7263 36.9678)
(-21.3261 80.3127 -14.114 56.6663 -4.14575 2.12371)
(-9.85878 72.2407 -15.289 -73.7363 3.37236 -19.5296)
(-11.8387 24.3792 -5.28787 -196.422 10.7144 -49.2371)
(-33.7974 39.7475 -2.41747 139.734 -14.8465 24.87)
(-21.2139 69.3721 -11.254 40.2755 -4.09479 0.869957)
(-8.58206 62.6147 -12.1176 -55.9825 4.98407 -15.5804)
(-2.74091 20.3535 -4.04117 -140.008 14.4182 -33.4916)
(-33.189 32.3956 -1.53949 94.9972 -14.2104 20.7879)
(-21.1661 57.6143 -8.83497 25.4768 -3.49891 -0.182666)
(-7.69806 52.6571 -9.55338 -39.9828 5.57834 -12.6473)
(-2.48158 17.908 -2.8276 -96.5949 15.2408 -27.4117)
(-34.3179 24.1297 -1.00569 57.6247 -12.07 16.5639)
(-21.4397 45.5513 -7.10017 13.4884 -2.68442 -1.07703)
(-7.48352 42.6041 -7.67958 -27.2847 5.39548 -10.9824)
(-1.25056 15.0803 -2.05201 -60.3027 14.2485 -22.8145)
(-34.797 15.584 -0.999314 33.3528 -8.98161 15.0822)
(-24.1164 33.473 -6.19907 3.22118 -1.91031 -3.17693)
(-6.75873 32.1493 -6.595 -17.396 4.45319 -9.87726)
(1.56929 11.4184 -1.68321 -33.5204 11.5374 -19.8785)
(-48.372 11.027 -1.57869 12.4243 -4.22814 6.76683)
(-41.5213 21.0422 -6.3428 -9.16115 -0.580509 -13.3876)
(0.307666 18.5675 -7.01605 -6.22002 2.56137 -5.93101)
(11.6265 5.6732 -2.61492 -14.8385 6.0522 -16.1977)
(232.854 112.141 -0.899138 535.362 12.0819 281.54)
(42.5604 85.6782 -5.40245 109.999 3.16748 54.4887)
(-63.5182 74.5444 -6.43419 -129.246 -7.30389 -73.0974)
(-258.91 64.1557 -3.49041 -496.009 -13.4007 -299.863)
(-53.8338 45.3916 -3.20964 214.848 -4.75265 36.1415)
(-5.12326 93.2252 -11.3135 88.768 -2.35166 23.0095)
(-24.9449 83.2078 -12.4682 -105.128 -0.10163 -42.0122)
(5.23622 23.1589 -5.37784 -222.867 2.38917 -61.7963)
(-26.4124 46.3274 -3.18489 201.155 -9.94147 47.918)
(-21.2649 78.6228 -10.7653 60.1716 -3.25273 8.24964)
(-12.674 70.482 -11.6357 -76.0253 2.99461 -25.6011)
(-16.0376 23.2585 -4.45792 -200.856 8.86671 -63.971)
(-34.8063 38.2365 -2.70607 142.141 -12.0804 30.9886)
(-21.5183 66.2355 -8.99521 43.2501 -3.32593 5.1974)
(-11.6791 59.5083 -9.56512 -57.0306 4.79719 -19.5917)
(-7.39011 19.0713 -3.31938 -143.63 12.5563 -43.7925)
(-35.1346 30.6353 -2.02931 96.3922 -11.9046 22.7428)
(-21.6015 54.1379 -7.05533 28.2631 -2.86208 2.91872)
(-10.7223 49.2929 -7.45426 -40.2297 5.58439 -15.0978)
(-6.22222 16.5165 -2.23404 -98.6216 13.82 -33.3195)
(-36.4359 22.4643 -1.48329 58.6002 -10.2633 15.8787)
(-21.7193 42.3998 -5.54847 16.058 -2.13505 1.18172)
(-10.1267 39.6949 -5.82397 -26.8175 5.53287 -12.0899)
(-4.28444 13.9799 -1.45589 -61.1668 13.2437 -25.3951)
(-36.3783 14.122 -1.3321 34.5231 -7.62773 12.9647)
(-24.0312 31.187 -4.8485 5.51473 -1.35339 -1.52083)
(-8.7777 30.2562 -5.05626 -16.4055 4.61193 -9.66958)
(-0.608708 10.8311 -1.17056 -33.3444 10.8957 -19.5115)
(-50.3555 10.3891 -1.91567 12.2304 -3.37316 2.50961)
(-41.2664 20.0962 -5.55681 -7.25958 -0.184777 -12.152)
(-0.861592 17.9443 -6.174 -4.55841 2.50502 -3.55118)
(11.9264 5.70901 -2.42459 -11.9688 5.5335 -10.7122)
(234.995 112.556 -0.681926 538.852 4.20704 290.223)
(43.1182 84.7709 -3.24652 111.716 0.807119 57.8287)
(-64.2546 73.3976 -3.79408 -129.175 -3.92261 -75.7309)
(-261.373 63.7709 -1.96276 -497.832 -6.15157 -307.915)
(-54.5769 44.8504 -2.11262 214.626 -3.98879 47.5793)
(-5.94199 92.5508 -7.15487 90.0323 -1.78212 27.6553)
(-25.9985 82.6094 -7.84655 -104.782 0.0549905 -46.8218)
(3.58558 22.9217 -3.36839 -222.989 2.32734 -74.9408)
(-27.0228 45.9595 -2.41469 202.984 -7.26149 57.9684)
(-22.7081 78.0796 -7.46992 61.5613 -2.28654 11.8606)
(-13.8571 70.0272 -7.96027 -75.9334 2.39788 -29.7656)
(-17.7032 23.1303 -3.03685 -201.982 6.81488 -75.5349)
(-35.479 37.875 -2.24392 144.619 -8.74703 38.1988)
(-23.0028 65.5626 -6.62589 44.7639 -2.27732 7.84052)
(-13.0828 58.9235 -6.86694 -56.8724 3.9245 -22.7023)
(-9.14855 18.9445 -2.33161 -144.989 9.66416 -52.5308)
(-35.7485 30.273 -1.82967 99.1669 -8.7402 27.2134)
(-22.9365 53.4183 -5.40292 29.9276 -1.91929 4.75802)
(-12.1719 48.6834 -5.48716 -39.9216 4.6911 -17.0931)
(-7.88185 16.4101 -1.55862 -99.7722 10.8896 -38.9736)
(-36.8489 22.1139 -1.44974 61.5241 -7.68258 18.2117)
(-22.7592 41.7754 -4.38562 17.8094 -1.39531 2.46568)
(-11.3873 39.2378 -4.37052 -26.253 4.74046 -12.955)
(-5.71742 13.9713 -0.980452 -61.9191 10.6715 -28.2605)
(-36.2518 13.7822 -1.3765 37.6926 -5.86546 13.9897)
(-24.6848 30.817 -4.05534 7.25909 -0.842845 -0.516881)
(-9.72414 30.1117 -4.02207 -15.5722 3.9907 -9.33557)
(-1.72029 10.9715 -0.843667 -33.5392 8.93629 -19.7964)
(-50.1496 10.3414 -2.06297 14.8243 -2.70902 2.43718)
(-41.8048 20.0599 -5.1381 -5.63988 -0.0225455 -11.1262)
(-1.71999 18.0261 -5.46178 -3.6258 2.18658 -1.84912)
(11.4338 5.93187 -2.11125 -11.3428 4.62246 -8.12064)
(234.852 111.827 -0.450178 538.773 0.511801 293.95)
(43.094 83.2674 -1.83985 112.522 -0.191995 59.5127)
(-64.5159 71.7963 -2.10763 -128.447 -1.94172 -77.0115)
(-261.111 62.9065 -1.01381 -496.108 -2.31379 -310.796)
(-55.2843 44.1955 -1.26745 214.323 -3.3137 54.397)
(-6.76154 91.5468 -4.27172 90.7808 -1.33279 30.2302)
(-26.6847 81.7247 -4.65057 -103.818 0.196964 -49.7474)
(2.55463 22.6272 -1.92298 -222.379 2.16186 -83.0963)
(-27.8557 45.641 -1.63021 203.892 -5.18871 64.538)
(-23.8163 77.66 -4.85028 62.5261 -1.5383 14.077)
(-14.6514 69.7422 -5.098 -75.231 1.8301 -32.6322)
(-18.4219 23.1092 -1.86147 -201.813 5.07756 -83.2148)
(-36.2633 37.7796 -1.63512 146.292 -6.04206 43.4882)
(-24.0661 65.4721 -4.55762 45.9435 -1.44778 9.60279)
(-13.9218 58.941 -4.62389 -56.3067 2.97115 -25.0439)
(-9.92064 19.0833 -1.48361 -145.249 7.03928 -58.8821)
(-36.3946 30.2925 -1.43189 101.306 -6.0348 30.9569)
(-23.8355 53.5011 -3.89575 31.2794 -1.1727 6.08525)
(-12.9642 48.8649 -3.84136 -39.3854 3.59428 -18.7071)
(-8.60694 16.6312 -1.01364 -100.152 7.99303 -43.4609)
(-37.2853 22.1646 -1.22767 63.8757 -5.3899 20.6133)
(-23.4093 41.9516 -3.32049 19.2632 -0.827335 3.50704)
(-12.0312 39.5294 -3.193 -25.6535 3.67067 -13.7478)
(-6.29696 14.2505 -0.661514 -62.1621 7.94218 -30.8028)
(-36.3154 13.8002 -1.25729 40.1656 -4.23219 15.5409)
(-25.0983 31.0547 -3.2804 8.68208 -0.484508 0.400943)
(-10.1848 30.4792 -3.15111 -14.8704 3.1064 -9.235)
(-2.07818 11.2839 -0.659226 -33.4544 6.7346 -20.435)
(-50.4076 10.4504 -1.9538 16.6753 -1.9892 3.01779)
(-42.3753 20.3036 -4.44817 -4.46832 0.0699907 -10.3277)
(-2.10093 18.3045 -4.58852 -2.81236 1.71021 -0.728881)
(11.5564 6.16527 -1.79689 -10.678 3.51473 -6.66962)
(233.978 110.872 -0.26308 537.412 -0.819451 295.217)
(42.9267 81.8887 -0.975736 112.922 -0.469493 60.3344)
(-64.4822 70.3855 -1.09675 -127.501 -0.859213 -77.5102)
(-259.88 62.0657 -0.477424 -493.289 -0.529691 -311.231)
(-55.7019 43.5942 -0.690247 214.178 -2.50637 58.295)
(-7.36889 90.5484 -2.38935 91.3215 -0.932882 31.6078)
(-27.1274 80.8385 -2.58328 -102.803 0.239569 -51.4647)
(1.81295 22.35 -1.00761 -221.635 1.75415 -87.9373)
(-28.459 45.3332 -0.992165 204.518 -3.51461 68.5443)
(-24.5506 77.2325 -2.92745 63.2808 -0.983152 15.3648)
(-15.1998 69.4351 -3.04094 -74.452 1.29611 -34.4953)
(-18.811 23.0665 -1.0415 -201.291 3.54394 -87.9843)
(-36.815 37.7124 -1.06448 147.505 -3.94929 46.9929)
(-24.7458 65.4412 -2.89688 46.8644 -0.868661 10.6994)
(-14.4397 59.0041 -2.89048 -55.6614 2.06748 -26.6492)
(-10.315 19.2141 -0.862375 -145.083 4.78857 -63.0737)
(-36.8381 30.3598 -0.988212 102.87 -3.9182 33.6997)
(-24.3798 53.701 -2.58866 32.3232 -0.670183 6.98781)
(-13.4031 49.1434 -2.50021 -38.8098 2.50811 -19.8689)
(-8.94323 16.8561 -0.608377 -100.128 5.43312 -46.6161)
(-37.5674 22.2747 -0.901862 65.5924 -3.53705 22.6501)
(-23.7766 42.2538 -2.31434 20.3627 -0.457036 4.29476)
(-12.35 39.9132 -2.17745 -25.0881 2.57178 -14.3638)
(-6.53764 14.524 -0.423738 -62.1141 5.4326 -32.7719)
(-36.3575 13.8765 -0.979923 41.9269 -2.83886 17.1213)
(-25.3263 31.3684 -2.41899 9.72779 -0.259593 1.15414)
(-10.3878 30.8765 -2.2855 -14.2882 2.18041 -9.25004)
(-2.17804 11.5585 -0.486308 -33.2455 4.63873 -21.1897)
(-50.5319 10.5505 -1.55866 18.1267 -1.35851 4.12236)
(-42.7598 20.5426 -3.41367 -3.60565 0.0911003 -9.63705)
(-2.26435 18.5555 -3.46519 -2.19054 1.2086 -0.114436)
(11.6742 6.33399 -1.36754 -10.2479 2.4405 -6.23827)
(233.116 110.103 -0.132731 536.01 -0.889606 295.454)
(42.7733 80.9014 -0.459489 113.124 -0.387679 60.715)
(-64.3514 69.3911 -0.508064 -126.692 -0.322013 -77.6425)
(-258.655 61.4477 -0.197051 -490.807 0.0793981 -310.831)
(-55.9374 43.1505 -0.329462 214.099 -1.56224 60.3428)
(-7.75845 89.7838 -1.18128 91.6904 -0.554103 32.2981)
(-27.3829 80.1566 -1.2701 -102.003 0.186434 -52.3988)
(1.3357 22.143 -0.465187 -221.001 1.13912 -90.5961)
(-28.845 45.0873 -0.522163 204.925 -2.04841 70.7537)
(-24.9908 76.8731 -1.54051 63.8176 -0.54908 16.0569)
(-15.544 69.1618 -1.58593 -73.8327 0.77595 -35.5986)
(-19.0259 23.0131 -0.509546 -200.79 2.104 -90.6968)
(-37.1587 37.6462 -0.592016 148.301 -2.24197 49.0482)
(-25.1421 65.3884 -1.58822 47.5077 -0.460972 11.324)
(-14.7436 59.0177 -1.56576 -55.1401 1.21821 -27.6341)
(-10.5257 19.2894 -0.436646 -144.834 2.78807 -65.5654)
(-37.1127 30.4007 -0.574372 103.878 -2.20919 35.422)
(-24.6832 53.8383 -1.46956 33.0362 -0.340585 7.54238)
(-13.6383 49.3341 -1.40011 -38.3488 1.47661 -20.6034)
(-9.10254 17.0058 -0.318128 -99.9818 3.15324 -48.5748)
(-37.7442 22.3531 -0.547686 66.6758 -2.00686 24.0427)
(-23.9688 42.4766 -1.36274 21.0952 -0.225306 4.81956)
(-12.5014 40.1884 -1.2662 -24.6551 1.51551 -14.7726)
(-6.63181 14.7104 -0.236284 -61.9741 3.15937 -34.075)
(-36.4008 13.9334 -0.620004 43.0096 -1.63506 18.2982)
(-25.4392 31.5945 -1.48119 10.4106 -0.124498 1.68618)
(-10.4688 31.1526 -1.3883 -13.8691 1.28555 -9.29929)
(-2.17878 11.7401 -0.301484 -33.0288 2.70586 -21.7959)
(-50.6232 10.6185 -1.00018 19.0392 -0.796361 5.07379)
(-42.9871 20.7093 -2.13666 -3.04637 0.0695304 -9.13455)
(-2.32086 18.7228 -2.15136 -1.7598 0.717678 0.193588)
(11.7864 6.4366 -0.856655 -9.94657 1.43062 -6.20709)
(232.617 109.687 -0.0402707 535.184 -0.355766 295.413)
(42.6884 80.3952 -0.133279 113.211 -0.144409 60.8623)
(-64.2546 68.8847 -0.145799 -126.238 -0.0767432 -77.653)
(-257.939 61.1266 -0.0518089 -489.409 0.0878296 -310.449)
(-56.0421 42.9176 -0.0965835 214.062 -0.530467 61.2113)
(-7.94746 89.3759 -0.353382 91.879 -0.183904 32.581)
(-27.4976 79.792 -0.378624 -101.569 0.0695037 -52.8057)
(1.10345 22.0338 -0.132916 -220.642 0.394232 -91.7647)
(-29.0297 44.9512 -0.162321 205.128 -0.674318 71.7226)
(-25.1967 76.6691 -0.478003 64.0974 -0.176817 16.3548)
(-15.7091 69.0022 -0.489527 -73.4955 0.258654 -36.1086)
(-19.1228 22.9778 -0.151135 -200.497 0.698625 -91.9165)
(-37.3181 37.6034 -0.189901 148.699 -0.728253 49.9879)
(-25.324 65.3455 -0.504365 47.8393 -0.144377 11.6041)
(-14.8845 59.0089 -0.493939 -54.8545 0.402462 -28.0992)
(-10.6197 19.3203 -0.132418 -144.673 0.916468 -66.7175)
(-37.2382 30.4162 -0.188606 104.373 -0.714856 36.2441)
(-24.8181 53.8995 -0.475763 33.3975 -0.104039 7.80411)
(-13.7413 49.4218 -0.450106 -38.0966 0.48728 -20.9561)
(-9.16752 17.0765 -0.0985965 -99.8734 1.03416 -49.5038)
(-37.8247 22.3893 -0.18406 67.1982 -0.651364 24.7407)
(-24.0504 42.5856 -0.449996 21.4601 -0.0676175 5.07977)
(-12.5615 40.3224 -0.415647 -24.4218 0.500137 -14.974)
(-6.66365 14.8007 -0.0762157 -61.8742 1.03656 -34.7168)
(-36.4223 13.9598 -0.213107 43.5188 -0.535333 18.9141)
(-25.484 31.706 -0.499067 10.7468 -0.036796 1.95911)
(-10.4948 31.2863 -0.46612 -13.6486 0.424421 -9.33368)
(-2.16449 11.8261 -0.102811 -32.899 0.888624 -22.1251)
(-50.6577 10.6531 -0.345971 19.4753 -0.265694 5.61132)
(-43.0844 20.7941 -0.726789 -2.76803 0.0251817 -8.86785)
(-2.33855 18.8027 -0.729156 -1.53925 0.238496 0.316088)
(11.8427 6.48179 -0.292674 -9.79457 0.471269 -6.26725)
)
;

boundaryField
{
    interface
    {
        type            calculated;
        value           nonuniform List<symmTensor> 
192
(
(-29.4017 27.9845 5.79846 580.48 57.3948 157.919)
(-30.2872 13.1134 3.96822 269.425 -18.9254 27.4969)
(-29.8505 17.1232 4.73199 269.806 -12.2424 54.2343)
(-30.0814 14.1111 4.46838 193.611 -16.4753 41.0783)
(-30.5986 10.7641 4.42883 135.398 -14.9247 35.5232)
(-31.3787 6.80551 4.3422 85.0344 -12.6954 28.8422)
(-32.024 3.34387 4.06499 53.83 -9.84124 26.517)
(-30.4176 0.114431 3.42726 36.7118 -4.86034 27.6492)
(-32.7621 29.1557 3.78055 568.835 33.3636 166.483)
(-34.2436 14.6515 2.99335 296.551 -8.73117 49.9058)
(-34.706 16.7846 2.77169 266.529 -17.6706 53.0984)
(-35.4665 14.0072 2.45531 193.15 -21.1071 42.6626)
(-36.2243 10.4653 2.28476 132.192 -20.3816 35.9421)
(-36.8269 6.45771 2.19522 82.2769 -17.4366 30.4108)
(-36.5289 2.72173 2.06538 51.6186 -12.936 29.0458)
(-31.968 -0.705402 1.77302 37.2103 -6.3565 32.145)
(-34.6728 30.2675 2.16689 574.345 15.0202 179.168)
(-36.1687 14.562 1.97652 293.062 -6.31569 66.7877)
(-36.7312 16.595 1.71225 266.675 -13.6164 63.49)
(-37.5601 13.8278 1.39936 193.607 -16.8198 47.2503)
(-38.2758 10.2472 1.20614 132.477 -16.7481 35.9622)
(-38.6209 6.19194 1.11525 82.848 -14.6025 27.5032)
(-37.6753 2.34669 1.04895 53.0423 -10.9932 24.6271)
(-31.6808 -1.21997 0.965491 38.3074 -5.28035 26.4953)
(-35.9659 30.5865 1.19797 575.794 4.88288 187.045)
(-37.3787 14.3856 1.30039 290.675 -5.46883 80.2277)
(-37.9037 16.4485 1.11427 267.27 -9.98275 75.2005)
(-38.6955 13.7364 0.882999 195.525 -12.1561 55.4475)
(-39.3204 10.1843 0.721935 134.993 -12.2771 40.5984)
(-39.4433 6.11704 0.636344 85.7564 -10.933 29.3589)
(-38.0702 2.20687 0.584192 56.3831 -8.51419 24.6855)
(-31.2232 -1.41164 0.551302 41.3583 -4.3308 25.5581)
(-36.8528 30.4873 0.648678 574.27 0.185153 190.755)
(-38.2024 14.214 0.84402 289.314 -4.64567 88.4978)
(-38.6777 16.3106 0.724124 267.795 -7.21872 83.4179)
(-39.4201 13.664 0.572171 197.224 -8.45811 62.0975)
(-39.9647 10.1518 0.457009 137.354 -8.53109 45.188)
(-39.9137 6.08272 0.38646 88.4357 -7.72642 32.1275)
(-38.2494 2.1247 0.341371 59.2453 -6.21294 26.2317)
(-30.8272 -1.52647 0.324967 43.9336 -3.26391 26.3354)
(-37.4618 30.2531 0.341461 571.814 -1.42024 192.201)
(-38.7643 14.0686 0.525873 288.497 -3.55736 93.1859)
(-39.1983 16.1966 0.452142 268.255 -4.94698 88.5216)
(-39.9042 13.6075 0.357937 198.54 -5.58252 66.6221)
(-40.3858 10.1273 0.281846 139.146 -5.58899 48.7024)
(-40.2036 6.05812 0.23126 90.4358 -5.11724 34.6743)
(-38.3415 2.06551 0.195632 61.318 -4.2149 28.1148)
(-30.5294 -1.59669 0.18398 45.9204 -2.27531 27.8927)
(-37.8464 30.0389 0.162045 569.663 -1.37299 192.61)
(-39.1265 13.964 0.285551 287.986 -2.23063 95.5994)
(-39.5307 16.1142 0.245135 268.57 -2.90705 91.3448)
(-40.1989 13.5652 0.192718 199.422 -3.19477 69.2991)
(-40.6129 10.1074 0.14921 140.33 -3.17574 50.9617)
(-40.374 6.03842 0.119801 91.7061 -2.92559 36.4652)
(-38.3907 2.02156 0.0948224 62.6042 -2.44842 29.5932)
(-30.3387 -1.64105 0.0836505 47.1834 -1.35216 29.2563)
(-38.0228 29.9164 0.0467188 568.463 -0.535076 192.673)
(-39.2867 13.9087 0.089138 287.743 -0.759211 96.6144)
(-39.6848 16.0703 0.0761252 268.731 -0.960878 92.5851)
(-40.3159 13.5421 0.0590168 199.876 -1.04228 70.5377)
(-40.6999 10.096 0.0450817 140.922 -1.032 52.0551)
(-40.4448 6.02441 0.0354574 92.3217 -0.953417 37.3746)
(-38.3832 1.99187 0.0255107 63.2269 -0.80517 30.3987)
(-30.2022 -1.65669 0.0194143 47.8051 -0.453552 30.0458)
(48.9814 89.3979 -2.82739 360.009 4.60222 -14.7218)
(-94.7858 44.3684 -6.52392 143.875 -2.10599 -10.2499)
(-61.6249 58.0667 -8.10326 162.291 -1.88209 -6.68645)
(-62.6042 51.4789 -9.00428 111.627 -1.51342 -4.48582)
(-55.6542 44.6983 -9.63344 75.8958 -1.09572 -3.33531)
(-52.7997 34.7707 -10.1295 43.3432 -0.918539 -3.07878)
(-51.5618 23.8753 -10.6365 22.0363 -1.1028 -3.74787)
(-61.5535 14.9672 -11.6314 4.4697 -1.49074 -5.35413)
(-5.1174 62.8559 -2.54247 71.2433 -0.562334 -13.4141)
(-43.3639 90.7874 -4.95781 42.9396 -2.06205 -11.2733)
(-41.2449 95.2922 -5.96 41.5847 -1.71931 -9.07755)
(-38.7214 88.2038 -6.56605 26.1267 -1.10053 -7.6002)
(-35.5759 76.8592 -6.99226 14.3459 -0.495917 -6.82484)
(-34.1991 62.2243 -7.37498 4.03813 -0.0990682 -6.65875)
(-34.6959 45.9361 -7.87154 -3.13434 0.0218928 -7.06018)
(-45.9027 27.0958 -9.10179 -8.71726 -0.0537182 -7.73525)
(-30.0453 52.7801 -2.73242 -108.848 -0.0658248 -12.4196)
(12.3 82.3304 -4.87979 -59.7973 -1.67923 -11.4601)
(10.0805 87.2418 -5.72915 -61.0163 -1.40976 -10.054)
(9.13285 81.3671 -6.06385 -48.0776 -0.803567 -9.03458)
(6.2336 71.5215 -6.31374 -37.828 -0.151713 -8.51855)
(3.4701 58.8092 -6.58949 -28.2199 0.345195 -8.44277)
(0.966691 43.8959 -7.02271 -20.6522 0.627847 -8.78086)
(3.9123 23.8723 -8.15744 -10.7848 0.684749 -9.44098)
(-81.2931 50.2004 -3.11914 -346.05 5.58965 -11.0601)
(57.9166 23.6348 -5.28867 -148.144 -1.24633 -10.0933)
(27.4508 34.4623 -6.00496 -164.326 -1.14022 -8.62998)
(28.8729 31.5333 -6.32246 -117.779 -0.678174 -7.59599)
(22.3522 29.2425 -6.50047 -84.5483 -0.00681649 -7.07193)
(18.8015 24.7033 -6.69675 -53.7396 0.561312 -6.92935)
(16.924 18.164 -7.04244 -31.8454 0.98698 -7.10875)
(23.4521 8.19951 -8.07339 -13.7053 1.33736 -7.84301)
(-7.24136 -19.9603 -1.24305 -488.724 -46.3551 -173.844)
(-4.27359 -10.0259 2.30931 -252.405 13.4788 -39.9093)
(-2.51459 -13.4965 2.40556 -243.928 7.96798 -58.0155)
(-1.25147 -11.2884 2.97663 -174.175 12.9911 -39.8511)
(-0.465072 -8.88122 3.17858 -120.713 12.8541 -32.3922)
(0.299973 -6.16404 3.33408 -74.5999 11.9766 -25.9654)
(1.87845 -4.50465 3.49068 -43.2283 9.75713 -23.7737)
(6.45081 -5.3002 3.47872 -24.223 4.09327 -23.781)
(-9.61773 -20.8286 -1.33213 -478.488 -30.2481 -183.061)
(-8.65227 -11.658 0.587378 -283.046 4.34663 -66.3746)
(-8.16378 -13.2317 1.27979 -247.124 14.1571 -61.3861)
(-7.62906 -11.0765 1.75235 -179.888 19.2244 -47.2104)
(-7.09256 -8.3971 2.00202 -123.655 20.3135 -39.1081)
(-6.2409 -5.60375 2.11352 -77.1226 18.9798 -33.6388)
(-4.09027 -3.75259 2.12722 -44.3737 15.3173 -31.0846)
(2.82463 -4.81736 2.05459 -24.7049 7.86346 -29.9284)
(-11.1104 -21.5685 -0.726377 -483.794 -15.3171 -198.361)
(-10.6668 -11.8012 0.390815 -283.566 3.45587 -87.8234)
(-10.6174 -13.1813 0.996198 -249.989 11.4924 -77.5183)
(-10.2624 -10.9416 1.43295 -182.717 16.1938 -58.0296)
(-9.675 -8.1442 1.69635 -125.609 17.7943 -45.1491)
(-8.55938 -5.26741 1.8114 -78.3483 17.0603 -35.9153)
(-5.9627 -3.31182 1.79043 -44.8322 14.1063 -30.1466)
(2.02548 -4.3101 1.55886 -22.7861 7.13694 -24.1089)
(-12.022 -21.6132 -0.262428 -484.92 -6.56507 -207.352)
(-11.6915 -11.7153 0.435061 -282.908 3.48047 -103.66)
(-11.7678 -13.0609 0.911291 -250.894 8.79033 -91.7061)
(-11.4307 -10.8043 1.25442 -184.2 12.2529 -68.6788)
(-10.7304 -7.97228 1.4758 -126.977 13.7527 -51.8491)
(-9.36444 -5.05607 1.57417 -79.3258 13.4944 -39.0721)
(-6.38907 -3.05211 1.54016 -45.1345 11.4121 -30.1133)
(2.11185 -4.06799 1.27959 -22.0755 5.91232 -20.8215)
(-12.6081 -21.337 -0.0222716 -483.215 -2.07101 -211.6)
(-12.3135 -11.5623 0.422149 -282.147 3.24151 -113.619)
(-12.4164 -12.9005 0.774754 -250.949 6.57102 -101.47)
(-12.0555 -10.6599 1.02023 -184.782 8.86176 -76.7523)
(-11.2572 -7.82836 1.18059 -127.69 9.98671 -57.5101)
(-9.70977 -4.89885 1.24916 -79.8397 9.93769 -42.2383)
(-6.48148 -2.87405 1.20971 -45.2065 8.53433 -30.9173)
(2.33696 -3.91866 0.983945 -21.552 4.46971 -19.3265)
(-12.9734 -20.9961 0.0675222 -480.657 -0.113398 -213.306)
(-12.694 -11.4083 0.344325 -281.367 2.61656 -119.458)
(-12.791 -12.748 0.58657 -250.668 4.60841 -107.554)
(-12.3982 -10.5331 0.749321 -184.9 6.01831 -82.1155)
(-11.5261 -7.71232 0.854263 -127.938 6.7552 -61.5628)
(-9.85748 -4.78246 0.896264 -80.0016 6.76244 -44.7899)
(-6.46882 -2.7517 0.861405 -45.123 5.85795 -31.9822)
(2.55206 -3.82977 0.69288 -21.2241 3.09495 -19.0532)
(-13.1834 -20.7207 0.0692874 -478.442 0.410911 -213.839)
(-12.911 -11.2895 0.221579 -280.719 1.68993 -122.616)
(-12.9962 -12.6329 0.362736 -250.334 2.74623 -110.999)
(-12.5781 -10.4409 0.45528 -184.843 3.50572 -85.2911)
(-11.6575 -7.6311 0.514017 -127.972 3.91393 -64.0864)
(-9.91388 -4.70455 0.536394 -79.9976 3.92439 -46.5026)
(-6.42606 -2.67526 0.513309 -44.9898 3.41211 -32.8573)
(2.71506 -3.77904 0.405814 -20.9976 1.81096 -19.2082)
(-13.2806 -20.5717 0.0271776 -477.202 0.210537 -213.946)
(-13.0119 -11.2266 0.075639 -280.354 0.583023 -123.988)
(-13.0916 -12.5723 0.121772 -250.126 0.913635 -112.543)
(-12.6609 -10.3929 0.151694 -184.779 1.15313 -86.7555)
(-11.7174 -7.58916 0.170518 -127.956 1.28317 -65.2864)
(-9.93781 -4.66485 0.177608 -79.9684 1.28669 -47.3543)
(-6.39314 -2.64187 0.169709 -44.8988 1.11991 -33.3321)
(2.77957 -3.7585 0.131108 -20.8942 0.595771 -19.3907)
(-67.7125 16.3845 -4.88852 -4.13363 -0.901098 -7.37388)
(-61.2142 15.542 -1.95694 -0.836097 -0.811405 -1.73469)
(-61.2134 15.7134 -2.42297 1.71845 -0.46413 -4.7942)
(-61.1986 15.9656 -2.63784 3.75516 -0.235225 -5.41968)
(-61.6514 16.2224 -2.51302 5.29992 -0.106708 -5.28559)
(-62.0139 16.4214 -2.00813 6.4112 -0.04805 -4.52105)
(-62.2573 16.5557 -1.28912 7.11841 -0.0317806 -3.75429)
(-62.4157 16.6169 -0.445726 7.3764 -0.0160284 -3.34694)
(-54.8604 12.1908 -7.83781 -7.27594 0.744789 -16.2821)
(-50.1743 10.8778 -6.71394 -5.65803 0.636619 -15.0432)
(-49.8847 10.7558 -6.37205 -3.88456 0.664559 -13.8888)
(-50.5166 10.8699 -6.14722 -2.37606 0.639917 -12.7778)
(-51.2284 11.0083 -5.43654 -1.20915 0.546939 -11.951)
(-51.7497 11.1214 -4.20919 -0.356139 0.411254 -11.2485)
(-52.0596 11.2036 -2.64394 0.215134 0.252908 -10.7263)
(-52.1717 11.2577 -0.900202 0.53293 0.0850159 -10.4248)
(3.88612 7.29589 -7.68165 -9.67111 1.25477 -7.24633)
(-0.237104 6.5406 -7.76184 -8.51098 1.16244 -8.92759)
(-1.52966 6.46498 -7.39016 -7.27537 1.0705 -5.65737)
(-2.36468 6.54356 -6.79995 -6.20736 0.933951 -3.11519)
(-2.77935 6.63056 -5.81599 -5.36254 0.756157 -1.46447)
(-2.97139 6.70035 -4.42122 -4.736 0.553573 -0.54923)
(-3.0504 6.74859 -2.7506 -4.31598 0.340338 -0.0870618)
(-3.06666 6.77484 -0.932555 -4.08144 0.116227 0.113064)
(26.0763 5.80514 -4.41961 -8.54438 1.44011 -9.5143)
(20.1861 5.33743 -3.70198 -7.34707 1.11367 -13.5602)
(19.6089 5.25807 -3.72815 -6.45032 0.945079 -7.20384)
(19.2916 5.32249 -3.35779 -5.65682 0.785733 -3.24589)
(19.4793 5.37704 -2.8568 -5.00552 0.621129 -0.923094)
(19.6851 5.42197 -2.15908 -4.51638 0.446817 0.0449085)
(19.8462 5.45111 -1.34323 -4.19133 0.270765 0.354809)
(19.9228 5.45903 -0.45697 -4.02792 0.0914297 0.411082)
)
;
    }
    symmetry
    {
        type            symmetryPlane;
    }
    bottom
    {
        type            calculated;
        value           nonuniform List<symmTensor> 
32
(
(269.673 111.761 6.23505 409.923 118.853 270.44)
(264.021 121.812 3.2753 399.214 57.0489 258.561)
(269.889 125.783 1.54998 408.002 26.2388 262.782)
(272.611 126.187 0.640403 412.349 10.8253 265.201)
(273.117 125.376 0.207025 413.332 3.52358 265.757)
(272.759 124.382 0.0278829 412.946 0.478291 265.508)
(272.239 123.608 -0.0223503 412.255 -0.385684 265.076)
(271.909 123.195 -0.0131536 411.8 -0.227702 264.793)
(51.6285 45.5248 0.812847 76.2811 33.0182 51.0973)
(53.226 56.3917 0.507226 77.8003 16.6446 51.6572)
(56.1054 56.6749 0.232177 82.1627 7.59584 54.4042)
(57.321 54.7633 0.0884818 84.1929 2.99857 55.7099)
(57.8721 52.7602 0.0245388 85.2117 0.863576 56.3733)
(58.1433 51.1959 0.000557326 85.7599 0.020218 56.732)
(58.2798 50.1681 -0.00483415 86.0544 -0.178984 56.9249)
(58.3382 49.6635 -0.00233012 86.1851 -0.0871546 57.0105)
(-72.5384 38.0518 -0.82946 -108.938 -36.9496 -72.5872)
(-67.2445 48.3845 -0.601134 -101.923 -21.1319 -68.3583)
(-68.5839 47.9728 -0.331609 -103.864 -11.7463 -69.8571)
(-69.1568 45.6269 -0.167102 -104.52 -6.22155 -70.3595)
(-69.146 43.3659 -0.0782481 -104.332 -3.06554 -70.2474)
(-68.88 41.6444 -0.0333775 -103.815 -1.36204 -69.8995)
(-68.5899 40.5238 -0.0123473 -103.309 -0.517923 -69.5559)
(-68.4132 39.976 -0.00295639 -103.011 -0.125727 -69.3532)
(-272.424 73.773 -5.29473 -397.863 -104.617 -268.649)
(-261.275 80.9925 -3.02622 -383.681 -54.9163 -263.686)
(-267.231 81.9183 -1.54872 -392.206 -27.66 -271.295)
(-269.565 80.702 -0.718336 -395.299 -13.0012 -273.908)
(-269.44 79.0826 -0.293147 -394.894 -5.41568 -273.701)
(-268.406 77.677 -0.0956711 -393.254 -1.8011 -272.53)
(-267.344 76.6928 -0.0191435 -391.638 -0.365348 -271.363)
(-266.716 76.1921 -0.000663674 -390.693 -0.012756 -270.68)
)
;
    }
}


// ************************************************************************* //
