/*--------------------------------*- C++ -*----------------------------------*\
| =========                 |                                                 |
| \\      /  F ield         | foam-extend: Open Source CFD                    |
|  \\    /   O peration     | Version:     3.1                                |
|   \\  /    A nd           | Web:         http://www.extend-project.de       |
|    \\/     M anipulation  |                                                 |
\*---------------------------------------------------------------------------*/
FoamFile
{
    version     2.0;
    format      ascii;
    class       volSymmTensorField;
    location    "1.4";
    object      sigma;
}
// * * * * * * * * * * * * * * * * * * * * * * * * * * * * * * * * * * * * * //

dimensions      [1 -1 -2 0 0 0 0];

internalField   nonuniform List<symmTensor> 
256
(
(225.837 81.8785 -3.74404 515.202 39.251 262.243)
(29.2331 70.0423 -10.8991 104.137 14.1391 40.2896)
(-69.6503 65.2436 -11.2337 -139.882 -19.0252 -69.9994)
(-255.809 68.4818 -4.54592 -525.622 -46.1914 -277.44)
(-100.375 33.6778 -4.72304 153.886 -13.8201 -29.9643)
(-42.9793 88.0913 -17.6707 57.2836 -5.70169 -13.8214)
(-2.24173 86.4892 -18.4516 -67.3951 3.79478 -5.84169)
(50.9834 33.067 -6.51391 -167.412 11.5736 8.86307)
(-38.4074 40.1851 -2.64333 189.292 -7.50088 30.432)
(-43.9914 83.9984 -12.9542 51.9867 -2.64929 -7.70015)
(-7.91872 84.2562 -13.5552 -60.1265 1.13689 -11.8759)
(-7.22721 40.9422 -4.26393 -193.134 6.13092 -43.0707)
(-52.2411 34.6808 -2.8298 128.775 -10.3578 12.5674)
(-44.3241 75.8869 -11.2541 36.2566 -3.16902 -9.15659)
(-6.42718 76.4686 -11.7381 -42.2166 2.32182 -7.40335)
(7.62176 35.8476 -4.50436 -129.614 9.66636 -21.8536)
(-47.349 29.8986 -2.47357 90.4667 -9.4072 12.2115)
(-40.9129 65.0964 -9.56788 24.1376 -2.65281 -7.64658)
(-7.48065 65.8526 -10.022 -29.8538 2.31057 -7.10064)
(4.49467 31.2815 -4.11214 -90.2887 9.28865 -19.5658)
(-47.1844 23.0998 -2.59304 53.8896 -8.13114 7.84647)
(-38.4372 52.343 -8.57738 12.5519 -2.23397 -7.47299)
(-7.50124 53.4791 -8.90585 -19.731 2.20185 -6.73388)
(5.5984 25.1493 -4.00125 -54.8606 8.5193 -15.199)
(-45.1811 14.982 -3.18625 30.6651 -6.62685 7.55454)
(-37.3671 38.3787 -8.09556 3.10265 -2.10431 -7.70076)
(-7.02649 39.7712 -8.15261 -12.9439 1.82969 -7.33747)
(6.84085 18.1219 -4.01042 -31.1032 7.01309 -14.2864)
(-58.3597 8.52408 -3.96789 8.68904 -3.26516 -0.402799)
(-51.635 21.9773 -7.80481 -10.0503 -1.1033 -16.4549)
(2.63221 22.1173 -7.83987 -2.57531 0.727632 -2.91157)
(18.2729 9.28101 -4.43486 -11.901 2.99957 -10.0863)
(226.757 90.558 -2.39022 508.834 23.0728 271.979)
(35.2443 81.0586 -8.72574 106.245 7.7902 48.1377)
(-66.2985 76.6654 -9.46758 -129.054 -13.0034 -68.4238)
(-248.723 77.2892 -3.97236 -506.798 -30.0238 -277.464)
(-59.1889 33.4493 -3.77594 207.753 -6.26391 19.87)
(-15.5291 88.7808 -16.5072 87.4709 -3.04807 13.9303)
(-29.7274 87.6964 -18.0349 -99.5984 0.236889 -33.3734)
(6.5892 33.6493 -7.03816 -225.537 3.30222 -41.4539)
(-31.2328 34.577 -2.35182 195.264 -12.0484 37.2262)
(-30.8155 75.7711 -13.9752 61.7085 -4.25164 2.00226)
(-18.4463 76.004 -15.5008 -68.8589 3.18492 -19.5629)
(-14.9066 35.0942 -5.88611 -199.572 11.1038 -48.6681)
(-39.1361 28.3821 -1.32382 139.94 -14.2962 24.8959)
(-30.5117 65.1748 -10.9849 46.334 -4.4166 0.814278)
(-17.1273 65.6185 -12.4974 -50.1029 4.59638 -15.5816)
(-5.90937 29.3052 -5.05081 -140.234 14.7335 -33.2898)
(-37.7972 23.2785 -0.310195 96.7331 -13.8653 20.7309)
(-29.464 54.1146 -8.51357 31.5676 -3.95328 -0.187126)
(-15.4477 54.723 -9.99627 -34.0528 5.06413 -12.6197)
(-5.44685 24.4983 -4.01977 -95.2761 15.3847 -27.3511)
(-37.8835 17.3236 0.168944 59.6996 -11.9148 16.4747)
(-28.2293 42.8092 -6.78343 18.8802 -3.19451 -1.04893)
(-13.9644 43.8132 -8.10265 -21.978 4.83088 -10.9339)
(-3.78252 19.3424 -3.22778 -58.4747 14.2312 -22.8194)
(-37.1517 10.4765 -0.00360321 34.9121 -8.9545 14.9961)
(-29.1612 31.3388 -5.91313 7.44817 -2.42953 -3.1257)
(-11.6712 32.7182 -6.92988 -13.1722 3.88982 -9.8159)
(-0.344627 13.9559 -2.67869 -31.8951 11.4225 -19.8991)
(-50.2382 6.4823 -0.871955 13.605 -4.33275 6.73703)
(-44.7685 18.7076 -6.13857 -6.43681 -1.10111 -13.2873)
(-2.51611 18.8716 -7.20717 -3.69977 1.99123 -5.85873)
(10.554 7.56425 -3.24019 -13.941 5.84037 -16.2003)
(232.835 93.4334 -1.61905 517.688 10.4888 287.715)
(37.7983 82.5776 -5.54811 110.113 3.14371 54.7189)
(-67.3997 77.8749 -6.1191 -129.385 -7.5133 -72.6463)
(-254.969 79.0994 -2.72652 -513.522 -15.7649 -292.474)
(-59.474 33.3647 -3.08563 209.315 -4.5388 36.4045)
(-13.9513 88.6253 -11.2624 91.5457 -2.28774 23.0172)
(-32.7164 87.5428 -12.4501 -102.478 -0.142414 -41.8203)
(2.58637 33.4812 -5.37871 -228.939 2.31896 -61.058)
(-31.8434 33.4843 -2.59194 198.169 -9.50861 48.2321)
(-30.4669 73.9838 -10.6239 64.9853 -3.41615 8.21343)
(-20.9299 74.1996 -11.8223 -71.3275 2.76475 -25.5303)
(-18.8018 33.7916 -4.9764 -204.088 9.10564 -63.2818)
(-39.9202 26.9196 -1.81241 142.065 -11.7237 31.0647)
(-30.2487 61.9395 -8.75652 48.9159 -3.64446 5.18205)
(-19.6349 62.3798 -9.91427 -51.4971 4.42894 -19.5391)
(-10.2308 27.793 -4.19839 -144.042 12.7777 -43.4984)
(-39.473 21.513 -1.01552 97.7993 -11.6877 22.7231)
(-29.2465 50.5147 -6.7796 33.8828 -3.25405 2.92468)
(-17.8154 51.1856 -7.87602 -34.7277 5.15044 -15.0513)
(-8.86633 22.8712 -3.2927 -97.5305 13.9354 -33.2083)
(-39.7434 15.5962 -0.512936 60.3664 -10.1772 15.8227)
(-27.911 39.5276 -5.28472 20.9963 -2.54247 1.20235)
(-16.0298 40.7088 -6.23698 -21.9186 5.08819 -12.0448)
(-6.56246 18.019 -2.5134 -59.5375 13.2484 -25.375)
(-38.5068 8.91572 -0.520659 35.8189 -7.63047 12.9089)
(-28.6412 28.9394 -4.62422 9.3967 -1.75807 -1.48684)
(-13.3012 30.6319 -5.38434 -12.4727 4.1738 -9.62309)
(-2.37118 13.1619 -2.066 -31.8419 10.8197 -19.5192)
(-52.1263 5.76717 -1.37476 13.2973 -3.49938 2.50813)
(-44.3253 17.6691 -5.40898 -4.69355 -0.627343 -12.0731)
(-3.52676 18.0588 -6.33453 -2.15555 2.01422 -3.49593)
(10.8933 7.38625 -2.93914 -11.0894 5.3355 -10.6975)
(235.203 93.7536 -0.91682 521.281 3.62694 296.365)
(38.4848 81.6757 -3.27165 111.799 0.811463 58.0704)
(-67.9915 76.6533 -3.63199 -129.296 -4.04808 -75.2575)
(-257.149 78.6035 -1.63154 -515.038 -7.28132 -300.55)
(-60.2473 32.9454 -1.9352 209.263 -3.81545 47.8365)
(-14.6434 87.9607 -7.08078 92.7267 -1.77452 27.7022)
(-33.6082 86.8233 -7.84766 -102.142 -0.0149335 -46.5843)
(1.03475 33.0441 -3.45105 -228.757 2.30296 -74.1964)
(-32.4175 33.1859 -1.93258 199.979 -6.96742 58.2805)
(-31.7788 73.3984 -7.3419 66.2366 -2.44199 11.858)
(-21.9408 73.6305 -8.11399 -71.3101 2.19738 -29.6544)
(-20.3432 33.4716 -3.47222 -205.062 6.98724 -74.8327)
(-40.5434 26.5569 -1.55817 144.423 -8.5154 38.2927)
(-31.5565 61.1826 -6.43834 50.2568 -2.54807 7.84073)
(-20.8334 61.6706 -7.14906 -51.4562 3.62541 -22.6283)
(-11.8781 27.5008 -3.02945 -145.365 9.82503 -52.2077)
(-40.0212 21.0806 -1.05734 100.423 -8.60617 27.2129)
(-30.389 49.6756 -5.19362 35.366 -2.24202 4.76541)
(-19.06 50.4465 -5.83348 -34.5527 4.34815 -17.0416)
(-10.4337 22.6277 -2.39934 -98.6921 10.9799 -38.8389)
(-40.0882 15.1248 -0.705426 63.1494 -7.6394 18.172)
(-28.7812 38.7661 -4.18665 22.5893 -1.72635 2.47976)
(-17.126 40.1214 -4.71445 -21.4688 4.39243 -12.9154)
(-7.93685 17.8956 -1.82794 -60.3051 10.6819 -28.2254)
(-38.3131 8.43299 -0.744929 38.8706 -5.88722 13.9453)
(-29.1829 28.4357 -3.88558 11.0344 -1.1782 -0.493319)
(-14.1542 30.3617 -4.29483 -11.706 3.63854 -9.29979)
(-3.46295 13.1945 -1.56458 -32.0338 8.87854 -19.796)
(-51.9008 5.59036 -1.63447 15.8394 -2.84441 2.43795)
(-44.8301 17.5064 -5.02432 -3.11593 -0.418987 -11.0609)
(-4.34495 18.0167 -5.5868 -1.24371 1.76044 -1.80833)
(10.4025 7.50125 -2.51752 -10.4457 4.44783 -8.10521)
(235.251 93.1693 -0.462103 521.343 0.417283 299.99)
(38.6377 80.2101 -1.81782 112.569 -0.177437 59.7533)
(-68.0743 74.9528 -2.03157 -128.56 -2.01201 -76.5421)
(-256.726 77.4498 -0.903706 -512.953 -2.77048 -303.587)
(-60.9386 32.4149 -1.07689 209.038 -3.16207 54.6234)
(-15.2887 86.9806 -4.1938 93.3826 -1.34455 30.2843)
(-34.1015 85.8058 -4.66466 -101.198 0.131331 -49.5058)
(0.0974934 32.5462 -2.0411 -227.925 2.18134 -82.3898)
(-33.2262 32.9377 -1.24795 200.875 -4.98153 64.8214)
(-32.7725 72.9564 -4.74164 67.0873 -1.66328 14.0828)
(-22.5974 73.2234 -5.21917 -70.6579 1.67655 -32.5129)
(-20.9844 33.2693 -2.21234 -204.736 5.2121 -82.5457)
(-41.3236 26.4562 -1.1258 146.03 -5.89048 43.5751)
(-32.5402 61.0301 -4.41674 51.3323 -1.65679 9.60517)
(-21.5761 61.5744 -4.83724 -50.9399 2.74762 -24.9671)
(-12.6042 27.4995 -2.01166 -145.541 7.15819 -58.5676)
(-40.6674 21.0306 -0.868196 102.483 -5.95388 30.9578)
(-31.2348 49.667 -3.74435 36.6368 -1.42157 6.08902)
(-19.7917 50.5229 -4.10367 -34.0525 3.33744 -18.6586)
(-11.1376 22.7456 -1.64186 -99.0228 8.06057 -43.326)
(-40.5249 15.066 -0.681755 65.4334 -5.37283 20.5773)
(-29.4009 38.8372 -3.17668 23.9905 -1.08551 3.51404)
(-17.7424 40.3167 -3.45453 -20.885 3.4062 -13.7151)
(-8.51852 18.0962 -1.29596 -60.5092 7.94993 -30.7655)
(-38.3708 8.32962 -0.78536 41.2904 -4.26379 15.4981)
(-29.5879 28.5713 -3.15521 12.4344 -0.754298 0.415225)
(-14.6145 30.6414 -3.35727 -10.9987 2.82915 -9.20875)
(-3.83947 13.4383 -1.20035 -31.9108 6.68607 -20.434)
(-52.1721 5.58781 -1.62761 17.6696 -2.11861 3.01471)
(-45.4104 17.6526 -4.3629 -1.94586 -0.26594 -10.2748)
(-4.72145 18.2088 -4.67784 -0.420619 1.35772 -0.702019)
(10.5143 7.67035 -2.09859 -9.75421 3.36599 -6.65954)
(234.514 92.4137 -0.200146 520.118 -0.733284 301.164)
(38.6244 78.8707 -0.944033 112.938 -0.4546 60.5729)
(-67.8921 73.4519 -1.06522 -127.605 -0.895535 -77.0514)
(-255.419 76.3109 -0.463473 -509.807 -0.663626 -304.182)
(-61.3175 31.92 -0.527472 208.915 -2.38503 58.4958)
(-15.7302 86.0044 -2.32369 93.8392 -0.947396 31.6608)
(-34.3707 84.8056 -2.60071 -100.207 0.190237 -51.2305)
(-0.565134 32.0954 -1.11889 -227.031 1.79206 -87.2692)
(-33.799 32.6892 -0.712716 201.473 -3.37207 68.8011)
(-33.4012 72.5142 -2.84447 67.747 -1.07157 15.3707)
(-23.0288 72.8127 -3.12866 -69.9206 1.19059 -34.3793)
(-21.3163 33.0759 -1.29982 -204.097 3.64479 -87.3532)
(-41.8714 26.3866 -0.709771 147.19 -3.85154 47.0674)
(-33.1638 60.9548 -2.79794 52.1774 -1.01447 10.6994)
(-22.0297 61.5442 -3.03913 -50.3254 1.91482 -26.5767)
(-12.9717 27.517 -1.23321 -145.303 4.87282 -62.7784)
(-41.1189 21.0472 -0.602154 103.995 -3.86988 33.6952)
(-31.7597 49.8019 -2.48562 37.6336 -0.845266 6.98679)
(-20.2079 50.7193 -2.6821 -33.488 2.33073 -19.826)
(-11.4698 22.8884 -1.04318 -98.948 5.4804 -46.4904)
(-40.8185 15.0985 -0.527004 67.1112 -3.53199 22.6114)
(-29.7709 39.0664 -2.21641 25.0694 -0.641764 4.29529)
(-18.0665 40.6294 -2.35851 -20.3123 2.38541 -14.338)
(-8.77211 18.3088 -0.861739 -60.4192 5.43721 -32.7389)
(-38.4183 8.32263 -0.650929 43.0232 -2.86836 17.0749)
(-29.828 28.8157 -2.33208 13.4785 -0.458098 1.16022)
(-14.8345 30.977 -2.42714 -10.3982 1.97888 -9.23219)
(-3.95978 13.6624 -0.859988 -31.6653 4.60116 -21.1924)
(-52.3088 5.60767 -1.32603 19.1078 -1.46203 4.11102)
(-45.8058 17.8249 -3.35306 -1.0786 -0.163358 -9.59557)
(-4.88387 18.4018 -3.52429 0.212983 0.945363 -0.0998995)
(10.6251 7.79697 -1.57583 -9.30399 2.32801 -6.23585)
(233.736 91.8085 -0.0715765 518.817 -0.786388 301.336)
(38.5784 77.9125 -0.435645 113.118 -0.377351 60.9521)
(-67.6604 72.3924 -0.497205 -126.791 -0.338512 -77.1929)
(-254.166 75.4667 -0.210833 -507.085 0.066643 -303.902)
(-61.5165 31.5529 -0.222072 208.837 -1.48371 60.5281)
(-15.9961 85.2554 -1.13824 94.146 -0.564464 32.3493)
(-34.5004 84.0424 -1.28347 -99.4265 0.156671 -52.1723)
(-0.986982 31.7641 -0.541821 -226.303 1.17183 -89.9549)
(-34.1579 32.4859 -0.35157 201.851 -1.96371 70.9933)
(-33.7597 72.1452 -1.48847 68.2145 -0.601071 16.0612)
(-23.2864 72.4659 -1.63907 -69.3327 0.714911 -35.4876)
(-21.492 32.9156 -0.667696 -203.521 2.1673 -90.0938)
(-42.2085 26.3204 -0.38169 147.946 -2.18636 49.1131)
(-33.5176 60.8729 -1.52914 52.7673 -0.546466 11.3213)
(-22.2876 61.4925 -1.65344 -49.8261 1.12985 -27.5664)
(-13.1644 27.5125 -0.657177 -145.006 2.83899 -65.2866)
(-41.398 21.0568 -0.348037 104.969 -2.18326 35.4121)
(-32.0507 49.8977 -1.40928 38.3157 -0.444183 7.53755)
(-20.4297 50.8537 -1.50682 -33.0333 1.37278 -20.5655)
(-11.6277 22.98 -0.573875 -98.7667 3.1814 -48.4586)
(-41.0038 15.1297 -0.327601 68.1709 -2.00632 24.0003)
(-29.9678 39.2437 -1.3054 25.7907 -0.336166 4.81527)
(-18.2246 40.8568 -1.37211 -19.8722 1.40457 -14.752)
(-8.87608 18.452 -0.493059 -60.2494 3.16165 -34.0474)
(-38.4665 8.32999 -0.424821 44.0896 -1.65546 18.2472)
(-29.9503 28.9995 -1.4296 14.1619 -0.24597 1.68605)
(-14.9276 31.2132 -1.47066 -9.96598 1.16301 -9.28775)
(-3.97393 13.8095 -0.520373 -31.4238 2.68197 -21.8029)
(-52.4086 5.62709 -0.859481 20.0126 -0.862804 5.05475)
(-46.0388 17.9511 -2.09999 -0.515803 -0.0885677 -9.10191)
(-4.9376 18.5325 -2.18503 0.651159 0.555403 0.198943)
(10.7343 7.87268 -0.978979 -8.99032 1.36067 -6.21122)
(233.276 91.483 -0.0164524 518.043 -0.313716 301.263)
(38.5477 77.4215 -0.124667 113.194 -0.140775 61.0989)
(-67.5133 71.8523 -0.143425 -126.335 -0.08139 -77.2085)
(-253.441 75.0261 -0.0597548 -505.562 0.0939538 -303.583)
(-61.6002 31.36 -0.0592823 208.797 -0.503337 61.3898)
(-16.1201 84.8556 -0.338469 94.302 -0.18757 32.6313)
(-34.5498 83.6359 -0.383556 -99.0026 0.0596221 -52.5836)
(-1.191 31.5904 -0.160004 -225.899 0.406793 -91.1369)
(-34.3267 32.3723 -0.104952 202.036 -0.646133 71.9543)
(-33.9214 71.9363 -0.460277 68.4579 -0.193919 16.3582)
(-23.4055 72.2683 -0.507328 -69.0123 0.23873 -36.0006)
(-21.5688 32.8249 -0.204373 -203.192 0.720247 -91.3278)
(-42.3626 26.2783 -0.120097 148.322 -0.710143 50.048)
(-33.6759 60.8155 -0.484682 53.0707 -0.172505 11.6)
(-22.4037 61.4502 -0.522916 -49.5524 0.373572 -28.0343)
(-13.2489 27.5022 -0.205658 -144.822 0.933541 -66.4475)
(-41.5247 21.0579 -0.113891 105.447 -0.706678 36.231)
(-32.1783 49.9386 -0.45587 38.6611 -0.13831 7.79728)
(-20.5251 50.9126 -0.485262 -32.7848 0.453102 -20.9209)
(-11.6916 23.0206 -0.183056 -98.6409 1.04351 -49.393)
(-41.088 15.1441 -0.111349 68.6818 -0.651601 24.6958)
(-30.0513 39.3309 -0.431057 26.1498 -0.10458 5.07296)
(-18.2875 40.9669 -0.450475 -19.6357 0.463285 -14.9562)
(-8.91253 18.5198 -0.16084 -60.1348 1.03721 -34.6926)
(-38.4901 8.33418 -0.148239 44.5912 -0.542636 18.8602)
(-29.9992 29.0912 -0.481908 14.4983 -0.0777094 1.95564)
(-14.9587 31.3271 -0.493126 -9.73965 0.383271 -9.32553)
(-3.96559 13.8779 -0.174897 -31.2822 0.880394 -22.1348)
(-52.4472 5.64011 -0.29857 20.4453 -0.288647 5.58773)
(-46.1383 18.0172 -0.714452 -0.235647 -0.0284111 -8.84002)
(-4.95269 18.5945 -0.740143 0.874823 0.183688 0.316556)
(10.7902 7.90439 -0.333065 -8.83298 0.447496 -6.27509)
)
;

boundaryField
{
    interface
    {
        type            calculated;
        value           nonuniform List<symmTensor> 
192
(
(-33.0544 -0.108877 3.05447 535.79 48.0317 159.302)
(-31.9478 -0.212487 4.80975 257.749 -17.231 27.8052)
(-31.9938 -0.451475 5.51374 259.164 -10.5345 54.7706)
(-31.8454 -0.80126 5.7909 188.292 -14.8141 41.165)
(-31.9526 -1.28365 5.86673 132.983 -13.6862 35.4122)
(-32.2203 -1.99391 5.74693 84.1297 -11.8433 28.6276)
(-32.4018 -3.22394 5.34458 53.319 -9.23963 26.2729)
(-30.3301 -5.04472 4.38289 36.0924 -4.4505 27.4209)
(-36.8373 0.089877 2.09472 526.165 28.2883 168.595)
(-36.3068 -0.000328737 3.34378 282.961 -7.86932 50.6102)
(-36.9982 -0.268706 3.80572 255.905 -16.1931 53.5791)
(-37.405 -0.723237 3.96228 187.658 -19.7206 42.7523)
(-37.7109 -1.35575 3.95943 129.715 -19.334 35.8236)
(-37.7766 -2.28992 3.80075 81.2988 -16.7317 30.2003)
(-36.9528 -3.87232 3.43446 51.0097 -12.4651 28.8141)
(-31.8403 -5.96474 2.71379 36.4561 -6.05889 31.9176)
(-39.0811 0.127767 1.43353 531.368 12.714 181.477)
(-38.3655 0.0409852 2.28649 280.173 -5.74812 67.5125)
(-39.1225 -0.233874 2.56135 256.208 -12.5676 64.015)
(-39.5653 -0.735334 2.62054 188.093 -15.8167 47.4128)
(-39.7969 -1.45622 2.57451 129.919 -15.9813 35.9233)
(-39.5772 -2.5264 2.42732 81.7673 -14.089 27.3777)
(-38.0723 -4.30049 2.1607 52.3153 -10.6532 24.4819)
(-31.4783 -6.46815 1.69399 37.4446 -5.07364 26.3548)
(-40.5548 0.121369 1.00692 532.894 4.12007 189.276)
(-39.6674 0.0283098 1.61691 278.299 -5.0055 80.8844)
(-40.3789 -0.254218 1.79674 256.99 -9.22473 75.7033)
(-40.7656 -0.785344 1.8154 190.009 -11.4394 55.6335)
(-40.8864 -1.56427 1.76068 132.358 -11.7233 40.5985)
(-40.4231 -2.71976 1.63941 84.5823 -10.5576 29.2746)
(-38.4658 -4.60685 1.45076 55.5583 -8.26201 24.5774)
(-30.9928 -6.79397 1.13572 40.4145 -4.17789 25.4477)
(-41.5237 0.108985 0.701408 531.713 0.14371 192.876)
(-40.549 0.00509093 1.13667 277.234 -4.26181 89.0781)
(-41.2095 -0.288134 1.25968 257.635 -6.66982 83.8715)
(-41.5388 -0.840776 1.26365 191.7 -7.95459 62.2725)
(-41.5683 -1.65925 1.2156 134.658 -8.14084 45.1965)
(-40.9162 -2.86977 1.12303 87.1901 -7.45779 32.058)
(-38.6496 -4.82893 0.991894 58.35 -6.0287 26.1371)
(-30.5829 -7.02085 0.775574 42.934 -3.15221 26.2337)
(-42.1655 0.0982379 0.464283 529.651 -1.21317 194.241)
(-41.1453 -0.0159073 0.757965 276.581 -3.26633 93.7113)
(-41.7658 -0.319306 0.83983 258.155 -4.56925 88.9328)
(-42.0563 -0.888 0.838793 192.998 -5.24614 66.7782)
(-42.0167 -1.73367 0.802015 136.401 -5.32883 48.7064)
(-41.2237 -2.97967 0.738055 89.1395 -4.93595 34.6063)
(-38.7474 -4.98529 0.651029 60.3754 -4.08837 28.0217)
(-30.2797 -7.17727 0.507766 44.8839 -2.19825 27.7885)
(-42.5609 0.0916102 0.263676 527.814 -1.16989 194.602)
(-41.5266 -0.0302159 0.432953 276.159 -2.04902 96.0929)
(-42.1185 -0.342224 0.480126 258.494 -2.68452 91.729)
(-42.3706 -0.922745 0.47748 193.861 -3.00079 69.4406)
(-42.2599 -1.78413 0.454468 137.552 -3.02625 50.9593)
(-41.4054 -3.05128 0.417848 90.3781 -2.82068 36.3947)
(-38.8005 -5.08626 0.36578 61.6328 -2.37455 29.4977)
(-30.0869 -7.27419 0.280367 46.1252 -1.30728 29.147)
(-42.739 0.0876936 0.08466 526.783 -0.455756 194.643)
(-41.6943 -0.0379143 0.139488 275.954 -0.69757 97.0938)
(-42.2813 -0.354663 0.154847 258.663 -0.887307 92.957)
(-42.4958 -0.940848 0.153438 194.304 -0.978851 70.672)
(-42.3538 -1.80921 0.145888 138.127 -0.983245 52.049)
(-41.4811 -3.08901 0.134002 90.978 -0.919118 37.3019)
(-38.7935 -5.14057 0.115683 62.2412 -0.780995 30.301)
(-29.9501 -7.31196 0.0858431 46.7383 -0.439018 29.9328)
(43.9218 75.5508 -4.092 342.409 -0.848467 -15.411)
(-101.469 33.9933 -6.87442 141.575 -1.28876 -10.398)
(-69.6958 44.8746 -8.13374 161.343 -1.32958 -6.81942)
(-70.5053 39.8086 -8.8145 113.759 -1.30604 -4.53363)
(-62.8017 35.1231 -9.29082 79.4163 -1.3532 -3.30747)
(-58.5516 27.5452 -9.68763 46.9633 -1.52499 -2.98324)
(-55.6484 18.3149 -10.1311 24.8017 -1.88429 -3.59631)
(-64.4458 10.0149 -11.0091 6.24473 -2.38438 -5.14111)
(-8.29433 60.724 -2.86645 71.2368 -0.668888 -13.5571)
(-52.436 87.464 -5.15108 46.4661 -1.05186 -11.4051)
(-53.2453 90.8028 -6.06975 47.6246 -1.09002 -9.18432)
(-51.3448 83.9959 -6.53273 33.8266 -0.925596 -7.65908)
(-47.3425 73.2318 -6.86572 22.4114 -0.756686 -6.8291)
(-44.0005 59.3054 -7.18922 11.3601 -0.66017 -6.61008)
(-41.964 43.5258 -7.64008 2.65133 -0.694965 -6.96299)
(-50.2664 24.4216 -8.7916 -5.2169 -0.831296 -7.58078)
(-32.4175 55.4065 -2.43489 -109.605 -0.448191 -12.3072)
(4.39464 85.3603 -4.68843 -56.4345 -0.769512 -11.5274)
(-0.808493 91.0795 -5.62799 -55.1693 -0.813231 -10.1045)
(-2.54291 84.704 -6.08951 -40.6142 -0.6165 -9.06514)
(-4.79548 74.1546 -6.39629 -29.9899 -0.371604 -8.51471)
(-5.85645 60.6556 -6.68909 -21.0431 -0.164399 -8.40358)
(-5.99453 45.1026 -7.11668 -14.937 -0.039697 -8.70662)
(0.162417 24.6754 -8.27594 -7.52839 -0.0299823 -9.3389)
(-82.9158 61.4622 -2.39161 -364.819 -0.430497 -10.5149)
(53.9717 32.4918 -4.852 -150.869 -0.714189 -10.0672)
(22.1339 45.71 -5.86055 -165.752 -0.686573 -8.56068)
(23.4308 41.1564 -6.35266 -116.284 -0.419143 -7.5487)
(17.1628 36.7191 -6.65222 -81.6404 -0.110713 -7.01384)
(14.3876 29.8378 -6.91466 -50.5234 0.161007 -6.85561)
(13.6507 21.5771 -7.29475 -29.2106 0.416424 -7.01421)
(21.7202 10.7981 -8.4066 -12.3831 0.67746 -7.7299)
(-5.9804 0.580367 0.947805 -529.752 -56.5285 -171.218)
(-3.76769 0.824771 1.78324 -264.131 14.5643 -39.1769)
(-1.71785 0.716607 1.99615 -254.724 9.15852 -57.1589)
(-0.504928 0.333038 2.04781 -179.925 14.2545 -39.5706)
(0.197799 -0.0700302 2.11507 -123.658 13.7805 -32.3468)
(0.818758 -0.423207 2.26148 -75.9076 12.5874 -26.0441)
(2.32394 -0.974101 2.53364 -43.8856 10.1727 -23.8949)
(7.08116 -2.9029 2.87383 -24.9156 4.41599 -23.9122)
(-8.10956 0.236304 0.142162 -517.126 -36.3213 -179.576)
(-7.87582 0.381057 0.463476 -297.103 4.69661 -65.0873)
(-7.20744 0.340254 0.490844 -258.023 15.2389 -60.4829)
(-6.76614 0.123423 0.45121 -185.84 20.3143 -46.8541)
(-6.38782 -0.115032 0.469709 -126.626 21.133 -39.0391)
(-5.73731 -0.297721 0.584666 -78.4238 19.5113 -33.7089)
(-3.71938 -0.641058 0.810731 -44.9695 15.6516 -31.2004)
(3.38377 -2.66968 1.21161 -25.346 8.10307 -30.0529)
(-9.4309 0.0521565 -0.0064452 -522.532 -18.4843 -194.415)
(-9.78775 0.107163 0.235981 -296.95 3.67739 -86.4319)
(-9.57817 0.108653 0.309113 -260.635 12.2983 -76.4932)
(-9.35087 0.00632517 0.321974 -188.579 17.0392 -57.5598)
(-8.96035 -0.108669 0.365012 -128.53 18.4564 -44.9975)
(-8.07808 -0.170386 0.468779 -79.6126 17.5014 -35.9245)
(-5.64322 -0.381021 0.627179 -45.3819 14.3842 -30.2124)
(2.51956 -2.40918 0.862555 -23.3654 7.31371 -24.1725)
(-10.2686 -0.00948396 0.00615354 -523.28 -7.98233 -203.375)
(-10.7658 0.00125053 0.229447 -295.678 3.71189 -102.315)
(-10.6903 0.017623 0.334064 -261.168 9.40501 -90.6796)
(-10.4999 -0.0228566 0.378955 -189.88 12.8943 -68.1726)
(-10.0177 -0.0601191 0.429795 -129.801 14.2688 -51.657)
(-8.90403 -0.0455137 0.510369 -80.5282 13.8477 -39.0463)
(-6.10604 -0.194512 0.609905 -45.6326 11.6367 -30.1505)
(2.56727 -2.25076 0.726092 -22.6153 6.04835 -20.8599)
(-10.8322 -0.0273435 0.024665 -520.923 -2.56661 -207.718)
(-11.3661 -0.0318627 0.210348 -294.484 3.47266 -112.355)
(-11.3234 -0.00618286 0.309323 -260.907 7.03705 -100.494)
(-11.1193 -0.0128421 0.358348 -190.285 9.33381 -76.2599)
(-10.5508 -0.00548056 0.401907 -130.414 10.3701 -57.3131)
(-9.26682 0.0522272 0.456288 -80.9775 10.2045 -42.2011)
(-6.22481 -0.0662343 0.512453 -45.6554 8.70468 -30.9431)
(2.76602 -2.15276 0.569395 -22.0594 4.57015 -19.3564)
(-11.1978 -0.030981 0.0302426 -517.717 -0.194753 -209.524)
(-11.7382 -0.0380003 0.16758 -293.411 2.81198 -118.265)
(-11.694 -0.0046484 0.24405 -260.395 4.9396 -106.633)
(-11.4631 0.00710422 0.283754 -190.267 6.3439 -81.6507)
(-10.8271 0.0387337 0.315266 -130.58 7.01982 -61.3762)
(-9.42799 0.119747 0.349108 -81.0857 6.94826 -44.7542)
(-6.23032 0.016541 0.379141 -45.5325 5.97712 -32.0066)
(2.9637 -2.09352 0.404369 -21.7077 3.16473 -19.0824)
(-11.4146 -0.0302023 0.0228584 -515.009 0.456873 -210.13)
(-11.9528 -0.036045 0.10638 -292.578 1.81937 -121.468)
(-11.8998 0.00257449 0.153195 -259.912 2.94521 -110.116)
(-11.6459 0.024048 0.177916 -190.118 3.6972 -84.8495)
(-10.9645 0.0684086 0.196556 -130.557 4.06921 -63.9117)
(-9.49359 0.161582 0.215292 -81.0445 4.03389 -46.4718)
(-6.1989 0.064309 0.230234 -45.3729 3.48259 -32.8839)
(3.11606 -2.06133 0.23548 -21.4659 1.85195 -19.2392)
(-11.5169 -0.0294646 0.00809501 -513.508 0.240285 -210.274)
(-12.0534 -0.0344295 0.0358338 -292.123 0.628156 -122.863)
(-11.9963 0.00684087 0.051278 -259.63 0.980043 -111.68)
(-11.7307 0.0328595 0.0594875 -190.009 1.21634 -86.3264)
(-11.0278 0.0831585 0.0655753 -130.513 1.33433 -65.1187)
(-9.5222 0.181996 0.0716935 -80.9965 1.32281 -47.3271)
(-6.17098 0.0826798 0.0763711 -45.2692 1.14319 -33.3605)
(3.17604 -2.05044 0.074743 -21.3554 0.609143 -19.4232)
(-70.7574 11.5955 -4.28203 -2.06694 -1.34318 -7.25518)
(-63.976 11.002 -1.45954 1.09586 -1.02149 -1.70179)
(-63.9755 11.0068 -2.06909 3.63171 -0.692277 -4.74552)
(-63.9837 11.1396 -2.37424 5.66474 -0.468445 -5.3719)
(-64.4699 11.2815 -2.31441 7.2101 -0.321037 -5.24421)
(-64.8587 11.4004 -1.86475 8.32229 -0.216307 -4.48973)
(-65.1197 11.4857 -1.20044 9.03042 -0.138582 -3.73198)
(-65.2862 11.5277 -0.415274 9.28911 -0.0526957 -3.32962)
(-56.9457 8.84809 -7.64263 -5.79507 0.149963 -16.1205)
(-51.9693 7.75117 -6.57876 -4.35369 0.137342 -14.9251)
(-51.6365 7.54589 -6.27572 -2.62011 0.202416 -13.7927)
(-52.2754 7.53733 -6.07709 -1.12298 0.203205 -12.6969)
(-52.9944 7.57357 -5.38474 0.0384015 0.166603 -11.8849)
(-53.5165 7.6158 -4.17189 0.887754 0.119777 -11.1961)
(-53.8246 7.65447 -2.62088 1.4572 0.0709725 -10.6845)
(-53.9365 7.68785 -0.892333 1.77549 0.0232556 -10.3889)
(2.6486 8.17536 -7.82675 -8.62424 0.675104 -7.14747)
(-1.30934 7.06563 -7.8764 -7.58712 0.596067 -8.84908)
(-2.54625 6.81645 -7.4624 -6.38069 0.539956 -5.59368)
(-3.35324 6.76254 -6.84424 -5.31864 0.451906 -3.0672)
(-3.74399 6.76045 -5.84286 -4.47524 0.348387 -1.43269)
(-3.91394 6.77146 -4.43732 -3.84905 0.246276 -0.531999)
(-3.97594 6.78347 -2.75954 -3.42899 0.150283 -0.0806607)
(-3.98317 6.79144 -0.935539 -3.19419 0.0519826 0.113701)
(24.7842 8.24739 -4.79619 -7.55261 1.0583 -9.4727)
(19.0873 7.26139 -3.99873 -6.45692 0.811017 -13.5553)
(18.5697 7.06091 -3.92208 -5.59064 0.645108 -7.17757)
(18.2843 7.02759 -3.48957 -4.80308 0.51594 -3.21945)
(18.4921 7.03155 -2.9489 -4.15396 0.392832 -0.902946)
(18.7126 7.04168 -2.22217 -3.66536 0.275581 0.0567316)
(18.8838 7.04888 -1.38089 -3.34061 0.164997 0.35976)
(18.9667 7.04545 -0.469616 -3.17826 0.0556144 0.412203)
)
;
    }
    symmetry
    {
        type            symmetryPlane;
    }
    bottom
    {
        type            calculated;
        value           nonuniform List<symmTensor> 
32
(
(268.504 100.435 0 402.756 106.808 268.504)
(261.545 109.755 0 392.318 51.4024 261.545)
(267.188 113.092 0 400.781 23.5914 267.188)
(269.979 113.335 0 404.968 9.72285 269.979)
(270.608 112.58 0 405.912 3.16398 270.608)
(270.358 111.699 0 405.537 0.429519 270.358)
(269.913 111.022 0 404.869 -0.346413 269.913)
(269.619 110.663 0 404.428 -0.20454 269.619)
(50.6806 44.5759 0 76.0209 32.3301 50.6806)
(51.6869 55.1936 0 77.5303 16.291 51.6869)
(54.5737 55.4049 0 81.8606 7.42564 54.5737)
(55.9164 53.5067 0 83.8746 2.92976 55.9164)
(56.59 51.5353 0 84.8849 0.843527 56.59)
(56.9522 49.9999 0 85.4283 0.0197457 56.9522)
(57.1468 48.9922 0 85.7202 -0.174789 57.1468)
(57.2332 48.4977 0 85.8497 -0.0851088 57.2332)
(-73.0079 39.2555 0 -109.512 -38.1184 -73.0079)
(-68.2841 49.8131 0 -102.426 -21.7558 -68.2841)
(-69.5896 49.4172 0 -104.384 -12.0999 -69.5896)
(-70.0301 47.0096 0 -105.045 -6.41008 -70.0301)
(-69.9028 44.6776 0 -104.854 -3.15826 -69.9028)
(-69.5543 42.8976 0 -104.331 -1.40303 -69.5543)
(-69.2134 41.7371 0 -103.82 -0.53343 -69.2134)
(-69.0127 41.1693 0 -103.519 -0.12948 -69.0127)
(-270.645 83.2343 0 -405.967 -118.034 -270.645)
(-260.715 90.9517 0 -391.073 -61.6691 -260.715)
(-266.594 92.2471 0 -399.891 -31.1476 -266.594)
(-268.727 90.9693 0 -403.091 -14.6553 -268.727)
(-268.441 89.1318 0 -402.661 -6.10386 -268.441)
(-267.3 87.5004 0 -400.951 -2.02887 -267.3)
(-266.178 86.3458 0 -399.267 -0.411333 -266.178)
(-265.522 85.7554 0 -398.283 -0.0143571 -265.522)
)
;
    }
}


// ************************************************************************* //
