/*--------------------------------*- C++ -*----------------------------------*\
| =========                 |                                                 |
| \\      /  F ield         | foam-extend: Open Source CFD                    |
|  \\    /   O peration     | Version:     3.1                                |
|   \\  /    A nd           | Web:         http://www.extend-project.de       |
|    \\/     M anipulation  |                                                 |
\*---------------------------------------------------------------------------*/
FoamFile
{
    version     2.0;
    format      ascii;
    class       volVectorField;
    location    "1.4";
    object      U;
}
// * * * * * * * * * * * * * * * * * * * * * * * * * * * * * * * * * * * * * //

dimensions      [0 1 -1 0 0 0 0];

internalField   nonuniform List<vector> 
256
(
(-0.000765865 -0.000572629 -0.00104177)
(-0.000230958 -0.000107819 -0.000244905)
(-0.000210936 0.000225272 0.000553276)
(-0.000722824 0.000789831 0.00150451)
(-0.00353813 -0.0023749 -0.0012089)
(-0.00290724 -0.000539532 -0.000332685)
(-0.00281515 0.00103787 0.000765897)
(-0.00321581 0.00302819 0.00166328)
(-0.0072493 -0.00360839 -0.00125928)
(-0.00661301 -0.000801032 -0.000343755)
(-0.00646292 0.00178649 0.000674082)
(-0.00674406 0.00476772 0.00158935)
(-0.0117951 -0.00443667 -0.0011518)
(-0.0112086 -0.000848938 -0.000344068)
(-0.0110018 0.00253685 0.000529497)
(-0.0111074 0.00628869 0.00132304)
(-0.0168612 -0.00483807 -0.000990776)
(-0.0163207 -0.000706365 -0.00032497)
(-0.0160648 0.00324731 0.000373745)
(-0.0160236 0.00751618 0.00101969)
(-0.0221559 -0.00489661 -0.00082504)
(-0.0216611 -0.000424768 -0.000298294)
(-0.0213671 0.00390031 0.000237947)
(-0.0212093 0.00847978 0.000743308)
(-0.027433 -0.00470528 -0.000695776)
(-0.0269794 -5.8922e-05 -0.000276583)
(-0.0266629 0.00447683 0.000129287)
(-0.0264271 0.00920928 0.00052899)
(-0.0325266 -0.00436985 -0.000628398)
(-0.032092 0.000341584 -0.000267068)
(-0.0317703 0.00497231 4.27486e-05)
(-0.0315094 0.00976257 0.000385846)
(-0.000947331 -0.000558646 -0.00056827)
(-0.000457591 -9.78594e-05 -0.000128989)
(-0.000445546 0.000202122 0.000351679)
(-0.000910201 0.000720784 0.000908802)
(-0.00402846 -0.00228747 -0.000779392)
(-0.0033166 -0.000481923 -0.000193457)
(-0.00324575 0.00103356 0.00053505)
(-0.00376723 0.00299602 0.00115022)
(-0.00784039 -0.00354761 -0.000878417)
(-0.00718826 -0.000727131 -0.000225857)
(-0.00704232 0.00185625 0.000508925)
(-0.00734445 0.00484643 0.00116892)
(-0.0124005 -0.00438696 -0.000863311)
(-0.0117981 -0.000777849 -0.000246968)
(-0.0115848 0.00262463 0.000418595)
(-0.0116947 0.00639579 0.0010306)
(-0.0174242 -0.00480965 -0.000795497)
(-0.0168735 -0.000651243 -0.000252843)
(-0.0166042 0.00333133 0.000312293)
(-0.0165499 0.00762425 0.000842908)
(-0.0226578 -0.00488826 -0.000714074)
(-0.0221559 -0.000389319 -0.000250142)
(-0.0218466 0.00396745 0.000215335)
(-0.0216702 0.00857148 0.000663949)
(-0.0278829 -0.0047151 -0.000647758)
(-0.0274252 -4.10305e-05 -0.000247188)
(-0.0270953 0.00452717 0.000136536)
(-0.0268421 0.0092851 0.000521731)
(-0.0329568 -0.00439725 -0.000610061)
(-0.0325186 0.000344735 -0.000248464)
(-0.0321872 0.00501457 7.62604e-05)
(-0.0319157 0.00983475 0.00042261)
(-0.00103843 -0.000588037 -0.000327463)
(-0.000528459 -0.000102225 -6.92573e-05)
(-0.000519953 0.000209421 0.000227758)
(-0.00101007 0.000751077 0.000562306)
(-0.00430247 -0.0022828 -0.000496859)
(-0.00353858 -0.000463221 -0.000112771)
(-0.00348149 0.00103727 0.000362257)
(-0.00407735 0.00301745 0.000771225)
(-0.00822153 -0.00351979 -0.000597794)
(-0.0075308 -0.000694763 -0.000145862)
(-0.00739451 0.00187806 0.000365477)
(-0.00775168 0.00487476 0.000827592)
(-0.0128311 -0.00434329 -0.000627752)
(-0.0122051 -0.000737963 -0.000173794)
(-0.0119959 0.00265501 0.000316246)
(-0.0121373 0.00642187 0.000771668)
(-0.0178665 -0.00476562 -0.000619844)
(-0.017303 -0.00061355 -0.000192831)
(-0.0170336 0.00336299 0.00024998)
(-0.0169943 0.00764935 0.000671903)
(-0.0230928 -0.00485606 -0.000596373)
(-0.0225861 -0.000360416 -0.00020479)
(-0.0222746 0.00399619 0.000185818)
(-0.0221017 0.00859762 0.000568948)
(-0.0283103 -0.00470368 -0.000573944)
(-0.0278532 -2.39681e-05 -0.000213133)
(-0.0275207 0.00455336 0.000132295)
(-0.0272644 0.00931915 0.000483922)
(-0.0333916 -0.00440967 -0.00055689)
(-0.0329569 0.000350907 -0.000218107)
(-0.0326235 0.00504248 9.24054e-05)
(-0.0323454 0.00988485 0.000421504)
(-0.00108541 -0.000609206 -0.00019608)
(-0.000553928 -0.000106335 -3.84066e-05)
(-0.000546791 0.000215173 0.000147339)
(-0.00106212 0.000777851 0.00035041)
(-0.00446334 -0.00230214 -0.000319925)
(-0.00366448 -0.00046172 -6.7574e-05)
(-0.00361449 0.00104039 0.000243119)
(-0.00425682 0.00304637 0.00051243)
(-0.00846747 -0.00352223 -0.000405269)
(-0.00774901 -0.000686226 -9.50643e-05)
(-0.00761996 0.00188418 0.0002566)
(-0.00801675 0.00489359 0.00057502)
(-0.0131354 -0.00433014 -0.000449708)
(-0.0124912 -0.000722858 -0.000121867)
(-0.0122873 0.00266371 0.000232183)
(-0.0124565 0.00643253 0.000562691)
(-0.0182061 -0.00474543 -0.000470481)
(-0.0176327 -0.000596154 -0.000144459)
(-0.0173667 0.00337317 0.000193068)
(-0.0173442 0.00765701 0.00051732)
(-0.0234528 -0.00483937 -0.00047814)
(-0.0229426 -0.000345655 -0.000162067)
(-0.0226328 0.00400734 0.000152762)
(-0.0224678 0.0086081 0.000464452)
(-0.0286857 -0.00469926 -0.000480087)
(-0.0282292 -1.51696e-05 -0.000174747)
(-0.0278977 0.00456618 0.000118243)
(-0.0276429 0.00933873 0.000418367)
(-0.0337853 -0.00442081 -0.000475035)
(-0.0333541 0.000353626 -0.000180035)
(-0.0330217 0.00505935 9.30838e-05)
(-0.0327421 0.00991855 0.000382082)
(-0.00111203 -0.000623331 -0.000120034)
(-0.000564859 -0.000109492 -2.21327e-05)
(-0.000558087 0.000218956 9.39155e-05)
(-0.0010913 0.000796098 0.000217358)
(-0.00456225 -0.00232546 -0.000206313)
(-0.00373956 -0.000466599 -4.14613e-05)
(-0.00369299 0.00104199 0.000160365)
(-0.00436523 0.00307076 0.000335489)
(-0.00862973 -0.00353996 -0.000271896)
(-0.00789231 -0.000689462 -6.21419e-05)
(-0.00776742 0.00188527 0.000175419)
(-0.00819001 0.00491151 0.000390503)
(-0.0133503 -0.00433854 -0.000314897)
(-0.0126932 -0.000722441 -8.42343e-05)
(-0.012493 0.00266493 0.000164626)
(-0.0126816 0.00644357 0.000397343)
(-0.018461 -0.00474724 -0.000344212)
(-0.0178801 -0.000593214 -0.000104849)
(-0.017617 0.0033752 0.000142635)
(-0.0176073 0.0076646 0.000381353)
(-0.0237372 -0.00484069 -0.000363993)
(-0.0232238 -0.000342826 -0.000122226)
(-0.0229161 0.00401073 0.00011849)
(-0.0227579 0.00861689 0.000357876)
(-0.0289935 -0.00470602 -0.000376153)
(-0.0285368 -1.47586e-05 -0.000134761)
(-0.0282065 0.00457166 9.7373e-05)
(-0.027954 0.00935325 0.00033573)
(-0.0341141 -0.00443586 -0.000376616)
(-0.0336845 0.000351187 -0.000138832)
(-0.0333537 0.00506839 8.24399e-05)
(-0.0330745 0.00994237 0.000316447)
(-0.00112792 -0.000632663 -7.23674e-05)
(-0.000570328 -0.000111755 -1.29025e-05)
(-0.000563608 0.000221354 5.73412e-05)
(-0.00110855 0.000807854 0.000130402)
(-0.00462407 -0.00234591 -0.000128786)
(-0.00378563 -0.000472736 -2.51807e-05)
(-0.00374066 0.00104281 0.000100865)
(-0.0044319 0.00308899 0.000210122)
(-0.00873631 -0.00356098 -0.000174598)
(-0.00798613 -0.000696677 -3.93379e-05)
(-0.00786337 0.00188501 0.00011342)
(-0.00830227 0.00492722 0.000251655)
(-0.0134982 -0.00435562 -0.000208474)
(-0.0128321 -0.000728365 -5.53699e-05)
(-0.012634 0.0026641 0.00010946)
(-0.0128351 0.00645521 0.000263724)
(-0.0186438 -0.00476016 -0.000234951)
(-0.0180573 -0.000597572 -7.12095e-05)
(-0.0177959 0.0033746 9.78207e-05)
(-0.0177947 0.00767355 0.000261204)
(-0.023948 -0.00485214 -0.00025522)
(-0.0234318 -0.000346698 -8.51011e-05)
(-0.0231253 0.00401101 8.4202e-05)
(-0.0229718 0.00862585 0.000252912)
(-0.0292268 -0.0047193 -0.000268687)
(-0.0287692 -1.94058e-05 -9.50706e-05)
(-0.0284398 0.00457341 7.21172e-05)
(-0.0281891 0.00936503 0.000243892)
(-0.0343662 -0.00445295 -0.000270756)
(-0.0339367 0.000345417 -9.76207e-05)
(-0.0336069 0.00507261 6.38953e-05)
(-0.0333288 0.00995948 0.000234644)
(-0.00113717 -0.000638411 -3.90313e-05)
(-0.000573255 -0.000113214 -6.87718e-06)
(-0.000566517 0.000222768 3.08644e-05)
(-0.00111852 0.000814847 6.95088e-05)
(-0.00466077 -0.00236056 -7.09129e-05)
(-0.00381278 -0.000477701 -1.37091e-05)
(-0.00376856 0.00104326 5.55012e-05)
(-0.00447106 0.00310104 0.00011542)
(-0.00880175 -0.00357806 -9.78786e-05)
(-0.00804362 -0.000703364 -2.19098e-05)
(-0.00792183 0.00188459 6.36127e-05)
(-0.00837034 0.00493878 0.00014098)
(-0.013592 -0.00437169 -0.000119127)
(-0.01292 -0.000734971 -3.15207e-05)
(-0.0127228 0.0026631 6.25757e-05)
(-0.0129312 0.00646479 0.000150689)
(-0.0187628 -0.00477419 -0.000136825)
(-0.0181723 -0.000603504 -4.13333e-05)
(-0.0179116 0.00337354 5.70921e-05)
(-0.0179152 0.00768145 0.000152339)
(-0.0240873 -0.00486505 -0.000151102)
(-0.023569 -0.000352267 -5.01326e-05)
(-0.023263 0.00401035 5.02938e-05)
(-0.0231123 0.00863333 0.000150461)
(-0.029383 -0.00473259 -0.000160832)
(-0.0289244 -2.51535e-05 -5.64112e-05)
(-0.0285953 0.00457357 4.421e-05)
(-0.0283457 0.00937365 0.000147596)
(-0.0345362 -0.00446773 -0.000162576)
(-0.0341061 0.000339324 -5.77065e-05)
(-0.0337769 0.00507423 4.02416e-05)
(-0.0334996 0.00997084 0.00014377)
(-0.0011415 -0.000641159 -1.23627e-05)
(-0.000574596 -0.000113928 -2.17397e-06)
(-0.000567831 0.000223424 9.73252e-06)
(-0.00112313 0.00081811 2.18272e-05)
(-0.00467811 -0.00236813 -2.26755e-05)
(-0.00382556 -0.000480392 -4.36923e-06)
(-0.0037816 0.00104348 1.7708e-05)
(-0.00448934 0.00310703 3.68082e-05)
(-0.00883307 -0.0035874 -3.15707e-05)
(-0.00807112 -0.00070719 -7.05005e-06)
(-0.00794968 0.00188435 2.04963e-05)
(-0.00840265 0.00494485 4.54142e-05)
(-0.0136378 -0.004381 -3.87748e-05)
(-0.0129628 -0.000738995 -1.02417e-05)
(-0.0127658 0.00266252 2.03595e-05)
(-0.0129776 0.00647012 4.90246e-05)
(-0.0188216 -0.00478277 -4.49387e-05)
(-0.018229 -0.000607346 -1.35513e-05)
(-0.0179684 0.00337287 1.87692e-05)
(-0.0179742 0.00768599 5.00638e-05)
(-0.0241567 -0.00487309 -5.00193e-05)
(-0.0236372 -0.000355967 -1.65508e-05)
(-0.0233313 0.00400979 1.67233e-05)
(-0.0231818 0.00863755 4.99243e-05)
(-0.0294611 -0.00474061 -5.35114e-05)
(-0.029002 -2.88801e-05 -1.86834e-05)
(-0.0286729 0.00457333 1.48857e-05)
(-0.0284239 0.00937822 4.93753e-05)
(-0.0346215 -0.00447619 -5.4156e-05)
(-0.0341911 0.000335519 -1.90674e-05)
(-0.0338621 0.00507462 1.37222e-05)
(-0.0335852 0.0099765 4.8378e-05)
)
;

boundaryField
{
    interface
    {
        type            calculated;
        value           nonuniform List<vector> 
192
(
(-0.00187995 -0.00179233 -0.00115137)
(-0.00409214 -0.0037316 -0.00149068)
(-0.00786324 -0.00549121 -0.00158831)
(-0.0123047 -0.00665672 -0.00147177)
(-0.0172904 -0.00728629 -0.00127854)
(-0.0225002 -0.00744037 -0.00107326)
(-0.0277092 -0.00724176 -0.000913127)
(-0.0327745 -0.00684531 -0.000832713)
(-0.00208512 -0.00195244 -0.00063631)
(-0.00465786 -0.0037203 -0.00096512)
(-0.00845022 -0.00544412 -0.00111666)
(-0.0129081 -0.00659565 -0.00111568)
(-0.0178432 -0.0072301 -0.00104228)
(-0.0229925 -0.00740379 -0.000945434)
(-0.0281514 -0.00723354 -0.000865902)
(-0.0332008 -0.00687246 -0.000825689)
(-0.00225329 -0.00208461 -0.000368402)
(-0.00496675 -0.00377631 -0.000611396)
(-0.00885728 -0.00544193 -0.000756705)
(-0.013352 -0.00655865 -0.000813258)
(-0.0182885 -0.00717994 -0.000816188)
(-0.0234245 -0.00736274 -0.000795171)
(-0.028573 -0.00721801 -0.000773556)
(-0.0336277 -0.00689189 -0.000761074)
(-0.00235456 -0.00216867 -0.000220812)
(-0.00515527 -0.00383629 -0.000391838)
(-0.00912671 -0.00547363 -0.000511123)
(-0.013671 -0.00656118 -0.000582106)
(-0.018635 -0.00716669 -0.000620414)
(-0.0237857 -0.0073492 -0.000639329)
(-0.0289462 -0.00721749 -0.00064959)
(-0.0340165 -0.00691137 -0.000652877)
(-0.0024162 -0.00222233 -0.000135294)
(-0.00527396 -0.0038878 -0.000252162)
(-0.0093063 -0.00551609 -0.000342408)
(-0.0138976 -0.00658751 -0.000407524)
(-0.0188965 -0.00718085 -0.000454255)
(-0.0240726 -0.00735938 -0.000487307)
(-0.0292536 -0.00723198 -0.000509938)
(-0.0343431 -0.00693505 -0.000519523)
(-0.00245405 -0.00225672 -8.16659e-05)
(-0.0053489 -0.00392736 -0.000157394)
(-0.0094247 -0.00555583 -0.000219954)
(-0.0140538 -0.00662023 -0.000270069)
(-0.0190844 -0.00720612 -0.000310409)
(-0.0242857 -0.00738051 -0.000342015)
(-0.0294873 -0.00725342 -0.000364681)
(-0.0345947 -0.00695976 -0.000374537)
(-0.00247624 -0.0022775 -4.41077e-05)
(-0.00539349 -0.00395396 -8.67461e-05)
(-0.00949744 -0.0055854 -0.00012348)
(-0.0141529 -0.00664751 -0.000154607)
(-0.019207 -0.00722952 -0.000181054)
(-0.0244268 -0.00740102 -0.000202697)
(-0.029644 -0.00727311 -0.000218462)
(-0.0347648 -0.00698019 -0.00022532)
(-0.00248661 -0.00228734 -1.39885e-05)
(-0.00541459 -0.0039673 -2.77639e-05)
(-0.0095322 -0.00560099 -3.98827e-05)
(-0.0142014 -0.00666264 -5.03953e-05)
(-0.0192677 -0.00724306 -5.9539e-05)
(-0.0244971 -0.00741313 -6.71448e-05)
(-0.0297226 -0.0072846 -7.27116e-05)
(-0.0348504 -0.00699166 -7.51251e-05)
(-0.000610496 -0.00117641 -0.00165086)
(-0.00314708 -0.00240073 -0.00135285)
(-0.00684675 -0.00363765 -0.00146256)
(-0.0114086 -0.00439457 -0.00128869)
(-0.0165301 -0.0047732 -0.00108708)
(-0.0218844 -0.00482623 -0.000880865)
(-0.0272105 -0.00465035 -0.000722373)
(-0.0323339 -0.00434264 -0.000635914)
(3.91553e-05 -0.000300137 -0.000370023)
(-0.00236109 -0.00058107 -0.000394469)
(-0.00610277 -0.000862092 -0.000400538)
(-0.0107609 -0.00088797 -0.00038689)
(-0.0159636 -0.000725975 -0.000358555)
(-0.02139 -0.000428325 -0.000323901)
(-0.0267776 -5.53751e-05 -0.000297038)
(-0.0319348 0.000342708 -0.000278306)
(7.94832e-05 0.000616782 0.000765931)
(-0.00227368 0.000961108 0.000786219)
(-0.00596461 0.00168649 0.000718522)
(-0.0105746 0.0024092 0.000557936)
(-0.0157301 0.00313827 0.000391185)
(-0.0211171 0.00381942 0.00024248)
(-0.0264787 0.00442399 0.000122704)
(-0.0316251 0.00494187 1.9991e-05)
(-0.000504994 0.00175508 0.0021418)
(-0.00284938 0.00295431 0.00176517)
(-0.006373 0.00465957 0.00178609)
(-0.0107827 0.00609761 0.00144813)
(-0.0157647 0.00734038 0.00110354)
(-0.0210098 0.0083415 0.000782642)
(-0.0262667 0.00911875 0.000534446)
(-0.031361 0.00971356 0.000365641)
(-0.0016183 0.00231751 0.00161312)
(-0.00356019 0.0045229 0.00193659)
(-0.00705342 0.00686369 0.00191578)
(-0.0112391 0.00868192 0.00162405)
(-0.0160272 0.0100971 0.00127734)
(-0.0211141 0.0111145 0.000954688)
(-0.0262758 0.0118132 0.000708842)
(-0.0313464 0.0123046 0.000558343)
(-0.00177945 0.00246732 0.000986161)
(-0.00419104 0.00460574 0.00134874)
(-0.00765438 0.00693875 0.00141465)
(-0.0118347 0.00876672 0.00127556)
(-0.0165551 0.0101685 0.00107277)
(-0.0215762 0.0111765 0.000874375)
(-0.0266915 0.0118765 0.000720131)
(-0.0317527 0.0123873 0.000625089)
(-0.00193273 0.00264976 0.000609215)
(-0.00452826 0.00470491 0.00089434)
(-0.00808867 0.00698921 0.000993007)
(-0.0122955 0.00879534 0.000955646)
(-0.0170087 0.0101841 0.000860242)
(-0.0220097 0.0111933 0.000756711)
(-0.0271108 0.0119092 0.000672688)
(-0.0321722 0.0124492 0.000618753)
(-0.00202932 0.00276991 0.000378066)
(-0.00473247 0.00478506 0.000588723)
(-0.00837777 0.0070401 0.000684696)
(-0.0126322 0.00882173 0.000694907)
(-0.0173686 0.0101987 0.000663257)
(-0.0223795 0.011208 0.000619534)
(-0.0274882 0.0119353 0.000581762)
(-0.0325636 0.0124958 0.00055618)
(-0.00208952 0.00284467 0.000233836)
(-0.00485975 0.00484427 0.000383131)
(-0.00856865 0.00708614 0.000462689)
(-0.0128702 0.00885221 0.000489694)
(-0.0176396 0.0102196 0.00048904)
(-0.022673 0.0112269 0.000477485)
(-0.0277991 0.0119597 0.000465653)
(-0.0328932 0.0125319 0.000456844)
(-0.00212723 0.00289052 0.000140138)
(-0.0049395 0.00488553 0.000239295)
(-0.00869286 0.00712316 0.000297511)
(-0.0130324 0.00888105 0.000324791)
(-0.0178323 0.0102421 0.00033503)
(-0.0228892 0.0112466 0.000337289)
(-0.0280343 0.0119812 0.000337348)
(-0.0331465 0.0125593 0.000336683)
(-0.00214962 0.00291708 7.47016e-05)
(-0.00498675 0.00491163 0.000131336)
(-0.00876827 0.00714877 0.000166576)
(-0.0131337 0.00890293 0.00018561)
(-0.0179559 0.0102602 0.000195464)
(-0.023031 0.0112626 0.000200565)
(-0.0281911 0.0119973 0.000203724)
(-0.0333169 0.0125781 0.000205473)
(-0.0021601 0.00292931 2.34661e-05)
(-0.00500888 0.0049243 4.18828e-05)
(-0.00880405 0.00716181 5.36624e-05)
(-0.0131825 0.00891458 6.04036e-05)
(-0.0180164 0.0102702 6.42526e-05)
(-0.0231012 0.0112713 6.6528e-05)
(-0.0282692 0.0120058 6.80737e-05)
(-0.0334024 0.0125876 6.90107e-05)
(-0.0349836 -0.00418527 -0.000621529)
(-0.0354271 -0.00422001 -0.000599777)
(-0.0358749 -0.00424111 -0.000545324)
(-0.03628 -0.00425841 -0.00046255)
(-0.0366188 -0.00427687 -0.000364053)
(-0.0368789 -0.00429539 -0.000259867)
(-0.0370546 -0.00431058 -0.000155183)
(-0.0371429 -0.00431904 -5.1542e-05)
(-0.034473 0.000518379 -0.000275771)
(-0.0349247 0.000517786 -0.000249802)
(-0.0353804 0.000522871 -0.000216176)
(-0.0357901 0.000524452 -0.000175747)
(-0.03613 0.000521439 -0.000133401)
(-0.0363896 0.000515569 -9.24316e-05)
(-0.0365643 0.000509596 -5.40082e-05)
(-0.036652 0.00050591 -1.77277e-05)
(-0.0341485 0.00519614 1.24409e-05)
(-0.034592 0.00523953 5.91653e-05)
(-0.0350465 0.00527165 8.27485e-05)
(-0.0354579 0.00529246 8.85515e-05)
(-0.0357996 0.00530459 8.07061e-05)
(-0.0360604 0.00531093 6.35217e-05)
(-0.0362358 0.00531385 4.035e-05)
(-0.0363237 0.00531483 1.38187e-05)
(-0.0339801 0.0100083 0.000338487)
(-0.0344069 0.0100821 0.000389974)
(-0.0348528 0.0101435 0.000398824)
(-0.0352635 0.0101857 0.000367078)
(-0.0356076 0.0102155 0.00030608)
(-0.0358714 0.0102361 0.00022763)
(-0.0360489 0.0102495 0.000139634)
(-0.036138 0.010256 4.70103e-05)
)
;
    }
    symmetry
    {
        type            symmetryPlane;
    }
    bottom
    {
        type            calculated;
        value           uniform (0 0 0);
    }
}


// ************************************************************************* //
