/*--------------------------------*- C++ -*----------------------------------*\
| =========                 |                                                 |
| \\      /  F ield         | foam-extend: Open Source CFD                    |
|  \\    /   O peration     | Version:     3.1                                |
|   \\  /    A nd           | Web:         http://www.extend-project.de       |
|    \\/     M anipulation  |                                                 |
\*---------------------------------------------------------------------------*/
FoamFile
{
    version     2.0;
    format      ascii;
    class       volVectorField;
    location    "0.0003";
    object      D_0_0;
}
// * * * * * * * * * * * * * * * * * * * * * * * * * * * * * * * * * * * * * //

dimensions      [0 1 0 0 0 0 0];

internalField   nonuniform List<vector> 
6400
(
(2.16755e-06 8.32863e-08 3.86016e-07)
(1.69123e-06 6.58165e-08 3.23349e-08)
(1.41833e-06 5.52569e-08 -1.21388e-07)
(1.30338e-06 5.0236e-08 -3.76849e-07)
(2.15383e-06 2.54455e-07 3.85739e-07)
(1.68067e-06 1.98595e-07 3.2612e-08)
(1.40934e-06 1.66589e-07 -1.21029e-07)
(1.29529e-06 1.53039e-07 -3.76469e-07)
(2.12745e-06 4.23107e-07 3.8539e-07)
(1.66013e-06 3.30053e-07 3.25262e-08)
(1.39209e-06 2.76823e-07 -1.21005e-07)
(1.27942e-06 2.54485e-07 -3.76399e-07)
(2.08768e-06 5.88518e-07 3.85248e-07)
(1.6291e-06 4.59263e-07 3.24781e-08)
(1.36604e-06 3.8525e-07 -1.20985e-07)
(1.25543e-06 3.54239e-07 -3.76313e-07)
(2.03474e-06 7.49914e-07 3.85124e-07)
(1.58771e-06 5.85394e-07 3.24799e-08)
(1.33126e-06 4.91132e-07 -1.20916e-07)
(1.22338e-06 4.51661e-07 -3.76132e-07)
(1.96898e-06 9.06405e-07 3.8498e-07)
(1.53624e-06 7.07671e-07 3.25185e-08)
(1.28798e-06 5.93764e-07 -1.20794e-07)
(1.1835e-06 5.46079e-07 -3.75844e-07)
(1.89085e-06 1.0571e-06 3.84831e-07)
(1.47506e-06 8.2535e-07 3.25939e-08)
(1.23654e-06 6.92481e-07 -1.20625e-07)
(1.13612e-06 6.36844e-07 -3.75465e-07)
(1.80087e-06 1.20115e-06 3.84727e-07)
(1.40463e-06 9.37745e-07 3.27162e-08)
(1.17737e-06 7.86675e-07 -1.2042e-07)
(1.08168e-06 7.23371e-07 -3.75038e-07)
(1.69967e-06 1.33783e-06 3.84754e-07)
(1.32552e-06 1.04426e-06 3.28968e-08)
(1.11101e-06 8.75838e-07 -1.20205e-07)
(1.02072e-06 8.0518e-07 -3.74638e-07)
(1.58795e-06 1.46667e-06 3.85028e-07)
(1.23845e-06 1.14448e-06 3.3108e-08)
(1.03816e-06 9.59653e-07 -1.20038e-07)
(9.53918e-07 8.82005e-07 -3.7438e-07)
(1.46667e-06 1.58795e-06 3.85028e-07)
(1.14448e-06 1.23845e-06 3.3108e-08)
(9.59653e-07 1.03816e-06 -1.20038e-07)
(8.82005e-07 9.53918e-07 -3.7438e-07)
(1.33783e-06 1.69967e-06 3.84754e-07)
(1.04426e-06 1.32552e-06 3.28968e-08)
(8.75838e-07 1.11101e-06 -1.20205e-07)
(8.0518e-07 1.02072e-06 -3.74638e-07)
(1.20115e-06 1.80087e-06 3.84727e-07)
(9.37745e-07 1.40463e-06 3.27162e-08)
(7.86675e-07 1.17737e-06 -1.2042e-07)
(7.23371e-07 1.08168e-06 -3.75038e-07)
(1.0571e-06 1.89085e-06 3.84831e-07)
(8.2535e-07 1.47506e-06 3.25939e-08)
(6.92481e-07 1.23654e-06 -1.20625e-07)
(6.36844e-07 1.13612e-06 -3.75465e-07)
(9.06405e-07 1.96898e-06 3.8498e-07)
(7.07671e-07 1.53624e-06 3.25185e-08)
(5.93764e-07 1.28798e-06 -1.20794e-07)
(5.46079e-07 1.1835e-06 -3.75844e-07)
(7.49914e-07 2.03474e-06 3.85124e-07)
(5.85394e-07 1.58771e-06 3.24799e-08)
(4.91132e-07 1.33126e-06 -1.20916e-07)
(4.51661e-07 1.22338e-06 -3.76132e-07)
(5.88518e-07 2.08768e-06 3.85248e-07)
(4.59263e-07 1.6291e-06 3.24781e-08)
(3.8525e-07 1.36604e-06 -1.20985e-07)
(3.54239e-07 1.25543e-06 -3.76313e-07)
(4.23107e-07 2.12745e-06 3.8539e-07)
(3.30053e-07 1.66013e-06 3.25262e-08)
(2.76823e-07 1.39209e-06 -1.21005e-07)
(2.54485e-07 1.27942e-06 -3.76399e-07)
(2.54455e-07 2.15383e-06 3.85739e-07)
(1.98595e-07 1.68067e-06 3.2612e-08)
(1.66589e-07 1.40934e-06 -1.21029e-07)
(1.53039e-07 1.29529e-06 -3.76469e-07)
(8.32863e-08 2.16755e-06 3.86016e-07)
(6.58165e-08 1.69123e-06 3.23349e-08)
(5.52569e-08 1.41833e-06 -1.21388e-07)
(5.0236e-08 1.30338e-06 -3.76849e-07)
(3.48085e-06 1.37754e-07 3.67286e-07)
(3.10722e-06 1.23712e-07 1.77684e-07)
(2.84165e-06 1.13612e-07 8.93173e-09)
(2.67839e-06 1.08095e-07 -1.9048e-07)
(3.45783e-06 4.1005e-07 3.66503e-07)
(3.08691e-06 3.6631e-07 1.76827e-07)
(2.82377e-06 3.35426e-07 8.04683e-09)
(2.66206e-06 3.16598e-07 -1.91456e-07)
(3.4153e-06 6.79715e-07 3.66265e-07)
(3.04888e-06 6.06858e-07 1.76636e-07)
(2.78896e-06 5.55373e-07 7.89265e-09)
(2.62925e-06 5.23846e-07 -1.91575e-07)
(3.35117e-06 9.44689e-07 3.6617e-07)
(2.9916e-06 8.43599e-07 1.76596e-07)
(2.7365e-06 7.72009e-07 7.90445e-09)
(2.57972e-06 7.28171e-07 -1.91496e-07)
(3.26558e-06 1.20334e-06 3.66085e-07)
(2.91509e-06 1.0748e-06 1.76601e-07)
(2.66643e-06 9.83675e-07 7.98114e-09)
(2.51354e-06 9.27899e-07 -1.91315e-07)
(3.15906e-06 1.45401e-06 3.65983e-07)
(2.81984e-06 1.29886e-06 1.7663e-07)
(2.57918e-06 1.18882e-06 8.10443e-09)
(2.43115e-06 1.12147e-06 -1.91043e-07)
(3.03243e-06 1.69515e-06 3.65884e-07)
(2.7066e-06 1.51434e-06 1.76683e-07)
(2.47548e-06 1.38603e-06 8.267e-09)
(2.33327e-06 1.3075e-06 -1.90699e-07)
(2.88671e-06 1.92541e-06 3.65831e-07)
(2.57638e-06 1.71996e-06 1.76771e-07)
(2.3563e-06 1.57412e-06 8.45458e-09)
(2.22087e-06 1.4848e-06 -1.90325e-07)
(2.72319e-06 2.14373e-06 3.65872e-07)
(2.43044e-06 1.91475e-06 1.7689e-07)
(2.2229e-06 1.75217e-06 8.63622e-09)
(2.09521e-06 1.65246e-06 -1.8999e-07)
(2.54336e-06 2.34955e-06 3.65969e-07)
(2.27033e-06 2.09814e-06 1.76993e-07)
(2.07678e-06 1.91967e-06 8.75709e-09)
(1.95778e-06 1.81006e-06 -1.89787e-07)
(2.34955e-06 2.54336e-06 3.65969e-07)
(2.09814e-06 2.27033e-06 1.76993e-07)
(1.91967e-06 2.07678e-06 8.75709e-09)
(1.81006e-06 1.95778e-06 -1.89787e-07)
(2.14373e-06 2.72319e-06 3.65872e-07)
(1.91475e-06 2.43044e-06 1.7689e-07)
(1.75217e-06 2.2229e-06 8.63622e-09)
(1.65246e-06 2.09521e-06 -1.8999e-07)
(1.92541e-06 2.88671e-06 3.65831e-07)
(1.71996e-06 2.57638e-06 1.76771e-07)
(1.57412e-06 2.3563e-06 8.45457e-09)
(1.4848e-06 2.22087e-06 -1.90325e-07)
(1.69515e-06 3.03243e-06 3.65884e-07)
(1.51434e-06 2.7066e-06 1.76683e-07)
(1.38603e-06 2.47548e-06 8.26699e-09)
(1.3075e-06 2.33327e-06 -1.90699e-07)
(1.45401e-06 3.15906e-06 3.65983e-07)
(1.29886e-06 2.81984e-06 1.7663e-07)
(1.18882e-06 2.57918e-06 8.10442e-09)
(1.12147e-06 2.43115e-06 -1.91043e-07)
(1.20334e-06 3.26558e-06 3.66085e-07)
(1.0748e-06 2.91509e-06 1.76601e-07)
(9.83675e-07 2.66643e-06 7.98113e-09)
(9.27899e-07 2.51354e-06 -1.91315e-07)
(9.44689e-07 3.35117e-06 3.6617e-07)
(8.43599e-07 2.9916e-06 1.76596e-07)
(7.72009e-07 2.7365e-06 7.90444e-09)
(7.28171e-07 2.57972e-06 -1.91496e-07)
(6.79715e-07 3.4153e-06 3.66265e-07)
(6.06858e-07 3.04888e-06 1.76636e-07)
(5.55373e-07 2.78896e-06 7.89264e-09)
(5.23846e-07 2.62925e-06 -1.91575e-07)
(4.1005e-07 3.45783e-06 3.66503e-07)
(3.6631e-07 3.08691e-06 1.76827e-07)
(3.35426e-07 2.82377e-06 8.04682e-09)
(3.16598e-07 2.66206e-06 -1.91456e-07)
(1.37754e-07 3.48085e-06 3.67286e-07)
(1.23712e-07 3.10722e-06 1.77684e-07)
(1.13612e-07 2.84165e-06 8.93172e-09)
(1.08095e-07 2.67839e-06 -1.9048e-07)
(3.23951e-06 1.27411e-07 5.99326e-08)
(3.00931e-06 1.19441e-07 1.18317e-07)
(2.82911e-06 1.12825e-07 1.23219e-07)
(2.69471e-06 1.08114e-07 1.39182e-07)
(3.21898e-06 3.81317e-07 6.02481e-08)
(2.99015e-06 3.54673e-07 1.1823e-07)
(2.81122e-06 3.33876e-07 1.23012e-07)
(2.67774e-06 3.18372e-07 1.3907e-07)
(3.17959e-06 6.32525e-07 6.0365e-08)
(2.95343e-06 5.87746e-07 1.1818e-07)
(2.77659e-06 5.52892e-07 1.22893e-07)
(2.64467e-06 5.26942e-07 1.38959e-07)
(3.11994e-06 8.79211e-07 6.04007e-08)
(2.89796e-06 8.17065e-07 1.18161e-07)
(2.72435e-06 7.68558e-07 1.22844e-07)
(2.59481e-06 7.32483e-07 1.38895e-07)
(3.0402e-06 1.11993e-06 6.0451e-08)
(2.82377e-06 1.04097e-06 1.18154e-07)
(2.65451e-06 9.79243e-07 1.22814e-07)
(2.52815e-06 9.3337e-07 1.38846e-07)
(2.94087e-06 1.35316e-06 6.05304e-08)
(2.73134e-06 1.25791e-06 1.18155e-07)
(2.56748e-06 1.18339e-06 1.22787e-07)
(2.44511e-06 1.12803e-06 1.38795e-07)
(2.82275e-06 1.5775e-06 6.06443e-08)
(2.62143e-06 1.4665e-06 1.18164e-07)
(2.46405e-06 1.37961e-06 1.22759e-07)
(2.34646e-06 1.31505e-06 1.38739e-07)
(2.68684e-06 1.79174e-06 6.07929e-08)
(2.49508e-06 1.66554e-06 1.18181e-07)
(2.34522e-06 1.56672e-06 1.22731e-07)
(2.23325e-06 1.49324e-06 1.38676e-07)
(2.53439e-06 1.99494e-06 6.09582e-08)
(2.35356e-06 1.85412e-06 1.18199e-07)
(2.21232e-06 1.74384e-06 1.22701e-07)
(2.10679e-06 1.66173e-06 1.38612e-07)
(2.36694e-06 2.1866e-06 6.10692e-08)
(2.19848e-06 2.03173e-06 1.18201e-07)
(2.06688e-06 1.91053e-06 1.22675e-07)
(1.96861e-06 1.82013e-06 1.38566e-07)
(2.1866e-06 2.36694e-06 6.10692e-08)
(2.03173e-06 2.19848e-06 1.18201e-07)
(1.91053e-06 2.06688e-06 1.22675e-07)
(1.82013e-06 1.96861e-06 1.38566e-07)
(1.99494e-06 2.53439e-06 6.09582e-08)
(1.85412e-06 2.35356e-06 1.18199e-07)
(1.74384e-06 2.21232e-06 1.22701e-07)
(1.66173e-06 2.10679e-06 1.38612e-07)
(1.79174e-06 2.68684e-06 6.07929e-08)
(1.66554e-06 2.49508e-06 1.18181e-07)
(1.56672e-06 2.34522e-06 1.22731e-07)
(1.49324e-06 2.23325e-06 1.38676e-07)
(1.5775e-06 2.82275e-06 6.06443e-08)
(1.4665e-06 2.62143e-06 1.18164e-07)
(1.37961e-06 2.46405e-06 1.22759e-07)
(1.31505e-06 2.34646e-06 1.38739e-07)
(1.35316e-06 2.94087e-06 6.05305e-08)
(1.25791e-06 2.73134e-06 1.18155e-07)
(1.18339e-06 2.56748e-06 1.22787e-07)
(1.12803e-06 2.44511e-06 1.38795e-07)
(1.11993e-06 3.0402e-06 6.0451e-08)
(1.04097e-06 2.82377e-06 1.18154e-07)
(9.79243e-07 2.65451e-06 1.22814e-07)
(9.3337e-07 2.52815e-06 1.38846e-07)
(8.79211e-07 3.11994e-06 6.04007e-08)
(8.17065e-07 2.89796e-06 1.18161e-07)
(7.68558e-07 2.72435e-06 1.22844e-07)
(7.32483e-07 2.59481e-06 1.38895e-07)
(6.32525e-07 3.17959e-06 6.0365e-08)
(5.87746e-07 2.95343e-06 1.1818e-07)
(5.52892e-07 2.77659e-06 1.22893e-07)
(5.26942e-07 2.64467e-06 1.38959e-07)
(3.81317e-07 3.21898e-06 6.02481e-08)
(3.54673e-07 2.99015e-06 1.1823e-07)
(3.33876e-07 2.81122e-06 1.23012e-07)
(3.18372e-07 2.67774e-06 1.3907e-07)
(1.27411e-07 3.23951e-06 5.99326e-08)
(1.19441e-07 3.00931e-06 1.18317e-07)
(1.12825e-07 2.82911e-06 1.23219e-07)
(1.08114e-07 2.69471e-06 1.39182e-07)
(2.53393e-06 9.92497e-08 -1.31585e-07)
(2.37556e-06 9.38093e-08 3.75879e-08)
(2.25454e-06 8.93918e-08 1.58975e-07)
(2.16577e-06 8.62796e-08 2.95298e-07)
(2.51793e-06 2.97934e-07 -1.31077e-07)
(2.36051e-06 2.79621e-07 3.79323e-08)
(2.24024e-06 2.65699e-07 1.59263e-07)
(2.15205e-06 2.55526e-07 2.95587e-07)
(2.48716e-06 4.94528e-07 -1.30811e-07)
(2.33158e-06 4.63763e-07 3.80774e-08)
(2.21268e-06 4.40401e-07 1.5932e-07)
(2.12553e-06 4.23319e-07 2.95585e-07)
(2.44061e-06 6.8758e-07 -1.3066e-07)
(2.28789e-06 6.44904e-07 3.81333e-08)
(2.17115e-06 6.12388e-07 1.59294e-07)
(2.08553e-06 5.88642e-07 2.95485e-07)
(2.37838e-06 8.75946e-07 -1.30501e-07)
(2.22944e-06 8.21747e-07 3.8154e-08)
(2.11558e-06 7.80383e-07 1.59215e-07)
(2.03203e-06 7.50211e-07 2.95301e-07)
(2.30084e-06 1.05847e-06 -1.303e-07)
(2.15658e-06 9.93098e-07 3.81623e-08)
(2.04631e-06 9.43163e-07 1.59095e-07)
(1.96536e-06 9.06766e-07 2.95041e-07)
(2.20859e-06 1.23409e-06 -1.30055e-07)
(2.06992e-06 1.15787e-06 3.81651e-08)
(1.96395e-06 1.09962e-06 1.58944e-07)
(1.88613e-06 1.05717e-06 2.94721e-07)
(2.10241e-06 1.40185e-06 -1.29792e-07)
(1.97026e-06 1.31512e-06 3.81613e-08)
(1.86933e-06 1.24882e-06 1.58779e-07)
(1.79519e-06 1.20046e-06 2.94378e-07)
(1.98327e-06 1.56103e-06 -1.29556e-07)
(1.85862e-06 1.46415e-06 3.81462e-08)
(1.76348e-06 1.39007e-06 1.58626e-07)
(1.69363e-06 1.33595e-06 2.94073e-07)
(1.85235e-06 1.7112e-06 -1.29419e-07)
(1.73624e-06 1.60454e-06 3.81225e-08)
(1.64763e-06 1.52301e-06 1.58525e-07)
(1.58264e-06 1.46332e-06 2.93884e-07)
(1.7112e-06 1.85235e-06 -1.29419e-07)
(1.60454e-06 1.73624e-06 3.81225e-08)
(1.52301e-06 1.64763e-06 1.58525e-07)
(1.46332e-06 1.58264e-06 2.93884e-07)
(1.56103e-06 1.98327e-06 -1.29556e-07)
(1.46415e-06 1.85862e-06 3.81462e-08)
(1.39007e-06 1.76348e-06 1.58626e-07)
(1.33595e-06 1.69363e-06 2.94073e-07)
(1.40185e-06 2.10241e-06 -1.29792e-07)
(1.31512e-06 1.97026e-06 3.81613e-08)
(1.24882e-06 1.86933e-06 1.58779e-07)
(1.20046e-06 1.79519e-06 2.94378e-07)
(1.23409e-06 2.20859e-06 -1.30055e-07)
(1.15787e-06 2.06992e-06 3.81651e-08)
(1.09962e-06 1.96395e-06 1.58944e-07)
(1.05717e-06 1.88613e-06 2.94721e-07)
(1.05847e-06 2.30084e-06 -1.303e-07)
(9.93098e-07 2.15658e-06 3.81623e-08)
(9.43163e-07 2.04631e-06 1.59095e-07)
(9.06766e-07 1.96536e-06 2.95041e-07)
(8.75946e-07 2.37838e-06 -1.30501e-07)
(8.21747e-07 2.22944e-06 3.8154e-08)
(7.80383e-07 2.11558e-06 1.59215e-07)
(7.50212e-07 2.03203e-06 2.95301e-07)
(6.8758e-07 2.44061e-06 -1.3066e-07)
(6.44904e-07 2.28789e-06 3.81333e-08)
(6.12388e-07 2.17115e-06 1.59294e-07)
(5.88642e-07 2.08553e-06 2.95485e-07)
(4.94528e-07 2.48716e-06 -1.30811e-07)
(4.63763e-07 2.33158e-06 3.80774e-08)
(4.40401e-07 2.21268e-06 1.5932e-07)
(4.23319e-07 2.12553e-06 2.95585e-07)
(2.97934e-07 2.51793e-06 -1.31077e-07)
(2.79621e-07 2.36051e-06 3.79323e-08)
(2.65699e-07 2.24024e-06 1.59263e-07)
(2.55526e-07 2.15205e-06 2.95587e-07)
(9.92497e-08 2.53393e-06 -1.31585e-07)
(9.38093e-08 2.37556e-06 3.75879e-08)
(8.93918e-08 2.25454e-06 1.58975e-07)
(8.62796e-08 2.16577e-06 2.95298e-07)
(1.84207e-06 7.18644e-08 -1.83205e-07)
(1.72314e-06 6.77712e-08 -3.7094e-09)
(1.63842e-06 6.46614e-08 1.46051e-07)
(1.58362e-06 6.27157e-08 3.03998e-07)
(1.83031e-06 2.16344e-07 -1.82834e-07)
(1.71217e-06 2.02587e-07 -3.38977e-09)
(1.62802e-06 1.92841e-07 1.46345e-07)
(1.57364e-06 1.86579e-07 3.0425e-07)
(1.80796e-06 3.59343e-07 -1.82572e-07)
(1.69122e-06 3.36237e-07 -3.20541e-09)
(1.60804e-06 3.1989e-07 1.46455e-07)
(1.5543e-06 3.09367e-07 3.04291e-07)
(1.77424e-06 4.99787e-07 -1.8239e-07)
(1.65965e-06 4.6773e-07 -3.11259e-09)
(1.57797e-06 4.44983e-07 1.46461e-07)
(1.52517e-06 4.30362e-07 3.04216e-07)
(1.72919e-06 6.36848e-07 -1.82206e-07)
(1.61743e-06 5.96127e-07 -3.06759e-09)
(1.53775e-06 5.67195e-07 1.46391e-07)
(1.48621e-06 5.48634e-07 3.04027e-07)
(1.67307e-06 7.69699e-07 -1.81988e-07)
(1.5648e-06 7.20569e-07 -3.04568e-09)
(1.48761e-06 6.85642e-07 1.46262e-07)
(1.43763e-06 6.63265e-07 3.03737e-07)
(1.60627e-06 8.9757e-07 -1.81736e-07)
(1.50217e-06 8.40275e-07 -3.03725e-09)
(1.42795e-06 7.99522e-07 1.4609e-07)
(1.37987e-06 7.73419e-07 3.03372e-07)
(1.52933e-06 1.01978e-06 -1.81476e-07)
(1.43008e-06 9.54565e-07 -3.04081e-09)
(1.35936e-06 9.08149e-07 1.45902e-07)
(1.31354e-06 8.78391e-07 3.02981e-07)
(1.44293e-06 1.13578e-06 -1.81255e-07)
(1.34926e-06 1.0629e-06 -3.05676e-09)
(1.28257e-06 1.011e-06 1.4573e-07)
(1.23939e-06 9.77659e-07 3.02639e-07)
(1.34787e-06 1.24519e-06 -1.81128e-07)
(1.26056e-06 1.16494e-06 -3.07759e-09)
(1.19843e-06 1.10779e-06 1.45622e-07)
(1.15829e-06 1.07096e-06 3.02432e-07)
(1.24519e-06 1.34787e-06 -1.81128e-07)
(1.16494e-06 1.26056e-06 -3.07759e-09)
(1.10779e-06 1.19843e-06 1.45622e-07)
(1.07096e-06 1.15829e-06 3.02432e-07)
(1.13578e-06 1.44293e-06 -1.81255e-07)
(1.0629e-06 1.34926e-06 -3.05676e-09)
(1.011e-06 1.28257e-06 1.4573e-07)
(9.77659e-07 1.23939e-06 3.02639e-07)
(1.01978e-06 1.52933e-06 -1.81476e-07)
(9.54565e-07 1.43008e-06 -3.04081e-09)
(9.08149e-07 1.35936e-06 1.45902e-07)
(8.78391e-07 1.31354e-06 3.02982e-07)
(8.9757e-07 1.60627e-06 -1.81736e-07)
(8.40275e-07 1.50217e-06 -3.03725e-09)
(7.99522e-07 1.42795e-06 1.46091e-07)
(7.73419e-07 1.37987e-06 3.03372e-07)
(7.69699e-07 1.67307e-06 -1.81988e-07)
(7.20569e-07 1.5648e-06 -3.04568e-09)
(6.85642e-07 1.48761e-06 1.46262e-07)
(6.63265e-07 1.43763e-06 3.03737e-07)
(6.36848e-07 1.72919e-06 -1.82206e-07)
(5.96127e-07 1.61744e-06 -3.06759e-09)
(5.67195e-07 1.53775e-06 1.46391e-07)
(5.48634e-07 1.48621e-06 3.04027e-07)
(4.99787e-07 1.77424e-06 -1.8239e-07)
(4.6773e-07 1.65965e-06 -3.1126e-09)
(4.44983e-07 1.57797e-06 1.46461e-07)
(4.30362e-07 1.52518e-06 3.04216e-07)
(3.59343e-07 1.80796e-06 -1.82572e-07)
(3.36237e-07 1.69122e-06 -3.20541e-09)
(3.1989e-07 1.60804e-06 1.46455e-07)
(3.09367e-07 1.5543e-06 3.04291e-07)
(2.16344e-07 1.83031e-06 -1.82834e-07)
(2.02587e-07 1.71217e-06 -3.38978e-09)
(1.92841e-07 1.62802e-06 1.46345e-07)
(1.86579e-07 1.57364e-06 3.0425e-07)
(7.18644e-08 1.84207e-06 -1.83205e-07)
(6.77712e-08 1.72314e-06 -3.70941e-09)
(6.46614e-08 1.63842e-06 1.46051e-07)
(6.27157e-08 1.58362e-06 3.03998e-07)
(1.31735e-06 5.12541e-08 -1.60299e-07)
(1.2249e-06 4.80651e-08 -1.38043e-08)
(1.16292e-06 4.57765e-08 1.16306e-07)
(1.12807e-06 4.45135e-08 2.48597e-07)
(1.30883e-06 1.54611e-07 -1.60121e-07)
(1.21704e-06 1.43912e-07 -1.36515e-08)
(1.15553e-06 1.36771e-07 1.1644e-07)
(1.12102e-06 1.32781e-07 2.48689e-07)
(1.29286e-06 2.56936e-07 -1.59936e-07)
(1.20217e-06 2.38952e-07 -1.35213e-08)
(1.14139e-06 2.26978e-07 1.16516e-07)
(1.10729e-06 2.20279e-07 2.48715e-07)
(1.26884e-06 3.5746e-07 -1.59788e-07)
(1.17983e-06 3.32492e-07 -1.34379e-08)
(1.12016e-06 3.15828e-07 1.16532e-07)
(1.08665e-06 3.06524e-07 2.4867e-07)
(1.23679e-06 4.55596e-07 -1.59638e-07)
(1.14999e-06 4.23865e-07 -1.33898e-08)
(1.09177e-06 4.0267e-07 1.16488e-07)
(1.05905e-06 3.90865e-07 2.48535e-07)
(1.19687e-06 5.50758e-07 -1.59465e-07)
(1.11278e-06 5.12466e-07 -1.33636e-08)
(1.05637e-06 4.86878e-07 1.16392e-07)
(1.02463e-06 4.72654e-07 2.48313e-07)
(1.14934e-06 6.42396e-07 -1.59272e-07)
(1.06848e-06 5.97738e-07 -1.33519e-08)
(1.01423e-06 5.67882e-07 1.16258e-07)
(9.83678e-07 5.51293e-07 2.48026e-07)
(1.09455e-06 7.30013e-07 -1.59078e-07)
(1.01744e-06 6.79189e-07 -1.33519e-08)
(9.65726e-07 6.45186e-07 1.16107e-07)
(9.36597e-07 6.26271e-07 2.47717e-07)
(1.03296e-06 8.13188e-07 -1.58913e-07)
(9.60154e-07 7.56415e-07 -1.33614e-08)
(9.11357e-07 7.18399e-07 1.15972e-07)
(8.83896e-07 6.97196e-07 2.47446e-07)
(9.65084e-07 8.91604e-07 -1.58817e-07)
(8.97168e-07 8.29125e-07 -1.33739e-08)
(8.51682e-07 7.87268e-07 1.15888e-07)
(8.26142e-07 7.6384e-07 2.47284e-07)
(8.91604e-07 9.65084e-07 -1.58817e-07)
(8.29125e-07 8.97168e-07 -1.33739e-08)
(7.87268e-07 8.51682e-07 1.15888e-07)
(7.6384e-07 8.26142e-07 2.47284e-07)
(8.13188e-07 1.03296e-06 -1.58913e-07)
(7.56415e-07 9.60154e-07 -1.33614e-08)
(7.18399e-07 9.11357e-07 1.15972e-07)
(6.97197e-07 8.83896e-07 2.47446e-07)
(7.30013e-07 1.09455e-06 -1.59078e-07)
(6.79189e-07 1.01745e-06 -1.33519e-08)
(6.45186e-07 9.65726e-07 1.16107e-07)
(6.26271e-07 9.36597e-07 2.47717e-07)
(6.42396e-07 1.14934e-06 -1.59272e-07)
(5.97738e-07 1.06848e-06 -1.33519e-08)
(5.67882e-07 1.01423e-06 1.16258e-07)
(5.51293e-07 9.83678e-07 2.48026e-07)
(5.50759e-07 1.19687e-06 -1.59465e-07)
(5.12466e-07 1.11278e-06 -1.33636e-08)
(4.86878e-07 1.05637e-06 1.16392e-07)
(4.72654e-07 1.02463e-06 2.48313e-07)
(4.55596e-07 1.23679e-06 -1.59638e-07)
(4.23865e-07 1.14999e-06 -1.33898e-08)
(4.0267e-07 1.09177e-06 1.16488e-07)
(3.90865e-07 1.05905e-06 2.48535e-07)
(3.5746e-07 1.26884e-06 -1.59788e-07)
(3.32492e-07 1.17983e-06 -1.34379e-08)
(3.15828e-07 1.12016e-06 1.16532e-07)
(3.06524e-07 1.08665e-06 2.4867e-07)
(2.56936e-07 1.29286e-06 -1.59937e-07)
(2.38952e-07 1.20217e-06 -1.35213e-08)
(2.26978e-07 1.14139e-06 1.16516e-07)
(2.20279e-07 1.10729e-06 2.48715e-07)
(1.54611e-07 1.30883e-06 -1.60121e-07)
(1.43912e-07 1.21704e-06 -1.36515e-08)
(1.36771e-07 1.15553e-06 1.1644e-07)
(1.32782e-07 1.12102e-06 2.48689e-07)
(5.12541e-08 1.31735e-06 -1.60299e-07)
(4.80651e-08 1.2249e-06 -1.38043e-08)
(4.57765e-08 1.16292e-06 1.16306e-07)
(4.45135e-08 1.12807e-06 2.48597e-07)
(9.58442e-07 3.72545e-08 -1.17241e-07)
(8.86222e-07 3.4759e-08 -1.05476e-08)
(8.39304e-07 3.30197e-08 8.70702e-08)
(8.15118e-07 3.21281e-08 1.83953e-07)
(9.52179e-07 1.12476e-07 -1.17199e-07)
(8.80499e-07 1.04114e-07 -1.05288e-08)
(8.33977e-07 9.86971e-08 8.70726e-08)
(8.10053e-07 9.59134e-08 1.83928e-07)
(9.40573e-07 1.86958e-07 -1.17098e-07)
(8.69763e-07 1.72888e-07 -1.04671e-08)
(8.23795e-07 1.63803e-07 8.7098e-08)
(8.0016e-07 1.59134e-07 1.83925e-07)
(9.23155e-07 2.60149e-07 -1.17005e-07)
(8.53666e-07 2.40601e-07 -1.04131e-08)
(8.08536e-07 2.27954e-07 8.71089e-08)
(7.85316e-07 2.21466e-07 1.839e-07)
(8.99938e-07 3.31628e-07 -1.16907e-07)
(8.32179e-07 3.06775e-07 -1.03764e-08)
(7.88158e-07 2.90685e-07 8.70868e-08)
(7.65486e-07 2.82454e-07 1.83823e-07)
(8.7103e-07 4.0097e-07 -1.16796e-07)
(8.05398e-07 3.70973e-07 -1.03544e-08)
(7.62746e-07 3.51549e-07 8.70293e-08)
(7.40754e-07 3.41633e-07 1.83688e-07)
(8.36609e-07 4.6777e-07 -1.16673e-07)
(7.73499e-07 4.32792e-07 -1.03438e-08)
(7.32481e-07 4.10132e-07 8.69441e-08)
(7.1131e-07 3.98574e-07 1.83506e-07)
(7.96912e-07 5.31658e-07 -1.1655e-07)
(7.36729e-07 4.91865e-07 -1.03417e-08)
(6.97618e-07 4.6607e-07 8.68466e-08)
(6.77421e-07 4.529e-07 1.83306e-07)
(7.52237e-07 5.92308e-07 -1.16445e-07)
(6.95396e-07 5.47883e-07 -1.03457e-08)
(6.58478e-07 5.19061e-07 8.67582e-08)
(6.39426e-07 5.0431e-07 1.8313e-07)
(7.02935e-07 6.49457e-07 -1.16382e-07)
(6.49874e-07 6.00603e-07 -1.03518e-08)
(6.15438e-07 5.68891e-07 8.67036e-08)
(5.97703e-07 5.52607e-07 1.83025e-07)
(6.49457e-07 7.02935e-07 -1.16382e-07)
(6.00603e-07 6.49874e-07 -1.03518e-08)
(5.68891e-07 6.15438e-07 8.67036e-08)
(5.52607e-07 5.97703e-07 1.83025e-07)
(5.92308e-07 7.52237e-07 -1.16445e-07)
(5.47883e-07 6.95396e-07 -1.03457e-08)
(5.19061e-07 6.58478e-07 8.67582e-08)
(5.0431e-07 6.39426e-07 1.8313e-07)
(5.31658e-07 7.96912e-07 -1.1655e-07)
(4.91865e-07 7.36729e-07 -1.03417e-08)
(4.6607e-07 6.97618e-07 8.68466e-08)
(4.529e-07 6.77421e-07 1.83306e-07)
(4.6777e-07 8.36609e-07 -1.16673e-07)
(4.32792e-07 7.73499e-07 -1.03438e-08)
(4.10132e-07 7.32482e-07 8.69441e-08)
(3.98574e-07 7.1131e-07 1.83506e-07)
(4.0097e-07 8.7103e-07 -1.16796e-07)
(3.70973e-07 8.05398e-07 -1.03544e-08)
(3.51549e-07 7.62746e-07 8.70294e-08)
(3.41633e-07 7.40754e-07 1.83688e-07)
(3.31628e-07 8.99938e-07 -1.16907e-07)
(3.06775e-07 8.32179e-07 -1.03764e-08)
(2.90685e-07 7.88158e-07 8.70868e-08)
(2.82454e-07 7.65486e-07 1.83823e-07)
(2.60149e-07 9.23155e-07 -1.17005e-07)
(2.40601e-07 8.53666e-07 -1.04131e-08)
(2.27954e-07 8.08536e-07 8.71089e-08)
(2.21466e-07 7.85316e-07 1.839e-07)
(1.86958e-07 9.40573e-07 -1.17098e-07)
(1.72888e-07 8.69763e-07 -1.04671e-08)
(1.63803e-07 8.23795e-07 8.7098e-08)
(1.59134e-07 8.0016e-07 1.83925e-07)
(1.12476e-07 9.52179e-07 -1.17199e-07)
(1.04114e-07 8.80499e-07 -1.05288e-08)
(9.86972e-08 8.33977e-07 8.70727e-08)
(9.59134e-08 8.10053e-07 1.83928e-07)
(3.72545e-08 9.58442e-07 -1.17241e-07)
(3.4759e-08 8.86222e-07 -1.05477e-08)
(3.30197e-08 8.39304e-07 8.70702e-08)
(3.21281e-08 8.15118e-07 1.83953e-07)
(7.18121e-07 2.79254e-08 -7.9656e-08)
(6.61954e-07 2.59817e-08 -4.899e-09)
(6.25697e-07 2.46347e-08 6.4198e-08)
(6.07381e-07 2.3955e-08 1.31834e-07)
(7.13405e-07 8.4301e-08 -7.96788e-08)
(6.57663e-07 7.77936e-08 -4.94441e-09)
(6.21725e-07 7.35992e-08 6.41395e-08)
(6.03617e-07 7.14808e-08 1.3176e-07)
(7.04713e-07 1.40124e-07 -7.96367e-08)
(6.4965e-07 1.29165e-07 -4.92984e-09)
(6.14143e-07 1.22129e-07 6.41315e-08)
(5.96254e-07 1.18577e-07 1.31739e-07)
(6.91686e-07 1.94988e-07 -7.95903e-08)
(6.37654e-07 1.79756e-07 -4.90361e-09)
(6.02797e-07 1.69956e-07 6.41342e-08)
(5.85226e-07 1.65018e-07 1.31725e-07)
(6.74336e-07 2.48584e-07 -7.95377e-08)
(6.21656e-07 2.29213e-07 -4.88166e-09)
(5.8766e-07 2.16743e-07 6.41246e-08)
(5.70509e-07 2.10473e-07 1.31688e-07)
(6.52743e-07 3.00594e-07 -7.94769e-08)
(6.01723e-07 2.77212e-07 -4.86712e-09)
(5.68791e-07 2.62157e-07 6.40955e-08)
(5.52159e-07 2.54604e-07 1.31618e-07)
(6.27033e-07 3.5071e-07 -7.94088e-08)
(5.7798e-07 3.23449e-07 -4.85937e-09)
(5.46313e-07 3.05893e-07 6.4049e-08)
(5.30305e-07 2.97093e-07 1.31519e-07)
(5.97375e-07 3.98649e-07 -7.93388e-08)
(5.50598e-07 3.67648e-07 -4.85677e-09)
(5.20402e-07 3.47673e-07 6.3994e-08)
(5.0513e-07 3.37655e-07 1.31408e-07)
(5.63978e-07 4.44155e-07 -7.92771e-08)
(5.19791e-07 4.09564e-07 -4.85757e-09)
(4.9128e-07 3.87261e-07 6.39435e-08)
(4.76867e-07 3.76057e-07 1.31308e-07)
(5.27086e-07 4.87016e-07 -7.92391e-08)
(4.8582e-07 4.49e-07 -4.85997e-09)
(4.59212e-07 4.24478e-07 6.39121e-08)
(4.4578e-07 4.12129e-07 1.31248e-07)
(4.87016e-07 5.27086e-07 -7.92391e-08)
(4.49e-07 4.8582e-07 -4.85997e-09)
(4.24478e-07 4.59212e-07 6.39121e-08)
(4.12129e-07 4.4578e-07 1.31248e-07)
(4.44155e-07 5.63978e-07 -7.92771e-08)
(4.09564e-07 5.19791e-07 -4.85757e-09)
(3.87261e-07 4.91281e-07 6.39435e-08)
(3.76057e-07 4.76867e-07 1.31308e-07)
(3.98649e-07 5.97375e-07 -7.93388e-08)
(3.67648e-07 5.50598e-07 -4.85677e-09)
(3.47673e-07 5.20402e-07 6.3994e-08)
(3.37655e-07 5.0513e-07 1.31408e-07)
(3.5071e-07 6.27033e-07 -7.94088e-08)
(3.23449e-07 5.7798e-07 -4.85937e-09)
(3.05893e-07 5.46313e-07 6.4049e-08)
(2.97093e-07 5.30305e-07 1.31519e-07)
(3.00594e-07 6.52743e-07 -7.94769e-08)
(2.77212e-07 6.01723e-07 -4.86712e-09)
(2.62157e-07 5.68791e-07 6.40955e-08)
(2.54604e-07 5.52159e-07 1.31618e-07)
(2.48584e-07 6.74337e-07 -7.95377e-08)
(2.29213e-07 6.21656e-07 -4.88166e-09)
(2.16743e-07 5.8766e-07 6.41246e-08)
(2.10473e-07 5.70509e-07 1.31688e-07)
(1.94988e-07 6.91686e-07 -7.95903e-08)
(1.79756e-07 6.37654e-07 -4.90361e-09)
(1.69956e-07 6.02797e-07 6.41342e-08)
(1.65018e-07 5.85226e-07 1.31725e-07)
(1.40124e-07 7.04713e-07 -7.96367e-08)
(1.29165e-07 6.4965e-07 -4.92984e-09)
(1.22129e-07 6.14143e-07 6.41315e-08)
(1.18577e-07 5.96254e-07 1.31739e-07)
(8.4301e-08 7.13405e-07 -7.96788e-08)
(7.77936e-08 6.57663e-07 -4.9444e-09)
(7.35992e-08 6.21725e-07 6.41395e-08)
(7.14808e-08 6.03617e-07 1.3176e-07)
(2.79254e-08 7.18121e-07 -7.9656e-08)
(2.59817e-08 6.61954e-07 -4.899e-09)
(2.46348e-08 6.25697e-07 6.4198e-08)
(2.3955e-08 6.07381e-07 1.31834e-07)
(5.51998e-07 2.14867e-08 -5.37675e-08)
(5.08479e-07 1.99792e-08 -9.07423e-10)
(4.80193e-07 1.89275e-08 4.78278e-08)
(4.65632e-07 1.83878e-08 9.53221e-08)
(5.48369e-07 6.48284e-08 -5.38074e-08)
(5.05179e-07 5.97836e-08 -9.67348e-10)
(4.77142e-07 5.6507e-08 4.77582e-08)
(4.62743e-07 5.48186e-08 9.52454e-08)
(5.41686e-07 1.07742e-07 -5.37965e-08)
(4.99022e-07 9.92439e-08 -9.75262e-10)
(4.71321e-07 9.37453e-08 4.77367e-08)
(4.57098e-07 9.09142e-08 9.52184e-08)
(5.31675e-07 1.49923e-07 -5.37794e-08)
(4.89811e-07 1.38106e-07 -9.66928e-10)
(4.6262e-07 1.30446e-07 4.77337e-08)
(4.48652e-07 1.26506e-07 9.52092e-08)
(5.18351e-07 1.91134e-07 -5.37561e-08)
(4.77537e-07 1.76104e-07 -9.56529e-10)
(4.51021e-07 1.66354e-07 4.77298e-08)
(4.3739e-07 1.61348e-07 9.51947e-08)
(5.01773e-07 2.31131e-07 -5.37267e-08)
(4.6225e-07 2.12989e-07 -9.48442e-10)
(4.36568e-07 2.01218e-07 4.77168e-08)
(4.23355e-07 1.95186e-07 9.51637e-08)
(4.8204e-07 2.69678e-07 -5.36917e-08)
(4.44045e-07 2.48528e-07 -9.43452e-10)
(4.19352e-07 2.34804e-07 4.76942e-08)
(4.06639e-07 2.27779e-07 9.51159e-08)
(4.59276e-07 3.06552e-07 -5.36539e-08)
(4.23046e-07 2.82506e-07 -9.40952e-10)
(3.99502e-07 2.66898e-07 4.76661e-08)
(3.87375e-07 2.58907e-07 9.5059e-08)
(4.33637e-07 3.41551e-07 -5.36187e-08)
(3.99411e-07 3.14731e-07 -9.40146e-10)
(3.77178e-07 2.97315e-07 4.76397e-08)
(3.6573e-07 2.88387e-07 9.50068e-08)
(4.05302e-07 3.74507e-07 -5.35961e-08)
(3.73331e-07 3.45044e-07 -9.40684e-10)
(3.52575e-07 3.25906e-07 4.7623e-08)
(3.41899e-07 3.16079e-07 9.49749e-08)
(3.74507e-07 4.05302e-07 -5.35961e-08)
(3.45044e-07 3.73331e-07 -9.40684e-10)
(3.25906e-07 3.52575e-07 4.7623e-08)
(3.16079e-07 3.41899e-07 9.49749e-08)
(3.41551e-07 4.33637e-07 -5.36187e-08)
(3.14731e-07 3.99411e-07 -9.40148e-10)
(2.97315e-07 3.77178e-07 4.76397e-08)
(2.88387e-07 3.6573e-07 9.50068e-08)
(3.06552e-07 4.59276e-07 -5.3654e-08)
(2.82506e-07 4.23046e-07 -9.40955e-10)
(2.66898e-07 3.99502e-07 4.76661e-08)
(2.58908e-07 3.87375e-07 9.5059e-08)
(2.69678e-07 4.8204e-07 -5.36917e-08)
(2.48528e-07 4.44045e-07 -9.43454e-10)
(2.34804e-07 4.19352e-07 4.76942e-08)
(2.27779e-07 4.06639e-07 9.51159e-08)
(2.31131e-07 5.01773e-07 -5.37267e-08)
(2.12989e-07 4.6225e-07 -9.48445e-10)
(2.01218e-07 4.36568e-07 4.77168e-08)
(1.95186e-07 4.23355e-07 9.51637e-08)
(1.91134e-07 5.18351e-07 -5.37561e-08)
(1.76104e-07 4.77537e-07 -9.56531e-10)
(1.66354e-07 4.51021e-07 4.77298e-08)
(1.61348e-07 4.37391e-07 9.51947e-08)
(1.49923e-07 5.31675e-07 -5.37794e-08)
(1.38106e-07 4.89811e-07 -9.66931e-10)
(1.30446e-07 4.6262e-07 4.77337e-08)
(1.26506e-07 4.48652e-07 9.52093e-08)
(1.07742e-07 5.41686e-07 -5.37965e-08)
(9.92439e-08 4.99022e-07 -9.75264e-10)
(9.37453e-08 4.71321e-07 4.77367e-08)
(9.09142e-08 4.57098e-07 9.52184e-08)
(6.48284e-08 5.48369e-07 -5.38074e-08)
(5.97836e-08 5.05179e-07 -9.67346e-10)
(5.6507e-08 4.77142e-07 4.77582e-08)
(5.48186e-08 4.62743e-07 9.52454e-08)
(2.14867e-08 5.51998e-07 -5.37675e-08)
(1.99792e-08 5.08479e-07 -9.07426e-10)
(1.89275e-08 4.80193e-07 4.78278e-08)
(1.83878e-08 4.65632e-07 9.53221e-08)
(4.3088e-07 1.67874e-08 -3.7639e-08)
(3.97179e-07 1.56192e-08 9.94335e-10)
(3.75043e-07 1.47963e-08 3.63171e-08)
(3.63319e-07 1.43636e-08 7.08199e-08)
(4.28049e-07 5.06214e-08 -3.76747e-08)
(3.946e-07 4.67134e-08 9.42581e-10)
(3.72657e-07 4.41479e-08 3.62586e-08)
(3.61059e-07 4.27878e-08 7.07578e-08)
(4.22828e-07 8.41192e-08 -3.76759e-08)
(3.89785e-07 7.7535e-08 9.28406e-10)
(3.68106e-07 7.32289e-08 3.6236e-08)
(3.56649e-07 7.0947e-08 7.07331e-08)
(4.15009e-07 1.17044e-07 -3.76727e-08)
(3.82586e-07 1.07888e-07 9.28181e-10)
(3.61307e-07 1.01888e-07 3.62307e-08)
(3.50057e-07 9.87103e-08 7.07263e-08)
(4.04605e-07 1.49214e-07 -3.76645e-08)
(3.72997e-07 1.37566e-07 9.31876e-10)
(3.52248e-07 1.29928e-07 3.62287e-08)
(3.41272e-07 1.25889e-07 7.07213e-08)
(3.91666e-07 1.80438e-07 -3.76511e-08)
(3.61059e-07 1.66377e-07 9.35875e-10)
(3.40965e-07 1.57155e-07 3.62233e-08)
(3.30329e-07 1.52287e-07 7.07089e-08)
(3.76267e-07 2.1053e-07 -3.76331e-08)
(3.46846e-07 1.9414e-07 9.3906e-10)
(3.27528e-07 1.83389e-07 3.62131e-08)
(3.17297e-07 1.77719e-07 7.06871e-08)
(3.58506e-07 2.39316e-07 -3.76118e-08)
(3.30453e-07 2.20685e-07 9.41384e-10)
(3.12035e-07 2.08461e-07 3.61995e-08)
(3.02277e-07 2.02015e-07 7.06592e-08)
(3.38503e-07 2.66638e-07 -3.75905e-08)
(3.12001e-07 2.45862e-07 9.4292e-10)
(2.94608e-07 2.32225e-07 3.61861e-08)
(2.85396e-07 2.25028e-07 7.06325e-08)
(3.16394e-07 2.92361e-07 -3.75762e-08)
(2.91636e-07 2.69542e-07 9.43235e-10)
(2.75396e-07 2.54564e-07 3.61774e-08)
(2.66802e-07 2.46647e-07 7.06156e-08)
(2.92361e-07 3.16394e-07 -3.75762e-08)
(2.69542e-07 2.91636e-07 9.43234e-10)
(2.54564e-07 2.75396e-07 3.61774e-08)
(2.46647e-07 2.66802e-07 7.06156e-08)
(2.66638e-07 3.38503e-07 -3.75905e-08)