/*--------------------------------*- C++ -*----------------------------------*\
| =========                 |                                                 |
| \\      /  F ield         | foam-extend: Open Source CFD                    |
|  \\    /   O peration     | Version:     3.1                                |
|   \\  /    A nd           | Web:         http://www.extend-project.de       |
|    \\/     M anipulation  |                                                 |
\*---------------------------------------------------------------------------*/
FoamFile
{
    version     2.0;
    format      ascii;
    class       pointVectorField;
    location    "0.0003";
    object      pointD;
}
// * * * * * * * * * * * * * * * * * * * * * * * * * * * * * * * * * * * * * //

dimensions      [0 1 0 0 0 0 0];

internalField   nonuniform List<vector> 
8505
(
(0 0 0)
(0 0 0)
(0 0 0)
(0 0 0)
(0 0 0)
(0 0 0)
(0 0 0)
(0 0 0)
(0 0 0)
(0 0 0)
(0 0 0)
(0 0 0)
(0 0 0)
(0 0 0)
(0 0 0)
(0 0 0)
(0 0 0)
(0 0 0)
(0 0 0)
(0 0 0)
(0 0 0)
(0 0 0)
(0 0 0)
(0 0 0)
(0 0 0)
(0 0 0)
(0 0 0)
(0 0 0)
(0 0 0)
(0 0 0)
(0 0 0)
(0 0 0)
(0 0 0)
(0 0 0)
(0 0 0)
(0 0 0)
(0 0 0)
(0 0 0)
(0 0 0)
(0 0 0)
(0 0 0)
(0 0 0)
(0 0 0)
(0 0 0)
(0 0 0)
(0 0 0)
(0 0 0)
(0 0 0)
(0 0 0)
(0 0 0)
(0 0 0)
(0 0 0)
(0 0 0)
(0 0 0)
(0 0 0)
(0 0 0)
(0 0 0)
(0 0 0)
(0 0 0)
(0 0 0)
(0 0 0)
(0 0 0)
(0 0 0)
(0 0 0)
(0 0 0)
(0 0 0)
(0 0 0)
(0 0 0)
(0 0 0)
(0 0 0)
(0 0 0)
(0 0 0)
(0 0 0)
(0 0 0)
(0 0 0)
(0 0 0)
(0 0 0)
(0 0 0)
(0 0 0)
(0 0 0)
(0 0 0)
(0 0 0)
(0 0 0)
(0 0 0)
(0 0 0)
(0 0 0)
(0 0 0)
(0 0 0)
(0 0 0)
(0 0 0)
(0 0 0)
(0 0 0)
(0 0 0)
(0 0 0)
(0 0 0)
(0 0 0)
(0 0 0)
(0 0 0)
(0 0 0)
(0 0 0)
(0 0 0)
(0 0 0)
(0 0 0)
(0 0 0)
(0 0 0)
(9.00476e-06 0 3.42921e-06)
(8.12712e-06 0 1.3729e-06)
(7.54781e-06 0 2.23367e-07)
(7.20821e-06 0 -8.7663e-07)
(7.0996e-06 0 -2.69309e-06)
(8.94667e-06 6.98083e-07 3.35283e-06)
(8.08024e-06 6.33336e-07 1.3336e-06)
(7.50966e-06 5.89763e-07 1.93564e-07)
(7.17794e-06 5.64407e-07 -9.17141e-07)
(7.0782e-06 5.57643e-07 -2.77333e-06)
(8.86084e-06 1.40062e-06 3.35029e-06)
(8.00309e-06 1.26539e-06 1.332e-06)
(7.43832e-06 1.17704e-06 1.92376e-07)
(7.11021e-06 1.12607e-06 -9.18139e-07)
(7.01229e-06 1.11138e-06 -2.77356e-06)
(8.72208e-06 2.0908e-06 3.349e-06)
(7.87787e-06 1.88891e-06 1.33128e-06)
(7.32188e-06 1.75662e-06 1.92059e-07)
(6.99884e-06 1.68029e-06 -9.18095e-07)
(6.90231e-06 1.65819e-06 -2.77298e-06)
(8.52984e-06 2.76702e-06 3.34799e-06)
(7.70404e-06 2.50006e-06 1.33091e-06)
(7.16007e-06 2.32489e-06 1.92125e-07)
(6.84391e-06 2.22374e-06 -9.17576e-07)
(6.74923e-06 2.19444e-06 -2.77176e-06)
(8.28482e-06 3.42552e-06 3.34695e-06)
(7.48229e-06 3.09521e-06 1.33065e-06)
(6.95356e-06 2.87827e-06 1.92391e-07)
(6.64613e-06 2.75294e-06 -9.16751e-07)
(6.55381e-06 2.71663e-06 -2.77002e-06)
(7.98835e-06 4.06261e-06 3.34586e-06)
(7.21389e-06 3.67083e-06 1.33048e-06)
(6.7036e-06 3.41334e-06 1.92797e-07)
(6.40679e-06 3.26447e-06 -9.15699e-07)
(6.31739e-06 3.22125e-06 -2.76785e-06)
(7.6423e-06 4.67477e-06 3.34489e-06)
(6.90067e-06 4.22362e-06 1.33042e-06)
(6.41203e-06 3.92689e-06 1.9331e-07)
(6.12775e-06 3.75517e-06 -9.14525e-07)
(6.04194e-06 3.70507e-06 -2.76545e-06)
(7.249e-06 5.25871e-06 3.34431e-06)
(6.54491e-06 4.75055e-06 1.33055e-06)
(6.08111e-06 4.41609e-06 1.93876e-07)
(5.81133e-06 4.22228e-06 -9.13395e-07)
(5.72988e-06 4.1653e-06 -2.7632e-06)
(6.81109e-06 5.81132e-06 3.34439e-06)
(6.14914e-06 5.24886e-06 1.33086e-06)
(5.7134e-06 4.87841e-06 1.9438e-07)
(5.46012e-06 4.66345e-06 -9.12541e-07)
(5.38386e-06 4.59968e-06 -2.76154e-06)
(6.33038e-06 6.33038e-06 3.34462e-06)
(5.71605e-06 5.71605e-06 1.33106e-06)
(5.31161e-06 5.31161e-06 1.94598e-07)
(5.07671e-06 5.07671e-06 -9.12214e-07)
(5.00642e-06 5.00642e-06 -2.76093e-06)
(5.81132e-06 6.81109e-06 3.34439e-06)
(5.24886e-06 6.14914e-06 1.33086e-06)
(4.87841e-06 5.7134e-06 1.9438e-07)
(4.66345e-06 5.46012e-06 -9.12541e-07)
(4.59968e-06 5.38386e-06 -2.76154e-06)
(5.25871e-06 7.249e-06 3.34431e-06)
(4.75055e-06 6.54491e-06 1.33055e-06)
(4.41609e-06 6.08111e-06 1.93876e-07)
(4.22228e-06 5.81133e-06 -9.13395e-07)
(4.1653e-06 5.72988e-06 -2.7632e-06)
(4.67477e-06 7.6423e-06 3.34489e-06)
(4.22362e-06 6.90067e-06 1.33042e-06)
(3.92689e-06 6.41203e-06 1.9331e-07)
(3.75518e-06 6.12775e-06 -9.14525e-07)
(3.70507e-06 6.04194e-06 -2.76545e-06)
(4.06261e-06 7.98835e-06 3.34586e-06)
(3.67083e-06 7.21389e-06 1.33048e-06)
(3.41334e-06 6.7036e-06 1.92797e-07)
(3.26447e-06 6.40679e-06 -9.15699e-07)
(3.22125e-06 6.31739e-06 -2.76785e-06)
(3.42552e-06 8.28482e-06 3.34695e-06)
(3.09521e-06 7.48229e-06 1.33065e-06)
(2.87827e-06 6.95356e-06 1.92391e-07)
(2.75294e-06 6.64613e-06 -9.16751e-07)
(2.71663e-06 6.55381e-06 -2.77002e-06)
(2.76702e-06 8.52984e-06 3.34799e-06)
(2.50006e-06 7.70404e-06 1.33091e-06)
(2.32489e-06 7.16007e-06 1.92125e-07)
(2.22374e-06 6.84391e-06 -9.17576e-07)
(2.19444e-06 6.74923e-06 -2.77176e-06)
(2.0908e-06 8.72208e-06 3.349e-06)
(1.88891e-06 7.87787e-06 1.33128e-06)
(1.75662e-06 7.32188e-06 1.92059e-07)
(1.68029e-06 6.99884e-06 -9.18095e-07)
(1.65819e-06 6.90231e-06 -2.77298e-06)
(1.40062e-06 8.86084e-06 3.35029e-06)
(1.26539e-06 8.00309e-06 1.332e-06)
(1.17704e-06 7.43832e-06 1.92376e-07)
(1.12607e-06 7.11021e-06 -9.18139e-07)
(1.11138e-06 7.01229e-06 -2.77356e-06)
(6.98083e-07 8.94667e-06 3.35283e-06)
(6.33336e-07 8.08024e-06 1.3336e-06)
(5.89763e-07 7.50966e-06 1.93564e-07)
(5.64406e-07 7.17794e-06 -9.17141e-07)
(5.57643e-07 7.0782e-06 -2.77333e-06)
(0 9.00476e-06 3.42921e-06)
(0 8.12712e-06 1.3729e-06)
(0 7.54781e-06 2.23368e-07)
(0 7.20821e-06 -8.7663e-07)
(0 7.0996e-06 -2.69309e-06)
(1.39923e-05 0 2.2057e-06)
(1.34284e-05 0 1.20268e-06)
(1.28814e-05 0 3.77417e-07)
(1.24196e-05 0 -4.49841e-07)
(1.19763e-05 0 -1.47414e-06)
(1.39337e-05 1.09444e-06 2.17445e-06)
(1.33683e-05 1.05332e-06 1.17627e-06)
(1.28248e-05 1.01215e-06 3.52667e-07)
(1.23666e-05 9.78117e-07 -4.79423e-07)
(1.19221e-05 9.46608e-07 -1.51394e-06)
(1.38026e-05 2.18421e-06 2.17305e-06)
(1.32416e-05 2.09658e-06 1.17441e-06)
(1.27034e-05 2.01302e-06 3.50847e-07)
(1.22497e-05 1.94297e-06 -4.81082e-07)
(1.18089e-05 1.87493e-06 -1.51477e-06)
(1.35864e-05 3.25729e-06 2.17214e-06)
(1.30341e-05 3.12642e-06 1.17378e-06)
(1.25041e-05 3.00116e-06 3.50475e-07)
(1.20573e-05 2.89594e-06 -4.81119e-07)
(1.1623e-05 2.79373e-06 -1.5143e-06)
(1.3286e-05 4.30914e-06 2.17132e-06)
(1.27454e-05 4.13619e-06 1.17352e-06)
(1.22267e-05 3.97029e-06 3.50639e-07)
(1.17894e-05 3.83083e-06 -4.805e-07)
(1.13644e-05 3.69545e-06 -1.51305e-06)
(1.29026e-05 5.33343e-06 2.17039e-06)
(1.23769e-05 5.11953e-06 1.17339e-06)
(1.18726e-05 4.91406e-06 3.51069e-07)
(1.14475e-05 4.74129e-06 -4.79491e-07)
(1.10341e-05 4.57367e-06 -1.51119e-06)
(1.24386e-05 6.32418e-06 2.16938e-06)
(1.19308e-05 6.07037e-06 1.17336e-06)
(1.1444e-05 5.82642e-06 3.51683e-07)
(1.10336e-05 5.62123e-06 -4.78199e-07)
(1.06347e-05 5.42228e-06 -1.50885e-06)
(1.1897e-05 7.27585e-06 2.16847e-06)
(1.14105e-05 6.98319e-06 1.17347e-06)
(1.09443e-05 6.70186e-06 3.52435e-07)
(1.05514e-05 6.46517e-06 -4.76752e-07)
(1.01695e-05 6.23573e-06 -1.50628e-06)
(1.12819e-05 8.18348e-06 2.16792e-06)
(1.082e-05 7.85309e-06 1.17377e-06)
(1.03776e-05 7.53563e-06 3.53236e-07)
(1.0005e-05 7.26845e-06 -4.75357e-07)
(9.64282e-06 7.00941e-06 -1.50384e-06)
(1.0598e-05 9.04258e-06 2.16792e-06)
(1.0164e-05 8.67583e-06 1.17417e-06)
(9.74879e-06 8.32372e-06 3.53909e-07)
(9.39912e-06 8.02727e-06 -4.74307e-07)
(9.05949e-06 7.73972e-06 -1.50205e-06)
(9.84944e-06 9.84944e-06 2.16808e-06)
(9.4476e-06 9.4476e-06 1.17439e-06)
(9.06265e-06 9.06265e-06 3.54184e-07)
(8.73854e-06 8.73854e-06 -4.73909e-07)
(8.42395e-06 8.42395e-06 -1.50139e-06)
(9.04258e-06 1.0598e-05 2.16792e-06)
(8.67583e-06 1.0164e-05 1.17417e-06)
(8.32372e-06 9.74879e-06 3.53909e-07)
(8.02727e-06 9.39912e-06 -4.74307e-07)
(7.73972e-06 9.05949e-06 -1.50205e-06)
(8.18348e-06 1.12819e-05 2.16792e-06)
(7.85309e-06 1.082e-05 1.17377e-06)
(7.53563e-06 1.03776e-05 3.53236e-07)
(7.26845e-06 1.0005e-05 -4.75357e-07)
(7.00941e-06 9.64282e-06 -1.50384e-06)
(7.27585e-06 1.1897e-05 2.16847e-06)
(6.98319e-06 1.14105e-05 1.17347e-06)
(6.70186e-06 1.09443e-05 3.52435e-07)
(6.46517e-06 1.05514e-05 -4.76752e-07)
(6.23573e-06 1.01695e-05 -1.50628e-06)
(6.32418e-06 1.24386e-05 2.16938e-06)
(6.07037e-06 1.19308e-05 1.17336e-06)
(5.82642e-06 1.1444e-05 3.51683e-07)
(5.62123e-06 1.10336e-05 -4.78199e-07)
(5.42228e-06 1.06347e-05 -1.50885e-06)
(5.33343e-06 1.29026e-05 2.17039e-06)
(5.11953e-06 1.23769e-05 1.17339e-06)
(4.91406e-06 1.18726e-05 3.51069e-07)
(4.74129e-06 1.14475e-05 -4.79491e-07)
(4.57367e-06 1.10341e-05 -1.51119e-06)
(4.30914e-06 1.3286e-05 2.17132e-06)
(4.13619e-06 1.27454e-05 1.17352e-06)
(3.97029e-06 1.22267e-05 3.50639e-07)
(3.83083e-06 1.17894e-05 -4.805e-07)
(3.69545e-06 1.13644e-05 -1.51305e-06)
(3.25729e-06 1.35864e-05 2.17214e-06)
(3.12642e-06 1.30341e-05 1.17378e-06)
(3.00116e-06 1.25041e-05 3.50475e-07)
(2.89594e-06 1.20573e-05 -4.81119e-07)
(2.79373e-06 1.1623e-05 -1.5143e-06)
(2.18421e-06 1.38026e-05 2.17305e-06)
(2.09658e-06 1.32416e-05 1.17441e-06)
(2.01302e-06 1.27034e-05 3.50847e-07)
(1.94297e-06 1.22497e-05 -4.81082e-07)
(1.87493e-06 1.18089e-05 -1.51477e-06)
(1.09444e-06 1.39337e-05 2.17445e-06)
(1.05332e-06 1.33683e-05 1.17627e-06)
(1.01215e-06 1.28248e-05 3.52667e-07)
(9.78117e-07 1.23666e-05 -4.79423e-07)
(9.46608e-07 1.19221e-05 -1.51394e-06)
(0 1.39923e-05 2.2057e-06)
(0 1.34284e-05 1.20268e-06)
(0 1.28814e-05 3.77417e-07)
(0 1.24196e-05 -4.49841e-07)
(0 1.19763e-05 -1.47414e-06)
(1.46643e-05 0 1.22741e-07)
(1.42589e-05 0 3.01412e-07)
(1.38294e-05 0 3.25753e-07)
(1.34024e-05 0 3.22618e-07)
(1.29466e-05 0 4.0521e-07)
(1.46084e-05 1.14782e-06 1.31074e-07)
(1.42013e-05 1.11852e-06 3.03387e-07)
(1.37723e-05 1.08656e-06 3.2529e-07)
(1.33456e-05 1.05505e-06 3.22957e-07)
(1.28885e-05 1.02317e-06 4.10433e-07)
(1.44718e-05 2.28927e-06 1.31623e-07)
(1.40675e-05 2.2268e-06 3.03602e-07)
(1.36421e-05 2.16141e-06 3.25293e-07)
(1.3219e-05 2.09649e-06 3.23034e-07)
(1.27657e-05 2.02685e-06 4.10489e-07)
(1.42451e-05 3.41379e-06 1.31769e-07)
(1.38469e-05 3.32054e-06 3.0372e-07)
(1.34277e-05 3.22235e-06 3.25378e-07)
(1.30109e-05 3.12477e-06 3.23173e-07)
(1.25642e-05 3.02006e-06 4.10713e-07)
(1.39292e-05 4.51575e-06 1.31792e-07)
(1.35393e-05 4.39265e-06 3.03861e-07)
(1.31289e-05 4.26258e-06 3.25601e-07)
(1.2721e-05 4.13324e-06 3.23499e-07)
(1.22837e-05 3.99461e-06 4.11193e-07)
(1.35257e-05 5.58841e-06 1.3177e-07)
(1.31463e-05 5.43629e-06 3.04067e-07)
(1.27472e-05 5.27522e-06 3.25951e-07)
(1.23505e-05 5.11501e-06 3.24009e-07)
(1.19253e-05 4.94346e-06 4.11955e-07)
(1.3037e-05 6.62549e-06 1.31762e-07)
(1.26703e-05 6.44498e-06 3.04361e-07)
(1.22851e-05 6.2537e-06 3.26425e-07)
(1.19022e-05 6.06343e-06 3.24681e-07)
(1.14918e-05 5.85985e-06 4.12969e-07)
(1.24667e-05 7.62132e-06 1.31853e-07)
(1.21152e-05 7.4129e-06 3.04765e-07)
(1.17464e-05 7.19215e-06 3.26999e-07)
(1.13799e-05 6.97259e-06 3.2546e-07)
(1.09871e-05 6.73778e-06 4.14135e-07)
(1.18194e-05 8.57094e-06 1.32135e-07)
(1.14858e-05 8.33507e-06 3.0527e-07)
(1.1136e-05 8.08564e-06 3.27608e-07)
(1.07886e-05 7.83762e-06 3.26233e-07)
(1.04163e-05 7.57237e-06 4.15273e-07)
(1.11003e-05 9.47004e-06 1.32626e-07)
(1.07875e-05 9.20734e-06 3.05766e-07)
(1.04596e-05 8.93023e-06 3.28113e-07)
(1.0134e-05 8.65479e-06 3.26827e-07)
(9.78509e-06 8.36006e-06 4.16128e-07)
(1.0315e-05 1.0315e-05 1.32916e-07)
(1.00262e-05 1.00262e-05 3.0599e-07)
(9.72272e-06 9.72272e-06 3.28317e-07)
(9.42124e-06 9.42124e-06 3.27055e-07)
(9.09843e-06 9.09843e-06 4.1645e-07)
(9.47004e-06 1.11003e-05 1.32626e-07)
(9.20734e-06 1.07875e-05 3.05766e-07)
(8.93023e-06 1.04596e-05 3.28113e-07)
(8.65479e-06 1.0134e-05 3.26827e-07)
(8.36006e-06 9.78509e-06 4.16128e-07)
(8.57094e-06 1.18194e-05 1.32135e-07)
(8.33507e-06 1.14858e-05 3.0527e-07)
(8.08564e-06 1.1136e-05 3.27608e-07)
(7.83762e-06 1.07886e-05 3.26233e-07)
(7.57237e-06 1.04163e-05 4.15273e-07)
(7.62132e-06 1.24667e-05 1.31853e-07)
(7.4129e-06 1.21152e-05 3.04765e-07)
(7.19215e-06 1.17464e-05 3.26999e-07)
(6.97259e-06 1.13799e-05 3.2546e-07)
(6.73778e-06 1.09871e-05 4.14135e-07)
(6.62549e-06 1.3037e-05 1.31762e-07)
(6.44498e-06 1.26703e-05 3.04361e-07)
(6.2537e-06 1.22851e-05 3.26425e-07)
(6.06343e-06 1.19022e-05 3.24681e-07)
(5.85985e-06 1.14918e-05 4.12969e-07)
(5.58841e-06 1.35257e-05 1.3177e-07)
(5.43629e-06 1.31463e-05 3.04067e-07)
(5.27522e-06 1.27472e-05 3.25951e-07)
(5.11501e-06 1.23505e-05 3.24009e-07)
(4.94346e-06 1.19253e-05 4.11955e-07)
(4.51575e-06 1.39292e-05 1.31792e-07)
(4.39265e-06 1.35393e-05 3.03861e-07)
(4.26258e-06 1.31289e-05 3.25601e-07)
(4.13324e-06 1.2721e-05 3.23499e-07)
(3.99461e-06 1.22837e-05 4.11193e-07)
(3.41379e-06 1.42451e-05 1.31769e-07)
(3.32054e-06 1.38469e-05 3.0372e-07)
(3.22235e-06 1.34277e-05 3.25378e-07)
(3.12477e-06 1.30109e-05 3.23173e-07)
(3.02006e-06 1.25642e-05 4.10713e-07)
(2.28927e-06 1.44718e-05 1.31623e-07)
(2.2268e-06 1.40675e-05 3.03602e-07)
(2.16141e-06 1.36421e-05 3.25293e-07)
(2.09649e-06 1.3219e-05 3.23034e-07)
(2.02685e-06 1.27657e-05 4.10489e-07)
(1.14782e-06 1.46084e-05 1.31075e-07)
(1.11852e-06 1.42013e-05 3.03387e-07)
(1.08656e-06 1.37723e-05 3.2529e-07)
(1.05505e-06 1.33456e-05 3.22957e-07)
(1.02317e-06 1.28885e-05 4.10433e-07)
(0 1.46643e-05 1.22741e-07)
(0 1.42589e-05 3.01412e-07)
(0 1.38294e-05 3.25753e-07)
(0 1.34024e-05 3.22618e-07)
(0 1.29466e-05 4.0521e-07)
(1.24971e-05 0 -1.31604e-06)
(1.216e-05 0 -4.45834e-07)
(1.18327e-05 0 1.99794e-07)
(1.15121e-05 0 8.13893e-07)
(1.11917e-05 0 1.57745e-06)
(1.24488e-05 9.76313e-07 -1.287e-06)
(1.2112e-05 9.52318e-07 -4.24639e-07)
(1.17851e-05 9.28173e-07 2.18455e-07)
(1.14648e-05 9.04682e-07 8.35384e-07)
(1.11449e-05 8.82698e-07 1.60762e-06)
(1.23323e-05 1.94913e-06 -1.28517e-06)
(1.19979e-05 1.89769e-06 -4.23009e-07)
(1.16737e-05 1.8482e-06 2.19867e-07)
(1.13559e-05 1.7998e-06 8.36663e-07)
(1.10388e-05 1.7515e-06 1.6084e-06)
(1.2139e-05 2.9074e-06 -1.28404e-06)
(1.18096e-05 2.83065e-06 -4.22139e-07)
(1.14901e-05 2.75631e-06 2.20479e-07)
(1.1177e-05 2.68353e-06 8.37028e-07)
(1.08645e-05 2.61085e-06 1.60847e-06)
(1.18695e-05 3.84616e-06 -1.28307e-06)
(1.1547e-05 3.74492e-06 -4.21529e-07)
(1.12341e-05 3.64649e-06 2.20791e-07)
(1.09276e-05 3.55003e-06 8.37049e-07)
(1.06215e-05 3.4539e-06 1.60814e-06)
(1.15249e-05 4.75964e-06 -1.28203e-06)
(1.1211e-05 4.63462e-06 -4.20956e-07)
(1.09067e-05 4.51277e-06 2.21003e-07)
(1.06086e-05 4.39332e-06 8.36921e-07)
(1.03109e-05 4.27447e-06 1.6076e-06)
(1.11075e-05 5.64252e-06 -1.28085e-06)
(1.0804e-05 5.49421e-06 -4.20344e-07)
(1.05102e-05 5.34948e-06 2.21202e-07)
(1.02224e-05 5.20761e-06 8.36735e-07)
(9.93494e-06 5.06661e-06 1.60695e-06)
(1.06202e-05 6.49009e-06 -1.27956e-06)
(1.03293e-05 6.31877e-06 -4.19685e-07)
(1.0048e-05 6.15164e-06 2.21418e-07)
(9.77259e-06 5.98783e-06 8.36553e-07)
(9.4974e-06 5.82507e-06 1.60629e-06)
(1.00671e-05 7.2983e-06 -1.27827e-06)
(9.79116e-06 7.10422e-06 -4.19025e-07)
(9.5246e-06 6.91516e-06 2.21649e-07)
(9.26364e-06 6.72989e-06 8.36416e-07)
(9.00297e-06 6.54572e-06 1.60572e-06)
(9.45318e-06 8.06372e-06 -1.27715e-06)
(9.19469e-06 7.84724e-06 -4.18482e-07)
(8.94504e-06 7.63689e-06 2.21847e-07)
(8.70067e-06 7.43081e-06 8.36343e-07)
(8.45673e-06 7.2257e-06 1.60533e-06)
(8.7835e-06 8.7835e-06 -1.27667e-06)
(8.54516e-06 8.54516e-06 -4.18261e-07)
(8.31444e-06 8.31444e-06 2.21929e-07)
(8.08851e-06 8.08851e-06 8.36322e-07)
(7.86327e-06 7.86327e-06 1.6052e-06)
(8.06372e-06 9.45318e-06 -1.27715e-06)
(7.84724e-06 9.19469e-06 -4.18482e-07)
(7.63689e-06 8.94504e-06 2.21847e-07)
(7.43081e-06 8.70067e-06 8.36343e-07)
(7.2257e-06 8.45673e-06 1.60533e-06)
(7.2983e-06 1.00671e-05 -1.27827e-06)
(7.10422e-06 9.79116e-06 -4.19025e-07)
(6.91516e-06 9.5246e-06 2.21649e-07)
(6.72989e-06 9.26364e-06 8.36416e-07)
(6.54572e-06 9.00297e-06 1.60572e-06)
(6.49009e-06 1.06202e-05 -1.27956e-06)
(6.31878e-06 1.03293e-05 -4.19685e-07)
(6.15164e-06 1.0048e-05 2.21418e-07)
(5.98783e-06 9.77259e-06 8.36553e-07)
(5.82507e-06 9.4974e-06 1.60629e-06)
(5.64252e-06 1.11075e-05 -1.28085e-06)
(5.49421e-06 1.0804e-05 -4.20344e-07)
(5.34948e-06 1.05102e-05 2.21202e-07)
(5.20761e-06 1.02224e-05 8.36735e-07)
(5.06661e-06 9.93494e-06 1.60695e-06)
(4.75964e-06 1.15249e-05 -1.28203e-06)
(4.63462e-06 1.1211e-05 -4.20956e-07)
(4.51277e-06 1.09067e-05 2.21003e-07)
(4.39332e-06 1.06086e-05 8.36921e-07)
(4.27447e-06 1.03109e-05 1.6076e-06)
(3.84616e-06 1.18695e-05 -1.28307e-06)
(3.74492e-06 1.1547e-05 -4.21529e-07)
(3.64649e-06 1.12341e-05 2.20791e-07)
(3.55003e-06 1.09276e-05 8.37049e-07)
(3.4539e-06 1.06215e-05 1.60814e-06)
(2.9074e-06 1.2139e-05 -1.28404e-06)
(2.83065e-06 1.18096e-05 -4.22139e-07)
(2.75631e-06 1.14901e-05 2.20479e-07)
(2.68353e-06 1.1177e-05 8.37028e-07)
(2.61085e-06 1.08645e-05 1.60847e-06)
(1.94913e-06 1.23323e-05 -1.28517e-06)
(1.89769e-06 1.19979e-05 -4.23008e-07)
(1.8482e-06 1.16737e-05 2.19867e-07)
(1.7998e-06 1.13559e-05 8.36663e-07)
(1.7515e-06 1.10388e-05 1.6084e-06)
(9.76314e-07 1.24488e-05 -1.287e-06)
(9.52318e-07 1.2112e-05 -4.24639e-07)
(9.28173e-07 1.17851e-05 2.18455e-07)
(9.04682e-07 1.14648e-05 8.35384e-07)
(8.82698e-07 1.11449e-05 1.60762e-06)
(0 1.24971e-05 -1.31604e-06)
(0 1.216e-05 -4.45834e-07)
(0 1.18327e-05 1.99794e-07)
(0 1.15121e-05 8.13893e-07)
(0 1.11917e-05 1.57745e-06)
(9.45482e-06 0 -1.78898e-06)
(9.15549e-06 0 -7.67402e-07)
(8.90626e-06 0 9.04386e-08)
(8.69146e-06 0 9.21525e-07)
(8.51456e-06 0 1.85549e-06)
(9.41607e-06 7.36485e-07 -1.75711e-06)
(9.11867e-06 7.15463e-07 -7.4053e-07)
(8.87074e-06 6.97218e-07 1.16012e-07)
(8.65713e-06 6.81611e-07 9.49655e-07)
(8.4822e-06 6.69777e-07 1.89013e-06)
(9.32761e-06 1.47284e-06 -1.7551e-06)
(9.03271e-06 1.42739e-06 -7.38718e-07)
(8.78684e-06 1.38993e-06 1.17609e-07)
(8.57504e-06 1.35787e-06 9.51001e-07)
(8.40189e-06 1.33181e-06 1.89092e-06)
(9.18153e-06 2.19802e-06 -1.75357e-06)
(8.89114e-06 2.13009e-06 -7.37572e-07)
(8.64887e-06 2.07383e-06 1.1838e-07)
(8.44017e-06 2.0256e-06 9.51376e-07)
(8.26947e-06 1.98636e-06 1.89085e-06)
(8.97795e-06 2.90833e-06 -1.7521e-06)
(8.69364e-06 2.81872e-06 -7.36718e-07)
(8.45643e-06 2.74423e-06 1.18722e-07)
(8.25205e-06 2.68034e-06 9.51214e-07)
(8.08475e-06 2.62851e-06 1.8901e-06)
(8.71757e-06 3.59942e-06 -1.75048e-06)
(8.44093e-06 3.48877e-06 -7.35948e-07)
(8.21017e-06 3.39658e-06 1.18837e-07)
(8.01132e-06 3.31749e-06 9.507e-07)
(7.8484e-06 3.25351e-06 1.88883e-06)
(8.40193e-06 4.2673e-06 -1.74867e-06)
(8.13458e-06 4.13608e-06 -7.35187e-07)
(7.91172e-06 4.02659e-06 1.18831e-07)
(7.71968e-06 3.93264e-06 9.49965e-07)
(7.56221e-06 3.85678e-06 1.88719e-06)
(8.03335e-06 4.90845e-06 -1.74678e-06)
(7.7771e-06 4.75695e-06 -7.34437e-07)
(7.56369e-06 4.63047e-06 1.18771e-07)
(7.37985e-06 4.52191e-06 9.49146e-07)
(7.22904e-06 4.43423e-06 1.88541e-06)
(7.6149e-06 5.51986e-06 -1.74499e-06)
(7.37178e-06 5.34833e-06 -7.33755e-07)
(7.16952e-06 5.20517e-06 1.18706e-07)
(6.99537e-06 5.08222e-06 9.48396e-07)
(6.85257e-06 4.98271e-06 1.88378e-06)
(7.15031e-06 6.09897e-06 -1.74359e-06)
(6.92251e-06 5.90779e-06 -7.33241e-07)
(6.73312e-06 5.74839e-06 1.18667e-07)
(6.57015e-06 5.61138e-06 9.4787e-07)
(6.43678e-06 5.50009e-06 1.88263e-06)
(6.64357e-06 6.64357e-06 -1.74303e-06)
(6.43333e-06 6.43333e-06 -7.33042e-07)
(6.25838e-06 6.25838e-06 1.18657e-07)
(6.10792e-06 6.10792e-06 9.4768e-07)
(5.98518e-06 5.98518e-06 1.88221e-06)
(6.09897e-06 7.15031e-06 -1.74359e-06)
(5.90779e-06 6.92251e-06 -7.33241e-07)
(5.74839e-06 6.73312e-06 1.18667e-07)
(5.61138e-06 6.57015e-06 9.4787e-07)
(5.50009e-06 6.43678e-06 1.88263e-06)
(5.51986e-06 7.6149e-06 -1.74499e-06)
(5.34833e-06 7.37178e-06 -7.33755e-07)
(5.20517e-06 7.16952e-06 1.18706e-07)
(5.08222e-06 6.99537e-06 9.48396e-07)
(4.98271e-06 6.85257e-06 1.88378e-06)
(4.90845e-06 8.03335e-06 -1.74678e-06)
(4.75695e-06 7.7771e-06 -7.34437e-07)
(4.63047e-06 7.56369e-06 1.18771e-07)
(4.52191e-06 7.37985e-06 9.49146e-07)
(4.43423e-06 7.22904e-06 1.88541e-06)
(4.2673e-06 8.40193e-06 -1.74867e-06)
(4.13608e-06 8.13458e-06 -7.35187e-07)
(4.02659e-06 7.91172e-06 1.18831e-07)
(3.93264e-06 7.71968e-06 9.49965e-07)
(3.85678e-06 7.56221e-06 1.88719e-06)
(3.59942e-06 8.71757e-06 -1.75048e-06)
(3.48877e-06 8.44093e-06 -7.35948e-07)
(3.39658e-06 8.21017e-06 1.18837e-07)
(3.31749e-06 8.01132e-06 9.507e-07)
(3.25351e-06 7.8484e-06 1.88883e-06)
(2.90833e-06 8.97795e-06 -1.7521e-06)
(2.81872e-06 8.69364e-06 -7.36717e-07)
(2.74423e-06 8.45643e-06 1.18722e-07)
(2.68034e-06 8.25205e-06 9.51214e-07)
(2.62851e-06 8.08475e-06 1.8901e-06)
(2.19802e-06 9.18153e-06 -1.75357e-06)
(2.13009e-06 8.89114e-06 -7.37572e-07)
(2.07383e-06 8.64887e-06 1.1838e-07)
(2.0256e-06 8.44017e-06 9.51376e-07)
(1.98636e-06 8.26947e-06 1.89085e-06)
(1.47284e-06 9.32761e-06 -1.7551e-06)
(1.42739e-06 9.03271e-06 -7.38718e-07)
(1.38993e-06 8.78684e-06 1.17609e-07)
(1.35787e-06 8.57504e-06 9.51001e-07)
(1.33181e-06 8.40189e-06 1.89092e-06)
(7.36485e-07 9.41607e-06 -1.75711e-06)
(7.15463e-07 9.11867e-06 -7.4053e-07)
(6.97218e-07 8.87074e-06 1.16012e-07)
(6.81611e-07 8.65713e-06 9.49655e-07)
(6.69777e-07 8.4822e-06 1.89013e-06)
(0 9.45482e-06 -1.78898e-06)
(0 9.15549e-06 -7.67402e-07)
(0 8.90626e-06 9.04387e-08)
(0 8.69145e-06 9.21525e-07)
(0 8.51456e-06 1.8555e-06)
(6.77191e-06 0 -1.62131e-06)
(6.51022e-06 0 -7.57446e-07)
(6.3171e-06 0 2.62705e-08)
(6.17693e-06 0 7.90316e-07)
(6.09318e-06 0 1.59255e-06)
(6.74215e-06 5.26054e-07 -1.59575e-06)
(6.48302e-06 5.07778e-07 -7.33707e-07)
(6.29182e-06 4.93688e-07 4.98444e-08)
(6.15346e-06 4.83556e-07 8.15432e-07)
(6.07218e-06 4.78126e-07 1.6208e-06)
(6.67862e-06 1.05392e-06 -1.59426e-06)
(6.42184e-06 1.01414e-06 -7.32442e-07)
(6.23239e-06 9.85172e-07 5.09085e-08)
(6.09535e-06 9.64447e-07 8.16239e-07)
(6.01507e-06 9.52541e-07 1.62119e-06)
(6.5743e-06 1.57365e-06 -1.59291e-06)
(6.32154e-06 1.51409e-06 -7.31463e-07)
(6.1349e-06 1.47056e-06 5.15189e-08)
(5.99988e-06 1.43937e-06 8.16465e-07)
(5.92071e-06 1.42141e-06 1.62102e-06)
(6.42909e-06 2.0828e-06 -1.59151e-06)
(6.18173e-06 2.00415e-06 -7.30658e-07)
(5.99901e-06 1.94652e-06 5.18092e-08)
(5.86675e-06 1.90522e-06 8.16252e-07)
(5.78906e-06 1.88154e-06 1.62026e-06)
(6.24339e-06 2.57825e-06 -1.58996e-06)
(6.0028e-06 2.48111e-06 -7.29924e-07)
(5.82505e-06 2.40979e-06 5.18767e-08)
(5.69632e-06 2.35869e-06 8.15678e-07)
(5.62052e-06 2.32955e-06 1.61895e-06)
(6.01819e-06 3.05713e-06 -1.58824e-06)
(5.78577e-06 2.94197e-06 -7.29222e-07)
(5.61407e-06 2.85729e-06 5.17938e-08)
(5.48967e-06 2.79661e-06 8.14844e-07)
(5.41626e-06 2.7621e-06 1.61722e-06)
(5.75503e-06 3.51693e-06 -1.58646e-06)
(5.53229e-06 3.3841e-06 -7.28559e-07)
(5.36783e-06 3.28631e-06 5.16277e-08)
(5.24868e-06 3.21617e-06 8.13892e-07)
(5.17826e-06 3.17621e-06 1.61531e-06)
(5.45603e-06 3.95542e-06 -1.58481e-06)
(5.24464e-06 3.80525e-06 -7.27982e-07)
(5.0887e-06 3.69461e-06 5.14469e-08)
(4.97577e-06 3.61509e-06 8.13003e-07)
(4.90911e-06 3.56954e-06 1.61354e-06)
(5.12375e-06 4.37068e-06 -1.58356e-06)
(4.92549e-06 4.20362e-06 -7.27563e-07)
(4.77937e-06 4.08048e-06 5.13142e-08)
(4.67371e-06 3.99178e-06 8.12368e-07)
(4.61158e-06 3.94051e-06 1.61227e-06)
(4.76096e-06 4.76096e-06 -1.58307e-06)
(4.57765e-06 4.57765e-06 -7.27404e-07)
(4.44257e-06 4.44257e-06 5.12668e-08)
(4.34506e-06 4.34506e-06 8.12138e-07)
(4.28817e-06 4.28817e-06 1.61181e-06)
(4.37068e-06 5.12375e-06 -1.58356e-06)
(4.20362e-06 4.92549e-06 -7.27563e-07)
(4.08048e-06 4.77937e-06 5.13142e-08)
(3.99178e-06 4.67371e-06 8.12368e-07)
(3.94051e-06 4.61158e-06 1.61227e-06)
(3.95542e-06 5.45603e-06 -1.58481e-06)
(3.80525e-06 5.24464e-06 -7.27982e-07)
(3.69461e-06 5.0887e-06 5.14469e-08)
(3.61509e-06 4.97577e-06 8.13003e-07)
(3.56954e-06 4.90911e-06 1.61354e-06)
(3.51693e-06 5.75503e-06 -1.58646e-06)
(3.3841e-06 5.53229e-06 -7.28559e-07)
(3.28631e-06 5.36783e-06 5.16276e-08)
(3.21617e-06 5.24868e-06 8.13892e-07)
(3.17621e-06 5.17826e-06 1.61531e-06)
(3.05713e-06 6.01819e-06 -1.58824e-06)
(2.94197e-06 5.78577e-06 -7.29222e-07)
(2.8573e-06 5.61407e-06 5.17938e-08)
(2.79661e-06 5.48967e-06 8.14844e-07)
(2.7621e-06 5.41626e-06 1.61722e-06)
(2.57825e-06 6.24339e-06 -1.58996e-06)
(2.48111e-06 6.0028e-06 -7.29924e-07)
(2.40979e-06 5.82505e-06 5.18767e-08)
(2.35869e-06 5.69632e-06 8.15678e-07)
(2.32955e-06 5.62052e-06 1.61895e-06)
(2.0828e-06 6.42909e-06 -1.59151e-06)
(2.00415e-06 6.18173e-06 -7.30658e-07)
(1.94652e-06 5.99901e-06 5.18092e-08)
(1.90522e-06 5.86675e-06 8.16252e-07)
(1.88154e-06 5.78906e-06 1.62026e-06)
(1.57366e-06 6.5743e-06 -1.59291e-06)
(1.51409e-06 6.32154e-06 -7.31463e-07)
(1.47056e-06 6.1349e-06 5.15189e-08)
(1.43937e-06 5.99988e-06 8.16465e-07)
(1.42141e-06 5.92071e-06 1.62102e-06)
(1.05392e-06 6.67862e-06 -1.59426e-06)
(1.01414e-06 6.42184e-06 -7.32442e-07)
(9.85172e-07 6.23239e-06 5.09086e-08)
(9.64447e-07 6.09535e-06 8.16239e-07)
(9.52541e-07 6.01507e-06 1.62119e-06)
(5.26055e-07 6.74215e-06 -1.59575e-06)
(5.07778e-07 6.48302e-06 -7.33707e-07)
(4.93688e-07 6.29181e-06 4.98445e-08)
(4.83556e-07 6.15346e-06 8.15432e-07)
(4.78125e-07 6.07218e-06 1.6208e-06)
(0 6.7719e-06 -1.62131e-06)
(0 6.51022e-06 -7.57446e-07)
(0 6.3171e-06 2.62706e-08)
(0 6.17693e-06 7.90316e-07)
(0 6.09318e-06 1.59255e-06)
(4.83881e-06 0 -1.22367e-06)
(4.62031e-06 0 -5.99583e-07)
(4.46805e-06 0 5.40342e-10)
(4.37131e-06 0 5.8698e-07)
(4.33043e-06 0 1.17004e-06)
(4.81635e-06 3.75302e-07 -1.20609e-06)
(4.6002e-06 3.60028e-07 -5.8194e-07)
(4.44996e-06 3.48896e-07 1.85917e-08)
(4.35514e-06 3.41887e-07 6.05719e-07)
(4.31649e-06 3.39282e-07 1.18957e-06)
(4.7709e-06 7.52878e-07 -1.20527e-06)
(4.5568e-06 7.19516e-07 -5.81342e-07)
(4.40804e-06 6.96615e-07 1.90242e-08)
(4.31422e-06 6.82331e-07 6.05953e-07)
(4.27617e-06 6.76711e-07 1.18958e-06)
(4.69668e-06 1.12461e-06 -1.20438e-06)
(4.48598e-06 1.07457e-06 -5.80721e-07)
(4.33946e-06 1.04012e-06 1.9363e-08)
(4.24704e-06 1.01863e-06 6.06009e-07)
(4.2095e-06 1.01012e-06 1.18937e-06)
(4.59349e-06 1.48887e-06 -1.20339e-06)
(4.38737e-06 1.42274e-06 -5.80142e-07)
(4.24396e-06 1.37713e-06 1.95561e-08)
(4.15343e-06 1.34866e-06 6.05828e-07)
(4.11655e-06 1.33745e-06 1.18882e-06)
(4.46158e-06 1.84345e-06 -1.20227e-06)
(4.26119e-06 1.76177e-06 -5.79597e-07)
(4.12171e-06 1.70533e-06 1.96022e-08)
(4.03358e-06 1.67012e-06 6.05393e-07)
(3.99751e-06 1.65638e-06 1.18787e-06)
(4.30157e-06 2.1863e-06 -1.20104e-06)
(4.10806e-06 2.0895e-06 -5.79079e-07)
(3.97334e-06 2.02253e-06 1.95271e-08)
(3.88815e-06 1.98073e-06 6.04749e-07)
(3.85312e-06 1.96451e-06 1.18659e-06)
(4.11446e-06 2.51555e-06 -1.19977e-06)
(3.92904e-06 2.40402e-06 -5.78601e-07)
(3.79998e-06 2.32675e-06 1.93767e-08)
(3.71833e-06 2.27847e-06 6.03997e-07)
(3.68465e-06 2.25968e-06 1.18515e-06)
(3.90165e-06 2.82954e-06 -1.1986e-06)
(3.72563e-06 2.70365e-06 -5.7819e-07)
(3.60318e-06 2.61633e-06 1.92104e-08)
(3.52575e-06 2.56164e-06 6.03287e-07)
(3.49382e-06 2.54015e-06 1.1838e-06)
(3.66483e-06 3.12678e-06 -1.19772e-06)
(3.49959e-06 2.987e-06 -5.77894e-07)
(3.38474e-06 2.88994e-06 1.90871e-08)
(3.31222e-06 2.82897e-06 6.02777e-07)
(3.2825e-06 2.80466e-06 1.18283e-06)
(3.40584e-06 3.40584e-06 -1.19737e-06)
(3.25279e-06 3.25279e-06 -5.77781e-07)
(3.14647e-06 3.14647e-06 1.90429e-08)
(3.0795e-06 3.0795e-06 6.02592e-07)
(3.05238e-06 3.05238e-06 1.18247e-06)
(3.12678e-06 3.66483e-06 -1.19772e-06)
(2.987e-06 3.49959e-06 -5.77894e-07)
(2.88994e-06 3.38474e-06 1.90871e-08)
(2.82897e-06 3.31222e-06 6.02777e-07)
(2.80466e-06 3.2825e-06 1.18283e-06)
(2.82954e-06 3.90165e-06 -1.1986e-06)
(2.70365e-06 3.72563e-06 -5.7819e-07)
(2.61633e-06 3.60318e-06 1.92104e-08)
(2.56164e-06 3.52575e-06 6.03287e-07)
(2.54015e-06 3.49382e-06 1.1838e-06)
(2.51555e-06 4.11446e-06 -1.19977e-06)
(2.40401e-06 3.92904e-06 -5.78601e-07)
(2.32675e-06 3.79998e-06 1.93767e-08)
(2.27847e-06 3.71833e-06 6.03997e-07)
(2.25968e-06 3.68465e-06 1.18515e-06)
(2.1863e-06 4.30157e-06 -1.20104e-06)
(2.0895e-06 4.10806e-06 -5.79079e-07)
(2.02253e-06 3.97334e-06 1.95271e-08)
(1.98073e-06 3.88815e-06 6.04749e-07)
(1.96451e-06 3.85312e-06 1.18659e-06)
(1.84345e-06 4.46158e-06 -1.20227e-06)
(1.76177e-06 4.26119e-06 -5.79597e-07)
(1.70533e-06 4.12171e-06 1.96023e-08)
(1.67012e-06 4.03358e-06 6.05393e-07)
(1.65638e-06 3.99751e-06 1.18787e-06)
(1.48887e-06 4.59349e-06 -1.20339e-06)
(1.42274e-06 4.38737e-06 -5.80142e-07)
(1.37713e-06 4.24396e-06 1.95561e-08)
(1.34866e-06 4.15343e-06 6.05828e-07)
(1.33745e-06 4.11655e-06 1.18882e-06)
(1.12461e-06 4.69668e-06 -1.20438e-06)
(1.07457e-06 4.48598e-06 -5.80721e-07)
(1.04012e-06 4.33946e-06 1.9363e-08)
(1.01863e-06 4.24704e-06 6.06009e-07)
(1.01012e-06 4.2095e-06 1.18937e-06)
(7.52878e-07 4.7709e-06 -1.20527e-06)
(7.19516e-07 4.5568e-06 -5.81342e-07)
(6.96615e-07 4.40804e-06 1.90243e-08)
(6.8233e-07 4.31422e-06 6.05953e-07)
(6.76711e-07 4.27617e-06 1.18958e-06)
(3.75302e-07 4.81635e-06 -1.20609e-06)
(3.60028e-07 4.6002e-06 -5.8194e-07)
(3.48896e-07 4.44996e-06 1.85918e-08)
(3.41887e-07 4.35514e-06 6.05719e-07)
(3.39282e-07 4.31649e-06 1.18957e-06)
(0 4.83881e-06 -1.22366e-06)
(0 4.62031e-06 -5.99583e-07)
(0 4.46805e-06 5.40438e-10)
(0 4.37131e-06 5.8698e-07)
(0 4.33043e-06 1.17004e-06)
(3.56681e-06 0 -8.47568e-07)
(3.39213e-06 0 -4.25579e-07)
(3.27124e-06 0 -3.68499e-09)
(3.1981e-06 0 4.0853e-07)
(3.17063e-06 0 8.02276e-07)
(3.54981e-06 2.76639e-07 -8.36165e-07)
(3.37697e-06 2.6438e-07 -4.13486e-07)
(3.25782e-06 2.55497e-07 8.92842e-09)
(3.18635e-06 2.50152e-07 4.21371e-07)
(3.16059e-06 2.48349e-07 8.14913e-07)
(3.51633e-06 5.55219e-07 -8.35855e-07)
(3.34513e-06 5.28414e-07 -4.13355e-07)
(3.22721e-06 5.10132e-07 8.93837e-09)
(3.15654e-06 4.99253e-07 4.21257e-07)
(3.13121e-06 4.95425e-07 8.14697e-07)
(3.46181e-06 8.2948e-07 -8.35408e-07)
(3.29336e-06 7.89237e-07 -4.13066e-07)
(3.17724e-06 7.6172e-07 9.04996e-09)
(3.10764e-06 7.45347e-07 4.212e-07)
(3.08266e-06 7.39533e-07 8.14508e-07)
(3.38611e-06 1.09832e-06 -8.34867e-07)
(3.22136e-06 1.04511e-06 -4.1274e-07)
(3.10773e-06 1.00866e-06 9.14641e-09)
(3.03957e-06 9.86963e-07 4.21077e-07)
(3.01504e-06 9.79291e-07 8.14193e-07)
(3.28936e-06 1.3601e-06 -8.34238e-07)
(3.12925e-06 1.29436e-06 -4.12413e-07)
(3.01876e-06 1.24927e-06 9.17742e-09)