/*--------------------------------*- C++ -*----------------------------------*\
| =========                 |                                                 |
| \\      /  F ield         | foam-extend: Open Source CFD                    |
|  \\    /   O peration     | Version:     3.1                                |
|   \\  /    A nd           | Web:         http://www.extend-project.de       |
|    \\/     M anipulation  |                                                 |
\*---------------------------------------------------------------------------*/
FoamFile
{
    version     2.0;
    format      ascii;
    class       volScalarField;
    location    "0.0003";
    object      sigmaEq;
}
// * * * * * * * * * * * * * * * * * * * * * * * * * * * * * * * * * * * * * //

dimensions      [1 -1 -2 0 0 0 0];

internalField   nonuniform List<scalar> 
6400
(
2212.67
2103.77
1935.44
1716.83
2209.31
2101
1931.58
1714.15
2208.67
2100.5
1931.23
1714.13
2208.25
2100.18
1930.93
1713.84
2207.81
2099.73
1930.48
1713.34
2207.25
2099.11
1929.82
1712.63
2206.59
2098.31
1928.97
1711.74
2205.91
2097.44
1928.04
1710.79
2205.33
2096.66
1927.22
1709.96
2204.96
2096.17
1926.71
1709.46
2204.96
2096.17
1926.71
1709.46
2205.33
2096.66
1927.22
1709.96
2205.91
2097.44
1928.04
1710.79
2206.59
2098.31
1928.97
1711.74
2207.25
2099.11
1929.82
1712.63
2207.81
2099.73
1930.48
1713.34
2208.25
2100.18
1930.93
1713.84
2208.67
2100.5
1931.23
1714.13
2209.31
2101
1931.58
1714.14
2212.67
2103.77
1935.44
1716.83
1108.81
1238.9
1136.11
759.811
1111.7
1238.66
1131.04
751.447
1110.76
1238.26
1130.66
751.441
1110.23
1237.9
1130.37
751.411
1109.91
1237.43
1129.93
751.264
1109.76
1236.84
1129.3
750.961
1109.77
1236.14
1128.5
750.509
1109.93
1235.42
1127.62
749.971
1110.22
1234.79
1126.84
749.458
1110.87
1234.44
1126.36
749.132
1110.87
1234.44
1126.36
749.132
1110.22
1234.79
1126.84
749.458
1109.93
1235.42
1127.62
749.971
1109.77
1236.14
1128.5
750.509
1109.76
1236.84
1129.3
750.961
1109.91
1237.43
1129.93
751.264
1110.23
1237.9
1130.37
751.411
1110.76
1238.26
1130.66
751.441
1111.7
1238.66
1131.04
751.447
1108.81
1238.9
1136.11
759.811
1135.88
927.815
826.72
918.158
1132.1
923.8
824.086
920.402
1131.08
923.492
824.069
921.114
1130.56
923.34
824.105
921.241
1130.32
923.242
824.041
921.072
1130.35
923.208
823.856
920.639
1130.68
923.249
823.573
919.983
1131.28
923.369
823.244
919.208
1132.05
923.544
822.936
918.48
1133
923.728
822.746
918.022
1133
923.728
822.746
918.022
1132.05
923.544
822.936
918.48
1131.28
923.369
823.244
919.208
1130.68
923.249
823.573
919.983
1130.35
923.208
823.856
920.639
1130.32
923.242
824.041
921.072
1130.56
923.34
824.105
921.241
1131.08
923.492
824.069
921.114
1132.1
923.8
824.086
920.402
1135.88
927.815
826.72
918.158
1009.72
915.037
838.159
808.138
1008.51
912.864
835.806
806.481
1007.68
912.678
835.798
807.042
1007.12
912.468
835.757
807.159
1006.78
912.284
835.61
806.944
1006.72
912.155
835.336
806.4
1006.96
912.099
834.958
805.57
1007.46
912.118
834.53
804.578
1008.14
912.195
834.137
803.64
1008.89
912.294
833.892
803.048
1008.89
912.294
833.892
803.048
1008.14
912.195
834.137
803.64
1007.46
912.118
834.53
804.578
1006.96
912.099
834.958
805.57
1006.72
912.155
835.336
806.4
1006.78
912.284
835.61
806.944
1007.12
912.468
835.757
807.159
1007.68
912.678
835.798
807.042
1008.51
912.864
835.806
806.481
1009.72
915.037
838.159
808.138
747.159
731.049
675.006
573.392
748.276
730.504
673.073
569.845
747.696
730.419
673.03
570.135
747.201
730.177
672.913
570.235
746.852
729.878
672.664
570.089
746.732
729.57
672.263
569.649
746.869
729.28
671.733
568.928
747.229
729.03
671.14
568.031
747.717
728.842
670.595
567.156
748.226
728.755
670.255
566.593
748.226
728.755
670.255
566.593
747.717
728.842
670.595
567.156
747.229
729.03
671.14
568.031
746.869
729.28
671.733
568.928
746.732
729.57
672.263
569.649
746.852
729.878
672.664
570.089
747.201
730.177
672.913
570.235
747.696
730.419
673.03
570.135
748.276
730.504
673.073
569.845
747.159
731.049
675.006
573.392
542.09
501.793
457.919
399.039
543.005
501.72
457.037
397.448
542.559
501.683
457.03
397.62
542.174
501.514
456.967
397.734
541.9
501.285
456.791
397.682
541.806
501.044
456.489
397.412
541.915
500.813
456.079
396.925
542.189
500.608
455.611
396.292
542.542
500.445
455.175
395.66
542.88
500.36
454.902
395.249
542.88
500.36
454.902
395.249
542.542
500.445
455.175
395.66
542.189
500.608
455.611
396.292
541.915
500.813
456.079
396.925
541.806
501.044
456.489
397.412
541.9
501.285
456.791
397.682
542.174
501.514
456.967
397.734
542.559
501.683
457.03
397.62
543.005
501.72
457.037
397.448
542.09
501.793
457.919
399.039
420.153
343.419
302.806
297.741
420.226
343.237
302.764
298.154
419.852
343.195
302.785
298.273
419.555
343.115
302.805
298.376
419.347
343.013
302.755
298.359
419.271
342.93
302.631
298.183
419.342
342.877
302.44
297.855
419.532
342.852
302.211
297.429
419.778
342.846
301.992
297.009
420.008
342.854
301.855
296.739
420.008
342.854
301.855
296.739
419.778
342.846
301.992
297.009
419.532
342.852
302.211
297.429
419.342
342.877
302.44
297.855
419.271
342.93
302.631
298.183
419.347
343.013
302.755
298.359
419.555
343.115
302.805
298.376
419.852
343.195
302.785
298.273
420.226
343.237
302.764
298.154
420.153
343.419
302.806
297.741
331.051
255.434
217.146
223.785
330.912
255.142
217.275
224.547
330.619
255.081
217.276
224.605
330.393
255.044
217.322
224.684
330.232
255.003
217.332
224.681
330.161
254.99
217.301
224.562
330.193
255.014
217.235
224.336
330.312
255.065
217.146
224.044
330.477
255.127
217.058
223.761
330.639
255.176
217.004
223.582
330.639
255.176
217.004
223.582
330.477
255.127
217.058
223.761
330.312
255.065
217.146
224.044
330.193
255.014
217.235
224.336
330.161
254.99
217.301
224.562
330.232
255.003
217.332
224.681
330.393
255.044
217.322
224.684
330.618
255.081
217.276
224.605
330.912
255.142
217.275
224.547
331.051
255.434
217.146
223.785
255.389
198.543
165.527
163.982
255.371
198.257
165.502
164.38
255.159
198.196
165.474
164.388
254.999
198.174
165.512
164.452
254.884
198.149
165.532
164.472
254.827
198.143
165.525
164.415
254.842
198.163
165.496
164.28
254.919
198.204
165.452
164.098
255.034
198.255
165.408
163.918
255.154
198.297
165.381
163.804
255.154
198.297
165.381
163.804
255.034
198.255
165.408
163.918
254.919
198.204
165.452
164.098
254.842
198.163
165.496
164.28
254.827
198.143
165.525
164.415
254.884
198.149
165.532
164.472
254.999
198.174
165.512
164.452
255.159
198.196
165.474
164.388
255.371
198.257
165.502
164.379
255.389
198.543
165.527
163.982
194.957
155.087
128.628
120.697
195.05
154.845
128.476
120.743
194.897
154.794
128.436
120.728
194.788
154.781
128.465
120.782
194.709
154.765
128.486
120.822
194.671
154.758
128.488
120.813
194.682
154.767
128.473
120.749
194.737
154.79
128.447
120.649
194.821
154.821
128.42
120.544
194.916
154.849
128.404
120.476
194.916
154.849
128.404
120.476
194.821
154.821
128.42
120.544
194.737
154.79
128.447
120.649
194.682
154.767
128.473
120.749
194.671
154.758
128.488
120.813
194.709
154.765
128.486
120.822
194.788
154.781
128.465
120.782
194.897
154.794
128.436
120.728
195.05
154.845
128.476
120.743
194.957
155.087
128.628
120.697
149.929
121.531
101.152
91.8484
150.054
121.336
100.963
91.7247
149.939
121.297
100.924
91.7049
149.861
121.288
100.944
91.7478
149.807
121.277
100.963
91.7896
149.782
121.271
100.969
91.8011
149.792
121.275
100.962
91.7752
149.833
121.289
100.946
91.7205
149.897
121.309
100.928
91.6576
149.971
121.328
100.917
91.6149
149.971
121.328
100.917
91.6149
149.897
121.309
100.928
91.6576
149.833
121.289
100.946
91.7204
149.792
121.275
100.962
91.7752
149.782
121.271
100.969
91.8011
149.807
121.277
100.963
91.7896
149.861
121.288
100.944
91.7478
149.939
121.297
100.924
91.7049
150.054
121.335
100.963
91.7247
149.929
121.531
101.152
91.8483
116.74
95.7697
80.2504
71.9752
116.854
95.6165
80.076
71.8106
116.765
95.5863
80.0431
71.7926
116.706
95.5785
80.0558
71.8235
116.666
95.5692
80.0688
71.8569
116.647
95.564
80.0737
71.8702
116.656
95.5656
80.0691
71.8567
116.688
95.574
80.0573
71.8212
116.737
95.5868
80.0432
71.7778
116.796
95.6
80.0341
71.7473
116.796
95.6
80.0341
71.7473
116.737
95.5868
80.0432
71.7778
116.688
95.574
80.0572
71.8212
116.656
95.5656
80.0691
71.8567
116.647
95.5639
80.0737
71.8702
116.666
95.5692
80.0688
71.8569
116.706
95.5785
80.0558
71.8236
116.765
95.5863
80.0431
71.7926
116.854
95.6164
80.076
71.8106
116.74
95.7697
80.2504
71.9751
91.6884
75.6557
63.7527
57.0697
91.7818
75.5384
63.6105
56.9213
91.7107
75.5149
63.5838
56.9065
91.6642
75.507
63.5909
56.9278
91.6328
75.4983
63.5985
56.9514
91.619
75.493
63.6005
56.9605
91.6259
75.4932
63.5956
56.9498
91.6515
75.4986
63.5853
56.9223
91.6903
75.5074
63.5732
56.8884
91.7375
75.5169
63.5653
56.8644
91.7375
75.5169
63.5653
56.8644
91.6903
75.5074
63.5732
56.8884
91.6515
75.4986
63.5852
56.9223
91.6259
75.4932
63.5956
56.9497
91.619
75.493
63.6005
56.9605
91.6327
75.4982
63.5985
56.9514
91.6641
75.507
63.5909
56.9279
91.7106
75.5148
63.5838
56.9065
91.7818
75.5383
63.6105
56.9213
91.6885
75.6557
63.7527
57.0697
72.3205
59.7378
50.4839
45.2931
72.3928
59.648
50.3738
45.1766
72.3364
59.6297
50.3528
45.1649
72.2994
59.6224
50.3567
45.1799
72.2746
59.6146
50.361
45.1961
72.264
59.6099
50.3612
45.2013
72.2699
59.6096
50.3562
45.1914
72.2906
59.6136
50.3472
45.1688
72.3217
59.6203
50.3371
45.1414
72.3592
59.6277
50.3304
45.122
72.3592
59.6276
50.3304
45.122
72.3217
59.6203
50.3371
45.1414
72.2906
59.6136
50.3472
45.1688
72.2699
59.6096
50.3562
45.1914
72.264
59.6099
50.3612
45.2013
72.2746
59.6146
50.361
45.1961
72.2993
59.6224
50.3567
45.1799
72.3363
59.6297
50.3528
45.165
72.3928
59.6479
50.3738
45.1766
72.3205
59.7378
50.4839
45.293
57.1377
47.1264
39.8485
35.8621
57.1929
47.0567
39.7644
35.7753
57.1482
47.0425
39.7482
35.7662
57.1189
47.0365
39.7507
35.7772
57.0993
47.0301
39.7534
35.7887
57.0911
47.0262
39.7529
35.7915
57.096
47.0262
39.7487
35.7828
57.1127
47.0295
39.7413
35.7643
57.1377
47.035
39.7332
35.7422
57.1675
47.041
39.7279
35.7266
57.1675
47.041
39.7279
35.7266
57.1377
47.035
39.7332
35.7422
57.1127
47.0295
39.7413
35.7643
57.096
47.0261
39.7486
35.7828
57.0911
47.0262
39.7529
35.7915
57.0992
47.03
39.7534
35.7887
57.1188
47.0365
39.7507
35.7772
57.1482
47.0425
39.7482
35.7662
57.1928
47.0567
39.7644
35.7753
57.1377
47.1264
39.8485
35.862
45.1592
37.1698
31.4076
28.3275
45.2015
37.1149
31.3428
28.2629
45.1662
37.1038
31.3302
28.2559
45.143
37.0991
31.3322
28.2643
45.1276
37.0941
31.3342
28.2729
45.1212
37.0912
31.3338
28.2747
45.1252
37.0913
31.3304
28.2674
45.1385
37.0943
31.3248
28.2526
45.1584
37.0989
31.3185
28.235
45.182
37.1038
31.3144
28.2227
45.182
37.1038
31.3144
28.2227
45.1584
37.0989
31.3185
28.235
45.1385
37.0943
31.3248
28.2525
45.1252
37.0913
31.3304
28.2674
45.1212
37.0912
31.3337
28.2747
45.1275
37.0941
31.3342
28.273
45.143
37.0991
31.3322
28.2644
45.1662
37.1038
31.3302
28.2559
45.2015
37.1149
31.3427
28.2629
45.1592
37.1698
31.4076
28.3275
35.6877
29.3268
24.7533
22.343
35.7205
29.2831
24.7025
22.2936
35.6926
29.2745
24.6928
22.2882
35.6743
29.2709
24.6945
22.2949
35.6621
29.267
24.6962
22.3016
35.6571
29.2648
24.6959
22.3029
35.6602
29.2651
24.6934
22.2971
35.6708
29.2676
24.6891
22.2854
35.6865
29.2715
24.6844
22.2717
35.7052
29.2755
24.6813
22.262
35.7052
29.2755
24.6813
22.262
35.6865
29.2715
24.6844
22.2716
35.6708
29.2676
24.6891
22.2854
35.6602
29.2651
24.6934
22.2971
35.6571
29.2648
24.6959
22.3029
35.6621
29.267
24.6962
22.3016
35.6743
29.2709
24.6945
22.2949
35.6926
29.2745
24.6928
22.2882
35.7204
29.2831
24.7025
22.2936
35.6877
29.3268
24.7533
22.3429
28.1979
23.1501
19.5198
17.613
28.2235
23.1152
19.4795
17.5742
28.2015
23.1085
19.4719
17.57
28.1871
23.1057
19.4734
17.5754
28.1775
23.1028
19.4748
17.5808
28.1735
23.1011
19.4747
17.5819
28.1759
23.1014
19.4728
17.5774
28.1842
23.1035
19.4696
17.5683
28.1965
23.1066
19.466
17.5576
28.2114
23.1098
19.4636
17.5501
28.2114
23.1098
19.4636
17.5501
28.1965
23.1066
19.4659
17.5576
28.1842
23.1034
19.4696
17.5683
28.1759
23.1014
19.4728
17.5774
28.1734
23.1011
19.4747
17.5819
28.1774
23.1027
19.4748
17.5808
28.187
23.1057
19.4734
17.5754
28.2014
23.1084
19.4719
17.5701
28.2235
23.1152
19.4794
17.5742
28.1979
23.1501
19.5198
17.6129
22.2791
18.282
15.4022
13.8852
22.2991
18.2541
15.37
13.8543
22.2817
18.2487
15.3641
13.851
22.2704
18.2466
15.3653
13.8554
22.2628
18.2443
15.3665
13.8597
22.2596
18.2431
15.3665
13.8607
22.2615
18.2433
15.3652
13.8573
22.268
18.2449
15.3627
13.8502
22.2777
18.2474
15.3598
13.8418
22.2895
18.25
15.358
13.836
22.2895
18.25
15.358
13.836
22.2777
18.2474
15.3598
13.8418
22.268
18.2449
15.3626
13.8502
22.2615
18.2433
15.3651
13.8572
22.2596
18.2431
15.3665
13.8607
22.2627
18.2443
15.3665
13.8597
22.2703
18.2466
15.3653
13.8554
22.2817
18.2487
15.3641
13.851
22.2991
18.254
15.37
13.8543
22.2791
18.282
15.4022
13.8852
17.6041
14.4414
12.1585
10.9498
17.6199
14.4191
12.1327
10.925
17.6061
14.4149
12.1281
10.9225
17.5972
14.4133
12.1291
10.926
17.5912
14.4115
12.1301
10.9294
17.5887
14.4105
12.1301
10.9303
17.5901
14.4107
12.1291
10.9277
17.5952
14.412
12.1271
10.9222
17.6029
14.4139
12.1249
10.9157
17.6122
14.4159
12.1235
10.9111
17.6122
14.4159
12.1235
10.9111
17.6029
14.4139
12.1249
10.9156
17.5952
14.412
12.1271
10.9222
17.5901
14.4107
12.1291
10.9277
17.5886
14.4105
12.1301
10.9303
17.5911
14.4115
12.1301
10.9295
17.5971
14.4133
12.1291
10.926
17.6061
14.4149
12.128
10.9225
17.6199
14.4191
12.1327
10.925
17.6041
14.4414
12.1585
10.9498
13.9123
11.4093
9.6
8.63757
13.9246
11.3915
9.57938
8.61774
13.9137
11.3882
9.57571
8.61574
13.9066
11.3869
9.57656
8.61852
13.9019
11.3855
9.57736
8.62131
13.8999
11.3847
9.57741
8.62201
13.901
11.3849
9.57659
8.62
13.905
11.3859
9.57507
8.61572
13.9111
11.3874
9.57335
8.61059
13.9184
11.389
9.57222
8.60698
13.9184
11.389
9.57222
8.60697
13.9111
11.3874
9.57334
8.61058
13.905
11.3859
9.57506
8.6157
13.901
11.3849
9.57657
8.61999
13.8999
11.3847
9.5774
8.62201
13.9018
11.3855
9.57735
8.62131
13.9065
11.3869
9.57654
8.61852
13.9136
11.3882
9.57568
8.61574
13.9246
11.3915
9.57935
8.61771
13.9122
11.4093
9.59997
8.63752
10.9962
9.01436
7.58029
6.81483
11.0058
9.00015
7.56384
6.79899
10.9972
8.99755
7.56095
6.79743
10.9916
8.99655
7.56163
6.79964
10.9879
8.99544
7.56228
6.80187
10.9863
8.99482
7.56232
6.80244
10.9872
8.99493
7.56168
6.80088
10.9903
8.9957
7.56049
6.79752
10.9951
8.99691
7.55913
6.79349
11.0009
8.99816
7.55824
6.79065
11.0009
8.99815
7.55824
6.79064
10.9951
8.99689
7.55912
6.79348
10.9903
8.99569
7.56047
6.79751
10.9872
8.99491
7.56167
6.80087
10.9863
8.9948
7.56231
6.80244
10.9878
8.99541
7.56226
6.80187
10.9915
8.99651
7.56161
6.79965
10.9971
8.9975
7.56092
6.79742
11.0058
9.00011
7.5638
6.79896
10.9961
9.01433
7.58026
6.81478
8.69218
7.12223
5.98535
5.37703
8.69973
7.11089
5.97222
5.36442
8.69287
7.10883
5.96995
5.3632
8.68844
7.10805
5.9705
5.36496
8.6855
7.10717
5.97102
5.36673
8.68424
7.10668
5.97106
5.3672
8.68493
7.10676
5.97056
5.36598
8.68739
7.10737
5.96962
5.36334
8.69115
7.10832
5.96855
5.36016
8.69578
7.1093
5.96784
5.35792
8.69577
7.1093
5.96784
5.35791
8.69114
7.1083
5.96854
5.36015
8.68738
7.10736
5.9696
5.36332
8.68491
7.10674
5.97054
5.36596
8.68421
7.10666
5.97104
5.36719
8.68545
7.10714
5.971
5.36673
8.68837
7.10801
5.97048
5.36496
8.6928
7.10878
5.96992
5.36319
8.69968
7.11084
5.97218
5.36438
8.69214
7.12219
5.98531
5.37699
6.87127
5.6272
4.72573
4.24247
6.87717
5.61815
4.71527
4.23244
6.87173
5.61653
4.71348
4.23149
6.86822
5.61592
4.71393
4.23289
6.86589
5.61523
4.71434
4.23429
6.86489
5.61484
4.71437
4.23467
6.86543
5.6149
4.71398
4.23371
6.86737
5.61538
4.71324
4.23163
6.87033
5.61612
4.71239
4.22913
6.874
5.6169
4.71183
4.22736
6.87399
5.6169
4.71183
4.22736
6.87032
5.61611
4.71238
4.22912
6.86735
5.61536
4.71322
4.23162
6.86541
5.61488
4.71396
4.2337
6.86486
5.61481
4.71435
4.23466
6.86584
5.61519
4.71432
4.23429
6.86815
5.61587
4.7139
4.23288
6.87165
5.61648
4.71344
4.23147
6.87711
5.6181
4.71522
4.2324
6.87123
5.62716
4.72569
4.24243
5.43186
4.44591
3.73097
3.34708
5.43647
4.43868
3.72263
3.3391
5.43216
4.43741
3.72123
3.33836
5.42939
4.43692
3.72159
3.33948
5.42754
4.43638
3.72192
3.34059
5.42675
4.43607
3.72195
3.34089
5.42717
4.43611
3.72163
3.34014
5.42869
4.43649
3.72105
3.3385
5.43103
4.43708
3.72039
3.33653
5.43393
4.43769
3.71995
3.33513
5.43393
4.43769
3.71994
3.33513
5.43102
4.43706
3.72038
3.33652
5.42867
4.43647
3.72104
3.33849
5.42715
4.43609
3.72162
3.34012
5.42672
4.43604
3.72193
3.34088
5.4275
4.43634
3.7219
3.34058
5.42932
4.43688
3.72156
3.33947
5.43209
4.43735
3.72119
3.33834
5.43641
4.43863
3.72259
3.33906
5.43182
4.44586
3.73093
3.34704
4.29393
3.51249
2.94544
2.64045
4.29753
3.50673
2.93879
2.6341
4.29411
3.50572
2.93769
2.63352
4.29191
3.50534
2.93798
2.63442
4.29045
3.50491
2.93824
2.6353
4.28982
3.50466
2.93826
2.63554
4.29015
3.5047
2.93802
2.63494
4.29134
3.50499
2.93756
2.63365
4.29319
3.50545
2.93703
2.6321
4.29549
3.50594
2.93668
2.63099
4.29549
3.50593
2.93668
2.63099
4.29318
3.50544
2.93702
2.63209
4.29133
3.50497
2.93754
2.63364
4.29013
3.50468
2.938
2.63493
4.2898
3.50464
2.93824
2.63552
4.29041
3.50487
2.93822
2.63529
4.29185
3.50529
2.93795
2.6344
4.29403
3.50566
2.93765
2.63351
4.29747
3.50667
2.93875
2.63407
4.29388
3.51244
2.9454
2.64041
3.3943
2.77494
2.32515
2.08284
3.39711
2.77033
2.31985
2.07779
3.3944
2.76954
2.31898
2.07734
3.39267
2.76924
2.31922
2.07805
3.39151
2.7689
2.31943
2.07875
3.39101
2.7687
2.31944
2.07894
3.39126
2.76873
2.31925
2.07847
3.3922
2.76896
2.31888
2.07745
3.39366
2.76932
2.31846
2.07622
3.39548
2.7697
2.31819
2.07535
3.39548
2.7697
2.31818
2.07535
3.39365
2.76931
2.31846
2.07621
3.39219
2.76894
2.31887
2.07744
3.39125
2.76871
2.31923
2.07846
3.39099
2.76868
2.31943
2.07892
3.39147
2.76887
2.3194
2.07873
3.39261
2.7692
2.31919
2.07804
3.39433
2.76948
2.31895
2.07732
3.39705
2.77028
2.31981
2.07776
3.39425
2.77489
2.32512
2.0828
2.6831
2.19215
1.83538
1.64287
2.6853
2.18848
1.83115
1.63886
2.68315
2.18785
1.83047
1.6385
2.68178
2.18762
1.83065
1.63907
2.68087
2.18735
1.83082
1.63962
2.68047
2.18719
1.83083
1.63977
2.68067
2.1872
1.83067
1.6394
2.68141
2.18738
1.83038
1.63859
2.68256
2.18767
1.83005
1.63762
2.684
2.18797
1.82983
1.63693
2.684
2.18796
1.82982
1.63692
2.68255
2.18766
1.83004
1.63761
2.6814
2.18737
1.83037
1.63858
2.68065
2.18719
1.83066
1.63939
2.68045
2.18717
1.83081
1.63976
2.68084
2.18732
1.8308
1.63961
2.68173
2.18758
1.83063
1.63905
2.68309
2.1878
1.83043
1.63849
2.68525
2.18843
1.83111
1.63883
2.68306
2.19211
1.83534
1.64284
2.12091
1.73168
1.44867
1.29577
2.12262
1.72875
1.4453
1.29257
2.12093
1.72825
1.44476
1.2923
2.11984
1.72807
1.44491
1.29274
2.11912
1.72786
1.44504
1.29318
2.11881
1.72773
1.44505
1.2933
2.11896
1.72774
1.44492
1.293
2.11954
1.72787
1.44469
1.29236
2.12045
1.72809
1.44442
1.29159
2.1216
1.72833
1.44425
1.29104
2.1216
1.72833
1.44424
1.29104
2.12045
1.72809
1.44442
1.29158
2.11954
1.72786
1.44468
1.29235
2.11895
1.72773
1.44491
1.29299
2.1188
1.72771
1.44504
1.29328
2.1191
1.72784
1.44503
1.29317
2.11981
1.72804
1.44489
1.29273
2.12088
1.72821
1.44473
1.29228
2.12258
1.7287
1.44527
1.29255
2.12088
1.73164
1.44864
1.29573
1.67655
1.36788
1.14338
1.02196
1.67788
1.36554
1.14069
1.01942
1.67654
1.36515
1.14027
1.0192
1.67568
1.365
1.14039
1.01956
1.67511
1.36484
1.14049
1.0199
1.67486
1.36473
1.14049
1.01999
1.67498
1.36473
1.14039
1.01975
1.67545
1.36484
1.1402
1.01924
1.67616
1.36501
1.13998
1.01862
1.67707
1.3652
1.13984
1.01819
1.67707
1.36519
1.13984
1.01819
1.67616
1.36501
1.13998
1.01862
1.67544
1.36483
1.14019
1.01923
1.67498
1.36473
1.14038
1.01974
1.67486
1.36472
1.14048
1.01998
1.67511
1.36482
1.14048
1.01989
1.67566
1.36498
1.14037
1.01955
1.6765
1.36511
1.14024
1.01919
1.67785
1.3655
1.14066
1.01939
1.67653
1.36785
1.14335
1.02192
1.32534
1.08048
0.902385
0.805991
1.32638
1.07861
0.900246
0.803975
1.32532
1.07831
0.899915
0.803804
1.32464
1.0782
0.900012
0.804085
1.32419
1.07806
0.900091
0.804355
1.324
1.07798
0.900088
0.80442
1.32409
1.07798
0.9
0.804226
1.32445
1.07806
0.899846
0.803818
1.32502
1.07819
0.899675
0.803329
1.32575
1.07834
0.899562
0.802983
1.32574
1.07834
0.899561
0.802984
1.32502
1.07819
0.899673
0.80333
1.32445
1.07805
0.899844
0.803817
1.3241
1.07798
0.899996
0.804221
1.324
1.07798
0.900082
0.804411
1.3242
1.07806
0.90008
0.804343
1.32463
1.07818
0.899997
0.804074
1.32529
1.07828
0.899892
0.80379
1.32636
1.07859
0.900221
0.803951
1.32533
1.08046
0.902363
0.80596
1.04777
0.853477
0.712183
0.635664
1.04858
0.851985
0.71048
0.634063
1.04774
0.851746
0.71022
0.633928
1.04721
0.851662
0.710299
0.634151
1.04686
0.851556
0.71036
0.634363
1.0467
0.851488
0.710355
0.634411
1.04678
0.851484
0.710282
0.634253
1.04707
0.851544
0.710157
0.633927
1.04752
0.851648
0.710018
0.633537
1.04809
0.851763
0.709927
0.633262
1.04809
0.851763
0.709927
0.633263
1.04752
0.851647
0.710018
0.633539
1.04707
0.851545
0.710157
0.633928
1.04679
0.851487
0.710281
0.634251
1.04672
0.851491
0.710352
0.634403
1.04687
0.851556
0.710353
0.634352
1.04721
0.851654
0.710287
0.634142
1.04773
0.851729
0.710201
0.633917
1.04858
0.851967
0.710458
0.63404
1.04778
0.853463
0.712165
0.635635
0.828404
0.674196
0.562088
0.501341
0.829034
0.673006
0.560732
0.500069
0.828377
0.67282
0.560529
0.499963
0.827962
0.672756
0.560593
0.500139
0.827682
0.672673
0.560641
0.500306
0.827558
0.672617
0.560635
0.500342
0.827618
0.672613
0.560574
0.500213
0.827848
0.672659
0.560472
0.499951
0.828207
0.67274
0.56036
0.499639
0.828664
0.67283
0.560288
0.49942
0.828663
0.67283
0.560288
0.499422
0.828206
0.67274
0.560362
0.499644
0.827853
0.672662
0.560475
0.499955
0.827634
0.672619
0.560576
0.500212
0.827583
0.672626
0.560634
0.500335
0.827704
0.672678
0.560637
0.500296
0.827968
0.672754
0.560584
0.500131
0.828375
0.672808
0.560513
0.499952
0.82904
0.672993
0.560714
0.500047
0.828419
0.674188
0.562074
0.501313
0.655031
0.532621
0.443656
0.395411
0.655522
0.531671
0.442576
0.394399
0.655006
0.531528
0.442419
0.394317
0.654681
0.53148
0.442471
0.394457
0.654462
0.531415
0.442509
0.394588
0.654364
0.531371
0.442503
0.394614
0.654413
0.531367
0.442453
0.39451
0.654596
0.531402
0.44237
0.394299
0.654883
0.531466
0.44228
0.39405
0.655247
0.531538
0.442222
0.393876
0.655246
0.531538
0.442223
0.393879
0.654882
0.531468
0.442283
0.394056
0.654603
0.531408
0.442375
0.394305
0.654432
0.531376
0.442457
0.39451
0.654394
0.531383
0.442504
0.394608
0.654489
0.531425
0.442507
0.394578
0.654694
0.531482
0.442464
0.394448
0.65501
0.531521
0.442405
0.394306
0.655534
0.531664
0.442561
0.394379
0.655052
0.532618
0.443644
0.395383
0.517997
0.42083
0.350213
0.311867
0.518381
0.420072
0.349353
0.311062
0.517977
0.419962
0.34923
0.310997
0.517723
0.419928
0.349274
0.311108
0.517552
0.419878
0.349304
0.311213
0.517476
0.419843
0.349299
0.311233
0.517516
0.419839
0.349258
0.311148
0.517663
0.419868
0.349192
0.310979
0.517892
0.419918
0.34912
0.31078
0.518183
0.419976
0.349074
0.310641
0.518182
0.419976
0.349075
0.310644
0.517892
0.419921
0.349124
0.310787
0.51767
0.419874
0.349198
0.310985
0.517536
0.419851
0.349263
0.311149
0.517507
0.419857
0.349302
0.311226
0.517581
0.419889
0.349303
0.311203
0.517739
0.419931
0.349268
0.3111
0.517983
0.419957
0.349218
0.310986
0.518395
0.420067
0.349338
0.311041
0.518019
0.420829
0.350202
0.31184
0.409675
0.332557
0.276484
0.245971
0.409977
0.331953
0.275797
0.245328
0.409662
0.331869
0.275703
0.245277
0.409465
0.331845
0.275739
0.245366
0.409331
0.331807
0.275765
0.24545
0.409272
0.331781
0.275761
0.245466
0.409306
0.331779
0.275728
0.245397
0.409425
0.331802
0.275675
0.245261
0.40961
0.331843
0.275618
0.245103
0.409843
0.331889
0.275581
0.244993
0.409842
0.33189
0.275583
0.244996
0.409609
0.331846
0.275622
0.24511
0.409432
0.331809
0.275681
0.245269
0.409326
0.33179
0.275733
0.245399
0.409303
0.331795
0.275763
0.245459
0.40936
0.331819
0.275764
0.245439
0.409479
0.331849
0.275734
0.245357
0.409666
0.331864
0.27569
0.245266
0.409988
0.331947
0.275783
0.245307
0.409694
0.332556
0.276473
0.245943
0.324043
0.262852
0.218304
0.193988
0.324283
0.262371
0.217755
0.193473
0.324038
0.262307
0.217682
0.193432
0.323886
0.262291
0.217713
0.193504
0.323781
0.262263
0.217734
0.193572
0.323736
0.262243
0.217732
0.193584
0.323765
0.262243
0.217706
0.193529
0.323863
0.262263
0.217664
0.19342
0.324013
0.262297
0.217619
0.193293
0.324199
0.262334
0.217591
0.193206
0.324198
0.262334
0.217592
0.193209
0.324011
0.262299
0.217623
0.193301
0.323868
0.262268
0.21767
0.193428
0.323783
0.262253
0.217711
0.193531
0.323764
0.262256
0.217734
0.193578
0.323806
0.262273
0.217733
0.193561
0.323895
0.262292
0.217706
0.193495
0.324036
0.262299
0.217668
0.193421
0.324288
0.262361
0.217739
0.193451
0.324056
0.262847
0.21829
0.193959
0.256349
0.207804
0.172386
0.152975
0.25654
0.20742
0.171947
0.152562
0.256351
0.207372
0.171891
0.152529
0.256234
0.207362
0.171917
0.152587
0.256152
0.207342
0.171936
0.152642
0.256118
0.207327
0.171934
0.152653
0.256143
0.207328
0.171914
0.152609
0.256225
0.207346
0.171881
0.152521
0.256347
0.207374
0.171846
0.152419
0.256497
0.207405
0.171823
0.152349
0.256494
0.207405
0.171825
0.152353
0.256342
0.207375
0.17185
0.152427
0.256226
0.20735
0.171886
0.152528
0.256157
0.207337
0.171918
0.15261
0.25614
0.207338
0.171935
0.152646
0.256171
0.207349
0.171932
0.15263
0.256235
0.207359
0.171909
0.152577
0.256341
0.207359
0.171875
0.152517
0.256536
0.207405
0.171928
0.152539
0.256352
0.207794
0.17237
0.152945
0.20284
0.164325
0.136141
0.120619
0.202994
0.164018
0.135789
0.120285
0.202848
0.163983
0.135746
0.120259
0.202759
0.163977
0.135768
0.120306
0.202695
0.163963
0.135784
0.120351
0.202669
0.163953
0.135784
0.120361
0.202691
0.163955
0.135768
0.120325
0.202759
0.16397
0.135742
0.120253
0.20286
0.163994
0.135713
0.120171
0.20298
0.164019
0.135696
0.120115
0.202977
0.164018
0.135697
0.120119
0.202853
0.163994
0.135717
0.120179
0.202757
0.163972
0.135745
0.12026
0.2027
0.16396
0.13577
0.120325
0.202685
0.163959
0.135782
0.120353
0.202706
0.163965
0.135779
0.120339
0.202751
0.16397
0.135757
0.120295
0.202828
0.163965
0.135727
0.120246
0.202979
0.163998
0.135767
0.120261
0.202831
0.164308
0.136122
0.120588
0.160555
0.12998
0.107529
0.0950978
0.16068
0.129735
0.107246
0.0948278
0.160569
0.129709
0.107212
0.094806
0.160501
0.129707
0.107231
0.0948442
0.16045
0.129696
0.107245
0.0948816
0.16043
0.129689
0.107245
0.0948895
0.16045
0.129691
0.107232
0.0948599
0.160507
0.129705
0.107211
0.0948011
0.16059
0.129725
0.107188
0.0947337
0.160687
0.129745
0.107173
0.0946884
0.160683
0.129744
0.107174
0.0946915
0.160581
0.129723
0.10719
0.0947409
0.160501
0.129704
0.107213
0.0948071
0.160453
0.129693
0.107232
0.0948592
0.160439
0.129692
0.107241
0.0948809
0.160453
0.129694
0.107237
0.094869
0.160484
0.129694
0.107218
0.0948331
0.160539
0.129685
0.107191
0.0947922
0.160654
0.129709
0.107221
0.0948029
0.160536
0.129957
0.107506
0.0950651
0.127156
0.10285
0.0849427
0.0749778
0.127258
0.102654
0.0847146
0.0747589
0.127174
0.102635
0.0846883
0.0747404
0.127121
0.102635
0.0847046
0.0747712
0.127081
0.102627
0.0847158
0.074802
0.127064
0.102621
0.0847155
0.0748085
0.127081
0.102623
0.0847043
0.0747834
0.12713
0.102634
0.0846862
0.0747339
0.127199
0.10265
0.084667
0.0746776
0.127277
0.102666
0.0846549
0.0746402
0.127272
0.102664
0.0846554
0.0746432
0.127188
0.102647
0.0846682
0.0746843
0.127121
0.102631
0.084687
0.0747391
0.12708
0.102622
0.0847029
0.0747819
0.127068
0.10262
0.0847103
0.0747995
0.127076
0.102621
0.0847062
0.0747895
0.127096
0.102617
0.0846893
0.0747604
0.127134
0.102606
0.0846648
0.0747265
0.127223
0.102622
0.0846872
0.0747333
0.127127
0.102821
0.0849169
0.0749441
0.100793
0.0814203
0.067118
0.0591289
0.100876
0.0812637
0.0669341
0.0589512
0.100813
0.0812503
0.0669135
0.0589351
0.100773
0.081251
0.066927
0.0589596
0.10074
0.0812445
0.0669358
0.0589849
0.100725
0.0812387
0.0669347
0.0589898
0.100739
0.0812395
0.0669242
0.0589678
0.10078
0.0812477
0.0669077
0.0589249
0.100837
0.0812604
0.0668906
0.0588767
0.100901
0.0812726
0.0668798
0.0588451
0.100895
0.0812706
0.0668799
0.0588479
0.100824
0.0812557
0.0668908
0.0588829
0.100768
0.0812429
0.0669072
0.0589294
0.100734
0.0812358
0.0669211
0.0589657
0.100723
0.0812345
0.0669279
0.0589808
0.100728
0.0812345
0.0669247
0.058973
0.10074
0.0812295
0.0669102
0.0589496
0.100766
0.0812168
0.0668883
0.0589215
0.100833
0.0812274
0.0669045
0.0589254
0.100757
0.0813869
0.0670897
0.0590946
0.080002
0.0644994
0.0530582
0.0466583
0.0800693
0.0643736
0.05291
0.0465141
0.0800234
0.0643646
0.0528938
0.0464996
0.0799926
0.0643657
0.0529047
0.0465188
0.0799642
0.0643595
0.0529111
0.0465393
0.0799502
0.0643531
0.0529087
0.0465426
0.0799609
0.0643519
0.052898
0.0465224
0.0799946
0.0643571
0.0528821
0.0464842
0.080042
0.0643662
0.0528659
0.0464417
0.0800936
0.0643749
0.0528556
0.0464143
0.0800877
0.0643725
0.0528554
0.0464168
0.0800279
0.0643603
0.0528653
0.0464474
0.0799804
0.0643505
0.0528803
0.046488
0.0799523
0.0643461
0.0528936
0.0465199
0.079944
0.0643463
0.0529007
0.0465337
0.0799473
0.0643467
0.0528991
0.0465283
0.0799537
0.0643411
0.052887
0.04651
0.0799704
0.0643278
0.0528675
0.0464868
0.0800216
0.0643341
0.0528789
0.0464883
0.0799606
0.0644627
0.0530281
0.0466237
0.0636214
0.0511459
0.0419774
0.0368587
0.0636756
0.0510447
0.0418579
0.0367416
0.0636426
0.051039
0.0418453
0.0367283
0.0636188
0.05104
0.0418537
0.0367429
0.0635935
0.0510334
0.0418577
0.0367593
0.0635792
0.0510258
0.0418538
0.036761
0.0635863
0.0510223
0.0418424
0.0367418
0.0636137
0.0510242
0.0418262
0.0367067
0.0636529
0.0510297
0.0418101
0.0366684
0.0636949
0.0510354
0.0417998
0.0366438
0.0636887
0.0510327
0.0417994
0.0366462
0.0636379
0.051023
0.0418088
0.0366737
0.0635979
0.0510163
0.0418235
0.0367101
0.0635754
0.0510148
0.0418369
0.0367391
0.0635698
0.0510172
0.041845
0.0367525
0.0635728
0.0510186
0.0418452
0.0367494
0.0635757
0.0510132
0.0418356
0.0367355
0.0635857
0.0510001
0.0418184
0.0367165
0.0636246
0.051003
0.041826
0.0367161
0.063577
0.0511071
0.041946
0.0368239
0.0507272