/*--------------------------------*- C++ -*----------------------------------*\
| =========                 |                                                 |
| \\      /  F ield         | foam-extend: Open Source CFD                    |
|  \\    /   O peration     | Version:     3.1                                |
|   \\  /    A nd           | Web:         http://www.extend-project.de       |
|    \\/     M anipulation  |                                                 |
\*---------------------------------------------------------------------------*/
FoamFile
{
    version     2.0;
    format      ascii;
    class       volVectorField;
    location    "0.1";
    object      D;
}
// * * * * * * * * * * * * * * * * * * * * * * * * * * * * * * * * * * * * * //

dimensions      [0 1 0 0 0 0 0];

internalField   nonuniform List<vector> 
256
(
(3.10345e-05 -9.41222e-07 3.01648e-05)
(1.69543e-05 -7.55915e-06 1.99043e-05)
(9.42544e-06 -9.96556e-06 1.25232e-05)
(4.90665e-06 -1.43269e-05 4.43284e-06)
(7.58243e-05 1.11323e-05 4.15483e-05)
(6.03542e-05 -8.76717e-06 3.85668e-05)
(5.02448e-05 -2.13166e-05 3.19158e-05)
(4.52556e-05 -3.75206e-05 2.62815e-05)
(0.000116936 1.04139e-05 5.03481e-05)
(0.000101991 -1.33491e-05 4.71966e-05)
(9.10104e-05 -3.25183e-05 4.33446e-05)
(8.43719e-05 -5.49991e-05 4.00797e-05)
(0.000153959 6.31353e-06 5.53833e-05)
(0.000140665 -1.95403e-05 5.32805e-05)
(0.00012982 -4.25459e-05 5.10457e-05)
(0.000121777 -6.79371e-05 4.93078e-05)
(0.000187051 -1.16273e-06 5.9033e-05)
(0.000174903 -2.73136e-05 5.74969e-05)
(0.00016427 -5.19341e-05 5.61377e-05)
(0.000155284 -7.80167e-05 5.50878e-05)
(0.000216352 -1.02449e-05 6.20262e-05)
(0.000204973 -3.59233e-05 6.07062e-05)
(0.000194475 -6.08914e-05 5.95945e-05)
(0.000184885 -8.65769e-05 5.86304e-05)
(0.00024264 -2.00398e-05 6.48022e-05)
(0.000231728 -4.49787e-05 6.33912e-05)
(0.000221314 -6.96477e-05 6.21749e-05)
(0.000211384 -9.45717e-05 6.09973e-05)
(0.00026713 -2.99915e-05 6.7523e-05)
(0.000256438 -5.42729e-05 6.59665e-05)
(0.000246063 -7.84204e-05 6.46067e-05)
(0.000236007 -0.000102659 6.31654e-05)
(2.99152e-05 -3.40705e-06 1.72273e-05)
(1.75409e-05 -9.9764e-06 1.21648e-05)
(1.12599e-05 -1.22761e-05 8.07129e-06)
(8.59328e-06 -1.65506e-05 4.01604e-06)
(8.04615e-05 5.01324e-06 3.03739e-05)
(6.27655e-05 -1.48601e-05 2.78647e-05)
(5.1711e-05 -2.7224e-05 2.37691e-05)
(4.64665e-05 -4.33606e-05 2.03376e-05)
(0.000120485 5.36964e-06 3.98324e-05)
(0.0001049 -1.87415e-05 3.73711e-05)
(9.32529e-05 -3.81378e-05 3.45424e-05)
(8.58879e-05 -6.08019e-05 3.20741e-05)
(0.000157058 1.79983e-06 4.58268e-05)
(0.000143158 -2.42785e-05 4.37921e-05)
(0.000131752 -4.74682e-05 4.18895e-05)
(0.000123067 -7.30484e-05 4.03055e-05)
(0.000189602 -5.03737e-06 4.99163e-05)
(0.000177052 -3.1344e-05 4.82503e-05)
(0.000165981 -5.61122e-05 4.68725e-05)
(0.00015649 -8.23634e-05 4.56828e-05)
(0.00021856 -1.37079e-05 5.30485e-05)
(0.000206887 -3.94711e-05 5.15401e-05)
(0.000196085 -6.45345e-05 5.0324e-05)
(0.000186161 -9.03587e-05 4.91814e-05)
(0.000244666 -2.3268e-05 5.57502e-05)
(0.000233551 -4.82651e-05 5.42331e-05)
(0.00022296 -7.30131e-05 5.29667e-05)
(0.000212873 -9.80636e-05 5.16905e-05)
(0.000269111 -3.3142e-05 5.835e-05)
(0.000258286 -5.74702e-05 5.68028e-05)
(0.000247819 -8.1708e-05 5.54801e-05)
(0.000237712 -0.000106074 5.40655e-05)
(3.01254e-05 -3.50147e-06 1.07804e-05)
(1.78436e-05 -1.02389e-05 8.1249e-06)
(1.19072e-05 -1.26248e-05 5.84715e-06)
(9.96996e-06 -1.70361e-05 3.71508e-06)
(8.29833e-05 2.49698e-06 2.21028e-05)
(6.43426e-05 -1.73764e-05 2.02389e-05)
(5.28881e-05 -2.95124e-05 1.77405e-05)
(4.78484e-05 -4.55345e-05 1.5661e-05)
(0.00012371 2.04152e-06 3.07632e-05)
(0.000107206 -2.20979e-05 2.88392e-05)
(9.49089e-05 -4.13855e-05 2.68284e-05)
(8.71877e-05 -6.39232e-05 2.50316e-05)
(0.00016018 -1.76921e-06 3.67997e-05)
(0.000145612 -2.7827e-05 3.49826e-05)
(0.00013362 -5.09749e-05 3.34083e-05)
(0.000124457 -7.65232e-05 3.20229e-05)
(0.000192461 -8.48543e-06 4.10324e-05)
(0.000179428 -3.48014e-05 3.93779e-05)
(0.000167887 -5.9598e-05 3.80607e-05)
(0.000157952 -8.59031e-05 3.68517e-05)
(0.000221134 -1.69727e-05 4.42042e-05)
(0.000209128 -4.27794e-05 4.26362e-05)
(0.000197987 -6.79265e-05 4.13953e-05)
(0.000187723 -9.38743e-05 4.01817e-05)
(0.00024702 -2.6376e-05 4.68336e-05)
(0.00023569 -5.1461e-05 4.5278e-05)
(0.000224885 -7.6337e-05 4.40067e-05)
(0.000214587 -0.000101556 4.2696e-05)
(0.000271361 -3.61441e-05 4.92879e-05)
(0.000260412 -6.05994e-05 4.77549e-05)
(0.000249827 -8.49961e-05 4.6476e-05)
(0.000239619 -0.000109558 4.50947e-05)
(3.05169e-05 -3.41273e-06 7.09626e-06)
(1.81058e-05 -1.02931e-05 5.62385e-06)
(1.224e-05 -1.27271e-05 4.32932e-06)
(1.05811e-05 -1.72354e-05 3.1483e-06)
(8.46153e-05 1.43983e-06 1.60527e-05)
(6.54919e-05 -1.8555e-05 1.47359e-05)
(5.38449e-05 -3.05739e-05 1.31737e-05)
(4.8952e-05 -4.65394e-05 1.18711e-05)
(0.000126081 5.07134e-08 2.3269e-05)
(0.000109012 -2.41285e-05 2.18101e-05)
(9.63134e-05 -4.33189e-05 2.03824e-05)
(8.8418e-05 -6.57653e-05 1.90807e-05)
(0.000162777 -4.30223e-06 2.86492e-05)
(0.000147726 -3.0334e-05 2.71532e-05)
(0.000135313 -5.34314e-05 2.58868e-05)
(0.000125839 -7.89579e-05 2.47192e-05)
(0.000195038 -1.12302e-05 3.25967e-05)
(0.000181629 -3.75239e-05 3.11238e-05)
(0.000169721 -6.23296e-05 2.99501e-05)
(0.000159458 -8.86817e-05 2.88267e-05)
(0.00022358 -1.97571e-05 3.55834e-05)
(0.000211307 -4.55741e-05 3.41276e-05)
(0.000199884 -7.07905e-05 3.29659e-05)
(0.000189343 -9.68478e-05 3.18012e-05)
(0.000249332 -2.91224e-05 3.80231e-05)
(0.000237828 -5.42659e-05 3.65657e-05)
(0.000226832 -7.92641e-05 3.53738e-05)
(0.000216337 -0.000104641 3.41287e-05)
(0.000273617 -3.88222e-05 4.02311e-05)
(0.000262567 -6.33826e-05 3.88055e-05)
(0.000251863 -8.79437e-05 3.76235e-05)
(0.000241531 -0.000112703 3.63395e-05)
(3.08558e-05 -3.33086e-06 4.74356e-06)
(1.8324e-05 -1.03094e-05 3.88874e-06)
(1.24674e-05 -1.27724e-05 3.13667e-06)
(1.09334e-05 -1.73446e-05 2.45134e-06)
(8.57722e-05 9.6067e-07 1.1422e-05)
(6.63607e-05 -1.91689e-05 1.0517e-05)
(5.46021e-05 -3.115e-05 9.5241e-06)
(4.97855e-05 -4.71309e-05 8.6868e-06)
(0.000127806 -1.09852e-06 1.70135e-05)
(0.000110406 -2.53655e-05 1.59435e-05)
(9.74744e-05 -4.4522e-05 1.49409e-05)
(8.94823e-05 -6.69522e-05 1.40084e-05)
(0.000164799 -5.98201e-06 2.13744e-05)
(0.000149435 -3.20458e-05 2.02156e-05)
(0.000136752 -5.51305e-05 1.92407e-05)
(0.000127078 -8.06693e-05 1.83108e-05)
(0.000197154 -1.3236e-05 2.4698e-05)
(0.000183485 -3.95406e-05 2.34972e-05)
(0.000171325 -6.43681e-05 2.25293e-05)
(0.000160831 -9.07733e-05 2.15761e-05)
(0.000225679 -2.19213e-05 2.72615e-05)
(0.000213208 -4.77599e-05 2.60355e-05)
(0.000201578 -7.30391e-05 2.50437e-05)
(0.000190826 -9.91909e-05 2.40331e-05)
(0.000251383 -3.13322e-05 2.9351e-05)
(0.000239743 -5.65295e-05 2.81068e-05)
(0.000228593 -8.16322e-05 2.70823e-05)
(0.00021793 -0.000107142 2.60043e-05)
(0.000275661 -4.10108e-05 3.11955e-05)
(0.000264525 -6.56644e-05 2.99752e-05)
(0.000253714 -9.03679e-05 2.89628e-05)
(0.000243258 -0.000115295 2.7861e-05)
(3.1107e-05 -3.26963e-06 3.06437e-06)
(1.84914e-05 -1.0315e-05 2.56482e-06)
(1.26318e-05 -1.27966e-05 2.13004e-06)
(1.11625e-05 -1.74126e-05 1.72871e-06)
(8.65856e-05 7.40571e-07 7.6623e-06)
(6.69973e-05 -1.9506e-05 7.07184e-06)
(5.51705e-05 -3.14889e-05 6.45432e-06)
(5.03922e-05 -4.75142e-05 5.92562e-06)
(0.000129029 -1.75347e-06 1.16163e-05)
(0.000111433 -2.61162e-05 1.08825e-05)
(9.8367e-05 -4.528e-05 1.02125e-05)
(9.03157e-05 -6.77367e-05 9.57836e-06)
(0.000166279 -7.04493e-06 1.47928e-05)
(0.000150725 -3.31683e-05 1.39687e-05)
(0.000137876 -5.62697e-05 1.32754e-05)
(0.000128076 -8.18432e-05 1.25988e-05)
(0.000198758 -1.45999e-05 1.72806e-05)
(0.000184921 -4.09408e-05 1.63986e-05)
(0.000172596 -6.58017e-05 1.56792e-05)
(0.000161949 -9.22609e-05 1.4958e-05)
(0.00022732 -2.34648e-05 1.92334e-05)
(0.000214714 -4.93381e-05 1.83124e-05)
(0.000202939 -7.46742e-05 1.75583e-05)
(0.000192037 -0.000100903 1.67825e-05)
(0.000253027 -3.29535e-05 2.08287e-05)
(0.000241285 -5.82032e-05 1.9883e-05)
(0.00023002 -8.33903e-05 1.9099e-05)
(0.000219228 -0.000109002 1.8271e-05)
(0.000277329 -4.26418e-05 2.22109e-05)
(0.000266121 -6.73753e-05 2.12789e-05)
(0.000255219 -9.21913e-05 2.05042e-05)
(0.000244654 -0.000117245 1.96612e-05)
(3.12713e-05 -3.22964e-06 1.73009e-06)
(1.86043e-05 -1.03169e-05 1.46471e-06)
(1.27408e-05 -1.28101e-05 1.23654e-06)
(1.13062e-05 -1.74543e-05 1.02261e-06)
(8.71088e-05 6.43155e-07 4.41779e-06)
(6.74175e-05 -1.96876e-05 4.08314e-06)
(5.55511e-05 -3.16844e-05 3.74255e-06)
(5.07918e-05 -4.77528e-05 3.44708e-06)
(0.000129819 -2.108e-06 6.76827e-06)
(0.000112114 -2.6547e-05 6.33874e-06)
(9.89717e-05 -4.57313e-05 5.95198e-06)
(9.08848e-05 -6.82234e-05 5.58124e-06)
(0.000167251 -7.66549e-06 8.69108e-06)
(0.000151589 -3.3845e-05 8.1978e-06)
(0.000138645 -5.69713e-05 7.78215e-06)
(0.000128769 -8.25814e-05 7.37098e-06)
(0.000199832 -1.54362e-05 1.02232e-05)
(0.000185897 -4.18165e-05 9.68507e-06)
(0.000173474 -6.67098e-05 9.24254e-06)
(0.000162732 -9.32131e-05 8.79435e-06)
(0.00022844 -2.44428e-05 1.14407e-05)
(0.000215751 -5.0351e-05 1.0871e-05)
(0.000203886 -7.57315e-05 1.04008e-05)
(0.000192886 -0.000102016 9.91448e-06)
(0.000254169 -3.40021e-05 1.24378e-05)
(0.000242361 -5.92951e-05 1.18482e-05)
(0.000231017 -8.45425e-05 1.1357e-05)
(0.000220137 -0.000110224 1.08376e-05)
(0.000278503 -4.371e-05 1.32912e-05)
(0.000267241 -6.85037e-05 1.27079e-05)
(0.000256274 -9.3398e-05 1.22222e-05)
(0.000245628 -0.000118536 1.16942e-05)
(3.1352e-05 -3.20988e-06 5.6043e-07)
(1.86609e-05 -1.03175e-05 4.76837e-07)
(1.27952e-05 -1.28163e-05 4.05486e-07)
(1.1376e-05 -1.74744e-05 3.37935e-07)
(8.73652e-05 6.06758e-07 1.44443e-06)
(6.76264e-05 -1.97677e-05 1.33586e-06)
(5.57417e-05 -3.17749e-05 1.22669e-06)
(5.09902e-05 -4.78684e-05 1.13129e-06)
(0.000130207 -2.26352e-06 2.22379e-06)
(0.000112452 -2.67439e-05 2.08225e-06)
(9.92766e-05 -4.59431e-05 1.95554e-06)
(9.11726e-05 -6.84578e-05 1.83331e-06)
(0.000167734 -7.95082e-06 2.86687e-06)
(0.000152022 -3.41629e-05 2.70259e-06)
(0.000139035 -5.7306e-05 2.564e-06)
(0.000129123 -8.29384e-05 2.42604e-06)
(0.000200371 -1.58319e-05 3.38358e-06)
(0.00018639 -4.22364e-05 3.20276e-06)
(0.000173921 -6.71494e-05 3.05345e-06)
(0.000163133 -9.36773e-05 2.90154e-06)
(0.000229008 -2.49145e-05 3.79669e-06)
(0.000216279 -5.08439e-05 3.60402e-06)
(0.00020437 -7.62489e-05 3.44437e-06)
(0.000193323 -0.000102563 3.27889e-06)
(0.000254754 -3.45141e-05 4.13556e-06)
(0.000242912 -5.98316e-05 3.93537e-06)
(0.000231529 -8.51108e-05 3.76822e-06)
(0.000220603 -0.000110828 3.59135e-06)
(0.000279108 -4.42361e-05 4.42377e-06)
(0.000267818 -6.90622e-05 4.22534e-06)
(0.000256815 -9.39968e-05 4.05998e-06)
(0.000246128 -0.000119178 3.8803e-06)
)
;

boundaryField
{
    interface
    {
        type            tractionDisplacement;
        gradient        nonuniform List<vector> 
192
(
(0.00178012 0.00269588 2.37519e-05)
(0.000495122 0.00146723 9.3595e-05)
(0.000656437 0.00156259 0.000103489)
(0.000520885 0.00136183 7.44573e-05)
(0.000479879 0.00123284 6.11887e-05)
(0.00044873 0.00110575 5.32881e-05)
(0.000441134 0.00101831 5.35785e-05)
(0.000443394 0.000980644 5.70082e-05)
(0.00166203 0.00277982 2.5211e-05)
(0.000662906 0.00154782 0.000104759)
(0.000666452 0.00152854 0.000136835)
(0.000556004 0.00135001 0.000116984)
(0.000499786 0.00121873 0.000102283)
(0.000465758 0.00110001 8.86648e-05)
(0.000454009 0.00101753 8.03341e-05)
(0.000452354 0.000983648 7.73403e-05)
(0.00168895 0.0028482 2.2109e-05)
(0.000689872 0.00161876 7.29298e-05)
(0.000686774 0.00152362 0.000102931)
(0.000572584 0.00134312 0.00010808)
(0.000509673 0.00120705 0.000101976)
(0.000472551 0.00109134 9.33596e-05)
(0.000458458 0.00101235 8.61096e-05)
(0.000453276 0.000984645 8.29805e-05)
(0.00172022 0.00290131 1.72997e-05)
(0.000707849 0.00165837 5.30821e-05)
(0.000704164 0.00154057 7.64592e-05)
(0.000587966 0.00134485 8.74739e-05)
(0.000520337 0.00120258 8.87437e-05)
(0.000479708 0.00108578 8.55277e-05)
(0.000462964 0.00100847 8.16702e-05)
(0.000454634 0.000985788 8.02428e-05)
(0.00174316 0.00294052 1.26278e-05)
(0.000719458 0.00168452 3.79195e-05)
(0.000715452 0.0015576 5.52915e-05)
(0.000597963 0.00135156 6.60192e-05)
(0.000528249 0.00120311 7.02495e-05)
(0.000485277 0.00108388 7.05429e-05)
(0.000466601 0.00100697 6.95621e-05)
(0.000455857 0.000987563 6.97294e-05)
(0.00175886 0.00296797 8.62193e-06)
(0.000726841 0.00170239 2.57035e-05)
(0.000722631 0.00157095 3.77859e-05)
(0.000604174 0.00135875 4.61289e-05)
(0.000533412 0.00120582 5.04846e-05)
(0.000489187 0.0010843 5.2124e-05)
(0.000469374 0.00100722 5.26545e-05)
(0.000457226 0.000989668 5.36576e-05)
(0.00176864 0.00298544 5.0282e-06)
(0.000731147 0.00171377 1.49586e-05)
(0.000726797 0.00157996 2.21111e-05)
(0.000607707 0.00136427 2.73195e-05)
(0.00053641 0.00120859 3.03754e-05)
(0.000491586 0.00108549 3.18905e-05)
(0.000471214 0.00100814 3.27125e-05)
(0.000458369 0.000991534 3.36996e-05)
(0.00177334 0.00299395 1.65256e-06)
(0.000733112 0.00171934 4.91528e-06)
(0.000728696 0.00158448 7.28639e-06)
(0.000609301 0.00136721 9.05296e-06)
(0.000537776 0.00121024 1.01385e-05)
(0.000492718 0.00108635 1.07279e-05)
(0.000472132 0.00100884 1.10859e-05)
(0.000459021 0.000992621 1.14813e-05)
(-6.42577e-05 0.00175214 0.0013801)
(-0.000119024 0.000238795 0.000217674)
(-7.16349e-05 0.000308046 0.000435048)
(-6.12681e-05 0.000163438 0.000358157)
(-4.42109e-05 0.000137879 0.000362739)
(-4.21371e-05 0.000120501 0.000361666)
(-4.88574e-05 0.00011662 0.000370147)
(-5.82519e-05 0.000113805 0.000377559)
(-0.000141276 0.00147088 0.000879808)
(-0.000227039 0.000388495 0.000306017)
(-0.000118828 0.000335255 0.000371662)
(-7.75024e-05 0.000211079 0.000354082)
(-4.72738e-05 0.000159204 0.00036164)
(-4.13298e-05 0.000127264 0.000366306)
(-4.8704e-05 0.000114378 0.00037207)
(-5.83561e-05 0.000114976 0.000373334)
(-0.000145265 0.00111122 0.000644918)
(-0.000251752 0.00055792 0.000269809)
(-0.00013856 0.000406411 0.000333563)
(-7.20499e-05 0.00026954 0.000344581)
(-3.97359e-05 0.000184471 0.000359233)
(-3.47782e-05 0.000132864 0.000367521)
(-4.45506e-05 0.000110402 0.000372809)
(-5.57919e-05 0.000116165 0.000370568)
(-7.16262e-05 0.000819992 0.000275248)
(-0.000137382 0.00067838 0.000216431)
(-7.44994e-05 0.000482928 0.000290606)
(-3.99354e-05 0.000317336 0.000334017)
(-2.81967e-05 0.000203126 0.000361353)
(-3.48602e-05 0.000133356 0.000373315)
(-5.09325e-05 0.000103546 0.000377722)
(-6.54862e-05 0.000116008 0.000368713)
(0.000277484 -0.00107837 -4.28053e-05)
(-1.33995e-05 -0.00144549 -8.13844e-05)
(-0.000191937 -0.00146639 -5.19052e-05)
(-0.000303375 -0.00137293 -3.83583e-05)
(-0.000366856 -0.001233 -3.57971e-05)
(-0.000394432 -0.00110297 -4.48046e-05)
(-0.000401762 -0.00100999 -5.96958e-05)
(-0.000390476 -0.000955003 -7.22316e-05)
(0.000457643 -0.00119147 -4.20956e-05)
(-4.18502e-05 -0.0013951 -6.72294e-05)
(-0.000212992 -0.00145531 -4.22397e-05)
(-0.000327274 -0.00136606 -4.34916e-05)
(-0.000385336 -0.00123644 -4.66833e-05)
(-0.000407244 -0.00111362 -5.46583e-05)
(-0.000407785 -0.00102298 -6.56657e-05)
(-0.000392355 -0.000963093 -7.6409e-05)
(0.00051459 -0.00127234 -2.25799e-05)
(-3.51673e-05 -0.00136468 -4.87361e-05)
(-0.000218246 -0.00145412 -4.68718e-05)
(-0.000343852 -0.00136619 -4.88139e-05)
(-0.000402603 -0.00124092 -5.36745e-05)
(-0.000421638 -0.00112129 -6.06431e-05)
(-0.000417877 -0.00103256 -6.93052e-05)
(-0.000397304 -0.000971187 -7.87051e-05)
(0.000543149 -0.00131897 -1.39595e-05)
(-3.02029e-05 -0.00136532 -3.59205e-05)
(-0.000221033 -0.00145515 -4.27797e-05)
(-0.000355807 -0.00136906 -4.78601e-05)
(-0.000416583 -0.00124563 -5.32554e-05)
(-0.000434446 -0.00112736 -5.93602e-05)
(-0.000428011 -0.00103997 -6.6265e-05)
(-0.000404404 -0.000978534 -7.38612e-05)
(0.000560151 -0.00134907 -9.51061e-06)
(-2.79094e-05 -0.00137354 -2.66385e-05)
(-0.000223491 -0.00146005 -3.52987e-05)
(-0.00036382 -0.00137318 -4.15465e-05)
(-0.000426902 -0.00125007 -4.67729e-05)
(-0.000444537 -0.00113225 -5.18303e-05)
(-0.000436629 -0.00104558 -5.71387e-05)
(-0.000411366 -0.000984426 -6.29184e-05)
(0.000570981 -0.00136936 -6.45725e-06)
(-2.69355e-05 -0.00138204 -1.87303e-05)
(-0.000225612 -0.0014659 -2.61187e-05)
(-0.00036931 -0.00137744 -3.16506e-05)
(-0.000434074 -0.00125384 -3.59785e-05)
(-0.000451861 -0.00113597 -3.97982e-05)
(-0.000443246 -0.0010496 -4.3555e-05)
(-0.00041723 -0.000988747 -4.75648e-05)
(0.000577615 -0.00138223 -3.80736e-06)
(-2.65388e-05 -0.0013884 -1.11987e-05)
(-0.000227111 -0.00147065 -1.59961e-05)
(-0.000372784 -0.00138085 -1.96866e-05)
(-0.0004386 -0.00125661 -2.25188e-05)
(-0.000456603 -0.0011385 -2.49037e-05)
(-0.000447696 -0.0010522 -2.71504e-05)
(-0.000421383 -0.000991551 -2.95059e-05)
(0.000580796 -0.00138854 -1.26157e-06)
(-2.64174e-05 -0.00139174 -3.73053e-06)
(-0.000227887 -0.00147324 -5.38065e-06)
(-0.000374481 -0.00138271 -6.66782e-06)
(-0.000440801 -0.00125807 -7.65077e-06)
(-0.000458937 -0.00113978 -8.46272e-06)
(-0.00044993 -0.00105347 -9.21259e-06)
(-0.000423508 -0.000992932 -9.99044e-06)
(0.000969077 -0.000398623 0.000109219)
(0.000972296 -0.00039873 0.000112188)
(0.000976019 -0.000392604 0.000103703)
(0.000979661 -0.000388394 8.95562e-05)
(0.000983037 -0.000386012 7.07685e-05)
(0.000986072 -0.000385422 5.03376e-05)
(0.000988403 -0.000385686 2.98645e-05)
(0.000989671 -0.000386054 9.87625e-06)
(0.000957002 -0.000377038 0.000113114)
(0.000960946 -0.000375632 0.000117336)
(0.000966505 -0.0003711 0.000109615)
(0.000972524 -0.0003683 9.49372e-05)
(0.000977827 -0.000367474 7.55032e-05)
(0.000982117 -0.000368066 5.40851e-05)
(0.000985143 -0.000369101 3.22907e-05)
(0.000986715 -0.000369827 1.07173e-05)
(0.000956513 -0.0003582 0.000116997)
(0.00096106 -0.000357116 0.000123445)
(0.000967784 -0.0003528 0.000117137)
(0.000975083 -0.000350752 0.000101954)
(0.000981565 -0.000350829 8.13564e-05)
(0.000986617 -0.00035216 5.84548e-05)
(0.000990048 -0.000353689 3.4998e-05)
(0.000991778 -0.000354657 1.16363e-05)
(0.000952547 -0.00034012 0.000120439)
(0.000957316 -0.000339009 0.000130418)
(0.000964621 -0.000335284 0.000125225)
(0.000971923 -0.000334488 0.00010949)
(0.000978134 -0.000335749 8.74583e-05)
(0.000982814 -0.000337988 6.28654e-05)
(0.00098591 -0.000340102 3.76562e-05)
(0.000987453 -0.000341383 1.25251e-05)
)
;
        traction        nonuniform List<vector> 
192
(
(21.58 -0.0550663 -0.0737668)
(21.4807 -0.0312049 -0.0965572)
(21.326 -0.0223363 -0.0928544)
(21.1441 -0.0113398 -0.0849083)
(20.9628 -0.00326434 -0.0754181)
(20.7927 0.00316503 -0.0659851)
(20.6416 0.00664541 -0.0573241)
(20.5201 0.00493652 -0.0503967)
(21.8473 -0.0517308 -0.0453379)
(21.7202 -0.0234029 -0.0624122)
(21.5341 -0.0119578 -0.0643912)
(21.318 -0.000856776 -0.0616531)
(21.1004 0.0070543 -0.0573217)
(20.8941 0.0128433 -0.0524559)
(20.7086 0.0155442 -0.0478043)
(20.5551 0.0128819 -0.0441974)
(22.0026 -0.0516087 -0.0292915)
(21.8619 -0.0209441 -0.0417303)
(21.6584 -0.00610983 -0.0451329)
(21.4231 0.00578729 -0.0453168)
(21.1848 0.0139704 -0.0437661)
(20.9577 0.0195504 -0.0414569)
(20.7521 0.0218741 -0.0390207)
(20.5793 0.0187296 -0.0372199)
(22.1051 -0.0520499 -0.0199531)
(21.9569 -0.0197323 -0.0290588)
(21.7422 -0.00297889 -0.0323769)
(21.4941 0.0100628 -0.0335337)
(21.2423 0.0187073 -0.0333343)
(21.0014 0.0243529 -0.032386)
(20.7824 0.0265304 -0.031178)
(20.5964 0.0231012 -0.0303403)
(22.1742 -0.0525202 -0.0136036)
(22.0213 -0.0191128 -0.0201112)
(21.7993 -0.00117744 -0.0228693)
(21.5425 0.0127587 -0.0241949)
(21.2815 0.0218916 -0.0245591)
(21.0315 0.0277176 -0.0243222)
(20.8033 0.0298795 -0.0238152)
(20.6083 0.0262992 -0.02351)
(22.22 -0.0528983 -0.0088665)
(22.0641 -0.0188007 -0.0132401)
(21.8374 -0.000123922 -0.0152673)
(21.5748 0.0144305 -0.0163855)
(21.3078 0.0239569 -0.0168712)
(21.0515 0.0299723 -0.0169344)
(20.8174 0.0321721 -0.0167812)
(20.6163 0.0285173 -0.0167309)
(22.2481 -0.0531499 -0.00500986)
(22.0903 -0.0186504 -0.00751566)
(21.8608 0.000460667 -0.0087587)
(21.5947 0.0154018 -0.00949318)
(21.3239 0.0251933 -0.00986544)
(21.0639 0.0313525 -0.00998904)
(20.826 0.0335963 -0.00997477)
(20.6211 0.0299078 -0.0100078)
(22.2612 -0.0532466 -0.00161621)
(22.1024 -0.0185855 -0.00242493)
(21.8717 0.000704919 -0.00284833)
(21.6041 0.0158388 -0.00310606)
(21.3316 0.0257661 -0.0032442)
(21.0698 0.032003 -0.00330007)
(20.8301 0.0342744 -0.00330815)
(20.6234 0.0305805 -0.00332996)
(0.147898 -0.0360995 20.3032)
(0.149233 -0.0108966 20.239)
(0.124561 -0.00648161 20.188)
(0.0967909 0.000359928 20.1338)
(0.0704797 0.00527537 20.0862)
(0.0462566 0.00950262 20.0468)
(0.0239831 0.0116728 20.0198)
(0.00226707 0.00866416 20.0167)
(0.136068 -0.0234557 19.5839)
(0.140571 0.000101774 19.5309)
(0.113347 0.00648018 19.4867)
(0.0852508 0.0127595 19.446)
(0.05914 0.0173774 19.415)
(0.03582 0.0211669 19.3947)
(0.0150343 0.0231913 19.387)
(-0.0038816 0.0205127 19.4)
(0.13344 -0.0139051 18.9337)
(0.139841 0.0040676 18.8898)
(0.11187 0.0152015 18.8496)
(0.0823149 0.0231847 18.819)
(0.0553279 0.0289653 18.8014)
(0.0315967 0.0334051 18.7962)
(0.0109129 0.0362304 18.8025)
(-0.0071927 0.0349615 18.8237)
(0.139222 -0.00543923 18.2694)
(0.144437 0.0111473 18.2419)
(0.114909 0.0250049 18.2172)
(0.0832016 0.0343539 18.2077)
(0.05401 0.0409062 18.2132)
(0.0283741 0.0459761 18.2304)
(0.0062031 0.0499475 18.2557)
(-0.0127794 0.0510209 18.2871)
(-17.1477 0.0208059 0.0635468)
(-17.2109 0.0390833 0.0599544)
(-17.3503 0.0433966 0.0408081)
(-17.5195 0.0460118 0.0216601)
(-17.6946 0.0489689 0.0046299)
(-17.8623 0.0537212 -0.00968456)
(-18.0124 0.0621916 -0.0209484)
(-18.1252 0.076603 -0.0283604)
(-16.9008 0.0207179 0.0355668)
(-16.9895 0.0362772 0.0324355)
(-17.1588 0.0385107 0.0198416)
(-17.3643 0.0394753 0.00798232)
(-17.5771 0.0420812 -0.00244613)
(-17.7801 0.0475891 -0.0111463)
(-17.9593 0.0580769 -0.0180038)
(-18.0888 0.0759502 -0.0230975)
(-16.7578 0.020765 0.0215136)
(-16.8565 0.0342236 0.0190577)
(-17.0398 0.0361856 0.010794)
(-17.264 0.036704 0.00276787)
(-17.4971 0.0393648 -0.0042431)
(-17.7197 0.0454465 -0.0101081)
(-17.9152 0.0570782 -0.0148322)
(-18.0552 0.0765827 -0.01877)
(-16.6626 0.0207712 0.014096)
(-16.7666 0.0332427 0.0121325)
(-16.9584 0.0348406 0.00642543)
(-17.1941 0.0352891 0.000777172)
(-17.4398 0.0381092 -0.00422014)
(-17.6749 0.0446181 -0.0084428)
(-17.881 0.0569859 -0.011924)
(-18.0283 0.0774906 -0.015013)
(-16.5984 0.0207835 0.00932504)
(-16.7058 0.0327691 0.00780916)
(-16.9031 0.0341098 0.00385643)
(-17.146 0.0345529 -8.71744e-05)
(-17.3998 0.0375384 -0.00362041)
(-17.6428 0.0443653 -0.00664337)
(-17.856 0.0572317 -0.00918023)
(-18.0081 0.0784177 -0.0115023)
(-16.5559 0.0208108 0.00593677)
(-16.6655 0.0325451 0.00485955)
(-16.8663 0.033734 0.00225007)
(-17.1138 0.034185 -0.000365241)
(-17.3728 0.0372996 -0.00273064)
(-17.6209 0.0443527 -0.00477582)
(-17.8385 0.057557 -0.0065118)
(-17.9938 0.0792112 -0.00812035)
(-16.53 0.0208332 0.00329813)
(-16.6409 0.0324433 0.00263322)
(-16.8438 0.033556 0.00115353)
(-17.0941 0.0340151 -0.000338476)
(-17.3561 0.0372142 -0.00169907)
(-17.6072 0.0444131 -0.00288377)
(-17.8276 0.0578333 -0.00389066)
(-17.9846 0.079779 -0.00481209)
(-16.5179 0.020811 0.0010534)
(-16.6297 0.0323959 0.000819159)
(-16.8334 0.0335018 0.000344165)
(-17.0849 0.0339586 -0.000138424)
(-17.3482 0.0371959 -0.000581512)
(-17.6008 0.0444698 -0.000968653)
(-17.8223 0.0580129 -0.00129555)
(-17.9798 0.0800748 -0.00158562)
(-0.0262412 -20.0808 -0.0399051)
(-0.0220777 -20.0596 -0.0367015)
(-0.0195572 -20.0421 -0.031745)
(-0.0179011 -20.0282 -0.0262757)
(-0.0168483 -20.0175 -0.0205449)
(-0.0162133 -20.0098 -0.014696)
(-0.0158651 -20.0049 -0.00884155)
(-0.0157288 -20.0029 -0.00296226)
(-0.0251643 -19.4112 -0.0316196)
(-0.0220607 -19.3704 -0.0309701)
(-0.0208126 -19.3396 -0.0272716)
(-0.0202841 -19.3154 -0.0226696)
(-0.0201107 -19.297 -0.0177441)
(-0.0201053 -19.2836 -0.0126885)
(-0.020154 -19.2749 -0.00761801)
(-0.0201845 -19.2708 -0.00254464)
(-0.0287276 -18.7714 -0.0254241)
(-0.0274324 -18.716 -0.0273787)
(-0.0274336 -18.6768 -0.0247228)
(-0.0278219 -18.6462 -0.0206509)
(-0.0283207 -18.6229 -0.0161677)
(-0.028788 -18.6061 -0.011551)
(-0.0291471 -18.5951 -0.00693493)
(-0.0293737 -18.5899 -0.002319)
(-0.0421048 -18.1903 -0.023383)
(-0.0440724 -18.1302 -0.0261572)
(-0.0455615 -18.0882 -0.0236897)
(-0.0468966 -18.0553 -0.0197079)
(-0.0480522 -18.0301 -0.0153631)
(-0.0489743 -18.0118 -0.0109464)
(-0.0496134 -18 -0.00659526)
(-0.0499314 -17.9949 -0.00222419)
)
;
        pressure        uniform 0;
        value           nonuniform List<vector> 
192
(
(5.3286e-05 3.27572e-05 3.04617e-05)
(8.20133e-05 2.94727e-05 4.27182e-05)
(0.000125141 2.99463e-05 5.16418e-05)
(0.00016047 2.33365e-05 5.6314e-05)
(0.00019305 1.42477e-05 5.97979e-05)
(0.000221961 3.57702e-06 6.26923e-05)
(0.000248155 -7.31098e-06 6.5472e-05)
(0.000272673 -1.77334e-05 6.82356e-05)
(5.06906e-05 3.13406e-05 1.75424e-05)
(8.87478e-05 2.43609e-05 3.16834e-05)
(0.000128816 2.44764e-05 4.15428e-05)
(0.000164008 1.86749e-05 4.72891e-05)
(0.000195849 1.01968e-05 5.11949e-05)
(0.000224382 4.22381e-08 5.41568e-05)
(0.000250341 -1.05489e-05 5.67544e-05)
(0.000274766 -2.08464e-05 5.93168e-05)
(5.12372e-05 3.2101e-05 1.10567e-05)
(9.16067e-05 2.27315e-05 2.30144e-05)
(0.000132295 2.10867e-05 3.20499e-05)
(0.000167337 1.50198e-05 3.81507e-05)
(0.000198832 6.60267e-06 4.23071e-05)
(0.000227041 -3.33101e-06 4.53712e-05)
(0.000252751 -1.37217e-05 4.79099e-05)
(0.000277027 -2.3836e-05 5.03251e-05)
(5.20197e-05 3.28537e-05 7.31251e-06)
(9.34634e-05 2.21694e-05 1.67162e-05)
(0.000134883 1.93078e-05 2.42248e-05)
(0.000170127 1.25084e-05 2.97427e-05)
(0.000201542 3.80211e-06 3.3706e-05)
(0.000229576 -6.18485e-06 3.66525e-05)
(0.000255119 -1.65165e-05 3.90439e-05)
(0.000279299 -2.64999e-05 4.12341e-05)
(5.26453e-05 3.34257e-05 4.90141e-06)
(9.47654e-05 2.20172e-05 1.1896e-05)
(0.000136749 1.83715e-05 1.77047e-05)
(0.000172273 1.09125e-05 2.21996e-05)
(0.000203757 1.80292e-06 2.55761e-05)
(0.000231745 -8.37284e-06 2.81433e-05)
(0.000257216 -1.8745e-05 3.02206e-05)
(0.000281359 -2.86663e-05 3.20671e-05)
(5.30928e-05 3.383e-05 3.17214e-06)
(9.56711e-05 2.20204e-05 7.98359e-06)
(0.000138061 1.78835e-05 1.20886e-05)
(0.000173831 9.93947e-06 1.53694e-05)
(0.000205425 4.72859e-07 1.79117e-05)
(0.000233434 -9.91107e-06 1.9885e-05)
(0.000258894 -2.03632e-05 2.14869e-05)
(0.000283044 -3.02709e-05 2.28816e-05)
(5.33793e-05 3.40884e-05 1.79294e-06)
(9.62482e-05 2.20652e-05 4.60478e-06)
(0.000138904 1.76415e-05 7.04466e-06)
(0.000174848 9.38793e-06 9.03257e-06)
(0.000206537 -3.28836e-07 1.06029e-05)
(0.000234585 -1.08742e-05 1.18393e-05)
(0.000260059 -2.14003e-05 1.28467e-05)
(0.000284232 -3.13158e-05 1.37124e-05)
(5.35187e-05 3.42145e-05 5.81087e-07)
(9.65291e-05 2.20985e-05 1.50587e-06)
(0.000139316 1.75425e-05 2.31487e-06)
(0.00017535 9.13928e-06 2.98003e-06)
(0.000207093 -7.03974e-07 3.51031e-06)
(0.000235167 -1.13351e-05 3.93079e-06)
(0.000260656 -2.19036e-05 4.27413e-06)
(0.000284845 -3.18283e-05 4.56729e-06)
(3.02312e-05 2.09605e-05 4.74161e-05)
(7.43365e-05 1.41172e-05 4.42692e-05)
(0.00011604 1.42645e-05 5.57862e-05)
(0.000153193 8.3565e-06 5.98603e-05)
(0.000186499 5.60753e-07 6.35673e-05)
(0.000215825 -8.73864e-06 6.6547e-05)
(0.00024203 -1.85821e-05 6.94291e-05)
(0.000266402 -2.85689e-05 7.22425e-05)
(1.51883e-05 1.08269e-05 3.09019e-05)
(5.75162e-05 -3.91098e-06 4.23921e-05)
(0.000100506 -9.1584e-06 5.18424e-05)
(0.000139696 -1.69018e-05 5.77065e-05)
(0.000174312 -2.53235e-05 6.20174e-05)
(0.000204456 -3.43325e-05 6.52851e-05)
(0.000231119 -4.3549e-05 6.80421e-05)
(0.000255708 -5.28357e-05 7.06332e-05)
(7.60962e-06 3.92474e-06 2.05846e-05)
(4.70978e-05 -1.43426e-05 3.52884e-05)
(8.92784e-05 -2.74382e-05 4.75141e-05)
(0.000128919 -3.91767e-05 5.5353e-05)
(0.000163774 -4.96282e-05 6.06281e-05)
(0.00019404 -5.92306e-05 6.41885e-05)
(0.000220757 -6.82677e-05 6.6835e-05)
(0.000245366 -7.69683e-05 6.92388e-05)
(4.01132e-06 -4.07696e-06 7.87345e-06)
(4.35383e-05 -2.90409e-05 2.89868e-05)
(8.34407e-05 -4.89625e-05 4.37123e-05)
(0.000121278 -6.39704e-05 5.3483e-05)
(0.000154932 -7.54776e-05 5.96047e-05)
(0.000184449 -8.491e-05 6.32969e-05)
(0.000210747 -9.32774e-05 6.57188e-05)
(0.000235189 -0.000101208 6.77743e-05)
(8.3752e-06 -2.78065e-05 3.89778e-06)
(4.50881e-05 -5.55893e-05 2.52641e-05)
(8.19727e-05 -7.33289e-05 3.94309e-05)
(0.000117985 -8.50987e-05 4.88283e-05)
(0.000150699 -9.34291e-05 5.46403e-05)
(0.000179955 -0.000100364 5.80704e-05)
(0.000206362 -0.000107197 6.02511e-05)
(0.000231126 -0.000114596 6.22625e-05)
(1.43138e-05 -3.14439e-05 3.48984e-06)
(4.59434e-05 -6.07993e-05 1.94973e-05)
(8.32255e-05 -7.89932e-05 3.15461e-05)
(0.000118976 -9.01242e-05 3.97618e-05)
(0.000151673 -9.7819e-05 4.50993e-05)
(0.00018107 -0.000104279 4.84981e-05)
(0.000207776 -0.000110851 5.08697e-05)
(0.000232807 -0.000118113 5.31104e-05)
(1.64023e-05 -3.29404e-05 3.43283e-06)
(4.74088e-05 -6.2593e-05 1.50518e-05)
(8.44597e-05 -8.20997e-05 2.44457e-05)
(0.000120159 -9.36006e-05 3.14127e-05)
(0.00015292 -0.000101415 3.61807e-05)
(0.000182453 -0.000107891 3.94236e-05)
(0.000209364 -0.000114463 4.18297e-05)
(0.000234653 -0.000121698 4.41108e-05)
(1.73704e-05 -3.37225e-05 2.97381e-06)
(4.85745e-05 -6.36059e-05 1.14221e-05)
(8.56551e-05 -8.39547e-05 1.85459e-05)
(0.000121391 -9.60712e-05 2.41209e-05)
(0.000154251 -0.000104252 2.8161e-05)
(0.000183912 -0.00011094 3.10592e-05)
(0.000210987 -0.000117641 3.33004e-05)
(0.000236476 -0.000124935 3.54162e-05)
(1.79353e-05 -3.4208e-05 2.33246e-06)
(4.94367e-05 -6.43002e-05 8.35382e-06)
(8.66886e-05 -8.52028e-05 1.35672e-05)
(0.00012253 -9.7834e-05 1.77914e-05)
(0.000155495 -0.000106399 2.09914e-05)
(0.000185269 -0.000113344 2.33853e-05)
(0.000212472 -0.000120212 2.529e-05)
(0.000238116 -0.0001276 2.70746e-05)
(1.82997e-05 -3.45296e-05 1.64799e-06)
(5.00556e-05 -6.47897e-05 5.69149e-06)
(8.74955e-05 -8.60605e-05 9.25187e-06)
(0.00012346 -9.90612e-05 1.22032e-05)
(0.000156523 -0.000107934 1.45082e-05)
(0.000186389 -0.000115103 1.62851e-05)
(0.000213687 -0.000122122 1.77265e-05)
(0.000239438 -0.000129604 1.90666e-05)