/*--------------------------------*- C++ -*----------------------------------*\
| =========                 |                                                 |
| \\      /  F ield         | foam-extend: Open Source CFD                    |
|  \\    /   O peration     | Version:     3.1                                |
|   \\  /    A nd           | Web:         http://www.extend-project.de       |
|    \\/     M anipulation  |                                                 |
\*---------------------------------------------------------------------------*/
FoamFile
{
    version     2.0;
    format      ascii;
    class       volSymmTensorField;
    location    "0.1";
    object      epsilon;
}
// * * * * * * * * * * * * * * * * * * * * * * * * * * * * * * * * * * * * * //

dimensions      [0 0 0 0 0 0 0];

internalField   nonuniform List<symmTensor> 
256
(
(-0.000439822 0.000799922 -1.98405e-05 0.00080263 0.000586745 -0.00029984)
(-0.00024283 0.000681544 -4.30359e-05 -7.8405e-05 0.000476527 -0.000244553)
(-0.000128342 0.000510396 -4.21675e-05 -0.000484413 0.000343465 -0.000172044)
(-1.8223e-06 0.000327008 -1.48809e-05 -0.00109801 0.000234034 -0.00011378)
(-0.000749071 0.000170575 -1.11241e-05 -0.000186874 -2.94133e-05 -0.000487692)
(-0.00051193 0.00055962 -4.83655e-05 -0.000265231 1.35158e-05 -0.00042566)
(-0.000290812 0.000556708 -5.85483e-05 -0.000562711 6.89579e-05 -0.00033214)
(-8.24305e-05 0.000276477 -2.1861e-05 -0.000836925 0.000107932 -0.000252829)
(-0.000602405 0.000186157 8.51293e-06 -0.000145805 3.10951e-05 -0.000381953)
(-0.000524721 0.000394247 -9.13363e-06 -0.000252425 2.78181e-05 -0.000368277)
(-0.000345489 0.000409074 -2.24316e-05 -0.00044657 3.56519e-05 -0.000334973)
(-0.000215758 0.000192876 -9.4442e-06 -0.00059214 5.08933e-05 -0.00030487)
(-0.000548335 0.000100884 2.1741e-06 -0.000298402 -9.265e-06 -0.000374772)
(-0.000492572 0.000251042 -3.0027e-06 -0.000310072 2.91001e-08 -0.000369528)
(-0.000376154 0.000261884 -6.51101e-06 -0.000398882 8.58548e-06 -0.000355354)
(-0.000305016 0.0001211 -3.08868e-06 -0.00043839 1.63727e-05 -0.000345481)
(-0.000490935 5.71782e-05 4.16572e-06 -0.000362475 -8.27108e-06 -0.000359842)
(-0.000461413 0.000139498 2.64581e-06 -0.000342423 -5.5189e-06 -0.000365043)
(-0.000392577 0.000143989 1.09939e-06 -0.000368222 -4.16171e-06 -0.000364533)
(-0.00035932 6.37746e-05 -7.49757e-07 -0.000352188 -3.80504e-06 -0.00036576)
(-0.000459346 2.06265e-05 3.76086e-06 -0.000397219 -9.16691e-06 -0.000359322)
(-0.000440984 6.10067e-05 3.95402e-06 -0.000360991 -9.1921e-06 -0.000366185)
(-0.00040236 6.29232e-05 3.74073e-06 -0.000352635 -1.11415e-05 -0.000369333)
(-0.000387591 2.59178e-05 1.21235e-08 -0.000316059 -1.51504e-05 -0.000373497)
(-0.000443294 2.11637e-07 3.59214e-06 -0.000402112 -7.26879e-06 -0.000363347)
(-0.000428799 1.5894e-05 3.90181e-06 -0.000369064 -9.62424e-06 -0.00036821)
(-0.000407426 1.70464e-05 4.31877e-06 -0.000347039 -1.33229e-05 -0.000370112)
(-0.000397909 6.35228e-06 1.7745e-07 -0.000310049 -1.904e-05 -0.000372863)
(-0.000439273 -4.25825e-06 3.84769e-06 -0.000396199 -5.4391e-06 -0.000367241)
(-0.000424561 1.26422e-06 4.41108e-06 -0.000374212 -6.47367e-06 -0.000369045)
(-0.000409844 5.6138e-07 5.14375e-06 -0.000351971 -7.93893e-06 -0.000367896)
(-0.000398932 -5.95149e-07 7.09675e-07 -0.00032806 -1.08177e-05 -0.000367876)
(-0.000441189 0.000834748 -1.15463e-05 0.000472974 0.00046295 -0.000183925)
(-0.000237839 0.000728887 -2.93413e-05 -0.000407248 0.000387887 -0.000149857)
(-0.000127482 0.000561456 -2.83128e-05 -0.000789493 0.000303371 -0.000103928)
(8.92985e-06 0.000377733 -6.10257e-06 -0.00139006 0.00023248 -6.69254e-05)
(-0.000767641 0.000190728 -1.89417e-06 -6.83096e-05 0.000163316 -0.000376743)
(-0.000515536 0.00057476 -3.54552e-05 -0.000172044 0.000170963 -0.000328669)
(-0.000302128 0.000559474 -4.4361e-05 -0.000520013 0.000193048 -0.000258561)
(-8.29502e-05 0.00026156 -1.492e-05 -0.000821709 0.000207389 -0.000200342)
(-0.000626703 0.000166852 1.64289e-05 -0.000131259 6.70748e-05 -0.000380706)
(-0.000540579 0.000375497 -3.65245e-06 -0.000222174 7.28485e-05 -0.000360822)
(-0.000369275 0.000390937 -1.87448e-05 -0.000407597 9.07562e-05 -0.00032622)
(-0.00023798 0.000184186 -1.04691e-05 -0.000551496 0.000110261 -0.000297494)
(-0.000563037 9.25457e-05 1.45058e-05 -0.000264337 1.64493e-05 -0.000368216)
(-0.000507414 0.000235421 9.02444e-06 -0.000274211 2.63868e-05 -0.000363372)
(-0.000397378 0.00024675 8.95466e-07 -0.000357798 3.78193e-05 -0.00035075)
(-0.000325056 0.000112678 -5.29496e-07 -0.000393692 4.74896e-05 -0.000342768)
(-0.000504065 4.94787e-05 1.45488e-05 -0.000343234 -4.22593e-06 -0.00035735)
(-0.000474972 0.000129032 1.41116e-05 -0.000318693 1.65486e-06 -0.000361931)
(-0.000408916 0.000135765 9.32498e-06 -0.0003381 5.83009e-06 -0.000360912)
(-0.000374782 6.03066e-05 3.04534e-06 -0.000318855 7.30478e-06 -0.000362619)
(-0.000469035 1.73326e-05 1.2561e-05 -0.000384492 -1.16597e-05 -0.000354142)
(-0.000451157 5.66987e-05 1.43166e-05 -0.000346571 -9.93334e-06 -0.000361173)
(-0.000413041 6.0814e-05 1.14055e-05 -0.000334648 -1.12841e-05 -0.000363789)
(-0.000397619 2.61637e-05 3.68686e-06 -0.000296341 -1.55647e-05 -0.000367954)
(-0.000450259 -8.97489e-07 1.03736e-05 -0.000395827 -1.22241e-05 -0.000356441)
(-0.000435542 1.51491e-05 1.26202e-05 -0.000363237 -1.33534e-05 -0.000362019)
(-0.000413072 1.79603e-05 1.09625e-05 -0.000340974 -1.70585e-05 -0.000363626)
(-0.000402926 8.30667e-06 3.29272e-06 -0.000303863 -2.34926e-05 -0.000366259)
(-0.000444101 -4.26421e-06 9.66205e-06 -0.000393455 -8.50708e-06 -0.000360561)
(-0.000428827 1.46518e-06 1.27451e-05 -0.000372315 -9.35515e-06 -0.000363722)
(-0.000412263 1.22066e-06 1.20018e-05 -0.000350929 -1.11628e-05 -0.000362851)
(-0.00040071 1.66677e-07 4.19052e-06 -0.000327446 -1.4924e-05 -0.000363002)
(-0.000451179 0.000855023 -5.63945e-06 0.000415054 0.000329663 -0.000118138)
(-0.000241299 0.00075122 -1.59636e-05 -0.000482354 0.000282408 -9.76562e-05)
(-0.000122535 0.000584911 -1.5622e-05 -0.000863471 0.000233004 -7.20955e-05)
(2.35601e-05 0.000407295 -4.35451e-06 -0.00146953 0.000190967 -5.10657e-05)
(-0.000796761 0.000208287 -2.64876e-06 -0.000133264 0.000178586 -0.000273285)
(-0.000533924 0.000594981 -1.94715e-05 -0.000227423 0.000173682 -0.000238904)
(-0.000304207 0.000569026 -2.36973e-05 -0.000574391 0.000180423 -0.000196652)
(-7.13533e-05 0.000254007 -7.70732e-06 -0.000864344 0.000182763 -0.000161509)
(-0.000657421 0.000163738 8.29063e-06 -0.000150152 9.68253e-05 -0.000324706)
(-0.000567987 0.000380828 1.16816e-07 -0.000233284 9.64308e-05 -0.0003016)
(-0.00038635 0.000397058 -8.21215e-06 -0.000421382 0.00010554 -0.000275912)
(-0.000248647 0.00018812 -3.61587e-06 -0.000570788 0.000114423 -0.000255449)
(-0.000584002 9.05108e-05 1.15295e-05 -0.00026357 4.08875e-05 -0.000342432)
(-0.000529974 0.000233711 1.09198e-05 -0.000272617 4.53313e-05 -0.000329005)
(-0.000416837 0.000246904 4.72423e-06 -0.000357195 5.22632e-05 -0.000316394)
(-0.00034147 0.000112763 1.5701e-06 -0.000395601 5.72961e-05 -0.000308132)
(-0.000519925 4.58807e-05 1.23699e-05 -0.00033639 1.00674e-05 -0.00034698)
(-0.000492521 0.000125567 1.56907e-05 -0.000312108 1.39785e-05 -0.000341301)
(-0.000425845 0.000134172 1.15845e-05 -0.000332736 1.65538e-05 -0.000336676)
(-0.000391118 5.98e-05 4.36158e-06 -0.000315938 1.66051e-05 -0.000334681)
(-0.000480041 1.43138e-05 1.16449e-05 -0.000377213 -4.86189e-06 -0.000349941)
(-0.000463739 5.32016e-05 1.63631e-05 -0.000340784 -3.18558e-06 -0.000347986)
(-0.000425717 5.89746e-05 1.35951e-05 -0.000330013 -4.44306e-06 -0.000346505)
(-0.000410584 2.5524e-05 5.00396e-06 -0.000293452 -8.16504e-06 -0.000346406)
(-0.000457607 -3.41298e-06 1.03961e-05 -0.000390307 -9.63071e-06 -0.000354674)
(-0.000443815 1.25196e-05 1.55029e-05 -0.00035966 -9.96325e-06 -0.000353587)
(-0.000421218 1.65868e-05 1.37778e-05 -0.000338551 -1.30193e-05 -0.000352146)
(-0.000411499 8.04646e-06 4.9397e-06 -0.000302275 -1.83876e-05 -0.000351395)
(-0.000448653 -5.10664e-06 1.04496e-05 -0.000389201 -7.08312e-06 -0.000362321)
(-0.00043396 4.18042e-07 1.65591e-05 -0.000369387 -7.644e-06 -0.00036091)
(-0.000417137 5.44364e-07 1.57821e-05 -0.000348813 -9.28457e-06 -0.000358528)
(-0.000405942 -1.28529e-07 6.44396e-06 -0.00032566 -1.26137e-05 -0.000356566)
(-0.000460114 0.000870389 -2.41816e-06 0.000401347 0.000234178 -8.15255e-05)
(-0.000244907 0.000766601 -8.31327e-06 -0.00051022 0.000204189 -6.94483e-05)
(-0.000120556 0.000599948 -8.11706e-06 -0.000891978 0.000174511 -5.50606e-05)
(3.07313e-05 0.000423874 -2.23777e-06 -0.00150381 0.000148821 -4.34507e-05)
(-0.000815794 0.000216659 -6.59292e-07 -0.000181138 0.000154001 -0.000203976)
(-0.000546479 0.000610359 -9.68328e-06 -0.000268485 0.00014584 -0.000181645)
(-0.000305742 0.000580161 -1.14415e-05 -0.000612751 0.000145696 -0.000156077)
(-6.42891e-05 0.00025544 -3.2864e-06 -0.00089404 0.000142368 -0.000135009)
(-0.000676798 0.00016742 5.60879e-06 -0.000181042 9.81723e-05 -0.000269216)
(-0.000586567 0.000389659 2.15888e-06 -0.000258151 9.37891e-05 -0.000250371)
(-0.000396719 0.000404914 -1.81109e-06 -0.000446779 9.63388e-05 -0.000231634)
(-0.000253313 0.000191249 -4.15385e-07 -0.000597965 9.79783e-05 -0.000216279)
(-0.000600582 9.1165e-05 8.66383e-06 -0.000277778 5.21013e-05 -0.000306448)
(-0.000547848 0.000236906 9.89377e-06 -0.000284714 5.16527e-05 -0.000291589)
(-0.000430921 0.000250825 6.37366e-06 -0.000370687 5.40593e-05 -0.000279383)
(-0.000352562 0.000114462 2.58552e-06 -0.000411312 5.50882e-05 -0.000270081)
(-0.000532496 4.49338e-05 9.84509e-06 -0.000340747 2.11201e-05 -0.000326748)
(-0.000507164 0.000125484 1.37885e-05 -0.000316548 2.19981e-05 -0.000316039)
(-0.000439319 0.000135012 1.11481e-05 -0.000339056 2.24548e-05 -0.000308327)
(-0.000403996 6.02801e-05 4.40026e-06 -0.000324518 2.10513e-05 -0.000302536)
(-0.000488872 1.26781e-05 9.80696e-06 -0.000376733 3.40014e-06 -0.000339569)
(-0.00047467 5.143e-05 1.48292e-05 -0.000341694 3.80015e-06 -0.000331647)
(-0.000436631 5.81263e-05 1.28777e-05 -0.000332815 2.24268e-06 -0.000325984)
(-0.000422053 2.52427e-05 4.91998e-06 -0.000298168 -1.20654e-06 -0.000321235)
(-0.000463255 -5.18231e-06 9.36077e-06 -0.000387653 -4.28935e-06 -0.000350495)
(-0.000451244 1.04337e-05 1.48855e-05 -0.000359131 -4.77539e-06 -0.000343882)
(-0.000428955 1.52403e-05 1.35317e-05 -0.000339712 -7.26879e-06 -0.000338579)
(-0.000420213 7.66554e-06 5.04512e-06 -0.000304792 -1.16462e-05 -0.00033342)
(-0.000451791 -5.72169e-06 9.99742e-06 -0.000385561 -4.67055e-06 -0.000363075)
(-0.000438623 -6.31669e-07 1.6633e-05 -0.000367429 -5.10374e-06 -0.000357013)
(-0.000422378 -2.99237e-07 1.59425e-05 -0.000348109 -6.34437e-06 -0.000351701)
(-0.00041233 -4.23066e-07 6.61588e-06 -0.000325804 -9.05375e-06 -0.000346032)
(-0.000466637 0.000881957 -9.59715e-07 0.000399017 0.000164194 -6.11123e-05)
(-0.000247516 0.000777852 -4.21155e-06 -0.00052317 0.000144843 -5.34825e-05)
(-0.00011989 0.000610623 -4.06865e-06 -0.000906256 0.000126554 -4.49059e-05)
(3.45191e-05 0.000434356 -9.87333e-07 -0.00152347 0.000110294 -3.7995e-05)
(-0.000828609 0.000221648 3.37912e-07 -0.000210237 0.000120193 -0.000161566)
(-0.000554265 0.000621347 -4.31611e-06 -0.000294038 0.000112195 -0.000146117)
(-0.000307046 0.000589508 -5.03546e-06 -0.000637027 0.000109555 -0.00012967)
(-6.05878e-05 0.000258238 -1.05976e-06 -0.000913608 0.00010465 -0.000115971)
(-0.000689266 0.000170836 4.05845e-06 -0.000206842 8.40491e-05 -0.000228737)
(-0.000597804 0.000397128 2.97845e-06 -0.000280356 7.86325e-05 -0.000213263)
(-0.000402929 0.000411664 1.08514e-06 -0.000468826 7.78358e-05 -0.000198873)
(-0.000256332 0.000193935 8.83211e-07 -0.000619912 7.60597e-05 -0.000186498)
(-0.000611986 9.25421e-05 6.30699e-06 -0.000295338 5.05818e-05 -0.00027503)
(-0.000559561 0.000240758 8.16092e-06 -0.000299857 4.78633e-05 -0.000260449)
(-0.000440088 0.000254763 6.25255e-06 -0.000386475 4.75334e-05 -0.000248667)
(-0.000360066 0.000116108 2.69839e-06 -0.00042819 4.62416e-05 -0.000238519)
(-0.000541742 4.50087e-05 7.37338e-06 -0.000350215 2.51653e-05 -0.000305883)
(-0.000517489 0.000126623 1.10138e-05 -0.000325402 2.39811e-05 -0.000292827)
(-0.000448829 0.000136458 9.40564e-06 -0.000349097 2.29956e-05 -0.000283016)
(-0.000413371 6.09237e-05 3.79732e-06 -0.000335924 2.08368e-05 -0.000274249)
(-0.000495711 1.19682e-05 7.61367e-06 -0.000380484 8.83625e-06 -0.000327468)
(-0.00048284 5.08717e-05 1.20502e-05 -0.000346126 8.02114e-06 -0.000315755)
(-0.000444918 5.79353e-05 1.07334e-05 -0.000338694 6.19121e-06 -0.000306853)
(-0.000431062 2.51814e-05 4.14982e-06 -0.000305418 3.11383e-06 -0.000298294)
(-0.000467819 -6.16882e-06 7.61471e-06 -0.000387668 4.55326e-07 -0.000344852)
(-0.000457154 9.27098e-06 1.25527e-05 -0.00036073 -4.96495e-07 -0.000334001)
(-0.000435382 1.43686e-05 1.15114e-05 -0.000342791 -2.61364e-06 -0.000325283)
(-0.000427748 7.37097e-06 4.3244e-06 -0.000309084 -6.05789e-06 -0.000316234)
(-0.000454476 -6.03608e-06 8.48545e-06 -0.00038381 -2.13689e-06 -0.000362065)
(-0.000442582 -1.27343e-06 1.44302e-05 -0.00036712 -2.70266e-06 -0.000351836)
(-0.000427253 -9.36002e-07 1.37647e-05 -0.000349048 -3.67345e-06 -0.000343414)
(-0.00041857 -6.5508e-07 5.68258e-06 -0.000327668 -5.7334e-06 -0.000334132)
(-0.000470948 0.000890188 -3.12658e-07 0.00040005 0.000109185 -4.95924e-05)
(-0.000249231 0.000785929 -2.0688e-06 -0.000529819 9.69952e-05 -4.4268e-05)
(-0.000119674 0.000618202 -1.96837e-06 -0.000914365 8.58517e-05 -3.86114e-05)
(3.66574e-05 0.000441355 -3.73547e-07 -0.00153604 7.56639e-05 -3.39475e-05)
(-0.000836766 0.000224875 6.63866e-07 -0.000227447 8.50372e-05 -0.000136072)
(-0.000559029 0.000628966 -1.67056e-06 -0.000309518 7.87064e-05 -0.000124382)
(-0.00030801 0.000596384 -1.96304e-06 -0.000652285 7.5802e-05 -0.000112664)
(-5.86557e-05 0.000260649 -1.26927e-07 -0.000926564 7.137e-05 -0.000102571)
(-0.000696895 0.000173283 2.88912e-06 -0.000225024 6.28475e-05 -0.000201723)
(-0.000604486 0.000402509 2.7787e-06 -0.000296549 5.8095e-05 -0.000188379)
(-0.000406674 0.000416665 1.86166e-06 -0.000484841 5.62385e-05 -0.000176397)
(-0.000258469 0.000195994 1.12181e-06 -0.000635454 5.3602e-05 -0.000165513)
(-0.000619104 9.37434e-05 4.36854e-06 -0.000310196 4.07099e-05 -0.000251809)
(-0.000566783 0.000243857 6.05773e-06 -0.000312905 3.76628e-05 -0.0002377)
(-0.000445824 0.000257818 5.03663e-06 -0.000399698 3.62976e-05 -0.000226131)
(-0.000365057 0.000117365 2.21057e-06 -0.000441692 3.4295e-05 -0.000215321)
(-0.000547792 4.53229e-05 5.14579e-06 -0.000359952 2.26115e-05 -0.000288825)
(-0.000524216 0.000127848 7.96423e-06 -0.000334325 2.0751e-05 -0.000274637)
(-0.000455134 0.000137768 7.01319e-06 -0.00035859 1.92724e-05 -0.000263436)
(-0.000419814 6.14675e-05 2.85451e-06 -0.000346066 1.71156e-05 -0.000252601)
(-0.000500454 1.16964e-05 5.41933e-06 -0.000385512 1.00697e-05 -0.000316621)
(-0.000488483 5.08324e-05 8.78584e-06 -0.000351341 8.75e-06 -0.00030261)
(-0.000450766 5.80189e-05 7.92873e-06 -0.00034479 7.01537e-06 -0.000291431)
(-0.000437586 2.52057e-05 3.07088e-06 -0.000312328 4.55423e-06 -0.000280149)
(-0.000471216 -6.68375e-06 5.58289e-06 -0.000389108 2.89378e-06 -0.000339081)
(-0.000461541 8.69004e-06 9.35754e-06 -0.00036316 1.75513e-06 -0.000325298)
(-0.000440286 1.38738e-05 8.59472e-06 -0.000346267 6.39212e-08 -0.000313993)
(-0.000433597 7.17875e-06 3.21712e-06 -0.000313418 -2.44803e-06 -0.000302055)
(-0.000456708 -6.20709e-06 6.41592e-06 -0.000383524 -4.66094e-07 -0.00035957)
(-0.000445797 -1.64516e-06 1.09606e-05 -0.000367882 -1.07138e-06 -0.000346232)
(-0.000431328 -1.35285e-06 1.036e-05 -0.00035079 -1.80142e-06 -0.000335272)
(-0.0004238 -8.07001e-07 4.22282e-06 -0.000330145 -3.25113e-06 -0.000323178)
(-0.000473555 0.000895485 -7.19585e-08 0.000401654 6.26515e-05 -4.33532e-05)
(-0.000250255 0.000791189 -9.35431e-07 -0.000533246 5.58668e-05 -3.91516e-05)
(-0.000119606 0.000623129 -8.76875e-07 -0.000918973 4.97929e-05 -3.48912e-05)
(3.78622e-05 0.000445777 -1.1751e-07 -0.00154383 4.41181e-05 -3.12527e-05)
(-0.000841587 0.00022688 5.39652e-07 -0.000237079 5.05065e-05 -0.000121659)
(-0.000561777 0.000633805 -5.2727e-07 -0.000318371 4.6518e-05 -0.000111855)
(-0.000308627 0.000600857 -6.42956e-07 -0.000661333 4.44483e-05 -0.000102442)
(-5.76522e-05 0.0002623 1.23523e-07 -0.000934574 4.14898e-05 -9.40103e-05)
(-0.00070127 0.00017483 1.74517e-06 -0.000236331 3.85389e-05 -0.000185434)
(-0.000608259 0.00040594 1.90398e-06 -0.000306815 3.53807e-05 -0.000173219)
(-0.000408833 0.000419909 1.47879e-06 -0.000495027 3.38136e-05 -0.000162444)
(-0.000259871 0.000197358 8.26378e-07 -0.00064527 3.17617e-05 -0.000152223)
(-0.000623197 9.45548e-05 2.58196e-06 -0.000320377 2.60333e-05 -0.000236944)
(-0.000570923 0.000245915 3.71907e-06 -0.000321966 2.38115e-05 -0.000223104)
(-0.000449184 0.000259831 3.21131e-06 -0.000408766 2.25686e-05 -0.000211585)
(-0.000368149 0.000118191 1.41367e-06 -0.000450722 2.09627e-05 -0.000200318)
(-0.000551366 4.55955e-05 3.04559e-06 -0.000367306 1.53622e-05 -0.00027723)
(-0.000528218 0.000128752 4.80685e-06 -0.000341044 1.38556e-05 -0.000262422)
(-0.000458966 0.000138687 4.29906e-06 -0.000365536 1.26556e-05 -0.000250354)
(-0.000423854 6.18396e-05 1.75269e-06 -0.000353249 1.11112e-05 -0.000238246)
(-0.00050339 1.16019e-05 3.24137e-06 -0.000389754 7.62163e-06 -0.000308788)
(-0.000492006 5.09327e-05 5.32276e-06 -0.00035557 6.51538e-06 -0.000293417)
(-0.00045449 5.81499e-05 4.83216e-06 -0.000349483 5.28334e-06 -0.0002808)
(-0.000441813 2.52433e-05 1.86845e-06 -0.000317437 3.68883e-06 -0.000267814)
(-0.000473475 -6.93852e-06 3.39672e-06 -0.000390751 2.88376e-06 -0.000334512)
(-0.000464457 8.41598e-06 5.7408e-06 -0.000365346 1.98388e-06 -0.000318878)
(-0.0004436 1.36084e-05 5.26759e-06 -0.000349086 8.74653e-07 -0.000305877)
(-0.000437567 7.06154e-06 1.96276e-06 -0.000316754 -6.63931e-07 -0.000292095)
(-0.000458364 -6.29775e-06 3.98063e-06 -0.00038393 2.06403e-07 -0.000356927)
(-0.000448114 -1.84923e-06 6.80363e-06 -0.000368935 -2.57952e-07 -0.000341547)
(-0.000434268 -1.60573e-06 6.38031e-06 -0.000352482 -7.23363e-07 -0.000328871)
(-0.000427525 -9.00793e-07 2.57717e-06 -0.00033232 -1.5908e-06 -0.000314949)
(-0.000474781 0.000898078 -8.5479e-09 0.000402677 2.04416e-05 -4.06025e-05)
(-0.000250733 0.000793787 -2.67882e-07 -0.00053472 1.82572e-05 -3.68557e-05)
(-0.000119586 0.000625565 -2.48763e-07 -0.000921095 1.63207e-05 -3.3152e-05)
(3.84143e-05 0.000447933 -2.48503e-08 -0.00154759 1.44906e-05 -2.99097e-05)
(-0.000843824 0.00022785 1.98801e-07 -0.000241407 1.67357e-05 -0.00011514)
(-0.000563038 0.000636164 -1.06632e-07 -0.00032241 1.53792e-05 -0.000106115)
(-0.000308926 0.000603059 -1.37536e-07 -0.000665567 1.46418e-05 -9.76308e-05)
(-5.72177e-05 0.000263128 6.76113e-08 -0.000938419 1.36118e-05 -8.98409e-05)
(-0.00070326 0.00017558 5.83054e-07 -0.000241716 1.29597e-05 -0.000177797)
(-0.000609969 0.000407607 6.70027e-07 -0.000311756 1.18601e-05 -0.000166058)
(-0.000409829 0.000421498 5.45012e-07 -0.00049995 1.12683e-05 -0.000155771)
(-0.000260568 0.000198035 2.95298e-07 -0.000650008 1.05134e-05 -0.000145793)
(-0.000625058 9.49573e-05 8.54543e-07 -0.00032547 8.92443e-06 -0.000229749)
(-0.000572812 0.000246929 1.25206e-06 -0.000326533 8.12279e-06 -0.000216014)
(-0.000450743 0.000260823 1.09727e-06 -0.000413313 7.64132e-06 -0.000204486)
(-0.000369636 0.000118599 4.82059e-07 -0.000455196 7.04208e-06 -0.000192985)
(-0.000553014 4.5743e-05 1.00845e-06 -0.000371165 5.41182e-06 -0.000271436)
(-0.000530083 0.000129216 1.60562e-06 -0.000344571 4.84689e-06 -0.000256335)
(-0.000460782 0.000139151 1.44512e-06 -0.000369136 4.3952e-06 -0.000243845)
(-0.000425806 6.2026e-05 5.8844e-07 -0.00035691 3.83883e-06 -0.000231134)
(-0.000504787 1.15742e-05 1.07848e-06 -0.000392101 2.80801e-06 -0.000304735)
(-0.000493699 5.10106e-05 1.78087e-06 -0.000357875 2.38611e-06 -0.00028872)
(-0.000456305 5.82313e-05 1.62026e-06 -0.000351983 1.94204e-06 -0.000275407)
(-0.000443891 2.52666e-05 6.2516e-07 -0.000320104 1.38969e-06 -0.000261609)
(-0.000474604 -7.04391e-06 1.13931e-06 -0.000391771 1.16113e-06 -0.000332017)
(-0.000465917 8.30637e-06 1.93199e-06 -0.000366601 8.22784e-07 -0.000315485)
(-0.000445274 1.34909e-05 1.77108e-06 -0.000350635 4.35051e-07 -0.00030165)
(-0.000439571 7.00631e-06 6.58282e-07 -0.000318543 -8.469e-08 -0.000286978)
(-0.000459248 -6.33865e-06 1.34815e-06 -0.000384326 1.52744e-07 -0.000355283)
(-0.000449336 -1.94105e-06 2.30307e-06 -0.000369634 -1.9917e-08 -0.0003389)
(-0.000435809 -1.72786e-06 2.1508e-06 -0.000353493 -1.81204e-07 -0.000325373)
(-0.000429452 -9.46027e-07 8.65819e-07 -0.00033357 -4.72055e-07 -0.000310561)
)
;

boundaryField
{
    interface
    {
        type            calculated;
        value           nonuniform List<symmTensor> 
192
(
(-0.00177491 -4.46191e-07 1.02711e-05 0.00146674 0.000630628 -0.000319401)
(-0.000493919 -3.98194e-08 1.32327e-05 -0.000255835 -4.15413e-05 -0.000506535)
(-0.000654995 -1.53738e-06 1.26888e-05 -0.000128622 3.43931e-05 -0.000381921)
(-0.000519819 -2.44265e-06 1.16626e-05 -0.00032716 -1.45607e-05 -0.000372929)
(-0.000479002 -3.16068e-06 1.03745e-05 -0.000394083 -1.04443e-05 -0.000354417)
(-0.000448016 -3.66188e-06 9.07859e-06 -0.000429064 -9.89983e-06 -0.000353911)
(-0.000440517 -3.87346e-06 7.86699e-06 -0.00042433 -6.52041e-06 -0.000359313)
(-0.000442814 -3.50928e-06 6.88876e-06 -0.000406938 -4.94961e-06 -0.000364777)
(-0.00165678 -1.27315e-06 6.27849e-06 0.00114739 0.000495694 -0.000195523)
(-0.000661483 -1.43131e-06 8.41822e-06 -0.000136462 0.000167953 -0.000391932)
(-0.000665052 -2.93435e-06 8.60142e-06 -0.000124886 6.79862e-05 -0.000385155)
(-0.000554932 -3.90869e-06 8.27996e-06 -0.000292748 1.15278e-05 -0.000366957)
(-0.000498914 -4.58734e-06 7.71996e-06 -0.000376066 -7.87574e-06 -0.000352249)
(-0.000465041 -5.01553e-06 7.08146e-06 -0.000416184 -1.36243e-05 -0.000348399)
(-0.000453385 -5.12631e-06 6.45695e-06 -0.000417364 -1.24814e-05 -0.000351703)
(-0.000451765 -4.63482e-06 5.96259e-06 -0.000403683 -8.28039e-06 -0.000357082)
(-0.00168346 -1.5624e-06 4.0381e-06 0.00110688 0.000351792 -0.000125977)
(-0.000688321 -2.02454e-06 5.61837e-06 -0.00021078 0.000187164 -0.000287366)
(-0.000685372 -3.76564e-06 6.00625e-06 -0.000152647 0.000100568 -0.000335681)
(-0.000571513 -4.83859e-06 6.0189e-06 -0.000292815 3.94411e-05 -0.000349424)
(-0.00050881 -5.53554e-06 5.82294e-06 -0.000369344 7.65546e-06 -0.000350067)
(-0.00047184 -5.93886e-06 5.52796e-06 -0.000407892 -6.72108e-06 -0.000350965)
(-0.000457837 -6.0035e-06 5.21071e-06 -0.000410479 -1.03607e-05 -0.000354965)
(-0.000452685 -5.45953e-06 4.96983e-06 -0.000398531 -7.09496e-06 -0.000362545)
(-0.00171453 -1.70668e-06 2.74365e-06 0.00110656 0.000248854 -8.63647e-05)
(-0.000706222 -2.33797e-06 3.9046e-06 -0.00026434 0.00016202 -0.000213662)
(-0.000702727 -4.27406e-06 4.30002e-06 -0.000189467 0.000103136 -0.000278756)
(-0.000586885 -5.45615e-06 4.43081e-06 -0.000309365 5.34507e-05 -0.000314834)
(-0.000519474 -6.19538e-06 4.40174e-06 -0.000374325 2.06408e-05 -0.00033314)
(-0.000479 -6.60165e-06 4.2812e-06 -0.000406884 2.59363e-06 -0.000344313)
(-0.000462345 -6.64837e-06 4.12591e-06 -0.00040656 -4.6454e-06 -0.000354252)
(-0.000454041 -6.07714e-06 4.01492e-06 -0.000393882 -4.6229e-06 -0.000366358)
(-0.00173732 -1.79117e-06 1.86792e-06 0.00111381 0.000174032 -6.43628e-05)
(-0.00071778 -2.52056e-06 2.6984e-06 -0.000296515 0.000126738 -0.000168694)
(-0.000713982 -4.59091e-06 3.03306e-06 -0.000218512 8.86588e-05 -0.00023686)
(-0.000596869 -5.86325e-06 3.18785e-06 -0.000329302 5.29241e-05 -0.000283341)
(-0.000527383 -6.6496e-06 3.22832e-06 -0.000384782 2.59374e-05 -0.000313593)
(-0.000484569 -7.07178e-06 3.19654e-06 -0.000410592 8.97497e-06 -0.00033437)
(-0.000465983 -7.11588e-06 3.13063e-06 -0.00040573 6.277e-07 -0.000351103)
(-0.000455263 -6.5316e-06 3.08931e-06 -0.000391343 -1.89068e-06 -0.000367901)
(-0.00175291 -1.84282e-06 1.21622e-06 0.00112155 0.000115556 -5.19969e-05)
(-0.000725127 -2.62969e-06 1.77407e-06 -0.000315463 8.98039e-05 -0.000141744)
(-0.000721135 -4.78775e-06 2.02204e-06 -0.00023846 6.64357e-05 -0.000208869)
(-0.000603067 -6.12538e-06 2.15452e-06 -0.000345826 4.29365e-05 -0.000259801)
(-0.000532541 -6.9514e-06 2.21102e-06 -0.00039545 2.37578e-05 -0.00029704)
(-0.000488479 -7.39182e-06 2.2167e-06 -0.000415797 1.06512e-05 -0.000324719)
(-0.000468756 -7.4396e-06 2.19537e-06 -0.000406696 3.35079e-06 -0.000346968)
(-0.00045663 -6.84931e-06 2.18689e-06 -0.000390524 -1.23902e-07 -0.000367232)
(-0.00176262 -1.87391e-06 6.86711e-07 0.00112746 6.62597e-05 -4.53428e-05)
(-0.000729411 -2.69226e-06 1.00586e-06 -0.000326042 5.3391e-05 -0.000126593)
(-0.000725284 -4.90243e-06 1.15865e-06 -0.000250704 4.07902e-05 -0.000192055)
(-0.000606591 -6.28197e-06 1.24641e-06 -0.000357008 2.75563e-05 -0.000244739)
(-0.000535535 -7.1356e-06 1.29031e-06 -0.00040345 1.62712e-05 -0.00028569)
(-0.000490876 -7.59051e-06 1.30417e-06 -0.000420231 8.17062e-06 -0.000317561)
(-0.000470595 -7.64291e-06 1.3008e-06 -0.000408103 3.31014e-06 -0.00034341)
(-0.000457771 -7.05005e-06 1.30348e-06 -0.000390617 4.91564e-07 -0.000365769)
(-0.00176728 -1.89248e-06 2.21442e-07 0.00113059 2.16128e-05 -4.24225e-05)
(-0.000731365 -2.72152e-06 3.24263e-07 -0.000330789 1.77003e-05 -0.000119767)
(-0.000727175 -4.95294e-06 3.76495e-07 -0.0002565 1.37251e-05 -0.000184194)
(-0.00060818 -6.35387e-06 4.07458e-07 -0.000362564 9.46037e-06 -0.000237461)
(-0.000536899 -7.22207e-06 4.23859e-07 -0.000407628 5.74971e-06 -0.000280006)
(-0.000492007 -7.68506e-06 4.30284e-07 -0.000422689 3.02431e-06 -0.000313822)
(-0.000471512 -7.74048e-06 4.30718e-07 -0.000409028 1.32973e-06 -0.000341399)
(-0.000458423 -7.1477e-06 4.32936e-07 -0.000390873 2.61744e-07 -0.000364701)
(-0.000443399 0.000776681 -2.0545e-05 0.00108572 5.26774e-08 -0.00137761)
(-0.000748369 0.000162645 -2.05493e-05 -0.000340702 8.22133e-07 -0.000217615)
(-0.000597144 0.000200618 -1.72327e-05 -0.000163204 1.55589e-08 -0.000434904)
(-0.000544978 0.000107218 -1.33722e-05 -0.000326549 -5.26896e-07 -0.000358078)
(-0.000486612 6.21507e-05 -9.73698e-06 -0.000374724 -1.13671e-06 -0.000362663)
(-0.000455811 2.20276e-05 -6.3525e-06 -0.000404378 -1.6744e-06 -0.000361592)
(-0.000440608 -7.01613e-08 -3.21674e-06 -0.000405006 -1.96315e-06 -0.000370071)
(-0.000437309 -4.68245e-06 -1.52005e-07 -0.000397 -1.5311e-06 -0.00037748)
(-0.000249228 0.000647628 -1.86642e-05 0.000194719 -7.56824e-07 -0.00087833)
(-0.000518967 0.000555759 -1.90494e-05 -0.000388568 -1.08741e-06 -0.000305869)
(-0.000524715 0.00041376 -1.55364e-05 -0.000281467 -1.83365e-06 -0.00037153)
(-0.00048961 0.000263808 -1.17159e-05 -0.000339971 -2.3709e-06 -0.000353994)
(-0.000456945 0.000147053 -8.14367e-06 -0.000359148 -2.87234e-06 -0.00036156)
(-0.000437234 6.3115e-05 -4.89625e-06 -0.00037045 -3.31227e-06 -0.00036623)
(-0.000426246 1.53247e-05 -1.96755e-06 -0.000372275 -3.55746e-06 -0.000371993)
(-0.000422919 6.6181e-07 7.05347e-07 -0.000374619 -3.18179e-06 -0.000373256)
(-0.00012573 0.000473939 -1.82908e-05 -0.000233886 -1.00435e-06 -0.000644083)
(-0.00028077 0.000557648 -1.88961e-05 -0.000636281 -2.05448e-06 -0.000269586)
(-0.000332275 0.000429272 -1.52828e-05 -0.000486435 -3.21143e-06 -0.000333415)
(-0.000365913 0.000275399 -1.13227e-05 -0.00043409 -3.96504e-06 -0.000344483)
(-0.000385356 0.000150487 -7.63162e-06 -0.000391465 -4.54651e-06 -0.00035915)
(-0.000398239 6.38382e-05 -4.32394e-06 -0.000365804 -5.02863e-06 -0.000367444)
(-0.000405775 1.55529e-05 -1.40383e-06 -0.000350796 -5.36198e-06 -0.000372733)
(-0.000409652 -3.11816e-07 1.15927e-06 -0.000351753 -5.19732e-06 -0.000370492)
(-2.68029e-06 0.000295544 -1.92897e-05 -0.000863113 -1.3446e-06 -0.000274872)
(-7.49384e-05 0.000283823 -1.98474e-05 -0.0008768 -3.31207e-06 -0.000216168)
(-0.000201297 0.000203856 -1.58791e-05 -0.000637542 -4.74937e-06 -0.000290444)
(-0.000294781 0.00012882 -1.15321e-05 -0.00047833 -5.6302e-06 -0.00033391)
(-0.000352817 6.65878e-05 -7.47786e-06 -0.000379731 -6.25103e-06 -0.000361266)
(-0.000384208 2.52486e-05 -3.87362e-06 -0.000331631 -6.77855e-06 -0.000373235)
(-0.000396906 4.34108e-06 -7.29782e-07 -0.000314099 -7.25515e-06 -0.000377644)
(-0.000399297 -1.49753e-06 1.96413e-06 -0.000327389 -7.43494e-06 -0.000368637)
(0.000278105 3.27851e-07 8.7801e-06 -0.00152292 0.000191326 -9.23012e-05)
(-1.23514e-05 1.99251e-06 8.18796e-06 -0.000960975 0.000122267 -0.00022385)
(-0.000190842 2.51475e-06 5.58175e-06 -0.000633003 5.8322e-05 -0.000294365)
(-0.000302386 3.073e-06 2.93536e-06 -0.000429518 1.96021e-05 -0.000342698)
(-0.000366028 3.79836e-06 5.57748e-07 -0.000321912 -4.22653e-06 -0.000367271)
(-0.000393745 4.7587e-06 -1.46889e-06 -0.000283454 -1.7968e-05 -0.000375965)
(-0.00040117 6.15486e-06 -3.08381e-06 -0.000284254 -2.26654e-05 -0.00037454)
(-0.000389941 8.29506e-06 -4.15407e-06 -0.00031514 -1.27764e-05 -0.000368346)
(0.000458458 8.39138e-08 4.87084e-06 -0.00181461 0.000203781 -5.33819e-05)
(-4.08739e-05 1.76126e-06 4.37573e-06 -0.000947317 0.000211934 -0.000179345)
(-0.00021191 1.89507e-06 2.67366e-06 -0.000594512 0.000118543 -0.000287935)
(-0.000326286 2.20396e-06 1.01035e-06 -0.000384284 5.07438e-05 -0.000341306)
(-0.000384496 2.84597e-06 -4.5824e-07 -0.000288495 6.83531e-06 -0.000364827)
(-0.00040654 3.88667e-06 -1.6971e-06 -0.000263728 -1.8733e-05 -0.000370791)
(-0.000407176 5.55398e-06 -2.68595e-06 -0.000277961 -2.76081e-05 -0.000368126)
(-0.000391811 8.1882e-06 -3.42749e-06 -0.000314437 -1.74989e-05 -0.000363705)
(0.000515532 -7.54384e-08 2.95333e-06 -0.00190051 0.000173202 -4.29544e-05)
(-3.42343e-05 1.57107e-06 2.54979e-06 -0.000978995 0.000182039 -0.000148318)
(-0.000217163 1.59635e-06 1.39776e-06 -0.000617721 0.000117546 -0.000248546)
(-0.000342859 1.83478e-06 2.68707e-07 -0.000387724 5.83948e-05 -0.000306047)
(-0.00040175 2.46865e-06 -7.26037e-07 -0.000287186 1.55803e-05 -0.000334717)
(-0.000420919 3.57731e-06 -1.56594e-06 -0.00026191 -1.08125e-05 -0.000346857)
(-0.000417254 5.39669e-06 -2.25058e-06 -0.000276634 -2.17626e-05 -0.000351286)
(-0.00039675 8.26098e-06 -2.82709e-06 -0.000312596 -1.48751e-05 -0.0003558)