/*--------------------------------*- C++ -*----------------------------------*\
| =========                 |                                                 |
| \\      /  F ield         | foam-extend: Open Source CFD                    |
|  \\    /   O peration     | Version:     3.1                                |
|   \\  /    A nd           | Web:         http://www.extend-project.de       |
|    \\/     M anipulation  |                                                 |
\*---------------------------------------------------------------------------*/
FoamFile
{
    version     2.0;
    format      ascii;
    class       pointVectorField;
    location    "0.1";
    object      pointD;
}
// * * * * * * * * * * * * * * * * * * * * * * * * * * * * * * * * * * * * * //

dimensions      [0 1 0 0 0 0 0];

internalField   nonuniform List<vector> 
405
(
(0 0 0)
(0 0 0)
(0 0 0)
(0 0 0)
(0 0 0)
(6.65042e-05 4.35583e-05 4.65761e-05)
(4.43181e-05 1.04984e-05 4.12448e-05)
(3.1853e-05 -8.75485e-07 3.22918e-05)
(2.55643e-05 -1.08839e-05 2.31833e-05)
(2.54254e-05 -3.23331e-05 1.7654e-05)
(0.000102386 3.31273e-05 5.12595e-05)
(8.70997e-05 3.82808e-06 4.85725e-05)
(7.35996e-05 -1.37125e-05 4.42593e-05)
(6.58388e-05 -2.9946e-05 3.88754e-05)
(6.22062e-05 -5.72009e-05 3.55165e-05)
(0.000141975 2.95882e-05 5.89354e-05)
(0.000127359 -8.59812e-07 5.62989e-05)
(0.0001146 -2.31688e-05 5.3104e-05)
(0.000105729 -4.48869e-05 5.00156e-05)
(9.92635e-05 -7.42121e-05 4.80335e-05)
(0.000176101 2.06753e-05 6.25616e-05)
(0.000163425 -8.32702e-06 6.07879e-05)
(0.000151675 -3.27576e-05 5.89263e-05)
(0.000142226 -5.70632e-05 5.72672e-05)
(0.000133916 -8.6011e-05 5.60803e-05)
(0.000206966 1.05273e-05 6.57726e-05)
(0.000195273 -1.69585e-05 6.43542e-05)
(0.000184145 -4.21287e-05 6.30298e-05)
(0.000174299 -6.73116e-05 6.19295e-05)
(0.000164933 -9.47936e-05 6.0947e-05)
(0.000234489 -3.84971e-07 6.86559e-05)
(0.000223357 -2.63005e-05 6.73258e-05)
(0.000212593 -5.13449e-05 6.60877e-05)
(0.000202499 -7.64214e-05 6.50098e-05)
(0.000192622 -0.0001023 6.38547e-05)
(0.000259744 -1.10821e-05 7.1527e-05)
(0.000248815 -3.58839e-05 7.00867e-05)
(0.000238238 -6.04052e-05 6.86873e-05)
(0.000228015 -8.49305e-05 6.73918e-05)
(0.000218016 -0.000109524 6.5922e-05)
(0.000284058 -2.12937e-05 7.43204e-05)
(0.000273093 -4.55502e-05 7.28274e-05)
(0.000262496 -6.94972e-05 7.13742e-05)
(0.000252209 -9.34529e-05 6.99906e-05)
(0.000242215 -0.000117398 6.83769e-05)
(0 0 0)
(0 0 0)
(0 0 0)
(0 0 0)
(0 0 0)
(6.86844e-05 2.94829e-05 3.06014e-05)
(4.68563e-05 -3.67069e-06 2.72269e-05)
(3.5032e-05 -1.39931e-05 2.18475e-05)
(2.84829e-05 -2.28176e-05 1.64184e-05)
(2.84301e-05 -4.39097e-05 1.30373e-05)
(0.000106179 2.70641e-05 4.18966e-05)
(9.04646e-05 -2.97359e-06 3.91377e-05)
(7.70287e-05 -2.18643e-05 3.55714e-05)
(6.85251e-05 -3.94849e-05 3.15431e-05)
(6.40574e-05 -6.71777e-05 2.89346e-05)
(0.000144609 2.41085e-05 4.91969e-05)
(0.000129894 -6.50155e-06 4.66289e-05)
(0.000117069 -2.95724e-05 4.40578e-05)
(0.000107617 -5.21821e-05 4.15736e-05)
(0.00010054 -8.18862e-05 3.98918e-05)
(0.000178344 1.6614e-05 5.3649e-05)
(0.000165431 -1.25704e-05 5.16224e-05)
(0.00015345 -3.75671e-05 4.98456e-05)
(0.000143555 -6.24283e-05 4.82911e-05)
(0.000134833 -9.16177e-05 4.70824e-05)
(0.00020881 7.01594e-06 5.69605e-05)
(0.000196922 -2.05256e-05 5.52522e-05)
(0.000185578 -4.59405e-05 5.38653e-05)
(0.000175454 -7.13485e-05 5.26889e-05)
(0.000165849 -9.89728e-05 5.1577e-05)
(0.00023621 -3.56014e-06 5.97688e-05)
(0.00022492 -2.94874e-05 5.81872e-05)
(0.000213997 -5.45906e-05 5.68663e-05)
(0.000203767 -7.97072e-05 5.5695e-05)
(0.000193791 -0.000105673 5.44223e-05)
(0.000261483 -1.41099e-05 6.24447e-05)
(0.000250444 -3.89285e-05 6.08524e-05)
(0.00023977 -6.3472e-05 5.94528e-05)
(0.000229516 -8.80197e-05 5.81434e-05)
(0.000219518 -0.000112689 5.66234e-05)
(0.000285853 -2.42734e-05 6.516e-05)
(0.000274802 -4.8563e-05 6.35727e-05)
(0.000264137 -7.25553e-05 6.21856e-05)
(0.000253861 -9.6573e-05 6.08647e-05)
(0.000243903 -0.000120599 5.92543e-05)
(0 0 0)
(0 0 0)
(0 0 0)
(0 0 0)
(0 0 0)
(7.05706e-05 2.76335e-05 2.08242e-05)
(4.82472e-05 -6.48125e-06 1.86097e-05)
(3.62823e-05 -1.67611e-05 1.54777e-05)
(3.00805e-05 -2.55149e-05 1.23947e-05)
(3.10171e-05 -4.69441e-05 1.03679e-05)
(0.000110366 2.31639e-05 3.20726e-05)
(9.33567e-05 -7.26931e-06 2.96733e-05)
(7.89968e-05 -2.61669e-05 2.71493e-05)
(7.00189e-05 -4.3735e-05 2.44981e-05)
(6.52593e-05 -7.11213e-05 2.26352e-05)
(0.000148114 1.98145e-05 3.97581e-05)
(0.000132789 -1.06879e-05 3.72759e-05)
(0.000119301 -3.38639e-05 3.52067e-05)
(0.000109267 -5.65329e-05 3.32628e-05)
(0.000101705 -8.62044e-05 3.17916e-05)
(0.000181507 1.26235e-05 4.47354e-05)
(0.000168069 -1.64679e-05 4.24973e-05)
(0.000155561 -4.15505e-05 4.08292e-05)
(0.000145151 -6.64989e-05 3.93867e-05)
(0.000135932 -9.57396e-05 3.81136e-05)
(0.000211526 3.37766e-06 4.82575e-05)
(0.000199282 -2.40749e-05 4.62507e-05)
(0.000187554 -4.95709e-05 4.48071e-05)
(0.000177033 -7.50838e-05 4.35688e-05)
(0.000167029 -0.000102851 4.23004e-05)
(0.000238629 -6.88983e-06 5.10481e-05)
(0.00022708 -3.27877e-05 4.91905e-05)
(0.000215897 -5.79735e-05 4.77975e-05)
(0.000205408 -8.3208e-05 4.65553e-05)
(0.000195166 -0.000109371 4.51553e-05)
(0.000263721 -1.72382e-05 5.35766e-05)
(0.000252512 -4.20907e-05 5.17863e-05)
(0.000241679 -6.67312e-05 5.03748e-05)
(0.000231285 -9.14133e-05 4.90595e-05)
(0.00022115 -0.000116281 4.74802e-05)
(0.000288073 -2.72871e-05 5.61703e-05)
(0.000276904 -5.16454e-05 5.44328e-05)
(0.000266137 -7.57455e-05 5.30895e-05)
(0.000255778 -9.99098e-05 5.18298e-05)
(0.000245742 -0.00012412 5.02084e-05)
(0 0 0)
(0 0 0)
(0 0 0)
(0 0 0)
(0 0 0)
(7.20818e-05 2.74639e-05 1.4525e-05)
(4.92531e-05 -7.4301e-06 1.30945e-05)
(3.7083e-05 -1.77377e-05 1.12268e-05)
(3.10289e-05 -2.64729e-05 9.43577e-06)
(3.2439e-05 -4.82154e-05 8.22013e-06)
(0.000113062 2.13239e-05 2.40013e-05)
(9.54302e-05 -9.51609e-06 2.22265e-05)
(8.05009e-05 -2.83686e-05 2.04686e-05)
(7.12952e-05 -4.58191e-05 1.87212e-05)
(6.65245e-05 -7.30633e-05 1.73664e-05)
(0.00015116 1.69807e-05 3.1042e-05)
(0.000135288 -1.35458e-05 2.90333e-05)
(0.000121214 -3.66873e-05 2.74114e-05)
(0.000110757 -5.9285e-05 2.592e-05)
(0.000102916 -8.89316e-05 2.46313e-05)
(0.00018446 9.48324e-06 3.59766e-05)
(0.000170606 -1.95342e-05 3.39644e-05)
(0.000157617 -4.46025e-05 3.24929e-05)
(0.000146781 -6.955e-05 3.12158e-05)
(0.00013718 -9.88346e-05 2.99688e-05)
(0.000214248 2.2223e-07 3.95092e-05)
(0.000201713 -2.71406e-05 3.75853e-05)
(0.000189621 -5.26654e-05 3.62047e-05)
(0.000178744 -7.82439e-05 3.50041e-05)
(0.000168384 -0.000106124 3.37061e-05)
(0.000241122 -9.9385e-06 4.22444e-05)
(0.000229377 -3.57886e-05 4.04065e-05)
(0.000217943 -6.10498e-05 3.90436e-05)
(0.000207197 -8.64047e-05 3.78186e-05)
(0.000196679 -0.000112734 3.64032e-05)
(0.000266049 -2.01435e-05 4.46283e-05)
(0.000254729 -4.50217e-05 4.28475e-05)
(0.000243738 -6.97812e-05 4.14855e-05)
(0.000233185 -9.4625e-05 4.02174e-05)
(0.00022287 -0.000119684 3.86643e-05)
(0.000290386 -3.00492e-05 4.69875e-05)
(0.00027916 -5.44883e-05 4.5263e-05)
(0.000268298 -7.87397e-05 4.39889e-05)
(0.000257833 -0.000103092 4.28016e-05)
(0.000247668 -0.000127503 4.12305e-05)
(0 0 0)
(0 0 0)
(0 0 0)
(0 0 0)
(0 0 0)
(7.32234e-05 2.76165e-05 1.02065e-05)
(5.00053e-05 -7.83369e-06 9.26001e-06)
(3.76796e-05 -1.81937e-05 8.11617e-06)
(3.16758e-05 -2.69342e-05 7.04017e-06)
(3.33292e-05 -4.89591e-05 6.27055e-06)
(0.000114965 2.04665e-05 1.76354e-05)
(9.69431e-05 -1.07331e-05 1.63455e-05)
(8.16882e-05 -2.95978e-05 1.51285e-05)
(7.23591e-05 -4.69941e-05 1.39585e-05)
(6.75887e-05 -7.42659e-05 1.29723e-05)
(0.000153508 1.5275e-05 2.34679e-05)
(0.000137255 -1.54007e-05 2.19286e-05)
(0.000122804 -3.85346e-05 2.06966e-05)
(0.000112084 -6.10934e-05 1.95712e-05)
(0.000104066 -9.07657e-05 1.85064e-05)
(0.000186925 7.25646e-06 2.78061e-05)
(0.000172755 -2.17743e-05 2.61635e-05)
(0.000159423 -4.6838e-05 2.49496e-05)
(0.00014829 -7.17927e-05 2.38799e-05)
(0.000138417 -0.000101139 2.27662e-05)
(0.000216655 -2.23816e-06 3.10195e-05)
(0.000203885 -2.95679e-05 2.93655e-05)
(0.000191517 -5.51157e-05 2.81591e-05)
(0.000180371 -8.07526e-05 2.70907e-05)
(0.000169732 -0.000108734 2.58992e-05)
(0.000243414 -1.24548e-05 3.35151e-05)
(0.000231508 -3.82828e-05 3.18818e-05)
(0.000219872 -6.36069e-05 3.06627e-05)
(0.000208915 -8.90685e-05 2.95541e-05)
(0.00019816 -0.000115534 2.82587e-05)
(0.000268248 -2.26069e-05 3.56414e-05)
(0.000256832 -4.75163e-05 3.40317e-05)
(0.000245708 -7.23813e-05 3.28119e-05)
(0.000235007 -9.73737e-05 3.1672e-05)
(0.000224513 -0.000122597 3.02703e-05)
(0.000292596 -3.24231e-05 3.76526e-05)
(0.000281321 -5.69393e-05 3.60855e-05)
(0.000270377 -8.13314e-05 3.49472e-05)
(0.0002598 -0.000105864 3.3885e-05)
(0.000249484 -0.000130457 3.24763e-05)
(0 0 0)
(0 0 0)
(0 0 0)
(0 0 0)
(0 0 0)
(7.40436e-05 2.78233e-05 6.98828e-06)
(5.05617e-05 -8.02481e-06 6.36683e-06)
(3.81307e-05 -1.84384e-05 5.66095e-06)
(3.21432e-05 -2.72013e-05 5.0047e-06)
(3.39318e-05 -4.94569e-05 4.50644e-06)
(0.000116312 2.00731e-05 1.24182e-05)
(9.80487e-05 -1.14134e-05 1.15161e-05)
(8.26014e-05 -3.03247e-05 1.06933e-05)
(7.31987e-05 -4.77219e-05 9.91638e-06)
(6.84191e-05 -7.50883e-05 9.2161e-06)
(0.000155229 1.42767e-05 1.68406e-05)
(0.000138739 -1.65718e-05 1.57259e-05)
(0.000124059 -3.97372e-05 1.4835e-05)
(0.000113178 -6.23004e-05 1.40207e-05)
(0.000105044 -9.20396e-05 1.32034e-05)
(0.000188822 5.78193e-06 2.02642e-05)
(0.000174444 -2.33198e-05 1.90282e-05)
(0.00016089 -4.84082e-05 1.81006e-05)
(0.000149561 -7.33896e-05 1.7271e-05)
(0.000139502 -0.000102807 1.63736e-05)
(0.000218591 -4.00203e-06 2.2879e-05)
(0.000205655 -3.13502e-05 2.15896e-05)
(0.000193096 -5.69328e-05 2.06318e-05)
(0.00018176 -8.26264e-05 1.977e-05)
(0.000170919 -0.000110695 1.87925e-05)
(0.000245322 -1.4348e-05 2.49339e-05)
(0.000233295 -4.01878e-05 2.36265e-05)
(0.00022151 -6.55708e-05 2.26401e-05)
(0.000210394 -9.11218e-05 2.17343e-05)
(0.000199454 -0.000117695 2.06717e-05)
(0.000270128 -2.45114e-05 2.66641e-05)
(0.000258634 -4.94638e-05 2.53537e-05)
(0.000247402 -7.44193e-05 2.43615e-05)
(0.000236577 -9.95332e-05 2.34307e-05)
(0.000225928 -0.000124885 2.22894e-05)
(0.000294509 -3.42901e-05 2.82313e-05)
(0.000283187 -5.88823e-05 2.69485e-05)
(0.00027217 -8.33951e-05 2.60221e-05)
(0.00026149 -0.000108077 2.5154e-05)
(0.000251033 -0.000132813 2.40101e-05)
(0 0 0)
(0 0 0)
(0 0 0)
(0 0 0)
(0 0 0)
(7.45978e-05 2.8001e-05 4.38836e-06)
(5.09479e-05 -8.11763e-06 4.00738e-06)
(3.84506e-05 -1.85757e-05 3.5935e-06)
(3.24684e-05 -2.73642e-05 3.21093e-06)
(3.43354e-05 -4.97898e-05 2.9054e-06)
(0.000117221 1.99026e-05 7.93042e-06)
(9.88129e-05 -1.17918e-05 7.35512e-06)
(8.32528e-05 -3.07552e-05 6.8422e-06)
(7.38056e-05 -4.81765e-05 6.36171e-06)
(6.90143e-05 -7.56411e-05 5.90794e-06)
(0.000156411 1.37131e-05 1.08838e-05)
(0.00013978 -1.7281e-05 1.0157e-05)
(0.000124965 -4.04911e-05 9.57622e-06)
(0.000113988 -6.30796e-05 9.04392e-06)
(0.000105778 -9.28926e-05 8.4903e-06)
(0.00019016 4.86786e-06 1.32292e-05)
(0.000175657 -2.43146e-05 1.24047e-05)
(0.000161965 -4.94404e-05 1.17787e-05)
(0.000150515 -7.44564e-05 1.12127e-05)
(0.000140335 -0.000103939 1.05873e-05)
(0.000219996 -5.16032e-06 1.50597e-05)
(0.000206954 -3.25488e-05 1.41806e-05)
(0.000194272 -5.81704e-05 1.35185e-05)
(0.000182812 -8.39138e-05 1.29163e-05)
(0.000171835 -0.000112051 1.22273e-05)
(0.000246743 -1.56372e-05 1.65145e-05)
(0.000234633 -4.15063e-05 1.56069e-05)
(0.000222746 -6.69407e-05 1.49162e-05)
(0.000211519 -9.25606e-05 1.42776e-05)
(0.000200449 -0.000119212 1.35282e-05)
(0.000271557 -2.58376e-05 1.77319e-05)
(0.000260004 -5.08356e-05 1.68108e-05)
(0.000248692 -7.58624e-05 1.61125e-05)
(0.000237772 -0.000101066 1.54558e-05)
(0.000227007 -0.000126509 1.46542e-05)
(0.000295979 -3.56128e-05 1.87983e-05)
(0.000284616 -6.0271e-05 1.78928e-05)
(0.000273539 -8.48765e-05 1.72403e-05)
(0.000262773 -0.000109667 1.66266e-05)
(0.000252204 -0.000134506 1.58243e-05)
(0 0 0)
(0 0 0)
(0 0 0)
(0 0 0)
(0 0 0)
(7.49188e-05 2.81166e-05 2.12117e-06)
(5.11758e-05 -8.15992e-06 1.93916e-06)
(3.86422e-05 -1.86469e-05 1.74648e-06)
(3.26616e-05 -2.74544e-05 1.56877e-06)
(3.45706e-05 -4.99841e-05 1.42224e-06)
(0.000117749 1.98369e-05 3.86754e-06)
(9.92637e-05 -1.19835e-05 3.58678e-06)
(8.36439e-05 -3.0985e-05 3.33959e-06)
(7.41726e-05 -4.84295e-05 3.10871e-06)
(6.93725e-05 -7.59632e-05 2.88477e-06)
(0.000157104 1.34278e-05 5.34303e-06)
(0.000140399 -1.76608e-05 4.98392e-06)
(0.000125513 -4.09063e-05 4.69688e-06)
(0.000114485 -6.35191e-05 4.43315e-06)
(0.00010623 -9.3386e-05 4.15373e-06)
(0.000190957 4.3736e-06 6.53146e-06)
(0.000176386 -2.48682e-05 6.11912e-06)
(0.000162622 -5.00247e-05 5.80379e-06)
(0.000151104 -7.50683e-05 5.51688e-06)
(0.000140856 -0.000104597 5.19659e-06)
(0.000220846 -5.81054e-06 7.47083e-06)
(0.000207746 -3.32342e-05 7.02587e-06)
(0.000194996 -5.88859e-05 6.68799e-06)
(0.000183466 -8.46636e-05 6.3788e-06)
(0.000172409 -0.000112845 6.02376e-06)
(0.000247617 -1.63783e-05 8.22274e-06)
(0.000235459 -4.22744e-05 7.75867e-06)
(0.000223513 -6.77444e-05 7.40362e-06)
(0.000212219 -9.34081e-05 7.07409e-06)
(0.000201071 -0.000120108 6.68767e-06)
(0.000272448 -2.6612e-05 8.85015e-06)
(0.000260858 -5.16444e-05 8.37564e-06)
(0.000249496 -7.67176e-05 8.01553e-06)
(0.000238516 -0.000101977 7.67636e-06)
(0.000227679 -0.000127473 7.2638e-06)
(0.000296902 -3.63954e-05 9.38824e-06)
(0.000285511 -6.10988e-05 8.92064e-06)
(0.000274392 -8.57629e-05 8.58399e-06)
(0.000263571 -0.000110621 8.26672e-06)
(0.000252931 -0.00013552 7.85403e-06)
(0 0 0)
(0 0 0)
(0 0 0)
(0 0 0)
(0 0 0)
(7.50239e-05 2.81565e-05 0)
(5.12511e-05 -8.17208e-06 0)
(3.8706e-05 -1.86691e-05 0)
(3.27258e-05 -2.74835e-05 0)
(3.4648e-05 -5.00482e-05 0)
(0.000117923 1.98205e-05 0)
(9.94128e-05 -1.20421e-05 0)
(8.37743e-05 -3.10574e-05 0)
(7.42953e-05 -4.8511e-05 0)
(6.9492e-05 -7.60692e-05 0)
(0.000157333 1.33409e-05 0)
(0.000140604 -1.77803e-05 0)
(0.000125696 -4.1039e-05 0)
(0.000114652 -6.36613e-05 0)
(0.000106383 -9.35478e-05 0)
(0.000191222 4.21765e-06 0)
(0.000176629 -2.50455e-05 0)
(0.000162842 -5.02137e-05 0)
(0.000151303 -7.52678e-05 0)
(0.000141033 -0.000104813 0)
(0.00022113 -6.01954e-06 0)
(0.000208012 -3.34567e-05 0)
(0.00019524 -5.91197e-05 0)
(0.000183687 -8.49096e-05 0)
(0.000172605 -0.000113107 0)
(0.000247911 -1.66194e-05 0)
(0.000235738 -4.2526e-05 0)
(0.000223772 -6.80088e-05 0)
(0.000212456 -9.36876e-05 0)
(0.000201283 -0.000120403 0)
(0.000272751 -2.6866e-05 0)
(0.000261148 -5.1911e-05 0)
(0.000249768 -7.70004e-05 0)
(0.000238769 -0.000102278 0)
(0.000227907 -0.000127793 0)
(0.000297216 -3.6654e-05 0)
(0.000285815 -6.13734e-05 0)
(0.000274682 -8.60575e-05 0)
(0.000263842 -0.000110938 0)
(0.000253177 -0.000135857 0)
)
;

boundaryField
{
    interface
    {
        type            calculated;
    }
    symmetry
    {
        type            symmetryPlane;
    }
    bottom
    {
        type            fixedValue;
        value           uniform (0 0 0);
    }
}


// ************************************************************************* //
