/*--------------------------------*- C++ -*----------------------------------*\
| =========                 |                                                 |
| \\      /  F ield         | foam-extend: Open Source CFD                    |
|  \\    /   O peration     | Version:     3.1                                |
|   \\  /    A nd           | Web:         http://www.extend-project.de       |
|    \\/     M anipulation  |                                                 |
\*---------------------------------------------------------------------------*/
FoamFile
{
    version     2.0;
    format      ascii;
    class       volScalarField;
    location    "0.1";
    object      sigmaEq;
}
// * * * * * * * * * * * * * * * * * * * * * * * * * * * * * * * * * * * * * //

dimensions      [1 -1 -2 0 0 0 0];

internalField   nonuniform List<scalar> 
256
(
14.8856
10.3697
7.99837
8.97053
4.08888
7.12179
7.20941
6.12553
3.66663
5.17492
5.14453
3.46783
2.0205
3.31266
3.25388
1.7329
1.17179
1.89616
1.79214
0.794913
0.685911
0.944268
0.851574
0.598089
0.504694
0.489767
0.46543
0.61257
0.458974
0.391933
0.388
0.459592
13.1717
10.3488
9.25437
11.1737
5.33403
7.73021
7.54444
6.41968
3.79263
5.12802
4.99607
3.36359
2.21453
3.27439
3.10402
1.57571
1.27433
1.89102
1.74349
0.835871
0.795936
1.01467
0.919669
0.747583
0.615757
0.598416
0.566013
0.693296
0.54701
0.479655
0.450806
0.492172
12.5603
10.218
9.52673
11.8032
5.49945
7.9674
7.77338
6.62175
3.96417
5.33
5.16995
3.55076
2.40765
3.3903
3.1848
1.65753
1.40937
1.97898
1.80064
0.909322
0.881037
1.09752
0.981995
0.800226
0.671371
0.682102
0.630768
0.72349
0.571941
0.543393
0.510382
0.530747
12.3647
10.1921
9.63963
12.0627
5.53647
8.11482
7.94252
6.74384
4.05908
5.49758
5.33444
3.72148
2.56618
3.52938
3.31272
1.80036
1.55403
2.09095
1.89855
1.03104
0.98274
1.19005
1.06383
0.875126
0.725067
0.755311
0.695149
0.765885
0.590951
0.590227
0.559953
0.576908
12.3247
10.2152
9.71438
12.2101
5.55847
8.21934
8.07339
6.83772
4.11224
5.61648
5.46795
3.86406
2.6783
3.64356
3.432
1.9506
1.67939
2.19467
2.00277
1.17498
1.08409
1.2809
1.15639
0.97717
0.781734
0.824393
0.767255
0.833393
0.612045
0.62812
0.606089
0.635441
12.3351
10.2508
9.77076
12.3075
5.57279
8.29345
8.16978
6.91114
4.14135
5.69651
5.56715
3.97483
2.75034
3.72503
3.52613
2.07801
1.77108
2.27534
2.09181
1.30355
1.16669
1.35675
1.24063
1.07742
0.833136
0.88455
0.836498
0.907489
0.635774
0.662336
0.651302
0.698377
12.3553
10.281
9.80991
12.3701
5.5815
8.34151
8.23337
6.96199
4.15628
5.74596
5.63237
4.04999
2.79213
3.77647
3.58981
2.16743
1.82868
2.32892
2.15468
1.39574
1.22222
1.40974
1.30255
1.15323
0.870797
0.928869
0.889992
0.967467
0.65645
0.690218
0.689165
0.750838
12.3684
10.2977
9.83008
12.4012
5.58561
8.36524
8.26499
6.98795
4.16251
5.76965
5.66463
4.08781
2.8111
3.80126
3.62172
2.21298
1.85603
2.35539
2.18684
1.44312
1.24959
1.4367
1.33492
1.19327
0.890378
0.952265
0.918844
1.00033
0.66849
0.706156
0.710862
0.780324
)
;

boundaryField
{
    interface
    {
        type            calculated;
        value           nonuniform List<scalar> 
192
(
21.5495
1.82875
3.28834
1.26685
0.809165
0.639397
0.548649
0.496415
18.4035
3.85733
3.44819
1.68185
0.9849
0.751743
0.664141
0.601914
17.8388
3.9288
3.57345
1.88909
1.08045
0.759411
0.657194
0.575477
17.7886
3.90601
3.62532
2.07326
1.24117
0.840134
0.678178
0.564956
17.8554
3.88533
3.64501
2.19623
1.38757
0.940673
0.71744
0.566996
17.9377
3.86899
3.65234
2.27407
1.49527
1.02809
0.760627
0.580612
18.0019
3.85658
3.65312
2.31805
1.56199
1.0871
0.793671
0.595509
18.036
3.84976
3.65219
2.33753
1.59323
1.11594
0.810932
0.604821
18.1412
3.99075
3.68295
1.98004
1.14932
0.649241
0.438825
0.382366
10.4282
7.00701
5.3438
3.42338
1.94872
0.926235
0.433444
0.352377
6.77324
7.36958
5.42643
3.45919
1.87709
0.825593
0.398701
0.371414
6.55973
6.359
3.81232
1.99894
0.849824
0.473971
0.54628
0.456821
12.0031
6.34488
2.95171
0.841209
0.327362
0.768055
0.812791
0.514787
14.966
6.58582
2.90378
0.730551
0.634061
0.949613
0.891467
0.541964
15.795
6.76594
3.11616
0.88236
0.738412
0.9946
0.91397
0.562666
16.166
6.84403
3.30708
1.09745
0.872429
1.05456
0.947578
0.598137
16.3888
6.90909
3.46205
1.31236
1.03346
1.14399
1.00788
0.654505
16.5376
6.96641
3.58185
1.48786
1.17797
1.23658
1.07745
0.720718
16.6328
7.00886
3.66329
1.60771
1.28131
1.30851
1.135
0.777042
16.6797
7.03114
3.70432
1.66782
1.33431
1.34703
1.16685
0.808721
0.452507
0.522736
0.529316
0.533719
0.542922
0.557061
0.571378
0.580381
0.383595
0.456755
0.512176
0.547396
0.570187
0.589796
0.607273
0.618093
0.362784
0.414962
0.478411
0.523088
0.556309
0.58745
0.615337
0.632231
0.370133
0.390485
0.44522
0.496175
0.550533
0.607077
0.655305
0.682893
)
;
    }
    symmetry
    {
        type            symmetryPlane;
    }
    bottom
    {
        type            calculated;
        value           nonuniform List<scalar> 
32
(
21.4232
17.1909
15.957
15.6242
15.5631
15.5782
15.6058
15.6231
13.6357
11.9977
11.3244
11.0679
10.9779
10.9531
10.9509
10.9532
9.61782
9.80319
9.74825
9.69853
9.67647
9.67206
9.67481
9.67777
8.81127
10.5509
11.0595
11.2542
11.3484
11.4041
11.4386
11.4556
)
;
    }
}


// ************************************************************************* //
