/*--------------------------------*- C++ -*----------------------------------*\
| =========                 |                                                 |
| \\      /  F ield         | foam-extend: Open Source CFD                    |
|  \\    /   O peration     | Version:     3.1                                |
|   \\  /    A nd           | Web:         http://www.extend-project.de       |
|    \\/     M anipulation  |                                                 |
\*---------------------------------------------------------------------------*/
FoamFile
{
    version     2.0;
    format      ascii;
    class       volSymmTensorField;
    location    "0.1";
    object      sigma;
}
// * * * * * * * * * * * * * * * * * * * * * * * * * * * * * * * * * * * * * //

dimensions      [1 -1 -2 0 0 0 0];

internalField   nonuniform List<symmTensor> 
256
(
(-2.24205 5.71373 -0.141718 6.63262 4.19104 -1.24217)
(-9.8172 4.86817 -0.307399 -8.64273 3.40376 -9.8295)
(-12.1281 3.64569 -0.301196 -14.6715 2.45332 -12.4403)
(-17.3503 2.33577 -0.106292 -25.1802 1.67167 -18.15)
(-25.6882 1.21839 -0.079458 -21.6725 -0.210095 -23.8212)
(-20.8398 3.99728 -0.345468 -19.0777 0.0965413 -20.2236)
(-19.0153 3.97648 -0.418202 -20.9574 0.492556 -19.3105)
(-17.3343 1.97484 -0.15615 -22.7235 0.770945 -18.5514)
(-20.4481 1.32969 0.0608066 -17.1866 0.222108 -18.8734)
(-20.1112 2.81605 -0.0652402 -18.1662 0.198701 -18.9937)
(-18.5682 2.92196 -0.160226 -19.2902 0.254657 -18.4931)
(-17.4378 1.37769 -0.0674586 -20.1263 0.363524 -18.0743)
(-21.3668 0.720599 0.0155293 -19.5816 -0.0661786 -20.1271)
(-20.2637 1.79316 -0.0214478 -18.9601 0.000207858 -19.3848)
(-18.8352 1.8706 -0.0465072 -18.9976 0.0613249 -18.6867)
(-17.7342 0.865002 -0.022062 -18.6869 0.116948 -18.0233)
(-20.8389 0.408416 0.0297552 -19.9213 -0.0590791 -19.9025)
(-19.9941 0.996415 0.0188987 -19.1442 -0.0394207 -19.3057)
(-18.8803 1.02849 0.00785282 -18.7063 -0.0297265 -18.68)
(-17.9561 0.455533 -0.00535541 -17.9052 -0.0271788 -18.0021)
(-20.6509 0.147332 0.0268633 -20.2071 -0.0654779 -19.9364)
(-19.8379 0.435762 0.028243 -19.2665 -0.0656578 -19.3036)
(-18.9358 0.449452 0.0267195 -18.5807 -0.0795822 -18.6999)
(-18.1563 0.185127 8.65963e-05 -17.6454 -0.108217 -18.0556)
(-20.4343 0.00151169 0.0256581 -20.1401 -0.0519199 -19.8632)
(-19.721 0.113529 0.02787 -19.2943 -0.0687446 -19.2883)
(-18.9756 0.12176 0.0308484 -18.5443 -0.0951638 -18.7091)
(-18.2825 0.0453734 0.0012675 -17.6549 -0.136 -18.1036)
(-20.3193 -0.0304161 0.0274835 -20.0116 -0.0388507 -19.8048)
(-19.7157 0.00903018 0.0315077 -19.356 -0.0462405 -19.3191)
(-19.0662 0.00400986 0.0367411 -18.6528 -0.0567067 -18.7666)
(-18.4905 -0.00425107 0.00506911 -17.9843 -0.0772695 -18.2687)
(-5.32478 5.96249 -0.0824732 1.20496 3.30678 -3.48718)
(-13.0552 5.20633 -0.209581 -14.2652 2.77062 -12.4267)
(-15.4949 4.0104 -0.202234 -20.2236 2.16694 -15.3267)
(-20.6228 2.69809 -0.0435898 -30.6156 1.66057 -21.1646)
(-22.8073 1.36234 -0.0135298 -17.8121 1.16654 -20.0152)
(-18.2002 4.10543 -0.253252 -15.7467 1.22117 -16.8655)
(-17.5967 3.99624 -0.316864 -19.153 1.37891 -17.2855)
(-16.3782 1.86829 -0.106572 -21.6551 1.48135 -17.2167)
(-20.7431 1.1918 0.11735 -17.2043 0.479106 -18.986)
(-19.9124 2.68212 -0.0260889 -17.638 0.520346 -18.6284)
(-18.3961 2.7924 -0.133891 -18.6699 0.648258 -18.0886)
(-17.228 1.31561 -0.0747795 -19.4674 0.787577 -17.6531)
(-21.1016 0.661041 0.103613 -18.968 0.117495 -19.71)
(-19.9815 1.68158 0.0644603 -18.3158 0.188477 -18.9526)
(-18.6374 1.7625 0.00639618 -18.3546 0.270138 -18.3043)
(-17.4863 0.804841 -0.00378211 -17.9766 0.339211 -17.6128)
(-20.8097 0.353419 0.10392 -19.6609 -0.0301852 -19.7618)
(-19.9012 0.921655 0.100797 -18.7849 0.0118205 -19.0937)
(-18.7484 0.969749 0.066607 -18.2425 0.0416435 -18.4055)
(-17.7664 0.430762 0.0217524 -17.3669 0.052177 -17.6795)
(-20.6027 0.123804 0.0897217 -19.9988 -0.0832834 -19.782)
(-19.7783 0.40499 0.102261 -19.0312 -0.0709524 -19.1355)
(-18.8285 0.434386 0.0814677 -18.2686 -0.0806005 -18.4768)
(-18.0103 0.186883 0.0263347 -17.2869 -0.111177 -17.7984)
(-20.3951 -0.00641063 0.0740969 -20.0063 -0.0873153 -19.725)
(-19.6938 0.108208 0.0901443 -19.1774 -0.0953816 -19.1687)
(-18.9173 0.128288 0.0783034 -18.4023 -0.121847 -18.5641)
(-18.2073 0.0593333 0.0235194 -17.4997 -0.167804 -17.9454)
(-20.2881 -0.0304587 0.0690146 -19.9264 -0.0607649 -19.6914)
(-19.704 0.0104655 0.0910364 -19.3003 -0.0668225 -19.2389)
(-19.0311 0.00871898 0.085727 -18.593 -0.0797342 -18.6781)
(-18.4502 0.00119055 0.0299323 -17.9269 -0.1066 -18.1808)
(-5.42646 6.10731 -0.0402818 0.760923 2.35473 -3.04759)
(-13.4565 5.36586 -0.114025 -15.1784 2.0172 -12.4305)
(-15.991 4.17793 -0.111586 -21.2834 1.66432 -15.6307)
(-21.218 2.90925 -0.0311037 -31.8829 1.36405 -21.751)
(-22.8813 1.48776 -0.0189197 -18.142 1.27561 -19.1422)
(-18.103 4.24986 -0.139082 -15.9137 1.24059 -15.9958)
(-17.5336 4.06447 -0.169267 -19.4635 1.28874 -16.7654)
(-16.184 1.81433 -0.0550523 -21.8483 1.30545 -16.828)
(-20.8713 1.16956 0.0592188 -17.2479 0.691609 -18.4947)
(-19.8123 2.7202 0.000834402 -17.4216 0.688791 -17.9096)
(-18.2403 2.83613 -0.0586582 -18.4905 0.753855 -17.4514)
(-17.1315 1.34372 -0.0258276 -19.4325 0.817305 -17.1801)
(-21.1715 0.646505 0.0823535 -18.8827 0.292054 -19.446)
(-19.9512 1.66937 0.0779988 -18.1129 0.323795 -18.5157)
(-18.5549 1.7636 0.0337445 -18.1289 0.373309 -17.8375)
(-17.3705 0.805452 0.011215 -17.7572 0.409258 -17.1324)
(-20.9037 0.32772 0.0883566 -19.5927 0.0719102 -19.6684)
(-19.8884 0.896907 0.112076 -18.5998 0.0998466 -18.8083)
(-18.6883 0.958373 0.0827467 -18.0232 0.118242 -18.0514)
(-17.6757 0.427143 0.0311541 -17.1387 0.118608 -17.2725)
(-20.6745 0.102241 0.0831775 -19.94 -0.0347278 -19.7452)
(-19.7768 0.380011 0.116879 -18.8986 -0.0227541 -18.95)
(-18.787 0.421247 0.0971077 -18.1034 -0.0317361 -18.2212)
(-17.9391 0.182314 0.0357425 -17.1024 -0.0583217 -17.4806)
(-20.4484 -0.0243784 0.0742577 -19.9677 -0.0687908 -19.7132)
(-19.6996 0.0894259 0.110735 -19.0985 -0.0711661 -19.0551)
(-18.8932 0.118477 0.0984129 -18.3027 -0.0929947 -18.3998)
(-18.156 0.0574747 0.0352836 -17.3758 -0.13134 -17.7267)
(-20.35 -0.036476 0.0746398 -19.9254 -0.0505937 -19.7334)
(-19.732 0.00298602 0.118279 -19.2707 -0.0546 -19.2102)
(-19.0435 0.00388832 0.112729 -18.5555 -0.0663183 -18.6249)
(-18.4449 -0.000918065 0.0460283 -17.8714 -0.0900982 -18.0922)
(-5.2907 6.21706 -0.0172726 0.862587 1.6727 -2.5865)
(-13.529 5.47572 -0.0593805 -15.4241 1.45849 -12.2757)
(-16.1125 4.28534 -0.057979 -21.6226 1.24651 -15.6446)
(-21.4452 3.02767 -0.0159841 -32.4062 1.063 -21.9751)
(-22.9829 1.54756 -0.00470923 -18.4497 1.10001 -18.6128)
(-18.1407 4.3597 -0.0691663 -16.155 1.04171 -15.5347)
(-17.5349 4.14401 -0.0817249 -19.7278 1.04069 -16.4658)
(-16.0783 1.82457 -0.0234743 -22.0051 1.01691 -16.5835)
(-20.9351 1.19585 0.0400628 -17.394 0.701231 -18.0238)
(-19.8339 2.78328 0.0154205 -17.4881 0.669922 -17.4325)
(-18.1927 2.89225 -0.0129364 -18.5503 0.688134 -17.0135)
(-17.0602 1.36607 -0.00296703 -19.522 0.699845 -16.7957)
(-21.2157 0.651179 0.0618845 -18.91 0.372152 -19.1148)
(-19.9725 1.69218 0.0706698 -18.093 0.368948 -18.1421)
(-18.5207 1.79161 0.0455261 -18.0905 0.386138 -17.4383)
(-17.2891 0.817584 0.018468 -17.7087 0.393487 -16.6999)
(-20.9463 0.320956 0.0703221 -19.5766 0.150858 -19.4766)
(-19.9048 0.896314 0.098489 -18.5432 0.157129 -18.5396)
(-18.6623 0.964372 0.0796295 -17.9462 0.160392 -17.7267)
(-17.615 0.430572 0.0314304 -17.0473 0.150366 -16.8903)
(-20.7087 0.0905582 0.0700497 -19.9077 0.0242867 -19.6423)
(-19.7907 0.367357 0.105923 -18.8408 0.027144 -18.7691)
(-18.7678 0.415188 0.0919837 -18.0263 0.0160192 -17.9775)
(-17.8926 0.180305 0.0351427 -17.0077 -0.00861813 -17.1725)
(-20.4719 -0.0370165 0.0668627 -19.9319 -0.0306382 -19.6664)
(-19.7126 0.0745265 0.106325 -19.0546 -0.0341099 -18.9457)
(-18.8818 0.108859 0.096655 -18.2443 -0.0519199 -18.2362)
(-18.1219 0.0547538 0.0360366 -17.2974 -0.0831871 -17.5019)
(-20.376 -0.0408692 0.0714101 -19.903 -0.0333611 -19.7424)
(-19.7482 -0.00451192 0.118807 -19.2397 -0.0364553 -19.1653)
(-19.0483 -0.0021374 0.113875 -18.5178 -0.0453169 -18.5434)
(-18.4333 -0.0030219 0.0472563 -17.8153 -0.0646696 -17.9597)
(-5.17215 6.29969 -0.00685511 1.01109 1.17281 -2.27555)
(-13.5418 5.55609 -0.0300825 -15.5108 1.03459 -12.1558)
(-16.1571 4.36159 -0.0290618 -21.774 0.903958 -15.6215)
(-21.5669 3.10254 -0.00705238 -32.6954 0.787813 -22.0849)
(-23.0674 1.5832 0.00241366 -18.6504 0.858524 -18.3028)
(-18.165 4.43819 -0.0308293 -16.3063 0.801395 -15.2497)
(-17.5324 4.21077 -0.0359675 -19.8894 0.782536 -16.2654)
(-16.0066 1.84455 -0.00756975 -22.0996 0.747497 -16.4022)
(-20.9925 1.22026 0.0289889 -17.5466 0.600351 -17.703)
(-19.8618 2.83663 0.0212746 -17.5943 0.561661 -17.1151)
(-18.1727 2.94046 0.00775102 -18.6434 0.55597 -16.7152)
(-17.013 1.38525 0.00630865 -19.61 0.543284 -16.5142)
(-21.2621 0.661015 0.0450499 -19.0003 0.361299 -18.8553)
(-19.995 1.7197 0.0582923 -18.1399 0.34188 -17.8584)
(-18.5039 1.81973 0.0446611 -18.121 0.339524 -17.1366)
(-17.2401 0.829344 0.0192742 -17.7267 0.330297 -16.3719)
(-20.9816 0.321491 0.052667 -19.6135 0.179752 -19.2969)
(-19.9209 0.904449 0.0786703 -18.5488 0.171293 -18.3162)
(-18.648 0.974699 0.0671832 -17.9356 0.164254 -17.4636)
(-17.5747 0.435169 0.0271237 -17.0215 0.148835 -16.581)
(-20.736 0.0854874 0.0543833 -19.9129 0.063116 -19.5342)
(-19.802 0.363369 0.0860732 -18.8255 0.0572939 -18.6085)
(-18.7561 0.413824 0.0766669 -17.9973 0.0442229 -17.7699)
(-17.8615 0.179867 0.0296416 -16.964 0.0222416 -16.9131)
(-20.4893 -0.044063 0.0543908 -19.9167 0.00325233 -19.6109)
(-19.7209 0.0662213 0.0896621 -19.0321 -0.0035464 -18.8412)
(-18.8735 0.102633 0.0822245 -18.2122 -0.0186688 -18.0871)
(-18.0991 0.0526498 0.0308885 -17.2515 -0.0432707 -17.3026)
(-20.3941 -0.0431149 0.0606104 -19.8894 -0.0152635 -19.734)
(-19.7547 -0.00909594 0.103073 -19.2157 -0.0193047 -19.1065)
(-19.0477 -0.00668573 0.0983195 -18.4891 -0.0262389 -18.4489)
(-18.4236 -0.00467914 0.0405899 -17.7743 -0.0409529 -17.8205)
(-5.0852 6.35849 -0.00223327 1.13621 0.779894 -2.07552)
(-13.5419 5.61378 -0.0147771 -15.5461 0.692823 -12.0779)
(-16.1784 4.41573 -0.0140598 -21.8548 0.613226 -15.5994)
(-21.6429 3.15254 -0.00266819 -32.8765 0.540456 -22.1473)
(-23.1238 1.60625 0.0047419 -18.7716 0.607408 -18.1189)
(-18.1778 4.49262 -0.0119325 -16.3956 0.562188 -15.0732)
(-17.5281 4.25988 -0.0140217 -19.9872 0.541443 -16.1327)
(-15.9588 1.86178 -0.000906618 -22.1582 0.509786 -16.2725)
(-21.0299 1.23774 0.0206366 -17.6594 0.448911 -17.4929)
(-19.8808 2.87506 0.0198479 -17.6813 0.414964 -16.9086)
(-18.1607 2.97618 0.0132976 -18.719 0.401704 -16.5159)
(-16.981 1.39996 0.00801293 -19.6738 0.382871 -16.317)
(-21.2952 0.669596 0.0312039 -19.0887 0.290785 -18.6716)
(-20.0111 1.74183 0.0432695 -18.1977 0.26902 -17.6605)
(-18.4938 1.84156 0.0359759 -18.1643 0.259268 -16.9246)
(-17.2085 0.838321 0.0157898 -17.7559 0.244964 -16.139)
(-21.0066 0.323735 0.0367556 -19.6649 0.16151 -19.1569)
(-19.9327 0.913201 0.0568874 -18.5763 0.148221 -18.15)
(-18.6389 0.984058 0.0500942 -17.9494 0.13766 -17.2697)
(-17.5484 0.439054 0.0203893 -17.0216 0.122254 -16.354)
(-20.7545 0.0835457 0.0387095 -19.9335 0.0719265 -19.4414)
(-19.8097 0.363088 0.062756 -18.8301 0.0625 -18.482)
(-18.7481 0.414421 0.0566338 -17.9912 0.0501098 -17.61)
(-17.8408 0.18004 0.0219349 -16.9461 0.0325302 -16.7163)
(-20.5002 -0.0477411 0.0398778 -19.9137 0.0206698 -19.5564)
(-19.7253 0.0620717 0.0668396 -19.0226 0.0125366 -18.7521)
(-18.867 0.0990983 0.0613909 -18.1954 0.00045658 -17.9649)
(-18.0838 0.0512768 0.0229794 -17.2254 -0.0174859 -17.1442)
(-20.4022 -0.0443364 0.045828 -19.8795 -0.00332925 -19.7084)
(-19.7544 -0.0117512 0.0782902 -19.1979 -0.00765268 -19.0432)
(-19.0436 -0.0096632 0.0739997 -18.4684 -0.0128673 -18.3575)
(-18.4146 -0.00576429 0.030163 -17.7457 -0.0232224 -17.6959)
(-5.02902 6.39632 -0.000513989 1.22248 0.447511 -1.95615)
(-13.5397 5.65135 -0.00668165 -15.5611 0.399049 -12.0318)
(-16.1896 4.45092 -0.00626339 -21.8994 0.355664 -15.5845)
(-21.6898 3.18412 -0.000839356 -32.9876 0.315129 -22.1835)
(-23.1588 1.62057 0.00385466 -18.8409 0.360761 -18.0165)
(-18.1842 4.52718 -0.00376621 -16.4456 0.332271 -14.9704)
(-17.5245 4.29184 -0.00459254 -20.0439 0.317488 -16.0518)
(-15.9295 1.87357 0.000882306 -22.1932 0.296355 -16.1892)
(-21.0524 1.24878 0.0124655 -17.7314 0.275278 -17.3679)
(-19.8917 2.89957 0.0135998 -17.7386 0.252719 -16.7843)
(-18.1532 2.99935 0.0105628 -18.7688 0.241526 -16.3932)
(-16.9614 1.4097 0.0059027 -19.7143 0.226869 -16.1925)
(-21.3159 0.675391 0.0184426 -19.1529 0.185952 -18.557)
(-20.0208 1.75653 0.0265648 -18.2425 0.170082 -17.5364)
(-18.4875 1.85594 0.0229379 -18.1988 0.161204 -16.7904)
(-17.1895 0.844223 0.0100977 -17.7793 0.149733 -15.9907)
(-21.0226 0.325682 0.0217542 -19.7079 0.10973 -19.0645)
(-19.9399 0.919656 0.0343346 -18.6029 0.0989685 -18.0414)
(-18.6334 0.990622 0.0307076 -17.9661 0.0903968 -17.1433)
(-17.5325 0.441712 0.0125192 -17.0282 0.0793659 -16.2067)
(-20.7661 0.0828705 0.0231526 -19.9544 0.0544402 -19.3761)
(-19.8142 0.363805 0.0380197 -18.8397 0.0465384 -18.3957)
(-18.7431 0.415357 0.0345154 -17.9931 0.0377382 -17.5025)
(-17.8282 0.180309 0.0133461 -16.9398 0.0263488 -16.5853)
(-20.5068 -0.0495609 0.0242623 -19.9159 0.0205983 -19.5142)
(-19.7273 0.0601141 0.0410057 -19.0193 0.0141706 -18.6874)
(-18.8623 0.0972027 0.0376257 -18.1872 0.00624752 -17.8786)
(-18.0743 0.0504396 0.0140197 -17.2113 -0.00474236 -17.0352)
(-20.4057 -0.0449839 0.0284331 -19.8741 0.0014743 -19.6812)
(-19.7522 -0.0132088 0.0485973 -19.1866 -0.00184251 -18.991)
(-19.0394 -0.0114695 0.0455737 -18.4552 -0.00516688 -18.2865)
(-18.408 -0.00643424 0.0184084 -17.7279 -0.0113629 -17.6038)
(-5.0014 6.41484 -6.10564e-05 1.26616 0.146011 -1.90012)
(-13.5382 5.6699 -0.00191344 -15.5667 0.130408 -12.0105)
(-16.1947 4.46832 -0.00177688 -21.9197 0.116576 -15.5773)
(-21.7126 3.19952 -0.000177502 -33.0412 0.103504 -22.2006)
(-23.1755 1.6275 0.00142 -18.8725 0.119541 -17.9706)
(-18.1869 4.54403 -0.000761654 -16.4681 0.109852 -14.9231)
(-17.5227 4.30756 -0.000982402 -20.0701 0.104584 -16.0134)
(-15.9155 1.87949 0.000482938 -22.2098 0.0972273 -16.1485)
(-21.0629 1.25414 0.00416467 -17.7661 0.0925696 -17.3096)
(-19.8967 2.91148 0.00478591 -17.7666 0.0847149 -16.7259)
(-18.1495 3.0107 0.00389294 -18.7932 0.0804881 -16.3348)
(-16.9522 1.41453 0.00210927 -19.7339 0.0750957 -16.1324)
(-21.3258 0.678267 0.00610388 -19.1859 0.0637459 -18.5022)
(-20.0252 1.76378 0.0089433 -18.2661 0.0580199 -17.4767)
(-18.4845 1.86302 0.00783767 -18.2171 0.0545809 -16.7255)
(-17.1805 0.847136 0.00344328 -17.7916 0.0503005 -15.9187)
(-21.0303 0.326735 0.0072032 -19.7314 0.0386559 -19.019)
(-19.9433 0.922974 0.0114687 -18.6182 0.0346206 -17.9879)
(-18.6308 0.993935 0.0103223 -17.9761 0.0313943 -17.0812)
(-17.525 0.443043 0.00420314 -17.0329 0.0274202 -16.1345)
(-20.7717 0.0826727 0.00770344 -19.9668 0.0200572 -19.3427)
(-19.8163 0.364362 0.0127205 -18.8462 0.0170437 -18.3522)
(-18.7407 0.415938 0.0115733 -17.9955 0.0138717 -17.4485)
(-17.8221 0.180476 0.00446543 -16.938 0.00992635 -16.5201)
(-20.5099 -0.0503136 0.00813791 -19.9182 0.00829381 -19.4914)
(-19.728 0.0593312 0.0137999 -19.0186 0.00587703 -18.6535)
(-18.8599 0.0963638 0.0126506 -18.1839 0.00310751 -17.8341)
(-18.0697 0.050045 0.00470201 -17.2052 -0.000604929 -16.9797)
(-20.4069 -0.0452761 0.00962964 -19.8717 0.00109103 -19.6643)
(-19.7505 -0.0138647 0.0164505 -19.1812 -0.000142264 -18.9617)
(-19.0368 -0.0123419 0.0153629 -18.4489 -0.00129431 -18.248)
(-18.4044 -0.00675734 0.00618442 -17.7195 -0.00337182 -17.5552)
)
;

boundaryField
{
    interface
    {
        type            calculated;
        value           nonuniform List<symmTensor> 
192
(
(-21.6432 -0.00318708 0.0733649 1.5114 4.50448 -11.2467)
(-21.475 -0.000284424 0.0945195 -19.7744 -0.296723 -21.5651)
(-21.3291 -0.0109813 0.090634 -17.5693 0.245665 -19.3786)
(-21.1403 -0.0174475 0.0833042 -19.7641 -0.104005 -20.091)
(-20.9572 -0.0225763 0.0741036 -20.3506 -0.0746022 -20.0673)
(-20.7857 -0.0261563 0.0648471 -20.6503 -0.0707131 -20.1135)
(-20.6346 -0.0276676 0.0561928 -20.5189 -0.0465743 -20.0545)
(-20.5134 -0.0250663 0.0492054 -20.2571 -0.0353543 -19.956)
(-21.9045 -0.00909392 0.0448464 -1.87466 3.54067 -11.4669)
(-21.7231 -0.0102236 0.0601301 -17.973 1.19967 -19.7978)
(-21.5374 -0.0209596 0.0614387 -17.6791 0.485615 -19.5382)
(-21.3157 -0.0279192 0.0591426 -19.443 0.0823417 -19.9731)
(-21.0955 -0.0327667 0.0551425 -20.218 -0.0562553 -20.0479)
(-20.8878 -0.0358252 0.0505818 -20.5388 -0.0973162 -20.0546)
(-20.7021 -0.0366165 0.0461211 -20.4448 -0.089153 -19.9758)
(-20.5488 -0.0331058 0.0425899 -20.2053 -0.0591457 -19.8724)
(-22.0614 -0.01116 0.0288436 -2.13039 2.5128 -10.9365)
(-21.8661 -0.014461 0.0401312 -18.4551 1.33688 -19.0021)
(-21.6627 -0.0268974 0.0429018 -17.8575 0.718345 -19.1649)
(-21.4215 -0.0345614 0.0429922 -19.4308 0.281722 -19.8352)
(-21.1804 -0.0395395 0.0415924 -20.1842 0.0546819 -20.0465)
(-20.9517 -0.0424204 0.0394854 -20.4949 -0.0480077 -20.0883)
(-20.7457 -0.0428821 0.0372193 -20.4074 -0.0740049 -20.0109)
(-20.5729 -0.0389967 0.0354988 -20.1861 -0.0506783 -19.929)
(-22.1658 -0.0121906 0.0195975 -2.0151 1.77753 -10.536)
(-21.9619 -0.0166998 0.02789 -18.8056 1.15729 -18.4436)
(-21.7473 -0.030529 0.0307144 -18.0812 0.736684 -18.719)
(-21.4932 -0.0389725 0.0316486 -19.5109 0.381791 -19.55)
(-21.2382 -0.0442527 0.031441 -20.2015 0.147434 -19.9073)
(-20.9957 -0.0471546 0.03058 -20.4805 0.0185259 -20.0336)
(-20.7761 -0.0474884 0.0294708 -20.3777 -0.0331814 -20.004)
(-20.59 -0.0434082 0.028678 -20.1603 -0.0330207 -19.9637)
(-22.2362 -0.0127941 0.0133423 -1.87099 1.24308 -10.2865)
(-22.0268 -0.018004 0.0192743 -19.0178 0.905274 -18.1048)
(-21.8049 -0.0327922 0.0216647 -18.2659 0.633277 -18.3969)
(-21.5421 -0.0418804 0.0227703 -19.6309 0.378029 -19.3026)
(-21.2779 -0.0474971 0.0230594 -20.2593 0.185267 -19.7508)
(-21.0259 -0.0505127 0.0228324 -20.4975 0.064107 -19.9531)
(-20.7973 -0.0508277 0.0223616 -20.3669 0.00448357 -19.9767)
(-20.602 -0.0466543 0.0220665 -20.1454 -0.0135048 -19.978)
(-22.2829 -0.013163 0.00868729 -1.75103 0.825398 -10.1335)
(-22.07 -0.0187835 0.0126719 -19.1438 0.641456 -17.903)
(-21.8433 -0.0341982 0.0144431 -18.3956 0.47454 -18.1843)
(-21.5747 -0.0437527 0.0153894 -19.7373 0.30669 -19.1228)
(-21.3043 -0.0496528 0.015793 -20.3251 0.169699 -19.6222)
(-21.0462 -0.0527987 0.0158336 -20.527 0.0760797 -19.8765)
(-20.8114 -0.05314 0.0156812 -20.3681 0.0239342 -19.9415)
(-20.61 -0.0489237 0.0156206 -20.1378 -0.000885012 -19.9715)
(-22.3116 -0.0133851 0.00490508 -1.66814 0.473284 -10.0453)
(-22.0965 -0.0192304 0.00718474 -19.2153 0.381364 -17.7906)
(-21.8669 -0.0350174 0.0082761 -18.4771 0.291359 -18.0582)
(-21.5948 -0.0448712 0.00890294 -19.812 0.196831 -19.0101)
(-21.3206 -0.0509686 0.00921653 -20.3771 0.116223 -19.536)
(-21.0587 -0.0542179 0.00931548 -20.5541 0.0583616 -19.8207)
(-20.8201 -0.0545922 0.00929144 -20.3737 0.0236438 -19.9116)
(-20.6149 -0.0503575 0.00931058 -20.1352 0.00351117 -19.9577)
(-22.325 -0.0135177 0.00158173 -1.6259 0.154377 -10.0046)
(-22.1086 -0.0194394 0.00231616 -19.2474 0.126431 -17.7401)
(-21.878 -0.0353782 0.00268925 -18.516 0.0980367 -17.9995)
(-21.6042 -0.0453848 0.00291042 -19.8498 0.067574 -18.9562)
(-21.3283 -0.0515862 0.00302757 -20.405 0.0410693 -19.4934)
(-21.0646 -0.0548933 0.00307346 -20.5695 0.0216022 -19.7918)
(-20.8242 -0.0552891 0.00307656 -20.3779 0.00949808 -19.8948)
(-20.6173 -0.051055 0.0030924 -20.1348 0.0018696 -19.9478)
(-13.6714 5.54772 -0.14675 -2.7491 0.000376267 -20.3443)
(-24.0124 1.16175 -0.14678 -21.1005 0.00587238 -20.2213)
(-21.3403 1.43298 -0.123091 -18.2408 0.000111135 -20.1815)
(-21.4585 0.76584 -0.0955157 -19.8983 -0.00376354 -20.1235)
(-20.9615 0.443933 -0.0695499 -20.1623 -0.00811939 -20.0761)
(-20.7098 0.15734 -0.045375 -20.3424 -0.01196 -20.0368)
(-20.5141 -0.000501152 -0.0229767 -20.2598 -0.0140225 -20.0103)
(-20.4349 -0.033446 -0.00108575 -20.147 -0.0109364 -20.0076)
(-15.1065 4.62592 -0.133315 -11.9354 -0.00540588 -19.6001)
(-21.0413 3.96971 -0.136067 -20.1098 -0.00776722 -19.5191)
(-20.5724 2.95543 -0.110974 -18.8349 -0.0130975 -19.4782)
(-20.4054 1.88434 -0.083685 -19.3366 -0.016935 -19.4367)
(-20.0875 1.05038 -0.0581691 -19.389 -0.0205167 -19.4062)
(-19.8933 0.450821 -0.0349732 -19.4163 -0.0236591 -19.3861)
(-19.7662 0.109462 -0.0140539 -19.3807 -0.0254104 -19.3787)
(-19.7465 0.00472721 0.00503819 -19.4015 -0.022727 -19.3917)
(-15.2366 3.38528 -0.130648 -16.0092 -0.00717396 -18.9391)
(-18.9575 3.9832 -0.134972 -21.4968 -0.0146748 -18.8776)
(-18.8323 3.06623 -0.109163 -19.9335 -0.0229388 -18.8405)
(-18.9635 1.96713 -0.0808766 -19.4504 -0.0283217 -18.8104)
(-18.9807 1.07491 -0.0545116 -19.0243 -0.0324751 -18.7935)
(-19.0087 0.455987 -0.0308853 -18.777 -0.0359188 -18.7887)
(-19.0313 0.111092 -0.0100274 -18.6386 -0.0382999 -18.7953)
(-19.096 -0.00222726 0.0082805 -18.6825 -0.0371237 -18.8163)
(-16.3144 2.11103 -0.137784 -22.4603 -0.00960428 -18.2586)
(-17.2197 2.02731 -0.141767 -22.9472 -0.0236576 -18.2284)
(-17.5705 1.45611 -0.113422 -20.6865 -0.0339241 -18.2072)
(-17.9201 0.92014 -0.0823718 -19.2312 -0.0402157 -18.1996)
(-18.146 0.475627 -0.0534133 -18.3383 -0.0446502 -18.2064)
(-18.3026 0.180347 -0.0276687 -17.927 -0.0484182 -18.2242)
(-18.3872 0.0310077 -0.00521273 -17.7957 -0.0518225 -18.2496)
(-18.4996 -0.0106966 0.0140295 -17.986 -0.0531067 -18.2806)
(-17.1153 0.00234179 0.062715 -29.9798 1.36661 -19.761)
(-17.1907 0.0142322 0.0584854 -23.9666 0.873336 -18.7014)
(-17.3376 0.0179625 0.0398696 -20.4959 0.416586 -18.077)
(-17.5114 0.02195 0.0209668 -18.4194 0.140015 -17.7993)
(-17.6889 0.0271312 0.00398391 -17.3738 -0.0301895 -17.6978)
(-17.8576 0.0339907 -0.0104921 -17.0699 -0.128343 -17.7306)
(-18.0078 0.0439633 -0.0220272 -17.1727 -0.161896 -17.8176)
(-18.12 0.0592504 -0.0296719 -17.5857 -0.0912598 -17.9657)
(-16.8615 0.000599385 0.0347917 -33.0977 1.45558 -20.5175)
(-16.971 0.0125805 0.0312552 -23.4456 1.51382 -17.9601)
(-17.1473 0.0135362 0.0190976 -19.8802 0.846735 -17.6904)
(-17.3574 0.0157426 0.00721676 -17.7717 0.362456 -17.4647)
(-17.5724 0.0203284 -0.00327314 -16.8867 0.0488237 -17.4319)
(-17.7761 0.0277619 -0.0121222 -16.756 -0.133807 -17.5208)
(-17.955 0.0396713 -0.0191853 -17.0321 -0.197201 -17.6761)
(-18.0837 0.0584871 -0.0244821 -17.531 -0.124992 -17.8829)
(-16.7166 -0.000538846 0.0210952 -33.974 1.23716 -20.7058)
(-16.8381 0.0112219 0.0182128 -23.5864 1.30028 -17.6529)
(-17.0287 0.0114025 0.00998403 -19.8899 0.839612 -17.2529)
(-17.258 0.0131055 0.00191934 -17.5784 0.417106 -16.995)
(-17.4933 0.0176332 -0.00518598 -16.6749 0.111288 -17.0144)
(-17.7164 0.0255522 -0.0111853 -16.5806 -0.0772324 -17.1874)
(-17.9114 0.0385478 -0.0160756 -16.907 -0.155447 -17.4402)
(-18.0503 0.059007 -0.0201935 -17.4492 -0.106251 -17.7578)
(-16.6205 -0.00118811 0.0138369 -34.3696 0.982073 -20.7859)
(-16.7482 0.0103524 0.0115151 -23.6935 0.993166 -17.4453)
(-16.9477 0.010158 0.00569297 -19.9913 0.69749 -16.8791)
(-17.1887 0.0117369 -4.90662e-05 -17.5435 0.390082 -16.558)
(-17.4367 0.0163672 -0.00515101 -16.5876 0.139927 -16.6111)
(-17.6722 0.024668 -0.00949348 -16.485 -0.0250347 -16.8526)
(-17.8778 0.0383595 -0.0131101 -16.8228 -0.10266 -17.1873)
(-18.0238 0.05981 -0.0163466 -17.375 -0.0779149 -17.5884)
(-16.5559 -0.0015903 0.00914961 -34.6035 0.734333 -20.8166)
(-16.6874 0.00982434 0.00735443 -23.7611 0.720948 -17.2834)
(-16.8925 0.00942503 0.00325563 -20.0733 0.530526 -16.598)
(-17.141 0.0109961 -0.000801241 -17.5621 0.32074 -16.22)
(-17.3972 0.0157695 -0.00443525 -16.5599 0.13751 -16.2823)
(-17.6406 0.0243659 -0.00755853 -16.4373 0.00849984 -16.5694)
(-17.8532 0.0385325 -0.0102012 -16.7707 -0.058318 -16.9626)
(-18.0039 0.0606522 -0.0126367 -17.3211 -0.0510153 -17.4188)
(-16.5131 -0.0018411 0.00581871 -34.7567 0.505705 -20.8281)
(-16.6472 0.00951395 0.00454142 -23.8056 0.48771 -17.1629)
(-16.8559 0.0090041 0.00180721 -20.129 0.368985 -16.3981)
(-17.1091 0.0105995 -0.000907689 -17.5873 0.234553 -15.9782)
(-17.3705 0.0154992 -0.00335608 -16.5559 0.11231 -16.0405)
(-17.6191 0.0243131 -0.00547739 -16.4149 0.0220674 -16.3549)
(-17.8361 0.0388051 -0.00728908 -16.7397 -0.0282175 -16.7856)
(-17.99 0.0613832 -0.00897709 -17.2849 -0.0302422 -17.2736)
(-16.487 -0.00199565 0.00322901 -34.8532 0.295283 -20.8327)
(-16.6226 0.00934048 0.00244364 -23.8336 0.282124 -17.0837)
(-16.8335 0.00877911 0.000882926 -20.1632 0.21693 -16.2705)
(-17.0895 0.0103986 -0.000675337 -17.6063 0.142149 -15.8236)
(-17.354 0.0153869 -0.00209009 -16.5586 0.0726383 -15.8836)
(-17.6056 0.024345 -0.00332241 -16.4051 0.0197792 -16.2128)
(-17.8253 0.0390473 -0.00437483 -16.7224 -0.0111914 -16.6648)
(-17.981 0.0619105 -0.00534318 -17.2631 -0.0155145 -17.1693)
(-16.4748 -0.00210511 0.0010306 -34.9006 0.0970246 -20.8346)
(-16.6114 0.00925322 0.00075612 -23.8474 0.0923401 -17.0449)
(-16.8232 0.00869675 0.000253234 -20.1797 0.0715429 -16.2088)
(-17.0804 0.010323 -0.000252445 -17.6162 0.0475617 -15.7485)
(-17.3463 0.0153532 -0.000714312 -16.5611 0.0250508 -15.8068)
(-17.5993 0.0243867 -0.00111767 -16.4014 0.00768438 -16.1422)
(-17.8201 0.0392101 -0.00145978 -16.7146 -0.0027604 -16.6038)
(-17.9763 0.0621867 -0.00176537 -17.2528 -0.00475203 -17.1148)
(-20.3703 -0.00675587 0.0305913 -20.0726 -0.0376973 -19.8594)
(-20.3775 -0.00254952 0.0716735 -20.0514 -0.0344368 -19.7967)
(-20.4285 2.73457e-05 0.0793942 -20.0337 -0.0296537 -19.8546)
(-20.4596 0.00174148 0.0773561 -20.0195 -0.0244711 -19.8934)
(-20.4795 0.00285017 0.0665723 -20.0088 -0.0191194 -19.9062)
(-20.4884 0.00353731 0.0509268 -20.0011 -0.0136822 -19.8928)
(-20.4915 0.00392659 0.0318515 -19.9962 -0.00824015 -19.8708)
(-20.4925 0.00408596 0.0108319 -19.9942 -0.0027634 -19.8558)
(-19.7471 -0.00656692 0.0367489 -19.4031 -0.0294133 -19.348)
(-19.7408 -0.0034265 0.0983664 -19.3623 -0.0286859 -19.2877)
(-19.7705 -0.00210102 0.128893 -19.3314 -0.0251414 -19.2941)
(-19.7913 -0.00148051 0.130763 -19.3071 -0.0208271 -19.2825)
(-19.8009 -0.00122357 0.114176 -19.2886 -0.0162801 -19.2475)
(-19.8025 -0.00114933 0.0871779 -19.2753 -0.0116404 -19.198)
(-19.801 -0.00114868 0.0543186 -19.2667 -0.00699252 -19.1521)
(-19.7996 -0.00115329 0.0184246 -19.2626 -0.0023371 -19.1252)
(-19.1426 -0.0107516 0.0424304 -18.7636 -0.0232202 -18.8246)
(-19.1052 -0.00942425 0.0958081 -18.7082 -0.0250591 -18.7508)
(-19.1236 -0.00933786 0.126782 -18.6688 -0.0225267 -18.742)
(-19.1386 -0.00962011 0.128577 -18.6382 -0.0187429 -18.7016)
(-19.1456 -0.0100215 0.111166 -18.615 -0.0146472 -18.6348)
(-19.1463 -0.010412 0.0837305 -18.5982 -0.0104594 -18.559)
(-19.1446 -0.0107186 0.0516044 -18.5873 -0.00628177 -18.4954)
(-19.1432 -0.0109184 0.0174054 -18.5822 -0.00210192 -18.4597)
(-18.6033 -0.024751 0.00875858 -18.1826 -0.0211864 -18.3633)
(-18.5571 -0.0266885 0.0378486 -18.1226 -0.0237858 -18.2873)
(-18.5712 -0.0280856 0.0567793 -18.0805 -0.0214186 -18.2612)
(-18.5841 -0.029321 0.0577083 -18.0476 -0.0177263 -18.1861)
(-18.5916 -0.0303897 0.0493039 -18.0225 -0.0137827 -18.0845)
(-18.5936 -0.0312461 0.0365143 -18.0044 -0.0098117 -17.9812)
(-18.5929 -0.0318417 0.0222523 -17.9926 -0.00591606 -17.8997)
(-18.5925 -0.0321371 0.00747432 -17.9876 -0.00199836 -17.8557)
)
;
    }
    symmetry
    {
        type            symmetryPlane;
    }
    bottom
    {
        type            calculated;
        value           nonuniform List<symmTensor> 
32
(
(-0.990016 8.86699 0 -1.48502 8.61851 -0.990016)
(-3.83876 8.5472 0 -5.75815 4.92207 -3.83876)
(-3.95432 8.60726 0 -5.93147 3.08011 -3.95432)
(-3.85485 8.71912 0 -5.78228 2.0275 -3.85485)
(-3.76164 8.81593 0 -5.64246 1.3553 -3.76164)
(-3.69157 8.88773 0 -5.53735 0.875534 -3.69157)
(-3.6457 8.93465 0 -5.46855 0.494312 -3.6457)
(-3.62302 8.95771 0 -5.43453 0.160123 -3.62302)
(-8.60516 4.84407 0 -12.9077 5.68694 -8.60516)
(-11.3762 5.01167 0 -17.0643 3.47567 -11.3762)
(-11.6792 5.09818 0 -17.5188 2.3214 -11.6792)
(-11.7423 5.17309 0 -17.6134 1.60681 -11.7423)
(-11.7612 5.23543 0 -17.6419 1.11107 -11.7612)
(-11.7678 5.28326 0 -17.6516 0.732805 -11.7678)
(-11.77 5.31552 0 -17.655 0.418489 -11.77)
(-11.7707 5.33168 0 -17.656 0.136239 -11.7707)
(-11.3734 2.69298 0 -17.0602 3.57805 -11.3734)
(-14.0142 3.2171 0 -21.0213 2.30608 -14.0142)
(-14.413 3.40205 0 -21.6195 1.67061 -14.413)
(-14.5302 3.49713 0 -21.7952 1.23695 -14.5302)
(-14.582 3.56211 0 -21.873 0.896193 -14.582)
(-14.6097 3.60909 0 -21.9146 0.608584 -14.6097)
(-14.6251 3.64023 0 -21.9377 0.353297 -14.6251)
(-14.6322 3.65576 0 -21.9483 0.115853 -14.6322)
(-16.3622 1.4019 0 -24.5433 1.26653 -16.3622)
(-18.8983 2.45522 0 -28.3475 1.14744 -18.8983)
(-19.4514 2.84856 0 -29.1771 1.06145 -19.4514)
(-19.6784 3.02316 0 -29.5177 0.899515 -19.6784)
(-19.8029 3.12383 0 -29.7044 0.700384 -19.8029)
(-19.8805 3.18928 0 -29.8207 0.493917 -19.8805)
(-19.928 3.23034 0 -29.8919 0.292175 -19.928)
(-19.9509 3.25029 0 -29.9264 0.0965529 -19.9509)
)
;
    }
}


// ************************************************************************* //
