/*--------------------------------*- C++ -*----------------------------------*\
| =========                 |                                                 |
| \\      /  F ield         | foam-extend: Open Source CFD                    |
|  \\    /   O peration     | Version:     3.1                                |
|   \\  /    A nd           | Web:         http://www.extend-project.de       |
|    \\/     M anipulation  |                                                 |
\*---------------------------------------------------------------------------*/
FoamFile
{
    version     2.0;
    format      ascii;
    class       volSymmTensorField;
    location    "0.1";
    object      sigmaCauchy;
}
// * * * * * * * * * * * * * * * * * * * * * * * * * * * * * * * * * * * * * //

dimensions      [1 -1 -2 0 0 0 0];

internalField   nonuniform List<symmTensor> 
256
(
(-2.21406 5.73216 -0.123646 6.63288 4.20248 -1.22911)
(-9.80266 4.8581 -0.295244 -8.65022 3.39604 -9.82185)
(-12.1258 3.63107 -0.293966 -14.6714 2.44252 -12.4411)
(-17.3664 2.31638 -0.102507 -25.1582 1.65808 -18.1656)
(-25.6824 1.2166 -0.0785861 -21.6982 -0.20817 -23.832)
(-20.8301 3.97877 -0.341514 -19.0952 0.0958687 -20.2305)
(-19.0139 3.95366 -0.413203 -20.9632 0.488374 -19.3198)
(-17.3458 1.95768 -0.153209 -22.7166 0.764172 -18.5628)
(-20.4423 1.32771 0.0614099 -17.2044 0.221359 -18.8802)
(-20.1041 2.80436 -0.0635266 -18.1826 0.197684 -19.0014)
(-18.567 2.90664 -0.15793 -19.2994 0.252806 -18.5013)
(-17.4455 1.36734 -0.0660541 -20.1282 0.360791 -18.0831)
(-21.3675 0.719019 0.0155913 -19.5955 -0.0658294 -20.1366)
(-20.2623 1.78552 -0.020879 -18.974 0.000147883 -19.3932)
(-18.8369 1.86116 -0.0457039 -19.0074 0.0608265 -18.6945)
(-17.7403 0.859669 -0.0215617 -18.6929 0.116173 -18.0304)
(-20.8427 0.407305 0.0296468 -19.9319 -0.0588429 -19.9123)
(-19.9965 0.992269 0.018948 -19.1554 -0.0392829 -19.3142)
(-18.8841 1.02364 0.0079633 -18.7156 -0.0296512 -18.6874)
(-17.9614 0.453469 -0.00528289 -17.9129 -0.0270481 -18.0084)
(-20.6567 0.147014 0.0267113 -20.2159 -0.0652107 -19.9464)
(-19.8426 0.434132 0.0281064 -19.276 -0.0653783 -19.312)
(-18.9409 0.447624 0.026564 -18.5893 -0.0792298 -18.7072)
(-18.1614 0.184819 -8.27395e-06 -17.6536 -0.107672 -18.0616)
(-20.4409 0.0017941 0.025507 -20.1483 -0.0517101 -19.8728)
(-19.7269 0.11337 0.0276946 -19.3028 -0.0684366 -19.2966)
(-18.9812 0.121589 0.030625 -18.5525 -0.0947234 -18.7163)
(-18.2876 0.04579 0.00113661 -17.6631 -0.135327 -18.1097)
(-20.3259 -0.029962 0.0273321 -20.0198 -0.0386997 -19.814)
(-19.7219 0.00932491 0.0313273 -19.3642 -0.0460446 -19.3275)
(-19.0721 0.00438164 0.0365221 -18.6608 -0.0564551 -18.774)
(-18.496 -0.00374661 0.0049834 -17.9921 -0.0768799 -18.2752)
(-5.29296 5.97008 -0.068702 1.19794 3.30929 -3.47999)
(-13.0421 5.18614 -0.199958 -14.2674 2.7597 -12.4283)
(-15.4964 3.98734 -0.196057 -20.2139 2.15437 -15.3363)
(-20.6467 2.67099 -0.0400662 -30.5772 1.64566 -21.1907)
(-22.7955 1.36252 -0.0106081 -17.8351 1.16176 -20.0233)
(-18.1858 4.0902 -0.247811 -15.7624 1.21611 -16.8703)
(-17.592 3.97513 -0.311086 -19.1583 1.37123 -17.2937)
(-16.3881 1.85231 -0.102986 -21.6474 1.47179 -17.2272)
(-20.737 1.19083 0.118016 -17.2224 0.477127 -18.9929)
(-19.9047 2.67177 -0.0241499 -17.6547 0.517957 -18.6355)
(-18.394 2.77855 -0.131224 -18.6799 0.644803 -18.0963)
(-17.2346 1.30633 -0.0727866 -19.4703 0.783147 -17.6612)
(-21.1012 0.660299 0.103488 -18.9823 0.116873 -19.719)
(-19.9793 1.67516 0.0648498 -18.33 0.187511 -18.9605)
(-18.6381 1.75433 0.00720485 -18.3652 0.26871 -18.3116)
(-17.4913 0.800503 -0.00308658 -17.9835 0.33751 -17.6193)
(-20.8129 0.352872 0.103476 -19.6719 -0.0301642 -19.7715)
(-19.9029 0.91824 0.100496 -18.7965 0.0116511 -19.102)
(-18.7513 0.965638 0.0665174 -18.2524 0.0413534 -18.4126)
(-17.7708 0.429272 0.0217953 -17.3752 0.0519461 -17.6854)
(-20.6079 0.123775 0.0892396 -20.0078 -0.0829896 -19.7919)
(-19.7824 0.403708 0.101752 -19.0409 -0.0707169 -19.1439)
(-18.8329 0.432865 0.0810506 -18.2775 -0.0802945 -18.4839)
(-18.0147 0.18681 0.0261187 -17.2954 -0.110644 -17.8043)
(-20.4013 -0.00600151 0.0736732 -20.0145 -0.0869755 -19.7347)
(-19.6993 0.108157 0.0896354 -19.1859 -0.0950068 -19.1771)
(-18.9225 0.128164 0.077828 -18.4105 -0.121331 -18.5714)
(-18.2121 0.0597662 0.0232563 -17.5079 -0.167013 -17.9516)
(-20.2945 -0.0299592 0.0686384 -19.9345 -0.0605469 -19.7008)
(-19.71 0.0107866 0.0905411 -19.3084 -0.0665861 -19.2474)
(-19.0368 0.00908425 0.0852499 -18.6008 -0.0794239 -18.6856)
(-18.4555 0.00168273 0.0297028 -17.9347 -0.106101 -18.1875)
(-5.39308 6.11364 -0.0303942 0.75318 2.35614 -3.04419)
(-13.4428 5.34325 -0.107063 -15.1785 2.00881 -12.436)
(-15.9928 4.15244 -0.10692 -21.2706 1.65431 -15.6434)
(-21.2436 2.87888 -0.0281137 -31.8395 1.35153 -21.7803)
(-22.8673 1.48683 -0.0157354 -18.163 1.2701 -19.1537)
(-18.0868 4.23326 -0.134356 -15.9275 1.23541 -16.0031)
(-17.5284 4.04215 -0.164645 -19.4665 1.28164 -16.7757)
(-16.1941 1.79808 -0.0521765 -21.8381 1.29717 -16.8399)
(-20.8638 1.16875 0.0605345 -17.2653 0.688666 -18.5033)
(-19.803 2.70978 0.0028799 -17.4374 0.68565 -17.9181)
(-18.2369 2.82206 -0.0562587 -18.4996 0.749962 -17.4602)
(-17.1374 1.33417 -0.0240535 -19.4344 0.812793 -17.1893)
(-21.1702 0.646038 0.0826048 -18.8968 0.290591 -19.4557)
(-19.9478 1.66322 0.0785219 -18.1268 0.322181 -18.5244)
(-18.5546 1.75562 0.0345583 -18.1392 0.371393 -17.8455)
(-17.3746 0.801257 0.0119357 -17.7637 0.407233 -17.1396)
(-20.9063 0.327502 0.088134 -19.6039 0.0714358 -19.6784)
(-19.8894 0.893827 0.111844 -18.6113 0.0992344 -18.817)
(-18.6904 0.954519 0.0826882 -18.0329 0.117565 -18.0589)
(-17.6792 0.425846 0.0312502 -17.1467 0.118044 -17.2789)
(-20.6794 0.102471 0.0827925 -19.9493 -0.0346701 -19.7553)
(-19.7804 0.379 0.116363 -18.9083 -0.0227771 -18.9587)
(-18.7908 0.419932 0.0966842 -18.1123 -0.0316928 -18.2287)
(-17.9428 0.182396 0.0355573 -17.1107 -0.0580655 -17.4869)
(-20.4544 -0.0237803 0.0738579 -19.9761 -0.0685406 -19.723)
(-19.7047 0.0895565 0.110155 -19.107 -0.0709368 -19.0637)
(-18.898 0.11848 0.0978792 -18.3109 -0.0926487 -18.4074)
(-18.1603 0.0579969 0.0350137 -17.3839 -0.130748 -17.7331)
(-20.3562 -0.0358821 0.0742463 -19.9337 -0.0504264 -19.7428)
(-19.7378 0.00340106 0.117661 -19.2789 -0.0544511 -19.2187)
(-19.049 0.00432644 0.112137 -18.5634 -0.0661027 -18.6325)
(-18.4499 -0.000363974 0.0457436 -17.8792 -0.0896996 -18.099)
(-5.25618 6.22341 -0.0101708 0.854635 1.67374 -2.58487)
(-13.5145 5.45206 -0.0543559 -15.4233 1.45237 -12.2829)
(-16.1141 4.25868 -0.0545223 -21.6086 1.23894 -15.6588)
(-21.4714 2.99558 -0.0136263 -32.3605 1.05315 -22.0059)
(-22.9676 1.54589 -0.0020102 -18.4693 1.09514 -18.6268)
(-18.1233 4.34194 -0.0654393 -16.1676 1.03732 -15.5439)
(-17.5291 4.12064 -0.0782471 -19.7292 1.03495 -16.4777)
(-16.0884 1.80781 -0.0213129 -21.9934 1.01046 -16.5965)
(-20.9266 1.19473 0.0414562 -17.4103 0.698193 -18.034)
(-19.8234 2.77232 0.0172617 -17.5029 0.666852 -17.4425)
(-18.1886 2.87762 -0.0109806 -18.5583 0.684587 -17.0236)
(-17.0656 1.35613 -0.00153381 -19.5226 0.695969 -16.806)
(-21.2136 0.650688 0.0623499 -18.9235 0.370299 -19.1256)
(-19.9682 1.68591 0.0712722 -18.1063 0.367121 -18.1518)
(-18.5196 1.78345 0.046271 -18.1001 0.384161 -17.4473)
(-17.2925 0.813271 0.0191253 -17.7145 0.39153 -16.708)
(-20.9483 0.320842 0.070294 -19.5875 0.149998 -19.4873)
(-19.905 0.89331 0.0984003 -18.5545 0.156245 -18.549)
(-18.6637 0.96054 0.0796422 -17.9555 0.15951 -17.735)
(-17.6178 0.429297 0.0315758 -17.0548 0.149637 -16.8974)
(-20.7132 0.0909264 0.069801 -19.9169 0.0240563 -19.6526)
(-19.7937 0.36649 0.105523 -18.8503 0.0268802 -18.7782)
(-18.771 0.413969 0.0916489 -18.0349 0.0158278 -17.9854)
(-17.8957 0.180456 0.0350301 -17.0157 -0.00861075 -17.1793)
(-20.4776 -0.0362866 0.0665409 -19.9403 -0.0305726 -19.6763)
(-19.7174 0.0747967 0.10581 -19.0631 -0.0340641 -18.9545)
(-18.8862 0.108964 0.0961804 -18.2523 -0.0517795 -18.2441)
(-18.1257 0.0553432 0.0358239 -17.3053 -0.0828361 -17.5088)
(-20.3822 -0.0402009 0.0710485 -19.9114 -0.0332731 -19.7517)
(-19.7539 -0.00400681 0.118206 -19.2479 -0.0363982 -19.1739)
(-19.0535 -0.00162139 0.113301 -18.5256 -0.0452099 -18.5512)
(-18.4381 -0.0024069 0.0469976 -17.8229 -0.0644035 -17.9668)
(-5.13678 6.30626 -0.00182826 1.00303 1.1736 -2.2748)
(-13.5267 5.53184 -0.0265176 -15.5096 1.03024 -12.164)
(-16.1584 4.33422 -0.0265688 -21.7594 0.898452 -15.6364)
(-21.5933 3.06938 -0.00529241 -32.6483 0.780456 -22.1166)
(-23.0512 1.58109 0.00450279 -18.6692 0.85468 -18.3184)
(-18.1468 4.41965 -0.028056 -16.3181 0.798002 -15.26)
(-17.5262 4.18664 -0.0334489 -19.8898 0.778209 -16.2783)
(-16.0166 1.82737 -0.00600584 -22.0869 0.742737 -16.4159)
(-20.9833 1.21882 0.0302016 -17.5622 0.597721 -17.7146)
(-19.8505 2.82515 0.0227601 -17.6084 0.559072 -17.1262)
(-18.1681 2.92532 0.00924383 -18.6506 0.553095 -16.7263)
(-17.0181 1.37497 0.00739362 -19.6097 0.540257 -16.5254)
(-21.2594 0.660388 0.0455557 -19.0132 0.359498 -18.8671)
(-19.99 1.7132 0.0588595 -18.1527 0.340189 -17.8691)
(-18.5022 1.81131 0.0452836 -18.1299 0.337782 -17.1464)
(-17.2431 0.82486 0.0198168 -17.7317 0.328643 -16.3808)
(-20.9832 0.321366 0.0527532 -19.624 0.178762 -19.3082)
(-19.9206 0.901397 0.0786804 -18.5597 0.170358 -18.3262)
(-18.6489 0.970795 0.0672444 -17.9444 0.163365 -17.4725)
(-17.577 0.433849 0.0272853 -17.0285 0.148106 -16.5888)
(-20.7402 0.0859097 0.0542525 -19.9219 0.0627047 -19.545)
(-19.8047 0.362553 0.0858025 -18.8347 0.0569 -18.6181)
(-18.7589 0.412632 0.0764367 -18.0056 0.0439076 -17.7784)
(-17.8642 0.180039 0.0295936 -16.9716 0.022101 -16.9206)
(-20.4948 -0.0432575 0.0541639 -19.9251 0.00315998 -19.621)
(-19.7254 0.0665718 0.089261 -19.0405 -0.00363669 -18.8504)
(-18.8777 0.1028 0.0818562 -18.22 -0.0186789 -18.0953)
(-18.1026 0.0532811 0.0307457 -17.2591 -0.04311 -17.3099)
(-20.4001 -0.0423986 0.0603182 -19.8979 -0.0152544 -19.7435)
(-19.7602 -0.00853005 0.102566 -19.2239 -0.0193189 -19.1153)
(-19.0528 -0.0061111 0.0978427 -18.4969 -0.0262145 -18.4569)
(-18.4281 -0.0040177 0.0403899 -17.7819 -0.040802 -17.8279)
(-5.04923 6.36529 0.00113312 1.1281 0.780442 -2.07523)
(-13.5264 5.58916 -0.0123868 -15.5447 0.689911 -12.0865)
(-16.1795 4.38788 -0.0123717 -21.8397 0.609484 -15.6147)
(-21.6695 3.11865 -0.00145392 -32.8287 0.535384 -22.1796)
(-23.1071 1.60387 0.00621321 -18.7899 0.604671 -18.1355)
(-18.159 4.47357 -0.0100221 -16.4069 0.559802 -15.0842)
(-17.5215 4.23523 -0.0123141 -19.987 0.538442 -16.1462)
(-15.9687 1.84428 0.000152822 -22.1449 0.506528 -16.2867)
(-21.0202 1.23606 0.0215491 -17.6744 0.446931 -17.5054)
(-19.869 2.8632 0.0209229 -17.6949 0.413044 -16.9206)
(-18.1557 2.96065 0.0143447 -18.7256 0.399619 -16.5276)
(-16.986 1.38941 0.00877003 -19.6728 0.380727 -16.3288)
(-21.2921 0.668828 0.0316299 -19.101 0.289332 -18.6842)
(-20.0058 1.73511 0.0437207 -18.21 0.267688 -17.6718)
(-18.4917 1.83291 0.0364414 -18.1728 0.257935 -16.935)
(-17.2112 0.833689 0.0161917 -17.7604 0.24373 -16.1485)
(-21.008 0.323558 0.0368739 -19.6751 0.160632 -19.1687)
(-19.932 0.910067 0.056939 -18.5868 0.147422 -18.1605)
(-18.6395 0.980064 0.0501686 -17.9578 0.13692 -17.2792)
(-17.5504 0.437676 0.0205321 -17.0282 0.121653 -16.3624)
(-20.7585 0.0839767 0.0386543 -19.9423 0.0714916 -19.4525)
(-19.8121 0.362275 0.0625911 -18.8391 0.0621072 -18.4919)
(-18.7507 0.413223 0.0564926 -17.9992 0.0497891 -17.6189)
(-17.8432 0.18021 0.0219266 -16.9534 0.0323469 -16.7241)
(-20.5055 -0.0468983 0.0397342 -19.922 0.0205071 -19.5666)
(-19.7296 0.0624628 0.0665615 -19.0308 0.0123916 -18.7615)
(-18.8709 0.0992988 0.0611372 -18.203 0.00037603 -17.9734)
(-18.087 0.0519316 0.0228958 -17.2328 -0.0174398 -17.1519)
(-20.4082 -0.0435917 0.0456172 -19.888 -0.00336474 -19.7179)
(-19.7597 -0.0111479 0.077916 -19.206 -0.00770052 -19.0522)
(-19.0485 -0.00905002 0.0736525 -18.476 -0.0128862 -18.3657)
(-18.4189 -0.00507197 0.0300277 -17.753 -0.0231498 -17.7035)
(-4.99265 6.40329 0.00142672 1.21433 0.447837 -1.9561)
(-13.5239 5.62651 -0.00530285 -15.5596 0.397372 -12.0407)
(-16.1905 4.42278 -0.00528439 -21.8842 0.353491 -15.6001)
(-21.7164 3.14977 -0.000128208 -32.9393 0.312162 -22.2162)
(-23.1418 1.61804 0.00472707 -18.859 0.359129 -18.0337)
(-18.165 4.50783 -0.00264762 -16.4567 0.330859 -14.9819)
(-17.5177 4.26685 -0.00360148 -20.0433 0.315725 -16.0657)
(-15.9393 1.85587 0.00149681 -22.1795 0.294457 -16.2037)
(-21.0425 1.24696 0.0130271 -17.7461 0.274059 -17.3809)
(-19.8796 2.88746 0.0142476 -17.7519 0.251546 -16.7967)
(-18.1479 2.98356 0.0111832 -18.775 0.240269 -16.4054)
(-16.9662 1.39899 0.00634997 -19.7129 0.225594 -16.2047)
(-21.3126 0.674521 0.0187211 -19.1649 0.185022 -18.5701)
(-20.0152 1.74965 0.026852 -18.2545 0.169238 -17.5481)
(-18.4852 1.84714 0.0232251 -18.2069 0.160373 -16.8012)
(-17.1919 0.839489 0.0103442 -17.7834 0.148976 -16.0006)
(-21.0238 0.325456 0.0218472 -19.7178 0.109136 -19.0768)
(-19.9391 0.916452 0.0343835 -18.6132 0.0984379 -18.0523)
(-18.6338 0.986554 0.0307651 -17.9742 0.0899128 -17.1532)
(-17.5343 0.440288 0.0126161 -17.0345 0.0789746 -16.2155)
(-20.77 0.0832942 0.0231358 -19.963 0.0541199 -19.3874)
(-19.8165 0.362981 0.0379336 -18.8485 0.0462563 -18.4059)
(-18.7455 0.414145 0.0344416 -18.0009 0.0375066 -17.5116)
(-17.8303 0.180471 0.0133526 -16.9468 0.0262052 -16.5935)
(-20.5121 -0.0487021 0.0241851 -19.9241 0.0204574 -19.5246)
(-19.7315 0.0605235 0.0408443 -19.0274 0.0140484 -18.697)
(-18.8661 0.0974194 0.0374794 -18.1947 0.00616791 -17.8873)
(-18.0773 0.0511064 0.0139782 -17.2186 -0.00474367 -17.0431)
(-20.4116 -0.0442242 0.028307 -19.8826 0.00143373 -19.6907)
(-19.7574 -0.0125846 0.0483698 -19.1947 -0.00188782 -19)
(-19.0441 -0.0108335 0.045365 -18.4627 -0.00519366 -18.2949)
(-18.412 -0.00572364 0.0183315 -17.7352 -0.0113343 -17.6117)
(-4.96484 6.42191 0.000573625 1.25799 0.146119 -1.90017)
(-13.5222 5.64496 -0.00146242 -15.5652 0.129861 -12.0195)
(-16.1955 4.44003 -0.00145587 -21.9044 0.115864 -15.593)
(-21.7392 3.16495 5.66694e-05 -32.9926 0.102528 -22.2336)
(-23.1583 1.6249 0.00170902 -18.8905 0.118999 -17.988)
(-18.1676 4.52453 -0.000393249 -16.4792 0.109384 -14.9348)
(-17.5158 4.28242 -0.00065728 -20.0694 0.104003 -16.0275)
(-15.9253 1.86169 0.00068449 -22.196 0.0966036 -16.1632)
(-21.0529 1.25224 0.00435389 -17.7807 0.0921591 -17.3229)
(-19.8844 2.89924 0.00500212 -17.7797 0.0843212 -16.7385)
(-18.1441 2.99479 0.00409849 -18.7992 0.0800687 -16.3471)
(-16.9569 1.40374 0.00225728 -19.7323 0.0746729 -16.1447)
(-21.3224 0.677343 0.00620031 -19.1977 0.0634267 -18.5155)
(-20.0195 1.75682 0.00904167 -18.2779 0.057732 -17.4886)
(-18.4821 1.85414 0.00793473 -18.2251 0.0542993 -16.7365)
(-17.1829 0.84235 0.0035264 -17.7956 0.0500458 -15.9288)
(-21.0314 0.326481 0.00723778 -19.7411 0.0384471 -19.0315)
(-19.9423 0.919731 0.011488 -18.6283 0.0344355 -17.9991)
(-18.631 0.989829 0.0103436 -17.9842 0.0312265 -17.0912)
(-17.5268 0.441595 0.00423736 -17.0391 0.0272849 -16.1434)
(-20.7755 0.0830894 0.00770058 -19.9753 0.0199404 -19.3542)
(-19.8185 0.363528 0.012694 -18.8549 0.0169418 -18.3625)
(-18.7429 0.414716 0.0115506 -18.0032 0.013788 -17.4579)
(-17.8242 0.180633 0.00446959 -16.9449 0.0098729 -16.5284)
(-20.5151 -0.0494494 0.0081138 -19.9264 0.00823935 -19.5019)
(-19.7322 0.0597474 0.0137472 -19.0266 0.00583024 -18.6632)
(-18.8636 0.096587 0.012603 -18.1914 0.00307565 -17.8429)
(-18.0726 0.0507168 0.00468974 -17.2123 -0.000610259 -16.9877)
(-20.4127 -0.04451 0.00958779 -19.8802 0.00107416 -19.6739)
(-19.7557 -0.0132311 0.0163743 -19.1892 -0.000160211 -18.9708)
(-19.0415 -0.0116953 0.0152934 -18.4564 -0.00130584 -18.2565)
(-18.4084 -0.0060384 0.00615957 -17.7267 -0.00336477 -17.5631)
)
;

boundaryField
{
    interface
    {
        type            calculated;
        value           nonuniform List<symmTensor> 
192
(
(-21.5799 0.0593603 0.0854648 1.5141 4.51778 -11.2328)
(-21.4807 0.00212726 0.0935313 -19.7889 -0.294645 -21.5705)
(-21.326 -0.00507158 0.090733 -17.5854 0.244891 -19.3862)
(-21.1441 -0.0155182 0.0827967 -19.7752 -0.103533 -20.1006)
(-20.9629 -0.0217286 0.073676 -20.3595 -0.0743446 -20.0777)
(-20.7927 -0.0258788 0.0644645 -20.658 -0.0704768 -20.1241)
(-20.6417 -0.0274113 0.0558816 -20.5266 -0.0464398 -20.0647)
(-20.5202 -0.0246914 0.0489447 -20.2652 -0.0352518 -19.9657)
(-21.8473 0.0466378 0.0547654 -1.88066 3.5449 -11.4633)
(-21.7202 -0.00425955 0.0618475 -17.9897 1.19453 -19.8047)
(-21.5341 -0.0149279 0.0621129 -17.6956 0.483743 -19.5458)
(-21.318 -0.0252599 0.0590898 -19.4552 0.0819494 -19.9827)
(-21.1004 -0.0315432 0.0548877 -20.2275 -0.0560539 -20.0584)
(-20.8941 -0.0352663 0.0502823 -20.5469 -0.0969205 -20.0653)
(-20.7087 -0.0361731 0.0458469 -20.4526 -0.0887865 -19.9862)
(-20.5552 -0.0326044 0.042361 -20.2134 -0.0589172 -19.8824)
(-22.0026 0.0455991 0.0361293 -2.13673 2.51548 -10.9379)
(-21.862 -0.00878405 0.0422782 -18.4693 1.33084 -19.0127)
(-21.6584 -0.020922 0.044011 -17.8731 0.715299 -19.1741)
(-21.4231 -0.0316956 0.0433035 -19.443 0.280342 -19.8453)
(-21.1849 -0.0381321 0.0415486 -20.194 0.0543369 -20.0571)
(-20.9578 -0.0417053 0.0393031 -20.5033 -0.0478437 -20.0989)
(-20.7522 -0.0423227 0.0370108 -20.4155 -0.0736963 -20.0212)
(-20.5793 -0.0384197 0.0353147 -20.1944 -0.050475 -19.9388)
(-22.1051 0.0462267 0.0248781 -2.02105 1.77949 -10.5398)
(-21.9569 -0.0113362 0.0298398 -18.818 1.15195 -18.4568)
(-21.7423 -0.0246998 0.0319061 -18.0955 0.733454 -18.7301)
(-21.4941 -0.0360844 0.032154 -19.5225 0.37989 -19.5613)
(-21.2423 -0.0427647 0.0315635 -20.211 0.146615 -19.9184)
(-21.0015 -0.0463448 0.0305174 -20.489 0.0183551 -20.0445)
(-20.7824 -0.0468398 0.029343 -20.3859 -0.03307 -20.0144)
(-20.5964 -0.0427628 0.028543 -20.1688 -0.0328927 -19.9733)
(-22.1742 0.0470224 0.0170963 -1.87654 1.24452 -10.2914)
(-22.0213 -0.0128278 0.02084 -19.029 0.901062 -18.1197)
(-21.7994 -0.0271071 0.0227155 -18.2792 0.630458 -18.4095)
(-21.5425 -0.039065 0.0232995 -19.6417 0.37613 -19.3149)
(-21.2816 -0.0460101 0.0232612 -20.2684 0.184255 -19.7626)
(-21.0315 -0.0496661 0.022853 -20.5058 0.0637089 -19.9643)
(-20.8034 -0.0501254 0.0223028 -20.3752 0.00441165 -19.9871)
(-20.6083 -0.0459619 0.0219784 -20.154 -0.0134658 -19.9875)
(-22.2199 0.0476949 0.0112082 -1.75626 0.826384 -10.1391)
(-22.0641 -0.0137095 0.0137999 -19.1543 0.638458 -17.9188)
(-21.8374 -0.0286186 0.0152436 -18.4083 0.472411 -18.1978)
(-21.5749 -0.0410225 0.0158309 -19.7474 0.305141 -19.1359)
(-21.3078 -0.048201 0.0159937 -20.3338 0.168777 -19.6345)
(-21.0516 -0.0519483 0.0158899 -20.5351 0.075633 -19.888)
(-20.8174 -0.0524101 0.015666 -20.3763 0.0237736 -19.952)
(-20.6163 -0.0482012 0.0155699 -20.1465 -0.000901988 -19.981)
(-22.2481 0.048158 0.00636086 -1.67315 0.473862 -10.0512)
(-22.0904 -0.0142093 0.00786226 -19.2254 0.379578 -17.8071)
(-21.8608 -0.029505 0.00877274 -18.4893 0.290045 -18.0723)
(-21.5948 -0.0422069 0.00919064 -19.8217 0.195833 -19.0238)
(-21.324 -0.0495537 0.00935902 -20.3855 0.115592 -19.5488)
(-21.064 -0.0533758 0.00936667 -20.5619 0.0580253 -19.8325)
(-20.826 -0.0538507 0.00929427 -20.3819 0.0234984 -19.9223)
(-20.6212 -0.0496185 0.00928596 -20.1439 0.00347994 -19.9674)
(-22.2612 0.0483647 0.00205822 -1.63079 0.154568 -10.0106)
(-22.1025 -0.0144409 0.00254193 -19.2573 0.125838 -17.7568)
(-21.8718 -0.0298984 0.00285723 -18.528 0.097594 -18.0139)
(-21.6042 -0.0427555 0.0030099 -19.8593 0.0672312 -18.9701)
(-21.3317 -0.0501931 0.00307867 -20.4132 0.0408467 -19.5063)
(-21.0699 -0.0540584 0.00309348 -20.5772 0.0214786 -19.8037)
(-20.8301 -0.0545439 0.0030796 -20.386 0.00944106 -19.9056)
(-20.6235 -0.0503087 0.00308523 -20.1434 0.00185552 -19.9575)
(-13.6448 5.55855 -0.136704 -2.7645 0.0306592 -20.3032)
(-24.0043 1.15877 -0.145107 -21.1166 0.00562868 -20.2389)
(-21.3358 1.43 -0.121852 -18.26 0.00069918 -20.188)
(-21.4593 0.7637 -0.0947723 -19.9116 -0.00366259 -20.1338)
(-20.9657 0.442491 -0.0690785 -20.1729 -0.00803945 -20.0862)
(-20.7159 0.156895 -0.0450966 -20.3512 -0.0118943 -20.0468)
(-20.521 -0.000239824 -0.0228436 -20.268 -0.0139548 -20.0198)
(-20.4419 -0.0329891 -0.00106942 -20.1553 -0.0108922 -20.0167)
(-15.099 4.61541 -0.12658 -11.9533 0.00504903 -19.5839)
(-21.0316 3.94912 -0.133464 -20.1232 -0.00892762 -19.5308)
(-20.5655 2.94233 -0.109283 -18.8512 -0.0131758 -19.4867)
(-20.4041 1.8758 -0.0827981 -19.3498 -0.016943 -19.446)
(-20.0901 1.04574 -0.0576963 -19.3999 -0.0204213 -19.415)
(-19.8983 0.449012 -0.0347428 -19.4256 -0.0235326 -19.3947)
(-19.7723 0.109289 -0.0139766 -19.3892 -0.0252753 -19.387)
(-19.7529 0.00503422 0.00501138 -19.4097 -0.0226193 -19.4)
(-15.2404 3.37226 -0.126923 -16.0191 -0.00448987 -18.9337)
(-18.9564 3.95902 -0.132156 -21.4991 -0.0171238 -18.8898)
(-18.8317 3.04932 -0.107459 -19.9416 -0.0236962 -18.8496)
(-18.9655 1.95666 -0.0800008 -19.4594 -0.0284618 -18.819)
(-18.9849 1.06953 -0.0540898 -19.0332 -0.0323624 -18.8014)
(-19.014 0.453988 -0.0307092 -18.7854 -0.0357314 -18.7962)
(-19.0371 0.11094 -0.0099949 -18.6468 -0.0380935 -18.8025)
(-19.102 -0.00182024 0.00821862 -18.6905 -0.0369369 -18.8237)
(-16.3286 2.09581 -0.135708 -22.4489 -0.0131447 -18.2694)
(-17.231 2.00925 -0.140032 -22.9377 -0.0269126 -18.2419)
(-17.5788 1.44463 -0.112351 -20.6867 -0.0349533 -18.2172)
(-17.9268 0.913988 -0.0817858 -19.2362 -0.0402994 -18.2077)
(-18.1519 0.473146 -0.0531295 -18.3455 -0.0444237 -18.2132)
(-18.308 0.179909 -0.0275655 -17.935 -0.0481323 -18.2304)
(-18.3925 0.0314571 -0.00523026 -17.804 -0.0515341 -18.2557)
(-18.5051 -0.0101553 0.0139234 -17.9938 -0.052839 -18.2871)
(-17.1477 -0.0113895 0.063811 -29.9291 1.35235 -19.7822)
(-17.2109 0.00445799 0.0593765 -23.95 0.865141 -18.7143)
(-17.3503 0.0132672 0.0402715 -20.4932 0.413363 -18.0862)
(-17.5195 0.0206034 0.0210589 -18.4236 0.139141 -17.8061)
(-17.6946 0.027394 0.00393295 -17.381 -0.0299963 -17.7035)
(-17.8623 0.0347023 -0.0105755 -17.0782 -0.12767 -17.736)
(-18.0124 0.0446023 -0.0220732 -17.1812 -0.161078 -17.8232)
(-18.1252 0.0594861 -0.029603 -17.5936 -0.0907734 -17.9718)
(-16.9008 -0.0185353 0.0362179 -33.0244 1.44063 -20.543)
(-16.9895 0.00362596 0.033171 -23.429 1.50313 -17.973)
(-17.1588 0.00954269 0.0202255 -19.8786 0.841808 -17.6989)
(-17.3643 0.015121 0.00767832 -17.7769 0.360706 -17.471)
(-17.5771 0.0210866 -0.00318753 -16.8945 0.0487012 -17.4372)
(-17.7801 0.0287681 -0.0121981 -16.7647 -0.133105 -17.526)
(-17.9592 0.0404277 -0.0192768 -17.0406 -0.196229 -17.6817)
(-18.0888 0.0587457 -0.0244674 -17.5388 -0.124358 -17.8891)
(-16.7579 -0.0222904 0.02248 -33.8934 1.22439 -20.7328)
(-16.8565 0.00205883 0.0198722 -23.5677 1.29132 -17.6671)
(-17.0398 0.00724128 0.0111521 -19.887 0.834854 -17.2625)
(-17.264 0.0126291 0.00249564 -17.5832 0.415123 -17.0021)
(-17.4971 0.0185744 -0.00499618 -16.6825 0.110861 -17.0204)
(-17.7196 0.0267077 -0.0111863 -16.589 -0.0768148 -17.1931)
(-17.9151 0.0394036 -0.0161269 -16.9154 -0.15469 -17.4462)
(-18.0551 0.0593156 -0.0201746 -17.457 -0.105717 -17.7641)
(-16.6626 -0.024391 0.0150058 -34.2855 0.971874 -20.8137)
(-16.7666 0.000892824 0.0127983 -23.6735 0.986345 -17.4605)
(-16.9584 0.00572557 0.00668666 -19.9871 0.693539 -16.8899)
(-17.1941 0.011217 0.000516426 -17.5474 0.388221 -16.566)
(-17.4398 0.017357 -0.00490825 -16.5947 0.139342 -16.618)
(-17.6748 0.0258944 -0.00942848 -16.4931 -0.0248811 -16.859)
(-17.881 0.039279 -0.0131091 -16.8309 -0.102167 -17.1938)
(-18.0282 0.0601679 -0.0163107 -17.3826 -0.0775304 -17.595)
(-16.5984 -0.0257266 0.010053 -34.5173 0.726661 -20.8449)
(-16.7058 0.000118172 0.00829818 -23.7402 0.715989 -17.2992)
(-16.9031 0.00477067 0.00402657 -20.0681 0.52751 -16.6095)
(-17.146 0.0103819 -0.000318727 -17.5652 0.3192 -16.2289)
(-17.3998 0.0167494 -0.00419086 -16.5664 0.136915 -16.2898)
(-17.6428 0.0256188 -0.00745849 -16.4449 0.0084825 -16.5765)
(-17.8559 0.0394881 -0.0101634 -16.7785 -0.0580439 -16.9695)
(-18.008 0.0610451 -0.0125885 -17.3286 -0.050771 -17.4258)
(-16.556 -0.0266083 0.00645286 -34.669 0.500397 -20.8568)
(-16.6655 -0.000377322 0.0051868 -23.7841 0.484348 -17.1792)
(-16.8663 0.0041895 0.00235209 -20.123 0.366879 -16.4102)
(-17.1138 0.00990094 -0.000544909 -17.5898 0.233421 -15.9876)
(-17.3728 0.0164523 -0.0031524 -16.5619 0.111816 -16.0486)
(-17.6209 0.0255713 -0.00537705 -16.4222 0.0219776 -16.3624)
(-17.8385 0.0397797 -0.00723901 -16.7473 -0.0280888 -16.7929)
(-17.9937 0.0617985 -0.00892932 -17.2922 -0.0301031 -17.2809)
(-16.53 -0.0271648 0.00360342 -34.7646 0.292174 -20.8616)
(-16.6409 -0.000673766 0.00281991 -23.8116 0.280176 -17.1003)
(-16.8439 0.00386103 0.00120697 -20.1568 0.215689 -16.2831)
(-17.0941 0.00964161 -0.000451341 -17.6084 0.14146 -15.8334)
(-17.3561 0.0163161 -0.0019565 -16.5643 0.0723157 -15.8921)
(-17.6072 0.0256012 -0.0032502 -16.4122 0.0196939 -16.2206)
(-17.8275 0.0400309 -0.00433483 -16.7298 -0.0111426 -16.6724)
(-17.9846 0.0623384 -0.00530875 -17.2703 -0.0154462 -17.1768)
(-16.5179 -0.0274712 0.00115427 -34.8115 0.0960012 -20.8636)
(-16.6297 -0.000822113 0.00087982 -23.8253 0.0917016 -17.0616)
(-16.8334 0.00372794 0.000360768 -20.1731 0.0711331 -16.2215)
(-17.0849 0.00953669 -0.000176775 -17.6182 0.0473309 -15.7585)
(-17.3482 0.0162693 -0.0006679 -16.5667 0.0249392 -15.8154)
(-17.6007 0.0256406 -0.00109156 -16.4084 0.00765075 -16.1502)
(-17.8222 0.0401971 -0.00144473 -16.722 -0.00274891 -16.6115)
(-17.9798 0.0626199 -0.00175295 -17.2599 -0.00473175 -17.1223)
(-20.377 -0.00643893 0.0304273 -20.0808 -0.0375563 -19.8688)
(-20.3839 -0.00223204 0.071309 -20.0596 -0.0343587 -19.8062)
(-20.4348 0.000399058 0.0789941 -20.0421 -0.0295975 -19.864)
(-20.4659 0.00215156 0.0769681 -20.0282 -0.0244324 -19.9027)
(-20.4857 0.00328879 0.0662404 -20.0175 -0.0190938 -19.9155)
(-20.4946 0.0039929 0.050675 -20.0099 -0.0136676 -19.9022)
(-20.4976 0.00439136 0.0316953 -20.0049 -0.00823314 -19.8802)
(-20.4986 0.00455453 0.010779 -20.0029 -0.00276133 -19.8652)
(-19.7535 -0.00621168 0.0365572 -19.4112 -0.0293072 -19.3564)
(-19.747 -0.00306143 0.0978682 -19.3704 -0.0286458 -19.2961)
(-19.7765 -0.00168499 0.128244 -19.3396 -0.0251443 -19.3025)
(-19.7972 -0.00101901 0.130108 -19.3154 -0.0208525 -19.2909)
(-19.8066 -0.000728961 0.113609 -19.297 -0.0163136 -19.2561)
(-19.8081 -0.000633732 0.0867483 -19.2836 -0.0116723 -19.2067)
(-19.8065 -0.000620998 0.0540528 -19.2749 -0.00701503 -19.1609)
(-19.805 -0.000620229 0.0183348 -19.2708 -0.00234517 -19.1341)
(-19.1486 -0.0103437 0.0422154 -18.7714 -0.02314 -18.8322)
(-19.1111 -0.00901182 0.0953318 -18.716 -0.025024 -18.7584)
(-19.1293 -0.00887061 0.126157 -18.6768 -0.0225313 -18.7496)
(-19.1441 -0.00910149 0.127948 -18.6462 -0.0187708 -18.7093)
(-19.151 -0.0094633 0.110629 -18.6229 -0.0146838 -18.6427)
(-19.1515 -0.00982715 0.0833307 -18.6061 -0.0104939 -18.5671)
(-19.1496 -0.0101176 0.0513605 -18.5951 -0.00630595 -18.5036)
(-19.1482 -0.0103099 0.0173236 -18.5899 -0.00211054 -18.4681)
(-18.609 -0.0242345 0.00870884 -18.1903 -0.0210709 -18.3701)
(-18.5627 -0.0261521 0.0376586 -18.1302 -0.0236866 -18.2942)
(-18.5767 -0.0274873 0.0565033 -18.0882 -0.0213483 -18.2681)
(-18.5893 -0.0286675 0.0574366 -18.0553 -0.0176827 -18.1932)
(-18.5966 -0.029693 0.0490802 -18.0301 -0.0137601 -18.0918)
(-18.5983 -0.03052 0.0363548 -18.0118 -0.00980268 -17.9888)
(-18.5975 -0.0310979 0.022158 -18 -0.00591365 -17.9075)
(-18.597 -0.0313855 0.00744314 -17.9949 -0.00199802 -17.8636)
)
;
    }
    symmetry
    {
        type            symmetryPlane;
    }
    bottom
    {
        type            calculated;
        value           nonuniform List<symmTensor> 
32
(
(-0.946067 8.8633 0.0427896 -1.48491 8.61492 -0.9485)
(-3.79892 8.53342 0.0235466 -5.75658 4.91414 -3.82625)
(-3.91396 8.59297 0.0148381 -5.92981 3.07499 -3.95011)
(-3.81336 8.705 0.00989439 -5.7807 2.02422 -3.8536)
(-3.71914 8.802 0.00668752 -5.64096 1.35316 -3.76162)
(-3.64832 8.87395 0.0043554 -5.5359 0.874176 -3.6921)
(-3.60196 8.92097 0.00247199 -5.46714 0.493555 -3.64651)
(-3.57904 8.94407 0.000802822 -5.43313 0.159879 -3.62393)
(-8.59724 4.82657 0.0154083 -12.8999 5.66639 -8.59228)
(-11.3713 4.98773 0.00973906 -17.0507 3.45906 -11.3785)
(-11.6742 5.07318 0.00661672 -17.5044 2.31001 -11.6857)
(-11.737 5.14758 0.00464718 -17.5989 1.59889 -11.7505)
(-11.7556 5.20956 0.00325211 -17.6273 1.10558 -11.7703)
(-11.7619 5.25715 0.00216452 -17.6371 0.729183 -11.7772)
(-11.7639 5.28924 0.00124366 -17.6404 0.416421 -11.7796)
(-11.7645 5.30532 0.000406105 -17.6415 0.135566 -11.7804)
(-11.3785 2.68012 0.00538735 -17.0466 3.56095 -11.3754)
(-14.0222 3.19817 0.00414643 -21.0006 2.29251 -14.025)
(-14.4211 3.38146 0.00317634 -21.5977 1.6605 -14.426)
(-14.5381 3.47579 0.00241751 -21.7731 1.2294 -14.5441)
(-14.5898 3.5403 0.00178406 -21.8506 0.890704 -14.5965)
(-14.6174 3.58694 0.00122748 -21.8922 0.604849 -14.6245)
(-14.6327 3.61787 0.00071873 -21.9152 0.351127 -14.6401)
(-14.6397 3.63329 0.000236692 -21.9258 0.115141 -14.6472)
(-16.3799 1.39227 0.000992025 -24.5151 1.25782 -16.3801)
(-18.92 2.43573 0.00157347 -28.3099 1.13833 -18.9226)
(-19.4734 2.82529 0.0016886 -29.1374 1.05278 -19.4773)
(-19.7005 2.99817 0.00151865 -29.477 0.892081 -19.7052)
(-19.825 3.09785 0.00122181 -29.6632 0.694559 -19.8302)
(-19.9025 3.16265 0.000879676 -29.7792 0.489792 -19.9081)
(-19.95 3.2033 0.000527067 -29.8502 0.28973 -19.9558)
(-19.9729 3.22305 0.00017525 -29.8845 0.0957438 -19.9788)
)
;
    }
}


// ************************************************************************* //
