/*--------------------------------*- C++ -*----------------------------------*\
| =========                 |                                                 |
| \\      /  F ield         | foam-extend: Open Source CFD                    |
|  \\    /   O peration     | Version:     3.1                                |
|   \\  /    A nd           | Web:         http://www.extend-project.de       |
|    \\/     M anipulation  |                                                 |
\*---------------------------------------------------------------------------*/
FoamFile
{
    version     2.0;
    format      ascii;
    class       volScalarField;
    location    "0.1";
    object      sigmaCauchyEq;
}
// * * * * * * * * * * * * * * * * * * * * * * * * * * * * * * * * * * * * * //

dimensions      [1 -1 -2 0 0 0 0];

internalField   nonuniform List<scalar> 
256
(
14.9039
10.3448
7.96793
8.91631
4.06382
7.08508
7.17073
6.09181
3.64875
5.14899
5.11871
3.45039
2.00961
3.2956
3.23771
1.72462
1.1655
1.88641
1.78333
0.791214
0.682268
0.939424
0.847405
0.59532
0.502048
0.487271
0.463157
0.609727
0.456574
0.389936
0.386092
0.457417
13.1698
10.3095
9.20715
11.0923
5.30641
7.69581
7.50638
6.38555
3.77408
5.10288
4.97146
3.34696
2.20286
3.25797
3.08898
1.56839
1.26753
1.88141
1.73507
0.832069
0.791724
1.0095
0.915209
0.744171
0.612541
0.595376
0.563258
0.690098
0.54416
0.477216
0.448593
0.489848
12.5556
10.1767
9.47599
11.7141
5.47018
7.9309
7.73354
6.58651
3.94448
5.30369
5.14442
3.53321
2.39495
3.37327
3.16935
1.64986
1.40184
1.96893
1.79196
0.905192
0.876362
1.09193
0.977238
0.796571
0.667852
0.678639
0.627697
0.72015
0.568947
0.540626
0.507873
0.528238
12.3593
10.15
9.5876
11.9702
5.50619
8.07661
7.90123
6.70792
4.03854
5.46996
5.30783
3.70307
2.55259
3.51148
3.29654
1.79206
1.54574
2.08031
1.88936
1.02636
0.977533
1.18399
1.05868
0.871113
0.721261
0.75148
0.691766
0.762335
0.58785
0.587221
0.5572
0.574175
12.3189
10.1726
9.66162
12.1158
5.52746
8.17993
8.03102
6.80127
4.0911
5.58784
5.4404
3.84492
2.66405
3.62492
3.41512
1.94164
1.67047
2.18347
1.99306
1.16967
1.07836
1.27439
1.1508
0.972696
0.777634
0.820221
0.763531
0.829524
0.60883
0.624923
0.603113
0.632428
12.3293
10.2077
9.71749
12.212
5.54129
8.25322
8.12663
6.87429
4.11981
5.66715
5.53891
3.95512
2.73566
3.70584
3.50869
2.0685
1.76168
2.26371
2.08166
1.2977
1.16055
1.34987
1.23465
1.07251
0.828773
0.880086
0.832454
0.903285
0.632435
0.658971
0.64811
0.695069
12.3494
10.2377
9.75631
12.2739
5.54969
8.30077
8.18972
6.92485
4.13451
5.71616
5.60366
4.0299
2.77719
3.75693
3.572
2.15753
1.81899
2.317
2.14421
1.38951
1.21581
1.40262
1.29629
1.148
0.866244
0.924192
0.885703
0.962997
0.653005
0.686716
0.685794
0.74729
12.3625
10.2542
9.77631
12.3046
5.55366
8.32426
8.22109
6.95067
4.14063
5.73963
5.6357
4.06754
2.79604
3.78155
3.60373
2.20289
1.8462
2.34332
2.17622
1.4367
1.24304
1.42944
1.32851
1.18787
0.885727
0.947477
0.914424
0.995714
0.664984
0.702577
0.707389
0.776641
)
;

boundaryField
{
    interface
    {
        type            calculated;
        value           nonuniform List<scalar> 
192
(
21.5105
1.81908
3.27168
1.26004
0.804826
0.636014
0.545758
0.493803
18.3541
3.83827
3.43072
1.67282
0.979579
0.747752
0.66064
0.598748
17.7838
3.90909
3.55514
1.87895
1.07459
0.755351
0.653713
0.572438
17.73
3.88604
3.60643
2.06214
1.23447
0.835641
0.674576
0.561962
17.7948
3.86516
3.62577
2.18445
1.38012
0.935657
0.713627
0.563987
17.8759
3.84868
3.63287
2.26189
1.48729
1.02263
0.756589
0.577529
17.9394
3.83619
3.63352
2.30563
1.55367
1.08134
0.789462
0.592348
17.9732
3.82933
3.63254
2.32501
1.58476
1.11004
0.806635
0.601612
18.1083
3.96671
3.66424
1.9692
1.1431
0.64578
0.43651
0.380348
10.3957
6.96811
5.31616
3.4054
1.93859
0.921458
0.431227
0.350576
6.74803
7.32899
5.3985
3.44164
1.86774
0.821519
0.396744
0.369585
6.5253
6.32387
3.79275
1.98914
0.845787
0.471746
0.543722
0.454656
11.9219
6.30875
2.93672
0.837242
0.325873
0.764598
0.809107
0.512408
14.8573
6.54853
2.88923
0.727174
0.631238
0.945392
0.887452
0.539467
15.6785
6.72766
3.10061
0.878385
0.735129
0.990173
0.90985
0.560075
16.0461
6.80537
3.29063
1.0926
0.868549
1.04983
0.94328
0.595375
16.2669
6.87011
3.44489
1.30665
1.0289
1.13884
1.00329
0.651476
16.4144
6.92713
3.56414
1.48145
1.17282
1.23104
1.07255
0.717385
16.5086
6.96935
3.64521
1.60082
1.27575
1.30266
1.12984
0.773455
16.5551
6.99151
3.68605
1.66069
1.32855
1.34102
1.16155
0.804992
0.450135
0.519999
0.526531
0.530903
0.540053
0.554117
0.56836
0.577316
0.381636
0.454425
0.509559
0.544597
0.567272
0.586783
0.604175
0.614942
0.360987
0.41291
0.476044
0.5205
0.553558
0.584549
0.612302
0.629117
0.368359
0.388617
0.44309
0.493798
0.547894
0.604168
0.65217
0.67963
)
;
    }
    symmetry
    {
        type            symmetryPlane;
    }
    bottom
    {
        type            calculated;
        value           nonuniform List<scalar> 
32
(
21.4154
17.1664
15.9335
15.6018
15.5413
15.5568
15.5846
15.602
13.5921
11.9475
11.2758
11.0202
10.9305
10.9058
10.9037
10.9059
9.57785
9.7535
9.69754
9.64772
9.62562
9.62114
9.62383
9.62675
8.76029
10.4801
10.983
11.1753
11.2684
11.3234
11.3575
11.3742
)
;
    }
}


// ************************************************************************* //
