/*--------------------------------*- C++ -*----------------------------------*\
| =========                 |                                                 |
| \\      /  F ield         | foam-extend: Open Source CFD                    |
|  \\    /   O peration     | Version:     3.1                                |
|   \\  /    A nd           | Web:         http://www.extend-project.de       |
|    \\/     M anipulation  |                                                 |
\*---------------------------------------------------------------------------*/
FoamFile
{
    version     2.0;
    format      ascii;
    class       volVectorField;
    location    "0.1";
    object      U;
}
// * * * * * * * * * * * * * * * * * * * * * * * * * * * * * * * * * * * * * //

dimensions      [0 1 -1 0 0 0 0];

internalField   nonuniform List<vector> 
256
(
(0.000310345 -9.41222e-06 0.000301648)
(0.000169543 -7.55915e-05 0.000199043)
(9.42544e-05 -9.96556e-05 0.000125232)
(4.90665e-05 -0.000143269 4.43284e-05)
(0.000758243 0.000111323 0.000415483)
(0.000603542 -8.76717e-05 0.000385668)
(0.000502448 -0.000213166 0.000319158)
(0.000452556 -0.000375206 0.000262815)
(0.00116936 0.000104139 0.000503481)
(0.00101991 -0.000133491 0.000471966)
(0.000910104 -0.000325183 0.000433446)
(0.000843719 -0.000549991 0.000400797)
(0.00153959 6.31353e-05 0.000553833)
(0.00140665 -0.000195403 0.000532805)
(0.0012982 -0.000425459 0.000510457)
(0.00121777 -0.000679371 0.000493078)
(0.00187051 -1.16273e-05 0.00059033)
(0.00174903 -0.000273136 0.000574969)
(0.0016427 -0.000519341 0.000561377)
(0.00155284 -0.000780167 0.000550878)
(0.00216352 -0.000102449 0.000620262)
(0.00204973 -0.000359233 0.000607062)
(0.00194475 -0.000608914 0.000595945)
(0.00184885 -0.000865769 0.000586304)
(0.0024264 -0.000200398 0.000648022)
(0.00231728 -0.000449787 0.000633912)
(0.00221314 -0.000696477 0.000621749)
(0.00211384 -0.000945717 0.000609973)
(0.0026713 -0.000299915 0.00067523)
(0.00256438 -0.000542729 0.000659665)
(0.00246063 -0.000784204 0.000646067)
(0.00236007 -0.00102659 0.000631654)
(0.000299152 -3.40705e-05 0.000172273)
(0.000175409 -9.9764e-05 0.000121648)
(0.000112599 -0.000122761 8.07129e-05)
(8.59328e-05 -0.000165506 4.01604e-05)
(0.000804615 5.01324e-05 0.000303739)
(0.000627655 -0.000148601 0.000278647)
(0.00051711 -0.00027224 0.000237691)
(0.000464665 -0.000433606 0.000203376)
(0.00120485 5.36964e-05 0.000398324)
(0.001049 -0.000187415 0.000373711)
(0.000932529 -0.000381378 0.000345424)
(0.000858879 -0.000608019 0.000320741)
(0.00157058 1.79983e-05 0.000458268)
(0.00143158 -0.000242785 0.000437921)
(0.00131752 -0.000474682 0.000418895)
(0.00123067 -0.000730484 0.000403055)
(0.00189602 -5.03737e-05 0.000499163)
(0.00177052 -0.00031344 0.000482503)
(0.00165981 -0.000561122 0.000468725)
(0.0015649 -0.000823634 0.000456828)
(0.0021856 -0.000137079 0.000530485)
(0.00206887 -0.000394711 0.000515401)
(0.00196085 -0.000645345 0.00050324)
(0.00186161 -0.000903587 0.000491814)
(0.00244666 -0.00023268 0.000557502)
(0.00233551 -0.000482651 0.000542331)
(0.0022296 -0.000730131 0.000529667)
(0.00212873 -0.000980636 0.000516905)
(0.00269111 -0.00033142 0.0005835)
(0.00258286 -0.000574702 0.000568028)
(0.00247819 -0.00081708 0.000554801)
(0.00237712 -0.00106074 0.000540655)
(0.000301254 -3.50147e-05 0.000107804)
(0.000178436 -0.000102389 8.1249e-05)
(0.000119072 -0.000126248 5.84715e-05)
(9.96996e-05 -0.000170361 3.71508e-05)
(0.000829833 2.49698e-05 0.000221028)
(0.000643426 -0.000173764 0.000202389)
(0.000528881 -0.000295124 0.000177405)
(0.000478484 -0.000455345 0.00015661)
(0.0012371 2.04152e-05 0.000307632)
(0.00107206 -0.000220979 0.000288392)
(0.000949089 -0.000413855 0.000268284)
(0.000871877 -0.000639232 0.000250316)
(0.0016018 -1.76921e-05 0.000367997)
(0.00145612 -0.00027827 0.000349826)
(0.0013362 -0.000509749 0.000334083)
(0.00124457 -0.000765232 0.000320229)
(0.00192461 -8.48543e-05 0.000410324)
(0.00179428 -0.000348014 0.000393779)
(0.00167887 -0.00059598 0.000380607)
(0.00157952 -0.000859031 0.000368517)
(0.00221134 -0.000169727 0.000442042)
(0.00209128 -0.000427794 0.000426362)
(0.00197987 -0.000679265 0.000413953)
(0.00187723 -0.000938743 0.000401817)
(0.0024702 -0.00026376 0.000468336)
(0.0023569 -0.00051461 0.00045278)
(0.00224885 -0.00076337 0.000440067)
(0.00214587 -0.00101556 0.00042696)
(0.00271361 -0.000361441 0.000492879)
(0.00260412 -0.000605994 0.000477549)
(0.00249827 -0.000849961 0.00046476)
(0.00239619 -0.00109558 0.000450947)
(0.000305169 -3.41273e-05 7.09626e-05)
(0.000181058 -0.000102931 5.62385e-05)
(0.0001224 -0.000127271 4.32932e-05)
(0.000105811 -0.000172354 3.1483e-05)
(0.000846153 1.43983e-05 0.000160527)
(0.000654919 -0.00018555 0.000147359)
(0.000538449 -0.000305739 0.000131737)
(0.00048952 -0.000465394 0.000118711)
(0.00126081 5.07134e-07 0.00023269)
(0.00109012 -0.000241285 0.000218101)
(0.000963134 -0.000433189 0.000203824)
(0.00088418 -0.000657653 0.000190807)
(0.00162777 -4.30223e-05 0.000286492)
(0.00147726 -0.00030334 0.000271532)
(0.00135313 -0.000534314 0.000258868)
(0.00125839 -0.000789579 0.000247192)
(0.00195038 -0.000112302 0.000325967)
(0.00181629 -0.000375239 0.000311238)
(0.00169721 -0.000623296 0.000299501)
(0.00159458 -0.000886817 0.000288267)
(0.0022358 -0.000197571 0.000355834)
(0.00211307 -0.000455741 0.000341276)
(0.00199884 -0.000707905 0.000329659)
(0.00189343 -0.000968478 0.000318012)
(0.00249332 -0.000291224 0.000380231)
(0.00237828 -0.000542659 0.000365657)
(0.00226832 -0.000792641 0.000353738)
(0.00216337 -0.00104641 0.000341287)
(0.00273617 -0.000388222 0.000402311)
(0.00262567 -0.000633826 0.000388055)
(0.00251863 -0.000879437 0.000376235)
(0.00241531 -0.00112703 0.000363395)
(0.000308558 -3.33086e-05 4.74356e-05)
(0.00018324 -0.000103094 3.88874e-05)
(0.000124674 -0.000127724 3.13667e-05)
(0.000109334 -0.000173446 2.45134e-05)
(0.000857722 9.6067e-06 0.00011422)
(0.000663607 -0.000191689 0.00010517)
(0.000546021 -0.0003115 9.5241e-05)
(0.000497855 -0.000471309 8.6868e-05)
(0.00127806 -1.09852e-05 0.000170135)
(0.00110406 -0.000253655 0.000159435)
(0.000974744 -0.00044522 0.000149409)
(0.000894823 -0.000669522 0.000140084)
(0.00164799 -5.98201e-05 0.000213744)
(0.00149435 -0.000320458 0.000202156)
(0.00136752 -0.000551305 0.000192407)
(0.00127078 -0.000806693 0.000183108)
(0.00197154 -0.00013236 0.00024698)
(0.00183485 -0.000395406 0.000234972)
(0.00171325 -0.000643681 0.000225293)
(0.00160831 -0.000907733 0.000215761)
(0.00225679 -0.000219213 0.000272615)
(0.00213208 -0.000477599 0.000260355)
(0.00201578 -0.000730391 0.000250437)
(0.00190826 -0.000991909 0.000240331)
(0.00251383 -0.000313322 0.00029351)
(0.00239743 -0.000565295 0.000281068)
(0.00228593 -0.000816322 0.000270823)
(0.0021793 -0.00107142 0.000260043)
(0.00275661 -0.000410108 0.000311955)
(0.00264525 -0.000656644 0.000299752)
(0.00253714 -0.000903679 0.000289628)
(0.00243258 -0.00115295 0.00027861)
(0.00031107 -3.26963e-05 3.06437e-05)
(0.000184914 -0.00010315 2.56482e-05)
(0.000126318 -0.000127966 2.13004e-05)
(0.000111625 -0.000174126 1.72871e-05)
(0.000865856 7.40571e-06 7.6623e-05)
(0.000669973 -0.00019506 7.07184e-05)
(0.000551705 -0.000314889 6.45432e-05)
(0.000503922 -0.000475142 5.92562e-05)
(0.00129029 -1.75347e-05 0.000116163)
(0.00111433 -0.000261162 0.000108825)
(0.00098367 -0.0004528 0.000102125)
(0.000903157 -0.000677367 9.57836e-05)
(0.00166279 -7.04493e-05 0.000147928)
(0.00150725 -0.000331683 0.000139687)
(0.00137876 -0.000562697 0.000132754)
(0.00128076 -0.000818432 0.000125988)
(0.00198758 -0.000145999 0.000172806)
(0.00184921 -0.000409408 0.000163986)
(0.00172596 -0.000658017 0.000156792)
(0.00161949 -0.000922609 0.00014958)
(0.0022732 -0.000234648 0.000192334)
(0.00214714 -0.000493381 0.000183124)
(0.00202939 -0.000746742 0.000175583)
(0.00192037 -0.00100903 0.000167825)
(0.00253027 -0.000329535 0.000208287)
(0.00241285 -0.000582032 0.00019883)
(0.0023002 -0.000833903 0.00019099)
(0.00219228 -0.00109002 0.00018271)
(0.00277329 -0.000426418 0.000222109)
(0.00266121 -0.000673753 0.000212789)
(0.00255219 -0.000921913 0.000205042)
(0.00244654 -0.00117245 0.000196612)
(0.000312713 -3.22964e-05 1.73009e-05)
(0.000186043 -0.000103169 1.46471e-05)
(0.000127408 -0.000128101 1.23654e-05)
(0.000113062 -0.000174543 1.02261e-05)
(0.000871088 6.43155e-06 4.41779e-05)
(0.000674175 -0.000196876 4.08314e-05)
(0.000555511 -0.000316844 3.74255e-05)
(0.000507918 -0.000477528 3.44708e-05)
(0.00129819 -2.108e-05 6.76827e-05)
(0.00112114 -0.00026547 6.33874e-05)
(0.000989717 -0.000457313 5.95198e-05)
(0.000908848 -0.000682234 5.58124e-05)
(0.00167251 -7.66549e-05 8.69108e-05)
(0.00151589 -0.00033845 8.1978e-05)
(0.00138645 -0.000569713 7.78215e-05)
(0.00128769 -0.000825814 7.37098e-05)
(0.00199832 -0.000154362 0.000102232)
(0.00185897 -0.000418165 9.68507e-05)
(0.00173474 -0.000667098 9.24254e-05)
(0.00162732 -0.000932131 8.79435e-05)
(0.0022844 -0.000244428 0.000114407)
(0.00215751 -0.00050351 0.00010871)
(0.00203886 -0.000757315 0.000104008)
(0.00192886 -0.00102016 9.91448e-05)
(0.00254169 -0.000340021 0.000124378)
(0.00242361 -0.000592951 0.000118482)
(0.00231017 -0.000845425 0.00011357)
(0.00220137 -0.00110224 0.000108376)
(0.00278503 -0.0004371 0.000132912)
(0.00267241 -0.000685037 0.000127079)
(0.00256274 -0.00093398 0.000122222)
(0.00245628 -0.00118536 0.000116942)
(0.00031352 -3.20988e-05 5.6043e-06)
(0.000186609 -0.000103175 4.76837e-06)
(0.000127952 -0.000128163 4.05486e-06)
(0.00011376 -0.000174744 3.37935e-06)
(0.000873652 6.06758e-06 1.44443e-05)
(0.000676264 -0.000197677 1.33586e-05)
(0.000557417 -0.000317749 1.22669e-05)
(0.000509902 -0.000478684 1.13129e-05)
(0.00130207 -2.26352e-05 2.22379e-05)
(0.00112452 -0.000267439 2.08225e-05)
(0.000992766 -0.000459431 1.95554e-05)
(0.000911726 -0.000684578 1.83331e-05)
(0.00167734 -7.95082e-05 2.86687e-05)
(0.00152022 -0.000341629 2.70259e-05)
(0.00139035 -0.00057306 2.564e-05)
(0.00129123 -0.000829384 2.42604e-05)
(0.00200371 -0.000158319 3.38358e-05)
(0.0018639 -0.000422364 3.20276e-05)
(0.00173921 -0.000671494 3.05345e-05)
(0.00163133 -0.000936773 2.90154e-05)
(0.00229008 -0.000249145 3.79669e-05)
(0.00216279 -0.000508439 3.60402e-05)
(0.0020437 -0.000762489 3.44437e-05)
(0.00193323 -0.00102563 3.27889e-05)
(0.00254754 -0.000345141 4.13556e-05)
(0.00242912 -0.000598316 3.93537e-05)
(0.00231529 -0.000851108 3.76822e-05)
(0.00220603 -0.00110828 3.59135e-05)
(0.00279108 -0.000442361 4.42377e-05)
(0.00267818 -0.000690622 4.22534e-05)
(0.00256815 -0.000939968 4.05998e-05)
(0.00246128 -0.00119178 3.8803e-05)
)
;

boundaryField
{
    interface
    {
        type            calculated;
        value           nonuniform List<vector> 
192
(
(0.00053286 0.000327572 0.000304617)
(0.000820133 0.000294727 0.000427182)
(0.00125141 0.000299463 0.000516418)
(0.0016047 0.000233365 0.00056314)
(0.0019305 0.000142477 0.000597979)
(0.00221961 3.57702e-05 0.000626923)
(0.00248155 -7.31098e-05 0.00065472)
(0.00272673 -0.000177334 0.000682356)
(0.000506906 0.000313406 0.000175424)
(0.000887478 0.000243609 0.000316834)
(0.00128816 0.000244764 0.000415428)
(0.00164008 0.000186749 0.000472891)
(0.00195849 0.000101968 0.000511949)
(0.00224382 4.22381e-07 0.000541568)
(0.00250341 -0.000105489 0.000567544)
(0.00274766 -0.000208464 0.000593168)
(0.000512372 0.00032101 0.000110567)
(0.000916067 0.000227315 0.000230144)
(0.00132295 0.000210867 0.000320499)
(0.00167337 0.000150198 0.000381507)
(0.00198832 6.60267e-05 0.000423071)
(0.00227041 -3.33101e-05 0.000453712)
(0.00252751 -0.000137217 0.000479099)
(0.00277027 -0.00023836 0.000503251)
(0.000520197 0.000328537 7.31251e-05)
(0.000934634 0.000221694 0.000167162)
(0.00134883 0.000193078 0.000242248)
(0.00170127 0.000125084 0.000297427)
(0.00201542 3.80211e-05 0.00033706)
(0.00229576 -6.18485e-05 0.000366525)
(0.00255119 -0.000165165 0.000390439)
(0.00279299 -0.000264999 0.000412341)
(0.000526453 0.000334257 4.90141e-05)
(0.000947654 0.000220172 0.00011896)
(0.00136749 0.000183715 0.000177047)
(0.00172273 0.000109125 0.000221996)
(0.00203757 1.80292e-05 0.000255761)
(0.00231745 -8.37284e-05 0.000281433)
(0.00257216 -0.00018745 0.000302206)
(0.00281359 -0.000286663 0.000320671)
(0.000530928 0.0003383 3.17214e-05)
(0.000956711 0.000220204 7.98359e-05)
(0.00138061 0.000178835 0.000120886)
(0.00173831 9.93947e-05 0.000153694)
(0.00205425 4.72859e-06 0.000179117)
(0.00233434 -9.91107e-05 0.00019885)
(0.00258894 -0.000203632 0.000214869)
(0.00283044 -0.000302709 0.000228816)
(0.000533793 0.000340884 1.79294e-05)
(0.000962482 0.000220652 4.60478e-05)
(0.00138904 0.000176415 7.04466e-05)
(0.00174848 9.38793e-05 9.03257e-05)
(0.00206537 -3.28836e-06 0.000106029)
(0.00234585 -0.000108742 0.000118393)
(0.00260059 -0.000214003 0.000128467)
(0.00284232 -0.000313158 0.000137124)
(0.000535187 0.000342145 5.81087e-06)
(0.000965291 0.000220985 1.50587e-05)
(0.00139316 0.000175425 2.31487e-05)
(0.0017535 9.13928e-05 2.98003e-05)
(0.00207093 -7.03974e-06 3.51031e-05)
(0.00235167 -0.000113351 3.93079e-05)
(0.00260656 -0.000219036 4.27413e-05)
(0.00284845 -0.000318283 4.56729e-05)
(0.000302312 0.000209605 0.000474161)
(0.000743365 0.000141172 0.000442692)
(0.0011604 0.000142645 0.000557862)
(0.00153193 8.3565e-05 0.000598603)
(0.00186499 5.60753e-06 0.000635673)
(0.00215825 -8.73864e-05 0.00066547)
(0.0024203 -0.000185821 0.000694291)
(0.00266402 -0.000285689 0.000722425)
(0.000151883 0.000108269 0.000309019)
(0.000575162 -3.91098e-05 0.000423921)
(0.00100506 -9.1584e-05 0.000518424)
(0.00139696 -0.000169018 0.000577065)
(0.00174312 -0.000253235 0.000620174)
(0.00204456 -0.000343325 0.000652851)
(0.00231119 -0.00043549 0.000680421)
(0.00255708 -0.000528357 0.000706332)
(7.60962e-05 3.92474e-05 0.000205846)
(0.000470978 -0.000143426 0.000352884)
(0.000892784 -0.000274382 0.000475141)
(0.00128919 -0.000391767 0.00055353)
(0.00163774 -0.000496282 0.000606281)
(0.0019404 -0.000592306 0.000641885)
(0.00220757 -0.000682677 0.00066835)
(0.00245366 -0.000769683 0.000692388)
(4.01132e-05 -4.07696e-05 7.87345e-05)
(0.000435383 -0.000290409 0.000289868)
(0.000834407 -0.000489625 0.000437123)
(0.00121278 -0.000639704 0.00053483)
(0.00154932 -0.000754776 0.000596047)
(0.00184449 -0.0008491 0.000632969)
(0.00210747 -0.000932774 0.000657188)
(0.00235189 -0.00101208 0.000677743)
(8.3752e-05 -0.000278065 3.89778e-05)
(0.000450881 -0.000555893 0.000252641)
(0.000819727 -0.000733289 0.000394309)
(0.00117985 -0.000850987 0.000488283)
(0.00150699 -0.000934291 0.000546403)
(0.00179955 -0.00100364 0.000580704)
(0.00206362 -0.00107197 0.000602511)
(0.00231126 -0.00114596 0.000622625)
(0.000143138 -0.000314439 3.48984e-05)
(0.000459434 -0.000607993 0.000194973)
(0.000832255 -0.000789932 0.000315461)
(0.00118976 -0.000901242 0.000397618)
(0.00151673 -0.00097819 0.000450993)
(0.0018107 -0.00104279 0.000484981)
(0.00207776 -0.00110851 0.000508697)
(0.00232807 -0.00118113 0.000531104)
(0.000164023 -0.000329404 3.43283e-05)
(0.000474088 -0.00062593 0.000150518)
(0.000844597 -0.000820997 0.000244457)
(0.00120159 -0.000936006 0.000314127)
(0.0015292 -0.00101415 0.000361807)
(0.00182453 -0.00107891 0.000394236)
(0.00209364 -0.00114463 0.000418297)
(0.00234653 -0.00121698 0.000441108)
(0.000173704 -0.000337225 2.97381e-05)
(0.000485745 -0.000636059 0.000114221)
(0.000856551 -0.000839547 0.000185459)
(0.00121391 -0.000960712 0.000241209)
(0.00154251 -0.00104252 0.00028161)
(0.00183912 -0.0011094 0.000310592)
(0.00210987 -0.00117641 0.000333004)
(0.00236476 -0.00124935 0.000354162)
(0.000179353 -0.00034208 2.33246e-05)
(0.000494367 -0.000643002 8.35382e-05)
(0.000866886 -0.000852028 0.000135672)
(0.0012253 -0.00097834 0.000177914)
(0.00155495 -0.00106399 0.000209914)
(0.00185269 -0.00113344 0.000233853)
(0.00212472 -0.00120212 0.0002529)
(0.00238116 -0.001276 0.000270746)
(0.000182997 -0.000345296 1.64799e-05)
(0.000500556 -0.000647897 5.69149e-05)
(0.000874955 -0.000860605 9.25187e-05)
(0.0012346 -0.000990612 0.000122032)
(0.00156523 -0.00107934 0.000145082)
(0.00186389 -0.00115103 0.000162851)
(0.00213687 -0.00122122 0.000177265)
(0.00239438 -0.00129604 0.000190666)
(0.000185264 -0.000347322 9.75022e-06)
(0.000504601 -0.000651078 3.3071e-05)
(0.00088046 -0.000866065 5.38129e-05)
(0.00124109 -0.00099842 7.1249e-05)
(0.00157249 -0.00108921 8.51286e-05)
(0.00187179 -0.00116247 9.60318e-05)
(0.0021454 -0.00123377 0.000104982)
(0.00240361 -0.00130931 0.000113254)
(0.000186359 -0.000348312 3.22165e-06)
(0.0005066 -0.000652651 1.08466e-05)
(0.00088324 -0.000868733 1.76605e-05)
(0.00124442 -0.00100222 2.34269e-05)
(0.00157623 -0.00109403 2.8059e-05)
(0.00187586 -0.0011681 3.1731e-05)
(0.00214979 -0.00123996 3.4762e-05)
(0.00240834 -0.0013159 3.75542e-05)
(0.00279244 -0.000349743 0.000688883)
(0.00281265 -0.000381261 0.000597524)
(0.00283561 -0.000410517 0.000505842)
(0.00285862 -0.000436772 0.000413505)
(0.00287949 -0.00045836 0.000320801)
(0.00289655 -0.000474595 0.000228401)
(0.00290858 -0.00048531 0.000136645)
(0.00291479 -0.000490618 4.54723e-05)
(0.002684 -0.000589858 0.000673804)
(0.00270298 -0.000621656 0.000582695)
(0.00272494 -0.000652382 0.000491251)
(0.00274724 -0.000679864 0.000399922)
(0.00276748 -0.000702578 0.000309189)
(0.00278397 -0.000719761 0.00021955)
(0.00279556 -0.000731175 0.000131115)
(0.00280152 -0.000736851 4.35931e-05)
(0.00258019 -0.000828979 0.000660692)
(0.00259832 -0.000861719 0.000570232)
(0.00261924 -0.000894061 0.000479403)
(0.00264051 -0.000923281 0.000388979)
(0.00265983 -0.000947533 0.000299797)
(0.00267552 -0.000965933 0.000212348)
(0.00268649 -0.000978191 0.000126597)
(0.00269213 -0.0009843 4.20543e-05)
(0.00247914 -0.0010691 0.000646709)
(0.00249678 -0.00110312 0.000556957)
(0.00251677 -0.00113749 0.0004666)
(0.00253681 -0.00116884 0.000377081)
(0.00255484 -0.00119492 0.000289543)
(0.00256939 -0.0012147 0.00020447)
(0.00257952 -0.00122788 0.000121649)
(0.00258471 -0.00123446 4.03686e-05)
)
;
    }
    symmetry
    {
        type            symmetryPlane;
    }
    bottom
    {
        type            calculated;
        value           uniform (0 0 0);
    }
}


// ************************************************************************* //
