/*--------------------------------*- C++ -*----------------------------------*\
| =========                 |                                                 |
| \\      /  F ield         | foam-extend: Open Source CFD                    |
|  \\    /   O peration     | Version:     3.1                                |
|   \\  /    A nd           | Web:         http://www.extend-project.de       |
|    \\/     M anipulation  |                                                 |
\*---------------------------------------------------------------------------*/
FoamFile
{
    version     2.0;
    format      ascii;
    class       volVectorField;
    location    "3.3";
    object      cellMotionU;
}
// * * * * * * * * * * * * * * * * * * * * * * * * * * * * * * * * * * * * * //

dimensions      [0 1 -1 0 0 0 0];

internalField   nonuniform List<vector> 
14592
(
(-3.19326e-11 -2.31314e-11 2.30391e-12)
(-9.24903e-11 -6.74497e-11 6.6883e-12)
(-1.47566e-10 -1.09032e-10 1.06938e-11)
(-1.98892e-10 -1.49702e-10 1.43743e-11)
(-2.47975e-10 -1.90942e-10 1.7634e-11)
(-2.96162e-10 -2.33947e-10 2.01452e-11)
(-3.44704e-10 -2.79682e-10 2.12115e-11)
(-3.94835e-10 -3.28961e-10 1.95125e-11)
(-4.47872e-10 -3.82548e-10 1.27036e-11)
(-5.05395e-10 -4.41416e-10 -3.29467e-12)
(-5.69507e-10 -5.07185e-10 -3.54044e-11)
(-6.43062e-10 -5.82993e-10 -9.49872e-11)
(-7.29338e-10 -6.74976e-10 -1.9966e-10)
(-8.29514e-10 -7.9445e-10 -3.73261e-10)
(-9.35174e-10 -9.57934e-10 -6.3479e-10)
(-1.01645e-09 -1.15299e-09 -9.30472e-10)
(-9.50142e-11 -6.83934e-11 6.92431e-12)
(-2.75205e-10 -1.99438e-10 2.01191e-11)
(-4.39067e-10 -3.22376e-10 3.22493e-11)
(-5.91729e-10 -4.42585e-10 4.35346e-11)
(-7.37654e-10 -5.64385e-10 5.37976e-11)
(-8.8084e-10 -6.91214e-10 6.22606e-11)
(-1.02503e-09 -8.25795e-10 6.71892e-11)
(-1.17398e-09 -9.70278e-10 6.52932e-11)
(-1.33179e-09 -1.12653e-09 5.07541e-11)
(-1.50369e-09 -1.29667e-09 1.35206e-11)
(-1.69719e-09 -1.48425e-09 -6.31524e-11)
(-1.92438e-09 -1.69628e-09 -2.06236e-10)
(-2.20477e-09 -1.94681e-09 -4.55717e-10)
(-2.56744e-09 -2.26161e-09 -8.59963e-10)
(-3.0415e-09 -2.67538e-09 -1.4379e-09)
(-3.56644e-09 -3.14149e-09 -2.02098e-09)
(-1.56264e-10 -1.11061e-10 1.15962e-11)
(-4.52549e-10 -3.2382e-10 3.37615e-11)
(-7.2183e-10 -5.23336e-10 5.43358e-11)
(-9.72483e-10 -7.18256e-10 7.38865e-11)
(-1.21181e-09 -9.15458e-10 9.24452e-11)
(-1.44638e-09 -1.12029e-09 1.09299e-10)
(-1.6824e-09 -1.33677e-09 1.22584e-10)
(-1.9262e-09 -1.56764e-09 1.2877e-10)
(-2.18498e-09 -1.81468e-09 1.21558e-10)
(-2.46825e-09 -2.07914e-09 9.05148e-11)
(-2.79087e-09 -2.36288e-09 1.8801e-11)
(-3.17903e-09 -2.67054e-09 -1.19063e-10)
(-3.68193e-09 -3.01312e-09 -3.57142e-10)
(-4.39017e-09 -3.41172e-09 -7.2527e-10)
(-5.43889e-09 -3.89017e-09 -1.19449e-09)
(-6.76626e-09 -4.37368e-09 -1.5426e-09)
(-2.14556e-10 -1.4956e-10 1.63098e-11)
(-6.21266e-10 -4.36036e-10 4.75913e-11)
(-9.90576e-10 -7.04534e-10 7.69751e-11)
(-1.33387e-09 -9.66576e-10 1.05592e-10)
(-1.66108e-09 -1.2312e-09 1.34048e-10)
(-1.98116e-09 -1.50522e-09 1.62306e-10)
(-2.30269e-09 -1.7933e-09 1.89537e-10)
(-2.6345e-09 -2.09796e-09 2.13892e-10)
(-2.98691e-09 -2.41942e-09 2.32234e-10)
(-3.37393e-09 -2.75564e-09 2.3994e-10)
(-3.81787e-09 -3.10271e-09 2.31106e-10)
(-4.359e-09 -3.456e-09 1.99839e-10)
(-5.07453e-09 -3.81238e-09 1.45449e-10)
(-6.11022e-09 -4.17223e-09 8.86482e-11)
(-7.69013e-09 -4.53251e-09 1.12149e-10)
(-9.73881e-09 -4.82465e-09 3.62165e-10)
(-2.68893e-10 -1.82517e-10 2.09926e-11)
(-7.78432e-10 -5.32092e-10 6.13985e-11)
(-1.24057e-09 -8.59562e-10 9.9809e-11)
(-1.66933e-09 -1.17884e-09 1.38102e-10)
(-2.07695e-09 -1.50068e-09 1.77759e-10)
(-2.4745e-09 -1.83289e-09 2.19923e-10)
(-2.87258e-09 -2.18026e-09 2.65698e-10)
(-3.28229e-09 -2.54431e-09 3.16405e-10)
(-3.71666e-09 -2.9226e-09 3.74665e-10)
(-4.19353e-09 -3.30801e-09 4.46118e-10)
(-4.74132e-09 -3.68787e-09 5.43229e-10)
(-5.4106e-09 -4.04366e-09 6.92088e-10)
(-6.29626e-09 -4.35204e-09 9.43905e-10)
(-7.5723e-09 -4.58833e-09 1.39099e-09)
(-9.49553e-09 -4.73119e-09 2.16791e-09)
(-1.19554e-08 -4.75936e-09 3.24369e-09)
(-3.18396e-10 -2.08771e-10 2.55264e-11)
(-9.21513e-10 -6.08623e-10 7.48109e-11)
(-1.46771e-09 -9.83078e-10 1.22139e-10)
(-1.97317e-09 -1.3479e-09 1.70236e-10)
(-2.452e-09 -1.71511e-09 2.21581e-10)
(-2.91689e-09 -2.09312e-09 2.78778e-10)
(-3.38003e-09 -2.48654e-09 3.45094e-10)
(-3.85406e-09 -2.89549e-09 4.25633e-10)
(-4.3539e-09 -3.31455e-09 5.29276e-10)
(-4.89989e-09 -3.73094e-09 6.72759e-10)
(-5.52438e-09 -4.12236e-09 8.87915e-10)
(-6.28498e-09 -4.45481e-09 1.23458e-09)
(-7.28991e-09 -4.68233e-09 1.82092e-09)
(-8.73714e-09 -4.75447e-09 2.82542e-09)
(-1.09125e-08 -4.64542e-09 4.46429e-09)
(-1.36679e-08 -4.43024e-09 6.53386e-09)
(-3.6238e-10 -2.27408e-10 2.97567e-11)
(-1.04849e-09 -6.63e-10 8.73498e-11)
(-1.66873e-09 -1.07092e-09 1.43072e-10)
(-2.24087e-09 -1.46824e-09 2.00464e-10)
(-2.78033e-09 -1.86789e-09 2.6295e-10)
(-3.30083e-09 -2.27858e-09 3.34458e-10)
(-3.81536e-09 -2.70466e-09 4.20206e-10)
(-4.33717e-09 -3.14506e-09 5.28306e-10)
(-4.88154e-09 -3.59185e-09 6.72517e-10)
(-5.46896e-09 -4.02768e-09 8.77415e-10)
(-6.132e-09 -4.42233e-09 1.18776e-09)
(-6.92987e-09 -4.72828e-09 1.68546e-09)
(-7.98003e-09 -4.87659e-09 2.51827e-09)
(-9.51787e-09 -4.77947e-09 3.93899e-09)
(-1.19411e-08 -4.36798e-09 6.28554e-09)
(-1.52486e-08 -3.77961e-09 9.34311e-09)
(-4.00341e-10 -2.37766e-10 3.35354e-11)
(-1.15795e-09 -6.93335e-10 9.85304e-11)
(-1.84139e-09 -1.12013e-09 1.61711e-10)
(-2.46942e-09 -1.53603e-09 2.27253e-10)
(-3.05808e-09 -1.95443e-09 2.99358e-10)
(-3.62147e-09 -2.38434e-09 3.82828e-10)
(-4.17248e-09 -2.82991e-09 4.84117e-10)
(-4.72374e-09 -3.28954e-09 6.12916e-10)
(-5.28894e-09 -3.75407e-09 7.84965e-10)
(-5.88537e-09 -4.20414e-09 1.02694e-09)
(-6.53908e-09 -4.60626e-09 1.38503e-09)
(-7.29705e-09 -4.90745e-09 1.93995e-09)
(-8.2549e-09 -5.02774e-09 2.83347e-09)
(-9.619e-09 -4.84947e-09 4.3144e-09)
(-1.17975e-08 -4.21251e-09 6.77576e-09)
(-1.50203e-08 -3.09031e-09 1.02643e-08)
(-3.22885e-11 -2.43317e-11 2.01777e-12)
(-9.34643e-11 -7.10056e-11 5.81402e-12)
(-1.4893e-10 -1.14971e-10 9.1498e-12)
(-2.00306e-10 -1.58274e-10 1.19622e-11)
(-2.489e-10 -2.02601e-10 1.40098e-11)
(-2.95715e-10 -2.49372e-10 1.4761e-11)
(-3.41408e-10 -2.99803e-10 1.32145e-11)
(-3.86195e-10 -3.54985e-10 7.6129e-12)
(-4.29693e-10 -4.16011e-10 -5.033e-12)
(-4.70653e-10 -4.84185e-10 -2.96867e-11)
(-5.06525e-10 -5.61418e-10 -7.43991e-11)
(-5.32502e-10 -6.50766e-10 -1.51785e-10)
(-5.39016e-10 -7.56759e-10 -2.80263e-10)
(-5.05287e-10 -8.83497e-10 -4.82429e-10)
(-3.89143e-10 -1.02345e-09 -7.6976e-10)
(-1.62957e-10 -1.12431e-09 -1.07146e-09)
(-9.61057e-11 -7.1934e-11 6.07518e-12)
(-2.78201e-10 -2.09918e-10 1.75335e-11)
(-4.43313e-10 -3.39894e-10 2.76781e-11)
(-5.96244e-10 -4.67852e-10 3.63965e-11)
(-7.40902e-10 -5.98733e-10 4.30817e-11)
(-8.80303e-10 -7.36635e-10 4.6345e-11)
(-1.01648e-09 -8.84991e-10 4.35615e-11)
(-1.15024e-09 -1.04677e-09 3.01434e-11)
(-1.28076e-09 -1.22478e-09 -1.65298e-12)
(-1.40494e-09 -1.42217e-09 -6.44968e-11)
(-1.51662e-09 -1.64347e-09 -1.78646e-10)
(-1.6052e-09 -1.8961e-09 -3.75066e-10)
(-1.65277e-09 -2.19195e-09 -6.97316e-10)
(-1.62617e-09 -2.54492e-09 -1.19458e-09)
(-1.4632e-09 -2.94899e-09 -1.88045e-09)
(-1.12316e-09 -3.29231e-09 -2.57093e-09)
(-1.58158e-10 -1.16779e-10 1.02147e-11)
(-4.57795e-10 -3.40764e-10 2.95451e-11)
(-7.29395e-10 -5.51629e-10 4.68926e-11)
(-9.80874e-10 -7.5903e-10 6.22782e-11)
(-1.21871e-09 -9.70832e-10 7.50394e-11)
(-1.44798e-09 -1.19341e-09 8.34705e-11)
(-1.67228e-09 -1.43188e-09 8.43055e-11)
(-1.89341e-09 -1.69031e-09 7.18304e-11)
(-2.11078e-09 -1.97189e-09 3.66918e-11)
(-2.32075e-09 -2.27951e-09 -3.60237e-11)
(-2.51589e-09 -2.61682e-09 -1.69067e-10)
(-2.68517e-09 -2.99019e-09 -3.95417e-10)
(-2.81548e-09 -3.41144e-09 -7.57739e-10)
(-2.89404e-09 -3.89775e-09 -1.29671e-09)
(-2.90301e-09 -4.45197e-09 -2.0048e-09)
(-2.8057e-09 -4.9567e-09 -2.68048e-09)
(-2.17351e-10 -1.57212e-10 1.44356e-11)
(-6.29068e-10 -4.58691e-10 4.18785e-11)
(-1.00207e-09 -7.4233e-10 6.69052e-11)
(-1.34722e-09 -1.02098e-09 8.99168e-11)
(-1.6735e-09 -1.30497e-09 1.10585e-10)
(-1.98809e-09 -1.60242e-09 1.27576e-10)
(-2.29636e-09 -1.91945e-09 1.38132e-10)
(-2.60153e-09 -2.26014e-09 1.3755e-10)
(-2.90409e-09 -2.62652e-09 1.18439e-10)
(-3.20093e-09 -3.01853e-09 7.00652e-11)
(-3.48474e-09 -3.43459e-09 -2.21527e-11)
(-3.74428e-09 -3.87299e-09 -1.75792e-10)
(-3.96724e-09 -4.33488e-09 -4.07709e-10)
(-4.14482e-09 -4.82676e-09 -7.23941e-10)
(-4.26396e-09 -5.34866e-09 -1.09977e-09)
(-4.25929e-09 -5.80699e-09 -1.43904e-09)
(-2.72687e-10 -1.91773e-10 1.86836e-11)
(-7.89121e-10 -5.59479e-10 5.43699e-11)
(-1.25666e-09 -9.05219e-10 8.74367e-11)
(-1.68886e-09 -1.24447e-09 1.1889e-10)
(-2.09702e-09 -1.5895e-09 1.4908e-10)
(-2.49038e-09 -1.94961e-09 1.77621e-10)
(-2.8762e-09 -2.33126e-09 2.03248e-10)
(-3.25949e-09 -2.73764e-09 2.23885e-10)
(-3.64249e-09 -3.16823e-09 2.36902e-10)
(-4.02376e-09 -3.61789e-09 2.40239e-10)
(-4.39704e-09 -4.07619e-09 2.35028e-10)
(-4.75006e-09 -4.52765e-09 2.30659e-10)
(-5.06233e-09 -4.95489e-09 2.52287e-10)
(-5.29667e-09 -5.34699e-09 3.43847e-10)
(-5.36926e-09 -5.70876e-09 5.37648e-10)
(-5.14358e-09 -6.01918e-09 7.32291e-10)
(-3.23278e-10 -2.19248e-10 2.28511e-11)
(-9.35386e-10 -6.39625e-10 6.66706e-11)
(-1.48899e-09 -1.0347e-09 1.07851e-10)
(-1.99997e-09 -1.42198e-09 1.48118e-10)
(-2.48166e-09 -1.81514e-09 1.88714e-10)
(-2.94515e-09 -2.22421e-09 2.30481e-10)
(-3.39944e-09 -2.65543e-09 2.74149e-10)
(-3.85147e-09 -3.11068e-09 3.20891e-10)
(-4.30561e-09 -3.58618e-09 3.73756e-10)
(-4.76303e-09 -4.07072e-09 4.40526e-10)
(-5.22061e-09 -4.54329e-09 5.39368e-10)
(-5.66916e-09 -4.9713e-09 7.08567e-10)
(-6.08795e-09 -5.3128e-09 1.01896e-09)
(-6.42309e-09 -5.53243e-09 1.57355e-09)
(-6.51964e-09 -5.64862e-09 2.42751e-09)
(-6.10062e-09 -5.77905e-09 3.27048e-09)
(-3.68402e-10 -2.38696e-10 2.6789e-11)
(-1.06573e-09 -6.96383e-10 7.83326e-11)
(-1.69561e-09 -1.12645e-09 1.27293e-10)
(-2.27574e-09 -1.54781e-09 1.76137e-10)
(-2.82103e-09 -1.97503e-09 2.27008e-10)
(-3.344e-09 -2.41855e-09 2.8196e-10)
(-3.85505e-09 -2.88424e-09 3.43553e-10)
(-4.36261e-09 -3.37258e-09 4.15843e-10)
(-4.87289e-09 -3.8769e-09 5.0643e-10)
(-5.38962e-09 -4.38054e-09 6.30399e-10)
(-5.91374e-09 -4.85279e-09 8.17659e-10)
(-6.44403e-09 -5.24397e-09 1.12537e-09)
(-6.97769e-09 -5.4818e-09 1.65528e-09)
(-7.50397e-09 -5.48094e-09 2.5593e-09)
(-7.95346e-09 -5.20664e-09 3.94507e-09)
(-8.06916e-09 -4.87445e-09 5.39855e-09)
(-4.07516e-10 -2.49439e-10 3.03493e-11)
(-1.1786e-09 -7.27816e-10 8.88844e-11)
(-1.87399e-09 -1.17744e-09 1.44878e-10)
(-2.51264e-09 -1.618e-09 2.01461e-10)
(-3.11049e-09 -2.06461e-09 2.61475e-10)
(-3.68084e-09 -2.52778e-09 3.27942e-10)
(-4.23483e-09 -3.01315e-09 4.04652e-10)
(-4.78148e-09 -3.52035e-09 4.97355e-10)
(-5.32762e-09 -4.04096e-09 6.15824e-10)
(-5.87749e-09 -4.55528e-09 7.77614e-10)
(-6.43268e-09 -5.02742e-09 1.01453e-09)
(-6.99303e-09 -5.39796e-09 1.38332e-09)
(-7.5603e-09 -5.57396e-09 1.98021e-09)
(-8.14389e-09 -5.4174e-09 2.94995e-09)
(-8.74542e-09 -4.75604e-09 4.42567e-09)
(-9.21514e-09 -3.61967e-09 6.10854e-09)
(-3.25851e-11 -2.54958e-11 1.6799e-12)
(-9.42683e-11 -7.44646e-11 4.79656e-12)
(-1.50028e-10 -1.20786e-10 7.39022e-12)
(-2.0136e-10 -1.66724e-10 9.29259e-12)
(-2.49373e-10 -2.14203e-10 1.01251e-11)
(-2.94723e-10 -2.64889e-10 9.16183e-12)
(-3.37468e-10 -3.20281e-10 5.11775e-12)
(-3.76817e-10 -3.81798e-10 -4.19477e-12)
(-4.10695e-10 -4.50865e-10 -2.2391e-11)
(-4.35059e-10 -5.29081e-10 -5.53147e-11)
(-4.42814e-10 -6.18364e-10 -1.12156e-10)
(-4.21959e-10 -7.20962e-10 -2.06746e-10)
(-3.52136e-10 -8.3845e-10 -3.58234e-10)
(-1.98551e-10 -9.67063e-10 -5.88036e-10)
(8.95409e-11 -1.08377e-09 -9.01973e-10)
(4.97693e-10 -1.12942e-09 -1.21821e-09)
(-9.7021e-11 -7.53659e-11 5.07168e-12)
(-2.807e-10 -2.20128e-10 1.4504e-11)
(-4.46772e-10 -3.5704e-10 2.24436e-11)
(-5.99705e-10 -4.92771e-10 2.84537e-11)
(-7.42835e-10 -6.32933e-10 3.1518e-11)
(-8.78184e-10 -7.8235e-10 2.967e-11)
(-1.00608e-09 -9.45302e-10 1.94226e-11)
(-1.12441e-09 -1.12572e-09 -5.1321e-12)
(-1.22742e-09 -1.32744e-09 -5.36792e-11)
(-1.30377e-09 -1.55456e-09 -1.41745e-10)
(-1.33366e-09 -1.81187e-09 -2.9342e-10)
(-1.28478e-09 -2.10517e-09 -5.44382e-10)
(-1.10655e-09 -2.43972e-09 -9.4266e-10)
(-7.25107e-10 -2.81209e-09 -1.53863e-09)
(-6.15328e-11 -3.18384e-09 -2.3362e-09)
(7.75763e-10 -3.43101e-09 -3.11369e-09)
(-1.59771e-10 -1.22334e-10 8.56307e-12)
(-4.62231e-10 -3.57256e-10 2.45694e-11)
(-7.35693e-10 -5.79325e-10 3.82927e-11)
(-9.8758e-10 -7.99256e-10 4.92277e-11)
(-1.22352e-09 -1.02599e-09 5.60347e-11)
(-1.44712e-09 -1.26708e-09 5.60511e-11)
(-1.65937e-09 -1.52901e-09 4.45273e-11)
(-1.85754e-09 -1.81736e-09 1.35343e-11)
(-2.03333e-09 -2.13711e-09 -4.97858e-11)
(-2.1698e-09 -2.49283e-09 -1.65535e-10)
(-2.23713e-09 -2.88926e-09 -3.64164e-10)
(-2.18736e-09 -3.33171e-09 -6.89268e-10)
(-1.95058e-09 -3.8256e-09 -1.19703e-09)
(-1.44194e-09 -4.37044e-09 -1.94172e-09)
(-6.14953e-10 -4.93585e-09 -2.91537e-09)
(3.01358e-10 -5.38511e-09 -3.84023e-09)
(-2.19763e-10 -1.64634e-10 1.21735e-11)
(-6.3578e-10 -4.80735e-10 3.50614e-11)
(-1.01187e-09 -7.79327e-10 5.51255e-11)
(-1.35835e-09 -1.07467e-09 7.2046e-11)
(-1.68323e-09 -1.37849e-09 8.45696e-11)
(-1.99193e-09 -1.7005e-09 9.00165e-11)
(-2.28667e-09 -2.04856e-09 8.35877e-11)
(-2.56512e-09 -2.42886e-09 5.73424e-11)
(-2.81798e-09 -2.84582e-09 -1.20054e-12)
(-3.02492e-09 -3.30198e-09 -1.10876e-10)
(-3.14836e-09 -3.79797e-09 -2.98835e-10)
(-3.12511e-09 -4.33277e-09 -6.0196e-10)
(-2.85848e-09 -4.90371e-09 -1.06519e-09)
(-2.22493e-09 -5.50312e-09 -1.72979e-09)
(-1.14794e-09 -6.09813e-09 -2.58742e-09)
(7.07896e-11 -6.55365e-09 -3.40742e-09)
(-2.76012e-10 -2.00749e-10 1.58604e-11)
(-7.98487e-10 -5.86138e-10 4.58575e-11)
(-1.2707e-09 -9.49911e-10 7.27451e-11)
(-1.70574e-09 -1.30924e-09 9.66248e-11)
(-2.11395e-09 -1.67806e-09 1.16708e-10)
(-2.50283e-09 -2.06755e-09 1.30912e-10)
(-2.87634e-09 -2.48619e-09 1.35423e-10)
(-3.23366e-09 -2.93975e-09 1.23989e-10)
(-3.56635e-09 -3.4306e-09 8.72884e-11)
(-3.85364e-09 -3.95697e-09 1.22543e-11)
(-4.05401e-09 -4.51197e-09 -1.181e-10)
(-4.0915e-09 -5.08308e-09 -3.24018e-10)
(-3.83572e-09 -5.65315e-09 -6.27401e-10)
(-3.08644e-09 -6.20291e-09 -1.04943e-09)
(-1.63792e-09 -6.70558e-09 -1.59883e-09)
(2.1299e-10 -7.06967e-09 -2.1683e-09)
(-3.27623e-10 -2.29413e-10 1.9526e-11)
(-9.47734e-10 -6.69777e-10 5.6665e-11)
(-1.50794e-09 -1.08521e-09 9.05992e-11)
(-2.02381e-09 -1.49507e-09 1.22032e-10)
(-2.50794e-09 -1.91491e-09 1.5087e-10)
(-2.96987e-09 -2.35673e-09 1.76039e-10)
(-3.41573e-09 -2.82912e-09 1.95251e-10)
(-3.847e-09 -3.33661e-09 2.04868e-10)
(-4.25801e-09 -3.87871e-09 1.99927e-10)
(-4.63107e-09 -4.44803e-09 1.74793e-10)
(-4.92758e-09 -5.02809e-09 1.24726e-10)
(-5.07151e-09 -5.59134e-09 4.84741e-11)
(-4.92032e-09 -6.10054e-09 -5.02454e-11)
(-4.22392e-09 -6.52062e-09 -1.70388e-10)
(-2.64175e-09 -6.84773e-09 -3.40733e-10)
(-3.13828e-10 -7.10831e-09 -6.02014e-10)
(-3.73828e-10 -2.49635e-10 2.30428e-11)
(-1.0813e-09 -7.2883e-10 6.70665e-11)
(-1.71995e-09 -1.18074e-09 1.07911e-10)
(-2.30743e-09 -1.62625e-09 1.4693e-10)
(-2.85824e-09 -2.0819e-09 1.848e-10)
(-3.38379e-09 -2.56011e-09 2.21542e-10)
(-3.89231e-09 -3.06914e-09 2.56474e-10)
(-4.3879e-09 -3.61219e-09 2.88461e-10)
(-4.86858e-09 -4.18579e-09 3.16494e-10)
(-5.32231e-09 -4.77711e-09 3.41054e-10)
(-5.71979e-09 -5.36009e-09 3.66617e-10)
(-6.00125e-09 -5.89056e-09 4.05191e-10)
(-6.05424e-09 -6.30333e-09 4.77649e-10)
(-5.68361e-09 -6.5207e-09 6.01428e-10)
(-4.62755e-09 -6.50295e-09 7.40104e-10)
(-2.98066e-09 -6.38313e-09 7.45899e-10)
(-4.1404e-10 -2.60728e-10 2.62689e-11)
(-1.19745e-09 -7.61317e-10 7.66176e-11)
(-1.90391e-09 -1.23343e-09 1.23848e-10)
(-2.5526e-09 -1.69878e-09 1.69894e-10)
(-3.1594e-09 -2.17437e-09 2.16161e-10)
(-3.73714e-09 -2.67276e-09 2.63547e-10)
(-4.29559e-09 -3.2018e-09 3.12648e-10)
(-4.84099e-09 -3.76363e-09 3.64086e-10)
(-5.3745e-09 -4.3527e-09 4.19233e-10)
(-5.88927e-09 -4.95255e-09 4.81521e-10)
(-6.36511e-09 -5.53074e-09 5.58522e-10)
(-6.75983e-09 -6.03163e-09 6.64069e-10)
(-6.99647e-09 -6.36629e-09 8.17346e-10)
(-6.95307e-09 -6.40175e-09 1.02917e-09)
(-6.49775e-09 -5.96919e-09 1.25829e-09)
(-5.75414e-09 -5.06038e-09 1.3607e-09)
(-3.28333e-11 -2.65779e-11 1.32447e-12)
(-9.49397e-11 -7.7689e-11 3.73835e-12)
(-1.50937e-10 -1.26224e-10 5.60881e-12)
(-2.02219e-10 -1.7468e-10 6.68694e-12)
(-2.49726e-10 -2.2521e-10 6.49935e-12)
(-2.9384e-10 -2.79744e-10 4.19246e-12)
(-3.34172e-10 -3.40089e-10 -1.70709e-12)
(-3.69208e-10 -4.08003e-10 -1.36574e-11)
(-3.95756e-10 -4.85284e-10 -3.56607e-11)
(-4.08111e-10 -5.73796e-10 -7.40593e-11)
(-3.96925e-10 -6.75443e-10 -1.38555e-10)
(-3.47685e-10 -7.9173e-10 -2.43184e-10)
(-2.38718e-10 -9.22116e-10 -4.06191e-10)
(-3.92247e-11 -1.05891e-09 -6.45577e-10)
(2.84405e-10 -1.17514e-09 -9.60254e-10)
(6.88049e-10 -1.21564e-09 -1.26424e-09)
(-9.77912e-11 -7.85593e-11 4.00901e-12)
(-2.82792e-10 -2.29626e-10 1.13454e-11)
(-4.4966e-10 -3.73075e-10 1.71182e-11)
(-6.02565e-10 -5.16225e-10 2.06546e-11)
(-7.44379e-10 -6.65376e-10 2.0648e-11)
(-8.76351e-10 -8.26139e-10 1.47307e-11)
(-9.97527e-10 -1.00369e-09 -1.17616e-12)
(-1.10372e-09 -1.20301e-09 -3.38547e-11)
(-1.18591e-09 -1.42905e-09 -9.43035e-11)
(-1.22779e-09 -1.68681e-09 -1.99831e-10)
(-1.20265e-09 -1.98127e-09 -3.76718e-10)
(-1.06995e-09 -2.31632e-09 -6.62474e-10)
(-7.73765e-10 -2.69142e-09 -1.1046e-09)
(-2.5025e-10 -3.09165e-09 -1.74629e-09)
(5.28791e-10 -3.46509e-09 -2.57222e-09)
(1.36186e-09 -3.69312e-09 -3.33799e-09)
(-1.61135e-10 -1.27485e-10 6.80597e-12)
(-4.65988e-10 -3.72608e-10 1.93355e-11)
(-7.41023e-10 -6.05223e-10 2.94613e-11)
(-9.93253e-10 -8.37116e-10 3.62711e-11)
(-1.22763e-09 -1.07834e-09 3.79259e-11)
(-1.44662e-09 -1.33772e-09 3.10511e-11)
(-1.64927e-09 -1.62317e-09 9.85154e-12)
(-1.82974e-09 -1.94209e-09 -3.52801e-11)
(-1.97456e-09 -2.30133e-09 -1.19737e-10)
(-2.05882e-09 -2.70734e-09 -2.67489e-10)
(-2.04079e-09 -3.16564e-09 -5.14346e-10)
(-1.85718e-09 -3.67959e-09 -9.10406e-10)
(-1.42468e-09 -4.24656e-09 -1.51698e-09)
(-6.67245e-10 -4.84826e-09 -2.38483e-09)
(3.84976e-10 -5.42883e-09 -3.47865e-09)
(1.33997e-09 -5.84695e-09 -4.45899e-09)
(-2.21828e-10 -1.71528e-10 9.73908e-12)
(-6.41539e-10 -5.01259e-10 2.78082e-11)
(-1.0203e-09 -8.13926e-10 4.28748e-11)
(-1.368e-09 -1.12521e-09 5.40402e-11)
(-1.69188e-09 -1.44833e-09 5.93246e-11)
(-1.99606e-09 -1.79465e-09 5.50152e-11)
(-2.28051e-09 -2.17407e-09 3.4707e-11)
(-2.53912e-09 -2.59518e-09 -1.21192e-11)
(-2.75625e-09 -3.06525e-09 -1.02119e-10)
(-2.90121e-09 -3.58981e-09 -2.60781e-10)
(-2.92016e-09 -4.17179e-09 -5.25515e-10)
(-2.72658e-09 -4.80962e-09 -9.4765e-10)
(-2.1984e-09 -5.49292e-09 -1.58879e-09)
(-1.20969e-09 -6.19227e-09 -2.49817e-09)
(2.27407e-10 -6.83557e-09 -3.63533e-09)
(1.57281e-09 -7.2615e-09 -4.64724e-09)
(-2.78895e-10 -2.09087e-10 1.27815e-11)
(-8.06618e-10 -6.10938e-10 3.66874e-11)
(-1.28296e-09 -9.917e-10 5.72393e-11)
(-1.72065e-09 -1.37023e-09 7.38033e-11)
(-2.12937e-09 -1.76225e-09 8.46368e-11)
(-2.51534e-09 -2.18091e-09 8.63129e-11)
(-2.8804e-09 -2.63722e-09 7.28285e-11)
(-3.21985e-09 -3.13989e-09 3.44272e-11)
(-3.5188e-09 -3.6951e-09 -4.41441e-11)
(-3.74529e-09 -4.30546e-09 -1.85779e-10)
(-3.8392e-09 -4.96857e-09 -4.23467e-10)
(-3.6957e-09 -5.67474e-09 -8.0203e-10)
(-3.14765e-09 -6.40326e-09 -1.37597e-09)
(-1.97564e-09 -7.11496e-09 -2.19297e-09)
(-5.69436e-11 -7.73301e-09 -3.22931e-09)
(2.01631e-09 -8.10315e-09 -4.17747e-09)
(-3.31423e-10 -2.3884e-10 1.58566e-11)
(-9.58581e-10 -6.97835e-10 4.57239e-11)
(-1.52471e-09 -1.13243e-09 7.21016e-11)
(-2.0452e-09 -1.56392e-09 9.47934e-11)
(-2.53218e-09 -2.00979e-09 1.12581e-10)
(-2.99429e-09 -2.48433e-09 1.22735e-10)
(-3.43589e-09 -2.99881e-09 1.20358e-10)
(-3.85539e-09 -3.56134e-09 9.7444e-11)
(-4.24156e-09 -4.17585e-09 4.16697e-11)
(-4.56692e-09 -4.84072e-09 -6.51798e-11)
(-4.77585e-09 -5.5465e-09 -2.49027e-10)
(-4.76443e-09 -6.27326e-09 -5.45362e-10)
(-4.35165e-09 -6.98891e-09 -1.00003e-09)
(-3.26001e-09 -7.65097e-09 -1.66253e-09)
(-1.21567e-09 -8.21127e-09 -2.54108e-09)
(1.3532e-09 -8.59174e-09 -3.40231e-09)
(-3.78621e-10 -2.59782e-10 1.88472e-11)
(-1.09509e-09 -7.59009e-10 5.45625e-11)
(-1.7417e-09 -1.23149e-09 8.67849e-11)
(-2.33616e-09 -1.70014e-09 1.1585e-10)
(-2.89283e-09 -2.18352e-09 1.41199e-10)
(-3.42272e-09 -2.69648e-09 1.60978e-10)
(-3.93303e-09 -3.25011e-09 1.71619e-10)
(-4.426e-09 -3.85131e-09 1.67166e-10)
(-4.89613e-09 -4.50149e-09 1.3843e-10)
(-5.32498e-09 -5.19439e-09 7.18676e-11)
(-5.67181e-09 -5.91274e-09 -5.19472e-11)
(-5.85839e-09 -6.62443e-09 -2.60746e-10)
(-5.74849e-09 -7.27951e-09 -5.94299e-10)
(-5.13923e-09 -7.81504e-09 -1.10672e-09)
(-3.84866e-09 -8.1826e-09 -1.84009e-09)
(-2.20285e-09 -8.4009e-09 -2.63729e-09)
(-4.19853e-10 -2.71208e-10 2.16277e-11)
(-1.21428e-09 -7.92441e-10 6.28084e-11)
(-1.93085e-09 -1.28574e-09 1.00543e-10)
(-2.58906e-09 -1.77479e-09 1.35719e-10)
(-3.2051e-09 -2.27873e-09 1.68385e-10)
(-3.79185e-09 -2.81241e-09 1.97562e-10)
(-4.35902e-09 -3.38652e-09 2.20873e-10)
(-4.91239e-09 -4.00679e-09 2.34108e-10)
(-5.45203e-09 -4.67244e-09 2.30553e-10)
(-5.96888e-09 -5.3734e-09 2.00004e-10)
(-6.43889e-09 -6.08615e-09 1.27089e-10)
(-6.81459e-09 -6.76776e-09 -1.18675e-11)
(-7.01863e-09 -7.34833e-09 -2.54673e-10)
(-6.9598e-09 -7.72403e-09 -6.60139e-10)
(-6.63744e-09 -7.76444e-09 -1.29064e-09)
(-6.40638e-09 -7.42847e-09 -2.03489e-09)
(-3.30377e-11 -2.75254e-11 9.7957e-13)
(-9.54943e-11 -8.05134e-11 2.7302e-12)
(-1.51701e-10 -1.31012e-10 3.96798e-12)
(-2.02976e-10 -1.8172e-10 4.41323e-12)
(-2.50155e-10 -2.35017e-10 3.56678e-12)
(-2.9346e-10 -2.93088e-10 5.5507e-13)
(-3.32272e-10 -3.58033e-10 -6.10424e-12)
(-3.64785e-10 -4.31967e-10 -1.88595e-11)
(-3.87492e-10 -5.17046e-10 -4.16497e-11)
(-3.9456e-10 -6.15461e-10 -8.06122e-11)
(-3.77204e-10 -7.29243e-10 -1.44901e-10)
(-3.23336e-10 -8.5966e-10 -2.47227e-10)
(-2.17847e-10 -1.00564e-09 -4.03023e-10)
(-4.36973e-11 -1.15969e-09 -6.25321e-10)
(2.12899e-10 -1.29863e-09 -9.07571e-10)
(5.1291e-10 -1.37284e-09 -1.17044e-09)
(-9.84255e-11 -8.13483e-11 2.97523e-12)
(-2.84531e-10 -2.37963e-10 8.31587e-12)
(-4.52092e-10 -3.87191e-10 1.21812e-11)
(-6.05086e-10 -5.36983e-10 1.37919e-11)
(-7.4609e-10 -6.94297e-10 1.17508e-11)
(-8.75908e-10 -8.65487e-10 3.60635e-12)
(-9.92946e-10 -1.05663e-09 -1.47977e-11)
(-1.0922e-09 -1.27375e-09 -5.03169e-11)
(-1.16372e-09 -1.52295e-09 -1.13942e-10)
(-1.19077e-09 -1.81027e-09 -2.22739e-10)
(-1.14795e-09 -2.14112e-09 -4.02006e-10)
(-1.00104e-09 -2.51859e-09 -6.86465e-10)
(-7.11644e-10 -2.93949e-09 -1.11701e-09)
(-2.53062e-10 -3.38555e-09 -1.72423e-09)
(3.50296e-10 -3.80549e-09 -2.47722e-09)
(9.16165e-10 -4.08442e-09 -3.14439e-09)
(-1.62268e-10 -1.32001e-10 5.07758e-12)
(-4.69122e-10 -3.86072e-10 1.42694e-11)
(-7.45536e-10 -6.28022e-10 2.11783e-11)
(-9.98253e-10 -8.70636e-10 2.46959e-11)
(-1.23182e-09 -1.12503e-09 2.27895e-11)
(-1.44807e-09 -1.40123e-09 1.18751e-11)
(-1.64517e-09 -1.70869e-09 -1.41299e-11)
(-1.81605e-09 -2.0565e-09 -6.52103e-11)
(-1.94594e-09 -2.45363e-09 -1.57301e-10)
(-2.00902e-09 -2.9084e-09 -3.14969e-10)
(-1.96506e-09 -3.42751e-09 -5.74285e-10)
(-1.75879e-09 -4.01316e-09 -9.83976e-10)
(-1.33061e-09 -4.65716e-09 -1.59943e-09)
(-6.56418e-10 -5.32972e-09 -2.4563e-09)
(1.57881e-10 -5.96058e-09 -3.4947e-09)
(7.46303e-10 -6.40144e-09 -4.37613e-09)
(-2.23555e-10 -1.7756e-10 7.31831e-12)
(-6.46373e-10 -5.19253e-10 2.06991e-11)
(-1.02748e-09 -8.44388e-10 3.12073e-11)
(-1.37651e-09 -1.16997e-09 3.76311e-11)
(-1.70028e-09 -1.51065e-09 3.76569e-11)
(-2.00227e-09 -1.87943e-09 2.71498e-11)
(-2.28151e-09 -2.28825e-09 -9.17403e-13)
(-2.53065e-09 -2.74824e-09 -5.80417e-11)
(-2.73265e-09 -3.26969e-09 -1.62466e-10)
(-2.85589e-09 -3.8614e-09 -3.42122e-10)
(-2.84787e-09 -4.52891e-09 -6.37737e-10)
(-2.63036e-09 -5.27057e-09 -1.10387e-09)
(-2.1066e-09 -6.06927e-09 -1.80164e-09)
(-1.20895e-09 -6.87694e-09 -2.76775e-09)
(-4.04376e-11 -7.59022e-09 -3.92756e-09)
(8.76851e-10 -8.02655e-09 -4.89614e-09)
(-2.81317e-10 -2.16378e-10 9.68056e-12)
(-8.13496e-10 -6.32696e-10 2.75597e-11)
(-1.29347e-09 -1.0285e-09 4.22087e-11)
(-1.73382e-09 -1.42427e-09 5.25369e-11)
(-2.14391e-09 -1.83742e-09 5.63042e-11)
(-2.52953e-09 -2.28315e-09 4.93862e-11)
(-2.89178e-09 -2.77493e-09 2.47512e-11)
(-3.22518e-09 -3.3248e-09 -2.91221e-11)
(-3.51398e-09 -3.943e-09 -1.30419e-10)
(-3.72611e-09 -4.63711e-09 -3.06916e-10)
(-3.80384e-09 -5.40996e-09 -5.99126e-10)
(-3.65162e-09 -6.25528e-09 -1.06179e-09)
(-3.12843e-09 -7.14918e-09 -1.7578e-09)
(-2.07424e-09 -8.03332e-09 -2.72882e-09)
(-4.60523e-10 -8.78568e-09 -3.90684e-09)
(1.13777e-09 -9.1984e-09 -4.90275e-09)
(-3.3464e-10 -2.47094e-10 1.21018e-11)
(-9.67803e-10 -7.22436e-10 3.46647e-11)
(-1.53915e-09 -1.17403e-09 5.38327e-11)
(-2.06407e-09 -1.62493e-09 6.88278e-11)
(-2.55467e-09 -2.09457e-09 7.77478e-11)
(-3.01941e-09 -2.59949e-09 7.69232e-11)
(-3.46258e-09 -3.15392e-09 5.99744e-11)
(-3.88253e-09 -3.76972e-09 1.64292e-11)
(-4.26864e-09 -4.45602e-09 -7.02859e-11)
(-4.59548e-09 -5.21793e-09 -2.25561e-10)
(-4.81305e-09 -6.05451e-09 -4.86866e-10)
(-4.83152e-09 -6.95526e-09 -9.0631e-10)
(-4.50213e-09 -7.89474e-09 -1.54784e-09)
(-3.61232e-09 -8.8237e-09 -2.46441e-09)
(-1.97838e-09 -9.65049e-09 -3.61455e-09)
(2.72795e-11 -1.01937e-08 -4.63114e-09)
(-3.82696e-10 -2.6866e-10 1.4492e-11)
(-1.10688e-09 -7.85463e-10 4.17213e-11)
(-1.76049e-09 -1.27618e-09 6.55316e-11)
(-2.3615e-09 -1.76559e-09 8.55644e-11)
(-2.92456e-09 -2.27437e-09 1.00408e-10)
(-3.46095e-09 -2.81967e-09 1.07087e-10)
(-3.97851e-09 -3.41577e-09 1.00228e-10)
(-4.48067e-09 -4.07372e-09 7.08966e-11)
(-4.96441e-09 -4.80071e-09 4.82915e-12)
(-5.41654e-09 -5.59855e-09 -1.20083e-10)
(-5.80741e-09 -6.46138e-09 -3.37179e-10)
(-6.08182e-09 -7.37266e-09 -6.94738e-10)
(-6.15066e-09 -8.30238e-09 -1.25701e-09)
(-5.89803e-09 -9.20653e-09 -2.09019e-09)
(-5.24872e-09 -1.00274e-08 -3.19048e-09)
(-4.40906e-09 -1.06502e-08 -4.23684e-09)
(-4.24805e-10 -2.80358e-10 1.67462e-11)
(-1.22872e-09 -8.19729e-10 4.83965e-11)
(-1.95418e-09 -1.33177e-09 7.66845e-11)
(-2.62123e-09 -1.84215e-09 1.01681e-10)
(-3.24663e-09 -2.37199e-09 1.22531e-10)
(-3.84411e-09 -2.93859e-09 1.36979e-10)
(-4.42473e-09 -3.55573e-09 1.40728e-10)
(-4.99666e-09 -4.23335e-09 1.26434e-10)
(-5.5644e-09 -4.97646e-09 8.21752e-11)
(-6.12731e-09 -5.78338e-09 -1.08516e-11)
(-6.67752e-09 -6.64272e-09 -1.81607e-10)
(-7.19931e-09 -7.5296e-09 -4.73363e-10)
(-7.67737e-09 -8.40099e-09 -9.46607e-10)
(-8.13508e-09 -9.19221e-09 -1.6711e-09)
(-8.73155e-09 -9.81697e-09 -2.66979e-09)
(-9.74654e-09 -1.01699e-08 -3.68695e-09)
(-3.31982e-11 -2.82883e-11 6.6326e-13)
(-9.59356e-11 -8.27966e-11 1.82409e-12)
(-1.52324e-10 -1.34887e-10 2.56302e-12)
(-2.03645e-10 -1.87443e-10 2.62346e-12)
(-2.50686e-10 -2.43031e-10 1.56475e-12)
(-2.93615e-10 -3.04056e-10 -1.37175e-12)
(-3.31787e-10 -3.72886e-10 -7.462e-12)
(-3.63464e-10 -4.51946e-10 -1.87978e-11)
(-3.85489e-10 -5.43747e-10 -3.87125e-11)
(-3.93034e-10 -6.50824e-10 -7.23273e-11)
(-3.79723e-10 -7.75487e-10 -1.2711e-10)
(-3.38567e-10 -9.1928e-10 -2.13057e-10)
(-2.63909e-10 -1.0818e-09 -3.41552e-10)
(-1.53059e-10 -1.2581e-09 -5.20736e-10)
(-4.46074e-12 -1.43178e-09 -7.42225e-10)
(1.68553e-10 -1.55656e-09 -9.43245e-10)
(-9.89259e-11 -8.36019e-11 2.02013e-12)
(-2.8591e-10 -2.44686e-10 5.57845e-12)
(-4.54074e-10 -3.98615e-10 7.91824e-12)
(-6.0729e-10 -5.53854e-10 8.32038e-12)
(-7.48009e-10 -7.17924e-10 5.5406e-12)
(-8.76905e-10 -8.97835e-10 -2.56626e-12)
(-9.92332e-10 -1.10047e-09 -1.96069e-11)
(-1.0895e-09 -1.33278e-09 -5.1487e-11)
(-1.15952e-09 -1.60197e-09 -1.07601e-10)
(-1.1885e-09 -1.91514e-09 -2.0235e-10)
(-1.15787e-09 -2.27852e-09 -3.56625e-10)
(-1.04766e-09 -2.69556e-09 -5.98069e-10)
(-8.45572e-10 -3.16335e-09 -9.57058e-10)
(-5.63374e-10 -3.66566e-09 -1.45167e-09)
(-2.54024e-10 -4.15786e-09 -2.04735e-09)
(-1.77209e-11 -4.522e-09 -2.55806e-09)
(-1.63161e-10 -1.35635e-10 3.46727e-12)
(-4.71612e-10 -3.96936e-10 9.63717e-12)
(-7.49205e-10 -6.46473e-10 1.39166e-11)
(-1.00256e-09 -8.9788e-10 1.52555e-11)
(-1.23607e-09 -1.16318e-09 1.18131e-11)
(-1.45143e-09 -1.4535e-09 4.01684e-13)
(-1.6468e-09 -1.77956e-09 -2.43386e-11)
(-1.81561e-09 -2.15215e-09 -7.11689e-11)
(-1.94477e-09 -2.58204e-09 -1.53987e-10)
(-2.01301e-09 -3.07958e-09 -2.94003e-10)
(-1.99039e-09 -3.65293e-09 -5.21785e-10)
(-1.84275e-09 -4.30444e-09 -8.77188e-10)
(-1.54844e-09 -5.02357e-09 -1.40225e-09)
(-1.13797e-09 -5.77519e-09 -2.11644e-09)
(-7.54076e-10 -6.48124e-09 -2.95507e-09)
(-6.35845e-10 -6.97859e-09 -3.63918e-09)
(-2.24917e-10 -1.82421e-10 5.0315e-12)
(-6.50223e-10 -5.33777e-10 1.40976e-11)
(-1.03331e-09 -8.69043e-10 2.07747e-11)
(-1.38373e-09 -1.20636e-09 2.38621e-11)
(-1.70821e-09 -1.56161e-09 2.12032e-11)
(-2.01018e-09 -1.94926e-09 9.0269e-12)
(-2.28889e-09 -2.38306e-09 -1.9017e-11)
(-2.53786e-09 -2.87649e-09 -7.33032e-11)
(-2.7426e-09 -3.44266e-09 -1.70246e-10)
(-2.87757e-09 -4.09355e-09 -3.34849e-10)
(-2.90345e-09 -4.83757e-09 -6.03054e-10)
(-2.76796e-09 -5.67393e-09 -1.02151e-09)
(-2.41966e-09 -6.58152e-09 -1.63863e-09)
(-1.85412e-09 -7.49936e-09 -2.47395e-09)
(-1.21329e-09 -8.30061e-09 -3.44386e-09)
(-8.6291e-10 -8.7781e-09 -4.21805e-09)
(-2.83238e-10 -2.22255e-10 6.70444e-12)
(-8.18974e-10 -6.5025e-10 1.89408e-11)
(-1.302e-09 -1.05829e-09 2.84725e-11)
(-1.74487e-09 -1.46821e-09 3.41386e-11)
(-2.15705e-09 -1.89894e-09 3.37483e-11)
(-2.54447e-09 -2.36743e-09 2.34121e-11)
(-2.90885e-09 -2.8895e-09 -3.4695e-12)
(-3.24624e-09 -3.48016e-09 -5.76807e-11)
(-3.54456e-09 -4.15358e-09 -1.56307e-10)
(-3.77976e-09 -4.92218e-09 -3.25435e-10)
(-3.9103e-09 -5.79399e-09 -6.02809e-10)
(-3.87111e-09 -6.76672e-09 -1.03809e-09)
(-3.57211e-09 -7.81498e-09 -1.6843e-09)
(-2.92027e-09 -8.86565e-09 -2.56592e-09)
(-1.91858e-09 -9.75981e-09 -3.59773e-09)
(-9.51024e-10 -1.02391e-08 -4.42593e-09)
(-3.3719e-10 -2.53742e-10 8.44448e-12)
(-9.75165e-10 -7.42286e-10 2.40316e-11)
(-1.55084e-09 -1.20769e-09 3.67655e-11)
(-2.07979e-09 -1.67455e-09 4.56741e-11)
(-2.57438e-09 -2.16397e-09 4.87696e-11)
(-3.04362e-09 -2.69455e-09 4.24092e-11)
(-3.4929e-09 -3.28316e-09 2.03344e-11)
(-3.92306e-09 -3.94531e-09 -2.77401e-11)