/*--------------------------------*- C++ -*----------------------------------*\
| =========                 |                                                 |
| \\      /  F ield         | foam-extend: Open Source CFD                    |
|  \\    /   O peration     | Version:     3.1                                |
|   \\  /    A nd           | Web:         http://www.extend-project.de       |
|    \\/     M anipulation  |                                                 |
\*---------------------------------------------------------------------------*/
FoamFile
{
    version     2.0;
    format      ascii;
    class       surfaceScalarField;
    location    "3.3";
    object      meshPhi;
}
// * * * * * * * * * * * * * * * * * * * * * * * * * * * * * * * * * * * * * //

dimensions      [0 3 -1 0 0 0 0];

internalField   nonuniform List<scalar> 
41600
(
-3.81121e-09
-6.66257e-10
-3.6641e-11
3.77623e-11
-7.33971e-09
-1.97241e-09
-1.09358e-10
1.12741e-10
-1.05576e-08
-3.24146e-09
-1.82504e-10
1.88266e-10
-1.35495e-08
-4.52284e-09
-2.6029e-10
2.68743e-10
-1.6385e-08
-5.8826e-09
-3.47907e-10
3.59595e-10
-1.91191e-08
-7.3861e-09
-4.50768e-10
4.66503e-10
-2.17903e-08
-9.10266e-09
-5.75017e-10
5.95946e-10
-2.4416e-08
-1.11101e-08
-7.28226e-10
7.55931e-10
-2.69837e-08
-1.34991e-08
-9.20536e-10
9.57171e-10
-2.94377e-08
-1.63763e-08
-1.16677e-09
1.21523e-09
-3.16625e-08
-1.98663e-08
-1.49063e-09
1.5547e-09
-3.34703e-08
-2.41095e-08
-1.93303e-09
2.01729e-09
-3.46127e-08
-2.92472e-08
-2.56658e-09
2.67567e-09
-3.48656e-08
-3.53498e-08
-3.5088e-09
3.64698e-09
-3.41994e-08
-4.19797e-08
-4.83767e-09
5.03329e-09
-5.72071e-08
-8.35782e-09
1.2191e-08
-1.13672e-08
-1.30119e-09
-1.09332e-10
1.12669e-10
-2.18889e-08
-3.85112e-09
-3.26133e-10
3.36196e-10
-3.14818e-08
-6.32544e-09
-5.43884e-10
5.61022e-10
-4.03984e-08
-8.81832e-09
-7.75106e-10
8.00233e-10
-4.88465e-08
-1.14559e-08
-1.0351e-09
1.06981e-09
-5.69916e-08
-1.43615e-08
-1.33961e-09
1.3863e-09
-6.49527e-08
-1.76647e-08
-1.70623e-09
1.76826e-09
-7.27894e-08
-2.15087e-08
-2.15611e-09
2.23813e-09
-8.04782e-08
-2.60572e-08
-2.71658e-09
2.82491e-09
-8.78742e-08
-3.14985e-08
-3.42571e-09
3.56887e-09
-9.46628e-08
-3.80415e-08
-4.34109e-09
4.53036e-09
-1.00316e-07
-4.58975e-08
-5.55609e-09
5.80542e-09
-1.04109e-07
-5.52196e-08
-7.22516e-09
7.54946e-09
-1.05327e-07
-6.5923e-08
-9.5758e-09
9.98855e-09
-1.03765e-07
-7.69734e-08
-1.27047e-08
1.32601e-08
-9.34801e-08
-1.91228e-08
2.54542e-08
-1.87329e-08
-1.87811e-09
-1.79549e-10
1.85012e-10
-3.6066e-08
-5.55652e-09
-5.35172e-10
5.51643e-10
-5.18603e-08
-9.11921e-09
-8.91503e-10
9.19533e-10
-6.65319e-08
-1.26973e-08
-1.26884e-09
1.30989e-09
-8.04246e-08
-1.64667e-08
-1.69171e-09
1.74834e-09
-9.38159e-08
-2.05969e-08
-2.18486e-09
2.2609e-09
-1.06913e-07
-2.5262e-08
-2.77524e-09
2.87606e-09
-1.19838e-07
-3.0651e-08
-3.49393e-09
3.6269e-09
-1.32593e-07
-3.69743e-08
-4.37868e-09
4.55386e-09
-1.45005e-07
-4.44652e-08
-5.4778e-09
5.70879e-09
-1.56653e-07
-5.33685e-08
-6.85645e-09
7.16136e-09
-1.66781e-07
-6.39005e-08
-8.60627e-09
9.00813e-09
-1.74288e-07
-7.61422e-08
-1.08547e-08
1.13796e-08
-1.77969e-07
-8.97835e-08
-1.37437e-08
1.44158e-08
-1.77242e-07
-1.0335e-07
-1.72049e-08
1.80697e-08
-1.22614e-07
-2.22044e-08
2.70319e-08
-2.57955e-08
-2.37375e-09
-2.45383e-10
2.52827e-10
-4.96511e-08
-7.01964e-09
-7.30719e-10
7.53149e-10
-7.13716e-08
-1.15091e-08
-1.21555e-09
1.25368e-09
-9.15288e-08
-1.60004e-08
-1.72703e-09
1.78279e-09
-1.10598e-07
-2.0706e-08
-2.29757e-09
2.37434e-09
-1.28968e-07
-2.58267e-08
-2.95919e-09
3.06199e-09
-1.46946e-07
-3.15636e-08
-3.74557e-09
3.88146e-09
-1.64737e-07
-3.81281e-08
-4.69377e-09
4.87236e-09
-1.82417e-07
-4.57484e-08
-5.84554e-09
6.07987e-09
-1.9987e-07
-5.46683e-08
-7.24834e-09
7.55599e-09
-2.16699e-07
-6.51304e-08
-8.95529e-09
9.35973e-09
-2.32108e-07
-7.73248e-08
-1.10222e-08
1.15538e-08
-2.44818e-07
-9.12636e-08
-1.34927e-08
1.41877e-08
-2.53222e-07
-1.06493e-07
-1.63513e-08
1.72457e-08
-2.5606e-07
-1.21354e-07
-1.93553e-08
2.04876e-08
-1.41436e-07
-2.28241e-08
2.7257e-08
-3.24487e-08
-2.76981e-09
-3.05234e-10
3.14464e-10
-6.24389e-08
-8.18667e-09
-9.08014e-10
9.35806e-10
-8.97167e-08
-1.34078e-08
-1.50805e-09
1.55523e-09
-1.14998e-07
-1.86076e-08
-2.13818e-09
2.20704e-09
-1.38879e-07
-2.40215e-08
-2.83717e-09
2.93172e-09
-1.6186e-07
-2.98657e-08
-3.64242e-09
3.76864e-09
-1.84345e-07
-3.63498e-08
-4.59203e-09
4.75821e-09
-2.06648e-07
-4.3686e-08
-5.72599e-09
5.94334e-09
-2.28956e-07
-5.20937e-08
-7.08621e-09
7.36977e-09
-2.51288e-07
-6.17978e-08
-8.71463e-09
9.08449e-09
-2.7341e-07
-7.30117e-08
-1.06477e-08
1.11304e-08
-2.94695e-07
-8.58929e-08
-1.29037e-08
1.3534e-08
-3.13951e-07
-1.00426e-07
-1.54506e-08
1.62721e-08
-3.29307e-07
-1.16136e-07
-1.81448e-08
1.92061e-08
-3.3837e-07
-1.31358e-07
-2.06131e-08
2.19694e-08
-1.51244e-07
-2.29053e-08
2.70391e-08
-3.85984e-08
-3.0535e-09
-3.57906e-10
3.6869e-10
-7.42471e-08
-9.02033e-09
-1.06353e-09
1.09598e-09
-1.06631e-07
-1.47562e-08
-1.76322e-09
1.81821e-09
-1.36592e-07
-2.04413e-08
-2.49418e-09
2.57425e-09
-1.64834e-07
-2.63202e-08
-3.29995e-09
3.40957e-09
-1.91954e-07
-3.26104e-08
-4.22162e-09
4.36737e-09
-2.18455e-07
-3.95136e-08
-5.29977e-09
5.49072e-09
-2.44753e-07
-4.72233e-08
-6.57545e-09
6.82372e-09
-2.71169e-07
-5.5928e-08
-8.08948e-09
8.41103e-09
-2.979e-07
-6.58091e-08
-9.87913e-09
1.02949e-08
-3.24963e-07
-7.70287e-08
-1.19705e-08
1.25078e-08
-3.52073e-07
-8.9703e-08
-1.43639e-08
1.50579e-08
-3.78415e-07
-1.03827e-07
-1.69971e-08
1.78934e-08
-4.02188e-07
-1.19051e-07
-1.96712e-08
2.08285e-08
-4.19743e-07
-1.33971e-07
-2.19121e-08
2.34277e-08
-1.53351e-07
-2.38248e-08
2.81342e-08
-4.41644e-08
-3.21753e-09
-4.02631e-10
4.14713e-10
-8.49223e-08
-9.5e-09
-1.19506e-09
1.23138e-09
-1.21892e-07
-1.55234e-08
-1.97753e-09
2.03898e-09
-1.5602e-07
-2.1465e-08
-2.79034e-09
2.87956e-09
-1.88099e-07
-2.75662e-08
-3.68022e-09
3.80195e-09
-2.18803e-07
-3.40341e-08
-4.69037e-09
4.85148e-09
-2.48712e-07
-4.10497e-08
-5.86235e-09
6.07221e-09
-2.78332e-07
-4.87737e-08
-7.23701e-09
7.50799e-09
-3.08095e-07
-5.73465e-08
-8.85383e-09
9.20184e-09
-3.38362e-07
-6.6885e-08
-1.07478e-08
1.11931e-08
-3.69396e-07
-7.7474e-08
-1.29431e-08
1.35113e-08
-4.01293e-07
-8.91546e-08
-1.54428e-08
1.61659e-08
-4.33787e-07
-1.01904e-07
-1.82019e-08
1.91205e-08
-4.65669e-07
-1.15561e-07
-2.10583e-08
2.22281e-08
-4.92927e-07
-1.29394e-07
-2.35391e-08
2.50972e-08
-1.49122e-07
-2.64286e-08
3.13078e-08
-4.90812e-08
-4.39044e-10
4.52159e-10
-3.25979e-09
-9.43395e-08
-1.30162e-09
1.341e-09
-9.62051e-09
-1.35322e-07
-2.14963e-09
2.21612e-09
-1.57046e-08
-1.73055e-07
-3.02514e-09
3.12141e-09
-2.16792e-08
-2.08392e-07
-3.9766e-09
4.10741e-09
-2.77731e-08
-2.42062e-07
-5.04784e-09
5.22009e-09
-3.41743e-08
-2.74693e-07
-6.28003e-09
6.503e-09
-4.10358e-08
-3.06841e-07
-7.71267e-09
7.99837e-09
-4.84774e-08
-3.39003e-07
-9.38312e-09
9.74661e-09
-5.65824e-08
-3.71624e-07
-1.13244e-08
1.17842e-08
-6.53898e-08
-4.05098e-07
-1.35613e-08
1.41397e-08
-7.48812e-08
-4.3972e-07
-1.61041e-08
1.68275e-08
-8.49608e-08
-4.75513e-07
-1.89321e-08
1.98315e-08
-9.54266e-08
-5.11651e-07
-2.19389e-08
2.30565e-08
-1.05887e-07
-5.44665e-07
-2.47595e-08
2.62215e-08
-1.15449e-07
-3.11331e-08
3.68783e-08
-1.34038e-07
-3.86205e-09
-6.94539e-10
-3.41789e-11
-7.43791e-09
-2.05708e-09
-1.01978e-10
-1.07001e-08
-3.38375e-09
-1.70075e-10
-1.37352e-08
-4.72806e-09
-2.4232e-10
-1.66142e-08
-6.16101e-09
-3.23439e-10
-1.93927e-08
-7.75325e-09
-4.18285e-10
-2.21089e-08
-9.58019e-09
-5.32238e-10
-2.47782e-08
-1.17269e-08
-6.71719e-10
-2.73844e-08
-1.42929e-08
-8.44951e-10
-2.98664e-08
-1.7396e-08
-1.06328e-09
-3.21029e-08
-2.11742e-08
-1.34356e-09
-3.39059e-08
-2.5783e-08
-1.71195e-09
-3.50459e-08
-3.13759e-08
-2.20759e-09
-3.53626e-08
-3.80157e-08
-2.87406e-09
-3.49772e-08
-4.52187e-08
-3.68356e-09
-5.74449e-08
-5.18372e-09
-1.15184e-08
-1.35626e-09
-1.01995e-10
-2.21811e-08
-4.01589e-09
-3.04149e-10
-3.19057e-08
-6.6021e-09
-5.06887e-10
-4.09506e-08
-9.21676e-09
-7.2166e-10
-4.95283e-08
-1.19953e-08
-9.62402e-10
-5.7806e-08
-1.50713e-08
-1.24324e-09
-6.59017e-08
-1.85852e-08
-1.57958e-09
-7.38699e-08
-2.26935e-08
-1.98934e-09
-8.16764e-08
-2.75759e-08
-2.49455e-09
-8.91599e-08
-3.34395e-08
-3.12401e-09
-9.59864e-08
-4.05146e-08
-3.91757e-09
-1.01618e-07
-4.90328e-08
-4.93225e-09
-1.0536e-07
-5.91541e-08
-6.24452e-09
-1.06635e-07
-7.07568e-08
-7.9206e-09
-1.05608e-07
-8.27282e-08
-9.84713e-09
-9.6166e-08
-1.25361e-08
-1.89808e-08
-1.95719e-09
-1.67518e-10
-3.65447e-08
-5.79301e-09
-4.99148e-10
-5.25546e-08
-9.51579e-09
-8.30948e-10
-6.74365e-08
-1.32673e-08
-1.1815e-09
-8.15415e-08
-1.72363e-08
-1.57314e-09
-9.5151e-08
-2.1606e-08
-2.0281e-09
-1.08472e-07
-2.65655e-08
-2.56999e-09
-1.21617e-07
-3.23208e-08
-3.22505e-09
-1.34575e-07
-3.91021e-08
-4.02351e-09
-1.47145e-07
-4.71659e-08
-5.00093e-09
-1.5887e-07
-5.67803e-08
-6.19961e-09
-1.6896e-07
-6.81792e-08
-7.668e-09
-1.76315e-07
-8.1437e-08
-9.44931e-09
-1.79847e-07
-9.61785e-08
-1.15316e-08
-1.79409e-07
-1.10841e-07
-1.36859e-08
-1.26297e-07
-1.56779e-08
-2.61339e-08
-2.47307e-09
-2.28967e-10
-5.03043e-08
-7.31643e-09
-6.81609e-10
-7.23185e-08
-1.2006e-08
-1.13312e-09
-9.27622e-08
-1.67127e-08
-1.60837e-09
-1.12121e-07
-2.16648e-08
-2.13692e-09
-1.3079e-07
-2.70787e-08
-2.74754e-09
-1.49076e-07
-3.31726e-08
-3.46978e-09
-1.67178e-07
-4.0177e-08
-4.33488e-09
-1.85152e-07
-4.83413e-08
-5.37589e-09
-2.02851e-07
-5.79324e-08
-6.62635e-09
-2.19825e-07
-6.92152e-08
-8.11628e-09
-2.35216e-07
-8.23935e-08
-9.86132e-09
-2.47692e-07
-9.74632e-08
-1.18356e-08
-2.5568e-07
-1.13893e-07
-1.3915e-08
-2.58281e-07
-1.29934e-07
-1.57826e-08
-1.45976e-07
-1.69854e-08
-3.28694e-08
-2.88487e-09
-2.84849e-10
-6.32503e-08
-8.53015e-09
-8.47089e-10
-9.08922e-08
-1.39818e-08
-1.40596e-09
-1.16528e-07
-1.94283e-08
-1.99157e-09
-1.40769e-07
-2.51219e-08
-2.63931e-09
-1.64121e-07
-3.12961e-08
-3.38283e-09
-1.86994e-07
-3.81779e-08
-4.25564e-09
-2.09694e-07
-4.59981e-08
-5.29143e-09
-2.32391e-07
-5.49966e-08
-6.52313e-09
-2.55073e-07
-6.54192e-08
-7.97905e-09
-2.77446e-07
-7.74991e-08
-9.67437e-09
-2.98799e-07
-9.14045e-08
-1.15932e-08
-3.17831e-07
-1.07104e-07
-1.36496e-08
-3.32584e-07
-1.24047e-07
-1.56294e-08
-3.40815e-07
-1.40469e-07
-1.71489e-08
-1.56271e-07
-1.77296e-08
-3.90915e-08
-3.17933e-09
-3.34047e-10
-7.51975e-08
-9.39565e-09
-9.92305e-10
-1.08006e-07
-1.53822e-08
-1.64409e-09
-1.38381e-07
-2.13338e-08
-2.32356e-09
-1.67042e-07
-2.75124e-08
-3.0705e-09
-1.94596e-07
-3.41525e-08
-3.92197e-09
-2.21553e-07
-4.14726e-08
-4.91378e-09
-2.48326e-07
-4.96828e-08
-6.08063e-09
-2.75223e-07
-5.89895e-08
-7.45459e-09
-3.02413e-07
-6.95911e-08
-9.06022e-09
-3.29859e-07
-8.16653e-08
-1.09045e-08
-3.57189e-07
-9.53378e-08
-1.29578e-08
-3.83445e-07
-1.10595e-07
-1.51119e-08
-4.06623e-07
-1.2703e-07
-1.71125e-08
-4.22869e-07
-1.43137e-07
-1.85074e-08
-1.58566e-07
-1.891e-08
-4.4719e-08
-3.34905e-09
-3.75844e-10
-8.59899e-08
-9.89193e-09
-1.11519e-09
-1.23435e-07
-1.61759e-08
-1.84422e-09
-1.58025e-07
-2.23927e-08
-2.59997e-09
-1.90569e-07
-2.88008e-08
-3.42519e-09
-2.21756e-07
-3.56231e-08
-4.35898e-09
-2.52176e-07
-4.30558e-08
-5.43813e-09
-2.82332e-07
-5.12733e-08
-6.69742e-09
-3.12653e-07
-6.04296e-08
-8.16818e-09
-3.43475e-07
-7.06537e-08
-9.87385e-09
-3.75021e-07
-8.20396e-08
-1.18214e-08
-4.07314e-07
-9.46334e-08
-1.39864e-08
-4.39955e-07
-1.08409e-07
-1.62783e-08
-4.71488e-07
-1.23184e-07
-1.84718e-08
-4.97338e-07
-1.38176e-07
-2.00995e-08
-1.5407e-07
-2.12052e-08
-4.96855e-08
-4.09899e-10
-3.39198e-09
-9.55015e-08
-1.21482e-09
-1.00142e-08
-1.36999e-07
-2.00508e-09
-1.63589e-08
-1.75229e-07
-2.81935e-09
-2.26069e-08
-2.11066e-07
-3.70207e-09
-2.90034e-08
-2.45254e-07
-4.69299e-09
-3.57504e-08
-2.78431e-07
-5.82875e-09
-4.30136e-08
-3.11157e-07
-7.14324e-09
-5.09236e-08
-3.43924e-07
-8.66658e-09
-5.95724e-08
-3.77165e-07
-1.04218e-08
-6.90047e-08
-4.11242e-07
-1.24186e-08
-7.9203e-08
-4.4639e-07
-1.46429e-08
-9.00641e-08
-4.82519e-07
-1.70318e-08
-1.01366e-07
-5.18563e-07
-1.94131e-08
-1.12667e-07
-5.50352e-07
-2.13944e-08
-1.22967e-07
-2.50057e-08
-1.37336e-07
-3.90581e-09
-7.19806e-10
-3.04922e-11
-7.52248e-09
-2.1326e-09
-9.09484e-11
-1.08226e-08
-3.51025e-09
-1.51575e-10
-1.38942e-08
-4.9094e-09
-2.15719e-10
-1.68089e-08
-6.40477e-09
-2.87461e-10
-1.96225e-08
-8.07057e-09
-3.70882e-10
-2.23721e-08
-9.98561e-09
-4.70327e-10
-2.5071e-08
-1.22381e-08
-5.90653e-10
-2.76995e-08
-1.49295e-08
-7.37507e-10
-3.01922e-08
-1.81771e-08
-9.17681e-10
-3.24255e-08
-2.21117e-08
-1.1395e-09
-3.42154e-08
-2.68673e-08
-1.41282e-09
-3.53529e-08
-3.2544e-08
-1.74656e-09
-3.57211e-08
-3.9095e-08
-2.13769e-09
-3.54776e-08
-4.59067e-08
-2.53682e-09
-5.76527e-08
-3.08098e-09
-1.16486e-08
-1.40546e-09
-9.1001e-11
-2.24327e-08
-4.16292e-09
-2.71277e-10
-3.22703e-08
-6.84813e-09
-4.51789e-10
-4.14238e-08
-9.56899e-09
-6.42507e-10
-5.01079e-08
-1.2468e-08
-8.55466e-10
-5.84903e-08
-1.56851e-08
-1.10257e-09
-6.66861e-08
-1.93675e-08
-1.39626e-09
-7.47436e-08
-2.36768e-08
-1.75007e-09
-8.26182e-08
-2.87962e-08
-2.17902e-09
-9.01356e-08
-3.493e-08
-2.69984e-09
-9.69505e-08
-4.2294e-08
-3.33053e-09
-1.02529e-07
-5.10758e-08
-4.08812e-09
-1.06224e-07
-6.13328e-08
-4.97897e-09
-1.07563e-07
-7.27414e-08
-5.96972e-09
-1.06826e-07
-8.39624e-08
-6.91839e-09
-9.56818e-08
-7.78996e-09
-1.91944e-08
-2.02789e-09
-1.49479e-10
-3.69573e-08
-6.00413e-09
-4.45251e-10
-5.31523e-08
-9.86862e-09
-7.40718e-10
-6.8212e-08
-1.37714e-08
-1.05207e-09
-8.24918e-08
-1.79111e-08
-1.39864e-09
-9.62735e-08
-2.24798e-08
-1.79918e-09
-1.0976e-07
-2.76749e-08
-2.2728e-09
-1.23056e-07
-3.37091e-08
-2.83931e-09
-1.3613e-07
-4.08159e-08
-3.51904e-09
-1.48761e-07
-4.92462e-08
-4.3313e-09
-1.60465e-07
-5.92451e-08
-5.29078e-09
-1.7044e-07
-7.0983e-08
-6.39913e-09
-1.77622e-07
-8.43917e-08
-7.62578e-09
-1.81042e-07
-9.88287e-08
-8.87147e-09
-1.80742e-07
-1.12442e-07
-9.92345e-09
-1.25461e-07
-1.03804e-08
-2.64256e-08
-2.56188e-09
-2.04337e-10
-5.08675e-08
-7.58143e-09
-6.08091e-10
-7.3134e-08
-1.24482e-08
-1.01023e-09
-9.38201e-08
-1.73431e-08
-1.43245e-09
-1.13417e-07
-2.2506e-08
-1.90038e-09
-1.32323e-07
-2.81639e-08
-2.43835e-09
-1.50838e-07
-3.45441e-08
-3.07035e-09
-1.69151e-07
-4.1884e-08
-3.82e-09
-1.87294e-07
-5.04349e-08
-4.70914e-09
-2.05087e-07
-6.04552e-08
-5.75398e-09
-2.22038e-07
-7.21791e-08
-6.95729e-09
-2.37246e-07
-8.57332e-08
-8.29295e-09
-2.4937e-07
-1.00946e-07
-9.67844e-09
-2.56921e-07
-1.16982e-07
-1.09427e-08
-2.59254e-07
-1.31767e-07
-1.18357e-08
-1.44985e-07
-1.19028e-08
-3.32321e-08
-2.98776e-09
-2.54244e-10
-6.39502e-08
-8.83691e-09
-7.55832e-10
-9.19049e-08
-1.44928e-08
-1.25369e-09
-1.17841e-07
-2.0155e-08
-1.77412e-09
-1.42378e-07
-2.60884e-08
-2.34785e-09
-1.66024e-07
-3.25375e-08
-3.00344e-09
-1.89186e-07
-3.97387e-08
-3.76823e-09
-2.12155e-07
-4.79288e-08
-4.6678e-09
-2.35077e-07
-5.73477e-08
-5.72365e-09
-2.57897e-07
-6.82294e-08
-6.94746e-09
-2.80262e-07
-8.07713e-08
-8.33008e-09
-3.01384e-07
-9.5058e-08
-9.82181e-09
-3.19891e-07
-1.10881e-07
-1.12986e-08
-3.33831e-07
-1.27372e-07
-1.25343e-08
-3.41255e-07
-1.42424e-07
-1.32493e-08
-1.55225e-07
-1.30554e-08
-3.95167e-08
-3.29189e-09
-2.98201e-10
-7.60174e-08
-9.73096e-09
-8.85545e-10
-1.09192e-07
-1.59398e-08
-1.4663e-09
-1.39917e-07
-2.21247e-08
-2.07035e-09
-1.68923e-07
-2.85605e-08
-2.73231e-09
-1.96821e-07
-3.54927e-08
-3.48375e-09
-2.24118e-07
-4.31483e-08
-4.35408e-09
-2.51215e-07
-5.17423e-08
-5.36987e-09
-2.78391e-07
-6.14784e-08
-6.55214e-09
-3.05771e-07
-7.25407e-08
-7.90999e-09
-3.33246e-07
-8.50681e-08
-9.42887e-09
-3.60339e-07
-9.91025e-08
-1.10507e-08
-3.85956e-07
-1.14458e-07
-1.26378e-08
-4.07988e-07
-1.30413e-07
-1.39393e-08
-4.2286e-07
-1.45108e-07
-1.46311e-08
-1.57491e-07
-1.44375e-08
-4.51974e-08
-3.46674e-09
-3.35568e-10
-8.69115e-08
-1.02423e-08
-9.95376e-10
-1.24766e-07
-1.67576e-08
-1.64512e-09
-1.59747e-07
-2.32154e-08
-2.31723e-09
-1.92677e-07
-2.98872e-08
-3.04899e-09
-2.24249e-07
-3.70062e-08
-3.87384e-09
-2.5505e-07
-4.47757e-08
-4.82225e-09
-2.85575e-07
-5.3373e-08
-5.92116e-09
-3.16223e-07
-6.29477e-08
-7.19149e-09
-3.47288e-07
-7.3612e-08
-8.64253e-09
-3.78916e-07
-8.54206e-08
-1.02616e-08
-4.11007e-07
-9.8339e-08
-1.19975e-08
-4.42981e-07
-1.12184e-07
-1.37288e-08
-4.73167e-07
-1.26481e-07
-1.52251e-08
-4.97151e-07
-1.40091e-07
-1.61407e-08
-1.52831e-07
-1.65103e-08
-5.0207e-08
-3.66037e-10
-3.51034e-09
-9.65054e-08
-1.0845e-09
-1.03662e-08
-1.38447e-07
-1.78899e-09
-1.69425e-08
-1.771e-07
-2.51343e-09
-2.34305e-08
-2.13352e-07
-3.29665e-09
-3.00874e-08
-2.47953e-07
-4.17283e-09
-3.71247e-08
-2.81543e-07
-5.17251e-09
-4.47137e-08
-3.14669e-07
-6.32228e-09
-5.29861e-08
-3.47802e-07
-7.64289e-09
-6.20277e-08
-3.81331e-07
-9.14469e-09
-7.18653e-08
-4.15544e-07
-1.08197e-08
-8.24432e-08
-4.50557e-07
-1.26287e-08
-9.35843e-08
-4.86087e-07
-1.44767e-08
-1.04932e-07
-5.2081e-07
-1.6175e-08
-1.1581e-07
-5.50558e-07
-1.74185e-08
-1.24898e-07
-1.96433e-08
-1.35927e-07
-3.94236e-09
-7.41487e-10
-2.57361e-11
-7.59305e-09
-2.19729e-09
-7.67378e-11
-1.09246e-08
-3.61813e-09
-1.27802e-10
-1.40258e-08
-5.06298e-09
-1.81675e-10
-1.69687e-08
-6.60908e-09
-2.41672e-10
-1.98086e-08
-8.33261e-09
-3.11001e-10
-2.25815e-08
-1.03136e-08
-3.9289e-10
-2.52983e-08
-1.26399e-08
-4.90608e-10
-2.79361e-08
-1.54104e-08
-6.07359e-10
-3.04264e-08
-1.87346e-08
-7.45949e-10
-3.26437e-08
-2.2728e-08
-9.08038e-10
-3.4408e-08
-2.74956e-08
-1.09257e-09
-3.55236e-08
-3.30938e-08
-1.29258e-09
-3.58951e-08
-3.94306e-08
-1.48986e-09
-3.56866e-08
-4.59169e-08
-1.64912e-09
-5.74857e-08
-1.78598e-09
-1.17574e-08
-1.44769e-09
-7.68128e-11
-2.26427e-08
-4.28884e-09
-2.28908e-10
-3.25737e-08
-7.05798e-09
-3.80963e-10
-4.18154e-08
-9.86736e-09
-5.41168e-10
-5.05834e-08
-1.28643e-08
-7.19311e-10
-5.90444e-08
-1.61924e-08
-9.24763e-10
-6.731e-08
-2.00009e-08
-1.16678e-09
-7.54215e-08
-2.4451e-08
-1.45447e-09
-8.33249e-08
-2.97198e-08
-1.7962e-09
-9.08347e-08
-3.59971e-08
-2.1982e-09
-9.75987e-08
-4.3468e-08
-2.6616e-09
-1.0309e-07
-5.22651e-08
-3.17712e-09
-1.06692e-07
-6.23607e-08
-3.71575e-09
-1.07993e-07
-7.33414e-08
-4.21655e-09
-1.07305e-07
-8.38972e-08
-4.58436e-09
-9.482e-08
-4.69995e-09
-1.93727e-08
-2.08857e-09
-1.26187e-10
-3.73015e-08
-6.18498e-09
-3.75753e-10
-5.36496e-08
-1.01696e-08
-6.24679e-10
-6.88538e-08
-1.41987e-08
-8.86287e-10
-8.32713e-08
-1.84774e-08
-1.17632e-09
-9.71826e-08
-2.32026e-08
-1.50959e-09
-1.10785e-07
-2.85745e-08
-1.90035e-09
-1.24171e-07
-3.48043e-08
-2.36193e-09
-1.37295e-07
-4.21165e-08
-2.90534e-09
-1.49913e-07
-5.07407e-08
-3.53596e-09
-1.61524e-07
-6.08785e-08
-4.24757e-09
-1.71324e-07
-7.26231e-08
-5.01244e-09
-1.78282e-07
-8.57874e-08
-5.76688e-09
-1.81509e-07
-9.96043e-08
-6.40059e-09
-1.81136e-07
-1.12251e-07
-6.78276e-09
-1.24036e-07
-6.62195e-09
-2.66692e-08
-2.63812e-09
-1.7252e-10
-5.13374e-08
-7.8085e-09
-5.13247e-10
-7.38126e-08
-1.28257e-08
-8.52106e-10
-9.46958e-08
-1.78778e-08
-1.20699e-09
-1.14481e-07
-2.32126e-08
-1.5988e-09
-1.33564e-07
-2.90628e-08
-2.04682e-09
-1.52239e-07
-3.56584e-08
-2.56905e-09
-1.70679e-07
-4.32339e-08
-3.18144e-09
-1.88894e-07
-5.2029e-08
-3.89535e-09
-2.06672e-07
-6.22754e-08
-4.71239e-09
-2.23486e-07
-7.41535e-08
-5.61544e-09
-2.38412e-07
-8.76974e-08
-6.55445e-09
-2.50124e-07
-1.02595e-07
-7.42843e-09
-2.57223e-07
-1.17864e-07
-8.08283e-09
-2.59234e-07
-1.31467e-07
-8.37355e-09
-1.43199e-07
-8.0017e-09
-3.35351e-08
-3.07611e-09
-2.14688e-10
-6.45344e-08
-9.09989e-09
-6.38045e-10
-9.27482e-08
-1.49293e-08
-1.05766e-09
-1.18929e-07
-2.07718e-08
-1.49524e-09
-1.43699e-07
-2.69011e-08
-1.97594e-09
-1.67567e-07
-3.35675e-08
-2.52249e-09
-1.90929e-07
-4.10095e-08
-3.15554e-09
-2.14061e-07
-4.94601e-08
-3.8925e-09
-2.37079e-07
-5.9145e-08
-4.74423e-09
-2.59887e-07
-7.02672e-08
-5.70865e-09
-2.82078e-07
-8.29647e-08
-6.75964e-09
-3.02814e-07
-9.72211e-08
-7.83053e-09
-3.20702e-07
-1.12677e-07
-8.79317e-09
-3.33868e-07
-1.28307e-07
-9.46032e-09
-3.40636e-07
-1.42045e-07
-9.67397e-09
-1.53239e-07
-9.2044e-09
-3.98722e-08
-3.38858e-09
-2.51847e-10
-7.67024e-08
-1.00186e-08
-7.47672e-10
-1.1018e-07
-1.64164e-08
-1.23727e-09
-1.4119e-07
-2.27966e-08
-1.74538e-09
-1.70469e-07
-2.94429e-08
-2.30037e-09
-1.98628e-07
-3.66065e-08
-2.92751e-09
-2.26162e-07
-4.4516e-08
-3.64923e-09
-2.53455e-07
-5.33812e-08
-4.48384e-09
-2.80754e-07
-6.33902e-08
-5.44206e-09
-3.08133e-07
-7.46931e-08
-6.5203e-09
-3.35415e-07
-8.73677e-08
-7.68931e-09
-3.62041e-07
-1.01353e-07
-8.87797e-09
-3.86853e-07
-1.16311e-07
-9.95044e-09
-4.07787e-07
-1.3136e-07
-1.07042e-08
-4.21619e-07
-1.44673e-07
-1.09499e-08
-1.55406e-07
-1.05476e-08
-4.55975e-08
-3.56789e-09
-2.83453e-10
-8.7682e-08
-1.05429e-08
-8.40557e-10
-1.25877e-07
-1.7255e-08
-1.38847e-09
-1.61177e-07
-2.39151e-08
-1.95406e-09
-1.94412e-07
-3.08032e-08
-2.568e-09
-2.26276e-07
-3.81578e-08
-3.25719e-09
-2.57346e-07
-4.61832e-08
-4.04509e-09
-2.88097e-07
-5.50506e-08
-4.9506e-09
-3.18895e-07
-6.48928e-08
-5.98491e-09
-3.4998e-07
-7.57882e-08
-7.14545e-09
-3.81417e-07
-8.77315e-08
-8.4059e-09
-4.13004e-07
-1.00589e-07
-9.70219e-09
-4.4405e-07
-1.14034e-07
-1.09116e-08
-4.72871e-07
-1.2743e-07
-1.1844e-08
-4.95424e-07
-1.39646e-07
-1.22865e-08
-1.50604e-07
-1.23153e-08
-5.06437e-08
-3.09245e-10
-3.61212e-09
-9.73455e-08
-9.15996e-10
-1.06685e-08
-1.39657e-07
-1.51024e-09
-1.7442e-08
-1.78656e-07
-2.12014e-09
-2.41317e-08
-2.15239e-07
-2.77773e-09
-3.10027e-08
-2.50156e-07
-3.51063e-09
-3.82714e-08
-2.84037e-07
-4.34261e-09
-4.61093e-08
-3.17415e-07
-5.29269e-09
-5.46414e-08
-3.50725e-07
-6.37261e-09
-6.39369e-08
-3.843e-07
-7.5819e-09
-7.39906e-08
-4.18349e-07
-8.89978e-09
-8.46917e-08
-4.52875e-07
-1.02736e-08
-9.57749e-08
-4.87465e-07
-1.16023e-08
-1.06759e-07
-5.2073e-07
-1.2724e-08
-1.16829e-07
-5.4879e-07
-1.34436e-08
-1.24639e-07
-1.481e-08
-1.33624e-07
-3.97159e-09
-7.59159e-10
-2.00961e-11
-7.64939e-09
-2.2499e-09
-5.99032e-11
-1.10057e-08
-3.70551e-09
-9.97003e-11
-1.41299e-08
-5.18648e-09
-1.41576e-10
-1.70939e-08
-6.77162e-09
-1.88018e-10
-1.99526e-08
-8.53787e-09
-2.41356e-10
-2.27404e-08
-1.05649e-08
-3.03779e-10
-2.54663e-08
-1.29385e-08
-3.77235e-10
-2.81046e-08
-1.57525e-08
-4.63126e-10
-3.05838e-08
-1.91069e-08
-5.61705e-10
-3.27771e-08
-2.31017e-08
-6.71039e-10
-3.45066e-08
-2.78205e-08
-7.85434e-10
-3.55838e-08
-3.32978e-08
-8.93585e-10
-3.59223e-08
-3.94391e-08
-9.78158e-10
-3.56897e-08
-4.5708e-08
-1.0214e-09
-5.71621e-08
-1.00898e-09
-1.18444e-08
-1.48211e-09
-5.99836e-11
-2.28103e-08
-4.39128e-09
-1.78703e-10
-3.28151e-08
-7.22796e-09
-2.9722e-10
-4.2125e-08
-1.01073e-08
-4.21763e-10
-5.0956e-08
-1.31796e-08
-5.59697e-10
-5.9473e-08
-1.659e-08
-7.1783e-10
-6.77835e-08
-2.04868e-08
-9.0246e-10
-7.59225e-08
-2.50271e-08
-1.11899e-09
-8.38272e-08
-3.03782e-08
-1.37094e-09
-9.13033e-08
-3.67116e-08
-1.65793e-09
-9.79928e-08
-4.41827e-08
-1.97232e-09
-1.03372e-07
-5.28829e-08
-2.29459e-09
-1.06846e-07
-6.27413e-08
-2.58837e-09
-1.08029e-07
-7.33354e-08
-2.80142e-09
-1.07255e-07
-8.34454e-08
-2.8879e-09
-9.40014e-08
-2.75457e-09
-1.95153e-08
-2.13803e-09
-9.85496e-11
-3.75762e-08
-6.33212e-09
-2.93372e-10
-5.40451e-08
-1.04136e-08
-4.87422e-10
-6.93612e-08
-1.45426e-08
-6.90849e-10
-8.38821e-08
-1.89283e-08
-9.15515e-10
-9.78855e-08
-2.37698e-08
-1.17222e-09
-1.11562e-07
-2.92657e-08
-1.47069e-09
-1.24994e-07
-3.56209e-08
-1.81886e-09
-1.38121e-07
-4.30463e-08
-2.22097e-09
-1.50681e-07
-5.17452e-08
-2.67392e-09
-1.62161e-07
-6.18777e-08
-3.16156e-09
-1.71755e-07
-7.34786e-08
-3.64703e-09
-1.78458e-07
-8.63002e-08
-4.06622e-09
-1.81433e-07
-9.95598e-08
-4.33412e-09
-1.80872e-07
-1.11552e-07
-4.39181e-09
-1.2276e-07
-4.07247e-09
-2.68639e-08
-2.70029e-09
-1.34752e-10
-5.17125e-08
-7.99333e-09
-4.00773e-10
-7.43525e-08
-1.31317e-08
-6.64982e-10
-9.53885e-08
-1.83084e-08
-9.41028e-10
-1.15315e-07
-2.37759e-08
-1.2447e-09
-1.34524e-07
-2.97692e-08
-1.59011e-09
-1.53302e-07
-3.65161e-08
-1.98966e-09
-1.71806e-07
-4.42432e-08
-2.45282e-09
-1.90026e-07
-5.31728e-08
-2.98349e-09
-2.07723e-07
-6.35045e-08
-3.57481e-09
-2.24344e-07
-7.53682e-08
-4.2015e-09
-2.38954e-07
-8.87272e-08
-4.80986e-09
-2.50249e-07
-1.03196e-07
-5.31027e-09
-2.56904e-07
-1.17775e-07
-5.59119e-09
-2.58576e-07
-1.30566e-07
-5.59078e-09
-1.41584e-07
-5.14471e-09
-3.37775e-08
-3.14818e-09
-1.67711e-10
-6.50009e-08
-9.31403e-09
-4.98298e-10
-9.34194e-08
-1.52834e-08
-8.25543e-10
-1.1979e-07
-2.12689e-08
-1.16605e-09
-1.44736e-07
-2.75497e-08
-1.53885e-09
-1.68761e-07
-3.43781e-08
-1.96068e-09
-1.92253e-07
-4.199e-08
-2.44587e-09
-2.15468e-07
-5.06089e-08
-3.0049e-09
-2.38495e-07
-6.04403e-08
-3.64112e-09
-2.61202e-07
-7.16514e-08
-4.34476e-09
-2.83143e-07
-8.43239e-08
-5.08411e-09
-3.03449e-07
-9.83636e-08
-5.79426e-09
-3.20737e-07
-1.13331e-07
-6.36815e-09
-3.33229e-07
-1.2818e-07
-6.6746e-09
-3.39459e-07
-1.41001e-07
-6.64358e-09
-1.51406e-07
-6.15981e-09
-4.01566e-08
-3.46751e-09
-1.96769e-10
-7.72497e-08
-1.02529e-08
-5.84009e-10
-1.10967e-07
-1.68033e-08
-9.65932e-10
-1.42199e-07
-2.33387e-08
-1.36147e-09
-1.71684e-07
-3.01482e-08
-1.79219e-09
-2.00028e-07
-3.74848e-08
-2.27678e-09
-2.27716e-07
-4.55741e-08
-2.83094e-09
-2.55111e-07
-5.46155e-08
-3.46595e-09
-2.82427e-07
-6.47752e-08
-4.18518e-09
-3.09695e-07
-7.61657e-08
-4.9781e-09
-3.36681e-07
-8.88062e-08
-5.81133e-09
-3.62778e-07
-1.02556e-07
-6.61768e-09
-3.86815e-07
-1.16992e-07
-7.28568e-09
-4.06827e-07
-1.31209e-07
-7.67375e-09
-4.19886e-07
-1.4354e-07
-7.68811e-09
-1.53436e-07
-7.27158e-09
-4.5918e-08
-3.6505e-09
-2.21499e-10
-8.82982e-08
-1.0788e-08
-6.56677e-10
-1.26762e-07
-1.76592e-08
-1.0842e-09
-1.62312e-07
-2.44802e-08
-1.52468e-09
-1.95778e-07
-3.15364e-08
-2.00149e-09
-2.2785e-07
-3.90678e-08
-2.53461e-09
-2.59096e-07
-4.72754e-08
-3.1407e-09
-2.89968e-07
-5.63195e-08
-3.83167e-09
-3.20796e-07
-6.6311e-08
-4.61162e-09
-3.5177e-07
-7.72907e-08
-5.47136e-09
-3.82889e-07
-8.9196e-08
-6.38042e-09
-4.13882e-07
-1.01815e-07
-7.27756e-09
-4.44019e-07
-1.14738e-07
-8.06049e-09
-4.71691e-07
-1.27296e-07
-8.59339e-09
-4.93202e-07
-1.38494e-07
-8.76069e-09
-1.48491e-07
-8.6469e-09
-5.09937e-08
-2.41694e-10
-3.69529e-09
-9.80182e-08
-7.15745e-10
-1.09152e-08
-1.40623e-07
-1.17954e-09
-1.78482e-08
-1.79893e-07
-1.65474e-09
-2.46985e-08
-2.16727e-07
-2.1658e-09
-3.17364e-08
-2.51871e-07
-2.73338e-09
-3.91795e-08
-2.85947e-07
-3.37453e-09
-4.71958e-08
-3.19463e-07
-4.10154e-09
-5.58995e-08
-3.52819e-07
-4.91942e-09
-6.53389e-08
-3.86298e-07
-5.82137e-09
-7.54741e-08
-4.20037e-07
-6.78203e-09
-8.61414e-08
-4.53958e-07
-7.74951e-09
-9.7005e-08
-4.8759e-07
-8.63708e-09
-1.0751e-07
-5.1959e-07
-9.32583e-09
-1.16808e-07
-5.46388e-07
-9.70568e-09
-1.23652e-07
-1.05157e-08
-1.31466e-07
-3.99346e-09
-7.72559e-10
-1.3779e-11
-7.69148e-09
-2.28973e-09
-4.10632e-11
-1.10661e-08
-3.77138e-09
-6.83079e-11
-1.42069e-08
-5.27897e-09
-9.69128e-11
-1.71859e-08
-6.89211e-09
-1.28529e-10
-2.0057e-08
-8.68782e-09
-1.64652e-10
-2.28537e-08
-1.07447e-08
-2.06601e-10
-2.55829e-08
-1.3146e-08
-2.55379e-10
-2.82168e-08
-1.59801e-08
-3.11374e-10
-3.06816e-08
-1.93391e-08
-3.73798e-10
-3.28494e-08
-2.33114e-08
-4.39859e-10
-3.45431e-08
-2.79684e-08
-5.03744e-10
-3.55782e-08
-3.33379e-08
-5.55998e-10
-3.58732e-08
-3.93378e-08
-5.85106e-10
-3.56014e-08
-4.54733e-08
-5.84503e-10
-5.68417e-08
-5.3829e-10
-1.19094e-08
-1.5082e-09
-4.11302e-11
-2.29355e-08
-4.46881e-09
-1.22506e-10
-3.29947e-08
-7.35612e-09
-2.03648e-10
-4.23543e-08
-1.02871e-08
-2.88734e-10
-5.12296e-08
-1.34135e-08
-3.82653e-10
-5.97837e-08
-1.68807e-08
-4.89791e-10
-6.81206e-08
-2.08349e-08
-6.13945e-10
-7.62697e-08
-2.54278e-08
-7.57895e-10
-8.41614e-08
-3.08171e-08
-9.22459e-10
-9.15941e-08
-3.71584e-08
-1.10477e-09
-9.82056e-08
-4.45853e-08
-1.29572e-09
-1.03475e-07
-5.31654e-08
-1.4771e-09
-1.06816e-07
-6.28149e-08
-1.62018e-09
-1.07864e-07
-7.31326e-08
-1.69142e-09
-1.06976e-07
-8.2976e-08
-1.67505e-09
-9.33606e-08
-1.51612e-09
-1.96219e-08
-2.17554e-09
-6.75799e-11
-3.77813e-08
-6.44352e-09
-2.01131e-10
-5.43394e-08
-1.05975e-08
-3.34004e-10
-6.97369e-08
-1.48002e-08
-4.73011e-10
-8.43304e-08
-1.9263e-08
-6.26042e-10
-9.8395e-08
-2.41848e-08
-8.00073e-10
-1.12115e-07
-2.97614e-08
-1.001e-09
-1.25565e-07
-3.61902e-08
-1.23289e-09
-1.38669e-07
-4.36679e-08
-1.49636e-09
-1.51157e-07
-5.23759e-08
-1.78565e-09
-1.62501e-07
-6.24432e-08
-2.08449e-09
-1.719e-07
-7.38716e-08
-2.36167e-09
-1.78364e-07
-8.63944e-08
-2.56973e-09
-1.81096e-07
-9.92575e-08
-2.65614e-09
-1.8034e-07
-1.10861e-07
-2.60306e-09
-1.21812e-07
-2.32811e-09
-2.70096e-08
-2.74745e-09
-9.24144e-11
-5.19926e-08
-8.1333e-09
-2.74793e-10
-7.47544e-08
-1.33625e-08
-4.55734e-10
-9.59013e-08
-1.86312e-08
-6.44416e-10
-1.15927e-07
-2.41944e-08
-8.51362e-10
-1.35221e-07
-3.02867e-08
-1.08573e-09
-1.54059e-07
-3.71324e-08
-1.35507e-09
-1.72587e-07
-4.49487e-08
-1.66426e-09
-1.90778e-07
-5.39403e-08
-2.01334e-09
-2.08371e-07
-6.42799e-08
-2.39352e-09
-2.24798e-07
-7.60598e-08
-2.78195e-09
-2.39116e-07
-8.92027e-08
-3.13614e-09
-2.50047e-07
-1.033e-07
-3.39272e-09
-2.56325e-07
-1.17387e-07
-3.4843e-09
-2.57705e-07
-1.29692e-07
-3.39386e-09
-1.40392e-07
-3.04151e-09
-3.39588e-08
-3.20288e-09
-1.15032e-10
-6.53495e-08
-9.47628e-09
-3.41704e-10
-9.39193e-08
-1.55507e-08
-5.65856e-10
-1.20428e-07
-2.1642e-08
-7.98671e-10
-1.45497e-07
-2.80321e-08
-1.05287e-09
-1.69627e-07
-3.49731e-08
-1.33935e-09
-1.93196e-07
-4.26962e-08
-1.66692e-09
-2.16442e-07
-5.14144e-08
-2.04107e-09
-2.39435e-07
-6.13133e-08
-2.46135e-09
-2.62012e-07
-7.25298e-08
-2.91696e-09
-2.837e-07
-8.51038e-08
-3.38083e-09
-3.03616e-07
-9.88955e-08
-3.80347e-09
-3.20401e-07
-1.13438e-07
-4.11101e-09
-3.32358e-07
-1.27726e-07
-4.22448e-09
-3.38176e-07
-1.39991e-07
-4.12166e-09
-1.50041e-07
-3.75135e-09
-4.03696e-08
-3.52743e-09
-1.34979e-10
-7.76589e-08
-1.04306e-08
-4.00535e-10
-1.11553e-07
-1.70956e-08
-6.62195e-10
-1.42947e-07
-2.37458e-08
-9.32733e-10
-1.72577e-07
-3.06733e-08
-1.2266e-09
-2.01045e-07
-3.81307e-08
-1.55601e-09
-2.28825e-07
-4.63383e-08
-1.93074e-09
-2.56261e-07
-5.54842e-08
-2.35683e-09
-2.8354e-07