/*--------------------------------*- C++ -*----------------------------------*\
| =========                 |                                                 |
| \\      /  F ield         | foam-extend: Open Source CFD                    |
|  \\    /   O peration     | Version:     3.1                                |
|   \\  /    A nd           | Web:         http://www.extend-project.de       |
|    \\/     M anipulation  |                                                 |
\*---------------------------------------------------------------------------*/
FoamFile
{
    version     2.0;
    format      ascii;
    class       surfaceScalarField;
    location    "3.3";
    object      phi;
}
// * * * * * * * * * * * * * * * * * * * * * * * * * * * * * * * * * * * * * //

dimensions      [0 3 -1 0 0 0 0];

internalField   nonuniform List<scalar> 
41600
(
1.18676e-05
-6.83654e-08
-1.18293e-06
1.19444e-06
1.17755e-05
8.62923e-08
-2.1396e-06
2.14547e-06
1.15423e-05
2.39246e-07
-2.73142e-06
2.72539e-06
1.12015e-05
3.59476e-07
-3.27801e-06
3.25934e-06
1.0782e-05
4.52017e-07
-3.89486e-06
3.86229e-06
1.03183e-05
5.13794e-07
-4.63287e-06
4.58278e-06
9.85244e-06
5.39029e-07
-5.52249e-06
5.44933e-06
9.43053e-06
5.23725e-07
-6.59345e-06
6.49163e-06
9.0997e-06
4.64209e-07
-7.88746e-06
7.75408e-06
8.90884e-06
3.52001e-07
-9.4694e-06
9.30826e-06
8.91503e-06
1.64042e-07
-1.14409e-05
1.12706e-05
9.18631e-06
-1.49099e-07
-1.39509e-05
1.38287e-05
9.75273e-06
-6.57112e-07
-1.71693e-05
1.726e-05
1.03027e-05
-1.34651e-06
-2.1052e-05
2.18486e-05
8.9383e-06
-1.58837e-06
-2.43053e-05
2.7258e-05
-2.64859e-07
-1.97176e-05
2.89534e-05
3.30498e-05
-2.09837e-08
-1.39563e-06
1.44482e-06
3.28002e-05
2.64738e-07
-3.26697e-06
3.33815e-06
3.23755e-05
5.92426e-07
-4.68859e-06
4.76015e-06
3.17691e-05
8.93067e-07
-6.01531e-06
6.0881e-06
3.09987e-05
1.14415e-06
-7.45545e-06
7.53366e-06
3.01055e-05
1.32507e-06
-9.12364e-06
9.20564e-06
2.9148e-05
1.41943e-06
-1.10824e-05
1.11595e-05
2.81901e-05
1.4212e-06
-1.33767e-05
1.34371e-05
2.72861e-05
1.33162e-06
-1.60641e-05
1.61007e-05
2.6469e-05
1.14852e-06
-1.9242e-05
1.92626e-05
2.5742e-05
8.44914e-07
-2.30769e-05
2.3123e-05
2.50534e-05
3.47911e-07
-2.78299e-05
2.80215e-05
2.41844e-05
-4.85273e-07
-3.37894e-05
3.44866e-05
2.22886e-05
-1.7559e-06
-4.07153e-05
4.30205e-05
1.65068e-05
-2.72975e-06
-4.55854e-05
5.25085e-05
-1.31713e-06
-3.40827e-05
5.1737e-05
5.13499e-05
2.30624e-09
-1.11927e-06
1.18013e-06
5.10927e-05
4.08446e-07
-3.01465e-06
3.12814e-06
5.06761e-05
8.72262e-07
-4.66473e-06
4.80151e-06
5.00786e-05
1.329e-06
-6.28431e-06
6.44584e-06
4.92838e-05
1.7396e-06
-8.06414e-06
8.26354e-06
4.82936e-05
2.0693e-06
-1.01439e-05
1.03898e-05
4.71331e-05
2.29103e-06
-1.26112e-05
1.29001e-05
4.58414e-05
2.39514e-06
-1.55195e-05
1.58372e-05
4.4453e-05
2.38903e-06
-1.89171e-05
1.9248e-05
4.29722e-05
2.28695e-06
-2.28826e-05
2.3225e-05
4.13416e-05
2.08361e-06
-2.75673e-05
2.79592e-05
3.93896e-05
1.72369e-06
-3.32453e-05
3.38214e-05
3.66799e-05
1.05024e-06
-4.03057e-05
4.14799e-05
3.19378e-05
-1.7912e-07
-4.8661e-05
5.18263e-05
2.18598e-05
-1.7687e-06
-5.47703e-05
6.38873e-05
-1.80591e-06
-4.08669e-05
6.33813e-05
6.66232e-05
-2.85535e-09
-8.79816e-07
9.35498e-07
6.64104e-05
5.04344e-07
-2.50961e-06
2.62655e-06
6.60692e-05
1.06316e-06
-4.02816e-06
4.17842e-06
6.55834e-05
1.62948e-06
-5.57331e-06
5.75862e-06
6.49123e-05
2.16902e-06
-7.30582e-06
7.54757e-06
6.40112e-05
2.64833e-06
-9.37873e-06
9.70076e-06
6.28491e-05
3.03979e-06
-1.19141e-05
1.23274e-05
6.14138e-05
3.3339e-06
-1.49956e-05
1.54921e-05
5.97016e-05
3.5431e-06
-1.86813e-05
1.92395e-05
5.76874e-05
3.69938e-06
-2.30337e-05
2.36354e-05
5.52792e-05
3.83e-06
-2.8167e-05
2.88288e-05
5.22306e-05
3.9346e-06
-3.43205e-05
3.51582e-05
4.79642e-05
3.91634e-06
-4.19432e-05
4.33434e-05
4.08379e-05
3.47309e-06
-5.12596e-05
5.47337e-05
2.68614e-05
2.10317e-06
-5.88866e-05
6.89912e-05
-2.52611e-07
-4.48785e-05
7.04368e-05
7.88349e-05
-2.0085e-08
-7.27983e-07
7.75793e-07
7.8663e-05
5.72481e-07
-2.1068e-06
2.21063e-06
7.83926e-05
1.20031e-06
-3.41454e-06
3.54774e-06
7.80203e-05
1.84046e-06
-4.75568e-06
4.91708e-06
7.75001e-05
2.47526e-06
-6.26715e-06
6.48112e-06
7.67581e-05
3.08658e-06
-8.10707e-06
8.41079e-06
7.57139e-05
3.66015e-06
-1.04319e-05
1.08558e-05
7.42983e-05
4.19733e-06
-1.33726e-05
1.39248e-05
7.24575e-05
4.72101e-06
-1.70268e-05
1.76897e-05
7.01294e-05
5.28361e-06
-2.14725e-05
2.22163e-05
6.71973e-05
5.94729e-06
-2.68082e-05
2.7623e-05
6.33694e-05
6.78992e-06
-3.32314e-05
3.4204e-05
5.80051e-05
7.81927e-06
-4.11807e-05
4.26421e-05
4.90997e-05
8.94772e-06
-5.12344e-05
5.46652e-05
3.17471e-05
9.05219e-06
-6.0426e-05
7.08296e-05
4.07852e-06
-4.71968e-05
7.49542e-05
8.79845e-05
-3.64622e-08
-6.28985e-07
6.70222e-07
8.78423e-05
6.24769e-07
-1.82509e-06
1.91495e-06
8.76272e-05
1.30428e-06
-2.95598e-06
3.06715e-06
8.73468e-05
1.99533e-06
-4.10489e-06
4.23044e-06
8.6962e-05
2.69926e-06
-5.38495e-06
5.54575e-06
8.63902e-05
3.41922e-06
-6.94516e-06
7.18428e-06
8.55233e-05
4.16305e-06
-8.9587e-06
9.32277e-06
8.42506e-05
4.95298e-06
-1.15957e-05
1.21127e-05
8.24753e-05
5.83047e-06
-1.50004e-05
1.56663e-05
8.01e-05
6.8755e-06
-1.92874e-05
2.00709e-05
7.69896e-05
8.18754e-06
-2.45653e-05
2.54355e-05
7.28198e-05
9.94861e-06
-3.10139e-05
3.2025e-05
6.69361e-05
1.22795e-05
-3.90102e-05
4.04336e-05
5.71011e-05
1.55906e-05
-4.94316e-05
5.26238e-05
3.71104e-05
1.88345e-05
-6.00154e-05
7.02238e-05
1.22944e-05
-4.79273e-05
7.72575e-05
9.40766e-05
-4.44397e-08
-5.58481e-07
5.95117e-07
9.39579e-05
6.64291e-07
-1.62247e-06
1.70163e-06
9.3792e-05
1.37646e-06
-2.62061e-06
2.71439e-06
9.35934e-05
2.09769e-06
-3.62129e-06
3.7175e-06
9.33326e-05
2.84678e-06
-4.71681e-06
4.83012e-06
9.2931e-05
3.64801e-06
-6.0384e-06
6.21118e-06
9.22737e-05
4.53292e-06
-7.75627e-06
8.04371e-06
9.12336e-05
5.54742e-06
-1.00561e-05
1.05018e-05
8.96944e-05
6.75442e-06
-1.31104e-05
1.37256e-05
8.75476e-05
8.26274e-06
-1.70612e-05
1.78208e-05
8.46668e-05
1.02066e-05
-2.20267e-05
2.28884e-05
8.07414e-05
1.28917e-05
-2.8178e-05
2.91603e-05
7.51341e-05
1.65668e-05
-3.5795e-05
3.7115e-05
6.56445e-05
2.23194e-05
-4.59086e-05
4.86694e-05
4.43933e-05
3.06729e-05
-5.74723e-05
6.68852e-05
2.69885e-05
-4.64963e-05
7.67254e-05
9.71152e-05
-5.06021e-07
5.39771e-07
-4.01844e-08
9.70182e-05
-1.47074e-06
1.54234e-06
6.89652e-07
9.69041e-05
-2.36733e-06
2.4488e-06
1.40912e-06
9.67913e-05
-3.25461e-06
3.33087e-06
2.13426e-06
9.66578e-05
-4.21073e-06
4.29189e-06
2.89909e-06
9.64338e-05
-5.35051e-06
5.47619e-06
3.74631e-06
9.6011e-05
-6.83125e-06
7.05892e-06
4.72803e-06
9.52683e-05
-8.83293e-06
9.21381e-06
5.90921e-06
9.40988e-05
-1.15281e-05
1.20837e-05
7.36837e-06
9.24224e-05
-1.50573e-05
1.57686e-05
9.22781e-06
9.01701e-05
-1.95216e-05
2.03435e-05
1.16371e-05
8.7189e-05
-2.50476e-05
2.59585e-05
1.4962e-05
8.29971e-05
-3.17902e-05
3.2955e-05
1.95939e-05
7.59417e-05
-4.0482e-05
4.25488e-05
2.7308e-05
5.76575e-05
-5.21839e-05
5.95548e-05
4.15861e-05
-4.14083e-05
6.96333e-05
5.70429e-05
1.26658e-05
-8.67647e-08
-1.12338e-06
1.25094e-05
5.87598e-08
-2.04195e-06
1.21854e-05
2.08277e-07
-2.61575e-06
1.17289e-05
3.24654e-07
-3.14609e-06
1.11652e-05
4.12404e-07
-3.74362e-06
1.05225e-05
4.68252e-07
-4.45844e-06
9.8354e-06
4.84827e-07
-5.32019e-06
9.14097e-06
4.56167e-07
-6.35519e-06
8.47331e-06
3.76751e-07
-7.59655e-06
7.85896e-06
2.36313e-07
-9.09137e-06
7.31625e-06
8.29428e-09
-1.09064e-05
6.84518e-06
-3.58455e-07
-1.31213e-05
6.38233e-06
-9.43999e-07
-1.57624e-05
5.60831e-06
-1.73929e-06
-1.85387e-05
3.56859e-06
-2.36295e-06
-1.99026e-05
-1.89238e-06
-1.42215e-05
3.5329e-05
-4.41678e-08
-1.29773e-06
3.49705e-05
2.19361e-07
-3.06907e-06
3.43819e-05
5.34069e-07
-4.4258e-06
3.35573e-05
8.24127e-07
-5.69014e-06
3.25072e-05
1.06459e-06
-7.05755e-06
3.12602e-05
1.23252e-06
-8.64091e-06
2.98598e-05
1.30697e-06
-1.05041e-05
2.83517e-05
1.27702e-06
-1.26895e-05
2.67666e-05
1.1399e-06
-1.52421e-05
2.51003e-05
8.89832e-07
-1.82292e-05
2.32939e-05
4.93485e-07
-2.17557e-05
2.11998e-05
-1.34765e-07
-2.59595e-05
1.84961e-05
-1.17364e-06
-3.0856e-05
1.4485e-05
-2.71148e-06
-3.5732e-05
7.88981e-06
-4.18299e-06
-3.71702e-05
-3.66311e-06
-2.43214e-05
5.49232e-05
-2.26957e-08
-1.02503e-06
5.45601e-05
3.63493e-07
-2.79567e-06
5.39712e-05
8.11581e-07
-4.35337e-06
5.3136e-05
1.25582e-06
-5.88074e-06
5.20308e-05
1.65501e-06
-7.54935e-06
5.06419e-05
1.97101e-06
-9.4935e-06
4.89716e-05
2.17036e-06
-1.18042e-05
4.70307e-05
2.23651e-06
-1.45381e-05
4.48189e-05
2.17166e-06
-1.77371e-05
4.22914e-05
1.98692e-06
-2.14522e-05
3.9316e-05
1.67169e-06
-2.577e-05
3.56025e-05
1.15503e-06
-3.08216e-05
3.05611e-05
2.51474e-07
-3.66894e-05
2.31307e-05
-1.31301e-06
-4.26291e-05
1.18711e-05
-3.26201e-06
-4.44317e-05
-3.77839e-06
-2.87093e-05
7.12748e-05
-2.99379e-08
-8.00621e-07
7.09711e-05
4.68379e-07
-2.31078e-06
7.04714e-05
1.01817e-06
-3.7351e-06
6.9761e-05
1.57792e-06
-5.18494e-06
6.87948e-05
2.11284e-06
-6.79749e-06
6.75135e-05
2.5869e-06
-8.71326e-06
6.58578e-05
2.96661e-06
-1.10546e-05
6.37756e-05
3.23572e-06
-1.39127e-05
6.12125e-05
3.40209e-06
-1.73486e-05
5.80768e-05
3.49747e-06
-2.14085e-05
5.41802e-05
3.55067e-06
-2.61494e-05
4.9131e-05
3.55781e-06
-3.16741e-05
4.21491e-05
3.40155e-06
-3.81114e-05
3.17284e-05
2.74302e-06
-4.48949e-05
1.59959e-05
1.18109e-06
-4.75971e-05
-1.31568e-06
-3.10915e-05
8.43465e-05
-4.96006e-08
-6.61748e-07
8.40972e-05
5.46571e-07
-1.93573e-06
8.36847e-05
1.17694e-06
-3.16083e-06
8.31062e-05
1.82186e-06
-4.42117e-06
8.23156e-05
2.46465e-06
-5.82831e-06
8.12287e-05
3.08631e-06
-7.51963e-06
7.97379e-05
3.66915e-06
-9.64359e-06
7.77266e-05
4.2108e-06
-1.23364e-05
7.50744e-05
4.73289e-06
-1.57054e-05
7.16318e-05
5.29269e-06
-1.98252e-05
6.71609e-05
5.96443e-06
-2.4751e-05
6.11984e-05
6.84041e-06
-3.05516e-05
5.28359e-05
7.94921e-06
-3.73658e-05
4.01099e-05
9.13765e-06
-4.49031e-05
2.03388e-05
9.27823e-06
-4.87521e-05
4.50763e-06
-3.23383e-05
9.41393e-05
-6.83763e-08
-5.71824e-07
9.393e-05
6.07626e-07
-1.67684e-06
9.35873e-05
1.30164e-06
-2.73796e-06
9.31179e-05
2.01024e-06
-3.82387e-06
9.24848e-05
2.73679e-06
-5.02396e-06
9.16015e-05
3.48545e-06
-6.46099e-06
9.03383e-05
4.26411e-06
-8.29052e-06
8.85379e-05
5.09617e-06
-1.06806e-05
8.60284e-05
6.02779e-06
-1.37859e-05
8.26088e-05
7.15184e-06
-1.7727e-05
7.80012e-05
8.59321e-06
-2.25864e-05
7.16835e-05
1.0571e-05
-2.84267e-05
6.26997e-05
1.32868e-05
-3.53641e-05
4.86746e-05
1.71351e-05
-4.34039e-05
2.55048e-05
2.08702e-05
-4.84375e-05
1.50248e-05
-3.25043e-05
0.000100659
-7.75616e-08
-5.0772e-07
0.000100481
6.54756e-07
-1.49117e-06
0.0001002
1.39169e-06
-2.4296e-06
9.9828e-05
2.14201e-06
-3.3813e-06
9.9339e-05
2.92717e-06
-4.41814e-06
9.86556e-05
3.77411e-06
-5.64365e-06
9.76491e-05
4.71804e-06
-7.20375e-06
9.61519e-05
5.81165e-06
-9.27441e-06
9.39751e-05
7.12923e-06
-1.20351e-05
9.09025e-05
8.80239e-06
-1.56392e-05
8.666e-05
1.10039e-05
-2.01948e-05
8.07194e-05
1.4109e-05
-2.57754e-05
7.21612e-05
1.8495e-05
-3.24451e-05
5.84138e-05
2.54578e-05
-4.04839e-05
3.322e-05
3.52309e-05
-4.66392e-05
3.36493e-05
-3.13727e-05
0.000103911
-4.59697e-07
-7.25866e-08
0.00010376
-1.35178e-06
6.87231e-07
0.000103541
-2.19628e-06
1.43946e-06
0.00010327
-3.04435e-06
2.20281e-06
0.000102928
-3.95639e-06
3.01417e-06
0.000102452
-5.02022e-06
3.9202e-06
0.000101725
-6.36645e-06
4.97985e-06
0.000100596
-8.16112e-06
6.26977e-06
9.88927e-05
-1.05812e-05
7.88522e-06
9.64401e-05
-1.37815e-05
9.97914e-06
9.30439e-05
-1.78661e-05
1.27446e-05
8.83474e-05
-2.28955e-05
1.66533e-05
8.16695e-05
-2.88535e-05
2.22362e-05
7.07985e-05
-3.60308e-05
3.18775e-05
4.82568e-05
-4.32055e-05
4.87942e-05
-2.83627e-05
6.94799e-05
1.33464e-05
-1.03899e-07
-1.01776e-06
1.31282e-05
3.26834e-08
-1.85642e-06
1.27184e-05
1.77899e-07
-2.38388e-06
1.21533e-05
2.89927e-07
-2.87093e-06
1.14561e-05
3.71899e-07
-3.41834e-06
1.06496e-05
4.20358e-07
-4.07226e-06
9.76232e-06
4.26393e-07
-4.85931e-06
8.82539e-06
3.82253e-07
-5.80051e-06
7.86604e-06
2.81093e-07
-6.91829e-06
6.90204e-06
1.131e-07
-8.24047e-06
5.94119e-06
-1.4732e-07
-9.79826e-06
4.97975e-06
-5.49597e-07
-1.16103e-05
3.98892e-06
-1.15834e-06
-1.36133e-05
2.85241e-06
-1.97093e-06
-1.54312e-05
1.36899e-06
-2.72159e-06
-1.56976e-05
-2.36904e-06
-1.04474e-05
3.72796e-05
-6.50574e-08
-1.1554e-06
3.68198e-05
1.77842e-07
-2.75445e-06
3.60786e-05
4.79705e-07
-3.98634e-06
3.50521e-05
7.5869e-07
-5.13238e-06
3.3746e-05
9.87262e-07
-6.36682e-06
3.21791e-05
1.13996e-06
-7.79362e-06
3.03824e-05
1.19157e-06
-9.47263e-06
2.83888e-05
1.12666e-06
-1.14402e-05
2.62145e-05
9.39325e-07
-1.37261e-05
2.38406e-05
6.23393e-07
-1.63656e-05
2.11908e-05
1.54691e-07
-1.9408e-05
1.81326e-05
-5.76086e-07
-2.28748e-05
1.44372e-05
-1.69143e-06
-2.66275e-05
9.81885e-06
-3.2794e-06
-2.98052e-05
4.2325e-06
-4.8814e-06
-2.94241e-05
-4.46304e-06
-1.78917e-05
5.79847e-05
-4.4503e-08
-9.01468e-07
5.75251e-05
3.24228e-07
-2.48247e-06
5.67781e-05
7.58181e-07
-3.88485e-06
5.57245e-05
1.1904e-06
-5.25881e-06
5.43362e-05
1.57775e-06
-6.75155e-06
5.25879e-05
1.87878e-06
-8.48401e-06
5.04635e-05
2.05391e-06
-1.05422e-05
4.7952e-05
2.07968e-06
-1.29796e-05
4.50281e-05
1.95383e-06
-1.58277e-05
4.16212e-05
1.68715e-06
-1.91091e-05
3.75796e-05
1.27358e-06
-2.28473e-05
3.26007e-05
6.48147e-07
-2.7067e-05
2.61984e-05
-3.34517e-07
-3.16439e-05
1.7826e-05
-1.94908e-06
-3.55871e-05
7.58759e-06
-3.9399e-06
-3.51347e-05
-4.4786e-06
-2.09326e-05
7.52612e-05
-5.33831e-08
-7.00705e-07
7.4876e-05
4.38644e-07
-2.04007e-06
7.42327e-05
9.81782e-07
-3.3154e-06
7.33167e-05
1.53636e-06
-4.6149e-06
7.20806e-05
2.06733e-06
-6.05091e-06
7.04544e-05
2.53637e-06
-7.74471e-06
6.8358e-05
2.90436e-06
-9.80864e-06
6.57076e-05
3.14781e-06
-1.23304e-05
6.24096e-05
3.26988e-06
-1.53667e-05
5.83296e-05
3.3034e-06
-1.89447e-05
5.32377e-05
3.2855e-06
-2.30693e-05
4.67158e-05
3.22884e-06
-2.77329e-05
3.80601e-05
3.04012e-06
-3.28304e-05
2.62716e-05
2.43561e-06
-3.74911e-05
1.13502e-05
9.49059e-07
-3.75648e-05
-1.52191e-06
-2.24431e-05
8.90699e-05
-7.53773e-08
-5.78788e-07
8.8752e-05
5.26894e-07
-1.70602e-06
8.8212e-05
1.16212e-06
-2.80123e-06
8.74458e-05
1.81342e-06
-3.93197e-06
8.6406e-05
2.46537e-06
-5.18662e-06
8.50025e-05
3.09854e-06
-6.67829e-06
8.31084e-05
3.69188e-06
-8.537e-06
8.05714e-05
4.23827e-06
-1.08899e-05
7.72196e-05
4.75684e-06
-1.38405e-05
7.28411e-05
5.30882e-06
-1.74522e-05
6.71329e-05
5.98201e-06
-2.17393e-05
5.95848e-05
6.89521e-06
-2.66699e-05
4.9306e-05
8.11599e-06
-3.21629e-05
3.48184e-05
9.54084e-06
-3.75207e-05
1.55323e-05
9.92093e-06
-3.84379e-05
5.19084e-06
-2.3176e-05
9.9414e-05
-9.60897e-08
-5.00258e-07
9.91451e-05
5.96792e-07
-1.47784e-06
9.8689e-05
1.30722e-06
-2.42691e-06
9.80485e-05
2.03472e-06
-3.40463e-06
9.71858e-05
2.78499e-06
-4.48092e-06
9.60125e-05
3.56353e-06
-5.75264e-06
9.43857e-05
4.37808e-06
-7.34993e-06
9.21148e-05
5.25192e-06
-9.42336e-06
8.89717e-05
6.23341e-06
-1.21194e-05
8.46791e-05
7.42499e-06
-1.55506e-05
7.88724e-05
8.97209e-06
-1.97699e-05
7.09622e-05
1.11311e-05
-2.47525e-05
5.99648e-05
1.41696e-05
-3.04203e-05
4.38842e-05
1.85429e-05
-3.63254e-05
2.07871e-05
2.28216e-05
-3.82409e-05
1.71098e-05
-2.32027e-05
0.000106301
-1.0598e-07
-4.4418e-07
0.000106069
6.51779e-07
-1.3146e-06
0.000105686
1.41498e-06
-2.1547e-06
0.000105159
2.19546e-06
-3.01464e-06
0.000104459
3.01756e-06
-3.95093e-06
0.000103511
3.91096e-06
-5.04268e-06
0.000102178
4.91393e-06
-6.40723e-06
0.000100268
6.08424e-06
-8.19667e-06
9.75394e-05
7.50439e-06
-1.05771e-05
9.36963e-05
9.32322e-06
-1.36943e-05
8.83686e-05
1.1742e-05
-1.7637e-05
8.09441e-05
1.51873e-05
-2.24071e-05
7.04607e-05
2.01231e-05
-2.79152e-05
5.45531e-05
2.79793e-05
-3.40128e-05
2.89805e-05
3.88089e-05
-3.70539e-05
3.77353e-05
-2.24929e-05
0.000109735
-4.01938e-07
-9.99622e-08
0.000109535
-1.19178e-06
6.91584e-07
0.000109225
-1.94853e-06
1.47777e-06
0.000108813
-2.71703e-06
2.28024e-06
0.00010828
-3.54507e-06
3.13893e-06
0.000107565
-4.49839e-06
4.10409e-06
0.000106551
-5.6791e-06
5.24035e-06
0.000105068
-7.22729e-06
6.63401e-06
0.000102902
-9.30453e-06
8.39379e-06
9.98059e-05
-1.20592e-05
1.06966e-05
9.55006e-05
-1.55866e-05
1.37677e-05
8.95426e-05
-1.98977e-05
1.81476e-05
8.1231e-05
-2.48712e-05
2.44524e-05
6.83674e-05
-3.05087e-05
3.53208e-05
4.50396e-05
-3.48776e-05
5.38088e-05
-2.0612e-05
7.5639e-05
1.3911e-05
-1.19156e-07
-8.70241e-07
1.36359e-05
1.07677e-08
-1.5921e-06
1.31488e-05
1.49944e-07
-2.04666e-06
1.24864e-05
2.5782e-07
-2.46637e-06
1.16709e-05
3.34067e-07
-2.93689e-06
1.07212e-05
3.75106e-07
-3.49773e-06
9.66231e-06
3.70621e-07
-4.171e-06
8.52239e-06
3.11347e-07
-4.97194e-06
7.32747e-06
1.90129e-07
-5.9135e-06
6.09789e-06
-3.84736e-09
-7.00704e-06
4.84862e-06
-2.89922e-07
-8.25906e-06
3.59746e-06
-7.07794e-07
-9.65135e-06
2.378e-06
-1.30975e-06
-1.10841e-05
1.24026e-06
-2.08963e-06
-1.22039e-05
3.35436e-07
-2.83144e-06
-1.19613e-05
-2.44505e-06
-7.63058e-06
3.89027e-05
-8.31725e-08
-9.73897e-07
3.83529e-05
1.41669e-07
-2.3355e-06
3.74751e-05
4.31646e-07
-3.39025e-06
3.62692e-05
7.00419e-07
-4.36908e-06
3.47379e-05
9.17584e-07
-5.41905e-06
3.28933e-05
1.05572e-06
-6.6296e-06
3.07581e-05
1.08548e-06
-8.05232e-06
2.83577e-05
9.87141e-07
-9.71567e-06
2.57041e-05
7.53495e-07
-1.16358e-05
2.2777e-05
3.80782e-07
-1.38231e-05
1.95229e-05
-1.59157e-07
-1.62847e-05
1.58503e-05
-9.29887e-07
-1.89801e-05
1.16741e-05
-2.05643e-06
-2.17046e-05
7.02518e-06
-3.58119e-06
-2.36647e-05
2.44251e-06
-5.12629e-06
-2.25466e-05
-4.66262e-06
-1.31279e-05
6.05349e-05
-6.31894e-08
-7.52629e-07
5.99908e-05
2.91021e-07
-2.08774e-06
5.91044e-05
7.12965e-07
-3.27975e-06
5.7858e-05
1.13472e-06
-4.44673e-06
5.62212e-05
1.51142e-06
-5.7085e-06
5.41607e-05
1.79886e-06
-7.16671e-06
5.16482e-05
1.95183e-06
-8.896e-06
4.86575e-05
1.94049e-06
-1.09422e-05
4.51507e-05
1.7591e-06
-1.33266e-05
4.1052e-05
1.42127e-06
-1.60508e-05
3.62126e-05
9.28742e-07
-1.90958e-05
3.038e-05
2.53734e-07
-2.2418e-05
2.3247e-05
-7.62589e-07
-2.58048e-05
1.46583e-05
-2.27342e-06
-2.83061e-05
5.49308e-06
-4.14705e-06
-2.69488e-05
-4.62924e-06
-1.52992e-05
7.85825e-05
-7.34391e-08
-5.82941e-07
7.8127e-05
4.14519e-07
-1.70801e-06
7.73586e-05
9.53022e-07
-2.78707e-06
7.62623e-05
1.50392e-06
-3.88781e-06
7.47889e-05
2.03215e-06
-5.09819e-06
7.28618e-05
2.49776e-06
-6.5166e-06
7.03866e-05
2.85635e-06
-8.23794e-06
6.72577e-05
3.07779e-06
-1.03388e-05
6.33559e-05
3.16081e-06
-1.28666e-05
5.85252e-05
3.14057e-06
-1.58334e-05
5.25288e-05
3.06662e-06
-1.92108e-05
4.49957e-05
2.97864e-06
-2.29247e-05
3.53557e-05
2.81453e-06
-2.67674e-05
2.30836e-05
2.35388e-06
-2.98464e-05
9.13147e-06
1.0413e-06
-2.8801e-05
-1.37472e-06
-1.63116e-05
9.30056e-05
-9.73613e-08
-4.81339e-07
9.26285e-05
5.12056e-07
-1.42647e-06
9.19786e-05
1.15325e-06
-2.3516e-06
9.10488e-05
1.81159e-06
-3.30981e-06
8.97901e-05
2.47307e-06
-4.36884e-06
8.81082e-05
3.11832e-06
-5.61694e-06
8.58641e-05
3.72343e-06
-7.15999e-06
8.28816e-05
4.27657e-06
-9.10621e-06
7.89541e-05
4.7934e-06
-1.15456e-05
7.38319e-05
5.33841e-06
-1.45277e-05
6.71871e-05
6.01279e-06
-1.80407e-05
5.85277e-05
6.96454e-06
-2.19965e-05
4.70857e-05
8.30189e-06
-2.62082e-05
3.18451e-05
9.96589e-06
-2.98921e-05
1.33157e-05
1.06057e-05
-2.94728e-05
5.89153e-06
-1.67853e-05
0.000103809
-1.19581e-07
-4.16122e-07
0.000103489
5.90212e-07
-1.23574e-06
0.000102935
1.31707e-06
-2.03738e-06
0.000102147
2.06301e-06
-2.86758e-06
0.000101083
2.83608e-06
-3.77998e-06
9.9653e-05
3.64343e-06
-4.84788e-06
9.77069e-05
4.49291e-06
-6.17327e-06
9.50333e-05
5.40695e-06
-7.88014e-06
9.13673e-05
6.43415e-06
-1.00941e-05
8.63832e-05
7.68321e-06
-1.29112e-05
7.9673e-05
9.31479e-06
-1.63616e-05
7.06432e-05
1.16163e-05
-2.03745e-05
5.83992e-05
1.49028e-05
-2.47772e-05
4.13533e-05
1.96694e-05
-2.8983e-05
1.87406e-05
2.43595e-05
-2.93821e-05
1.8665e-05
-1.68045e-05
0.000111001
-1.29839e-07
-3.69464e-07
0.000110723
6.52664e-07
-1.09954e-06
0.000110254
1.44121e-06
-1.80944e-06
0.000109593
2.25033e-06
-2.54105e-06
0.000108709
3.10729e-06
-3.33842e-06
0.000107526
4.04449e-06
-4.26027e-06
0.000105904
5.10289e-06
-5.39566e-06
0.000103637
6.34398e-06
-6.86609e-06
0.00010045
7.8555e-06
-8.81128e-06
9.59976e-05
9.79782e-06
-1.13569e-05
8.98568e-05
1.23904e-05
-1.45718e-05
8.13927e-05
1.60942e-05
-1.84209e-05
6.97018e-05
2.14217e-05
-2.27431e-05
5.27203e-05
2.98634e-05
-2.72254e-05
2.73144e-05
4.13443e-05
-2.86326e-05
4.04071e-05
-1.63993e-05
0.000114588
-3.3417e-07
-1.22663e-07
0.000114346
-9.96871e-07
6.99442e-07
0.000113958
-1.63671e-06
1.5179e-06
0.000113425
-2.29156e-06
2.35721e-06
0.000112726
-2.99922e-06
3.26034e-06
0.0001118
-3.80794e-06
4.28079e-06
0.000110529
-4.7935e-06
5.4878e-06
0.000108736
-6.06546e-06
6.97531e-06
0.000106183
-7.7579e-06
8.86182e-06
0.00010258
-9.99928e-06
1.13412e-05
9.75953e-05
-1.28703e-05
1.46584e-05
9.07547e-05
-1.63571e-05
1.93942e-05
8.13986e-05
-2.02967e-05
2.62033e-05
6.74815e-05
-2.45639e-05
3.78357e-05
4.39871e-05
-2.72546e-05
5.72158e-05
-1.51781e-05
7.95705e-05
1.43604e-05
-1.31682e-07
-6.86567e-07
1.40376e-05
-1.03e-08
-1.25896e-06
1.34838e-05
1.26283e-07
-1.61921e-06
1.2739e-05
2.30246e-07
-1.95176e-06
1.18244e-05
3.01455e-07
-2.32371e-06
1.07567e-05
3.35954e-07
-2.766e-06
9.5588e-06
3.22276e-07
-3.29542e-06
8.25895e-06
2.50026e-07
-3.92212e-06
6.88596e-06
1.11708e-07
-4.65221e-06
5.46718e-06
-1.01106e-07
-5.48716e-06
4.03307e-06
-4.06473e-07
-6.41848e-06
2.62743e-06
-8.29761e-07
-7.41595e-06
1.3356e-06
-1.41196e-06
-8.38025e-06
3.04103e-07
-2.14264e-06
-9.02973e-06
-1.96313e-07
-2.82871e-06
-8.63222e-06
-2.4122e-06
-5.37841e-06
4.02002e-05
-9.81889e-08
-7.59886e-07
3.95733e-05
1.11167e-07
-1.83009e-06
3.85806e-05
3.91517e-07
-2.66273e-06
3.72237e-05
6.51612e-07
-3.4336e-06
3.55045e-05
8.59105e-07
-4.25751e-06
3.34312e-05
9.84627e-07
-5.20491e-06
3.10218e-05
9.95662e-07
-6.3163e-06
2.82992e-05
8.68947e-07
-7.61204e-06
2.52776e-05
5.97177e-07
-9.09959e-06
2.1944e-05
1.85754e-07
-1.07764e-05
1.82785e-05
-4.06781e-07
-1.26189e-05
1.42398e-05
-1.19722e-06
-1.45739e-05
9.85908e-06
-2.29926e-06
-1.64366e-05
5.35944e-06
-3.72559e-06
-1.75821e-05
1.50353e-06
-5.15857e-06
-1.63608e-05
-4.64681e-06
-9.28638e-06
6.25745e-05
-7.85247e-08
-5.8308e-07
6.19599e-05
2.64057e-07
-1.62605e-06
6.0957e-05
6.76371e-07
-2.5617e-06
5.95493e-05
1.08966e-06
-3.4771e-06
5.77053e-05
1.45765e-06
-4.46304e-06
5.53874e-05
1.73403e-06
-5.59816e-06
5.25594e-05
1.86881e-06
-6.94117e-06
4.91869e-05
1.82681e-06
-8.5276e-06
4.52272e-05
1.59974e-06
-1.03695e-05
4.06119e-05
1.20646e-06
-1.24562e-05
3.52084e-05
6.58918e-07
-1.4758e-05
2.8828e-05
-3.008e-08
-1.72047e-05
2.13207e-05
-1.03788e-06
-1.95589e-05
1.27776e-05
-2.41628e-06
-2.10723e-05
4.39536e-06
-4.13578e-06
-1.95893e-05
-4.56897e-06
-1.08085e-05
8.12392e-05
-8.98544e-08
-4.5048e-07
8.07256e-05
3.95571e-07
-1.3259e-06
7.98537e-05
9.31027e-07
-2.16982e-06
7.86075e-05
1.47954e-06
-3.03152e-06
7.69365e-05
2.00618e-06
-3.97574e-06
7.47604e-05
2.46984e-06
-5.0763e-06
7.19757e-05
2.82204e-06
-6.40646e-06
6.84635e-05
3.02673e-06
-8.02651e-06
6.40903e-05
3.07885e-06
-9.97247e-06
5.8693e-05
3.01658e-06
-1.22462e-05
5.20469e-05
2.90244e-06
-1.48082e-05
4.38444e-05
2.80287e-06
-1.75551e-05
3.36424e-05
2.68704e-06
-2.02904e-05
2.12427e-05
2.37997e-06
-2.22429e-05
8.00351e-06
1.2489e-06
-2.09464e-05
-1.13139e-06
-1.14923e-05
9.61537e-05
-1.15314e-07
-3.71878e-07
9.57279e-05
5.01127e-07
-1.10631e-06
9.49878e-05
1.14838e-06
-1.8288e-06
9.39229e-05
1.81355e-06
-2.57896e-06
9.24824e-05
2.48396e-06
-3.40608e-06
9.05692e-05
3.14066e-06
-4.37453e-06
8.80372e-05
3.75769e-06
-5.56363e-06
8.46957e-05
4.31898e-06
-7.05702e-06
8.03176e-05
4.83671e-06
-8.92535e-06
7.46334e-05
5.3774e-06
-1.12044e-05
6.73128e-05
6.0537e-06
-1.38713e-05
5.79044e-05
7.03871e-06
-1.68239e-05
4.57688e-05
8.47599e-06
-1.98616e-05
3.02137e-05
1.03381e-05
-2.22952e-05
1.22395e-05
1.1202e-05
-2.14517e-05
6.48239e-06
-1.182e-05
0.000107324
-1.38675e-07
-3.21532e-07
0.000106962
5.86463e-07
-9.5844e-07
0.000106329
1.32827e-06
-1.58437e-06
0.000105419
2.09073e-06
-2.23497e-06
0.000104189
2.88397e-06
-2.94967e-06
0.000102545
3.71692e-06
-3.78082e-06
0.000100335
4.59778e-06
-4.80263e-06
9.7334e-05
5.54801e-06
-6.10847e-06
9.32572e-05
6.61527e-06
-7.79593e-06
8.77514e-05
7.9116e-06
-9.93954e-06
8.03907e-05
9.60775e-06
-1.2555e-05
7.06029e-05
1.20134e-05
-1.55614e-05
5.75981e-05
1.54756e-05
-1.8772e-05
4.00833e-05
2.05149e-05
-2.16449e-05
1.78308e-05
2.55029e-05
-2.14305e-05
1.97878e-05
-1.18506e-05
0.000114761
-1.49094e-07
-2.85456e-07
0.000114445
6.55481e-07
-8.52994e-07
0.000113905
1.46653e-06
-1.40742e-06
0.000113135
2.30085e-06
-1.98133e-06
0.0001121
3.18824e-06
-2.60773e-06
0.000110721
4.16368e-06
-3.32817e-06
0.000108859
5.27043e-06
-4.20589e-06
0.000106298
6.57267e-06
-5.33019e-06
0.000102749
8.16107e-06
-6.80779e-06
9.78378e-05
1.02028e-05
-8.73699e-06
9.11145e-05
1.29275e-05
-1.11683e-05
8.1947e-05
1.68164e-05
-1.40565e-05
6.95082e-05
2.24061e-05
-1.72348e-05
5.19626e-05
3.12165e-05
-2.03815e-05
2.66942e-05
4.31146e-05
-2.0976e-05
4.22365e-05
-1.16357e-05
0.000118469
-2.58088e-07
-1.4081e-07
0.000118193
-7.73391e-07
7.08402e-07
0.000117741
-1.27329e-06
1.55525e-06
0.000117111
-1.78745e-06
2.42672e-06
0.000116276
-2.34457e-06
3.36852e-06
0.000115173
-2.97872e-06
4.43696e-06
0.000113688
-3.74281e-06
5.7049e-06
0.000111639
-4.71598e-06
7.27201e-06
0.000108779
-5.9994e-06
9.26342e-06
0.000104792
-7.69365e-06
1.18839e-05
9.93221e-05
-9.86149e-06
1.53884e-05
9.1884e-05
-1.24824e-05
2.03798e-05
8.18701e-05
-1.54003e-05
2.75237e-05
6.73595e-05
-1.84643e-05
3.96276e-05
4.3787e-05
-2.01136e-05
5.95461e-05
-1.08437e-05
8.22952e-05
1.46957e-05
-1.41176e-07
-4.73953e-07
1.43361e-05
-2.89133e-08
-8.70448e-07
1.37295e-05
1.07739e-07
-1.12032e-06
1.29201e-05
2.08186e-07
-1.35056e-06
1.19287e-05
2.75248e-07
-1.60755e-06
1.07708e-05
3.04429e-07
-1.91248e-06
9.46853e-06
2.83371e-07
-2.27655e-06
8.05142e-06
2.00759e-07
-2.70577e-06
6.55284e-06
4.8757e-08
-3.20239e-06
5.00912e-06
-1.80319e-07
-3.76313e-06
3.46411e-06
-4.96396e-07
-4.37707e-06
1.98494e-06
-9.20743e-07
-5.01604e-06
6.91456e-07
-1.4816e-06
-5.60517e-06
-2.1312e-07
-2.16767e-06
-5.95749e-06
-4.54322e-07
-2.79547e-06
-5.59555e-06
-2.35651e-06
-3.44012e-06
4.11726e-05
-1.09758e-07
-5.20535e-07
4.04846e-05
8.73323e-08
-1.25839e-06
3.94025e-05
3.60478e-07
-1.83329e-06
3.79281e-05
6.13746e-07
-2.36478e-06
3.60636e-05
8.13596e-07
-2.93139e-06
3.38153e-05
9.29295e-07
-3.58146e-06
3.11994e-05
9.25697e-07
-4.34271e-06
2.82386e-05
7.77644e-07
-5.22812e-06
2.49513e-05
4.75046e-07
-6.2386e-06
2.13425e-05
2.0739e-08
-7.36863e-06
1.74103e-05
-5.91254e-07
-8.59192e-06
1.31676e-05
-1.39462e-06
-9.85725e-06
8.71717e-06
-2.45703e-06
-1.10108e-05
4.38644e-06
-3.78971e-06
-1.16294e-05
1.00605e-06
-5.11589e-06
-1.066e-05
-4.57176e-06
-5.96217e-06
6.41034e-05
-9.022e-08
-3.97354e-07
6.34341e-05
2.4369e-07
-1.11315e-06
6.2341e-05
6.48836e-07
-1.75692e-06
6.08083e-05
1.0558e-06
-2.38643e-06
5.88042e-05
1.41733e-06
-3.0627e-06
5.62889e-05
1.68542e-06
-3.83899e-06
5.32222e-05
1.80665e-06
-4.75543e-06
4.95666e-05
1.74175e-06
-5.83614e-06
4.52799e-05
1.48021e-06
-7.08797e-06
4.02982e-05
1.04299e-06
-8.4967e-06
3.45144e-05
4.67057e-07
-1.00326e-05
2.78107e-05
-2.64449e-07
-1.16312e-05
2.01163e-05
-1.20822e-06
-1.31133e-05
1.16834e-05
-2.46872e-06
-1.39604e-05
3.81562e-06
-4.05171e-06
-1.27857e-05
-4.45281e-06
-6.93954e-06
8.32311e-05
-1.02354e-07
-3.06382e-07
8.26728e-05
3.81655e-07
-9.05532e-07
8.17212e-05
9.15298e-07
-1.48471e-06
8.03594e-05
1.46247e-06
-2.07643e-06
7.85361e-05
1.98839e-06
-2.72343e-06
7.61686e-05
2.45128e-06
-3.47466e-06
7.31486e-05
2.7997e-06
-4.37951e-06
6.93501e-05
2.99297e-06
-5.47923e-06
6.46329e-05
3.02288e-06
-6.79801e-06
5.88333e-05
2.92984e-06
-8.33343e-06
5.17532e-05
2.7885e-06
-1.00496e-05
4.31143e-05
2.68073e-06
-1.18614e-05
3.26044e-05
2.61889e-06
-1.36076e-05
2.02027e-05
2.44043e-06
-1.47504e-05
7.42966e-06
1.45844e-06
-1.36836e-05
-8.91385e-07
-7.37188e-06
9.85142e-05
-1.28978e-07
-2.52835e-07
9.8051e-05
4.93541e-07
-7.5505e-07
9.72417e-05
1.14616e-06
-1.25035e-06
9.60733e-05
1.81726e-06
-1.76535e-06
9.4493e-05
2.4952e-06
-2.33254e-06
9.24018e-05
3.16166e-06
-2.99375e-06
8.96498e-05
3.78938e-06
-3.80135e-06
8.60387e-05
4.35887e-06
-4.81183e-06
8.13304e-05
4.87927e-06
-6.07342e-06
7.52472e-05
5.41785e-06
-7.60918e-06
6.74658e-05
6.09603e-06
-9.39741e-06
5.75717e-05
7.10508e-06
-1.13541e-05
4.50304e-05
8.61719e-06
-1.33186e-05
2.93458e-05
1.06255e-05
-1.47956e-05
1.1718e-05
1.16606e-05
-1.40261e-05
6.92885e-06
-7.58429e-06
0.00010996
-1.53167e-07
-2.18595e-07
0.000109565
5.84559e-07
-6.54157e-07
0.000108871
1.33869e-06
-1.08317e-06
0.000107869
2.11464e-06
-1.53e-06
0.000106511
2.92418e-06
-2.02094e-06
0.000104704
3.77785e-06
-2.58963e-06
0.00010229
4.68434e-06
-3.28404e-06
9.90426e-05
5.66431e-06
-4.16603e-06
9.46636e-05
6.76399e-06
-5.30167e-06
8.8787e-05
8.09665e-06
-6.74168e-06
8.09824e-05
9.83898e-06
-8.49339e-06
7.07022e-05
1.23148e-05
-1.0491e-05
5.72402e-05
1.58927e-05
-1.25855e-05
3.94874e-05
2.11108e-05
-1.43773e-05
1.74453e-05
2.63072e-05
-1.4035e-05
2.05664e-05
-7.61648e-06
0.00011758
-1.63645e-07
-1.94045e-07
0.000117235
6.58822e-07
-5.82285e-07
0.000116641
1.48809e-06
-9.62348e-07
0.000115788
2.34266e-06
-1.35668e-06
0.000114638
3.25439e-06
-1.78768e-06
0.000113109
4.26031e-06
-2.28196e-06
0.000111062
5.40561e-06
-2.87971e-06
0.000108278
6.75636e-06
-3.63905e-06
0.000104461
8.40457e-06
-4.6313e-06
9.92236e-05
1.0521e-05
-5.92359e-06
9.21037e-05
1.33396e-05
-7.54898e-06
8.24793e-05
1.73528e-05
-9.47014e-06
6.95846e-05
2.31087e-05
-1.15561e-05
5.17287e-05
3.21439e-05
-1.35586e-05
2.65207e-05
4.43136e-05
-1.37743e-05
4.34737e-05
-7.50704e-06
0.00012138
-1.75396e-07
-1.54436e-07
0.000121077
-5.27979e-07
7.16661e-07
0.000120576
-8.70758e-07
1.5863e-06
0.000119872
-1.2242e-06
2.48346e-06
0.000118934
-1.60802e-06
3.45606e-06
0.000117697
-2.04405e-06
4.5626e-06
0.000116047
-2.56555e-06
5.87862e-06
0.000113802
-3.22337e-06
7.50788e-06
0.000110712
-4.08447e-06
9.57964e-06
0.000106452
-5.21752e-06
1.23052e-05
0.000100652
-6.66525e-06
1.5943e-05
9.28261e-05
-8.41099e-06
2.11076e-05
8.24065e-05