/*--------------------------------*- C++ -*----------------------------------*\
| =========                 |                                                 |
| \\      /  F ield         | foam-extend: Open Source CFD                    |
|  \\    /   O peration     | Version:     3.1                                |
|   \\  /    A nd           | Web:         http://www.extend-project.de       |
|    \\/     M anipulation  |                                                 |
\*---------------------------------------------------------------------------*/
FoamFile
{
    version     2.0;
    format      ascii;
    class       pointVectorField;
    location    "3.3";
    object      pointMotionU;
}
// * * * * * * * * * * * * * * * * * * * * * * * * * * * * * * * * * * * * * //

dimensions      [0 1 -1 0 0 0 0];

internalField   nonuniform List<vector> 
16859
(
(0 0 0)
(0 0 0)
(0 0 0)
(0 0 0)
(0 0 0)
(0 0 0)
(0 0 0)
(0 0 0)
(0 0 0)
(0 0 0)
(0 0 0)
(0 0 0)
(0 0 0)
(0 0 0)
(0 0 0)
(0 0 0)
(0 0 0)
(0 0 0)
(-1.2281e-10 -8.7247e-11 9.41248e-12)
(-2.37049e-10 -1.69898e-10 1.83003e-11)
(-3.42356e-10 -2.48835e-10 2.66727e-11)
(-4.42049e-10 -3.2712e-10 3.46431e-11)
(-5.39152e-10 -4.07178e-10 4.2017e-11)
(-6.36596e-10 -4.90898e-10 4.81215e-11)
(-7.37456e-10 -5.79732e-10 5.14982e-11)
(-8.45273e-10 -6.7483e-10 4.93757e-11)
(-9.64554e-10 -7.77298e-10 3.67529e-11)
(-1.10152e-09 -8.887e-10 4.90802e-12)
(-1.26513e-09 -1.01196e-09 -6.08555e-11)
(-1.46778e-09 -1.15271e-09 -1.83967e-10)
(-1.72404e-09 -1.32059e-09 -3.97705e-10)
(-2.04247e-09 -1.52663e-09 -7.36407e-10)
(-2.40386e-09 -1.75298e-09 -1.19577e-09)
(-3.99518e-09 -3.30829e-09 -2.6444e-09)
(0 0 0)
(-2.43081e-10 -1.71119e-10 1.88914e-11)
(-4.69107e-10 -3.33181e-10 3.68033e-11)
(-6.77321e-10 -4.8789e-10 5.38491e-11)
(-8.74247e-10 -6.41197e-10 7.04073e-11)
(-1.06583e-09 -7.9775e-10 8.63543e-11)
(-1.25785e-09 -9.61072e-10 1.00818e-10)
(-1.4564e-09 -1.13369e-09 1.11754e-10)
(-1.6686e-09 -1.31729e-09 1.15196e-10)
(-1.90371e-09 -1.51307e-09 1.03995e-10)
(-2.17503e-09 -1.72237e-09 6.57957e-11)
(-2.5029e-09 -1.94788e-09 -1.9932e-11)
(-2.91895e-09 -2.19531e-09 -1.85185e-10)
(-3.46933e-09 -2.47404e-09 -4.73347e-10)
(-4.20685e-09 -2.78981e-09 -9.23168e-10)
(-5.13409e-09 -3.09233e-09 -1.52011e-09)
(-9.90221e-09 -4.35097e-09 -1.97794e-09)
(0 0 0)
(-3.58609e-10 -2.48573e-10 2.84565e-11)
(-6.91846e-10 -4.83908e-10 5.55948e-11)
(-9.98463e-10 -7.08416e-10 8.17873e-11)
(-1.28799e-09 -9.30627e-10 1.07924e-10)
(-1.56908e-09 -1.15708e-09 1.34374e-10)
(-1.85017e-09 -1.3925e-09 1.60825e-10)
(-2.14022e-09 -1.63988e-09 1.8601e-10)
(-2.4498e-09 -1.90051e-09 2.07223e-10)
(-2.79295e-09 -2.17406e-09 2.19555e-10)
(-3.19043e-09 -2.45891e-09 2.14745e-10)
(-3.67535e-09 -2.75288e-09 1.79581e-10)
(-4.30227e-09 -3.05405e-09 9.44383e-11)
(-5.1578e-09 -3.35976e-09 -6.53801e-11)
(-6.35587e-09 -3.656e-09 -3.1776e-10)
(-7.93726e-09 -3.86295e-09 -6.63737e-10)
(-1.64784e-08 -4.23876e-09 6.65481e-10)
(0 0 0)
(-4.673e-10 -3.16813e-10 3.80153e-11)
(-9.01176e-10 -6.16651e-10 7.45035e-11)
(-1.29975e-09 -9.02497e-10 1.10256e-10)
(-1.67521e-09 -1.18506e-09 1.46921e-10)
(-2.03861e-09 -1.47238e-09 1.85777e-10)
(-2.40071e-09 -1.7699e-09 2.27817e-10)
(-2.77295e-09 -2.08049e-09 2.73847e-10)
(-3.16894e-09 -2.40409e-09 3.24714e-10)
(-3.60688e-09 -2.73739e-09 3.81773e-10)
(-4.1141e-09 -3.07337e-09 4.47801e-10)
(-4.73482e-09 -3.40111e-09 5.2855e-10)
(-5.54293e-09 -3.70543e-09 6.34805e-10)
(-6.65699e-09 -3.96554e-09 7.83454e-10)
(-8.23314e-09 -4.14738e-09 9.90396e-10)
(-1.03265e-08 -4.16742e-09 1.19867e-09)
(-2.1692e-08 -3.4767e-09 4.72138e-09)
(0 0 0)
(-5.67321e-10 -3.73422e-10 4.73659e-11)
(-1.09353e-09 -7.26749e-10 9.3101e-11)
(-1.5759e-09 -1.06341e-09 1.38527e-10)
(-2.02886e-09 -1.39585e-09 1.86207e-10)
(-2.46538e-09 -1.7332e-09 2.38599e-10)
(-2.89805e-09 -2.08128e-09 2.98435e-10)
(-3.34014e-09 -2.44238e-09 3.69338e-10)
(-3.80742e-09 -2.81459e-09 4.56916e-10)
(-4.32099e-09 -3.19082e-09 5.70767e-10)
(-4.9126e-09 -3.55754e-09 7.27993e-10)
(-5.63403e-09 -3.89331e-09 9.58831e-10)
(-6.57233e-09 -4.16773e-09 1.31383e-09)
(-7.86737e-09 -4.34188e-09 1.8663e-09)
(-9.70004e-09 -4.3718e-09 2.68283e-09)
(-1.21186e-08 -4.20776e-09 3.64747e-09)
(-2.52736e-08 -2.59544e-09 9.57728e-09)
(0 0 0)
(-6.57163e-10 -4.1642e-10 5.6223e-11)
(-1.26596e-09 -8.10404e-10 1.10768e-10)
(-1.82261e-09 -1.18572e-09 1.65514e-10)
(-2.34318e-09 -1.55613e-09 2.23951e-10)
(-2.84201e-09 -1.93149e-09 2.89739e-10)
(-3.3328e-09 -2.31779e-09 3.67356e-10)
(-3.82979e-09 -2.71664e-09 4.63154e-10)
(-4.34957e-09 -3.12433e-09 5.87188e-10)
(-4.91412e-09 -3.53034e-09 7.56449e-10)
(-5.55635e-09 -3.91514e-09 1.00048e-09)
(-6.33046e-09 -4.24772e-09 1.37057e-09)
(-7.3299e-09 -4.48343e-09 1.95257e-09)
(-8.71147e-09 -4.56578e-09 2.87593e-09)
(-1.06931e-08 -4.44261e-09 4.27798e-09)
(-1.33563e-08 -4.11887e-09 6.04394e-09)
(-2.80819e-08 -2.16606e-09 1.5118e-08)
(0 0 0)
(-7.35705e-10 -4.44302e-10 6.42712e-11)
(-1.41633e-09 -8.64744e-10 1.26819e-10)
(-2.03675e-09 -1.26537e-09 1.90009e-10)
(-2.61407e-09 -1.66081e-09 2.58131e-10)
(-3.16334e-09 -2.06143e-09 3.35821e-10)
(-3.69854e-09 -2.4733e-09 4.28892e-10)
(-4.2338e-09 -2.8976e-09 5.45608e-10)
(-4.78491e-09 -3.32951e-09 6.98829e-10)
(-5.37206e-09 -3.75636e-09 9.09655e-10)
(-6.02467e-09 -4.15514e-09 1.2136e-09)
(-6.79099e-09 -4.48926e-09 1.67066e-09)
(-7.75583e-09 -4.70542e-09 2.38016e-09)
(-9.06966e-09 -4.7336e-09 3.49604e-09)
(-1.09674e-08 -4.50271e-09 5.20787e-09)
(-1.35978e-08 -4.03e-09 7.48649e-09)
(-3.12235e-08 -1.47516e-09 1.99665e-08)
(0 0 0)
(-8.02183e-10 -4.5604e-10 7.12197e-11)
(-1.54321e-09 -8.87815e-10 1.40628e-10)
(-2.21637e-09 -1.2996e-09 2.10931e-10)
(-2.83916e-09 -1.70649e-09 2.86977e-10)
(-3.42662e-09 -2.11916e-09 3.73997e-10)
(-3.99223e-09 -2.54382e-09 4.78472e-10)
(-4.54891e-09 -2.98167e-09 6.0938e-10)
(-5.11009e-09 -3.4278e-09 7.80149e-10)
(-5.69149e-09 -3.86948e-09 1.01177e-09)
(-6.3142e-09 -4.28389e-09 1.33762e-09)
(-7.0103e-09 -4.63576e-09 1.81039e-09)
(-7.8325e-09 -4.87615e-09 2.51017e-09)
(-8.86643e-09 -4.94666e-09 3.54664e-09)
(-1.02226e-08 -4.80377e-09 5.02382e-09)
(-1.18869e-08 -4.51887e-09 6.84532e-09)
(-2.51606e-08 -6.00758e-10 2.00099e-08)
(0 0 0)
(0 0 0)
(0 0 0)
(0 0 0)
(0 0 0)
(0 0 0)
(0 0 0)
(0 0 0)
(0 0 0)
(0 0 0)
(0 0 0)
(0 0 0)
(0 0 0)
(0 0 0)
(0 0 0)
(0 0 0)
(0 0 0)
(0 0 0)
(-1.24304e-10 -9.19251e-11 8.43218e-12)
(-2.39721e-10 -1.79217e-10 1.62368e-11)
(-3.45677e-10 -2.63026e-10 2.32495e-11)
(-4.4523e-10 -3.4681e-10 2.93425e-11)
(-5.40947e-10 -4.33391e-10 3.39974e-11)
(-6.3496e-10 -5.2508e-10 3.60792e-11)
(-7.28981e-10 -6.23798e-10 3.34616e-11)
(-8.24292e-10 -7.31241e-10 2.24138e-11)
(-9.21735e-10 -8.49177e-10 -3.39611e-12)
(-1.02174e-09 -9.8001e-10 -5.44361e-11)
(-1.12438e-09 -1.12779e-09 -1.47447e-10)
(-1.22907e-09 -1.29974e-09 -3.07637e-10)
(-1.33234e-09 -1.50742e-09 -5.68024e-10)
(-1.42098e-09 -1.76282e-09 -9.54751e-10)
(-1.46349e-09 -2.04048e-09 -1.41494e-09)
(-6.48676e-10 -2.5306e-09 -2.77326e-09)
(0 0 0)
(-2.46156e-10 -1.8026e-10 1.69707e-11)
(-4.7465e-10 -3.51384e-10 3.27629e-11)
(-6.84326e-10 -5.15591e-10 4.71534e-11)
(-8.81244e-10 -6.79601e-10 6.00532e-11)
(-1.0705e-09 -8.48821e-10 7.07121e-11)
(-1.25639e-09 -1.02757e-09 7.73711e-11)
(-1.44243e-09 -1.21925e-09 7.67037e-11)
(-1.63146e-09 -1.42656e-09 6.29177e-11)
(-1.82572e-09 -1.6519e-09 2.63528e-11)
(-2.02733e-09 -1.89815e-09 -4.85744e-11)
(-2.23949e-09 -2.17022e-09 -1.85989e-10)
(-2.46906e-09 -2.47743e-09 -4.20474e-10)
(-2.7301e-09 -2.83576e-09 -7.93048e-10)
(-3.04269e-09 -3.26219e-09 -1.32414e-09)
(-3.39091e-09 -3.71748e-09 -1.9164e-09)
(-3.64407e-09 -4.94297e-09 -3.41174e-09)
(0 0 0)
(-3.6342e-10 -2.61773e-10 2.56696e-11)
(-7.00612e-10 -5.10178e-10 4.97386e-11)
(-1.00981e-09 -7.48354e-10 7.2099e-11)
(-1.29995e-09 -9.85924e-10 9.29737e-11)
(-1.57859e-09 -1.23048e-09 1.11845e-10)
(-1.85217e-09 -1.48786e-09 1.27149e-10)
(-2.12618e-09 -1.76221e-09 1.35822e-10)
(-2.40534e-09 -2.05612e-09 1.32617e-10)
(-2.69393e-09 -2.37076e-09 1.09173e-10)
(-2.99686e-09 -2.7064e-09 5.28952e-11)
(-3.3225e-09 -3.06364e-09 -5.39556e-11)
(-3.68907e-09 -3.44571e-09 -2.33363e-10)
(-4.1362e-09 -3.86093e-09 -5.03925e-10)
(-4.73206e-09 -4.31799e-09 -8.54072e-10)
(-5.48573e-09 -4.77398e-09 -1.18453e-09)
(-6.99847e-09 -5.97721e-09 -1.9101e-09)
(0 0 0)
(-4.74034e-10 -3.33501e-10 3.44656e-11)
(-9.13598e-10 -6.4984e-10 6.70551e-11)
(-1.31624e-09 -9.52896e-10 9.7961e-11)
(-1.69356e-09 -1.25473e-09 1.28003e-10)
(-2.05542e-09 -1.56464e-09 1.57369e-10)
(-2.41033e-09 -1.88939e-09 1.85512e-10)
(-2.76582e-09 -2.23315e-09 2.11051e-10)
(-3.12865e-09 -2.59726e-09 2.31757e-10)
(-3.50553e-09 -2.97982e-09 2.44845e-10)
(-3.90451e-09 -3.37548e-09 2.47991e-10)
(-4.33872e-09 -3.77563e-09 2.41868e-10)
(-4.83407e-09 -4.1699e-09 2.35425e-10)
(-5.44238e-09 -4.54935e-09 2.55173e-10)
(-6.2462e-09 -4.90788e-09 3.55177e-10)
(-7.24188e-09 -5.21678e-09 5.79702e-10)
(-9.10457e-09 -6.07468e-09 1.06054e-09)
(0 0 0)
(-5.76159e-10 -3.92902e-10 4.31776e-11)
(-1.11003e-09 -7.65462e-10 8.43287e-11)
(-1.59835e-09 -1.12212e-09 1.24089e-10)
(-2.05505e-09 -1.47685e-09 1.64076e-10)
(-2.49199e-09 -1.84019e-09 2.05509e-10)
(-2.91958e-09 -2.21934e-09 2.49395e-10)
(-3.34717e-09 -2.61791e-09 2.96903e-10)
(-3.78353e-09 -3.03522e-09 3.50219e-10)
(-4.23775e-09 -3.46522e-09 4.14354e-10)
(-4.72101e-09 -3.89507e-09 5.00795e-10)
(-5.25062e-09 -4.3039e-09 6.34253e-10)
(-5.8578e-09 -4.66301e-09 8.63517e-10)
(-6.59816e-09 -4.94107e-09 1.27317e-09)
(-7.54544e-09 -5.11972e-09 1.97143e-09)
(-8.64829e-09 -5.21514e-09 2.92624e-09)
(-9.96061e-09 -5.76302e-09 4.8989e-09)
(0 0 0)
(-6.68235e-10 -4.37912e-10 5.15332e-11)
(-1.28686e-09 -8.5308e-10 1.00968e-10)
(-1.85164e-09 -1.25035e-09 1.4944e-10)
(-2.37837e-09 -1.6451e-09 1.99428e-10)
(-2.8805e-09 -2.04868e-09 2.53272e-10)
(-3.36988e-09 -2.46842e-09 3.13624e-10)
(-3.85723e-09 -2.90713e-09 3.84264e-10)
(-4.35282e-09 -3.36201e-09 4.71667e-10)
(-4.86747e-09 -3.82284e-09 5.88032e-10)
(-5.41477e-09 -4.26933e-09 7.57006e-10)
(-6.01594e-09 -4.66794e-09 1.02392e-09)
(-6.70972e-09 -4.96948e-09 1.47225e-09)
(-7.56793e-09 -5.11271e-09 2.242e-09)
(-8.69539e-09 -5.05091e-09 3.51025e-09)
(-1.00553e-08 -4.84055e-09 5.2139e-09)
(-1.10899e-08 -5.3736e-09 9.14415e-09)
(0 0 0)
(-7.49059e-10 -4.66973e-10 5.92215e-11)
(-1.44176e-09 -9.09726e-10 1.16294e-10)
(-2.07269e-09 -1.3334e-09 1.72821e-10)
(-2.65894e-09 -1.75428e-09 2.32053e-10)
(-3.21499e-09 -2.18419e-09 2.97294e-10)
(-3.75348e-09 -2.63047e-09 3.72524e-10)
(-4.28576e-09 -3.0953e-09 4.63452e-10)
(-4.8225e-09 -3.57433e-09 5.79396e-10)
(-5.37469e-09 -4.05442e-09 7.36724e-10)
(-5.95572e-09 -4.51011e-09 9.65054e-10)
(-6.58639e-09 -4.89887e-09 1.31815e-09)
(-7.30652e-09 -5.15512e-09 1.89184e-09)
(-8.19821e-09 -5.18561e-09 2.84769e-09)
(-9.41055e-09 -4.88109e-09 4.40929e-09)
(-1.10003e-08 -4.23685e-09 6.57148e-09)
(-1.53491e-08 -2.95247e-09 1.23909e-08)
(0 0 0)
(-8.17763e-10 -4.79041e-10 6.59476e-11)
(-1.57309e-09 -9.33426e-10 1.29672e-10)
(-2.25916e-09 -1.36851e-09 1.93128e-10)
(-2.89374e-09 -1.801e-09 2.60141e-10)
(-3.49168e-09 -2.24296e-09 3.34653e-10)
(-4.06568e-09 -2.70175e-09 4.21394e-10)
(-4.62675e-09 -3.17936e-09 5.2693e-10)
(-5.18461e-09 -3.67097e-09 6.6138e-10)
(-5.74815e-09 -4.16269e-09 8.41334e-10)
(-6.32645e-09 -4.62811e-09 1.09465e-09)
(-6.93116e-09 -5.02396e-09 1.4679e-09)
(-7.58196e-09 -5.28499e-09 2.03642e-09)
(-8.31553e-09 -5.32189e-09 2.91139e-09)
(-9.18285e-09 -5.03792e-09 4.21173e-09)
(-1.01069e-08 -4.44531e-09 5.83849e-09)
(-1.15112e-08 2.22578e-10 1.16867e-08)
(0 0 0)
(0 0 0)
(0 0 0)
(0 0 0)
(0 0 0)
(0 0 0)
(0 0 0)
(0 0 0)
(0 0 0)
(0 0 0)
(0 0 0)
(0 0 0)
(0 0 0)
(0 0 0)
(0 0 0)
(0 0 0)
(0 0 0)
(0 0 0)
(-1.25544e-10 -9.65536e-11 7.18455e-12)
(-2.419e-10 -1.8848e-10 1.36603e-11)
(-3.48251e-10 -2.77225e-10 1.90914e-11)
(-4.47355e-10 -3.66682e-10 2.30998e-11)
(-5.41256e-10 -4.6012e-10 2.48289e-11)
(-6.31173e-10 -5.60345e-10 2.26524e-11)
(-7.1726e-10 -6.69837e-10 1.3716e-11)
(-7.98155e-10 -7.9092e-10 -6.789e-12)
(-8.70267e-10 -9.26015e-10 -4.6742e-11)
(-9.2669e-10 -1.07805e-09 -1.18718e-10)
(-9.55525e-10 -1.25101e-09 -2.42062e-10)
(-9.37026e-10 -1.45017e-09 -4.44581e-10)
(-8.3858e-10 -1.6799e-09 -7.60453e-10)
(-6.10564e-10 -1.93246e-09 -1.21223e-09)
(-2.3003e-10 -2.15287e-09 -1.7332e-09)
(2.10582e-09 -2.11443e-09 -3.16974e-09)
(0 0 0)
(-2.48741e-10 -1.89306e-10 1.45091e-11)
(-4.79242e-10 -3.6948e-10 2.7681e-11)
(-6.89905e-10 -5.43319e-10 3.89551e-11)
(-8.86238e-10 -7.18382e-10 4.77499e-11)
(-1.07237e-09 -9.00942e-10 5.26466e-11)
(-1.2509e-09 -1.09627e-09 5.0914e-11)
(-1.4224e-09 -1.30886e-09 3.77687e-11)
(-1.58468e-09 -1.54262e-09 5.23795e-12)
(-1.73142e-09 -1.80127e-09 -5.95358e-11)
(-1.85036e-09 -2.08886e-09 -1.7665e-10)
(-1.92088e-09 -2.41075e-09 -3.76208e-10)
(-1.91134e-09 -2.77442e-09 -6.99928e-10)
(-1.77724e-09 -3.18766e-09 -1.19593e-09)
(-1.46742e-09 -3.64508e-09 -1.88879e-09)
(-9.87509e-10 -4.07433e-09 -2.66801e-09)
(1.01179e-09 -4.98055e-09 -4.64624e-09)
(0 0 0)
(-3.67534e-10 -2.74835e-10 2.20577e-11)
(-7.08032e-10 -5.36295e-10 4.22862e-11)
(-1.01915e-09 -7.8834e-10 6.00861e-11)
(-1.30913e-09 -1.04179e-09 7.49611e-11)
(-1.58426e-09 -1.30547e-09 8.54152e-11)
(-1.84872e-09 -1.58655e-09 8.84538e-11)
(-2.10404e-09 -1.89073e-09 7.88438e-11)
(-2.348e-09 -2.22231e-09 4.80379e-11)
(-2.5729e-09 -2.58438e-09 -1.72985e-11)
(-2.76297e-09 -2.97914e-09 -1.37107e-10)
(-2.89129e-09 -3.40865e-09 -3.39631e-10)
(-2.91719e-09 -3.87602e-09 -6.61308e-10)
(-2.78796e-09 -4.38521e-09 -1.1399e-09)
(-2.45569e-09 -4.93061e-09 -1.7868e-09)
(-1.95334e-09 -5.44296e-09 -2.49645e-09)
(7.70291e-11 -6.50909e-09 -4.30754e-09)
(0 0 0)
(-4.79898e-10 -3.50012e-10 2.9797e-11)
(-9.24349e-10 -6.82832e-10 5.74304e-11)
(-1.33028e-09 -1.00336e-09 8.2467e-11)
(-1.70857e-09 -1.32513e-09 1.04807e-10)
(-2.0677e-09 -1.65898e-09 1.23386e-10)
(-2.41369e-09 -2.0133e-09 1.35815e-10)
(-2.74953e-09 -2.39411e-09 1.37892e-10)
(-3.07398e-09 -2.80487e-09 1.23017e-10)
(-3.37947e-09 -3.24607e-09 8.1624e-11)
(-3.64871e-09 -3.71487e-09 9.32396e-13)
(-3.84979e-09 -4.20516e-09 -1.34405e-10)
(-3.92991e-09 -4.7086e-09 -3.39813e-10)
(-3.81035e-09 -5.21675e-09 -6.25507e-10)
(-3.39753e-09 -5.71872e-09 -9.87041e-10)
(-2.69228e-09 -6.16434e-09 -1.37796e-09)
(4.84988e-10 -7.04126e-09 -2.63269e-09)
(0 0 0)
(-5.8399e-10 -4.12169e-10 3.75733e-11)
(-1.12461e-09 -8.03933e-10 7.27896e-11)
(-1.61803e-09 -1.18089e-09 1.0555e-10)
(-2.07755e-09 -1.55871e-09 1.36391e-10)
(-2.51377e-09 -1.94963e-09 1.65064e-10)
(-2.93468e-09 -2.36271e-09 1.90401e-10)
(-3.34513e-09 -2.80357e-09 2.10223e-10)
(-3.74577e-09 -3.27385e-09 2.2145e-10)
(-4.13083e-09 -3.77005e-09 2.20728e-10)
(-4.48428e-09 -4.28214e-09 2.06144e-10)
(-4.77325e-09 -4.79224e-09 1.80699e-10)
(-4.93677e-09 -5.2751e-09 1.57485e-10)
(-4.86786e-09 -5.70383e-09 1.623e-10)
(-4.40075e-09 -6.0648e-09 2.17691e-10)
(-3.43872e-09 -6.36108e-09 2.83699e-10)
(1.93497e-09 -6.99535e-09 -2.20521e-10)
(0 0 0)
(-6.78204e-10 -4.59154e-10 4.51376e-11)
(-1.30567e-09 -8.95462e-10 8.78224e-11)
(-1.87773e-09 -1.31501e-09 1.28381e-10)
(-2.40975e-09 -1.73499e-09 1.68097e-10)
(-2.91423e-09 -2.16857e-09 2.07699e-10)
(-3.40095e-09 -2.62497e-09 2.47456e-10)
(-3.87676e-09 -3.10908e-09 2.87467e-10)
(-4.34465e-09 -3.62036e-09 3.28377e-10)
(-4.80188e-09 -4.151e-09 3.72993e-10)
(-5.23658e-09 -4.68319e-09 4.29526e-10)
(-5.62173e-09 -5.18588e-09 5.17282e-10)
(-5.90422e-09 -5.61267e-09 6.74316e-10)
(-5.98545e-09 -5.90709e-09 9.59748e-10)
(-5.6985e-09 -6.03217e-09 1.42047e-09)
(-4.90042e-09 -6.04343e-09 1.94997e-09)
(1.9162e-09 -6.75532e-09 2.31142e-09)
(0 0 0)
(-7.61251e-10 -4.89363e-10 5.21961e-11)
(-1.46502e-09 -9.54362e-10 1.01887e-10)
(-2.10563e-09 -1.4014e-09 1.49825e-10)
(-2.70007e-09 -1.84864e-09 1.98015e-10)
(-3.26223e-09 -2.3097e-09 2.48089e-10)
(-3.80332e-09 -2.79379e-09 3.01581e-10)
(-4.33177e-09 -3.30504e-09 3.60438e-10)
(-4.85257e-09 -3.84111e-09 4.28043e-10)
(-5.36589e-09 -4.3908e-09 5.11194e-10)
(-5.8645e-09 -4.93023e-09 6.23707e-10)
(-6.32963e-09 -5.41762e-09 7.92333e-10)
(-6.72455e-09 -5.78681e-09 1.06445e-09)
(-6.98568e-09 -5.94326e-09 1.5108e-09)
(-7.01587e-09 -5.7798e-09 2.19316e-09)
(-6.73079e-09 -5.29538e-09 2.99892e-09)
(-4.65897e-09 -4.03976e-09 4.04011e-09)
(0 0 0)
(-8.32153e-10 -5.01735e-10 5.84607e-11)
(-1.60079e-09 -9.78637e-10 1.14361e-10)
(-2.29901e-09 -1.43731e-09 1.68804e-10)
(-2.94479e-09 -1.89628e-09 2.24369e-10)
(-3.55288e-09 -2.36936e-09 2.83359e-10)
(-4.13521e-09 -2.86564e-09 3.48139e-10)
(-4.70096e-09 -3.38883e-09 4.21693e-10)
(-5.25607e-09 -3.93575e-09 5.08582e-10)
(-5.80195e-09 -4.49375e-09 6.1659e-10)
(-6.33319e-09 -5.03682e-09 7.59357e-10)
(-6.83372e-09 -5.5201e-09 9.59918e-10)
(-7.27061e-09 -5.87319e-09 1.2533e-09)
(-7.58423e-09 -5.9955e-09 1.68018e-09)
(-7.67375e-09 -5.77077e-09 2.24557e-09)
(-7.37837e-09 -5.17623e-09 2.77731e-09)
(-4.77334e-09 2.70501e-10 3.63663e-09)
(0 0 0)
(0 0 0)
(0 0 0)
(0 0 0)
(0 0 0)
(0 0 0)
(0 0 0)
(0 0 0)
(0 0 0)
(0 0 0)
(0 0 0)
(0 0 0)
(0 0 0)
(0 0 0)
(0 0 0)
(0 0 0)
(0 0 0)
(0 0 0)
(-1.2658e-10 -1.0096e-10 5.807e-12)
(-2.43701e-10 -1.9733e-10 1.08654e-11)
(-3.50323e-10 -2.90873e-10 1.47026e-11)
(-4.48921e-10 -3.85931e-10 1.6731e-11)
(-5.41064e-10 -4.86255e-10 1.58148e-11)
(-6.27171e-10 -5.95195e-10 9.92452e-12)
(-7.06049e-10 -7.15858e-10 -4.39677e-12)
(-7.74122e-10 -8.5126e-10 -3.28531e-11)
(-8.24212e-10 -1.00448e-09 -8.46102e-11)
(-8.43789e-10 -1.1788e-09 -1.73956e-10)
(-8.12572e-10 -1.37764e-09 -3.22191e-10)
(-6.99576e-10 -1.60344e-09 -5.58598e-10)
(-4.60798e-10 -1.85332e-09 -9.1651e-10)
(-4.67686e-11 -2.10627e-09 -1.41199e-09)
(5.20428e-10 -2.29779e-09 -1.96345e-09)
(2.96909e-09 -2.09863e-09 -3.37732e-09)
(0 0 0)
(-2.50921e-10 -1.97915e-10 1.17751e-11)
(-4.83086e-10 -3.8677e-10 2.21326e-11)
(-6.94488e-10 -5.69972e-10 3.0238e-11)
(-8.90124e-10 -7.55955e-10 3.50884e-11)
(-1.07326e-09 -9.51934e-10 3.46997e-11)
(-1.24499e-09 -1.16424e-09 2.55117e-11)
(-1.40338e-09 -1.39861e-09 1.48189e-12)
(-1.54202e-09 -1.66034e-09 -4.72854e-11)
(-1.64765e-09 -1.95455e-09 -1.36523e-10)
(-1.69683e-09 -2.28626e-09 -2.90427e-10)
(-1.65181e-09 -2.66031e-09 -5.44449e-10)
(-1.45711e-09 -3.08001e-09 -9.461e-10)
(-1.04295e-09 -3.54173e-09 -1.54686e-09)
(-3.5663e-10 -4.01899e-09 -2.36476e-09)
(5.0185e-10 -4.42244e-09 -3.25718e-09)
(2.59071e-09 -5.16466e-09 -5.27889e-09)
(0 0 0)
(-3.71049e-10 -2.87266e-10 1.8009e-11)
(-7.14347e-10 -5.61247e-10 3.40678e-11)
(-1.02703e-09 -8.2678e-10 4.71673e-11)
(-1.31668e-09 -1.09594e-09 5.61781e-11)
(-1.58849e-09 -1.3789e-09 5.87448e-11)
(-1.84468e-09 -1.68436e-09 5.05943e-11)
(-2.08342e-09 -2.01982e-09 2.45075e-11)
(-2.29673e-09 -2.3917e-09 -3.11906e-11)
(-2.46716e-09 -2.80532e-09 -1.34726e-10)
(-2.56276e-09 -3.26482e-09 -3.13507e-10)
(-2.53052e-09 -3.77272e-09 -6.06632e-10)
(-2.29133e-09 -4.32852e-09 -1.06484e-09)
(-1.74739e-09 -4.92399e-09 -1.74051e-09)
(-8.37436e-10 -5.52826e-09 -2.64634e-09)
(2.66891e-10 -6.04418e-09 -3.62143e-09)
(2.60275e-09 -6.89911e-09 -5.75011e-09)
(0 0 0)
(-4.84981e-10 -3.65724e-10 2.45018e-11)
(-9.33664e-10 -7.14351e-10 4.6681e-11)
(-1.34242e-09 -1.05187e-09 6.55662e-11)
(-1.72148e-09 -1.3934e-09 8.02206e-11)
(-2.07815e-09 -1.75144e-09 8.84355e-11)
(-2.41634e-09 -2.13632e-09 8.60946e-11)
(-2.7353e-09 -2.55637e-09 6.626e-11)
(-3.02726e-09 -3.01777e-09 1.79065e-11)
(-3.27322e-09 -3.52417e-09 -7.57192e-11)
(-3.43606e-09 -4.07599e-09 -2.38975e-10)
(-3.45033e-09 -4.66943e-09 -5.0534e-10)
(-3.21013e-09 -5.29502e-09 -9.16819e-10)
(-2.56727e-09 -5.93444e-09 -1.5161e-09)
(-1.38909e-09 -6.54957e-09 -2.31478e-09)
(1.57926e-10 -7.04571e-09 -3.18126e-09)
(3.92425e-09 -7.67872e-09 -5.15977e-09)
(0 0 0)
(-5.90875e-10 -4.30499e-10 3.11304e-11)
(-1.13745e-09 -8.40679e-10 5.97145e-11)
(-1.63541e-09 -1.23739e-09 8.50018e-11)
(-2.09753e-09 -1.63811e-09 1.06513e-10)
(-2.53339e-09 -2.057e-09 1.22603e-10)
(-2.94902e-09 -2.50532e-09 1.29982e-10)
(-3.34574e-09 -2.99138e-09 1.23067e-10)
(-3.71782e-09 -3.52007e-09 9.31641e-11)
(-4.048e-09 -4.09188e-09 2.75626e-11)
(-4.29954e-09 -4.70139e-09 -9.12977e-11)
(-4.40283e-09 -5.33548e-09 -2.8622e-10)
(-4.23506e-09 -5.97202e-09 -5.84722e-10)
(-3.60006e-09 -6.58054e-09 -1.01619e-09)
(-2.26164e-09 -7.12446e-09 -1.59774e-09)
(-2.83939e-10 -7.54677e-09 -2.25732e-09)
(6.04059e-09 -7.96871e-09 -4.00297e-09)
(0 0 0)
(-6.87075e-10 -4.79354e-10 3.76777e-11)
(-1.32248e-09 -9.35928e-10 7.26962e-11)
(-1.90117e-09 -1.37715e-09 1.04642e-10)
(-2.43825e-09 -1.82219e-09 1.33647e-10)
(-2.94551e-09 -2.28624e-09 1.58856e-10)
(-3.43124e-09 -2.78091e-09 1.78135e-10)
(-3.89948e-09 -3.31395e-09 1.87712e-10)
(-4.34795e-09 -3.88837e-09 1.81807e-10)
(-4.76415e-09 -4.50085e-09 1.5237e-10)
(-5.11807e-09 -5.1392e-09 8.90844e-11)
(-5.3494e-09 -5.77929e-09 -2.03066e-11)
(-5.34676e-09 -6.38253e-09 -1.89969e-10)
(-4.92272e-09 -6.89843e-09 -4.38112e-10)
(-3.82933e-09 -7.28197e-09 -7.89642e-10)
(-2.05814e-09 -7.52857e-09 -1.23471e-09)
(5.82443e-09 -8.36557e-09 -2.77676e-09)
(0 0 0)
(-7.7221e-10 -5.10639e-10 4.38781e-11)
(-1.48603e-09 -9.96954e-10 8.50452e-11)
(-2.13562e-09 -1.46673e-09 1.2346e-10)
(-2.73798e-09 -1.94012e-09 1.59891e-10)
(-3.30676e-09 -2.43287e-09 1.94295e-10)
(-3.85232e-09 -2.95655e-09 2.25679e-10)
(-4.38134e-09 -3.51813e-09 2.51953e-10)
(-4.89532e-09 -4.11884e-09 2.69841e-10)
(-5.38768e-09 -4.7519e-09 2.74921e-10)
(-5.83834e-09 -5.39921e-09 2.6187e-10)
(-6.20453e-09 -6.02646e-09 2.24654e-10)
(-6.40737e-09 -6.57748e-09 1.55397e-10)
(-6.31997e-09 -6.97053e-09 3.88515e-11)
(-5.79426e-09 -7.10927e-09 -1.58247e-10)
(-4.8701e-09 -6.96075e-09 -4.62213e-10)
(-2.89058e-09 -6.49968e-09 -1.93287e-09)
(0 0 0)
(-8.45195e-10 -5.23283e-10 4.94636e-11)
(-1.62602e-09 -1.02174e-09 9.61813e-11)
(-2.33561e-09 -1.50334e-09 1.40446e-10)
(-2.99234e-09 -1.98857e-09 1.83582e-10)
(-3.6111e-09 -2.49329e-09 2.26218e-10)
(-4.20374e-09 -3.02885e-09 2.68249e-10)
(-4.77881e-09 -3.60161e-09 3.08782e-10)
(-5.34069e-09 -4.21157e-09 3.46105e-10)
(-5.88737e-09 -4.84999e-09 3.77677e-10)
(-6.40659e-09 -5.49562e-09 4.00009e-10)
(-6.8693e-09 -6.10939e-09 4.07873e-10)
(-7.22055e-09 -6.62756e-09 3.91194e-10)
(-7.37256e-09 -6.95605e-09 3.26509e-10)
(-7.22215e-09 -6.97796e-09 1.62831e-10)
(-6.74692e-09 -6.62689e-09 -1.7289e-10)
(-6.54632e-09 -2.73809e-09 -1.29492e-09)
(0 0 0)
(0 0 0)
(0 0 0)
(0 0 0)
(0 0 0)
(0 0 0)
(0 0 0)
(0 0 0)
(0 0 0)
(0 0 0)
(0 0 0)
(0 0 0)
(0 0 0)
(0 0 0)
(0 0 0)
(0 0 0)
(0 0 0)
(0 0 0)
(-1.27444e-10 -1.04945e-10 4.42597e-12)
(-2.45206e-10 -2.0536e-10 8.12364e-12)
(-3.52071e-10 -3.03317e-10 1.05503e-11)
(-4.50299e-10 -4.03599e-10 1.09989e-11)
(-5.41125e-10 -5.10438e-10 8.19184e-12)
(-6.24437e-10 -6.27739e-10 -8.76318e-14)
(-6.98228e-10 -7.59259e-10 -1.75559e-11)
(-7.5773e-10 -9.08736e-10 -5.02717e-11)
(-7.94166e-10 -1.07994e-09 -1.07834e-10)
(-7.93191e-10 -1.27657e-09 -2.04907e-10)
(-7.3336e-10 -1.50167e-09 -3.62679e-10)
(-5.85613e-10 -1.75584e-09 -6.08817e-10)
(-3.16229e-10 -2.03248e-09 -9.71776e-10)
(9.86041e-11 -2.30666e-09 -1.45818e-09)
(6.0682e-10 -2.51438e-09 -1.97957e-09)
(2.55532e-09 -2.46382e-09 -3.2306e-09)
(0 0 0)
(-2.52749e-10 -2.05702e-10 9.01638e-12)
(-4.86321e-10 -4.02457e-10 1.66496e-11)
(-6.98388e-10 -5.94275e-10 2.19171e-11)
(-8.93573e-10 -7.90452e-10 2.35633e-11)
(-1.07453e-09 -9.99142e-10 1.9294e-11)
(-1.2414e-09 -1.22778e-09 5.12293e-12)
(-1.39075e-09 -1.48338e-09 -2.56181e-11)
(-1.51392e-09 -1.77274e-09 -8.37485e-11)
(-1.59454e-09 -2.10246e-09 -1.863e-10)
(-1.60538e-09 -2.47862e-09 -3.59074e-10)
(-1.50553e-09 -2.90563e-09 -6.389e-10)
(-1.24117e-09 -3.38332e-09 -1.07282e-09)
(-7.58808e-10 -3.89981e-09 -1.70655e-09)
(-5.11787e-11 -4.41649e-09 -2.54249e-09)
(7.23181e-10 -4.83699e-09 -3.41814e-09)
(2.0448e-09 -5.59801e-09 -5.20239e-09)
(0 0 0)
(-3.7402e-10 -2.98508e-10 1.38831e-11)
(-7.19715e-10 -5.83886e-10 2.58553e-11)
(-1.03381e-09 -8.61837e-10 3.46694e-11)
(-1.32345e-09 -1.14568e-09 3.87896e-11)
(-1.59307e-09 -1.44694e-09 3.53441e-11)
(-1.84368e-09 -1.77592e-09 1.93175e-11)
(-2.0715e-09 -2.14207e-09 -1.76562e-11)
(-2.26564e-09 -2.55407e-09 -8.90591e-11)
(-2.40434e-09 -3.01976e-09 -2.15919e-10)
(-2.44995e-09 -3.54538e-09 -4.2974e-10)
(-2.3435e-09 -4.13383e-09 -7.7488e-10)
(-2.00436e-09 -4.78065e-09 -1.30686e-09)
(-1.35061e-09 -5.46539e-09 -2.07711e-09)
(-3.77041e-10 -6.13466e-09 -3.08071e-09)
(6.58357e-10 -6.67003e-09 -4.1147e-09)
(2.07839e-09 -7.4611e-09 -6.09959e-09)
(0 0 0)
(-4.8932e-10 -3.79932e-10 1.90386e-11)
(-9.41664e-10 -7.42948e-10 3.579e-11)
(-1.353e-09 -1.09612e-09 4.89448e-11)
(-1.73313e-09 -1.45614e-09 5.69913e-11)
(-2.08866e-09 -1.83721e-09 5.69692e-11)
(-2.42225e-09 -2.25171e-09 4.36442e-11)
(-2.73122e-09 -2.71049e-09 8.29372e-12)
(-3.00468e-09 -3.22288e-09 -6.30401e-11)
(-3.21892e-09 -3.79619e-09 -1.91917e-10)
(-3.33012e-09 -4.43462e-09 -4.10316e-10)
(-3.26461e-09 -5.1369e-09 -7.62887e-10)
(-2.91082e-09 -5.89162e-09 -1.30533e-09)
(-2.13124e-09 -6.66788e-09 -2.08949e-09)
(-8.49879e-10 -7.39691e-09 -3.11113e-09)
(6.5983e-10 -7.94259e-09 -4.16562e-09)
(3.35956e-09 -8.46863e-09 -6.18422e-09)
(0 0 0)
(-5.96802e-10 -4.47072e-10 2.43903e-11)
(-1.14859e-09 -8.74017e-10 4.62613e-11)
(-1.65071e-09 -1.28893e-09 6.44243e-11)
(-2.11566e-09 -1.71111e-09 7.76571e-11)
(-2.55251e-09 -2.15669e-09 8.33273e-11)
(-2.96633e-09 -2.63933e-09 7.66507e-11)
(-3.3569e-09 -3.17038e-09 4.96159e-11)
(-3.71598e-09 -3.7586e-09 -1.05434e-11)
(-4.02238e-09 -4.40942e-09 -1.23412e-10)
(-4.23354e-09 -5.1233e-09 -3.17901e-10)
(-4.27221e-09 -5.89321e-09 -6.34538e-10)
(-4.00933e-09 -6.70057e-09 -1.12513e-09)
(-3.25637e-09 -7.50889e-09 -1.84201e-09)
(-1.82869e-09 -8.25206e-09 -2.79326e-09)
(1.04117e-10 -8.80919e-09 -3.8012e-09)
(5.27204e-09 -9.19816e-09 -5.8283e-09)
(0 0 0)
(-6.94772e-10 -4.97613e-10 2.97592e-11)
(-1.33716e-09 -9.72635e-10 5.68802e-11)
(-1.92193e-09 -1.43385e-09 8.04227e-11)
(-2.46418e-09 -1.90237e-09 9.96302e-11)
(-2.97548e-09 -2.39557e-09 1.12462e-10)
(-3.46371e-09 -2.92766e-09 1.14986e-10)
(-3.93215e-09 -3.50975e-09 1.00501e-10)
(-4.3773e-09 -4.14929e-09 5.82873e-11)
(-4.78479e-09 -4.84889e-09 -2.81157e-11)
(-5.12204e-09 -5.60423e-09 -1.83152e-10)
(-5.32612e-09 -6.40124e-09 -4.41821e-10)
(-5.28666e-09 -7.21282e-09 -8.51352e-10)
(-4.83306e-09 -7.99687e-09 -1.46636e-09)
(-3.77508e-09 -8.69762e-09 -2.3152e-09)
(-2.1894e-09 -9.23914e-09 -3.26269e-09)
(4.39711e-09 -1.0429e-08 -5.38289e-09)
(0 0 0)
(-7.81778e-10 -5.29864e-10 3.49185e-11)
(-1.5045e-09 -1.03557e-09 6.71504e-11)
(-2.16232e-09 -1.52631e-09 9.60631e-11)
(-2.77252e-09 -2.02425e-09 1.21433e-10)
(-3.34897e-09 -2.54733e-09 1.41903e-10)
(-3.90226e-09 -3.10982e-09 1.54514e-10)
(-4.43932e-09 -3.72216e-09 1.54005e-10)
(-4.9621e-09 -4.39015e-09 1.31806e-10)
(-5.46496e-09 -5.11338e-09 7.45628e-11)
(-5.92993e-09 -5.88256e-09 -3.7959e-11)
(-6.31965e-09 -6.6759e-09 -2.35804e-10)
(-6.56981e-09 -7.45469e-09 -5.62207e-10)
(-6.59242e-09 -8.16021e-09 -1.07369e-09)
(-6.32785e-09 -8.71725e-09 -1.81692e-09)
(-5.90551e-09 -9.055e-09 -2.69882e-09)
(-6.07797e-09 -9.8042e-09 -5.0048e-09)
(0 0 0)
(-8.56638e-10 -5.42741e-10 3.9633e-11)
(-1.6483e-09 -1.0608e-09 7.65622e-11)
(-2.36832e-09 -1.56352e-09 1.10457e-10)
(-3.03566e-09 -2.07339e-09 1.41597e-10)
(-3.66588e-09 -2.60841e-09 1.69262e-10)
(-4.27164e-09 -3.18253e-09 1.9137e-10)
(-4.86279e-09 -3.80539e-09 2.03917e-10)
(-5.4457e-09 -4.48136e-09 2.00129e-10)
(-6.02189e-09 -5.20763e-09 1.69157e-10)
(-6.58543e-09 -5.97117e-09 9.40948e-11)
(-7.11944e-09 -6.74439e-09 -5.09355e-11)
(-7.59395e-09 -7.47939e-09 -3.04299e-10)
(-7.97385e-09 -8.10211e-09 -7.17232e-10)
(-8.25824e-09 -8.51188e-09 -1.33338e-09)
(-8.55358e-09 -8.60704e-09 -2.09525e-09)
(-1.26763e-08 -7.07265e-09 -3.84784e-09)
(0 0 0)
(0 0 0)
(0 0 0)
(0 0 0)
(0 0 0)
(0 0 0)
(0 0 0)
(0 0 0)
(0 0 0)
(0 0 0)
(0 0 0)
(0 0 0)
(0 0 0)
(0 0 0)
(0 0 0)
(0 0 0)
(0 0 0)
(0 0 0)
(-1.28145e-10 -1.08309e-10 3.13492e-12)
(-2.46445e-10 -2.12155e-10 5.6334e-12)
(-3.53564e-10 -3.13889e-10 6.97067e-12)
(-4.5164e-10 -4.1869e-10 6.44492e-12)
(-5.41739e-10 -5.3123e-10 2.83006e-12)
(-6.2353e-10 -6.5593e-10 -5.96732e-12)
(-6.94785e-10 -7.97162e-10 -2.34246e-11)
(-7.50653e-10 -9.59365e-10 -5.51612e-11)
(-7.82789e-10 -1.14703e-09 -1.09976e-10)
(-7.78649e-10 -1.3644e-09 -2.01064e-10)
(-7.21684e-10 -1.61467e-09 -3.46921e-10)
(-5.93805e-10 -1.89814e-09 -5.70475e-10)
(-3.81722e-10 -2.20811e-09 -8.92796e-10)
(-8.88014e-11 -2.52206e-09 -1.31279e-09)
(2.35462e-10 -2.77922e-09 -1.74901e-09)
(1.53578e-09 -3.03717e-09 -2.75415e-09)
(0 0 0)
(-2.54236e-10 -2.12275e-10 6.41736e-12)
(-4.88988e-10 -4.15729e-10 1.16236e-11)
(-7.01716e-10 -6.14922e-10 1.46557e-11)
(-8.96834e-10 -8.19923e-10 1.42427e-11)
(-1.07671e-09 -1.03975e-09 8.14901e-12)
(-1.24111e-09 -1.28285e-09 -7.44708e-12)
(-1.38625e-09 -1.5575e-09 -3.8885e-11)
(-1.50335e-09 -1.87192e-09 -9.63813e-11)
(-1.57688e-09 -2.23424e-09 -1.95872e-10)
(-1.58284e-09 -2.65177e-09 -3.61122e-10)
(-1.48904e-09 -3.12923e-09 -6.25116e-10)
(-1.26102e-09 -3.66499e-09 -1.02784e-09)
(-8.81254e-10 -4.24361e-09 -1.60338e-09)
(-3.89449e-10 -4.82235e-09 -2.34106e-09)
(6.34017e-11 -5.30022e-09 -3.08707e-09)
(4.34577e-10 -6.19708e-09 -4.50311e-09)
(0 0 0)
(-3.76448e-10 -3.07995e-10 9.95078e-12)
(-7.24153e-10 -6.03039e-10 1.82231e-11)
(-1.03959e-09 -8.91624e-10 2.35644e-11)
(-1.32968e-09 -1.18818e-09 2.43611e-11)
(-1.59853e-09 -1.5055e-09 1.77352e-11)
(-1.84678e-09 -1.8554e-09 -1.25135e-12)
(-2.07031e-09 -2.24917e-09 -4.07796e-11)
(-2.25828e-09 -2.69777e-09 -1.13991e-10)
(-2.39023e-09 -3.21154e-09 -2.4129e-10)
(-2.43288e-09 -3.79904e-09 -4.52938e-10)
(-2.33849e-09 -4.46416e-09 -7.90589e-10)
(-2.05089e-09 -5.20008e-09 -1.30385e-09)
(-1.53323e-09 -5.97796e-09 -2.03248e-09)
(-8.39029e-10 -6.72875e-09 -2.95491e-09)
(-2.15743e-10 -7.31581e-09 -3.86926e-09)
(-2.90052e-11 -8.15499e-09 -5.48584e-09)
(0 0 0)
(-4.9288e-10 -3.91921e-10 1.37571e-11)
(-9.48302e-10 -7.67145e-10 2.5498e-11)
(-1.362e-09 -1.13374e-09 3.38549e-11)
(-1.74363e-09 -1.50978e-09 3.71335e-11)
(-2.09956e-09 -1.9111e-09 3.22307e-11)
(-2.43226e-09 -2.35202e-09 1.37788e-11)
(-2.73896e-09 -2.84587e-09 -2.71227e-11)
(-3.00933e-09 -3.40509e-09 -1.04742e-10)
(-3.22179e-09 -4.04078e-09 -2.41176e-10)
(-3.33829e-09 -4.76114e-09 -4.69154e-10)
(-3.29855e-09 -5.56793e-09 -8.33764e-10)
(-3.01875e-09 -6.44885e-09 -1.3889e-09)