/*--------------------------------*- C++ -*----------------------------------*\
| =========                 |                                                 |
| \\      /  F ield         | foam-extend: Open Source CFD                    |
|  \\    /   O peration     | Version:     3.1                                |
|   \\  /    A nd           | Web:         http://www.extend-project.de       |
|    \\/     M anipulation  |                                                 |
\*---------------------------------------------------------------------------*/
FoamFile
{
    version     2.0;
    format      ascii;
    class       surfaceVectorField;
    location    "3.3";
    object      Sf;
}
// * * * * * * * * * * * * * * * * * * * * * * * * * * * * * * * * * * * * * //

dimensions      [0 2 0 0 0 0 0];

internalField   nonuniform List<vector> 
41600
(
(0.000625513 -2.76511e-06 -1.93201e-08)
(-5.13164e-07 0.00070589 -1.284e-08)
(1.01596e-08 1.14296e-08 0.000704812)
(-1.04124e-08 -1.17139e-08 -0.00070478)
(0.000626005 -5.32747e-06 -3.72286e-08)
(-4.9125e-07 0.000705688 -3.84174e-08)
(9.99036e-09 3.40955e-08 0.000705288)
(-1.02409e-08 -3.49459e-08 -0.000705232)
(0.000626485 -7.66277e-06 -5.37062e-08)
(-4.79436e-07 0.000705462 -6.44846e-08)
(1.03597e-08 5.69773e-08 0.000705733)
(-1.06146e-08 -5.83962e-08 -0.000705652)
(0.000626976 -9.82641e-06 -6.92421e-08)
(-4.91251e-07 0.000705291 -9.28091e-08)
(1.14809e-08 8.15208e-08 0.000706206)
(-1.17451e-08 -8.35234e-08 -0.000706098)
(0.000627501 -1.18631e-05 -8.43627e-08)
(-5.24775e-07 0.000705164 -1.25586e-07)
(1.32191e-08 1.09261e-07 0.00070673)
(-1.34869e-08 -1.11862e-07 -0.000706589)
(0.000628081 -1.38119e-05 -9.95384e-08)
(-5.79757e-07 0.000705077 -1.65237e-07)
(1.52892e-08 1.41268e-07 0.000707326)
(-1.55469e-08 -1.4446e-07 -0.000707146)
(0.000628738 -1.57007e-05 -1.14444e-07)
(-6.56347e-07 0.000705018 -2.14544e-07)
(1.71962e-08 1.77742e-07 0.000708015)
(-1.7429e-08 -1.81487e-07 -0.000707786)
(0.000629494 -1.75405e-05 -1.28203e-07)
(-7.55893e-07 0.000704969 -2.76818e-07)
(1.8148e-08 2.1746e-07 0.000708814)
(-1.83199e-08 -2.2166e-07 -0.000708524)
(0.000630375 -1.93234e-05 -1.39548e-07)
(-8.80756e-07 0.000704912 -3.56494e-07)
(1.65453e-08 2.5656e-07 0.000709743)
(-1.6573e-08 -2.60983e-07 -0.000709375)
(0.000631407 -2.10072e-05 -1.45726e-07)
(-1.03277e-06 0.000704813 -4.59747e-07)
(9.25444e-09 2.85971e-07 0.000710816)
(-9.06582e-09 -2.90202e-07 -0.00071035)
(0.000632623 -2.25119e-05 -1.43218e-07)
(-1.21602e-06 0.000704633 -5.95939e-07)
(-9.6008e-09 2.86733e-07 0.000712051)
(9.98788e-09 -2.90274e-07 -0.000711458)
(0.000634057 -2.37051e-05 -1.29394e-07)
(-1.43499e-06 0.000704321 -7.81161e-07)
(-5.03444e-08 2.22146e-07 0.000713468)
(5.06872e-08 -2.24731e-07 -0.000712701)
(0.000635748 -2.44057e-05 -1.07382e-07)
(-1.69046e-06 0.000703828 -1.04533e-06)
(-1.31051e-07 2.45257e-08 0.0007151)
(1.30639e-07 -2.68221e-08 -0.000714076)
(0.000637706 -2.44576e-05 -1.00934e-07)
(-1.95588e-06 0.000703181 -1.44429e-06)
(-2.73574e-07 -4.17449e-07 0.000717024)
(2.7204e-07 4.13762e-07 -0.000715586)
(0.000639669 -2.39157e-05 -1.99029e-07)
(-1.98127e-06 0.000702568 -2.05405e-06)
(-4.48832e-07 -1.20859e-06 0.000719295)
(4.66596e-07 1.22328e-06 -0.000717142)
(-7.83465e-06 0.000699699 -5.55338e-07)
(-1.9779e-06 -3.82499e-06 0.000723959)
(4.00421e-06 6.02819e-06 -0.00072272)
(0.000625493 -2.72658e-06 -5.77714e-08)
(-1.00505e-06 0.000708617 -2.51654e-08)
(2.99872e-08 1.08749e-08 0.000707565)
(-3.07438e-08 -1.11574e-08 -0.000707495)
(0.000625964 -5.25502e-06 -1.11466e-07)
(-9.61647e-07 0.000708217 -7.52531e-08)
(2.94103e-08 3.2349e-08 0.000707815)
(-3.01684e-08 -3.32032e-08 -0.000707724)
(0.000626423 -7.55974e-06 -1.611e-07)
(-9.37552e-07 0.000707768 -1.26213e-07)
(3.04353e-08 5.38525e-08 0.000708008)
(-3.12193e-08 -5.53043e-08 -0.000707897)
(0.000626892 -9.69503e-06 -2.07982e-07)
(-9.59404e-07 0.000707428 -1.81458e-07)
(3.37291e-08 7.68229e-08 0.000708284)
(-3.45485e-08 -7.89108e-08 -0.000708148)
(0.000627391 -1.17098e-05 -2.53925e-07)
(-1.0236e-06 0.000707182 -2.45276e-07)
(3.88426e-08 1.02772e-07 0.000708654)
(-3.96835e-08 -1.05532e-07 -0.000708489)
(0.000627941 -1.36429e-05 -3.00284e-07)
(-1.12864e-06 0.000707014 -3.22379e-07)
(4.49953e-08 1.32786e-07 0.000709132)
(-4.58422e-08 -1.36264e-07 -0.000708928)
(0.00062856 -1.55213e-05 -3.46013e-07)
(-1.27495e-06 0.0007069 -4.18029e-07)
(5.10712e-08 1.67588e-07 0.000709721)
(-5.18483e-08 -1.71792e-07 -0.000709472)
(0.00062927 -1.73607e-05 -3.88868e-07)
(-1.46482e-06 0.000706813 -5.38678e-07)
(5.50475e-08 2.07303e-07 0.000710423)
(-5.55886e-08 -2.12089e-07 -0.000710118)
(0.00063009 -1.9162e-05 -4.24716e-07)
(-1.70093e-06 0.000706719 -6.92607e-07)
(5.26272e-08 2.50425e-07 0.000711235)
(-5.27075e-08 -2.55473e-07 -0.000710863)
(0.000631043 -2.09045e-05 -4.45996e-07)
(-1.98573e-06 0.00070656 -8.90911e-07)
(3.58082e-08 2.92441e-07 0.000712136)
(-3.5202e-08 -2.9727e-07 -0.000711683)
(0.000632146 -2.25296e-05 -4.4272e-07)
(-2.321e-06 0.000706262 -1.15009e-06)
(-9.78433e-09 3.24291e-07 0.000713093)
(1.11108e-08 -3.28226e-07 -0.000712542)
(0.000633412 -2.39331e-05 -4.04925e-07)
(-2.70235e-06 0.000705726 -1.49671e-06)
(-1.08624e-07 3.30286e-07 0.000714053)
(1.10224e-07 -3.32466e-07 -0.000713375)
(0.000634827 -2.49543e-05 -3.34904e-07)
(-3.10587e-06 0.000704849 -1.97719e-06)
(-2.99561e-07 2.88342e-07 0.000714948)
(3.00046e-07 -2.87696e-07 -0.000714086)
(0.000636299 -2.54096e-05 -2.81919e-07)
(-3.42711e-06 0.000703631 -2.67331e-06)
(-6.2002e-07 1.80631e-07 0.00071577)
(6.19282e-07 -1.75225e-07 -0.000714594)
(0.000637451 -2.5243e-05 -4.52854e-07)
(-3.17655e-06 0.000702386 -3.70023e-06)
(-9.75981e-07 3.02737e-08 0.000716678)
(1.01921e-06 -1.40896e-08 -0.000714861)
(-7.38178e-06 0.000697588 -2.74757e-06)
(-3.27498e-06 7.8141e-07 0.000715538)
(6.28302e-06 -2.02889e-06 -0.000712087)
(0.000625452 -2.64748e-06 -9.55048e-08)
(-1.45559e-06 0.000711265 -3.64291e-08)
(4.85493e-08 1.00002e-08 0.000710247)
(-4.9801e-08 -1.02747e-08 -0.00071014)
(0.000625883 -5.10237e-06 -1.84538e-07)
(-1.39161e-06 0.000710673 -1.08898e-07)
(4.74502e-08 2.96716e-08 0.000710253)
(-4.8713e-08 -3.04989e-08 -0.00071013)
(0.000626301 -7.33849e-06 -2.66925e-07)
(-1.35463e-06 0.000710005 -1.82508e-07)
(4.89968e-08 4.92535e-08 0.000710176)
(-5.03036e-08 -5.06383e-08 -0.000710037)
(0.000626727 -9.41215e-06 -3.45074e-07)
(-1.3838e-06 0.000709504 -2.62099e-07)
(5.43325e-08 7.01588e-08 0.000710236)
(-5.57032e-08 -7.21153e-08 -0.000710077)
(0.000627178 -1.13737e-05 -4.22781e-07)
(-1.47313e-06 0.000709146 -3.53838e-07)
(6.26538e-08 9.38805e-08 0.000710435)
(-6.41039e-08 -9.64712e-08 -0.000710249)
(0.00062767 -1.32587e-05 -5.01736e-07)
(-1.61903e-06 0.000708902 -4.6437e-07)
(7.29965e-08 1.21757e-07 0.00071077)
(-7.45039e-08 -1.2506e-07 -0.000710549)
(0.000628218 -1.50974e-05 -5.80348e-07)
(-1.82171e-06 0.000708743 -6.00963e-07)
(8.41595e-08 1.55221e-07 0.000711231)
(-8.55613e-08 -1.59251e-07 -0.000710969)
(0.000628838 -1.6917e-05 -6.56037e-07)
(-2.08342e-06 0.000708637 -7.72462e-07)
(9.36186e-08 1.95724e-07 0.000711806)
(-9.46291e-08 -2.00424e-07 -0.000711497)
(0.000629543 -1.87325e-05 -7.22028e-07)
(-2.40609e-06 0.000708539 -9.90014e-07)
(9.61255e-08 2.44918e-07 0.000712472)
(-9.63938e-08 -2.50128e-07 -0.000712109)
(0.000630348 -2.05529e-05 -7.6741e-07)
(-2.79099e-06 0.000708386 -1.26829e-06)
(8.21846e-08 3.05076e-07 0.000713183)
(-8.12896e-08 -3.1043e-07 -0.000712761)
(0.000631257 -2.23628e-05 -7.76339e-07)
(-3.23237e-06 0.000708077 -1.62817e-06)
(3.5674e-08 3.80043e-07 0.000713862)
(-3.32773e-08 -3.8477e-07 -0.000713375)
(0.000632258 -2.41121e-05 -7.29039e-07)
(-3.70711e-06 0.000707478 -2.10117e-06)
(-6.91381e-08 4.78012e-07 0.000714388)
(7.29275e-08 -4.80705e-07 -0.00071383)
(0.000633301 -2.56989e-05 -6.14129e-07)
(-4.15334e-06 0.000706434 -2.73938e-06)
(-2.66877e-07 6.18233e-07 0.000714599)
(2.71199e-07 -6.16527e-07 -0.000713952)
(0.000634259 -2.6952e-05 -4.66243e-07)
(-4.39106e-06 0.000704874 -3.63189e-06)
(-5.75763e-07 8.41142e-07 0.000714395)
(5.81656e-07 -8.31559e-07 -0.000713585)
(0.000634827 -2.77014e-05 -5.01312e-07)
(-3.794e-06 0.000703123 -4.92258e-06)
(-8.67615e-07 1.1924e-06 0.000714035)
(9.16878e-07 -1.18083e-06 -0.000712778)
(-8.78741e-06 0.000699185 -3.52695e-06)
(-2.00872e-06 2.08675e-06 0.000711524)
(3.65188e-06 -2.4856e-06 -0.000710134)
(0.000625393 -2.52677e-06 -1.31316e-07)
(-1.84681e-06 0.000713792 -4.61387e-08)
(6.53668e-08 8.90118e-09 0.000712818)
(-6.70836e-08 -9.15002e-09 -0.000712677)
(0.000625767 -4.86643e-06 -2.54211e-07)
(-1.76397e-06 0.000713014 -1.37896e-07)
(6.3771e-08 2.64549e-08 0.000712565)
(-6.55e-08 -2.71981e-08 -0.000712413)
(0.000626128 -6.9964e-06 -3.67765e-07)
(-1.71423e-06 0.000712137 -2.30932e-07)
(6.58228e-08 4.40327e-08 0.000712206)
(-6.75987e-08 -4.52689e-08 -0.000712044)
(0.000626493 -8.97062e-06 -4.76563e-07)
(-1.74698e-06 0.00071148 -3.31289e-07)
(7.30917e-08 6.29072e-08 0.000712037)
(-7.49746e-08 -6.4674e-08 -0.000711859)
(0.000626875 -1.08319e-05 -5.86303e-07)
(-1.85303e-06 0.00071101 -4.46634e-07)
(8.45668e-08 8.45445e-08 0.000712048)
(-8.66171e-08 -8.6927e-08 -0.000711845)
(0.000627286 -1.26193e-05 -6.98219e-07)
(-2.0274e-06 0.000710693 -5.84927e-07)
(9.94274e-08 1.10515e-07 0.000712219)
(-1.01585e-07 -1.13594e-07 -0.000711986)
(0.000627735 -1.4373e-05 -8.11268e-07)
(-2.26901e-06 0.0007105 -7.54845e-07)
(1.16628e-07 1.42667e-07 0.000712533)
(-1.18693e-07 -1.46508e-07 -0.000712266)
(0.000628232 -1.61307e-05 -9.23782e-07)
(-2.57861e-06 0.0007104 -9.66835e-07)
(1.34028e-07 1.83517e-07 0.00071297)
(-1.35692e-07 -1.88196e-07 -0.000712663)
(0.000628784 -1.79274e-05 -1.028e-06)
(-2.95673e-06 0.000710342 -1.23386e-06)
(1.47602e-07 2.37366e-07 0.000713487)
(-1.48372e-07 -2.42888e-07 -0.000713139)
(0.000629393 -1.9795e-05 -1.11135e-06)
(-3.40138e-06 0.00071026 -1.5728e-06)
(1.49878e-07 3.11875e-07 0.000714027)
(-1.49077e-07 -3.18006e-07 -0.00071364)
(0.000630059 -2.17686e-05 -1.15395e-06)
(-3.90099e-06 0.000710057 -2.00703e-06)
(1.28716e-07 4.20404e-07 0.000714489)
(-1.2549e-07 -4.2644e-07 -0.000714067)
(0.000630763 -2.38712e-05 -1.12668e-06)
(-4.41767e-06 0.000709585 -2.57093e-06)
(6.68583e-08 5.86647e-07 0.000714717)
(-6.0536e-08 -5.91029e-07 -0.000714275)
(0.000631457 -2.60861e-05 -9.96332e-07)
(-4.85699e-06 0.000708649 -3.31892e-06)
(-5.71071e-08 8.47981e-07 0.000714499)
(6.67381e-08 -8.4797e-07 -0.00071405)
(0.000632046 -2.82801e-05 -7.56052e-07)
(-4.99498e-06 0.000707061 -4.34396e-06)
(-2.48205e-07 1.24782e-06 0.000713649)
(2.62496e-07 -1.24035e-06 -0.000713177)
(0.000632358 -3.0111e-05 -5.44847e-07)
(-4.14884e-06 0.000704948 -5.81915e-06)
(-4.20617e-07 1.77958e-06 0.000712395)
(4.63661e-07 -1.77365e-06 -0.00071171)
(-9.3253e-06 0.000702327 -4.16426e-06)
(-8.70614e-07 2.69973e-06 0.000709457)
(1.72236e-06 -3.28611e-06 -0.000709434)
(0.00062532 -2.36228e-06 -1.64395e-07)
(-2.16449e-06 0.000716155 -5.39784e-08)
(8.03828e-08 7.96346e-09 0.000715236)
(-8.25231e-08 -8.19096e-09 -0.000715064)
(0.000625623 -4.54568e-06 -3.18567e-07)
(-2.06511e-06 0.000715198 -1.61209e-07)
(7.84226e-08 2.37132e-08 0.000714715)
(-8.05718e-08 -2.43943e-08 -0.000714538)
(0.000625914 -6.5295e-06 -4.61406e-07)
(-2.00298e-06 0.000714122 -2.69677e-07)
(8.10157e-08 3.95578e-08 0.000714068)
(-8.32342e-08 -4.07146e-08 -0.000713886)
(0.000626204 -8.35988e-06 -5.99824e-07)
(-2.03476e-06 0.000713312 -3.86379e-07)
(9.01201e-08 5.66401e-08 0.000713659)
(-9.25136e-08 -5.83366e-08 -0.000713466)
(0.000626503 -1.00775e-05 -7.39767e-07)
(-2.14868e-06 0.00071273 -5.1991e-07)
(1.04716e-07 7.63705e-08 0.000713465)
(-1.07358e-07 -7.86886e-08 -0.000713251)
(0.000626816 -1.17256e-05 -8.82909e-07)
(-2.33809e-06 0.000712344 -6.78983e-07)
(1.24204e-07 1.00311e-07 0.000713458)
(-1.27031e-07 -1.03352e-07 -0.000713221)
(0.000627149 -1.33451e-05 -1.03052e-06)
(-2.59954e-06 0.000712124 -8.73124e-07)
(1.47922e-07 1.30454e-07 0.000713616)
(-1.50746e-07 -1.34353e-07 -0.00071335)
(0.000627504 -1.49769e-05 -1.18236e-06)
(-2.93095e-06 0.000712037 -1.11359e-06)
(1.74905e-07 1.69938e-07 0.00071391)
(-1.7742e-07 -1.74841e-07 -0.000713612)
(0.000627879 -1.66701e-05 -1.33194e-06)
(-3.32992e-06 0.000712041 -1.41407e-06)
(2.03544e-07 2.24265e-07 0.000714292)
(-2.05142e-07 -2.30283e-07 -0.000713962)
(0.000628269 -1.84833e-05 -1.4676e-06)
(-3.79177e-06 0.00071208 -1.79231e-06)
(2.30469e-07 3.03121e-07 0.000714695)
(-2.30236e-07 -3.10222e-07 -0.00071434)
(0.000628669 -2.04969e-05 -1.56988e-06)
(-4.30424e-06 0.000712078 -2.27343e-06)
(2.5037e-07 4.23056e-07 0.000715025)
(-2.46909e-07 -4.30835e-07 -0.000714656)
(0.00062907 -2.28133e-05 -1.6034e-06)
(-4.82723e-06 0.000711909 -2.89461e-06)
(2.57914e-07 6.11508e-07 0.000715133)
(-2.49426e-07 -6.1859e-07 -0.000714776)
(0.000629454 -2.55124e-05 -1.51421e-06)
(-5.25613e-06 0.000711351 -3.7143e-06)
(2.43387e-07 9.08571e-07 0.000714792)
(-2.28505e-07 -9.12285e-07 -0.000714486)
(0.000629784 -2.85247e-05 -1.24237e-06)
(-5.34712e-06 0.00071007 -4.83205e-06)
(1.9494e-07 1.35166e-06 0.000713721)
(-1.7259e-07 -1.34893e-06 -0.000713504)
(0.000629963 -3.13359e-05 -7.68674e-07)
(-4.36246e-06 0.000707758 -6.4394e-06)
(1.05931e-07 1.91104e-06 0.000711828)
(-7.08216e-08 -1.90907e-06 -0.000711682)
(-9.56474e-06 0.000706718 -4.50671e-06)
(1.54837e-07 2.7205e-06 0.000708971)
(-1.81216e-07 -3.16048e-06 -0.000710723)
(0.000625236 -2.15738e-06 -1.94595e-07)
(-2.39763e-06 0.000718312 -5.96637e-08)
(9.38866e-08 7.19749e-09 0.000717462)
(-9.64181e-08 -7.41005e-09 -0.000717262)
(0.000625458 -4.1474e-06 -3.76819e-07)
(-2.28487e-06 0.000717188 -1.7804e-07)
(9.1622e-08 2.14136e-08 0.00071667)
(-9.4166e-08 -2.20556e-08 -0.000716471)
(0.000625669 -5.94722e-06 -5.46421e-07)
(-2.21116e-06 0.000715923 -2.97446e-07)
(9.47041e-08 3.56609e-08 0.000715734)
(-9.73541e-08 -3.67544e-08 -0.000715536)
(0.000625875 -7.59919e-06 -7.11231e-07)
(-2.23843e-06 0.000714965 -4.25408e-07)
(1.05476e-07 5.09492e-08 0.000715078)
(-1.08363e-07 -5.25401e-08 -0.000714874)
(0.000626082 -9.14286e-06 -8.76669e-07)
(-2.3525e-06 0.000714275 -5.70961e-07)
(1.22961e-07 6.85363e-08 0.00071467)
(-1.26183e-07 -7.07097e-08 -0.000714453)
(0.000626292 -1.06126e-05 -1.04749e-06)
(-2.54371e-06 0.000713816 -7.43189e-07)
(1.46799e-07 8.98612e-08 0.000714477)
(-1.50322e-07 -9.27469e-08 -0.000714242)
(0.000626501 -1.204e-05 -1.22773e-06)
(-2.80548e-06 0.000713555 -9.51848e-07)
(1.76881e-07 1.16846e-07 0.000714468)
(-1.80537e-07 -1.20602e-07 -0.000714209)
(0.000626706 -1.3463e-05 -1.41821e-06)
(-3.13238e-06 0.000713464 -1.20807e-06)
(2.13607e-07 1.52443e-07 0.000714607)
(-2.17121e-07 -1.57282e-07 -0.000714322)
(0.000626897 -1.49323e-05 -1.61598e-06)
(-3.51837e-06 0.000713516 -1.52521e-06)
(2.57846e-07 2.016e-07 0.00071485)
(-2.60576e-07 -2.07793e-07 -0.000714541)
(0.000627062 -1.65226e-05 -1.81289e-06)
(-3.95593e-06 0.000713678 -1.92067e-06)
(3.10443e-07 2.7268e-07 0.000715138)
(-3.11304e-07 -2.8044e-07 -0.000714813)
(0.000627191 -1.83457e-05 -1.99437e-06)
(-4.43546e-06 0.00071391 -2.41994e-06)
(3.72615e-07 3.79291e-07 0.000715399)
(-3.6978e-07 -3.886e-07 -0.000715071)
(0.000627282 -2.05583e-05 -2.12808e-06)
(-4.92811e-06 0.000714132 -3.063e-06)
(4.49535e-07 5.43005e-07 0.000715521)
(-4.40109e-07 -5.53235e-07 -0.000715218)
(0.000627363 -2.33453e-05 -2.15501e-06)
(-5.35535e-06 0.000714148 -3.91711e-06)
(5.42731e-07 7.96708e-07 0.000715307)
(-5.23905e-07 -8.05895e-07 -0.000715077)
(0.00062749 -2.68155e-05 -1.97008e-06)
(-5.50459e-06 0.000713545 -5.10065e-06)
(6.29106e-07 1.1751e-06 0.00071443)
(-5.98763e-07 -1.17932e-06 -0.000714346)
(0.00062768 -3.05044e-05 -1.32101e-06)
(-4.58462e-06 0.000711448 -6.82286e-06)
(6.08235e-07 1.66291e-06 0.000712304)
(-5.7689e-07 -1.66491e-06 -0.00071257)
(-9.82189e-06 0.000712955 -4.68972e-06)
(1.04739e-06 2.37254e-06 0.00071038)
(-1.77173e-06 -2.69658e-06 -0.000714054)
(0.000625144 -1.91928e-06 -2.20848e-07)
(-2.53889e-06 0.000720232 -6.29783e-08)
(1.06079e-07 6.49339e-09 0.00071946)
(-1.0897e-07 -6.68525e-09 -0.000719236)
(0.000625279 -3.6852e-06 -4.27185e-07)
(-2.41692e-06 0.000718955 -1.87781e-07)
(1.03474e-07 1.92628e-08 0.000718402)
(-1.06383e-07 -1.98385e-08 -0.000718186)
(0.000625405 -5.2744e-06 -6.19649e-07)
(-2.33382e-06 0.000717513 -3.13338e-07)
(1.06899e-07 3.19213e-08 0.000717181)
(-1.09945e-07 -3.28975e-08 -0.000716972)
(0.000625524 -6.72255e-06 -8.05588e-07)
(-2.35443e-06 0.000716415 -4.47301e-07)
(1.19049e-07 4.53247e-08 0.00071628)
(-1.22384e-07 -4.67486e-08 -0.000716072)
(0.000625637 -8.05765e-06 -9.91398e-07)
(-2.46185e-06 0.000715612 -5.9869e-07)
(1.38961e-07 6.05288e-08 0.000715654)
(-1.4273e-07 -6.24828e-08 -0.00071544)
(0.000625741 -9.30139e-06 -1.18569e-06)
(-2.64321e-06 0.000715063 -7.76583e-07)
(1.66512e-07 7.86995e-08 0.000715263)
(-1.70706e-07 -8.13067e-08 -0.000715036)
(0.000625828 -1.04764e-05 -1.39374e-06)
(-2.88843e-06 0.000714733 -9.90284e-07)
(2.02073e-07 1.01339e-07 0.000715067)
(-2.06557e-07 -1.04767e-07 -0.000714821)
(0.000625889 -1.16106e-05 -1.61783e-06)
(-3.18823e-06 0.000714603 -1.2499e-06)
(2.47025e-07 1.30556e-07 0.000715029)
(-2.51594e-07 -1.35041e-07 -0.000714763)
(0.000625906 -1.27416e-05 -1.85874e-06)
(-3.53186e-06 0.000714653 -1.56742e-06)
(3.03966e-07 1.69492e-07 0.000715111)
(-3.0801e-07 -1.75351e-07 -0.000714827)
(0.00062586 -1.39267e-05 -2.11315e-06)
(-3.90691e-06 0.000714871 -1.95818e-06)
(3.765e-07 2.22885e-07 0.000715266)
(-3.78851e-07 -2.30477e-07 -0.000714974)
(0.000625726 -1.52616e-05 -2.37485e-06)
(-4.30278e-06 0.000715255 -2.44521e-06)
(4.69798e-07 2.97657e-07 0.000715448)
(-4.68495e-07 -3.0741e-07 -0.000715161)
(0.000625493 -1.68897e-05 -2.62654e-06)
(-4.70346e-06 0.000715772 -3.06759e-06)
(5.94961e-07 4.03348e-07 0.000715581)
(-5.86633e-07 -4.15801e-07 -0.000715324)
(0.000625198 -1.90426e-05 -2.83009e-06)
(-5.08059e-06 0.000716316 -3.89957e-06)
(7.62477e-07 5.54247e-07 0.000715528)
(-7.42804e-07 -5.6937e-07 -0.000715342)
(0.000625005 -2.20639e-05 -2.88356e-06)
(-5.3472e-06 0.000716581 -5.09309e-06)
(9.492e-07 7.72915e-07 0.000715044)
(-9.13203e-07 -7.88378e-07 -0.000714998)
(0.000625235 -2.602e-05 -2.32326e-06)
(-4.84818e-06 0.000715418 -6.92649e-06)
(1.00916e-06 1.08571e-06 0.000713259)
(-9.75843e-07 -1.09905e-06 -0.000713716)
(-1.11203e-05 0.000723794 -4.72369e-06)
(1.92791e-06 1.74126e-06 0.000715337)
(-3.20795e-06 -1.98145e-06 -0.000721178)
(0.000625049 -1.65289e-06 -2.42246e-07)
(1.17028e-07 5.81191e-09 0.000721201)
(-1.20242e-07 -5.98284e-09 -0.000720958)
(-2.58458e-06 0.000721885 -6.3901e-08)
(0.000625094 -3.17338e-06 -4.67974e-07)
(1.14023e-07 1.71869e-08 0.000719891)
(-1.17249e-07 -1.7692e-08 -0.000719663)
(-2.4587e-06 0.000720476 -1.90377e-07)
(0.000625133 -4.53546e-06 -6.7818e-07)
(1.17574e-07 2.82819e-08 0.000718399)
(-1.20965e-07 -2.91269e-08 -0.000718184)
(-2.36995e-06 0.000718876 -3.17249e-07)
(0.000625166 -5.75942e-06 -8.80145e-07)
(1.30721e-07 3.97518e-08 0.000717256)
(-1.34458e-07 -4.09819e-08 -0.000717049)
(-2.38306e-06 0.00071764 -4.52066e-07)
(0.000625187 -6.85904e-06 -1.0824e-06)
(1.52434e-07 5.23956e-08 0.000716408)
(-1.56682e-07 -5.40763e-08 -0.000716201)
(-2.47902e-06 0.000716714 -6.03599e-07)
(0.000625191 -7.8466e-06 -1.2947e-06)
(1.82687e-07 6.69455e-08 0.000715804)
(-1.87475e-07 -6.91709e-08 -0.000715588)
(-2.6424e-06 0.000716052 -7.80334e-07)
(0.000625168 -8.73414e-06 -1.52261e-06)
(2.22143e-07 8.42386e-08 0.000715402)
(-2.27385e-07 -8.7163e-08 -0.000715173)
(-2.8596e-06 0.000715624 -9.90528e-07)
(0.000625101 -9.53256e-06 -1.77045e-06)
(2.72595e-07 1.05278e-07 0.000715161)
(-2.78122e-07 -1.09089e-07 -0.000714921)
(-3.11642e-06 0.000715405 -1.24272e-06)
(0.000624971 -1.02548e-05 -2.04072e-06)
(3.37183e-07 1.31071e-07 0.000715044)
(-3.42438e-07 -1.3599e-07 -0.000714795)
(-3.39599e-06 0.00071538 -1.54649e-06)
(0.000624745 -1.09184e-05 -2.33468e-06)
(4.20252e-07 1.62395e-07 0.00071501)
(-4.2414e-07 -1.68785e-07 -0.00071476)
(-3.67769e-06 0.000715541 -1.91334e-06)
(0.000624381 -1.15468e-05 -2.65396e-06)
(5.27672e-07 1.99323e-07 0.000715015)
(-5.28406e-07 -2.07826e-07 -0.000714782)
(-3.93719e-06 0.000715892 -2.35937e-06)
(0.000623812 -1.21709e-05 -2.99655e-06)
(6.69579e-07 2.38547e-07 0.000714968)
(-6.64077e-07 -2.50372e-07 -0.000714783)
(-4.14078e-06 0.000716408 -2.91027e-06)
(0.000622946 -1.28583e-05 -3.35423e-06)
(8.55024e-07 2.6874e-07 0.00071468)
(-8.38797e-07 -2.86079e-07 -0.00071461)
(-4.23033e-06 0.00071702 -3.61187e-06)
(0.000621629 -1.37825e-05 -3.68014e-06)
(1.06144e-06 2.69996e-07 0.00071372)
(-1.02888e-06 -2.9694e-07 -0.000713936)
(-4.0627e-06 0.000717532 -4.55116e-06)
(0.000619699 -1.56617e-05 -3.59341e-06)
(1.16223e-06 2.4734e-07 0.000710798)
(-1.12902e-06 -2.83502e-07 -0.000711952)
(-2.95126e-06 0.000717333 -5.85961e-06)
(2.91962e-06 7.81133e-07 0.000726029)
(-4.61194e-06 -9.52371e-07 -0.000734548)
(-1.71149e-05 0.000745163 -4.0091e-06)
(0.000625536 -2.80093e-06 -1.64293e-08)
(-5.34943e-07 0.000705927 -1.17278e-08)
(9.53629e-09 1.07283e-08 0.00070484)
(0.000626049 -5.39677e-06 -3.18091e-08)
(-5.12855e-07 0.000705723 -3.50728e-08)
(9.3784e-09 3.20047e-08 0.000705338)
(0.000626552 -7.76287e-06 -4.5805e-08)
(-5.0196e-07 0.000705495 -5.87411e-08)
(9.73304e-09 5.34935e-08 0.000705805)
(0.000627069 -9.95536e-06 -5.86557e-08)
(-5.16442e-07 0.000705322 -8.41769e-08)
(1.08145e-08 7.65832e-08 0.000706303)
(0.000627624 -1.20201e-05 -7.09158e-08)
(-5.54426e-07 0.000705196 -1.13178e-07)
(1.24876e-08 1.02753e-07 0.000706855)
(0.00062824 -1.39966e-05 -8.25481e-08)
(-6.15798e-07 0.00070511 -1.4752e-07)
(1.4504e-08 1.33054e-07 0.000707486)
(0.000628942 -1.5912e-05 -9.29972e-08)
(-7.00998e-07 0.00070505 -1.89098e-07)
(1.64388e-08 1.67792e-07 0.000708215)
(0.000629754 -1.77758e-05 -1.01525e-07)
(-8.11674e-07 0.000705 -2.39936e-07)
(1.75618e-08 2.05993e-07 0.000709063)
(0.000630705 -1.95778e-05 -1.06908e-07)
(-9.50802e-07 0.000704939 -3.0196e-07)
(1.6466e-08 2.44324e-07 0.00071005)
(0.000631825 -2.12715e-05 -1.07221e-07)
(-1.12102e-06 0.00070483 -3.76928e-07)
(1.05781e-08 2.75074e-07 0.000711193)
(0.000633148 -2.27722e-05 -1.01344e-07)
(-1.32789e-06 0.00070463 -4.6595e-07)
(-4.85468e-09 2.82496e-07 0.000712511)
(0.000634713 -2.39464e-05 -9.06175e-08)
(-1.57765e-06 0.000704284 -5.6694e-07)
(-3.73596e-08 2.37395e-07 0.000714024)
(0.000636552 -2.46252e-05 -8.45246e-08)
(-1.87212e-06 0.000703738 -6.66957e-07)
(-9.75542e-08 9.07603e-08 0.00071576)
(0.000638648 -2.46984e-05 -1.07948e-07)
(-2.17999e-06 0.000703004 -7.22761e-07)
(-1.90499e-07 -2.23687e-07 0.00071777)
(0.000640712 -2.43308e-05 -1.86233e-07)
(-2.23652e-06 0.000702284 -6.48903e-07)
(-2.76029e-07 -7.35008e-07 0.000720022)
(-6.06288e-06 0.00070117 -4.08582e-07)
(-9.2902e-07 -2.03828e-06 0.000724809)
(0.000625515 -2.76224e-06 -4.93173e-08)
(-1.04764e-06 0.00070869 -2.30092e-08)
(2.81354e-08 1.01941e-08 0.000707626)
(0.000626007 -5.32424e-06 -9.55726e-08)
(-1.00382e-06 0.000708287 -6.87346e-08)
(2.75791e-08 3.03047e-08 0.000707895)
(0.000626489 -7.66022e-06 -1.37839e-07)
(-9.81455e-07 0.000707834 -1.14963e-07)
(2.85496e-08 5.04149e-08 0.000708106)
(0.000626983 -9.8252e-06 -1.76971e-07)
(-1.0084e-06 0.000707492 -1.64544e-07)
(3.17038e-08 7.18973e-08 0.000708403)
(0.000627512 -1.18691e-05 -2.14354e-07)
(-1.08122e-06 0.000707247 -2.20982e-07)
(3.66209e-08 9.62174e-08 0.000708799)
(0.000628097 -1.38316e-05 -2.5001e-07)
(-1.19869e-06 0.000707081 -2.87847e-07)
(4.26205e-08 1.24475e-07 0.000709308)
(0.00062876 -1.57385e-05 -2.82431e-07)
(-1.36148e-06 0.000706967 -3.68752e-07)
(4.87207e-08 1.57428e-07 0.000709933)
(0.000629523 -1.76048e-05 -3.0935e-07)
(-1.57273e-06 0.000706878 -4.67337e-07)
(5.31013e-08 1.95318e-07 0.000710677)
(0.000630409 -1.94281e-05 -3.26652e-07)
(-1.83602e-06 0.000706776 -5.8735e-07)
(5.2084e-08 2.37088e-07 0.000711537)
(0.000631439 -2.11838e-05 -3.2843e-07)
(-2.15498e-06 0.000706599 -7.32025e-07)
(3.89459e-08 2.79092e-07 0.000712493)
(0.000632633 -2.28094e-05 -3.1138e-07)
(-2.53317e-06 0.000706266 -9.02377e-07)
(1.84989e-09 3.13583e-07 0.000713513)
(0.000633991 -2.41933e-05 -2.75692e-07)
(-2.96709e-06 0.000705671 -1.09208e-06)
(-7.7052e-08 3.27479e-07 0.000714542)
(0.000635471 -2.51714e-05 -2.4157e-07)
(-3.43097e-06 0.000704701 -1.27332e-06)
(-2.20477e-07 3.03361e-07 0.00071552)
(0.000636908 -2.5569e-05 -2.68979e-07)
(-3.80492e-06 0.000703354 -1.36285e-06)
(-4.32437e-07 2.28363e-07 0.000716438)
(0.000637888 -2.53699e-05 -4.2096e-07)
(-3.58617e-06 0.000701994 -1.21227e-06)
(-6.06199e-07 1.20667e-07 0.000717393)
(-5.46044e-06 0.000698116 -4.17225e-07)
(-1.54999e-06 4.37408e-07 0.000716425)
(0.000625472 -2.6823e-06 -8.19387e-08)
(-1.5171e-06 0.000711372 -3.3328e-08)
(4.55198e-08 9.35598e-09 0.000710339)
(0.000625924 -5.16972e-06 -1.58579e-07)
(-1.45247e-06 0.000710776 -9.95022e-08)
(4.44564e-08 2.77593e-08 0.00071036)
(0.000626364 -7.43597e-06 -2.28894e-07)
(-1.41794e-06 0.000710103 -1.66341e-07)
(4.5918e-08 4.60883e-08 0.000710298)
(0.000626813 -9.53877e-06 -2.94742e-07)
(-1.45432e-06 0.0007096 -2.37965e-07)
(5.10063e-08 6.56833e-08 0.000710375)
(0.000627291 -1.15302e-05 -3.58226e-07)
(-1.55591e-06 0.000709244 -3.19355e-07)
(5.89846e-08 8.79523e-08 0.000710597)
(0.000627816 -1.34457e-05 -4.19409e-07)
(-1.71932e-06 0.000709004 -4.15524e-07)
(6.90283e-08 1.14173e-07 0.000710959)
(0.000628404 -1.5315e-05 -4.75966e-07)
(-1.94505e-06 0.000708846 -5.31392e-07)
(8.00777e-08 1.45743e-07 0.00071145)
(0.000629071 -1.71649e-05 -5.24092e-07)
(-2.23645e-06 0.00070874 -6.71876e-07)
(8.99386e-08 1.84145e-07 0.000712059)
(0.000629833 -1.90081e-05 -5.5673e-07)
(-2.59648e-06 0.000708633 -8.41959e-07)
(9.41871e-08 2.31067e-07 0.000712759)
(0.000630704 -2.08511e-05 -5.64531e-07)
(-3.02769e-06 0.000708458 -1.04564e-06)
(8.46161e-08 2.88594e-07 0.000713505)
(0.000631684 -2.2672e-05 -5.39276e-07)
(-3.5252e-06 0.000708107 -1.2829e-06)
(4.78361e-08 3.60046e-07 0.000714217)
(0.000632747 -2.44103e-05 -4.73442e-07)
(-4.06446e-06 0.000707435 -1.54201e-06)
(-3.52723e-08 4.51637e-07 0.000714772)
(0.000633811 -2.59459e-05 -3.80623e-07)
(-4.57656e-06 0.000706279 -1.78023e-06)
(-1.85374e-07 5.75339e-07 0.000715013)
(0.000634682 -2.70814e-05 -3.22814e-07)
(-4.8563e-06 0.00070458 -1.88057e-06)
(-3.95613e-07 7.50959e-07 0.000714855)
(0.000635054 -2.76341e-05 -3.82424e-07)
(-4.28395e-06 0.000702752 -1.65178e-06)
(-5.41829e-07 9.87898e-07 0.000714534)
(-6.13134e-06 0.000699172 -5.69964e-07)
(-9.62092e-07 1.44252e-06 0.000712341)
(0.000625412 -2.55898e-06 -1.13055e-07)
(-1.92456e-06 0.000713932 -4.22495e-08)
(6.12643e-08 8.33909e-09 0.00071294)
(0.000625804 -4.92929e-06 -2.18681e-07)
(-1.84093e-06 0.000713148 -1.26143e-07)
(5.97303e-08 2.47793e-08 0.000712697)
(0.000626184 -7.08767e-06 -3.15848e-07)
(-1.79412e-06 0.000712265 -2.10815e-07)
(6.16828e-08 4.12452e-08 0.000712347)
(0.00062657 -9.09037e-06 -4.07945e-07)
(-1.8358e-06 0.000711606 -3.01361e-07)
(6.86051e-08 5.89422e-08 0.000712192)
(0.000626976 -1.09815e-05 -4.98083e-07)
(-1.95699e-06 0.00071114 -4.03995e-07)
(7.95593e-08 7.92361e-08 0.000712223)
(0.000627415 -1.27993e-05 -5.85822e-07)
(-2.15258e-06 0.000710828 -5.24695e-07)
(9.38802e-08 1.03595e-07 0.000712416)
(0.000627898 -1.45845e-05 -6.68264e-07)
(-2.42207e-06 0.00071064 -6.69242e-07)
(1.10699e-07 1.33787e-07 0.000712753)
(0.000628435 -1.63753e-05 -7.40498e-07)
(-2.76723e-06 0.000710542 -8.43445e-07)
(1.28205e-07 1.72219e-07 0.000713213)
(0.000629033 -1.82063e-05 -7.93521e-07)
(-3.18959e-06 0.000710479 -1.05286e-06)
(1.42986e-07 2.22807e-07 0.000713751)
(0.000629695 -2.01075e-05 -8.15128e-07)
(-3.68841e-06 0.000710379 -1.30162e-06)
(1.48501e-07 2.92369e-07 0.000714305)
(0.000630416 -2.21089e-05 -7.88924e-07)
(-4.25225e-06 0.000710136 -1.5887e-06)
(1.34768e-07 3.92599e-07 0.000714768)
(0.00063117 -2.4223e-05 -6.96066e-07)
(-4.83978e-06 0.000709594 -1.89788e-06)
(8.8102e-08 5.42665e-07 0.00071498)
(0.000631887 -2.64056e-05 -5.26339e-07)
(-5.34447e-06 0.000708541 -2.17435e-06)
(-6.54055e-09 7.68338e-07 0.000714723)
(0.000632439 -2.84765e-05 -3.12424e-07)
(-5.51231e-06 0.00070681 -2.27584e-06)
(-1.44256e-07 1.08884e-06 0.000713831)
(0.000632673 -3.00438e-05 -1.49624e-07)
(-4.69129e-06 0.000704628 -1.98167e-06)
(-2.4704e-07 1.47073e-06 0.000712562)
(-6.2191e-06 0.00070157 -7.28518e-07)
(-4.17598e-07 1.96409e-06 0.000709818)
(0.000625336 -2.39184e-06 -1.41651e-07)
(-2.25527e-06 0.000716324 -4.94534e-08)
(7.53283e-08 7.45598e-09 0.000715385)
(0.000625655 -4.60344e-06 -2.74601e-07)
(-2.15489e-06 0.000715361 -1.47628e-07)
(7.34353e-08 2.21874e-08 0.00071487)
(0.000625962 -6.61409e-06 -3.9731e-07)
(-2.09597e-06 0.000714278 -2.4655e-07)
(7.5897e-08 3.69854e-08 0.000714226)
(0.000626269 -8.47152e-06 -5.14768e-07)
(-2.13788e-06 0.000713467 -3.52027e-07)
(8.45417e-08 5.29283e-08 0.000713828)
(0.000626587 -1.02158e-05 -6.30487e-07)
(-2.2687e-06 0.00071289 -4.71065e-07)
(9.84164e-08 7.13371e-08 0.000713647)
(0.000626924 -1.18909e-05 -7.43457e-07)
(-2.48164e-06 0.00071251 -6.10212e-07)
(1.1707e-07 9.36677e-08 0.000713656)
(0.000627283 -1.35405e-05 -8.51598e-07)
(-2.77389e-06 0.000712299 -7.75759e-07)
(1.40039e-07 1.21794e-07 0.000713831)
(0.000627669 -1.52064e-05 -9.5009e-07)
(-3.14417e-06 0.000712219 -9.73899e-07)
(1.66542e-07 1.58618e-07 0.000714139)
(0.000628078 -1.69387e-05 -1.02903e-06)
(-3.59094e-06 0.000712226 -1.21031e-06)
(1.95246e-07 2.09118e-07 0.000714528)
(0.000628508 -1.87962e-05 -1.0734e-06)
(-4.11082e-06 0.000712258 -1.48907e-06)
(2.23225e-07 2.81955e-07 0.000714927)
(0.000628952 -2.08583e-05 -1.05999e-06)
(-4.69194e-06 0.00071223 -1.8087e-06)
(2.4608e-07 3.91452e-07 0.000715231)
(0.000629401 -2.32168e-05 -9.54849e-07)
(-5.28967e-06 0.000712003 -2.15077e-06)
(2.58504e-07 5.6021e-07 0.000715281)
(0.000629836 -2.59251e-05 -7.13234e-07)
(-5.78511e-06 0.000711341 -2.45343e-06)
(2.4906e-07 8.17428e-07 0.00071483)
(0.000630217 -2.88583e-05 -3.17821e-07)
(-5.90198e-06 0.000709915 -2.55881e-06)
(2.03304e-07 1.17928e-06 0.000713608)
(0.00063046 -3.13968e-05 1.35759e-07)
(-4.94428e-06 0.000707482 -2.22538e-06)
(1.16025e-07 1.59554e-06 0.000711618)
(-6.08015e-06 0.000705064 -8.86009e-07)
(8.23997e-08 2.05994e-06 0.000708802)
(0.000625248 -2.18416e-06 -1.67709e-07)
(-2.49778e-06 0.000718509 -5.469e-08)
(8.79533e-08 6.7174e-09 0.000717635)