/*--------------------------------*- C++ -*----------------------------------*\
| =========                 |                                                 |
| \\      /  F ield         | foam-extend: Open Source CFD                    |
|  \\    /   O peration     | Version:     3.1                                |
|   \\  /    A nd           | Web:         http://www.extend-project.de       |
|    \\/     M anipulation  |                                                 |
\*---------------------------------------------------------------------------*/
FoamFile
{
    version     2.0;
    format      ascii;
    class       volVectorField;
    location    "3.3";
    object      U;
}
// * * * * * * * * * * * * * * * * * * * * * * * * * * * * * * * * * * * * * //

dimensions      [0 1 -1 0 0 0 0];

internalField   nonuniform List<vector> 
14592
(
(0.0190019 -8.93755e-05 -0.00169577)
(0.0189345 5.08949e-05 -0.00306119)
(0.0186564 0.000166991 -0.00389968)
(0.0181777 0.000238793 -0.00467155)
(0.0175475 0.000290847 -0.00554162)
(0.0168173 0.000326778 -0.00658057)
(0.0160487 0.000341316 -0.00782985)
(0.0153132 0.000327114 -0.00933107)
(0.0146849 0.000274709 -0.011145)
(0.0142376 0.000169677 -0.0133691)
(0.0140518 -1.39088e-05 -0.0161611)
(0.0142276 -0.000318648 -0.0197692)
(0.014892 -0.000795235 -0.024532)
(0.0159743 -0.00136708 -0.0306454)
(0.0160655 -0.00131027 -0.036768)
(0.0115881 0.00057999 -0.0323307)
(0.0529364 -8.24827e-06 -0.0020182)
(0.0526758 0.000303498 -0.0047025)
(0.0521171 0.000652301 -0.00673225)
(0.0512535 0.00095088 -0.00862506)
(0.0501098 0.0011863 -0.01068)
(0.0487298 0.00134432 -0.0130558)
(0.047194 0.00141153 -0.0158354)
(0.0456044 0.00138186 -0.0190791)
(0.0440592 0.00125189 -0.022871)
(0.0426297 0.00100778 -0.027361)
(0.0413475 0.000601339 -0.0328158)
(0.0401866 -7.40868e-05 -0.0396819)
(0.0390388 -0.00119056 -0.0485871)
(0.0373912 -0.00279728 -0.0597775)
(0.0325126 -0.00380264 -0.0697958)
(0.0189136 -0.00127242 -0.0557802)
(0.0821935 0.000139281 -0.00162785)
(0.081923 0.000627576 -0.00435661)
(0.0813543 0.00119267 -0.00672173)
(0.080497 0.00173992 -0.00904301)
(0.0793422 0.00221668 -0.0115987)
(0.0778668 0.00257854 -0.0145838)
(0.0760876 0.0027929 -0.0181138)
(0.0740594 0.00284899 -0.0222553)
(0.0718489 0.00275303 -0.0270745)
(0.0694964 0.00251012 -0.0326937)
(0.0669769 0.00208556 -0.0393634)
(0.0641381 0.00135965 -0.0475659)
(0.0606358 6.97958e-05 -0.0581215)
(0.0556264 -0.00212143 -0.0717266)
(0.0453626 -0.00443214 -0.0845444)
(0.023018 -0.00283973 -0.0668878)
(0.106598 0.000253442 -0.00128322)
(0.106376 0.000891683 -0.00363143)
(0.105895 0.00161334 -0.00581078)
(0.105185 0.00235054 -0.00802847)
(0.104227 0.00304348 -0.0105242)
(0.102939 0.00363559 -0.0135167)
(0.10125 0.00408174 -0.0171704)
(0.0991218 0.0043644 -0.02159)
(0.0965505 0.00449545 -0.0268473)
(0.0935273 0.00450502 -0.0330339)
(0.0899911 0.00440066 -0.040344)
(0.0857215 0.00411855 -0.0492125)
(0.0802183 0.00342048 -0.0605474)
(0.0725017 0.00175211 -0.0756667)
(0.0577438 -0.00113143 -0.0914189)
(0.0268543 -0.00232884 -0.0736088)
(0.126118 0.000340593 -0.00106395)
(0.125943 0.00110039 -0.00304664)
(0.12555 0.00192798 -0.00492069)
(0.124988 0.0027889 -0.00684164)
(0.124251 0.00364195 -0.00901775)
(0.123234 0.00444423 -0.0116816)
(0.121797 0.00515906 -0.0150515)
(0.119814 0.00577378 -0.0192984)
(0.117192 0.00630736 -0.0245429)
(0.113852 0.0068138 -0.0308878)
(0.109693 0.00734871 -0.0384929)
(0.10446 0.00794434 -0.0477283)
(0.0975505 0.0084925 -0.0594599)
(0.0879919 0.00854196 -0.0755842)
(0.0700319 0.00663349 -0.0941887)
(0.0309447 0.00168206 -0.0777468)
(0.140754 0.000408666 -0.000921674)
(0.140615 0.00126876 -0.00263658)
(0.140299 0.00217478 -0.00425285)
(0.139861 0.0031191 -0.00589163)
(0.139317 0.00408705 -0.00772746)
(0.138565 0.00506371 -0.00998529)
(0.137438 0.0060389 -0.0129145)
(0.135752 0.00702238 -0.0167459)
(0.133344 0.00805204 -0.0216634)
(0.130067 0.00921321 -0.0278119)
(0.125783 0.0106126 -0.0353494)
(0.120208 0.0124132 -0.044607)
(0.112678 0.0146777 -0.0563218)
(0.102295 0.0174839 -0.0727755)
(0.0830315 0.0186543 -0.0937859)
(0.0362832 0.0104095 -0.0794071)
(0.150508 0.000458874 -0.00082144)
(0.150399 0.0013948 -0.00234256)
(0.150156 0.00235663 -0.00376545)
(0.149837 0.00335629 -0.00518694)
(0.149471 0.00440427 -0.00675032)
(0.148973 0.00551606 -0.00865805)
(0.148177 0.0067148 -0.0111615)
(0.146879 0.0080428 -0.0145195)
(0.144888 0.00956647 -0.0189576)
(0.14202 0.0114111 -0.0246545)
(0.138149 0.0137346 -0.0317673)
(0.132976 0.0168727 -0.0405939)
(0.125939 0.0210755 -0.0516947)
(0.115904 0.0274686 -0.0673577)
(0.0986453 0.0346261 -0.089901)
(0.0451055 0.0268422 -0.0776176)
(0.155383 0.000490935 -0.000747727)
(0.155302 0.00147131 -0.00212357)
(0.155135 0.00245967 -0.00339897)
(0.154943 0.00348298 -0.00465557)
(0.154763 0.00457361 -0.00601501)
(0.154525 0.00577444 -0.00765707)
(0.15408 0.00713998 -0.00981808)
(0.153229 0.00874344 -0.0127533)
(0.151798 0.0106779 -0.0166915)
(0.149613 0.0130997 -0.0218079)
(0.14665 0.0162001 -0.0282294)
(0.14262 0.0204524 -0.0361637)
(0.137661 0.0263084 -0.0459837)
(0.129288 0.0357427 -0.0591325)
(0.12158 0.0535955 -0.0815042)
(0.0637267 0.0526639 -0.0693969)
(0.0203031 -0.000109215 -0.00164476)
(0.0201663 2.46162e-05 -0.00298657)
(0.0197637 0.000142894 -0.00382019)
(0.0191182 0.000212982 -0.00458879)
(0.0182808 0.00026152 -0.00545408)
(0.0172937 0.000293304 -0.00648787)
(0.0162076 0.00030226 -0.00773228)
(0.0150813 0.000279525 -0.00922613)
(0.0139731 0.000213851 -0.0110211)
(0.012931 8.90765e-05 -0.013195)
(0.01199 -0.000121986 -0.0158645)
(0.0111703 -0.000465878 -0.0191861)
(0.0104642 -0.000995643 -0.0232801)
(0.00958992 -0.00165861 -0.0278479)
(0.00746978 -0.00208869 -0.0307681)
(0.00372442 -0.00163445 -0.0232943)
(0.0566219 -3.21607e-05 -0.00191269)
(0.0562453 0.000251906 -0.0045086)
(0.0554695 0.000588594 -0.00649049)
(0.0542958 0.000876682 -0.00833626)
(0.0527534 0.00110056 -0.0103331)
(0.0508689 0.00124404 -0.0126426)
(0.0486996 0.00128948 -0.0153537)
(0.0463221 0.00122604 -0.0185265)
(0.0438038 0.00104594 -0.0222315)
(0.0411714 0.000730498 -0.0265828)
(0.0383822 0.000223869 -0.0317706)
(0.0352902 -0.000593556 -0.0380718)
(0.0316063 -0.0019079 -0.0456749)
(0.0264895 -0.00375944 -0.053777)
(0.0179874 -0.00533969 -0.0575628)
(0.00718402 -0.00431039 -0.0403713)
(0.0879414 0.000122712 -0.00151716)
(0.087565 0.000577142 -0.00411787)
(0.0867753 0.00111834 -0.00639901)
(0.0855831 0.00164743 -0.00863518)
(0.0839872 0.00210778 -0.011082)
(0.0819466 0.00244982 -0.0139334)
(0.0794457 0.0026326 -0.0173158)
(0.0764984 0.00263663 -0.0213057)
(0.0731233 0.00246144 -0.0259648)
(0.0692982 0.00210652 -0.0313829)
(0.0649066 0.00152695 -0.0377283)
(0.0596479 0.000581251 -0.0452908)
(0.0529519 -0.00103052 -0.0543934)
(0.0434646 -0.00359209 -0.064304)
(0.028249 -0.00634257 -0.0691351)
(0.00997663 -0.00593815 -0.0484046)
(0.114061 0.000246974 -0.00118757)
(0.113753 0.000862132 -0.00340552)
(0.113075 0.00156346 -0.00549266)
(0.112049 0.00228594 -0.0076164)
(0.110671 0.00296803 -0.00998478)
(0.108845 0.00354815 -0.012805)
(0.106463 0.00397157 -0.0162502)
(0.103435 0.00421014 -0.020444)
(0.0996843 0.00426844 -0.0254699)
(0.0951125 0.00417383 -0.0314038)
(0.0895377 0.00393125 -0.038369)
(0.0825536 0.00346297 -0.0466159)
(0.0734124 0.00249249 -0.0565645)
(0.060394 0.000499301 -0.0678475)
(0.0391093 -0.0025422 -0.0743706)
(0.0130251 -0.00445756 -0.0530991)
(0.134951 0.0003427 -0.000983559)
(0.134704 0.00109722 -0.00285049)
(0.13414 0.00191901 -0.00464349)
(0.133291 0.00277914 -0.00648633)
(0.132167 0.00363706 -0.00855054)
(0.130657 0.00444723 -0.0110434)
(0.128596 0.00516584 -0.0141808)
(0.125797 0.00577182 -0.0181531)
(0.122076 0.00627931 -0.0231061)
(0.117235 0.00674487 -0.0291488)
(0.111017 0.00723436 -0.0363928)
(0.102937 0.00779057 -0.045036)
(0.0921156 0.00831049 -0.0555136)
(0.0767211 0.00829973 -0.0679396)
(0.0506221 0.00655605 -0.0763821)
(0.0166773 0.00130115 -0.0557243)
(0.150613 0.000417343 -0.000852676)
(0.150412 0.001289 -0.00246704)
(0.149947 0.00220658 -0.00401693)
(0.149251 0.00316838 -0.00560018)
(0.14835 0.00416199 -0.00735487)
(0.147149 0.00517254 -0.00946996)
(0.145465 0.00618734 -0.0121776)
(0.14306 0.00721366 -0.0157191)
(0.139678 0.00829105 -0.0203086)
(0.135029 0.00951663 -0.026115)
(0.12879 0.0110245 -0.0332771)
(0.120413 0.0130169 -0.0419733)
(0.108908 0.0156424 -0.0525816)
(0.0926189 0.0189254 -0.0656895)
(0.0637053 0.0207417 -0.0759535)
(0.0219015 0.0128136 -0.0563255)
(0.161052 0.000472511 -0.000760472)
(0.160888 0.00143341 -0.00219302)
(0.160514 0.00242239 -0.00356115)
(0.159962 0.00345709 -0.00494531)
(0.159268 0.0045512 -0.00645604)
(0.15836 0.00572267 -0.00825515)
(0.157069 0.0069972 -0.010565)
(0.155148 0.0084223 -0.0136438)
(0.15232 0.0100752 -0.0177445)
(0.148261 0.0121055 -0.0230803)
(0.142643 0.0147181 -0.0298149)
(0.134911 0.0183258 -0.0381273)
(0.124082 0.0233573 -0.0482808)
(0.10875 0.0310714 -0.0612366)
(0.08081 0.0397103 -0.073014)
(0.0310886 0.0337422 -0.0542665)
(0.166269 0.000508055 -0.000692129)
(0.166139 0.0015234 -0.00198842)
(0.165855 0.00255138 -0.00321771)
(0.165453 0.00362416 -0.0044491)
(0.164975 0.0047777 -0.005775)
(0.164368 0.00605931 -0.00733411)
(0.163487 0.0075306 -0.00932845)
(0.162105 0.00927756 -0.0120051)
(0.159977 0.0114126 -0.0156165)
(0.156803 0.0141292 -0.020377)
(0.152377 0.0176771 -0.0264368)
(0.146218 0.0226557 -0.0339373)
(0.137969 0.0297192 -0.0429879)
(0.125628 0.0415496 -0.0544553)
(0.10836 0.0624698 -0.0674267)
(0.0497371 0.064098 -0.0479545)
(0.0214151 -0.00012846 -0.00152672)
(0.0212114 -2.61515e-06 -0.00278382)
(0.0206903 0.000117666 -0.00357096)
(0.0198877 0.000185597 -0.0042965)
(0.0188571 0.000229687 -0.00511146)
(0.0176336 0.000255905 -0.00608419)
(0.0162586 0.000257417 -0.00725398)
(0.0147816 0.000224026 -0.00865308)
(0.0132513 0.000143286 -0.0103187)
(0.0117042 -1.26026e-06 -0.0123005)
(0.0101598 -0.000234777 -0.0146621)
(0.00862323 -0.000601845 -0.0174621)
(0.0070855 -0.00114107 -0.0206515)
(0.00540497 -0.00182499 -0.0237184)
(0.00323801 -0.00244935 -0.0245932)
(0.000872814 -0.0022262 -0.0167787)
(0.0597783 -5.40754e-05 -0.00174137)
(0.0592942 0.000202851 -0.0041422)
(0.0583164 0.000527213 -0.00598791)
(0.0568546 0.000803815 -0.00770373)
(0.054945 0.00101407 -0.00955239)
(0.0526016 0.00113987 -0.0116876)
(0.0498627 0.00115945 -0.0141963)
(0.0467848 0.00105744 -0.0171321)
(0.0434147 0.000822872 -0.0205444)
(0.0397567 0.000435984 -0.024501)
(0.0357418 -0.000157144 -0.0291031)
(0.0312133 -0.00106514 -0.034449)
(0.0259086 -0.00245708 -0.0404181)
(0.0192762 -0.0043576 -0.0458262)
(0.0107992 -0.00613075 -0.0461275)
(0.00256973 -0.00529588 -0.0290075)
(0.0928667 0.000108501 -0.00136251)
(0.0923945 0.000532643 -0.0037387)
(0.0914032 0.00105131 -0.00584254)
(0.0899031 0.00156208 -0.00790293)
(0.0879027 0.00200435 -0.0101441)
(0.0853492 0.00232361 -0.0127462)
(0.0822015 0.00247067 -0.0158341)
(0.078441 0.00241736 -0.0194841)
(0.0740493 0.00215744 -0.0237456)
(0.0689654 0.00168907 -0.0286664)
(0.063035 0.000969932 -0.0343191)
(0.0559241 -0.000131281 -0.0408064)
(0.0470647 -0.00189141 -0.0480745)
(0.0353754 -0.00451127 -0.0548173)
(0.0198501 -0.00736676 -0.0553241)
(0.00455353 -0.00708501 -0.034285)
(0.120457 0.000242298 -0.00106089)
(0.120071 0.000839048 -0.00307207)
(0.119217 0.00152321 -0.00498547)
(0.117905 0.00223241 -0.00693408)
(0.11614 0.00290357 -0.0090913)
(0.113822 0.00347055 -0.011641)
(0.110817 0.00386912 -0.0147487)
(0.106992 0.00406008 -0.0185404)
(0.102214 0.0040406 -0.0230986)
(0.0963185 0.00383809 -0.028473)
(0.0890571 0.00346534 -0.0347052)
(0.0799626 0.00285674 -0.0418611)
(0.0682717 0.00176684 -0.0499445)
(0.0523583 -0.000223015 -0.0578612)
(0.0301197 -0.00322848 -0.0594049)
(0.00706803 -0.00519607 -0.0370984)
(0.142521 0.00034609 -0.000878323)
(0.142209 0.00109955 -0.00256658)
(0.141494 0.00191915 -0.00420779)
(0.140387 0.00278067 -0.00590084)
(0.138906 0.00364452 -0.00778309)
(0.136943 0.00446301 -0.0100291)
(0.134311 0.00518521 -0.0128347)
(0.130783 0.0057806 -0.0163867)
(0.126104 0.00625677 -0.0208348)
(0.119985 0.00667273 -0.0262769)
(0.112066 0.00710861 -0.0327626)
(0.101763 0.0076365 -0.0403187)
(0.0881633 0.0081935 -0.048982)
(0.0693186 0.00835862 -0.0579784)
(0.041498 0.00683795 -0.0609647)
(0.0104305 0.00156148 -0.0385432)
(0.159063 0.000427133 -0.000762031)
(0.158806 0.00131379 -0.0022215)
(0.15821 0.00224603 -0.00364132)
(0.157282 0.00322731 -0.00510244)
(0.156054 0.0042477 -0.00671318)
(0.154435 0.00529291 -0.00862512)
(0.152234 0.0063475 -0.0110384)
(0.149178 0.00741455 -0.0141787)
(0.14494 0.008532 -0.018261)
(0.139127 0.00980489 -0.0234525)
(0.131284 0.0113898 -0.0298509)
(0.120722 0.0135328 -0.0374834)
(0.106414 0.0164553 -0.0463762)
(0.0864164 0.0202409 -0.0561453)
(0.0549857 0.0225989 -0.0606963)
(0.0156924 0.0147584 -0.0386763)
(0.170088 0.000487342 -0.000680045)
(0.169875 0.00147617 -0.00197565)
(0.169386 0.00249477 -0.00323049)
(0.168627 0.00356602 -0.00451375)
(0.167636 0.004707 -0.00591196)
(0.166345 0.0059384 -0.00755008)
(0.164586 0.00728778 -0.00961155)
(0.162089 0.00880556 -0.0123285)
(0.15852 0.0105753 -0.015948)
(0.153449 0.0127639 -0.0206852)
(0.14641 0.0156099 -0.026683)
(0.136686 0.0195861 -0.0339945)
(0.123239 0.0252367 -0.0426019)
(0.104404 0.0339243 -0.0525369)
(0.0732407 0.0435809 -0.0586806)
(0.0253798 0.038139 -0.0372412)
(0.175598 0.000526627 -0.000618909)
(0.175423 0.00157969 -0.00179169)
(0.175038 0.00264926 -0.00292058)
(0.174451 0.00377268 -0.00406637)
(0.173705 0.00498968 -0.00530156)
(0.172753 0.0063517 -0.00673051)
(0.171455 0.00792612 -0.00851483)
(0.169575 0.00980883 -0.010871)
(0.166824 0.0121267 -0.0140415)
(0.162811 0.015101 -0.0182458)
(0.157205 0.0190233 -0.02363)
(0.149383 0.0245752 -0.0302483)
(0.138898 0.0325361 -0.0380092)
(0.123776 0.0459111 -0.0471114)
(0.103242 0.0686298 -0.0550975)
(0.0444268 0.0702208 -0.0333871)
(0.0223394 -0.000146103 -0.00134605)
(0.0220742 -2.90567e-05 -0.00246222)
(0.0214455 9.32919e-05 -0.00316381)
(0.0205014 0.000159119 -0.00380999)
(0.0192985 0.000198666 -0.00453383)
(0.0178671 0.000219078 -0.00539608)
(0.0162418 0.00021285 -0.00643058)
(0.0144673 0.000168674 -0.00766158)
(0.012589 7.35864e-05 -0.00911165)
(0.0106444 -8.78447e-05 -0.0108047)
(0.00865998 -0.000341695 -0.0127614)
(0.00665873 -0.000716688 -0.0149717)
(0.00468088 -0.00124458 -0.0173057)
(0.00276283 -0.00190343 -0.0192334)
(0.00101502 -0.00254798 -0.019083)
(-0.000326376 -0.00230674 -0.0123106)
(0.0624068 -7.32891e-05 -0.00151103)
(0.0618268 0.000158533 -0.00361925)
(0.0606692 0.000471561 -0.00524904)
(0.0589503 0.000737317 -0.00676077)
(0.0567156 0.000934259 -0.0083825)
(0.0539709 0.00104247 -0.0102511)
(0.0507411 0.00103642 -0.0124447)
(0.0470702 0.000896844 -0.0150068)
(0.0429952 0.000610817 -0.0179661)
(0.0385158 0.000161398 -0.0213496)
(0.0335773 -0.000495692 -0.0251877)
(0.0280613 -0.00145346 -0.0294543)
(0.0218179 -0.00285023 -0.0338851)
(0.014653 -0.0046812 -0.0372883)
(0.00689574 -0.00640412 -0.0359817)
(0.00054424 -0.00551428 -0.0213454)
(0.09697 9.66483e-05 -0.00116953)
(0.0964143 0.000494867 -0.00323593)
(0.0952461 0.000993593 -0.00507905)
(0.0934742 0.00148779 -0.00688269)
(0.0911171 0.00191316 -0.00883416)
(0.0881153 0.0022107 -0.0110902)
(0.0844098 0.00232362 -0.0137637)
(0.0799597 0.0022158 -0.0169232)
(0.074724 0.00187648 -0.0206033)
(0.0686261 0.00130634 -0.0248167)
(0.0615077 0.000477965 -0.0295602)
(0.0530613 -0.000719171 -0.0348118)
(0.0428539 -0.00250078 -0.0403162)
(0.0302088 -0.0050185 -0.0446757)
(0.015284 -0.00774015 -0.0431631)
(0.00217085 -0.00738535 -0.0250511)
(0.125786 0.000238944 -0.000907086)
(0.125333 0.000821368 -0.00264539)
(0.124326 0.00149165 -0.0043132)
(0.122764 0.00218983 -0.00601373)
(0.12066 0.00285162 -0.00788567)
(0.11791 0.00340703 -0.0100826)
(0.114365 0.00378315 -0.0127501)
(0.109861 0.00393024 -0.0160036)
(0.104226 0.00383874 -0.0199155)
(0.0972587 0.00353833 -0.0245112)
(0.0886814 0.00305547 -0.029771)
(0.0780465 0.0023588 -0.0356334)
(0.0646838 0.00126435 -0.0418682)
(0.047323 -0.000578961 -0.0471925)
(0.0253242 -0.00337376 -0.0462935)
(0.00449989 -0.00528372 -0.0268798)
(0.148828 0.000349929 -0.000750936)
(0.148461 0.00110483 -0.00220695)
(0.147615 0.00192461 -0.00363503)
(0.146285 0.00278897 -0.0051135)
(0.144492 0.00365942 -0.00674937)
(0.142129 0.00448685 -0.00868224)
(0.138998 0.00521401 -0.0110772)
(0.134843 0.00580091 -0.0141001)
(0.129363 0.00624798 -0.0178881)
(0.122208 0.00661657 -0.022521)
(0.112963 0.00700349 -0.028)
(0.101024 0.00751963 -0.0342392)
(0.0855541 0.00815056 -0.0410419)
(0.0648519 0.00855644 -0.0473244)
(0.0367891 0.00734094 -0.0474868)
(0.00781419 0.00208738 -0.0277676)
(0.166103 0.000436834 -0.000651976)
(0.165798 0.00133937 -0.00191047)
(0.165089 0.0022871 -0.003146)
(0.163963 0.0032877 -0.00442527)
(0.162451 0.00433375 -0.00583237)
(0.160463 0.00541205 -0.00748422)
(0.157804 0.00650483 -0.00954236)
(0.154181 0.00761031 -0.0122)
(0.149223 0.00876261 -0.0156506)
(0.142465 0.0100712 -0.0200431)
(0.133377 0.0117106 -0.0254375)
(0.121211 0.0139673 -0.0317653)
(0.104997 0.0171241 -0.0388431)
(0.0829078 0.0213225 -0.0459001)
(0.0507233 0.0241474 -0.0473581)
(0.0132408 0.0163342 -0.0278037)
(0.177617 0.00050179 -0.00058212)
(0.17736 0.00151824 -0.00169976)
(0.176772 0.00256583 -0.00279232)
(0.175837 0.00367187 -0.00391871)
(0.17459 0.00485673 -0.00514703)
(0.172962 0.006144 -0.00657131)
(0.170786 0.00756287 -0.00833438)
(0.167782 0.00916511 -0.0106284)
(0.163582 0.0110368 -0.0136706)
(0.157688 0.0133555 -0.0176554)
(0.149553 0.016381 -0.0226969)
(0.138372 0.0206291 -0.028771)
(0.123149 0.0267169 -0.0356942)
(0.102257 0.0360644 -0.0431)
(0.0698422 0.0464036 -0.0460573)
(0.0233379 0.0411746 -0.0269262)
(0.183371 0.000544703 -0.000529786)
(0.183157 0.00163442 -0.0015418)
(0.182684 0.00274378 -0.00252538)
(0.181941 0.00391483 -0.00353314)
(0.180966 0.00519093 -0.00462292)
(0.17971 0.00662735 -0.00587208)
(0.17804 0.00829617 -0.00740328)
(0.175716 0.0103006 -0.00939155)
(0.172429 0.0127771 -0.0120472)
(0.16773 0.0159655 -0.0155692)
(0.161219 0.0201822 -0.0200861)
(0.15218 0.0261587 -0.0255984)
(0.140184 0.0347394 -0.0319051)
(0.123331 0.0490749 -0.0389078)
(0.101376 0.0728674 -0.0438209)
(0.0425736 0.0741012 -0.0244778)
(0.0230764 -0.000160755 -0.00110993)
(0.0227592 -4.98499e-05 -0.00203561)
(0.0220388 7.21336e-05 -0.00261769)
(0.0209739 0.000135652 -0.00315354)
(0.0196257 0.000171109 -0.00375223)
(0.0180214 0.000186292 -0.00446364)
(0.0161914 0.000173162 -0.00531466)
(0.0141789 0.000119626 -0.0063219)
(0.0120314 1.25305e-05 -0.00749661)
(0.00979366 -0.00016199 -0.00884442)
(0.00750947 -0.000429977 -0.0103587)
(0.00523153 -0.000806199 -0.0119983)
(0.00305364 -0.00131493 -0.0136142)
(0.00113526 -0.00193312 -0.0147569)
(-0.000188788 -0.00253487 -0.0142064)
(-0.000861841 -0.00226642 -0.00888035)
(0.0645088 -8.91006e-05 -0.00123022)
(0.0638479 0.000122115 -0.00296171)
(0.0625377 0.00042457 -0.00430668)
(0.0606022 0.000680713 -0.00555125)
(0.0580949 0.000865995 -0.00688095)
(0.0550173 0.000958773 -0.0084088)
(0.0513862 0.000930275 -0.0101991)
(0.0472395 0.000758088 -0.0122845)
(0.0426136 0.000428368 -0.0146779)
(0.0375145 -7.21713e-05 -0.0173804)
(0.0319179 -0.00077374 -0.0203727)
(0.0257635 -0.00175278 -0.0235789)
(0.0190192 -0.00311694 -0.026699)
(0.0117526 -0.00483852 -0.0287308)
(0.00470186 -0.00643322 -0.0269427)
(-0.000409714 -0.00548391 -0.0154699)
(0.100252 8.70928e-05 -0.000944341)
(0.0996268 0.000463699 -0.00262907)
(0.0983114 0.000946238 -0.0041404)
(0.0963122 0.00142666 -0.00561834)
(0.0936569 0.00183774 -0.00721036)
(0.0902827 0.00211681 -0.0090431)
(0.08612 0.0022006 -0.01121)
(0.0811144 0.00204616 -0.0137672)
(0.0752134 0.00163952 -0.0167356)
(0.0683408 0.00098571 -0.020105)
(0.0603529 7.6268e-05 -0.0238359)
(0.0509961 -0.0011704 -0.0278411)
(0.0399885 -0.00291332 -0.0317954)
(0.026978 -0.00527331 -0.0344954)
(0.0127171 -0.00779355 -0.0323698)
(0.0010571 -0.00735954 -0.0181104)
(0.130048 0.000236569 -0.000730373)
(0.129541 0.000808065 -0.00214101)
(0.128407 0.00146773 -0.00350289)
(0.126638 0.00215731 -0.00489309)
(0.124251 0.00281175 -0.00641709)
(0.121143 0.00335806 -0.00819485)
(0.117152 0.00371613 -0.0103441)
(0.112098 0.00382695 -0.0129608)
(0.105785 0.00367525 -0.0161028)
(0.0979923 0.00329467 -0.0197778)
(0.0884407 0.00272686 -0.0239352)
(0.0767311 0.00198121 -0.0284472)
(0.0623147 0.000933579 -0.0330234)
(0.0442505 -0.000722552 -0.0364789)
(0.0226919 -0.00327072 -0.0347225)
(0.00334258 -0.00512666 -0.0193511)
(0.153873 0.000353627 -0.000604665)
(0.153459 0.00111113 -0.00178429)
(0.152507 0.0019324 -0.00294852)
(0.150994 0.0028002 -0.00415742)
(0.148943 0.00367707 -0.0054911)
(0.146247 0.00451323 -0.00705505)
(0.142702 0.00524632 -0.0089783)
(0.138035 0.00582794 -0.0113956)
(0.131917 0.00625165 -0.0144203)
(0.123963 0.00658075 -0.0181126)
(0.113734 0.00692835 -0.0224477)
(0.100644 0.00744176 -0.0272901)
(0.0839592 0.00815567 -0.0323629)
(0.0622598 0.00879135 -0.0366116)
(0.0343107 0.00786618 -0.0356339)
(0.00669143 0.00262526 -0.0199486)
(0.171735 0.000445563 -0.000525268)
(0.171388 0.00136291 -0.00154482)
(0.170588 0.00232515 -0.00255186)
(0.1693 0.00334321 -0.00359932)
(0.167554 0.00441183 -0.00475063)
(0.165261 0.00551924 -0.00609195)
(0.16222 0.00664603 -0.00774538)
(0.15813 0.00778581 -0.00986312)
(0.152594 0.00896799 -0.0126031)
(0.145108 0.0103037 -0.0160868)
(0.135098 0.0119806 -0.0203478)
(0.121803 0.014318 -0.0252784)
(0.104334 0.0176475 -0.0306206)
(0.0810613 0.0221567 -0.0355594)
(0.0486395 0.0253495 -0.0356119)
(0.0122929 0.0175326 -0.0199922)
(0.183639 0.000514667 -0.000469151)
(0.183345 0.00155597 -0.00137492)
(0.182677 0.0026295 -0.00226569)
(0.181599 0.00376611 -0.00318918)
(0.180142 0.004989 -0.00419784)
(0.178236 0.00632448 -0.00536008)
(0.175711 0.00780329 -0.00678084)
(0.172286 0.00947771 -0.00860732)
(0.167575 0.011434 -0.0110136)
(0.161045 0.0138548 -0.0141596)
(0.1521 0.0170123 -0.0181315)
(0.139897 0.0214505 -0.0228727)
(0.123499 0.027831 -0.0281468)
(0.101402 0.0376114 -0.0334829)
(0.0683986 0.0484164 -0.0348095)
(0.0227049 0.0433052 -0.0194962)
(0.18959 0.000560808 -0.000426967)
(0.189341 0.00168317 -0.00124736)
(0.188797 0.00282765 -0.00204963)
(0.187927 0.00404017 -0.0028768)
(0.186765 0.00536731 -0.00377411)
(0.18526 0.00686764 -0.00479754)
(0.183279 0.00861697 -0.00603551)
(0.180584 0.0107238 -0.00761949)
(0.176858 0.0133302 -0.0097157)
(0.171626 0.0166872 -0.012488)
(0.164445 0.0211237 -0.0160406)
(0.154553 0.0273995 -0.0203519)
(0.141557 0.0363874 -0.0251963)
(0.123638 0.0513105 -0.0303735)
(0.100974 0.0757909 -0.0334257)
(0.0420594 0.076749 -0.0178966)
(0.0236271 -0.000171906 -0.000827372)
(0.0232696 -6.44795e-05 -0.00152044)
(0.0224772 5.51486e-05 -0.00195637)
(0.0213171 0.000116211 -0.00235724)
(0.0198557 0.00014816 -0.00280409)
(0.0181181 0.000158932 -0.00333377)
(0.016133 0.000140098 -0.00396556)
(0.0139435 7.90661e-05 -0.0047098)
(0.0116018 -3.77114e-05 -0.00557064)
(0.00916318 -0.000225164 -0.00654426)
(0.00668845 -0.000499974 -0.00761323)
(0.00425852 -0.000875966 -0.00873202)
(0.00200905 -0.00136545 -0.00977362)
(0.000165509 -0.00194727 -0.0104102)
(-0.000843203 -0.0024974 -0.00981761)
(-0.00111094 -0.00220522 -0.00602864)
(0.0660847 -0.000101156 -0.000908354)
(0.0653602 9.46197e-05 -0.0021957)
(0.0639303 0.00038788 -0.00319879)
(0.061826 0.000636032 -0.0041252)
(0.0591071 0.000811871 -0.00511175)
(0.0557732 0.000892211 -0.00624236)
(0.0518372 0.000845777 -0.00756456)
(0.0473349 0.000647885 -0.00910036)
(0.0423057 0.000284815 -0.010853)
(0.0367723 -0.00025217 -0.012813)
(0.0307357 -0.000986115 -0.0149404)
(0.0241921 -0.00197614 -0.017155)
(0.0172013 -0.00329557 -0.019199)
(0.0099896 -0.00491343 -0.0203395)
(0.00347533 -0.0063818 -0.0187192)
(-0.000866531 -0.00538941 -0.0105452)
(0.102713 7.99102e-05 -0.00069299)
(0.102034 0.000439687 -0.0019388)
(0.100604 0.000910125 -0.00306074)
(0.0984288 0.00138002 -0.00415731)
(0.0955424 0.00178003 -0.00533465)
(0.0918815 0.00204478 -0.00668521)
(0.0873702 0.00210598 -0.00827815)
(0.0819477 0.00191528 -0.0101545)
(0.0755592 0.00145688 -0.0123256)
(0.0681309 0.000742553 -0.0147712)
(0.0595377 -0.000224792 -0.0174452)
(0.0496009 -0.00148848 -0.0202491)
(0.0381413 -0.00318157 -0.0228868)
(0.02502 -0.00539215 -0.0244677)
(0.0112846 -0.00772761 -0.0225323)
(0.000533214 -0.00723819 -0.01234)
(0.133244 0.000235015 -0.000534826)
(0.132694 0.000798665 -0.00157436)
(0.131464 0.00145079 -0.00258218)
(0.129535 0.00213421 -0.00361185)
(0.12693 0.00278334 -0.00473752)
(0.123545 0.00332321 -0.00604448)
(0.119213 0.00366814 -0.00761837)
(0.113744 0.00375176 -0.00953015)
(0.10693 0.00355393 -0.0118216)
(0.0985415 0.00311124 -0.0144907)
(0.0883146 0.00248447 -0.0174826)
(0.0758926 0.00172057 -0.020663)
(0.0608286 0.000726618 -0.0237773)
(0.0424343 -0.000761732 -0.0259034)
(0.0212624 -0.00309769 -0.0241891)
(0.00282819 -0.00492508 -0.0131631)
(0.157656 0.000356803 -0.000442738)
(0.157206 0.00111715 -0.00131099)
(0.156173 0.00194044 -0.00217138)
(0.154519 0.0028116 -0.00306663)
(0.15227 0.00369408 -0.00405273)
(0.149318 0.00453786 -0.00520288)
(0.145455 0.0052769 -0.00660855)
(0.140399 0.00585611 -0.00836786)
(0.133807 0.00626311 -0.0105646)
(0.125275 0.00656215 -0.01324)
(0.114358 0.00688091 -0.0163627)
(0.100498 0.00739105 -0.019801)
(0.0830498 0.00817996 -0.0232995)
(0.0608146 0.00900121 -0.0260185)
(0.033027 0.00830823 -0.0248459)
(0.00622182 0.00306295 -0.0135697)
(0.175958 0.000452687 -0.000384721)
(0.175579 0.00138241 -0.00113513)
(0.174708 0.00235683 -0.00187916)
(0.173297 0.00338922 -0.00265532)
(0.171373 0.00447602 -0.00350852)
(0.168845 0.00560679 -0.00449762)
(0.165511 0.00676119 -0.00570704)
(0.161063 0.00792914 -0.00724508)
(0.155096 0.00913547 -0.00922712)
(0.147081 0.0104911 -0.0117423)
(0.136426 0.0121927 -0.0148077)
(0.122374 0.0145821 -0.0183201)
(0.104109 0.0180313 -0.0220408)
(0.0801634 0.0227587 -0.0252985)
(0.0476662 0.0262215 -0.0248776)
(0.01197 0.0183904 -0.0136228)
(0.188156 0.000525087 -0.000343686)
(0.187832 0.00158664 -0.00101054)
(0.187102 0.00268126 -0.00166877)
(0.185916 0.00384242 -0.0023535)
(0.184299 0.00509551 -0.00310259)
(0.18218 0.00646906 -0.00396258)
(0.179387 0.00799523 -0.00500455)
(0.175639 0.00972643 -0.006331)
(0.170543 0.0117479 -0.00806719)
(0.163549 0.0142441 -0.0103308)
(0.154038 0.0174932 -0.0131824)
(0.141153 0.0220566 -0.0165643)
(0.124003 0.0286237 -0.0202637)
(0.101199 0.038679 -0.0238671)
(0.0678851 0.0498015 -0.0244038)
(0.0226138 0.0447658 -0.0133545)
(0.194253 0.000573822 -0.000312781)
(0.193978 0.00172261 -0.000916906)
(0.193379 0.00289533 -0.00150992)
(0.192413 0.0041409 -0.00212362)
(0.191109 0.00550842 -0.0027911)
(0.189414 0.00705905 -0.00355046)
(0.187194 0.00887139 -0.00446077)
(0.184212 0.0110575 -0.00561223)
(0.180154 0.0137627 -0.00712303)
(0.17453 0.0172438 -0.00911377)
(0.166882 0.0218347 -0.011661)
(0.15642 0.0283102 -0.0147409)
(0.142783 0.0375534 -0.0181593)
(0.124217 0.0528266 -0.0217222)
(0.101176 0.0777573 -0.0235615)
(0.0420556 0.0785414 -0.0123254)
(0.0239927 -0.000179409 -0.000507329)
(0.0236075 -7.51346e-05 -0.000933763)
(0.0227658 4.2442e-05 -0.00120169)
(0.0215404 0.000101312 -0.00144748)
(0.0200017 0.000130208 -0.00172107)
(0.0181738 0.000137223 -0.00204483)
(0.0160848 0.000113613 -0.00243018)
(0.0137787 4.65074e-05 -0.00288257)
(0.0113122 -7.67785e-05 -0.00340269)
(0.00874951 -0.000274402 -0.00398498)
(0.00616454 -0.000555428 -0.0046146)
(0.00365831 -0.000932068 -0.00525813)
(0.00139123 -0.00140783 -0.00583382)
(-0.000370116 -0.00195977 -0.00614784)
(-0.00117707 -0.00248178 -0.00572209)
(-0.00122513 -0.00216626 -0.00347959)
(0.0671333 -0.000109103 -0.000553006)
(0.066365 7.57576e-05 -0.00134233)
(0.0648539 0.000362466 -0.00195703)
(0.0626343 0.00060479 -0.00252363)
(0.0597709 0.000773652 -0.00312594)
(0.0562633 0.000844894 -0.00381497)
(0.0521226 0.000785555 -0.00461955)
(0.0473853 0.000569335 -0.00555222)
(0.0420934 0.000182568 -0.00661228)
(0.0362844 -0.000379629 -0.00778874)
(0.0299815 -0.00113411 -0.00905027)
(0.0232198 -0.00212842 -0.0103374)
(0.0161187 -0.00341219 -0.0114831)
(0.00899267 -0.00495111 -0.0120486)
(0.00282799 -0.00633526 -0.0109652)
(-0.00107449 -0.00531181 -0.00611181)
(0.104351 7.53376e-05 -0.000419903)
(0.103635 0.000423896 -0.00118094)
(0.102129 0.000886261 -0.00186654)
(0.0998335 0.00134907 -0.00253596)
(0.0967898 0.00174151 -0.00325347)
(0.0929343 0.00199648 -0.00407459)
(0.0881883 0.00204235 -0.00504123)
(0.0824882 0.00182708 -0.00617807)
(0.0757795 0.00133291 -0.00749058)
(0.0679953 0.000577946 -0.00896186)
(0.0590267 -0.000425757 -0.0105536)
(0.048746 -0.00169525 -0.0121977)
(0.0370474 -0.00334517 -0.0136971)
(0.0239147 -0.00544477 -0.0145117)
(0.0105301 -0.00765 -0.0132176)
(0.000302944 -0.00712604 -0.00715043)
(0.135373 0.000234214 -0.000323531)
(0.134793 0.000793069 -0.000957106)
(0.133499 0.00144054 -0.00157169)
(0.131461 0.00212021 -0.00219941)
(0.128708 0.0027661 -0.00288483)
(0.125136 0.00330207 -0.00367828)
(0.120574 0.00363879 -0.00463099)
(0.114827 0.00370476 -0.00578604)
(0.107683 0.00347671 -0.00716835)
(0.0989092 0.00299278 -0.00877432)
(0.0882583 0.00232783 -0.0105643)
(0.0754043 0.00155601 -0.012441)
(0.0599744 0.00060623 -0.0142339)
(0.0414325 -0.000761035 -0.0153755)
(0.0205302 -0.00294968 -0.014202)
(0.00262147 -0.00476435 -0.00762272)
(0.160177 0.000359147 -0.000267825)
(0.159702 0.00112197 -0.00079666)
(0.158614 0.00194719 -0.00132086)
(0.156866 0.00282119 -0.00186636)
(0.154482 0.00370798 -0.00246702)
(0.151357 0.00455758 -0.00316537)
(0.147279 0.00530166 -0.0040152)
(0.141962 0.0058805 -0.0050754)
(0.135057 0.00627757 -0.00639681)
(0.12615 0.00655725 -0.00800369)
(0.114799 0.00685728 -0.00987209)
(0.100467 0.00736622 -0.0119107)
(0.0825759 0.00820739 -0.0139458)
(0.0600628 0.00915486 -0.015452)
(0.0324038 0.0086192 -0.0146005)
(0.00605237 0.00336376 -0.0078604)
(0.178772 0.000457692 -0.000232813)
(0.178371 0.00139634 -0.000689939)
(0.177453 0.00237957 -0.00114321)
(0.175959 0.00342224 -0.00161618)
(0.173915 0.00452186 -0.00213646)
(0.171228 0.00566904 -0.00273803)
(0.167696 0.00684303 -0.0034696)