/*--------------------------------*- C++ -*----------------------------------*\
| =========                 |                                                 |
| \\      /  F ield         | foam-extend: Open Source CFD                    |
|  \\    /   O peration     | Version:     3.1                                |
|   \\  /    A nd           | Web:         http://www.extend-project.de       |
|    \\/     M anipulation  |                                                 |
\*---------------------------------------------------------------------------*/
FoamFile
{
    version     2.0;
    format      ascii;
    class       volVectorField;
    location    "0.0004";
    object      cellMotionU;
}
// * * * * * * * * * * * * * * * * * * * * * * * * * * * * * * * * * * * * * //

dimensions      [0 1 -1 0 0 0 0];

internalField   nonuniform List<vector> 
16000
(
(-1.22463e-09 -1.17391e-09 -2.15536e-09)
(-3.70897e-09 -1.04719e-09 -2.43695e-09)
(-6.27987e-09 -8.49828e-10 -3.00719e-09)
(-9.07841e-09 -6.10966e-10 -3.89645e-09)
(-1.22539e-08 -3.4817e-10 -5.16128e-09)
(-1.59593e-08 -7.97096e-11 -6.88362e-09)
(-2.03717e-08 1.83633e-10 -9.16994e-09)
(-2.57277e-08 4.36918e-10 -1.21577e-08)
(-3.23702e-08 6.81299e-10 -1.60212e-08)
(-4.08716e-08 9.17827e-10 -2.1014e-08)
(-1.09419e-09 -3.54566e-09 -2.50399e-09)
(-3.35473e-09 -3.20703e-09 -2.7679e-09)
(-5.74655e-09 -2.61412e-09 -3.30568e-09)
(-8.34639e-09 -1.8766e-09 -4.14886e-09)
(-1.12723e-08 -1.06515e-09 -5.35111e-09)
(-1.46531e-08 -2.32546e-10 -6.98186e-09)
(-1.86117e-08 5.83715e-10 -9.12332e-09)
(-2.3306e-08 1.37275e-09 -1.18701e-08)
(-2.89403e-08 2.13553e-09 -1.52933e-08)
(-3.57705e-08 2.87641e-09 -1.9408e-08)
(-8.96797e-10 -6.00058e-09 -3.20841e-09)
(-2.75373e-09 -5.4749e-09 -3.43869e-09)
(-4.75106e-09 -4.50021e-09 -3.91584e-09)
(-6.9583e-09 -3.22072e-09 -4.66902e-09)
(-9.40917e-09 -1.80498e-09 -5.7476e-09)
(-1.21694e-08 -3.55913e-10 -7.20599e-09)
(-1.53006e-08 1.06637e-09 -9.09705e-09)
(-1.8823e-08 2.43784e-09 -1.14396e-08)
(-2.27335e-08 3.77077e-09 -1.41837e-08)
(-2.70026e-08 5.09532e-09 -1.71412e-08)
(-6.4435e-10 -8.70199e-09 -4.30019e-09)
(-1.98945e-09 -7.94639e-09 -4.48245e-09)
(-3.441e-09 -6.54822e-09 -4.86723e-09)
(-5.05897e-09 -4.67651e-09 -5.48853e-09)
(-6.86344e-09 -2.561e-09 -6.39349e-09)
(-8.81731e-09 -4.07466e-10 -7.62165e-09)
(-1.08715e-08 1.68253e-09 -9.19209e-09)
(-1.2944e-08 3.68419e-09 -1.10711e-08)
(-1.48523e-08 5.62606e-09 -1.31156e-08)
(-1.63307e-08 7.58982e-09 -1.50209e-08)
(-3.58294e-10 -1.18084e-08 -5.84331e-09)
(-1.113e-09 -1.07649e-08 -5.95842e-09)
(-1.94218e-09 -8.8124e-09 -6.20939e-09)
(-2.86409e-09 -6.22569e-09 -6.6492e-09)
(-3.88387e-09 -3.30259e-09 -7.32828e-09)
(-4.94348e-09 -3.26161e-10 -8.28166e-09)
(-5.87484e-09 2.51571e-09 -9.50779e-09)
(-6.45583e-09 5.18096e-09 -1.09281e-08)
(-6.41788e-09 7.72939e-09 -1.23521e-08)
(-5.34853e-09 1.03021e-08 -1.3426e-08)
(-5.28052e-11 -1.54998e-08 -7.93387e-09)
(-1.72717e-10 -1.4065e-08 -7.94527e-09)
(-3.29706e-10 -1.13785e-08 -8.00249e-09)
(-5.24026e-10 -7.84274e-09 -8.18913e-09)
(-7.25681e-10 -3.92147e-09 -8.57981e-09)
(-8.55281e-10 1.2848e-11 -9.21717e-09)
(-7.4006e-10 3.70418e-09 -1.00839e-08)
(-4.84446e-11 7.04601e-09 -1.10772e-08)
(1.63462e-09 1.01457e-08 -1.19775e-08)
(4.69718e-09 1.31873e-08 -1.24133e-08)
(2.64271e-10 -2.00002e-08 -1.07037e-08)
(8.02224e-10 -1.80005e-08 -1.05447e-08)
(1.34374e-09 -1.43002e-08 -1.03103e-08)
(1.88587e-09 -9.48262e-09 -1.01307e-08)
(2.46951e-09 -4.24326e-09 -1.01394e-08)
(3.19293e-09 8.47305e-10 -1.03981e-08)
(4.23785e-09 5.47025e-09 -1.08833e-08)
(5.9097e-09 9.50104e-09 -1.14728e-08)
(8.70053e-09 1.30289e-08 -1.19279e-08)
(1.29972e-08 1.63008e-08 -1.18567e-08)
(5.90246e-10 -2.56213e-08 -1.4331e-08)
(1.8075e-09 -2.27733e-08 -1.3882e-08)
(3.06112e-09 -1.76038e-08 -1.31651e-08)
(4.33969e-09 -1.10269e-08 -1.24401e-08)
(5.66434e-09 -4.04695e-09 -1.19213e-08)
(7.11503e-09 2.51684e-09 -1.17082e-08)
(8.86766e-09 8.18442e-09 -1.17717e-08)
(1.1215e-08 1.28572e-08 -1.19627e-08)
(1.44926e-08 1.65894e-08 -1.20166e-08)
(1.91944e-08 1.98084e-08 -1.15309e-08)
(9.30074e-10 -3.28234e-08 -1.90532e-08)
(2.85091e-09 -2.86428e-08 -1.80685e-08)
(4.83904e-09 -2.12706e-08 -1.65292e-08)
(6.86401e-09 -1.22387e-08 -1.49675e-08)
(8.90686e-09 -2.98e-09 -1.37223e-08)
(1.09947e-08 5.4148e-09 -1.29148e-08)
(1.32382e-08 1.22967e-08 -1.24911e-08)
(1.58638e-08 1.74786e-08 -1.22701e-08)
(1.91135e-08 2.11203e-08 -1.19579e-08)
(2.34878e-08 2.39536e-08 -1.11387e-08)
(1.29348e-09 -4.23774e-08 -2.52278e-08)
(3.95183e-09 -3.59123e-08 -2.31653e-08)
(6.71708e-09 -2.51966e-08 -2.02133e-08)
(9.53533e-09 -1.2734e-08 -1.73822e-08)
(1.23184e-08 -5.19039e-10 -1.51558e-08)
(1.4998e-08 1.008e-08 -1.36206e-08)
(1.75905e-08 1.82782e-08 -1.26414e-08)
(2.02248e-08 2.38161e-08 -1.19781e-08)
(2.3115e-08 2.70037e-08 -1.13272e-08)
(2.65043e-08 2.8778e-08 -1.03345e-08)
(-3.62654e-09 -3.47738e-09 -4.1803e-09)
(-1.09949e-08 -3.11827e-09 -4.92751e-09)
(-1.86519e-08 -2.56372e-09 -6.44301e-09)
(-2.70365e-08 -1.8985e-09 -8.81341e-09)
(-3.66108e-08 -1.17309e-09 -1.22017e-08)
(-4.78428e-08 -4.41177e-10 -1.68512e-08)
(-6.12547e-08 2.65726e-10 -2.3094e-08)
(-7.75015e-08 9.3375e-10 -3.13851e-08)
(-9.74566e-08 1.56791e-09 -4.23443e-08)
(-1.22491e-07 2.1791e-09 -5.6913e-08)
(-3.25657e-09 -1.05164e-08 -5.10887e-09)
(-9.99528e-09 -9.56225e-09 -5.81439e-09)
(-1.71563e-08 -7.89877e-09 -7.25425e-09)
(-2.49906e-08 -5.8445e-09 -9.51858e-09)
(-3.38719e-08 -3.60492e-09 -1.27643e-08)
(-4.42005e-08 -1.33347e-09 -1.72044e-08)
(-5.63448e-08 8.59537e-10 -2.31119e-08)
(-7.07403e-08 2.94174e-09 -3.08375e-08)
(-8.78674e-08 4.92586e-09 -4.07374e-08)
(-1.082e-07 6.84985e-09 -5.31279e-08)
(-2.7023e-09 -1.78392e-08 -6.98609e-09)
(-8.30849e-09 -1.63652e-08 -7.61297e-09)
(-1.43688e-08 -1.36382e-08 -8.91338e-09)
(-2.11152e-08 -1.00739e-08 -1.09715e-08)
(-2.86771e-08 -6.16296e-09 -1.3935e-08)
(-3.72773e-08 -2.20566e-09 -1.79826e-08)
(-4.71156e-08 1.62124e-09 -2.33191e-08)
(-5.82347e-08 5.24898e-09 -3.01068e-08)
(-7.05301e-08 8.72815e-09 -3.83999e-08)
(-8.3677e-08 1.21886e-08 -4.79974e-08)
(-1.99706e-09 -2.59556e-08 -9.89998e-09)
(-6.17589e-09 -2.3839e-08 -1.04159e-08)
(-1.07154e-08 -1.99318e-08 -1.15039e-08)
(-1.58235e-08 -1.47195e-08 -1.32617e-08)
(-2.15938e-08 -8.86665e-09 -1.58327e-08)
(-2.79526e-08 -2.97182e-09 -1.93612e-08)
(-3.47868e-08 2.66585e-09 -2.39742e-08)
(-4.1854e-08 7.97753e-09 -2.97122e-08)
(-4.85441e-08 1.30665e-08 -3.64028e-08)
(-5.38702e-08 1.82248e-08 -4.35645e-08)
(-1.20315e-09 -3.53618e-08 -1.40306e-08)
(-3.74538e-09 -3.24384e-08 -1.43922e-08)
(-6.56144e-09 -2.69762e-08 -1.51719e-08)
(-9.73878e-09 -1.97674e-08 -1.65165e-08)
(-1.33312e-08 -1.16687e-08 -1.85791e-08)
(-1.72091e-08 -3.49643e-09 -2.14962e-08)
(-2.09176e-08 4.19894e-09 -2.53509e-08)
(-2.38159e-08 1.12974e-08 -3.00837e-08)
(-2.50544e-08 1.80012e-08 -3.5422e-08)
(-2.32362e-08 2.47876e-08 -4.0782e-08)
(-3.62829e-10 -4.66176e-08 -1.9656e-08)
(-1.15866e-09 -4.25915e-08 -1.97768e-08)
(-2.12573e-09 -3.50623e-08 -2.01088e-08)
(-3.29921e-09 -2.51887e-08 -2.08758e-08)
(-4.62818e-09 -1.43005e-08 -2.22917e-08)
(-5.92667e-09 -3.46852e-09 -2.45186e-08)
(-6.72751e-09 6.57319e-09 -2.76042e-08)
(-6.06903e-09 1.55197e-08 -3.14397e-08)
(-2.68665e-09 2.37035e-08 -3.57142e-08)
(4.74761e-09 3.17556e-08 -3.98217e-08)
(5.00329e-10 -6.04034e-08 -2.71705e-08)
(1.49586e-09 -5.47762e-08 -2.68909e-08)
(2.43206e-09 -4.43833e-08 -2.65466e-08)
(3.2701e-09 -3.08944e-08 -2.64743e-08)
(4.09523e-09 -1.63032e-08 -2.70372e-08)
(5.15762e-09 -2.23912e-09 -2.84436e-08)
(6.94731e-09 1.03901e-08 -3.07381e-08)
(1.03479e-08 2.12468e-08 -3.37758e-08)
(1.68672e-08 3.0612e-08 -3.72104e-08)
(2.78392e-08 3.93169e-08 -4.04296e-08)
(1.37759e-09 -7.76289e-08 -3.71304e-08)
(4.20107e-09 -6.95871e-08 -3.61618e-08)
(7.05818e-09 -5.50229e-08 -3.46823e-08)
(9.88988e-09 -3.6556e-08 -3.3354e-08)
(1.27306e-08 -1.70543e-08 -3.27388e-08)
(1.57877e-08 1.1543e-09 -3.31392e-08)
(1.95541e-08 1.67169e-08 -3.45799e-08)
(2.4875e-08 2.93809e-08 -3.68729e-08)
(3.28387e-08 3.93745e-08 -3.95661e-08)
(4.50861e-08 4.8019e-08 -4.21244e-08)
(2.28248e-09 -9.95734e-08 -5.03121e-08)
(6.98253e-09 -8.77158e-08 -4.80473e-08)
(1.18052e-08 -6.68682e-08 -4.46052e-08)
(1.66449e-08 -4.14336e-08 -4.13348e-08)
(2.14299e-08 -1.54899e-08 -3.91056e-08)
(2.62281e-08 7.88727e-09 -3.82669e-08)
(3.13662e-08 2.68966e-08 -3.87659e-08)
(3.75389e-08 4.10603e-08 -4.02926e-08)
(4.55733e-08 5.09309e-08 -4.23013e-08)
(5.7117e-08 5.86791e-08 -4.4295e-08)
(3.24611e-09 -1.28303e-07 -6.79126e-08)
(9.90898e-09 -1.09852e-07 -6.29826e-08)
(1.68127e-08 -7.94259e-08 -5.61246e-08)
(2.37916e-08 -4.42356e-08 -4.98904e-08)
(3.05894e-08 -9.93099e-09 -4.54991e-08)
(3.70214e-08 1.96752e-08 -4.31966e-08)
(4.31697e-08 4.24484e-08 -4.27005e-08)
(4.94839e-08 5.77505e-08 -4.34883e-08)
(5.67186e-08 6.65606e-08 -4.48921e-08)
(6.57803e-08 7.16225e-08 -4.62491e-08)
(-5.8078e-09 -5.56205e-09 -1.80776e-10)
(-1.76388e-08 -5.02711e-09 -1.11147e-09)
(-3.00252e-08 -4.21401e-09 -3.00055e-09)
(-4.37365e-08 -3.25486e-09 -5.96083e-09)
(-5.95887e-08 -2.22823e-09 -1.02079e-08)
(-7.84202e-08 -1.22168e-09 -1.6074e-08)
(-1.01158e-07 -2.88941e-10 -2.40286e-08)
(-1.28916e-07 5.41535e-10 -3.47364e-08)
(-1.6307e-07 1.26696e-09 -4.91258e-08)
(-2.05579e-07 1.89519e-09 -6.8589e-08)
(-5.25514e-09 -1.68561e-08 -1.35849e-09)
(-1.61598e-08 -1.54502e-08 -2.24978e-09)
(-2.78382e-08 -1.30171e-08 -4.06912e-09)
(-4.07655e-08 -1.00542e-08 -6.93461e-09)
(-5.56277e-08 -6.88538e-09 -1.1058e-08)
(-7.31657e-08 -3.75703e-09 -1.674e-08)
(-9.40802e-08 -8.57832e-10 -2.43908e-08)
(-1.19173e-07 1.7357e-09 -3.45742e-08)
(-1.4924e-07 4.02522e-09 -4.79383e-08)
(-1.84921e-07 6.0546e-09 -6.5205e-08)
(-4.44225e-09 -2.87117e-08 -3.73649e-09)
(-1.3688e-08 -2.65573e-08 -4.5545e-09)
(-2.37724e-08 -2.25885e-08 -6.24989e-09)
(-3.51473e-08 -1.74456e-08 -8.93276e-09)
(-4.81223e-08 -1.19014e-08 -1.2808e-08)
(-6.31803e-08 -6.43924e-09 -1.81461e-08)
(-8.07889e-08 -1.36256e-09 -2.52953e-08)
(-1.01163e-07 3.18436e-09 -3.4621e-08)
(-1.24247e-07 7.24633e-09 -4.64632e-08)
(-1.49538e-07 1.10079e-08 -6.10104e-08)
(-3.41783e-09 -4.20206e-08 -7.42365e-09)
(-1.05979e-08 -3.89327e-08 -8.14097e-09)
(-1.84848e-08 -3.32579e-08 -9.64602e-09)
(-2.7506e-08 -2.57421e-08 -1.20658e-08)
(-3.79281e-08 -1.74203e-08 -1.56014e-08)
(-4.97809e-08 -9.24487e-09 -2.04909e-08)
(-6.3072e-08 -1.72462e-09 -2.70107e-08)
(-7.76166e-08 4.98304e-09 -3.54136e-08)
(-9.26144e-08 1.0992e-08 -4.58087e-08)
(-1.06612e-07 1.67244e-08 -5.81102e-08)
(-2.28007e-09 -5.76697e-08 -1.26504e-08)
(-7.1196e-09 -5.3404e-08 -1.32288e-08)
(-1.25482e-08 -4.54565e-08 -1.44528e-08)
(-1.88091e-08 -3.50481e-08 -1.65061e-08)
(-2.61202e-08 -2.35028e-08 -1.96009e-08)
(-3.44414e-08 -1.21001e-08 -2.397e-08)
(-4.32653e-08 -1.75323e-09 -2.98551e-08)
(-5.18141e-08 7.27786e-09 -3.74193e-08)
(-5.89568e-08 1.52505e-08 -4.66875e-08)
(-6.26424e-08 2.28602e-08 -5.74835e-08)
(-1.09862e-09 -7.66674e-08 -1.97839e-08)
(-3.48268e-09 -7.0778e-08 -2.01379e-08)
(-6.31394e-09 -5.97902e-08 -2.09472e-08)
(-9.7564e-09 -4.54835e-08 -2.24787e-08)
(-1.38609e-08 -2.9901e-08 -2.5008e-08)
(-1.85212e-08 -1.47122e-08 -2.88053e-08)
(-2.32234e-08 -1.09066e-09 -3.40746e-08)
(-2.6688e-08 1.04006e-08 -4.09376e-08)
(-2.71802e-08 2.01566e-08 -4.94272e-08)
(-2.27597e-08 2.91383e-08 -5.93499e-08)
(8.40656e-11 -1.00232e-07 -2.93603e-08)
(1.55201e-10 -9.19635e-08 -2.93278e-08)
(-6.62546e-11 -7.67442e-08 -2.95025e-08)
(-7.42115e-10 -5.71127e-08 -3.02594e-08)
(-1.8669e-09 -3.61245e-08 -3.2039e-08)
(-3.21483e-09 -1.62849e-08 -3.51529e-08)
(-4.25633e-09 9.68096e-10 -3.98179e-08)
(-3.85966e-09 1.5047e-08 -4.61284e-08)
(1.45346e-10 2.62321e-08 -5.40834e-08)
(9.70583e-09 3.57642e-08 -6.35259e-08)
(1.24538e-09 -1.29947e-07 -4.21542e-08)
(3.73498e-09 -1.18067e-07 -4.14432e-08)
(6.06471e-09 -9.66341e-08 -4.05152e-08)
(8.04779e-09 -6.96384e-08 -4.00947e-08)
(9.62205e-09 -4.14384e-08 -4.08237e-08)
(1.09642e-08 -1.55776e-08 -4.31124e-08)
(1.26568e-08 5.85686e-09 -4.71397e-08)
(1.57449e-08 2.24001e-08 -5.29856e-08)
(2.18522e-08 3.43724e-08 -6.04452e-08)
(3.33494e-08 4.35651e-08 -6.95967e-08)
(2.39159e-09 -1.67935e-07 -5.92637e-08)
(7.2664e-09 -1.50295e-07 -5.72382e-08)
(1.21089e-08 -1.19434e-07 -5.43551e-08)
(1.66746e-08 -8.20868e-08 -5.20783e-08)
(2.07504e-08 -4.44126e-08 -5.13692e-08)
(2.43214e-08 -1.10251e-08 -5.26721e-08)
(2.77613e-08 1.53854e-08 -5.60522e-08)
(3.20141e-08 3.40837e-08 -6.13806e-08)
(3.83421e-08 4.59272e-08 -6.83088e-08)
(4.90827e-08 5.38391e-08 -7.70626e-08)
(3.55443e-09 -2.17442e-07 -8.23569e-08)
(1.08212e-08 -1.89728e-07 -7.75526e-08)
(1.82369e-08 -1.44416e-07 -7.12093e-08)
(2.54697e-08 -9.25481e-08 -6.60684e-08)
(3.20449e-08 -4.25912e-08 -6.34445e-08)
(3.7594e-08 -1.56895e-10 -6.36483e-08)
(4.21697e-08 3.16845e-08 -6.64554e-08)
(4.6453e-08 5.20975e-08 -7.13982e-08)
(5.17161e-08 6.26427e-08 -7.78503e-08)
(5.95472e-08 6.73234e-08 -8.53643e-08)
(-7.38155e-09 -7.02666e-09 1.13679e-08)
(-2.24623e-08 -6.39545e-09 1.06543e-08)
(-3.83838e-08 -5.45303e-09 9.21221e-09)
(-5.62246e-08 -4.36475e-09 6.96772e-09)
(-7.71477e-08 -3.23108e-09 3.7726e-09)
(-1.02384e-07 -2.16988e-09 -6.08435e-10)
(-1.33328e-07 -1.26056e-09 -6.51067e-09)
(-1.71659e-07 -5.57763e-10 -1.44031e-08)
(-2.19414e-07 -9.6724e-11 -2.49103e-08)
(-2.79321e-07 8.77462e-11 -3.88794e-08)
(-6.72546e-09 -2.13461e-08 1.03976e-08)
(-2.07255e-08 -1.97059e-08 9.69591e-09)
(-3.58512e-08 -1.68926e-08 8.27234e-09)
(-5.28178e-08 -1.35285e-08 6.04735e-09)
(-7.26401e-08 -1.00286e-08 2.87101e-09)
(-9.64442e-08 -6.72131e-09 -1.47688e-09)
(-1.25368e-07 -3.8824e-09 -7.30903e-09)
(-1.60764e-07 -1.67253e-09 -1.50655e-08)
(-2.04025e-07 -1.65384e-10 -2.52546e-08)
(-2.56412e-07 5.85973e-10 -3.84581e-08)
(-5.77966e-09 -3.65338e-08 8.4549e-09)
(-1.78531e-08 -3.40415e-08 7.77365e-09)
(-3.11558e-08 -2.94763e-08 6.37379e-09)
(-4.63855e-08 -2.36308e-08 4.18477e-09)
(-6.41019e-08 -1.74873e-08 1.05523e-09)
(-8.51431e-08 -1.16872e-08 -3.22881e-09)
(-1.10413e-07 -6.67728e-09 -8.96457e-09)
(-1.40587e-07 -2.73685e-09 -1.65022e-08)
(-1.76117e-07 6.22478e-11 -2.62352e-08)
(-2.17051e-07 1.79014e-09 -3.85555e-08)
(-4.60119e-09 -5.38363e-08 5.47892e-09)
(-1.43095e-08 -5.02704e-08 4.82226e-09)
(-2.51044e-08 -4.37553e-08 3.46492e-09)
(-3.7675e-08 -3.5214e-08 1.32561e-09)
(-5.255e-08 -2.59488e-08 -1.74243e-09)
(-7.00269e-08 -1.71961e-08 -5.9417e-09)
(-9.04862e-08 -9.68969e-09 -1.15473e-08)
(-1.14186e-07 -3.76332e-09 -1.88743e-08)
(-1.40733e-07 5.50937e-10 -2.82173e-08)
(-1.69121e-07 3.55478e-09 -3.98692e-08)
(-3.31485e-09 -7.45283e-08 1.31936e-09)
(-1.03844e-08 -6.96022e-08 6.97609e-10)
(-1.84192e-08 -6.04573e-08 -5.8152e-10)
(-2.78875e-08 -4.8605e-08 -2.63367e-09)
(-3.92812e-08 -3.56973e-08 -5.6073e-09)
(-5.28428e-08 -2.337e-08 -9.70042e-09)
(-6.83458e-08 -1.28878e-08 -1.51831e-08)
(-8.5358e-08 -4.76176e-09 -2.23387e-08)
(-1.03143e-07 1.10687e-09 -3.14304e-08)
(-1.19997e-07 5.29878e-09 -4.27027e-08)
(-2.015e-09 -1.00092e-07 -4.27673e-09)
(-6.38305e-09 -9.3274e-08 -4.8242e-09)
(-1.15644e-08 -8.05905e-08 -5.96806e-09)
(-1.79342e-08 -6.4229e-08 -7.86463e-09)
(-2.57749e-08 -4.6714e-08 -1.06887e-08)
(-3.52839e-08 -3.01655e-08 -1.46633e-08)
(-4.62542e-08 -1.61515e-08 -2.00268e-08)
(-5.76297e-08 -5.60001e-09 -2.70437e-08)
(-6.7982e-08 1.63666e-09 -3.60178e-08)
(-7.57348e-08 6.45737e-09 -4.71439e-08)
(-7.67238e-10 -1.32342e-07 -1.16871e-08)
(-2.54349e-09 -1.22729e-07 -1.20815e-08)
(-4.96678e-09 -1.05105e-07 -1.29963e-08)
(-8.39983e-09 -8.25445e-08 -1.462e-08)
(-1.3055e-08 -5.88038e-08 -1.72137e-08)
(-1.89571e-08 -3.70012e-08 -2.10046e-08)
(-2.59164e-08 -1.90432e-08 -2.62456e-08)
(-3.31121e-08 -5.87643e-09 -3.31818e-08)
(-3.84763e-08 2.42752e-09 -4.20828e-08)
(-4.04216e-08 7.01203e-09 -5.31585e-08)
(3.79405e-10 -1.73637e-07 -2.14558e-08)
(9.90743e-10 -1.59761e-07 -2.1562e-08)
(1.10465e-09 -1.34825e-07 -2.20178e-08)
(3.35154e-10 -1.03666e-07 -2.31849e-08)
(-1.60082e-09 -7.15731e-08 -2.54069e-08)
(-4.77115e-09 -4.28986e-08 -2.89528e-08)
(-8.85388e-09 -2.03096e-08 -3.40302e-08)
(-1.31877e-08 -4.64599e-09 -4.08964e-08)
(-1.6217e-08 4.22431e-09 -4.95964e-08)
(-1.59086e-08 7.74773e-09 -6.05889e-08)
(1.39831e-09 -2.27091e-07 -3.43275e-08)
(4.147e-09 -2.06349e-07 -3.38341e-08)
(6.54295e-09 -1.70249e-07 -3.3417e-08)
(8.14751e-09 -1.26961e-07 -3.38075e-08)
(8.50413e-09 -8.39028e-08 -3.54935e-08)
(7.33369e-09 -4.66346e-08 -3.874e-08)
(4.76014e-09 -1.846e-08 -4.36592e-08)
(1.52486e-09 -4.55274e-10 -5.03181e-08)
(-1.18515e-09 8.2048e-09 -5.86389e-08)
(-1.42206e-09 1.00347e-08 -6.92536e-08)
(2.2808e-09 -2.97268e-07 -5.13524e-08)
(6.8947e-09 -2.64375e-07 -4.95347e-08)
(1.13798e-08 -2.11084e-07 -4.75319e-08)
(1.5193e-08 -1.50772e-07 -4.6685e-08)
(1.75804e-08 -9.35336e-08 -4.7637e-08)
(1.78628e-08 -4.59934e-08 -5.05654e-08)
(1.58321e-08 -1.17609e-08 -5.53936e-08)
(1.20776e-08 8.16907e-09 -6.19117e-08)
(8.04584e-09 1.5586e-08 -6.97941e-08)
(5.63293e-09 1.47857e-08 -7.89186e-08)
(-7.85937e-09 -7.36109e-09 2.89197e-08)
(-2.39543e-08 -6.71893e-09 2.87701e-08)
(-4.10588e-08 -5.77085e-09 2.84877e-08)
(-6.04027e-08 -4.6951e-09 2.80982e-08)
(-8.33208e-08 -3.6056e-09 2.76343e-08)
(-1.11247e-07 -2.63947e-09 2.71352e-08)
(-1.4582e-07 -1.89792e-09 2.66599e-08)
(-1.89019e-07 -1.46289e-09 2.63114e-08)
(-2.43209e-07 -1.40863e-09 2.62975e-08)
(-3.11398e-07 -1.82662e-09 2.70682e-08)
(-7.18386e-09 -2.24129e-08 2.85465e-08)
(-2.21782e-08 -2.07524e-08 2.83685e-08)
(-3.84964e-08 -1.79233e-08 2.80319e-08)
(-5.69924e-08 -1.45926e-08 2.75585e-08)
(-7.88617e-08 -1.12227e-08 2.69737e-08)
(-1.05451e-07 -8.19656e-09 2.63063e-08)
(-1.38174e-07 -5.85851e-09 2.55827e-08)
(-1.78749e-07 -4.45585e-09 2.48337e-08)
(-2.29011e-07 -4.16163e-09 2.41279e-08)
(-2.90768e-07 -5.16576e-09 2.35561e-08)
(-6.22055e-09 -3.85315e-08 2.78377e-08)
(-1.92573e-08 -3.60154e-08 2.76041e-08)
(-3.37498e-08 -3.14305e-08 2.71537e-08)
(-5.05503e-08 -2.56271e-08 2.65176e-08)
(-7.03959e-08 -1.96797e-08 2.57098e-08)
(-9.43739e-08 -1.43264e-08 2.47352e-08)
(-1.23724e-07 -1.01286e-08 2.35749e-08)
(-1.59551e-07 -7.50097e-09 2.21774e-08)
(-2.02883e-07 -6.67259e-09 2.04387e-08)
(-2.54588e-07 -7.76581e-09 1.81398e-08)
(-5.02853e-09 -5.71417e-08 2.68403e-08)
(-1.56822e-08 -5.35402e-08 2.65263e-08)
(-2.76613e-08 -4.69927e-08 2.59163e-08)
(-4.18332e-08 -3.84934e-08 2.50461e-08)
(-5.89331e-08 -2.94599e-08 2.39374e-08)
(-7.95133e-08 -2.12759e-08 2.25776e-08)
(-1.04327e-07 -1.48407e-08 2.0903e-08)
(-1.34141e-07 -1.0671e-08 1.87963e-08)
(-1.6921e-07 -9.00272e-09 1.60537e-08)
(-2.09454e-07 -9.77608e-09 1.23141e-08)
(-3.74333e-09 -7.97314e-08 2.55989e-08)
(-1.17665e-08 -7.47526e-08 2.51799e-08)
(-2.1006e-08 -6.55382e-08 2.43724e-08)
(-3.21071e-08 -5.37032e-08 2.32204e-08)
(-4.57943e-08 -4.10353e-08 2.17619e-08)
(-6.26019e-08 -2.93451e-08 1.99923e-08)
(-8.26832e-08 -2.01213e-08 1.78197e-08)
(-1.06129e-07 -1.41147e-08 1.50839e-08)
(-1.32902e-07 -1.14745e-08 1.15553e-08)
(-1.62191e-07 -1.19004e-08 6.86938e-09)
(-2.47399e-09 -1.08059e-07 2.41546e-08)
(-7.85796e-09 -1.01161e-07 2.36051e-08)
(-1.43099e-08 -8.83521e-08 2.25547e-08)
(-2.23815e-08 -7.19481e-08 2.10773e-08)
(-3.25781e-08 -5.46426e-08 1.9244e-08)
(-4.54221e-08 -3.87636e-08 1.70595e-08)
(-6.11226e-08 -2.61188e-08 1.44528e-08)
(-7.91073e-08 -1.79373e-08 1.12547e-08)
(-9.86267e-08 -1.44114e-08 7.19964e-09)
(-1.18958e-07 -1.49306e-08 2.01512e-09)
(-1.30565e-09 -1.44308e-07 2.2553e-08)
(-4.25748e-09 -1.34568e-07 2.18298e-08)
(-8.10719e-09 -1.16751e-07 2.04619e-08)
(-1.33815e-08 -9.40565e-08 1.85964e-08)
(-2.05101e-08 -7.0454e-08 1.63533e-08)
(-2.98137e-08 -4.92979e-08 1.37813e-08)
(-4.1549e-08 -3.27702e-08 1.08128e-08)
(-5.54403e-08 -2.21287e-08 7.29478e-09)
(-6.99411e-08 -1.7857e-08 2.98419e-09)
(-8.426e-08 -1.91709e-08 -2.34147e-09)
(-3.14643e-10 -1.91328e-07 2.0862e-08)
(-1.19501e-09 -1.77259e-07 1.9874e-08)
(-2.80576e-09 -1.52021e-07 1.80692e-08)
(-5.68187e-09 -1.20617e-07 1.57072e-08)
(-1.03096e-08 -8.8558e-08 1.30016e-08)
(-1.70397e-08 -6.04579e-08 1.00477e-08)
(-2.59311e-08 -3.92759e-08 6.80718e-09)
(-3.6912e-08 -2.62067e-08 3.10727e-09)
(-4.88481e-08 -2.14277e-08 -1.17936e-09)
(-6.04637e-08 -2.4114e-08 -6.36936e-09)
(4.33698e-10 -2.52871e-07 1.92222e-08)
(1.15269e-09 -2.31811e-07 1.77907e-08)
(1.31338e-09 -1.95231e-07 1.53153e-08)
(3.55591e-10 -1.5156e-07 1.22782e-08)
(-2.36795e-09 -1.08442e-07 9.0177e-09)
(-7.40428e-09 -7.16721e-08 5.67186e-09)
(-1.49763e-08 -4.48087e-08 2.22122e-09)
(-2.47638e-08 -2.92457e-08 -1.4638e-09)
(-3.59682e-08 -2.44408e-08 -5.49192e-09)
(-4.73885e-08 -2.8697e-08 -1.02753e-08)
(8.78067e-10 -3.34318e-07 1.79494e-08)
(2.61761e-09 -3.00806e-07 1.56651e-08)
(4.07235e-09 -2.46765e-07 1.20713e-08)
(4.59931e-09 -1.85924e-07 8.06972e-09)
(3.27568e-09 -1.28569e-07 4.1371e-09)
(-8.31488e-10 -8.1486e-08 4.01964e-10)
(-8.25086e-09 -4.84543e-08 -3.18969e-09)
(-1.87115e-08 -3.0666e-08 -6.74689e-09)
(-3.09704e-08 -2.65392e-08 -1.0371e-08)
(-4.32009e-08 -3.22048e-08 -1.42291e-08)
(-6.95134e-09 -6.25634e-09 4.8312e-08)
(-2.12051e-08 -5.67991e-09 4.88335e-08)
(-3.64007e-08 -4.82345e-09 4.99252e-08)
(-5.364e-08 -3.85456e-09 5.17192e-08)
(-7.40928e-08 -2.8904e-09 5.44441e-08)
(-9.89751e-08 -2.06914e-09 5.84352e-08)
(-1.29617e-07 -1.50027e-09 6.41695e-08)
(-1.6754e-07 -1.27825e-09 7.23374e-08)
(-2.14401e-07 -1.49506e-09 8.39542e-08)
(-2.72033e-07 -2.27075e-09 1.00634e-07)
(-6.33057e-09 -1.90919e-08 4.8663e-08)
(-1.95679e-08 -1.75853e-08 4.91179e-08)
(-3.40395e-08 -1.50182e-08 5.00881e-08)
(-5.05254e-08 -1.20087e-08 5.1705e-08)
(-7.00903e-08 -9.01097e-09 5.41864e-08)
(-9.39081e-08 -6.41756e-09 5.7835e-08)
(-1.23173e-07 -4.59077e-09 6.30477e-08)
(-1.59303e-07 -3.81319e-09 7.03624e-08)
(-2.03753e-07 -4.31248e-09 8.044e-08)
(-2.57929e-07 -6.34787e-09 9.40224e-08)
(-5.43492e-09 -3.2962e-08 4.94401e-08)
(-1.68575e-08 -3.06546e-08 4.97682e-08)
(-2.96491e-08 -2.64615e-08 5.05001e-08)
(-4.46124e-08 -2.11872e-08 5.17764e-08)
(-6.24352e-08 -1.58524e-08 5.37969e-08)
(-8.41142e-08 -1.11968e-08 5.68168e-08)
(-1.10787e-07 -7.81245e-09 6.11423e-08)
(-1.43491e-07 -6.1663e-09 6.70763e-08)
(-1.83273e-07 -6.56929e-09 7.48713e-08)
(-2.31253e-07 -9.25348e-09 8.45666e-08)
(-4.32083e-09 -4.91664e-08 5.0799e-08)
(-1.35174e-08 -4.58461e-08 5.09515e-08)
(-2.39803e-08 -3.98188e-08 5.13421e-08)
(-3.65494e-08 -3.20378e-08 5.21337e-08)
(-5.1949e-08 -2.38564e-08 5.35378e-08)
(-7.07517e-08 -1.66143e-08 5.57682e-08)
(-9.37431e-08 -1.12323e-08 5.90321e-08)
(-1.21795e-07 -8.30237e-09 6.34888e-08)
(-1.55446e-07 -8.1639e-09 6.91233e-08)
(-1.952e-07 -1.09001e-08 7.56472e-08)
(-3.11435e-09 -6.90669e-08 5.29872e-08)
(-9.84118e-09 -6.44664e-08 5.29117e-08)
(-1.77397e-08 -5.59606e-08 5.28596e-08)
(-2.74643e-08 -4.50648e-08 5.30457e-08)
(-3.97597e-08 -3.3483e-08 5.37156e-08)
(-5.52293e-08 -2.29637e-08 5.50964e-08)
(-7.41734e-08 -1.49748e-08 5.7343e-08)
(-9.69153e-08 -1.03346e-08 6.05106e-08)
(-1.23795e-07 -9.33343e-09 6.45191e-08)
(-1.54643e-07 -1.18435e-08 6.90336e-08)
(-1.9221e-09 -9.42699e-08 5.63523e-08)
(-6.1671e-09 -8.79067e-08 5.59672e-08)
(-1.14358e-08 -7.60894e-08 5.53415e-08)
(-1.83002e-08 -6.0955e-08 5.47853e-08)
(-2.73191e-08 -4.50236e-08 5.46306e-08)
(-3.91102e-08 -3.05221e-08 5.51514e-08)
(-5.40647e-08 -1.92354e-08 5.65102e-08)
(-7.19109e-08 -1.24252e-08 5.87288e-08)
(-9.2303e-08 -1.04196e-08 6.17127e-08)
(-1.15059e-07 -1.28413e-08 6.52418e-08)
(-8.35369e-10 -1.26762e-07 6.13739e-08)
(-2.80748e-09 -1.17829e-07 6.05311e-08)
(-5.61407e-09 -1.01456e-07 5.91202e-08)
(-9.79243e-09 -8.05464e-08 5.76094e-08)
(-1.58292e-08 -5.87514e-08 5.6506e-08)
(-2.41579e-08 -3.9219e-08 5.61644e-08)
(-3.5221e-08 -2.40881e-08 5.67733e-08)
(-4.90414e-08 -1.46885e-08 5.83668e-08)
(-6.44517e-08 -1.16056e-08 6.08478e-08)
(-8.10805e-08 -1.43136e-08 6.41001e-08)
(5.7427e-11 -1.69116e-07 6.87286e-08)
(-2.66243e-11 -1.56328e-07 6.71479e-08)
(-7.3774e-10 -1.33307e-07 6.45346e-08)
(-2.59189e-09 -1.0451e-07 6.17229e-08)
(-6.10569e-09 -7.49235e-08 5.94625e-08)
(-1.17324e-08 -4.88187e-08 5.82321e-08)
(-1.97172e-08 -2.90464e-08 5.82199e-08)
(-3.02609e-08 -1.69102e-08 5.94438e-08)
(-4.25747e-08 -1.27846e-08 6.17589e-08)
(-5.56787e-08 -1.60738e-08 6.51495e-08)
(6.74304e-10 -2.24683e-07 7.93896e-08)
(1.94209e-09 -2.05762e-07 7.64797e-08)
(2.81802e-09 -1.72727e-07 7.18868e-08)
(2.80795e-09 -1.32976e-07 6.71854e-08)
(1.28254e-09 -9.33241e-08 6.3481e-08)
(-2.36959e-09 -5.90758e-08 6.13194e-08)
(-8.54314e-09 -3.36478e-08 6.08194e-08)
(-1.72007e-08 -1.85801e-08 6.18618e-08)
(-2.78898e-08 -1.36808e-08 6.41997e-08)
(-3.9606e-08 -1.75681e-08 6.78346e-08)
(9.30783e-10 -2.98201e-07 9.48681e-08)
(2.86442e-09 -2.68483e-07 8.92739e-08)
(4.75559e-09 -2.2024e-07 8.13044e-08)
(6.09978e-09 -1.65356e-07 7.38222e-08)
(6.06696e-09 -1.12888e-07 6.83205e-08)
(3.72079e-09 -6.90104e-08 6.52449e-08)
(-1.61893e-09 -3.73866e-08 6.44593e-08)
(-1.00161e-08 -1.94809e-08 6.55787e-08)
(-2.06937e-08 -1.43034e-08 6.80968e-08)
(-3.2153e-08 -1.86697e-08 7.16053e-08)
(-4.83403e-09 -3.87789e-09 6.45639e-08)
(-1.47536e-08 -3.42656e-09 6.5566e-08)
(-2.53341e-08 -2.7318e-09 6.76294e-08)
(-3.72967e-08 -1.93078e-09 7.0936e-08)
(-5.13338e-08 -1.1355e-09 7.58104e-08)
(-6.80449e-08 -4.68199e-10 8.27303e-08)
(-8.7916e-08 -3.26793e-11 9.23617e-08)
(-1.1126e-07 8.14829e-11 1.05641e-07)
(-1.38001e-07 -2.09113e-10 1.23882e-07)
(-1.67349e-07 -1.01736e-09 1.49077e-07)
(-4.32367e-09 -1.18871e-08 6.54512e-08)
(-1.33826e-08 -1.06623e-08 6.63625e-08)
(-2.33268e-08 -8.55345e-09 6.82623e-08)
(-3.46656e-08 -6.05055e-09 7.13354e-08)
(-4.80396e-08 -3.55202e-09 7.58956e-08)
(-6.40698e-08 -1.41927e-09 8.23774e-08)
(-8.32413e-08 1.91484e-11 9.13466e-08)
(-1.05988e-07 5.04291e-10 1.03557e-07)
(-1.32538e-07 -1.87342e-10 1.19885e-07)
(-1.6287e-07 -2.29694e-09 1.41255e-07)
(-3.55311e-09 -2.06902e-08 6.73115e-08)
(-1.10563e-08 -1.8752e-08 6.80514e-08)
(-1.95568e-08 -1.52282e-08 6.96372e-08)
(-2.9615e-08 -1.07941e-08 7.2263e-08)
(-4.16458e-08 -6.29214e-09 7.62238e-08)
(-5.6215e-08 -2.37764e-09 8.18987e-08)
(-7.39044e-08 4.10414e-10 8.97472e-08)
(-9.51466e-08 1.64711e-09 1.00221e-07)
(-1.2036e-07 1.03744e-09 1.13695e-07)
(-1.50216e-07 -1.6449e-09 1.30259e-07)
(-2.57362e-09 -3.11855e-08 7.03458e-08)
(-8.11186e-09 -2.83586e-08 7.08525e-08)
(-1.45812e-08 -2.32125e-08 7.19879e-08)
(-2.25963e-08 -1.65721e-08 7.39803e-08)
(-3.26527e-08 -9.57829e-09 7.71405e-08)
(-4.50873e-08 -3.35993e-09 8.17966e-08)
(-6.03427e-08 1.28004e-09 8.82873e-08)
(-7.89213e-08 3.79622e-09 9.6893e-08)
(-1.01168e-07 3.87482e-09 1.07654e-07)
(-1.27647e-07 1.43425e-09 1.20267e-07)
(-1.48465e-09 -4.42906e-08 7.4895e-08)
(-4.78697e-09 -4.03537e-08 7.51019e-08)
(-8.93814e-09 -3.30668e-08 7.56505e-08)
(-1.44366e-08 -2.36849e-08 7.68474e-08)
(-2.18305e-08 -1.36551e-08 7.90469e-08)
(-3.15449e-08 -4.46482e-09 8.25956e-08)
(-4.37371e-08 2.66627e-09 8.77725e-08)
(-5.85866e-08 7.03478e-09 9.47274e-08)
(-7.63684e-08 8.35156e-09 1.03423e-07)
(-9.71197e-08 6.73474e-09 1.13494e-07)
(-3.74948e-10 -6.10472e-08 8.14472e-08)
(-1.36359e-09 -5.56323e-08 8.12441e-08)
(-3.04896e-09 -4.55507e-08 8.10317e-08)
(-5.87075e-09 -3.25278e-08 8.12465e-08)
(-1.02643e-08 -1.86422e-08 8.23562e-08)
(-1.66873e-08 -5.76766e-09 8.47762e-08)
(-2.54241e-08 4.56568e-09 8.87847e-08)
(-3.62265e-08 1.13311e-08 9.44863e-08)
(-4.87553e-08 1.43044e-08 1.01844e-07)
(-6.29109e-08 1.3744e-08 1.10608e-07)
(6.7189e-10 -8.26881e-08 9.06711e-08)
(1.88576e-09 -7.52074e-08 8.98591e-08)
(2.62373e-09 -6.13969e-08 8.86115e-08)
(2.48112e-09 -4.35544e-08 8.75582e-08)
(1.07715e-09 -2.45971e-08 8.74076e-08)
(-1.92971e-09 -7.12085e-09 8.86706e-08)
(-6.85941e-09 7.04927e-09 9.16639e-08)
(-1.37037e-08 1.67453e-08 9.65016e-08)
(-2.14252e-08 2.16187e-08 1.03124e-07)
(-2.9593e-08 2.20921e-08 1.11399e-07)
(1.57289e-09 -1.10734e-07 1.0349e-07)
(4.7219e-09 -1.00284e-07 1.01706e-07)
(7.65568e-09 -8.12668e-08 9.88691e-08)
(1.0023e-08 -5.70565e-08 9.60932e-08)
(1.14384e-08 -3.15535e-08 9.43971e-08)
(1.15347e-08 -8.2233e-09 9.44541e-08)
(1.01125e-08 1.05156e-08 9.65624e-08)
(7.08133e-09 2.3486e-08 1.00821e-07)
(3.04548e-09 3.02674e-08 1.07026e-07)
(-7.91171e-10 3.16682e-08 1.15246e-07)
(2.2562e-09 -1.47065e-07 1.2118e-07)
(6.91569e-09 -1.32129e-07 1.17656e-07)
(1.168e-08 -1.05615e-07 1.12217e-07)
(1.62676e-08 -7.28911e-08 1.06951e-07)
(2.02411e-08 -3.91594e-08 1.03336e-07)
(2.31138e-08 -8.71435e-09 1.02124e-07)
(2.4513e-08 1.54609e-08 1.03498e-07)
(2.43912e-08 3.18469e-08 1.07325e-07)
(2.29777e-08 4.02923e-08 1.13239e-07)
(2.1655e-08 4.24454e-08 1.21391e-07)
(2.65018e-09 -1.94265e-07 1.45637e-07)
(8.25606e-09 -1.71832e-07 1.38632e-07)
(1.44016e-08 -1.34424e-07 1.2881e-07)
(2.0891e-08 -9.03494e-08 1.19917e-07)
(2.71772e-08 -4.6405e-08 1.13932e-07)
(3.25196e-08 -7.65361e-09 1.11469e-07)
(3.62517e-08 2.25054e-08 1.12353e-07)
(3.80235e-08 4.22751e-08 1.16045e-07)
(3.80161e-08 5.18389e-08 1.21803e-07)
(3.72529e-08 5.3699e-08 1.29062e-07)
(-2.13192e-09 -8.49399e-10 7.40408e-08)
(-6.53425e-09 -5.6e-10 7.51535e-08)
(-1.1284e-08 -7.50069e-11 7.74205e-08)
(-1.66536e-08 5.08803e-10 8.09933e-08)
(-2.27817e-08 1.0882e-09 8.61487e-08)
(-2.95661e-08 1.56369e-09 9.32892e-08)
(-3.65484e-08 1.84183e-09 1.02961e-07)
(-4.27134e-08 1.84269e-09 1.1591e-07)
(-4.61113e-08 1.49769e-09 1.33153e-07)
(-4.31581e-08 7.07161e-10 1.5621e-07)
(-1.76417e-09 -2.72552e-09 7.50904e-08)
(-5.50638e-09 -1.86702e-09 7.61079e-08)
(-9.72823e-09 -3.53484e-10 7.82043e-08)
(-1.4626e-08 1.49314e-09 8.15365e-08)
(-2.03465e-08 3.35054e-09 8.63736e-08)
(-2.68752e-08 4.90464e-09 9.3079e-08)
(-3.38978e-08 5.87831e-09 1.0211e-07)
(-4.07523e-08 6.05262e-09 1.14055e-07)
(-4.63194e-08 5.22003e-09 1.29549e-07)
(-4.90439e-08 3.1713e-09 1.49197e-07)
(-1.15697e-09 -5.12649e-09 7.72514e-08)
(-3.67919e-09 -3.66998e-09 7.80906e-08)
(-6.7554e-09 -1.018e-09 7.98631e-08)
(-1.06628e-08 2.32404e-09 8.27359e-08)
(-1.55006e-08 5.74782e-09 8.69646e-08)
(-2.13328e-08 8.71493e-09 9.28658e-08)
(-2.80982e-08 1.0767e-08 1.00806e-07)
(-3.55387e-08 1.15472e-08 1.11103e-07)
(-4.33619e-08 1.07952e-08 1.23959e-07)
(-5.1717e-08 8.30465e-09 1.39271e-07)
(-3.56009e-10 -8.4663e-09 8.06844e-08)
(-1.25789e-09 -6.28183e-09 8.12832e-08)
(-2.68685e-09 -2.28476e-09 8.25932e-08)
(-4.9885e-09 2.86631e-09 8.48181e-08)