/*--------------------------------*- C++ -*----------------------------------*\
| =========                 |                                                 |
| \\      /  F ield         | foam-extend: Open Source CFD                    |
|  \\    /   O peration     | Version:     3.1                                |
|   \\  /    A nd           | Web:         http://www.extend-project.de       |
|    \\/     M anipulation  |                                                 |
\*---------------------------------------------------------------------------*/
FoamFile
{
    version     2.0;
    format      ascii;
    class       surfaceScalarField;
    location    "0.0004";
    object      meshPhi;
}
// * * * * * * * * * * * * * * * * * * * * * * * * * * * * * * * * * * * * * //

dimensions      [0 3 -1 0 0 0 0];

internalField   nonuniform List<scalar> 
45800
(
2.12439e-10
2.13044e-10
3.17092e-11
4.14125e-10
2.12338e-10
3.70356e-11
6.04442e-10
2.09471e-10
4.81732e-11
7.86728e-10
2.06805e-10
6.54797e-11
9.64405e-10
2.05108e-10
8.98507e-11
1.13997e-09
2.04578e-10
1.22729e-10
1.31491e-09
2.05497e-10
1.66125e-10
1.48932e-09
2.08225e-10
2.22601e-10
1.6612e-09
2.13144e-10
2.95158e-10
2.18563e-10
3.87447e-10
1.82722e-09
2.11757e-10
4.14485e-10
3.7024e-11
4.15123e-10
4.15757e-10
4.21099e-11
6.0897e-10
4.13149e-10
5.28882e-11
7.94944e-10
4.09674e-10
6.9722e-11
9.75854e-10
4.07399e-10
9.34729e-11
1.15422e-09
4.07236e-10
1.25522e-10
1.33155e-09
4.09794e-10
1.67776e-10
1.50785e-09
4.1573e-10
2.22605e-10
1.68099e-09
4.25509e-10
2.92656e-10
4.35175e-10
3.805e-10
1.84589e-09
2.09227e-10
6.04379e-10
4.81604e-11
4.12542e-10
6.09164e-10
5.28757e-11
6.08995e-10
6.09544e-10
6.31603e-11
7.98732e-10
6.07748e-10
7.93875e-11
9.83117e-10
6.06357e-10
1.02376e-10
1.16425e-09
6.0747e-10
1.33438e-10
1.3436e-09
6.12321e-10
1.74362e-10
1.52089e-09
6.2172e-10
2.27264e-10
1.69402e-09
6.36207e-10
2.94412e-10
6.49478e-10
3.77575e-10
1.85775e-09
2.06875e-10
7.86583e-10
6.54829e-11
4.09492e-10
7.94849e-10
6.97143e-11
6.07223e-10
7.98905e-10
7.93766e-11
7.99852e-10
8.00369e-10
9.48648e-11
9.87613e-10
8.01259e-10
1.16965e-10
1.17146e-09
8.04102e-10
1.46916e-10
1.35244e-09
8.11215e-10
1.86396e-10
1.53017e-09
8.23921e-10
2.37332e-10
1.70269e-09
8.42684e-10
3.01721e-10
8.58898e-10
3.80583e-10
1.86505e-09
2.05247e-10
9.64322e-10
8.98775e-11
4.07562e-10
9.75766e-10
9.34867e-11
6.06245e-10
9.83072e-10
1.0237e-10
8.00758e-10
9.87814e-10
1.16951e-10
9.91109e-10
9.91681e-10
1.38013e-10
1.1775e-09
9.96712e-10
1.66741e-10
1.3599e-09
1.00555e-09
2.04712e-10
1.53758e-09
1.02057e-09
2.53736e-10
1.70881e-09
1.04269e-09
3.15665e-10
1.06109e-09
3.90713e-10
1.86919e-09
2.04713e-10
1.13995e-09
1.22777e-10
4.07482e-10
1.1542e-09
1.25557e-10
6.0769e-10
1.1642e-09
1.33449e-10
8.04035e-10
1.17146e-09
1.46903e-10
9.96144e-10
1.1778e-09
1.66721e-10
1.18426e-09
1.18506e-09
1.9407e-10
1.36782e-09
1.19524e-09
2.30442e-10
1.54503e-09
1.2111e-09
2.77551e-10
1.7139e-09
1.23458e-09
3.37148e-10
1.25381e-09
4.08624e-10
1.87098e-09
2.05624e-10
1.31497e-09
1.66189e-10
4.10031e-10
1.3316e-09
1.67828e-10
6.12645e-10
1.34361e-09
1.74388e-10
8.11556e-10
1.3524e-09
1.86394e-10
1.00552e-09
1.35986e-09
2.04679e-10
1.19441e-09
1.36808e-09
2.30381e-10
1.37808e-09
1.37886e-09
2.6493e-10
1.55398e-09
1.39418e-09
3.09883e-10
1.71889e-09
1.41616e-09
3.66798e-10
1.43411e-09
4.34435e-10
1.87065e-09
2.08339e-10
1.48946e-09
2.2268e-10
4.15947e-10
1.50796e-09
2.22669e-10
6.22027e-10
1.52095e-09
2.273e-10
8.24331e-10
1.53013e-09
2.3733e-10
1.02097e-09
1.53737e-09
2.53682e-10
1.21077e-09
1.54466e-09
2.77402e-10
1.39332e-09
1.55382e-09
3.09717e-10
1.56582e-09
1.56615e-09
3.51788e-10
1.72444e-09
1.58352e-09
4.04922e-10
1.59773e-09
4.67607e-10
1.86788e-09
2.1324e-10
1.66141e-09
2.95253e-10
4.25688e-10
1.68117e-09
2.92733e-10
6.36449e-10
1.69414e-09
2.94456e-10
8.42969e-10
1.70269e-09
3.01715e-10
1.043e-09
1.70866e-09
3.15594e-10
1.23454e-09
1.71351e-09
3.36963e-10
1.41574e-09
1.71846e-09
3.6656e-10
1.58312e-09
1.72433e-09
4.04791e-10
1.7326e-09
1.7328e-09
4.52272e-10
1.73882e-09
5.06878e-10
1.86211e-09
2.18639e-10
3.87548e-10
1.82745e-09
4.35311e-10
3.80584e-10
1.84609e-09
6.49649e-10
3.77626e-10
1.8579e-09
8.59074e-10
3.80588e-10
1.86511e-09
1.06123e-09
3.90661e-10
1.86914e-09
1.25383e-09
4.08499e-10
1.87082e-09
1.43407e-09
4.34279e-10
1.87044e-09
1.5976e-09
4.67477e-10
1.86769e-09
1.73856e-09
5.06773e-10
1.86199e-09
5.4897e-10
1.8533e-09
1.85333e-09
6.11119e-10
6.12853e-10
1.88251e-11
1.19099e-09
6.10746e-10
2.71514e-11
1.73763e-09
6.02322e-10
4.39587e-11
2.26062e-09
5.94418e-10
6.96378e-11
2.76994e-09
5.8928e-10
1.05275e-10
3.27325e-09
5.8753e-10
1.52624e-10
3.77584e-09
5.90051e-10
2.1407e-10
4.27966e-09
5.98011e-10
2.92519e-10
4.78191e-09
6.12733e-10
3.91122e-10
6.29846e-10
5.13389e-10
5.27748e-09
6.09075e-10
1.19201e-09
2.71352e-11
1.19372e-09
1.19554e-09
3.50913e-11
1.75049e-09
1.18773e-09
5.13405e-11
2.28407e-09
1.17732e-09
7.62854e-11
2.80272e-09
1.17031e-09
1.10967e-10
3.31417e-09
1.16944e-09
1.57058e-10
3.82377e-09
1.17662e-09
2.16813e-10
4.3332e-09
1.19399e-09
2.92896e-10
4.83922e-09
1.22333e-09
3.88029e-10
1.25417e-09
5.044e-10
5.33119e-09
6.01615e-10
1.73744e-09
4.39419e-11
1.18598e-09
1.75103e-09
5.13234e-11
1.75017e-09
1.75174e-09
6.67894e-11
2.29457e-09
1.74607e-09
9.07627e-11
2.82328e-09
1.7415e-09
1.24226e-10
3.34285e-09
1.74424e-09
1.68762e-10
3.8585e-09
1.75808e-09
2.26469e-10
4.37113e-09
1.78574e-09
2.99694e-10
4.87739e-09
1.8294e-09
3.90697e-10
1.87225e-09
5.0072e-10
5.36583e-09
5.94617e-10
2.26019e-09
6.96462e-11
1.17679e-09
2.28378e-09
7.62769e-11
1.74455e-09
2.29504e-09
9.07482e-11
2.29728e-09
2.29875e-09
1.13519e-10
2.83582e-09
2.30079e-09
1.4553e-10
3.36345e-09
2.30862e-09
1.88259e-10
3.88419e-09
2.32923e-09
2.43665e-10
4.39864e-09
2.36696e-09
3.13853e-10
4.90374e-09
2.42397e-09
4.0076e-10
2.47714e-09
5.04738e-10
5.38858e-09
5.89683e-10
2.76969e-09
1.05319e-10
1.17078e-09
2.80245e-09
1.10991e-10
1.74117e-09
2.82313e-09
1.24221e-10
2.29935e-09
2.83637e-09
1.4551e-10
2.84556e-09
2.84718e-09
1.75797e-10
3.38088e-09
2.86166e-09
2.16487e-10
3.90632e-09
2.88776e-09
2.69399e-10
4.42147e-09
2.93302e-09
3.36489e-10
4.92397e-09
3.0011e-09
4.19522e-10
3.06279e-09
5.1788e-10
5.40403e-09
5.87918e-10
3.27319e-09
1.527e-10
1.17015e-09
3.31409e-09
1.57115e-10
1.74487e-09
3.34271e-09
1.68782e-10
2.30842e-09
3.36344e-09
1.88243e-10
2.86002e-09
3.38173e-09
2.16459e-10
3.40095e-09
3.4032e-09
2.54813e-10
3.93058e-09
3.4341e-09
3.05001e-10
4.44558e-09
3.48303e-09
3.6885e-10
4.94286e-09
3.55685e-09
4.48e-10
3.62361e-09
5.40839e-10
5.41504e-09
5.90415e-10
3.77599e-09
2.1417e-10
1.1773e-09
3.82389e-09
2.16893e-10
1.75901e-09
3.85851e-09
2.26512e-10
2.3302e-09
3.88406e-09
2.43666e-10
2.88766e-09
3.90618e-09
2.69355e-10
3.43168e-09
3.93127e-09
3.04919e-10
3.96293e-09
3.96512e-09
3.51972e-10
4.47577e-09
4.01421e-09
4.12127e-10
4.96372e-09
4.08605e-09
4.86768e-10
4.15209e-09
5.73543e-10
5.42279e-09
5.98339e-10
4.28004e-09
2.92639e-10
1.19461e-09
4.33352e-09
2.92993e-10
1.78662e-09
4.37128e-09
2.99749e-10
2.36814e-09
4.3985e-09
3.13854e-10
2.93415e-09
4.42086e-09
3.36418e-10
3.48201e-09
4.44449e-09
3.68651e-10
4.0117e-09
4.47524e-09
4.11904e-10
4.51683e-09
4.51774e-09
4.67286e-10
4.98911e-09
4.57882e-09
5.3586e-10
4.637e-09
6.15014e-10
5.42673e-09
6.13009e-10
4.78249e-09
3.91261e-10
1.22384e-09
4.83972e-09
3.88141e-10
1.8301e-09
4.8777e-09
3.90762e-10
2.42479e-09
4.90372e-09
4.00757e-10
3.002e-09
4.9235e-09
4.1943e-10
3.55672e-09
4.94174e-09
4.47754e-10
4.08479e-09
4.96247e-09
4.86449e-10
4.57763e-09
4.98874e-09
5.35685e-10
5.02587e-09
5.02641e-09
5.95717e-10
5.06218e-09
6.63327e-10
5.42483e-09
6.30063e-10
5.13533e-10
5.27812e-09
1.25456e-09
5.04519e-10
5.33176e-09
1.87273e-09
5.00793e-10
5.36623e-09
2.47765e-09
5.04748e-10
5.38872e-09
3.06319e-09
5.17812e-10
5.40386e-09
3.62365e-09
5.40672e-10
5.41457e-09
4.15195e-09
5.73335e-10
5.42217e-09
4.63658e-09
6.14843e-10
5.42615e-09
5.06138e-09
6.63194e-10
5.42442e-09
7.14133e-10
5.41611e-09
5.41617e-09
9.34768e-10
9.37405e-10
-5.98286e-11
1.82055e-09
9.3384e-10
-5.1611e-11
2.65346e-09
9.20266e-10
-3.64699e-11
3.44761e-09
9.07219e-10
-1.42976e-11
4.21816e-09
8.98201e-10
1.5457e-11
4.97733e-09
8.94244e-10
5.37077e-11
5.73458e-09
8.96822e-10
1.01616e-10
6.49569e-09
9.07932e-10
1.60403e-10
7.26113e-09
9.29952e-10
2.31025e-10
9.56988e-10
3.14113e-10
8.03047e-09
9.31292e-10
1.82209e-09
-5.1623e-11
1.8241e-09
1.82685e-09
-4.37425e-11
2.67225e-09
1.81365e-09
-2.91145e-11
3.48243e-09
1.79594e-09
-7.61191e-12
4.26718e-09
1.78304e-09
2.12855e-11
5.0388e-09
1.7793e-09
5.84376e-11
5.8069e-09
1.78788e-09
1.04927e-10
6.57679e-09
1.8125e-09
1.61835e-10
7.34818e-09
1.85656e-09
2.29885e-10
1.90558e-09
3.08955e-10
8.11172e-09
9.19184e-10
2.65313e-09
-3.64817e-11
1.81098e-09
2.67305e-09
-2.91268e-11
2.67007e-09
2.67244e-09
-1.52397e-11
3.49651e-09
2.66137e-09
5.3344e-12
4.29656e-09
2.65144e-09
3.30778e-11
5.08075e-09
2.65238e-09
6.87906e-11
5.85846e-09
2.67037e-09
1.13459e-10
6.63382e-09
2.71019e-09
1.67977e-10
7.40618e-09
2.77622e-09
2.32821e-10
2.8449e-09
3.07379e-10
8.16444e-09
9.07524e-10
3.44689e-09
-1.42882e-11
1.79513e-09
3.48194e-09
-7.61657e-12
2.65906e-09
3.4972e-09
5.3241e-12
3.4979e-09
3.50011e-09
2.47262e-11
4.31291e-09
3.4999e-09
5.10474e-11
5.1097e-09
3.50822e-09
8.50191e-11
5.89585e-09
3.53625e-09
1.2754e-10
6.67499e-09
3.5915e-09
1.79364e-10
7.4468e-09
3.67861e-09
2.40807e-10
3.76497e-09
3.1079e-10
8.2005e-09
8.98819e-10
4.21771e-09
1.54971e-11
1.78375e-09
4.26671e-09
2.1308e-11
2.65093e-09
4.29628e-09
3.30756e-11
3.49771e-09
4.31371e-09
5.10332e-11
4.32446e-09
4.32689e-09
7.56418e-11
5.13346e-09
4.34551e-09
1.07586e-10
5.92775e-09
4.38231e-09
1.47674e-10
6.70946e-09
4.44981e-09
1.96577e-10
7.4793e-09
4.55534e-09
2.54537e-10
4.65744e-09
3.19946e-10
8.22763e-09
8.94838e-10
4.97717e-09
5.37743e-11
1.78039e-09
5.03862e-09
5.8487e-11
2.65334e-09
5.08048e-09
6.88086e-11
3.50789e-09
5.10963e-09
8.50078e-11
4.34302e-09
5.13468e-09
1.07565e-10
5.16134e-09
5.16472e-09
1.37151e-10
5.9634e-09
5.20997e-09
1.74496e-10
6.74698e-09
5.28474e-09
2.20197e-10
7.5117e-09
5.40154e-09
2.7444e-10
5.51508e-09
3.35073e-10
8.25105e-09
8.97379e-10
5.73474e-09
1.01702e-10
1.78893e-09
5.80701e-09
1.04995e-10
2.67179e-09
5.85843e-09
1.13496e-10
3.53773e-09
5.89561e-09
1.27543e-10
4.38213e-09
5.92749e-09
1.47643e-10
5.20627e-09
5.96438e-09
1.7444e-10
6.01279e-09
6.01607e-09
2.08614e-10
6.79583e-09
6.09374e-09
2.50637e-10
7.55001e-09
6.21106e-09
3.00551e-10
6.32807e-09
3.55832e-10
8.27337e-09
9.08433e-10
6.49619e-09
1.60503e-10
1.81345e-09
6.5772e-09
1.61916e-10
2.71154e-09
6.63399e-09
1.68024e-10
3.59329e-09
6.67473e-09
1.79369e-10
4.45151e-09
6.70852e-09
1.96528e-10
5.28314e-09
6.74528e-09
2.20061e-10
6.08989e-09
6.79496e-09
2.50486e-10
6.86468e-09
6.86604e-09
2.87978e-10
7.59928e-09
6.97121e-09
3.32417e-10
7.08111e-09
3.81243e-10
8.29452e-09
9.30373e-10
7.26192e-09
2.31138e-10
1.85734e-09
7.34887e-09
2.29977e-10
2.77728e-09
7.40659e-09
2.32876e-10
3.67987e-09
7.44674e-09
2.40809e-10
4.55672e-09
7.47856e-09
2.54474e-10
5.40134e-09
7.51e-09
2.74272e-10
6.20911e-09
7.54809e-09
3.00334e-10
6.96937e-09
7.59868e-09
3.32299e-10
7.6716e-09
7.6724e-09
3.69666e-10
7.75097e-09
4.09724e-10
8.31119e-09
9.57317e-10
3.14227e-10
8.03135e-09
1.90617e-09
3.09049e-10
8.11251e-09
2.84564e-09
3.07438e-10
8.16498e-09
3.76574e-09
3.10801e-10
8.20067e-09
4.65805e-09
3.199e-10
8.22736e-09
5.51515e-09
3.34959e-10
8.25033e-09
6.32786e-09
3.5569e-10
8.27243e-09
7.08041e-09
3.81132e-10
8.29361e-09
7.7497e-09
4.09644e-10
8.31048e-09
4.3832e-10
8.32079e-09
8.32082e-09
1.14841e-09
1.15162e-09
-1.9287e-10
2.23398e-09
1.14644e-09
-1.86848e-10
3.24975e-09
1.12819e-09
-1.78379e-10
4.21133e-09
1.1099e-09
-1.67668e-10
5.13604e-09
1.09591e-09
-1.54888e-10
6.03798e-09
1.0875e-09
-1.40273e-10
6.92847e-09
1.0865e-09
-1.24239e-10
7.81521e-09
1.09539e-09
-1.07533e-10
8.70069e-09
1.11714e-09
-9.14045e-11
1.14502e-09
-7.77164e-11
9.58757e-09
1.14332e-09
2.23582e-09
-1.86848e-10
2.2368e-09
2.24014e-09
-1.80992e-10
3.27066e-09
2.22094e-09
-1.72774e-10
4.25139e-09
2.19488e-09
-1.62377e-10
5.19307e-09
2.17344e-09
-1.49983e-10
6.10993e-09
2.16201e-09
-1.3583e-10
7.01347e-09
2.16446e-09
-1.20334e-10
7.91086e-09
2.18544e-09
-1.04228e-10
8.80374e-09
2.22932e-09
-8.87293e-11
2.27945e-09
-7.56448e-11
9.68438e-09
1.12687e-09
3.24926e-09
-1.78377e-10
2.2177e-09
3.27157e-09
-1.72773e-10
3.26383e-09
3.26667e-09
-1.64934e-10
4.26361e-09
3.24705e-09
-1.55016e-10
5.22343e-09
3.22699e-09
-1.43198e-10
6.15539e-09
3.21844e-09
-1.29731e-10
7.07073e-09
3.22903e-09
-1.15027e-10
7.97524e-09
3.26473e-09
-9.98121e-11
8.87012e-09
3.33124e-09
-8.52548e-11
3.40146e-09
-7.30625e-11
9.74568e-09
1.11028e-09
4.21035e-09
-1.67658e-10
2.1939e-09
4.2507e-09
-1.62372e-10
3.24426e-09
4.26437e-09
-1.55015e-10
4.25795e-09
4.26059e-09
-1.45718e-10
5.23527e-09
4.25071e-09
-1.34655e-10
6.1823e-09
4.24902e-09
-1.22078e-10
7.10815e-09
4.26923e-09
-1.08403e-10
8.01801e-09
4.3207e-09
-9.43399e-11
8.91344e-09
4.40958e-09
-8.10055e-11
4.49838e-09
-7.00182e-11
9.78528e-09
1.09667e-09
5.13536e-09
-1.54865e-10
2.17433e-09
5.19239e-09
-1.49967e-10
3.22639e-09
5.22301e-09
-1.43193e-10
4.24808e-09
5.23617e-09
-1.34656e-10
5.23867e-09
5.24157e-09
-1.2452e-10
6.20017e-09
5.25106e-09
-1.13035e-10
7.13619e-09
5.28023e-09
-1.00613e-10
8.05012e-09
5.34458e-09
-8.79497e-11
8.94471e-09
5.45361e-09
-7.61129e-11
5.55968e-09
-6.66508e-11
9.81232e-09
1.08823e-09
6.03764e-09
-1.40238e-10
2.16334e-09
6.10959e-09
-1.35804e-10
3.21963e-09
6.15496e-09
-1.29719e-10
4.24865e-09
6.18215e-09
-1.22078e-10
5.24807e-09
6.2016e-09
-1.13037e-10
6.22038e-09
6.22441e-09
-1.02842e-10
7.16613e-09
6.26317e-09
-9.18994e-11
8.08343e-09
6.33548e-09
-8.08846e-11
8.97372e-09
6.45721e-09
-7.08263e-11
6.57659e-09
-6.32074e-11
9.83324e-09
1.08719e-09
6.92852e-09
-1.24198e-10
2.16574e-09
7.01347e-09
-1.20301e-10
3.23077e-09
7.07058e-09
-1.15009e-10
4.27103e-09
7.10779e-09
-1.08398e-10
5.28003e-09
7.13585e-09
-1.00616e-10
6.25874e-09
7.16729e-09
-9.19047e-11
7.21024e-09
7.21418e-09
-8.26658e-11
8.12826e-09
7.29042e-09
-7.35498e-11
9.0082e-09
7.41335e-09
-6.55507e-11
7.53777e-09
-6.00575e-11
9.85175e-09
1.096e-09
7.81566e-09
-1.07489e-10
2.18661e-09
7.91122e-09
-1.04193e-10
3.26638e-09
7.97533e-09
-9.97909e-11
4.3229e-09
8.01763e-09
-9.43338e-11
5.34667e-09
8.04897e-09
-8.79566e-11
6.33361e-09
8.08143e-09
-8.09017e-11
7.28583e-09
8.12729e-09
-7.35665e-11
8.19569e-09
8.19737e-09
-6.65811e-11
9.05504e-09
8.3078e-09
-6.08743e-11
8.42594e-09
-5.76748e-11
9.86861e-09
1.11766e-09
8.7015e-09
-9.13619e-11
2.23028e-09
8.80443e-09
-8.86945e-11
3.33254e-09
8.87051e-09
-8.52329e-11
4.41113e-09
8.9133e-09
-8.09992e-11
5.45533e-09
8.94381e-09
-7.61222e-11
6.45708e-09
8.97172e-09
-7.08511e-11
7.41107e-09
9.00597e-09
-6.55787e-11
8.30559e-09
9.05436e-09
-6.08866e-11
9.12961e-09
9.13057e-09
-5.75615e-11
9.21481e-09
-5.65638e-11
9.88094e-09
1.14542e-09
-7.76793e-11
9.58851e-09
2.28017e-09
-7.56138e-11
9.68521e-09
3.40238e-09
-7.30421e-11
9.74624e-09
4.49934e-09
-7.00107e-11
9.78543e-09
5.56047e-09
-6.66563e-11
9.81197e-09
6.57675e-09
-6.32247e-11
9.83239e-09
7.53759e-09
-6.00779e-11
9.85066e-09
8.42513e-09
-5.76844e-11
9.86756e-09
9.2133e-09
-5.65626e-11
9.88012e-09
-5.71429e-11
9.88655e-09
9.8866e-09
1.23914e-09
1.24258e-09
-3.45644e-10
2.40611e-09
1.23564e-09
-3.42063e-10
3.48963e-09
1.21335e-09
-3.40958e-10
4.50332e-09
1.18983e-09
-3.42615e-10
5.46288e-09
1.16974e-09
-3.47585e-10
6.38062e-09
1.15437e-09
-3.56735e-10
7.26589e-09
1.14551e-09
-3.71297e-10
8.12424e-09
1.14557e-09
-3.92881e-10
8.95602e-09
1.15741e-09
-4.23412e-10
1.17382e-09
-4.65164e-10
9.7614e-09
1.23232e-09
2.40803e-09
-3.4205e-10
2.40658e-09
2.41013e-09
-3.38404e-10
3.50851e-09
2.38444e-09
-3.3719e-10
4.54184e-09
2.34903e-09
-3.3868e-10
5.51875e-09
2.31623e-09
-3.43413e-10
6.45171e-09
2.29161e-09
-3.52232e-10
7.35024e-09
2.27902e-09
-3.66313e-10
8.2195e-09
2.28298e-09
-3.87153e-10
9.05917e-09
2.30763e-09
-4.16474e-10
2.33554e-09
-4.55967e-10
9.86029e-09
1.21195e-09
3.489e-09
-3.40941e-10
2.381e-09
3.5094e-09
-3.37176e-10
3.4941e-09
3.49709e-09
-3.35814e-10
4.54624e-09
3.46555e-09
-3.3711e-10
5.54134e-09
3.43009e-09
-3.41582e-10
6.48957e-09
3.4032e-09
-3.50042e-10
7.40025e-09
3.39255e-09
-3.63603e-10
8.27727e-09
3.40394e-09
-3.83617e-10
9.12015e-09
3.44277e-09
-4.11584e-10
3.48106e-09
-4.48752e-10
9.9189e-09
1.19025e-09
4.50211e-09
-3.42605e-10
2.34802e-09
4.54096e-09
-3.38665e-10
3.46263e-09
4.54696e-09
-3.37098e-10
4.52722e-09
4.52997e-09
-3.38166e-10
5.53921e-09
4.502e-09
-3.4236e-10
6.50234e-09
4.47796e-09
-3.50447e-10
7.42372e-09
4.47182e-09
-3.63484e-10
8.30669e-09
4.49274e-09
-3.82713e-10
9.1513e-09
4.54651e-09
-4.09464e-10
4.59488e-09
-4.44575e-10
9.9491e-09
1.17056e-09
5.46195e-09
-3.47582e-10
2.3172e-09
5.51785e-09
-3.43408e-10
3.4295e-09
5.54077e-09
-3.41571e-10
4.49927e-09
5.54009e-09
-3.42347e-10
5.52286e-09
5.52586e-09
-3.46227e-10
6.49967e-09
5.51024e-09
-3.5394e-10
7.43101e-09
5.50903e-09
-3.66474e-10
8.31832e-09
5.5377e-09
-3.85e-10
9.16283e-09
5.60528e-09
-4.10747e-10
5.66373e-09
-4.44119e-10
9.95893e-09
1.15515e-09
6.38004e-09
-3.56739e-10
2.29305e-09
6.45114e-09
-3.52236e-10
3.4045e-09
6.48896e-09
-3.50041e-10
4.47762e-09
6.50208e-09
-3.50437e-10
5.50716e-09
6.50112e-09
-3.53926e-10
6.49301e-09
6.49719e-09
-3.6123e-10
7.43324e-09
6.50277e-09
-3.73271e-10
8.32369e-09
6.53537e-09
-3.91141e-10
9.16421e-09
6.61049e-09
-4.15996e-10
6.67654e-09
-4.47797e-10
9.95439e-09
1.14624e-09
7.2657e-09
-3.71309e-10
2.28039e-09
7.35004e-09
-3.66324e-10
3.39442e-09
7.39993e-09
-3.6361e-10
4.47376e-09
7.42324e-09
-3.63482e-10
5.5089e-09
7.43063e-09
-3.66455e-10
6.49826e-09
7.43452e-09
-3.73234e-10
7.44248e-09
7.44663e-09
-3.84702e-10
8.33299e-09
7.48058e-09
-4.01834e-10
9.16332e-09
7.55333e-09
-4.2564e-10
7.62051e-09
-4.55741e-10
9.93946e-09
1.14623e-09
8.12447e-09
-3.92905e-10
2.28423e-09
8.21966e-09
-3.87174e-10
3.40572e-09
8.27721e-09
-3.8363e-10
4.49512e-09
8.30622e-09
-3.82713e-10
5.53999e-09
8.31714e-09
-3.84975e-10
6.53365e-09
8.3218e-09
-3.91062e-10
7.47594e-09
8.33225e-09
-4.01742e-10
8.35734e-09
8.35919e-09
-4.17762e-10
9.16761e-09
8.4183e-09
-4.39944e-10
8.478e-09
-4.6773e-10
9.91607e-09
1.15797e-09
8.95663e-09
-4.23449e-10
2.30866e-09
9.05969e-09
-4.16506e-10
3.44418e-09
9.1204e-09
-4.11603e-10
4.54822e-09
9.15108e-09
-4.09463e-10
5.60721e-09
9.16193e-09
-4.10717e-10
6.61061e-09
9.1623e-09
-4.15904e-10
7.55119e-09
9.16123e-09
-4.25514e-10
8.41609e-09
9.16705e-09
-4.39871e-10
9.19278e-09
9.19381e-09
-4.59393e-10
9.22395e-09
-4.83158e-10
9.88417e-09
1.17424e-09
-4.65211e-10
9.76217e-09
2.33632e-09
-4.56007e-10
9.86098e-09
3.48207e-09
-4.48778e-10
9.91934e-09
4.59597e-09
-4.4458e-10
9.94918e-09
5.66469e-09
-4.44097e-10
9.95856e-09
6.6769e-09
-4.47737e-10
9.95358e-09
7.62046e-09
-4.55662e-10
9.93843e-09
8.47729e-09
-4.6766e-10
9.91513e-09
9.22252e-09
-4.831e-10
9.88351e-09
-5.00391e-10
9.8453e-09
9.84544e-09
1.21818e-09
1.22152e-09
-4.79054e-10
2.35975e-09
1.21297e-09
-4.76724e-10
3.40873e-09
1.1877e-09
-4.80196e-10
4.37421e-09
1.15967e-09
-4.89559e-10
5.26758e-09
1.13342e-09
-5.05235e-10
6.09694e-09
1.11006e-09
-5.27975e-10
6.86732e-09
1.09111e-09
-5.58805e-10
7.58006e-09
1.07855e-09
-5.98911e-10
8.23179e-09
1.07465e-09
-6.49395e-10
1.07227e-09
-7.1125e-10
8.8186e-09
1.20974e-09
2.36156e-09
-4.76703e-10
2.35688e-09
2.36029e-09
-4.74112e-10
3.4225e-09
2.32861e-09
-4.77162e-10
4.40593e-09
2.28434e-09
-4.85942e-10
5.3151e-09
2.2395e-09
-5.00868e-10
6.15822e-09
2.19922e-09
-5.2266e-10
6.94054e-09
2.16676e-09
-5.52281e-10
7.66318e-09
2.14588e-09
-5.90792e-10
8.32258e-09
2.13975e-09
-6.39081e-10
2.13175e-09
-6.97463e-10
8.90857e-09
1.18636e-09
3.40797e-09
-4.80169e-10
2.3253e-09
3.42326e-09
-4.77139e-10
3.39919e-09
3.40202e-09
-4.79559e-10
4.39882e-09
3.35755e-09
-4.87528e-10
5.32403e-09
3.30465e-09
-5.01437e-10
6.18077e-09
3.25506e-09
-5.21979e-10
6.97419e-09
3.21548e-09
-5.50046e-10
7.70453e-09
3.19063e-09
-5.86533e-10
8.36843e-09
3.18468e-09
-6.32104e-10
3.17157e-09
-6.86625e-10
8.95627e-09
1.16011e-09
4.37282e-09
-4.89549e-10
2.28341e-09
4.40491e-09
-4.85921e-10
3.35479e-09
4.39939e-09
-4.87509e-10
4.36328e-09
4.36584e-09
-4.94451e-10
5.30242e-09
4.31571e-09
-5.07119e-10
6.17196e-09
4.26289e-09
-5.26154e-10
6.97495e-09
4.2199e-09
-5.52394e-10
7.71129e-09
4.19441e-09
-5.86621e-10
8.37831e-09
4.19074e-09
-6.29346e-10
4.17395e-09
-6.80023e-10
8.96931e-09
1.13423e-09
5.26642e-09
-5.05248e-10
2.24048e-09
5.31399e-09
-5.00871e-10
3.30416e-09
5.3233e-09
-5.01425e-10
4.31318e-09
5.30317e-09
-5.07101e-10
5.26007e-09
5.26286e-09
-5.18291e-10
6.1404e-09
5.21339e-09
-5.35602e-10
6.95173e-09
5.16887e-09
-5.59799e-10
7.69208e-09
5.14266e-09
-5.91606e-10
8.35997e-09
5.14181e-09
-6.3147e-10
5.12324e-09
-6.78385e-10
8.95306e-09
1.11083e-09
6.09608e-09
-5.28009e-10
2.20064e-09
6.15742e-09
-5.22687e-10
3.25637e-09
6.17998e-09
-5.21988e-10
4.26265e-09
6.17159e-09
-5.26142e-10
5.21058e-09
6.14173e-09
-5.35583e-10
6.09616e-09
6.10007e-09
-5.50924e-10
6.91391e-09
6.05731e-09
-5.72865e-10
7.65651e-09
6.02854e-09
-6.02064e-10
8.32115e-09
6.02666e-09
-6.38927e-10
6.00625e-09
-6.81986e-10
8.91211e-09
1.09183e-09
6.86682e-09
-5.58859e-10
2.16811e-09
6.94006e-09
-5.52327e-10
3.21732e-09
6.97367e-09
-5.50075e-10
4.22182e-09
6.97436e-09
-5.52401e-10
5.16888e-09
6.95134e-09
-5.59776e-10
6.05324e-09
6.91522e-09
-5.72814e-10
6.87172e-09
6.87566e-09
-5.92189e-10
7.61318e-09
6.8441e-09
-6.18443e-10
8.26891e-09
6.83477e-09
-6.51851e-10
6.80954e-09
-6.9063e-10
8.85032e-09
1.07919e-09
7.57996e-09
-5.98985e-10
2.1471e-09
7.66306e-09
-5.90855e-10
3.19239e-09
7.70426e-09
-5.86576e-10
4.19675e-09
7.71074e-09
-5.86634e-10
5.14496e-09
7.691e-09
-5.91575e-10
6.02727e-09
7.655e-09
-6.0195e-10
6.83999e-09
7.61287e-09
-6.18311e-10
7.57185e-09
7.57372e-09
-6.40954e-10
8.2106e-09
7.55057e-09
-6.69993e-10
7.51703e-09
-7.03593e-10
8.77111e-09
1.07518e-09
8.23206e-09
-6.49489e-10
2.14076e-09
8.3228e-09
-6.39161e-10
3.18609e-09
8.36847e-09
-6.32157e-10
4.19247e-09
8.37801e-09
-6.2936e-10
5.1438e-09
8.35916e-09
-6.3143e-10
6.02714e-09
8.31959e-09
-6.38793e-10
6.83311e-09
8.26729e-09
-6.51666e-10
7.54863e-09
8.2103e-09
-6.6989e-10
8.16044e-09
8.16144e-09
-6.93225e-10
8.10848e-09
-7.19659e-10
8.67853e-09
1.07268e-09
-7.11355e-10
8.81907e-09
2.13252e-09
-6.97553e-10
8.90899e-09
3.17258e-09
-6.86688e-10
8.95651e-09
4.17508e-09
-6.80047e-10
8.96929e-09
5.1243e-09
-6.78359e-10
8.95271e-09
6.00684e-09
-6.81898e-10
8.91144e-09
6.8097e-09
-6.90513e-10
8.84951e-09
7.51657e-09
-7.03497e-10
8.77043e-09
8.10734e-09
-7.19588e-10
8.67818e-09
-7.36435e-10
8.57941e-09
8.57968e-09
1.11477e-09
1.11778e-09
-5.65778e-10
2.15341e-09
1.10811e-09
-5.63113e-10
3.09614e-09
1.08143e-09
-5.67216e-10
3.94688e-09
1.05061e-09
-5.77855e-10
4.71208e-09
1.01977e-09
-5.95024e-10
5.39551e-09
9.89865e-10
-6.18907e-10
5.99833e-09
9.62062e-10
-6.49762e-10
6.51885e-09
9.37885e-10
-6.87755e-10
6.95216e-09
9.19023e-10
-7.32689e-10
8.99129e-10
-7.83973e-10
7.29334e-09
1.1052e-09
2.15497e-09
-5.63088e-10
2.14724e-09
2.15027e-09
-5.60061e-10
3.10367e-09
2.11447e-09
-5.63577e-10
3.96944e-09
2.06402e-09
-5.73418e-10
4.74785e-09
2.00984e-09
-5.89592e-10
5.44273e-09
1.95638e-09
-6.12267e-10
6.05546e-09
1.90623e-09
-6.41668e-10
6.58434e-09
1.86229e-09
-6.77885e-10
7.02467e-09
1.82689e-09
-7.2059e-10
1.78572e-09
-7.6872e-10
7.36831e-09
1.08025e-09
3.09529e-09
-5.67185e-10
2.11154e-09
3.10423e-09
-5.6355e-10
3.07271e-09
3.07517e-09
-5.66162e-10
3.95096e-09
3.02037e-09
-5.74841e-10
4.74225e-09
2.95324e-09
-5.89589e-10
5.44833e-09
2.88407e-09
-6.10572e-10
6.07061e-09
2.81834e-09
-6.37985e-10
6.60687e-09
2.75967e-09
-6.71812e-10
7.05292e-09
2.71115e-09
-7.11603e-10
2.65084e-09
-7.56038e-10
7.40241e-09
1.05103e-09
3.94539e-09
-5.77842e-10
2.06324e-09
3.96832e-09
-5.73394e-10
3.01799e-09
3.95135e-09
-5.7482e-10
3.90093e-09
3.90312e-09
-5.82008e-10
4.70239e-09
3.8339e-09
-5.94969e-10
5.41856e-09
3.7558e-09
-6.1385e-10
6.049e-09
3.67929e-09
-6.38828e-10
6.59135e-09
3.61039e-09
-6.6984e-10
7.04217e-09
3.55221e-09
-7.06375e-10
3.47605e-09
-7.46884e-10
7.39891e-09
1.02053e-09
4.71074e-09
-5.9504e-10
2.01077e-09
4.7466e-09
-5.89596e-10
2.95289e-09
4.74142e-09
-5.89576e-10
3.83176e-09
4.70294e-09
-5.94951e-10
4.63681e-09
4.63919e-09
-6.05782e-10
5.36053e-09
4.55948e-09
-6.22212e-10
5.99765e-09
4.47559e-09
-6.44392e-10
6.54411e-09
4.39831e-09
-6.72254e-10
6.99749e-09
4.33292e-09
-7.05303e-10
4.2448e-09
-7.41716e-10
7.36056e-09
9.90572e-10
5.39442e-09
-6.18949e-10
1.95768e-09
5.44172e-09
-6.123e-10
2.88532e-09
5.44741e-09
-6.10585e-10
3.7557e-09
5.41809e-09
-6.1384e-10
4.55713e-09
5.36163e-09
-6.22195e-10
5.28249e-09
5.28584e-09
-6.35834e-10
5.92386e-09
5.1993e-09
-6.54885e-10
6.47247e-09
5.1142e-09
-6.79273e-10
6.9247e-09
5.0407e-09
-7.08532e-10
4.94328e-09
-7.40569e-10
7.29059e-09
9.62717e-10
5.99755e-09
-6.49828e-10
1.90746e-09
6.05473e-09
-6.41724e-10
2.82004e-09
6.06992e-09
-6.38021e-10
3.68108e-09
6.04833e-09
-6.38841e-10
4.47575e-09
5.99728e-09
-6.44375e-10
5.19596e-09
5.92511e-09
-6.54842e-10
5.83574e-09
5.8392e-09
-6.7039e-10
6.38328e-09
5.74861e-09
-6.90901e-10
6.82993e-09
5.66476e-09
-7.15861e-10
5.5589e-09
-7.43041e-10
7.19272e-09
9.38471e-10
6.51842e-09
-6.87844e-10
1.86342e-09
6.58393e-09
-6.77962e-10
2.76129e-09
6.6064e-09
-6.71865e-10
3.61254e-09
6.59075e-09
-6.69862e-10
4.40047e-09
6.54319e-09
-6.72232e-10
5.11346e-09
6.47144e-09
-6.79177e-10
5.7453e-09
6.38341e-09
-6.90788e-10
6.28483e-09
6.28658e-09
-7.06811e-10
6.72027e-09
6.19133e-09
-7.26681e-10
6.07883e-09
-7.48272e-10
7.07175e-09
9.19512e-10
6.95206e-09
-7.32799e-10
1.82783e-09
7.02456e-09
-7.20686e-10
2.71246e-09
7.05273e-09
-7.1167e-10
3.55384e-09
7.0418e-09
-7.06401e-10
4.33484e-09
6.99682e-09
-7.05276e-10
5.0415e-09
6.9236e-09
-7.08418e-10
5.66366e-09
6.82887e-09
-7.15701e-10
6.18979e-09
6.72022e-09
-7.26593e-10
6.6081e-09
6.60898e-09
-7.40394e-10
6.48924e-09
-7.55045e-10
6.93525e-09
8.99501e-10
-7.84093e-10
7.29346e-09
1.78642e-09
-7.68825e-10
7.36842e-09
2.65179e-09
-7.56114e-10
7.40243e-09
3.47714e-09
-7.46919e-10
7.39878e-09
4.24589e-09
-7.41702e-10
7.36026e-09
4.94404e-09
-7.40497e-10
7.2901e-09
5.55926e-09
-7.4294e-10
7.19216e-09
6.07862e-09
-7.48192e-10
7.07135e-09
6.48844e-09
-7.54992e-10
6.9352e-09
-7.61354e-10
6.7941e-09
6.79446e-09
9.65148e-10
9.67706e-10
-5.96912e-10
1.85898e-09
9.57673e-10
-5.92824e-10
2.6598e-09
9.31392e-10
-5.94535e-10
3.36735e-09
9.00119e-10
-6.01558e-10
3.98427e-09
8.67479e-10
-6.1348e-10
4.51149e-09
8.34284e-10
-6.29916e-10
4.94839e-09
8.01501e-10
-6.50407e-10
5.29291e-09
7.7035e-10
-6.74279e-10
5.54173e-09
7.42165e-10
-7.00469e-10
7.11856e-10
-7.27531e-10
5.69269e-09
9.55204e-10
1.86023e-09
-5.92801e-10
1.85046e-09
1.85299e-09
-5.88356e-10
2.6618e-09
1.81593e-09
-5.8948e-10
3.38122e-09
1.76348e-09
-5.95718e-10
4.00858e-09
1.70516e-09
-6.06683e-10
4.54488e-09
1.64476e-09
-6.22002e-10
4.98968e-09
1.5844e-09
-6.41217e-10
5.34104e-09
1.52646e-09
-6.6364e-10
5.59606e-09
1.47281e-09
-6.88176e-10
1.41227e-09
-7.1318e-10
5.75151e-09
9.30411e-10
2.65892e-09
-5.94504e-10
1.81348e-09
2.66217e-09
-5.89455e-10
2.6265e-09
2.62851e-09
-5.8966e-10
3.35479e-09
2.56874e-09
-5.94716e-10
3.99193e-09
2.49452e-09
-6.04258e-10
4.53714e-09
2.4146e-09
-6.17942e-10
4.99003e-09
2.33348e-09
-6.35324e-10
5.34841e-09
2.25412e-09
-6.55697e-10
5.60998e-09
2.17912e-09
-6.77953e-10
2.09166e-09
-7.00394e-10
5.77375e-09
9.0051e-10
3.36586e-09
-6.01543e-10
1.76288e-09
3.38008e-09
-5.95695e-10
2.5668e-09
3.35499e-09
-5.94696e-10
3.29638e-09
3.29813e-09
-5.98229e-10
3.94042e-09
3.2184e-09
-6.05966e-10
4.49341e-09
3.12606e-09
-6.1758e-10
4.95341e-09
3.02974e-09
-6.32664e-10
5.31818e-09
2.93432e-09
-6.50528e-10
5.58602e-09
2.84249e-09
-6.70095e-10
2.73274e-09
-6.89635e-10
5.75984e-09
8.68143e-10
3.98286e-09
-6.13489e-10
1.706e-09
4.00728e-09
-6.06684e-10
2.49432e-09
3.99106e-09
-6.04246e-10
3.21671e-09
3.94078e-09
-6.05951e-10
3.86131e-09
3.86321e-09
-6.11545e-10
4.41947e-09
3.76612e-09
-6.20737e-10
4.88522e-09
3.65921e-09
-6.33144e-10
5.2548e-09
3.55124e-09
-6.48131e-10
5.52729e-09
3.44661e-09
-6.64696e-10
3.31995e-09
-6.81049e-10
5.71083e-09
8.349e-10
4.51027e-09
-6.2995e-10
1.6459e-09
4.54375e-09
-6.22028e-10
2.41572e-09
4.53615e-09
-6.17952e-10
3.12609e-09
4.49287e-09
-6.17575e-10
3.76429e-09
4.42031e-09
-6.20726e-10
4.32202e-09
4.32472e-09
-6.27188e-10
4.79113e-09
4.21303e-09
-6.36607e-10
5.16385e-09
4.09514e-09
-6.48397e-10
5.43817e-09
3.9794e-09
-6.6164e-10
3.84061e-09
-6.74497e-10
5.62904e-09
8.0207e-10
4.94741e-09
-6.50462e-10
1.58548e-09
4.98878e-09
-6.41264e-10
2.33497e-09
4.98922e-09
-6.35357e-10
3.03131e-09
4.95271e-09
-6.32679e-10
3.65947e-09
4.88487e-09
-6.33138e-10
4.21046e-09
4.79222e-09
-6.36582e-10
4.67762e-09
4.68047e-09
-6.42723e-10
5.05088e-09
4.55702e-09
-6.51007e-10
5.32408e-09
4.43139e-09
-6.60554e-10
4.28428e-09
-6.69564e-10
5.51819e-09
7.70857e-10
5.29222e-09
-6.74355e-10
1.52744e-09
5.3404e-09
-6.63707e-10
2.25553e-09
5.34781e-09
-6.55747e-10
2.93619e-09
5.31755e-09
-6.50554e-10
3.55316e-09
5.25405e-09
-6.48126e-10
4.09482e-09
5.16321e-09
-6.48343e-10
4.55452e-09
5.05129e-09
-6.5094e-10
4.92315e-09
4.92468e-09
-6.55361e-10
5.19184e-09
4.79205e-09
-6.60776e-10
4.64192e-09
-6.65566e-10
5.38384e-09
7.42585e-10
5.54132e-09
-7.00562e-10
1.47362e-09
5.59569e-09
-6.88259e-10
2.18027e-09
5.60961e-09
-6.78015e-10
2.84394e-09
5.58561e-09
-6.70127e-10
3.44834e-09
5.52676e-09
-6.64689e-10
3.98036e-09
5.43746e-09
-6.61576e-10
4.43077e-09
5.32348e-09
-6.60459e-10
4.7909e-09
5.19197e-09
-6.60724e-10
5.05222e-09
5.05296e-09
-6.61597e-10
4.90559e-09
-6.61672e-10
5.23521e-09
7.12174e-10
-7.27632e-10
5.69252e-09
1.41287e-09
-7.13269e-10
5.75135e-09
2.0925e-09
-7.00462e-10
5.77358e-09
2.73373e-09
-6.89674e-10
5.75963e-09
3.32099e-09
-6.81052e-10
5.71056e-09
3.84145e-09
-6.74459e-10
5.62871e-09
4.28474e-09
-6.69505e-10
5.51786e-09
4.64189e-09
-6.65522e-10
5.38366e-09
4.90507e-09
-6.61646e-10
5.23535e-09
-6.56762e-10
5.08461e-09
5.08498e-09
8.01944e-10
8.04033e-10
-5.79286e-10
1.54045e-09
7.94411e-10
-5.73526e-10
2.19411e-09