/*--------------------------------*- C++ -*----------------------------------*\
| =========                 |                                                 |
| \\      /  F ield         | foam-extend: Open Source CFD                    |
|  \\    /   O peration     | Version:     3.1                                |
|   \\  /    A nd           | Web:         http://www.extend-project.de       |
|    \\/     M anipulation  |                                                 |
\*---------------------------------------------------------------------------*/
FoamFile
{
    version     2.0;
    format      ascii;
    class       volScalarField;
    location    "0.0004";
    object      p;
}
// * * * * * * * * * * * * * * * * * * * * * * * * * * * * * * * * * * * * * //

dimensions      [0 2 -2 0 0 0 0];

internalField   nonuniform List<scalar> 
16000
(
1.2578
1.25759
1.25716
1.25653
1.25569
1.25466
1.25347
1.25216
1.25079
1.24947
1.25759
1.25739
1.25699
1.25638
1.25558
1.2546
1.25347
1.25221
1.25089
1.2496
1.25716
1.25699
1.25661
1.25605
1.2553
1.25437
1.25329
1.2521
1.25085
1.24963
1.25653
1.25638
1.25605
1.25553
1.25483
1.25397
1.25296
1.25185
1.25069
1.24955
1.25569
1.25558
1.2553
1.25483
1.2542
1.25341
1.25249
1.25147
1.2504
1.24936
1.25466
1.2546
1.25437
1.25397
1.25341
1.2527
1.25188
1.25096
1.25001
1.2491
1.25347
1.25347
1.25329
1.25296
1.25249
1.25188
1.25116
1.25037
1.24955
1.24877
1.25216
1.25221
1.2521
1.25185
1.25147
1.25096
1.25037
1.24971
1.24903
1.24841
1.25079
1.25089
1.25085
1.25069
1.2504
1.25001
1.24955
1.24903
1.24852
1.24807
1.24947
1.2496
1.24963
1.24955
1.24936
1.2491
1.24877
1.24841
1.24807
1.24778
1.10855
1.1079
1.1066
1.10465
1.10207
1.09888
1.09513
1.09089
1.08633
1.08168
1.1079
1.1073
1.10606
1.1042
1.10173
1.09867
1.09506
1.09099
1.08658
1.08206
1.1066
1.10606
1.10492
1.10317
1.10083
1.09793
1.0945
1.09062
1.08641
1.08209
1.10465
1.1042
1.10317
1.10155
1.09937
1.09665
1.09343
1.08978
1.08582
1.08174
1.10207
1.10173
1.10083
1.09937
1.09738
1.09486
1.09188
1.08849
1.08482
1.08104
1.09888
1.09867
1.09793
1.09665
1.09486
1.09259
1.08988
1.08679
1.08344
1.08
1.09513
1.09506
1.0945
1.09343
1.09188
1.08988
1.08746
1.08471
1.08173
1.07869
1.09089
1.09099
1.09062
1.08978
1.08849
1.08679
1.08471
1.08234
1.07977
1.07718
1.08633
1.08658
1.08641
1.08582
1.08482
1.08344
1.08173
1.07977
1.07767
1.07559
1.08168
1.08206
1.08209
1.08174
1.08104
1.08
1.07869
1.07718
1.07559
1.07409
0.963841
0.962746
0.960546
0.957234
0.9528
0.947237
0.940555
0.932786
0.924012
0.9144
0.962746
0.961724
0.959633
0.956465
0.952213
0.946872
0.940448
0.932973
0.92452
0.915241
0.960546
0.959633
0.957682
0.95469
0.95065
0.94556
0.939426
0.932279
0.924188
0.915298
0.957234
0.956465
0.95469
0.951907
0.948111
0.943301
0.937489
0.930704
0.923016
0.914562
0.952799
0.952213
0.95065
0.948111
0.944592
0.940098
0.934641
0.928255
0.921009
0.913038
0.947237
0.946871
0.945559
0.943301
0.940098
0.935956
0.930893
0.924945
0.918182
0.910742
0.940554
0.940448
0.939425
0.937488
0.934641
0.930893
0.926266
0.9208
0.914568
0.907709
0.932785
0.932972
0.932278
0.930704
0.928255
0.924945
0.9208
0.915866
0.910217
0.903996
0.924011
0.924519
0.924188
0.923015
0.921008
0.918182
0.914568
0.910217
0.905212
0.899699
0.914399
0.915241
0.915297
0.914561
0.913037
0.910742
0.907709
0.903996
0.899699
0.89498
0.826632
0.825118
0.822066
0.817443
0.811197
0.803259
0.793539
0.781933
0.768318
0.752557
0.825118
0.823703
0.820795
0.816367
0.81037
0.802739
0.793393
0.782232
0.769145
0.754006
0.822066
0.820795
0.818074
0.813875
0.808155
0.800855
0.791898
0.781195
0.768642
0.754129
0.817443
0.816367
0.813875
0.809944
0.804532
0.797588
0.789042
0.778813
0.766804
0.752923
0.811197
0.81037
0.808155
0.804532
0.799467
0.79291
0.784801
0.775065
0.763616
0.750375
0.803258
0.802739
0.800854
0.797588
0.79291
0.786778
0.779137
0.76992
0.759051
0.746467
0.793539
0.793392
0.791897
0.789042
0.7848
0.779137
0.772002
0.763338
0.753075
0.741168
0.781933
0.782232
0.781195
0.778812
0.775064
0.76992
0.763338
0.755267
0.745647
0.734446
0.768317
0.769144
0.768642
0.766804
0.763615
0.75905
0.753075
0.745646
0.736714
0.726263
0.752556
0.754005
0.754128
0.752922
0.750374
0.746466
0.741168
0.734445
0.726263
0.716622
0.699727
0.697876
0.694135
0.688449
0.680723
0.670825
0.658571
0.643715
0.625928
0.604768
0.697876
0.696143
0.692577
0.687126
0.679702
0.670181
0.658395
0.644116
0.627041
0.606764
0.694135
0.692577
0.689232
0.684051
0.676955
0.667828
0.656513
0.642799
0.626404
0.606963
0.688449
0.687125
0.684051
0.679182
0.672444
0.66373
0.652894
0.639741
0.624008
0.605364
0.680723
0.679701
0.676955
0.672443
0.666101
0.657827
0.647488
0.634899
0.619818
0.601944
0.670824
0.670181
0.667827
0.66373
0.657827
0.650029
0.64021
0.628198
0.613767
0.596647
0.65857
0.658395
0.656512
0.652894
0.647487
0.64021
0.630944
0.619531
0.605759
0.589385
0.643714
0.644115
0.642798
0.63974
0.634898
0.628198
0.619531
0.60875
0.595656
0.580034
0.625927
0.627039
0.626403
0.624007
0.619817
0.613766
0.605758
0.595656
0.583274
0.568426
0.604766
0.606763
0.606961
0.605363
0.601943
0.596646
0.589385
0.580034
0.568426
0.554391
0.585364
0.583309
0.579155
0.572834
0.564235
0.553196
0.539495
0.522833
0.502807
0.478874
0.583309
0.581386
0.577425
0.571365
0.563101
0.552483
0.539308
0.523296
0.504075
0.481152
0.579155
0.577425
0.573709
0.567948
0.560046
0.549865
0.537213
0.521833
0.50338
0.481401
0.572834
0.571365
0.567948
0.56253
0.555024
0.545299
0.533178
0.518421
0.500707
0.479626
0.564234
0.5631
0.560046
0.555023
0.547952
0.538712
0.527137
0.513005
0.496016
0.475797
0.553195
0.552483
0.549864
0.545298
0.538711
0.529994
0.518992
0.505497
0.489229
0.469851
0.539494
0.539307
0.537212
0.533177
0.527137
0.518992
0.508599
0.495764
0.480227
0.461683
0.522832
0.523294
0.521832
0.51842
0.513004
0.505496
0.495764
0.483628
0.468844
0.451141
0.502805
0.504074
0.503378
0.500706
0.496015
0.489228
0.480226
0.468843
0.454854
0.43802
0.478873
0.48115
0.4814
0.479624
0.475796
0.46985
0.461682
0.45114
0.438019
0.4221
0.484888
0.482786
0.47854
0.472088
0.463332
0.452127
0.438283
0.421548
0.401593
0.378002
0.482786
0.480819
0.476774
0.470592
0.462181
0.45141
0.4381
0.422017
0.402858
0.380242
0.47854
0.476774
0.472983
0.467115
0.459083
0.448766
0.435999
0.420564
0.402182
0.380502
0.472088
0.470592
0.467114
0.461608
0.453994
0.444159
0.431952
0.41717
0.399553
0.378784
0.463331
0.462181
0.459083
0.453994
0.446843
0.437526
0.425903
0.411787
0.394938
0.375068
0.452127
0.451409
0.448766
0.444159
0.437526
0.428773
0.41777
0.404344
0.388274
0.369303
0.438282
0.438099
0.435998
0.431951
0.425903
0.417769
0.407432
0.394734
0.379469
0.361409
0.421546
0.422015
0.420563
0.417169
0.411786
0.404343
0.394733
0.382813
0.368392
0.351274
0.401591
0.402857
0.402181
0.399552
0.394937
0.388273
0.379468
0.368392
0.354875
0.338745
0.378
0.380239
0.3805
0.378782
0.375066
0.369301
0.361408
0.351273
0.338745
0.323671
0.39861
0.3966
0.392549
0.386415
0.378128
0.367596
0.354697
0.339284
0.321179
0.300183
0.3966
0.394723
0.390868
0.384996
0.377044
0.366926
0.354529
0.339715
0.32232
0.302159
0.392549
0.390868
0.387265
0.381704
0.374128
0.364457
0.352588
0.338392
0.321718
0.302396
0.386415
0.384996
0.381704
0.376507
0.369352
0.360166
0.348855
0.335302
0.319365
0.300893
0.378128
0.377044
0.374128
0.369351
0.362668
0.354012
0.343297
0.330416
0.315242
0.29764
0.367595
0.366925
0.364457
0.360165
0.354011
0.345936
0.335863
0.323695
0.309317
0.292612
0.354696
0.354528
0.352587
0.348854
0.343296
0.335863
0.326486
0.31508
0.30154
0.28577
0.339282
0.339714
0.338391
0.3353
0.330415
0.323695
0.315079
0.304495
0.291849
0.277063
0.321177
0.322318
0.321716
0.319363
0.315241
0.309316
0.301539
0.291849
0.280164
0.266425
0.300181
0.302156
0.302394
0.300891
0.297638
0.29261
0.285769
0.277062
0.266425
0.25381
0.325904
0.324086
0.320428
0.314912
0.307506
0.298169
0.286856
0.273521
0.258126
0.240658
0.324085
0.322389
0.318914
0.31364
0.306541
0.297578
0.286709
0.273891
0.259088
0.242283
0.320428
0.318913
0.315675
0.310696
0.30395
0.295404
0.28502
0.272757
0.258582
0.242481
0.314912
0.31364
0.310696
0.306064
0.299721
0.291638
0.28178
0.270113
0.256605
0.241247
0.307505
0.30654
0.30395
0.299721
0.293833
0.286262
0.276978
0.26595
0.253152
0.23858
0.298168
0.297577
0.295404
0.291637
0.286262
0.279257
0.270597
0.260257
0.248217
0.234477
0.286855
0.286708
0.285019
0.281779
0.276977
0.270596
0.262617
0.253021
0.24179
0.228934
0.273519
0.27389
0.272756
0.270112
0.265949
0.260257
0.25302
0.244226
0.233863
0.221948
0.258124
0.259086
0.25858
0.256603
0.253151
0.248216
0.241789
0.233862
0.224432
0.213521
0.240655
0.24228
0.242478
0.241245
0.238578
0.234476
0.228932
0.221947
0.213521
0.203683
0.265491
0.263912
0.260743
0.255983
0.24963
0.241684
0.232154
0.221063
0.208458
0.194424
0.263912
0.262441
0.259433
0.254889
0.248805
0.241183
0.23203
0.221368
0.209238
0.195716
0.260743
0.259433
0.25664
0.252361
0.246595
0.239344
0.230617
0.220431
0.208827
0.195873
0.255982
0.254888
0.25236
0.248397
0.242999
0.236168
0.227912
0.218252
0.207222
0.19489
0.249629
0.248804
0.246594
0.242998
0.238017
0.231655
0.223921
0.214834
0.204429
0.19277
0.241683
0.241182
0.239344
0.236167
0.231655
0.225811
0.218648
0.210185
0.200455
0.189522
0.232153
0.232029
0.230616
0.227911
0.22392
0.218648
0.212107
0.204318
0.195315
0.18516
0.221062
0.221366
0.22043
0.21825
0.214832
0.210184
0.204318
0.197256
0.189032
0.179708
0.208456
0.209236
0.208825
0.20722
0.204427
0.200454
0.195314
0.189032
0.18164
0.173198
0.194421
0.195714
0.195871
0.194888
0.192768
0.18952
0.185159
0.179707
0.173198
0.165693
0.215765
0.214432
0.211762
0.207766
0.202458
0.195863
0.188016
0.17897
0.168804
0.157629
0.214432
0.213192
0.210661
0.20685
0.201771
0.195448
0.187913
0.179216
0.169428
0.158651
0.211762
0.210661
0.208316
0.204736
0.199933
0.193929
0.186754
0.178455
0.169097
0.158773
0.207766
0.206849
0.204735
0.201431
0.196949
0.19131
0.184541
0.176688
0.167809
0.157992
0.202458
0.201771
0.199932
0.196949
0.192833
0.187602
0.181286
0.173924
0.165572
0.156313
0.195862
0.195447
0.193928
0.191309
0.187602
0.182825
0.177005
0.17018
0.162401
0.153747
0.188014
0.187912
0.186753
0.18454
0.181285
0.177005
0.171724
0.165478
0.158318
0.150314
0.178968
0.179214
0.178453
0.176686
0.173923
0.170179
0.165478
0.159854
0.153353
0.146042
0.168802
0.169426
0.169095
0.167807
0.165571
0.1624
0.158317
0.153352
0.147549
0.140971
0.157626
0.158648
0.158771
0.15799
0.156311
0.153745
0.150312
0.146041
0.14097
0.13516
0.175071
0.173965
0.171753
0.168452
0.164081
0.158673
0.152272
0.144935
0.136738
0.127779
0.173964
0.172937
0.170842
0.167696
0.163516
0.158334
0.152188
0.145133
0.137239
0.128595
0.171753
0.170842
0.168905
0.165954
0.162006
0.157091
0.151245
0.144517
0.136971
0.128692
0.168451
0.167695
0.165953
0.163236
0.159561
0.154953
0.149446
0.143087
0.135934
0.128065
0.16408
0.163516
0.162006
0.159561
0.156195
0.151933
0.146805
0.140855
0.134136
0.126719
0.158672
0.158333
0.15709
0.154952
0.151932
0.148052
0.14334
0.137836
0.131589
0.124665
0.15227
0.152187
0.151243
0.149445
0.146804
0.14334
0.139079
0.134056
0.128316
0.121921
0.144933
0.145131
0.144515
0.143085
0.140853
0.137835
0.134055
0.129544
0.124344
0.11851
0.136735
0.137237
0.136969
0.135932
0.134134
0.131588
0.128315
0.124344
0.11971
0.114465
0.127775
0.128592
0.128689
0.128062
0.126717
0.124663
0.121919
0.118509
0.114464
0.109832
0.141874
0.140965
0.13915
0.136443
0.132867
0.128452
0.123238
0.117276
0.110627
0.103364
0.140965
0.140121
0.138403
0.135824
0.132405
0.128174
0.123169
0.117436
0.111033
0.104026
0.13915
0.138403
0.136814
0.134398
0.131171
0.127161
0.122401
0.116935
0.110815
0.104103
0.136443
0.135823
0.134397
0.132175
0.129174
0.125418
0.120938
0.115774
0.109973
0.103593
0.132866
0.132404
0.131171
0.129174
0.12643
0.122959
0.118791
0.113961
0.108513
0.1025
0.12845
0.128173
0.12716
0.125418
0.122959
0.119804
0.115977
0.111512
0.106447
0.100832
0.123236
0.123168
0.1224
0.120937
0.118791
0.115977
0.112519
0.108445
0.103791
0.0986022
0.117274
0.117434
0.116933
0.115772
0.11396
0.111511
0.108445
0.104787
0.100568
0.0958286
0.110624
0.11103
0.110812
0.109971
0.108511
0.106446
0.10379
0.100567
0.0968032
0.0925345
0.10336
0.104022
0.1041
0.103591
0.102498
0.10083
0.0986005
0.0958275
0.0925338
0.0887521
0.114846
0.114103
0.112618
0.110405
0.107484
0.10388
0.0996279
0.0947665
0.0893428
0.0834091
0.114103
0.113412
0.112007
0.109899
0.107106
0.103654
0.0995719
0.0948976
0.089674
0.0839504
0.112617
0.112006
0.110708
0.108734
0.106099
0.102827
0.0989454
0.0944884
0.0894958
0.0840133
0.110404
0.109898
0.108733
0.106919
0.104469
0.101405
0.0977521
0.0935409
0.088808
0.0835958
0.107483
0.107106
0.106099
0.104469
0.10223
0.0993999
0.0960011
0.092062
0.0876156
0.0827007
0.103879
0.103653
0.102826
0.101405
0.0993995
0.0968265
0.0937059
0.0900631
0.0859272
0.0813343
0.0996263
0.0995705
0.0989441
0.097751
0.0960003
0.0937055
0.0908844
0.0875591
0.0837555
0.0795062
0.0947645
0.0948956
0.0944866
0.0935393
0.0920608
0.0900622
0.0875586
0.0845692
0.0811164
0.0772296
0.0893401
0.0896715
0.0894935
0.0888059
0.0876138
0.0859258
0.0837545
0.0811159
0.0780292
0.0745206
0.0834058
0.0839472
0.0840103
0.0835931
0.0826982
0.0813322
0.0795046
0.0772285
0.07452
0.0714022
0.0928705
0.092263
0.09105
0.0892429
0.0868577
0.0839158
0.0804437
0.0764727
0.0720381
0.067179
0.0922629
0.0916987
0.0905509
0.0888296
0.0865497
0.083731
0.080398
0.0765797
0.072309
0.0676226
0.0910498
0.0905507
0.0894905
0.0878782
0.0857273
0.0830558
0.0798862
0.0762452
0.0721631
0.067674
0.0892424
0.0888292
0.087878
0.0863965
0.0843966
0.0818948
0.0789114
0.0754706
0.0716001
0.0673316
0.086857
0.0865491
0.0857268
0.0843964
0.0825683
0.0802571
0.0774808
0.0742615
0.0706239
0.0665975
0.0839147
0.08373
0.0830549
0.0818942
0.0802567
0.078155
0.0756051
0.0726265
0.0692413
0.0654767
0.0804422
0.0803966
0.0798849
0.0789104
0.0774801
0.0756047
0.0732981
0.0705773
0.0674618
0.0639763
0.0764706
0.0765778
0.0762435
0.0754691
0.0742602
0.0726256
0.0705768
0.0681285
0.0652975
0.0621061
0.0720354
0.0723065
0.0721608
0.071598
0.0706221
0.0692399
0.0674608
0.065297
0.0627629
0.0598784
0.0671757
0.0676194
0.0676711
0.0673289
0.0665951
0.0654746
0.0639746
0.062105
0.0598778
0.0573105
0.0750254
0.0745296
0.0735398
0.0720651
0.0701186
0.0677177
0.0648835
0.061641
0.0580182
0.054046
0.0745296
0.0740692
0.0731324
0.0717278
0.0698673
0.0675668
0.0648462
0.0617284
0.0582396
0.0544087
0.0735396
0.0731323
0.0722671
0.0709514
0.069196
0.0670157
0.0644283
0.0614552
0.0581203
0.0544507
0.0720646
0.0717274
0.0709512
0.0697421
0.06811
0.066068
0.0636324
0.0608224
0.0576601
0.0541707
0.0701179
0.0698666
0.0691956
0.0681098
0.0666177
0.064731
0.0624641
0.0598346
0.0568622
0.0535703
0.0677166
0.0675659
0.0670149
0.0660674
0.0647306
0.0630146
0.0609321
0.0584987
0.055732
0.0526535
0.064882
0.0648448
0.0644271
0.0636313
0.0624634
0.0609317
0.0590474
0.056824
0.054277
0.0514262
0.061639
0.0617265
0.0614535
0.0608209
0.0598334
0.0584978
0.0568235
0.054822
0.0525069
0.0498961
0.0580155
0.0582371
0.058118
0.0576581
0.0568605
0.0557306
0.054276
0.0525064
0.0504334
0.0480731
0.0540427
0.0544056
0.0544478
0.054168
0.053568
0.0526515
0.0514246
0.049895
0.0480725
0.0459715
0.0605538
0.0601496
0.0593428
0.0581409
0.0565544
0.0545976
0.0522878
0.0496453
0.0466932
0.0434572
0.0601496
0.0597743
0.0590108
0.0578659
0.0563496
0.0544747
0.0522574
0.0497165
0.0468736
0.0437527
0.0593426
0.0590107
0.0583055
0.0572331
0.0558025
0.0540255
0.0519168
0.0494939
0.0467764
0.0437869
0.0581404
0.0578656
0.0572329
0.0562475
0.0549173
0.0532531
0.0512681
0.0489782
0.0464014
0.0435588
0.0565537
0.0563489
0.055802
0.0549171
0.053701
0.0521634
0.050316
0.0481732
0.0457513
0.0430698
0.0545966
0.0544737
0.0540247
0.0532525
0.052163
0.0507645
0.0490675
0.0470846
0.0448305
0.0423232
0.0522864
0.052256
0.0519156
0.0512671
0.0503153
0.0490671
0.0475317
0.0457201
0.0436453
0.0413239
0.0496434
0.0497147
0.0494922
0.0489768
0.048172
0.0470838
0.0457196
0.0440892
0.0422038
0.0400785
0.0466907
0.0468712
0.0467742
0.0463995
0.0457497
0.0448292
0.0436444
0.0422033
0.0405157
0.0385951
0.0434541
0.0437496
0.0437841
0.0435562
0.0430675
0.0423213
0.0413224
0.0400774
0.0385946
0.036886
0.0488334
0.0485045
0.0478479
0.0468699
0.0455792
0.0439875
0.0421091
0.039961
0.0375625
0.0349354
0.0485044
0.048199
0.0475777
0.0466462
0.0454125
0.0438875
0.0420844
0.0400189
0.037709
0.0351751
0.0478477
0.0475776
0.0470038
0.0461313
0.0449675
0.0435221
0.0418074
0.0398379
0.03763
0.0352029
0.0468695
0.0466459
0.0461311
0.0453295
0.0442475
0.042894
0.04128
0.0394188
0.0373255
0.0350178
0.0455785
0.0454119
0.044967
0.0442472
0.0432582
0.0420078
0.040506
0.0387647
0.0367975
0.034621
0.0439865
0.0438866
0.0435214
0.0428934
0.0420075
0.0408706
0.0394913
0.0378803
0.0360499
0.0340153
0.0421077
0.0420831
0.0418063
0.0412791
0.0405053
0.0394909
0.0382434
0.0367721
0.0350879
0.0332049
0.0399591
0.0400171
0.0398363
0.0394174
0.0387636
0.0378795
0.0367716
0.0354481
0.0339184
0.0321953
0.03756
0.0377067
0.0376279
0.0373236
0.0367959
0.0360486
0.035087
0.0339179
0.0325496
0.0309936
0.0349323
0.0351722
0.0352002
0.0350153
0.0346188
0.0340135
0.0332034
0.0321943
0.0309931
0.02961
0.039353
0.0390859
0.0385526
0.0377582
0.0367102
0.0354181
0.0338939
0.0321518
0.0302079
0.0280807
0.0390858
0.0388377
0.0383331
0.0375766
0.0365749
0.0353369
0.0338738
0.0321987
0.0303266
0.0282747
0.0385524
0.038333
0.037867
0.0371585
0.0362135
0.0350404
0.0336492
0.0320519
0.0302626
0.0282972
0.0377579
0.0375763
0.0371583
0.0365074
0.0356291
0.0345306
0.0332213
0.0317122
0.0300159
0.0281474
0.0367096
0.0365743
0.0362131
0.0356288
0.0348262
0.0338117
0.0325936
0.031182
0.0295883
0.0278263
0.0354172
0.0353361
0.0350397
0.0345301
0.0338114
0.0328892
0.0317709
0.0304653
0.0289828
0.0273362
0.0338926
0.0338726
0.0336481
0.0332204
0.032593
0.0317705
0.0307594
0.0295676
0.0282041
0.0266807
0.03215
0.032197
0.0320504
0.0317109
0.0311809
0.0304645
0.0295672
0.0284955
0.0272577
0.0258645
0.0302056
0.0303244
0.0302606
0.0300141
0.0295867
0.0289816
0.0282032
0.0272573
0.0261508
0.0248934
0.0280779
0.028272
0.0282947
0.028145
0.0278242
0.0273345
0.0266793
0.0258635
0.0248929
0.0237762
0.0316932
0.0314765
0.0310441
0.0304001
0.0295506
0.0285037
0.0272692
0.025859
0.0242864
0.022567
0.0314765
0.0312753
0.0308662
0.0302528
0.029441
0.0284379
0.0272529
0.0258969
0.0243824
0.0227237
0.0310439
0.030866
0.0304882
0.0299139
0.0291481
0.0281977
0.027071
0.0257781
0.0243306
0.0227419
0.0303998
0.0302526
0.0299138
0.0293862
0.0286746
0.0277848
0.0267246
0.0255032
0.0241311
0.0226208
0.0295501
0.0294405
0.0291478
0.0286743
0.0280241
0.0272026
0.0262165
0.0250742
0.0237854
0.0223614
0.0285028
0.0284371
0.028197
0.0277843
0.0272023
0.0264557
0.0255507
0.0244945
0.0232959
0.0219655
0.027268
0.0272518
0.02707
0.0267238
0.0262159
0.0255503
0.0247324
0.0237686
0.0226665
0.0214361
0.0258573
0.0258954
0.0257768
0.025502
0.0250732
0.0244938
0.0237682
0.022902
0.021902
0.020777
0.0242843
0.0243804
0.0243288
0.0241295
0.0237839
0.0232948
0.0226657
0.0219016
0.0210081
0.0199933
0.0225643
0.0227212
0.0227395
0.0226186
0.0223595
0.0219639
0.0214348
0.0207761
0.0199929
0.0190921
0.0255101
0.0253347
0.0249846
0.0244633
0.0237758
0.0229288
0.0219304
0.0207903
0.0195198
0.0181313
0.0253346
0.0251718
0.0248405
0.0243441
0.0236871
0.0228756
0.0219172
0.020821
0.0195973
0.0182578
0.0249844
0.0248404
0.0245346
0.0240698
0.0234501
0.0226813
0.0217701
0.020725
0.0195555
0.0182725
0.024463
0.0243438
0.0240696
0.0236428
0.023067
0.0223473
0.02149
0.0205028
0.0193943
0.0181747
0.0237753
0.0236866
0.0234498
0.0230668
0.0225408
0.0218764
0.0210793
0.0201562
0.019115
0.0179653
0.022928
0.0228749
0.0226806
0.0223468
0.0218762
0.0212726
0.0205411
0.0196878
0.0187198
0.0176458
0.0219293
0.0219162
0.0217692
0.0214893
0.0210787
0.0205408
0.0198799
0.0191014
0.0182116
0.0172185
0.0207888
0.0208196
0.0207237
0.0205017
0.0201553
0.0196872
0.0191011
0.0184017
0.0175945
0.0166868
0.0195178
0.0195955
0.0195538
0.0193928
0.0191137
0.0187188
0.0182109
0.0175941
0.0168732
0.0160546
0.0181289
0.0182555
0.0182703
0.0181728
0.0179636
0.0176443
0.0172174
0.016686
0.0160542
0.0153278
0.0205231
0.0203813
0.0200982
0.0196767
0.019121
0.0184365
0.0176299
0.0167092
0.0156835
0.014563
0.0203812
0.0202495
0.0199817
0.0195804
0.0190493
0.0183935
0.0176193
0.016734
0.015746
0.0146651
0.0200981
0.0199816
0.0197344
0.0193586
0.0188578
0.0182365
0.0175005
0.0166564
0.0157123
0.0146769
0.0196765
0.0195801
0.0193585
0.0190135
0.0185482
0.0179667
0.0172742
0.016477
0.0155822
0.0145981
0.0191206
0.0190489
0.0188575
0.018548
0.018123
0.0175863
0.0169425
0.0161972
0.0153568
0.0144291
0.0184358
0.0183929
0.018236
0.0179663
0.0175861
0.0170986
0.0165079
0.0158191
0.0150378
0.0141713
0.0176289
0.0176184
0.0174996
0.0172736
0.016942
0.0165077
0.0159741
0.0153458
0.0146278
0.0138267
0.0167079
0.0167327
0.0166553
0.0164761
0.0161964
0.0158185
0.0153455
0.0147811
0.0141299
0.0133978
0.0156818
0.0157444
0.0157108
0.0155809
0.0153557
0.0150369
0.0146271
0.0141296
0.0135481
0.012888
0.0145609
0.0146631
0.014675
0.0145963
0.0144276
0.01417
0.0138256
0.0133971
0.0128876
0.012302
0.0165036
0.016389
0.0161603
0.0158199
0.0153712
0.0148185
0.0141674
0.0134244
0.0125968
0.0116931
0.016389
0.0162826
0.0160663
0.0157421
0.0153132
0.0147838
0.0141588
0.0134443
0.0126473
0.0117754
0.0161602
0.0160662
0.0158665
0.015563
0.0151586
0.014657
0.0140629
0.0133818
0.01262
0.011785
0.0158197
0.0157419
0.0155629
0.0152843
0.0149086
0.0144392
0.0138803
0.013237
0.0125151
0.0117213
0.0153708
0.0153129
0.0151583
0.0149084
0.0145654
0.0141322
0.0136126
0.0130112
0.0123333
0.0115851
0.0148179
0.0147832
0.0146565
0.0144388
0.014132
0.0137385
0.0132619
0.0127061
0.012076
0.0113772
0.0141665
0.014158
0.0140622
0.0138797
0.0136122
0.0132617
0.0128312
0.0123244
0.0117453
0.0110993
0.0134232
0.0134433
0.0133808
0.0132362
0.0130105
0.0127057
0.0123241
0.0118689
0.0113438
0.0107535
0.0125953
0.0126459
0.0126188
0.0125139
0.0123323
0.0120752
0.0117447
0.0113435
0.0108746
0.0103425
0.0116912
0.0117737
0.0117833
0.0117198
0.0115838
0.0113761
0.0110984
0.0107529
0.0103422
0.00987007
0.0132657
0.0131733
0.0129887
0.012714
0.0123519
0.0119059
0.0113807
0.0107814
0.0101141
0.00938557
0.0131732
0.0130874
0.0129128
0.0126512
0.0123051
0.0118779
0.0113738
0.0107975
0.0101548
0.00945193
0.0129886
0.0129127
0.0127515
0.0125066
0.0121803
0.0117757
0.0112964
0.0107471
0.0101329
0.00945961
0.0127138
0.012651
0.0125065
0.0122817
0.0119786
0.0115999
0.0111491
0.0106303
0.0100482
0.00940833
0.0123515
0.0123048
0.0121801
0.0119785
0.0117017
0.0113523
0.0109332
0.0104482
0.00990163
0.00929848
0.0119054
0.0118775
0.0117753
0.0115996
0.0113521
0.0110348
0.0106504
0.0102022
0.0096942
0.0091309
0.01138
0.0113731
0.0112958
0.0111486
0.0109328
0.0106502
0.0103031
0.00989441
0.00942759
0.00890689
0.0107805
0.0107966
0.0107463
0.0106296
0.0104476
0.0102018
0.00989419
0.00952723
0.00910394
0.00862818
0.0101129
0.0101536
0.0101318
0.0100473
0.0099008
0.00969353
0.00942712
0.00910369
0.00872579
0.00829693
0.00938401
0.00945045
0.00945823
0.00940707
0.00929736
0.00912996
0.00890614
0.00862765
0.00829665
0.00791623
0.0106589
0.0105843
0.0104355
0.0102139
0.00992187
0.00956232
0.00913887
0.0086558
0.008118
0.00753093
0.0105843
0.010515
0.0103742
0.0101632
0.00988418
0.00953973
0.00913328
0.00866878
0.00815078
0.00758439
0.0104354
0.0103742
0.0102442
0.0100467
0.00978357
0.00945727
0.0090709
0.00862811
0.00813307
0.00759057
0.0102137
0.0101631
0.0100466
0.00986533
0.00962091
0.00931559
0.00895218
0.00853399
0.00806487
0.00754924
0.00992159
0.00988393
0.00978338
0.00962081
0.00939766
0.00911592
0.0087781
0.00838721
0.00794671
0.00746072
0.0095619
0.00953935
0.00945695
0.00931536
0.00911579
0.00885998
0.00855014
0.00818896
0.00777955
0.00732568
0.00913828
0.00913273
0.00907042
0.00895178
0.00877782
0.00854999
0.00827022
0.00794088
0.00756471
0.00714519
0.00865502
0.00866804
0.00862744
0.00853342
0.00838674
0.00818863
0.0079407
0.00764499
0.00730393
0.00692064
0.00811699
0.00814983
0.0081322
0.00806409
0.00794604
0.00777901
0.00756433
0.00730373
0.00699927
0.00665378
0.00752968
0.00758321
0.00758946
0.00754823
0.00745982
0.00732492
0.00714458
0.00692021
0.00665356
0.00634712
0.00856115
0.00850101
0.00838102
0.00820244
0.00796707
0.00767731
0.0073361
0.0069469
0.00651368
0.00604085
0.00850099
0.00844516
0.00833165
0.00816161
0.00793669
0.00765911
0.00733159
0.00695735
0.00654007
0.0060839
0.00838095
0.00833161
0.00822685
0.00806767
0.0078556
0.00759265
0.00728133
0.00692458
0.00652581
0.00608886
0.00820231
0.0081615
0.00806761
0.0079215
0.00772452
0.00747849
0.00718566
0.00684875
0.00647086
0.00605556
0.00796686
0.0079365
0.00785546
0.00772444
0.00754461
0.00731759
0.00704541
0.0067305
0.00637567
0.00598425
0.00767699
0.00765881
0.00759241
0.0074783
0.00731749
0.00711138
0.00686175
0.00657079
0.00624101
0.00587548
0.00733565
0.00733117
0.00728096
0.00718536
0.00704519
0.00686163
0.00663625
0.00637095
0.00606797
0.00573011
0.00694631
0.00695679
0.00692407
0.00684831
0.00673014
0.00657053
0.00637081
0.00613262
0.00585793
0.00554927
0.00651292
0.00653935
0.00652514
0.00647026
0.00637516
0.00624061
0.00606768
0.00585778
0.00561258
0.00533438
0.00603991
0.006083
0.00608802
0.00605479
0.00598357
0.0058749
0.00572965
0.00554895
0.00533421
0.00508746
0.00687378
0.00682532
0.00672865
0.00658478
0.00639518
0.00616179
0.00588698
0.00557356
0.00522474
0.00484411
0.00682531
0.00678033
0.00668888
0.00655189
0.00637071
0.00614712
0.00588334
0.00558197
0.00524599
0.00487875
0.00672861
0.00668885
0.00660445
0.00647622
0.0063054
0.0060936
0.00584286
0.00555558
0.00523449
0.00488273
0.00658469
0.00655182
0.00647618
0.00635848
0.00619981
0.00600164
0.00576581
0.00549451
0.00519024
0.0048559
0.00639503
0.00637058
0.00630529
0.00619976
0.00605491
0.00587206
0.00565286
0.00539928
0.00511359
0.00479848
0.00616156
0.00614692
0.00609343
0.00600152
0.00587199
0.00570599
0.00550496
0.00527067
0.00500516
0.0047109
0.00588667
0.00588305
0.0058426
0.0057656
0.00565271
0.00550488
0.00532339
0.00510977
0.00486584
0.00459387
0.00557315
0.00558158
0.00555522
0.0054942
0.00539903
0.0052705
0.00510967
0.0049179
0.00469675
0.00444829
0.00522422
0.00524549
0.00523403
0.00518982
0.00511323
0.00500488
0.00486564
0.00469664
0.00449925
0.00427532
0.00484345
0.00487813
0.00488215
0.00485537
0.00479801
0.0047105
0.00459355
0.00444806
0.0042752
0.00407658
0.00551709
0.00547807
0.00540022
0.00528437
0.00513171
0.0049438
0.00472257
0.0044703
0.00418957
0.00388328
0.00547806
0.00544184
0.0053682
0.00525789
0.00511201
0.004932
0.00471965
0.00447706
0.00420666
0.00391115
0.00540019
0.00536818
0.00530022
0.00519697
0.00505942
0.0048889
0.00468705
0.00445581
0.0041974
0.00391434
0.00528432
0.00525785
0.00519694
0.00510217
0.00497442
0.00481488
0.00462503
0.00440665
0.00416177
0.00389273
0.00513162
0.00511193
0.00505936
0.00497439
0.00485777
0.00471056
0.00453411
0.00433
0.00410007
0.00384651
0.00494367
0.00493188
0.0048888
0.0048148
0.00471052
0.00457689
0.00441507
0.00422649
0.00401281
0.00377602
0.00472239
0.00471948
0.00468691
0.00462491
0.00453402
0.00441502
0.00426893
0.00409699
0.00390069
0.00368184
0.00447006
0.00447684
0.00445561
0.00440648
0.00432986
0.00422639
0.00409694
0.00394259
0.00376462
0.00356469
0.00418926
0.00420637
0.00419713
0.00416153
0.00409987
0.00401265
0.00390057
0.00376455
0.00360571
0.00342552
0.0038829
0.00391079
0.003914
0.00389243
0.00384624
0.00377579
0.00368165
0.00356456
0.00342545
0.00326563
0.0044267
0.00439529
0.00433264
0.00423939
0.00411653
0.00396531
0.00378729
0.00358432
0.00335848
0.00311212
0.00439529
0.00436614
0.00430686
0.00421808
0.00410067
0.00395581
0.00378493
0.00358976
0.00337222
0.00313452
0.00433263
0.00430686
0.00425216
0.00416905
0.00405836
0.00392113
0.00375871
0.00357265
0.00336476
0.00313708
0.00423938
0.00421807
0.00416905
0.00409277
0.00398996
0.00386157
0.00370881
0.0035331
0.0033361
0.00311969
0.0041165
0.00410065
0.00405834
0.00398995
0.00389609
0.00377764
0.00363565
0.00347143
0.00328646
0.0030825
0.00396527
0.00395577
0.0039211
0.00386154
0.00377762
0.00367009
0.00353988
0.00338816
0.00321626
0.0030258
0.00378724
0.00378488
0.00375867
0.00370877
0.00363563
0.00353987
0.00342231
0.00328399
0.00312607
0.00295003
0.00358425
0.00358969
0.0035726
0.00353305
0.00347139
0.00338813
0.00328397
0.00315979
0.00301662
0.00285581
0.00335839
0.00337214
0.00336469
0.00333603
0.0032864
0.00321621
0.00312603
0.0030166
0.00288882
0.00274388
0.00311201
0.00313442
0.00313699
0.0031196
0.00308242
0.00302573
0.00294998
0.00285577
0.00274386
0.00261531
0.00355068
0.00352541
0.00347499
0.00339998
0.00330114
0.00317949
0.00303631
0.00287306
0.00269145
0.00249338
0.00352541
0.00350195
0.00345427
0.00338284
0.00328838
0.00317185
0.00303441
0.00287744
0.00270251
0.00251139
0.003475
0.00345427
0.00341026
0.0033434
0.00325435
0.00314397
0.00301332
0.00286369
0.00269651
0.00251344
0.0034
0.00338285
0.00334341
0.00328205
0.00319934
0.00309606
0.00297319
0.00283188
0.00267345
0.00249945
0.00330117
0.00328841
0.00325437
0.00319935
0.00312385
0.00302856
0.00291436
0.00278229
0.00263354
0.00246954
0.00317954
0.0031719
0.003144
0.00309609
0.00302858
0.00294208
0.00283735
0.00271533
0.0025771
0.00242395
0.00303638
0.00303448
0.00301338
0.00297324
0.00291439
0.00283737
0.00274282
0.00263157
0.00250458
0.00236304
0.00287316
0.00287753
0.00286377
0.00283195
0.00278234
0.00271537
0.00263159
0.00253172
0.0024166
0.0022873
0.00269158
0.00270262
0.00269662
0.00267355
0.00263362
0.00257716
0.00250462
0.00241662
0.00231386
0.00219733
0.00249354
0.00251154
0.00251358
0.00249958
0.00246965
0.00242404
0.00236311
0.00228734
0.00219735
0.00209399
0.00284712
0.0028268
0.00278625
0.00272592
0.00264644
0.00254863
0.0024335
0.00230226
0.00215628
0.00199708
0.00282681
0.00280794
0.00276959
0.00271214
0.00263619
0.00254249
0.00243198
0.00230578
0.00216516
0.00201156
0.00278628
0.0027696
0.00273421
0.00268044
0.00260883
0.00252007
0.00241503
0.00229473
0.00216034
0.00201321
0.00272598
0.00271219
0.00268047
0.00263112
0.00256461
0.00248156
0.00238277