/*--------------------------------*- C++ -*----------------------------------*\
| =========                 |                                                 |
| \\      /  F ield         | foam-extend: Open Source CFD                    |
|  \\    /   O peration     | Version:     3.1                                |
|   \\  /    A nd           | Web:         http://www.extend-project.de       |
|    \\/     M anipulation  |                                                 |
\*---------------------------------------------------------------------------*/
FoamFile
{
    version     2.0;
    format      ascii;
    class       surfaceScalarField;
    location    "0.0004";
    object      phi;
}
// * * * * * * * * * * * * * * * * * * * * * * * * * * * * * * * * * * * * * //

dimensions      [0 3 -1 0 0 0 0];

internalField   nonuniform List<scalar> 
45800
(
7.61485e-11
7.60876e-11
1.22532e-08
1.51747e-10
7.69498e-11
1.2092e-08
2.28716e-10
7.87876e-11
1.19831e-08
3.0851e-10
8.14225e-11
1.19265e-08
3.92557e-10
8.48304e-11
1.1923e-08
4.8235e-10
8.90578e-11
1.19745e-08
5.79417e-10
9.41507e-11
1.20842e-08
6.85257e-10
1.00142e-10
1.22565e-08
8.01192e-10
1.0705e-10
1.24974e-08
1.1506e-10
1.28143e-08
9.27939e-10
7.70088e-11
1.5171e-10
1.20919e-08
1.53056e-10
1.52991e-10
1.19261e-08
2.30091e-10
1.56064e-10
1.18102e-08
3.09688e-10
1.6073e-10
1.17439e-08
3.93273e-10
1.66865e-10
1.17277e-08
4.82266e-10
1.74481e-10
1.17635e-08
5.78115e-10
1.83625e-10
1.18538e-08
6.8228e-10
1.94308e-10
1.20027e-08
7.96143e-10
2.065e-10
1.22151e-08
2.20531e-10
1.24969e-08
9.21027e-10
7.8813e-11
2.28723e-10
1.19831e-08
1.56128e-10
2.3007e-10
1.18102e-08
2.339e-10
2.3384e-10
1.16854e-08
3.13825e-10
2.39947e-10
1.1608e-08
3.97425e-10
2.48227e-10
1.15783e-08
4.86093e-10
2.58585e-10
1.15976e-08
5.81196e-10
2.71009e-10
1.16685e-08
6.84131e-10
2.85472e-10
1.1794e-08
7.96197e-10
3.01844e-10
1.19786e-08
3.20662e-10
1.22271e-08
9.18735e-10
8.14166e-11
3.08527e-10
1.19265e-08
1.60751e-10
3.09698e-10
1.17438e-08
2.40006e-10
3.13805e-10
1.16079e-08
3.20914e-10
3.20854e-10
1.15178e-08
4.05069e-10
3.30738e-10
1.14733e-08
4.93918e-10
3.43316e-10
1.14755e-08
5.8878e-10
3.5845e-10
1.15263e-08
6.90936e-10
3.7601e-10
1.16286e-08
8.01482e-10
3.95768e-10
1.1786e-08
4.18562e-10
1.20024e-08
9.21543e-10
8.48174e-11
3.92567e-10
1.1923e-08
1.6685e-10
3.93284e-10
1.17277e-08
2.48243e-10
3.9743e-10
1.15782e-08
3.30797e-10
4.05043e-10
1.14732e-08
4.1611e-10
4.16038e-10
1.14125e-08
5.05635e-10
4.30321e-10
1.13965e-08
6.00709e-10
4.47695e-10
1.14266e-08
7.02494e-10
4.67858e-10
1.15052e-08
8.11813e-10
4.90407e-10
1.16356e-08
5.16547e-10
1.18205e-08
9.29503e-10
8.90451e-11
4.82354e-10
1.19745e-08
1.74458e-10
4.8227e-10
1.17635e-08
2.58565e-10
4.86099e-10
1.15976e-08
3.43328e-10
4.93916e-10
1.14754e-08
4.30393e-10
5.05594e-10
1.13964e-08
5.21157e-10
5.21051e-10
1.13607e-08
6.16897e-10
5.40161e-10
1.13691e-08
7.18714e-10
5.62531e-10
1.14234e-08
8.27167e-10
5.87516e-10
1.15262e-08
6.1659e-10
1.16799e-08
9.42721e-10
9.41384e-11
5.79413e-10
1.20842e-08
1.83602e-10
5.78112e-10
1.18539e-08
2.70978e-10
5.81196e-10
1.16685e-08
3.58415e-10
5.88786e-10
1.15263e-08
4.47702e-10
6.00714e-10
1.14265e-08
5.4027e-10
6.16859e-10
1.13689e-08
6.37252e-10
6.37145e-10
1.13541e-08
7.39636e-10
6.61313e-10
1.13829e-08
8.47747e-10
6.88656e-10
1.14572e-08
7.20662e-10
1.15791e-08
9.61512e-10
1.0013e-10
6.85244e-10
1.22565e-08
1.94287e-10
6.82269e-10
1.20027e-08
2.85441e-10
6.84127e-10
1.1794e-08
3.75967e-10
6.90944e-10
1.16286e-08
4.67815e-10
7.02524e-10
1.15052e-08
5.62581e-10
7.18766e-10
1.14232e-08
6.6143e-10
7.39659e-10
1.13827e-08
7.65273e-10
7.65228e-10
1.13839e-08
8.74009e-10
7.95086e-10
1.14282e-08
8.30917e-10
1.15172e-08
9.86564e-10
1.0704e-10
8.0117e-10
1.24975e-08
2.06482e-10
7.96124e-10
1.22151e-08
3.01819e-10
7.96185e-10
1.19786e-08
3.9574e-10
8.01484e-10
1.1786e-08
4.90377e-10
8.11837e-10
1.16356e-08
5.87533e-10
8.27224e-10
1.15261e-08
6.88717e-10
8.4781e-10
1.14571e-08
7.95142e-10
8.74024e-10
1.14281e-08
9.06515e-10
9.06484e-10
1.14397e-08
9.4911e-10
1.14929e-08
1.01984e-09
1.15053e-10
1.28143e-08
9.27913e-10
2.20518e-10
1.2497e-08
9.21004e-10
3.20645e-10
1.22271e-08
9.18718e-10
4.18546e-10
1.20024e-08
9.21538e-10
5.16537e-10
1.18205e-08
9.29511e-10
6.16598e-10
1.16799e-08
9.42745e-10
7.20673e-10
1.15791e-08
9.61543e-10
8.30939e-10
1.15172e-08
9.86594e-10
9.49154e-10
1.14928e-08
1.01987e-09
1.15067e-08
1.07113e-09
1.07113e-09
2.64978e-10
2.64926e-10
1.17233e-08
5.27041e-10
2.6722e-10
1.15627e-08
7.92529e-10
2.71764e-10
1.14459e-08
1.06733e-09
2.78588e-10
1.13731e-08
1.35752e-09
2.87808e-10
1.1345e-08
1.66961e-09
2.9962e-10
1.13628e-08
2.01072e-09
3.14272e-10
1.14288e-08
2.38854e-09
3.32078e-10
1.15466e-08
2.81123e-09
3.53485e-10
1.17213e-08
3.79239e-10
1.19596e-08
3.28667e-09
2.67267e-10
5.27009e-10
1.15626e-08
5.31055e-10
5.30999e-10
1.13986e-08
7.9756e-10
5.39284e-10
1.12762e-08
1.07262e-09
5.52026e-10
1.11954e-08
1.36214e-09
5.69365e-10
1.11567e-08
1.6724e-09
5.91619e-10
1.11612e-08
2.01018e-09
6.19208e-10
1.12111e-08
2.38292e-09
6.52647e-10
1.13094e-08
2.79867e-09
6.92601e-10
1.14602e-08
7.40758e-10
1.16689e-08
3.26523e-09
2.71779e-10
7.92537e-10
1.14457e-08
5.3933e-10
7.97538e-10
1.12761e-08
8.08705e-10
8.08653e-10
1.11467e-08
1.08569e-09
8.26282e-10
1.10568e-08
1.37612e-09
8.50595e-10
1.10066e-08
1.68607e-09
8.81932e-10
1.09974e-08
2.02207e-09
9.20823e-10
1.10309e-08
2.39122e-09
9.67911e-10
1.11096e-08
2.80126e-09
1.02394e-09
1.12372e-08
1.09174e-09
1.14179e-08
3.25947e-09
2.78581e-10
1.06735e-09
1.13731e-08
5.52033e-10
1.07263e-09
1.11953e-08
8.26321e-10
1.08566e-09
1.10566e-08
1.10714e-09
1.10709e-09
1.09561e-08
1.40025e-09
1.13718e-09
1.08936e-08
1.7116e-09
1.17629e-09
1.08698e-08
2.0475e-09
1.22494e-09
1.08863e-08
2.4147e-09
1.28386e-09
1.09455e-08
2.82052e-09
1.35382e-09
1.10503e-08
1.43907e-09
1.12042e-08
3.27136e-09
2.87797e-10
1.35753e-09
1.13451e-08
5.69349e-10
1.36216e-09
1.11567e-08
8.50594e-10
1.37612e-09
1.10065e-08
1.13722e-09
1.40022e-09
1.08935e-08
1.43487e-09
1.4348e-09
1.08172e-08
1.74934e-09
1.48031e-09
1.0778e-08
2.08675e-09
1.53726e-09
1.07769e-08
2.45359e-09
1.6063e-09
1.0816e-08
2.85671e-09
1.68817e-09
1.08981e-08
1.78893e-09
1.10258e-08
3.30158e-09
2.9961e-10
1.66962e-09
1.13628e-08
5.916e-10
1.67241e-09
1.11613e-08
8.8191e-10
1.68608e-09
1.09974e-08
1.17628e-09
1.7116e-09
1.08697e-08
1.48035e-09
1.74929e-09
1.07778e-08
1.79977e-09
1.79966e-09
1.07219e-08
2.14036e-09
1.86332e-09
1.07025e-08
2.50839e-09
1.94082e-09
1.07208e-08
2.91036e-09
2.03269e-09
1.07797e-08
2.14706e-09
1.08813e-08
3.35078e-09
3.14262e-10
2.01072e-09
1.14288e-08
6.1919e-10
2.01018e-09
1.12112e-08
9.20796e-10
2.02207e-09
1.10309e-08
1.2249e-09
2.04751e-09
1.08863e-08
1.53723e-09
2.08675e-09
1.07767e-08
1.86338e-09
2.14029e-09
1.07022e-08
2.20894e-09
2.20883e-09
1.0663e-08
2.57979e-09
2.29295e-09
1.06599e-08
2.98219e-09
2.39288e-09
1.06946e-08
2.51889e-09
1.07697e-08
3.41977e-09
3.32069e-10
2.38854e-09
1.15466e-08
6.5263e-10
2.38292e-09
1.13094e-08
9.67887e-10
2.39122e-09
1.11096e-08
1.28383e-09
2.41471e-09
1.09455e-08
1.60625e-09
2.45362e-09
1.08159e-08
1.9408e-09
2.50841e-09
1.07205e-08
2.29299e-09
2.57976e-09
1.06595e-08
2.66841e-09
2.66837e-09
1.06331e-08
3.0729e-09
2.77416e-09
1.06424e-08
2.90947e-09
1.06901e-08
3.50943e-09
3.53478e-10
2.81122e-09
1.17213e-08
6.92588e-10
2.79867e-09
1.14603e-08
1.02393e-09
2.80126e-09
1.12373e-08
1.3538e-09
2.82052e-09
1.10504e-08
1.68816e-09
2.85673e-09
1.08981e-08
2.03269e-09
2.9104e-09
1.07796e-08
2.39287e-09
2.98222e-09
1.06944e-08
2.77416e-09
3.07288e-09
1.06423e-08
3.18205e-09
3.18201e-09
1.0624e-08
3.32256e-09
1.06413e-08
3.62051e-09
3.79233e-10
1.19596e-08
3.28666e-09
7.40749e-10
1.16689e-08
3.26522e-09
1.09173e-09
1.14179e-08
3.25947e-09
1.43906e-09
1.12042e-08
3.27136e-09
1.78893e-09
1.10258e-08
3.30159e-09
2.14707e-09
1.08813e-08
3.35079e-09
2.51889e-09
1.07697e-08
3.4198e-09
2.90946e-09
1.069e-08
3.50945e-09
3.32257e-09
1.06412e-08
3.62051e-09
1.06253e-08
3.76326e-09
3.76325e-09
4.29428e-10
4.29394e-10
1.08645e-08
8.53461e-10
4.32916e-10
1.07058e-08
1.28193e-09
4.39737e-10
1.05777e-08
1.72436e-09
4.50117e-10
1.04806e-08
2.19071e-09
4.64327e-10
1.04143e-08
2.6919e-09
4.82744e-10
1.03789e-08
3.24016e-09
5.05883e-10
1.03746e-08
3.84957e-09
5.34457e-10
1.04027e-08
4.5363e-09
5.69554e-10
1.0465e-08
6.12968e-10
1.05641e-08
5.31882e-09
4.3294e-10
8.53437e-10
1.07056e-08
8.59804e-10
8.59766e-10
1.05448e-08
1.29017e-09
8.72413e-10
1.04132e-08
1.73335e-09
8.91902e-10
1.03104e-08
2.19904e-09
9.18673e-10
1.02366e-08
2.6977e-09
9.5341e-10
1.01919e-08
3.24109e-09
9.97004e-10
1.01766e-08
3.84268e-09
1.05066e-09
1.01916e-08
4.51819e-09
1.11608e-09
1.02382e-08
1.19683e-09
1.0318e-08
5.28518e-09
4.39734e-10
1.28194e-09
1.05775e-08
8.72429e-10
1.29015e-09
1.0413e-08
1.30748e-09
1.30745e-09
1.02766e-08
1.75402e-09
1.33469e-09
1.01674e-08
2.22151e-09
1.37241e-09
1.00854e-08
2.72012e-09
1.42147e-09
1.00307e-08
3.26114e-09
1.48308e-09
1.00038e-08
3.85744e-09
1.55879e-09
1.00052e-08
4.52407e-09
1.65063e-09
1.00361e-08
1.76415e-09
1.00975e-08
5.27717e-09
4.50107e-10
1.72438e-09
1.04806e-08
8.91888e-10
1.73336e-09
1.03103e-08
1.3347e-09
1.75399e-09
1.01673e-08
1.78753e-09
1.78748e-09
1.00505e-08
2.25961e-09
1.83451e-09
9.95942e-09
2.76089e-09
1.89599e-09
9.89399e-09
3.30227e-09
1.97332e-09
9.85471e-09
3.89605e-09
2.06835e-09
9.84212e-09
4.55648e-09
2.18334e-09
9.8572e-09
2.32626e-09
9.90061e-09
5.29795e-09
4.6432e-10
2.19073e-09
1.04144e-08
9.18657e-10
2.19905e-09
1.02366e-08
1.37239e-09
2.22151e-09
1.00852e-08
1.83451e-09
2.25957e-09
9.95926e-09
2.31412e-09
2.31406e-09
9.85804e-09
2.82083e-09
2.38605e-09
9.7812e-09
3.36524e-09
2.47695e-09
9.72885e-09
3.95921e-09
2.58872e-09
9.70162e-09
4.61622e-09
2.72386e-09
9.70058e-09
2.89327e-09
9.72607e-09
5.34891e-09
4.82739e-10
2.69191e-09
1.03789e-08
9.53399e-10
2.69772e-09
1.0192e-08
1.42145e-09
2.72014e-09
1.00307e-08
1.89595e-09
2.76088e-09
9.89387e-09
2.38604e-09
2.82076e-09
9.78102e-09
2.90116e-09
2.90105e-09
9.6918e-09
3.45141e-09
3.00331e-09
9.62584e-09
4.04824e-09
3.12939e-09
9.58332e-09
4.70462e-09
3.28176e-09
9.56544e-09
3.47492e-09
9.57276e-09
5.43152e-09
5.05878e-10
3.24018e-09
1.03747e-08
9.96994e-10
3.2411e-09
1.01767e-08
1.48307e-09
3.26116e-09
1.00038e-08
1.97328e-09
3.30229e-09
9.85471e-09
2.47686e-09
3.36523e-09
9.72867e-09
3.00328e-09
3.45128e-09
9.6255e-09
3.56237e-09
3.56226e-09
9.545e-09
4.16494e-09
3.70009e-09
9.48661e-09
4.82348e-09
3.8668e-09
9.45101e-09
4.08082e-09
9.4396e-09
5.54767e-09
5.34454e-10
3.84958e-09
1.04028e-08
1.05065e-09
3.84269e-09
1.01916e-08
1.55878e-09
3.85746e-09
1.00052e-08
2.06833e-09
3.89607e-09
9.84215e-09
2.58867e-09
3.95924e-09
9.70158e-09
3.12928e-09
4.04821e-09
9.58298e-09
3.70002e-09
4.16483e-09
9.48623e-09
4.31129e-09
4.31124e-09
9.41063e-09
4.97492e-09
4.48909e-09
9.35646e-09
4.7207e-09
9.32554e-09
5.69958e-09
5.69552e-10
4.53631e-09
1.0465e-08
1.11608e-09
4.51821e-09
1.02382e-08
1.65063e-09
4.52408e-09
1.00361e-08
2.18334e-09
4.55649e-09
9.85723e-09
2.72387e-09
4.61623e-09
9.7006e-09
3.28173e-09
4.70463e-09
9.56535e-09
3.8667e-09
4.82346e-09
9.45085e-09
4.48902e-09
4.97486e-09
9.35635e-09
5.16009e-09
5.16006e-09
9.28195e-09
5.40315e-09
9.22903e-09
5.88993e-09
6.12967e-10
1.05641e-08
5.31883e-09
1.19683e-09
1.03181e-08
5.28519e-09
1.76415e-09
1.00975e-08
5.27718e-09
2.32626e-09
9.90062e-09
5.29796e-09
2.89328e-09
9.72609e-09
5.34892e-09
3.47492e-09
9.57279e-09
5.43153e-09
4.0808e-09
9.43965e-09
5.54768e-09
4.72063e-09
9.32549e-09
5.69957e-09
5.4031e-09
9.2289e-09
5.88988e-09
9.15167e-09
6.13995e-09
6.13993e-09
5.48251e-10
5.48235e-10
9.76802e-09
1.08841e-09
5.52317e-10
9.61332e-09
1.63191e-09
5.60099e-10
9.47406e-09
2.19002e-09
5.72008e-10
9.35047e-09
2.7745e-09
5.88396e-10
9.24146e-09
3.39825e-09
6.09716e-10
9.14539e-09
4.07591e-09
6.36605e-10
9.06037e-09
4.82452e-09
6.69991e-10
8.98412e-09
5.66436e-09
7.11337e-10
8.9138e-09
7.63095e-10
8.84564e-09
6.61973e-09
5.52317e-10
1.08839e-09
9.61314e-09
1.09585e-09
1.09584e-09
9.45779e-09
1.64173e-09
1.11039e-09
9.317e-09
2.20087e-09
1.13282e-09
9.19044e-09
2.78472e-09
1.16373e-09
9.07744e-09
3.40568e-09
1.20398e-09
8.9767e-09
4.07776e-09
1.25467e-09
8.88647e-09
4.81732e-09
1.31739e-09
8.80461e-09
5.64398e-09
1.39443e-09
8.72843e-09
1.49043e-09
8.65396e-09
6.58072e-09
5.60079e-10
1.63192e-09
9.4739e-09
1.11038e-09
1.64171e-09
9.31682e-09
1.66181e-09
1.66178e-09
9.17378e-09
2.22499e-09
1.69328e-09
9.04381e-09
2.81106e-09
1.7369e-09
8.92613e-09
3.43208e-09
1.79377e-09
8.81987e-09
4.10153e-09
1.86546e-09
8.72354e-09
4.83505e-09
1.95398e-09
8.63506e-09
5.65143e-09
2.0621e-09
8.55201e-09
2.19687e-09
8.47063e-09
6.57185e-09
5.71998e-10
2.19003e-09
9.35046e-09
1.13279e-09
2.20088e-09
9.19032e-09
1.69325e-09
2.22495e-09
9.04364e-09
2.26384e-09
2.26381e-09
8.90941e-09
2.85537e-09
2.3183e-09
8.78649e-09
3.47958e-09
2.38963e-09
8.67392e-09
4.14957e-09
2.47963e-09
8.57055e-09
4.8803e-09
2.59077e-09
8.4746e-09
5.68963e-09
2.72615e-09
8.38383e-09
2.8957e-09
8.2948e-09
6.59661e-09
5.88395e-10
2.77452e-09
9.2415e-09
1.16371e-09
2.78474e-09
9.07744e-09
1.73685e-09
2.81105e-09
8.92601e-09
2.31827e-09
2.85532e-09
8.78633e-09
2.91863e-09
2.91858e-09
8.65741e-09
3.54927e-09
3.00219e-09
8.53801e-09
4.22288e-09
3.10802e-09
8.42685e-09
4.95399e-09
3.23875e-09
8.32253e-09
5.75961e-09
3.39789e-09
8.22323e-09
3.59887e-09
8.12581e-09
6.65669e-09
6.09715e-10
3.39828e-09
9.14543e-09
1.20397e-09
3.4057e-09
8.97673e-09
1.79375e-09
3.4321e-09
8.81986e-09
2.38956e-09
3.47958e-09
8.6738e-09
3.00214e-09
3.54918e-09
8.53783e-09
3.64265e-09
3.64254e-09
8.41095e-09
4.3232e-09
3.76171e-09
8.29159e-09
5.05784e-09
3.90924e-09
8.17819e-09
5.86307e-09
4.08873e-09
8.06937e-09
4.31797e-09
7.96277e-09
6.75395e-09
6.36605e-10
4.07594e-09
9.06041e-09
1.25467e-09
4.07779e-09
8.88651e-09
1.86545e-09
4.10155e-09
8.72357e-09
2.47959e-09
4.1496e-09
8.57054e-09
3.10789e-09
4.22287e-09
8.42669e-09
3.76161e-09
4.32304e-09
8.29128e-09
4.45265e-09
4.45255e-09
8.16313e-09
5.19425e-09
4.61402e-09
8.04023e-09
6.00239e-09
4.81056e-09
7.92105e-09
5.06474e-09
7.80443e-09
6.8908e-09
6.69992e-10
4.82455e-09
8.98416e-09
1.31739e-09
4.81734e-09
8.80465e-09
1.95398e-09
4.83507e-09
8.6351e-09
2.59077e-09
4.88033e-09
8.47463e-09
3.2387e-09
4.95402e-09
8.32249e-09
3.90905e-09
5.05778e-09
8.17788e-09
4.61385e-09
5.19409e-09
8.0399e-09
5.36594e-09
5.3659e-09
7.90666e-09
6.18051e-09
5.57592e-09
7.77654e-09
5.85146e-09
7.64915e-09
7.07018e-09
7.11339e-10
5.66439e-09
8.91384e-09
1.39444e-09
5.644e-09
8.72846e-09
2.06211e-09
5.65145e-09
8.55203e-09
2.72616e-09
5.68965e-09
8.38385e-09
3.39792e-09
5.75962e-09
8.22325e-09
4.0887e-09
5.86306e-09
8.06929e-09
4.81039e-09
6.00234e-09
7.9209e-09
5.57579e-09
6.18042e-09
7.77644e-09
6.39963e-09
6.3996e-09
7.63443e-09
6.68969e-09
7.49456e-09
7.29587e-09
7.63097e-10
8.84566e-09
6.61975e-09
1.49043e-09
8.65398e-09
6.58074e-09
2.19687e-09
8.47064e-09
6.57187e-09
2.89571e-09
8.29481e-09
6.59662e-09
3.59888e-09
8.12583e-09
6.6567e-09
4.31798e-09
7.9628e-09
6.75396e-09
5.0647e-09
7.80446e-09
6.8908e-09
5.85135e-09
7.6491e-09
7.07016e-09
6.68959e-09
7.49445e-09
7.29579e-09
7.34057e-09
7.5952e-09
7.59518e-09
6.12542e-10
6.12542e-10
8.54293e-09
1.21415e-09
6.16446e-10
8.39527e-09
1.81573e-09
6.23757e-10
8.24873e-09
2.42794e-09
6.34954e-10
8.1033e-09
3.06177e-09
6.50357e-10
7.95728e-09
3.72896e-09
6.70338e-10
7.80787e-09
4.44246e-09
6.95429e-10
7.65144e-09
5.21698e-09
7.26419e-10
7.48317e-09
6.06948e-09
7.64581e-10
7.29672e-09
8.12057e-10
7.08351e-09
7.01955e-09
6.16429e-10
1.21414e-09
8.39511e-09
1.22133e-09
1.22133e-09
8.24801e-09
1.82525e-09
1.23506e-09
8.10178e-09
2.43852e-09
1.25616e-09
7.95597e-09
3.07179e-09
1.2852e-09
7.80934e-09
3.73635e-09
1.32289e-09
7.65958e-09
4.44468e-09
1.37017e-09
7.5034e-09
5.21092e-09
1.42837e-09
7.33643e-09
6.05161e-09
1.49942e-09
7.1529e-09
1.58733e-09
6.94485e-09
6.98545e-09
6.23726e-10
1.81573e-09
8.24859e-09
1.23502e-09
1.82523e-09
8.10162e-09
1.84423e-09
1.84422e-09
7.95541e-09
2.46131e-09
1.87386e-09
7.80903e-09
3.09659e-09
1.91477e-09
7.66126e-09
3.7611e-09
1.96794e-09
7.51032e-09
4.46681e-09
2.03467e-09
7.35333e-09
5.22732e-09
2.11664e-09
7.18628e-09
6.05856e-09
2.21615e-09
7.00403e-09
2.33927e-09
6.79941e-09
6.97784e-09
6.34943e-10
2.42796e-09
8.1033e-09
1.25612e-09
2.43852e-09
7.95586e-09
1.87381e-09
2.46127e-09
7.80889e-09
2.49781e-09
2.49779e-09
7.66149e-09
3.13807e-09
2.54877e-09
7.51223e-09
3.80529e-09
2.61523e-09
7.35939e-09
4.51117e-09
2.69872e-09
7.20062e-09
5.26872e-09
2.80131e-09
7.03239e-09
6.09313e-09
2.92549e-09
6.85008e-09
3.07989e-09
6.64732e-09
6.99999e-09
6.50358e-10
3.06179e-09
7.95731e-09
1.28518e-09
3.0718e-09
7.80934e-09
1.91471e-09
3.09659e-09
7.66117e-09
2.54872e-09
3.13802e-09
7.51209e-09
3.197e-09
3.19696e-09
7.36093e-09
3.86984e-09
3.27454e-09
7.20587e-09
4.57854e-09
3.37225e-09
7.04463e-09
5.33579e-09
3.49234e-09
6.87425e-09
6.15612e-09
3.63765e-09
6.69074e-09
3.81991e-09
6.48855e-09
7.05337e-09
6.7034e-10
3.72898e-09
7.8079e-09
1.32289e-09
3.73638e-09
7.65961e-09
1.96792e-09
3.76111e-09
7.51031e-09
2.61515e-09
3.80529e-09
7.3593e-09
3.27447e-09
3.86975e-09
7.20573e-09
3.95595e-09
3.95587e-09
7.04813e-09
4.67036e-09
4.06526e-09
6.88416e-09
5.42995e-09
4.19996e-09
6.71098e-09
6.24887e-09
4.36284e-09
6.52526e-09
4.56957e-09
6.32251e-09
7.13947e-09
6.95431e-10
4.44248e-09
7.65147e-09
1.37018e-09
4.44471e-09
7.50343e-09
2.03467e-09
4.46684e-09
7.35335e-09
2.69869e-09
4.5112e-09
7.20061e-09
3.37211e-09
4.57853e-09
7.0445e-09
4.06513e-09
4.6702e-09
6.88393e-09
4.78829e-09
4.78821e-09
6.71702e-09
5.55307e-09
4.93457e-09
6.54084e-09
6.3732e-09
5.11156e-09
6.35221e-09
5.33912e-09
6.14799e-09
7.2601e-09
7.26423e-10
5.21701e-09
7.48321e-09
1.42837e-09
5.21095e-09
7.33646e-09
2.11665e-09
5.22735e-09
7.18631e-09
2.80132e-09
5.26875e-09
7.03242e-09
3.4923e-09
5.33582e-09
6.87422e-09
4.19975e-09
5.42987e-09
6.71075e-09
4.93437e-09
5.5529e-09
6.54059e-09
5.70725e-09
5.70722e-09
6.36112e-09
6.53136e-09
5.89462e-09
6.16936e-09
6.13915e-09
5.96311e-09
7.41736e-09
7.64586e-10
6.06952e-09
7.29675e-09
1.49943e-09
6.05164e-09
7.15293e-09
2.21617e-09
6.05859e-09
7.00405e-09
2.92551e-09
6.09316e-09
6.8501e-09
3.63769e-09
6.15613e-09
6.69076e-09
4.3628e-09
6.24885e-09
6.5252e-09
5.11137e-09
6.37314e-09
6.35209e-09
5.89448e-09
6.53127e-09
6.16928e-09
6.72467e-09
6.72465e-09
5.97421e-09
6.97926e-09
5.76515e-09
7.61397e-09
8.12061e-10
7.08353e-09
7.01959e-09
1.58734e-09
6.94486e-09
6.98548e-09
2.33928e-09
6.79943e-09
6.97787e-09
3.07991e-09
6.64733e-09
7.00001e-09
3.81992e-09
6.48856e-09
7.05338e-09
4.56957e-09
6.32252e-09
7.13947e-09
5.33908e-09
6.148e-09
7.2601e-09
6.13903e-09
5.96308e-09
7.41734e-09
6.97916e-09
5.76508e-09
7.6139e-09
5.5526e-09
7.87321e-09
7.87319e-09
6.24209e-10
6.24217e-10
7.29451e-09
1.23486e-09
6.27366e-10
7.15726e-09
1.84059e-09
6.33097e-10
7.00989e-09
2.44967e-09
6.41845e-10
6.85238e-09
3.07023e-09
6.53809e-10
6.68291e-09
3.71046e-09
6.69174e-10
6.49847e-09
4.37871e-09
6.88202e-10
6.29498e-09
5.08354e-09
7.11297e-10
6.06704e-09
5.83357e-09
7.39141e-10
5.80755e-09
7.72891e-10
5.50721e-09
6.63698e-09
6.27341e-10
1.23485e-09
7.15713e-09
1.24067e-09
1.24068e-09
7.02136e-09
1.84833e-09
1.25147e-09
6.87575e-09
2.45826e-09
1.26793e-09
6.71995e-09
3.07838e-09
1.29042e-09
6.55261e-09
3.71658e-09
1.31934e-09
6.37121e-09
4.38095e-09
1.35513e-09
6.17209e-09
5.07984e-09
1.39844e-09
5.9504e-09
5.82194e-09
1.45019e-09
5.69975e-09
1.51264e-09
5.41171e-09
6.61533e-09
6.33063e-10
1.84059e-09
7.00979e-09
1.25142e-09
1.84831e-09
6.87563e-09
1.8632e-09
1.8632e-09
6.7319e-09
2.47601e-09
1.88625e-09
6.57791e-09
3.09749e-09
1.91779e-09
6.41241e-09
3.73537e-09
1.95837e-09
6.23341e-09
4.39745e-09
2.00863e-09
6.03774e-09
5.09182e-09
2.06935e-09
5.821e-09
5.82702e-09
2.1415e-09
5.57752e-09
2.22858e-09
5.29983e-09
6.61066e-09
6.41834e-10
2.44968e-09
6.85237e-09
1.26788e-09
2.45826e-09
6.71986e-09
1.88619e-09
2.47598e-09
6.5778e-09
2.50419e-09
2.50418e-09
6.42556e-09
3.12917e-09
2.54321e-09
6.26183e-09
3.76862e-09
2.59353e-09
6.08478e-09
4.43019e-09
2.65592e-09
5.89177e-09
5.12165e-09
2.73132e-09
5.67896e-09
5.85122e-09
2.82069e-09
5.44132e-09
2.92917e-09
5.17229e-09
6.62566e-09
6.53811e-10
3.07025e-09
6.68293e-09
1.29041e-09
3.07839e-09
6.55261e-09
1.91773e-09
3.09748e-09
6.41234e-09
2.54315e-09
3.12913e-09
6.26173e-09
3.17379e-09
3.17377e-09
6.09972e-09
3.81678e-09
3.23188e-09
5.92453e-09
4.4795e-09
3.30409e-09
5.73373e-09
5.16957e-09
3.3914e-09
5.52409e-09
5.89489e-09
3.49486e-09
5.29126e-09
3.62169e-09
5.02959e-09
6.66133e-09
6.69177e-10
3.71048e-09
6.49849e-09
1.31935e-09
3.7166e-09
6.37123e-09
1.95835e-09
3.73538e-09
6.23341e-09
2.59345e-09
3.76862e-09
6.08471e-09
3.23181e-09
3.81672e-09
5.92443e-09
3.88037e-09
3.8803e-09
5.75115e-09
4.54604e-09
3.96001e-09
5.56257e-09
5.23618e-09
4.05654e-09
5.3557e-09
5.95858e-09
4.17084e-09
5.12689e-09
4.31283e-09
4.87159e-09
6.71837e-09
6.88205e-10
4.37874e-09
6.29501e-09
1.35514e-09
4.38098e-09
6.17212e-09
2.00864e-09
4.39748e-09
6.03776e-09
2.65589e-09
4.43022e-09
5.89176e-09
3.30397e-09
4.47949e-09
5.73364e-09
3.95988e-09
4.54591e-09
5.56241e-09
4.63038e-09
4.63033e-09
5.37621e-09
5.32222e-09
4.73334e-09
5.1722e-09
6.04293e-09
4.85526e-09
4.94707e-09
5.00887e-09
4.69747e-09
6.7974e-09
7.11302e-10
5.08357e-09
6.06707e-09
1.39844e-09
5.07987e-09
5.95042e-09
2.06936e-09
5.09185e-09
5.82102e-09
2.73134e-09
5.12168e-09
5.67898e-09
3.39136e-09
5.1696e-09
5.52408e-09
4.05635e-09
5.23612e-09
5.35555e-09
4.73316e-09
5.32207e-09
5.17203e-09
5.42825e-09
5.42823e-09
4.97114e-09
6.1486e-09
5.55439e-09
4.74988e-09
5.71588e-09
4.50579e-09
6.89892e-09
7.39145e-10
5.8336e-09
5.80757e-09
1.4502e-09
5.82197e-09
5.69977e-09
2.14152e-09
5.82705e-09
5.57754e-09
2.82071e-09
5.85125e-09
5.44133e-09
3.4949e-09
5.89491e-09
5.29127e-09
4.1708e-09
5.95857e-09
5.12685e-09
4.8551e-09
6.04288e-09
4.94699e-09
5.55426e-09
6.14853e-09
4.74982e-09
6.27499e-09
6.27498e-09
4.53288e-09
6.43823e-09
4.29431e-09
7.02348e-09
7.72896e-10
5.50723e-09
6.63701e-09
1.51265e-09
5.41172e-09
6.61536e-09
2.22859e-09
5.29984e-09
6.61069e-09
2.92919e-09
5.1723e-09
6.62568e-09
3.62171e-09
5.0296e-09
6.66134e-09
4.31283e-09
4.8716e-09
6.71837e-09
5.00884e-09
4.69748e-09
6.7974e-09
5.71578e-09
4.50576e-09
6.89891e-09
6.43814e-09
4.29427e-09
7.02343e-09
4.0614e-09
7.18379e-09
7.18378e-09
5.93748e-10
5.93759e-10
6.107e-09
1.172e-09
5.95875e-10
5.98313e-09
1.74034e-09
5.9952e-10
5.84203e-09
2.30383e-09
6.05036e-10
5.68386e-09
2.867e-09
6.12482e-10
5.50725e-09
3.43379e-09
6.21849e-10
5.30983e-09
4.00734e-09
6.33122e-10
5.08831e-09
4.58966e-09
6.46308e-10
4.83842e-09
5.18101e-09
6.61485e-10
4.55472e-09
6.78827e-10
4.23045e-09
5.77894e-09
5.95849e-10
1.172e-09
5.98303e-09
1.17593e-09
1.17594e-09
5.86122e-09
1.74558e-09
1.1828e-09
5.72282e-09
2.30963e-09
1.19314e-09
5.56778e-09
2.87253e-09
1.20707e-09
5.39513e-09
3.43809e-09
1.22462e-09
5.20288e-09
4.00944e-09
1.24573e-09
4.98813e-09
4.58872e-09
1.27036e-09
4.74707e-09
5.17666e-09
1.29846e-09
4.47484e-09
1.3305e-09
4.16536e-09
5.77134e-09
5.99489e-10
1.74035e-09
5.84195e-09
1.18276e-09
1.74556e-09
5.72273e-09
1.75498e-09
1.75499e-09
5.5875e-09
2.32071e-09
1.76935e-09
5.43597e-09
2.8842e-09
1.78869e-09
5.2673e-09
3.44925e-09
1.81306e-09
5.07993e-09
4.0189e-09
1.84241e-09
4.8714e-09
4.59533e-09
1.87662e-09
4.63831e-09
5.17956e-09
1.91538e-09
4.37636e-09
1.95964e-09
4.08025e-09
5.77e-09
6.05027e-10
2.30384e-09
5.68385e-09
1.1931e-09
2.30963e-09
5.56772e-09
1.7693e-09
2.32069e-09
5.43589e-09
2.33803e-09
2.33802e-09
5.28816e-09
2.90326e-09
2.36161e-09
5.12368e-09
3.46866e-09
2.39135e-09
4.94108e-09
4.03728e-09
2.4272e-09
4.73836e-09
4.61127e-09
2.469e-09
4.51259e-09
5.19171e-09
2.51623e-09
4.26002e-09
2.57055e-09
3.97607e-09
5.77702e-09
6.12484e-10
2.86702e-09
5.50727e-09
1.20706e-09
2.87254e-09
5.39513e-09
1.78864e-09
2.8842e-09
5.26724e-09
2.36155e-09
2.90323e-09
5.1236e-09
2.92965e-09
2.92963e-09
4.9636e-09
3.49631e-09
2.96325e-09
4.78597e-09
4.06447e-09
3.00382e-09
4.58895e-09
4.63635e-09
3.0511e-09
4.37012e-09
5.21305e-09
3.10449e-09
4.1263e-09
3.16664e-09
3.85364e-09
5.79292e-09
6.21852e-10
3.43381e-09
5.30985e-09
1.22462e-09
3.43811e-09
5.20289e-09
1.81304e-09
3.44926e-09
5.07993e-09
2.39128e-09
3.46866e-09
4.94103e-09
2.96318e-09
3.49626e-09
4.7859e-09
3.532e-09
3.53196e-09
4.61362e-09
4.10038e-09
3.57544e-09
4.42257e-09
4.67042e-09
3.62612e-09
4.21063e-09
5.24341e-09
3.68319e-09
3.9752e-09
3.75067e-09
3.71327e-09
5.8177e-09
6.33125e-10
4.00737e-09
5.08833e-09
1.24573e-09
4.00947e-09
4.98815e-09
1.84242e-09
4.01892e-09
4.87142e-09
2.42718e-09
4.03731e-09
4.73836e-09
3.00372e-09
4.06447e-09
4.58889e-09
3.57534e-09
4.10028e-09
4.42247e-09
4.14457e-09
4.14453e-09
4.23789e-09
4.71317e-09
4.1965e-09
4.03323e-09
5.28242e-09
4.25478e-09
3.80623e-09
4.32477e-09
3.55479e-09
5.851e-09
6.46312e-10
4.58969e-09
4.83844e-09
1.27037e-09
4.58875e-09
4.74709e-09
1.87663e-09
4.59536e-09
4.63832e-09
2.46901e-09
4.61129e-09
4.51261e-09
3.05108e-09
4.63637e-09
4.37011e-09
3.62598e-09
4.67038e-09
4.21054e-09
4.19635e-09
4.71307e-09
4.03312e-09
4.76382e-09
4.76381e-09
3.83637e-09
5.32937e-09
4.82078e-09
3.61832e-09
4.89034e-09
3.37754e-09
5.89205e-09
6.61489e-10
5.18104e-09
4.55473e-09
1.29847e-09
5.17669e-09
4.47485e-09
1.9154e-09
5.17959e-09
4.37638e-09
2.51625e-09
5.19174e-09
4.26003e-09
3.10452e-09
5.21307e-09
4.12631e-09
3.68317e-09
5.24341e-09
3.97518e-09
4.25466e-09
5.28239e-09
3.80618e-09
4.82069e-09
5.32933e-09
3.61828e-09
5.38217e-09
5.38217e-09
3.41002e-09
5.44673e-09
3.18041e-09
5.93968e-09
6.78831e-10
4.23046e-09
5.77898e-09
1.33051e-09
4.16537e-09
5.77137e-09
1.95965e-09
4.08026e-09
5.77003e-09
2.57056e-09
3.97608e-09
5.77705e-09
3.16665e-09
3.85365e-09
5.79293e-09
3.75068e-09
3.71328e-09
5.81771e-09
4.32475e-09
3.55479e-09
5.85101e-09
4.89027e-09
3.37753e-09
5.89205e-09
5.44666e-09
3.18039e-09
5.93966e-09
2.96256e-09
5.99611e-09
5.99611e-09
5.35817e-10
5.35828e-10
5.03535e-09
1.05525e-09
5.36932e-10
4.92676e-09
1.56095e-09
5.38582e-10
4.79776e-09
2.05495e-09
5.41021e-10
4.64883e-09
2.53866e-09
5.44212e-10
4.47933e-09
3.01252e-09
5.4802e-10
4.28795e-09
3.47576e-09
5.52257e-10
4.07281e-09
3.92594e-09
5.56689e-10
3.83155e-09
4.35826e-09
5.61042e-10
3.56135e-09
5.6492e-10
3.25905e-09
4.76473e-09
5.3691e-10
1.05526e-09
4.92669e-09
1.05732e-09
1.05734e-09
4.8204e-09
1.56372e-09
1.06045e-09
4.69456e-09
2.05805e-09
1.06498e-09
4.5495e-09
2.54167e-09
1.07087e-09
4.38485e-09
3.01508e-09
1.0779e-09
4.19958e-09
3.47767e-09
1.08574e-09
3.99206e-09
3.9273e-09
1.0939e-09
3.76023e-09
4.35981e-09
1.10179e-09
3.50158e-09
1.10887e-09
3.21329e-09
4.76792e-09
5.38557e-10
1.56095e-09
4.7977e-09
1.06041e-09
1.56371e-09
4.6945e-09
1.56792e-09
1.56793e-09
4.57251e-09
2.06284e-09
1.57411e-09
4.43192e-09
2.54647e-09
1.58209e-09
4.27245e-09
3.01934e-09
1.59158e-09
4.09338e-09
3.48095e-09
1.60215e-09
3.89338e-09
3.92939e-09
1.6131e-09
3.67066e-09
4.36098e-09
1.62349e-09
3.42307e-09
1.63271e-09
3.14818e-09
4.76921e-09
5.41014e-10
2.05496e-09
4.64882e-09
1.06495e-09
2.05805e-09
4.54945e-09
1.57407e-09
2.06283e-09
4.43186e-09
2.07003e-09
2.07003e-09
4.29628e-09
2.55395e-09
2.0794e-09
4.14245e-09
3.02635e-09
2.09048e-09
3.96978e-09
3.48682e-09
2.10274e-09
3.7773e-09
3.93362e-09
2.11537e-09
3.56352e-09
4.3634e-09
2.12712e-09
3.32662e-09
2.13744e-09
3.06462e-09
4.77012e-09
5.44214e-10
2.53867e-09
4.47935e-09
1.07086e-09
2.54168e-09
4.38485e-09
1.58205e-09
2.54646e-09
4.27242e-09
2.07935e-09
2.55393e-09
4.1424e-09
2.56381e-09
2.56381e-09
3.99473e-09
3.0358e-09
2.57555e-09
3.82891e-09
3.49491e-09
2.58842e-09
3.64415e-09
3.93962e-09
2.60146e-09
3.43932e-09
4.36681e-09
2.61325e-09
3.21297e-09
2.62347e-09
2.96355e-09
4.77087e-09
5.48022e-10
3.01253e-09
4.28796e-09
1.07791e-09
3.0151e-09
4.19959e-09
1.59157e-09
3.01935e-09
4.09338e-09
2.09043e-09
3.02635e-09
3.96975e-09
2.57551e-09
3.03577e-09
3.82887e-09
3.04711e-09
3.04708e-09
3.67049e-09
3.50471e-09
3.05945e-09
3.49394e-09
3.94683e-09
3.07165e-09
3.29832e-09
4.37069e-09
3.08202e-09
3.08257e-09
3.09067e-09
2.84564e-09
4.77113e-09
5.52259e-10
3.47578e-09
4.07283e-09
1.08574e-09
3.47769e-09
3.99207e-09
1.60215e-09
3.48097e-09
3.8934e-09
2.10272e-09
3.48684e-09
3.7773e-09
2.58835e-09
3.49491e-09
3.64412e-09
3.05938e-09
3.50464e-09
3.49388e-09
3.51526e-09
3.51524e-09
3.32622e-09
3.9544e-09
3.52535e-09
3.14039e-09
4.37419e-09
3.53288e-09
2.93557e-09
3.53826e-09
2.71126e-09
4.77012e-09
5.56691e-10
3.92596e-09
3.83156e-09
1.0939e-09
3.92733e-09
3.76024e-09
1.61311e-09
3.92941e-09
3.67068e-09
2.11538e-09
3.93364e-09
3.56353e-09
2.60145e-09
3.93964e-09
3.43932e-09
3.07155e-09
3.94681e-09
3.29827e-09
3.52525e-09
3.95434e-09
3.14033e-09
3.96095e-09
3.96096e-09
2.96506e-09
4.37602e-09
3.96428e-09
2.77185e-09
3.96466e-09
2.56058e-09
4.76659e-09
5.61045e-10
4.35828e-09
3.56137e-09
1.1018e-09
4.35984e-09
3.50159e-09
1.6235e-09
4.36101e-09
3.42308e-09
2.12713e-09
4.36342e-09
3.32663e-09
2.61327e-09
4.36683e-09
3.21298e-09
3.082e-09
4.3707e-09
3.08256e-09
3.5328e-09
4.37417e-09
2.93554e-09
3.96421e-09
4.376e-09
2.77183e-09
4.37369e-09
4.3737e-09
2.59112e-09
4.36641e-09
2.39357e-09
4.75878e-09
5.64923e-10
3.25906e-09
4.76476e-09
1.10887e-09
3.2133e-09
4.76795e-09
1.63271e-09
3.14819e-09
4.76923e-09
2.13745e-09
3.06462e-09
4.77014e-09
2.62348e-09
2.96356e-09
4.77089e-09
3.09068e-09
2.84564e-09
4.77114e-09
3.53825e-09
2.71126e-09
4.77013e-09
3.96461e-09
2.56057e-09
4.76659e-09
4.36637e-09
2.39355e-09
4.75877e-09
2.2104e-09
4.74246e-09
4.74247e-09
4.64757e-10
4.64766e-10
4.10583e-09
9.13365e-10
4.65076e-10
4.01308e-09
1.3462e-09
4.65197e-10
3.89973e-09
1.76314e-09
4.65304e-10
3.76658e-09
2.16346e-09
4.65316e-10
3.6137e-09
2.54555e-09
4.65063e-10
3.44081e-09
2.90664e-09
4.64311e-10
3.2474e-09
3.24251e-09
4.6277e-10
3.03291e-09
3.54698e-09
4.60084e-10
2.7968e-09
4.55723e-10
2.53881e-09
3.8115e-09
4.65059e-10
9.1337e-10
4.01303e-09
9.1398e-10
9.1399e-10
3.92257e-09
1.34706e-09
9.14236e-10
3.81244e-09
1.76415e-09
9.14386e-10
3.68332e-09
2.16457e-09
9.143e-10
3.53545e-09
2.54681e-09
9.13697e-10
3.3687e-09
2.90835e-09
9.12145e-10