/*--------------------------------*- C++ -*----------------------------------*\
| =========                 |                                                 |
| \\      /  F ield         | foam-extend: Open Source CFD                    |
|  \\    /   O peration     | Version:     3.1                                |
|   \\  /    A nd           | Web:         http://www.extend-project.de       |
|    \\/     M anipulation  |                                                 |
\*---------------------------------------------------------------------------*/
FoamFile
{
    version     2.0;
    format      ascii;
    class       surfaceVectorField;
    location    "0.0004";
    object      Sf;
}
// * * * * * * * * * * * * * * * * * * * * * * * * * * * * * * * * * * * * * //

dimensions      [0 2 0 0 0 0 0];

internalField   nonuniform List<vector> 
45800
(
(2.09894e-07 3.6646e-09 -1.92425e-10)
(3.66447e-09 2.09893e-07 -1.92977e-10)
(-1.88933e-12 -1.88115e-12 1.14939e-07)
(2.06232e-07 7.32793e-09 -3.76251e-10)
(3.66747e-09 2.09896e-07 -1.92674e-10)
(-5.61219e-12 -2.01426e-12 1.12929e-07)
(2.02574e-07 1.09907e-08 -5.52002e-10)
(3.66768e-09 2.09903e-07 -1.9074e-10)
(-9.56099e-12 -2.29757e-12 1.10919e-07)
(1.98921e-07 1.46542e-08 -7.23839e-10)
(3.66686e-09 2.09918e-07 -1.89343e-10)
(-1.41505e-11 -2.78925e-12 1.08913e-07)
(1.95275e-07 1.83189e-08 -8.9622e-10)
(3.66597e-09 2.09943e-07 -1.89244e-10)
(-1.98447e-11 -3.57254e-12 1.06913e-07)
(1.91637e-07 2.19855e-08 -1.07313e-09)
(3.66499e-09 2.0998e-07 -1.90736e-10)
(-2.71556e-11 -4.76017e-12 1.04918e-07)
(1.8801e-07 2.56548e-08 -1.25821e-09)
(3.66375e-09 2.1003e-07 -1.94249e-10)
(-3.67061e-11 -6.52085e-12 1.02929e-07)
(1.84397e-07 2.93281e-08 -1.45447e-09)
(3.66222e-09 2.10098e-07 -2.00368e-10)
(-4.91684e-11 -9.06029e-12 1.00946e-07)
(1.80802e-07 3.30075e-08 -1.66377e-09)
(3.66029e-09 2.10185e-07 -2.09805e-10)
(-6.52411e-11 -1.25314e-11 9.89676e-08)
(3.66191e-09 2.10297e-07 -2.21314e-10)
(-8.62301e-11 -1.63324e-11 9.69935e-08)
(1.77227e-07 3.66991e-08 -1.88803e-09)
(2.09896e-07 3.66731e-09 -1.92139e-10)
(7.32768e-09 2.06232e-07 -3.76582e-10)
(-2.01873e-12 -5.60188e-12 1.12928e-07)
(2.06237e-07 7.33227e-09 -3.77808e-10)
(7.33201e-09 2.06237e-07 -3.78394e-10)
(-5.73757e-12 -5.72418e-12 1.10924e-07)
(2.02581e-07 1.09952e-08 -5.57078e-10)
(7.33366e-09 2.06246e-07 -3.7733e-10)
(-9.70728e-12 -6.01042e-12 1.08917e-07)
(1.98929e-07 1.46582e-08 -7.32591e-10)
(7.33305e-09 2.06261e-07 -3.76182e-10)
(-1.43152e-11 -6.51856e-12 1.06913e-07)
(1.95284e-07 1.83228e-08 -9.08259e-10)
(7.33144e-09 2.06286e-07 -3.7696e-10)
(-2.00152e-11 -7.31994e-12 1.04914e-07)
(1.91646e-07 2.19896e-08 -1.0881e-09)
(7.32955e-09 2.06321e-07 -3.80726e-10)
(-2.73059e-11 -8.52266e-12 1.0292e-07)
(1.8802e-07 2.56596e-08 -1.27576e-09)
(7.32712e-09 2.06371e-07 -3.88377e-10)
(-3.67768e-11 -1.0251e-11 1.00931e-07)
(1.84407e-07 2.93345e-08 -1.47407e-09)
(7.32422e-09 2.06436e-07 -4.00998e-10)
(-4.89976e-11 -1.25721e-11 9.89475e-08)
(1.80811e-07 3.30165e-08 -1.68461e-09)
(7.32096e-09 2.06519e-07 -4.1967e-10)
(-6.44966e-11 -1.54341e-11 9.69683e-08)
(7.32577e-09 2.06623e-07 -4.41142e-10)
(-8.35147e-11 -1.83035e-11 9.49891e-08)
(1.7723e-07 3.67082e-08 -1.90657e-09)
(2.09903e-07 3.66727e-09 -1.90505e-10)
(1.09906e-08 2.02574e-07 -5.51948e-10)
(-2.2948e-12 -9.56255e-12 1.10918e-07)
(2.06246e-07 7.33337e-09 -3.76756e-10)
(1.09948e-08 2.02581e-07 -5.57261e-10)
(-6.01629e-12 -9.69782e-12 1.08917e-07)
(2.02592e-07 1.09978e-08 -5.5899e-10)
(1.09975e-08 2.02592e-07 -5.59512e-10)
(-1.00232e-11 -1.00071e-11 1.06915e-07)
(1.98942e-07 1.46613e-08 -7.38501e-10)
(1.09981e-08 2.02609e-07 -5.60828e-10)
(-1.4663e-11 -1.05535e-11 1.04914e-07)
(1.95297e-07 1.83258e-08 -9.1789e-10)
(1.09966e-08 2.02633e-07 -5.63758e-10)
(-2.03726e-11 -1.14048e-11 1.02916e-07)
(1.9166e-07 2.19928e-08 -1.10079e-09)
(1.09939e-08 2.02667e-07 -5.70564e-10)
(-2.76466e-11 -1.26606e-11 1.00922e-07)
(1.88034e-07 2.56634e-08 -1.29075e-09)
(1.09905e-08 2.02715e-07 -5.82889e-10)
(-3.7009e-11 -1.44395e-11 9.8933e-08)
(1.8442e-07 2.93392e-08 -1.49025e-09)
(1.09865e-08 2.02777e-07 -6.02162e-10)
(-4.88949e-11 -1.67959e-11 9.69486e-08)
(1.80823e-07 3.30219e-08 -1.7006e-09)
(1.09821e-08 2.02856e-07 -6.29781e-10)
(-6.37238e-11 -1.97273e-11 9.49678e-08)
(1.0991e-08 2.02955e-07 -6.60249e-10)
(-8.10506e-11 -2.26828e-11 9.29853e-08)
(1.77239e-07 3.67129e-08 -1.92012e-09)
(2.09918e-07 3.66674e-09 -1.8939e-10)
(1.46542e-08 1.98921e-07 -7.23708e-10)
(-2.78336e-12 -1.41616e-11 1.08913e-07)
(2.06261e-07 7.33259e-09 -3.75986e-10)
(1.46581e-08 1.98929e-07 -7.32508e-10)
(-6.51334e-12 -1.43221e-11 1.06913e-07)
(2.02608e-07 1.09978e-08 -5.6031e-10)
(1.46608e-08 1.98941e-07 -7.38674e-10)
(-1.05595e-11 -1.46558e-11 1.04914e-07)
(1.98959e-07 1.46626e-08 -7.43341e-10)
(1.46623e-08 1.98959e-07 -7.43849e-10)
(-1.52538e-11 -1.52374e-11 1.02916e-07)
(1.95315e-07 1.83276e-08 -9.26649e-10)
(1.46618e-08 1.98984e-07 -7.50142e-10)
(-2.09937e-11 -1.61521e-11 1.00919e-07)
(1.91678e-07 2.19947e-08 -1.11281e-09)
(1.4659e-08 1.99017e-07 -7.60316e-10)
(-2.82673e-11 -1.74969e-11 9.89244e-08)
(1.88052e-07 2.56657e-08 -1.30495e-09)
(1.46545e-08 1.99063e-07 -7.77185e-10)
(-3.75668e-11 -1.94065e-11 9.69344e-08)
(1.84438e-07 2.93419e-08 -1.50533e-09)
(1.46495e-08 1.99123e-07 -8.02866e-10)
(-4.92371e-11 -2.2012e-11 9.49484e-08)
(1.80839e-07 3.30247e-08 -1.71527e-09)
(1.46442e-08 1.99199e-07 -8.38914e-10)
(-6.36392e-11 -2.54169e-11 9.29658e-08)
(1.46576e-08 1.99293e-07 -8.77467e-10)
(-7.94765e-11 -2.8861e-11 9.09807e-08)
(1.77252e-07 3.67152e-08 -1.93261e-09)
(2.09943e-07 3.66598e-09 -1.89354e-10)
(1.83189e-08 1.95275e-07 -8.96142e-10)
(-3.56827e-12 -1.98575e-11 1.06913e-07)
(2.06286e-07 7.33128e-09 -3.77078e-10)
(1.83228e-08 1.95284e-07 -9.0818e-10)
(-7.3099e-12 -2.00278e-11 1.04914e-07)
(2.02632e-07 1.09962e-08 -5.63609e-10)
(1.83257e-08 1.95297e-07 -9.17857e-10)
(-1.13932e-11 -2.03761e-11 1.02915e-07)
(1.98984e-07 1.46615e-08 -7.49627e-10)
(1.83271e-08 1.95315e-07 -9.26856e-10)
(-1.61575e-11 -2.09796e-11 1.00918e-07)
(1.9534e-07 1.83277e-08 -9.36512e-10)
(1.83273e-08 1.9534e-07 -9.37086e-10)
(-2.19726e-11 -2.19496e-11 9.89224e-08)
(1.91703e-07 2.19951e-08 -1.12615e-09)
(1.83254e-08 1.95373e-07 -9.50976e-10)
(-2.93073e-11 -2.34245e-11 9.69282e-08)
(1.88075e-07 2.5666e-08 -1.32063e-09)
(1.83208e-08 1.95418e-07 -9.71774e-10)
(-3.86139e-11 -2.55336e-11 9.49364e-08)
(1.84461e-07 2.93425e-08 -1.52187e-09)
(1.83144e-08 1.95475e-07 -1.00282e-09)
(-5.02638e-11 -2.84578e-11 9.29479e-08)
(1.80861e-07 3.30259e-08 -1.73134e-09)
(1.83081e-08 1.95548e-07 -1.04634e-09)
(-6.45489e-11 -3.24211e-11 9.0963e-08)
(1.8326e-08 1.95639e-07 -1.09204e-09)
(-7.89751e-11 -3.63555e-11 8.89753e-08)
(1.77272e-07 3.67167e-08 -1.94653e-09)
(2.0998e-07 3.66499e-09 -1.90842e-10)
(2.19855e-08 1.91638e-07 -1.07311e-09)
(-4.75691e-12 -2.71651e-11 1.04918e-07)
(2.06321e-07 7.32956e-09 -3.8092e-10)
(2.19896e-08 1.91646e-07 -1.08808e-09)
(-8.51147e-12 -2.73151e-11 1.0292e-07)
(2.02667e-07 1.09937e-08 -5.70721e-10)
(2.19928e-08 1.9166e-07 -1.10075e-09)
(-1.26417e-11 -2.76551e-11 1.00922e-07)
(1.99017e-07 1.46585e-08 -7.60198e-10)
(2.19945e-08 1.91678e-07 -1.11283e-09)
(-1.74891e-11 -2.82722e-11 9.8924e-08)
(1.95373e-07 1.8325e-08 -9.5038e-10)
(2.19946e-08 1.91702e-07 -1.12646e-09)
(-2.34288e-11 -2.92907e-11 9.69275e-08)
(1.91736e-07 2.19938e-08 -1.14322e-09)
(2.19932e-08 1.91736e-07 -1.14402e-09)
(-3.08969e-11 -3.08653e-11 9.49332e-08)
(1.88108e-07 2.56651e-08 -1.3403e-09)
(2.19898e-08 1.91779e-07 -1.1683e-09)
(-4.03032e-11 -3.31632e-11 9.29403e-08)
(1.84491e-07 2.93417e-08 -1.54252e-09)
(2.1983e-08 1.91834e-07 -1.20317e-09)
(-5.20639e-11 -3.6382e-11 9.09487e-08)
(1.8089e-07 3.30262e-08 -1.75105e-09)
(2.19755e-08 1.91904e-07 -1.25207e-09)
(-6.6418e-11 -4.07211e-11 8.89598e-08)
(2.19968e-08 1.91992e-07 -1.30338e-09)
(-7.94611e-11 -4.48473e-11 8.69686e-08)
(1.77299e-07 3.67185e-08 -1.96341e-09)
(2.10031e-07 3.66376e-09 -1.94349e-10)
(2.56548e-08 1.8801e-07 -1.25826e-09)
(-6.51736e-12 -3.67135e-11 1.02929e-07)
(2.06371e-07 7.32713e-09 -3.88565e-10)
(2.56596e-08 1.8802e-07 -1.2758e-09)
(-1.02389e-11 -3.67831e-11 1.00931e-07)
(2.02715e-07 1.09904e-08 -5.83146e-10)
(2.56634e-08 1.88034e-07 -1.29077e-09)
(-1.44204e-11 -3.70139e-11 9.89331e-08)
(1.99063e-07 1.46543e-08 -7.77453e-10)
(2.56657e-08 1.88052e-07 -1.30492e-09)
(-1.9391e-11 -3.75682e-11 9.69343e-08)
(1.95417e-07 1.832e-08 -9.71684e-10)
(2.5666e-08 1.88075e-07 -1.3206e-09)
(-2.55071e-11 -3.85991e-11 9.49357e-08)
(1.91779e-07 2.19893e-08 -1.16742e-09)
(2.56644e-08 1.88107e-07 -1.34053e-09)
(-3.31412e-11 -4.02302e-11 9.2939e-08)
(1.8815e-07 2.56622e-08 -1.3667e-09)
(2.56616e-08 1.88149e-07 -1.36746e-09)
(-4.2736e-11 -4.26326e-11 9.09445e-08)
(1.84531e-07 2.93402e-08 -1.56956e-09)
(2.56564e-08 1.88202e-07 -1.40456e-09)
(-5.45055e-11 -4.58533e-11 8.89498e-08)
(1.80926e-07 3.30266e-08 -1.77595e-09)
(2.56488e-08 1.88267e-07 -1.45563e-09)
(-6.88293e-11 -4.99875e-11 8.69548e-08)
(2.56706e-08 1.8835e-07 -1.50994e-09)
(-8.06083e-11 -5.37508e-11 8.49588e-08)
(1.77333e-07 3.67216e-08 -1.98387e-09)
(2.10098e-07 3.66223e-09 -2.00458e-10)
(2.93281e-08 1.84397e-07 -1.45458e-09)
(-9.05612e-12 -4.91752e-11 1.00946e-07)
(2.06436e-07 7.32425e-09 -4.01169e-10)
(2.93346e-08 1.84407e-07 -1.47417e-09)
(-1.25578e-11 -4.90023e-11 9.89476e-08)
(2.02777e-07 1.09865e-08 -6.02406e-10)
(2.93392e-08 1.8442e-07 -1.4903e-09)
(-1.67729e-11 -4.88948e-11 9.69487e-08)
(1.99122e-07 1.46496e-08 -8.03198e-10)
(2.9342e-08 1.84438e-07 -1.50529e-09)
(-2.19827e-11 -4.92255e-11 9.49485e-08)
(1.95474e-07 1.83143e-08 -1.00312e-09)
(2.93428e-08 1.84461e-07 -1.52166e-09)
(-2.84079e-11 -5.02333e-11 9.29477e-08)
(1.91833e-07 2.19823e-08 -1.20271e-09)
(2.93418e-08 1.8449e-07 -1.5421e-09)
(-3.62621e-11 -5.19717e-11 9.09473e-08)
(1.88201e-07 2.5656e-08 -1.40363e-09)
(2.93395e-08 1.8453e-07 -1.56931e-09)
(-4.59075e-11 -5.43509e-11 8.89483e-08)
(1.84578e-07 2.9337e-08 -1.60536e-09)
(2.93364e-08 1.84578e-07 -1.60566e-09)
(-5.71881e-11 -5.70159e-11 8.69477e-08)
(1.80968e-07 3.30268e-08 -1.80721e-09)
(2.93297e-08 1.84638e-07 -1.65477e-09)
(-7.10594e-11 -6.0064e-11 8.49453e-08)
(2.93491e-08 1.84713e-07 -1.70835e-09)
(-8.15293e-11 -6.23319e-11 8.29423e-08)
(1.77371e-07 3.67267e-08 -2.00745e-09)
(2.10186e-07 3.66031e-09 -2.0988e-10)
(3.30075e-08 1.80802e-07 -1.66395e-09)
(-1.25267e-11 -6.52471e-11 9.89678e-08)
(2.06519e-07 7.32099e-09 -4.19808e-10)
(3.30165e-08 1.80811e-07 -1.68478e-09)
(-1.54183e-11 -6.45019e-11 9.69684e-08)
(2.02856e-07 1.09821e-08 -6.29965e-10)
(3.3022e-08 1.80823e-07 -1.70071e-09)
(-1.97008e-11 -6.37271e-11 9.49679e-08)
(1.99199e-07 1.46444e-08 -8.39125e-10)
(3.30248e-08 1.80839e-07 -1.71527e-09)
(-2.53791e-11 -6.36388e-11 9.29658e-08)
(1.95548e-07 1.83084e-08 -1.04655e-09)
(3.30261e-08 1.80861e-07 -1.73117e-09)
(-3.23634e-11 -6.45423e-11 9.0963e-08)
(1.91904e-07 2.19754e-08 -1.25189e-09)
(3.30265e-08 1.8089e-07 -1.75062e-09)
(-4.05916e-11 -6.64208e-11 8.89594e-08)
(1.88267e-07 2.56481e-08 -1.45509e-09)
(3.30264e-08 1.80926e-07 -1.77546e-09)
(-5.00348e-11 -6.88727e-11 8.69543e-08)
(1.84637e-07 2.93293e-08 -1.65432e-09)
(3.30262e-08 1.80968e-07 -1.80706e-09)
(-6.0198e-11 -7.10566e-11 8.49449e-08)
(1.81017e-07 3.30227e-08 -1.84791e-09)
(3.30224e-08 1.81016e-07 -1.84811e-09)
(-7.20921e-11 -7.20212e-11 8.29306e-08)
(3.30378e-08 1.8107e-07 -1.89263e-09)
(-7.90304e-11 -6.9148e-11 8.09117e-08)
(1.77407e-07 3.67342e-08 -2.03225e-09)
(2.10297e-07 3.66193e-09 -2.21373e-10)
(-1.63271e-11 -8.62304e-11 9.69936e-08)
(3.66992e-08 1.77227e-07 -1.88823e-09)
(2.06623e-07 7.32581e-09 -4.41244e-10)
(-1.82879e-11 -8.35161e-11 9.49892e-08)
(3.67082e-08 1.7723e-07 -1.90675e-09)
(2.02955e-07 1.0991e-08 -6.60371e-10)
(-2.26582e-11 -8.10546e-11 9.29854e-08)
(3.67129e-08 1.77239e-07 -1.92025e-09)
(1.99293e-07 1.46577e-08 -8.77582e-10)
(-2.88293e-11 -7.9487e-11 9.09807e-08)
(3.67153e-08 1.77252e-07 -1.93267e-09)
(1.95639e-07 1.83261e-08 -1.0921e-09)
(-3.63154e-11 -7.90017e-11 8.89753e-08)
(3.67168e-08 1.77272e-07 -1.94648e-09)
(1.91992e-07 2.19967e-08 -1.3033e-09)
(-4.47919e-11 -7.95328e-11 8.69687e-08)
(3.67186e-08 1.77299e-07 -1.96325e-09)
(1.8835e-07 2.56704e-08 -1.50982e-09)
(-5.37896e-11 -8.07056e-11 8.4959e-08)
(3.67216e-08 1.77333e-07 -1.98364e-09)
(1.84712e-07 2.93488e-08 -1.70813e-09)
(-6.23474e-11 -8.15459e-11 8.29422e-08)
(3.67266e-08 1.77371e-07 -2.00722e-09)
(1.8107e-07 3.30378e-08 -1.89228e-09)
(-6.9136e-11 -7.8915e-11 8.09112e-08)
(3.6734e-08 1.77406e-07 -2.03203e-09)
(-7.04996e-11 -7.0347e-11 7.88694e-08)
(1.77436e-07 3.67424e-08 -2.05592e-09)
(3.67421e-08 1.77436e-07 -2.0559e-09)
(2.10192e-07 3.66795e-09 -1.62899e-10)
(3.66757e-09 2.10191e-07 -1.63365e-10)
(-2.63311e-12 -2.62239e-12 1.15265e-07)
(2.06518e-07 7.33178e-09 -3.17706e-10)
(3.67616e-09 2.10188e-07 -1.62875e-10)
(-7.78531e-12 -2.80028e-12 1.13247e-07)
(2.02845e-07 1.09929e-08 -4.64136e-10)
(3.6766e-09 2.10188e-07 -1.60764e-10)
(-1.31698e-11 -3.1755e-12 1.11226e-07)
(1.99177e-07 1.46544e-08 -6.05018e-10)
(3.67392e-09 2.10197e-07 -1.5887e-10)
(-1.92825e-11 -3.81836e-12 1.09212e-07)
(1.95513e-07 1.83167e-08 -7.43389e-10)
(3.67082e-09 2.1022e-07 -1.57817e-10)
(-2.6648e-11 -4.82336e-12 1.07209e-07)
(1.91854e-07 2.19803e-08 -8.81804e-10)
(3.66713e-09 2.10257e-07 -1.57807e-10)
(-3.57834e-11 -6.30892e-12 1.05214e-07)
(1.88202e-07 2.56453e-08 -1.02241e-09)
(3.66234e-09 2.10307e-07 -1.59136e-10)
(-4.72404e-11 -8.44136e-12 1.03229e-07)
(1.84558e-07 2.93123e-08 -1.16675e-09)
(3.65616e-09 2.10369e-07 -1.62202e-10)
(-6.14716e-11 -1.1396e-11 1.01252e-07)
(1.80924e-07 3.29828e-08 -1.31544e-09)
(3.64816e-09 2.1044e-07 -1.67488e-10)
(-7.87331e-11 -1.52278e-11 9.92838e-08)
(3.64903e-09 2.10515e-07 -1.73973e-10)
(-9.96761e-11 -1.90615e-11 9.7321e-08)
(1.77288e-07 3.66676e-08 -1.469e-09)
(2.10188e-07 3.67571e-09 -1.62422e-10)
(7.33106e-09 2.06517e-07 -3.17983e-10)
(-2.8059e-12 -7.77278e-12 1.13246e-07)
(2.06523e-07 7.34421e-09 -3.18571e-10)
(7.34348e-09 2.06522e-07 -3.19066e-10)
(-7.93905e-12 -7.92227e-12 1.11236e-07)
(2.02855e-07 1.10059e-08 -4.67772e-10)
(7.34787e-09 2.06528e-07 -3.17252e-10)
(-1.3339e-11 -8.2741e-12 1.09223e-07)
(1.99189e-07 1.4666e-08 -6.1156e-10)
(7.34543e-09 2.06539e-07 -3.14902e-10)
(-1.94619e-11 -8.89748e-12 1.07213e-07)
(1.95527e-07 1.83279e-08 -7.52513e-10)
(7.33967e-09 2.06561e-07 -3.13665e-10)
(-2.68179e-11 -9.86861e-12 1.05211e-07)
(1.9187e-07 2.19918e-08 -8.93208e-10)
(7.33254e-09 2.06596e-07 -3.14349e-10)
(-3.59079e-11 -1.12973e-11 1.03217e-07)
(1.8822e-07 2.56586e-08 -1.03581e-09)
(7.32309e-09 2.06644e-07 -3.17576e-10)
(-4.72467e-11 -1.32937e-11 1.01232e-07)
(1.84577e-07 2.933e-08 -1.18177e-09)
(7.31124e-09 2.06701e-07 -3.2409e-10)
(-6.11743e-11 -1.58676e-11 9.92553e-08)
(1.80941e-07 3.30078e-08 -1.33152e-09)
(7.29694e-09 2.06765e-07 -3.34601e-10)
(-7.77796e-11 -1.88555e-11 9.72852e-08)
(7.30319e-09 2.06832e-07 -3.46539e-10)
(-9.65734e-11 -2.15193e-11 9.53139e-08)
(1.773e-07 3.66938e-08 -1.48378e-09)
(2.10186e-07 3.67543e-09 -1.60563e-10)
(1.09926e-08 2.02845e-07 -4.64086e-10)
(-3.17121e-12 -1.31743e-11 1.11225e-07)
(2.06527e-07 7.34705e-09 -3.16767e-10)
(1.10048e-08 2.02854e-07 -4.67924e-10)
(-8.28062e-12 -1.33283e-11 1.09222e-07)
(2.02867e-07 1.10128e-08 -4.6808e-10)
(1.10119e-08 2.02866e-07 -4.68516e-10)
(-1.37039e-11 -1.36841e-11 1.07218e-07)
(1.99205e-07 1.4674e-08 -6.14889e-10)
(1.10127e-08 2.02882e-07 -4.67643e-10)
(-1.98392e-11 -1.43159e-11 1.05214e-07)
(1.95545e-07 1.83354e-08 -7.58669e-10)
(1.10066e-08 2.02904e-07 -4.67374e-10)
(-2.71718e-11 -1.52921e-11 1.03213e-07)
(1.9189e-07 2.19997e-08 -9.01689e-10)
(1.09962e-08 2.02936e-07 -4.69479e-10)
(-3.61985e-11 -1.67072e-11 1.0122e-07)
(1.8824e-07 2.56678e-08 -1.04606e-09)
(1.09826e-08 2.0298e-07 -4.75146e-10)
(-4.73575e-11 -1.86587e-11 9.92349e-08)
(1.84598e-07 2.93414e-08 -1.19299e-09)
(1.09659e-08 2.03032e-07 -4.8534e-10)
(-6.08395e-11 -2.11353e-11 9.72568e-08)
(1.80962e-07 3.30213e-08 -1.34281e-09)
(1.09459e-08 2.0309e-07 -5.00977e-10)
(-7.6649e-11 -2.40259e-11 9.5284e-08)
(1.09601e-08 2.03151e-07 -5.17812e-10)
(-9.35961e-11 -2.65681e-11 9.33076e-08)
(1.77317e-07 3.67065e-08 -1.49379e-09)
(2.10197e-07 3.67357e-09 -1.58909e-10)
(1.46545e-08 1.99177e-07 -6.049e-10)
(-3.80977e-12 -1.93002e-11 1.09212e-07)
(2.06538e-07 7.34413e-09 -3.14734e-10)
(1.46657e-08 1.99189e-07 -6.11485e-10)
(-8.88884e-12 -1.94736e-11 1.07212e-07)
(2.02881e-07 1.10118e-08 -4.67208e-10)
(1.46728e-08 1.99204e-07 -6.15029e-10)
(-1.43222e-11 -1.98317e-11 1.05213e-07)
(1.99223e-07 1.46763e-08 -6.16456e-10)
(1.46755e-08 1.99223e-07 -6.16877e-10)
(-2.0481e-11 -2.04613e-11 1.03214e-07)
(1.95565e-07 1.83386e-08 -7.63083e-10)
(1.46717e-08 1.99247e-07 -6.18695e-10)
(-2.77948e-11 -2.14489e-11 1.01217e-07)
(1.9191e-07 2.20026e-08 -9.08485e-10)
(1.46601e-08 1.99277e-07 -6.22621e-10)
(-3.67508e-11 -2.28795e-11 9.9223e-08)
(1.8826e-07 2.56714e-08 -1.05445e-09)
(1.46423e-08 1.99316e-07 -6.30754e-10)
(-4.77495e-11 -2.48609e-11 9.72359e-08)
(1.84617e-07 2.93456e-08 -1.20207e-09)
(1.46208e-08 1.99363e-07 -6.44574e-10)
(-6.08816e-11 -2.74617e-11 9.52553e-08)
(1.8098e-07 3.30257e-08 -1.35171e-09)
(1.45958e-08 1.99415e-07 -6.65076e-10)
(-7.61114e-11 -3.06746e-11 9.32795e-08)
(1.46189e-08 1.99471e-07 -6.86307e-10)
(-9.13491e-11 -3.34763e-11 9.1299e-08)
(1.77333e-07 3.67101e-08 -1.50156e-09)
(2.10221e-07 3.67083e-09 -1.5791e-10)
(1.83167e-08 1.95513e-07 -7.43312e-10)
(-4.81694e-12 -2.66675e-11 1.07209e-07)
(2.06561e-07 7.33924e-09 -3.13762e-10)
(1.8328e-08 1.95527e-07 -7.52439e-10)
(-9.85323e-12 -2.68369e-11 1.05211e-07)
(2.02903e-07 1.10053e-08 -4.67248e-10)
(1.83351e-08 1.95544e-07 -7.58638e-10)
(-1.52746e-11 -2.71782e-11 1.03213e-07)
(1.99246e-07 1.46709e-08 -6.18268e-10)
(1.83374e-08 1.95564e-07 -7.63252e-10)
(-2.14541e-11 -2.77778e-11 1.01216e-07)
(1.9559e-07 1.83358e-08 -7.67272e-10)
(1.83347e-08 1.95589e-07 -7.67741e-10)
(-2.87785e-11 -2.875e-11 9.92204e-08)
(1.91934e-07 2.2e-08 -9.15071e-10)
(1.83246e-08 1.9562e-07 -7.73919e-10)
(-3.77064e-11 -3.02242e-11 9.72273e-08)
(1.88281e-07 2.56676e-08 -1.06264e-09)
(1.83051e-08 1.95655e-07 -7.84189e-10)
(-4.85851e-11 -3.22901e-11 9.52374e-08)
(1.84635e-07 2.9342e-08 -1.21079e-09)
(1.82777e-08 1.95696e-07 -8.0096e-10)
(-6.15379e-11 -3.50567e-11 9.32524e-08)
(1.80996e-07 3.30227e-08 -1.36007e-09)
(1.82472e-08 1.9574e-07 -8.25732e-10)
(-7.64578e-11 -3.86301e-11 9.12729e-08)
(1.82791e-08 1.95791e-07 -8.50853e-10)
(-8.99698e-11 -4.16274e-11 8.92884e-08)
(1.77347e-07 3.67078e-08 -1.50869e-09)
(2.10257e-07 3.66714e-09 -1.57897e-10)
(2.19803e-08 1.91854e-07 -8.81774e-10)
(-6.30372e-12 -3.57975e-11 1.05215e-07)
(2.06596e-07 7.33256e-09 -3.14511e-10)
(2.19919e-08 1.9187e-07 -8.9318e-10)
(-1.128e-11 -3.59213e-11 1.03217e-07)
(2.02936e-07 1.09957e-08 -4.6961e-10)
(2.19998e-08 1.9189e-07 -9.01654e-10)
(-1.66795e-11 -3.62107e-11 1.0122e-07)
(1.99276e-07 1.46586e-08 -6.22521e-10)
(2.20022e-08 1.91909e-07 -9.08498e-10)
(-2.28675e-11 -3.67579e-11 9.92221e-08)
(1.95619e-07 1.83237e-08 -7.73432e-10)
(2.19984e-08 1.91932e-07 -9.15324e-10)
(-3.02296e-11 -3.76868e-11 9.7226e-08)
(1.91963e-07 2.19904e-08 -9.23219e-10)
(2.19887e-08 1.91961e-07 -9.23865e-10)
(-3.91756e-11 -3.91375e-11 9.52329e-08)
(1.88307e-07 2.56581e-08 -1.07241e-09)
(2.19709e-08 1.91996e-07 -9.36103e-10)
(-4.99927e-11 -4.12334e-11 9.32414e-08)
(1.84656e-07 2.93312e-08 -1.22105e-09)
(2.19402e-08 1.9203e-07 -9.54799e-10)
(-6.28529e-11 -4.40897e-11 9.12512e-08)
(1.81011e-07 3.30135e-08 -1.36945e-09)
(2.19034e-08 1.92065e-07 -9.82408e-10)
(-7.75742e-11 -4.77523e-11 8.92649e-08)
(2.19408e-08 1.92108e-07 -1.01047e-09)
(-8.92976e-11 -5.05461e-11 8.7275e-08)
(1.77359e-07 3.67017e-08 -1.51622e-09)
(2.10307e-07 3.66236e-09 -1.5922e-10)
(2.56453e-08 1.88203e-07 -1.02243e-09)
(-8.43566e-12 -4.72506e-11 1.03229e-07)
(2.06644e-07 7.32311e-09 -3.17733e-10)
(2.56587e-08 1.8822e-07 -1.03583e-09)
(-1.32747e-11 -4.72552e-11 1.01232e-07)
(2.0298e-07 1.09825e-08 -4.7536e-10)
(2.5668e-08 1.88241e-07 -1.04606e-09)
(-1.86304e-11 -4.73641e-11 9.92352e-08)
(1.99316e-07 1.46416e-08 -6.30974e-10)
(2.56715e-08 1.8826e-07 -1.05443e-09)
(-2.48388e-11 -4.77515e-11 9.72359e-08)
(1.95654e-07 1.83029e-08 -7.84113e-10)
(2.56675e-08 1.88281e-07 -1.06262e-09)
(-3.22575e-11 -4.85668e-11 9.52361e-08)
(1.91994e-07 2.19696e-08 -9.35394e-10)
(2.56562e-08 1.88304e-07 -1.07262e-09)
(-4.12085e-11 -4.99058e-11 9.3239e-08)
(1.88336e-07 2.56398e-08 -1.08572e-09)
(2.56382e-08 1.88335e-07 -1.08634e-09)
(-5.20099e-11 -5.18883e-11 9.12451e-08)
(1.84677e-07 2.93149e-08 -1.23446e-09)
(2.56095e-08 1.88364e-07 -1.106e-09)
(-6.45934e-11 -5.44468e-11 8.92497e-08)
(1.81021e-07 3.30002e-08 -1.38101e-09)
(2.55692e-08 1.88387e-07 -1.13428e-09)
(-7.8907e-11 -5.74887e-11 8.72533e-08)
(2.5604e-08 1.8842e-07 -1.16359e-09)
(-8.89106e-11 -5.94336e-11 8.52555e-08)
(1.77366e-07 3.66943e-08 -1.52464e-09)
(2.1037e-07 3.6562e-09 -1.62278e-10)
(2.93124e-08 1.84559e-07 -1.16683e-09)
(-1.13891e-11 -6.14799e-11 1.01253e-07)
(2.06701e-07 7.31133e-09 -3.24234e-10)
(2.93301e-08 1.84577e-07 -1.18183e-09)
(-1.58456e-11 -6.11798e-11 9.92556e-08)
(2.03032e-07 1.0966e-08 -4.85545e-10)
(2.93416e-08 1.84598e-07 -1.19302e-09)
(-2.1102e-11 -6.08389e-11 9.7257e-08)
(1.99363e-07 1.46211e-08 -6.44854e-10)
(2.9346e-08 1.84617e-07 -1.20204e-09)
(-2.74221e-11 -6.08664e-11 9.52554e-08)
(1.95695e-07 1.82774e-08 -8.01219e-10)
(2.93426e-08 1.84636e-07 -1.21064e-09)
(-3.4995e-11 -6.14993e-11 9.32521e-08)
(1.92027e-07 2.19384e-08 -9.54456e-10)
(2.93314e-08 1.84654e-07 -1.22076e-09)
(-4.39496e-11 -6.27407e-11 9.12486e-08)
(1.88361e-07 2.56085e-08 -1.10527e-09)
(2.93129e-08 1.84675e-07 -1.23431e-09)
(-5.45106e-11 -6.44083e-11 8.92471e-08)
(1.84692e-07 2.92893e-08 -1.25271e-09)
(2.92878e-08 1.84692e-07 -1.25298e-09)
(-6.61942e-11 -6.59905e-11 8.72422e-08)
(1.81022e-07 3.29812e-08 -1.39567e-09)
(2.92469e-08 1.84703e-07 -1.27927e-09)
(-7.95877e-11 -6.743e-11 8.52332e-08)
(2.92713e-08 1.84719e-07 -1.30751e-09)
(-8.78408e-11 -6.73681e-11 8.32244e-08)
(1.77362e-07 3.66867e-08 -1.53382e-09)
(2.1044e-07 3.64821e-09 -1.67551e-10)
(3.29829e-08 1.80924e-07 -1.31556e-09)
(-1.522e-11 -7.87395e-11 9.92841e-08)
(2.06766e-07 7.29705e-09 -3.34718e-10)
(3.30079e-08 1.80942e-07 -1.33162e-09)
(-1.88315e-11 -7.77851e-11 9.72854e-08)
(2.0309e-07 1.09461e-08 -5.01135e-10)
(3.30216e-08 1.80962e-07 -1.34288e-09)
(-2.3988e-11 -7.66519e-11 9.52842e-08)
(1.99415e-07 1.45962e-08 -6.65262e-10)
(3.30261e-08 1.8098e-07 -1.35171e-09)
(-3.06241e-11 -7.61097e-11 9.32796e-08)
(1.95741e-07 1.8248e-08 -8.25933e-10)
(3.30232e-08 1.80996e-07 -1.35995e-09)
(-3.85585e-11 -7.64485e-11 9.1273e-08)
(1.92065e-07 2.19032e-08 -9.82314e-10)
(3.30143e-08 1.8101e-07 -1.36916e-09)
(-4.75999e-11 -7.75748e-11 8.92642e-08)
(1.88386e-07 2.55673e-08 -1.13388e-09)
(3.29996e-08 1.81021e-07 -1.38067e-09)
(-5.75452e-11 -7.89539e-11 8.72522e-08)
(1.84701e-07 2.92458e-08 -1.2789e-09)
(3.29797e-08 1.81022e-07 -1.39558e-09)
(-6.7595e-11 -7.9587e-11 8.52325e-08)
(1.8101e-07 3.29452e-08 -1.41572e-09)
(3.29445e-08 1.8101e-07 -1.41589e-09)
(-7.85064e-11 -7.84295e-11 8.32041e-08)
(3.2956e-08 1.80987e-07 -1.43785e-09)
(-8.29053e-11 -7.28219e-11 8.11692e-08)
(1.77329e-07 3.6681e-08 -1.54284e-09)
(2.10515e-07 3.64908e-09 -1.74021e-10)
(-1.90529e-11 -9.96743e-11 9.73212e-08)
(3.66677e-08 1.77288e-07 -1.46914e-09)
(2.06832e-07 7.3033e-09 -3.46625e-10)
(-2.14956e-11 -9.65731e-11 9.5314e-08)
(3.66939e-08 1.773e-07 -1.4839e-09)
(2.03151e-07 1.09602e-08 -5.17918e-10)
(-2.65328e-11 -9.35994e-11 9.33077e-08)
(3.67067e-08 1.77317e-07 -1.49388e-09)
(1.99471e-07 1.46191e-08 -6.86413e-10)
(-3.34337e-11 -9.1361e-11 9.12991e-08)
(3.67104e-08 1.77333e-07 -1.5016e-09)
(1.95791e-07 1.82793e-08 -8.50927e-10)
(-4.15771e-11 -9.00015e-11 8.92886e-08)
(3.67082e-08 1.77346e-07 -1.50865e-09)
(1.92109e-07 2.19405e-08 -1.01044e-09)
(-5.04807e-11 -8.93833e-11 8.72752e-08)
(3.6702e-08 1.77359e-07 -1.51611e-09)
(1.8842e-07 2.56034e-08 -1.16352e-09)
(-5.94821e-11 -8.90275e-11 8.52559e-08)
(3.66943e-08 1.77366e-07 -1.52448e-09)
(1.84718e-07 2.92704e-08 -1.30735e-09)
(-6.74022e-11 -8.78668e-11 8.32241e-08)
(3.66866e-08 1.77361e-07 -1.53367e-09)
(1.80986e-07 3.29559e-08 -1.43759e-09)
(-7.28137e-11 -8.27862e-11 8.11682e-08)
(3.66807e-08 1.77328e-07 -1.54271e-09)
(-7.20376e-11 -7.18798e-11 7.90954e-08)
(1.7727e-07 3.66744e-08 -1.55074e-09)
(3.66735e-08 1.7727e-07 -1.55074e-09)
(2.10405e-07 3.67052e-09 -1.11956e-10)
(3.66995e-09 2.10403e-07 -1.12271e-10)
(-1.89973e-12 -1.89329e-12 1.15489e-07)
(2.0672e-07 7.33464e-09 -2.1694e-10)
(3.68339e-09 2.10394e-07 -1.11512e-10)
(-5.57839e-12 -2.01196e-12 1.13463e-07)
(2.03031e-07 1.09943e-08 -3.135e-10)
(3.68447e-09 2.1038e-07 -1.0923e-10)
(-9.31486e-12 -2.25784e-12 1.11432e-07)
(1.99345e-07 1.46537e-08 -4.02393e-10)
(3.68076e-09 2.10376e-07 -1.06693e-10)
(-1.33663e-11 -2.66801e-12 1.09408e-07)
(1.95659e-07 1.83134e-08 -4.84476e-10)
(3.67638e-09 2.10385e-07 -1.04292e-10)
(-1.79632e-11 -3.28423e-12 1.07395e-07)
(1.91976e-07 2.19733e-08 -5.60159e-10)
(3.67109e-09 2.10405e-07 -1.02099e-10)
(-2.32511e-11 -4.14607e-12 1.05392e-07)
(1.88294e-07 2.56331e-08 -6.29396e-10)
(3.66414e-09 2.10432e-07 -1.00208e-10)
(-2.92844e-11 -5.29599e-12 1.03398e-07)
(1.84613e-07 2.92927e-08 -6.91609e-10)
(3.65512e-09 2.10463e-07 -9.8742e-11)
(-3.59071e-11 -6.74328e-12 1.01413e-07)
(1.80934e-07 3.29528e-08 -7.45601e-10)
(3.64341e-09 2.1049e-07 -9.78348e-11)
(-4.26645e-11 -8.37945e-12 9.94356e-08)
(3.64437e-09 2.10503e-07 -9.67656e-11)
(-4.90851e-11 -9.59726e-12 9.74621e-08)
(1.77239e-07 3.66263e-08 -7.89905e-10)
(2.10393e-07 3.68272e-09 -1.11206e-10)
(7.33356e-09 2.06718e-07 -2.17121e-10)
(-2.01486e-12 -5.57281e-12 1.13462e-07)
(2.06721e-07 7.35436e-09 -2.16719e-10)
(7.35326e-09 2.0672e-07 -2.17048e-10)
(-5.66267e-12 -5.65403e-12 1.11447e-07)
(2.03041e-07 1.10152e-08 -3.14809e-10)
(7.36066e-09 2.06717e-07 -2.142e-10)
(-9.39272e-12 -5.84872e-12 1.09426e-07)
(1.99358e-07 1.46731e-08 -4.05336e-10)
(7.35765e-09 2.06716e-07 -2.10186e-10)
(-1.34321e-11 -6.19231e-12 1.07407e-07)
(1.95676e-07 1.83323e-08 -4.88838e-10)
(7.34957e-09 2.06723e-07 -2.06063e-10)
(-1.80006e-11 -6.7119e-12 1.05396e-07)
(1.91995e-07 2.19928e-08 -5.65735e-10)
(7.3394e-09 2.0674e-07 -2.02239e-10)
(-2.32358e-11 -7.43958e-12 1.03394e-07)
(1.88315e-07 2.56551e-08 -6.36006e-10)
(7.32574e-09 2.06765e-07 -1.98929e-10)
(-2.91779e-11 -8.38619e-12 1.01401e-07)
(1.84636e-07 2.93206e-08 -6.99071e-10)
(7.30847e-09 2.06792e-07 -1.96363e-10)
(-3.56229e-11 -9.47689e-12 9.9416e-08)
(1.80956e-07 3.29905e-08 -7.53754e-10)
(7.28752e-09 2.06811e-07 -1.94694e-10)
(-4.20681e-11 -1.05203e-11 9.74367e-08)
(7.29576e-09 2.06817e-07 -1.92302e-10)
(-4.75742e-11 -1.10441e-11 9.54539e-08)
(1.77256e-07 3.66654e-08 -7.98188e-10)
(2.10378e-07 3.68271e-09 -1.09097e-10)
(1.09939e-08 2.03031e-07 -3.13448e-10)
(-2.25381e-12 -9.32252e-12 1.1143e-07)
(2.06716e-07 7.35942e-09 -2.13878e-10)
(1.10135e-08 2.03039e-07 -3.14899e-10)
(-5.85026e-12 -9.38959e-12 1.09424e-07)
(2.03047e-07 1.10267e-08 -3.12722e-10)
(1.10255e-08 2.03046e-07 -3.13004e-10)
(-9.56121e-12 -9.55166e-12 1.07416e-07)
(1.9937e-07 1.46865e-08 -4.04696e-10)
(1.10276e-08 2.03052e-07 -3.08948e-10)
(-1.35698e-11 -9.84516e-12 1.05405e-07)
(1.95692e-07 1.83452e-08 -4.89597e-10)
(1.10193e-08 2.03059e-07 -3.04024e-10)
(-1.8078e-11 -1.02892e-11 1.03396e-07)
(1.92014e-07 2.20064e-08 -5.67641e-10)
(1.10045e-08 2.03073e-07 -2.99218e-10)
(-2.32232e-11 -1.09022e-11 1.01395e-07)
(1.88336e-07 2.56706e-08 -6.38813e-10)
(1.0985e-08 2.03094e-07 -2.95022e-10)
(-2.90092e-11 -1.16833e-11 9.94022e-08)
(1.84658e-07 2.93392e-08 -7.02483e-10)
(1.09607e-08 2.03114e-07 -2.91708e-10)
(-3.51692e-11 -1.25429e-11 9.74158e-08)
(1.80979e-07 3.30124e-08 -7.57553e-10)
(1.09314e-08 2.03128e-07 -2.89463e-10)
(-4.12086e-11 -1.33161e-11 9.54338e-08)
(1.09503e-08 2.0313e-07 -2.85803e-10)
(-4.59378e-11 -1.35223e-11 9.34459e-08)
(1.77277e-07 3.66866e-08 -8.02345e-10)
(2.10376e-07 3.68025e-09 -1.06721e-10)
(1.46538e-08 1.99345e-07 -4.02285e-10)
(-2.66089e-12 -1.33833e-11 1.09408e-07)
(2.06714e-07 7.35571e-09 -2.10079e-10)
(1.46725e-08 1.99357e-07 -4.05264e-10)
(-6.18317e-12 -1.34445e-11 1.07406e-07)
(2.0305e-07 1.10263e-08 -3.08668e-10)
(1.46847e-08 1.99369e-07 -4.04775e-10)
(-9.84559e-12 -1.35688e-11 1.05403e-07)
(1.99381e-07 1.46912e-08 -4.01386e-10)
(1.469e-08 1.9938e-07 -4.01651e-10)
(-1.38073e-11 -1.37979e-11 1.034e-07)
(1.95706e-07 1.83514e-08 -4.87445e-10)
(1.46854e-08 1.99392e-07 -3.96862e-10)
(-1.82306e-11 -1.41584e-11 1.01396e-07)
(1.92028e-07 2.20123e-08 -5.66499e-10)
(1.46691e-08 1.99404e-07 -3.91567e-10)
(-2.32484e-11 -1.46568e-11 9.93944e-08)
(1.8835e-07 2.56776e-08 -6.38357e-10)
(1.46435e-08 1.99419e-07 -3.86757e-10)
(-2.88483e-11 -1.52899e-11 9.73995e-08)
(1.84672e-07 2.93474e-08 -7.0239e-10)
(1.46123e-08 1.99433e-07 -3.82931e-10)
(-3.47246e-11 -1.60011e-11 9.54105e-08)
(1.80992e-07 3.30211e-08 -7.5761e-10)
(1.45757e-08 1.9944e-07 -3.80241e-10)
(-4.03997e-11 -1.6663e-11 9.34255e-08)
(1.46067e-08 1.99439e-07 -3.75425e-10)
(-4.43329e-11 -1.66577e-11 9.14338e-08)
(1.77289e-07 3.66949e-08 -8.02759e-10)
(2.10386e-07 3.6764e-09 -1.04355e-10)
(1.83134e-08 1.9566e-07 -4.84389e-10)
(-3.27841e-12 -1.79805e-11 1.07396e-07)
(2.06723e-07 7.34893e-09 -2.06132e-10)
(1.83323e-08 1.95676e-07 -4.88758e-10)
(-6.6975e-12 -1.80169e-11 1.05396e-07)
(2.03058e-07 1.10174e-08 -3.03951e-10)
(1.83447e-08 1.95691e-07 -4.89556e-10)
(-1.02732e-11 -1.8085e-11 1.03395e-07)
(1.99391e-07 1.46842e-08 -3.96597e-10)
(1.83496e-08 1.95704e-07 -4.87543e-10)
(-1.41584e-11 -1.82219e-11 1.01394e-07)
(1.95719e-07 1.83485e-08 -4.83187e-10)
(1.83469e-08 1.95717e-07 -4.83476e-10)
(-1.84814e-11 -1.84654e-11 9.93936e-08)
(1.92041e-07 2.20099e-08 -5.62991e-10)
(1.83331e-08 1.95732e-07 -4.78225e-10)
(-2.33574e-11 -1.88423e-11 9.73938e-08)
(1.88359e-07 2.56737e-08 -6.3533e-10)
(1.83051e-08 1.95742e-07 -4.72898e-10)
(-2.87449e-11 -1.93295e-11 9.53959e-08)
(1.84679e-07 2.93437e-08 -6.9943e-10)
(1.82655e-08 1.95748e-07 -4.68475e-10)
(-3.43639e-11 -1.98761e-11 9.34021e-08)
(1.80997e-07 3.30186e-08 -7.54446e-10)
(1.8221e-08 1.95747e-07 -4.65315e-10)