/*--------------------------------*- C++ -*----------------------------------*\
| =========                 |                                                 |
| \\      /  F ield         | foam-extend: Open Source CFD                    |
|  \\    /   O peration     | Version:     3.1                                |
|   \\  /    A nd           | Web:         http://www.extend-project.de       |
|    \\/     M anipulation  |                                                 |
\*---------------------------------------------------------------------------*/
FoamFile
{
    version     2.0;
    format      ascii;
    class       volScalarField::DimensionedInternalField;
    location    "0.0004";
    object      V0;
}
// * * * * * * * * * * * * * * * * * * * * * * * * * * * * * * * * * * * * * //

dimensions      [0 3 0 0 0 0 0];

value           nonuniform List<scalar> 
16000
(
7.16717e-11
7.04204e-11
6.91697e-11
6.79209e-11
6.66744e-11
6.54305e-11
6.41896e-11
6.29525e-11
6.17198e-11
6.04925e-11
7.04203e-11
6.91699e-11
6.792e-11
6.66715e-11
6.54251e-11
6.41811e-11
6.29402e-11
6.17028e-11
6.04696e-11
5.92403e-11
6.91696e-11
6.79199e-11
6.6671e-11
6.54231e-11
6.41768e-11
6.29328e-11
6.16917e-11
6.04539e-11
5.92198e-11
5.79891e-11
6.79209e-11
6.66714e-11
6.54229e-11
6.41756e-11
6.29295e-11
6.16853e-11
6.04439e-11
5.92055e-11
5.79708e-11
5.67387e-11
6.66744e-11
6.54251e-11
6.41767e-11
6.29294e-11
6.16835e-11
6.04393e-11
5.91973e-11
5.79583e-11
5.67228e-11
5.54897e-11
6.54305e-11
6.41812e-11
6.29327e-11
6.16852e-11
6.04391e-11
5.91948e-11
5.79526e-11
5.67128e-11
5.54763e-11
5.4242e-11
6.41896e-11
6.29402e-11
6.16917e-11
6.04439e-11
5.91972e-11
5.79523e-11
5.67096e-11
5.5469e-11
5.4231e-11
5.29952e-11
6.29525e-11
6.17029e-11
6.04539e-11
5.92055e-11
5.79582e-11
5.67124e-11
5.54686e-11
5.42265e-11
5.29865e-11
5.17485e-11
6.17198e-11
6.04696e-11
5.92198e-11
5.79708e-11
5.67228e-11
5.54762e-11
5.42309e-11
5.29864e-11
5.1743e-11
5.04999e-11
6.04925e-11
5.92404e-11
5.79891e-11
5.67388e-11
5.54897e-11
5.4242e-11
5.29952e-11
5.17485e-11
5.04998e-11
4.92489e-11
7.18092e-11
7.05543e-11
6.9299e-11
6.80469e-11
6.67985e-11
6.55538e-11
6.4313e-11
6.30762e-11
6.1843e-11
6.06128e-11
7.05538e-11
6.93014e-11
6.80488e-11
6.67977e-11
6.55496e-11
6.43051e-11
6.30644e-11
6.18274e-11
6.05935e-11
5.93601e-11
6.92987e-11
6.80484e-11
6.67984e-11
6.55491e-11
6.43016e-11
6.30571e-11
6.18162e-11
6.05785e-11
5.93436e-11
5.8108e-11
6.80469e-11
6.67974e-11
6.55487e-11
6.4301e-11
6.30543e-11
6.18096e-11
6.05679e-11
5.93292e-11
5.8093e-11
5.68556e-11
6.67986e-11
6.55496e-11
6.43013e-11
6.30539e-11
6.18079e-11
6.05632e-11
5.93204e-11
5.80801e-11
5.68424e-11
5.56032e-11
6.55539e-11
6.43052e-11
6.30571e-11
6.18093e-11
6.05628e-11
5.93179e-11
5.80744e-11
5.68321e-11
5.55919e-11
5.43502e-11
6.43131e-11
6.30645e-11
6.18163e-11
6.05679e-11
5.932e-11
5.80736e-11
5.6829e-11
5.55846e-11
5.43406e-11
5.30956e-11
6.30762e-11
6.18275e-11
6.05786e-11
5.93293e-11
5.808e-11
5.68312e-11
5.55838e-11
5.43357e-11
5.30867e-11
5.18371e-11
6.18431e-11
6.05936e-11
5.93436e-11
5.80931e-11
5.68424e-11
5.55916e-11
5.43402e-11
5.30865e-11
5.18298e-11
5.05696e-11
6.06128e-11
5.93601e-11
5.8108e-11
5.68557e-11
5.56032e-11
5.43503e-11
5.30957e-11
5.1837e-11
5.05693e-11
4.92942e-11
7.19098e-11
7.06512e-11
6.93908e-11
6.81336e-11
6.68802e-11
6.56302e-11
6.43834e-11
6.31392e-11
6.18965e-11
6.06536e-11
7.06505e-11
6.93958e-11
6.81393e-11
6.68836e-11
6.56308e-11
6.43813e-11
6.31348e-11
6.18906e-11
6.06474e-11
5.94011e-11
6.93903e-11
6.81387e-11
6.68863e-11
6.56335e-11
6.43815e-11
6.31322e-11
6.18856e-11
6.06409e-11
5.93967e-11
5.81485e-11
6.81335e-11
6.68832e-11
6.56329e-11
6.43825e-11
6.3132e-11
6.18825e-11
6.06351e-11
5.93893e-11
5.81439e-11
5.68941e-11
6.68803e-11
6.56308e-11
6.43811e-11
6.31315e-11
6.18821e-11
6.06329e-11
5.93842e-11
5.81364e-11
5.68894e-11
5.5638e-11
6.56303e-11
6.43814e-11
6.31322e-11
6.18821e-11
6.06323e-11
5.93831e-11
5.81337e-11
5.68834e-11
5.56333e-11
5.43796e-11
6.43835e-11
6.31349e-11
6.18857e-11
6.06351e-11
5.93836e-11
5.81326e-11
5.6882e-11
5.56293e-11
5.43745e-11
5.31173e-11
6.31393e-11
6.18907e-11
6.0641e-11
5.93893e-11
5.81363e-11
5.68823e-11
5.56281e-11
5.43712e-11
5.31107e-11
5.18487e-11
6.18966e-11
6.06475e-11
5.93968e-11
5.8144e-11
5.68894e-11
5.5633e-11
5.4374e-11
5.31104e-11
5.18413e-11
5.0568e-11
6.06536e-11
5.94011e-11
5.81485e-11
5.68942e-11
5.56381e-11
5.43797e-11
5.31175e-11
5.18485e-11
5.05676e-11
4.92783e-11
7.19661e-11
7.07046e-11
6.94395e-11
6.81768e-11
6.69172e-11
6.56602e-11
6.44052e-11
6.31515e-11
6.18982e-11
6.06431e-11
7.07038e-11
6.94469e-11
6.81864e-11
6.69256e-11
6.56668e-11
6.44104e-11
6.31559e-11
6.19025e-11
6.06488e-11
5.93908e-11
6.94389e-11
6.81857e-11
6.69303e-11
6.5673e-11
6.44154e-11
6.31594e-11
6.19052e-11
6.06514e-11
5.93971e-11
5.81379e-11
6.81767e-11
6.69251e-11
6.56723e-11
6.44181e-11
6.31626e-11
6.19068e-11
6.06519e-11
5.93974e-11
5.81423e-11
5.68824e-11
6.69173e-11
6.56668e-11
6.4415e-11
6.31619e-11
6.1908e-11
6.0653e-11
5.93971e-11
5.8141e-11
5.68846e-11
5.5624e-11
6.56603e-11
6.44105e-11
6.31594e-11
6.19063e-11
6.06523e-11
5.93978e-11
5.81416e-11
5.68834e-11
5.56243e-11
5.43624e-11
6.44054e-11
6.3156e-11
6.19053e-11
6.06519e-11
5.93965e-11
5.81404e-11
5.68837e-11
5.56237e-11
5.43606e-11
5.30964e-11
6.31517e-11
6.19026e-11
6.06515e-11
5.93975e-11
5.81408e-11
5.68822e-11
5.56224e-11
5.4359e-11
5.30914e-11
5.18238e-11
6.18983e-11
6.06489e-11
5.93972e-11
5.81424e-11
5.68847e-11
5.5624e-11
5.436e-11
5.3091e-11
5.18164e-11
5.05404e-11
6.06432e-11
5.93909e-11
5.8138e-11
5.68824e-11
5.56241e-11
5.43625e-11
5.30965e-11
5.18237e-11
5.05399e-11
4.92509e-11
7.19814e-11
7.07179e-11
6.94495e-11
6.81823e-11
6.69173e-11
6.5654e-11
6.43917e-11
6.31301e-11
6.18682e-11
6.06048e-11
7.07171e-11
6.94585e-11
6.81949e-11
6.69299e-11
6.56658e-11
6.44031e-11
6.31414e-11
6.18801e-11
6.06182e-11
5.93527e-11
6.94488e-11
6.81942e-11
6.6936e-11
6.56747e-11
6.44122e-11
6.31502e-11
6.18891e-11
6.06278e-11
5.93657e-11
5.80997e-11
6.81823e-11
6.69293e-11
6.5674e-11
6.44163e-11
6.31561e-11
6.18948e-11
6.06335e-11
5.93719e-11
5.81096e-11
5.68438e-11
6.69175e-11
6.56658e-11
6.44117e-11
6.31555e-11
6.18974e-11
6.06373e-11
5.93756e-11
5.81131e-11
5.68501e-11
5.55846e-11
6.56541e-11
6.44032e-11
6.31502e-11
6.18943e-11
6.06367e-11
5.93777e-11
5.81164e-11
5.68525e-11
5.55877e-11
5.43222e-11
6.43919e-11
6.31416e-11
6.18892e-11
6.06334e-11
5.9375e-11
5.81152e-11
5.68542e-11
5.55896e-11
5.4322e-11
5.30557e-11
6.31302e-11
6.18803e-11
6.06279e-11
5.9372e-11
5.8113e-11
5.68514e-11
5.55884e-11
5.43219e-11
5.30516e-11
5.17838e-11
6.18684e-11
6.06183e-11
5.93658e-11
5.81097e-11
5.68502e-11
5.55874e-11
5.43214e-11
5.30512e-11
5.17767e-11
5.05041e-11
6.06049e-11
5.93528e-11
5.80998e-11
5.68438e-11
5.55847e-11
5.43222e-11
5.30557e-11
5.17837e-11
5.05037e-11
4.92224e-11
7.1965e-11
7.07008e-11
6.94308e-11
6.8161e-11
6.68925e-11
6.56249e-11
6.43578e-11
6.30909e-11
6.18241e-11
6.05562e-11
7.07001e-11
6.94405e-11
6.81752e-11
6.69075e-11
6.56399e-11
6.4373e-11
6.31065e-11
6.18402e-11
6.05734e-11
5.93043e-11
6.94302e-11
6.81745e-11
6.69144e-11
6.56505e-11
6.43846e-11
6.31186e-11
6.18529e-11
6.05869e-11
5.93203e-11
5.80514e-11
6.8161e-11
6.6907e-11
6.56499e-11
6.43896e-11
6.31263e-11
6.18613e-11
6.05959e-11
5.93301e-11
5.80637e-11
5.67957e-11
6.68926e-11
6.56399e-11
6.43842e-11
6.31257e-11
6.18648e-11
6.06015e-11
5.93363e-11
5.80702e-11
5.68038e-11
5.55369e-11
6.5625e-11
6.43731e-11
6.31186e-11
6.18609e-11
6.06009e-11
5.93392e-11
5.8075e-11
5.68084e-11
5.55411e-11
5.42751e-11
6.43579e-11
6.31067e-11
6.1853e-11
6.05958e-11
5.93358e-11
5.8074e-11
5.68108e-11
5.55444e-11
5.42757e-11
5.30101e-11
6.30911e-11
6.18403e-11
6.0587e-11
5.93302e-11
5.80701e-11
5.68075e-11
5.55434e-11
5.42766e-11
5.30069e-11
5.17414e-11
6.18242e-11
6.05735e-11
5.93204e-11
5.80638e-11
5.68039e-11
5.55409e-11
5.42752e-11
5.30065e-11
5.17349e-11
5.04677e-11
6.05563e-11
5.93044e-11
5.80515e-11
5.67957e-11
5.55369e-11
5.42752e-11
5.30102e-11
5.17412e-11
5.04674e-11
4.91951e-11
7.19286e-11
7.06648e-11
6.93948e-11
6.81244e-11
6.68545e-11
6.5585e-11
6.43158e-11
6.30468e-11
6.17782e-11
6.05092e-11
7.06641e-11
6.94044e-11
6.81387e-11
6.68702e-11
6.56012e-11
6.43325e-11
6.30639e-11
6.17954e-11
6.0527e-11
5.92575e-11
6.93943e-11
6.81381e-11
6.68772e-11
6.56122e-11
6.4345e-11
6.30773e-11
6.18096e-11
6.05417e-11
5.92738e-11
5.80049e-11
6.81243e-11
6.68698e-11
6.56117e-11
6.43502e-11
6.30856e-11
6.18191e-11
6.05521e-11
5.92848e-11
5.80174e-11
5.67497e-11
6.68546e-11
6.56012e-11
6.43446e-11
6.30851e-11
6.18229e-11
6.05584e-11
5.92921e-11
5.8025e-11
5.67581e-11
5.5492e-11
6.55851e-11
6.43326e-11
6.30773e-11
6.18187e-11
6.05579e-11
5.92953e-11
5.80304e-11
5.67635e-11
5.54963e-11
5.42318e-11
6.43159e-11
6.3064e-11
6.18097e-11
6.0552e-11
5.92916e-11
5.80296e-11
5.67661e-11
5.55001e-11
5.42326e-11
5.29692e-11
6.30469e-11
6.17955e-11
6.05418e-11
5.92849e-11
5.80249e-11
5.67627e-11
5.54993e-11
5.42339e-11
5.29665e-11
5.17041e-11
6.17783e-11
6.05271e-11
5.92738e-11
5.80175e-11
5.67581e-11
5.54962e-11
5.42321e-11
5.29662e-11
5.16986e-11
5.04363e-11
6.05093e-11
5.92575e-11
5.80049e-11
5.67498e-11
5.5492e-11
5.42318e-11
5.29691e-11
5.17039e-11
5.04361e-11
4.9171e-11
7.18827e-11
7.062e-11
6.93514e-11
6.80819e-11
6.68125e-11
6.55432e-11
6.42742e-11
6.30055e-11
6.17375e-11
6.04698e-11
7.06194e-11
6.93603e-11
6.80953e-11
6.68275e-11
6.5559e-11
6.42904e-11
6.3022e-11
6.17538e-11
6.04861e-11
5.92182e-11
6.93509e-11
6.80948e-11
6.68341e-11
6.55694e-11
6.43025e-11
6.30351e-11
6.17676e-11
6.05001e-11
5.9233e-11
5.7966e-11
6.80818e-11
6.68272e-11
6.5569e-11
6.43075e-11
6.30431e-11
6.17769e-11
6.05103e-11
5.92437e-11
5.79773e-11
5.67116e-11
6.68126e-11
6.5559e-11
6.43022e-11
6.30426e-11
6.17807e-11
6.05165e-11
5.92509e-11
5.79848e-11
5.67192e-11
5.54551e-11
6.55433e-11
6.42905e-11
6.30351e-11
6.17766e-11
6.05161e-11
5.92539e-11
5.79899e-11
5.67244e-11
5.54591e-11
5.41967e-11
6.42743e-11
6.30221e-11
6.17677e-11
6.05103e-11
5.92505e-11
5.79893e-11
5.67269e-11
5.54627e-11
5.41976e-11
5.29366e-11
6.30056e-11
6.17539e-11
6.05002e-11
5.92437e-11
5.79847e-11
5.67239e-11
5.5462e-11
5.41989e-11
5.29346e-11
5.16749e-11
6.17375e-11
6.04862e-11
5.92331e-11
5.79774e-11
5.67192e-11
5.5459e-11
5.41972e-11
5.29343e-11
5.16705e-11
5.04118e-11
6.04698e-11
5.92183e-11
5.7966e-11
5.67116e-11
5.54551e-11
5.41967e-11
5.29366e-11
5.16748e-11
5.04116e-11
4.91513e-11
7.18353e-11
7.05741e-11
6.93076e-11
6.80401e-11
6.67724e-11
6.55048e-11
6.42374e-11
6.29705e-11
6.17045e-11
6.04393e-11
7.05736e-11
6.93154e-11
6.8052e-11
6.67859e-11
6.5519e-11
6.4252e-11
6.29852e-11
6.17188e-11
6.04532e-11
5.91879e-11
6.93073e-11
6.80516e-11
6.67917e-11
6.55283e-11
6.42629e-11
6.2997e-11
6.17311e-11
6.04654e-11
5.92004e-11
5.7936e-11
6.804e-11
6.67856e-11
6.55279e-11
6.42673e-11
6.30041e-11
6.17395e-11
6.04746e-11
5.92098e-11
5.79456e-11
5.66824e-11
6.67725e-11
6.5519e-11
6.42627e-11
6.30038e-11
6.17429e-11
6.04801e-11
5.92162e-11
5.79522e-11
5.66888e-11
5.54272e-11
6.55049e-11
6.42521e-11
6.2997e-11
6.17393e-11
6.04798e-11
5.92189e-11
5.79567e-11
5.66934e-11
5.54305e-11
5.41705e-11
6.42375e-11
6.29853e-11
6.17312e-11
6.04746e-11
5.9216e-11
5.79562e-11
5.66955e-11
5.54336e-11
5.41712e-11
5.29126e-11
6.29706e-11
6.17189e-11
6.04655e-11
5.92099e-11
5.79522e-11
5.6693e-11
5.54331e-11
5.41724e-11
5.2911e-11
5.16536e-11
6.17046e-11
6.04532e-11
5.92005e-11
5.79456e-11
5.66888e-11
5.54304e-11
5.41709e-11
5.29107e-11
5.16501e-11
5.03938e-11
6.04393e-11
5.9188e-11
5.79361e-11
5.66824e-11
5.54272e-11
5.41705e-11
5.29125e-11
5.16535e-11
5.03936e-11
4.91362e-11
7.17912e-11
7.05317e-11
6.92677e-11
6.80025e-11
6.67372e-11
6.5472e-11
6.4207e-11
6.29426e-11
6.16791e-11
6.04166e-11
7.05313e-11
6.92742e-11
6.80127e-11
6.67488e-11
6.54842e-11
6.42194e-11
6.2955e-11
6.1691e-11
6.04279e-11
5.91655e-11
6.92674e-11
6.80123e-11
6.67537e-11
6.54921e-11
6.42287e-11
6.2965e-11
6.17013e-11
6.04381e-11
5.91755e-11
5.79138e-11
6.80025e-11
6.67486e-11
6.54918e-11
6.42325e-11
6.29711e-11
6.17085e-11
6.04458e-11
5.91833e-11
5.79215e-11
5.66609e-11
6.67373e-11
6.54841e-11
6.42285e-11
6.29708e-11
6.17113e-11
6.04504e-11
5.91887e-11
5.7927e-11
5.6666e-11
5.54067e-11
6.5472e-11
6.42195e-11
6.2965e-11
6.17083e-11
6.04502e-11
5.9191e-11
5.79307e-11
5.66698e-11
5.54094e-11
5.41515e-11
6.4207e-11
6.2955e-11
6.17014e-11
6.04458e-11
5.91885e-11
5.79304e-11
5.66716e-11
5.54119e-11
5.41521e-11
5.28953e-11
6.29426e-11
6.16911e-11
6.04381e-11
5.91834e-11
5.7927e-11
5.66695e-11
5.54115e-11
5.4153e-11
5.28941e-11
5.16384e-11
6.16792e-11
6.04279e-11
5.91756e-11
5.79216e-11
5.66661e-11
5.54093e-11
5.41518e-11
5.28939e-11
5.16357e-11
5.03808e-11
6.04166e-11
5.91655e-11
5.79139e-11
5.66609e-11
5.54068e-11
5.41515e-11
5.28953e-11
5.16383e-11
5.03807e-11
4.9125e-11
7.17529e-11
7.0495e-11
6.92333e-11
6.79707e-11
6.67079e-11
6.54451e-11
6.41827e-11
6.29208e-11
6.16599e-11
6.03998e-11
7.04947e-11
6.92387e-11
6.79791e-11
6.67175e-11
6.54552e-11
6.41929e-11
6.29309e-11
6.16694e-11
6.04088e-11
5.91489e-11
6.92331e-11
6.79788e-11
6.67215e-11
6.54617e-11
6.42006e-11
6.29391e-11
6.16778e-11
6.0417e-11
5.91568e-11
5.78975e-11
6.79707e-11
6.67173e-11
6.54615e-11
6.42037e-11
6.29441e-11
6.16837e-11
6.04232e-11
5.91631e-11
5.79036e-11
5.66451e-11
6.6708e-11
6.54552e-11
6.42004e-11
6.29439e-11
6.1686e-11
6.0427e-11
5.91674e-11
5.7908e-11
5.66492e-11
5.53918e-11
6.54452e-11
6.4193e-11
6.29391e-11
6.16836e-11
6.04268e-11
5.91693e-11
5.79109e-11
5.66522e-11
5.53939e-11
5.41377e-11
6.41827e-11
6.2931e-11
6.16779e-11
6.04232e-11
5.91673e-11
5.79106e-11
5.66536e-11
5.53959e-11
5.41381e-11
5.28828e-11
6.29209e-11
6.16695e-11
6.0417e-11
5.91631e-11
5.7908e-11
5.66519e-11
5.53956e-11
5.41388e-11
5.28818e-11
5.16274e-11
6.16599e-11
6.04088e-11
5.91569e-11
5.79036e-11
5.66492e-11
5.53939e-11
5.41379e-11
5.28817e-11
5.16253e-11
5.03714e-11
6.03999e-11
5.91489e-11
5.78975e-11
5.66452e-11
5.53918e-11
5.41377e-11
5.28828e-11
5.16273e-11
5.03714e-11
4.91168e-11
7.17209e-11
7.04644e-11
6.92049e-11
6.79446e-11
6.66841e-11
6.54237e-11
6.41636e-11
6.2904e-11
6.16453e-11
6.03873e-11
7.04642e-11
6.92093e-11
6.79514e-11
6.66919e-11
6.54319e-11
6.41718e-11
6.29121e-11
6.16528e-11
6.03943e-11
5.91365e-11
6.92048e-11
6.79512e-11
6.66951e-11
6.54371e-11
6.4178e-11
6.29187e-11
6.16595e-11
6.04008e-11
5.91427e-11
5.78853e-11
6.79446e-11
6.66917e-11
6.54369e-11
6.41805e-11
6.29227e-11
6.16642e-11
6.04057e-11
5.91476e-11
5.78901e-11
5.66334e-11
6.66842e-11
6.54319e-11
6.41779e-11
6.29225e-11
6.16661e-11
6.04088e-11
5.91511e-11
5.78935e-11
5.66365e-11
5.53807e-11
6.54238e-11
6.41719e-11
6.29187e-11
6.16641e-11
6.04086e-11
5.91525e-11
5.78958e-11
5.66389e-11
5.53823e-11
5.41274e-11
6.41636e-11
6.29121e-11
6.16596e-11
6.04057e-11
5.91509e-11
5.78956e-11
5.664e-11
5.53839e-11
5.41277e-11
5.28736e-11
6.29041e-11
6.16529e-11
6.04008e-11
5.91476e-11
5.78935e-11
5.66387e-11
5.53836e-11
5.41283e-11
5.28728e-11
5.16192e-11
6.16453e-11
6.03943e-11
5.91427e-11
5.78901e-11
5.66366e-11
5.53823e-11
5.41276e-11
5.28727e-11
5.16176e-11
5.03645e-11
6.03873e-11
5.91365e-11
5.78853e-11
5.66334e-11
5.53807e-11
5.41274e-11
5.28735e-11
5.16192e-11
5.03644e-11
4.91106e-11
7.16949e-11
7.04396e-11
6.9182e-11
6.79237e-11
6.66652e-11
6.54068e-11
6.41486e-11
6.2891e-11
6.1634e-11
6.03777e-11
7.04395e-11
6.91855e-11
6.7929e-11
6.66714e-11
6.54133e-11
6.41552e-11
6.28974e-11
6.164e-11
6.03832e-11
5.9127e-11
6.91818e-11
6.79289e-11
6.6674e-11
6.54175e-11
6.41601e-11
6.29026e-11
6.16453e-11
6.03883e-11
5.91318e-11
5.7876e-11
6.79236e-11
6.66713e-11
6.54173e-11
6.41621e-11
6.29058e-11
6.1649e-11
6.03922e-11
5.91357e-11
5.78797e-11
5.66244e-11
6.66652e-11
6.54133e-11
6.416e-11
6.29057e-11
6.16505e-11
6.03946e-11
5.91384e-11
5.78824e-11
5.66269e-11
5.53722e-11
6.54068e-11
6.41552e-11
6.29026e-11
6.16489e-11
6.03945e-11
5.91396e-11
5.78842e-11
5.66287e-11
5.53735e-11
5.41195e-11
6.41487e-11
6.28974e-11
6.16453e-11
6.03922e-11
5.91383e-11
5.7884e-11
5.66295e-11
5.53747e-11
5.41198e-11
5.28665e-11
6.2891e-11
6.164e-11
6.03883e-11
5.91357e-11
5.78824e-11
5.66285e-11
5.53745e-11
5.41202e-11
5.28658e-11
5.1613e-11
6.16341e-11
6.03832e-11
5.91319e-11
5.78797e-11
5.66269e-11
5.53735e-11
5.41197e-11
5.28658e-11
5.16117e-11
5.03591e-11
6.03777e-11
5.9127e-11
5.7876e-11
5.66244e-11
5.53722e-11
5.41195e-11
5.28664e-11
5.16129e-11
5.03591e-11
4.9106e-11
7.1674e-11
7.04198e-11
6.91637e-11
6.7907e-11
6.66502e-11
6.53935e-11
6.41369e-11
6.28808e-11
6.16253e-11
6.03703e-11
7.04197e-11
6.91664e-11
6.79113e-11
6.66551e-11
6.53986e-11
6.41421e-11
6.28859e-11
6.16299e-11
6.03746e-11
5.91196e-11
6.91636e-11
6.79111e-11
6.66571e-11
6.54019e-11
6.4146e-11
6.289e-11
6.16341e-11
6.03785e-11
5.91234e-11
5.78687e-11
6.7907e-11
6.6655e-11
6.54018e-11
6.41476e-11
6.28925e-11
6.1637e-11
6.03816e-11
5.91264e-11
5.78716e-11
5.66174e-11
6.66502e-11
6.53986e-11
6.41459e-11
6.28924e-11
6.16382e-11
6.03835e-11
5.91286e-11
5.78738e-11
5.66193e-11
5.53656e-11
6.53935e-11
6.41422e-11
6.289e-11
6.1637e-11
6.03834e-11
5.91295e-11
5.78752e-11
5.66208e-11
5.53666e-11
5.41134e-11
6.4137e-11
6.28859e-11
6.16341e-11
6.03816e-11
5.91285e-11
5.7875e-11
5.66214e-11
5.53675e-11
5.41136e-11
5.28609e-11
6.28809e-11
6.163e-11
6.03786e-11
5.91264e-11
5.78737e-11
5.66206e-11
5.53674e-11
5.4114e-11
5.28604e-11
5.16081e-11
6.16253e-11
6.03746e-11
5.91234e-11
5.78717e-11
5.66193e-11
5.53666e-11
5.41135e-11
5.28604e-11
5.16071e-11
5.0355e-11
6.03703e-11
5.91196e-11
5.78687e-11
5.66174e-11
5.53656e-11
5.41134e-11
5.28609e-11
5.16081e-11
5.03549e-11
4.91024e-11
7.16575e-11
7.04041e-11
6.91492e-11
6.78938e-11
6.66384e-11
6.5383e-11
6.41278e-11
6.28729e-11
6.16184e-11
6.03644e-11
7.0404e-11
6.91514e-11
6.78972e-11
6.66422e-11
6.5387e-11
6.41318e-11
6.28768e-11
6.16221e-11
6.03678e-11
5.91138e-11
6.91491e-11
6.78971e-11
6.66439e-11
6.53896e-11
6.41349e-11
6.28801e-11
6.16254e-11
6.03709e-11
5.91168e-11
5.7863e-11
6.78938e-11
6.66422e-11
6.53896e-11
6.41361e-11
6.28821e-11
6.16277e-11
6.03733e-11
5.91192e-11
5.78653e-11
5.66119e-11
6.66384e-11
6.5387e-11
6.41348e-11
6.2882e-11
6.16286e-11
6.03748e-11
5.91208e-11
5.7867e-11
5.66134e-11
5.53604e-11
6.5383e-11
6.41319e-11
6.28801e-11
6.16276e-11
6.03747e-11
5.91215e-11
5.78681e-11
5.66145e-11
5.53612e-11
5.41086e-11
6.41278e-11
6.28768e-11
6.16254e-11
6.03733e-11
5.91208e-11
5.7868e-11
5.6615e-11
5.53619e-11
5.41088e-11
5.28565e-11
6.28729e-11
6.16221e-11
6.03709e-11
5.91192e-11
5.7867e-11
5.66144e-11
5.53618e-11
5.4109e-11
5.28562e-11
5.16042e-11
6.16184e-11
6.03678e-11
5.91168e-11
5.78653e-11
5.66134e-11
5.53612e-11
5.41087e-11
5.28561e-11
5.16034e-11
5.03517e-11
6.03644e-11
5.91138e-11
5.7863e-11
5.66119e-11
5.53604e-11
5.41086e-11
5.28565e-11
5.16042e-11
5.03516e-11
4.90995e-11
7.16445e-11
7.03917e-11
6.91377e-11
6.78834e-11
6.6629e-11
6.53747e-11
6.41205e-11
6.28666e-11
6.1613e-11
6.03597e-11
7.03916e-11
6.91395e-11
6.78861e-11
6.66321e-11
6.53779e-11
6.41237e-11
6.28697e-11
6.16159e-11
6.03624e-11
5.91092e-11
6.91377e-11
6.7886e-11
6.66334e-11
6.538e-11
6.41262e-11
6.28723e-11
6.16185e-11
6.03649e-11
5.91116e-11
5.78585e-11
6.78834e-11
6.6632e-11
6.53799e-11
6.41271e-11
6.28738e-11
6.16203e-11
6.03668e-11
5.91134e-11
5.78603e-11
5.66075e-11
6.66291e-11
6.53779e-11
6.41261e-11
6.28738e-11
6.1621e-11
6.03679e-11
5.91147e-11
5.78616e-11
5.66087e-11
5.53563e-11
6.53747e-11
6.41238e-11
6.28723e-11
6.16203e-11
6.03679e-11
5.91153e-11
5.78625e-11
5.66096e-11
5.53569e-11
5.41048e-11
6.41205e-11
6.28697e-11
6.16185e-11
6.03668e-11
5.91147e-11
5.78624e-11
5.661e-11
5.53575e-11
5.41049e-11
5.28531e-11
6.28666e-11
6.16159e-11
6.03649e-11
5.91134e-11
5.78616e-11
5.66095e-11
5.53574e-11
5.41051e-11
5.28528e-11
5.16012e-11
6.1613e-11
6.03624e-11
5.91116e-11
5.78603e-11
5.66087e-11
5.53569e-11
5.41049e-11
5.28527e-11
5.16005e-11
5.03491e-11
6.03598e-11
5.91092e-11
5.78585e-11
5.66075e-11
5.53563e-11
5.41048e-11
5.28531e-11
5.16012e-11
5.03491e-11
4.90973e-11
7.16342e-11
7.03819e-11
6.91287e-11
6.78752e-11
6.66217e-11
6.53682e-11
6.41148e-11
6.28616e-11
6.16087e-11
6.03561e-11
7.03819e-11
6.91301e-11
6.78773e-11
6.66241e-11
6.53707e-11
6.41174e-11
6.28641e-11
6.1611e-11
6.03582e-11
5.91056e-11
6.91287e-11
6.78773e-11
6.66251e-11
6.53723e-11
6.41193e-11
6.28661e-11
6.16131e-11
6.03601e-11
5.91074e-11
5.7855e-11
6.78752e-11
6.66241e-11
6.53723e-11
6.412e-11
6.28673e-11
6.16145e-11
6.03616e-11
5.91089e-11
5.78564e-11
5.66041e-11
6.66217e-11
6.53707e-11
6.41192e-11
6.28673e-11
6.1615e-11
6.03626e-11
5.91099e-11
5.78574e-11
5.66051e-11
5.5353e-11
6.53682e-11
6.41174e-11
6.28661e-11
6.16144e-11
6.03625e-11
5.91104e-11
5.78581e-11
5.66057e-11
5.53535e-11
5.41018e-11
6.41148e-11
6.28641e-11
6.16131e-11
6.03616e-11
5.91099e-11
5.7858e-11
5.66061e-11
5.5354e-11
5.41019e-11
5.28503e-11
6.28617e-11
6.1611e-11
6.03601e-11
5.91089e-11
5.78574e-11
5.66057e-11
5.53539e-11
5.4102e-11
5.28501e-11
5.15988e-11
6.16087e-11
6.03582e-11
5.91074e-11
5.78564e-11
5.66051e-11
5.53535e-11
5.41018e-11
5.28501e-11
5.15983e-11
5.0347e-11
6.03561e-11
5.91056e-11
5.7855e-11
5.66041e-11
5.5353e-11
5.41018e-11
5.28503e-11
5.15987e-11
5.0347e-11
4.90956e-11
7.16261e-11
7.03742e-11
6.91216e-11
6.78688e-11
6.66159e-11
6.53631e-11
6.41103e-11
6.28577e-11
6.16054e-11
6.03532e-11
7.03742e-11
6.91227e-11
6.78704e-11
6.66178e-11
6.5365e-11
6.41123e-11
6.28597e-11
6.16072e-11
6.03549e-11
5.91027e-11
6.91215e-11
6.78704e-11
6.66186e-11
6.53663e-11
6.41138e-11
6.28613e-11
6.16088e-11
6.03564e-11
5.91042e-11
5.78521e-11
6.78688e-11
6.66178e-11
6.53663e-11
6.41144e-11
6.28622e-11
6.16099e-11
6.03576e-11
5.91053e-11
5.78533e-11
5.66014e-11
6.66159e-11
6.53651e-11
6.41138e-11
6.28622e-11
6.16103e-11
6.03583e-11
5.91062e-11
5.78541e-11
5.66021e-11
5.53505e-11
6.53631e-11
6.41123e-11
6.28613e-11
6.16099e-11
6.03583e-11
5.91065e-11
5.78546e-11
5.66027e-11
5.53509e-11
5.40994e-11
6.41103e-11
6.28597e-11
6.16088e-11
6.03576e-11
5.91061e-11
5.78546e-11
5.66029e-11
5.53512e-11
5.40995e-11
5.28482e-11
6.28577e-11
6.16072e-11
6.03564e-11
5.91053e-11
5.78541e-11
5.66026e-11
5.53512e-11
5.40996e-11
5.2848e-11
5.15969e-11
6.16054e-11
6.03549e-11
5.91042e-11
5.78533e-11
5.66021e-11
5.53508e-11
5.40994e-11
5.2848e-11
5.15965e-11
5.03454e-11
6.03532e-11
5.91027e-11
5.78521e-11
5.66014e-11
5.53505e-11
5.40994e-11
5.28482e-11
5.15969e-11
5.03454e-11
4.90942e-11
7.16197e-11
7.03681e-11
6.9116e-11
6.78637e-11
6.66113e-11
6.5359e-11
6.41068e-11
6.28547e-11
6.16027e-11
6.03509e-11
7.03681e-11
6.91168e-11
6.7865e-11
6.66128e-11
6.53606e-11
6.41084e-11
6.28562e-11
6.16041e-11
6.03522e-11
5.91005e-11
6.91159e-11
6.78649e-11
6.66135e-11
6.53616e-11
6.41095e-11
6.28574e-11
6.16054e-11
6.03534e-11
5.91016e-11
5.78499e-11
6.78637e-11
6.66128e-11
6.53616e-11
6.411e-11
6.28582e-11
6.16063e-11
6.03544e-11
5.91025e-11
5.78508e-11
5.65993e-11
6.66113e-11
6.53606e-11
6.41095e-11
6.28582e-11
6.16066e-11
6.03549e-11
5.91032e-11
5.78515e-11
5.65999e-11
5.53485e-11
6.5359e-11
6.41084e-11
6.28574e-11
6.16063e-11
6.03549e-11
5.91034e-11
5.78519e-11
5.66003e-11
5.53488e-11
5.40975e-11
6.41068e-11
6.28562e-11
6.16054e-11
6.03544e-11
5.91032e-11
5.78518e-11
5.66005e-11
5.5349e-11
5.40976e-11
5.28465e-11
6.28547e-11
6.16041e-11
6.03534e-11
5.91025e-11
5.78515e-11
5.66002e-11
5.5349e-11
5.40977e-11
5.28463e-11
5.15954e-11
6.16027e-11
6.03522e-11
5.91016e-11
5.78508e-11
5.65998e-11
5.53487e-11
5.40976e-11
5.28463e-11
5.15951e-11
5.03442e-11
6.03509e-11
5.91005e-11
5.78499e-11
5.65993e-11
5.53485e-11
5.40975e-11
5.28465e-11
5.15954e-11
5.03441e-11
4.90931e-11
7.16146e-11
7.03633e-11
6.91116e-11
6.78597e-11
6.66077e-11
6.53558e-11
6.4104e-11
6.28522e-11
6.16006e-11
6.03491e-11
7.03633e-11
6.91122e-11
6.78607e-11
6.66089e-11
6.53571e-11
6.41052e-11
6.28534e-11
6.16017e-11
6.03502e-11
5.90987e-11
6.91115e-11
6.78607e-11
6.66094e-11
6.53579e-11
6.41062e-11
6.28544e-11
6.16027e-11
6.03511e-11
5.90996e-11
5.78482e-11
6.78597e-11
6.66089e-11
6.53578e-11
6.41065e-11
6.2855e-11
6.16034e-11
6.03518e-11
5.91003e-11
5.78489e-11
5.65976e-11
6.66077e-11
6.53571e-11
6.41061e-11
6.2855e-11
6.16037e-11
6.03523e-11
5.91008e-11
5.78494e-11
5.6598e-11
5.53469e-11
6.53558e-11
6.41052e-11
6.28544e-11
6.16034e-11
6.03523e-11
5.9101e-11
5.78497e-11
5.65984e-11
5.53471e-11
5.40961e-11
6.4104e-11
6.28534e-11
6.16027e-11
6.03518e-11
5.91008e-11
5.78497e-11
5.65985e-11
5.53473e-11
5.40961e-11
5.28452e-11
6.28522e-11
6.16017e-11
6.03511e-11
5.91003e-11
5.78494e-11
5.65984e-11
5.53473e-11
5.40962e-11
5.2845e-11
5.15942e-11
6.16006e-11
6.03502e-11
5.90996e-11
5.78489e-11
5.6598e-11
5.53471e-11
5.40961e-11
5.2845e-11
5.1594e-11
5.03432e-11
6.03491e-11
5.90987e-11
5.78482e-11
5.65976e-11
5.53469e-11
5.4096e-11
5.28452e-11
5.15942e-11
5.03431e-11
4.90922e-11
7.16106e-11
7.03595e-11
6.91081e-11
6.78565e-11
6.66049e-11
6.53533e-11
6.41018e-11
6.28503e-11
6.1599e-11
6.03477e-11
7.03595e-11
6.91086e-11
6.78573e-11
6.66058e-11
6.53543e-11
6.41028e-11
6.28513e-11
6.15999e-11
6.03485e-11
5.90973e-11
6.9108e-11
6.78573e-11
6.66062e-11
6.53549e-11
6.41035e-11
6.2852e-11
6.16006e-11
6.03493e-11
5.9098e-11
5.78468e-11
6.78565e-11
6.66058e-11
6.53549e-11
6.41038e-11
6.28525e-11
6.16012e-11
6.03499e-11
5.90986e-11
5.78474e-11
5.65963e-11
6.66049e-11
6.53543e-11
6.41035e-11
6.28525e-11
6.16014e-11
6.03502e-11
5.9099e-11
5.78478e-11
5.65966e-11
5.53456e-11
6.53533e-11
6.41028e-11
6.28521e-11
6.16012e-11
6.03502e-11
5.90991e-11
5.7848e-11
5.65969e-11
5.53458e-11
5.40949e-11
6.41018e-11
6.28513e-11
6.16006e-11
6.03499e-11
5.9099e-11
5.7848e-11
5.6597e-11
5.5346e-11
5.40949e-11
5.28441e-11
6.28503e-11
6.15999e-11
6.03493e-11
5.90986e-11
5.78478e-11
5.65969e-11
5.53459e-11
5.4095e-11
5.2844e-11
5.15933e-11
6.1599e-11
6.03485e-11
5.9098e-11
5.78474e-11
5.65966e-11
5.53458e-11
5.40949e-11
5.2844e-11
5.15931e-11
5.03424e-11
6.03477e-11
5.90973e-11
5.78468e-11
5.65963e-11
5.53456e-11
5.40949e-11
5.28441e-11
5.15933e-11
5.03424e-11
4.90916e-11
7.16075e-11
7.03566e-11
6.91053e-11
6.7854e-11
6.66027e-11
6.53513e-11
6.41e-11
6.28488e-11
6.15977e-11
6.03466e-11
7.03565e-11
6.91057e-11
6.78546e-11
6.66034e-11
6.53521e-11
6.41008e-11
6.28496e-11
6.15984e-11
6.03472e-11
5.90962e-11
6.91053e-11
6.78546e-11
6.66037e-11
6.53526e-11
6.41014e-11
6.28502e-11
6.1599e-11
6.03478e-11
5.90968e-11
5.78457e-11
6.7854e-11
6.66034e-11
6.53526e-11
6.41016e-11
6.28505e-11
6.15994e-11
6.03483e-11
5.90972e-11
5.78462e-11
5.65952e-11
6.66027e-11
6.53521e-11
6.41014e-11
6.28505e-11
6.15996e-11
6.03486e-11
5.90975e-11
5.78465e-11
5.65955e-11
5.53446e-11
6.53513e-11
6.41008e-11
6.28502e-11
6.15994e-11
6.03486e-11
5.90976e-11
5.78467e-11
5.65957e-11
5.53448e-11
5.4094e-11
6.41001e-11
6.28496e-11
6.1599e-11
6.03483e-11
5.90975e-11
5.78467e-11
5.65958e-11
5.53449e-11
5.4094e-11
5.28433e-11
6.28488e-11
6.15984e-11
6.03478e-11
5.90972e-11
5.78465e-11
5.65957e-11
5.53449e-11
5.40941e-11
5.28432e-11
5.15925e-11
6.15977e-11
6.03472e-11
5.90967e-11
5.78462e-11
5.65955e-11
5.53448e-11
5.4094e-11
5.28432e-11
5.15924e-11
5.03417e-11
6.03466e-11
5.90962e-11
5.78457e-11
5.65952e-11
5.53446e-11
5.4094e-11
5.28433e-11
5.15925e-11
5.03417e-11
4.9091e-11
7.1605e-11
7.03542e-11
6.91031e-11
6.7852e-11
6.66009e-11
6.53498e-11
6.40987e-11
6.28476e-11
6.15966e-11
6.03457e-11
7.03542e-11
6.91035e-11
6.78525e-11
6.66015e-11
6.53504e-11
6.40993e-11
6.28482e-11
6.15972e-11
6.03462e-11
5.90953e-11
6.91031e-11
6.78525e-11
6.66017e-11
6.53508e-11
6.40997e-11
6.28487e-11
6.15977e-11
6.03467e-11
5.90958e-11
5.78449e-11
6.7852e-11
6.66015e-11
6.53508e-11
6.40999e-11
6.2849e-11
6.1598e-11
6.03471e-11
5.90961e-11
5.78452e-11
5.65944e-11
6.66009e-11
6.53504e-11
6.40997e-11
6.2849e-11
6.15982e-11
6.03473e-11
5.90964e-11
5.78455e-11
5.65946e-11
5.53439e-11
6.53498e-11
6.40993e-11
6.28487e-11
6.1598e-11
6.03473e-11
5.90965e-11
5.78456e-11
5.65948e-11
5.5344e-11
5.40933e-11
6.40987e-11
6.28482e-11
6.15977e-11
6.03471e-11
5.90964e-11
5.78456e-11
5.65949e-11
5.53441e-11
5.40933e-11
5.28426e-11
6.28476e-11
6.15972e-11
6.03467e-11
5.90961e-11
5.78455e-11
5.65948e-11
5.53441e-11
5.40933e-11
5.28426e-11
5.1592e-11
6.15966e-11
6.03462e-11
5.90958e-11
5.78452e-11
5.65946e-11
5.5344e-11
5.40933e-11
5.28426e-11
5.15918e-11
5.03413e-11
6.03457e-11
5.90953e-11
5.78449e-11
5.65944e-11
5.53438e-11
5.40933e-11
5.28426e-11
5.1592e-11
5.03413e-11
4.90906e-11
7.16031e-11
7.03524e-11
6.91014e-11
6.78505e-11
6.65995e-11
6.53485e-11
6.40976e-11
6.28467e-11
6.15958e-11
6.0345e-11
7.03523e-11
6.91017e-11
6.78509e-11
6.66e-11
6.5349e-11
6.40981e-11
6.28472e-11
6.15963e-11
6.03454e-11
5.90946e-11
6.91014e-11
6.78509e-11
6.66001e-11
6.53493e-11
6.40984e-11
6.28475e-11
6.15967e-11
6.03458e-11
5.9095e-11
5.78442e-11
6.78505e-11
6.66e-11
6.53493e-11
6.40986e-11
6.28478e-11
6.15969e-11
6.03461e-11
5.90953e-11
5.78445e-11
5.65937e-11
6.65995e-11
6.5349e-11
6.40984e-11
6.28478e-11
6.1597e-11
6.03463e-11
5.90955e-11
5.78447e-11
5.65939e-11
5.53432e-11
6.53485e-11
6.40981e-11
6.28475e-11
6.15969e-11
6.03462e-11
5.90955e-11
5.78448e-11
5.65941e-11
5.53433e-11
5.40927e-11
6.40976e-11
6.28472e-11
6.15967e-11
6.03461e-11
5.90954e-11
5.78448e-11
5.65941e-11
5.53434e-11
5.40927e-11
5.28421e-11
6.28467e-11
6.15963e-11
6.03458e-11
5.90953e-11
5.78447e-11
5.6594e-11
5.53434e-11
5.40927e-11
5.28421e-11
5.15915e-11
6.15958e-11
6.03454e-11
5.9095e-11
5.78445e-11
5.65939e-11
5.53433e-11
5.40927e-11
5.28421e-11
5.15914e-11
5.03409e-11
6.0345e-11
5.90946e-11
5.78442e-11
5.65937e-11
5.53432e-11
5.40927e-11
5.28421e-11
5.15915e-11
5.03409e-11
4.90903e-11
7.16015e-11
7.03509e-11
6.91001e-11
6.78493e-11
6.65984e-11
6.53476e-11
6.40967e-11
6.2846e-11
6.15952e-11
6.03445e-11
7.03509e-11
6.91003e-11
6.78496e-11
6.65988e-11
6.53479e-11
6.40971e-11
6.28463e-11
6.15955e-11
6.03448e-11
5.90941e-11
6.91001e-11
6.78496e-11
6.65989e-11
6.53482e-11
6.40974e-11
6.28466e-11
6.15958e-11
6.03451e-11
5.90944e-11
5.78437e-11
6.78493e-11
6.65988e-11
6.53482e-11
6.40975e-11
6.28468e-11
6.15961e-11
6.03453e-11
5.90946e-11
5.78439e-11
5.65932e-11
6.65984e-11
6.53479e-11
6.40974e-11
6.28468e-11
6.15961e-11
6.03454e-11
5.90947e-11
5.7844e-11