/*--------------------------------*- C++ -*----------------------------------*\
| =========                 |                                                 |
| \\      /  F ield         | foam-extend: Open Source CFD                    |
|  \\    /   O peration     | Version:     3.1                                |
|   \\  /    A nd           | Web:         http://www.extend-project.de       |
|    \\/     M anipulation  |                                                 |
\*---------------------------------------------------------------------------*/
FoamFile
{
    version     2.0;
    format      ascii;
    class       volVectorField;
    location    "3.8";
    object      cellMotionU;
}
// * * * * * * * * * * * * * * * * * * * * * * * * * * * * * * * * * * * * * //

dimensions      [0 1 -1 0 0 0 0];

internalField   nonuniform List<vector> 
14592
(
(-1.39665e-12 -2.14474e-12 3.1481e-12)
(-4.06667e-12 -6.26597e-12 9.29377e-12)
(-6.56147e-12 -1.01672e-11 1.53972e-11)
(-9.00644e-12 -1.40379e-11 2.19139e-11)
(-1.15362e-11 -1.80294e-11 2.92694e-11)
(-1.43127e-11 -2.22553e-11 3.78855e-11)
(-1.75499e-11 -2.67818e-11 4.81964e-11)
(-2.15524e-11 -3.15927e-11 6.065e-11)
(-2.678e-11 -3.65367e-11 7.5683e-11)
(-3.3968e-11 -4.12091e-11 9.36537e-11)
(-4.43658e-11 -4.4767e-11 1.14692e-10)
(-6.02326e-11 -4.56482e-11 1.38411e-10)
(-8.58814e-11 -4.12269e-11 1.63397e-10)
(-1.29624e-10 -2.7769e-11 1.86419e-10)
(-2.0511e-10 -2.18692e-12 2.01605e-10)
(-3.11612e-10 2.85326e-11 2.0231e-10)
(-4.14039e-12 -6.33693e-12 9.32927e-12)
(-1.20525e-11 -1.85135e-11 2.75404e-11)
(-1.94335e-11 -3.00454e-11 4.56191e-11)
(-2.66453e-11 -4.14908e-11 6.49093e-11)
(-3.40722e-11 -5.33029e-11 8.66649e-11)
(-4.2171e-11 -6.58336e-11 1.1213e-10)
(-5.15367e-11 -7.93033e-11 1.42592e-10)
(-6.30031e-11 -9.37287e-11 1.79391e-10)
(-7.78016e-11 -1.08783e-10 2.23872e-10)
(-9.78507e-11 -1.23497e-10 2.77221e-10)
(-1.26288e-10 -1.35821e-10 3.40097e-10)
(-1.68519e-10 -1.41878e-10 4.11925e-10)
(-2.34223e-10 -1.35076e-10 4.89643e-10)
(-3.40568e-10 -1.05631e-10 5.65854e-10)
(-5.12233e-10 -4.35881e-11 6.27041e-10)
(-7.3585e-10 3.93138e-11 6.55552e-10)
(-6.7627e-12 -1.0274e-11 1.52239e-11)
(-1.96726e-11 -3.00179e-11 4.49294e-11)
(-3.16755e-11 -4.87163e-11 7.43856e-11)
(-4.33327e-11 -6.72826e-11 1.05765e-10)
(-5.52295e-11 -8.64693e-11 1.41091e-10)
(-6.8043e-11 -1.06886e-10 1.82378e-10)
(-8.26332e-11 -1.28963e-10 2.31717e-10)
(-1.00161e-10 -1.52913e-10 2.91323e-10)
(-1.22281e-10 -1.78517e-10 3.63506e-10)
(-1.51431e-10 -2.04869e-10 4.505e-10)
(-1.9135e-10 -2.29818e-10 5.54072e-10)
(-2.47932e-10 -2.49228e-10 6.74708e-10)
(-3.30673e-10 -2.56022e-10 8.10159e-10)
(-4.54387e-10 -2.39731e-10 9.53096e-10)
(-6.36587e-10 -1.8927e-10 1.08766e-09)
(-8.53788e-10 -1.1296e-10 1.18144e-09)
(-9.19894e-12 -1.38021e-11 2.06677e-11)
(-2.67352e-11 -4.03255e-11 6.09729e-11)
(-4.29644e-11 -6.54422e-11 1.0087e-10)
(-5.85955e-11 -9.03895e-11 1.43265e-10)
(-7.43478e-11 -1.16206e-10 1.90862e-10)
(-9.1025e-11 -1.43759e-10 2.46349e-10)
(-1.09604e-10 -1.73767e-10 3.12531e-10)
(-1.31343e-10 -2.06756e-10 3.92434e-10)
(-1.57935e-10 -2.42961e-10 4.89323e-10)
(-1.91712e-10 -2.82129e-10 6.06645e-10)
(-2.35942e-10 -3.232e-10 7.47771e-10)
(-2.95269e-10 -3.63837e-10 9.1543e-10)
(-3.76369e-10 -4.00023e-10 1.1105e-09)
(-4.88786e-10 -4.26353e-10 1.32946e-09)
(-6.43622e-10 -4.38752e-10 1.5578e-09)
(-8.24227e-10 -4.40279e-10 1.7428e-09)
(-1.14034e-11 -1.67836e-11 2.55282e-11)
(-3.31077e-11 -4.90333e-11 7.52745e-11)
(-5.30847e-11 -7.95661e-11 1.24402e-10)
(-7.21362e-11 -1.0989e-10 1.76428e-10)
(-9.10475e-11 -1.41291e-10 2.34611e-10)
(-1.10658e-10 -1.74874e-10 3.02181e-10)
(-1.31928e-10 -2.11653e-10 3.82514e-10)
(-1.56027e-10 -2.52522e-10 4.79292e-10)
(-1.84411e-10 -2.98326e-10 5.96599e-10)
(-2.18925e-10 -3.49793e-10 7.39006e-10)
(-2.61902e-10 -4.07536e-10 9.11574e-10)
(-3.16316e-10 -4.71999e-10 1.11971e-09)
(-3.86154e-10 -5.43495e-10 1.3686e-09)
(-4.77608e-10 -6.22533e-10 1.66106e-09)
(-6.00904e-10 -7.10278e-10 1.98845e-09)
(-7.52319e-10 -7.97491e-10 2.28174e-09)
(-1.33501e-11 -1.91044e-11 2.97071e-11)
(-3.87169e-11 -5.58107e-11 8.75451e-11)
(-6.19298e-11 -9.05411e-11 1.44495e-10)
(-8.38325e-11 -1.2501e-10 2.0454e-10)
(-1.05222e-10 -1.60677e-10 2.71347e-10)
(-1.269e-10 -1.98843e-10 3.48518e-10)
(-1.4973e-10 -2.40713e-10 4.39811e-10)
(-1.74674e-10 -2.87522e-10 5.49312e-10)
(-2.02835e-10 -3.40591e-10 6.81627e-10)
(-2.35464e-10 -4.01533e-10 8.42055e-10)
(-2.73963e-10 -4.72458e-10 1.03683e-09)
(-3.19925e-10 -5.56326e-10 1.27337e-09)
(-3.75449e-10 -6.57253e-10 1.56039e-09)
(-4.44531e-10 -7.80082e-10 1.90654e-09)
(-5.36323e-10 -9.25988e-10 2.30995e-09)
(-6.56064e-10 -1.06583e-09 2.6926e-09)
(-1.5031e-11 -2.06812e-11 3.31483e-11)
(-4.3545e-11 -6.04095e-11 9.76159e-11)
(-6.94897e-11 -9.79642e-11 1.6087e-10)
(-9.37123e-11 -1.35179e-10 2.27202e-10)
(-1.16985e-10 -1.73605e-10 3.00524e-10)
(-1.40036e-10 -2.14626e-10 3.84628e-10)
(-1.63591e-10 -2.59539e-10 4.83419e-10)
(-1.88386e-10 -3.09683e-10 6.01097e-10)
(-2.15176e-10 -3.66585e-10 7.42356e-10)
(-2.44723e-10 -4.32208e-10 9.126e-10)
(-2.77797e-10 -5.09344e-10 1.11824e-09)
(-3.15251e-10 -6.02321e-10 1.36711e-09)
(-3.58397e-10 -7.18027e-10 1.66887e-09)
(-4.09792e-10 -8.66942e-10 2.0342e-09)
(-4.72928e-10 -1.05911e-09 2.46433e-09)
(-5.40331e-10 -1.26076e-09 2.88022e-09)
(-1.64513e-11 -2.14635e-11 3.58346e-11)
(-4.76157e-11 -6.26811e-11 1.05443e-10)
(-7.58243e-11 -1.016e-10 1.73462e-10)
(-1.01909e-10 -1.40072e-10 2.44337e-10)
(-1.26595e-10 -1.7966e-10 3.22061e-10)
(-1.50533e-10 -2.21705e-10 4.10438e-10)
(-1.74319e-10 -2.67437e-10 5.13284e-10)
(-1.98503e-10 -3.18061e-10 6.34608e-10)
(-2.23593e-10 -3.74884e-10 7.78751e-10)
(-2.5007e-10 -4.39503e-10 9.50544e-10)
(-2.78481e-10 -5.14151e-10 1.15547e-09)
(-3.09815e-10 -6.02349e-10 1.39985e-09)
(-3.46701e-10 -7.10535e-10 1.69099e-09)
(-3.96795e-10 -8.52647e-10 2.03637e-09)
(-4.79875e-10 -1.06043e-09 2.43612e-09)
(-6.20678e-10 -1.35935e-09 2.82541e-09)
(-1.22679e-12 -2.2918e-12 3.00042e-12)
(-3.56534e-12 -6.70007e-12 8.85508e-12)
(-5.73149e-12 -1.08879e-11 1.46622e-11)
(-7.82688e-12 -1.50646e-11 2.08521e-11)
(-9.96329e-12 -1.94e-11 2.78243e-11)
(-1.22781e-11 -2.40222e-11 3.59718e-11)
(-1.49553e-11 -2.90041e-11 4.56941e-11)
(-1.82562e-11 -3.43299e-11 5.73942e-11)
(-2.25698e-11 -3.98252e-11 7.14515e-11)
(-2.84996e-11 -4.50349e-11 8.81489e-11)
(-3.70303e-11 -4.9024e-11 1.07525e-10)
(-4.98592e-11 -5.01015e-11 1.291e-10)
(-7.00348e-11 -4.56055e-11 1.51428e-10)
(-1.02869e-10 -3.2348e-11 1.7147e-10)
(-1.55156e-10 -9.71536e-12 1.84206e-10)
(-2.19828e-10 1.10414e-11 1.8501e-10)
(-3.63429e-12 -6.77159e-12 8.89172e-12)
(-1.05582e-11 -1.97994e-11 2.62402e-11)
(-1.69592e-11 -3.21786e-11 4.34421e-11)
(-2.31273e-11 -4.45323e-11 6.17651e-11)
(-2.93784e-11 -5.73684e-11 8.23872e-11)
(-3.60953e-11 -7.10806e-11 1.06468e-10)
(-4.37825e-11 -8.59197e-11 1.35193e-10)
(-5.31429e-11 -1.01909e-10 1.69769e-10)
(-6.51962e-11 -1.18672e-10 2.1137e-10)
(-8.1466e-11 -1.3513e-10 2.6095e-10)
(-1.04301e-10 -1.48993e-10 3.18881e-10)
(-1.37421e-10 -1.56071e-10 3.84253e-10)
(-1.86715e-10 -1.49639e-10 4.53747e-10)
(-2.60543e-10 -1.21134e-10 5.20074e-10)
(-3.64657e-10 -6.63268e-11 5.70888e-10)
(-4.72105e-10 -7.04162e-12 5.92246e-10)
(-5.92785e-12 -1.09817e-11 1.45099e-11)
(-1.72075e-11 -3.2108e-11 4.28096e-11)
(-2.75921e-11 -5.21872e-11 7.08372e-11)
(-3.75235e-11 -7.22372e-11 1.00643e-10)
(-4.74717e-11 -9.31022e-11 1.34131e-10)
(-5.799e-11 -1.15466e-10 1.73175e-10)
(-6.97829e-11 -1.39836e-10 2.19702e-10)
(-8.37959e-11 -1.66438e-10 2.75717e-10)
(-1.01329e-10 -1.95054e-10 3.43238e-10)
(-1.24186e-10 -2.2465e-10 4.24112e-10)
(-1.54843e-10 -2.52848e-10 5.1957e-10)
(-1.96542e-10 -2.75137e-10 6.29402e-10)
(-2.52893e-10 -2.842e-10 7.50503e-10)
(-3.2546e-10 -2.70502e-10 8.74633e-10)
(-4.05021e-10 -2.2784e-10 9.8545e-10)
(-4.53222e-10 -1.73306e-10 1.05509e-09)
(-8.04788e-12 -1.47556e-11 1.96987e-11)
(-2.33358e-11 -4.31439e-11 5.80963e-11)
(-3.73306e-11 -7.01267e-11 9.60581e-11)
(-5.05745e-11 -9.70857e-11 1.36328e-10)
(-6.36251e-11 -1.25186e-10 1.81449e-10)
(-7.7109e-11 -1.5542e-10 2.33923e-10)
(-9.17842e-11 -1.8861e-10 2.96341e-10)
(-1.08604e-10 -2.25376e-10 3.71436e-10)
(-1.28781e-10 -2.66003e-10 4.62088e-10)
(-1.53806e-10 -3.10233e-10 5.71183e-10)
(-1.85358e-10 -3.56875e-10 7.01291e-10)
(-2.24847e-10 -4.03328e-10 8.53932e-10)
(-2.72058e-10 -4.45145e-10 1.02811e-09)
(-3.21562e-10 -4.76493e-10 1.21723e-09)
(-3.55336e-10 -4.93143e-10 1.40214e-09)
(-3.42023e-10 -4.986e-10 1.53408e-09)
(-9.95398e-12 -1.79481e-11 2.43312e-11)
(-2.88257e-11 -5.24787e-11 7.17232e-11)
(-4.59855e-11 -8.52952e-11 1.18468e-10)
(-6.20216e-11 -1.1809e-10 1.67887e-10)
(-7.75123e-11 -1.52309e-10 2.23043e-10)
(-9.3066e-11 -1.89233e-10 2.86948e-10)
(-1.09363e-10 -2.30018e-10 3.62718e-10)
(-1.27177e-10 -2.75743e-10 4.53687e-10)
(-1.4737e-10 -3.27397e-10 5.63467e-10)
(-1.70787e-10 -3.85859e-10 6.95933e-10)
(-1.97969e-10 -4.51828e-10 8.55075e-10)
(-2.28468e-10 -5.25645e-10 1.04455e-09)
(-2.59391e-10 -6.06904e-10 1.2664e-09)
(-2.82728e-10 -6.9343e-10 1.51728e-09)
(-2.81901e-10 -7.78509e-10 1.77688e-09)
(-2.39844e-10 -8.42451e-10 1.97488e-09)
(-1.16254e-11 -2.04377e-11 2.83144e-11)
(-3.36212e-11 -5.97533e-11 8.34161e-11)
(-5.34786e-11 -9.71041e-11 1.37605e-10)
(-7.1786e-11 -1.34412e-10 1.94643e-10)
(-8.90888e-11 -1.73341e-10 2.57976e-10)
(-1.05911e-10 -2.15384e-10 3.30969e-10)
(-1.22771e-10 -2.61972e-10 4.17083e-10)
(-1.4016e-10 -3.14556e-10 5.20035e-10)
(-1.58475e-10 -3.74748e-10 6.43899e-10)
(-1.77834e-10 -4.44464e-10 7.93195e-10)
(-1.97693e-10 -5.26145e-10 9.72912e-10)
(-2.16119e-10 -6.22889e-10 1.18833e-09)
(-2.28546e-10 -7.37879e-10 1.44401e-09)
(-2.2607e-10 -8.70913e-10 1.73969e-09)
(-1.95279e-10 -1.00651e-09 2.05503e-09)
(-1.33785e-10 -1.09213e-09 2.30336e-09)
(-1.30594e-11 -2.21324e-11 3.15949e-11)
(-3.77199e-11 -6.47031e-11 9.30141e-11)
(-5.9828e-11 -1.05115e-10 1.53204e-10)
(-7.99401e-11 -1.45432e-10 2.16217e-10)
(-9.85366e-11 -1.87438e-10 2.85731e-10)
(-1.16028e-10 -2.32733e-10 3.6529e-10)
(-1.32742e-10 -2.8287e-10 4.58496e-10)
(-1.48878e-10 -3.39477e-10 5.69166e-10)
(-1.64397e-10 -4.04437e-10 7.01462e-10)
(-1.78812e-10 -4.80162e-10 8.60002e-10)
(-1.90791e-10 -5.69999e-10 1.04994e-09)
(-1.97472e-10 -6.78717e-10 1.2769e-09)
(-1.93206e-10 -8.12571e-10 1.54621e-09)
(-1.67179e-10 -9.76256e-10 1.85891e-09)
(-1.00126e-10 -1.15704e-09 2.19534e-09)
(1.97052e-11 -1.28101e-09 2.46271e-09)
(-1.42662e-11 -2.29771e-11 3.41569e-11)
(-4.11589e-11 -6.71662e-11 1.00475e-10)
(-6.51189e-11 -1.0907e-10 1.65204e-10)
(-8.66538e-11 -1.50795e-10 2.32537e-10)
(-1.06174e-10 -1.9413e-10 3.06236e-10)
(-1.23978e-10 -2.4067e-10 3.89849e-10)
(-1.40229e-10 -2.91905e-10 4.86905e-10)
(-1.549e-10 -3.49355e-10 6.01047e-10)
(-1.67657e-10 -4.14718e-10 7.36127e-10)
(-1.77674e-10 -4.90104e-10 8.96263e-10)
(-1.8335e-10 -5.78378e-10 1.08583e-09)
(-1.81902e-10 -6.83739e-10 1.3093e-09)
(-1.68892e-10 -8.12581e-10 1.5704e-09)
(-1.37907e-10 -9.74628e-10 1.86906e-09)
(-8.18291e-11 -1.18078e-09 2.18913e-09)
(-5.7838e-12 -1.40501e-09 2.45388e-09)
(-1.05985e-12 -2.42862e-12 2.74316e-12)
(-3.07229e-12 -7.10425e-12 8.09336e-12)
(-4.91426e-12 -1.15576e-11 1.33934e-11)
(-6.66294e-12 -1.60178e-11 1.90311e-11)
(-8.40672e-12 -2.06697e-11 2.53637e-11)
(-1.0258e-11 -2.56527e-11 3.27372e-11)
(-1.23697e-11 -3.10455e-11 4.14931e-11)
(-1.49588e-11 -3.68262e-11 5.19602e-11)
(-1.83382e-11 -4.27981e-11 6.44174e-11)
(-2.29653e-11 -4.84533e-11 7.90134e-11)
(-2.95216e-11 -5.27614e-11 9.56136e-11)
(-3.90624e-11 -5.38827e-11 1.1354e-10)
(-5.33209e-11 -4.8941e-11 1.31195e-10)
(-7.52386e-11 -3.43909e-11 1.45672e-10)
(-1.08965e-10 -8.61514e-12 1.52916e-10)
(-1.5197e-10 1.94377e-11 1.50835e-10)
(-3.1369e-12 -7.1767e-12 8.12935e-12)
(-9.08916e-12 -2.09944e-11 2.39837e-11)
(-1.45235e-11 -3.41616e-11 3.96834e-11)
(-1.9657e-11 -4.73564e-11 5.63723e-11)
(-2.47355e-11 -6.11336e-11 7.5104e-11)
(-3.00667e-11 -7.59243e-11 9.68984e-11)
(-3.60626e-11 -9.19987e-11 1.22769e-10)
(-4.32953e-11 -1.09371e-10 1.53704e-10)
(-5.25645e-11 -1.27613e-10 1.90571e-10)
(-6.49788e-11 -1.4551e-10 2.33911e-10)
(-8.20341e-11 -1.60532e-10 2.83526e-10)
(-1.05651e-10 -1.68103e-10 3.3779e-10)
(-1.38038e-10 -1.60989e-10 3.92621e-10)
(-1.80912e-10 -1.29974e-10 4.40371e-10)
(-2.32594e-10 -6.94968e-11 4.70014e-10)
(-2.7862e-10 1.51671e-12 4.73883e-10)
(-5.1079e-12 -1.16394e-11 1.32666e-11)
(-1.47852e-11 -3.40528e-11 3.9129e-11)
(-2.35746e-11 -5.54146e-11 6.47102e-11)
(-3.17966e-11 -7.68382e-11 9.18597e-11)
(-3.98042e-11 -9.92476e-11 1.22279e-10)
(-4.8025e-11 -1.23394e-10 1.57619e-10)
(-5.70114e-11 -1.49824e-10 1.99531e-10)
(-6.74953e-11 -1.78782e-10 2.4965e-10)
(-8.04358e-11 -2.0999e-10 3.09493e-10)
(-9.70155e-11 -2.42272e-10 3.80174e-10)
(-1.18479e-10 -2.72939e-10 4.61875e-10)
(-1.45531e-10 -2.96988e-10 5.52884e-10)
(-1.76667e-10 -3.06427e-10 6.48105e-10)
(-2.04343e-10 -2.91021e-10 7.3719e-10)
(-2.09367e-10 -2.4397e-10 8.03678e-10)
(-1.71061e-10 -1.81925e-10 8.30621e-10)
(-6.91815e-12 -1.56433e-11 1.80109e-11)
(-1.99977e-11 -4.57677e-11 5.31027e-11)
(-3.1792e-11 -7.44842e-11 8.77523e-11)
(-4.26743e-11 -1.03306e-10 1.24435e-10)
(-5.30379e-11 -1.33513e-10 1.65425e-10)
(-6.33334e-11 -1.66196e-10 2.12927e-10)
(-7.41057e-11 -2.02261e-10 2.69159e-10)
(-8.60202e-11 -2.42373e-10 3.36364e-10)
(-9.98482e-11 -2.86818e-10 4.16714e-10)
(-1.16334e-10 -3.35226e-10 5.12052e-10)
(-1.35765e-10 -3.86144e-10 6.2333e-10)
(-1.56868e-10 -4.3643e-10 7.49567e-10)
(-1.74281e-10 -4.80756e-10 8.85975e-10)
(-1.73893e-10 -5.12051e-10 1.02099e-09)
(-1.2925e-10 -5.2502e-10 1.13273e-09)
(-2.93506e-11 -5.2439e-10 1.19028e-09)
(-8.53244e-12 -1.90329e-11 2.22468e-11)
(-2.46248e-11 -5.56849e-11 6.55606e-11)
(-3.90125e-11 -9.0626e-11 1.08228e-10)
(-5.20689e-11 -1.25711e-10 1.53248e-10)
(-6.41619e-11 -1.62536e-10 2.03361e-10)
(-7.56735e-11 -2.02511e-10 2.6122e-10)
(-8.70092e-11 -2.46928e-10 3.29497e-10)
(-9.85829e-11 -2.9696e-10 4.10932e-10)
(-1.10727e-10 -3.53674e-10 5.08268e-10)
(-1.23455e-10 -4.1794e-10 6.24051e-10)
(-1.35906e-10 -4.90282e-10 7.60133e-10)
(-1.45184e-10 -5.70531e-10 9.16629e-10)
(-1.44264e-10 -6.57091e-10 1.08976e-09)
(-1.19254e-10 -7.45568e-10 1.26759e-09)
(-5.07091e-11 -8.26844e-10 1.42294e-09)
(5.55879e-11 -8.84527e-10 1.50935e-09)
(-9.93555e-12 -2.16786e-11 2.58901e-11)
(-2.86261e-11 -6.34261e-11 7.62512e-11)
(-4.51854e-11 -1.03214e-10 1.25718e-10)
(-5.99435e-11 -1.4316e-10 1.77683e-10)
(-7.31923e-11 -1.85102e-10 2.35235e-10)
(-8.51802e-11 -2.30706e-10 3.01336e-10)
(-9.60917e-11 -2.81566e-10 3.78965e-10)
(-1.05982e-10 -3.39308e-10 4.71171e-10)
(-1.1463e-10 -4.05693e-10 5.81067e-10)
(-1.21222e-10 -4.82752e-10 7.11664e-10)
(-1.2376e-10 -5.72905e-10 8.6546e-10)
(-1.18031e-10 -6.78839e-10 1.04345e-09)
(-9.61793e-11 -8.0238e-10 1.24282e-09)
(-4.61307e-11 -9.4017e-10 1.45163e-09)
(4.19801e-11 -1.07273e-09 1.63843e-09)
(1.42161e-10 -1.15252e-09 1.74399e-09)
(-1.11295e-11 -2.34846e-11 2.88907e-11)
(-3.20149e-11 -6.87054e-11 8.50294e-11)
(-5.03558e-11 -1.11779e-10 1.39978e-10)
(-6.64122e-11 -1.54985e-10 1.97395e-10)
(-8.03746e-11 -2.00299e-10 2.60578e-10)
(-9.23321e-11 -2.49529e-10 3.32651e-10)
(-1.02226e-10 -3.04425e-10 4.16712e-10)
(-1.09749e-10 -3.66833e-10 5.15906e-10)
(-1.14146e-10 -4.38868e-10 6.33412e-10)
(-1.13871e-10 -5.23172e-10 7.72314e-10)
(-1.0596e-10 -6.23236e-10 9.3522e-10)
(-8.50205e-11 -7.43672e-10 1.12333e-09)
(-4.17751e-11 -8.89631e-10 1.3342e-09)
(3.81493e-11 -1.0627e-09 1.55618e-09)
(1.70088e-10 -1.24562e-09 1.7566e-09)
(3.33424e-10 -1.36928e-09 1.86984e-09)
(-1.21287e-11 -2.43906e-11 3.12349e-11)
(-3.48415e-11 -7.13478e-11 9.1857e-11)
(-5.4632e-11 -1.16038e-10 1.50955e-10)
(-7.1684e-11 -1.60789e-10 2.12321e-10)
(-8.60849e-11 -2.0761e-10 2.79325e-10)
(-9.77812e-11 -2.58299e-10 3.55104e-10)
(-1.0651e-10 -3.14574e-10 4.42696e-10)
(-1.11681e-10 -3.78203e-10 5.45106e-10)
(-1.12173e-10 -4.51161e-10 6.65274e-10)
(-1.05988e-10 -5.35857e-10 8.05922e-10)
(-8.97004e-11 -6.3545e-10 9.69147e-10)
(-5.76073e-11 -7.54248e-10 1.15553e-09)
(-6.59229e-13 -8.98171e-10 1.36214e-09)
(9.38246e-11 -1.0752e-09 1.57811e-09)
(2.35614e-10 -1.294e-09 1.77581e-09)
(3.92744e-10 -1.53405e-09 1.89989e-09)
(-9.04757e-13 -2.55031e-12 2.38758e-12)
(-2.61425e-12 -7.46324e-12 7.04218e-12)
(-4.15491e-12 -1.21526e-11 1.16467e-11)
(-5.5815e-12 -1.68631e-11 1.65336e-11)
(-6.96188e-12 -2.17925e-11 2.2005e-11)
(-8.38804e-12 -2.70889e-11 2.83469e-11)
(-9.9913e-12 -3.28324e-11 3.58304e-11)
(-1.19621e-11 -3.89933e-11 4.46962e-11)
(-1.45752e-11 -4.53475e-11 5.51113e-11)
(-1.8222e-11 -5.13333e-11 6.70826e-11)
(-2.34577e-11 -5.58204e-11 8.03098e-11)
(-3.11062e-11 -5.67969e-11 9.39626e-11)
(-4.25639e-11 -5.1078e-11 1.06416e-10)
(-6.06355e-11 -3.45117e-11 1.15122e-10)
(-9.07525e-11 -4.33611e-12 1.17238e-10)
(-1.345e-10 3.08938e-11 1.12876e-10)
(-2.67491e-12 -7.53638e-12 7.07573e-12)
(-7.72443e-12 -2.2058e-11 2.08684e-11)
(-1.22604e-11 -3.59233e-11 3.45085e-11)
(-1.64329e-11 -4.9861e-11 4.89754e-11)
(-2.04259e-11 -6.44645e-11 6.51601e-11)
(-2.44862e-11 -8.01908e-11 8.39067e-11)
(-2.89612e-11 -9.73196e-11 1.0602e-10)
(-3.4346e-11 -1.15847e-10 1.32223e-10)
(-4.13345e-11 -1.35276e-10 1.63046e-10)
(-5.08601e-11 -1.5425e-10 1.98583e-10)
(-6.40969e-11 -1.69974e-10 2.3809e-10)
(-8.23858e-11 -1.77431e-10 2.79355e-10)
(-1.07101e-10 -1.68642e-10 3.17937e-10)
(-1.39647e-10 -1.33094e-10 3.4674e-10)
(-1.81589e-10 -6.30976e-11 3.57553e-10)
(-2.28746e-10 2.24888e-11 3.49368e-10)
(-4.34636e-12 -1.22255e-11 1.1547e-11)
(-1.25353e-11 -3.57823e-11 3.40478e-11)
(-1.98425e-11 -5.82825e-11 5.62738e-11)
(-2.64767e-11 -8.09201e-11 7.98098e-11)
(-3.26878e-11 -1.04685e-10 1.06096e-10)
(-3.88013e-11 -1.30377e-10 1.36498e-10)
(-4.52617e-11 -1.58571e-10 1.72325e-10)
(-5.26791e-11 -1.89493e-10 2.14784e-10)
(-6.18577e-11 -2.22788e-10 2.64811e-10)
(-7.37563e-11 -2.57094e-10 3.22745e-10)
(-8.9255e-11 -2.89378e-10 3.87725e-10)
(-1.08475e-10 -3.14057e-10 4.56765e-10)
(-1.29227e-10 -3.22256e-10 5.23547e-10)
(-1.44293e-10 -3.02449e-10 5.77562e-10)
(-1.39538e-10 -2.46274e-10 6.05873e-10)
(-1.06805e-10 -1.71367e-10 6.03953e-10)
(-5.86926e-12 -1.64332e-11 1.56772e-11)
(-1.68982e-11 -4.81014e-11 4.62087e-11)
(-2.66484e-11 -7.83577e-11 7.63153e-11)
(-3.53372e-11 -1.08827e-10 1.08118e-10)
(-4.32131e-11 -1.40884e-10 1.43543e-10)
(-5.05818e-11 -1.75695e-10 1.84414e-10)
(-5.78358e-11 -2.14218e-10 2.32495e-10)
(-6.54746e-11 -2.57129e-10 2.89438e-10)
(-7.40808e-11 -3.04652e-10 3.56616e-10)
(-8.418e-11 -3.56247e-10 4.34737e-10)
(-9.58195e-11 -4.10104e-10 5.23151e-10)
(-1.07555e-10 -4.62476e-10 6.18692e-10)
(-1.14401e-10 -5.07126e-10 7.14036e-10)
(-1.04793e-10 -5.35892e-10 7.96084e-10)
(-6.05656e-11 -5.42773e-10 8.46983e-10)
(1.76226e-11 -5.34281e-10 8.5605e-10)
(-7.21329e-12 -1.99981e-11 1.93652e-11)
(-2.07257e-11 -5.85398e-11 5.70514e-11)
(-3.2539e-11 -9.53677e-11 9.4128e-11)
(-4.28281e-11 -1.3248e-10 1.33163e-10)
(-5.17739e-11 -1.71593e-10 1.76481e-10)
(-5.95688e-11 -2.14229e-10 2.26275e-10)
(-6.64185e-11 -2.61753e-10 2.84675e-10)
(-7.25179e-11 -3.15399e-10 3.53704e-10)
(-7.79697e-11 -3.76214e-10 4.35117e-10)
(-8.25747e-11 -4.44951e-10 5.30016e-10)
(-8.5387e-11 -5.2183e-10 6.38109e-10)
(-8.39099e-11 -6.06099e-10 7.56404e-10)
(-7.30092e-11 -6.9526e-10 8.77114e-10)
(-4.46239e-11 -7.83951e-10 9.85032e-10)
(7.5202e-12 -8.63145e-10 1.05709e-09)
(6.74414e-11 -9.19144e-10 1.07521e-09)
(-8.368e-12 -2.27848e-11 2.25374e-11)
(-2.3992e-11 -6.66966e-11 6.63589e-11)
(-3.7489e-11 -1.08652e-10 1.09347e-10)
(-4.89504e-11 -1.50935e-10 1.54412e-10)
(-5.84405e-11 -1.95531e-10 2.04171e-10)
(-6.59735e-11 -2.44239e-10 2.61082e-10)
(-7.14791e-11 -2.98776e-10 3.27514e-10)
(-7.47305e-11 -3.60858e-10 4.05731e-10)
(-7.52004e-11 -4.32299e-10 4.97735e-10)
(-7.17965e-11 -5.1509e-10 6.04895e-10)
(-6.24317e-11 -6.1144e-10 7.27203e-10)
(-4.35056e-11 -7.23553e-10 8.61881e-10)
(-9.88895e-12 -8.52419e-10 1.00095e-09)
(4.24409e-11 -9.93841e-10 1.12768e-09)
(1.05993e-10 -1.12902e-09 1.2145e-09)
(1.43344e-10 -1.2136e-09 1.23679e-09)
(-9.34018e-12 -2.469e-11 2.51512e-11)
(-2.67246e-11 -7.22718e-11 7.40037e-11)
(-4.15683e-11 -1.17714e-10 1.21762e-10)
(-5.38575e-11 -1.6348e-10 1.71566e-10)
(-6.35171e-11 -2.1172e-10 2.26211e-10)
(-7.03607e-11 -2.6439e-10 2.88294e-10)
(-7.40203e-11 -3.23396e-10 3.60285e-10)
(-7.38294e-11 -3.90719e-10 4.44521e-10)
(-6.86238e-11 -4.68589e-10 5.43052e-10)
(-5.64124e-11 -5.59693e-10 6.57283e-10)
(-3.38859e-11 -6.67452e-10 7.8724e-10)
(4.16231e-12 -7.9618e-10 9.30189e-10)
(6.50268e-11 -9.50495e-10 1.07813e-09)
(1.56183e-10 -1.13165e-09 1.21391e-09)
(2.76617e-10 -1.32391e-09 1.30804e-09)
(3.91472e-10 -1.46134e-09 1.33168e-09)
(-1.01482e-11 -2.56498e-11 2.71946e-11)
(-2.89856e-11 -7.50787e-11 7.99526e-11)
(-4.49071e-11 -1.2225e-10 1.31326e-10)
(-5.77923e-11 -1.69693e-10 1.84568e-10)
(-6.74352e-11 -2.19593e-10 2.42543e-10)
(-7.34698e-11 -2.73926e-10 3.07858e-10)
(-7.52779e-11 -3.34579e-10 3.82946e-10)
(-7.18431e-11 -4.03488e-10 4.70042e-10)
(-6.15215e-11 -4.82789e-10 5.71034e-10)
(-4.16815e-11 -5.75016e-10 6.871e-10)
(-8.17983e-12 -6.83384e-10 8.18013e-10)
(4.52823e-11 -8.1216e-10 9.60833e-10)
(1.27486e-10 -9.67219e-10 1.10769e-09)
(2.47824e-10 -1.15718e-09 1.2425e-09)
(4.05384e-10 -1.39396e-09 1.3388e-09)
(5.51943e-10 -1.66137e-09 1.37041e-09)
(-7.69791e-13 -2.65278e-12 1.94786e-12)
(-2.21576e-12 -7.76592e-12 5.74344e-12)
(-3.49481e-12 -1.2653e-11 9.49346e-12)
(-4.64312e-12 -1.75726e-11 1.34642e-11)
(-5.7128e-12 -2.2732e-11 1.78949e-11)
(-6.78322e-12 -2.82847e-11 2.30058e-11)
(-7.97754e-12 -3.43106e-11 2.8995e-11)
(-9.48592e-12 -4.07691e-11 3.60203e-11)
(-1.15968e-11 -4.74105e-11 4.41533e-11)
(-1.47392e-11 -5.3622e-11 5.33008e-11)
(-1.95508e-11 -5.81875e-11 6.30794e-11)
(-2.70286e-11 -5.89557e-11 7.26529e-11)
(-3.89529e-11 -5.25225e-11 8.05956e-11)
(-5.89879e-11 -3.44118e-11 8.49812e-11)
(-9.41328e-11 -1.57387e-12 8.41917e-11)
(-1.46256e-10 3.6651e-11 7.95579e-11)
(-2.27287e-12 -7.84006e-12 5.77243e-12)
(-6.53717e-12 -2.29528e-11 1.70204e-11)
(-1.02931e-11 -3.74049e-11 2.81288e-11)
(-1.3635e-11 -5.19632e-11 3.98839e-11)
(-1.66996e-11 -6.72508e-11 5.29909e-11)
(-1.96953e-11 -8.37431e-11 6.80995e-11)
(-2.29447e-11 -1.01721e-10 8.57981e-11)
(-2.69425e-11 -1.21153e-10 1.06562e-10)
(-3.24273e-11 -1.41473e-10 1.3063e-10)
(-4.0459e-11 -1.61189e-10 1.57777e-10)
(-5.24902e-11 -1.77273e-10 1.86961e-10)
(-7.04389e-11 -1.84345e-10 2.15857e-10)
(-9.68802e-11 -1.73888e-10 2.40439e-10)
(-1.35649e-10 -1.3467e-10 2.55196e-10)
(-1.9216e-10 -5.84789e-11 2.55331e-10)
(-2.61492e-10 3.39577e-11 2.43966e-10)
(-3.6837e-12 -1.27184e-11 9.42085e-12)
(-1.05781e-11 -3.72385e-11 2.77702e-11)
(-1.65981e-11 -6.06945e-11 4.5872e-11)
(-2.18596e-11 -8.43461e-11 6.49977e-11)
(-2.65326e-11 -1.09234e-10 8.62872e-11)
(-3.08769e-11 -1.36193e-10 1.10791e-10)
(-3.52936e-11 -1.65804e-10 1.39472e-10)
(-4.03915e-11 -1.98267e-10 1.73119e-10)
(-4.70571e-11 -2.33132e-10 2.1218e-10)
(-5.64931e-11 -2.68851e-10 2.56415e-10)
(-7.01345e-11 -3.02072e-10 3.04362e-10)
(-8.92566e-11 -3.26734e-10 3.52604e-10)
(-1.13954e-10 -3.33326e-10 3.95089e-10)
(-1.41152e-10 -3.09642e-10 4.23346e-10)
(-1.62091e-10 -2.47106e-10 4.29675e-10)
(-1.64665e-10 -1.65531e-10 4.1755e-10)
(-4.95665e-12 -1.70989e-11 1.27908e-11)
(-1.42021e-11 -5.00673e-11 3.76903e-11)
(-2.2177e-11 -8.16164e-11 6.2212e-11)
(-2.89682e-11 -1.13463e-10 8.80587e-11)
(-3.47111e-11 -1.47053e-10 1.16754e-10)
(-3.96148e-11 -1.83609e-10 1.49703e-10)
(-4.40044e-11 -2.24112e-10 1.882e-10)
(-4.83692e-11 -2.6922e-10 2.33337e-10)
(-5.34059e-11 -3.19066e-10 2.85794e-10)
(-6.00091e-11 -3.72912e-10 3.4543e-10)
(-6.91107e-11 -4.28597e-10 4.10608e-10)
(-8.11624e-11 -4.81862e-10 4.77244e-10)
(-9.4928e-11 -5.2586e-10 5.37824e-10)
(-1.05329e-10 -5.52004e-10 5.81376e-10)
(-1.01631e-10 -5.54669e-10 5.97118e-10)
(-7.63446e-11 -5.42497e-10 5.87293e-10)
(-6.06567e-12 -2.08123e-11 1.58004e-11)
(-1.73343e-11 -6.09441e-11 4.65373e-11)
(-2.69113e-11 -9.93582e-11 7.67384e-11)
(-3.48045e-11 -1.38166e-10 1.08467e-10)
(-4.10464e-11 -1.79181e-10 1.43562e-10)
(-4.56987e-11 -2.23996e-10 1.83719e-10)
(-4.88648e-11 -2.74031e-10 2.30497e-10)
(-5.07035e-11 -3.3052e-10 2.8524e-10)
(-5.14293e-11 -3.94445e-10 3.48845e-10)
(-5.1282e-11 -4.66376e-10 4.21315e-10)
(-5.04482e-11 -5.46191e-10 5.00997e-10)
(-4.89717e-11 -6.32618e-10 5.83454e-10)
(-4.68891e-11 -7.22565e-10 6.60128e-10)
(-4.51853e-11 -8.10422e-10 7.17847e-10)
(-4.78548e-11 -8.88013e-10 7.42446e-10)
(-5.95078e-11 -9.43624e-10 7.33995e-10)
(-7.00453e-12 -2.37172e-11 1.83902e-11)
(-1.99617e-11 -6.94535e-11 5.41328e-11)
(-3.07979e-11 -1.13231e-10 8.91537e-11)
(-3.94023e-11 -1.57471e-10 1.2579e-10)
(-4.56557e-11 -2.04273e-10 1.66117e-10)
(-4.94029e-11 -2.55535e-10 2.12031e-10)
(-5.0427e-11 -3.13046e-10 2.65276e-10)
(-4.84113e-11 -3.78561e-10 3.27357e-10)
(-4.2882e-11 -4.53861e-10 3.99314e-10)
(-3.31328e-11 -5.40796e-10 4.81255e-10)
(-1.81994e-11 -6.41266e-10 5.71552e-10)
(2.84418e-12 -7.56964e-10 6.65585e-10)
(2.94621e-11 -8.8825e-10 7.54121e-10)
(5.53892e-11 -1.0306e-09 8.2231e-10)
(6.07212e-11 -1.166e-09 8.52972e-10)
(1.88072e-11 -1.25165e-09 8.4402e-10)
(-7.78407e-12 -2.57069e-11 2.05243e-11)
(-2.2124e-11 -7.52801e-11 6.03742e-11)
(-3.39283e-11 -1.22715e-10 9.9287e-11)
(-4.29487e-11 -1.7063e-10 1.39785e-10)
(-4.88944e-11 -2.21302e-10 1.84089e-10)
(-5.13691e-11 -2.76812e-10 2.34204e-10)
(-4.98067e-11 -3.39158e-10 2.91954e-10)
(-4.33766e-11 -4.10393e-10 3.58897e-10)
(-3.08531e-11 -4.92756e-10 4.36096e-10)
(-1.04444e-11 -5.88852e-10 5.23664e-10)
(2.03562e-11 -7.01856e-10 6.19946e-10)
(6.46553e-11 -8.35635e-10 7.20235e-10)
(1.25092e-10 -9.94188e-10 8.15049e-10)
(2.0043e-10 -1.17828e-09 8.88841e-10)
(2.78654e-10 -1.37237e-09 9.22867e-10)
(3.3201e-10 -1.51088e-09 9.13373e-10)
(-8.42598e-12 -2.67141e-11 2.21931e-11)
(-2.3894e-11 -7.82262e-11 6.52348e-11)
(-3.64515e-11 -1.27488e-10 1.07099e-10)
(-4.57183e-11 -1.7719e-10 1.50407e-10)
(-5.12428e-11 -2.29663e-10 1.9743e-10)
(-5.24157e-11 -2.87011e-10 2.50194e-10)
(-4.83699e-11 -3.51242e-10 3.10494e-10)
(-3.78465e-11 -4.24387e-10 3.79826e-10)
(-1.90045e-11 -5.08632e-10 4.59154e-10)
(1.08359e-11 -6.06491e-10 5.48472e-10)
(5.54963e-11 -7.21032e-10 6.46024e-10)
(1.20124e-10 -8.56214e-10 7.47095e-10)
(2.10707e-10 -1.01749e-09 8.42418e-10)
(3.31232e-10 -1.21317e-09 9.17001e-10)
(4.73921e-10 -1.45509e-09 9.52746e-10)
(5.9466e-10 -1.72552e-09 9.45017e-10)
(-6.62058e-13 -2.73271e-12 1.44066e-12)
(-1.89784e-12 -8.00127e-12 4.24703e-12)
(-2.96889e-12 -1.30423e-11 7.01627e-12)
(-3.89748e-12 -1.81234e-11 9.94261e-12)
(-4.72538e-12 -2.34592e-11 1.31979e-11)
(-5.52659e-12 -2.92065e-11 1.69362e-11)
(-6.42766e-12 -3.5443e-11 2.12889e-11)
(-7.63837e-12 -4.21181e-11 2.63467e-11)
(-9.49695e-12 -4.89595e-11 3.21218e-11)
(-1.25358e-11 -5.53154e-11 3.84847e-11)
(-1.75869e-11 -5.99089e-11 4.50739e-11)
(-2.59875e-11 -6.05082e-11 5.11988e-11)
(-4.00644e-11 -5.36214e-11 5.58016e-11)
(-6.42217e-11 -3.47345e-11 5.76406e-11)
(-1.05961e-10 -9.82984e-13 5.60003e-11)
(-1.65382e-10 3.76235e-11 5.23974e-11)
(-1.95193e-12 -8.07602e-12 4.2696e-12)
(-5.58996e-12 -2.36499e-11 1.25856e-11)
(-8.7256e-12 -3.85573e-11 2.07892e-11)
(-1.14115e-11 -5.35953e-11 2.94527e-11)
(-1.37531e-11 -6.94078e-11 3.90829e-11)
(-1.59417e-11 -8.64812e-11 5.01344e-11)
(-1.8309e-11 -1.05092e-10 6.29978e-11)
(-2.14071e-11 -1.25183e-10 7.79473e-11)
(-2.6123e-11 -1.46124e-10 9.50363e-11)
(-3.3829e-11 -1.66315e-10 1.13914e-10)
(-4.65699e-11 -1.82564e-10 1.33568e-10)
(-6.72988e-11 -1.89271e-10 1.52038e-10)
(-1.00218e-10 -1.77701e-10 1.66295e-10)
(-1.51212e-10 -1.36554e-10 1.72756e-10)
(-2.26596e-10 -5.80762e-11 1.69304e-10)
(-3.15343e-10 3.55596e-11 1.60044e-10)
(-3.15469e-12 -1.31029e-11 6.968e-12)
(-9.01646e-12 -3.83724e-11 2.05351e-11)
(-1.40126e-11 -6.25708e-11 3.39037e-11)
(-1.81891e-11 -8.70063e-11 4.80002e-11)
(-2.16623e-11 -1.12757e-10 6.36437e-11)
(-2.46612e-11 -1.40676e-10 8.15706e-11)
(-2.75969e-11 -1.71346e-10 1.02417e-10)
(-3.11675e-11 -2.04928e-10 1.26645e-10)
(-3.65005e-11 -2.40888e-10 1.54378e-10)
(-4.53194e-11 -2.77519e-10 1.85128e-10)
(-6.00664e-11 -3.11229e-10 2.17388e-10)
(-8.37941e-11 -3.35657e-10 2.48181e-10)
(-1.19369e-10 -3.41022e-10 2.72844e-10)
(-1.67038e-10 -3.1513e-10 2.85808e-10)
(-2.18926e-10 -2.50102e-10 2.8371e-10)
(-2.5187e-10 -1.67322e-10 2.72425e-10)
(-4.22814e-12 -1.76175e-11 9.46103e-12)
(-1.20508e-11 -5.1598e-11 2.78719e-11)
(-1.86128e-11 -8.41518e-11 4.59828e-11)
(-2.39029e-11 -1.17063e-10 6.50346e-11)
(-2.79781e-11 -1.51832e-10 8.6123e-11)
(-3.09987e-11 -1.89711e-10 1.10233e-10)
(-3.3292e-11 -2.31692e-10 1.38222e-10)
(-3.54541e-11 -2.78398e-10 1.70729e-10)
(-3.84925e-11 -3.29867e-10 2.07979e-10)
(-4.40015e-11 -3.85174e-10 2.49429e-10)
(-5.4307e-11 -4.41874e-10 2.93256e-10)
(-7.23823e-11 -4.95345e-10 3.35747e-10)
(-1.01002e-10 -5.38451e-10 3.70959e-10)
(-1.39963e-10 -5.62726e-10 3.91593e-10)
(-1.79933e-10 -5.63545e-10 3.92897e-10)
(-1.97804e-10 -5.51169e-10 3.81488e-10)
(-5.14948e-12 -2.14468e-11 1.16879e-11)
(-1.46279e-11 -6.28177e-11 3.44157e-11)
(-2.24245e-11 -1.02464e-10 5.67235e-11)
(-2.84198e-11 -1.42585e-10 8.01141e-11)
(-3.25422e-11 -1.85059e-10 1.05912e-10)
(-3.47796e-11 -2.31533e-10 1.35303e-10)
(-3.5218e-11 -2.83444e-10 1.69326e-10)
(-3.4114e-11 -3.42005e-10 2.08771e-10)
(-3.20157e-11 -4.08106e-10 2.53959e-10)
(-2.99549e-11 -4.82124e-10 3.04351e-10)
(-2.9754e-11 -5.63611e-10 3.57945e-10)
(-3.45087e-11 -6.50854e-10 4.10533e-10)
(-4.92686e-11 -7.40355e-10 4.55188e-10)
(-8.14191e-11 -8.26524e-10 4.83074e-10)
(-1.37568e-10 -9.02266e-10 4.87824e-10)
(-2.03873e-10 -9.57784e-10 4.76108e-10)
(-5.91602e-12 -2.44443e-11 1.3604e-11)
(-1.67452e-11 -7.16025e-11 4.00359e-11)
(-2.54618e-11 -1.16798e-10 6.59059e-11)
(-3.17999e-11 -1.62553e-10 9.29202e-11)
(-3.55083e-11 -2.11052e-10 1.22572e-10)
(-3.63279e-11 -2.64258e-10 1.56191e-10)
(-3.39899e-11 -3.23999e-10 1.9494e-10)
(-2.82358e-11 -3.92023e-10 2.39708e-10)
(-1.88793e-11 -4.70037e-10 2.90883e-10)
(-5.96076e-12 -5.59698e-10 3.47936e-10)
(9.87934e-12 -6.62553e-10 4.08765e-10)
(2.64967e-11 -7.79737e-10 4.6886e-10)
(3.81907e-11 -9.10913e-10 5.2062e-10)
(3.18492e-11 -1.05104e-09 5.54026e-10)
(-1.59855e-11 -1.18251e-09 5.61278e-10)
(-1.14508e-10 -1.26494e-09 5.48976e-10)