/*--------------------------------*- C++ -*----------------------------------*\
| =========                 |                                                 |
| \\      /  F ield         | foam-extend: Open Source CFD                    |
|  \\    /   O peration     | Version:     3.1                                |
|   \\  /    A nd           | Web:         http://www.extend-project.de       |
|    \\/     M anipulation  |                                                 |
\*---------------------------------------------------------------------------*/
FoamFile
{
    version     2.0;
    format      ascii;
    class       surfaceScalarField;
    location    "3.8";
    object      meshPhi;
}
// * * * * * * * * * * * * * * * * * * * * * * * * * * * * * * * * * * * * * //

dimensions      [0 3 -1 0 0 0 0];

internalField   nonuniform List<scalar> 
41600
(
3.03029e-09
5.56418e-10
1.47335e-11
-1.48466e-11
5.83271e-09
1.64615e-09
4.45938e-11
-4.49056e-11
8.38211e-09
2.70156e-09
7.65117e-11
-7.69416e-11
1.07423e-08
3.7614e-09
1.13651e-10
-1.14052e-10
1.29636e-08
4.87729e-09
1.6009e-10
-1.60212e-10
1.50829e-08
6.09866e-09
2.2093e-10
-2.20353e-10
1.71203e-08
7.47558e-09
3.03045e-10
-3.01077e-10
1.90744e-08
9.06125e-09
4.16155e-10
-4.11671e-10
2.09134e-08
1.09136e-08
5.74426e-10
-5.65628e-10
2.25619e-08
1.30956e-08
7.98987e-10
-7.8303e-10
2.38863e-08
1.56727e-08
1.12197e-09
-1.09432e-09
2.46854e-08
1.8707e-08
1.59288e-09
-1.54607e-09
2.4709e-08
2.22417e-08
2.28699e-09
-2.20806e-09
2.37611e-08
2.62509e-08
3.30481e-09
-3.17152e-09
2.19658e-08
3.03747e-08
4.67283e-09
-4.46853e-09
3.8989e-08
7.84552e-09
-1.01682e-08
9.03963e-09
1.08752e-09
4.35523e-11
-4.38845e-11
1.73981e-08
3.21662e-09
1.31693e-10
-1.32609e-10
2.50005e-08
5.27631e-09
2.25633e-10
-2.26895e-10
3.20375e-08
7.3406e-09
3.34584e-10
-3.35756e-10
3.86607e-08
9.50845e-09
4.70312e-10
-4.7065e-10
4.49815e-08
1.18736e-08
6.47357e-10
-6.45618e-10
5.10652e-08
1.45301e-08
8.85105e-10
-8.79239e-10
5.69163e-08
1.75763e-08
1.21059e-09
-1.19728e-09
6.24544e-08
2.11181e-08
1.66257e-09
-1.63652e-09
6.74778e-08
2.52668e-08
2.29759e-09
-2.2505e-09
7.16204e-08
3.01327e-08
3.19919e-09
-3.11801e-09
7.43213e-08
3.5805e-08
4.49083e-09
-4.35459e-09
7.48669e-08
4.23068e-08
6.34877e-09
-6.12221e-09
7.26649e-08
4.94814e-08
8.98351e-09
-8.60748e-09
6.79888e-08
5.6559e-08
1.23869e-08
-1.18045e-08
6.6616e-08
1.88135e-08
-2.26003e-08
1.49023e-08
1.57141e-09
7.01131e-11
-7.06451e-11
2.86773e-08
4.6463e-09
2.11688e-10
-2.13154e-10
4.12015e-08
7.61603e-09
3.61818e-10
-3.63829e-10
5.27907e-08
1.05842e-08
5.34858e-10
-5.36704e-10
6.36972e-08
1.36896e-08
7.48875e-10
-7.4935e-10
7.41121e-08
1.70619e-08
1.02578e-09
-1.02286e-09
8.41566e-08
2.08288e-08
1.39419e-09
-1.38457e-09
9.38643e-08
2.51215e-08
1.8931e-09
-1.87141e-09
1.03146e-07
3.00774e-08
2.57677e-09
-2.53452e-09
1.11741e-07
3.58369e-08
3.52159e-09
-3.44554e-09
1.19148e-07
4.25298e-08
4.83488e-09
-4.70446e-09
1.2457e-07
5.02426e-08
6.66402e-09
-6.4471e-09
1.26951e-07
5.89434e-08
9.19638e-09
-8.84109e-09
1.25337e-07
6.83234e-08
1.26063e-08
-1.20284e-08
1.1992e-07
7.73149e-08
1.67426e-08
-1.58402e-08
8.97179e-08
2.29615e-08
-2.55414e-08
2.05305e-08
1.98885e-09
9.29673e-11
-9.3669e-11
3.95001e-08
5.87815e-09
2.80141e-10
-2.82072e-10
5.67375e-08
9.62696e-09
4.7726e-10
-4.79893e-10
7.26791e-08
1.33611e-08
7.0243e-10
-7.04807e-10
8.76776e-08
1.72497e-08
9.78033e-10
-9.78532e-10
1.02008e-07
2.14476e-08
1.3305e-09
-1.32641e-09
1.15861e-07
2.6104e-08
1.79337e-09
-1.78026e-09
1.29328e-07
3.13682e-08
2.41087e-09
-2.38157e-09
1.42365e-07
3.73914e-08
3.24225e-09
-3.18545e-09
1.54738e-07
4.43231e-08
4.36692e-09
-4.26498e-09
1.65949e-07
5.22945e-08
5.88931e-09
-5.71497e-09
1.75151e-07
6.13786e-08
7.93985e-09
-7.65098e-09
1.81142e-07
7.15022e-08
1.06586e-08
-1.01889e-08
1.82674e-07
8.22596e-08
1.41218e-08
-1.33662e-08
1.79478e-07
9.24264e-08
1.80574e-08
-1.68704e-08
1.058e-07
2.34152e-08
-2.5133e-08
2.5841e-08
2.32442e-09
1.11097e-10
-1.1193e-10
4.97055e-08
6.86683e-09
3.33996e-10
-3.36283e-10
7.13742e-08
1.12355e-08
5.66734e-10
-5.69831e-10
9.1397e-08
1.55703e-08
8.29553e-10
-8.32289e-10
1.10223e-07
2.00601e-08
1.14695e-09
-1.14735e-09
1.2821e-07
2.48737e-08
1.54689e-09
-1.54167e-09
1.45632e-07
3.01691e-08
2.06352e-09
-2.04731e-09
1.6266e-07
3.60982e-08
2.74006e-09
-2.70424e-09
1.79343e-07
4.28095e-08
3.63173e-09
-3.56262e-09
1.9556e-07
5.04436e-08
4.8081e-09
-4.68432e-09
2.10949e-07
5.91189e-08
6.35342e-09
-6.14174e-09
2.24818e-07
6.88972e-08
8.36117e-09
-8.00991e-09
2.36059e-07
7.97003e-08
1.09082e-08
-1.03365e-08
2.4323e-07
9.1111e-08
1.39809e-08
-1.30613e-08
2.45114e-07
1.01857e-07
1.725e-08
-1.57972e-08
1.15388e-07
2.14357e-08
-2.20874e-08
3.07585e-08
2.567e-09
1.23994e-10
-1.24918e-10
5.91481e-08
7.57996e-09
3.71783e-10
-3.74309e-10
8.49003e-08
1.23901e-08
6.27913e-10
-6.31303e-10
1.08666e-07
1.71434e-08
9.13169e-10
-9.16081e-10
1.30983e-07
2.20379e-08
1.25212e-09
-1.25231e-09
1.52288e-07
2.72459e-08
1.67164e-09
-1.66538e-09
1.72935e-07
3.29214e-08
2.20299e-09
-2.18424e-09
1.93187e-07
3.92057e-08
2.88373e-09
-2.84279e-09
2.13211e-07
4.62285e-08
3.75896e-09
-3.68046e-09
2.33045e-07
5.41046e-08
4.88101e-09
-4.74084e-09
2.5256e-07
6.29241e-08
6.30642e-09
-6.06677e-09
2.71378e-07
7.27337e-08
8.08774e-09
-7.68897e-09
2.88738e-07
8.3482e-08
1.02477e-08
-9.59509e-09
3.03273e-07
9.48571e-08
1.27146e-08
-1.16572e-08
3.12647e-07
1.05747e-07
1.5147e-08
-1.34623e-08
1.19225e-07
1.81874e-08
-1.78986e-08
3.52183e-08
2.70989e-09
1.31652e-10
-1.32623e-10
6.77031e-08
7.99837e-09
3.9358e-10
-3.96226e-10
9.71341e-08
1.30615e-08
6.61236e-10
-6.64748e-10
1.24249e-07
1.80445e-08
9.54594e-10
-9.57507e-10
1.49656e-07
2.31449e-08
1.29664e-09
-1.29653e-09
1.73862e-07
2.85288e-08
1.71123e-09
-1.7041e-09
1.97288e-07
3.43371e-08
2.22445e-09
-2.20383e-09
2.2028e-07
4.06888e-08
2.86546e-09
-2.82111e-09
2.43109e-07
4.76811e-08
3.66626e-09
-3.58199e-09
2.65971e-07
5.53855e-08
4.65939e-09
-4.50983e-09
2.88969e-07
6.38418e-08
5.87278e-09
-5.61818e-09
3.12077e-07
7.30499e-08
7.3215e-09
-6.89871e-09
3.35029e-07
8.29596e-08
8.98823e-09
-8.29524e-09
3.56959e-07
9.34198e-08
1.07784e-08
-9.64728e-09
3.75118e-07
1.03837e-07
1.23992e-08
-1.05699e-08
1.18088e-07
1.46455e-08
-1.36277e-08
3.9166e-08
1.34494e-10
-1.35475e-10
2.75057e-09
7.52666e-08
4.00786e-10
-4.03446e-10
8.11546e-09
1.07927e-07
6.6947e-10
-6.72956e-10
1.32416e-08
1.3795e-07
9.58692e-10
-9.61468e-10
1.82676e-08
1.66e-07
1.28872e-09
-1.28826e-09
2.33827e-08
1.9263e-07
1.67926e-09
-1.67145e-09
2.87397e-08
2.18308e-07
2.15013e-09
-2.12843e-09
3.44596e-08
2.43433e-07
2.72127e-09
-2.67539e-09
4.06327e-08
2.68343e-07
3.41128e-09
-3.32517e-09
4.73146e-08
2.93326e-07
4.23384e-09
-4.08271e-09
5.45203e-08
3.18617e-07
5.19135e-09
-4.93706e-09
6.22132e-08
3.44384e-07
6.2656e-09
-5.84897e-09
7.02889e-08
3.70625e-07
7.40064e-09
-6.72878e-09
7.85541e-08
3.96787e-07
8.46676e-09
-7.39261e-09
8.66619e-08
4.20439e-07
9.17754e-09
-7.48057e-09
9.38535e-08
1.11852e-08
-9.8434e-09
1.07987e-07
3.08485e-09
5.83762e-10
1.40364e-11
5.93891e-09
1.72804e-09
4.25081e-11
8.53809e-09
2.83931e-09
7.30137e-11
1.09488e-08
3.96026e-09
1.08627e-10
1.32239e-08
5.14732e-09
1.53309e-10
1.54015e-08
6.45498e-09
2.12011e-10
1.75029e-08
7.93907e-09
2.91372e-10
1.95266e-08
9.65948e-09
4.00658e-10
2.14393e-08
1.16822e-08
5.53087e-10
2.31633e-08
1.40797e-08
7.67672e-10
2.45628e-08
1.69287e-08
1.07165e-09
2.54406e-08
2.03031e-08
1.50292e-09
2.55699e-08
2.42554e-08
2.10905e-09
2.48233e-08
2.87543e-08
2.92857e-09
2.34773e-08
3.34111e-08
3.90019e-09
4.03098e-08
5.61382e-09
9.20193e-09
1.14084e-09
4.14941e-11
1.7714e-08
3.37626e-09
1.25541e-10
2.54644e-08
5.54462e-09
2.15331e-10
3.26519e-08
7.72748e-09
3.19821e-10
3.94347e-08
1.00329e-08
4.50447e-10
4.59294e-08
1.25644e-08
6.21354e-10
5.22043e-08
1.54266e-08
8.51298e-10
5.8264e-08
1.87304e-08
1.16615e-09
6.40245e-08
2.25962e-08
1.60221e-09
6.92767e-08
2.71523e-08
2.2106e-09
7.36468e-08
3.25273e-08
3.06238e-09
7.65779e-08
3.88274e-08
4.25192e-09
7.74063e-08
4.6082e-08
5.88789e-09
7.56986e-08
5.41086e-08
8.03512e-09
7.21141e-08
6.209e-08
1.04911e-08
7.03104e-08
1.39508e-08
1.51683e-08
1.64818e-09
6.68052e-11
2.9195e-08
4.876e-09
2.01815e-10
4.19616e-08
8.00167e-09
3.45333e-10
5.37971e-08
1.11393e-08
5.11332e-10
6.49652e-08
1.44406e-08
7.17415e-10
7.56656e-08
1.80484e-08
9.84955e-10
8.60255e-08
2.2105e-08
1.34178e-09
9.60797e-08
2.67585e-08
1.82545e-09
1.05735e-07
3.21651e-08
2.48723e-09
1.14719e-07
3.84866e-08
3.39684e-09
1.22515e-07
4.5875e-08
4.64639e-09
1.28318e-07
5.44336e-08
6.34846e-09
1.31112e-07
6.41289e-08
8.61199e-09
1.30107e-07
7.46079e-08
1.14509e-08
1.25968e-07
8.47543e-08
1.452e-08
9.49459e-08
1.796e-08
2.08937e-08
2.08555e-09
8.85892e-11
4.02066e-08
6.1673e-09
2.67102e-10
5.77743e-08
1.01117e-08
4.55574e-10
7.40515e-08
1.40576e-08
6.71666e-10
8.94066e-08
1.81894e-08
9.37245e-10
1.04127e-07
2.26781e-08
1.27822e-09
1.18413e-07
2.76899e-08
1.72745e-09
1.32361e-07
3.33934e-08
2.32797e-09
1.45924e-07
3.99613e-08
3.13654e-09
1.58855e-07
4.75667e-08
4.22688e-09
1.70635e-07
5.63644e-08
5.69038e-09
1.80392e-07
6.64447e-08
7.62728e-09
1.86924e-07
7.77299e-08
1.01099e-08
1.89088e-07
8.97648e-08
1.30795e-08
1.87031e-07
1.0128e-07
1.61109e-08
1.12496e-07
1.9255e-08
2.62926e-08
2.43681e-09
1.05876e-10
5.05835e-08
7.20267e-09
3.18485e-10
7.26618e-08
1.17977e-08
5.41063e-10
9.31003e-08
1.63763e-08
7.93404e-10
1.12368e-07
2.11444e-08
1.09953e-09
1.3084e-07
2.62886e-08
1.48704e-09
1.48803e-07
3.19848e-08
1.98974e-09
1.66437e-07
3.84054e-08
2.65033e-09
1.83793e-07
4.57208e-08
3.52283e-09
2.0074e-07
5.40959e-08
4.67374e-09
2.16897e-07
6.36739e-08
6.17958e-09
2.31533e-07
7.45367e-08
8.11432e-09
2.43496e-07
8.66085e-08
1.05082e-08
2.51337e-07
9.94313e-08
1.32509e-08
2.5406e-07
1.11682e-07
1.59024e-08
1.23322e-07
1.85971e-08
3.12881e-08
2.69038e-09
1.18181e-10
6.01768e-08
7.94834e-09
3.54563e-10
8.64074e-08
1.30058e-08
5.99573e-10
1.10658e-07
1.80241e-08
8.73605e-10
1.33489e-07
2.32193e-08
1.20086e-09
1.55359e-07
2.87816e-08
1.6081e-09
1.76639e-07
3.48833e-08
2.12673e-09
1.97607e-07
4.16851e-08
2.79465e-09
2.18434e-07
4.93378e-08
3.65741e-09
2.39162e-07
5.79795e-08
4.76753e-09
2.59645e-07
6.77251e-08
6.18014e-09
2.7947e-07
7.86462e-08
7.94083e-09
2.97805e-07
9.07093e-08
1.00492e-08
3.13166e-07
1.03591e-07
1.23772e-08
3.23102e-07
1.16129e-07
1.45117e-08
1.28187e-07
1.67757e-08
3.58141e-08
2.83933e-09
1.25497e-10
6.88591e-08
8.38459e-09
3.75405e-10
9.88258e-08
1.37061e-08
6.31512e-10
1.26481e-07
1.89645e-08
9.13497e-10
1.52461e-07
2.43753e-08
1.24413e-09
1.77295e-07
3.01221e-08
1.64745e-09
2.01425e-07
3.63629e-08
2.15016e-09
2.25215e-07
4.32342e-08
2.78262e-09
2.48952e-07
5.0852e-08
3.57882e-09
2.72837e-07
5.93076e-08
4.57438e-09
2.96972e-07
6.86627e-08
5.80128e-09
3.21309e-07
7.89424e-08
7.27826e-09
3.45517e-07
9.0127e-08
8.98539e-09
3.68575e-07
1.02097e-07
1.08074e-08
3.87302e-07
1.14272e-07
1.24129e-08
1.27817e-07
1.44899e-08
3.98153e-08
1.28224e-10
2.88118e-09
7.65253e-08
3.82339e-10
8.50491e-09
1.09766e-07
6.39505e-10
1.38908e-08
1.40373e-07
9.17693e-10
1.91922e-08
1.69037e-07
1.23713e-09
2.46157e-08
1.96338e-07
1.61794e-09
3.03305e-08
2.22768e-07
2.08099e-09
3.64728e-08
2.48744e-07
2.64805e-09
4.31477e-08
2.74623e-07
3.34083e-09
5.04257e-08
3.00705e-07
4.1779e-09
5.83364e-08
3.27231e-07
5.16897e-09
6.68572e-08
3.54356e-07
6.30553e-09
7.58973e-08
3.82023e-07
7.5413e-09
8.52759e-08
4.09513e-07
8.74948e-09
9.46462e-08
4.33834e-07
9.63236e-09
1.03209e-07
1.18654e-08
1.16891e-07
3.13392e-09
6.0871e-10
1.27622e-11
6.03469e-09
1.80272e-09
3.86662e-11
8.67923e-09
2.96474e-09
6.64685e-11
1.11363e-08
4.14083e-09
9.89948e-11
1.34608e-08
5.39142e-09
1.39874e-10
1.56926e-08
6.77497e-09
1.93606e-10
1.78542e-08
8.35144e-09
2.66142e-10
1.99451e-08
1.0185e-08
3.65582e-10
2.19327e-08
1.23456e-08
5.03031e-10
2.37405e-08
1.49085e-08
6.93497e-10
2.52377e-08
1.79499e-08
9.56429e-10
2.62406e-08
2.15355e-08
1.31463e-09
2.65545e-08
2.56912e-08
1.78812e-09
2.61042e-08
3.03275e-08
2.37476e-09
2.51734e-08
3.49779e-08
2.99849e-09
4.24924e-08
3.95857e-09
9.34793e-09
1.1895e-09
3.77301e-11
1.79989e-08
3.52187e-09
1.14203e-10
2.58842e-08
5.789e-09
1.96044e-10
3.32096e-08
8.07891e-09
2.91496e-10
4.01394e-08
1.05073e-08
4.11048e-10
4.67954e-08
1.31851e-08
5.67582e-10
5.32497e-08
1.62249e-08
7.77955e-10
5.95099e-08
1.97453e-08
1.06486e-09
6.54939e-08
2.38737e-08
1.45893e-09
7.0996e-08
2.87427e-08
2.00074e-09
7.56532e-08
3.44779e-08
2.7411e-09
7.89416e-08
4.1165e-08
3.73602e-09
8.02755e-08
4.87742e-08
5.02643e-09
7.93496e-08
5.69968e-08
6.58254e-09
7.68417e-08
6.48515e-08
8.17835e-09
7.26911e-08
1.00632e-08
1.54076e-08
1.71825e-09
6.07512e-11
2.96619e-08
5.08557e-09
1.83608e-10
4.26493e-08
8.35302e-09
3.14446e-10
5.47104e-08
1.16438e-08
4.66146e-10
6.61192e-08
1.51202e-08
6.54886e-10
7.70839e-08
1.89355e-08
9.00205e-10
8.77385e-08
2.32427e-08
1.22724e-09
9.81228e-08
2.81999e-08
1.66915e-09
1.08147e-07
3.39722e-08
2.26967e-09
1.17542e-07
4.07259e-08
3.08462e-09
1.25801e-07
4.86056e-08
4.18026e-09
1.32154e-07
5.76802e-08
5.62196e-09
1.35669e-07
6.78247e-08
7.43917e-09
1.35703e-07
7.84984e-08
9.54469e-09
1.32942e-07
8.83467e-08
1.15918e-08
9.74923e-08
1.34657e-08
2.12204e-08
2.17383e-09
8.05715e-11
4.08437e-08
6.43113e-09
2.4304e-10
5.87121e-08
1.05535e-08
4.14908e-10
7.52964e-08
1.46907e-08
6.12488e-10
9.09791e-08
1.90403e-08
8.55941e-10
1.0606e-07
2.37856e-08
1.16908e-09
1.20749e-07
2.91052e-08
1.58181e-09
1.35149e-07
3.51793e-08
2.13257e-09
1.49218e-07
4.219e-08
2.87044e-09
1.62714e-07
5.03143e-08
3.85547e-09
1.7512e-07
5.96955e-08
5.15448e-09
1.85583e-07
7.03799e-08
6.82427e-09
1.9296e-07
8.21759e-08
8.8675e-09
1.96212e-07
9.44002e-08
1.11454e-08
1.95507e-07
1.05496e-07
1.3255e-08
1.1524e-07
1.50765e-08
2.66987e-08
2.53942e-09
9.63082e-11
5.13749e-08
7.50913e-09
2.89843e-10
7.38259e-08
1.23102e-08
4.92876e-10
9.46443e-08
1.71092e-08
7.23742e-10
1.14317e-07
2.21268e-08
1.00468e-09
1.33235e-07
2.7563e-08
1.36123e-09
1.51697e-07
3.36071e-08
1.82449e-09
1.69894e-07
4.04433e-08
2.43319e-09
1.87883e-07
4.82515e-08
3.23499e-09
2.05537e-07
5.71993e-08
4.28559e-09
2.22471e-07
6.74167e-08
5.64276e-09
2.37952e-07
7.89387e-08
7.34819e-09
2.50833e-07
9.1569e-08
9.38228e-09
2.59688e-07
1.04605e-07
1.1583e-08
2.63523e-07
1.16404e-07
1.35462e-08
1.26387e-07
1.52856e-08
3.1764e-08
2.80303e-09
1.07519e-10
6.11036e-08
8.28457e-09
3.22737e-10
8.77693e-08
1.35673e-08
5.46312e-10
1.12463e-07
1.88255e-08
7.972e-10
1.35764e-07
2.42904e-08
1.09792e-09
1.58152e-07
3.01662e-08
1.47344e-09
1.80013e-07
3.66385e-08
1.95307e-09
2.01637e-07
4.38795e-08
2.57189e-09
2.23206e-07
5.20487e-08
3.37124e-09
2.44765e-07
6.12856e-08
4.39695e-09
2.66161e-07
7.16927e-08
5.6931e-09
2.86958e-07
8.32975e-08
7.28667e-09
3.06278e-07
9.59558e-08
9.14902e-09
3.22553e-07
1.0911e-07
1.11273e-08
3.3327e-07
1.21263e-07
1.28513e-08
1.31713e-07
1.45516e-08
3.63492e-08
2.95756e-09
1.14195e-10
6.99003e-08
8.73722e-09
3.41777e-10
1.00354e-07
1.42942e-08
5.75568e-10
1.28503e-07
1.9802e-08
8.33935e-10
1.55005e-07
2.54916e-08
1.13819e-09
1.80413e-07
3.15602e-08
1.51099e-09
2.05186e-07
3.81782e-08
1.97772e-09
2.29704e-07
4.54927e-08
2.56724e-09
2.54265e-07
5.36265e-08
3.31165e-09
2.79076e-07
6.26719e-08
4.24403e-09
3.04231e-07
7.26781e-08
5.39265e-09
3.29649e-07
8.36321e-08
6.76997e-09
3.54916e-07
9.54221e-08
8.34636e-09
3.78839e-07
1.07731e-07
1.00035e-08
3.9807e-07
1.19663e-07
1.14534e-08
1.31883e-07
1.3303e-08
4.03984e-08
1.16698e-10
3.0005e-09
7.76587e-08
3.48164e-10
8.86061e-09
1.11427e-07
5.83014e-10
1.44832e-08
1.42565e-07
8.38104e-10
2.00343e-08
1.7179e-07
1.13249e-09
2.57353e-08
1.99704e-07
1.4854e-09
3.17681e-08
2.26817e-07
1.91713e-09
3.82801e-08
2.53565e-07
2.44912e-09
4.53852e-08
2.80318e-07
3.10322e-09
5.3159e-08
3.07381e-07
3.89879e-09
6.16301e-08
3.34989e-07
4.8472e-09
7.07632e-08
3.63259e-07
5.94242e-09
8.04322e-08
3.9204e-07
7.14196e-09
9.038e-08
4.20409e-07
8.33164e-09
1.00104e-07
4.45125e-07
9.25729e-09
1.08548e-07
1.14717e-08
1.21243e-07
3.17663e-09
6.30556e-10
1.09483e-11
6.1182e-09
1.86805e-09
3.31807e-11
8.80253e-09
3.07428e-09
5.70689e-11
1.13005e-08
4.298e-09
8.50483e-11
1.36688e-08
5.60281e-09
1.20227e-10
1.5949e-08
7.05008e-09
1.66417e-10
1.81652e-08
8.70237e-09
2.28558e-10
2.03181e-08
1.0626e-08
3.1317e-10
2.23771e-08
1.28918e-08
4.28756e-10
2.42687e-08
1.55739e-08
5.85948e-10
2.58682e-08
1.8743e-08
7.96836e-10
2.70039e-08
2.24536e-08
1.07239e-09
2.75e-08
2.67146e-08
1.41605e-09
2.72953e-08
3.14248e-08
1.81105e-09
2.66315e-08
3.61407e-08
2.1975e-09
4.43081e-08
2.76159e-09
9.47496e-09
1.23212e-09
3.23697e-11
1.82473e-08
3.64928e-09
9.80081e-11
2.62509e-08
6.00243e-09
1.68336e-10
3.36977e-08
8.38484e-09
2.50464e-10
4.07578e-08
1.09182e-08
3.53388e-10
4.75577e-08
1.3719e-08
4.88038e-10
5.41741e-08
1.69047e-08
6.68448e-10
6.06188e-08
2.05977e-08
9.12945e-10
6.68146e-08
2.49267e-08
1.24511e-09
7.25639e-08
3.00209e-08
1.69381e-09
7.75193e-08
3.59939e-08
2.29058e-09
8.11865e-08
4.29048e-08
3.0613e-09
8.30261e-08
5.06799e-08
4.00659e-09
8.27639e-08
5.89633e-08
5.06555e-09
8.09596e-08
6.67787e-08
6.06207e-09
7.47415e-08
7.12973e-09
1.56158e-08
1.77962e-09
5.21257e-11
3.00687e-08
5.26895e-09
1.57591e-10
4.32496e-08
8.65993e-09
2.70048e-10
5.55094e-08
1.20831e-08
4.00627e-10
6.71311e-08
1.57092e-08
5.63235e-10
7.83311e-08
1.96991e-08
7.74506e-10
8.92507e-08
2.42123e-08
1.05548e-09
9.99365e-08
2.94119e-08
1.43314e-09
1.10306e-07
3.5464e-08
1.94145e-09
1.201e-07
4.25284e-08
2.62053e-09
1.2883e-07
5.07297e-08
3.51158e-09
1.3576e-07
6.00935e-08
4.64255e-09
1.4001e-07
7.04198e-08
5.99674e-09
1.40962e-07
8.10765e-08
7.46049e-09
1.3914e-07
9.06856e-08
8.76662e-09
9.95076e-08
9.80991e-09
2.15045e-08
2.25114e-09
6.91419e-11
4.13986e-08
6.66205e-09
2.08636e-10
5.95305e-08
1.09395e-08
3.56404e-10
7.63849e-08
1.52423e-08
5.26573e-10
9.23569e-08
1.97782e-08
7.36527e-10
1.07757e-07
2.47396e-08
1.00665e-09
1.22806e-07
3.03129e-08
1.36216e-09
1.37615e-07
3.66832e-08
1.83467e-09
1.52152e-07
4.40333e-08
2.46285e-09
1.66183e-07
5.25306e-08
3.29061e-09
1.79205e-07
6.22917e-08
4.36002e-09
1.90392e-07
7.33055e-08
5.69297e-09
1.98634e-07
8.52811e-08
7.2531e-09
2.029e-07
9.74098e-08
8.88917e-09
2.03195e-07
1.08094e-07
1.02907e-08
1.17167e-07
1.1359e-08
2.70517e-08
2.62931e-09
8.26606e-11
5.20639e-08
7.77742e-09
2.48862e-10
7.48412e-08
1.27581e-08
4.23489e-10
9.59937e-08
1.77481e-08
6.22462e-10
1.16023e-07
2.29794e-08
8.65038e-10
1.35335e-07
2.8662e-08
1.17322e-09
1.54241e-07
3.49933e-08
1.57351e-09
1.72942e-07
4.21628e-08
2.09821e-09
1.91506e-07
5.03497e-08
2.78562e-09
2.09812e-07
5.97102e-08
3.67758e-09
2.27483e-07
7.03435e-08
4.81166e-09
2.43793e-07
8.22204e-08
6.20265e-09
2.57599e-07
9.5033e-08
7.80414e-09
2.67456e-07
1.07934e-07
9.45494e-09
2.72224e-07
1.19225e-07
1.08404e-08
1.28343e-07
1.19692e-08
3.21776e-08
2.90174e-09
9.23005e-11
6.19103e-08
8.57902e-09
2.77165e-10
8.89567e-08
1.40582e-08
4.69538e-10
1.14039e-07
1.95243e-08
6.85934e-10
1.37755e-07
2.52206e-08
9.45951e-10
1.60599e-07
3.13614e-08
1.27127e-09
1.82973e-07
3.81406e-08
1.68718e-09
2.05179e-07
4.57353e-08
2.22349e-09
2.27411e-07
5.43032e-08
2.91429e-09
2.49717e-07
6.39718e-08
3.79532e-09
2.71946e-07
7.48116e-08
4.89692e-09
2.93651e-07
8.67869e-08
6.22888e-09
3.13923e-07
9.96427e-08
7.74803e-09
3.31138e-07
1.12674e-07
9.31138e-09
3.42662e-07
1.24318e-07
1.06273e-08
1.33871e-07
1.18808e-08
3.68141e-08
3.06118e-09
9.80511e-11
7.08062e-08
9.04614e-09
2.93585e-10
1.01686e-07
1.48086e-08
4.94835e-10
1.30267e-07
2.05329e-08
7.17867e-10
1.5723e-07
2.6462e-08
9.81329e-10
1.83143e-07
3.28031e-08
1.30508e-09
2.08482e-07
3.97346e-08
1.71137e-09
2.3364e-07
4.74075e-08
2.22529e-09
2.58927e-07
5.59427e-08
2.87421e-09
2.84556e-07
6.542e-08
3.68523e-09
3.10613e-07
7.58585e-08
4.67941e-09
3.36994e-07
8.71866e-08
5.86125e-09
3.6323e-07
9.91941e-08
7.19666e-09
3.88036e-07
1.1143e-07
8.58121e-09
4.07958e-07
1.22925e-07
9.78789e-09
1.34374e-07
1.13238e-08
4.09049e-08
1.00221e-10
3.10513e-09
7.86446e-08
2.99143e-10
9.17234e-09
1.12874e-07
5.01394e-10
1.50017e-08
1.44479e-07
7.21783e-10
2.07698e-08
1.74197e-07
9.77086e-10
2.67094e-08
2.02649e-07
1.28435e-09
3.30122e-08
2.30363e-07
1.6617e-09
3.98327e-08
2.57788e-07
2.12834e-09
4.72878e-08
2.85305e-07
2.70374e-09
5.54507e-08
3.13223e-07
3.40499e-09
6.4338e-08
3.41768e-07
4.24167e-09
7.38867e-08
3.71028e-07
5.20743e-09
8.39189e-08
4.00783e-07
6.26398e-09
9.40946e-08
4.30004e-07
7.31608e-09
1.038e-07
4.55328e-07
8.16101e-09
1.11903e-07
1.01204e-08
1.23986e-07
3.21207e-09
6.48702e-10
8.66174e-12
6.18756e-09
1.92228e-09
2.6256e-11
8.90508e-09
3.16499e-09
4.51728e-11
1.14373e-08
4.42773e-09
6.73398e-11
1.38425e-08
5.7764e-09
9.51997e-11
1.61637e-08
7.2743e-09
1.31712e-10
1.84265e-08
8.9855e-09
1.80631e-10
2.06331e-08
1.09769e-08
2.46755e-10
2.2755e-08
1.33188e-08
3.36034e-10
2.47215e-08
1.60823e-08
4.55301e-10
2.64125e-08
1.93329e-08
6.11212e-10
2.76629e-08
2.31176e-08
8.07707e-10
2.83021e-08
2.74416e-08
1.04137e-09
2.82631e-08
3.22151e-08
1.29497e-09
2.77465e-08
3.70275e-08
1.52924e-09
4.56967e-08
1.86941e-09
9.58034e-09
1.26751e-09
2.56109e-11
1.84535e-08
3.755e-09
7.75594e-11
2.65557e-08
6.17919e-09
1.33259e-10
3.41043e-08
8.63737e-09
1.98339e-10
4.12738e-08
1.12557e-08
2.79881e-10
4.81955e-08
1.41544e-08
3.86383e-10
5.49501e-08
1.74534e-08
5.28542e-10
6.15541e-08
2.12765e-08
7.19892e-10
6.79357e-08
2.57506e-08
9.77003e-10
7.39053e-08
3.09985e-08
1.31851e-09
7.9127e-08
3.71215e-08
1.76166e-09
8.31225e-08
4.41603e-08
2.31462e-09
8.53645e-08
5.20236e-08
2.96239e-09
8.55568e-08
6.03561e-08
3.64798e-09
8.41446e-08
6.82201e-08
4.25465e-09
7.64268e-08
4.87637e-09
1.57883e-08
1.83059e-09
4.12462e-11
3.04063e-08
5.42114e-09
1.24725e-10
4.37485e-08
8.91414e-09
2.1381e-10
5.61744e-08
1.24458e-08
3.17327e-10
6.7975e-08
1.61931e-08
4.46241e-10
7.93735e-08
2.0322e-08
6.13532e-10
9.05183e-08
2.49957e-08
8.35311e-10
1.01463e-07
3.03781e-08
1.13164e-09
1.12133e-07
3.66325e-08
1.5266e-09
1.2228e-07
4.39082e-08
2.04631e-09
1.31429e-07
5.23097e-08
2.71325e-09
1.38861e-07
6.18303e-08
3.53366e-09
1.43707e-07
7.22314e-08
4.47541e-09
1.45308e-07
8.28602e-08
5.43999e-09
1.44027e-07
9.23753e-08
6.24804e-09
1.01192e-07
6.84096e-09
2.17399e-08
2.31538e-09
5.47185e-11
4.18589e-08
6.85372e-09
1.65152e-10
6.02102e-08
1.12594e-08
2.82243e-10
7.72904e-08
1.5698e-08
4.17218e-10
9.3505e-08
2.03849e-08
5.83826e-10
1.09174e-07
2.55186e-08
7.98039e-10
1.24528e-07
3.12896e-08
1.07931e-09
1.39686e-07
3.7884e-08
1.45138e-09
1.54626e-07
4.54795e-08
1.942e-09
1.69124e-07
5.42301e-08
2.58027e-09
1.82689e-07
6.42245e-08
3.38936e-09
1.94507e-07
7.54071e-08
4.37112e-09
2.03467e-07
8.74298e-08
5.4792e-09
2.08485e-07
9.94443e-08
6.5879e-09
2.09395e-07
1.09891e-07
7.48499e-09
1.18729e-07
8.11693e-09
2.73442e-08
2.704e-09
6.54281e-11
5.26353e-08
8.00018e-09
1.97033e-10
7.56844e-08
1.31294e-08
3.35455e-10
9.71157e-08
1.82761e-08
4.93381e-10
1.17444e-07
2.36808e-08
6.86095e-10
1.37087e-07
2.95602e-08
9.30945e-10
1.56366e-07
3.61161e-08
1.24854e-09
1.75495e-07
4.35381e-08
1.66347e-09
1.94548e-07
5.19996e-08
2.20371e-09
2.13416e-07
6.16404e-08
2.89769e-09
2.31727e-07
7.25274e-08
3.76689e-09
2.48757e-07
8.4579e-08
4.8105e-09
2.63348e-07
9.74186e-08
5.97811e-09
2.73993e-07
1.10147e-07
7.13886e-09
2.79395e-07
1.21103e-07
8.0721e-09
1.29832e-07
8.79694e-09
3.25202e-08
2.98379e-09
7.30721e-11
6.25791e-08
8.82359e-09
2.19489e-10
8.99424e-08
1.44654e-08
3.72039e-10
1.15349e-07
2.01023e-08
5.4392e-10
1.39411e-07
2.59866e-08
7.50755e-10
1.62638e-07
3.23396e-08
1.00976e-09
1.85442e-07
3.93593e-08
1.34081e-09
2.08139e-07
4.72229e-08
1.76694e-09
2.3093e-07
5.60814e-08
2.31365e-09
2.5387e-07
6.60443e-08
3.00607e-09
2.76811e-07
7.71487e-08
3.86258e-09
2.99295e-07
8.93042e-08
4.88253e-09
3.20384e-07
1.02185e-07
6.02286e-09
3.38387e-07
1.15027e-07
7.1695e-09
3.50535e-07
1.26304e-07
8.11264e-09
1.35413e-07
8.99718e-09
3.71992e-08
3.14735e-09
7.76403e-11
7.15573e-08
9.30283e-09
2.32546e-10
1.02791e-07
1.52354e-08
3.92202e-10
1.31734e-07
2.11377e-08
5.69492e-10
1.59081e-07
2.72617e-08
7.79355e-10
1.85415e-07
3.38216e-08
1.03768e-09
2.11228e-07
4.09995e-08
1.36219e-09
2.36923e-07
4.89465e-08
1.77262e-09
2.62819e-07
5.77761e-08
2.29003e-09
2.89133e-07
6.75506e-08
2.93427e-09
3.15948e-07
7.82563e-08
3.71898e-09
3.43143e-07
8.97698e-08
4.64325e-09
3.7021e-07
1.01814e-07
5.67571e-09
3.95795e-07
1.13883e-07
6.73453e-09
4.16331e-07
1.25036e-07
7.65382e-09
1.36079e-07
8.82598e-09
4.13245e-08
7.9375e-11
3.19215e-09
7.9462e-08
2.37003e-10
9.43145e-09
1.14075e-07
3.97522e-10
1.54321e-08
1.46069e-07
5.7285e-10
2.13787e-08
1.76199e-07
7.76497e-10
2.75129e-08
2.05101e-07
1.02223e-09
3.4033e-08
2.33316e-07
1.3247e-09
4.1097e-08
2.61306e-07
1.69936e-09
4.88213e-08
2.8946e-07
2.1617e-09
5.72721e-08
3.18089e-07
2.72486e-09
6.64494e-08
3.47414e-07
3.39545e-09
7.62603e-08
3.77499e-07
4.16683e-09
8.64802e-08
4.08082e-07
5.00743e-09
9.67105e-08
4.38062e-07
5.84384e-09
1.06287e-07
4.63981e-07
6.52428e-09
1.14091e-07
8.07837e-09
1.2582e-07
3.23942e-09
6.62685e-10
5.99613e-12
6.24113e-09
1.96402e-09
1.81779e-11
8.98437e-09
3.23471e-09
3.12797e-11
1.15432e-08
4.52713e-09
4.66336e-11
1.39771e-08
5.90877e-09
6.59174e-11
1.63305e-08
7.44417e-09
9.11414e-11
1.86299e-08
9.19806e-09
1.24811e-10
2.08793e-08
1.12373e-08
1.70038e-10
2.30513e-08
1.36309e-08
2.30514e-10
2.50777e-08
1.64473e-08
3.10161e-10
2.68406e-08
1.97483e-08
4.12204e-10
2.81771e-08
2.3578e-08
5.37376e-10
2.89153e-08
2.79448e-08
6.81206e-10
2.8977e-08
3.27748e-08
8.31343e-10
2.85367e-08
3.76792e-08
9.6521e-10
4.67013e-08
1.16256e-09
9.66164e-09
1.29478e-09
1.77302e-11
1.86127e-08
3.8364e-09
5.37e-11
2.67913e-08
6.31505e-09
9.22811e-11
3.44188e-08
8.83087e-09
1.37367e-10
4.16738e-08
1.15131e-08
1.93825e-10
4.86907e-08
1.44842e-08
2.67437e-10
5.55541e-08
1.78656e-08
3.65356e-10
6.22842e-08
2.17804e-08
4.96384e-10
6.8814e-08
2.6353e-08
6.70841e-10
7.49593e-08
3.17005e-08
8.99452e-10
8.03906e-08
3.79153e-08
1.19049e-09
8.46342e-08
4.50292e-08
1.54439e-09
8.7157e-08
5.29489e-08
1.94548e-09
8.76292e-08
6.13357e-08
2.35374e-09
8.64215e-08
6.9282e-08
2.70105e-09
7.7716e-08
3.05204e-09
1.59215e-08
1.86988e-09
2.85569e-11
3.06669e-08
5.53834e-09
8.6365e-11
4.41339e-08
9.10957e-09
1.48082e-10
5.66888e-08
1.27238e-08
2.19819e-10
6.86285e-08
1.65624e-08
3.09125e-10
8.01822e-08
2.07943e-08
4.24857e-10
9.15039e-08
2.55844e-08
5.77829e-10
1.02653e-07
3.1096e-08
7.81157e-10
1.13562e-07
3.74877e-08
1.04995e-09
1.23989e-07
4.48998e-08
1.39937e-09
1.33468e-07
5.34215e-08
1.84007e-09
1.41284e-07
6.30284e-08
2.36961e-09
1.46553e-07
7.3469e-08
2.95925e-09
1.48564e-07
8.40987e-08
3.54117e-09
1.47574e-07
9.36117e-08
4.00875e-09
1.02526e-07
4.33574e-09
2.19214e-08
2.36489e-09
3.7889e-11
4.2214e-08
7.00136e-09
1.14374e-10
6.07352e-08
1.15053e-08
1.95513e-10
7.79905e-08
1.60473e-08
2.89093e-10
9.43936e-08
2.0848e-08
4.046e-10
1.10273e-07
2.61097e-08
5.52975e-10
1.25865e-07
3.20245e-08
7.47343e-10
1.41298e-07
3.87772e-08
1.00335e-09
1.56556e-07
4.65396e-08
1.33861e-09
1.71424e-07
5.54527e-08
1.77024e-09
1.85417e-07
6.55848e-08
2.30933e-09
1.9772e-07
7.68529e-08
2.95043e-09
2.07203e-07
8.8885e-08
3.65539e-09
2.12719e-07
1.00833e-07
4.33848e-09
2.1398e-07
1.1118e-07
4.87077e-09
1.19978e-07
5.22879e-09
2.75697e-08
2.76158e-09
4.53111e-11
5.30762e-08
8.17181e-09
1.36474e-10
7.63353e-08
1.34149e-08
2.32425e-10
9.79828e-08
1.86811e-08
3.41975e-10
1.18543e-07
2.42167e-08
4.75706e-10
1.38444e-07
3.02425e-08
6.45552e-10
1.58015e-07
3.69619e-08
8.65515e-10
1.77478e-07
4.45628e-08
1.15196e-09
1.96917e-07
5.32112e-08
1.52292e-09
2.16227e-07
6.30316e-08
1.9955e-09
2.3504e-07
7.40663e-08
2.58039e-09
2.52627e-07
8.61997e-08
3.27145e-09
2.67805e-07
9.90232e-08
4.02903e-09
2.79001e-07
1.11631e-07
4.76409e-09
2.84798e-07
1.22413e-07
5.33904e-09
1.30996e-07
5.77437e-09
3.27843e-08
3.04707e-09
5.06128e-11
6.3095e-08
9.01208e-09
1.52057e-10
9.07034e-08
1.47786e-08
2.57834e-10
1.16361e-07
2.05459e-08
3.77136e-10
1.40692e-07
2.65722e-08
5.20816e-10
1.64216e-07
3.30832e-08
7.00777e-10
1.87355e-07
4.02787e-08
9.30634e-10
2.10434e-07
4.83334e-08
1.22592e-09
2.33662e-07
5.73902e-08
1.60334e-09
2.571e-07
6.75423e-08
2.07848e-09
2.80597e-07
7.87998e-08
2.66108e-09
3.03686e-07
9.10361e-08
3.34677e-09
3.25401e-07
1.03889e-07
4.10257e-09
3.43987e-07
1.16587e-07
4.851e-09
3.56564e-07
1.27652e-07
5.45775e-09
1.36564e-07
6.02335e-09
3.7496e-08
3.21382e-09
5.37859e-11
7.21365e-08
9.50072e-09
1.61133e-10
1.03644e-07
1.55639e-08
2.71877e-10
1.32867e-07
2.16021e-08
3.95012e-10
1.60511e-07
2.78736e-08
5.40954e-10
1.87174e-07
3.45967e-08
7.20761e-10
2.13354e-07
4.19553e-08
9.46681e-10
2.39466e-07
5.00979e-08
1.23222e-09
2.65835e-07
5.91296e-08
1.59145e-09
2.92682e-07
6.90963e-08
2.03709e-09
3.20087e-07
7.99576e-08
2.5768e-09
3.47916e-07
9.15544e-08
3.2077e-09
3.75629e-07
1.03575e-07
3.90636e-09
4.01817e-07
1.155e-07
4.61737e-09
4.22818e-07
1.26441e-07
5.23259e-09
1.37291e-07
6.01945e-09
4.16479e-08
5.4997e-11
3.2593e-09
8.00925e-08
1.64254e-10
9.63128e-09
1.15002e-07
2.75635e-10
1.57636e-08
1.47298e-07
3.97486e-10
2.18466e-08
1.77746e-07
5.39264e-10
2.81283e-08
2.06997e-07
7.10615e-10
3.48109e-08
2.356e-07
9.21774e-10
4.2054e-08
2.64028e-07
1.18349e-09
4.99714e-08
2.92675e-07
1.50635e-09
5.86214e-08
3.21856e-07
1.89907e-09
6.79883e-08
3.51784e-07
2.36544e-09
7.79543e-08
3.8251e-07
2.89984e-09
8.82619e-08
4.13739e-07
3.47981e-09
9.84796e-08
4.44322e-07
4.05551e-09
1.0793e-07
4.70722e-07
4.52568e-09
1.1553e-07
5.5935e-09
1.27073e-07
3.25803e-09
6.72181e-10
3.06595e-12
6.2776e-09
1.99236e-09
9.29526e-12
9.03839e-09
3.28196e-09
1.5996e-11
1.16154e-08
4.5943e-09
2.38481e-11
1.4069e-08
5.99789e-09
3.37041e-11
1.64445e-08
7.55794e-09
4.65782e-11
1.87692e-08
9.33944e-09
6.37189e-11
2.10481e-08
1.14089e-08
8.66478e-11
2.32549e-08
1.38343e-08
1.17115e-10
2.53225e-08
1.66823e-08
1.56878e-10
2.71341e-08
2.00126e-08
2.07185e-10
2.85266e-08
2.3869e-08
2.67881e-10
2.9325e-08
2.82645e-08
3.36218e-10
2.94426e-08
3.31372e-08
4.05989e-10
2.90396e-08
3.81103e-08
4.67067e-10
4.73553e-08
5.58607e-10
9.71697e-09
1.3133e-09
9.06616e-12
1.87211e-08
3.89165e-09
2.74606e-11