/*--------------------------------*- C++ -*----------------------------------*\
| =========                 |                                                 |
| \\      /  F ield         | foam-extend: Open Source CFD                    |
|  \\    /   O peration     | Version:     3.1                                |
|   \\  /    A nd           | Web:         http://www.extend-project.de       |
|    \\/     M anipulation  |                                                 |
\*---------------------------------------------------------------------------*/
FoamFile
{
    version     2.0;
    format      ascii;
    class       volScalarField;
    location    "3.8";
    object      p;
}
// * * * * * * * * * * * * * * * * * * * * * * * * * * * * * * * * * * * * * //

dimensions      [0 2 -2 0 0 0 0];

internalField   nonuniform List<scalar> 
14592
(
0.0241896
0.0240002
0.0238141
0.0236464
0.0235028
0.0233865
0.0233007
0.0232472
0.0232245
0.0232252
0.0232312
0.0232054
0.0230788
0.0227235
0.0219438
0.0208155
0.0242095
0.0240022
0.0238165
0.023655
0.0235171
0.0234056
0.0233234
0.0232723
0.023251
0.0232523
0.0232585
0.023233
0.0231088
0.0227559
0.02191
0.0204794
0.0242013
0.0239785
0.0237885
0.0236277
0.0234907
0.0233793
0.0232967
0.0232456
0.0232268
0.023236
0.0232595
0.0232658
0.0231913
0.0228994
0.0220286
0.0202453
0.0241646
0.0239285
0.0237298
0.0235643
0.023423
0.0233066
0.0232189
0.0231643
0.0231465
0.0231661
0.0232167
0.0232753
0.0232876
0.0231215
0.022336
0.0203322
0.0240992
0.0238521
0.0236436
0.0234699
0.0233204
0.0231949
0.0230975
0.0230341
0.0230118
0.0230365
0.0231112
0.0232251
0.0233415
0.0233522
0.0227868
0.0206921
0.0240064
0.0237502
0.0235318
0.0233477
0.0231867
0.0230477
0.0229347
0.0228544
0.0228161
0.0228299
0.0229076
0.0230515
0.023251
0.0234349
0.0231604
0.0211297
0.0238902
0.0236269
0.0233993
0.0232034
0.0230278
0.0228706
0.0227352
0.0226275
0.022557
0.0225342
0.0225752
0.0226873
0.0228891
0.0231472
0.0231958
0.0212577
0.0237578
0.0234894
0.0232536
0.0230453
0.022853
0.0226736
0.0225092
0.0223638
0.0222448
0.0221578
0.0221152
0.0221072
0.0221629
0.0221781
0.022373
0.0195891
0.0244256
0.0242274
0.0240405
0.0238817
0.0237571
0.0236713
0.023629
0.0236344
0.0236899
0.0237935
0.0239357
0.0240931
0.0242202
0.0242294
0.0240217
0.0237738
0.0244486
0.0242308
0.0240431
0.0238904
0.023772
0.0236915
0.0236535
0.023662
0.0237193
0.0238237
0.0239656
0.024122
0.0242495
0.024259
0.0240461
0.0238749
0.0244422
0.0242084
0.0240158
0.0238642
0.0237474
0.0236681
0.0236313
0.023642
0.0237049
0.0238217
0.0239883
0.0241886
0.024385
0.024491
0.0243577
0.0242924
0.0244048
0.0241576
0.0239561
0.0237998
0.0236794
0.0235962
0.0235561
0.0235663
0.0236352
0.0237708
0.0239783
0.0242543
0.0245777
0.0248598
0.0248986
0.0249931
0.0243352
0.0240769
0.023865
0.0237002
0.0235716
0.0234797
0.0234312
0.0234351
0.023504
0.023653
0.0238994
0.024256
0.0247238
0.0252389
0.0255261
0.0258145
0.0242343
0.0239667
0.0237443
0.0235681
0.0234269
0.0233206
0.0232558
0.0232429
0.0232972
0.0234388
0.0236962
0.0240984
0.0246761
0.0254062
0.0259663
0.0264553
0.0241067
0.0238317
0.023599
0.0234093
0.0232515
0.0231243
0.023034
0.02299
0.0230077
0.0231074
0.0233216
0.0236853
0.024257
0.0250619
0.025813
0.0262139
0.0239603
0.0236796
0.0234375
0.0232332
0.0230554
0.0229019
0.022777
0.0226878
0.0226465
0.0226664
0.022773
0.0229785
0.0233391
0.0238125
0.0244218
0.0228166
0.0246529
0.0244477
0.0242617
0.0241132
0.0240088
0.0239542
0.0239555
0.0240191
0.0241504
0.0243517
0.0246189
0.0249364
0.0252697
0.0255483
0.025684
0.0257059
0.0246789
0.0244528
0.0242649
0.0241225
0.0240246
0.0239758
0.0239821
0.0240494
0.024183
0.024385
0.0246512
0.0249664
0.0252977
0.0255773
0.0257383
0.0258784
0.0246746
0.0244321
0.0242388
0.0240979
0.0240025
0.023956
0.0239651
0.0240369
0.0241791
0.0243978
0.0246947
0.0250615
0.0254731
0.0258633
0.0261534
0.0264778
0.0246368
0.0243809
0.0241785
0.0240331
0.0239347
0.0238855
0.0238934
0.0239678
0.024121
0.0243659
0.0247151
0.0251739
0.0257318
0.0263181
0.0268204
0.0273753
0.0245632
0.0242962
0.0240832
0.023929
0.0238224
0.0237649
0.0237655
0.0238361
0.0239938
0.0242597
0.02466
0.0252174
0.0259436
0.0267791
0.0275393
0.0283297
0.0244547
0.0241784
0.0239541
0.0237875
0.0236674
0.0235946
0.0235783
0.0236321
0.0237763
0.0240381
0.0244557
0.0250689
0.0259175
0.0269676
0.0279732
0.0289528
0.0243162
0.024032
0.0237965
0.0236148
0.0234759
0.0233797
0.0233348
0.023354
0.0234577
0.0236727
0.0240414
0.0246084
0.0254396
0.0265348
0.0276229
0.0283638
0.0241562
0.0238658
0.0236197
0.0234212
0.0232593
0.0231325
0.0230476
0.0230143
0.023049
0.0231702
0.0234109
0.0237892
0.0243625
0.0250545
0.025806
0.0240285
0.0248613
0.0246508
0.0244668
0.0243288
0.0242441
0.024219
0.024261
0.0243781
0.0245778
0.0248648
0.0252381
0.0256849
0.0261735
0.0266364
0.0269711
0.0270891
0.0248901
0.0246577
0.0244706
0.0243389
0.024261
0.0242423
0.0242898
0.0244112
0.0246135
0.0249012
0.0252728
0.0257161
0.0262005
0.0266642
0.0270314
0.0272631
0.0248879
0.0246387
0.0244461
0.0243161
0.0242415
0.0242262
0.0242782
0.0244062
0.0246197
0.0249274
0.0253337
0.0258325
0.0264015
0.0269779
0.0274858
0.0279096
0.0248497
0.0245873
0.0243855
0.0242513
0.0241743
0.0241575
0.0242101
0.0243435
0.0245723
0.0249123
0.0253791
0.02598
0.0267031
0.0274774
0.0282031
0.0288648
0.0247728
0.0244993
0.0242865
0.0241433
0.0240582
0.0240335
0.0240798
0.0242116
0.0244486
0.0248157
0.0253424
0.0260529
0.0269555
0.0279801
0.0289519
0.0298443
0.0246575
0.0243744
0.0241499
0.0239934
0.0238939
0.0238529
0.0238818
0.0239968
0.0242214
0.0245867
0.0251349
0.0259063
0.0269351
0.0281632
0.0293496
0.0304011
0.024509
0.0242177
0.023981
0.023808
0.0236878
0.0236211
0.0236185
0.0236957
0.0238761
0.0241904
0.0246846
0.0254028
0.0264028
0.0276486
0.0288446
0.0295626
0.0243364
0.0240385
0.0237901
0.0235982
0.0234521
0.023351
0.0233035
0.0233216
0.0234244
0.0236332
0.0239832
0.0244897
0.0251999
0.0259941
0.0267465
0.0246656
0.0250413
0.0248271
0.0246453
0.0245171
0.0244498
0.0244507
0.024528
0.0246908
0.0249477
0.0253049
0.025762
0.0263065
0.0269042
0.0274855
0.0279326
0.0280843
0.0250724
0.0248351
0.0246498
0.0245279
0.0244679
0.0244755
0.0245589
0.0247263
0.0249861
0.0253437
0.0257984
0.0263383
0.0269309
0.0275122
0.0279891
0.0282504
0.025072
0.0248179
0.0246267
0.024507
0.0244509
0.024463
0.0245521
0.0247279
0.0250011
0.0253811
0.0258732
0.0264697
0.0271472
0.0278381
0.028454
0.0289029
0.0250337
0.0247666
0.0245661
0.0244424
0.0243846
0.0243961
0.0244874
0.024671
0.0249626
0.0253794
0.0259374
0.0266418
0.0274748
0.0283585
0.0291863
0.0298678
0.024954
0.0246757
0.0244641
0.0243311
0.0242653
0.0242693
0.0243552
0.0245389
0.0248418
0.0252901
0.0259135
0.0267335
0.0277501
0.0288796
0.0299381
0.0308392
0.0248328
0.0245449
0.024321
0.0241741
0.0240931
0.0240801
0.0241481
0.0243149
0.0246061
0.0250541
0.0257015
0.0265848
0.0277273
0.0290487
0.0302975
0.0313335
0.0246757
0.0243793
0.0241424
0.0239778
0.0238744
0.0238337
0.0238677
0.023994
0.024238
0.0246315
0.0252208
0.0260451
0.02715
0.0284695
0.0296824
0.0303263
0.0244923
0.0241888
0.0239392
0.0237539
0.0236222
0.0235438
0.0235286
0.0235905
0.0237498
0.0240287
0.0244619
0.0250583
0.0258525
0.0266891
0.027399
0.02506
0.0251844
0.0249678
0.024788
0.024668
0.024615
0.0246367
0.0247421
0.0249406
0.0252417
0.0256517
0.0261702
0.0267834
0.0274517
0.0281122
0.0286119
0.028779
0.0252173
0.0249765
0.0247932
0.0246796
0.0246341
0.024663
0.0247747
0.0249782
0.0252822
0.0256924
0.0262075
0.0268159
0.0274802
0.0281335
0.0286669
0.0289358
0.0252185
0.024961
0.0247714
0.0246603
0.0246193
0.0246535
0.024772
0.0249852
0.0253041
0.0257385
0.0262935
0.0269572
0.0277055
0.0284637
0.0291318
0.0295831
0.0251802
0.0249097
0.0247108
0.0245959
0.0245537
0.0245881
0.02471
0.0249328
0.0252727
0.0257469
0.0263707
0.027146
0.0280481
0.0289928
0.0298649
0.030543
0.0250982
0.0248167
0.0246065
0.0244822
0.024432
0.0244591
0.0245764
0.0248006
0.0251538
0.0256624
0.026355
0.0272487
0.0283355
0.0295203
0.0306111
0.0314998
0.0249724
0.0246812
0.0244583
0.0243195
0.0242537
0.0242632
0.024362
0.0245692
0.0249112
0.0254205
0.0261383
0.0270963
0.0283076
0.0296756
0.0309397
0.0319472
0.0248085
0.0245085
0.0242721
0.0241145
0.024025
0.0240051
0.0240682
0.0242327
0.0245251
0.0249773
0.0256339
0.0265287
0.0276962
0.0290496
0.0302505
0.0308292
0.0246164
0.024309
0.024059
0.0238795
0.0237596
0.0236995
0.02371
0.0238059
0.0240085
0.0243393
0.0248316
0.0254877
0.0263313
0.027182
0.0278459
0.0253181
0.0252839
0.025066
0.024888
0.024774
0.0247313
0.0247678
0.0248926
0.0251159
0.0254471
0.0258928
0.0264518
0.0271091
0.0278244
0.0285203
0.0290501
0.0292215
0.0253181
0.0250755
0.024894
0.0247867
0.0247518
0.0247958
0.0249275
0.0251562
0.0254907
0.0259367
0.0264927
0.027144
0.027853
0.0285459
0.0291074
0.0293738
0.0253203
0.0250612
0.0248732
0.0247686
0.0247387
0.0247887
0.024928
0.0251674
0.0255179
0.0259891
0.0265846
0.0272902
0.0280839
0.0288794
0.0295708
0.0300161
0.0252819
0.0250099
0.0248125
0.0247043
0.0246736
0.0247242
0.0248678
0.025118
0.025491
0.0260041
0.0266714
0.0274942
0.0284355
0.0294126
0.0303018
0.0309695
0.0251983
0.0249153
0.0247064
0.0245886
0.02455
0.0245936
0.0247328
0.0249852
0.0253729
0.0259221
0.02666
0.0276005
0.0287283
0.0299416
0.0310421
0.0319145
0.0250694
0.0247765
0.0245546
0.0244219
0.0243671
0.0243926
0.0245131
0.0247483
0.0251248
0.025675
0.0264387
0.0274433
0.0286948
0.0300861
0.0313497
0.0323316
0.0249006
0.0245988
0.024363
0.0242108
0.0241313
0.0241263
0.0242097
0.0244007
0.024726
0.0252172
0.0259174
0.0268561
0.0280597
0.0294289
0.0306137
0.0311451
0.0247025
0.024393
0.024143
0.0239679
0.0238567
0.0238096
0.0238382
0.0239576
0.0241896
0.0245551
0.0250856
0.0257789
0.0266506
0.0275048
0.0281318
0.0254827
0.0253334
0.0251146
0.024937
0.0248256
0.0247877
0.024831
0.0249651
0.0252
0.0255452
0.0260072
0.0265847
0.0272614
0.0279966
0.0287085
0.02925
0.0294267
0.025368
0.0251241
0.0249426
0.0248376
0.0248074
0.0248581
0.0249989
0.025239
0.0255872
0.0260493
0.0266232
0.0272933
0.0280217
0.0287318
0.029306
0.0295756
0.0253707
0.0251104
0.0249223
0.0248199
0.0247948
0.0248517
0.0250004
0.0252514
0.0256159
0.0261032
0.0267163
0.0274393
0.0282519
0.0290626
0.0297646
0.0302119
0.0253324
0.0250594
0.0248618
0.0247559
0.0247302
0.0247881
0.0249413
0.0252037
0.0255915
0.0261215
0.0268076
0.0276504
0.0286068
0.0295956
0.0304927
0.0311595
0.0252482
0.0249642
0.0247551
0.0246398
0.0246061
0.0246571
0.0248063
0.0250713
0.0254744
0.0260414
0.0267988
0.0277588
0.0289025
0.0301258
0.0312303
0.0320978
0.0251178
0.0248239
0.0246018
0.0244714
0.0244214
0.0244542
0.0245846
0.0248324
0.0252244
0.0257927
0.0265759
0.0275999
0.0288665
0.0302648
0.0315278
0.0325013
0.0249467
0.0246438
0.0244076
0.0242574
0.0241824
0.0241842
0.0242769
0.0244799
0.0248201
0.0253286
0.0260474
0.0270039
0.0282203
0.029592
0.0307653
0.031272
0.0247457
0.0244349
0.0241844
0.0240108
0.0239034
0.0238624
0.0238992
0.0240294
0.0242747
0.0246557
0.0252026
0.0259113
0.0267916
0.0276426
0.0282249
0.0255188
0.0230201
0.0229634
0.0228595
0.0227214
0.0225587
0.0223749
0.0221694
0.0219384
0.0216718
0.0213533
0.0209603
0.0204633
0.0198268
0.0190154
0.0179986
0.0167787
0.0230284
0.0229729
0.0228723
0.0227369
0.0225767
0.0223955
0.0221932
0.021965
0.0217015
0.0213876
0.0210004
0.020511
0.0198823
0.0190791
0.0180663
0.0168487
0.0230241
0.0229652
0.0228653
0.0227313
0.0225726
0.0223932
0.0221935
0.0219697
0.0217132
0.0214094
0.0210365
0.020565
0.019959
0.0191855
0.018201
0.0170143
0.0230036
0.0229375
0.0228339
0.0226974
0.0225364
0.0223549
0.0221539
0.0219306
0.0216772
0.0213802
0.0210192
0.0205665
0.0199873
0.019246
0.0182973
0.0171535
0.0229672
0.022893
0.0227829
0.0226404
0.0224732
0.0222854
0.0220783
0.0218501
0.021594
0.0212978
0.0209424
0.0205018
0.0199414
0.0192297
0.0183159
0.0172162
0.0229168
0.0228353
0.0227178
0.0225677
0.0223921
0.0221951
0.0219784
0.0217407
0.0214767
0.0211752
0.0208186
0.0203828
0.0198347
0.0191459
0.0182641
0.0172078
0.0228551
0.022768
0.0226439
0.0224862
0.0223017
0.0220945
0.0218664
0.021617
0.0213415
0.0210303
0.0206672
0.0202302
0.0196883
0.0190164
0.0181644
0.0171505
0.0227858
0.0226951
0.0225659
0.0224016
0.0222091
0.0219923
0.0217531
0.0214915
0.0212035
0.0208803
0.0205076
0.0200652
0.0195253
0.0188657
0.0180419
0.0170693
0.0230393
0.0229664
0.0228523
0.0227072
0.0225391
0.0223504
0.0221404
0.0219043
0.0216326
0.0213094
0.020912
0.0204101
0.0197675
0.0189483
0.0179189
0.0166866
0.0230456
0.022971
0.0228601
0.0227175
0.0225511
0.0223634
0.0221538
0.021918
0.0216464
0.0213236
0.020927
0.020427
0.0197869
0.0189724
0.0179457
0.0167188
0.0230402
0.0229598
0.0228485
0.0227062
0.0225398
0.0223517
0.0221421
0.0219071
0.0216383
0.0213212
0.0209342
0.0204488
0.0198283
0.0190399
0.0180374
0.0168425
0.0230203
0.0229311
0.0228155
0.02267
0.0225002
0.0223086
0.0220957
0.0218588
0.0215903
0.021277
0.0208988
0.0204286
0.01983
0.0190726
0.0181026
0.0169487
0.0229852
0.0228874
0.0227656
0.0226144
0.0224384
0.0222401
0.0220203
0.0217772
0.0215044
0.0211901
0.0208156
0.0203556
0.0197741
0.0190444
0.0181063
0.0169956
0.0229357
0.0228308
0.0227026
0.0225448
0.0223612
0.0221542
0.0219249
0.0216722
0.0213909
0.0210706
0.0206941
0.0202383
0.0196685
0.0189614
0.0180549
0.0169879
0.0228743
0.0227644
0.0226306
0.0224664
0.022275
0.0220588
0.0218191
0.0215552
0.0212629
0.0209331
0.0205503
0.0200936
0.0195306
0.0188416
0.0179664
0.0169433
0.0228046
0.0226919
0.0225541
0.0223844
0.0221861
0.0219613
0.0217115
0.0214364
0.0211326
0.0207919
0.0204005
0.0199397
0.0193803
0.0187055
0.0178617
0.016882
0.0231028
0.0230099
0.0228812
0.0227257
0.0225501
0.0223562
0.022143
0.0219057
0.0216345
0.0213131
0.020917
0.0204127
0.0197588
0.0189093
0.0178183
0.0164904
0.0231096
0.023013
0.0228882
0.022736
0.0225625
0.0223695
0.0221563
0.0219185
0.0216466
0.0213246
0.0209287
0.0204265
0.0197741
0.0189289
0.017842
0.0165248
0.0231023
0.0229982
0.0228728
0.0227206
0.0225464
0.022352
0.0221371
0.0218983
0.021627
0.0213087
0.0209205
0.0204313
0.0197986
0.0189836
0.0179166
0.0166323
0.0230803
0.0229664
0.0228361
0.0226803
0.0225018
0.0223024
0.0220824
0.0218393
0.0215659
0.0212491
0.0208675
0.0203916
0.0197786
0.0189922
0.0179545
0.0167127
0.0230434
0.0229203
0.0227838
0.0226222
0.0224371
0.02223
0.0220017
0.0217504
0.0214704
0.0211501
0.0207698
0.020302
0.0197041
0.0189443
0.017936
0.0167402
0.022992
0.0228617
0.022719
0.0225511
0.0223586
0.0221425
0.0219037
0.0216414
0.0213511
0.0210227
0.0206383
0.0201729
0.0195852
0.0188485
0.0178722
0.0167263
0.0229284
0.0227929
0.0226452
0.0224715
0.0222716
0.0220464
0.0217968
0.0215226
0.02122
0.0208806
0.0204883
0.0200207
0.0194394
0.0187225
0.0177819
0.0166892
0.0228559
0.0227178
0.0225666
0.022388
0.0221817
0.0219482
0.0216886
0.0214029
0.0210881
0.0207369
0.020335
0.0198627
0.0192853
0.0185853
0.017684
0.016646
0.0232089
0.0230957
0.0229522
0.0227869
0.0226057
0.0224101
0.0221989
0.0219674
0.0217057
0.0213963
0.021012
0.0205132
0.0198457
0.0189473
0.0177415
0.0162172
0.0232174
0.0230982
0.022959
0.0227982
0.0226201
0.0224262
0.0222157
0.0219843
0.0217223
0.0214129
0.0210296
0.0205337
0.0198715
0.0189808
0.0177793
0.0162689
0.0232079
0.0230799
0.0229401
0.0227795
0.0226006
0.0224048
0.0221919
0.0219585
0.0216962
0.0213895
0.0210132
0.0205301
0.0198864
0.0190236
0.0178406
0.0163563
0.0231827
0.0230439
0.0228987
0.0227341
0.0225503
0.0223485
0.022129
0.0218894
0.021623
0.0213157
0.0209438
0.020472
0.0198456
0.0190092
0.0178465
0.0163994
0.0231419
0.0229934
0.0228414
0.0226708
0.0224799
0.0222695
0.0220401
0.0217903
0.0215148
0.0212014
0.0208282
0.0203616
0.0197475
0.0189353
0.0177975
0.0164001
0.0230862
0.02293
0.0227716
0.0225946
0.0223959
0.0221757
0.0219346
0.021672
0.0213838
0.0210594
0.0206792
0.0202123
0.0196066
0.0188178
0.0177134
0.0163794
0.0230178
0.0228562
0.0226926
0.0225097
0.0223034
0.0220736
0.0218206
0.0215443
0.0212416
0.0209034
0.0205124
0.0200409
0.0194406
0.0186746
0.0176137
0.0163551
0.0229402
0.0227757
0.0226085
0.0224206
0.0222077
0.0219691
0.0217052
0.0214159
0.0210988
0.0207462
0.0203429
0.0198642
0.0192673
0.0185226
0.0175138
0.0163381
0.0233522
0.0232198
0.0230628
0.0228901
0.022707
0.0225147
0.0223123
0.0220954
0.0218538
0.0215691
0.0212106
0.0207305
0.0200578
0.0190981
0.0177293
0.015889
0.0233626
0.0232213
0.0230686
0.0229011
0.0227219
0.0225322
0.0223313
0.0221149
0.0218735
0.0215892
0.021232
0.0207551
0.0200881
0.0191381
0.0177737
0.0159413
0.0233515
0.0232001
0.0230461
0.0228791
0.0226992
0.0225074
0.0223036
0.0220845
0.0218418
0.0215591
0.0212076
0.0207415
0.0200898
0.0191589
0.0177991
0.015959
0.0233229
0.0231598
0.0229997
0.0228284
0.0226433
0.0224448
0.0222333
0.0220067
0.0217581
0.0214727
0.0211234
0.0206648
0.0200251
0.0191096
0.0177562
0.0159282
0.0232774
0.0231041
0.0229366
0.0227589
0.0225663
0.0223585
0.022136
0.0218975
0.0216378
0.0213439
0.0209905
0.0205337
0.0199024
0.0190034
0.0176688
0.0158867
0.0232158
0.0230345
0.02286
0.0226755
0.0224745
0.0222563
0.0220209
0.0217679
0.0214932
0.0211855
0.0208223
0.0203621
0.0197376
0.0188607
0.0175638
0.0158653
0.0231405
0.0229535
0.0227733
0.0225823
0.0223732
0.0221444
0.0218958
0.021627
0.021335
0.0210101
0.0206326
0.0201643
0.0195448
0.0186953
0.0174559
0.0158765
0.0230555
0.0228652
0.022681
0.0224844
0.0222677
0.022029
0.0217676
0.0214833
0.0211737
0.0208301
0.0204355
0.0199558
0.0193387
0.0185179
0.0173511
0.0159165
0.0235284
0.0233785
0.0232101
0.0230332
0.0228528
0.0226702
0.0224847
0.0222927
0.0220845
0.0218412
0.0215294
0.0210924
0.0204377
0.0194237
0.0178477
0.0155412
0.0235407
0.0233793
0.0232146
0.0230434
0.0228675
0.0226881
0.0225047
0.0223136
0.0221059
0.021863
0.021552
0.0211167
0.0204642
0.0194491
0.0178526
0.0154903
0.0235291
0.023356
0.0231892
0.0230185
0.0228421
0.0226608
0.0224743
0.0222802
0.0220705
0.0218284
0.0215219
0.0210944
0.0204487
0.0194269
0.0177869
0.0152988
0.0234976
0.0233121
0.0231385
0.0229633
0.0227815
0.0225933
0.0223987
0.0221964
0.0219799
0.0217342
0.0214288
0.0210061
0.0203654
0.0193341
0.0176631
0.0150853
0.023447
0.0232509
0.0230692
0.0228872
0.0226977
0.0224997
0.0222937
0.0220787
0.0218503
0.0215951
0.0212851
0.0208628
0.0202283
0.0191982
0.0175317
0.0149391
0.0233784
0.0231739
0.0229846
0.022795
0.0225966
0.0223875
0.0221678
0.021937
0.0216919
0.0214212
0.0211001
0.0206731
0.020047
0.0190348
0.0174162
0.014898
0.0232945
0.023084
0.0228882
0.0226912
0.0224837
0.0222627
0.022028
0.0217792
0.0215137
0.0212218
0.0208823
0.0204431
0.0198241
0.0188445
0.017316
0.014975
0.0232
0.0229858
0.0227852
0.0225815
0.0223649
0.022132
0.0218819
0.0216138
0.0213258
0.0210086
0.0206441
0.0201843
0.0195649
0.018625
0.0172213
0.0151699
0.0237319
0.0235664
0.0233894
0.023212
0.0230393
0.022873
0.0227133
0.0225575
0.0223977
0.0222165
0.0219805
0.021628
0.0210479
0.0200425
0.0182616
0.0153116
0.0237463
0.0235671
0.0233928
0.0232214
0.0230537
0.0228911
0.0227339
0.0225795
0.0224204
0.0222393
0.0220034
0.0216507
0.0210664
0.0200319
0.0181347
0.0148719
0.0237351
0.0235427
0.0233654
0.0231946
0.0230268
0.0228626
0.0227028
0.0225456
0.0223849
0.0222051
0.0219747
0.0216305
0.0210481
0.0199752
0.0179206
0.0142076
0.0237013
0.023496
0.0233112
0.0231357
0.0229626
0.0227918
0.0226242
0.0224593
0.0222926
0.0221111
0.0218851
0.0215506
0.0209764
0.0198754
0.0177177
0.0136296
0.0236457
0.0234295
0.0232359
0.0230531
0.0228721
0.0226916
0.0225126
0.0223355
0.0221577
0.0219686
0.0217425
0.0214159
0.020859
0.0197574
0.0175824
0.0132607
0.0235693
0.0233444
0.0231425
0.0229513
0.0227606
0.0225684
0.022375
0.0221813
0.0219862
0.0217816
0.0215461
0.0212199
0.0206843
0.0196081
0.0175055
0.0131214
0.0234754
0.0232442
0.0230349
0.0228351
0.0226338
0.0224279
0.0222175
0.022003
0.0217841
0.0215537
0.0212951
0.0209518
0.0204276
0.0193901
0.0174481
0.0132304
0.0233694
0.0231342
0.0229191
0.0227109
0.0224984
0.0222779
0.0220484
0.0218097
0.0215613
0.0212957
0.0209986
0.0206143
0.0200738
0.0190622
0.0173655
0.0136765
0.0239551
0.0237766
0.0235936
0.0234195
0.0232594
0.0231156
0.0229897
0.022881
0.0227844
0.0226865
0.0225593
0.022348
0.021947
0.0211442
0.0194881
0.0161792
0.0239722
0.0237776
0.0235963
0.0234283
0.0232735
0.023134
0.0230112
0.0229043
0.0228086
0.022711
0.0225839
0.0223723
0.0219668
0.0211327
0.0192738
0.0152498
0.0239621
0.0237532
0.0235682
0.0234008
0.0232463
0.0231059
0.0229813
0.0228728
0.022777
0.0226832
0.0225664
0.0223726
0.0219859
0.0211334
0.0190589
0.0141925
0.0239267
0.0237045
0.0235113
0.0233391
0.0231798
0.0230335
0.0229022
0.0227875
0.0226886
0.0225979
0.0224949
0.0223287
0.0219807
0.0211485
0.0189696
0.0134165
0.0238661
0.0236328
0.0234303
0.0232504
0.023083
0.0229272
0.0227852
0.0226597
0.0225522
0.0224592
0.0223663
0.0222285
0.0219346
0.0211661
0.01902
0.0129881
0.0237816
0.0235394
0.0233278
0.0231384
0.0229605
0.0227921
0.0226351
0.0224927
0.0223684
0.0222615
0.0221645
0.02204
0.0217962
0.0211099
0.0191187
0.0128388
0.0236767
0.0234279
0.023208
0.0230085
0.0228181
0.022634
0.0224574
0.0222911
0.0221389
0.0220011
0.0218746
0.0217265
0.0214949
0.0208606
0.0191324
0.0128851
0.0235579
0.0233046
0.0230777
0.022868
0.0226638
0.0224615
0.0222613
0.0220645
0.0218739
0.0216874
0.0215021
0.0212774
0.0209791
0.0202663
0.0188625
0.0130628
0.0236179
0.0233467
0.0231044
0.0228841
0.0226741
0.0224703
0.0222729
0.0220832
0.0219048
0.0217359
0.0215785
0.021391
0.02116
0.0205283
0.0193278
0.0139675
0.0234802
0.0232089
0.0229625
0.0227318
0.0225049
0.0222768
0.0220459
0.0218112
0.0215721
0.0213208
0.0210474
0.0206953
0.020206
0.0192615
0.0176217
0.0141727
0.0233542
0.023086
0.0228384
0.0225998
0.0223584
0.0221088
0.0218482
0.0215738
0.0212822
0.0209639
0.0206015
0.0201503
0.0195376
0.018628
0.017186
0.0152678
0.0232488
0.0229863
0.0227405
0.0224973
0.0222453
0.0219792
0.0216957
0.0213915
0.0210621
0.0206988
0.0202837
0.0197904
0.0191518
0.0183422
0.0171407
0.0157699
0.0231686
0.0229154
0.0226743
0.0224295
0.0221713
0.021895
0.0215973
0.0212751
0.0209238
0.0205365
0.0200973
0.0195918
0.0189647
0.0182232
0.0172029
0.0160621
0.023115
0.0228746
0.02264
0.0223961
0.0221358
0.0218556
0.0215525
0.0212236
0.0208645
0.0204692
0.0200241
0.0195189
0.0189117
0.0182112
0.0173142
0.016306
0.0230839
0.0228604
0.0226329
0.0223914
0.0221325
0.0218537
0.0215526
0.0212266
0.0208712
0.0204805
0.0200423
0.0195455
0.0189583
0.0182808
0.0174478
0.0164984
0.0230628
0.0228627
0.0226418
0.0224029
0.0221465
0.0218714
0.0215757
0.0212571
0.0209117
0.0205329
0.0201092
0.0196268
0.019058
0.0183929
0.0175796
0.0166375
0.023805
0.0235208
0.0232709
0.0230521
0.0228528
0.0226694
0.0225041
0.0223601
0.0222442
0.022159
0.0221142
0.0220761
0.0220352
0.0216098
0.0204028
0.0144119
0.0236518
0.0233668
0.0231114
0.0228795
0.0226593
0.0224459
0.0222389
0.0220381
0.0218444
0.0216516
0.0214515
0.0211833
0.0207779
0.0198487
0.0180438
0.0139529
0.0235112
0.0232287
0.0229709
0.0227288
0.0224904
0.0222501
0.0220054
0.0217538
0.0214919
0.0212097
0.0208886
0.0204765
0.0198876
0.0189474
0.0173733
0.0151767
0.0233931
0.0231161
0.0228593
0.0226108
0.0223587
0.0220973
0.0218232
0.0215327
0.0212205
0.0208773
0.0204824
0.0200059
0.0193682
0.018536
0.0172463
0.015755
0.0233031
0.0230352
0.0227827
0.0225315
0.0222711
0.0219962
0.0217032
0.0213883
0.0210461
0.0206692
0.0202392
0.0197407
0.0191083
0.0183525
0.0172729
0.0160619
0.0232425
0.0229875
0.0227418
0.022491
0.0222274
0.0219468
0.0216457
0.0213207
0.0209667
0.0205771
0.0201368
0.0196352
0.0190227
0.0183127
0.0173779
0.0163246
0.0232069
0.0229698
0.0227318
0.0224836
0.0222211
0.0219414
0.0216417
0.0213186
0.0209676
0.0205819
0.0201483
0.0196553
0.0190656
0.0183821
0.0175245
0.0165424
0.0231832
0.0229714
0.0227412
0.0224961
0.0222366
0.021961
0.0216672
0.0213524
0.0210124
0.0206401
0.020223
0.0197465
0.0191786
0.0185101
0.0176774
0.0167054
0.0239857
0.0236913
0.0234359
0.0232203
0.0230331
0.0228713
0.0227386
0.0226404
0.0225862
0.0225814
0.0226393
0.0227244
0.0228183
0.02248
0.0212052
0.0146231
0.0238172
0.0235212
0.0232589
0.0230277
0.0228155
0.0226179
0.0224355
0.0222692
0.0221212
0.0219855
0.0218543
0.0216581
0.0213146
0.0203718
0.0184199
0.0138673
0.0236623
0.0233679
0.0231021
0.0228582
0.0226241
0.0223942
0.0221665
0.0219386
0.0217073
0.0214617
0.0211809
0.0208048
0.0202339
0.0192577
0.0175634
0.0151352
0.0235312
0.0232423
0.0229766
0.0227244
0.0224736
0.0222181
0.0219546
0.0216789
0.0213853
0.0210635
0.0206898
0.02023
0.0195928
0.0187357
0.0173639
0.0157593
0.0234313
0.0231511
0.0228894
0.0226334
0.0223721
0.0220999
0.0218128
0.0215065
0.021175
0.0208099
0.0203905
0.0199002
0.0192636
0.0184933
0.0173594
0.0160818
0.0233637
0.0230966
0.0228416
0.0225856
0.0223198
0.02204
0.0217422
0.0214224
0.0210748
0.0206926
0.0202584
0.0197617
0.0191455
0.0184268
0.0174578
0.0163616
0.0233237
0.0230751
0.0228285
0.0225752
0.0223104
0.022031
0.0217337
0.021415
0.0210695
0.0206902
0.0202624
0.0197744
0.0191834
0.0184949
0.0176152
0.0166017
0.0232975
0.023076
0.0228383
0.0225886
0.0223273
0.0220524
0.0217616
0.0214519
0.0211184
0.0207538
0.0203444
0.019875
0.0193091
0.018638
0.0177877
0.0167874
0.0241519
0.0238493
0.0235903
0.023379
0.0232041
0.023063
0.0229611
0.0229053
0.0229068
0.0229721
0.0231151
0.0232928
0.0234738
0.0231621
0.0217808
0.0146987
0.0239688
0.0236641
0.0233969
0.0231675
0.0229638
0.0227818
0.0226228
0.0224888
0.0223826
0.0222976
0.0222248
0.0220844
0.0217808
0.0208095
0.0187215
0.0138166
0.0238006
0.0234966
0.0232247
0.0229805
0.0227513
0.0225319
0.0223206
0.0221153
0.0219127
0.0217004
0.0214551
0.0211081
0.0205479
0.0195346
0.0177336
0.0151204
0.0236571
0.0233586
0.023086
0.0228317
0.0225829
0.0223338
0.0220808
0.0218197
0.0215442
0.0212426
0.0208885
0.0204433
0.019805
0.0189233
0.0174787
0.0157762
0.023548
0.0232579
0.0229888
0.0227294
0.0224681
0.0221993
0.0219185
0.0216212
0.0213005
0.0209474
0.0205386
0.0200561
0.0194159
0.0186317
0.0174504
0.0161136
0.0234736
0.0231966
0.0229343
0.0226744
0.0224076
0.0221294
0.0218355
0.0215214
0.0211809
0.0208064
0.020379
0.0198876
0.0192687
0.0185422
0.0175437
0.016409
0.0234295
0.0231716
0.0229182
0.022661
0.022395
0.0221167
0.0218226
0.0215087
0.0211693
0.0207969
0.0203754
0.0198929
0.0193017
0.018609
0.01771
0.0166683
0.0234012
0.0231717
0.0229282
0.0226752
0.0224131
0.0221398
0.0218527
0.0215485
0.021222
0.0208655
0.0204641
0.0200019
0.0194385
0.0187654
0.0178997
0.0168739
0.0242955
0.0239868
0.0237256
0.0235188
0.0233551
0.0232326
0.0231575
0.0231378
0.0231859
0.0233079
0.0235161
0.0237593
0.0239933
0.0236774
0.0221892
0.0147086
0.0240998
0.0237884
0.0235178
0.0232908
0.0230951
0.022927
0.0227887
0.0226824
0.0226114
0.0225681
0.0225409
0.0224407
0.0221601
0.0211536
0.0189487
0.0137752
0.0239195
0.0236084
0.0233321
0.0230882
0.022864
0.0226543
0.0224576
0.022272
0.0220939
0.0219096
0.0216929
0.0213673
0.0208117
0.0197632
0.017873
0.0151179
0.0237656
0.0234595
0.0231818
0.0229262
0.0226799
0.0224368
0.0221934
0.0219453
0.0216857
0.0214017
0.021064
0.0206301
0.0199893
0.0190849
0.01758
0.0157987
0.023648
0.0233502
0.0230755
0.0228139
0.0225533
0.0222878
0.0220131
0.0217241
0.0214133
0.0210709
0.0206716
0.0201959
0.0195522
0.0187555
0.0175352
0.0161492
0.0235678
0.023283
0.0230151
0.0227524
0.0224853
0.022209
0.0219191
0.0216106
0.0212767
0.0209095
0.0204885
0.0200022
0.0193813
0.0186481
0.0176254
0.0164582
0.02352
0.0232548
0.0229962
0.0227363
0.0224697
0.022193
0.0219022
0.0215931
0.0212596
0.0208937
0.0204784
0.020001
0.01941
0.0187139
0.0177991
0.0167334
0.0234899
0.0232543
0.0230064
0.0227511
0.0224888
0.0222175
0.0219341
0.0216353
0.0213155
0.0209665
0.0205727
0.0201171
0.0195562
0.0188815
0.018003
0.0169554
0.0244097
0.0240968
0.0238342
0.0236315
0.0234773
0.0233698
0.023316
0.0233246
0.0234084
0.0235727
0.0238277
0.0241146
0.0243791
0.0240477
0.0224721
0.0147005
0.0242039
0.0238877
0.023615
0.0233902
0.0232015
0.0230447
0.0229229
0.0228384
0.0227948
0.0227829
0.022789
0.0227157
0.022447
0.0214072
0.0191118
0.0137454
0.0240139
0.0236977
0.0234183
0.0231752
0.0229554
0.0227536
0.0225688
0.0223989
0.0222401
0.0220772
0.0218817
0.0215709
0.0210158
0.0199376
0.0179794
0.0151225
0.0238516
0.0235399
0.0232586
0.0230025
0.0227585
0.0225205
0.0222851
0.0220476
0.0218007
0.0215305
0.0212054
0.0207795
0.0201357
0.0192128
0.017662
0.0158224
0.0237273
0.0234237
0.0231451
0.0228821
0.0226224
0.02236
0.0220903
0.0218082
0.0215056
0.021172
0.0207802
0.0203097
0.0196633
0.0188565
0.0176065
0.0161829
0.0236422
0.0233518
0.0230799
0.0228153
0.0225484
0.0222739
0.0219874
0.0216837
0.0213556
0.0209945
0.0205788
0.0200967
0.0194745
0.0187361
0.0176949
0.0165024
0.0235915
0.0233209
0.0230586
0.0227969
0.0225303
0.0222551
0.0219673
0.0216624
0.0213339
0.0209736
0.0205634
0.0200905
0.0195
0.0188012
0.0178743
0.0167897
0.02356
0.0233199
0.0230689
0.0228122
0.0225502
0.0222806
0.0220006
0.0217064
0.0213923
0.0210497
0.0206621
0.020212
0.0196533
0.0189774
0.0180891
0.0170243
0.0244891
0.0241736
0.0239105
0.0237109
0.0235637
0.023467
0.0234281
0.0234565
0.0235647
0.0237574
0.0240432
0.0243576
0.0246396
0.0242952
0.0226611
0.0147063
0.0242761
0.0239571
0.0236832
0.0234604
0.0232768
0.0231284
0.0230182
0.022949
0.0229243
0.0229337
0.022962
0.022906
0.0226436
0.0215793
0.0192223
0.0137332
0.0240794
0.02376
0.0234789
0.0232366
0.0230203
0.0228244
0.0226481
0.0224893
0.022344
0.022196
0.0220149
0.0217135
0.0211579
0.020058
0.0180537
0.0151331
0.0239112
0.0235961
0.0233126
0.0230565
0.0228145
0.0225805
0.0223508
0.022121
0.0218832
0.0216227
0.0213065
0.020886
0.02024
0.019304
0.0177233
0.0158471
0.0237821
0.023475
0.023194
0.0229304
0.0226717
0.0224118
0.022146
0.0218691
0.0215725
0.0212454
0.0208591
0.0203924
0.0197445
0.0189308
0.017662
0.0162135
0.0236938
0.0233998
0.0231255
0.02286
0.0225935
0.0223207
0.0220369
0.0217369
0.0214131
0.0210568
0.0206451
0.0201663
0.0195437
0.0188017
0.0177487
0.016539
0.0236411
0.0233671
0.0231026
0.02284
0.0225736
0.0222997
0.0220143
0.0217126
0.021388
0.0210319
0.0206257
0.0201561
0.0195663
0.0188657
0.017931
0.0168334
0.0236085
0.0233656
0.0231127
0.0228552
0.0225936
0.0223256
0.0220481
0.0217573
0.0214474
0.0211094
0.0207264
0.0202803
0.0197233
0.0190464
0.0181517
0.017075
0.0245288
0.0242119