/*--------------------------------*- C++ -*----------------------------------*\
| =========                 |                                                 |
| \\      /  F ield         | foam-extend: Open Source CFD                    |
|  \\    /   O peration     | Version:     3.1                                |
|   \\  /    A nd           | Web:         http://www.extend-project.de       |
|    \\/     M anipulation  |                                                 |
\*---------------------------------------------------------------------------*/
FoamFile
{
    version     2.0;
    format      ascii;
    class       surfaceScalarField;
    location    "3.8";
    object      phi;
}
// * * * * * * * * * * * * * * * * * * * * * * * * * * * * * * * * * * * * * //

dimensions      [0 3 -1 0 0 0 0];

internalField   nonuniform List<scalar> 
41600
(
1.18646e-05
-6.92646e-08
-1.20548e-06
1.22092e-06
1.17758e-05
7.67079e-08
-2.17391e-06
2.18603e-06
1.156e-05
2.17347e-07
-2.7473e-06
2.74571e-06
1.12494e-05
3.28464e-07
-3.24775e-06
3.22989e-06
1.08596e-05
4.2436e-07
-3.80275e-06
3.7682e-06
1.04035e-05
5.08286e-07
-4.48133e-06
4.42918e-06
9.90126e-06
5.74331e-07
-5.33243e-06
5.26031e-06
9.38536e-06
6.11399e-07
-6.40095e-06
6.30546e-06
8.90393e-06
6.02951e-07
-7.73923e-06
7.61771e-06
8.52553e-06
5.24041e-07
-9.4179e-06
9.27226e-06
8.34666e-06
3.33529e-07
-1.15379e-05
1.13833e-05
8.49264e-06
-3.4562e-08
-1.42378e-05
1.41263e-05
9.06283e-06
-6.62633e-07
-1.76554e-05
1.77479e-05
9.80414e-06
-1.51856e-06
-2.16725e-05
2.24498e-05
8.7655e-06
-1.8296e-06
-2.4865e-05
2.77333e-05
-2.60222e-07
-1.99201e-05
2.89288e-05
3.30453e-05
-2.31793e-08
-1.42402e-06
1.47898e-06
3.27921e-05
2.479e-07
-3.3288e-06
3.41087e-06
3.23759e-05
5.57246e-07
-4.72775e-06
4.80398e-06
3.1792e-05
8.50167e-07
-5.95639e-06
6.01859e-06
3.10405e-05
1.12536e-06
-7.23519e-06
7.28572e-06
3.01278e-05
1.37787e-06
-8.71906e-06
8.7622e-06
2.90736e-05
1.59113e-06
-1.05244e-05
1.05618e-05
2.79146e-05
1.73999e-06
-1.27492e-05
1.27796e-05
2.67047e-05
1.79008e-06
-1.54938e-05
1.55165e-05
2.55113e-05
1.69308e-06
-1.88826e-05
1.8907e-05
2.44089e-05
1.37127e-06
-2.30882e-05
2.31529e-05
2.34492e-05
6.99555e-07
-2.83428e-05
2.85684e-05
2.25409e-05
-5.07106e-07
-3.48503e-05
3.5603e-05
2.09744e-05
-2.34073e-06
-4.21728e-05
4.45615e-05
1.59144e-05
-3.72532e-06
-4.69579e-05
5.39135e-05
-1.76166e-06
-3.46387e-05
5.20018e-05
5.13439e-05
7.2937e-11
-1.14159e-06
1.20846e-06
5.10677e-05
3.96746e-07
-3.08294e-06
3.21028e-06
5.06308e-05
8.48822e-07
-4.73948e-06
4.88487e-06
5.00235e-05
1.30964e-06
-6.28053e-06
6.42835e-06
4.92298e-05
1.76641e-06
-7.87944e-06
8.03211e-06
4.82321e-05
2.20743e-06
-9.70005e-06
9.86818e-06
4.70194e-05
2.60995e-06
-1.18896e-05
1.20834e-05
4.55927e-05
2.94141e-06
-1.45796e-05
1.48049e-05
4.39644e-05
3.15862e-06
-1.78983e-05
1.81581e-05
4.21485e-05
3.2045e-06
-2.19924e-05
2.22968e-05
4.01409e-05
2.98925e-06
-2.70558e-05
2.74454e-05
3.78653e-05
2.36804e-06
-3.33617e-05
3.39688e-05
3.50165e-05
1.09065e-06
-4.12105e-05
4.24615e-05
3.05146e-05
-1.15176e-06
-5.02707e-05
5.35837e-05
2.11732e-05
-3.64432e-06
-5.65206e-05
6.57809e-05
-2.95442e-06
-4.17034e-05
6.39694e-05
6.66172e-05
-3.3697e-09
-8.95616e-07
9.55621e-07
6.63775e-05
5.04127e-07
-2.56851e-06
2.70085e-06
6.59947e-05
1.06432e-06
-4.11955e-06
4.28681e-06
6.54707e-05
1.65036e-06
-5.63796e-06
5.82122e-06
6.47868e-05
2.2511e-06
-7.23922e-06
7.43848e-06
6.39081e-05
2.85698e-06
-9.06136e-06
9.29051e-06
6.27905e-05
3.44963e-06
-1.12549e-05
1.15328e-05
6.13874e-05
4.00207e-06
-1.39726e-05
1.43151e-05
5.96525e-05
4.47691e-06
-1.73701e-05
1.77867e-05
5.75297e-05
4.82741e-06
-2.16198e-05
2.21197e-05
5.49283e-05
4.97715e-06
-2.69378e-05
2.75513e-05
5.16477e-05
4.80879e-06
-3.36292e-05
3.44691e-05
4.72082e-05
4.08584e-06
-4.21273e-05
4.35716e-05
4.01085e-05
2.37689e-06
-5.24655e-05
5.60365e-05
2.65301e-05
-3.24815e-07
-6.07002e-05
7.09591e-05
-2.01519e-06
-4.5963e-05
7.13914e-05
7.88298e-05
-1.78147e-08
-7.40046e-07
7.9023e-07
7.86323e-05
5.83165e-07
-2.15145e-06
2.2699e-06
7.83151e-05
1.2248e-06
-3.49807e-06
3.65483e-06
7.78914e-05
1.89785e-06
-4.85116e-06
5.02734e-06
7.73493e-05
2.60059e-06
-6.29636e-06
6.48892e-06
7.6651e-05
3.33288e-06
-7.94581e-06
8.16823e-06
7.57339e-05
4.09013e-06
-9.94053e-06
1.02171e-05
7.45154e-05
4.86395e-06
-1.2443e-05
1.27996e-05
7.2897e-05
5.63891e-06
-1.56336e-05
1.609e-05
7.07545e-05
6.4008e-06
-1.97182e-05
2.02873e-05
6.79174e-05
7.11195e-06
-2.49492e-05
2.56515e-05
6.40661e-05
7.73367e-06
-3.16727e-05
3.25991e-05
5.85829e-05
8.11161e-06
-4.04135e-05
4.1871e-05
4.95332e-05
7.97853e-06
-5.17143e-05
5.51624e-05
3.2167e-05
6.49847e-06
-6.20937e-05
7.26367e-05
2.12555e-06
-4.8527e-05
7.63177e-05
8.79807e-05
-3.21648e-08
-6.38917e-07
6.81934e-07
8.7818e-05
6.43217e-07
-1.85827e-06
1.96089e-06
8.75613e-05
1.34469e-06
-3.02186e-06
3.15872e-06
8.72302e-05
2.07615e-06
-4.19654e-06
4.34925e-06
8.68216e-05
2.84695e-06
-5.45394e-06
5.61624e-06
8.63032e-05
3.66922e-06
-6.88659e-06
7.06867e-06
8.56101e-05
4.55606e-06
-8.62027e-06
8.84741e-06
8.46445e-05
5.5246e-06
-1.08144e-05
1.11194e-05
8.3279e-05
6.59175e-06
-1.36615e-05
1.40742e-05
8.1344e-05
7.79403e-06
-1.73921e-05
1.79338e-05
7.86144e-05
9.15322e-06
-2.2292e-05
2.29803e-05
7.46719e-05
1.07672e-05
-2.8754e-05
2.9663e-05
6.88095e-05
1.25977e-05
-3.73344e-05
3.87108e-05
5.87748e-05
1.48826e-05
-4.90537e-05
5.21844e-05
3.83548e-05
1.66664e-05
-6.14049e-05
7.1657e-05
1.05858e-05
-4.9478e-05
7.90576e-05
9.40737e-05
-3.91968e-08
-5.673e-07
6.05925e-07
9.39395e-05
6.87077e-07
-1.64841e-06
1.73867e-06
9.374e-05
1.42532e-06
-2.67056e-06
2.78942e-06
9.3498e-05
2.18894e-06
-3.6957e-06
3.82491e-06
9.32169e-05
2.99756e-06
-4.78655e-06
4.91709e-06
9.28732e-05
3.87501e-06
-6.02068e-06
6.15856e-06
9.24097e-05
4.85137e-06
-7.50694e-06
7.67515e-06
9.17321e-05
5.96868e-06
-9.3914e-06
9.62491e-06
9.07113e-05
7.27677e-06
-1.18607e-05
1.21964e-05
8.91723e-05
8.86594e-06
-1.51476e-05
1.56147e-05
8.68844e-05
1.08229e-05
-1.95422e-05
2.01604e-05
8.34066e-05
1.34208e-05
-2.54562e-05
2.62804e-05
7.79815e-05
1.67806e-05
-3.34061e-05
3.46483e-05
6.83239e-05
2.18809e-05
-4.46658e-05
4.73251e-05
4.64332e-05
2.92016e-05
-5.84344e-05
6.77898e-05
2.59364e-05
-4.81746e-05
7.88605e-05
9.71129e-05
-5.13972e-07
5.4982e-07
-3.47886e-08
9.70039e-05
-1.49227e-06
1.57411e-06
7.14297e-07
9.68621e-05
-2.40647e-06
2.512e-06
1.46154e-06
9.67126e-05
-3.31263e-06
3.4235e-06
2.22764e-06
9.65639e-05
-4.26641e-06
4.37193e-06
3.04065e-06
9.64017e-05
-5.33419e-06
5.43737e-06
3.93406e-06
9.61803e-05
-6.60957e-06
6.73056e-06
4.95179e-06
9.58215e-05
-8.22042e-06
8.39332e-06
6.15462e-06
9.52162e-05
-1.03341e-05
1.05982e-05
7.61796e-06
9.42281e-05
-1.31595e-05
1.35472e-05
9.46635e-06
9.26817e-05
-1.69543e-05
1.74886e-05
1.1835e-05
9.02958e-05
-2.20727e-05
2.2779e-05
1.51004e-05
8.64325e-05
-2.89402e-05
3.00037e-05
1.95805e-05
7.92783e-05
-3.84471e-05
4.04224e-05
2.70598e-05
6.03873e-05
-5.24986e-05
5.97062e-05
4.0885e-05
-4.3002e-05
7.17883e-05
5.70594e-05
1.26628e-05
-8.75602e-08
-1.14211e-06
1.25084e-05
5.06939e-08
-2.07028e-06
1.21995e-05
1.89736e-07
-2.62805e-06
1.17709e-05
2.9841e-07
-3.11756e-06
1.12368e-05
3.90099e-07
-3.65879e-06
1.06045e-05
4.68399e-07
-4.31742e-06
9.88551e-06
5.26644e-07
-5.14011e-06
9.10066e-06
5.52086e-07
-6.1682e-06
8.28233e-06
5.25471e-07
-7.44637e-06
7.47576e-06
4.17748e-07
-9.02908e-06
6.74024e-06
1.81757e-07
-1.09842e-05
6.13969e-06
-2.55985e-07
-1.33812e-05
5.69241e-06
-9.9045e-07
-1.62177e-05
5.14712e-06
-1.99137e-06
-1.91359e-05
3.47551e-06
-2.71877e-06
-2.04746e-05
-1.97135e-06
-1.44945e-05
3.53245e-05
-4.57564e-08
-1.32078e-06
3.49606e-05
2.0591e-07
-3.12012e-06
3.43764e-05
5.05786e-07
-4.4596e-06
3.35694e-05
7.91101e-07
-5.6421e-06
3.2536e-05
1.05792e-06
-6.86961e-06
3.12722e-05
1.30039e-06
-8.28729e-06
2.97814e-05
1.4993e-06
-1.00062e-05
2.80782e-05
1.62459e-06
-1.21185e-05
2.61879e-05
1.6343e-06
-1.47123e-05
2.4139e-05
1.46861e-06
-1.78846e-05
2.19498e-05
1.03197e-06
-2.17492e-05
1.95864e-05
1.79731e-07
-2.64152e-05
1.68807e-05
-1.31942e-06
-3.18155e-05
1.32814e-05
-3.50999e-06
-3.70549e-05
7.46834e-06
-5.41448e-06
-3.84491e-05
-4.27828e-06
-2.49267e-05
5.49176e-05
-2.32149e-08
-1.04283e-06
5.45358e-05
3.55676e-07
-2.85085e-06
5.39236e-05
7.9586e-07
-4.41743e-06
5.30721e-05
1.24764e-06
-5.8855e-06
5.19608e-05
1.6963e-06
-7.40658e-06
5.05614e-05
2.12898e-06
-9.12922e-06
4.88432e-05
2.51941e-06
-1.11915e-05
4.67783e-05
2.82824e-06
-1.37184e-05
4.43399e-05
3.0016e-06
-1.68272e-05
4.14883e-05
2.96652e-06
-2.06387e-05
3.81419e-05
2.60903e-06
-2.52865e-05
3.41185e-05
1.7479e-06
-3.09065e-05
2.8976e-05
1.07595e-07
-3.7495e-05
2.1866e-05
-2.61215e-06
-4.40585e-05
1.1397e-05
-5.46208e-06
-4.6004e-05
-5.16142e-06
-2.95367e-05
7.12695e-05
-2.84395e-08
-8.13113e-07
7.09416e-05
4.71494e-07
-2.35649e-06
7.04013e-05
1.02579e-06
-3.80917e-06
6.96478e-05
1.60815e-06
-5.24491e-06
6.86578e-05
2.20744e-06
-6.76038e-06
6.73871e-05
2.8139e-06
-8.47555e-06
6.57721e-05
3.40658e-06
-1.05271e-05
6.37335e-05
3.95269e-06
-1.30584e-05
6.11752e-05
4.40511e-06
-1.62154e-05
5.79686e-05
4.70281e-06
-2.01496e-05
5.39167e-05
4.7478e-06
-2.50247e-05
4.86631e-05
4.39015e-06
-3.10179e-05
4.15337e-05
3.35176e-06
-3.82421e-05
3.11761e-05
1.2358e-06
-4.59559e-05
1.58664e-05
-1.65055e-06
-4.9202e-05
-3.33995e-06
-3.20949e-05
8.4342e-05
-4.61575e-08
-6.7132e-07
8.40713e-05
5.59789e-07
-1.969e-06
8.36171e-05
1.20591e-06
-3.224e-06
8.29872e-05
1.8856e-06
-4.49875e-06
8.21644e-05
2.59874e-06
-5.86487e-06
8.11028e-05
3.34643e-06
-7.41675e-06
7.97232e-05
4.12354e-06
-9.27786e-06
7.79102e-05
4.91919e-06
-1.15965e-05
7.55099e-05
5.71307e-06
-1.45413e-05
7.23102e-05
6.48428e-06
-1.83e-05
6.80046e-05
7.18551e-06
-2.30814e-05
6.20761e-05
7.7614e-06
-2.91154e-05
5.36159e-05
8.04354e-06
-3.66451e-05
4.07369e-05
7.73853e-06
-4.53381e-05
2.09002e-05
6.32661e-06
-5.02341e-05
2.27706e-06
-3.34935e-05
9.41358e-05
-6.33327e-08
-5.79867e-07
9.39105e-05
6.27787e-07
-1.70087e-06
9.35342e-05
1.34454e-06
-2.78422e-06
9.30197e-05
2.09428e-06
-3.89071e-06
9.2357e-05
2.88939e-06
-5.08191e-06
9.1507e-05
3.74456e-06
-6.43474e-06
9.03916e-05
4.67475e-06
-8.05606e-06
8.88841e-05
5.69911e-06
-1.00868e-05
8.68025e-05
6.83653e-06
-1.27034e-05
8.38835e-05
8.12886e-06
-1.61176e-05
7.97489e-05
9.60671e-06
-2.05785e-05
7.37472e-05
1.138e-05
-2.6371e-05
6.48226e-05
1.34532e-05
-3.38195e-05
5.05467e-05
1.60438e-05
-4.3083e-05
2.68205e-05
1.83276e-05
-4.96798e-05
1.30817e-05
-3.37902e-05
0.000100657
-7.16239e-08
-5.1473e-07
0.000100467
6.78529e-07
-1.50946e-06
0.000100162
1.44114e-06
-2.462e-06
9.97562e-05
2.23353e-06
-3.42939e-06
9.92465e-05
3.07937e-06
-4.46687e-06
9.86031e-05
4.00634e-06
-5.63906e-06
9.77588e-05
5.04862e-06
-7.0365e-06
9.65966e-05
6.25469e-06
-8.78473e-06
9.49404e-05
7.6831e-06
-1.10511e-05
9.25265e-05
9.44292e-06
-1.40478e-05
8.89771e-05
1.1648e-05
-1.8034e-05
8.35962e-05
1.46294e-05
-2.33247e-05
7.52894e-05
1.86019e-05
-3.0248e-05
6.132e-05
2.47274e-05
-3.938e-05
3.52809e-05
3.34466e-05
-4.75143e-05
3.24971e-05
-3.27179e-05
0.000103909
-4.65821e-07
-6.64708e-08
0.00010375
-1.36639e-06
7.12112e-07
0.000103513
-2.21948e-06
1.49057e-06
0.000103217
-3.07676e-06
2.29362e-06
0.000102864
-3.98779e-06
3.15408e-06
0.000102434
-5.00797e-06
4.11015e-06
0.000101875
-6.21407e-06
5.21163e-06
0.000101094
-7.71372e-06
6.52913e-06
9.99461e-05
-9.65444e-06
8.15165e-06
9.82219e-05
-1.22255e-05
1.02331e-05
9.56309e-05
-1.56598e-05
1.29445e-05
9.16566e-05
-2.02409e-05
1.67719e-05
8.54125e-05
-2.62344e-05
2.21402e-05
7.44202e-05
-3.41803e-05
3.14529e-05
5.10364e-05
-4.35264e-05
4.78581e-05
-2.96387e-05
6.96807e-05
1.33436e-05
-1.04711e-07
-1.0329e-06
1.31268e-05
2.59444e-08
-1.87939e-06
1.273e-05
1.62031e-07
-2.39329e-06
1.21904e-05
2.67813e-07
-2.84577e-06
1.15213e-05
3.54675e-07
-3.34441e-06
1.07256e-05
4.26468e-07
-3.94813e-06
9.80802e-06
4.75752e-07
-4.69831e-06
8.78128e-06
4.88305e-07
-5.62977e-06
7.66856e-06
4.42784e-07
-6.77643e-06
6.50523e-06
3.07767e-07
-8.17351e-06
5.34221e-06
3.34785e-08
-9.85464e-06
4.244e-06
-4.51438e-07
-1.18316e-05
3.27387e-06
-1.23496e-06
-1.40126e-05
2.38793e-06
-2.28542e-06
-1.59645e-05
1.29543e-06
-3.15986e-06
-1.62223e-05
-2.51097e-06
-1.07121e-05
3.72753e-05
-6.63753e-08
-1.17357e-06
3.68092e-05
1.66928e-07
-2.79503e-06
3.60689e-05
4.57035e-07
-4.01432e-06
3.50548e-05
7.3432e-07
-5.09448e-06
3.37604e-05
9.9195e-07
-6.21254e-06
3.2174e-05
1.22299e-06
-7.49738e-06
3.02861e-05
1.40565e-06
-9.04821e-06
2.80958e-05
1.50535e-06
-1.09452e-05
2.56112e-05
1.47361e-06
-1.32585e-05
2.28446e-05
1.24259e-06
-1.60528e-05
1.98039e-05
7.08863e-07
-1.93839e-05
1.64778e-05
-2.82675e-07
-2.32578e-05
1.28108e-05
-1.9323e-06
-2.74511e-05
8.65454e-06
-4.23362e-06
-3.09504e-05
3.87234e-06
-6.28008e-06
-3.05467e-05
-5.191e-06
-1.84451e-05
5.79795e-05
-4.45644e-08
-9.15317e-07
5.75018e-05
3.1947e-07
-2.52571e-06
5.67298e-05
7.48961e-07
-3.93736e-06
5.56542e-05
1.19217e-06
-5.26768e-06
5.42512e-05
1.63249e-06
-6.64417e-06
5.24841e-05
2.0559e-06
-8.19499e-06
5.03072e-05
2.43279e-06
-1.00417e-05
4.76713e-05
2.71743e-06
-1.22945e-05
4.45231e-05
2.84638e-06
-1.50519e-05
4.07948e-05
2.73446e-06
-1.84022e-05
3.63822e-05
2.25415e-06
-2.24192e-05
3.11009e-05
1.21652e-06
-2.71244e-05
2.46384e-05
-6.49252e-07
-3.23156e-05
1.66289e-05
-3.47886e-06
-3.68037e-05
7.19394e-06
-6.36575e-06
-3.64834e-05
-6.00289e-06
-2.16545e-05
7.52563e-05
-5.13516e-08
-7.1043e-07
7.48494e-05
4.44643e-07
-2.07475e-06
7.41672e-05
9.9526e-07
-3.3733e-06
7.32054e-05
1.57537e-06
-4.66628e-06
7.19361e-05
2.1738e-06
-6.03236e-06
7.0307e-05
2.78072e-06
-7.57132e-06
6.824e-05
3.37288e-06
-9.40017e-06
6.56309e-05
3.91194e-06
-1.16439e-05
6.23484e-05
4.3417e-06
-1.44282e-05
5.82186e-05
4.58937e-06
-1.78747e-05
5.29956e-05
4.54363e-06
-2.20911e-05
4.62928e-05
4.04616e-06
-2.71447e-05
3.74972e-05
2.83351e-06
-3.29292e-05
2.57891e-05
6.61708e-07
-3.83884e-05
1.12893e-05
-2.14362e-06
-3.89242e-05
-3.70715e-06
-2.329e-05
8.90658e-05
-7.13163e-08
-5.8632e-07
8.87295e-05
5.42554e-07
-1.73053e-06
8.81528e-05
1.19568e-06
-2.84779e-06
8.73375e-05
1.88383e-06
-3.99193e-06
8.62599e-05
2.60841e-06
-5.22186e-06
8.48664e-05
3.37183e-06
-6.61434e-06
8.30646e-05
4.16869e-06
-8.27186e-06
8.07149e-05
4.98568e-06
-1.03206e-05
7.76234e-05
5.79732e-06
-1.29054e-05
7.35195e-05
6.57664e-06
-1.61833e-05
6.80224e-05
7.26958e-06
-2.03103e-05
6.0546e-05
7.82056e-06
-2.54134e-05
5.01763e-05
8.07901e-06
-3.15208e-05
3.55203e-05
7.86835e-06
-3.78888e-05
1.61376e-05
6.69992e-06
-3.96949e-05
2.79651e-06
-2.41214e-05
9.94108e-05
-9.04777e-08
-5.06587e-07
9.91288e-05
6.18876e-07
-1.49519e-06
9.86458e-05
1.35325e-06
-2.45885e-06
9.79673e-05
2.12305e-06
-3.45137e-06
9.70753e-05
2.9434e-06
-4.52495e-06
9.59229e-05
3.83168e-06
-5.74216e-06
9.44205e-05
4.80481e-06
-7.18978e-06
9.24202e-05
5.88364e-06
-8.98449e-06
8.97015e-05
7.08784e-06
-1.12752e-05
8.59378e-05
8.46258e-06
-1.42399e-05
8.06617e-05
1.00437e-05
-1.80766e-05
7.31276e-05
1.19566e-05
-2.2973e-05
6.22102e-05
1.42411e-05
-2.90641e-05
4.58305e-05
1.72121e-05
-3.60471e-05
2.21142e-05
2.0028e-05
-3.92916e-05
1.50168e-05
-2.42365e-05
0.000106298
-9.95241e-08
-4.4956e-07
0.000106058
6.76933e-07
-1.32745e-06
0.000105659
1.46602e-06
-2.17536e-06
0.000105108
2.28869e-06
-3.04396e-06
0.000104393
3.17241e-06
-3.98114e-06
0.000103477
4.14869e-06
-5.04006e-06
0.000102283
5.25567e-06
-6.29346e-06
0.000100677
6.54758e-06
-7.84293e-06
9.84512e-05
8.08963e-06
-9.82692e-06
9.52829e-05
1.00051e-05
-1.24221e-05
9.07061e-05
1.24261e-05
-1.58396e-05
8.39188e-05
1.57238e-05
-2.03044e-05
7.37351e-05
2.01691e-05
-2.59924e-05
5.75574e-05
2.7065e-05
-3.30552e-05
3.10462e-05
3.68176e-05
-3.77927e-05
3.64911e-05
-2.3567e-05
0.000109733
-4.06472e-07
-9.338e-08
0.000109528
-1.20155e-06
7.17219e-07
0.000109208
-1.96169e-06
1.5288e-06
0.000108782
-2.73266e-06
2.37004e-06
0.000108246
-3.55783e-06
3.27832e-06
0.000107574
-4.48316e-06
4.29647e-06
0.000106706
-5.57e-06
5.47968e-06
0.000105536
-6.90405e-06
6.90732e-06
0.000103898
-8.60554e-06
8.6794e-06
0.000101535
-1.08306e-05
1.09729e-05
9.80877e-05
-1.3771e-05
1.39844e-05
9.29387e-05
-1.76379e-05
1.82699e-05
8.51432e-05
-2.2583e-05
2.43131e-05
7.21427e-05
-2.88892e-05
3.47745e-05
4.78675e-05
-3.51497e-05
5.27161e-05
-2.16374e-05
7.58554e-05
1.39084e-05
-1.19939e-07
-8.81964e-07
1.36348e-05
4.11957e-09
-1.60991e-06
1.31589e-05
1.36173e-07
-2.05362e-06
1.25198e-05
2.38944e-07
-2.44554e-06
1.17305e-05
3.21027e-07
-2.87616e-06
1.07908e-05
3.86419e-07
-3.39488e-06
9.70137e-06
4.27001e-07
-4.03586e-06
8.47043e-06
4.27358e-07
-4.82619e-06
7.11835e-06
3.64723e-07
-5.78907e-06
5.68146e-06
2.06693e-07
-6.94332e-06
4.21912e-06
-9.47854e-08
-8.29752e-06
2.82387e-06
-6.08077e-07
-9.82825e-06
1.62746e-06
-1.40507e-06
-1.14111e-05
7.53717e-07
-2.44626e-06
-1.26445e-05
2.53908e-07
-3.32037e-06
-1.24021e-05
-2.62805e-06
-7.85615e-06
3.88988e-05
-8.43979e-08
-9.87739e-07
3.8342e-05
1.32425e-07
-2.36653e-06
3.74629e-05
4.1327e-07
-3.41233e-06
3.62648e-05
6.829e-07
-4.34026e-06
3.47395e-05
9.317e-07
-5.29798e-06
3.28701e-05
1.15174e-06
-6.39328e-06
3.06389e-05
1.31889e-06
-7.70892e-06
2.8036e-05
1.39473e-06
-9.3097e-06
2.50631e-05
1.32587e-06
-1.12468e-05
2.17345e-05
1.03971e-06
-1.35572e-05
1.8076e-05
4.33578e-07
-1.62538e-05
1.4139e-05
-6.44352e-07
-1.92845e-05
1.00114e-05
-2.35501e-06
-2.23736e-05
5.85698e-06
-4.64012e-06
-2.46021e-05
2.09755e-06
-6.63695e-06
-2.34707e-05
-5.46486e-06
-1.35865e-05
6.05301e-05
-6.29621e-08
-7.63077e-07
5.99686e-05
2.88582e-07
-2.12041e-06
5.90564e-05
7.08906e-07
-3.32077e-06
5.77835e-05
1.14456e-06
-4.4565e-06
5.6124e-05
1.57729e-06
-5.63018e-06
5.4035e-05
1.99209e-06
-6.94634e-06
5.14609e-05
2.35648e-06
-8.50529e-06
4.83391e-05
2.61926e-06
-1.03973e-05
4.46028e-05
2.70927e-06
-1.26989e-05
4.01762e-05
2.5332e-06
-1.5469e-05
3.49677e-05
1.95903e-06
-1.87362e-05
2.88426e-05
8.08442e-07
-2.2452e-05
2.1669e-05
-1.15521e-06
-2.63418e-05
1.34718e-05
-3.9556e-06
-2.9291e-05
5.11982e-06
-6.72462e-06
-2.80438e-05
-6.248e-06
-1.58825e-05
7.8578e-05
-7.09914e-08
-5.90303e-07
7.81024e-05
4.22904e-07
-1.73356e-06
7.72971e-05
9.71472e-07
-2.83055e-06
7.61538e-05
1.55049e-06
-3.9289e-06
7.46403e-05
2.14876e-06
-5.09027e-06
7.26981e-05
2.75656e-06
-6.39364e-06
7.02388e-05
3.34882e-06
-7.93323e-06
6.71423e-05
3.8825e-06
-9.81053e-06
6.32558e-05
4.29378e-06
-1.21262e-05
5.83836e-05
4.50127e-06
-1.49706e-05
5.22702e-05
4.38752e-06
-1.84063e-05
4.45639e-05
3.80041e-06
-2.24303e-05
3.47993e-05
2.51407e-06
-2.68339e-05
2.26135e-05
4.08807e-07
-3.0567e-05
9.0795e-06
-2.22068e-06
-2.98942e-05
-3.67328e-06
-1.69827e-05
9.30017e-05
-9.28095e-08
-4.87087e-07
9.26083e-05
5.29913e-07
-1.44414e-06
9.19258e-05
1.19105e-06
-2.38493e-06
9.09502e-05
1.88828e-06
-3.35403e-06
8.96511e-05
2.6243e-06
-4.39839e-06
8.79683e-05
3.40289e-06
-5.57787e-06
8.57996e-05
4.21873e-06
-6.97303e-06
8.29892e-05
5.05651e-06
-8.68419e-06
7.93185e-05
5.88614e-06
-1.0827e-05
7.44843e-05
6.67565e-06
-1.35235e-05
6.80766e-05
7.36712e-06
-1.68821e-05
5.95106e-05
7.91202e-06
-2.0959e-05
4.7982e-05
8.18922e-06
-2.56674e-05
3.2564e-05
8.12028e-06
-3.01823e-05
1.39281e-05
7.20406e-06
-3.04838e-05
3.3854e-06
-1.75239e-05
0.000103806
-1.13479e-07
-4.20914e-07
0.000103474
6.14173e-07
-1.24803e-06
0.000102899
1.36632e-06
-2.05901e-06
0.000102079
2.15588e-06
-2.89907e-06
0.000100989
3.0004e-06
-3.81099e-06
9.95743e-05
3.91977e-06
-4.84393e-06
9.77354e-05
4.93294e-06
-6.06511e-06
9.53104e-05
6.06231e-06
-7.56532e-06
9.20553e-05
7.3276e-06
-9.46147e-06
8.76079e-05
8.77576e-06
-1.18926e-05
8.14594e-05
1.04449e-05
-1.5006e-05
7.28429e-05
1.24733e-05
-1.89177e-05
6.06926e-05
1.49261e-05
-2.36507e-05
4.33213e-05
1.819e-05
-2.87455e-05
2.00633e-05
2.13929e-05
-3.02224e-05
1.64673e-05
-1.76061e-05
0.000110999
-1.22948e-07
-3.73426e-07
0.000110715
6.79284e-07
-1.10837e-06
0.000110234
1.49425e-06
-1.82235e-06
0.000109557
2.34601e-06
-2.55796e-06
0.000108666
3.26542e-06
-3.35504e-06
0.000107515
4.2875e-06
-4.25599e-06
0.000106017
5.45404e-06
-5.31698e-06
0.000104028
6.82417e-06
-6.61574e-06
0.00010132
8.46785e-06
-8.25899e-06
9.75387e-05
1.05181e-05
-1.03834e-05
9.21767e-05
1.3117e-05
-1.31496e-05
8.43981e-05
1.66601e-05
-1.67126e-05
7.3041e-05
2.14428e-05
-2.1152e-05
5.57673e-05
2.88367e-05
-2.64283e-05
2.93836e-05
3.92022e-05
-2.92183e-05
3.90839e-05
-1.72319e-05
0.000114586
-3.3738e-07
-1.15732e-07
0.000114341
-1.00319e-06
7.26024e-07
0.000113948
-1.64374e-06
1.56957e-06
0.000113412
-2.29738e-06
2.44709e-06
0.000112719
-3.00038e-06
3.40011e-06
0.000111838
-3.78978e-06
4.47565e-06
0.000110701
-4.71299e-06
5.73365e-06
0.000109196
-5.83485e-06
7.26076e-06
0.00010714
-7.24689e-06
9.16521e-06
0.000104255
-9.06859e-06
1.16406e-05
0.00010015
-1.14468e-05
1.48977e-05
9.41724e-05
-1.45336e-05
1.95333e-05
8.5392e-05
-1.84077e-05
2.6048e-05
7.13403e-05
-2.32151e-05
3.72144e-05
4.68531e-05
-2.7461e-05
5.60006e-05
-1.59756e-05
7.97619e-05
1.43579e-05
-1.32431e-07
-6.95071e-07
1.4037e-05
-1.74646e-08
-1.27152e-06
1.34933e-05
1.14097e-07
-1.62401e-06
1.27698e-05
2.13747e-07
-1.93582e-06
1.18796e-05
2.9155e-07
-2.27747e-06
1.08206e-05
3.51315e-07
-2.68715e-06
9.5911e-06
3.84378e-07
-3.19078e-06
8.19819e-06
3.74456e-07
-3.80774e-06
6.66359e-06
2.97895e-07
-4.55237e-06
5.03037e-06
1.22317e-07
-5.43241e-06
3.37327e-06
-1.97606e-07
-6.44281e-06
1.81704e-06
-7.25301e-07
-7.54672e-06
5.50581e-07
-1.51881e-06
-8.62585e-06
-1.87096e-07
-2.52644e-06
-9.38038e-06
-2.83356e-07
-3.3474e-06
-8.95845e-06
-2.61814e-06
-5.54872e-06
4.01968e-05
-9.93962e-08
-7.69909e-07
3.95626e-05
1.03056e-07
-1.85284e-06
3.85671e-05
3.76324e-07
-2.67904e-06
3.72143e-05
6.39225e-07
-3.41287e-06
3.54959e-05
8.80305e-07
-4.16838e-06
3.33919e-05
1.0908e-06
-5.02881e-06
3.08803e-05
1.24473e-06
-6.05765e-06
2.79475e-05
1.30065e-06
-7.30309e-06
2.45965e-05
1.20168e-06
-8.79949e-06
2.08531e-05
8.73059e-07
-1.05646e-05
1.67709e-05
2.19942e-07
-1.25892e-05
1.24692e-05
-9.10377e-07
-1.47979e-05
8.15092e-06
-2.63259e-06
-1.69415e-05
4.1699e-06
-4.85169e-06
-1.82959e-05
1.15697e-06
-6.74239e-06
-1.70628e-05
-5.49511e-06
-9.63203e-06
6.25699e-05
-7.80971e-08
-5.90576e-07
6.19386e-05
2.63362e-07
-1.64946e-06
6.09096e-05
6.76254e-07
-2.59168e-06
5.94724e-05
1.10569e-06
-3.4857e-06
5.7599e-05
1.53206e-06
-4.40863e-06
5.52434e-05
1.93969e-06
-5.43961e-06
5.2344e-05
2.29381e-06
-6.65495e-06
4.88312e-05
2.53892e-06
-8.12266e-06
4.46337e-05
2.59805e-06
-9.89782e-06
3.96804e-05
2.37303e-06
-1.20158e-05
3.39091e-05
1.73275e-06
-1.44776e-05
2.72417e-05
5.17892e-07
-1.72129e-05
1.97062e-05
-1.48035e-06
-1.99585e-05
1.1577e-05
-4.19821e-06
-2.18153e-05
4.02007e-06
-6.81337e-06
-2.04159e-05
-6.24934e-06
-1.12446e-05
8.12348e-05
-8.707e-08
-4.55772e-07
8.07025e-05
4.05856e-07
-1.34382e-06
7.97954e-05
9.53481e-07
-2.20067e-06
7.85019e-05
1.53223e-06
-3.06192e-06
7.6786e-05
2.13086e-06
-3.97319e-06
7.45851e-05
2.73989e-06
-4.99287e-06
7.18038e-05
3.33301e-06
-6.19123e-06
6.8313e-05
3.86352e-06
-7.64428e-06
6.39494e-05
4.26168e-06
-9.42625e-06
5.85109e-05
4.44023e-06
-1.15994e-05
5.1753e-05
4.27989e-06
-1.41954e-05
4.33813e-05
3.64024e-06
-1.7181e-05
3.30671e-05
2.33269e-06
-2.03327e-05
2.07601e-05
3.24508e-07
-2.27828e-05
7.94026e-06
-2.12037e-06
-2.17673e-05
-3.50515e-06
-1.1991e-05
9.61499e-05
-1.10349e-07
-3.76028e-07
9.57093e-05
5.20836e-07
-1.1185e-06
9.49396e-05
1.1898e-06
-1.85158e-06
9.38319e-05
1.89566e-06
-2.60973e-06
9.23505e-05
2.64217e-06
-3.42829e-06
9.04293e-05
3.43435e-06
-4.35116e-06
8.79594e-05
4.26723e-06
-5.43731e-06
8.47752e-05
5.12409e-06
-6.76064e-06
8.06451e-05
5.9711e-06
-8.40629e-06
7.52514e-05
6.77238e-06
-1.0462e-05
6.818e-05
7.46758e-06
-1.29984e-05
5.88768e-05
8.01624e-06
-1.60318e-05
4.66577e-05
8.32471e-06
-1.94404e-05
3.09225e-05
8.38405e-06
-2.25066e-05
1.28478e-05
7.67773e-06
-2.22072e-05
3.89686e-06
-1.23578e-05
0.000107321
-1.32153e-07
-3.24954e-07
0.000106949
6.12086e-07
-9.66798e-07
0.000106298
1.38043e-06
-1.59849e-06
0.000105362
2.18782e-06
-2.25525e-06
0.000104109
3.05374e-06
-2.97e-06
0.000102479
4.00028e-06
-3.77914e-06
0.000100364
5.04825e-06
-4.73146e-06
9.7594e-05
6.22146e-06
-5.89274e-06
9.3912e-05
7.53937e-06
-7.3478e-06
8.89395e-05
9.04948e-06
-9.19718e-06
8.21546e-05
1.079e-05
-1.15434e-05
7.2801e-05
1.29067e-05
-1.44546e-05
5.98993e-05
1.54804e-05
-1.79046e-05
4.2048e-05
1.89446e-05
-2.14548e-05
1.91445e-05
2.24148e-05
-2.20559e-05
1.75113e-05
-1.24355e-05
0.000114759
-1.41836e-07
-2.88213e-07
0.000114438
6.83461e-07
-8.58803e-07
0.00011389
1.52158e-06
-1.41521e-06
0.000113111
2.39911e-06
-1.99052e-06
0.000112075
3.34976e-06
-2.61568e-06
0.000110731
4.41149e-06
-3.32256e-06
0.000108985
5.62917e-06
-4.15196e-06
0.000106684
7.06592e-06
-5.15956e-06
0.000103591
8.79484e-06
-6.42162e-06
9.93384e-05
1.09552e-05
-8.03616e-06
9.34029e-05
1.36926e-05
-1.01168e-05
8.4948e-05
1.74155e-05
-1.27664e-05
7.28667e-05
2.24241e-05
-1.60144e-05
5.50226e-05
3.01233e-05
-1.97629e-05
2.87631e-05
4.08629e-05
-2.14069e-05
4.08456e-05
-1.22442e-05
0.000118468
-2.60238e-07
-1.33599e-07
0.00011819
-7.77261e-07
7.35934e-07
0.000117737
-1.27672e-06
1.60784e-06
0.000117109
-1.78832e-06
2.51726e-06
0.00011629
-2.3403e-06
3.5092e-06
0.000115238
-2.96071e-06
4.63422e-06
0.000113882
-3.68417e-06
5.9561e-06
0.000112103
-4.55682e-06
7.56725e-06
0.000109713
-5.64335e-06
9.58153e-06
0.000106424
-7.02866e-06
1.22038e-05
0.000101836
-8.81682e-06
1.56504e-05
9.52907e-05
-1.1113e-05
2.05406e-05
8.58935e-05
-1.3955e-05
2.73686e-05
7.12587e-05
-1.74211e-05
3.89641e-05
4.66772e-05
-2.02553e-05
5.82388e-05
-1.14273e-05
8.24514e-05
1.46936e-05
-1.42025e-07
-4.795e-07
1.43359e-05
-3.51839e-08
-8.78566e-07
1.37387e-05
9.6518e-08
-1.12335e-06
1.29494e-05
1.93309e-07
-1.33983e-06
1.19809e-05
2.67529e-07
-1.57648e-06
1.08303e-05
3.2268e-07
-1.85925e-06
9.49519e-06
3.49712e-07
-2.20542e-06
7.98301e-06
3.31745e-07
-2.6273e-06
6.31878e-06
2.44624e-07
-3.13276e-06
4.55386e-06
5.62592e-08
-3.72375e-06
2.77855e-06
-2.76024e-07
-4.39148e-06
1.14533e-06
-8.10183e-07
-5.10332e-06
-1.09211e-07
-1.59563e-06
-5.77568e-06
-7.53499e-07
-2.55568e-06
-6.18041e-06
-5.51801e-07
-3.34127e-06
-5.81887e-06
-2.57565e-06
-3.55313e-06
4.11694e-05
-1.10958e-07
-5.27044e-07
4.04744e-05
8.02084e-08
-1.27322e-06
3.93884e-05
3.47484e-07
-1.84403e-06
3.79153e-05
6.0494e-07
-2.35139e-06
3.60475e-05
8.39795e-07
-2.87285e-06
3.37635e-05
1.0427e-06
-3.46481e-06
3.10393e-05
1.1863e-06
-4.17007e-06
2.78613e-05
1.22701e-06
-5.02029e-06
2.4237e-05
1.10551e-06
-6.03611e-06
2.0206e-05
7.47013e-07
-7.22429e-06
1.58518e-05
5.86143e-08
-8.56964e-06
1.13433e-05
-1.09466e-06
-1.00048e-05
6.96402e-06
-2.80887e-06
-1.1349e-05
3.17425e-06
-4.95536e-06
-1.21064e-05
6.48593e-07
-6.74652e-06
-1.11319e-05
-5.44984e-06
-6.19108e-06
6.40989e-05
-8.96404e-08
-4.02185e-07
6.34136e-05
2.4427e-07
-1.12822e-06
6.22943e-05
6.51563e-07
-1.77647e-06
6.073e-05
1.07629e-06
-2.39265e-06
5.86917e-05
1.49779e-06
-3.02839e-06
5.61314e-05
1.89992e-06
-3.73653e-06
5.29845e-05
2.24639e-06
-4.56816e-06
4.91789e-05
2.47852e-06
-5.56852e-06
4.46441e-05
2.51523e-06
-6.77276e-06
3.93196e-05
2.25542e-06
-8.19974e-06
3.31706e-05
1.57017e-06
-9.84019e-06
2.61692e-05
3.26055e-07
-1.16321e-05
1.84618e-05
-1.6817e-06
-1.33783e-05
1.0461e-05
-4.31328e-06
-1.44566e-05
3.43103e-06
-6.79438e-06
-1.3338e-05
-6.17537e-06
-7.22808e-06
8.32267e-05
-9.93068e-08
-3.09795e-07
8.26507e-05
3.93376e-07
-9.16897e-07
8.16653e-05
9.40764e-07
-1.50442e-06
8.02562e-05
1.51977e-06
-2.09637e-06
7.83849e-05
2.11907e-06
-2.72312e-06
7.59855e-05
2.72945e-06
-3.42298e-06
7.29591e-05
3.32389e-06
-4.24232e-06
6.91717e-05
3.85307e-06
-5.23143e-06
6.44565e-05
4.24295e-06
-6.43876e-06
5.86129e-05
4.40237e-06
-7.90276e-06
5.14128e-05
4.21211e-06
-9.63727e-06
4.26205e-05
3.54428e-06
-1.16069e-05
3.20013e-05
2.23667e-06
-1.36319e-05
1.96992e-05
3.15178e-07
-1.51092e-05
7.34841e-06
-1.98194e-06
-1.42289e-05
-3.32693e-06
-7.70017e-06
9.85105e-05
-1.23687e-07
-2.55517e-07
9.80333e-05
5.14699e-07
-7.62703e-07
9.71966e-05
1.1904e-06
-1.26453e-06
9.59877e-05
1.90365e-06
-1.7847e-06
9.43668e-05
2.65891e-06
-2.34715e-06
9.22634e-05
3.46223e-06
-2.98059e-06
8.95642e-05
4.30913e-06
-3.72337e-06
8.60985e-05
5.18198e-06
-4.62381e-06
8.16283e-05
6.04418e-06
-5.7374e-06
7.58324e-05
6.85682e-06
-7.12044e-06
6.83031e-05
7.55779e-06
-8.81484e-06
5.85224e-05
8.1133e-06
-1.08201e-05
4.58995e-05
8.45002e-06
-1.30308e-05
3.00357e-05
8.60552e-06
-1.49332e-05
1.23201e-05
8.0542e-06
-1.45277e-05
4.28538e-06
-7.93542e-06
0.000109958
-1.46312e-07
-2.20789e-07
0.000109553
6.1152e-07
-6.59338e-07
0.000108844
1.3932e-06
-1.09167e-06
0.000107819
2.21521e-06
-1.54201e-06
0.000106442
3.09848e-06
-2.03302e-06
0.000104647
4.06678e-06
-2.58872e-06
0.000102323
5.14252e-06
-3.2407e-06
9.92934e-05
6.35066e-06
-4.03144e-06
9.52951e-05
7.71026e-06
-5.01566e-06
8.99443e-05
9.26865e-06
-6.25815e-06
8.27191e-05
1.10627e-05
-7.82313e-06
7.28839e-05
1.32419e-05
-9.74808e-06
5.95311e-05
1.58956e-05
-1.19975e-05
4.14391e-05
1.94872e-05
-1.42444e-05
1.87491e-05
2.31366e-05
-1.44483e-05
1.82316e-05
-7.99858e-06
0.000117578
-1.56097e-07
-1.95778e-07
0.000117229
6.87924e-07
-5.8578e-07
0.000116629
1.54484e-06
-9.66722e-07
0.000115772
2.44322e-06
-1.36128e-06
0.000114626
3.41889e-06
-1.79089e-06
0.000113135
4.51211e-06
-2.2768e-06
0.000111201
5.77013e-06
-2.84549e-06
0.000108666
7.25906e-06
-3.53266e-06
0.000105288
9.05389e-06
-4.38696e-06
0.000100694
1.12975e-05
-5.47112e-06
9.43609e-05
1.41357e-05
-6.85701e-06
8.54624e-05
1.79821e-05
-8.60803e-06
7.294e-05
2.31344e-05
-1.07308e-05
5.47867e-05
3.10138e-05
-1.31361e-05
2.85858e-05
4.1986e-05
-1.40554e-05
4.20299e-05
-7.90489e-06
0.000121379
-1.76707e-07
-1.47005e-07
0.000121075
-5.3015e-07
7.4501e-07
0.000120576
-8.72238e-07
1.63982e-06
0.000119879
-1.22328e-06
2.57485e-06
0.000118963
-1.60285e-06
3.5978e-06
0.000117782
-2.02979e-06
4.76197e-06
0.00011626
-2.52662e-06
6.13399e-06
0.000114275
-3.12289e-06
7.81047e-06
0.000111636
-3.85948e-06
9.90884e-06
0.000108055
-4.79046e-06
1.26409e-05
0.000103131
-5.98141e-06
1.62242e-05
9.62104e-05
-7.4997e-06
2.12891e-05
8.64335e-05
-9.35967e-06