/*--------------------------------*- C++ -*----------------------------------*\
| =========                 |                                                 |
| \\      /  F ield         | foam-extend: Open Source CFD                    |
|  \\    /   O peration     | Version:     3.1                                |
|   \\  /    A nd           | Web:         http://www.extend-project.de       |
|    \\/     M anipulation  |                                                 |
\*---------------------------------------------------------------------------*/
FoamFile
{
    version     2.0;
    format      ascii;
    class       pointVectorField;
    location    "3.8";
    object      pointMotionU;
}
// * * * * * * * * * * * * * * * * * * * * * * * * * * * * * * * * * * * * * //

dimensions      [0 1 -1 0 0 0 0];

internalField   nonuniform List<vector> 
16859
(
(0 0 0)
(0 0 0)
(0 0 0)
(0 0 0)
(0 0 0)
(0 0 0)
(0 0 0)
(0 0 0)
(0 0 0)
(0 0 0)
(0 0 0)
(0 0 0)
(0 0 0)
(0 0 0)
(0 0 0)
(0 0 0)
(0 0 0)
(0 0 0)
(-5.73514e-12 -8.01423e-12 1.23863e-11)
(-1.1165e-11 -1.56507e-11 2.45849e-11)
(-1.63698e-11 -2.30315e-11 3.71569e-11)
(-2.16213e-11 -3.04735e-11 5.09787e-11)
(-2.72226e-11 -3.82262e-11 6.68934e-11)
(-3.35502e-11 -4.64629e-11 8.57547e-11)
(-4.11127e-11 -5.52482e-11 1.08447e-10)
(-5.06434e-11 -6.44683e-11 1.35866e-10)
(-6.32586e-11 -7.36913e-11 1.68841e-10)
(-8.0743e-11 -8.19277e-11 2.0794e-10)
(-1.06076e-10 -8.72486e-11 2.53065e-10)
(-1.44379e-10 -8.62596e-11 3.0273e-10)
(-2.04302e-10 -7.36655e-11 3.52879e-10)
(-2.98349e-10 -4.29991e-11 3.95519e-10)
(-4.32187e-10 8.29075e-12 4.18306e-10)
(-1.23409e-09 2.6461e-10 3.66202e-10)
(0 0 0)
(-1.12975e-11 -1.56992e-11 2.43772e-11)
(-2.19771e-11 -3.06576e-11 4.83699e-11)
(-3.21814e-11 -4.51171e-11 7.3071e-11)
(-4.24246e-11 -5.97055e-11 1.00194e-10)
(-5.32713e-11 -7.49268e-11 1.31385e-10)
(-6.54099e-11 -9.11525e-11 1.68318e-10)
(-7.97502e-11 -1.08581e-10 2.12738e-10)
(-9.75719e-11 -1.27128e-10 2.66453e-10)
(-1.20764e-10 -1.46222e-10 3.31224e-10)
(-1.52228e-10 -1.6444e-10 4.08463e-10)
(-1.96568e-10 -1.78931e-10 4.98613e-10)
(-2.6118e-10 -1.84628e-10 5.99969e-10)
(-3.57503e-10 -1.73545e-10 7.06685e-10)
(-4.99856e-10 -1.35594e-10 8.06085e-10)
(-6.89972e-10 -6.49126e-11 8.75863e-10)
(-1.61148e-09 3.52296e-10 9.51138e-10)
(0 0 0)
(-1.65443e-11 -2.27558e-11 3.56316e-11)
(-3.2147e-11 -4.44352e-11 7.06651e-11)
(-4.69805e-11 -6.53922e-11 1.06668e-10)
(-6.17513e-11 -8.65504e-11 1.46114e-10)
(-7.72163e-11 -1.08668e-10 1.9138e-10)
(-9.42699e-11 -1.32349e-10 2.44885e-10)
(-1.14055e-10 -1.58017e-10 3.09179e-10)
(-1.38116e-10 -1.85826e-10 3.8697e-10)
(-1.68628e-10 -2.1548e-10 4.81051e-10)
(-2.08742e-10 -2.45919e-10 5.94031e-10)
(-2.63103e-10 -2.74814e-10 7.27734e-10)
(-3.38528e-10 -2.97899e-10 8.81938e-10)
(-4.44425e-10 -3.08397e-10 1.05194e-09)
(-5.90675e-10 -2.97565e-10 1.22414e-09)
(-7.7462e-10 -2.57445e-10 1.3673e-09)
(-1.70671e-09 -5.46175e-11 1.5974e-09)
(0 0 0)
(-2.1362e-11 -2.89067e-11 4.58523e-11)
(-4.1449e-11 -5.64398e-11 9.08713e-11)
(-6.04249e-11 -8.30511e-11 1.37018e-10)
(-7.91288e-11 -1.09927e-10 1.87418e-10)
(-9.84302e-11 -1.38061e-10 2.45067e-10)
(-1.19316e-10 -1.68302e-10 3.13011e-10)
(-1.4299e-10 -2.01356e-10 3.94493e-10)
(-1.71e-10 -2.37766e-10 4.93028e-10)
(-2.054e-10 -2.7783e-10 6.12418e-10)
(-2.48968e-10 -3.21456e-10 7.5663e-10)
(-3.05483e-10 -3.67915e-10 9.294e-10)
(-3.80043e-10 -4.15477e-10 1.13323e-09)
(-4.79196e-10 -4.60981e-10 1.36689e-09)
(-6.09749e-10 -4.99325e-10 1.61915e-09)
(-7.7156e-10 -5.19384e-10 1.85195e-09)
(-1.70248e-09 -6.58205e-10 2.37469e-09)
(0 0 0)
(-2.56757e-11 -3.39142e-11 5.48085e-11)
(-4.97403e-11 -6.62045e-11 1.08525e-10)
(-7.23123e-11 -9.73958e-11 1.63402e-10)
(-9.43055e-11 -1.28882e-10 2.23085e-10)
(-1.16631e-10 -1.61852e-10 2.9104e-10)
(-1.40273e-10 -1.97358e-10 3.70784e-10)
(-1.66368e-10 -2.3637e-10 4.66064e-10)
(-1.96292e-10 -2.79826e-10 5.80993e-10)
(-2.31756e-10 -3.28672e-10 7.20157e-10)
(-2.74917e-10 -3.83915e-10 8.88655e-10)
(-3.28519e-10 -4.46663e-10 1.09199e-09)
(-3.96089e-10 -5.18027e-10 1.3355e-09)
(-4.82281e-10 -5.98448e-10 1.62209e-09)
(-5.93173e-10 -6.84825e-10 1.94481e-09)
(-7.34452e-10 -7.58133e-10 2.26251e-09)
(-1.67321e-09 -1.17658e-09 3.14643e-09)
(0 0 0)
(-2.94487e-11 -3.75911e-11 6.23452e-11)
(-5.69578e-11 -7.33617e-11 1.23316e-10)
(-8.25717e-11 -1.07876e-10 1.85347e-10)
(-1.07233e-10 -1.42665e-10 2.52445e-10)
(-1.3184e-10 -1.79034e-10 3.28384e-10)
(-1.57316e-10 -2.18159e-10 4.16956e-10)
(-1.84662e-10 -2.61165e-10 5.2217e-10)
(-2.15012e-10 -3.09222e-10 6.48418e-10)
(-2.49694e-10 -3.63681e-10 8.00638e-10)
(-2.90296e-10 -4.2627e-10 9.84451e-10)
(-3.38796e-10 -4.9936e-10 1.20625e-09)
(-3.97832e-10 -5.8617e-10 1.47292e-09)
(-4.71256e-10 -6.90159e-10 1.79e-09)
(-5.64766e-10 -8.10509e-10 2.15377e-09)
(-6.85866e-10 -9.21233e-10 2.52258e-09)
(-1.54397e-09 -1.47177e-09 3.64125e-09)
(0 0 0)
(-3.26766e-11 -3.98102e-11 6.83899e-11)
(-6.31049e-11 -7.7664e-11 1.35104e-10)
(-9.12388e-11 -1.14128e-10 2.02644e-10)
(-1.18017e-10 -1.50784e-10 2.75219e-10)
(-1.44299e-10 -1.88967e-10 3.56737e-10)
(-1.7092e-10 -2.29855e-10 4.51055e-10)
(-1.98735e-10 -2.74557e-10 5.62176e-10)
(-2.28655e-10 -3.24211e-10 6.94408e-10)
(-2.61703e-10 -3.80122e-10 8.52502e-10)
(-2.99111e-10 -4.43982e-10 1.04178e-09)
(-3.42563e-10 -5.18204e-10 1.26818e-09)
(-3.94805e-10 -6.06395e-10 1.53801e-09)
(-4.61049e-10 -7.13737e-10 1.85629e-09)
(-5.51487e-10 -8.45195e-10 2.21961e-09)
(-6.83814e-10 -9.84852e-10 2.58863e-09)
(-1.23697e-09 -1.88864e-09 3.6909e-09)
(0 0 0)
(-3.53747e-11 -4.0509e-11 7.29454e-11)
(-6.8225e-11 -7.89952e-11 1.43903e-10)
(-9.84102e-11 -1.15992e-10 2.15337e-10)
(-1.26848e-10 -1.5305e-10 2.91502e-10)
(-1.5435e-10 -1.91439e-10 3.76273e-10)
(-1.81672e-10 -2.32221e-10 4.73381e-10)
(-2.09548e-10 -2.76318e-10 5.86572e-10)
(-2.38731e-10 -3.24551e-10 7.1973e-10)
(-2.70066e-10 -3.77712e-10 8.76928e-10)
(-3.04631e-10 -4.36617e-10 1.06241e-09)
(-3.4411e-10 -5.02168e-10 1.28042e-09)
(-3.9168e-10 -5.75279e-10 1.5344e-09)
(-4.53989e-10 -6.56311e-10 1.82476e-09)
(-5.44902e-10 -7.41874e-10 2.14153e-09)
(-6.91581e-10 -8.04661e-10 2.44559e-09)
(-2.32711e-09 -2.27413e-09 3.21758e-09)
(0 0 0)
(0 0 0)
(0 0 0)
(0 0 0)
(0 0 0)
(0 0 0)
(0 0 0)
(0 0 0)
(0 0 0)
(0 0 0)
(0 0 0)
(0 0 0)
(0 0 0)
(0 0 0)
(0 0 0)
(0 0 0)
(0 0 0)
(0 0 0)
(-5.0787e-12 -8.60062e-12 1.2034e-11)
(-9.86363e-12 -1.68156e-11 2.38754e-11)
(-1.44081e-11 -2.47948e-11 3.60619e-11)
(-1.89405e-11 -3.28962e-11 4.94377e-11)
(-2.37212e-11 -4.14031e-11 6.48121e-11)
(-2.90798e-11 -5.05153e-11 8.30006e-11)
(-3.54664e-11 -6.03103e-11 1.04842e-10)
(-4.35313e-11 -7.06606e-11 1.31177e-10)
(-5.42601e-11 -8.1075e-11 1.62773e-10)
(-6.92163e-11 -9.04266e-11 2.0013e-10)
(-9.10024e-11 -9.65375e-11 2.43111e-10)
(-1.24126e-10 -9.56705e-11 2.90278e-10)
(-1.76362e-10 -8.23455e-11 3.37887e-10)
(-2.59009e-10 -5.11694e-11 3.78799e-10)
(-3.72232e-10 -6.26564e-12 4.02582e-10)
(-8.00215e-10 1.12502e-11 3.74349e-10)
(0 0 0)
(-9.9943e-12 -1.685e-11 2.36838e-11)
(-1.93932e-11 -3.29446e-11 4.69739e-11)
(-2.82846e-11 -4.85811e-11 7.09172e-11)
(-3.70955e-11 -6.44694e-11 9.71644e-11)
(-4.63039e-11 -8.11839e-11 1.27297e-10)
(-5.65018e-11 -9.91556e-11 1.62912e-10)
(-6.84776e-11 -1.18621e-10 2.05668e-10)
(-8.33377e-11 -1.39497e-10 2.57268e-10)
(-1.02694e-10 -1.61144e-10 3.19347e-10)
(-1.28971e-10 -1.81956e-10 3.93191e-10)
(-1.65916e-10 -1.98739e-10 4.79159e-10)
(-2.194e-10 -2.05945e-10 5.7565e-10)
(-2.98243e-10 -1.95338e-10 6.77455e-10)
(-4.12486e-10 -1.58247e-10 7.7365e-10)
(-5.54309e-10 -9.77436e-11 8.4484e-10)
(-8.47266e-10 6.94372e-11 9.43918e-10)
(0 0 0)
(-1.46129e-11 -2.44292e-11 3.4618e-11)
(-2.83162e-11 -4.77619e-11 6.86251e-11)
(-4.11998e-11 -7.04355e-11 1.03523e-10)
(-5.38383e-11 -9.34959e-11 1.41695e-10)
(-6.6856e-11 -1.17813e-10 1.85424e-10)
(-8.09978e-11 -1.4409e-10 2.37021e-10)
(-9.72164e-11 -1.72835e-10 2.98911e-10)
(-1.16784e-10 -2.04258e-10 3.73651e-10)
(-1.41443e-10 -2.38062e-10 4.63857e-10)
(-1.73597e-10 -2.73097e-10 5.71951e-10)
(-2.16541e-10 -3.06819e-10 6.99626e-10)
(-2.7462e-10 -3.34685e-10 8.46779e-10)
(-3.52826e-10 -3.49965e-10 1.00956e-09)
(-4.53819e-10 -3.45666e-10 1.17664e-09)
(-5.64233e-10 -3.22053e-10 1.31884e-09)
(-6.7936e-10 -2.5666e-10 1.55866e-09)
(0 0 0)
(-1.88307e-11 -3.10415e-11 4.45477e-11)
(-3.64267e-11 -6.06858e-11 8.82472e-11)
(-5.28412e-11 -8.94937e-11 1.32976e-10)
(-6.87368e-11 -1.18814e-10 1.81748e-10)
(-8.48034e-11 -1.49793e-10 2.37438e-10)
(-1.01823e-10 -1.83427e-10 3.02961e-10)
(-1.20737e-10 -2.20569e-10 3.81401e-10)
(-1.42718e-10 -2.61904e-10 4.76087e-10)
(-1.69233e-10 -3.07864e-10 5.90601e-10)
(-2.02077e-10 -3.58472e-10 7.2867e-10)
(-2.43298e-10 -4.13096e-10 8.93843e-10)
(-2.94912e-10 -4.7016e-10 1.08869e-09)
(-3.58134e-10 -5.27017e-10 1.31281e-09)
(-4.31534e-10 -5.80436e-10 1.55716e-09)
(-5.04992e-10 -6.25308e-10 1.78297e-09)
(-4.98437e-10 -7.21968e-10 2.20596e-09)
(0 0 0)
(-2.25835e-11 -3.64316e-11 5.32488e-11)
(-4.36032e-11 -7.12136e-11 1.0539e-10)
(-6.30401e-11 -1.05003e-10 1.58582e-10)
(-8.15887e-11 -1.39392e-10 2.16336e-10)
(-9.9934e-11 -1.7576e-10 2.8198e-10)
(-1.188e-10 -2.15355e-10 3.58882e-10)
(-1.38991e-10 -2.59361e-10 4.5061e-10)
(-1.61407e-10 -3.08957e-10 5.61065e-10)
(-1.87035e-10 -3.65384e-10 6.94584e-10)
(-2.16848e-10 -4.30019e-10 8.55991e-10)
(-2.51586e-10 -5.04456e-10 1.05055e-09)
(-2.91347e-10 -5.90468e-10 1.28358e-09)
(-3.35108e-10 -6.89358e-10 1.55866e-09)
(-3.80665e-10 -7.99097e-10 1.87047e-09)
(-4.24495e-10 -9.02789e-10 2.17358e-09)
(-3.72552e-10 -1.05134e-09 2.78711e-09)
(0 0 0)
(-2.58451e-11 -4.03971e-11 6.05716e-11)
(-4.98046e-11 -7.89473e-11 1.19755e-10)
(-7.17616e-11 -1.16366e-10 1.79882e-10)
(-9.23992e-11 -1.54408e-10 2.4481e-10)
(-1.1235e-10 -1.94604e-10 3.18168e-10)
(-1.32226e-10 -2.38362e-10 4.03583e-10)
(-1.52631e-10 -2.87075e-10 5.04877e-10)
(-1.74141e-10 -3.42244e-10 6.26222e-10)
(-1.97238e-10 -4.05653e-10 7.72298e-10)
(-2.22165e-10 -4.79629e-10 9.48441e-10)
(-2.48664e-10 -5.67413e-10 1.16079e-09)
(-2.75587e-10 -6.73474e-10 1.41618e-09)
(-3.00432e-10 -8.02881e-10 1.72072e-09)
(-3.19018e-10 -9.56062e-10 2.07194e-09)
(-3.26746e-10 -1.10649e-09 2.4212e-09)
(-1.89483e-10 -1.12793e-09 3.14128e-09)
(0 0 0)
(-2.86209e-11 -4.27993e-11 6.64455e-11)
(-5.5055e-11 -8.36161e-11 1.31205e-10)
(-7.90749e-11 -1.2318e-10 1.96674e-10)
(-1.01328e-10 -1.63316e-10 2.66904e-10)
(-1.22372e-10 -2.056e-10 3.45651e-10)
(-1.42697e-10 -2.51469e-10 4.36609e-10)
(-1.6271e-10 -3.02331e-10 5.43594e-10)
(-1.82705e-10 -3.59702e-10 6.707e-10)
(-2.02785e-10 -4.25395e-10 8.22435e-10)
(-2.22739e-10 -5.01829e-10 1.00386e-09)
(-2.41887e-10 -5.92522e-10 1.2207e-09)
(-2.58985e-10 -7.02843e-10 1.47929e-09)
(-2.72393e-10 -8.40945e-10 1.78536e-09)
(-2.80888e-10 -1.01682e-09 2.13711e-09)
(-2.85119e-10 -1.22082e-09 2.48874e-09)
(2.46296e-10 -1.37526e-09 3.18653e-09)
(0 0 0)
(-3.09348e-11 -4.35688e-11 7.08739e-11)
(-5.94152e-11 -8.50896e-11 1.39757e-10)
(-8.51053e-11 -1.25263e-10 2.09002e-10)
(-1.08608e-10 -1.6589e-10 2.8271e-10)
(-1.30413e-10 -2.08487e-10 3.64604e-10)
(-1.50905e-10 -2.54379e-10 4.58255e-10)
(-1.70352e-10 -3.0479e-10 5.67239e-10)
(-1.88869e-10 -3.60919e-10 6.95244e-10)
(-2.0637e-10 -4.2405e-10 8.46137e-10)
(-2.22515e-10 -4.95688e-10 1.02396e-09)
(-2.36732e-10 -5.77728e-10 1.2328e-09)
(-2.48518e-10 -6.7258e-10 1.47624e-09)
(-2.58476e-10 -7.82904e-10 1.75539e-09)
(-2.70879e-10 -9.08709e-10 2.06196e-09)
(-2.96628e-10 -1.02546e-09 2.35509e-09)
(-6.90138e-10 -1.75694e-09 2.92432e-09)
(0 0 0)
(0 0 0)
(0 0 0)
(0 0 0)
(0 0 0)
(0 0 0)
(0 0 0)
(0 0 0)
(0 0 0)
(0 0 0)
(0 0 0)
(0 0 0)
(0 0 0)
(0 0 0)
(0 0 0)
(0 0 0)
(0 0 0)
(0 0 0)
(-4.41661e-12 -9.15578e-12 1.1239e-11)
(-8.54955e-12 -1.79185e-11 2.22887e-11)
(-1.24224e-11 -2.64634e-11 3.36424e-11)
(-1.62162e-11 -3.51851e-11 4.60775e-11)
(-2.01437e-11 -4.43972e-11 6.03321e-11)
(-2.44789e-11 -5.43203e-11 7.71383e-11)
(-2.95978e-11 -6.50387e-11 9.72299e-11)
(-3.60348e-11 -7.64057e-11 1.21311e-10)
(-4.4567e-11 -8.78679e-11 1.4996e-10)
(-5.63457e-11 -9.81717e-11 1.83432e-10)
(-7.31105e-11 -1.04934e-10 2.2128e-10)
(-9.75246e-11 -1.04184e-10 2.61747e-10)
(-1.33497e-10 -9.04223e-11 3.00937e-10)
(-1.85215e-10 -5.90793e-11 3.32223e-10)
(-2.48042e-10 -1.61802e-11 3.47642e-10)
(-4.94434e-10 7.32622e-11 3.18802e-10)
(0 0 0)
(-8.68068e-12 -1.79401e-11 2.21195e-11)
(-1.67855e-11 -3.51108e-11 4.38529e-11)
(-2.43429e-11 -5.18604e-11 6.61608e-11)
(-3.16849e-11 -6.89728e-11 9.05628e-11)
(-3.91937e-11 -8.70845e-11 1.18502e-10)
(-4.73499e-11 -1.06675e-10 1.51413e-10)
(-5.67942e-11 -1.28004e-10 1.90748e-10)
(-6.84059e-11 -1.50974e-10 2.37935e-10)
(-8.33975e-11 -1.74859e-10 2.94229e-10)
(-1.03418e-10 -1.97863e-10 3.6039e-10)
(-1.30613e-10 -2.16469e-10 4.36065e-10)
(-1.67456e-10 -2.24738e-10 5.1876e-10)
(-2.15728e-10 -2.14336e-10 6.02358e-10)
(-2.7286e-10 -1.77755e-10 6.75696e-10)
(-3.23318e-10 -1.2116e-10 7.22994e-10)
(-2.75346e-10 6.74107e-11 7.42547e-10)
(0 0 0)
(-1.26676e-11 -2.60149e-11 3.23321e-11)
(-2.44537e-11 -5.09143e-11 6.40669e-11)
(-3.53582e-11 -7.52122e-11 9.65816e-11)
(-4.5814e-11 -1.00066e-10 1.32072e-10)
(-5.63001e-11 -1.26442e-10 1.7262e-10)
(-6.73937e-11 -1.55128e-10 2.20303e-10)
(-7.98271e-11 -1.86691e-10 2.77247e-10)
(-9.45428e-11 -2.21361e-10 3.45605e-10)
(-1.12724e-10 -2.58792e-10 4.27412e-10)
(-1.35736e-10 -2.9767e-10 5.24252e-10)
(-1.64799e-10 -3.35127e-10 6.36575e-10)
(-1.99985e-10 -3.6613e-10 7.62472e-10)
(-2.37653e-10 -3.83485e-10 8.95621e-10)
(-2.65456e-10 -3.8036e-10 1.02224e-09)
(-2.61752e-10 -3.58738e-10 1.11706e-09)
(3.86689e-11 -2.88163e-10 1.20891e-09)
(0 0 0)
(-1.62836e-11 -3.30651e-11 4.16067e-11)
(-3.13678e-11 -6.4711e-11 8.23871e-11)
(-4.51863e-11 -9.55992e-11 1.24063e-10)
(-5.8213e-11 -1.27225e-10 1.6941e-10)
(-7.09435e-11 -1.60872e-10 2.21053e-10)
(-8.39348e-11 -1.97658e-10 2.81613e-10)
(-9.78366e-11 -2.38548e-10 3.53796e-10)
(-1.13397e-10 -2.84314e-10 4.40413e-10)
(-1.314e-10 -3.35424e-10 5.44285e-10)
(-1.52439e-10 -3.91845e-10 6.67981e-10)
(-1.76315e-10 -4.52707e-10 8.13219e-10)
(-2.00685e-10 -5.15853e-10 9.79608e-10)
(-2.18411e-10 -5.77402e-10 1.16204e-09)
(-2.14225e-10 -6.31805e-10 1.34529e-09)
(-1.71508e-10 -6.71938e-10 1.49324e-09)
(2.23564e-10 -7.636e-10 1.65757e-09)
(0 0 0)
(-1.9475e-11 -3.88188e-11 4.97345e-11)
(-3.7428e-11 -7.59648e-11 9.83941e-11)
(-5.36921e-11 -1.12217e-10 1.47958e-10)
(-6.87282e-11 -1.49349e-10 2.01659e-10)
(-8.29796e-11 -1.88908e-10 2.6254e-10)
(-9.68901e-11 -2.32311e-10 3.33629e-10)
(-1.109e-10 -2.80908e-10 4.18061e-10)
(-1.25398e-10 -3.36046e-10 5.19136e-10)
(-1.40575e-10 -3.99117e-10 6.40295e-10)
(-1.56093e-10 -4.71598e-10 7.84954e-10)
(-1.70402e-10 -5.54999e-10 9.56044e-10)
(-1.79516e-10 -6.50455e-10 1.15484e-09)
(-1.75262e-10 -7.57091e-10 1.3779e-09)
(-1.44843e-10 -8.6731e-10 1.60939e-09)
(-8.2584e-11 -9.57277e-10 1.80349e-09)
(2.4386e-10 -1.10453e-09 2.02673e-09)
(0 0 0)
(-2.22264e-11 -4.30595e-11 5.65757e-11)
(-4.26153e-11 -8.42489e-11 1.1181e-10)
(-6.08761e-11 -1.24423e-10 1.67838e-10)
(-7.74182e-11 -1.65545e-10 2.28218e-10)
(-9.25891e-11 -2.09342e-10 2.96263e-10)
(-1.06669e-10 -2.57429e-10 3.7524e-10)
(-1.19834e-10 -3.11414e-10 4.68511e-10)
(-1.32062e-10 -3.73041e-10 5.7961e-10)
(-1.42933e-10 -4.44358e-10 7.12263e-10)
(-1.5125e-10 -5.27958e-10 8.70286e-10)
(-1.5435e-10 -6.27208e-10 1.05724e-09)
(-1.47004e-10 -7.46072e-10 1.27535e-09)
(-1.19992e-10 -8.86965e-10 1.52236e-09)
(-6.02575e-11 -1.04211e-09 1.7824e-09)
(3.50247e-11 -1.17238e-09 2.00357e-09)
(3.17223e-10 -1.19568e-09 2.24607e-09)
(0 0 0)
(-2.45529e-11 -4.56378e-11 6.20649e-11)
(-4.69736e-11 -8.92704e-11 1.22507e-10)
(-6.68408e-11 -1.31779e-10 1.83518e-10)
(-8.44938e-11 -1.75214e-10 2.48838e-10)
(-1.00171e-10 -2.2137e-10 3.21898e-10)
(-1.13988e-10 -2.71913e-10 4.06028e-10)
(-1.25874e-10 -3.28501e-10 5.04589e-10)
(-1.35456e-10 -3.92941e-10 6.21051e-10)
(-1.41845e-10 -4.67391e-10 7.59004e-10)
(-1.43266e-10 -5.54659e-10 9.22053e-10)
(-1.36452e-10 -6.58601e-10 1.11348e-09)
(-1.15744e-10 -7.84439e-10 1.33524e-09)
(-7.20199e-11 -9.38174e-10 1.58515e-09)
(6.75632e-12 -1.12158e-09 1.84851e-09)
(1.20655e-10 -1.30861e-09 2.07559e-09)
(8.56148e-10 -1.482e-09 2.30358e-09)
(0 0 0)
(-2.64861e-11 -4.64767e-11 6.62054e-11)
(-5.05808e-11 -9.08843e-11 1.305e-10)
(-7.17395e-11 -1.34081e-10 1.95041e-10)
(-9.0233e-11 -1.78099e-10 2.63608e-10)
(-1.06207e-10 -2.24682e-10 3.39609e-10)
(-1.19647e-10 -2.75394e-10 4.26268e-10)
(-1.30314e-10 -3.31717e-10 5.26735e-10)
(-1.37625e-10 -3.95158e-10 6.44139e-10)
(-1.40471e-10 -4.67365e-10 7.81545e-10)
(-1.36919e-10 -5.50266e-10 9.41768e-10)
(-1.23797e-10 -6.4617e-10 1.12691e-09)
(-9.61868e-11 -7.57584e-10 1.33725e-09)
(-4.71041e-11 -8.85857e-10 1.56839e-09)
(3.12106e-11 -1.02543e-09 1.80439e-09)
(1.39859e-10 -1.13967e-09 2.00374e-09)
(1.25594e-10 -1.98059e-09 2.31261e-09)
(0 0 0)
(0 0 0)
(0 0 0)
(0 0 0)
(0 0 0)
(0 0 0)
(0 0 0)
(0 0 0)
(0 0 0)
(0 0 0)
(0 0 0)
(0 0 0)
(0 0 0)
(0 0 0)
(0 0 0)
(0 0 0)
(0 0 0)
(0 0 0)
(-3.78349e-12 -9.66123e-12 1.00376e-11)
(-7.29231e-12 -1.89221e-11 1.98975e-11)
(-1.05209e-11 -2.798e-11 3.0011e-11)
(-1.3605e-11 -3.72615e-11 4.10591e-11)
(-1.67127e-11 -4.71047e-11 5.36792e-11)
(-2.00692e-11 -5.77452e-11 6.8487e-11)
(-2.39892e-11 -6.92666e-11 8.60717e-11)
(-2.89175e-11 -8.14958e-11 1.06949e-10)
(-3.54756e-11 -9.38103e-11 1.31451e-10)
(-4.45139e-11 -1.04821e-10 1.59504e-10)
(-5.71646e-11 -1.11914e-10 1.90275e-10)
(-7.49121e-11 -1.10752e-10 2.21634e-10)
(-9.9709e-11 -9.52489e-11 2.49602e-10)
(-1.33858e-10 -5.97685e-11 2.68415e-10)
(-1.75986e-10 -8.93277e-12 2.73176e-10)
(-4.26297e-10 1.45284e-10 2.39396e-10)
(0 0 0)
(-7.42484e-12 -1.89327e-11 1.97555e-11)
(-1.42913e-11 -3.70823e-11 3.91493e-11)
(-2.05693e-11 -5.48416e-11 5.90211e-11)
(-2.65005e-11 -7.30589e-11 8.07026e-11)
(-3.23772e-11 -9.24217e-11 1.0544e-10)
(-3.85826e-11 -1.13444e-10 1.3444e-10)
(-4.56375e-11 -1.36394e-10 1.6887e-10)
(-5.42502e-11 -1.6114e-10 2.09781e-10)
(-6.53512e-11 -1.86847e-10 2.57918e-10)
(-8.00631e-11 -2.11499e-10 3.13342e-10)
(-9.94969e-11 -2.31195e-10 3.74788e-10)
(-1.24149e-10 -2.3941e-10 4.38707e-10)
(-1.52543e-10 -2.26961e-10 4.98172e-10)
(-1.79014e-10 -1.85146e-10 5.42688e-10)
(-1.93492e-10 -1.19132e-10 5.62052e-10)
(-1.43939e-10 1.2587e-10 5.27092e-10)
(0 0 0)
(-1.08086e-11 -2.74592e-11 2.88775e-11)
(-2.07607e-11 -5.37843e-11 5.7197e-11)
(-2.97685e-11 -7.95562e-11 8.61626e-11)
(-3.81288e-11 -1.06029e-10 1.17699e-10)
(-4.61859e-11 -1.3425e-10 1.53603e-10)
(-5.43701e-11 -1.65069e-10 1.95626e-10)
(-6.32369e-11 -1.99085e-10 2.45477e-10)
(-7.34894e-11 -2.3651e-10 3.04749e-10)
(-8.59437e-11 -2.76899e-10 3.74694e-10)
(-1.01334e-10 -3.187e-10 4.55769e-10)
(-1.19729e-10 -3.58609e-10 5.46827e-10)
(-1.39133e-10 -3.90899e-10 6.43828e-10)
(-1.52723e-10 -4.07413e-10 7.38152e-10)
(-1.45676e-10 -4.00282e-10 8.15493e-10)
(-1.03452e-10 -3.71471e-10 8.58979e-10)
(1.7874e-10 -2.61586e-10 8.49119e-10)
(0 0 0)
(-1.38509e-11 -3.49089e-11 3.71623e-11)
(-2.65337e-11 -6.83769e-11 7.35554e-11)
(-3.78656e-11 -1.01154e-10 1.10685e-10)
(-4.81395e-11 -1.34865e-10 1.50984e-10)
(-5.76706e-11 -1.70905e-10 1.9672e-10)
(-6.68188e-11 -2.10486e-10 2.50102e-10)
(-7.59994e-11 -2.54644e-10 3.13309e-10)
(-8.56578e-11 -3.04175e-10 3.88432e-10)
(-9.61529e-11 -3.59499e-10 4.77253e-10)
(-1.07435e-10 -4.20392e-10 5.80782e-10)
(-1.18304e-10 -4.85568e-10 6.98379e-10)
(-1.24924e-10 -5.52103e-10 8.26212e-10)
(-1.18515e-10 -6.14939e-10 9.54847e-10)
(-8.43274e-11 -6.67317e-10 1.06657e-09)
(-1.51216e-11 -7.02768e-10 1.13654e-09)
(2.9694e-10 -7.77502e-10 1.14612e-09)
(0 0 0)
(-1.65081e-11 -4.09949e-11 4.44237e-11)
(-3.1531e-11 -8.02942e-11 8.78509e-11)
(-4.47576e-11 -1.18785e-10 1.32011e-10)
(-5.64247e-11 -1.58399e-10 1.79741e-10)
(-6.675e-11 -2.00825e-10 2.33671e-10)
(-7.59288e-11 -2.47612e-10 2.96354e-10)
(-8.41062e-11 -3.00223e-10 3.70318e-10)
(-9.12974e-11 -3.60091e-10 4.58027e-10)
(-9.7201e-11 -4.28634e-10 5.6169e-10)
(-1.00817e-10 -5.07232e-10 6.82818e-10)
(-9.97526e-11 -5.97061e-10 8.21341e-10)
(-8.92041e-11 -6.98467e-10 9.73885e-10)
(-6.1256e-11 -8.0914e-10 1.13067e-09)
(-7.63898e-12 -9.19869e-10 1.27105e-09)
(6.42973e-11 -1.00794e-09 1.3625e-09)
(2.21346e-10 -1.16733e-09 1.37975e-09)
(0 0 0)
(-1.87748e-11 -4.54879e-11 5.05371e-11)
(-3.57541e-11 -8.9083e-11 9.98353e-11)
(-5.04781e-11 -1.31764e-10 1.49762e-10)
(-6.30927e-11 -1.75677e-10 2.03439e-10)
(-7.36771e-11 -2.22718e-10 2.63732e-10)
(-8.2213e-11 -2.74662e-10 3.33402e-10)
(-8.85175e-11 -3.33277e-10 4.15162e-10)
(-9.21135e-11 -4.00452e-10 5.11658e-10)
(-9.19853e-11 -4.78348e-10 6.25295e-10)
(-8.61542e-11 -5.69581e-10 7.57825e-10)
(-7.1016e-11 -6.77331e-10 9.09482e-10)
(-4.05584e-11 -8.04912e-10 1.0772e-09)
(1.36839e-11 -9.53325e-10 1.25113e-09)
(9.85763e-11 -1.11306e-09 1.40891e-09)
(2.00887e-10 -1.24627e-09 1.51268e-09)
(2.71196e-10 -1.3112e-09 1.52012e-09)
(0 0 0)
(-2.06751e-11 -4.82283e-11 5.54442e-11)
(-3.9266e-11 -9.443e-11 1.09396e-10)
(-5.51611e-11 -1.39622e-10 1.63772e-10)
(-6.84029e-11 -1.86053e-10 2.21854e-10)
(-7.8926e-11 -2.35706e-10 2.86618e-10)
(-8.65021e-11 -2.90431e-10 3.60876e-10)
(-9.06444e-11 -3.52078e-10 4.47351e-10)
(-9.04438e-11 -4.22648e-10 5.48643e-10)
(-8.42915e-11 -5.04483e-10 6.67059e-10)
(-6.94316e-11 -6.00535e-10 8.04216e-10)
(-4.1298e-11 -7.14662e-10 9.602e-10)
(7.25749e-12 -8.51768e-10 1.13188e-09)
(8.60717e-11 -1.01701e-09 1.30962e-09)
(2.03615e-10 -1.21136e-09 1.47189e-09)
(3.44856e-10 -1.41069e-09 1.58147e-09)
(9.69864e-10 -1.67786e-09 1.57548e-09)
(0 0 0)
(-2.22485e-11 -4.91327e-11 5.9148e-11)
(-4.21604e-11 -9.61766e-11 1.16546e-10)
(-5.89865e-11 -1.42131e-10 1.74078e-10)
(-7.26756e-11 -1.89236e-10 2.35067e-10)
(-8.30432e-11 -2.3943e-10 3.0247e-10)
(-8.97024e-11 -2.94476e-10 3.79017e-10)
(-9.19567e-11 -3.56063e-10 4.67267e-10)
(-8.86309e-11 -4.25916e-10 5.6956e-10)
(-7.78048e-11 -5.0591e-10 6.87837e-10)
(-5.64078e-11 -5.98187e-10 8.23217e-10)
(-1.96528e-11 -7.05208e-10 9.7518e-10)
(3.95834e-11 -8.29477e-10 1.13999e-09)
(1.3077e-10 -9.72186e-10 1.3079e-09)
(2.62464e-10 -1.12818e-09 1.45898e-09)
(4.30052e-10 -1.26459e-09 1.56155e-09)
(4.2658e-10 -2.28074e-09 1.63658e-09)
(0 0 0)
(0 0 0)
(0 0 0)
(0 0 0)
(0 0 0)
(0 0 0)
(0 0 0)
(0 0 0)
(0 0 0)
(0 0 0)
(0 0 0)
(0 0 0)
(0 0 0)
(0 0 0)
(0 0 0)
(0 0 0)
(0 0 0)
(0 0 0)
(-3.21331e-12 -1.00995e-11 8.47979e-12)
(-6.16029e-12 -1.97917e-11 1.68023e-11)
(-8.80987e-12 -2.92922e-11 2.53233e-11)
(-1.12591e-11 -3.90537e-11 3.46058e-11)
(-1.36413e-11 -4.94329e-11 4.51668e-11)
(-1.61503e-11 -6.06743e-11 5.7489e-11)
(-1.90731e-11 -7.28549e-11 7.20052e-11)
(-2.28303e-11 -8.57698e-11 8.90412e-11)
(-2.80234e-11 -9.87248e-11 1.08697e-10)
(-3.54819e-11 -1.10198e-10 1.30638e-10)
(-4.63191e-11 -1.17349e-10 1.53785e-10)
(-6.20632e-11 -1.15477e-10 1.75927e-10)
(-8.50727e-11 -9.7899e-11 1.93498e-10)
(-1.19248e-10 -5.80996e-11 2.02199e-10)
(-1.6621e-10 -4.68774e-13 2.00066e-10)
(-4.71648e-10 1.76078e-10 1.69791e-10)
(0 0 0)
(-6.29394e-12 -1.97935e-11 1.66899e-11)
(-1.20456e-11 -3.87906e-11 3.30601e-11)
(-1.71738e-11 -5.74212e-11 4.98036e-11)
(-2.18424e-11 -7.65859e-11 6.80213e-11)
(-2.62741e-11 -9.70115e-11 8.87239e-11)
(-3.07886e-11 -1.19233e-10 1.12858e-10)
(-3.58513e-11 -1.43515e-10 1.41283e-10)
(-4.21288e-11 -1.69673e-10 1.74666e-10)
(-5.05312e-11 -1.96755e-10 2.13274e-10)
(-6.21957e-11 -2.22516e-10 2.56593e-10)
(-7.83224e-11 -2.42679e-10 3.02744e-10)
(-9.97241e-11 -2.50135e-10 3.47762e-10)
(-1.25995e-10 -2.34852e-10 3.85104e-10)
(-1.54489e-10 -1.87076e-10 4.0664e-10)
(-1.79593e-10 -1.12041e-10 4.08032e-10)
(-2.11509e-10 1.59877e-10 3.62401e-10)
(0 0 0)
(-9.13487e-12 -2.87118e-11 2.43973e-11)
(-1.74361e-11 -5.62717e-11 4.83026e-11)
(-2.4739e-11 -8.33159e-11 7.27099e-11)
(-3.12234e-11 -1.11178e-10 9.92103e-11)
(-3.71275e-11 -1.40968e-10 1.29264e-10)
(-4.27841e-11 -1.73575e-10 1.64241e-10)
(-4.86647e-11 -2.09606e-10 2.05403e-10)
(-5.54164e-11 -2.49226e-10 2.53772e-10)
(-6.38584e-11 -2.91857e-10 3.09862e-10)
(-7.48499e-11 -3.35683e-10 3.73182e-10)
(-8.88519e-11 -3.76957e-10 4.41454e-10)
(-1.04871e-10 -4.09299e-10 5.09573e-10)
(-1.18491e-10 -4.23737e-10 5.68764e-10)
(-1.19855e-10 -4.11699e-10 6.07504e-10)
(-9.91891e-11 -3.75781e-10 6.18198e-10)
(6.42429e-11 -2.47436e-10 5.76604e-10)
(0 0 0)
(-1.16611e-11 -3.65086e-11 3.13981e-11)
(-2.21827e-11 -7.15554e-11 6.21204e-11)
(-3.12791e-11 -1.05964e-10 9.34097e-11)
(-3.90872e-11 -1.41466e-10 1.27278e-10)
(-4.57777e-11 -1.79541e-10 1.65568e-10)
(-5.15752e-11 -2.21469e-10 2.10013e-10)
(-5.67757e-11 -2.68315e-10 2.6222e-10)
(-6.17465e-11 -3.20855e-10 3.23543e-10)
(-6.68694e-11 -3.79394e-10 3.94779e-10)
(-7.23535e-11 -4.43455e-10 4.75611e-10)
(-7.77928e-11 -5.11306e-10 5.63678e-10)
(-8.1336e-11 -5.79369e-10 6.53248e-10)
(-7.85955e-11 -6.41864e-10 7.33867e-10)
(-6.27147e-11 -6.91762e-10 7.90751e-10)
(-3.16157e-11 -7.23764e-10 8.12147e-10)
(1.05106e-10 -7.93818e-10 7.7069e-10)
(0 0 0)
(-1.38381e-11 -4.28838e-11 3.75353e-11)
(-2.62243e-11 -8.40498e-11 7.41984e-11)
(-3.67196e-11 -1.24476e-10 1.11417e-10)
(-4.53661e-11 -1.66222e-10 1.51539e-10)
(-5.21978e-11 -2.11093e-10 1.96702e-10)
(-5.72313e-11 -2.60726e-10 2.48912e-10)
(-6.04456e-11 -3.1665e-10 3.10036e-10)
(-6.1731e-11 -3.80313e-10 3.81681e-10)
(-6.07811e-11 -4.53065e-10 4.64882e-10)
(-5.68979e-11 -5.36081e-10 5.59516e-10)
(-4.87283e-11 -6.30127e-10 6.63283e-10)
(-3.41812e-11 -7.34917e-10 7.70135e-10)
(-1.14339e-11 -8.4747e-10 8.68373e-10)
(1.69685e-11 -9.58576e-10 9.40244e-10)
(3.71277e-11 -1.04701e-09 9.69733e-10)
(-3.86908e-11 -1.21436e-09 9.21376e-10)
(0 0 0)
(-1.56694e-11 -4.75968e-11 4.27036e-11)
(-2.9581e-11 -9.3279e-11 8.43274e-11)
(-4.11238e-11 -1.3813e-10 1.26413e-10)
(-5.02129e-11 -1.84445e-10 1.71545e-10)
(-5.67049e-11 -2.34256e-10 2.22057e-10)
(-6.03565e-11 -2.89455e-10 2.80119e-10)
(-6.07595e-11 -3.51909e-10 3.47743e-10)
(-5.72339e-11 -4.23565e-10 4.26656e-10)
(-4.86561e-11 -5.06576e-10 5.18005e-10)
(-3.32167e-11 -6.03426e-10 6.21758e-10)
(-8.19478e-12 -7.16973e-10 7.35652e-10)
(2.98431e-11 -8.49985e-10 8.53495e-10)
(8.3229e-11 -1.00288e-09 9.62899e-10)
(1.47424e-10 -1.16632e-09 1.04418e-09)
(2.01127e-10 -1.30386e-09 1.0781e-09)
(2.60941e-11 -1.38168e-09 1.01585e-09)
(0 0 0)
(-1.71874e-11 -5.04796e-11 4.68541e-11)
(-3.23328e-11 -9.89118e-11 9.24122e-11)
(-4.4654e-11 -1.46428e-10 1.38257e-10)
(-5.39311e-11 -1.95443e-10 1.8711e-10)
(-5.98411e-11 -2.4809e-10 2.41393e-10)
(-6.18865e-11 -3.06358e-10 3.03327e-10)
(-5.92924e-11 -3.72225e-10 3.74933e-10)
(-5.08515e-11 -4.47791e-10 4.57909e-10)
(-3.46898e-11 -5.3545e-10 5.5334e-10)
(-7.94276e-12 -6.38108e-10 6.61112e-10)
(3.35934e-11 -7.5944e-10 7.7889e-10)
(9.54983e-11 -9.04008e-10 9.00458e-10)
(1.83352e-10 -1.07671e-09 1.0135e-09)
(2.96969e-10 -1.27906e-09 1.09841e-09)
(4.13268e-10 -1.4883e-09 1.1354e-09)
(8.88068e-10 -1.78015e-09 1.06508e-09)
(0 0 0)
(-1.84383e-11 -5.14424e-11 4.9989e-11)
(-3.45878e-11 -1.00777e-10 9.84644e-11)
(-4.75142e-11 -1.49124e-10 1.46981e-10)
(-5.688e-11 -1.98896e-10 1.98298e-10)
(-6.22159e-11 -2.52193e-10 2.54828e-10)
(-6.28307e-11 -3.10929e-10 3.18731e-10)
(-5.76883e-11 -3.76938e-10 3.91911e-10)
(-4.52311e-11 -4.52076e-10 4.75897e-10)
(-2.31242e-11 -5.38314e-10 5.71548e-10)
(1.2096e-11 -6.37832e-10 6.78502e-10)
(6.54248e-11 -7.53044e-10 7.94234e-10)
(1.43592e-10 -8.86369e-10 9.12569e-10)
(2.54165e-10 -1.03917e-09 1.02183e-09)
(4.01024e-10 -1.20758e-09 1.10404e-09)
(5.7391e-10 -1.36175e-09 1.14064e-09)
(5.51284e-10 -2.43481e-09 1.09887e-09)
(0 0 0)
(0 0 0)
(0 0 0)
(0 0 0)
(0 0 0)
(0 0 0)
(0 0 0)
(0 0 0)
(0 0 0)
(0 0 0)
(0 0 0)
(0 0 0)
(0 0 0)
(0 0 0)
(0 0 0)
(0 0 0)
(0 0 0)
(0 0 0)
(-2.73637e-12 -1.04559e-11 6.62643e-12)
(-5.21406e-12 -2.04982e-11 1.31247e-11)
(-7.38193e-12 -3.03567e-11 1.97667e-11)
(-9.30767e-12 -4.05039e-11 2.69827e-11)
(-1.11024e-11 -5.13097e-11 3.51604e-11)
(-1.29482e-11 -6.30226e-11 4.46482e-11)
(-1.51389e-11 -7.57096e-11 5.57345e-11)
(-1.81369e-11 -8.91342e-11 6.85913e-11)
(-2.26481e-11 -1.02538e-10 8.31668e-11)
(-2.97177e-11 -1.14288e-10 9.90126e-11)
(-4.08683e-11 -1.21378e-10 1.15055e-10)
(-5.83632e-11 -1.18871e-10 1.29377e-10)
(-8.57916e-11 -9.98094e-11 1.39262e-10)
(-1.2867e-10 -5.75124e-11 1.42032e-10)
(-1.88417e-10 3.05316e-12 1.37633e-10)
(-5.37587e-10 1.80977e-10 1.15658e-10)
(0 0 0)
(-5.34796e-12 -2.04933e-11 1.30424e-11)
(-1.01685e-11 -4.01786e-11 2.58247e-11)
(-1.43397e-11 -5.95139e-11 3.88764e-11)
(-1.79667e-11 -7.94401e-11 5.30394e-11)
(-2.12265e-11 -1.00712e-10 6.90713e-11)
(-2.44137e-11 -1.23875e-10 8.76559e-11)
(-2.80056e-11 -1.4918e-10 1.09366e-10)
(-3.27516e-11 -1.76388e-10 1.34559e-10)
(-3.97765e-11 -2.04435e-10 1.63183e-10)
(-5.06723e-11 -2.30883e-10 1.94447e-10)
(-6.75108e-11 -2.51165e-10 2.26391e-10)
(-9.26591e-11 -2.57793e-10 2.55463e-10)
(-1.28191e-10 -2.40349e-10 2.76557e-10)
(-1.74334e-10 -1.88945e-10 2.84549e-10)
(-2.24114e-10 -1.0975e-10 2.79081e-10)
(-3.20579e-10 1.68053e-10 2.44121e-10)
(0 0 0)
(-7.7348e-12 -2.97305e-11 1.9066e-11)
(-1.46569e-11 -5.82931e-11 3.77327e-11)
(-2.05404e-11 -8.63666e-11 5.67598e-11)
(-2.54755e-11 -1.15346e-10 7.73641e-11)
(-2.96294e-11 -1.46385e-10 1.0064e-10)
(-3.32924e-11 -1.80395e-10 1.27579e-10)
(-3.69467e-11 -2.17975e-10 1.59023e-10)
(-4.13561e-11 -2.59229e-10 1.95529e-10)
(-4.76624e-11 -3.03442e-10 2.37107e-10)
(-5.74341e-11 -3.48556e-10 2.82778e-10)
(-7.25315e-11 -3.9047e-10 3.29967e-10)
(-9.44834e-11 -4.2237e-10 3.73879e-10)
(-1.22831e-10 -4.34938e-10 4.07461e-10)
(-1.51956e-10 -4.19711e-10 4.2336e-10)
(-1.69121e-10 -3.80456e-10 4.20356e-10)
(-9.95834e-11 -2.4934e-10 3.83825e-10)
(0 0 0)
(-9.82932e-12 -3.78099e-11 2.45382e-11)
(-1.85452e-11 -7.41391e-11 4.85295e-11)
(-2.57794e-11 -1.09869e-10 7.29239e-11)
(-3.15479e-11 -1.4681e-10 9.9261e-11)
(-3.59221e-11 -1.86508e-10 1.28923e-10)
(-3.90597e-11 -2.3028e-10 1.63163e-10)
(-4.12533e-11 -2.79197e-10 2.03057e-10)
(-4.2999e-11 -3.3398e-10 2.49355e-10)
(-4.50747e-11 -3.94796e-10 3.02171e-10)
(-4.86083e-11 -4.60913e-10 3.60463e-10)
(-5.5077e-11 -5.30205e-10 4.2129e-10)
(-6.61264e-11 -5.98626e-10 4.78976e-10)
(-8.2966e-11 -6.60091e-10 5.24869e-10)
(-1.04801e-10 -7.07918e-10 5.49434e-10)
(-1.25554e-10 -7.38184e-10 5.4997e-10)
(-1.19321e-10 -8.10107e-10 5.10098e-10)
(0 0 0)
(-1.16047e-11 -4.44209e-11 2.93362e-11)
(-2.17875e-11 -8.71039e-11 5.79691e-11)