/*--------------------------------*- C++ -*----------------------------------*\
| =========                 |                                                 |
| \\      /  F ield         | foam-extend: Open Source CFD                    |
|  \\    /   O peration     | Version:     3.1                                |
|   \\  /    A nd           | Web:         http://www.extend-project.de       |
|    \\/     M anipulation  |                                                 |
\*---------------------------------------------------------------------------*/
FoamFile
{
    version     2.0;
    format      ascii;
    class       surfaceVectorField;
    location    "3.8";
    object      Sf;
}
// * * * * * * * * * * * * * * * * * * * * * * * * * * * * * * * * * * * * * //

dimensions      [0 2 0 0 0 0 0];

internalField   nonuniform List<vector> 
41600
(
(0.00062552 -2.80447e-06 -1.98255e-08)
(-5.195e-07 0.00070593 -1.30559e-08)
(1.00849e-08 1.13455e-08 0.000704836)
(-1.03452e-08 -1.16384e-08 -0.000704803)
(0.000626017 -5.40317e-06 -3.82148e-08)
(-4.97314e-07 0.000705725 -3.90643e-08)
(9.90045e-09 3.38262e-08 0.000705317)
(-1.01597e-08 -3.47036e-08 -0.00070526)
(0.000626503 -7.77144e-06 -5.51619e-08)
(-4.85358e-07 0.000705495 -6.55742e-08)
(1.02341e-08 5.64658e-08 0.000705767)
(-1.05002e-08 -5.7934e-08 -0.000705685)
(0.000627001 -9.96543e-06 -7.11845e-08)
(-4.97323e-07 0.000705321 -9.43857e-08)
(1.12926e-08 8.06568e-08 0.000706246)
(-1.15729e-08 -8.27396e-08 -0.000706136)
(0.000627532 -1.20305e-05 -8.68324e-08)
(-5.31265e-07 0.000705193 -1.27733e-07)
(1.29322e-08 1.07865e-07 0.000706777)
(-1.32243e-08 -1.10591e-07 -0.000706633)
(0.000628119 -1.40059e-05 -1.02595e-07)
(-5.86917e-07 0.000705104 -1.68081e-07)
(1.48529e-08 1.39061e-07 0.00070738)
(-1.51474e-08 -1.42447e-07 -0.000707196)
(0.000628784 -1.59198e-05 -1.18161e-07)
(-6.64426e-07 0.000705043 -2.1826e-07)
(1.65362e-08 1.7431e-07 0.000708077)
(-1.68252e-08 -1.78352e-07 -0.000707843)
(0.000629549 -1.77828e-05 -1.32654e-07)
(-7.65144e-07 0.000704993 -2.81639e-07)
(1.71549e-08 2.12183e-07 0.000708886)
(-1.74127e-08 -2.16838e-07 -0.00070859)
(0.000630441 -1.95863e-05 -1.44796e-07)
(-8.91426e-07 0.000704934 -3.62722e-07)
(1.50578e-08 2.48519e-07 0.000709825)
(-1.52163e-08 -2.53638e-07 -0.00070945)
(0.000631486 -2.12868e-05 -1.51801e-07)
(-1.04508e-06 0.000704831 -4.67774e-07)
(7.03637e-09 2.73811e-07 0.00071091)
(-7.04614e-09 -2.79102e-07 -0.000710435)
(0.000632716 -2.28016e-05 -1.50098e-07)
(-1.23013e-06 0.000704645 -6.06266e-07)
(-1.28929e-08 2.68464e-07 0.000712158)
(1.29792e-08 -2.73616e-07 -0.000711553)
(0.000634167 -2.39951e-05 -1.37014e-07)
(-1.45089e-06 0.000704323 -7.94433e-07)
(-5.51978e-08 1.94876e-07 0.000713587)
(5.50813e-08 -1.99908e-07 -0.000712806)
(0.000635876 -2.4682e-05 -1.15737e-07)
(-1.70784e-06 0.000703818 -1.06239e-06)
(-1.3811e-07 -1.58594e-08 0.000715233)
(1.36983e-07 9.82974e-09 -0.000714191)
(0.000637852 -2.47034e-05 -1.10496e-07)
(-1.9737e-06 0.000703156 -1.46624e-06)
(-2.83453e-07 -4.76415e-07 0.00071717)
(2.80795e-07 4.66986e-07 -0.000715709)
(0.000639832 -2.41179e-05 -2.12495e-07)
(-1.99596e-06 0.000702533 -2.08236e-06)
(-4.60592e-07 -1.29129e-06 0.000719458)
(4.76857e-07 1.29734e-06 -0.000717273)
(-7.8749e-06 0.000699556 -5.56631e-07)
(-2.01065e-06 -3.95511e-06 0.000724116)
(4.06423e-06 6.17626e-06 -0.000722835)
(0.000625499 -2.7653e-06 -5.92747e-08)
(-1.01744e-06 0.000708695 -2.55886e-08)
(2.97779e-08 1.08076e-08 0.000707628)
(-3.05573e-08 -1.10987e-08 -0.000707556)
(0.000625976 -5.32948e-06 -1.14398e-07)
(-9.73502e-07 0.00070829 -7.65204e-08)
(2.91574e-08 3.21326e-08 0.00070788)
(-2.99413e-08 -3.30132e-08 -0.000707787)
(0.00062644 -7.66661e-06 -1.65429e-07)
(-9.49116e-07 0.000707833 -1.28346e-07)
(3.008e-08 5.34377e-08 0.000708075)
(-3.08974e-08 -5.49375e-08 -0.000707961)
(0.000626915 -9.83175e-06 -2.13758e-07)
(-9.71245e-07 0.000707488 -1.84541e-07)
(3.3195e-08 7.6116e-08 0.000708353)
(-3.40622e-08 -7.82814e-08 -0.000708215)
(0.000627421 -1.18744e-05 -2.6127e-07)
(-1.03623e-06 0.000707238 -2.49469e-07)
(3.80282e-08 1.01622e-07 0.000708728)
(-3.89406e-08 -1.04502e-07 -0.000708559)
(0.000627978 -1.38339e-05 -3.09379e-07)
(-1.14254e-06 0.000707067 -3.27924e-07)
(4.3757e-08 1.30961e-07 0.00070921)
(-4.47126e-08 -1.34624e-07 -0.000709002)
(0.000628605 -1.57371e-05 -3.57078e-07)
(-1.29058e-06 0.000706951 -4.25262e-07)
(4.92004e-08 1.64747e-07 0.000709806)
(-5.01434e-08 -1.69235e-07 -0.000709551)
(0.000629323 -1.76e-05 -4.02136e-07)
(-1.48267e-06 0.000706861 -5.48041e-07)
(5.22391e-08 2.02947e-07 0.000710515)
(-5.30332e-08 -2.08163e-07 -0.000710203)
(0.000630153 -1.94228e-05 -4.40391e-07)
(-1.72145e-06 0.000706762 -7.04677e-07)
(4.84349e-08 2.43825e-07 0.000711334)
(-4.89e-08 -2.49529e-07 -0.000710954)
(0.000631118 -2.11838e-05 -4.64195e-07)
(-2.00931e-06 0.000706598 -9.06426e-07)
(2.95848e-08 2.82552e-07 0.000712242)
(-2.95614e-08 -2.88374e-07 -0.00071178)
(0.000632235 -2.28226e-05 -4.63411e-07)
(-2.34789e-06 0.000706289 -1.16999e-06)
(-1.89622e-08 3.09634e-07 0.000713205)
(1.94084e-08 -3.15066e-07 -0.000712642)
(0.000633516 -2.42323e-05 -4.27928e-07)
(-2.73248e-06 0.000705738 -1.52217e-06)
(-1.22027e-07 3.08829e-07 0.000714167)
(1.22292e-07 -3.13255e-07 -0.000713475)
(0.000634948 -2.52493e-05 -3.6013e-07)
(-3.13846e-06 0.000704838 -2.00973e-06)
(-3.18766e-07 2.57455e-07 0.00071506)
(3.17206e-07 -2.60161e-07 -0.000714181)
(0.000636439 -2.56874e-05 -3.10414e-07)
(-3.45994e-06 0.000703593 -2.71493e-06)
(-6.46259e-07 1.37386e-07 0.000715878)
(6.42376e-07 -1.36945e-07 -0.000714679)
(0.000637606 -2.54931e-05 -4.91392e-07)
(-3.20284e-06 0.00070233 -3.75387e-06)
(-1.00617e-06 -2.7178e-08 0.000716789)
(1.04517e-06 3.6089e-08 -0.000714936)
(-7.43853e-06 0.000697367 -2.77742e-06)
(-3.34481e-06 7.13815e-07 0.000715599)
(6.40836e-06 -1.97133e-06 -0.000712017)
(0.000625457 -2.685e-06 -9.79685e-08)
(-1.47351e-06 0.000711381 -3.70417e-08)
(4.82479e-08 9.96405e-09 0.000710348)
(-4.95371e-08 -1.02466e-08 -0.000710239)
(0.000625894 -5.17451e-06 -1.89344e-07)
(-1.40874e-06 0.00071078 -1.10732e-07)
(4.70819e-08 2.95522e-08 0.000710353)
(-4.83869e-08 -3.04047e-08 -0.000710227)
(0.000626317 -7.44202e-06 -2.74017e-07)
(-1.37131e-06 0.000710102 -1.85589e-07)
(4.8473e-08 4.90155e-08 0.000710274)
(-4.98345e-08 -5.04459e-08 -0.000710132)
(0.000626749 -9.54458e-06 -3.54536e-07)
(-1.40085e-06 0.000709593 -2.66545e-07)
(5.35394e-08 6.9737e-08 0.000710333)
(-5.49879e-08 -7.17666e-08 -0.00071017)
(0.000627205 -1.15332e-05 -4.34816e-07)
(-1.49125e-06 0.00070923 -3.59876e-07)
(6.14408e-08 9.31729e-08 0.000710534)
(-6.30069e-08 -9.58761e-08 -0.000710343)
(0.000627703 -1.34439e-05 -5.16646e-07)
(-1.63888e-06 0.000708981 -4.72339e-07)
(7.11523e-08 1.20614e-07 0.000710872)
(-7.28354e-08 -1.24088e-07 -0.000710645)
(0.000628258 -1.53071e-05 -5.9851e-07)
(-1.84395e-06 0.000708818 -6.1133e-07)
(8.13801e-08 1.53426e-07 0.000711336)
(-8.30495e-08 -1.57714e-07 -0.000711069)
(0.000628886 -1.71504e-05 -6.77866e-07)
(-2.10867e-06 0.000708709 -7.85846e-07)
(8.94642e-08 1.92975e-07 0.000711916)
(-9.0882e-08 -1.98065e-07 -0.000711599)
(0.0006296 -1.89887e-05 -7.47913e-07)
(-2.43495e-06 0.000708606 -1.00721e-06)
(8.99629e-08 2.408e-07 0.000712586)
(-9.0849e-08 -2.46597e-07 -0.000712214)
(0.000630415 -2.08304e-05 -7.97629e-07)
(-2.82396e-06 0.000708446 -1.29032e-06)
(7.31133e-08 2.99033e-07 0.000713301)
(-7.31516e-08 -3.0527e-07 -0.000712867)
(0.000631335 -2.26597e-05 -8.10949e-07)
(-3.26973e-06 0.000708125 -1.65632e-06)
(2.24476e-08 3.71366e-07 0.000713978)
(-2.14553e-08 -3.77414e-07 -0.000713479)
(0.00063235 -2.44253e-05 -7.67823e-07)
(-3.74864e-06 0.000707508 -2.13704e-06)
(-8.81485e-08 4.65866e-07 0.000714498)
(8.98269e-08 -4.70522e-07 -0.000713926)
(0.000633408 -2.60234e-05 -6.56817e-07)
(-4.19783e-06 0.000706437 -2.78503e-06)
(-2.93497e-07 6.01802e-07 0.000714696)
(2.94636e-07 -6.02984e-07 -0.000714031)
(0.000634382 -2.7281e-05 -5.13763e-07)
(-4.43527e-06 0.000704846 -3.69012e-06)
(-6.10913e-07 8.19983e-07 0.000714473)
(6.12023e-07 -8.14595e-07 -0.000713641)
(0.000634966 -2.8028e-05 -5.61839e-07)
(-3.82884e-06 0.000703072 -4.9979e-06)
(-9.06248e-07 1.1669e-06 0.000714103)
(9.48977e-07 -1.16144e-06 -0.000712811)
(-8.86977e-06 0.000698959 -3.57909e-06)
(-2.08312e-06 2.061e-06 0.000711521)
(3.78312e-06 -2.46986e-06 -0.000709978)
(0.000625398 -2.56254e-06 -1.3468e-07)
(-1.86951e-06 0.000713943 -4.69148e-08)
(6.50368e-08 8.90593e-09 0.000712956)
(-6.6805e-08 -9.16239e-09 -0.000712811)
(0.000625776 -4.93519e-06 -2.6077e-07)
(-1.78565e-06 0.000713153 -1.40216e-07)
(6.33581e-08 2.64628e-08 0.000712698)
(-6.51449e-08 -2.72296e-08 -0.000712542)
(0.000626142 -7.09504e-06 -3.77444e-07)
(-1.7353e-06 0.000712263 -2.34827e-07)
(6.5221e-08 4.40254e-08 0.000712332)
(-6.70713e-08 -4.5304e-08 -0.000712166)
(0.000626512 -9.09677e-06 -4.89472e-07)
(-1.76843e-06 0.000711597 -3.36899e-07)
(7.21667e-08 6.28551e-08 0.00071216)
(-7.41549e-08 -6.46888e-08 -0.000711977)
(0.000626899 -1.09838e-05 -6.02725e-07)
(-1.87574e-06 0.000711119 -4.54235e-07)
(8.31427e-08 8.44062e-08 0.000712169)
(-8.53489e-08 -8.68904e-08 -0.000711962)
(0.000627314 -1.27958e-05 -7.18577e-07)
(-2.05216e-06 0.000710796 -5.94932e-07)
(9.72597e-08 1.10237e-07 0.000712341)
(-9.96528e-08 -1.13468e-07 -0.000712102)
(0.000627769 -1.45733e-05 -8.36105e-07)
(-2.29656e-06 0.0007106 -7.67821e-07)
(1.1337e-07 1.42184e-07 0.000712657)
(-1.15792e-07 -1.46251e-07 -0.000712383)
(0.000628272 -1.63545e-05 -9.53717e-07)
(-2.60967e-06 0.000710495 -9.83529e-07)
(1.29187e-07 1.82757e-07 0.000713095)
(-1.31392e-07 -1.87772e-07 -0.00071278)
(0.000628831 -1.81748e-05 -1.06366e-06)
(-2.99195e-06 0.000710433 -1.25524e-06)
(1.40482e-07 2.36266e-07 0.000713615)
(-1.42072e-07 -2.42286e-07 -0.000713257)
(0.000629449 -2.00666e-05 -1.15328e-06)
(-3.4413e-06 0.000710344 -1.60007e-06)
(1.39519e-07 3.10413e-07 0.000714155)
(-1.39954e-07 -3.17283e-07 -0.000713756)
(0.000630124 -2.20654e-05 -1.20246e-06)
(-3.94587e-06 0.000710131 -2.04173e-06)
(1.13836e-07 4.1866e-07 0.000714612)
(-1.12466e-07 -4.25795e-07 -0.000714177)
(0.000630839 -2.41946e-05 -1.18169e-06)
(-4.46719e-06 0.000709643 -2.61502e-06)
(4.58736e-08 5.84914e-07 0.000714829)
(-4.2333e-08 -5.9093e-07 -0.000714372)
(0.000631545 -2.64376e-05 -1.05745e-06)
(-4.90964e-06 0.000708682 -3.37494e-06)
(-8.57894e-08 8.4691e-07 0.000714591)
(9.12494e-08 -8.49328e-07 -0.000714125)
(0.000632149 -2.86597e-05 -8.23614e-07)
(-5.04686e-06 0.000707064 -4.41552e-06)
(-2.84935e-07 1.2485e-06 0.000713714)
(2.93007e-07 -1.24464e-06 -0.000713222)
(0.000632475 -3.05139e-05 -6.25931e-07)
(-4.18924e-06 0.000704926 -5.91235e-06)
(-4.59614e-07 1.783e-06 0.00071244)
(4.93906e-07 -1.78256e-06 -0.000711723)
(-9.42115e-06 0.000702144 -4.23843e-06)
(-9.4115e-07 2.71061e-06 0.000709423)
(1.84468e-06 -3.31265e-06 -0.000709243)
(0.000625324 -2.39579e-06 -1.68579e-07)
(-2.19105e-06 0.000716339 -5.48855e-08)
(8.00998e-08 8.01345e-09 0.000715409)
(-8.23046e-08 -8.24796e-09 -0.000715232)
(0.000625631 -4.61006e-06 -3.26723e-07)
(-2.09044e-06 0.000715368 -1.63919e-07)
(7.80491e-08 2.38615e-08 0.000714879)
(-8.02703e-08 -2.45642e-08 -0.000714697)
(0.000625925 -6.6218e-06 -4.73434e-07)
(-2.02754e-06 0.000714276 -2.74218e-07)
(8.04421e-08 3.98033e-08 0.000714221)
(-8.27527e-08 -4.09984e-08 -0.000714035)
(0.000626219 -8.47785e-06 -6.1586e-07)
(-2.05967e-06 0.000713454 -3.92907e-07)
(8.92106e-08 5.69892e-08 0.000713806)
(-9.17336e-08 -5.87453e-08 -0.000713607)
(0.000626521 -1.02195e-05 -7.60164e-07)
(-2.17492e-06 0.000712863 -5.28733e-07)
(1.03295e-07 7.68432e-08 0.000713606)
(-1.06127e-07 -7.92496e-08 -0.000713388)
(0.000626839 -1.18905e-05 -9.08204e-07)
(-2.36651e-06 0.000712471 -6.90562e-07)
(1.22031e-07 1.00949e-07 0.000713597)
(-1.25142e-07 -1.04119e-07 -0.000713354)
(0.000627176 -1.35324e-05 -1.06142e-06)
(-2.63093e-06 0.000712246 -8.88089e-07)
(1.4466e-07 1.31337e-07 0.000713756)
(-1.47914e-07 -1.35422e-07 -0.000713482)
(0.000627536 -1.51867e-05 -1.2197e-06)
(-2.96601e-06 0.000712155 -1.13277e-06)
(1.70091e-07 1.7121e-07 0.00071405)
(-1.73256e-07 -1.76383e-07 -0.000713742)
(0.000627916 -1.69031e-05 -1.37663e-06)
(-3.36928e-06 0.000712155 -1.43851e-06)
(1.96542e-07 2.26181e-07 0.000714431)
(-1.9912e-07 -2.32589e-07 -0.000714091)
(0.000628311 -1.87417e-05 -1.52054e-06)
(-3.83593e-06 0.00071219 -1.82335e-06)
(2.2043e-07 3.06122e-07 0.000714833)
(-2.21671e-07 -3.13789e-07 -0.000714465)
(0.000628718 -2.0784e-05 -1.6318e-06)
(-4.35339e-06 0.000712181 -2.31279e-06)
(2.36212e-07 4.27876e-07 0.000715156)
(-2.34967e-07 -4.36483e-07 -0.000714774)
(0.000629126 -2.31343e-05 -1.67463e-06)
(-4.88105e-06 0.000712002 -2.94451e-06)
(2.38376e-07 6.19312e-07 0.000715253)
(-2.33222e-07 -6.27625e-07 -0.000714881)
(0.00062952 -2.58744e-05 -1.59453e-06)
(-5.31312e-06 0.000711428 -3.77775e-06)
(2.17322e-07 9.21053e-07 0.000714892)
(-2.0747e-07 -9.26636e-07 -0.000714569)
(0.000629862 -2.8934e-05 -1.33145e-06)
(-5.40318e-06 0.000710124 -4.9135e-06)
(1.62375e-07 1.37088e-06 0.000713792)
(-1.47601e-07 -1.37107e-06 -0.000713557)
(0.000630054 -3.17904e-05 -8.70531e-07)
(-4.4058e-06 0.000707785 -6.54641e-06)
(7.203e-08 1.93822e-06 0.000711871)
(-4.79977e-08 -1.94104e-06 -0.000711698)
(-9.66552e-06 0.000706617 -4.59959e-06)
(9.53186e-08 2.76061e-06 0.000708935)
(-8.3553e-08 -3.21804e-06 -0.000710549)
(0.000625239 -2.18816e-06 -1.99502e-07)
(-2.427e-06 0.000718528 -6.06649e-08)
(9.37287e-08 7.29142e-09 0.000717666)
(-9.63365e-08 -7.51027e-09 -0.000717461)
(0.000625464 -4.2065e-06 -3.86381e-07)
(-2.31285e-06 0.000717387 -1.81028e-07)
(9.13738e-08 2.16976e-08 0.000716862)
(-9.40026e-08 -2.23588e-08 -0.000716658)
(0.000625677 -6.03187e-06 -5.60512e-07)
(-2.2382e-06 0.000716103 -3.02445e-07)
(9.42656e-08 3.61488e-08 0.000715911)
(-9.70231e-08 -3.72759e-08 -0.000715708)
(0.000625886 -7.70724e-06 -7.30004e-07)
(-2.26576e-06 0.000715131 -4.3258e-07)
(1.04728e-07 5.16786e-08 0.000715245)
(-1.07765e-07 -5.33205e-08 -0.000715036)
(0.000626096 -9.2727e-06 -9.0053e-07)
(-2.38111e-06 0.000714431 -5.80629e-07)
(1.2175e-07 6.95792e-08 0.000714829)
(-1.25191e-07 -7.1826e-08 -0.000714607)
(0.000626308 -1.07631e-05 -1.07707e-06)
(-2.57446e-06 0.000713964 -7.55836e-07)
(1.44921e-07 9.13383e-08 0.000714632)
(-1.48768e-07 -9.43271e-08 -0.00071439)
(0.00062652 -1.22107e-05 -1.26388e-06)
(-2.83913e-06 0.000713697 -9.68129e-07)
(1.74057e-07 1.18952e-07 0.00071462)
(-1.78197e-07 -1.22851e-07 -0.000714353)
(0.000626728 -1.3654e-05 -1.46198e-06)
(-3.16956e-06 0.000713603 -1.22883e-06)
(2.09465e-07 1.55487e-07 0.000714758)
(-2.13705e-07 -1.60523e-07 -0.000714464)
(0.000626922 -1.51445e-05 -1.66856e-06)
(-3.55959e-06 0.000713652 -1.55154e-06)
(2.51899e-07 2.0607e-07 0.000714999)
(-2.55719e-07 -2.12531e-07 -0.000714679)
(0.00062709 -1.67585e-05 -1.87556e-06)
(-4.00153e-06 0.000713813 -1.95394e-06)
(3.02078e-07 2.79336e-07 0.000715284)
(-3.04575e-07 -2.87463e-07 -0.000714947)
(0.000627222 -1.86095e-05 -2.0684e-06)
(-4.48553e-06 0.000714042 -2.46193e-06)
(3.61107e-07 3.89297e-07 0.00071554)
(-3.60732e-07 -3.99111e-07 -0.000715198)
(0.000627317 -2.0857e-05 -2.21447e-06)
(-4.98235e-06 0.00071426 -3.11609e-06)
(4.34116e-07 5.58078e-07 0.000715652)
(-4.28406e-07 -5.69024e-07 -0.000715335)
(0.000627404 -2.36893e-05 -2.25421e-06)
(-5.41264e-06 0.000714271 -3.98472e-06)
(5.22796e-07 8.192e-07 0.000715423)
(-5.09642e-07 -8.29464e-07 -0.000715176)
(0.00062754 -2.72169e-05 -2.08167e-06)
(-5.56165e-06 0.000713657 -5.18816e-06)
(6.0488e-07 1.20773e-06 0.000714521)
(-5.83265e-07 -1.21373e-06 -0.000714419)
(0.000627747 -3.09677e-05 -1.4451e-06)
(-4.62981e-06 0.000711541 -6.93933e-06)
(5.83368e-07 1.70723e-06 0.000712363)
(-5.65415e-07 -1.71262e-06 -0.000712607)
(-9.92355e-06 0.000712975 -4.79781e-06)
(1.00393e-06 2.43347e-06 0.000710376)
(-1.70858e-06 -2.77489e-06 -0.000713945)
(0.000625146 -1.94693e-06 -2.2637e-07)
(-2.56993e-06 0.000720475 -6.40341e-08)
(1.06117e-07 6.62491e-09 0.000719693)
(-1.09095e-07 -6.82224e-09 -0.000719463)
(0.000625283 -3.73826e-06 -4.37938e-07)
(-2.44645e-06 0.000719179 -1.90929e-07)
(1.03429e-07 1.96624e-08 0.000718619)
(-1.06433e-07 -2.02546e-08 -0.000718398)
(0.00062541 -5.35029e-06 -6.3548e-07)
(-2.36229e-06 0.000717716 -3.18598e-07)
(1.0669e-07 3.26132e-08 0.000717379)
(-1.09856e-07 -3.36178e-08 -0.000717165)
(0.000625531 -6.81919e-06 -8.26653e-07)
(-2.38307e-06 0.000716602 -4.54832e-07)
(1.18588e-07 4.63693e-08 0.000716464)
(-1.22089e-07 -4.78347e-08 -0.000716251)
(0.000625645 -8.17342e-06 -1.01814e-06)
(-2.49166e-06 0.000715787 -6.08813e-07)
(1.38135e-07 6.20343e-08 0.000715828)
(-1.42143e-07 -6.40458e-08 -0.000715609)
(0.00062575 -9.43509e-06 -1.21881e-06)
(-2.675e-06 0.000715228 -7.89779e-07)
(1.65173e-07 8.08394e-08 0.00071543)
(-1.69718e-07 -8.35227e-08 -0.000715196)
(0.000625839 -1.06273e-05 -1.43418e-06)
(-2.92285e-06 0.000714893 -1.0072e-06)
(2.0003e-07 1.04379e-07 0.000715229)
(-2.05032e-07 -1.07905e-07 -0.000714975)
(0.000625901 -1.17784e-05 -1.6668e-06)
(-3.22576e-06 0.000714759 -1.27136e-06)
(2.44035e-07 1.34901e-07 0.000715188)
(-2.49374e-07 -1.39507e-07 -0.000714913)
(0.000625919 -1.29269e-05 -1.91765e-06)
(-3.57281e-06 0.000714807 -1.59447e-06)
(2.99739e-07 1.75747e-07 0.000715266)
(-3.04929e-07 -1.81748e-07 -0.000714973)
(0.000625873 -1.4131e-05 -2.18362e-06)
(-3.95136e-06 0.000715024 -1.99213e-06)
(3.70719e-07 2.31951e-07 0.000715418)
(-3.74776e-07 -2.39697e-07 -0.000715114)
(0.000625739 -1.54881e-05 -2.45864e-06)
(-4.35054e-06 0.000715409 -2.48776e-06)
(4.62165e-07 3.10862e-07 0.000715596)
(-4.6341e-07 -3.2076e-07 -0.000715295)
(0.000625506 -1.71439e-05 -2.72542e-06)
(-4.75406e-06 0.000715929 -3.12106e-06)
(5.85278e-07 4.226e-07 0.000715721)
(-5.80791e-07 -4.35149e-07 -0.000715449)
(0.000625213 -1.93337e-05 -2.94558e-06)
(-5.13327e-06 0.000716475 -3.96748e-06)
(7.50761e-07 5.82149e-07 0.000715657)
(-7.36984e-07 -5.97266e-07 -0.000715454)
(0.000625025 -2.24054e-05 -3.01636e-06)
(-5.40051e-06 0.000716745 -5.18144e-06)
(9.35883e-07 8.12571e-07 0.000715156)
(-9.09168e-07 -8.27962e-07 -0.000715092)
(0.000625272 -2.64256e-05 -2.47127e-06)
(-4.89464e-06 0.000715575 -7.04622e-06)
(9.95974e-07 1.13915e-06 0.000713342)
(-9.77808e-07 -1.15301e-06 -0.00071378)
(-1.12309e-05 0.000724 -4.84506e-06)
(1.90549e-06 1.81563e-06 0.000715419)
(-3.18741e-06 -2.07009e-06 -0.000721192)
(0.000625049 -1.67708e-06 -2.48268e-07)
(1.17318e-07 5.97072e-09 0.000721459)
(-1.20628e-07 -6.14621e-09 -0.00072121)
(-2.61612e-06 0.000722152 -6.49713e-08)
(0.000625095 -3.21975e-06 -4.7969e-07)
(1.1424e-07 1.76696e-08 0.00072013)
(-1.17571e-07 -1.81883e-08 -0.000719896)
(-2.48868e-06 0.000720723 -1.93566e-07)
(0.000625135 -4.60166e-06 -6.95405e-07)
(1.17667e-07 2.91187e-08 0.000718615)
(-1.21188e-07 -2.99864e-08 -0.000718395)
(-2.39879e-06 0.000719099 -3.22569e-07)
(0.000625168 -5.84345e-06 -9.03026e-07)
(1.3064e-07 4.10148e-08 0.000717455)
(-1.34553e-07 -4.22768e-08 -0.000717243)
(-2.41195e-06 0.000717845 -4.59669e-07)
(0.00062519 -6.95921e-06 -1.11138e-06)
(1.52115e-07 5.42114e-08 0.000716594)
(-1.56614e-07 -5.59332e-08 -0.000716381)
(-2.5089e-06 0.000716905 -6.13792e-07)
(0.000625194 -7.96153e-06 -1.33052e-06)
(1.8205e-07 6.95104e-08 0.000715981)
(-1.87202e-07 -7.17851e-08 -0.000715758)
(-2.67401e-06 0.000716233 -7.93576e-07)
(0.00062517 -8.8627e-06 -1.56626e-06)
(2.21091e-07 8.78439e-08 0.000715571)
(-2.26867e-07 -9.08217e-08 -0.000715335)
(-2.89345e-06 0.000715797 -1.00743e-06)
(0.000625104 -9.67393e-06 -1.8232e-06)
(2.71025e-07 1.10348e-07 0.000715325)
(-2.77333e-07 -1.14206e-07 -0.000715075)
(-3.15281e-06 0.000715574 -1.26405e-06)
(0.000624972 -1.04085e-05 -2.1041e-06)
(3.35005e-07 1.38212e-07 0.000715203)
(-3.41406e-07 -1.43153e-07 -0.000714943)
(-3.43494e-06 0.000715546 -1.57319e-06)
(0.000624745 -1.10844e-05 -2.41049e-06)
(4.17438e-07 1.72477e-07 0.000715164)
(-4.23004e-07 -1.78821e-07 -0.000714903)
(-3.71891e-06 0.000715707 -1.94657e-06)
(0.000624378 -1.17258e-05 -2.74422e-06)
(5.24328e-07 2.13577e-07 0.000715164)
(-5.27526e-07 -2.2188e-07 -0.000714917)
(-3.97996e-06 0.000716059 -2.40059e-06)
(0.000623806 -1.23641e-05 -3.10347e-06)
(6.66065e-07 2.58709e-07 0.000715108)
(-6.64203e-07 -2.70001e-07 -0.000714909)
(-4.18389e-06 0.000716578 -2.96138e-06)
(0.000622934 -1.30677e-05 -3.4801e-06)
(8.52082e-07 2.97281e-07 0.000714808)
(-8.41307e-07 -3.13361e-07 -0.000714723)
(-4.27189e-06 0.000717195 -3.67556e-06)
(0.000621608 -1.40118e-05 -3.827e-06)
(1.06028e-06 3.10552e-07 0.000713828)
(-1.03607e-06 -3.34595e-07 -0.000714031)
(-4.09935e-06 0.000717713 -4.63166e-06)
(0.000619667 -1.59222e-05 -3.76065e-06)
(1.16486e-06 3.05702e-07 0.000710863)
(-1.14513e-06 -3.35175e-07 -0.000712012)
(-2.97316e-06 0.000717515 -5.96393e-06)
(2.92876e-06 8.7388e-07 0.000726278)
(-4.64759e-06 -1.05038e-06 -0.000734772)
(-1.72913e-05 0.000745679 -4.12762e-06)
(0.000625542 -2.84127e-06 -1.69068e-08)
(-5.4165e-07 0.000705967 -1.19323e-08)
(9.4579e-09 1.06401e-08 0.000704865)
(0.000626062 -5.4744e-06 -3.2745e-08)
(-5.1929e-07 0.00070576 -3.56859e-08)
(9.28465e-09 3.17229e-08 0.000705369)
(0.000626571 -7.87439e-06 -4.71953e-08)
(-5.08275e-07 0.000705529 -5.97742e-08)
(9.6028e-09 5.29601e-08 0.000705841)
(0.000627095 -1.00982e-05 -6.05248e-08)
(-5.22963e-07 0.000705354 -8.5672e-08)
(1.06202e-08 7.56855e-08 0.000706345)
(0.000627657 -1.21923e-05 -7.33146e-08)
(-5.61453e-07 0.000705226 -1.15214e-07)
(1.21924e-08 1.01306e-07 0.000706905)
(0.000628281 -1.41967e-05 -8.55525e-08)
(-6.23623e-07 0.000705138 -1.50213e-07)
(1.40561e-08 1.30776e-07 0.000707543)
(0.000628992 -1.61386e-05 -9.67068e-08)
(-7.09913e-07 0.000705077 -1.92609e-07)
(1.57627e-08 1.64257e-07 0.000708281)
(0.000629815 -1.80273e-05 -1.06063e-07)
(-8.21984e-07 0.000705025 -2.44475e-07)
(1.65483e-08 2.00572e-07 0.000709139)
(0.000630778 -1.98518e-05 -1.12424e-07)
(-9.62816e-07 0.000704962 -3.07793e-07)
(1.49573e-08 2.36094e-07 0.000710139)
(0.000631911 -2.15641e-05 -1.13899e-07)
(-1.13504e-06 0.000704848 -3.84382e-07)
(8.35087e-09 2.62691e-07 0.000711296)
(0.000633251 -2.30772e-05 -1.09443e-07)
(-1.34414e-06 0.000704643 -4.7541e-07)
(-8.10541e-09 2.64038e-07 0.000712629)
(0.000634834 -2.42544e-05 -1.00573e-07)
(-1.59621e-06 0.000704287 -5.78819e-07)
(-4.20196e-08 2.10191e-07 0.000714157)
(0.000636692 -2.4923e-05 -9.71843e-08)
(-1.89271e-06 0.000703726 -6.81586e-07)
(-1.04015e-07 5.12983e-08 0.000715911)
(0.000638809 -2.4971e-05 -1.24938e-07)
(-2.20146e-06 0.000702976 -7.40103e-07)
(-1.98819e-07 -2.79404e-07 0.000717938)
(0.000640888 -2.45696e-05 -2.09553e-07)
(-2.25503e-06 0.000702242 -6.68131e-07)
(-2.84705e-07 -8.09447e-07 0.00072021)
(-6.08785e-06 0.000701078 -4.40654e-07)
(-9.49041e-07 -2.14367e-06 0.000725017)
(0.000625521 -2.80192e-06 -5.07376e-08)
(-1.06076e-06 0.00070877 -2.34102e-08)
(2.79148e-08 1.01223e-08 0.00070769)
(0.00062602 -5.40058e-06 -9.83562e-08)
(-1.0164e-06 0.000708361 -6.99359e-08)
(2.73141e-08 3.00741e-08 0.000707962)
(0.000626507 -7.76988e-06 -1.41974e-07)
(-9.93785e-07 0.000707901 -1.16986e-07)
(2.81799e-08 4.99753e-08 0.000708176)
(0.000627008 -9.96566e-06 -1.82529e-07)
(-1.02112e-06 0.000707555 -1.67468e-07)
(3.11509e-08 7.11522e-08 0.000708476)
(0.000627543 -1.20385e-05 -2.21487e-07)
(-1.09489e-06 0.000707305 -2.24957e-07)
(3.57803e-08 9.50102e-08 0.000708876)
(0.000628136 -1.40285e-05 -2.58944e-07)
(-1.21387e-06 0.000707136 -2.93099e-07)
(4.1345e-08 1.22568e-07 0.000709391)
(0.000628807 -1.59618e-05 -2.93465e-07)
(-1.37873e-06 0.00070702 -3.75588e-07)
(4.67983e-08 1.54469e-07 0.000710023)
(0.00062958 -1.78531e-05 -3.22855e-07)
(-1.59262e-06 0.000706929 -4.76156e-07)
(5.02252e-08 1.90791e-07 0.000710776)
(0.000630477 -1.96996e-05 -3.43075e-07)
(-1.85911e-06 0.000706822 -5.98653e-07)
(4.7815e-08 2.3025e-07 0.000711645)
(0.00063152 -2.14759e-05 -3.48324e-07)
(-2.18181e-06 0.000706638 -7.46424e-07)
(3.26686e-08 2.68887e-07 0.00071261)
(0.000632729 -2.31175e-05 -3.35493e-07)
(-2.56412e-06 0.000706295 -9.20568e-07)
(-7.26151e-09 2.98546e-07 0.000713637)
(0.000634103 -2.45103e-05 -3.05228e-07)
(-3.0022e-06 0.000705683 -1.11476e-06)
(-9.00042e-08 3.05675e-07 0.000714672)
(0.000635599 -2.54871e-05 -2.78793e-07)
(-3.46946e-06 0.000704688 -1.30092e-06)
(-2.38193e-07 2.72467e-07 0.000715653)
(0.00063705 -2.58714e-05 -3.18103e-07)
(-3.84421e-06 0.000703312 -1.39488e-06)
(-4.54745e-07 1.86193e-07 0.000716572)
(0.000638037 -2.56508e-05 -4.8703e-07)
(-3.61906e-06 0.000701927 -1.24653e-06)
(-6.2867e-07 6.66782e-08 0.000717536)
(-5.49503e-06 0.000697957 -4.54944e-07)
(-1.59069e-06 3.78076e-07 0.000716538)
(0.000625478 -2.72073e-06 -8.42661e-08)
(-1.53607e-06 0.000711491 -3.39085e-08)
(4.51979e-08 9.31424e-09 0.000710443)
(0.000625936 -5.24365e-06 -1.63139e-07)
(-1.47065e-06 0.000710886 -1.0124e-07)
(4.40663e-08 2.76227e-08 0.000710463)
(0.000626381 -7.54214e-06 -2.35666e-07)
(-1.43572e-06 0.000710203 -1.69264e-07)
(4.53684e-08 4.58201e-08 0.000710399)
(0.000626836 -9.67475e-06 -3.03843e-07)
(-1.47261e-06 0.000709692 -2.42183e-07)
(5.01791e-08 6.5215e-08 0.000710476)
(0.00062732 -1.16942e-05 -3.69904e-07)
(-1.57552e-06 0.000709331 -3.2508e-07)
(5.7724e-08 8.7176e-08 0.0007107)
(0.000627851 -1.36365e-05 -4.34037e-07)
(-1.74101e-06 0.000709086 -4.23073e-07)
(6.7116e-08 1.12929e-07 0.000711066)
(0.000628446 -1.55317e-05 -4.9404e-07)
(-1.96958e-06 0.000708925 -5.41191e-07)
(7.72018e-08 1.438e-07 0.000711562)
(0.000629122 -1.74068e-05 -5.4623e-07)
(-2.26458e-06 0.000708816 -6.84482e-07)
(8.56522e-08 1.8118e-07 0.000712177)
(0.000629894 -1.92746e-05 -5.83681e-07)
(-2.62896e-06 0.000708704 -8.58063e-07)
(8.78587e-08 2.2663e-07 0.000712883)
(0.000630775 -2.11411e-05 -5.97205e-07)
(-3.0652e-06 0.000708522 -1.06606e-06)
(7.5377e-08 2.82084e-07 0.000713634)
(0.000631767 -2.29837e-05 -5.78851e-07)
(-3.56818e-06 0.000708159 -1.30858e-06)
(3.45541e-08 3.5069e-07 0.000714348)
(0.000632843 -2.47409e-05 -5.21674e-07)
(-4.11281e-06 0.000707467 -1.5738e-06)
(-5.39005e-08 4.38526e-07 0.0007149)
(0.00063392 -2.62905e-05 -4.4056e-07)
(-4.62898e-06 0.000706282 -1.81849e-06)
(-2.10351e-07 5.57578e-07 0.000715132)
(0.0006348 -2.7433e-05 -3.99857e-07)
(-4.90904e-06 0.000704546 -1.92421e-06)
(-4.26115e-07 7.28046e-07 0.000714961)
(0.000635173 -2.79857e-05 -4.82803e-07)
(-4.32758e-06 0.000702687 -1.69719e-06)
(-5.71221e-07 9.60248e-07 0.000714637)
(-6.18505e-06 0.000699015 -6.12391e-07)
(-1.0046e-06 1.41239e-06 0.000712403)
(0.000625417 -2.5956e-06 -1.16231e-07)
(-1.94859e-06 0.000714087 -4.29847e-08)
(6.09027e-08 8.33697e-09 0.000713081)
(0.000625814 -4.99969e-06 -2.24902e-07)
(-1.86392e-06 0.000713292 -1.28342e-07)
(5.92839e-08 2.47663e-08 0.000712833)
(0.000626199 -7.18874e-06 -3.25082e-07)
(-1.81657e-06 0.000712395 -2.14508e-07)
(6.10411e-08 4.12011e-08 0.000712478)
(0.00062659 -9.21977e-06 -4.20349e-07)
(-1.85882e-06 0.000711727 -3.06683e-07)
(6.76276e-08 5.88334e-08 0.000712319)
(0.000627001 -1.11376e-05 -5.13995e-07)
(-1.98156e-06 0.000711254 -4.11202e-07)
(7.80615e-08 7.90143e-08 0.000712349)
(0.000627445 -1.29809e-05 -6.05752e-07)
(-2.17961e-06 0.000710936 -5.34173e-07)
(9.16063e-08 1.03194e-07 0.000712543)
(0.000627934 -1.47912e-05 -6.92897e-07)
(-2.45245e-06 0.000710745 -6.81509e-07)
(1.07287e-07 1.33125e-07 0.000712884)
(0.000628477 -1.66069e-05 -7.70696e-07)
(-2.80182e-06 0.000710643 -8.5917e-07)
(1.23146e-07 1.71192e-07 0.000713348)
(0.000629083 -1.84632e-05 -8.30331e-07)
(-3.22924e-06 0.000710575 -1.07287e-06)
(1.35571e-07 2.21304e-07 0.00071389)
(0.000629753 -2.03907e-05 -8.59811e-07)
(-3.73385e-06 0.000710469 -1.3269e-06)
(1.37778e-07 2.90287e-07 0.000714445)
(0.000630483 -2.24198e-05 -8.43039e-07)
(-4.30393e-06 0.000710216 -1.62033e-06)
(1.19534e-07 3.89883e-07 0.000714907)
(0.000631247 -2.45633e-05 -7.61717e-07)
(-4.8975e-06 0.000709656 -1.93682e-06)
(6.70499e-08 5.39374e-07 0.000715111)
(0.000631973 -2.67766e-05 -6.06766e-07)
(-5.40664e-06 0.000708577 -2.22096e-06)
(-3.4244e-08 7.64715e-07 0.000714839)
(0.00063253 -2.88773e-05 -4.1289e-07)
(-5.57446e-06 0.00070681 -2.3286e-06)
(-1.77283e-07 1.08531e-06 0.000713924)
(0.000632764 -3.04678e-05 -2.75903e-07)
(-4.74258e-06 0.000704593 -2.03599e-06)
(-2.7797e-07 1.4675e-06 0.000712642)
(-6.28424e-06 0.000701454 -7.75527e-07)
(-4.61239e-07 1.96178e-06 0.000709856)
(0.00062534 -2.42609e-06 -1.45598e-07)
(-2.28337e-06 0.000716514 -5.03126e-08)
(7.50004e-08 7.49779e-09 0.000715561)
(0.000625663 -4.66929e-06 -2.82328e-07)
(-2.18175e-06 0.000715536 -1.50196e-07)
(7.30141e-08 2.23106e-08 0.000715037)
(0.000625973 -6.70856e-06 -4.08772e-07)
(-2.12213e-06 0.000714437 -2.50856e-07)
(7.52668e-08 3.71872e-08 0.000714384)
(0.000626285 -8.59238e-06 -5.30154e-07)
(-2.1646e-06 0.000713614 -3.58219e-07)
(8.35577e-08 5.32107e-08 0.000713978)
(0.000626607 -1.03615e-05 -6.50211e-07)
(-2.29707e-06 0.000713028 -4.79432e-07)
(9.68908e-08 7.17119e-08 0.000713795)
(0.000626947 -1.20604e-05 -7.68151e-07)
(-2.51266e-06 0.000712642 -6.21181e-07)
(1.14746e-07 9.41637e-08 0.000713802)
(0.000627311 -1.37334e-05 -8.82119e-07)
(-2.80848e-06 0.000712426 -7.89908e-07)
(1.36558e-07 1.22469e-07 0.000713978)
(0.000627701 -1.5423e-05 -9.87526e-07)
(-3.18321e-06 0.000712344 -9.91966e-07)
(1.61408e-07 1.59584e-07 0.000714288)
(0.000628116 -1.71802e-05 -1.07472e-06)
(-3.63526e-06 0.000712348 -1.23321e-06)
(1.87785e-07 2.10571e-07 0.000714679)
(0.000628551 -1.90649e-05 -1.12893e-06)
(-4.16112e-06 0.000712376 -1.51787e-06)
(2.12558e-07 2.84237e-07 0.000715078)
(0.000629001 -2.11581e-05 -1.12729e-06)
(-4.74866e-06 0.000712342 -1.84459e-06)
(2.31128e-07 3.95118e-07 0.000715379)
(0.000629456 -2.35533e-05 -1.03627e-06)
(-5.35265e-06 0.000712105 -2.19486e-06)
(2.38144e-07 5.6609e-07 0.00071542)
(0.000629897 -2.63055e-05 -8.11853e-07)
(-5.85285e-06 0.000711424 -2.50618e-06)
(2.22663e-07 8.26594e-07 0.000714953)
(0.000630283 -2.92876e-05 -4.37859e-07)
(-5.96996e-06 0.00070997 -2.61867e-06)
(1.72242e-07 1.1927e-06 0.000713708)
(0.000630526 -3.18699e-05 -9.70991e-09)
(-5.00063e-06 0.0007075 -2.2873e-06)
(8.71373e-08 1.61312e-06 0.000711694)
(-6.15053e-06 0.00070502 -9.38909e-07)
(3.99079e-08 2.08142e-06 0.000708841)
(0.000625251 -2.21558e-06 -1.72334e-07)
(-2.52884e-06 0.00071873 -5.56383e-08)