/*--------------------------------*- C++ -*----------------------------------*\
| =========                 |                                                 |
| \\      /  F ield         | foam-extend: Open Source CFD                    |
|  \\    /   O peration     | Version:     3.1                                |
|   \\  /    A nd           | Web:         http://www.extend-project.de       |
|    \\/     M anipulation  |                                                 |
\*---------------------------------------------------------------------------*/
FoamFile
{
    version     2.0;
    format      ascii;
    class       volVectorField;
    location    "3.8";
    object      U;
}
// * * * * * * * * * * * * * * * * * * * * * * * * * * * * * * * * * * * * * //

dimensions      [0 1 -1 0 0 0 0];

internalField   nonuniform List<vector> 
14592
(
(0.018996 -8.94086e-05 -0.00173049)
(0.0189294 4.29704e-05 -0.00311422)
(0.0186673 0.000146539 -0.00392511)
(0.0182295 0.000204383 -0.00462849)
(0.0176534 0.000247443 -0.00540815)
(0.0169601 0.000284421 -0.00636206)
(0.0161739 0.000312131 -0.00755856)
(0.0153356 0.000321937 -0.0090603)
(0.0145084 0.000299615 -0.0109418)
(0.0137828 0.000222969 -0.0133072)
(0.0132874 5.629e-05 -0.0163119)
(0.0132007 -0.00025279 -0.0201874)
(0.013754 -0.000761132 -0.0252266)
(0.0149883 -0.00137595 -0.0315094)
(0.0155075 -0.00128584 -0.0374775)
(0.0115435 0.000766955 -0.0324467)
(0.0529305 -1.1034e-05 -0.00206233)
(0.0526642 0.000280655 -0.00479782)
(0.0521079 0.000604689 -0.00679154)
(0.0512718 0.00088976 -0.0085347)
(0.0501719 0.0011451 -0.0103483)
(0.048807 0.00137079 -0.0124537)
(0.0471933 0.00155076 -0.0150141)
(0.0453747 0.00165821 -0.0181659)
(0.0434233 0.00165473 -0.0220514)
(0.0414361 0.00148346 -0.0268553)
(0.0395294 0.00105081 -0.0328498)
(0.0378176 0.000206506 -0.0404423)
(0.0363764 -0.00125456 -0.0501418)
(0.0349084 -0.00334552 -0.0618977)
(0.0308179 -0.00461569 -0.0716767)
(0.0185724 -0.00148794 -0.0563019)
(0.0821885 0.000136814 -0.00166338)
(0.0819017 0.000604479 -0.00446281)
(0.0813002 0.00114555 -0.00683467)
(0.0804156 0.00168927 -0.00903094)
(0.079258 0.0022191 -0.0113084)
(0.0777909 0.00271894 -0.0139046)
(0.0759836 0.00315708 -0.0170276)
(0.0738254 0.00348843 -0.0208604)
(0.0713275 0.003653 -0.0255824)
(0.0685143 0.00356849 -0.0314078)
(0.0654061 0.00310256 -0.0386416)
(0.0619669 0.0020354 -0.0477612)
(0.0580268 7.045e-06 -0.0594712)
(0.0529968 -0.00332142 -0.0741069)
(0.0433558 -0.00656635 -0.0869918)
(0.0225627 -0.00399357 -0.0677661)
(0.106593 0.00025395 -0.00130836)
(0.106352 0.000882179 -0.00372477)
(0.105817 0.00159536 -0.00595234)
(0.105035 0.00234875 -0.00812202)
(0.10403 0.00312015 -0.0104074)
(0.102753 0.00388902 -0.0130122)
(0.101131 0.00462075 -0.0161526)
(0.0990883 0.00526678 -0.0200425)
(0.0965507 0.00576246 -0.0248984)
(0.0934407 0.00602395 -0.030966)
(0.0896623 0.0059181 -0.0385746)
(0.0850246 0.00522754 -0.048241)
(0.0791292 0.00354034 -0.0608474)
(0.0711888 0.000182739 -0.0774441)
(0.0565437 -0.00442545 -0.0939661)
(0.0266156 -0.00447613 -0.0748507)
(0.126114 0.000343922 -0.00108263)
(0.125922 0.00110713 -0.00311885)
(0.125475 0.001946 -0.00505427)
(0.124826 0.0028444 -0.00698911)
(0.124017 0.00378994 -0.00905177)
(0.123007 0.0047717 -0.01141)
(0.121709 0.00576898 -0.01427)
(0.120003 0.00675086 -0.0178629)
(0.117746 0.00767233 -0.0224411)
(0.114766 0.008479 -0.0282935)
(0.110855 0.00907477 -0.0357907)
(0.105679 0.00931547 -0.0454949)
(0.0986124 0.00886796 -0.0583742)
(0.0887741 0.0070354 -0.0762809)
(0.0705079 0.00287763 -0.096566)
(0.0313239 -0.00107371 -0.0793852)
(0.14075 0.000414441 -0.000937166)
(0.140599 0.00128806 -0.0026913)
(0.140238 0.00222038 -0.00436187)
(0.13972 0.00321716 -0.00604027)
(0.1391 0.00428082 -0.0078322)
(0.138353 0.00541666 -0.00987683)
(0.137397 0.00662734 -0.0123611)
(0.136101 0.00791462 -0.0155161)
(0.134291 0.00927341 -0.0196141)
(0.131732 0.0107098 -0.0249786)
(0.128147 0.0122013 -0.0320177)
(0.12309 0.0137592 -0.0413456)
(0.115759 0.0152095 -0.0539181)
(0.105215 0.0163537 -0.0722009)
(0.0854683 0.0152319 -0.0957808)
(0.0373677 0.00768847 -0.0814483)
(0.150505 0.000466673 -0.000835699)
(0.150387 0.00142192 -0.00238619)
(0.150111 0.00241829 -0.00385111)
(0.149725 0.0034768 -0.00531375)
(0.149291 0.00461414 -0.00686521)
(0.148799 0.00585224 -0.00862221)
(0.148186 0.00721831 -0.0107485)
(0.147326 0.00875048 -0.0134594)
(0.146056 0.0104907 -0.0170225)
(0.144123 0.0125218 -0.021766)
(0.141268 0.0149121 -0.0280984)
(0.136966 0.0179121 -0.036643)
(0.130506 0.0215596 -0.0482629)
(0.120445 0.0267838 -0.0655205)
(0.102938 0.0321156 -0.0913062)
(0.0469771 0.0248712 -0.0799395)
(0.155381 0.00049973 -0.00076101)
(0.155293 0.00150224 -0.00216065)
(0.155099 0.00252859 -0.00346863)
(0.154851 0.00361054 -0.00475968)
(0.154614 0.00477701 -0.0061139)
(0.154388 0.00606438 -0.00763121)
(0.154129 0.00752097 -0.00945375)
(0.153732 0.00921555 -0.0117724)
(0.153072 0.0112311 -0.0148301)
(0.151913 0.0137146 -0.0189228)
(0.150136 0.0168128 -0.0244135)
(0.147157 0.0209835 -0.0318207)
(0.143123 0.0265407 -0.0418842)
(0.134731 0.0353169 -0.0561563)
(0.127366 0.0522703 -0.0819802)
(0.0664735 0.0520333 -0.0716986)
(0.0202977 -0.000109485 -0.00167396)
(0.0201605 1.74179e-05 -0.00303088)
(0.0197708 0.00012481 -0.00383999)
(0.0191618 0.000182019 -0.00454669)
(0.0183763 0.000221502 -0.00532775)
(0.0174285 0.000253328 -0.00627902)
(0.0163313 0.000274258 -0.00746804)
(0.0151096 0.000275005 -0.00895528)
(0.0138059 0.000240014 -0.0108083)
(0.0124815 0.000144992 -0.0131141)
(0.0112198 -4.86552e-05 -0.0159893)
(0.010125 -0.000397866 -0.0195751)
(0.0093079 -0.000969141 -0.0239478)
(0.00862392 -0.00170424 -0.0287091)
(0.00702241 -0.00215268 -0.0315719)
(0.00379742 -0.00153072 -0.0236413)
(0.0566165 -3.43921e-05 -0.00194891)
(0.0562328 0.000232889 -0.00458843)
(0.0554546 0.000549033 -0.00654261)
(0.0543004 0.000827087 -0.00826155)
(0.0527953 0.00107316 -0.0100452)
(0.0509265 0.00128672 -0.0121063)
(0.0486879 0.00144912 -0.0146058)
(0.046093 0.00152873 -0.0176773)
(0.0431754 0.00147956 -0.0214524)
(0.0399805 0.00123332 -0.0260857)
(0.0365523 0.00067926 -0.031777)
(0.0328954 -0.000356232 -0.0387613)
(0.0289315 -0.00209383 -0.0471046)
(0.0240876 -0.0045164 -0.0557328)
(0.0165821 -0.00640988 -0.0594309)
(0.00706096 -0.00472059 -0.0412143)
(0.0879369 0.00012118 -0.00154533)
(0.0875449 0.000559652 -0.00420481)
(0.0867211 0.00108234 -0.00649781)
(0.0854941 0.00161277 -0.00863855)
(0.0838832 0.00213049 -0.0108551)
(0.0818417 0.00261715 -0.0133677)
(0.0793135 0.00303593 -0.0163778)
(0.0762498 0.00333259 -0.020066)
(0.072609 0.00343311 -0.0246048)
(0.0683438 0.00323441 -0.0301818)
(0.0633748 0.00257252 -0.0370292)
(0.0575204 0.00118171 -0.0454376)
(0.0504027 -0.00133929 -0.0556022)
(0.0409758 -0.00519906 -0.0664355)
(0.0266242 -0.00888117 -0.0714677)
(0.0097729 -0.00738455 -0.0496106)
(0.114057 0.00024818 -0.00120746)
(0.113732 0.000857846 -0.00347873)
(0.113004 0.00155581 -0.00560935)
(0.111906 0.00229904 -0.00770683)
(0.110467 0.00306406 -0.00991794)
(0.108631 0.00382903 -0.0124231)
(0.106302 0.0045545 -0.0154243)
(0.103363 0.00518215 -0.0191302)
(0.0996776 0.00563169 -0.0237538)
(0.0950738 0.00579641 -0.0295241)
(0.089319 0.00550901 -0.0367127)
(0.0820157 0.00450153 -0.045669)
(0.0725041 0.00230061 -0.056788)
(0.0592784 -0.00162587 -0.0694354)
(0.0382731 -0.00632669 -0.076765)
(0.0130294 -0.00697316 -0.0546113)
(0.134947 0.000346757 -0.000998951)
(0.134686 0.00110791 -0.00290482)
(0.134077 0.00194465 -0.00474587)
(0.133148 0.00284558 -0.00660916)
(0.131944 0.00379962 -0.00860237)
(0.130418 0.00479644 -0.0108686)
(0.128463 0.00581304 -0.0135929)
(0.125922 0.00681229 -0.0169942)
(0.122589 0.00773821 -0.0213197)
(0.118178 0.00852063 -0.0268491)
(0.112315 0.00904038 -0.0339129)
(0.104401 0.00911858 -0.0429289)
(0.0934787 0.00838355 -0.0544676)
(0.0777803 0.00617982 -0.0685856)
(0.0513703 0.00226319 -0.0785892)
(0.0172457 -0.00186619 -0.0575228)
(0.15061 0.000423875 -0.000865698)
(0.150399 0.00131099 -0.00250703)
(0.1499 0.00225679 -0.00409441)
(0.149137 0.00327291 -0.00571099)
(0.148163 0.00436488 -0.00744757)
(0.146946 0.00554048 -0.0094207)
(0.145391 0.00680331 -0.0117923)
(0.143336 0.0081547 -0.0147737)
(0.140546 0.00958748 -0.0186262)
(0.136676 0.0111066 -0.0236651)
(0.131263 0.0126897 -0.0302733)
(0.123561 0.0143458 -0.0389394)
(0.112363 0.0159315 -0.0503179)
(0.095902 0.017217 -0.0652157)
(0.0662913 0.0167838 -0.0778058)
(0.0231261 0.00971826 -0.058377)
(0.161049 0.000480907 -0.000772153)
(0.160878 0.00146213 -0.00222421)
(0.160481 0.00248591 -0.00361765)
(0.15988 0.00357982 -0.00502976)
(0.159131 0.00476515 -0.00654081)
(0.158217 0.00606811 -0.00824814)
(0.157064 0.00751991 -0.0102899)
(0.155524 0.00916455 -0.0128569)
(0.153386 0.0110517 -0.0162001)
(0.150295 0.0132811 -0.0206369)
(0.145815 0.0159493 -0.0265604)
(0.139144 0.0193568 -0.0344937)
(0.129041 0.0236679 -0.0450565)
(0.113757 0.0299181 -0.0596171)
(0.0851946 0.0367352 -0.0743273)
(0.0330632 0.031552 -0.05645)
(0.166267 0.000517389 -0.000702693)
(0.166131 0.00155498 -0.00201418)
(0.165831 0.0026196 -0.00326031)
(0.165393 0.00374994 -0.00451066)
(0.164875 0.00498072 -0.00583667)
(0.164273 0.00635397 -0.00732149)
(0.163536 0.00792468 -0.00908285)
(0.162544 0.00977293 -0.011286)
(0.161138 0.0119972 -0.0141543)
(0.159003 0.0147786 -0.017973)
(0.155871 0.0183098 -0.0230939)
(0.150965 0.023169 -0.0299817)
(0.143827 0.0298249 -0.0391359)
(0.131636 0.0407915 -0.0517455)
(0.114376 0.0607897 -0.0679224)
(0.0525399 0.0635063 -0.050021)
(0.0214103 -0.000129008 -0.00155066)
(0.0212058 -9.34095e-06 -0.00282008)
(0.0206953 0.000101372 -0.00358623)
(0.0199253 0.000157514 -0.00425823)
(0.0189431 0.000192833 -0.00499848)
(0.0177583 0.000218693 -0.00589544)
(0.0163742 0.000231766 -0.00701109)
(0.0148043 0.000222273 -0.00839829)
(0.0130773 0.000173873 -0.0101107)
(0.01124 6.15947e-05 -0.0122084)
(0.00936048 -0.000152947 -0.0147573)
(0.00753266 -0.000526601 -0.0178032)
(0.0058792 -0.00112059 -0.0212561)
(0.00441426 -0.00190433 -0.0245168)
(0.00281301 -0.00258001 -0.0253706)
(0.000968396 -0.00218265 -0.0171637)
(0.0597736 -5.60375e-05 -0.0017704)
(0.0592818 0.000186688 -0.0042069)
(0.0582985 0.000494173 -0.00603199)
(0.0568489 0.000764306 -0.00764398)
(0.0549678 0.000999775 -0.00931176)
(0.0526339 0.00119923 -0.0112293)
(0.0498238 0.00134142 -0.0135448)
(0.0465282 0.00139024 -0.0163787)
(0.0427543 0.00129348 -0.0198397)
(0.0385212 0.000975401 -0.0240375)
(0.0338491 0.000318494 -0.0290835)
(0.0287414 -0.000850611 -0.0350434)
(0.0231741 -0.00273482 -0.0416769)
(0.0168945 -0.00527166 -0.0475647)
(0.00950717 -0.00738403 -0.0478233)
(0.00250851 -0.00583555 -0.0298364)
(0.0928626 0.000107563 -0.00138474)
(0.0923757 0.000519457 -0.00380792)
(0.0913503 0.00102448 -0.00592524)
(0.0898101 0.00154143 -0.00791463)
(0.0877828 0.00204595 -0.00997157)
(0.085214 0.00251733 -0.0122905)
(0.0820283 0.00291371 -0.0150542)
(0.0781481 0.00317212 -0.0184274)
(0.0734938 0.00320608 -0.0225604)
(0.0679739 0.0028968 -0.0275973)
(0.0614655 0.00206309 -0.0336798)
(0.0537559 0.000431602 -0.04091)
(0.0445013 -0.00236563 -0.0491159)
(0.0329528 -0.00639882 -0.0566788)
(0.0183869 -0.0101869 -0.0573823)
(0.00442049 -0.0087132 -0.0353864)
(0.120453 0.000244091 -0.00107658)
(0.120052 0.000839061 -0.00312833)
(0.119153 0.00152456 -0.00507824)
(0.117769 0.00225901 -0.0070141)
(0.115935 0.0030177 -0.00905687)
(0.113587 0.00377753 -0.0113597)
(0.110613 0.00449445 -0.0141001)
(0.106864 0.00510069 -0.0174664)
(0.102158 0.00550135 -0.0216493)
(0.0962572 0.00557091 -0.0268402)
(0.0888533 0.00512045 -0.0332294)
(0.0794731 0.00386612 -0.0409879)
(0.0674273 0.00136564 -0.0501079)
(0.0513271 -0.00271955 -0.0592388)
(0.0294301 -0.00735474 -0.0614926)
(0.00711672 -0.00791869 -0.0384079)
(0.142517 0.000350808 -0.000890604)
(0.142193 0.00111385 -0.00260704)
(0.14144 0.00195208 -0.00428424)
(0.140261 0.00285795 -0.00599777)
(0.138701 0.00382142 -0.00783699)
(0.136703 0.00483287 -0.00992011)
(0.134147 0.00586723 -0.0124044)
(0.130849 0.00688115 -0.0154822)
(0.126552 0.00780757 -0.0193745)
(0.120894 0.00856203 -0.0243245)
(0.113397 0.0090085 -0.0305912)
(0.103331 0.00895839 -0.0384286)
(0.0896656 0.00805681 -0.048026)
(0.0704974 0.00583678 -0.0585477)
(0.0423637 0.00217145 -0.0628989)
(0.0110013 -0.001834 -0.0400281)
(0.15906 0.000434413 -0.000772546)
(0.158794 0.00133861 -0.00225075)
(0.158171 0.00230146 -0.00369548)
(0.157191 0.00333939 -0.00518137)
(0.155899 0.00446068 -0.00678625)
(0.154256 0.00567565 -0.00860597)
(0.152153 0.00698888 -0.0107747)
(0.149403 0.00840084 -0.0134725)
(0.14573 0.00990073 -0.0169286)
(0.140709 0.0114904 -0.0214193)
(0.133765 0.0131447 -0.0272625)
(0.123982 0.0148801 -0.0347943)
(0.110061 0.0165853 -0.044342)
(0.0898597 0.0181665 -0.0557359)
(0.0576499 0.0182728 -0.0623251)
(0.0168623 0.0114382 -0.0403183)
(0.170085 0.00049646 -0.000689293)
(0.169866 0.00150697 -0.00199804)
(0.16936 0.00256139 -0.00326723)
(0.168569 0.00369281 -0.00456682)
(0.167539 0.00492675 -0.00596738)
(0.166244 0.00629359 -0.0075497)
(0.164596 0.0078284 -0.00942658)
(0.162432 0.00958 -0.0117565)
(0.159504 0.0116029 -0.014755)
(0.155391 0.0140084 -0.0186976)
(0.149548 0.0169096 -0.0239197)
(0.141004 0.0206426 -0.0308047)
(0.128408 0.0254423 -0.0397131)
(0.109633 0.0324755 -0.0511061)
(0.077721 0.0402851 -0.0598436)
(0.0272725 0.0357776 -0.0389558)
(0.175596 0.00053663 -0.000627049)
(0.175417 0.0016126 -0.00180957)
(0.175022 0.00271841 -0.00294585)
(0.174416 0.00389888 -0.00409879)
(0.17365 0.00519413 -0.00533193)
(0.17271 0.0066517 -0.00671476)
(0.171536 0.00833269 -0.00834258)
(0.169995 0.0103269 -0.0103502)
(0.167906 0.0127447 -0.0129263)
(0.164901 0.0157926 -0.0163164)
(0.160631 0.0196942 -0.0208245)
(0.154181 0.0251033 -0.0268051)
(0.144966 0.0325729 -0.0345624)
(0.130082 0.0449346 -0.044684)
(0.109479 0.066709 -0.0555542)
(0.0471589 0.069567 -0.0350103)
(0.022335 -0.000146749 -0.00136503)
(0.0220693 -3.46287e-05 -0.00249101)
(0.0214499 7.84241e-05 -0.00317533)
(0.0205351 0.000133215 -0.00377732)
(0.0193771 0.000164337 -0.00443825)
(0.0179821 0.000184265 -0.00523488)
(0.0163474 0.000189625 -0.00622015)
(0.0144793 0.000170339 -0.0074366)
(0.0124008 0.000109757 -0.00892229)
(0.0101565 -1.68638e-05 -0.0107116)
(0.00782072 -0.000246135 -0.012828)
(0.00551161 -0.000631147 -0.0152528)
(0.00341235 -0.00122485 -0.0178174)
(0.00172543 -0.00200477 -0.0199193)
(0.000577677 -0.00271592 -0.0197619)
(-0.000228767 -0.00230124 -0.0126558)
(0.0624027 -7.51024e-05 -0.00153357)
(0.0618151 0.000144816 -0.00366976)
(0.0606499 0.000443577 -0.00528467)
(0.0589377 0.000705809 -0.00671451)
(0.056723 0.000930834 -0.00818934)
(0.0539791 0.00111641 -0.00987641)
(0.0506707 0.00123893 -0.0119035)
(0.0467744 0.00125854 -0.0143714)
(0.0422846 0.00111842 -0.017362)
(0.0372149 0.00073897 -0.0209419)
(0.0315975 3.34415e-06 -0.0251503)
(0.0254895 -0.00124705 -0.0299397)
(0.019 -0.00318465 -0.0349355)
(0.0122437 -0.00570107 -0.0387519)
(0.00562714 -0.00777596 -0.0374218)
(0.00049106 -0.00613893 -0.022062)
(0.0969663 9.60726e-05 -0.00118662)
(0.0963967 0.00048473 -0.00328924)
(0.0951951 0.000973845 -0.00514522)
(0.0933798 0.00147832 -0.00689734)
(0.0909859 0.00197028 -0.00870649)
(0.087954 0.00242684 -0.0107358)
(0.0841954 0.00280164 -0.0131409)
(0.0796133 0.00302412 -0.0160616)
(0.074106 0.0029977 -0.0196189)
(0.0675626 0.0025933 -0.0239125)
(0.0598593 0.00162442 -0.029008)
(0.0508184 -0.000167159 -0.0348774)
(0.0402343 -0.00308693 -0.0411666)
(0.0277852 -0.00709423 -0.0462218)
(0.0138643 -0.0107486 -0.044881)
(0.00204274 -0.00913429 -0.0259739)
(0.125782 0.000241242 -0.000919206)
(0.125316 0.000824775 -0.00268759)
(0.124267 0.00150037 -0.00438433)
(0.122635 0.00222768 -0.00607971)
(0.120456 0.00298085 -0.00787038)
(0.117661 0.00373579 -0.0098805)
(0.114124 0.0044445 -0.0122574)
(0.109677 0.00503091 -0.0151592)
(0.104107 0.00538769 -0.0187442)
(0.0971407 0.00537554 -0.0231594)
(0.0884395 0.0047956 -0.0285224)
(0.0775347 0.00337036 -0.0348749)
(0.0638299 0.000724922 -0.0419842)
(0.0463083 -0.00332419 -0.0483288)
(0.0246651 -0.00773311 -0.0480178)
(0.00453195 -0.00813691 -0.0279509)
(0.148825 0.000355274 -0.000760517)
(0.148446 0.00112225 -0.00223663)
(0.147567 0.00196401 -0.0036907)
(0.146173 0.002876 -0.00518661)
(0.144303 0.003849 -0.00679684)
(0.141896 0.00487418 -0.00861562)
(0.138817 0.0059249 -0.0107699)
(0.134862 0.00695231 -0.0134175)
(0.129745 0.00787941 -0.0167413)
(0.123058 0.00861009 -0.0209368)
(0.114269 0.00899832 -0.0261905)
(0.102611 0.00886137 -0.0326313)
(0.0870962 0.0078885 -0.0402121)
(0.0660663 0.00577291 -0.0477881)
(0.0376803 0.00241977 -0.049083)
(0.00836267 -0.00145164 -0.0289549)
(0.1661 0.000444828 -0.000660164)
(0.165787 0.00136686 -0.00193166)
(0.165056 0.0023476 -0.0031833)
(0.163888 0.00340731 -0.00447952)
(0.162323 0.00455654 -0.00588547)
(0.160311 0.00580795 -0.00747799)
(0.157731 0.00716727 -0.00936343)
(0.154378 0.00863409 -0.0116862)
(0.149951 0.0101935 -0.0146326)
(0.143976 0.0118434 -0.0184259)
(0.135819 0.013555 -0.0233102)
(0.124496 0.0153549 -0.0294998)
(0.108721 0.017167 -0.0371026)
(0.0864157 0.0190177 -0.0455426)
(0.0534036 0.0195705 -0.0486936)
(0.0143629 0.0128625 -0.029098)
(0.177615 0.00051162 -0.000589167)
(0.177352 0.0015512 -0.00171562)
(0.176753 0.00263593 -0.0028159)
(0.175797 0.00380347 -0.00395042)
(0.174526 0.00508295 -0.00517943)
(0.172902 0.00650848 -0.00656869)
(0.170827 0.00811867 -0.00820716)
(0.168119 0.00996627 -0.0102194)
(0.164513 0.0121084 -0.0127773)
(0.159547 0.0146632 -0.0161014)
(0.152625 0.017751 -0.0204548)
(0.142692 0.0217305 -0.0261057)
(0.128405 0.0268738 -0.0332314)
(0.107593 0.0344332 -0.0418754)
(0.0743708 0.0428797 -0.0470005)
(0.025179 0.0386817 -0.0282684)
(0.18337 0.000555342 -0.000535813)
(0.183152 0.0016689 -0.00155394)
(0.182674 0.00281469 -0.00253981)
(0.181924 0.00404275 -0.00354762)
(0.180946 0.00539797 -0.00463197)
(0.179717 0.0069328 -0.00585003)
(0.178166 0.00871362 -0.00727693)
(0.176147 0.0108381 -0.00901725)
(0.173468 0.013425 -0.0112194)
(0.169732 0.0166982 -0.0140777)
(0.164556 0.0208974 -0.0178328)
(0.156952 0.02672 -0.0227429)
(0.14634 0.0347507 -0.0289733)
(0.129791 0.0479635 -0.0368252)
(0.10776 0.0707651 -0.0441761)
(0.0452669 0.0733745 -0.0257513)
(0.0230721 -0.000161413 -0.00112422)
(0.0227552 -5.41834e-05 -0.00205702)
(0.0220434 5.83705e-05 -0.00262596)
(0.0210052 0.000111287 -0.00312747)
(0.0196988 0.000138588 -0.00367642)
(0.0181284 0.000153255 -0.0043348)
(0.0162875 0.000151904 -0.00514453)
(0.0141793 0.000124345 -0.00613723)
(0.0118265 5.39389e-05 -0.00733727)
(0.00927984 -8.32744e-05 -0.00875998)
(0.0066298 -0.000321139 -0.0104025)
(0.00402976 -0.000710167 -0.0122147)
(0.00172399 -0.00129471 -0.014017)
(4.59505e-05 -0.00204731 -0.0153121)
(-0.000650772 -0.00272163 -0.0147438)
(-0.000770081 -0.00228009 -0.00915626)
(0.0645054 -9.08358e-05 -0.00124702)
(0.0638373 0.000110405 -0.00299961)
(0.0625182 0.00040039 -0.00433394)
(0.0605854 0.000655164 -0.00551693)
(0.0580908 0.00087084 -0.00673367)
(0.0550052 0.00104418 -0.00811901)
(0.0512863 0.0011496 -0.00977545)
(0.0469038 0.00114435 -0.011781)
(0.0418491 0.000968527 -0.0141926)
(0.0361441 0.000541128 -0.0170442)
(0.0298494 -0.00025003 -0.0203303)
(0.0230916 -0.00154405 -0.0239506)
(0.0161126 -0.00348576 -0.0275234)
(0.00929356 -0.00592626 -0.0298898)
(0.00342033 -0.00787952 -0.0280837)
(-0.000472432 -0.00615907 -0.0160357)
(0.100248 8.67508e-05 -0.000956978)
(0.0996103 0.000455745 -0.00266845)
(0.0982622 0.00093175 -0.00419052)
(0.0962176 0.00142559 -0.0056323)
(0.0935181 0.00190664 -0.00711922)
(0.0901013 0.0023503 -0.00877985)
(0.0858701 0.00270658 -0.0107377)
(0.0807172 0.00289876 -0.0131028)
(0.0745306 0.00282272 -0.0159656)
(0.0671975 0.00234326 -0.0193887)
(0.0586159 0.00127552 -0.0233873)
(0.0486661 -0.000614492 -0.0278711)
(0.0372947 -0.00356862 -0.0324523)
(0.0245197 -0.00747065 -0.0357077)
(0.0112932 -0.0109253 -0.0337189)
(0.000914043 -0.00918535 -0.018828)
(0.130044 0.000239284 -0.000739379)
(0.129524 0.000814084 -0.00217152)
(0.128352 0.00148222 -0.003555)
(0.126515 0.00220403 -0.00494387)
(0.124051 0.00295273 -0.0064119)
(0.120885 0.0037036 -0.00805432)
(0.116885 0.00440556 -0.0099855)
(0.111867 0.00497581 -0.0123291)
(0.105605 0.00529726 -0.0152066)
(0.0978088 0.00522121 -0.0187235)
(0.0881379 0.00454627 -0.0229435)
(0.0761648 0.00301018 -0.0278385)
(0.0614177 0.000310579 -0.0330993)
(0.0432142 -0.00362953 -0.037363)
(0.0220192 -0.00778922 -0.0360666)
(0.00334331 -0.00806309 -0.0201738)
(0.15387 0.000359532 -0.000611837)
(0.153446 0.00113111 -0.00180542)
(0.152463 0.00197718 -0.00298769)
(0.150892 0.0028954 -0.00420993)
(0.148768 0.00387715 -0.0055285)
(0.146023 0.00491439 -0.0070149)
(0.142513 0.0059794 -0.00876561)
(0.138022 0.00701902 -0.0109017)
(0.132245 0.00794808 -0.0135635)
(0.124753 0.00866159 -0.0168973)
(0.114993 0.00900821 -0.0210289)
(0.102205 0.0088174 -0.0260089)
(0.0854899 0.00782453 -0.0316874)
(0.0634639 0.00584027 -0.0369629)
(0.0351919 0.00276892 -0.036875)
(0.00721751 -0.00100938 -0.0208457)
(0.171732 0.000454203 -0.000531352)
(0.171378 0.00139273 -0.00155972)
(0.170559 0.00239011 -0.00257693)
(0.169237 0.00346958 -0.00363525)
(0.167447 0.00464339 -0.00478669)
(0.165133 0.00592621 -0.00609013)
(0.162161 0.00732491 -0.00762562)
(0.158316 0.00883843 -0.00950176)
(0.153279 0.0104481 -0.0118593)
(0.146556 0.0121477 -0.0148662)
(0.137485 0.0139047 -0.0186983)
(0.125067 0.0157544 -0.0234852)
(0.108071 0.0176507 -0.0292222)
(0.0845812 0.0197089 -0.0352594)
(0.0513108 0.0205993 -0.0366437)
(0.0133796 0.0139514 -0.0209664)
(0.183638 0.000525142 -0.000474273)
(0.183339 0.00159092 -0.00138581)
(0.182661 0.00270291 -0.00228048)
(0.181571 0.00390245 -0.0032072)
(0.180102 0.0052215 -0.00421467)
(0.17821 0.00669729 -0.00535407)
(0.175785 0.00837136 -0.0066924)
(0.172633 0.0102996 -0.00832209)
(0.168479 0.0125403 -0.0103708)
(0.16284 0.015215 -0.0130029)
(0.155102 0.0184455 -0.0164112)
(0.144182 0.0226024 -0.0207775)
(0.128774 0.027975 -0.0261758)
(0.106778 0.0358704 -0.0324905)
(0.0729466 0.04473 -0.0355284)
(0.0245119 0.0407075 -0.0205063)
(0.189589 0.000572014 -0.000431222)
(0.189338 0.00171918 -0.00125527)
(0.188792 0.00290053 -0.00205743)
(0.187923 0.00417036 -0.00288142)
(0.186771 0.00557743 -0.00377149)
(0.185307 0.00717826 -0.0047726)
(0.183448 0.00904346 -0.00594155)
(0.18104 0.0112768 -0.00735532)
(0.177883 0.0140023 -0.00912289)
(0.173567 0.0174551 -0.0113875)
(0.167703 0.0218808 -0.0143261)
(0.159271 0.028 -0.0181212)
(0.147731 0.0363997 -0.0228563)
(0.130169 0.0501202 -0.0286912)
(0.107447 0.0735546 -0.0336788)
(0.0447286 0.0759531 -0.0188573)
(0.0236233 -0.000172757 -0.000837286)
(0.0232663 -6.88974e-05 -0.00153502)
(0.022482 4.1928e-05 -0.00196185)
(0.0213471 9.28497e-05 -0.00233834)
(0.0199251 0.000116858 -0.00274934)
(0.0182193 0.000127121 -0.00324019)
(0.0162213 0.000120277 -0.00384094)
(0.0139339 8.6123e-05 -0.00457298)
(0.0113824 8.17114e-06 -0.00545032)
(0.00862588 -0.000136795 -0.00647717)
(0.00577388 -0.0003808 -0.00764005)
(0.00301131 -0.000769821 -0.00888502)
(0.000619588 -0.00134462 -0.0100658)
(-0.000964598 -0.00205223 -0.0108114)
(-0.00132063 -0.00270661 -0.0102018)
(-0.00103514 -0.002229 -0.00622499)
(0.0660815 -0.000102923 -0.00091999)
(0.0653503 8.38733e-05 -0.00222217)
(0.0639112 0.000366206 -0.003218)
(0.0618069 0.000614605 -0.00410158)
(0.0590951 0.000822536 -0.00500837)
(0.0557459 0.000985909 -0.00603684)
(0.0517136 0.00107768 -0.00726132)
(0.0469655 0.001053 -0.00873671)
(0.0414958 0.000850022 -0.0104992)
(0.0353393 0.000387946 -0.0125624)
(0.0285901 -0.000439388 -0.0149035)
(0.0214335 -0.00175523 -0.0174155)
(0.0142127 -0.00368315 -0.0197903)
(0.00747917 -0.00603145 -0.0211742)
(0.00217328 -0.00788228 -0.0195413)
(-0.000941599 -0.00609613 -0.010948)
(0.102709 7.97438e-05 -0.000701679)
(0.102018 0.000433423 -0.00196584)
(0.100557 0.000899378 -0.00309569)
(0.0983349 0.00138488 -0.0041684)
(0.0953991 0.00185721 -0.00527378)
(0.0916858 0.00229064 -0.00650403)
(0.0870931 0.00263243 -0.0079481)
(0.0815088 0.00280136 -0.00968454)
(0.0748185 0.00268797 -0.0117749)
(0.0669163 0.00215389 -0.0142547)
(0.0577279 0.00101931 -0.017114)
(0.0471873 -0.000929277 -0.0202554)
(0.0353693 -0.00387746 -0.023352)
(0.0225161 -0.00766283 -0.0253362)
(0.00984006 -0.0109389 -0.0234992)
(0.000371895 -0.00911471 -0.0128488)
(0.13324 0.000238065 -0.000541033)
(0.132678 0.000806655 -0.00159495)
(0.131411 0.00146955 -0.00261761)
(0.129417 0.00218744 -0.00364752)
(0.126733 0.00293285 -0.00473688)
(0.123283 0.00368068 -0.00595256)
(0.118928 0.0043777 -0.00737552)
(0.113478 0.00493613 -0.0090935)
(0.106699 0.00523174 -0.0111915)
(0.0982987 0.00510966 -0.0137388)
(0.0879451 0.00436878 -0.0167655)
(0.0752616 0.00276437 -0.0202219)
(0.0598841 5.54018e-05 -0.0238232)
(0.041363 -0.00376902 -0.0265326)
(0.0205608 -0.00771974 -0.0251471)
(0.00279626 -0.00791128 -0.0137435)
(0.157653 0.000363165 -0.000447701)
(0.157193 0.00113911 -0.00132509)
(0.156132 0.00198933 -0.00219723)
(0.154424 0.00291313 -0.0031017)
(0.152105 0.00390221 -0.00407915)
(0.149102 0.0049492 -0.0051795)
(0.145263 0.00602581 -0.00646995)
(0.140365 0.00707573 -0.00803522)
(0.134095 0.0080077 -0.0099732)
(0.126013 0.0087103 -0.0123842)
(0.115566 0.00902945 -0.0153469)
(0.102018 0.00880798 -0.0188727)
(0.0845501 0.00781634 -0.0228009)
(0.061991 0.00594733 -0.0262615)
(0.0338877 0.00309411 -0.0257278)
(0.00673204 -0.000632744 -0.0141933)
(0.175955 0.000461857 -0.000388898)
(0.17557 0.00141408 -0.00114498)
(0.174682 0.00242534 -0.00189512)
(0.173242 0.00352105 -0.00267778)
(0.171281 0.00471467 -0.00353121)
(0.168736 0.00602239 -0.00449696)
(0.165466 0.00745207 -0.00563044)
(0.161247 0.0090023 -0.00700657)
(0.155754 0.0106514 -0.00872241)
(0.148482 0.0123895 -0.0108934)
(0.138763 0.0141807 -0.0136366)
(0.125603 0.0160665 -0.0170267)
(0.107829 0.0180224 -0.0210194)
(0.0836707 0.0202252 -0.0250699)
(0.0503191 0.0213544 -0.0256067)
(0.0130314 0.0147292 -0.014301)
(0.188154 0.00053609 -0.00034714)
(0.187827 0.00162322 -0.00101756)
(0.18709 0.00275742 -0.0016776)
(0.185895 0.00398279 -0.00236313)
(0.184276 0.00533336 -0.0031102)
(0.18218 0.00684872 -0.00395543)
(0.179489 0.00857262 -0.00494532)
(0.176002 0.0105633 -0.00614309)
(0.171436 0.0128795 -0.00763553)
(0.165303 0.0156439 -0.00953484)
(0.156984 0.0189771 -0.0119709)
(0.145393 0.0232548 -0.015061)
(0.129266 0.0287733 -0.0188289)
(0.106581 0.0368756 -0.0231349)
(0.0724353 0.046004 -0.0249044)
(0.0243968 0.0420889 -0.0140582)
(0.194252 0.000585491 -0.00031558)
(0.193976 0.00175991 -0.000921738)
(0.193377 0.00297 -0.00151381)
(0.192417 0.00427329 -0.00212372)
(0.191133 0.00572146 -0.00278431)
(0.18949 0.0073741 -0.00352796)
(0.187399 0.00930494 -0.00439429)
(0.184696 0.0116222 -0.00543576)
(0.181181 0.0144528 -0.00672578)
(0.176435 0.0180389 -0.00836129)
(0.170079 0.0226263 -0.0104613)
(0.161082 0.0289468 -0.0131483)
(0.148944 0.0375791 -0.0164602)
(0.130772 0.0515938 -0.0204867)
(0.107699 0.0754277 -0.0237231)
(0.0447076 0.0776887 -0.0129943)
(0.0239893 -0.000180467 -0.000513156)
(0.0236046 -7.99187e-05 -0.000942298)
(0.0227709 2.94047e-05 -0.00120488)
(0.0215697 7.85227e-05 -0.0014362)
(0.0200689 9.96803e-05 -0.00168837)
(0.0182713 0.00010629 -0.0019887)
(0.0161679 9.49825e-05 -0.00235502)
(0.013762 5.55003e-05 -0.00279946)
(0.011082 -2.85316e-05 -0.00332885)
(0.00819465 -0.000179844 -0.00394291)
(0.00522402 -0.000429784 -0.00462914)
(0.00237543 -0.000817037 -0.00534923)
(-3.30199e-05 -0.00137982 -0.00601146)
(-0.00152802 -0.00207182 -0.00638015)
(-0.00167304 -0.00270113 -0.0059526)
(-0.0011561 -0.00219392 -0.00359531)
(0.0671301 -0.00011092 -0.000559809)
(0.0663556 6.54022e-05 -0.00135789)
(0.0648353 0.000342229 -0.00196849)
(0.062614 0.000585902 -0.00251008)
(0.0597543 0.000787987 -0.00306529)
(0.0562262 0.000943971 -0.00369338)
(0.0519829 0.00102587 -0.00443894)
(0.0469915 0.000987413 -0.00533422)
(0.0412503 0.000765617 -0.00639881)
(0.0348058 0.000280387 -0.00763636)
(0.0277801 -0.000568987 -0.00902592)
(0.0203987 -0.00189504 -0.0104911)
(0.0130715 -0.00380503 -0.0118365)
(0.00644206 -0.00609471 -0.0125463)
(0.00150682 -0.00786502 -0.011457)
(-0.00115606 -0.00603639 -0.00634969)
(0.104348 7.52994e-05 -0.000424934)
(0.103619 0.000418731 -0.00119665)
(0.102082 0.000877901 -0.00188708)
(0.0997403 0.0013577 -0.00254306)
(0.096644 0.00182389 -0.00321893)
(0.0927297 0.00225012 -0.00396947)
(0.0878933 0.00258199 -0.00484769)
(0.0820206 0.00273525 -0.00590024)
(0.0749984 0.00259707 -0.00716245)
(0.0667297 0.0020276 -0.00865157)
(0.0571622 0.000852179 -0.0103534)
(0.0462696 -0.00113001 -0.0121984)
(0.0342154 -0.00406101 -0.0139735)
(0.0213727 -0.00775844 -0.0150295)
(0.00906513 -0.0109065 -0.0137931)
(0.000127596 -0.00903356 -0.00745123)
(0.13537 0.0002375 -0.000327119)
(0.134777 0.000802375 -0.000968915)
(0.133448 0.00146211 -0.00159212)
(0.131346 0.00217769 -0.00222043)
(0.128514 0.00292107 -0.00288565)
(0.124872 0.003667 -0.0036269)
(0.120277 0.00436098 -0.00449177)
(0.114538 0.00491203 -0.00553214)
(0.107417 0.00519125 -0.00679776)
(0.0986236 0.00503994 -0.00832731)
(0.0878364 0.00425756 -0.0101327)
(0.0747224 0.00261399 -0.012173)
(0.0589901 -8.86573e-05 -0.014257)
(0.0403301 -0.00382596 -0.015748)
(0.0198023 -0.00763413 -0.0147688)
(0.00256407 -0.00777915 -0.00796362)
(0.160174 0.000365828 -0.000270706)
(0.159689 0.00114527 -0.000804688)
(0.158574 0.00199885 -0.00133547)
(0.156775 0.00292701 -0.00188633)
(0.154325 0.00392153 -0.00248263)
(0.151147 0.0049755 -0.0031535)
(0.147087 0.00606047 -0.00393794)
(0.141917 0.00711814 -0.00488555)
(0.135319 0.00805328 -0.00605345)
(0.126852 0.00875021 -0.00749955)
(0.115966 0.00905356 -0.00926644)
(0.101951 0.00881691 -0.0113521)
(0.0840456 0.00783117 -0.0136425)
(0.0612117 0.00604259 -0.0155942)
(0.0332449 0.00333303 -0.0151232)
(0.00655187 -0.00036931 -0.00822625)
(0.17877 0.000467232 -0.000235235)
(0.178362 0.00142929 -0.00069551)
(0.177428 0.00245053 -0.00115201)
(0.175908 0.00355788 -0.00162839)
(0.173831 0.00476549 -0.00214882)
(0.171131 0.00609054 -0.00273782)
(0.167662 0.00754165 -0.0034274)