/*--------------------------------*- C++ -*----------------------------------*\
| =========                 |                                                 |
| \\      /  F ield         | foam-extend: Open Source CFD                    |
|  \\    /   O peration     | Version:     3.1                                |
|   \\  /    A nd           | Web:         http://www.extend-project.de       |
|    \\/     M anipulation  |                                                 |
\*---------------------------------------------------------------------------*/
FoamFile
{
    version     2.0;
    format      ascii;
    class       volVectorField;
    location    "4";
    object      cellMotionU;
}
// * * * * * * * * * * * * * * * * * * * * * * * * * * * * * * * * * * * * * //

dimensions      [0 1 -1 0 0 0 0];

internalField   nonuniform List<vector> 
14592
(
(2.19468e-12 2.66283e-12 5.26242e-14)
(6.26241e-12 7.76839e-12 1.56703e-13)
(9.67831e-12 1.25746e-11 2.64285e-13)
(1.23806e-11 1.72953e-11 3.86707e-13)
(1.42551e-11 2.21054e-11 5.36909e-13)
(1.51019e-11 2.71419e-11 7.31678e-13)
(1.45925e-11 3.24904e-11 9.94822e-13)
(1.22001e-11 3.81962e-11 1.36222e-12)
(7.11282e-12 4.42015e-11 1.8899e-12)
(-1.90197e-12 5.03203e-11 2.66742e-12)
(-1.66655e-11 5.61332e-11 3.83929e-12)
(-3.97711e-11 6.08024e-11 5.63712e-12)
(-7.47432e-11 6.27776e-11 8.41806e-12)
(-1.25875e-10 5.91588e-11 1.26629e-11)
(-1.96174e-10 4.49391e-11 1.86744e-11)
(-2.72338e-10 1.75195e-11 2.48258e-11)
(6.60788e-12 7.87375e-12 1.54745e-13)
(1.88681e-11 2.29803e-11 4.60536e-13)
(2.92097e-11 3.71962e-11 7.75698e-13)
(3.74735e-11 5.11682e-11 1.13266e-12)
(4.33563e-11 6.54166e-11 1.56796e-12)
(4.63212e-11 8.03378e-11 2.12826e-12)
(4.54743e-11 9.62168e-11 2.8789e-12)
(3.93906e-11 1.13201e-10 3.91698e-12)
(2.58778e-11 1.31178e-10 5.39234e-12)
(1.61754e-12 1.49741e-10 7.54213e-12)
(-3.82176e-11 1.67844e-10 1.07458e-11)
(-1.00386e-10 1.83587e-10 1.56099e-11)
(-1.93572e-10 1.93648e-10 2.30822e-11)
(-3.26918e-10 1.92818e-10 3.45344e-11)
(-5.02389e-10 1.74481e-10 5.13626e-11)
(-6.77312e-10 1.39753e-10 7.08893e-11)
(1.11141e-11 1.27953e-11 2.48825e-13)
(3.17771e-11 3.7336e-11 7.39557e-13)
(4.93343e-11 6.04389e-11 1.24235e-12)
(6.36123e-11 8.31562e-11 1.80654e-12)
(7.42288e-11 1.06338e-10 2.48631e-12)
(8.04735e-11 1.3064e-10 3.34869e-12)
(8.11347e-11 1.56603e-10 4.48474e-12)
(7.43049e-11 1.84465e-10 6.02542e-12)
(5.7026e-11 2.14291e-10 8.16736e-12)
(2.49197e-11 2.45611e-10 1.12129e-11)
(-2.83221e-11 2.77387e-10 1.56336e-11)
(-1.11199e-10 3.07606e-10 2.21633e-11)
(-2.33872e-10 3.33204e-10 3.19138e-11)
(-4.04751e-10 3.50557e-10 4.64269e-11)
(-6.18216e-10 3.58119e-10 6.71394e-11)
(-8.11605e-10 3.61285e-10 9.0656e-11)
(1.57441e-11 1.72427e-11 3.3089e-13)
(4.50925e-11 5.03164e-11 9.81708e-13)
(7.02638e-11 8.14632e-11 1.64297e-12)
(9.11853e-11 1.12106e-10 2.37522e-12)
(1.07548e-10 1.43394e-10 3.24227e-12)
(1.1868e-10 1.76275e-10 4.31925e-12)
(1.23407e-10 2.11479e-10 5.7025e-12)
(1.19843e-10 2.49513e-10 7.52295e-12)
(1.05113e-10 2.90624e-10 9.96568e-12)
(7.50081e-11 3.34673e-10 1.3299e-11)
(2.36387e-11 3.80963e-10 1.79172e-11)
(-5.6701e-11 4.2813e-10 2.43972e-11)
(-1.74648e-10 4.74054e-10 3.3539e-11)
(-3.35916e-10 5.16459e-10 4.62382e-11)
(-5.30817e-10 5.54528e-10 6.25517e-11)
(-6.97257e-10 5.86952e-10 7.77742e-11)
(2.04885e-11 2.10574e-11 3.98585e-13)
(5.87871e-11 6.14592e-11 1.18003e-12)
(9.19752e-11 9.95117e-11 1.96596e-12)
(1.20193e-10 1.36969e-10 2.82219e-12)
(1.4336e-10 1.75246e-10 3.81425e-12)
(1.61058e-10 2.15562e-10 5.01371e-12)
(1.72486e-10 2.5881e-10 6.50385e-12)
(1.76276e-10 3.05821e-10 8.38598e-12)
(1.70415e-10 3.57065e-10 1.0785e-11)
(1.52032e-10 4.12855e-10 1.38549e-11)
(1.17322e-10 4.73127e-10 1.77838e-11)
(6.16113e-11 5.37447e-10 2.27954e-11)
(-1.99816e-11 6.04885e-10 2.91394e-11)
(-1.30204e-10 6.73871e-10 3.69963e-11)
(-2.62016e-10 7.41447e-10 4.59333e-11)
(-3.7373e-10 7.95922e-10 5.29851e-11)
(2.52892e-11 2.41024e-11 4.51218e-13)
(7.27015e-11 7.03477e-11 1.33269e-12)
(1.14192e-10 1.13924e-10 2.20935e-12)
(1.50223e-10 1.56832e-10 3.14717e-12)
(1.81051e-10 2.00735e-10 4.20743e-12)
(2.06699e-10 2.46987e-10 5.44987e-12)
(2.26939e-10 2.96766e-10 6.93355e-12)
(2.41315e-10 3.50985e-10 8.7134e-12)
(2.49145e-10 4.10483e-10 1.08301e-11)
(2.49681e-10 4.75894e-10 1.3287e-11)
(2.4233e-10 5.47802e-10 1.60089e-11)
(2.27104e-10 6.26773e-10 1.87747e-11)
(2.05204e-10 7.13344e-10 2.11441e-11)
(1.79262e-10 8.07625e-10 2.24599e-11)
(1.52477e-10 9.06678e-10 2.21827e-11)
(1.29482e-10 9.90313e-10 2.10797e-11)
(3.00546e-11 2.6262e-11 4.89476e-13)
(8.65492e-11 7.66614e-11 1.44228e-12)
(1.36423e-10 1.24169e-10 2.37914e-12)
(1.80517e-10 1.70964e-10 3.36279e-12)
(2.19487e-10 2.18882e-10 4.44693e-12)
(2.53872e-10 2.69391e-10 5.67642e-12)
(2.84127e-10 3.23771e-10 7.08354e-12)
(3.10781e-10 3.83086e-10 8.67712e-12)
(3.34637e-10 4.48261e-10 1.04193e-11)
(3.57174e-10 5.20142e-10 1.2181e-11)
(3.81169e-10 5.99646e-10 1.36591e-11)
(4.11779e-10 6.87908e-10 1.42325e-11)
(4.57787e-10 7.86734e-10 1.27247e-11)
(5.32113e-10 8.98839e-10 7.10821e-12)
(6.45814e-10 1.02555e-09 -5.24266e-12)
(7.73039e-10 1.14496e-09 -2.2588e-11)
(3.46629e-11 2.74534e-11 5.15079e-13)
(9.9961e-11 8.01675e-11 1.5144e-12)
(1.58033e-10 1.29862e-10 2.48646e-12)
(2.10091e-10 1.78856e-10 3.48922e-12)
(2.57218e-10 2.29017e-10 4.56816e-12)
(3.00421e-10 2.81913e-10 5.75466e-12)
(3.40795e-10 3.38823e-10 7.05968e-12)
(3.79717e-10 4.00812e-10 8.45951e-12)
(4.19179e-10 4.68754e-10 9.86845e-12)
(4.62311e-10 5.43395e-10 1.10892e-11)
(5.14253e-10 6.25401e-10 1.17244e-11)
(5.83485e-10 7.15593e-10 1.10125e-11)
(6.83814e-10 8.15411e-10 7.50023e-12)
(8.36706e-10 9.28064e-10 -1.69282e-12)
(1.06896e-09 1.0598e-09 -2.22459e-11)
(1.36505e-09 1.20316e-09 -5.9088e-11)
(2.17617e-12 2.77824e-12 4.98798e-14)
(6.2011e-12 8.10929e-12 1.48495e-13)
(9.55755e-12 1.31346e-11 2.50341e-13)
(1.21679e-11 1.80887e-11 3.66172e-13)
(1.39e-11 2.31583e-11 5.08313e-13)
(1.45307e-11 2.8488e-11 6.9283e-13)
(1.36957e-11 3.41774e-11 9.42639e-13)
(1.08247e-11 4.02612e-11 1.29232e-12)
(5.04438e-12 4.66819e-11 1.79592e-12)
(-4.94231e-12 5.32205e-11 2.53942e-12)
(-2.0995e-11 5.93864e-11 3.66042e-12)
(-4.56429e-11 6.42314e-11 5.3763e-12)
(-8.20055e-11 6.59883e-11 8.01378e-12)
(-1.33093e-10 6.14698e-11 1.19891e-11)
(-1.98744e-10 4.56228e-11 1.75066e-11)
(-2.62723e-10 1.72615e-11 2.31413e-11)
(6.55611e-12 8.21728e-12 1.46642e-13)
(1.86994e-11 2.39832e-11 4.36279e-13)
(2.88729e-11 3.88538e-11 7.34516e-13)
(3.68768e-11 5.35172e-11 1.07203e-12)
(4.23575e-11 6.85307e-11 1.48353e-12)
(4.47078e-11 8.43316e-11 2.01358e-12)
(4.29388e-11 1.01226e-10 2.72478e-12)
(3.54981e-11 1.1935e-10 3.71029e-12)
(2.00175e-11 1.38603e-10 5.11371e-12)
(-6.99819e-12 1.5846e-10 7.16054e-12)
(-5.05193e-11 1.7777e-10 1.0207e-11)
(-1.17129e-10 1.94326e-10 1.48086e-11)
(-2.1443e-10 2.0437e-10 2.17915e-11)
(-3.48048e-10 2.02109e-10 3.22125e-11)
(-5.11593e-10 1.80739e-10 4.66644e-11)
(-6.55938e-10 1.43259e-10 6.16627e-11)
(1.10425e-11 1.33495e-11 2.35676e-13)
(3.1538e-11 3.89707e-11 7.00234e-13)
(4.88508e-11 6.31357e-11 1.17561e-12)
(6.27449e-11 8.69763e-11 1.70835e-12)
(7.27631e-11 1.11409e-10 2.34964e-12)
(7.80896e-11 1.37168e-10 3.16312e-12)
(7.73827e-11 1.64778e-10 4.23516e-12)
(6.85258e-11 1.94578e-10 5.69016e-12)
(4.8324e-11 2.26539e-10 7.71345e-12)
(1.20857e-11 2.60196e-10 1.05865e-11)
(-4.67234e-11 2.94292e-10 1.47377e-11)
(-1.365e-10 3.26562e-10 2.08065e-11)
(-2.66089e-10 3.53463e-10 2.96884e-11)
(-4.39471e-10 3.70752e-10 4.24118e-11)
(-6.40745e-10 3.76101e-10 5.9254e-11)
(-8.00472e-10 3.74759e-10 7.58479e-11)
(1.56698e-11 1.79921e-11 3.13193e-13)
(4.48375e-11 5.25222e-11 9.28801e-13)
(6.97336e-11 8.50996e-11 1.55324e-12)
(9.02103e-11 1.17258e-10 2.24332e-12)
(1.05868e-10 1.50254e-10 3.05889e-12)
(1.15922e-10 1.85096e-10 4.07035e-12)
(1.19032e-10 2.22593e-10 5.36774e-12)
(1.13089e-10 2.63292e-10 7.0725e-12)
(9.49137e-11 3.07474e-10 9.35363e-12)
(5.99302e-11 3.54941e-10 1.24487e-11)
(1.85075e-12 4.04941e-10 1.66894e-11)
(-8.71691e-11 4.55861e-10 2.25198e-11)
(-2.14998e-10 5.05191e-10 3.04664e-11)
(-3.83953e-10 5.4979e-10 4.09161e-11)
(-5.75956e-10 5.8677e-10 5.32904e-11)
(-7.22799e-10 6.12266e-10 6.371e-11)
(2.0431e-11 2.19731e-11 3.76964e-13)
(5.85822e-11 6.41467e-11 1.1154e-12)
(9.15137e-11 1.03951e-10 1.85649e-12)
(1.19296e-10 1.43266e-10 2.66149e-12)
(1.41754e-10 1.83646e-10 3.59118e-12)
(1.58369e-10 2.26362e-10 4.71129e-12)
(1.68162e-10 2.72478e-10 6.0974e-12)
(1.69564e-10 3.22818e-10 7.83884e-12)
(1.60243e-10 3.77993e-10 1.00402e-11)
(1.36932e-10 4.38323e-10 1.28168e-11)
(9.53232e-11 5.03751e-10 1.62779e-11)
(3.02008e-11 5.7376e-10 2.04851e-11)
(-6.3609e-11 6.47071e-10 2.53732e-11)
(-1.88077e-10 7.20951e-10 3.06186e-11)
(-3.32611e-10 7.88848e-10 3.54669e-11)
(-4.50169e-10 8.34161e-10 3.85843e-11)
(2.52711e-11 2.51458e-11 4.26356e-13)
(7.26058e-11 7.34264e-11 1.25846e-12)
(1.13913e-10 1.19002e-10 2.08379e-12)
(1.49583e-10 1.64048e-10 2.96322e-12)
(1.79802e-10 2.10345e-10 3.95261e-12)
(2.04494e-10 2.59394e-10 5.10518e-12)
(2.23306e-10 3.12448e-10 6.4711e-12)
(2.35583e-10 3.70596e-10 8.09187e-12)
(2.40404e-10 4.34739e-10 9.98497e-12)
(2.36651e-10 5.05653e-10 1.21104e-11)
(2.23217e-10 5.8402e-10 1.43058e-11)
(1.99335e-10 6.70447e-10 1.61762e-11)
(1.64908e-10 7.65282e-10 1.69569e-11)
(1.20399e-10 8.67327e-10 1.55234e-11)
(6.61062e-11 9.68817e-10 1.11988e-11)
(9.12911e-12 1.04207e-09 6.43388e-12)
(3.00914e-11 2.73991e-11 4.62116e-13)
(8.66164e-11 8.00136e-11 1.36066e-12)
(1.3642e-10 1.29701e-10 2.2413e-12)
(1.80282e-10 1.78833e-10 3.16134e-12)
(2.18822e-10 2.29351e-10 4.16865e-12)
(2.52493e-10 2.82912e-10 5.30115e-12)
(2.81671e-10 3.409e-10 6.58177e-12)
(3.06753e-10 4.04528e-10 8.00516e-12)
(3.28373e-10 4.7487e-10 9.50967e-12)
(3.47756e-10 5.52929e-10 1.09223e-11)
(3.67314e-10 6.39753e-10 1.1856e-11)
(3.91456e-10 7.36652e-10 1.15294e-11)
(4.27388e-10 8.45327e-10 8.50067e-12)
(4.84147e-10 9.67204e-10 5.07573e-13)
(5.641e-10 1.09803e-09 -1.44238e-11)
(6.36011e-10 1.20553e-09 -3.16713e-11)
(3.47648e-11 2.86453e-11 4.8593e-13)
(1.00232e-10 8.36627e-11 1.4275e-12)
(1.5837e-10 1.35648e-10 2.34003e-12)
(2.10373e-10 1.87063e-10 3.27579e-12)
(2.57283e-10 2.39971e-10 4.27438e-12)
(3.00084e-10 2.96045e-10 5.36014e-12)
(3.39815e-10 3.56732e-10 6.53466e-12)
(3.77793e-10 4.23242e-10 7.7604e-12)
(4.15931e-10 4.96603e-10 8.9291e-12)
(4.57257e-10 5.77689e-10 9.80397e-12)
(5.0671e-10 6.67325e-10 9.91563e-12)
(5.72345e-10 7.66394e-10 8.37867e-12)
(6.66754e-10 8.76153e-10 3.58005e-12)
(8.07625e-10 9.98438e-10 -7.26122e-12)
(1.01066e-09 1.13384e-09 -2.80001e-11)
(1.2436e-09 1.26272e-09 -5.74485e-11)
(2.15561e-12 2.88345e-12 4.54016e-14)
(6.13539e-12 8.4185e-12 1.3514e-13)
(9.43069e-12 1.3646e-11 2.27783e-13)
(1.19507e-11 1.88118e-11 3.33131e-13)
(1.35473e-11 2.41151e-11 4.62476e-13)
(1.39755e-11 2.97096e-11 6.30588e-13)
(1.28464e-11 3.56961e-11 8.58535e-13)
(9.55599e-12 4.21093e-11 1.17796e-12)
(3.20035e-12 4.88746e-11 1.63764e-12)
(-7.53147e-12 5.57381e-11 2.31315e-12)
(-2.44508e-11 6.21515e-11 3.32006e-12)
(-4.98712e-11 6.70689e-11 4.8275e-12)
(-8.63513e-11 6.86283e-11 7.05825e-12)
(-1.3577e-10 6.36805e-11 1.02273e-11)
(-1.96555e-10 4.77503e-11 1.4276e-11)
(-2.53746e-10 2.09481e-11 1.80323e-11)
(6.49922e-12 8.52746e-12 1.33444e-13)
(1.85139e-11 2.49022e-11 3.9695e-13)
(2.85152e-11 4.03678e-11 6.68131e-13)
(3.62625e-11 5.56592e-11 9.74933e-13)
(4.13555e-11 7.13685e-11 1.34911e-12)
(4.31293e-11 8.79549e-11 1.83157e-12)
(4.05182e-11 1.05737e-10 2.47982e-12)
(3.18749e-11 1.24853e-10 3.37902e-12)
(1.4736e-11 1.45152e-10 4.6586e-12)
(-1.44576e-11 1.66038e-10 6.51632e-12)
(-6.05711e-11 1.86168e-10 9.24916e-12)
(-1.29677e-10 2.03076e-10 1.3281e-11)
(-2.27946e-10 2.12655e-10 1.91446e-11)
(-3.58086e-10 2.08935e-10 2.72847e-11)
(-5.10027e-10 1.85803e-10 3.73152e-11)
(-6.37745e-10 1.48459e-10 4.59593e-11)
(1.09593e-11 1.38576e-11 2.14379e-13)
(3.12688e-11 4.04623e-11 6.3681e-13)
(4.83256e-11 6.55985e-11 1.06876e-12)
(6.18345e-11 9.04639e-11 1.5525e-12)
(7.12682e-11 1.16033e-10 2.13476e-12)
(7.57233e-11 1.43075e-10 2.87375e-12)
(7.37357e-11 1.72166e-10 3.84866e-12)
(6.30486e-11 2.0361e-10 5.17291e-12)
(4.02881e-11 2.37378e-10 7.01327e-12)
(6.32059e-13 2.72845e-10 9.61526e-12)
(-6.24471e-11 3.08544e-10 1.33316e-11)
(-1.56847e-10 3.41756e-10 1.86339e-11)
(-2.89865e-10 3.68283e-10 2.60455e-11)
(-4.62131e-10 3.83028e-10 3.58206e-11)
(-6.53412e-10 3.83118e-10 4.69984e-11)
(-7.97204e-10 3.75449e-10 5.54512e-11)
(1.55778e-11 1.86747e-11 2.84716e-13)
(4.45348e-11 5.45328e-11 8.44103e-13)
(6.9132e-11 8.84213e-11 1.41091e-12)
(8.91502e-11 1.21967e-10 2.03656e-12)
(1.04107e-10 1.56499e-10 2.77537e-12)
(1.13107e-10 1.93102e-10 3.69147e-12)
(1.14668e-10 2.32617e-10 4.86694e-12)
(1.06489e-10 2.75628e-10 6.41211e-12)
(8.516e-11 3.22368e-10 8.47825e-12)
(4.58356e-11 3.72555e-10 1.12707e-11)
(-1.79616e-11 4.25138e-10 1.5055e-11)
(-1.1402e-10 4.77987e-10 2.01329e-11)
(-2.49425e-10 5.27579e-10 2.67255e-11)
(-4.24417e-10 5.69119e-10 3.46297e-11)
(-6.17803e-10 5.97736e-10 4.24629e-11)
(-7.61671e-10 6.11057e-10 4.69021e-11)
(2.03491e-11 2.28057e-11 3.42434e-13)
(5.83031e-11 6.66069e-11 1.01286e-12)
(9.09415e-11 1.08012e-10 1.68469e-12)
(1.18256e-10 1.49025e-10 2.41309e-12)
(1.39987e-10 1.91291e-10 3.25284e-12)
(1.55498e-10 2.36185e-10 4.26322e-12)
(1.63663e-10 2.84809e-10 5.51244e-12)
(1.62696e-10 3.38069e-10 7.08085e-12)
(1.49987e-10 3.96558e-10 9.06074e-12)
(1.21894e-10 4.60519e-10 1.15481e-11)
(7.36204e-11 5.29664e-10 1.46156e-11)
(-6.32509e-13 6.02892e-10 1.82486e-11)
(-1.06675e-10 6.77711e-10 2.22166e-11)
(-2.4692e-10 7.49068e-10 2.58667e-11)
(-4.10383e-10 8.07262e-10 2.79377e-11)
(-5.46188e-10 8.37195e-10 2.71804e-11)
(2.5217e-11 2.61022e-11 3.86995e-13)
(7.24111e-11 7.62383e-11 1.14175e-12)
(1.13475e-10 1.23653e-10 1.8889e-12)
(1.48732e-10 1.7064e-10 2.68289e-12)
(1.78285e-10 2.19114e-10 3.57348e-12)
(2.01954e-10 2.70665e-10 4.6079e-12)
(2.19237e-10 3.26656e-10 5.83031e-12)
(2.29283e-10 3.88226e-10 7.27649e-12)
(2.30871e-10 4.56336e-10 8.95919e-12)
(2.22446e-10 5.31725e-10 1.08359e-11)
(2.02203e-10 6.14891e-10 1.27461e-11)
(1.68196e-10 7.05917e-10 1.43028e-11)
(1.1831e-10 8.03863e-10 1.4755e-11)
(4.98062e-11 9.04829e-10 1.29608e-11)
(-4.00153e-11 9.96991e-10 7.99014e-12)
(-1.36519e-10 1.05367e-09 1.48824e-12)
(3.00829e-11 2.84383e-11 4.19118e-13)
(8.65567e-11 8.30761e-11 1.23337e-12)
(1.36208e-10 1.34764e-10 2.02948e-12)
(1.79766e-10 1.86013e-10 2.85823e-12)
(2.1777e-10 2.38921e-10 3.76161e-12)
(2.50601e-10 2.95224e-10 4.7722e-12)
(2.78505e-10 3.56439e-10 5.90841e-12)
(3.01707e-10 4.23871e-10 7.16232e-12)
(3.20579e-10 4.98661e-10 8.47415e-12)
(3.3592e-10 5.8182e-10 9.68281e-12)
(3.49378e-10 6.74279e-10 1.04356e-11)
(3.63956e-10 7.76865e-10 1.00373e-11)
(3.84075e-10 8.90044e-10 7.25094e-12)
(4.13772e-10 1.01239e-09 2.43706e-13)
(4.49557e-10 1.13483e-09 -1.241e-11)
(4.68928e-10 1.22496e-09 -2.69702e-11)
(3.48156e-11 2.97276e-11 4.40398e-13)
(1.00343e-10 8.68648e-11 1.29293e-12)
(1.58454e-10 1.40935e-10 2.11681e-12)
(2.10289e-10 1.94582e-10 2.95794e-12)
(2.56856e-10 2.49971e-10 3.85032e-12)
(2.99063e-10 3.08932e-10 4.81356e-12)
(3.37868e-10 3.73014e-10 5.84586e-12)
(3.74457e-10 4.43535e-10 6.90899e-12)
(4.10536e-10 5.21602e-10 7.89989e-12)
(4.48777e-10 6.08123e-10 8.59976e-12)
(4.93479e-10 7.03789e-10 8.58613e-12)
(5.51382e-10 8.09061e-10 7.08875e-12)
(6.32405e-10 9.23981e-10 2.77994e-12)
(7.49057e-10 1.04753e-09 -6.42845e-12)
(9.09728e-10 1.17509e-09 -2.30079e-11)
(1.08722e-09 1.2849e-09 -4.52603e-11)
(2.1351e-12 2.97611e-12 3.93879e-14)
(6.06966e-12 8.69176e-12 1.17235e-13)
(9.30686e-12 1.40954e-11 1.97598e-13)
(1.17431e-11 1.94463e-11 2.89024e-13)
(1.32163e-11 2.49522e-11 4.01407e-13)
(1.34658e-11 3.07718e-11 5.47751e-13)
(1.20818e-11 3.70097e-11 7.46628e-13)
(8.44171e-12 4.36938e-11 1.0258e-12)
(1.62773e-12 5.07334e-11 1.42746e-12)
(-9.65706e-12 5.78421e-11 2.01521e-12)
(-2.71428e-11 6.44145e-11 2.88163e-12)
(-5.29296e-11 6.93371e-11 4.15133e-12)
(-8.91451e-11 7.07076e-11 5.96537e-12)
(-1.37046e-10 6.55041e-11 8.41477e-12)
(-1.94723e-10 4.97832e-11 1.13577e-11)
(-2.48652e-10 2.4344e-11 1.39637e-11)
(6.44067e-12 8.80235e-12 1.15747e-13)
(1.83287e-11 2.57072e-11 3.44282e-13)
(2.81638e-11 4.16974e-11 5.79449e-13)
(3.56711e-11 5.75376e-11 8.45598e-13)
(4.04112e-11 7.38468e-11 1.17055e-12)
(4.16698e-11 9.11053e-11 1.59034e-12)
(3.83244e-11 1.0964e-10 2.15577e-12)
(2.86666e-11 1.29571e-10 2.94182e-12)
(1.01841e-11 1.50711e-10 4.06113e-12)
(-2.06627e-11 1.72359e-10 5.68132e-12)
(-6.85632e-11 1.93018e-10 8.04215e-12)
(-1.39067e-10 2.09983e-10 1.14562e-11)
(-2.37279e-10 2.18917e-10 1.62488e-11)
(-3.64339e-10 2.1388e-10 2.2536e-11)
(-5.09331e-10 1.8955e-10 2.96658e-11)
(-6.29759e-10 1.52623e-10 3.51737e-11)
(1.08738e-11 1.43015e-11 1.85881e-13)
(3.09938e-11 4.17732e-11 5.52094e-13)
(4.78009e-11 6.77612e-11 9.26466e-13)
(6.09461e-11 9.35207e-11 1.34579e-12)
(6.98411e-11 1.2007e-10 1.85095e-12)
(7.35059e-11 1.48219e-10 2.49333e-12)
(7.0388e-11 1.78548e-10 3.34315e-12)
(5.81192e-11 2.11366e-10 4.50119e-12)
(3.32316e-11 2.46568e-10 6.11465e-12)
(-9.14579e-12 2.83403e-10 8.39604e-12)
(-7.54047e-11 3.20137e-10 1.16378e-11)
(-1.72947e-10 3.53629e-10 1.61974e-11)
(-3.07947e-10 3.79091e-10 2.23875e-11)
(-4.79339e-10 3.90864e-10 3.01387e-11)
(-6.65923e-10 3.86147e-10 3.8264e-11)
(-8.04517e-10 3.73873e-10 4.35691e-11)
(1.54786e-11 1.92749e-11 2.46738e-13)
(4.42141e-11 5.63022e-11 7.31394e-13)
(6.85138e-11 9.13395e-11 1.22224e-12)
(8.80918e-11 1.26092e-10 1.76393e-12)
(1.02389e-10 1.61958e-10 2.40396e-12)
(1.10416e-10 2.00068e-10 3.19901e-12)
(1.10572e-10 2.41295e-10 4.22243e-12)
(1.00408e-10 2.86226e-10 5.57403e-12)
(7.63416e-11 3.35034e-10 7.39165e-12)
(3.33735e-11 3.87284e-10 9.86268e-12)
(-3.50644e-11 4.41611e-10 1.3226e-11)
(-1.3663e-10 4.95294e-10 1.77394e-11)
(-2.77917e-10 5.43864e-10 2.35535e-11)
(-4.58268e-10 5.81283e-10 3.03849e-11)
(-6.55784e-10 6.01963e-10 3.69206e-11)
(-8.02997e-10 6.06334e-10 4.04913e-11)
(2.02531e-11 2.35406e-11 2.9657e-13)
(5.79901e-11 6.8766e-11 8.77001e-13)
(9.03235e-11 1.11578e-10 1.45819e-12)
(1.17176e-10 1.54071e-10 2.08789e-12)
(1.38203e-10 1.97981e-10 2.81387e-12)
(1.52668e-10 2.44734e-10 3.68865e-12)
(1.59302e-10 2.95509e-10 4.77403e-12)
(1.56148e-10 3.51201e-10 6.14554e-12)
(1.40357e-10 4.12388e-10 7.89497e-12)
(1.07986e-10 4.79173e-10 1.01281e-11)
(5.38645e-11 5.50948e-10 1.29496e-11)
(-2.82715e-11 6.25963e-10 1.64185e-11)
(-1.44783e-10 7.00571e-10 2.04504e-11)
(-2.9864e-10 7.68026e-10 2.46365e-11)
(-4.78808e-10 8.17381e-10 2.80108e-11)
(-6.30592e-10 8.36743e-10 2.92029e-11)
(2.51424e-11 2.69403e-11 3.34926e-13)
(7.21571e-11 7.87123e-11 9.87831e-13)
(1.12952e-10 1.27734e-10 1.63343e-12)
(1.47779e-10 1.76426e-10 2.31858e-12)
(1.7666e-10 2.2679e-10 3.08656e-12)
(1.99314e-10 2.80506e-10 3.9792e-12)
(2.15102e-10 3.38996e-10 5.03768e-12)
(2.22976e-10 4.03456e-10 6.30002e-12)
(2.21444e-10 4.74832e-10 7.79333e-12)
(2.08545e-10 5.53777e-10 9.51559e-12)
(1.8185e-10 6.40518e-10 1.1401e-11)
(1.38428e-10 7.34535e-10 1.32635e-11)
(7.46113e-11 8.33738e-10 1.47337e-11)
(-1.43419e-11 9.32427e-10 1.52718e-11)
(-1.31831e-10 1.01731e-09 1.44746e-11)
(-2.55489e-10 1.06467e-09 1.29278e-11)
(3.00442e-11 2.93522e-11 3.62467e-13)
(8.64089e-11 8.57706e-11 1.06626e-12)
(1.35864e-10 1.39213e-10 1.75331e-12)
(1.79069e-10 1.92327e-10 2.46707e-12)
(2.16505e-10 2.47297e-10 3.24377e-12)
(2.48446e-10 3.05986e-10 4.1122e-12)
(2.7502e-10 3.69974e-10 5.09093e-12)
(2.96267e-10 4.40633e-10 6.18026e-12)
(3.1228e-10 5.19132e-10 7.34601e-12)
(3.23421e-10 6.06437e-10 8.48946e-12)
(3.30623e-10 7.0327e-10 9.3961e-12)
(3.35638e-10 8.09973e-10 9.65973e-12)
(3.40858e-10 9.25999e-10 8.60596e-12)
(3.47602e-10 1.0483e-09 5.35029e-12)
(3.51433e-10 1.16645e-09 -5.28808e-13)
(3.39975e-10 1.25045e-09 -6.65573e-12)
(3.48234e-11 3.06845e-11 3.80616e-13)
(1.0034e-10 8.96764e-11 1.11693e-12)
(1.5835e-10 1.45588e-10 1.82711e-12)
(2.09955e-10 2.01177e-10 2.55015e-12)
(2.56093e-10 2.58746e-10 3.31497e-12)
(2.97608e-10 3.20213e-10 4.13873e-12)
(3.35347e-10 3.87225e-10 5.02168e-12)
(3.70338e-10 4.61174e-10 5.9368e-12)
(4.04044e-10 5.43213e-10 6.81068e-12)
(4.38743e-10 6.34225e-10 7.49152e-12)
(4.7805e-10 7.34754e-10 7.69801e-12)
(5.27545e-10 8.44842e-10 6.9445e-12)
(5.95227e-10 9.63661e-10 4.44516e-12)
(6.91073e-10 1.08878e-09 -9.67825e-13)
(8.22763e-10 1.21439e-09 -1.06808e-11)
(9.732e-10 1.32086e-09 -2.39942e-11)
(2.11614e-12 3.05311e-12 3.20656e-14)
(6.01021e-12 8.9179e-12 9.54439e-14)
(9.19559e-12 1.44687e-11 1.6089e-13)
(1.1559e-11 1.99724e-11 2.35419e-13)
(1.29272e-11 2.56444e-11 3.27203e-13)
(1.30267e-11 3.16482e-11 4.47056e-13)
(1.1435e-11 3.80883e-11 6.10512e-13)
(7.51768e-12 4.49867e-11 8.408e-13)
(3.57071e-13 5.22385e-11 1.1731e-12)
(-1.13178e-11 5.95283e-11 1.6598e-12)
(-2.91552e-11 6.6209e-11 2.37559e-12)
(-5.50761e-11 7.11226e-11 3.41785e-12)
(-9.09076e-11 7.23611e-11 4.89247e-12)
(-1.37546e-10 6.70344e-11 6.86742e-12)
(-1.92983e-10 5.15928e-11 9.25833e-12)
(-2.44588e-10 2.72013e-11 1.14834e-11)
(6.38733e-12 9.02929e-12 9.42159e-14)
(1.81587e-11 2.63784e-11 2.80235e-13)
(2.78459e-11 4.28022e-11 4.71714e-13)
(3.51441e-11 5.90957e-11 6.88616e-13)
(3.95812e-11 7.58988e-11 9.53937e-13)
(4.04069e-11 9.37052e-11 1.29772e-12)
(3.64581e-11 1.12843e-10 1.76262e-12)
(2.59901e-11 1.33423e-10 2.41183e-12)
(6.47944e-12 1.5521e-10 3.34033e-12)
(-2.55608e-11 1.77425e-10 4.68846e-12)
(-7.46226e-11 1.98443e-10 6.65416e-12)
(-1.45818e-10 2.15393e-10 9.4894e-12)
(-2.43496e-10 2.23822e-10 1.34482e-11)
(-3.67897e-10 2.17916e-10 1.86223e-11)
(-5.07877e-10 1.92998e-10 2.45602e-11)
(-6.23186e-10 1.56619e-10 2.94538e-11)
(1.07932e-11 1.46725e-11 1.51254e-13)
(3.07388e-11 4.28636e-11 4.49248e-13)
(4.7321e-11 6.95587e-11 7.53935e-13)
(6.01459e-11 9.60571e-11 1.09549e-12)
(6.85744e-11 1.23415e-10 1.50774e-12)
(7.1569e-11 1.52463e-10 2.03372e-12)
(6.75081e-11 1.83794e-10 2.73289e-12)
(5.39584e-11 2.17701e-10 3.69173e-12)
(2.7403e-11 2.54017e-10 5.03762e-12)
(-1.7002e-11 2.91876e-10 6.95613e-12)
(-8.54697e-11 3.29327e-10 9.70421e-12)
(-1.84937e-10 3.6292e-10 1.35999e-11)
(-3.20749e-10 3.87495e-10 1.89382e-11)
(-4.90823e-10 3.97159e-10 2.57392e-11)
(-6.73617e-10 3.8942e-10 3.32057e-11)
(-8.08044e-10 3.74613e-10 3.88352e-11)
(1.53838e-11 1.97745e-11 2.00692e-13)
(4.39108e-11 5.77725e-11 5.94874e-13)
(6.79379e-11 9.37649e-11 9.94108e-13)
(8.7122e-11 1.29519e-10 1.43497e-12)
(1.00841e-10 1.66482e-10 1.95685e-12)
(1.08029e-10 2.05821e-10 2.60751e-12)
(1.06994e-10 2.48436e-10 3.4502e-12)
(9.51822e-11 2.94896e-10 4.57328e-12)
(6.89129e-11 3.45325e-10 6.10306e-12)
(2.31177e-11 3.99146e-10 8.21878e-12)
(-4.87303e-11 4.54737e-10 1.11648e-11)
(-1.54062e-10 5.08948e-10 1.52409e-11)
(-2.98961e-10 5.56712e-10 2.07271e-11)
(-4.82045e-10 5.91377e-10 2.7651e-11)
(-6.80843e-10 6.07337e-10 3.52715e-11)
(-8.2807e-10 6.07045e-10 4.11686e-11)
(2.01579e-11 2.41499e-11 2.41098e-13)
(5.76817e-11 7.05654e-11 7.12888e-13)
(8.97295e-11 1.14544e-10 1.18523e-12)
(1.1616e-10 1.58266e-10 1.69715e-12)
(1.36558e-10 2.03525e-10 2.28838e-12)
(1.50098e-10 2.5181e-10 3.00359e-12)
(1.55407e-10 3.04321e-10 3.89778e-12)
(1.50387e-10 3.61973e-10 5.04232e-12)
(1.3203e-10 4.25297e-10 6.53317e-12)
(9.62154e-11 4.9428e-10 8.50023e-12)
(3.75972e-11 5.68065e-10 1.1117e-11)
(-5.02209e-11 6.44466e-10 1.46039e-11)
(-1.73633e-10 7.19169e-10 1.92075e-11)
(-3.3541e-10 7.84678e-10 2.50972e-11)
(-5.23714e-10 8.29864e-10 3.20054e-11)
(-6.81411e-10 8.44813e-10 3.8057e-11)
(2.50611e-11 2.76399e-11 2.72114e-13)
(7.1889e-11 8.07714e-11 8.02469e-13)
(1.12419e-10 1.31134e-10 1.32664e-12)
(1.46842e-10 1.81236e-10 1.88291e-12)
(1.75105e-10 2.3316e-10 2.50723e-12)
(1.96839e-10 2.88653e-10 3.23584e-12)
(2.11287e-10 3.49188e-10 4.10747e-12)
(2.17249e-10 4.15985e-10 5.16526e-12)
(2.13025e-10 4.89982e-10 6.45799e-12)
(1.96386e-10 5.71759e-10 8.042e-12)
(1.64556e-10 6.61362e-10 9.9857e-12)
(1.14158e-10 7.5794e-10 1.23851e-11)
(4.10496e-11 8.58897e-10 1.5408e-11)
(-5.97144e-11 9.58004e-10 1.938e-11)
(-1.90481e-10 1.04192e-09 2.47557e-11)
(-3.24541e-10 1.0881e-09 3.08224e-11)
(2.999e-11 3.01137e-11 2.94315e-13)
(8.6222e-11 8.80141e-11 8.65598e-13)
(1.35465e-10 1.4292e-10 1.42285e-12)
(1.78325e-10 1.97574e-10 2.00145e-12)
(2.15208e-10 2.54264e-10 2.63143e-12)
(2.46313e-10 3.14911e-10 3.33836e-12)
(2.71648e-10 3.81173e-10 4.14263e-12)
(2.911e-10 4.54464e-10 5.05718e-12)
(3.04543e-10 5.35975e-10 6.083e-12)
(3.12037e-10 6.26648e-10 7.20318e-12)
(3.14088e-10 7.27115e-10 8.37895e-12)
(3.11901e-10 8.37545e-10 9.56029e-12)
(3.0729e-10 9.57187e-10 1.07431e-11)
(3.01483e-10 1.08299e-09 1.21393e-11)
(2.91808e-10 1.20519e-09 1.44841e-11)
(2.7105e-10 1.2943e-09 1.85971e-11)
(3.48081e-11 3.14781e-11 3.0888e-13)
(1.00264e-10 9.20234e-11 9.06137e-13)
(1.58143e-10 1.49463e-10 1.48158e-12)
(2.09488e-10 2.06676e-10 2.06669e-12)
(2.55189e-10 2.66045e-10 2.68546e-12)
(2.9601e-10 3.29584e-10 3.35349e-12)
(3.32699e-10 3.99008e-10 4.07572e-12)
(3.66144e-10 4.75771e-10 4.84162e-12)
(3.97605e-10 5.61065e-10 5.61773e-12)
(4.29073e-10 6.55785e-10 6.33795e-12)
(4.63777e-10 7.60444e-10 6.89441e-12)
(5.06809e-10 8.75021e-10 7.1351e-12)
(5.65785e-10 9.98682e-10 6.87764e-12)
(6.51109e-10 1.1294e-09 5.93089e-12)
(7.73429e-10 1.26289e-09 4.05936e-12)
(9.2214e-10 1.38094e-09 1.09408e-12)
(2.10054e-12 3.11265e-12 2.36877e-14)
(5.96086e-12 9.09347e-12 7.0509e-14)
(9.10441e-12 1.4757e-11 1.18888e-13)
(1.14098e-11 2.03783e-11 1.74048e-13)
(1.26954e-11 2.61771e-11 2.42129e-13)
(1.26793e-11 3.23204e-11 3.31328e-13)
(1.09304e-11 3.89124e-11 4.53507e-13)
(6.80984e-12 4.59712e-11 6.26545e-13)
(-5.94457e-13 5.33794e-11 8.77661e-13)
(-1.25238e-11 6.0802e-11 1.24763e-12)
(-3.05523e-11 6.75662e-11 1.79507e-12)
(-5.64579e-11 7.24905e-11 2.59788e-12)
(-9.18413e-11 7.36824e-11 3.74593e-12)
(-1.37331e-10 6.83679e-11 5.3134e-12)
(-1.90787e-10 5.32826e-11 7.27799e-12)
(-2.40137e-10 2.98119e-11 9.19855e-12)
(6.34233e-12 9.206e-12 6.95867e-14)
(1.8018e-11 2.68966e-11 2.07002e-13)
(2.75847e-11 4.36556e-11 3.48519e-13)
(3.47154e-11 6.02973e-11 5.09026e-13)
(3.8914e-11 7.74775e-11 7.05815e-13)
(3.94041e-11 9.56993e-11 9.61714e-13)
(3.49968e-11 1.15293e-10 1.30945e-12)
(2.39306e-11 1.36356e-10 1.79809e-12)
(3.69065e-12 1.58622e-10 2.502e-12)
(-2.91397e-11 1.81257e-10 3.53248e-12)
(-7.88685e-11 2.02548e-10 5.04894e-12)
(-1.5024e-10 2.19541e-10 7.26096e-12)
(-2.47023e-10 2.27748e-10 1.03987e-11)
(-3.68772e-10 2.21511e-10 1.46062e-11)
(-5.04057e-10 1.96605e-10 1.9653e-11)
(-6.14137e-10 1.60991e-10 2.41176e-11)
(1.07259e-11 1.49589e-11 1.11694e-13)
(3.05253e-11 4.37067e-11 3.31765e-13)
(4.69235e-11 7.0947e-11 5.56887e-13)
(5.94905e-11 9.80136e-11 8.09553e-13)
(6.75493e-11 1.25988e-10 1.11527e-12)
(7.00198e-11 1.5572e-10 1.50687e-12)
(6.52371e-11 1.87808e-10 2.03058e-12)
(5.07299e-11 2.22528e-10 2.75465e-12)
(2.29749e-11 2.59676e-10 3.7819e-12)
(-2.28084e-11 2.98294e-10 5.26578e-12)
(-9.26248e-11 3.36305e-10 7.42694e-12)
(-1.92977e-10 3.70076e-10 1.05563e-11)
(-3.285e-10 3.94286e-10 1.49697e-11)
(-4.96251e-10 4.02994e-10 2.08332e-11)
(-6.7428e-10 3.93934e-10 2.77017e-11)
(-8.03171e-10 3.78007e-10 3.34266e-11)
(1.53024e-11 2.01606e-11 1.48152e-13)
(4.36532e-11 5.89108e-11 4.39154e-13)
(6.74547e-11 9.56393e-11 7.34004e-13)
(8.63189e-11 1.32162e-10 1.05997e-12)
(9.95742e-11 1.69963e-10 1.44683e-12)
(1.061e-10 2.10241e-10 1.93139e-12)
(1.0414e-10 2.53903e-10 2.56372e-12)
(9.10792e-11 3.01518e-10 3.41608e-12)
(6.31936e-11 3.5316e-10 4.59607e-12)
(1.54307e-11 4.0817e-10 6.26506e-12)
(-5.85998e-11 4.64767e-10 8.66028e-12)
(-1.65978e-10 5.19582e-10 1.21102e-11)
(-3.12156e-10 5.67285e-10 1.70075e-11)
(-4.94892e-10 6.01018e-10 2.36405e-11)
(-6.9104e-10 6.15234e-10 3.16493e-11)
(-8.34189e-10 6.13123e-10 3.85813e-11)
(2.00745e-11 2.46225e-11 1.77905e-13)
(5.74136e-11 7.19567e-11 5.26057e-13)
(8.92208e-11 1.16837e-10 8.74682e-13)
(1.15303e-10 1.61502e-10 1.25293e-12)
(1.35189e-10 2.07799e-10 1.69088e-12)
(1.4799e-10 2.57248e-10 2.22354e-12)
(1.52251e-10 3.11082e-10 2.89577e-12)
(1.45792e-10 3.70217e-10 3.7699e-12)
(1.25516e-10 4.35162e-10 4.93706e-12)
(8.72503e-11 5.05836e-10 6.5358e-12)
(2.56773e-11 5.81265e-10 8.78099e-12)
(-6.54039e-11 6.59086e-10 1.20039e-11)
(-1.9191e-10 7.34794e-10 1.66848e-11)
(-3.55774e-10 8.00743e-10 2.33812e-11)
(-5.44084e-10 8.45806e-10 3.21888e-11)
(-6.99477e-10 8.60312e-10 4.06554e-11)
(2.4986e-11 2.8181e-11 2.00708e-13)
(7.16464e-11 8.2365e-11 5.91857e-13)
(1.11948e-10 1.33762e-10 9.78477e-13)
(1.46029e-10 1.8495e-10 1.38908e-12)
(1.73781e-10 2.38074e-10 1.85106e-12)
(1.94762e-10 2.94926e-10 2.39334e-12)
(2.08132e-10 3.57019e-10 3.04959e-12)
(2.12586e-10 4.25598e-10 3.8629e-12)
(2.06307e-10 5.01605e-10 4.89419e-12)
(1.86958e-10 5.85599e-10 6.23834e-12)
(1.51704e-10 6.77592e-10 8.05708e-12)
(9.72661e-11 7.7671e-10 1.0643e-11)
(1.99294e-11 8.80426e-10 1.4527e-11)
(-8.42464e-11 9.82743e-10 2.05736e-11)
(-2.16015e-10 1.07052e-09 2.96374e-11)
(-3.47964e-10 1.12015e-09 3.98927e-11)
(2.99349e-11 3.07029e-11 2.16977e-13)
(8.60362e-11 8.9752e-11 6.38079e-13)
(1.35088e-10 1.45787e-10 1.04877e-12)
(1.77644e-10 2.01633e-10 1.47533e-12)
(2.1406e-10 2.59639e-10 1.94081e-12)
(2.44463e-10 3.21792e-10 2.46615e-12)
(2.68776e-10 3.89795e-10 3.07161e-12)
(2.86777e-10 4.65105e-10 3.77853e-12)
(2.98213e-10 5.48946e-10 4.61385e-12)
(3.03013e-10 6.42291e-10 5.62175e-12)
(3.01607e-10 7.45836e-10 6.89287e-12)
(2.95308e-10 8.59915e-10 8.63088e-12)
(2.86527e-10 9.84218e-10 1.1287e-11)
(2.78035e-10 1.11661e-09 1.57632e-11)
(2.69713e-10 1.24836e-09 2.33917e-11)
(2.54809e-10 1.34792e-09 3.36809e-11)
(3.47801e-11 3.20954e-11 2.27598e-13)
(1.00162e-10 9.38395e-11 6.67618e-13)
(1.57904e-10 1.52464e-10 1.09134e-12)
(2.09013e-10 2.10925e-10 1.52217e-12)
(2.54323e-10 2.71686e-10 1.9784e-12)
(2.94541e-10 3.36818e-10 2.47352e-12)
(3.30336e-10 4.08095e-10 3.0158e-12)
(3.62492e-10 4.87026e-10 3.60826e-12)
(3.9215e-10 5.74855e-10 4.24998e-12)
(4.21183e-10 6.72542e-10 4.94299e-12)
(4.52761e-10 7.80721e-10 5.71215e-12)
(4.92166e-10 8.99645e-10 6.65064e-12)
(5.47845e-10 1.02914e-09 8.00104e-12)
(6.324e-10 1.16858e-09 1.02382e-11)
(7.60612e-10 1.3159e-09 1.39143e-11)