/*--------------------------------*- C++ -*----------------------------------*\
| =========                 |                                                 |
| \\      /  F ield         | foam-extend: Open Source CFD                    |
|  \\    /   O peration     | Version:     3.1                                |
|   \\  /    A nd           | Web:         http://www.extend-project.de       |
|    \\/     M anipulation  |                                                 |
\*---------------------------------------------------------------------------*/
FoamFile
{
    version     2.0;
    format      ascii;
    class       surfaceScalarField;
    location    "4";
    object      meshPhi;
}
// * * * * * * * * * * * * * * * * * * * * * * * * * * * * * * * * * * * * * //

dimensions      [0 3 -1 0 0 0 0];

internalField   nonuniform List<scalar> 
41600
(
2.98789e-09
5.64986e-10
1.14719e-11
-1.15778e-11
5.7511e-09
1.67133e-09
3.47601e-11
-3.506e-11
8.26506e-09
2.74238e-09
5.97653e-11
-6.02076e-11
1.0593e-08
3.81718e-09
8.90505e-11
-8.95441e-11
1.2785e-08
4.94778e-09
1.25949e-10
-1.26338e-10
1.4878e-08
6.1838e-09
1.747e-10
-1.74717e-10
1.68927e-08
7.5753e-09
2.41118e-10
-2.40317e-10
1.88289e-08
9.17514e-09
3.33584e-10
-3.3123e-10
2.0657e-08
1.10406e-08
4.64564e-10
-4.59462e-10
2.23051e-08
1.3233e-08
6.53062e-10
-6.43286e-10
2.36448e-08
1.58162e-08
9.28634e-10
-9.11043e-10
2.44822e-08
1.88496e-08
1.33786e-09
-1.30711e-09
2.45762e-08
2.23737e-08
1.95306e-09
-1.89951e-09
2.37392e-08
2.63632e-08
2.87318e-09
-2.77993e-09
2.20878e-08
3.04652e-08
4.13176e-09
-3.99008e-09
3.90873e-08
7.12472e-09
-9.45441e-09
8.91313e-09
1.10455e-09
3.39071e-11
-3.42187e-11
1.71546e-08
3.26667e-09
1.02631e-10
-1.03513e-10
2.46513e-08
5.35745e-09
1.76188e-10
-1.77487e-10
3.15922e-08
7.45155e-09
2.6203e-10
-2.63475e-10
3.81279e-08
9.64886e-09
3.69748e-10
-3.70873e-10
4.43702e-08
1.20437e-08
5.11377e-10
-5.11393e-10
5.03858e-08
1.473e-08
7.03237e-10
-7.00822e-10
5.61831e-08
1.7806e-08
9.68507e-10
-9.61483e-10
6.16877e-08
2.13763e-08
1.34105e-09
-1.32591e-09
6.67078e-08
2.55504e-08
1.87135e-09
-1.84249e-09
7.08918e-08
3.0435e-08
2.63572e-09
-2.58416e-09
7.36984e-08
3.61152e-08
3.74964e-09
-3.66052e-09
7.44381e-08
4.26094e-08
5.38208e-09
-5.22947e-09
7.25378e-08
4.97592e-08
7.74151e-09
-7.48071e-09
6.82457e-08
5.68037e-08
1.0843e-08
-1.04382e-08
6.67666e-08
1.68314e-08
-2.06359e-08
1.46938e-08
1.59658e-09
5.4539e-11
-5.50373e-11
2.82761e-08
4.72027e-09
1.64807e-10
-1.66216e-10
4.06262e-08
7.73599e-09
2.82182e-10
-2.84253e-10
5.2057e-08
1.07485e-08
4.18242e-10
-4.20529e-10
6.28195e-08
1.38981e-08
5.87634e-10
-5.89378e-10
7.31047e-08
1.73154e-08
8.08363e-10
-8.08277e-10
8.30366e-08
2.11286e-08
1.10431e-09
-1.10024e-09
9.2654e-08
2.5469e-08
1.50852e-09
-1.49695e-09
1.01878e-07
3.04731e-08
2.06781e-09
-2.0431e-09
1.10461e-07
3.62797e-08
2.8494e-09
-2.80262e-09
1.17924e-07
4.30157e-08
3.94984e-09
-3.86696e-09
1.23498e-07
5.0763e-08
5.50521e-09
-5.3637e-09
1.26158e-07
5.94843e-08
7.69388e-09
-7.4562e-09
1.24969e-07
6.88665e-08
1.06917e-08
-1.02949e-08
1.20079e-07
7.78469e-08
1.43883e-08
-1.37607e-08
9.0137e-08
2.00278e-08
-2.26514e-08
2.02437e-08
2.02158e-09
7.22019e-11
-7.2858e-11
3.89482e-08
5.97434e-09
2.17715e-10
-2.19567e-10
5.59461e-08
9.78311e-09
3.71453e-10
-3.74162e-10
7.167e-08
1.35754e-08
5.47949e-10
-5.50908e-10
8.64705e-08
1.75224e-08
7.6521e-10
-7.67391e-10
1.00622e-07
2.17809e-08
1.04474e-09
-1.0444e-09
1.14319e-07
2.6501e-08
1.41414e-09
-1.40838e-09
1.2766e-07
3.1833e-08
1.91028e-09
-1.89439e-09
1.40612e-07
3.79285e-08
2.58328e-09
-2.54971e-09
1.5296e-07
4.49366e-08
3.50139e-09
-3.43826e-09
1.6423e-07
5.29876e-08
4.75614e-09
-4.64483e-09
1.73608e-07
6.21525e-08
6.46478e-09
-6.27596e-09
1.79925e-07
7.23543e-08
8.75796e-09
-8.44422e-09
1.81947e-07
8.31817e-08
1.17174e-08
-1.12011e-08
1.79344e-07
9.34066e-08
1.5125e-08
-1.42995e-08
1.06742e-07
1.98161e-08
-2.16466e-08
2.54807e-08
2.36384e-09
8.60921e-11
-8.68695e-11
4.90123e-08
6.98273e-09
2.58945e-10
-2.61135e-10
7.03806e-08
1.14238e-08
4.39893e-10
-4.43076e-10
9.01304e-08
1.58294e-08
6.45079e-10
-6.48506e-10
1.08708e-07
2.03911e-08
8.94028e-10
-8.96434e-10
1.26472e-07
2.52803e-08
1.20919e-09
-1.20844e-09
1.43697e-07
3.06569e-08
1.61817e-09
-1.61075e-09
1.60565e-07
3.66751e-08
2.15623e-09
-2.1364e-09
1.77135e-07
4.34851e-08
2.86878e-09
-2.82736e-09
1.93309e-07
5.12298e-08
3.81352e-09
-3.73603e-09
2.08752e-07
6.00299e-08
5.06106e-09
-4.92469e-09
2.22808e-07
6.99495e-08
6.69088e-09
-6.45962e-09
2.34401e-07
8.09115e-08
8.7699e-09
-8.38617e-09
2.421e-07
9.24948e-08
1.12906e-08
-1.06615e-08
2.44618e-07
1.03412e-07
1.39842e-08
-1.29727e-08
1.17066e-07
1.74429e-08
-1.82993e-08
3.03308e-08
2.61194e-09
9.58297e-11
-9.6688e-11
5.83254e-08
7.71214e-09
2.8741e-10
-2.89821e-10
8.37215e-08
1.26052e-08
4.85808e-10
-4.89284e-10
1.07165e-07
1.744e-08
7.07485e-10
-7.11158e-10
1.29187e-07
2.24182e-08
9.71813e-10
-9.74228e-10
1.50227e-07
2.77153e-08
1.30002e-09
-1.29874e-09
1.70642e-07
3.34886e-08
1.71686e-09
-1.70787e-09
1.90702e-07
3.98823e-08
2.2521e-09
-2.22889e-09
2.10588e-07
4.70299e-08
2.94142e-09
-2.8936e-09
2.30361e-07
5.50508e-08
3.82597e-09
-3.73705e-09
2.49922e-07
6.40411e-08
4.94947e-09
-4.79328e-09
2.68931e-07
7.40549e-08
6.35098e-09
-6.08573e-09
2.86668e-07
8.5049e-08
8.04251e-09
-7.60091e-09
3.01779e-07
9.67143e-08
9.95533e-09
-9.22828e-09
3.11848e-07
1.07917e-07
1.18052e-08
-1.06295e-08
1.21769e-07
1.40802e-08
-1.41069e-08
3.47303e-08
2.75888e-09
1.01442e-10
-1.02341e-10
6.67645e-08
8.14254e-09
3.03277e-10
-3.05794e-10
9.579e-08
1.32964e-08
5.09759e-10
-5.13352e-10
1.22537e-07
1.83692e-08
7.36596e-10
-7.40305e-10
1.4761e-07
2.35627e-08
1.0017e-09
-1.00393e-09
1.71516e-07
2.90469e-08
1.32359e-09
-1.3217e-09
1.94679e-07
3.49666e-08
1.72239e-09
-1.71203e-09
2.17451e-07
4.1445e-08
2.22039e-09
-2.19462e-09
2.4012e-07
4.85842e-08
2.84157e-09
-2.78932e-09
2.62905e-07
5.64622e-08
3.60928e-09
-3.51303e-09
2.85941e-07
6.51269e-08
4.54129e-09
-4.37327e-09
3.09247e-07
7.45896e-08
5.64206e-09
-5.35771e-09
3.32603e-07
8.48134e-08
6.88508e-09
-6.41172e-09
3.55174e-07
9.56589e-08
8.17449e-09
-7.39117e-09
3.74143e-07
1.06516e-07
9.25846e-09
-7.97679e-09
1.21544e-07
1.07337e-08
-1.01428e-08
3.86252e-08
1.033e-10
-1.04205e-10
2.80188e-09
7.42272e-08
3.07772e-10
-3.10291e-10
8.26654e-09
1.06439e-07
5.14163e-10
-5.17718e-10
1.34881e-08
1.36057e-07
7.36655e-10
-7.40226e-10
1.86091e-08
1.63739e-07
9.9086e-10
-9.92768e-10
2.38235e-08
1.90039e-07
1.29178e-09
-1.28926e-09
2.92884e-08
2.15428e-07
1.65425e-09
-1.64286e-09
3.51294e-08
2.40312e-07
2.09278e-09
-2.06547e-09
4.14413e-08
2.65044e-07
2.62007e-09
-2.56573e-09
4.82855e-08
2.89935e-07
3.24371e-09
-3.14503e-09
5.56837e-08
3.15255e-07
3.96034e-09
-3.79041e-09
6.36079e-08
3.41219e-07
4.74741e-09
-4.4641e-09
7.19641e-08
3.67878e-07
5.54822e-09
-5.08489e-09
8.05707e-08
3.94723e-07
6.24193e-09
-5.49243e-09
8.90893e-08
4.19275e-07
6.59002e-09
-5.39448e-09
9.67509e-08
7.93871e-09
-7.08937e-09
1.12063e-07
3.0383e-09
5.91953e-10
1.0912e-11
5.84903e-09
1.75207e-09
3.30799e-11
8.40851e-09
2.8781e-09
5.69292e-11
1.07823e-08
4.01293e-09
8.49357e-11
1.30224e-08
5.21326e-09
1.20315e-10
1.5167e-08
6.5336e-09
1.67146e-10
1.72373e-08
8.0295e-09
2.30984e-10
1.92327e-08
9.76017e-09
3.19723e-10
2.11216e-08
1.17903e-08
4.44835e-10
2.28292e-08
1.41904e-08
6.2318e-10
2.42243e-08
1.70342e-08
8.79474e-10
2.51161e-08
2.03919e-08
1.24901e-09
2.5286e-08
2.43123e-08
1.77746e-09
2.46125e-08
2.87646e-08
2.50441e-09
2.33606e-08
3.33703e-08
3.37945e-09
4.02733e-08
4.94479e-09
9.0631e-09
1.15715e-09
3.22548e-11
1.7446e-08
3.42411e-09
9.76769e-11
2.5078e-08
5.62188e-09
1.67839e-10
3.21553e-08
7.8325e-09
2.49944e-10
3.88341e-08
1.01647e-08
3.53255e-10
4.52302e-08
1.27221e-08
4.89373e-10
5.14123e-08
1.5609e-08
6.73922e-10
5.73874e-08
1.89353e-08
9.28796e-10
6.30761e-08
2.28193e-08
1.28528e-09
6.82775e-08
2.73861e-08
1.78833e-09
7.26302e-08
3.27596e-08
2.50191e-09
7.55952e-08
3.90396e-08
3.51333e-09
7.65291e-08
4.62493e-08
4.92701e-09
7.50119e-08
5.42049e-08
6.81343e-09
7.16678e-08
6.21036e-08
9.00441e-09
7.02453e-08
1.21334e-08
1.49397e-08
1.67235e-09
5.18862e-11
2.87537e-08
4.94689e-09
1.56866e-10
4.13256e-08
8.11622e-09
2.68841e-10
5.29797e-08
1.12954e-08
3.99017e-10
6.39769e-08
1.46371e-08
5.61568e-10
7.45152e-08
1.82848e-08
7.73903e-10
8.47223e-08
2.23808e-08
1.05898e-09
9.46364e-08
2.70721e-08
1.44822e-09
1.04172e-07
3.25134e-08
1.98519e-09
1.13067e-07
3.88631e-08
2.73019e-09
1.20823e-07
4.62685e-08
3.76471e-09
1.2666e-07
5.48264e-08
5.19133e-09
1.29588e-07
6.44962e-08
7.11452e-09
1.28829e-07
7.49215e-08
9.5613e-09
1.24992e-07
8.4996e-08
1.2244e-08
9.50915e-08
1.52695e-08
2.05795e-08
2.11706e-09
6.86979e-11
3.96003e-08
6.25975e-09
2.0725e-10
5.69005e-08
1.02613e-08
3.53945e-10
7.2929e-08
1.42619e-08
5.22879e-10
8.80498e-08
1.84478e-08
7.31523e-10
1.02548e-07
2.2991e-08
1.00077e-09
1.16625e-07
2.80585e-08
1.35734e-09
1.30379e-07
3.38187e-08
1.83663e-09
1.43773e-07
4.04435e-08
2.48584e-09
1.56575e-07
4.81045e-08
3.36711e-09
1.68285e-07
5.69537e-08
4.55884e-09
1.78058e-07
6.70774e-08
6.14931e-09
1.8472e-07
7.83925e-08
8.20663e-09
1.87131e-07
9.04385e-08
1.06913e-08
1.85375e-07
1.01945e-07
1.32522e-08
1.13118e-07
1.59044e-08
2.58985e-08
2.47487e-09
8.19247e-11
4.9823e-08
7.3144e-09
2.46533e-10
7.15664e-08
1.19788e-08
4.19234e-10
9.16938e-08
1.66243e-08
6.15726e-10
1.10669e-07
2.14596e-08
8.55025e-10
1.28864e-07
2.6673e-08
1.15908e-09
1.46565e-07
3.24421e-08
1.55491e-09
1.63957e-07
3.89402e-08
2.07683e-09
1.81099e-07
4.63389e-08
2.76846e-09
1.97877e-07
5.4804e-08
3.6837e-09
2.1393e-07
6.44793e-08
4.88493e-09
2.28557e-07
7.54477e-08
6.43277e-09
2.4063e-07
8.76325e-08
8.35215e-09
2.48703e-07
1.0057e-07
1.05532e-08
2.51705e-07
1.12921e-07
1.26789e-08
1.24636e-07
1.4808e-08
3.08209e-08
2.7339e-09
9.12044e-11
5.92758e-08
8.07618e-09
2.73676e-10
8.51103e-08
1.32134e-08
4.63087e-10
1.08994e-07
1.83093e-08
6.75496e-10
1.3148e-07
2.35835e-08
9.29856e-10
1.53025e-07
2.92286e-08
1.24711e-09
1.73997e-07
3.54197e-08
1.65184e-09
1.9468e-07
4.232e-08
2.17362e-09
2.15255e-07
5.0083e-08
2.8478e-09
2.35778e-07
5.88505e-08
3.71469e-09
2.56128e-07
6.87422e-08
4.81549e-09
2.75923e-07
7.98358e-08
6.18204e-09
2.94358e-07
9.21039e-08
7.80642e-09
3.09952e-07
1.05222e-07
9.57619e-09
3.20173e-07
1.17996e-07
1.11597e-08
1.30306e-07
1.27871e-08
3.52818e-08
2.88692e-09
9.65618e-11
6.78331e-08
8.52447e-09
2.88837e-10
9.73498e-08
1.39336e-08
4.8603e-10
1.24589e-07
1.9278e-08
7.03526e-10
1.50179e-07
2.47774e-08
9.58952e-10
1.74646e-07
3.06186e-08
1.27079e-09
1.98432e-07
3.69632e-08
1.65944e-09
2.21903e-07
4.39514e-08
2.14773e-09
2.45356e-07
5.17032e-08
2.76074e-09
2.6901e-07
6.0316e-08
3.52358e-09
2.92993e-07
6.98585e-08
4.45646e-09
3.17291e-07
8.03661e-08
5.56622e-09
3.41608e-07
9.18302e-08
6.82483e-09
3.64937e-07
1.04137e-07
8.12502e-09
3.84018e-07
1.16675e-07
9.19951e-09
1.30748e-07
1.05738e-08
3.92267e-08
9.83482e-11
2.93115e-09
7.53913e-08
2.93176e-10
8.65192e-09
1.08136e-07
4.9035e-10
1.41303e-08
1.38285e-07
7.03833e-10
1.95232e-08
1.66523e-07
9.49095e-10
2.50419e-08
1.93424e-07
1.24134e-09
3.08593e-08
2.19479e-07
1.59604e-09
3.7116e-08
2.45111e-07
2.02885e-09
4.39213e-08
2.70685e-07
2.5546e-09
5.13509e-08
2.9652e-07
3.18433e-09
5.94405e-08
3.22883e-07
3.9201e-09
6.81756e-08
3.49968e-07
4.74713e-09
7.74748e-08
3.77762e-07
5.61788e-09
8.71672e-08
4.05574e-07
6.41963e-09
9.69094e-08
4.30344e-07
6.91923e-09
1.05881e-07
8.45739e-09
1.204e-07
3.08326e-09
6.16489e-10
9.90669e-12
5.93661e-09
1.82548e-09
3.00427e-11
8.53711e-09
3.0013e-09
5.1734e-11
1.09523e-08
4.19006e-09
7.72437e-11
1.3236e-08
5.4523e-09
1.09496e-10
1.54273e-08
6.84626e-09
1.52163e-10
1.75485e-08
8.43132e-09
2.10166e-10
1.95991e-08
1.02705e-08
2.90305e-10
2.15473e-08
1.24318e-08
4.02059e-10
2.33187e-08
1.49875e-08
5.58492e-10
2.47855e-08
1.80096e-08
7.76928e-10
2.57692e-08
2.1558e-08
1.0783e-09
2.60807e-08
2.56527e-08
1.48198e-09
2.56492e-08
3.02013e-08
1.98845e-09
2.47524e-08
3.47476e-08
2.53215e-09
4.20699e-08
3.36675e-09
9.19691e-09
1.20503e-09
2.92856e-11
1.77066e-08
3.5673e-09
8.87159e-11
2.54607e-08
5.862e-09
1.52536e-10
3.26612e-08
8.17737e-09
2.27339e-10
3.94695e-08
1.06294e-08
3.21554e-10
4.60051e-08
1.33289e-08
4.45653e-10
5.2339e-08
1.63873e-08
6.13506e-10
5.8479e-08
1.99215e-08
8.44036e-10
6.43452e-08
2.40556e-08
1.1632e-09
6.97371e-08
2.89175e-08
1.60598e-09
7.43004e-08
3.46256e-08
2.21719e-09
7.75241e-08
4.12563e-08
3.0479e-09
7.88375e-08
4.87705e-08
4.13832e-09
7.7945e-08
5.68561e-08
5.46867e-09
7.55072e-08
6.455e-08
6.84621e-09
7.21475e-08
8.46771e-09
1.51591e-08
1.74132e-09
4.71155e-11
2.9181e-08
5.15307e-09
1.42493e-10
4.19527e-08
8.46161e-09
2.4437e-10
5.38087e-08
1.17907e-08
3.63017e-10
6.50181e-08
1.53032e-08
5.11367e-10
7.57853e-08
1.91526e-08
7.05188e-10
8.62423e-08
2.34908e-08
9.64961e-10
9.64289e-08
2.84742e-08
1.31802e-09
1.06258e-07
3.42646e-08
1.80083e-09
1.15468e-07
4.10229e-08
2.46068e-09
1.23563e-07
4.88865e-08
3.35479e-09
1.29791e-07
5.79146e-08
4.54158e-09
1.33238e-07
6.79726e-08
6.05128e-09
1.33269e-07
7.85162e-08
7.81623e-09
1.30547e-07
8.82094e-08
9.54529e-09
9.71227e-08
1.1105e-08
2.08792e-08
2.20399e-09
6.23911e-11
4.01835e-08
6.51946e-09
1.88293e-10
5.77562e-08
1.06959e-08
3.21802e-10
7.40597e-08
1.48839e-08
4.75861e-10
8.94697e-08
1.92825e-08
6.66469e-10
1.04281e-07
2.40754e-08
9.12639e-10
1.187e-07
2.9441e-08
1.23841e-09
1.32829e-07
3.55581e-08
1.67489e-09
1.4663e-07
4.26069e-08
2.2621e-09
1.59867e-07
5.07601e-08
3.04943e-09
1.72036e-07
6.01561e-08
4.09249e-09
1.82301e-07
7.08341e-08
5.43961e-09
1.89536e-07
8.25951e-08
7.09533e-09
1.92706e-07
9.47511e-08
8.94757e-09
1.91961e-07
1.05754e-07
1.06656e-08
1.1534e-07
1.21092e-08
2.62711e-08
2.57597e-09
7.44175e-11
5.05479e-08
7.61625e-09
2.24029e-10
7.26292e-08
1.24831e-08
3.81262e-10
9.30973e-08
1.73449e-08
5.60576e-10
1.1243e-07
2.24241e-08
7.79455e-10
1.31013e-07
2.79221e-08
1.05802e-09
1.4914e-07
3.40287e-08
1.42082e-09
1.67002e-07
4.09282e-08
1.8985e-09
1.84656e-07
4.88e-08
2.52871e-09
2.01984e-07
5.78104e-08
3.35538e-09
2.18611e-07
6.80881e-08
4.42374e-09
2.33821e-07
7.96658e-08
5.76549e-09
2.46481e-07
9.2344e-08
7.3618e-09
2.55167e-07
1.05415e-07
9.07898e-09
2.58869e-07
1.17227e-07
1.05942e-08
1.27176e-07
1.18838e-08
3.12579e-08
2.84497e-09
8.28637e-11
6.01252e-08
8.40758e-09
2.48751e-10
8.63545e-08
1.37663e-08
4.21268e-10
1.10636e-07
1.90978e-08
6.1526e-10
1.33539e-07
2.4636e-08
8.48242e-10
1.55535e-07
3.05871e-08
1.13958e-09
1.77005e-07
3.71386e-08
1.51194e-09
1.98238e-07
4.44642e-08
1.99226e-09
2.19418e-07
5.27245e-08
2.61196e-09
2.40594e-07
6.20612e-08
3.40516e-09
2.61628e-07
7.2579e-08
4.40317e-09
2.82098e-07
8.43089e-08
5.62185e-09
3.01137e-07
9.71089e-08
7.03032e-09
3.17179e-07
1.10417e-07
8.49904e-09
3.27702e-07
1.22712e-07
9.73876e-09
1.33294e-07
1.09081e-08
3.57735e-08
3.00356e-09
8.77504e-11
6.8788e-08
8.87227e-09
2.62597e-10
9.87468e-08
1.45132e-08
4.42282e-10
1.2643e-07
2.01028e-08
6.4109e-10
1.52484e-07
2.58754e-08
8.75409e-10
1.77453e-07
3.20313e-08
1.16252e-09
2.01791e-07
3.87434e-08
1.52158e-09
2.25876e-07
4.61617e-08
1.97401e-09
2.50006e-07
5.44121e-08
2.54301e-09
2.74397e-07
6.35909e-08
3.25132e-09
2.99155e-07
7.37526e-08
4.1159e-09
3.24215e-07
8.48912e-08
5.13892e-09
3.49179e-07
9.69016e-08
6.28638e-09
3.7286e-07
1.09465e-07
7.45411e-09
3.91899e-07
1.21654e-07
8.41932e-09
1.34242e-07
9.64547e-09
3.97629e-08
8.93945e-11
3.04896e-09
7.64314e-08
2.66612e-10
9.00299e-09
1.09655e-07
4.46365e-10
1.47146e-08
1.40283e-07
6.41678e-10
2.03533e-08
1.6902e-07
8.67041e-10
2.61443e-08
1.96459e-07
1.13687e-09
3.22732e-08
2.23104e-07
1.46605e-09
3.88909e-08
2.4939e-07
1.86988e-09
4.61148e-08
2.75688e-07
2.36311e-09
5.40248e-08
3.02311e-07
2.95732e-09
6.26542e-08
3.29507e-07
3.65608e-09
7.1974e-08
3.57417e-07
4.44747e-09
8.1865e-08
3.85911e-07
5.28935e-09
9.20753e-08
4.14083e-07
6.08474e-09
1.02099e-07
4.38675e-07
6.64378e-09
1.10854e-07
8.19178e-09
1.24191e-07
3.12211e-09
6.37921e-10
8.48725e-12
6.01238e-09
1.88955e-09
2.57436e-11
8.64852e-09
3.10858e-09
4.43458e-11
1.10998e-08
4.34374e-09
6.62331e-11
1.34214e-08
5.65851e-09
9.38924e-11
1.56537e-08
7.1138e-09
1.30404e-10
1.78198e-08
8.77125e-09
1.79802e-10
1.99199e-08
1.06955e-08
2.47473e-10
2.19229e-08
1.29548e-08
3.40532e-10
2.37564e-08
1.5619e-08
4.68016e-10
2.52974e-08
1.87532e-08
6.40404e-10
2.6378e-08
2.24037e-08
8.67501e-10
2.68274e-08
2.65701e-08
1.15291e-09
2.65909e-08
3.11443e-08
1.48278e-09
2.5914e-08
3.56919e-08
1.8058e-09
4.34926e-08
2.26839e-09
9.31249e-09
1.24685e-09
2.50915e-11
1.7932e-08
3.69226e-09
7.60273e-11
2.5792e-08
6.07111e-09
1.30766e-10
3.30998e-08
8.47661e-09
1.94963e-10
4.0021e-08
1.10304e-08
2.758e-10
4.66785e-08
1.38484e-08
3.82073e-10
5.3146e-08
1.70462e-08
5.25185e-10
5.94331e-08
2.07437e-08
7.20176e-10
6.54622e-08
2.5065e-08
9.86617e-10
7.10372e-08
3.01324e-08
1.34879e-09
7.58156e-08
3.60499e-08
1.83368e-09
7.93121e-08
4.28639e-08
2.46419e-09
8.10013e-08
5.0487e-08
3.2424e-09
8.06255e-08
5.8556e-08
4.11803e-09
7.87584e-08
6.61163e-08
4.94236e-09
7.3678e-08
5.80452e-09
1.53486e-08
1.80157e-09
4.03731e-11
2.95503e-08
5.33302e-09
1.22131e-10
4.24956e-08
8.76245e-09
2.09534e-10
5.45271e-08
1.22206e-08
3.11408e-10
6.59212e-08
1.58784e-08
4.38795e-10
7.6888e-08
1.98961e-08
6.04989e-10
8.75638e-08
2.44316e-08
8.26919e-10
9.79915e-08
2.96447e-08
1.12646e-09
1.08087e-07
3.56967e-08
1.53134e-09
1.17592e-07
4.27399e-08
2.07463e-09
1.26023e-07
5.08883e-08
2.79063e-09
1.32657e-07
6.01544e-08
3.70323e-09
1.36629e-07
7.03251e-08
4.79958e-09
1.37344e-07
8.07637e-08
5.986e-09
1.35356e-07
9.01195e-08
7.04157e-09
9.85716e-08
7.84777e-09
2.11379e-08
2.27994e-09
5.34722e-11
4.06875e-08
6.74618e-09
1.61418e-10
5.84967e-08
1.10745e-08
2.75999e-10
7.50391e-08
1.54241e-08
4.08365e-10
9.07005e-08
2.00036e-08
5.72217e-10
1.05783e-07
2.50053e-08
7.83677e-10
1.205e-07
3.06141e-08
1.06276e-09
1.34958e-07
3.70128e-08
1.43464e-09
1.4912e-07
4.43799e-08
1.93014e-09
1.62752e-07
5.28768e-08
2.58425e-09
1.75357e-07
6.26115e-08
3.43041e-09
1.86115e-07
7.35631e-08
4.48542e-09
1.93933e-07
8.54305e-08
5.71834e-09
1.97806e-07
9.74018e-08
7.00483e-09
1.97786e-07
1.07899e-07
8.09508e-09
1.16702e-07
8.87627e-09
2.65928e-08
2.66433e-09
6.37929e-11
5.11742e-08
7.87983e-09
1.92098e-10
7.35486e-08
1.29228e-08
3.27098e-10
9.43126e-08
1.79711e-08
4.8128e-10
1.13956e-07
2.32581e-08
6.69686e-10
1.32875e-07
2.89944e-08
9.09495e-10
1.51371e-07
3.53771e-08
1.22137e-09
1.69638e-07
4.25942e-08
1.63044e-09
1.87738e-07
5.08227e-08
2.16628e-09
2.05548e-07
6.02153e-08
2.86073e-09
2.22693e-07
7.08668e-08
3.74144e-09
2.3845e-07
8.27428e-08
4.81672e-09
2.51691e-07
9.55303e-08
6.0447e-09
2.60993e-07
1.08379e-07
7.2928e-09
2.65291e-07
1.19592e-07
8.31559e-09
1.28586e-07
9.09369e-09
3.16351e-08
2.94206e-09
7.10499e-11
6.0859e-08
8.69706e-09
2.13354e-10
8.74307e-08
1.42486e-08
3.61546e-10
1.12056e-07
1.97834e-08
5.28494e-10
1.35321e-07
2.55469e-08
7.29346e-10
1.57707e-07
3.17549e-08
9.80779e-10
1.79605e-07
3.86021e-08
1.30211e-09
2.0131e-07
4.62656e-08
1.71588e-09
2.23006e-07
5.49031e-08
2.24738e-09
2.44738e-07
6.46416e-08
2.92226e-09
2.66355e-07
7.55515e-08
3.76042e-09
2.8741e-07
8.75971e-08
4.76376e-09
3.07003e-07
1.00524e-07
5.89053e-09
3.23534e-07
1.13623e-07
7.02183e-09
3.3446e-07
1.25316e-07
7.93591e-09
1.3492e-07
8.75988e-09
3.61978e-08
3.10556e-09
7.52587e-11
6.96128e-08
9.1762e-09
2.25294e-10
9.99549e-08
1.50189e-08
3.79722e-10
1.28022e-07
2.08204e-08
5.50976e-10
1.54479e-07
2.68266e-08
7.53311e-10
1.79881e-07
3.32472e-08
1.00176e-09
2.04693e-07
4.02621e-08
1.31293e-09
2.29299e-07
4.80241e-08
1.70517e-09
2.54e-07
5.66557e-08
2.19788e-09
2.79003e-07
6.62387e-08
2.809e-09
3.04394e-07
7.67952e-08
3.55006e-09
3.30069e-07
8.82573e-08
4.41773e-09
3.55566e-07
1.00418e-07
5.37657e-09
3.79624e-07
1.12824e-07
6.33753e-09
3.98879e-07
1.24481e-07
7.13067e-09
1.36197e-07
8.13901e-09
4.02255e-08
7.66886e-11
3.15202e-09
7.73299e-08
2.28806e-10
9.30992e-09
1.1097e-07
3.83373e-10
1.52248e-08
1.42013e-07
5.51779e-10
2.1076e-08
1.71182e-07
7.4671e-10
2.71002e-08
1.99083e-07
9.80855e-10
3.34919e-08
2.26234e-07
1.2674e-09
4.04082e-08
2.53074e-07
1.6199e-09
4.79689e-08
2.79976e-07
2.0513e-09
5.62499e-08
3.07245e-07
2.57162e-09
6.5271e-08
3.35107e-07
3.18361e-09
7.49734e-08
3.63655e-07
3.87628e-09
8.51831e-08
3.92679e-07
4.61306e-09
9.55623e-08
4.21175e-07
5.31563e-09
1.05493e-07
4.45856e-07
5.8376e-09
1.1382e-07
7.20621e-09
1.26425e-07
3.15414e-09
6.55681e-10
6.70717e-12
6.07489e-09
1.94258e-09
2.03465e-11
8.74051e-09
3.19719e-09
3.50534e-11
1.12217e-08
4.47019e-09
5.23549e-11
1.35748e-08
5.82721e-09
7.41933e-11
1.58412e-08
7.33087e-09
1.02938e-10
1.80448e-08
9.04393e-09
1.41618e-10
2.01866e-08
1.10312e-08
1.94134e-10
2.22367e-08
1.33594e-08
2.65358e-10
2.41245e-08
1.60947e-08
3.60931e-10
2.57306e-08
1.92951e-08
4.86393e-10
2.68929e-08
2.29975e-08
6.4504e-10
2.74472e-08
2.71945e-08
8.33939e-10
2.7336e-08
3.17863e-08
1.0384e-09
2.67734e-08
3.63725e-08
1.22547e-09
4.45382e-08
1.48926e-09
9.40775e-09
1.2815e-09
1.98305e-11
1.81179e-08
3.79571e-09
6.0093e-11
2.60655e-08
6.24383e-09
1.03376e-10
3.34621e-08
8.72286e-09
1.54135e-10
4.04768e-08
1.13586e-08
2.17987e-10
4.72356e-08
1.427e-08
3.01711e-10
5.38145e-08
1.75751e-08
4.13891e-10
6.02255e-08
2.13936e-08
5.65455e-10
6.63938e-08
2.58467e-08
7.69853e-10
7.21279e-08
3.10488e-08
1.04229e-09
7.70943e-08
3.70887e-08
1.39687e-09
8.08222e-08
4.39912e-08
1.84019e-09
8.2801e-08
5.16474e-08
2.35945e-09
8.27626e-08
5.96921e-08
2.90671e-09
8.11944e-08
6.72153e-08
3.3857e-09
7.48947e-08
3.85612e-09
1.55047e-08
1.8515e-09
3.19119e-11
2.98548e-08
5.48201e-09
9.65475e-11
4.29434e-08
9.01099e-09
1.65676e-10
5.51202e-08
1.25745e-08
2.46263e-10
6.66672e-08
1.63493e-08
3.46961e-10
7.77993e-08
2.05e-08
4.78052e-10
8.8657e-08
2.51874e-08
6.52345e-10
9.92863e-08
3.05712e-08
8.85833e-10
1.09607e-07
3.68077e-08
1.19773e-09
1.19365e-07
4.40368e-08
1.60888e-09
1.28089e-07
5.23495e-08
2.13693e-09
1.35067e-07
6.17226e-08
2.78613e-09
1.39453e-07
7.19016e-08
3.52897e-09
1.40631e-07
8.22294e-08
4.28382e-09
1.39038e-07
9.14013e-08
4.90621e-09
9.9738e-08
5.32827e-09
2.13509e-08
2.3429e-09
4.22729e-11
4.11029e-08
6.93393e-09
1.2763e-10
5.91073e-08
1.13874e-08
2.18286e-10
7.58473e-08
1.5869e-08
3.23058e-10
9.17164e-08
2.05945e-08
4.52718e-10
1.07023e-07
2.57613e-08
6.19794e-10
1.21987e-07
3.15578e-08
8.39543e-10
1.36717e-07
3.81661e-08
1.13054e-09
1.51181e-07
4.57582e-08
1.51442e-09
1.65147e-07
5.44793e-08
2.0135e-09
1.78124e-07
6.44073e-08
2.64486e-09
1.89301e-07
7.54733e-08
3.40774e-09
1.97591e-07
8.73177e-08
4.26198e-09
2.01964e-07
9.90918e-08
5.10459e-09
2.02364e-07
1.09267e-07
5.76945e-09
1.17748e-07
6.19334e-09
2.68577e-08
2.73758e-09
5.04425e-11
5.16903e-08
8.09818e-09
1.51924e-10
7.43067e-08
1.32863e-08
2.58779e-10
9.5315e-08
1.84871e-08
3.8091e-10
1.15215e-07
2.39419e-08
5.30191e-10
1.34411e-07
2.98673e-08
7.20054e-10
1.53209e-07
3.64636e-08
9.66392e-10
1.71811e-07
4.39179e-08
1.288e-09
1.90278e-07
5.23993e-08
1.70599e-09
2.08489e-07
6.2042e-08
2.24112e-09
2.26065e-07
7.29059e-08
2.90769e-09
2.42282e-07
8.49015e-08
3.70115e-09
2.56002e-07
9.76466e-08
4.57667e-09
2.65779e-07
1.10242e-07
5.42759e-09
2.70463e-07
1.21043e-07
6.08653e-09
1.29582e-07
6.55222e-09
3.19456e-08
3.02259e-09
5.61937e-11
6.14636e-08
8.93696e-09
1.68779e-10
8.83178e-08
1.46475e-08
2.8613e-10
1.13228e-07
2.03487e-08
4.18485e-10
1.36791e-07
2.62944e-08
5.77856e-10
1.59498e-07
3.27067e-08
7.77382e-10
1.81746e-07
3.97834e-08
1.03209e-09
2.03835e-07
4.77005e-08
1.35912e-09
2.25952e-07
5.66071e-08
1.77695e-09
2.48136e-07
6.66102e-08
2.30286e-09
2.70227e-07
7.77444e-08
2.94749e-09
2.91762e-07
8.99171e-08
3.7051e-09
3.11817e-07
1.02801e-07
4.53551e-09
3.28761e-07
1.15635e-07
5.34522e-09
3.4001e-07
1.26887e-07
5.97879e-09
1.35991e-07
6.53699e-09
3.65471e-08
3.1902e-09
5.95371e-11
7.02924e-08
9.42819e-09
1.78275e-10
1.00951e-07
1.54374e-08
3.00624e-10
1.29336e-07
2.14126e-08
4.36514e-10
1.56124e-07
2.76081e-08
5.97308e-10
1.81881e-07
3.42396e-08
7.9495e-10
2.0708e-07
4.14904e-08
1.04254e-09
2.32109e-07
4.95118e-08
1.35433e-09
2.5727e-07
5.84176e-08
1.7449e-09
2.82762e-07
6.82701e-08
2.22688e-09
3.08655e-07
7.90563e-08
2.80666e-09
3.34821e-07
9.06545e-08
3.47793e-09
3.60756e-07
1.02789e-07
4.20954e-09
3.85165e-07
1.14954e-07
4.93308e-09
4.04672e-07
1.26194e-07
5.52747e-09
1.37439e-07
6.28623e-09
4.06064e-08
6.06839e-11
3.23756e-09
7.80703e-08
1.81107e-10
9.56448e-09
1.12053e-07
3.03629e-10
1.56472e-08
1.43439e-07
4.37381e-10
2.16728e-08
1.72964e-07
5.92532e-10
2.78863e-08
2.01245e-07
7.79268e-10
3.4488e-08
2.28808e-07
1.00817e-09
4.16381e-08
2.56096e-07
1.29002e-09
4.94546e-08
2.83482e-07
1.63496e-09
5.80053e-08
3.11263e-07
2.05044e-09
6.72917e-08
3.39644e-07
2.53771e-09
7.72231e-08
3.68685e-07
3.08695e-09
8.7577e-08
3.98131e-07
3.66875e-09
9.79558e-08
4.26935e-07
4.22392e-09
1.07693e-07
4.51804e-07
4.64525e-09
1.15655e-07
5.7233e-09
1.27832e-07
3.17873e-09
6.69341e-10
4.63923e-12
6.1229e-09
1.98333e-09
1.40738e-11
8.8112e-09
3.26514e-09
2.4247e-11
1.13154e-08
4.56682e-09
3.62101e-11
1.36927e-08
5.95545e-09
5.12899e-11
1.59854e-08
7.49466e-09
7.10845e-11
1.82181e-08
9.24758e-09
9.75937e-11
2.03924e-08
1.12785e-08
1.33311e-10
2.24794e-08
1.36523e-08
1.81198e-10
2.44097e-08
1.64316e-08
2.44393e-10
2.60658e-08
1.96694e-08
3.25433e-10
2.72879e-08
2.33979e-08
4.24734e-10
2.79115e-08
2.76109e-08
5.38307e-10
2.78721e-08
3.22221e-08
6.55603e-10
2.73636e-08
3.68552e-08
7.58204e-10
4.52732e-08
9.04567e-10
9.48088e-09
1.30815e-09
1.37172e-11
1.82606e-08
3.8752e-09
4.15696e-11
2.62757e-08
6.37629e-09
7.15132e-11
3.37406e-08
8.91107e-09
1.06618e-10
4.08273e-08
1.16081e-08
1.50723e-10
4.76641e-08
1.45883e-08
2.08411e-10
5.43292e-08
1.79703e-08
2.85359e-10
6.08364e-08
2.18727e-08
3.88574e-10
6.71133e-08
2.64131e-08
5.26259e-10
7.29718e-08
3.16982e-08
7.06883e-10
7.80829e-08
3.78062e-08
9.36787e-10
8.19809e-08
4.47503e-08
1.21568e-09
8.41535e-08
5.2417e-08
1.52982e-09
8.43107e-08
6.04566e-08
1.84564e-09
8.28846e-08
6.79949e-08
2.10851e-09
7.58102e-08
2.3599e-09
1.56245e-08
1.88991e-09
2.20765e-11
3.00885e-08
5.59651e-09
6.67951e-11
4.32873e-08
9.20163e-09
1.14629e-10
5.55758e-08
1.28451e-08
1.70383e-10
6.72403e-08
1.67074e-08
2.39984e-10
7.84998e-08
2.09562e-08
3.30398e-10
8.94976e-08
2.57527e-08
4.50136e-10
1.00283e-07
3.12549e-08
6.09502e-10
1.10778e-07
3.76135e-08
8.203e-10
1.20734e-07
4.4957e-08
1.09419e-09
1.29682e-07
5.33592e-08
1.43888e-09
1.36917e-07
6.27764e-08
1.85105e-09
1.41585e-07
7.29394e-08
2.30583e-09
1.43038e-07
8.32005e-08
2.74734e-09
1.41639e-07
9.23002e-08
3.09218e-09
1.00654e-07
3.30821e-09
2.15144e-08
2.39133e-09
2.92484e-11
4.14217e-08
7.07825e-09
8.83134e-11
5.95761e-08
1.16274e-08
1.51061e-10
7.64679e-08
1.62093e-08
2.23584e-10
9.24965e-08
2.10441e-08
3.13281e-10
1.07976e-07
2.63328e-08
4.28673e-10
1.23129e-07
3.22644e-08
5.79951e-10
1.38069e-07
3.90186e-08
7.79186e-10
1.52765e-07
4.67597e-08
1.0398e-09
1.6699e-07
5.56184e-08
1.37443e-09
1.80252e-07
6.56495e-08
1.79033e-09
1.91742e-07
7.67549e-08
2.28091e-09
2.00365e-07
8.85506e-08
2.81311e-09
2.05052e-07
1.00191e-07
3.31721e-09
2.0567e-07
1.10201e-07
3.69522e-09
1.1858e-07
3.91765e-09
2.70609e-08
2.79396e-09
3.49069e-11
5.20863e-08
8.26608e-09
1.05145e-10
7.48885e-08
1.35653e-08
1.7913e-10
9.60844e-08
1.88819e-08
2.63722e-10
1.16181e-07
2.44628e-08
3.67101e-10
1.35589e-07
3.05278e-08
4.98447e-10
1.5462e-07
3.72782e-08
6.68454e-10
1.73477e-07
4.48981e-08
8.89469e-10
1.92225e-07
5.35476e-08
1.17479e-09
2.10742e-07
6.33438e-08
1.53638e-09
2.28647e-07
7.43197e-08
1.98035e-09
2.4521e-07
8.63507e-08
2.49864e-09
2.5928e-07
9.90224e-08
3.05627e-09
2.69375e-07
1.11434e-07
3.58139e-09
2.74285e-07
1.22002e-07
3.97233e-09
1.30349e-07
4.2364e-09
3.21838e-08
3.08459e-09
3.88943e-11
6.19275e-08
9.1215e-09
1.16836e-10
8.89987e-08
1.49538e-08
1.9812e-10
1.14127e-07
2.07816e-08
2.89856e-10
1.37918e-07
2.68644e-08
4.00351e-10
1.60871e-07
3.34278e-08
5.38638e-10
1.83387e-07
4.06706e-08
7.14914e-10
2.05769e-07
4.87654e-08
9.40592e-10
2.28205e-07
5.78516e-08
1.22754e-09
2.50731e-07
6.80182e-08
1.58598e-09
2.7318e-07
7.92708e-08
2.02063e-09
2.95076e-07
9.14795e-08
2.52417e-09
3.15477e-07
1.04282e-07
3.06633e-09
3.32725e-07
1.1691e-07
3.58432e-09
3.44191e-07
1.27895e-07
3.98079e-09
1.36765e-07
4.32652e-09
3.68151e-08
3.25537e-09
4.12171e-11
7.08138e-08
9.6221e-09
1.23439e-10
1.01715e-07
1.5759e-08
2.08221e-10
1.30344e-07
2.18663e-08
3.02476e-10
1.57386e-07
2.82044e-08
4.14096e-10
1.83414e-07
3.49924e-08
5.51345e-10
2.08908e-07
4.24146e-08
7.23212e-10
2.34258e-07
5.06187e-08
9.39334e-10
2.59765e-07
5.97089e-08
1.20928e-09
2.85624e-07
6.97294e-08
1.5408e-09
3.11893e-07
8.06391e-08
1.93675e-09
3.38426e-07
9.2279e-08
2.39091e-09
3.64696e-07
1.04339e-07
2.88057e-09
3.89386e-07
1.16304e-07
3.35996e-09
4.09098e-07
1.27277e-07
3.75162e-09
1.38285e-07
4.25428e-09
4.08987e-08
4.20202e-11
3.30345e-09
7.86385e-08
1.2543e-10
9.76046e-09
1.12885e-07
2.10369e-10
1.59719e-08
1.44534e-07
3.03209e-10
2.21304e-08
1.74332e-07
4.11047e-10
2.84866e-08
2.02903e-07
5.40985e-10
3.52447e-08
2.30779e-07
7.00374e-10
4.25653e-08
2.58406e-07
8.96639e-10
5.05632e-08
2.86155e-07
1.13661e-09
5.92969e-08
3.14316e-07
1.42504e-09
6.87512e-08
3.43082e-07
1.76213e-09
7.88091e-08
3.72489e-07
2.14027e-09
8.92141e-08
4.02257e-07
2.53888e-09
9.9536e-08
4.31319e-07
2.91823e-09
1.09097e-07
4.5637e-07
3.20778e-09
1.16811e-07
3.94262e-09
1.28753e-07
3.19541e-09
6.78604e-10
2.37092e-12
6.15546e-09
2.01095e-09
7.19262e-12
8.85914e-09
3.31111e-09
1.23914e-11
1.13789e-08
4.632e-09
1.85026e-11
1.37728e-08
6.04158e-09
2.61982e-11
1.60834e-08
7.60401e-09
3.62803e-11
1.83358e-08
9.38247e-09
4.97387e-11
2.05323e-08
1.14406e-08
6.77799e-11
2.26444e-08
1.38418e-08
9.17876e-11
2.46035e-08
1.66461e-08
1.23132e-10
2.62928e-08
1.99037e-08
1.62735e-10
2.75527e-08
2.36454e-08
2.10318e-10
2.82168e-08
2.78681e-08
2.63418e-10
2.82145e-08
3.24967e-08
3.16753e-10
2.77296e-08
3.71679e-08
3.62254e-10
4.57428e-08
4.2824e-10
9.53044e-09
1.32623e-09
7.01061e-12
1.83573e-08
3.92907e-09
2.12457e-11
2.64181e-08
6.46589e-09