/*--------------------------------*- C++ -*----------------------------------*\
| =========                 |                                                 |
| \\      /  F ield         | foam-extend: Open Source CFD                    |
|  \\    /   O peration     | Version:     3.1                                |
|   \\  /    A nd           | Web:         http://www.extend-project.de       |
|    \\/     M anipulation  |                                                 |
\*---------------------------------------------------------------------------*/
FoamFile
{
    version     2.0;
    format      ascii;
    class       volScalarField;
    location    "4";
    object      p;
}
// * * * * * * * * * * * * * * * * * * * * * * * * * * * * * * * * * * * * * //

dimensions      [0 2 -2 0 0 0 0];

internalField   nonuniform List<scalar> 
14592
(
0.0241983
0.0240092
0.023824
0.0236576
0.0235148
0.0233984
0.0233104
0.023252
0.0232218
0.0232131
0.0232094
0.023176
0.0230474
0.0226943
0.0219132
0.0207714
0.0242181
0.024011
0.0238262
0.0236659
0.0235292
0.0234181
0.0233347
0.0232799
0.0232522
0.0232447
0.0232409
0.0232066
0.0230764
0.022721
0.0218694
0.020423
0.0242095
0.023987
0.0237979
0.0236387
0.0235036
0.0233935
0.0233108
0.023257
0.0232323
0.0232323
0.0232445
0.0232393
0.0231559
0.0228603
0.0219863
0.0201893
0.0241723
0.0239366
0.0237389
0.0235753
0.0234363
0.0233219
0.0232349
0.0231782
0.0231547
0.0231647
0.0232028
0.0232486
0.0232521
0.023087
0.0223138
0.0203001
0.0241064
0.0238595
0.0236521
0.0234803
0.0233333
0.0232101
0.0231137
0.0230487
0.0230211
0.0230364
0.0230989
0.0232011
0.0233124
0.0233322
0.0227865
0.0207031
0.0240128
0.0237568
0.0235394
0.0233571
0.0231985
0.0230616
0.0229498
0.0228682
0.0228253
0.0228306
0.0228976
0.0230325
0.0232328
0.0234379
0.0232116
0.0212011
0.0238956
0.0236325
0.0234057
0.0232114
0.023038
0.0228827
0.0227484
0.0226397
0.0225653
0.0225352
0.0225674
0.0226726
0.0228801
0.0231666
0.0232877
0.0213818
0.0237619
0.0234937
0.0232587
0.0230518
0.0228613
0.0226837
0.0225204
0.0223743
0.022252
0.0221587
0.0221085
0.0220941
0.0221557
0.0221934
0.022472
0.0197196
0.0244362
0.0242384
0.0240524
0.0238949
0.0237716
0.0236861
0.0236422
0.0236435
0.0236921
0.0237868
0.0239199
0.0240708
0.0241976
0.0242126
0.0240092
0.0237541
0.0244591
0.0242416
0.0240548
0.0239035
0.0237866
0.023707
0.0236684
0.0236741
0.0237258
0.0238219
0.0239542
0.024102
0.0242247
0.0242352
0.0240248
0.0238479
0.0244525
0.024219
0.0240273
0.0238774
0.0237627
0.0236852
0.0236489
0.0236579
0.0237157
0.023824
0.0239793
0.0241679
0.0243567
0.0244624
0.0243363
0.0242731
0.0244147
0.0241678
0.0239673
0.0238129
0.0236949
0.0236141
0.0235753
0.0235843
0.0236484
0.0237749
0.0239701
0.0242333
0.0245488
0.0248366
0.0248966
0.0250076
0.0243444
0.0240864
0.0238756
0.0237127
0.0235865
0.0234971
0.0234499
0.0234529
0.0235173
0.0236576
0.0238925
0.0242385
0.0247042
0.0252366
0.0255606
0.0258859
0.0242426
0.0239753
0.0237539
0.0235794
0.0234405
0.0233363
0.0232728
0.023259
0.0233093
0.0234433
0.0236911
0.0240867
0.02467
0.0254313
0.0260537
0.0266037
0.0241139
0.0238391
0.0236072
0.0234191
0.0232631
0.0231378
0.0230485
0.0230037
0.0230181
0.0231114
0.0233184
0.0236785
0.0242617
0.0251072
0.0259429
0.0264203
0.0239661
0.0236857
0.0234443
0.0232413
0.0230651
0.0229131
0.0227892
0.0226993
0.0226552
0.0226699
0.0227708
0.0229735
0.0233461
0.0238536
0.0245566
0.0230065
0.0246654
0.0244606
0.0242756
0.0241284
0.0240254
0.0239714
0.0239717
0.0240317
0.0241566
0.0243493
0.0246076
0.0249196
0.0252544
0.0255425
0.0256874
0.0257056
0.0246913
0.0244655
0.0242785
0.0241376
0.0240414
0.0239939
0.0240002
0.0240654
0.0241939
0.024388
0.0246447
0.0249511
0.025279
0.0255635
0.0257331
0.0258725
0.0246868
0.0244446
0.0242523
0.0241131
0.02402
0.0239757
0.0239859
0.0240567
0.0241945
0.0244048
0.0246902
0.0250451
0.0254494
0.0258436
0.0261487
0.026482
0.0246485
0.024393
0.0241917
0.0240482
0.0239523
0.0239058
0.0239153
0.0239892
0.0241381
0.0243742
0.0247109
0.0251566
0.0257078
0.026302
0.0268356
0.027416
0.0245743
0.0243076
0.0240957
0.0239433
0.0238392
0.0237843
0.0237865
0.0238566
0.0240101
0.0242677
0.0246566
0.0252039
0.0259302
0.0267899
0.0275947
0.0284308
0.0244648
0.0241888
0.0239654
0.0238006
0.0236826
0.0236119
0.0235969
0.02365
0.0237906
0.0240451
0.0244538
0.0250613
0.0259185
0.0270053
0.0280823
0.0291343
0.0243251
0.0240411
0.0238064
0.0236262
0.023489
0.0233945
0.0233504
0.0233689
0.0234693
0.0236785
0.0240409
0.0246061
0.0254521
0.0265933
0.0277737
0.0286016
0.0241636
0.0238734
0.023628
0.0234307
0.0232702
0.0231447
0.0230604
0.0230264
0.0230585
0.0231749
0.0234112
0.0237887
0.0243776
0.0251083
0.0259589
0.0242374
0.0248754
0.0246653
0.0244823
0.0243458
0.0242626
0.0242384
0.0242797
0.0243936
0.0245872
0.0248657
0.0252304
0.0256722
0.0261639
0.0266393
0.026987
0.0271022
0.0249042
0.0246721
0.0244859
0.0243558
0.0242798
0.0242626
0.0243106
0.0244303
0.0246279
0.0249078
0.0252698
0.0257045
0.0261866
0.0266582
0.0270381
0.0272718
0.0249017
0.0246529
0.0244613
0.0243332
0.0242609
0.0242481
0.0243017
0.0244291
0.0246387
0.0249381
0.0253324
0.0258189
0.0263812
0.0269642
0.0274926
0.0279289
0.0248632
0.0246011
0.0244004
0.0242682
0.0241938
0.0241799
0.0242345
0.0243678
0.0245925
0.0249237
0.0253776
0.0259648
0.0266816
0.0274623
0.0282291
0.028921
0.0247855
0.0245123
0.0243007
0.0241593
0.0240767
0.0240547
0.0241028
0.0242343
0.0244674
0.0248261
0.0253412
0.0260415
0.026946
0.0280025
0.0290194
0.0299613
0.0246691
0.0243864
0.0241628
0.024008
0.0239106
0.0238718
0.023902
0.0240163
0.0242373
0.0245953
0.0251346
0.0259009
0.0269397
0.0282081
0.0294703
0.0305977
0.0245192
0.0242283
0.0239924
0.0238207
0.0237022
0.023637
0.0236352
0.0237115
0.0238887
0.0241972
0.0246854
0.0254025
0.026419
0.0277134
0.0290058
0.0298133
0.0243451
0.0240474
0.0237996
0.0236089
0.023464
0.0233641
0.023317
0.0233341
0.0234343
0.0236384
0.0239846
0.0244913
0.0252188
0.0260538
0.0269081
0.0248813
0.0250568
0.024843
0.0246621
0.0245355
0.0244699
0.0244719
0.0245488
0.0247086
0.0249596
0.0253083
0.0257569
0.0262969
0.0268991
0.0274953
0.0279555
0.0281077
0.0250879
0.0248508
0.0246665
0.0245463
0.0244883
0.0244977
0.0245819
0.024748
0.0250033
0.0253531
0.0257981
0.0263294
0.0269206
0.0275118
0.0280039
0.0282687
0.0250873
0.0248335
0.0246434
0.0245255
0.024472
0.0244868
0.0245778
0.0247535
0.0250228
0.0253945
0.0258741
0.0264581
0.0271294
0.0278291
0.0284685
0.0289316
0.0250486
0.0247818
0.0245824
0.0244607
0.0244056
0.0244202
0.0245138
0.0246975
0.0249854
0.0253932
0.0259375
0.0266277
0.0274548
0.0283473
0.0292192
0.0299328
0.0249681
0.0246902
0.0244796
0.0243486
0.0242853
0.024292
0.0243799
0.0245634
0.0248625
0.0253022
0.0259136
0.0267231
0.0277421
0.0289051
0.030012
0.0309645
0.0248458
0.0245582
0.0243352
0.02419
0.0241111
0.0241002
0.0241695
0.0243357
0.0246231
0.0250638
0.0257021
0.0265802
0.0277332
0.0290966
0.0304239
0.0315369
0.0246872
0.024391
0.0241549
0.0239916
0.0238898
0.0238505
0.0238853
0.0240106
0.0242512
0.0246388
0.0252221
0.0260455
0.0271675
0.0285368
0.0298484
0.0305823
0.0245021
0.0241988
0.0239498
0.0237656
0.023635
0.0235576
0.0235427
0.0236034
0.0237599
0.0240341
0.0244635
0.0250605
0.0258728
0.0267512
0.0275646
0.0252779
0.0252009
0.0249848
0.0248059
0.0246875
0.0246363
0.0246593
0.0247643
0.0249601
0.0252553
0.025657
0.0261671
0.0267762
0.0274523
0.0281226
0.0286411
0.0288084
0.0252339
0.0249934
0.024811
0.0246991
0.0246558
0.0246866
0.0247994
0.0250018
0.0253015
0.025704
0.0262096
0.026809
0.0274727
0.0281364
0.0286876
0.0289596
0.0252349
0.0249777
0.0247892
0.02468
0.0246417
0.0246787
0.0247994
0.0250127
0.025328
0.0257539
0.0262954
0.0269471
0.0276893
0.0284575
0.0291511
0.0296174
0.0251961
0.0249261
0.0247283
0.0246154
0.0245761
0.0246136
0.024738
0.0249611
0.0252973
0.0257622
0.0263716
0.027132
0.0280288
0.0289838
0.029902
0.030613
0.0251133
0.0248323
0.024623
0.0245007
0.0244532
0.0244831
0.0246024
0.0248265
0.0251759
0.0256757
0.0263557
0.0272385
0.0283278
0.0295471
0.0306881
0.0316292
0.0249864
0.0246955
0.0244735
0.0243364
0.0242726
0.0242842
0.0243844
0.0245909
0.0249291
0.0254308
0.0261392
0.0270917
0.0283136
0.0297244
0.0310685
0.0321535
0.0248209
0.0245212
0.0242854
0.0241292
0.0240412
0.0240227
0.0240864
0.0242498
0.0245388
0.0249848
0.0256352
0.026529
0.0277139
0.0291176
0.0304182
0.0310871
0.024627
0.0243198
0.0240704
0.0238918
0.023773
0.0237138
0.0237244
0.023819
0.0240187
0.0243447
0.0248331
0.0254898
0.0263519
0.0272446
0.0280129
0.0255363
0.0253012
0.0250837
0.0249067
0.0247943
0.0247534
0.0247912
0.0249159
0.0251365
0.0254619
0.0258991
0.0264495
0.0271027
0.0278243
0.0285358
0.0290836
0.0292545
0.0253354
0.0250932
0.0249127
0.024807
0.0247743
0.0248204
0.0249533
0.025181
0.0255113
0.0259494
0.0264949
0.0271385
0.0278468
0.0285517
0.0291323
0.0294001
0.0253374
0.0250787
0.0248918
0.0247891
0.024762
0.0248149
0.0249566
0.0251962
0.0255432
0.0260059
0.026589
0.0272836
0.028069
0.0288751
0.0295931
0.0300534
0.0252986
0.0250269
0.0248308
0.0247246
0.0246967
0.0247506
0.0248969
0.0251475
0.0255168
0.0260204
0.0266727
0.0274776
0.028416
0.0294044
0.0303412
0.0310421
0.0252142
0.0249315
0.0247237
0.0246079
0.0245719
0.0246183
0.0247597
0.025012
0.0253959
0.0259359
0.0266608
0.0275896
0.0287204
0.0299689
0.0311205
0.0320457
0.025084
0.0247914
0.0245704
0.0244395
0.0243867
0.0244144
0.0245362
0.0247706
0.0251433
0.0256857
0.0264396
0.0274383
0.0287004
0.0301349
0.0314795
0.032539
0.0249137
0.0246121
0.0243769
0.024226
0.0241481
0.0241444
0.0242283
0.0244181
0.0247399
0.0252248
0.0259186
0.0268559
0.0280769
0.0294968
0.0307819
0.0314036
0.0247137
0.0244043
0.0241549
0.0239807
0.0238705
0.0238243
0.0238529
0.0239709
0.0241998
0.0245603
0.0250869
0.0257806
0.0266708
0.0275671
0.028299
0.0257006
0.0253511
0.0251326
0.0249561
0.0248463
0.0248102
0.024855
0.024989
0.0252212
0.0255606
0.026014
0.0265824
0.0272554
0.0279969
0.0287256
0.0292853
0.029461
0.0253856
0.0251421
0.0249616
0.0248584
0.0248303
0.0248833
0.0250253
0.0252645
0.0256085
0.0260624
0.0266244
0.0272884
0.0280162
0.0287389
0.0293337
0.0296019
0.0253882
0.0251283
0.0249412
0.0248409
0.0248185
0.0248784
0.0250295
0.0252809
0.025642
0.0261211
0.026723
0.0274346
0.0282376
0.0290592
0.029788
0.0302503
0.0253495
0.0250768
0.0248804
0.0247766
0.0247538
0.024815
0.0249709
0.0252339
0.025618
0.0261385
0.0268094
0.0276327
0.0285873
0.0295878
0.0305328
0.0312332
0.0252645
0.0249808
0.0247728
0.0246594
0.0246284
0.0246822
0.0248336
0.0250987
0.0254979
0.0260557
0.0267997
0.0277476
0.0288945
0.0301533
0.0313089
0.0322294
0.0251328
0.0248392
0.024618
0.0244893
0.0244414
0.0244763
0.0246079
0.0248551
0.0252432
0.0258036
0.026577
0.0275948
0.0288721
0.0303138
0.0316577
0.0327091
0.0249601
0.0246574
0.0244219
0.024273
0.0241995
0.0242026
0.0242958
0.0244976
0.0248341
0.0253363
0.0260486
0.0270038
0.0282374
0.02966
0.0309335
0.0315306
0.0247572
0.0244465
0.0241965
0.0240238
0.0239175
0.0238772
0.023914
0.0240428
0.0242849
0.0246609
0.0252039
0.025913
0.0268119
0.0277051
0.0283915
0.0257357
0.0230183
0.0229618
0.0228574
0.0227172
0.0225504
0.0223603
0.0221463
0.0219043
0.0216264
0.0212966
0.0208938
0.0203904
0.0197511
0.0189407
0.0179276
0.0167121
0.0230265
0.0229713
0.0228703
0.022733
0.0225688
0.0223813
0.0221703
0.0219319
0.0216568
0.0213314
0.0209338
0.0204383
0.019807
0.0190051
0.0179963
0.0167833
0.0230221
0.0229637
0.0228637
0.022728
0.0225654
0.0223796
0.0221709
0.0219361
0.0216673
0.0213514
0.020969
0.0204896
0.0198816
0.0191089
0.0181297
0.01695
0.0230015
0.0229359
0.0228325
0.0226947
0.0225301
0.0223422
0.0221319
0.0218966
0.0216296
0.0213189
0.0209457
0.020484
0.0199005
0.0191617
0.01822
0.0170859
0.0229648
0.0228911
0.0227814
0.0226381
0.0224678
0.0222738
0.0220571
0.0218161
0.0215449
0.0212329
0.020863
0.0204112
0.0198451
0.0191344
0.0182276
0.0171399
0.0229138
0.0228329
0.0227161
0.0225656
0.0223873
0.0221844
0.021958
0.021707
0.0214266
0.0211073
0.0207338
0.0202843
0.019728
0.0190382
0.0181626
0.0171189
0.0228515
0.022765
0.0226417
0.0224838
0.022297
0.0220841
0.0218465
0.0215833
0.0212906
0.0209601
0.0205781
0.0201249
0.0195724
0.0188973
0.0180498
0.0170481
0.0227815
0.0226914
0.022563
0.0223986
0.022204
0.0219816
0.0217329
0.0214573
0.0211515
0.0208082
0.0204151
0.0199549
0.0194022
0.0187374
0.0179163
0.0169546
0.0230374
0.0229647
0.0228502
0.0227033
0.0225314
0.0223367
0.0221182
0.0218716
0.0215882
0.0212532
0.0208449
0.0203365
0.0196904
0.018872
0.0178461
0.016618
0.0230435
0.0229692
0.022858
0.0227138
0.0225439
0.0223504
0.0221327
0.0218866
0.0216035
0.0212692
0.0208627
0.0203546
0.0197099
0.018897
0.0178735
0.0166509
0.0230379
0.0229579
0.0228465
0.022703
0.0225335
0.0223399
0.0221221
0.0218766
0.0215957
0.021266
0.0208679
0.0203741
0.0197507
0.0189615
0.0179632
0.0167747
0.0230178
0.022929
0.0228136
0.0226674
0.0224949
0.0222981
0.0220769
0.0218289
0.0215471
0.0212198
0.0208285
0.0203481
0.0197441
0.0189867
0.0180222
0.016877
0.0229823
0.0228849
0.0227635
0.022612
0.0224339
0.0222307
0.0220028
0.021748
0.0214608
0.0211307
0.0207408
0.0202682
0.0196792
0.0189484
0.0180153
0.016915
0.0229323
0.0228278
0.0227001
0.0225423
0.022357
0.0221456
0.0219083
0.0216437
0.0213471
0.0210094
0.0206155
0.0201445
0.0195646
0.0188544
0.0179516
0.0168955
0.0228703
0.0227607
0.0226276
0.0224635
0.0222708
0.0220505
0.0218029
0.021527
0.0212188
0.0208705
0.0204686
0.0199946
0.0194191
0.0187246
0.0178514
0.0168385
0.0227999
0.0226874
0.0225503
0.0223808
0.0221812
0.0219525
0.021695
0.0214079
0.0210878
0.0207279
0.0203163
0.0198368
0.0192629
0.0185807
0.0177371
0.016766
0.0231014
0.0230087
0.0228799
0.022723
0.0225444
0.022345
0.0221238
0.0218762
0.0215932
0.0212596
0.0208526
0.0203407
0.0196824
0.0188333
0.017745
0.0164208
0.0231079
0.0230116
0.0228867
0.0227335
0.0225573
0.0223594
0.0221387
0.021891
0.0216076
0.0212736
0.0208667
0.0203557
0.0196993
0.0188555
0.01777
0.0164564
0.0231003
0.0229966
0.0228714
0.0227188
0.0225424
0.0223435
0.0221214
0.0218726
0.0215893
0.0212579
0.0208576
0.0203588
0.0197207
0.0189039
0.0178425
0.0165643
0.023078
0.0229645
0.0228348
0.022679
0.022499
0.0222957
0.0220687
0.0218152
0.0215288
0.0211973
0.0208015
0.0203139
0.0196938
0.0189062
0.0178733
0.0166403
0.0230407
0.0229179
0.0227821
0.0226211
0.0224351
0.0222248
0.0219898
0.021728
0.021434
0.0210974
0.0207006
0.0202185
0.019611
0.0188484
0.017844
0.0166589
0.0229888
0.0228586
0.0227167
0.0225497
0.0223568
0.0221381
0.0218931
0.0216204
0.0213156
0.0209696
0.0205666
0.0200842
0.0194841
0.0187423
0.0177682
0.0166333
0.0229244
0.0227892
0.0226422
0.0224694
0.0222696
0.0220422
0.0217869
0.0215023
0.0211851
0.0208272
0.0204149
0.0199282
0.0193319
0.0186075
0.0176669
0.0165843
0.0228512
0.0227132
0.0225627
0.0223851
0.0221789
0.0219435
0.0216784
0.0213826
0.021053
0.0206829
0.0202601
0.0197674
0.0191732
0.0184637
0.0175603
0.0165306
0.0232085
0.0230956
0.0229523
0.0227863
0.0226028
0.0224026
0.0221841
0.0219429
0.0216694
0.0213476
0.0209519
0.0204445
0.0197728
0.0188736
0.0176704
0.0161486
0.0232166
0.0230977
0.0229589
0.0227976
0.0226177
0.0224198
0.0222026
0.021962
0.0216887
0.0213672
0.0209724
0.0204673
0.0197998
0.018909
0.0177101
0.0162017
0.0232068
0.0230792
0.02294
0.0227796
0.0225995
0.0224005
0.0221813
0.0219387
0.0216647
0.0213448
0.0209557
0.0204621
0.0198121
0.0189481
0.0177689
0.0162903
0.0231812
0.0230428
0.0228985
0.0227347
0.0225506
0.0223462
0.022121
0.0218721
0.021593
0.0212709
0.0208841
0.0203993
0.0197645
0.0189259
0.0177674
0.0163288
0.02314
0.0229918
0.0228408
0.0226714
0.022481
0.0222688
0.0220343
0.0217754
0.0214866
0.0211569
0.0207663
0.0202839
0.0196586
0.0188421
0.0177074
0.0163211
0.0230837
0.0229277
0.0227703
0.0225948
0.022397
0.0221759
0.0219304
0.021659
0.0213573
0.0210156
0.0206161
0.0201308
0.0195109
0.0187153
0.017612
0.0162901
0.0230145
0.0228531
0.0226904
0.022509
0.0223041
0.0220738
0.0218171
0.0215324
0.0212163
0.0208603
0.0204488
0.0199569
0.0193398
0.0185647
0.0175023
0.0162553
0.0229361
0.0227718
0.0226054
0.022419
0.0222075
0.0219687
0.0217014
0.0214041
0.0210738
0.0207032
0.0202787
0.0197785
0.019163
0.0184072
0.0173946
0.0162286
0.0233532
0.0232212
0.0230646
0.0228918
0.0227073
0.0225114
0.0223028
0.0220769
0.0218241
0.0215271
0.021157
0.0206678
0.0199901
0.0190293
0.0176627
0.0158227
0.0233633
0.0232223
0.0230701
0.0229028
0.0227225
0.0225299
0.0223233
0.0220987
0.0218467
0.0215505
0.0211816
0.0206951
0.0200225
0.0190714
0.0177085
0.0158761
0.0233519
0.0232007
0.0230475
0.0228812
0.0227011
0.0225072
0.0222985
0.0220713
0.0218177
0.0215222
0.0211576
0.0206803
0.0200213
0.0190883
0.0177309
0.0158933
0.0233228
0.0231601
0.023001
0.022831
0.0226465
0.0224469
0.0222311
0.0219965
0.0217364
0.0214366
0.0210721
0.0205997
0.0199503
0.0190312
0.0176805
0.0158588
0.0232769
0.0231038
0.0229374
0.0227614
0.0225701
0.022362
0.0221361
0.0218901
0.0216186
0.0213091
0.0209384
0.020465
0.0198211
0.0189163
0.0175835
0.0158115
0.0232146
0.0230334
0.02286
0.0226774
0.0224782
0.0222604
0.0220225
0.0217626
0.0214762
0.0211524
0.0207703
0.0202913
0.0196514
0.0187665
0.0174697
0.0157838
0.0231385
0.0229516
0.0227724
0.0225833
0.0223762
0.0221483
0.0218978
0.0216228
0.0213195
0.0209783
0.0205812
0.0200925
0.0194556
0.0185959
0.0173543
0.0157887
0.0230526
0.0228624
0.0226791
0.0224843
0.0222698
0.0220321
0.0217693
0.0214792
0.0211586
0.0207988
0.0203842
0.0198833
0.0192472
0.0184146
0.017243
0.0158212
0.0235312
0.0233816
0.0232138
0.0230374
0.0228563
0.0226712
0.0224806
0.0222806
0.022062
0.021807
0.0214838
0.0210376
0.0203777
0.0193621
0.0177873
0.015478
0.0235432
0.0233821
0.023218
0.0230474
0.0228712
0.0226899
0.0225021
0.0223039
0.0220864
0.0218322
0.0215097
0.0210647
0.0204059
0.019389
0.0177919
0.0154257
0.0235312
0.0233583
0.0231924
0.0230229
0.022847
0.0226646
0.0224746
0.0222739
0.0220545
0.0218002
0.0214808
0.0210416
0.0203878
0.0193623
0.017722
0.0152319
0.0234992
0.023314
0.0231414
0.0229679
0.0227876
0.0225992
0.022402
0.0221933
0.0219668
0.0217078
0.0213875
0.0209506
0.0202992
0.0192625
0.017592
0.015016
0.0234481
0.0232522
0.0230717
0.0228916
0.0227041
0.0225069
0.022299
0.0220784
0.02184
0.0215707
0.0212442
0.0208054
0.0201579
0.0191208
0.0174551
0.0148682
0.0233788
0.0231745
0.0229862
0.0227987
0.0226026
0.0223949
0.0221741
0.0219385
0.0216838
0.0213989
0.0210605
0.0206155
0.0199749
0.0189543
0.0173364
0.0148275
0.023294
0.0230837
0.0228889
0.0226939
0.0224887
0.0222695
0.0220344
0.0217814
0.021507
0.0212012
0.0208442
0.0203863
0.0197516
0.0187625
0.0172338
0.0149054
0.0231986
0.0229846
0.0227848
0.022583
0.0223688
0.0221377
0.0218875
0.0216159
0.0213194
0.0209886
0.0206067
0.0201277
0.0194916
0.0185408
0.0171343
0.0150982
0.0237365
0.0235714
0.0233952
0.0232186
0.023046
0.022878
0.0227142
0.0225517
0.0223825
0.0221903
0.0219433
0.021582
0.0209973
0.0199908
0.0182088
0.0152517
0.0237507
0.0235718
0.0233982
0.0232277
0.0230604
0.0228968
0.0227363
0.0225761
0.0224084
0.0222168
0.0219698
0.0216074
0.0210164
0.0199789
0.0180784
0.014807
0.0237392
0.023547
0.0233706
0.0232012
0.0230345
0.0228702
0.0227081
0.0225458
0.0223767
0.0221859
0.021943
0.021587
0.0209956
0.0199175
0.0178584
0.0141382
0.0237049
0.0234999
0.0233161
0.0231424
0.0229712
0.0228013
0.0226323
0.0224627
0.0222877
0.0220942
0.0218541
0.0215056
0.0209204
0.0198134
0.0176532
0.0135591
0.0236487
0.0234327
0.0232403
0.0230595
0.0228807
0.0227018
0.0225223
0.0223412
0.0221553
0.021954
0.0217128
0.0213709
0.0208023
0.0196949
0.0175208
0.0131928
0.0235716
0.0233469
0.0231461
0.0229568
0.0227686
0.0225782
0.022385
0.0221881
0.0219856
0.021769
0.0215185
0.0211767
0.0206301
0.019549
0.0174518
0.0130602
0.0234768
0.0232458
0.0230375
0.0228395
0.0226406
0.0224368
0.0222269
0.0220099
0.0217843
0.0215426
0.0212696
0.0209108
0.0203764
0.0193343
0.0174017
0.0131777
0.0233698
0.0231348
0.0229206
0.0227141
0.0225039
0.0222855
0.0220567
0.021816
0.0215615
0.0212851
0.020974
0.0205743
0.0200229
0.0190051
0.0173172
0.0136312
0.0239618
0.0237836
0.0236015
0.0234285
0.0232689
0.0231243
0.0229953
0.0228809
0.0227758
0.0226677
0.0225303
0.0223108
0.021906
0.0211032
0.0194445
0.0161221
0.0239787
0.0237844
0.0236038
0.0234369
0.023283
0.0231433
0.0230183
0.0229067
0.0228036
0.0226964
0.0225588
0.0223378
0.0219257
0.021088
0.0192224
0.0151831
0.0239682
0.0237596
0.0235754
0.0234096
0.0232567
0.023117
0.0229913
0.0228789
0.0227761
0.0226723
0.0225437
0.0223382
0.0219422
0.0210842
0.0190026
0.0141205
0.0239323
0.0237104
0.0235183
0.023348
0.0231908
0.023046
0.0229145
0.0227966
0.0226908
0.0225895
0.0224733
0.0222937
0.0219356
0.0210994
0.0189192
0.0133483
0.0238712
0.0236382
0.0234367
0.0232588
0.0230938
0.02294
0.0227984
0.0226703
0.0225564
0.0224528
0.0223464
0.0221951
0.0218927
0.0211244
0.0189858
0.0129315
0.023786
0.023544
0.0233333
0.0231459
0.0229704
0.0228041
0.0226479
0.0225035
0.0223734
0.0222566
0.022147
0.0220103
0.0217613
0.0210811
0.0191114
0.0128004
0.0236801
0.0234315
0.0232125
0.0230147
0.0228266
0.0226446
0.022469
0.0223012
0.022144
0.0219972
0.0218594
0.0217003
0.0214664
0.0208415
0.0191485
0.0128661
0.0235602
0.0233071
0.023081
0.0228729
0.0226708
0.0224705
0.0222713
0.0220734
0.0218785
0.0216838
0.021488
0.0212524
0.0209519
0.0202448
0.0188815
0.0130586
0.0236207
0.0233497
0.0231081
0.0228892
0.0226809
0.0224787
0.0222824
0.0220922
0.0219109
0.021736
0.0215711
0.0213759
0.0211463
0.020522
0.0193603
0.013991
0.023482
0.0232107
0.022965
0.0227355
0.0225103
0.0222839
0.0220542
0.021819
0.0215768
0.0213193
0.0210372
0.0206749
0.0201791
0.0192309
0.0175933
0.0141513
0.0233549
0.0230867
0.0228397
0.0226023
0.0223627
0.0221149
0.0218554
0.0215802
0.021285
0.0209593
0.0205861
0.0201219
0.0194958
0.018577
0.0171254
0.0152166
0.0232486
0.0229862
0.0227409
0.0224989
0.0222486
0.0219843
0.0217016
0.0213959
0.0210616
0.0206895
0.0202612
0.0197523
0.0190964
0.0182739
0.0170608
0.0156917
0.0231679
0.0229147
0.0226741
0.0224304
0.0221738
0.0218988
0.0216012
0.0212764
0.0209188
0.0205209
0.0200666
0.0195436
0.0188974
0.0181408
0.0171091
0.0159658
0.0231141
0.0228736
0.0226395
0.0223966
0.0221374
0.0218578
0.0215536
0.0212207
0.0208539
0.0204465
0.0199854
0.0194619
0.0188356
0.0181195
0.017212
0.0162006
0.0230831
0.0228596
0.0226325
0.0223919
0.0221336
0.0218546
0.0215512
0.0212197
0.0208552
0.0204513
0.0199965
0.0194814
0.0188759
0.0181838
0.0173419
0.0163902
0.0230621
0.0228622
0.022642
0.022404
0.0221483
0.0218725
0.0215737
0.0212487
0.0208929
0.0204998
0.0200587
0.0195577
0.0189711
0.0182924
0.0174715
0.0165286
0.0238094
0.0235255
0.0232762
0.0230585
0.0228606
0.0226787
0.0225143
0.0223698
0.0222516
0.0221616
0.0221115
0.022069
0.022035
0.0216238
0.0204622
0.0144478
0.023655
0.0233701
0.0231152
0.0228844
0.0226656
0.0224537
0.0222477
0.0220466
0.0218507
0.0216528
0.0214463
0.0211707
0.0207629
0.0198331
0.0180327
0.0139389
0.0235133
0.0232309
0.0229735
0.0227324
0.0224955
0.0222568
0.0220133
0.0217613
0.0214967
0.0212085
0.0208786
0.0204558
0.0198562
0.0189086
0.0173253
0.0151368
0.0233942
0.0231173
0.0228609
0.0226133
0.0223628
0.0221031
0.02183
0.0215386
0.0212227
0.020872
0.0204656
0.0199752
0.0193217
0.0184779
0.0171764
0.0156869
0.0233036
0.0230356
0.0227836
0.0225333
0.0222743
0.0220009
0.0217084
0.0213918
0.0210444
0.0206581
0.0202143
0.0196994
0.0190485
0.0182781
0.0171867
0.0159728
0.0232427
0.0229877
0.0227423
0.0224924
0.0222299
0.0219501
0.0216485
0.0213204
0.0209596
0.0205591
0.0201035
0.0195842
0.0189526
0.018227
0.0172814
0.0162244
0.0232072
0.02297
0.0227324
0.022485
0.0222233
0.0219436
0.0216421
0.0213145
0.0209552
0.0205571
0.0201074
0.0195964
0.0189882
0.0182898
0.0174231
0.0164383
0.0231836
0.0229719
0.0227423
0.0224981
0.0222393
0.0219634
0.0216671
0.0213467
0.020997
0.0206111
0.020177
0.0196821
0.0190963
0.0184139
0.0175734
0.0166006
0.0239916
0.0236973
0.0234425
0.023228
0.023042
0.0228813
0.0227493
0.0226505
0.0225941
0.0225852
0.0226392
0.022722
0.022826
0.0225048
0.0212778
0.0146635
0.0238216
0.0235257
0.023264
0.0230336
0.0228226
0.0226263
0.0224447
0.0222781
0.0221281
0.0219881
0.021852
0.0216503
0.0213072
0.0203654
0.0184185
0.0138571
0.0236656
0.0233712
0.0231058
0.0228628
0.0226299
0.0224014
0.0221747
0.0219466
0.0217131
0.0214624
0.0211742
0.0207891
0.0202096
0.0192273
0.0175238
0.0151024
0.0235334
0.0232445
0.0229792
0.0227279
0.0224783
0.0222244
0.0219619
0.0216857
0.0213891
0.0210608
0.0206769
0.0202046
0.0195528
0.0186853
0.0173016
0.0156984
0.0234328
0.0231527
0.0228912
0.022636
0.022376
0.0221052
0.0218188
0.0215113
0.0211754
0.020802
0.0203698
0.019864
0.0192095
0.0184253
0.0172794
0.0159986
0.0233649
0.0230977
0.022843
0.0225877
0.022323
0.0220441
0.0217461
0.0214239
0.0210704
0.020678
0.0202292
0.0197154
0.0190802
0.018346
0.017366
0.016266
0.0233248
0.0230762
0.02283
0.0225773
0.0223133
0.0220341
0.0217355
0.0214128
0.0210597
0.0206687
0.0202253
0.0197195
0.0191101
0.0184066
0.0175175
0.0165014
0.0232988
0.0230773
0.0228401
0.0225912
0.0223307
0.0220557
0.0217628
0.021448
0.0211055
0.0207279
0.0203019
0.0198141
0.0192302
0.0185452
0.0176872
0.0166861
0.024159
0.0238566
0.0235981
0.0233877
0.0232138
0.0230737
0.0229722
0.0229155
0.0229149
0.0229763
0.0231161
0.0232926
0.0234856
0.0231923
0.0218601
0.0147402
0.0239744
0.0236697
0.023403
0.0231744
0.0229717
0.0227906
0.0226322
0.0224977
0.0223896
0.0223008
0.0222238
0.0220791
0.0217777
0.0208082
0.0187254
0.0138084
0.0238048
0.0235009
0.0232293
0.0229858
0.0227577
0.0225395
0.022329
0.0221235
0.0219188
0.0217021
0.0214503
0.0210954
0.020528
0.0195097
0.0176994
0.015092
0.0236603
0.0233618
0.0230895
0.0228358
0.0225882
0.0223404
0.0220884
0.021827
0.0215489
0.0212416
0.0208781
0.0204213
0.0197694
0.0188781
0.0174217
0.0157205
0.0235503
0.0232602
0.0229914
0.0227326
0.0224725
0.022205
0.021925
0.0216268
0.0213023
0.0209416
0.0205207
0.0200236
0.019366
0.0185683
0.0173751
0.0160349
0.0234756
0.0231985
0.0229364
0.0226771
0.0224113
0.022134
0.0218402
0.0215241
0.0211782
0.0207942
0.0203527
0.0198447
0.0192071
0.0184652
0.0174557
0.016317
0.0234314
0.0231734
0.0229203
0.0226637
0.0223984
0.0221204
0.0218253
0.0215079
0.0211614
0.0207778
0.0203411
0.019841
0.0192314
0.0185236
0.0176154
0.016571
0.0234032
0.0231738
0.0229306
0.0226783
0.0224169
0.0221436
0.0218547
0.0215458
0.0212109
0.0208417
0.020424
0.0199436
0.0193622
0.0186752
0.017802
0.0167755
0.0243036
0.023995
0.0237342
0.0235282
0.0233655
0.0232437
0.0231688
0.0231482
0.023194
0.023312
0.0235174
0.0237598
0.024007
0.0237098
0.0222715
0.0147497
0.0241062
0.0237949
0.0235247
0.0232983
0.0231035
0.0229362
0.0227982
0.0226912
0.0226184
0.0225713
0.0225405
0.0224365
0.0221593
0.021155
0.0189554
0.0137676
0.0239245
0.0236134
0.0233374
0.0230941
0.0228709
0.022662
0.0224661
0.0222802
0.0221002
0.0219117
0.021689
0.0213563
0.0207944
0.0197415
0.0178421
0.0150921
0.0237695
0.0234634
0.0231859
0.0229308
0.0226855
0.0224436
0.0222011
0.0219529
0.0216908
0.0214014
0.021055
0.0206103
0.0199566
0.0190434
0.0175267
0.0157464
0.0236511
0.0233532
0.0230787
0.0228176
0.022558
0.0222938
0.0220199
0.0217302
0.0214159
0.0210665
0.0206555
0.0201657
0.0195052
0.0186954
0.0174633
0.0160737
0.0235704
0.0232856
0.0230178
0.0227556
0.0224894
0.022214
0.0219242
0.021614
0.0212752
0.020899
0.0204643
0.0199616
0.0193222
0.0185738
0.0175402
0.0163689
0.0235225
0.0232572
0.0229988
0.0227394
0.0224735
0.0221971
0.0219055
0.0215932
0.021253
0.0208763
0.0204459
0.0199513
0.0193419
0.0186307
0.0177068
0.0166385
0.0234924
0.0232569
0.0230093
0.0227547
0.0224931
0.0222217
0.0219367
0.0216335
0.0213055
0.0209442
0.0205342
0.0200606
0.0194818
0.0187932
0.0179074
0.0168593
0.0244186
0.0241057
0.0238436
0.0236416
0.0234882
0.0233813
0.0233275
0.023335
0.0234164
0.0235766
0.0238289
0.0241151
0.0243933
0.0240809
0.0225557
0.0147407
0.024211
0.0238949
0.0236225
0.0233983
0.0232102
0.0230541
0.0229325
0.0228473
0.0228016
0.022786
0.0227886
0.0227118
0.0224471
0.0214098
0.0191198
0.0137379
0.0240195
0.0237033
0.0234242
0.0231816
0.0229626
0.0227616
0.0225773
0.022407
0.0222463
0.0220793
0.0218781
0.0215606
0.021
0.0199178
0.0179503
0.0150983
0.0238561
0.0235444
0.0232632
0.0230075
0.0227644
0.0225275
0.0222929
0.0220552
0.021806
0.0215306
0.0211971
0.0207609
0.0201047
0.0191735
0.0176111
0.0157724
0.0237309
0.0234272
0.0231487
0.0228861
0.0226273
0.0223661
0.0220972
0.0218146
0.0215087
0.0211684
0.0207653
0.0202811
0.0196181
0.0187986
0.017537
0.0161097
0.0236453
0.0233548
0.023083
0.0228188
0.0225526
0.0222791
0.0219928
0.0216876
0.0213547
0.020985
0.0205559
0.0200577
0.0194171
0.0186636
0.0176117
0.0164152
0.0235945
0.0233238
0.0230616
0.0228004
0.0225344
0.0222595
0.0219709
0.021663
0.0213281
0.0209572
0.0205322
0.0200421
0.0194333
0.0187195
0.0177837
0.0166966
0.023563
0.0233229
0.0230722
0.022816
0.0225546
0.0222851
0.0220036
0.0217052
0.021383
0.0210283
0.0206247
0.0201567
0.0195801
0.0188903
0.0179949
0.0169299
0.0244984
0.024183
0.0239203
0.0237214
0.0235749
0.0234787
0.0234398
0.0234668
0.0235726
0.0237611
0.024044
0.0243578
0.0246537
0.0243282
0.0227448
0.0147459
0.0242837
0.0239647
0.023691
0.0234688
0.0232858
0.0231379
0.0230278
0.0229578
0.0229309
0.0229365
0.0229613
0.022902
0.0226439
0.0215821
0.0192304
0.0137256
0.0240853
0.023766
0.0234851
0.0232433
0.0230277
0.0228324
0.0226566
0.0224974
0.0223501
0.022198
0.0220113
0.0217034
0.0211425
0.0200388
0.0180253
0.0151095
0.0239161
0.0236009
0.0233175
0.0230618
0.0228206
0.0225875
0.0223586
0.0221286
0.0218885
0.021623
0.0212984
0.0208678
0.0202097
0.0192656
0.0176735
0.0157982
0.0237861
0.0234789
0.023198
0.0229347
0.0226768
0.022418
0.022153
0.0218755
0.0215758
0.021242
0.0208447
0.0203644
0.0197001
0.0188739
0.0175936
0.0161415
0.0236972
0.0234031
0.0231288
0.0228637
0.0225979
0.0223259
0.0220424
0.021741
0.0214126
0.0210477
0.0206228
0.0201281
0.0194871
0.0187301
0.0176665
0.0164529
0.0236443
0.0233703
0.0231058
0.0228436
0.0225778
0.0223042
0.0220181
0.0217135
0.0213825
0.0210161
0.0205951
0.0201084
0.0195003
0.0187848
0.0178413
0.0167413
0.0236118
0.0233688
0.0231162
0.0228593
0.0225982
0.0223302
0.0220512
0.0217564
0.0214385
0.0210885
0.0206895
0.0202256
0.0196507
0.0189601
0.0180584
0.0169816
0.0245384