/*--------------------------------*- C++ -*----------------------------------*\
| =========                 |                                                 |
| \\      /  F ield         | foam-extend: Open Source CFD                    |
|  \\    /   O peration     | Version:     3.1                                |
|   \\  /    A nd           | Web:         http://www.extend-project.de       |
|    \\/     M anipulation  |                                                 |
\*---------------------------------------------------------------------------*/
FoamFile
{
    version     2.0;
    format      ascii;
    class       surfaceScalarField;
    location    "4";
    object      phi;
}
// * * * * * * * * * * * * * * * * * * * * * * * * * * * * * * * * * * * * * //

dimensions      [0 3 -1 0 0 0 0];

internalField   nonuniform List<scalar> 
41600
(
1.18633e-05
-6.88948e-08
-1.21556e-06
1.2319e-06
1.17732e-05
7.62969e-08
-2.19113e-06
2.20494e-06
1.1559e-05
2.14309e-07
-2.76432e-06
2.76429e-06
1.12542e-05
3.21821e-07
-3.25761e-06
3.24051e-06
1.08738e-05
4.15162e-07
-3.79972e-06
3.76498e-06
1.04266e-05
4.99965e-07
-4.46293e-06
4.41012e-06
9.92691e-06
5.72111e-07
-5.30083e-06
5.22846e-06
9.40036e-06
6.20927e-07
-6.36329e-06
6.26891e-06
8.89028e-06
6.28423e-07
-7.70733e-06
7.58899e-06
8.46452e-06
5.66026e-07
-9.40782e-06
9.26755e-06
8.22594e-06
3.86188e-07
-1.15693e-05
1.14217e-05
8.31479e-06
1.53127e-08
-1.43318e-05
1.42276e-05
8.86099e-06
-6.47206e-07
-1.78263e-05
1.79273e-05
9.64459e-06
-1.56868e-06
-2.1913e-05
2.26981e-05
8.71016e-06
-1.9314e-06
-2.51201e-05
2.79859e-05
-2.97816e-07
-2.00773e-05
2.90675e-05
3.30442e-05
-2.3088e-08
-1.43636e-06
1.49276e-06
3.27881e-05
2.46908e-07
-3.35695e-06
3.44242e-06
3.2371e-05
5.5208e-07
-4.76016e-06
4.83952e-06
3.17908e-05
8.39584e-07
-5.97649e-06
6.03891e-06
3.10472e-05
1.11258e-06
-7.22465e-06
7.27077e-06
3.01411e-05
1.3719e-06
-8.66425e-06
8.69849e-06
2.90816e-05
1.60557e-06
-1.04226e-05
1.04486e-05
2.78936e-05
1.78952e-06
-1.26121e-05
1.26315e-05
2.66217e-05
1.88518e-06
-1.53485e-05
1.53636e-05
2.53319e-05
1.83374e-06
-1.87708e-05
1.87929e-05
2.41096e-05
1.53951e-06
-2.3063e-05
2.31319e-05
2.30368e-05
8.50253e-07
-2.84615e-05
2.86994e-05
2.20698e-05
-4.57256e-07
-3.51537e-05
3.59308e-05
2.05663e-05
-2.49687e-06
-4.26423e-05
4.5074e-05
1.57172e-05
-4.08338e-06
-4.74594e-05
5.44605e-05
-1.97905e-06
-3.49207e-05
5.22648e-05
5.13432e-05
-5.17435e-10
-1.15178e-06
1.22e-06
5.10623e-05
3.96455e-07
-3.1112e-06
3.24263e-06
5.06183e-05
8.45928e-07
-4.7792e-06
4.92935e-06
5.0005e-05
1.30359e-06
-6.31628e-06
6.46553e-06
4.92091e-05
1.76178e-06
-7.88765e-06
8.03434e-06
4.82122e-05
2.21623e-06
-9.65552e-06
9.80814e-06
4.69969e-05
2.65095e-06
-1.17747e-05
1.19446e-05
4.55535e-05
3.03607e-06
-1.43929e-05
1.45897e-05
4.38828e-05
3.32352e-06
-1.76599e-05
1.78924e-05
4.19915e-05
3.44158e-06
-2.17468e-05
2.20303e-05
3.98787e-05
3.27328e-06
-2.68718e-05
2.72507e-05
3.74879e-05
2.6312e-06
-3.33257e-05
3.39356e-05
3.45571e-05
1.20177e-06
-4.14074e-05
4.26791e-05
3.00805e-05
-1.38687e-06
-5.07187e-05
5.40853e-05
2.09379e-05
-4.28035e-06
-5.70856e-05
6.64252e-05
-3.41291e-06
-4.20536e-05
6.43237e-05
6.66168e-05
-4.48799e-09
-9.03807e-07
9.64718e-07
6.63717e-05
5.05298e-07
-2.59276e-06
2.72907e-06
6.5978e-05
1.06609e-06
-4.15862e-06
4.3321e-06
6.54401e-05
1.65349e-06
-5.68372e-06
5.87178e-06
6.47441e-05
2.26081e-06
-7.2728e-06
7.46976e-06
6.38607e-05
2.88513e-06
-9.05473e-06
9.26925e-06
6.27479e-05
3.51495e-06
-1.11779e-05
1.14267e-05
6.13557e-05
4.12712e-06
-1.38027e-05
1.41039e-05
5.96287e-05
4.68076e-06
-1.7103e-05
1.74727e-05
5.74989e-05
5.11537e-06
-2.12784e-05
2.17344e-05
5.48662e-05
5.32533e-06
-2.65795e-05
2.71601e-05
5.15289e-05
5.14594e-06
-3.335e-05
3.41726e-05
4.70222e-05
4.26291e-06
-4.20529e-05
4.34984e-05
3.98899e-05
2.14477e-06
-5.27051e-05
5.63057e-05
2.64047e-05
-1.13923e-06
-6.12074e-05
7.15515e-05
-2.65302e-06
-4.63631e-05
7.18439e-05
7.88296e-05
-1.95606e-08
-7.46948e-07
7.97923e-07
7.86272e-05
5.85873e-07
-2.17157e-06
2.29347e-06
7.82987e-05
1.2311e-06
-3.53209e-06
3.69554e-06
7.78583e-05
1.90981e-06
-4.89697e-06
5.08106e-06
7.72991e-05
2.62368e-06
-6.34348e-06
6.53975e-06
7.65924e-05
3.37727e-06
-7.97189e-06
8.18647e-06
7.56853e-05
4.17093e-06
-9.91268e-06
1.01638e-05
7.45009e-05
4.99964e-06
-1.23242e-05
1.26361e-05
7.29389e-05
5.84585e-06
-1.53938e-05
1.57907e-05
7.0864e-05
6.68546e-06
-1.93475e-05
1.98523e-05
6.80883e-05
7.45594e-06
-2.44739e-05
2.51191e-05
6.42705e-05
8.07875e-06
-3.11725e-05
3.20574e-05
5.87782e-05
8.32403e-06
-4.00325e-05
4.14638e-05
4.9684e-05
7.80659e-06
-5.16585e-05
5.50908e-05
3.22496e-05
5.71368e-06
-6.2477e-05
7.30585e-05
1.44764e-06
-4.89644e-05
7.68766e-05
8.79805e-05
-3.43376e-08
-6.45142e-07
6.88812e-07
8.78137e-05
6.47127e-07
-1.87554e-06
1.98103e-06
8.75473e-05
1.35432e-06
-3.05052e-06
3.19371e-06
8.72008e-05
2.09424e-06
-4.23689e-06
4.39901e-06
8.67747e-05
2.87885e-06
-5.50168e-06
5.67252e-06
8.6247e-05
3.72289e-06
-6.92719e-06
7.10932e-06
8.55663e-05
4.64175e-06
-8.62552e-06
8.83535e-06
8.46476e-05
5.65416e-06
-1.07435e-05
1.10078e-05
8.33693e-05
6.77499e-06
-1.34685e-05
1.38176e-05
8.15559e-05
8.03519e-06
-1.70395e-05
1.75032e-05
7.89639e-05
9.43817e-06
-2.17708e-05
2.23806e-05
7.51408e-05
1.10579e-05
-2.81111e-05
2.8955e-05
6.93409e-05
1.2795e-05
-3.66978e-05
3.80267e-05
5.92731e-05
1.47922e-05
-4.86805e-05
5.17627e-05
3.86873e-05
1.60426e-05
-6.16101e-05
7.18671e-05
1.00373e-05
-4.99419e-05
7.97236e-05
9.40733e-05
-4.16131e-08
-5.73026e-07
6.12283e-07
9.39358e-05
6.9178e-07
-1.66383e-06
1.7566e-06
9.37286e-05
1.43697e-06
-2.69522e-06
2.81983e-06
9.34736e-05
2.21041e-06
-3.72998e-06
3.8688e-06
9.31773e-05
3.03358e-06
-4.82882e-06
4.97041e-06
9.28254e-05
3.93115e-06
-6.06188e-06
6.20547e-06
9.23756e-05
4.93292e-06
-7.52496e-06
7.6836e-06
9.17499e-05
6.0804e-06
-9.34809e-06
9.54755e-06
9.08306e-05
7.42069e-06
-1.17051e-05
1.19787e-05
8.94421e-05
9.04166e-06
-1.48267e-05
1.52088e-05
8.7338e-05
1.10178e-05
-1.90205e-05
1.9545e-05
8.40414e-05
1.36157e-05
-2.4747e-05
2.54857e-05
7.87414e-05
1.69159e-05
-3.26039e-05
3.37831e-05
6.90905e-05
2.18484e-05
-4.40075e-05
4.66022e-05
4.7006e-05
2.88107e-05
-5.84225e-05
6.77388e-05
2.56865e-05
-4.86207e-05
7.95797e-05
9.71124e-05
-5.19292e-07
5.55775e-07
-3.72638e-08
9.70005e-05
-1.50641e-06
1.59062e-06
7.19428e-07
9.68523e-05
-2.42845e-06
2.53935e-06
1.47423e-06
9.66919e-05
-3.34225e-06
3.46249e-06
2.25063e-06
9.65304e-05
-4.30249e-06
4.41985e-06
3.07773e-06
9.63618e-05
-5.36999e-06
5.48151e-06
3.98819e-06
9.61553e-05
-6.6268e-06
6.74266e-06
5.02355e-06
9.58501e-05
-8.18446e-06
8.32811e-06
6.242e-06
9.53506e-05
-1.01948e-05
1.03993e-05
7.71569e-06
9.45237e-05
-1.28588e-05
1.31589e-05
9.56846e-06
9.31806e-05
-1.64448e-05
1.68763e-05
1.19294e-05
9.10106e-05
-2.13427e-05
2.19483e-05
1.51802e-05
8.73203e-05
-2.80585e-05
2.90454e-05
1.96194e-05
8.02172e-05
-3.75624e-05
3.94735e-05
2.70403e-05
6.11845e-05
-5.22126e-05
5.93353e-05
4.07208e-05
-4.33458e-05
7.24084e-05
5.73287e-05
1.26614e-05
-8.73458e-08
-1.15109e-06
1.25055e-05
5.03633e-08
-2.08551e-06
1.21971e-05
1.87282e-07
-2.64322e-06
1.17732e-05
2.92911e-07
-3.1266e-06
1.12474e-05
3.82435e-07
-3.65642e-06
1.06236e-05
4.61794e-07
-4.30095e-06
9.90741e-06
5.26269e-07
-5.11087e-06
9.11245e-06
5.63792e-07
-6.13211e-06
8.26532e-06
5.53774e-07
-7.41397e-06
7.40952e-06
4.6327e-07
-9.01529e-06
6.61012e-06
2.37697e-07
-1.10076e-05
5.94879e-06
-2.08455e-07
-1.3462e-05
5.47678e-06
-9.84113e-07
-1.63701e-05
4.9816e-06
-2.06447e-06
-1.93533e-05
3.42392e-06
-2.85494e-06
-2.07075e-05
-2.03524e-06
-1.46394e-05
3.53232e-05
-4.58702e-08
-1.33154e-06
3.4956e-05
2.05178e-07
-3.14452e-06
3.43695e-05
5.01845e-07
-4.4882e-06
3.35641e-05
7.82871e-07
-5.66113e-06
3.25365e-05
1.04846e-06
-6.86306e-06
3.12778e-05
1.29855e-06
-8.24232e-06
2.97814e-05
1.51897e-06
-9.91881e-06
2.80493e-05
1.68129e-06
-1.19975e-05
2.60964e-05
1.73927e-06
-1.4581e-05
2.39481e-05
1.62129e-06
-1.77805e-05
2.1634e-05
1.21037e-06
-2.17215e-05
1.91546e-05
3.24739e-07
-2.65153e-05
1.63969e-05
-1.29919e-06
-3.20809e-05
1.28833e-05
-3.72767e-06
-3.74655e-05
7.29717e-06
-5.84e-06
-3.88882e-05
-4.54374e-06
-2.51783e-05
5.49169e-05
-2.4003e-08
-1.05165e-06
5.45302e-05
3.55655e-07
-2.87494e-06
5.39103e-05
7.94258e-07
-4.45176e-06
5.3051e-05
1.24413e-06
-5.91816e-06
5.19346e-05
1.69547e-06
-7.4183e-06
5.05327e-05
2.14294e-06
-9.098e-06
4.88095e-05
2.56769e-06
-1.11003e-05
4.67272e-05
2.9338e-06
-1.3563e-05
4.42467e-05
3.1824e-06
-1.66226e-05
4.132e-05
3.22377e-06
-2.04226e-05
3.78682e-05
2.91113e-06
-2.51207e-05
3.3728e-05
2.01061e-06
-3.08714e-05
2.85126e-05
1.70375e-07
-3.76616e-05
2.14493e-05
-2.94179e-06
-4.44412e-05
1.11931e-05
-6.18453e-06
-4.64849e-05
-5.68157e-06
-2.98356e-05
7.12692e-05
-2.99945e-08
-8.20218e-07
7.09362e-05
4.7283e-07
-2.37693e-06
7.03853e-05
1.02851e-06
-3.84202e-06
6.96172e-05
1.6132e-06
-5.28464e-06
6.86127e-05
2.22015e-06
-6.79299e-06
6.73329e-05
2.84652e-06
-8.47854e-06
6.5718e-05
3.47887e-06
-1.04741e-05
6.36872e-05
4.08905e-06
-1.29272e-05
6.11374e-05
4.62644e-06
-1.59973e-05
5.79284e-05
5.01416e-06
-1.98598e-05
5.38521e-05
5.11909e-06
-2.47111e-05
4.85476e-05
4.7323e-06
-3.07672e-05
4.13539e-05
3.48199e-06
-3.81708e-05
3.09714e-05
8.90039e-07
-4.61545e-05
1.57553e-05
-2.54859e-06
-4.96272e-05
-4.04637e-06
-3.24187e-05
8.43418e-05
-4.83243e-08
-6.77408e-07
8.40666e-05
5.62514e-07
-1.986e-06
8.36022e-05
1.21276e-06
-3.25202e-06
8.29566e-05
1.89861e-06
-4.53669e-06
8.21157e-05
2.62355e-06
-5.90605e-06
8.10418e-05
3.39369e-06
-7.44511e-06
7.96657e-05
4.20949e-06
-9.26727e-06
7.78807e-05
5.06415e-06
-1.15143e-05
7.55349e-05
5.93519e-06
-1.43567e-05
7.2408e-05
6.79037e-06
-1.79967e-05
6.81756e-05
7.55268e-06
-2.26751e-05
6.22925e-05
8.11688e-06
-2.8674e-05
5.38247e-05
8.22167e-06
-3.63043e-05
4.08923e-05
7.45492e-06
-4.52909e-05
2.09727e-05
5.44529e-06
-5.05513e-05
1.5416e-06
-3.38273e-05
9.41356e-05
-6.5975e-08
-5.85332e-07
9.39065e-05
6.31609e-07
-1.71553e-06
9.35219e-05
1.35437e-06
-2.80761e-06
9.29939e-05
2.11267e-06
-3.92294e-06
9.23148e-05
2.92175e-06
-5.12078e-06
9.14531e-05
3.7994e-06
-6.4712e-06
9.03436e-05
4.76341e-06
-8.0699e-06
8.88742e-05
5.83506e-06
-1.00451e-05
8.68738e-05
7.03107e-06
-1.2564e-05
8.40781e-05
8.38673e-06
-1.58401e-05
8.0093e-05
9.91089e-06
-2.01439e-05
7.42276e-05
1.16829e-05
-2.58117e-05
6.53725e-05
1.36319e-05
-3.32529e-05
5.10421e-05
1.58631e-05
-4.27582e-05
2.71034e-05
1.76197e-05
-4.98459e-05
1.24972e-05
-3.41196e-05
0.000100656
-7.45549e-08
-5.19717e-07
0.000100463
6.83067e-07
-1.52256e-06
0.000100152
1.45272e-06
-2.48206e-06
9.9736e-05
2.25468e-06
-3.45607e-06
9.92134e-05
3.11483e-06
-4.49938e-06
9.85612e-05
4.0622e-06
-5.67249e-06
9.7725e-05
5.13124e-06
-7.05658e-06
9.66047e-05
6.3702e-06
-8.76294e-06
9.50402e-05
7.83444e-06
-1.0944e-05
9.27734e-05
9.63016e-06
-1.38033e-05
8.94166e-05
1.18563e-05
-1.76091e-05
8.42346e-05
1.48349e-05
-2.2717e-05
7.60678e-05
1.87306e-05
-2.95359e-05
6.20865e-05
2.46382e-05
-3.88012e-05
3.57833e-05
3.29973e-05
-4.74969e-05
3.22695e-05
-3.30157e-05
0.000103908
-4.70416e-07
-6.94746e-08
0.000103746
-1.37832e-06
7.17019e-07
0.000103505
-2.23723e-06
1.50294e-06
0.000103201
-3.09931e-06
2.31574e-06
0.000102838
-4.01422e-06
3.18971e-06
0.000102402
-5.03477e-06
4.16286e-06
0.000101854
-6.23022e-06
5.28298e-06
0.000101116
-7.69471e-06
6.61822e-06
0.000100061
-9.55949e-06
8.25353e-06
9.84913e-05
-1.20005e-05
1.0342e-05
9.61088e-05
-1.52519e-05
1.30459e-05
9.23672e-05
-1.96245e-05
1.68582e-05
8.63191e-05
-2.54558e-05
2.21759e-05
7.53746e-05
-3.33929e-05
3.14133e-05
5.17802e-05
-4.32801e-05
4.76591e-05
-2.98605e-05
7.00774e-05
1.33423e-05
-1.04652e-07
-1.04061e-06
1.31235e-05
2.5648e-08
-1.89241e-06
1.27267e-05
1.59975e-07
-2.40634e-06
1.21907e-05
2.63199e-07
-2.85381e-06
1.15288e-05
3.48302e-07
-3.34284e-06
1.07407e-05
4.21437e-07
-3.9343e-06
9.82548e-06
4.7726e-07
-4.67289e-06
8.78833e-06
5.02479e-07
-5.59744e-06
7.64587e-06
4.74558e-07
-6.74607e-06
6.43092e-06
3.57895e-07
-8.15823e-06
5.19964e-06
9.50064e-08
-9.87131e-06
4.03618e-06
-4.00683e-07
-1.18978e-05
3.04039e-06
-1.23313e-06
-1.41412e-05
2.20969e-06
-2.37344e-06
-1.61492e-05
1.23959e-06
-3.31749e-06
-1.64199e-05
-2.59225e-06
-1.08313e-05
3.7274e-05
-6.67126e-08
-1.18265e-06
3.68043e-05
1.6631e-07
-2.81546e-06
3.60607e-05
4.53981e-07
-4.03863e-06
3.50464e-05
7.27965e-07
-5.11159e-06
3.37554e-05
9.85324e-07
-6.2091e-06
3.21716e-05
1.22494e-06
-7.46202e-06
3.02761e-05
1.43047e-06
-8.97647e-06
2.80549e-05
1.56946e-06
-1.08434e-05
2.55049e-05
1.5892e-06
-1.31456e-05
2.26346e-05
1.40874e-06
-1.59611e-05
1.94648e-05
8.99571e-07
-1.93563e-05
1.60186e-05
-1.29842e-07
-2.334e-05
1.23063e-05
-1.92883e-06
-2.7673e-05
8.25081e-06
-4.48949e-06
-3.12939e-05
3.70503e-06
-6.74723e-06
-3.09127e-05
-5.48331e-06
-1.86518e-05
5.79788e-05
-4.5611e-08
-9.22728e-07
5.74962e-05
3.19606e-07
-2.54564e-06
5.67161e-05
7.48368e-07
-3.96601e-06
5.56312e-05
1.19077e-06
-5.29605e-06
5.42203e-05
1.63496e-06
-6.6571e-06
5.24469e-05
2.07455e-06
-8.1742e-06
5.02611e-05
2.48796e-06
-9.97195e-06
4.76042e-05
2.83364e-06
-1.21703e-05
4.44112e-05
3.04319e-06
-1.48836e-05
4.06051e-05
3.01268e-06
-1.82205e-05
3.60838e-05
2.57661e-06
-2.22765e-05
3.06874e-05
1.48552e-06
-2.70903e-05
2.41577e-05
-6.09234e-07
-3.24515e-05
1.62087e-05
-3.86396e-06
-3.71178e-05
6.99479e-06
-7.14149e-06
-3.68768e-05
-6.55252e-06
-2.18929e-05
7.5256e-05
-5.31831e-08
-7.16432e-07
7.48441e-05
4.46116e-07
-2.09157e-06
7.41518e-05
9.9885e-07
-3.40015e-06
7.31751e-05
1.58219e-06
-4.69941e-06
7.18894e-05
2.18931e-06
-6.06165e-06
7.02474e-05
2.81749e-06
-7.57945e-06
6.8175e-05
3.45163e-06
-9.36543e-06
6.55686e-05
4.05892e-06
-1.15461e-05
6.22915e-05
4.57988e-06
-1.42569e-05
5.81591e-05
4.92405e-06
-1.76387e-05
5.29136e-05
4.93943e-06
-2.18284e-05
4.61621e-05
4.39892e-06
-2.6929e-05
3.73079e-05
2.93607e-06
-3.28619e-05
2.55729e-05
2.58527e-07
-3.8542e-05
1.11724e-05
-3.10156e-06
-3.92667e-05
-4.44365e-06
-2.35399e-05
8.90656e-05
-7.38433e-08
-5.91493e-07
8.87249e-05
5.45359e-07
-1.74457e-06
8.8139e-05
1.20319e-06
-2.87041e-06
8.73089e-05
1.8981e-06
-4.02248e-06
8.62132e-05
2.63513e-06
-5.25613e-06
8.48047e-05
3.422e-06
-6.64115e-06
8.3001e-05
4.25947e-06
-8.27145e-06
8.06725e-05
5.13912e-06
-1.0266e-05
7.76303e-05
6.03366e-06
-1.27683e-05
7.35986e-05
6.90361e-06
-1.59446e-05
6.81792e-05
7.66092e-06
-1.99772e-05
6.0753e-05
8.19171e-06
-2.50407e-05
5.03728e-05
8.24025e-06
-3.12283e-05
3.56625e-05
7.52642e-06
-3.78485e-05
1.61918e-05
5.7628e-06
-3.99449e-05
2.035e-06
-2.43709e-05
9.94105e-05
-9.35448e-08
-5.11214e-07
9.91249e-05
6.22716e-07
-1.50735e-06
9.86347e-05
1.36353e-06
-2.4777e-06
9.79444e-05
2.14219e-06
-3.47671e-06
9.70375e-05
2.97679e-06
-4.5556e-06
9.58728e-05
3.88812e-06
-5.77261e-06
9.43721e-05
4.89646e-06
-7.20619e-06
9.24024e-05
6.02545e-06
-8.96172e-06
8.97569e-05
7.2928e-06
-1.11777e-05
8.61127e-05
8.73666e-06
-1.4029e-05
8.09895e-05
1.03682e-05
-1.7728e-05
7.35996e-05
1.22767e-05
-2.25067e-05
6.27534e-05
1.44146e-05
-2.85811e-05
4.63044e-05
1.69866e-05
-3.57694e-05
2.23615e-05
1.92748e-05
-3.94149e-05
1.44158e-05
-2.44731e-05
0.000106298
-1.02927e-07
-4.53751e-07
0.000106055
6.81426e-07
-1.33829e-06
0.00010565
1.47785e-06
-2.19151e-06
0.00010509
2.31012e-06
-3.06461e-06
0.000104365
3.20806e-06
-4.00565e-06
0.000103442
4.20497e-06
-5.06575e-06
0.000102254
5.33968e-06
-6.31152e-06
0.000100683
6.6667e-06
-7.83321e-06
9.85384e-05
8.24797e-06
-9.75489e-06
9.55093e-05
1.02038e-05
-1.22414e-05
9.11249e-05
1.26493e-05
-1.55057e-05
8.45446e-05
1.59447e-05
-1.98047e-05
7.45095e-05
2.03017e-05
-2.53878e-05
5.83057e-05
2.69504e-05
-3.25612e-05
3.15076e-05
3.63396e-05
-3.77636e-05
3.62684e-05
-2.3775e-05
0.000109733
-4.10304e-07
-9.68711e-08
0.000109525
-1.21136e-06
7.2202e-07
0.0001092
-1.97589e-06
1.5412e-06
0.000108769
-2.74985e-06
2.39195e-06
0.000108227
-3.57694e-06
3.31335e-06
0.00010755
-4.50218e-06
4.34853e-06
0.000106691
-5.58252e-06
5.55111e-06
0.000105559
-6.8937e-06
6.99827e-06
0.000104003
-8.54143e-06
8.78556e-06
0.000101784
-1.06664e-05
1.10893e-05
9.85412e-05
-1.34554e-05
1.40951e-05
9.36315e-05
-1.71375e-05
1.83674e-05
8.6048e-05
-2.19256e-05
2.4355e-05
7.30936e-05
-2.82154e-05
3.47273e-05
4.85857e-05
-3.49327e-05
5.25001e-05
-2.1789e-05
7.62877e-05
1.39071e-05
-1.20009e-07
-8.88283e-07
1.36314e-05
3.73315e-09
-1.62053e-06
1.3155e-05
1.3439e-07
-2.06432e-06
1.25186e-05
2.34965e-07
-2.45234e-06
1.17354e-05
3.15624e-07
-2.87528e-06
1.08024e-05
3.82628e-07
-3.38396e-06
9.71459e-06
4.30091e-07
-4.01513e-06
8.4725e-06
4.43775e-07
-4.79913e-06
7.08932e-06
3.99868e-07
-5.76275e-06
5.59805e-06
2.61578e-07
-6.92855e-06
4.06374e-06
-2.86494e-08
-8.30835e-06
2.5992e-06
-5.53472e-07
-9.87982e-06
1.37644e-06
-1.40459e-06
-1.15139e-05
5.62761e-07
-2.54202e-06
-1.27935e-05
1.86654e-07
-3.48965e-06
-1.25541e-05
-2.71989e-06
-7.95009e-06
3.88976e-05
-8.49452e-08
-9.95072e-07
3.83369e-05
1.31826e-07
-2.38291e-06
3.74539e-05
4.10834e-07
-3.43203e-06
3.6254e-05
6.77935e-07
-4.35474e-06
3.47299e-05
9.27261e-07
-5.29664e-06
3.28605e-05
1.15672e-06
-6.3667e-06
3.0619e-05
1.34802e-06
-7.65282e-06
2.79823e-05
1.46537e-06
-9.22833e-06
2.49403e-05
1.4512e-06
-1.11549e-05
2.15031e-05
1.21874e-06
-1.3481e-05
1.77109e-05
6.36227e-07
-1.6229e-05
1.36517e-05
-4.86133e-07
-1.93481e-05
9.48358e-06
-2.35959e-06
-2.25499e-05
5.4404e-06
-4.91758e-06
-2.48752e-05
1.92661e-06
-7.1287e-06
-2.37599e-05
-5.77234e-06
-1.37463e-05
6.05294e-05
-6.42402e-08
-7.69048e-07
5.9963e-05
2.88805e-07
-2.13624e-06
5.90424e-05
7.09072e-07
-3.34362e-06
5.77592e-05
1.14481e-06
-4.4798e-06
5.60895e-05
1.58237e-06
-5.64246e-06
5.39907e-05
2.01452e-06
-6.93319e-06
5.14034e-05
2.41735e-06
-8.45396e-06
4.82561e-05
2.74459e-06
-1.03022e-05
4.44705e-05
2.92024e-06
-1.25671e-05
3.99621e-05
2.83054e-06
-1.5324e-05
3.4641e-05
2.30093e-06
-1.862e-05
2.84015e-05
1.08574e-06
-2.24227e-05
2.11659e-05
-1.1279e-06
-2.64476e-05
1.30371e-05
-4.36792e-06
-2.95386e-05
4.91528e-06
-7.53201e-06
-2.83516e-05
-6.81351e-06
-1.60635e-05
7.85776e-05
-7.30819e-08
-5.9516e-07
7.80973e-05
4.24493e-07
-1.7469e-06
7.7282e-05
9.75803e-07
-2.85166e-06
7.61239e-05
1.55883e-06
-3.95527e-06
7.45927e-05
2.16665e-06
-5.11478e-06
7.26345e-05
2.79678e-06
-6.40349e-06
7.0165e-05
3.43289e-06
-7.9115e-06
6.70655e-05
4.03835e-06
-9.74037e-06
6.31797e-05
4.54641e-06
-1.19973e-05
5.83022e-05
4.85657e-06
-1.47872e-05
5.21657e-05
4.80601e-06
-1.8197e-05
4.44106e-05
4.16592e-06
-2.22541e-05
3.4595e-05
2.60133e-06
-2.67756e-05
2.23719e-05
3.36336e-09
-3.06901e-05
8.95093e-06
-3.21809e-06
-3.01596e-05
-4.42554e-06
-1.71686e-05
9.30014e-05
-9.56475e-08
-4.91284e-07
9.26039e-05
5.32824e-07
-1.45532e-06
9.19127e-05
1.19921e-06
-2.40261e-06
9.0923e-05
1.9038e-06
-3.37776e-06
8.96061e-05
2.6529e-06
-4.42552e-06
8.79069e-05
3.45573e-06
-5.60085e-06
8.57322e-05
4.31359e-06
-6.97753e-06
8.2937e-05
5.21694e-06
-8.64932e-06
7.93096e-05
6.13436e-06
-1.07289e-05
7.45443e-05
7.02071e-06
-1.33434e-05
6.82141e-05
7.78058e-06
-1.66216e-05
5.96986e-05
8.30029e-06
-2.06595e-05
4.81524e-05
8.34619e-06
-2.5427e-05
3.26916e-05
7.75269e-06
-3.0137e-05
1.39645e-05
6.23456e-06
-3.06705e-05
2.60894e-06
-1.77051e-05
0.000103806
-1.16914e-07
-4.24656e-07
0.000103471
6.18082e-07
-1.25774e-06
0.000102889
1.37713e-06
-2.07375e-06
0.000102058
2.17595e-06
-2.91847e-06
0.000100955
3.03508e-06
-3.83433e-06
9.9528e-05
3.97799e-06
-4.86787e-06
9.76886e-05
5.02733e-06
-6.08048e-06
9.52887e-05
6.20901e-06
-7.55396e-06
9.20995e-05
7.54119e-06
-9.39531e-06
8.77657e-05
9.06376e-06
-1.17382e-05
8.17687e-05
1.0788e-05
-1.47384e-05
7.32981e-05
1.28116e-05
-1.85475e-05
6.12181e-05
1.51036e-05
-2.32585e-05
4.37722e-05
1.79443e-05
-2.85151e-05
2.02872e-05
2.06131e-05
-3.03085e-05
1.58557e-05
-1.77743e-05
0.000110998
-1.26763e-07
-3.76796e-07
0.000110711
6.83793e-07
-1.11699e-06
0.000110225
1.50646e-06
-1.83497e-06
0.000109542
2.36801e-06
-2.57363e-06
0.000108643
3.30171e-06
-3.37311e-06
0.000107486
4.34464e-06
-4.27489e-06
0.000105993
5.53956e-06
-5.33138e-06
0.000104035
6.94643e-06
-6.61206e-06
0.0001014
8.63206e-06
-8.2115e-06
9.77501e-05
1.07268e-05
-1.02542e-05
9.25761e-05
1.33541e-05
-1.28978e-05
8.50063e-05
1.68973e-05
-1.63205e-05
7.38011e-05
2.15851e-05
-2.06641e-05
5.64949e-05
2.87138e-05
-2.60246e-05
2.98215e-05
3.87057e-05
-2.91828e-05
3.88581e-05
-1.73775e-05
0.000114586
-3.40443e-07
-1.1965e-07
0.000114338
-1.01093e-06
7.30787e-07
0.000113941
-1.65477e-06
1.58216e-06
0.000113401
-2.31028e-06
2.46915e-06
0.000112704
-3.01401e-06
3.43508e-06
0.000111822
-3.80275e-06
4.52764e-06
0.000110695
-4.7216e-06
5.8055e-06
0.000109223
-5.82862e-06
7.3535e-06
0.000107242
-7.20375e-06
9.27519e-06
0.000104491
-8.95203e-06
1.17638e-05
0.000100583
-1.12117e-05
1.50179e-05
9.48452e-05
-1.41453e-05
1.96432e-05
8.62849e-05
-1.78805e-05
2.61003e-05
7.22805e-05
-2.26658e-05
3.71686e-05
4.75574e-05
-2.72763e-05
5.57723e-05
-1.60793e-05
8.02032e-05
1.43566e-05
-1.32601e-07
-6.9989e-07
1.40336e-05
-1.80278e-08
-1.27954e-06
1.3489e-05
1.12495e-07
-1.63218e-06
1.27676e-05
2.10198e-07
-1.94115e-06
1.18826e-05
2.86824e-07
-2.27708e-06
1.08294e-05
3.48407e-07
-2.67914e-06
9.60073e-06
3.88645e-07
-3.17512e-06
8.19582e-06
3.92648e-07
-3.78687e-06
6.62871e-06
3.35869e-07
-4.53151e-06
4.9386e-06
1.81289e-07
-5.41972e-06
3.20614e-06
-1.2693e-07
-6.44896e-06
1.57749e-06
-6.66823e-07
-7.58434e-06
2.8558e-07
-1.51748e-06
-8.70449e-06
-3.99464e-07
-2.62464e-06
-9.48383e-06
-3.52293e-07
-3.52662e-06
-9.07466e-06
-2.7135e-06
-5.61524e-06
4.01956e-05
-1.00117e-07
-7.75459e-07
3.95574e-05
1.02432e-07
-1.8652e-06
3.85575e-05
3.74308e-07
-2.69394e-06
3.72019e-05
6.35246e-07
-3.42417e-06
3.54829e-05
8.77442e-07
-4.16823e-06
3.33766e-05
1.09802e-06
-5.00999e-06
3.08519e-05
1.27713e-06
-6.01657e-06
2.78822e-05
1.37645e-06
-7.24246e-06
2.44582e-05
1.335e-06
-8.73009e-06
2.06014e-05
1.06292e-06
-1.05059e-05
1.6382e-05
4.30692e-07
-1.25672e-05
1.19564e-05
-7.45559e-07
-1.48437e-05
7.60115e-06
-2.63986e-06
-1.70723e-05
3.74017e-06
-5.1414e-06
-1.84974e-05
9.79885e-07
-7.24851e-06
-1.72777e-05
-5.81017e-06
-9.74614e-06
6.25692e-05
-7.95671e-08
-5.95083e-07
6.1933e-05
2.63637e-07
-1.66127e-06
6.08955e-05
6.76978e-07
-2.60875e-06
5.94472e-05
1.10717e-06
-3.50345e-06
5.75619e-05
1.53911e-06
-4.41888e-06
5.51936e-05
1.96495e-06
-5.43176e-06
5.2277e-05
2.35901e-06
-6.61922e-06
4.87341e-05
2.67138e-06
-8.05426e-06
4.44827e-05
2.82044e-06
-9.80112e-06
3.94435e-05
2.68623e-06
-1.1908e-05
3.35545e-05
2.09135e-06
-1.43917e-05
2.67742e-05
8.02768e-07
-1.71907e-05
1.91802e-05
-1.45773e-06
-2.00357e-05
1.11268e-05
-4.62902e-06
-2.19976e-05
3.80843e-06
-7.64004e-06
-2.06417e-05
-6.82283e-06
-1.13735e-05
8.12344e-05
-8.93749e-08
-4.59449e-07
8.06974e-05
4.07542e-07
-1.35376e-06
7.97806e-05
9.58416e-07
-2.21628e-06
7.84722e-05
1.54181e-06
-3.08156e-06
7.67379e-05
2.15068e-06
-3.99205e-06
7.45186e-05
2.78283e-06
-5.002e-06
7.17232e-05
3.42117e-06
-6.17833e-06
6.82245e-05
4.02622e-06
-7.59648e-06
6.38567e-05
4.52573e-06
-9.33474e-06
5.84093e-05
4.81229e-06
-1.14659e-05
5.16263e-05
4.71753e-06
-1.40402e-05
4.32034e-05
4.01822e-06
-1.70466e-05
3.28408e-05
2.41524e-06
-2.0286e-05
2.04975e-05
-1.04611e-07
-2.28712e-05
7.801e-06
-3.14377e-06
-2.19594e-05
-4.26536e-06
-1.21217e-05
9.61496e-05
-1.13442e-07
-3.79208e-07
9.57049e-05
5.23856e-07
-1.12687e-06
9.49268e-05
1.19854e-06
-1.86462e-06
9.38056e-05
1.91231e-06
-2.62713e-06
9.23068e-05
2.67244e-06
-3.44839e-06
9.03683e-05
3.48948e-06
-4.36904e-06
8.78897e-05
4.36539e-06
-5.44316e-06
8.4716e-05
5.28994e-06
-6.73936e-06
8.06238e-05
6.22857e-06
-8.33948e-06
7.52947e-05
7.13189e-06
-1.03339e-05
6.82987e-05
7.89946e-06
-1.28075e-05
5.90444e-05
8.42037e-06
-1.58073e-05
4.6806e-05
8.48344e-06
-1.92569e-05
3.10314e-05
8.00049e-06
-2.24674e-05
1.28685e-05
6.68826e-06
-2.23397e-05
3.11151e-06
-1.24831e-05
0.000107321
-1.3589e-07
-3.27782e-07
0.000106945
6.16083e-07
-9.7407e-07
0.000106288
1.39175e-06
-1.60939e-06
0.000105342
2.20881e-06
-2.26936e-06
0.000104077
3.08972e-06
-2.98683e-06
0.000102435
4.06021e-06
-3.79669e-06
0.000100319
5.14504e-06
-4.74389e-06
9.75708e-05
6.37206e-06
-5.88766e-06
9.39491e-05
7.75966e-06
-7.30475e-06
8.90843e-05
9.3485e-06
-9.08997e-06
8.24473e-05
1.11484e-05
-1.13503e-05
7.32386e-05
1.32615e-05
-1.418e-05
6.04059e-05
1.56657e-05
-1.76081e-05
4.24778e-05
1.86904e-05
-2.12769e-05
1.93515e-05
2.16186e-05
-2.21125e-05
1.68916e-05
-1.25505e-05
0.000114758
-1.45991e-07
-2.90749e-07
0.000114435
6.88015e-07
-8.65238e-07
0.000113882
1.53418e-06
-1.42453e-06
0.000113097
2.42176e-06
-2.00186e-06
0.000112055
3.38687e-06
-2.62844e-06
0.000110707
4.46967e-06
-3.33573e-06
0.000108967
5.7162e-06
-4.16239e-06
0.000106694
7.19082e-06
-5.15852e-06
0.00010367
8.96369e-06
-6.39122e-06
9.95403e-05
1.11719e-05
-7.94793e-06
9.3787e-05
1.39414e-05
-9.93753e-06
8.55391e-05
1.76673e-05
-1.24783e-05
7.36103e-05
2.2578e-05
-1.56475e-05
5.57312e-05
3.00001e-05
-1.94552e-05
2.9185e-05
4.03542e-05
-2.13722e-05
4.06138e-05
-1.23425e-05
0.000118468
-2.62534e-07
-1.3787e-07
0.000118187
-7.83006e-07
7.40695e-07
0.000117731
-1.28482e-06
1.62068e-06
0.0001171
-1.79758e-06
2.53964e-06
0.000116278
-2.34969e-06
3.54442e-06
0.000115228
-2.96918e-06
4.68649e-06
0.000113883
-3.68956e-06
6.02857e-06
0.000112137
-4.55267e-06
7.66161e-06
0.000109817
-5.61488e-06
9.69466e-06
0.000106653
-6.94931e-06
1.23326e-05
0.000102255
-8.65099e-06
1.57786e-05
9.59458e-05
-1.08304e-05
2.06618e-05
8.6772e-05
-1.35608e-05
2.7432e-05
7.21863e-05
-1.7004e-05
3.8924e-05
4.73714e-05
-2.01091e-05
5.80018e-05
-1.14955e-05
8.28926e-05
1.46923e-05
-1.42285e-07
-4.82752e-07
1.43325e-05
-3.57037e-08
-8.8397e-07
1.37341e-05
9.50017e-08
-1.12887e-06
1.29464e-05
1.90034e-07
-1.3435e-06
1.19825e-05
2.63245e-07
-1.57636e-06
1.0837e-05
3.20358e-07
-1.85402e-06
9.50209e-06
3.54782e-07
-2.19498e-06
7.97716e-06
3.51217e-07
-2.61316e-06
6.27926e-06
2.8473e-07
-3.11835e-06
4.45541e-06
1.18524e-07
-3.7144e-06
2.60151e-06
-2.01008e-07
-4.39406e-06
8.91995e-07
-7.48115e-07
-5.12671e-06
-3.98376e-07
-1.59047e-06
-5.82365e-06
-9.68719e-07
-2.66054e-06
-6.25294e-06
-6.25037e-07
-3.52326e-06
-5.89508e-06
-2.67198e-06
-3.59532e-06
4.11682e-05
-1.11809e-07
-5.30764e-07
4.04692e-05
7.95654e-08
-1.28147e-06
3.93785e-05
3.45731e-07
-1.85402e-06
3.79019e-05
6.01618e-07
-2.35912e-06
3.60321e-05
8.37999e-07
-2.87316e-06
3.37438e-05
1.05144e-06
-3.45283e-06
3.10043e-05
1.22098e-06
-4.14323e-06
2.77867e-05
1.30652e-06
-4.98015e-06
2.40862e-05
1.24477e-06
-5.98965e-06
1.99385e-05
9.44566e-07
-7.18423e-06
1.54419e-05
2.80977e-07
-8.55248e-06
1.08093e-05
-9.25174e-07
-1.00341e-05
6.39713e-06
-2.81594e-06
-1.14346e-05
2.73152e-06
-5.25221e-06
-1.22401e-05
4.64253e-07
-7.2592e-06
-1.12745e-05
-5.76907e-06
-6.26294e-06
6.40982e-05
-9.12552e-08
-4.05202e-07
6.3408e-05
2.44572e-07
-1.13607e-06
6.22801e-05
6.52679e-07
-1.78782e-06
6.07042e-05
1.07864e-06
-2.4046e-06
5.86528e-05
1.50622e-06
-3.03568e-06
5.60775e-05
1.92718e-06
-3.73222e-06
5.29103e-05
2.31464e-06
-4.54567e-06
4.90708e-05
2.61611e-06
-5.52437e-06
4.44779e-05
2.74605e-06
-6.70949e-06
3.90624e-05
2.58084e-06
-8.12881e-06
3.27929e-05
1.94331e-06
-9.78449e-06
2.56803e-05
6.14856e-07
-1.16181e-05
1.79162e-05
-1.65907e-06
-1.34285e-05
9.99682e-06
-4.75403e-06
-1.45764e-05
3.21325e-06
-7.63131e-06
-1.3486e-05
-6.75271e-06
-7.31025e-06
8.32264e-05
-1.01775e-07
-3.1226e-07
8.26456e-05
3.95139e-07
-9.23498e-07
8.16505e-05
9.46158e-07
-1.51473e-06
8.02267e-05
1.53029e-06
-2.10938e-06
7.83364e-05
2.14033e-06
-2.73588e-06
7.5917e-05
2.77439e-06
-3.42983e-06
7.28736e-05
3.415e-06
-4.23527e-06
6.90744e-05
4.02068e-06
-5.20184e-06
6.43507e-05
4.51534e-06
-6.38034e-06
5.84947e-05
4.78699e-06
-7.81603e-06
5.12682e-05
4.66469e-06
-9.53512e-06
4.24201e-05
3.93224e-06
-1.15158e-05
3.17549e-05
2.31946e-06
-1.35993e-05
1.94192e-05
-1.2364e-07
-1.51659e-05
7.19997e-06
-3.01785e-06
-1.43537e-05
-4.09137e-06
-7.78303e-06
9.85102e-05
-1.26973e-07
-2.5765e-07
9.8029e-05
5.17814e-07
-7.68274e-07
9.7184e-05
1.1996e-06
-1.27313e-06
9.59621e-05
1.92119e-06
-1.79611e-06
9.43239e-05
2.69052e-06
-2.36041e-06
9.22029e-05
3.51916e-06
-2.99274e-06
8.94932e-05
4.40978e-06
-3.72831e-06
8.60346e-05
5.35176e-06
-4.61181e-06
8.15982e-05
6.30833e-06
-5.69609e-06
7.58629e-05
7.22697e-06
-7.03856e-06
6.84064e-05
8.00373e-06
-8.69008e-06
5.86718e-05
8.53027e-06
-1.06708e-05
4.60285e-05
8.61306e-06
-1.29071e-05
3.01278e-05
8.21449e-06
-1.49048e-05
1.23288e-05
7.05325e-06
-1.46118e-05
3.4946e-06
-8.01392e-06
0.000109957
-1.50279e-07
-2.22682e-07
0.00010955
6.156e-07
-6.64185e-07
0.000108834
1.40494e-06
-1.09886e-06
0.0001078
2.23697e-06
-1.55122e-06
0.000106412
3.13557e-06
-2.04394e-06
0.000104607
4.12819e-06
-2.6002e-06
0.00010228
5.24125e-06
-3.24929e-06
9.92699e-05
6.50418e-06
-4.0295e-06
9.5328e-05
7.93539e-06
-4.98992e-06
9.00801e-05
9.57572e-06
-6.19078e-06
8.2999e-05
1.14327e-05
-7.69821e-06
7.33062e-05
1.36098e-05
-9.56679e-06
6.00209e-05
1.60893e-05
-1.17991e-05
4.18514e-05
1.92307e-05
-1.41236e-05
1.89437e-05
2.23305e-05
-1.4482e-05
1.7606e-05
-8.07025e-06
0.000117578
-1.60513e-07
-1.97472e-07
0.000117226
6.92528e-07
-5.90057e-07
0.000116621
1.55778e-06
-9.72873e-07
0.000115759
2.46645e-06
-1.36868e-06
0.000114608
3.45678e-06
-1.79906e-06
0.000113114
4.57129e-06
-2.28513e-06
0.000111187
5.85849e-06
-2.85218e-06
0.000108679
7.38604e-06
-3.53259e-06
0.000105366
9.22617e-06
-4.3689e-06
0.00010089
1.152e-05
-5.4163e-06
9.47343e-05
1.43933e-05
-6.74221e-06
8.60395e-05
1.82455e-05
-8.41928e-06
7.36689e-05
2.32987e-05
-1.04863e-05
5.54795e-05
3.08936e-05
-1.29288e-05
2.8996e-05
4.14699e-05
-1.40282e-05
4.17924e-05
-7.96544e-06
0.000121379
-1.78237e-07
-1.51553e-07
0.000121072
-5.33951e-07
7.49781e-07
0.00012057
-8.77562e-07
1.6529e-06
0.000119871
-1.22929e-06
2.59757e-06
0.000118953
-1.60877e-06
3.63338e-06
0.000117775
-2.03488e-06
4.81465e-06
0.000116267
-2.52965e-06
6.20712e-06
0.000114314
-3.12017e-06
7.9062e-06
0.000111743
-3.84202e-06
1.00244e-05
0.000108281
-4.74114e-06
1.27741e-05
0.00010354
-5.87586e-06
1.63586e-05
9.68519e-05
-7.31575e-06
2.14193e-05