/*--------------------------------*- C++ -*----------------------------------*\
| =========                 |                                                 |
| \\      /  F ield         | foam-extend: Open Source CFD                    |
|  \\    /   O peration     | Version:     3.1                                |
|   \\  /    A nd           | Web:         http://www.extend-project.de       |
|    \\/     M anipulation  |                                                 |
\*---------------------------------------------------------------------------*/
FoamFile
{
    version     2.0;
    format      ascii;
    class       surfaceVectorField;
    location    "4";
    object      Sf;
}
// * * * * * * * * * * * * * * * * * * * * * * * * * * * * * * * * * * * * * //

dimensions      [0 2 0 0 0 0 0];

internalField   nonuniform List<vector> 
41600
(
(0.000625528 -2.8538e-06 -2.02674e-08)
(-5.27728e-07 0.000705979 -1.32879e-08)
(9.90434e-09 1.11424e-08 0.000704866)
(-1.0163e-08 -1.14334e-08 -0.000704832)
(0.000626033 -5.49812e-06 -3.90699e-08)
(-5.05201e-07 0.00070577 -3.97589e-08)
(9.71542e-09 3.32119e-08 0.000705354)
(-9.97319e-09 -3.40839e-08 -0.000705296)
(0.000626527 -7.90788e-06 -5.64095e-08)
(-4.93079e-07 0.000705536 -6.67424e-08)
(1.00285e-08 5.54122e-08 0.000705811)
(-1.02937e-08 -5.68723e-08 -0.000705727)
(0.000627032 -1.01403e-05 -7.28247e-08)
(-5.05277e-07 0.000705359 -9.60734e-08)
(1.10433e-08 7.9092e-08 0.000706298)
(-1.13236e-08 -8.11656e-08 -0.000706185)
(0.000627572 -1.22415e-05 -8.88819e-08)
(-5.39817e-07 0.000705229 -1.30028e-07)
(1.26116e-08 1.0566e-07 0.000706836)
(-1.29051e-08 -1.08379e-07 -0.00070669)
(0.000628169 -1.42515e-05 -1.05081e-07)
(-5.96428e-07 0.000705138 -1.71117e-07)
(1.44245e-08 1.36016e-07 0.00070745)
(-1.47232e-08 -1.39401e-07 -0.000707263)
(0.000628845 -1.61986e-05 -1.21111e-07)
(-6.75273e-07 0.000705076 -2.22223e-07)
(1.5949e-08 1.70127e-07 0.000708158)
(-1.62465e-08 -1.74182e-07 -0.00070792)
(0.000629623 -1.80935e-05 -1.36087e-07)
(-7.77733e-07 0.000705025 -2.8678e-07)
(1.63343e-08 2.06426e-07 0.00070898)
(-1.66075e-08 -2.1112e-07 -0.000708678)
(0.000630529 -1.99272e-05 -1.48704e-07)
(-9.06202e-07 0.000704964 -3.69374e-07)
(1.38917e-08 2.40547e-07 0.000709934)
(-1.40769e-08 -2.45751e-07 -0.000709552)
(0.000631592 -2.16548e-05 -1.56127e-07)
(-1.06252e-06 0.000704858 -4.76381e-07)
(5.35164e-09 2.6267e-07 0.000711037)
(-5.40649e-09 -2.68125e-07 -0.000710553)
(0.000632842 -2.31917e-05 -1.54723e-07)
(-1.25072e-06 0.000704667 -6.17424e-07)
(-1.53684e-08 2.52717e-07 0.000712304)
(1.53795e-08 -2.58164e-07 -0.000711688)
(0.000634318 -2.43989e-05 -1.41769e-07)
(-1.47507e-06 0.000704338 -8.08968e-07)
(-5.88969e-08 1.72329e-07 0.000713757)
(5.86529e-08 -1.77875e-07 -0.00071296)
(0.000636055 -2.50875e-05 -1.20538e-07)
(-1.73582e-06 0.00070382 -1.08151e-06)
(-1.43703e-07 -4.85779e-08 0.000715427)
(1.42352e-07 4.16597e-08 -0.000714366)
(0.000638063 -2.50951e-05 -1.15789e-07)
(-2.00488e-06 0.000703144 -1.49181e-06)
(-2.91785e-07 -5.24289e-07 0.000717393)
(2.88742e-07 5.13324e-07 -0.000715906)
(0.000640072 -2.44824e-05 -2.20834e-07)
(-2.02539e-06 0.000702509 -2.1171e-06)
(-4.71321e-07 -1.35987e-06 0.000719714)
(4.87262e-07 1.3636e-06 -0.000717492)
(-7.97884e-06 0.000699445 -5.57021e-07)
(-2.04627e-06 -4.07224e-06 0.000724418)
(4.13863e-06 6.33049e-06 -0.000723108)
(0.000625507 -2.8138e-06 -6.05892e-08)
(-1.03354e-06 0.000708793 -2.60435e-08)
(2.92479e-08 1.06176e-08 0.000707707)
(-3.00223e-08 -1.09068e-08 -0.000707634)
(0.000625991 -5.4228e-06 -1.16942e-07)
(-9.88917e-07 0.00070838 -7.78815e-08)
(2.8615e-08 3.15586e-08 0.000707962)
(-2.93947e-08 -3.24341e-08 -0.000707867)
(0.000626463 -7.8007e-06 -1.6914e-07)
(-9.64192e-07 0.000707916 -1.30633e-07)
(2.94788e-08 5.24567e-08 0.000708159)
(-3.02937e-08 -5.39489e-08 -0.000708043)
(0.000626945 -1.00036e-05 -2.18637e-07)
(-9.86748e-07 0.000707565 -1.87841e-07)
(3.24687e-08 7.46664e-08 0.000708442)
(-3.3336e-08 -7.68233e-08 -0.000708301)
(0.000627459 -1.20817e-05 -2.67368e-07)
(-1.05287e-06 0.00070731 -2.5395e-07)
(3.70979e-08 9.95932e-08 0.000708822)
(-3.80149e-08 -1.02466e-07 -0.000708649)
(0.000628025 -1.40752e-05 -3.16779e-07)
(-1.16099e-06 0.000707135 -3.33841e-07)
(4.25198e-08 1.28185e-07 0.000709312)
(-4.34876e-08 -1.31846e-07 -0.0007091)
(0.000628662 -1.60112e-05 -3.65871e-07)
(-1.31156e-06 0.000707017 -4.32971e-07)
(4.75136e-08 1.60976e-07 0.000709917)
(-4.84815e-08 -1.65476e-07 -0.000709657)
(0.000629392 -1.79059e-05 -4.12389e-07)
(-1.50692e-06 0.000706925 -5.5802e-07)
(4.98966e-08 1.9783e-07 0.000710636)
(-5.07364e-08 -2.03083e-07 -0.000710319)
(0.000630236 -1.97592e-05 -4.52098e-07)
(-1.74979e-06 0.000706823 -7.17555e-07)
(4.51317e-08 2.36864e-07 0.000711468)
(-4.56757e-08 -2.42647e-07 -0.00071108)
(0.000631216 -2.15488e-05 -4.77214e-07)
(-2.04259e-06 0.000706654 -9.23033e-07)
(2.48601e-08 2.73045e-07 0.000712389)
(-2.49687e-08 -2.79019e-07 -0.000711918)
(0.000632352 -2.32125e-05 -4.7741e-07)
(-2.38692e-06 0.000706337 -1.19142e-06)
(-2.58126e-08 2.96597e-07 0.000713365)
(2.60405e-08 -3.02297e-07 -0.000712791)
(0.000633655 -2.46413e-05 -4.42395e-07)
(-2.77781e-06 0.000705771 -1.54992e-06)
(-1.32074e-07 2.90918e-07 0.000714338)
(1.31976e-07 -2.95797e-07 -0.000713632)
(0.000635112 -2.56679e-05 -3.74662e-07)
(-3.18992e-06 0.000704851 -2.04588e-06)
(-3.33551e-07 2.32945e-07 0.000715241)
(3.31369e-07 -2.36394e-07 -0.000714344)
(0.000636627 -2.61032e-05 -3.2579e-07)
(-3.51523e-06 0.00070358 -2.76256e-06)
(-6.67436e-07 1.04427e-07 0.000716066)
(6.62509e-07 -1.05186e-07 -0.000714844)
(0.000637815 -2.58939e-05 -5.13565e-07)
(-3.25171e-06 0.000702292 -3.81756e-06)
(-1.03207e-06 -6.95249e-08 0.000716988)
(1.07004e-06 7.64998e-08 -0.0007151)
(-7.54995e-06 0.000697192 -2.81225e-06)
(-3.41196e-06 6.73748e-07 0.000715764)
(6.54284e-06 -1.94885e-06 -0.00071208)
(0.000625465 -2.73195e-06 -1.00124e-07)
(-1.49678e-06 0.000711525 -3.77002e-08)
(4.74011e-08 9.79788e-09 0.000710475)
(-4.86823e-08 -1.00789e-08 -0.000710363)
(0.000625908 -5.26483e-06 -1.93513e-07)
(-1.43101e-06 0.000710914 -1.127e-07)
(4.62178e-08 2.90523e-08 0.000710478)
(-4.75161e-08 -2.99003e-08 -0.00071035)
(0.000626338 -7.57173e-06 -2.80099e-07)
(-1.39305e-06 0.000710224 -1.88892e-07)
(4.75205e-08 4.81669e-08 0.000710397)
(-4.88779e-08 -4.95908e-08 -0.000710252)
(0.000626776 -9.71072e-06 -3.62533e-07)
(-1.42314e-06 0.000709706 -2.71304e-07)
(5.23967e-08 6.84964e-08 0.000710456)
(-5.38455e-08 -7.05187e-08 -0.00071029)
(0.00062724 -1.17336e-05 -4.44816e-07)
(-1.51509e-06 0.000709335 -3.66323e-07)
(5.99889e-08 9.14619e-08 0.000710659)
(-6.15626e-08 -9.41595e-08 -0.000710465)
(0.000627746 -1.36772e-05 -5.28794e-07)
(-1.66521e-06 0.000709083 -4.80832e-07)
(6.92388e-08 1.18315e-07 0.000711002)
(-7.09419e-08 -1.21789e-07 -0.000710771)
(0.00062831 -1.55723e-05 -6.12975e-07)
(-1.87373e-06 0.000708916 -6.22365e-07)
(7.87979e-08 1.50377e-07 0.000711474)
(-8.05079e-08 -1.54678e-07 -0.0007112)
(0.000628947 -1.7447e-05 -6.94792e-07)
(-2.1429e-06 0.000708804 -8.00083e-07)
(8.5922e-08 1.88961e-07 0.000712062)
(-8.74137e-08 -1.94085e-07 -0.000711738)
(0.000629673 -1.93163e-05 -7.67348e-07)
(-2.47468e-06 0.000708698 -1.02552e-06)
(8.50416e-08 2.35544e-07 0.000712741)
(-8.60549e-08 -2.41414e-07 -0.00071236)
(0.000630501 -2.11887e-05 -8.19427e-07)
(-2.87026e-06 0.000708532 -1.31382e-06)
(6.62046e-08 2.92203e-07 0.000713464)
(-6.64545e-08 -2.98576e-07 -0.000713021)
(0.000631437 -2.30477e-05 -8.34661e-07)
(-3.32351e-06 0.000708202 -1.68648e-06)
(1.26709e-08 3.62602e-07 0.000714148)
(-1.20242e-08 -3.68887e-07 -0.000713638)
(0.000632468 -2.48409e-05 -7.9264e-07)
(-3.81032e-06 0.00070757 -2.17582e-06)
(-1.02029e-07 4.54882e-07 0.00071467)
(1.03143e-07 -4.59928e-07 -0.000714086)
(0.000633545 -2.64626e-05 -6.81806e-07)
(-4.26653e-06 0.000706474 -2.83509e-06)
(-3.13029e-07 5.88625e-07 0.000714863)
(3.13234e-07 -5.90424e-07 -0.000714184)
(0.000634537 -2.77373e-05 -5.39047e-07)
(-4.50691e-06 0.00070485 -3.75534e-06)
(-6.37218e-07 8.054e-07 0.000714628)
(6.36804e-07 -8.00968e-07 -0.000713778)
(0.000635134 -2.84923e-05 -5.9356e-07)
(-3.88939e-06 0.000703044 -5.08439e-06)
(-9.35999e-07 1.15264e-06 0.00071425)
(9.76879e-07 -1.14883e-06 -0.000712928)
(-9.01246e-06 0.000698799 -3.63137e-06)
(-2.14103e-06 2.05483e-06 0.000711609)
(3.89547e-06 -2.47178e-06 -0.000709971)
(0.000625404 -2.60724e-06 -1.37624e-07)
(-1.89898e-06 0.000714133 -4.77488e-08)
(6.39227e-08 8.77179e-09 0.000713128)
(-6.56804e-08 -9.02698e-09 -0.00071298)
(0.000625789 -5.02113e-06 -2.66464e-07)
(-1.81382e-06 0.000713328 -1.42707e-07)
(6.22261e-08 2.60616e-08 0.000712864)
(-6.40042e-08 -2.68248e-08 -0.000712705)
(0.00062616 -7.21839e-06 -3.85748e-07)
(-1.76274e-06 0.000712422 -2.39e-07)
(6.39831e-08 4.33525e-08 0.000712491)
(-6.58282e-08 -4.46258e-08 -0.000712322)
(0.000626535 -9.25465e-06 -5.00394e-07)
(-1.79648e-06 0.000711744 -3.42897e-07)
(7.06967e-08 6.18891e-08 0.000712314)
(-7.26856e-08 -6.37173e-08 -0.000712128)
(0.000626928 -1.11742e-05 -6.16388e-07)
(-1.90559e-06 0.000711258 -4.62343e-07)
(8.12967e-08 8.31074e-08 0.000712323)
(-8.35136e-08 -8.55877e-08 -0.000712111)
(0.00062735 -1.30173e-05 -7.35195e-07)
(-2.08494e-06 0.000710929 -6.05581e-07)
(9.48587e-08 1.0855e-07 0.000712497)
(-9.72792e-08 -1.11782e-07 -0.000712253)
(0.000627812 -1.48252e-05 -8.55943e-07)
(-2.33338e-06 0.000710728 -7.81608e-07)
(1.10179e-07 1.40042e-07 0.000712817)
(-1.12655e-07 -1.4412e-07 -0.000712537)
(0.000628323 -1.66368e-05 -9.77034e-07)
(-2.65166e-06 0.000710621 -1.00124e-06)
(1.24884e-07 1.80093e-07 0.000713261)
(-1.27189e-07 -1.85139e-07 -0.000712939)
(0.000628891 -1.8488e-05 -1.09064e-06)
(-3.04026e-06 0.000710556 -1.27791e-06)
(1.34629e-07 2.33035e-07 0.000713787)
(-1.36389e-07 -2.39119e-07 -0.000713421)
(0.000629518 -2.0412e-05 -1.18388e-06)
(-3.49706e-06 0.000710463 -1.62902e-06)
(1.31511e-07 3.0664e-07 0.000714332)
(-1.32228e-07 -3.1363e-07 -0.000713924)
(0.000630204 -2.2445e-05 -1.23628e-06)
(-4.00997e-06 0.000710242 -2.07869e-06)
(1.02864e-07 4.14535e-07 0.000714791)
(-1.01951e-07 -4.21878e-07 -0.000714346)
(0.000630931 -2.46109e-05 -1.21782e-06)
(-4.53986e-06 0.000709742 -2.66225e-06)
(3.09207e-08 5.80953e-07 0.000715005)
(-2.8118e-08 -5.87313e-07 -0.000714537)
(0.000631649 -2.68929e-05 -1.09447e-06)
(-4.98948e-06 0.000708759 -3.43556e-06)
(-1.05762e-07 8.44208e-07 0.000714754)
(1.10024e-07 -8.47178e-07 -0.000714277)
(0.000632265 -2.91541e-05 -8.60444e-07)
(-5.12865e-06 0.000707108 -4.49409e-06)
(-3.10139e-07 1.24891e-06 0.000713854)
(3.16276e-07 -1.24594e-06 -0.000713349)
(0.000632601 -3.10413e-05 -6.6633e-07)
(-4.25684e-06 0.000704932 -6.01634e-06)
(-4.86117e-07 1.78845e-06 0.000712556)
(5.17687e-07 -1.78958e-06 -0.000711818)
(-9.57917e-06 0.00070204 -4.30685e-06)
(-9.86967e-07 2.72771e-06 0.000709473)
(1.93554e-06 -3.34258e-06 -0.000709209)
(0.000625329 -2.43758e-06 -1.72242e-07)
(-2.22552e-06 0.000716571 -5.586e-08)
(7.8779e-08 7.91594e-09 0.000715624)
(-8.09713e-08 -8.14953e-09 -0.000715443)
(0.00062564 -4.69037e-06 -3.33806e-07)
(-2.12335e-06 0.000715582 -1.66826e-07)
(7.67143e-08 2.35726e-08 0.000715083)
(-7.89253e-08 -2.42728e-08 -0.000714898)
(0.00062594 -6.73697e-06 -4.83761e-07)
(-2.05951e-06 0.00071447 -2.7908e-07)
(7.89973e-08 3.93287e-08 0.000714413)
(-8.1302e-08 -4.05202e-08 -0.000714223)
(0.000626238 -8.6251e-06 -6.29441e-07)
(-2.09222e-06 0.000713633 -3.9988e-07)
(8.75176e-08 5.63297e-08 0.000713989)
(-9.00419e-08 -5.80821e-08 -0.000713786)
(0.000626544 -1.03968e-05 -7.77158e-07)
(-2.20936e-06 0.000713032 -5.38132e-07)
(1.01201e-07 7.59968e-08 0.000713786)
(-1.04047e-07 -7.84014e-08 -0.000713562)
(0.000626867 -1.20965e-05 -9.28897e-07)
(-2.40407e-06 0.000712632 -7.02865e-07)
(1.19353e-07 9.99192e-08 0.000713775)
(-1.22499e-07 -1.03092e-07 -0.000713526)
(0.000627209 -1.37666e-05 -1.08618e-06)
(-2.67276e-06 0.000712402 -9.03951e-07)
(1.41169e-07 1.30145e-07 0.000713935)
(-1.4449e-07 -1.34242e-07 -0.000713655)
(0.000627574 -1.54492e-05 -1.24893e-06)
(-3.01325e-06 0.000712309 -1.15305e-06)
(1.65488e-07 1.69918e-07 0.000714232)
(-1.68774e-07 -1.75119e-07 -0.000713917)
(0.00062796 -1.71951e-05 -1.41071e-06)
(-3.42305e-06 0.000712308 -1.46433e-06)
(1.90442e-07 2.24934e-07 0.000714617)
(-1.93227e-07 -2.31396e-07 -0.000714269)
(0.000628362 -1.90655e-05 -1.55968e-06)
(-3.89725e-06 0.000712342 -1.85613e-06)
(2.12345e-07 3.05207e-07 0.000715022)
(-2.13929e-07 -3.12973e-07 -0.000714646)
(0.000628774 -2.11437e-05 -1.67586e-06)
(-4.42307e-06 0.000712329 -2.35439e-06)
(2.25554e-07 4.27837e-07 0.000715346)
(-2.24864e-07 -4.36615e-07 -0.000714954)
(0.000629189 -2.35363e-05 -1.72292e-06)
(-4.95923e-06 0.000712143 -2.99742e-06)
(2.24522e-07 6.21093e-07 0.000715437)
(-2.20262e-07 -6.29695e-07 -0.000715055)
(0.00062959 -2.63269e-05 -1.64551e-06)
(-5.39835e-06 0.000711556 -3.84547e-06)
(1.99839e-07 9.26165e-07 0.000715062)
(-1.91432e-07 -9.3223e-07 -0.000714729)
(0.000629939 -2.9444e-05 -1.38283e-06)
(-5.49001e-06 0.000710226 -5.00126e-06)
(1.41704e-07 1.38136e-06 0.000713935)
(-1.29272e-07 -1.38236e-06 -0.00071369)
(0.000630138 -3.23549e-05 -9.21821e-07)
(-4.47695e-06 0.000707847 -6.66282e-06)
(5.1646e-08 1.95574e-06 0.000711978)
(-3.12086e-08 -1.96e-06 -0.000711792)
(-9.83003e-06 0.000706602 -4.67926e-06)
(6.36718e-08 2.79027e-06 0.000708978)
(-2.1353e-08 -3.25941e-06 -0.000710536)
(0.000625242 -2.22648e-06 -2.03801e-07)
(-2.46509e-06 0.000718797 -6.17398e-08)
(9.22664e-08 7.23151e-09 0.000717921)
(-9.48605e-08 -7.4498e-09 -0.000717711)
(0.000625471 -4.28008e-06 -3.9469e-07)
(-2.34917e-06 0.000717636 -1.84231e-07)
(8.99055e-08 2.15236e-08 0.000717101)
(-9.25232e-08 -2.21832e-08 -0.000716893)
(0.000625687 -6.13725e-06 -5.72621e-07)
(-2.27339e-06 0.000716329 -3.07794e-07)
(9.26958e-08 3.58746e-08 0.000716132)
(-9.54472e-08 -3.69997e-08 -0.000715925)
(0.000625899 -7.84171e-06 -7.45919e-07)
(-2.30142e-06 0.00071534 -4.40234e-07)
(1.02918e-07 5.13239e-08 0.000715454)
(-1.05957e-07 -5.29643e-08 -0.00071524)
(0.000626112 -9.43424e-06 -9.20443e-07)
(-2.41862e-06 0.000714626 -5.90915e-07)
(1.19553e-07 6.91741e-08 0.00071503)
(-1.2301e-07 -7.14211e-08 -0.000714803)
(0.000626327 -1.09503e-05 -1.10133e-06)
(-2.61504e-06 0.000714151 -7.69248e-07)
(1.42169e-07 9.09339e-08 0.000714828)
(-1.46055e-07 -9.39267e-08 -0.000714581)
(0.000626542 -1.24228e-05 -1.29296e-06)
(-2.88388e-06 0.000713879 -9.85341e-07)
(1.7055e-07 1.18637e-07 0.000714815)
(-1.74768e-07 -1.22547e-07 -0.000714542)
(0.000626753 -1.38911e-05 -1.49644e-06)
(-3.21952e-06 0.000713782 -1.25072e-06)
(2.04962e-07 1.55416e-07 0.000714953)
(-2.09342e-07 -1.60474e-07 -0.000714652)
(0.00062695 -1.54076e-05 -1.70899e-06)
(-3.61567e-06 0.000713831 -1.57922e-06)
(2.46116e-07 2.06504e-07 0.000715196)
(-2.50172e-07 -2.13005e-07 -0.000714868)
(0.00062712 -1.70501e-05 -1.92249e-06)
(-4.06457e-06 0.000713992 -1.98885e-06)
(2.94695e-07 2.80705e-07 0.000715483)
(-2.9758e-07 -2.88903e-07 -0.000715137)
(0.000627253 -1.89343e-05 -2.12217e-06)
(-4.55611e-06 0.000714224 -2.50594e-06)
(3.51806e-07 3.92292e-07 0.000715738)
(-3.5206e-07 -4.02224e-07 -0.000715387)
(0.00062735 -2.12229e-05 -2.27495e-06)
(-5.06059e-06 0.000714443 -3.17178e-06)
(4.22672e-07 5.6375e-07 0.000715846)
(-4.17979e-07 -5.74893e-07 -0.000715519)
(0.000627438 -2.4108e-05 -2.32037e-06)
(-5.49759e-06 0.000714451 -4.05588e-06)
(5.09275e-07 8.29024e-07 0.000715606)
(-4.97775e-07 -8.39625e-07 -0.00071535)
(0.000627578 -2.77025e-05 -2.15081e-06)
(-5.64903e-06 0.000713827 -5.28078e-06)
(5.90058e-07 1.22347e-06 0.000714682)
(-5.71152e-07 -1.23007e-06 -0.000714572)
(0.00062779 -3.1525e-05 -1.5117e-06)
(-4.70311e-06 0.000711676 -7.06322e-06)
(5.69825e-07 1.73008e-06 0.000712483)
(-5.56265e-07 -1.73662e-06 -0.000712721)
(-1.00911e-05 0.000713086 -4.88469e-06)
(9.86046e-07 2.46712e-06 0.00071045)
(-1.67435e-06 -2.81845e-06 -0.000713998)
(0.000625148 -1.98129e-06 -2.3121e-07)
(-2.61018e-06 0.000720779 -6.5167e-08)
(1.04577e-07 6.60026e-09 0.000719983)
(-1.0754e-07 -6.79737e-09 -0.000719749)
(0.000625287 -3.80417e-06 -4.47288e-07)
(-2.48478e-06 0.00071946 -1.94303e-07)
(1.01894e-07 1.95952e-08 0.000718889)
(-1.04887e-07 -2.01869e-08 -0.000718663)
(0.000625416 -5.44452e-06 -6.49095e-07)
(-2.39932e-06 0.00071797 -3.2422e-07)
(1.05072e-07 3.25234e-08 0.000717627)
(-1.08232e-07 -3.35275e-08 -0.000717408)
(0.000625538 -6.93913e-06 -8.4453e-07)
(-2.42043e-06 0.000716836 -4.62857e-07)
(1.16757e-07 4.62903e-08 0.000716695)
(-1.20262e-07 -4.7756e-08 -0.000716477)
(0.000625654 -8.31696e-06 -1.04049e-06)
(-2.5307e-06 0.000716006 -6.19566e-07)
(1.35961e-07 6.20189e-08 0.000716047)
(-1.39987e-07 -6.40322e-08 -0.000715823)
(0.000625761 -9.60063e-06 -1.24603e-06)
(-2.71688e-06 0.000715437 -8.03746e-07)
(1.62515e-07 8.09706e-08 0.000715641)
(-1.67103e-07 -8.36585e-08 -0.000715401)
(0.000625851 -1.08138e-05 -1.46682e-06)
(-2.96854e-06 0.000715095 -1.02504e-06)
(1.96732e-07 1.04787e-07 0.000715436)
(-2.0182e-07 -1.08322e-07 -0.000715175)
(0.000625913 -1.19852e-05 -1.70555e-06)
(-3.27607e-06 0.000714958 -1.29391e-06)
(2.3993e-07 1.35788e-07 0.000715392)
(-2.4542e-07 -1.40408e-07 -0.00071511)
(0.000625931 -1.31543e-05 -1.9633e-06)
(-3.62837e-06 0.000715006 -1.62278e-06)
(2.94655e-07 1.7742e-07 0.00071547)
(-3.00097e-07 -1.83444e-07 -0.000715168)
(0.000625883 -1.43804e-05 -2.23701e-06)
(-4.01261e-06 0.000715226 -2.02754e-06)
(3.64507e-07 2.34875e-07 0.000715621)
(-3.68976e-07 -2.42654e-07 -0.000715309)
(0.000625747 -1.57627e-05 -2.5206e-06)
(-4.41764e-06 0.000715616 -2.53202e-06)
(4.5475e-07 3.15713e-07 0.000715798)
(-4.56662e-07 -3.25655e-07 -0.000715489)
(0.00062551 -1.74495e-05 -2.7966e-06)
(-4.82688e-06 0.000716142 -3.17657e-06)
(5.76752e-07 4.30314e-07 0.000715921)
(-5.73342e-07 -4.4292e-07 -0.00071564)
(0.000625211 -1.96804e-05 -3.0261e-06)
(-5.21131e-06 0.000716698 -4.03799e-06)
(7.41514e-07 5.93922e-07 0.00071585)
(-7.29495e-07 -6.09112e-07 -0.000715639)
(0.00062502 -2.28094e-05 -3.10475e-06)
(-5.48207e-06 0.000716972 -5.27347e-06)
(9.26763e-07 8.29667e-07 0.000715334)
(-9.02972e-07 -8.4519e-07 -0.000715263)
(0.000625273 -2.6904e-05 -2.559e-06)
(-4.96911e-06 0.000715785 -7.1714e-06)
(9.88539e-07 1.16218e-06 0.000713484)
(-9.75365e-07 -1.17646e-06 -0.000713922)
(-1.14148e-05 0.000724318 -4.93552e-06)
(1.89926e-06 1.8468e-06 0.000715588)
(-3.17775e-06 -2.10834e-06 -0.00072138)
(0.00062505 -1.70707e-06 -2.53548e-07)
(1.15758e-07 5.97642e-09 0.000721781)
(-1.19054e-07 -6.152e-09 -0.000721527)
(-2.657e-06 0.000722486 -6.6119e-08)
(0.000625096 -3.27723e-06 -4.89883e-07)
(1.12698e-07 1.76939e-08 0.000720427)
(-1.16018e-07 -1.82129e-08 -0.000720188)
(-2.52757e-06 0.00072103 -1.96981e-07)
(0.000625137 -4.68366e-06 -7.10232e-07)
(1.16067e-07 2.91842e-08 0.000718885)
(-1.19582e-07 -3.00527e-08 -0.00071866)
(-2.43627e-06 0.000719377 -3.28252e-07)
(0.00062517 -5.94743e-06 -9.22466e-07)
(1.28867e-07 4.11627e-08 0.000717704)
(-1.32786e-07 -4.24264e-08 -0.000717487)
(-2.4496e-06 0.000718101 -4.67763e-07)
(0.000625192 -7.083e-06 -1.13564e-06)
(1.50061e-07 5.45072e-08 0.000716827)
(-1.54582e-07 -5.62319e-08 -0.000716609)
(-2.54801e-06 0.000717144 -6.24604e-07)
(0.000625196 -8.10324e-06 -1.36002e-06)
(1.79608e-07 7.00527e-08 0.000716202)
(-1.84807e-07 -7.23318e-08 -0.000715974)
(-2.71559e-06 0.00071646 -8.07566e-07)
(0.000625171 -9.02073e-06 -1.6016e-06)
(2.18154e-07 8.87786e-08 0.000715784)
(-2.24019e-07 -9.17621e-08 -0.000715543)
(-2.9383e-06 0.000716016 -1.0252e-06)
(0.000625103 -9.84695e-06 -1.86513e-06)
(2.67496e-07 1.11886e-07 0.000715533)
(-2.73959e-07 -1.1575e-07 -0.000715277)
(-3.20147e-06 0.000715788 -1.28637e-06)
(0.000624969 -1.05955e-05 -2.15353e-06)
(3.30815e-07 1.40656e-07 0.000715408)
(-3.37472e-07 -1.45599e-07 -0.000715141)
(-3.48766e-06 0.00071576 -1.60101e-06)
(0.000624738 -1.12848e-05 -2.46846e-06)
(4.12576e-07 1.76244e-07 0.000715366)
(-4.18556e-07 -1.82579e-07 -0.000715097)
(-3.77558e-06 0.000715922 -1.98103e-06)
(0.000624364 -1.19394e-05 -2.81188e-06)
(5.18901e-07 2.19231e-07 0.000715363)
(-5.22757e-07 -2.27494e-07 -0.000715109)
(-4.04003e-06 0.000716279 -2.44314e-06)
(0.000623783 -1.25915e-05 -3.18205e-06)
(6.60376e-07 2.66978e-07 0.000715304)
(-6.59556e-07 -2.78155e-07 -0.000715096)
(-4.2462e-06 0.000716805 -3.0139e-06)
(0.000622897 -1.33105e-05 -3.57079e-06)
(8.46717e-07 3.0906e-07 0.000714995)
(-8.37605e-07 -3.24838e-07 -0.000714903)
(-4.33442e-06 0.000717432 -3.74078e-06)
(0.000621551 -1.42739e-05 -3.93031e-06)
(1.05615e-06 3.26907e-07 0.000713995)
(-1.03464e-06 -3.50191e-07 -0.000714195)
(-4.15803e-06 0.000717959 -4.71395e-06)
(0.000619582 -1.62198e-05 -3.8711e-06)
(1.16322e-06 3.28057e-07 0.000710977)
(-1.148e-06 -3.55634e-07 -0.000712137)
(-3.01494e-06 0.000717758 -6.07033e-06)
(2.93029e-06 9.02372e-07 0.000726646)
(-4.6566e-06 -1.08079e-06 -0.000735204)
(-1.75621e-05 0.000746371 -4.20813e-06)
(0.000625551 -2.89145e-06 -1.73066e-08)
(-5.50274e-07 0.000706017 -1.21472e-08)
(9.28621e-09 1.0447e-08 0.000704895)
(0.000626079 -5.57099e-06 -3.35212e-08)
(-5.2757e-07 0.000705807 -3.63292e-08)
(9.10842e-09 3.11384e-08 0.000705407)
(0.000626596 -8.01324e-06 -4.83313e-08)
(-5.1641e-07 0.000705571 -6.08547e-08)
(9.40649e-09 5.19566e-08 0.000705887)
(0.000627128 -1.02763e-05 -6.20223e-08)
(-5.31385e-07 0.000705393 -8.72285e-08)
(1.03815e-08 7.41932e-08 0.000706399)
(0.000627699 -1.24074e-05 -7.51897e-08)
(-5.70563e-07 0.000705263 -1.17321e-07)
(1.18847e-08 9.92003e-08 0.000706967)
(0.000628334 -1.44472e-05 -8.78314e-08)
(-6.3382e-07 0.000705173 -1.52981e-07)
(1.36442e-08 1.27863e-07 0.000707616)
(0.000629056 -1.64232e-05 -9.94204e-08)
(-7.21617e-07 0.000705111 -1.96188e-07)
(1.51981e-08 1.60251e-07 0.000708366)
(0.000629893 -1.83448e-05 -1.09241e-07)
(-8.35652e-07 0.000705058 -2.49058e-07)
(1.57611e-08 1.95054e-07 0.000709239)
(0.000630872 -2.02004e-05 -1.16087e-07)
(-9.78956e-07 0.000704993 -3.13616e-07)
(1.38454e-08 2.28458e-07 0.000710255)
(0.000632024 -2.1941e-05 -1.18062e-07)
(-1.1542e-06 0.000704876 -3.91723e-07)
(6.76325e-09 2.52054e-07 0.00071143)
(0.000633386 -2.34771e-05 -1.14138e-07)
(-1.3669e-06 0.000704665 -4.84567e-07)
(-1.03904e-08 2.49113e-07 0.000712785)
(0.000634996 -2.46691e-05 -1.05931e-07)
(-1.62308e-06 0.0007043 -5.90039e-07)
(-4.5315e-08 1.89115e-07 0.000714338)
(0.000636885 -2.53405e-05 -1.0365e-07)
(-1.92395e-06 0.000703726 -6.94861e-07)
(-1.08706e-07 2.14659e-08 0.000716119)
(0.000639034 -2.53774e-05 -1.33602e-07)
(-2.23634e-06 0.000702959 -7.54652e-07)
(-2.05128e-07 -3.21245e-07 0.000718178)
(0.000641143 -2.49554e-05 -2.21998e-07)
(-2.28825e-06 0.000702209 -6.81804e-07)
(-2.9163e-07 -8.65745e-07 0.000720484)
(-6.1604e-06 0.000701008 -4.56318e-07)
(-9.66192e-07 -2.2255e-06 0.000725348)
(0.000625529 -2.85124e-06 -5.19276e-08)
(-1.07762e-06 0.000708869 -2.38319e-08)
(2.74107e-08 9.94148e-09 0.00070777)
(0.000626036 -5.4955e-06 -1.00666e-07)
(-1.03258e-06 0.000708453 -7.11971e-08)
(2.67975e-08 2.95279e-08 0.000708046)
(0.000626531 -7.90631e-06 -1.45355e-07)
(-1.00967e-06 0.000707985 -1.19102e-07)
(2.76059e-08 4.90409e-08 0.000708262)
(0.000627039 -1.01406e-05 -1.86986e-07)
(-1.03753e-06 0.000707632 -1.70512e-07)
(3.04554e-08 6.97694e-08 0.000708567)
(0.000627584 -1.22497e-05 -2.27069e-07)
(-1.11261e-06 0.000707378 -2.29073e-07)
(3.48871e-08 9.30721e-08 0.000708974)
(0.000628186 -1.42745e-05 -2.65731e-07)
(-1.23365e-06 0.000707206 -2.98498e-07)
(4.0155e-08 1.1991e-07 0.000709496)
(0.000628868 -1.62415e-05 -3.01553e-07)
(-1.40135e-06 0.000707088 -3.82556e-07)
(4.51751e-08 1.50853e-07 0.000710139)
(0.000629653 -1.81656e-05 -3.32337e-07)
(-1.61894e-06 0.000706994 -4.85058e-07)
(4.79754e-08 1.85878e-07 0.000710903)
(0.000630565 -2.00438e-05 -3.54023e-07)
(-1.89006e-06 0.000706884 -6.09937e-07)
(4.46597e-08 2.23565e-07 0.000711786)
(0.000631625 -2.18497e-05 -3.60783e-07)
(-2.21836e-06 0.000706695 -7.60604e-07)
(2.82042e-08 2.59768e-07 0.000712765)
(0.000632854 -2.35173e-05 -3.49536e-07)
(-2.60722e-06 0.000706343 -9.38178e-07)
(-1.36096e-08 2.86095e-07 0.000713807)
(0.00063425 -2.493e-05 -3.21161e-07)
(-3.05251e-06 0.000705715 -1.1362e-06)
(-9.90072e-08 2.88719e-07 0.000714856)
(0.00063577 -2.59172e-05 -2.97668e-07)
(-3.52677e-06 0.000704697 -1.32601e-06)
(-2.507e-07 2.49622e-07 0.000715848)
(0.000637243 -2.62997e-05 -3.42573e-07)
(-3.90582e-06 0.00070329 -1.42191e-06)
(-4.70978e-07 1.5623e-07 0.000716778)
(0.000638242 -2.60664e-05 -5.20994e-07)
(-3.67425e-06 0.000701877 -1.27132e-06)
(-6.45636e-07 2.94828e-08 0.000717756)
(-5.56824e-06 0.000697818 -4.70346e-07)
(-1.62228e-06 3.41539e-07 0.000716733)
(0.000625486 -2.76847e-06 -8.62177e-08)
(-1.56045e-06 0.000711638 -3.45192e-08)
(4.43925e-08 9.15616e-09 0.000710572)
(0.00062595 -5.33548e-06 -1.66927e-07)
(-1.49402e-06 0.000711022 -1.03065e-07)
(4.32432e-08 2.71468e-08 0.000710591)
(0.000626402 -7.67407e-06 -2.4121e-07)
(-1.45862e-06 0.000710327 -1.72322e-07)
(4.44588e-08 4.50117e-08 0.000710524)
(0.000626864 -9.84382e-06 -3.11151e-07)
(-1.49621e-06 0.000709806 -2.46577e-07)
(4.90844e-08 6.40312e-08 0.000710602)
(0.000627356 -1.18983e-05 -3.79059e-07)
(-1.6009e-06 0.000709439 -3.31007e-07)
(5.63291e-08 8.55401e-08 0.000710829)
(0.000627896 -1.38743e-05 -4.45176e-07)
(-1.76922e-06 0.00070919 -4.30829e-07)
(6.52734e-08 1.10726e-07 0.000711201)
(0.0006285 -1.58023e-05 -5.07332e-07)
(-2.00169e-06 0.000709026 -5.51176e-07)
(7.47129e-08 1.40871e-07 0.000711704)
(0.000629187 -1.77098e-05 -5.61846e-07)
(-2.30172e-06 0.000708913 -6.97199e-07)
(8.22417e-08 1.77311e-07 0.000712329)
(0.000629971 -1.96098e-05 -6.0176e-07)
(-2.67233e-06 0.000708798 -8.74123e-07)
(8.31406e-08 2.2155e-07 0.000713045)
(0.000630866 -2.15081e-05 -6.17838e-07)
(-3.11603e-06 0.00070861 -1.08616e-06)
(6.88139e-08 2.75462e-07 0.000713805)
(0.000631873 -2.33816e-05 -6.02116e-07)
(-3.62755e-06 0.000708237 -1.33341e-06)
(2.54235e-08 3.42167e-07 0.000714528)
(0.000632967 -2.51673e-05 -5.47848e-07)
(-4.18122e-06 0.000707528 -1.60381e-06)
(-6.64792e-08 4.27794e-07 0.000715083)
(0.000634059 -2.67411e-05 -4.70714e-07)
(-4.70541e-06 0.000706315 -1.85328e-06)
(-2.27145e-07 5.4457e-07 0.000715313)
(0.000634952 -2.79002e-05 -4.3689e-07)
(-4.98873e-06 0.000704541 -1.96118e-06)
(-4.4674e-07 7.13244e-07 0.000715134)
(0.000635329 -2.84598e-05 -5.31258e-07)
(-4.39615e-06 0.000702644 -1.73044e-06)
(-5.91251e-07 9.44736e-07 0.000714803)
(-6.27724e-06 0.000698888 -6.29268e-07)
(-1.03148e-06 1.39967e-06 0.000712528)
(0.000625423 -2.64101e-06 -1.18897e-07)
(-1.97946e-06 0.00071428 -4.37583e-08)
(5.9843e-08 8.20934e-09 0.000713256)
(0.000625827 -5.08703e-06 -2.30075e-07)
(-1.89348e-06 0.00071347 -1.30652e-07)
(5.82055e-08 2.43843e-08 0.000713003)
(0.000626218 -7.31413e-06 -3.32651e-07)
(-1.84547e-06 0.000712557 -2.18373e-07)
(5.98587e-08 4.05597e-08 0.00071264)
(0.000626614 -9.38036e-06 -4.30326e-07)
(-1.8885e-06 0.000711876 -3.12224e-07)
(6.62186e-08 5.79111e-08 0.000712478)
(0.000627032 -1.13313e-05 -5.26497e-07)
(-2.01333e-06 0.000711395 -4.18659e-07)
(7.62862e-08 7.7771e-08 0.000712507)
(0.000627483 -1.32066e-05 -6.20975e-07)
(-2.21472e-06 0.000711072 -5.43905e-07)
(8.92907e-08 1.01574e-07 0.000712704)
(0.000627979 -1.50481e-05 -7.1109e-07)
(-2.49213e-06 0.000710876 -6.93994e-07)
(1.04203e-07 1.31057e-07 0.000713049)
(0.000628531 -1.68953e-05 -7.92124e-07)
(-2.84737e-06 0.000710772 -8.75012e-07)
(1.18988e-07 1.68605e-07 0.00071352)
(0.000629145 -1.87836e-05 -8.55232e-07)
(-3.28196e-06 0.000710701 -1.09279e-06)
(1.29928e-07 2.18138e-07 0.000714069)
(0.000629826 -2.07446e-05 -8.88347e-07)
(-3.79506e-06 0.000710591 -1.35171e-06)
(1.30108e-07 2.86536e-07 0.000714631)
(0.000630566 -2.28092e-05 -8.75287e-07)
(-4.37469e-06 0.00071033 -1.65082e-06)
(1.09165e-07 3.85666e-07 0.000715095)
(0.000631341 -2.49907e-05 -7.97779e-07)
(-4.97811e-06 0.000709755 -1.97348e-06)
(5.32668e-08 5.35047e-07 0.000715297)
(0.000632077 -2.72437e-05 -6.47209e-07)
(-5.49551e-06 0.000708651 -2.26322e-06)
(-5.1835e-08 7.6102e-07 0.000715013)
(0.000632642 -2.93829e-05 -4.59656e-07)
(-5.6656e-06 0.000706846 -2.37324e-06)
(-1.97701e-07 1.08338e-06 0.000714078)
(0.000632875 -3.1003e-05 -3.32704e-07)
(-4.81967e-06 0.000704584 -2.07588e-06)
(-2.96523e-07 1.46823e-06 0.000712774)
(-6.38493e-06 0.000701373 -7.94591e-07)
(-4.83759e-07 1.96689e-06 0.000709941)
(0.000625345 -2.46854e-06 -1.48914e-07)
(-2.31947e-06 0.000716749 -5.12166e-08)
(7.37439e-08 7.40498e-09 0.00071578)
(0.000625673 -4.75086e-06 -2.88761e-07)
(-2.21627e-06 0.000715753 -1.52892e-07)
(7.17424e-08 2.20356e-08 0.000715245)
(0.000625988 -6.82556e-06 -4.1818e-07)
(-2.15578e-06 0.000714634 -2.5536e-07)
(7.38862e-08 3.67345e-08 0.000714579)
(0.000626304 -8.74204e-06 -5.42553e-07)
(-2.19902e-06 0.000713797 -3.64663e-07)
(8.19339e-08 5.25801e-08 0.000714166)
(0.000626631 -1.05418e-05 -6.65747e-07)
(-2.33371e-06 0.0007132 -4.88081e-07)
(9.48748e-08 7.08997e-08 0.000713978)
(0.000626976 -1.22702e-05 -7.87081e-07)
(-2.55287e-06 0.000712807 -6.32433e-07)
(1.12158e-07 9.31698e-08 0.000713985)
(0.000627346 -1.39721e-05 -9.04773e-07)
(-2.85355e-06 0.000712587 -8.04289e-07)
(1.33173e-07 1.21309e-07 0.000714163)
(0.000627741 -1.56909e-05 -1.01428e-06)
(-3.23444e-06 0.000712502 -1.01013e-06)
(1.56937e-07 1.58306e-07 0.000714477)
(0.000628162 -1.74786e-05 -1.10593e-06)
(-3.69392e-06 0.000712505 -1.25594e-06)
(1.81861e-07 2.09292e-07 0.000714872)
(0.000628603 -1.93965e-05 -1.16488e-06)
(-4.22846e-06 0.000712531 -1.54604e-06)
(2.04729e-07 2.83195e-07 0.000715275)
(0.000629059 -2.15272e-05 -1.1681e-06)
(-4.82564e-06 0.000712494 -1.87905e-06)
(2.20891e-07 3.94746e-07 0.000715577)
(0.000629519 -2.39664e-05 -1.08186e-06)
(-5.43953e-06 0.000712249 -2.23614e-06)
(2.25063e-07 5.6711e-07 0.000715614)
(0.000629965 -2.67704e-05 -8.62038e-07)
(-5.94802e-06 0.000711551 -2.55369e-06)
(2.06717e-07 8.30067e-07 0.000715132)
(0.000630354 -2.98099e-05 -4.92849e-07)
(-6.06722e-06 0.000710067 -2.66899e-06)
(1.54659e-07 1.19983e-06 0.000713861)
(0.000630596 -3.24426e-05 -7.12123e-08)
(-5.08258e-06 0.000707548 -2.33256e-06)
(7.19549e-08 1.62441e-06 0.000711813)
(-6.25306e-06 0.000705011 -9.61235e-07)
(2.21253e-08 2.09753e-06 0.000708914)
(0.000625255 -2.25446e-06 -1.76224e-07)