/*--------------------------------*- C++ -*----------------------------------*\
| =========                 |                                                 |
| \\      /  F ield         | foam-extend: Open Source CFD                    |
|  \\    /   O peration     | Version:     3.1                                |
|   \\  /    A nd           | Web:         http://www.extend-project.de       |
|    \\/     M anipulation  |                                                 |
\*---------------------------------------------------------------------------*/
FoamFile
{
    version     2.0;
    format      ascii;
    class       volVectorField;
    location    "0.0005";
    object      cellMotionU;
}
// * * * * * * * * * * * * * * * * * * * * * * * * * * * * * * * * * * * * * //

dimensions      [0 1 -1 0 0 0 0];

internalField   nonuniform List<vector> 
16000
(
(-3.51839e-10 -3.72847e-10 -1.69356e-09)
(-1.07142e-09 -3.60592e-10 -1.70911e-09)
(-1.83314e-09 -3.48841e-10 -1.74526e-09)
(-2.68704e-09 -3.41395e-10 -1.81348e-09)
(-3.68084e-09 -3.38957e-10 -1.93308e-09)
(-4.85337e-09 -3.45799e-10 -2.13285e-09)
(-6.22488e-09 -3.66586e-10 -2.45434e-09)
(-7.77921e-09 -4.08204e-10 -2.95613e-09)
(-9.42583e-09 -4.80779e-10 -3.71712e-09)
(-1.09401e-08 -5.95583e-10 -4.84066e-09)
(-3.4165e-10 -1.12799e-09 -1.68888e-09)
(-1.05272e-09 -1.10653e-09 -1.70121e-09)
(-1.82002e-09 -1.07671e-09 -1.73148e-09)
(-2.68002e-09 -1.05456e-09 -1.79101e-09)
(-3.6805e-09 -1.04776e-09 -1.89874e-09)
(-4.86517e-09 -1.06518e-09 -2.0825e-09)
(-6.26218e-09 -1.12319e-09 -2.38095e-09)
(-7.87699e-09 -1.24449e-09 -2.84749e-09)
(-9.65696e-09 -1.45306e-09 -3.54886e-09)
(-1.14687e-08 -1.77752e-09 -4.55902e-09)
(-3.35461e-10 -1.91473e-09 -1.68611e-09)
(-1.03433e-09 -1.89655e-09 -1.69203e-09)
(-1.79858e-09 -1.86494e-09 -1.71003e-09)
(-2.66586e-09 -1.83024e-09 -1.75231e-09)
(-3.67349e-09 -1.8144e-09 -1.837e-09)
(-4.87125e-09 -1.83424e-09 -1.99039e-09)
(-6.30702e-09 -1.91461e-09 -2.24868e-09)
(-8.00693e-09 -2.09101e-09 -2.65713e-09)
(-9.96797e-09 -2.40332e-09 -3.26982e-09)
(-1.21567e-08 -2.89356e-09 -4.14298e-09)
(-3.32035e-10 -2.78341e-09 -1.69752e-09)
(-1.027e-09 -2.76838e-09 -1.69438e-09)
(-1.78489e-09 -2.74234e-09 -1.69443e-09)
(-2.64714e-09 -2.70545e-09 -1.71118e-09)
(-3.65726e-09 -2.67385e-09 -1.764e-09)
(-4.8596e-09 -2.67703e-09 -1.87777e-09)
(-6.31309e-09 -2.75094e-09 -2.08546e-09)
(-8.07518e-09 -2.93968e-09 -2.42969e-09)
(-1.01795e-08 -3.29745e-09 -2.95838e-09)
(-1.26517e-08 -3.88043e-09 -3.72513e-09)
(-3.34693e-10 -3.77573e-09 -1.74227e-09)
(-1.03524e-09 -3.76897e-09 -1.72732e-09)
(-1.79493e-09 -3.74891e-09 -1.70432e-09)
(-2.64592e-09 -3.71498e-09 -1.68877e-09)
(-3.63584e-09 -3.66917e-09 -1.70219e-09)
(-4.81965e-09 -3.63357e-09 -1.77116e-09)
(-6.25743e-09 -3.65931e-09 -1.92708e-09)
(-8.01718e-09 -3.80501e-09 -2.2101e-09)
(-1.01659e-08 -4.13224e-09 -2.67198e-09)
(-1.2755e-08 -4.70823e-09 -3.37281e-09)
(-3.47238e-10 -4.92385e-09 -1.84822e-09)
(-1.06961e-09 -4.93307e-09 -1.81792e-09)
(-1.84159e-09 -4.93238e-09 -1.76594e-09)
(-2.68641e-09 -4.90682e-09 -1.71172e-09)
(-3.64017e-09 -4.84798e-09 -1.68038e-09)
(-4.76577e-09 -4.7661e-09 -1.70095e-09)
(-6.13804e-09 -4.70023e-09 -1.80685e-09)
(-7.82038e-09 -4.72996e-09 -2.03759e-09)
(-9.88506e-09 -4.94138e-09 -2.44686e-09)
(-1.2405e-08 -5.39587e-09 -3.10763e-09)
(-3.74023e-10 -6.23906e-09 -2.05524e-09)
(-1.14579e-09 -6.28149e-09 -2.00372e-09)
(-1.95211e-09 -6.33238e-09 -1.91449e-09)
(-2.80121e-09 -6.33932e-09 -1.81345e-09)
(-3.71781e-09 -6.27387e-09 -1.73272e-09)
(-4.75109e-09 -6.13565e-09 -1.70357e-09)
(-5.98527e-09 -5.95556e-09 -1.7606e-09)
(-7.5116e-09 -5.80102e-09 -1.94603e-09)
(-9.37265e-09 -5.79724e-09 -2.31158e-09)
(-1.16381e-08 -6.01474e-09 -2.93742e-09)
(-4.21413e-10 -7.69226e-09 -2.41923e-09)
(-1.28515e-09 -7.80925e-09 -2.33611e-09)
(-2.15984e-09 -7.96805e-09 -2.19486e-09)
(-3.03471e-09 -8.06189e-09 -2.03658e-09)
(-3.91969e-09 -8.01625e-09 -1.90174e-09)
(-4.85217e-09 -7.8119e-09 -1.82463e-09)
(-5.89997e-09 -7.48636e-09 -1.83645e-09)
(-7.16989e-09 -7.1071e-09 -1.97881e-09)
(-8.71592e-09 -6.79081e-09 -2.29967e-09)
(-1.05808e-08 -6.6737e-09 -2.88337e-09)
(-4.98766e-10 -9.17378e-09 -3.01537e-09)
(-1.50949e-09 -9.45049e-09 -2.87971e-09)
(-2.50184e-09 -9.82941e-09 -2.66097e-09)
(-3.43863e-09 -1.01054e-08 -2.43053e-09)
(-4.30951e-09 -1.01385e-08 -2.2405e-09)
(-5.13796e-09 -9.88165e-09 -2.12212e-09)
(-5.98451e-09 -9.36732e-09 -2.09831e-09)
(-6.9372e-09 -8.69717e-09 -2.199e-09)
(-8.07721e-09 -8.00589e-09 -2.46771e-09)
(-9.44835e-09 -7.48992e-09 -2.9897e-09)
(-6.16085e-10 -1.04287e-08 -3.9411e-09)
(-1.84407e-09 -1.10563e-08 -3.70675e-09)
(-3.01606e-09 -1.18784e-08 -3.36987e-09)
(-4.06583e-09 -1.24937e-08 -3.05126e-09)
(-4.9535e-09 -1.26883e-08 -2.81214e-09)
(-5.68311e-09 -1.24025e-08 -2.67028e-09)
(-6.30971e-09 -1.16752e-08 -2.62804e-09)
(-6.93062e-09 -1.06273e-08 -2.69764e-09)
(-7.65578e-09 -9.46584e-09 -2.90914e-09)
(-8.53202e-09 -8.48308e-09 -3.31465e-09)
(-9.21631e-10 -9.94738e-10 -5.03123e-09)
(-2.80923e-09 -9.59889e-10 -5.06372e-09)
(-4.81518e-09 -9.2453e-10 -5.14026e-09)
(-7.07772e-09 -8.99222e-10 -5.28673e-09)
(-9.73287e-09 -8.86486e-10 -5.54659e-09)
(-1.29009e-08 -8.98628e-10 -5.98461e-09)
(-1.66667e-08 -9.49595e-10 -6.69554e-09)
(-2.10438e-08 -1.06007e-09 -7.81678e-09)
(-2.58913e-08 -1.26069e-09 -9.54508e-09)
(-3.07857e-08 -1.5878e-09 -1.21692e-08)
(-8.93763e-10 -3.01048e-09 -5.00757e-09)
(-2.75638e-09 -2.94665e-09 -5.03077e-09)
(-4.7739e-09 -2.85463e-09 -5.09021e-09)
(-7.04869e-09 -2.77855e-09 -5.21129e-09)
(-9.7167e-09 -2.74068e-09 -5.43609e-09)
(-1.29107e-08 -2.76762e-09 -5.82634e-09)
(-1.67352e-08 -2.90738e-09 -6.46744e-09)
(-2.12577e-08 -3.22728e-09 -7.47868e-09)
(-2.64287e-08 -3.80244e-09 -9.01458e-09)
(-3.20395e-08 -4.72667e-09 -1.12559e-08)
(-8.75307e-10 -5.11451e-09 -4.97598e-09)
(-2.70102e-09 -5.05482e-09 -4.98073e-09)
(-4.70434e-09 -4.94887e-09 -5.00451e-09)
(-6.9906e-09 -4.82626e-09 -5.07519e-09)
(-9.66777e-09 -4.74864e-09 -5.23228e-09)
(-1.28837e-08 -4.76553e-09 -5.53208e-09)
(-1.6794e-08 -4.95033e-09 -6.05056e-09)
(-2.15161e-08 -5.40902e-09 -6.88071e-09)
(-2.7121e-08 -6.26577e-09 -8.1305e-09)
(-3.36445e-08 -7.66031e-09 -9.90362e-09)
(-8.63415e-10 -7.44607e-09 -4.96473e-09)
(-2.67219e-09 -7.38973e-09 -4.94305e-09)
(-4.65019e-09 -7.28864e-09 -4.91457e-09)
(-6.9118e-09 -7.14528e-09 -4.9104e-09)
(-9.58104e-09 -7.00676e-09 -4.97314e-09)
(-1.27907e-08 -6.95835e-09 -5.15435e-09)
(-1.67237e-08 -7.10563e-09 -5.51867e-09)
(-2.15778e-08 -7.58166e-09 -6.14629e-09)
(-2.75144e-08 -8.55498e-09 -7.11983e-09)
(-3.47143e-08 -1.02119e-08 -8.51748e-09)
(-8.67322e-10 -1.01257e-08 -5.01707e-09)
(-2.68353e-09 -1.00857e-08 -4.96036e-09)
(-4.65623e-09 -9.98889e-09 -4.86405e-09)
(-6.87405e-09 -9.83626e-09 -4.76441e-09)
(-9.47109e-09 -9.63761e-09 -4.70973e-09)
(-1.26082e-08 -9.45988e-09 -4.75534e-09)
(-1.64702e-08 -9.45184e-09 -4.95953e-09)
(-2.12804e-08 -9.78911e-09 -5.39185e-09)
(-2.72875e-08 -1.0666e-08 -6.13803e-09)
(-3.47363e-08 -1.23063e-08 -7.28568e-09)
(-8.97928e-10 -1.32568e-08 -5.19569e-09)
(-2.76545e-09 -1.32526e-08 -5.09273e-09)
(-4.76071e-09 -1.31933e-08 -4.9093e-09)
(-6.94708e-09 -1.30421e-08 -4.69317e-09)
(-9.42704e-09 -1.27824e-08 -4.50288e-09)
(-1.23819e-08 -1.24504e-08 -4.39932e-09)
(-1.60368e-08 -1.21646e-08 -4.44553e-09)
(-2.06021e-08 -1.21614e-08 -4.70736e-09)
(-2.63383e-08 -1.27056e-08 -5.26889e-09)
(-3.35499e-08 -1.40143e-08 -6.25034e-09)
(-9.68118e-10 -1.69021e-08 -5.59128e-09)
(-2.96348e-09 -1.69769e-08 -5.42293e-09)
(-5.04238e-09 -1.70367e-08 -5.12382e-09)
(-7.22629e-09 -1.69455e-08 -4.76256e-09)
(-9.58629e-09 -1.66357e-08 -4.41748e-09)
(-1.2267e-08 -1.61174e-08 -4.15695e-09)
(-1.55187e-08 -1.54892e-08 -4.04532e-09)
(-1.96295e-08 -1.49573e-08 -4.15417e-09)
(-2.47787e-08 -1.48989e-08 -4.56322e-09)
(-3.12639e-08 -1.55649e-08 -5.40882e-09)
(-1.09691e-09 -2.10441e-08 -6.33526e-09)
(-3.34058e-09 -2.13017e-08 -6.06565e-09)
(-5.6002e-09 -2.16206e-08 -5.59984e-09)
(-7.84412e-09 -2.17248e-08 -5.05268e-09)
(-1.01027e-08 -2.14265e-08 -4.52943e-09)
(-1.24894e-08 -2.06885e-08 -4.10783e-09)
(-1.52118e-08 -1.96305e-08 -3.84551e-09)
(-1.86016e-08 -1.84612e-08 -3.80894e-09)
(-2.28722e-08 -1.75399e-08 -4.08054e-09)
(-2.82474e-08 -1.73066e-08 -4.7931e-09)
(-1.31256e-09 -2.54966e-08 -7.61694e-09)
(-3.96498e-09 -2.61475e-08 -7.17149e-09)
(-6.54913e-09 -2.70022e-08 -6.44568e-09)
(-8.96046e-09 -2.75368e-08 -5.64966e-09)
(-1.11742e-08 -2.73949e-08 -4.92613e-09)
(-1.32671e-08 -2.64657e-08 -4.3474e-09)
(-1.54302e-08 -2.48566e-08 -3.95208e-09)
(-1.79469e-08 -2.28723e-08 -3.78479e-09)
(-2.11055e-08 -2.09241e-08 -3.922e-09)
(-2.51292e-08 -1.96238e-08 -4.48904e-09)
(-1.64769e-09 -2.97654e-08 -9.71509e-09)
(-4.92054e-09 -3.12745e-08 -8.92039e-09)
(-8.01635e-09 -3.32129e-08 -7.76865e-09)
(-1.07505e-08 -3.45627e-08 -6.6374e-09)
(-1.30193e-08 -3.47765e-08 -5.70103e-09)
(-1.485e-08 -3.37095e-08 -4.99365e-09)
(-1.64229e-08 -3.14823e-08 -4.50008e-09)
(-1.80512e-08 -2.84494e-08 -4.22978e-09)
(-2.00975e-08 -2.52143e-08 -4.23816e-09)
(-2.27628e-08 -2.2636e-08 -4.61791e-09)
(-1.14394e-09 -1.29786e-09 -8.34019e-09)
(-3.49336e-09 -1.24567e-09 -8.36625e-09)
(-6.00967e-09 -1.18702e-09 -8.42859e-09)
(-8.88024e-09 -1.13679e-09 -8.54993e-09)
(-1.2296e-08 -1.09988e-09 -8.76794e-09)
(-1.64394e-08 -1.09443e-09 -9.13785e-09)
(-2.14691e-08 -1.14193e-09 -9.74076e-09)
(-2.74881e-08 -1.27412e-09 -1.06981e-08)
(-3.4463e-08 -1.53746e-09 -1.21963e-08)
(-4.21022e-08 -1.98972e-09 -1.45441e-08)
(-1.10582e-09 -3.92917e-09 -8.28622e-09)
(-3.41654e-09 -3.82552e-09 -8.29868e-09)
(-5.93845e-09 -3.66677e-09 -8.33583e-09)
(-8.81354e-09 -3.51393e-09 -8.41953e-09)
(-1.22322e-08 -3.40048e-09 -8.58515e-09)
(-1.63923e-08 -3.36772e-09 -8.88331e-09)
(-2.14753e-08 -3.48776e-09 -9.38124e-09)
(-2.7648e-08 -3.86181e-09 -1.01715e-08)
(-3.49774e-08 -4.60857e-09 -1.13764e-08)
(-4.33982e-08 -5.8795e-09 -1.31376e-08)
(-1.07634e-09 -6.68075e-09 -8.19439e-09)
(-3.32669e-09 -6.56873e-09 -8.17994e-09)
(-5.81287e-09 -6.36395e-09 -8.16453e-09)
(-8.68001e-09 -6.10987e-09 -8.17363e-09)
(-1.20822e-08 -5.89422e-09 -8.23868e-09)
(-1.62355e-08 -5.79174e-09 -8.40137e-09)
(-2.13841e-08 -5.91314e-09 -8.71282e-09)
(-2.77508e-08 -6.41893e-09 -9.22687e-09)
(-3.55386e-08 -7.50357e-09 -9.99206e-09)
(-4.49567e-08 -9.39534e-09 -1.10189e-08)
(-1.05291e-09 -9.74177e-09 -8.09105e-09)
(-3.26237e-09 -9.61935e-09 -8.03752e-09)
(-5.69089e-09 -9.39111e-09 -7.94509e-09)
(-8.49255e-09 -9.06437e-09 -7.84314e-09)
(-1.18411e-08 -8.70924e-09 -7.76694e-09)
(-1.59321e-08 -8.45093e-09 -7.75092e-09)
(-2.10414e-08 -8.44641e-09 -7.82771e-09)
(-2.74906e-08 -8.8988e-09 -8.02715e-09)
(-3.55865e-08 -1.00709e-08 -8.35536e-09)
(-4.57038e-08 -1.22644e-08 -8.76947e-09)
(-1.04829e-09 -1.32836e-08 -8.01393e-09)
(-3.24443e-09 -1.31666e-08 -7.9079e-09)
(-5.63463e-09 -1.29103e-08 -7.71466e-09)
(-8.33633e-09 -1.25199e-08 -7.4702e-09)
(-1.15335e-08 -1.20162e-08 -7.21735e-09)
(-1.54574e-08 -1.15021e-08 -6.9945e-09)
(-2.03841e-08 -1.11951e-08 -6.82288e-09)
(-2.66631e-08 -1.13588e-08 -6.71308e-09)
(-3.47112e-08 -1.22991e-08 -6.6656e-09)
(-4.49778e-08 -1.43762e-08 -6.64128e-09)
(-1.07817e-09 -1.74676e-08 -8.01583e-09)
(-3.31726e-09 -1.73794e-08 -7.83989e-09)
(-5.70202e-09 -1.71337e-08 -7.51536e-09)
(-8.3118e-09 -1.66849e-08 -7.09457e-09)
(-1.12868e-08 -1.602e-08 -6.63492e-09)
(-1.48816e-08 -1.52003e-08 -6.1803e-09)
(-1.94263e-08 -1.44067e-08 -5.75788e-09)
(-2.52526e-08 -1.39893e-08 -5.3706e-09)
(-3.27844e-08 -1.4348e-08 -5.00494e-09)
(-4.25547e-08 -1.58474e-08 -4.66252e-09)
(-1.16198e-09 -2.24252e-08 -8.17305e-09)
(-3.54745e-09 -2.24174e-08 -7.89757e-09)
(-6.00704e-09 -2.22804e-08 -7.3949e-09)
(-8.55883e-09 -2.18371e-08 -6.75034e-09)
(-1.12975e-08 -2.10084e-08 -6.04816e-09)
(-1.44288e-08 -1.98249e-08 -5.34505e-09)
(-1.83138e-08 -1.84399e-08 -4.66634e-09)
(-2.33898e-08 -1.7166e-08 -4.02005e-09)
(-2.99733e-08 -1.65621e-08 -3.38835e-09)
(-3.85859e-08 -1.70434e-08 -2.78659e-09)
(-1.32829e-09 -2.82229e-08 -8.60007e-09)
(-4.0278e-09 -2.842e-08 -8.16804e-09)
(-6.69686e-09 -2.85563e-08 -7.40629e-09)
(-9.27507e-09 -2.82753e-08 -6.46673e-09)
(-1.17976e-08 -2.73415e-08 -5.47592e-09)
(-1.44279e-08 -2.57261e-08 -4.50485e-09)
(-1.74748e-08 -2.36173e-08 -3.575e-09)
(-2.14321e-08 -2.13282e-08 -2.68022e-09)
(-2.66792e-08 -1.94129e-08 -1.83141e-09)
(-3.36223e-08 -1.85335e-08 -1.00513e-09)
(-1.61925e-09 -3.47763e-08 -9.4762e-09)
(-4.86442e-09 -3.54251e-08 -8.77005e-09)
(-7.94836e-09 -3.6155e-08 -7.59858e-09)
(-1.07051e-08 -3.6305e-08 -6.25279e-09)
(-1.30901e-08 -3.54242e-08 -4.91691e-09)
(-1.52162e-08 -3.33871e-08 -3.66075e-09)
(-1.73763e-08 -3.03685e-08 -2.48819e-09)
(-2.0017e-08 -2.68258e-08 -1.38357e-09)
(-2.36303e-08 -2.33928e-08 -3.60748e-10)
(-2.86069e-08 -2.09587e-08 6.38052e-10)
(-2.08621e-09 -4.17157e-08 -1.11031e-08)
(-6.19113e-09 -4.33449e-08 -9.8479e-09)
(-9.96655e-09 -4.52984e-08 -7.98752e-09)
(-1.31282e-08 -4.63111e-08 -6.07042e-09)
(-1.55205e-08 -4.56923e-08 -4.33414e-09)
(-1.719e-08 -4.32685e-08 -2.79986e-09)
(-1.84227e-08 -3.92269e-08 -1.40816e-09)
(-1.9729e-08 -3.41008e-08 -1.223e-10)
(-2.17256e-08 -2.87991e-08 1.03975e-09)
(-2.48087e-08 -2.45936e-08 2.05681e-09)
(-9.26657e-10 -1.20565e-09 -1.17516e-08)
(-2.84161e-09 -1.14424e-09 -1.17711e-08)
(-4.92654e-09 -1.06558e-09 -1.18135e-08)
(-7.35581e-09 -9.85343e-10 -1.18867e-08)
(-1.03089e-08 -9.10677e-10 -1.20039e-08)
(-1.39623e-08 -8.61498e-10 -1.21826e-08)
(-1.84785e-08 -8.62539e-10 -1.24475e-08)
(-2.39836e-08 -9.49446e-10 -1.28384e-08)
(-3.05057e-08 -1.17235e-09 -1.34277e-08)
(-3.78881e-08 -1.59412e-09 -1.43689e-08)
(-8.89684e-10 -3.64907e-09 -1.16836e-08)
(-2.75992e-09 -3.51378e-09 -1.16886e-08)
(-4.83401e-09 -3.29203e-09 -1.17042e-08)
(-7.24832e-09 -3.04606e-09 -1.17376e-08)
(-1.0182e-08 -2.81371e-09 -1.17997e-08)
(-1.3826e-08 -2.6432e-09 -1.19037e-08)
(-1.83635e-08 -2.61483e-09 -1.20616e-08)
(-2.39763e-08 -2.83931e-09 -1.22858e-08)
(-3.07749e-08 -3.45075e-09 -1.25917e-08)
(-3.87739e-08 -4.61676e-09 -1.2985e-08)
(-8.54438e-10 -6.20164e-09 -1.15574e-08)
(-2.65034e-09 -6.03306e-09 -1.15339e-08)
(-4.66328e-09 -5.71639e-09 -1.1494e-08)
(-7.03156e-09 -5.29943e-09 -1.1449e-08)
(-9.90396e-09 -4.87417e-09 -1.1406e-08)
(-1.34879e-08 -4.52423e-09 -1.13696e-08)
(-1.80246e-08 -4.37269e-09 -1.13359e-08)
(-2.37456e-08 -4.59671e-09 -1.1283e-08)
(-3.08756e-08 -5.41357e-09 -1.11588e-08)
(-3.96529e-08 -7.0791e-09 -1.08479e-08)
(-8.20421e-10 -9.03946e-09 -1.13855e-08)
(-2.54814e-09 -8.83512e-09 -1.13209e-08)
(-4.46675e-09 -8.44323e-09 -1.12002e-08)
(-6.71772e-09 -7.87477e-09 -1.10389e-08)
(-9.46658e-09 -7.20581e-09 -1.08484e-08)
(-1.29053e-08 -6.57107e-09 -1.06267e-08)
(-1.73038e-08 -6.14058e-09 -1.03521e-08)
(-2.29843e-08 -6.13908e-09 -9.97889e-09)
(-3.02639e-08 -6.85832e-09 -9.41669e-09)
(-3.95208e-08 -8.63294e-09 -8.49891e-09)
(-8.00134e-10 -1.23232e-08 -1.11816e-08)
(-2.47667e-09 -1.20979e-08 -1.10619e-08)
(-4.30496e-09 -1.16239e-08 -1.08364e-08)
(-6.38766e-09 -1.09063e-08 -1.05269e-08)
(-8.89521e-09 -9.97018e-09 -1.01529e-08)
(-1.20524e-08 -8.92912e-09 -9.71659e-09)
(-1.61314e-08 -8.01239e-09 -9.18517e-09)
(-2.14797e-08 -7.5039e-09 -8.49405e-09)
(-2.85184e-08 -7.74393e-09 -7.54516e-09)
(-3.76951e-08 -9.12747e-09 -6.17558e-09)
(-8.09969e-10 -1.62072e-08 -1.09614e-08)
(-2.48303e-09 -1.59839e-08 -1.07693e-08)
(-4.24175e-09 -1.54633e-08 -1.04085e-08)
(-6.14395e-09 -1.45941e-08 -9.9169e-09)
(-8.31572e-09 -1.33652e-08 -9.32903e-09)
(-1.09979e-08 -1.18429e-08 -8.65213e-09)
(-1.45167e-08 -1.02239e-08 -7.86066e-09)
(-1.9208e-08 -8.87888e-09 -6.88315e-09)
(-2.54903e-08 -8.22741e-09 -5.60224e-09)
(-3.39035e-08 -8.68119e-09 -3.89517e-09)
(-8.71254e-10 -2.08246e-08 -1.07449e-08)
(-2.63752e-09 -2.06529e-08 -1.04523e-08)
(-4.39546e-09 -2.01768e-08 -9.90943e-09)
(-6.13307e-09 -1.92096e-08 -9.18912e-09)
(-7.92548e-09 -1.76677e-08 -8.35119e-09)
(-9.96774e-09 -1.55875e-08 -7.41818e-09)
(-1.26104e-08 -1.31311e-08 -6.36211e-09)
(-1.62933e-08 -1.06337e-08 -5.11664e-09)
(-2.13433e-08 -8.67554e-09 -3.56383e-09)
(-2.82866e-08 -7.71002e-09 -1.59055e-09)
(-1.01462e-09 -2.62619e-08 -1.05652e-08)
(-3.0372e-09 -2.62585e-08 -1.01177e-08)
(-4.92179e-09 -2.59797e-08 -9.31687e-09)
(-6.56462e-09 -2.50533e-08 -8.2975e-09)
(-7.97201e-09 -2.32358e-08 -7.16341e-09)
(-9.29571e-09 -2.05024e-08 -5.95333e-09)
(-1.08467e-08 -1.70573e-08 -4.64162e-09)
(-1.31134e-08 -1.32249e-08 -3.14535e-09)
(-1.65278e-08 -9.62316e-09 -1.39532e-09)
(-2.14673e-08 -6.89838e-09 7.83585e-10)
(-1.28332e-09 -3.24932e-08 -1.04874e-08)
(-3.79627e-09 -3.28845e-08 -9.77769e-09)
(-6.00939e-09 -3.30914e-08 -8.57919e-09)
(-7.69859e-09 -3.24401e-08 -7.15385e-09)
(-8.77716e-09 -3.04708e-08 -5.66366e-09)
(-9.34131e-09 -2.70613e-08 -4.15429e-09)
(-9.69804e-09 -2.24113e-08 -2.5936e-09)
(-1.03358e-08 -1.70226e-08 -9.06775e-10)
(-1.18292e-08 -1.16156e-08 9.63787e-10)
(-1.45164e-08 -7.02413e-09 3.24461e-09)
(-1.7303e-09 -3.92787e-08 -1.06573e-08)
(-5.05476e-09 -4.05344e-08 -9.44053e-09)
(-7.87689e-09 -4.17808e-08 -7.58566e-09)
(-9.83112e-09 -4.1765e-08 -5.59439e-09)
(-1.07042e-08 -3.97944e-08 -3.68755e-09)
(-1.05198e-08 -3.56998e-08 -1.87645e-09)
(-9.59026e-09 -2.96986e-08 -8.40361e-11)
(-8.5213e-09 -2.24053e-08 1.76165e-09)
(-8.09164e-09 -1.48708e-08 3.69263e-09)
(-8.83411e-09 -8.48231e-09 5.7723e-09)
(-3.35425e-10 -7.96313e-10 -1.53377e-08)
(-1.05354e-09 -7.35245e-10 -1.53817e-08)
(-1.90519e-09 -6.44971e-10 -1.54661e-08)
(-2.99474e-09 -5.38659e-10 -1.55862e-08)
(-4.42353e-09 -4.2497e-10 -1.57354e-08)
(-6.28267e-09 -3.21733e-10 -1.59026e-08)
(-8.64069e-09 -2.52423e-10 -1.60702e-08)
(-1.15215e-08 -2.49472e-10 -1.62152e-08)
(-1.48596e-08 -3.5505e-10 -1.63156e-08)
(-1.84436e-08 -6.21225e-10 -1.63754e-08)
(-3.13277e-10 -2.40629e-09 -1.53031e-08)
(-9.95526e-10 -2.25557e-09 -1.53353e-08)
(-1.8199e-09 -1.99217e-09 -1.53985e-08)
(-2.87558e-09 -1.66549e-09 -1.54875e-08)
(-4.26604e-09 -1.31058e-09 -1.55948e-08)
(-6.09526e-09 -9.74179e-10 -1.57072e-08)
(-8.45205e-09 -7.29164e-10 -1.57999e-08)
(-1.14048e-08 -6.72465e-10 -1.58343e-08)
(-1.49581e-08 -9.25011e-10 -1.57593e-08)
(-1.90337e-08 -1.62954e-09 -1.55036e-08)
(-2.84285e-10 -4.0756e-09 -1.5237e-08)
(-9.02151e-10 -3.86431e-09 -1.52463e-08)
(-1.65469e-09 -3.45883e-09 -1.5266e-08)
(-2.63165e-09 -2.90112e-09 -1.5295e-08)
(-3.92695e-09 -2.26674e-09 -1.53236e-08)
(-5.66135e-09 -1.63178e-09 -1.53339e-08)
(-7.97004e-09 -1.10737e-09 -1.52926e-08)
(-1.09735e-08 -8.50988e-10 -1.51432e-08)
(-1.47728e-08 -1.0562e-09 -1.47986e-08)
(-1.94592e-08 -1.94617e-09 -1.4126e-08)
(-2.51089e-10 -5.90958e-09 -1.51387e-08)
(-7.93325e-10 -5.63787e-09 -1.51163e-08)
(-1.43722e-09 -5.10616e-09 -1.50743e-08)
(-2.26739e-09 -4.3251e-09 -1.5016e-08)
(-3.38879e-09 -3.35829e-09 -1.49363e-08)
(-4.9258e-09 -2.32029e-09 -1.48139e-08)
(-7.04392e-09 -1.35848e-09 -1.46062e-08)
(-9.93918e-09 -6.7343e-10 -1.42445e-08)
(-1.37987e-08 -5.23981e-10 -1.36235e-08)
(-1.8829e-08 -1.19951e-09 -1.25861e-08)
(-2.22336e-10 -7.99456e-09 -1.50038e-08)
(-6.89587e-10 -7.67724e-09 -1.49404e-08)
(-1.20814e-09 -7.01972e-09 -1.48214e-08)
(-1.83193e-09 -6.01789e-09 -1.4655e-08)
(-2.66413e-09 -4.68992e-09 -1.44438e-08)
(-3.85439e-09 -3.13258e-09 -1.41718e-08)
(-5.5846e-09 -1.53543e-09 -1.3791e-08)
(-8.08269e-09 -1.42482e-10 -1.32235e-08)
(-1.16249e-08 7.4199e-10 -1.2363e-08)
(-1.64875e-08 7.79435e-10 -1.10599e-08)
(-2.1122e-10 -1.03988e-08 -1.48201e-08)
(-6.2969e-10 -1.00619e-08 -1.47057e-08)
(-1.02325e-09 -9.31687e-09 -1.44916e-08)
(-1.40254e-09 -8.10021e-09 -1.41984e-08)
(-1.83904e-09 -6.38991e-09 -1.384e-08)
(-2.48749e-09 -4.23353e-09 -1.34067e-08)
(-3.57609e-09 -1.79912e-09 -1.28586e-08)
(-5.34691e-09 6.01339e-10 -1.21167e-08)
(-8.07568e-09 2.62234e-09 -1.10649e-08)
(-1.21313e-08 3.89223e-09 -9.58379e-09)
(-2.36389e-10 -1.31557e-08 -1.4567e-08)
(-6.71228e-10 -1.28524e-08 -1.43862e-08)
(-9.7671e-10 -1.21085e-08 -1.40516e-08)
(-1.09751e-09 -1.07353e-08 -1.36075e-08)
(-1.05962e-09 -8.63045e-09 -1.30862e-08)
(-9.9136e-10 -5.81173e-09 -1.24908e-08)
(-1.13394e-09 -2.40941e-09 -1.17844e-08)
(-1.81032e-09 1.28778e-09 -1.08955e-08)
(-3.26494e-09 4.80407e-09 -9.7116e-09)
(-5.86307e-09 7.74336e-09 -8.12464e-09)
(-3.23257e-10 -1.62385e-08 -1.42158e-08)
(-8.91832e-10 -1.6082e-08 -1.39403e-08)
(-1.19558e-09 -1.54942e-08 -1.34466e-08)
(-1.08915e-09 -1.4099e-08 -1.28167e-08)
(-5.3233e-10 -1.16434e-08 -1.21139e-08)
(3.79417e-10 -8.08463e-09 -1.13562e-08)
(1.41103e-09 -3.59593e-09 -1.05134e-08)
(2.21058e-09 1.55457e-09 -9.50793e-09)
(2.38687e-09 6.793e-09 -8.26579e-09)
(1.71999e-09 1.16454e-08 -6.64022e-09)
(-5.04448e-10 -1.95082e-08 -1.37369e-08)
(-1.38485e-09 -1.97184e-08 -1.33142e-08)
(-1.83289e-09 -1.95657e-08 -1.25931e-08)
(-1.58886e-09 -1.83701e-08 -1.17268e-08)
(-5.21026e-10 -1.56752e-08 -1.08182e-08)
(1.32487e-09 -1.13583e-08 -9.89918e-09)
(3.6975e-09 -5.60764e-09 -8.94414e-09)
(6.16918e-09 1.11438e-09 -7.88574e-09)
(8.19319e-09 8.11431e-09 -6.65936e-09)
(9.60097e-09 1.48194e-08 -5.08524e-09)
(-8.18555e-10 -2.26353e-08 -1.31231e-08)
(-2.25508e-09 -2.36625e-08 -1.24395e-08)
(-3.06014e-09 -2.44511e-08 -1.1367e-08)
(-2.83026e-09 -2.37714e-08 -1.01893e-08)
(-1.31182e-09 -2.0961e-08 -9.05425e-09)
(1.51507e-09 -1.58742e-08 -7.98932e-09)
(5.37698e-09 -8.74439e-09 -6.95508e-09)
(9.67642e-09 -1.9092e-10 -5.89242e-09)
(1.359e-08 8.7487e-09 -4.74653e-09)
(1.65164e-08 1.68184e-08 -3.43559e-09)
(4.45596e-10 -2.63694e-10 -1.88907e-08)
(1.30631e-09 -2.11164e-10 -1.89951e-08)
(2.07545e-09 -1.20935e-10 -1.91966e-08)
(2.73854e-09 -1.97808e-12 -1.94867e-08)
(3.29709e-09 1.36236e-10 -1.98566e-08)
(3.776e-09 2.79809e-10 -2.02931e-08)
(4.24181e-09 4.08779e-10 -2.07753e-08)
(4.83195e-09 4.97173e-10 -2.12713e-08)
(5.79198e-09 5.15278e-10 -2.17346e-08)
(7.52757e-09 4.27324e-10 -2.21028e-08)
(4.40151e-10 -7.92438e-10 -1.89384e-08)
(1.30841e-09 -6.46449e-10 -1.90352e-08)
(2.10896e-09 -3.76132e-10 -1.92238e-08)
(2.81095e-09 -1.13163e-11 -1.94966e-08)
(3.40872e-09 4.19605e-10 -1.98445e-08)
(3.91463e-09 8.75902e-10 -2.02543e-08)
(4.37089e-09 1.2993e-09 -2.07033e-08)
(4.87377e-09 1.61626e-09 -2.1158e-08)
(5.58914e-09 1.73144e-09 -2.15683e-08)
(6.76583e-09 1.54194e-09 -2.18672e-08)
(4.45701e-10 -1.32467e-09 -1.90323e-08)
(1.33332e-09 -1.10032e-09 -1.91149e-08)
(2.18395e-09 -6.6254e-10 -1.92791e-08)
(2.96685e-09 -4.12652e-11 -1.95197e-08)
(3.65547e-09 7.14148e-10 -1.98274e-08)
(4.24067e-09 1.54292e-09 -2.01887e-08)
(4.72678e-09 2.3565e-09 -2.05814e-08)
(5.14108e-09 3.0324e-09 -2.09676e-08)
(5.54503e-09 3.41965e-09 -2.12935e-08)
(6.0234e-09 3.35033e-09 -2.14916e-08)
(4.5637e-10 -1.87669e-09 -1.91676e-08)
(1.38339e-09 -1.5805e-09 -1.9233e-08)
(2.30874e-09 -9.91603e-10 -1.93643e-08)
(3.21403e-09 -1.16865e-10 -1.9561e-08)
(4.06701e-09 1.00237e-09 -1.98177e-08)
(4.82548e-09 2.28514e-09 -2.01204e-08)
(5.45278e-09 3.62042e-09 -2.04457e-08)
(5.90906e-09 4.84978e-09 -2.07573e-08)
(6.15732e-09 5.77137e-09 -2.10004e-08)
(6.16513e-09 6.16785e-09 -2.11095e-08)
(4.69237e-10 -2.43843e-09 -1.93375e-08)
(1.44386e-09 -2.08952e-09 -1.93834e-08)
(2.47171e-09 -1.36889e-09 -1.94783e-08)
(3.54932e-09 -2.57274e-10 -1.96257e-08)
(4.65079e-09 1.24128e-09 -1.98257e-08)
(5.7157e-09 3.0599e-09 -2.00693e-08)
(6.66568e-09 5.06687e-09 -2.03344e-08)
(7.40871e-09 7.07752e-09 -2.05846e-08)
(7.82943e-09 8.84843e-09 -2.0771e-08)
(7.81534e-09 1.01252e-08 -2.08343e-08)
(4.76117e-10 -2.96112e-09 -1.95292e-08)
(1.4897e-09 -2.59645e-09 -1.95544e-08)
(2.63159e-09 -1.79959e-09 -1.96112e-08)
(3.93276e-09 -4.88035e-10 -1.97096e-08)
(5.3776e-09 1.38081e-09 -1.98554e-08)
(6.90839e-09 3.78768e-09 -2.00473e-08)
(8.41034e-09 6.60894e-09 -2.02694e-08)
(9.73933e-09 9.61516e-09 -2.04877e-08)
(1.07592e-08 1.25539e-08 -2.06582e-08)
(1.12747e-08 1.51203e-08 -2.07327e-08)
(4.63076e-10 -3.33361e-09 -1.97199e-08)
(1.48303e-09 -3.02326e-09 -1.97241e-08)
(2.72987e-09 -2.25802e-09 -1.9744e-08)
(4.28729e-09 -8.39647e-10 -1.97964e-08)
(6.17063e-09 1.36666e-09 -1.98973e-08)
(8.32091e-09 4.37367e-09 -2.0052e-08)
(1.06182e-08 8.09143e-09 -2.02534e-08)
(1.28694e-08 1.2295e-08 -2.04758e-08)
(1.48917e-08 1.66381e-08 -2.06777e-08)
(1.64735e-08 2.07967e-08 -2.08214e-08)
(4.12812e-10 -3.3478e-09 -1.9873e-08)
(1.37441e-09 -3.22585e-09 -1.9858e-08)
(2.68265e-09 -2.68953e-09 -1.98439e-08)
(4.49643e-09 -1.33749e-09 -1.9857e-08)
(6.88487e-09 1.11059e-09 -1.99251e-08)
(9.80393e-09 4.7271e-09 -2.0065e-08)
(1.31015e-08 9.38109e-09 -2.02746e-08)
(1.65735e-08 1.48638e-08 -2.05367e-08)
(1.98814e-08 2.06865e-08 -2.08114e-08)
(2.29078e-08 2.65363e-08 -2.10709e-08)
(3.07083e-10 -2.64733e-09 -1.9933e-08)
(1.10167e-09 -2.97985e-09 -1.99055e-08)
(2.38914e-09 -3.01586e-09 -1.98661e-08)
(4.41992e-09 -2.00609e-09 -1.98504e-08)
(7.33932e-09 5.27649e-10 -1.99016e-08)
(1.11393e-08 4.71292e-09 -2.00516e-08)
(1.56341e-08 1.03778e-08 -2.03065e-08)
(2.04834e-08 1.71221e-08 -2.06448e-08)
(2.5211e-08 2.43308e-08 -2.10233e-08)
(2.97431e-08 3.16621e-08 -2.14192e-08)
(1.25457e-10 -6.4256e-10 -1.98197e-08)
(6.06495e-10 -1.9886e-09 -1.98024e-08)
(1.74263e-09 -3.1933e-09 -1.97595e-08)
(3.90889e-09 -2.90308e-09 -1.97317e-08)
(7.34977e-09 -4.52921e-10 -1.97855e-08)
(1.21057e-08 4.25861e-09 -1.99745e-08)
(1.79568e-08 1.09658e-08 -2.03153e-08)
(2.43772e-08 1.90825e-08 -2.0779e-08)
(3.06022e-08 2.76897e-08 -2.12968e-08)
(3.602e-08 3.57673e-08 -2.17975e-08)
(1.21045e-09 1.80592e-10 -2.1903e-08)
(3.60615e-09 2.21314e-10 -2.20739e-08)
(5.91767e-09 3.02689e-10 -2.24079e-08)
(8.19441e-09 4.19551e-10 -2.29007e-08)
(1.05093e-08 5.62064e-10 -2.35529e-08)
(1.29629e-08 7.19803e-10 -2.43681e-08)
(1.5705e-08 8.76148e-10 -2.53486e-08)
(1.89696e-08 1.01099e-09 -2.64926e-08)
(2.31113e-08 1.10499e-09 -2.77829e-08)
(2.86697e-08 1.13537e-09 -2.91723e-08)
(1.16941e-09 5.45857e-10 -2.20464e-08)
(3.52762e-09 6.73329e-10 -2.22127e-08)
(5.85752e-09 9.21621e-10 -2.25404e-08)
(8.16076e-09 1.27815e-09 -2.30259e-08)
(1.04975e-08 1.72055e-09 -2.36705e-08)
(1.29563e-08 2.21398e-09 -2.44776e-08)
(1.56585e-08 2.71317e-09 -2.54497e-08)
(1.87971e-08 3.16456e-09 -2.65895e-08)
(2.2633e-08 3.4957e-09 -2.78851e-08)
(2.75054e-08 3.63658e-09 -2.93103e-08)
(1.13564e-09 9.3053e-10 -2.23296e-08)
(3.43588e-09 1.14029e-09 -2.24884e-08)
(5.75986e-09 1.55479e-09 -2.28063e-08)
(8.11018e-09 2.156e-09 -2.32802e-08)
(1.04962e-08 2.91679e-09 -2.39118e-08)
(1.29794e-08 3.78951e-09 -2.47057e-08)
(1.56498e-08 4.7051e-09 -2.56689e-08)
(1.86159e-08 5.57134e-09 -2.68022e-08)
(2.20192e-08 6.27429e-09 -2.81016e-08)
(2.60189e-08 6.69298e-09 -2.95644e-08)
(1.10068e-09 1.37698e-09 -2.27497e-08)
(3.35576e-09 1.65459e-09 -2.29024e-08)
(5.66949e-09 2.21375e-09 -2.32091e-08)
(8.06221e-09 3.05154e-09 -2.36712e-08)
(1.05427e-08 4.14606e-09 -2.42919e-08)
(1.31115e-08 5.44411e-09 -2.50754e-08)
(1.58061e-08 6.86342e-09 -2.60308e-08)
(1.86736e-08 8.28098e-09 -2.71647e-08)
(2.17439e-08 9.54397e-09 -2.84753e-08)
(2.50473e-08 1.04947e-08 -2.99689e-08)
(1.0672e-09 1.95768e-09 -2.33085e-08)
(3.27824e-09 2.27679e-09 -2.34578e-08)
(5.60191e-09 2.93835e-09 -2.37574e-08)
(8.05685e-09 3.9738e-09 -2.42117e-08)
(1.06613e-08 5.39061e-09 -2.48267e-08)
(1.34045e-08 7.14666e-09 -2.56094e-08)
(1.62577e-08 9.15374e-09 -2.65715e-08)
(1.9195e-08 1.1272e-08 -2.77223e-08)
(2.21777e-08 1.33093e-08 -2.9065e-08)
(2.51485e-08 1.50791e-08 -3.06047e-08)
(1.03161e-09 2.79725e-09 -2.40087e-08)
(3.19119e-09 3.10718e-09 -2.41584e-08)
(5.52886e-09 3.79188e-09 -2.44587e-08)
(8.08649e-09 4.94861e-09 -2.49163e-08)
(1.0872e-08 6.63613e-09 -2.55376e-08)
(1.38815e-08 8.85448e-09 -2.63371e-08)
(1.70623e-08 1.15139e-08 -2.73274e-08)
(2.03038e-08 1.44449e-08 -2.8519e-08)
(2.35177e-08 1.74569e-08 -2.99282e-08)
(2.65865e-08 2.03044e-08 -3.1552e-08)
(9.84197e-10 4.10117e-09 -2.48497e-08)
(3.07431e-09 4.31064e-09 -2.5007e-08)
(5.42261e-09 4.88049e-09 -2.53241e-08)
(8.10853e-09 6.01953e-09 -2.58013e-08)
(1.11543e-08 7.88663e-09 -2.64499e-08)
(1.45319e-08 1.05153e-08 -2.72841e-08)
(1.81875e-08 1.38386e-08 -2.83271e-08)
(2.19947e-08 1.76771e-08 -2.9595e-08)
(2.57573e-08 2.17697e-08 -3.11008e-08)
(2.93248e-08 2.58446e-08 -3.28468e-08)
(9.14675e-10 6.1994e-09 -2.58223e-08)
(2.90156e-09 6.14263e-09 -2.60044e-08)
(5.23663e-09 6.34533e-09 -2.63599e-08)
(8.05431e-09 7.2381e-09 -2.68821e-08)
(1.14159e-08 9.12424e-09 -2.75805e-08)
(1.52919e-08 1.20929e-08 -2.84766e-08)
(1.95716e-08 1.60375e-08 -2.95943e-08)
(2.41299e-08 2.07787e-08 -3.0965e-08)
(2.86534e-08 2.59103e-08 -3.25679e-08)
(3.30061e-08 3.11899e-08 -3.44528e-08)
(8.16019e-10 9.60559e-09 -2.68948e-08)
(2.63654e-09 8.94931e-09 -2.71358e-08)
(4.91346e-09 8.34975e-09 -2.75722e-08)
(7.84397e-09 8.64274e-09 -2.81742e-08)
(1.15448e-08 1.03287e-08 -2.89506e-08)
(1.60097e-08 1.35267e-08 -2.99351e-08)
(2.10907e-08 1.80682e-08 -3.11565e-08)
(2.65123e-08 2.36023e-08 -3.26257e-08)
(3.18719e-08 2.96081e-08 -3.43062e-08)
(3.70533e-08 3.58316e-08 -3.62838e-08)
(6.80285e-10 1.51302e-08 -2.79894e-08)
(2.25509e-09 1.31529e-08 -2.83734e-08)
(4.39624e-09 1.10006e-08 -2.89788e-08)
(7.39466e-09 1.02137e-08 -2.97125e-08)
(1.14368e-08 1.14663e-08 -3.05914e-08)
(1.65479e-08 1.47931e-08 -3.1682e-08)
(2.2549e-08 1.98838e-08 -3.30315e-08)
(2.90143e-08 2.62057e-08 -3.46247e-08)
(3.53121e-08 3.30113e-08 -3.6378e-08)
(4.08735e-08 3.9509e-08 -3.8224e-08)
(1.82744e-09 4.0435e-10 -2.37965e-08)
(5.44507e-09 4.36798e-10 -2.3998e-08)
(8.93452e-09 5.09321e-10 -2.43948e-08)
(1.2359e-08 6.18675e-10 -2.49875e-08)
(1.58004e-08 7.54828e-10 -2.57866e-08)
(1.9353e-08 9.09161e-10 -2.68126e-08)
(2.31395e-08 1.06713e-09 -2.80936e-08)
(2.73403e-08 1.21223e-09 -2.96654e-08)
(3.22196e-08 1.33095e-09 -3.15638e-08)
(3.81859e-08 1.4075e-09 -3.38145e-08)
(1.74976e-09 1.20764e-09 -2.40022e-08)
(5.27805e-09 1.3183e-09 -2.42005e-08)
(8.76142e-09 1.54136e-09 -2.4593e-08)
(1.21909e-08 1.87263e-09 -2.51814e-08)
(1.56323e-08 2.29231e-09 -2.59765e-08)
(1.91723e-08 2.76883e-09 -2.69971e-08)
(2.29089e-08 3.26423e-09 -2.82695e-08)
(2.69928e-08 3.73628e-09 -2.98313e-08)
(3.16132e-08 4.12701e-09 -3.17133e-08)
(3.70111e-08 4.38479e-09 -3.39395e-08)
(1.66912e-09 2.0047e-09 -2.44086e-08)
(5.04721e-09 2.19354e-09 -2.46019e-08)
(8.45113e-09 2.56934e-09 -2.499e-08)
(1.18757e-08 3.12014e-09 -2.5573e-08)
(1.53153e-08 3.82807e-09 -2.63613e-08)
(1.88303e-08 4.65127e-09 -2.73738e-08)