/*--------------------------------*- C++ -*----------------------------------*\
| =========                 |                                                 |
| \\      /  F ield         | foam-extend: Open Source CFD                    |
|  \\    /   O peration     | Version:     3.1                                |
|   \\  /    A nd           | Web:         http://www.extend-project.de       |
|    \\/     M anipulation  |                                                 |
\*---------------------------------------------------------------------------*/
FoamFile
{
    version     2.0;
    format      ascii;
    class       surfaceScalarField;
    location    "0.0005";
    object      meshPhi;
}
// * * * * * * * * * * * * * * * * * * * * * * * * * * * * * * * * * * * * * //

dimensions      [0 3 -1 0 0 0 0];

internalField   nonuniform List<scalar> 
45800
(
2.35378e-10
2.36057e-10
6.42968e-11
4.57603e-10
2.34905e-10
7.06966e-11
6.6487e-10
2.31008e-10
8.4409e-11
8.59789e-10
2.26973e-10
1.0564e-10
1.04499e-09
2.23608e-10
1.35138e-10
1.22193e-09
2.21065e-10
1.74156e-10
1.3908e-09
2.19545e-10
2.24406e-10
1.55006e-09
2.19298e-10
2.87952e-10
1.69596e-09
2.20559e-10
3.66981e-10
2.21438e-10
4.63895e-10
1.82322e-09
2.34245e-10
4.58015e-10
7.068e-11
4.57977e-10
4.58705e-10
7.67409e-11
6.68817e-10
4.54421e-10
8.99366e-11
8.67491e-10
4.48466e-10
1.10489e-10
1.05595e-09
4.43044e-10
1.39115e-10
1.23566e-09
4.39015e-10
1.77007e-10
1.40685e-09
4.36838e-10
2.25779e-10
1.56796e-09
4.36967e-10
2.87312e-10
1.71523e-09
4.39597e-10
3.63463e-10
4.4048e-10
4.55607e-10
1.84218e-09
2.30709e-10
6.64809e-10
8.43889e-11
4.53703e-10
6.69059e-10
8.99185e-11
6.66805e-10
6.67466e-10
1.02376e-10
8.69078e-10
6.6243e-10
1.22008e-10
1.06088e-09
6.56675e-10
1.49492e-10
1.24324e-09
6.52289e-10
1.85955e-10
1.41636e-09
6.50316e-10
2.32897e-10
1.5785e-09
6.51269e-10
2.91956e-10
1.72606e-09
6.55329e-10
3.6464e-10
6.55916e-10
4.51601e-10
1.85285e-09
2.2701e-10
8.59628e-10
1.05639e-10
4.48199e-10
8.67406e-10
1.10475e-10
6.61771e-10
8.69326e-10
1.21993e-10
8.66399e-10
8.67056e-10
1.40477e-10
1.0612e-09
8.62648e-10
1.66581e-10
1.24598e-09
8.58589e-10
2.01358e-10
1.4205e-09
8.57e-10
2.46207e-10
1.58301e-09
8.58845e-10
3.02587e-10
1.73012e-09
8.64138e-10
3.71768e-10
8.64126e-10
4.53727e-10
1.85646e-09
2.23718e-10
1.04489e-09
1.35166e-10
4.43144e-10
1.05586e-09
1.39128e-10
6.56451e-10
1.06089e-09
1.49482e-10
8.61991e-10
1.06152e-09
1.66563e-10
1.05864e-09
1.05938e-09
1.9103e-10
1.24538e-09
1.05636e-09
2.2389e-10
1.42089e-09
1.05484e-09
2.66441e-10
1.58303e-09
1.05682e-09
3.2004e-10
1.72878e-09
1.06267e-09
3.8584e-10
1.06168e-09
4.63078e-10
1.85383e-09
2.21169e-10
1.2219e-09
1.7421e-10
4.39204e-10
1.23565e-09
1.77047e-10
6.52422e-10
1.24325e-09
1.85966e-10
8.58394e-10
1.24609e-09
2.01343e-10
1.05562e-09
1.24585e-09
2.23867e-10
1.24314e-09
1.24413e-09
2.54538e-10
1.41904e-09
1.24257e-09
2.9457e-10
1.58015e-09
1.24347e-09
3.45231e-10
1.72318e-09
1.24821e-09
4.07599e-10
1.24535e-09
4.80152e-10
1.84547e-09
2.19644e-10
1.39084e-09
2.24481e-10
4.37023e-10
1.40691e-09
2.2584e-10
6.50568e-10
1.41643e-09
2.32929e-10
8.5725e-10
1.42058e-09
2.46206e-10
1.05469e-09
1.42101e-09
2.66406e-10
1.24158e-09
1.41951e-09
2.94504e-10
1.41647e-09
1.41746e-09
3.31662e-10
1.57547e-09
1.41633e-09
3.78999e-10
1.71413e-09
1.41768e-09
4.3741e-10
1.41148e-09
5.04824e-10
1.83157e-09
2.19389e-10
1.55018e-09
2.88048e-10
4.37141e-10
1.56809e-09
2.87389e-10
6.51521e-10
1.57862e-09
2.92e-10
8.59194e-10
1.58309e-09
3.02588e-10
1.05715e-09
1.583e-09
3.19984e-10
1.24307e-09
1.58001e-09
3.45073e-10
1.41534e-09
1.57557e-09
3.78822e-10
1.57009e-09
1.57061e-09
4.21972e-10
1.70229e-09
1.56644e-09
4.75192e-10
1.55561e-09
5.36251e-10
1.81219e-09
2.20636e-10
1.69615e-09
3.67096e-10
4.39741e-10
1.71542e-09
3.63557e-10
6.55528e-10
1.72623e-09
3.64695e-10
8.64381e-10
1.73024e-09
3.71768e-10
1.06295e-09
1.72879e-09
3.85768e-10
1.24817e-09
1.72302e-09
4.07403e-10
1.41722e-09
1.71393e-09
4.37156e-10
1.56595e-09
1.70235e-09
4.75053e-10
1.6895e-09
1.6898e-09
5.21174e-10
1.67243e-09
5.72872e-10
1.78784e-09
2.21498e-10
4.6402e-10
1.82345e-09
4.40589e-10
4.5571e-10
1.8424e-09
6.56055e-10
4.51667e-10
1.85305e-09
8.64273e-10
4.53739e-10
1.85662e-09
1.0618e-09
4.63026e-10
1.85392e-09
1.24537e-09
4.80019e-10
1.84547e-09
1.41143e-09
5.04658e-10
1.83152e-09
1.55546e-09
5.36116e-10
1.81216e-09
1.67215e-09
5.72769e-10
1.78787e-09
6.1124e-10
1.76006e-09
1.76018e-09
6.83351e-10
6.85321e-10
7.17005e-11
1.32858e-09
6.82026e-10
8.21255e-11
1.93063e-09
6.70766e-10
1.0383e-10
2.49746e-09
6.5917e-10
1.37029e-10
3.03734e-09
6.49655e-10
1.827e-10
3.55559e-09
6.42741e-10
2.42516e-10
4.05445e-09
6.39139e-10
3.1874e-10
4.53207e-09
6.39782e-10
4.14028e-10
4.98132e-09
6.45659e-10
5.31027e-10
6.51866e-10
6.72445e-10
5.39207e-09
6.80105e-10
1.32977e-09
8.21005e-11
1.32979e-09
1.3319e-09
9.19872e-11
1.9423e-09
1.31962e-09
1.12867e-10
2.52015e-09
1.30262e-09
1.44982e-10
3.06965e-09
1.28742e-09
1.89268e-10
3.59619e-09
1.27671e-09
2.47313e-10
4.10211e-09
1.27206e-09
3.21245e-10
4.5854e-09
1.2752e-09
4.13462e-10
5.03877e-09
1.28728e-09
5.26164e-10
1.297e-09
6.60628e-10
5.44785e-09
6.69889e-10
1.93045e-09
1.03801e-10
1.31753e-09
1.943e-09
1.1284e-10
1.93678e-09
1.93869e-09
1.32529e-10
2.52529e-09
1.92462e-09
1.63153e-10
3.08478e-09
1.90884e-09
2.05592e-10
3.61937e-09
1.89768e-09
2.61346e-10
4.13131e-09
1.8946e-09
3.32383e-10
4.61802e-09
1.90165e-09
4.20763e-10
5.07244e-09
1.92019e-09
5.28207e-10
1.93253e-09
6.55017e-10
5.48042e-09
6.59278e-10
2.49699e-09
1.37032e-10
1.30183e-09
2.5199e-09
1.44964e-10
1.9227e-09
2.52599e-09
1.6313e-10
2.5184e-09
2.5203e-09
1.91885e-10
3.08705e-09
2.50896e-09
2.32074e-10
3.62918e-09
2.4995e-09
2.85093e-10
4.14584e-09
2.49865e-09
3.52767e-10
4.6343e-09
2.50997e-09
4.36916e-10
5.08803e-09
2.53458e-09
5.38938e-10
2.54875e-09
6.58227e-10
5.49462e-09
6.49978e-10
3.03705e-09
1.8275e-10
1.28771e-09
3.06941e-09
1.89292e-10
1.90817e-09
3.0848e-09
2.0558e-10
2.50703e-09
3.08796e-09
2.32047e-10
3.08172e-09
3.08386e-09
2.69559e-10
3.63035e-09
3.07837e-09
3.19443e-10
4.15078e-09
3.07905e-09
3.83382e-10
4.63927e-09
3.09265e-09
4.63054e-10
5.09019e-09
3.12166e-09
5.59716e-10
3.13674e-09
6.71756e-10
5.49367e-09
6.43047e-10
3.55551e-09
2.42607e-10
1.27726e-09
3.59616e-09
2.4738e-10
1.89807e-09
3.6194e-09
2.61368e-10
2.49891e-09
3.62949e-09
2.8507e-10
3.07621e-09
3.63168e-09
3.19407e-10
3.62828e-09
3.63113e-09
3.657e-10
4.15121e-09
3.63334e-09
4.25511e-10
4.6382e-09
3.64597e-09
5.00392e-10
5.08299e-09
3.67473e-09
5.91504e-10
3.68833e-09
6.96219e-10
5.47975e-09
6.39431e-10
4.05459e-09
3.18864e-10
1.27261e-09
4.10229e-09
3.21344e-10
1.89534e-09
4.13152e-09
3.32437e-10
2.49936e-09
4.14606e-09
3.5277e-10
3.07858e-09
4.15111e-09
3.83329e-10
3.6304e-09
4.1525e-09
4.25411e-10
4.15229e-09
4.15511e-09
4.80512e-10
4.63518e-09
4.1643e-09
5.49967e-10
5.06944e-09
4.18632e-09
6.34677e-10
4.19405e-09
7.31303e-10
5.45395e-09
6.40049e-10
4.53245e-09
4.1418e-10
1.27571e-09
4.58579e-09
4.13586e-10
1.90238e-09
4.61839e-09
4.20835e-10
2.51098e-09
4.63452e-09
4.36922e-10
3.09359e-09
4.63916e-09
4.62973e-10
3.6447e-09
4.63773e-09
5.00157e-10
4.16135e-09
4.63534e-09
5.49703e-10
4.63431e-09
4.63577e-09
6.12422e-10
5.05206e-09
4.64451e-09
6.88894e-10
4.64183e-09
7.75624e-10
5.41657e-09
6.45884e-10
4.98192e-09
5.31206e-10
1.2877e-09
5.03937e-09
5.26312e-10
1.92077e-09
5.07296e-09
5.28295e-10
2.53529e-09
5.08837e-09
5.38942e-10
3.12247e-09
5.0902e-09
5.59612e-10
3.67455e-09
5.08246e-09
5.91216e-10
4.18488e-09
5.06877e-09
6.343e-10
4.64302e-09
5.05217e-09
6.88685e-10
5.03732e-09
5.03818e-09
7.54164e-10
5.01632e-09
8.26761e-10
5.36809e-09
6.52041e-10
6.72637e-10
5.39277e-09
1.29732e-09
6.60787e-10
5.44853e-09
1.93293e-09
6.55117e-10
5.48102e-09
2.54917e-09
6.58247e-10
5.49507e-09
3.13708e-09
6.7168e-10
5.4939e-09
3.68834e-09
6.96025e-10
5.47973e-09
4.19384e-09
7.31058e-10
5.45378e-09
4.64131e-09
7.75426e-10
5.4164e-09
5.01542e-09
8.26611e-10
5.36807e-09
8.79755e-10
5.31141e-09
5.31171e-09
1.06302e-09
1.06608e-09
-9.61152e-12
2.06659e-09
1.06094e-09
1.43266e-12
3.00299e-09
1.04335e-09
2.28795e-11
3.88521e-09
1.02531e-09
5.47296e-11
4.72734e-09
1.01071e-09
9.75896e-11
5.5398e-09
1.00055e-09
1.52575e-10
6.32953e-09
9.96218e-10
2.21166e-10
7.09895e-09
9.99576e-10
3.04983e-10
7.84451e-09
1.0128e-09
4.05388e-10
1.02931e-09
5.23497e-10
8.5609e-09
1.05794e-09
2.06844e-09
1.41143e-12
2.06848e-09
2.07176e-09
1.1923e-11
3.02127e-09
2.05264e-09
3.25517e-11
3.9208e-09
2.02631e-09
6.33352e-11
4.77817e-09
2.00318e-09
1.04848e-10
5.60394e-09
1.98783e-09
1.5814e-10
6.40519e-09
1.98328e-09
2.24591e-10
7.184e-09
1.993e-09
3.0563e-10
7.93629e-09
2.02e-09
4.02288e-10
2.04853e-09
5.14583e-10
8.64866e-09
1.04198e-09
3.00273e-09
2.28557e-11
2.04937e-09
3.02234e-09
3.25291e-11
3.01282e-09
3.01578e-09
5.196e-11
3.92926e-09
2.99434e-09
8.12416e-11
4.80268e-09
2.97086e-09
1.20909e-10
5.64166e-09
2.95579e-09
1.71946e-10
6.45314e-09
2.95534e-09
2.35614e-10
7.23812e-09
2.9739e-09
3.13085e-10
7.99247e-09
3.01529e-09
4.05046e-10
3.0544e-09
5.10807e-10
8.70203e-09
1.02548e-09
3.8845e-09
5.47361e-11
2.02507e-09
3.92042e-09
6.33218e-11
2.99134e-09
3.93034e-09
8.12225e-11
3.91954e-09
3.92247e-09
1.08607e-10
4.808e-09
3.90678e-09
1.45996e-10
5.65977e-09
3.89569e-09
1.94293e-10
6.47991e-09
3.90075e-09
2.54656e-10
7.26903e-09
3.92914e-09
3.28085e-10
8.02358e-09
3.98478e-09
4.15048e-10
4.03346e-09
5.14197e-10
8.73093e-09
1.01122e-09
4.72691e-09
9.7641e-11
2.00364e-09
4.77782e-09
1.04875e-10
2.96981e-09
4.80271e-09
1.20901e-10
3.90378e-09
4.80938e-09
1.45972e-10
4.80287e-09
4.80617e-09
1.80639e-10
5.66634e-09
4.80307e-09
2.25759e-10
6.49424e-09
4.81309e-09
2.82389e-10
7.28566e-09
4.84871e-09
3.51433e-10
8.03826e-09
4.91657e-09
4.33284e-10
4.97389e-09
5.25855e-10
8.74211e-09
1.00104e-09
5.5397e-09
1.52666e-10
1.98871e-09
5.60392e-09
1.58208e-10
2.95639e-09
5.64172e-09
1.7197e-10
3.89475e-09
5.66024e-09
1.94274e-10
4.79967e-09
5.66835e-09
2.25728e-10
5.67081e-09
5.6752e-09
2.67201e-10
6.50535e-09
5.69082e-09
3.19663e-10
7.2976e-09
5.72927e-09
3.83936e-10
8.04426e-09
5.80271e-09
4.6037e-10
5.86532e-09
5.46129e-10
8.74031e-09
9.96679e-10
6.32979e-09
2.21288e-10
1.98414e-09
6.40551e-09
2.24688e-10
2.9565e-09
6.45349e-09
2.35667e-10
3.90186e-09
6.48025e-09
2.54661e-10
4.81229e-09
6.49472e-09
2.82343e-10
5.68614e-09
6.50722e-09
3.19578e-10
6.52287e-09
6.52718e-09
3.67299e-10
7.31289e-09
6.56519e-09
4.26175e-10
8.04759e-09
6.63436e-09
4.96374e-10
6.69541e-09
5.74572e-10
8.72826e-09
9.99998e-10
7.0996e-09
3.0513e-10
1.9938e-09
7.18467e-09
3.0575e-10
2.97505e-09
7.23871e-09
3.13155e-10
3.93072e-09
7.26937e-09
3.28094e-10
4.85013e-09
7.28545e-09
3.51364e-10
5.7271e-09
7.29671e-09
3.83737e-10
6.56045e-09
7.31289e-09
4.25953e-10
7.33986e-09
7.34205e-09
4.7829e-10
8.05356e-09
7.39614e-09
5.407e-10
7.44718e-09
6.09837e-10
8.7067e-09
1.01316e-09
7.84551e-09
4.05558e-10
2.02066e-09
7.93727e-09
4.02428e-10
3.0162e-09
7.99332e-09
4.0513e-10
3.98587e-09
8.02411e-09
4.15055e-10
4.91781e-09
8.03824e-09
4.33196e-10
5.8023e-09
8.04332e-09
4.60127e-10
6.63194e-09
8.0464e-09
4.96057e-10
7.39371e-09
8.05358e-09
5.40526e-10
8.07435e-09
8.07565e-09
5.92944e-10
8.09703e-09
6.49725e-10
8.67468e-09
1.02958e-09
5.23677e-10
8.56208e-09
2.04903e-09
5.14732e-10
8.6498e-09
3.05503e-09
5.10901e-10
8.70301e-09
4.0341e-09
5.14218e-10
8.73165e-09
4.97438e-09
5.25791e-10
8.74245e-09
5.86527e-09
5.45964e-10
8.74023e-09
6.69502e-09
5.74365e-10
8.72791e-09
7.44622e-09
6.09671e-10
8.70632e-09
8.09548e-09
6.49605e-10
8.67443e-09
6.90141e-10
8.63349e-09
8.63385e-09
1.33566e-09
1.3395e-09
-1.73452e-10
2.59546e-09
1.33269e-09
-1.64487e-10
3.76897e-09
1.30989e-09
-1.4997e-10
4.87237e-09
1.28632e-09
-1.30164e-10
5.92394e-09
1.26701e-09
-1.05114e-10
6.93825e-09
1.25338e-09
-7.47501e-11
7.92673e-09
1.24739e-09
-3.90203e-11
8.89673e-09
1.25176e-09
1.94221e-12
9.85002e-09
1.26969e-09
4.75899e-11
1.29379e-09
9.69357e-11
1.07883e-08
1.32892e-09
2.59778e-09
-1.64493e-10
2.59721e-09
2.60132e-09
-1.55869e-10
3.79112e-09
2.57607e-09
-1.41871e-10
4.9162e-09
2.54137e-09
-1.22721e-10
5.98697e-09
2.51055e-09
-9.84759e-11
7.01818e-09
2.48974e-09
-6.90884e-11
8.02145e-09
2.48315e-09
-3.45316e-11
9.00363e-09
2.49586e-09
5.01407e-12
9.96562e-09
2.53258e-09
4.89232e-11
2.5751e-09
9.5883e-11
1.08982e-08
1.30816e-09
3.76863e-09
-1.49974e-10
2.57197e-09
3.79245e-09
-1.41876e-10
3.77897e-09
3.78267e-09
-1.28652e-10
4.92521e-09
3.75371e-09
-1.10468e-10
6.01632e-09
3.72203e-09
-8.73826e-11
7.06458e-09
3.70128e-09
-5.93703e-11
8.08138e-09
3.69994e-09
-2.64338e-11
9.07208e-09
3.72452e-09
1.11795e-11
1.00373e-08
3.78118e-09
5.27735e-11
3.84048e-09
9.68772e-11
1.0966e-08
1.28654e-09
4.87148e-09
-1.3015e-10
2.53981e-09
4.91571e-09
-1.22718e-10
3.74995e-09
4.92654e-09
-1.10471e-10
4.91093e-09
4.91458e-09
-9.35177e-11
6.02126e-09
4.89276e-09
-7.19029e-11
7.08632e-09
4.87727e-09
-4.56148e-11
8.1151e-09
4.88352e-09
-1.46788e-11
9.11237e-09
4.92182e-09
2.06224e-11
1.00792e-08
4.99883e-09
5.95715e-11
5.0741e-09
1.00548e-10
1.10056e-08
1.26767e-09
5.9234e-09
-1.05073e-10
2.51115e-09
5.98653e-09
-9.84507e-11
3.72073e-09
6.01634e-09
-8.73775e-11
4.88901e-09
6.02296e-09
-7.1909e-11
6.01329e-09
6.01738e-09
-5.20584e-11
7.09412e-09
6.01285e-09
-2.78091e-11
8.13423e-09
6.02673e-09
7.97627e-13
9.13643e-09
6.07623e-09
3.34747e-11
1.01031e-08
6.17185e-09
6.95291e-11
6.26254e-09
1.0715e-10
1.10268e-08
1.254e-09
6.93814e-09
-7.46856e-11
2.49086e-09
7.01817e-09
-6.90399e-11
3.70206e-09
7.06466e-09
-5.93491e-11
4.8761e-09
7.08689e-09
-4.56174e-11
6.0086e-09
7.09659e-09
-2.78193e-11
7.10067e-09
7.1061e-09
-5.91622e-12
8.15132e-09
7.12924e-09
2.00462e-11
9.15732e-09
7.18528e-09
4.97884e-11
1.01198e-08
7.29198e-09
8.26456e-11
7.39458e-09
1.16609e-10
1.10363e-08
1.24799e-09
7.92709e-09
-3.89392e-11
2.48425e-09
8.02188e-09
-3.44669e-11
3.70143e-09
8.08183e-09
-2.6397e-11
4.88492e-09
8.11552e-09
-1.46708e-11
6.0257e-09
8.1348e-09
7.81801e-13
7.12335e-09
8.15356e-09
2.0015e-11
8.17972e-09
8.18505e-09
4.29932e-11
9.18645e-09
8.2443e-09
6.94242e-11
1.01378e-08
8.35037e-09
9.86293e-11
8.4566e-09
1.28508e-10
1.10386e-08
1.2523e-09
8.8976e-09
2.03532e-12
2.49689e-09
9.00451e-09
5.08969e-12
3.72599e-09
9.07285e-09
1.12253e-11
4.92382e-09
9.11281e-09
2.06329e-11
6.07801e-09
9.13614e-09
3.34472e-11
7.18247e-09
9.15612e-09
4.97094e-11
8.23831e-09
9.18631e-09
6.93385e-11
9.23586e-09
9.23854e-09
9.19448e-11
1.01652e-08
9.33037e-09
1.1685e-10
9.429e-09
1.42066e-10
1.10349e-08
1.27015e-09
9.85138e-09
4.76917e-11
2.53343e-09
9.96693e-09
4.90067e-11
3.78233e-09
1.00384e-08
5.2825e-11
5.00021e-09
1.00799e-08
5.95817e-11
6.17341e-09
1.0103e-08
6.94925e-11
7.29142e-09
1.01185e-08
8.2545e-11
8.34726e-09
1.01363e-08
9.85031e-11
9.32727e-09
1.01651e-08
1.16783e-10
1.02186e-08
1.02202e-08
1.3664e-10
1.02829e-08
1.56189e-10
1.10232e-08
1.29414e-09
9.70384e-11
1.079e-08
2.57574e-09
9.59677e-11
1.08997e-08
3.84128e-09
9.69311e-11
1.09672e-08
5.07492e-09
1.00564e-10
1.10065e-08
6.26316e-09
1.07124e-10
1.10272e-08
7.3945e-09
1.16539e-10
1.10362e-08
8.45608e-09
1.28422e-10
1.10381e-08
9.42772e-09
1.42001e-10
1.10343e-08
1.02809e-08
1.56148e-10
1.10227e-08
1.69221e-10
1.10029e-08
1.10033e-08
1.47844e-09
1.48269e-09
-3.81702e-10
2.8699e-09
1.4742e-09
-3.75711e-10
4.16042e-09
1.44717e-09
-3.70527e-10
5.36609e-09
1.41852e-09
-3.66517e-10
6.50582e-09
1.39389e-09
-3.64205e-10
7.59491e-09
1.37489e-09
-3.64355e-10
8.64565e-09
1.36372e-09
-3.68042e-10
9.66652e-09
1.36338e-09
-3.7669e-10
1.06606e-08
1.37743e-09
-3.92062e-10
1.39794e-09
-4.16289e-10
1.16311e-08
1.47005e-09
2.87245e-09
-3.75697e-10
2.87007e-09
2.8746e-09
-3.69757e-10
4.18247e-09
2.84326e-09
-3.64633e-10
5.41153e-09
2.79999e-09
-3.60653e-10
6.57202e-09
2.75965e-09
-3.58341e-10
7.67939e-09
2.72909e-09
-3.58448e-10
8.74619e-09
2.71299e-09
-3.62001e-10
9.78035e-09
2.717e-09
-3.70338e-10
1.07841e-08
2.7464e-09
-3.85069e-10
2.78176e-09
-4.07899e-10
1.17493e-08
1.44527e-09
4.16e-09
-3.70508e-10
2.83875e-09
4.18391e-09
-3.64616e-10
4.16434e-09
4.16839e-09
-3.59586e-10
5.41582e-09
4.12957e-09
-3.55707e-10
6.59813e-09
4.08578e-09
-3.53473e-10
7.72403e-09
4.05218e-09
-3.53616e-10
8.80577e-09
4.03818e-09
-3.57115e-10
9.84973e-09
4.05103e-09
-3.65199e-10
1.08578e-08
4.09765e-09
-3.793e-10
4.14676e-09
-4.00792e-10
1.18203e-08
1.41878e-09
5.36506e-09
-3.66498e-10
2.79831e-09
5.41095e-09
-3.60632e-10
4.12547e-09
5.41725e-09
-3.55691e-10
5.39185e-09
5.39581e-09
-3.51949e-10
6.5945e-09
5.36104e-09
-3.49862e-10
7.73857e-09
5.33088e-09
-3.50117e-10
8.83371e-09
5.32234e-09
-3.53651e-10
9.88559e-09
5.34687e-09
-3.61604e-10
1.08965e-08
5.412e-09
-3.75269e-10
5.4748e-09
-3.95714e-10
1.18585e-08
1.39464e-09
6.50518e-09
-3.64185e-10
2.76035e-09
6.57149e-09
-3.58323e-10
4.08441e-09
6.59813e-09
-3.53455e-10
5.35698e-09
6.59633e-09
-3.49848e-10
6.57385e-09
6.57828e-09
-3.47945e-10
7.73482e-09
6.55865e-09
-3.48389e-10
8.84262e-09
6.55656e-09
-3.5205e-10
9.90074e-09
6.591e-09
-3.60009e-10
1.09128e-08
6.67371e-09
-3.73471e-10
6.75056e-09
-3.93193e-10
1.18737e-08
1.37561e-09
7.59475e-09
-3.64334e-10
2.73037e-09
7.67934e-09
-3.58431e-10
4.05311e-09
7.72408e-09
-3.53603e-10
5.32966e-09
7.73917e-09
-3.50104e-10
6.55407e-09
7.73747e-09
-3.48375e-10
7.72671e-09
7.73259e-09
-3.49042e-10
8.84622e-09
7.73971e-09
-3.5291e-10
9.90937e-09
7.78005e-09
-3.60979e-10
1.09183e-08
7.87323e-09
-3.7439e-10
7.96143e-09
-3.93597e-10
1.18736e-08
1.3644e-09
8.64604e-09
-3.68023e-10
2.71425e-09
8.74664e-09
-3.61986e-10
4.03987e-09
8.80625e-09
-3.57107e-10
5.32395e-09
8.83415e-09
-3.53645e-10
6.55552e-09
8.84323e-09
-3.52034e-10
7.73337e-09
8.84865e-09
-3.52881e-10
8.85917e-09
8.86495e-09
-3.56955e-10
9.92406e-09
8.90868e-09
-3.65146e-10
1.09227e-08
9.00093e-09
-3.78465e-10
9.09272e-09
-3.97131e-10
1.18633e-08
1.364e-09
9.66749e-09
-3.76677e-10
2.71818e-09
9.78132e-09
-3.70328e-10
4.0527e-09
9.85058e-09
-3.65193e-10
5.34913e-09
9.88607e-09
-3.61599e-10
6.59303e-09
9.90044e-09
-3.59994e-10
7.77712e-09
9.90812e-09
-3.60927e-10
8.90227e-09
9.92398e-09
-3.65082e-10
9.95832e-09
9.96125e-09
-3.73179e-10
1.0935e-08
1.00392e-08
-3.86056e-10
1.01239e-08
-4.03774e-10
1.18448e-08
1.37796e-09
1.06621e-08
-3.92058e-10
2.74738e-09
1.07855e-08
-3.85066e-10
4.09897e-09
1.0859e-08
-3.79298e-10
5.41359e-09
1.08973e-08
-3.75264e-10
6.6755e-09
1.09128e-08
-3.73455e-10
7.87277e-09
1.0917e-08
-3.74336e-10
8.99767e-09
1.0921e-08
-3.78383e-10
1.00359e-08
1.0935e-08
-3.86006e-10
1.09743e-08
1.0976e-08
-3.97715e-10
1.10251e-08
-4.13258e-10
1.18173e-08
1.39835e-09
-4.16293e-10
1.1633e-08
2.7825e-09
-4.07903e-10
1.17511e-08
4.14768e-09
-4.00795e-10
1.18218e-08
5.47576e-09
-3.95713e-10
1.18595e-08
6.75132e-09
-3.93181e-10
1.18742e-08
7.96144e-09
-3.93564e-10
1.18735e-08
9.09224e-09
-3.97084e-10
1.18627e-08
1.01226e-08
-4.0373e-10
1.18442e-08
1.1023e-08
-4.13218e-10
1.18168e-08
-4.24619e-10
1.17817e-08
1.17821e-08
1.49149e-09
1.49576e-09
-5.83493e-10
2.89025e-09
1.48565e-09
-5.79576e-10
4.17794e-09
1.45539e-09
-5.81726e-10
5.36716e-09
1.42216e-09
-5.90148e-10
6.47365e-09
1.39163e-09
-6.05394e-10
7.50963e-09
1.36532e-09
-6.28399e-10
8.48425e-09
1.34526e-09
-6.60459e-10
9.40277e-09
1.33418e-09
-7.03128e-10
1.02652e-08
1.33522e-09
-7.57991e-10
1.3403e-09
-8.26663e-10
1.10714e-08
1.48149e-09
2.89278e-09
-5.79546e-10
2.88748e-09
2.892e-09
-5.75397e-10
4.19596e-09
2.85467e-09
-5.77156e-10
5.4076e-09
2.8027e-09
-5.85002e-10
6.53395e-09
2.75101e-09
-5.99491e-10
7.58738e-09
2.70627e-09
-6.21529e-10
8.57724e-09
2.67282e-09
-6.52336e-10
9.50846e-09
2.6558e-09
-6.9332e-10
1.03805e-08
2.65982e-09
-7.45811e-10
2.66556e-09
-8.10629e-10
1.11842e-08
1.45352e-09
4.17745e-09
-5.81688e-10
2.85021e-09
4.19734e-09
-5.77122e-10
4.16964e-09
4.17363e-09
-5.78289e-10
5.40193e-09
4.12266e-09
-5.85357e-10
6.54874e-09
4.06279e-09
-5.98843e-10
7.61969e-09
4.0089e-09
-6.19629e-10
8.62395e-09
3.96987e-09
-6.48857e-10
9.5651e-09
3.95222e-09
-6.87741e-10
1.04427e-08
3.96202e-09
-7.37342e-10
3.96865e-09
-7.97945e-10
1.12472e-08
1.42247e-09
5.36601e-09
-5.90127e-10
2.8011e-09
5.40693e-09
-5.84969e-10
4.11865e-09
5.40328e-09
-5.85327e-10
5.36307e-09
5.36693e-09
-5.91406e-10
6.52815e-09
5.31222e-09
-6.03686e-10
7.61592e-09
5.25668e-09
-6.22982e-10
8.63294e-09
5.21652e-09
-6.50376e-10
9.58223e-09
5.20222e-09
-6.86953e-10
1.04639e-08
5.22025e-09
-7.33587e-10
5.22917e-09
-7.90077e-10
1.12712e-08
1.39242e-09
6.47288e-09
-6.05395e-10
2.75179e-09
6.53331e-09
-5.99483e-10
4.06153e-09
6.54864e-09
-5.98819e-10
5.3083e-09
6.52991e-09
-6.03658e-10
6.48465e-09
6.48896e-09
-6.14502e-10
7.58728e-09
6.43989e-09
-6.32113e-10
8.61591e-09
6.40089e-09
-6.5748e-10
9.57132e-09
6.38959e-09
-6.91622e-10
1.04549e-08
6.41631e-09
-7.35337e-10
6.42944e-09
-7.87894e-10
1.12642e-08
1.36607e-09
7.50935e-09
-6.28421e-10
2.70762e-09
7.58721e-09
-6.21545e-10
4.00993e-09
7.61964e-09
-6.19629e-10
5.2556e-09
7.61644e-09
-6.2296e-10
6.43551e-09
7.58985e-09
-6.32085e-10
7.54688e-09
7.55259e-09
-6.47773e-10
8.58543e-09
7.51876e-09
-6.70928e-10
9.54526e-09
7.50806e-09
-7.02478e-10
1.04262e-08
7.53824e-09
-7.43176e-10
7.55484e-09
-7.91774e-10
1.12328e-08
1.34598e-09
8.48452e-09
-6.605e-10
2.67414e-09
8.5776e-09
-6.52371e-10
3.97164e-09
8.62434e-09
-6.48878e-10
5.21823e-09
8.63331e-09
-6.50377e-10
6.40003e-09
8.6165e-09
-6.57447e-10
7.51276e-09
8.5879e-09
-6.70863e-10
8.55499e-09
8.56066e-09
-6.91501e-10
9.51557e-09
8.54989e-09
-7.20141e-10
1.03869e-08
8.5748e-09
-7.57367e-10
8.58984e-09
-8.01586e-10
1.11819e-08
1.33483e-09
9.40365e-09
-7.03189e-10
2.65704e-09
9.50935e-09
-6.93373e-10
3.95397e-09
9.56588e-09
-6.87776e-10
5.20458e-09
9.58268e-09
-6.86961e-10
6.39176e-09
9.57109e-09
-6.91586e-10
7.50555e-09
9.54426e-09
-7.02345e-10
8.54388e-09
9.51579e-09
-7.19984e-10
9.49493e-09
9.49787e-09
-7.45002e-10
1.03464e-08
9.50795e-09
-7.77767e-10
9.51483e-09
-8.1661e-10
1.11151e-08
1.33578e-09
1.02667e-08
-7.58075e-10
2.66086e-09
1.03819e-08
-7.45883e-10
3.96344e-09
1.04439e-08
-7.37389e-10
5.22196e-09
1.04647e-08
-7.33596e-10
6.41826e-09
1.0455e-08
-7.35292e-10
7.53815e-09
1.04251e-08
-7.43026e-10
8.57195e-09
1.03856e-08
-7.57155e-10
9.50489e-09
1.03465e-08
-7.77646e-10
1.03226e-08
1.03242e-08
-8.0443e-10
1.03034e-08
-8.35571e-10
1.10352e-08
1.34074e-09
-8.26762e-10
1.10732e-08
2.66636e-09
-8.10714e-10
1.1186e-08
3.96967e-09
-7.98003e-10
1.12486e-08
5.23025e-09
-7.90097e-10
1.12722e-08
6.43037e-09
-7.87864e-10
1.12647e-08
7.5551e-09
-7.91678e-10
1.12327e-08
8.58958e-09
-8.01456e-10
1.11815e-08
9.51376e-09
-8.16501e-10
1.11147e-08
1.03016e-08
-8.35488e-10
1.10349e-08
-8.55883e-10
1.09475e-08
1.0948e-08
1.39759e-09
1.40155e-09
-7.35963e-10
2.70201e-09
1.39014e-09
-7.32301e-10
3.89064e-09
1.35805e-09
-7.37315e-10
4.97061e-09
1.32146e-09
-7.50854e-10
5.95235e-09
1.28566e-09
-7.73088e-10
6.84313e-09
1.25195e-09
-8.04494e-10
7.64724e-09
1.22196e-09
-8.45757e-10
8.36557e-09
1.19787e-09
-8.97573e-10
8.9947e-09
1.18211e-09
-9.6033e-10
1.16703e-09
-1.03409e-09
9.53089e-09
1.38629e-09
2.7043e-09
-7.32263e-10
2.69569e-09
2.69984e-09
-7.28182e-10
3.90218e-09
2.65769e-09
-7.325e-10
5.00169e-09
2.59851e-09
-7.45067e-10
6.00066e-09
2.53617e-09
-7.66069e-10
6.90648e-09
2.47658e-09
-7.95967e-10
7.72371e-09
2.42333e-09
-8.35385e-10
8.45306e-09
2.38052e-09
-8.84899e-10
9.0911e-09
2.35161e-09
-9.44681e-10
2.319e-09
-1.01405e-09
9.62857e-09
1.35636e-09
3.89006e-09
-7.37266e-10
2.65362e-09
3.90337e-09
-7.32458e-10
3.86738e-09
3.87099e-09
-7.35706e-10
4.98371e-09
3.8083e-09
-7.46879e-10
5.99987e-09
3.73233e-09
-7.66147e-10
6.92064e-09
3.65646e-09
-7.93966e-10
7.75049e-09
3.58817e-09
-8.30908e-10
8.48929e-09
3.53262e-09
-8.77383e-10
9.13399e-09
3.4944e-09
-9.3335e-10
3.44621e-09
-9.97694e-10
9.67668e-09
1.3218e-09
4.96937e-09
-7.50831e-10
2.59712e-09
5.00092e-09
-7.45028e-10
3.80472e-09
4.98485e-09
-7.46844e-10
4.92873e-09
4.93217e-09
-7.5623e-10
5.95915e-09
4.856e-09
-7.73346e-10
6.89375e-09
4.77206e-09
-7.98605e-10
7.73464e-09
4.69429e-09
-8.3255e-10
8.48134e-09
4.63116e-09
-8.75502e-10
9.13156e-09
4.58743e-09
-9.27301e-10
4.52693e-09
-9.86441e-10
9.68133e-09
1.28645e-09
5.95144e-09
-7.73101e-10
2.53699e-09
5.99988e-09
-7.66068e-10
3.73133e-09
5.99964e-09
-7.66122e-10
4.85258e-09
5.96065e-09
-7.73315e-10
5.88963e-09
5.89344e-09
-7.87866e-10
6.83538e-09
5.81028e-09
-8.10165e-10
7.68575e-09
5.7268e-09
-8.40695e-10
8.43813e-09
5.65769e-09
-8.79758e-10
9.09141e-09
5.61077e-09
-9.27188e-10
5.54191e-09
-9.81033e-10
9.64732e-09
1.25269e-09
6.84265e-09
-8.0454e-10
2.47793e-09
6.90614e-09
-7.96001e-10
3.65756e-09
6.92044e-09
-7.93975e-10
4.77126e-09
6.89411e-09
-7.98584e-10
5.8065e-09
6.83765e-09
-8.10135e-10
6.75664e-09
6.7617e-09
-8.29065e-10
7.614e-09
6.67792e-09
-8.55807e-10
8.36991e-09
6.60272e-09
-8.90619e-10
9.02175e-09
6.55034e-09
-9.33356e-10
6.47511e-09
-9.81639e-10
9.57944e-09
1.22267e-09
7.64729e-09
-8.45833e-10
2.42464e-09
7.72385e-09
-8.35449e-10
3.58993e-09
7.75071e-09
-8.30948e-10
4.69601e-09
7.73488e-09
-8.3256e-10
5.72627e-09
7.68626e-09
-8.40663e-10
6.67281e-09
7.61633e-09
-8.55738e-10
7.53042e-09
7.53551e-09
-8.78231e-10
8.28609e-09
7.45612e-09
-9.08307e-10
8.93064e-09
7.39378e-09
-9.45712e-10
7.31129e-09
-9.87832e-10
9.4824e-09
1.19852e-09
8.36619e-09
-8.97678e-10
2.38175e-09
8.45371e-09
-8.84989e-10
3.53436e-09
8.48988e-09
-8.77444e-10
4.63348e-09
8.4817e-09
-8.75525e-10
5.65988e-09
8.43797e-09
-8.79723e-10
6.60094e-09
8.3693e-09
-8.90476e-10
7.45109e-09
8.2867e-09
-9.08138e-10
8.19753e-09
8.20026e-09
-9.32653e-10
8.82687e-09
8.12412e-09
-9.63634e-10
8.03366e-09
-9.98541e-10
9.3613e-09
1.18267e-09
8.99586e-09
-9.60465e-10
2.35265e-09
9.09223e-09
-9.44796e-10
3.49583e-09
9.13498e-09
-9.3343e-10
4.58918e-09
9.13221e-09
-9.27328e-10
5.6128e-09
9.09152e-09
-9.27145e-10
6.55074e-09
9.02105e-09
-9.33192e-10
7.39169e-09
8.92975e-09
-9.45481e-10
8.12161e-09
8.82717e-09
-9.63504e-10
8.72635e-09
8.72782e-09
-9.86588e-10
8.62246e-09
-1.01216e-09
9.22315e-09
1.16747e-09
-1.03424e-09
9.53243e-09
2.3198e-09
-1.01418e-09
9.63001e-09
3.44726e-09
-9.97787e-10
9.6779e-09
4.5281e-09
-9.86481e-10
9.68222e-09
5.54299e-09
-9.81008e-10
9.64781e-09
6.47569e-09
-9.81534e-10
9.57949e-09
7.31134e-09
-9.87688e-10
9.48219e-09
8.03298e-09
-9.98425e-10
9.36109e-09
8.62106e-09
-1.01207e-09
9.2232e-09
-1.02587e-09
9.07866e-09
9.07921e-09
1.23389e-09
1.23732e-09
-8.16986e-10
2.37907e-09
1.22526e-09
-8.11931e-10
3.41008e-09
1.19312e-09
-8.15395e-10
4.3286e-09
1.15529e-09
-8.26867e-10
5.13985e-09
1.11645e-09
-8.45998e-10
5.8467e-09
1.07767e-09
-8.72568e-10
6.44982e-09
1.04026e-09
-9.06363e-10
6.94759e-09
1.00587e-09
-9.46975e-10
7.33594e-09
9.76308e-10
-9.93527e-10
9.45054e-10
-1.04467e-09
7.61138e-09
1.22193e-09
2.38099e-09
-8.11894e-10
2.36969e-09
2.37324e-09
-8.06365e-10
3.41483e-09
2.32872e-09
-8.0904e-10
4.34914e-09
2.26586e-09
-8.1943e-10
5.17431e-09
2.19688e-09
-8.37221e-10
5.89328e-09
2.12678e-09
-8.62205e-10
6.50696e-09
2.05842e-09
-8.94148e-10
7.01377e-09
1.99497e-09
-9.32588e-10
7.41003e-09
1.93901e-09
-9.76544e-10
1.87595e-09
-1.02423e-09
7.68985e-09
1.1917e-09
3.40941e-09
-8.15347e-10
2.32527e-09
3.41574e-09
-8.08999e-10
3.37383e-09
3.37685e-09
-8.10438e-10
4.32055e-09
3.30648e-09
-8.19224e-10
5.15905e-09
3.21961e-09
-8.3506e-10
5.88999e-09
3.12765e-09
-8.57766e-10
6.51428e-09
3.03663e-09
-8.8711e-10
7.0299e-09
2.95055e-09
-9.22552e-10
7.43379e-09
2.87287e-09
-9.63029e-10
2.78153e-09
-1.00655e-09
7.72246e-09
1.15565e-09
4.3273e-09
-8.26845e-10
2.26478e-09
4.34828e-09
-8.19392e-10
3.30354e-09
4.32138e-09
-8.19192e-10
4.25347e-09
4.25629e-09
-8.25913e-10
5.10195e-09
4.16445e-09
-8.39286e-10
5.84354e-09
4.05921e-09
-8.59135e-10
6.47715e-09
3.95202e-09
-8.85253e-10
7.00059e-09
3.84947e-09
-9.17094e-10
7.41153e-09
3.75515e-09
-9.53582e-10
3.64049e-09
-9.92564e-10
7.71104e-09
1.11719e-09
5.13879e-09
-8.46013e-10
2.19771e-09
5.17339e-09
-8.37223e-10
3.21892e-09
5.15866e-09
-8.35039e-10
4.1617e-09
5.10311e-09
-8.3926e-10
5.01249e-09
5.0156e-09
-8.49707e-10
5.7617e-09
4.90635e-09
-8.66227e-10
6.40296e-09
4.78814e-09
-8.88618e-10
6.93219e-09
4.67268e-09
-9.16379e-10
7.348e-09
4.56591e-09
-9.48509e-10
4.43375e-09
-9.82646e-10
7.65773e-09
1.07837e-09
5.84601e-09
-8.72619e-10
2.12806e-09
5.89273e-09
-8.62245e-10
3.12876e-09
5.8896e-09
-8.57781e-10
4.05874e-09
5.8437e-09
-8.59122e-10
4.90336e-09
5.76353e-09
-8.66205e-10
5.6534e-09
5.65755e-09
-8.78965e-10
6.29951e-09
5.53499e-09
-8.97208e-10
6.83238e-09
5.40893e-09
-9.20462e-10
7.24929e-09
5.29056e-09
-9.47818e-10
5.1456e-09
-9.76725e-10
7.56584e-09
1.04092e-09
6.44958e-09
-9.06446e-10
2.05965e-09
6.50683e-09
-8.94219e-10
3.0383e-09
6.51425e-09
-8.87158e-10
3.95367e-09
6.47721e-09
-8.85272e-10
4.78795e-09
6.40334e-09
-8.886e-10
5.531e-09
6.30154e-09
-8.97158e-10
6.1754e-09
6.17965e-09
-9.1082e-10
6.70856e-09
6.04739e-09
-9.29113e-10
7.12228e-09
5.91726e-09
-9.5112e-10
5.76255e-09
-9.74255e-10
7.43988e-09
1.00648e-09
6.94785e-09
-9.47089e-10
1.99613e-09
7.0141e-09
-9.32687e-10
2.95219e-09
7.03022e-09
-9.22624e-10
3.85163e-09
7.00079e-09
-9.17129e-10
4.67479e-09
6.93207e-09
-9.16363e-10
5.40792e-09
6.83212e-09
-9.20359e-10
6.04355e-09
6.70943e-09
-9.28988e-10
6.56993e-09
6.57228e-09
-9.41699e-10
6.9753e-09
6.43193e-09
-9.5757e-10
6.27192e-09
-9.74219e-10
7.28612e-09
9.76834e-10
7.33669e-09
-9.9367e-10
1.94e-09
7.41079e-09
-9.76669e-10
2.87425e-09
7.43446e-09
-9.6312e-10
3.75685e-09
7.41201e-09
-9.53624e-10
4.56789e-09
7.34814e-09
-9.48489e-10
5.29138e-09
7.24893e-09
-9.477e-10
5.91597e-09
7.12185e-09
-9.50948e-10
6.43005e-09
6.97573e-09
-9.57473e-10
6.82198e-09
6.82318e-09
-9.66312e-10
6.66127e-09
-9.75265e-10
7.11463e-09
9.45473e-10
-1.04483e-09
7.61249e-09
1.87673e-09
-1.02437e-09
7.69091e-09
2.78256e-09
-1.00666e-09
7.72337e-09
3.64167e-09
-9.92617e-10
7.71173e-09
4.43492e-09
-9.82642e-10
7.65815e-09
5.14643e-09
-9.76653e-10
7.56598e-09
5.76288e-09
-9.74149e-10
7.43983e-09
6.27161e-09
-9.74135e-10
7.28611e-09
6.66034e-09
-9.7521e-10
7.11489e-09
-9.75379e-10
6.93937e-09
6.93992e-09
1.03994e-09
1.04277e-09
-8.26646e-10
1.99956e-09
1.03089e-09
-8.19424e-10
2.85277e-09
1.00053e-09
-8.18711e-10
3.59738e-09
9.63968e-10
-8.238e-10
4.23496e-09
9.25201e-10