/*--------------------------------*- C++ -*----------------------------------*\
| =========                 |                                                 |
| \\      /  F ield         | foam-extend: Open Source CFD                    |
|  \\    /   O peration     | Version:     3.1                                |
|   \\  /    A nd           | Web:         http://www.extend-project.de       |
|    \\/     M anipulation  |                                                 |
\*---------------------------------------------------------------------------*/
FoamFile
{
    version     2.0;
    format      ascii;
    class       pointVectorField;
    location    "0.0005";
    object      pointMotionU;
}
// * * * * * * * * * * * * * * * * * * * * * * * * * * * * * * * * * * * * * //

dimensions      [0 1 -1 0 0 0 0];

internalField   nonuniform List<vector> 
18306
(
(0 0 0)
(0 0 0)
(0 0 0)
(0 0 0)
(0 0 0)
(0 0 0)
(0 0 0)
(0 0 0)
(0 0 0)
(0 0 0)
(0 0 0)
(0 0 0)
(0 0 0)
(0 0 0)
(0 0 0)
(0 0 0)
(0 0 0)
(0 0 0)
(0 0 0)
(0 0 0)
(0 0 0)
(0 0 0)
(0 0 0)
(0 0 0)
(0 0 0)
(0 0 0)
(0 0 0)
(0 0 0)
(0 0 0)
(0 0 0)
(0 0 0)
(0 0 0)
(0 0 0)
(0 0 0)
(0 0 0)
(0 0 0)
(0 0 0)
(0 0 0)
(0 0 0)
(0 0 0)
(0 0 0)
(0 0 0)
(0 0 0)
(0 0 0)
(0 0 0)
(0 0 0)
(0 0 0)
(0 0 0)
(0 0 0)
(0 0 0)
(0 0 0)
(0 0 0)
(0 0 0)
(0 0 0)
(0 0 0)
(0 0 0)
(0 0 0)
(0 0 0)
(0 0 0)
(0 0 0)
(0 0 0)
(0 0 0)
(0 0 0)
(0 0 0)
(0 0 0)
(0 0 0)
(0 0 0)
(0 0 0)
(0 0 0)
(0 0 0)
(0 0 0)
(0 0 0)
(0 0 0)
(0 0 0)
(0 0 0)
(0 0 0)
(0 0 0)
(0 0 0)
(0 0 0)
(0 0 0)
(0 0 0)
(0 0 0)
(0 0 0)
(0 0 0)
(0 0 0)
(0 0 0)
(0 0 0)
(0 0 0)
(0 0 0)
(0 0 0)
(0 0 0)
(0 0 0)
(0 0 0)
(0 0 0)
(0 0 0)
(0 0 0)
(0 0 0)
(0 0 0)
(0 0 0)
(0 0 0)
(0 0 0)
(0 0 0)
(0 0 0)
(0 0 0)
(0 0 0)
(0 0 0)
(0 0 0)
(0 0 0)
(0 0 0)
(0 0 0)
(0 0 0)
(0 0 0)
(0 0 0)
(0 0 0)
(0 0 0)
(0 0 0)
(0 0 0)
(0 0 0)
(0 0 0)
(0 0 0)
(0 0 0)
(0 0 -3.36258e-09)
(-1.28852e-09 0 -3.37397e-09)
(-2.63222e-09 0 -3.41418e-09)
(-4.10327e-09 0 -3.49608e-09)
(-5.79471e-09 0 -3.64468e-09)
(-7.7923e-09 0 -3.8991e-09)
(-1.01622e-08 0 -4.31685e-09)
(-1.29301e-08 -0 -4.98106e-09)
(-1.60377e-08 -0 -6.0098e-09)
(-1.92651e-08 -0 -7.57024e-09)
(-2.21289e-08 -0 -9.93641e-09)
(0 -1.37651e-09 -3.35487e-09)
(-1.27647e-09 -1.3617e-09 -3.36471e-09)
(-2.61807e-09 -1.324e-09 -3.40051e-09)
(-4.09365e-09 -1.28651e-09 -3.47531e-09)
(-5.79003e-09 -1.26271e-09 -3.61387e-09)
(-7.79514e-09 -1.26326e-09 -3.85458e-09)
(-1.01807e-08 -1.3051e-09 -4.25293e-09)
(-1.29853e-08 -1.41339e-09 -4.88764e-09)
(-1.61762e-08 -1.62041e-09 -5.86708e-09)
(-1.95879e-08 -1.96508e-09 -7.3344e-09)
(-2.28133e-08 -2.43642e-09 -9.48992e-09)
(0 -2.79189e-09 -3.33923e-09)
(-1.25047e-09 -2.77314e-09 -3.34437e-09)
(-2.58176e-09 -2.72032e-09 -3.3666e-09)
(-4.06197e-09 -2.65598e-09 -3.41977e-09)
(-5.76749e-09 -2.60685e-09 -3.52835e-09)
(-7.78626e-09 -2.5999e-09 -3.7287e-09)
(-1.02072e-08 -2.66823e-09 -4.07193e-09)
(-1.30995e-08 -2.86122e-09 -4.6265e-09)
(-1.64861e-08 -3.24085e-09 -5.47926e-09)
(-2.0321e-08 -3.87832e-09 -6.73008e-09)
(-2.43958e-08 -4.74375e-09 -8.51568e-09)
(0 -4.31466e-09 -3.33072e-09)
(-1.23177e-09 -4.29768e-09 -3.32832e-09)
(-2.54822e-09 -4.24596e-09 -3.32819e-09)
(-4.02095e-09 -4.17071e-09 -3.34554e-09)
(-5.72646e-09 -4.09565e-09 -3.40593e-09)
(-7.75079e-09 -4.06182e-09 -3.54422e-09)
(-1.01966e-08 -4.12191e-09 -3.80655e-09)
(-1.31695e-08 -4.34583e-09 -4.25181e-09)
(-1.67526e-08 -4.82195e-09 -4.94929e-09)
(-2.10057e-08 -5.652e-09 -5.97209e-09)
(-2.58757e-08 -6.80134e-09 -7.44144e-09)
(0 -6.0328e-09 -3.35509e-09)
(-1.22868e-09 -6.01987e-09 -3.34244e-09)
(-2.53979e-09 -5.97463e-09 -3.31183e-09)
(-3.99754e-09 -5.89832e-09 -3.28047e-09)
(-5.68019e-09 -5.80072e-09 -3.27691e-09)
(-7.68066e-09 -5.7167e-09 -3.33744e-09)
(-1.0109e-08 -5.71452e-09 -3.5053e-09)
(-1.30947e-08 -5.88845e-09 -3.83301e-09)
(-1.67702e-08 -6.34991e-09 -4.38321e-09)
(-2.12628e-08 -7.22582e-09 -5.22446e-09)
(-2.66438e-08 -8.49794e-09 -6.49459e-09)
(0 -8.02079e-09 -3.45059e-09)
(-1.25203e-09 -8.01767e-09 -3.42449e-09)
(-2.57789e-09 -7.99043e-09 -3.35439e-09)
(-4.02797e-09 -7.92298e-09 -3.26173e-09)
(-5.66828e-09 -7.80725e-09 -3.1806e-09)
(-7.59649e-09 -7.65851e-09 -3.15169e-09)
(-9.93839e-09 -7.53849e-09 -3.21978e-09)
(-1.28329e-08 -7.56083e-09 -3.43508e-09)
(-1.64321e-08 -7.8704e-09 -3.85896e-09)
(-2.09019e-08 -8.61461e-09 -4.56858e-09)
(-2.64535e-08 -9.80128e-09 -5.72578e-09)
(0 -1.03311e-08 -3.67254e-09)
(-1.31864e-09 -1.03488e-08 -3.62807e-09)
(-2.69499e-09 -1.03707e-08 -3.50574e-09)
(-4.15973e-09 -1.03445e-08 -3.33598e-09)
(-5.75672e-09 -1.02252e-08 -3.16335e-09)
(-7.5701e-09 -1.00047e-08 -3.03581e-09)
(-9.73413e-09 -9.72581e-09 -3.00152e-09)
(-1.241e-08 -9.49839e-09 -3.11236e-09)
(-1.5749e-08 -9.50318e-09 -3.42946e-09)
(-1.9914e-08 -9.92214e-09 -4.03786e-09)
(-2.52767e-08 -1.07836e-08 -5.1143e-09)
(-0 -1.29707e-08 -4.10048e-09)
(-1.45209e-09 -1.3035e-08 -4.02882e-09)
(-2.93918e-09 -1.31705e-08 -3.83246e-09)
(-4.46082e-09 -1.32587e-08 -3.56177e-09)
(-6.03245e-09 -1.31831e-08 -3.28014e-09)
(-7.71423e-09 -1.28932e-08 -3.04607e-09)
(-9.62566e-09 -1.2419e-08 -2.90951e-09)
(-1.19455e-08 -1.18654e-08 -2.9217e-09)
(-1.48374e-08 -1.14236e-08 -3.14319e-09)
(-1.8442e-08 -1.13288e-08 -3.6611e-09)
(-2.32464e-08 -1.16294e-08 -4.64548e-09)
(-0 -1.58541e-08 -4.84747e-09)
(-1.68216e-09 -1.602e-08 -4.731e-09)
(-3.36793e-09 -1.63979e-08 -4.41973e-09)
(-5.01551e-09 -1.67387e-08 -4.00885e-09)
(-6.60252e-09 -1.68084e-08 -3.5957e-09)
(-8.16106e-09 -1.64854e-08 -3.24977e-09)
(-9.78859e-09 -1.57803e-08 -3.01676e-09)
(-1.16525e-08 -1.48157e-08 -2.93832e-09)
(-1.39337e-08 -1.38051e-08 -3.06863e-09)
(-1.6779e-08 -1.30504e-08 -3.49266e-09)
(-2.06796e-08 -1.26162e-08 -4.3477e-09)
(-0 -1.87201e-08 -6.07392e-09)
(-2.04397e-09 -1.91067e-08 -5.8733e-09)
(-4.04606e-09 -1.99916e-08 -5.36687e-09)
(-5.91877e-09 -2.08395e-08 -4.75254e-09)
(-7.59062e-09 -2.12244e-08 -4.18166e-09)
(-9.05579e-09 -2.09438e-08 -3.72736e-09)
(-1.03918e-08 -1.99904e-08 -3.41501e-09)
(-1.17576e-08 -1.8512e-08 -3.26268e-09)
(-1.33565e-08 -1.67891e-08 -3.30813e-09)
(-1.53584e-08 -1.52378e-08 -3.62161e-09)
(-1.80985e-08 -1.40201e-08 -4.27854e-09)
(-0 -2.10075e-08 -8.03758e-09)
(-2.51847e-09 -2.18369e-08 -7.64837e-09)
(-4.9288e-09 -2.37223e-08 -6.80717e-09)
(-7.11597e-09 -2.54974e-08 -5.908e-09)
(-8.95674e-09 -2.64867e-08 -5.16295e-09)
(-1.03929e-08 -2.64511e-08 -4.61891e-09)
(-1.14614e-08 -2.53868e-08 -4.25142e-09)
(-1.2309e-08 -2.34299e-08 -4.03496e-09)
(-1.31842e-08 -2.08722e-08 -3.97836e-09)
(-1.43675e-08 -1.82071e-08 -4.11691e-09)
(-1.61098e-08 -1.60359e-08 -4.50071e-09)
(0 0 -6.68597e-09)
(-2.09239e-09 0 -6.70011e-09)
(-4.28254e-09 0 -6.74952e-09)
(-6.6968e-09 0 -6.85129e-09)
(-9.49842e-09 0 -7.03785e-09)
(-1.2845e-08 -0 -7.35954e-09)
(-1.68731e-08 -0 -7.89038e-09)
(-2.16731e-08 -0 -8.73918e-09)
(-2.72306e-08 -0 -1.00666e-08)
(-3.33228e-08 -0 -1.21182e-08)
(-3.94092e-08 -0 -1.53389e-08)
(0 -2.30845e-09 -6.66605e-09)
(-2.07088e-09 -2.27983e-09 -6.67731e-09)
(-4.25547e-09 -2.20477e-09 -6.7186e-09)
(-6.67447e-09 -2.12353e-09 -6.80726e-09)
(-9.4809e-09 -2.06036e-09 -6.97511e-09)
(-1.28358e-08 -2.03549e-09 -7.2711e-09)
(-1.68846e-08 -2.08076e-09 -7.76543e-09)
(-2.17376e-08 -2.24342e-09 -8.55813e-09)
(-2.74191e-08 -2.58517e-09 -9.79075e-09)
(-3.37859e-08 -3.18273e-09 -1.1661e-08)
(-4.03794e-08 -4.0367e-09 -1.44823e-08)
(0 -4.68445e-09 -6.61582e-09)
(-2.02221e-09 -4.64541e-09 -6.61848e-09)
(-4.18259e-09 -4.53271e-09 -6.63485e-09)
(-6.60009e-09 -4.38672e-09 -6.68358e-09)
(-9.41017e-09 -4.25546e-09 -6.79585e-09)
(-1.27734e-08 -4.18866e-09 -7.01654e-09)
(-1.68626e-08 -4.24852e-09 -7.40696e-09)
(-2.18356e-08 -4.5277e-09 -8.047e-09)
(-2.78011e-08 -5.14496e-09 -9.0357e-09)
(-3.47926e-08 -6.24164e-09 -1.04817e-08)
(-4.26406e-08 -7.80558e-09 -1.25615e-08)
(0 -7.2469e-09 -6.55636e-09)
(-1.98201e-09 -7.20686e-09 -6.54513e-09)
(-4.10639e-09 -7.08298e-09 -6.52035e-09)
(-6.49642e-09 -6.89703e-09 -6.50291e-09)
(-9.28708e-09 -6.69277e-09 -6.52568e-09)
(-1.2635e-08 -6.5455e-09 -6.63029e-09)
(-1.67345e-08 -6.55312e-09 -6.86782e-09)
(-2.18007e-08 -6.84705e-09 -7.29844e-09)
(-2.80344e-08 -7.59679e-09 -7.98489e-09)
(-3.56297e-08 -9.00389e-09 -8.97623e-09)
(-4.46584e-08 -1.10702e-08 -1.04075e-08)
(-0 -1.0151e-08 -6.5216e-09)
(-1.96513e-09 -1.01135e-08 -6.49125e-09)
(-4.06576e-09 -9.98618e-09 -6.40998e-09)
(-6.41067e-09 -9.77416e-09 -6.30217e-09)
(-9.13633e-09 -9.4979e-09 -6.20557e-09)
(-1.241e-08 -9.2235e-09 -6.16382e-09)
(-1.6437e-08 -9.07741e-09 -6.22149e-09)
(-2.14694e-08 -9.23552e-09 -6.42443e-09)
(-2.77861e-08 -9.91159e-09 -6.81828e-09)
(-3.56861e-08 -1.1357e-08 -7.43509e-09)
(-4.54534e-08 -1.36263e-08 -8.4387e-09)
(-0 -1.35361e-08 -6.56069e-09)
(-1.99136e-09 -1.35103e-08 -6.50496e-09)
(-4.0998e-09 -1.33969e-08 -6.34969e-09)
(-6.40798e-09 -1.31717e-08 -6.12697e-09)
(-9.02968e-09 -1.28253e-08 -5.88427e-09)
(-1.21388e-08 -1.23911e-08 -5.67234e-09)
(-1.59662e-08 -1.19861e-08 -5.53723e-09)
(-2.07788e-08 -1.18221e-08 -5.51875e-09)
(-2.68852e-08 -1.21736e-08 -5.65507e-09)
(-3.46466e-08 -1.33326e-08 -5.98689e-09)
(-4.45989e-08 -1.54232e-08 -6.72927e-09)
(-0 -1.7517e-08 -6.7443e-09)
(-2.09152e-09 -1.75203e-08 -6.65361e-09)
(-4.26816e-09 -1.74698e-08 -6.39896e-09)
(-6.57533e-09 -1.72803e-08 -6.02925e-09)
(-9.0869e-09 -1.68803e-08 -5.61116e-09)
(-1.19524e-08 -1.6265e-08 -5.20828e-09)
(-1.54164e-08 -1.55208e-08 -4.87182e-09)
(-1.97837e-08 -1.48552e-08 -4.64281e-09)
(-2.53607e-08 -1.46072e-08 -4.55631e-09)
(-3.25023e-08 -1.51336e-08 -4.66289e-09)
(-4.20321e-08 -1.66115e-08 -5.21761e-09)
(-0 -2.21546e-08 -7.17575e-09)
(-2.30927e-09 -2.22278e-08 -7.03252e-09)
(-4.65942e-09 -2.23413e-08 -6.63473e-09)
(-7.03854e-09 -2.23001e-08 -6.06851e-09)
(-9.46893e-09 -2.19146e-08 -5.43591e-09)
(-1.2058e-08 -2.11102e-08 -4.82052e-09)
(-1.50256e-08 -1.99539e-08 -4.2776e-09)
(-1.87071e-08 -1.86463e-08 -3.84569e-09)
(-2.34327e-08 -1.75495e-08 -3.56168e-09)
(-2.95196e-08 -1.71167e-08 -3.47737e-09)
(-3.79894e-08 -1.75615e-08 -3.84954e-09)
(-0 -2.73935e-08 -8.00886e-09)
(-2.70082e-09 -2.76226e-08 -7.77759e-09)
(-5.3824e-09 -2.80992e-08 -7.15376e-09)
(-7.95706e-09 -2.84191e-08 -6.30809e-09)
(-1.03789e-08 -2.82006e-08 -5.40667e-09)
(-1.27058e-08 -2.7252e-08 -4.55568e-09)
(-1.51214e-08 -2.56095e-08 -3.80656e-09)
(-1.79459e-08 -2.35081e-08 -3.18553e-09)
(-2.15454e-08 -2.13541e-08 -2.72674e-09)
(-2.6247e-08 -1.97199e-08 -2.47491e-09)
(-3.30614e-08 -1.88314e-08 -2.64614e-09)
(-0 -3.29499e-08 -9.48121e-09)
(-3.33488e-09 -3.35169e-08 -9.08185e-09)
(-6.56472e-09 -3.47613e-08 -8.06517e-09)
(-9.5171e-09 -3.583e-08 -6.8004e-09)
(-1.20582e-08 -3.60326e-08 -5.55861e-09)
(-1.41798e-08 -3.50441e-08 -4.4566e-09)
(-1.60341e-08 -3.28696e-08 -3.51466e-09)
(-1.79348e-08 -2.97901e-08 -2.72882e-09)
(-2.02968e-08 -2.6333e-08 -2.11976e-09)
(-2.34911e-08 -2.32757e-08 -1.73041e-09)
(-2.82227e-08 -2.09894e-08 -1.71056e-09)
(-0 -3.81665e-08 -1.20181e-08)
(-4.19614e-09 -3.93816e-08 -1.12521e-08)
(-8.16414e-09 -4.21413e-08 -9.54304e-09)
(-1.16794e-08 -4.46049e-08 -7.67086e-09)
(-1.45161e-08 -4.56827e-08 -6.03182e-09)
(-1.65734e-08 -4.49832e-08 -4.69708e-09)
(-1.79323e-08 -4.25061e-08 -3.60145e-09)
(-1.88885e-08 -3.8502e-08 -2.67554e-09)
(-1.99432e-08 -3.35136e-08 -1.91234e-09)
(-2.16738e-08 -2.84588e-08 -1.3778e-09)
(-2.45923e-08 -2.44417e-08 -1.163e-09)
(0 0 -1.00461e-08)
(-2.10188e-09 0 -1.00572e-08)
(-4.31874e-09 0 -1.00948e-08)
(-6.79454e-09 0 -1.01697e-08)
(-9.71248e-09 0 -1.03023e-08)
(-1.3255e-08 0 -1.05234e-08)
(-1.75924e-08 -0 -1.08778e-08)
(-2.28622e-08 -0 -1.14323e-08)
(-2.91204e-08 -0 -1.2292e-08)
(-3.62533e-08 -0 -1.36375e-08)
(-4.39177e-08 -0 -1.58426e-08)
(0 -2.52102e-09 -1.00153e-08)
(-2.07573e-09 -2.48052e-09 -1.00228e-08)
(-4.28192e-09 -2.37143e-09 -1.00504e-08)
(-6.75645e-09 -2.2403e-09 -1.01091e-08)
(-9.67199e-09 -2.11682e-09 -1.02186e-08)
(-1.32147e-08 -2.02741e-09 -1.0408e-08)
(-1.7564e-08 -2.01296e-09 -1.07177e-08)
(-2.2878e-08 -2.13346e-09 -1.12041e-08)
(-2.92506e-08 -2.46778e-09 -1.195e-08)
(-3.66408e-08 -3.1151e-09 -1.30814e-08)
(-4.47481e-08 -4.10449e-09 -1.48427e-08)
(0 -5.11623e-09 -9.93027e-09)
(-2.01336e-09 -5.05515e-09 -9.92719e-09)
(-4.17948e-09 -4.87715e-09 -9.92427e-09)
(-6.63322e-09 -4.63032e-09 -9.93406e-09)
(-9.52895e-09 -4.37301e-09 -9.97542e-09)
(-1.30525e-08 -4.16767e-09 -1.00727e-08)
(-1.74119e-08 -4.09375e-09 -1.02556e-08)
(-2.28143e-08 -4.26854e-09 -1.05568e-08)
(-2.94359e-08 -4.84424e-09 -1.10102e-08)
(-3.74029e-08 -6.00509e-09 -1.16373e-08)
(-4.66803e-08 -7.79964e-09 -1.25282e-08)
(-0 -7.91753e-09 -9.80696e-09)
(-1.95227e-09 -7.84603e-09 -9.78682e-09)
(-4.05674e-09 -7.62712e-09 -9.73359e-09)
(-6.44967e-09 -7.28822e-09 -9.66243e-09)
(-9.28387e-09 -6.88387e-09 -9.59424e-09)
(-1.27412e-08 -6.5073e-09 -9.54952e-09)
(-1.70522e-08 -6.28115e-09 -9.5453e-09)
(-2.24837e-08 -6.37156e-09 -9.59077e-09)
(-2.9305e-08 -6.99555e-09 -9.67674e-09)
(-3.77987e-08 -8.41491e-09 -9.7523e-09)
(-4.81825e-08 -1.07381e-08 -9.86328e-09)
(-0 -1.10994e-08 -9.66793e-09)
(-1.90999e-09 -1.10211e-08 -9.62422e-09)
(-3.95765e-09 -1.07683e-08 -9.50192e-09)
(-6.25897e-09 -1.03486e-08 -9.32038e-09)
(-8.96528e-09 -9.78958e-09 -9.10607e-09)
(-1.2269e-08 -9.17485e-09 -8.88178e-09)
(-1.64128e-08 -8.66111e-09 -8.65646e-09)
(-2.17014e-08 -8.46744e-09 -8.42114e-09)
(-2.84861e-08 -8.8664e-09 -8.14415e-09)
(-3.71567e-08 -1.0183e-08 -7.75064e-09)
(-4.8191e-08 -1.26396e-08 -7.32813e-09)
(-0 -1.48239e-08 -9.54316e-09)
(-1.91074e-09 -1.47487e-08 -9.46815e-09)
(-3.92983e-09 -1.44796e-08 -9.25538e-09)
(-6.13794e-09 -1.39888e-08 -8.93341e-09)
(-8.65742e-09 -1.32679e-08 -8.5401e-09)
(-1.16851e-08 -1.23628e-08 -8.10618e-09)
(-1.5491e-08 -1.14198e-08 -7.64182e-09)
(-2.03967e-08 -1.07011e-08 -7.13031e-09)
(-2.67834e-08 -1.05491e-08 -6.5275e-09)
(-3.51081e-08 -1.13393e-08 -5.76385e-09)
(-4.61784e-08 -1.34314e-08 -5.00001e-09)
(-0 -1.92363e-08 -9.47389e-09)
(-1.99228e-09 -1.91829e-08 -9.35604e-09)
(-4.04626e-09 -1.89492e-08 -9.02183e-09)
(-6.19227e-09 -1.84352e-08 -8.51981e-09)
(-8.50271e-09 -1.75598e-08 -7.91066e-09)
(-1.11443e-08 -1.63241e-08 -7.24018e-09)
(-1.44006e-08 -1.48392e-08 -6.52444e-09)
(-1.86365e-08 -1.33632e-08 -5.74733e-09)
(-2.42309e-08 -1.23132e-08 -4.85937e-09)
(-3.16346e-08 -1.21402e-08 -3.79934e-09)
(-4.20279e-08 -1.33113e-08 -2.79126e-09)
(-0 -2.44409e-08 -9.52115e-09)
(-2.20817e-09 -2.44527e-08 -9.33933e-09)
(-4.41502e-09 -2.43607e-08 -8.83105e-09)
(-6.57592e-09 -2.39389e-08 -8.08809e-09)
(-8.69741e-09 -2.297e-08 -7.21305e-09)
(-1.08955e-08 -2.13752e-08 -6.27638e-09)
(-1.34266e-08 -1.92453e-08 -5.30074e-09)
(-1.66902e-08 -1.68297e-08 -4.26662e-09)
(-2.11009e-08 -1.45793e-08 -3.13122e-09)
(-2.70688e-08 -1.3056e-08 -1.83254e-09)
(-3.60197e-08 -1.27803e-08 -6.13101e-10)
(-0 -3.04485e-08 -9.78302e-09)
(-2.62801e-09 -3.06154e-08 -9.49518e-09)
(-5.17129e-09 -3.08709e-08 -8.71455e-09)
(-7.48691e-09 -3.07574e-08 -7.62952e-09)
(-9.49409e-09 -2.9842e-08 -6.41747e-09)
(-1.12472e-08 -2.79133e-08 -5.17858e-09)
(-1.29647e-08 -2.503e-08 -3.93675e-09)
(-1.50394e-08 -2.14884e-08 -2.66524e-09)
(-1.79461e-08 -1.78053e-08 -1.32888e-09)
(-2.21076e-08 -1.46778e-08 1.46513e-10)
(-2.89229e-08 -1.26139e-08 1.54424e-09)
(-0 -3.70786e-08 -1.04328e-08)
(-3.33778e-09 -3.75856e-08 -9.94555e-09)
(-6.47623e-09 -3.85983e-08 -8.69512e-09)
(-9.15983e-09 -3.91798e-08 -7.09616e-09)
(-1.11955e-08 -3.856e-08 -5.45006e-09)
(-1.25556e-08 -3.63785e-08 -3.87562e-09)
(-1.34255e-08 -3.26596e-08 -2.37029e-09)
(-1.42123e-08 -2.77656e-08 -8.88353e-10)
(-1.54816e-08 -2.23766e-08 6.02202e-10)
(-1.77477e-08 -1.74592e-08 2.14987e-09)
(-2.2043e-08 -1.36636e-08 3.56312e-09)
(-0 -4.3859e-08 -1.18255e-08)
(-4.34161e-09 -4.49942e-08 -1.09306e-08)
(-8.33094e-09 -4.75149e-08 -8.86101e-09)
(-1.1638e-08 -4.94529e-08 -6.52127e-09)
(-1.39514e-08 -4.96109e-08 -4.36706e-09)
(-1.51251e-08 -4.75473e-08 -2.47427e-09)
(-1.52554e-08 -4.32666e-08 -7.54575e-10)
(-1.47357e-08 -3.70882e-08 8.94211e-10)
(-1.42651e-08 -2.9724e-08 2.50771e-09)
(-1.4711e-08 -2.24011e-08 4.01013e-09)
(-1.68576e-08 -1.65697e-08 5.29624e-09)
(0 0 -1.35447e-08)
(-1.28963e-09 0 -1.35605e-08)
(-2.68234e-09 0 -1.36081e-08)
(-4.29654e-09 0 -1.36881e-08)
(-6.27223e-09 0 -1.38031e-08)
(-8.74659e-09 0 -1.39563e-08)
(-1.18443e-08 0 -1.41511e-08)
(-1.56608e-08 -0 -1.43933e-08)
(-2.02241e-08 -0 -1.46999e-08)
(-2.54327e-08 -0 -1.51228e-08)
(-3.10216e-08 -0 -1.5822e-08)
(0 -2.01481e-09 -1.35189e-08)
(-1.26664e-09 -1.96654e-09 -1.35314e-08)
(-2.64483e-09 -1.83332e-09 -1.35697e-08)
(-4.2487e-09 -1.65627e-09 -1.36349e-08)
(-6.21181e-09 -1.46406e-09 -1.37289e-08)
(-8.67502e-09 -1.28443e-09 -1.38537e-08)
(-1.17716e-08 -1.15926e-09 -1.40094e-08)
(-1.56147e-08 -1.1484e-09 -1.41941e-08)
(-2.02639e-08 -1.32999e-09 -1.44083e-08)
(-2.56751e-08 -1.80105e-09 -1.46653e-08)
(-3.16153e-08 -2.62084e-09 -1.50499e-08)
(0 -4.08401e-09 -1.34452e-08)
(-1.20822e-09 -4.00377e-09 -1.34478e-08)
(-2.53753e-09 -3.76912e-09 -1.34579e-08)
(-4.09826e-09 -3.4242e-09 -1.34785e-08)
(-6.01283e-09 -3.02437e-09 -1.35111e-08)
(-8.42494e-09 -2.6316e-09 -1.35541e-08)
(-1.14938e-08 -2.32633e-09 -1.35996e-08)
(-1.53758e-08 -2.22504e-09 -1.36282e-08)
(-2.02018e-08 -2.47915e-09 -1.36046e-08)
(-2.60605e-08 -3.27114e-09 -1.34675e-08)
(-3.29255e-08 -4.72453e-09 -1.3203e-08)
(0 -6.30784e-09 -1.33296e-08)
(-1.1399e-09 -6.20423e-09 -1.33165e-08)
(-2.39177e-09 -5.89097e-09 -1.32808e-08)
(-3.86173e-09 -5.39396e-09 -1.32283e-08)
(-5.67078e-09 -4.76563e-09 -1.3163e-08)
(-7.96379e-09 -4.09569e-09 -1.30809e-08)
(-1.0923e-08 -3.50446e-09 -1.29644e-08)
(-1.47592e-08 -3.15619e-09 -1.27767e-08)
(-1.96852e-08 -3.26654e-09 -1.24517e-08)
(-2.59199e-08 -4.09418e-09 -1.18752e-08)
(-3.36655e-08 -5.88106e-09 -1.10152e-08)
(0 -8.81852e-09 -1.31773e-08)
(-1.077e-09 -8.69518e-09 -1.3143e-08)
(-2.24268e-09 -8.31033e-09 -1.30455e-08)
(-3.58021e-09 -7.66888e-09 -1.28948e-08)
(-5.20554e-09 -6.79653e-09 -1.27005e-08)
(-7.27324e-09 -5.77373e-09 -1.24615e-08)
(-9.98114e-09 -4.75032e-09 -1.21548e-08)
(-1.35775e-08 -3.93786e-09 -1.17301e-08)
(-1.83498e-08 -3.60539e-09 -1.11051e-08)
(-2.46124e-08 -4.07251e-09 -1.01494e-08)
(-3.28451e-08 -5.76478e-09 -8.87434e-09)
(-0 -1.17335e-08 -1.29916e-08)
(-1.04214e-09 -1.16005e-08 -1.29297e-08)
(-2.13416e-09 -1.11624e-08 -1.27531e-08)
(-3.32016e-09 -1.03859e-08 -1.248e-08)
(-4.68723e-09 -9.25821e-09 -1.21303e-08)
(-6.39076e-09 -7.82102e-09 -1.17108e-08)
(-8.65346e-09 -6.21307e-09 -1.1201e-08)
(-1.17459e-08 -4.68423e-09 -1.05459e-08)
(-1.59866e-08 -3.56256e-09 -9.65383e-09)
(-2.17538e-08 -3.21413e-09 -8.40016e-09)
(-2.98974e-08 -4.2787e-09 -6.86154e-09)
(-0 -1.51502e-08 -1.27732e-08)
(-1.07086e-09 -1.50268e-08 -1.26748e-08)
(-2.13461e-09 -1.45861e-08 -1.2395e-08)
(-3.1789e-09 -1.37209e-08 -1.1969e-08)
(-4.24116e-09 -1.23423e-08 -1.14363e-08)
(-5.44877e-09 -1.04439e-08 -1.08172e-08)
(-7.03527e-09 -8.12888e-09 -1.00985e-08)
(-9.31213e-09 -5.64333e-09 -9.22746e-09)
(-1.26052e-08 -3.37912e-09 -8.10986e-09)
(-1.72973e-08 -1.76802e-09 -6.62926e-09)
(-2.46495e-08 -1.62266e-09 -4.91895e-09)
(-0 -1.9125e-08 -1.2523e-08)
(-1.21315e-09 -1.90531e-08 -1.23722e-08)
(-2.34403e-09 -1.87129e-08 -1.19501e-08)
(-3.29947e-09 -1.78683e-08 -1.13257e-08)
(-4.04818e-09 -1.6293e-08 -1.05733e-08)
(-4.67e-09 -1.39e-08 -9.73554e-09)
(-5.37883e-09 -1.07717e-08 -8.80758e-09)
(-6.5179e-09 -7.14422e-09 -7.73676e-09)
(-8.4623e-09 -3.45188e-09 -6.43897e-09)
(-1.15712e-08 -2.22255e-10 -4.79892e-09)
(-1.73713e-08 1.6615e-09 -2.97073e-09)
(-0 -2.36318e-08 -1.22511e-08)
(-1.53351e-09 -2.36963e-08 -1.20174e-08)
(-2.88857e-09 -2.36511e-08 -1.13821e-08)
(-3.86701e-09 -2.3028e-08 -1.0486e-08)
(-4.34538e-09 -2.13868e-08 -9.46234e-09)
(-4.34085e-09 -1.85118e-08 -8.38197e-09)
(-4.04055e-09 -1.44602e-08 -7.24728e-09)
(-3.80278e-09 -9.52301e-09 -6.00596e-09)
(-4.09104e-09 -4.2223e-09 -4.58707e-09)
(-5.28471e-09 7.9929e-10 -2.8653e-09)
(-8.89146e-09 4.70249e-09 -9.85156e-10)
(-0 -2.84865e-08 -1.20009e-08)
(-2.1098e-09 -2.88591e-08 -1.16193e-08)
(-3.91679e-09 -2.94843e-08 -1.06315e-08)
(-5.09875e-09 -2.94282e-08 -9.34049e-09)
(-5.41285e-09 -2.79262e-08 -7.97587e-09)
(-4.79166e-09 -2.46244e-08 -6.63119e-09)
(-3.39705e-09 -1.95586e-08 -5.29891e-09)
(-1.63833e-09 -1.31102e-08 -3.92286e-09)
(-1.2271e-10 -5.99451e-09 -2.44283e-09)
(6.04692e-10 8.40707e-10 -7.63221e-10)
(-6.68008e-10 6.44969e-09 9.67285e-10)
(-0 -3.32641e-08 -1.19101e-08)
(-2.96536e-09 -3.42268e-08 -1.12557e-08)
(-5.48429e-09 -3.62094e-08 -9.68232e-09)
(-7.14446e-09 -3.73288e-08 -7.84491e-09)
(-7.57397e-09 -3.64269e-08 -6.09499e-09)
(-6.57768e-09 -3.30795e-08 -4.50872e-09)
(-4.22554e-09 -2.73071e-08 -3.02944e-09)
(-9.2687e-10 -1.94622e-08 -1.57322e-09)
(2.53137e-09 -1.03293e-08 -9.01582e-11)
(5.06833e-09 -1.28755e-09 1.38377e-09)
(5.68134e-09 6.07399e-09 2.79273e-09)
(0 0 -1.71141e-08)
(9.07355e-11 0 -1.71513e-08)
(1.0572e-10 0 -1.72599e-08)
(-2.16111e-11 0 -1.7434e-08)
(-3.45934e-10 0 -1.76663e-08)
(-9.08768e-10 0 -1.79471e-08)
(-1.72718e-09 0 -1.82605e-08)
(-2.77327e-09 0 -1.85832e-08)
(-3.94089e-09 -0 -1.88843e-08)
(-4.99788e-09 -0 -1.91321e-08)
(-5.51918e-09 -0 -1.93173e-08)
(0 -1.06491e-09 -1.71175e-08)
(1.0052e-10 -1.01494e-09 -1.71523e-08)
(1.28179e-10 -8.73961e-10 -1.72543e-08)
(1.71068e-11 -6.6961e-10 -1.74181e-08)
(-2.88672e-10 -4.2479e-10 -1.76365e-08)
(-8.35009e-10 -1.64644e-10 -1.78992e-08)
(-1.6477e-09 7.39991e-11 -1.81888e-08)
(-2.71511e-09 2.40566e-10 -1.84789e-08)
(-3.96047e-09 2.70237e-10 -1.87323e-08)
(-5.20668e-09 8.50872e-11 -1.89029e-08)
(-6.1162e-09 -3.98497e-10 -1.89625e-08)
(0 -2.15014e-09 -1.71277e-08)
(1.29319e-10 -2.05989e-09 -1.71555e-08)
(1.95539e-10 -1.79566e-09 -1.72376e-08)
(1.36203e-10 -1.38901e-09 -1.7371e-08)
(-1.07465e-10 -8.82495e-10 -1.7549e-08)
(-5.91884e-10 -3.27762e-10 -1.77596e-08)
(-1.367e-09 2.05662e-10 -1.79828e-08)
(-2.46323e-09 6.19918e-10 -1.81849e-08)
(-3.87363e-09 7.88344e-10 -1.83147e-08)
(-5.54324e-09 5.61004e-10 -1.82992e-08)
(-7.32206e-09 -2.50883e-10 -1.80875e-08)
(0 -3.29719e-09 -1.71439e-08)
(1.73886e-10 -3.17309e-09 -1.71609e-08)
(3.03233e-10 -2.80147e-09 -1.72119e-08)
(3.35843e-10 -2.20071e-09 -1.7297e-08)
(2.11528e-10 -1.41078e-09 -1.74122e-08)
(-1.39046e-10 -5.02098e-10 -1.75452e-08)
(-7.9468e-10 4.26359e-10 -1.76726e-08)
(-1.83832e-09 1.23724e-09 -1.77541e-08)
(-3.34431e-09 1.7497e-09 -1.77271e-08)
(-5.37666e-09 1.7507e-09 -1.75007e-08)
(-7.99319e-09 8.85505e-10 -1.70291e-08)
(0 -4.55557e-09 -1.71619e-08)
(2.25075e-10 -4.40278e-09 -1.71652e-08)
(4.35659e-10 -3.93535e-09 -1.71765e-08)
(6.00907e-10 -3.1507e-09 -1.71994e-08)
(6.67437e-10 -2.06399e-09 -1.72349e-08)
(5.54757e-10 -7.36105e-10 -1.72745e-08)
(1.57836e-10 7.15364e-10 -1.72933e-08)
(-6.50816e-10 2.11924e-09 -1.72471e-08)
(-2.01797e-09 3.25068e-09 -1.70688e-08)
(-4.09927e-09 3.84618e-09 -1.66647e-08)
(-7.21775e-09 3.31946e-09 -1.60104e-08)
(0 -5.94923e-09 -1.71726e-08)
(2.66327e-10 -5.77992e-09 -1.71593e-08)
(5.61693e-10 -5.24307e-09 -1.71232e-08)
(8.91451e-10 -4.29651e-09 -1.70736e-08)
(1.22392e-09 -2.91372e-09 -1.70187e-08)
(1.47913e-09 -1.1182e-09 -1.69567e-08)
(1.52863e-09 9.84406e-10 -1.68674e-08)
(1.2085e-09 3.19581e-09 -1.67065e-08)
(3.29831e-10 5.25124e-09 -1.6406e-08)
(-1.3269e-09 6.84901e-09 -1.58793e-08)
(-4.44112e-09 7.14037e-09 -1.51234e-08)
(-0 -7.46357e-09 -1.7159e-08)
(2.70911e-10 -7.30106e-09 -1.71257e-08)
(6.30097e-10 -6.75451e-09 -1.70332e-08)
(1.13705e-09 -5.70672e-09 -1.69006e-08)
(1.79948e-09 -4.05317e-09 -1.67479e-08)
(2.55508e-09 -1.76512e-09 -1.65832e-08)
(3.26562e-09 1.08433e-09 -1.63936e-08)
(3.72993e-09 4.29891e-09 -1.61405e-08)
(3.73021e-09 7.56868e-09 -1.57579e-08)
(3.01938e-09 1.05419e-08 -1.51674e-08)
(5.29499e-10 1.21571e-08 -1.43791e-08)
(-0 -9.0204e-09 -1.70938e-08)
(2.01485e-10 -8.911e-09 -1.70351e-08)
(5.67439e-10 -8.46998e-09 -1.68735e-08)
(1.23152e-09 -7.44718e-09 -1.66443e-08)
(2.26156e-09 -5.6003e-09 -1.63859e-08)
(3.62891e-09 -2.81927e-09 -1.61214e-08)
(5.1989e-09 8.43773e-10 -1.58465e-08)
(6.74364e-09 5.19919e-09 -1.55274e-08)
(7.98396e-09 9.88658e-09 -1.51068e-08)
(8.66199e-09 1.44822e-08 -1.45107e-08)
(7.45547e-09 1.78506e-08 -1.37496e-08)
(-0 -1.04371e-08 -1.69393e-08)
(1.08879e-11 -1.04724e-08 -1.68462e-08)
(2.80104e-10 -1.0351e-08 -1.65945e-08)
(1.03647e-09 -9.576e-09 -1.6248e-08)
(2.43026e-09 -7.6874e-09 -1.58737e-08)
(4.48553e-09 -4.45607e-09 -1.55135e-08)
(7.07465e-09 8.00278e-11 -1.51732e-08)
(9.92848e-09 5.66963e-09 -1.48232e-08)
(1.26614e-08 1.18474e-08 -1.44129e-08)
(1.49835e-08 1.81045e-08 -1.38667e-08)
(1.55621e-08 2.33765e-08 -1.31907e-08)
(-0 -1.13597e-08 -1.66525e-08)
(-3.54609e-10 -1.1727e-08 -1.65075e-08)
(-3.38434e-10 -1.23287e-08 -1.61283e-08)
(3.93487e-10 -1.21663e-08 -1.5632e-08)
(2.09946e-09 -1.04546e-08 -1.51283e-08)
(4.8771e-09 -6.84907e-09 -1.468e-08)
(8.61025e-09 -1.39598e-09 -1.43e-08)
(1.29449e-08 5.53716e-09 -1.39607e-08)
(1.73165e-08 1.32815e-08 -1.36109e-08)
(2.12167e-08 2.10278e-08 -1.31768e-08)
(2.34656e-08 2.76555e-08 -1.26653e-08)
(-0 -1.11294e-08 -1.61933e-08)
(-9.31692e-10 -1.2208e-08 -1.59775e-08)
(-1.38844e-09 -1.42735e-08 -1.54224e-08)
(-9.33763e-10 -1.53556e-08 -1.47458e-08)
(8.11986e-10 -1.42938e-08 -1.41082e-08)
(4.06466e-09 -1.07134e-08 -1.35869e-08)
(8.78834e-09 -4.69031e-09 -1.31952e-08)
(1.46144e-08 3.39192e-09 -1.2906e-08)
(2.07819e-08 1.27592e-08 -1.26683e-08)
(2.61566e-08 2.20715e-08 -1.2429e-08)
(2.96714e-08 2.98309e-08 -1.21354e-08)
(0 0 -2.03967e-08)
(1.64238e-09 0 -2.04657e-08)
(3.22678e-09 0 -2.06684e-08)
(4.73196e-09 0 -2.0998e-08)
(6.18532e-09 0 -2.14494e-08)
(7.63685e-09 0 -2.20179e-08)
(9.17199e-09 0 -2.26965e-08)
(1.09377e-08 0 -2.34722e-08)
(1.31768e-08 0 -2.43205e-08)
(1.62757e-08 0 -2.51981e-08)
(2.09015e-08 0 -2.60394e-08)
(0 -8.24349e-11 -2.04447e-08)
(1.62944e-09 -3.64466e-11 -2.05125e-08)
(3.21642e-09 9.60406e-11 -2.07115e-08)
(4.73611e-09 3.02442e-10 -2.10358e-08)
(6.20543e-09 5.66904e-10 -2.14806e-08)
(7.66885e-09 8.68133e-10 -2.20412e-08)
(9.20223e-09 1.17605e-09 -2.27105e-08)
(1.09357e-08 1.4514e-09 -2.34755e-08)
(1.30803e-08 1.64532e-09 -2.43124e-08)
(1.5956e-08 1.70171e-09 -2.51799e-08)
(2.0056e-08 1.52217e-09 -2.60153e-08)
(0 -1.60207e-10 -2.05867e-08)
(1.60214e-09 -7.14181e-11 -2.06504e-08)
(3.19234e-09 1.8893e-10 -2.08385e-08)
(4.74808e-09 6.03953e-10 -2.11476e-08)
(6.26682e-09 1.1464e-09 -2.15735e-08)
(7.77243e-09 1.7773e-09 -2.21117e-08)
(9.31633e-09 2.44093e-09 -2.27555e-08)
(1.09839e-08 3.06178e-09 -2.34921e-08)
(1.29068e-08 3.5429e-09 -2.42978e-08)
(1.52675e-08 3.77246e-09 -2.51372e-08)
(1.83462e-08 3.52398e-09 -2.59682e-08)
(0 -2.23499e-10 -2.08199e-08)
(1.58346e-09 -9.69635e-11 -2.08781e-08)
(3.18176e-09 2.79748e-10 -2.10507e-08)
(4.78779e-09 8.97549e-10 -2.13376e-08)
(6.39318e-09 1.73172e-09 -2.17366e-08)
(7.99413e-09 2.73438e-09 -2.22441e-08)
(9.60384e-09 3.83126e-09 -2.28541e-08)
(1.1252e-08 4.9163e-09 -2.35544e-08)
(1.29808e-08 5.84987e-09 -2.43225e-08)
(1.48446e-08 6.47164e-09 -2.51277e-08)
(1.69319e-08 6.37298e-09 -2.59356e-08)
(0 -2.45149e-10 -2.1141e-08)
(1.57198e-09 -8.91307e-11 -2.11936e-08)
(3.19221e-09 3.83157e-10 -2.13495e-08)
(4.87043e-09 1.18293e-09 -2.16113e-08)
(6.60488e-09 2.30785e-09 -2.19806e-08)
(8.37749e-09 3.71997e-09 -2.24564e-08)
(1.01607e-08 5.3371e-09 -2.30342e-08)
(1.19274e-08 7.03168e-09 -2.37037e-08)
(1.36433e-08 8.62898e-09 -2.4445e-08)
(1.52665e-08 9.92849e-09 -2.5231e-08)
(1.66679e-08 1.02886e-08 -2.60136e-08)
(0 -1.61157e-10 -2.15461e-08)
(1.55853e-09 7.79343e-12 -2.15935e-08)
(3.2078e-09 5.34372e-10 -2.17339e-08)
(4.98639e-09 1.47041e-09 -2.19727e-08)
(6.90336e-09 2.85787e-09 -2.23154e-08)
(8.94012e-09 4.69381e-09 -2.27657e-08)
(1.10456e-08 6.9079e-09 -2.33231e-08)
(1.31387e-08 9.35527e-09 -2.39796e-08)
(1.51253e-08 1.18355e-08 -2.47198e-08)
(1.68978e-08 1.41152e-08 -2.55212e-08)
(1.80454e-08 1.53013e-08 -2.63029e-08)
(0 1.51012e-10 -2.2027e-08)
(1.52672e-09 3.01927e-10 -2.20704e-08)
(3.19707e-09 8.03924e-10 -2.21994e-08)
(5.09522e-09 1.78533e-09 -2.24221e-08)
(7.25436e-09 3.36905e-09 -2.27476e-08)
(9.65953e-09 5.60782e-09 -2.3185e-08)
(1.22494e-08 8.45858e-09 -2.37399e-08)
(1.49092e-08 1.17744e-08 -2.44099e-08)
(1.74916e-08 1.53231e-08 -2.51837e-08)
(1.98369e-08 1.88306e-08 -2.60433e-08)
(2.12328e-08 2.12088e-08 -2.68686e-08)
(0 9.05058e-10 -2.25663e-08)
(1.45338e-09 9.80532e-10 -2.26089e-08)
(3.11617e-09 1.31306e-09 -2.2735e-08)
(5.13163e-09 2.17346e-09 -2.29532e-08)
(7.57779e-09 3.82663e-09 -2.32761e-08)
(1.04554e-08 6.40811e-09 -2.3719e-08)
(1.36897e-08 9.89427e-09 -2.4294e-08)
(1.71448e-08 1.41365e-08 -2.50063e-08)
(2.06101e-08 1.88472e-08 -2.58452e-08)
(2.38805e-08 2.36951e-08 -2.67979e-08)
(2.60361e-08 2.75431e-08 -2.7717e-08)
(0 2.45303e-09 -2.31308e-08)
(1.31008e-09 2.34097e-09 -2.318e-08)
(2.90716e-09 2.23757e-09 -2.33201e-08)
(5.00875e-09 2.69429e-09 -2.35529e-08)
(7.75655e-09 4.20898e-09 -2.38928e-08)
(1.11885e-08 7.02779e-09 -2.43638e-08)
(1.52187e-08 1.11289e-08 -2.4986e-08)
(1.9654e-08 1.62969e-08 -2.5767e-08)
(2.41842e-08 2.21348e-08 -2.66895e-08)
(2.85632e-08 2.8245e-08 -2.77465e-08)
(3.1832e-08 3.35805e-08 -2.87843e-08)
(0 5.36245e-09 -2.36589e-08)
(1.06746e-09 4.82803e-09 -2.37333e-08)
(2.50721e-09 3.78714e-09 -2.39262e-08)
(4.63002e-09 3.38847e-09 -2.4208e-08)
(7.66181e-09 4.48199e-09 -2.459e-08)
(1.16954e-08 7.40456e-09 -2.51123e-08)
(1.66452e-08 1.20884e-08 -2.58105e-08)
(2.22227e-08 1.81842e-08 -2.66899e-08)
(2.79463e-08 2.51063e-08 -2.77145e-08)
(3.33603e-08 3.22027e-08 -2.88455e-08)
(3.75254e-08 3.84113e-08 -2.99181e-08)
(0 1.06446e-08 -2.40404e-08)
(6.82908e-10 9.14006e-09 -2.41816e-08)
(1.79591e-09 6.23652e-09 -2.45093e-08)
(3.7271e-09 4.23947e-09 -2.48885e-08)
(6.80133e-09 4.39829e-09 -2.53198e-08)
(1.12067e-08 7.0177e-09 -2.58784e-08)
(1.69195e-08 1.19236e-08 -2.66361e-08)
(2.3634e-08 1.86927e-08 -2.76135e-08)
(3.07045e-08 2.66257e-08 -2.87558e-08)
(3.71298e-08 3.45913e-08 -2.99189e-08)
(4.19697e-08 4.1363e-08 -3.09472e-08)
(0 -0 -2.28496e-08)
(3.02261e-09 0 -2.29429e-08)
(5.97635e-09 0 -2.32187e-08)
(8.85194e-09 0 -2.36728e-08)
(1.17163e-08 0 -2.4307e-08)
(1.4657e-08 0 -2.51302e-08)
(1.77906e-08 0 -2.61559e-08)
(2.1289e-08 0 -2.74002e-08)
(2.54104e-08 0 -2.88762e-08)
(3.05463e-08 0 -3.05832e-08)
(3.73958e-08 0 -3.251e-08)
(0 5.8468e-10 -2.29371e-08)
(2.98143e-09 6.2468e-10 -2.30299e-08)