/*--------------------------------*- C++ -*----------------------------------*\
| =========                 |                                                 |
| \\      /  F ield         | foam-extend: Open Source CFD                    |
|  \\    /   O peration     | Version:     3.1                                |
|   \\  /    A nd           | Web:         http://www.extend-project.de       |
|    \\/     M anipulation  |                                                 |
\*---------------------------------------------------------------------------*/
FoamFile
{
    version     2.0;
    format      ascii;
    class       volScalarField::DimensionedInternalField;
    location    "0.0005";
    object      V0;
}
// * * * * * * * * * * * * * * * * * * * * * * * * * * * * * * * * * * * * * //

dimensions      [0 3 0 0 0 0 0];

value           nonuniform List<scalar> 
16000
(
7.17175e-11
7.04655e-11
6.92145e-11
6.79664e-11
6.67216e-11
6.54807e-11
6.42443e-11
6.3013e-11
6.17878e-11
6.05697e-11
7.04653e-11
6.92147e-11
6.79651e-11
6.67174e-11
6.54727e-11
6.42318e-11
6.29952e-11
6.17635e-11
6.05374e-11
5.93165e-11
6.92143e-11
6.79648e-11
6.67166e-11
6.54698e-11
6.42253e-11
6.29842e-11
6.17473e-11
6.05149e-11
5.92876e-11
5.80646e-11
6.79664e-11
6.67172e-11
6.54696e-11
6.42236e-11
6.29795e-11
6.17381e-11
6.05005e-11
5.92673e-11
5.80388e-11
5.6814e-11
6.67217e-11
6.54727e-11
6.42252e-11
6.29792e-11
6.17353e-11
6.04938e-11
5.92555e-11
5.80211e-11
5.67915e-11
5.5565e-11
6.54808e-11
6.42318e-11
6.29842e-11
6.17379e-11
6.04936e-11
5.92519e-11
5.80129e-11
5.67773e-11
5.55461e-11
5.43178e-11
6.42443e-11
6.29952e-11
6.17473e-11
6.05005e-11
5.92552e-11
5.80125e-11
5.67728e-11
5.55359e-11
5.43024e-11
5.30719e-11
6.30131e-11
6.17635e-11
6.05149e-11
5.92673e-11
5.8021e-11
5.67768e-11
5.55354e-11
5.42962e-11
5.30596e-11
5.1826e-11
6.17879e-11
6.05375e-11
5.92877e-11
5.80389e-11
5.67915e-11
5.55459e-11
5.43021e-11
5.30595e-11
5.18181e-11
5.05777e-11
6.05697e-11
5.93166e-11
5.80646e-11
5.6814e-11
5.5565e-11
5.43178e-11
5.30719e-11
5.18259e-11
5.05775e-11
4.93267e-11
7.19303e-11
7.06723e-11
6.94135e-11
6.81591e-11
6.69099e-11
6.56659e-11
6.44271e-11
6.31933e-11
6.19641e-11
6.07379e-11
7.06717e-11
6.94177e-11
6.81628e-11
6.691e-11
6.56613e-11
6.44176e-11
6.31789e-11
6.1945e-11
6.07147e-11
5.94841e-11
6.9413e-11
6.81622e-11
6.69116e-11
6.56616e-11
6.44137e-11
6.31701e-11
6.19312e-11
6.06962e-11
5.94644e-11
5.8231e-11
6.8159e-11
6.69095e-11
6.5661e-11
6.44134e-11
6.3167e-11
6.19229e-11
6.06829e-11
5.94465e-11
5.82129e-11
5.6977e-11
6.69101e-11
6.56613e-11
6.44133e-11
6.31664e-11
6.19209e-11
6.0677e-11
5.94353e-11
5.81965e-11
5.69607e-11
5.57224e-11
6.56661e-11
6.44177e-11
6.317e-11
6.19225e-11
6.06764e-11
5.94323e-11
5.81894e-11
5.69477e-11
5.57082e-11
5.44667e-11
6.44272e-11
6.31791e-11
6.19313e-11
6.06828e-11
5.94347e-11
5.81883e-11
5.69439e-11
5.56992e-11
5.44543e-11
5.32083e-11
6.31935e-11
6.19451e-11
6.06963e-11
5.94465e-11
5.81963e-11
5.69465e-11
5.5698e-11
5.44481e-11
5.31963e-11
5.19441e-11
6.19642e-11
6.07148e-11
5.94645e-11
5.8213e-11
5.69608e-11
5.57079e-11
5.44538e-11
5.3196e-11
5.19338e-11
5.06677e-11
6.0738e-11
5.94842e-11
5.8231e-11
5.69771e-11
5.57225e-11
5.44668e-11
5.32084e-11
5.19439e-11
5.06672e-11
4.93816e-11
7.20891e-11
7.08253e-11
6.95581e-11
6.82953e-11
6.70381e-11
6.57857e-11
6.45376e-11
6.32929e-11
6.20501e-11
6.08063e-11
7.08243e-11
6.95665e-11
6.83054e-11
6.70451e-11
6.57888e-11
6.45371e-11
6.32895e-11
6.20449e-11
6.08014e-11
5.95527e-11
6.95573e-11
6.83044e-11
6.70499e-11
6.57941e-11
6.45393e-11
6.32879e-11
6.20404e-11
6.0795e-11
5.95501e-11
5.82989e-11
6.82953e-11
6.70445e-11
6.57932e-11
6.45414e-11
6.32889e-11
6.20375e-11
6.07887e-11
5.95419e-11
5.82953e-11
5.70421e-11
6.70383e-11
6.57888e-11
6.45386e-11
6.32881e-11
6.20375e-11
6.07867e-11
5.95361e-11
5.82864e-11
5.70375e-11
5.57823e-11
6.57859e-11
6.45373e-11
6.32879e-11
6.20369e-11
6.07857e-11
5.95351e-11
5.82836e-11
5.70304e-11
5.5777e-11
5.45187e-11
6.45378e-11
6.32897e-11
6.20405e-11
6.07887e-11
5.95352e-11
5.82819e-11
5.70289e-11
5.57724e-11
5.45123e-11
5.32492e-11
6.32931e-11
6.20451e-11
6.07952e-11
5.9542e-11
5.82862e-11
5.70287e-11
5.57706e-11
5.4508e-11
5.32398e-11
5.19701e-11
6.20502e-11
6.08016e-11
5.95502e-11
5.82954e-11
5.70376e-11
5.57766e-11
5.45115e-11
5.32394e-11
5.1959e-11
5.06736e-11
6.08064e-11
5.95528e-11
5.8299e-11
5.70422e-11
5.57824e-11
5.45189e-11
5.32494e-11
5.19699e-11
5.06729e-11
4.93648e-11
7.21828e-11
7.09142e-11
6.96397e-11
6.83686e-11
6.71022e-11
6.58397e-11
6.45803e-11
6.3323e-11
6.20662e-11
6.08071e-11
7.0913e-11
6.96519e-11
6.83847e-11
6.71167e-11
6.58516e-11
6.45901e-11
6.33315e-11
6.20746e-11
6.08174e-11
5.95539e-11
6.96387e-11
6.83835e-11
6.71245e-11
6.58621e-11
6.45991e-11
6.33384e-11
6.20803e-11
6.0823e-11
5.9565e-11
5.82997e-11
6.83685e-11
6.71159e-11
6.58611e-11
6.46038e-11
6.33441e-11
6.20838e-11
6.08249e-11
5.95666e-11
5.83075e-11
5.70412e-11
6.71025e-11
6.58516e-11
6.45984e-11
6.33431e-11
6.20861e-11
6.08273e-11
5.9567e-11
5.83063e-11
5.70454e-11
5.57783e-11
6.584e-11
6.45903e-11
6.33384e-11
6.20831e-11
6.08262e-11
5.95683e-11
5.83079e-11
5.70441e-11
5.57792e-11
5.45103e-11
6.45806e-11
6.33317e-11
6.20805e-11
6.08248e-11
5.9566e-11
5.8306e-11
5.70448e-11
5.57786e-11
5.45076e-11
5.32353e-11
6.33232e-11
6.20748e-11
6.08232e-11
5.95668e-11
5.83061e-11
5.70422e-11
5.57766e-11
5.45053e-11
5.32274e-11
5.19501e-11
6.20664e-11
6.08176e-11
5.95651e-11
5.83076e-11
5.70455e-11
5.57787e-11
5.45067e-11
5.32268e-11
5.19384e-11
5.06478e-11
6.08072e-11
5.9554e-11
5.82997e-11
5.70413e-11
5.57784e-11
5.45104e-11
5.32355e-11
5.19499e-11
5.06471e-11
4.93359e-11
7.22143e-11
7.09427e-11
6.96629e-11
6.83852e-11
6.7111e-11
6.58395e-11
6.45701e-11
6.33019e-11
6.2034e-11
6.0764e-11
7.09414e-11
6.96776e-11
6.84058e-11
6.71315e-11
6.58588e-11
6.45885e-11
6.332e-11
6.20525e-11
6.07844e-11
5.9511e-11
6.96619e-11
6.84046e-11
6.71415e-11
6.58734e-11
6.46032e-11
6.33342e-11
6.20666e-11
6.07992e-11
5.95309e-11
5.82566e-11
6.83851e-11
6.71306e-11
6.58723e-11
6.461e-11
6.33438e-11
6.20757e-11
6.0808e-11
5.95403e-11
5.82716e-11
5.69975e-11
6.71112e-11
6.58588e-11
6.46025e-11
6.33427e-11
6.208e-11
6.08142e-11
5.95459e-11
5.82766e-11
5.7007e-11
5.57334e-11
6.58398e-11
6.45887e-11
6.33341e-11
6.2075e-11
6.0813e-11
5.95491e-11
5.82816e-11
5.70103e-11
5.57377e-11
5.4464e-11
6.45704e-11
6.33203e-11
6.20668e-11
6.0808e-11
5.95449e-11
5.82798e-11
5.70128e-11
5.57403e-11
5.44633e-11
5.31881e-11
6.33022e-11
6.20527e-11
6.07994e-11
5.95404e-11
5.82764e-11
5.70085e-11
5.57383e-11
5.44628e-11
5.31812e-11
5.19034e-11
6.20342e-11
6.07846e-11
5.9531e-11
5.82717e-11
5.70071e-11
5.57373e-11
5.44624e-11
5.31806e-11
5.18917e-11
5.06052e-11
6.07641e-11
5.95111e-11
5.82567e-11
5.69975e-11
5.57335e-11
5.44641e-11
5.31883e-11
5.19032e-11
5.06046e-11
4.93025e-11
7.21957e-11
7.09228e-11
6.96405e-11
6.83588e-11
6.70794e-11
6.58017e-11
6.45252e-11
6.32495e-11
6.19741e-11
6.06975e-11
7.09216e-11
6.96564e-11
6.83819e-11
6.71036e-11
6.58257e-11
6.45492e-11
6.32737e-11
6.19988e-11
6.07236e-11
5.94447e-11
6.96395e-11
6.83807e-11
6.71147e-11
6.58427e-11
6.45677e-11
6.32927e-11
6.20185e-11
6.07441e-11
5.94692e-11
5.81904e-11
6.83588e-11
6.71028e-11
6.58417e-11
6.45756e-11
6.33048e-11
6.20314e-11
6.07577e-11
5.94837e-11
5.82091e-11
5.69315e-11
6.70797e-11
6.58257e-11
6.45669e-11
6.33039e-11
6.2037e-11
6.07664e-11
5.9493e-11
5.82184e-11
5.69437e-11
5.56677e-11
6.58019e-11
6.45494e-11
6.32926e-11
6.20308e-11
6.07654e-11
5.94975e-11
5.82257e-11
5.69502e-11
5.56738e-11
5.43991e-11
6.45254e-11
6.3274e-11
6.20187e-11
6.07577e-11
5.94921e-11
5.8224e-11
5.69537e-11
5.56785e-11
5.43995e-11
5.31251e-11
6.32497e-11
6.1999e-11
6.07443e-11
5.94839e-11
5.82182e-11
5.69486e-11
5.56767e-11
5.44004e-11
5.31193e-11
5.18446e-11
6.19743e-11
6.07238e-11
5.94693e-11
5.82092e-11
5.69438e-11
5.56734e-11
5.43986e-11
5.31187e-11
5.18338e-11
5.0555e-11
6.06977e-11
5.94448e-11
5.81905e-11
5.69315e-11
5.56678e-11
5.43992e-11
5.31252e-11
5.18443e-11
5.05545e-11
4.92658e-11
7.21432e-11
7.08708e-11
6.95885e-11
6.83057e-11
6.7024e-11
6.57432e-11
6.44632e-11
6.31838e-11
6.19051e-11
6.0626e-11
7.08697e-11
6.96042e-11
6.8329e-11
6.70494e-11
6.57692e-11
6.44897e-11
6.32106e-11
6.1932e-11
6.06537e-11
5.93734e-11
6.95876e-11
6.8328e-11
6.70607e-11
6.57869e-11
6.45096e-11
6.32318e-11
6.19543e-11
6.06766e-11
5.93988e-11
5.81194e-11
6.83056e-11
6.70486e-11
6.5786e-11
6.4518e-11
6.3245e-11
6.19691e-11
6.06926e-11
5.94158e-11
5.81389e-11
5.68612e-11
6.70242e-11
6.57692e-11
6.4509e-11
6.32441e-11
6.19752e-11
6.07025e-11
5.94269e-11
5.81504e-11
5.68741e-11
5.55988e-11
6.57435e-11
6.44899e-11
6.32318e-11
6.19685e-11
6.07016e-11
5.94319e-11
5.81587e-11
5.68822e-11
5.56054e-11
5.43323e-11
6.44634e-11
6.32108e-11
6.19544e-11
6.06925e-11
5.94262e-11
5.81573e-11
5.68862e-11
5.56111e-11
5.43333e-11
5.30618e-11
6.3184e-11
6.19322e-11
6.06767e-11
5.94159e-11
5.81503e-11
5.6881e-11
5.56096e-11
5.43351e-11
5.30571e-11
5.17868e-11
6.19052e-11
6.06538e-11
5.9399e-11
5.8139e-11
5.68742e-11
5.56051e-11
5.43325e-11
5.30565e-11
5.17775e-11
5.05065e-11
6.06261e-11
5.93735e-11
5.81195e-11
5.68613e-11
5.55989e-11
5.43324e-11
5.30617e-11
5.17865e-11
5.05061e-11
4.92296e-11
7.20729e-11
7.08022e-11
6.95219e-11
6.82403e-11
6.69591e-11
6.56783e-11
6.43979e-11
6.31183e-11
6.18398e-11
6.05617e-11
7.08012e-11
6.95365e-11
6.82623e-11
6.69836e-11
6.57038e-11
6.44241e-11
6.31448e-11
6.1866e-11
6.05879e-11
5.93094e-11
6.95211e-11
6.82614e-11
6.69943e-11
6.57208e-11
6.44437e-11
6.31658e-11
6.18881e-11
6.06103e-11
5.93332e-11
5.80558e-11
6.82402e-11
6.6983e-11
6.572e-11
6.44517e-11
6.31788e-11
6.1903e-11
6.06266e-11
5.93501e-11
5.80741e-11
5.67988e-11
6.69592e-11
6.57038e-11
6.44432e-11
6.31781e-11
6.1909e-11
6.06365e-11
5.93615e-11
5.80859e-11
5.68109e-11
5.55382e-11
6.56785e-11
6.44243e-11
6.31658e-11
6.19025e-11
6.06358e-11
5.93664e-11
5.8094e-11
5.68192e-11
5.55445e-11
5.42745e-11
6.43981e-11
6.3145e-11
6.18882e-11
6.06265e-11
5.93609e-11
5.8093e-11
5.68231e-11
5.55502e-11
5.42756e-11
5.30077e-11
6.31185e-11
6.18661e-11
6.06105e-11
5.93502e-11
5.80858e-11
5.68182e-11
5.55491e-11
5.42777e-11
5.30041e-11
5.17382e-11
6.18399e-11
6.0588e-11
5.93333e-11
5.80742e-11
5.6811e-11
5.55443e-11
5.4275e-11
5.30036e-11
5.17306e-11
5.04658e-11
6.05618e-11
5.93095e-11
5.80559e-11
5.67989e-11
5.55383e-11
5.42745e-11
5.30077e-11
5.1738e-11
5.04655e-11
4.91976e-11
7.19976e-11
7.07293e-11
6.94523e-11
6.81736e-11
6.68949e-11
6.56163e-11
6.43381e-11
6.30608e-11
6.17849e-11
6.051e-11
7.07285e-11
6.94652e-11
6.81933e-11
6.69171e-11
6.56396e-11
6.43621e-11
6.30848e-11
6.18083e-11
6.05329e-11
5.9258e-11
6.94517e-11
6.81926e-11
6.69266e-11
6.56549e-11
6.43799e-11
6.31041e-11
6.18284e-11
6.0553e-11
5.92786e-11
5.8005e-11
6.81735e-11
6.69166e-11
6.56543e-11
6.43871e-11
6.31158e-11
6.18421e-11
6.05679e-11
5.92939e-11
5.80207e-11
5.67491e-11
6.6895e-11
6.56396e-11
6.43795e-11
6.31153e-11
6.18476e-11
6.0577e-11
5.93044e-11
5.80315e-11
5.67596e-11
5.54905e-11
6.56164e-11
6.43622e-11
6.31041e-11
6.18417e-11
6.05764e-11
5.93088e-11
5.80388e-11
5.67671e-11
5.54959e-11
5.42295e-11
6.43383e-11
6.3085e-11
6.18285e-11
6.05679e-11
5.93039e-11
5.8038e-11
5.67706e-11
5.5501e-11
5.42306e-11
5.29663e-11
6.30609e-11
6.18084e-11
6.05531e-11
5.9294e-11
5.80314e-11
5.67664e-11
5.55002e-11
5.42325e-11
5.29635e-11
5.17013e-11
6.1785e-11
6.0533e-11
5.92787e-11
5.80208e-11
5.67597e-11
5.54958e-11
5.423e-11
5.29631e-11
5.16953e-11
5.04347e-11
6.05101e-11
5.92581e-11
5.8005e-11
5.67492e-11
5.54906e-11
5.42295e-11
5.29662e-11
5.17011e-11
5.04345e-11
4.9172e-11
7.19261e-11
7.06604e-11
6.93873e-11
6.81123e-11
6.68372e-11
6.55621e-11
6.42875e-11
6.30138e-11
6.17417e-11
6.04709e-11
7.06598e-11
6.93982e-11
6.81292e-11
6.68564e-11
6.55823e-11
6.43082e-11
6.30344e-11
6.17614e-11
6.04898e-11
5.92192e-11
6.93867e-11
6.81286e-11
6.68645e-11
6.55955e-11
6.43236e-11
6.3051e-11
6.17786e-11
6.05068e-11
5.92361e-11
5.79667e-11
6.81123e-11
6.6856e-11
6.5595e-11
6.43298e-11
6.30611e-11
6.17905e-11
6.05196e-11
5.92491e-11
5.79796e-11
5.6712e-11
6.68373e-11
6.55823e-11
6.43233e-11
6.30607e-11
6.17952e-11
6.05274e-11
5.92581e-11
5.79887e-11
5.67205e-11
5.54551e-11
6.55622e-11
6.43083e-11
6.3051e-11
6.17902e-11
6.05269e-11
5.92618e-11
5.79949e-11
5.67269e-11
5.54596e-11
5.41964e-11
6.42876e-11
6.30345e-11
6.17787e-11
6.05196e-11
5.92577e-11
5.79943e-11
5.67298e-11
5.54638e-11
5.41973e-11
5.29362e-11
6.3014e-11
6.17615e-11
6.05069e-11
5.92492e-11
5.79887e-11
5.67263e-11
5.54631e-11
5.41989e-11
5.2934e-11
5.16746e-11
6.17418e-11
6.04899e-11
5.92362e-11
5.79797e-11
5.67206e-11
5.54594e-11
5.41969e-11
5.29337e-11
5.167e-11
5.04121e-11
6.0471e-11
5.92193e-11
5.79668e-11
5.6712e-11
5.54552e-11
5.41964e-11
5.29361e-11
5.16745e-11
5.04119e-11
4.91526e-11
7.18628e-11
7.05998e-11
6.93305e-11
6.80596e-11
6.67884e-11
6.55172e-11
6.42466e-11
6.2977e-11
6.17088e-11
6.04421e-11
7.05993e-11
6.93396e-11
6.80736e-11
6.68044e-11
6.55341e-11
6.42638e-11
6.29939e-11
6.17248e-11
6.04572e-11
5.91906e-11
6.93301e-11
6.80731e-11
6.68111e-11
6.5545e-11
6.42766e-11
6.30077e-11
6.1739e-11
6.04709e-11
5.92041e-11
5.79386e-11
6.80595e-11
6.6804e-11
6.55446e-11
6.42818e-11
6.3016e-11
6.17488e-11
6.04814e-11
5.92146e-11
5.79488e-11
5.66848e-11
6.67884e-11
6.55341e-11
6.42764e-11
6.30157e-11
6.17527e-11
6.04878e-11
5.92219e-11
5.79562e-11
5.66916e-11
5.54294e-11
6.55173e-11
6.42639e-11
6.30077e-11
6.17486e-11
6.04875e-11
5.9225e-11
5.79612e-11
5.66967e-11
5.54329e-11
5.41725e-11
6.42467e-11
6.2994e-11
6.17391e-11
6.04814e-11
5.92216e-11
5.79607e-11
5.6699e-11
5.54362e-11
5.41733e-11
5.29145e-11
6.29771e-11
6.17249e-11
6.0471e-11
5.92147e-11
5.79562e-11
5.66962e-11
5.54357e-11
5.41745e-11
5.29128e-11
5.16556e-11
6.17089e-11
6.04573e-11
5.92042e-11
5.79489e-11
5.66916e-11
5.54328e-11
5.41729e-11
5.29126e-11
5.1652e-11
5.03957e-11
6.04422e-11
5.91907e-11
5.79386e-11
5.66848e-11
5.54294e-11
5.41725e-11
5.29145e-11
5.16555e-11
5.03956e-11
4.91382e-11
7.18094e-11
7.05488e-11
6.9283e-11
6.80159e-11
6.67485e-11
6.54812e-11
6.42143e-11
6.29484e-11
6.16839e-11
6.04206e-11
7.05484e-11
6.92904e-11
6.80273e-11
6.67615e-11
6.54949e-11
6.42282e-11
6.2962e-11
6.16966e-11
6.04325e-11
5.91694e-11
6.92827e-11
6.80269e-11
6.6767e-11
6.55037e-11
6.42386e-11
6.29731e-11
6.17079e-11
6.04434e-11
5.918e-11
5.79177e-11
6.80159e-11
6.67612e-11
6.55034e-11
6.42428e-11
6.29799e-11
6.17159e-11
6.04518e-11
5.91883e-11
5.79257e-11
5.66646e-11
6.67485e-11
6.54949e-11
6.42384e-11
6.29796e-11
6.1719e-11
6.04569e-11
5.91941e-11
5.79315e-11
5.66699e-11
5.54103e-11
6.54812e-11
6.42283e-11
6.29731e-11
6.17157e-11
6.04566e-11
5.91966e-11
5.79355e-11
5.66739e-11
5.54131e-11
5.41549e-11
6.42144e-11
6.29621e-11
6.1708e-11
6.04518e-11
5.91939e-11
5.79351e-11
5.66758e-11
5.54156e-11
5.41555e-11
5.28986e-11
6.29485e-11
6.16967e-11
6.04435e-11
5.91883e-11
5.79315e-11
5.66736e-11
5.54152e-11
5.41564e-11
5.28973e-11
5.16415e-11
6.16839e-11
6.04325e-11
5.918e-11
5.79258e-11
5.667e-11
5.5413e-11
5.41552e-11
5.28971e-11
5.16387e-11
5.03837e-11
6.04207e-11
5.91695e-11
5.79177e-11
5.66647e-11
5.54103e-11
5.41549e-11
5.28986e-11
5.16415e-11
5.03836e-11
4.91275e-11
7.17658e-11
7.05072e-11
6.92444e-11
6.79806e-11
6.67165e-11
6.54525e-11
6.4189e-11
6.29263e-11
6.16647e-11
6.04043e-11
7.05069e-11
6.92503e-11
6.79897e-11
6.67269e-11
6.54635e-11
6.42001e-11
6.29371e-11
6.16748e-11
6.04135e-11
5.91532e-11
6.92442e-11
6.79894e-11
6.67313e-11
6.54706e-11
6.42084e-11
6.29459e-11
6.16837e-11
6.04221e-11
5.91615e-11
5.79018e-11
6.79806e-11
6.67267e-11
6.54703e-11
6.42117e-11
6.29513e-11
6.169e-11
6.04288e-11
5.9168e-11
5.79081e-11
5.66493e-11
6.67165e-11
6.54635e-11
6.42082e-11
6.29511e-11
6.16925e-11
6.04328e-11
5.91726e-11
5.79126e-11
5.66535e-11
5.53958e-11
6.54526e-11
6.42001e-11
6.29459e-11
6.16899e-11
6.04326e-11
5.91745e-11
5.79157e-11
5.66566e-11
5.5398e-11
5.41415e-11
6.41891e-11
6.29371e-11
6.16838e-11
6.04288e-11
5.91724e-11
5.79154e-11
5.6658e-11
5.54e-11
5.4142e-11
5.28865e-11
6.29263e-11
6.16748e-11
6.04222e-11
5.9168e-11
5.79126e-11
5.66563e-11
5.53997e-11
5.41427e-11
5.28854e-11
5.16308e-11
6.16648e-11
6.04136e-11
5.91615e-11
5.79081e-11
5.66535e-11
5.53979e-11
5.41418e-11
5.28853e-11
5.16286e-11
5.03745e-11
6.04043e-11
5.91533e-11
5.79018e-11
5.66493e-11
5.53959e-11
5.41415e-11
5.28865e-11
5.16308e-11
5.03744e-11
4.91193e-11
7.17306e-11
7.04737e-11
6.92135e-11
6.79524e-11
6.66911e-11
6.54299e-11
6.41691e-11
6.2909e-11
6.16498e-11
6.03915e-11
7.04735e-11
6.92182e-11
6.79596e-11
6.66994e-11
6.54386e-11
6.41779e-11
6.29175e-11
6.16577e-11
6.03988e-11
5.91406e-11
6.92133e-11
6.79594e-11
6.67029e-11
6.54442e-11
6.41845e-11
6.29245e-11
6.16648e-11
6.04055e-11
5.91471e-11
5.78894e-11
6.79524e-11
6.66992e-11
6.54441e-11
6.41871e-11
6.29288e-11
6.16697e-11
6.04108e-11
5.91522e-11
5.78943e-11
5.66373e-11
6.66911e-11
6.54386e-11
6.41843e-11
6.29286e-11
6.16717e-11
6.0414e-11
5.91558e-11
5.78979e-11
5.66406e-11
5.53845e-11
6.543e-11
6.41779e-11
6.29245e-11
6.16696e-11
6.04138e-11
5.91573e-11
5.79003e-11
5.6643e-11
5.53862e-11
5.4131e-11
6.41692e-11
6.29175e-11
6.16648e-11
6.04108e-11
5.91557e-11
5.79001e-11
5.66441e-11
5.53878e-11
5.41314e-11
5.2877e-11
6.2909e-11
6.16577e-11
6.04056e-11
5.91522e-11
5.78979e-11
5.66428e-11
5.53875e-11
5.41319e-11
5.28762e-11
5.16224e-11
6.16498e-11
6.03988e-11
5.91471e-11
5.78943e-11
5.66406e-11
5.53862e-11
5.41312e-11
5.2876e-11
5.16207e-11
5.03673e-11
6.03915e-11
5.91406e-11
5.78894e-11
5.66373e-11
5.53845e-11
5.4131e-11
5.2877e-11
5.16223e-11
5.03672e-11
4.9113e-11
7.17026e-11
7.04471e-11
6.91889e-11
6.793e-11
6.66709e-11
6.5412e-11
6.41534e-11
6.28953e-11
6.1638e-11
6.03814e-11
7.04469e-11
6.91926e-11
6.79357e-11
6.66775e-11
6.54189e-11
6.41603e-11
6.2902e-11
6.16442e-11
6.03871e-11
5.91306e-11
6.91887e-11
6.79356e-11
6.66803e-11
6.54234e-11
6.41655e-11
6.29076e-11
6.16498e-11
6.03924e-11
5.91357e-11
5.78795e-11
6.793e-11
6.66774e-11
6.54232e-11
6.41676e-11
6.29109e-11
6.16537e-11
6.03966e-11
5.91397e-11
5.78834e-11
5.66278e-11
6.6671e-11
6.54189e-11
6.41655e-11
6.29108e-11
6.16553e-11
6.03991e-11
5.91426e-11
5.78862e-11
5.66304e-11
5.53755e-11
6.54121e-11
6.41604e-11
6.29076e-11
6.16536e-11
6.0399e-11
5.91438e-11
5.78881e-11
5.66323e-11
5.53769e-11
5.41227e-11
6.41534e-11
6.29021e-11
6.16498e-11
6.03966e-11
5.91425e-11
5.7888e-11
5.66332e-11
5.53781e-11
5.4123e-11
5.28694e-11
6.28953e-11
6.16443e-11
6.03925e-11
5.91398e-11
5.78862e-11
5.66322e-11
5.53779e-11
5.41234e-11
5.28687e-11
5.16157e-11
6.1638e-11
6.03871e-11
5.91357e-11
5.78834e-11
5.66304e-11
5.53768e-11
5.41228e-11
5.28687e-11
5.16143e-11
5.03615e-11
6.03814e-11
5.91306e-11
5.78795e-11
5.66278e-11
5.53755e-11
5.41227e-11
5.28694e-11
5.16156e-11
5.03615e-11
4.91081e-11
7.16804e-11
7.04259e-11
6.91693e-11
6.79122e-11
6.6655e-11
6.53978e-11
6.4141e-11
6.28845e-11
6.16286e-11
6.03733e-11
7.04257e-11
6.91723e-11
6.79168e-11
6.66602e-11
6.54033e-11
6.41464e-11
6.28898e-11
6.16336e-11
6.03778e-11
5.91226e-11
6.91692e-11
6.79166e-11
6.66624e-11
6.54068e-11
6.41506e-11
6.28942e-11
6.1638e-11
6.03821e-11
5.91266e-11
5.78717e-11
6.79122e-11
6.66601e-11
6.54067e-11
6.41522e-11
6.28968e-11
6.16411e-11
6.03853e-11
5.91298e-11
5.78748e-11
5.66203e-11
6.6655e-11
6.54033e-11
6.41505e-11
6.28967e-11
6.16423e-11
6.03873e-11
5.91321e-11
5.7877e-11
5.66223e-11
5.53684e-11
6.53979e-11
6.41465e-11
6.28942e-11
6.1641e-11
6.03872e-11
5.9133e-11
5.78785e-11
5.66238e-11
5.53694e-11
5.4116e-11
6.4141e-11
6.28898e-11
6.1638e-11
6.03853e-11
5.9132e-11
5.78783e-11
5.66245e-11
5.53704e-11
5.41162e-11
5.28633e-11
6.28845e-11
6.16336e-11
6.03821e-11
5.91298e-11
5.7877e-11
5.66237e-11
5.53702e-11
5.41166e-11
5.28628e-11
5.16103e-11
6.16286e-11
6.03779e-11
5.91267e-11
5.78748e-11
5.66223e-11
5.53694e-11
5.41162e-11
5.28627e-11
5.16092e-11
5.03569e-11
6.03733e-11
5.91226e-11
5.78717e-11
5.66203e-11
5.53684e-11
5.4116e-11
5.28633e-11
5.16103e-11
5.03569e-11
4.91041e-11
7.16627e-11
7.04091e-11
6.91539e-11
6.78982e-11
6.66424e-11
6.53866e-11
6.41311e-11
6.28759e-11
6.16212e-11
6.03669e-11
7.0409e-11
6.91562e-11
6.79018e-11
6.66465e-11
6.53909e-11
6.41354e-11
6.28801e-11
6.16251e-11
6.03705e-11
5.91162e-11
6.91538e-11
6.79016e-11
6.66482e-11
6.53937e-11
6.41387e-11
6.28836e-11
6.16286e-11
6.03738e-11
5.91194e-11
5.78654e-11
6.78982e-11
6.66464e-11
6.53936e-11
6.414e-11
6.28857e-11
6.1631e-11
6.03764e-11
5.9122e-11
5.78679e-11
5.66142e-11
6.66424e-11
6.53909e-11
6.41386e-11
6.28856e-11
6.1632e-11
6.0378e-11
5.91238e-11
5.78696e-11
5.66158e-11
5.53626e-11
6.53867e-11
6.41355e-11
6.28836e-11
6.1631e-11
6.03779e-11
5.91245e-11
5.78708e-11
5.6617e-11
5.53635e-11
5.41107e-11
6.41311e-11
6.28801e-11
6.16286e-11
6.03764e-11
5.91237e-11
5.78707e-11
5.66176e-11
5.53642e-11
5.41109e-11
5.28585e-11
6.28759e-11
6.16251e-11
6.03738e-11
5.9122e-11
5.78696e-11
5.66169e-11
5.53641e-11
5.41112e-11
5.28581e-11
5.1606e-11
6.16212e-11
6.03705e-11
5.91194e-11
5.78679e-11
5.66159e-11
5.53634e-11
5.41108e-11
5.2858e-11
5.16052e-11
5.03533e-11
6.03669e-11
5.91162e-11
5.78654e-11
5.66142e-11
5.53626e-11
5.41107e-11
5.28585e-11
5.1606e-11
5.03532e-11
4.9101e-11
7.16488e-11
7.03958e-11
6.91416e-11
6.7887e-11
6.66323e-11
6.53777e-11
6.41233e-11
6.28691e-11
6.16152e-11
6.03618e-11
7.03958e-11
6.91434e-11
6.78899e-11
6.66356e-11
6.53811e-11
6.41267e-11
6.28724e-11
6.16183e-11
6.03646e-11
5.91112e-11
6.91415e-11
6.78898e-11
6.6637e-11
6.53833e-11
6.41293e-11
6.28751e-11
6.16211e-11
6.03673e-11
5.91137e-11
5.78605e-11
6.7887e-11
6.66355e-11
6.53833e-11
6.41303e-11
6.28768e-11
6.1623e-11
6.03693e-11
5.91157e-11
5.78624e-11
5.66094e-11
6.66324e-11
6.53811e-11
6.41292e-11
6.28767e-11
6.16238e-11
6.03706e-11
5.91171e-11
5.78638e-11
5.66107e-11
5.53581e-11
6.53777e-11
6.41267e-11
6.28751e-11
6.1623e-11
6.03705e-11
5.91177e-11
5.78647e-11
5.66117e-11
5.53588e-11
5.41065e-11
6.41233e-11
6.28724e-11
6.16211e-11
6.03693e-11
5.91171e-11
5.78647e-11
5.66121e-11
5.53594e-11
5.41066e-11
5.28547e-11
6.28691e-11
6.16184e-11
6.03673e-11
5.91157e-11
5.78638e-11
5.66116e-11
5.53593e-11
5.41068e-11
5.28543e-11
5.16026e-11
6.16153e-11
6.03646e-11
5.91137e-11
5.78624e-11
5.66107e-11
5.53587e-11
5.41066e-11
5.28543e-11
5.16019e-11
5.03504e-11
6.03618e-11
5.91112e-11
5.78605e-11
5.66094e-11
5.53581e-11
5.41065e-11
5.28546e-11
5.16026e-11
5.03503e-11
4.90985e-11
7.16377e-11
7.03853e-11
6.91319e-11
6.78782e-11
6.66244e-11
6.53707e-11
6.41171e-11
6.28637e-11
6.16106e-11
6.03577e-11
7.03853e-11
6.91333e-11
6.78804e-11
6.6627e-11
6.53734e-11
6.41198e-11
6.28663e-11
6.1613e-11
6.036e-11
5.91072e-11
6.91318e-11
6.78804e-11
6.66281e-11
6.53751e-11
6.41218e-11
6.28685e-11
6.16152e-11
6.03621e-11
5.91092e-11
5.78565e-11
6.78782e-11
6.66269e-11
6.53751e-11
6.41226e-11
6.28698e-11
6.16167e-11
6.03637e-11
5.91108e-11
5.78581e-11
5.66056e-11
6.66244e-11
6.53734e-11
6.41218e-11
6.28697e-11
6.16173e-11
6.03647e-11
5.91119e-11
5.78592e-11
5.66067e-11
5.53545e-11
6.53707e-11
6.41198e-11
6.28685e-11
6.16167e-11
6.03646e-11
5.91124e-11
5.78599e-11
5.66074e-11
5.5355e-11
5.41031e-11
6.41171e-11
6.28663e-11
6.16152e-11
6.03637e-11
5.91119e-11
5.78598e-11
5.66078e-11
5.53555e-11
5.41033e-11
5.28516e-11
6.28637e-11
6.1613e-11
6.03621e-11
5.91108e-11
5.78592e-11
5.66073e-11
5.53554e-11
5.41034e-11
5.28514e-11
5.15999e-11
6.16106e-11
6.036e-11
5.91092e-11
5.78581e-11
5.66067e-11
5.5355e-11
5.41032e-11
5.28513e-11
5.15994e-11
5.03481e-11
6.03577e-11
5.91072e-11
5.78565e-11
5.66056e-11
5.53545e-11
5.41031e-11
5.28516e-11
5.15999e-11
5.0348e-11
4.90965e-11
7.1629e-11
7.0377e-11
6.91242e-11
6.78712e-11
6.66181e-11
6.53651e-11
6.41121e-11
6.28594e-11
6.16068e-11
6.03545e-11
7.03769e-11
6.91253e-11
6.7873e-11
6.66202e-11
6.53672e-11
6.41143e-11
6.28615e-11
6.16088e-11
6.03563e-11
5.9104e-11
6.91242e-11
6.78729e-11
6.6621e-11
6.53686e-11
6.41159e-11
6.28632e-11
6.16105e-11
6.0358e-11
5.91056e-11
5.78534e-11
6.78712e-11
6.66201e-11
6.53686e-11
6.41166e-11
6.28642e-11
6.16117e-11
6.03592e-11
5.91069e-11
5.78546e-11
5.66026e-11
6.66181e-11
6.53672e-11
6.41159e-11
6.28642e-11
6.16122e-11
6.036e-11
5.91077e-11
5.78555e-11
5.66034e-11
5.53517e-11
6.53651e-11
6.41143e-11
6.28632e-11
6.16117e-11
6.036e-11
5.91081e-11
5.78561e-11
5.6604e-11
5.53521e-11
5.41005e-11
6.41122e-11
6.28615e-11
6.16105e-11
6.03592e-11
5.91077e-11
5.7856e-11
5.66043e-11
5.53525e-11
5.41006e-11
5.28492e-11
6.28594e-11
6.16088e-11
6.0358e-11
5.91069e-11
5.78555e-11
5.6604e-11
5.53524e-11
5.41007e-11
5.2849e-11
5.15978e-11
6.16068e-11
6.03563e-11
5.91056e-11
5.78546e-11
5.66034e-11
5.53521e-11
5.41006e-11
5.2849e-11
5.15974e-11
5.03463e-11
6.03545e-11
5.9104e-11
5.78534e-11
5.66026e-11
5.53517e-11
5.41005e-11
5.28492e-11
5.15978e-11
5.03462e-11
4.90949e-11
7.1622e-11
7.03704e-11
6.91181e-11
6.78656e-11
6.66131e-11
6.53607e-11
6.41083e-11
6.2856e-11
6.16039e-11
6.0352e-11
7.03704e-11
6.9119e-11
6.78671e-11
6.66148e-11
6.53624e-11
6.411e-11
6.28576e-11
6.16054e-11
6.03534e-11
5.91015e-11
6.91181e-11
6.7867e-11
6.66154e-11
6.53634e-11
6.41112e-11
6.2859e-11
6.16068e-11
6.03547e-11
5.91028e-11
5.7851e-11
6.78656e-11
6.66147e-11
6.53634e-11
6.41118e-11
6.28598e-11
6.16078e-11
6.03557e-11
5.91038e-11
5.78519e-11
5.66003e-11
6.66132e-11
6.53624e-11
6.41112e-11
6.28598e-11
6.16082e-11
6.03563e-11
5.91045e-11
5.78526e-11
5.66009e-11
5.53494e-11
6.53607e-11
6.411e-11
6.2859e-11
6.16078e-11
6.03563e-11
5.91048e-11
5.78531e-11
5.66014e-11
5.53497e-11
5.40984e-11
6.41083e-11
6.28577e-11
6.16068e-11
6.03557e-11
5.91044e-11
5.7853e-11
5.66016e-11
5.535e-11
5.40985e-11
5.28473e-11
6.2856e-11
6.16054e-11
6.03547e-11
5.91038e-11
5.78526e-11
5.66013e-11
5.535e-11
5.40986e-11
5.28472e-11
5.15961e-11
6.16039e-11
6.03534e-11
5.91028e-11
5.78519e-11
5.66009e-11
5.53497e-11
5.40985e-11
5.28471e-11
5.15958e-11
5.03448e-11
6.0352e-11
5.91015e-11
5.7851e-11
5.66003e-11
5.53494e-11
5.40984e-11
5.28473e-11
5.15961e-11
5.03448e-11
4.90937e-11
7.16166e-11
7.03652e-11
6.91133e-11
6.78613e-11
6.66092e-11
6.53572e-11
6.41052e-11
6.28533e-11
6.16016e-11
6.035e-11
7.03651e-11
6.9114e-11
6.78624e-11
6.66105e-11
6.53585e-11
6.41065e-11
6.28546e-11
6.16028e-11
6.03511e-11
5.90995e-11
6.91133e-11
6.78623e-11
6.6611e-11
6.53594e-11
6.41075e-11
6.28557e-11
6.16039e-11
6.03522e-11
5.91005e-11
5.7849e-11
6.78613e-11
6.66105e-11
6.53593e-11
6.4108e-11
6.28563e-11
6.16046e-11
6.03529e-11
5.91013e-11
5.78498e-11
5.65984e-11
6.66092e-11
6.53585e-11
6.41075e-11
6.28563e-11
6.16049e-11
6.03534e-11
5.91019e-11
5.78503e-11
5.65989e-11
5.53476e-11
6.53572e-11
6.41065e-11
6.28557e-11
6.16046e-11
6.03534e-11
5.91021e-11
5.78507e-11
5.65993e-11
5.53479e-11
5.40968e-11
6.41052e-11
6.28546e-11
6.16039e-11
6.03529e-11
5.91018e-11
5.78507e-11
5.65994e-11
5.53481e-11
5.40968e-11
5.28458e-11
6.28533e-11
6.16028e-11
6.03522e-11
5.91013e-11
5.78503e-11
5.65992e-11
5.53481e-11
5.40969e-11
5.28457e-11
5.15948e-11
6.16016e-11
6.03511e-11
5.91005e-11
5.78498e-11
5.65989e-11
5.53479e-11
5.40968e-11
5.28457e-11
5.15945e-11
5.03437e-11
6.035e-11
5.90995e-11
5.7849e-11
5.65984e-11
5.53476e-11
5.40968e-11
5.28458e-11
5.15948e-11
5.03437e-11
4.90927e-11
7.16122e-11
7.03611e-11
6.91095e-11
6.78578e-11
6.66061e-11
6.53544e-11
6.41028e-11
6.28512e-11
6.15998e-11
6.03484e-11
7.0361e-11
6.911e-11
6.78587e-11
6.66071e-11
6.53555e-11
6.41038e-11
6.28522e-11
6.16007e-11
6.03493e-11
5.9098e-11
6.91095e-11
6.78587e-11
6.66075e-11
6.53561e-11
6.41046e-11
6.28531e-11
6.16016e-11
6.03501e-11
5.90988e-11
5.78475e-11
6.78578e-11
6.66071e-11
6.53561e-11
6.41049e-11
6.28536e-11
6.16022e-11
6.03508e-11
5.90994e-11
5.78481e-11
5.65969e-11
6.66061e-11
6.53555e-11
6.41046e-11
6.28536e-11
6.16024e-11
6.03511e-11
5.90998e-11
5.78485e-11
5.65973e-11
5.53462e-11
6.53544e-11
6.41038e-11
6.28531e-11
6.16022e-11
6.03511e-11
5.91e-11
5.78488e-11
5.65976e-11
5.53464e-11
5.40955e-11
6.41028e-11
6.28522e-11
6.16016e-11
6.03507e-11
5.90998e-11
5.78488e-11
5.65977e-11
5.53466e-11
5.40955e-11
5.28447e-11
6.28512e-11
6.16007e-11
6.03501e-11
5.90994e-11
5.78485e-11
5.65976e-11
5.53466e-11
5.40956e-11
5.28446e-11
5.15938e-11
6.15997e-11
6.03493e-11
5.90988e-11
5.78481e-11
5.65973e-11
5.53464e-11
5.40955e-11
5.28445e-11
5.15935e-11
5.03428e-11
6.03484e-11
5.9098e-11
5.78475e-11
5.65969e-11
5.53462e-11
5.40955e-11
5.28446e-11
5.15938e-11
5.03428e-11
4.9092e-11
7.16088e-11
7.03578e-11
6.91065e-11
6.78551e-11
6.66036e-11
6.53522e-11
6.41008e-11
6.28495e-11
6.15983e-11
6.03472e-11
7.03578e-11
6.91069e-11
6.78558e-11
6.66044e-11
6.5353e-11
6.41017e-11
6.28503e-11
6.15991e-11
6.03479e-11
5.90967e-11
6.91065e-11
6.78557e-11
6.66048e-11
6.53536e-11
6.41023e-11
6.2851e-11
6.15997e-11
6.03485e-11
5.90974e-11
5.78463e-11
6.78551e-11
6.66044e-11
6.53536e-11
6.41026e-11
6.28514e-11
6.16002e-11
6.0349e-11
5.90979e-11
5.78468e-11
5.65957e-11
6.66036e-11
6.53531e-11
6.41023e-11
6.28514e-11
6.16004e-11
6.03493e-11
5.90982e-11
5.78471e-11
5.65961e-11
5.53451e-11
6.53522e-11
6.41017e-11
6.2851e-11
6.16002e-11
6.03493e-11
5.90983e-11
5.78473e-11
5.65963e-11
5.53453e-11
5.40945e-11
6.41008e-11
6.28503e-11
6.15997e-11
6.0349e-11
5.90982e-11
5.78473e-11
5.65964e-11
5.53454e-11
5.40945e-11
5.28437e-11
6.28495e-11
6.15991e-11
6.03485e-11
5.90978e-11
5.78471e-11
5.65963e-11
5.53454e-11
5.40945e-11
5.28436e-11
5.15929e-11
6.15983e-11
6.03479e-11
5.90974e-11
5.78467e-11
5.65961e-11
5.53453e-11
5.40945e-11
5.28436e-11
5.15928e-11
5.03421e-11
6.03472e-11
5.90967e-11
5.78463e-11
5.65957e-11
5.53451e-11
5.40944e-11
5.28437e-11
5.15929e-11
5.03421e-11
4.90913e-11
7.16061e-11
7.03552e-11
6.91041e-11
6.78529e-11
6.66017e-11
6.53505e-11
6.40993e-11
6.28482e-11
6.15972e-11
6.03462e-11
7.03552e-11
6.91044e-11
6.78534e-11
6.66023e-11
6.53511e-11
6.41e-11
6.28488e-11
6.15978e-11
6.03467e-11
5.90958e-11
6.91041e-11
6.78534e-11
6.66026e-11
6.53516e-11
6.41005e-11
6.28494e-11
6.15983e-11
6.03472e-11
5.90963e-11
5.78453e-11
6.78529e-11
6.66023e-11
6.53516e-11
6.41007e-11
6.28497e-11
6.15987e-11
6.03476e-11
5.90966e-11
5.78457e-11
5.65948e-11
6.66017e-11
6.53511e-11
6.41005e-11
6.28497e-11
6.15988e-11
6.03479e-11
5.90969e-11
5.7846e-11
5.65951e-11