/*--------------------------------*- C++ -*----------------------------------*\
| =========                 |                                                 |
| \\      /  F ield         | foam-extend: Open Source CFD                    |
|  \\    /   O peration     | Version:     3.1                                |
|   \\  /    A nd           | Web:         http://www.extend-project.de       |
|    \\/     M anipulation  |                                                 |
\*---------------------------------------------------------------------------*/
FoamFile
{
    version     2.0;
    format      ascii;
    class       volSymmTensorField;
    location    "0.0008";
    object      epsilon;
}
// * * * * * * * * * * * * * * * * * * * * * * * * * * * * * * * * * * * * * //

dimensions      [0 0 0 0 0 0 0];

internalField   nonuniform List<symmTensor> 
6400
(
(-0.0034074 -0.000225008 0.0077129 0.00159997 0.000197259 0.0116564)
(-0.00194367 -0.000149521 0.00841569 0.00141104 0.000257669 0.00404459)
(-0.00076744 -8.84695e-05 0.00795509 0.00129276 0.000241491 -0.00209483)
(0.000464438 -2.5943e-05 0.00642472 0.00123456 0.000156114 -0.00935572)
(-0.00332207 -0.000585082 0.00767366 0.00156857 0.00089442 0.0115247)
(-0.0018832 -0.000392637 0.00835478 0.00138709 0.00097928 0.00394913)
(-0.00072166 -0.000240831 0.00788431 0.00128211 0.000925882 -0.0021928)
(0.000502774 -8.80856e-05 0.0063439 0.00124034 0.00074539 -0.00949562)
(-0.00319771 -0.000959868 0.00757581 0.00144164 0.00149821 0.0115182)
(-0.0017998 -0.000641641 0.00824871 0.00130485 0.00163437 0.00394497)
(-0.000669431 -0.000392633 0.0077847 0.00123112 0.00154448 -0.00219559)
(0.000524761 -0.00014344 0.00626504 0.0012198 0.00124451 -0.00949668)
(-0.00301826 -0.00131004 0.00743283 0.00126151 0.00209019 0.0115148)
(-0.00167997 -0.000876009 0.00809315 0.00118443 0.00227837 0.00394324)
(-0.00059604 -0.000535821 0.00763787 0.00115716 0.00215226 -0.00219586)
(0.000551539 -0.000195495 0.00614685 0.00119196 0.0017341 -0.00949528)
(-0.00278689 -0.00162805 0.00724454 0.0010295 0.00266812 0.0115132)
(-0.00152529 -0.00108893 0.00788812 0.00102903 0.00290738 0.00394313)
(-0.000501559 -0.000666093 0.00744428 0.00106181 0.00274581 -0.00219465)
(0.000585744 -0.000243 0.00599091 0.00115659 0.00221187 -0.00949247)
(-0.00250888 -0.00190614 0.00701179 0.000750973 0.00322893 0.011513)
(-0.00133937 -0.00127515 0.00763469 0.000842449 0.00351783 0.00394393)
(-0.000387972 -0.000780099 0.00720502 0.000947381 0.00332176 -0.00219271)
(0.000626833 -0.000284643 0.00579821 0.00111438 0.00267527 -0.00948909)
(-0.00219092 -0.0021375 0.00673586 0.000432555 0.00376941 0.0115136)
(-0.00112663 -0.00143011 0.0073343 0.000629142 0.00410617 0.00394527)
(-0.000257929 -0.000874999 0.00692151 0.000816605 0.00387679 -0.00219049)
(0.000673947 -0.000319364 0.00556996 0.00106628 0.00312169 -0.00948566)
(-0.00184068 -0.00231648 0.00641829 8.19414e-05 0.00428633 0.011515)
(-0.000892151 -0.00154998 0.00698871 0.00039424 0.0046689 0.0039469)
(-0.000114512 -0.000948409 0.00659543 0.00067261 0.00440759 -0.0021883)
(0.000726022 -0.000346248 0.00530756 0.00101339 0.00354853 -0.00948256)
(-0.00146659 -0.00243872 0.00606093 -0.000292329 0.00477654 0.011517)
(-0.000641526 -0.00163175 0.00659998 0.000143448 0.00520258 0.00394857)
(3.88212e-05 -0.000998422 0.00622881 0.000518915 0.00491096 -0.00218645)
(0.000781805 -0.000364541 0.00501268 0.00095699 0.00395324 -0.00948013)
(-0.00107642 -0.0025016 0.00566623 -0.000681162 0.00523724 0.0115187)
(-0.000380852 -0.00167329 0.00617076 -0.000116983 0.00570408 0.00394973)
(0.000198164 -0.00102373 0.00582409 0.000359462 0.00538398 -0.00218533)
(0.000839819 -0.000373754 0.00468729 0.000898635 0.00433349 -0.00947876)
(-0.000681163 -0.0025016 0.00523724 -0.00107642 0.00566623 0.0115187)
(-0.000116983 -0.00167329 0.00570408 -0.000380852 0.00617076 0.00394973)
(0.000359462 -0.00102373 0.00538398 0.000198164 0.00582409 -0.00218533)
(0.000898635 -0.000373754 0.00433349 0.000839819 0.00468729 -0.00947876)
(-0.000292329 -0.00243872 0.00477654 -0.00146659 0.00606094 0.011517)
(0.000143448 -0.00163175 0.00520258 -0.000641526 0.00659998 0.00394857)
(0.000518915 -0.000998422 0.00491096 3.88213e-05 0.00622881 -0.00218645)
(0.00095699 -0.000364541 0.00395324 0.000781805 0.00501268 -0.00948013)
(8.19411e-05 -0.00231648 0.00428634 -0.00184068 0.0064183 0.011515)
(0.000394239 -0.00154998 0.0046689 -0.000892151 0.00698871 0.0039469)
(0.00067261 -0.00094841 0.00440759 -0.000114512 0.00659543 -0.0021883)
(0.00101339 -0.000346248 0.00354853 0.000726022 0.00530756 -0.00948256)
(0.000432555 -0.0021375 0.00376941 -0.00219092 0.00673586 0.0115136)
(0.000629142 -0.00143011 0.00410617 -0.00112663 0.0073343 0.00394527)
(0.000816605 -0.000875 0.00387679 -0.000257929 0.00692151 -0.00219049)
(0.00106628 -0.000319364 0.0031217 0.000673947 0.00556997 -0.00948566)
(0.000750973 -0.00190614 0.00322893 -0.00250888 0.0070118 0.011513)
(0.000842449 -0.00127515 0.00351783 -0.00133937 0.00763469 0.00394393)
(0.000947382 -0.000780099 0.00332176 -0.000387973 0.00720502 -0.00219271)
(0.00111438 -0.000284644 0.00267528 0.000626833 0.00579822 -0.00948909)
(0.0010295 -0.00162805 0.00266812 -0.00278689 0.00724455 0.0115132)
(0.00102903 -0.00108893 0.00290738 -0.00152529 0.00788813 0.00394313)
(0.00106181 -0.000666093 0.00274581 -0.000501559 0.00744428 -0.00219465)
(0.0011566 -0.000243 0.00221187 0.000585744 0.00599091 -0.00949247)
(0.00126151 -0.00131004 0.00209019 -0.00301827 0.00743284 0.0115148)
(0.00118443 -0.000876009 0.00227837 -0.00167997 0.00809316 0.00394324)
(0.00115717 -0.000535822 0.00215226 -0.000596041 0.00763787 -0.00219586)
(0.00119196 -0.000195496 0.0017341 0.000551539 0.00614685 -0.00949528)
(0.00144164 -0.000959869 0.00149821 -0.00319772 0.00757581 0.0115182)
(0.00130485 -0.000641642 0.00163437 -0.0017998 0.00824871 0.00394497)
(0.00123112 -0.000392633 0.00154448 -0.000669432 0.0077847 -0.00219559)
(0.00121981 -0.00014344 0.00124451 0.000524761 0.00626505 -0.00949668)
(0.00156857 -0.000585082 0.000894421 -0.00332207 0.00767367 0.0115247)
(0.00138709 -0.000392637 0.00097928 -0.0018832 0.00835478 0.00394913)
(0.00128211 -0.000240831 0.000925883 -0.000721661 0.00788431 -0.0021928)
(0.00124034 -8.80857e-05 0.000745391 0.000502774 0.00634391 -0.00949562)
(0.00159997 -0.000225008 0.000197259 -0.00340741 0.0077129 0.0116564)
(0.00141104 -0.000149521 0.00025767 -0.00194367 0.00841569 0.00404459)
(0.00129276 -8.84696e-05 0.000241491 -0.000767441 0.00795509 -0.00209483)
(0.00123456 -2.5943e-05 0.000156114 0.000464438 0.00642473 -0.00935572)
(-0.00596131 -0.000479834 0.00327918 0.0050107 -6.7885e-05 0.00223661)
(-0.00413062 -0.000379281 0.00608859 0.0045614 8.71307e-05 0.00125828)
(-0.0024442 -0.000284517 0.00598555 0.00422293 8.46228e-05 -0.00042452)
(-0.000911534 -0.000198881 0.00316726 0.00398145 -6.39284e-05 -0.00158827)
(-0.00580522 -0.00128299 0.00330638 0.00491916 0.000389439 0.00222763)
(-0.00399764 -0.00101736 0.00605479 0.00447266 0.000716344 0.00122671)
(-0.00233404 -0.000778699 0.00591366 0.0041519 0.00070239 -0.000458376)
(-0.000821216 -0.000567789 0.0030637 0.0039262 0.000370415 -0.00160434)
(-0.00553636 -0.0021068 0.00326598 0.00464383 0.000647722 0.00222378)
(-0.00378381 -0.00166395 0.00597881 0.00426154 0.00118965 0.00122157)
(-0.00216877 -0.00127352 0.00583882 0.00398957 0.00116474 -0.000463201)
(-0.000698777 -0.000931786 0.00302512 0.00380676 0.000608911 -0.0016077)
(-0.00514315 -0.00287584 0.00320455 0.00425021 0.00090142 0.0022223)
(-0.00347363 -0.00227197 0.00586601 0.0039509 0.00165457 0.00122044)
(-0.00193122 -0.00173871 0.00572848 0.0037517 0.00161873 -0.000463552)
(-0.000525258 -0.00127216 0.00296769 0.00363207 0.000843691 -0.001607)
(-0.00463553 -0.00357433 0.00312323 0.00374202 0.00114953 0.00222174)
(-0.0030727 -0.00282426 0.00571713 0.00354915 0.00210896 0.00122075)
(-0.00162458 -0.00216146 0.00558302 0.0034439 0.00206234 -0.00046227)
(-0.000301217 -0.00158146 0.00289215 0.00340635 0.00107304 -0.00160467)
(-0.00402533 -0.00418516 0.00302245 0.00313128 0.00139076 0.00222167)
(-0.00259059 -0.00330727 0.00553312 0.00306614 0.00255039 0.00122168)
(-0.0012558 -0.00253123 0.00540338 0.00307383 0.00249321 -0.000460329)
(-3.17751e-05 -0.001852 0.00279907 0.00313509 0.00129573 -0.00160169)
(-0.00332726 -0.00469341 0.00290275 0.00243266 0.0016236 0.00222194)
(-0.00203887 -0.00370919 0.00531503 0.00251358 0.00297623 0.00122289)
(-0.000833663 -0.00283892 0.00519064 0.00265048 0.00290878 -0.000458206)
(0.000276703 -0.0020771 0.002689 0.00282493 0.00151046 -0.00159865)
(-0.00255819 -0.00508663 0.00276477 0.00166312 0.0018464 0.00222245)
(-0.00143077 -0.00402011 0.00506417 0.00190483 0.00338376 0.00122414)
(-0.000368271 -0.00307688 0.00494608 0.00218412 0.00330645 -0.00045623)
(0.000616837 -0.00225114 0.00256261 0.00248339 0.00171592 -0.00159596)
(-0.00173666 -0.00535526 0.00260942 0.000841461 0.00205744 0.002223)
(-0.00078081 -0.00423222 0.00478209 0.00125471 0.00377028 0.0012252)
(0.000129114 -0.00323903 0.0046712 0.00168615 0.0036837 -0.000454687)
(0.00098034 -0.00236962 0.00242066 0.00211883 0.0019108 -0.00159395)
(-0.00088007 -0.00549331 0.00243881 -1.23639e-05 0.00225495 0.00222335)
(-0.00010487 -0.00433997 0.00447104 0.000579389 0.00413328 0.00122581)
(0.000645962 -0.00332113 0.0043679 0.00116918 0.00403816 -0.000453835)
(0.00135803 -0.00242952 0.00226409 0.00174056 0.00209385 -0.00159287)
(-1.2365e-05 -0.00549331 0.00225495 -0.000880069 0.00243881 0.00222335)
(0.000579388 -0.00433997 0.00413328 -0.000104869 0.00447104 0.00122581)
(0.00116918 -0.00332113 0.00403816 0.000645963 0.0043679 -0.000453835)
(0.00174055 -0.00242952 0.00209385 0.00135803 0.00226409 -0.00159287)
(0.000841459 -0.00535526 0.00205744 -0.00173666 0.00260942 0.002223)
(0.00125471 -0.00423222 0.00377028 -0.00078081 0.00478209 0.0012252)
(0.00168615 -0.00323903 0.0036837 0.000129114 0.0046712 -0.000454687)
(0.00211883 -0.00236962 0.0019108 0.00098034 0.00242066 -0.00159395)
(0.00166312 -0.00508663 0.0018464 -0.00255819 0.00276477 0.00222245)
(0.00190483 -0.00402011 0.00338376 -0.00143077 0.00506417 0.00122414)
(0.00218412 -0.00307688 0.00330646 -0.000368271 0.00494608 -0.00045623)
(0.00248339 -0.00225114 0.00171592 0.000616837 0.00256261 -0.00159596)
(0.00243266 -0.00469342 0.0016236 -0.00332726 0.00290275 0.00222194)
(0.00251358 -0.00370919 0.00297623 -0.00203887 0.00531504 0.00122289)
(0.00265048 -0.00283892 0.00290878 -0.000833663 0.00519065 -0.000458206)
(0.00282493 -0.0020771 0.00151046 0.000276703 0.00268901 -0.00159865)
(0.00313128 -0.00418516 0.00139076 -0.00402533 0.00302246 0.00222167)
(0.00306615 -0.00330727 0.00255039 -0.00259059 0.00553312 0.00122168)
(0.00307383 -0.00253124 0.00249321 -0.0012558 0.00540338 -0.000460328)
(0.00313509 -0.001852 0.00129573 -3.17753e-05 0.00279907 -0.00160169)
(0.00374202 -0.00357433 0.00114953 -0.00463553 0.00312323 0.00222174)
(0.00354915 -0.00282426 0.00210896 -0.0030727 0.00571714 0.00122075)
(0.00344391 -0.00216147 0.00206234 -0.00162458 0.00558302 -0.000462269)
(0.00340635 -0.00158146 0.00107304 -0.000301217 0.00289215 -0.00160467)
(0.00425021 -0.00287585 0.000901421 -0.00514315 0.00320456 0.0022223)
(0.0039509 -0.00227197 0.00165457 -0.00347363 0.00586601 0.00122044)
(0.00375171 -0.00173871 0.00161873 -0.00193123 0.00572848 -0.000463552)
(0.00363207 -0.00127217 0.000843692 -0.000525259 0.00296769 -0.001607)
(0.00464383 -0.0021068 0.000647722 -0.00553636 0.00326598 0.00222378)
(0.00426154 -0.00166396 0.00118966 -0.00378381 0.00597881 0.00122157)
(0.00398958 -0.00127352 0.00116475 -0.00216877 0.00583883 -0.0004632)
(0.00380676 -0.000931786 0.000608912 -0.000698779 0.00302512 -0.0016077)
(0.00491917 -0.00128299 0.00038944 -0.00580523 0.00330639 0.00222763)
(0.00447266 -0.00101736 0.000716344 -0.00399765 0.0060548 0.00122671)
(0.00415191 -0.000778699 0.000702391 -0.00233405 0.00591366 -0.000458376)
(0.00392621 -0.00056779 0.000370416 -0.000821217 0.0030637 -0.00160434)
(0.0050107 -0.000479834 -6.78849e-05 -0.00596132 0.00327918 0.00223661)
(0.00456141 -0.000379282 8.71308e-05 -0.00413062 0.0060886 0.00125828)
(0.00422293 -0.000284517 8.46229e-05 -0.0024442 0.00598555 -0.000424519)
(0.00398145 -0.000198881 -6.39283e-05 -0.000911535 0.00316726 -0.00158827)
(-0.00463428 -0.000543968 0.00184865 0.00827042 -0.000100928 -0.00376023)
(-0.00443097 -0.000516613 0.00326163 0.00769079 -2.46899e-05 -0.00148442)
(-0.00398054 -0.000474061 0.00319659 0.00717396 -2.68617e-05 0.000371705)
(-0.00388572 -0.00044721 0.00170153 0.0067174 -0.000103726 0.00257084)
(-0.00448939 -0.00150983 0.00185286 0.00812737 0.00021379 -0.00372066)
(-0.0042804 -0.00141899 0.00323879 0.00753504 0.000378662 -0.00145414)
(-0.00384103 -0.00130343 0.00315086 0.00701967 0.00037092 0.000403144)
(-0.00376325 -0.00123336 0.00164352 0.00655121 0.00019791 0.00261494)
(-0.0041784 -0.00248127 0.00182955 0.00780787 0.000359617 -0.00371905)
(-0.00398651 -0.00232374 0.00319775 0.00724141 0.000634687 -0.00145222)
(-0.00356993 -0.00213536 0.00311048 0.00674905 0.00062077 0.000405259)
(-0.00350655 -0.00202839 0.00162309 0.00629682 0.000329201 0.0026169)
(-0.00371662 -0.00338801 0.00179505 0.00734663 0.000501789 -0.00371891)
(-0.00355431 -0.00317338 0.00313689 0.00680907 0.000883999 -0.00145166)
(-0.00317238 -0.00291619 0.00305113 0.00635151 0.000863654 0.000406205)
(-0.00312928 -0.00277054 0.00159174 0.00591893 0.000456404 0.00261821)
(-0.00311919 -0.00421169 0.00174936 0.00674973 0.000640553 -0.00371919)
(-0.00299463 -0.00394494 0.00305668 0.00624942 0.00112686 -0.00145126)
(-0.00265798 -0.00362523 0.00297293 0.00583672 0.00109994 0.000407216)
(-0.00264056 -0.00344415 0.00155059 0.00542931 0.000579609 0.00261985)
(-0.00240046 -0.00493212 0.00169259 0.00603148 0.000775599 -0.00371956)
(-0.00232135 -0.00461964 0.0029576 0.00557606 0.00136258 -0.00145079)
(-0.00203919 -0.00424512 0.00287654 0.00521735 0.00132901 0.000408438)
(-0.00205262 -0.00403295 0.00150013 0.00484027 0.000698673 0.00262187)
(-0.00157792 -0.00553165 0.00162497 0.00520921 0.000906186 -0.00371991)
(-0.00155078 -0.00518102 0.00284027 0.00480531 0.00158995 -0.00145024)
(-0.00133099 -0.00476075 0.00276263 0.00450854 0.00154977 0.000409766)
(-0.0013798 -0.00452257 0.00144078 0.00416635 0.00081317 0.00262403)
(-0.000671502 -0.00599557 0.00154687 0.00430295 0.00103129 -0.00372019)
(-0.000701509 -0.0056153 0.00270545 0.00395588 0.00180756 -0.0014497)
(-0.000550501 -0.00515943 0.00263198 0.00372753 0.00176093 0.000411015)
(-0.000638445 -0.00490097 0.00137295 0.00342407 0.000922524 0.00262604)
(0.000296894 -0.00631254 0.00145892 0.00333483 0.00114968 -0.0037204)
(0.000206118 -0.00591159 0.00255411 0.00304843 0.00201386 -0.00144927)
(0.000283366 -0.00543112 0.00248547 0.00289341 0.00196115 0.000411984)
(0.000153342 -0.00515863 0.0012971 0.00263158 0.0010261 0.00262758)
(0.00130609 -0.00647513 0.00136285 0.0023284 0.00126007 -0.00372054)
(0.00114991 -0.00606207 0.00238769 0.00210543 0.00220746 -0.00144905)
(0.00114982 -0.00556875 0.0023242 0.00202701 0.00214919 0.000412508)
(0.000975847 -0.00528901 0.00121374 0.00180869 0.00112331 0.00262841)
(0.0023284 -0.00647513 0.00126007 0.0013061 0.00136285 -0.00372054)
(0.00210543 -0.00606207 0.00220746 0.00114991 0.00238769 -0.00144905)
(0.00202701 -0.00556875 0.00214919 0.00114982 0.0023242 0.000412508)
(0.00180868 -0.00528901 0.00112331 0.000975848 0.00121374 0.00262841)
(0.00333483 -0.00631254 0.00114968 0.000296895 0.00145892 -0.0037204)
(0.00304843 -0.00591159 0.00201386 0.000206118 0.00255411 -0.00144927)
(0.00289341 -0.00543112 0.00196115 0.000283367 0.00248547 0.000411984)
(0.00263158 -0.00515863 0.0010261 0.000153343 0.0012971 0.00262758)
(0.00430295 -0.00599557 0.00103129 -0.000671503 0.00154688 -0.00372019)
(0.00395588 -0.0056153 0.00180756 -0.000701509 0.00270545 -0.0014497)
(0.00372753 -0.00515944 0.00176093 -0.000550501 0.00263198 0.000411016)
(0.00342407 -0.00490097 0.000922525 -0.000638444 0.00137295 0.00262604)
(0.00520921 -0.00553165 0.000906187 -0.00157792 0.00162498 -0.00371991)
(0.00480531 -0.00518103 0.00158995 -0.00155078 0.00284027 -0.00145024)
(0.00450854 -0.00476075 0.00154977 -0.00133099 0.00276263 0.000409767)
(0.00416636 -0.00452258 0.000813172 -0.0013798 0.00144078 0.00262403)
(0.00603148 -0.00493212 0.000775599 -0.00240047 0.0016926 -0.00371956)
(0.00557606 -0.00461965 0.00136258 -0.00232135 0.0029576 -0.00145079)
(0.00521735 -0.00424512 0.00132901 -0.00203919 0.00287654 0.000408439)
(0.00484027 -0.00403295 0.000698674 -0.00205262 0.00150013 0.00262187)
(0.00674973 -0.00421169 0.000640554 -0.00311919 0.00174936 -0.00371919)
(0.00624942 -0.00394495 0.00112686 -0.00299463 0.00305668 -0.00145126)
(0.00583672 -0.00362523 0.00109994 -0.00265799 0.00297293 0.000407216)
(0.00542931 -0.00344416 0.00057961 -0.00264056 0.00155059 0.00261985)
(0.00734663 -0.00338801 0.00050179 -0.00371663 0.00179506 -0.00371891)
(0.00680907 -0.00317338 0.000884 -0.00355432 0.0031369 -0.00145166)
(0.00635152 -0.0029162 0.000863655 -0.00317238 0.00305113 0.000406206)
(0.00591894 -0.00277055 0.000456405 -0.00312928 0.00159174 0.00261821)
(0.00780788 -0.00248128 0.000359618 -0.00417841 0.00182955 -0.00371905)
(0.00724141 -0.00232374 0.000634687 -0.00398651 0.00319776 -0.00145222)
(0.00674905 -0.00213536 0.000620771 -0.00356993 0.00311048 0.00040526)
(0.00629682 -0.00202839 0.000329202 -0.00350655 0.00162309 0.0026169)
(0.00812737 -0.00150983 0.00021379 -0.0044894 0.00185286 -0.00372066)
(0.00753504 -0.001419 0.000378662 -0.0042804 0.00323879 -0.00145414)
(0.00701968 -0.00130343 0.00037092 -0.00384103 0.00315086 0.000403145)
(0.00655122 -0.00123336 0.00019791 -0.00376325 0.00164352 0.00261494)
(0.00827042 -0.000543968 -0.000100928 -0.00463429 0.00184866 -0.00376023)
(0.0076908 -0.000516614 -2.46899e-05 -0.00443097 0.00326163 -0.00148442)
(0.00717396 -0.000474062 -2.68616e-05 -0.00398055 0.0031966 0.000371705)
(0.00671741 -0.000447211 -0.000103726 -0.00388572 0.00170153 0.00257084)
(-0.00397394 -0.000599771 0.00061946 0.0104883 -7.59149e-05 -0.00690329)
(-0.00451105 -0.000603947 0.00109351 0.0098178 -5.05429e-05 -0.00302575)
(-0.00486492 -0.000596029 0.00106301 0.0091863 -5.15945e-05 0.000527502)
(-0.00547154 -0.000595559 0.000549955 0.00859716 -7.70993e-05 0.00432181)
(-0.00382167 -0.00169238 0.000617496 0.0103117 6.66036e-05 -0.00683962)
(-0.00435057 -0.00167824 0.00108179 0.00962415 0.000123103 -0.00296701)
(-0.00470818 -0.00164359 0.00104378 0.00898391 0.000120972 0.000588822)
(-0.00532043 -0.00163622 0.000527134 0.00836785 6.36197e-05 0.00439348)
(-0.00347515 -0.00278102 0.000609472 0.00995577 0.000114352 -0.00683479)
(-0.00400584 -0.00275006 0.00106727 0.00927572 0.000208833 -0.00296166)
(-0.00436942 -0.00269344 0.00102974 0.00864147 0.000204828 0.000594171)
(-0.00498123 -0.00269248 0.000520134 0.00802992 0.000107439 0.00439815)
(-0.00295855 -0.00379787 0.000597714 0.00943968 0.000161069 -0.00683287)
(-0.00349478 -0.00375572 0.00104597 0.00876387 0.000292022 -0.00295947)
(-0.00386811 -0.00367851 0.00100902 0.00813942 0.000285806 0.000596373)
(-0.00448042 -0.00367784 0.000509173 0.0075278 0.00014936 0.00440021)
(-0.00228925 -0.00472176 0.000582104 0.00877156 0.000206816 -0.00683238)
(-0.00283242 -0.00466882 0.00101807 0.00810188 0.000372713 -0.00295865)
(-0.00321895 -0.00457264 0.000981815 0.00749006 0.000363961 0.000597336)
(-0.00383111 -0.00457172 0.000494878 0.00687772 0.000189254 0.00440131)
(-0.00148368 -0.00552997 0.000562523 0.00796738 0.000251595 -0.00683257)
(-0.00203554 -0.00546715 0.000983707 0.00730559 0.000450839 -0.00295838)
(-0.0024381 -0.00535404 0.000948522 0.00670917 0.00043926 0.0005979)
(-0.00305005 -0.00535272 0.000477663 0.00609599 0.000227173 0.00440221)
(-0.000561536 -0.00620266 0.000538954 0.0070464 0.000295191 -0.00683309)
(-0.00112362 -0.00613128 0.000943173 0.0063942 0.000526095 -0.00295831)
(-0.00154471 -0.00600377 0.000909537 0.00581574 0.000511468 0.000598378)
(-0.00215652 -0.00600191 0.000457846 0.00520186 0.000263096 0.00440316)
(0.000454772 -0.00672325 0.000511512 0.00603099 0.000337141 -0.00683373)
(-0.000118752 -0.00664495 0.00089685 0.00538975 0.000598015 -0.0029583)
(-0.000560469 -0.00650598 0.0008653 0.00483149 0.000580242 0.000598828)
(-0.00117237 -0.00650345 0.000435736 0.00421721 0.00029694 0.00440413)
(0.00154059 -0.0070789 0.000480563 0.00494589 0.000376754 -0.00683433)
(0.000954892 -0.00699535 0.000845305 0.00431665 0.000666053 -0.00295832)
(0.000490715 -0.00684816 0.000816326 0.0037804 0.000645227 0.000599193)
(-0.000121659 -0.00684491 0.000411637 0.00316611 0.000328631 0.00440494)
(0.00267167 -0.00726101 0.000447476 0.00381749 0.000413277 -0.00683471)
(0.00207112 -0.00717327 0.000789424 0.0032013 0.000729784 -0.00295835)
(0.00158282 -0.00702151 0.000763183 0.00268849 0.000706185 0.000599396)
(0.000969647 -0.00701774 0.000385783 0.00207458 0.000358186 0.00440541)
(0.00381748 -0.00726101 0.000413276 0.00267167 0.000447476 -0.00683471)
(0.0032013 -0.00717327 0.000729784 0.00207112 0.000789424 -0.00295835)
(0.00268849 -0.00702151 0.000706186 0.00158282 0.000763183 0.000599396)
(0.00207458 -0.00701774 0.000358187 0.000969649 0.000385783 0.00440541)
(0.00494589 -0.0070789 0.000376754 0.00154059 0.000480564 -0.00683433)
(0.00431665 -0.00699535 0.000666053 0.000954892 0.000845305 -0.00295832)
(0.00378039 -0.00684816 0.000645228 0.000490716 0.000816326 0.000599194)
(0.00316611 -0.00684491 0.000328633 -0.000121657 0.000411637 0.00440494)
(0.00603099 -0.00672325 0.000337141 0.00045477 0.000511514 -0.00683373)
(0.00538975 -0.00664495 0.000598015 -0.000118753 0.00089685 -0.0029583)
(0.00483149 -0.00650599 0.000580243 -0.000560469 0.0008653 0.000598828)
(0.00421721 -0.00650345 0.000296941 -0.00117237 0.000435736 0.00440413)
(0.0070464 -0.00620266 0.000295192 -0.000561539 0.000538955 -0.00683309)
(0.0063942 -0.00613128 0.000526096 -0.00112362 0.000943173 -0.00295831)
(0.00581575 -0.00600378 0.000511469 -0.00154471 0.000909537 0.000598378)
(0.00520186 -0.00600192 0.000263098 -0.00215652 0.000457846 0.00440316)
(0.00796738 -0.00552998 0.000251596 -0.00148369 0.000562524 -0.00683257)
(0.00730559 -0.00546716 0.00045084 -0.00203554 0.000983708 -0.00295838)
(0.00670917 -0.00535404 0.000439261 -0.00243811 0.000948522 0.0005979)
(0.00609599 -0.00535272 0.000227175 -0.00305005 0.000477663 0.00440221)
(0.00877157 -0.00472176 0.000206816 -0.00228925 0.000582106 -0.00683238)
(0.00810189 -0.00466883 0.000372714 -0.00283242 0.00101807 -0.00295865)
(0.00749006 -0.00457264 0.000363962 -0.00321895 0.000981816 0.000597337)
(0.00687772 -0.00457173 0.000189255 -0.00383112 0.000494879 0.00440131)
(0.00943968 -0.00379787 0.00016107 -0.00295856 0.000597716 -0.00683287)
(0.00876387 -0.00375572 0.000292023 -0.00349479 0.00104598 -0.00295947)
(0.00813942 -0.00367852 0.000285807 -0.00386811 0.00100902 0.000596373)
(0.0075278 -0.00367784 0.000149361 -0.00448042 0.000509174 0.00440021)
(0.00995577 -0.00278102 0.000114353 -0.00347516 0.000609474 -0.00683479)
(0.00927573 -0.00275006 0.000208833 -0.00400584 0.00106727 -0.00296166)
(0.00864148 -0.00269345 0.000204829 -0.00436943 0.00102974 0.000594171)
(0.00802992 -0.00269248 0.000107439 -0.00498124 0.000520135 0.00439815)
(0.0103117 -0.00169238 6.66038e-05 -0.00382168 0.000617498 -0.00683962)
(0.00962416 -0.00167825 0.000123103 -0.00435058 0.00108179 -0.00296701)
(0.00898392 -0.00164359 0.000120972 -0.00470819 0.00104378 0.000588822)
(0.00836785 -0.00163622 6.36201e-05 -0.00532043 0.000527136 0.00439348)
(0.0104883 -0.000599772 -7.59149e-05 -0.00397395 0.000619462 -0.00690329)
(0.0098178 -0.000603948 -5.05428e-05 -0.00451106 0.00109351 -0.00302575)
(0.00918631 -0.000596029 -5.15944e-05 -0.00486493 0.00106301 0.000527503)
(0.00859717 -0.00059556 -7.70993e-05 -0.00547155 0.000549956 0.00432181)
(-0.00373934 -0.000618919 -0.000412398 0.0112512 -2.48879e-05 -0.00744758)
(-0.00444409 -0.000630109 -0.000624096 0.0105532 -3.67478e-05 -0.00341684)
(-0.00502158 -0.000631629 -0.000609419 0.00988851 -3.61654e-05 0.000357094)
(-0.00577879 -0.000636254 -0.000380681 0.00926253 -2.36234e-05 0.00429385)
(-0.00358217 -0.00175509 -0.000415266 0.0110665 -5.41121e-05 -0.0073825)
(-0.00427992 -0.00175812 -0.000623068 0.0103509 -7.66761e-05 -0.00335506)
(-0.00485902 -0.0017455 -0.000605417 0.00967481 -7.28785e-05 0.000421275)
(-0.00561713 -0.00174977 -0.000374093 0.00901844 -4.38042e-05 0.00436601)
(-0.00322312 -0.00288368 -0.000410223 0.0106983 -8.88799e-05 -0.00737681)
(-0.00391921 -0.00288095 -0.000616285 0.0099856 -0.00012651 -0.00334953)
(-0.00449946 -0.00286037 -0.000598924 0.00931058 -0.000120238 0.000426307)
(-0.00525379 -0.0028792 -0.000370386 0.00865638 -7.18651e-05 0.00436998)
(-0.0026877 -0.00393812 -0.000402822 0.0101635 -0.000122291 -0.00737371)
(-0.00338354 -0.0039341 -0.000606109 0.00944899 -0.000175248 -0.00334692)
(-0.00396645 -0.00390615 -0.000589333 0.00877659 -0.000166813 0.000428248)
(-0.00471744 -0.00393258 -0.000364808 0.00811855 -9.9652e-05 0.0043711)
(-0.00199374 -0.00489629 -0.000393323 0.00947106 -0.000154482 -0.00737212)
(-0.0026893 -0.00489017 -0.000592636 0.00875539 -0.000222957 -0.0033459)
(-0.0032764 -0.00485501 -0.000576553 0.0080865 -0.00021273 0.000428611)
(-0.00402225 -0.00488769 -0.0003573 0.00742272 -0.000127333 0.00437073)
(-0.00115835 -0.00573458 -0.00038193 0.00863773 -0.000185345 -0.00737142)
(-0.00185424 -0.00572584 -0.000575929 0.00792145 -0.000269471 -0.00334566)
(-0.00244672 -0.00568383 -0.000560502 0.00725715 -0.000257842 0.000428276)
(-0.00318636 -0.00572169 -0.000347687 0.00658646 -0.000154905 0.00436979)
(-0.000201987 -0.00643233 -0.000368809 0.00768345 -0.000214752 -0.00737127)
(-0.000898933 -0.00642076 -0.000555962 0.00696733 -0.000314556 -0.00334579)
(-0.0014979 -0.00637258 -0.000541028 0.00630877 -0.000301914 0.000427729)
(-0.00223059 -0.00641448 -0.000335744 0.00563045 -0.000182273 0.00436882)
(0.000852033 -0.00697229 -0.000354028 0.0066313 -0.00024268 -0.00737146)
(0.000153327 -0.00695797 -0.000532596 0.00591619 -0.000357972 -0.00334605)
(-0.000453187 -0.00690459 -0.000517901 0.00526451 -0.000344648 0.000427213)
(-0.00117849 -0.00694933 -0.000321206 0.00457818 -0.00020925 0.00436807)
(0.00197798 -0.00734107 -0.000337428 0.00550689 -0.000269273 -0.00737182)
(0.00127704 -0.00732421 -0.000505524 0.00479355 -0.000399449 -0.00334633)
(0.000661927 -0.00726684 -0.000490828 0.00414984 -0.000385626 0.000426832)
(-5.58456e-05 -0.00731323 -0.000303823 0.00345538 -0.000235504 0.0043676)
(0.00315023 -0.00752961 -0.000317915 0.00433748 -0.000294729 -0.00737212)
(0.00244478 -0.00751008 -0.000474204 0.00362691 -0.000438531 -0.00334651)
(0.00181996 -0.00745028 -0.000459549 0.00299218 -0.000424224 0.000426628)
(0.00110973 -0.00749735 -0.000283494 0.0022897 -0.000260497 0.00436738)
(0.00433747 -0.00752961 -0.00029473 0.00315023 -0.000317914 -0.00737212)
(0.0036269 -0.00751008 -0.000438531 0.00244478 -0.000474204 -0.00334651)
(0.00299218 -0.00745028 -0.000424224 0.00181996 -0.000459549 0.000426628)
(0.0022897 -0.00749735 -0.000260497 0.00110974 -0.000283495 0.00436738)
(0.00550688 -0.00734107 -0.000269273 0.00197798 -0.000337427 -0.00737182)
(0.00479355 -0.00732421 -0.000399449 0.00127704 -0.000505524 -0.00334633)
(0.00414984 -0.00726684 -0.000385625 0.000661929 -0.000490828 0.000426832)
(0.00345538 -0.00731323 -0.000235503 -5.58437e-05 -0.000303823 0.0043676)
(0.0066313 -0.00697229 -0.00024268 0.000852032 -0.000354027 -0.00737146)
(0.00591619 -0.00695797 -0.000357972 0.000153327 -0.000532596 -0.00334605)
(0.00526451 -0.0069046 -0.000344647 -0.000453186 -0.000517901 0.000427214)
(0.00457818 -0.00694933 -0.000209249 -0.00117849 -0.000321206 0.00436807)
(0.00768344 -0.00643233 -0.000214752 -0.000201991 -0.000368808 -0.00737127)
(0.00696733 -0.00642076 -0.000314555 -0.000898935 -0.000555962 -0.00334579)
(0.00630877 -0.00637259 -0.000301914 -0.0014979 -0.000541027 0.000427729)
(0.00563046 -0.00641449 -0.000182272 -0.00223059 -0.000335744 0.00436882)
(0.00863773 -0.00573458 -0.000185345 -0.00115836 -0.000381929 -0.00737142)
(0.00792145 -0.00572585 -0.00026947 -0.00185425 -0.000575928 -0.00334566)
(0.00725715 -0.00568383 -0.000257841 -0.00244672 -0.000560501 0.000428276)
(0.00658646 -0.00572169 -0.000154904 -0.00318636 -0.000347687 0.00436979)
(0.00947106 -0.0048963 -0.000154482 -0.00199375 -0.000393322 -0.00737212)
(0.00875539 -0.00489018 -0.000222957 -0.0026893 -0.000592635 -0.0033459)
(0.00808651 -0.00485501 -0.000212729 -0.00327641 -0.000576553 0.000428611)
(0.00742272 -0.00488769 -0.000127332 -0.00402225 -0.000357299 0.00437073)
(0.0101635 -0.00393812 -0.000122291 -0.00268772 -0.000402821 -0.00737371)
(0.009449 -0.0039341 -0.000175247 -0.00338354 -0.000606108 -0.00334692)
(0.0087766 -0.00390616 -0.000166812 -0.00396645 -0.000589332 0.000428249)
(0.00811856 -0.00393259 -9.96514e-05 -0.00471744 -0.000364807 0.0043711)
(0.0106983 -0.00288369 -8.88798e-05 -0.00322313 -0.000410221 -0.00737681)
(0.00998561 -0.00288095 -0.00012651 -0.00391922 -0.000616284 -0.00334953)
(0.00931059 -0.00286037 -0.000120237 -0.00449947 -0.000598923 0.000426307)
(0.00865639 -0.0028792 -7.18647e-05 -0.00525379 -0.000370385 0.00436998)
(0.0110665 -0.00175509 -5.4112e-05 -0.00358219 -0.000415265 -0.0073825)
(0.0103509 -0.00175813 -7.6676e-05 -0.00427993 -0.000623067 -0.00335506)
(0.00967481 -0.0017455 -7.28783e-05 -0.00485903 -0.000605416 0.000421275)
(0.00901845 -0.00174977 -4.3804e-05 -0.00561713 -0.000374092 0.00436601)
(0.0112512 -0.00061892 -2.48879e-05 -0.00373935 -0.000412396 -0.00744758)
(0.0105532 -0.000630109 -3.67478e-05 -0.0044441 -0.000624094 -0.00341684)
(0.00988852 -0.000631629 -3.61654e-05 -0.00502159 -0.000609418 0.000357095)
(0.00926254 -0.000636254 -2.36234e-05 -0.0057788 -0.00038068 0.00429385)
(-0.00367771 -0.000589932 -0.00114374 0.010581 2.76617e-05 -0.00590395)
(-0.00413363 -0.000591065 -0.0018007 0.00992509 -8.87819e-06 -0.00286454)
(-0.00453934 -0.000586204 -0.00175181 0.00930705 -7.33213e-06 2.3156e-05)
(-0.00505497 -0.000581648 -0.00103692 0.00873143 2.96853e-05 0.00298555)
(-0.00352316 -0.0016702 -0.00114524 0.0104127 -0.000137182 -0.00585565)