/*--------------------------------*- C++ -*----------------------------------*\
| =========                 |                                                 |
| \\      /  F ield         | foam-extend: Open Source CFD                    |
|  \\    /   O peration     | Version:     3.1                                |
|   \\  /    A nd           | Web:         http://www.extend-project.de       |
|    \\/     M anipulation  |                                                 |
\*---------------------------------------------------------------------------*/
FoamFile
{
    version     2.0;
    format      ascii;
    class       pointVectorField;
    location    "0.0008";
    object      pointD;
}
// * * * * * * * * * * * * * * * * * * * * * * * * * * * * * * * * * * * * * //

dimensions      [0 1 0 0 0 0 0];

internalField   nonuniform List<vector> 
8505
(
(0 0 0)
(0 0 0)
(0 0 0)
(0 0 0)
(0 0 0)
(0 0 0)
(0 0 0)
(0 0 0)
(0 0 0)
(0 0 0)
(0 0 0)
(0 0 0)
(0 0 0)
(0 0 0)
(0 0 0)
(0 0 0)
(0 0 0)
(0 0 0)
(0 0 0)
(0 0 0)
(0 0 0)
(0 0 0)
(0 0 0)
(0 0 0)
(0 0 0)
(0 0 0)
(0 0 0)
(0 0 0)
(0 0 0)
(0 0 0)
(0 0 0)
(0 0 0)
(0 0 0)
(0 0 0)
(0 0 0)
(0 0 0)
(0 0 0)
(0 0 0)
(0 0 0)
(0 0 0)
(0 0 0)
(0 0 0)
(0 0 0)
(0 0 0)
(0 0 0)
(0 0 0)
(0 0 0)
(0 0 0)
(0 0 0)
(0 0 0)
(0 0 0)
(0 0 0)
(0 0 0)
(0 0 0)
(0 0 0)
(0 0 0)
(0 0 0)
(0 0 0)
(0 0 0)
(0 0 0)
(0 0 0)
(0 0 0)
(0 0 0)
(0 0 0)
(0 0 0)
(0 0 0)
(0 0 0)
(0 0 0)
(0 0 0)
(0 0 0)
(0 0 0)
(0 0 0)
(0 0 0)
(0 0 0)
(0 0 0)
(0 0 0)
(0 0 0)
(0 0 0)
(0 0 0)
(0 0 0)
(0 0 0)
(0 0 0)
(0 0 0)
(0 0 0)
(0 0 0)
(0 0 0)
(0 0 0)
(0 0 0)
(0 0 0)
(0 0 0)
(0 0 0)
(0 0 0)
(0 0 0)
(0 0 0)
(0 0 0)
(0 0 0)
(0 0 0)
(0 0 0)
(0 0 0)
(0 0 0)
(0 0 0)
(0 0 0)
(0 0 0)
(0 0 0)
(0 0 0)
(1.76208e-05 0 1.02318e-05)
(1.59006e-05 0 4.54439e-06)
(1.49164e-05 0 6.57297e-07)
(1.45215e-05 0 -3.12803e-06)
(1.47406e-05 0 -8.35628e-06)
(1.75021e-05 1.35462e-06 1.00366e-05)
(1.58099e-05 1.23075e-06 4.42003e-06)
(1.48468e-05 1.15813e-06 5.49873e-07)
(1.44716e-05 1.12966e-06 -3.25997e-06)
(1.47153e-05 1.14888e-06 -8.5703e-06)
(1.73308e-05 2.73197e-06 1.00302e-05)
(1.56567e-05 2.46957e-06 4.41605e-06)
(1.47044e-05 2.32151e-06 5.46872e-07)
(1.43348e-05 2.26506e-06 -3.26236e-06)
(1.45795e-05 2.3053e-06 -8.57112e-06)
(1.70582e-05 4.08557e-06 1.00266e-05)
(1.54108e-05 3.69211e-06 4.41383e-06)
(1.44736e-05 3.46954e-06 5.45637e-07)
(1.411e-05 3.38451e-06 -3.2627e-06)
(1.4351e-05 3.4442e-06 -8.57024e-06)
(1.6682e-05 5.41232e-06 1.00247e-05)
(1.50709e-05 4.8908e-06 4.41296e-06)
(1.41542e-05 4.59526e-06 5.45625e-07)
(1.37984e-05 4.48191e-06 -3.26182e-06)
(1.4034e-05 4.56027e-06 -8.56818e-06)
(1.62037e-05 6.70483e-06 1.00238e-05)
(1.46386e-05 6.05856e-06 4.41289e-06)
(1.3748e-05 5.69189e-06 5.46284e-07)
(1.34022e-05 5.55081e-06 -3.26034e-06)
(1.36307e-05 5.64721e-06 -8.5656e-06)
(1.5626e-05 7.95554e-06 1.00237e-05)
(1.41165e-05 7.1885e-06 4.41331e-06)
(1.32574e-05 6.75291e-06 5.47286e-07)
(1.29237e-05 6.58487e-06 -3.25863e-06)
(1.31438e-05 6.69862e-06 -8.56292e-06)
(1.49524e-05 9.157e-06 1.00242e-05)
(1.35076e-05 8.27385e-06 4.41408e-06)
(1.26853e-05 7.77196e-06 5.48434e-07)
(1.23658e-05 7.57794e-06 -3.25694e-06)
(1.25762e-05 7.70827e-06 -8.56043e-06)
(1.41868e-05 1.0302e-05 1.00254e-05)
(1.28156e-05 9.3081e-06 4.41509e-06)
(1.20352e-05 8.74292e-06 5.49573e-07)
(1.17321e-05 8.52405e-06 -3.25546e-06)
(1.19316e-05 8.67012e-06 -8.55835e-06)
(1.33336e-05 1.13837e-05 1.00271e-05)
(1.20445e-05 1.0285e-05 4.41616e-06)
(1.13112e-05 9.65993e-06 5.50511e-07)
(1.10264e-05 9.41753e-06 -3.25439e-06)
(1.12139e-05 9.57842e-06 -8.55692e-06)
(1.23968e-05 1.23968e-05 1.0028e-05)
(1.1199e-05 1.1199e-05 4.41668e-06)
(1.05177e-05 1.05177e-05 5.50901e-07)
(1.02532e-05 1.02532e-05 -3.25399e-06)
(1.04279e-05 1.04279e-05 -8.55639e-06)
(1.13837e-05 1.33336e-05 1.00271e-05)
(1.0285e-05 1.20445e-05 4.41616e-06)
(9.65993e-06 1.13112e-05 5.50512e-07)
(9.41753e-06 1.10264e-05 -3.25439e-06)
(9.57842e-06 1.12139e-05 -8.55692e-06)
(1.0302e-05 1.41868e-05 1.00254e-05)
(9.3081e-06 1.28156e-05 4.41509e-06)
(8.74293e-06 1.20353e-05 5.49573e-07)
(8.52406e-06 1.17321e-05 -3.25546e-06)
(8.67013e-06 1.19316e-05 -8.55835e-06)
(9.15701e-06 1.49524e-05 1.00242e-05)
(8.27386e-06 1.35076e-05 4.41408e-06)
(7.77197e-06 1.26853e-05 5.48434e-07)
(7.57795e-06 1.23658e-05 -3.25694e-06)
(7.70828e-06 1.25762e-05 -8.56043e-06)
(7.95555e-06 1.5626e-05 1.00237e-05)
(7.1885e-06 1.41165e-05 4.41331e-06)
(6.75291e-06 1.32574e-05 5.47286e-07)
(6.58488e-06 1.29237e-05 -3.25863e-06)
(6.69863e-06 1.31438e-05 -8.56292e-06)
(6.70483e-06 1.62037e-05 1.00238e-05)
(6.05856e-06 1.46386e-05 4.41289e-06)
(5.6919e-06 1.3748e-05 5.46284e-07)
(5.55081e-06 1.34022e-05 -3.26034e-06)
(5.64721e-06 1.36307e-05 -8.5656e-06)
(5.41233e-06 1.6682e-05 1.00247e-05)
(4.8908e-06 1.50709e-05 4.41297e-06)
(4.59526e-06 1.41542e-05 5.45625e-07)
(4.48191e-06 1.37984e-05 -3.26182e-06)
(4.56027e-06 1.4034e-05 -8.56818e-06)
(4.08557e-06 1.70582e-05 1.00266e-05)
(3.69211e-06 1.54108e-05 4.41383e-06)
(3.46955e-06 1.44736e-05 5.45637e-07)
(3.38451e-06 1.411e-05 -3.2627e-06)
(3.4442e-06 1.4351e-05 -8.57025e-06)
(2.73198e-06 1.73309e-05 1.00302e-05)
(2.46958e-06 1.56567e-05 4.41605e-06)
(2.32152e-06 1.47044e-05 5.46872e-07)
(2.26506e-06 1.43348e-05 -3.26236e-06)
(2.3053e-06 1.45795e-05 -8.57112e-06)
(1.35462e-06 1.75021e-05 1.00366e-05)
(1.23075e-06 1.58099e-05 4.42003e-06)
(1.15813e-06 1.48468e-05 5.49873e-07)
(1.12966e-06 1.44716e-05 -3.25997e-06)
(1.14888e-06 1.47153e-05 -8.5703e-06)
(0 1.76208e-05 1.02318e-05)
(0 1.59006e-05 4.54439e-06)
(0 1.49164e-05 6.57297e-07)
(0 1.45215e-05 -3.12803e-06)
(0 1.47406e-05 -8.35628e-06)
(3.58674e-05 0 1.17138e-05)
(3.45853e-05 0 5.86718e-06)
(3.34835e-05 0 9.49711e-07)
(3.26373e-05 0 -3.90594e-06)
(3.19449e-05 0 -9.54463e-06)
(3.57169e-05 2.79559e-06 1.15326e-05)
(3.44379e-05 2.70489e-06 5.71373e-06)
(3.33462e-05 2.62334e-06 8.02719e-07)
(3.25098e-05 2.56195e-06 -4.0728e-06)
(3.18209e-05 2.51429e-06 -9.75631e-06)
(3.53786e-05 5.59147e-06 1.15241e-05)
(3.41102e-05 5.39502e-06 5.70484e-06)
(3.30294e-05 5.22844e-06 7.94432e-07)
(3.22017e-05 5.10188e-06 -4.08009e-06)
(3.15194e-05 4.99824e-06 -9.76011e-06)
(3.48237e-05 8.34769e-06 1.15194e-05)
(3.35752e-05 8.05212e-06 5.7012e-06)
(3.25109e-05 7.80111e-06 7.91964e-07)
(3.1696e-05 7.60998e-06 -4.08108e-06)
(3.10241e-05 7.45305e-06 -9.75913e-06)
(3.40554e-05 1.10519e-05 1.15167e-05)
(3.2834e-05 1.06592e-05 5.69999e-06)
(3.17928e-05 1.03254e-05 7.92137e-07)
(3.09955e-05 1.00708e-05 -4.07939e-06)
(3.03379e-05 9.86139e-06 -9.75559e-06)
(3.30781e-05 1.36879e-05 1.15153e-05)
(3.18913e-05 1.32004e-05 5.70005e-06)
(3.08795e-05 1.27857e-05 7.93563e-07)
(3.01046e-05 1.2469e-05 -4.07648e-06)
(2.94654e-05 1.22083e-05 -9.75091e-06)
(3.18977e-05 1.62396e-05 1.15149e-05)
(3.07528e-05 1.56602e-05 5.70088e-06)
(2.97767e-05 1.5167e-05 7.95575e-07)
(2.9029e-05 1.479e-05 -4.07313e-06)
(2.84124e-05 1.44795e-05 -9.74597e-06)
(3.05214e-05 1.86915e-05 1.15154e-05)
(2.94255e-05 1.80237e-05 5.70219e-06)
(2.84912e-05 1.74548e-05 7.97783e-07)
(2.77756e-05 1.70198e-05 -4.06985e-06)
(2.71853e-05 1.66612e-05 -9.74137e-06)
(2.89575e-05 2.10287e-05 1.15168e-05)
(2.79174e-05 2.02765e-05 5.70379e-06)
(2.70308e-05 1.96354e-05 7.99872e-07)
(2.63518e-05 1.91448e-05 -4.06704e-06)
(2.57918e-05 1.87403e-05 -9.7376e-06)
(2.72152e-05 2.3237e-05 1.15186e-05)
(2.62374e-05 2.24047e-05 5.7053e-06)
(2.54044e-05 2.16952e-05 8.01479e-07)
(2.47666e-05 2.11521e-05 -4.06507e-06)
(2.42405e-05 2.07041e-05 -9.73507e-06)
(2.53039e-05 2.53039e-05 1.15196e-05)
(2.43959e-05 2.43959e-05 5.70598e-06)
(2.36221e-05 2.36221e-05 8.0211e-07)
(2.30297e-05 2.30297e-05 -4.06435e-06)
(2.25411e-05 2.25411e-05 -9.73417e-06)
(2.3237e-05 2.72152e-05 1.15186e-05)
(2.24047e-05 2.62374e-05 5.7053e-06)
(2.16952e-05 2.54044e-05 8.01479e-07)
(2.11521e-05 2.47666e-05 -4.06507e-06)
(2.07041e-05 2.42405e-05 -9.73507e-06)
(2.10287e-05 2.89575e-05 1.15168e-05)
(2.02765e-05 2.79174e-05 5.70379e-06)
(1.96354e-05 2.70308e-05 7.99873e-07)
(1.91448e-05 2.63518e-05 -4.06704e-06)
(1.87403e-05 2.57918e-05 -9.7376e-06)
(1.86915e-05 3.05214e-05 1.15154e-05)
(1.80237e-05 2.94255e-05 5.70219e-06)
(1.74549e-05 2.84912e-05 7.97783e-07)
(1.70198e-05 2.77756e-05 -4.06986e-06)
(1.66612e-05 2.71853e-05 -9.74137e-06)
(1.62396e-05 3.18977e-05 1.15149e-05)
(1.56602e-05 3.07528e-05 5.70088e-06)
(1.5167e-05 2.97767e-05 7.95576e-07)
(1.479e-05 2.90291e-05 -4.07313e-06)
(1.44795e-05 2.84124e-05 -9.74597e-06)
(1.36879e-05 3.30781e-05 1.15153e-05)
(1.32004e-05 3.18913e-05 5.70006e-06)
(1.27857e-05 3.08795e-05 7.93564e-07)
(1.2469e-05 3.01046e-05 -4.07648e-06)
(1.22083e-05 2.94654e-05 -9.75091e-06)
(1.10519e-05 3.40554e-05 1.15167e-05)
(1.06592e-05 3.2834e-05 5.69999e-06)
(1.03254e-05 3.17928e-05 7.92138e-07)
(1.00708e-05 3.09955e-05 -4.07939e-06)
(9.8614e-06 3.03379e-05 -9.75559e-06)
(8.34769e-06 3.48238e-05 1.15194e-05)
(8.05213e-06 3.35752e-05 5.7012e-06)
(7.80111e-06 3.25109e-05 7.91965e-07)
(7.60999e-06 3.1696e-05 -4.08108e-06)
(7.45306e-06 3.10241e-05 -9.75913e-06)
(5.59147e-06 3.53786e-05 1.15241e-05)
(5.39503e-06 3.41102e-05 5.70485e-06)
(5.22844e-06 3.30294e-05 7.94432e-07)
(5.10188e-06 3.22017e-05 -4.08009e-06)
(4.99825e-06 3.15194e-05 -9.76011e-06)
(2.79559e-06 3.57169e-05 1.15326e-05)
(2.70489e-06 3.44379e-05 5.71373e-06)
(2.62334e-06 3.33462e-05 8.0272e-07)
(2.56195e-06 3.25098e-05 -4.0728e-06)
(2.51429e-06 3.18209e-05 -9.75631e-06)
(0 3.58675e-05 1.17138e-05)
(0 3.45853e-05 5.86719e-06)
(0 3.34835e-05 9.49712e-07)
(0 3.26373e-05 -3.90594e-06)
(0 3.1945e-05 -9.54463e-06)
(5.05534e-05 0 8.48999e-06)
(4.95111e-05 0 4.32921e-06)
(4.83848e-05 0 5.87133e-07)
(4.72289e-05 0 -3.12448e-06)
(4.59718e-05 0 -7.17722e-06)
(5.03689e-05 3.9537e-06 8.36539e-06)
(4.93218e-05 3.88001e-06 4.21485e-06)
(4.81953e-05 3.79697e-06 4.7293e-07)
(4.70391e-05 3.7126e-06 -3.24964e-06)
(4.57783e-05 3.62617e-06 -7.3239e-06)
(4.9896e-05 7.88995e-06 8.35835e-06)
(4.88557e-05 7.73123e-06 4.20794e-06)
(4.77382e-05 7.56079e-06 4.6654e-07)
(4.65915e-05 7.38611e-06 -3.25479e-06)
(4.53415e-05 7.19567e-06 -7.32645e-06)
(4.91139e-05 1.17736e-05 8.35378e-06)
(4.80889e-05 1.15343e-05 4.20469e-06)
(4.69879e-05 1.12769e-05 4.64602e-07)
(4.58583e-05 1.10129e-05 -3.25506e-06)
(4.46268e-05 1.07246e-05 -7.32467e-06)
(4.8029e-05 1.55846e-05 8.35078e-06)
(4.70257e-05 1.52658e-05 4.20355e-06)
(4.59481e-05 1.49228e-05 4.65171e-07)
(4.48427e-05 1.45708e-05 -3.25265e-06)
(4.36375e-05 1.41867e-05 -7.32009e-06)
(4.66486e-05 1.92998e-05 8.3489e-06)
(4.56732e-05 1.8903e-05 4.20365e-06)
(4.46258e-05 1.84762e-05 4.67083e-07)
(4.35514e-05 1.80382e-05 -3.24882e-06)
(4.23802e-05 1.75603e-05 -7.31399e-06)
(4.49815e-05 2.28968e-05 8.34798e-06)
(4.40403e-05 2.24239e-05 4.20455e-06)
(4.30297e-05 2.19156e-05 4.69672e-07)
(4.19932e-05 2.13941e-05 -3.24441e-06)
(4.08633e-05 2.0825e-05 -7.30742e-06)
(4.30384e-05 2.63535e-05 8.34799e-06)
(4.21374e-05 2.58074e-05 4.20598e-06)
(4.11699e-05 2.52204e-05 4.72479e-07)
(4.01779e-05 2.46182e-05 -3.24006e-06)
(3.90967e-05 2.39612e-05 -7.30119e-06)
(4.08312e-05 2.96489e-05 8.34891e-06)
(3.9976e-05 2.90327e-05 4.20768e-06)
(3.90581e-05 2.83705e-05 4.75095e-07)
(3.8117e-05 2.76911e-05 -3.23632e-06)
(3.70914e-05 2.69502e-05 -7.29603e-06)
(3.8373e-05 3.27631e-05 8.35045e-06)
(3.75692e-05 3.20803e-05 4.20927e-06)
(3.6707e-05 3.13467e-05 4.77055e-07)
(3.58231e-05 3.05943e-05 -3.23374e-06)
(3.48598e-05 2.97739e-05 -7.29258e-06)
(3.56776e-05 3.56776e-05 8.35133e-06)
(3.49317e-05 3.49317e-05 4.20997e-06)
(3.41312e-05 3.41312e-05 4.77807e-07)
(3.33104e-05 3.33104e-05 -3.2328e-06)
(3.24157e-05 3.24157e-05 -7.29135e-06)
(3.27631e-05 3.8373e-05 8.35045e-06)
(3.20803e-05 3.75692e-05 4.20927e-06)
(3.13467e-05 3.6707e-05 4.77055e-07)
(3.05943e-05 3.58231e-05 -3.23374e-06)
(2.97739e-05 3.48598e-05 -7.29258e-06)
(2.9649e-05 4.08312e-05 8.34891e-06)
(2.90327e-05 3.9976e-05 4.20768e-06)
(2.83705e-05 3.90581e-05 4.75095e-07)
(2.76911e-05 3.8117e-05 -3.23632e-06)
(2.69502e-05 3.70914e-05 -7.29603e-06)
(2.63535e-05 4.30385e-05 8.34799e-06)
(2.58074e-05 4.21374e-05 4.20598e-06)
(2.52204e-05 4.117e-05 4.72479e-07)
(2.46182e-05 4.01779e-05 -3.24006e-06)
(2.39612e-05 3.90967e-05 -7.30119e-06)
(2.28968e-05 4.49816e-05 8.34798e-06)
(2.24239e-05 4.40403e-05 4.20455e-06)
(2.19157e-05 4.30297e-05 4.69672e-07)
(2.13941e-05 4.19932e-05 -3.24441e-06)
(2.0825e-05 4.08633e-05 -7.30742e-06)
(1.92999e-05 4.66486e-05 8.34891e-06)
(1.8903e-05 4.56732e-05 4.20366e-06)
(1.84762e-05 4.46258e-05 4.67084e-07)
(1.80383e-05 4.35514e-05 -3.24882e-06)
(1.75603e-05 4.23802e-05 -7.314e-06)
(1.55846e-05 4.8029e-05 8.35079e-06)
(1.52658e-05 4.70257e-05 4.20356e-06)
(1.49228e-05 4.59481e-05 4.65172e-07)
(1.45708e-05 4.48427e-05 -3.25265e-06)
(1.41867e-05 4.36375e-05 -7.32009e-06)
(1.17736e-05 4.91139e-05 8.35378e-06)
(1.15343e-05 4.80889e-05 4.20469e-06)
(1.12769e-05 4.69879e-05 4.64603e-07)
(1.10129e-05 4.58584e-05 -3.25506e-06)
(1.07246e-05 4.46268e-05 -7.32467e-06)
(7.88995e-06 4.9896e-05 8.35835e-06)
(7.73123e-06 4.88557e-05 4.20794e-06)
(7.5608e-06 4.77382e-05 4.66541e-07)
(7.38611e-06 4.65916e-05 -3.25479e-06)
(7.19567e-06 4.53415e-05 -7.32645e-06)
(3.9537e-06 5.03689e-05 8.3654e-06)
(3.88001e-06 4.93218e-05 4.21485e-06)
(3.79697e-06 4.81953e-05 4.72931e-07)
(3.7126e-06 4.70391e-05 -3.24964e-06)
(3.62617e-06 4.57783e-05 -7.3239e-06)
(0 5.05534e-05 8.48999e-06)
(0 4.95112e-05 4.32922e-06)
(0 4.83848e-05 5.87134e-07)
(0 4.72289e-05 -3.12448e-06)
(0 4.59719e-05 -7.17722e-06)
(5.8403e-05 0 2.81531e-06)
(5.74551e-05 0 1.27811e-06)
(5.63188e-05 0 -2.29988e-07)
(5.50357e-05 0 -1.73623e-06)
(5.35532e-05 0 -3.26659e-06)
(5.81982e-05 4.5693e-06 2.77175e-06)
(5.72423e-05 4.50275e-06 1.23349e-06)
(5.61017e-05 4.41938e-06 -2.76484e-07)
(5.4814e-05 4.32627e-06 -1.78533e-06)
(5.33252e-05 4.22525e-06 -3.31846e-06)
(5.76516e-05 9.11339e-06 2.76859e-06)
(5.67009e-05 8.97069e-06 1.23116e-06)
(5.55683e-05 8.7996e-06 -2.78051e-07)
(5.42905e-05 8.6063e-06 -1.78583e-06)
(5.28141e-05 8.38262e-06 -3.31748e-06)
(5.67458e-05 1.35977e-05 2.76567e-06)
(5.58085e-05 1.33823e-05 1.22986e-06)
(5.46922e-05 1.31237e-05 -2.77969e-07)
(5.34332e-05 1.28311e-05 -1.78422e-06)
(5.19785e-05 1.24923e-05 -3.31407e-06)
(5.54891e-05 1.79979e-05 2.76316e-06)
(5.4571e-05 1.77101e-05 1.22944e-06)
(5.34781e-05 1.73651e-05 -2.76599e-07)
(5.22458e-05 1.69749e-05 -1.781e-06)
(5.08222e-05 1.65232e-05 -3.30866e-06)
(5.38903e-05 2.22874e-05 2.76114e-06)
(5.29973e-05 2.19283e-05 1.22972e-06)
(5.19347e-05 2.14984e-05 -2.74345e-07)
(5.07369e-05 2.10125e-05 -1.77671e-06)
(4.93534e-05 2.04502e-05 -3.30192e-06)
(5.19603e-05 2.64403e-05 2.75973e-06)
(5.10981e-05 2.60114e-05 1.23057e-06)
(5.00726e-05 2.54986e-05 -2.71558e-07)
(4.89171e-05 2.49195e-05 -1.7719e-06)
(4.75825e-05 2.42496e-05 -3.29462e-06)
(4.97115e-05 3.04317e-05 2.7591e-06)
(4.88859e-05 2.9935e-05 1.23187e-06)
(4.79044e-05 2.93421e-05 -2.68588e-07)
(4.67985e-05 2.86729e-05 -1.76713e-06)
(4.55215e-05 2.7899e-05 -3.28758e-06)
(4.71582e-05 3.42373e-05 2.75934e-06)
(4.63748e-05 3.36756e-05 1.23343e-06)
(4.54436e-05 3.30058e-05 -2.65832e-07)
(4.43948e-05 3.22502e-05 -1.76299e-06)
(4.31838e-05 3.13769e-05 -3.28163e-06)
(4.4316e-05 3.78342e-05 2.76033e-06)
(4.35801e-05 3.72107e-05 1.23488e-06)
(4.27058e-05 3.64679e-05 -2.63781e-07)
(4.1721e-05 3.56304e-05 -1.76012e-06)
(4.05839e-05 3.46629e-05 -3.27761e-06)
(4.12012e-05 4.12012e-05 2.76098e-06)
(4.0519e-05 4.0519e-05 1.23551e-06)
(3.97077e-05 3.97077e-05 -2.63e-07)
(3.87936e-05 3.87936e-05 -1.75909e-06)
(3.77379e-05 3.77379e-05 -3.27617e-06)
(3.78343e-05 4.4316e-05 2.76033e-06)
(3.72107e-05 4.35802e-05 1.23488e-06)
(3.64679e-05 4.27058e-05 -2.63781e-07)
(3.56304e-05 4.1721e-05 -1.76012e-06)
(3.4663e-05 4.05839e-05 -3.27761e-06)
(3.42373e-05 4.71582e-05 2.75934e-06)
(3.36756e-05 4.63748e-05 1.23343e-06)
(3.30058e-05 4.54437e-05 -2.65832e-07)
(3.22502e-05 4.43948e-05 -1.76299e-06)
(3.13769e-05 4.31838e-05 -3.28163e-06)
(3.04317e-05 4.97115e-05 2.7591e-06)
(2.9935e-05 4.8886e-05 1.23187e-06)
(2.93421e-05 4.79044e-05 -2.68588e-07)
(2.86729e-05 4.67985e-05 -1.76713e-06)
(2.7899e-05 4.55216e-05 -3.28758e-06)
(2.64403e-05 5.19603e-05 2.75973e-06)
(2.60114e-05 5.10981e-05 1.23058e-06)
(2.54987e-05 5.00727e-05 -2.71557e-07)
(2.49195e-05 4.89171e-05 -1.7719e-06)
(2.42496e-05 4.75825e-05 -3.29462e-06)
(2.22874e-05 5.38903e-05 2.76114e-06)
(2.19283e-05 5.29973e-05 1.22973e-06)
(2.14984e-05 5.19347e-05 -2.74344e-07)
(2.10125e-05 5.07369e-05 -1.77671e-06)
(2.04502e-05 4.93534e-05 -3.30192e-06)
(1.79979e-05 5.54891e-05 2.76316e-06)
(1.77101e-05 5.4571e-05 1.22944e-06)
(1.73651e-05 5.34781e-05 -2.76598e-07)
(1.69749e-05 5.22458e-05 -1.781e-06)
(1.65232e-05 5.08222e-05 -3.30866e-06)
(1.35977e-05 5.67458e-05 2.76568e-06)
(1.33823e-05 5.58085e-05 1.22987e-06)
(1.31237e-05 5.46922e-05 -2.77968e-07)
(1.28312e-05 5.34332e-05 -1.78422e-06)
(1.24923e-05 5.19786e-05 -3.31407e-06)
(9.1134e-06 5.76516e-05 2.7686e-06)
(8.97069e-06 5.6701e-05 1.23117e-06)
(8.79961e-06 5.55683e-05 -2.7805e-07)
(8.6063e-06 5.42905e-05 -1.78583e-06)
(8.38263e-06 5.28141e-05 -3.31749e-06)
(4.56931e-06 5.81982e-05 2.77176e-06)
(4.50276e-06 5.72424e-05 1.23349e-06)
(4.41938e-06 5.61017e-05 -2.76483e-07)
(4.32627e-06 5.4814e-05 -1.78533e-06)
(4.22525e-06 5.33252e-05 -3.31846e-06)
(0 5.8403e-05 2.81531e-06)
(0 5.74552e-05 1.27812e-06)
(0 5.63189e-05 -2.29986e-07)
(0 5.50357e-05 -1.73623e-06)
(0 5.35532e-05 -3.26659e-06)
(5.83832e-05 0 -3.2253e-06)
(5.74587e-05 0 -2.08926e-06)
(5.63674e-05 0 -1.22464e-06)
(5.51345e-05 0 -3.88377e-07)
(5.37239e-05 0 6.48102e-07)
(5.81776e-05 4.56289e-06 -3.18811e-06)
(5.72462e-05 4.4992e-06 -2.06102e-06)
(5.61506e-05 4.42e-06 -1.19882e-06)
(5.49133e-05 4.33148e-06 -3.5821e-07)
(5.34975e-05 4.23667e-06 6.89993e-07)
(5.76287e-05 9.10201e-06 -3.18679e-06)
(5.67022e-05 8.965e-06 -2.05868e-06)
(5.5614e-05 8.80239e-06 -1.19578e-06)
(5.4386e-05 8.61842e-06 -3.54491e-07)
(5.29822e-05 8.40788e-06 6.94029e-07)
(5.67195e-05 1.35812e-05 -3.18706e-06)
(5.58056e-05 1.33741e-05 -2.05754e-06)
(5.47328e-05 1.31281e-05 -1.19357e-06)
(5.35229e-05 1.28494e-05 -3.51249e-07)
(5.21396e-05 1.25301e-05 6.98473e-07)
(5.54584e-05 1.79759e-05 -3.18806e-06)
(5.45628e-05 1.76988e-05 -2.05679e-06)
(5.35123e-05 1.73702e-05 -1.19142e-06)
(5.23279e-05 1.69981e-05 -3.47715e-07)
(5.0974e-05 1.6572e-05 7.03692e-07)
(5.38547e-05 2.22596e-05 -3.18928e-06)
(5.29831e-05 2.1913e-05 -2.05602e-06)
(5.19615e-05 2.15031e-05 -1.18905e-06)
(5.08101e-05 2.10393e-05 -3.43722e-07)
(4.94944e-05 2.05084e-05 7.09698e-07)
(5.19196e-05 2.64065e-05 -3.19037e-06)
(5.10778e-05 2.59917e-05 -2.05503e-06)
(5.00918e-05 2.55021e-05 -1.18642e-06)
(4.8981e-05 2.49487e-05 -3.39403e-07)
(4.77118e-05 2.43156e-05 7.16185e-07)
(4.96662e-05 3.03919e-05 -3.19103e-06)
(4.88601e-05 2.99107e-05 -2.05379e-06)
(4.79163e-05 2.93438e-05 -1.18369e-06)
(4.68533e-05 2.87035e-05 -3.35101e-07)
(4.56391e-05 2.79714e-05 7.22583e-07)
(4.71092e-05 3.41924e-05 -3.19104e-06)
(4.63445e-05 3.36471e-05 -2.05237e-06)
(4.54495e-05 3.30057e-05 -1.18116e-06)
(4.44416e-05 3.2282e-05 -3.31322e-07)
(4.32905e-05 3.14549e-05 7.28122e-07)
(4.42649e-05 3.77855e-05 -3.19039e-06)
(4.35472e-05 3.71789e-05 -2.05108e-06)
(4.27073e-05 3.64667e-05 -1.17927e-06)
(4.17615e-05 3.56638e-05 -3.28667e-07)
(4.06813e-05 3.47464e-05 7.31945e-07)
(4.11502e-05 4.11502e-05 -3.18992e-06)
(4.04856e-05 4.04856e-05 -2.05052e-06)
(3.97069e-05 3.97069e-05 -1.17855e-06)
(3.88297e-05 3.88297e-05 -3.277e-07)
(3.78277e-05 3.78277e-05 7.33319e-07)
(3.77855e-05 4.42649e-05 -3.19039e-06)
(3.71789e-05 4.35472e-05 -2.05108e-06)
(3.64667e-05 4.27073e-05 -1.17927e-06)
(3.56638e-05 4.17615e-05 -3.28667e-07)
(3.47464e-05 4.06813e-05 7.31944e-07)
(3.41924e-05 4.71092e-05 -3.19104e-06)
(3.36471e-05 4.63445e-05 -2.05237e-06)
(3.30057e-05 4.54495e-05 -1.18116e-06)
(3.2282e-05 4.44416e-05 -3.31322e-07)
(3.14549e-05 4.32905e-05 7.28121e-07)
(3.0392e-05 4.96662e-05 -3.19103e-06)
(2.99108e-05 4.88601e-05 -2.05379e-06)
(2.93438e-05 4.79163e-05 -1.18369e-06)
(2.87035e-05 4.68533e-05 -3.35101e-07)
(2.79714e-05 4.56391e-05 7.22582e-07)
(2.64065e-05 5.19196e-05 -3.19037e-06)
(2.59918e-05 5.10779e-05 -2.05503e-06)
(2.55021e-05 5.00919e-05 -1.18642e-06)
(2.49487e-05 4.8981e-05 -3.39403e-07)
(2.43156e-05 4.77118e-05 7.16184e-07)
(2.22596e-05 5.38547e-05 -3.18928e-06)
(2.19131e-05 5.29832e-05 -2.05602e-06)
(2.15031e-05 5.19616e-05 -1.18905e-06)
(2.10393e-05 5.08102e-05 -3.43722e-07)
(2.05084e-05 4.94944e-05 7.09697e-07)
(1.79759e-05 5.54584e-05 -3.18805e-06)
(1.76988e-05 5.45629e-05 -2.05679e-06)
(1.73702e-05 5.35123e-05 -1.19142e-06)
(1.69981e-05 5.23279e-05 -3.47715e-07)
(1.6572e-05 5.0974e-05 7.03691e-07)
(1.35812e-05 5.67195e-05 -3.18706e-06)
(1.33741e-05 5.58056e-05 -2.05754e-06)
(1.31281e-05 5.47329e-05 -1.19357e-06)
(1.28494e-05 5.35229e-05 -3.51249e-07)
(1.25301e-05 5.21396e-05 6.98473e-07)
(9.10201e-06 5.76287e-05 -3.18678e-06)
(8.96501e-06 5.67022e-05 -2.05868e-06)
(8.8024e-06 5.5614e-05 -1.19578e-06)
(8.61843e-06 5.4386e-05 -3.54491e-07)
(8.40789e-06 5.29822e-05 6.94028e-07)
(4.5629e-06 5.81777e-05 -3.1881e-06)
(4.4992e-06 5.72463e-05 -2.06101e-06)
(4.42001e-06 5.61506e-05 -1.19882e-06)
(4.33148e-06 5.49133e-05 -3.5821e-07)
(4.23667e-06 5.34975e-05 6.89993e-07)
(0 5.83833e-05 -3.22529e-06)
(0 5.74587e-05 -2.08926e-06)
(0 5.63674e-05 -1.22463e-06)
(0 5.51346e-05 -3.88377e-07)
(0 5.37239e-05 6.48102e-07)
(5.16343e-05 0 -7.94528e-06)
(5.07151e-05 0 -4.82231e-06)
(4.97333e-05 0 -2.14148e-06)
(4.86905e-05 0 4.86726e-07)
(4.7568e-05 0 3.4278e-06)
(5.14467e-05 4.02697e-06 -7.84919e-06)
(5.05247e-05 3.9651e-06 -4.73905e-06)
(4.95411e-05 3.89498e-06 -2.06039e-06)
(4.84965e-05 3.82122e-06 5.76422e-07)
(4.73727e-05 3.74751e-06 3.53736e-06)
(5.09576e-05 8.03805e-06 -7.84421e-06)
(5.0041e-05 7.90384e-06 -4.73348e-06)
(4.90643e-05 7.75958e-06 -2.05455e-06)
(4.80277e-05 7.60632e-06 5.82346e-07)
(4.69137e-05 7.44207e-06 3.54248e-06)
(5.01493e-05 1.19955e-05 -7.84156e-06)
(4.92451e-05 1.17923e-05 -4.73028e-06)
(4.82821e-05 1.15738e-05 -2.05103e-06)
(4.72606e-05 1.13413e-05 5.86042e-07)
(4.61628e-05 1.10916e-05 3.54635e-06)
(4.90289e-05 1.58776e-05 -7.84016e-06)
(4.81425e-05 1.56056e-05 -4.72824e-06)
(4.71993e-05 1.53134e-05 -2.04854e-06)
(4.61992e-05 1.50026e-05 5.88936e-07)
(4.51246e-05 1.46689e-05 3.54976e-06)
(4.76046e-05 1.96609e-05 -7.8394e-06)
(4.67418e-05 1.93206e-05 -4.72666e-06)
(4.58244e-05 1.89556e-05 -2.04639e-06)
(4.4852e-05 1.85677e-05 5.91664e-07)
(4.38075e-05 1.81513e-05 3.55326e-06)
(4.58868e-05 2.33228e-05 -7.83888e-06)
(4.50533e-05 2.29151e-05 -4.7252e-06)
(4.41679e-05 2.24787e-05 -2.04426e-06)
(4.32297e-05 2.20152e-05 5.94463e-07)
(4.22222e-05 2.15179e-05 3.55703e-06)
(4.38877e-05 2.68419e-05 -7.83835e-06)
(4.30895e-05 2.63683e-05 -4.72371e-06)
(4.2242e-05 2.58623e-05 -2.04214e-06)
(4.13445e-05 2.53253e-05 5.97276e-07)
(4.03809e-05 2.47492e-05 3.56089e-06)
(4.1621e-05 3.0198e-05 -7.83762e-06)
(4.08641e-05 2.96605e-05 -4.72224e-06)
(4.00607e-05 2.90873e-05 -2.04017e-06)
(3.92101e-05 2.84794e-05 5.99816e-07)
(3.82971e-05 2.78273e-05 3.56439e-06)
(3.91019e-05 3.33719e-05 -7.83666e-06)
(3.8392e-05 3.27733e-05 -4.72099e-06)
(3.76388e-05 3.2136e-05 -2.0387e-06)
(3.68412e-05 3.14606e-05 6.01646e-07)
(3.59852e-05 3.07359e-05 3.56689e-06)
(3.63461e-05 3.63461e-05 -7.83614e-06)
(3.56895e-05 3.56895e-05 -4.72047e-06)
(3.49918e-05 3.49918e-05 -2.03813e-06)
(3.42529e-05 3.42529e-05 6.02322e-07)
(3.346e-05 3.346e-05 3.56781e-06)
(3.33719e-05 3.91019e-05 -7.83666e-06)
(3.27734e-05 3.83921e-05 -4.72099e-06)
(3.2136e-05 3.76388e-05 -2.0387e-06)
(3.14606e-05 3.68412e-05 6.01646e-07)
(3.07359e-05 3.59852e-05 3.56689e-06)
(3.0198e-05 4.1621e-05 -7.83762e-06)
(2.96605e-05 4.08641e-05 -4.72223e-06)
(2.90873e-05 4.00607e-05 -2.04017e-06)
(2.84794e-05 3.92101e-05 5.99816e-07)
(2.78273e-05 3.82971e-05 3.56439e-06)
(2.68419e-05 4.38877e-05 -7.83835e-06)
(2.63683e-05 4.30895e-05 -4.72371e-06)
(2.58623e-05 4.22421e-05 -2.04214e-06)
(2.53253e-05 4.13445e-05 5.97276e-07)
(2.47492e-05 4.03809e-05 3.56089e-06)
(2.33228e-05 4.58869e-05 -7.83888e-06)
(2.29151e-05 4.50534e-05 -4.7252e-06)
(2.24787e-05 4.41679e-05 -2.04426e-06)
(2.20152e-05 4.32297e-05 5.94463e-07)
(2.15179e-05 4.22222e-05 3.55703e-06)
(1.96609e-05 4.76046e-05 -7.83939e-06)
(1.93206e-05 4.67418e-05 -4.72666e-06)
(1.89556e-05 4.58244e-05 -2.04638e-06)
(1.85677e-05 4.4852e-05 5.91664e-07)
(1.81513e-05 4.38076e-05 3.55326e-06)
(1.58777e-05 4.90289e-05 -7.84016e-06)
(1.56056e-05 4.81426e-05 -4.72824e-06)
(1.53134e-05 4.71994e-05 -2.04854e-06)
(1.50026e-05 4.61992e-05 5.88936e-07)
(1.46689e-05 4.51246e-05 3.54976e-06)
(1.19955e-05 5.01494e-05 -7.84155e-06)
(1.17923e-05 4.92451e-05 -4.73028e-06)
(1.15738e-05 4.82821e-05 -2.05103e-06)
(1.13413e-05 4.72606e-05 5.86043e-07)
(1.10916e-05 4.61628e-05 3.54635e-06)
(8.03806e-06 5.09577e-05 -7.8442e-06)
(7.90385e-06 5.0041e-05 -4.73348e-06)
(7.75959e-06 4.90643e-05 -2.05455e-06)
(7.60633e-06 4.80277e-05 5.82347e-07)
(7.44208e-06 4.69137e-05 3.54248e-06)
(4.02697e-06 5.14467e-05 -7.84919e-06)
(3.9651e-06 5.05247e-05 -4.73905e-06)
(3.89498e-06 4.95411e-05 -2.06039e-06)
(3.82123e-06 4.84965e-05 5.76423e-07)
(3.74751e-06 4.73727e-05 3.53736e-06)
(0 5.16343e-05 -7.94528e-06)
(0 5.07152e-05 -4.8223e-06)
(0 4.97333e-05 -2.14148e-06)
(0 4.86905e-05 4.86727e-07)
(0 4.75681e-05 3.4278e-06)
(4.10011e-05 0 -1.03688e-05)
(4.01029e-05 0 -6.36185e-06)
(3.92725e-05 0 -2.80121e-06)
(3.84874e-05 0 6.95831e-07)
(3.77451e-05 0 4.48782e-06)
(4.08439e-05 3.18801e-06 -1.02481e-05)
(3.99478e-05 3.12864e-06 -6.25293e-06)
(3.91192e-05 3.07039e-06 -2.69339e-06)
(3.83357e-05 3.01599e-06 8.13075e-07)
(3.75966e-05 2.9692e-06 4.62515e-06)
(4.04522e-05 6.37056e-06 -1.02412e-05)
(3.9562e-05 6.24052e-06 -6.24628e-06)
(3.87396e-05 6.12031e-06 -2.68709e-06)
(3.79624e-05 6.00739e-06 8.18784e-07)
(3.72302e-05 5.90258e-06 4.6292e-06)
(3.98069e-05 9.50968e-06 -1.02362e-05)
(3.8929e-05 9.31259e-06 -6.24196e-06)
(3.8118e-05 9.13022e-06 -2.68343e-06)
(3.7352e-05 8.95861e-06 8.21626e-07)
(3.66303e-05 8.79863e-06 4.63103e-06)
(3.89131e-05 1.25885e-05 -1.02323e-05)
(3.80526e-05 1.23248e-05 -6.23891e-06)
(3.72582e-05 1.20807e-05 -2.68117e-06)
(3.65081e-05 1.18508e-05 8.23059e-07)
(3.58014e-05 1.16363e-05 4.63149e-06)
(3.77774e-05 1.55883e-05 -1.02289e-05)
(3.69397e-05 1.52585e-05 -6.23649e-06)
(3.6167e-05 1.49534e-05 -2.67955e-06)
(3.54376e-05 1.4666e-05 8.23866e-07)
(3.47505e-05 1.43976e-05 4.63138e-06)
(3.64082e-05 1.84912e-05 -1.0226e-05)
(3.5599e-05 1.80963e-05 -6.23436e-06)
(3.48531e-05 1.77311e-05 -2.67818e-06)
(3.41493e-05 1.73871e-05 8.24506e-07)
(3.34864e-05 1.70656e-05 4.63122e-06)
(3.48156e-05 2.12806e-05 -1.02233e-05)
(3.40407e-05 2.08219e-05 -6.23242e-06)
(3.33269e-05 2.03981e-05 -2.67688e-06)
(3.26537e-05 1.99987e-05 8.25185e-07)
(3.20199e-05 1.96251e-05 4.6313e-06)
(3.30111e-05 2.3941e-05 -1.0221e-05)
(3.22765e-05 2.34203e-05 -6.23069e-06)
(3.16001e-05 2.29397e-05 -2.6757e-06)
(3.09625e-05 2.24867e-05 8.25899e-07)
(3.03625e-05 2.20625e-05 4.6316e-06)
(3.10075e-05 2.6458e-05 -1.02191e-05)
(3.0319e-05 2.58778e-05 -6.22937e-06)
(2.96853e-05 2.53428e-05 -2.67479e-06)
(2.9088e-05 2.48386e-05 8.26483e-07)
(2.85264e-05 2.43657e-05 4.63196e-06)
(2.88183e-05 2.88183e-05 -1.02183e-05)
(2.81817e-05 2.81817e-05 -6.22885e-06)
(2.75953e-05 2.75953e-05 -2.67444e-06)
(2.70427e-05 2.70427e-05 8.26715e-07)
(2.65238e-05 2.65238e-05 4.63212e-06)
(2.6458e-05 3.10075e-05 -1.02191e-05)
(2.58778e-05 3.0319e-05 -6.22937e-06)
(2.53428e-05 2.96853e-05 -2.67479e-06)
(2.48386e-05 2.9088e-05 8.26483e-07)
(2.43657e-05 2.85264e-05 4.63196e-06)
(2.3941e-05 3.30111e-05 -1.0221e-05)
(2.34204e-05 3.22765e-05 -6.23069e-06)
(2.29397e-05 3.16001e-05 -2.6757e-06)
(2.24868e-05 3.09625e-05 8.25899e-07)
(2.20625e-05 3.03625e-05 4.63161e-06)
(2.12806e-05 3.48156e-05 -1.02233e-05)
(2.08219e-05 3.40407e-05 -6.23241e-06)
(2.03981e-05 3.33269e-05 -2.67688e-06)
(1.99987e-05 3.26537e-05 8.25186e-07)
(1.96252e-05 3.20199e-05 4.6313e-06)
(1.84912e-05 3.64082e-05 -1.0226e-05)
(1.80963e-05 3.5599e-05 -6.23436e-06)
(1.77311e-05 3.48531e-05 -2.67817e-06)
(1.73871e-05 3.41493e-05 8.24507e-07)
(1.70656e-05 3.34865e-05 4.63122e-06)
(1.55883e-05 3.77774e-05 -1.02289e-05)
(1.52585e-05 3.69397e-05 -6.23649e-06)
(1.49534e-05 3.6167e-05 -2.67955e-06)
(1.4666e-05 3.54376e-05 8.23867e-07)
(1.43976e-05 3.47505e-05 4.63138e-06)
(1.25885e-05 3.89131e-05 -1.02323e-05)
(1.23248e-05 3.80526e-05 -6.23891e-06)
(1.20807e-05 3.72582e-05 -2.68117e-06)
(1.18508e-05 3.65081e-05 8.2306e-07)
(1.16363e-05 3.58014e-05 4.63149e-06)
(9.50969e-06 3.9807e-05 -1.02362e-05)
(9.3126e-06 3.8929e-05 -6.24196e-06)
(9.13023e-06 3.81181e-05 -2.68343e-06)
(8.95862e-06 3.73521e-05 8.21627e-07)
(8.79864e-06 3.66303e-05 4.63103e-06)
(6.37057e-06 4.04523e-05 -1.02412e-05)
(6.24053e-06 3.95621e-05 -6.24628e-06)
(6.12032e-06 3.87397e-05 -2.68709e-06)
(6.0074e-06 3.79625e-05 8.18786e-07)
(5.90259e-06 3.72302e-05 4.6292e-06)
(3.18801e-06 4.0844e-05 -1.02481e-05)
(3.12864e-06 3.99478e-05 -6.25293e-06)
(3.07039e-06 3.91192e-05 -2.69339e-06)
(3.01599e-06 3.83358e-05 8.13077e-07)
(2.96921e-06 3.75967e-05 4.62515e-06)
(0 4.10012e-05 -1.03688e-05)
(0 4.01029e-05 -6.36185e-06)
(0 3.92726e-05 -2.80121e-06)
(0 3.84874e-05 6.95833e-07)
(0 3.77451e-05 4.48782e-06)
(2.98416e-05 0 -1.04725e-05)
(2.89981e-05 0 -6.64577e-06)
(2.83247e-05 0 -3.13245e-06)
(2.77842e-05 0 3.20907e-07)
(2.7383e-05 0 3.95175e-06)
(2.97187e-05 2.31169e-06 -1.03598e-05)
(2.8881e-05 2.25638e-06 -6.53988e-06)
(2.82125e-05 2.20981e-06 -3.02608e-06)
(2.76765e-05 2.17326e-06 4.34681e-07)
(2.72818e-05 2.14991e-06 4.07953e-06)
(2.94312e-05 4.62684e-06 -1.0353e-05)
(2.85998e-05 4.50474e-06 -6.53417e-06)
(2.79367e-05 4.40833e-06 -3.02126e-06)
(2.74053e-05 4.33263e-06 4.38392e-07)
(2.70148e-05 4.27981e-06 4.08123e-06)
(2.89597e-05 6.90964e-06 -1.03471e-05)
(2.81401e-05 6.72451e-06 -6.52989e-06)
(2.74862e-05 6.57806e-06 -3.01845e-06)
(2.69624e-05 6.46271e-06 4.39628e-07)
(2.65773e-05 6.38131e-06 4.08058e-06)
(2.83072e-05 9.14835e-06 -1.03415e-05)
(2.75042e-05 8.90086e-06 -6.52648e-06)
(2.68636e-05 8.70475e-06 -3.01685e-06)
(2.63505e-05 8.54988e-06 4.39402e-07)