/*--------------------------------*- C++ -*----------------------------------*\
| =========                 |                                                 |
| \\      /  F ield         | foam-extend: Open Source CFD                    |
|  \\    /   O peration     | Version:     3.1                                |
|   \\  /    A nd           | Web:         http://www.extend-project.de       |
|    \\/     M anipulation  |                                                 |
\*---------------------------------------------------------------------------*/
FoamFile
{
    version     2.0;
    format      ascii;
    class       volVectorField;
    location    "0.0008";
    object      U;
}
// * * * * * * * * * * * * * * * * * * * * * * * * * * * * * * * * * * * * * //

dimensions      [0 1 -1 0 0 0 0];

internalField   nonuniform List<vector> 
6400
(
(0.00177106 4.70664e-05 0.00363997)
(0.000982548 2.01633e-05 0.00131482)
(0.000851652 1.43872e-05 -0.000641293)
(0.00133765 2.90368e-05 -0.00285565)
(0.00174986 0.0001942 0.00364617)
(0.000971087 0.000104092 0.00132259)
(0.000844921 8.92175e-05 -0.000633125)
(0.0013336 0.000145652 -0.00284793)
(0.00172667 0.000337013 0.00364575)
(0.00095808 0.000184471 0.00132301)
(0.00083405 0.000159433 -0.000632688)
(0.00131728 0.000254613 -0.00284805)
(0.00169395 0.000475937 0.00364548)
(0.000940167 0.000262699 0.00132259)
(0.000818823 0.000227494 -0.000633337)
(0.00129345 0.000360098 -0.0028492)
(0.00165131 0.000610694 0.00364582)
(0.000916924 0.000338527 0.00132236)
(0.00079904 0.000293551 -0.000634016)
(0.00126215 0.000462751 -0.00285059)
(0.00159884 0.000740585 0.00364659)
(0.000888251 0.000411531 0.00132237)
(0.000774481 0.000357352 -0.000634578)
(0.00122315 0.000562361 -0.002852)
(0.00153657 0.000864799 0.00364757)
(0.000854002 0.000481184 0.00132257)
(0.000744905 0.000418419 -0.000634981)
(0.0011762 0.000658257 -0.00285324)
(0.0014647 0.000982634 0.00364854)
(0.000814212 0.000546986 0.00132288)
(0.000710306 0.000476213 -0.000635205)
(0.00112141 0.000749579 -0.00285416)
(0.00138372 0.00109362 0.00364938)
(0.000769236 0.000608633 0.00132323)
(0.00067103 0.000530349 -0.000635273)
(0.00105926 0.000835588 -0.00285471)
(0.0012944 0.00119755 0.00364997)
(0.00071968 0.000666121 0.0013235)
(0.000627671 0.000580765 -0.000635257)
(0.000990534 0.000915912 -0.00285493)
(0.00119754 0.00129441 0.00364997)
(0.000666117 0.000719686 0.0013235)
(0.000580762 0.000627677 -0.000635258)
(0.000915908 0.00099054 -0.00285493)
(0.00109362 0.00138373 0.00364938)
(0.000608632 0.000769246 0.00132323)
(0.000530348 0.000671039 -0.000635275)
(0.000835587 0.00105927 -0.00285471)
(0.000982635 0.00146472 0.00364855)
(0.000546987 0.000814226 0.00132288)
(0.000476214 0.000710318 -0.000635208)
(0.00074958 0.00112142 -0.00285417)
(0.000864803 0.00153659 0.00364757)
(0.000481187 0.00085402 0.00132256)
(0.000418422 0.00074492 -0.000634984)
(0.00065826 0.00117622 -0.00285325)
(0.000740589 0.00159886 0.0036466)
(0.000411535 0.000888273 0.00132237)
(0.000357355 0.000774499 -0.000634582)
(0.000562364 0.00122316 -0.00285201)
(0.000610699 0.00165134 0.00364583)
(0.00033853 0.000916948 0.00132236)
(0.000293554 0.00079906 -0.00063402)
(0.000462754 0.00126217 -0.00285059)
(0.000475942 0.00169399 0.00364549)
(0.000262702 0.000940192 0.00132259)
(0.000227496 0.000818845 -0.000633341)
(0.0003601 0.00129347 -0.00284921)
(0.000337017 0.00172671 0.00364576)
(0.000184474 0.000958106 0.00132301)
(0.000159434 0.000834071 -0.000632692)
(0.000254614 0.0013173 -0.00284806)
(0.000194203 0.0017499 0.00364619)
(0.000104093 0.000971114 0.00132259)
(8.92182e-05 0.000844943 -0.000633129)
(0.000145653 0.00133362 -0.00284794)
(4.70673e-05 0.0017711 0.00363998)
(2.01639e-05 0.000982574 0.00131482)
(1.43874e-05 0.000851673 -0.000641298)
(2.90368e-05 0.00133767 -0.00285566)
(0.0160008 0.00060923 0.0100229)
(0.0149915 0.000574467 0.00381653)
(0.014601 0.000559491 -0.00201148)
(0.014797 0.000565246 -0.00805582)
(0.0158884 0.00186722 0.0100167)
(0.0148906 0.00175174 0.00381035)
(0.0145084 0.001707 -0.00201782)
(0.0147093 0.00172998 -0.00806179)
(0.0156897 0.00311588 0.0100134)
(0.0147052 0.00291992 0.00380706)
(0.014329 0.00284437 -0.00202116)
(0.0145288 0.00288274 -0.0080651)
(0.0153978 0.0043452 0.0100126)
(0.0144326 0.00407105 0.00380555)
(0.0140641 0.00396502 -0.00202318)
(0.0142609 0.00401793 -0.00806777)
(0.0150132 0.00554725 0.0100136)
(0.0140733 0.00519734 0.0038053)
(0.0137149 0.00506185 -0.00202446)
(0.0139074 0.00512917 -0.0080703)
(0.0145373 0.00671399 0.0100159)
(0.0136282 0.00629124 0.00380588)
(0.0132819 0.00612776 -0.00202525)
(0.0134688 0.00620967 -0.00807273)
(0.0139715 0.00783747 0.0100187)
(0.0130986 0.00734523 0.00380698)
(0.0127663 0.0071554 -0.00202566)
(0.0129461 0.00725208 -0.00807486)
(0.0133183 0.00891036 0.0100216)
(0.0124866 0.00835212 0.00380831)
(0.0121701 0.00813759 -0.00202573)
(0.0123414 0.00824889 -0.00807647)
(0.0125817 0.00992627 0.0100241)
(0.011796 0.00930557 0.00380957)
(0.011497 0.00906786 -0.00202557)
(0.0116586 0.00919324 -0.00807744)
(0.0117668 0.0108799 0.0100257)
(0.0110321 0.0102003 0.00381042)
(0.0107521 0.00994082 -0.00202537)
(0.0109028 0.0100794 -0.00807785)
(0.0108799 0.0117669 0.0100257)
(0.0102003 0.0110321 0.00381042)
(0.00994081 0.0107521 -0.00202537)
(0.0100794 0.0109028 -0.00807785)
(0.00992627 0.0125817 0.0100241)
(0.00930557 0.0117961 0.00380957)
(0.00906786 0.011497 -0.00202557)
(0.00919324 0.0116586 -0.00807745)
(0.00891037 0.0133184 0.0100216)
(0.00835213 0.0124866 0.00380831)
(0.0081376 0.0121701 -0.00202573)
(0.0082489 0.0123415 -0.00807648)
(0.00783749 0.0139716 0.0100187)
(0.00734525 0.0130986 0.00380698)
(0.00715541 0.0127664 -0.00202566)
(0.00725209 0.0129462 -0.00807487)
(0.00671401 0.0145374 0.0100159)
(0.00629126 0.0136283 0.00380589)
(0.00612777 0.013282 -0.00202525)
(0.00620969 0.0134689 -0.00807274)
(0.00554728 0.0150133 0.0100136)
(0.00519736 0.0140734 0.0038053)
(0.00506187 0.0137149 -0.00202446)
(0.00512918 0.0139074 -0.00807031)
(0.00434522 0.0153979 0.0100126)
(0.00407107 0.0144327 0.00380556)
(0.00396503 0.0140642 -0.00202318)
(0.00401794 0.014261 -0.00806779)
(0.0031159 0.0156898 0.0100134)
(0.00291993 0.0147053 0.00380707)
(0.00284438 0.0143291 -0.00202116)
(0.00288275 0.0145289 -0.00806511)
(0.00186723 0.0158885 0.0100167)
(0.00175175 0.0148907 0.00381036)
(0.00170701 0.0145084 -0.00201782)
(0.00172999 0.0147094 -0.0080618)
(0.000609233 0.0160009 0.010023)
(0.00057447 0.0149916 0.00381653)
(0.000559493 0.014601 -0.00201149)
(0.000565248 0.0147971 -0.00805583)
(0.038062 0.00147963 0.0137656)
(0.0369444 0.00144197 0.00501096)
(0.0362307 0.00141542 -0.0033367)
(0.0358899 0.0014027 -0.0118733)
(0.0378167 0.00446715 0.0137517)
(0.0367082 0.00433921 0.00499626)
(0.0360016 0.00425703 -0.0033516)
(0.035666 0.00421803 -0.0118866)
(0.0373489 0.00743045 0.0137444)
(0.0362544 0.00721245 0.00498865)
(0.0355571 0.00707332 -0.00335883)
(0.0352264 0.00700649 -0.0118927)
(0.0366554 0.0103489 0.013742)
(0.0355824 0.0100432 0.00498569)
(0.0348988 0.0098477 -0.00336183)
(0.0345749 0.00975297 -0.0118958)
(0.0357399 0.013204 0.0137429)
(0.0346952 0.0128134 0.00498546)
(0.0340297 0.0125632 -0.00336273)
(0.0337148 0.0124414 -0.0118976)
(0.034606 0.0159771 0.0137459)
(0.0335962 0.0155051 0.00498677)
(0.0329529 0.0152026 -0.00336266)
(0.0326487 0.0150555 -0.011899)
(0.0332583 0.0186496 0.0137502)
(0.0322891 0.0181005 0.00498885)
(0.0316718 0.0177486 -0.00336221)
(0.0313798 0.0175781 -0.0119005)
(0.0317032 0.021204 0.0137548)
(0.0307801 0.0205821 0.00499114)
(0.0301921 0.0201839 -0.00336164)
(0.0299136 0.019992 -0.0119019)
(0.0299499 0.0236245 0.0137587)
(0.029078 0.0229341 0.00499316)
(0.0285225 0.0224925 -0.00336109)
(0.0282589 0.0222808 -0.011903)
(0.0280099 0.0258971 0.0137612)
(0.0271943 0.0251422 0.00499445)
(0.0266742 0.0246601 -0.00336071)
(0.0264268 0.02443 -0.0119036)
(0.0258971 0.0280099 0.0137612)
(0.0251422 0.0271944 0.00499445)
(0.0246601 0.0266743 -0.00336071)
(0.02443 0.0264268 -0.0119036)
(0.0236246 0.02995 0.0137587)
(0.0229341 0.0290781 0.00499317)
(0.0224925 0.0285226 -0.00336109)
(0.0222808 0.0282589 -0.011903)
(0.0212041 0.0317033 0.0137548)
(0.0205822 0.0307802 0.00499114)
(0.0201839 0.0301922 -0.00336164)
(0.019992 0.0299137 -0.0119019)
(0.0186496 0.0332585 0.0137502)
(0.0181005 0.0322892 0.00498886)
(0.0177486 0.0316719 -0.00336221)
(0.0175781 0.0313798 -0.0119005)
(0.0159771 0.0346062 0.013746)
(0.0155052 0.0335963 0.00498678)
(0.0152027 0.0329531 -0.00336266)
(0.0150556 0.0326488 -0.0118991)
(0.013204 0.0357401 0.0137429)
(0.0128134 0.0346954 0.00498547)
(0.0125632 0.0340299 -0.00336273)
(0.0124415 0.0337149 -0.0118976)
(0.0103489 0.0366557 0.013742)
(0.0100432 0.0355826 0.0049857)
(0.00984773 0.0348989 -0.00336183)
(0.009753 0.0345751 -0.0118958)
(0.00743048 0.0373492 0.0137444)
(0.00721247 0.0362546 0.00498867)
(0.00707334 0.0355573 -0.00335882)
(0.00700651 0.0352266 -0.0118927)
(0.00446717 0.0378169 0.0137517)
(0.00433922 0.0367084 0.00499627)
(0.00425705 0.0360018 -0.0033516)
(0.00421804 0.0356661 -0.0118866)
(0.00147964 0.0380623 0.0137656)
(0.00144198 0.0369446 0.00501097)
(0.00141542 0.0362309 -0.0033367)
(0.0014027 0.0358901 -0.0118733)
(0.0654717 0.00256221 0.0144811)
(0.0641846 0.0025184 0.0046124)
(0.0630367 0.00247647 -0.00469307)
(0.0620029 0.00244163 -0.0142852)
(0.0650602 0.00769681 0.014461)
(0.0637797 0.00754948 0.00459257)
(0.0626376 0.00741796 -0.00471249)
(0.0616097 0.0073007 -0.0143025)
(0.0642561 0.012788 0.01445)
(0.0629909 0.0125373 0.00458263)
(0.0618627 0.0123145 -0.00472066)
(0.0608479 0.012114 -0.014308)
(0.0630618 0.0178025 0.0144452)
(0.0618211 0.0174502 0.00457905)
(0.0607144 0.0171368 -0.00472248)
(0.0597188 0.0168539 -0.0143079)
(0.0614852 0.0227096 0.0144445)
(0.0602773 0.0222583 0.00457911)
(0.0591992 0.0218563 -0.00472113)
(0.0582292 0.021493 -0.0143054)
(0.059534 0.0274781 0.0144467)
(0.0583665 0.0269317 0.00458113)
(0.0573239 0.0264445 -0.00471856)
(0.0563855 0.0260038 -0.0143026)
(0.057217 0.0320768 0.0144508)
(0.0560967 0.0314404 0.004584)
(0.0550957 0.0308721 -0.00471593)
(0.0541942 0.0303582 -0.0143006)
(0.0545451 0.0364756 0.0144557)
(0.0534781 0.0357545 0.00458696)
(0.0525244 0.03511 -0.0047138)
(0.0516649 0.0345273 -0.0142998)
(0.0515326 0.0406457 0.0144602)
(0.0505247 0.0398454 0.00458943)
(0.0496233 0.0391297 -0.00471233)
(0.0488104 0.0384828 -0.0142997)
(0.0481972 0.0445606 0.0144632)
(0.0472536 0.0436864 0.00459095)
(0.0464097 0.0429043 -0.00471155)
(0.0456478 0.0421978 -0.0142998)
(0.0445605 0.0481973 0.0144632)
(0.0436864 0.0472537 0.00459095)
(0.0429043 0.0464097 -0.00471155)
(0.0421978 0.0456479 -0.0142998)
(0.0406457 0.0515327 0.0144602)
(0.0398454 0.0505247 0.00458943)
(0.0391297 0.0496234 -0.00471233)
(0.0384828 0.0488105 -0.0142997)
(0.0364756 0.0545452 0.0144557)
(0.0357545 0.0534783 0.00458697)
(0.03511 0.0525245 -0.00471379)
(0.0345274 0.051665 -0.0142998)
(0.0320769 0.0572172 0.0144508)
(0.0314404 0.0560968 0.00458401)
(0.0308722 0.0550958 -0.00471593)
(0.0303583 0.0541944 -0.0143006)
(0.0274781 0.0595343 0.0144467)
(0.0269318 0.0583667 0.00458114)
(0.0264445 0.0573241 -0.00471856)
(0.0260039 0.0563856 -0.0143026)
(0.0227097 0.0614855 0.0144445)
(0.0222583 0.0602775 0.00457912)
(0.0218563 0.0591994 -0.00472112)
(0.021493 0.0582294 -0.0143054)
(0.0178026 0.0630621 0.0144452)
(0.0174503 0.0618214 0.00457906)
(0.0171368 0.0607146 -0.00472247)
(0.0168539 0.059719 -0.0143079)
(0.0127881 0.0642564 0.0144501)
(0.0125374 0.0629912 0.00458265)
(0.0123145 0.0618629 -0.00472066)
(0.012114 0.0608481 -0.014308)
(0.00769684 0.0650605 0.0144611)
(0.0075495 0.06378 0.00459259)
(0.00741798 0.0626379 -0.00471248)
(0.00730072 0.0616099 -0.0143025)
(0.00256222 0.065472 0.0144811)
(0.00251841 0.0641849 0.00461243)
(0.00247648 0.063037 -0.00469306)
(0.00244163 0.0620031 -0.0142852)
(0.095561 0.00375276 0.0110037)
(0.0940537 0.00370084 0.00224616)
(0.0923725 0.00364062 -0.00584108)
(0.090502 0.00358017 -0.0143161)
(0.0949636 0.0112383 0.0109815)
(0.0934605 0.0110676 0.00222618)
(0.0917847 0.0108772 -0.00585945)
(0.0899213 0.0106672 -0.0143316)
(0.0937843 0.0186586 0.0109683)
(0.092298 0.0183685 0.00221673)
(0.0906417 0.0180458 -0.00586486)
(0.088801 0.0176869 -0.014332)
(0.0920329 0.0259669 0.0109601)
(0.0905742 0.0255581 0.00221356)
(0.0889486 0.0251036 -0.00586302)
(0.087142 0.0245977 -0.0143246)
(0.0897235 0.03312 0.0109554)
(0.0883023 0.0325942 0.00221393)
(0.0867177 0.0320101 -0.0058575)
(0.0849566 0.0313599 -0.0143136)
(0.0868699 0.040074 0.0109534)
(0.0854954 0.0394348 0.00221619)
(0.0839618 0.038725 -0.00585062)
(0.0822573 0.0379347 -0.0143019)
(0.0834866 0.0467848 0.0109536)
(0.0821669 0.0460376 0.00221927)
(0.0806937 0.0452073 -0.00584395)
(0.079056 0.0442829 -0.0142916)
(0.0795896 0.0532084 0.0109554)
(0.078332 0.0523595 0.00222243)
(0.0769277 0.0514151 -0.00583843)
(0.0753663 0.0503639 -0.0142838)
(0.0751976 0.0593016 0.0109579)
(0.0740087 0.0583577 0.00222508)
(0.0726811 0.0573064 -0.00583452)
(0.0712047 0.0561362 -0.0142789)
(0.0703328 0.0650225 0.01096)
(0.0692188 0.0639904 0.00222673)
(0.0679756 0.0628394 -0.00583247)
(0.066593 0.0615588 -0.0142765)
(0.0650225 0.0703329 0.01096)
(0.0639904 0.0692188 0.00222673)
(0.0628394 0.0679757 -0.00583247)
(0.0615588 0.066593 -0.0142765)
(0.0593016 0.0751978 0.0109579)
(0.0583577 0.0740088 0.00222508)
(0.0573064 0.0726811 -0.00583452)
(0.0561362 0.0712048 -0.0142789)
(0.0532085 0.0795897 0.0109554)
(0.0523595 0.0783322 0.00222243)
(0.0514152 0.0769278 -0.00583842)
(0.0503639 0.0753664 -0.0142838)
(0.0467849 0.0834868 0.0109537)
(0.0460377 0.0821671 0.00221928)
(0.0452074 0.0806939 -0.00584394)
(0.044283 0.0790562 -0.0142916)
(0.0400741 0.0868702 0.0109535)
(0.0394349 0.0854956 0.0022162)
(0.0387251 0.083962 -0.00585061)
(0.0379348 0.0822575 -0.0143019)
(0.0331201 0.0897238 0.0109555)
(0.0325942 0.0883026 0.00221395)
(0.0320102 0.0867179 -0.00585749)
(0.0313599 0.0849568 -0.0143135)
(0.025967 0.0920332 0.0109601)
(0.0255581 0.0905745 0.00221358)
(0.0251036 0.0889488 -0.00586301)
(0.0245977 0.0871422 -0.0143246)
(0.0186586 0.0937846 0.0109683)
(0.0183685 0.0922983 0.00221675)
(0.0180458 0.0906419 -0.00586484)
(0.0176869 0.0888013 -0.014332)
(0.0112383 0.094964 0.0109816)
(0.0110677 0.0934608 0.0022262)
(0.0108772 0.0917849 -0.00585943)
(0.0106672 0.0899216 -0.0143316)
(0.00375277 0.0955614 0.0110038)
(0.00370085 0.094054 0.00224619)
(0.00364063 0.0923728 -0.00584106)
(0.00358017 0.0905022 -0.0143161)
(0.11938 0.00469455 0.00239669)
(0.117671 0.00463567 -0.00225606)
(0.115526 0.00456044 -0.00647166)
(0.112941 0.00447947 -0.0109388)
(0.118629 0.0140315 0.0023816)
(0.116922 0.0138423 -0.00226736)
(0.114784 0.0136033 -0.00648007)
(0.112207 0.0133168 -0.0109436)
(0.117141 0.0232844 0.00236998)
(0.115452 0.0229629 -0.00227245)
(0.113338 0.0225577 -0.00647916)
(0.110792 0.0220681 -0.0109358)
(0.114934 0.032396 0.0023597)
(0.113274 0.0319414 -0.00227391)
(0.111198 0.03137 -0.00647259)
(0.108699 0.0306799 -0.0109202)
(0.112027 0.0413131 0.00235038)
(0.110408 0.0407259 -0.0022732)
(0.108384 0.0399903 -0.00646274)
(0.105946 0.0391023 -0.0109002)
(0.108441 0.0499826 0.00234233)
(0.106874 0.0492654 -0.00227115)
(0.104914 0.0483692 -0.0064514)
(0.102554 0.047288 -0.0108785)
(0.104198 0.0583509 0.00233607)
(0.102692 0.0575086 -0.00226833)
(0.100808 0.0564573 -0.0064401)
(0.0985415 0.05519 -0.0108577)
(0.0993182 0.0663645 0.00233198)
(0.0978829 0.0654034 -0.00226525)
(0.0960869 0.0642044 -0.00643014)
(0.0939265 0.0627599 -0.01084)
(0.0938263 0.07397 0.00233014)
(0.0924691 0.0728975 -0.00226243)
(0.0907717 0.0715592 -0.00642263)
(0.0887303 0.0699479 -0.0108272)
(0.087748 0.0811145 0.00233006)
(0.0864767 0.0799386 -0.00226056)
(0.0848884 0.0784702 -0.0064185)
(0.0829783 0.0767035 -0.0108204)
(0.0811145 0.0877481 0.00233006)
(0.0799386 0.0864767 -0.00226055)
(0.0784702 0.0848885 -0.0064185)
(0.0767035 0.0829783 -0.0108203)
(0.07397 0.0938265 0.00233015)
(0.0728976 0.0924692 -0.00226243)
(0.0715592 0.0907718 -0.00642262)
(0.0699479 0.0887303 -0.0108272)
(0.0663646 0.0993183 0.002332)
(0.0654035 0.097883 -0.00226524)
(0.0642044 0.096087 -0.00643013)
(0.0627599 0.0939266 -0.01084)
(0.0583509 0.104198 0.00233609)
(0.0575086 0.102692 -0.00226832)
(0.0564573 0.100808 -0.00644009)
(0.05519 0.0985417 -0.0108577)
(0.0499826 0.108441 0.00234235)
(0.0492655 0.106874 -0.00227113)
(0.0483692 0.104914 -0.00645138)
(0.0472881 0.102555 -0.0108784)
(0.0413132 0.112027 0.0023504)
(0.040726 0.110409 -0.00227318)
(0.0399903 0.108384 -0.00646272)
(0.0391023 0.105947 -0.0109001)
(0.032396 0.114934 0.00235973)
(0.0319414 0.113275 -0.00227389)
(0.0313701 0.111199 -0.00647257)
(0.0306799 0.108699 -0.0109202)
(0.0232844 0.117142 0.00237001)
(0.0229629 0.115453 -0.00227242)
(0.0225577 0.113338 -0.00647913)
(0.0220682 0.110792 -0.0109357)
(0.0140315 0.11863 0.00238163)
(0.0138423 0.116922 -0.00226733)
(0.0136033 0.114784 -0.00648005)
(0.0133168 0.112207 -0.0109436)
(0.00469456 0.11938 0.00239672)
(0.00463568 0.117671 -0.00225603)
(0.00456045 0.115527 -0.00647164)
(0.00447948 0.112941 -0.0109387)
(0.12526 0.00492071 -0.00948836)
(0.123475 0.00486097 -0.0080246)
(0.121197 0.00478291 -0.00667671)
(0.118423 0.00469829 -0.00522273)
(0.124462 0.0147002 -0.00948759)
(0.122679 0.014509 -0.00802017)
(0.120406 0.0142605 -0.00666905)
(0.117641 0.0139589 -0.00521176)
(0.12288 0.0243889 -0.00949205)
(0.121114 0.0240634 -0.00801781)
(0.118867 0.0236416 -0.00666083)
(0.116134 0.0231258 -0.00519724)
(0.120535 0.0339262 -0.00949993)
(0.118799 0.0334645 -0.00801624)
(0.116591 0.0328687 -0.00665108)
(0.113908 0.0321408 -0.00517839)
(0.11745 0.0432562 -0.00950977)
(0.115755 0.0426575 -0.00801464)
(0.113601 0.0418888 -0.00663956)
(0.110985 0.0409507 -0.00515574)
(0.113651 0.0523237 -0.00952021)
(0.112009 0.0515894 -0.00801257)
(0.109923 0.0506505 -0.00662673)
(0.10739 0.0495061 -0.00513068)
(0.109164 0.0610744 -0.00952993)
(0.107586 0.060208 -0.00800994)
(0.105582 0.0591038 -0.00661354)
(0.103149 0.0577593 -0.00510537)
(0.104016 0.0694546 -0.00953769)
(0.102512 0.0684616 -0.0080069)
(0.100602 0.0671987 -0.00660134)
(0.098285 0.0656627 -0.00508247)
(0.0982343 0.0774113 -0.00954254)
(0.0968135 0.0762986 -0.0080039)
(0.0950106 0.0748853 -0.00659169)
(0.0928233 0.0731681 -0.00506485)
(0.0918486 0.0848925 -0.00954431)
(0.0905206 0.0836679 -0.00800184)
(0.0888362 0.0821138 -0.00658623)
(0.0867925 0.080227 -0.00505516)
(0.0848925 0.0918486 -0.00954431)
(0.0836679 0.0905207 -0.00800184)
(0.0821137 0.0888363 -0.00658623)
(0.080227 0.0867926 -0.00505516)
(0.0774113 0.0982344 -0.00954253)
(0.0762986 0.0968136 -0.0080039)
(0.0748853 0.0950107 -0.00659168)
(0.0731681 0.0928234 -0.00506485)
(0.0694546 0.104016 -0.00953767)
(0.0684616 0.102512 -0.00800688)
(0.0671987 0.100602 -0.00660133)
(0.0656627 0.0982851 -0.00508246)
(0.0610745 0.109165 -0.00952992)
(0.0602081 0.107586 -0.00800993)
(0.0591038 0.105582 -0.00661353)
(0.0577594 0.103149 -0.00510536)
(0.0523238 0.113651 -0.00952019)
(0.0515895 0.112009 -0.00801255)
(0.0506506 0.109923 -0.00662671)
(0.0495062 0.107391 -0.00513067)
(0.0432562 0.11745 -0.00950975)
(0.0426576 0.115755 -0.00801462)
(0.0418889 0.113602 -0.00663954)
(0.0409507 0.110985 -0.00515572)
(0.0339262 0.120535 -0.0094999)
(0.0334646 0.118799 -0.00801622)
(0.0328688 0.116591 -0.00665105)
(0.0321408 0.113908 -0.00517837)
(0.0243889 0.12288 -0.00949202)
(0.0240634 0.121115 -0.00801778)
(0.0236416 0.118867 -0.00666081)
(0.0231258 0.116135 -0.00519721)
(0.0147002 0.124462 -0.00948755)
(0.014509 0.122679 -0.00802014)
(0.0142605 0.120406 -0.00666902)
(0.013959 0.117641 -0.00521173)
(0.00492072 0.12526 -0.00948833)
(0.00486098 0.123476 -0.00802457)
(0.00478292 0.121197 -0.00667668)
(0.0046983 0.118423 -0.00522271)
(0.109715 0.00429413 -0.0201794)
(0.108021 0.00424061 -0.0132621)
(0.106028 0.0041744 -0.00695342)
(0.10373 0.00410636 -0.00024434)
(0.109002 0.0128428 -0.0201626)
(0.10731 0.012668 -0.0132435)
(0.105323 0.0124572 -0.0069328)
(0.103033 0.0122153 -0.000222226)
(0.107596 0.0213106 -0.0201569)
(0.105919 0.0210115 -0.013234)
(0.103953 0.0206528 -0.00692029)
(0.10169 0.0202379 -0.000207135)
(0.105512 0.0296423 -0.0201572)
(0.103862 0.0292169 -0.013229)
(0.10193 0.0287088 -0.00691081)
(0.0997071 0.0281214 -0.000192939)
(0.102773 0.0377879 -0.020161)
(0.101161 0.0372346 -0.0132258)
(0.0992761 0.0365771 -0.00690175)
(0.0971082 0.035818 -0.000177422)
(0.0994057 0.0456993 -0.0201665)
(0.0978431 0.0450184 -0.0132231)
(0.0960172 0.0442128 -0.00689211)
(0.0939189 0.0432839 -0.000160022)
(0.0954357 0.0533303 -0.0201724)
(0.0939338 0.0525238 -0.0132202)
(0.09218 0.0515733 -0.00688197)
(0.0901655 0.0504785 -0.000141546)
(0.090891 0.0606366 -0.0201776)
(0.089461 0.0597085 -0.013217)
(0.0877915 0.058618 -0.00687217)
(0.0858745 0.0573632 -0.000123903)
(0.0858009 0.067576 -0.0201809)
(0.0844531 0.0665318 -0.013214)
(0.0828796 0.0653078 -0.00686412)
(0.0810728 0.0639005 -0.000109714)
(0.0801958 0.0741084 -0.0201821)
(0.0789402 0.0729547 -0.013212)
(0.0774735 0.0716049 -0.00685946)
(0.0757891 0.070054 -0.000101694)
(0.0741084 0.0801959 -0.0201821)
(0.0729547 0.0789403 -0.013212)
(0.0716049 0.0774735 -0.00685946)
(0.070054 0.0757891 -0.000101691)
(0.067576 0.0858011 -0.0201809)
(0.0665318 0.0844532 -0.013214)
(0.0653078 0.0828797 -0.00686412)
(0.0639005 0.0810729 -0.000109708)
(0.0606366 0.0908912 -0.0201775)
(0.0597085 0.0894611 -0.013217)
(0.0586181 0.0877917 -0.00687216)
(0.0573632 0.0858746 -0.000123892)
(0.0533303 0.0954359 -0.0201724)
(0.0525238 0.093934 -0.0132202)
(0.0515734 0.0921802 -0.00688195)
(0.0504786 0.0901657 -0.000141531)
(0.0456993 0.099406 -0.0201665)
(0.0450184 0.0978433 -0.0132231)
(0.0442129 0.0960174 -0.00689209)
(0.0432839 0.0939191 -0.000160002)
(0.0377879 0.102774 -0.020161)
(0.0372347 0.101162 -0.0132258)
(0.0365772 0.0992763 -0.00690172)
(0.035818 0.0971084 -0.000177398)
(0.0296423 0.105512 -0.0201572)
(0.0292169 0.103862 -0.013229)
(0.0287088 0.10193 -0.00691078)
(0.0281215 0.0997074 -0.00019291)
(0.0213107 0.107596 -0.0201569)
(0.0210116 0.105919 -0.013234)
(0.0206528 0.103953 -0.00692026)
(0.0202379 0.10169 -0.000207104)
(0.0128429 0.109003 -0.0201626)
(0.012668 0.107311 -0.0132435)
(0.0124572 0.105323 -0.00693277)
(0.0122153 0.103033 -0.000222193)
(0.00429414 0.109715 -0.0201793)
(0.00424062 0.108021 -0.013262)
(0.0041744 0.106028 -0.00695339)
(0.00410637 0.10373 -0.000244306)
(0.0809713 0.00314786 -0.0258043)
(0.0794673 0.00310346 -0.0163913)
(0.0780027 0.00305671 -0.00769541)
(0.0765586 0.00301594 0.00142016)
(0.0804321 0.00944279 -0.0257807)
(0.0789325 0.00929208 -0.0163683)
(0.0774728 0.00914361 -0.00767241)
(0.076035 0.00900082 0.00144195)
(0.0793772 0.0156781 -0.025767)
(0.0778911 0.0154189 -0.0163555)
(0.0764465 0.015165 -0.00766085)
(0.075025 0.0149181 0.00145124)
(0.0778165 0.0218106 -0.0257585)
(0.0763536 0.0214413 -0.0163483)
(0.0749333 0.0210802 -0.00765487)
(0.0735365 0.0207282 0.00145546)
(0.0757679 0.0278026 -0.0257528)
(0.0743379 0.0273217 -0.0163437)
(0.0729513 0.0268522 -0.00765106)
(0.0715886 0.0263944 0.00145802)
(0.0732518 0.0336181 -0.0257489)
(0.0718651 0.0330253 -0.01634)
(0.0705219 0.0324477 -0.00764768)
(0.0692028 0.0318839 0.00146091)
(0.0702904 0.0392242 -0.025746)
(0.0689577 0.0385204 -0.0163366)
(0.067668 0.037836 -0.007644)
(0.0664023 0.0371675 0.00146489)
(0.066908 0.0445901 -0.0257437)
(0.0656399 0.0437781 -0.0163334)
(0.0644136 0.0429896 -0.0076401)
(0.0632107 0.0422188 0.00146964)
(0.0631298 0.0496883 -0.0257419)
(0.0619367 0.0487719 -0.0163306)
(0.0607832 0.0478834 -0.00763663)
(0.0596523 0.0470141 0.00147407)
(0.0589825 0.0544934 -0.0257406)
(0.0578741 0.053478 -0.0163289)
(0.056802 0.0524946 -0.00763451)
(0.0557514 0.0515317 0.0014768)
(0.0544934 0.0589826 -0.0257406)
(0.053478 0.0578742 -0.0163289)
(0.0524946 0.0568021 -0.00763451)
(0.0515316 0.0557515 0.00147681)
(0.0496882 0.0631299 -0.0257419)
(0.0487719 0.0619368 -0.0163306)
(0.0478834 0.0607833 -0.00763662)
(0.0470141 0.0596524 0.00147408)
(0.0445901 0.0669081 -0.0257437)
(0.0437781 0.06564 -0.0163334)
(0.0429896 0.0644137 -0.00764009)
(0.0422189 0.0632108 0.00146965)
(0.0392242 0.0702906 -0.0257459)
(0.0385205 0.0689579 -0.0163366)
(0.0378361 0.0676682 -0.00764398)
(0.0371675 0.0664024 0.00146491)
(0.0336182 0.073252 -0.0257488)
(0.0330253 0.0718653 -0.01634)
(0.0324477 0.0705221 -0.00764766)
(0.0318839 0.069203 0.00146093)
(0.0278026 0.0757682 -0.0257528)
(0.0273217 0.0743382 -0.0163436)
(0.0268523 0.0729515 -0.00765104)
(0.0263944 0.0715887 0.00145805)
(0.0218107 0.0778168 -0.0257585)
(0.0214414 0.0763538 -0.0163483)
(0.0210802 0.0749335 -0.00765484)
(0.0207282 0.0735367 0.00145549)
(0.0156781 0.0793774 -0.025767)
(0.0154189 0.0778913 -0.0163555)
(0.015165 0.0764467 -0.00766082)
(0.0149182 0.0750252 0.00145128)
(0.0094428 0.0804324 -0.0257807)
(0.0092921 0.0789327 -0.0163683)
(0.00914362 0.077473 -0.00767238)
(0.00900082 0.0760352 0.00144199)
(0.00314787 0.0809716 -0.0258043)
(0.00310347 0.0794675 -0.0163913)
(0.00305671 0.0780029 -0.00769538)
(0.00301594 0.0765588 0.00142021)
(0.0519221 0.00199881 -0.0256621)
(0.0506197 0.00196177 -0.0170043)
(0.0496494 0.00193201 -0.00881327)
(0.0489819 0.00191495 -0.000412085)
(0.0515657 0.00602627 -0.0256427)
(0.05027 0.00589641 -0.0169871)
(0.0493048 0.00580254 -0.00879794)
(0.048642 0.00574566 -0.000400064)
(0.0508801 0.0100169 -0.0256271)
(0.0495966 0.00979266 -0.0169762)
(0.0486409 0.00963112 -0.00879145)
(0.0479853 0.00953053 -0.000399191)
(0.0498685 0.0139413 -0.0256135)
(0.0486052 0.013622 -0.0169692)
(0.047665 0.0133908 -0.00879017)
(0.0470199 0.0132444 -0.000404569)
(0.0485422 0.0177744 -0.025601)
(0.0473073 0.0173592 -0.0169642)
(0.0463888 0.0170572 -0.0087916)
(0.0457586 0.0168634 -0.000413361)
(0.0469146 0.0214932 -0.0255893)
(0.045717 0.020982 -0.0169602)
(0.0448269 0.0206086 -0.00879409)
(0.0442164 0.0203661 -0.000423232)
(0.0450009 0.0250767 -0.0255789)
(0.0438498 0.0244703 -0.0169568)
(0.0429951 0.0240258 -0.00879657)
(0.0424095 0.023734 -0.000432453)
(0.0428181 0.0285061 -0.02557)
(0.0417229 0.0278065 -0.0169538)
(0.0409106 0.0272922 -0.0087985)
(0.0403552 0.0269511 -0.000439911)
(0.0403842 0.0317654 -0.0255634)
(0.0393541 0.0309756 -0.0169515)
(0.0385912 0.0303935 -0.00879968)
(0.0380713 0.0300042 -0.000445022)
(0.0377185 0.0348404 -0.0255597)
(0.0367621 0.0339647 -0.0169502)
(0.0360549 0.0333181 -0.00880021)
(0.0355751 0.0328821 -0.000447585)
(0.0348403 0.0377186 -0.0255597)
(0.0339646 0.0367622 -0.0169502)
(0.033318 0.036055 -0.0088002)
(0.0328821 0.0355751 -0.000447581)
(0.0317654 0.0403843 -0.0255634)
(0.0309756 0.0393542 -0.0169515)
(0.0303935 0.0385913 -0.00879968)
(0.0300042 0.0380713 -0.000445012)
(0.0285061 0.0428182 -0.02557)
(0.0278065 0.041723 -0.0169538)
(0.0272921 0.0409107 -0.00879848)
(0.0269511 0.0403553 -0.000439893)
(0.0250766 0.0450011 -0.0255789)
(0.0244703 0.04385 -0.0169568)
(0.0240258 0.0429952 -0.00879655)
(0.023734 0.0424096 -0.000432429)
(0.0214932 0.0469147 -0.0255893)
(0.020982 0.0457172 -0.0169602)
(0.0206086 0.044827 -0.00879406)
(0.0203661 0.0442165 -0.000423202)
(0.0177744 0.0485424 -0.025601)
(0.0173592 0.0473075 -0.0169642)
(0.0170572 0.0463889 -0.00879158)
(0.0168634 0.0457587 -0.000413326)
(0.0139413 0.0498687 -0.0256135)
(0.013622 0.0486053 -0.0169692)
(0.0133908 0.0476651 -0.00879014)
(0.0132444 0.04702 -0.000404529)
(0.0100169 0.0508803 -0.0256271)
(0.00979266 0.0495967 -0.0169762)
(0.00963113 0.0486411 -0.00879142)
(0.00953053 0.0479855 -0.000399148)
(0.00602627 0.0515658 -0.0256427)
(0.00589641 0.0502701 -0.0169871)
(0.00580254 0.0493049 -0.00879791)
(0.00574566 0.0486422 -0.000400019)
(0.00199881 0.0519222 -0.0256621)
(0.00196177 0.0506198 -0.0170043)
(0.00193201 0.0496496 -0.00881323)
(0.00191495 0.048982 -0.000412038)
(0.0313397 0.00119411 -0.0218728)
(0.0302086 0.00116135 -0.0158056)
(0.029536 0.00114072 -0.00985515)
(0.0292897 0.00113552 -0.00394233)
(0.0311186 0.00362227 -0.0218633)
(0.0299955 0.00350675 -0.0157988)
(0.0293283 0.00344237 -0.00985109)
(0.0290862 0.00342813 -0.00394207)
(0.030704 0.00603007 -0.0218514)
(0.0295923 0.00583061 -0.0157929)
(0.0289317 0.00571946 -0.0098506)
(0.0286918 0.00569217 -0.00394782)
(0.0300946 0.00839914 -0.0218386)
(0.0290011 0.00811595 -0.0157882)
(0.028351 0.00795645 -0.00985309)
(0.028114 0.00791387 -0.00395828)
(0.0292964 0.0107143 -0.0218252)
(0.0282282 0.0103474 -0.0157844)
(0.0275927 0.0101387 -0.00985761)
(0.0273603 0.0100792 -0.00397201)
(0.0283168 0.0129612 -0.0218118)
(0.0272811 0.0125112 -0.0157811)
(0.0266649 0.0122529 -0.00986315)
(0.026439 0.0121752 -0.00398723)
(0.0271641 0.0151271 -0.0217993)
(0.0261685 0.0145952 -0.0157784)
(0.0255763 0.0142875 -0.00986878)
(0.0253594 0.0141906 -0.00400214)
(0.025848 0.0172003 -0.0217885)
(0.0249001 0.0165886 -0.0157762)
(0.024337 0.0162323 -0.00987373)
(0.0241315 0.0161156 -0.00401507)
(0.0243792 0.0191708 -0.0217805)
(0.0234865 0.0184822 -0.0157746)
(0.0229573 0.0180786 -0.00987738)
(0.0227661 0.017942 -0.00402461)
(0.0227691 0.0210298 -0.021776)
(0.0219388 0.0202679 -0.0157737)
(0.0214481 0.0198194 -0.0098793)
(0.0212735 0.0196632 -0.00402967)
(0.0210297 0.0227692 -0.021776)
(0.0202679 0.0219389 -0.0157737)
(0.0198193 0.0214482 -0.0098793)
(0.0196632 0.0212736 -0.00402967)
(0.0191708 0.0243792 -0.0217805)
(0.0184821 0.0234865 -0.0157746)
(0.0180786 0.0229574 -0.00987737)
(0.0179419 0.0227661 -0.0040246)
(0.0172003 0.0258481 -0.0217885)
(0.0165886 0.0249001 -0.0157762)
(0.0162322 0.024337 -0.00987372)
(0.0161156 0.0241316 -0.00401506)
(0.015127 0.0271642 -0.0217993)
(0.0145952 0.0261686 -0.0157784)
(0.0142875 0.0255764 -0.00986876)
(0.0141906 0.0253595 -0.00400212)
(0.0129612 0.0283169 -0.0218118)
(0.0125112 0.0272812 -0.0157811)
(0.0122529 0.026665 -0.00986312)
(0.0121752 0.0264391 -0.0039872)
(0.0107142 0.0292965 -0.0218252)
(0.0103474 0.0282283 -0.0157843)
(0.0101386 0.0275928 -0.00985758)
(0.0100791 0.0273604 -0.00397197)
(0.00839912 0.0300947 -0.0218386)
(0.00811594 0.0290012 -0.0157882)
(0.00795644 0.0283511 -0.00985306)
(0.00791386 0.0281141 -0.00395823)
(0.00603005 0.0307041 -0.0218514)
(0.0058306 0.0295923 -0.0157929)