/*--------------------------------*- C++ -*----------------------------------*\
| =========                 |                                                 |
| \\      /  F ield         | foam-extend: Open Source CFD                    |
|  \\    /   O peration     | Version:     3.1                                |
|   \\  /    A nd           | Web:         http://www.extend-project.de       |
|    \\/     M anipulation  |                                                 |
\*---------------------------------------------------------------------------*/
FoamFile
{
    version     2.0;
    format      ascii;
    class       regIOobject;
    location    "0.9/uniform";
    object      profilingInfo;
}
// * * * * * * * * * * * * * * * * * * * * * * * * * * * * * * * * * * * * * //

profilingInfo
(

    {
        id              23;
        parentId        22;
        description     "Foam::Time::writeObject - outputTime";
        calls           9;
        totalTime       2.45607;
        childTime       0;
        onStack         1;
    }

    {
        id              22;
        parentId        1;
        description     "Foam::Time::writeObject";
        calls           9;
        totalTime       2.45616;
        childTime       2.45607;
        onStack         1;
    }

    {
        id              1;
        description     "application::main";
        calls           1;
        totalTime       95.9711;
        childTime       20.4312;
        onStack         1;
    }

    {
        id              25;
        parentId        24;
        description     "FO::beamReport::execute";
        calls           8;
        totalTime       0.000183;
        childTime       0;
        onStack         0;
    }

    {
        id              27;
        parentId        24;
        description     "FO::forces::execute";
        calls           8;
        totalTime       0.022412;
        childTime       0;
        onStack         0;
    }

    {
        id              26;
        parentId        24;
        description     "FO::setInletVelocity::execute";
        calls           8;
        totalTime       0.000161;
        childTime       0;
        onStack         0;
    }

    {
        id              3;
        parentId        2;
        description     "functionObjectList::read";
        calls           1;
        totalTime       0.233355;
        childTime       0;
        onStack         0;
    }

    {
        id              24;
        parentId        1;
        description     "functionObjects_.execute()";
        calls           8;
        totalTime       0.022823;
        childTime       0.022756;
        onStack         0;
    }

    {
        id              2;
        parentId        1;
        description     "functionObjects_.start()";
        calls           1;
        totalTime       0.233375;
        childTime       0.233355;
        onStack         0;
    }

    {
        id              18;
        parentId        1;
        description     "fvMatrix::solve_D";
        calls           32029;
        totalTime       6.13179;
        childTime       4.00101;
        onStack         0;
    }

    {
        id              11;
        parentId        1;
        description     "fvMatrix::solve_U";
        calls           105;
        totalTime       0.864532;
        childTime       0.801224;
        onStack         0;
    }

    {
        id              4;
        parentId        1;
        description     "fvMatrix::solve_cellMotionU";
        calls           210;
        totalTime       5.82516;
        childTime       5.67325;
        onStack         0;
    }

    {
        id              15;
        parentId        1;
        description     "fvMatrix::solve_p";
        calls           630;
        totalTime       4.89736;
        childTime       4.76533;
        onStack         0;
    }

    {
        id              19;
        parentId        18;
        description     "lduMatrix::solver_Dx";
        calls           32029;
        totalTime       1.95998;
        childTime       0;
        onStack         0;
    }

    {
        id              20;
        parentId        18;
        description     "lduMatrix::solver_Dy";
        calls           32029;
        totalTime       1.02883;
        childTime       0;
        onStack         0;
    }

    {
        id              21;
        parentId        18;
        description     "lduMatrix::solver_Dz";
        calls           32029;
        totalTime       1.0122;
        childTime       0;
        onStack         0;
    }

    {
        id              12;
        parentId        11;
        description     "lduMatrix::solver_Ux";
        calls           105;
        totalTime       0.267984;
        childTime       0;
        onStack         0;
    }

    {
        id              13;
        parentId        11;
        description     "lduMatrix::solver_Uy";
        calls           105;
        totalTime       0.273699;
        childTime       0;
        onStack         0;
    }

    {
        id              14;
        parentId        11;
        description     "lduMatrix::solver_Uz";
        calls           105;
        totalTime       0.259541;
        childTime       0;
        onStack         0;
    }

    {
        id              5;
        parentId        4;
        description     "lduMatrix::solver_cellMotionUx";
        calls           210;
        totalTime       2.06078;
        childTime       0.014602;
        onStack         0;
    }

    {
        id              7;
        parentId        4;
        description     "lduMatrix::solver_cellMotionUy";
        calls           210;
        totalTime       1.6719;
        childTime       0.01072;
        onStack         0;
    }

    {
        id              9;
        parentId        4;
        description     "lduMatrix::solver_cellMotionUz";
        calls           210;
        totalTime       1.94058;
        childTime       0.012067;
        onStack         0;
    }

    {
        id              6;
        parentId        5;
        description     "lduMatrix::solver_coarsestLevelCorr";
        calls           886;
        totalTime       0.014602;
        childTime       0;
        onStack         0;
    }

    {
        id              8;
        parentId        7;
        description     "lduMatrix::solver_coarsestLevelCorr";
        calls           719;
        totalTime       0.01072;
        childTime       0;
        onStack         0;
    }

    {
        id              10;
        parentId        9;
        description     "lduMatrix::solver_coarsestLevelCorr";
        calls           846;
        totalTime       0.012067;
        childTime       0;
        onStack         0;
    }

    {
        id              17;
        parentId        16;
        description     "lduMatrix::solver_coarsestLevelCorr";
        calls           2010;
        totalTime       0.04579;
        childTime       0;
        onStack         0;
    }

    {
        id              16;
        parentId        15;
        description     "lduMatrix::solver_p";
        calls           630;
        totalTime       4.76533;
        childTime       0.04579;
        onStack         0;
    }
);


// ************************************************************************* //
