/*--------------------------------*- C++ -*----------------------------------*\
| =========                 |                                                 |
| \\      /  F ield         | foam-extend: Open Source CFD                    |
|  \\    /   O peration     | Version:     3.1                                |
|   \\  /    A nd           | Web:         http://www.extend-project.de       |
|    \\/     M anipulation  |                                                 |
\*---------------------------------------------------------------------------*/
FoamFile
{
    version     2.0;
    format      ascii;
    class       volSymmTensorField;
    location    "2.7";
    object      epsilon;
}
// * * * * * * * * * * * * * * * * * * * * * * * * * * * * * * * * * * * * * //

dimensions      [0 0 0 0 0 0 0];

internalField   nonuniform List<symmTensor> 
256
(
(-0.00706178 0.00932761 -0.000419156 0.0269588 0.00493869 -0.00289615)
(-0.00234801 0.0079442 -0.0012453 0.00639811 0.00171486 -0.00107842)
(0.00123277 0.00741619 -0.0012737 -0.00731416 -0.00241234 0.00122705)
(0.00556167 0.00788803 -0.000517429 -0.0266748 -0.00593346 0.0030663)
(-0.0124232 0.00389372 -0.000490806 0.0172596 -0.00149953 -0.00436881)
(-0.00496155 0.0102424 -0.00196428 0.00660089 -0.00066931 -0.00160342)
(0.0022794 0.0100312 -0.00203093 -0.00552076 0.000380575 0.00198366)
(0.00959933 0.00375088 -0.000713315 -0.0162498 0.0010989 0.00489728)
(-0.0103811 0.00476089 -0.000206604 0.0160234 -0.000807279 -0.00255065)
(-0.0050682 0.00990785 -0.00134057 0.00596273 -0.000329459 -0.000863117)
(0.00166531 0.00991404 -0.0013861 -0.00447214 5.49852e-05 0.00143705)
(0.00713904 0.00481288 -0.000426538 -0.0146094 0.000500616 0.00338071)
(-0.00887707 0.00416346 -0.000204603 0.0118865 -0.00118113 -0.00150203)
(-0.0045445 0.0090288 -0.00109565 0.00468067 -0.000405952 -0.000412831)
(0.000959748 0.00908776 -0.00112763 -0.00311956 0.000188388 0.00118359)
(0.00540819 0.0042881 -0.000440809 -0.0103308 0.000956753 0.00254596)
(-0.00716467 0.00360426 -0.000147644 0.00842882 -0.00108747 -0.000346028)
(-0.00393816 0.00775909 -0.000869979 0.00348665 -0.000352796 4.53967e-05)
(0.000384098 0.00785232 -0.000896762 -0.00201264 0.000179726 0.000846222)
(0.00364162 0.00378433 -0.000383603 -0.00686095 0.000932946 0.00151865)
(-0.00580783 0.00277649 -0.000154791 0.00546698 -0.000950432 0.000570836)
(-0.00340174 0.00620184 -0.000745139 0.00243747 -0.000309771 0.000405118)
(-3.23919e-05 0.0063424 -0.000755488 -0.00112699 0.00015847 0.000555713)
(0.00230422 0.0030523 -0.000366061 -0.00394444 0.000854266 0.000653508)
(-0.00492917 0.00179468 -0.000225178 0.00348446 -0.000780228 0.00131419)
(-0.00308224 0.00448447 -0.00070081 0.00166969 -0.000298536 0.000711571)
(-0.000307596 0.00463207 -0.000681608 -0.000480075 9.97251e-05 0.000298193)
(0.00147437 0.0021898 -0.000375658 -0.00190266 0.000666833 -8.54937e-05)
(-0.00512661 0.000981628 -0.000308249 0.00246046 -0.000420816 0.00188891)
(-0.00366945 0.00251051 -0.000660694 0.00143427 -0.000187194 0.000960276)
(-0.000206244 0.00246358 -0.000650281 1.53844e-05 -4.96472e-06 6.76623e-05)
(0.00148712 0.001064 -0.000437227 -0.000831495 0.000241135 -0.00069094)
(-0.00710738 0.0106373 -0.000270844 0.0261066 0.00307433 -0.00191356)
(-0.002164 0.00959859 -0.00100434 0.0061388 0.000980739 -0.000719171)
(0.00113671 0.00914629 -0.00109166 -0.00641018 -0.00172484 0.000834868)
(0.00557061 0.00927202 -0.000473399 -0.0251954 -0.00408145 0.0021466)
(-0.0124513 0.00403167 -0.000397985 0.0188039 -0.000507801 -0.00343268)
(-0.00456321 0.0106128 -0.00184867 0.00733203 -0.000350591 -0.00126694)
(0.00210019 0.0104945 -0.00203063 -0.00640033 -0.000134927 0.00160302)
(0.00963395 0.0040371 -0.000822573 -0.0179964 -7.71389e-05 0.00407662)
(-0.0101857 0.0042028 -0.000177183 0.0160917 -0.00126648 -0.00250239)
(-0.00455265 0.00912528 -0.00145859 0.00602961 -0.000516114 -0.000882249)
(0.00151378 0.00915141 -0.00164795 -0.0046302 0.000224759 0.00138706)
(0.00705145 0.00425509 -0.000659152 -0.0147556 0.000930218 0.00340992)
(-0.00852583 0.0034822 -1.1413e-05 0.0119801 -0.00159701 -0.00137136)
(-0.00397684 0.00787469 -0.00103303 0.00472901 -0.000560958 -0.000449516)
(0.000806059 0.00793002 -0.00122806 -0.00318595 0.000394152 0.00106801)
(0.00517405 0.00358824 -0.00053619 -0.01043 0.00142658 0.00243387)
(-0.00681019 0.00285677 0.000139197 0.00834229 -0.00159596 -0.000255662)
(-0.00338706 0.0065156 -0.000694086 0.00346685 -0.000528627 -3.80077e-05)
(0.000252376 0.00659511 -0.00088957 -0.00194422 0.000444083 0.000739014)
(0.00339395 0.00301214 -0.000395959 -0.00671491 0.00154639 0.00141137)
(-0.00546393 0.00210745 0.000213159 0.0053439 -0.00140468 0.000694866)
(-0.00288461 0.00508493 -0.000469851 0.00239872 -0.000459693 0.000314757)
(-0.000155888 0.00520743 -0.000648212 -0.000986272 0.000404159 0.000449707)
(0.00204049 0.00236365 -0.000293998 -0.00370076 0.00143287 0.000505398)
(-0.00461054 0.00125392 0.000202757 0.00333062 -0.00108666 0.00144324)
(-0.00261454 0.00362075 -0.000366535 0.00159584 -0.000385332 0.00060752)
(-0.000423329 0.00376048 -0.000514979 -0.000299612 0.000282392 0.000216667)
(0.00121163 0.00166768 -0.000235345 -0.00158106 0.00111485 -0.000226113)
(-0.00481855 0.000725777 0.000126082 0.00236525 -0.000583007 0.00199416)
(-0.00325158 0.00207982 -0.000365943 0.00138482 -0.000230704 0.000827387)
(-0.000353895 0.00202678 -0.00053831 0.000147434 9.74737e-05 4.27053e-06)
(0.00120302 0.000829043 -0.000312928 -0.00059496 0.000530903 -0.000812944)
(-0.00744731 0.0111802 -0.000183151 0.0263065 0.00154778 -0.00110166)
(-0.00229503 0.0100322 -0.000647007 0.00619628 0.000418143 -0.000391568)
(0.0012136 0.00955219 -0.000719372 -0.00625407 -0.0010784 0.000521184)
(0.00581776 0.00970667 -0.000332699 -0.0252204 -0.00235728 0.0013078)
(-0.0131004 0.00411844 -0.000324465 0.0184034 -0.000322368 -0.00210285)
(-0.00485367 0.0108106 -0.00126353 0.00733768 -0.000272818 -0.000711475)
(0.0022806 0.0106997 -0.00141729 -0.00626488 -0.000192347 0.00107506)
(0.0101514 0.00412421 -0.000642211 -0.0174829 -0.000170561 0.00264386)
(-0.0106771 0.00414944 -0.000214915 0.0159685 -0.000957401 -0.00168427)
(-0.00480518 0.00906985 -0.00109575 0.0060778 -0.000425718 -0.000500809)
(0.00166102 0.00909498 -0.00125966 -0.00457462 0.000147493 0.00104195)
(0.00743809 0.00417276 -0.000569044 -0.0145113 0.00067124 0.00243646)
(-0.00881822 0.00335957 -8.01236e-05 0.0119402 -0.00127851 -0.000954528)
(-0.0041368 0.0075916 -0.000802451 0.00476789 -0.00047807 -0.000200132)
(0.000850178 0.00764453 -0.000968941 -0.00311457 0.000344523 0.000870136)
(0.00534286 0.00344909 -0.000450903 -0.010263 0.00115747 0.00185065)
(-0.00698823 0.00267677 4.3436e-05 0.00837824 -0.00132994 -0.000147353)
(-0.0034943 0.00614003 -0.000520182 0.00351877 -0.000457031 0.000114403)
(0.000227863 0.00622357 -0.000683785 -0.00187454 0.000426086 0.00065477)
(0.00342547 0.00283482 -0.000324455 -0.00660212 0.0013361 0.0011421)
(-0.00555507 0.00191287 0.000119506 0.00544558 -0.00119829 0.000585849)
(-0.00295103 0.00470363 -0.000319664 0.00245642 -0.000395285 0.000398789)
(-0.000233688 0.00484343 -0.000468453 -0.000916424 0.000412782 0.000454162)
(0.00195918 0.00220263 -0.000222151 -0.00363295 0.00128649 0.000477974)
(-0.00462907 0.00106285 0.000128735 0.00350036 -0.000932246 0.00117869)
(-0.00264916 0.00330913 -0.000232405 0.00165672 -0.000315327 0.000638051)
(-0.000547209 0.00348104 -0.000362694 -0.000237948 0.000308372 0.000298619)
(0.00103677 0.00155296 -0.000169364 -0.00155147 0.00103441 -5.76292e-05)
(-0.00477345 0.000631551 5.46895e-05 0.00254031 -0.000474162 0.00158356)
(-0.0032831 0.00192392 -0.000290951 0.00145844 -0.000168388 0.000808877)
(-0.000566664 0.00188964 -0.000456634 0.000200322 0.000111905 0.000195634)
(0.000923667 0.000785393 -0.000275852 -0.000580383 0.000485206 -0.000407667)
(-0.00769348 0.0113819 -0.000104162 0.0264162 0.000680954 -0.000576904)
(-0.00240921 0.010119 -0.000388876 0.00623038 0.000123717 -0.000187992)
(0.00125802 0.00960329 -0.000437462 -0.00616931 -0.000659171 0.000326036)
(0.00599501 0.00981504 -0.000208036 -0.0251976 -0.00129733 0.000761839)
(-0.0135801 0.00414583 -0.000200522 0.018059 -0.000272273 -0.00111764)
(-0.00510913 0.0109062 -0.000798251 0.00731118 -0.000221425 -0.000328644)
(0.00237699 0.0107891 -0.000904002 -0.00607579 -0.000165305 0.000709126)
(0.0105124 0.00414812 -0.00042606 -0.0170076 -0.000114057 0.00159956)
(-0.0111098 0.00417579 -0.000156443 0.0157785 -0.000673688 -0.000891876)
(-0.00506876 0.00912667 -0.00074865 0.00608863 -0.000315274 -0.000184814)
(0.0017387 0.0091515 -0.000862474 -0.00442492 8.54057e-05 0.00075043)
(0.0077537 0.00419186 -0.000406572 -0.014161 0.000453248 0.00156912)
(-0.00915456 0.00335721 -7.53753e-05 0.0118676 -0.000903569 -0.000433087)
(-0.00436046 0.00758442 -0.000577181 0.00480523 -0.000349599 2.90375e-05)
(0.000871724 0.00763998 -0.00068958 -0.002994 0.000250621 0.000682289)
(0.00554867 0.00344792 -0.0003304 -0.0100244 0.000821988 0.001259)
(-0.0072211 0.00264835 9.50094e-06 0.00841116 -0.000963858 0.000114415)
(-0.00367792 0.0060832 -0.000385871 0.00358274 -0.000335665 0.000262873)
(0.000197171 0.00617599 -0.000493066 -0.00178327 0.000332926 0.000568395)
(0.00351253 0.00282166 -0.000237332 -0.00646132 0.000992555 0.000826906)
(-0.00570152 0.00186363 6.65398e-05 0.00556328 -0.000892953 0.000639883)
(-0.00309879 0.00462058 -0.000242911 0.00253841 -0.000293248 0.000484228)
(-0.000307082 0.00477965 -0.000338284 -0.000849958 0.000337723 0.000456065)
(0.00194163 0.00218921 -0.00015863 -0.00356927 0.0009908 0.00039732)
(-0.00470048 0.000999024 7.31142e-05 0.00368673 -0.000717229 0.00108004)
(-0.00276926 0.00322938 -0.000193454 0.00174886 -0.000235903 0.000679514)
(-0.000664217 0.00342776 -0.000277851 -0.000191461 0.000261246 0.000380447)
(0.000921282 0.00154732 -0.000123626 -0.00153783 0.000821114 5.54382e-05)
(-0.00479081 0.000600877 -4.29351e-06 0.00274566 -0.000384903 0.00138904)
(-0.00340871 0.00187971 -0.000291422 0.00156466 -0.000130752 0.000836092)
(-0.00076312 0.00185534 -0.000407029 0.000233366 9.79958e-05 0.000371187)
(0.000706567 0.000785079 -0.000232982 -0.000604077 0.000394365 -0.000112544)
(-0.00784571 0.0114405 -5.30042e-05 0.0264449 0.00024233 -0.000273637)
(-0.00248384 0.0100923 -0.00022194 0.00625156 -8.13283e-06 -7.20121e-05)
(0.00127602 0.0095492 -0.000252564 -0.00609835 -0.000395292 0.000206975)
(0.00609211 0.00980449 -0.0001221 -0.0251047 -0.000688928 0.000436295)
(-0.013894 0.00414318 -0.000109121 0.0178537 -0.000234599 -0.000511161)
(-0.00527946 0.010927 -0.000476567 0.00730259 -0.000174498 -9.80669e-05)
(0.0024142 0.0108046 -0.000545117 -0.00591904 -0.000123328 0.000473691)
(0.0107197 0.004146 -0.000262139 -0.01668 -5.58954e-05 0.000944756)
(-0.0114238 0.00419497 -9.52204e-05 0.0156407 -0.000466593 -0.000343327)
(-0.00525561 0.00917431 -0.000477756 0.0061005 -0.000222683 2.42663e-05)
(0.00176518 0.00920148 -0.000552505 -0.00428008 4.81002e-05 0.000542857)
(0.00795213 0.00421264 -0.000264659 -0.0138734 0.000305161 0.0009703)
(-0.00942666 0.00337708 -5.13776e-05 0.0118056 -0.000608345 -2.57509e-05)
(-0.00453169 0.0076321 -0.000386623 0.00483957 -0.000238862 0.000191521)
(0.000870962 0.00769262 -0.000458743 -0.00287329 0.000169572 0.00053394)
(0.00569197 0.00347546 -0.000220784 -0.00980479 0.000555157 0.000808613)
(-0.00743321 0.00266029 2.16891e-08 0.00842721 -0.00065484 0.00035929)
(-0.0038265 0.00611662 -0.000270189 0.00363812 -0.000228536 0.000375077)
(0.000167256 0.00621843 -0.000337136 -0.00169039 0.000236629 0.000488562)
(0.00358488 0.00285019 -0.000160697 -0.00631768 0.000686922 0.000555711)
(-0.00585572 0.001862 3.53492e-05 0.00564241 -0.00062113 0.00074311)
(-0.0032243 0.00463599 -0.000181546 0.00260768 -0.000202533 0.000555661)
(-0.000363876 0.00480966 -0.000239705 -0.000783596 0.000247032 0.000442378)
(0.00194342 0.00221658 -0.000109233 -0.00349016 0.000703411 0.000294959)
(-0.00480285 0.00098229 3.36661e-05 0.00381228 -0.000515393 0.00107876)
(-0.00287831 0.00323162 -0.000164104 0.00182406 -0.000167243 0.000724681)
(-0.000751689 0.00344675 -0.000215453 -0.000146341 0.000193911 0.000428862)
(0.000854154 0.0015717 -9.24522e-05 -0.00150252 0.000595343 9.83036e-05)
(-0.00486204 0.000593585 -4.08863e-05 0.0028836 -0.000285628 0.0013163)
(-0.00352896 0.00187906 -0.000272375 0.00164833 -9.56836e-05 0.000870741)
(-0.00090509 0.00185641 -0.000346852 0.000268294 7.16061e-05 0.000485029)
(0.000571751 0.000795881 -0.000191397 -0.000601717 0.000288014 5.90307e-05)
(-0.00793244 0.011445 -2.34763e-05 0.0264382 4.84153e-05 -0.000105521)
(-0.00252963 0.0100402 -0.000119375 0.00626679 -4.99355e-05 -9.32419e-06)
(0.00128126 0.00947796 -0.000137721 -0.00604001 -0.00022772 0.000135641)
(0.00613846 0.0097613 -6.72218e-05 -0.0249972 -0.000348579 0.000248844)
(-0.0140826 0.00412882 -5.16956e-05 0.0177415 -0.000183044 -0.000160997)
(-0.00538599 0.0109127 -0.000266936 0.00730781 -0.000126695 3.13285e-05)
(0.00242426 0.0107867 -0.000309078 -0.00580332 -8.28756e-05 0.000327717)
(0.0108262 0.00413427 -0.000150147 -0.0164658 -1.95574e-05 0.000555573)
(-0.011627 0.00420171 -4.93933e-05 0.015561 -0.000309025 -3.13367e-06)
(-0.00537694 0.00919686 -0.000283132 0.00611717 -0.00014806 0.000149083)
(0.00176934 0.00922668 -0.000329683 -0.00416741 2.66162e-05 0.000405785)
(0.008064 0.00422355 -0.000158509 -0.0136711 0.000198707 0.000593296)
(-0.00961371 0.00339266 -2.75713e-05 0.0117672 -0.000388684 0.000247283)
(-0.00464737 0.0076729 -0.00023885 0.00486944 -0.000153154 0.000293855)
(0.000862157 0.00773799 -0.000283034 -0.00277544 0.000107555 0.000428911)
(0.00577741 0.00349936 -0.000135334 -0.00963846 0.000355318 0.000506673)
(-0.00758892 0.00267575 7.77551e-07 0.00843415 -0.000418294 0.000544105)
(-0.00393015 0.00615912 -0.00017412 0.00368019 -0.000145419 0.000450401)
(0.000143329 0.00626796 -0.000214307 -0.00161258 0.000154692 0.000425564)
(0.00363148 0.0028794 -0.000100157 -0.00619772 0.000444062 0.000357044)
(-0.00597764 0.0018701 1.98455e-05 0.00568678 -0.00040343 0.000846389)
(-0.00331445 0.00466933 -0.000125332 0.00265686 -0.000130578 0.000608749)
(-0.000403096 0.00485325 -0.000159567 -0.00072676 0.000164017 0.000423385)
(0.00194783 0.00224581 -7.02604e-05 -0.00341391 0.000461392 0.000201762)
(-0.00489355 0.000978518 1.37253e-05 0.00388384 -0.000343441 0.00112078)
(-0.00295925 0.00325142 -0.000126135 0.00187501 -0.000110674 0.000764056)
(-0.000809862 0.0034774 -0.000156238 -0.000107331 0.000129211 0.000452228)
(0.00081612 0.00159619 -6.505e-05 -0.00145851 0.000395393 9.94594e-05)
(-0.00493721 0.00059094 -4.61413e-05 0.00296666 -0.000196158 0.00131916)
(-0.00362089 0.0018869 -0.000218678 0.00170552 -6.55362e-05 0.000905583)
(-0.000996744 0.00186412 -0.000264529 0.000299813 4.66203e-05 0.00054771)
(0.000493472 0.00080491 -0.000141941 -0.000584049 0.000192299 0.000136629)
(-0.0079783 0.0114351 -8.73599e-06 0.0264234 -1.32542e-05 -1.81968e-05)
(-0.00255572 0.00999609 -5.72117e-05 0.00627737 -4.4612e-05 2.23692e-05)
(0.00128154 0.00942191 -6.6937e-05 -0.00599854 -0.000116925 9.53975e-05)
(0.00615807 0.00972145 -3.28658e-05 -0.0249109 -0.000158965 0.000147253)
(-0.014187 0.00411441 -2.08263e-05 0.0176844 -0.000116406 2.59095e-05)
(-0.00544762 0.0108908 -0.000132262 0.00731706 -7.70141e-05 9.85468e-05)
(0.00242421 0.0107627 -0.000155041 -0.00572746 -4.71744e-05 0.000243374)
(0.010876 0.00412256 -7.57124e-05 -0.0163358 -3.28621e-06 0.000339982)
(-0.0117459 0.00420177 -2.17256e-05 0.0155209 -0.000177637 0.000187004)
(-0.00544888 0.00920319 -0.000146563 0.00613293 -8.49724e-05 0.000216848)
(0.00176634 0.00923506 -0.000171979 -0.00409229 1.34485e-05 0.000323302)
(0.00812175 0.00422741 -8.26048e-05 -0.0135448 0.00011316 0.000376509)
(-0.0097276 0.00340096 -1.21123e-05 0.011748 -0.00021705 0.000407875)
(-0.00471759 0.0076968 -0.000127643 0.00489183 -8.54439e-05 0.000351836)
(0.000853267 0.00776512 -0.00015153 -0.00270874 5.93854e-05 0.000362943)
(0.00582332 0.00351401 -7.18068e-05 -0.00953042 0.000198431 0.000325882)
(-0.00768762 0.00268599 1.55311e-06 0.00843749 -0.000232832 0.00066151)
(-0.00399429 0.00618857 -9.62078e-05 0.00370825 -8.05376e-05 0.00049558)
(0.000127034 0.00630205 -0.000117661 -0.00155828 8.68495e-05 0.000383324)
(0.00365757 0.00289911 -5.39583e-05 -0.00611477 0.000248621 0.000230893)
(-0.00605848 0.00187667 1.02652e-05 0.00570883 -0.00022688 0.000922244)
(-0.00337123 0.00469488 -7.31735e-05 0.00268743 -7.30198e-05 0.000643424)
(-0.000427363 0.0048852 -9.12152e-05 -0.000686303 9.2765e-05 0.000407307)
(0.0019511 0.00226599 -3.90724e-05 -0.00335654 0.000260142 0.000134632)
(-0.00495772 0.000977569 4.21642e-06 0.00391981 -0.000196557 0.00116483)
(-0.00301124 0.00326758 -7.92839e-05 0.00190528 -6.31116e-05 0.000792615)
(-0.000844537 0.00349999 -9.50985e-05 -7.9163e-05 7.30388e-05 0.000461566)
(0.000796276 0.00161274 -3.89262e-05 -0.00142147 0.000224321 8.66137e-05)
(-0.00499479 0.000589964 -3.43579e-05 0.00300999 -0.000114996 0.00134352)
(-0.00368101 0.00189379 -0.000140206 0.00173951 -3.82729e-05 0.000932452)
(-0.0010502 0.00187008 -0.000165146 0.000323456 2.59163e-05 0.000578328)
(0.000452311 0.000810352 -8.73723e-05 -0.000564071 0.00010935 0.000164927)
(-0.00799786 0.0114271 -2.08928e-06 0.0264133 -1.07615e-05 1.87273e-05)
(-0.00256753 0.00997217 -1.68047e-05 0.00628286 -1.7035e-05 3.54735e-05)
(0.00128084 0.00939224 -1.9841e-05 -0.00597706 -3.58902e-05 7.72405e-05)
(0.00616481 0.00969911 -9.76825e-06 -0.024864 -4.52909e-05 0.000102719)
(-0.0142331 0.00410594 -5.35188e-06 0.0176605 -3.99045e-05 0.000106258)
(-0.00547578 0.0108767 -3.96268e-05 0.00732336 -2.58495e-05 0.00012682)
(0.00242246 0.0107476 -4.68117e-05 -0.00568992 -1.52637e-05 0.000204753)
(0.010895 0.00411571 -2.29065e-05 -0.0162741 3.20536e-07 0.000244181)
(-0.0118003 0.0042004 -5.98325e-06 0.0155047 -5.80983e-05 0.000270987)
(-0.00548224 0.00920353 -4.50234e-05 0.00614228 -2.77423e-05 0.000246155)
(0.0017634 0.00923649 -5.30813e-05 -0.00405494 4.11631e-06 0.000284636)
(0.00814587 0.00422821 -2.54538e-05 -0.0134842 3.68576e-05 0.000278052)
(-0.00978082 0.00340419 -3.33461e-06 0.0117404 -6.99065e-05 0.000480984)
(-0.00475058 0.007707 -3.99238e-05 0.00490383 -2.74827e-05 0.000377643)
(0.000848085 0.00777694 -4.74602e-05 -0.00267525 1.89754e-05 0.000331294)
(0.00584304 0.00352057 -2.23594e-05 -0.00947771 6.38715e-05 0.000241881)
(-0.00773475 0.00269066 6.66736e-07 0.00843898 -7.48152e-05 0.00071743)
(-0.00402474 0.00620259 -3.06723e-05 0.00372228 -2.57969e-05 0.000516499)
(0.000118842 0.00631833 -3.73995e-05 -0.00153067 2.79552e-05 0.000362345)
(0.00366901 0.00290851 -1.69679e-05 -0.00607294 8.00336e-05 0.000170295)
(-0.00609796 0.00187979 3.08554e-06 0.00571765 -7.32719e-05 0.00096124)
(-0.00339843 0.00470757 -2.40689e-05 0.00270196 -2.35104e-05 0.00066038)
(-0.000438911 0.00490091 -2.96854e-05 -0.000665486 2.99459e-05 0.000398419)
(0.00195267 0.00227575 -1.25368e-05 -0.00332631 8.39664e-05 0.000100127)
(-0.00498992 0.000977149 6.00075e-07 0.00393406 -6.41054e-05 0.00119072)
(-0.00303635 0.00327574 -2.7084e-05 0.00191917 -2.05365e-05 0.000807376)
(-0.000860609 0.003511 -3.19908e-05 -6.44907e-05 2.35638e-05 0.000464427)
(0.000787848 0.00162058 -1.30143e-05 -0.00140092 7.25865e-05 7.64457e-05)
(-0.0050244 0.000589777 -1.27556e-05 0.00302751 -3.82197e-05 0.00136164)
(-0.0037102 0.00189761 -4.82303e-05 0.00175514 -1.26327e-05 0.000946726)
(-0.00107474 0.00187286 -5.61294e-05 0.000336136 8.33959e-06 0.000590296)
(0.000434721 0.00081259 -2.95666e-05 -0.000551736 3.54434e-05 0.000172311)
)
;

boundaryField
{
    interface
    {
        type            calculated;
        value           nonuniform List<symmTensor> 
192
(
(-0.0260048 -5.8113e-06 0.00033011 0.0407905 0.00613051 -0.00355465)
(-0.0121343 2.2021e-06 0.000553383 0.0218127 -0.00180452 -0.00534552)
(-0.013009 -2.17926e-06 0.000660243 0.0208772 -0.00109846 -0.00310788)
(-0.0100876 -2.5679e-05 0.000714387 0.0151947 -0.00165995 -0.00181095)
(-0.00801135 -7.65649e-05 0.000739301 0.0106079 -0.00155736 -0.000355041)
(-0.00617685 -0.000162808 0.000737665 0.00668373 -0.00136266 0.000797249)
(-0.00512695 -0.000311811 0.000702077 0.00419187 -0.00107034 0.00170382)
(-0.00457257 -0.000542366 0.000607649 0.00278223 -0.000554477 0.00237478)
(-0.0263687 1.68966e-05 0.000232159 0.0399133 0.00385925 -0.00234457)
(-0.0141 3.25186e-05 0.000391631 0.0233792 -0.00055158 -0.00419801)
(-0.0132193 3.05835e-05 0.000465857 0.0208382 -0.0016467 -0.00302982)
(-0.0105096 -2.27108e-06 0.000502223 0.0152763 -0.00215729 -0.00157895)
(-0.00831849 -6.99164e-05 0.000515952 0.0104992 -0.00218313 -0.000130036)
(-0.00653018 -0.000182424 0.000508933 0.00656496 -0.00193126 0.00110034)
(-0.00548136 -0.000372724 0.000476612 0.00407698 -0.00147226 0.00204824)
(-0.00486421 -0.000643704 0.000407678 0.00272248 -0.000775068 0.00272156)
(-0.0273837 2.27017e-05 0.000164292 0.040319 0.00195904 -0.00136856)
(-0.0147391 4.13276e-05 0.00027619 0.0226389 -0.00032883 -0.00262965)
(-0.0137187 4.06438e-05 0.000324249 0.0205471 -0.00120357 -0.00212802)
(-0.0107852 3.55154e-06 0.00034499 0.0151718 -0.0016704 -0.00120721)
(-0.00840596 -7.37863e-05 0.000350642 0.0105242 -0.00176765 -0.000172547)
(-0.00649938 -0.00020207 0.000343043 0.00670998 -0.00160917 0.000769363)
(-0.00538222 -0.000414614 0.000320579 0.00434601 -0.00125284 0.00152282)
(-0.00459236 -0.00069982 0.000278354 0.00297977 -0.000642644 0.00202576)
(-0.0280305 2.3239e-05 0.000119022 0.0405377 0.000863938 -0.000717501)
(-0.0152469 4.24216e-05 0.000200493 0.0220849 -0.000294522 -0.00140571)
(-0.0142174 4.19722e-05 0.000233869 0.0202255 -0.000834324 -0.00114985)
(-0.0111647 2.31587e-06 0.000246768 0.0150295 -0.00116071 -0.000587273)
(-0.00865583 -8.11079e-05 0.000249117 0.0105366 -0.0012631 0.000100639)
(-0.00664374 -0.000219144 0.00024297 0.0068503 -0.00118587 0.000765464)
(-0.0054517 -0.00044478 0.000228163 0.00459642 -0.000960332 0.00131811)
(-0.00455609 -0.000736382 0.000201132 0.00324304 -0.000524156 0.00169564)
(-0.0283718 2.25788e-05 8.5032e-05 0.0406012 0.000308611 -0.000341019)
(-0.0155828 4.12514e-05 0.000143901 0.0217657 -0.000269111 -0.000649117)
(-0.0145721 4.03545e-05 0.00016755 0.020005 -0.000577686 -0.000462304)
(-0.0114666 -1.10537e-06 0.000176111 0.0149136 -0.00077645 -8.19368e-05)
(-0.00888537 -8.84371e-05 0.00017723 0.0105303 -0.000852581 0.000391053)
(-0.00680275 -0.000232618 0.000172899 0.00693453 -0.000821006 0.000866516)
(-0.00555641 -0.000466596 0.000163414 0.0047531 -0.000689741 0.00127975)
(-0.00458387 -0.00076189 0.000145612 0.0034098 -0.000390721 0.00156269)
(-0.0285395 2.18592e-05 5.72989e-05 0.0405945 6.27849e-05 -0.000132364)
(-0.0157893 3.97484e-05 9.74358e-05 0.0215914 -0.000217538 -0.000211657)
(-0.0148032 3.81976e-05 0.000113475 0.0198775 -0.000384655 -3.3407e-05)
(-0.0116769 -4.55714e-06 0.000119119 0.0148408 -0.000495942 0.000262602)
(-0.00905831 -9.44221e-05 0.000119764 0.0105189 -0.000543847 0.000620722)
(-0.00693556 -0.000242484 0.000117003 0.00697585 -0.000532901 0.000988158)
(-0.00565691 -0.000481879 0.000111147 0.00483689 -0.000460433 0.00132001)
(-0.00464407 -0.000779489 9.96538e-05 0.00350579 -0.000269425 0.00155102)
(-0.0286155 2.14245e-05 3.2938e-05 0.0405692 -1.57288e-05 -2.4223e-05)
(-0.0159044 3.8638e-05 5.62388e-05 0.0215011 -0.0001409 2.1396e-05)
(-0.0149383 3.64662e-05 6.55069e-05 0.0198116 -0.000222317 0.000206153)
(-0.0118053 -7.14876e-06 6.87291e-05 0.0148019 -0.000277484 0.00046602)
(-0.00916861 -9.8546e-05 6.91014e-05 0.01051 -0.000302989 0.000768768)
(-0.00702491 -0.000248981 6.7586e-05 0.00699314 -0.000299994 0.00108168)
(-0.00572894 -0.00049174 6.42054e-05 0.00487625 -0.000264093 0.00137137)
(-0.00469565 -0.000790434 5.7312e-05 0.00355362 -0.000158534 0.0015761)
(-0.0286437 2.11244e-05 1.06493e-05 0.0405512 -1.32358e-05 2.1396e-05)
(-0.0159547 3.79173e-05 1.82272e-05 0.0214627 -4.86701e-05 0.000121346)
(-0.0149992 3.54286e-05 2.12136e-05 0.0197841 -7.29347e-05 0.000311752)
(-0.0118646 -8.54194e-06 2.22504e-05 0.0147856 -8.95103e-05 0.000558607)
(-0.00922069 -0.000100653 2.23709e-05 0.0105055 -9.74562e-05 0.000839584)
(-0.00706821 -0.00025241 2.18875e-05 0.00699891 -9.69743e-05 0.00113049)
(-0.00576419 -0.000497065 2.06998e-05 0.00489078 -8.62616e-05 0.00140291)
(-0.00472164 -0.000794968 1.82258e-05 0.00357195 -5.2831e-05 0.00159729)
(-0.00720592 0.00840783 -0.000397458 0.0279376 -9.10915e-05 -0.0143801)
(-0.0127582 0.00381994 -0.000682208 0.0155321 -0.000144263 -0.00224306)
(-0.0108231 0.00525218 -0.000824152 0.0159368 -0.000154198 -0.00366488)
(-0.00934259 0.0047341 -0.000910188 0.0117893 -0.000145583 -0.00178591)
(-0.00758362 0.00420293 -0.000973124 0.00853058 -0.000143223 -0.000724475)
(-0.0061797 0.00329432 -0.00102543 0.00562464 -0.00015949 0.000303748)
(-0.00524656 0.00219437 -0.00108668 0.00370086 -0.000197729 0.000959232)
(-0.00540364 0.00116846 -0.00121517 0.00260988 -0.000243822 0.0017541)
(-0.00259356 0.00663536 -0.000256429 0.00669811 -7.21234e-05 -0.00321982)
(-0.00549672 0.00999864 -0.000465513 0.00589361 -0.000132695 -0.000683727)
(-0.00568355 0.0106085 -0.000554726 0.00593792 -0.000156081 -0.000506534)
(-0.00514796 0.00992927 -0.000601667 0.00465276 -0.000143032 5.90506e-05)
(-0.00449791 0.008693 -0.000636739 0.00352621 -0.000120139 0.000418206)
(-0.00390844 0.00701804 -0.000674437 0.00249232 -0.000104662 0.000733003)
(-0.00352516 0.00510847 -0.000736646 0.00175669 -0.000103243 0.000967808)
(-0.0040593 0.00282503 -0.000902606 0.00149975 -0.00010504 0.00149088)
(0.00137597 0.00602513 -0.000199247 -0.00810263 -4.89138e-05 0.00405365)
(0.00257271 0.00970292 -0.000388191 -0.00460496 -0.00010934 0.000942174)
(0.00190863 0.0105958 -0.000472687 -0.00432843 -0.000141441 0.00125219)
(0.00113983 0.00999 -0.000514575 -0.00303701 -0.00013272 0.000949632)
(0.000506545 0.00880027 -0.000543359 -0.002053 -0.000105618 0.000744998)
(5.4053e-05 0.00718364 -0.000576626 -0.00122913 -7.88473e-05 0.000509801)
(-0.000250235 0.00528006 -0.000637069 -0.000621486 -6.08107e-05 0.000306063)
(-0.000159843 0.00279474 -0.000801416 -7.90338e-05 -4.86549e-05 -0.000120649)
(0.00568786 0.00684087 -0.000186886 -0.0281534 -4.27145e-05 0.014612)
(0.00985717 0.00352933 -0.000386836 -0.0142627 -0.000105808 0.00257061)
(0.00742352 0.00528258 -0.000483275 -0.0144027 -0.000140472 0.0043302)
(0.0056941 0.00486343 -0.000532758 -0.0101807 -0.000133619 0.00270754)
(0.00387681 0.00440441 -0.000564029 -0.00695883 -0.000104716 0.00179676)
(0.0025036 0.00360437 -0.000597778 -0.00414548 -7.21973e-05 0.000849013)
(0.00163524 0.00261338 -0.000656753 -0.00219457 -4.06056e-05 0.000129769)
(0.00162473 0.00126106 -0.000810976 -0.00103391 -5.20809e-06 -0.000643805)
(0.0233303 4.32548e-05 4.4374e-05 -0.0390713 -0.00735966 0.00375935)
(0.00979549 8.88025e-05 7.76503e-05 -0.0209591 0.0012926 0.00601289)
(0.0101261 0.000114132 8.31933e-05 -0.019517 0.00074869 0.00415495)
(0.0069575 0.000108515 8.3941e-05 -0.0136389 0.00142734 0.00309253)
(0.00475915 8.67093e-05 9.29346e-05 -0.00897305 0.00141865 0.00177287)
(0.00288871 6.09969e-05 0.000115274 -0.0050102 0.00131043 0.000661474)
(0.00174135 1.97595e-05 0.000151927 -0.00228298 0.00102733 -0.000268813)
(0.00147677 -0.00014009 0.000196313 -0.000963751 0.000404831 -0.000999749)
(0.0230555 2.04266e-05 -1.13961e-05 -0.0376127 -0.00504127 0.00266771)
(0.0115455 4.84087e-05 -1.93812e-05 -0.0227536 -0.000121163 0.00508085)
(0.00997188 6.81587e-05 -2.79043e-05 -0.0195355 0.00126515 0.00425638)
(0.00695356 7.04067e-05 -3.22553e-05 -0.0137136 0.00197989 0.00299659)
(0.00459369 6.30552e-05 -2.70731e-05 -0.00879306 0.00215639 0.00164997)
(0.00272758 5.41551e-05 -1.13603e-05 -0.00475447 0.00201638 0.000451366)
(0.0015502 3.39296e-05 1.2116e-05 -0.00195569 0.00159554 -0.000508949)
(0.00136126 -0.000108176 4.32705e-05 -0.000722997 0.00079646 -0.00124663)
(0.0238966 1.04162e-05 -2.06972e-05 -0.037855 -0.00285834 0.00162486)
(0.0121619 2.8626e-05 -3.29034e-05 -0.0219259 -0.000186023 0.00329072)
(0.0104698 4.58938e-05 -3.70212e-05 -0.0191065 0.000907277 0.00302797)
(0.00723878 5.4511e-05 -3.61029e-05 -0.0134694 0.0015564 0.00226264)
(0.00467109 5.81904e-05 -2.84234e-05 -0.00864999 0.00179826 0.00132563)
(0.00265496 6.12928e-05 -1.43606e-05 -0.00470152 0.00174435 0.000442856)
(0.00135867 5.38512e-05 2.48696e-06 -0.00196864 0.0014332 -0.000270963)
(0.000987867 -6.86565e-05 1.76804e-05 -0.000745221 0.000715604 -0.000730213)
(0.0243859 6.57773e-06 -1.91253e-05 -0.0379131 -0.00152726 0.000931924)
(0.0126033 1.98831e-05 -2.94731e-05 -0.0212715 -9.02704e-05 0.00195315)
(0.0108825 3.59896e-05 -2.9871e-05 -0.0186254 0.000618159 0.00190166)
(0.00752456 4.93592e-05 -2.56293e-05 -0.0131559 0.00108998 0.00149041)
(0.00480919 6.16128e-05 -1.69709e-05 -0.00847641 0.00131258 0.000914575)
(0.00266531 7.40482e-05 -4.92415e-06 -0.00463819 0.00131975 0.000336664)
(0.00125485 7.39182e-05 7.14268e-06 -0.00197246 0.00112216 -0.000132934)
(0.000766363 -3.65827e-05 1.35424e-05 -0.000793674 0.000576965 -0.00037769)
(0.024591 5.19516e-06 -1.44728e-05 -0.0378221 -0.000779946 0.000520869)
(0.0128728 1.65222e-05 -2.17698e-05 -0.0208555 -1.40262e-05 0.0011192)
(0.011145 3.27144e-05 -2.02366e-05 -0.018261 0.000424225 0.00112776)
(0.00772249 4.96969e-05 -1.49035e-05 -0.0128812 0.000733698 0.000901949)
(0.0049211 6.7866e-05 -6.99454e-06 -0.00830256 0.000900638 0.00055692)
(0.00268971 8.63394e-05 2.06988e-06 -0.00454821 0.000928986 0.00019678)
(0.00119528 9.02531e-05 9.39749e-06 -0.00193614 0.000809502 -8.95193e-05)
(0.000628563 -1.30027e-05 1.12218e-05 -0.000800607 0.000422047 -0.00018039)
(0.0246525 4.91039e-06 -9.44011e-06 -0.0376881 -0.000375899 0.000286434)
(0.0130226 1.58197e-05 -1.38169e-05 -0.020598 2.17966e-05 0.000628705)
(0.0112973 3.27094e-05 -1.17155e-05 -0.0180166 0.000281432 0.000646048)
(0.00784331 5.22412e-05 -6.92667e-06 -0.0126806 0.00047065 0.000511268)
(0.00499424 7.40852e-05 -8.18333e-07 -0.00815942 0.000580662 0.000296271)
(0.00271078 9.59173e-05 5.24454e-06 -0.00445846 0.000607583 6.96333e-05)
(0.00116359 0.000101837 9.15314e-06 -0.0018836 0.000537522 -9.8979e-05)