/*--------------------------------*- C++ -*----------------------------------*\
| =========                 |                                                 |
| \\      /  F ield         | foam-extend: Open Source CFD                    |
|  \\    /   O peration     | Version:     3.1                                |
|   \\  /    A nd           | Web:         http://www.extend-project.de       |
|    \\/     M anipulation  |                                                 |
\*---------------------------------------------------------------------------*/
FoamFile
{
    version     2.0;
    format      ascii;
    class       volScalarField;
    location    "2.7";
    object      sigmaEq;
}
// * * * * * * * * * * * * * * * * * * * * * * * * * * * * * * * * * * * * * //

dimensions      [1 -1 -2 0 0 0 0];

internalField   nonuniform List<scalar> 
256
(
264.165
117.327
115.247
253.351
196.891
148.766
138.008
177.295
178.119
141.636
131.117
155.867
140.824
126.312
117.214
117.228
107.359
107.065
99.6298
84.0707
78.8304
85.6254
79.7489
56.2414
59.2816
64.2929
58.1575
35.5086
54.0507
47.4751
31.5742
21.6819
260.07
131.967
127.422
243.432
205.332
153.475
144.827
187.86
175.769
132.405
123
154.46
137.21
112.419
103.681
113.801
102.376
91.7185
84.3895
78.5524
74.0782
71.4686
65.7227
50.3479
55.3371
52.8383
47.2748
30.3797
51.3722
40.8836
26.168
18.7267
262.219
136.142
129.727
241.528
204.351
155.003
145.294
184.184
175.804
131.912
121.3
151.787
137.078
109.556
99.5622
111.015
102.174
87.8996
79.4258
75.8118
73.7131
67.5729
61.0097
47.8362
54.7023
49.746
43.7889
28.2077
50.1473
39.9411
24.7023
15.6774
263.555
137.036
129.295
240.25
203.785
155.943
144.964
181.225
175.893
132.81
120.877
149.284
137.568
109.958
98.7085
108.829
102.851
87.8992
78.3391
73.8566
74.4021
67.3485
59.9796
46.0937
55.2502
49.6371
43.1572
26.6485
50.4785
40.7505
24.7456
13.9123
264.032
136.795
128.147
238.9
203.77
156.318
144.313
179.319
176.249
133.672
120.707
147.504
138.305
110.941
98.7467
107.292
103.806
88.8204
78.4631
72.5286
75.4035
68.1215
60.1522
44.9171
56.1693
50.3286
43.4118
25.5986
51.3185
41.7877
25.1457
12.9703
264.05
136.282
127.021
237.651
203.89
156.367
143.606
178.053
176.636
134.238
120.529
146.308
138.971
111.763
98.9094
106.27
104.631
89.7069
78.8081
71.6584
76.2678
68.9304
60.5563
44.1585
56.9871
51.0269
43.7991
24.9311
52.164
42.6107
25.4602
12.4107
263.926
135.842
126.197
236.714
203.995
156.296
143.038
177.251
176.93
134.544
120.352
145.561
139.442
112.286
99.0136
105.64
105.197
90.3077
79.073
71.1289
76.8567
69.4949
60.8721
43.7065
57.5547
51.5088
44.0807
24.5433
52.7805
43.1428
25.6323
12.0634
263.829
135.602
125.771
236.218
204.049
156.233
142.728
176.856
177.081
134.672
120.243
145.199
139.679
112.53
99.0543
105.338
105.478
90.5988
79.2027
70.8767
77.1459
69.772
61.0304
43.4945
57.8345
51.7444
44.2169
24.3642
53.0899
43.3986
25.7007
11.8889
)
;

boundaryField
{
    interface
    {
        type            calculated;
        value           nonuniform List<scalar> 
192
(
427.328
223.46
216.149
161.031
117.732
81.9482
61.8806
52.574
417.899
240.429
217.3
164.301
119.987
85.0723
65.3433
55.8308
423.225
236.005
216.181
163.759
119.531
84.3796
64.1574
52.4715
427.205
233.53
215.384
163.691
119.94
84.9806
64.7947
52.3552
429.162
232.605
215.221
163.99
120.63
85.8481
65.7384
52.8805
429.914
232.318
215.373
164.427
121.306
86.6472
66.6059
53.6336
430.111
232.243
215.569
164.792
121.799
87.2054
67.2079
54.214
430.125
232.224
215.681
164.985
122.045
87.4792
67.4973
54.4973
298.912
183.318
183.593
145.293
113.408
84.7063
64.3444
58.3774
107.106
142.626
149.883
137.22
118.896
96.3519
72.9491
54.0566
108.662
128.849
137.911
127.162
110.765
89.8608
66.0549
35.9779
291.668
159.233
160.184
120.666
89.893
62.2734
41.0055
25.6818
405.211
208.111
194.19
136.598
91.0733
52.9552
28.0152
18.5046
387.012
225.485
194.244
137.912
91.0337
53.6133
29.4103
19.7606
388.514
218.808
190.665
135.116
88.5806
51.4475
27.176
15.2013
389.734
214.307
187.29
132.264
86.0451
48.968
24.3873
12.2912
389.552
211.81
185.031
130.174
84.1064
46.9313
21.9273
10.2918
388.71
210.353
183.61
128.806
82.7839
45.4983
20.1148
9.00412
387.849
209.499
182.762
127.985
81.9732
44.6108
18.9663
8.19887
387.338
209.095
182.361
127.599
81.5881
44.1894
18.4185
7.80677
58.2427
55.355
54.4304
54.6125
55.4478
56.3063
56.9495
57.2614
44.6281
40.1654
40.6193
42.1327
43.5262
44.5344
45.1672
45.4727
13.029
11.2102
11.1827
12.1352
12.9283
13.2834
13.37
13.3673
22.1059
18.9259
14.8293
12.4244
11.3188
10.6615
10.2189
9.97679
)
;
    }
    symmetry
    {
        type            symmetryPlane;
    }
    bottom
    {
        type            calculated;
        value           nonuniform List<scalar> 
32
(
242.575
209.848
205.924
206.293
206.745
206.878
206.845
206.791
80.1715
87.194
87.9603
86.9246
85.6761
84.6604
83.9838
83.6505
85.1478
86.2698
84.2557
81.5566
79.3518
77.7947
76.8214
76.3558
244.4
199.854
188.256
184.495
182.713
181.562
180.792
180.397
)
;
    }
}


// ************************************************************************* //
