/*--------------------------------*- C++ -*----------------------------------*\
| =========                 |                                                 |
| \\      /  F ield         | foam-extend: Open Source CFD                    |
|  \\    /   O peration     | Version:     3.1                                |
|   \\  /    A nd           | Web:         http://www.extend-project.de       |
|    \\/     M anipulation  |                                                 |
\*---------------------------------------------------------------------------*/
FoamFile
{
    version     2.0;
    format      ascii;
    class       volScalarField;
    location    "2.7";
    object      sigmaCauchyEq;
}
// * * * * * * * * * * * * * * * * * * * * * * * * * * * * * * * * * * * * * //

dimensions      [1 -1 -2 0 0 0 0];

internalField   nonuniform List<scalar> 
256
(
289.254
119.389
112.177
227.665
199.906
149.543
136.399
173.53
182.392
142.064
129.688
151.236
142.647
126.326
116.233
114.996
108.054
106.851
98.9826
82.9634
78.8389
85.289
79.3669
55.8249
59.0628
63.9379
57.9556
35.4013
53.6186
47.0479
31.5481
21.7094
284.375
134.468
124.303
219.866
210.575
155.284
142.263
181.783
180.259
133.21
121.446
149.709
139.368
112.795
102.65
111.396
103.236
91.783
83.7731
77.4329
74.2248
71.358
65.3839
49.9258
55.2248
52.644
47.1099
30.2651
51.049
40.5799
26.1353
18.7206
287.152
138.844
126.51
217.758
209.182
156.838
142.706
178.394
180.109
132.695
119.775
147.144
139.123
109.911
98.5817
108.668
102.965
87.9607
78.8492
74.7355
73.8293
67.4736
60.6952
47.4365
54.5792
49.5697
43.6319
28.0996
49.803
39.6486
24.6625
15.6746
288.829
139.787
126.073
216.436
208.226
157.712
142.43
175.786
179.97
133.52
119.403
144.857
139.479
110.258
97.7662
106.602
103.579
87.9283
77.7839
72.8419
74.4958
67.2353
59.6727
45.7217
55.127
49.4564
42.9974
26.5498
50.1392
40.4498
24.6966
13.9082
289.415
139.545
124.959
215.214
207.953
158.032
141.839
174.131
180.146
134.326
119.278
143.264
140.104
111.2
97.8328
105.176
104.476
88.825
77.9219
71.5709
75.4719
67.9953
59.8486
44.5709
56.0388
50.1403
43.2484
25.5089
50.9735
41.4744
25.0907
12.9663
289.437
139.022
123.876
214.142
207.92
158.045
141.182
173.026
180.419
134.857
119.134
142.201
140.694
111.998
98.0169
104.234
105.261
89.696
78.2774
70.7443
76.316
68.795
60.2554
43.8324
56.8481
50.8319
43.6337
24.8486
51.8123
42.2873
25.4017
12.4072
289.285
138.572
123.085
213.356
207.943
157.954
140.649
172.319
180.647
135.145
118.981
141.536
141.122
112.507
98.1354
103.656
105.802
90.288
78.5496
70.2432
76.8909
69.3538
60.5735
43.3937
57.4088
51.3092
43.9144
24.4658
52.4228
42.8126
25.572
12.0605
289.166
138.326
122.677
212.944
207.961
157.881
140.357
171.969
180.77
135.266
118.883
141.213
141.339
112.746
98.1835
103.379
106.07
90.5752
78.6833
70.0048
77.1732
69.6282
60.7332
43.1884
57.6847
51.5425
44.0505
24.2893
52.7288
43.0652
25.6398
11.8864
)
;

boundaryField
{
    interface
    {
        type            calculated;
        value           nonuniform List<scalar> 
192
(
458.886
231.718
223.559
164.761
119.334
82.3879
61.8968
52.4764
446.844
249.746
224.569
167.986
121.51
85.4667
65.3292
55.7239
451.984
244.502
223.036
167.228
120.952
84.7363
64.1311
52.3548
455.903
241.386
221.816
166.928
121.25
85.2919
64.7585
52.2475
457.756
240.066
221.353
167.052
121.851
86.1205
65.6904
52.7786
458.385
239.551
221.321
167.375
122.466
86.8897
66.5455
53.5327
458.48
239.351
221.413
167.674
122.921
87.4277
67.1374
54.1119
458.439
239.277
221.481
167.838
123.15
87.6917
67.4217
54.3945
315.293
185.118
186.914
146.578
113.782
84.5028
63.9584
57.8203
108.474
142.749
149.968
136.922
118.426
95.8091
72.4461
53.5669
106.315
127.785
136.6
126.207
110.079
89.425
65.8061
35.9252
274.924
156.607
156.307
118.717
88.875
61.8807
40.9097
25.7248
374.701
199.72
186.888
132.977
89.4675
52.4199
27.8831
18.4869
359.674
215.512
186.823
134.13
89.3613
53.0202
29.23
19.7054
361.674
209.526
183.559
131.476
86.9805
50.8884
27.014
15.163
363.179
205.628
180.58
128.829
84.5483
48.4606
24.2537
12.2638
363.272
203.525
178.629
126.918
82.7033
46.4716
21.8187
10.2716
362.677
202.313
177.414
125.678
81.4511
45.075
20.0248
8.98846
361.999
201.601
176.691
124.937
80.6856
44.2113
18.8883
8.1861
361.586
201.262
176.348
124.588
80.3223
43.8015
18.3464
7.7954
57.6205
54.8243
53.9053
54.0918
54.9201
55.7689
56.4037
56.7104
44.2169
39.8347
40.2897
41.7862
43.1627
44.158
44.7828
45.0847
13.0154
11.1941
11.163
12.1116
12.9017
13.2549
13.3404
13.3372
22.1544
18.9485
14.8496
12.4365
11.3248
10.6638
10.2191
9.97615
)
;
    }
    symmetry
    {
        type            symmetryPlane;
    }
    bottom
    {
        type            calculated;
        value           nonuniform List<scalar> 
32
(
262.716
226.747
222.94
223.611
224.228
224.424
224.405
224.351
81.4574
88.6308
89.5
88.4894
87.2403
86.2178
85.535
85.1983
83.1548
84.4341
82.4356
79.7796
77.6195
76.0985
75.15
74.6967
223.48
183.544
172.485
168.827
167.128
166.07
165.381
165.032
)
;
    }
}


// ************************************************************************* //
