/*--------------------------------*- C++ -*----------------------------------*\
| =========                 |                                                 |
| \\      /  F ield         | foam-extend: Open Source CFD                    |
|  \\    /   O peration     | Version:     3.1                                |
|   \\  /    A nd           | Web:         http://www.extend-project.de       |
|    \\/     M anipulation  |                                                 |
\*---------------------------------------------------------------------------*/
FoamFile
{
    version     2.0;
    format      ascii;
    class       volSymmTensorField;
    location    "2.7";
    object      sigma;
}
// * * * * * * * * * * * * * * * * * * * * * * * * * * * * * * * * * * * * * //

dimensions      [1 -1 -2 0 0 0 0];

internalField   nonuniform List<symmTensor> 
256
(
(192.428 66.6258 -2.99397 435.432 35.2763 222.182)
(25.6809 56.7443 -8.89501 88.1532 12.249 34.7494)
(-60.5422 52.9728 -9.09789 -121.592 -17.231 -60.583)
(-218.085 56.3431 -3.69592 -448.345 -42.3819 -235.909)
(-82.0567 27.8123 -3.50576 129.963 -10.7109 -24.5255)
(-34.9266 73.1598 -14.0306 47.6622 -4.78079 -10.94)
(-1.68567 71.6513 -14.5067 -57.4011 2.71839 -3.79814)
(43.5211 26.792 -5.09511 -141.116 7.84928 9.93503)
(-29.9835 34.0063 -1.47574 158.62 -5.76628 25.9481)
(-35.7528 70.7703 -9.57553 43.0396 -2.35328 -5.71647)
(-7.67334 70.8146 -9.90074 -51.5123 0.392751 -9.3038)
(-7.4306 34.3777 -3.0467 -162.777 3.57583 -34.2758)
(-41.8739 29.739 -1.46145 106.437 -8.43662 10.805)
(-36.413 64.4914 -7.8261 29.4811 -2.89966 -6.90109)
(-7.0906 64.9126 -8.05453 -36.2285 1.34563 -5.4917)
(4.67797 30.6293 -3.14863 -107.743 6.83395 -15.7665)
(-38.0603 25.7447 -1.0546 73.3218 -7.76765 10.6443)
(-33.9313 55.4221 -6.21414 19.1031 -2.51997 -5.47734)
(-8.43249 56.088 -6.40544 -25.5521 1.28375 -5.13161)
(1.71612 27.0309 -2.74002 -73.3023 6.6639 -13.4479)
(-38.1989 19.8321 -1.10565 42.3354 -6.7888 7.36294)
(-32.2862 44.2988 -5.32242 9.4225 -2.21265 -5.09428)
(-8.85526 45.3029 -5.39634 -16.6738 1.13193 -4.65452)
(2.36282 21.8021 -2.61472 -42.2704 6.1019 -9.42796)
(-37.073 12.8191 -1.60841 23.0244 -5.57306 7.5225)
(-32.03 32.0319 -5.00578 1.91231 -2.1324 -4.93138)
(-9.18966 33.0862 -4.86863 -10.4217 0.712322 -4.8626)
(3.1915 15.6414 -2.68327 -20.9302 4.76309 -7.9504)
(-47.722 7.01163 -2.20178 6.47135 -3.00583 2.38884)
(-44.4234 17.9322 -4.71924 -7.96828 -1.3371 -11.3539)
(-3.23313 17.597 -4.64486 -1.65007 -0.0354623 -1.27666)
(10.1177 7.59997 -3.12305 -6.4438 1.72239 -5.43983)
(193.314 75.981 -1.9346 430.556 21.9595 230.412)
(31.0517 68.5614 -7.17384 90.3574 7.00528 41.3719)
(-55.2893 65.3307 -7.79755 -109.196 -12.3203 -57.4453)
(-209.898 66.2287 -3.38142 -429.655 -29.1532 -234.355)
(-47.2242 28.7976 -2.84275 176.027 -3.62715 17.1945)
(-11.139 75.806 -13.2048 73.827 -2.50422 12.4058)
(-23.5289 74.9607 -14.5045 -84.247 -0.963764 -27.0802)
(7.58754 28.8365 -5.87552 -189.772 -0.550992 -32.1077)
(-24.1326 30.02 -1.26559 163.563 -9.0463 30.7484)
(-24.023 65.1806 -10.4185 51.5645 -3.68653 2.19412)
(-13.8924 65.3672 -11.7711 -57.7779 1.60542 -14.7975)
(-10.9792 30.3935 -4.70823 -166.744 6.64441 -36.9901)
(-31.1432 24.8729 -0.0815214 115.328 -11.4072 19.9602)
(-24.0824 56.2478 -7.37876 38.1023 -4.00684 1.11283)
(-12.9837 56.643 -8.77184 -41.498 2.81537 -11.1126)
(-3.35799 25.6303 -3.82993 -114.815 10.1899 -22.9307)
(-30.4094 20.4055 0.994263 77.8226 -11.3997 16.4087)
(-23.5965 46.54 -4.95776 25.36 -3.77591 0.325347)
(-11.8092 47.108 -6.35407 -27.4992 3.17202 -8.33324)
(-3.03743 21.5153 -2.82828 -75.2436 11.0457 -17.1987)
(-30.8162 15.0532 1.52256 46.3826 -10.0334 13.1752)
(-23.0492 36.321 -3.35608 14.6889 -3.28352 -0.196539)
(-11.0057 37.1959 -4.63009 -16.937 2.88685 -6.67998)
(-1.92338 16.8832 -2.09998 -42.9323 10.2348 -12.8883)
(-30.5993 8.95657 1.44827 26.1234 -7.76187 12.642)
(-24.5491 25.8625 -2.6181 5.525 -2.75237 -1.53446)
(-10.2563 26.8606 -3.67842 -9.37256 2.01708 -5.68486)
(0.146716 11.912 -1.68104 -19.8011 7.96324 -10.1229)
(-40.9774 5.18412 0.900588 10.3355 -4.16433 7.68479)
(-38.0737 14.8559 -2.61388 -4.95659 -1.64788 -8.93825)
(-5.41625 14.477 -3.84507 -1.83533 0.696241 -2.85793)
(5.66614 5.92173 -2.2352 -7.1766 3.79217 -8.73363)
(200.484 79.8585 -1.30822 441.583 11.0555 245.81)
(33.7452 71.6586 -4.62148 94.3975 2.98674 47.3414)
(-55.8927 68.2299 -5.13837 -109.233 -7.70285 -60.8385)
(-216.942 69.3333 -2.37642 -438.643 -16.8377 -249.156)
(-47.8575 29.4174 -2.3176 177.17 -2.30263 30.6964)
(-9.34718 77.2184 -9.02525 77.7339 -1.9487 20.2399)
(-25.2702 76.4264 -10.1235 -86.3093 -1.37391 -33.8812)
(5.54237 29.4587 -4.58722 -191.845 -1.21829 -48.0826)
(-24.7348 29.6389 -1.53511 165.591 -6.83858 39.4998)
(-23.2968 64.7846 -7.82681 54.4387 -3.04084 7.44866)
(-14.8734 64.9641 -8.99758 -59.4138 1.05352 -19.2954)
(-13.1097 29.8054 -4.0646 -169.891 4.79457 -48.8356)
(-32.0243 23.9969 -0.572312 116.25 -9.13222 24.1449)
(-23.392 54.2257 -5.73179 40.2129 -3.41479 4.72703)
(-13.8453 54.6038 -6.92101 -42.165 2.46088 -13.7028)
(-5.68682 24.6363 -3.22073 -117.157 8.26763 -30.6312)
(-32.1637 19.1198 0.310257 77.5968 -9.49958 16.6997)
(-22.9754 43.8574 -3.71559 27.118 -3.26451 2.80107)
(-12.5425 44.4541 -4.88418 -27.5597 3.04347 -9.49319)
(-4.59748 20.2487 -2.31754 -76.2231 9.5436 -20.9073)
(-32.8739 13.6634 0.853615 45.7022 -8.55925 10.9898)
(-22.4477 33.5973 -2.28331 16.177 -2.82347 1.47964)
(-11.6113 34.5959 -3.34609 -16.488 2.94845 -6.69812)
(-3.08867 15.733 -1.58679 -43.0325 9.18922 -13.6687)
(-32.3509 7.59181 0.919533 25.7165 -6.6589 9.13312)
(-23.9853 23.6366 -1.66004 6.77107 -2.25234 -0.505169)
(-10.8592 24.8646 -2.59067 -8.65016 2.20266 -4.81754)
(-0.77071 11.0925 -1.20975 -19.2581 7.38865 -8.58782)
(-43.3758 4.51108 0.39064 8.86539 -3.38687 2.03147)
(-37.9618 13.7423 -2.07822 -4.09372 -1.20277 -8.73345)
(-6.48629 13.4974 -3.26167 -1.00782 0.799325 -1.04131)
(5.67786 5.60995 -1.97037 -5.06536 3.46576 -3.83168)
(204.273 81.2989 -0.744013 447.914 4.86396 255.106)
(34.6937 72.2785 -2.77769 96.4051 0.883695 50.5596)
(-56.5178 68.5949 -3.12473 -109.57 -4.70836 -63.1748)
(-220.617 70.1075 -1.48597 -443.422 -9.26662 -257.997)
(-48.9834 29.6131 -1.4323 177.01 -1.94481 40.0344)
(-9.73085 77.9015 -5.70179 78.9856 -1.5816 24.4155)
(-25.7311 77.0653 -6.45716 -86.1082 -1.18075 -37.6445)
(5.15215 29.6294 -3.04328 -191.419 -0.814691 -58.5112)
(-25.4018 29.8271 -1.11745 166.658 -4.81206 47.5836)
(-24.276 65.1905 -5.3475 55.4197 -2.25196 10.6093)
(-15.2348 65.3679 -6.16053 -59.2606 0.610041 -22.2939)
(-13.7334 29.9419 -2.90409 -170.267 3.23749 -57.9089)
(-32.8187 23.9801 -0.538395 117.34 -6.45407 29.4776)
(-24.3774 54.1744 -4.12272 41.0918 -2.49713 6.97612)
(-14.3447 54.5713 -4.92557 -41.957 1.79015 -15.6978)
(-6.32001 24.628 -2.36 -117.556 5.87134 -36.9605)
(-32.9439 18.9168 0.0678639 78.7152 -6.8847 19.4527)
(-23.8751 43.4514 -2.75622 27.9868 -2.3976 4.2734)
(-13.1302 44.1142 -3.5219 -27.2762 2.37804 -10.4786)
(-5.22302 20.1547 -1.69523 -76.4648 7.08968 -24.4061)
(-33.5589 13.3116 0.475285 46.904 -6.37824 11.7369)
(-23.222 33.0042 -1.73508 17.0438 -2.09463 2.37099)
(-12.2074 34.1404 -2.41632 -16.085 2.41231 -6.75631)
(-3.7071 15.6372 -1.13307 -43.0707 7.07714 -14.7379)
(-32.6279 7.13588 0.522244 27.2807 -5.12306 8.66147)
(-24.6502 23.067 -1.38181 7.62205 -1.68502 -0.0161256)
(-11.5334 24.484 -1.98465 -8.15658 1.86604 -4.07152)
(-1.43532 11.0523 -0.883045 -19.0004 5.8651 -7.61992)
(-43.5931 4.29198 -0.0306679 10.2388 -2.74931 0.548666)
(-38.7473 13.4265 -2.08159 -3.22317 -0.933945 -8.42726)
(-7.7161 13.2524 -2.90735 -0.598345 0.69997 0.386096)
(4.90328 5.60771 -1.66416 -4.45847 2.81689 -0.947518)
(205.752 81.7179 -0.378601 450.685 1.73093 259.838)
(35.054 72.0881 -1.58528 97.4497 -0.0580917 52.2813)
(-56.8192 68.2086 -1.80403 -109.493 -2.82351 -64.4552)
(-221.861 70.0321 -0.87214 -444.695 -4.92091 -262.259)
(-49.9775 29.5941 -0.779433 176.791 -1.67571 45.614)
(-10.2095 78.0501 -3.40405 79.6623 -1.24642 26.8004)
(-26.058 77.1759 -3.8937 -85.5811 -0.880917 -39.9187)
(4.91796 29.6143 -1.87242 -190.794 -0.399253 -64.9029)
(-26.2618 29.964 -0.680146 167.056 -3.33281 52.8845)
(-25.1236 65.5308 -3.41254 55.9915 -1.59059 12.5898)
(-15.5636 65.7249 -3.94647 -58.7441 0.343573 -24.2945)
(-13.9269 30.0903 -1.89042 -169.823 2.17972 -63.7971)
(-33.7166 24.122 -0.366983 117.942 -4.34532 33.4328)
(-25.2348 54.515 -2.76159 41.7028 -1.70616 8.50239)
(-14.7558 54.9473 -3.27674 -41.5004 1.21123 -17.1631)
(-6.54606 24.8247 -1.57703 -117.237 3.96541 -41.4272)
(-33.7617 19.0021 0.000154922 79.5269 -4.67743 21.899)
(-24.665 43.6902 -1.92992 28.6537 -1.6324 5.34621)
(-13.585 44.4174 -2.40811 -26.8539 1.69021 -11.2899)
(-5.4951 20.3585 -1.14784 -76.2276 4.90658 -27.132)
(-34.258 13.3 0.252494 47.8714 -4.43664 12.8765)
(-23.9017 33.1142 -1.29675 17.7553 -1.44667 3.09806)
(-12.6719 34.3547 -1.71218 -15.6699 1.76451 -6.91292)
(-4.00102 15.8327 -0.780237 -42.8123 5.02437 -15.7757)
(-33.0461 7.01636 0.240472 28.4905 -3.68138 8.96538)
(-25.2674 23.083 -1.17217 8.32098 -1.19459 0.46826)
(-12.0716 24.6197 -1.53895 -7.74768 1.38508 -3.63908)
(-1.75692 11.2265 -0.660373 -18.5903 4.25245 -7.15585)
(-44.188 4.23989 -0.292045 11.1379 -2.0402 -0.0570952)
(-39.6338 13.4219 -1.94554 -2.65322 -0.683454 -8.20741)
(-8.63302 13.2601 -2.47751 -0.251701 0.511472 1.2964)
(4.49913 5.68486 -1.36712 -3.88278 2.05724 0.836846)
(206.201 81.7502 -0.167688 451.706 0.345824 262.107)
(35.186 71.7156 -0.852679 98.0176 -0.356682 53.1882)
(-56.8925 67.6997 -0.983724 -109.187 -1.62657 -65.0755)
(-222.01 69.7235 -0.480155 -444.408 -2.48985 -264.079)
(-50.6189 29.4915 -0.369254 176.696 -1.30746 48.8208)
(-10.5693 77.9475 -1.90669 80.1007 -0.904965 28.1259)
(-26.2744 77.0478 -2.2077 -85.0429 -0.591969 -41.2498)
(4.70033 29.5305 -1.07248 -190.243 -0.139696 -68.6612)
(-26.8934 30.0122 -0.352809 167.306 -2.20732 56.1339)
(-25.7022 65.6918 -2.02237 56.3985 -1.05757 13.7694)
(-15.823 65.9049 -2.35488 -58.2285 0.190116 -25.5628)
(-14.0258 30.1682 -1.1322 -169.277 1.41933 -67.388)
(-34.3719 24.2333 -0.196938 118.349 -2.77631 36.0637)
(-25.8251 54.8065 -1.70607 42.152 -1.09396 9.46932)
(-15.0471 55.2713 -2.02167 -41.0299 0.768253 -18.1417)
(-6.6525 24.9954 -0.966672 -116.766 2.53799 -44.3006)
(-34.3588 19.1125 0.00555394 80.0917 -2.98782 23.7342)
(-25.209 43.9937 -1.24372 29.1506 -1.03871 6.08063)
(-13.886 44.7711 -1.53076 -26.4282 1.10494 -11.8701)
(-5.62084 20.5672 -0.715407 -75.8294 3.17187 -29.0097)
(-34.7614 13.3578 0.141754 48.5559 -2.88164 13.9817)
(-24.3723 33.3523 -0.895228 18.2798 -0.9327 3.65049)
(-12.9717 34.666 -1.13977 -15.2836 1.17155 -7.06827)
(-4.14855 16.0415 -0.50186 -42.4467 3.29566 -16.6205)
(-33.3673 6.98941 0.0980378 29.3283 -2.45315 9.59221)
(-25.7116 23.2244 -0.900963 8.81882 -0.790529 0.883438)
(-12.4271 24.8386 -1.11599 -7.409 0.922935 -3.41215)
(-1.92673 11.4014 -0.464643 -18.1741 2.82424 -7.04573)
(-44.5712 4.221 -0.329581 11.885 -1.40113 0.117133)
(-40.289 13.4778 -1.56199 -2.24321 -0.468116 -7.95706)
(-9.25134 13.3151 -1.88949 0.00978605 0.333002 1.78047)
(4.18269 5.74936 -1.01387 -3.51388 1.37356 1.63382)
(206.253 81.679 -0.0624 451.979 -0.094673 263.111)
(35.2307 71.4006 -0.408655 98.3242 -0.318657 53.6457)
(-56.8691 67.2994 -0.478122 -108.87 -0.835176 -65.3415)
(-221.808 69.4389 -0.234756 -443.729 -1.13546 -264.742)
(-51.0036 29.3886 -0.148759 176.649 -0.831473 50.5174)
(-10.7975 77.7914 -0.944729 80.3787 -0.550101 28.818)
(-26.3966 76.8766 -1.10743 -84.6228 -0.33696 -41.974)
(4.54465 29.4469 -0.540803 -189.825 -0.0234729 -70.7124)
(-27.2997 30.0126 -0.155183 167.463 -1.26883 57.9355)
(-26.0506 65.7371 -1.04688 56.6766 -0.606946 14.4189)
(-15.9926 65.9647 -1.22842 -57.84 0.0960608 -26.3)
(-14.0808 30.1958 -0.590034 -168.842 0.808289 -69.4039)
(-34.7939 24.2926 -0.0865163 118.603 -1.55036 37.6024)
(-26.1817 54.9771 -0.911734 42.4569 -0.610314 10.0284)
(-15.2271 55.4651 -1.08235 -40.67 0.424181 -18.7294)
(-6.70801 25.1 -0.512906 -116.378 1.41737 -45.9754)
(-34.749 19.1857 0.0110936 80.4304 -1.66308 24.8877)
(-25.5372 44.2041 -0.687198 29.481 -0.575268 6.5333)
(-14.0629 45.0147 -0.840435 -26.1008 0.620353 -12.2322)
(-5.67898 20.7079 -0.385416 -75.4814 1.77587 -30.1552)
(-35.0951 13.4048 0.0733229 48.9572 -1.62057 14.7673)
(-24.657 33.5348 -0.522668 18.6192 -0.52157 4.01911)
(-13.1434 34.8943 -0.651537 -14.993 0.662607 -7.18151)
(-4.21793 16.1856 -0.279089 -42.1296 1.85816 -17.1927)
(-33.5992 6.98264 0.0301173 29.8117 -1.40398 10.1333)
(-25.9853 23.3399 -0.566313 9.13269 -0.450797 1.18509)
(-12.6343 24.9999 -0.679275 -7.16737 0.521706 -3.30502)
(-2.00631 11.5196 -0.278044 -17.8473 1.6023 -7.07532)
(-44.8383 4.21403 -0.245413 12.3388 -0.821398 0.435395)
(-40.708 13.5271 -1.00147 -1.98996 -0.273378 -7.75465)
(-9.62164 13.3577 -1.17961 0.190175 0.185117 2.01069)
(3.99033 5.78823 -0.624088 -3.26954 0.781073 1.93759)
(206.218 81.622 -0.0149234 452.012 -0.0768682 263.479)
(35.2433 71.2298 -0.120033 98.4604 -0.121679 53.8362)
(-56.8367 67.0874 -0.141721 -108.679 -0.256358 -65.4338)
(-221.63 69.2794 -0.0697732 -443.264 -0.323507 -264.93)
(-51.1832 29.3281 -0.0382277 176.628 -0.285032 51.2406)
(-10.9071 77.6904 -0.283049 80.5154 -0.184639 29.1115)
(-26.4496 76.7687 -0.334369 -84.3952 -0.109026 -42.2904)
(4.46587 29.398 -0.163618 -189.599 0.00228954 -71.6115)
(-27.4955 30.0029 -0.0427375 167.54 -0.414988 58.7277)
(-26.2132 65.7395 -0.321596 56.819 -0.19816 14.7039)
(-16.0744 65.9749 -0.379152 -57.634 0.0294022 -26.637)
(-14.1056 30.2015 -0.181813 -168.606 0.263269 -70.3043)
(-34.9974 24.3156 -0.0238186 118.726 -0.499332 38.3012)
(-26.3485 55.05 -0.28517 42.6116 -0.196305 10.2817)
(-15.3119 55.5496 -0.339001 -40.4786 0.135538 -19.0032)
(-6.73238 25.1469 -0.15971 -116.166 0.456225 -46.7407)
(-34.9388 19.219 0.0047624 80.5878 -0.534394 25.4339)
(-25.6906 44.3042 -0.219088 29.6453 -0.184264 6.74688)
(-14.1437 45.1309 -0.267139 -25.926 0.19968 -12.4044)
(-5.7018 20.775 -0.121199 -75.2872 0.571669 -30.6927)
(-35.2579 13.4271 0.0220396 49.1393 -0.523371 15.165)
(-24.79 33.6255 -0.171921 18.7842 -0.167931 4.20145)
(-13.2205 35.0065 -0.212038 -14.8389 0.213899 -7.23954)
(-4.24536 16.2553 -0.0895486 -41.9524 0.59976 -17.4778)
(-33.7156 6.97963 0.00428625 30.0271 -0.457895 10.4319)
(-26.114 23.3981 -0.193457 9.28263 -0.146689 1.34122)
(-12.7283 25.0786 -0.228506 -7.04169 0.168313 -3.26371)
(-2.03859 11.5756 -0.092959 -17.6726 0.518475 -7.12004)
(-44.9636 4.21269 -0.0911116 12.55 -0.272998 0.65096)
(-40.9062 13.5543 -0.344502 -1.86802 -0.0902335 -7.64242)
(-9.79546 13.3776 -0.400924 0.282244 0.0595685 2.09768)
(3.89508 5.80421 -0.21119 -3.15104 0.253167 2.02072)
)
;

boundaryField
{
    interface
    {
        type            calculated;
        value           nonuniform List<symmTensor> 
192
(
(-25.3053 -0.0415093 2.35793 451.805 43.7893 135.053)
(-24.7762 0.0157293 3.95274 217.702 -12.8894 23.7152)
(-24.9166 -0.0155661 4.71602 217.128 -7.84616 45.8056)
(-24.9665 -0.183422 5.10276 155.622 -11.8568 34.1525)
(-25.2028 -0.546892 5.28072 107.792 -11.124 29.4852)
(-25.49 -1.16292 5.26904 66.3713 -9.7333 24.325)
(-25.6391 -2.22722 5.01483 40.9239 -7.64526 23.1521)
(-24.3119 -3.87405 4.34035 28.2224 -3.96055 25.312)
(-28.3465 0.12069 1.65828 445.096 27.5661 143.254)
(-28.1264 0.232276 2.79736 239.583 -3.93985 42.6024)
(-28.8657 0.218454 3.32755 214.402 -11.7622 43.9165)
(-29.5297 -0.016222 3.58731 154.655 -15.4092 34.2606)
(-30.1218 -0.499403 3.68537 104.291 -15.5938 28.3672)
(-30.4281 -1.30303 3.63524 63.1086 -13.7947 24.0756)
(-29.9544 -2.66232 3.40437 38.3195 -10.5161 23.8284)
(-26.4612 -4.59788 2.91199 27.7295 -5.5362 27.7229)
(-30.3572 0.162155 1.17352 453.234 13.9931 155.465)
(-29.9919 0.295197 1.97278 236.994 -2.34878 56.5042)
(-30.8414 0.290313 2.31606 213.914 -8.59696 51.9488)
(-31.6182 0.0253681 2.46421 153.789 -11.9314 36.7961)
(-32.2475 -0.527045 2.50458 102.968 -12.6261 26.5626)
(-32.4247 -1.44336 2.45031 61.9279 -11.4941 19.4949)
(-31.4928 -2.96153 2.28985 37.9945 -8.94886 17.8288)
(-26.9001 -4.99871 1.98824 27.1865 -4.59032 20.3721)
(-31.7943 0.165993 0.850158 457.978 6.17099 163.299)
(-31.302 0.303011 1.43209 235.353 -2.10373 67.5634)
(-32.1498 0.299801 1.67049 213.871 -5.95946 61.1901)
(-32.9277 0.016542 1.76263 154.174 -8.29077 42.6257)
(-33.5213 -0.579342 1.7794 103.568 -9.02216 29.0249)
(-33.5691 -1.56532 1.7355 62.8169 -8.47052 19.3537)
(-32.3287 -3.177 1.62974 39.4436 -6.85951 16.0271)
(-27.0779 -5.25987 1.43665 28.6302 -3.74397 17.5773)
(-32.8213 0.161277 0.607371 459.842 2.20436 167.398)
(-32.251 0.294653 1.02787 234.524 -1.92222 74.4179)
(-33.0776 0.288246 1.19678 213.902 -4.12633 67.7066)
(-33.833 -0.00789553 1.25794 154.597 -5.54607 47.4863)
(-34.3819 -0.631694 1.26593 104.301 -6.08987 31.8783)
(-34.3297 -1.66156 1.23499 63.7938 -5.86433 20.4508)
(-32.8823 -3.33283 1.16724 40.7571 -4.92672 15.9475)
(-27.1901 -5.44207 1.04008 29.9075 -2.79087 16.7139)
(-33.5299 0.156137 0.409278 460.284 0.448464 169.378)
(-32.9168 0.283917 0.69597 234.088 -1.55384 78.3517)
(-33.7246 0.27284 0.810536 213.995 -2.74753 71.7741)
(-34.4569 -0.032551 0.850847 154.955 -3.54245 50.8253)
(-34.9694 -0.674443 0.855461 104.868 -3.88462 34.1666)
(-34.8476 -1.73203 0.835736 64.5196 -3.80644 21.7504)
(-33.2639 -3.44199 0.793908 41.6918 -3.28881 16.5712)
(-27.2755 -5.56778 0.711813 30.9378 -1.92446 16.9751)
(-33.9758 0.153032 0.235271 460.2 -0.112349 170.248)
(-33.3442 0.275986 0.401706 233.838 -1.00643 80.4115)
(-34.1392 0.260473 0.467907 214.075 -1.58798 74.0357)
(-34.8575 -0.0510625 0.490922 155.194 -1.98203 52.7947)
(-35.3449 -0.7039 0.493581 105.217 -2.1642 35.6364)
(-35.1792 -1.77844 0.482757 64.9498 -2.14281 22.725)
(-33.5113 -3.51243 0.45861 42.2401 -1.88638 17.2052)
(-27.3395 -5.64596 0.409371 31.5839 -1.13239 17.4588)
(-34.1855 0.150889 0.0760668 460.064 -0.0945411 170.565)
(-33.5433 0.270838 0.130194 233.724 -0.347644 81.2857)
(-34.3277 0.253062 0.151526 214.125 -0.520962 75.0363)
(-35.0394 -0.0610138 0.158931 155.319 -0.639359 53.6979)
(-35.5136 -0.71895 0.159792 105.388 -0.696116 36.3455)
(-35.3273 -1.80293 0.156339 65.1521 -0.692673 23.2348)
(-33.6084 -3.55047 0.147856 42.4986 -0.616155 17.5852)
(-27.3316 -5.67834 0.130184 31.9083 -0.377364 17.8036)
(39.266 60.056 -2.83899 290.291 -0.650654 -11.9778)
(-83.5463 27.2853 -4.87291 118.527 -1.03045 -8.43845)
(-56.6099 37.5156 -5.8868 134.533 -1.10141 -5.47977)
(-57.2921 33.815 -6.50134 93.6502 -1.03988 -3.3158)
(-50.9904 30.0209 -6.95089 64.111 -1.02302 -1.99649)
(-47.7308 23.5308 -7.32449 36.5859 -1.13921 -1.42049)
(-45.8536 15.6741 -7.76199 18.0565 -1.41235 -1.52654)
(-53.4497 8.34615 -8.67978 3.7897 -1.74158 -2.32304)
(-5.88637 47.3954 -1.83163 60.4827 -0.515167 -10.3597)
(-43.36 71.4189 -3.32509 37.9995 -0.947819 -8.98148)
(-44.1992 75.775 -3.96233 38.8113 -1.11487 -7.22051)
(-43.0018 70.9234 -4.29762 27.0034 -1.02166 -5.80889)
(-40.035 62.0929 -4.54814 17.2802 -0.858136 -4.91988)
(-37.6762 50.1289 -4.81741 8.04353 -0.747584 -4.52302)
(-36.6176 36.4891 -5.26175 1.10991 -0.737453 -4.52499)
(-44.2617 20.1788 -6.44719 -4.55422 -0.750288 -4.61756)
(-28.3575 43.0367 -1.42319 -96.0617 -0.349384 -9.23121)
(2.80402 69.3065 -2.77279 -48.4651 -0.781002 -8.84271)
(-3.04709 75.6842 -3.37634 -47.5975 -1.01029 -7.73592)
(-5.39465 71.3572 -3.67554 -35.2292 -0.947997 -6.75324)
(-7.83118 62.859 -3.88113 -26.1136 -0.754412 -6.12795)
(-9.11781 51.3117 -4.11875 -18.2834 -0.563195 -5.86247)
(-9.86821 37.7147 -4.55049 -12.52 -0.434362 -5.89466)
(-6.2778 19.9624 -5.7244 -5.7006 -0.347535 -5.99785)
(-71.5652 48.8633 -1.3349 -313.288 -0.305103 -7.82111)
(44.1946 25.2095 -2.76311 -128.09 -0.755772 -7.85221)
(15.183 37.7327 -3.45196 -140.718 -1.00337 -6.91209)
(15.2564 34.7388 -3.80542 -98.1353 -0.954423 -6.07614)
(9.33079 31.46 -4.02878 -68.0666 -0.747971 -5.52674)
(6.55617 25.7455 -4.26985 -40.9372 -0.515695 -5.26229)
(5.54372 18.667 -4.69109 -21.812 -0.29004 -5.20963)
(10.8482 9.00756 -5.79269 -8.14204 -0.0372007 -5.35558)
(-4.52128 0.308963 0.316957 -450.247 -52.569 -144.314)
(-3.61436 0.634304 0.554645 -223.29 9.23288 -30.6329)
(-2.46972 0.815231 0.594238 -214.207 5.34779 -45.121)
(-1.5734 0.775104 0.599578 -148.691 10.1953 -29.1803)
(-0.878025 0.619352 0.663819 -98.9651 10.1332 -22.2086)
(-0.223736 0.435692 0.823384 -56.6445 9.3602 -16.1326)
(0.860502 0.14114 1.08519 -27.8848 7.33808 -13.4978)
(3.59505 -1.00064 1.40223 -13.8372 2.89165 -14.0944)
(-5.16805 0.145905 -0.0814004 -438.512 -36.009 -150.795)
(-5.06462 0.345777 -0.138437 -250.058 -0.86545 -51.2404)
(-4.58973 0.486848 -0.199317 -215.357 9.03681 -45.4147)
(-4.09558 0.502905 -0.230395 -151.718 14.1421 -32.3597)
(-3.60786 0.450395 -0.193379 -99.2275 15.4028 -24.6344)
(-3.02475 0.386822 -0.0811452 -56.468 14.4027 -19.2834)
(-1.99059 0.242354 0.0865428 -27.0327 11.3967 -16.6988)
(1.03233 -0.772683 0.309075 -13.8552 5.689 -17.5954)
(-5.50247 0.0744012 -0.147837 -446.586 -20.4167 -164.587)
(-5.60528 0.204471 -0.235024 -249.089 -1.32873 -68.9706)
(-5.3399 0.327813 -0.264437 -216.6 6.48055 -58.4961)
(-4.97979 0.389364 -0.257878 -152.895 11.1171 -40.5237)
(-4.53913 0.415646 -0.203024 -99.6897 12.8447 -28.4353)
(-3.94604 0.437806 -0.102576 -56.4924 12.4596 -19.7468)
(-2.88003 0.384651 0.017764 -26.6465 10.2372 -14.5202)
(0.090963 -0.490404 0.126289 -12.2882 5.11146 -12.181)
(-5.74592 0.0469838 -0.136609 -450.739 -10.909 -173.275)
(-5.90584 0.142022 -0.210522 -247.868 -0.644789 -81.9782)
(-5.7143 0.257069 -0.213365 -216.485 4.41542 -69.863)
(-5.40914 0.352566 -0.183066 -153.127 7.78559 -48.5102)
(-4.97211 0.440092 -0.121221 -99.8693 9.37556 -32.7908)
(-4.33654 0.528915 -0.0351725 -56.5044 9.42677 -20.9698)
(-3.18742 0.527987 0.0510191 -26.2396 8.0154 -13.1002)
(-0.311709 -0.261305 0.0967311 -11.4548 4.12118 -8.48352)
(-5.92464 0.0371083 -0.103377 -451.733 -5.57104 -177.854)
(-6.10108 0.118015 -0.155498 -247.018 -0.100187 -90.0555)
(-5.93845 0.233675 -0.144547 -215.982 3.03018 -77.4904)
(-5.65036 0.354978 -0.106454 -152.82 5.2407 -54.3685)
(-5.2 0.484757 -0.049961 -99.6547 6.43313 -36.3727)
(-4.52677 0.61671 0.0147849 -56.2262 6.63561 -22.3334)
(-3.3249 0.644665 0.0671249 -25.6921 5.78215 -12.502)
(-0.545032 -0.0928761 0.0801558 -10.7534 3.01462 -6.32327)
(-6.04224 0.0350742 -0.0674294 -451.332 -2.68499 -180.085)
(-6.21986 0.112998 -0.0986919 -246.367 0.15569 -94.7477)
(-6.06434 0.233639 -0.0836823 -215.449 2.01023 -82.145)
(-5.77694 0.373151 -0.0494762 -152.377 3.36179 -58.1487)
(-5.31128 0.52918 -0.00584523 -99.266 4.14759 -38.8682)
(-4.60925 0.685124 0.037461 -55.8181 4.33988 -23.4746)
(-3.38849 0.72741 0.0653796 -25.1541 3.83945 -12.4068)
(-0.678521 0.0203624 0.0624736 -10.2543 2.02301 -5.35598)
(-6.11093 0.0358007 -0.0366105 -450.614 -1.16201 -181.084)
(-6.28571 0.115031 -0.0521589 -245.894 0.183257 -97.2732)
(-6.1294 0.241055 -0.040528 -215.031 1.16014 -84.7417)
(-5.83793 0.39209 -0.0177616 -152.006 1.88446 -60.3392)
(-5.36011 0.562527 0.00904203 -98.9156 2.32254 -40.3899)
(-4.64184 0.730403 0.0333353 -55.4612 2.44641 -24.2543)
(-3.41735 0.778119 0.0464751 -24.7436 2.18141 -12.494)
(-0.751843 0.0880625 0.0382885 -9.92219 1.15576 -4.99791)
(-6.14115 0.0367979 -0.0114096 -450.139 -0.318831 -181.454)
(-6.31311 0.11733 -0.0159604 -245.641 0.0757587 -98.3683)
(-6.15564 0.246327 -0.0117478 -214.803 0.38039 -85.8944)
(-5.86195 0.402761 -0.00394163 -151.801 0.608079 -61.3344)
(-5.37961 0.579659 0.00489081 -98.7186 0.748147 -41.1031)
(-4.65431 0.752724 0.0126686 -55.2626 0.789967 -24.6449)
(-3.42691 0.801018 0.0165112 -24.5255 0.706664 -12.5784)
(-0.796239 0.119126 0.0122351 -9.76596 0.375426 -4.9099)
(-57.9992 9.25934 -2.38629 -1.86572 -1.95828 -2.67093)
(-52.7638 8.69386 0.557738 -0.210344 -1.60616 1.03306)
(-53.3771 8.62298 -0.0376204 1.11083 -1.23595 -3.58721)
(-53.7713 8.67277 -0.498937 2.14525 -0.947582 -5.6032)
(-54.5168 8.74666 -0.733537 2.91299 -0.71248 -6.6141)
(-55.0957 8.8159 -0.6752 3.4559 -0.504292 -6.74387)
(-55.4878 8.86865 -0.463379 3.79115 -0.310399 -6.59061)
(-55.7108 8.89522 -0.165593 3.88734 -0.107979 -6.48432)
(-49.0005 6.82926 -4.458 -3.70688 -0.537976 -10.4594)
(-44.4626 5.83625 -2.77219 -2.91499 -0.478365 -9.80791)
(-44.5582 5.56181 -2.58821 -2.00983 -0.351587 -9.9091)
(-45.5965 5.47042 -2.75528 -1.25704 -0.265849 -9.71892)
(-46.693 5.43826 -2.6159 -0.701071 -0.204538 -9.60068)
(-47.5207 5.4296 -2.10059 -0.310101 -0.148291 -9.42623)
(-48.0467 5.43335 -1.34324 -0.0547789 -0.0903974 -9.26358)
(-48.2812 5.44557 -0.460983 0.0916838 -0.0302376 -9.15448)
(-3.5564 5.92519 -4.56727 -5.03599 0.0696817 -3.85473)
(-5.72556 4.81044 -4.2878 -4.51937 0.00413197 -5.16038)
(-7.34232 4.42547 -4.07976 -3.84985 0.00999813 -2.90987)
(-8.88287 4.24838 -3.82788 -3.30986 0.00240216 -1.01064)
(-10.0397 4.15175 -3.32428 -2.9181 -0.008003 0.172297)
(-10.8273 4.09539 -2.54592 -2.64833 -0.0118814 0.779803)
(-11.308 4.06376 -1.58896 -2.47559 -0.00759083 1.05384)
(-11.5275 4.04879 -0.53949 -2.37556 -0.00167798 1.16106)
(13.3787 5.79645 -3.44528 -4.58763 0.46392 -6.07001)
(9.39438 4.7004 -2.90082 -4.15189 0.234 -8.73102)
(8.26938 4.27558 -2.80362 -3.75314 0.138211 -3.48848)
(7.14563 4.05613 -2.46244 -3.41444 0.0866162 0.0880819)
(6.42483 3.92353 -2.04497 -3.16761 0.0512409 2.23634)
(5.90491 3.84006 -1.51751 -2.99903 0.0278903 3.20183)
(5.57765 3.78986 -0.932058 -2.89384 0.0135308 3.55655)
(5.41509 3.76339 -0.314802 -2.84464 0.00414262 3.64794)
)
;
    }
    symmetry
    {
        type            symmetryPlane;
    }
    bottom
    {
        type            calculated;
        value           nonuniform List<symmTensor> 
32
(
(226.584 81.6671 0 339.877 93.0929 226.584)
(221.132 91.8558 0 331.698 46.5436 221.132)
(227.536 96.4394 0 341.304 22.8024 227.536)
(231.398 98.0344 0 347.097 10.6165 231.398)
(233.173 98.4706 0 349.76 4.53447 233.173)
(233.905 98.5089 0 350.858 1.67643 233.905)
(234.161 98.4482 0 351.241 0.486267 234.161)
(234.229 98.3981 0 351.343 0.0850598 234.229)
(42.9997 34.8592 0 64.4995 27.8072 42.9997)
(44.1128 46.5215 0 66.1693 14.4171 44.1128)
(46.904 48.4667 0 70.356 6.83048 46.904)
(48.2787 48.127 0 72.418 2.86028 48.2787)
(48.996 47.3905 0 73.494 0.943294 48.996)
(49.3911 46.7527 0 74.0866 0.137608 49.3911)
(49.6054 46.3252 0 74.4081 -0.0940595 49.6054)
(49.7006 46.1153 0 74.551 -0.05731 49.7006)
(-63.2654 30.9404 0 -94.8982 -33.5539 -63.2654)
(-57.4822 42.6691 0 -86.2232 -19.617 -57.4822)
(-58.3659 44.1416 0 -87.5489 -11.5751 -58.3659)
(-58.8795 43.3846 0 -88.3192 -6.78458 -58.8795)
(-59.0054 42.3499 0 -88.5081 -3.90517 -59.0054)
(-58.9389 41.5112 0 -88.4083 -2.16119 -58.9389)
(-58.8244 40.9593 0 -88.2365 -1.07265 -58.8244)
(-58.7476 40.6902 0 -88.1213 -0.322724 -58.7476)
(-231.082 69.2371 0 -346.623 -103.28 -231.082)
(-220.869 78.2577 0 -331.304 -55.8958 -220.869)
(-227.219 81.234 0 -340.828 -30.2011 -227.219)
(-230.582 81.6006 0 -345.873 -16.0238 -230.582)
(-231.722 81.1494 0 -347.583 -8.26196 -231.722)
(-231.853 80.5733 0 -347.779 -4.06893 -231.853)
(-231.66 80.1236 0 -347.49 -1.81227 -231.66)
(-231.491 79.8861 0 -347.237 -0.508677 -231.491)
)
;
    }
}


// ************************************************************************* //
