/*--------------------------------*- C++ -*----------------------------------*\
| =========                 |                                                 |
| \\      /  F ield         | foam-extend: Open Source CFD                    |
|  \\    /   O peration     | Version:     3.1                                |
|   \\  /    A nd           | Web:         http://www.extend-project.de       |
|    \\/     M anipulation  |                                                 |
\*---------------------------------------------------------------------------*/
FoamFile
{
    version     2.0;
    format      ascii;
    class       volVectorField;
    location    "2.7";
    object      U;
}
// * * * * * * * * * * * * * * * * * * * * * * * * * * * * * * * * * * * * * //

dimensions      [0 1 -1 0 0 0 0];

internalField   nonuniform List<vector> 
256
(
(1.16287e-05 1.44948e-05 1.80554e-05)
(4.69662e-07 4.23798e-06 3.65572e-06)
(4.0039e-07 -2.9641e-06 -1.1078e-05)
(1.17644e-05 -1.3882e-05 -2.71031e-05)
(6.28318e-05 5.88068e-05 1.25218e-05)
(4.77799e-05 1.80146e-05 -1.09223e-06)
(4.53633e-05 -1.70611e-05 -2.01964e-05)
(5.48852e-05 -5.87142e-05 -3.47101e-05)
(0.000139209 9.55736e-05 2.3111e-06)
(0.000122388 3.02089e-05 -9.45425e-06)
(0.000117965 -2.95772e-05 -2.53407e-05)
(0.000125126 -9.60479e-05 -3.85378e-05)
(0.000242704 0.000126732 -1.37307e-05)
(0.000224712 3.92457e-05 -1.98887e-05)
(0.000218113 -4.20775e-05 -3.05524e-05)
(0.00022167 -0.000130516 -3.91355e-05)
(0.000368756 0.000150881 -3.30791e-05)
(0.000349247 4.49453e-05 -3.20649e-05)
(0.000340432 -5.4112e-05 -3.6059e-05)
(0.000340651 -0.00016037 -3.87388e-05)
(0.000511374 0.000168408 -5.37358e-05)
(0.000490467 4.7646e-05 -4.52911e-05)
(0.000479588 -6.54272e-05 -4.21952e-05)
(0.000476711 -0.000185412 -3.84755e-05)
(0.000664383 0.000179945 -7.39265e-05)
(0.00064227 4.77451e-05 -5.93889e-05)
(0.000629655 -7.55884e-05 -4.92607e-05)
(0.000624678 -0.000205311 -3.95006e-05)
(0.00082394 0.000185845 -9.43753e-05)
(0.000798542 4.62044e-05 -7.50958e-05)
(0.000783571 -8.39949e-05 -5.79012e-05)
(0.000778317 -0.000219993 -4.33331e-05)
(1.57256e-05 1.51748e-05 8.6802e-06)
(4.22678e-06 5.09114e-06 1.62054e-06)
(3.57053e-06 -1.74567e-06 -6.40999e-06)
(1.33286e-05 -1.18848e-05 -1.47341e-05)
(7.07405e-05 6.0907e-05 4.71825e-06)
(5.32169e-05 2.082e-05 -2.86293e-06)
(5.04848e-05 -1.35093e-05 -1.39268e-05)
(6.15706e-05 -5.44269e-05 -2.23151e-05)
(0.000146596 0.000100219 -3.46377e-06)
(0.000128532 3.4876e-05 -1.00497e-05)
(0.000123584 -2.53898e-05 -1.94902e-05)
(0.00013063 -9.18575e-05 -2.69085e-05)
(0.000247139 0.000133394 -1.59991e-05)
(0.000228018 4.57062e-05 -1.8996e-05)
(0.000220833 -3.67087e-05 -2.49082e-05)
(0.000224027 -0.000125422 -2.93033e-05)
(0.000368539 0.000159519 -3.12005e-05)
(0.000348169 5.31468e-05 -2.93552e-05)
(0.000338751 -4.73751e-05 -3.0616e-05)
(0.000338247 -0.000154071 -3.08744e-05)
(0.000505836 0.000178843 -4.75372e-05)
(0.000484275 5.74455e-05 -4.06322e-05)
(0.000472878 -5.71067e-05 -3.69202e-05)
(0.000469178 -0.000177563 -3.27344e-05)
(0.000653633 0.00019201 -6.37217e-05)
(0.000631142 5.89149e-05 -5.26481e-05)
(0.000618078 -6.55682e-05 -4.41743e-05)
(0.000611789 -0.000195607 -3.59355e-05)
(0.000809341 0.000199209 -8.01954e-05)
(0.000783916 5.82489e-05 -6.57565e-05)
(0.000768776 -7.26758e-05 -5.29456e-05)
(0.000762252 -0.0002087 -4.15595e-05)
(1.8052e-05 1.59361e-05 3.79868e-06)
(5.32375e-06 5.56181e-06 3.1434e-07)
(4.1159e-06 -1.48531e-06 -3.90345e-06)
(1.37974e-05 -1.18726e-05 -8.03238e-06)
(7.55221e-05 6.21033e-05 -5.39173e-08)
(5.56947e-05 2.24363e-05 -3.834e-06)
(5.21942e-05 -1.13481e-05 -9.65045e-06)
(6.39321e-05 -5.19062e-05 -1.39377e-05)
(0.00015151 0.000102103 -6.69565e-06)
(0.000131249 3.78277e-05 -9.93292e-06)
(0.000125409 -2.17449e-05 -1.48021e-05)
(0.000132917 -8.74169e-05 -1.83606e-05)
(0.000250659 0.00013615 -1.63454e-05)
(0.00022952 4.99627e-05 -1.74153e-05)
(0.000221333 -3.16423e-05 -2.00238e-05)
(0.000224657 -0.000119199 -2.16553e-05)
(0.000369709 0.000163568 -2.79579e-05)
(0.000347429 5.87844e-05 -2.60092e-05)
(0.00033689 -4.09518e-05 -2.55924e-05)
(0.000336211 -0.000146377 -2.45536e-05)
(0.000504173 0.000184668 -4.05069e-05)
(0.000480786 6.45402e-05 -3.53806e-05)
(0.000468142 -4.93884e-05 -3.17322e-05)
(0.000463846 -0.000168662 -2.7859e-05)
(0.000649248 0.000200104 -5.31125e-05)
(0.00062513 6.74359e-05 -4.53746e-05)
(0.000610826 -5.67371e-05 -3.86983e-05)
(0.000603643 -0.000185923 -3.2287e-05)
(0.000803373 0.000209893 -6.61293e-05)
(0.00077658 6.7988e-05 -5.61623e-05)
(0.000760206 -6.31259e-05 -4.6825e-05)
(0.000752497 -0.000198838 -3.84802e-05)
(1.93841e-05 1.64172e-05 1.33464e-06)
(5.7339e-06 5.83713e-06 -3.27993e-07)
(4.10453e-06 -1.31094e-06 -2.43641e-06)
(1.37751e-05 -1.18417e-05 -4.33859e-06)
(7.836e-05 6.29629e-05 -2.34115e-06)
(5.68955e-05 2.3514e-05 -3.97018e-06)
(5.26402e-05 -9.84322e-06 -6.79138e-06)
(6.45013e-05 -5.00922e-05 -8.74418e-06)
(0.000154491 0.000103276 -7.71318e-06)
(0.000132572 3.98745e-05 -8.98612e-06)
(0.00012589 -1.88715e-05 -1.11824e-05)
(0.000133492 -8.3728e-05 -1.25824e-05)
(0.000252903 0.000137885 -1.50693e-05)
(0.000230213 5.30123e-05 -1.50383e-05)
(0.000221145 -2.74884e-05 -1.58151e-05)
(0.000224443 -0.000113857 -1.60058e-05)
(0.000370708 0.000166248 -2.38275e-05)
(0.000346959 6.29166e-05 -2.19534e-05)
(0.000335489 -3.5649e-05 -2.08305e-05)
(0.000334647 -0.000139761 -1.93716e-05)
(0.000503643 0.000188768 -3.33323e-05)
(0.000478835 6.98715e-05 -2.95132e-05)
(0.000465138 -4.30652e-05 -2.63694e-05)
(0.000460346 -0.00016115 -2.31819e-05)
(0.00064732 0.000206071 -4.30092e-05)
(0.000621896 7.40036e-05 -3.75946e-05)
(0.000606503 -4.96022e-05 -3.25757e-05)
(0.000598602 -0.000177999 -2.78531e-05)
(0.000800891 0.000217938 -5.31391e-05)
(0.000772859 7.57314e-05 -4.62644e-05)
(0.000755289 -5.54498e-05 -3.95893e-05)
(0.000746657 -0.000190982 -3.37153e-05)
(2.02319e-05 1.67084e-05 2.01208e-07)
(5.95825e-06 6.01602e-06 -5.45909e-07)
(4.01478e-06 -1.17031e-06 -1.53396e-06)
(1.36028e-05 -1.17437e-05 -2.3225e-06)
(8.01596e-05 6.3602e-05 -2.99567e-06)
(5.75582e-05 2.42913e-05 -3.53024e-06)
(5.26778e-05 -8.75375e-06 -4.76105e-06)
(6.44188e-05 -4.87338e-05 -5.52081e-06)
(0.000156406 0.00010419 -7.17889e-06)
(0.00013329 4.13842e-05 -7.456e-06)
(0.000125901 -1.67205e-05 -8.2556e-06)
(0.000133341 -8.09756e-05 -8.61117e-06)
(0.000254285 0.000139243 -1.26265e-05)
(0.000230513 5.52897e-05 -1.21228e-05)
(0.000220751 -2.43284e-05 -1.20471e-05)
(0.000223837 -0.000109832 -1.16597e-05)
(0.00037143 0.000168311 -1.90528e-05)
(0.00034663 6.60103e-05 -1.74386e-05)
(0.000334435 -3.16016e-05 -1.62024e-05)
(0.000333293 -0.000134752 -1.48261e-05)
(0.000503575 0.000191889 -2.60507e-05)
(0.000477729 7.38687e-05 -2.32652e-05)
(0.000463238 -3.82577e-05 -2.0799e-05)
(0.000457978 -0.000155493 -1.83966e-05)
(0.000646549 0.000210566 -3.32446e-05)
(0.000620145 7.8936e-05 -2.95039e-05)
(0.000603926 -4.42034e-05 -2.59021e-05)
(0.000595426 -0.000172068 -2.25951e-05)
(0.000799925 0.000223947 -4.08315e-05)
(0.000770949 8.15743e-05 -3.61547e-05)
(0.000752441 -4.9627e-05 -3.15296e-05)
(0.000743036 -0.000185089 -2.75628e-05)
(2.0778e-05 1.68881e-05 -2.10273e-07)
(6.10742e-06 6.13487e-06 -5.16249e-07)
(3.94151e-06 -1.06214e-06 -9.41227e-07)
(1.34187e-05 -1.16337e-05 -1.21693e-06)
(8.134e-05 6.40699e-05 -2.66354e-06)
(5.79741e-05 2.48457e-05 -2.72482e-06)
(5.26212e-05 -7.99001e-06 -3.18249e-06)
(6.41667e-05 -4.77672e-05 -3.40212e-06)
(0.000157693 0.000104909 -5.6673e-06)
(0.000133737 4.24762e-05 -5.54656e-06)
(0.000125803 -1.52029e-05 -5.71512e-06)
(0.000133006 -7.90658e-05 -5.6596e-06)
(0.00025513 0.00014032 -9.44289e-06)
(0.000230656 5.69427e-05 -8.86467e-06)
(0.000220394 -2.2089e-05 -8.51205e-06)
(0.00022323 -0.000107044 -8.01776e-06)
(0.000371941 0.000169897 -1.38601e-05)
(0.000346431 6.82432e-05 -1.26348e-05)
(0.000333715 -2.8732e-05 -1.1603e-05)
(0.000332278 -0.000131275 -1.05407e-05)
(0.000503689 0.000194213 -1.86808e-05)
(0.000477123 7.67347e-05 -1.67742e-05)
(0.000462074 -3.48571e-05 -1.5026e-05)
(0.000456429 -0.000151564 -1.33785e-05)
(0.000646304 0.00021383 -2.36693e-05)
(0.000619207 8.24531e-05 -2.12096e-05)
(0.000602399 -4.03932e-05 -1.88011e-05)
(0.000593425 -0.000167937 -1.66419e-05)
(0.000799627 0.000228236 -2.89506e-05)
(0.000769964 8.57349e-05 -2.59129e-05)
(0.000750777 -4.55087e-05 -2.28919e-05)
(0.000740777 -0.000180942 -2.03699e-05)
(2.10917e-05 1.69953e-05 -2.44144e-07)
(6.19733e-06 6.20923e-06 -3.52248e-07)
(3.89294e-06 -9.88705e-07 -5.12714e-07)
(1.32765e-05 -1.15465e-05 -5.8386e-07)
(8.2043e-05 6.43808e-05 -1.77723e-06)
(5.82205e-05 2.52062e-05 -1.70566e-06)
(5.25603e-05 -7.50346e-06 -1.83725e-06)
(6.39359e-05 -4.71485e-05 -1.8622e-06)
(0.000158443 0.000105404 -3.58747e-06)
(0.000133993 4.31897e-05 -3.40706e-06)
(0.000125707 -1.42376e-05 -3.37039e-06)
(0.000132713 -7.78694e-05 -3.23554e-06)
(0.000255703 0.000141062 -5.81886e-06)
(0.000230766 5.80207e-05 -5.39559e-06)
(0.000220165 -2.06659e-05 -5.08156e-06)
(0.000222798 -0.000105308 -4.71557e-06)
(0.00037231 0.000170981 -8.40882e-06)
(0.000346344 6.96967e-05 -7.64943e-06)
(0.000333281 -2.69074e-05 -6.98184e-06)
(0.000331607 -0.000129109 -6.32488e-06)
(0.000503845 0.000195766 -1.12375e-05)
(0.000476822 7.85901e-05 -1.01247e-05)
(0.000461407 -3.26955e-05 -9.08672e-06)
(0.000455487 -0.00014911 -8.13231e-06)
(0.000646276 0.000215963 -1.41779e-05)
(0.000618734 8.47197e-05 -1.27773e-05)
(0.000601539 -3.79672e-05 -1.13973e-05)
(0.000592233 -0.000165343 -1.01838e-05)
(0.000799593 0.000230997 -1.72956e-05)
(0.000769484 8.84138e-05 -1.55786e-05)
(0.000749852 -4.28695e-05 -1.38726e-05)
(0.000739445 -0.000178309 -1.24806e-05)
(2.12522e-05 1.70456e-05 -9.90628e-08)
(6.24655e-06 6.2452e-06 -1.23829e-07)
(3.87183e-06 -9.51632e-07 -1.63157e-07)
(1.32019e-05 -1.14994e-05 -1.72984e-07)
(8.23728e-05 6.45378e-05 -6.19488e-07)
(5.83377e-05 2.53848e-05 -5.79414e-07)
(5.25267e-05 -7.26621e-06 -6.01771e-07)
(6.38071e-05 -4.68465e-05 -5.94352e-07)
(0.000158784 0.000105656 -1.22395e-06)
(0.00013411 4.3542e-05 -1.14789e-06)
(0.000125655 -1.37686e-05 -1.11487e-06)
(0.000132553 -7.72936e-05 -1.05504e-06)
(0.000256002 0.000141439 -1.96322e-06)
(0.000230836 5.85523e-05 -1.8106e-06)
(0.000220068 -1.99758e-05 -1.69035e-06)
(0.000222598 -0.000104478 -1.55829e-06)
(0.000372509 0.000171533 -2.81719e-06)
(0.000346322 7.04151e-05 -2.56071e-06)
(0.00033309 -2.60214e-05 -2.33099e-06)
(0.000331297 -0.000128074 -2.10969e-06)
(0.000503943 0.000196545 -3.75003e-06)
(0.0004767 7.95061e-05 -3.38441e-06)
(0.000461107 -3.16422e-05 -3.04066e-06)
(0.000455044 -0.000147934 -2.72878e-06)
(0.000646286 0.000217015 -4.72226e-06)
(0.000618535 8.58395e-05 -4.26693e-06)
(0.000601151 -3.6776e-05 -3.81761e-06)
(0.000591677 -0.000164094 -3.42689e-06)
(0.000799603 0.000232336 -5.75327e-06)
(0.000769287 8.97454e-05 -5.19659e-06)
(0.000749435 -4.15516e-05 -4.64501e-06)
(0.00073882 -0.000177031 -4.20111e-06)
)
;

boundaryField
{
    interface
    {
        type            calculated;
        value           nonuniform List<vector> 
192
(
(3.31754e-05 3.84451e-05 1.87802e-05)
(7.62566e-05 8.71448e-05 1.47388e-05)
(0.000155417 0.000137838 3.22309e-06)
(0.000258842 0.000180711 -1.58277e-05)
(0.000385262 0.000214997 -3.91449e-05)
(0.000527975 0.000240167 -6.39806e-05)
(0.000681345 0.000257193 -8.77778e-05)
(0.000840394 0.000269181 -0.000109941)
(3.86905e-05 4.20121e-05 9.07587e-06)
(8.62155e-05 8.93177e-05 6.31169e-06)
(0.000163734 0.000140871 -2.39916e-06)
(0.000264482 0.000184788 -1.64797e-05)
(0.000386365 0.00022052 -3.3827e-05)
(0.000524078 0.000247623 -5.24917e-05)
(0.000672561 0.000266997 -7.07161e-05)
(0.000827538 0.000282335 -8.78576e-05)
(4.27966e-05 4.48769e-05 3.75639e-06)
(9.19795e-05 9.07615e-05 5.2511e-07)
(0.000169571 0.00014199 -6.36691e-06)
(0.000268696 0.000186166 -1.68362e-05)
(0.00038803 0.000222866 -2.9689e-05)
(0.000522772 0.000251789 -4.35901e-05)
(0.000668489 0.000273842 -5.73439e-05)
(0.000821448 0.000293171 -7.05419e-05)
(4.53918e-05 4.66954e-05 1.10507e-06)
(9.56016e-05 9.17943e-05 -2.27512e-06)
(0.0001734 0.000142779 -7.80481e-06)
(0.000271677 0.000187092 -1.56368e-05)
(0.000389668 0.000224554 -2.51112e-05)
(0.000522804 0.000254931 -3.53768e-05)
(0.000667106 0.000279149 -4.56733e-05)
(0.000819285 0.000301458 -5.57503e-05)
(4.70638e-05 4.78526e-05 -6.01521e-08)
(9.79465e-05 9.25686e-05 -3.12715e-06)
(0.000175952 0.000143455 -7.42978e-06)
(0.000273602 0.000187962 -1.31877e-05)
(0.000390915 0.000226064 -2.0048e-05)
(0.000523225 0.000257522 -2.74726e-05)
(0.000666822 0.000283312 -3.50104e-05)
(0.000818625 0.000307717 -4.24843e-05)
(4.8121e-05 4.8584e-05 -4.27353e-07)
(9.94867e-05 9.31343e-05 -2.83866e-06)
(0.000177703 0.00014402 -5.92021e-06)
(0.000274796 0.000188741 -9.89101e-06)
(0.00039181 0.000227341 -1.45655e-05)
(0.000523719 0.000259557 -1.96288e-05)
(0.000666968 0.000286405 -2.48082e-05)
(0.00081861 0.000312205 -2.99776e-05)
(4.87174e-05 4.90152e-05 -3.83981e-07)
(0.000100398 9.35068e-05 -1.91489e-06)
(0.000178702 0.00014443 -3.76135e-06)
(0.000275616 0.000189312 -6.09797e-06)
(0.000392431 0.000228258 -8.81817e-06)
(0.000524126 0.000260956 -1.17797e-05)
(0.000667199 0.000288453 -1.48196e-05)
(0.000818774 0.000315101 -1.78609e-05)
(4.90199e-05 4.92204e-05 -1.46787e-07)
(0.000100823 9.36924e-05 -6.68781e-07)
(0.000179148 0.00014465 -1.28387e-06)
(0.00027604 0.000189617 -2.05632e-06)
(0.000392749 0.000228732 -2.94973e-06)
(0.000524342 0.000261669 -3.92565e-06)
(0.000667328 0.000289474 -4.92896e-06)
(0.000818871 0.000316497 -5.93306e-06)
(9.54245e-06 2.2781e-05 2.82101e-05)
(5.7832e-05 5.46676e-05 1.46112e-05)
(0.000135881 8.9785e-05 5.06411e-06)
(0.000242572 0.000117948 -1.2944e-05)
(0.000373315 0.000140409 -3.40986e-05)
(0.000520981 0.000157239 -5.67778e-05)
(0.000678476 0.00016864 -7.86114e-05)
(0.000841588 0.000175289 -0.000101082)
(-4.33388e-06 5.19356e-06 4.46535e-06)
(3.84046e-05 1.51132e-05 -1.18084e-06)
(0.000114829 2.6623e-05 -1.00688e-05)
(0.000220198 3.43937e-05 -2.13941e-05)
(0.000348971 3.89962e-05 -3.45434e-05)
(0.000494747 4.074e-05 -4.88143e-05)
(0.000651018 3.97519e-05 -6.39483e-05)
(0.000811567 3.73797e-05 -8.10713e-05)
(-4.72661e-06 -1.26318e-05 -1.67786e-05)
(3.59066e-05 -1.88428e-05 -2.20882e-05)
(0.000110148 -3.15097e-05 -2.78696e-05)
(0.000213151 -4.37831e-05 -3.31119e-05)
(0.000339376 -5.64016e-05 -3.87997e-05)
(0.000482786 -6.86686e-05 -4.50844e-05)
(0.000637163 -8.01347e-05 -5.2331e-05)
(0.000794969 -9.05594e-05 -6.04173e-05)
(8.54677e-06 -3.31268e-05 -4.0906e-05)
(4.9604e-05 -6.01051e-05 -3.87605e-05)
(0.000120805 -9.70409e-05 -4.45643e-05)
(0.000219852 -0.000129808 -4.40621e-05)
(0.000342359 -0.000159748 -4.30621e-05)
(0.000482224 -0.000185651 -4.19804e-05)
(0.000633665 -0.000207147 -4.22739e-05)
(0.0007899 -0.000225169 -4.45553e-05)
(3.02835e-05 -4.06939e-05 -2.79132e-05)
(6.41865e-05 -8.73348e-05 -3.71749e-05)
(0.000134541 -0.000140171 -4.07553e-05)
(0.000228042 -0.000185776 -3.92862e-05)
(0.000344533 -0.000225162 -3.60606e-05)
(0.000478165 -0.000257096 -3.26174e-05)
(0.000624646 -0.000281481 -3.07983e-05)
(0.000777374 -0.000298765 -3.30801e-05)
(3.06501e-05 -4.10664e-05 -1.48429e-05)
(7.22937e-05 -8.40914e-05 -2.32187e-05)
(0.00014005 -0.000134586 -2.76771e-05)
(0.000230675 -0.000178635 -2.87736e-05)
(0.000342374 -0.000216293 -2.85339e-05)
(0.000471131 -0.000246734 -2.83528e-05)
(0.000611885 -0.000269832 -2.98894e-05)
(0.000761274 -0.000286884 -3.47878e-05)
(3.14945e-05 -4.22142e-05 -7.76781e-06)
(7.50581e-05 -8.20578e-05 -1.38044e-05)
(0.000142785 -0.000129391 -1.8152e-05)
(0.000231686 -0.000171179 -2.08115e-05)
(0.000340575 -0.000207085 -2.26523e-05)
(0.000465742 -0.000236341 -2.48351e-05)
(0.000603531 -0.000259044 -2.83764e-05)
(0.000750913 -0.000276704 -3.4315e-05)
(3.16958e-05 -4.25652e-05 -3.96804e-06)
(7.58456e-05 -8.03451e-05 -8.26402e-06)
(0.000143598 -0.000125341 -1.20455e-05)
(0.000231667 -0.000165156 -1.51579e-05)
(0.000339143 -0.000199602 -1.79694e-05)
(0.000462107 -0.000228007 -2.11826e-05)
(0.000598196 -0.00025058 -2.54035e-05)
(0.000744563 -0.000268738 -3.12786e-05)
(3.15617e-05 -4.24758e-05 -1.99114e-06)
(7.58185e-05 -7.89749e-05 -5.02427e-06)
(0.000143473 -0.000122389 -8.07955e-06)
(0.000231037 -0.000160775 -1.09698e-05)
(0.000337697 -0.000194127 -1.38518e-05)
(0.00045953 -0.000221898 -1.71143e-05)
(0.000594719 -0.000244396 -2.10972e-05)
(0.000740472 -0.000262801 -2.61666e-05)
(3.13305e-05 -4.22452e-05 -9.74037e-07)
(7.55395e-05 -7.79651e-05 -3.01756e-06)
(0.000143072 -0.00012036 -5.2588e-06)
(0.000230333 -0.000157796 -7.54391e-06)
(0.000336547 -0.000190409 -9.92682e-06)
(0.000457788 -0.000217741 -1.26048e-05)
(0.000592454 -0.000240127 -1.57728e-05)
(0.000737851 -0.000258605 -1.95938e-05)
(3.11264e-05 -4.20313e-05 -4.39054e-07)
(7.52628e-05 -7.73065e-05 -1.62591e-06)
(0.000142701 -0.0001191 -2.99452e-06)
(0.000229804 -0.000155963 -4.44833e-06)
(0.000335747 -0.000188113 -5.99291e-06)
(0.000456697 -0.000215163 -7.7203e-06)
(0.000591069 -0.000237462 -9.72963e-06)
(0.000736279 -0.000255936 -1.20945e-05)
(3.10129e-05 -4.19079e-05 -1.2527e-07)
(7.51047e-05 -7.698e-05 -5.15095e-07)
(0.000142494 -0.000118499 -9.75481e-07)
(0.000229558 -0.000155094 -1.47458e-06)
(0.000335375 -0.000187021 -2.0069e-06)
(0.000456174 -0.000213934 -2.60141e-06)
(0.000590417 -0.00023618 -3.28646e-06)
(0.000735537 -0.000254635 -4.08378e-06)
(0.000909381 0.000187762 -0.00010396)
(0.000895675 0.000201132 -8.80672e-05)
(0.000890705 0.000213185 -7.29537e-05)
(0.000889035 0.000222155 -5.85519e-05)
(0.000888681 0.000228914 -4.49584e-05)
(0.000888831 0.000233715 -3.18499e-05)
(0.000889086 0.000236796 -1.90187e-05)
(0.000889228 0.000238275 -6.32454e-06)
(0.00087302 4.78719e-05 -8.25539e-05)
(0.000859157 5.97404e-05 -7.19178e-05)
(0.000852564 7.00498e-05 -6.14993e-05)
(0.000849402 7.83864e-05 -5.05567e-05)
(0.000847852 8.47504e-05 -3.94287e-05)
(0.000847107 8.92954e-05 -2.82083e-05)
(0.00084678 9.22281e-05 -1.69416e-05)
(0.000846665 9.36948e-05 -5.64903e-06)
(0.000855601 -8.76004e-05 -6.39387e-05)
(0.000841226 -7.61163e-05 -5.83745e-05)
(0.00083292 -6.63064e-05 -5.1501e-05)
(0.000828229 -5.83761e-05 -4.34089e-05)
(0.000825533 -5.23148e-05 -3.44542e-05)
(0.000823965 -4.80123e-05 -2.49442e-05)
(0.000823099 -4.52367e-05 -1.50856e-05)
(0.000822718 -4.38265e-05 -5.04483e-06)
(0.000855368 -0.000226099 -4.86547e-05)
(0.000839343 -0.0002144 -4.69274e-05)
(0.000829566 -0.000204718 -4.30647e-05)
(0.000823742 -0.00019698 -3.74546e-05)
(0.000820111 -0.000191144 -3.04314e-05)
(0.000817826 -0.000187 -2.23939e-05)
(0.000816466 -0.000184344 -1.36801e-05)
(0.000815819 -0.000183049 -4.59575e-06)
)
;
    }
    symmetry
    {
        type            symmetryPlane;
    }
    bottom
    {
        type            calculated;
        value           uniform (0 0 0);
    }
}


// ************************************************************************* //
