/*--------------------------------*- C++ -*----------------------------------*\
| =========                 |                                                 |
| \\      /  F ield         | foam-extend: Open Source CFD                    |
|  \\    /   O peration     | Version:     3.1                                |
|   \\  /    A nd           | Web:         http://www.extend-project.de       |
|    \\/     M anipulation  |                                                 |
\*---------------------------------------------------------------------------*/
FoamFile
{
    version     2.0;
    format      ascii;
    class       volVectorField;
    location    "3.5";
    object      D;
}
// * * * * * * * * * * * * * * * * * * * * * * * * * * * * * * * * * * * * * //

dimensions      [0 1 0 0 0 0 0];

internalField   nonuniform List<vector> 
256
(
(0.000260646 0.000173685 0.000295174)
(0.000111421 3.36607e-05 8.81977e-05)
(9.88959e-05 -5.10371e-05 -0.000105963)
(0.000220791 -0.000191483 -0.000325657)
(0.00109148 0.000713252 0.000237974)
(0.000905734 0.000191184 8.31471e-05)
(0.000870488 -0.00022407 -0.000148151)
(0.00097957 -0.000743162 -0.000328539)
(0.00214374 0.00110206 0.000159658)
(0.00195706 0.000321397 3.41301e-05)
(0.00190875 -0.000365115 -0.000142121)
(0.00199418 -0.0011484 -0.000295466)
(0.00339705 0.00140268 4.76936e-05)
(0.00322803 0.000416 -1.75281e-05)
(0.00317097 -0.000485801 -0.000129439)
(0.0032202 -0.00147704 -0.00022478)
(0.00478178 0.00160658 -6.63885e-05)
(0.00462883 0.000473909 -6.94745e-05)
(0.00456569 -0.000583904 -0.000113881)
(0.00458528 -0.0017195 -0.000147862)
(0.00623305 0.00173238 -0.000171095)
(0.00609451 0.000501994 -0.000118193)
(0.00602727 -0.000662394 -0.000101624)
(0.00602356 -0.00189055 -7.7825e-05)
(0.00769931 0.00179849 -0.000258716)
(0.00757002 0.000507557 -0.000164272)
(0.00749898 -0.000723231 -9.69813e-05)
(0.00748024 -0.00200332 -2.52833e-05)
(0.00915457 0.00182354 -0.000330355)
(0.00901636 0.000500657 -0.000210128)
(0.00893623 -0.000767731 -0.000102463)
(0.00891428 -0.00207428 -9.85142e-07)
(0.000293017 0.000172285 0.000146588)
(0.000147432 3.52703e-05 4.55639e-05)
(0.00013463 -4.5908e-05 -6.1484e-05)
(0.000247583 -0.000180136 -0.000174838)
(0.00116112 0.000710122 0.000132193)
(0.000952394 0.000195168 4.02898e-05)
(0.00091932 -0.000213083 -9.76257e-05)
(0.00105303 -0.000726108 -0.000207465)
(0.0021946 0.00111683 8.30281e-05)
(0.00200812 0.00033334 7.78325e-06)
(0.00196238 -0.000360337 -0.00010346)
(0.00204975 -0.00114699 -0.000197657)
(0.00341621 0.00142327 6.35704e-06)
(0.00324948 0.000432163 -3.08572e-05)
(0.0031951 -0.000480408 -9.98658e-05)
(0.00324385 -0.00147646 -0.000157303)
(0.00476031 0.00163155 -7.68673e-05)
(0.00461244 0.000493809 -7.09878e-05)
(0.00455175 -0.000575773 -9.30012e-05)
(0.00456757 -0.00171605 -0.000107462)
(0.0061706 0.00175905 -0.000155622)
(0.0060382 0.000524492 -0.0001098)
(0.00597322 -0.000649435 -8.80001e-05)
(0.00596408 -0.00188025 -6.09943e-05)
(0.00759989 0.00182503 -0.000223121)
(0.00747812 0.000531275 -0.000146866)
(0.0074096 -0.000704555 -8.92259e-05)
(0.0073839 -0.00198409 -2.76547e-05)
(0.00902755 0.00184866 -0.000277481)
(0.00889725 0.000523981 -0.00018231)
(0.00881994 -0.000744222 -0.000100465)
(0.00879119 -0.00204662 -1.78916e-05)
(0.000307845 0.000177744 7.07458e-05)
(0.000153212 3.77915e-05 2.11413e-05)
(0.000138404 -4.62301e-05 -3.61278e-05)
(0.00025568 -0.000184016 -9.35353e-05)
(0.00119243 0.000704991 6.3181e-05)
(0.000965333 0.000196045 1.32367e-05)
(0.000929947 -0.000205431 -6.31338e-05)
(0.00107691 -0.000714184 -0.000124084)
(0.00222064 0.00111013 3.0409e-05)
(0.00202023 0.000336747 -1.01236e-05)
(0.00197206 -0.000349503 -7.28733e-05)
(0.00206861 -0.00112768 -0.000124271)
(0.00342488 0.00141675 -2.15299e-05)
(0.00324862 0.000438193 -3.87516e-05)
(0.00319164 -0.000465997 -7.50757e-05)
(0.00324488 -0.00145026 -0.000103385)
(0.00474538 0.00162805 -7.99298e-05)
(0.00459086 0.000503136 -6.90717e-05)
(0.00452738 -0.000557821 -7.44057e-05)
(0.00454443 -0.00168486 -7.42807e-05)
(0.00612976 0.00176026 -0.000136937)
(0.00599292 0.000537322 -9.91407e-05)
(0.00592511 -0.00062798 -7.47637e-05)
(0.00591466 -0.00184505 -4.6407e-05)
(0.00753443 0.00183236 -0.000187053)
(0.00741026 0.000547343 -0.000128331)
(0.00733908 -0.000680018 -7.99891e-05)
(0.00730991 -0.00194605 -2.79005e-05)
(0.00894322 0.00186315 -0.00022736)
(0.00881232 0.00054283 -0.000156132)
(0.00873182 -0.000717359 -9.40105e-05)
(0.00869654 -0.00200691 -2.84497e-05)
(0.000313145 0.000180849 3.19874e-05)
(0.000152005 3.90628e-05 8.37447e-06)
(0.000135509 -4.63486e-05 -2.11484e-05)
(0.000255937 -0.000186029 -4.90298e-05)
(0.00120302 0.000701459 2.41658e-05)
(0.000964479 0.000196538 -5.9287e-07)
(0.000926322 -0.000199624 -4.07381e-05)
(0.00107965 -0.000704557 -7.21648e-05)
(0.00222728 0.0011021 4.67013e-07)
(0.00201645 0.000338254 -1.81966e-05)
(0.00196531 -0.000338791 -5.0548e-05)
(0.00206723 -0.0011078 -7.53889e-05)
(0.00342135 0.0014072 -3.53647e-05)
(0.00323687 0.000441532 -3.94416e-05)
(0.00317687 -0.00045088 -5.52058e-05)
(0.00323335 -0.00142225 -6.52506e-05)
(0.00472767 0.00161989 -7.61093e-05)
(0.00456691 0.000509114 -6.21265e-05)
(0.00450039 -0.000538892 -5.77782e-05)
(0.00451868 -0.00165113 -4.92943e-05)
(0.0060958 0.00175579 -0.0001168)
(0.00595443 0.000546492 -8.50513e-05)
(0.00588364 -0.000605908 -6.10694e-05)
(0.00587267 -0.00180765 -3.38139e-05)
(0.0074843 0.00183325 -0.000153481)
(0.00735711 0.000559842 -0.000107732)
(0.00728295 -0.00065553 -6.81079e-05)
(0.00725158 -0.00190668 -2.49703e-05)
(0.00887989 0.00187013 -0.000183205)
(0.00874676 0.000558646 -0.000129527)
(0.00866239 -0.000691042 -8.22385e-05)
(0.00862263 -0.00196667 -3.0819e-05)
(0.000314732 0.000182253 1.28763e-05)
(0.000149654 3.97525e-05 2.29697e-06)
(0.000131964 -4.62355e-05 -1.21913e-05)
(0.000253899 -0.000186485 -2.4913e-05)
(0.00120466 0.000699055 4.72776e-06)
(0.000959117 0.000197177 -6.13862e-06)
(0.000918738 -0.000195102 -2.59515e-05)
(0.00107499 -0.000696625 -4.08525e-05)
(0.0022249 0.00109649 -1.27967e-05)
(0.00200723 0.000339705 -1.93482e-05)
(0.00195368 -0.000329891 -3.42494e-05)
(0.00205826 -0.00109169 -4.43499e-05)
(0.00341213 0.00140016 -3.7622e-05)
(0.00322181 0.000444397 -3.48582e-05)
(0.00315943 -0.000437977 -3.92674e-05)
(0.00321766 -0.00139919 -3.9751e-05)
(0.0047094 0.00161345 -6.57782e-05)
(0.00454396 0.000514006 -5.14377e-05)
(0.00447513 -0.000522573 -4.29463e-05)
(0.00449413 -0.00162287 -3.14377e-05)
(0.00606707 0.00175174 -9.42956e-05)
(0.00592211 0.000553842 -6.84176e-05)
(0.0058491 -0.000586859 -4.72178e-05)
(0.00583781 -0.00177596 -2.34574e-05)
(0.00744466 0.00183283 -0.000120518)
(0.00731485 0.000569778 -8.54755e-05)
(0.00723846 -0.000634445 -5.42933e-05)
(0.00720569 -0.00187301 -2.01554e-05)
(0.00883034 0.00187387 -0.000141878)
(0.00869511 0.000571191 -0.000101981)
(0.00860779 -0.000668378 -6.66782e-05)
(0.00856509 -0.00193201 -2.76425e-05)
(0.000315022 0.000182834 4.15759e-06)
(0.000147664 4.01469e-05 -1.33473e-07)
(0.000129169 -4.60334e-05 -6.77353e-06)
(0.000251674 -0.000186274 -1.20626e-05)
(0.00120318 0.000697507 -2.95677e-06)
(0.000953461 0.000197868 -6.87704e-06)
(0.000911504 -0.000191741 -1.58475e-05)
(0.00106898 -0.000690551 -2.21521e-05)
(0.00221977 0.0010931 -1.52893e-05)
(0.00199781 0.000341168 -1.61889e-05)
(0.00194255 -0.000323193 -2.19942e-05)
(0.00204834 -0.00107987 -2.4916e-05)
(0.00340212 0.00139592 -3.17983e-05)
(0.00320797 0.000446985 -2.68593e-05)
(0.00314392 -0.000428173 -2.61897e-05)
(0.003203 -0.00138227 -2.30215e-05)
(0.00469342 0.00160955 -5.0386e-05)
(0.00452481 0.000518077 -3.82491e-05)
(0.00445439 -0.000510098 -2.96056e-05)
(0.00447372 -0.00160195 -1.89397e-05)
(0.00604423 0.00174927 -6.93614e-05)
(0.00589675 0.000559645 -5.00152e-05)
(0.00582224 -0.000572244 -3.3495e-05)
(0.00581073 -0.00175223 -1.51618e-05)
(0.00741441 0.00183256 -8.70486e-05)
(0.00728267 0.000577366 -6.19574e-05)
(0.00720478 -0.000618231 -3.93382e-05)
(0.00717117 -0.00184748 -1.45286e-05)
(0.00879286 0.00187615 -0.000101513)
(0.00865593 0.00058059 -7.35622e-05)
(0.00856663 -0.000650903 -4.88139e-05)
(0.0085222 -0.00190543 -2.12284e-05)
(0.000314951 0.00018304 8.18671e-07)
(0.000146349 4.03669e-05 -6.67412e-07)
(0.000127353 -4.58478e-05 -3.37857e-06)
(0.000250005 -0.000185918 -5.27983e-06)
(0.00120128 0.000696584 -3.98376e-06)
(0.000949225 0.000198434 -4.97844e-06)
(0.000906269 -0.000189511 -8.5304e-06)
(0.00106419 -0.000686461 -1.07839e-05)
(0.00221514 0.00109125 -1.13727e-05)
(0.00199069 0.000342349 -1.05453e-05)
(0.00193434 -0.000318748 -1.22761e-05)
(0.00204064 -0.00107216 -1.24917e-05)
(0.00339424 0.00139366 -2.08911e-05)
(0.00319781 0.000448969 -1.68201e-05)
(0.00313271 -0.000421653 -1.50047e-05)
(0.00319214 -0.0013713 -1.18203e-05)
(0.00468179 0.00160752 -3.15363e-05)
(0.00451123 0.000521044 -2.35067e-05)
(0.00443983 -0.00050178 -1.73397e-05)
(0.00445928 -0.00158833 -1.00221e-05)
(0.00602835 0.00174805 -4.24472e-05)
(0.00587927 0.000563706 -3.04489e-05)
(0.00580385 -0.000562474 -1.99848e-05)
(0.00579218 -0.00173666 -8.44882e-06)
(0.00739383 0.00183255 -5.27003e-05)
(0.00726083 0.000582528 -3.7536e-05)
(0.00718203 -0.000607369 -2.37836e-05)
(0.00714795 -0.00183059 -8.69884e-06)
(0.00876748 0.00187754 -6.11023e-05)
(0.0086294 0.000586867 -4.44335e-05)
(0.0085389 -0.000639167 -2.96863e-05)
(0.00849352 -0.0018877 -1.31935e-05)
(0.000314852 0.000183098 2.45726e-08)
(0.000145707 4.04663e-05 -3.09072e-07)
(0.000126473 -4.5741e-05 -1.02008e-06)
(0.000249137 -0.000185685 -1.46406e-06)
(0.00120011 0.000696152 -1.66464e-06)
(0.000947015 0.000198746 -1.78765e-06)
(0.000903577 -0.000188399 -2.68939e-06)
(0.00106162 -0.000684408 -3.2052e-06)
(0.00221251 0.00109044 -4.13082e-06)
(0.00198693 0.000343001 -3.6422e-06)
(0.00193005 -0.000316535 -3.945e-06)
(0.00203653 -0.00106836 -3.77798e-06)
(0.00338998 0.00139271 -7.24831e-06)
(0.00319249 0.000450042 -5.71587e-06)
(0.00312688 -0.000418407 -4.88678e-06)
(0.00318645 -0.00136591 -3.62364e-06)
(0.0046757 0.00160669 -1.07219e-05)
(0.00450422 0.000522609 -7.92356e-06)
(0.00443235 -0.000497635 -5.70991e-06)
(0.00445183 -0.00158165 -3.12404e-06)
(0.00602018 0.00174757 -1.42882e-05)
(0.00587035 0.0005658 -1.02207e-05)
(0.0057945 -0.000557599 -6.641e-06)
(0.00578275 -0.00172898 -2.70763e-06)
(0.00738334 0.00183259 -1.76525e-05)
(0.00724975 0.000585148 -1.25717e-05)
(0.00717053 -0.000601939 -7.95351e-06)
(0.00713624 -0.00182222 -2.88954e-06)
(0.00875457 0.00187816 -2.04111e-05)
(0.00861596 0.000590024 -1.486e-05)
(0.00852491 -0.000633283 -9.95358e-06)
(0.00847912 -0.00187887 -4.46007e-06)
)
;

boundaryField
{
    interface
    {
        type            tractionDisplacement;
        gradient        nonuniform List<vector> 
192
(
(0.0246031 0.034026 0.000663616)
(0.0118082 0.033839 0.00153712)
(0.0131289 0.0445963 0.000389693)
(0.010832 0.0507782 -0.00155365)
(0.00926803 0.0552108 -0.00358765)
(0.00781782 0.0574055 -0.00551546)
(0.00701639 0.0581969 -0.00707372)
(0.00660224 0.0591648 -0.00793374)
(0.0250892 0.0361772 0.000468714)
(0.0136547 0.0337791 0.00120603)
(0.0133163 0.0432032 0.000667953)
(0.0112089 0.0491981 -0.000477962)
(0.00953503 0.0535088 -0.00178087)
(0.00814435 0.0558898 -0.00310599)
(0.00737561 0.0570352 -0.00425703)
(0.00692862 0.0587265 -0.00497722)
(0.0260911 0.0374963 0.000110132)
(0.0142544 0.0338616 0.000362157)
(0.0137537 0.042484 7.1351e-05)
(0.0114222 0.0482329 -0.000550687)
(0.009562 0.0524099 -0.00136728)
(0.00806059 0.054848 -0.00223273)
(0.00723771 0.0561766 -0.00302765)
(0.00663222 0.0583057 -0.00358003)
(0.0267234 0.038107 -6.12855e-05)
(0.0147307 0.0338468 -6.06076e-05)
(0.0142119 0.0421226 -0.000285208)
(0.0117573 0.047636 -0.000668838)
(0.00977001 0.0517105 -0.00117405)
(0.00816971 0.0541491 -0.0017301)
(0.00728358 0.0555677 -0.00226787)
(0.00658512 0.0579382 -0.00268047)
(0.0270556 0.0383535 -0.000116998)
(0.0150433 0.0337785 -0.000219869)
(0.0145393 0.0418861 -0.000410252)
(0.0120296 0.0472665 -0.000670982)
(0.00997101 0.0512682 -0.00099654)
(0.00830405 0.0536887 -0.00135942)
(0.00737061 0.0551416 -0.00172783)
(0.00659992 0.0576361 -0.00203667)
(0.0272188 0.0384328 -0.000109981)
(0.0152338 0.0336932 -0.000226053)
(0.0147522 0.0417167 -0.000374102)
(0.0122205 0.0470288 -0.000551774)
(0.0101251 0.0509866 -0.000761454)
(0.00842009 0.0533876 -0.000994591)
(0.0074581 0.0548466 -0.00123823)
(0.00664848 0.0574022 -0.00145295)
(0.0272928 0.0384474 -7.35785e-05)
(0.015339 0.0336217 -0.000156861)
(0.0148759 0.041603 -0.000250671)
(0.0123368 0.046882 -0.000356197)
(0.0102238 0.0508159 -0.000476177)
(0.00849876 0.0532025 -0.000608843)
(0.00752113 0.054659 -0.000749512)
(0.00669085 0.0572434 -0.000876769)
(0.0273202 0.0384453 -2.53922e-05)
(0.0153845 0.0335822 -5.50954e-05)
(0.0149313 0.0415455 -8.71344e-05)
(0.0123901 0.0468109 -0.000122301)
(0.0102701 0.0507346 -0.00016162)
(0.00853668 0.053114 -0.000204976)
(0.00755153 0.054568 -0.000251166)
(0.00671125 0.0571611 -0.000293341)
(-0.00188329 0.0119606 0.0131365)
(-0.00356478 -0.00386966 0.00193122)
(-0.00156488 -0.00344318 0.00318563)
(0.000585085 -0.00468831 0.00143007)
(0.00312208 -0.00459167 0.000418372)
(0.00543978 -0.00416059 -0.00056605)
(0.00731175 -0.00353192 -0.00120537)
(0.00870838 -0.00248506 -0.00200076)
(-0.00465955 0.00438909 0.00284911)
(-0.00826642 -0.00158776 0.000547359)
(-0.00576641 -0.00138744 0.000334354)
(-0.00315998 -0.00181359 -0.000234603)
(-0.000243642 -0.0018892 -0.000611844)
(0.00239247 -0.00191319 -0.000945283)
(0.00462855 -0.00195316 -0.0012066)
(0.0065061 -0.0017426 -0.00174452)
(-0.00500586 -0.00617027 -0.003707)
(-0.00874148 0.000788546 -0.000904312)
(-0.00638883 0.000740292 -0.00121488)
(-0.00378628 0.0011321 -0.000980366)
(-0.000898342 0.000900036 -0.000831035)
(0.00175802 0.000477761 -0.000648083)
(0.00406505 -9.26069e-05 -0.000490896)
(0.0059159 -0.000718773 -0.000106209)
(-0.00316006 -0.0153224 -0.0131088)
(-0.00518906 0.00239684 -0.00239901)
(-0.00375506 0.00239037 -0.00399763)
(-0.00174915 0.00368305 -0.00254889)
(0.000637276 0.00339764 -0.00174376)
(0.00291459 0.00271013 -0.000896398)
(0.00487384 0.00163671 -0.000245359)
(0.00630285 7.91935e-05 0.00048393)
(0.0204802 -0.0325183 -0.00151748)
(0.0083468 -0.0332416 -0.00330277)
(0.00818229 -0.0450536 -0.00284629)
(0.00502169 -0.0513931 -0.00117476)
(0.00279086 -0.0557184 0.000756276)
(0.000962993 -0.0575733 0.00274588)
(-0.000132016 -0.0577226 0.00451279)
(-0.000357429 -0.0569294 0.00575971)
(0.0201098 -0.035053 -0.000849022)
(0.00988905 -0.0338853 -0.00185685)
(0.00809072 -0.043867 -0.00157651)
(0.0050876 -0.0499381 -0.000497244)
(0.00273071 -0.0540268 0.000817151)
(0.000903125 -0.0559587 0.0022151)
(-0.000236316 -0.056348 0.00349053)
(-0.000422063 -0.0560173 0.00452108)
(0.020764 -0.0362634 -0.000341945)
(0.010423 -0.0341568 -0.000678944)
(0.00855687 -0.0432149 -0.000481641)
(0.00538458 -0.0489894 0.000121427)
(0.00285535 -0.052885 0.000959648)
(0.000893777 -0.0548156 0.00187918)
(-0.000361366 -0.0553139 0.00277412)
(-0.000731657 -0.0551203 0.00358136)
(0.0211368 -0.0366495 -8.65819e-05)
(0.0107993 -0.0341581 -0.000107666)
(0.00892078 -0.0428747 8.81633e-05)
(0.00565165 -0.0483971 0.000474519)
(0.00299928 -0.0521569 0.000999623)
(0.00092472 -0.054044 0.00159457)
(-0.000438898 -0.054553 0.00220435)
(-0.000919204 -0.0543709 0.00280071)
(0.0212789 -0.036661 1.79852e-05)
(0.0110234 -0.0340541 0.000116627)
(0.00914336 -0.0426288 0.000298535)
(0.00582534 -0.0480221 0.000566826)
(0.00310199 -0.051692 0.00090703)
(0.00095121 -0.0535291 0.00129479)
(-0.000490315 -0.0540125 0.0017073)
(-0.0010398 -0.0537927 0.00213529)
(0.0213081 -0.0365468 4.5986e-05)
(0.0111436 -0.0339271 0.000161973)
(0.00926723 -0.0424413 0.000307745)
(0.00592555 -0.047775 0.000492162)
(0.0031632 -0.0513926 0.000711281)
(0.000967809 -0.0531899 0.000958538)
(-0.000521238 -0.0536409 0.00122654)
(-0.00110504 -0.0533747 0.00151412)
(0.0212969 -0.036428 3.79322e-05)
(0.0112018 -0.0338235 0.000121817)
(0.00933015 -0.0423115 0.000215126)
(0.00597821 -0.0476195 0.000324853)
(0.00319578 -0.0512095 0.000449845)
(0.000976482 -0.0529812 0.000589216)
(-0.00053859 -0.0534069 0.000741552)
(-0.00113782 -0.0531041 0.000907659)
(0.0212835 -0.0363584 1.41269e-05)
(0.0112247 -0.0337668 4.41319e-05)
(0.00935615 -0.0422449 7.61399e-05)
(0.00600056 -0.0475433 0.000112706)
(0.00320966 -0.0511217 0.000153547)
(0.000980109 -0.0528809 0.00019877)
(-0.000546027 -0.0532935 0.000248413)
(-0.00115121 -0.0529712 0.000302784)
(0.0590958 0.000578667 -0.00184601)
(0.0588621 0.000388122 -0.00105855)
(0.0586249 0.000778997 -0.000801666)
(0.058358 0.00101639 -0.000528499)
(0.0580964 0.00120007 -0.000363495)
(0.0578825 0.00131213 -0.000241003)
(0.0577331 0.00137578 -0.000139948)
(0.0576547 0.00140043 -4.59269e-05)
(0.0544177 0.000654187 -0.00121405)
(0.0542614 0.000517163 -0.00087917)
(0.0540117 0.000651321 -0.000792368)
(0.053701 0.000797845 -0.000642931)
(0.0533728 0.000928775 -0.000498333)
(0.0530978 0.00102291 -0.00035381)
(0.0529062 0.00108281 -0.000211213)
(0.0528104 0.00111259 -6.99928e-05)
(0.0535884 -0.00148439 -0.000657147)
(0.0533236 -0.00129579 -0.000916676)
(0.0528862 -0.00121056 -0.000995729)
(0.0524328 -0.00112805 -0.000933811)
(0.0520168 -0.0010523 -0.000771215)
(0.0516861 -0.000989717 -0.000564125)
(0.0514615 -0.000945425 -0.000340737)
(0.0513487 -0.000921599 -0.000113584)
(0.0559934 -0.00220556 -0.000382432)
(0.0553584 -0.00187441 -0.00127572)
(0.0546138 -0.0019321 -0.0014626)
(0.0539506 -0.00194435 -0.00139325)
(0.0534084 -0.0019368 -0.00115205)
(0.0530048 -0.00191056 -0.000841897)
(0.0527393 -0.0018842 -0.000507993)
(0.0526073 -0.00186829 -0.000169412)
)
;
        traction        nonuniform List<vector> 
192
(
(21.2519 -0.662917 -2.33326)
(21.3003 -0.777752 -4.04873)
(21.1797 -1.11872 -4.84835)
(21.3888 -1.22833 -5.29367)
(21.9311 -1.05899 -5.54052)
(22.6799 -0.503118 -5.59603)
(23.3687 0.645482 -5.38706)
(22.4891 2.52838 -4.70982)
(24.0617 -0.994838 -1.6913)
(24.4554 -1.13893 -2.95253)
(25.1012 -1.53686 -3.54036)
(26.036 -1.64429 -3.85709)
(27.1161 -1.40195 -4.01209)
(28.0951 -0.673448 -4.00906)
(28.3422 0.818509 -3.80338)
(25.234 3.13948 -3.29222)
(25.8948 -1.1509 -1.21794)
(26.2535 -1.28967 -2.11737)
(27.0536 -1.70944 -2.50686)
(28.1742 -1.80638 -2.69868)
(29.3747 -1.50649 -2.77994)
(30.3218 -0.661423 -2.75831)
(30.1827 1.02385 -2.6159)
(25.94 3.5202 -2.30056)
(27.2172 -1.23007 -0.892354)
(27.5145 -1.35688 -1.55351)
(28.3354 -1.78863 -1.82713)
(29.5002 -1.8745 -1.95251)
(30.7176 -1.53442 -2.00122)
(31.5918 -0.612655 -1.98317)
(31.1872 1.18934 -1.89325)
(26.2693 3.77476 -1.69039)
(28.1734 -1.27451 -0.642818)
(28.4306 -1.38901 -1.1229)
(29.2422 -1.8257 -1.31717)
(30.4085 -1.90352 -1.40218)
(31.6164 -1.53712 -1.43445)
(32.4269 -0.565953 -1.42391)
(31.8476 1.31111 -1.36987)
(26.4826 3.95221 -1.23615)
(28.8455 -1.30041 -0.435991)
(29.0761 -1.40461 -0.764036)
(29.8741 -1.84291 -0.895573)
(31.0318 -1.91552 -0.951798)
(32.2257 -1.53257 -0.973555)
(32.9908 -0.52992 -0.968575)
(32.2991 1.39604 -0.93719)
(26.6362 4.07348 -0.850878)
(29.2751 -1.3157 -0.251511)
(29.4921 -1.41259 -0.442308)
(30.2807 -1.85088 -0.51818)
(31.4305 -1.92038 -0.550202)
(32.6136 -1.52765 -0.563042)
(33.3506 -0.505688 -0.560994)
(32.5906 1.45059 -0.543004)
(26.7447 4.14758 -0.490922)
(29.4756 -1.32199 -0.0813789)
(29.6858 -1.41465 -0.14356)
(30.4662 -1.85242 -0.16801)
(31.6094 -1.92088 -0.178236)
(32.7868 -1.52367 -0.182468)
(33.5111 -0.490764 -0.181882)
(32.7071 1.48297 -0.175302)
(26.7541 4.17945 -0.156429)
(2.6885 0.554577 9.47791)
(4.63596 0.983492 6.15685)
(5.5661 0.928724 2.98242)
(6.20055 0.722098 0.585643)
(6.74392 0.586705 -1.02443)
(7.26952 0.63598 -1.88898)
(7.89296 0.884026 -2.00368)
(9.03027 1.16053 -1.24909)
(1.73315 0.49383 8.4849)
(3.14924 0.959149 7.13909)
(3.69147 1.09331 5.29927)
(3.96581 0.948471 3.76518)
(4.18936 0.723067 2.72485)
(4.47383 0.550677 2.17346)
(4.98751 0.472005 2.03238)
(6.34404 0.340235 1.97167)
(1.33661 0.395835 7.80528)
(2.62231 0.758951 7.36314)
(3.1467 0.984623 6.24478)
(3.36865 0.906923 5.18838)
(3.51116 0.684579 4.47705)
(3.71296 0.448401 4.1234)
(4.15537 0.25246 4.06452)
(5.44095 0.0190921 4.01206)
(1.25549 0.383774 6.88431)
(2.60187 0.667084 6.74222)
(3.23859 0.912503 5.86855)
(3.51958 0.860522 4.99603)
(3.67739 0.647953 4.40106)
(3.87111 0.389032 4.08095)
(4.28142 0.112326 3.95759)
(5.45593 -0.267328 3.92358)
(-4.18968 0.402424 0.290783)
(-3.26041 0.699855 0.5355)
(-2.25699 0.908066 0.556743)
(-1.48722 0.899168 0.526044)
(-0.911877 0.767518 0.548456)
(-0.339649 0.583603 0.66503)
(0.646808 0.279745 0.889922)
(3.54235 -0.979512 1.18311)
(-4.9196 0.285169 -0.0795857)
(-4.75665 0.474494 -0.113191)
(-4.40635 0.674037 -0.180974)
(-4.02367 0.745223 -0.233111)
(-3.65192 0.731526 -0.223798)
(-3.19316 0.685647 -0.143824)
(-2.23351 0.549924 -0.0074951)
(0.849616 -0.543347 0.151983)
(-5.32742 0.238253 -0.142632)
(-5.35749 0.365797 -0.214439)
(-5.20183 0.555577 -0.251259)
(-4.94523 0.672902 -0.260877)
(-4.61448 0.735779 -0.226129)
(-4.12195 0.775929 -0.148758)
(-3.08275 0.722332 -0.0560695)
(-0.152406 -0.198861 -0.00130861)
(-5.62079 0.224608 -0.134595)
(-5.70313 0.320202 -0.20242)
(-5.62497 0.505963 -0.217165)
(-5.41755 0.654271 -0.202703)
(-5.08626 0.770558 -0.15791)
(-4.54837 0.869331 -0.0921268)
(-3.44675 0.869219 -0.0333482)
(-0.582652 0.0541099 -0.0221538)
(-5.83725 0.222065 -0.105959)
(-5.93625 0.303936 -0.15911)
(-5.89061 0.491771 -0.161663)
(-5.70035 0.662964 -0.138828)
(-5.35664 0.81543 -0.0969433)
(-4.78259 0.950971 -0.0481358)
(-3.65231 0.982798 -0.0164815)
(-0.855271 0.236408 -0.0307623)
(-5.98482 0.223332 -0.0724857)
(-6.08761 0.301156 -0.108105)
(-6.05348 0.493876 -0.105102)
(-5.86647 0.68121 -0.0835524)
(-5.50974 0.856424 -0.0513921)
(-4.91216 1.01325 -0.0195144)
(-3.77049 1.06179 -0.00546886)
(-1.03383 0.359122 -0.0283874)
(-6.07501 0.225303 -0.0410655)
(-6.17768 0.30312 -0.0606733)
(-6.14664 0.500594 -0.0570385)
(-5.95822 0.69813 -0.0425108)
(-5.59255 0.886235 -0.0229814)
(-4.98289 1.05408 -0.00562106)
(-3.8409 1.11078 -0.000643448)
(-1.14682 0.434287 -0.020115)
(-6.1163 0.226692 -0.0131201)
(-6.21773 0.305081 -0.0192362)
(-6.18729 0.505091 -0.017759)
(-5.99787 0.707446 -0.0127614)
(-5.62858 0.901403 -0.0063511)
(-5.01417 1.07431 -0.0009338)
(-3.87067 1.13333 0.000304297)
(-1.20786 0.469741 -0.00754345)
(9.77258 0.249506 -2.43992)
(9.39634 2.05137 -2.03924)
(9.47755 3.49317 -1.60531)
(9.64666 4.62097 -1.25559)
(9.81072 5.45907 -0.956999)
(9.9443 6.05086 -0.68243)
(10.0376 6.41338 -0.419203)
(10.0788 6.51527 -0.144645)
(6.84914 -1.85757 -0.830839)
(5.93515 -0.938289 -0.727412)
(5.7422 0.0627395 -0.559383)
(5.71796 0.889742 -0.440407)
(5.73549 1.50058 -0.345791)
(5.76181 1.92964 -0.252964)
(5.78878 2.20848 -0.15456)
(5.81399 2.3687 -0.0516663)
(5.65804 -3.54267 -0.122378)
(4.56478 -2.88003 -0.152597)
(4.21895 -2.14553 -0.125338)
(4.07135 -1.55638 -0.114734)
(3.9923 -1.13279 -0.106058)
(3.94568 -0.842167 -0.086354)
(3.91925 -0.658538 -0.053717)
(3.90667 -0.554251 -0.0170663)
(5.45037 -3.46788 0.309243)
(4.34885 -2.95353 0.10216)
(3.93554 -2.48581 0.0193688)
(3.72292 -2.10665 -0.0238384)
(3.58937 -1.84073 -0.0460779)
(3.50053 -1.66461 -0.048161)
(3.44423 -1.55923 -0.0344614)
(3.41342 -1.51198 -0.0121169)
)
;
        pressure        uniform 0;
        value           nonuniform List<vector> 
192
(
(0.000568185 0.000599011 0.000303469)
(0.00123908 0.00113624 0.000257188)
(0.00230785 0.00165952 0.000164529)
(0.00353245 0.00203741 2.8273e-05)
(0.00489763 0.00229672 -0.000111234)
(0.00633077 0.00244995 -0.000240038)
(0.00778701 0.00252595 -0.000347137)
(0.0092371 0.0025631 -0.000429527)
(0.000606632 0.0006245 0.000152447)
(0.0013318 0.00113236 0.000147268)
(0.00236105 0.00165687 9.13775e-05)
(0.00355632 0.00203825 3.82516e-07)
(0.0048795 0.00230041 -9.91282e-05)
(0.00627241 0.00245767 -0.000194447)
(0.00769208 0.00253797 -0.000276334)
(0.00911415 0.00258274 -0.000339696)
(0.000633984 0.000646448 7.21225e-05)
(0.00137061 0.00112826 6.7708e-05)
(0.00239256 0.00164118 3.13009e-05)
(0.00356765 0.00201966 -2.84135e-05)
(0.00486491 0.00228317 -9.70208e-05)
(0.00623052 0.00244586 -0.000164846)
(0.0076249 0.00253457 -0.000224899)
(0.00902613 0.00259197 -0.00027211)
(0.000647187 0.000657187 3.12213e-05)
(0.00138716 0.00112454 2.34082e-05)
(0.00240493 0.00162864 -3.09809e-06)
(0.00356831 0.00200265 -4.37252e-05)
(0.00484979 0.00226627 -9.07849e-05)
(0.00619792 0.00243266 -0.000138426)
(0.00757535 0.00252784 -0.000181829)
(0.0089622 0.00259436 -0.000216711)
(0.000652927 0.000661671 1.14139e-05)
(0.0013927 0.00112129 1.97939e-06)
(0.00240664 0.00162007 -1.79248e-05)
(0.0035625 0.00199099 -4.60092e-05)
(0.00483403 0.0022543 -7.82349e-05)
(0.00617087 0.00242285 -0.000111288)
(0.0075368 0.0025221 -0.000142116)
(0.00891284 0.00259432 -0.000167336)
(0.000655257 0.000663244 2.78282e-06)
(0.0013936 0.00111867 -5.78244e-06)
(0.00240417 0.00161456 -1.99655e-05)
(0.00355487 0.00198378 -3.86955e-05)
(0.00481998 0.00224688 -5.99041e-05)
(0.00614948 0.00241661 -8.17938e-05)
(0.00750764 0.00251815 -0.000102526)
(0.00887596 0.00259367 -0.000119675)
(0.000656111 0.000663633 -1.01061e-07)
(0.00139302 0.00111685 -5.94452e-06)
(0.00240108 0.00161129 -1.45061e-05)
(0.00354845 0.00197969 -2.53435e-05)
(0.00480959 0.00224272 -3.74885e-05)
(0.00613458 0.00241308 -5.00578e-05)
(0.00748784 0.00251579 -6.20692e-05)
(0.00885111 0.00259308 -7.20619e-05)
(0.000656355 0.000663664 -2.92829e-07)
(0.00139242 0.00111593 -2.35333e-06)
(0.00239915 0.00160976 -5.22e-06)
(0.00354485 0.00197785 -8.77707e-06)
(0.00480407 0.00224087 -1.27422e-05)
(0.00612689 0.00241149 -1.68504e-05)
(0.00747774 0.00251469 -2.07921e-05)
(0.00883847 0.00259267 -2.40779e-05)
(0.000237105 0.000323193 0.000459381)
(0.00104692 0.000664881 0.000262114)
(0.00212418 0.00105902 0.000199478)
(0.00340436 0.00134408 6.55694e-05)
(0.0048208 0.00154919 -6.11589e-05)
(0.00630105 0.00168037 -0.00017817)
(0.0077907 0.00175434 -0.000273783)
(0.00926343 0.00179247 -0.000355365)
(5.31765e-05 8.85244e-05 0.000123812)
(0.000802404 0.000171337 8.9989e-05)
(0.00188498 0.000304054 3.83095e-05)
(0.00318853 0.00039333 -2.04607e-05)
(0.00462579 0.000450294 -7.71226e-05)
(0.00612442 0.000478079 -0.000130009)
(0.00762787 0.000483143 -0.000179355)
(0.00909769 0.000478875 -0.000231934)
(3.63226e-05 -0.000128166 -0.0001523)
(0.000761219 -0.000214213 -0.000159455)
(0.00182889 -0.000355861 -0.000157307)
(0.00312365 -0.000471649 -0.000141694)
(0.00455446 -0.000572654 -0.000124268)
(0.00604924 -0.000656422 -0.000109725)
(0.0075498 -0.000724388 -0.000103118)
(0.00901018 -0.000776716 -0.00010379)
(0.00018129 -0.000383013 -0.000489517)
(0.000914707 -0.000713202 -0.000358526)
(0.00194724 -0.00111852 -0.000345436)
(0.00319833 -0.001431 -0.000256642)
(0.00459325 -0.00167703 -0.000169659)
(0.00605999 -0.00185668 -8.903e-05)
(0.00754116 -0.00198286 -2.83503e-05)
(0.00899306 -0.00207329 5.06398e-06)
(0.000476793 -0.000597962 -0.000344626)
(0.00108391 -0.00115868 -0.000369823)
(0.00209646 -0.00171157 -0.000331044)
(0.00328297 -0.00211945 -0.000239465)
(0.00462017 -0.00241598 -0.000138408)
(0.0060356 -0.00261022 -4.35016e-05)
(0.00747859 -0.00272486 3.11266e-05)
(0.00890981 -0.0027859 7.10113e-05)
(0.000498956 -0.000618298 -0.000185451)
(0.00117664 -0.00114967 -0.000230676)
(0.00215088 -0.00169533 -0.000217364)
(0.00330745 -0.00210069 -0.000163519)
(0.0046017 -0.00239138 -9.72474e-05)
(0.00597537 -0.00257974 -3.33056e-05)
(0.00738094 -0.00268844 1.59769e-05)
(0.00878591 -0.00274684 3.86219e-05)
(0.000515231 -0.000637308 -9.78096e-05)
(0.0012072 -0.00114114 -0.000132571)
(0.00217557 -0.00166787 -0.000130291)
(0.00331219 -0.00206263 -0.000101868)
(0.00458012 -0.00234592 -6.22851e-05)
(0.00592584 -0.00253024 -2.29172e-05)
(0.00730539 -0.00263748 6.77592e-06)
(0.0086874 -0.00269591 1.63173e-05)
(0.000520146 -0.000644148 -5.0112e-05)
(0.00121464 -0.00113153 -7.35106e-05)
(0.00217874 -0.00164373 -7.42868e-05)
(0.00330399 -0.00202722 -5.93191e-05)
(0.00455617 -0.00230309 -3.6799e-05)
(0.00588422 -0.0024832 -1.38818e-05)
(0.00724609 -0.00258859 2.58413e-06)
(0.00861114 -0.00264631 4.18994e-06)
(0.000519886 -0.000644748 -2.46882e-05)
(0.00121278 -0.0011223 -3.93946e-05)
(0.00217255 -0.00162456 -4.06182e-05)
(0.00329048 -0.00199946 -3.26657e-05)
(0.00453291 -0.00226902 -2.00998e-05)
(0.0058497 -0.00244508 -7.2725e-06)
(0.00719956 -0.00254816 1.18584e-06)
(0.00855209 -0.00260441 -9.51416e-07)
(0.000518025 -0.00064311 -1.14877e-05)
(0.00120828 -0.00111464 -2.01275e-05)
(0.00216418 -0.00161039 -2.10692e-05)
(0.00327707 -0.00197946 -1.68695e-05)
(0.00451326 -0.00224436 -1.00487e-05)
(0.00582283 -0.0024171 -3.18008e-06)
(0.00716466 -0.00251799 8.03177e-07)
(0.00850838 -0.00257262 -2.30193e-06)
(0.000516217 -0.000641268 -4.80568e-06)
(0.00120421 -0.00110925 -9.26123e-06)
(0.00215727 -0.00160105 -9.8026e-06)
(0.00326687 -0.00196654 -7.75966e-06)
(0.00449923 -0.00222845 -4.39902e-06)
(0.00580439 -0.00239892 -1.08362e-06)
(0.00714122 -0.00249818 5.70559e-07)
(0.0084793 -0.00255151 -1.84771e-06)
(0.000515181 -0.000640165 -1.28747e-06)
(0.00120193 -0.00110649 -2.65355e-06)
(0.00215348 -0.00159642 -2.82623e-06)
(0.00326145 -0.00196021 -2.21482e-06)
(0.00449195 -0.00222067 -1.20471e-06)
(0.005795 -0.00238999 -2.2301e-07)
(0.00712942 -0.00248839 2.15621e-07)
(0.00846473 -0.00254102 -6.7527e-07)
(0.00989327 0.00183077 -0.000353431)
(0.00976332 0.00185351 -0.000290713)
(0.00967603 0.00187289 -0.000237381)
(0.00960936 0.00188284 -0.000189811)
(0.00955655 0.00188887 -0.000146421)
(0.00951639 0.00189255 -0.000104526)
(0.00948914 0.00189474 -6.28516e-05)
(0.00947526 0.00189566 -2.09852e-05)
(0.00969658 0.000508835 -0.000225303)
(0.00957552 0.000530446 -0.000193299)
(0.00948746 0.000550971 -0.000166037)
(0.00941802 0.000568619 -0.000137564)
(0.00936227 0.000582801 -0.00010821)
(0.00931965 0.000593377 -7.79849e-05)
(0.00929072 0.000600403 -4.70736e-05)
(0.00927609 0.000603932 -1.57349e-05)
(0.00960609 -0.000786286 -0.000110677)
(0.00948648 -0.00076042 -0.000111923)
(0.00939289 -0.000732491 -0.000106457)
(0.0093178 -0.000705142 -9.39111e-05)
(0.009258 -0.000681531 -7.63183e-05)