/*--------------------------------*- C++ -*----------------------------------*\
| =========                 |                                                 |
| \\      /  F ield         | foam-extend: Open Source CFD                    |
|  \\    /   O peration     | Version:     3.1                                |
|   \\  /    A nd           | Web:         http://www.extend-project.de       |
|    \\/     M anipulation  |                                                 |
\*---------------------------------------------------------------------------*/
FoamFile
{
    version     2.0;
    format      ascii;
    class       volVectorField;
    location    "3.5";
    object      D_0;
}
// * * * * * * * * * * * * * * * * * * * * * * * * * * * * * * * * * * * * * //

dimensions      [0 1 0 0 0 0 0];

internalField   nonuniform List<vector> 
256
(
(0.00026147 0.000173838 0.000295344)
(0.000112075 3.36908e-05 8.83519e-05)
(9.94441e-05 -5.10116e-05 -0.000105792)
(0.000221239 -0.000191569 -0.000325471)
(0.00109383 0.000713931 0.000237766)
(0.00090778 0.000191485 8.33856e-05)
(0.00087239 -0.000223913 -0.000147562)
(0.000981466 -0.000743366 -0.000327479)
(0.00214729 0.00110304 0.000159255)
(0.00196031 0.000321942 3.44408e-05)
(0.00191186 -0.000364835 -0.00014115)
(0.00199731 -0.00114858 -0.000293676)
(0.00340143 0.00140387 4.72562e-05)
(0.00323217 0.000416757 -1.70437e-05)
(0.00317504 -0.000485396 -0.000128071)
(0.00322433 -0.00147713 -0.000222321)
(0.00478662 0.00160791 -6.66592e-05)
(0.00463355 0.000474827 -6.86993e-05)
(0.00457042 -0.000583396 -0.000112075)
(0.00459014 -0.00171952 -0.000144774)
(0.00623806 0.00173377 -0.000171001)
(0.00609956 0.00050301 -0.000116995)
(0.00603244 -0.000661833 -9.93193e-05)
(0.00602897 -0.00189057 -7.41253e-05)
(0.00770434 0.0017999 -0.000258074)
(0.00757526 0.000508597 -0.000162503)
(0.00750453 -0.000722706 -9.40845e-05)
(0.00748615 -0.00200346 -2.09542e-05)
(0.00915959 0.00182491 -0.000328931)
(0.00902183 0.000501611 -0.0002076)
(0.00894227 -0.000767385 -9.88559e-05)
(0.00892091 -0.00207468 4.04875e-06)
(0.000293603 0.000172409 0.000146495)
(0.000147836 3.52734e-05 4.55983e-05)
(0.000134942 -4.59432e-05 -6.13487e-05)
(0.000247862 -0.000180278 -0.000174551)
(0.00116282 0.000710677 0.000131895)
(0.000953796 0.000195364 4.03992e-05)
(0.00092056 -0.00021309 -9.7146e-05)
(0.00105422 -0.000726459 -0.00020654)
(0.0021971 0.00111762 8.25821e-05)
(0.00201035 0.000333724 7.99126e-06)
(0.00196445 -0.000360258 -0.000102633)
(0.00205177 -0.00114734 -0.000196092)
(0.00341924 0.00142419 5.8804e-06)
(0.0032523 0.000432689 -3.0481e-05)
(0.0031978 -0.000480234 -9.86691e-05)
(0.00324654 -0.00147674 -0.000155121)
(0.00476357 0.00163251 -7.72272e-05)
(0.00461561 0.000494423 -7.03507e-05)
(0.00455488 -0.00057553 -9.13936e-05)
(0.00457074 -0.00171626 -0.00010468)
(0.00617389 0.00175999 -0.00015571)
(0.00604155 0.000525132 -0.000108796)
(0.00597663 -0.000649173 -8.59277e-05)
(0.00596764 -0.00188048 -5.76149e-05)
(0.00760311 0.00182589 -0.000222788)
(0.00748158 0.00053187 -0.00014538)
(0.00741329 -0.000704352 -8.66233e-05)
(0.00738786 -0.00198444 -2.36712e-05)
(0.00903071 0.00184939 -0.000276524)
(0.00890087 0.000524445 -0.000180209)
(0.00882405 -0.000744178 -9.72794e-05)
(0.00879581 -0.0020472 -1.33154e-05)
(0.000308243 0.000177819 7.05511e-05)
(0.000153441 3.77783e-05 2.11248e-05)
(0.000138554 -4.6278e-05 -3.59968e-05)
(0.000255813 -0.000184132 -9.32072e-05)
(0.00119354 0.000705362 6.28509e-05)
(0.000966173 0.000196152 1.32807e-05)
(0.000930633 -0.000205489 -6.27223e-05)
(0.00107755 -0.000714475 -0.000123265)
(0.00222221 0.00111067 2.99656e-05)
(0.00202154 0.000336987 -9.97648e-06)
(0.00197322 -0.000349508 -7.21584e-05)
(0.00206972 -0.00112799 -0.000122905)
(0.00342666 0.00141738 -2.1999e-05)
(0.00325022 0.000438535 -3.84458e-05)
(0.00319314 -0.000465934 -7.40238e-05)
(0.00324637 -0.00145053 -0.000101469)
(0.00474716 0.00162869 -8.03205e-05)
(0.00459257 0.000503532 -6.85363e-05)
(0.00452906 -0.000557709 -7.29779e-05)
(0.00454616 -0.00168508 -7.18098e-05)
(0.00613137 0.00176085 -0.000137136)
(0.00599461 0.000537715 -9.8297e-05)
(0.00592689 -0.00062786 -7.29185e-05)
(0.00591659 -0.0018453 -4.33797e-05)
(0.00753584 0.00183282 -0.000186945)
(0.00741192 0.00054767 -0.000127097)
(0.00734098 -0.000679948 -7.76916e-05)
(0.0073121 -0.00194641 -2.43303e-05)
(0.00894444 0.00186342 -0.000226782)
(0.00881401 0.000543008 -0.000154426)
(0.00873401 -0.000717422 -9.12655e-05)
(0.00869925 -0.00200746 -2.44157e-05)
(0.000313393 0.000180877 3.17751e-05)
(0.000152108 3.9036e-05 8.34213e-06)
(0.000135542 -4.6399e-05 -2.1025e-05)
(0.000255948 -0.000186112 -4.87112e-05)
(0.00120364 0.00070166 2.38514e-05)
(0.000964856 0.000196579 -5.76983e-07)
(0.00092656 -0.000199689 -4.03852e-05)
(0.00107984 -0.000704743 -7.14537e-05)
(0.00222805 0.00110242 6.338e-08)
(0.00201699 0.000338388 -1.80871e-05)
(0.00196572 -0.000338815 -4.99389e-05)
(0.0020676 -0.00110799 -7.42227e-05)
(0.00342206 0.00140758 -3.57914e-05)
(0.00323741 0.000441742 -3.91933e-05)
(0.00317733 -0.000450848 -5.43054e-05)
(0.00323381 -0.00142241 -6.36116e-05)
(0.00472814 0.00162027 -7.64859e-05)
(0.00456732 0.000509364 -6.1686e-05)
(0.0045008 -0.000538818 -5.65522e-05)
(0.00451917 -0.00165125 -4.71692e-05)
(0.00609591 0.0017561 -0.000117045)
(0.00595464 0.000546731 -8.43626e-05)
(0.00588396 -0.000605823 -5.94888e-05)
(0.00587317 -0.0018078 -3.12016e-05)
(0.00748405 0.0018334 -0.00015351)
(0.00735712 0.000560006 -0.000106741)
(0.00728324 -0.000655481 -6.61604e-05)
(0.00725217 -0.00190692 -2.18987e-05)
(0.00887928 0.00187006 -0.000182889)
(0.00874664 0.000558651 -0.000128184)
(0.00866281 -0.000691105 -7.99594e-05)
(0.00862359 -0.00196707 -2.73972e-05)
(0.000314863 0.000182242 1.26885e-05)
(0.000149663 3.97151e-05 2.26495e-06)
(0.00013191 -4.62852e-05 -1.20842e-05)
(0.000253814 -0.000186537 -2.46376e-05)
(0.00120488 0.000699118 4.46102e-06)
(0.000959131 0.00019717 -6.13299e-06)
(0.000918626 -0.000195157 -2.56617e-05)
(0.00107483 -0.000696704 -4.02674e-05)
(0.00222502 0.00109662 -1.31327e-05)
(0.00200714 0.000339765 -1.92656e-05)
(0.00195348 -0.000329904 -3.37545e-05)
(0.00205803 -0.00109175 -4.34023e-05)
(0.00341195 0.00140033 -3.79789e-05)
(0.00322149 0.00044452 -3.46635e-05)
(0.00315904 -0.000437933 -3.85368e-05)
(0.0032173 -0.0013992 -3.84213e-05)
(0.00470878 0.00161362 -6.61058e-05)
(0.0045433 0.000514163 -5.10924e-05)
(0.00447449 -0.000522483 -4.19527e-05)
(0.0044936 -0.00162286 -2.97108e-05)
(0.00606593 0.00175184 -9.45379e-05)
(0.00592107 0.000553989 -6.78836e-05)
(0.00584819 -0.000586748 -4.59426e-05)
(0.00583712 -0.00177596 -2.13343e-05)
(0.00744301 0.00183276 -0.000120614)
(0.00731347 0.00056985 -8.47186e-05)
(0.00723736 -0.000634353 -5.27374e-05)
(0.00720494 -0.00187307 -1.76693e-05)
(0.00882818 0.00187355 -0.000141729)
(0.00869344 0.000571097 -0.000100972)
(0.00860667 -0.000668384 -6.48867e-05)
(0.00856455 -0.00193219 -2.49032e-05)
(0.000315067 0.000182792 4.01449e-06)
(0.000147607 4.01016e-05 -1.58337e-07)
(0.000129053 -4.60812e-05 -6.69066e-06)
(0.000251518 -0.0001863 -1.1852e-05)
(0.0012031 0.000697466 -3.15701e-06)
(0.000953205 0.000197829 -6.87444e-06)
(0.000911133 -0.000191782 -1.56304e-05)
(0.00106856 -0.00069054 -2.17146e-05)
(0.00221939 0.00109309 -1.55395e-05)
(0.00199725 0.000341178 -1.61294e-05)
(0.00194188 -0.000323182 -2.16269e-05)
(0.00204766 -0.00107981 -2.42137e-05)
(0.00340127 0.00139593 -3.20657e-05)
(0.00320699 0.000447051 -2.67183e-05)
(0.00314289 -0.000428099 -2.56494e-05)
(0.00320202 -0.00138215 -2.20382e-05)
(0.00469198 0.00160956 -5.06382e-05)
(0.00452332 0.000518179 -3.80006e-05)
(0.00445294 -0.000509971 -2.88731e-05)
(0.00447241 -0.00160179 -1.76632e-05)
(0.00604212 0.00174921 -6.95619e-05)
(0.00589474 0.000559739 -4.9635e-05)
(0.00582038 -0.000572085 -3.25593e-05)
(0.00580911 -0.00175206 -1.35943e-05)
(0.00741166 0.00183233 -8.71567e-05)
(0.00728019 0.000577389 -6.14251e-05)
(0.00720259 -0.000618077 -3.82054e-05)
(0.00716937 -0.00184737 -1.27001e-05)
(0.00878947 0.00187564 -0.000101459)
(0.00865303 0.000580443 -7.28616e-05)
(0.0085643 -0.000650834 -4.75251e-05)
(0.00852047 -0.00190542 -1.92298e-05)
(0.000314939 0.000182978 7.30038e-07)
(0.000146249 4.03165e-05 -6.82712e-07)
(0.000127198 -4.5894e-05 -3.32621e-06)
(0.000249803 -0.000185927 -5.14817e-06)
(0.00120101 0.000696473 -4.1072e-06)
(0.000948792 0.000198375 -4.97686e-06)
(0.000905727 -0.000189539 -8.39556e-06)
(0.00106359 -0.000686385 -1.0513e-05)
(0.00221443 0.00109114 -1.15264e-05)
(0.00198981 0.00034233 -1.05088e-05)
(0.00193336 -0.000318716 -1.20495e-05)
(0.00203965 -0.00107201 -1.20591e-05)
(0.00339295 0.00139357 -2.10562e-05)
(0.00319639 0.000449002 -1.67343e-05)
(0.00313124 -0.000421551 -1.46726e-05)
(0.00319074 -0.00137107 -1.1216e-05)
(0.00467979 0.00160743 -3.16948e-05)
(0.00450919 0.000521115 -2.33568e-05)
(0.00443783 -0.000501616 -1.68907e-05)
(0.00445744 -0.00158806 -9.23815e-06)
(0.00602558 0.00174789 -4.25784e-05)
(0.0058766 0.000563773 -3.02214e-05)
(0.00580134 -0.000562269 -1.94133e-05)
(0.00578993 -0.00173637 -7.48748e-06)
(0.00739032 0.00183222 -5.27807e-05)
(0.00725759 0.000582527 -3.72203e-05)
(0.0071791 -0.000607158 -2.30955e-05)
(0.00714542 -0.00183034 -7.58057e-06)
(0.00876325 0.00187692 -6.10907e-05)
(0.00862566 0.000586694 -4.40214e-05)
(0.00853574 -0.000639033 -2.89094e-05)
(0.00849099 -0.00188753 -1.19773e-05)
(0.000314813 0.000183025 -5.36833e-09)
(0.000145587 4.04135e-05 -3.14198e-07)
(0.000126298 -4.57862e-05 -1.00218e-06)
(0.000248912 -0.000185684 -1.4193e-06)
(0.00119975 0.000696007 -1.70628e-06)
(0.000946494 0.000198678 -1.78706e-06)
(0.00090295 -0.00018842 -2.64363e-06)
(0.00106093 -0.000684299 -3.11341e-06)
(0.00221164 0.00109029 -4.18262e-06)
(0.0019859 0.000342969 -3.62988e-06)
(0.00192893 -0.000316491 -3.86836e-06)
(0.0020354 -0.00106816 -3.63184e-06)
(0.00338846 0.00139257 -7.30409e-06)
(0.00319084 0.000450061 -5.68705e-06)
(0.00312519 -0.000418288 -4.7747e-06)
(0.00318483 -0.00136563 -3.41972e-06)
(0.00467341 0.00160655 -1.0776e-05)
(0.00450189 0.000522666 -7.87346e-06)
(0.00443007 -0.000497449 -5.55864e-06)
(0.00444972 -0.00158131 -2.8597e-06)
(0.00601708 0.00174736 -1.43338e-05)
(0.00586735 0.000565856 -1.0145e-05)
(0.00579166 -0.000557367 -6.44886e-06)
(0.00578018 -0.00172862 -2.38374e-06)
(0.00737946 0.0018322 -1.76819e-05)
(0.00724614 0.000585137 -1.24671e-05)
(0.00716723 -0.000601696 -7.72277e-06)
(0.00713334 -0.00182189 -2.5133e-06)
(0.00874992 0.00187748 -2.04108e-05)
(0.00861179 0.000589842 -1.4724e-05)
(0.00852133 -0.000633112 -9.69404e-06)
(0.00847616 -0.00187862 -4.05191e-06)
)
;

boundaryField
{
    interface
    {
        type            tractionDisplacement;
        gradient        nonuniform List<vector> 
192
(
(0.0012504 8.90088e-08 -6.27537e-06)
(0.00125106 2.32615e-07 -7.48491e-06)
(0.0012496 5.25483e-07 -7.47543e-06)
(0.00124673 8.45864e-07 -7.27339e-06)
(0.00124237 1.23213e-06 -6.95727e-06)
(0.00123606 1.75972e-06 -6.48764e-06)
(0.00122701 2.65546e-06 -5.77696e-06)
(0.00121237 4.4017e-06 -4.57372e-06)
(0.00127836 1.58951e-07 -4.18175e-06)
(0.00127813 3.40733e-07 -4.98588e-06)
(0.00127606 6.81215e-07 -4.94782e-06)
(0.00127234 1.07974e-06 -4.77587e-06)
(0.0012667 1.57845e-06 -4.5173e-06)
(0.00125852 2.26978e-06 -4.14438e-06)
(0.00124668 3.43378e-06 -3.60938e-06)
(0.00122774 5.61186e-06 -2.83028e-06)
(0.0012969 2.0556e-07 -2.92788e-06)
(0.00129628 4.22773e-07 -3.50022e-06)
(0.00129375 8.10625e-07 -3.4639e-06)
(0.00128935 1.27314e-06 -3.32432e-06)
(0.00128271 1.85533e-06 -3.11929e-06)
(0.00127309 2.65704e-06 -2.83373e-06)
(0.00125927 3.97152e-06 -2.44508e-06)
(0.00123752 6.33252e-06 -1.9299e-06)
(0.00131022 2.36666e-07 -2.12187e-06)
(0.00130939 4.82114e-07 -2.53952e-06)
(0.00130652 9.12912e-07 -2.50899e-06)
(0.00130157 1.426e-06 -2.39958e-06)
(0.00129415 2.06871e-06 -2.2415e-06)
(0.00128345 2.94405e-06 -2.02736e-06)
(0.00126819 4.35007e-06 -1.74696e-06)
(0.00124452 6.81512e-06 -1.39307e-06)
(0.00131978 2.59652e-07 -1.51365e-06)
(0.00131882 5.26652e-07 -1.81147e-06)
(0.00131569 9.91037e-07 -1.78752e-06)
(0.00131032 1.54199e-06 -1.7059e-06)
(0.0013023 2.22756e-06 -1.58946e-06)
(0.00129082 3.15197e-06 -1.43486e-06)
(0.00127453 4.6157e-06 -1.23756e-06)
(0.00124954 7.14639e-06 -9.95544e-07)
(0.00132642 2.76131e-07 -1.01788e-06)
(0.00132536 5.58719e-07 -1.21811e-06)
(0.00132204 1.04754e-06 -1.20117e-06)
(0.00131638 1.62535e-06 -1.14496e-06)
(0.00130794 2.34023e-06 -1.06545e-06)
(0.0012959 3.29691e-06 -9.61283e-07)
(0.00127891 4.79762e-06 -8.30326e-07)
(0.00125304 7.37104e-06 -6.71486e-07)
(0.00133063 2.87035e-07 -5.86262e-07)
(0.00132951 5.79709e-07 -7.01327e-07)
(0.00132607 1.08477e-06 -6.91544e-07)
(0.00132021 1.68017e-06 -6.58841e-07)
(0.00131151 2.41383e-06 -6.12817e-07)
(0.00129912 3.39091e-06 -5.5309e-07)
(0.00128169 4.9157e-06 -4.77739e-07)
(0.00125526 7.51474e-06 -3.82182e-07)
(0.00133265 2.92824e-07 -1.90632e-07)
(0.00133149 5.90077e-07 -2.27698e-07)
(0.001328 1.10224e-06 -2.24725e-07)
(0.00132205 1.70638e-06 -2.14081e-07)
(0.00131322 2.44881e-06 -1.99112e-07)
(0.00130067 3.43614e-06 -1.79825e-07)
(0.00128303 4.97701e-06 -1.55001e-07)
(0.00125626 7.58408e-06 -1.20792e-07)
(1.09308e-05 7.23725e-08 0.00114973)
(1.30776e-05 1.27851e-07 0.00114889)
(1.31548e-05 1.98457e-07 0.00114824)
(1.29808e-05 2.92527e-07 0.0011473)
(1.2715e-05 4.04896e-07 0.00114595)
(1.23458e-05 5.36693e-07 0.00114413)
(1.18492e-05 6.86119e-07 0.00114175)
(1.13079e-05 8.03277e-07 0.00113874)
(1.00547e-05 2.11513e-08 0.0010997)
(1.20342e-05 3.77271e-08 0.00109949)
(1.21003e-05 5.67502e-08 0.0010993)
(1.19489e-05 8.24212e-08 0.00109902)
(1.17254e-05 1.12105e-07 0.00109863)
(1.14243e-05 1.44074e-07 0.00109811)
(1.10382e-05 1.71046e-07 0.00109746)
(1.0708e-05 1.6209e-07 0.00109671)
(1.00418e-05 -2.70428e-08 0.00105277)
(1.20188e-05 -4.56996e-08 0.00105298)
(1.20844e-05 -6.9588e-08 0.00105321)
(1.1933e-05 -1.00411e-07 0.00105354)
(1.171e-05 -1.3707e-07 0.001054)
(1.141e-05 -1.80176e-07 0.00105463)
(1.10258e-05 -2.2871e-07 0.00105544)
(1.06983e-05 -2.6355e-07 0.00105648)
(1.09054e-05 -8.04064e-08 0.00100291)
(1.30452e-05 -1.36982e-07 0.00100376)
(1.312e-05 -2.11694e-07 0.00100444)
(1.29457e-05 -3.09713e-07 0.00100544)
(1.26804e-05 -4.27843e-07 0.00100685)
(1.23126e-05 -5.69225e-07 0.00100876)
(1.18188e-05 -7.38586e-07 0.00101129)
(1.12818e-05 -8.99354e-07 0.00101456)
(-0.000903606 -9.63547e-08 6.85177e-06)
(-0.000902881 -2.51564e-07 8.12936e-06)
(-0.000904348 -5.72774e-07 8.11249e-06)
(-0.00090722 -9.20022e-07 7.89131e-06)
(-0.000911576 -1.33875e-06 7.54482e-06)
(-0.000917854 -1.91504e-06 7.02877e-06)
(-0.00092686 -2.91625e-06 6.2435e-06)
(-0.00094155 -4.95238e-06 4.89368e-06)
(-0.000876477 -1.72336e-07 4.42126e-06)
(-0.000876696 -3.68407e-07 5.23941e-06)
(-0.000878763 -7.40343e-07 5.19106e-06)
(-0.000882477 -1.17274e-06 5.00456e-06)
(-0.000888098 -1.71422e-06 4.72407e-06)
(-0.000896245 -2.4707e-06 4.31857e-06)
(-0.000908024 -3.77243e-06 3.7342e-06)
(-0.000927051 -6.30466e-06 2.87503e-06)
(-0.000858904 -2.23527e-07 3.02815e-06)
(-0.000859518 -4.57468e-07 3.59773e-06)
(-0.000862036 -8.80012e-07 3.55226e-06)
(-0.00086643 -1.38156e-06 3.40144e-06)
(-0.000873045 -2.0136e-06 3.18024e-06)
(-0.000882602 -2.89053e-06 2.87178e-06)
(-0.000896351 -4.35875e-06 2.45083e-06)
(-0.000918167 -7.09737e-06 1.88924e-06)
(-0.00084644 -2.57774e-07 2.16159e-06)
(-0.000847264 -5.21851e-07 2.57079e-06)
(-0.000850126 -9.90306e-07 2.53274e-06)
(-0.00085506 -1.54618e-06 2.41474e-06)
(-0.000862449 -2.24345e-06 2.24466e-06)
(-0.000873069 -3.20009e-06 2.01421e-06)
(-0.000888236 -4.76849e-06 1.71208e-06)
(-0.000911949 -7.62329e-06 1.32891e-06)
(-0.000837595 -2.83051e-07 1.52365e-06)
(-0.00083856 -5.70096e-07 1.81175e-06)
(-0.000841682 -1.07445e-06 1.78199e-06)
(-0.000847026 -1.67087e-06 1.69407e-06)
(-0.000854997 -2.41412e-06 1.56902e-06)
(-0.000866396 -3.42352e-06 1.40308e-06)
(-0.00088257 -5.05455e-06 1.19126e-06)
(-0.000907581 -7.98206e-06 9.30362e-07)
(-0.000831511 -3.01135e-07 1.01526e-06)
(-0.000832571 -6.04765e-07 1.20705e-06)
(-0.000835879 -1.13523e-06 1.18601e-06)
(-0.000841519 -1.76034e-06 1.1255e-06)
(-0.000849902 -2.53489e-06 1.04024e-06)
(-0.000861845 -3.57878e-06 9.28656e-07)
(-0.000878708 -5.24964e-06 7.88457e-07)
(-0.000904589 -8.22417e-06 6.17775e-07)
(-0.000827684 -3.13066e-07 5.81157e-07)
(-0.000828802 -6.27424e-07 6.90621e-07)
(-0.00083223 -1.17521e-06 6.7841e-07)
(-0.000838059 -1.81904e-06 6.43226e-07)
(-0.000846706 -2.61357e-06 5.93914e-07)
(-0.000858993 -3.67914e-06 5.30029e-07)
(-0.000876286 -5.37574e-06 4.49542e-07)
(-0.000902707 -8.37837e-06 3.46949e-07)
(-0.000825854 -3.19376e-07 1.88378e-07)
(-0.000827006 -6.38536e-07 2.23531e-07)
(-0.000830489 -1.19398e-06 2.19753e-07)
(-0.000836409 -1.8471e-06 2.083e-07)
(-0.000845182 -2.65092e-06 1.92268e-07)
(-0.000857629 -3.72725e-06 1.71653e-07)
(-0.000875121 -5.44102e-06 1.45178e-07)
(-0.000901879 -8.45211e-06 1.08378e-07)
(1.13077e-05 -0.00113956 -9.86196e-07)
(1.18661e-05 -0.00114323 -8.3836e-07)
(1.23873e-05 -0.00114616 -6.69958e-07)
(1.27835e-05 -0.00114847 -5.21832e-07)
(1.30767e-05 -0.00115024 -3.91006e-07)
(1.32868e-05 -0.00115152 -2.72808e-07)
(1.34306e-05 -0.00115236 -1.66012e-07)
(1.35055e-05 -0.00115283 -5.78898e-08)
(1.07333e-05 -0.00109747 -3.23353e-07)
(1.10861e-05 -0.00109878 -2.9851e-07)
(1.14951e-05 -0.00109989 -2.50886e-07)
(1.18192e-05 -0.0011008 -2.02547e-07)
(1.20647e-05 -0.00110151 -1.55909e-07)
(1.22434e-05 -0.00110204 -1.10734e-07)
(1.23687e-05 -0.0011024 -6.67961e-08)
(1.24387e-05 -0.00110257 -2.25708e-08)
(1.07338e-05 -0.00105712 1.29308e-07)
(1.10872e-05 -0.00105654 1.24779e-07)
(1.1494e-05 -0.00105609 9.54584e-08)
(1.18153e-05 -0.00105577 6.74789e-08)
(1.20582e-05 -0.00105555 4.5425e-08)
(1.22347e-05 -0.00105541 2.87838e-08)
(1.23586e-05 -0.00105532 1.65634e-08)
(1.24277e-05 -0.00105528 5.73912e-09)
(1.13263e-05 -0.00101504 7.95589e-07)
(1.18919e-05 -0.00101212 6.58727e-07)
(1.24086e-05 -0.00100987 5.05786e-07)
(1.27978e-05 -0.00100817 3.78169e-07)
(1.3084e-05 -0.00100692 2.73189e-07)
(1.32882e-05 -0.00100604 1.85436e-07)
(1.34278e-05 -0.00100548 1.12584e-07)
(1.35008e-05 -0.00100515 4.00141e-08)
)
;
        traction        nonuniform List<vector> 
192
(
(26.7942 0.00190733 -0.134472)
(26.8085 0.00498462 -0.160391)
(26.7772 0.0112604 -0.160188)
(26.7157 0.0181257 -0.155858)
(26.6222 0.0264028 -0.149084)
(26.487 0.0377082 -0.139021)
(26.293 0.0569026 -0.123792)
(25.9793 0.0943222 -0.0980083)
(27.3935 0.0034061 -0.0896089)
(27.3884 0.00730142 -0.10684)
(27.3441 0.0145975 -0.106025)
(27.2645 0.0231373 -0.10234)
(27.1437 0.033824 -0.0967993)
(26.9683 0.0486382 -0.0888082)
(26.7147 0.0735809 -0.077344)
(26.3087 0.120254 -0.0606489)
(27.7907 0.00440487 -0.0627403)
(27.7773 0.00905942 -0.0750048)
(27.7233 0.0173705 -0.0742265)
(27.6289 0.0272816 -0.0712353)
(27.4865 0.039757 -0.066842)
(27.2806 0.0569365 -0.0607228)
(26.9843 0.085104 -0.0523946)
(26.5182 0.135697 -0.0413549)
(28.0762 0.00507141 -0.0454687)
(28.0584 0.010331 -0.0544183)
(27.997 0.0195624 -0.0537641)
(27.8909 0.0305572 -0.0514196)
(27.7317 0.0443295 -0.0480322)
(27.5026 0.0630869 -0.0434433)
(27.1755 0.0932158 -0.0374349)
(26.6683 0.146038 -0.0298516)
(28.2811 0.00556398 -0.0324353)
(28.2603 0.0112854 -0.0388172)
(28.1933 0.0212365 -0.038304)
(28.0783 0.0330426 -0.0365551)
(27.9065 0.0477333 -0.0340599)
(27.6604 0.0675421 -0.0307469)
(27.3113 0.0989078 -0.0265191)
(26.7759 0.153137 -0.0213331)
(28.4234 0.00591708 -0.0218117)
(28.4006 0.0119725 -0.0261023)
(28.3295 0.0224473 -0.0257394)
(28.2081 0.034829 -0.0245348)
(28.0273 0.0501478 -0.0228311)
(27.7694 0.0706481 -0.0205989)
(27.4052 0.102806 -0.0177927)
(26.8508 0.157951 -0.014389)
(28.5135 0.00615074 -0.0125628)
(28.4894 0.0124223 -0.0150284)
(28.4158 0.023245 -0.0148188)
(28.2903 0.0360036 -0.014118)
(28.1037 0.0517248 -0.0131318)
(27.8383 0.0726623 -0.0118519)
(27.4647 0.105336 -0.0102373)
(26.8984 0.16103 -0.00818961)
(28.5567 0.00627479 -0.00408497)
(28.532 0.0126445 -0.00487923)
(28.4571 0.0236193 -0.00481554)
(28.3296 0.0365652 -0.00458744)
(28.1404 0.0524745 -0.00426669)
(27.8714 0.0736316 -0.00385339)
(27.4935 0.10665 -0.00332146)
(26.9199 0.162516 -0.00258841)
(0.234232 0.00155084 24.637)
(0.280235 0.00273965 24.6191)
(0.281888 0.00425265 24.6052)
(0.278159 0.00626843 24.5849)
(0.272465 0.00867633 24.5561)
(0.264553 0.0115006 24.5171)
(0.253912 0.0147025 24.4661)
(0.242312 0.0172131 24.4015)
(0.215458 0.000453242 23.565)
(0.257875 0.000808438 23.5605)
(0.259292 0.00121608 23.5564)
(0.256048 0.00176617 23.5504)
(0.251258 0.00240225 23.542)
(0.244806 0.00308729 23.5309)
(0.236532 0.00366528 23.517)
(0.229457 0.00347336 23.5009)
(0.215181 -0.00057949 22.5593)
(0.257546 -0.000979277 22.564)
(0.258951 -0.00149117 22.5688)
(0.255708 -0.00215167 22.5758)
(0.250929 -0.00293722 22.5858)
(0.244501 -0.00386092 22.5992)
(0.236268 -0.00490093 22.6167)
(0.22925 -0.00564749 22.6389)
(0.233687 -0.00172299 21.4909)
(0.279539 -0.00293532 21.5091)
(0.281144 -0.00453631 21.5238)
(0.277407 -0.00663671 21.5451)
(0.271722 -0.00916805 21.5754)
(0.263841 -0.0121977 21.6164)
(0.253261 -0.0158268 21.6704)
(0.241752 -0.0192719 21.7405)
(-19.363 -0.00206474 0.146824)
(-19.3475 -0.00539066 0.174201)
(-19.3789 -0.0122737 0.173839)
(-19.4404 -0.0197148 0.1691)
(-19.5338 -0.0286875 0.161675)
(-19.6683 -0.0410367 0.150616)
(-19.8613 -0.0624911 0.133789)
(-20.1761 -0.106122 0.104865)
(-18.7816 -0.00369291 0.0947413)
(-18.7863 -0.00789443 0.112273)
(-18.8306 -0.0158645 0.111237)
(-18.9102 -0.0251302 0.107241)
(-19.0307 -0.0367334 0.10123)
(-19.2052 -0.0529437 0.0925409)
(-19.4577 -0.0808377 0.0800185)
(-19.8654 -0.1351 0.0616077)
(-18.4051 -0.00478987 0.064889)
(-18.4182 -0.00980289 0.0770943)
(-18.4722 -0.0188574 0.0761199)
(-18.5664 -0.0296049 0.0728881)
(-18.7081 -0.0431486 0.0681481)
(-18.9129 -0.06194 0.0615382)
(-19.2075 -0.0934018 0.0525179)
(-19.675 -0.152086 0.0404836)
(-18.138 -0.00552373 0.0463197)
(-18.1556 -0.0111825 0.0550883)
(-18.217 -0.0212208 0.054273)
(-18.3227 -0.0331325 0.0517444)
(-18.481 -0.048074 0.0480998)
(-18.7086 -0.0685733 0.0431617)
(-19.0336 -0.102182 0.0366875)
(-19.5418 -0.163356 0.0284766)
(-17.9485 -0.00606538 0.0326497)
(-17.9691 -0.0122163 0.0388231)
(-18.036 -0.023024 0.0381856)
(-18.1506 -0.0358044 0.0363015)
(-18.3214 -0.0517312 0.0336219)
(-18.5656 -0.0733611 0.0300661)
(-18.9122 -0.108312 0.0255271)
(-19.4482 -0.171044 0.0199363)
(-17.8181 -0.00645288 0.0217555)
(-17.8408 -0.0129593 0.0258653)
(-17.9117 -0.0243264 0.0254145)
(-18.0325 -0.0377215 0.0241178)
(-18.2122 -0.0543192 0.0222908)
(-18.4681 -0.0766882 0.0198998)
(-18.8294 -0.112492 0.0168955)
(-19.3841 -0.176232 0.013238)
(-17.7361 -0.00670857 0.0124534)
(-17.7601 -0.0134448 0.014799)
(-17.8335 -0.0251831 0.0145374)
(-17.9584 -0.0389794 0.0137834)
(-18.1437 -0.0560052 0.0127267)
(-18.407 -0.0788387 0.0113578)
(-18.7775 -0.115194 0.00963305)
(-19.3437 -0.179537 0.00743463)
(-17.6969 -0.00684377 0.00403667)
(-17.7216 -0.0136829 0.00478996)
(-17.7962 -0.0255853 0.00470898)
(-17.9231 -0.0395806 0.00446357)
(-18.111 -0.0568055 0.00412003)
(-18.3778 -0.0798697 0.00367828)
(-18.7526 -0.116593 0.00311095)
(-19.326 -0.181117 0.00232238)
(0.242309 -24.4191 -0.0211328)
(0.254273 -24.4977 -0.0179648)
(0.265441 -24.5605 -0.0143563)
(0.273931 -24.61 -0.0111821)
(0.280215 -24.6479 -0.00837869)
(0.284717 -24.6755 -0.00584588)
(0.287799 -24.6935 -0.0035574)
(0.289404 -24.7035 -0.0012405)
(0.229999 -23.5171 -0.006929)
(0.237559 -23.5453 -0.00639663)
(0.246324 -23.5691 -0.00537612)
(0.253268 -23.5885 -0.00434029)
(0.25853 -23.6038 -0.00334091)
(0.262358 -23.6152 -0.00237288)
(0.265043 -23.6228 -0.00143135)
(0.266544 -23.6265 -0.00048366)
(0.23001 -22.6525 0.00277088)
(0.237582 -22.6402 0.00267384)
(0.2463 -22.6305 0.00204554)
(0.253185 -22.6237 0.00144598)
(0.25839 -22.6189 0.000973392)
(0.262173 -22.6158 0.000616796)
(0.264827 -22.614 0.00035493)
(0.266308 -22.6131 0.000122981)
(0.242706 -21.7508 0.0170483)
(0.254825 -21.6882 0.0141156)
(0.265899 -21.64 0.0108383)
(0.274239 -21.6037 0.00810362)
(0.280372 -21.5769 0.00585405)
(0.284748 -21.558 0.00397363)
(0.287739 -21.5459 0.00241252)
(0.289303 -21.5389 0.000857445)
)
;
        pressure        uniform 0;
        value           nonuniform List<vector> 
192
(
(0.000569491 0.000600032 0.000303521)
(0.0012416 0.00113753 0.000256659)
(0.00231159 0.00166103 0.000163641)
(0.00353696 0.00203899 2.72362e-05)
(0.00490252 0.0022983 -0.000112158)
(0.00633575 0.00245149 -0.000240606)
(0.00779192 0.00252743 -0.00034714)
(0.00924192 0.00256451 -0.000428745)
(0.000607649 0.000625275 0.00015226)
(0.00133368 0.00113335 0.000146705)
(0.00236373 0.00165805 9.05169e-05)
(0.00355946 0.00203947 -6.39383e-07)
(0.0048828 0.00230158 -0.000100128)
(0.00627564 0.00245874 -0.000195244)
(0.00769515 0.0025389 -0.000276761)
(0.00911707 0.00258347 -0.000339567)
(0.000634714 0.00064698 7.18488e-05)
(0.00137188 0.00112891 6.71483e-05)
(0.00239429 0.00164196 3.04967e-05)
(0.00356955 0.00202048 -2.93669e-05)
(0.00486673 0.00228394 -9.79972e-05)
(0.00623209 0.00244652 -0.000165714)
(0.00762616 0.00253505 -0.000225531)
(0.00902712 0.00259216 -0.000272354)
(0.000647673 0.000657504 3.09453e-05)
(0.00138792 0.00112489 2.29045e-05)
(0.00240585 0.00162907 -3.80256e-06)
(0.00356913 0.00200311 -4.45613e-05)
(0.00485031 0.00226668 -9.16669e-05)
(0.00619801 0.00243296 -0.000139259)
(0.00757496 0.00252796 -0.000182522)
(0.00896139 0.00259413 -0.000217142)
(0.000653216 0.000661813 1.11769e-05)
(0.00139305 0.00112139 1.5649e-06)
(0.0024069 0.00162021 -1.84978e-05)
(0.00356244 0.00199115 -4.66918e-05)
(0.00483348 0.00225443 -7.89701e-05)
(0.00616971 0.00242287 -0.00011201)
(0.00753502 0.00252192 -0.000142759)
(0.00891049 0.00259376 -0.000167808)
(0.000655396 0.000663254 2.60491e-06)
(0.00139363 0.00111859 -6.08823e-06)
(0.00240392 0.00161448 -2.03864e-05)
(0.00355414 0.0019837 -3.9199e-05)
(0.00481861 0.00224678 -6.04544e-05)
(0.00614736 0.00241642 -8.23471e-05)
(0.00750477 0.00251775 -0.00010304)
(0.00887239 0.00259287 -0.000120084)
(0.000656152 0.000663554 -2.10463e-07)
(0.00139284 0.00111665 -6.13133e-06)
(0.0024005 0.00161106 -1.47628e-05)
(0.00354727 0.00197945 -2.56518e-05)
(0.00480766 0.00224247 -3.78283e-05)
(0.00613181 0.00241274 -5.04045e-05)
(0.00748423 0.00251525 -6.23987e-05)
(0.00884671 0.00259213 -7.23354e-05)
(0.000656346 0.000663541 -3.29699e-07)
(0.00139214 0.00111566 -2.41614e-06)
(0.0023984 0.00160946 -5.30634e-06)
(0.00354345 0.00197754 -8.88093e-06)
(0.00480186 0.00224054 -1.2857e-05)
(0.00612379 0.00241109 -1.69685e-05)
(0.00747374 0.00251408 -2.09054e-05)
(0.00883363 0.00259163 -2.41738e-05)
(0.000238073 0.000323358 0.000459792)
(0.00104965 0.000665379 0.00026194)
(0.00212831 0.00105995 0.000199151)
(0.00340944 0.00134533 6.52074e-05)
(0.00482639 0.0015507 -6.13222e-05)
(0.00630679 0.00168206 -0.000177924)
(0.00779641 0.00175614 -0.000272927)
(0.00926905 0.00179437 -0.000353687)
(5.39429e-05 8.87016e-05 0.00012409)
(0.000804765 0.000171644 9.02911e-05)
(0.00188874 0.000304649 3.86967e-05)
(0.00319333 0.000394187 -1.9885e-05)
(0.00463124 0.000451383 -7.62257e-05)
(0.00613023 0.000479344 -0.000128648)
(0.00763386 0.000484519 -0.000177369)
(0.00910381 0.000480275 -0.000229143)
(3.69841e-05 -0.000127889 -0.000151994)
(0.000763444 -0.000213856 -0.000158791)
(0.00183254 -0.000355401 -0.000156228)
(0.0031284 -0.000471068 -0.00014019)
(0.00455999 -0.000571952 -0.000122296)
(0.00605527 -0.000655629 -0.00010722)
(0.00755619 -0.00072357 -9.9978e-05)
(0.009017 -0.000776015 -9.98921e-05)
(0.000181892 -0.000382695 -0.000489294)
(0.000917036 -0.000712988 -0.000357384)
(0.00195106 -0.00111836 -0.000343536)
(0.00320334 -0.00143081 -0.000254039)
(0.00459912 -0.0016768 -0.000166407)
(0.0060665 -0.00185646 -8.51513e-05)
(0.00754822 -0.00198274 -2.38356e-05)
(0.00900082 -0.00207342 1.03245e-05)
(0.000477384 -0.00059873 -0.000344298)
(0.00108582 -0.00115954 -0.000368363)
(0.00209961 -0.00171233 -0.000328623)
(0.00328714 -0.00212002 -0.000236187)
(0.00462511 -0.00241639 -0.000134357)
(0.00604115 -0.0026106 -3.87342e-05)
(0.00748474 -0.00272542 3.65874e-05)
(0.00891672 -0.00278694 7.72239e-05)
(0.000499396 -0.000618892 -0.000185063)
(0.00117785 -0.00115045 -0.000229445)
(0.00215292 -0.00169607 -0.000215301)
(0.00331017 -0.00210129 -0.000160682)
(0.00460496 -0.00239188 -9.36832e-05)
(0.00597908 -0.00258025 -2.90454e-05)
(0.00738515 -0.00268918 2.09175e-05)
(0.00879083 -0.00274803 4.42414e-05)
(0.000515462 -0.000637677 -9.73978e-05)
(0.00120786 -0.00114168 -0.0001315)
(0.0021767 -0.00166841 -0.000128516)
(0.00331372 -0.00206309 -9.94002e-05)
(0.00458195 -0.00234632 -5.91438e-05)
(0.00592792 -0.0025307 -1.91194e-05)
(0.00730783 -0.00263816 1.12079e-05)
(0.00869041 -0.00269702 2.13085e-05)
(0.000520194 -0.000644311 -4.97247e-05)
(0.00121485 -0.00113182 -7.25932e-05)
(0.00217914 -0.00164402 -7.27836e-05)
(0.00330452 -0.00202745 -5.72202e-05)
(0.00455678 -0.00230329 -3.41058e-05)
(0.00588491 -0.00248347 -1.06056e-05)
(0.00724697 -0.00258907 6.41054e-06)
(0.00861242 -0.00264719 8.45697e-06)
(0.000519784 -0.00064474 -2.4358e-05)
(0.00121263 -0.00112236 -3.86463e-05)
(0.00217235 -0.00162459 -3.94032e-05)
(0.0032902 -0.00199945 -3.09679e-05)
(0.00453252 -0.00226899 -1.79135e-05)
(0.00584923 -0.00244511 -4.60731e-06)
(0.00719913 -0.00254839 4.29231e-06)
(0.00855191 -0.00260501 2.48847e-06)
(0.00051781 -0.000642971 -1.12371e-05)
(0.00120786 -0.00111453 -1.95712e-05)
(0.00216354 -0.00161021 -2.01719e-05)
(0.00327618 -0.00197922 -1.56167e-05)
(0.00451211 -0.00224411 -8.43383e-06)
(0.00582145 -0.0024169 -1.21062e-06)
(0.00716319 -0.00251797 3.09451e-06)
(0.00850704 -0.00257294 2.20284e-07)
(0.000515928 -0.000641042 -4.6495e-06)
(0.00120362 -0.00110902 -8.91803e-06)
(0.00215633 -0.00160073 -9.2514e-06)
(0.00326558 -0.00196615 -6.99083e-06)
(0.00449756 -0.00222803 -3.408e-06)
(0.0058024 -0.00239855 1.24409e-07)
(0.00713904 -0.00249797 1.97386e-06)
(0.00847716 -0.00255163 -3.08811e-07)
(0.000514854 -0.000639894 -1.23446e-06)
(0.00120124 -0.00110619 -2.53751e-06)
(0.0021524 -0.00159602 -2.64027e-06)
(0.00325995 -0.00195973 -1.95561e-06)