/*--------------------------------*- C++ -*----------------------------------*\
| =========                 |                                                 |
| \\      /  F ield         | foam-extend: Open Source CFD                    |
|  \\    /   O peration     | Version:     3.1                                |
|   \\  /    A nd           | Web:         http://www.extend-project.de       |
|    \\/     M anipulation  |                                                 |
\*---------------------------------------------------------------------------*/
FoamFile
{
    version     2.0;
    format      ascii;
    class       volScalarField;
    location    "3.5";
    object      sigmaCauchyEq;
}
// * * * * * * * * * * * * * * * * * * * * * * * * * * * * * * * * * * * * * //

dimensions      [1 -1 -2 0 0 0 0];

internalField   nonuniform List<scalar> 
256
(
261.454
108.724
102.421
209.184
182.883
136.711
124.394
158.627
167.615
130.299
118.395
138.487
132.572
116.551
106.499
105.505
102.188
99.536
91.351
76.4542
76.7167
80.6761
74.1254
51.8112
59.9509
62.2325
55.1619
33.1004
56.5678
48.7584
30.7992
19.4046
257.87
122.226
112.667
201.291
192.796
141.45
128.991
165.663
165.976
121.741
110.207
136.606
129.811
103.667
93.4808
101.821
97.9872
85.1651
76.8248
71.0048
72.7139
67.2598
60.6789
45.9707
56.6816
51.1581
44.5907
27.9156
54.3829
42.2873
25.5731
16.4074
260.635
126.092
114.174
198.872
191.947
142.802
128.85
162.069
166.285
121.25
108.184
133.788
130.002
101.032
89.3298
98.892
98.1007
81.6788
71.9503
68.1251
72.633
63.7184
56.0961
43.319
56.2667
48.3793
41.254
25.6847
53.2244
41.607
24.4839
13.6006
262.253
126.918
113.457
197.262
191.299
143.618
128.247
159.29
166.461
122.084
107.539
131.311
130.642
101.462
88.3389
96.643
98.9562
81.7806
70.7998
66.0675
73.495
63.6424
55.0696
41.4833
56.9703
48.4456
40.7116
24.1434
53.6641
42.6465
24.8889
12.1164
262.841
126.703
112.242
195.826
191.172
143.944
127.486
157.468
166.817
122.902
107.241
129.553
131.44
102.431
88.2664
95.0615
100.005
82.7231
70.8491
64.6662
74.6014
64.469
55.218
40.2548
58.001
49.23
41.0215
23.1568
54.5838
43.848
25.5697
11.4756
262.899
126.245
111.132
194.612
191.207
143.989
126.749
156.23
167.185
123.451
107
128.358
132.13
103.241
88.3609
93.9997
100.882
83.6102
71.1409
63.7438
75.5304
65.2975
55.6011
39.4692
58.8947
49.981
41.446
22.5598
55.4904
44.7916
26.0898
11.1599
262.787
125.853
110.342
193.741
191.262
143.932
126.184
155.435
167.46
123.756
106.797
127.605
132.609
103.759
88.429
93.3402
101.475
84.2093
71.3753
63.1797
76.1557
65.8706
55.9051
39.0028
59.5068
50.4944
41.7524
22.224
56.1426
45.4037
26.3986
10.9719
262.691
125.64
109.937
193.289
191.292
143.879
125.88
155.041
167.602
123.886
106.678
127.237
132.848
104.002
88.4549
93.0222
101.767
84.4997
71.4919
62.9104
76.461
66.1516
56.0587
38.7843
59.8058
50.7452
41.9016
22.0714
56.4666
45.6991
26.5356
10.8736
)
;

boundaryField
{
    interface
    {
        type            calculated;
        value           nonuniform List<scalar> 
192
(
415.378
211.389
205.069
152.954
113.034
80.8613
63.7938
55.8303
406.002
228.36
206.751
156.714
115.925
84.7128
68.127
59.9094
410.91
223.994
205.791
156.372
115.635
84.0847
66.9476
56.3591
414.529
221.334
204.977
156.403
116.176
84.7988
67.7029
56.2817
416.233
220.198
204.731
156.731
116.941
85.7533
68.7557
56.8427
416.818
219.746
204.799
157.165
117.659
86.6124
69.7069
57.6358
416.914
219.564
204.934
157.518
118.171
87.2048
70.3581
58.2375
416.881
219.493
205.016
157.702
118.424
87.4928
70.6674
58.5255
285.199
169.428
171.734
136.25
107.548
82.0731
64.5637
60.6578
98.7279
130.96
137.952
126.73
110.685
90.9485
70.7453
55.5654
97.6338
116.975
125.033
115.919
101.835
83.7214
62.7883
34.9884
251.848
143.49
143.294
109.082
82.0658
57.6197
38.48
23.3746
343.183
183.16
171.479
122.412
82.7554
48.7591
25.7194
16.0026
328.586
197.033
171.022
123.153
82.412
49.0882
26.8335
17.2028
329.637
191.163
167.611
120.334
79.8522
46.7592
24.4883
12.8605
330.337
187.263
164.506
117.562
77.2886
44.1988
21.6028
9.95999
329.879
185.057
162.407
115.529
75.3385
42.1323
19.1085
8.0089
328.937
183.728
161.054
114.178
74.0005
40.683
17.2871
6.77793
328.058
182.928
160.23
113.355
73.1735
39.7826
16.1309
6.00425
327.553
182.545
159.835
112.964
72.7789
39.354
15.5767
5.61983
61.2223
58.7175
57.8805
58.166
59.0838
60.0064
60.6883
61.0145
47.6106
43.0078
43.6945
45.4511
47.0454
48.2123
48.9546
49.3158
13.0372
11.6389
12.6093
14.3799
15.7671
16.5828
16.9982
17.1684
19.1873
16.0334
12.1564
10.0676
9.33209
8.96417
8.69656
8.53244
)
;
    }
    symmetry
    {
        type            symmetryPlane;
    }
    bottom
    {
        type            calculated;
        value           nonuniform List<scalar> 
32
(
237.381
205.49
202.355
203.179
203.88
204.155
204.2
204.18
74.1104
80.352
81.0035
80.0788
78.98
78.0937
77.5073
77.2192
75.593
76.1401
73.9315
71.2839
69.1823
67.7195
66.8134
66.382
204.028
166.998
156.588
152.976
151.194
150.05
149.301
148.923
)
;
    }
}


// ************************************************************************* //
