/*--------------------------------*- C++ -*----------------------------------*\
| =========                 |                                                 |
| \\      /  F ield         | foam-extend: Open Source CFD                    |
|  \\    /   O peration     | Version:     3.1                                |
|   \\  /    A nd           | Web:         http://www.extend-project.de       |
|    \\/     M anipulation  |                                                 |
\*---------------------------------------------------------------------------*/
FoamFile
{
    version     2.0;
    format      ascii;
    class       volScalarField;
    location    "3.5";
    object      sigmaEq;
}
// * * * * * * * * * * * * * * * * * * * * * * * * * * * * * * * * * * * * * //

dimensions      [1 -1 -2 0 0 0 0];

internalField   nonuniform List<scalar> 
256
(
240.599
107.011
104.956
230.361
180.348
136.063
125.73
161.774
164.015
129.956
119.591
142.351
131.022
116.566
107.336
107.387
101.596
99.7538
91.9202
77.4023
76.7248
81.0072
74.4787
52.1797
60.1636
62.5889
55.3647
33.2028
57.003
49.2049
30.8379
19.3832
237.506
120.1
115.192
220.603
188.36
139.901
131.072
170.681
162.145
121.043
111.477
140.543
127.936
103.338
94.3343
103.831
97.2209
85.1081
77.3463
71.9526
72.5735
67.3605
60.9756
46.3349
56.7744
51.3422
44.7442
28.0162
54.697
42.5988
25.6103
16.4122
239.715
123.785
116.751
218.239
187.844
141.219
130.927
166.825
162.6
120.56
109.415
137.613
128.218
100.715
90.1311
100.841
97.3916
81.6195
72.4307
69.0285
72.5219
63.8056
56.3667
43.6588
56.3751
48.5453
41.3977
25.7768
53.5721
41.9105
24.528
13.6034
241.036
124.565
116.019
216.573
187.52
142.088
130.267
163.738
162.962
121.454
108.721
134.94
128.97
101.19
89.1046
98.4821
98.3009
81.7486
71.2604
66.9135
73.404
63.7424
55.3332
41.7971
57.0795
48.6168
40.8584
24.2269
54.01
42.9612
24.9422
12.1207
241.528
124.347
114.764
214.964
187.612
142.459
129.45
161.696
163.469
122.319
108.383
133.015
129.863
102.193
89.0072
96.8025
99.3994
82.7126
71.298
65.4617
74.5333
64.581
55.4798
40.5465
58.1173
49.4092
41.1728
23.2337
54.9375
44.1779
25.6298
11.48
241.581
123.896
113.612
213.556
187.778
142.534
128.668
160.318
163.933
122.897
108.112
131.703
130.616
103.024
89.0837
95.6697
100.311
83.6134
71.5816
64.502
75.4804
65.4181
55.8617
39.7447
59.0187
50.1671
41.6004
22.6319
55.8515
45.1335
26.1543
11.1642
241.491
123.511
112.789
212.532
187.904
142.493
128.071
159.44
164.263
123.217
107.889
130.878
131.132
103.553
89.1399
94.9658
100.926
84.2202
71.8104
63.9141
76.1182
65.9966
56.1647
39.2678
59.6371
50.6852
41.9086
22.293
56.51
45.7536
26.4656
10.976
241.413
123.302
112.368
211.998
187.966
142.447
127.752
159.007
164.429
123.354
107.76
130.477
131.388
103.801
89.1598
94.6266
101.228
84.5141
71.9241
63.6333
76.4296
66.2802
56.3176
39.0443
59.9396
50.9384
42.0584
22.1388
56.8373
46.0529
26.6037
10.8775
)
;

boundaryField
{
    interface
    {
        type            calculated;
        value           nonuniform List<scalar> 
192
(
389.248
204.454
198.797
149.732
111.611
80.4444
63.7542
55.8946
381.891
220.525
200.571
153.52
114.567
84.3388
68.1211
59.9847
386.939
216.832
199.945
153.356
114.362
83.7466
66.9605
56.4579
390.616
214.712
199.484
153.582
115
84.5025
67.7265
56.3753
392.417
213.912
199.49
154.058
115.842
85.492
68.7899
56.9312
393.113
213.658
199.716
154.589
116.612
86.3778
69.7519
57.7225
393.299
213.584
199.938
154.998
117.156
86.988
70.4118
58.3246
393.315
213.561
200.059
155.207
117.424
87.2846
70.7255
58.6127
271.632
167.956
168.97
135.196
107.269
82.3003
64.9602
61.2362
97.6056
130.892
137.932
127.046
111.158
91.4931
71.2626
56.0839
99.5908
117.89
126.156
116.757
102.459
84.1413
63.0502
35.0614
265.728
145.717
146.549
110.739
82.9483
57.9767
38.5801
23.3434
368.437
190.164
177.591
125.47
84.1302
49.226
25.8366
16.0151
351.121
205.31
177.21
126.336
83.8381
49.6016
26.989
17.2474
351.673
198.838
173.511
123.382
81.2075
47.2375
24.6245
12.8905
352.06
194.418
170.055
120.425
78.5488
44.629
21.7128
9.98013
351.314
191.87
167.686
118.234
76.5157
42.5204
19.197
8.02302
350.126
190.329
166.152
116.771
75.117
41.0403
17.3605
6.78861
349.069
189.407
165.22
115.88
74.2517
40.1205
16.1949
6.01298
348.471
188.966
164.775
115.457
73.8389
39.6825
15.6363
5.62767
61.8642
59.2639
58.4337
58.7203
59.6486
60.5828
61.2741
61.606
48.0544
43.364
44.0534
45.8313
47.4469
48.6298
49.3824
49.7483
13.0547
11.658
12.6335
14.41
15.8021
16.6215
17.0393
17.2106
19.1474
16.0142
12.1415
10.0605
9.32957
8.96376
8.69723
8.53364
)
;
    }
    symmetry
    {
        type            symmetryPlane;
    }
    bottom
    {
        type            calculated;
        value           nonuniform List<scalar> 
32
(
220.644
191.332
188.067
188.617
189.169
189.383
189.41
189.388
73.0363
79.1279
79.6862
78.7367
77.6357
76.7532
76.1707
75.8848
77.2288
77.6162
75.3769
72.683
70.538
69.0413
68.1126
67.6699
221.234
180.323
169.399
165.644
163.749
162.495
161.659
161.233
)
;
    }
}


// ************************************************************************* //
