/*--------------------------------*- C++ -*----------------------------------*\
| =========                 |                                                 |
| \\      /  F ield         | foam-extend: Open Source CFD                    |
|  \\    /   O peration     | Version:     3.1                                |
|   \\  /    A nd           | Web:         http://www.extend-project.de       |
|    \\/     M anipulation  |                                                 |
\*---------------------------------------------------------------------------*/
FoamFile
{
    version     2.0;
    format      ascii;
    class       volSymmTensorField;
    location    "3.5";
    object      sigmaCauchy;
}
// * * * * * * * * * * * * * * * * * * * * * * * * * * * * * * * * * * * * * //

dimensions      [1 -1 -2 0 0 0 0];

internalField   nonuniform List<symmTensor> 
256
(
(174.7 70.8436 -1.08693 408.946 35.1231 199.934)
(25.3672 53.4227 -7.68922 80.5504 10.9602 32.0478)
(-53.2978 46.374 -8.74952 -109.734 -15.2813 -54.6951)
(-200.718 43.0982 -4.79896 -395.102 -33.5221 -217.868)
(-70.8212 31.9476 -3.21235 122.032 -10.9224 -20.2338)
(-26.7116 68.962 -12.7821 42.4308 -5.0464 -8.59345)
(3.03539 63.2715 -13.2168 -53.6376 1.99045 -2.51215)
(41.8221 18.8833 -4.62358 -126.321 6.92981 9.52624)
(-23.5746 39.0054 -1.36043 148.062 -6.35227 26.0584)
(-26.7239 67.3386 -8.72365 37.0067 -2.64101 -3.74415)
(-1.3759 62.457 -9.07348 -49.5739 0.00942626 -7.43294)
(-4.30278 24.8773 -2.74233 -146.999 2.93346 -30.9053)
(-34.6374 34.3578 -1.58236 99.2099 -8.58359 13.0737)
(-27.4659 61.6799 -7.26631 23.9058 -2.89362 -4.63505)
(-0.749937 57.7265 -7.31095 -36.5716 1.06789 -3.86514)
(6.74832 22.7145 -2.59648 -99.1421 5.94249 -13.8276)
(-31.9818 29.5973 -1.27679 68.7354 -7.71082 13.5586)
(-26.163 53.3726 -5.87433 14.4015 -2.33292 -3.13381)
(-2.62706 50.5362 -5.816 -27.0387 1.21067 -3.41191)
(3.79621 21.0547 -2.17859 -68.8187 6.01029 -11.582)
(-33.3952 22.9117 -1.35308 40.7175 -6.59827 11.0775)
(-26.2614 43.1299 -5.14211 6.01308 -1.91168 -2.60362)
(-4.26027 41.5931 -4.93985 -18.5765 1.21668 -2.85954)
(3.86058 17.9918 -2.09441 -40.6905 5.72646 -7.77778)
(-33.7223 15.532 -1.87998 23.906 -5.40526 11.8658)
(-28.1361 31.9434 -4.97375 -0.130567 -1.82587 -2.33091)
(-6.32117 31.1723 -4.54636 -12.0576 0.884101 -2.97148)
(3.95159 13.6708 -2.28149 -20.5564 4.64135 -6.24212)
(-45.6042 10.1397 -2.40274 8.47797 -3.04162 6.98578)
(-42.7423 19.3579 -4.70104 -8.24226 -1.18001 -8.46192)
(-2.96665 17.1154 -4.41564 -2.12192 0.126804 0.727292)
(9.74039 6.65901 -2.92884 -5.70781 1.77374 -3.40143)
(177.394 79.8027 -0.58767 405.648 21.3634 208.176)
(32.0368 64.0202 -6.22718 84.2433 6.08903 38.8574)
(-47.1421 57.1915 -7.45457 -97.6676 -10.9569 -51.4351)
(-191.722 51.2298 -4.12631 -378.634 -23.1702 -216.034)
(-39.3306 33.253 -2.22438 166.148 -4.56516 17.4763)
(-4.39734 71.4767 -11.8886 67.4802 -3.00044 12.6877)
(-16.3023 65.3792 -13.2667 -76.9755 -1.20005 -23.7908)
(8.75473 19.896 -5.56688 -168.625 -0.331846 -29.2807)
(-18.2323 34.9945 -1.06108 153.896 -9.64021 30.8072)
(-16.0057 61.9169 -9.40475 45.9816 -3.89261 3.70972)
(-7.38707 57.1522 -10.678 -54.4541 1.25696 -12.5286)
(-8.03912 21.2343 -4.13391 -149.936 5.9058 -33.694)
(-24.9095 29.5588 -0.139221 108.862 -11.6641 21.9634)
(-16.3843 53.8075 -6.71893 33.2567 -4.02092 3.05316)
(-6.81321 49.9226 -7.87633 -40.3892 2.50235 -9.05921)
(-1.27449 18.1749 -3.10224 -104.865 9.1793 -20.7164)
(-24.9643 24.2914 0.815401 74.414 -11.4799 19.5401)
(-16.8262 44.8377 -4.54621 21.7994 -3.69044 2.66641)
(-6.47551 42.1373 -5.66369 -27.7124 2.94938 -6.37846)
(-1.29318 16.1044 -2.09873 -69.9266 10.1276 -15.3665)
(-26.4103 18.1223 1.36304 46.0366 -10.0683 17.2934)
(-17.6283 35.3683 -3.09372 12.633 -3.18828 2.51347)
(-6.81244 33.9791 -4.12668 -17.6295 2.74615 -4.6899)
(-0.706794 13.5547 -1.4649 -40.6088 9.54831 -11.2749)
(-27.258 11.5443 1.38094 28.4515 -7.89748 17.6994)
(-20.7519 25.776 -2.42271 4.93151 -2.74217 1.52661)
(-7.50847 25.2551 -3.32651 -9.88594 1.91121 -3.55116)
(0.790831 10.3015 -1.22239 -18.7625 7.51305 -8.3993)
(-38.6541 8.17773 1.04586 13.3662 -4.50849 13.1054)
(-36.1159 16.1724 -2.31571 -4.22644 -1.77456 -5.49688)
(-4.86743 14.1304 -3.56177 -1.51553 0.636955 -0.49451)
(5.4718 5.19851 -2.02387 -5.95413 3.60118 -6.48788)
(183.934 83.9131 -0.54402 416.019 10.438 221.994)
(34.9386 66.7919 -4.01792 88.5483 2.38528 44.5759)
(-47.2189 59.5452 -4.86331 -97.0952 -6.85714 -54.2383)
(-197.678 53.3977 -2.7497 -385.786 -13.227 -229.201)
(-39.9473 33.792 -1.79615 167.302 -3.14679 29.5569)
(-2.5509 72.657 -8.03753 71.6649 -2.40916 19.9568)
(-17.6662 66.4844 -9.2061 -78.2584 -1.49638 -29.8714)
(6.80151 20.368 -4.30669 -170.347 -0.901701 -43.9896)
(-19.0553 34.6081 -1.28388 156.008 -7.45895 38.4717)
(-15.371 61.4478 -6.96949 49.193 -3.31091 8.60008)
(-8.34046 56.6019 -8.08195 -55.4017 0.773012 -16.5834)
(-10.1669 20.6727 -3.54706 -152.435 4.31865 -44.6501)
(-26.1367 28.7019 -0.5486 109.932 -9.48994 25.4046)
(-15.9913 51.8522 -5.11424 35.8245 -3.54799 6.49538)
(-7.86437 47.9439 -6.10779 -40.4205 2.14484 -11.3629)
(-3.65096 17.2929 -2.57178 -106.64 7.47741 -27.946)
(-27.1076 23.0683 0.214013 74.3948 -9.69385 19.3775)
(-16.5747 42.2836 -3.29277 24.0847 -3.33677 5.1306)
(-7.48007 39.6261 -4.22004 -27.1591 2.7431 -7.33354)
(-2.99711 14.9904 -1.64643 -70.4629 8.73181 -18.9449)
(-28.9182 16.81 0.752214 45.5353 -8.69022 14.795)
(-17.3761 32.7662 -1.97609 14.6696 -2.89918 4.30593)
(-7.67044 31.5349 -2.82717 -16.6205 2.67433 -4.53564)
(-2.0249 12.5524 -0.983834 -40.3628 8.48824 -12.1138)
(-29.4685 10.2349 0.897317 28.2323 -6.82662 13.9562)
(-20.4673 23.617 -1.37937 6.65362 -2.37844 2.73286)
(-8.2942 23.3829 -2.18293 -8.72963 1.95872 -2.54002)
(-0.258169 9.61532 -0.744417 -17.9826 6.84599 -7.00885)
(-41.5581 7.55653 0.596628 11.863 -3.64911 7.0649)
(-36.3307 15.1132 -1.64591 -3.19241 -1.34772 -5.3141)
(-6.19275 13.2687 -2.87889 -0.565748 0.697338 1.22733)
(5.2385 5.02386 -1.70702 -3.87798 3.22694 -1.9551)
(187.277 85.5041 -0.350643 421.909 4.27162 230.434)
(35.9102 67.3185 -2.41461 90.6888 0.47263 47.6709)
(-47.5973 59.7355 -2.92376 -96.9588 -4.21162 -56.1165)
(-200.692 53.816 -1.65348 -389.265 -7.19128 -236.746)
(-40.9892 33.9318 -1.07854 167.148 -2.62729 38.0519)
(-2.8958 73.2016 -5.02121 73.1488 -1.96383 23.8767)
(-18.0486 66.9788 -5.81277 -77.6687 -1.273 -33.1394)
(6.3761 20.5335 -2.81168 -169.812 -0.594563 -53.3989)
(-19.7514 34.7563 -0.906917 157.151 -5.38189 45.7872)
(-16.3505 61.7633 -4.69707 50.4308 -2.53207 11.5562)
(-8.74135 56.9165 -5.46046 -54.8927 0.378737 -19.2143)
(-10.7855 20.8295 -2.49744 -152.514 2.91799 -52.8147)
(-27.0068 28.6833 -0.475215 111.151 -6.85638 30.1641)
(-17.0646 51.7773 -3.61138 36.9628 -2.69585 8.61738)
(-8.46225 47.8863 -4.26582 -39.8776 1.50173 -13.0839)
(-4.31199 17.3315 -1.8543 -106.725 5.29296 -33.6555)
(-28.0164 22.902 0.0421095 75.6545 -7.16131 21.7612)
(-17.6289 41.9044 -2.37506 25.2022 -2.55856 6.55744)
(-8.19624 39.3048 -2.95348 -26.565 2.07122 -8.11131)
(-3.65801 14.9512 -1.16569 -70.4064 6.4413 -22.0573)
(-29.7786 16.5196 0.43913 46.8708 -6.58255 15.3222)
(-18.3406 32.2205 -1.43409 15.7604 -2.25321 5.21489)
(-8.4023 31.1192 -1.94545 -15.9566 2.10606 -4.43419)
(-2.67567 12.5116 -0.648619 -40.149 6.46149 -12.9539)
(-29.9311 9.84336 0.546779 29.9721 -5.31305 13.3648)
(-21.3411 23.0939 -1.0846 7.67682 -1.85461 3.24859)
(-9.11003 23.0511 -1.58304 -8.06134 1.59303 -1.69928)
(-0.946757 9.64226 -0.495943 -17.5338 5.3485 -5.91189)
(-41.9376 7.42587 0.189267 13.4126 -2.97136 5.48783)
(-37.3481 14.877 -1.62686 -2.2062 -1.06581 -5.03966)
(-7.63043 13.1036 -2.48931 -0.0685405 0.590855 2.6173)
(4.37726 5.10718 -1.41213 -3.16085 2.57351 0.906981)
(188.523 85.9935 -0.192387 424.465 1.21867 234.769)
(36.2524 67.119 -1.37423 91.8336 -0.344446 49.3509)
(-47.7806 59.3233 -1.66724 -96.564 -2.54811 -57.0781)
(-201.555 53.6612 -0.939139 -389.806 -3.77354 -240.138)
(-41.9464 33.8795 -0.560144 166.903 -2.1966 43.1359)
(-3.38584 73.286 -2.95905 73.9889 -1.54419 26.1456)
(-18.3737 67.0518 -3.46171 -76.8891 -0.960669 -35.0536)
(6.08944 20.5611 -1.69825 -169.088 -0.282665 -59.0616)
(-20.6083 34.8619 -0.530133 157.597 -3.80231 50.6096)
(-17.2062 62.0429 -2.95282 51.1838 -1.83986 13.4314)
(-9.11232 57.2385 -3.44554 -54.1526 0.155782 -20.9187)
(-10.9993 21.0165 -1.59469 -151.899 1.9474 -57.991)
(-27.9205 28.8186 -0.302269 111.841 -4.71814 33.7209)
(-17.955 52.0824 -2.3742 37.7401 -1.91354 10.068)
(-8.92347 48.2397 -2.78412 -39.219 0.967889 -14.3073)
(-4.56652 17.5666 -1.21352 -106.225 3.5469 -37.5632)
(-28.8872 23.0095 0.00885718 76.5564 -4.96504 23.9137)
(-18.4815 42.1348 -1.62114 26.0102 -1.81872 7.59287)
(-8.7085 39.5996 -1.96674 -25.9696 1.41862 -8.7298)
(-3.95623 15.1871 -0.765901 -69.9929 4.41527 -24.3691)
(-30.5702 16.5516 0.253836 47.9218 -4.65894 16.2556)
(-19.1122 32.34 -1.03712 16.5844 -1.62636 5.93199)
(-8.93391 31.3365 -1.33042 -15.4083 1.48519 -4.44277)
(-2.9998 12.7355 -0.426013 -39.7473 4.5315 -13.6964)
(-30.4622 9.7776 0.285968 31.2949 -3.86578 13.5225)
(-22.0802 23.1324 -0.902881 8.45784 -1.36305 3.71629)
(-9.73772 23.2036 -1.19418 -7.56983 1.13832 -1.18046)
(-1.30308 9.857 -0.369362 -17.0169 3.82182 -5.24392)
(-42.6724 7.45523 -0.0928912 14.3975 -2.21485 4.70859)
(-38.4056 14.9347 -1.53472 -1.58474 -0.789344 -4.90372)
(-8.72021 13.1615 -2.09592 0.314516 0.417267 3.4924)
(3.87156 5.24107 -1.16004 -2.52138 1.84992 2.75498)
(188.862 86.0551 -0.0878174 425.399 -0.0444475 236.866)
(36.3624 66.7652 -0.735284 92.4776 -0.549306 50.2522)
(-47.7977 58.8394 -0.897545 -96.0568 -1.48499 -57.4892)
(-201.486 53.3771 -0.502827 -389.137 -1.88724 -241.409)
(-42.5855 33.7568 -0.242937 166.781 -1.6741 46.0561)
(-3.77497 73.1616 -1.63345 74.5399 -1.11796 27.4241)
(-18.6126 66.9333 -1.93658 -76.1839 -0.657275 -36.1358)
(5.82794 20.5315 -0.954977 -168.452 -0.0927548 -62.3308)
(-21.2403 34.8906 -0.257348 157.874 -2.55294 53.5734)
(-17.8028 62.1729 -1.72257 51.713 -1.25044 14.5624)
(-9.40988 57.4151 -2.0246 -53.4895 0.0488293 -21.967)
(-11.1225 21.1367 -0.935844 -151.237 1.25172 -61.0762)
(-28.5803 28.9254 -0.147133 112.306 -3.06992 36.0967)
(-18.5642 52.3493 -1.44001 38.2986 -1.26816 10.9963)
(-9.24659 48.5553 -1.68671 -38.621 0.583189 -15.0964)
(-4.69988 17.7715 -0.72708 -105.641 2.24831 -40.0074)
(-29.508 23.1335 0.0239402 77.1846 -3.22906 25.5428)
(-19.0547 42.4255 -1.021 26.5943 -1.20263 8.30347)
(-9.03984 39.9456 -1.22223 -25.4421 0.894415 -9.15324)
(-4.10643 15.4218 -0.463721 -69.4914 2.8255 -25.9003)
(-31.1234 16.637 0.157106 48.6685 -3.07384 17.1979)
(-19.6305 32.576 -0.699177 17.1738 -1.08947 6.46825)
(-9.27085 31.6441 -0.864499 -14.9496 0.953053 -4.4765)
(-3.17618 12.966 -0.266437 -39.3023 2.9385 -14.2726)
(-30.8493 9.78657 0.144433 32.2173 -2.60624 14.017)
(-22.5987 23.2835 -0.690537 9.00162 -0.92916 4.10031)
(-10.1526 23.4286 -0.857372 -7.18905 0.731858 -0.881725)
(-1.50819 10.0609 -0.267581 -16.5404 2.50621 -4.93218)
(-43.1451 7.49701 -0.173638 15.2118 -1.53077 4.72269)
(-39.1748 15.0332 -1.24164 -1.14009 -0.546432 -4.73668)
(-9.46498 13.2473 -1.59249 0.597451 0.261509 3.96009)
(3.47355 5.3437 -0.866116 -2.10263 1.21825 3.66123)
(188.867 85.995 -0.0328799 425.643 -0.337368 237.802)
(36.3909 66.4717 -0.350238 92.8353 -0.430947 50.7156)
(-47.7489 58.4707 -0.431196 -95.6222 -0.771148 -57.6298)
(-201.166 53.1379 -0.240414 -388.274 -0.851762 -241.754)
(-42.9792 33.6422 -0.084879 166.714 -1.04938 47.5958)
(-4.03078 73.0025 -0.798223 74.8889 -0.678209 28.1007)
(-18.7591 66.7839 -0.959682 -75.6623 -0.380475 -36.7045)
(5.64025 20.4926 -0.473904 -167.978 -0.0110617 -64.0859)
(-21.6504 34.8803 -0.103526 158.045 -1.47936 55.2151)
(-18.1697 62.2056 -0.879237 52.0664 -0.728141 15.1925)
(-9.60908 57.4833 -1.04221 -53.0101 0.00762524 -22.5598)
(-11.1987 21.1983 -0.478917 -150.73 0.704562 -62.7741)
(-29.0053 28.9827 -0.0566975 112.593 -1.73591 37.4853)
(-18.9345 52.5073 -0.757715 38.6701 -0.724574 11.5384)
(-9.44868 48.7492 -0.889543 -38.1846 0.308238 -15.5555)
(-4.77781 17.9021 -0.377753 -105.186 1.245 -41.3996)
(-29.9106 23.2148 0.0255832 77.5631 -1.82081 26.5667)
(-19.3989 42.6274 -0.554049 26.9771 -0.685301 8.74343)
(-9.23539 40.1862 -0.659558 -25.0562 0.487559 -9.4067)
(-4.18575 15.582 -0.243516 -69.0868 1.56876 -26.807)
(-31.4853 16.6999 0.0872135 49.1106 -1.74856 17.8712)
(-19.9415 32.7551 -0.401871 17.5512 -0.626481 6.82366)
(-9.46539 31.87 -0.486826 -14.6197 0.524555 -4.50454)
(-3.26995 13.1265 -0.145723 -38.944 1.64201 -14.6514)
(-31.1207 9.80105 0.0624543 32.7546 -1.50457 14.4565)
(-22.917 23.4034 -0.433815 9.34256 -0.541093 4.37428)
(-10.3989 23.5931 -0.52059 -6.92516 0.401876 -0.723332)
(-1.61766 10.1991 -0.165019 -16.182 1.40844 -4.81101)
(-43.4709 7.52868 -0.148252 15.7036 -0.901859 4.91083)
(-39.6658 15.1085 -0.800083 -0.866377 -0.321655 -4.60038)
(-9.92137 13.3078 -0.993483 0.78863 0.140786 4.18265)
(3.21892 5.40652 -0.536512 -1.8292 0.685894 4.05685)
(188.815 85.9414 -0.00793133 425.669 -0.159048 238.148)
(36.3951 66.3138 -0.102453 92.997 -0.158695 50.9115)
(-47.7069 58.2781 -0.126889 -95.378 -0.238395 -57.6634)
(-200.936 53.008 -0.0705217 -387.736 -0.241074 -241.797)
(-43.1662 33.5764 -0.0189418 166.683 -0.357321 48.2493)
(-4.15621 72.9031 -0.23709 75.0598 -0.227419 28.3905)
(-18.8268 66.691 -0.287593 -75.3868 -0.124342 -36.9463)
(5.54451 20.4685 -0.141977 -167.725 0.00372744 -64.8462)
(-21.8498 34.8658 -0.0265833 158.128 -0.485574 55.9351)
(-18.3437 62.2044 -0.267836 52.2446 -0.239426 15.4713)
(-9.7073 57.5008 -0.319149 -52.7608 -0.000759227 -22.8256)
(-11.2358 21.2228 -0.145919 -150.461 0.227965 -63.522)
(-29.211 29.005 -0.014102 112.73 -0.562556 38.1141)
(-19.1089 52.5752 -0.23491 38.8563 -0.235935 11.7856)
(-9.54537 48.8358 -0.276201 -37.9571 0.0960357 -15.7648)
(-4.81495 17.9631 -0.116074 -104.944 0.398806 -42.0262)
(-30.1063 23.252 0.00993964 77.7393 -0.588944 27.05)
(-19.5601 42.7238 -0.174935 27.166 -0.222804 8.95158)
(-9.32597 40.3021 -0.207668 -24.8546 0.154348 -9.52373)
(-4.22085 15.6598 -0.0753706 -68.8675 0.502636 -27.2245)
(-31.6616 16.7293 0.027225 49.3125 -0.56801 18.2113)
(-20.0871 32.8441 -0.131262 17.7341 -0.204641 6.99873)
(-9.55404 31.9816 -0.157316 -14.4479 0.166781 -4.51912)
(-3.31126 13.2052 -0.0463663 -38.7494 0.527407 -14.8372)
(-31.2562 9.80743 0.0155108 32.9952 -0.492872 14.6996)
(-23.0672 23.4635 -0.148406 9.50509 -0.177935 4.51442)
(-10.5128 23.6733 -0.175126 -6.78977 0.127584 -0.655812)
(-1.66682 10.2656 -0.0560894 -15.9936 0.453444 -4.77691)
(-43.6251 7.54535 -0.0586888 15.9307 -0.300401 5.05323)
(-39.8991 15.1481 -0.27612 -0.735358 -0.106526 -4.52501)
(-10.1396 13.336 -0.337714 0.884759 0.0446203 4.26563)
(3.09009 5.43425 -0.182099 -1.69757 0.221192 4.1896)
)
;

boundaryField
{
    interface
    {
        type            calculated;
        value           nonuniform List<symmTensor> 
192
(
(-20.7008 16.0219 4.05663 438.884 44.5453 123.345)
(-21.0342 7.84317 3.64766 207.297 -13.671 23.8559)
(-20.7185 10.4933 4.52818 207.562 -8.97939 45.0919)
(-20.9592 8.91469 4.65499 149.57 -12.5401 35.8543)
(-21.588 6.94818 4.83904 105.308 -11.5658 32.7224)
(-22.4817 4.43019 4.91411 67.4384 -10.0154 28.9646)
(-23.3193 1.99251 4.77423 44.7052 -7.95631 28.83)
(-22.59 -0.581172 4.24723 32.8699 -4.49092 31.4938)
(-23.4406 17.0971 2.83401 432.895 27.2947 130.434)
(-24.1555 8.98306 2.85402 228.788 -5.37177 40.5913)
(-24.6577 10.5343 3.05452 205.362 -12.8186 43.3402)
(-25.6146 9.06196 3.08545 148.938 -16.0266 35.926)
(-26.7833 6.93143 3.13754 102.15 -15.9256 31.6671)
(-27.9034 4.31597 3.17322 64.4212 -14.0044 28.6961)
(-28.3058 1.62183 3.10275 42.4023 -10.7944 29.5254)
(-25.3591 -1.23424 2.80971 32.6121 -6.0483 34.1329)
(-25.2137 18.147 1.80453 440.784 13.4553 141.145)
(-25.9542 9.07811 2.0481 226.096 -3.55012 52.8649)
(-26.6206 10.5614 2.13486 204.906 -9.58524 50.1247)
(-27.7646 9.05189 2.09493 148.143 -12.5813 37.5904)
(-29.0544 6.85398 2.07845 100.895 -13.0145 29.2628)
(-30.1419 4.15902 2.08242 63.2522 -11.7396 23.6281)
(-30.1592 1.34684 2.05439 42.1229 -9.18749 23.0733)
(-26.0841 -1.6711 1.9433 32.1314 -4.95862 26.2851)
(-26.5053 18.6869 1.13992 445.291 5.52806 148.174)
(-27.217 9.08653 1.4742 224.268 -3.03881 62.8423)
(-27.9075 10.5745 1.551 204.838 -6.80671 58.3675)
(-29.097 9.05872 1.51867 148.582 -8.92687 42.6434)
(-30.4031 6.84425 1.4913 101.566 -9.45956 31.1896)
(-31.417 4.1091 1.48319 64.205 -8.76733 23.1259)
(-31.1692 1.23115 1.46824 43.6985 -7.09901 21.0159)
(-26.4201 -1.85272 1.41148 33.7716 -4.05311 23.2918)
(-27.4487 18.9161 0.717285 446.986 1.59507 151.879)
(-28.1352 9.07223 1.04066 223.269 -2.61878 69.0494)
(-28.818 10.5668 1.11177 204.826 -4.79489 64.2352)
(-30.0093 9.05678 1.09878 149.045 -6.09438 46.9485)
(-31.3052 6.84112 1.07994 102.365 -6.50461 33.6179)
(-32.2551 4.08373 1.07157 65.2556 -6.16267 23.9132)
(-31.8331 1.16197 1.06245 45.1333 -5.15238 20.7)
(-26.6376 -1.96594 1.02897 35.1915 -3.04 22.2063)
(-28.1168 18.994 0.437685 447.314 -0.0357027 153.666)
(-28.7825 9.05077 0.694159 222.708 -2.0359 72.61)
(-29.4527 10.5529 0.751322 204.879 -3.22574 67.9089)
(-30.6353 9.05147 0.750059 149.427 -3.95611 49.9274)
(-31.9167 6.83744 0.740579 102.983 -4.21622 35.6075)
(-32.821 4.06656 0.735103 66.0476 -4.05487 24.9744)
(-32.2869 1.11517 0.729194 46.1676 -3.47383 21.1245)
(-26.7935 -2.03541 0.706543 36.3286 -2.11149 22.2686)
(-28.5457 19.011 0.235125 447.16 -0.419301 154.445)
(-29.2 9.03184 0.396172 222.379 -1.28975 74.4662)
(-29.8612 10.5398 0.432053 204.927 -1.87402 69.9469)
(-31.0357 9.04573 0.434075 149.676 -2.23693 51.6838)
(-32.3061 6.83299 0.430275 103.365 -2.37531 36.889)
(-33.1821 4.05298 0.427361 66.5229 -2.30491 25.7865)
(-32.58 1.08215 0.422235 46.7806 -2.00712 21.6103)
(-26.9033 -2.07801 0.405033 37.0373 -1.24912 22.5933)
(-28.7465 19.01 0.0733118 446.994 -0.199244 154.728)
(-29.3946 9.01986 0.127508 222.226 -0.441089 75.2505)
(-30.0476 10.5309 0.139317 204.961 -0.61598 70.8457)
(-31.2155 9.04139 0.140227 149.807 -0.72515 52.4888)
(-32.48 6.82938 0.139248 103.552 -0.768202 37.5076)
(-33.3435 4.04291 0.138292 66.7481 -0.748641 26.214)
(-32.6976 1.0597 0.135577 47.0714 -0.657978 21.9123)
(-26.9131 -2.09428 0.127643 37.3912 -0.417212 22.8522)
(38.428 63.0171 -2.03902 274.636 2.55743 -9.44258)
(-72.6577 31.2919 -4.40943 110.216 -1.59176 -6.12881)
(-47.678 42.3745 -5.57146 124.7 -1.5228 -2.9592)
(-48.8261 38.3107 -6.32957 86.1618 -1.18745 -0.57237)
(-44.0761 33.8036 -6.9575 58.884 -0.824887 1.01994)
(-42.6395 26.6078 -7.52893 33.9733 -0.692742 1.86652)
(-42.689 18.4856 -8.17964 17.65 -0.85652 1.96537)
(-51.7987 11.6017 -9.38153 4.72567 -1.10239 1.19449)
(-3.78807 44.7849 -1.52291 54.7429 -0.491323 -8.47934)
(-34.8859 67.4168 -2.95425 32.8792 -1.63573 -7.10939)
(-34.3223 72.1684 -3.57868 32.4176 -1.63799 -5.27234)
(-33.2834 67.8489 -3.96309 20.7757 -1.28084 -3.74567)
(-31.6135 59.8129 -4.26819 11.7393 -0.832254 -2.71708)
(-31.285 48.8364 -4.60922 3.68258 -0.502879 -2.17766)
(-32.6601 36.4348 -5.16804 -1.89088 -0.350754 -2.04831)
(-42.879 21.743 -6.58567 -5.53559 -0.227762 -2.00229)
(-24.3954 37.9626 -1.4432 -86.7788 -0.0571372 -7.79747)
(6.73298 61.6534 -2.64994 -46.1787 -1.36801 -7.33925)
(3.05961 67.085 -3.13691 -46.6517 -1.49252 -6.22295)
(1.20729 63.7337 -3.31758 -36.3794 -1.23954 -5.17392)
(-1.66155 56.8211 -3.46705 -28.3759 -0.811434 -4.47116)
(-4.24377 47.2099 -3.69879 -20.9585 -0.422062 -4.12622)
(-6.92537 35.5684 -4.18084 -14.905 -0.147145 -4.07663)
(-6.15491 19.3933 -5.48186 -6.63106 0.0706964 -4.03619)
(-63.9277 38.1803 -1.61552 -273.277 3.63831 -6.93488)
(42.2788 18.0239 -2.81073 -115.591 -1.02727 -6.7281)
(16.7808 28.0218 -3.25657 -127.791 -1.31334 -5.85639)
(16.8425 26.4751 -3.47437 -91.0157 -1.24459 -4.99094)
(11.1842 25.0606 -3.60118 -64.6337 -0.865071 -4.40249)
(7.98932 21.5783 -3.80034 -40.119 -0.45384 -4.08912)
(6.14326 16.4383 -4.23244 -22.1431 -0.0875546 -3.97331)
(10.0417 7.92806 -5.4068 -8.04533 0.303913 -3.94939)
(-4.57564 -11.9563 -1.21271 -384.912 -40.6007 -132.257)
(-3.45182 -5.7952 0.707799 -196.865 8.08898 -28.1006)
(-2.59813 -7.58586 0.633905 -189.417 4.43636 -41.2692)
(-1.79267 -5.93213 0.941596 -133.232 8.75059 -26.4077)
(-1.15058 -4.24364 1.06076 -89.7863 8.95737 -19.8145)
(-0.483687 -2.43456 1.19454 -51.9676 8.53922 -14.0319)
(0.57151 -1.22248 1.33673 -25.4834 6.86331 -11.3673)
(3.44691 -1.64994 1.39675 -11.5356 2.64906 -11.3007)
(-5.35807 -12.6362 -1.15331 -375.022 -27.9485 -138.679)
(-4.99214 -6.90803 -0.215343 -219.419 -0.487961 -47.4441)
(-4.74288 -7.61676 0.103329 -190.22 7.97082 -41.9616)
(-4.32834 -6.01588 0.381453 -135.784 12.5934 -29.7881)
(-3.88147 -4.14108 0.550787 -89.9752 13.9762 -22.5502)
(-3.32547 -2.24504 0.6418 -51.7704 13.3174 -17.4956)
(-2.28877 -0.875002 0.647059 -24.5845 10.673 -14.8218)
(0.780589 -1.21736 0.515317 -11.6174 5.29486 -14.9738)
(-5.80402 -13.3096 -0.742546 -381.08 -15.6134 -151.345)
(-5.59904 -7.0386 -0.283297 -218.688 -0.875141 -63.8022)
(-5.53529 -7.65324 -0.0247354 -191.225 5.79535 -54.1458)
(-5.24453 -6.00538 0.232661 -136.689 9.96158 -37.5587)
(-4.83528 -4.046 0.417393 -90.233 11.6692 -26.3525)
(-4.24339 -2.07992 0.515391 -51.62 11.4621 -18.18)
(-3.12425 -0.636779 0.505562 -24.0374 9.47353 -12.9245)
(-0.196252 -0.77244 0.293114 -10.0987 4.69121 -10.0239)
(-6.11115 -13.5585 -0.436724 -383.951 -8.19662 -159.027)
(-5.94462 -7.04158 -0.218077 -217.621 -0.344461 -75.5465)
(-5.95468 -7.62529 -0.0391156 -191.001 3.96531 -64.4354)
(-5.71062 -5.94343 0.15704 -136.719 6.97311 -44.8196)
(-5.29897 -3.94053 0.315669 -90.1994 8.48255 -30.2931)
(-4.66025 -1.93 0.404595 -51.4442 8.59928 -19.1934)
(-3.47647 -0.432261 0.393048 -23.4913 7.32487 -11.4225)
(-0.60881 -0.454494 0.198205 -9.15405 3.72181 -6.34511)
(-6.32836 -13.5754 -0.24581 -384.332 -4.10054 -162.91)
(-6.17574 -7.00455 -0.144319 -216.795 0.0529532 -82.7042)
(-6.21597 -7.56527 -0.0229683 -190.412 2.71029 -71.181)
(-5.98739 -5.86036 0.114652 -136.274 4.67261 -49.9782)
(-5.56205 -3.83174 0.232773 -89.8322 5.78155 -33.3682)
(-4.8862 -1.79461 0.300003 -51.0328 5.99614 -20.2007)
(-3.67252 -0.264377 0.284884 -22.8474 5.22075 -10.585)
(-0.868604 -0.219404 0.122441 -8.3559 2.6822 -4.04147)
(-6.47203 -13.5074 -0.130975 -383.686 -1.92824 -164.701)
(-6.32463 -6.95643 -0.0845388 -216.128 0.214434 -86.7848)
(-6.37478 -7.50091 -0.00501214 -189.81 1.78377 -75.207)
(-6.14841 -5.78167 0.0853678 -135.739 2.9784 -53.2148)
(-5.70917 -3.73689 0.164278 -89.3479 3.69994 -35.4262)
(-5.00928 -1.68568 0.208002 -50.5464 3.88645 -21.0015)
(-3.78376 -0.14008 0.192018 -22.2444 3.43054 -10.2259)
(-1.0386 -0.059499 0.0710732 -7.78095 1.77724 -2.87866)
(-6.55803 -13.4326 -0.0621347 -382.894 -0.812325 -165.446)
(-6.41264 -6.91546 -0.0419431 -215.639 0.197193 -88.9438)
(-6.46486 -7.4496 0.00349111 -189.345 1.02176 -77.4101)
(-6.2365 -5.72271 0.054606 -135.312 1.65995 -55.0478)
(-5.78783 -3.66886 0.0990849 -88.9445 2.05901 -36.6446)
(-5.07563 -1.61118 0.122692 -50.1484 2.17543 -21.5326)
(-3.8497 -0.0593276 0.110695 -21.7969 1.93411 -10.1108)
(-1.14637 0.0396723 0.0356186 -7.40222 1.00625 -2.36299)
(-6.59683 -13.388 -0.0180413 -382.405 -0.218427 -165.701)
(-6.45155 -6.89251 -0.0122947 -215.376 0.0768129 -89.8682)
(-6.50387 -7.42185 0.0024927 -189.094 0.333587 -78.3746)
(-6.27427 -5.69188 0.0189639 -135.082 0.533858 -55.8673)
(-5.82175 -3.63402 0.0331878 -88.7231 0.660953 -37.2041)
(-5.10472 -1.5735 0.040521 -49.9313 0.69978 -21.7936)
(-3.87733 -0.0204971 0.0362443 -21.561 0.623998 -10.0873)
(-1.20496 0.0865691 0.0104041 -7.22039 0.325344 -2.18707)
(-55.98 12.9372 -2.57158 -0.481268 -2.29691 1.77444)
(-50.7726 12.2661 0.870386 1.36396 -2.08845 5.99329)
(-51.7235 12.3872 0.337472 2.80481 -1.62633 1.06595)
(-52.2984 12.5723 -0.119533 3.92816 -1.25107 -1.0921)
(-53.1886 12.7698 -0.406121 4.7605 -0.936211 -2.30532)
(-53.8641 12.9275 -0.426809 5.34765 -0.660082 -2.62405)
(-54.3186 13.0364 -0.3114 5.70695 -0.402792 -2.62287)
(-54.5755 13.0869 -0.115172 5.80737 -0.138562 -2.60544)
(-48.6454 9.40451 -4.3992 -2.35376 -0.608427 -7.19455)
(-43.946 8.25108 -2.33874 -1.37358 -0.609763 -6.27075)
(-44.3202 8.06948 -2.00816 -0.360002 -0.459122 -6.47331)
(-45.6072 8.09903 -2.15403 0.469114 -0.332176 -6.36723)
(-46.8997 8.16855 -2.07913 1.07991 -0.241264 -6.3745)
(-47.8643 8.23163 -1.68519 1.50862 -0.168388 -6.31735)
(-48.4772 8.28079 -1.08337 1.78694 -0.10029 -6.24475)
(-48.7512 8.31523 -0.372932 1.94647 -0.0330029 -6.18308)
(-4.82025 5.91378 -4.3232 -3.85507 0.101465 -1.46546)
(-6.69992 4.91633 -3.99184 -3.13988 0.0528186 -2.54589)
(-8.55894 4.66385 -3.6637 -2.38962 0.0635686 -0.482845)
(-10.3573 4.60528 -3.3589 -1.79475 0.0586822 1.29352)
(-11.7381 4.59319 -2.88772 -1.36817 0.0426481 2.37069)
(-12.6937 4.59206 -2.20248 -1.07567 0.0265924 2.91018)
(-13.2888 4.59353 -1.37249 -0.890881 0.0164137 3.14268)
(-13.5672 4.59386 -0.465795 -0.785978 0.00668934 3.22882)
(12.4892 4.77578 -3.32348 -3.73326 0.489116 -3.89844)
(8.59783 3.88549 -2.87078 -3.16813 0.249543 -6.39777)
(7.23183 3.54977 -2.68805 -2.67933 0.161157 -1.53782)
(5.90277 3.4122 -2.3128 -2.29024 0.101271 1.8794)
(4.9813 3.33073 -1.90208 -2.01798 0.0582084 3.9717)
(4.30072 3.28005 -1.40799 -1.83773 0.0292425 4.95574)
(3.85838 3.24837 -0.864501 -1.72975 0.0129841 5.3435)
(3.63539 3.2299 -0.291918 -1.68106 0.00387388 5.45507)
)
;
    }
    symmetry
    {
        type            symmetryPlane;
    }
    bottom
    {
        type            calculated;
        value           nonuniform List<symmTensor> 
32
(
(207.325 80.9438 3.61964 314.762 91.6664 208.228)
(204.436 90.8628 2.0195 308.943 45.4562 201.41)
(210.669 95.6816 1.02475 318.173 21.9886 206.445)
(214.292 97.4631 0.471538 323.68 9.95573 209.724)
(215.927 98.0188 0.190819 326.203 4.01015 211.271)
(216.592 98.1345 0.0616749 327.245 1.29516 211.92)
(216.82 98.1213 0.012142 327.611 0.255053 212.149)
(216.878 98.0931 0.000364335 327.709 0.00765565 212.21)
(39.9091 32.3619 0.451742 59.3258 25.6168 39.696)
(42.3372 42.857 0.308892 62.3569 13.2449 41.4331)
(45.2953 44.5903 0.149002 66.7248 6.15288 44.236)
(46.6929 44.265 0.0585689 68.8732 2.4387 45.6331)
(47.4108 43.5938 0.0158175 70.0136 0.669101 46.3805)
(47.8057 43.0217 -0.00090696 70.6551 -0.0388871 46.8023)
(48.0209 42.6426 -0.00449487 71.0094 -0.194468 47.0353)
(48.117 42.4576 -0.00207244 71.1686 -0.0900604 47.14)
(-57.0398 27.5766 -0.475234 -85.5224 -29.5471 -56.9742)
(-50.7352 37.6357 -0.375701 -76.7698 -17.1879 -51.3863)
(-51.1243 38.6837 -0.226935 -77.4147 -10.0977 -51.9344)
(-51.3719 37.8711 -0.130059 -77.7283 -5.9104 -52.185)
(-51.3425 36.8815 -0.0730134 -77.6218 -3.40724 -52.1261)
(-51.1819 36.1032 -0.0397082 -77.336 -1.89323 -51.9371)
(-51.0132 35.5986 -0.0195281 -77.0555 -0.944402 -51.7488)
(-50.9115 35.3542 -0.00585539 -76.8904 -0.285153 -51.6375)
(-211.19 57.5169 -3.19081 -310.3 -84.835 -208.647)
(-200.39 64.7905 -1.92336 -295.953 -45.7536 -201.756)
(-205.534 66.7505 -1.06174 -303.517 -24.4193 -208.048)
(-208.153 66.7391 -0.556887 -307.236 -12.7852 -210.953)
(-208.859 66.1881 -0.280683 -308.174 -6.4945 -211.692)
(-208.738 65.6131 -0.134715 -307.936 -3.14479 -211.542)
(-208.407 65.1888 -0.0585772 -307.417 -1.37671 -211.179)
(-208.177 64.9696 -0.0161872 -307.066 -0.381795 -210.931)
)
;
    }
}


// ************************************************************************* //
