/*--------------------------------*- C++ -*----------------------------------*\
| =========                 |                                                 |
| \\      /  F ield         | foam-extend: Open Source CFD                    |
|  \\    /   O peration     | Version:     3.1                                |
|   \\  /    A nd           | Web:         http://www.extend-project.de       |
|    \\/     M anipulation  |                                                 |
\*---------------------------------------------------------------------------*/
FoamFile
{
    version     2.0;
    format      ascii;
    class       volVectorField;
    location    "3.5";
    object      U;
}
// * * * * * * * * * * * * * * * * * * * * * * * * * * * * * * * * * * * * * //

dimensions      [0 1 -1 0 0 0 0];

internalField   nonuniform List<vector> 
256
(
(-8.24e-06 -1.52587e-06 -1.69999e-06)
(-6.54445e-06 -3.00607e-07 -1.54231e-06)
(-5.48257e-06 -2.55438e-07 -1.70513e-06)
(-4.48778e-06 8.56631e-07 -1.85919e-06)
(-2.35452e-05 -6.79028e-06 2.07956e-06)
(-2.04623e-05 -3.01345e-06 -2.38499e-06)
(-1.90204e-05 -1.56969e-06 -5.89692e-06)
(-1.89601e-05 2.04216e-06 -1.05991e-05)
(-3.55513e-05 -9.74707e-06 4.02095e-06)
(-3.24618e-05 -5.45612e-06 -3.10708e-06)
(-3.11097e-05 -2.7985e-06 -9.7064e-06)
(-3.13502e-05 1.77911e-06 -1.79009e-05)
(-4.38277e-05 -1.19149e-05 4.37415e-06)
(-4.14596e-05 -7.57061e-06 -4.84437e-06)
(-4.06387e-05 -4.05094e-06 -1.36798e-05)
(-4.12986e-05 9.68767e-07 -2.45969e-05)
(-4.83946e-05 -1.32406e-05 2.7069e-06)
(-4.72215e-05 -9.17605e-06 -7.75196e-06)
(-4.72927e-05 -5.08581e-06 -1.80528e-05)
(-4.86363e-05 2.07005e-07 -3.08755e-05)
(-5.008e-05 -1.39123e-05 -9.35244e-07)
(-5.04577e-05 -1.01622e-05 -1.19812e-05)
(-5.17623e-05 -5.60235e-06 -2.30511e-05)
(-5.40614e-05 1.40639e-07 -3.69979e-05)
(-5.02836e-05 -1.40558e-05 -6.41758e-06)
(-5.2417e-05 -1.03995e-05 -1.7691e-05)
(-5.54331e-05 -5.2443e-06 -2.89683e-05)
(-5.91382e-05 1.35995e-06 -4.32909e-05)
(-5.02244e-05 -1.37512e-05 -1.42443e-05)
(-5.46766e-05 -9.53641e-06 -2.52731e-05)
(-6.03349e-05 -3.4597e-06 -3.60693e-05)
(-6.62787e-05 3.99094e-06 -5.03389e-05)
(-5.85804e-06 -1.23605e-06 9.35577e-07)
(-4.03586e-06 -3.14108e-08 -3.43982e-07)
(-3.1234e-06 3.52334e-07 -1.35392e-06)
(-2.78503e-06 1.41528e-06 -2.86853e-06)
(-1.70185e-05 -5.55157e-06 2.97883e-06)
(-1.40217e-05 -1.96241e-06 -1.094e-06)
(-1.24018e-05 6.78762e-08 -4.79735e-06)
(-1.1942e-05 3.50248e-06 -9.25169e-06)
(-2.50359e-05 -7.8713e-06 4.46021e-06)
(-2.23106e-05 -3.83659e-06 -2.0801e-06)
(-2.07123e-05 -7.92604e-07 -8.26147e-06)
(-2.02514e-05 3.47227e-06 -1.56559e-05)
(-3.02507e-05 -9.17172e-06 4.76636e-06)
(-2.81995e-05 -5.25953e-06 -3.76173e-06)
(-2.70326e-05 -1.73814e-06 -1.19672e-05)
(-2.68927e-05 2.76945e-06 -2.18203e-05)
(-3.26179e-05 -9.60505e-06 3.59873e-06)
(-3.16758e-05 -6.13778e-06 -6.3701e-06)
(-3.12803e-05 -2.43833e-06 -1.60756e-05)
(-3.17482e-05 2.15622e-06 -2.78201e-05)
(-3.28947e-05 -9.36274e-06 8.8416e-07)
(-3.34131e-05 -6.39722e-06 -1.00333e-05)
(-3.41348e-05 -2.61454e-06 -2.0724e-05)
(-3.55191e-05 2.26289e-06 -3.37947e-05)
(-3.22883e-05 -8.54945e-06 -3.33512e-06)
(-3.45595e-05 -5.95459e-06 -1.48586e-05)
(-3.68859e-05 -2.03349e-06 -2.60258e-05)
(-3.95904e-05 3.51213e-06 -3.98348e-05)
(-3.16484e-05 -7.37479e-06 -9.56984e-06)
(-3.62025e-05 -4.63945e-06 -2.10022e-05)
(-4.11634e-05 -4.38288e-07 -3.18522e-05)
(-4.62045e-05 5.74929e-06 -4.57619e-05)
(-3.98397e-06 -7.48343e-07 1.94715e-06)
(-2.29273e-06 1.32382e-07 1.64653e-07)
(-1.50237e-06 4.78995e-07 -1.31057e-06)
(-1.325e-06 1.1621e-06 -3.28156e-06)
(-1.11606e-05 -3.70525e-06 3.30057e-06)
(-8.3967e-06 -1.06747e-06 -4.40017e-07)
(-6.86361e-06 5.77645e-07 -4.11472e-06)
(-6.40924e-06 2.91288e-06 -8.19299e-06)
(-1.56638e-05 -5.41377e-06 4.43429e-06)
(-1.31769e-05 -2.40593e-06 -1.47157e-06)
(-1.16573e-05 4.8306e-08 -7.14853e-06)
(-1.11711e-05 3.06216e-06 -1.36536e-05)
(-1.78305e-05 -6.33093e-06 4.69079e-06)
(-1.60245e-05 -3.41688e-06 -3.0572e-06)
(-1.49599e-05 -6.31364e-07 -1.05192e-05)
(-1.48437e-05 2.61514e-06 -1.91635e-05)
(-1.77655e-05 -6.47198e-06 3.90699e-06)
(-1.70448e-05 -3.95811e-06 -5.35368e-06)
(-1.67682e-05 -1.12475e-06 -1.42779e-05)
(-1.73252e-05 2.25265e-06 -2.47086e-05)
(-1.61377e-05 -5.89189e-06 1.98666e-06)
(-1.68872e-05 -3.93322e-06 -8.4371e-06)
(-1.77378e-05 -1.19729e-06 -1.84525e-05)
(-1.92554e-05 2.49461e-06 -3.02724e-05)
(-1.40932e-05 -4.57613e-06 -1.08191e-06)
(-1.66026e-05 -3.26115e-06 -1.23371e-05)
(-1.90354e-05 -6.94134e-07 -2.29757e-05)
(-2.18616e-05 3.6307e-06 -3.57023e-05)
(-1.2147e-05 -2.69078e-06 -5.77869e-06)
(-1.68911e-05 -1.78243e-06 -1.70575e-05)
(-2.19535e-05 6.28484e-07 -2.745e-05)
(-2.71126e-05 5.49359e-06 -4.03401e-05)
(-2.47999e-06 -2.83209e-07 2.12241e-06)
(-1.02721e-06 2.68244e-07 3.23388e-07)
(-3.28992e-07 5.04064e-07 -1.23348e-06)
(-1.11462e-07 8.2947e-07 -3.18568e-06)
(-6.19839e-06 -2.00972e-06 3.14363e-06)
(-3.77108e-06 -4.0148e-07 -1.58866e-07)
(-2.38756e-06 6.47215e-07 -3.52919e-06)
(-1.91968e-06 1.85409e-06 -7.11153e-06)
(-7.64264e-06 -3.13333e-06 4.03633e-06)
(-5.39531e-06 -1.34076e-06 -1.09518e-06)
(-4.0496e-06 2.40866e-07 -6.09076e-06)
(-3.67438e-06 1.91009e-06 -1.1662e-05)
(-7.072e-06 -3.7775e-06 4.26696e-06)
(-5.45612e-06 -2.10352e-06 -2.48295e-06)
(-4.59759e-06 -3.19969e-07 -9.00417e-06)
(-4.69155e-06 1.54979e-06 -1.63901e-05)
(-4.69365e-06 -3.80332e-06 3.7663e-06)
(-4.12687e-06 -2.49991e-06 -4.40493e-06)
(-4.08588e-06 -7.4808e-07 -1.22596e-05)
(-4.93651e-06 1.28611e-06 -2.12508e-05)
(-1.15116e-06 -3.11201e-06 2.45539e-06)
(-2.04022e-06 -2.3887e-06 -6.88693e-06)
(-3.14088e-06 -8.50083e-07 -1.58063e-05)
(-4.99922e-06 1.5126e-06 -2.61226e-05)
(2.49657e-06 -1.55885e-06 2.94504e-07)
(-1.41423e-07 -1.64784e-06 -9.90989e-06)
(-2.8102e-06 -4.94329e-07 -1.94751e-05)
(-5.96537e-06 2.44182e-06 -3.07158e-05)
(6.04228e-06 7.52881e-07 -3.16187e-06)
(1.17561e-06 -5.36972e-08 -1.34325e-05)
(-4.12759e-06 6.34999e-07 -2.27913e-05)
(-9.57469e-06 3.95783e-06 -3.42176e-05)
(-1.30952e-06 1.11824e-07 1.8789e-06)
(-9.48004e-08 3.74599e-07 3.20129e-07)
(5.37571e-07 4.96429e-07 -1.07128e-06)
(8.47923e-07 5.17498e-07 -2.75456e-06)
(-2.22863e-06 -6.25441e-07 2.66742e-06)
(-1.31329e-07 7.11887e-08 -5.62574e-08)
(1.11998e-06 5.4969e-07 -2.89773e-06)
(1.63421e-06 7.88409e-07 -5.85091e-06)
(-1.14388e-06 -1.26248e-06 3.36032e-06)
(8.86145e-07 -5.98209e-07 -8.26743e-07)
(2.06872e-06 1.21458e-07 -4.94961e-06)
(2.3298e-06 5.84078e-07 -9.47545e-06)
(1.73335e-06 -1.69976e-06 3.56898e-06)
(3.2072e-06 -1.22109e-06 -1.94698e-06)
(3.88018e-06 -4.41692e-07 -7.30626e-06)
(3.5627e-06 1.48042e-07 -1.32975e-05)
(6.12931e-06 -1.67851e-06 3.27634e-06)
(6.60068e-06 -1.57118e-06 -3.4528e-06)
(6.4369e-06 -9.04415e-07 -9.93531e-06)
(5.28518e-06 -1.55707e-07 -1.7269e-05)
(1.13986e-05 -9.65564e-07 2.42356e-06)
(1.04414e-05 -1.46181e-06 -5.34002e-06)
(9.13091e-06 -1.10463e-06 -1.27518e-05)
(6.9344e-06 -4.62537e-08 -2.12308e-05)
(1.65699e-05 7.01845e-07 9.64049e-07)
(1.38723e-05 -7.21034e-07 -7.5695e-06)
(1.09983e-05 -9.11527e-07 -1.55597e-05)
(7.50159e-06 6.42808e-07 -2.48616e-05)
(2.16404e-05 3.28727e-06 -1.48287e-06)
(1.67071e-05 9.41368e-07 -1.00915e-05)
(1.118e-05 6.11905e-08 -1.79142e-05)
(5.39603e-06 1.85016e-06 -2.73932e-05)
(-4.49446e-07 4.15705e-07 1.43097e-06)
(5.68277e-07 4.52531e-07 2.48639e-07)
(1.15503e-06 4.78505e-07 -8.28653e-07)
(1.55755e-06 2.62914e-07 -2.10568e-06)
(7.32447e-07 4.14815e-07 2.00243e-06)
(2.55891e-06 3.9168e-07 -2.59417e-08)
(3.71144e-06 4.06167e-07 -2.17103e-06)
(4.28026e-06 -1.10709e-07 -4.37493e-06)
(3.75618e-06 1.44132e-07 2.5026e-06)
(5.61053e-06 -1.08136e-07 -5.95009e-07)
(6.66693e-06 -1.07774e-07 -3.67357e-06)
(6.84065e-06 -6.14707e-07 -7.02312e-06)
(8.42999e-06 -1.43939e-07 2.67384e-06)
(9.79922e-06 -6.60492e-07 -1.41061e-06)
(1.03309e-05 -7.34795e-07 -5.40269e-06)
(9.82903e-06 -1.20049e-06 -9.83286e-06)
(1.44242e-05 -1.04445e-07 2.52207e-06)
(1.48402e-05 -1.0119e-06 -2.48439e-06)
(1.45269e-05 -1.27658e-06 -7.32514e-06)
(1.31294e-05 -1.609e-06 -1.27657e-05)
(2.11018e-05 5.97966e-07 2.00456e-06)
(2.01184e-05 -9.38196e-07 -3.80152e-06)
(1.86611e-05 -1.5913e-06 -9.35726e-06)
(1.61958e-05 -1.64108e-06 -1.56749e-05)
(2.75525e-05 2.31881e-06 1.08086e-06)
(2.48396e-05 -2.23838e-07 -5.32247e-06)
(2.18304e-05 -1.54369e-06 -1.13278e-05)
(1.80798e-05 -1.15895e-06 -1.82846e-05)
(3.38998e-05 5.07463e-06 -5.38719e-07)
(2.8944e-05 1.47501e-06 -7.00683e-06)
(2.32707e-05 -6.93668e-07 -1.28878e-05)
(1.72374e-05 -1.85232e-07 -1.99862e-05)
(1.13134e-07 6.20952e-07 8.86324e-07)
(9.94091e-07 5.03451e-07 1.53e-07)
(1.55214e-06 4.61323e-07 -5.23553e-07)
(2.0241e-06 8.41355e-08 -1.31662e-06)
(2.69456e-06 1.10676e-06 1.23442e-06)
(4.33222e-06 5.89673e-07 -1.57666e-08)
(5.41978e-06 2.80562e-07 -1.3484e-06)
(6.03288e-06 -7.53718e-07 -2.70965e-06)
(7.03112e-06 1.07846e-06 1.53749e-06)
(8.76166e-06 1.86643e-07 -3.64168e-07)
(9.73274e-06 -3.22314e-07 -2.2662e-06)
(9.84861e-06 -1.50494e-06 -4.32561e-06)
(1.29343e-05 8.86866e-07 1.65089e-06)
(1.42311e-05 -3.34751e-07 -8.57895e-07)
(1.46675e-05 -1.02163e-06 -3.32113e-06)
(1.40371e-05 -2.23473e-06 -6.04347e-06)
(2.00224e-05 9.31796e-07 1.58488e-06)
(2.04089e-05 -7.0308e-07 -1.49891e-06)
(1.99984e-05 -1.64108e-06 -4.49006e-06)
(1.84274e-05 -2.74779e-06 -7.83932e-06)
(2.76916e-05 1.61533e-06 1.3116e-06)
(2.66992e-05 -6.68378e-07 -2.27481e-06)
(2.51447e-05 -2.05011e-06 -5.71478e-06)
(2.24825e-05 -2.89562e-06 -9.61338e-06)
(3.50588e-05 3.35758e-06 8.04435e-07)
(3.23449e-05 1.69056e-08 -3.1576e-06)
(2.92462e-05 -2.1088e-06 -6.88101e-06)
(2.53074e-05 -2.56001e-06 -1.11827e-05)
(4.23174e-05 6.2097e-06 -1.15342e-07)
(3.73595e-05 1.73049e-06 -4.12118e-06)
(3.15956e-05 -1.34524e-06 -7.76873e-06)
(2.53863e-05 -1.74268e-06 -1.21611e-05)
(3.90483e-07 7.24078e-07 2.99409e-07)
(1.20209e-06 5.28536e-07 5.12522e-08)
(1.74632e-06 4.51205e-07 -1.79012e-07)
(2.25509e-06 -7.86843e-09 -4.47573e-07)
(3.67136e-06 1.4517e-06 4.16473e-07)
(5.21266e-06 6.8397e-07 -5.86386e-09)
(6.26798e-06 2.09192e-07 -4.57613e-07)
(6.90532e-06 -1.08773e-06 -9.17902e-07)
(8.67248e-06 1.54371e-06 5.17982e-07)
(1.0338e-05 3.24382e-07 -1.23158e-07)
(1.12656e-05 -4.47407e-07 -7.66409e-07)
(1.13529e-05 -1.97617e-06 -1.46135e-06)
(1.52028e-05 1.39981e-06 5.57753e-07)
(1.64591e-05 -1.86083e-07 -2.88254e-07)
(1.68464e-05 -1.19159e-06 -1.12083e-06)
(1.61507e-05 -2.79081e-06 -2.03923e-06)
(2.28332e-05 1.44601e-06 5.40277e-07)
(2.32119e-05 -5.67384e-07 -5.01016e-07)
(2.27563e-05 -1.85721e-06 -1.51268e-06)
(2.10994e-05 -3.36648e-06 -2.64341e-06)
(3.10184e-05 2.11534e-06 4.55444e-07)
(3.0027e-05 -5.57264e-07 -7.57007e-07)
(2.84287e-05 -2.31921e-06 -1.92144e-06)
(2.56732e-05 -3.57963e-06 -3.2389e-06)
(3.88636e-05 3.86272e-06 2.94025e-07)
(3.61531e-05 1.09929e-07 -1.04626e-06)
(3.30121e-05 -2.43356e-06 -2.30737e-06)
(2.89787e-05 -3.31871e-06 -3.7624e-06)
(4.65898e-05 6.75433e-06 -3.72084e-09)
(4.16384e-05 1.82768e-06 -1.35956e-06)
(3.58326e-05 -1.71445e-06 -2.59534e-06)
(2.95344e-05 -2.57829e-06 -4.08158e-06)
)
;

boundaryField
{
    interface
    {
        type            calculated;
        value           nonuniform List<vector> 
192
(
(-1.3061e-05 -1.02132e-05 -5.14532e-07)
(-2.51971e-05 -1.28889e-05 5.28714e-06)
(-3.74657e-05 -1.51467e-05 8.87504e-06)
(-4.51017e-05 -1.58271e-05 1.03673e-05)
(-4.89599e-05 -1.58217e-05 9.23526e-06)
(-4.9767e-05 -1.54174e-05 5.68635e-06)
(-4.91074e-05 -1.48113e-05 2.99232e-08)
(-4.82233e-05 -1.41349e-05 -7.82099e-06)
(-1.01634e-05 -7.74716e-06 1.86964e-06)
(-1.87675e-05 -9.85944e-06 5.62916e-06)
(-2.67669e-05 -1.17931e-05 8.60669e-06)
(-3.14049e-05 -1.21593e-05 1.0219e-05)
(-3.30132e-05 -1.17069e-05 9.99474e-06)
(-3.23344e-05 -1.06955e-05 7.9698e-06)
(-3.0654e-05 -9.29951e-06 4.27168e-06)
(-2.91496e-05 -7.3624e-06 -1.29368e-06)
(-7.30571e-06 -5.31789e-06 2.73675e-06)
(-1.27648e-05 -6.482e-06 5.59658e-06)
(-1.72689e-05 -7.88979e-06 8.04167e-06)
(-1.89526e-05 -8.19351e-06 9.5332e-06)
(-1.8224e-05 -7.72841e-06 9.76413e-06)
(-1.57075e-05 -6.5951e-06 8.67245e-06)
(-1.26132e-05 -4.82847e-06 6.31886e-06)
(-9.93071e-06 -1.92519e-06 2.44047e-06)
(-4.85875e-06 -3.17488e-06 2.76001e-06)
(-7.61922e-06 -3.48723e-06 5.03708e-06)
(-9.1465e-06 -4.34432e-06 7.04477e-06)
(-8.2033e-06 -4.55687e-06 8.36083e-06)
(-5.2351e-06 -4.16656e-06 8.82008e-06)
(-8.48777e-07 -3.08362e-06 8.32912e-06)
(3.84872e-06 -1.16038e-06 6.92506e-06)
(8.10876e-06 2.3233e-06 4.30891e-06)
(-2.88072e-06 -1.42235e-06 2.37025e-06)
(-3.45702e-06 -1.03835e-06 4.14492e-06)
(-2.54071e-06 -1.41839e-06 5.73024e-06)
(5.98643e-07 -1.5328e-06 6.82582e-06)
(5.51522e-06 -1.22188e-06 7.35229e-06)
(1.15859e-05 -2.3407e-07 7.21283e-06)
(1.78049e-05 1.75922e-06 6.42986e-06)
(2.3571e-05 5.61178e-06 4.72064e-06)
(-1.39388e-06 -9.72602e-08 1.7791e-06)
(-3.3098e-07 8.13019e-07 3.05795e-06)
(2.45468e-06 8.04815e-07 4.20846e-06)
(7.30027e-06 7.73708e-07 5.03486e-06)
(1.37552e-05 1.02093e-06 5.50305e-06)
(2.1201e-05 1.919e-06 5.53287e-06)
(2.86975e-05 3.9386e-06 5.13797e-06)
(3.5734e-05 8.01857e-06 4.0895e-06)
(-4.07674e-07 7.88904e-07 1.09402e-06)
(1.74963e-06 2.05204e-06 1.86804e-06)
(5.8005e-06 2.29677e-06 2.56767e-06)
(1.18138e-05 2.32082e-06 3.08278e-06)
(1.93169e-05 2.52464e-06 3.39825e-06)
(2.77325e-05 3.35917e-06 3.4676e-06)
(3.61422e-05 5.3836e-06 3.29563e-06)
(4.40848e-05 9.59033e-06 2.73525e-06)
(8.22307e-08 1.23204e-06 3.68697e-07)
(2.78731e-06 2.67294e-06 6.28118e-07)
(7.47929e-06 3.04642e-06 8.63319e-07)
(1.40918e-05 3.09495e-06 1.03857e-06)
(2.2104e-05 3.27749e-06 1.14858e-06)
(3.10293e-05 4.08098e-06 1.18034e-06)
(3.99155e-05 6.10227e-06 1.13378e-06)
(4.83194e-05 1.03587e-05 9.58574e-07)
(-9.68061e-06 -1.65371e-06 -4.11072e-06)
(-2.73026e-05 -4.97529e-06 1.74485e-06)
(-4.13444e-05 -9.21475e-06 3.26837e-06)
(-5.08099e-05 -1.25147e-05 3.62003e-06)
(-5.58501e-05 -1.51491e-05 1.63278e-06)
(-5.73983e-05 -1.69307e-05 -2.46512e-06)
(-5.70982e-05 -1.80221e-05 -8.56119e-06)
(-5.62529e-05 -1.89651e-05 -1.67806e-05)
(-7.66429e-06 -1.77195e-06 -2.788e-06)
(-2.36103e-05 -3.07646e-06 -3.02068e-06)
(-3.76271e-05 -5.95667e-06 -3.87203e-06)
(-4.79981e-05 -8.5709e-06 -5.75666e-06)
(-5.45833e-05 -1.08854e-05 -8.96883e-06)
(-5.81134e-05 -1.2648e-05 -1.36096e-05)
(-5.98938e-05 -1.37644e-05 -1.98553e-05)
(-6.12637e-05 -1.40018e-05 -2.79152e-05)
(-6.61486e-06 -2.7696e-06 -3.06348e-06)
(-2.22497e-05 -3.56426e-06 -6.64656e-06)
(-3.64717e-05 -4.59822e-06 -1.0785e-05)
(-4.75797e-05 -5.81232e-06 -1.50425e-05)
(-5.5285e-05 -7.02477e-06 -1.97206e-05)
(-6.02773e-05 -7.92242e-06 -2.50593e-05)
(-6.39663e-05 -8.18624e-06 -3.13954e-05)
(-6.82265e-05 -7.01232e-06 -3.89841e-05)
(-6.02175e-06 -3.18438e-06 -2.22899e-06)
(-2.32918e-05 -2.13513e-06 -1.1419e-05)
(-3.81572e-05 -1.626e-06 -1.90076e-05)
(-5.00138e-05 -1.84523e-06 -2.60284e-05)
(-5.87638e-05 -2.23658e-06 -3.25144e-05)
(-6.50841e-05 -2.19898e-06 -3.87871e-05)
(-7.05788e-05 -1.2629e-06 -4.51467e-05)
(-7.76144e-05 1.23034e-06 -5.26049e-05)
(-5.90937e-06 7.68423e-06 -3.27421e-06)
(-1.91235e-05 8.54048e-06 -1.45991e-05)
(-3.15185e-05 7.57734e-06 -2.4216e-05)
(-4.16623e-05 5.71202e-06 -3.27823e-05)
(-4.94653e-05 4.10733e-06 -4.05147e-05)
(-5.55464e-05 3.76692e-06 -4.76735e-05)
(-6.15303e-05 5.66117e-06 -5.46081e-05)
(-6.91067e-05 1.03582e-05 -6.21261e-05)
(-4.40321e-06 5.94122e-06 -3.87286e-06)
(-1.21022e-05 7.73382e-06 -1.23127e-05)
(-2.04155e-05 7.38996e-06 -2.06283e-05)
(-2.72831e-05 6.01192e-06 -2.83736e-05)
(-3.26192e-05 4.93516e-06 -3.56415e-05)
(-3.70732e-05 5.14779e-06 -4.26012e-05)
(-4.20157e-05 7.38165e-06 -4.94059e-05)
(-4.91566e-05 1.19161e-05 -5.61948e-05)
(-2.31521e-06 3.68471e-06 -4.11792e-06)
(-6.56444e-06 5.31751e-06 -1.07087e-05)
(-1.13317e-05 5.37003e-06 -1.77465e-05)
(-1.52597e-05 4.54331e-06 -2.46738e-05)
(-1.82471e-05 4.00364e-06 -3.14127e-05)
(-2.08683e-05 4.58994e-06 -3.79771e-05)
(-2.43584e-05 6.80282e-06 -4.43195e-05)
(-3.01021e-05 1.10401e-05 -4.99119e-05)
(-4.75094e-07 1.62677e-06 -3.87371e-06)
(-2.06762e-06 2.82585e-06 -9.1743e-06)
(-3.92417e-06 2.83577e-06 -1.50324e-05)
(-5.28373e-06 2.29077e-06 -2.0989e-05)
(-6.0938e-06 2.02499e-06 -2.69323e-05)
(-6.89028e-06 2.72277e-06 -3.27615e-05)
(-8.76077e-06 4.82166e-06 -3.82641e-05)
(-1.27981e-05 8.76529e-06 -4.26703e-05)
(1.02036e-06 -7.83973e-08 -3.30165e-06)
(1.50825e-06 6.18007e-07 -7.48284e-06)
(1.98594e-06 3.64158e-07 -1.21503e-05)
(2.7734e-06 -1.38046e-07 -1.69779e-05)
(3.86704e-06 -3.29058e-07 -2.18624e-05)
(4.74414e-06 3.40729e-07 -2.66519e-05)
(4.37618e-06 2.23291e-06 -3.10647e-05)
(1.85727e-06 5.91893e-06 -3.43989e-05)
(2.14603e-06 -1.38286e-06 -2.5064e-06)
(4.17963e-06 -1.14638e-06 -5.56227e-06)
(6.41964e-06 -1.72319e-06 -8.97227e-06)
(8.86898e-06 -2.30574e-06 -1.25277e-05)
(1.14856e-05 -2.52919e-06 -1.61488e-05)
(1.37535e-05 -1.94271e-06 -1.96946e-05)
(1.47005e-05 -2.17748e-07 -2.29133e-05)
(1.34524e-05 3.26917e-06 -2.52222e-05)
(2.89553e-06 -2.26254e-06 -1.56179e-06)
(5.95368e-06 -2.37196e-06 -3.43199e-06)
(9.37539e-06 -3.22133e-06 -5.51207e-06)
(1.29572e-05 -3.90885e-06 -7.68829e-06)
(1.66225e-05 -4.19382e-06 -9.91018e-06)
(1.98492e-05 -3.68964e-06 -1.20803e-05)
(2.1732e-05 -2.08278e-06 -1.4033e-05)
(2.14236e-05 1.27889e-06 -1.5389e-05)
(3.2696e-06 -2.70492e-06 -5.3008e-07)
(6.83844e-06 -2.99866e-06 -1.16035e-06)
(1.08542e-05 -4.00053e-06 -1.85959e-06)
(1.50104e-05 -4.75515e-06 -2.5921e-06)
(1.92142e-05 -5.0816e-06 -3.34119e-06)
(2.29518e-05 -4.6266e-06 -4.07112e-06)
(2.53066e-05 -3.0808e-06 -4.72485e-06)
(2.54832e-05 2.19794e-07 -5.17084e-06)
(-5.03388e-05 -1.32301e-05 -2.02243e-05)
(-3.07309e-05 -6.86494e-06 -1.42241e-05)
(-1.01497e-05 -1.70515e-06 -9.59088e-06)
(9.06797e-06 1.99997e-06 -6.14833e-06)
(2.5562e-05 4.73142e-06 -3.74608e-06)
(3.85382e-05 6.64411e-06 -2.12105e-06)
(4.74516e-05 7.85417e-06 -1.04857e-06)
(5.19737e-05 8.43086e-06 -3.10979e-07)
(-5.72266e-05 -8.0833e-06 -3.02305e-05)
(-3.75055e-05 -3.36365e-06 -2.44198e-05)
(-1.70335e-05 -3.23476e-07 -1.96158e-05)
(2.08193e-06 1.5442e-06 -1.52915e-05)
(1.85217e-05 2.65169e-06 -1.14074e-05)
(3.14866e-05 3.25782e-06 -7.87866e-06)
(4.04089e-05 3.55523e-06 -4.6169e-06)
(4.4947e-05 3.67177e-06 -1.51981e-06)
(-6.42586e-05 -1.50275e-06 -3.99359e-05)
(-4.411e-05 1.01991e-06 -3.41254e-05)
(-2.39541e-05 2.14656e-06 -2.89157e-05)
(-5.22336e-06 2.18952e-06 -2.3639e-05)
(1.09314e-05 1.6517e-06 -1.83664e-05)
(2.37179e-05 9.15261e-07 -1.31078e-05)
(3.25303e-05 2.69549e-07 -7.86121e-06)
(3.70163e-05 -9.81678e-08 -2.61958e-06)
(-7.23284e-05 5.65848e-06 -5.35679e-05)
(-5.17757e-05 6.82047e-06 -4.72885e-05)
(-3.2048e-05 6.57533e-06 -4.09813e-05)
(-1.37495e-05 4.96889e-06 -3.42326e-05)
(1.96962e-06 2.79782e-06 -2.71051e-05)
(1.4442e-05 7.13376e-07 -1.96434e-05)
(2.30361e-05 -8.82288e-07 -1.19049e-05)
(2.74137e-05 -1.73778e-06 -3.98819e-06)
)
;
    }
    symmetry
    {
        type            symmetryPlane;
    }
    bottom
    {
        type            calculated;
        value           uniform (0 0 0);
    }
}


// ************************************************************************* //
