/*--------------------------------*- C++ -*----------------------------------*\
| =========                 |                                                 |
| \\      /  F ield         | foam-extend: Open Source CFD                    |
|  \\    /   O peration     | Version:     3.1                                |
|   \\  /    A nd           | Web:         http://www.extend-project.de       |
|    \\/     M anipulation  |                                                 |
\*---------------------------------------------------------------------------*/
FoamFile
{
    version     2.0;
    format      ascii;
    class       volSymmTensorField;
    location    "0.0018";
    object      epsilon;
}
// * * * * * * * * * * * * * * * * * * * * * * * * * * * * * * * * * * * * * //

dimensions      [0 0 0 0 0 0 0];

internalField   nonuniform List<symmTensor> 
6400
(
(-0.00461212 -0.000295281 0.00845195 0.0019291 0.000187006 0.0165944)
(-0.00246346 -0.000186002 0.00906729 0.00168933 0.000249593 0.00586028)
(-0.000679254 -9.48872e-05 0.00855123 0.00155079 0.000231694 -0.00317337)
(0.00115644 -3.66617e-06 0.00700066 0.00149819 0.000141757 -0.0134473)
(-0.00449681 -0.000764477 0.00840224 0.00189583 0.000974881 0.0164169)
(-0.00238186 -0.00048647 0.00899668 0.00166622 0.00105134 0.00572339)
(-0.000619139 -0.000261078 0.00847286 0.00154786 0.000991939 -0.00331433)
(0.00120359 -3.85009e-05 0.00691338 0.00152129 0.00080855 -0.0136373)
(-0.00433385 -0.00125423 0.00829411 0.00172913 0.00163754 0.0164101)
(-0.00227767 -0.000794142 0.00888155 0.001564 0.00175719 0.00571963)
(-0.000561156 -0.000424483 0.00836533 0.00149194 0.00165702 -0.00331656)
(0.00121708 -6.03642e-05 0.00682741 0.00150931 0.00135325 -0.013638)
(-0.00409913 -0.00171192 0.00813712 0.00149326 0.00228696 0.0164061)
(-0.0021292 -0.00108411 0.00871373 0.00141477 0.00245144 0.0057174)
(-0.000481616 -0.000578884 0.00820732 0.00141186 0.00231069 -0.00331744)
(0.00122871 -8.15126e-05 0.00669858 0.00149664 0.00188721 -0.0136374)
(-0.00379656 -0.00212742 0.00793062 0.00118962 0.00292058 0.0164043)
(-0.00193757 -0.0013475 0.00849277 0.00122221 0.00312943 0.00571683)
(-0.000379336 -0.000719474 0.00799923 0.00130868 0.00294908 -0.00331699)
(0.00124304 -0.000101156 0.00652873 0.00148132 0.00240833 -0.0136357)
(-0.00343308 -0.00249061 0.0076755 0.000825229 0.00353499 0.0164042)
(-0.00170728 -0.00157775 0.00821969 0.000991051 0.00378717 0.00571739)
(-0.000256415 -0.000842473 0.00774204 0.00118491 0.00356846 -0.00331571)
(0.00126013 -0.000118439 0.00631876 0.0014633 0.00291382 -0.0136334)
(-0.00301746 -0.00279264 0.00737317 0.000408862 0.00412673 0.0164052)
(-0.00144387 -0.00176922 0.00789602 0.000726929 0.0044208 0.00571866)
(-0.000115792 -0.000944759 0.00743719 0.00104354 0.00416515 -0.00331399)
(0.00127968 -0.000132826 0.00606989 0.0014429 0.00340076 -0.0136309)
(-0.00255977 -0.00302616 0.00702538 -4.93637e-05 0.00469237 0.0164069)
(-0.00115374 -0.00191721 0.00752369 0.000436262 0.00502656 0.00572031)
(3.91401e-05 -0.00102378 0.00708655 0.000888004 0.00473559 -0.00331212)
(0.00130127 -0.000143902 0.0057837 0.00142055 0.0038662 -0.0136285)
(-0.00207106 -0.00318555 0.00663419 -0.000538287 0.00522866 0.016409)
(-0.000843829 -0.00201805 0.007105 0.000126152 0.00560089 0.00572203)
(0.000204608 -0.00107752 0.00669237 0.000722147 0.00527639 -0.00331044)
(0.00132436 -0.000151344 0.00546211 0.00139684 0.00430736 -0.0136265)
(-0.00156182 -0.0032673 0.00620222 -0.00104606 0.00573275 0.0164107)
(-0.00052171 -0.00206924 0.00664287 -0.000195707 0.00614056 0.00572324)
(0.0003764 -0.00110468 0.00625738 0.000550232 0.00578452 -0.00330939)
(0.00134829 -0.000155017 0.00510736 0.00137254 0.00472177 -0.0136253)
(-0.00104606 -0.0032673 0.00573275 -0.00156182 0.00620222 0.0164107)
(-0.000195706 -0.00206924 0.00614056 -0.00052171 0.00664287 0.00572324)
(0.000550232 -0.00110468 0.00578451 0.0003764 0.00625738 -0.00330939)
(0.00137254 -0.000155017 0.00472176 0.00134828 0.00510736 -0.0136253)
(-0.000538286 -0.00318555 0.00522866 -0.00207106 0.00663419 0.016409)
(0.000126152 -0.00201805 0.00560089 -0.00084383 0.007105 0.00572204)
(0.000722148 -0.00107752 0.00527639 0.000204607 0.00669237 -0.00331044)
(0.00139684 -0.000151344 0.00430735 0.00132436 0.00546211 -0.0136265)
(-4.93635e-05 -0.00302616 0.00469237 -0.00255977 0.00702538 0.0164069)
(0.000436263 -0.00191721 0.00502656 -0.00115374 0.00752369 0.00572032)
(0.000888005 -0.00102377 0.00473559 3.91392e-05 0.00708655 -0.00331212)
(0.00142055 -0.000143902 0.00386619 0.00130127 0.0057837 -0.0136285)
(0.000408862 -0.00279264 0.00412672 -0.00301746 0.00737317 0.0164052)
(0.000726929 -0.00176922 0.00442079 -0.00144387 0.00789602 0.00571866)
(0.00104354 -0.000944759 0.00416515 -0.000115793 0.00743719 -0.00331398)
(0.00144289 -0.000132826 0.00340075 0.00127968 0.00606989 -0.0136309)
(0.000825228 -0.00249061 0.00353499 -0.00343308 0.0076755 0.0164042)
(0.000991051 -0.00157775 0.00378717 -0.00170728 0.00821969 0.00571739)
(0.00118491 -0.000842472 0.00356845 -0.000256416 0.00774204 -0.00331571)
(0.0014633 -0.000118439 0.00291382 0.00126013 0.00631875 -0.0136334)
(0.00118962 -0.00212742 0.00292058 -0.00379656 0.00793061 0.0164043)
(0.00122221 -0.0013475 0.00312943 -0.00193757 0.00849276 0.00571684)
(0.00130868 -0.000719474 0.00294908 -0.000379336 0.00799923 -0.00331698)
(0.00148132 -0.000101156 0.00240832 0.00124304 0.00652872 -0.0136357)
(0.00149326 -0.00171192 0.00228695 -0.00409913 0.00813711 0.0164061)
(0.00141477 -0.00108411 0.00245144 -0.0021292 0.00871372 0.0057174)
(0.00141185 -0.000578883 0.00231069 -0.000481617 0.00820731 -0.00331743)
(0.00149663 -8.15123e-05 0.00188721 0.00122871 0.00669857 -0.0136374)
(0.00172913 -0.00125423 0.00163753 -0.00433385 0.0082941 0.0164101)
(0.001564 -0.000794141 0.00175718 -0.00227767 0.00888154 0.00571964)
(0.00149194 -0.000424483 0.00165702 -0.000561157 0.00836532 -0.00331655)
(0.00150931 -6.03638e-05 0.00135325 0.00121707 0.00682741 -0.013638)
(0.00189582 -0.000764477 0.00097488 -0.00449681 0.00840224 0.0164169)
(0.00166622 -0.00048647 0.00105133 -0.00238185 0.00899668 0.0057234)
(0.00154786 -0.000261078 0.000991938 -0.000619139 0.00847285 -0.00331432)
(0.00152128 -3.85007e-05 0.000808548 0.00120359 0.00691337 -0.0136373)
(0.0019291 -0.000295281 0.000187005 -0.00461212 0.00845194 0.0165945)
(0.00168933 -0.000186002 0.000249593 -0.00246346 0.00906728 0.00586029)
(0.00155079 -9.48871e-05 0.000231693 -0.000679254 0.00855123 -0.00317336)
(0.00149819 -3.66611e-06 0.000141756 0.00115644 0.00700065 -0.0134473)
(-0.00858729 -0.00065963 0.00365254 0.0064164 -0.000151926 0.00638946)
(-0.00544056 -0.000493068 0.00680568 0.00582046 2.39186e-05 0.00277476)
(-0.00254664 -0.000336935 0.00666933 0.00539844 2.04953e-05 -0.00158808)
(0.000147503 -0.000194555 0.00346814 0.00512753 -0.000148203 -0.00534412)
(-0.0083621 -0.00175458 0.00367752 0.00631144 0.000433115 0.00634222)
(-0.00525368 -0.00131916 0.00676067 0.00572089 0.000800489 0.0027002)
(-0.00239655 -0.000929224 0.00658145 0.00532992 0.000782236 -0.00166696)
(0.000264888 -0.000579381 0.00334507 0.00509309 0.000404768 -0.00540426)
(-0.00799292 -0.00288154 0.00363274 0.00593314 0.000721103 0.00633654)
(-0.00497461 -0.00215577 0.00667561 0.00544702 0.00132847 0.00269235)
(-0.00219686 -0.00151723 0.00649796 0.00513575 0.00129581 -0.00167475)
(0.000393131 -0.00094693 0.00330279 0.0049686 0.000663841 -0.00541031)
(-0.00745446 -0.00393353 0.00356411 0.00539343 0.00100449 0.00633473)
(-0.00457238 -0.0029432 0.00654961 0.00504425 0.00184814 0.00269025)
(-0.00191349 -0.00207056 0.00637521 0.00485247 0.00180111 -0.00167648)
(0.000570198 -0.00129178 0.00324022 0.0047909 0.000919769 -0.00541132)
(-0.00675956 -0.0048886 0.00347329 0.00469688 0.00128136 0.00633455)
(-0.0040525 -0.00365838 0.00638335 0.00452309 0.00235615 0.00269025)
(-0.00154786 -0.00257371 0.00621345 0.00448575 0.00229518 -0.00167607)
(0.000798193 -0.00160563 0.00315788 0.0045618 0.00117021 -0.00541044)
(-0.00592441 -0.0057234 0.00336091 0.00386018 0.00155001 0.00633527)
(-0.00342739 -0.0042836 0.00617783 0.00389658 0.00284944 0.00269124)
(-0.00110816 -0.00301373 0.00601358 0.00404473 0.00277505 -0.00167472)
(0.00107225 -0.00188016 0.00305627 0.0042864 0.00141358 -0.00540873)
(-0.00496927 -0.00641761 0.00322767 0.00290371 0.00180873 0.00633654)
(-0.00271225 -0.00480349 0.00593427 0.0031802 0.00332494 0.00269271)
(-0.000605025 -0.00337961 0.00577677 0.00354033 0.00323773 -0.001673)
(0.00138586 -0.00210841 0.00293598 0.00397142 0.00164831 -0.00540676)
(-0.00391732 -0.00695435 0.00307437 0.00185089 0.00205587 0.00633802)
(-0.00192445 -0.00520531 0.00565414 0.00239151 0.00377966 0.0026943)
(-5.0707e-05 -0.00366227 0.00550446 0.00298496 0.00368028 -0.00167127)
(0.0017314 -0.00228462 0.00279776 0.00362461 0.00187285 -0.00540491)
(-0.00279404 -0.00732067 0.00290204 0.000727469 0.00228977 0.00633936)
(-0.00108302 -0.00547911 0.00533928 0.00154989 0.00421071 0.00269567)
(0.000541214 -0.0038546 0.00519843 0.00239241 0.0040999 -0.00166985)
(0.00210032 -0.00240432 0.00264253 0.00325459 0.0020857 -0.00540347)
(-0.00162406 -0.00750835 0.00271284 -0.000439297 0.00250881 0.00634015)
(-0.000208642 -0.005618 0.00499221 0.000676233 0.00461548 0.00269646)
(0.00115579 -0.00395184 0.00486089 0.0017777 0.00449409 -0.00166904)
(0.00248327 -0.00246469 0.00247144 0.00287097 0.00228555 -0.00540268)
(-0.000439296 -0.00750835 0.00250881 -0.00162406 0.00271284 0.00634015)
(0.000676235 -0.005618 0.00461547 -0.000208644 0.00499221 0.00269646)
(0.0017777 -0.00395184 0.00449409 0.00115578 0.00486089 -0.00166904)
(0.00287097 -0.00246469 0.00228555 0.00248327 0.00247144 -0.00540268)
(0.000727471 -0.00732067 0.00228977 -0.00279404 0.00290204 0.00633936)
(0.00154989 -0.00547911 0.0042107 -0.00108303 0.00533928 0.00269567)
(0.00239241 -0.0038546 0.0040999 0.000541212 0.00519843 -0.00166985)
(0.00325459 -0.00240432 0.0020857 0.00210032 0.00264254 -0.00540347)
(0.00185089 -0.00695435 0.00205587 -0.00391732 0.00307436 0.00633803)
(0.00239151 -0.00520531 0.00377965 -0.00192445 0.00565414 0.00269431)
(0.00298496 -0.00366226 0.00368027 -5.07087e-05 0.00550446 -0.00167126)
(0.00362461 -0.00228462 0.00187285 0.0017314 0.00279776 -0.00540491)
(0.00290371 -0.00641761 0.00180873 -0.00496927 0.00322766 0.00633654)
(0.0031802 -0.00480349 0.00332494 -0.00271225 0.00593427 0.00269271)
(0.00354033 -0.00337961 0.00323773 -0.000605026 0.00577677 -0.00167299)
(0.00397142 -0.00210841 0.00164831 0.00138586 0.00293598 -0.00540676)
(0.00386017 -0.0057234 0.00155 -0.00592441 0.00336091 0.00633528)
(0.00389658 -0.0042836 0.00284943 -0.00342738 0.00617783 0.00269125)
(0.00404473 -0.00301372 0.00277505 -0.00110816 0.00601358 -0.00167472)
(0.0042864 -0.00188016 0.00141357 0.00107225 0.00305627 -0.00540872)
(0.00469688 -0.00488859 0.00128136 -0.00675956 0.00347329 0.00633455)
(0.00452308 -0.00365838 0.00235615 -0.0040525 0.00638335 0.00269026)
(0.00448574 -0.00257371 0.00229518 -0.00154786 0.00621345 -0.00167606)
(0.00456179 -0.00160563 0.0011702 0.000798192 0.00315788 -0.00541043)
(0.00539342 -0.00393352 0.00100449 -0.00745446 0.00356411 0.00633474)
(0.00504425 -0.00294319 0.00184814 -0.00457238 0.00654961 0.00269026)
(0.00485247 -0.00207056 0.00180111 -0.00191349 0.00637521 -0.00167647)
(0.00479089 -0.00129178 0.000919767 0.000570197 0.00324022 -0.00541131)
(0.00593314 -0.00288154 0.000721102 -0.00799291 0.00363274 0.00633655)
(0.00544702 -0.00215577 0.00132847 -0.0049746 0.00667561 0.00269236)
(0.00513574 -0.00151723 0.00129581 -0.00219686 0.00649795 -0.00167474)
(0.00496859 -0.000946929 0.00066384 0.00039313 0.00330279 -0.0054103)
(0.00631144 -0.00175458 0.000433114 -0.0083621 0.00367752 0.00634223)
(0.00572089 -0.00131916 0.000800488 -0.00525368 0.00676066 0.00270021)
(0.00532992 -0.000929223 0.000782235 -0.00239655 0.00658145 -0.00166695)
(0.00509309 -0.00057938 0.000404767 0.000264888 0.00334507 -0.00540426)
(0.00641639 -0.00065963 -0.000151927 -0.00858728 0.00365254 0.00638947)
(0.00582046 -0.000493068 2.39183e-05 -0.00544056 0.00680568 0.00277476)
(0.00539843 -0.000336935 2.0495e-05 -0.00254664 0.00666933 -0.00158807)
(0.00512752 -0.000194555 -0.000148203 0.000147502 0.00346814 -0.00534411)
(-0.00776206 -0.000820619 0.00229617 0.0115502 -0.000234065 -0.000694221)
(-0.0063449 -0.000728966 0.00398569 0.0107126 -0.000141471 -0.000648359)
(-0.00476734 -0.000624924 0.00388048 0.0100058 -0.000144998 -0.000985509)
(-0.00361075 -0.000541598 0.00204248 0.00941945 -0.000238665 -0.000968031)
(-0.00752318 -0.00225922 0.00229125 0.0113679 0.000265741 -0.000688131)
(-0.00611406 -0.0019981 0.00394704 0.0105159 0.000462417 -0.000652983)
(-0.00456185 -0.0017282 0.00381441 0.00982232 0.000449397 -0.000990663)
(-0.00343579 -0.00151821 0.00196291 0.00923923 0.000236459 -0.00096224)
(-0.00705491 -0.00371321 0.00226237 0.0108875 0.000448331 -0.000688366)
(-0.00569806 -0.00326992 0.00389708 0.0101031 0.000775362 -0.000653417)
(-0.00420001 -0.00282809 0.00376578 0.009464 0.000751983 -0.00099119)
(-0.0031169 -0.00249206 0.00193902 0.00892434 0.000392317 -0.000963088)
(-0.00636273 -0.00506999 0.00221932 0.0101949 0.0006263 -0.000688618)
(-0.00508946 -0.00446509 0.00382324 0.00949427 0.00108056 -0.000653871)
(-0.00367326 -0.00386127 0.00369455 0.00893798 0.0010466 -0.000991694)
(-0.00265277 -0.00340293 0.00190216 0.00846062 0.000543931 -0.000963684)
(-0.00546768 -0.00630184 0.00216241 0.00929889 0.00079938 -0.000688298)
(-0.0043013 -0.00555047 0.00372585 0.00870552 0.00137772 -0.000653614)
(-0.00299173 -0.00480001 0.00360054 0.00825614 0.00133339 -0.00099141)
(-0.00205211 -0.00423043 0.00185356 0.00785987 0.000691194 -0.000963426)
(-0.00439125 -0.00737858 0.00209199 0.00822139 0.000966911 -0.000687471)
(-0.00335308 -0.00649931 0.00360551 0.00775645 0.00166574 -0.000652787)
(-0.00217171 -0.00562078 0.00348444 0.00743543 0.00161138 -0.000990517)
(-0.00132944 -0.0049539 0.00179372 0.00713668 0.000833775 -0.000962513)
(-0.00315977 -0.00827396 0.00200852 0.00698897 0.00112797 -0.000686343)
(-0.00226802 -0.00728831 0.00346297 0.00667058 0.00194308 -0.000651652)
(-0.00123323 -0.00630323 0.00334702 0.00649618 0.00187914 -0.00098932)
(-0.000502414 -0.00555536 0.00172304 0.00630893 0.000971042 -0.000961292)
(-0.00180328 -0.00896616 0.00191257 0.00563201 0.00128151 -0.000685155)
(-0.00107261 -0.00789807 0.00329918 0.00547466 0.00220804 -0.000650477)
(-0.00019929 -0.00683046 0.00318916 0.00546158 0.00213505 -0.000988111)
(0.000408673 -0.00601983 0.00164199 0.00539705 0.0011022 -0.000960084)
(-0.000354742 -0.00943847 0.00180497 0.00418382 0.0014264 -0.000684168)
(0.000204075 -0.0083135 0.00311534 0.00419817 0.0024589 -0.000649519)
(0.000904691 -0.00718929 0.00301198 0.00435729 0.0023775 -0.000987144)
(0.0013813 -0.0063357 0.00155117 0.00442366 0.0012264 -0.000959139)
(0.00115306 -0.00967992 0.00168748 0.00267965 0.00156157 -0.000683612)
(0.00153048 -0.00852413 0.00291317 0.00287281 0.00269417 -0.000648985)
(0.00205098 -0.00737081 0.00281686 0.00321108 0.00260509 -0.00098661)
(0.00239111 -0.00649534 0.00145128 0.00341335 0.00134291 -0.000958626)
(0.00267965 -0.00967992 0.00156157 0.00115306 0.00168748 -0.000683612)
(0.00287281 -0.00852413 0.00269417 0.00153048 0.00291317 -0.000648985)
(0.00321108 -0.00737081 0.00260509 0.00205098 0.00281686 -0.00098661)
(0.00341335 -0.00649534 0.00134291 0.0023911 0.00145128 -0.000958625)
(0.00418382 -0.00943846 0.0014264 -0.000354742 0.00180497 -0.000684167)
(0.00419817 -0.0083135 0.0024589 0.000204074 0.00311534 -0.000649517)
(0.00435729 -0.00718929 0.0023775 0.000904689 0.00301198 -0.000987143)
(0.00442366 -0.0063357 0.0012264 0.0013813 0.00155117 -0.000959138)
(0.00563202 -0.00896616 0.00128151 -0.00180328 0.00191257 -0.000685153)
(0.00547467 -0.00789807 0.00220804 -0.00107261 0.00329918 -0.000650475)
(0.00546159 -0.00683045 0.00213505 -0.000199291 0.00318916 -0.000988109)
(0.00539705 -0.00601982 0.0011022 0.000408672 0.00164199 -0.000960082)
(0.00698897 -0.00827395 0.00112797 -0.00315976 0.00200851 -0.00068634)
(0.00667058 -0.0072883 0.00194308 -0.00226802 0.00346297 -0.000651649)
(0.00649618 -0.00630323 0.00187914 -0.00123323 0.00334702 -0.000989318)
(0.00630893 -0.00555535 0.00097104 -0.000502416 0.00172304 -0.00096129)
(0.00822139 -0.00737858 0.000966909 -0.00439125 0.00209199 -0.000687468)
(0.00775645 -0.0064993 0.00166574 -0.00335308 0.00360551 -0.000652784)
(0.00743543 -0.00562077 0.00161138 -0.00217171 0.00348444 -0.000990514)
(0.00713668 -0.0049539 0.000833773 -0.00132944 0.00179372 -0.000962509)
(0.00929889 -0.00630184 0.000799379 -0.00546768 0.00216241 -0.000688294)
(0.00870551 -0.00555046 0.00137772 -0.0043013 0.00372585 -0.00065361)
(0.00825614 -0.00480001 0.00133339 -0.00299173 0.00360053 -0.000991406)
(0.00785986 -0.00423043 0.000691193 -0.00205211 0.00185356 -0.000963422)
(0.0101949 -0.00506998 0.000626299 -0.00636272 0.00221932 -0.000688613)
(0.00949427 -0.00446508 0.00108056 -0.00508945 0.00382324 -0.000653867)
(0.00893797 -0.00386127 0.0010466 -0.00367326 0.00369454 -0.00099169)
(0.00846061 -0.00340293 0.000543929 -0.00265277 0.00190216 -0.00096368)
(0.0108875 -0.00371321 0.00044833 -0.0070549 0.00226236 -0.000688361)
(0.0101031 -0.00326991 0.000775361 -0.00569805 0.00389707 -0.000653412)
(0.009464 -0.00282808 0.000751982 -0.0042 0.00376578 -0.000991185)
(0.00892433 -0.00249206 0.000392316 -0.0031169 0.00193902 -0.000963083)
(0.0113679 -0.00225922 0.00026574 -0.00752316 0.00229124 -0.000688126)
(0.0105159 -0.0019981 0.000462416 -0.00611405 0.00394704 -0.000652978)
(0.00982231 -0.0017282 0.000449396 -0.00456184 0.00381441 -0.000990658)
(0.00923922 -0.00151821 0.000236458 -0.00343579 0.00196291 -0.000962235)
(0.0115502 -0.000820618 -0.000234065 -0.00776205 0.00229617 -0.000694215)
(0.0107125 -0.000728965 -0.000141471 -0.00634489 0.00398569 -0.000648354)
(0.0100058 -0.000624923 -0.000144998 -0.00476733 0.00388047 -0.000985504)
(0.00941944 -0.000541597 -0.000238665 -0.00361075 0.00204248 -0.000968026)
(-0.00772486 -0.00100697 0.00124364 0.0163488 -0.000245339 -0.00531502)
(-0.00718115 -0.000948131 0.00208429 0.0152686 -0.000198619 -0.00311044)
(-0.00657924 -0.000881457 0.00200046 0.0143022 -0.000201543 -0.00115)
(-0.00626798 -0.000824691 0.00103485 0.0134461 -0.000249176 0.00101749)
(-0.00744333 -0.00281613 0.00123007 0.0160952 0.000138892 -0.0052775)
(-0.00690683 -0.00263002 0.0020521 0.0149935 0.000237246 -0.0030773)
(-0.00632287 -0.00244397 0.00195514 0.0140275 0.000228124 -0.00111533)
(-0.0060283 -0.00229535 0.000984 0.013154 0.000118085 0.00105994)
(-0.00686276 -0.00462807 0.00121423 0.0155001 0.000238557 -0.00527437)
(-0.00636414 -0.00430723 0.00202555 0.0144489 0.000401793 -0.00307375)
(-0.00581686 -0.00400174 0.00193013 0.0135197 0.000385355 -0.00111179)
(-0.0055497 -0.00377191 0.000972249 0.0126788 0.000198032 0.00106289)
(-0.0060014 -0.00631988 0.00119066 0.014638 0.000335585 -0.00527285)
(-0.00556344 -0.00588205 0.00198675 0.0136468 0.000562059 -0.00307213)
(-0.00507228 -0.00546468 0.0018934 0.0127747 0.000538001 -0.00111022)
(-0.00484812 -0.00515186 0.000953542 0.0119767 0.000275483 0.00106423)
(-0.00488616 -0.00785611 0.00115963 0.0135219 0.000429523 -0.0052718)
(-0.00452551 -0.00731219 0.00193573 0.0126082 0.000717486 -0.00307107)
(-0.00410794 -0.00679357 0.00184488 0.01181 0.000685878 -0.00110915)
(-0.00393891 -0.00640497 0.000928805 0.0110673 0.000350046 0.00106521)
(-0.00354434 -0.00919901 0.00112129 0.0121793 0.000520017 -0.00527082)
(-0.00327645 -0.00856248 0.00187278 0.0113586 0.000867629 -0.00307007)
(-0.0029474 -0.00795537 0.00178507 0.010649 0.00082867 -0.00110813)
(-0.00284474 -0.00750044 0.00089852 0.00997282 0.000421669 0.00106621)
(-0.00200894 -0.0103157 0.00107591 0.0106433 0.000606608 -0.00526983)
(-0.00184695 -0.00960217 0.00179836 0.00992859 0.0010118 -0.00306908)
(-0.00161912 -0.0089214 0.00171444 0.00932026 0.0009658 -0.00110709)
(-0.00159246 -0.0084112 0.000862974 0.00872017 0.000490213 0.00106725)
(-0.000317526 -0.011179 0.00102388 0.00895169 0.000688708 -0.00526891)
(-0.000271995 -0.0104057 0.00171299 0.00835345 0.00114915 -0.00306816)
(-0.000155696 -0.00966775 0.00163351 0.00785652 0.00109653 -0.00110614)
(-0.000212879 -0.00911464 0.000822445 0.00734016 0.000555403 0.00106821)
(0.00148865 -0.0117678 0.00096577 0.0071461 0.000765634 -0.00526819)
(0.00140997 -0.010953 0.00161744 0.00667194 0.00127879 -0.00306745)
(0.00140684 -0.0101758 0.00154291 0.00629393 0.00122008 -0.00110541)
(0.00125991 -0.00959322 0.000777275 0.00586688 0.000616892 0.00106893)
(0.00336794 -0.0120682 0.000903052 0.00527061 0.00083677 -0.00526779)
(0.00315732 -0.0112305 0.00151282 0.00492579 0.0014 -0.00306706)
(0.00302939 -0.0104329 0.00144346 0.00467162 0.0013358 -0.00110501)
(0.00278916 -0.00983521 0.000727848 0.00433726 0.000674393 0.00106932)
(0.00527061 -0.0120682 0.000836769 0.00336794 0.000903053 -0.00526779)
(0.0049258 -0.0112305 0.00139999 0.00315732 0.00151282 -0.00306706)
(0.00467162 -0.0104329 0.0013358 0.00302938 0.00144346 -0.00110501)
(0.00433726 -0.00983521 0.000674392 0.00278915 0.000727849 0.00106932)
(0.0071461 -0.0117678 0.000765633 0.00148865 0.000965769 -0.00526819)
(0.00667194 -0.010953 0.00127878 0.00140997 0.00161744 -0.00306745)
(0.00629394 -0.0101758 0.00122007 0.00140684 0.00154291 -0.00110541)
(0.00586688 -0.00959321 0.00061689 0.00125991 0.000777275 0.00106893)
(0.00895169 -0.011179 0.000688706 -0.000317523 0.00102388 -0.00526891)
(0.00835345 -0.0104057 0.00114915 -0.000271994 0.00171299 -0.00306816)
(0.00785652 -0.00966775 0.00109653 -0.000155696 0.00163351 -0.00110614)
(0.00734016 -0.00911464 0.000555402 -0.00021288 0.000822445 0.00106821)
(0.0106433 -0.0103157 0.000606606 -0.00200893 0.00107591 -0.00526984)
(0.00992859 -0.00960216 0.0010118 -0.00184695 0.00179835 -0.00306908)
(0.00932026 -0.0089214 0.000965799 -0.00161912 0.00171444 -0.00110709)
(0.00872017 -0.0084112 0.000490211 -0.00159246 0.000862973 0.00106725)
(0.0121793 -0.009199 0.000520015 -0.00354433 0.00112129 -0.00527082)
(0.0113586 -0.00856247 0.000867627 -0.00327645 0.00187278 -0.00307007)
(0.010649 -0.00795536 0.000828669 -0.00294739 0.00178507 -0.00110813)
(0.00997282 -0.00750043 0.000421667 -0.00284474 0.000898519 0.00106621)
(0.0135219 -0.00785611 0.000429521 -0.00488614 0.00115963 -0.0052718)
(0.0126082 -0.00731219 0.000717484 -0.0045255 0.00193572 -0.00307107)
(0.01181 -0.00679356 0.000685876 -0.00410794 0.00184488 -0.00110915)
(0.0110673 -0.00640497 0.000350045 -0.00393891 0.000928804 0.00106521)
(0.014638 -0.00631987 0.000335584 -0.00600138 0.00119066 -0.00527285)
(0.0136468 -0.00588204 0.000562058 -0.00556343 0.00198675 -0.00307213)
(0.0127747 -0.00546468 0.000538 -0.00507228 0.0018934 -0.00111022)
(0.0119767 -0.00515186 0.000275481 -0.00484812 0.00095354 0.00106423)
(0.0155001 -0.00462806 0.000238556 -0.00686274 0.00121423 -0.00527437)
(0.0144489 -0.00430722 0.000401792 -0.00636413 0.00202555 -0.00307375)
(0.0135197 -0.00400174 0.000385354 -0.00581685 0.00193013 -0.00111179)
(0.0126788 -0.0037719 0.000198031 -0.00554969 0.000972247 0.00106289)
(0.0160952 -0.00281613 0.000138891 -0.0074433 0.00123006 -0.00527751)
(0.0149935 -0.00263002 0.000237245 -0.00690681 0.0020521 -0.0030773)
(0.0140275 -0.00244397 0.000228123 -0.00632286 0.00195514 -0.00111533)
(0.013154 -0.00229535 0.000118084 -0.0060283 0.000983998 0.00105994)
(0.0163488 -0.00100697 -0.000245339 -0.00772484 0.00124364 -0.00531502)
(0.0152685 -0.00094813 -0.000198619 -0.00718114 0.00208428 -0.00311044)
(0.0143022 -0.000881456 -0.000201543 -0.00657923 0.00200046 -0.00115)
(0.0134461 -0.000824691 -0.000249176 -0.00626798 0.00103484 0.00101749)
(-0.00816263 -0.00118133 0.000549291 0.0202608 -0.000209507 -0.00796714)
(-0.00802373 -0.00113449 0.000887234 0.0189698 -0.000189723 -0.00471723)
(-0.00789491 -0.00108233 0.000834622 0.0177931 -0.000191318 -0.00163122)
(-0.00797838 -0.00103408 0.000412548 0.0167305 -0.000210919 0.0015569)
(-0.00783582 -0.00332538 0.000534608 0.0199518 5.72441e-05 -0.00791579)
(-0.00770553 -0.00316302 0.000863689 0.0186355 9.79396e-05 -0.00466712)
(-0.00759208 -0.00300702 0.000805732 0.0174529 9.31947e-05 -0.0015788)
(-0.00768512 -0.00287631 0.000382565 0.0163611 4.66317e-05 0.00161501)
(-0.00715133 -0.0054642 0.000527737 0.0192513 0.000101385 -0.00791163)
(-0.00705463 -0.00518101 0.000852137 0.0179803 0.000168064 -0.00466262)
(-0.00697129 -0.00492477 0.000795102 0.0168278 0.000159131 -0.00157424)
(-0.00708619 -0.00472805 0.000377915 0.0157659 7.8854e-05 0.0016192)
(-0.00613496 -0.00746174 0.000517197 0.0182338 0.00014473 -0.00790919)
(-0.00609173 -0.00707519 0.000835444 0.0170152 0.000236642 -0.00465997)
(-0.00605501 -0.00672551 0.000779626 0.0159102 0.000223178 -0.0015715)
(-0.00620695 -0.00645835 0.000370261 0.0148851 0.000110096 0.00162191)
(-0.00481848 -0.00927583 0.000503225 0.0169164 0.000186598 -0.00790766)
(-0.00484341 -0.00879549 0.000813538 0.0157659 0.00030293 -0.00465825)
(-0.0048682 -0.00836108 0.000759222 0.0147225 0.000284904 -0.00156964)
(-0.00506728 -0.00802929 0.000360193 0.0137447 0.000139791 0.00162388)
(-0.00323425 -0.0108618 0.000485926 0.0153314 0.000226645 -0.00790659)
(-0.00334108 -0.0102995 0.000786593 0.0142629 0.000366626 -0.00465698)
(-0.00343997 -0.009791 0.000734211 0.0132937 0.000344102 -0.00156818)
(-0.00369571 -0.00940257 0.000348067 0.0123726 0.000167836 0.0016255)
(-0.00142128 -0.0121806 0.00046548 0.013518 0.000264575 -0.00790575)
(-0.00162165 -0.0115503 0.000754849 0.0125431 0.000427404 -0.00465596)
(-0.00180529 -0.01098 0.000704866 0.0116586 0.000400553 -0.00156696)
(-0.00212592 -0.0105444 0.000334095 0.0108023 0.000194233 0.0016269)
(0.000576003 -0.0132001 0.00044215 0.0115207 0.000300038 -0.00790508)
(0.000272816 -0.012517 0.000718618 0.0106486 0.000484876 -0.00465513)
(-4.23425e-06 -0.0118987 0.000671469 0.00985735 0.000453977 -0.00156597)
(-0.000396485 -0.0114264 0.000318451 0.00907256 0.000218955 0.00162805)
(0.00270881 -0.0138953 0.000416351 0.00938851 0.000332619 -0.00790458)
(0.002296 -0.0131755 0.000678348 0.00862591 0.000538633 -0.00465454)
(0.00191886 -0.0125242 0.000634375 0.00793431 0.00050408 -0.00156525)
(0.00144988 -0.0120266 0.000301324 0.00722581 0.000241942 0.00162887)
(0.00492743 -0.0142497 0.00038936 0.0071737 0.000361978 -0.00790431)
(0.00439786 -0.0135092 0.000634811 0.0065253 0.000588442 -0.00465422)
(0.00391598 -0.0128407 0.000594042 0.00593748 0.000550698 -0.00156488)
(0.00336718 -0.0123302 0.000282902 0.00530819 0.000263193 0.00162931)
(0.00717371 -0.0142497 0.000361978 0.00492743 0.00038936 -0.00790431)
(0.00652531 -0.0135092 0.000588442 0.00439786 0.000634811 -0.00465422)
(0.00593748 -0.0128407 0.000550697 0.00391598 0.000594043 -0.00156488)
(0.0053082 -0.0123302 0.000263191 0.00336718 0.000282903 0.00162931)
(0.00938852 -0.0138953 0.000332618 0.00270881 0.00041635 -0.00790458)
(0.00862592 -0.0131755 0.000538631 0.002296 0.000678347 -0.00465454)
(0.00793431 -0.0125242 0.000504078 0.00191886 0.000634375 -0.00156526)
(0.00722581 -0.0120266 0.000241941 0.00144987 0.000301324 0.00162887)
(0.0115207 -0.0132001 0.000300037 0.000576008 0.000442148 -0.00790508)
(0.0106486 -0.012517 0.000484874 0.000272818 0.000718617 -0.00465513)
(0.00985735 -0.0118987 0.000453976 -4.23453e-06 0.000671468 -0.00156597)
(0.00907256 -0.0114264 0.000218953 -0.000396487 0.000318451 0.00162804)
(0.013518 -0.0121806 0.000264574 -0.00142127 0.000465478 -0.00790575)
(0.0125431 -0.0115503 0.000427402 -0.00162164 0.000754847 -0.00465596)
(0.0116586 -0.01098 0.000400551 -0.00180529 0.000704865 -0.00156697)
(0.0108024 -0.0105444 0.000194231 -0.00212592 0.000334095 0.00162689)
(0.0153314 -0.0108618 0.000226644 -0.00323424 0.000485923 -0.00790659)
(0.0142629 -0.0102995 0.000366624 -0.00334108 0.00078659 -0.00465699)
(0.0132937 -0.009791 0.0003441 -0.00343997 0.000734209 -0.00156819)
(0.0123725 -0.00940256 0.000167834 -0.00369571 0.000348066 0.0016255)
(0.0169164 -0.00927582 0.000186597 -0.00481846 0.000503222 -0.00790767)
(0.0157659 -0.00879548 0.000302929 -0.0048434 0.000813535 -0.00465825)
(0.0147225 -0.00836108 0.000284902 -0.0048682 0.000759219 -0.00156964)
(0.0137447 -0.00802928 0.00013979 -0.00506727 0.000360191 0.00162388)
(0.0182338 -0.00746173 0.000144728 -0.00613494 0.000517193 -0.00790919)
(0.0170152 -0.00707518 0.000236641 -0.00609172 0.00083544 -0.00465997)
(0.0159102 -0.00672551 0.000223177 -0.006055 0.000779623 -0.00157151)
(0.0148851 -0.00645835 0.000110095 -0.00620694 0.000370259 0.00162191)
(0.0192513 -0.00546419 0.000101384 -0.0071513 0.000527733 -0.00791164)
(0.0179803 -0.00518101 0.000168063 -0.00705461 0.000852133 -0.00466262)
(0.0168278 -0.00492477 0.00015913 -0.00697128 0.000795098 -0.00157425)
(0.0157659 -0.00472805 7.88531e-05 -0.00708619 0.000377913 0.0016192)
(0.0199518 -0.00332537 5.72435e-05 -0.00783579 0.000534604 -0.00791579)
(0.0186355 -0.00316301 9.79389e-05 -0.00770551 0.000863685 -0.00466713)
(0.0174529 -0.00300701 9.3194e-05 -0.00759207 0.000805728 -0.00157881)
(0.0163611 -0.0028763 4.66311e-05 -0.00768511 0.000382562 0.00161501)
(0.0202608 -0.00118132 -0.000209507 -0.0081626 0.000549287 -0.00796714)
(0.0189698 -0.00113449 -0.000189723 -0.00802371 0.00088723 -0.00471724)
(0.0177931 -0.00108233 -0.000191318 -0.0078949 0.000834618 -0.00163122)
(0.0167305 -0.00103408 -0.000210919 -0.00797837 0.000412545 0.0015569)
(-0.00872036 -0.00131712 0.000138416 0.0230454 -0.000148719 -0.00927118)
(-0.00870363 -0.00127095 0.000198535 0.0215985 -0.000144053 -0.00565771)
(-0.00874667 -0.00122123 0.000172962 0.0202733 -0.000144483 -0.00215447)
(-0.00895635 -0.00117209 6.72006e-05 0.0190707 -0.000148113 0.00138296)
(-0.00835568 -0.00371678 0.000126628 0.0226991 1.0347e-05 -0.00921622)
(-0.00834987 -0.00355134 0.000183761 0.0212244 1.92414e-05 -0.00560224)
(-0.00840813 -0.00339755 0.000157067 0.0198907 1.80591e-05 -0.00209649)
(-0.00862438 -0.00326265 5.22197e-05 0.0186535 8.24552e-06 0.00144511)
(-0.00759075 -0.00610697 0.000125099 0.0219176 2.12153e-05 -0.00921239)
(-0.00761946 -0.00581724 0.00018088 0.0204892 3.48076e-05 -0.00559814)
(-0.00770708 -0.00556458 0.000154505 0.0191846 3.20212e-05 -0.00209225)