/*--------------------------------*- C++ -*----------------------------------*\
| =========                 |                                                 |
| \\      /  F ield         | foam-extend: Open Source CFD                    |
|  \\    /   O peration     | Version:     3.1                                |
|   \\  /    A nd           | Web:         http://www.extend-project.de       |
|    \\/     M anipulation  |                                                 |
\*---------------------------------------------------------------------------*/
FoamFile
{
    version     2.0;
    format      ascii;
    class       pointVectorField;
    location    "0.0018";
    object      pointD;
}
// * * * * * * * * * * * * * * * * * * * * * * * * * * * * * * * * * * * * * //

dimensions      [0 1 0 0 0 0 0];

internalField   nonuniform List<vector> 
8505
(
(0 0 0)
(0 0 0)
(0 0 0)
(0 0 0)
(0 0 0)
(0 0 0)
(0 0 0)
(0 0 0)
(0 0 0)
(0 0 0)
(0 0 0)
(0 0 0)
(0 0 0)
(0 0 0)
(0 0 0)
(0 0 0)
(0 0 0)
(0 0 0)
(0 0 0)
(0 0 0)
(0 0 0)
(0 0 0)
(0 0 0)
(0 0 0)
(0 0 0)
(0 0 0)
(0 0 0)
(0 0 0)
(0 0 0)
(0 0 0)
(0 0 0)
(0 0 0)
(0 0 0)
(0 0 0)
(0 0 0)
(0 0 0)
(0 0 0)
(0 0 0)
(0 0 0)
(0 0 0)
(0 0 0)
(0 0 0)
(0 0 0)
(0 0 0)
(0 0 0)
(0 0 0)
(0 0 0)
(0 0 0)
(0 0 0)
(0 0 0)
(0 0 0)
(0 0 0)
(0 0 0)
(0 0 0)
(0 0 0)
(0 0 0)
(0 0 0)
(0 0 0)
(0 0 0)
(0 0 0)
(0 0 0)
(0 0 0)
(0 0 0)
(0 0 0)
(0 0 0)
(0 0 0)
(0 0 0)
(0 0 0)
(0 0 0)
(0 0 0)
(0 0 0)
(0 0 0)
(0 0 0)
(0 0 0)
(0 0 0)
(0 0 0)
(0 0 0)
(0 0 0)
(0 0 0)
(0 0 0)
(0 0 0)
(0 0 0)
(0 0 0)
(0 0 0)
(0 0 0)
(0 0 0)
(0 0 0)
(0 0 0)
(0 0 0)
(0 0 0)
(0 0 0)
(0 0 0)
(0 0 0)
(0 0 0)
(0 0 0)
(0 0 0)
(0 0 0)
(0 0 0)
(0 0 0)
(0 0 0)
(0 0 0)
(0 0 0)
(0 0 0)
(0 0 0)
(0 0 0)
(2.1467e-05 0 1.4398e-05)
(1.91376e-05 0 6.62495e-06)
(1.78876e-05 0 9.13079e-07)
(1.75314e-05 0 -4.66404e-06)
(1.80911e-05 0 -1.18574e-05)
(2.13115e-05 1.6423e-06 1.41412e-05)
(1.90223e-05 1.47598e-06 6.44763e-06)
(1.78043e-05 1.38436e-06 7.53429e-07)
(1.74782e-05 1.35942e-06 -4.85308e-06)
(1.80734e-05 1.40413e-06 -1.21411e-05)
(2.11005e-05 3.32264e-06 1.41342e-05)
(1.88361e-05 2.96795e-06 6.4443e-06)
(1.76327e-05 2.78074e-06 7.51374e-07)
(1.73133e-05 2.73224e-06 -4.85451e-06)
(1.79079e-05 2.82759e-06 -1.21413e-05)
(2.07681e-05 4.9726e-06 1.413e-05)
(1.854e-05 4.44005e-06 6.44174e-06)
(1.73557e-05 4.15831e-06 7.499e-07)
(1.70418e-05 4.08507e-06 -4.85514e-06)
(1.76276e-05 4.22729e-06 -1.21408e-05)
(2.031e-05 6.58934e-06 1.41278e-05)
(1.81312e-05 5.88331e-06 6.44059e-06)
(1.69731e-05 5.50914e-06 7.49483e-07)
(1.66661e-05 5.41129e-06 -4.85483e-06)
(1.72391e-05 5.59887e-06 -1.21394e-05)
(1.97277e-05 8.16392e-06 1.4127e-05)
(1.76113e-05 7.28913e-06 6.44041e-06)
(1.64864e-05 6.82504e-06 7.49808e-07)
(1.61882e-05 6.70318e-06 -4.85394e-06)
(1.67447e-05 6.93493e-06 -1.21377e-05)
(1.90245e-05 9.68713e-06 1.41272e-05)
(1.69834e-05 8.6491e-06 6.44088e-06)
(1.58984e-05 8.09806e-06 7.50586e-07)
(1.56107e-05 7.95298e-06 -4.85274e-06)
(1.61473e-05 8.22752e-06 -1.21359e-05)
(1.82044e-05 1.115e-05 1.4128e-05)
(1.62509e-05 9.95508e-06 6.44177e-06)
(1.52125e-05 9.3205e-06 7.51612e-07)
(1.49371e-05 9.15311e-06 -4.85143e-06)
(1.54504e-05 9.46873e-06 -1.2134e-05)
(1.72722e-05 1.25437e-05 1.41294e-05)
(1.54183e-05 1.11993e-05 6.4429e-06)
(1.4433e-05 1.0485e-05 7.52703e-07)
(1.41716e-05 1.02963e-05 -4.85019e-06)
(1.46585e-05 1.0651e-05 -1.21323e-05)
(1.62335e-05 1.38603e-05 1.41311e-05)
(1.44906e-05 1.23743e-05 6.44405e-06)
(1.35646e-05 1.15846e-05 7.53632e-07)
(1.33191e-05 1.13757e-05 -4.84925e-06)
(1.37768e-05 1.17672e-05 -1.21311e-05)
(1.50932e-05 1.50932e-05 1.4132e-05)
(1.34737e-05 1.34737e-05 6.4446e-06)
(1.26131e-05 1.26131e-05 7.54022e-07)
(1.23852e-05 1.23852e-05 -4.84888e-06)
(1.28111e-05 1.28111e-05 -1.21306e-05)
(1.38603e-05 1.62335e-05 1.41311e-05)
(1.23743e-05 1.44906e-05 6.44405e-06)
(1.15846e-05 1.35646e-05 7.53633e-07)
(1.13757e-05 1.33191e-05 -4.84925e-06)
(1.17672e-05 1.37768e-05 -1.21311e-05)
(1.25437e-05 1.72722e-05 1.41294e-05)
(1.11993e-05 1.54183e-05 6.44291e-06)
(1.0485e-05 1.4433e-05 7.52705e-07)
(1.02963e-05 1.41716e-05 -4.85019e-06)
(1.0651e-05 1.46585e-05 -1.21323e-05)
(1.11499e-05 1.82044e-05 1.4128e-05)
(9.95507e-06 1.62509e-05 6.44177e-06)
(9.32049e-06 1.52125e-05 7.51614e-07)
(9.1531e-06 1.49371e-05 -4.85143e-06)
(9.46873e-06 1.54504e-05 -1.2134e-05)
(9.68713e-06 1.90245e-05 1.41272e-05)
(8.64909e-06 1.69834e-05 6.44088e-06)
(8.09806e-06 1.58984e-05 7.5059e-07)
(7.95298e-06 1.56107e-05 -4.85274e-06)
(8.22751e-06 1.61472e-05 -1.21359e-05)
(8.16391e-06 1.97277e-05 1.4127e-05)
(7.28912e-06 1.76113e-05 6.44041e-06)
(6.82504e-06 1.64864e-05 7.49812e-07)
(6.70318e-06 1.61882e-05 -4.85393e-06)
(6.93493e-06 1.67447e-05 -1.21377e-05)
(6.58933e-06 2.031e-05 1.41278e-05)
(5.8833e-06 1.81312e-05 6.44059e-06)
(5.50914e-06 1.69731e-05 7.49488e-07)
(5.41128e-06 1.66661e-05 -4.85482e-06)
(5.59886e-06 1.72391e-05 -1.21394e-05)
(4.97259e-06 2.07681e-05 1.413e-05)
(4.44004e-06 1.854e-05 6.44175e-06)
(4.1583e-06 1.73557e-05 7.49906e-07)
(4.08506e-06 1.70418e-05 -4.85514e-06)
(4.22729e-06 1.76276e-05 -1.21407e-05)
(3.32264e-06 2.11005e-05 1.41342e-05)
(2.96794e-06 1.88361e-05 6.4443e-06)
(2.78074e-06 1.76327e-05 7.5138e-07)
(2.73224e-06 1.73133e-05 -4.8545e-06)
(2.82759e-06 1.79079e-05 -1.21413e-05)
(1.6423e-06 2.13115e-05 1.41412e-05)
(1.47598e-06 1.90223e-05 6.44764e-06)
(1.38436e-06 1.78043e-05 7.53435e-07)
(1.35942e-06 1.74782e-05 -4.85307e-06)
(1.40413e-06 1.80734e-05 -1.21411e-05)
(0 2.1467e-05 1.4398e-05)
(0 1.91376e-05 6.62496e-06)
(0 1.78876e-05 9.13085e-07)
(0 1.75314e-05 -4.66403e-06)
(0 1.80911e-05 -1.18574e-05)
(4.74618e-05 0 1.93092e-05)
(4.54625e-05 0 9.76872e-06)
(4.3959e-05 0 1.34437e-06)
(4.30115e-05 0 -6.96927e-06)
(4.24972e-05 0 -1.61491e-05)
(4.72482e-05 3.68898e-06 1.9024e-05)
(4.52624e-05 3.54898e-06 9.51271e-06)
(4.378e-05 3.43827e-06 1.09233e-06)
(4.28527e-05 3.36976e-06 -7.24773e-06)
(4.23515e-05 3.33519e-06 -1.64819e-05)
(4.67981e-05 7.39318e-06 1.90136e-05)
(4.48302e-05 7.08739e-06 9.50212e-06)
(4.33637e-05 6.86051e-06 1.08234e-06)
(4.24477e-05 6.72e-06 -7.25665e-06)
(4.19529e-05 6.64581e-06 -1.64868e-05)
(4.60647e-05 1.10434e-05 1.9008e-05)
(4.41279e-05 1.05827e-05 9.49739e-06)
(4.26844e-05 1.02404e-05 1.07861e-06)
(4.17829e-05 1.00281e-05 -7.25907e-06)
(4.1296e-05 9.91499e-06 -1.64874e-05)
(4.50499e-05 1.46242e-05 1.90054e-05)
(4.31558e-05 1.40123e-05 9.49573e-06)
(4.1744e-05 1.35572e-05 1.07788e-06)
(4.08623e-05 1.32742e-05 -7.25873e-06)
(4.0386e-05 1.31227e-05 -1.64857e-05)
(4.37589e-05 1.81138e-05 1.90048e-05)
(4.1919e-05 1.73549e-05 9.49585e-06)
(4.05475e-05 1.67901e-05 1.07873e-06)
(3.96909e-05 1.64383e-05 -7.25705e-06)
(3.92282e-05 1.62494e-05 -1.6483e-05)
(4.21992e-05 2.1491e-05 1.90056e-05)
(4.04246e-05 2.059e-05 9.49705e-06)
(3.91018e-05 1.9919e-05 1.08042e-06)
(3.82756e-05 1.95007e-05 -7.25472e-06)
(3.78292e-05 1.92757e-05 -1.64798e-05)
(4.03799e-05 2.47352e-05 1.90073e-05)
(3.86815e-05 2.36977e-05 9.49889e-06)
(3.74155e-05 2.29247e-05 1.08251e-06)
(3.66248e-05 2.24426e-05 -7.25222e-06)
(3.61976e-05 2.21829e-05 -1.64767e-05)
(3.8312e-05 2.78268e-05 1.90096e-05)
(3.67002e-05 2.66591e-05 9.50099e-06)
(3.54989e-05 2.57887e-05 1.0846e-06)
(3.47487e-05 2.52457e-05 -7.24991e-06)
(3.43433e-05 2.4953e-05 -1.64739e-05)
(3.60079e-05 3.07473e-05 1.9012e-05)
(3.44926e-05 2.94562e-05 9.50286e-06)
(3.33638e-05 2.84938e-05 1.08626e-06)
(3.26589e-05 2.7893e-05 -7.24822e-06)
(3.22781e-05 2.75689e-05 -1.6472e-05)
(3.34804e-05 3.34804e-05 1.90132e-05)
(3.20727e-05 3.20727e-05 9.50367e-06)
(3.10238e-05 3.10238e-05 1.08692e-06)
(3.03689e-05 3.03689e-05 -7.24758e-06)
(3.00154e-05 3.00154e-05 -1.64713e-05)
(3.07472e-05 3.60079e-05 1.90121e-05)
(2.94562e-05 3.44926e-05 9.50286e-06)
(2.84938e-05 3.33638e-05 1.08626e-06)
(2.7893e-05 3.26589e-05 -7.24822e-06)
(2.75689e-05 3.22781e-05 -1.6472e-05)
(2.78268e-05 3.8312e-05 1.90096e-05)
(2.66591e-05 3.67002e-05 9.501e-06)
(2.57887e-05 3.54989e-05 1.08461e-06)
(2.52457e-05 3.47487e-05 -7.24991e-06)
(2.4953e-05 3.43433e-05 -1.64739e-05)
(2.47352e-05 4.03799e-05 1.90073e-05)
(2.36977e-05 3.86815e-05 9.4989e-06)
(2.29247e-05 3.74155e-05 1.08252e-06)
(2.24426e-05 3.66248e-05 -7.25221e-06)
(2.21829e-05 3.61976e-05 -1.64767e-05)
(2.1491e-05 4.21992e-05 1.90056e-05)
(2.059e-05 4.04246e-05 9.49706e-06)
(1.9919e-05 3.91018e-05 1.08043e-06)
(1.95007e-05 3.82756e-05 -7.25472e-06)
(1.92757e-05 3.78292e-05 -1.64798e-05)
(1.81138e-05 4.37589e-05 1.90048e-05)
(1.73549e-05 4.1919e-05 9.49586e-06)
(1.67901e-05 4.05475e-05 1.07874e-06)
(1.64383e-05 3.96909e-05 -7.25704e-06)
(1.62494e-05 3.92282e-05 -1.6483e-05)
(1.46242e-05 4.50499e-05 1.90054e-05)
(1.40123e-05 4.31558e-05 9.49574e-06)
(1.35572e-05 4.1744e-05 1.07789e-06)
(1.32742e-05 4.08623e-05 -7.25872e-06)
(1.31227e-05 4.0386e-05 -1.64857e-05)
(1.10434e-05 4.60646e-05 1.9008e-05)
(1.05827e-05 4.41279e-05 9.4974e-06)
(1.02404e-05 4.26844e-05 1.07863e-06)
(1.00281e-05 4.17829e-05 -7.25906e-06)
(9.91499e-06 4.1296e-05 -1.64874e-05)
(7.39317e-06 4.67981e-05 1.90136e-05)
(7.08739e-06 4.48301e-05 9.50213e-06)
(6.8605e-06 4.33637e-05 1.08235e-06)
(6.72e-06 4.24477e-05 -7.25664e-06)
(6.64581e-06 4.19529e-05 -1.64868e-05)
(3.68897e-06 4.72482e-05 1.9024e-05)
(3.54898e-06 4.52624e-05 9.51272e-06)
(3.43827e-06 4.37799e-05 1.09234e-06)
(3.36976e-06 4.28527e-05 -7.24772e-06)
(3.33518e-06 4.23515e-05 -1.64819e-05)
(0 4.74618e-05 1.93092e-05)
(0 4.54624e-05 9.76873e-06)
(0 4.3959e-05 1.34438e-06)
(0 4.30114e-05 -6.96926e-06)
(0 4.24972e-05 -1.61491e-05)
(7.3787e-05 0 1.87321e-05)
(7.18842e-05 0 9.46821e-06)
(7.01891e-05 0 8.41744e-07)
(6.87287e-05 0 -7.69056e-06)
(6.74195e-05 0 -1.66471e-05)
(7.35002e-05 5.76029e-06 1.84638e-05)
(7.16023e-05 5.62666e-06 9.2106e-06)
(6.99168e-05 5.50156e-06 5.79876e-07)
(6.84655e-05 5.39449e-06 -7.97194e-06)
(6.71618e-05 5.30484e-06 -1.69618e-05)
(7.28089e-05 1.15142e-05 1.84534e-05)
(7.0926e-05 1.12232e-05 9.20013e-06)
(6.92556e-05 1.09659e-05 5.69699e-07)
(6.78179e-05 1.07451e-05 -7.98086e-06)
(6.65269e-05 1.0548e-05 -1.69675e-05)
(7.1671e-05 1.71899e-05 1.84476e-05)
(6.98173e-05 1.67509e-05 9.19497e-06)
(6.81723e-05 1.63621e-05 5.65389e-07)
(6.67566e-05 1.60283e-05 -7.98384e-06)
(6.54852e-05 1.57292e-05 -1.69688e-05)
(7.00934e-05 2.27589e-05 1.8445e-05)
(6.82802e-05 2.21749e-05 9.19326e-06)
(6.6671e-05 2.16574e-05 5.64592e-07)
(6.52861e-05 2.12127e-05 -7.98355e-06)
(6.40424e-05 2.08137e-05 -1.69673e-05)
(6.80853e-05 2.81869e-05 1.84448e-05)
(6.63237e-05 2.7462e-05 9.19374e-06)
(6.47604e-05 2.68191e-05 5.6583e-07)
(6.34149e-05 2.62664e-05 -7.98143e-06)
(6.22066e-05 2.57703e-05 -1.69642e-05)
(6.56587e-05 3.34408e-05 1.84463e-05)
(6.39596e-05 3.25795e-05 9.19558e-06)
(6.24517e-05 3.18154e-05 5.68202e-07)
(6.1154e-05 3.11582e-05 -7.97838e-06)
(5.99885e-05 3.05681e-05 -1.69603e-05)
(6.28281e-05 3.84883e-05 1.84488e-05)
(6.12019e-05 3.7496e-05 9.19817e-06)
(5.97589e-05 3.66155e-05 5.71069e-07)
(5.85169e-05 3.58579e-05 -7.97506e-06)
(5.74016e-05 3.51776e-05 -1.69564e-05)
(5.96107e-05 4.32986e-05 1.84518e-05)
(5.80674e-05 4.21814e-05 9.20097e-06)
(5.66982e-05 4.11898e-05 5.73872e-07)
(5.55199e-05 4.03365e-05 -7.97204e-06)
(5.44617e-05 3.95703e-05 -1.69529e-05)
(5.60258e-05 4.78427e-05 1.84548e-05)
(5.45751e-05 4.66072e-05 9.20333e-06)
(5.32885e-05 4.55105e-05 5.7602e-07)
(5.21815e-05 4.45666e-05 -7.96985e-06)
(5.11873e-05 4.3719e-05 -1.69505e-05)
(5.20944e-05 5.20944e-05 1.84562e-05)
(5.07469e-05 5.07469e-05 9.20431e-06)
(4.95515e-05 4.95515e-05 5.76852e-07)
(4.85228e-05 4.85228e-05 -7.96904e-06)
(4.7599e-05 4.7599e-05 -1.69496e-05)
(4.78427e-05 5.60258e-05 1.84548e-05)
(4.66072e-05 5.45751e-05 9.20333e-06)
(4.55105e-05 5.32885e-05 5.76023e-07)
(4.45666e-05 5.21815e-05 -7.96985e-06)
(4.3719e-05 5.11873e-05 -1.69505e-05)
(4.32986e-05 5.96107e-05 1.84518e-05)
(4.21814e-05 5.80674e-05 9.20097e-06)
(4.11898e-05 5.66982e-05 5.73877e-07)
(4.03365e-05 5.55199e-05 -7.97203e-06)
(3.95703e-05 5.44617e-05 -1.69529e-05)
(3.84883e-05 6.28281e-05 1.84488e-05)
(3.7496e-05 6.12019e-05 9.19818e-06)
(3.66155e-05 5.97589e-05 5.71076e-07)
(3.58579e-05 5.85169e-05 -7.97506e-06)
(3.51776e-05 5.74016e-05 -1.69564e-05)
(3.34408e-05 6.56587e-05 1.84463e-05)
(3.25795e-05 6.39596e-05 9.19558e-06)
(3.18154e-05 6.24517e-05 5.6821e-07)
(3.11582e-05 6.1154e-05 -7.97837e-06)
(3.05681e-05 5.99885e-05 -1.69603e-05)
(2.81869e-05 6.80853e-05 1.84449e-05)
(2.7462e-05 6.63237e-05 9.19375e-06)
(2.68191e-05 6.47604e-05 5.6584e-07)
(2.62664e-05 6.34149e-05 -7.98142e-06)
(2.57702e-05 6.22066e-05 -1.69642e-05)
(2.27589e-05 7.00934e-05 1.8445e-05)
(2.21749e-05 6.82801e-05 9.19328e-06)
(2.16574e-05 6.6671e-05 5.64604e-07)
(2.12127e-05 6.52861e-05 -7.98354e-06)
(2.08137e-05 6.40424e-05 -1.69673e-05)
(1.71899e-05 7.1671e-05 1.84476e-05)
(1.67509e-05 6.98172e-05 9.19498e-06)
(1.63621e-05 6.81723e-05 5.65403e-07)
(1.60283e-05 6.67566e-05 -7.98383e-06)
(1.57292e-05 6.54852e-05 -1.69688e-05)
(1.15142e-05 7.28088e-05 1.84534e-05)
(1.12232e-05 7.09259e-05 9.20015e-06)
(1.09659e-05 6.92556e-05 5.69713e-07)
(1.07451e-05 6.78179e-05 -7.98084e-06)
(1.0548e-05 6.65269e-05 -1.69675e-05)
(5.76028e-06 7.35002e-05 1.84638e-05)
(5.62666e-06 7.16023e-05 9.21061e-06)
(5.50156e-06 6.99168e-05 5.79891e-07)
(5.39449e-06 6.84654e-05 -7.97193e-06)
(5.30484e-06 6.71618e-05 -1.69618e-05)
(0 7.37869e-05 1.87321e-05)
(0 7.18842e-05 9.46823e-06)
(0 7.01891e-05 8.41759e-07)
(0 6.87286e-05 -7.69054e-06)
(0 6.74194e-05 -1.66471e-05)
(9.66377e-05 0 1.46155e-05)
(9.46597e-05 0 6.88442e-06)
(9.2743e-05 0 -5.10348e-07)
(9.0894e-05 0 -7.82515e-06)
(8.90524e-05 0 -1.53016e-05)
(9.62808e-05 7.554e-06 1.43961e-05)
(9.43035e-05 7.41454e-06 6.66628e-06)
(9.23904e-05 7.27258e-06 -7.35087e-07)
(9.05446e-05 7.13686e-06 -8.06337e-06)
(8.87053e-05 7.01086e-06 -1.55587e-05)
(9.53787e-05 1.5088e-05 1.43881e-05)
(9.34158e-05 1.47855e-05 6.65884e-06)
(9.15185e-05 1.44938e-05 -7.4203e-07)
(8.96885e-05 1.42131e-05 -8.0692e-06)
(8.78663e-05 1.39344e-05 -1.55622e-05)
(9.38894e-05 2.2522e-05 1.43834e-05)
(9.19565e-05 2.20655e-05 6.65496e-06)
(9.00877e-05 2.16247e-05 -7.4501e-07)
(8.82856e-05 2.12001e-05 -8.07097e-06)
(8.64909e-05 2.07774e-05 -1.55626e-05)
(9.18233e-05 2.98165e-05 1.43816e-05)
(8.99323e-05 2.92089e-05 6.65396e-06)
(8.81041e-05 2.86218e-05 -7.45082e-07)
(8.6341e-05 2.80559e-05 -8.07001e-06)
(8.45853e-05 2.74924e-05 -1.55606e-05)
(8.91928e-05 3.69267e-05 1.4382e-05)
(8.73556e-05 3.61719e-05 6.65504e-06)
(8.55793e-05 3.54422e-05 -7.43221e-07)
(8.38664e-05 3.47388e-05 -8.06725e-06)
(8.21606e-05 3.40381e-05 -1.55568e-05)
(8.60139e-05 4.38091e-05 1.43841e-05)
(8.42418e-05 4.29118e-05 6.65749e-06)
(8.25285e-05 4.20442e-05 -7.40207e-07)
(8.08764e-05 4.12077e-05 -8.06354e-06)
(7.92311e-05 4.03744e-05 -1.55523e-05)
(8.23059e-05 5.04214e-05 1.43872e-05)
(8.06098e-05 4.93873e-05 6.66069e-06)
(7.89702e-05 4.83872e-05 -7.36709e-07)
(7.73892e-05 4.74228e-05 -8.05957e-06)
(7.58147e-05 4.64621e-05 -1.55477e-05)
(7.80911e-05 5.67233e-05 1.43908e-05)
(7.64816e-05 5.55586e-05 6.664e-06)
(7.49259e-05 5.44321e-05 -7.33368e-07)
(7.34259e-05 5.33457e-05 -8.05598e-06)
(7.19322e-05 5.22637e-05 -1.55438e-05)
(7.33951e-05 6.26763e-05 1.43941e-05)
(7.18823e-05 6.1388e-05 6.66672e-06)
(7.04205e-05 6.0142e-05 -7.30859e-07)
(6.90112e-05 5.89403e-05 -8.05343e-06)
(6.76077e-05 5.77436e-05 -1.5541e-05)
(6.82456e-05 6.82456e-05 1.43956e-05)
(6.68404e-05 6.68404e-05 6.66782e-06)
(6.54822e-05 6.54822e-05 -7.29901e-07)
(6.41726e-05 6.41726e-05 -8.05249e-06)
(6.28684e-05 6.28684e-05 -1.554e-05)
(6.26763e-05 7.33951e-05 1.43941e-05)
(6.1388e-05 7.18823e-05 6.66672e-06)
(6.0142e-05 7.04205e-05 -7.30857e-07)
(5.89403e-05 6.90112e-05 -8.05342e-06)
(5.77436e-05 6.76077e-05 -1.5541e-05)
(5.67233e-05 7.80911e-05 1.43908e-05)
(5.55586e-05 7.64816e-05 6.66401e-06)
(5.44321e-05 7.49259e-05 -7.33363e-07)
(5.33457e-05 7.34259e-05 -8.05598e-06)
(5.22637e-05 7.19322e-05 -1.55438e-05)
(5.04214e-05 8.23059e-05 1.43872e-05)
(4.93872e-05 8.06098e-05 6.66069e-06)
(4.83872e-05 7.89702e-05 -7.36702e-07)
(4.74228e-05 7.73891e-05 -8.05956e-06)
(4.64621e-05 7.58147e-05 -1.55477e-05)
(4.38091e-05 8.60139e-05 1.43841e-05)
(4.29118e-05 8.42418e-05 6.6575e-06)
(4.20442e-05 8.25285e-05 -7.40198e-07)
(4.12077e-05 8.08764e-05 -8.06353e-06)
(4.03744e-05 7.92311e-05 -1.55523e-05)
(3.69267e-05 8.91928e-05 1.4382e-05)
(3.61718e-05 8.73556e-05 6.65505e-06)
(3.54422e-05 8.55793e-05 -7.4321e-07)
(3.47388e-05 8.38664e-05 -8.06724e-06)
(3.40381e-05 8.21605e-05 -1.55568e-05)
(2.98164e-05 9.18233e-05 1.43816e-05)
(2.92089e-05 8.99323e-05 6.65397e-06)
(2.86218e-05 8.8104e-05 -7.4507e-07)
(2.80559e-05 8.6341e-05 -8.06999e-06)
(2.74924e-05 8.45853e-05 -1.55605e-05)
(2.2522e-05 9.38894e-05 1.43834e-05)
(2.20655e-05 9.19565e-05 6.65497e-06)
(2.16247e-05 9.00877e-05 -7.44996e-07)
(2.12001e-05 8.82856e-05 -8.07096e-06)
(2.07773e-05 8.64909e-05 -1.55626e-05)
(1.5088e-05 9.53786e-05 1.43881e-05)
(1.47855e-05 9.34158e-05 6.65886e-06)
(1.44938e-05 9.15185e-05 -7.42016e-07)
(1.42131e-05 8.96885e-05 -8.06918e-06)
(1.39344e-05 8.78663e-05 -1.55622e-05)
(7.554e-06 9.62807e-05 1.43962e-05)
(7.41454e-06 9.43034e-05 6.66629e-06)
(7.27258e-06 9.23904e-05 -7.35072e-07)
(7.13686e-06 9.05446e-05 -8.06335e-06)
(7.01086e-06 8.87053e-05 -1.55587e-05)
(0 9.66376e-05 1.46155e-05)
(0 9.46597e-05 6.88444e-06)
(0 9.2743e-05 -5.10333e-07)
(0 9.0894e-05 -7.82513e-06)
(0 8.90524e-05 -1.53016e-05)
(0.000114083 0 8.53257e-06)
(0.000111961 0 2.93021e-06)
(0.000109845 0 -2.52676e-06)
(0.000107728 0 -7.92386e-06)
(0.000105562 0 -1.33408e-05)
(0.000113669 8.91993e-06 8.37623e-06)
(0.000111546 8.77034e-06 2.77092e-06)
(0.000109432 8.61362e-06 -2.69222e-06)
(0.000107315 8.45835e-06 -8.0976e-06)
(0.000105151 8.31057e-06 -1.35236e-05)
(0.000112604 1.78129e-05 8.3713e-06)
(0.000110497 1.74888e-05 2.76695e-06)
(0.000108399 1.71669e-05 -2.69549e-06)
(0.0001063 1.68454e-05 -8.09986e-06)
(0.000104156 1.65179e-05 -1.35242e-05)
(0.000110846 2.65888e-05 8.36841e-06)
(0.00010877 2.60997e-05 2.76507e-06)
(0.000106704 2.56132e-05 -2.69636e-06)
(0.000104637 2.51268e-05 -8.09958e-06)
(0.000102526 2.46297e-05 -1.35227e-05)
(0.000108407 3.52003e-05 8.36765e-06)
(0.000106376 3.45489e-05 2.76528e-06)
(0.000104354 3.39008e-05 -2.69513e-06)
(0.000102332 3.32524e-05 -8.09725e-06)
(0.000100266 3.25897e-05 -1.35192e-05)
(0.000105301 4.35944e-05 8.36877e-06)
(0.000103327 4.27847e-05 2.76718e-06)
(0.000101364 4.19789e-05 -2.69232e-06)
(9.93987e-05 4.11727e-05 -8.09345e-06)
(9.73914e-05 4.03486e-05 -1.35144e-05)
(0.000101547 5.17197e-05 8.37134e-06)
(9.9644e-05 5.07567e-05 2.77027e-06)
(9.77497e-05 4.97983e-05 -2.68854e-06)
(9.58546e-05 4.88393e-05 -8.08885e-06)
(9.39185e-05 4.78591e-05 -1.35089e-05)
(9.71693e-05 5.95264e-05 8.37489e-06)
(9.53477e-05 5.84162e-05 2.77399e-06)
(9.35348e-05 5.7311e-05 -2.68441e-06)
(9.17213e-05 5.62051e-05 -8.08412e-06)
(8.98686e-05 5.5075e-05 -1.35034e-05)
(9.21932e-05 6.69666e-05 8.37884e-06)
(9.04646e-05 6.5716e-05 2.77771e-06)
(8.87446e-05 6.44709e-05 -2.68057e-06)
(8.70241e-05 6.3225e-05 -8.07994e-06)
(8.52664e-05 6.19519e-05 -1.34988e-05)
(8.66491e-05 7.39949e-05 8.38241e-06)
(8.50244e-05 7.26114e-05 2.78069e-06)
(8.34084e-05 7.1234e-05 -2.67774e-06)
(8.17919e-05 6.98558e-05 -8.07701e-06)
(8.01404e-05 6.84476e-05 -1.34956e-05)
(8.05699e-05 8.05699e-05 8.384e-06)
(7.90608e-05 7.90608e-05 2.78189e-06)
(7.75593e-05 7.75593e-05 -2.67667e-06)
(7.60573e-05 7.60573e-05 -8.07594e-06)
(7.45226e-05 7.45226e-05 -1.34945e-05)
(7.39949e-05 8.66491e-05 8.38241e-06)
(7.26114e-05 8.50244e-05 2.78069e-06)
(7.1234e-05 8.34084e-05 -2.67774e-06)
(6.98558e-05 8.17919e-05 -8.07701e-06)
(6.84476e-05 8.01404e-05 -1.34956e-05)
(6.69666e-05 9.21932e-05 8.37884e-06)
(6.57159e-05 9.04646e-05 2.77772e-06)
(6.44709e-05 8.87446e-05 -2.68056e-06)
(6.3225e-05 8.70241e-05 -8.07994e-06)
(6.19519e-05 8.52664e-05 -1.34988e-05)
(5.95264e-05 9.71693e-05 8.3749e-06)
(5.84161e-05 9.53477e-05 2.77399e-06)
(5.7311e-05 9.35348e-05 -2.6844e-06)
(5.62051e-05 9.17213e-05 -8.08411e-06)
(5.5075e-05 8.98686e-05 -1.35034e-05)
(5.17197e-05 0.000101547 8.37135e-06)
(5.07567e-05 9.96439e-05 2.77028e-06)
(4.97983e-05 9.77497e-05 -2.68853e-06)
(4.88393e-05 9.58546e-05 -8.08884e-06)
(4.78591e-05 9.39185e-05 -1.35089e-05)
(4.35944e-05 0.000105301 8.36877e-06)
(4.27847e-05 0.000103327 2.76719e-06)
(4.19789e-05 0.000101363 -2.69231e-06)
(4.11727e-05 9.93987e-05 -8.09344e-06)
(4.03486e-05 9.73914e-05 -1.35144e-05)
(3.52003e-05 0.000108407 8.36766e-06)
(3.45489e-05 0.000106376 2.76529e-06)
(3.39008e-05 0.000104354 -2.69512e-06)
(3.32524e-05 0.000102332 -8.09724e-06)
(3.25897e-05 0.000100266 -1.35192e-05)
(2.65888e-05 0.000110846 8.36842e-06)
(2.60997e-05 0.00010877 2.76508e-06)
(2.56132e-05 0.000106704 -2.69635e-06)
(2.51268e-05 0.000104637 -8.09957e-06)
(2.46297e-05 0.000102526 -1.35227e-05)
(1.78129e-05 0.000112604 8.37131e-06)
(1.74888e-05 0.000110497 2.76696e-06)
(1.71669e-05 0.000108399 -2.69548e-06)
(1.68454e-05 0.0001063 -8.09985e-06)
(1.65179e-05 0.000104156 -1.35242e-05)
(8.91993e-06 0.000113668 8.37624e-06)
(8.77034e-06 0.000111546 2.77093e-06)
(8.61361e-06 0.000109432 -2.69221e-06)
(8.45835e-06 0.000107315 -8.09758e-06)
(8.31057e-06 0.000105151 -1.35236e-05)
(0 0.000114083 8.53258e-06)
(0 0.000111961 2.93022e-06)
(0 0.000109845 -2.52675e-06)
(0 0.000107728 -7.92385e-06)
(0 0.000105562 -1.33407e-05)
(0.00012545 0 1.53691e-06)
(0.000123191 0 -1.74777e-06)
(0.000120934 0 -5.00427e-06)
(0.000118658 0 -8.22496e-06)
(0.000116326 0 -1.14017e-05)
(0.000124996 9.8073e-06 1.44685e-06)
(0.000122737 9.64859e-06 -1.84168e-06)
(0.00012048 9.48168e-06 -5.10253e-06)
(0.000118205 9.31521e-06 -8.32713e-06)
(0.000115874 9.15664e-06 -1.15065e-05)
(0.000123826 1.95849e-05 1.44469e-06)
(0.000121582 1.92409e-05 -1.8427e-06)
(0.000119343 1.8898e-05 -5.10269e-06)
(0.000117087 1.85532e-05 -8.32634e-06)
(0.000114777 1.82013e-05 -1.15044e-05)
(0.000121891 2.92344e-05 1.44362e-06)
(0.000119682 2.8715e-05 -1.84255e-06)
(0.000117476 2.81967e-05 -5.10138e-06)
(0.000115254 2.76748e-05 -8.32381e-06)
(0.000112979 2.71405e-05 -1.15006e-05)
(0.000119207 3.87032e-05 1.44394e-06)
(0.000117046 3.80111e-05 -1.841e-06)
(0.000114887 3.73203e-05 -5.0986e-06)
(0.000112713 3.66244e-05 -8.31974e-06)
(0.000110488 3.59118e-05 -1.14952e-05)
(0.000115791 4.79332e-05 1.44564e-06)
(0.00011369 4.70724e-05 -1.83822e-06)
(0.000111593 4.62133e-05 -5.09464e-06)
(0.000109481 4.53476e-05 -8.31453e-06)
(0.000107318 4.44612e-05 -1.14886e-05)
(0.000111662 5.68677e-05 1.4485e-06)
(0.000109636 5.58436e-05 -1.83452e-06)
(0.000107613 5.48213e-05 -5.08997e-06)
(0.000105576 5.37912e-05 -8.30874e-06)
(0.00010349 5.27365e-05 -1.14816e-05)
(0.000106847 6.54521e-05 1.45219e-06)
(0.000104908 6.4271e-05 -1.83038e-06)
(0.000102972 6.30918e-05 -5.08513e-06)
(0.000101022 6.19036e-05 -8.30304e-06)
(9.90266e-05 6.06871e-05 -1.1475e-05)
(0.000101375 7.36336e-05 1.45619e-06)
(9.95344e-05 7.23028e-05 -1.82636e-06)
(9.7698e-05 7.0974e-05 -5.08078e-06)
(9.5848e-05 6.9635e-05 -8.29813e-06)
(9.39548e-05 6.82643e-05 -1.14693e-05)
(9.52776e-05 8.13625e-05 1.45981e-06)
(9.35483e-05 7.989e-05 -1.8232e-06)
(9.18229e-05 7.84197e-05 -5.07763e-06)
(9.00848e-05 7.69381e-05 -8.29473e-06)
(8.83062e-05 7.54217e-05 -1.14655e-05)
(8.85926e-05 8.85926e-05 1.46142e-06)
(8.69864e-05 8.69864e-05 -1.82194e-06)
(8.53834e-05 8.53834e-05 -5.07645e-06)
(8.37685e-05 8.37685e-05 -8.2935e-06)
(8.21158e-05 8.21158e-05 -1.14642e-05)
(8.13625e-05 9.52776e-05 1.45982e-06)
(7.989e-05 9.35483e-05 -1.8232e-06)
(7.84197e-05 9.18229e-05 -5.07763e-06)
(7.69381e-05 9.00848e-05 -8.29472e-06)
(7.54217e-05 8.83062e-05 -1.14655e-05)
(7.36336e-05 0.000101375 1.4562e-06)
(7.23028e-05 9.95344e-05 -1.82636e-06)
(7.0974e-05 9.7698e-05 -5.08077e-06)
(6.9635e-05 9.5848e-05 -8.29812e-06)
(6.82643e-05 9.39548e-05 -1.14693e-05)
(6.5452e-05 0.000106847 1.45219e-06)
(6.42709e-05 0.000104908 -1.83038e-06)
(6.30918e-05 0.000102972 -5.08513e-06)
(6.19036e-05 0.000101022 -8.30304e-06)
(6.06871e-05 9.90266e-05 -1.14749e-05)
(5.68677e-05 0.000111662 1.44851e-06)
(5.58436e-05 0.000109636 -1.83452e-06)
(5.48213e-05 0.000107613 -5.08996e-06)
(5.37912e-05 0.000105576 -8.30874e-06)
(5.27365e-05 0.00010349 -1.14816e-05)
(4.79332e-05 0.000115791 1.44564e-06)
(4.70724e-05 0.00011369 -1.83821e-06)
(4.62133e-05 0.000111593 -5.09464e-06)
(4.53476e-05 0.000109481 -8.31452e-06)
(4.44612e-05 0.000107318 -1.14886e-05)
(3.87032e-05 0.000119207 1.44395e-06)
(3.80111e-05 0.000117045 -1.841e-06)
(3.73203e-05 0.000114887 -5.09859e-06)
(3.66244e-05 0.000112713 -8.31973e-06)
(3.59118e-05 0.000110488 -1.14952e-05)
(2.92344e-05 0.000121891 1.44363e-06)
(2.8715e-05 0.000119682 -1.84254e-06)
(2.81967e-05 0.000117476 -5.10137e-06)
(2.76747e-05 0.000115254 -8.3238e-06)
(2.71405e-05 0.000112979 -1.15006e-05)
(1.95849e-05 0.000123826 1.4447e-06)
(1.92409e-05 0.000121582 -1.84269e-06)
(1.8898e-05 0.000119343 -5.10269e-06)
(1.85532e-05 0.000117086 -8.32633e-06)
(1.82013e-05 0.000114777 -1.15044e-05)
(9.8073e-06 0.000124996 1.44686e-06)
(9.64858e-06 0.000122737 -1.84167e-06)
(9.48167e-06 0.00012048 -5.10252e-06)
(9.31521e-06 0.000118205 -8.32712e-06)
(9.15664e-06 0.000115874 -1.15065e-05)
(0 0.00012545 1.53692e-06)
(0 0.000123191 -1.74776e-06)
(0 0.000120934 -5.00426e-06)
(0 0.000118658 -8.22495e-06)
(0 0.000116326 -1.14017e-05)
(0.000130736 0 -5.71019e-06)
(0.000128392 0 -6.70328e-06)
(0.000126065 0 -7.74331e-06)
(0.00012373 0 -8.77294e-06)
(0.00012135 0 -9.73741e-06)
(0.000130263 1.0217e-05 -5.73591e-06)
(0.000127919 1.00532e-05 -6.73212e-06)
(0.000125593 9.88182e-06 -7.77408e-06)
(0.000123258 9.71165e-06 -8.80392e-06)
(0.00012088 9.5507e-06 -9.76648e-06)
(0.000129041 2.04042e-05 -5.73589e-06)
(0.000126714 2.00487e-05 -6.73087e-06)
(0.000124406 1.96965e-05 -7.77183e-06)
(0.00012209 1.93439e-05 -8.8007e-06)
(0.000119734 1.89864e-05 -9.76226e-06)
(0.000127023 3.04582e-05 -5.73551e-06)
(0.000124731 2.99211e-05 -6.729e-06)
(0.000122457 2.93885e-05 -7.76858e-06)
(0.000120176 2.88544e-05 -8.79607e-06)
(0.000117856 2.83112e-05 -9.75617e-06)
(0.000124224 4.03241e-05 -5.73442e-06)
(0.000121981 3.96079e-05 -6.72629e-06)
(0.000119756 3.88977e-05 -7.76429e-06)
(0.000117524 3.81852e-05 -8.79016e-06)
(0.000115254 3.74604e-05 -9.74852e-06)
(0.000120661 4.99413e-05 -5.73247e-06)
(0.000118481 4.905e-05 -6.72275e-06)
(0.000116319 4.81662e-05 -7.75915e-06)
(0.000114151 4.72796e-05 -8.78334e-06)
(0.000111945 4.63774e-05 -9.73986e-06)
(0.000116356 5.92508e-05 -5.7297e-06)
(0.000114254 5.81898e-05 -6.7186e-06)
(0.000112168 5.71377e-05 -7.75355e-06)
(0.000110076 5.60821e-05 -8.77615e-06)
(0.000107949 5.5008e-05 -9.73094e-06)
(0.000111336 6.81957e-05 -5.72627e-06)
(0.000109324 6.69715e-05 -6.71419e-06)
(0.000107328 6.57573e-05 -7.748e-06)
(0.000105327 6.45392e-05 -8.76929e-06)
(0.000103291 6.32998e-05 -9.72258e-06)
(0.000105632 7.67213e-05 -5.72253e-06)
(0.000103722 7.53413e-05 -6.71002e-06)
(0.000101829 7.39725e-05 -7.74314e-06)
(9.99301e-05 7.25992e-05 -8.76349e-06)
(9.79987e-05 7.12021e-05 -9.71566e-06)
(9.92772e-05 8.47754e-05 -5.7191e-06)
(9.74829e-05 8.32481e-05 -6.70679e-06)
(9.57042e-05 8.1733e-05 -7.73967e-06)
(9.39204e-05 8.02131e-05 -8.75954e-06)
(9.2106e-05 7.86669e-05 -9.71103e-06)
(9.23102e-05 9.23101e-05 -5.71755e-06)
(9.06438e-05 9.06438e-05 -6.70551e-06)
(8.89916e-05 8.89916e-05 -7.73839e-06)
(8.73345e-05 8.73345e-05 -8.75812e-06)
(8.56489e-05 8.56489e-05 -9.70938e-06)
(8.47754e-05 9.92772e-05 -5.7191e-06)
(8.32481e-05 9.74828e-05 -6.70679e-06)
(8.1733e-05 9.57042e-05 -7.73967e-06)
(8.0213e-05 9.39203e-05 -8.75954e-06)
(7.86669e-05 9.2106e-05 -9.71102e-06)
(7.67213e-05 0.000105632 -5.72253e-06)
(7.53413e-05 0.000103722 -6.71002e-06)
(7.39725e-05 0.000101829 -7.74314e-06)
(7.25992e-05 9.99301e-05 -8.76349e-06)
(7.12021e-05 9.79987e-05 -9.71565e-06)
(6.81957e-05 0.000111336 -5.72626e-06)
(6.69714e-05 0.000109324 -6.71419e-06)
(6.57573e-05 0.000107328 -7.748e-06)
(6.45392e-05 0.000105327 -8.76929e-06)
(6.32998e-05 0.000103291 -9.72257e-06)
(5.92508e-05 0.000116356 -5.7297e-06)
(5.81898e-05 0.000114254 -6.7186e-06)
(5.71376e-05 0.000112168 -7.75355e-06)
(5.60821e-05 0.000110076 -8.77615e-06)
(5.5008e-05 0.000107949 -9.73093e-06)
(4.99412e-05 0.000120661 -5.73247e-06)
(4.905e-05 0.000118481 -6.72275e-06)
(4.81662e-05 0.000116319 -7.75915e-06)
(4.72796e-05 0.000114151 -8.78333e-06)
(4.63774e-05 0.000111945 -9.73986e-06)
(4.03241e-05 0.000124224 -5.73442e-06)
(3.96079e-05 0.000121981 -6.72628e-06)
(3.88977e-05 0.000119756 -7.76429e-06)
(3.81852e-05 0.000117524 -8.79016e-06)
(3.74603e-05 0.000115254 -9.74851e-06)
(3.04582e-05 0.000127023 -5.7355e-06)
(2.9921e-05 0.000124731 -6.729e-06)
(2.93885e-05 0.000122457 -7.76858e-06)
(2.88544e-05 0.000120176 -8.79607e-06)
(2.83112e-05 0.000117856 -9.75616e-06)
(2.04042e-05 0.000129041 -5.73588e-06)
(2.00487e-05 0.000126714 -6.73086e-06)
(1.96965e-05 0.000124406 -7.77183e-06)
(1.93439e-05 0.00012209 -8.80069e-06)
(1.89864e-05 0.000119734 -9.76226e-06)
(1.0217e-05 0.000130262 -5.73591e-06)
(1.00532e-05 0.000127919 -6.73212e-06)
(9.88182e-06 0.000125593 -7.77407e-06)
(9.71165e-06 0.000123258 -8.80391e-06)
(9.5507e-06 0.00012088 -9.76648e-06)
(0 0.000130736 -5.71018e-06)
(0 0.000128392 -6.70328e-06)
(0 0.000126065 -7.74331e-06)
(0 0.00012373 -8.77293e-06)
(0 0.00012135 -9.7374e-06)
(0.000130239 0 -1.27782e-05)
(0.00012788 0 -1.16144e-05)
(0.000125561 0 -1.05563e-05)
(0.000123254 0 -9.51309e-06)
(0.000120924 0 -8.39856e-06)
(0.000129765 1.0173e-05 -1.27438e-05)
(0.000127407 1.00093e-05 -1.1582e-05)
(0.00012509 9.83954e-06 -1.05234e-05)
(0.000122784 9.67247e-06 -9.47708e-06)
(0.000120457 9.51609e-06 -8.357e-06)
(0.000128546 2.03177e-05 -1.27422e-05)
(0.000126204 1.99619e-05 -1.1579e-05)
(0.000123905 1.96128e-05 -1.05193e-05)
(0.000121618 1.92665e-05 -9.47192e-06)
(0.000119313 1.89187e-05 -8.35097e-06)
(0.000126532 3.03297e-05 -1.27408e-05)
(0.000124226 2.97918e-05 -1.15758e-05)
(0.00012196 2.92635e-05 -1.05144e-05)
(0.000119708 2.87387e-05 -9.46546e-06)
(0.000117437 2.82098e-05 -8.34275e-06)
(0.00012374 4.01546e-05 -1.27394e-05)
(0.000121483 3.94367e-05 -1.15723e-05)
(0.000119265 3.87318e-05 -1.05088e-05)
(0.000117061 3.80311e-05 -9.45783e-06)