/*--------------------------------*- C++ -*----------------------------------*\
| =========                 |                                                 |
| \\      /  F ield         | foam-extend: Open Source CFD                    |
|  \\    /   O peration     | Version:     3.1                                |
|   \\  /    A nd           | Web:         http://www.extend-project.de       |
|    \\/     M anipulation  |                                                 |
\*---------------------------------------------------------------------------*/
FoamFile
{
    version     2.0;
    format      ascii;
    class       volSymmTensorField;
    location    "0.0018";
    object      sigma;
}
// * * * * * * * * * * * * * * * * * * * * * * * * * * * * * * * * * * * * * //

dimensions      [1 -1 -2 0 0 0 0];

internalField   nonuniform List<symmTensor> 
6400
(
(1343.41 -68.1418 1950.45 2852.92 43.1551 6237.24)
(311.806 -42.9236 2092.45 1270.14 57.5985 2232.67)
(-555.146 -21.8971 1973.36 -40.5208 53.4678 -1130.71)
(-1601.09 -0.84604 1615.54 -1522.23 32.7131 -4971.19)
(1353.49 -176.418 1938.98 2828.72 224.973 6179.73)
(317.067 -112.262 2076.16 1251.24 242.616 2187.51)
(-555.772 -60.2488 1955.28 -55.6942 228.909 -1177.74)
(-1610.94 -8.88482 1595.39 -1537.63 186.588 -5035.77)
(1389.27 -289.439 1914.02 2788.42 377.893 6176.33)
(340.798 -183.264 2049.59 1227.34 405.505 2186.33)
(-542.421 -97.9577 1930.46 -68.6293 382.389 -1178.28)
(-1607.68 -13.9302 1575.56 -1540.24 312.289 -5035.78)
(1442.54 -395.058 1877.8 2733.09 527.759 6174.5)
(374.544 -250.178 2010.86 1192.38 565.717 2185.3)
(-524.312 -133.589 1894 -87.3568 533.236 -1178.73)
(-1605.07 -18.8106 1545.83 -1543.24 435.511 -5035.71)
(1511.88 -490.944 1830.14 2662.54 673.98 6173.63)
(418.505 -310.962 1959.87 1147.69 722.177 2184.91)
(-500.785 -166.033 1845.98 -111.242 680.557 -1178.71)
(-1601.64 -23.3437 1506.63 -1546.66 555.768 -5035.2)
(1595.58 -574.756 1771.27 2578.27 815.768 6173.42)
(471.599 -364.097 1896.85 1094.29 873.963 2184.98)
(-472.345 -194.417 1786.63 -139.731 823.49 -1178.34)
(-1597.47 -27.3322 1458.17 -1550.58 672.421 -5034.45)
(1691.53 -644.455 1701.5 2482.22 952.322 6173.67)
(532.479 -408.282 1822.16 1033.43 1020.18 2185.37)
(-439.724 -218.021 1716.28 -172.186 961.188 -1177.77)
(-1592.68 -30.6523 1400.74 -1555.01 784.79 -5033.59)
(1797.36 -698.346 1621.24 2376.68 1082.86 6174.27)
(599.63 -442.432 1736.24 966.552 1159.98 2185.95)
(-403.752 -236.256 1635.36 -207.861 1092.83 -1177.12)
(-1587.4 -33.2082 1334.7 -1559.88 892.2 -5032.74)
(1910.47 -735.127 1530.97 2264.18 1206.61 6175.1)
(671.409 -465.705 1639.62 895.251 1292.51 2186.61)
(-365.344 -248.659 1544.39 -245.912 1217.63 -1176.51)
(-1581.83 -34.9255 1260.49 -1565.1 994.006 -5032.02)
(2028.54 -753.993 1431.28 2147.56 1322.94 6176.05)
(745.998 -477.517 1532.97 821.229 1417.05 2187.14)
(-325.539 -254.926 1444.01 -285.424 1334.89 -1176.11)
(-1576.16 -35.7732 1178.62 -1570.57 1089.64 -5031.6)
(2147.56 -753.993 1322.94 2028.53 1431.28 6176.05)
(821.229 -477.517 1417.05 745.998 1532.97 2187.14)
(-285.423 -254.926 1334.89 -325.539 1444.01 -1176.1)
(-1570.57 -35.7732 1089.64 -1576.16 1178.62 -5031.6)
(2264.18 -735.127 1206.61 1910.47 1530.97 6175.1)
(895.251 -465.704 1292.51 671.409 1639.62 2186.61)
(-245.911 -248.659 1217.63 -365.344 1544.39 -1176.51)
(-1565.1 -34.9255 994.005 -1581.83 1260.49 -5032.02)
(2376.68 -698.345 1082.85 1797.36 1621.24 6174.27)
(966.553 -442.432 1159.98 599.63 1736.24 2185.95)
(-207.86 -236.256 1092.83 -403.752 1635.36 -1177.12)
(-1559.88 -33.2081 892.199 -1587.4 1334.7 -5032.74)
(2482.22 -644.455 952.321 1691.53 1701.5 6173.68)
(1033.43 -408.281 1020.18 532.479 1822.16 2185.37)
(-172.185 -218.021 961.187 -439.724 1716.28 -1177.77)
(-1555.01 -30.6522 784.789 -1592.67 1400.74 -5033.59)
(2578.27 -574.755 815.767 1595.58 1771.27 6173.42)
(1094.29 -364.097 873.962 471.6 1896.85 2184.99)
(-139.73 -194.417 823.489 -472.344 1786.62 -1178.33)
(-1550.58 -27.3321 672.42 -1597.47 1458.17 -5034.44)
(2662.54 -490.943 673.979 1511.88 1830.14 6173.63)
(1147.69 -310.962 722.176 418.506 1959.87 2184.91)
(-111.241 -166.032 680.556 -500.784 1845.98 -1178.7)
(-1546.65 -23.3436 555.767 -1601.64 1506.63 -5035.19)
(2733.09 -395.058 527.759 1442.54 1877.8 6174.51)
(1192.38 -250.178 565.716 374.545 2010.86 2185.3)
(-87.3558 -133.588 533.235 -524.311 1894 -1178.73)
(-1543.24 -18.8105 435.51 -1605.07 1545.82 -5035.71)
(2788.42 -289.439 377.892 1389.27 1914.02 6176.33)
(1227.34 -183.263 405.504 340.799 2049.59 2186.33)
(-68.6283 -97.9576 382.388 -542.419 1930.46 -1178.28)
(-1540.24 -13.9301 312.288 -1607.68 1575.56 -5035.77)
(2828.72 -176.418 224.972 1353.49 1938.98 6179.74)
(1251.24 -112.262 242.616 317.069 2076.16 2187.51)
(-55.6931 -60.2487 228.909 -555.77 1955.27 -1177.74)
(-1537.63 -8.88478 186.588 -1610.94 1595.39 -5035.77)
(2852.92 -68.1418 43.155 1343.41 1950.45 6237.24)
(1270.14 -42.9235 57.5983 311.807 2092.45 2232.67)
(-40.5197 -21.897 53.4676 -555.145 1973.36 -1130.71)
(-1522.23 -0.846024 32.713 -1601.09 1615.54 -4971.19)
(-1251.55 -152.222 842.895 2210.84 -35.06 2204.63)
(-709.515 -113.785 1570.54 1889.18 5.51967 1186.33)
(-368.967 -77.7542 1539.08 1464.51 4.72969 -147.76)
(22.0816 -44.8973 800.34 1171.32 -34.2007 -1245.22)
(-1186.95 -404.904 848.659 2199.26 99.9495 2206.36)
(-664.183 -304.421 1560.15 1868.41 184.728 1171.33)
(-333.863 -214.436 1518.8 1449.17 180.516 -165.497)
(53.1182 -133.703 771.94 1167.32 93.408 -1255.15)
(-1104.31 -664.972 838.325 2109.4 166.408 2202.49)
(-600.238 -497.486 1540.53 1804.75 306.57 1169.06)
(-288.174 -350.13 1499.53 1403.97 299.033 -167.687)
(82.3147 -218.522 762.182 1138.19 153.194 -1256.94)
(-980.582 -907.737 822.488 1984.31 231.805 2201.54)
(-507.875 -679.199 1511.45 1711.35 426.495 1168.12)
(-223.066 -477.822 1471.2 1338.31 415.64 -168.371)
(122.891 -298.102 747.743 1096.9 212.254 -1257.46)
(-820.537 -1128.14 801.529 1823.26 295.698 2201.18)
(-388.122 -844.242 1473.08 1590.86 543.726 1167.9)
(-138.808 -593.933 1433.87 1253.56 529.657 -168.394)
(175.467 -370.53 728.741 1043.99 270.048 -1257.29)
(-627.954 -1320.78 775.596 1630.03 357.694 2201.2)
(-243.935 -988.523 1425.65 1446.21 657.562 1168.06)
(-37.3326 -695.475 1387.75 1151.8 640.397 -168.078)
(238.776 -433.884 705.293 980.503 326.21 -1256.83)
(-407.546 -1480.99 744.846 1409.29 417.4 2201.49)
(-78.8646 -1108.5 1369.45 1280.93 767.294 1168.43)
(78.8543 -779.91 1333.1 1035.47 747.168 -167.601)
(311.252 -486.557 677.535 907.92 380.379 -1256.28)
(-164.684 -1604.85 709.469 1166.44 474.431 2201.93)
(103.056 -1201.23 1304.8 1099.05 872.228 1168.92)
(206.893 -845.138 1270.26 907.432 849.295 -167.082)
(391.089 -527.22 645.637 827.984 432.196 -1255.75)
(94.7425 -1689.39 669.702 907.399 528.408 2202.45)
(297.432 -1264.41 1232.14 905.028 971.701 1169.44)
(343.625 -889.523 1199.64 770.823 946.131 -166.62)
(476.286 -554.843 609.816 742.656 481.316 -1255.36)
(365.432 -1732.7 626.04 638.838 578.956 2203.33)
(499.475 -1296.46 1152.05 703.677 1065.11 1169.88)
(485.565 -911.964 1121.74 629.084 1037.1 -166.318)
(564.681 -568.775 570.332 654.15 527.435 -1255.16)
(638.838 -1732.7 578.956 365.431 626.041 2203.33)
(703.678 -1296.46 1065.11 499.475 1152.05 1169.88)
(629.084 -911.964 1037.1 485.565 1121.74 -166.318)
(654.15 -568.775 527.434 564.68 570.333 -1255.15)
(907.399 -1689.39 528.408 94.7429 669.703 2202.45)
(905.028 -1264.41 971.701 297.432 1232.14 1169.44)
(770.824 -889.522 946.13 343.625 1199.64 -166.619)
(742.656 -554.843 481.315 476.286 609.816 -1255.36)
(1166.44 -1604.85 474.431 -164.683 709.469 2201.94)
(1099.05 -1201.23 872.228 103.056 1304.8 1168.92)
(907.433 -845.138 849.294 206.893 1270.26 -167.081)
(827.984 -527.219 432.196 391.089 645.637 -1255.75)
(1409.3 -1480.99 417.4 -407.545 744.846 2201.49)
(1280.93 -1108.5 767.293 -78.8639 1369.45 1168.43)
(1035.47 -779.91 747.168 78.8545 1333.1 -167.6)
(907.92 -486.557 380.378 311.251 677.535 -1256.28)
(1630.03 -1320.78 357.693 -627.952 775.595 2201.21)
(1446.21 -988.522 657.561 -243.934 1425.65 1168.06)
(1151.8 -695.475 640.396 -37.3322 1387.75 -168.076)
(980.503 -433.884 326.209 238.776 705.293 -1256.83)
(1823.26 -1128.14 295.698 -820.535 801.529 2201.18)
(1590.86 -844.242 543.726 -388.121 1473.08 1167.9)
(1253.56 -593.932 529.657 -138.807 1433.87 -168.392)
(1043.99 -370.529 270.047 175.467 728.741 -1257.29)
(1984.32 -907.736 231.805 -980.579 822.487 2201.54)
(1711.35 -679.199 426.494 -507.873 1511.45 1168.12)
(1338.31 -477.822 415.64 -223.065 1471.2 -168.368)
(1096.9 -298.102 212.254 122.891 747.743 -1257.46)
(2109.4 -664.971 166.408 -1104.31 838.324 2202.49)
(1804.75 -497.486 306.57 -600.236 1540.52 1169.06)
(1403.97 -350.129 299.033 -288.173 1499.53 -167.685)
(1138.19 -218.522 153.194 82.3148 762.182 -1256.94)
(2199.26 -404.903 99.9494 -1186.94 848.658 2206.36)
(1868.41 -304.421 184.728 -664.181 1560.15 1171.33)
(1449.17 -214.436 180.516 -333.862 1518.8 -165.494)
(1167.32 -133.703 93.4078 53.1184 771.939 -1255.15)
(2210.85 -152.222 -35.06 -1251.54 842.894 2204.63)
(1889.18 -113.785 5.51961 -709.513 1570.54 1186.33)
(1464.51 -77.7541 4.72962 -368.966 1539.08 -147.757)
(1171.32 -44.8972 -34.2008 22.0818 800.339 -1245.21)
(-1255.76 -189.374 529.885 3200.92 -54.015 375.284)
(-820.482 -168.223 919.775 3115.85 -32.6472 494.104)
(-364.068 -144.213 895.494 3045.12 -33.461 508.662)
(4.55728 -124.984 471.342 3011.53 -55.0765 614.416)
(-1189.79 -521.358 528.749 3169.68 61.3247 387.526)
(-762.1 -461.099 910.855 3075.58 106.712 498.148)
(-313.73 -398.816 880.249 3005.69 103.707 510.39)
(45.026 -350.357 452.978 2970.03 54.5674 615.844)
(-1083.87 -856.895 522.084 3056.68 103.461 385.336)
(-665.623 -754.596 899.325 2980.79 178.93 498.525)
(-229.709 -652.635 869.027 2923.52 173.534 510.788)
(119.159 -575.09 447.467 2897.91 90.5347 616.193)
(-924.241 -1170 512.151 2896.76 144.531 385.17)
(-525.289 -1030.41 882.286 2840.19 249.36 498.308)
(-108.113 -891.062 852.587 2802.17 241.523 510.709)
(226.235 -785.291 438.961 2790.86 125.522 616.024)
(-717.808 -1454.27 499.018 2689.86 184.472 385.128)
(-343.467 -1280.88 859.811 2658.11 317.935 498.308)
(49.1563 -1107.69 830.893 2644.82 307.706 510.77)
(364.879 -976.253 427.745 2652.26 159.506 616.113)
(-469.443 -1702.75 482.767 2441.17 223.133 385.276)
(-124.648 -1499.84 832.04 2439.09 384.402 498.496)
(238.43 -1297.1 804.102 2455.46 371.858 511.012)
(531.717 -1143.21 413.935 2485.44 192.41 616.392)
(-185.22 -1909.37 463.504 2156.8 260.301 385.57)
(125.807 -1681.92 799.148 2188.56 448.403 498.814)
(455.073 -1454.59 772.388 2238.78 433.648 511.361)
(722.654 -1282.01 397.624 2294.5 224.087 616.759)
(127.941 -2069.11 441.363 1843.78 295.734 385.969)
(401.786 -1822.63 761.35 1912.7 509.547 499.202)
(693.772 -1576.26 735.959 2000.13 492.704 511.737)
(932.977 -1389.19 378.921 2084.14 254.354 617.11)
(462.447 -2178.11 416.531 1509.81 329.17 386.426)
(696.605 -1918.5 718.925 1618.32 567.438 499.622)
(948.65 -1659.07 695.071 1745.4 548.654 512.073)
(1157.46 -1462.09 357.962 1859.55 283.016 617.36)
(811.126 -2233.83 389.418 1163.42 360.362 387.279)
(1002.97 -1967.11 672.269 1312.74 621.732 500.018)
(1213.28 -1700.96 650.044 1481 601.174 512.302)
(1390.49 -1498.92 334.911 1626.4 309.903 617.479)
(1163.42 -2233.83 360.362 811.126 389.419 387.279)
(1312.74 -1967.11 621.731 1002.97 672.269 500.018)
(1481 -1700.96 601.174 1213.28 650.044 512.302)
(1626.4 -1498.92 309.903 1390.49 334.912 617.479)
(1509.81 -2178.11 329.17 462.448 416.531 386.427)
(1618.32 -1918.5 567.438 696.605 718.926 499.622)
(1745.4 -1659.07 548.654 948.65 695.071 512.074)
(1859.55 -1462.09 283.015 1157.46 357.962 617.361)
(1843.78 -2069.11 295.733 127.942 441.363 385.97)
(1912.7 -1822.63 509.547 401.787 761.35 499.203)
(2000.13 -1576.26 492.703 693.773 735.959 511.738)
(2084.14 -1389.19 254.353 932.977 378.921 617.111)
(2156.8 -1909.37 260.301 -185.218 463.503 385.572)
(2188.56 -1681.92 448.403 125.808 799.148 498.816)
(2238.78 -1454.59 433.647 455.074 772.388 511.362)
(2294.5 -1282 224.086 722.654 397.624 616.76)
(2441.17 -1702.75 223.133 -469.44 482.767 385.278)
(2439.09 -1499.84 384.402 -124.647 832.04 498.498)
(2455.46 -1297.1 371.857 238.43 804.101 511.014)
(2485.44 -1143.21 192.409 531.717 413.935 616.393)
(2689.87 -1454.27 184.472 -717.804 499.018 385.13)
(2658.11 -1280.88 317.935 -343.465 859.811 498.31)
(2644.82 -1107.69 307.705 49.1574 830.892 510.771)
(2652.26 -976.252 159.506 364.879 427.744 616.114)
(2896.76 -1170 144.53 -924.237 512.15 385.173)
(2840.19 -1030.4 249.359 -525.287 882.285 498.31)
(2802.17 -891.061 241.522 -108.112 852.587 510.711)
(2790.86 -785.29 125.522 226.236 438.96 616.026)
(3056.69 -856.894 103.461 -1083.86 522.084 385.339)
(2980.79 -754.595 178.929 -665.62 899.325 498.528)
(2923.52 -652.635 173.534 -229.707 869.027 510.79)
(2897.91 -575.09 90.5345 119.159 447.466 616.195)
(3169.68 -521.358 61.3246 -1189.79 528.749 387.53)
(3075.58 -461.099 106.711 -762.097 910.855 498.151)
(3005.69 -398.815 103.707 -313.728 880.248 510.392)
(2970.03 -350.357 54.5673 45.0266 452.978 615.846)
(3200.92 -189.373 -54.0151 -1255.75 529.884 375.287)
(3115.85 -168.223 -32.6472 -820.478 919.774 494.106)
(3045.12 -144.213 -33.4611 -364.066 895.494 508.664)
(3011.53 -124.984 -55.0766 4.55792 471.341 614.417)
(-1209.97 -232.379 286.995 4345.49 -56.6166 -653.848)
(-795.792 -218.799 480.989 4384.91 -45.835 143.604)
(-380.659 -203.413 461.644 4438.13 -46.5099 872.242)
(-27.9891 -190.313 238.811 4521.41 -57.5021 1653.27)
(-1133.66 -649.877 283.861 4298.31 32.0519 -633.857)
(-726.873 -606.928 473.561 4327.05 54.749 156.864)
(-318.673 -563.993 451.186 4377.56 52.644 883.067)
(25.5911 -529.697 227.077 4452.27 27.2504 1661.34)
(-1001.65 -1068.02 280.207 4159.02 55.0517 -635.101)
(-601.351 -993.975 467.435 4201.67 92.7215 157.97)
(-201.586 -923.479 445.416 4260.71 88.9281 884.198)
(137.15 -870.44 224.365 4343.73 45.6997 1663.13)
(-802.749 -1458.43 274.767 3960.19 77.4428 -634.622)
(-416.535 -1357.4 458.481 4016.61 129.706 158.383)
(-29.5622 -1261.08 436.939 4088.98 124.154 884.761)
(299.186 -1188.89 220.048 4181.83 63.5729 1663.57)
(-545.36 -1812.95 267.607 3702.65 99.1207 -634.355)
(-176.947 -1687.43 446.706 3776.99 165.574 158.695)
(193.087 -1567.75 425.742 3866.45 158.28 885.115)
(509.138 -1478.07 214.34 3972.11 80.7799 1663.94)
(-235.675 -2122.85 258.759 3392.85 120.004 -634.094)
(111.366 -1975.96 432.181 3488.68 200.222 158.992)
(461.004 -1835.85 411.94 3598.63 191.232 885.451)
(761.765 -1730.87 207.351 3719.66 97.3082 1664.29)
(118.714 -2380.55 248.287 3038.45 139.986 -633.8)
(441.339 -2215.89 415.005 3158.77 233.492 159.31)
(767.633 -2058.79 395.641 3292.1 222.877 885.794)
(1050.87 -1941.05 199.148 3430.71 113.126 1664.65)
(509.171 -2579.76 236.28 2648.22 158.933 -633.456)
(804.917 -2401.31 395.306 2795.4 265.188 159.648)
(1105.46 -2231.02 376.963 2954.43 253.045 886.125)
(1369.32 -2103.38 189.795 3112.33 128.17 1664.96)
(926.209 -2715.64 222.87 2231.77 176.685 -633.062)
(1193.26 -2527.62 373.255 2407.57 295.104 160.014)
(1466.16 -2348.26 356.056 2593.95 281.556 886.412)
(1709.24 -2213.82 179.371 2772.39 142.36 1665.17)
(1360.62 -2784.98 208.397 1799.69 193.101 -632.243)
(1596.77 -2591.65 349.113 2004.88 323.076 160.378)
(1840.7 -2407.58 333.107 2219.68 308.261 886.611)
(2062.14 -2269.66 167.965 2419.4 155.629 1665.26)
(1799.69 -2784.98 193.101 1360.62 208.397 -632.243)
(2004.88 -2591.65 323.076 1596.77 349.113 160.378)
(2219.68 -2407.58 308.261 1840.7 333.107 886.611)
(2419.4 -2269.66 155.629 2062.14 167.965 1665.26)
(2231.78 -2715.64 176.685 926.21 222.87 -633.061)
(2407.57 -2527.62 295.104 1193.26 373.255 160.014)
(2593.95 -2348.26 281.555 1466.16 356.056 886.412)
(2772.39 -2213.82 142.359 1709.24 179.371 1665.17)
(2648.22 -2579.76 158.932 509.173 236.279 -633.456)
(2795.41 -2401.31 265.188 804.918 395.306 159.649)
(2954.43 -2231.02 253.045 1105.46 376.963 886.125)
(3112.33 -2103.38 128.17 1369.32 189.795 1664.96)
(3038.46 -2380.55 139.986 118.717 248.286 -633.799)
(3158.77 -2215.88 233.492 441.34 415.005 159.311)
(3292.11 -2058.78 222.877 767.634 395.641 885.795)
(3430.71 -1941.05 113.126 1050.87 199.148 1664.65)
(3392.85 -2122.85 120.004 -235.671 258.759 -634.092)
(3488.68 -1975.96 200.222 111.368 432.18 158.993)
(3598.63 -1835.85 191.231 461.006 411.94 885.452)
(3719.66 -1730.87 97.3079 761.765 207.351 1664.29)
(3702.65 -1812.95 99.1203 -545.355 267.607 -634.353)
(3777 -1687.43 165.573 -176.944 446.705 158.696)
(3866.45 -1567.75 158.279 193.089 425.741 885.116)
(3972.11 -1478.07 80.7795 509.139 214.339 1663.94)
(3960.19 -1458.43 77.4425 -802.743 274.767 -634.62)
(4016.61 -1357.39 129.706 -416.531 458.48 158.384)
(4088.98 -1261.08 124.154 -29.5603 436.939 884.762)
(4181.83 -1188.89 63.5726 299.187 220.048 1663.58)
(4159.02 -1068.01 55.0514 -1001.65 280.206 -635.099)
(4201.67 -993.974 92.7212 -601.346 467.434 157.971)
(4260.71 -923.478 88.9278 -201.583 445.415 884.199)
(4343.73 -870.44 45.6995 137.151 224.365 1663.13)
(4298.31 -649.876 32.0518 -1133.65 283.86 -633.854)
(4327.05 -606.927 54.7488 -726.868 473.561 156.866)
(4377.56 -563.993 52.6438 -318.67 451.186 883.068)
(4452.27 -529.696 27.2503 25.5919 227.077 1661.34)
(4345.49 -232.378 -56.6167 -1209.96 286.994 -653.846)
(4384.91 -218.799 -45.8351 -795.787 480.989 143.606)
(4438.13 -203.413 -46.5099 -380.656 461.644 872.243)
(4521.41 -190.313 -57.5021 -27.9882 238.81 1653.27)
(-1168.7 -272.613 126.759 5390.55 -48.3477 -1123.59)
(-773.56 -261.805 204.746 5455.72 -43.7822 -10.5221)
(-391.076 -249.769 192.605 5536.94 -44.1503 1054.39)
(-56.9166 -238.635 95.2034 5645.12 -48.6735 2143.53)
(-1081.31 -767.395 123.371 5331.23 13.2102 -1099.76)
(-694.247 -729.927 199.313 5384.45 22.6015 6.923)
(-318.597 -693.927 185.938 5461.01 21.5065 1069.08)
(7.64177 -663.763 88.2843 5556.76 10.7612 2153.82)
(-925.4 -1260.97 121.785 5167.52 23.3965 -1100.86)
(-543.993 -1195.62 196.647 5233.31 38.7839 8.00809)
(-175.287 -1136.49 183.485 5316.82 36.7225 1070.19)
(147.23 -1091.09 87.2113 5420.79 18.1971 2156.17)
(-690.622 -1721.94 119.353 4932.95 33.3991 -1100.06)
(-321.719 -1632.74 192.795 5010.65 54.6097 8.68925)
(36.4053 -1552.04 179.914 5105.3 51.5027 1071.06)
(350.331 -1490.39 85.4448 5217.73 25.4068 2156.99)
(-386.727 -2140.58 116.129 4629 43.0611 -1099.62)
(-33.5162 -2029.73 187.74 4722.48 69.907 9.21207)
(310.455 -1929.48 175.205 4831.39 65.747 1071.66)
(613.539 -1852.91 83.1214 4954.75 32.2596 2157.65)
(-21.0712 -2506.56 112.137 4263.32 52.3027 -1099.3)
(313.284 -2376.82 181.521 4375.75 84.606 9.61473)
(640.198 -2259.46 169.433 4501.82 79.4082 1072.15)
(930.242 -2169.82 80.3233 4638.3 38.7313 2158.21)
(397.372 -2810.91 107.418 3844.9 61.0558 -1099.04)
(710.185 -2665.46 174.196 3978.97 98.6316 9.95951)
(1017.57 -2533.85 162.661 4124.63 92.4353 1072.57)
(1292.67 -2433.32 77.0989 4276.12 44.8229 2158.71)
(858.393 -3046.18 102.035 3384.09 69.2397 -1098.78)
(1147.5 -2888.53 165.835 3541.9 111.894 10.2806)
(1433.34 -2745.86 154.954 3709.09 104.764 1072.94)
(1691.91 -2636.86 73.4886 3877.07 50.5281 2159.11)
(1350.78 -3206.61 96.0809 2892.25 76.7581 -1098.47)
(1614.59 -3040.5 156.542 3075.33 124.3 10.6151)
(1877.26 -2890.2 146.394 3265.44 116.326 1073.24)
(2118.07 -2775.36 69.5362 3450.97 55.8329 2159.37)
(1863.47 -3288.39 89.8523 2381.84 83.5334 -1097.7)
(2099.9 -3117.52 146.495 2590.85 135.794 10.9574)
(2338.25 -2963.24 137.087 2804.75 127.084 1073.44)
(2560.54 -2845.42 65.2852 3008.47 60.7368 2159.5)
(2381.84 -3288.39 83.5333 1863.47 89.8523 -1097.7)
(2590.85 -3117.52 135.794 2099.9 146.495 10.9575)
(2804.75 -2963.24 127.084 2338.25 137.087 1073.44)
(3008.47 -2845.42 60.7365 2560.54 65.2853 2159.5)
(2892.25 -3206.61 76.7579 1350.78 96.0807 -1098.47)
(3075.34 -3040.5 124.3 1614.59 156.542 10.6153)
(3265.44 -2890.2 116.326 1877.26 146.394 1073.23)
(3450.97 -2775.36 55.8325 2118.07 69.5363 2159.37)
(3384.09 -3046.18 69.2394 858.395 102.034 -1098.78)
(3541.9 -2888.53 111.894 1147.5 165.835 10.2809)
(3709.09 -2745.86 104.764 1433.34 154.954 1072.94)
(3877.07 -2636.85 50.5277 1691.91 73.4886 2159.11)
(3844.9 -2810.91 61.0555 397.376 107.418 -1099.04)
(3978.97 -2665.46 98.6312 710.187 174.195 9.95992)
(4124.63 -2533.85 92.4349 1017.57 162.661 1072.57)
(4276.12 -2433.31 44.8225 1292.67 77.0988 2158.71)
(4263.32 -2506.56 52.3024 -21.066 112.136 -1099.3)
(4375.75 -2376.82 84.6056 313.287 181.521 9.61526)
(4501.82 -2259.46 79.4077 640.199 169.433 1072.15)
(4638.3 -2169.82 38.7309 930.242 80.323 2158.21)
(4629.01 -2140.57 43.0608 -386.72 116.128 -1099.61)
(4722.48 -2029.73 69.9066 -33.5123 187.739 9.21271)
(4831.39 -1929.48 65.7466 310.457 175.204 1071.66)
(4954.75 -1852.91 32.2592 613.539 83.121 2157.65)
(4932.95 -1721.94 33.3989 -690.614 119.352 -1100.06)
(5010.65 -1632.73 54.6094 -321.714 192.794 8.68994)
(5105.3 -1552.04 51.5024 36.4077 179.913 1071.06)
(5217.73 -1490.39 25.4065 350.331 85.4443 2156.99)
(5167.52 -1260.97 23.3963 -925.391 121.784 -1100.85)
(5233.31 -1195.62 38.7837 -543.988 196.646 8.00883)
(5316.82 -1136.48 36.7223 -175.284 183.484 1070.19)
(5420.79 -1091.09 18.1969 147.23 87.2107 2156.17)
(5331.23 -767.394 13.21 -1081.3 123.37 -1099.76)
(5384.45 -729.926 22.6013 -694.242 199.312 6.92377)
(5461.01 -693.926 21.5063 -318.594 185.937 1069.08)
(5556.76 -663.762 10.761 7.64268 88.2836 2153.82)
(5390.55 -272.613 -48.3478 -1168.69 126.758 -1123.58)
(5455.72 -261.805 -43.7823 -773.554 204.745 -10.5213)
(5536.93 -249.769 -44.1503 -391.072 192.604 1054.39)
(5645.12 -238.634 -48.6736 -56.9156 95.2027 2143.53)
(-1137.68 -303.95 31.9422 6192.89 -34.3198 -1264.79)
(-755.935 -293.297 45.8157 6236.87 -33.2431 -53.0308)
(-396.363 -281.823 39.9142 6300.55 -33.3422 1124.91)
(-76.9326 -270.483 15.5078 6390.84 -34.1799 2309.06)
(-1040.84 -857.719 29.2219 6125.64 2.38778 -1239.43)
(-668.23 -819.541 42.4064 6156.6 4.44031 -34.1633)
(-315.828 -784.05 36.2463 6214.66 4.16747 1140.7)
(-4.3134 -752.919 12.0507 6290.59 1.90281 2319.41)
(-866.514 -1409.3 28.8689 5943.11 4.89583 -1240.74)
(-499.789 -1342.44 41.7416 5986.83 8.03253 -33.3293)
(-154.183 -1284.13 35.6549 6051.59 7.3895 1141.55)
(153.959 -1237.68 11.8393 6136.29 3.23744 2321.84)
(-604.156 -1924.51 28.2355 5681.06 7.47908 -1239.9)
(-250.235 -1833.19 40.8195 5736.81 11.6229 -32.619)
(85.0055 -1753.67 34.8398 5812.47 10.5227 1142.49)
(384.338 -1690.64 11.4605 5905.8 4.51488 2322.79)
(-264.532 -2392.43 27.3491 5341.43 9.9982 -1239.43)
(73.3418 -2278.91 39.6134 5413.26 15.0693 -32.0181)
(394.66 -2180.12 33.7858 5502.93 13.4775 1143.23)
(682.904 -2101.84 10.9912 5607.4 5.63061 2323.65)
(144.124 -2801.54 26.2217 4932.76 12.3741 -1239.15)
(462.695 -2668.62 38.1443 5024 18.3171 -31.5658)
(767.223 -2552.95 32.5359 5130.54 16.2169 1143.84)
(1042.15 -2461.3 10.4882 5248.4 6.55403 2324.42)
(611.78 -3141.76 24.8781 4465.11 14.5462 -1238.98)
(908.293 -2992.72 36.4417 4578.54 21.3253 -31.2101)
(1193.6 -2863 31.1269 4704.39 18.7224 1144.36)
(1453.27 -2760.18 9.99067 4837.57 7.29035 2325.1)
(1127.02 -3404.75 23.36 3950.02 16.4516 -1238.82)
(1399.27 -3243.22 34.5463 4087.8 24.0533 -30.9059)
(1663.35 -3102.57 29.5958 4234.89 20.9788 1144.79)
(1906.14 -2991.08 9.52926 4384.96 7.85451 2325.65)
(1677.31 -3584.07 21.7422 3400.18 18.0178 -1238.61)
(1923.66 -3413.88 32.5249 3563.9 26.4624 -30.5993)
(2164.94 -3265.69 27.9895 3733.61 22.9762 1145.12)
(2389.58 -3148.24 9.13191 3901.66 8.2655 2326.03)
(2250.18 -3675.41 20.3 2829.52 19.1932 -1237.91)
(2468.54 -3500.36 30.512 3019.82 28.5569 -30.2778)
(2685.84 -3348.25 26.3698 3213.01 24.7375 1145.34)
(2891.55 -3227.75 8.81828 3399.7 8.55978 2326.21)
(2829.53 -3675.41 19.1932 2250.18 20.2999 -1237.91)
(3019.82 -3500.36 28.5567 2468.54 30.512 -30.2778)
(3213.02 -3348.25 24.7372 2685.84 26.3699 1145.34)
(3399.7 -3227.74 8.5595 2891.55 8.81847 2326.21)
(3400.19 -3584.07 18.0177 1677.31 21.742 -1238.61)
(3563.9 -3413.87 26.4621 1923.66 32.5248 -30.5991)
(3733.61 -3265.69 22.9759 2164.94 27.9895 1145.12)
(3901.66 -3148.24 8.26515 2389.58 9.132 2326.03)
(3950.02 -3404.75 16.4514 1127.02 23.3597 -1238.82)
(4087.8 -3243.22 24.0529 1399.27 34.546 -30.9058)
(4234.89 -3102.57 20.9784 1663.35 29.5956 1144.79)
(4384.96 -2991.08 7.85413 1906.14 9.52924 2325.65)
(4465.11 -3141.76 14.546 611.784 24.8777 -1238.97)
(4578.54 -2992.72 21.3249 908.296 36.4413 -31.2099)
(4704.39 -2862.99 18.722 1193.6 31.1265 1144.36)
(4837.57 -2760.18 7.28996 1453.26 9.99054 2325.1)
(4932.76 -2801.53 12.3738 144.13 26.2212 -1239.15)
(5024 -2668.62 18.3167 462.699 38.1437 -31.5656)
(5130.54 -2552.95 16.2165 767.225 32.5354 1143.84)
(5248.4 -2461.3 6.55365 1042.15 10.488 2324.42)
(5341.43 -2392.43 9.99793 -264.524 27.3485 -1239.43)
(5413.27 -2278.9 15.069 73.3464 39.6127 -32.0178)
(5502.93 -2180.12 13.4771 394.662 33.7852 1143.23)
(5607.4 -2101.84 5.63028 682.904 10.9908 2323.65)
(5681.06 -1924.5 7.47883 -604.147 28.2347 -1239.89)
(5736.81 -1833.19 11.6225 -250.23 40.8187 -32.6187)
(5812.47 -1753.67 10.5223 85.0083 34.8391 1142.49)
(5905.8 -1690.63 4.51462 384.338 11.46 2322.79)
(5943.11 -1409.3 4.89564 -866.504 28.8681 -1240.74)
(5986.83 -1342.44 8.03229 -499.782 41.7408 -33.3289)
(6051.59 -1284.13 7.38927 -154.179 35.6541 1141.55)
(6136.29 -1237.68 3.23725 153.96 11.8388 2321.83)
(6125.64 -857.717 2.38766 -1040.83 29.2211 -1239.42)
(6156.6 -819.54 4.44016 -668.223 42.4054 -34.163)
(6214.66 -784.049 4.16732 -315.825 36.2455 1140.7)
(6290.58 -752.918 1.90269 -4.31239 12.0502 2319.41)
(6192.89 -303.95 -34.3198 -1137.67 31.9413 -1264.79)
(6236.87 -293.297 -33.2431 -755.927 45.8147 -53.0305)
(6300.55 -281.823 -33.3422 -396.359 39.9133 1124.91)
(6390.84 -270.483 -34.18 -76.9315 15.5073 2309.06)
(-1111.56 -323.273 -21.1784 6689.88 -18.0374 -1235.13)
(-739.283 -311.753 -39.6392 6698.94 -18.7838 -38.7638)
(-395.481 -299.672 -40.6566 6730.64 -18.6753 1132.2)
(-87.5681 -287.371 -24.9646 6789.83 -17.554 2299.98)
(-1008.48 -912.889 -22.7712 6618.57 -3.48768 -1209.53)
(-646.262 -871.881 -41.1381 6613.82 -5.12113 -19.9187)
(-310.038 -834.427 -41.9222 6639.56 -4.76069 1147.74)
(-10.1884 -800.684 -25.8817 6683.69 -2.38476 2309.54)
(-822.861 -1499.93 -22.4369 6424.6 -5.35 -1211.12)
(-467.106 -1428.14 -40.7283 6433.28 -8.30551 -19.3332)
(-138.063 -1366.6 -41.5497 6465.98 -7.83928 1148.32)
(158.124 -1316.11 -25.7007 6519.48 -4.0637 2311.85)
(-543.638 -2048.3 -22.0505 6145.87 -7.00424 -1210.37)
(-201.624 -1950.18 -40.0945 6167.36 -11.3323 -18.7071)
(116.483 -1866.23 -40.9479 6211.46 -10.8531 1149.21)
(403.099 -1797.72 -25.415 6274.26 -5.75857 2312.79)
(-182.18 -2546.38 -21.6181 5784.51 -8.53493 -1209.98)
(142.592 -2424.33 -39.2599 5823.22 -14.2807 -18.1301)
(446.004 -2320.01 -40.1181 5882.02 -13.8551 1149.98)
(720.566 -2234.9 -24.9846 5956.85 -7.528 2313.75)
(252.753 -2981.87 -21.1465 5349.65 -10.0047 -1209.8)
(556.767 -2838.92 -38.2178 5409.17 -17.186 -17.6949)
(842.455 -2716.73 -39.0357 5485.73 -16.8673 1150.64)
(1102.54 -2617.07 -24.3679 5575.05 -9.39575 2314.64)
(750.485 -3344.06 -20.6293 4851.95 -11.471 -1209.74)
(1030.77 -3183.73 -36.9539 4935.31 -20.0715 -17.3662)
(1296.16 -3046.65 -37.6756 5032.24 -19.8926 1151.21)
(1539.67 -2934.84 -23.5276 5138.19 -11.3562 2315.47)
(1298.87 -3624.04 -20.0405 4303.7 -12.996 -1209.71)
(1553.04 -3450.24 -35.4428 4413.27 -22.9573 -17.0995)
(1796.03 -3301.6 -36.0111 4532.63 -22.9233 1151.68)
(2021.2 -3180.35 -22.4325 4656.94 -13.3865 2316.15)
(1884.55 -3814.94 -19.3171 3718.4 -14.6526 -1209.63)
(2110.88 -3631.82 -33.6332 3855.91 -25.8576 -16.8325)
(2329.78 -3475.21 -34.0085 3999.19 -25.9401 1152.05)
(2535.24 -3347.46 -21.0576 4143.07 -15.4502 2316.63)
(2494.2 -3912.14 -18.1868 3110.86 -16.4929 -1209.01)
(2690.52 -3723.85 -31.4086 3277.03 -28.7421 -16.5395)
(2884.12 -3563.09 -31.6255 3445.16 -28.8872 1152.28)
(3069.01 -3432.01 -19.394 3609.35 -17.4875 2316.87)
(3110.86 -3912.14 -16.493 2494.2 -18.1868 -1209.01)
(3277.04 -3723.85 -28.7423 2690.51 -31.4085 -16.5395)
(3445.16 -3563.09 -28.8875 2884.12 -31.6254 1152.28)
(3609.35 -3432.01 -17.4877 3069.01 -19.3938 2316.87)
(3718.4 -3814.94 -14.6527 1884.55 -19.3171 -1209.62)
(3855.91 -3631.82 -25.8579 2110.88 -33.6332 -16.8324)
(3999.19 -3475.21 -25.9404 2329.78 -34.0085 1152.05)
(4143.07 -3347.46 -15.4505 2535.24 -21.0575 2316.63)
(4303.7 -3624.04 -12.9962 1298.87 -20.0407 -1209.71)
(4413.27 -3450.24 -22.9576 1553.04 -35.4429 -17.0993)
(4532.63 -3301.6 -22.9237 1796.03 -36.0112 1151.68)
(4656.94 -3180.35 -13.3868 2021.2 -22.4324 2316.15)
(4851.96 -3344.05 -11.4712 750.49 -20.6295 -1209.74)
(4935.31 -3183.72 -20.0719 1030.77 -36.9542 -17.3661)
(5032.24 -3046.65 -19.8929 1296.16 -37.6757 1151.21)
(5138.19 -2934.84 -11.3566 1539.67 -23.5276 2315.46)
(5349.65 -2981.86 -10.005 252.76 -21.1468 -1209.79)
(5409.17 -2838.91 -17.1864 556.771 -38.2182 -17.6947)
(5485.73 -2716.73 -16.8676 842.457 -39.036 1150.64)
(5575.05 -2617.07 -9.39606 1102.54 -24.368 2314.64)
(5784.52 -2546.37 -8.53516 -182.17 -21.6185 -1209.98)
(5823.22 -2424.33 -14.281 142.597 -39.2604 -18.1298)
(5882.02 -2320.01 -13.8554 446.007 -40.1185 1149.98)
(5956.85 -2234.9 -7.52827 720.566 -24.9848 2313.74)
(6145.87 -2048.3 -7.00445 -543.627 -22.0509 -1210.36)
(6167.36 -1950.18 -11.3325 -201.618 -40.095 -18.7069)
(6211.45 -1866.23 -10.8534 116.486 -40.9484 1149.21)
(6274.26 -1797.71 -5.75879 403.099 -25.4152 2312.79)
(6424.6 -1499.93 -5.35016 -822.849 -22.4374 -1211.12)
(6433.29 -1428.14 -8.30571 -467.099 -40.7289 -19.333)
(6465.98 -1366.6 -7.83947 -138.059 -41.5502 1148.32)
(6519.48 -1316.11 -4.06385 158.125 -25.701 2311.85)
(6618.57 -912.888 -3.48779 -1008.46 -22.7718 -1209.53)
(6613.82 -871.88 -5.12126 -646.254 -41.1387 -19.9185)
(6639.56 -834.427 -4.76082 -310.033 -41.9227 1147.74)
(6683.69 -800.683 -2.38485 -10.1873 -25.882 2309.54)
(6689.89 -323.273 -18.0375 -1111.54 -21.179 -1235.13)
(6698.94 -311.752 -18.7838 -739.275 -39.6399 -38.7635)
(6730.64 -299.672 -18.6753 -395.477 -40.6571 1132.2)
(6789.83 -287.371 -17.5541 -87.5668 -24.965 2299.98)
(-1083.06 -329.537 -54.3892 6867.95 -1.67005 -1120.75)
(-719.514 -317.036 -89.7429 6844.86 -3.42652 2.71796)
(-387.602 -304.094 -86.8156 6845.9 -3.15228 1104.1)
(-89.8244 -290.849 -47.4627 6875.44 -0.922851 2199.43)
(-977.625 -930.475 -54.7046 6795.99 -7.11681 -1095.74)