/*--------------------------------*- C++ -*----------------------------------*\
| =========                 |                                                 |
| \\      /  F ield         | foam-extend: Open Source CFD                    |
|  \\    /   O peration     | Version:     3.1                                |
|   \\  /    A nd           | Web:         http://www.extend-project.de       |
|    \\/     M anipulation  |                                                 |
\*---------------------------------------------------------------------------*/
FoamFile
{
    version     2.0;
    format      ascii;
    class       volScalarField;
    location    "0.0018";
    object      sigmaEq;
}
// * * * * * * * * * * * * * * * * * * * * * * * * * * * * * * * * * * * * * //

dimensions      [1 -1 -2 0 0 0 0];

internalField   nonuniform List<scalar> 
6400
(
5502.1
3989.71
3547.51
4411.65
5465.64
3971.1
3547.58
4441.45
5463.14
3968.92
3546.48
4441.61
5461.9
3968.04
3545.9
4441.17
5461.31
3967.6
3545.49
4440.63
5461.07
3967.34
3545.1
4440.01
5461.03
3967.14
3544.69
4439.33
5461.08
3966.91
3544.21
4438.65
5461.16
3966.64
3543.72
4438.03
5461.15
3966.4
3543.36
4437.64
5461.15
3966.4
3543.36
4437.64
5461.16
3966.64
3543.72
4438.03
5461.08
3966.91
3544.21
4438.64
5461.03
3967.14
3544.68
4439.33
5461.07
3967.34
3545.1
4440
5461.31
3967.6
3545.48
4440.63
5461.9
3968.04
3545.89
4441.17
5463.14
3968.91
3546.48
4441.6
5465.64
3971.09
3547.58
4441.44
5502.1
3989.71
3547.5
4411.65
3764.48
3586.01
3182.68
2512.85
3764.7
3580.11
3172.27
2505.62
3762.15
3578.18
3171.08
2505.79
3760.91
3577.37
3170.49
2505.52
3760.24
3576.77
3169.96
2505.07
3759.83
3576.31
3169.47
2504.53
3759.63
3575.95
3169.02
2503.98
3759.58
3575.64
3168.59
2503.45
3759.68
3575.34
3168.2
2502.99
3760.07
3575.15
3167.93
2502.71
3760.07
3575.15
3167.93
2502.71
3759.68
3575.34
3168.19
2502.99
3759.58
3575.63
3168.59
2503.45
3759.62
3575.95
3169.01
2503.97
3759.83
3576.31
3169.46
2504.53
3760.23
3576.77
3169.95
2505.07
3760.91
3577.37
3170.49
2505.52
3762.15
3578.17
3171.08
2505.79
3764.7
3580.1
3172.27
2505.62
3764.47
3586.01
3182.68
2512.84
4026.41
3830.7
3446.79
2881.39
4035.11
3826.3
3434.54
2864.36
4033.86
3825.87
3433.66
2864.4
4033.31
3825.74
3433.58
2864.43
4032.88
3825.49
3433.44
2864.43
4032.5
3825.21
3433.25
2864.37
4032.24
3824.96
3433.05
2864.25
4032.17
3824.79
3432.85
2864.08
4032.42
3824.71
3432.67
2863.85
4033.31
3824.75
3432.55
2863.65
4033.31
3824.75
3432.54
2863.65
4032.41
3824.71
3432.67
2863.85
4032.17
3824.79
3432.85
2864.08
4032.24
3824.96
3433.04
2864.25
4032.5
3825.21
3433.25
2864.37
4032.88
3825.49
3433.44
2864.43
4033.31
3825.74
3433.57
2864.43
4033.86
3825.86
3433.66
2864.4
4035.1
3826.29
3434.54
2864.36
4026.4
3830.7
3446.79
2881.39
5338.69
4868.2
4418.48
4020.53
5343.5
4862.47
4407.77
4003.61
5342.46
4862.48
4407.18
4004.38
5342.16
4862.43
4407.12
4004.6
5341.93
4862.34
4407.13
4004.77
5341.74
4862.25
4407.15
4004.9
5341.64
4862.21
4407.16
4005
5341.72
4862.24
4407.16
4005.01
5342.12
4862.37
4407.15
4004.92
5343.19
4862.58
4407.13
4004.79
5343.19
4862.58
4407.13
4004.79
5342.12
4862.37
4407.15
4004.92
5341.72
4862.24
4407.16
4005.01
5341.63
4862.21
4407.16
4005
5341.73
4862.25
4407.15
4004.9
5341.93
4862.34
4407.13
4004.76
5342.15
4862.43
4407.11
4004.6
5342.45
4862.48
4407.18
4004.38
5343.5
4862.47
4407.77
4003.6
5338.68
4868.2
4418.48
4020.52
6558.05
5913.55
5382.03
5001.33
6561.41
5907.54
5372.05
4983.46
6560.47
5907.78
5371.59
4984.7
6560.18
5907.57
5371.33
4984.92
6560
5907.44
5371.28
4985.06
6559.92
5907.42
5371.33
4985.23
6559.96
5907.49
5371.42
4985.39
6560.19
5907.65
5371.53
4985.5
6560.7
5907.9
5371.61
4985.48
6561.85
5908.19
5371.65
4985.4
6561.85
5908.19
5371.65
4985.4
6560.7
5907.9
5371.61
4985.48
6560.19
5907.65
5371.53
4985.5
6559.96
5907.48
5371.42
4985.39
6559.92
5907.41
5371.33
4985.22
6560
5907.44
5371.28
4985.06
6560.18
5907.57
5371.33
4984.92
6560.46
5907.78
5371.59
4984.7
6561.41
5907.54
5372.05
4983.46
6558.05
5913.55
5382.03
5001.33
7414.1
6689.23
6100.94
5684.78
7418.27
6683.81
6091.4
5665.59
7417.56
6684.3
6091.02
5667.01
7417.38
6684.03
6090.61
5667.12
7417.29
6683.87
6090.45
5667.14
7417.33
6683.88
6090.47
5667.24
7417.51
6684.02
6090.58
5667.39
7417.86
6684.27
6090.73
5667.52
7418.48
6684.6
6090.86
5667.55
7419.67
6684.94
6090.93
5667.5
7419.67
6684.94
6090.93
5667.5
7418.47
6684.6
6090.86
5667.55
7417.86
6684.27
6090.73
5667.52
7417.51
6684.02
6090.57
5667.39
7417.33
6683.88
6090.46
5667.24
7417.29
6683.87
6090.45
5667.14
7417.38
6684.03
6090.6
5667.12
7417.56
6684.3
6091.02
5667.01
7418.26
6683.8
6091.39
5665.59
7414.1
6689.23
6100.94
5684.78
7884.01
7134.74
6519.54
6068.72
7889.7
7130.18
6510.39
6048.67
7889.32
7130.92
6510.07
6050.06
7889.38
7130.72
6509.58
6050.02
7889.49
7130.62
6509.35
6049.87
7889.74
7130.7
6509.33
6049.84
7890.13
7130.93
6509.42
6049.91
7890.66
7131.27
6509.59
6050.01
7891.4
7131.68
6509.75
6050.03
7892.66
7132.07
6509.84
6049.98
7892.65
7132.07
6509.84
6049.98
7891.4
7131.68
6509.74
6050.03
7890.66
7131.27
6509.59
6050
7890.13
7130.93
6509.42
6049.91
7889.74
7130.7
6509.32
6049.84
7889.49
7130.61
6509.35
6049.87
7889.37
7130.72
6509.58
6050.02
7889.31
7130.92
6510.06
6050.06
7889.7
7130.18
6510.39
6048.67
7884.01
7134.74
6519.54
6068.72
7990.89
7252.86
6637.66
6170.16
7997.98
7249.12
6628.91
6149.91
7997.94
7250.05
6628.59
6151.11
7998.34
7250.01
6628.08
6150.87
7998.8
7250.05
6627.82
6150.51
7999.39
7250.28
6627.76
6150.29
8000.09
7250.65
6627.84
6150.2
8000.88
7251.11
6628
6150.18
8001.81
7251.62
6628.17
6150.13
8003.15
7252.06
6628.27
6150.07
8003.15
7252.06
6628.27
6150.07
8001.81
7251.62
6628.17
6150.13
8000.88
7251.11
6628
6150.18
8000.08
7250.64
6627.84
6150.2
7999.39
7250.27
6627.76
6150.29
7998.8
7250.04
6627.82
6150.51
7998.34
7250
6628.08
6150.87
7997.93
7250.04
6628.59
6151.1
7997.98
7249.11
6628.91
6149.91
7990.89
7252.85
6637.66
6170.15
7762.4
7064.3
6473.47
6009.55
7770.53
7061.27
6465.17
5989.73
7770.82
7062.32
6464.79
5990.59
7771.64
7062.49
6464.28
5990.1
7772.56
7062.75
6464
5989.48
7773.61
7063.18
6463.9
5988.98
7774.73
7063.73
6463.94
5988.63
7775.89
7064.36
6464.08
5988.39
7777.07
7064.99
6464.23
5988.2
7778.51
7065.49
6464.34
5988.07
7778.51
7065.49
6464.34
5988.07
7777.07
7064.99
6464.23
5988.2
7775.88
7064.36
6464.08
5988.39
7774.72
7063.73
6463.94
5988.63
7773.6
7063.17
6463.9
5988.98
7772.56
7062.74
6463.99
5989.48
7771.64
7062.49
6464.28
5990.09
7770.81
7062.31
6464.79
5990.59
7770.52
7061.26
6465.16
5989.73
7762.4
7064.29
6473.47
6009.55
7228.46
6598.24
6054.71
5611.89
7237.36
6595.89
6046.95
5593.09
7237.97
6597.01
6046.48
5593.47
7239.25
6597.41
6045.96
5592.65
7240.69
6597.91
6045.65
5591.68
7242.26
6598.57
6045.49
5590.81
7243.89
6599.34
6045.47
5590.09
7245.48
6600.14
6045.54
5589.52
7246.98
6600.9
6045.65
5589.09
7248.55
6601.46
6045.73
5588.83
7248.55
6601.46
6045.73
5588.83
7246.98
6600.89
6045.65
5589.09
7245.48
6600.14
6045.54
5589.52
7243.89
6599.33
6045.47
5590.09
7242.26
6598.57
6045.49
5590.81
7240.68
6597.9
6045.64
5591.68
7239.25
6597.41
6045.96
5592.64
7237.97
6597
6046.47
5593.47
7237.36
6595.89
6046.94
5593.08
7228.45
6598.24
6054.71
5611.89
6431.13
5895.88
5420.61
5012.64
6440.79
5894.33
5413.6
4995.42
6441.69
5895.45
5413
4995.22
6443.4
5896.09
5412.48
4994.01
6445.34
5896.81
5412.12
4992.64
6447.43
5897.68
5411.87
4991.32
6449.56
5898.63
5411.73
4990.12
6451.59
5899.59
5411.69
4989.12
6453.41
5900.45
5411.71
4988.35
6455.08
5901.06
5411.74
4987.92
6455.08
5901.06
5411.74
4987.92
6453.41
5900.45
5411.71
4988.35
6451.59
5899.58
5411.69
4989.11
6449.55
5898.63
5411.73
4990.12
6447.43
5897.68
5411.87
4991.32
6445.33
5896.81
5412.11
4992.64
6443.39
5896.08
5412.48
4994.01
6441.68
5895.45
5413
4995.21
6440.78
5894.33
5413.6
4995.42
6431.12
5895.87
5420.6
5012.63
5440.8
5017.91
4626.54
4266.67
5451.24
5017.37
4620.63
4251.78
5452.4
5018.45
4619.91
4250.95
5454.44
5019.25
4619.37
4249.39
5456.76
5020.12
4618.93
4247.66
5459.26
5021.11
4618.55
4245.9
5461.78
5022.15
4618.25
4244.23
5464.16
5023.17
4618.05
4242.77
5466.22
5024.06
4617.93
4241.65
5467.94
5024.68
4617.89
4241.02
5467.94
5024.67
4617.89
4241.02
5466.22
5024.06
4617.93
4241.65
5464.15
5023.17
4618.05
4242.77
5461.77
5022.15
4618.25
4244.23
5459.25
5021.1
4618.55
4245.9
5456.76
5020.12
4618.92
4247.65
5454.43
5019.24
4619.37
4249.39
5452.39
5018.44
4619.9
4250.94
5451.24
5017.36
4620.62
4251.78
5440.79
5017.9
4626.54
4266.67
4375.3
4049.45
3744.76
3456.19
4386.02
4049.88
3740.39
3444.86
4387.32
4050.83
3739.56
3443.53
4389.53
4051.68
3739
3441.82
4392.05
4052.54
3738.43
3439.94
4394.75
4053.46
3737.88
3437.96
4397.46
4054.41
3737.37
3436.03
4399.99
4055.33
3736.95
3434.29
4402.15
4056.12
3736.65
3432.92
4403.81
4056.65
3736.5
3432.15
4403.81
4056.64
3736.49
3432.15
4402.15
4056.12
3736.65
3432.92
4399.99
4055.33
3736.95
3434.29
4397.45
4054.41
3737.37
3436.03
4394.74
4053.45
3737.88
3437.96
4392.05
4052.53
3738.43
3439.94
4389.52
4051.67
3738.99
3441.82
4387.31
4050.83
3739.56
3443.53
4386.01
4049.88
3740.39
3444.85
4375.3
4049.44
3744.76
3456.19
3401.66
3096.14
2857.97
2684.26
3410.67
3096.93
2855.63
2678.39
3411.93
3097.61
2854.71
2676.94
3414.07
3098.3
2854.07
2675.44
3416.55
3098.91
2853.34
2673.8
3419.17
3099.53
2852.54
2672.03
3421.81
3100.16
2851.76
2670.24
3424.25
3100.76
2851.07
2668.58
3426.27
3101.26
2850.54
2667.25
3427.71
3101.59
2850.24
2666.48
3427.71
3101.59
2850.24
2666.48
3426.27
3101.26
2850.53
2667.25
3424.24
3100.75
2851.07
2668.58
3421.8
3100.16
2851.76
2670.23
3419.17
3099.53
2852.54
2672.02
3416.54
3098.91
2853.33
2673.79
3414.06
3098.29
2854.07
2675.44
3411.92
3097.6
2854.71
2676.93
3410.67
3096.93
2855.62
2678.38
3401.65
3096.13
2857.96
2684.25
2674.62
2274.01
2056.16
2038.15
2679
2273.95
2056.08
2039.2
2679.94
2274.23
2055.12
2038.03
2681.72
2274.64
2054.42
2037.04
2683.84
2274.92
2053.55
2035.95
2686.1
2275.14
2052.57
2034.73
2688.35
2275.35
2051.57
2033.44
2690.4
2275.54
2050.65
2032.2
2692.05
2275.68
2049.92
2031.17
2693.14
2275.78
2049.51
2030.56
2693.14
2275.78
2049.51
2030.56
2692.05
2275.68
2049.92
2031.17
2690.4
2275.54
2050.65
2032.2
2688.35
2275.35
2051.56
2033.44
2686.1
2275.14
2052.57
2034.72
2683.84
2274.91
2053.55
2035.95
2681.72
2274.64
2054.42
2037.04
2679.94
2274.22
2055.12
2038.02
2678.99
2273.95
2056.07
2039.19
2674.62
2274
2056.16
2038.15
2209.35
1691.75
1445.15
1539.69
2208.72
1690.11
1446.59
1545.77
2209.2
1690.12
1445.76
1544.93
2210.41
1690.44
1445.24
1544.33
2211.93
1690.66
1444.57
1543.66
2213.57
1690.83
1443.78
1542.86
2215.2
1690.97
1442.96
1541.99
2216.67
1691.08
1442.19
1541.12
2217.82
1691.13
1441.56
1540.38
2218.55
1691.16
1441.19
1539.93
2218.55
1691.16
1441.19
1539.93
2217.82
1691.13
1441.55
1540.37
2216.67
1691.08
1442.18
1541.12
2215.19
1690.97
1442.96
1541.98
2213.56
1690.83
1443.78
1542.86
2211.92
1690.65
1444.56
1543.65
2210.4
1690.44
1445.24
1544.33
2209.2
1690.11
1445.76
1544.92
2208.72
1690.1
1446.58
1545.77
2209.34
1691.74
1445.15
1539.69
1870.44
1384.6
1115.19
1157.12
1868.47
1382.45
1116.05
1162.6
1868.64
1382.55
1115.55
1161.73
1869.31
1383.11
1115.54
1161.11
1870.22
1383.67
1115.51
1160.44
1871.22
1384.24
1115.45
1159.67
1872.23
1384.8
1115.36
1158.85
1873.16
1385.29
1115.26
1158.05
1873.9
1385.65
1115.15
1157.39
1874.38
1385.85
1115.08
1156.99
1874.38
1385.85
1115.08
1156.99
1873.9
1385.65
1115.15
1157.39
1873.15
1385.29
1115.26
1158.05
1872.23
1384.8
1115.36
1158.85
1871.22
1384.24
1115.44
1159.67
1870.22
1383.66
1115.51
1160.44
1869.31
1383.1
1115.53
1161.11
1868.63
1382.55
1115.55
1161.72
1868.47
1382.45
1116.04
1162.59
1870.43
1384.59
1115.19
1157.12
1560.14
1245.9
1013.26
896.927
1560.38
1244.7
1012.28
897.044
1560.46
1244.97
1012.06
896.077
1560.82
1245.66
1012.39
895.432
1561.31
1246.41
1012.83
894.817
1561.84
1247.2
1013.3
894.167
1562.39
1247.99
1013.78
893.504
1562.94
1248.72
1014.2
892.882
1563.41
1249.28
1014.51
892.374
1563.77
1249.6
1014.68
892.078
1563.77
1249.6
1014.68
892.078
1563.41
1249.28
1014.51
892.373
1562.93
1248.71
1014.2
892.88
1562.39
1247.99
1013.78
893.502
1561.84
1247.19
1013.3
894.165
1561.31
1246.4
1012.83
894.814
1560.82
1245.66
1012.39
895.429
1560.46
1244.97
1012.05
896.073
1560.38
1244.69
1012.28
897.04
1560.14
1245.89
1013.26
896.922
1304.21
1145.41
980.579
813.213
1306.86
1145.1
978.782
809.62
1306.95
1145.36
978.641
809.132
1307.17
1145.87
978.973
809.007
1307.45
1146.42
979.424
809.024
1307.73
1146.99
979.922
809.092
1308.03
1147.57
980.423
809.168
1308.34
1148.1
980.876
809.227
1308.66
1148.54
981.223
809.255
1308.98
1148.81
981.413
809.26
1308.98
1148.81
981.413
809.26
1308.66
1148.54
981.222
809.254
1308.34
1148.1
980.874
809.225
1308.02
1147.56
980.421
809.166
1307.73
1146.99
979.92
809.09
1307.45
1146.41
979.422
809.021
1307.17
1145.87
978.971
809.004
1306.95
1145.36
978.638
809.129
1306.86
1145.09
978.778
809.617
1304.21
1145.41
980.576
813.209
1141.6
1048.46
944.571
847.098
1144.76
1048.39
943.128
844.087
1144.82
1048.57
943.059
844.244
1144.97
1048.85
943.321
844.656
1145.14
1049.14
943.682
845.229
1145.3
1049.44
944.081
845.881
1145.48
1049.74
944.48
846.532
1145.68
1050.03
944.84
847.107
1145.92
1050.28
945.119
847.531
1146.2
1050.45
945.273
847.754
1146.2
1050.45
945.273
847.754
1145.91
1050.28
945.118
847.53
1145.68
1050.02
944.839
847.106
1145.48
1049.73
944.478
846.531
1145.3
1049.43
944.079
845.879
1145.13
1049.14
943.68
845.227
1144.96
1048.85
943.318
844.654
1144.82
1048.56
943.056
844.242
1144.76
1048.38
943.125
844.084
1141.6
1048.45
944.568
847.095
1034.6
962.175
897.093
859.922
1037.34
962.172
896.196
857.951
1037.38
962.341
896.2
858.297
1037.45
962.527
896.421
858.763
1037.55
962.714
896.727
859.329
1037.66
962.913
897.064
859.947
1037.77
963.118
897.399
860.553
1037.91
963.322
897.699
861.079
1038.1
963.507
897.93
861.463
1038.36
963.638
898.057
861.662
1038.36
963.638
898.057
861.662
1038.1
963.506
897.929
861.462
1037.91
963.32
897.698
861.078
1037.77
963.116
897.397
860.552
1037.65
962.91
897.062
859.946
1037.55
962.711
896.725
859.327
1037.45
962.524
896.419
858.761
1037.37
962.338
896.197
858.295
1037.34
962.168
896.193
857.948
1034.6
962.172
897.089
859.92
934.697
876.624
826.123
795.173
937.173
876.732
825.398
793.222
937.241
876.91
825.382
793.388
937.299
877.058
825.51
793.595
937.376
877.202
825.698
793.831
937.46
877.356
825.903
794.08
937.561
877.517
826.104
794.311
937.686
877.675
826.28
794.495
937.848
877.815
826.41
794.613
938.063
877.913
826.478
794.666
938.063
877.913
826.478
794.666
937.847
877.814
826.409
794.613
937.684
877.674
826.279
794.494
937.558
877.515
826.103
794.31
937.457
877.354
825.901
794.079
937.372
877.199
825.696
793.83
937.295
877.055
825.508
793.593
937.237
876.906
825.379
793.386
937.169
876.728
825.395
793.22
934.693
876.62
826.12
795.171
843.711
783.357
727.373
675.836
845.71
783.375
726.514
673.513
845.842
783.503
726.387
673.395
845.938
783.592
726.364
673.31
846.056
783.66
726.368
673.21
846.183
783.727
726.371
673.094
846.32
783.794
726.366
672.96
846.467
783.857
726.352
672.815
846.623
783.91
726.331
672.681
846.793
783.949
726.314
672.594
846.793
783.949
726.314
672.594
846.621
783.909
726.33
672.68
846.465
783.855
726.351
672.814
846.317
783.792
726.365
672.959
846.179
783.725
726.369
673.093
846.052
783.657
726.366
673.209
845.934
783.589
726.362
673.309
845.837
783.5
726.385
673.393
845.705
783.371
726.511
673.511
843.706
783.353
727.37
675.833
778.275
696.089
623.226
551.068
779.336
695.722
622.132
548.571
779.495
695.765
621.895
548.251
779.624
695.796
621.756
548
779.787
695.801
621.627
547.723
779.96
695.798
621.486
547.423
780.136
695.79
621.338
547.11
780.303
695.778
621.194
546.808
780.454
695.764
621.071
546.555
780.584
695.757
620.996
546.405
780.583
695.757
620.996
546.405
780.452
695.763
621.07
546.555
780.301
695.776
621.192
546.807
780.133
695.787
621.336
547.109
779.956
695.795
621.484
547.422
779.782
695.797
621.625
547.722
779.618
695.792
621.754
547.999
779.489
695.761
621.892
548.249
779.33
695.718
622.129
548.569
778.268
696.085
623.223
551.066
730.908
631.205
544.375
460.346
731.105
630.437
543.095
457.927
731.244
630.419
542.824
457.547
731.353
630.429
542.668
457.286
731.502
630.423
542.528
457.014
731.662
630.415
542.382
456.728
731.821
630.402
542.233
456.438
731.968
630.386
542.092
456.165
732.091
630.369
541.975
455.94
732.186
630.357
541.905
455.808
732.185
630.356
541.905
455.808
732.089
630.367
541.974
455.94
731.964
630.384
542.091
456.164
731.817
630.399
542.231
456.438
731.657
630.411
542.38
456.727
731.496
630.42
542.525
457.013
731.346
630.424
542.665
457.284
731.237
630.414
542.821
457.546
731.098
630.432
543.092
457.925
730.9
631.2
544.371
460.344
683.669
587.337
501.082
417.826
683.497
586.433
499.801
415.676
683.606
586.398
499.572
415.36
683.662
586.412
499.469
415.19
683.751
586.421
499.394
415.034
683.848
586.432
499.324
414.881
683.945
586.443
499.257
414.731
684.036
586.453
499.194
414.591
684.115
586.458
499.141
414.475
684.178
586.46
499.109
414.406
684.178
586.459
499.108
414.406
684.113
586.457
499.141
414.475
684.032
586.451
499.193
414.59
683.94
586.44
499.255
414.73
683.841
586.428
499.321
414.88
683.744
586.416
499.391
415.033
683.654
586.407
499.466
415.189
683.597
586.393
499.569
415.359
683.487
586.427
499.797
415.675
683.659
587.331
501.079
417.825
631.219
553.384
481.054
411.59
631.073
552.603
479.974
409.897
631.17
552.582
479.817
409.693
631.181
552.601
479.772
409.634
631.211
552.615
479.759
409.601
631.242
552.634
479.756
409.582
631.275
552.654
479.758
409.57
631.31
552.675
479.76
409.557
631.348
552.691
479.76
409.542
631.386
552.7
479.757
409.531
631.385
552.699
479.757
409.531
631.345
552.69
479.759
409.542
631.305
552.672
479.759
409.556
631.269
552.651
479.756
409.569
631.234
552.629
479.754
409.582
631.202
552.61
479.756
409.6
631.171
552.595
479.769
409.634
631.16
552.575
479.813
409.692
631.062
552.596
479.97
409.895
631.207
553.377
481.05
411.589
579.605
522.964
469.038
418.776
579.615
522.405
468.25
417.585
579.717
522.405
468.156
417.474
579.707
522.427
468.148
417.489
579.704
522.441
468.167
417.527
579.698
522.455
468.196
417.581
579.693
522.472
468.227
417.638
579.694
522.489
468.256
417.689
579.707
522.503
468.276
417.724
579.728
522.51
468.285
417.741
579.727
522.51
468.285
417.741
579.703
522.501
468.275
417.724
579.689
522.486
468.254
417.689
579.686
522.468
468.225
417.638
579.689
522.45
468.193
417.58
579.694
522.435
468.164
417.526
579.696
522.421
468.145
417.488
579.704
522.398
468.152
417.474
579.602
522.397
468.247
417.584
579.591
522.956
469.033
418.775
535.417
495.243
456.904
422.682
535.54
494.877
456.373
421.878
535.652
494.894
456.317
421.815
535.642
494.919
456.325
421.856
535.632
494.931
456.353
421.912
535.616
494.942
456.387
421.978
535.6
494.952
456.421
422.045
535.591
494.962
456.45
422.103
535.593
494.97
456.471
422.144
535.605
494.974
456.48
422.164
535.604
494.973
456.479
422.164
535.589
494.968
456.47
422.144
535.585
494.959
456.449
422.103
535.592
494.948
456.418
422.045
535.606
494.936
456.384
421.978
535.62
494.925
456.35
421.911
535.629
494.912
456.321
421.855
535.638
494.886
456.313
421.814
535.525
494.868
456.368
421.878
535.402
495.234
456.9
422.681
500.354
470.233
441.951
417.324
500.497
469.983
441.58
416.745
500.615
470.008
441.541
416.692
500.611
470.033
441.55
416.73
500.607
470.044
441.574
416.774
500.596
470.051
441.6
416.823
500.584
470.057
441.624
416.87
500.575
470.062
441.643
416.908
500.575
470.065
441.655
416.933
500.584
470.064
441.659
416.944
500.582
470.064
441.659
416.944
500.571
470.062
441.654
416.933
500.569
470.059
441.642
416.908
500.575
470.053
441.622
416.869
500.585
470.045
441.597
416.823
500.594
470.037
441.571
416.774
500.597
470.025
441.546
416.73
500.6
469.999
441.537
416.692
500.481
469.974
441.576
416.744
500.338
470.224
441.947
417.324
472.03
447.024
424.051
403.841
472.125
446.82
423.756
403.37
472.241
446.842
423.72
403.312
472.243
446.864
423.723
403.337
472.244
446.873
423.738
403.362
472.24
446.878
423.753
403.388
472.233
446.88
423.765
403.41
472.228
446.881
423.773
403.426
472.229
446.878
423.776
403.434
472.234
446.875
423.775
403.436
472.232
446.874
423.774
403.436
472.224
446.876
423.775
403.434
472.222
446.877
423.771
403.426
472.224
446.875
423.763
403.41
472.228
446.872
423.75
403.388
472.231
446.865
423.735
403.362
472.228
446.855
423.719
403.336
472.226
446.833
423.716
403.312
472.109
446.81
423.752
403.37
472.013
447.014
424.047
403.841
446.781
424.353
404.055
385.745
446.805
424.156
403.792
385.331
446.914
424.172
403.754
385.266
446.916
424.189
403.751
385.279
446.919
424.195
403.759
385.291
446.917
424.197
403.765
385.302
446.913
424.196
403.769
385.309
446.909
424.193
403.769
385.311
446.908
424.188
403.765
385.309
446.91
424.183
403.761
385.306
446.909
424.182
403.761
385.306
446.904
424.186
403.764
385.309
446.902
424.19
403.767
385.311
446.904
424.191
403.767
385.309
446.906
424.191
403.763
385.302
446.906
424.187
403.756
385.291
446.901
424.18
403.748
385.279
446.899
424.163
403.75
385.266
446.789
424.147
403.788
385.331
446.764
424.343
404.051
385.745
421.723
401.239
382.802
365.878
421.688
401.044
382.56
365.514
421.787
401.053
382.522
365.447
421.785
401.065
382.515
365.454
421.786
401.068
382.518
365.46
421.783
401.068
382.521
365.465
421.777
401.065
382.521
365.467
421.772
401.06
382.517
365.465
421.768
401.053
382.512
365.46
421.767
401.047
382.506
365.455
421.766
401.046
382.506
365.456
421.764
401.051
382.511
365.46
421.765
401.056
382.516
365.465
421.769
401.06
382.519
365.467
421.772
401.062
382.519
365.465
421.774
401.061
382.516
365.46
421.772
401.057
382.512
365.454
421.772
401.045
382.518
365.447
421.673
401.036
382.556
365.514
421.707
401.23
382.798
365.878
395.479
377.18
360.701
345.503
395.411
376.995
360.485
345.195
395.5
377
360.45
345.131
395.494
377.008
360.442
345.137
395.491
377.008
360.444
345.142
395.484
377.006
360.445
345.147
395.476
377.001
360.443
345.148
395.467
376.995
360.439
345.147
395.461
376.987
360.433
345.142
395.457
376.981
360.428
345.139
395.456
376.98
360.428
345.139
395.457
376.985
360.432
345.142
395.461
376.992
360.438
345.147
395.468
376.997
360.441
345.149
395.474
377.001
360.442
345.147
395.48
377.002
360.441
345.143
395.482
377.001
360.439
345.138
395.487
376.992
360.447
345.131
395.397
376.987
360.482
345.195
395.465
377.172
360.698
345.504
367.941
352.115
337.839
324.735
367.861
351.95
337.656
324.486
367.942
351.953
337.625
324.428
367.933
351.958
337.618
324.435
367.926
351.957
337.619
324.441
367.916
351.953
337.619
324.446
367.905
351.947
337.618
324.449
367.893
351.94
337.614
324.448
367.885
351.931
337.608
324.446
367.879
351.924
337.603
324.443
367.878
351.924
337.603
324.443
367.882
351.93
337.608
324.446
367.888
351.937
337.613
324.449
367.898
351.943
337.616
324.449
367.908
351.948
337.618
324.447
367.917
351.951
337.617
324.442
367.923
351.952
337.615
324.436
367.93
351.946
337.622
324.429
367.849
351.943
337.653
324.487
367.928
352.108
337.836
324.736
339.647
326.295
314.257
303.316
339.569
326.155
314.108
303.123
339.642
326.157
314.082
303.072
339.632
326.161
314.076
303.079
339.623
326.158
314.076
303.085
339.611
326.153
314.077
303.091
339.598
326.147
314.074
303.093
339.585
326.138
314.07
303.093
339.575
326.13
314.065
303.091
339.568
326.123
314.06
303.088
339.567
326.122
314.06
303.088
339.573
326.128
314.064
303.091
339.581
326.136
314.069
303.093
339.593
326.144
314.073
303.094
339.605
326.15
314.075
303.091
339.616
326.154
314.075
303.086
339.624
326.156
314.074
303.08
339.633
326.152
314.08
303.072
339.559
326.149
314.106
303.123
339.637
326.29
314.255
303.317
311.259
300.118
290.116
281.131
311.187
300.001
289.998
280.984
311.254
300.004
289.976
280.939
311.243
300.007
289.97
280.947
311.234
300.004
289.971
280.952
311.221
299.998
289.97
280.956
311.207
299.99
289.967
280.958
311.194
299.982
289.963
280.957
311.183
299.973
289.957
280.954
311.176
299.966
289.952
280.952
311.175
299.965
289.952
280.952
311.181
299.972
289.956
280.954
311.191
299.98
289.962
280.957
311.203
299.988
289.967
280.958
311.216
299.995
289.969
280.957
311.228
300.001
289.97
280.952
311.238
300.004
289.969
280.947
311.247
300
289.975
280.939
311.18
299.997
289.997
280.985
311.252
300.114
290.114
281.131
283.306
274.003
265.715
258.354
283.24
273.906
265.622
258.244
283.302
273.908
265.604
258.203
283.292
273.911
265.598
258.21
283.282
273.907
265.598
258.214
283.27
273.901
265.597
258.217
283.256
273.893
265.593
258.217
283.243
273.884
265.588
258.215
283.232
273.875
265.581
258.211
283.225
273.868
265.577
258.208
283.225
273.868
265.577
258.208
283.231
273.875
265.581
258.211
283.241
273.883
265.587
258.215
283.254
273.892
265.593
258.217
283.267
273.9
265.596
258.217
283.279
273.906
265.598
258.215
283.289
273.909
265.598
258.21
283.298
273.906
265.603
258.203
283.237
273.904
265.621
258.244
283.303
274
265.714
258.354
256.154
248.33
241.432
235.37
256.092
248.249
241.359
235.286
256.148
248.251
241.343
235.25
256.139
248.253
241.338
235.256
256.129
248.249
241.337
235.259
256.118
248.243
241.335
235.26
256.105
248.235
241.33
235.259
256.092
248.226
241.324
235.255
256.082
248.217
241.318
235.251
256.075
248.211
241.313
235.248
256.075
248.211
241.313
235.248
256.082
248.217
241.318
235.251
256.092
248.226
241.324
235.255
256.105
248.235
241.33
235.259
256.118
248.243
241.335
235.26
256.129
248.249
241.337
235.259
256.138
248.253
241.337
235.256
256.148
248.251
241.342
235.25
256.092
248.248
241.358
235.286
256.153
248.329
241.431
235.369
230.055
223.428
217.654
212.631
229.998
223.36
217.596
212.568
230.047
223.363
217.582
212.535
230.039
223.364
217.577
212.54
230.03
223.36
217.576
212.542
230.02
223.354
217.573
212.542
230.008
223.347
217.568
212.54
229.996
223.338
217.562
212.535
229.986
223.329
217.556
212.53
229.979
223.323
217.551
212.527
229.979
223.323
217.551
212.527
229.987
223.329
217.556
212.53
229.997
223.338
217.562
212.535
230.009
223.347
217.568
212.539
230.022
223.355
217.573
212.541
230.033
223.361
217.576
212.541
230.042
223.365
217.577
212.539
230.05
223.364
217.582
212.534
230.001
223.362
217.595
212.567
230.058
223.43
217.653
212.63
205.212
199.579
194.728
190.555
205.16
199.521
194.681
190.508
205.204
199.523
194.669
190.479
205.196
199.524
194.665
190.483
205.188
199.521
194.664
190.484
205.178
199.515
194.661
190.483
205.167
199.507
194.656
190.48
205.156
199.499
194.649
190.475
205.147
199.491
194.643
190.47
205.141
199.485
194.639
190.467
205.141
199.485
194.639
190.467
205.148
199.491
194.643
190.47
205.159
199.5
194.649
190.475
205.17
199.509
194.656
190.479
205.182
199.517
194.661
190.482
205.193
199.523
194.664
190.483
205.201
199.527
194.665
190.482
205.209
199.526
194.669
190.477
205.166
199.524
194.682
190.506
205.218
199.582
194.728
190.554
181.803
177.013
172.937
169.477
181.755
176.964
172.9
169.442
181.794
176.966
172.89
169.416
181.787
176.966
172.886
169.42
181.779
176.963
172.884
169.42
181.77
176.957
172.881
169.419
181.76
176.95
172.876
169.415
181.75
176.942
172.87
169.411
181.741
176.935
172.864
169.406
181.736
176.929
172.86
169.402
181.736
176.93
172.86
169.402
181.743
176.936
172.864
169.405
181.753
176.944
172.87
169.41
181.765
176.952
172.876
169.414
181.776
176.96
172.881
169.417
181.786
176.966
172.885
169.419
181.794
176.97
172.886
169.418
181.801
176.969
172.89
169.414
181.763
176.968
172.901
169.439
181.811
177.017
172.938
169.475
159.976
155.911
152.495
149.639
159.932
155.87
152.466
149.613
159.966
155.871
152.457
149.591
159.96
155.871
152.454
149.594
159.953
155.868
152.452
149.594
159.945
155.863
152.449
149.592
159.936
155.856
152.444
149.589
159.926
155.849
152.438
149.584
159.919
155.842
152.433
149.579
159.913
155.837
152.429
149.576
159.914
155.838
152.429
149.576
159.921
155.843
152.433
149.579
159.93
155.851
152.438
149.583
159.941
155.859
152.444
149.587
159.951
155.866
152.449
149.591
159.961
155.872
152.452
149.592
159.968
155.875
152.454
149.591
159.975
155.875
152.457
149.588
159.942
155.874
152.466
149.61
159.986
155.915
152.496
149.636
139.841
136.401
133.549
131.204
139.802
136.367
133.526
131.185
139.832
136.368
133.518
131.166
139.826
136.368
133.515
131.168
139.82
136.365
133.513
131.168
139.812
136.36
133.51
131.167
139.804
136.354
133.506
131.163
139.796
136.347
133.501
131.159
139.788
136.341
133.495
131.154
139.784
136.337
133.492
131.151
139.785
136.337
133.492
131.151
139.791
136.342
133.496
131.154
139.8
136.349
133.501
131.158
139.81
136.357
133.506
131.162
139.819
136.364
133.511
131.165
139.828
136.369
133.514
131.166
139.835
136.372
133.516
131.166
139.842
136.372
133.519
131.163
139.813
136.371
133.526
131.182
139.852
136.406
133.549
131.201
121.462
118.559
116.185
114.269
121.427
118.53
116.167
114.257
121.453
118.531
116.161
114.24
121.448
118.531
116.158
114.242
121.443
118.529
116.156
114.242
121.436
118.524
116.153
114.24
121.428
118.519
116.149
114.237
121.421
118.513
116.144
114.233
121.414
118.507
116.14
114.228
121.41
118.503
116.137
114.226
121.411
118.503
116.137
114.226
121.417
118.508
116.14
114.228
121.425
118.515
116.145
114.231
121.434
118.521
116.15
114.235
121.443
118.528
116.154
114.238
121.451
118.532
116.157
114.239
121.457
118.536
116.158
114.239
121.463
118.536
116.161
114.237
121.438
118.535
116.168
114.254
121.473
118.564
116.186
114.266
104.853
102.41
100.439
98.8796
104.824
102.385
100.425
98.8714
104.846
102.386
100.419
98.857
104.841
102.386
100.417
98.8589
104.836
102.384
100.415
98.8585
104.83
102.38
100.413
98.8568
104.824
102.375
100.409
98.8537
104.817
102.369
100.405
98.8499
104.811
102.364
100.4
98.8463
104.807
102.361
100.398
98.8438
104.808
102.361
100.398
98.8436
104.814
102.365
100.4
98.8456
104.821
102.371
100.405
98.8489
104.829
102.377
100.409
98.8523
104.837
102.383
100.413
98.855
104.844
102.387
100.416
98.8564
104.85
102.39
100.417
98.8565
104.855
102.391
100.42
98.8544
104.834
102.39
100.425
98.8687
104.864
102.414
100.439
98.8769
89.9874
87.933
86.3003
85.0352
89.9614
87.9129
86.2895
85.0301
89.9804
87.9137
86.2849
85.0178
89.9764
87.9137
86.2829