/*--------------------------------*- C++ -*----------------------------------*\
| =========                 |                                                 |
| \\      /  F ield         | foam-extend: Open Source CFD                    |
|  \\    /   O peration     | Version:     3.1                                |
|   \\  /    A nd           | Web:         http://www.extend-project.de       |
|    \\/     M anipulation  |                                                 |
\*---------------------------------------------------------------------------*/
FoamFile
{
    version     2.0;
    format      ascii;
    class       volVectorField;
    location    "1.9";
    object      cellMotionU;
}
// * * * * * * * * * * * * * * * * * * * * * * * * * * * * * * * * * * * * * //

dimensions      [0 1 -1 0 0 0 0];

internalField   nonuniform List<vector> 
14592
(
(-9.3245e-12 -6.78897e-13 5.78844e-13)
(-2.70478e-11 -2.00714e-12 1.71717e-12)
(-4.32702e-11 -3.33676e-12 2.87181e-12)
(-5.856e-11 -4.78429e-12 4.14465e-12)
(-7.34399e-11 -6.47934e-12 5.63903e-12)
(-8.84204e-11 -8.58538e-12 7.46979e-12)
(-1.04031e-10 -1.13258e-11 9.7727e-12)
(-1.20847e-10 -1.50243e-11 1.27137e-11)
(-1.39523e-10 -2.01646e-11 1.64953e-11)
(-1.60805e-10 -2.74877e-11 2.13536e-11)
(-1.85536e-10 -3.81511e-11 2.75282e-11)
(-2.14626e-10 -5.39976e-11 3.51531e-11)
(-2.48965e-10 -7.80337e-11 4.39409e-11)
(-2.89252e-10 -1.15218e-10 5.23329e-11)
(-3.35307e-10 -1.72662e-10 5.5596e-11)
(-3.79911e-10 -2.46805e-10 4.56896e-11)
(-2.77422e-11 -1.99199e-12 1.71032e-12)
(-8.04657e-11 -5.88613e-12 5.07264e-12)
(-1.28701e-10 -9.77645e-12 8.47928e-12)
(-1.74116e-10 -1.39957e-11 1.2228e-11)
(-2.18245e-10 -1.89126e-11 1.66197e-11)
(-2.62573e-10 -2.49852e-11 2.19873e-11)
(-3.08634e-10 -3.28331e-11 2.87237e-11)
(-3.58089e-10 -4.33408e-11 3.73086e-11)
(-4.12803e-10 -5.78095e-11 4.83313e-11)
(-4.74888e-10 -7.81913e-11 6.24939e-11)
(-5.46686e-10 -1.07437e-10 8.05593e-11)
(-6.30604e-10 -1.50018e-10 1.0315e-10)
(-7.28621e-10 -2.12623e-10 1.30191e-10)
(-8.41021e-10 -3.04663e-10 1.59565e-10)
(-9.62529e-10 -4.35287e-10 1.84503e-10)
(-1.06579e-09 -5.82717e-10 1.92255e-10)
(-4.55607e-11 -3.18215e-12 2.77097e-12)
(-1.32116e-10 -9.395e-12 8.21393e-12)
(-2.11207e-10 -1.5573e-11 1.37149e-11)
(-2.85517e-10 -2.22252e-11 1.97461e-11)
(-3.57491e-10 -2.99031e-11 2.67807e-11)
(-4.29481e-10 -3.92766e-11 3.53381e-11)
(-5.03878e-10 -5.12292e-11 4.60265e-11)
(-5.83241e-10 -6.69886e-11 5.95865e-11)
(-6.7039e-10 -8.83025e-11 7.69319e-11)
(-7.68457e-10 -1.17685e-10 9.91776e-11)
(-8.80802e-10 -1.58721e-10 1.27624e-10)
(-1.01066e-09 -2.16385e-10 1.63633e-10)
(-1.16012e-09 -2.97105e-10 2.08261e-10)
(-1.3276e-09 -4.0761e-10 2.61414e-10)
(-1.5011e-09 -5.48702e-10 3.19943e-10)
(-1.63654e-09 -6.85136e-10 3.70632e-10)
(-6.24212e-11 -4.18487e-12 3.72124e-12)
(-1.80947e-10 -1.23382e-11 1.10219e-11)
(-2.89064e-10 -2.03943e-11 1.83734e-11)
(-3.90336e-10 -2.8979e-11 2.63891e-11)
(-4.8798e-10 -3.87516e-11 3.5677e-11)
(-5.85044e-10 -5.04847e-11 4.68945e-11)
(-6.84576e-10 -6.51605e-11 6.08016e-11)
(-7.8976e-10 -8.40836e-11 7.83131e-11)
(-9.04022e-10 -1.09025e-10 1.00554e-10)
(-1.03105e-09 -1.42374e-10 1.28911e-10)
(-1.17466e-09 -1.87261e-10 1.65067e-10)
(-1.33826e-09 -2.47499e-10 2.10985e-10)
(-1.52359e-09 -3.27032e-10 2.68743e-10)
(-1.72771e-09 -4.28105e-10 3.39897e-10)
(-1.93573e-09 -5.4614e-10 4.22768e-10)
(-2.09755e-09 -6.51037e-10 4.98558e-10)
(-7.80219e-11 -4.95517e-12 4.53155e-12)
(-2.26078e-10 -1.45853e-11 1.34081e-11)
(-3.60843e-10 -2.40264e-11 2.23038e-11)
(-4.86597e-10 -3.39576e-11 3.19335e-11)
(-6.07158e-10 -4.50694e-11 4.29939e-11)
(-7.26077e-10 -5.8131e-11 5.62232e-11)
(-8.4682e-10 -7.40733e-11 7.24549e-11)
(-9.72904e-10 -9.40551e-11 9.26715e-11)
(-1.10799e-09 -1.19545e-10 1.18057e-10)
(-1.25585e-09 -1.52343e-10 1.5005e-10)
(-1.42019e-09 -1.94506e-10 1.90399e-10)
(-1.60402e-09 -2.48007e-10 2.41195e-10)
(-1.80828e-09 -3.13884e-10 3.04828e-10)
(-2.02886e-09 -3.90583e-10 3.8353e-10)
(-2.24944e-09 -4.71105e-10 4.76564e-10)
(-2.41873e-09 -5.35188e-10 5.63967e-10)
(-9.21252e-11 -5.47161e-12 5.18403e-12)
(-2.66824e-10 -1.60765e-11 1.53196e-11)
(-4.25452e-10 -2.63806e-11 2.54187e-11)
(-5.72826e-10 -3.70626e-11 3.62548e-11)
(-7.13186e-10 -4.87778e-11 4.85664e-11)
(-8.50388e-10 -6.22179e-11 6.31133e-11)
(-9.88089e-10 -7.81539e-11 8.07253e-11)
(-1.12987e-09 -9.74779e-11 1.02343e-10)
(-1.27928e-09 -1.21195e-10 1.29052e-10)
(-1.4398e-09 -1.50365e-10 1.62106e-10)
(-1.61457e-09 -1.85898e-10 2.02943e-10)
(-1.80571e-09 -2.28101e-10 2.5317e-10)
(-2.013e-09 -2.75888e-10 3.14497e-10)
(-2.23099e-09 -3.25667e-10 3.88426e-10)
(-2.44262e-09 -3.70514e-10 4.74252e-10)
(-2.60025e-09 -3.99857e-10 5.55445e-10)
(-1.04564e-10 -5.73339e-12 5.67275e-12)
(-3.02707e-10 -1.68136e-11 1.67404e-11)
(-4.82153e-10 -2.74805e-11 2.76953e-11)
(-6.48079e-10 -3.83676e-11 3.93298e-11)
(-8.04967e-10 -5.00541e-11 5.23808e-11)
(-9.56806e-10 -6.31111e-11 6.75787e-11)
(-1.10725e-09 -7.81138e-11 8.56843e-11)
(-1.25972e-09 -9.56514e-11 1.0751e-10)
(-1.41744e-09 -1.16283e-10 1.3392e-10)
(-1.58331e-09 -1.40432e-10 1.65806e-10)
(-1.75966e-09 -1.68162e-10 2.04013e-10)
(-1.94756e-09 -1.98808e-10 2.49182e-10)
(-2.14554e-09 -2.30438e-10 3.01476e-10)
(-2.34702e-09 -2.59418e-10 3.60053e-10)
(-2.53461e-09 -2.80866e-10 4.21774e-10)
(-2.66574e-09 -2.91237e-10 4.74645e-10)
(-1.15239e-10 -5.75619e-12 6.00304e-12)
(-3.33453e-10 -1.68483e-11 1.7688e-11)
(-5.30558e-10 -2.74312e-11 2.91703e-11)
(-7.11914e-10 -3.80648e-11 4.12264e-11)
(-8.82099e-10 -4.92397e-11 5.45569e-11)
(-1.04508e-09 -6.13889e-11 6.98254e-11)
(-1.20437e-09 -7.49076e-11 8.7681e-11)
(-1.3631e-09 -9.01291e-11 1.08758e-10)
(-1.52403e-09 -1.0728e-10 1.33645e-10)
(-1.6894e-09 -1.26385e-10 1.62811e-10)
(-1.8607e-09 -1.47117e-10 1.96444e-10)
(-2.03808e-09 -1.68592e-10 2.34161e-10)
(-2.21935e-09 -1.89217e-10 2.74486e-10)
(-2.39819e-09 -2.06861e-10 3.13917e-10)
(-2.56044e-09 -2.19984e-10 3.45398e-10)
(-2.67331e-09 -2.2936e-10 3.57132e-10)
(-9.37694e-12 -6.73956e-13 5.56037e-13)
(-2.71975e-11 -1.99326e-12 1.64979e-12)
(-4.35046e-11 -3.31706e-12 2.76018e-12)
(-5.88705e-11 -4.76404e-12 3.98622e-12)
(-7.38226e-11 -6.46935e-12 5.42895e-12)
(-8.88759e-11 -8.60598e-12 7.20129e-12)
(-1.04563e-10 -1.14158e-11 9.43778e-12)
(-1.21465e-10 -1.52555e-11 1.23038e-11)
(-1.40236e-10 -2.06693e-11 1.60021e-11)
(-1.61614e-10 -2.85061e-11 2.07712e-11)
(-1.86417e-10 -4.01106e-11 2.68573e-11)
(-2.15473e-10 -5.76393e-11 3.44191e-11)
(-2.49461e-10 -8.45466e-11 4.32697e-11)
(-2.88541e-10 -1.26085e-10 5.22711e-11)
(-3.31256e-10 -1.87959e-10 5.83022e-11)
(-3.69125e-10 -2.60962e-10 5.69716e-11)
(-2.78952e-11 -1.97571e-12 1.64281e-12)
(-8.09021e-11 -5.84087e-12 4.87313e-12)
(-1.29382e-10 -9.70892e-12 8.14882e-12)
(-1.75015e-10 -1.39201e-11 1.17592e-11)
(-2.19346e-10 -1.88562e-11 1.59983e-11)
(-2.63872e-10 -2.50004e-11 2.11936e-11)
(-3.10136e-10 -3.30205e-11 2.77342e-11)
(-3.59805e-10 -4.38881e-11 3.60979e-11)
(-4.1474e-10 -5.90616e-11 4.68743e-11)
(-4.77024e-10 -8.07687e-11 6.07686e-11)
(-5.489e-10 -1.12432e-10 7.85504e-11)
(-6.32487e-10 -1.59278e-10 1.00865e-10)
(-7.29011e-10 -2.28989e-10 1.27731e-10)
(-8.36869e-10 -3.31392e-10 1.57428e-10)
(-9.46698e-10 -4.72004e-10 1.84642e-10)
(-1.02864e-09 -6.1762e-10 1.99695e-10)
(-4.58036e-11 -3.15163e-12 2.66118e-12)
(-1.32806e-10 -9.3062e-12 7.88952e-12)
(-2.12278e-10 -1.54355e-11 1.3178e-11)
(-2.86918e-10 -2.20545e-11 1.8985e-11)
(-3.59186e-10 -2.97301e-11 2.57729e-11)
(-4.31444e-10 -3.91634e-11 3.40523e-11)
(-5.06093e-10 -5.12995e-11 4.44256e-11)
(-5.85685e-10 -6.74716e-11 5.76297e-11)
(-6.73018e-10 -8.96251e-11 7.45774e-11)
(-7.71145e-10 -1.20606e-10 9.63811e-11)
(-8.83225e-10 -1.64554e-10 1.24328e-10)
(-1.01195e-09 -2.27273e-10 1.59727e-10)
(-1.15806e-09 -3.16131e-10 2.03467e-10)
(-1.31669e-09 -4.37783e-10 2.54958e-10)
(-1.46928e-09 -5.88193e-10 3.09737e-10)
(-1.56951e-09 -7.206e-10 3.53289e-10)
(-6.27375e-11 -4.13471e-12 3.57299e-12)
(-1.81842e-10 -1.21913e-11 1.05841e-11)
(-2.90441e-10 -2.01575e-11 1.76494e-11)
(-3.92112e-10 -2.86606e-11 2.53642e-11)
(-4.90085e-10 -3.837e-11 3.4322e-11)
(-5.87414e-10 -5.00845e-11 4.51691e-11)
(-6.87137e-10 -6.48341e-11 5.86573e-11)
(-7.92413e-10 -8.40195e-11 7.56975e-11)
(-9.06599e-10 -1.09575e-10 9.74119e-11)
(-1.03324e-09 -1.44174e-10 1.25179e-10)
(-1.17583e-09 -1.91385e-10 1.60644e-10)
(-1.33703e-09 -2.55645e-10 2.05635e-10)
(-1.51678e-09 -3.41454e-10 2.61799e-10)
(-1.70812e-09 -4.50492e-10 3.29438e-10)
(-1.88842e-09 -5.73367e-10 4.03836e-10)
(-2.00584e-09 -6.70345e-10 4.64123e-10)
(-7.83919e-11 -4.88148e-12 4.34985e-12)
(-2.2712e-10 -1.43672e-11 1.28718e-11)
(-3.62427e-10 -2.36631e-11 2.14179e-11)
(-4.88602e-10 -3.34426e-11 3.06815e-11)
(-6.09467e-10 -4.43934e-11 4.13422e-11)
(-7.28565e-10 -5.72969e-11 5.41252e-11)
(-8.49329e-10 -7.30998e-11 6.98552e-11)
(-9.75212e-10 -9.30171e-11 8.95103e-11)
(-1.10975e-09 -1.18601e-10 1.14272e-10)
(-1.25648e-09 -1.51805e-10 1.45572e-10)
(-1.41868e-09 -1.94914e-10 1.85112e-10)
(-1.59845e-09 -2.50175e-10 2.34817e-10)
(-1.79479e-09 -3.18743e-10 2.96534e-10)
(-1.99943e-09 -3.98254e-10 3.70885e-10)
(-2.18854e-09 -4.7802e-10 4.53185e-10)
(-2.30978e-09 -5.31886e-10 5.20447e-10)
(-9.25286e-11 -5.37212e-12 4.97461e-12)
(-2.6795e-10 -1.57773e-11 1.47019e-11)
(-4.2714e-10 -2.5874e-11 2.43998e-11)
(-5.74912e-10 -3.63192e-11 3.48178e-11)
(-7.15497e-10 -4.77548e-11 4.66757e-11)
(-8.52723e-10 -6.08544e-11 6.07193e-11)
(-9.90184e-10 -7.63815e-11 7.77697e-11)
(-1.13135e-09 -9.52118e-11 9.87639e-11)
(-1.27958e-09 -1.18353e-10 1.24788e-10)
(-1.43803e-09 -1.46864e-10 1.57096e-10)
(-1.60929e-09 -1.81647e-10 1.97095e-10)
(-1.79449e-09 -2.22949e-10 2.46258e-10)
(-1.99148e-09 -2.694e-10 3.05838e-10)
(-2.191e-09 -3.16452e-10 3.75919e-10)
(-2.3696e-09 -3.54626e-10 4.52124e-10)
(-2.47995e-09 -3.70884e-10 5.1447e-10)
(-1.04981e-10 -5.60752e-12 5.44173e-12)
(-3.03861e-10 -1.6434e-11 1.60595e-11)
(-4.83853e-10 -2.68285e-11 2.65741e-11)
(-6.50114e-10 -3.73919e-11 3.77524e-11)
(-8.07108e-10 -4.86768e-11 5.03118e-11)
(-9.58769e-10 -6.12084e-11 6.49686e-11)
(-1.10866e-09 -7.55209e-11 8.24754e-11)
(-1.26004e-09 -9.21399e-11 1.03643e-10)
(-1.41589e-09 -1.11541e-10 1.29341e-10)
(-1.57871e-09 -1.34028e-10 1.60469e-10)
(-1.75019e-09 -1.59491e-10 1.97866e-10)
(-1.93034e-09 -1.86961e-10 2.42114e-10)
(-2.11583e-09 -2.13961e-10 2.93129e-10)
(-2.2968e-09 -2.35732e-10 3.49294e-10)
(-2.45091e-09 -2.45196e-10 4.05403e-10)
(-2.53791e-09 -2.37995e-10 4.4732e-10)
(-1.15652e-10 -5.60674e-12 5.75646e-12)
(-3.34587e-10 -1.63985e-11 1.6962e-11)
(-5.32189e-10 -2.6651e-11 2.7977e-11)
(-7.13795e-10 -3.68879e-11 3.95522e-11)
(-8.83942e-10 -4.75474e-11 5.23686e-11)
(-1.04653e-09 -5.90152e-11 6.70764e-11)
(-1.20495e-09 -7.16093e-11 8.43172e-11)
(-1.36214e-09 -8.55678e-11 1.04726e-10)
(-1.52056e-09 -1.00986e-10 1.289e-10)
(-1.68204e-09 -1.17715e-10 1.57321e-10)
(-1.84737e-09 -1.35177e-10 1.90192e-10)
(-2.01569e-09 -1.5215e-10 2.27125e-10)
(-2.18314e-09 -1.66493e-10 2.66583e-10)
(-2.34067e-09 -1.74999e-10 3.04934e-10)
(-2.47016e-09 -1.73697e-10 3.35163e-10)
(-2.54084e-09 -1.60882e-10 3.47009e-10)
(-9.41002e-12 -6.6423e-13 5.12254e-13)
(-2.72902e-11 -1.9647e-12 1.52011e-12)
(-4.36436e-11 -3.26987e-12 2.5441e-12)
(-5.90405e-11 -4.69859e-12 3.67626e-12)
(-7.40059e-11 -6.38664e-12 5.01068e-12)
(-8.905e-11 -8.5106e-12 6.6529e-12)
(-1.04698e-10 -1.13204e-11 8.72867e-12)
(-1.21517e-10 -1.51882e-11 1.1392e-11)
(-1.40139e-10 -2.06874e-11 1.48308e-11)
(-1.61267e-10 -2.87142e-11 1.9263e-11)
(-1.85649e-10 -4.06834e-11 2.49106e-11)
(-2.13993e-10 -5.88214e-11 3.19212e-11)
(-2.46767e-10 -8.65532e-11 4.01824e-11)
(-2.83846e-10 -1.28712e-10 4.8963e-11)
(-3.23735e-10 -1.89751e-10 5.64313e-11)
(-3.59432e-10 -2.59465e-10 5.98835e-11)
(-2.79913e-11 -1.94581e-12 1.51333e-12)
(-8.11702e-11 -5.75131e-12 4.48968e-12)
(-1.29782e-10 -9.56118e-12 7.51025e-12)
(-1.755e-10 -1.37123e-11 1.08437e-11)
(-2.1986e-10 -1.85876e-11 1.47641e-11)
(-2.64344e-10 -2.46787e-11 1.95774e-11)
(-3.1047e-10 -3.26713e-11 2.56469e-11)
(-3.59863e-10 -4.35745e-11 3.34178e-11)
(-4.14313e-10 -5.89176e-11 4.34344e-11)
(-4.75788e-10 -8.10426e-11 5.63364e-11)
(-5.46322e-10 -1.1354e-10 7.28008e-11)
(-6.27658e-10 -1.61783e-10 9.33577e-11)
(-7.20354e-10 -2.33322e-10 1.17958e-10)
(-8.21824e-10 -3.36844e-10 1.45144e-10)
(-9.2226e-10 -4.74794e-10 1.7083e-10)
(-9.95692e-10 -6.11953e-10 1.87422e-10)
(-4.59538e-11 -3.09826e-12 2.45107e-12)
(-1.33224e-10 -9.14832e-12 7.2677e-12)
(-2.12894e-10 -1.51708e-11 1.21434e-11)
(-2.8765e-10 -2.16742e-11 1.75038e-11)
(-3.59934e-10 -2.92226e-11 2.37798e-11)
(-4.3208e-10 -3.8522e-11 3.14483e-11)
(-5.06437e-10 -5.05288e-11 4.10716e-11)
(-5.85482e-10 -6.66195e-11 5.33357e-11)
(-6.71882e-10 -8.88031e-11 6.908e-11)
(-7.68488e-10 -1.20051e-10 8.93044e-11)
(-8.78101e-10 -1.64658e-10 1.15108e-10)
(-1.00279e-09 -2.28539e-10 1.47479e-10)
(-1.14221e-09 -3.18781e-10 1.8675e-10)
(-1.28989e-09 -4.40573e-10 2.3146e-10)
(-1.42643e-09 -5.86473e-10 2.76229e-10)
(-1.51123e-09 -7.08515e-10 3.08138e-10)
(-6.29294e-11 -4.05564e-12 3.29028e-12)
(-1.82371e-10 -1.19547e-11 9.74791e-12)
(-2.91208e-10 -1.97554e-11 1.626e-11)
(-3.92995e-10 -2.80703e-11 2.33793e-11)
(-4.90933e-10 -3.75571e-11 3.16587e-11)
(-5.88024e-10 -4.90034e-11 4.17013e-11)
(-6.8723e-10 -6.34383e-11 5.42097e-11)
(-7.91583e-10 -8.22668e-11 7.00303e-11)
(-9.04246e-10 -1.07453e-10 9.01935e-11)
(-1.02846e-09 -1.41715e-10 1.15929e-10)
(-1.16722e-09 -1.88685e-10 1.48616e-10)
(-1.32237e-09 -2.5277e-10 1.89573e-10)
(-1.49256e-09 -3.38088e-10 2.39448e-10)
(-1.66905e-09 -4.45002e-10 2.9673e-10)
(-1.82868e-09 -5.61651e-10 3.54495e-10)
(-1.92709e-09 -6.48797e-10 3.94754e-10)
(-7.86106e-11 -4.7741e-12 4.00473e-12)
(-2.27716e-10 -1.40425e-11 1.18519e-11)
(-3.63271e-10 -2.31065e-11 1.97264e-11)
(-4.89529e-10 -3.2611e-11 2.82716e-11)
(-6.10264e-10 -4.32194e-11 3.81204e-11)
(-7.28948e-10 -5.56769e-11 4.99495e-11)
(-8.48898e-10 -7.09046e-11 6.45297e-11)
(-9.73388e-10 -9.0065e-11 8.27703e-11)
(-1.10568e-09 -1.14667e-10 1.05756e-10)
(-1.24891e-09 -1.46595e-10 1.34762e-10)
(-1.40571e-09 -1.88026e-10 1.71201e-10)
(-1.57724e-09 -2.41e-10 2.16424e-10)
(-1.76119e-09 -3.06225e-10 2.71108e-10)
(-1.94781e-09 -3.80489e-10 3.33677e-10)
(-2.11377e-09 -4.52264e-10 3.9664e-10)
(-2.21582e-09 -4.97841e-10 4.40199e-10)
(-9.27587e-11 -5.23482e-12 4.57864e-12)
(-2.68569e-10 -1.53637e-11 1.35331e-11)
(-4.27988e-10 -2.51566e-11 2.24655e-11)
(-5.75779e-10 -3.52348e-11 3.20713e-11)
(-7.16107e-10 -4.61932e-11 4.30199e-11)
(-8.52703e-10 -5.86554e-11 5.6008e-11)
(-9.89007e-10 -7.33062e-11 7.18026e-11)
(-1.12825e-09 -9.09327e-11 9.12771e-11)
(-1.27346e-09 -1.12397e-10 1.15431e-10)
(-1.42725e-09 -1.38567e-10 1.45382e-10)
(-1.59147e-09 -1.70062e-10 1.82294e-10)
(-1.76618e-09 -2.06724e-10 2.27159e-10)
(-1.94789e-09 -2.46656e-10 2.80243e-10)
(-2.12633e-09 -2.84887e-10 3.39741e-10)
(-2.27975e-09 -3.12719e-10 3.98737e-10)
(-2.37151e-09 -3.21865e-10 4.39676e-10)
(-1.05209e-10 -5.44332e-12 5.00708e-12)
(-3.04463e-10 -1.59362e-11 1.4778e-11)
(-4.8464e-10 -2.59609e-11 2.44587e-11)
(-6.50835e-10 -3.60694e-11 3.476e-11)
(-8.07425e-10 -4.67481e-11 4.63491e-11)
(-9.58225e-10 -5.84566e-11 5.98946e-11)
(-1.10661e-09 -7.1618e-11 7.61005e-11)
(-1.25556e-09 -8.66139e-11 9.57237e-11)
(-1.40763e-09 -1.03713e-10 1.19569e-10)
(-1.56472e-09 -1.22926e-10 1.48441e-10)
(-1.72764e-09 -1.43723e-10 1.83024e-10)
(-1.89523e-09 -1.64587e-10 2.2361e-10)
(-2.06275e-09 -1.82389e-10 2.69561e-10)
(-2.21935e-09 -1.92027e-10 3.18267e-10)
(-2.34492e-09 -1.87912e-10 3.63348e-10)
(-2.41123e-09 -1.72367e-10 3.92439e-10)
(-1.15866e-10 -5.42071e-12 5.29498e-12)
(-3.35138e-10 -1.58307e-11 1.56031e-11)
(-5.32868e-10 -2.56603e-11 2.57401e-11)
(-7.14309e-10 -3.53654e-11 3.64011e-11)
(-8.83904e-10 -4.53226e-11 4.82191e-11)
(-1.04541e-09 -5.58173e-11 6.18005e-11)
(-1.20201e-09 -6.70474e-11 7.77462e-11)
(-1.35632e-09 -7.90762e-11 9.66505e-11)
(-1.51037e-09 -9.17582e-11 1.19069e-10)
(-1.6653e-09 -1.04606e-10 1.45433e-10)
(-1.82102e-09 -1.166e-10 1.75877e-10)
(-1.97541e-09 -1.25938e-10 2.09906e-10)
(-2.12313e-09 -1.29842e-10 2.45828e-10)
(-2.25388e-09 -1.24687e-10 2.79877e-10)
(-2.35081e-09 -1.07395e-10 3.05375e-10)
(-2.39404e-09 -8.19443e-11 3.14053e-10)
(-9.42775e-12 -6.51188e-13 4.48973e-13)
(-2.73375e-11 -1.92534e-12 1.33251e-12)
(-4.37065e-11 -3.20306e-12 2.23078e-12)
(-5.90993e-11 -4.59969e-12 3.22485e-12)
(-7.40334e-11 -6.24878e-12 4.39779e-12)
(-8.90088e-11 -8.32492e-12 5.84262e-12)
(-1.04535e-10 -1.10762e-11 7.66969e-12)
(-1.21158e-10 -1.48756e-11 1.00132e-11)
(-1.39477e-10 -2.02977e-11 1.30343e-11)
(-1.60153e-10 -2.82423e-11 1.69157e-11)
(-1.83881e-10 -4.01193e-11 2.18374e-11)
(-2.11305e-10 -5.81143e-11 2.79135e-11)
(-2.42853e-10 -8.55104e-11 3.50655e-11)
(-2.78481e-10 -1.26803e-10 4.28207e-11)
(-3.17133e-10 -1.8599e-10 5.00857e-11)
(-3.52655e-10 -2.53309e-10 5.49943e-11)
(-2.80418e-11 -1.90573e-12 1.32629e-12)
(-8.13044e-11 -5.63214e-12 3.93537e-12)
(-1.29957e-10 -9.35663e-12 6.58479e-12)
(-1.75657e-10 -1.3408e-11 9.51148e-12)
(-2.19916e-10 -1.81605e-11 1.29571e-11)
(-2.64184e-10 -2.40963e-11 1.71914e-11)
(-3.09931e-10 -3.18937e-11 2.25332e-11)
(-3.58715e-10 -4.25573e-11 2.937e-11)
(-4.12232e-10 -5.76109e-11 3.81673e-11)
(-4.72317e-10 -7.93954e-11 4.94576e-11)
(-5.4084e-10 -1.11466e-10 6.37755e-11)
(-6.19353e-10 -1.59073e-10 8.14892e-11)
(-7.08279e-10 -2.29377e-10 1.0245e-10)
(-8.05241e-10 -3.30199e-10 1.25407e-10)
(-9.01617e-10 -4.62888e-10 1.47243e-10)
(-9.7387e-10 -5.93459e-10 1.62134e-10)
(-4.60309e-11 -3.03048e-12 2.14794e-12)
(-1.33426e-10 -8.94313e-12 6.36959e-12)
(-2.13149e-10 -1.48177e-11 1.06456e-11)
(-2.87856e-10 -2.11445e-11 1.53511e-11)
(-3.5995e-10 -2.84695e-11 2.08662e-11)
(-4.31706e-10 -3.74762e-11 2.7611e-11)
(-5.05392e-10 -4.91038e-11 3.60794e-11)
(-5.83365e-10 -6.46928e-11 4.6867e-11)
(-6.68126e-10 -8.62298e-11 6.06903e-11)
(-7.62303e-10 -1.16628e-10 7.8372e-11)
(-8.68415e-10 -1.601e-10 1.00756e-10)
(-9.88229e-10 -2.22334e-10 1.28464e-10)
(-1.12121e-09 -3.09909e-10 1.61363e-10)
(-1.26133e-09 -4.27039e-10 1.97566e-10)
(-1.39117e-09 -5.65331e-10 2.31929e-10)
(-1.47403e-09 -6.78927e-10 2.54416e-10)
(-6.30235e-11 -3.95744e-12 2.88287e-12)
(-1.82613e-10 -1.16576e-11 8.54187e-12)
(-2.91496e-10 -1.92413e-11 1.42519e-11)
(-3.93183e-10 -2.7292e-11 2.05001e-11)
(-4.90815e-10 -3.64344e-11 2.77737e-11)
(-5.8731e-10 -4.74196e-11 3.66049e-11)
(-6.85506e-10 -6.12244e-11 4.76097e-11)
(-7.88259e-10 -7.91911e-11 6.15241e-11)
(-8.98487e-10 -1.0319e-10 7.92245e-11)
(-1.0191e-09 -1.35816e-10 1.01717e-10)
(-1.1527e-09 -1.80499e-10 1.30038e-10)
(-1.30074e-09 -2.41335e-10 1.64977e-10)
(-1.46173e-09 -3.2193e-10 2.064e-10)
(-1.62782e-09 -4.22007e-10 2.51882e-10)
(-1.779e-09 -5.29671e-10 2.94453e-10)
(-1.87613e-09 -6.08764e-10 3.20646e-10)
(-7.87112e-11 -4.64448e-12 3.50816e-12)
(-2.27966e-10 -1.36515e-11 1.03834e-11)
(-3.6354e-10 -2.24243e-11 1.72864e-11)
(-4.89625e-10 -3.15689e-11 2.47837e-11)
(-6.09914e-10 -4.16971e-11 3.34335e-11)
(-7.27765e-10 -5.35003e-11 4.38327e-11)
(-8.46329e-10 -6.78037e-11 5.66579e-11)
(-9.68642e-10 -8.56655e-11 7.27001e-11)
(-1.09763e-09 -1.08418e-10 9.28831e-11)
(-1.23599e-09 -1.37708e-10 1.18247e-10)
(-1.38583e-09 -1.75385e-10 1.49849e-10)
(-1.54781e-09 -2.23047e-10 1.88472e-10)
(-1.71955e-09 -2.80939e-10 2.33942e-10)
(-1.89276e-09 -3.45716e-10 2.83661e-10)
(-2.04859e-09 -4.07102e-10 3.30088e-10)
(-2.15045e-09 -4.45556e-10 3.58483e-10)
(-9.28554e-11 -5.07586e-12 4.01002e-12)
(-2.68797e-10 -1.48793e-11 1.18535e-11)
(-4.2819e-10 -2.43099e-11 1.96816e-11)
(-5.75717e-10 -3.39309e-11 2.81065e-11)
(-7.15443e-10 -4.42757e-11 3.77189e-11)
(-8.50954e-10 -5.58786e-11 4.91328e-11)
(-9.85485e-10 -6.93126e-11 6.30232e-11)
(-1.12197e-09 -8.51831e-11 8.01509e-11)
(-1.263e-09 -1.04114e-10 1.0137e-10)
(-1.41064e-09 -1.26616e-10 1.27597e-10)
(-1.56604e-09 -1.52827e-10 1.59698e-10)
(-1.72861e-09 -1.81999e-10 1.98224e-10)
(-1.8947e-09 -2.11707e-10 2.42806e-10)
(-2.05568e-09 -2.37169e-10 2.90974e-10)
(-2.1954e-09 -2.52054e-10 3.36094e-10)
(-2.28571e-09 -2.53887e-10 3.64984e-10)
(-1.05292e-10 -5.25722e-12 4.38413e-12)
(-3.04643e-10 -1.53696e-11 1.29404e-11)
(-4.84736e-10 -2.49667e-11 2.14215e-11)
(-6.50567e-10 -3.45307e-11 3.0453e-11)
(-8.06397e-10 -4.44771e-11 4.06232e-11)
(-9.55869e-10 -5.51496e-11 5.2522e-11)
(-1.10211e-09 -6.68295e-11 6.67696e-11)
(-1.24777e-09 -7.9683e-11 8.40276e-11)
(-1.39488e-09 -9.36709e-11 1.04987e-10)
(-1.54469e-09 -1.08364e-10 1.3031e-10)
(-1.69714e-09 -1.22641e-10 1.60497e-10)
(-1.85016e-09 -1.34229e-10 1.95615e-10)
(-1.99847e-09 -1.39293e-10 2.34798e-10)
(-2.13235e-09 -1.32721e-10 2.7546e-10)
(-2.23701e-09 -1.11353e-10 3.12276e-10)
(-2.29477e-09 -8.48054e-11 3.36255e-10)
(-1.15929e-10 -5.21303e-12 4.63496e-12)
(-3.35252e-10 -1.52012e-11 1.36592e-11)
(-5.32831e-10 -2.45506e-11 2.25368e-11)
(-7.13812e-10 -3.36497e-11 3.18796e-11)
(-8.825e-10 -4.27775e-11 4.22454e-11)
(-1.04247e-09 -5.21092e-11 5.41696e-11)
(-1.19663e-09 -6.16734e-11 6.81821e-11)
(-1.34723e-09 -7.12997e-11 8.48043e-11)
(-1.49574e-09 -8.05092e-11 1.04515e-10)
(-1.64259e-09 -8.83541e-11 1.27667e-10)
(-1.78671e-09 -9.31874e-11 1.54322e-10)
(-1.92487e-09 -9.24387e-11 1.83953e-10)
(-2.05076e-09 -8.25301e-11 2.14968e-10)
(-2.15411e-09 -5.94424e-11 2.44099e-10)
(-2.22123e-09 -2.12308e-11 2.66069e-10)
(-2.24191e-09 2.25224e-11 2.74852e-10)
(-9.43449e-12 -6.36822e-13 3.68515e-13)
(-2.73526e-11 -1.88224e-12 1.09383e-12)
(-4.37165e-11 -3.12787e-12 1.83156e-12)
(-5.90829e-11 -4.48534e-12 2.6485e-12)
(-7.39598e-11 -6.08313e-12 3.61301e-12)
(-8.88337e-11 -8.0895e-12 4.80141e-12)
(-1.04196e-10 -1.07456e-11 6.30382e-12)
(-1.2057e-10 -1.44135e-11 8.22856e-12)
(-1.38523e-10 -1.96545e-11 1.07037e-11)
(-1.58684e-10 -2.73469e-11 1.38708e-11)
(-1.81721e-10 -3.88651e-11 1.78644e-11)
(-2.08278e-10 -5.63352e-11 2.27652e-11)
(-2.38858e-10 -8.29397e-11 2.85178e-11)
(-2.73637e-10 -1.23054e-10 3.48215e-11)
(-3.11955e-10 -1.80702e-10 4.10117e-11)
(-3.47868e-10 -2.46756e-10 4.57268e-11)
(-2.80602e-11 -1.86278e-12 1.08857e-12)
(-8.13441e-11 -5.50083e-12 3.23022e-12)
(-1.29978e-10 -9.1286e-12 5.40606e-12)
(-1.75594e-10 -1.30602e-11 7.81109e-12)
(-2.19676e-10 -1.76541e-11 1.06442e-11)
(-2.63634e-10 -2.3374e-11 1.41269e-11)
(-3.08883e-10 -3.08737e-11 1.85193e-11)
(-3.56907e-10 -4.11212e-11 2.41341e-11)
(-4.0931e-10 -5.55966e-11 3.13404e-11)
(-4.67825e-10 -7.65647e-11 4.05482e-11)
(-5.34236e-10 -1.07479e-10 5.2149e-11)
(-6.10095e-10 -1.5341e-10 6.63786e-11)
(-6.96049e-10 -2.21258e-10 8.30625e-11)
(-7.90383e-10 -3.18558e-10 1.01232e-10)
(-8.85668e-10 -4.46794e-10 1.18647e-10)
(-9.59027e-10 -5.73688e-10 1.30953e-10)
(-4.60562e-11 -2.95714e-12 1.76273e-12)
(-1.33476e-10 -8.7214e-12 5.22782e-12)
(-2.13157e-10 -1.44306e-11 8.73906e-12)
(-2.87714e-10 -2.05511e-11 1.26054e-11)
(-3.59498e-10 -2.75999e-11 1.71396e-11)
(-4.30719e-10 -3.62278e-11 2.26868e-11)
(-5.03549e-10 -4.73186e-11 2.96495e-11)
(-5.80218e-10 -6.21554e-11 3.85087e-11)
(-6.63067e-10 -8.2618e-11 4.98303e-11)
(-7.54543e-10 -1.11496e-10 6.42434e-11)
(-8.57014e-10 -1.52795e-10 8.23506e-11)
(-9.72244e-10 -2.11943e-10 1.04513e-10)
(-1.1001e-09 -2.95181e-10 1.30415e-10)
(-1.23572e-09 -4.06508e-10 1.58343e-10)
(-1.3638e-09 -5.38038e-10 1.84206e-10)
(-1.44881e-09 -6.46412e-10 2.0068e-10)
(-6.30496e-11 -3.85375e-12 2.36559e-12)
(-1.82655e-10 -1.1343e-11 7.00981e-12)
(-2.9146e-10 -1.86896e-11 1.16979e-11)
(-3.92916e-10 -2.64408e-11 1.68309e-11)
(-4.90091e-10 -3.51795e-11 2.28102e-11)
(-5.85807e-10 -4.55987e-11 3.00723e-11)
(-6.82763e-10 -5.85983e-11 3.91205e-11)
(-7.8363e-10 -7.54073e-11 5.0548e-11)
(-8.91088e-10 -9.77393e-11 6.50476e-11)
(-1.00778e-09 -1.27959e-10 8.33842e-11)
(-1.13605e-09 -1.69205e-10 1.0629e-10)
(-1.27734e-09 -2.25201e-10 1.342e-10)
(-1.43076e-09 -2.99238e-10 1.66691e-10)
(-1.5902e-09 -3.911e-10 2.01468e-10)
(-1.73888e-09 -4.90097e-10 2.32953e-10)
(-1.83946e-09 -5.63303e-10 2.51595e-10)
(-7.87308e-11 -4.51098e-12 2.87825e-12)
(-2.2798e-10 -1.32432e-11 8.51967e-12)
(-3.63427e-10 -2.17071e-11 1.41862e-11)
(-4.89187e-10 -3.0457e-11 2.03442e-11)
(-6.08861e-10 -4.00491e-11 2.74534e-11)
(-7.25675e-10 -5.10875e-11 3.60039e-11)
(-8.426e-10 -6.4297e-11 4.65489e-11)
(-9.62424e-10 -8.05592e-11 5.9727e-11)
(-1.08775e-09 -1.0098e-10 7.62696e-11)
(-1.22088e-09 -1.26878e-10 9.697e-11)
(-1.36355e-09 -1.59662e-10 1.22576e-10)
(-1.51633e-09 -2.00444e-10 1.53524e-10)
(-1.67748e-09 -2.49118e-10 1.89379e-10)
(-1.84097e-09 -3.0269e-10 2.27778e-10)
(-1.99236e-09 -3.52902e-10 2.6284e-10)
(-2.09794e-09 -3.84467e-10 2.84032e-10)
(-9.2862e-11 -4.91325e-12 3.28938e-12)
(-2.68764e-10 -1.43844e-11 9.72408e-12)
(-4.27971e-10 -2.34364e-11 1.61486e-11)
(-5.75073e-10 -3.25733e-11 2.30669e-11)
(-7.1402e-10 -4.22511e-11 3.09654e-11)
(-8.48239e-10 -5.29059e-11 4.0349e-11)
(-9.80741e-10 -6.49583e-11 5.17697e-11)
(-1.11415e-09 -7.88098e-11 6.58443e-11)
(-1.25063e-09 -9.47689e-11 8.32518e-11)
(-1.39176e-09 -1.12913e-10 1.04696e-10)
(-1.5381e-09 -1.32797e-10 1.30802e-10)
(-1.68875e-09 -1.52983e-10 1.61886e-10)
(-1.84048e-09 -1.70511e-10 1.97514e-10)
(-1.98695e-09 -1.80886e-10 2.35729e-10)
(-2.11717e-09 -1.80285e-10 2.71766e-10)
(-2.20812e-09 -1.72192e-10 2.95999e-10)
(-1.05281e-10 -5.07042e-12 3.59557e-12)
(-3.04548e-10 -1.48e-11 1.06136e-11)
(-4.84391e-10 -2.39595e-11 1.75723e-11)
(-6.49698e-10 -3.29631e-11 2.49867e-11)
(-8.04593e-10 -4.21311e-11 3.33412e-11)
(-9.52539e-10 -5.1697e-11 4.31213e-11)
(-1.09641e-09 -6.17651e-11 5.48354e-11)
(-1.23847e-09 -7.22534e-11 6.90214e-11)
(-1.38029e-09 -8.27605e-11 8.62318e-11)
(-1.52244e-09 -9.23428e-11 1.06982e-10)
(-1.66413e-09 -9.9165e-11 1.31636e-10)
(-1.80259e-09 -1.00073e-10 1.6021e-10)
(-1.9324e-09 -9.03201e-11 1.9206e-10)
(-2.04522e-09 -6.44392e-11 2.25503e-10)
(-2.13086e-09 -2.10227e-11 2.57363e-10)
(-2.1796e-09 2.29938e-11 2.81275e-10)
(-1.15896e-10 -5.00887e-12 3.80047e-12)
(-3.35087e-10 -1.4575e-11 1.12006e-11)
(-5.32352e-10 -2.34453e-11 1.84827e-11)
(-7.12715e-10 -3.19237e-11 2.61503e-11)
(-8.80337e-10 -4.02008e-11 3.46627e-11)
(-1.03859e-09 -4.83162e-11 4.44608e-11)
(-1.1901e-09 -5.61176e-11 5.59798e-11)
(-1.33674e-09 -6.31687e-11 6.96448e-11)
(-1.47942e-09 -6.86122e-11 8.58411e-11)
(-1.61784e-09 -7.09602e-11 1.04843e-10)
(-1.75004e-09 -6.78361e-11 1.26684e-10)
(-1.87179e-09 -5.5713e-11 1.50942e-10)
(-1.97595e-09 -2.99004e-11 1.76448e-10)
(-2.05224e-09 1.46773e-11 2.01004e-10)
(-2.08893e-09 8.02373e-11 2.21392e-10)
(-2.0828e-09 1.52426e-10 2.33382e-10)
(-9.43471e-12 -6.23475e-13 2.73878e-13)
(-2.73491e-11 -1.84133e-12 8.12969e-13)
(-4.36976e-11 -3.05643e-12 1.36148e-12)
(-5.90291e-11 -4.37511e-12 1.9691e-12)
(-7.38418e-11 -5.92024e-12 2.68667e-12)
(-8.86097e-11 -7.85304e-12 3.57079e-12)
(-1.03808e-10 -1.04041e-11 4.68782e-12)
(-1.19937e-10 -1.39216e-11 6.11688e-12)
(-1.37542e-10 -1.89465e-11 7.95014e-12)
(-1.57229e-10 -2.63287e-11 1.02877e-11)
(-1.79656e-10 -3.74066e-11 1.32227e-11)
(-2.05497e-10 -5.42597e-11 1.68104e-11)
(-2.35347e-10 -8.00315e-11 2.10217e-11)
(-2.69566e-10 -1.19108e-10 2.5688e-11)
(-3.07719e-10 -1.75684e-10 3.04308e-11)
(-3.43892e-10 -2.41076e-10 3.42836e-11)
(-2.80595e-11 -1.82218e-12 8.08964e-13)
(-8.13298e-11 -5.37827e-12 2.40075e-12)
(-1.29915e-10 -8.9133e-12 4.01839e-12)
(-1.75424e-10 -1.27273e-11 5.80712e-12)
(-2.1931e-10 -1.71613e-11 7.91487e-12)
(-2.62947e-10 -2.26562e-11 1.05057e-11)
(-3.07698e-10 -2.98326e-11 1.37715e-11)
(-3.54981e-10 -3.96168e-11 1.79402e-11)
(-4.06327e-10 -5.3421e-11 2.32775e-11)
(-4.634e-10 -7.34287e-11 3.00719e-11)
(-5.27952e-10 -1.02974e-10 3.85903e-11)
(-6.01613e-10 -1.47e-10 4.89841e-11)
(-6.85311e-10 -2.12303e-10 6.1129e-11)
(-7.77892e-10 -3.06486e-10 7.44015e-11)
(-8.72638e-10 -4.3155e-10 8.73711e-11)
(-9.46773e-10 -5.56462e-10 9.69481e-11)
(-4.60516e-11 -2.8896e-12 1.30991e-12)
(-1.33442e-10 -8.51571e-12 3.8851e-12)
(-2.13035e-10 -1.40687e-11 6.49538e-12)
(-2.87405e-10 -1.99896e-11 9.37077e-12)
(-3.58856e-10 -2.67658e-11 1.27438e-11)
(-4.2953e-10 -3.50047e-11 1.68704e-11)
(-5.01514e-10 -4.55388e-11 2.20473e-11)
(-5.76925e-10 -5.95632e-11 2.86252e-11)
(-6.57974e-10 -7.88505e-11 3.70108e-11)
(-7.46978e-10 -1.06026e-10 4.76447e-11)
(-8.46243e-10 -1.44906e-10 6.0932e-11)
(-9.57646e-10 -2.00702e-10 7.70868e-11)
(-1.08153e-09 -2.79538e-10 9.58452e-11)
(-1.214e-09 -3.85621e-10 1.16009e-10)
(-1.34106e-09 -5.12009e-10 1.34832e-10)
(-1.42734e-09 -6.17235e-10 1.47224e-10)
(-6.3037e-11 -3.75904e-12 1.75773e-12)
(-1.82589e-10 -1.10536e-11 5.20892e-12)
(-2.91259e-10 -1.81795e-11 8.69374e-12)
(-3.92442e-10 -2.56473e-11 1.25108e-11)
(-4.89137e-10 -3.39941e-11 1.69584e-11)
(-5.84072e-10 -4.38532e-11 2.23607e-11)
(-6.79822e-10 -5.60396e-11 2.90885e-11)
(-7.78891e-10 -7.16579e-11 3.7575e-11)
(-8.83763e-10 -9.22448e-11 4.83179e-11)
(-9.96873e-10 -1.19929e-10 6.18531e-11)
(-1.12045e-09 -1.57545e-10 7.86715e-11)
(-1.25603e-09 -2.08517e-10 9.90276e-11)
(-1.40335e-09 -2.76002e-10 1.22566e-10)
(-1.55774e-09 -3.60198e-10 1.47684e-10)
(-1.7044e-09 -4.51901e-10 1.70651e-10)
(-1.80648e-09 -5.20809e-10 1.84903e-10)
(-7.8706e-11 -4.38954e-12 2.13842e-12)
(-2.27869e-10 -1.28731e-11 6.33018e-12)
(-3.63128e-10 -2.10528e-11 1.05417e-11)
(-4.88523e-10 -2.94359e-11 1.51204e-11)
(-6.07566e-10 -3.85161e-11 2.04081e-11)
(-7.23361e-10 -4.88229e-11 2.67686e-11)
(-8.38716e-10 -6.09563e-11 3.46102e-11)
(-9.56195e-10 -7.56375e-11 4.44002e-11)
(-1.07812e-09 -9.37232e-11 5.66654e-11)
(-1.20651e-09 -1.16194e-10 7.19651e-11)
(-1.34283e-09 -1.44033e-10 9.08085e-11)
(-1.48767e-09 -1.77899e-10 1.13473e-10)
(-1.63993e-09 -2.17449e-10 1.39646e-10)
(-1.79534e-09 -2.60189e-10 1.67788e-10)
(-1.94225e-09 -2.99907e-10 1.94095e-10)
(-2.04845e-09 -3.25162e-10 2.11154e-10)
(-9.2821e-11 -4.76781e-12 2.44358e-12)
(-2.68599e-10 -1.39402e-11 7.22409e-12)
(-4.27558e-10 -2.265e-11 1.19983e-11)
(-5.74202e-10 -3.13418e-11 1.71415e-11)
(-7.1237e-10 -4.04e-11 2.30156e-11)
(-8.45343e-10 -5.01595e-11 2.99955e-11)
(-9.75928e-10 -6.08998e-11 3.84896e-11)
(-1.10647e-09 -7.28059e-11 4.89501e-11)
(-1.23879e-09 -8.58805e-11 6.18692e-11)
(-1.374e-09 -9.9764e-11 7.77494e-11)
(-1.51228e-09 -1.13431e-10 9.70312e-11)
(-1.65246e-09 -1.24769e-10 1.19954e-10)
(-1.79169e-09 -1.30265e-10 1.46319e-10)
(-1.92524e-09 -1.25612e-10 1.7509e-10)