/*--------------------------------*- C++ -*----------------------------------*\
| =========                 |                                                 |
| \\      /  F ield         | foam-extend: Open Source CFD                    |
|  \\    /   O peration     | Version:     3.1                                |
|   \\  /    A nd           | Web:         http://www.extend-project.de       |
|    \\/     M anipulation  |                                                 |
\*---------------------------------------------------------------------------*/
FoamFile
{
    version     2.0;
    format      ascii;
    class       surfaceScalarField;
    location    "1.9";
    object      meshPhi;
}
// * * * * * * * * * * * * * * * * * * * * * * * * * * * * * * * * * * * * * //

dimensions      [0 3 -1 0 0 0 0];

internalField   nonuniform List<scalar> 
41600
(
6.07818e-09
6.11582e-10
2.42568e-10
-2.47053e-10
1.17044e-08
1.8166e-09
7.26017e-10
-7.3923e-10
1.68266e-08
3.00525e-09
1.21871e-09
-1.24012e-09
2.15696e-08
4.23527e-09
1.75299e-09
-1.78196e-09
2.60309e-08
5.58366e-09
2.36844e-09
-2.40395e-09
3.02797e-08
7.13385e-09
3.10726e-09
-3.14738e-09
3.4351e-08
8.98366e-09
4.01742e-09
-4.05849e-09
3.82353e-08
1.12544e-08
5.1558e-09
-5.19123e-09
4.18596e-08
1.41007e-08
6.59159e-09
-6.61004e-09
4.50602e-08
1.77208e-08
8.41032e-09
-8.39297e-09
4.75462e-08
2.2363e-08
1.07199e-08
-1.06359e-08
4.88654e-08
2.83196e-08
1.36603e-08
-1.34584e-08
4.84077e-08
3.58794e-08
1.74165e-08
-1.70085e-08
4.55795e-08
4.51446e-08
2.22001e-08
-2.1433e-08
4.04838e-08
5.52911e-08
2.78929e-08
-2.65731e-08
7.69388e-08
3.90738e-08
-4.52845e-08
1.813e-08
1.18721e-09
7.20616e-10
-7.33957e-10
3.49094e-08
3.52536e-09
2.156e-09
-2.19531e-09
5.01824e-08
5.82746e-09
3.617e-09
-3.68072e-09
6.43212e-08
8.20128e-09
5.19905e-09
-5.28525e-09
7.76179e-08
1.0791e-08
7.01855e-09
-7.12423e-09
9.02815e-08
1.37507e-08
9.19906e-09
-9.31849e-09
1.02424e-07
1.72589e-08
1.18802e-08
-1.20026e-08
1.14031e-07
2.15334e-08
1.52265e-08
-1.53322e-08
1.2491e-07
2.68477e-08
1.94353e-08
-1.94911e-08
1.34614e-07
3.3545e-08
2.47463e-08
-2.46969e-08
1.42347e-07
4.20426e-08
3.14502e-08
-3.1206e-08
1.46862e-07
5.28055e-08
3.98998e-08
-3.93151e-08
1.46483e-07
6.62286e-08
5.05082e-08
-4.93387e-08
1.3958e-07
8.22667e-08
6.36345e-08
-6.14686e-08
1.2641e-07
9.91937e-08
7.86345e-08
-7.49311e-08
1.26143e-07
1.03222e-07
-1.1433e-07
2.98769e-08
1.69829e-09
1.17537e-09
-1.19722e-09
5.752e-08
5.04018e-09
3.51439e-09
-3.57879e-09
8.26701e-08
8.32047e-09
5.88992e-09
-5.99433e-09
1.05941e-07
1.16841e-08
8.45505e-09
-8.59635e-09
1.27816e-07
1.53256e-08
1.13958e-08
-1.15691e-08
1.48649e-07
1.94488e-08
1.49079e-08
-1.5104e-08
1.68646e-07
2.42832e-08
1.92105e-08
-1.94118e-08
1.87823e-07
3.01026e-08
2.45582e-08
-2.47332e-08
2.05936e-07
3.72407e-08
3.12516e-08
-3.13466e-08
2.22376e-07
4.61031e-08
3.96438e-08
-3.95701e-08
2.36032e-07
5.71628e-08
5.01386e-08
-4.97543e-08
2.45157e-07
7.09108e-08
6.31698e-08
-6.22491e-08
2.47401e-07
8.76885e-08
7.91241e-08
-7.73024e-08
2.40473e-07
1.07228e-07
9.80638e-08
-9.47497e-08
2.24622e-07
1.27276e-07
1.18466e-07
-1.12839e-07
1.59366e-07
1.46167e-07
-1.55603e-07
4.11306e-08
2.12169e-09
1.59167e-09
-1.62148e-09
7.91701e-08
6.29193e-09
4.75524e-09
-4.8431e-09
1.13755e-07
1.03686e-08
7.95834e-09
-8.10082e-09
1.4573e-07
1.4518e-08
1.14029e-08
-1.15958e-08
1.75763e-07
1.89647e-08
1.5333e-08
-1.55698e-08
2.04357e-07
2.3936e-08
2.00026e-08
-2.02709e-08
2.31829e-07
2.96796e-08
2.56922e-08
-2.59688e-08
2.5827e-07
3.64784e-08
3.27232e-08
-3.29659e-08
2.8347e-07
4.46629e-08
4.14666e-08
-4.16036e-08
3.06803e-07
5.46162e-08
5.23447e-08
-5.22578e-08
3.27087e-07
6.67587e-08
6.58114e-08
-6.53119e-08
3.42432e-07
8.14895e-08
8.22898e-08
-8.10809e-08
3.50262e-07
9.90183e-08
1.02006e-07
-9.96212e-08
3.47979e-07
1.18931e-07
1.24567e-07
-1.20271e-07
3.35387e-07
1.38955e-07
1.47622e-07
-1.40359e-07
1.70684e-07
1.75861e-07
-1.83801e-07
5.17158e-08
2.44158e-09
1.95725e-09
-1.99428e-09
9.95197e-08
7.23379e-09
5.84158e-09
-5.95072e-09
1.42943e-07
1.18955e-08
9.75921e-09
-9.93626e-09
1.8304e-07
1.65986e-08
1.39494e-08
-1.41892e-08
2.20654e-07
2.15762e-08
1.87e-08
-1.89948e-08
2.56432e-07
2.70548e-08
2.43063e-08
-2.46412e-08
2.90816e-07
3.32683e-08
3.1089e-08
-3.1436e-08
3.24004e-07
4.04677e-08
3.94092e-08
-3.97179e-08
3.5589e-07
4.89273e-08
4.96761e-08
-4.98597e-08
3.8596e-07
5.89391e-08
6.23432e-08
-6.22582e-08
4.13163e-07
7.07909e-08
7.78788e-08
-7.72947e-08
4.35766e-07
8.47118e-08
9.66796e-08
-9.52324e-08
4.51323e-07
1.00741e-07
1.18849e-07
-1.15969e-07
4.57096e-07
1.18396e-07
1.43673e-07
-1.38478e-07
4.51831e-07
1.35732e-07
1.68209e-07
-1.59447e-07
1.63014e-07
1.9652e-07
-2.02423e-07
6.14776e-08
2.64978e-09
2.26354e-09
-2.30689e-09
1.18269e-07
7.84248e-09
6.74786e-09
-6.87567e-09
1.69797e-07
1.28663e-08
1.12497e-08
-1.1457e-08
2.17299e-07
1.78842e-08
1.60326e-08
-1.63138e-08
2.61775e-07
2.31201e-08
2.14128e-08
-2.17591e-08
3.04002e-07
2.87797e-08
2.77082e-08
-2.81031e-08
3.4454e-07
3.50588e-08
3.52575e-08
-3.56698e-08
3.8371e-07
4.2148e-08
4.44341e-08
-4.48076e-08
4.21541e-07
5.02303e-08
5.56533e-08
-5.58909e-08
4.57695e-07
5.9468e-08
6.93677e-08
-6.93074e-08
4.91363e-07
6.99742e-08
8.60391e-08
-8.54171e-08
5.21139e-07
8.17713e-08
1.06061e-07
-1.04454e-07
5.4492e-07
9.47111e-08
1.29548e-07
-1.26282e-07
5.59989e-07
1.08296e-07
1.55786e-07
-1.49808e-07
5.63799e-07
1.21137e-07
1.81595e-07
-1.71478e-07
1.40932e-07
2.11238e-07
-2.15461e-07
7.02855e-08
2.74531e-09
2.50604e-09
-2.55473e-09
1.35167e-07
8.11644e-09
7.46101e-09
-7.60461e-09
1.93954e-07
1.32832e-08
1.24087e-08
-1.26418e-08
2.48036e-07
1.83895e-08
1.76244e-08
-1.79408e-08
2.98536e-07
2.36367e-08
2.34363e-08
-2.38267e-08
3.46339e-07
2.91961e-08
3.01671e-08
-3.06143e-08
3.92105e-07
3.52126e-08
3.81513e-08
-3.86229e-08
4.36256e-07
4.1803e-08
4.77483e-08
-4.81858e-08
4.78944e-07
4.9047e-08
5.93478e-08
-5.96497e-08
5.19997e-07
5.69689e-08
7.33651e-08
-7.33614e-08
5.58837e-07
6.55072e-08
9.0222e-08
-8.96338e-08
5.94382e-07
7.44832e-08
1.10298e-07
-1.0867e-07
6.24911e-07
8.35733e-08
1.338e-07
-1.30383e-07
6.47926e-07
9.23036e-08
1.60357e-07
-1.53931e-07
6.60128e-07
1.00027e-07
1.87301e-07
-1.76203e-07
1.09546e-07
2.2147e-07
-2.24864e-07
7.8036e-08
2.68426e-09
-2.73729e-09
2.73312e-09
1.50019e-07
7.98034e-09
-8.13669e-09
8.07199e-09
2.15136e-07
1.32373e-08
-1.34912e-08
1.31789e-08
2.74893e-07
1.87296e-08
-1.90746e-08
1.81729e-08
3.30501e-07
2.4783e-08
-2.52097e-08
2.32247e-08
3.82918e-07
3.17083e-08
-3.21997e-08
2.84657e-08
4.32869e-07
3.9817e-08
-4.03414e-08
3.39873e-08
4.80839e-07
4.94307e-08
-4.99309e-08
3.98342e-08
5.27055e-07
6.08826e-08
-6.12598e-08
4.59915e-08
5.71436e-07
7.45091e-08
-7.45993e-08
5.23643e-08
6.13533e-07
9.06289e-08
-9.01651e-08
5.87489e-08
6.52423e-07
1.09497e-07
-1.08049e-07
6.4803e-08
6.86557e-07
1.31204e-07
-1.28074e-07
7.00288e-08
7.13547e-07
1.55345e-07
-1.49422e-07
7.37683e-08
7.30236e-07
1.79481e-07
-1.69326e-07
7.51221e-08
2.23431e-07
-2.27957e-07
7.40408e-08
6.259e-09
6.49536e-10
2.28901e-10
1.20604e-08
1.93098e-09
6.85307e-10
1.73583e-08
3.19993e-09
1.15105e-09
2.22893e-08
4.52122e-09
1.65717e-09
2.69622e-08
5.9808e-09
2.24178e-09
3.14572e-08
7.67282e-09
2.94572e-09
3.5821e-08
9.70893e-09
3.81559e-09
4.00552e-08
1.22288e-08
4.90652e-09
4.4099e-08
1.54124e-08
6.28481e-09
4.78007e-08
1.9492e-08
8.02994e-09
5.08863e-08
2.47612e-08
1.02356e-08
5.29341e-08
3.15666e-08
1.30069e-08
5.34077e-08
4.02443e-08
1.64425e-08
5.18836e-08
5.08814e-08
2.05554e-08
4.879e-08
6.24567e-08
2.4946e-08
7.89184e-08
3.18776e-08
1.86672e-08
1.26058e-09
6.80001e-10
3.59667e-08
3.74637e-09
2.03506e-09
5.17613e-08
6.20322e-09
3.41607e-09
6.64579e-08
8.75212e-09
4.91467e-09
8.0382e-08
1.15539e-08
6.64292e-09
9.37759e-08
1.47826e-08
8.72048e-09
1.06786e-07
1.86416e-08
1.12831e-08
1.19431e-07
2.33817e-08
1.44904e-08
1.31555e-07
2.93203e-08
1.85322e-08
1.4275e-07
3.6859e-08
2.36318e-08
1.52262e-07
4.64886e-08
3.00423e-08
1.58927e-07
5.8755e-08
3.80243e-08
1.61252e-07
7.41075e-08
4.77677e-08
1.58015e-07
9.24312e-08
5.91329e-08
1.5026e-07
1.11679e-07
7.08085e-08
1.32902e-07
8.55787e-08
3.07552e-08
1.80257e-09
1.10905e-09
5.9248e-08
5.35407e-09
3.31698e-09
8.52493e-08
8.85316e-09
5.56221e-09
1.09429e-07
1.24626e-08
7.99175e-09
1.32326e-07
1.63994e-08
1.07848e-08
1.54347e-07
2.08932e-08
1.4131e-08
1.75756e-07
2.62059e-08
1.82436e-08
1.96624e-07
3.26523e-08
2.33708e-08
2.16768e-07
4.0619e-08
2.98027e-08
2.35641e-07
5.05792e-08
3.7871e-08
2.52201e-07
6.30859e-08
4.79297e-08
2.64811e-07
7.8709e-08
6.02916e-08
2.71336e-07
9.78215e-08
7.5055e-08
2.69956e-07
1.20038e-07
9.16622e-08
2.61785e-07
1.42777e-07
1.07826e-07
1.67841e-07
1.24414e-07
4.23259e-08
2.25095e-09
1.50168e-09
8.15204e-08
6.68052e-09
4.48756e-09
1.17261e-07
1.10263e-08
7.51445e-09
1.50466e-07
1.54755e-08
1.07763e-08
1.8188e-07
2.0278e-08
1.45083e-08
2.12078e-07
2.56905e-08
1.89569e-08
2.41454e-07
3.1995e-08
2.43957e-08
2.70178e-07
3.95168e-08
3.1139e-08
2.98124e-07
4.86388e-08
3.95477e-08
3.24754e-07
5.98066e-08
5.00231e-08
3.48976e-07
7.35103e-08
6.29696e-08
3.69024e-07
9.02091e-08
7.86874e-08
3.82522e-07
1.1012e-07
9.71077e-08
3.87265e-07
1.32706e-07
1.17212e-07
3.83699e-07
1.55452e-07
1.35921e-07
1.79998e-07
1.53585e-07
5.31964e-08
2.58896e-09
1.8463e-09
1.02429e-07
7.67624e-09
5.51178e-09
1.47277e-07
1.26422e-08
9.21306e-09
1.88888e-07
1.76803e-08
1.318e-08
2.28195e-07
2.30505e-08
1.76901e-08
2.65936e-07
2.90083e-08
2.30299e-08
3.02645e-07
3.582e-08
2.95135e-08
3.38622e-07
4.37747e-08
3.74957e-08
3.73866e-07
5.31907e-08
4.7378e-08
4.07975e-07
6.44089e-08
5.95981e-08
4.40014e-07
7.77654e-08
7.45842e-08
4.68388e-07
9.35252e-08
9.26251e-08
4.90824e-07
1.11719e-07
1.13552e-07
5.04842e-07
1.31771e-07
1.36058e-07
5.09415e-07
1.51622e-07
1.56512e-07
1.72203e-07
1.75268e-07
6.32061e-08
2.80809e-09
2.13479e-09
1.21662e-07
8.31703e-09
6.3655e-09
1.74844e-07
1.36645e-08
1.06175e-08
2.24098e-07
1.90347e-08
1.51441e-08
2.70523e-07
2.46773e-08
2.02501e-08
3.15001e-07
3.08242e-08
2.62444e-08
3.582e-07
3.76992e-08
3.34598e-08
4.00554e-07
4.55227e-08
4.22651e-08
4.42217e-07
5.45094e-08
5.30721e-08
4.82983e-07
6.4852e-08
6.63248e-08
5.22187e-07
7.66883e-08
8.24586e-08
5.58581e-07
9.00514e-08
1.01782e-07
5.90238e-07
1.04778e-07
1.24168e-07
6.14605e-07
1.20325e-07
1.48341e-07
6.28916e-07
1.35337e-07
1.70423e-07
1.49513e-07
1.91327e-07
7.22208e-08
2.90758e-09
2.36292e-09
1.38962e-07
8.6021e-09
7.03638e-09
1.99588e-07
1.40973e-08
1.1708e-08
2.55607e-07
1.95567e-08
1.66421e-08
3.08252e-07
2.52049e-08
2.21551e-08
3.58517e-07
3.12357e-08
2.85612e-08
4.07179e-07
3.78154e-08
3.61899e-08
4.5478e-07
4.50812e-08
4.53982e-08
5.01608e-07
5.31314e-08
5.65763e-08
5.47632e-07
6.20029e-08
7.01392e-08
5.92434e-07
7.16366e-08
8.64954e-08
6.35109e-07
8.18422e-08
1.05963e-07
6.74146e-07
9.22762e-08
1.28543e-07
7.07255e-07
1.0247e-07
1.53325e-07
7.3072e-07
1.11989e-07
1.76868e-07
1.17612e-07
2.02555e-07
8.0135e-08
2.53026e-09
2.89295e-09
1.54129e-07
7.52387e-09
8.54963e-09
2.21227e-07
1.24855e-08
1.3977e-08
2.83054e-07
1.76788e-08
1.9311e-08
3.40938e-07
2.34176e-08
2.47428e-08
3.95949e-07
3.0005e-08
3.04216e-08
4.48926e-07
3.77484e-08
3.64538e-08
5.00478e-07
4.69694e-08
4.2896e-08
5.50959e-07
5.80054e-08
4.97402e-08
6.00429e-07
7.11989e-08
5.68894e-08
6.48584e-07
8.68668e-08
6.41255e-08
6.94661e-07
1.05225e-07
7.10751e-08
7.37292e-07
1.26204e-07
7.71982e-08
7.74263e-07
1.48949e-07
8.1802e-08
8.02108e-07
1.70295e-07
8.40395e-08
2.05153e-07
7.98596e-08
6.42954e-09
6.84529e-10
2.06434e-10
1.23974e-08
2.03641e-09
6.18196e-10
1.78647e-08
3.37925e-09
1.03883e-09
2.29798e-08
4.78419e-09
1.49669e-09
2.78637e-08
6.34512e-09
2.02654e-09
3.26097e-08
8.16544e-09
2.66567e-09
3.7279e-08
1.03684e-08
3.45638e-09
4.18908e-08
1.31087e-08
4.44796e-09
4.6405e-08
1.65859e-08
5.69781e-09
5.06981e-08
2.10571e-08
7.27043e-09
5.45356e-08
2.68451e-08
9.23265e-09
5.7559e-08
3.43247e-08
1.16399e-08
5.93335e-08
4.38412e-08
1.45038e-08
5.95587e-08
5.54337e-08
1.77174e-08
5.85442e-08
6.79369e-08
2.08695e-08
8.99909e-08
2.55471e-08
1.91737e-08
1.32821e-09
6.13246e-10
3.69675e-08
3.95004e-09
1.83572e-09
5.32645e-08
6.54924e-09
3.08294e-09
6.85071e-08
9.25859e-09
4.43858e-09
8.30565e-08
1.22537e-08
6.00497e-09
9.71939e-08
1.57255e-08
7.89136e-09
1.11109e-07
1.98984e-08
1.02211e-08
1.24872e-07
2.50497e-08
1.31372e-08
1.3839e-07
3.15301e-08
1.68044e-08
1.51333e-07
3.97815e-08
2.14045e-08
1.63062e-07
5.03375e-08
2.71176e-08
1.72584e-07
6.3771e-08
3.40724e-08
1.78664e-07
8.04965e-08
4.22345e-08
1.80375e-07
1.00211e-07
5.11747e-08
1.78361e-07
1.20475e-07
5.96032e-08
1.44236e-07
6.91384e-08
3.15828e-08
1.89868e-09
1.00011e-09
6.08827e-08
5.64325e-09
2.99188e-09
8.77033e-08
9.34354e-09
5.01943e-09
1.12772e-07
1.31782e-08
7.21705e-09
1.36686e-07
1.73839e-08
9.74842e-09
1.59915e-07
2.22125e-08
1.27869e-08
1.82793e-07
2.79527e-08
1.65267e-08
2.05475e-07
3.49512e-08
2.11908e-08
2.27878e-07
4.36335e-08
2.70324e-08
2.49582e-07
5.45153e-08
3.43238e-08
2.69715e-07
6.81859e-08
4.33169e-08
2.86877e-07
8.52144e-08
5.41467e-08
2.99267e-07
1.05863e-07
6.66254e-08
3.05366e-07
1.29399e-07
7.98637e-08
3.05563e-07
1.52648e-07
9.17124e-08
1.77875e-07
1.02175e-07
4.34513e-08
2.37e-09
1.35406e-09
8.37421e-08
7.03835e-09
4.04731e-09
1.20593e-07
1.16316e-08
6.78039e-09
1.55e-07
1.63553e-08
9.73052e-09
1.87787e-07
2.14818e-08
1.31127e-08
2.19612e-07
2.72924e-08
1.71524e-08
2.50964e-07
3.40971e-08
2.20995e-08
2.82126e-07
4.22535e-08
2.82377e-08
3.13104e-07
5.21801e-08
3.58844e-08
3.43526e-07
6.43565e-08
4.53732e-08
3.72513e-07
7.92899e-08
5.69953e-08
3.98569e-07
9.74033e-08
7.08607e-08
4.1965e-07
1.1874e-07
8.66107e-08
4.33748e-07
1.42325e-07
1.02931e-07
4.40247e-07
1.64997e-07
1.1701e-07
1.88031e-07
1.28619e-07
5.45893e-08
2.72462e-09
1.66457e-09
1.05176e-07
8.08346e-09
4.97033e-09
1.51393e-07
1.3329e-08
8.31177e-09
1.9448e-07
1.86739e-08
1.1899e-08
2.35467e-07
2.44013e-08
1.59858e-08
2.75193e-07
3.07908e-08
2.08349e-08
3.14308e-07
3.8135e-08
2.67337e-08
3.53247e-07
4.67504e-08
3.40045e-08
3.9217e-07
5.69819e-08
4.30036e-08
4.30872e-07
6.91897e-08
5.41007e-08
4.68663e-07
8.37052e-08
6.76124e-08
5.04236e-07
1.00728e-07
8.36444e-08
5.35618e-07
1.20086e-07
1.01757e-07
5.60379e-07
1.4076e-07
1.20398e-07
5.76113e-07
1.60088e-07
1.36289e-07
1.78226e-07
1.49449e-07
6.48307e-08
2.95377e-09
1.92434e-09
1.24863e-07
8.75366e-09
5.73914e-09
1.79632e-07
1.43985e-08
9.5769e-09
2.3059e-07
2.00911e-08
1.36693e-08
2.78945e-07
2.61033e-08
1.82951e-08
3.25695e-07
3.26889e-08
2.37381e-08
3.71637e-07
4.0093e-08
3.03038e-08
4.17356e-07
4.85566e-08
3.83292e-08
4.63187e-07
5.83096e-08
4.81831e-08
5.09146e-07
6.95483e-08
6.02468e-08
5.54835e-07
8.23857e-08
7.48532e-08
5.99314e-07
9.67737e-08
9.21423e-08
6.40946e-07
1.12352e-07
1.11735e-07
6.77126e-07
1.28189e-07
1.32125e-07
7.03442e-07
1.42435e-07
1.49817e-07
1.53885e-07
1.65507e-07
7.40377e-08
3.05686e-09
2.12954e-09
1.42538e-07
9.04886e-09
6.34263e-09
2.04926e-07
1.48458e-08
1.0558e-08
2.62828e-07
2.06282e-08
1.50175e-08
3.17591e-07
2.66407e-08
2.00107e-08
3.70335e-07
3.30951e-08
2.58264e-08
4.21971e-07
4.0174e-08
3.27683e-08
4.73203e-07
4.80267e-08
4.11646e-08
5.24508e-07
5.67561e-08
5.13679e-08
5.76086e-07
6.63894e-08
6.37392e-08
6.27797e-07
7.68293e-08
7.85998e-08
6.79063e-07
8.77991e-08
9.6118e-08
7.28688e-07
9.8786e-08
1.16056e-07
7.74365e-07
1.09021e-07
1.37251e-07
8.10683e-07
1.17715e-07
1.56561e-07
1.20692e-07
1.76941e-07
8.21035e-08
2.27981e-09
3.03998e-09
1.57997e-07
6.78035e-09
8.98898e-09
2.2699e-07
1.12561e-08
1.47106e-08
2.90826e-07
1.59481e-08
2.03557e-08
3.50953e-07
2.11438e-08
2.61325e-08
4.08567e-07
2.71222e-08
3.22044e-08
4.64645e-07
3.41675e-08
3.86885e-08
5.19951e-07
4.25768e-08
4.56465e-08
5.75026e-07
5.26578e-08
5.30662e-08
6.30151e-07
6.47116e-08
6.08319e-08
6.85285e-07
7.89879e-08
6.86809e-08
7.39974e-07
9.55841e-08
7.61559e-08
7.93156e-07
1.14236e-07
8.25764e-08
8.42652e-07
1.33869e-07
8.70268e-08
8.83653e-07
1.5153e-07
8.83785e-08
1.80066e-07
8.1414e-08
6.58402e-09
7.15453e-10
1.75918e-10
1.27036e-08
2.12953e-09
5.26912e-10
1.83269e-08
3.53747e-09
8.85757e-10
2.36138e-08
5.01582e-09
1.27681e-09
2.86977e-08
6.66514e-09
1.72986e-09
3.36856e-08
8.5965e-09
2.27674e-09
3.86548e-08
1.09425e-08
2.95315e-09
4.36444e-08
1.38698e-08
3.79979e-09
4.86394e-08
1.75931e-08
4.86202e-09
5.35477e-08
2.23894e-08
6.18674e-09
5.81755e-08
2.8607e-08
7.8143e-09
6.22133e-08
3.66546e-08
9.76167e-09
6.52696e-08
4.69302e-08
1.19927e-08
6.70164e-08
5.95658e-08
1.43716e-08
6.74584e-08
7.35017e-08
1.65799e-08
1.00886e-07
1.98462e-08
1.96324e-08
1.38797e-09
5.22586e-10
3.78766e-08
4.1299e-09
1.56463e-09
5.46362e-08
6.85449e-09
2.62862e-09
7.03881e-08
9.7046e-09
3.78643e-09
8.553e-08
1.28682e-08
5.12582e-09
1.00383e-07
1.65503e-08
6.74007e-09
1.15186e-07
2.09921e-08
8.73343e-09
1.30067e-07
2.64915e-08
1.12241e-08
1.45005e-07
3.34247e-08
1.43428e-08
1.59765e-07
4.22639e-08
1.8222e-08
1.73821e-07
5.35769e-08
2.29694e-08
1.86313e-07
6.79714e-08
2.86123e-08
1.96112e-07
8.58933e-08
3.49989e-08
2.0217e-07
1.07074e-07
4.16521e-08
2.04237e-07
1.29079e-07
4.75716e-08
1.56725e-07
5.3985e-08
3.2332e-08
1.98357e-09
8.52222e-10
6.23669e-08
5.89855e-09
2.54993e-09
8.99413e-08
9.77603e-09
4.27951e-09
1.15839e-07
1.38082e-08
6.1564e-09
1.40715e-07
1.82483e-08
8.32098e-09
1.65107e-07
2.33664e-08
1.09214e-08
1.89423e-07
2.9472e-08
1.41223e-08
2.13916e-07
3.69365e-08
1.81085e-08
2.38617e-07
4.62132e-08
2.30819e-08
2.63252e-07
5.78467e-08
2.92425e-08
2.87124e-07
7.24495e-08
3.67401e-08
3.09018e-07
9.05933e-08
4.55743e-08
3.27251e-07
1.12498e-07
5.54196e-08
3.40044e-07
1.37334e-07
6.53829e-08
3.4637e-07
1.618e-07
7.37969e-08
1.89276e-07
8.06432e-08
4.44695e-08
2.47512e-09
1.15374e-09
8.57578e-08
7.35416e-09
3.44918e-09
1.2363e-07
1.21653e-08
5.78042e-09
1.59157e-07
1.71296e-08
8.29984e-09
1.93241e-07
2.25384e-08
1.1192e-08
2.26629e-07
2.86927e-08
1.46498e-08
2.59912e-07
3.59242e-08
1.88856e-08
2.935e-07
4.4614e-08
2.41359e-08
3.27552e-07
5.52038e-08
3.06555e-08
3.61886e-07
6.81914e-08
3.86928e-08
3.9584e-07
8.40846e-08
4.84227e-08
4.28135e-07
1.03266e-07
5.98108e-08
4.56817e-07
1.25665e-07
7.2373e-08
4.79463e-07
1.50113e-07
8.48605e-08
4.93638e-07
1.73288e-07
9.50878e-08
1.97033e-07
1.0291e-07
5.58485e-08
2.84436e-09
1.41817e-09
1.07667e-07
8.44275e-09
4.23534e-09
1.5514e-07
1.39344e-08
7.08515e-09
1.99601e-07
1.95481e-08
1.01483e-08
2.42174e-07
2.55864e-08
1.36429e-08
2.83804e-07
3.23483e-08
1.77941e-08
3.25266e-07
4.01455e-08
2.28469e-08
3.67144e-07
4.93135e-08
2.90712e-08
4.09783e-07
6.02115e-08
3.6756e-08
4.53202e-07
7.32027e-08
4.61812e-08
4.96962e-07
8.85954e-08
5.75437e-08
5.39994e-07
1.06514e-07
7.08069e-08
5.80385e-07
1.2663e-07
8.5423e-08
6.1515e-07
1.47692e-07
9.99548e-08
6.39744e-07
1.66907e-07
1.11844e-07
1.84653e-07
1.21214e-07
6.62981e-08
3.08231e-09
1.63927e-09
1.27763e-07
9.13879e-09
4.88978e-09
1.83988e-07
1.50453e-08
8.1624e-09
2.3653e-07
2.10203e-08
1.16565e-08
2.86705e-07
2.7354e-08
1.56116e-08
3.35629e-07
3.43171e-08
2.02716e-08
3.84238e-07
4.21704e-08
2.58976e-08
4.33287e-07
5.11668e-08
3.27736e-08
4.83316e-07
6.15406e-08
4.12014e-08
5.34587e-07
7.34762e-08
5.14743e-08
5.86981e-07
8.70451e-08
6.38096e-08
6.39821e-07
1.02106e-07
7.8209e-08
6.91529e-07
1.18132e-07
9.41876e-08
7.38879e-07
1.33969e-07
1.10358e-07
7.75067e-07
1.47691e-07
1.23975e-07
1.58115e-07
1.35803e-07
7.56775e-08
3.18857e-09
1.81378e-09
1.45774e-07
9.44287e-09
5.40304e-09
2.09778e-07
1.55053e-08
8.99699e-09
2.69426e-07
2.15705e-08
1.28038e-08
3.26183e-07
2.78995e-08
1.70724e-08
3.81295e-07
3.47181e-08
2.20514e-08
4.35819e-07
4.22195e-08
2.80013e-08
4.90636e-07
5.05586e-08
3.52001e-08
5.46436e-07
5.98335e-08
4.39388e-08
6.03678e-07
7.00486e-08
5.44983e-08
6.62519e-07
8.10543e-08
6.7095e-08
7.22666e-07
9.24765e-08
8.17674e-08
7.83031e-07
1.03649e-07
9.81631e-08
8.40745e-07
1.13622e-07
1.15186e-07
8.87955e-07
1.2158e-07
1.30358e-07
1.23217e-07
1.46402e-07
8.38784e-08
1.94141e-09
3.16968e-09
1.61495e-07
5.77479e-09
9.3764e-09
2.32222e-07
9.58984e-09
1.53569e-08
2.97921e-07
1.35941e-08
2.12743e-08
3.60156e-07
1.80349e-08
2.73506e-08
4.20252e-07
2.31526e-08
3.376e-08
4.79333e-07
2.91919e-08
4.06258e-08
5.38338e-07
3.64056e-08
4.80093e-08
5.98016e-07
4.50492e-08
5.58872e-08
6.58899e-07
5.53583e-08
6.4115e-08
7.21234e-07
6.74982e-08
7.23747e-08
7.84851e-07
8.14628e-08
8.01164e-08
8.48823e-07
9.68957e-08
8.65282e-08
9.10531e-07
1.12777e-07
9.05444e-08
9.63068e-07
1.2673e-07
9.09757e-08
1.49564e-07
8.21994e-08
6.71649e-09
7.41342e-10
1.38469e-10
1.29668e-08
2.20745e-09
4.14799e-10
1.87255e-08
3.66973e-09
6.97464e-10
2.41633e-08
5.20909e-09
1.00572e-09
2.94248e-08
6.93145e-09
1.36305e-09
3.46299e-08
8.95392e-09
1.79439e-09
3.98718e-08
1.14164e-08
2.32734e-09
4.52086e-08
1.44948e-08
2.99264e-09
5.06483e-08
1.84162e-08
3.823e-09
5.61264e-08
2.34746e-08
4.8493e-09
6.14774e-08
3.00437e-08
6.09235e-09
6.64125e-08
3.85747e-08
7.54836e-09
7.05281e-08
4.95404e-08
9.16824e-09
7.33969e-08
6.3195e-08
1.08352e-08
7.47541e-08
7.85533e-08
1.23326e-08
1.10105e-07
1.45822e-08
2.00256e-08
1.43798e-09
4.11335e-10
3.86577e-08
4.28037e-09
1.2317e-09
5.58189e-08
7.1096e-09
2.0698e-09
7.20178e-08
1.00767e-08
2.98248e-09
8.76856e-08
1.33795e-08
4.03892e-09
1.03182e-07
1.72341e-08
5.31223e-09
1.18791e-07
2.18945e-08
6.88313e-09
1.34699e-07
2.76747e-08
8.84101e-09
1.50951e-07
3.49709e-08
1.12804e-08
1.67393e-07
4.4281e-08
1.42886e-08
1.83579e-07
5.62082e-08
1.79202e-08
1.98705e-07
7.14113e-08
2.21498e-08
2.11593e-07
9.04167e-08
2.68033e-08
2.20888e-07
1.13068e-07
3.1483e-08
2.25546e-07
1.36939e-07
3.54999e-08
1.68069e-07
3.97969e-08
3.2974e-08
2.05459e-09
6.70774e-10
6.36416e-08
6.11208e-09
2.00728e-09
9.18704e-08
1.01374e-08
3.36962e-09
1.18495e-07
1.43336e-08
4.84912e-09
1.44225e-07
1.89672e-08
6.5565e-09
1.6966e-07
2.43225e-08
8.60806e-09
1.95283e-07
3.07248e-08
1.11314e-08
2.21436e-07
3.8564e-08
1.42667e-08
2.48261e-07
4.83144e-08
1.81609e-08
2.75609e-07
6.05442e-08
2.29468e-08
3.02907e-07
7.58913e-08
2.86986e-08
3.29015e-07
9.49547e-08
3.53502e-08
3.5215e-07
1.17983e-07
4.2572e-08
3.70015e-07
1.44176e-07
4.964e-08
3.80336e-07
1.70168e-07
5.53916e-08
2.00155e-07
5.98682e-08
4.53417e-08
2.56305e-09
9.08049e-10
8.74883e-08
7.61823e-09
2.71501e-09
1.26246e-07
1.26111e-08
4.55117e-09
1.62755e-07
1.77752e-08
6.53711e-09
1.97989e-07
2.34169e-08
8.8185e-09
2.32778e-07
2.98525e-08
1.1547e-08
2.67814e-07
3.74298e-08
1.48876e-08
3.03623e-07
4.65464e-08
1.90204e-08
3.40514e-07
5.76606e-08
2.41323e-08
3.78465e-07
7.1283e-08
3.03902e-08
4.16976e-07
8.79257e-08
3.78821e-08
4.5485e-07
1.07961e-07
4.65066e-08
4.89984e-07
1.31286e-07
5.5804e-08
5.19251e-07
1.56691e-07
6.47797e-08
5.38619e-07
1.8079e-07
7.18931e-08
2.05907e-07
7.71088e-08
5.69266e-08
2.9445e-09
1.11609e-09
1.09804e-07
8.7431e-09
3.33358e-09
1.58367e-07
1.44399e-08
5.57801e-09
2.04031e-07
2.02769e-08
7.99247e-09
2.48008e-07
2.65716e-08
1.07492e-08
2.91344e-07
3.36376e-08
1.40254e-08
3.34931e-07
4.18008e-08
1.80121e-08
3.79498e-07
5.14088e-08
2.2916e-08
4.25564e-07
6.28289e-08
2.89504e-08
4.73343e-07
7.64228e-08
3.63071e-08
5.22585e-07
9.24808e-08
4.50906e-08
5.72317e-07
1.11083e-07
5.51977e-08
6.20438e-07
1.31827e-07
6.61208e-08
6.63127e-07
1.53384e-07
7.6726e-08
6.93945e-07
1.72937e-07
8.51905e-08
1.91116e-07
9.17015e-08
6.75537e-08
3.18979e-09
1.28997e-09
1.30249e-07
9.46069e-09
3.8483e-09
1.87735e-07
1.55854e-08
6.42547e-09
2.41664e-07
2.17948e-08
9.17938e-09
2.93448e-07
2.83933e-08
1.22995e-08
3.44318e-07
3.56645e-08
1.59778e-08
3.95341e-07
4.38795e-08
2.04186e-08
4.47433e-07
5.32978e-08
2.58405e-08
5.01327e-07
6.41527e-08
3.24683e-08
5.57506e-07
7.66139e-08
4.05061e-08
6.16065e-07
9.07171e-08
5.00774e-08
6.76447e-07
1.06256e-07
6.11134e-08
7.36886e-07
1.22611e-07
7.31608e-08
7.93254e-07
1.3855e-07
8.5128e-08
8.36617e-07
1.52174e-07
9.50426e-08
1.62413e-07
1.03618e-07
7.70796e-08
3.29868e-09
1.42712e-09
1.48547e-07
9.77212e-09
4.25173e-09
2.13949e-07
1.60558e-08
7.08159e-09
2.75125e-07
2.23556e-08
1.00816e-08
3.33643e-07
2.89452e-08
1.34488e-08
3.9087e-07
3.60605e-08
1.73793e-08
4.48003e-07
4.39013e-08
2.20775e-08
5.06093e-07
5.26233e-08
2.77584e-08
5.6603e-07
6.23161e-08
3.46401e-08
6.28507e-07
7.296e-08
4.29203e-08
6.93914e-07
8.43589e-08
5.27269e-08
7.62109e-07
9.60657e-08
6.4026e-08
8.31865e-07
1.07324e-07
7.64731e-08
8.99463e-07
1.17118e-07
8.91993e-08
9.5482e-07
1.24707e-07
1.00421e-07
1.25827e-07
1.12413e-07
8.53951e-08
1.52734e-09
3.2781e-09
1.6449e-07
4.54362e-09
9.70009e-09
2.36716e-07
7.54712e-09
1.58963e-08
3.04041e-07
1.07023e-08
2.20395e-08
3.68136e-07
1.42049e-08
2.83623e-08
4.30448e-07
1.82449e-08
3.50463e-08
4.92239e-07
2.3015e-08
4.22178e-08
5.54616e-07
2.87113e-08
4.99345e-08
6.18529e-07
3.55263e-08
5.81592e-08
6.84736e-07
4.3626e-08
6.67186e-08
7.5372e-07
5.3104e-08
7.52447e-08
8.25475e-07
6.39001e-08
8.3115e-08
8.98986e-07
7.56725e-08
8.94325e-08
9.70905e-07
8.76041e-08
9.3068e-08
1.03231e-06
9.7956e-08
9.28631e-08
1.15171e-07
8.31549e-08
6.82142e-09
7.61422e-10
9.55163e-11
1.31756e-08
2.26787e-09
2.8615e-10
1.90426e-08
3.7722e-09
4.81215e-10
2.4602e-08
5.35858e-09
6.94024e-10
3.00077e-08
7.13696e-09
9.40766e-10
3.53908e-08
9.22891e-09
1.23852e-09
4.08575e-08
1.17798e-08
1.60598e-09
4.64818e-08
1.49724e-08
2.0635e-09
5.22902e-08
1.90436e-08
2.63195e-09
5.82372e-08
2.4302e-08
3.3294e-09
6.41727e-08
3.11451e-08
4.16485e-09
6.98079e-08
4.0065e-08
5.12833e-09
7.47029e-08
5.16047e-08
6.17888e-09
7.83285e-08
6.61158e-08
7.23595e-09
8.02393e-08
8.26342e-08
8.16832e-09
1.17202e-07
9.59169e-09
2.0337e-08
1.47676e-09
2.83736e-10
3.92773e-08
4.39702e-09
8.49681e-10
5.67598e-08
7.3072e-09
1.42805e-09
7.33188e-08
1.03644e-08
2.05814e-09
8.94138e-08
1.3774e-08
2.78765e-09
1.05437e-07
1.776e-08
3.66669e-09
1.21711e-07
2.25862e-08
4.74996e-09
1.38468e-07
2.85783e-08
6.09676e-09
1.5581e-07
3.61483e-08
7.76747e-09
1.73636e-07
4.58164e-08
9.81335e-09
1.91547e-07
5.82199e-08
1.22571e-08
2.08732e-07
7.40729e-08
1.5061e-08
2.23906e-07
9.39879e-08
1.80865e-08
2.35402e-07
1.17909e-07
2.10614e-08
2.41641e-07
1.43373e-07
2.35626e-08
1.77163e-07
2.62315e-08
3.34823e-08
2.10967e-09
4.62684e-10
6.46526e-08
6.2776e-09
1.38468e-09
9.34044e-08
1.04172e-08
2.3248e-09
1.20615e-07
1.47399e-08
3.34622e-09
1.47039e-07
1.95218e-08
4.5253e-09
1.73327e-07
2.50577e-08
5.94182e-09
2.00027e-07
3.16845e-08
7.68234e-09
2.27554e-07
3.98055e-08
9.84018e-09
2.56139e-07
4.99116e-08
1.25096e-08
2.85722e-07
6.25914e-08
1.57689e-08
3.15797e-07
7.8511e-08
1.96478e-08
3.45218e-07
9.831e-08
2.40721e-08
3.72011e-07
1.22294e-07
2.87898e-08
3.93376e-07
1.49712e-07
3.33092e-08
4.0619e-07
1.77114e-07
3.69066e-08
2.09197e-07
3.96364e-08
4.6032e-08
2.63122e-09
6.26329e-10
8.88603e-08
7.82288e-09
1.87282e-09
1.28326e-07
1.29563e-08
3.13988e-09
1.65625e-07
1.82743e-08
4.51095e-09
2.01792e-07
2.40945e-08
6.08654e-09
2.37728e-07
3.0744e-08
7.9708e-09
2.74206e-07
3.85822e-08
1.02759e-08
3.11856e-07
4.80188e-08
1.31221e-08
3.51097e-07
5.95239e-08
1.663e-08
3.92032e-07
7.36203e-08
2.08993e-08
4.34246e-07
9.08318e-08
2.59658e-08
4.76532e-07
1.11543e-07
3.17272e-08
5.16532e-07
1.35665e-07
3.78405e-08
5.50459e-07
1.61997e-07
4.36332e-08
5.73169e-07
1.87077e-07
4.81353e-08
2.13523e-07
5.13555e-08
5.77796e-08
3.02212e-09
7.69787e-10
1.11498e-07
8.97583e-09
2.29939e-09
1.60931e-07
1.48313e-08
3.84813e-09
2.07563e-07
2.08401e-08
5.51503e-09
2.5268e-07
2.73311e-08
7.41901e-09
2.97409e-07
3.46282e-08
9.68196e-09
3.42746e-07
4.3067e-08
1.24339e-08
3.89538e-07
5.30031e-08
1.58136e-08
4.38443e-07
6.4809e-08
1.99596e-08
4.8982e-07
7.88467e-08
2.49882e-08
5.4353e-07
9.53997e-08
3.09461e-08
5.9859e-07
1.14533e-07
3.77292e-08
6.52608e-07
1.35826e-07
4.49627e-08
7.00982e-07
1.57936e-07
5.1882e-08
7.35937e-07
1.78014e-07
5.73275e-08
1.96836e-07
6.14626e-08
6.85466e-08
3.27309e-09
8.89658e-10
1.32219e-07
9.71009e-09
2.65427e-09
1.90711e-07
1.60034e-08
4.4325e-09
2.45754e-07
2.23932e-08
6.33371e-09
2.98844e-07
2.91943e-08
8.48874e-09
3.51302e-07
3.66991e-08
1.10298e-08
4.04312e-07
4.51858e-08
1.40965e-08
4.58921e-07
5.4917e-08
1.78358e-08
5.16018e-07
6.61238e-08
2.2395e-08
5.76251e-07
7.89651e-08
2.78997e-08
6.3985e-07
9.34546e-08
3.44106e-08
7.06261e-07
1.09353e-07
4.18491e-08
7.73429e-07
1.26004e-07
4.9879e-08
8.36384e-07
1.4216e-07
5.77657e-08
8.84654e-07
1.55945e-07
6.42445e-08
1.6635e-07
6.98487e-08
7.81878e-08
3.384e-09
9.84178e-10
1.50742e-07
1.00272e-08
2.9323e-09
2.17259e-07
1.64818e-08
4.88476e-09
2.79662e-07
2.29622e-08
6.95576e-09
3.39608e-07
2.9751e-08
9.28146e-09
3.98562e-07
3.70909e-08
1.19971e-08
4.5784e-07
4.51857e-08
1.52425e-08
5.18635e-07
5.419e-08
1.91632e-08
5.82002e-07
6.41849e-08
2.39024e-08
6.4881e-07
7.51318e-08
2.95831e-08
7.19599e-07
8.68031e-08
3.62711e-08
7.94264e-07
9.87086e-08
4.39142e-08
8.71325e-07
1.10052e-07
5.22519e-08
9.46253e-07
1.1981e-07
6.06985e-08
1.00732e-06
1.27318e-07
6.81103e-08
1.28352e-07
7.61022e-08
8.65932e-08
1.0532e-09
3.3621e-09
1.6686e-07
3.13334e-09
9.95081e-09
2.40281e-07
5.20539e-09
1.63136e-08
3.08911e-07
7.38331e-09
2.26305e-08
3.74512e-07
9.80239e-09
2.91416e-08
4.3863e-07
1.25938e-08
3.60333e-08
5.02648e-07
1.58899e-08
4.34329e-08
5.67812e-07
1.98236e-08
5.13936e-08
6.35237e-07
2.45217e-08
5.98659e-08
7.05857e-07
3.00872e-08
6.86529e-08
7.8031e-07
3.65655e-08
7.73507e-08
8.58646e-07
4.38893e-08
8.52904e-08
9.39651e-07
5.18011e-08
9.15324e-08
1.01925e-06
5.9745e-08
9.49335e-08
1.087e-06
6.65918e-08
9.43788e-08
7.81169e-08
8.42812e-08
6.89418e-09
7.75129e-10
4.87395e-11
1.33206e-08
2.30911e-09
1.46019e-10
1.92632e-08
3.84206e-09
2.45573e-10
2.49078e-08
5.46037e-09
3.54203e-10
3.04153e-08
7.27664e-09
4.80161e-10
3.59246e-08
9.41541e-09
6.32112e-10
4.15513e-08
1.20256e-08
8.19462e-10
4.73803e-08
1.5295e-08
1.05231e-09
5.34507e-08
1.94671e-08
1.34074e-09
5.97282e-08
2.48614e-08
1.69296e-09
6.60691e-08
3.1894e-08
2.11197e-09
7.21764e-08
4.10883e-08
2.59071e-09
7.75748e-08
5.30377e-08
3.10671e-09
8.16616e-08
6.81555e-08
3.61961e-09
8.38879e-08
8.54736e-08
4.06792e-09
1.22e-07
4.75951e-09
2.0553e-08
1.50324e-09
1.44782e-10
3.97074e-08
4.47662e-09
4.33579e-10
5.7414e-08
7.44192e-09
7.28756e-10