/*--------------------------------*- C++ -*----------------------------------*\
| =========                 |                                                 |
| \\      /  F ield         | foam-extend: Open Source CFD                    |
|  \\    /   O peration     | Version:     3.1                                |
|   \\  /    A nd           | Web:         http://www.extend-project.de       |
|    \\/     M anipulation  |                                                 |
\*---------------------------------------------------------------------------*/
FoamFile
{
    version     2.0;
    format      ascii;
    class       volScalarField;
    location    "1.9";
    object      p;
}
// * * * * * * * * * * * * * * * * * * * * * * * * * * * * * * * * * * * * * //

dimensions      [0 2 -2 0 0 0 0];

internalField   nonuniform List<scalar> 
14592
(
0.0247219
0.0245299
0.0244023
0.0243644
0.0243957
0.0244573
0.0245092
0.0245219
0.0244801
0.0243785
0.0242161
0.0239821
0.0236469
0.0231388
0.0223449
0.021314
0.0247286
0.0245033
0.0243489
0.0242939
0.0243211
0.0243914
0.0244605
0.0244936
0.0244724
0.0243914
0.0242496
0.0240399
0.0237374
0.0232722
0.0224628
0.0211103
0.0246885
0.0244337
0.0242476
0.024173
0.0241997
0.0242862
0.0243805
0.0244409
0.0244451
0.024389
0.0242765
0.0241064
0.0238592
0.0234556
0.0226297
0.0208826
0.0246321
0.0243614
0.0241492
0.0240519
0.0240706
0.0241645
0.0242766
0.0243579
0.0243813
0.0243436
0.0242532
0.0241141
0.0239134
0.0235684
0.0227662
0.0207556
0.0245702
0.0242939
0.0240663
0.0239472
0.0239492
0.0240372
0.0241536
0.0242437
0.0242757
0.0242438
0.0241601
0.0240327
0.0238583
0.0235623
0.02283
0.0207018
0.0245008
0.0242235
0.0239895
0.0238532
0.0238359
0.0239086
0.024016
0.024101
0.0241269
0.0240849
0.0239872
0.0238446
0.0236675
0.0233979
0.0227683
0.0206578
0.0244197
0.0241424
0.0239051
0.0237567
0.0237205
0.0237735
0.0238631
0.0239306
0.0239361
0.0238658
0.0237297
0.0235364
0.0233117
0.0230117
0.0224982
0.020456
0.0243259
0.0240477
0.0238064
0.0236472
0.0235946
0.0236278
0.0236955
0.023738
0.0237118
0.0235969
0.0233983
0.0231104
0.0227621
0.0222616
0.0217776
0.0190911
0.0249057
0.024704
0.0245711
0.0245371
0.0245835
0.0246716
0.0247603
0.0248198
0.0248366
0.0248092
0.0247453
0.0246448
0.0244979
0.0242656
0.0239239
0.0236853
0.0249165
0.0246793
0.0245165
0.0244626
0.024503
0.0245995
0.0247068
0.0247896
0.0248303
0.0248275
0.0247872
0.024714
0.0245998
0.0243981
0.0240521
0.0238324
0.0248812
0.0246146
0.0244203
0.0243449
0.0243826
0.0244943
0.024628
0.0247406
0.0248105
0.0248372
0.0248319
0.0248063
0.0247584
0.0246302
0.0243038
0.0240499
0.0248301
0.02455
0.0243314
0.0242336
0.0242619
0.0243792
0.0245297
0.0246635
0.0247541
0.0248018
0.0248235
0.0248374
0.0248494
0.0247988
0.0245101
0.0242143
0.0247715
0.0244883
0.0242579
0.0241408
0.024152
0.0242609
0.0244125
0.0245527
0.0246498
0.0247029
0.0247324
0.0247618
0.0248077
0.0248183
0.024577
0.0242404
0.0247023
0.0244194
0.0241864
0.0240554
0.0240475
0.0241382
0.0242762
0.024406
0.0244922
0.0245301
0.0245406
0.0245505
0.0245891
0.0246229
0.0244154
0.0240416
0.0246176
0.0243352
0.0241011
0.0239601
0.0239331
0.0240007
0.0241149
0.0242201
0.0242777
0.0242776
0.0242376
0.0241815
0.0241505
0.024128
0.0238954
0.0233153
0.0245155
0.0242323
0.0239945
0.0238427
0.0237975
0.023841
0.0239269
0.0239987
0.0240141
0.0239558
0.023834
0.0236545
0.023454
0.0231698
0.0227494
0.0206258
0.0250904
0.0248814
0.024746
0.0247186
0.024782
0.0248975
0.025023
0.025128
0.0251996
0.0252394
0.0252574
0.0252604
0.0252442
0.0251829
0.0250732
0.0250303
0.0251051
0.0248593
0.0246909
0.0246412
0.0246967
0.0248203
0.0249659
0.0250968
0.0251956
0.0252618
0.0253078
0.0253394
0.0253528
0.0253115
0.0251988
0.0251908
0.0250746
0.0247979
0.0246003
0.0245279
0.0245795
0.024718
0.0248912
0.0250547
0.0251864
0.0252875
0.0253713
0.0254536
0.0255333
0.0255592
0.0254819
0.0254721
0.0250288
0.0247423
0.0245209
0.0244272
0.024469
0.0246123
0.024802
0.0249873
0.0251411
0.0252651
0.0253789
0.025504
0.0256459
0.0257441
0.0257
0.0256733
0.0249738
0.0246859
0.0244561
0.0243461
0.0243716
0.024505
0.0246936
0.0248832
0.0250419
0.0251703
0.0252916
0.0254323
0.0256073
0.0257573
0.0257359
0.0256607
0.0249048
0.0246181
0.024389
0.0242686
0.0242762
0.0243896
0.0245606
0.0247353
0.0248784
0.0249866
0.0250838
0.0251993
0.0253587
0.0255118
0.025467
0.0253025
0.0248164
0.0245307
0.0243022
0.0241739
0.0241626
0.0242503
0.0243925
0.0245356
0.0246422
0.0247035
0.0247397
0.0247761
0.0248473
0.0249097
0.024731
0.0242182
0.0247068
0.02442
0.0241877
0.0240485
0.0240173
0.0240772
0.0241848
0.0242864
0.0243407
0.0243313
0.0242696
0.0241615
0.0240334
0.0237927
0.0232784
0.0208676
0.0252648
0.0250503
0.0249148
0.0248953
0.0249758
0.0251179
0.0252779
0.0254242
0.0255437
0.0256388
0.0257206
0.0257972
0.0258638
0.0258989
0.0259001
0.0259048
0.0252833
0.0250294
0.0248594
0.0248156
0.0248869
0.0250367
0.0252182
0.0253929
0.0255425
0.0256652
0.0257793
0.0258847
0.025978
0.0260257
0.0260201
0.0260347
0.0252575
0.0249753
0.0247746
0.0247074
0.0247738
0.0249386
0.0251491
0.025359
0.0255452
0.0257093
0.0258601
0.0260163
0.026171
0.0262728
0.0262902
0.026294
0.0252161
0.0249241
0.0247035
0.0246167
0.0246738
0.0248432
0.0250703
0.0253029
0.0255123
0.0256995
0.0258825
0.0260813
0.0262941
0.0264558
0.0264922
0.0264666
0.0251646
0.0248738
0.0246463
0.0245462
0.0245885
0.0247475
0.0249719
0.0252072
0.0254199
0.0256101
0.0257993
0.0260113
0.0262519
0.0264506
0.0264846
0.0263919
0.025096
0.0248068
0.0245827
0.0244755
0.0245015
0.0246395
0.0248434
0.0250598
0.0252529
0.025418
0.0255782
0.0257589
0.0259749
0.0261561
0.0261248
0.0259064
0.0250045
0.0247164
0.0244942
0.0243808
0.0243884
0.0244989
0.0246697
0.0248485
0.0249978
0.0251084
0.0251987
0.0252898
0.0254036
0.0254671
0.0252331
0.0245906
0.0248877
0.0245984
0.0243721
0.0242474
0.0242339
0.0243132
0.0244441
0.024574
0.0246621
0.0246913
0.0246714
0.0246032
0.0244993
0.0242346
0.0235821
0.0208566
0.0254186
0.0252003
0.0250658
0.0250541
0.0251506
0.0253162
0.0255064
0.0256878
0.0258466
0.0259848
0.0261124
0.0262372
0.0263515
0.0264344
0.0264804
0.0264896
0.0254405
0.0251807
0.0250102
0.0249728
0.0250587
0.025232
0.0254446
0.0256566
0.0258481
0.0260173
0.0261782
0.0263317
0.0264705
0.0265607
0.0265946
0.026595
0.0254187
0.0251324
0.0249306
0.0248692
0.0249498
0.0251382
0.0253813
0.0256308
0.0258612
0.0260718
0.0262731
0.0264765
0.0266705
0.026802
0.0268431
0.0268214
0.0253811
0.0250847
0.0248665
0.0247873
0.0248594
0.0250527
0.0253128
0.0255857
0.0258405
0.0260761
0.0263081
0.0265519
0.0267978
0.026976
0.027021
0.0269549
0.0253328
0.0250404
0.0248156
0.0247258
0.0247846
0.0249675
0.025224
0.0254984
0.0257552
0.0259926
0.0262287
0.0264822
0.0267492
0.0269503
0.0269722
0.0268237
0.0252645
0.0249737
0.0247547
0.0246605
0.0247048
0.0248663
0.0251001
0.0253525
0.0255866
0.0257945
0.0259971
0.0262136
0.026448
0.0266153
0.0265427
0.0262449
0.0251703
0.0248807
0.0246643
0.0245653
0.0245919
0.0247247
0.0249219
0.0251319
0.025316
0.0254631
0.025589
0.0257081
0.0258304
0.0258612
0.0255429
0.0247757
0.0250473
0.0247561
0.0245355
0.0244249
0.0244292
0.0245282
0.0246809
0.0248357
0.0249513
0.0250089
0.0250153
0.0249653
0.0248591
0.024547
0.0237619
0.0207895
0.0255434
0.0253221
0.0251889
0.0251842
0.0252938
0.0254787
0.0256929
0.0259018
0.0260903
0.0262597
0.0264187
0.0265721
0.0267114
0.0268145
0.0268741
0.0268758
0.0255672
0.0253037
0.0251334
0.0251018
0.0251999
0.0253922
0.0256298
0.0258709
0.0260941
0.0262968
0.0264886
0.0266719
0.0268342
0.0269411
0.0269841
0.0269649
0.0255487
0.0252596
0.0250578
0.025002
0.0250947
0.0253025
0.0255716
0.0258519
0.0261158
0.0263598
0.026595
0.0268263
0.0270382
0.0271765
0.0272148
0.0271642
0.0255142
0.0252154
0.0249992
0.0249271
0.0250121
0.0252252
0.0255118
0.0258163
0.0261053
0.0263757
0.0266399
0.0269089
0.0271668
0.0273408
0.0273702
0.0272644
0.0254682
0.0251747
0.024953
0.0248726
0.0249458
0.0251488
0.0254312
0.0257363
0.0260258
0.0262974
0.0265636
0.0268388
0.0271119
0.0272976
0.0272888
0.0270901
0.0254003
0.0251086
0.0248941
0.0248112
0.0248715
0.0250531
0.0253115
0.0255924
0.0258579
0.0260952
0.0263241
0.026558
0.0267921
0.0269322
0.0268096
0.0264465
0.025304
0.0250135
0.024802
0.0247154
0.0247585
0.0249106
0.02513
0.0253647
0.0255749
0.0257473
0.0258946
0.0260256
0.0261407
0.0261323
0.0257374
0.0248764
0.025176
0.0248837
0.0246677
0.0245692
0.0245893
0.0247055
0.0248768
0.0250516
0.0251877
0.0252646
0.0252861
0.0252416
0.025122
0.0247617
0.0238714
0.0207223
0.025631
0.0254084
0.0252766
0.0252774
0.0253967
0.0255952
0.0258263
0.026054
0.0262624
0.026452
0.02663
0.0267993
0.0269505
0.0270605
0.0271212
0.027114
0.0256562
0.0253911
0.0252218
0.0251951
0.0253026
0.0255088
0.025764
0.0260252
0.0262697
0.0264939
0.026705
0.026905
0.0270783
0.0271901
0.0272311
0.0271949
0.0256399
0.0253496
0.0251489
0.0250982
0.0252004
0.0254226
0.0257104
0.0260122
0.0262987
0.0265644
0.0268202
0.0270668
0.027286
0.0274226
0.0274512
0.027377
0.0256073
0.0253076
0.0250936
0.0250278
0.0251232
0.0253513
0.0256571
0.0259837
0.0262958
0.026589
0.0268724
0.0271545
0.0274151
0.0275799
0.0275909
0.0274543
0.025563
0.0252691
0.0250504
0.0249775
0.0250623
0.0252807
0.0255822
0.025909
0.0262196
0.0265144
0.0267984
0.0270841
0.0273555
0.0275245
0.0274877
0.0272516
0.0254953
0.0252036
0.0249926
0.0249184
0.0249913
0.0251885
0.0254653
0.025767
0.0260549
0.0263098
0.0265537
0.026795
0.0270231
0.0271389
0.0269765
0.0265672
0.0253975
0.0251069
0.0248991
0.0248218
0.0248779
0.0250452
0.0252814
0.0255342
0.0257625
0.0259507
0.0261098
0.0262446
0.0263494
0.0263094
0.0258588
0.0249346
0.025266
0.0249734
0.0247608
0.0246714
0.0247038
0.0248338
0.0250197
0.0252093
0.0253596
0.0254485
0.0254779
0.0254334
0.0252998
0.0249025
0.0239389
0.0206767
0.0256744
0.0254508
0.0253188
0.0253213
0.0254446
0.0256495
0.0258886
0.0261255
0.0263434
0.0265424
0.0267287
0.0269045
0.0270594
0.0271708
0.027231
0.027221
0.0257
0.0254334
0.0252631
0.0252374
0.0253485
0.0255608
0.0258242
0.0260949
0.0263494
0.0265833
0.0268028
0.0270093
0.0271858
0.0272982
0.0273378
0.027296
0.025685
0.0253935
0.0251917
0.0251417
0.0252471
0.025475
0.025771
0.0260828
0.0263797
0.0266553
0.0269199
0.0271721
0.0273924
0.0275262
0.0275504
0.0274677
0.0256537
0.0253531
0.0251387
0.025074
0.0251727
0.0254065
0.0257205
0.0260571
0.0263798
0.0266836
0.0269749
0.0272614
0.0275208
0.0276789
0.0276816
0.0275328
0.0256101
0.0253157
0.0250973
0.0250264
0.0251151
0.0253394
0.0256487
0.025985
0.0263056
0.0266104
0.0269017
0.0271906
0.0274587
0.0276172
0.0275676
0.0273167
0.0255428
0.0252509
0.0250405
0.0249688
0.0250463
0.0252495
0.0255336
0.025844
0.0261417
0.0264045
0.0266546
0.0268977
0.0271204
0.027222
0.0270412
0.0266136
0.0254443
0.0251536
0.0249466
0.0248723
0.0249331
0.0251061
0.025349
0.0256093
0.0258452
0.0260401
0.0262038
0.0263389
0.0264363
0.0263782
0.0258999
0.0249431
0.0253111
0.0250183
0.0248065
0.02472
0.0247569
0.024892
0.0250833
0.0252787
0.0254349
0.025529
0.0255611
0.0255155
0.0253725
0.0249547
0.023939
0.0206261
0.0241002
0.0240875
0.0241045
0.0241276
0.0241311
0.0240897
0.0239813
0.0237888
0.0234997
0.0231041
0.0225922
0.0219534
0.0211751
0.0202484
0.0191654
0.0179509
0.0240994
0.0240878
0.0241105
0.0241423
0.0241546
0.0241205
0.0240173
0.0238282
0.0235414
0.0231477
0.0226382
0.0220028
0.021229
0.0203089
0.0192298
0.0180205
0.0240771
0.0240599
0.0240909
0.024139
0.0241702
0.0241531
0.0240627
0.0238816
0.023599
0.0232077
0.0227007
0.0220703
0.0213044
0.0203971
0.0193311
0.0181403
0.0240396
0.0240103
0.0240409
0.0241011
0.024151
0.0241535
0.0240789
0.0239083
0.0236314
0.0232425
0.0227371
0.0221097
0.0213497
0.0204545
0.0194023
0.018231
0.0239925
0.0239487
0.0239717
0.0240361
0.0240993
0.0241181
0.0240582
0.023898
0.0236269
0.0232404
0.0227357
0.0221098
0.0213536
0.0204675
0.0194278
0.0182746
0.0239399
0.0238833
0.0238964
0.0239599
0.0240299
0.0240596
0.0240105
0.0238582
0.0235912
0.0232059
0.0227008
0.0220751
0.0213215
0.0204427
0.0194163
0.0182821
0.0238847
0.0238192
0.0238236
0.0238838
0.023956
0.023991
0.0239476
0.0237992
0.0235336
0.0231475
0.0226408
0.0220142
0.0212628
0.0203911
0.0193802
0.018268
0.0238306
0.0237601
0.0237588
0.0238155
0.0238868
0.0239223
0.0238793
0.0237305
0.023463
0.023074
0.0225645
0.0219366
0.0211877
0.020324
0.0193316
0.0182452
0.0240958
0.0240621
0.0240645
0.0240796
0.0240812
0.0240414
0.023936
0.0237461
0.0234584
0.0230624
0.0225481
0.0219046
0.0211187
0.0201821
0.0190839
0.0178562
0.0240908
0.0240497
0.0240501
0.0240679
0.0240751
0.0240421
0.0239427
0.0237577
0.0234734
0.0230798
0.0225673
0.0219258
0.0211423
0.0202122
0.0191177
0.0178992
0.0240635
0.0240087
0.0240092
0.0240371
0.0240606
0.0240447
0.0239596
0.0237845
0.0235061
0.023116
0.0226067
0.0219706
0.0211945
0.0202749
0.0191912
0.0179919
0.0240254
0.0239536
0.0239469
0.0239815
0.0240208
0.0240239
0.0239557
0.0237928
0.0235217
0.0231355
0.0226285
0.0219957
0.0212248
0.0203177
0.0192459
0.0180651
0.0239812
0.0238921
0.0238731
0.0239077
0.0239573
0.0239758
0.0239229
0.0237716
0.0235081
0.0231258
0.022621
0.0219908
0.0212242
0.0203269
0.0192672
0.0181041
0.0239321
0.0238287
0.0237969
0.0238276
0.023882
0.0239106
0.0238688
0.0237267
0.0234688
0.0230892
0.0225854
0.0219568
0.0211941
0.0203055
0.0192603
0.0181171
0.0238785
0.0237666
0.0237247
0.0237503
0.0238055
0.0238391
0.0238034
0.0236662
0.0234109
0.0230319
0.0225279
0.0219
0.0211413
0.0202618
0.0192347
0.0181153
0.0238249
0.0237086
0.0236609
0.0236824
0.0237362
0.0237702
0.0237355
0.0235985
0.0233423
0.0229616
0.0224561
0.0218286
0.0210746
0.0202052
0.0192003
0.0181091
0.0240994
0.0240395
0.0240214
0.0240273
0.024029
0.0239955
0.0238994
0.0237198
0.023442
0.0230543
0.0225452
0.0219009
0.0211027
0.0201353
0.0189758
0.0176607
0.0240909
0.0240172
0.0239936
0.0239996
0.0240065
0.0239809
0.0238928
0.0237202
0.0234477
0.0230638
0.0225577
0.0219172
0.0211225
0.0201626
0.0190061
0.0177051
0.0240544
0.0239609
0.0239309
0.0239436
0.0239667
0.0239602
0.0238894
0.0237296
0.0234656
0.0230876
0.0225862
0.021951
0.0211634
0.0202168
0.0190684
0.0177882
0.0240091
0.0238942
0.0238501
0.0238649
0.0239026
0.0239165
0.0238652
0.0237203
0.0234659
0.0230935
0.0225959
0.0219657
0.021184
0.0202491
0.0191087
0.0178452
0.0239604
0.0238265
0.0237643
0.0237741
0.0238197
0.0238493
0.023815
0.0236841
0.0234392
0.0230724
0.0225781
0.0219513
0.0211742
0.0202491
0.0191193
0.0178739
0.0239083
0.0237601
0.0236811
0.0236826
0.0237304
0.0237697
0.0237476
0.0236274
0.0233896
0.0230266
0.0225341
0.0219094
0.0211366
0.0202213
0.0191075
0.0178855
0.0238552
0.0236965
0.0236049
0.0235983
0.0236449
0.0236884
0.0236729
0.0235586
0.0233243
0.0229624
0.02247
0.0218463
0.0210781
0.0201738
0.0190831
0.0178916
0.0238
0.0236369
0.0235386
0.0235265
0.0235706
0.0236141
0.0235997
0.0234859
0.0232509
0.0228873
0.0223933
0.0217699
0.0210073
0.0201157
0.0190549
0.017901
0.0241266
0.024038
0.0239968
0.0239928
0.0239955
0.0239714
0.0238899
0.0237279
0.0234689
0.0230998
0.0226065
0.0219696
0.0211603
0.0201467
0.018881
0.0173925
0.0241178
0.0240113
0.0239627
0.0239563
0.0239641
0.023949
0.0238775
0.0237245
0.0234729
0.023109
0.022622
0.0219912
0.0211878
0.020185
0.0189228
0.017455
0.0240739
0.0239434
0.0238817
0.0238791
0.0239026
0.0239086
0.0238571
0.02372
0.0234798
0.0231259
0.022644
0.022021
0.0212268
0.0202386
0.0189795
0.0175276
0.0240199
0.0238656
0.0237841
0.0237786
0.0238149
0.0238419
0.0238122
0.0236927
0.0234645
0.0231176
0.0226421
0.0220253
0.0212375
0.02026
0.0190026
0.0175629
0.0239645
0.0237906
0.0236866
0.0236708
0.0237118
0.0237537
0.0237422
0.0236385
0.0234215
0.0230813
0.02261
0.0219968
0.0212134
0.0202449
0.018995
0.0175745
0.0239078
0.02372
0.0235964
0.0235675
0.0236071
0.0236571
0.023658
0.0235657
0.0233567
0.0230206
0.0225509
0.0219392
0.0211597
0.0202017
0.0189699
0.0175808
0.0238493
0.0236531
0.0235155
0.0234756
0.0235108
0.0235632
0.02357
0.0234836
0.0232779
0.0229424
0.0224715
0.0218596
0.0210841
0.0201393
0.0189377
0.0175939
0.0237911
0.0235901
0.0234451
0.0233979
0.0234289
0.0234801
0.023487
0.0234006
0.0231933
0.0228546
0.0223802
0.0217666
0.0209958
0.0200665
0.0189063
0.0176202
0.0241842
0.0240675
0.0240024
0.023987
0.0239909
0.0239781
0.0239153
0.0237769
0.0235451
0.0232051
0.0227399
0.022123
0.0213107
0.0202434
0.0188327
0.0170641
0.0241773
0.0240388
0.0239628
0.0239423
0.0239502
0.023947
0.0238957
0.0237684
0.0235462
0.0232147
0.0227578
0.0221493
0.0213466
0.020292
0.0188877
0.0171423
0.0241288
0.0239633
0.0238679
0.0238465
0.023868
0.0238862
0.0238571
0.0237484
0.0235402
0.0232198
0.0227721
0.0221738
0.0213815
0.0203385
0.0189289
0.0171791
0.0240683
0.0238787
0.0237588
0.0237286
0.023759
0.0237972
0.0237908
0.0237017
0.0235079
0.0231968
0.0227565
0.0221648
0.0213786
0.0203401
0.0189223
0.0171689
0.0240069
0.0237995
0.0236549
0.0236088
0.023639
0.0236893
0.0237007
0.0236281
0.0234463
0.0231429
0.0227069
0.0221181
0.0213352
0.0203019
0.0188875
0.0171528
0.0239452
0.0237261
0.0235616
0.0234977
0.023522
0.0235769
0.0235989
0.0235372
0.0233631
0.0230632
0.0226277
0.0220387
0.0212585
0.0202356
0.018843
0.0171557
0.0238819
0.0236561
0.023478
0.0234014
0.0234166
0.0234705
0.0234959
0.0234385
0.0232665
0.0229652
0.0225261
0.0219339
0.0211565
0.02015
0.0187983
0.0171877
0.0238175
0.0235884
0.023403
0.0233172
0.0233262
0.0233765
0.0234002
0.0233409
0.023165
0.0228575
0.0224111
0.0218133
0.0210381
0.020052
0.0187572
0.0172479
0.024275
0.0241333
0.0240464
0.0240201
0.0240262
0.024027
0.0239866
0.0238776
0.0236812
0.023382
0.0229614
0.0223851
0.0215916
0.0204751
0.0188827
0.0166791
0.0242708
0.0241039
0.0240018
0.0239675
0.023976
0.0239865
0.0239591
0.0238633
0.0236789
0.0233909
0.0229804
0.0224143
0.0216317
0.0205235
0.0189239
0.0166828
0.0242211
0.0240253
0.0238984
0.0238578
0.0238765
0.0239076
0.0239036
0.0238287
0.0236607
0.0233862
0.0229883
0.0224343
0.0216614
0.0205465
0.0189103
0.0165664
0.0241575
0.0239388
0.0237847
0.0237294
0.0237518
0.0238002
0.0238186
0.0237644
0.0236125
0.023349
0.0229601
0.0224129
0.0216442
0.0205165
0.0188482
0.0164291
0.0240926
0.023859
0.0236803
0.0236047
0.0236213
0.0236774
0.0237113
0.023673
0.0235332
0.0232772
0.0228926
0.022347
0.0215802
0.0204475
0.0187758
0.0163478
0.0240268
0.0237848
0.0235881
0.0234922
0.0234976
0.0235531
0.023594
0.0235644
0.0234306
0.0231764
0.0227902
0.0222412
0.0214759
0.0203511
0.0187105
0.0163462
0.0239587
0.0237121
0.0235035
0.0233929
0.0233857
0.0234358
0.0234761
0.0234475
0.0233128
0.0230537
0.0226593
0.0221019
0.0213371
0.0202328
0.0186564
0.0164323
0.023888
0.0236389
0.0234238
0.023303
0.0232867
0.0233299
0.0233651
0.0233313
0.0231889
0.0229183
0.0225099
0.0219389
0.0211713
0.0200956
0.0186123
0.0166075
0.0243982
0.0242357
0.0241306
0.0240965
0.0241074
0.0241248
0.024111
0.0240374
0.0238851
0.0236403
0.0232854
0.0227835
0.0220579
0.0209506
0.0191802
0.0163356
0.0243973
0.0242066
0.0240823
0.0240369
0.0240481
0.024075
0.0240756
0.0240174
0.0238797
0.0236486
0.0233067
0.0228177
0.0221047
0.0209897
0.0191349
0.0159807
0.0243491
0.0241288
0.0239759
0.0239188
0.0239362
0.0239822
0.0240069
0.0239716
0.023853
0.0236385
0.0233133
0.0228412
0.0221408
0.0209967
0.0190249
0.0154599
0.0242857
0.0240445
0.0238634
0.0237872
0.0238034
0.0238631
0.0239089
0.0238945
0.023793
0.0235915
0.0232782
0.0228164
0.022123
0.0209494
0.0189001
0.0150466
0.0242199
0.0239672
0.0237635
0.0236646
0.0236698
0.0237322
0.0237899
0.0237897
0.0236995
0.0235052
0.0231963
0.0227364
0.0220469
0.0208599
0.0188008
0.0148299
0.0241518
0.0238937
0.0236755
0.0235555
0.0235452
0.0236015
0.0236612
0.0236659
0.0235788
0.0233831
0.0230694
0.0226024
0.0219138
0.0207314
0.0187259
0.0147987
0.0240791
0.0238183
0.023591
0.023456
0.0234301
0.0234759
0.0235298
0.0235305
0.0234376
0.0232311
0.0229022
0.0224169
0.0217231
0.0205589
0.0186657
0.0149503
0.0240012
0.0237387
0.0235058
0.0233602
0.0233224
0.0233573
0.0234014
0.0233918
0.0232852
0.0230591
0.0227047
0.0221889
0.021476
0.0203297
0.0186096
0.0153364
0.0245495
0.0243704
0.0242516
0.0242138
0.024233
0.0242707
0.0242879
0.0242554
0.0241556
0.0239784
0.0237127
0.0233299
0.0227624
0.0218484
0.020213
0.017026
0.0245524
0.0243424
0.0242009
0.0241482
0.0241655
0.0242124
0.0242453
0.0242305
0.0241482
0.023988
0.0237389
0.0233747
0.0228283
0.0219168
0.0201362
0.0162214
0.0245077
0.0242681
0.0240954
0.0240267
0.0240466
0.0241109
0.0241685
0.0241787
0.0241184
0.0239786
0.0237522
0.0234156
0.0228997
0.0219825
0.02004
0.0153357
0.024447
0.0241889
0.0239887
0.0238982
0.0239127
0.0239873
0.0240642
0.0240952
0.024053
0.0239288
0.0237191
0.0234021
0.0229096
0.0219884
0.0199636
0.0147319
0.0243825
0.024116
0.0238965
0.023783
0.0237828
0.0238553
0.0239401
0.0239827
0.0239506
0.0238329
0.0236286
0.0233177
0.0228388
0.0219238
0.0199108
0.0144396
0.0243132
0.0240439
0.023814
0.0236807
0.0236622
0.0237234
0.0238047
0.0238475
0.0238142
0.0236911
0.0234778
0.0231558
0.0226774
0.0217731
0.0198477
0.0143748
0.0242362
0.0239658
0.0237299
0.0235825
0.0235463
0.0235922
0.0236618
0.0236942
0.0236484
0.0235063
0.0232672
0.0229122
0.0224126
0.0215063
0.0197335
0.0144619
0.0241505
0.0238789
0.0236383
0.0234802
0.0234297
0.0234602
0.0235142
0.0235296
0.0234619
0.0232889
0.0230074
0.0225925
0.0220319
0.0210587
0.0194899
0.0146274
0.0242224
0.0239418
0.0236954
0.0235274
0.0234624
0.0234789
0.0235247
0.0235387
0.0234743
0.0233065
0.0230319
0.0226223
0.022075
0.0211074
0.0195955
0.0147889
0.024117
0.0238331
0.023581
0.0234076
0.0233362
0.0233419
0.0233693
0.0233556
0.0232532
0.0230342
0.0226882
0.0221776
0.021474
0.0203253
0.0186057
0.0153304
0.0240224
0.0237343
0.0234785
0.0233059
0.0232363
0.0232381
0.0232516
0.0232136
0.023077
0.0228155
0.0224155
0.0218496
0.0210819
0.0200015
0.0184824
0.0164919
0.023951
0.0236609
0.0234082
0.0232462
0.0231865
0.0231893
0.0231913
0.0231307
0.0229638
0.0226683
0.0222316
0.0216416
0.0208644
0.0198809
0.0185559
0.0170601
0.0239126
0.0236275
0.0233896
0.0232484
0.0232025
0.0232055
0.0231936
0.0231092
0.0229141
0.0225903
0.0221284
0.0215266
0.0207581
0.0198388
0.0186647
0.0173854
0.0239095
0.0236414
0.0234319
0.023316
0.0232803
0.0232765
0.023245
0.0231349
0.0229138
0.0225673
0.0220886
0.0214808
0.0207261
0.0198493
0.0187885
0.0176419
0.0239258
0.0236904
0.0235178
0.0234279
0.0233987
0.0233844
0.0233323
0.0231993
0.0229582
0.0225969
0.0221104
0.0215023
0.0207621
0.0199109
0.018915
0.0178343
0.0239198
0.0237242
0.0235854
0.0235208
0.023504
0.0234893
0.0234291
0.0232857
0.0230359
0.0226698
0.0221837
0.0215792
0.020849
0.0200064
0.0190269
0.0179536
0.0243997
0.0241138
0.0238695
0.0237065
0.0236453
0.0236674
0.0237252
0.02376
0.0237262
0.0235992
0.0233782
0.0230374
0.0225686
0.0216654
0.0200008
0.0146553
0.0242792
0.0239888
0.0237362
0.0235632
0.0234911
0.0234979
0.0235321
0.0235327
0.0234513
0.023259
0.0229453
0.0224678
0.0217889
0.0206039
0.0187065
0.0148927
0.0241677
0.023872
0.0236116
0.0234339
0.023359
0.0233588
0.0233764
0.0233486
0.0232266
0.0229817
0.022599
0.022045
0.0212765
0.0201487
0.0185107
0.0162668
0.0240806
0.0237807
0.0235185
0.0233463
0.0232783
0.0232783
0.0232842
0.0232324
0.0230765
0.0227917
0.0223636
0.0217764
0.0209897
0.0199738
0.0185674
0.0169586
0.0240286
0.0237313
0.0234798
0.0233252
0.0232706
0.0232722
0.0232656
0.0231902
0.0230044
0.022688
0.0222297
0.0216268
0.020846
0.0199038
0.01867
0.0173227
0.024015
0.0237331
0.0235077
0.0233786
0.0233361
0.0233334
0.0233089
0.0232081
0.022995
0.0226537
0.0221759
0.0215649
0.0207976
0.0199025
0.018799
0.0176052
0.0240246
0.0237749
0.0235875
0.0234873
0.0234548
0.0234441
0.0233999
0.0232757
0.0230416
0.0226841
0.0221976
0.0215856
0.0208341
0.0199676
0.0189401
0.0178229
0.0240151
0.0238069
0.0236567
0.0235854
0.0235682
0.023559
0.0235071
0.023372
0.0231287
0.0227661
0.0222801
0.0216725
0.0209331
0.0200768
0.0190697
0.0179622
0.0245797
0.0242891
0.024049
0.0238961
0.0238455
0.0238792
0.0239522
0.0240085
0.0240029
0.0239106
0.0237306
0.0234336
0.0229976
0.0220768
0.0202433
0.014439
0.0244436
0.0241482
0.0238974
0.0237303
0.0236639
0.0236772
0.0237211
0.0237361
0.0236735
0.0235033
0.0232135
0.0227551
0.0220799
0.0208388
0.0187846
0.0145954
0.0243157
0.0240138
0.0237519
0.0235745
0.0235001
0.0235022
0.0235259
0.023508
0.0233985
0.0231667
0.022796
0.0222467
0.0214685
0.0202883
0.0185408
0.0160924
0.0242127
0.0239051
0.0236373
0.02346
0.0233884
0.0233887
0.0233995
0.0233559
0.0232091
0.0229323
0.0225093
0.0219209
0.0211208
0.0200692
0.0185864
0.0168759
0.0241471
0.0238403
0.0235792
0.0234158
0.023356
0.0233581
0.0233572
0.0232899
0.0231117
0.0228006
0.0223438
0.0217374
0.0209427
0.019976
0.0186869
0.0172777
0.0241231
0.0238302
0.0235929
0.0234541
0.0234074
0.0234069
0.0233892
0.0232967
0.0230905
0.0227529
0.0222746
0.0216589
0.0208783
0.0199644
0.0188213
0.0175838
0.024126
0.0238646
0.0236661
0.0235584
0.0235242
0.0235176
0.0234812
0.0233652
0.0231371
0.0227824
0.0222946
0.0216778
0.0209145
0.0200326
0.0189753
0.0178234
0.0241131
0.0238951
0.0237364
0.0236606
0.0236446
0.0236413
0.0235977
0.0234705
0.0232327
0.0228726
0.0223857
0.0217739
0.0210246
0.0201545
0.0191211
0.017981
0.0247499
0.0244559
0.0242206
0.0240801
0.0240439
0.0240925
0.0241826
0.0242596
0.0242783
0.024213
0.0240605
0.0237855
0.0233526
0.0223813
0.0203814
0.0141935
0.0245996
0.0243004
0.0240523
0.0238938
0.023837
0.0238602
0.0239157
0.0239446
0.023898
0.0237443
0.0234695
0.0230179
0.0223314
0.021028
0.0188342
0.0143615
0.0244569
0.0241498
0.0238879
0.0237141
0.023644
0.0236516
0.0236828
0.0236745
0.0235752
0.0233528
0.0229885
0.0224373
0.0216428
0.0204105
0.0185659
0.0159571
0.0243383
0.0240249
0.0237539
0.0235751
0.0235035
0.0235064
0.023523
0.023487
0.0233476
0.0230762
0.022655
0.0220617
0.0212455
0.0201584
0.0186078
0.0168117
0.0242601
0.023946
0.0236783
0.0235096
0.0234475
0.0234517
0.0234566
0.0233967
0.0232247
0.0229172
0.0224599
0.0218479
0.0210385
0.0200476
0.0187099
0.017247
0.0242264
0.0239249
0.023679
0.0235337
0.0234847
0.0234871
0.0234761
0.0233911
0.0231906
0.0228555
0.0223756
0.0217542
0.0209604
0.0200284
0.0188502
0.017574
0.0242233
0.0239527
0.0237458
0.0236329
0.0235985
0.0235965
0.0235674
0.0234588
0.0232358
0.0228831
0.0223932
0.021771
0.0209962
0.0200993
0.0190152
0.0178322
0.0242074
0.0239818
0.0238169
0.0237386
0.0237247
0.0237276
0.0236919
0.0235719
0.0233389
0.0229804
0.0224918
0.0218751
0.0211159
0.0202322
0.0191748
0.0180052
0.0248999
0.0246036
0.0243729
0.0242446
0.0242234
0.0242877
0.0243946
0.02449
0.0245282
0.0244821
0.024346
0.0240781
0.0236322
0.022601
0.020455
0.0139624
0.0247374
0.0244353
0.0241902
0.0240407
0.0239948
0.0240291
0.0240963
0.0241378
0.024104
0.0239615
0.0236944
0.0232409
0.0225355
0.0211711
0.0188599
0.0141716
0.0245814
0.0242706
0.0240095
0.0238406
0.0237766
0.0237911
0.0238302
0.0238305
0.0237393
0.0235227
0.0231605
0.022603
0.0217893
0.020509
0.0185834
0.0158527
0.0244501
0.0241319
0.0238591
0.0236808
0.0236112
0.0236181
0.0236406
0.0236113
0.0234776
0.0232093
0.0227875
0.0221872
0.0213542
0.0202347
0.0186275
0.0167633
0.0243605
0.0240408
0.0237687
0.0235971
0.0235346
0.0235416
0.0235522
0.0234986
0.0233316
0.0230261
0.0225669
0.0219486
0.0211249
0.0201119
0.0187335
0.0172265
0.0243182
0.0240103
0.0237582
0.0236086
0.0235588
0.0235644
0.0235596
0.0234811
0.0232852
0.0229517
0.0224694
0.0218421
0.0210361
0.0200876
0.0188799
0.0175713
0.0243102
0.0240323
0.0238193
0.0237031
0.0236692
0.0236717
0.0236493
0.0235471
0.0233284
0.0229768
0.0224847
0.021857
0.0210717
0.0201613
0.0190543
0.0178447
0.0242914
0.0240602
0.023891
0.0238114
0.0238002
0.0238089
0.0237804
0.0236668
0.0234377
0.0230803
0.0225895
0.0219679
0.0211993
0.0203033
0.0192251
0.01803
0.0250209
0.0247231
0.0244963
0.0243785
0.0243709
0.0244493
0.0245707
0.0246809
0.0247338
0.0247003
0.0245726
0.0243037
0.0238392
0.0227535
0.0204944
0.0137783
0.0248486
0.0245445
0.0243022
0.0241607
0.0241251
0.0241698
0.0242475
0.0242993
0.0242748
0.0241393
0.023875
0.0234154
0.0226897
0.0212732
0.0188719
0.0140288
0.024682
0.0243687
0.0241087
0.0239447
0.023887
0.0239083
0.0239547
0.0239619
0.0238766
0.0236633
0.0233006
0.022735
0.0219029
0.0205828
0.0185949
0.0157772
0.0245405
0.024219
0.0239454
0.0237686
0.0237018
0.0237129
0.0237408
0.0237169
0.0235874
0.0233207
0.0228968
0.0222891
0.0214409
0.0202947
0.0186439
0.0167298
0.0244419
0.0241182
0.0238434
0.0236705
0.0236086
0.0236187
0.0236341
0.0235857
0.0234223
0.0231178
0.0226563
0.0220317
0.0211958
0.0201645
0.0187547
0.0172141
0.0243927
0.0240803
0.023824
0.0236718
0.0236221
0.0236309
0.0236312
0.0235579
0.0233656
0.0230329
0.0225482
0.0219155
0.0210993
0.0201372
0.0189065
0.0175727
0.0243806
0.0240978
0.0238806
0.0237624
0.0237295
0.0237359
0.0237191
0.0236221
0.0234067
0.0230558
0.0225614
0.0219288
0.0211347
0.0202131
0.0190882
0.0178576
0.0243603
0.0241247
0.0239527
0.0238727
0.023864
0.0238777
0.0238553
0.0237468
0.0235208
0.0231639
0.022671
0.0220449
0.0212685
0.0203621
0.0192674
0.0180521
0.0251055
0.0248071
0.0245832
0.0244734
0.0244766
0.0245666
0.0246997
0.0248213
0.0248844
0.0248589
0.0247349
0.0244625
0.0239818
0.0228568
0.0205219
0.0136635
0.0249265
0.0246214
0.0243812
0.0242461
0.024219
0.0242727
0.0243591
0.024419
0.0244013
0.0242701
0.0240062
0.0235403
0.022798
0.0213438
0.0188808
0.0139383
0.0247526
0.0244379
0.024179
0.0240192
0.0239674
0.0239951
0.0240478
0.0240608
0.0239797
0.0237682
0.0234039
0.0228312
0.0219844
0.0206351
0.0186046
0.0157316
0.0246039
0.0242806
0.0240069
0.0238321
0.0237687
0.0237842
0.0238169
0.0237975
0.0236711
0.023405
0.0229789
0.0223648
0.0215049
0.0203393
0.0186593
0.0167131
0.024499
0.0241731
0.0238971
0.0237245
0.0236643
0.0236776
0.0236973
0.0236529
0.0234921
0.023188
0.0227243
0.0220945
0.0212493
0.020205
0.0187741
0.0172108
0.0244452
0.0241303
0.023872
0.0237191
0.0236704
0.0236822
0.0236866
0.0236173
0.0234273
0.0230949
0.0226082
0.0219712
0.0211474
0.0201754
0.018929
0.0175776
0.0244303
0.0241447
0.0239254
0.0238067
0.0237753
0.0237849
0.0237723
0.023679
0.0234659
0.0231152
0.0226189
0.0219826
0.021182
0.0202522
0.0191148
0.0178694
0.024409
0.0241709
0.0239974
0.0239176
0.0239111
0.0239286
0.0239105
0.0238057
0.0235818
0.0232251
0.0227305
0.0221009
0.0213187
0.0204047