/*--------------------------------*- C++ -*----------------------------------*\
| =========                 |                                                 |
| \\      /  F ield         | foam-extend: Open Source CFD                    |
|  \\    /   O peration     | Version:     3.1                                |
|   \\  /    A nd           | Web:         http://www.extend-project.de       |
|    \\/     M anipulation  |                                                 |
\*---------------------------------------------------------------------------*/
FoamFile
{
    version     2.0;
    format      ascii;
    class       pointVectorField;
    location    "1.9";
    object      pointMotionU;
}
// * * * * * * * * * * * * * * * * * * * * * * * * * * * * * * * * * * * * * //

dimensions      [0 1 -1 0 0 0 0];

internalField   nonuniform List<vector> 
16859
(
(0 0 0)
(0 0 0)
(0 0 0)
(0 0 0)
(0 0 0)
(0 0 0)
(0 0 0)
(0 0 0)
(0 0 0)
(0 0 0)
(0 0 0)
(0 0 0)
(0 0 0)
(0 0 0)
(0 0 0)
(0 0 0)
(0 0 0)
(0 0 0)
(-3.59962e-11 -2.63923e-12 2.27158e-12)
(-6.95868e-11 -5.24512e-12 4.5385e-12)
(-1.0075e-10 -7.95476e-12 6.9342e-12)
(-1.30547e-10 -1.09982e-11 9.65802e-12)
(-1.59976e-10 -1.46439e-11 1.29201e-11)
(-1.90037e-10 -1.9238e-11 1.69599e-11)
(-2.21782e-10 -2.52582e-11 2.20631e-11)
(-2.56372e-10 -3.33907e-11 2.85761e-11)
(-2.95113e-10 -4.46427e-11 3.69107e-11)
(-3.39461e-10 -6.05061e-11 4.75195e-11)
(-3.90963e-10 -8.31825e-11 6.07944e-11)
(-4.51025e-10 -1.15834e-10 7.67735e-11)
(-5.203e-10 -1.62589e-10 9.4426e-11)
(-5.97056e-10 -2.2693e-10 1.10226e-10)
(-6.72105e-10 -3.01335e-10 1.16802e-10)
(-9.20639e-10 -7.08711e-10 -5.10305e-11)
(0 0 0)
(-7.11934e-11 -5.11421e-12 4.44653e-12)
(-1.37589e-10 -1.01531e-11 8.87836e-12)
(-1.99112e-10 -1.53703e-11 1.35511e-11)
(-2.57824e-10 -2.11947e-11 1.88477e-11)
(-3.15653e-10 -2.81184e-11 2.51697e-11)
(-3.74512e-10 -3.67653e-11 3.29715e-11)
(-4.36398e-10 -4.79795e-11 4.27936e-11)
(-5.03488e-10 -6.2947e-11 5.52924e-11)
(-5.78201e-10 -8.33615e-11 7.12579e-11)
(-6.63186e-10 -1.11639e-10 9.15952e-11)
(-7.61165e-10 -1.51152e-10 1.1721e-10)
(-8.74405e-10 -2.06314e-10 1.4867e-10)
(-1.00334e-09 -2.81865e-10 1.85378e-10)
(-1.14317e-09 -3.79084e-10 2.23943e-10)
(-1.27586e-09 -4.80484e-10 2.55679e-10)
(-1.5407e-09 -7.58228e-10 3.32861e-10)
(0 0 0)
(-1.04875e-10 -7.28332e-12 6.43984e-12)
(-2.0259e-10 -1.44351e-11 1.28452e-11)
(-2.92955e-10 -2.17896e-11 1.95725e-11)
(-3.78922e-10 -2.99201e-11 2.71598e-11)
(-4.63225e-10 -3.9467e-11 3.61644e-11)
(-5.48536e-10 -5.12183e-11 4.72107e-11)
(-6.37606e-10 -6.6206e-11 6.10345e-11)
(-7.33375e-10 -8.58263e-11 7.85259e-11)
(-8.39037e-10 -1.11984e-10 1.00764e-10)
(-9.58003e-10 -1.47233e-10 1.29029e-10)
(-1.09362e-09 -1.9483e-10 1.64737e-10)
(-1.24842e-09 -2.58417e-10 2.09204e-10)
(-1.42216e-09 -3.40587e-10 2.62979e-10)
(-1.60751e-09 -4.38309e-10 3.24113e-10)
(-1.78149e-09 -5.29706e-10 3.83572e-10)
(-2.15021e-09 -7.90059e-10 5.21647e-10)
(0 0 0)
(-1.36397e-10 -9.03858e-12 8.18236e-12)
(-2.63328e-10 -1.7875e-11 1.6298e-11)
(-3.80405e-10 -2.68811e-11 2.47764e-11)
(-4.91325e-10 -3.67095e-11 3.42715e-11)
(-5.99462e-10 -4.80629e-11 4.54505e-11)
(-7.08056e-10 -6.177e-11 5.90466e-11)
(-8.20369e-10 -7.88655e-11 7.59097e-11)
(-9.39795e-10 -1.00675e-10 9.70527e-11)
(-1.06991e-09 -1.28886e-10 1.23695e-10)
(-1.2144e-09 -1.65565e-10 1.57293e-10)
(-1.37668e-09 -2.12984e-10 1.99525e-10)
(-1.559e-09 -2.73017e-10 2.52144e-10)
(-1.76035e-09 -3.45546e-10 3.16425e-10)
(-1.97202e-09 -4.24859e-10 3.91203e-10)
(-2.1696e-09 -4.91765e-10 4.66509e-10)
(-2.58239e-09 -6.68492e-10 6.59177e-10)
(0 0 0)
(-1.65237e-10 -1.0315e-11 9.62673e-12)
(-3.18786e-10 -2.03477e-11 1.91418e-11)
(-4.59978e-10 -3.04664e-11 2.90158e-11)
(-5.93082e-10 -4.13408e-11 3.99757e-11)
(-7.21933e-10 -5.36591e-11 5.27464e-11)
(-8.50132e-10 -6.81882e-11 6.81043e-11)
(-9.81201e-10 -8.58258e-11 8.69222e-11)
(-1.11869e-09 -1.07635e-10 1.10209e-10)
(-1.26617e-09 -1.34841e-10 1.39142e-10)
(-1.42714e-09 -1.68729e-10 1.75081e-10)
(-1.6046e-09 -2.1034e-10 2.1955e-10)
(-1.80006e-09 -2.59794e-10 2.74115e-10)
(-2.0115e-09 -3.14995e-10 3.39898e-10)
(-2.2292e-09 -3.69544e-10 4.15797e-10)
(-2.42899e-09 -4.09821e-10 4.92312e-10)
(-2.84439e-09 -5.16397e-10 7.04004e-10)
(0 0 0)
(-1.91001e-10 -1.10902e-11 1.07495e-11)
(-3.68214e-10 -2.18175e-11 2.13312e-11)
(-5.30608e-10 -3.25143e-11 3.22256e-11)
(-6.82849e-10 -4.38173e-11 4.41896e-11)
(-8.29054e-10 -5.63463e-11 5.79569e-11)
(-9.7299e-10 -7.07439e-11 7.42846e-11)
(-1.11822e-09 -8.76989e-11 9.39867e-11)
(-1.26818e-09 -1.07942e-10 1.17953e-10)
(-1.42615e-09 -1.32187e-10 1.47152e-10)
(-1.59513e-09 -1.60977e-10 1.82594e-10)
(-1.77733e-09 -1.94367e-10 2.25247e-10)
(-1.97327e-09 -2.31373e-10 2.75823e-10)
(-2.17982e-09 -2.69181e-10 3.34258e-10)
(-2.3865e-09 -3.02452e-10 3.98295e-10)
(-2.57041e-09 -3.23675e-10 4.5926e-10)
(-2.93792e-09 -3.87377e-10 6.35668e-10)
(0 0 0)
(-2.13433e-10 -1.13783e-11 1.15508e-11)
(-4.1114e-10 -2.23236e-11 2.28697e-11)
(-5.91659e-10 -3.31118e-11 3.44196e-11)
(-7.5989e-10 -4.43153e-11 4.69496e-11)
(-9.2007e-10 -5.64572e-11 6.1161e-11)
(-1.07597e-09 -7.00342e-11 7.77434e-11)
(-1.23101e-09 -8.55214e-11 9.73923e-11)
(-1.38835e-09 -1.03345e-10 1.20804e-10)
(-1.55081e-09 -1.2381e-10 1.48636e-10)
(-1.72069e-09 -1.46957e-10 1.81417e-10)
(-1.89934e-09 -1.72331e-10 2.19358e-10)
(-2.08637e-09 -1.98662e-10 2.61998e-10)
(-2.27798e-09 -2.23612e-10 3.07528e-10)
(-2.46414e-09 -2.44008e-10 3.51503e-10)
(-2.62529e-09 -2.57471e-10 3.84766e-10)
(-2.88978e-09 -3.33282e-10 4.4512e-10)
(0 0 0)
(-2.32395e-10 -1.12199e-11 1.20507e-11)
(-4.47332e-10 -2.19571e-11 2.38025e-11)
(-6.42876e-10 -3.2424e-11 3.56787e-11)
(-8.24008e-10 -4.3114e-11 4.83907e-11)
(-9.94948e-10 -5.44476e-11 6.25781e-11)
(-1.15935e-09 -6.67869e-11 7.88332e-11)
(-1.32039e-09 -8.04308e-11 9.7704e-11)
(-1.48086e-09 -9.55851e-11 1.19667e-10)
(-1.64303e-09 -1.12305e-10 1.45059e-10)
(-1.80854e-09 -1.30406e-10 1.73942e-10)
(-1.97798e-09 -1.49347e-10 2.05863e-10)
(-2.15026e-09 -1.68136e-10 2.39424e-10)
(-2.32146e-09 -1.85401e-10 2.71563e-10)
(-2.48316e-09 -1.99817e-10 2.96432e-10)
(-2.62247e-09 -2.11014e-10 3.03993e-10)
(-2.88766e-09 -3.20495e-10 1.72903e-10)
(0 0 0)
(0 0 0)
(0 0 0)
(0 0 0)
(0 0 0)
(0 0 0)
(0 0 0)
(0 0 0)
(0 0 0)
(0 0 0)
(0 0 0)
(0 0 0)
(0 0 0)
(0 0 0)
(0 0 0)
(0 0 0)
(0 0 0)
(0 0 0)
(-3.6238e-11 -2.63056e-12 2.22472e-12)
(-7.00485e-11 -5.23257e-12 4.44596e-12)
(-1.01413e-10 -7.94935e-12 6.79635e-12)
(-1.3141e-10 -1.10213e-11 9.4743e-12)
(-1.61055e-10 -1.4735e-11 1.26907e-11)
(-1.91366e-10 -1.94693e-11 1.66881e-11)
(-2.23422e-10 -2.57602e-11 2.17592e-11)
(-2.58413e-10 -3.43983e-11 2.8263e-11)
(-2.97679e-10 -4.65783e-11 3.66331e-11)
(-3.42712e-10 -6.41311e-11 4.73573e-11)
(-3.95082e-10 -8.98798e-11 6.08838e-11)
(-4.56178e-10 -1.28144e-10 7.73435e-11)
(-5.26568e-10 -1.85222e-10 9.58594e-11)
(-6.0424e-10 -2.68271e-10 1.13141e-10)
(-6.77516e-10 -3.72032e-10 1.2223e-10)
(-8.52737e-10 -7.66532e-10 6.23737e-11)
(0 0 0)
(-7.16602e-11 -5.09115e-12 4.35425e-12)
(-1.38479e-10 -1.01151e-11 8.6961e-12)
(-2.00384e-10 -1.53358e-11 1.32795e-11)
(-2.59469e-10 -2.11991e-11 1.84857e-11)
(-3.17692e-10 -2.82276e-11 2.47171e-11)
(-3.77e-10 -3.71001e-11 3.24343e-11)
(-4.39432e-10 -4.8758e-11 4.21907e-11)
(-5.0721e-10 -6.45603e-11 5.46665e-11)
(-5.82802e-10 -8.65063e-11 7.06919e-11)
(-6.68897e-10 -1.17552e-10 9.1237e-11)
(-7.68194e-10 -1.62019e-10 1.1731e-10)
(-8.82769e-10 -2.25994e-10 1.49643e-10)
(-1.01244e-09 -3.17079e-10 1.87914e-10)
(-1.15066e-09 -4.40793e-10 2.29123e-10)
(-1.27275e-09 -5.81335e-10 2.64402e-10)
(-1.4148e-09 -8.84975e-10 3.43153e-10)
(0 0 0)
(-1.05537e-10 -7.23606e-12 6.30493e-12)
(-2.03845e-10 -1.43496e-11 1.25787e-11)
(-2.94737e-10 -2.16855e-11 1.91755e-11)
(-3.81204e-10 -2.98348e-11 2.663e-11)
(-4.66015e-10 -3.94712e-11 3.55014e-11)
(-5.51884e-10 -5.14426e-11 4.64215e-11)
(-6.41601e-10 -6.68876e-11 6.01437e-11)
(-7.3815e-10 -8.73896e-11 7.75903e-11)
(-8.4476e-10 -1.15176e-10 9.9895e-11)
(-9.64841e-10 -1.53355e-10 1.28422e-10)
(-1.10163e-09 -2.06108e-10 1.6472e-10)
(-1.25719e-09 -2.78595e-10 2.1031e-10)
(-1.43008e-09 -3.75756e-10 2.66051e-10)
(-1.60981e-09 -4.9758e-10 3.30357e-10)
(-1.76328e-09 -6.2295e-10 3.92938e-10)
(-1.9641e-09 -8.57843e-10 5.20571e-10)
(0 0 0)
(-1.37214e-10 -8.95611e-12 8.00884e-12)
(-2.64867e-10 -1.77172e-11 1.59553e-11)
(-3.8257e-10 -2.66618e-11 2.42656e-11)
(-4.94057e-10 -3.64548e-11 3.35896e-11)
(-6.02739e-10 -4.7825e-11 4.45955e-11)
(-7.11888e-10 -6.16487e-11 5.80255e-11)
(-8.24791e-10 -7.90473e-11 7.47493e-11)
(-9.44862e-10 -1.01497e-10 9.58171e-11)
(-1.07567e-09 -1.30941e-10 1.2251e-10)
(-1.22082e-09 -1.69861e-10 1.56382e-10)
(-1.38351e-09 -2.21198e-10 1.99257e-10)
(-1.56534e-09 -2.87839e-10 2.53108e-10)
(-1.76374e-09 -3.71104e-10 3.19525e-10)
(-1.96626e-09 -4.66994e-10 3.97623e-10)
(-2.13702e-09 -5.57102e-10 4.75501e-10)
(-2.35709e-09 -6.92649e-10 6.32811e-10)
(0 0 0)
(-1.66163e-10 -1.0188e-11 9.41964e-12)
(-3.20519e-10 -2.00966e-11 1.87328e-11)
(-4.62384e-10 -3.00935e-11 2.84062e-11)
(-5.96062e-10 -4.08502e-11 3.91613e-11)
(-7.25414e-10 -5.30656e-11 5.17236e-11)
(-8.54056e-10 -6.75307e-11 6.68781e-11)
(-9.85511e-10 -8.519e-11 8.55183e-11)
(-1.1233e-09 -1.07191e-10 1.08692e-10)
(-1.27092e-09 -1.34897e-10 1.37639e-10)
(-1.43172e-09 -1.69811e-10 1.73819e-10)
(-1.60833e-09 -2.13301e-10 2.18907e-10)
(-1.80151e-09 -2.65926e-10 2.74694e-10)
(-2.00757e-09 -3.26135e-10 3.42636e-10)
(-2.21305e-09 -3.88115e-10 4.2197e-10)
(-2.3826e-09 -4.38951e-10 5.01362e-10)
(-2.58915e-09 -4.84176e-10 6.68958e-10)
(0 0 0)
(-1.91992e-10 -1.09137e-11 1.05146e-11)
(-3.70051e-10 -2.14618e-11 2.08673e-11)
(-5.33118e-10 -3.19668e-11 3.15341e-11)
(-6.85885e-10 -4.30546e-11 4.32654e-11)
(-8.32479e-10 -5.53365e-11 5.67944e-11)
(-9.76661e-10 -6.94508e-11 7.28858e-11)
(-1.12196e-09 -8.60887e-11 9.2373e-11)
(-1.27172e-09 -1.05991e-10 1.16182e-10)
(-1.42911e-09 -1.29896e-10 1.4534e-10)
(-1.59683e-09 -1.58379e-10 1.8095e-10)
(-1.77666e-09 -1.91525e-10 2.24119e-10)
(-1.96826e-09 -2.28339e-10 2.75765e-10)
(-2.16683e-09 -2.65884e-10 3.36161e-10)
(-2.35845e-09 -2.98514e-10 4.03501e-10)
(-2.51039e-09 -3.18838e-10 4.68207e-10)
(-2.67802e-09 -2.9302e-10 6.11368e-10)
(0 0 0)
(-2.14446e-10 -1.11533e-11 1.1294e-11)
(-4.12997e-10 -2.18651e-11 2.23629e-11)
(-5.9415e-10 -3.23922e-11 3.36643e-11)
(-7.62816e-10 -4.32833e-11 4.594e-11)
(-9.23227e-10 -5.50352e-11 5.98895e-11)
(-1.07912e-09 -6.81153e-11 7.62086e-11)
(-1.23386e-09 -8.29623e-11 9.56093e-11)
(-1.39046e-09 -9.99564e-11 1.18819e-10)
(-1.55154e-09 -1.19343e-10 1.46545e-10)
(-1.71907e-09 -1.41077e-10 1.79391e-10)
(-1.8939e-09 -1.64573e-10 2.17673e-10)
(-2.07472e-09 -1.88341e-10 2.61082e-10)
(-2.25621e-09 -2.09639e-10 3.08046e-10)
(-2.42539e-09 -2.24539e-10 3.54529e-10)
(-2.55433e-09 -2.29845e-10 3.91691e-10)
(-2.64677e-09 -1.79549e-10 4.52696e-10)
(0 0 0)
(-2.33393e-10 -1.09538e-11 1.17782e-11)
(-4.49141e-10 -2.14114e-11 2.32648e-11)
(-6.45251e-10 -3.15588e-11 3.48778e-11)
(-8.26701e-10 -4.18544e-11 4.73204e-11)
(-9.97691e-10 -5.26801e-11 6.12294e-11)
(-1.16182e-09 -6.43504e-11 7.72013e-11)
(-1.32219e-09 -7.71034e-11 9.57971e-11)
(-1.4814e-09 -9.10683e-11 1.17518e-10)
(-1.6415e-09 -1.06204e-10 1.42739e-10)
(-1.80377e-09 -1.22205e-10 1.71575e-10)
(-1.96829e-09 -1.38389e-10 2.03635e-10)
(-2.13318e-09 -1.53603e-10 2.37584e-10)
(-2.29338e-09 -1.66282e-10 2.70402e-10)
(-2.43853e-09 -1.74825e-10 2.96235e-10)
(-2.55104e-09 -1.78442e-10 3.04984e-10)
(-2.65774e-09 -1.38187e-10 2.27992e-10)
(0 0 0)
(0 0 0)
(0 0 0)
(0 0 0)
(0 0 0)
(0 0 0)
(0 0 0)
(0 0 0)
(0 0 0)
(0 0 0)
(0 0 0)
(0 0 0)
(0 0 0)
(0 0 0)
(0 0 0)
(0 0 0)
(0 0 0)
(0 0 0)
(-3.6398e-11 -2.60079e-12 2.09429e-12)
(-7.03485e-11 -5.17514e-12 4.18639e-12)
(-1.01828e-10 -7.86794e-12 6.40271e-12)
(-1.31915e-10 -1.09229e-11 8.93228e-12)
(-1.61627e-10 -1.46351e-11 1.19769e-11)
(-1.91979e-10 -1.94007e-11 1.57697e-11)
(-2.2404e-10 -2.5789e-11 2.05926e-11)
(-2.58984e-10 -3.46517e-11 2.67914e-11)
(-2.98115e-10 -4.72917e-11 3.47821e-11)
(-3.42851e-10 -6.572e-11 4.50294e-11)
(-3.94603e-10 -9.30324e-11 5.79588e-11)
(-4.54422e-10 -1.3387e-10 7.37163e-11)
(-5.22175e-10 -1.94581e-10 9.16342e-11)
(-5.94632e-10 -2.81038e-10 1.093e-10)
(-6.5967e-10 -3.84329e-10 1.21786e-10)
(-8.27983e-10 -7.53094e-10 1.15359e-10)
(0 0 0)
(-7.19669e-11 -5.02719e-12 4.09849e-12)
(-1.39051e-10 -9.99019e-12 8.18738e-12)
(-2.0117e-10 -1.51543e-11 1.25086e-11)
(-2.60416e-10 -2.09691e-11 1.74253e-11)
(-3.18746e-10 -2.79693e-11 2.33226e-11)
(-3.78096e-10 -3.68596e-11 3.06429e-11)
(-4.40482e-10 -4.86333e-11 3.9919e-11)
(-5.08086e-10 -6.47444e-11 5.18051e-11)
(-5.83293e-10 -8.73595e-11 6.70945e-11)
(-6.68629e-10 -1.19708e-10 8.66988e-11)
(-7.66459e-10 -1.66514e-10 1.11532e-10)
(-8.78141e-10 -2.34279e-10 1.4218e-10)
(-1.00203e-09 -3.30513e-10 1.78143e-10)
(-1.12909e-09 -4.58572e-10 2.16375e-10)
(-1.23389e-09 -5.97559e-10 2.4879e-10)
(-1.33787e-09 -8.65901e-10 3.07484e-10)
(0 0 0)
(-1.05966e-10 -7.13063e-12 5.93352e-12)
(-2.0464e-10 -1.41406e-11 1.18405e-11)
(-2.95815e-10 -2.13729e-11 1.80583e-11)
(-3.82477e-10 -2.94179e-11 2.50961e-11)
(-4.67387e-10 -3.89573e-11 3.34885e-11)
(-5.53232e-10 -5.08603e-11 4.38427e-11)
(-6.4276e-10 -6.63115e-11 5.68835e-11)
(-7.38872e-10 -8.69824e-11 7.34969e-11)
(-8.44654e-10 -1.15256e-10 9.47611e-11)
(-9.63251e-10 -1.54488e-10 1.21944e-10)
(-1.09738e-09 -2.09205e-10 1.56403e-10)
(-1.24809e-09 -2.84862e-10 1.99259e-10)
(-1.41188e-09 -3.86071e-10 2.5055e-10)
(-1.57493e-09 -5.1045e-10 3.07185e-10)
(-1.7035e-09 -6.32249e-10 3.58123e-10)
(-1.84143e-09 -8.36976e-10 4.37729e-10)
(0 0 0)
(-1.37734e-10 -8.80151e-12 7.53528e-12)
(-2.65822e-10 -1.74065e-11 1.50151e-11)
(-3.83841e-10 -2.6185e-11 2.28452e-11)
(-4.95513e-10 -3.57924e-11 3.16441e-11)
(-6.04228e-10 -4.69525e-11 4.20506e-11)
(-7.1321e-10 -6.05454e-11 5.47774e-11)
(-8.25671e-10 -7.771e-11 7.06615e-11)
(-9.44889e-10 -9.99647e-11 9.07112e-11)
(-1.07422e-09 -1.29333e-10 1.16143e-10)
(-1.21689e-09 -1.68428e-10 1.48391e-10)
(-1.37542e-09 -2.20347e-10 1.89025e-10)
(-1.55022e-09 -2.88042e-10 2.39453e-10)
(-1.73646e-09 -3.72367e-10 3.00007e-10)
(-1.91832e-09 -4.67413e-10 3.67435e-10)
(-2.05992e-09 -5.51747e-10 4.28506e-10)
(-2.21365e-09 -6.64777e-10 5.18572e-10)
(0 0 0)
(-1.66739e-10 -9.97876e-12 8.86015e-12)
(-3.21563e-10 -1.96716e-11 1.76235e-11)
(-4.6374e-10 -2.94287e-11 2.6734e-11)
(-5.97552e-10 -3.9899e-11 3.68779e-11)
(-7.26816e-10 -5.17591e-11 4.87486e-11)
(-8.5508e-10 -6.57765e-11 6.30995e-11)
(-9.85744e-10 -8.28709e-11 8.07912e-11)
(-1.12214e-09 -1.04164e-10 1.0283e-10)
(-1.26747e-09 -1.30993e-10 1.30396e-10)
(-1.42458e-09 -1.64827e-10 1.64835e-10)
(-1.59533e-09 -2.0696e-10 2.07576e-10)
(-1.77917e-09 -2.57759e-10 2.59843e-10)
(-1.97026e-09 -3.1515e-10 3.21807e-10)
(-2.15237e-09 -3.72167e-10 3.9019e-10)
(-2.29125e-09 -4.14972e-10 4.51976e-10)
(-2.43684e-09 -4.47093e-10 5.4387e-10)
(0 0 0)
(-1.92589e-10 -1.06489e-11 9.88693e-12)
(-3.71117e-10 -2.092e-11 1.96248e-11)
(-5.3446e-10 -3.1108e-11 2.9666e-11)
(-6.87271e-10 -4.18024e-11 4.07238e-11)
(-8.33618e-10 -5.35729e-11 5.34982e-11)
(-9.77162e-10 -6.70055e-11 6.87235e-11)
(-1.12127e-09 -8.27224e-11 8.72028e-11)
(-1.26904e-09 -1.01372e-10 1.09829e-10)
(-1.42326e-09 -1.2356e-10 1.37581e-10)
(-1.58604e-09 -1.49678e-10 1.71483e-10)
(-1.75828e-09 -1.79535e-10 2.12463e-10)
(-1.93826e-09 -2.11718e-10 2.61039e-10)
(-2.11923e-09 -2.42685e-10 3.16566e-10)
(-2.28518e-09 -2.66135e-10 3.75427e-10)
(-2.40585e-09 -2.75402e-10 4.2672e-10)
(-2.52551e-09 -2.46653e-10 5.05059e-10)
(0 0 0)
(-2.15036e-10 -1.08381e-11 1.06162e-11)
(-4.14028e-10 -2.12168e-11 2.10234e-11)
(-5.95395e-10 -3.13561e-11 3.16564e-11)
(-7.63994e-10 -4.17555e-11 4.32192e-11)
(-9.23978e-10 -5.28538e-11 5.63794e-11)
(-1.07896e-09 -6.50421e-11 7.18047e-11)
(-1.23211e-09 -7.86557e-11 9.01822e-11)
(-1.38615e-09 -9.39324e-11 1.12215e-10)
(-1.54326e-09 -1.10918e-10 1.38585e-10)
(-1.70477e-09 -1.29293e-10 1.69852e-10)
(-1.87054e-09 -1.48087e-10 2.06247e-10)
(-2.03793e-09 -1.65291e-10 2.47277e-10)
(-2.19975e-09 -1.77493e-10 2.90987e-10)
(-2.3413e-09 -1.8012e-10 3.32741e-10)
(-2.43766e-09 -1.70877e-10 3.63747e-10)
(-2.48413e-09 -1.17231e-10 3.95208e-10)
(0 0 0)
(-2.3395e-10 -1.05992e-11 1.10674e-11)
(-4.50091e-10 -2.068e-11 2.18627e-11)
(-6.46338e-10 -3.03843e-11 3.27827e-11)
(-8.27601e-10 -4.01128e-11 4.4494e-11)
(-9.97991e-10 -5.01777e-11 5.76035e-11)
(-1.16096e-09 -6.08029e-11 7.26837e-11)
(-1.3194e-09 -7.21051e-11 9.02764e-11)
(-1.4756e-09 -8.40495e-11 1.10869e-10)
(-1.63115e-09 -9.63767e-11 1.34826e-10)
(-1.78666e-09 -1.08498e-10 1.62252e-10)
(-1.94132e-09 -1.19379e-10 1.92734e-10)
(-2.09202e-09 -1.27468e-10 2.24895e-10)
(-2.23219e-09 -1.30831e-10 2.5566e-10)
(-2.35017e-09 -1.2775e-10 2.79265e-10)
(-2.42978e-09 -1.18543e-10 2.86455e-10)
(-2.47587e-09 -5.61783e-11 2.29766e-10)
(0 0 0)
(0 0 0)
(0 0 0)
(0 0 0)
(0 0 0)
(0 0 0)
(0 0 0)
(0 0 0)
(0 0 0)
(0 0 0)
(0 0 0)
(0 0 0)
(0 0 0)
(0 0 0)
(0 0 0)
(0 0 0)
(0 0 0)
(0 0 0)
(-3.64904e-11 -2.55462e-12 1.88449e-12)
(-7.05133e-11 -5.08228e-12 3.76789e-12)
(-1.02034e-10 -7.72509e-12 5.76498e-12)
(-1.32121e-10 -1.07239e-11 8.0472e-12)
(-1.6178e-10 -1.43725e-11 1.07979e-11)
(-1.92005e-10 -1.90693e-11 1.42287e-11)
(-2.23836e-10 -2.53918e-11 1.85944e-11)
(-2.58401e-10 -3.42101e-11 2.4205e-11)
(-2.96935e-10 -4.68593e-11 3.14272e-11)
(-3.40756e-10 -6.53957e-11 4.06595e-11)
(-3.91116e-10 -9.29463e-11 5.22493e-11)
(-4.4884e-10 -1.34072e-10 6.62949e-11)
(-5.13539e-10 -1.94688e-10 8.22618e-11)
(-5.81992e-10 -2.79582e-10 9.84039e-11)
(-6.43342e-10 -3.78955e-10 1.11136e-10)
(-8.15785e-10 -7.32744e-10 1.25697e-10)
(0 0 0)
(-7.21412e-11 -4.93182e-12 3.68755e-12)
(-1.39359e-10 -9.79745e-12 7.36813e-12)
(-2.01548e-10 -1.48552e-11 1.12614e-11)
(-2.6078e-10 -2.05468e-11 1.56967e-11)
(-3.18984e-10 -2.74009e-11 2.10237e-11)
(-3.78054e-10 -3.61204e-11 2.76441e-11)
(-4.39943e-10 -4.77042e-11 3.60393e-11)
(-5.06735e-10 -6.36249e-11 4.67946e-11)
(-5.80675e-10 -8.60847e-11 6.06051e-11)
(-6.64076e-10 -1.18362e-10 7.82401e-11)
(-7.58991e-10 -1.65192e-10 1.00408e-10)
(-8.66331e-10 -2.32904e-10 1.27425e-10)
(-9.83944e-10 -3.28285e-10 1.58537e-10)
(-1.10277e-09 -4.53067e-10 1.9078e-10)
(-1.19969e-09 -5.85323e-10 2.17325e-10)
(-1.30417e-09 -8.27771e-10 2.5849e-10)
(0 0 0)
(-1.06203e-10 -6.98121e-12 5.33779e-12)
(-2.05055e-10 -1.38368e-11 1.0654e-11)
(-2.96307e-10 -2.08963e-11 1.62548e-11)
(-3.82915e-10 -2.87336e-11 2.26019e-11)
(-4.67593e-10 -3.80137e-11 3.01809e-11)
(-5.5296e-10 -4.95905e-11 3.95427e-11)
(-6.41659e-10 -6.46348e-11 5.13421e-11)
(-7.36437e-10 -8.48088e-11 6.63703e-11)
(-8.40155e-10 -1.12491e-10 8.55674e-11)
(-9.55634e-10 -1.51028e-10 1.09987e-10)
(-1.08514e-09 -2.0488e-10 1.40638e-10)
(-1.22909e-09 -2.79233e-10 1.78077e-10)
(-1.38341e-09 -3.77939e-10 2.21484e-10)
(-1.53447e-09 -4.97209e-10 2.66897e-10)
(-1.65189e-09 -6.11011e-10 3.04418e-10)
(-1.79108e-09 -7.93319e-10 3.49211e-10)
(0 0 0)
(-1.38012e-10 -8.59351e-12 6.77737e-12)
(-2.66295e-10 -1.69809e-11 1.35075e-11)
(-3.84373e-10 -2.55103e-11 2.05587e-11)
(-4.95922e-10 -3.4808e-11 2.84916e-11)
(-6.04262e-10 -4.55657e-11 3.78862e-11)
(-7.12518e-10 -5.86243e-11 4.93894e-11)
(-8.23751e-10 -7.50741e-11 6.37575e-11)
(-9.4102e-10 -9.63707e-11 8.18906e-11)
(-1.06736e-09 -1.24454e-10 1.04847e-10)
(-1.20556e-09 -1.61817e-10 1.33807e-10)
(-1.35755e-09 -2.11362e-10 1.69913e-10)
(-1.52305e-09 -2.75688e-10 2.13822e-10)
(-1.69677e-09 -3.5506e-10 2.64648e-10)
(-1.86371e-09 -4.42941e-10 3.17756e-10)
(-1.99259e-09 -5.1892e-10 3.61252e-10)
(-2.15466e-09 -6.17131e-10 4.07326e-10)
(0 0 0)
(-1.67032e-10 -9.71033e-12 7.96709e-12)
(-3.22045e-10 -1.91194e-11 1.58499e-11)
(-4.64239e-10 -2.85455e-11 2.40514e-11)
(-5.97829e-10 -3.85942e-11 3.31933e-11)
(-7.26544e-10 -4.98905e-11 4.39052e-11)
(-8.53796e-10 -6.31341e-11 5.68713e-11)
(-9.82788e-10 -7.91524e-11 7.28697e-11)
(-1.11655e-09 -9.8938e-11 9.28006e-11)
(-1.25789e-09 -1.23646e-10 1.17691e-10)
(-1.40908e-09 -1.54488e-10 1.48646e-10)
(-1.57124e-09 -1.924e-10 1.86691e-10)
(-1.74308e-09 -2.37301e-10 2.32334e-10)
(-1.91847e-09 -2.86719e-10 2.84568e-10)
(-2.08277e-09 -3.33985e-10 3.38755e-10)
(-2.20775e-09 -3.67861e-10 3.83141e-10)
(-2.36885e-09 -3.94022e-10 4.31378e-10)
(0 0 0)
(-1.92873e-10 -1.03227e-11 8.88796e-12)
(-3.71563e-10 -2.02463e-11 1.76447e-11)
(-5.34859e-10 -3.00234e-11 2.66805e-11)
(-6.87333e-10 -4.01862e-11 3.66414e-11)
(-8.32939e-10 -5.12334e-11 4.8163e-11)
(-9.75172e-10 -6.36557e-11 6.19123e-11)
(-1.11715e-09 -7.79409e-11 7.86169e-11)
(-1.26164e-09 -9.4546e-11 9.90774e-11)
(-1.41088e-09 -1.13805e-10 1.24151e-10)
(-1.56632e-09 -1.35727e-10 1.54677e-10)
(-1.72796e-09 -1.59608e-10 1.91295e-10)
(-1.8932e-09 -1.83449e-10 2.34043e-10)
(-2.05494e-09 -2.03332e-10 2.81534e-10)
(-2.19911e-09 -2.13772e-10 3.29415e-10)
(-2.30263e-09 -2.1207e-10 3.67998e-10)
(-2.43598e-09 -1.85014e-10 4.16252e-10)
(0 0 0)
(-2.1529e-10 -1.04623e-11 9.54076e-12)
(-4.144e-10 -2.04386e-11 1.88961e-11)
(-5.95644e-10 -3.00982e-11 2.84604e-11)
(-7.63784e-10 -3.98716e-11 3.88708e-11)
(-9.22838e-10 -5.01116e-11 5.07332e-11)
(-1.07623e-09 -6.10924e-11 6.46547e-11)
(-1.22685e-09 -7.29856e-11 8.12591e-11)
(-1.37703e-09 -8.57966e-11 1.0118e-10)
(-1.52835e-09 -9.92438e-11 1.25014e-10)
(-1.68136e-09 -1.12555e-10 1.53218e-10)
(-1.83493e-09 -1.24167e-10 1.85879e-10)
(-1.9853e-09 -1.31391e-10 2.22317e-10)
(-2.12459e-09 -1.30317e-10 2.60399e-10)
(-2.23946e-09 -1.16972e-10 2.95621e-10)
(-2.31202e-09 -9.30115e-11 3.20571e-10)
(-2.35186e-09 -3.6925e-11 3.49625e-10)
(0 0 0)
(-2.34162e-10 -1.01874e-11 9.94314e-12)
(-4.50364e-10 -1.9826e-11 1.9644e-11)
(-6.4641e-10 -2.90012e-11 2.94618e-11)
(-8.27098e-10 -3.80372e-11 3.99998e-11)
(-9.96393e-10 -4.71513e-11 5.18086e-11)
(-1.15755e-09 -5.64403e-11 6.54087e-11)
(-1.31315e-09 -6.58448e-11 8.1293e-11)
(-1.46507e-09 -7.5087e-11 9.99016e-11)
(-1.61431e-09 -8.35752e-11 1.21555e-10)
(-1.76068e-09 -9.02828e-11 1.46316e-10)
(-1.90233e-09 -9.36365e-11 1.73744e-10)
(-2.03503e-09 -9.15304e-11 2.0247e-10)
(-2.1513e-09 -8.17476e-11 2.29546e-10)
(-2.24017e-09 -6.33789e-11 2.49674e-10)
(-2.28993e-09 -4.04599e-11 2.54645e-10)
(-2.28187e-09 5.1871e-11 2.01918e-10)
(0 0 0)
(0 0 0)
(0 0 0)
(0 0 0)
(0 0 0)
(0 0 0)
(0 0 0)
(0 0 0)
(0 0 0)
(0 0 0)
(0 0 0)
(0 0 0)
(0 0 0)
(0 0 0)
(0 0 0)
(0 0 0)
(0 0 0)
(0 0 0)
(-3.65315e-11 -2.4992e-12 1.60276e-12)
(-7.05764e-11 -4.96885e-12 3.20516e-12)
(-1.02084e-10 -7.54512e-12 4.90545e-12)
(-1.3211e-10 -1.04611e-11 6.85011e-12)
(-1.61635e-10 -1.40022e-11 9.19565e-12)
(-1.91628e-10 -1.8557e-11 1.21221e-11)
(-2.23087e-10 -2.46918e-11 1.58447e-11)
(-2.57085e-10 -3.32624e-11 2.06218e-11)
(-2.9479e-10 -4.55845e-11 2.67524e-11)
(-3.37437e-10 -6.36802e-11 3.45501e-11)
(-3.86204e-10 -9.0604e-11 4.42703e-11)
(-4.41901e-10 -1.30754e-10 5.59572e-11)
(-5.04297e-10 -1.89731e-10 6.91819e-11)
(-5.70715e-10 -2.71946e-10 8.26875e-11)
(-6.31244e-10 -3.6794e-10 9.38524e-11)
(-8.05627e-10 -7.15998e-10 1.13618e-10)
(0 0 0)
(-7.22157e-11 -4.81912e-12 3.13601e-12)
(-1.3947e-10 -9.56619e-12 6.26718e-12)
(-2.01625e-10 -1.44867e-11 9.58153e-12)
(-2.60722e-10 -2.00053e-11 1.33603e-11)
(-3.18647e-10 -2.66315e-11 1.79023e-11)
(-3.77235e-10 -3.50446e-11 2.3549e-11)
(-4.38355e-10 -4.62135e-11 3.07069e-11)
(-5.0398e-10 -6.15719e-11 3.98629e-11)
(-5.76209e-10 -8.32672e-11 5.1581e-11)
(-6.57191e-10 -1.14492e-10 6.64574e-11)
(-7.48828e-10 -1.5983e-10 8.49878e-11)
(-8.52009e-10 -2.25322e-10 1.07275e-10)
(-9.64924e-10 -3.17276e-10 1.32499e-10)
(-1.07963e-09 -4.36954e-10 1.58111e-10)
(-1.17489e-09 -5.63213e-10 1.78798e-10)
(-1.28422e-09 -7.9386e-10 2.09202e-10)
(0 0 0)
(-1.06298e-10 -6.80849e-12 4.53885e-12)
(-2.05186e-10 -1.34812e-11 9.06087e-12)
(-2.96369e-10 -2.03264e-11 1.38281e-11)
(-3.82753e-10 -2.78894e-11 1.9235e-11)
(-4.66986e-10 -3.68013e-11 2.5696e-11)
(-5.51593e-10 -4.78718e-11 3.36798e-11)
(-6.39087e-10 -6.2213e-11 4.37394e-11)
(-7.32038e-10 -8.14057e-11 5.65318e-11)
(-8.33079e-10 -1.07714e-10 7.28166e-11)
(-9.44772e-10 -1.4432e-10 9.33991e-11)
(-1.06915e-09 -1.95439e-10 1.18958e-10)
(-1.20665e-09 -2.65901e-10 1.49644e-10)
(-1.35378e-09 -3.59127e-10 1.84292e-10)
(-1.49875e-09 -4.71201e-10 2.19139e-10)
(-1.61406e-09 -5.77554e-10 2.46384e-10)
(-1.76462e-09 -7.4822e-10 2.75323e-10)
(0 0 0)
(-1.3811e-10 -8.35897e-12 5.76204e-12)
(-2.66414e-10 -1.64963e-11 1.14858e-11)
(-3.84372e-10 -2.47291e-11 1.74863e-11)
(-4.95589e-10 -3.36415e-11 2.42425e-11)
(-6.03294e-10 -4.38728e-11 3.22496e-11)
(-7.10486e-10 -5.61939e-11 4.20585e-11)
(-8.20041e-10 -7.15972e-11 5.43075e-11)
(-9.34768e-10 -9.13994e-11 6.97449e-11)
(-1.05738e-09 -1.17344e-10 8.92244e-11)
(-1.1903e-09 -1.5165e-10 1.13644e-10)
(-1.33514e-09 -1.96862e-10 1.43756e-10)
(-1.4916e-09 -2.5517e-10 1.79721e-10)
(-1.65534e-09 -3.2659e-10 2.20181e-10)
(-1.81406e-09 -4.05101e-10 2.60678e-10)
(-1.94048e-09 -4.72691e-10 2.91908e-10)
(-2.12147e-09 -5.60864e-10 3.21152e-10)
(0 0 0)
(-1.67117e-10 -9.41485e-12 6.77222e-12)
(-3.2212e-10 -1.85071e-11 1.34748e-11)
(-4.64126e-10 -2.75535e-11 2.04525e-11)
(-5.97262e-10 -3.71031e-11 2.82363e-11)
(-7.25141e-10 -4.77089e-11 3.7364e-11)
(-8.51008e-10 -5.9972e-11 4.84183e-11)
(-9.77833e-10 -7.45787e-11 6.20576e-11)
(-1.10832e-09 -9.2319e-11 7.90315e-11)
(-1.24485e-09 -1.14058e-10 1.0017e-10)
(-1.38919e-09 -1.40609e-10 1.26319e-10)
(-1.542e-09 -1.72403e-10 1.58149e-10)
(-1.70187e-09 -2.08847e-10 1.95747e-10)
(-1.86377e-09 -2.47321e-10 2.37759e-10)
(-2.01645e-09 -2.82269e-10 2.79905e-10)
(-2.13707e-09 -3.05999e-10 3.13056e-10)
(-2.32184e-09 -3.23041e-10 3.48142e-10)
(0 0 0)
(-1.9293e-10 -9.97142e-12 7.55334e-12)
(-3.71564e-10 -1.95166e-11 1.49971e-11)
(-5.34595e-10 -2.88371e-11 2.26824e-11)
(-6.86487e-10 -3.83951e-11 3.11608e-11)
(-8.31055e-10 -4.85996e-11 4.09755e-11)
(-9.71595e-10 -5.98164e-11 5.26952e-11)
(-1.11095e-09 -7.23545e-11 6.69366e-11)
(-1.25146e-09 -8.64115e-11 8.43693e-11)
(-1.39488e-09 -1.0195e-10 1.0569e-10)
(-1.54198e-09 -1.18464e-10 1.31545e-10)
(-1.69208e-09 -1.3459e-10 1.62345e-10)
(-1.84219e-09 -1.47626e-10 1.97921e-10)
(-1.98598e-09 -1.53334e-10 2.36896e-10)
(-2.11277e-09 -1.47382e-10 2.75688e-10)
(-2.20615e-09 -1.31517e-10 3.0702e-10)
(-2.35814e-09 -9.16462e-11 3.52771e-10)
(0 0 0)
(-2.15308e-10 -1.00651e-11 8.10618e-12)
(-4.14308e-10 -1.96124e-11 1.60567e-11)
(-5.95207e-10 -2.87524e-11 2.41888e-11)
(-7.62642e-10 -3.78355e-11 3.30466e-11)
(-9.20474e-10 -4.71112e-11 4.31478e-11)
(-1.07191e-09 -5.67113e-11 5.50107e-11)
(-1.21951e-09 -6.6603e-11 6.91653e-11)
(-1.36515e-09 -7.64987e-11 8.61437e-11)
(-1.50984e-09 -8.56994e-11 1.06435e-10)
(-1.65332e-09 -9.2855e-11 1.30385e-10)
(-1.79357e-09 -9.56494e-11 1.58006e-10)
(-1.92604e-09 -9.05296e-11 1.88654e-10)
(-2.04287e-09 -7.29188e-11 2.20576e-10)
(-2.1329e-09 -3.92439e-11 2.50418e-10)
(-2.18464e-09 5.026e-12 2.72851e-10)
(-2.21585e-09 9.46837e-11 3.17733e-10)
(0 0 0)
(-2.34133e-10 -9.75883e-12 8.44594e-12)
(-4.50171e-10 -1.89341e-11 1.66877e-11)
(-6.45794e-10 -2.75477e-11 2.50325e-11)
(-8.25672e-10 -3.58378e-11 3.39951e-11)
(-9.93597e-10 -4.39124e-11 4.40461e-11)
(-1.15259e-09 -5.17186e-11 5.56302e-11)
(-1.3049e-09 -5.89862e-11 6.91672e-11)
(-1.45193e-09 -6.5141e-11 8.5028e-11)
(-1.59406e-09 -6.91801e-11 1.03473e-10)
(-1.73026e-09 -6.95238e-11 1.24535e-10)
(-1.8577e-09 -6.39037e-11 1.47805e-10)
(-1.97115e-09 -4.9459e-11 1.72096e-10)
(-2.06264e-09 -2.34594e-11 1.94962e-10)
(-2.12226e-09 1.44634e-11 2.12123e-10)
(-2.14248e-09 5.67046e-11 2.16708e-10)
(-2.04983e-09 2.25288e-10 1.77285e-10)
(0 0 0)
(0 0 0)
(0 0 0)
(0 0 0)
(0 0 0)
(0 0 0)
(0 0 0)
(0 0 0)
(0 0 0)
(0 0 0)
(0 0 0)
(0 0 0)
(0 0 0)
(0 0 0)
(0 0 0)
(0 0 0)
(0 0 0)
(0 0 0)
(-3.65391e-11 -2.44307e-12 1.25949e-12)
(-7.05745e-11 -4.85288e-12 2.51903e-12)
(-1.0204e-10 -7.35823e-12 3.85612e-12)
(-1.31972e-10 -1.0182e-11 5.38611e-12)
(-1.61331e-10 -1.35972e-11 7.23203e-12)
(-1.91053e-10 -1.79764e-11 9.53475e-12)
(-2.22097e-10 -2.38634e-11 1.24614e-11)
(-2.55486e-10 -3.20831e-11 1.62098e-11)
(-2.9233e-10 -4.39069e-11 2.10044e-11)
(-3.33818e-10 -6.12947e-11 2.70739e-11)
(-3.81122e-10 -8.72124e-11 3.45946e-11)
(-4.35146e-10 -1.25943e-10 4.35849e-11)
(-4.95947e-10 -1.82983e-10 5.37412e-11)
(-5.61364e-10 -2.62804e-10 6.42211e-11)
(-6.21947e-10 -3.56572e-10 7.31717e-11)
(-8.00468e-10 -7.02862e-10 9.13042e-11)
(0 0 0)
(-7.22257e-11 -4.7059e-12 2.46421e-12)
(-1.39455e-10 -9.33198e-12 4.92524e-12)
(-2.0152e-10 -1.41082e-11 7.53143e-12)
(-2.60424e-10 -1.9438e-11 1.05043e-11)
(-3.18008e-10 -2.58047e-11 1.40786e-11)
(-3.76045e-10 -3.38523e-11 1.85216e-11)
(-4.3632e-10 -4.45015e-11 2.41489e-11)
(-5.00701e-10 -5.91169e-11 3.13329e-11)
(-5.71171e-10 -7.97498e-11 4.04957e-11)
(-6.49778e-10 -1.0946e-10 5.20669e-11)
(-7.38404e-10 -1.52655e-10 6.63754e-11)
(-8.38131e-10 -2.15176e-10 8.34329e-11)
(-9.47745e-10 -3.03198e-10 1.02568e-10)
(-1.06039e-09 -4.18218e-10 1.21908e-10)
(-1.15576e-09 -5.40287e-10 1.37623e-10)
(-1.27285e-09 -7.66213e-10 1.60825e-10)
(0 0 0)
(-1.06301e-10 -6.63714e-12 3.5662e-12)
(-2.05141e-10 -1.31259e-11 7.12005e-12)
(-2.96176e-10 -1.97501e-11 1.08683e-11)
(-3.82257e-10 -2.70214e-11 1.51215e-11)
(-4.65963e-10 -3.55285e-11 2.02056e-11)
(-5.49721e-10 -4.60233e-11 2.64874e-11)
(-6.35916e-10 -5.95363e-11 3.43961e-11)
(-7.26952e-10 -7.7532e-11 4.44343e-11)
(-8.25274e-10 -1.02112e-10 5.71688e-11)
(-9.33272e-10 -1.36239e-10 7.31751e-11)
(-1.05293e-09 -1.83861e-10 9.28906e-11)
(-1.18497e-09 -2.49552e-10 1.16304e-10)
(-1.32683e-09 -3.36678e-10 1.42396e-10)
(-1.46846e-09 -4.419e-10 1.68296e-10)
(-1.58391e-09 -5.42455e-10 1.88398e-10)
(-1.74628e-09 -7.07094e-10 2.10586e-10)
(0 0 0)
(-1.38096e-10 -8.12947e-12 4.52672e-12)
(-2.66318e-10 -1.60193e-11 9.0244e-12)
(-3.8406e-10 -2.39527e-11 1.37416e-11)
(-4.94855e-10 -3.24665e-11 1.90555e-11)
(-6.01836e-10 -4.21396e-11 2.53557e-11)
(-7.07868e-10 -5.36592e-11 3.30733e-11)
(-8.15651e-10 -6.78976e-11 4.27046e-11)
(-9.27762e-10 -8.59987e-11 5.48223e-11)
(-1.04664e-09 -1.09463e-10 7.00641e-11)
(-1.17442e-09 -1.40185e-10 8.90722e-11)
(-1.31262e-09 -1.80324e-10 1.12332e-10)
(-1.46123e-09 -2.3174e-10 1.3983e-10)
(-1.61714e-09 -2.94485e-10 1.70397e-10)
(-1.77047e-09 -3.63551e-10 2.00684e-10)
(-1.89639e-09 -4.23521e-10 2.24044e-10)
(-2.09205e-09 -5.04082e-10 2.48243e-10)
(0 0 0)