/*--------------------------------*- C++ -*----------------------------------*\
| =========                 |                                                 |
| \\      /  F ield         | foam-extend: Open Source CFD                    |
|  \\    /   O peration     | Version:     3.1                                |
|   \\  /    A nd           | Web:         http://www.extend-project.de       |
|    \\/     M anipulation  |                                                 |
\*---------------------------------------------------------------------------*/
FoamFile
{
    version     2.0;
    format      ascii;
    class       surfaceVectorField;
    location    "1.9";
    object      Sf;
}
// * * * * * * * * * * * * * * * * * * * * * * * * * * * * * * * * * * * * * //

dimensions      [0 2 0 0 0 0 0];

internalField   nonuniform List<vector> 
41600
(
(0.000625319 -1.64461e-06 -9.1282e-09)
(-3.18757e-07 0.00070477 -7.49824e-09)
(1.51487e-08 1.70423e-08 0.000704135)
(-1.5467e-08 -1.74004e-08 -0.000704118)
(0.000625624 -3.17047e-06 -1.74854e-08)
(-3.04988e-07 0.000704652 -2.24275e-08)
(1.50611e-08 5.10253e-08 0.000704433)
(-1.5371e-08 -5.20902e-08 -0.000704403)
(0.000625922 -4.56251e-06 -2.48739e-08)
(-2.97253e-07 0.000704519 -3.76045e-08)
(1.59073e-08 8.5852e-08 0.000704712)
(-1.62111e-08 -8.76072e-08 -0.000704667)
(0.000626226 -5.85254e-06 -3.12989e-08)
(-3.03906e-07 0.000704417 -5.40108e-08)
(1.80806e-08 1.24058e-07 0.000705007)
(-1.83773e-08 -1.26489e-07 -0.000704947)
(0.00062655 -7.06651e-06 -3.69039e-08)
(-3.23717e-07 0.000704342 -7.28819e-08)
(2.15442e-08 1.68581e-07 0.000705331)
(-2.1816e-08 -1.71652e-07 -0.000705253)
(0.000626907 -8.22957e-06 -4.19062e-08)
(-3.56559e-07 0.000704292 -9.56053e-08)
(2.621e-08 2.22216e-07 0.000705699)
(-2.64213e-08 -2.25833e-07 -0.000705598)
(0.000627309 -9.36136e-06 -4.59059e-08)
(-4.02245e-07 0.000704261 -1.23749e-07)
(3.1914e-08 2.87478e-07 0.000706123)
(-3.20131e-08 -2.91448e-07 -0.000705996)
(0.00062777 -1.04721e-05 -4.82023e-08)
(-4.61337e-07 0.00070424 -1.59141e-07)
(3.8398e-08 3.66409e-07 0.000706615)
(-3.82902e-08 -3.70375e-07 -0.000706454)
(0.000628305 -1.15637e-05 -4.80639e-08)
(-5.35197e-07 0.00070422 -2.04302e-07)
(4.49231e-08 4.59942e-07 0.000707187)
(-4.44303e-08 -4.63245e-07 -0.000706982)
(0.000628929 -1.26187e-05 -4.37155e-08)
(-6.24625e-07 0.000704181 -2.6283e-07)
(4.97604e-08 5.66271e-07 0.000707847)
(-4.86553e-08 -5.67796e-07 -0.000707588)
(0.00062966 -1.36015e-05 -3.29713e-08)
(-7.33028e-07 0.000704106 -3.40418e-07)
(4.93623e-08 6.77743e-07 0.000708609)
(-4.73939e-08 -6.75832e-07 -0.000708279)
(0.000630522 -1.44483e-05 -1.41839e-08)
(-8.65444e-07 0.000703964 -4.47511e-07)
(3.72471e-08 7.75604e-07 0.000709487)
(-3.41471e-08 -7.68e-07 -0.000709059)
(0.000631544 -1.50647e-05 1.13136e-08)
(-1.02673e-06 0.000703725 -6.04589e-07)
(1.16314e-09 8.20426e-07 0.000710509)
(3.38028e-09 -8.04172e-07 -0.00070993)
(0.000632746 -1.53655e-05 3.12835e-08)
(-1.2087e-06 0.000703396 -8.51543e-07)
(-7.60349e-08 7.40364e-07 0.000711731)
(8.31265e-08 -7.10811e-07 -0.0007109)
(0.000633985 -1.53719e-05 1.94924e-09)
(-1.26371e-06 0.000703066 -1.24477e-06)
(-1.92624e-07 4.46211e-07 0.000713194)
(2.16931e-07 -3.81293e-07 -0.00071192)
(-5.25511e-06 0.000702124 -5.67436e-07)
(-1.11057e-06 -9.74147e-07 0.000716648)
(2.21111e-06 2.26503e-06 -0.000716032)
(0.000625307 -1.62474e-06 -2.74552e-08)
(-6.24703e-07 0.000706395 -1.46998e-08)
(4.4673e-08 1.6171e-08 0.000705771)
(-4.56234e-08 -1.65239e-08 -0.000705737)
(0.0006256 -3.13426e-06 -5.27432e-08)
(-5.97428e-07 0.000706163 -4.3945e-08)
(4.43167e-08 4.83012e-08 0.000705938)
(-4.52499e-08 -4.93598e-08 -0.000705891)
(0.000625886 -4.51208e-06 -7.5347e-08)
(-5.81686e-07 0.000705898 -7.36288e-08)
(4.67022e-08 8.09819e-08 0.000706068)
(-4.76305e-08 -8.27543e-08 -0.00070601)
(0.000626177 -5.78917e-06 -9.51248e-08)
(-5.94034e-07 0.000705697 -1.05642e-07)
(5.30162e-08 1.16614e-07 0.000706245)
(-5.39314e-08 -1.19111e-07 -0.000706174)
(0.000626486 -6.99558e-06 -1.12732e-07)
(-6.32314e-07 0.000705552 -1.42432e-07)
(6.30773e-08 1.57929e-07 0.000706478)
(-6.39294e-08 -1.61137e-07 -0.000706391)
(0.000626826 -8.15585e-06 -1.28737e-07)
(-6.9545e-07 0.000705456 -1.86721e-07)
(7.66435e-08 2.07464e-07 0.000706777)
(-7.73523e-08 -2.11345e-07 -0.00070667)
(0.000627207 -9.28694e-06 -1.418e-07)
(-7.83345e-07 0.000705396 -2.41475e-07)
(9.34983e-08 2.67806e-07 0.000707147)
(-9.38802e-08 -2.72225e-07 -0.000707016)
(0.000627643 -1.0401e-05 -1.50103e-07)
(-8.97115e-07 0.000705358 -3.10364e-07)
(1.1305e-07 3.41591e-07 0.00070759)
(-1.12767e-07 -3.46159e-07 -0.00070743)
(0.000628144 -1.15033e-05 -1.50956e-07)
(-1.03791e-06 0.000705326 -3.98134e-07)
(1.33261e-07 4.30767e-07 0.000708108)
(-1.31813e-07 -4.3477e-07 -0.000707914)
(0.000628723 -1.25894e-05 -1.39572e-07)
(-1.20695e-06 0.00070527 -5.11221e-07)
(1.49705e-07 5.35616e-07 0.000708692)
(-1.46424e-07 -5.37946e-07 -0.000708455)
(0.00062939 -1.36329e-05 -1.09983e-07)
(-1.40639e-06 0.000705148 -6.59729e-07)
(1.53671e-07 6.5364e-07 0.000709328)
(-1.47779e-07 -6.52639e-07 -0.000709038)
(0.000630152 -1.45828e-05 -5.59751e-08)
(-1.63654e-06 0.000704907 -8.6085e-07)
(1.29379e-07 7.77585e-07 0.000709987)
(-1.19972e-07 -7.70871e-07 -0.000709627)
(0.000631001 -1.53511e-05 2.24162e-08)
(-1.88938e-06 0.000704478 -1.14627e-06)
(4.94365e-08 8.94206e-07 0.000710629)
(-3.53244e-08 -8.78321e-07 -0.000710165)
(0.000631879 -1.58257e-05 1.01109e-07)
(-2.10974e-06 0.00070384 -1.57378e-06)
(-1.19851e-07 9.88059e-07 0.000711239)
(1.42221e-07 -9.57367e-07 -0.000710595)
(0.000632548 -1.59518e-05 8.34389e-08)
(-1.99626e-06 0.000703135 -2.2245e-06)
(-3.61452e-07 1.05829e-06 0.000711863)
(4.25856e-07 -1.00116e-06 -0.000710865)
(-4.7001e-06 0.000701401 -1.92003e-06)
(-1.65747e-06 1.74391e-06 0.000711419)
(3.07175e-06 -2.58538e-06 -0.000710293)
(0.000625282 -1.58103e-06 -4.58142e-08)
(-9.05409e-07 0.000707976 -2.1292e-08)
(7.21276e-08 1.47073e-08 0.000707369)
(-7.36921e-08 -1.50454e-08 -0.000707316)
(0.000625552 -3.05037e-06 -8.83004e-08)
(-8.65208e-07 0.000707633 -6.36472e-08)
(7.13199e-08 4.38075e-08 0.000707392)
(-7.28652e-08 -4.48196e-08 -0.00070733)
(0.000625813 -4.39078e-06 -1.26402e-07)
(-8.41182e-07 0.00070724 -1.06594e-07)
(7.4916e-08 7.31494e-08 0.000707363)
(-7.64551e-08 -7.4824e-08 -0.000707292)
(0.000626078 -5.63582e-06 -1.60124e-07)
(-8.57972e-07 0.000706944 -1.52823e-07)
(8.48633e-08 1.04887e-07 0.000707411)
(-8.6387e-08 -1.07211e-07 -0.000707331)
(0.000626359 -6.81703e-06 -1.91306e-07)
(-9.11918e-07 0.000706736 -2.05902e-07)
(1.00724e-07 1.41417e-07 0.000707545)
(-1.02189e-07 -1.44409e-07 -0.00070745)
(0.000626665 -7.95473e-06 -2.20232e-07)
(-1.00039e-06 0.000706597 -2.697e-07)
(1.22278e-07 1.85067e-07 0.000707762)
(-1.23558e-07 -1.88728e-07 -0.00070765)
(0.000627006 -9.0668e-06 -2.44639e-07)
(-1.12326e-06 0.000706513 -3.48328e-07)
(1.49554e-07 2.38416e-07 0.000708059)
(-1.50313e-07 -2.42628e-07 -0.000707928)
(0.00062739 -1.01719e-05 -2.62314e-07)
(-1.2817e-06 0.000706468 -4.46863e-07)
(1.81932e-07 3.04248e-07 0.000708434)
(-1.81609e-07 -3.08735e-07 -0.00070828)
(0.000627827 -1.12807e-05 -2.68379e-07)
(-1.47632e-06 0.000706439 -5.71747e-07)
(2.17044e-07 3.85688e-07 0.000708878)
(-2.14855e-07 -3.89941e-07 -0.000708698)
(0.000628322 -1.24038e-05 -2.55937e-07)
(-1.70787e-06 0.000706396 -7.31596e-07)
(2.49692e-07 4.86399e-07 0.00070937)
(-2.44533e-07 -4.89512e-07 -0.000709162)
(0.00062888 -1.35367e-05 -2.15584e-07)
(-1.97335e-06 0.000706282 -9.39228e-07)
(2.69963e-07 6.10837e-07 0.000709871)
(-2.60393e-07 -6.1123e-07 -0.000709632)
(0.000629488 -1.4654e-05 -1.35239e-07)
(-2.26034e-06 0.00070602 -1.21488e-06)
(2.603e-07 7.65281e-07 0.000710313)
(-2.44548e-07 -7.60394e-07 -0.000710039)
(0.00063011 -1.56967e-05 -6.45833e-09)
(-2.53622e-06 0.000705506 -1.59341e-06)
(1.93438e-07 9.60799e-07 0.00071059)
(-1.69003e-07 -9.46694e-07 -0.000710271)
(0.000630658 -1.65526e-05 1.57875e-07)
(-2.69627e-06 0.000704667 -2.13556e-06)
(4.15627e-08 1.21771e-06 0.000710608)
(-2.55361e-09 -1.18858e-06 -0.00071021)
(0.000630922 -1.71026e-05 2.68072e-07)
(-2.34832e-06 0.000703639 -2.9363e-06)
(-1.70267e-07 1.5545e-06 0.00071044)
(2.58011e-07 -1.50852e-06 -0.000709838)
(-5.40464e-06 0.000702592 -2.31425e-06)
(-6.55161e-07 2.23602e-06 0.000709165)
(1.02775e-06 -2.46926e-06 -0.000709829)
(0.000625246 -1.51213e-06 -6.34524e-08)
(-1.14968e-06 0.000709489 -2.69804e-08)
(9.6608e-08 1.28123e-08 0.000708903)
(-9.87427e-08 -1.31156e-08 -0.000708834)
(0.000625481 -2.91492e-06 -1.22802e-07)
(-1.09769e-06 0.000709037 -8.06725e-08)
(9.5278e-08 3.81424e-08 0.000708774)
(-9.7384e-08 -3.90436e-08 -0.000708698)
(0.000625708 -4.19473e-06 -1.75926e-07)
(-1.06577e-06 0.000708522 -1.35079e-07)
(9.97889e-08 6.35935e-08 0.000708578)
(-1.01873e-07 -6.50764e-08 -0.000708496)
(0.000625937 -5.38385e-06 -2.24073e-07)
(-1.08508e-06 0.000708136 -1.93588e-07)
(1.12721e-07 9.09028e-08 0.000708491)
(-1.14805e-07 -9.29805e-08 -0.000708402)
(0.000626177 -6.50682e-06 -2.70167e-07)
(-1.14982e-06 0.000707862 -2.60674e-07)
(1.33434e-07 1.2206e-07 0.000708514)
(-1.35498e-07 -1.24778e-07 -0.000708413)
(0.000626435 -7.5867e-06 -3.13333e-07)
(-1.25663e-06 0.00070768 -3.40953e-07)
(1.61889e-07 1.59098e-07 0.000708635)
(-1.63733e-07 -1.62467e-07 -0.00070852)
(0.000626718 -8.64922e-06 -3.51255e-07)
(-1.40479e-06 0.000707579 -4.39372e-07)
(1.98312e-07 2.0422e-07 0.000708848)
(-1.99506e-07 -2.08191e-07 -0.000708719)
(0.00062703 -9.71832e-06 -3.82154e-07)
(-1.59458e-06 0.000707542 -5.61985e-07)
(2.42446e-07 2.60065e-07 0.000709146)
(-2.42318e-07 -2.64528e-07 -0.000709)
(0.000627377 -1.08153e-05 -3.99936e-07)
(-1.82591e-06 0.000707541 -7.16378e-07)
(2.92948e-07 3.30537e-07 0.000709509)
(-2.90435e-07 -3.35196e-07 -0.000709347)
(0.000627761 -1.19575e-05 -3.96299e-07)
(-2.09754e-06 0.000707542 -9.12575e-07)
(3.45984e-07 4.21789e-07 0.000709911)
(-3.39523e-07 -4.25942e-07 -0.000709734)
(0.000628177 -1.31655e-05 -3.5914e-07)
(-2.40273e-06 0.000707492 -1.16498e-06)
(3.93929e-07 5.43461e-07 0.000710298)
(-3.8127e-07 -5.45692e-07 -0.00071011)
(0.000628614 -1.44517e-05 -2.70747e-07)
(-2.71854e-06 0.000707304 -1.49545e-06)
(4.23888e-07 7.11463e-07 0.000710584)
(-4.02078e-07 -7.09153e-07 -0.000710392)
(0.00062903 -1.58047e-05 -1.09213e-07)
(-2.98786e-06 0.000706848 -1.93918e-06)
(4.14371e-07 9.48977e-07 0.000710627)
(-3.79296e-07 -9.37831e-07 -0.000710443)
(0.000629354 -1.71386e-05 1.38095e-07)
(-3.07562e-06 0.000705975 -2.55623e-06)
(3.40425e-07 1.27944e-06 0.000710271)
(-2.84739e-07 -1.25381e-06 -0.000710097)
(0.000629458 -1.82454e-05 4.31276e-07)
(-2.55262e-06 0.000704707 -3.45623e-06)
(1.92101e-07 1.69018e-06 0.000709565)
(-9.15606e-08 -1.65088e-06 -0.000709339)
(-5.62785e-06 0.000704483 -2.622e-06)
(1.58231e-07 2.32606e-06 0.000708022)
(-3.52108e-07 -2.63831e-06 -0.000709762)
(0.000625202 -1.41447e-06 -7.99649e-08)
(-1.34876e-06 0.000710904 -3.16072e-08)
(1.17766e-07 1.09537e-08 0.000710349)
(-1.20411e-07 -1.12248e-08 -0.000710264)
(0.000625393 -2.72374e-06 -1.55125e-07)
(-1.28644e-06 0.000710347 -9.44534e-08)
(1.15942e-07 3.25801e-08 0.000710061)
(-1.18545e-07 -3.33871e-08 -0.000709972)
(0.000625577 -3.91623e-06 -2.22886e-07)
(-1.24707e-06 0.000709716 -1.58044e-07)
(1.21091e-07 5.41627e-08 0.000709693)
(-1.23679e-07 -5.55147e-08 -0.000709603)
(0.000625761 -5.01829e-06 -2.85953e-07)
(-1.26623e-06 0.00070924 -2.26362e-07)
(1.36307e-07 7.70242e-08 0.000709465)
(-1.38936e-07 -7.89633e-08 -0.000709369)
(0.00062595 -6.05355e-06 -3.46705e-07)
(-1.33659e-06 0.000708899 -3.04414e-07)
(1.60858e-07 1.02726e-07 0.000709364)
(-1.63504e-07 -1.05299e-07 -0.00070926)
(0.00062615 -7.04963e-06 -4.03946e-07)
(-1.45413e-06 0.00070868 -3.97235e-07)
(1.94813e-07 1.32803e-07 0.00070938)
(-1.97244e-07 -1.36054e-07 -0.000709266)
(0.000626364 -8.03213e-06 -4.56872e-07)
(-1.61675e-06 0.000708566 -5.10347e-07)
(2.38571e-07 1.68924e-07 0.000709502)
(-2.40324e-07 -1.72896e-07 -0.000709379)
(0.000626593 -9.02495e-06 -5.04273e-07)
(-1.82297e-06 0.000708539 -6.50393e-07)
(2.92658e-07 2.13404e-07 0.000709719)
(-2.9299e-07 -2.18096e-07 -0.000709584)
(0.000626835 -1.00565e-05 -5.40355e-07)
(-2.07098e-06 0.000708578 -8.25449e-07)
(3.57386e-07 2.70045e-07 0.000710006)
(-3.55003e-07 -2.75328e-07 -0.000709861)
(0.000627089 -1.11587e-05 -5.56729e-07)
(-2.358e-06 0.00070865 -1.04615e-06)
(4.31599e-07 3.45333e-07 0.000710329)
(-4.24523e-07 -3.50795e-07 -0.000710179)
(0.000627349 -1.23754e-05 -5.41182e-07)
(-2.6775e-06 0.000708713 -1.32813e-06)
(5.1197e-07 4.50198e-07 0.000710639)
(-4.97129e-07 -4.54814e-07 -0.000710491)
(0.000627607 -1.37647e-05 -4.71194e-07)
(-3.00454e-06 0.000708694 -1.69481e-06)
(5.93394e-07 6.0296e-07 0.000710855)
(-5.6628e-07 -6.04339e-07 -0.000710725)
(0.000627846 -1.53693e-05 -3.1167e-07)
(-3.27177e-06 0.000708447 -2.18269e-06)
(6.60707e-07 8.3067e-07 0.000710829)
(-6.15372e-07 -8.24466e-07 -0.000710745)
(0.000628026 -1.71444e-05 -2.00316e-08)
(-3.32759e-06 0.000707731 -2.85311e-06)
(6.80411e-07 1.15764e-06 0.000710351)
(-6.08377e-07 -1.13787e-06 -0.000710345)
(0.000628065 -1.87906e-05 4.55588e-07)
(-2.70331e-06 0.000706319 -3.82452e-06)
(5.75767e-07 1.56059e-06 0.000709287)
(-4.64186e-07 -1.52702e-06 -0.000709394)
(-5.76368e-06 0.000707005 -2.76033e-06)
(8.41807e-07 2.10153e-06 0.000707798)
(-1.58756e-06 -2.30147e-06 -0.000710731)
(0.00062515 -1.28968e-06 -9.55388e-08)
(-1.49566e-06 0.000712194 -3.5e-08)
(1.35751e-07 9.22915e-09 0.000711678)
(-1.38854e-07 -9.47365e-09 -0.000711579)
(0.000625292 -2.48072e-06 -1.85144e-07)
(-1.42498e-06 0.000711538 -1.04513e-07)
(1.33398e-07 2.73584e-08 0.000711229)
(-1.36455e-07 -2.80922e-08 -0.000711129)
(0.000625426 -3.55982e-06 -2.66856e-07)
(-1.37868e-06 0.000710796 -1.74697e-07)
(1.38836e-07 4.51798e-08 0.000710689)
(-1.419e-07 -4.64139e-08 -0.000710591)
(0.000625559 -4.55222e-06 -3.43547e-07)
(-1.39573e-06 0.000710234 -2.49858e-07)
(1.55596e-07 6.36288e-08 0.000710313)
(-1.58738e-07 -6.53908e-08 -0.000710213)
(0.000625693 -5.48265e-06 -4.16359e-07)
(-1.46739e-06 0.000709832 -3.35243e-07)
(1.82845e-07 8.38011e-08 0.000710085)
(-1.86055e-07 -8.6148e-08 -0.000709981)
(0.00062583 -6.37161e-06 -4.86424e-07)
(-1.58781e-06 0.000709572 -4.3617e-07)
(2.20673e-07 1.0673e-07 0.000709991)
(-2.23727e-07 -1.09749e-07 -0.000709882)
(0.000625968 -7.23662e-06 -5.54844e-07)
(-1.75305e-06 0.000709434 -5.58406e-07)
(2.69674e-07 1.3355e-07 0.000710014)
(-2.72097e-07 -1.37336e-07 -0.000709898)
(0.000626106 -8.09885e-06 -6.20395e-07)
(-1.95978e-06 0.000709406 -7.08585e-07)
(3.31149e-07 1.65831e-07 0.000710138)
(-3.32178e-07 -1.70499e-07 -0.000710015)
(0.000626238 -8.98717e-06 -6.79327e-07)
(-2.20415e-06 0.000709472 -8.94701e-07)
(4.06922e-07 2.06208e-07 0.00071034)
(-4.05145e-07 -2.11877e-07 -0.000710212)
(0.000626355 -9.94537e-06 -7.24724e-07)
(-2.48187e-06 0.000709615 -1.12729e-06)
(4.98512e-07 2.59347e-07 0.00071059)
(-4.91644e-07 -2.65987e-07 -0.000710464)
(0.00062645 -1.10392e-05 -7.4664e-07)
(-2.78897e-06 0.000709814 -1.42233e-06)
(6.06853e-07 3.33264e-07 0.000710853)
(-5.91156e-07 -3.40439e-07 -0.000710737)
(0.000626523 -1.23595e-05 -7.23163e-07)
(-3.10796e-06 0.000710021 -1.80503e-06)
(7.34491e-07 4.41834e-07 0.000711069)
(-7.03931e-07 -4.4817e-07 -0.000710982)
(0.000626585 -1.40108e-05 -6.15765e-07)
(-3.38694e-06 0.0007101 -2.31687e-06)
(8.75398e-07 6.09082e-07 0.000711113)
(-8.21813e-07 -6.11215e-07 -0.000711086)
(0.000626659 -1.60594e-05 -3.56889e-07)
(-3.48968e-06 0.00070977 -3.02938e-06)
(9.88655e-07 8.64242e-07 0.000710759)
(-9.00976e-07 -8.55507e-07 -0.000710842)
(0.000626732 -1.82339e-05 2.40026e-07)
(-2.90034e-06 0.000708471 -4.06955e-06)
(9.30736e-07 1.20445e-06 0.000709594)
(-8.06042e-07 -1.18114e-06 -0.000709946)
(-6.01324e-06 0.000710629 -2.82465e-06)
(1.44124e-06 1.70077e-06 0.000708685)
(-2.58501e-06 -1.8277e-06 -0.000712836)
(0.000625093 -1.14277e-06 -1.09363e-07)
(-1.58553e-06 0.000713337 -3.69988e-08)
(1.5077e-07 7.6085e-09 0.000712869)
(-1.5428e-07 -7.82124e-09 -0.000712757)
(0.000625181 -2.1951e-06 -2.11581e-07)
(-1.50914e-06 0.000712591 -1.10401e-07)
(1.47784e-07 2.24297e-08 0.000712259)
(-1.51245e-07 -2.30648e-08 -0.000712151)
(0.000625263 -3.14381e-06 -3.05455e-07)
(-1.45736e-06 0.000711746 -1.84365e-07)
(1.53122e-07 3.66581e-08 0.000711549)
(-1.56609e-07 -3.77231e-08 -0.000711446)
(0.000625342 -4.01088e-06 -3.92783e-07)
(-1.47111e-06 0.000711102 -2.63272e-07)
(1.70664e-07 5.08782e-08 0.000711026)
(-1.74264e-07 -5.24059e-08 -0.000710926)
(0.000625418 -4.81274e-06 -4.75107e-07)
(-1.53993e-06 0.000710636 -3.52342e-07)
(1.99425e-07 6.57563e-08 0.000710669)
(-2.03163e-07 -6.78104e-08 -0.00071057)
(0.00062549 -5.56049e-06 -5.56789e-07)
(-1.6559e-06 0.000710322 -4.56992e-07)
(2.39466e-07 8.18189e-08 0.000710456)
(-2.43136e-07 -8.44979e-08 -0.000710353)
(0.000625553 -6.26602e-06 -6.39428e-07)
(-1.81308e-06 0.000710143 -5.82793e-07)
(2.91463e-07 9.95483e-08 0.000710365)
(-2.94605e-07 -1.02989e-07 -0.000710258)
(0.000625602 -6.94462e-06 -7.22265e-07)
(-2.00608e-06 0.000710089 -7.35803e-07)
(3.57088e-07 1.19484e-07 0.000710379)
(-3.58987e-07 -1.23888e-07 -0.000710269)
(0.000625625 -7.61766e-06 -8.03783e-07)
(-2.22855e-06 0.00071015 -9.23288e-07)
(4.38996e-07 1.42422e-07 0.000710477)
(-4.3824e-07 -1.48064e-07 -0.000710367)
(0.000625611 -8.31857e-06 -8.7955e-07)
(-2.47336e-06 0.000710323 -1.15464e-06)
(5.40228e-07 1.69734e-07 0.000710638)
(-5.34391e-07 -1.76929e-07 -0.000710535)
(0.000625543 -9.10656e-06 -9.44225e-07)
(-2.73647e-06 0.000710611 -1.44446e-06)
(6.64147e-07 2.03811e-07 0.000710844)
(-6.4926e-07 -2.12943e-07 -0.000710757)
(0.000625415 -1.00671e-05 -9.85077e-07)
(-3.00985e-06 0.000710993 -1.81771e-06)
(8.1791e-07 2.48835e-07 0.000711053)
(-7.87256e-07 -2.60376e-07 -0.000711)
(0.000625247 -1.13414e-05 -9.76725e-07)
(-3.2755e-06 0.000711388 -2.3209e-06)
(1.00494e-06 3.14463e-07 0.000711181)
(-9.48333e-07 -3.28149e-07 -0.000711186)
(0.000625135 -1.31509e-05 -8.5424e-07)
(-3.47561e-06 0.000711592 -3.04735e-06)
(1.19088e-06 4.23876e-07 0.000711073)
(-1.09293e-06 -4.3621e-07 -0.000711178)
(0.000625252 -1.55456e-05 -3.08212e-07)
(-3.15713e-06 0.000710869 -4.16583e-06)
(1.20999e-06 6.19957e-07 0.00071016)
(-1.07098e-06 -6.2359e-07 -0.000710609)
(-7.05674e-06 0.000717189 -2.80353e-06)
(2.10734e-06 1.13772e-06 0.000711726)
(-3.55156e-06 -1.24642e-06 -0.000717283)
(0.000625034 -9.76593e-07 -1.20691e-07)
(1.63026e-07 6.1166e-09 0.000713899)
(-1.66886e-07 -6.29826e-09 -0.000713778)
(-1.6157e-06 0.000714313 -3.75944e-08)
(0.000625066 -1.87688e-06 -2.33062e-07)
(1.59308e-07 1.79145e-08 0.000713139)
(-1.63109e-07 -1.84493e-08 -0.000713025)
(-1.53707e-06 0.000713492 -1.12084e-07)
(0.000625095 -2.68575e-06 -3.36255e-07)
(1.64167e-07 2.88761e-08 0.000712268)
(-1.6801e-07 -2.97632e-08 -0.000712162)
(-1.48229e-06 0.000712555 -1.86942e-07)
(0.00062512 -3.41393e-06 -4.31604e-07)
(1.81781e-07 3.92529e-08 0.0007116)
(-1.85781e-07 -4.05285e-08 -0.000711502)
(-1.49214e-06 0.000711832 -2.66537e-07)
(0.000625139 -4.06757e-06 -5.2239e-07)
(2.10938e-07 4.9321e-08 0.000711108)
(-2.15139e-07 -5.10416e-08 -0.000711014)
(-1.55486e-06 0.000711291 -3.55983e-07)
(0.000625148 -4.65256e-06 -6.13741e-07)
(2.51548e-07 5.90732e-08 0.000710765)
(-2.55779e-07 -6.13272e-08 -0.00071067)
(-1.66104e-06 0.000710909 -4.60357e-07)
(0.000625141 -5.17514e-06 -7.07091e-07)
(3.04213e-07 6.82926e-08 0.000710545)
(-3.08069e-07 -7.12383e-08 -0.00071045)
(-1.80264e-06 0.000710669 -5.84615e-07)
(0.00062511 -5.64045e-06 -8.03067e-07)
(3.70515e-07 7.65044e-08 0.000710429)
(-3.73322e-07 -8.0356e-08 -0.000710335)
(-1.97139e-06 0.000710558 -7.33901e-07)
(0.000625039 -6.05492e-06 -9.00938e-07)
(4.52979e-07 8.27e-08 0.000710398)
(-4.53406e-07 -8.77574e-08 -0.000710309)
(-2.15737e-06 0.00071057 -9.14081e-07)
(0.00062491 -6.42816e-06 -9.99273e-07)
(5.54572e-07 8.50274e-08 0.000710431)
(-5.50336e-07 -9.18384e-08 -0.000710355)
(-2.34861e-06 0.000710703 -1.1323e-06)
(0.000624693 -6.77311e-06 -1.09777e-06)
(6.78544e-07 8.03328e-08 0.000710514)
(-6.66001e-07 -8.99673e-08 -0.000710461)
(-2.53183e-06 0.000710966 -1.39889e-06)
(0.000624344 -7.10623e-06 -1.19383e-06)
(8.30647e-07 6.17354e-08 0.000710588)
(-8.0372e-07 -7.63998e-08 -0.00071058)
(-2.68778e-06 0.000711341 -1.7304e-06)
(0.000623797 -7.47211e-06 -1.28175e-06)
(1.01366e-06 1.43742e-08 0.000710536)
(-9.62789e-07 -3.86799e-08 -0.000710613)
(-2.77946e-06 0.000711778 -2.1557e-06)
(0.000622943 -7.98856e-06 -1.33202e-06)
(1.19748e-06 -8.53369e-08 0.000710088)
(-1.10827e-06 4.12907e-08 -0.000710357)
(-2.71104e-06 0.000712153 -2.72842e-06)
(0.00062166 -9.10156e-06 -1.09404e-06)
(1.24377e-06 -2.40077e-07 0.000708411)
(-1.11621e-06 1.61644e-07 -0.00070929)
(-2.00173e-06 0.00071206 -3.52476e-06)
(2.99464e-06 2.08114e-07 0.000718308)
(-4.64872e-06 -3.57293e-07 -0.000725645)
(-1.1175e-05 0.00073078 -2.32149e-06)
(0.000625332 -1.66095e-06 -7.17955e-09)
(-3.31428e-07 0.000704787 -6.78166e-09)
(1.42656e-08 1.60488e-08 0.000704149)
(0.000625651 -3.20189e-06 -1.38325e-08)
(-3.17541e-07 0.000704669 -2.02736e-08)
(1.4191e-08 4.80597e-08 0.00070446)
(0.000625962 -4.60707e-06 -1.94639e-08)
(-3.10269e-07 0.000704535 -3.38958e-08)
(1.50095e-08 8.08979e-08 0.000704752)
(0.000626281 -5.90814e-06 -2.38938e-08)
(-3.18354e-07 0.000704433 -4.8417e-08)
(1.71077e-08 1.17001e-07 0.00070506)
(0.000626623 -7.13141e-06 -2.73325e-08)
(-3.40603e-07 0.000704358 -6.48274e-08)
(2.04453e-08 1.59194e-07 0.000705399)
(0.000627001 -8.30199e-06 -2.94918e-08)
(-3.76949e-07 0.000704308 -8.40748e-08)
(2.49606e-08 2.10189e-07 0.000705785)
(0.00062743 -9.43846e-06 -2.96793e-08)
(-4.27349e-07 0.000704276 -1.07159e-07)
(3.0536e-08 2.72496e-07 0.000706231)
(0.000627924 -1.05497e-05 -2.71532e-08)
(-4.92497e-07 0.000704254 -1.35125e-07)
(3.69218e-08 3.48215e-07 0.000706748)
(0.000628499 -1.16358e-05 -2.08124e-08)
(-5.74097e-07 0.000704233 -1.68861e-07)
(4.34509e-08 4.38427e-07 0.000707349)
(0.000629174 -1.26758e-05 -8.84245e-09)
(-6.7345e-07 0.000704189 -2.09121e-07)
(4.86762e-08 5.41864e-07 0.000708044)
(0.000629969 -1.36307e-05 1.02547e-08)
(-7.9513e-07 0.000704105 -2.56437e-07)
(4.95107e-08 6.52235e-07 0.000708846)
(0.000630911 -1.44342e-05 3.72908e-08)
(-9.45766e-07 0.00070395 -3.09672e-07)
(4.0655e-08 7.53968e-07 0.00070977)
(0.000632031 -1.49964e-05 6.93688e-08)
(-1.13209e-06 0.000703692 -3.61507e-07)
(1.34082e-08 8.16032e-07 0.000710838)
(0.000633341 -1.52548e-05 9.54217e-08)
(-1.34528e-06 0.000703335 -3.86516e-07)
(-4.06043e-08 7.88526e-07 0.000712092)
(0.000634687 -1.5288e-05 1.00454e-07)
(-1.42913e-06 0.00070298 -3.32155e-07)
(-1.09846e-07 6.24703e-07 0.000713521)
(-4.23955e-06 0.000702674 -4.48104e-08)
(-5.05298e-07 -4.47101e-08 0.000716849)
(0.000625321 -1.64141e-06 -2.18018e-08)
(-6.49521e-07 0.000706429 -1.33158e-08)
(4.20566e-08 1.52143e-08 0.0007058)
(0.000625628 -3.16657e-06 -4.21008e-08)
(-6.21954e-07 0.000706197 -3.97487e-08)
(4.17263e-08 4.54318e-08 0.000705977)
(0.000625927 -4.55848e-06 -5.94911e-08)
(-6.07072e-07 0.000705932 -6.63452e-08)
(4.40216e-08 7.61617e-08 0.000706118)
(0.000626234 -5.8479e-06 -7.35738e-08)
(-6.22154e-07 0.000705729 -9.46417e-08)
(5.00967e-08 1.09705e-07 0.000706305)
(0.000626562 -7.06522e-06 -8.47e-08)
(-6.65191e-07 0.000705584 -1.26592e-07)
(5.979e-08 1.48702e-07 0.000706551)
(0.000626924 -8.23495e-06 -9.21201e-08)
(-7.35228e-07 0.000705489 -1.64178e-07)
(7.29337e-08 1.95652e-07 0.000706865)
(0.000627333 -9.373e-06 -9.38846e-08)
(-8.32207e-07 0.000705429 -2.09319e-07)
(8.93838e-08 2.53106e-07 0.000707251)
(0.000627802 -1.04903e-05 -8.76743e-08)
(-9.5775e-07 0.00070539 -2.63842e-07)
(1.0861e-07 3.23688e-07 0.000707712)
(0.000628346 -1.15895e-05 -6.97161e-08)
(-1.11348e-06 0.000705353 -3.29608e-07)
(1.2888e-07 4.09563e-07 0.000708251)
(0.000628978 -1.2663e-05 -3.4548e-08)
(-1.30139e-06 0.000705287 -4.0817e-07)
(1.46331e-07 5.11402e-07 0.000708856)
(0.000629708 -1.36822e-05 2.17619e-08)
(-1.52511e-06 0.000705151 -4.99928e-07)
(1.53116e-07 6.27024e-07 0.000709515)
(0.000630542 -1.45901e-05 1.03884e-07)
(-1.78636e-06 0.000704886 -6.01369e-07)
(1.3612e-07 7.49714e-07 0.000710196)
(0.000631463 -1.52947e-05 2.07416e-07)
(-2.07821e-06 0.000704424 -6.97129e-07)
(7.49105e-08 8.66818e-07 0.000710861)
(0.000632385 -1.56865e-05 3.06211e-07)
(-2.33906e-06 0.000703754 -7.39405e-07)
(-4.82888e-08 9.61229e-07 0.000711493)
(0.000633054 -1.57265e-05 3.63192e-07)
(-2.25834e-06 0.000703055 -6.38937e-07)
(-2.01813e-07 1.02301e-06 0.000712112)
(-3.66058e-06 0.000701136 -6.27573e-08)
(-7.76227e-07 1.31714e-06 0.000711653)
(0.000625296 -1.59781e-06 -3.68429e-08)
(-9.41313e-07 0.000708028 -1.93049e-08)
(6.78696e-08 1.38174e-08 0.000707412)
(0.000625579 -3.08268e-06 -7.09582e-08)
(-9.00676e-07 0.000707684 -5.75991e-08)
(6.71096e-08 4.11625e-08 0.000707444)
(0.000625854 -4.43694e-06 -1.0053e-07)
(-8.779e-07 0.000707291 -9.61377e-08)
(7.05711e-08 6.87643e-08 0.000707422)
(0.000626135 -5.69467e-06 -1.25341e-07)
(-8.98611e-07 0.000706993 -1.37181e-07)
(8.01256e-08 9.86796e-08 0.000707479)
(0.000626435 -6.88835e-06 -1.45761e-07)
(-9.59426e-07 0.000706786 -1.83522e-07)
(9.53933e-08 1.33193e-07 0.000707622)
(0.000626763 -8.03755e-06 -1.60527e-07)
(-1.05771e-06 0.000706649 -2.37959e-07)
(1.16264e-07 1.74548e-07 0.00070785)
(0.000627131 -9.15916e-06 -1.66479e-07)
(-1.19339e-06 0.000706564 -3.03092e-07)
(1.4283e-07 2.25266e-07 0.000708159)
(0.000627549 -1.02711e-05 -1.59593e-07)
(-1.36834e-06 0.000706518 -3.81413e-07)
(1.74623e-07 2.88138e-07 0.000708545)
(0.000628027 -1.13818e-05 -1.33288e-07)
(-1.58371e-06 0.000706483 -4.75462e-07)
(2.09709e-07 3.66303e-07 0.000708997)
(0.000628573 -1.25e-05 -7.9161e-08)
(-1.84117e-06 0.000706429 -5.87265e-07)
(2.43298e-07 4.63227e-07 0.000709495)
(0.00062919 -1.36164e-05 1.07954e-08)
(-2.13864e-06 0.000706296 -7.16659e-07)
(2.66217e-07 5.82903e-07 0.000709998)
(0.000629865 -1.46989e-05 1.48196e-07)
(-2.46376e-06 0.000706004 -8.57034e-07)
(2.62989e-07 7.30042e-07 0.000710431)
(0.000630552 -1.56767e-05 3.35881e-07)
(-2.78205e-06 0.000705452 -9.84802e-07)
(2.10466e-07 9.10064e-07 0.00071069)
(0.000631141 -1.64204e-05 5.49922e-07)
(-2.97573e-06 0.000704588 -1.03314e-06)
(8.91449e-08 1.12784e-06 0.000710687)
(0.000631438 -1.68005e-05 7.41084e-07)
(-2.6554e-06 0.000703615 -8.88806e-07)
(-7.0803e-08 1.37486e-06 0.000710499)
(-3.91492e-06 0.00070186 -1.83873e-07)
(-3.25225e-07 1.74511e-06 0.000709189)
(0.00062526 -1.52768e-06 -5.14882e-08)
(-1.19514e-06 0.000709556 -2.45008e-08)
(9.08765e-08 1.20453e-08 0.00070896)
(0.000625507 -2.94544e-06 -9.90873e-08)
(-1.14268e-06 0.000709104 -7.3151e-08)
(8.96308e-08 3.58591e-08 0.000708838)
(0.000625747 -4.23869e-06 -1.40694e-07)
(-1.1123e-06 0.000708588 -1.22157e-07)
(9.39909e-08 5.98047e-08 0.000708645)
(0.000625992 -5.44119e-06 -1.76827e-07)
(-1.13657e-06 0.000708201 -1.74325e-07)
(1.0641e-07 8.5541e-08 0.000708564)
(0.000626249 -6.57797e-06 -2.0817e-07)
(-1.2099e-06 0.00070793 -2.33177e-07)
(1.26319e-07 1.14951e-07 0.000708595)
(0.000626528 -7.67062e-06 -2.32354e-07)
(-1.32868e-06 0.000707751 -3.02027e-07)
(1.53811e-07 1.49967e-07 0.000708723)
(0.000626836 -8.74481e-06 -2.45155e-07)
(-1.49248e-06 0.00070765 -3.83926e-07)
(1.8922e-07 1.92747e-07 0.000708941)
(0.00062718 -9.82433e-06 -2.41098e-07)
(-1.70222e-06 0.000707611 -4.8188e-07)
(2.32468e-07 2.45889e-07 0.000709242)
(0.000627566 -1.09295e-05 -2.11586e-07)
(-1.95841e-06 0.000707606 -5.98749e-07)
(2.82477e-07 3.1308e-07 0.000709603)
(0.000627995 -1.20759e-05 -1.45832e-07)
(-2.26072e-06 0.000707597 -7.36685e-07)
(3.35579e-07 4.00003e-07 0.000709995)
(0.000628469 -1.32802e-05 -2.92704e-08)
(-2.60288e-06 0.000707528 -8.95001e-07)
(3.84605e-07 5.15483e-07 0.00071036)
(0.000628973 -1.45483e-05 1.57248e-07)
(-2.96057e-06 0.00070731 -1.06441e-06)
(4.16493e-07 6.72843e-07 0.000710605)
(0.000629468 -1.58511e-05 4.33041e-07)
(-3.27101e-06 0.000706816 -1.21391e-06)
(4.0833e-07 8.87991e-07 0.00071058)
(0.000629882 -1.70755e-05 7.93351e-07)
(-3.38227e-06 0.000705923 -1.26139e-06)
(3.32755e-07 1.16869e-06 0.000710139)
(0.000630122 -1.79877e-05 1.17723e-06)
(-2.88495e-06 0.000704733 -1.0774e-06)
(1.82321e-07 1.48354e-06 0.00070937)
(-3.84966e-06 0.000703224 -2.98744e-07)
(8.82774e-08 1.85896e-06 0.000707632)
(0.000625214 -1.42908e-06 -6.50939e-08)
(-1.40196e-06 0.000710986 -2.87284e-08)
(1.1076e-07 1.02888e-08 0.000710418)
(0.000625417 -2.75256e-06 -1.25936e-07)
(-1.33908e-06 0.00071043 -8.58037e-08)
(1.0904e-07 3.05906e-08 0.000710134)
(0.000625613 -3.95856e-06 -1.79671e-07)
(-1.30145e-06 0.000709797 -1.43276e-07)
(1.14017e-07 5.08395e-08 0.000709768)
(0.000625811 -5.07432e-06 -2.27689e-07)
(-1.32635e-06 0.000709322 -2.04355e-07)
(1.28613e-07 7.22951e-08 0.000709543)
(0.000626016 -6.12215e-06 -2.70407e-07)
(-1.40637e-06 0.000708984 -2.73023e-07)
(1.52173e-07 9.64389e-08 0.000709447)
(0.000626234 -7.12971e-06 -3.04277e-07)
(-1.53726e-06 0.000708766 -3.52891e-07)
(1.84905e-07 1.24728e-07 0.000709465)
(0.000626471 -8.12441e-06 -3.25303e-07)
(-1.71735e-06 0.000708654 -4.47329e-07)
(2.27375e-07 1.58782e-07 0.000709587)
(0.000626726 -9.13048e-06 -3.27569e-07)
(-1.94564e-06 0.00070863 -5.59613e-07)
(2.80201e-07 2.00813e-07 0.000709799)
(0.000627002 -1.01764e-05 -3.01211e-07)
(-2.22082e-06 0.000708667 -6.92712e-07)
(3.43759e-07 2.54376e-07 0.000710073)
(0.000627298 -1.12932e-05 -2.32745e-07)
(-2.54114e-06 0.000708733 -8.48797e-07)
(4.16858e-07 3.25509e-07 0.000710372)
(0.000627611 -1.25237e-05 -1.02329e-07)
(-2.90074e-06 0.000708784 -1.02701e-06)
(4.9601e-07 4.24107e-07 0.000710641)
(0.000627943 -1.39177e-05 1.19337e-07)
(-3.27205e-06 0.000708741 -1.21643e-06)
(5.73767e-07 5.66118e-07 0.000710785)
(0.000628284 -1.55011e-05 4.74059e-07)
(-3.5796e-06 0.000708457 -1.38059e-06)
(6.28221e-07 7.72639e-07 0.000710641)
(0.00062862 -1.7199e-05 9.86188e-07)
(-3.65293e-06 0.000707723 -1.42654e-06)
(6.15031e-07 1.05532e-06 0.000710004)
(0.000628898 -1.86558e-05 1.58811e-06)
(-3.05241e-06 0.000706374 -1.21341e-06)
(4.64707e-07 1.37708e-06 0.000708821)
(-3.72032e-06 0.000705158 -3.93335e-07)
(4.62062e-07 1.72897e-06 0.000706985)
(0.000625161 -1.30352e-06 -7.79366e-08)
(-1.55452e-06 0.00071229 -3.18377e-08)
(1.27629e-07 8.64085e-09 0.000711759)