/*--------------------------------*- C++ -*----------------------------------*\
| =========                 |                                                 |
| \\      /  F ield         | foam-extend: Open Source CFD                    |
|  \\    /   O peration     | Version:     3.1                                |
|   \\  /    A nd           | Web:         http://www.extend-project.de       |
|    \\/     M anipulation  |                                                 |
\*---------------------------------------------------------------------------*/
FoamFile
{
    version     2.0;
    format      ascii;
    class       volVectorField;
    location    "1.9";
    object      U;
}
// * * * * * * * * * * * * * * * * * * * * * * * * * * * * * * * * * * * * * //

dimensions      [0 1 -1 0 0 0 0];

internalField   nonuniform List<vector> 
14592
(
(0.0188467 9.3829e-05 -0.00162965)
(0.0185892 0.00031084 -0.00374213)
(0.0182826 0.000336263 -0.00550187)
(0.0182729 0.000233366 -0.0069269)
(0.0186919 0.000102015 -0.00798761)
(0.0194256 4.52058e-06 -0.008741)
(0.0202648 -3.89284e-05 -0.00932032)
(0.0210094 -3.86239e-05 -0.00990273)
(0.0215216 -2.47668e-05 -0.0106861)
(0.0217543 -3.43071e-05 -0.0118823)
(0.0217409 -0.000112638 -0.013735)
(0.0215732 -0.000325541 -0.0165521)
(0.0213814 -0.000739921 -0.0207672)
(0.0211039 -0.00131102 -0.0268222)
(0.0194453 -0.00139979 -0.0337097)
(0.0126489 0.000437636 -0.0306135)
(0.0528459 0.000242943 -0.00191833)
(0.0524966 0.000375816 -0.00615219)
(0.0521315 -1.62665e-05 -0.0105746)
(0.0521677 -0.000639027 -0.0145612)
(0.0528491 -0.00114624 -0.017667)
(0.0540426 -0.00133368 -0.0198087)
(0.0554073 -0.00117665 -0.0212003)
(0.0565679 -0.000768929 -0.0222375)
(0.0572196 -0.000252128 -0.0233998)
(0.0571908 0.000239397 -0.0252014)
(0.056404 0.000579035 -0.0281818)
(0.0548103 0.000633529 -0.0329775)
(0.0523129 0.000251064 -0.0404416)
(0.0483919 -0.000640164 -0.0514897)
(0.0403126 -0.00149979 -0.0636699)
(0.0212667 -0.000225172 -0.0530422)
(0.0822254 0.000395033 -0.00136532)
(0.0819796 0.000512603 -0.00539064)
(0.0814316 -0.000262012 -0.010628)
(0.0808368 -0.00148028 -0.0161591)
(0.0805998 -0.00252923 -0.0210265)
(0.08085 -0.00296938 -0.0246924)
(0.0814161 -0.00268211 -0.0271246)
(0.0819563 -0.00180464 -0.0286886)
(0.0820919 -0.000594776 -0.0299846)
(0.0815154 0.00069883 -0.0317208)
(0.0799831 0.00186062 -0.0346408)
(0.0772422 0.00272111 -0.0395881)
(0.0729449 0.00310659 -0.0476706)
(0.0662803 0.00283067 -0.0603803)
(0.0536898 0.00163075 -0.0753841)
(0.0256483 0.000476046 -0.0622579)
(0.106686 0.000417725 -0.000960679)
(0.10658 0.000635081 -0.00400093)
(0.105909 -0.000193121 -0.00876093)
(0.104562 -0.00168061 -0.0146634)
(0.102943 -0.00309808 -0.02058)
(0.101477 -0.00380652 -0.025533)
(0.100338 -0.00352663 -0.0290751)
(0.0994166 -0.00234216 -0.0313413)
(0.0984207 -0.000548429 -0.0328972)
(0.0969879 0.00154096 -0.0345462)
(0.0947441 0.0036555 -0.0371718)
(0.09126 0.00562734 -0.0417654)
(0.0859885 0.00731402 -0.0495876)
(0.077931 0.00852366 -0.0626632)
(0.0630073 0.00785972 -0.0794126)
(0.028627 0.00301978 -0.0663244)
(0.126203 0.000385854 -0.00078223)
(0.126202 0.000753286 -0.00300215)
(0.125559 0.00018386 -0.00692935)
(0.123777 -0.00111738 -0.0125185)
(0.121048 -0.00249745 -0.0188018)
(0.117927 -0.00326633 -0.0245767)
(0.114903 -0.00301831 -0.0290177)
(0.112196 -0.00172413 -0.0319555)
(0.109738 0.000395134 -0.0338275)
(0.107234 0.00303929 -0.0354398)
(0.104269 0.00595545 -0.0377676)
(0.100292 0.00903048 -0.0419031)
(0.0946093 0.0121897 -0.0491743)
(0.0860484 0.0154263 -0.0620098)
(0.070294 0.0163603 -0.0797696)
(0.031166 0.00763154 -0.0675588)
(0.14081 0.00035999 -0.000709996)
(0.140859 0.000875185 -0.00244257)
(0.140322 0.000712061 -0.00566976)
(0.138428 -7.07241e-05 -0.0107584)
(0.135096 -0.00100728 -0.0170099)
(0.130839 -0.00151276 -0.0231834)
(0.126328 -0.00116615 -0.0282041)
(0.122075 0.000164447 -0.0316292)
(0.118275 0.00237909 -0.0337325)
(0.11478 0.00527975 -0.0352806)
(0.111238 0.00871421 -0.0372766)
(0.10704 0.0127027 -0.040862)
(0.10144 0.017284 -0.0473496)
(0.0930331 0.0229171 -0.0594032)
(0.0777175 0.0267865 -0.0775544)
(0.0344978 0.0150863 -0.0665998)
(0.150542 0.000355748 -0.000668247)
(0.150603 0.000999713 -0.00213296)
(0.150173 0.0012698 -0.00490019)
(0.148347 0.00116333 -0.00955904)
(0.144817 0.000943258 -0.0156304)
(0.139997 0.000991038 -0.021917)
(0.134632 0.0016258 -0.0272145)
(0.129418 0.0030121 -0.0308946)
(0.124759 0.00516428 -0.0330799)
(0.120679 0.0080513 -0.0344722)
(0.116963 0.0116789 -0.0360525)
(0.11299 0.0162815 -0.0389425)
(0.108185 0.0220737 -0.0443526)
(0.100631 0.0303936 -0.054877)
(0.0879822 0.0392821 -0.0727018)
(0.0409852 0.0282805 -0.0630135)
(0.155408 0.000364374 -0.00062839)
(0.155478 0.00111612 -0.0019406)
(0.155132 0.00180782 -0.00445113)
(0.153431 0.00242843 -0.00883552)
(0.149955 0.00304939 -0.0147199)
(0.145044 0.00380412 -0.0209511)
(0.139453 0.00484153 -0.0262784)
(0.133965 0.00629227 -0.029977)
(0.129121 0.00826859 -0.0320767)
(0.125069 0.0109066 -0.0332058)
(0.12177 0.0143859 -0.0342821)
(0.118633 0.0191489 -0.0363176)
(0.115774 0.02564 -0.0403475)
(0.109946 0.0360223 -0.0482554)
(0.106029 0.0539796 -0.0645613)
(0.0567354 0.0494241 -0.0546597)
(0.0201542 6.10776e-05 -0.00161658)
(0.0198225 0.000264437 -0.00365204)
(0.0193751 0.000290943 -0.00534115)
(0.0191705 0.000185793 -0.00673609)
(0.0193627 4.92106e-05 -0.00780638)
(0.0198433 -5.32053e-05 -0.00859204)
(0.0203925 -9.88444e-05 -0.0092052)
(0.0207885 -9.77081e-05 -0.0098044)
(0.020866 -8.21804e-05 -0.0105711)
(0.0205407 -9.52921e-05 -0.0116961)
(0.0197951 -0.000179709 -0.0133836)
(0.0186377 -0.000401494 -0.0158537)
(0.0170505 -0.000812574 -0.0193155)
(0.014698 -0.00135163 -0.0236447)
(0.0104607 -0.00168446 -0.0268986)
(0.00453682 -0.00136191 -0.0205859)
(0.0565447 0.000197866 -0.00184111)
(0.0560708 0.000280819 -0.00580933)
(0.0554517 -0.000163388 -0.00995775)
(0.0551027 -0.000855011 -0.0137689)
(0.0552991 -0.00142998 -0.0168271)
(0.0559255 -0.00165615 -0.0190159)
(0.0566346 -0.00149376 -0.0204929)
(0.0570219 -0.0010408 -0.0216002)
(0.0567351 -0.000456532 -0.0227744)
(0.0555392 0.000100589 -0.0244871)
(0.0532679 0.000491302 -0.0272182)
(0.049734 0.000568888 -0.031457)
(0.0446318 0.000185535 -0.0376598)
(0.0370083 -0.000716947 -0.0455307)
(0.0245552 -0.00189065 -0.0506519)
(0.00905573 -0.0023246 -0.0362675)
(0.0879815 0.000351579 -0.00129877)
(0.0876376 0.00042424 -0.00497346)
(0.0868609 -0.000426631 -0.0097629)
(0.0858521 -0.00178078 -0.0149332)
(0.0850105 -0.00299001 -0.0196274)
(0.0844902 -0.00354784 -0.023299)
(0.0841417 -0.00328553 -0.0258416)
(0.0836221 -0.00233179 -0.0275331)
(0.0825172 -0.000971407 -0.0289009)
(0.0804536 0.000501393 -0.0305939)
(0.0770778 0.00183497 -0.0332823)
(0.0719649 0.00282732 -0.0376592)
(0.064519 0.00328277 -0.0444129)
(0.0533486 0.00295457 -0.0534928)
(0.0350313 0.00141106 -0.0596922)
(0.0121529 -0.0011337 -0.0426627)
(0.114143 0.000377349 -0.000933961)
(0.113968 0.000576568 -0.00366721)
(0.113148 -0.000298538 -0.00789773)
(0.111473 -0.00192706 -0.0132776)
(0.109262 -0.00355471 -0.0188673)
(0.106928 -0.00445385 -0.0237415)
(0.104682 -0.00425555 -0.0273875)
(0.10246 -0.00300215 -0.0298256)
(0.0999784 -0.00100621 -0.0315156)
(0.0968331 0.00137354 -0.0331778)
(0.0925393 0.00381137 -0.0356161)
(0.0864717 0.00609705 -0.0396692)
(0.0777884 0.00806399 -0.0462123)
(0.0648207 0.00936043 -0.0555891)
(0.0429372 0.00841174 -0.0625727)
(0.0144652 0.00264878 -0.045226)
(0.135018 0.000350994 -0.000781964)
(0.134947 0.000716813 -0.00278616)
(0.134215 0.000144439 -0.00619106)
(0.132227 -0.00124944 -0.0111584)
(0.129018 -0.00281646 -0.0169755)
(0.125049 -0.00378855 -0.0225694)
(0.120822 -0.00365462 -0.0270832)
(0.116629 -0.00231258 -0.0302207)
(0.112473 2.57427e-05 -0.0322802)
(0.108067 0.00303282 -0.0339639)
(0.1029 0.006408 -0.036154)
(0.0962317 0.0100031 -0.0397886)
(0.0870277 0.0137523 -0.0458566)
(0.07347 0.0174179 -0.0550926)
(0.04974 0.0182009 -0.0625733)
(0.016709 0.00889313 -0.0456068)
(0.150645 0.000335705 -0.000720128)
(0.150609 0.00085563 -0.00231514)
(0.150003 0.000717356 -0.00506798)
(0.148 -9.95591e-05 -0.00949411)
(0.144325 -0.00115392 -0.0151786)
(0.13932 -0.00180979 -0.0210771)
(0.133611 -0.00155381 -0.0261288)
(0.12778 -0.000174082 -0.0297675)
(0.122136 0.00226817 -0.0321052)
(0.116597 0.00556856 -0.0337787)
(0.110761 0.00956095 -0.0356917)
(0.103857 0.0142615 -0.0388322)
(0.094754 0.0197851 -0.0442197)
(0.0816027 0.0263878 -0.0529368)
(0.057483 0.0304464 -0.0606371)
(0.0200203 0.0185306 -0.0442336)
(0.16106 0.000347442 -0.000680203)
(0.161021 0.00100236 -0.00205943)
(0.160521 0.0013046 -0.00440012)
(0.158643 0.0012049 -0.00838913)
(0.154883 0.000946788 -0.0138345)
(0.149432 0.00093651 -0.0197781)
(0.142933 0.00155501 -0.0250699)
(0.136136 0.00303046 -0.0289684)
(0.129583 0.00542401 -0.0314232)
(0.123408 0.00872674 -0.0329913)
(0.117398 0.0129699 -0.0345496)
(0.11083 0.0184386 -0.0370804)
(0.102693 0.0255073 -0.041539)
(0.0911129 0.0355524 -0.0492501)
(0.0691971 0.0453292 -0.0568963)
(0.0268114 0.0350078 -0.0408767)
(0.166268 0.00037338 -0.000641269)
(0.166231 0.00114469 -0.00189396)
(0.165814 0.00186547 -0.00400732)
(0.164092 0.00251891 -0.00772744)
(0.160458 0.00317575 -0.0129626)
(0.155005 0.0039779 -0.0188171)
(0.14836 0.00509917 -0.0241173)
(0.141342 0.00670439 -0.0280366)
(0.134641 0.00894192 -0.0304302)
(0.12855 0.0119918 -0.0317775)
(0.123078 0.0160922 -0.0328945)
(0.117614 0.0218068 -0.0346904)
(0.111826 0.0297715 -0.0379731)
(0.103152 0.0428368 -0.043992)
(0.0912624 0.0631938 -0.0514961)
(0.0425391 0.0590105 -0.0346425)
(0.0212689 2.91695e-05 -0.00152564)
(0.0208685 0.000216409 -0.00340169)
(0.0202956 0.000241527 -0.00495135)
(0.0199216 0.000131662 -0.00624988)
(0.0199184 -1.28135e-05 -0.00727022)
(0.0201806 -0.00012294 -0.00803778)
(0.0204785 -0.000173577 -0.00864138)
(0.0205722 -0.000174111 -0.00921374)
(0.0202765 -0.000157984 -0.0099085)
(0.0194874 -0.000169355 -0.0108817)
(0.0181681 -0.000253155 -0.0122822)
(0.0163089 -0.000458277 -0.0142343)
(0.0138769 -0.000815252 -0.0167716)
(0.0106265 -0.00125673 -0.0195223)
(0.00617407 -0.00163108 -0.0205674)
(0.00171094 -0.00156994 -0.0138216)
(0.0597095 0.000155981 -0.00169388)
(0.059124 0.000190522 -0.00527049)
(0.0582852 -0.000305982 -0.00900551)
(0.0576098 -0.00106614 -0.012485)
(0.0573975 -0.0017117 -0.0153418)
(0.0575425 -0.00198413 -0.0174452)
(0.0576878 -0.00182715 -0.0189019)
(0.0574035 -0.00134007 -0.0199907)
(0.0563025 -0.00069696 -0.0210841)
(0.0541093 -7.57263e-05 -0.0225815)
(0.0506242 0.000378005 -0.0248721)
(0.0456341 0.000521894 -0.0282735)
(0.0388334 0.000237288 -0.0329239)
(0.0294762 -0.000524297 -0.0380305)
(0.0168146 -0.00176105 -0.0392998)
(0.00430791 -0.00255202 -0.024594)
(0.0929123 0.000311308 -0.00118811)
(0.0924767 0.000339998 -0.00443709)
(0.0915031 -0.0005795 -0.00865585)
(0.090154 -0.00205879 -0.0132854)
(0.0888162 -0.00342318 -0.0175936)
(0.0876534 -0.00410533 -0.0210644)
(0.0865264 -0.00388525 -0.0235453)
(0.0850895 -0.00287709 -0.0252296)
(0.0829037 -0.0013871 -0.0265527)
(0.0795589 0.000252191 -0.0280694)
(0.0746523 0.00176146 -0.0303322)
(0.0677117 0.00292102 -0.033852)
(0.0581277 0.00354528 -0.0389486)
(0.0446435 0.00337218 -0.0448877)
(0.0258605 0.00174049 -0.0464314)
(0.00659742 -0.00121458 -0.0286139)
(0.120531 0.000339716 -0.000867871)
(0.120286 0.000516607 -0.00326021)
(0.119333 -0.000394163 -0.00690378)
(0.117394 -0.00214265 -0.0116174)
(0.114715 -0.00396286 -0.0166556)
(0.111678 -0.00505105 -0.0211949)
(0.108505 -0.00495145 -0.0247102)
(0.105167 -0.00365797 -0.0271338)
(0.101392 -0.00148975 -0.0288113)
(0.0967663 0.00115343 -0.0303448)
(0.0907557 0.00389746 -0.0324099)
(0.0826739 0.0065013 -0.0356535)
(0.0716366 0.00878601 -0.0405769)
(0.0559613 0.0103244 -0.0467114)
(0.0331662 0.00930515 -0.0486044)
(0.00848305 0.00310127 -0.029911)
(0.142571 0.000319273 -0.000739125)
(0.142427 0.000678478 -0.00250954)
(0.1416 0.00010945 -0.00538728)
(0.139445 -0.00135478 -0.00964585)
(0.135875 -0.00308381 -0.0147952)
(0.131247 -0.00424853 -0.0199322)
(0.126039 -0.00424062 -0.0242385)
(0.120589 -0.00288112 -0.027342)
(0.114962 -0.00036128 -0.0294105)
(0.108904 0.00296822 -0.0310123)
(0.101886 0.00676286 -0.0328854)
(0.0931037 0.0108419 -0.0357698)
(0.0814686 0.015129 -0.0402974)
(0.0650055 0.019244 -0.0463105)
(0.0398855 0.0200436 -0.0484912)
(0.0106035 0.0102517 -0.0297787)
(0.159076 0.000315868 -0.000684437)
(0.158952 0.000835878 -0.00212143)
(0.158256 0.000723921 -0.00442528)
(0.156154 -0.000110437 -0.00815201)
(0.152235 -0.00125972 -0.0131039)
(0.146678 -0.00205303 -0.0184537)
(0.140024 -0.00189533 -0.0232303)
(0.132882 -0.000494705 -0.0268143)
(0.125654 0.00213273 -0.0291828)
(0.118342 0.00578456 -0.0308201)
(0.110566 0.0102747 -0.0324789)
(0.101518 0.0156067 -0.0349469)
(0.0900168 0.0219204 -0.0389205)
(0.0739837 0.0293033 -0.0445587)
(0.0479777 0.0336095 -0.0469415)
(0.0140637 0.0212037 -0.0285435)
(0.170077 0.000343064 -0.000645028)
(0.169939 0.00100709 -0.00191158)
(0.169342 0.00134191 -0.00386511)
(0.1674 0.00125818 -0.0071815)
(0.163487 0.000975072 -0.0118673)
(0.157595 0.000913855 -0.0172065)
(0.150233 0.00150831 -0.0221768)
(0.142147 0.00304801 -0.0260068)
(0.133982 0.00564335 -0.0285134)
(0.125992 0.00930869 -0.0300943)
(0.11803 0.0140908 -0.0314744)
(0.109379 0.0202989 -0.0334432)
(0.0989858 0.0283914 -0.0366847)
(0.084863 0.0396476 -0.0416524)
(0.0605596 0.0500416 -0.0442083)
(0.0213108 0.0394465 -0.0261836)
(0.175579 0.00038348 -0.000608563)
(0.175439 0.00117746 -0.00177118)
(0.17492 0.0019297 -0.00353223)
(0.173155 0.00261805 -0.00660182)
(0.169426 0.0033108 -0.0110748)
(0.163616 0.00415595 -0.0163039)
(0.156191 0.00534886 -0.0212631)
(0.147948 0.00708634 -0.0251125)
(0.139679 0.00955103 -0.0275812)
(0.131821 0.0129617 -0.0289918)
(0.124486 0.0176008 -0.0300167)
(0.117115 0.0241048 -0.0313999)
(0.109323 0.0332259 -0.0337426)
(0.0987947 0.048043 -0.037649)
(0.0844441 0.0696376 -0.0406842)
(0.0372762 0.0642363 -0.022349)
(0.0221939 -2.8256e-07 -0.00136137)
(0.021731 0.000173477 -0.00300439)
(0.0210485 0.0001943 -0.00435485)
(0.0205305 7.81972e-05 -0.00549847)
(0.0203635 -7.54992e-05 -0.00641353)
(0.0204445 -0.00019493 -0.00711424)
(0.0205353 -0.000252378 -0.00766688)
(0.0203826 -0.000256195 -0.00817589)
(0.0197896 -0.000239962 -0.00876304)
(0.0186442 -0.000246685 -0.00954682)
(0.0169133 -0.000325026 -0.0106262)
(0.0146034 -0.000501578 -0.0120577)
(0.0117165 -0.000791493 -0.0137866)
(0.008156 -0.00112904 -0.0154016)
(0.0040234 -0.00145038 -0.0153587)
(0.000603384 -0.00138258 -0.00956953)
(0.0623458 0.000118618 -0.0014823)
(0.0616597 0.000107051 -0.00456002)
(0.0606317 -0.000434185 -0.00776693)
(0.0596849 -0.00125672 -0.0107841)
(0.0591359 -0.00196983 -0.0133048)
(0.058885 -0.00229086 -0.0152005)
(0.0585658 -0.00214677 -0.0165367)
(0.057728 -0.00163565 -0.0175285)
(0.0559627 -0.000943057 -0.0184752)
(0.0529723 -0.000263094 -0.0196961)
(0.0485649 0.000260541 -0.0214814)
(0.0425617 0.000493507 -0.0240213)
(0.0347439 0.000347844 -0.0272782)
(0.0246977 -0.000222066 -0.0303718)
(0.0126915 -0.00134938 -0.0297996)
(0.0023079 -0.00222987 -0.0172654)
(0.0970157 0.000276461 -0.00103575)
(0.0965008 0.00026535 -0.0037933)
(0.0953615 -0.000711571 -0.00735087)
(0.0937318 -0.00229915 -0.011301)
(0.0919922 -0.00380431 -0.0150475)
(0.0903078 -0.00460708 -0.0181352)
(0.0885427 -0.00443873 -0.020394)
(0.0863479 -0.00339509 -0.0219463)
(0.0832703 -0.00179696 -0.0231308)
(0.0788877 -1.04782e-05 -0.0243918)
(0.0727911 0.00166854 -0.0261661)
(0.0645295 0.00300944 -0.0288029)
(0.0535915 0.00384609 -0.0323994)
(0.0390798 0.00390853 -0.0360374)
(0.020914 0.00238928 -0.0353253)
(0.00420807 -0.000758495 -0.020008)
(0.125854 0.00030694 -0.0007647)
(0.125541 0.00046404 -0.00278209)
(0.124469 -0.000474121 -0.00580291)
(0.122315 -0.00232001 -0.00975325)
(0.119268 -0.00430718 -0.0140682)
(0.115673 -0.00557027 -0.0180567)
(0.111751 -0.00557464 -0.0212284)
(0.107494 -0.00426417 -0.0234622)
(0.102651 -0.00195668 -0.0249983)
(0.0968156 0.000916313 -0.0263118)
(0.0894532 0.00393642 -0.0279391)
(0.0798912 0.00684159 -0.0303553)
(0.067318 0.0094456 -0.0338155)
(0.0503359 0.0112718 -0.0375753)
(0.0279522 0.0103427 -0.0369584)
(0.00596009 0.00385303 -0.0207213)
(0.148866 0.000292159 -0.000658282)
(0.148651 0.000641282 -0.00216753)
(0.14773 8.05102e-05 -0.00452093)
(0.145433 -0.00143376 -0.00802646)
(0.141586 -0.00329619 -0.0123691)
(0.136452 -0.0046326 -0.0168289)
(0.13047 -0.00475011 -0.0206808)
(0.123999 -0.00339552 -0.0235317)
(0.117159 -0.000734361 -0.025447)
(0.109747 0.00286896 -0.0268576)
(0.101257 0.00702857 -0.0283465)
(0.0909056 0.0115334 -0.0304739)
(0.0776598 0.0162872 -0.0336207)
(0.0597149 0.0208084 -0.0372866)
(0.0347284 0.0217292 -0.0368217)
(0.00809859 0.0115423 -0.0204483)
(0.166104 0.000300765 -0.000609325)
(0.165899 0.000818327 -0.00185526)
(0.165106 0.000731371 -0.00373081)
(0.162906 -0.000108296 -0.00675511)
(0.158805 -0.00132997 -0.0108746)
(0.152841 -0.00224165 -0.0154695)
(0.145463 -0.00218017 -0.0197096)
(0.137274 -0.00077961 -0.0229907)
(0.128748 0.00199105 -0.0251997)
(0.119981 0.00593508 -0.0266761)
(0.110653 0.0108457 -0.028011)
(0.0999955 0.016707 -0.029809)
(0.08689 0.0236518 -0.0325284)
(0.0693199 0.0316301 -0.0359439)
(0.0431314 0.0361725 -0.0356589)
(0.011726 0.0232885 -0.0194782)
(0.177594 0.000341454 -0.000572949)
(0.177367 0.00101307 -0.00168638)
(0.176664 0.00137819 -0.00327809)
(0.174645 0.00131581 -0.00594369)
(0.170619 0.00101867 -0.00980176)
(0.164418 0.000915676 -0.0143492)
(0.156413 0.00148319 -0.0187353)
(0.147317 0.0030655 -0.0222337)
(0.137844 0.00582065 -0.0245849)
(0.128363 0.00978433 -0.0260442)
(0.118829 0.0150109 -0.0271751)
(0.108592 0.0218156 -0.0285888)
(0.0966757 0.0306847 -0.0307629)
(0.0811325 0.0427713 -0.0337618)
(0.0562729 0.0535674 -0.0337563)
(0.0192909 0.0425492 -0.0178875)
(0.18334 0.000393928 -0.000540342)
(0.18311 0.00121033 -0.00157014)
(0.182482 0.00199327 -0.00300593)
(0.180652 0.00271627 -0.00545879)
(0.176853 0.00344326 -0.00911964)
(0.170805 0.00432643 -0.0135512)
(0.162817 0.00557843 -0.0179126)
(0.153628 0.00742381 -0.0214267)
(0.144096 0.0100751 -0.0237588)
(0.134786 0.0137829 -0.0250966)
(0.125936 0.0188595 -0.0259602)
(0.117082 0.0259808 -0.0269337)
(0.107914 0.0359529 -0.0284586)
(0.0962787 0.0518969 -0.0308198)
(0.0811472 0.0741828 -0.0315072)
(0.0353179 0.0675715 -0.0154162)
(0.0229311 -2.56484e-05 -0.00113279)
(0.0224148 0.000136295 -0.00247986)
(0.0216407 0.000152946 -0.0035816)
(0.0210048 3.06663e-05 -0.00452175)
(0.0207061 -0.000132089 -0.00528416)
(0.0206435 -0.000260921 -0.00587537)
(0.0205726 -0.000325655 -0.00634178)
(0.020231 -0.000333364 -0.00676036)
(0.0194151 -0.000317459 -0.00722149)
(0.0180153 -0.000320854 -0.00780995)
(0.0160096 -0.000388519 -0.0085866)
(0.0134308 -0.000534265 -0.00956828)
(0.0103259 -0.000761174 -0.010675)
(0.00671033 -0.00100866 -0.0115524)
(0.00292284 -0.00125658 -0.0110773)
(0.000153228 -0.00116806 -0.00659583)
(0.0644529 8.76453e-05 -0.00121461)
(0.0636824 3.74753e-05 -0.00370608)
(0.0624985 -0.000541151 -0.00629264)
(0.0613324 -0.00141671 -0.00874335)
(0.0605157 -0.00218936 -0.0108174)
(0.059953 -0.00255606 -0.0124015)
(0.0592693 -0.00242824 -0.0135314)
(0.0579994 -0.00190117 -0.014363)
(0.0557207 -0.00116839 -0.0151224)
(0.0521344 -0.000433414 -0.0160502)
(0.0470676 0.000154532 -0.0173474)
(0.0403964 0.000477922 -0.0191247)
(0.0320084 0.000471161 -0.021274)
(0.0217575 8.49476e-05 -0.0230275)
(0.0104283 -0.000898481 -0.0217861)
(0.00142004 -0.00183379 -0.0120658)
(0.100297 0.000248144 -0.000846281)
(0.0997151 0.00020421 -0.00305399)
(0.0984389 -0.000818483 -0.00588612)
(0.0965849 -0.00249427 -0.00905453)
(0.09453 -0.0041187 -0.012102)
(0.092438 -0.00502902 -0.0146567)
(0.0901731 -0.00491354 -0.0165571)
(0.0873837 -0.00384898 -0.0178725)
(0.0836128 -0.0021652 -0.0188502)
(0.0784347 -0.000252068 -0.0198246)
(0.0714582 0.00157578 -0.0211241)
(0.0622896 0.00308696 -0.0229752)
(0.050535 0.00413158 -0.0253684)
(0.0356202 0.0044313 -0.0274648)
(0.0181581 0.00307531 -0.0259461)
(0.00313283 -0.00021075 -0.0139918)
(0.130112 0.000279748 -0.000629483)
(0.129741 0.000418832 -0.0022411)
(0.128565 -0.00053769 -0.00461405)
(0.12624 -0.00245812 -0.00773746)
(0.122909 -0.00458156 -0.0112044)
(0.118884 -0.00599514 -0.0144719)
(0.114382 -0.00609729 -0.0171223)
(0.109406 -0.0047852 -0.0190168)
(0.103726 -0.00236982 -0.0203102)
(0.0969555 0.000688902 -0.0213542)
(0.0885817 0.00394475 -0.0225516)
(0.07798 0.00711291 -0.0242382)
(0.0644443 0.0100023 -0.0265301)
(0.0468718 0.0121016 -0.0286999)
(0.0250818 0.0113161 -0.0271618)
(0.00486031 0.00460186 -0.0144252)
(0.153902 0.000270849 -0.000545383)
(0.153627 0.000608913 -0.00176195)
(0.152619 5.79292e-05 -0.00359458)
(0.150202 -0.00148989 -0.00632804)
(0.146144 -0.00345639 -0.00977395)
(0.140632 -0.00493616 -0.0133921)
(0.134061 -0.00516725 -0.0165886)
(0.126798 -0.00383069 -0.019001)
(0.119008 -0.00106469 -0.0206275)
(0.110543 0.00275772 -0.0217773)
(0.100943 0.00721695 -0.0228832)
(0.089474 0.0120729 -0.0243531)
(0.0751955 0.0172074 -0.0264117)
(0.0565261 0.0220673 -0.0285146)
(0.0319552 0.0231376 -0.0270542)
(0.00705894 0.0126265 -0.0141666)
(0.171726 0.000289969 -0.000503261)
(0.171454 0.000804281 -0.00152078)
(0.170569 0.000738713 -0.00297979)
(0.168277 -9.8845e-05 -0.00531314)
(0.164037 -0.00137284 -0.00854642)
(0.157778 -0.00238038 -0.0122414)
(0.149863 -0.00240483 -0.0157381)
(0.140873 -0.00101707 -0.0185071)
(0.131338 0.00185743 -0.0203956)
(0.121438 0.0060317 -0.0216216)
(0.110928 0.0112782 -0.0226249)
(0.0991102 0.0175585 -0.023851)
(0.0849568 0.0249849 -0.025598)
(0.0665924 0.0334052 -0.0275424)
(0.0406069 0.0381513 -0.0262294)
(0.01083 0.0248627 -0.0134647)
(0.183607 0.00034103 -0.000472584)
(0.183308 0.00101902 -0.00139063)
(0.182506 0.00141032 -0.0026319)
(0.180407 0.00137043 -0.00467435)
(0.17629 0.00106744 -0.00767756)
(0.169872 0.000932368 -0.0113093)
(0.161404 0.00147408 -0.0149087)
(0.151548 0.00308216 -0.0178554)
(0.141065 0.00595696 -0.0198733)
(0.130423 0.0101524 -0.0211077)
(0.119682 0.0157255 -0.0219718)
(0.108285 0.0229868 -0.0229199)
(0.0953543 0.0324205 -0.0242813)
(0.0790411 0.0450728 -0.0259796)
(0.0541216 0.0561471 -0.0249462)
(0.0186179 0.0447638 -0.0124132)
(0.18955 0.000403667 -0.000445301)
(0.189248 0.00124024 -0.00129868)
(0.188518 0.00205047 -0.00242024)
(0.186614 0.00280492 -0.00429202)
(0.182757 0.00356261 -0.00712796)
(0.176549 0.00447791 -0.0106527)
(0.168164 0.00577655 -0.0142217)
(0.158275 0.00770556 -0.0171796)
(0.147773 0.0105016 -0.019191)
(0.137331 0.0144401 -0.0203454)
(0.127309 0.0198522 -0.0210209)
(0.117349 0.0274329 -0.0216566)
(0.107241 0.0380048 -0.0225707)
(0.0949664 0.0546749 -0.0238991)
(0.0796065 0.0773924 -0.0235213)
(0.0346642 0.0698788 -0.0107693)
(0.0234826 -4.4224e-05 -0.000849844)
(0.0229237 0.00010625 -0.00185014)
(0.0220781 0.000119181 -0.00266469)
(0.021352 -8.71985e-06 -0.00336333)
(0.0209542 -0.00017961 -0.00393534)
(0.0207854 -0.000316912 -0.00438272)
(0.0205972 -0.000388332 -0.00473535)
(0.0201207 -0.000399685 -0.00504524)
(0.0191499 -0.000383914 -0.00537379)
(0.0175791 -0.000383367 -0.00577659)
(0.0154023 -0.000438205 -0.00629041)
(0.0126751 -0.000560374 -0.00691239)
(0.00947816 -0.000738273 -0.00757157)
(0.00589678 -0.000916584 -0.00800921)
(0.00236811 -0.0011022 -0.00747825)
(-2.25189e-05 -0.00100279 -0.00432958)
(0.0660307 6.45585e-05 -0.000900583)
(0.0651943 -1.60605e-05 -0.00273427)
(0.0638907 -0.000624012 -0.00463097)
(0.0625584 -0.00154138 -0.00643633)
(0.061542 -0.00236227 -0.00797835)
(0.060749 -0.00276764 -0.00916892)
(0.0597984 -0.00265596 -0.0100247)
(0.0582144 -0.00211913 -0.0106497)
(0.0555674 -0.0013559 -0.0112001)
(0.0515626 -0.000577256 -0.0118412)
(0.046052 6.65214e-05 -0.0127074)
(0.0389635 0.000466679 -0.0138555)
(0.030274 0.000575122 -0.0151758)
(0.020012 0.000337104 -0.016098)
(0.00919958 -0.00052413 -0.0148625)
(0.00103083 -0.00150521 -0.00800779)
(0.102757 0.000226549 -0.000626087)
(0.102121 0.000157242 -0.00223827)
(0.100739 -0.000898884 -0.00429575)
(0.0987161 -0.00264124 -0.00660821)
(0.0964276 -0.00435886 -0.00885464)
(0.0940363 -0.0053566 -0.0107608)
(0.091405 -0.00528808 -0.0121954)
(0.0881804 -0.00421287 -0.0131924)
(0.0839047 -0.00246587 -0.013918)
(0.0781572 -0.000454892 -0.0146051)
(0.0705719 0.00149268 -0.0154763)
(0.0608108 0.00314567 -0.016675)
(0.0485832 0.00436407 -0.0181568)
(0.0335405 0.00486127 -0.019283)
(0.0166378 0.00365159 -0.0177775)
(0.00265718 0.00025638 -0.00930737)
(0.133304 0.000258925 -0.000467922)
(0.132886 0.000383858 -0.00164437)
(0.131629 -0.000584378 -0.0033517)
(0.129172 -0.00255809 -0.00560697)
(0.125632 -0.0047847 -0.00813903)
(0.121297 -0.00631716 -0.0105592)
(0.116372 -0.00650159 -0.0125502)
(0.11087 -0.00519607 -0.0139879)
(0.104578 -0.00270289 -0.0149626)
(0.0971313 0.00049675 -0.0157157)
(0.088047 0.00393601 -0.0165234)
(0.076751 0.00731247 -0.0176101)
(0.0626334 0.0104301 -0.0190228)
(0.0448103 0.0127532 -0.0201912)
(0.0235168 0.0121043 -0.018632)
(0.00439471 0.00521311 -0.00957993)
(0.157679 0.000255287 -0.000406481)
(0.157357 0.000584695 -0.00130008)
(0.156277 4.21419e-05 -0.00261224)
(0.153763 -0.00152681 -0.00456616)
(0.14955 -0.00356909 -0.00705926)
(0.143768 -0.00515935 -0.00971938)
(0.136774 -0.00548346 -0.0121084)
(0.128938 -0.00416945 -0.013936)
(0.120452 -0.00133174 -0.0151701)
(0.111221 0.00265468 -0.0160167)
(0.100834 0.00734155 -0.0167699)
(0.088609 0.012465 -0.0177081)
(0.0736901 0.0178876 -0.0189613)
(0.0546738 0.0230074 -0.0200858)
(0.0304837 0.0242124 -0.0185652)
(0.00665431 0.0134505 -0.00938756)
(0.175943 0.000282724 -0.000374243)
(0.175618 0.000793594 -0.00112836)
(0.174657 0.000745155 -0.0021734)
(0.172287 -8.67578e-05 -0.00382876)
(0.167941 -0.00139608 -0.00614879)
(0.161476 -0.00247558 -0.00884719)
(0.153183 -0.00256955 -0.0114482)
(0.143618 -0.00119956 -0.0135421)
(0.133349 0.00174497 -0.0149844)
(0.122625 0.00608857 -0.0158983)
(0.11127 0.0115848 -0.0165886)
(0.098656 0.0181744 -0.0173614)
(0.0838384 0.0259477 -0.0184046)
(0.0650663 0.0346828 -0.0194344)
(0.0393205 0.0395904 -0.0180216)
(0.0105348 0.0259911 -0.00891907)
(0.188118 0.000341294 -0.000350944)
(0.187764 0.00102394 -0.00103584)
(0.186879 0.00143609 -0.00192738)
(0.184708 0.00141643 -0.0033695)
(0.180519 0.00111272 -0.0055111)
(0.173952 0.000954852 -0.00814939)
(0.165165 0.00147487 -0.0108168)
(0.154771 0.0030969 -0.0130417)
(0.143558 0.00605599 -0.0145857)
(0.132071 0.0104188 -0.0155194)
(0.120462 0.016244 -0.0161228)
(0.108257 0.023833 -0.0167105)
(0.0946691 0.033658 -0.0174994)
(0.0779402 0.0466882 -0.0183907)
(0.0530853 0.0579603 -0.0171984)
(0.0184787 0.0463039 -0.00824842)
(0.194209 0.000411776 -0.000330395)
(0.193852 0.00126467 -0.00096917)
(0.193039 0.00209698 -0.00177627)
(0.191066 0.00287726 -0.00309429)
(0.187157 0.0036602 -0.00510924)
(0.180843 0.00460082 -0.00766171)
(0.172192 0.005934 -0.0103007)
(0.161812 0.00792367 -0.0125327)
(0.150613 0.0108245 -0.0140767)
(0.139346 0.0149297 -0.0149626)
(0.128475 0.0205824 -0.0154437)
(0.117734 0.0284852 -0.0158264)
(0.107002 0.0394604 -0.0163261)
(0.0943621 0.0565909 -0.0170122)
(0.0789642 0.079594 -0.0163146)
(0.0345371 0.0714603 -0.0071785)
(0.023848 -5.6538e-05 -0.000522033)
(0.0232597 8.47047e-05 -0.00113469)
(0.022366 9.37127e-05 -0.0016302)
(0.021579 -3.97786e-05 -0.00205601)
(0.021115 -0.000218099 -0.00240695)
(0.0208765 -0.000362707 -0.00268312)
(0.0206123 -0.000439687 -0.00290085)
(0.0200501 -0.000453997 -0.00308966)
(0.0189829 -0.000438225 -0.00328452)
(0.017309 -0.000433919 -0.00351633)
(0.0150344 -0.000480972 -0.00380421)
(0.0122318 -0.000586216 -0.00414223)
(0.00900283 -0.000731446 -0.00448302)
(0.00546901 -0.000864218 -0.00467382)
(0.00210496 -0.00100656 -0.00429382)
(-7.97797e-05 -0.000901686 -0.00244424)
(0.0670792 4.94373e-05 -0.000548404)
(0.0661969 -5.24001e-05 -0.00166481)
(0.0648133 -0.000681126 -0.00281466)
(0.0633694 -0.00162817 -0.00391146)
(0.0622205 -0.00248405 -0.00485412)
(0.0612764 -0.00291842 -0.00558711)
(0.0601519 -0.00282013 -0.00611649)
(0.0583647 -0.00227824 -0.00650102)
(0.0554822 -0.00149476 -0.00683114)
(0.0512131 -0.000686368 -0.00720237)
(0.0454315 -2.51483e-06 -0.00769223)
(0.0381045 0.000453026 -0.00832503)
(0.0292667 0.000641935 -0.00902596)
(0.0190469 0.000505248 -0.00945286)
(0.0085699 -0.000271322 -0.00859919)
(0.000875617 -0.00128611 -0.0045573)
(0.104394 0.000212278 -0.000380254)
(0.10372 0.000126218 -0.00135685)
(0.102266 -0.000951475 -0.00259691)
(0.10013 -0.00273808 -0.0039932)
(0.0976874 -0.00451989 -0.00535867)
(0.0951 -0.00557993 -0.00652673)
(0.0922295 -0.00554716 -0.00741245)
(0.0887216 -0.00446805 -0.00802948)
(0.0841184 -0.00267964 -0.00847198)
(0.0780063 -0.000603269 -0.00887614)
(0.0700417 0.00142856 -0.00937001)
(0.0599265 0.00318187 -0.0100318)
(0.0474427 0.00452279 -0.0108231)
(0.0323776 0.00515828 -0.0113554)
(0.0158464 0.00405277 -0.0103169)
(0.00246517 0.000580457 -0.00530643)
(0.13543 0.000245296 -0.000284982)
(0.134978 0.000360929 -0.000997066)
(0.133666 -0.000613476 -0.00201963)
(0.131119 -0.00262058 -0.0033713)
(0.127442 -0.00491602 -0.00490058)
(0.122904 -0.00653096 -0.00637645)
(0.117704 -0.00677536 -0.00760207)
(0.111859 -0.00547889 -0.00849293)
(0.105168 -0.00293556 -0.00909395)
(0.0972859 0.000357843 -0.00954505)
(0.087753 0.00392188 -0.0100049)
(0.0760338 0.00744166 -0.0106024)
(0.0615882 0.0107171 -0.011354)
(0.0436681 0.0131964 -0.0119072)
(0.0227112 0.012648 -0.0108236)
(0.00421948 0.00563365 -0.00545846)
(0.160196 0.000245255 -0.000247563)
(0.15984 0.000568898 -0.00079077)
(0.158708 3.31476e-05 -0.0015743)
(0.156127 -0.00154699 -0.00273712)
(0.151812 -0.00363792 -0.00423294)
(0.145856 -0.00530316 -0.00584697)
(0.13859 -0.00569353 -0.00731263)
(0.130382 -0.00439983 -0.00844412)
(0.121444 -0.00152005 -0.00920914)
(0.111716 0.00257606 -0.00972343)
(0.100827 0.0074157 -0.0101556)
(0.0881355 0.0127189 -0.0106679)
(0.0728468 0.0183342 -0.0113274)
(0.0536715 0.0236299 -0.0118556)
(0.0297474 0.0249337 -0.0107896)
(0.00652443 0.0140004 -0.00534394)
(0.178754 0.000278129 -0.000227955)
(0.178391 0.000786428 -0.00068908)