/*--------------------------------*- C++ -*----------------------------------*\
| =========                 |                                                 |
| \\      /  F ield         | foam-extend: Open Source CFD                    |
|  \\    /   O peration     | Version:     3.1                                |
|   \\  /    A nd           | Web:         http://www.extend-project.de       |
|    \\/     M anipulation  |                                                 |
\*---------------------------------------------------------------------------*/
FoamFile
{
    version     2.0;
    format      ascii;
    class       volVectorField;
    location    "3.8";
    object      D;
}
// * * * * * * * * * * * * * * * * * * * * * * * * * * * * * * * * * * * * * //

dimensions      [0 1 0 0 0 0 0];

internalField   nonuniform List<vector> 
256
(
(0.000262818 0.000176698 0.00030093)
(0.000111011 3.43259e-05 8.95072e-05)
(9.86246e-05 -5.22052e-05 -0.000109063)
(0.000223565 -0.000195377 -0.000333855)
(0.00110487 0.000725554 0.000245721)
(0.000916503 0.00019407 8.49691e-05)
(0.000881187 -0.000229617 -0.000153232)
(0.000992647 -0.000758722 -0.000339721)
(0.00217462 0.00112117 0.000168118)
(0.00198537 0.000325718 3.58296e-05)
(0.00193673 -0.000374603 -0.000147634)
(0.00202391 -0.00117326 -0.000308044)
(0.00345122 0.00142675 5.55022e-05)
(0.00327978 0.000420847 -1.63277e-05)
(0.00322203 -0.000499078 -0.000135163)
(0.00327205 -0.00150999 -0.000237531)
(0.00486335 0.0016336 -6.00684e-05)
(0.00470797 0.000478492 -6.91888e-05)
(0.0046437 -0.00060058 -0.000119844)
(0.00466319 -0.00175883 -0.000160428)
(0.00634429 0.0017607 -0.000166769)
(0.0062032 0.000505776 -0.000119179)
(0.00613435 -0.000681954 -0.000108069)
(0.00612971 -0.00193456 -9.02756e-05)
(0.00784076 0.0018269 -0.00025658)
(0.00770868 0.000510268 -0.000166845)
(0.00763551 -0.000745025 -0.000104272)
(0.00761509 -0.00205037 -3.79924e-05)
(0.00932553 0.00185127 -0.000330553)
(0.00918401 0.000502327 -0.000214642)
(0.00910104 -0.000790993 -0.000111005)
(0.00907674 -0.00212303 -1.4562e-05)
(0.000296784 0.00017525 0.000150236)
(0.000148909 3.59259e-05 4.64251e-05)
(0.000136253 -4.68288e-05 -6.34781e-05)
(0.000251858 -0.000183601 -0.000180125)
(0.0011789 0.000722248 0.000137636)
(0.000967055 0.000198002 4.15332e-05)
(0.000934049 -0.000218196 -0.000101254)
(0.00107089 -0.000741123 -0.000215525)
(0.00223134 0.00113614 8.93693e-05)
(0.0020421 0.000337741 8.99633e-06)
(0.00199612 -0.000369634 -0.000107747)
(0.00208556 -0.00117178 -0.000207346)
(0.00347696 0.00144784 1.25864e-05)
(0.00330766 0.0004373 -2.99807e-05)
(0.00325267 -0.000493501 -0.000104565)
(0.00330248 -0.00150946 -0.000167704)
(0.00484861 0.0016594 -7.14444e-05)
(0.00469825 0.000498941 -7.07834e-05)
(0.00463652 -0.000592172 -9.81259e-05)
(0.00465243 -0.0017554 -0.000118238)
(0.00628841 0.00178851 -0.000151458)
(0.00615345 0.000529081 -0.00011057)
(0.00608699 -0.000668564 -9.37252e-05)
(0.0060771 -0.00192416 -7.21631e-05)
(0.00774764 0.00185485 -0.000220454)
(0.00762313 0.000535016 -0.000148876)
(0.00755263 -0.00072579 -9.58062e-05)
(0.00752545 -0.00203094 -3.94375e-05)
(0.0092047 0.00187807 -0.000276555)
(0.00907115 0.000526841 -0.000185818)
(0.00899118 -0.000766929 -0.000108135)
(0.00896028 -0.00209524 -3.05417e-05)
(0.000312577 0.000180991 7.3205e-05)
(0.000155511 3.85121e-05 2.17278e-05)
(0.000140838 -4.71618e-05 -3.74948e-05)
(0.000260867 -0.000187722 -9.7116e-05)
(0.00121318 0.000717531 6.70074e-05)
(0.000982598 0.000198993 1.40791e-05)
(0.000947317 -0.000210435 -6.57399e-05)
(0.00109781 -0.000729447 -0.000129868)
(0.00226174 0.00112987 3.50727e-05)
(0.00205829 0.000341334 -9.30375e-06)
(0.00200991 -0.000358682 -7.61692e-05)
(0.00210884 -0.00115267 -0.000131618)
(0.0034909 0.00144174 -1.67057e-05)
(0.00331189 0.000443586 -3.81787e-05)
(0.00325431 -0.000478936 -7.89006e-05)
(0.00330879 -0.00148335 -0.000111711)
(0.0048395 0.00165638 -7.54455e-05)
(0.00468237 0.00050862 -6.89938e-05)
(0.00461785 -0.000574012 -7.87725e-05)
(0.00463508 -0.0017242 -8.33434e-05)
(0.00625367 0.00179034 -0.000133158)
(0.00611421 0.000542376 -9.97906e-05)
(0.00604491 -0.000646855 -7.97852e-05)
(0.00603372 -0.00188891 -5.61836e-05)
(0.00768844 0.00186304 -0.000184217)
(0.00756151 0.000551666 -0.000129912)
(0.00748835 -0.000700997 -8.58105e-05)
(0.00745767 -0.00199291 -3.84685e-05)
(0.00912686 0.00189373 -0.000225752)
(0.00899272 0.000546372 -0.000158827)
(0.00890957 -0.000739875 -0.000100708)
(0.0088721 -0.00205569 -3.97935e-05)
(0.000318497 0.000184326 3.36899e-05)
(0.000154748 3.9839e-05 8.77824e-06)
(0.000138371 -4.73058e-05 -2.21063e-05)
(0.000261699 -0.000189962 -5.15009e-05)
(0.00122585 0.000714494 2.68763e-05)
(0.000983537 0.000199629 -2.2201e-08)
(0.00094548 -0.00020463 -4.26305e-05)
(0.00110259 -0.000720223 -7.63386e-05)
(0.00227162 0.00112237 3.87291e-06)
(0.00205753 0.000343039 -1.76549e-05)
(0.00200618 -0.000347948 -5.30659e-05)
(0.00211067 -0.00113313 -8.09226e-05)
(0.00349151 0.00143269 -3.17014e-05)
(0.00330414 0.000447148 -3.90883e-05)
(0.00324352 -0.000463767 -5.82635e-05)
(0.00330134 -0.00145559 -7.17964e-05)
(0.00482657 0.00164869 -7.25272e-05)
(0.00466313 0.000514847 -6.2137e-05)
(0.00459554 -0.000555008 -6.13921e-05)
(0.00461403 -0.00169065 -5.67046e-05)
(0.00622495 0.00178638 -0.000113572)
(0.00608093 0.000551833 -8.55935e-05)
(0.00600861 -0.000624707 -6.53085e-05)
(0.00599687 -0.00185168 -4.20487e-05)
(0.00764391 0.00186455 -0.000150818)
(0.00751394 0.000564505 -0.000108953)
(0.00743778 -0.000676465 -7.30386e-05)
(0.00740483 -0.00195378 -3.40138e-05)
(0.00906949 0.00190154 -0.000181386)
(0.00893314 0.0005626 -0.000131558)
(0.00884609 -0.000713562 -8.7841e-05)
(0.00880404 -0.00201583 -4.05127e-05)
(0.000320504 0.000185901 1.40517e-05)
(0.000152674 4.05708e-05 2.57232e-06)
(0.000135091 -4.72152e-05 -1.28584e-05)
(0.000260045 -0.000190589 -2.66111e-05)
(0.00122895 0.000712526 6.62499e-06)
(0.00097943 0.000200395 -5.75769e-06)
(0.000939136 -0.000200144 -2.73099e-05)
(0.00109934 -0.00071267 -4.38263e-05)
(0.00227162 0.00111725 -1.03629e-05)
(0.00205053 0.000344665 -1.89993e-05)
(0.00199675 -0.000339083 -3.61239e-05)
(0.00210401 -0.00111741 -4.84192e-05)
(0.00348545 0.00142613 -3.49291e-05)
(0.00329213 0.000450199 -3.46511e-05)
(0.0032291 -0.00045089 -4.1618e-05)
(0.00328874 -0.00143287 -4.47175e-05)
(0.00481208 0.0016427 -6.30463e-05)
(0.0046439 0.000519922 -5.14918e-05)
(0.00457397 -0.000538716 -4.57905e-05)
(0.00459319 -0.0016627 -3.72172e-05)
(0.00620048 0.00178277 -9.17161e-05)
(0.00605285 0.000559371 -6.88478e-05)
(0.00597828 -0.000605702 -5.05951e-05)
(0.0059662 -0.00182031 -3.00095e-05)
(0.00760893 0.00186463 -0.00011826)
(0.00747635 0.000574648 -8.63825e-05)
(0.00739791 -0.00065546 -5.82236e-05)
(0.00736353 -0.00192049 -2.74211e-05)
(0.00902499 0.00190588 -0.000140181)
(0.00888656 0.000575392 -0.000103456)
(0.00879651 -0.000691019 -7.10969e-05)
(0.00875147 -0.00198165 -3.54142e-05)
(0.000321076 0.000186604 4.93213e-06)
(0.000150865 4.09953e-05 4.5554e-08)
(0.000132467 -4.70302e-05 -7.21608e-06)
(0.000258077 -0.000190499 -1.31779e-05)
(0.00122848 0.000711317 -1.69626e-06)
(0.000974635 0.000201184 -6.63489e-06)
(0.00093275 -0.000196826 -1.67704e-05)
(0.0010943 -0.000706901 -2.41595e-05)
(0.00226816 0.00111427 -1.36502e-05)
(0.00204268 0.000346263 -1.59753e-05)
(0.00198717 -0.000332441 -2.32997e-05)
(0.00209572 -0.00110594 -2.77234e-05)
(0.00347773 0.00142229 -2.99493e-05)
(0.00328051 0.000452928 -2.67456e-05)
(0.00321579 -0.00044115 -2.78614e-05)
(0.0032763 -0.0014163 -2.65204e-05)
(0.0047989 0.00163917 -4.84621e-05)
(0.0046275 0.000524125 -3.83117e-05)
(0.00455596 -0.000526316 -3.16582e-05)
(0.00457551 -0.00164213 -2.30852e-05)
(0.00618086 0.00178066 -6.74876e-05)
(0.00603069 0.000565295 -5.03274e-05)
(0.0059546 -0.000591185 -3.59495e-05)
(0.00594227 -0.00179694 -1.99204e-05)
(0.00758225 0.00186475 -8.53457e-05)
(0.00744774 0.00058236 -6.25835e-05)
(0.00736779 -0.000639376 -4.21923e-05)
(0.00733253 -0.00189538 -1.98353e-05)
(0.00899141 0.0019086 -0.000100164)
(0.00885129 0.000584935 -7.4562e-05)
(0.00875925 -0.000673705 -5.19971e-05)
(0.00871244 -0.00195555 -2.68932e-05)
(0.000321181 0.000186888 1.26101e-06)
(0.00014966 4.12347e-05 -5.66291e-07)
(0.000130756 -4.68563e-05 -3.63258e-06)
(0.000256568 -0.000190222 -5.91585e-06)
(0.00122722 0.000710621 -3.26062e-06)
(0.000970943 0.000201815 -4.8442e-06)
(0.000928048 -0.000194631 -9.06868e-06)
(0.00109011 -0.000703024 -1.19493e-05)
(0.00226461 0.00111271 -1.04247e-05)
(0.00203657 0.000347536 -1.04305e-05)
(0.00197995 -0.000328049 -1.30491e-05)
(0.00208905 -0.00109849 -1.41437e-05)
(0.00347134 0.00142033 -1.98087e-05)
(0.0032718 0.000455006 -1.6765e-05)
(0.00320601 -0.000434693 -1.60068e-05)
(0.00326689 -0.0014056 -1.39054e-05)
(0.00478912 0.00163742 -3.03922e-05)
(0.00461575 0.000527177 -2.35536e-05)
(0.00454321 -0.000518075 -1.85805e-05)
(0.00456287 -0.00162879 -1.25186e-05)
(0.00616712 0.0017797 -4.13116e-05)
(0.00601535 0.00056943 -3.06383e-05)
(0.00593835 -0.000581512 -2.14739e-05)
(0.00592583 -0.00178166 -1.13351e-05)
(0.00756407 0.001865 -5.16454e-05)
(0.00742832 0.000587593 -3.79033e-05)
(0.00734745 -0.000628633 -2.55136e-05)
(0.00731169 -0.00187882 -1.19272e-05)
(0.00896868 0.00191029 -6.02417e-05)
(0.00882743 0.000591292 -4.50124e-05)
(0.00873419 -0.000662109 -3.16054e-05)
(0.0086864 -0.00193819 -1.66345e-05)
(0.000321167 0.000186983 1.68627e-07)
(0.000149072 4.13436e-05 -2.76343e-07)
(0.000129926 -4.67554e-05 -1.10302e-06)
(0.000255777 -0.000190027 -1.67107e-06)
(0.00122636 0.000710304 -1.42866e-06)
(0.000968996 0.00020216 -1.74466e-06)
(0.000925614 -0.000193539 -2.86658e-06)
(0.00108783 -0.00070108 -3.58788e-06)
(0.00226251 0.00111205 -3.82033e-06)
(0.00203331 0.000348234 -3.60611e-06)
(0.00197616 -0.000325867 -4.20128e-06)
(0.00208545 -0.00109483 -4.32394e-06)
(0.00346781 0.00141953 -6.89174e-06)
(0.00326719 0.000456126 -5.69964e-06)
(0.00320089 -0.000431486 -5.22091e-06)
(0.00326191 -0.00140037 -4.31678e-06)
(0.00478394 0.00163673 -1.03422e-05)
(0.00460964 0.000528783 -7.94073e-06)
(0.00453663 -0.000513977 -6.12515e-06)
(0.00455632 -0.00162226 -3.95797e-06)
(0.00616004 0.00177935 -1.39079e-05)
(0.00600751 0.00057156 -1.02842e-05)
(0.00593006 -0.000576694 -7.14012e-06)
(0.00591746 -0.00177415 -3.67486e-06)
(0.0075548 0.00186517 -1.72956e-05)
(0.00741846 0.000590244 -1.26928e-05)
(0.00733717 -0.000623272 -8.53296e-06)
(0.00730118 -0.00187063 -3.97279e-06)
(0.00895712 0.00191105 -2.01161e-05)
(0.00881533 0.000594483 -1.50495e-05)
(0.00872154 -0.000656305 -1.05947e-05)
(0.00867332 -0.00192956 -5.61374e-06)
)
;

boundaryField
{
    interface
    {
        type            tractionDisplacement;
        gradient        nonuniform List<vector> 
192
(
(0.0249891 0.0344146 0.000736098)
(0.0120109 0.0343285 0.00172518)
(0.0133504 0.0453447 0.000628995)
(0.0110183 0.0517119 -0.00130153)
(0.00943302 0.0562792 -0.00334593)
(0.00796482 0.0585445 -0.0052966)
(0.00715464 0.0593546 -0.00687812)
(0.00674471 0.0603168 -0.00774773)
(0.025492 0.036689 0.000517539)
(0.0138896 0.0343388 0.00134028)
(0.0135398 0.0439823 0.000852567)
(0.011397 0.0501394 -0.000265929)
(0.00969875 0.0545676 -0.00155742)
(0.00829143 0.0570127 -0.00288134)
(0.0075181 0.0581791 -0.00403307)
(0.00707711 0.0598822 -0.00474509)
(0.0265457 0.0380941 0.00014349)
(0.0145069 0.0344783 0.000456487)
(0.0139908 0.0432998 0.000208857)
(0.0116162 0.0491951 -0.000380755)
(0.00972497 0.0534776 -0.00117661)
(0.0082023 0.0559737 -0.00202927)
(0.00737269 0.0573233 -0.00281415)
(0.0067692 0.0594746 -0.00335228)
(0.0272194 0.0387659 -3.84495e-05)
(0.0149986 0.0345061 6.1281e-06)
(0.0144611 0.0429739 -0.000183667)
(0.0119572 0.048623 -0.000537168)
(0.00993388 0.0527946 -0.00101945)
(0.00830865 0.055286 -0.00155807)
(0.00741399 0.0567243 -0.00208097)
(0.00671561 0.059122 -0.002477)
(0.0275819 0.0390557 -0.000101318)
(0.0153234 0.0344698 -0.000173015)
(0.0147978 0.042767 -0.000336851)
(0.0122343 0.048277 -0.000572736)
(0.010136 0.0523704 -0.000877667)
(0.00844139 0.0548399 -0.00122351)
(0.00749789 0.0563108 -0.00157693)
(0.00672588 0.0588344 -0.00187035)
(0.0277662 0.0391649 -9.96404e-05)
(0.0155226 0.0344077 -0.000194779)
(0.0150174 0.0426202 -0.000324195)
(0.0124288 0.0480586 -0.000483599)
(0.0102911 0.0521046 -0.000677319)
(0.0085565 0.0545519 -0.000896727)
(0.00758336 0.0560276 -0.00112808)
(0.00677174 0.0586128 -0.00133051)
(0.0278535 0.0391984 -6.76534e-05)
(0.0156335 0.0343511 -0.000138839)
(0.0151455 0.0425215 -0.000221604)
(0.0125474 0.0479252 -0.000316008)
(0.0103905 0.0519455 -0.000425981)
(0.00863464 0.0543766 -0.000549876)
(0.00764516 0.0558487 -0.00068262)
(0.00681251 0.0584628 -0.000802037)
(0.0278873 0.0392055 -2.34535e-05)
(0.0156817 0.0343189 -4.91952e-05)
(0.015203 0.0424716 -7.75753e-05)
(0.0126018 0.0478611 -0.000109011)
(0.0104371 0.0518702 -0.000144926)
(0.00867231 0.0542934 -0.00018528)
(0.00767496 0.0557624 -0.000228748)
(0.00683207 0.058385 -0.000268235)
(-0.00198504 0.0122528 0.0133657)
(-0.0038128 -0.00382628 0.00198822)
(-0.00185614 -0.00342958 0.00326272)
(0.000284031 -0.00473357 0.00147695)
(0.00284437 -0.00467305 0.000440407)
(0.00519983 -0.00426334 -0.000571867)
(0.00711084 -0.00364168 -0.00123626)
(0.00854073 -0.00259755 -0.00205094)
(-0.00480334 0.00446477 0.00289005)
(-0.0085725 -0.00157543 0.000560492)
(-0.0060956 -0.00137941 0.00034414)
(-0.00348526 -0.00182748 -0.000234753)
(-0.000539792 -0.00192445 -0.000622797)
(0.0021349 -0.00196799 -0.000968752)
(0.00441137 -0.00202509 -0.0012436)
(0.00633101 -0.00182942 -0.00179766)
(-0.00515628 -0.00637101 -0.00381892)
(-0.00904865 0.000777852 -0.00093175)
(-0.00671962 0.000741271 -0.00125761)
(-0.00411501 0.00114545 -0.00102224)
(-0.00120245 0.000904039 -0.000874233)
(0.0014871 0.000464538 -0.000692418)
(0.00382958 -0.000128248 -0.000538479)
(0.00571652 -0.000774527 -0.00015616)
(-0.00328336 -0.0157931 -0.0133933)
(-0.00544395 0.00234219 -0.00246593)
(-0.00406113 0.00236647 -0.00410894)
(-0.00207151 0.0037083 -0.00263597)
(0.000320869 0.00342722 -0.00181657)
(0.00261367 0.00272807 -0.000952271)
(0.00459003 0.00162918 -0.000287071)
(0.0060341 4.81593e-05 0.000446882)
(0.0208597 -0.0330248 -0.00159567)
(0.00851228 -0.0337639 -0.00350721)
(0.00833944 -0.0458585 -0.00311825)
(0.005102 -0.0523643 -0.00147031)
(0.00280818 -0.0568027 0.000455379)
(0.000923757 -0.0586992 0.00245079)
(-0.000215049 -0.0588312 0.00422555)
(-0.000455361 -0.0579752 0.00547237)
(0.0204791 -0.0357013 -0.000902815)
(0.0100896 -0.0344996 -0.00200482)
(0.00824818 -0.0447068 -0.00178188)
(0.00517074 -0.0509257 -0.000731378)
(0.00274799 -0.0551119 0.000568451)
(0.000863952 -0.0570795 0.00196067)
(-0.000319074 -0.0574524 0.00323165)
(-0.000521516 -0.0570661 0.00424967)
(0.0211712 -0.0370157 -0.000378452)
(0.0106364 -0.0348391 -0.000781179)
(0.00872695 -0.044094 -0.000631845)
(0.00547593 -0.0500006 -6.23864e-05)
(0.00287653 -0.0539817 0.000753991)
(0.000855302 -0.0559425 0.00165849)
(-0.000445597 -0.0564248 0.00254009)
(-0.000834409 -0.0561805 0.00333034)
(0.0215763 -0.0374743 -0.000111396)
(0.011024 -0.034889 -0.000179486)
(0.00910001 -0.0437925 -2.21104e-05)
(0.00574782 -0.0494351 0.000332701)
(0.0030212 -0.0532722 0.000833685)
(0.000883654 -0.0551851 0.00140959)
(-0.000527973 -0.0556772 0.0020024)
(-0.00102882 -0.0554459 0.0025805)
(0.0217423 -0.037536 9.00839e-07)
(0.0112569 -0.0348209 6.60419e-05)
(0.00932878 -0.043579 0.000218492)
(0.00592389 -0.0490857 0.000460415)
(0.00312319 -0.0528275 0.000778639)
(0.000906998 -0.0546868 0.00114799)
(-0.000584146 -0.0551521 0.00154397)
(-0.00115488 -0.0548833 0.00195488)
(0.0217881 -0.0374557 3.46046e-05)
(0.0113834 -0.0347194 0.000127896)
(0.00945661 -0.0434163 0.000252838)
(0.00602506 -0.0488598 0.000417666)
(0.00318308 -0.0525458 0.000619659)
(0.00092062 -0.0543629 0.000852068)
(-0.000619078 -0.0547944 0.00110664)
(-0.00122431 -0.0544788 0.00138092)
(0.0217875 -0.037358 3.13431e-05)
(0.0114455 -0.0346321 0.000102009)
(0.00952189 -0.0433031 0.0001829)
(0.00607803 -0.0487191 0.000280631)
(0.00321447 -0.0523757 0.000394857)
(0.000927084 -0.0541655 0.000524718)
(-0.000639137 -0.0545707 0.000668436)
(-0.00125982 -0.054218 0.000826108)
(0.0217792 -0.0372986 1.19635e-05)
(0.0114703 -0.0345835 3.76213e-05)
(0.009549 -0.0432448 6.55045e-05)
(0.00610046 -0.0486506 9.80375e-05)
(0.00322768 -0.0522946 0.00013522)
(0.000929565 -0.0540712 0.00017719)
(-0.000647957 -0.0544627 0.000223874)
(-0.00127454 -0.0540902 0.000275357)
(0.0602508 0.000548466 -0.00195872)
(0.0600392 0.000360655 -0.00114633)
(0.0598244 0.00076512 -0.000873027)
(0.0595781 0.00101056 -0.000583957)
(0.0593341 0.00119973 -0.000405634)
(0.0591343 0.00131494 -0.000270692)
(0.0589947 0.00138025 -0.000157604)
(0.0589213 0.0014055 -5.17714e-05)
(0.0554751 0.00064333 -0.00130345)
(0.0553504 0.000503988 -0.000942491)
(0.0551277 0.000642257 -0.000840447)
(0.0548394 0.000792268 -0.000678237)
(0.0545297 0.000925899 -0.000523613)
(0.0542693 0.00102168 -0.000370768)
(0.0540879 0.00108247 -0.000220969)
(0.0539972 0.00111263 -7.31722e-05)
(0.0546127 -0.00151356 -0.000718647)
(0.0543748 -0.00133442 -0.000954493)
(0.0539602 -0.00124939 -0.00102165)
(0.0535268 -0.00116711 -0.000949816)
(0.0531282 -0.00109138 -0.000780271)
(0.0528118 -0.00102889 -0.00056875)
(0.0525972 -0.000984707 -0.000342787)
(0.0524896 -0.000960942 -0.000114146)
(0.0570194 -0.00225176 -0.000426575)
(0.0563985 -0.00193222 -0.00129651)
(0.0556689 -0.00199386 -0.00147133)
(0.0550224 -0.00201019 -0.00139264)
(0.0544964 -0.00200538 -0.00114642)
(0.0541067 -0.00198095 -0.000835138)
(0.0538511 -0.00195563 -0.000502884)
(0.0537243 -0.00194019 -0.000167536)
)
;
        traction        nonuniform List<vector> 
192
(
(21.058 -0.661235 -2.34543)
(21.0689 -0.799154 -4.08142)
(20.9365 -1.18485 -4.8966)
(21.1879 -1.34194 -5.35606)
(21.8182 -1.20351 -5.61664)
(22.6909 -0.651517 -5.68418)
(23.5022 0.524351 -5.48005)
(22.6895 2.46462 -4.79332)
(23.9007 -1.00168 -1.71046)
(24.2695 -1.17292 -2.99439)
(24.9199 -1.6215 -3.59783)
(25.9174 -1.78142 -3.92648)
(27.1186 -1.57478 -4.09049)
(28.2584 -0.851543 -4.09415)
(28.653 0.67324 -3.88844)
(25.5813 3.06554 -3.36576)
(25.7632 -1.16463 -1.23687)
(26.1031 -1.3326 -2.15582)
(26.9151 -1.80563 -2.55696)
(28.1039 -1.95622 -2.75685)
(29.4355 -1.69353 -2.84357)
(30.5527 -0.854285 -2.82558)
(30.5649 0.866201 -2.68205)
(26.3426 3.43968 -2.3578)
(27.1071 -1.24878 -0.908449)
(27.3889 -1.40598 -1.58548)
(28.2249 -1.89263 -1.86779)
(29.4601 -2.03265 -1.99883)
(30.8108 -1.73023 -2.05158)
(31.8575 -0.814408 -2.03574)
(31.6047 1.02379 -1.94469)
(26.6999 3.68924 -1.73502)
(28.0793 -1.29652 -0.655265)
(28.3215 -1.44209 -1.14748)
(29.1488 -1.93482 -1.34806)
(30.3865 -2.06732 -1.43702)
(31.7269 -1.7388 -1.47225)
(32.7111 -0.773665 -1.46323)
(32.284 1.13988 -1.40835)
(26.9292 3.86269 -1.26957)
(28.7619 -1.32461 -0.444613)
(28.9766 -1.46029 -0.781186)
(29.7907 -1.95542 -0.917117)
(31.02 -2.08302 -0.976005)
(32.3457 -1.73816 -0.999705)
(33.2849 -0.741745 -0.995813)
(32.7459 1.22076 -0.963864)
(27.0921 3.9809 -0.873991)
(29.1976 -1.34117 -0.256492)
(29.3977 -1.46982 -0.452299)
(30.2026 -1.96551 -0.530805)
(31.4241 -2.09012 -0.564371)
(32.7386 -1.73566 -0.578257)
(33.6499 -0.720158 -0.576923)
(33.043 1.27271 -0.558612)
(27.2058 4.05295 -0.504261)
(29.4006 -1.34802 -0.0829764)
(29.5931 -1.47259 -0.146797)
(30.3903 -1.96804 -0.172133)
(31.6052 -2.09161 -0.182862)
(32.9134 -1.73279 -0.187405)
(33.8127 -0.706521 -0.187086)
(33.162 1.30398 -0.180406)
(27.2165 4.08388 -0.1607)
(2.6545 0.554984 9.31679)
(4.55968 0.979426 5.99464)
(5.46685 0.908083 2.80897)
(6.10176 0.677137 0.387886)
(6.67022 0.52359 -1.26192)
(7.23868 0.568818 -2.17653)
(7.91523 0.825597 -2.33857)
(9.11039 1.11641 -1.60043)
(1.69797 0.492919 8.33884)
(3.07242 0.960014 7.00369)
(3.58954 1.09316 5.16594)
(3.85305 0.942278 3.62328)
(4.08046 0.710161 2.56292)
(4.38287 0.534553 1.98146)
(4.92937 0.455265 1.80189)
(6.33911 0.317594 1.69289)
(1.30348 0.393893 7.66376)
(2.54873 0.759963 7.23221)
(3.04871 0.990266 6.11974)
(3.25616 0.914577 5.06036)
(3.39308 0.691313 4.33858)
(3.5989 0.453647 3.96802)
(4.05771 0.255848 3.88325)
(5.37839 0.0135921 3.7846)
(1.22585 0.379677 6.74219)
(2.5318 0.666213 6.61441)
(3.14486 0.918941 5.75577)
(3.41071 0.874117 4.88863)
(3.55936 0.664861 4.2913)
(3.75081 0.406325 3.96385)
(4.16867 0.128992 3.8238)
(5.3631 -0.256832 3.74858)
(-4.02033 0.390821 0.295897)
(-3.11949 0.684574 0.537839)
(-2.14429 0.895599 0.556429)
(-1.39532 0.896206 0.521256)
(-0.834531 0.774662 0.536072)
(-0.276732 0.599267 0.642142)
(0.687219 0.308565 0.852319)
(3.53206 -0.919356 1.1206)
(-4.66847 0.276091 -0.0638828)
(-4.50468 0.461829 -0.0931713)
(-4.16311 0.661165 -0.160174)
(-3.78438 0.738269 -0.213873)
(-3.41438 0.731835 -0.209105)
(-2.96309 0.692963 -0.136735)
(-2.03608 0.568929 -0.0122334)
(0.942394 -0.483271 0.121292)
(-5.02778 0.230545 -0.127766)
(-5.04826 0.355933 -0.195916)
(-4.89163 0.544511 -0.233652)
(-4.63444 0.665617 -0.24622)
(-4.30511 0.733848 -0.216326)
(-3.82409 0.780003 -0.145728)
(-2.8236 0.736832 -0.0624575)
(-0.00680235 -0.14163 -0.0245766)
(-5.2815 0.217007 -0.122518)
(-5.3513 0.311344 -0.188405)
(-5.26876 0.495372 -0.205571)
(-5.05945 0.64571 -0.194957)
(-4.7314 0.765006 -0.155086)
(-4.21163 0.867878 -0.0953128)
(-3.15813 0.879158 -0.0440651)
(-0.41916 0.109262 -0.044826)
(-5.46782 0.214082 -0.0974488)
(-5.55355 0.294913 -0.15025)
(-5.50284 0.480426 -0.155905)
(-5.31127 0.65233 -0.137074)
(-4.97301 0.8063 -0.0995413)
(-4.42091 0.945099 -0.055227)
(-3.34367 0.987921 -0.0285442)
(-0.673614 0.28789 -0.0514915)
(-5.59469 0.214819 -0.0672744)
(-5.68449 0.291359 -0.103513)
(-5.64589 0.481114 -0.103468)
(-5.4588 0.66827 -0.0853753)
(-5.1099 0.844129 -0.0566372)
(-4.53733 1.0037 -0.0279979)
(-3.45276 1.06387 -0.0172968)
(-0.843775 0.408761 -0.0452109)
(-5.67226 0.216327 -0.0383913)
(-5.76246 0.292493 -0.0587768)
(-5.72787 0.486485 -0.0572048)
(-5.54072 0.683313 -0.0449665)
(-5.18448 0.871648 -0.0276005)
(-4.60134 1.04215 -0.0121444)
(-3.51733 1.11104 -0.00896002)
(-0.953096 0.483106 -0.0311774)
(-5.7077 0.217461 -0.0123127)
(-5.79701 0.293974 -0.0187576)
(-5.76353 0.490228 -0.0180059)
(-5.57611 0.691636 -0.0137977)
(-5.21708 0.885704 -0.0081133)
(-4.63006 1.0613 -0.00330203)
(-3.54527 1.13281 -0.00263342)
(-1.01262 0.518374 -0.0113554)
(9.94568 0.457906 -2.52279)
(9.6024 2.2848 -2.11213)
(9.7037 3.74117 -1.6666)
(9.88632 4.87658 -1.30588)
(10.0598 5.71869 -0.996064)
(10.1997 6.31231 -0.710298)
(10.2968 6.67489 -0.436018)
(10.3394 6.7745 -0.150306)
(6.94321 -1.61415 -0.897673)
(6.05645 -0.668232 -0.785087)
(5.8801 0.347417 -0.607854)
(5.86735 1.18321 -0.480382)
(5.89323 1.79939 -0.377189)
(5.92549 2.23154 -0.275641)
(5.95634 2.512 -0.168332)
(5.98365 2.67311 -0.0562955)
(5.67663 -3.31108 -0.178349)
(4.60114 -2.62848 -0.200641)
(4.26617 -1.88488 -0.166046)
(4.12572 -1.29049 -0.148418)
(4.05178 -0.864529 -0.132714)
(4.00877 -0.572976 -0.105771)
(3.98464 -0.38906 -0.0655363)
(3.97323 -0.284525 -0.0210214)
(5.417 -3.26549 0.254599)
(4.3279 -2.73656 0.0557581)
(3.92115 -2.24868 -0.0197336)
(3.71332 -1.8575 -0.0572407)
(3.5825 -1.58606 -0.0730106)
(3.49547 -1.40692 -0.0681172)
(3.44026 -1.29994 -0.046773)
(3.41003 -1.252 -0.0162659)
)
;
        pressure        uniform 0;
        value           nonuniform List<vector> 
192
(
(0.000575182 0.000606881 0.000310131)
(0.001255 0.00115466 0.000267285)
(0.0023415 0.00168798 0.000175981)
(0.00358895 0.00207315 3.92331e-05)
(0.00498126 0.00233709 -0.000101892)
(0.00644385 0.00249251 -0.000232977)
(0.00793019 0.00256883 -0.000342556)
(0.00940984 0.00260523 -0.0004274)
(0.000615434 0.000633863 0.000156705)
(0.00135252 0.00115148 0.000154389)
(0.00240058 0.00168592 0.000100026)
(0.00361942 0.00207458 9.26229e-06)
(0.00496984 0.00234149 -9.09121e-05)
(0.00639206 0.00250116 -0.000187474)
(0.00784162 0.00258209 -0.000270867)
(0.00929316 0.0026266 -0.000335869)
(0.000644398 0.000657168 7.49987e-05)
(0.00139451 0.00114851 7.27135e-05)
(0.00243663 0.00167111 3.76834e-05)
(0.00363611 0.00205668 -2.14652e-05)
(0.00496106 0.00232485 -9.01532e-05)
(0.00635619 0.00249002 -0.000158524)
(0.0077806 0.00257958 -0.000219394)
(0.00921148 0.00263716 -0.000267655)
(0.00065874 0.0006689 3.32093e-05)
(0.00141333 0.00114582 2.69529e-05)
(0.00245238 0.00165954 1.57708e-06)
(0.00364098 0.00204048 -3.8416e-05)
(0.00495075 0.00230862 -8.52702e-05)
(0.00632881 0.00247745 -0.000133048)
(0.00773658 0.0025736 -0.00017683)
(0.00915344 0.00264056 -0.000212349)
(0.000665278 0.000674097 1.27852e-05)
(0.00142049 0.0011434 4.46229e-06)
(0.00245659 0.00165184 -1.45735e-05)
(0.00363838 0.00202959 -4.20883e-05)
(0.00493878 0.00229733 -7.40171e-05)
(0.006306 0.00246826 -0.00010701)
(0.00770265 0.00256851 -0.000137971)
(0.00910906 0.00264131 -0.000163561)
(0.000668153 0.000676165 3.68663e-06)
(0.00142251 0.00114141 -4.13101e-06)
(0.00245588 0.00164703 -1.77026e-05)
(0.00363309 0.00202302 -3.59942e-05)
(0.00492753 0.00229048 -5.69286e-05)
(0.00628781 0.00246256 -7.86967e-05)
(0.00767704 0.00256509 -9.94467e-05)
(0.00907605 0.00264126 -0.000116796)
(0.00066935 0.000676868 4.15347e-07)
(0.00142264 0.00114001 -4.9961e-06)
(0.00245393 0.00164423 -1.31948e-05)
(0.00362818 0.00201939 -2.37588e-05)
(0.004919 0.00228674 -3.5717e-05)
(0.00627506 0.0024594 -4.81851e-05)
(0.00765964 0.00256311 -6.01781e-05)
(0.00905384 0.00264107 -7.02672e-05)
(0.000669759 0.000677052 -1.24542e-07)
(0.00142238 0.00113929 -2.0436e-06)
(0.00245255 0.00164294 -4.79002e-06)
(0.00362534 0.00201779 -8.25437e-06)
(0.00491441 0.00228511 -1.21538e-05)
(0.00626844 0.00245802 -1.62239e-05)
(0.00765074 0.0025622 -2.0155e-05)
(0.00904252 0.00264086 -2.3469e-05)
(0.000238005 0.000329858 0.000468002)
(0.00105721 0.000677725 0.000270573)
(0.00215142 0.0010783 0.000208902)
(0.00345477 0.00136758 7.39641e-05)
(0.0048989 0.00157519 -5.45633e-05)
(0.00640929 0.00170741 -0.000173918)
(0.00792964 0.00178137 -0.000272033)
(0.00943229 0.0018188 -0.00035619)
(5.09698e-05 9.01356e-05 0.000125633)
(0.000809346 0.000174377 9.19752e-05)
(0.00190917 0.000308476 4.01314e-05)
(0.00323621 0.000398003 -1.92621e-05)
(0.00470122 0.000454436 -7.69738e-05)
(0.00622988 0.000481176 -0.000131289)
(0.00776382 0.000484954 -0.00018239)
(0.00926315 0.000479459 -0.000237113)
(3.41711e-05 -0.000131843 -0.000156799)
(0.000768079 -0.000219893 -0.000164879)
(0.00185273 -0.000365337 -0.000163354)
(0.0031706 -0.00048476 -0.000147941)
(0.00462867 -0.00058928 -0.000130772)
(0.00615294 -0.000676147 -0.000116725)
(0.00768338 -0.000746629 -0.000111003)
(0.0091725 -0.000800675 -0.000112957)
(0.000182523 -0.000392791 -0.000501272)
(0.000924598 -0.000729444 -0.000370545)
(0.00197314 -0.00114368 -0.000359406)
(0.00324616 -0.00146364 -0.00027048)
(0.0046672 -0.00171599 -0.000183135)
(0.00616238 -0.00190046 -0.000102179)
(0.00767247 -0.00203 -4.15807e-05)
(0.00915217 -0.00212243 -8.97603e-06)
(0.000484312 -0.000608187 -0.000353801)
(0.00109905 -0.00118077 -0.000383561)
(0.00212815 -0.00174649 -0.000347022)
(0.00333583 -0.00216454 -0.000255909)
(0.00469829 -0.00246886 -0.000154735)
(0.00614126 -0.0026683 -5.96407e-05)
(0.0076124 -0.00278576 1.4827e-05)
(0.00907105 -0.00284772 5.38426e-05)
(0.000507847 -0.000629868 -0.00019141)
(0.00119701 -0.00117237 -0.000240585)
(0.00218866 -0.00173061 -0.000229619)
(0.00336711 -0.00214603 -0.000176847)
(0.00468678 -0.00244429 -0.000111133)
(0.0060879 -0.00263766 -4.76548e-05)
(0.00752146 -0.0027491 9.58145e-07)
(0.00895376 -0.00280857 2.25791e-05)
(0.000525507 -0.000650418 -0.000101847)
(0.00123077 -0.00116494 -0.000139633)
(0.00221793 -0.00170384 -0.000139516)
(0.00337724 -0.00210836 -0.00011249)
(0.00467103 -0.00239898 -7.39185e-05)
(0.00604442 -0.00258819 -3.54525e-05)
(0.0074521 -0.00269822 -6.71743e-06)
(0.00886167 -0.00275794 1.83571e-06)
(0.000531402 -0.000658391 -5.28934e-05)
(0.00124039 -0.00115634 -7.85821e-05)
(0.00222442 -0.00168053 -8.11989e-05)
(0.00337318 -0.00207352 -6.76376e-05)
(0.0046518 -0.00235655 -4.62835e-05)
(0.00600792 -0.00254149 -2.44288e-05)
(0.00739823 -0.00264974 -8.9838e-06)
(0.00879118 -0.0027089 -8.25656e-06)
(0.000531824 -0.000659789 -2.65999e-05)
(0.00124005 -0.00114793 -4.30008e-05)
(0.00222062 -0.00166215 -4.5688e-05)
(0.00336278 -0.00204644 -3.89623e-05)
(0.00463222 -0.00232305 -2.74842e-05)
(0.00597753 -0.0025039 -1.56596e-05)
(0.00735623 -0.0026099 -8.12146e-06)
(0.00873704 -0.00266769 -1.09783e-05)
(0.000530429 -0.000658696 -1.27454e-05)
(0.00123659 -0.00114089 -2.25607e-05)
(0.00221392 -0.00164864 -2.45629e-05)
(0.00335161 -0.00202704 -2.12996e-05)
(0.00461529 -0.00229895 -1.53394e-05)
(0.00595378 -0.00247647 -9.26955e-06)
(0.00732479 -0.00258031 -6.00226e-06)
(0.00869714 -0.00263654 -9.63174e-06)
(0.000528912 -0.000657197 -5.52406e-06)
(0.00123318 -0.00113593 -1.06742e-05)
(0.00220807 -0.00163978 -1.18575e-05)
(0.00334287 -0.00201459 -1.03975e-05)
(0.00460305 -0.00228349 -7.5829e-06)
(0.00593742 -0.00245873 -4.77612e-06)
(0.0073037 -0.00256095 -3.57176e-06)
(0.00867065 -0.00261592 -6.3081e-06)
(0.000528017 -0.00065626 -1.52153e-06)
(0.00123121 -0.00113337 -3.11761e-06)
(0.00220481 -0.00163539 -3.50514e-06)
(0.00333816 -0.0020085 -3.09132e-06)
(0.00459667 -0.00227595 -2.26772e-06)
(0.00592908 -0.00245004 -1.45998e-06)
(0.00729308 -0.00255141 -1.17437e-06)
(0.00865739 -0.00260569 -2.17178e-06)
(0.0100787 0.00185813 -0.000355037)
(0.00995519 0.00188258 -0.000290884)
(0.00987467 0.00190329 -0.000236665)
(0.00981422 0.00191417 -0.000188686)
(0.00976666 0.00192088 -0.000145252)
(0.00973059 0.00192503 -0.000103548)
(0.00970612 0.00192754 -6.22118e-05)
(0.00969364 0.00192862 -2.07632e-05)
(0.00987745 0.000510369 -0.000230935)
(0.00976303 0.000533141 -0.0001976)
(0.00968182 0.0005544 -0.000169332)
(0.00961864 0.000572504 -0.000140036)
(0.00956818 0.000586966 -0.000110001)
(0.00952966 0.000597706 -7.91966e-05)
(0.00950352 0.000604822 -4.77745e-05)
(0.0094903 0.000608391 -1.59642e-05)
(0.0097837 -0.000809913 -0.000119988)
(0.00967087 -0.000783609 -0.000120066)
(0.00958407 -0.000755492 -0.000113478)
(0.00951517 -0.000728151 -9.97137e-05)
(0.00946061 -0.000704661 -8.08502e-05)