/*--------------------------------*- C++ -*----------------------------------*\
| =========                 |                                                 |
| \\      /  F ield         | foam-extend: Open Source CFD                    |
|  \\    /   O peration     | Version:     3.1                                |
|   \\  /    A nd           | Web:         http://www.extend-project.de       |
|    \\/     M anipulation  |                                                 |
\*---------------------------------------------------------------------------*/
FoamFile
{
    version     2.0;
    format      ascii;
    class       volVectorField;
    location    "3.8";
    object      D_0;
}
// * * * * * * * * * * * * * * * * * * * * * * * * * * * * * * * * * * * * * //

dimensions      [0 1 0 0 0 0 0];

internalField   nonuniform List<vector> 
256
(
(0.000261589 0.000175331 0.000298384)
(0.000110964 3.40227e-05 8.88885e-05)
(9.85549e-05 -5.17104e-05 -0.000107778)
(0.000222208 -0.00019366 -0.00033037)
(0.00109823 0.000719955 0.000242462)
(0.000911121 0.000192698 8.41082e-05)
(0.000875889 -0.000227271 -0.000151233)
(0.000986318 -0.000751897 -0.000335255)
(0.00215995 0.00111249 0.000164638)
(0.00197194 0.000323626 3.5007e-05)
(0.0019235 -0.000370591 -0.000145578)
(0.00200991 -0.0011624 -0.000303233)
(0.00342612 0.00141581 5.23389e-05)
(0.00325583 0.000418441 -1.69826e-05)
(0.00319842 -0.000493464 -0.000133151)
(0.00324807 -0.00149562 -0.000232884)
(0.00482612 0.00162131 -6.26199e-05)
(0.00467187 0.000476132 -6.95351e-05)
(0.00460811 -0.000593524 -0.000117876)
(0.00462759 -0.0017417 -0.000156086)
(0.00629403 0.00174779 -0.000168557)
(0.00615407 0.000503717 -0.000119107)
(0.00608589 -0.000673659 -0.000106063)
(0.00608158 -0.00191538 -8.62038e-05)
(0.00777726 0.00181391 -0.000257586)
(0.00764636 0.000508654 -0.00016627)
(0.00757404 -0.000735744 -0.000102101)
(0.00755422 -0.00202981 -3.40339e-05)
(0.00924908 0.00183856 -0.000330802)
(0.0091089 0.000501184 -0.000213476)
(0.00902699 -0.000781009 -0.000108535)
(0.00900351 -0.00210162 -1.04757e-05)
(0.000294951 0.000173913 0.000148697)
(0.000148137 3.56347e-05 4.60425e-05)
(0.000135451 -4.64205e-05 -6.26629e-05)
(0.000249917 -0.000182051 -0.000177942)
(0.00117061 0.000716764 0.000135407)
(0.000960227 0.000196684 4.09668e-05)
(0.000927252 -0.000215984 -9.98505e-05)
(0.00106275 -0.000734487 -0.00021237)
(0.00221453 0.00112743 8.68209e-05)
(0.0020266 0.000335664 8.41805e-06)
(0.00198078 -0.00036564 -0.000106177)
(0.00206934 -0.00116089 -0.000203716)
(0.00344952 0.00143677 1.01172e-05)
(0.00328143 0.000434839 -3.0461e-05)
(0.00322675 -0.000487894 -0.000102943)
(0.00327611 -0.00149502 -0.000163986)
(0.00480907 0.00164686 -7.35832e-05)
(0.00465986 0.000496438 -7.10515e-05)
(0.0045986 -0.000585153 -9.64592e-05)
(0.00461446 -0.0017382 -0.000114573)
(0.00623598 0.00177525 -0.000153124)
(0.00610214 0.000526791 -0.000110531)
(0.00603632 -0.000660364 -9.19566e-05)
(0.00602671 -0.00190497 -6.85408e-05)
(0.00768212 0.00184143 -0.000221599)
(0.00755876 0.000533097 -0.000148456)
(0.00748906 -0.000716654 -9.38474e-05)
(0.00746244 -0.00201041 -3.5763e-05)
(0.00912631 0.00186484 -0.000277149)
(0.00899406 0.00052534 -0.000184952)
(0.0089151 -0.000757097 -0.000105901)
(0.00888496 -0.00207385 -2.66961e-05)
(0.000310394 0.000179549 7.22177e-05)
(0.000154448 3.81979e-05 2.14822e-05)
(0.000139746 -4.67449e-05 -3.69511e-05)
(0.000258587 -0.000186078 -9.56891e-05)
(0.00120381 0.000711933 6.54887e-05)
(0.000974853 0.000197656 1.37082e-05)
(0.000939585 -0.000208256 -6.47578e-05)
(0.00108857 -0.00072273 -0.000127666)
(0.0022434 0.00112106 3.32468e-05)
(0.00204136 0.000339222 -9.69286e-06)
(0.00199314 -0.000354716 -7.4993e-05)
(0.00209105 -0.00114172 -0.000128936)
(0.00346164 0.00143059 -1.85751e-05)
(0.00328391 0.000441073 -3.85069e-05)
(0.00322664 -0.000473366 -7.76108e-05)
(0.00328059 -0.00146889 -0.000108803)
(0.00479801 0.00164374 -7.7177e-05)
(0.00464207 0.000506032 -6.91777e-05)
(0.00457802 -0.000567049 -7.73763e-05)
(0.00459515 -0.00170703 -8.03144e-05)
(0.00619923 0.00177693 -0.000134633)
(0.00606091 0.00053996 -9.97564e-05)
(0.00599226 -0.00063873 -7.82476e-05)
(0.00598134 -0.00186975 -5.30433e-05)
(0.00762091 0.00184938 -0.000185375)
(0.00749513 0.000549577 -0.0001296)
(0.00742277 -0.000691941 -8.40797e-05)
(0.00739266 -0.00197239 -3.51763e-05)
(0.00904642 0.00188015 -0.00022653)
(0.00891356 0.000544662 -0.000158188)
(0.00883141 -0.000730107 -9.87467e-05)
(0.00879472 -0.00203426 -3.63228e-05)
(0.000316102 0.000182802 3.3036e-05)
(0.00015354 3.95052e-05 8.61723e-06)
(0.000137138 -4.68775e-05 -2.17375e-05)
(0.000259216 -0.000188233 -5.05518e-05)
(0.00121577 0.000708743 2.58332e-05)
(0.000975189 0.000198252 -2.66849e-07)
(0.000937143 -0.000202451 -4.19383e-05)
(0.00109263 -0.000713375 -7.47963e-05)
(0.00225217 0.00111341 2.57288e-06)
(0.00203959 0.000340877 -1.79131e-05)
(0.00198839 -0.00034399 -5.21916e-05)
(0.00209178 -0.00112208 -7.89565e-05)
(0.00346087 0.00142142 -3.30908e-05)
(0.00327483 0.000444581 -3.93059e-05)
(0.00321452 -0.000458217 -5.72556e-05)
(0.00327175 -0.00144107 -6.9562e-05)
(0.0047835 0.00163594 -7.38844e-05)
(0.00462128 0.000512197 -6.22561e-05)
(0.00455417 -0.000548075 -6.02547e-05)
(0.00457254 -0.00167344 -5.42697e-05)
(0.00616881 0.00177284 -0.000114807)
(0.00602595 0.00054934 -8.55605e-05)
(0.00595428 -0.000616616 -6.40212e-05)
(0.00594281 -0.0018325 -3.94296e-05)
(0.0075746 0.00185072 -0.000151871)
(0.00744578 0.000562316 -0.000108723)
(0.00737042 -0.000667436 -7.15758e-05)
(0.00733805 -0.00193322 -3.12053e-05)
(0.00898717 0.00188771 -0.000182185)
(0.00885209 0.000560761 -0.000131093)
(0.00876604 -0.000703808 -8.61965e-05)
(0.0087248 -0.00199431 -3.75401e-05)
(0.000317969 0.000184317 1.36163e-05)
(0.000151381 4.02225e-05 2.46647e-06)
(0.000133776 -4.67779e-05 -1.26097e-05)
(0.000257433 -0.000188798 -2.59807e-05)
(0.00121839 0.000706638 5.91402e-06)
(0.000970676 0.000198978 -5.91808e-06)
(0.000930394 -0.000197955 -2.68269e-05)
(0.00108891 -0.000705701 -4.27579e-05)
(0.00225138 0.00110815 -1.12718e-05)
(0.00203186 0.000342451 -1.91677e-05)
(0.00197824 -0.000335119 -3.54889e-05)
(0.00208434 -0.00110625 -4.70083e-05)
(0.00345377 0.00141472 -3.5932e-05)
(0.00326183 0.000447579 -3.47915e-05)
(0.00319912 -0.000445339 -4.08581e-05)
(0.00325813 -0.00141826 -4.30557e-05)
(0.00476779 0.00162983 -6.40652e-05)
(0.00460084 0.00051722 -5.15655e-05)
(0.0045314 -0.000531786 -4.4907e-05)
(0.00455049 -0.00164543 -3.53455e-05)
(0.00614298 0.00176911 -9.26877e-05)
(0.00599651 0.000556822 -6.88181e-05)
(0.00592259 -0.000597612 -4.95767e-05)
(0.00591079 -0.00180106 -2.79439e-05)
(0.00753814 0.00185066 -0.000119133)
(0.0074067 0.000572394 -8.62178e-05)
(0.00732908 -0.000646424 -5.70604e-05)
(0.00729528 -0.00189985 -2.51733e-05)
(0.00894108 0.00189188 -0.00014089)
(0.00880391 0.000573472 -0.000103128)
(0.00871487 -0.000681247 -6.97986e-05)
(0.00867066 -0.00196001 -3.3031e-05)
(0.000318451 0.000184978 4.65268e-06)
(0.000149518 4.06366e-05 -2.15946e-08)
(0.000131101 -4.65865e-05 -7.0556e-06)
(0.00025538 -0.000188666 -1.27753e-05)
(0.00121758 0.00070532 -2.15907e-06)
(0.000965608 0.000199736 -6.7358e-06)
(0.000923739 -0.000194625 -1.64499e-05)
(0.00108355 -0.000699835 -2.34547e-05)
(0.00224739 0.00110505 -1.42521e-05)
(0.00202352 0.000344007 -1.60802e-05)
(0.00196816 -0.000328465 -2.2866e-05)
(0.00207552 -0.00109468 -2.67687e-05)
(0.00344531 0.00141076 -3.06284e-05)
(0.0032495 0.000450264 -2.68318e-05)
(0.0031851 -0.000435587 -2.73289e-05)
(0.00324497 -0.0014016 -2.53677e-05)
(0.00475371 0.0016262 -4.91711e-05)
(0.00458356 0.000521383 -3.83546e-05)
(0.00451252 -0.000519374 -3.10268e-05)
(0.00453193 -0.00162477 -2.17574e-05)
(0.00612234 0.0017669 -6.81849e-05)
(0.00597333 0.000562708 -5.03037e-05)
(0.00589791 -0.000583078 -3.52134e-05)
(0.00588585 -0.0017776 -1.84305e-05)
(0.00751033 0.00185067 -8.59942e-05)
(0.00737697 0.000580064 -6.24724e-05)
(0.00729783 -0.000630316 -4.13495e-05)
(0.00726317 -0.00187463 -1.81993e-05)
(0.00890628 0.00189447 -0.000100711)
(0.00876742 0.000582964 -7.43437e-05)
(0.00867639 -0.000663901 -5.10619e-05)
(0.00863041 -0.0019338 -2.51579e-05)
(0.0003185 0.000185236 1.10412e-06)
(0.000148281 4.08694e-05 -6.0367e-07)
(0.00012936 -4.64084e-05 -3.54228e-06)
(0.00025382 -0.000188361 -5.69067e-06)
(0.00121612 0.000704551 -3.52254e-06)
(0.000961747 0.000200345 -4.89988e-06)
(0.000918871 -0.000192421 -8.88484e-06)
(0.00107916 -0.000695892 -1.15466e-05)
(0.00224349 0.00110339 -1.0769e-05)
(0.00201709 0.000345249 -1.04878e-05)
(0.00196063 -0.000324059 -1.27958e-05)
(0.00206852 -0.00108715 -1.35893e-05)
(0.00343845 0.00140871 -2.02025e-05)
(0.00324033 0.000452311 -1.68113e-05)
(0.00317487 -0.000429117 -1.56908e-05)
(0.0032351 -0.00139083 -1.32255e-05)
(0.00474335 0.00162437 -3.08104e-05)
(0.00457124 0.000524406 -2.35756e-05)
(0.0044992 -0.000511117 -1.82013e-05)
(0.00451871 -0.00161136 -1.17249e-05)
(0.00610792 0.00176586 -4.17309e-05)
(0.00595733 0.000566817 -3.0623e-05)
(0.00588097 -0.000573385 -2.1029e-05)
(0.00586874 -0.00176225 -1.04357e-05)
(0.0074914 0.00185084 -5.20431e-05)
(0.00735679 0.00058527 -3.78391e-05)
(0.00727673 -0.000619549 -2.50036e-05)
(0.00724157 -0.00185799 -1.09345e-05)
(0.00888273 0.00189607 -6.05844e-05)
(0.00874272 0.000589291 -4.48876e-05)
(0.0086505 -0.000652276 -3.10418e-05)
(0.00860355 -0.00191634 -1.55815e-05)
(0.000318459 0.000185319 1.17956e-07)
(0.000147677 4.09751e-05 -2.88362e-07)
(0.000128515 -4.63054e-05 -1.07384e-06)
(0.000253004 -0.000188153 -1.5985e-06)
(0.00121517 0.000704197 -1.51356e-06)
(0.000959719 0.000200679 -1.76246e-06)
(0.000916357 -0.000191323 -2.80658e-06)
(0.00107679 -0.000693914 -3.45671e-06)
(0.00224122 0.00110269 -3.93245e-06)
(0.00201367 0.000345932 -3.62432e-06)
(0.00195668 -0.00032187 -4.11784e-06)
(0.00206476 -0.00108345 -4.14194e-06)
(0.00343469 0.00140786 -7.02088e-06)
(0.00323549 0.000453415 -5.71424e-06)
(0.00316952 -0.000425901 -5.11605e-06)
(0.00322989 -0.00138555 -4.09192e-06)
(0.00473788 0.00162363 -1.04804e-05)
(0.00456485 0.000525998 -7.94746e-06)
(0.00449233 -0.000507008 -5.99866e-06)
(0.00451188 -0.00160479 -3.69381e-06)
(0.0061005 0.00176548 -1.40478e-05)
(0.00594915 0.000568934 -1.02789e-05)
(0.00587236 -0.000568555 -6.99127e-06)
(0.00586003 -0.0017547 -3.37416e-06)
(0.00748175 0.00185097 -1.74295e-05)
(0.00734655 0.00058791 -1.26718e-05)
(0.00726607 -0.000614173 -8.36228e-06)
(0.00723069 -0.00184975 -3.64012e-06)
(0.00887075 0.00189678 -2.02326e-05)
(0.00873021 0.000592468 -1.50089e-05)
(0.00863744 -0.000646454 -1.04065e-05)
(0.00859005 -0.00190766 -5.26094e-06)
)
;

boundaryField
{
    interface
    {
        type            tractionDisplacement;
        gradient        nonuniform List<vector> 
192
(
(0.0012504 8.90088e-08 -6.27537e-06)
(0.00125106 2.32615e-07 -7.48491e-06)
(0.0012496 5.25483e-07 -7.47543e-06)
(0.00124673 8.45864e-07 -7.27339e-06)
(0.00124237 1.23213e-06 -6.95727e-06)
(0.00123606 1.75972e-06 -6.48764e-06)
(0.00122701 2.65546e-06 -5.77696e-06)
(0.00121237 4.4017e-06 -4.57372e-06)
(0.00127836 1.58951e-07 -4.18175e-06)
(0.00127813 3.40733e-07 -4.98588e-06)
(0.00127606 6.81215e-07 -4.94782e-06)
(0.00127234 1.07974e-06 -4.77587e-06)
(0.0012667 1.57845e-06 -4.5173e-06)
(0.00125852 2.26978e-06 -4.14438e-06)
(0.00124668 3.43378e-06 -3.60938e-06)
(0.00122774 5.61186e-06 -2.83028e-06)
(0.0012969 2.0556e-07 -2.92788e-06)
(0.00129628 4.22773e-07 -3.50022e-06)
(0.00129375 8.10625e-07 -3.4639e-06)
(0.00128935 1.27314e-06 -3.32432e-06)
(0.00128271 1.85533e-06 -3.11929e-06)
(0.00127309 2.65704e-06 -2.83373e-06)
(0.00125927 3.97152e-06 -2.44508e-06)
(0.00123752 6.33252e-06 -1.9299e-06)
(0.00131022 2.36666e-07 -2.12187e-06)
(0.00130939 4.82114e-07 -2.53952e-06)
(0.00130652 9.12912e-07 -2.50899e-06)
(0.00130157 1.426e-06 -2.39958e-06)
(0.00129415 2.06871e-06 -2.2415e-06)
(0.00128345 2.94405e-06 -2.02736e-06)
(0.00126819 4.35007e-06 -1.74696e-06)
(0.00124452 6.81512e-06 -1.39307e-06)
(0.00131978 2.59652e-07 -1.51365e-06)
(0.00131882 5.26652e-07 -1.81147e-06)
(0.00131569 9.91037e-07 -1.78752e-06)
(0.00131032 1.54199e-06 -1.7059e-06)
(0.0013023 2.22756e-06 -1.58946e-06)
(0.00129082 3.15197e-06 -1.43486e-06)
(0.00127453 4.6157e-06 -1.23756e-06)
(0.00124954 7.14639e-06 -9.95544e-07)
(0.00132642 2.76131e-07 -1.01788e-06)
(0.00132536 5.58719e-07 -1.21811e-06)
(0.00132204 1.04754e-06 -1.20117e-06)
(0.00131638 1.62535e-06 -1.14496e-06)
(0.00130794 2.34023e-06 -1.06545e-06)
(0.0012959 3.29691e-06 -9.61283e-07)
(0.00127891 4.79762e-06 -8.30326e-07)
(0.00125304 7.37104e-06 -6.71486e-07)
(0.00133063 2.87035e-07 -5.86262e-07)
(0.00132951 5.79709e-07 -7.01327e-07)
(0.00132607 1.08477e-06 -6.91544e-07)
(0.00132021 1.68017e-06 -6.58841e-07)
(0.00131151 2.41383e-06 -6.12817e-07)
(0.00129912 3.39091e-06 -5.5309e-07)
(0.00128169 4.9157e-06 -4.77739e-07)
(0.00125526 7.51474e-06 -3.82182e-07)
(0.00133265 2.92824e-07 -1.90632e-07)
(0.00133149 5.90077e-07 -2.27698e-07)
(0.001328 1.10224e-06 -2.24725e-07)
(0.00132205 1.70638e-06 -2.14081e-07)
(0.00131322 2.44881e-06 -1.99112e-07)
(0.00130067 3.43614e-06 -1.79825e-07)
(0.00128303 4.97701e-06 -1.55001e-07)
(0.00125626 7.58408e-06 -1.20792e-07)
(1.09308e-05 7.23725e-08 0.00114973)
(1.30776e-05 1.27851e-07 0.00114889)
(1.31548e-05 1.98457e-07 0.00114824)
(1.29808e-05 2.92527e-07 0.0011473)
(1.2715e-05 4.04896e-07 0.00114595)
(1.23458e-05 5.36693e-07 0.00114413)
(1.18492e-05 6.86119e-07 0.00114175)
(1.13079e-05 8.03277e-07 0.00113874)
(1.00547e-05 2.11513e-08 0.0010997)
(1.20342e-05 3.77271e-08 0.00109949)
(1.21003e-05 5.67502e-08 0.0010993)
(1.19489e-05 8.24212e-08 0.00109902)
(1.17254e-05 1.12105e-07 0.00109863)
(1.14243e-05 1.44074e-07 0.00109811)
(1.10382e-05 1.71046e-07 0.00109746)
(1.0708e-05 1.6209e-07 0.00109671)
(1.00418e-05 -2.70428e-08 0.00105277)
(1.20188e-05 -4.56996e-08 0.00105298)
(1.20844e-05 -6.9588e-08 0.00105321)
(1.1933e-05 -1.00411e-07 0.00105354)
(1.171e-05 -1.3707e-07 0.001054)
(1.141e-05 -1.80176e-07 0.00105463)
(1.10258e-05 -2.2871e-07 0.00105544)
(1.06983e-05 -2.6355e-07 0.00105648)
(1.09054e-05 -8.04064e-08 0.00100291)
(1.30452e-05 -1.36982e-07 0.00100376)
(1.312e-05 -2.11694e-07 0.00100444)
(1.29457e-05 -3.09713e-07 0.00100544)
(1.26804e-05 -4.27843e-07 0.00100685)
(1.23126e-05 -5.69225e-07 0.00100876)
(1.18188e-05 -7.38586e-07 0.00101129)
(1.12818e-05 -8.99354e-07 0.00101456)
(-0.000903606 -9.63547e-08 6.85177e-06)
(-0.000902881 -2.51564e-07 8.12936e-06)
(-0.000904348 -5.72774e-07 8.11249e-06)
(-0.00090722 -9.20022e-07 7.89131e-06)
(-0.000911576 -1.33875e-06 7.54482e-06)
(-0.000917854 -1.91504e-06 7.02877e-06)
(-0.00092686 -2.91625e-06 6.2435e-06)
(-0.00094155 -4.95238e-06 4.89368e-06)
(-0.000876477 -1.72336e-07 4.42126e-06)
(-0.000876696 -3.68407e-07 5.23941e-06)
(-0.000878763 -7.40343e-07 5.19106e-06)
(-0.000882477 -1.17274e-06 5.00456e-06)
(-0.000888098 -1.71422e-06 4.72407e-06)
(-0.000896245 -2.4707e-06 4.31857e-06)
(-0.000908024 -3.77243e-06 3.7342e-06)
(-0.000927051 -6.30466e-06 2.87503e-06)
(-0.000858904 -2.23527e-07 3.02815e-06)
(-0.000859518 -4.57468e-07 3.59773e-06)
(-0.000862036 -8.80012e-07 3.55226e-06)
(-0.00086643 -1.38156e-06 3.40144e-06)
(-0.000873045 -2.0136e-06 3.18024e-06)
(-0.000882602 -2.89053e-06 2.87178e-06)
(-0.000896351 -4.35875e-06 2.45083e-06)
(-0.000918167 -7.09737e-06 1.88924e-06)
(-0.00084644 -2.57774e-07 2.16159e-06)
(-0.000847264 -5.21851e-07 2.57079e-06)
(-0.000850126 -9.90306e-07 2.53274e-06)
(-0.00085506 -1.54618e-06 2.41474e-06)
(-0.000862449 -2.24345e-06 2.24466e-06)
(-0.000873069 -3.20009e-06 2.01421e-06)
(-0.000888236 -4.76849e-06 1.71208e-06)
(-0.000911949 -7.62329e-06 1.32891e-06)
(-0.000837595 -2.83051e-07 1.52365e-06)
(-0.00083856 -5.70096e-07 1.81175e-06)
(-0.000841682 -1.07445e-06 1.78199e-06)
(-0.000847026 -1.67087e-06 1.69407e-06)
(-0.000854997 -2.41412e-06 1.56902e-06)
(-0.000866396 -3.42352e-06 1.40308e-06)
(-0.00088257 -5.05455e-06 1.19126e-06)
(-0.000907581 -7.98206e-06 9.30362e-07)
(-0.000831511 -3.01135e-07 1.01526e-06)
(-0.000832571 -6.04765e-07 1.20705e-06)
(-0.000835879 -1.13523e-06 1.18601e-06)
(-0.000841519 -1.76034e-06 1.1255e-06)
(-0.000849902 -2.53489e-06 1.04024e-06)
(-0.000861845 -3.57878e-06 9.28656e-07)
(-0.000878708 -5.24964e-06 7.88457e-07)
(-0.000904589 -8.22417e-06 6.17775e-07)
(-0.000827684 -3.13066e-07 5.81157e-07)
(-0.000828802 -6.27424e-07 6.90621e-07)
(-0.00083223 -1.17521e-06 6.7841e-07)
(-0.000838059 -1.81904e-06 6.43226e-07)
(-0.000846706 -2.61357e-06 5.93914e-07)
(-0.000858993 -3.67914e-06 5.30029e-07)
(-0.000876286 -5.37574e-06 4.49542e-07)
(-0.000902707 -8.37837e-06 3.46949e-07)
(-0.000825854 -3.19376e-07 1.88378e-07)
(-0.000827006 -6.38536e-07 2.23531e-07)
(-0.000830489 -1.19398e-06 2.19753e-07)
(-0.000836409 -1.8471e-06 2.083e-07)
(-0.000845182 -2.65092e-06 1.92268e-07)
(-0.000857629 -3.72725e-06 1.71653e-07)
(-0.000875121 -5.44102e-06 1.45178e-07)
(-0.000901879 -8.45211e-06 1.08378e-07)
(1.13077e-05 -0.00113956 -9.86196e-07)
(1.18661e-05 -0.00114323 -8.3836e-07)
(1.23873e-05 -0.00114616 -6.69958e-07)
(1.27835e-05 -0.00114847 -5.21832e-07)
(1.30767e-05 -0.00115024 -3.91006e-07)
(1.32868e-05 -0.00115152 -2.72808e-07)
(1.34306e-05 -0.00115236 -1.66012e-07)
(1.35055e-05 -0.00115283 -5.78898e-08)
(1.07333e-05 -0.00109747 -3.23353e-07)
(1.10861e-05 -0.00109878 -2.9851e-07)
(1.14951e-05 -0.00109989 -2.50886e-07)
(1.18192e-05 -0.0011008 -2.02547e-07)
(1.20647e-05 -0.00110151 -1.55909e-07)
(1.22434e-05 -0.00110204 -1.10734e-07)
(1.23687e-05 -0.0011024 -6.67961e-08)
(1.24387e-05 -0.00110257 -2.25708e-08)
(1.07338e-05 -0.00105712 1.29308e-07)
(1.10872e-05 -0.00105654 1.24779e-07)
(1.1494e-05 -0.00105609 9.54584e-08)
(1.18153e-05 -0.00105577 6.74789e-08)
(1.20582e-05 -0.00105555 4.5425e-08)
(1.22347e-05 -0.00105541 2.87838e-08)
(1.23586e-05 -0.00105532 1.65634e-08)
(1.24277e-05 -0.00105528 5.73912e-09)
(1.13263e-05 -0.00101504 7.95589e-07)
(1.18919e-05 -0.00101212 6.58727e-07)
(1.24086e-05 -0.00100987 5.05786e-07)
(1.27978e-05 -0.00100817 3.78169e-07)
(1.3084e-05 -0.00100692 2.73189e-07)
(1.32882e-05 -0.00100604 1.85436e-07)
(1.34278e-05 -0.00100548 1.12584e-07)
(1.35008e-05 -0.00100515 4.00141e-08)
)
;
        traction        nonuniform List<vector> 
192
(
(26.7942 0.00190733 -0.134472)
(26.8085 0.00498462 -0.160391)
(26.7772 0.0112604 -0.160188)
(26.7157 0.0181257 -0.155858)
(26.6222 0.0264028 -0.149084)
(26.487 0.0377082 -0.139021)
(26.293 0.0569026 -0.123792)
(25.9793 0.0943222 -0.0980083)
(27.3935 0.0034061 -0.0896089)
(27.3884 0.00730142 -0.10684)
(27.3441 0.0145975 -0.106025)
(27.2645 0.0231373 -0.10234)
(27.1437 0.033824 -0.0967993)
(26.9683 0.0486382 -0.0888082)
(26.7147 0.0735809 -0.077344)
(26.3087 0.120254 -0.0606489)
(27.7907 0.00440487 -0.0627403)
(27.7773 0.00905942 -0.0750048)
(27.7233 0.0173705 -0.0742265)
(27.6289 0.0272816 -0.0712353)
(27.4865 0.039757 -0.066842)
(27.2806 0.0569365 -0.0607228)
(26.9843 0.085104 -0.0523946)
(26.5182 0.135697 -0.0413549)
(28.0762 0.00507141 -0.0454687)
(28.0584 0.010331 -0.0544183)
(27.997 0.0195624 -0.0537641)
(27.8909 0.0305572 -0.0514196)
(27.7317 0.0443295 -0.0480322)
(27.5026 0.0630869 -0.0434433)
(27.1755 0.0932158 -0.0374349)
(26.6683 0.146038 -0.0298516)
(28.2811 0.00556398 -0.0324353)
(28.2603 0.0112854 -0.0388172)
(28.1933 0.0212365 -0.038304)
(28.0783 0.0330426 -0.0365551)
(27.9065 0.0477333 -0.0340599)
(27.6604 0.0675421 -0.0307469)
(27.3113 0.0989078 -0.0265191)
(26.7759 0.153137 -0.0213331)
(28.4234 0.00591708 -0.0218117)
(28.4006 0.0119725 -0.0261023)
(28.3295 0.0224473 -0.0257394)
(28.2081 0.034829 -0.0245348)
(28.0273 0.0501478 -0.0228311)
(27.7694 0.0706481 -0.0205989)
(27.4052 0.102806 -0.0177927)
(26.8508 0.157951 -0.014389)
(28.5135 0.00615074 -0.0125628)
(28.4894 0.0124223 -0.0150284)
(28.4158 0.023245 -0.0148188)
(28.2903 0.0360036 -0.014118)
(28.1037 0.0517248 -0.0131318)
(27.8383 0.0726623 -0.0118519)
(27.4647 0.105336 -0.0102373)
(26.8984 0.16103 -0.00818961)
(28.5567 0.00627479 -0.00408497)
(28.532 0.0126445 -0.00487923)
(28.4571 0.0236193 -0.00481554)
(28.3296 0.0365652 -0.00458744)
(28.1404 0.0524745 -0.00426669)
(27.8714 0.0736316 -0.00385339)
(27.4935 0.10665 -0.00332146)
(26.9199 0.162516 -0.00258841)
(0.234232 0.00155084 24.637)
(0.280235 0.00273965 24.6191)
(0.281888 0.00425265 24.6052)
(0.278159 0.00626843 24.5849)
(0.272465 0.00867633 24.5561)
(0.264553 0.0115006 24.5171)
(0.253912 0.0147025 24.4661)
(0.242312 0.0172131 24.4015)
(0.215458 0.000453242 23.565)
(0.257875 0.000808438 23.5605)
(0.259292 0.00121608 23.5564)
(0.256048 0.00176617 23.5504)
(0.251258 0.00240225 23.542)
(0.244806 0.00308729 23.5309)
(0.236532 0.00366528 23.517)
(0.229457 0.00347336 23.5009)
(0.215181 -0.00057949 22.5593)
(0.257546 -0.000979277 22.564)
(0.258951 -0.00149117 22.5688)
(0.255708 -0.00215167 22.5758)
(0.250929 -0.00293722 22.5858)
(0.244501 -0.00386092 22.5992)
(0.236268 -0.00490093 22.6167)
(0.22925 -0.00564749 22.6389)
(0.233687 -0.00172299 21.4909)
(0.279539 -0.00293532 21.5091)
(0.281144 -0.00453631 21.5238)
(0.277407 -0.00663671 21.5451)
(0.271722 -0.00916805 21.5754)
(0.263841 -0.0121977 21.6164)
(0.253261 -0.0158268 21.6704)
(0.241752 -0.0192719 21.7405)
(-19.363 -0.00206474 0.146824)
(-19.3475 -0.00539066 0.174201)
(-19.3789 -0.0122737 0.173839)
(-19.4404 -0.0197148 0.1691)
(-19.5338 -0.0286875 0.161675)
(-19.6683 -0.0410367 0.150616)
(-19.8613 -0.0624911 0.133789)
(-20.1761 -0.106122 0.104865)
(-18.7816 -0.00369291 0.0947413)
(-18.7863 -0.00789443 0.112273)
(-18.8306 -0.0158645 0.111237)
(-18.9102 -0.0251302 0.107241)
(-19.0307 -0.0367334 0.10123)
(-19.2052 -0.0529437 0.0925409)
(-19.4577 -0.0808377 0.0800185)
(-19.8654 -0.1351 0.0616077)
(-18.4051 -0.00478987 0.064889)
(-18.4182 -0.00980289 0.0770943)
(-18.4722 -0.0188574 0.0761199)
(-18.5664 -0.0296049 0.0728881)
(-18.7081 -0.0431486 0.0681481)
(-18.9129 -0.06194 0.0615382)
(-19.2075 -0.0934018 0.0525179)
(-19.675 -0.152086 0.0404836)
(-18.138 -0.00552373 0.0463197)
(-18.1556 -0.0111825 0.0550883)
(-18.217 -0.0212208 0.054273)
(-18.3227 -0.0331325 0.0517444)
(-18.481 -0.048074 0.0480998)
(-18.7086 -0.0685733 0.0431617)
(-19.0336 -0.102182 0.0366875)
(-19.5418 -0.163356 0.0284766)
(-17.9485 -0.00606538 0.0326497)
(-17.9691 -0.0122163 0.0388231)
(-18.036 -0.023024 0.0381856)
(-18.1506 -0.0358044 0.0363015)
(-18.3214 -0.0517312 0.0336219)
(-18.5656 -0.0733611 0.0300661)
(-18.9122 -0.108312 0.0255271)
(-19.4482 -0.171044 0.0199363)
(-17.8181 -0.00645288 0.0217555)
(-17.8408 -0.0129593 0.0258653)
(-17.9117 -0.0243264 0.0254145)
(-18.0325 -0.0377215 0.0241178)
(-18.2122 -0.0543192 0.0222908)
(-18.4681 -0.0766882 0.0198998)
(-18.8294 -0.112492 0.0168955)
(-19.3841 -0.176232 0.013238)
(-17.7361 -0.00670857 0.0124534)
(-17.7601 -0.0134448 0.014799)
(-17.8335 -0.0251831 0.0145374)
(-17.9584 -0.0389794 0.0137834)
(-18.1437 -0.0560052 0.0127267)
(-18.407 -0.0788387 0.0113578)
(-18.7775 -0.115194 0.00963305)
(-19.3437 -0.179537 0.00743463)
(-17.6969 -0.00684377 0.00403667)
(-17.7216 -0.0136829 0.00478996)
(-17.7962 -0.0255853 0.00470898)
(-17.9231 -0.0395806 0.00446357)
(-18.111 -0.0568055 0.00412003)
(-18.3778 -0.0798697 0.00367828)
(-18.7526 -0.116593 0.00311095)
(-19.326 -0.181117 0.00232238)
(0.242309 -24.4191 -0.0211328)
(0.254273 -24.4977 -0.0179648)
(0.265441 -24.5605 -0.0143563)
(0.273931 -24.61 -0.0111821)
(0.280215 -24.6479 -0.00837869)
(0.284717 -24.6755 -0.00584588)
(0.287799 -24.6935 -0.0035574)
(0.289404 -24.7035 -0.0012405)
(0.229999 -23.5171 -0.006929)
(0.237559 -23.5453 -0.00639663)
(0.246324 -23.5691 -0.00537612)
(0.253268 -23.5885 -0.00434029)
(0.25853 -23.6038 -0.00334091)
(0.262358 -23.6152 -0.00237288)
(0.265043 -23.6228 -0.00143135)
(0.266544 -23.6265 -0.00048366)
(0.23001 -22.6525 0.00277088)
(0.237582 -22.6402 0.00267384)
(0.2463 -22.6305 0.00204554)
(0.253185 -22.6237 0.00144598)
(0.25839 -22.6189 0.000973392)
(0.262173 -22.6158 0.000616796)
(0.264827 -22.614 0.00035493)
(0.266308 -22.6131 0.000122981)
(0.242706 -21.7508 0.0170483)
(0.254825 -21.6882 0.0141156)
(0.265899 -21.64 0.0108383)
(0.274239 -21.6037 0.00810362)
(0.280372 -21.5769 0.00585405)
(0.284748 -21.558 0.00397363)
(0.287739 -21.5459 0.00241252)
(0.289303 -21.5389 0.000857445)
)
;
        pressure        uniform 0;
        value           nonuniform List<vector> 
192
(
(0.000571688 0.000603101 0.000307239)
(0.0012472 0.00114619 0.000263133)
(0.00232555 0.00167504 0.000171393)
(0.00356277 0.00205699 3.49401e-05)
(0.0049431 0.00231888 -0.000105491)
(0.00639278 0.00247331 -0.000235676)
(0.00786595 0.00254947 -0.000344347)
(0.00933266 0.00258617 -0.000428378)
(0.000611262 0.000629526 0.000154939)
(0.00134288 0.00114281 0.000151536)
(0.00238249 0.00167284 9.66387e-05)
(0.0035909 0.00205829 5.85645e-06)
(0.00492938 0.00232311 -9.40106e-05)
(0.00633881 0.00248172 -0.000190077)
(0.00777535 0.00256238 -0.000272921)
(0.00921402 0.00260702 -0.000337389)
(0.000639632 0.000652333 7.38619e-05)
(0.00138372 0.00113948 7.07732e-05)
(0.00241693 0.00165779 3.52524e-05)
(0.00360573 0.00204023 -2.40674e-05)
(0.00491865 0.00230635 -9.26893e-05)
(0.00630097 0.00247043 -0.000160839)
(0.00771236 0.00255964 -0.000221418)
(0.00913034 0.00261719 -0.000269345)
(0.000653571 0.000663715 3.24569e-05)
(0.00140174 0.00113645 2.5622e-05)
(0.00243152 0.00164593 -1.5612e-07)
(0.00360919 0.00202382 -4.03595e-05)
(0.00490674 0.00228996 -8.72691e-05)
(0.0062719 0.00245772 -0.000134986)
(0.00766657 0.00255347 -0.000178637)
(0.00907044 0.0026203 -0.00021396)
(0.000659836 0.000668668 1.22844e-05)
(0.00140836 0.00113376 3.55501e-06)
(0.00243489 0.00163796 -1.57879e-05)
(0.00360553 0.0020127 -4.34966e-05)
(0.00489354 0.00227848 -7.55223e-05)
(0.00624772 0.00244836 -0.000108532)
(0.00763118 0.0025482 -0.000139449)
(0.0090245 0.00262082 -0.000164929)
(0.00066253 0.00067057 3.36515e-06)
(0.00141001 0.00113157 -4.72225e-06)
(0.0024336 0.00163293 -1.85087e-05)
(0.00359948 0.00200594 -3.69507e-05)
(0.0048814 0.00227147 -5.79779e-05)
(0.00622852 0.00244251 -7.9787e-05)
(0.00760445 0.00254462 -0.000100534)
(0.00899029 0.00262059 -0.000117826)
(0.000663614 0.00067117 2.34658e-07)
(0.0014099 0.00113003 -5.33118e-06)
(0.00243129 0.00162999 -1.36566e-05)
(0.00359409 0.00200217 -2.43146e-05)
(0.00487227 0.0022676 -3.63368e-05)
(0.00621509 0.00243924 -4.88398e-05)
(0.0075863 0.00254253 -6.0841e-05)
(0.00896725 0.00262029 -7.09038e-05)
(0.000663969 0.000671304 -1.82946e-07)
(0.00140954 0.00112925 -2.15231e-06)
(0.00242973 0.00162862 -4.9406e-06)
(0.003591 0.00200049 -8.43683e-06)
(0.00486738 0.0022659 -1.23588e-05)
(0.00620813 0.00243779 -1.64422e-05)
(0.00757702 0.00254156 -2.03775e-05)
(0.00895552 0.00262002 -2.36841e-05)
(0.000237272 0.000326914 0.00046413)
(0.00105177 0.000671964 0.000266995)
(0.00213811 0.00106958 0.000204979)
(0.00343103 0.00135688 7.05229e-05)
(0.00486289 0.00156329 -5.72683e-05)
(0.00636003 0.00169496 -0.000175722)
(0.00786694 0.00176886 -0.000272941)
(0.00935648 0.00180652 -0.000356246)
(5.16596e-05 8.93755e-05 0.000124751)
(0.000805507 0.00017294 9.10227e-05)
(0.00189734 0.000306329 3.9232e-05)
(0.00321378 0.000395645 -1.99441e-05)
(0.00466645 0.000452217 -7.72982e-05)
(0.00618186 0.000479337 -0.00013114)
(0.00770238 0.000483622 -0.000181683)
(0.00918871 0.000478638 -0.000235741)
(3.48748e-05 -0.000130347 -0.000154954)
(0.000764327 -0.000217558 -0.000162756)
(0.0018411 -0.000361391 -0.000161102)
(0.00314851 -0.000479277 -0.000145747)
(0.00459442 -0.000582309 -0.000128625)
(0.00610562 -0.000667858 -0.000114545)
(0.00762285 -0.000737252 -0.000108656)
(0.00909921 -0.000790507 -0.000110315)
(0.000181777 -0.000388667 -0.000496257)
(0.000919489 -0.000722472 -0.000365741)
(0.00196055 -0.00113281 -0.000354026)
(0.0032236 -0.00144951 -0.000265407)
(0.00463294 -0.00169911 -0.000178451)
(0.00611547 -0.00188146 -9.7863e-05)
(0.0076127 -0.00200949 -3.74578e-05)
(0.00907995 -0.00210094 -4.76762e-06)
(0.000480847 -0.000603484 -0.000349947)
(0.00109181 -0.00117088 -0.000378139)
(0.00211329 -0.00173105 -0.000340976)
(0.0033114 -0.00214472 -0.000249971)
(0.00466257 -0.00244568 -0.00014913)
(0.00609329 -0.00264284 -5.43792e-05)
(0.0075519 -0.00275897 1.99041e-05)
(0.00899825 -0.00282034 5.90274e-05)
(0.000503847 -0.00062465 -0.000188975)
(0.00118777 -0.00116225 -0.000236747)
(0.00217158 -0.00171503 -0.000225067)
(0.00334027 -0.0021261 -0.000172111)
(0.00464868 -0.00242109 -0.000106421)
(0.00603767 -0.00261224 -4.29951e-05)
(0.00745881 -0.00272238 5.66211e-06)
(0.00887888 -0.0027812 2.74886e-05)
(0.000520988 -0.000644619 -0.000100255)
(0.00122035 -0.00115444 -0.000136975)
(0.0021992 -0.00168804 -0.000136178)
(0.00334853 -0.00208833 -0.000108799)
(0.00463096 -0.00237576 -7.00343e-05)
(0.00599218 -0.0025628 -3.1415e-05)
(0.00738745 -0.00267151 -2.49134e-06)
(0.00878475 -0.0027305 6.2972e-06)
(0.00052653 -0.00065218 -5.18372e-05)
(0.0012292 -0.0011455 -7.67314e-05)
(0.00220454 -0.00166448 -7.87661e-05)
(0.00334305 -0.00205335 -6.48127e-05)
(0.00461014 -0.00233325 -4.31693e-05)
(0.00595401 -0.00251604 -2.10644e-05)
(0.00733183 -0.00262295 -5.37259e-06)
(0.00871242 -0.00268132 -4.4161e-06)
(0.000526714 -0.000653298 -2.58986e-05)
(0.00122834 -0.00113682 -4.1722e-05)
(0.00219993 -0.00164585 -4.39472e-05)
(0.00333161 -0.00202607 -3.68663e-05)
(0.00458936 -0.0022996 -2.50944e-05)
(0.00592228 -0.00247832 -1.3008e-05)
(0.00728838 -0.00258296 -5.22849e-06)
(0.00865672 -0.00263994 -7.88853e-06)
(0.00052516 -0.000652018 -1.22969e-05)
(0.00122453 -0.00112958 -2.17176e-05)
(0.00219268 -0.00163214 -2.33862e-05)
(0.00331971 -0.0020065 -1.98474e-05)
(0.00457154 -0.00227535 -1.36461e-05)
(0.00589752 -0.00245075 -7.35821e-06)
(0.00725583 -0.00255323 -3.89543e-06)
(0.00861562 -0.00260862 -7.37672e-06)
(0.000523546 -0.000650405 -5.27284e-06)
(0.0012209 -0.00112448 -1.01923e-05)
(0.00218648 -0.00162313 -1.11743e-05)
(0.00331049 -0.00199391 -9.54155e-06)
(0.00455872 -0.00225977 -6.57138e-06)
(0.00588049 -0.00243289 -3.62283e-06)
(0.00723399 -0.00253375 -2.29316e-06)
(0.00858832 -0.00258787 -4.9379e-06)
(0.000522604 -0.000649413 -1.44048e-06)
(0.00121883 -0.00112187 -2.96059e-06)
(0.00218305 -0.00161867 -3.28088e-06)
(0.00330555 -0.00198775 -2.80831e-06)