/*--------------------------------*- C++ -*----------------------------------*\
| =========                 |                                                 |
| \\      /  F ield         | foam-extend: Open Source CFD                    |
|  \\    /   O peration     | Version:     3.1                                |
|   \\  /    A nd           | Web:         http://www.extend-project.de       |
|    \\/     M anipulation  |                                                 |
\*---------------------------------------------------------------------------*/
FoamFile
{
    version     2.0;
    format      ascii;
    class       volSymmTensorField;
    location    "3.8";
    object      epsilon;
}
// * * * * * * * * * * * * * * * * * * * * * * * * * * * * * * * * * * * * * //

dimensions      [0 0 0 0 0 0 0];

internalField   nonuniform List<symmTensor> 
256
(
(-0.00656235 0.00859774 -0.000374516 0.024998 0.0045052 -0.00263965)
(-0.00219253 0.00729629 -0.00114797 0.00592664 0.00154576 -0.00096247)
(0.00114204 0.00680268 -0.0011737 -0.00680363 -0.00226277 0.00117093)
(0.00517138 0.00726453 -0.000475759 -0.0247376 -0.00551038 0.00287486)
(-0.0116045 0.0035951 -0.000421368 0.0160921 -0.00144631 -0.00394568)
(-0.00466162 0.00944742 -0.00180449 0.00615547 -0.000654876 -0.00140205)
(0.00209088 0.00924067 -0.00186838 -0.00513702 0.000320963 0.00191648)
(0.00891451 0.00344519 -0.000653153 -0.0151518 0.000983459 0.00461854)
(-0.0097927 0.00442916 -0.000145473 0.0150033 -0.000796915 -0.00222204)
(-0.00481556 0.00917816 -0.00121953 0.00558911 -0.000336394 -0.000688406)
(0.00148606 0.00917243 -0.00126891 -0.00415873 2.19485e-05 0.0014344)
(0.00662474 0.004452 -0.000387557 -0.0136507 0.000435457 0.00323935)
(-0.00848438 0.00391796 -0.000136082 0.0112236 -0.00113764 -0.00119945)
(-0.00439182 0.00842163 -0.000989473 0.00442438 -0.000401099 -0.00023418)
(0.000791412 0.00846348 -0.00102628 -0.00289768 0.000150637 0.00122812)
(0.00499892 0.00399857 -0.00040063 -0.0096959 0.00086562 0.00249013)
(-0.00699371 0.00343288 -8.03159e-05 0.00806621 -0.00104831 -6.71747e-05)
(-0.00390039 0.00730467 -0.000780627 0.00334183 -0.000346535 0.000233355)
(0.000210767 0.00738141 -0.000810941 -0.00185794 0.000149602 0.000945175)
(0.00332927 0.00356777 -0.000349313 -0.0064682 0.000856721 0.00155849)
(-0.00583803 0.0026784 -8.98435e-05 0.00535318 -0.00091985 0.000853891)
(-0.00348063 0.00590811 -0.000670454 0.00238886 -0.000304682 0.000616412)
(-0.000230617 0.00603755 -0.00068071 -0.00101662 0.000134772 0.000706386)
(0.00204397 0.00292208 -0.000336554 -0.00372623 0.000796933 0.000770017)
(-0.00512447 0.00175682 -0.00016915 0.00353767 -0.000768704 0.00162679)
(-0.00328087 0.0043462 -0.00064112 0.00169567 -0.000302876 0.000960734)
(-0.000559931 0.00448316 -0.000616184 -0.000384818 7.82876e-05 0.000501429)
(0.00121814 0.00214301 -0.000353521 -0.00176744 0.00062757 9.30145e-05)
(-0.00545015 0.00101126 -0.000253496 0.00258553 -0.000449336 0.00225358)
(-0.0040121 0.00250199 -0.000598737 0.00154388 -0.000212986 0.00126367)
(-0.00056713 0.00241713 -0.000583993 0.000145024 -2.83383e-05 0.000330665)
(0.00117984 0.00106093 -0.000420633 -0.000704786 0.000215648 -0.000452893)
(-0.006612 0.00981116 -0.000227266 0.0243199 0.00278365 -0.00175373)
(-0.00202322 0.00882237 -0.000918714 0.0057863 0.000868468 -0.000655495)
(0.00104937 0.00839676 -0.00100625 -0.00587863 -0.00162079 0.000783039)
(0.00517384 0.00853619 -0.000438647 -0.023282 -0.00378711 0.00199904)
(-0.0116388 0.00370878 -0.000311425 0.0175877 -0.000558555 -0.00311594)
(-0.0042858 0.00977393 -0.00168164 0.00690008 -0.000386735 -0.00113536)
(0.00192432 0.00966067 -0.0018692 -0.0058878 -0.000175946 0.00151987)
(0.00893968 0.00370975 -0.000761571 -0.0167099 -0.000119033 0.00381565)
(-0.00961198 0.00389789 -8.85842e-05 0.0151248 -0.00125636 -0.00220089)
(-0.00431742 0.00842903 -0.00130808 0.00570573 -0.000534153 -0.000744247)
(0.00135475 0.00845148 -0.00151112 -0.00425841 0.000163005 0.00135044)
(0.00654372 0.00393026 -0.000609252 -0.0137437 0.000820835 0.00323153)
(-0.00815405 0.00326566 8.05479e-05 0.0113623 -0.00156069 -0.00109586)
(-0.00383154 0.00731723 -0.000905256 0.00451654 -0.000569394 -0.000306014)
(0.00066775 0.00736559 -0.00111905 -0.00292101 0.000329411 0.00108415)
(0.00478699 0.00333825 -0.000496524 -0.00975309 0.00129548 0.00235397)
(-0.00665444 0.00271141 0.000233953 0.00803214 -0.00155933 3.92241e-06)
(-0.00334165 0.00610502 -0.000583639 0.00336602 -0.000534944 0.000116789)
(0.000115662 0.00617824 -0.000802872 -0.00175929 0.000384642 0.000807389)
(0.00310823 0.00283179 -0.000368746 -0.0062996 0.00142401 0.00142573)
(-0.00550457 0.00202273 0.000312813 0.00528271 -0.00138135 0.000961698)
(-0.00294144 0.00481514 -0.000370362 0.00239359 -0.000471195 0.000492062)
(-0.000311506 0.0049354 -0.000576138 -0.000849481 0.000350739 0.000568178)
(0.00180983 0.00225547 -0.000276217 -0.00346339 0.00133101 0.000597873)
(-0.00481194 0.00121078 0.000305958 0.00344159 -0.00108854 0.00174749)
(-0.00277967 0.00348072 -0.000269626 0.00166411 -0.000412548 0.000825842)
(-0.000627671 0.00361758 -0.000447347 -0.000180692 0.000229564 0.000389766)
(0.000985841 0.00162626 -0.000223965 -0.00142866 0.00103303 -6.74012e-05)
(-0.00514552 0.000750849 0.000245428 0.00252363 -0.000625961 0.00237124)
(-0.00355809 0.00206356 -0.000247233 0.00151423 -0.000278843 0.00111734)
(-0.000667782 0.00197537 -0.000457305 0.000284959 4.85376e-05 0.000254199)
(0.000923615 0.000824568 -0.000301073 -0.000463771 0.000475534 -0.000575622)
(-0.00694083 0.0103325 -0.00014959 0.024553 0.0013785 -0.00100988)
(-0.00215638 0.00923036 -0.000586248 0.00588421 0.00034882 -0.000357066)
(0.00111069 0.00876779 -0.000659717 -0.00569119 -0.00102108 0.000485874)
(0.00539379 0.00892693 -0.000306467 -0.0232591 -0.00218895 0.00121182)
(-0.0122662 0.00378967 -0.000251023 0.0172608 -0.000379353 -0.00190362)
(-0.00457851 0.00995539 -0.00113555 0.00695856 -0.000316387 -0.000631077)
(0.00207202 0.00984699 -0.00129613 -0.00570953 -0.000229316 0.00101634)
(0.00940258 0.00379123 -0.000590628 -0.0161865 -0.000201534 0.00246396)
(-0.0100915 0.00385139 -0.000133752 0.0150537 -0.00097055 -0.00146618)
(-0.00457455 0.00837183 -0.000966172 0.00579654 -0.000458613 -0.000399471)
(0.00147335 0.00839226 -0.00114367 -0.00416087 8.51603e-05 0.00101632)
(0.00688923 0.00385082 -0.000521081 -0.0134699 0.000577758 0.00230094)
(-0.00844959 0.0031536 2.77738e-06 0.0113633 -0.00126885 -0.000734279)
(-0.00400122 0.00704496 -0.000684656 0.00459238 -0.000504037 -7.94501e-05)
(0.000693505 0.00708966 -0.000868966 -0.00281568 0.000273559 0.000890081)
(0.00493277 0.0032035 -0.000411053 -0.00955631 0.00103746 0.00178617)
(-0.00684422 0.00254344 0.000127394 0.00810109 -0.00131569 7.59894e-05)
(-0.0034611 0.0057417 -0.000414291 0.00344867 -0.000481379 0.000257745)
(7.9323e-05 0.00581777 -0.000600021 -0.00166161 0.000355239 0.00072416)
(0.0031272 0.0026593 -0.00029391 -0.00615837 0.00121412 0.00115382)
(-0.0056146 0.00183624 0.000205572 0.00541303 -0.00119043 0.000826086)
(-0.0030214 0.0044405 -0.000220718 0.0024769 -0.000423135 0.000573412)
(-0.00039658 0.00457827 -0.000394898 -0.000758276 0.0003446 0.000574739)
(0.00172272 0.00209721 -0.000198604 -0.00337112 0.00117388 0.000560375)
(-0.00485269 0.00101879 0.000217826 0.0036423 -0.00093865 0.00145753)
(-0.00282783 0.00316682 -0.000130906 0.00174521 -0.000352149 0.000858766)
(-0.000756206 0.00333873 -0.00028861 -0.000105506 0.000243181 0.000476407)
(0.000808111 0.00151243 -0.000148734 -0.00138187 0.000936324 9.19653e-05)
(-0.00512297 0.000657814 0.000162017 0.00272915 -0.000506222 0.00192525)
(-0.00360698 0.00190605 -0.000161888 0.00160528 -0.000211042 0.00109402)
(-0.000890132 0.001838 -0.000362696 0.00034767 6.41285e-05 0.000442289)
(0.00063934 0.000781508 -0.000248789 -0.000438516 0.000424336 -0.00018483)
(-0.00717974 0.010537 -8.00156e-05 0.024686 0.000583559 -0.000524174)
(-0.00227285 0.00932078 -0.000348209 0.0059413 7.90618e-05 -0.000168053)
(0.00114226 0.00881511 -0.000398015 -0.00558634 -0.000632617 0.000304657)
(0.00554929 0.00902007 -0.000190445 -0.0232067 -0.00121026 0.000704462)
(-0.0127318 0.00381802 -0.000145025 0.0169666 -0.000318839 -0.000994247)
(-0.00483943 0.0100482 -0.000707212 0.00696841 -0.000261602 -0.000276037)
(0.00213963 0.00993069 -0.000818719 -0.00549837 -0.00019912 0.000675686)
(0.00971863 0.00381481 -0.000388883 -0.015713 -0.000144395 0.00149116)
(-0.0105131 0.00387941 -9.13282e-05 0.014907 -0.000695756 -0.000739632)
(-0.00484629 0.00842565 -0.000648193 0.00584055 -0.000352019 -0.000106325)
(0.00152101 0.00844413 -0.000772583 -0.00398635 2.93149e-05 0.000744552)
(0.00716254 0.00386833 -0.000368608 -0.013108 0.000376444 0.00148993)
(-0.00878137 0.00315443 -7.34303e-06 0.0113247 -0.000911457 -0.000261609)
(-0.00423639 0.0070374 -0.00048048 0.00465789 -0.000383568 0.000134883)
(0.000689169 0.00708271 -0.000606381 -0.00267207 0.000184156 0.000717228)
(0.00510417 0.00320083 -0.000296888 -0.00930101 0.000721145 0.00123326)
(-0.00707928 0.00251864 7.88141e-05 0.00816012 -0.000966959 0.000305016)
(-0.00365925 0.00568536 -0.000295556 0.00353536 -0.000369094 0.000399648)
(2.65824e-05 0.0057688 -0.000419169 -0.00155069 0.00026322 0.000650542)
(0.003188 0.00264439 -0.000209999 -0.00599998 0.000884054 0.000864263)
(-0.00576891 0.00178906 0.000137643 0.00555284 -0.000897379 0.000857622)
(-0.00318583 0.00435621 -0.000156064 0.00257707 -0.000328348 0.000658543)
(-0.000488921 0.00451261 -0.000270077 -0.000677122 0.000268409 0.000589305)
(0.00168497 0.00208182 -0.000136223 -0.00329302 0.000884053 0.000499101)
(-0.00493523 0.000953245 0.000147945 0.00385406 -0.000727521 0.00133866)
(-0.00296579 0.00308301 -0.000101333 0.00185322 -0.000274394 0.000901494)
(-0.000889894 0.00328269 -0.000205995 -4.90463e-05 0.000196426 0.000569661)
(0.000676675 0.00150569 -0.000102385 -0.00135839 0.000724594 0.000221567)
(-0.00515287 0.000628684 8.89638e-05 0.00296538 -0.00041272 0.00170688)
(-0.0037543 0.00186054 -0.00017095 0.00173218 -0.000168909 0.00111793)
(-0.00110627 0.00180222 -0.000312689 0.000394279 5.37066e-05 0.000621711)
(0.000407131 0.000780644 -0.000202248 -0.000450779 0.000334546 0.000118213)
(-0.00732927 0.0106063 -3.63523e-05 0.0247356 0.000186266 -0.000242331)
(-0.00234982 0.00930623 -0.000195736 0.00597733 -3.7867e-05 -5.90853e-05)
(0.0011514 0.00876787 -0.000227577 -0.00550327 -0.000386542 0.000195845)
(0.00563146 0.00900665 -0.000111155 -0.0230991 -0.000649245 0.000404574)
(-0.0130391 0.00381863 -6.9583e-05 0.0167916 -0.000268958 -0.000431961)
(-0.00501571 0.0100733 -0.000414869 0.00698286 -0.000207555 -5.9494e-05)
(0.00215616 0.00994832 -0.000488069 -0.00532919 -0.000152569 0.000460585)
(0.00989316 0.00381488 -0.000237608 -0.0153872 -8.51173e-05 0.000887829)
(-0.0108202 0.00390038 -4.68138e-05 0.0147988 -0.000488464 -0.000233986)
(-0.00504123 0.00847295 -0.000405019 0.00587502 -0.000256162 9.01777e-05)
(0.00152416 0.00849273 -0.000487659 -0.00382699 1.41102e-06 0.000555928)
(0.00732631 0.0038885 -0.000237845 -0.0128155 0.000243373 0.00093926)
(-0.00904961 0.00317555 3.59693e-07 0.0112877 -0.000623004 0.000110122)
(-0.00441738 0.00708324 -0.000313364 0.00471204 -0.000272404 0.000288569)
(0.000666347 0.0071323 -0.000395353 -0.00253722 0.000113241 0.000585627)
(0.00521544 0.00322635 -0.0001961 -0.00907357 0.00047445 0.000823485)
(-0.00729138 0.00253153 5.34044e-05 0.00819652 -0.000666309 0.00052298)
(-0.00381915 0.00571624 -0.000199447 0.00360698 -0.000262518 0.000507539)
(-2.33664e-05 0.00580753 -0.000278204 -0.00144575 0.000175927 0.000586088)
(0.0032326 0.00267 -0.000139736 -0.00584821 0.000597616 0.000626744)
(-0.00592697 0.00178756 9.06168e-05 0.00565016 -0.000631746 0.000939947)
(-0.00332382 0.00436812 -0.000111636 0.00265967 -0.000237204 0.000728874)
(-0.000563614 0.00453858 -0.000183105 -0.000601827 0.000185705 0.000590195)
(0.00166294 0.002106 -9.12182e-05 -0.00320811 0.000612666 0.000426071)
(-0.00504421 0.000935195 9.26991e-05 0.00400071 -0.000527238 0.00131737)
(-0.00308814 0.00308126 -8.78547e-05 0.00194116 -0.000202291 0.000945316)
(-0.000993416 0.00329794 -0.000153727 2.79525e-06 0.00013723 0.000630072)
(0.000589157 0.00152806 -7.42698e-05 -0.00131952 0.000511906 0.000289893)
(-0.00523225 0.000623362 3.41302e-05 0.00312812 -0.000308174 0.00160971)
(-0.0038905 0.00185927 -0.000170752 0.00183312 -0.000127325 0.0011458)
(-0.00126593 0.00180114 -0.000263962 0.000439904 3.4294e-05 0.000739402)
(0.000253197 0.00079027 -0.000163464 -0.000441953 0.000236538 0.000305571)
(-0.00741579 0.0106221 -1.26864e-05 0.0247463 1.67807e-05 -8.56939e-05)
(-0.00239763 0.00926654 -0.000103392 0.00600225 -6.93937e-05 4.26791e-07)
(0.0011508 0.00870553 -0.000122797 -0.00543789 -0.000227533 0.000131613)
(0.00566825 0.00896505 -6.09612e-05 -0.0229856 -0.000333866 0.000233586)
(-0.0132254 0.00380785 -2.55081e-05 0.0166974 -0.000206264 -0.000106471)
(-0.00512726 0.0100653 -0.000227763 0.00700221 -0.000151062 6.33558e-05)
(0.00215226 0.00993548 -0.000273434 -0.00520651 -0.000105614 0.000329515)
(0.00997768 0.003806 -0.000135405 -0.0151745 -4.41798e-05 0.00053346)
(-0.0110197 0.00390911 -1.63572e-05 0.0147374 -0.000326337 8.03982e-05)
(-0.00516896 0.0084971 -0.000234605 0.00590588 -0.000174161 0.000208793)
(0.00151185 0.00851894 -0.000286773 -0.00370611 -8.47361e-06 0.000434144)
(0.00741294 0.00389968 -0.00014155 -0.0126113 0.000152637 0.000598223)
(-0.0092341 0.00319206 8.41211e-06 0.0112659 -0.000402895 0.000359845)
(-0.00454023 0.00712315 -0.000188282 0.0047547 -0.000180497 0.000386282)
(0.00064125 0.00717605 -0.000239365 -0.00243137 6.49182e-05 0.000495139)
(0.00527595 0.00324885 -0.000119272 -0.00890411 0.00029588 0.000555172)
(-0.00744642 0.00254738 3.84005e-05 0.008218 -0.000430838 0.00068824)
(-0.00393062 0.0057565 -0.000123983 0.00365987 -0.00017364 0.000580247)
(-6.25245e-05 0.00585408 -0.000172322 -0.00136123 0.000108107 0.000536862)
(0.00325627 0.00269687 -8.61747e-05 -0.00572549 0.000377541 0.000458678)
(-0.00605045 0.00179548 5.92467e-05 0.00570846 -0.00041472 0.00102625)
(-0.00342224 0.00439842 -7.46353e-05 0.00271815 -0.00015907 0.000780496)
(-0.00061662 0.00457871 -0.000117999 -0.000540111 0.000116616 0.00058398)
(0.00164683 0.00213263 -5.78158e-05 -0.00313079 0.000392847 0.000360854)
(-0.00513807 0.000930551 5.63983e-05 0.00408868 -0.000354136 0.00134204)
(-0.00317771 0.00309805 -6.96301e-05 0.00200157 -0.000138367 0.000982012)
(-0.00106398 0.00332547 -0.00010972 4.58039e-05 8.57269e-05 0.000663524)
(0.000532997 0.00155085 -5.1869e-05 -0.00127536 0.000332024 0.000315663)
(-0.00531136 0.000622334 8.8284e-06 0.00323036 -0.000213132 0.00159159)
(-0.00399256 0.00186674 -0.00014239 0.00190353 -8.93367e-05 0.00117332)
(-0.00137097 0.00180696 -0.000201179 0.000478925 1.84808e-05 0.000805705)
(0.000157607 0.000798208 -0.000120865 -0.000421054 0.000153285 0.000400499)
(-0.00746227 0.0106208 -2.7089e-06 0.0247437 -2.94058e-05 -4.21883e-06)
(-0.00242517 0.00923188 -4.86675e-05 0.00601872 -5.58018e-05 3.0823e-05)
(0.00114751 0.00865664 -5.91113e-05 -0.00539263 -0.000119158 9.58563e-05)
(0.00568224 0.00892756 -2.97405e-05 -0.0228975 -0.000155222 0.000141798)
(-0.0133296 0.00379629 -5.97497e-06 0.0166503 -0.000129775 6.74808e-05)
(-0.00519242 0.0100491 -0.000110707 0.00701954 -9.19086e-05 0.000127859)
(0.00214356 0.00991635 -0.000135715 -0.00512703 -6.16375e-05 0.000254937)
(0.010014 0.00379665 -6.80541e-05 -0.0150456 -1.97128e-05 0.000339328)
(-0.0111369 0.00391086 -2.61122e-06 0.0147077 -0.000188501 0.000256246)
(-0.00524524 0.00850548 -0.000118942 0.00592975 -0.000101406 0.000273898)
(0.00149839 0.00852904 -0.000147767 -0.00362671 -8.34561e-06 0.000362259)
(0.00745442 0.00390409 -7.34565e-05 -0.0124844 8.45337e-05 0.000404937)
(-0.00934648 0.00320113 8.97507e-06 0.0112563 -0.000226827 0.000506688)
(-0.00461509 0.00714695 -9.81886e-05 0.00478452 -0.000103082 0.000442186)
(0.000621757 0.00720268 -0.000126208 -0.00236055 3.28444e-05 0.000439645)
(0.00530517 0.00326276 -6.29687e-05 -0.00879513 0.000161878 0.00039759)
(-0.00754445 0.00255794 2.38235e-05 0.00823046 -0.000241911 0.00079315)
(-0.00399962 0.00578467 -6.64621e-05 0.00369438 -9.8945e-05 0.000624081)
(-8.88815e-05 0.00588645 -9.27565e-05 -0.00130356 5.76597e-05 0.000504688)
(0.00326651 0.0027151 -4.61335e-05 -0.00564213 0.000207559 0.000354638)
(-0.00613175 0.00180199 3.3804e-05 0.00573977 -0.000235059 0.00109031)
(-0.00348399 0.00442207 -4.2597e-05 0.00275451 -9.15376e-05 0.000813992)
(-0.000650051 0.00460847 -6.60372e-05 -0.000497276 6.29781e-05 0.000577141)
(0.00163558 0.00215118 -3.19296e-05 -0.00307408 0.000217608 0.000314435)
(-0.00520346 0.00092917 2.99315e-05 0.00413568 -0.000203924 0.00137338)
(-0.00323474 0.00311238 -4.4706e-05 0.00203799 -8.07796e-05 0.00100811)
(-0.00110692 0.00334605 -6.64297e-05 7.6098e-05 4.58365e-05 0.000680032)
(0.000500081 0.00156634 -3.10741e-05 -0.00123924 0.00018498 0.000321161)
(-0.00537042 0.000622579 -1.02625e-06 0.00328648 -0.000125656 0.00160029)
(-0.00405849 0.00187352 -9.31798e-05 0.00194626 -5.30505e-05 0.00119428)
(-0.00143339 0.00181162 -0.000125788 0.00050719 8.48002e-06 0.000839103)
(0.000103685 0.000802886 -7.44594e-05 -0.000399691 8.51948e-05 0.000442318)
(-0.00748235 0.0106174 -1.62107e-07 0.0247399 -1.57223e-05 3.02366e-05)
(-0.00243774 0.00921292 -1.41285e-05 0.006027 -2.0705e-05 4.34928e-05)
(0.00114512 0.00863083 -1.74171e-05 -0.00536951 -3.70182e-05 7.9875e-05)
(0.00568639 0.00890671 -8.8315e-06 -0.0228504 -4.48554e-05 0.000101843)
(-0.0133758 0.00378938 -5.59481e-07 0.016631 -4.42668e-05 0.000142257)
(-0.00522239 0.0100381 -3.27686e-05 0.00702952 -3.08592e-05 0.000155218)
(0.00213767 0.00990405 -4.07149e-05 -0.00508797 -2.02291e-05 0.000221149)
(0.0100267 0.0037911 -2.05554e-05 -0.0149846 -5.44114e-06 0.000253745)
(-0.0111905 0.00391044 2.52986e-07 0.0146962 -6.17809e-05 0.000333871)
(-0.00528077 0.00850716 -3.60788e-05 0.00594274 -3.33408e-05 0.000302294)
(0.00149037 0.00853164 -4.52809e-05 -0.00358756 -3.27644e-06 0.000328994)
(0.00747061 0.00390527 -2.2583e-05 -0.0124239 2.71351e-05 0.000318019)
(-0.00939898 0.0032048 3.58843e-06 0.0112533 -7.3348e-05 0.000573422)
(-0.00465034 0.0071573 -3.02732e-05 0.00479988 -3.35552e-05 0.000467254)
(0.000611368 0.00721447 -3.91866e-05 -0.00232535 9.96826e-06 0.000413433)
(0.0053166 0.00326904 -1.95525e-05 -0.00874226 5.15245e-05 0.000325291)
(-0.00759116 0.00256281 8.0166e-06 0.0082363 -7.8079e-05 0.000842976)
(-0.00403238 0.00579817 -2.08334e-05 0.00371138 -3.21678e-05 0.000644457)
(-0.000102048 0.00590199 -2.91661e-05 -0.00127461 1.80234e-05 0.000488966)
(0.00326996 0.00272382 -1.44562e-05 -0.00560048 6.61499e-05 0.000305427)
(-0.00617126 0.00180511 1.08924e-05 0.00575317 -7.62225e-05 0.00112326)
(-0.0035135 0.0044339 -1.38686e-05 0.00277178 -2.99137e-05 0.000830315)
(-0.000666142 0.00462317 -2.1272e-05 -0.000475528 1.9801e-05 0.000573048)
(0.00162975 0.0021602 -1.02114e-05 -0.00304456 6.95625e-05 0.000290711)
(-0.00523594 0.000928579 9.15738e-06 0.00415538 -6.67327e-05 0.00139256)
(-0.00326214 0.00311971 -1.54678e-05 0.00205489 -2.66014e-05 0.00102144)
(-0.00112709 0.00335611 -2.23276e-05 9.16674e-05 1.43203e-05 0.000686574)
(0.000484924 0.00157372 -1.04036e-05 -0.00121941 5.92709e-05 0.000320564)
(-0.00540026 0.000623056 -1.64987e-06 0.00331029 -4.18931e-05 0.00160999)
(-0.00409025 0.00187735 -3.23861e-05 0.00196622 -1.7644e-05 0.00120524)
(-0.00146241 0.00181373 -4.28167e-05 0.000522079 2.44467e-06 0.000852503)
(7.9464e-05 0.000804756 -2.52149e-05 -0.000386858 2.72803e-05 0.000456864)
)
;

boundaryField
{
    interface
    {
        type            calculated;
        value           nonuniform List<symmTensor> 
192
(
(-0.0240845 -1.11534e-05 0.000338356 0.037808 0.00558995 -0.00324413)
(-0.0113481 9.31557e-06 0.000577681 0.0203411 -0.00174643 -0.00483548)
(-0.0122331 2.96894e-05 0.00069702 0.019553 -0.00108302 -0.00271491)
(-0.00961972 3.09899e-05 0.000764672 0.0143629 -0.00159914 -0.00145312)
(-0.00779926 -6.871e-06 0.000804669 0.010174 -0.00150392 -3.16163e-05)
(-0.00620534 -9.78805e-05 0.000817571 0.0065786 -0.00132208 0.00112038)
(-0.00534391 -0.000271555 0.000792221 0.00430174 -0.00105269 0.0020568)
(-0.00487289 -0.000539427 0.000696227 0.00293766 -0.000583311 0.00278191)
(-0.0244939 1.41561e-05 0.000246249 0.0371106 0.0034957 -0.00214565)
(-0.0132026 4.56137e-05 0.000423622 0.0218525 -0.000615932 -0.00380314)
(-0.0124805 7.12971e-05 0.000510601 0.0195748 -0.00162768 -0.00265397)
(-0.010075 6.53558e-05 0.000558859 0.01449 -0.00210183 -0.0012386)
(-0.00816169 1.13915e-05 0.000584506 0.0101195 -0.00212798 0.000186289)
(-0.00662768 -0.00010812 0.000588053 0.00651323 -0.00189304 0.00142153)
(-0.0057893 -0.000329676 0.000561989 0.00425028 -0.00146181 0.00240981)
(-0.00524787 -0.000646189 0.000488296 0.00291762 -0.000812467 0.00315993)
(-0.0254678 2.18282e-05 0.000178918 0.0375365 0.00175126 -0.00125373)
(-0.0138072 5.85277e-05 0.000306465 0.0212018 -0.000393784 -0.00238066)
(-0.0129555 8.72185e-05 0.000364193 0.0193451 -0.00120993 -0.0018578)
(-0.0103385 7.81044e-05 0.000393234 0.0144288 -0.00164562 -0.000940102)
(-0.00824706 1.47872e-05 0.000407117 0.0101779 -0.0017363 9.04362e-05)
(-0.00660007 -0.000121527 0.000406689 0.00668673 -0.00158484 0.00104409)
(-0.00569857 -0.000368345 0.000388498 0.00455577 -0.00124299 0.00183392)
(-0.00497206 -0.000702846 0.000342501 0.00321254 -0.000665723 0.00239976)
(-0.0260975 2.35542e-05 0.000132022 0.0377763 0.00074821 -0.000652081)
(-0.0142908 6.24046e-05 0.000226533 0.0207051 -0.000343158 -0.00125397)
(-0.0134331 9.25771e-05 0.000267308 0.0190732 -0.000850462 -0.000966353)
(-0.0107035 8.16147e-05 0.00028624 0.0143237 -0.00115757 -0.000386634)
(-0.00849038 1.23616e-05 0.000294651 0.010218 -0.00125289 0.000316107)
(-0.00674465 -0.000134418 0.000293739 0.00685055 -0.00117603 0.00100403)
(-0.00577552 -0.000396096 0.000282202 0.00483685 -0.000955253 0.00159475)
(-0.00494229 -0.000739163 0.000252241 0.00351228 -0.000543255 0.00203099)
(-0.0264389 2.35986e-05 9.55611e-05 0.037865 0.0002448 -0.000302982)
(-0.0146119 6.30299e-05 0.00016464 0.0204184 -0.000302246 -0.000554682)
(-0.0137737 9.36523e-05 0.000193772 0.0188854 -0.000594058 -0.000336023)
(-0.010994 8.14815e-05 0.000206631 0.0142354 -0.000782878 6.95989e-05)
(-0.00871294 8.50362e-06 0.000212204 0.0102339 -0.000854128 0.000567613)
(-0.00690131 -0.000144833 0.000211763 0.00695523 -0.000820331 0.00107309)
(-0.00588308 -0.000415937 0.000204857 0.00501943 -0.000688769 0.00152523)
(-0.00497077 -0.000764157 0.000184885 0.00370791 -0.000405699 0.00186225)
(-0.0266138 2.32155e-05 6.49874e-05 0.0378817 2.84868e-05 -0.000109135)
(-0.0148102 6.26151e-05 0.000112405 0.0202623 -0.000238445 -0.000149527)
(-0.0139964 9.32307e-05 0.000132245 0.0187776 -0.00039739 5.81575e-05)
(-0.0111966 8.02505e-05 0.000140788 0.0141805 -0.000504201 0.000381804)
(-0.0088805 4.96657e-06 0.000144519 0.0102387 -0.000549379 0.00076917)
(-0.00703154 -0.000152474 0.000144492 0.00701274 -0.000536025 0.00116961)
(-0.00598442 -0.00042968 0.000140509 0.00512359 -0.000461649 0.00154008)
(-0.00503019 -0.000781209 0.000127484 0.00382623 -0.000280722 0.00182161)
(-0.0266974 2.29245e-05 3.75405e-05 0.0378736 -3.24832e-05 -8.61873e-06)
(-0.0149213 6.21202e-05 6.51961e-05 0.0201819 -0.000152339 6.63843e-05)
(-0.0141268 9.25545e-05 7.66962e-05 0.0187226 -0.000230139 0.000278307)
(-0.0113202 7.90576e-05 8.15875e-05 0.0141521 -0.000283585 0.000566014)
(-0.00898721 2.41403e-06 8.3775e-05 0.0102401 -0.000307826 0.000899256)
(-0.0071188 -0.000157527 8.38842e-05 0.007041 -0.000303205 0.00124592)
(-0.00605616 -0.000438515 8.15953e-05 0.00517672 -0.00026567 0.00157329)
(-0.00508003 -0.000791686 7.36972e-05 0.00388892 -0.000165752 0.0018256)
(-0.0267299 2.27032e-05 1.21523e-05 0.0378648 -1.82451e-05 3.37451e-05)
(-0.0149698 6.16855e-05 2.11785e-05 0.0201479 -5.23023e-05 0.00015888)
(-0.0141855 9.19845e-05 2.48983e-05 0.0187 -7.5549e-05 0.000375183)
(-0.0113771 7.83099e-05 2.64676e-05 0.0141405 -9.17011e-05 0.000649622)
(-0.00903733 1.05888e-06 2.71859e-05 0.0102405 -9.92926e-05 0.000961285)
(-0.0071608 -0.000160314 2.72395e-05 0.00705222 -9.82532e-05 0.00128594)
(-0.00609076 -0.000443454 2.63929e-05 0.00519803 -8.69481e-05 0.00159534)
(-0.00510429 -0.000795825 2.35327e-05 0.00391453 -5.53759e-05 0.00183559)
(-0.00669639 0.00775467 -0.000375609 0.0258222 -9.78061e-05 -0.0131993)
(-0.0119209 0.00353992 -0.000638948 0.0144551 -0.000150414 -0.00197165)
(-0.0102151 0.00489963 -0.000769025 0.0148901 -0.000152799 -0.0032498)
(-0.00893447 0.00446781 -0.000857263 0.0111033 -0.000131845 -0.00146462)
(-0.00740728 0.00401467 -0.000934914 0.00813399 -0.00012019 -0.000425346)
(-0.00621322 0.00318911 -0.00101061 0.00547482 -0.000134396 0.000594638)
(-0.00545127 0.00216181 -0.00110083 0.00371353 -0.000177333 0.00126893)
(-0.00573919 0.00120339 -0.00126537 0.00271487 -0.00022782 0.00209289)
(-0.00242463 0.00609199 -0.00023205 0.00613321 -7.56364e-05 -0.00286437)
(-0.00517448 0.00923505 -0.000418771 0.00546533 -0.000139941 -0.00052235)
(-0.00541443 0.00984578 -0.000492949 0.00553767 -0.000165194 -0.000324551)
(-0.00499174 0.00928252 -0.000531901 0.00437323 -0.000149903 0.000242524)
(-0.00447209 0.00820532 -0.000566085 0.00335496 -0.000122653 0.000624988)
(-0.00401364 0.00670656 -0.000609996 0.00241536 -0.000102961 0.000973437)
(-0.00376089 0.00497152 -0.000687334 0.00175193 -9.76775e-05 0.00125615)
(-0.00444335 0.00282355 -0.00088631 0.00159587 -9.0176e-05 0.00182099)
(0.00127366 0.00551873 -0.000174731 -0.00759498 -4.96158e-05 0.0038598)
(0.00235511 0.00894257 -0.000342013 -0.0043216 -0.000113924 0.000973426)
(0.00169692 0.00981278 -0.000412218 -0.0040471 -0.000151391 0.00128125)
(0.000936428 0.00931593 -0.000443856 -0.00283846 -0.000145524 0.00103189)
(0.000295626 0.00828585 -0.000466777 -0.00191262 -0.00011763 0.000875747)
(-0.000184995 0.00685267 -0.000499278 -0.00113286 -8.75277e-05 0.000693872)
(-0.000547367 0.00512651 -0.000566652 -0.000542189 -6.42309e-05 0.000545965)
(-0.000567503 0.00275339 -0.000754689 4.51347e-05 -4.07773e-05 0.000172812)
(0.00528953 0.00629766 -0.000163104 -0.0261655 -4.06873e-05 0.0136131)
(0.00915287 0.00324096 -0.000341234 -0.0133434 -0.00010626 0.00248653)
(0.00688407 0.00488949 -0.000424553 -0.0134761 -0.000147729 0.00412842)
(0.0052564 0.00453909 -0.000464122 -0.00956937 -0.000146977 0.00264846)
(0.00353688 0.00415664 -0.000488836 -0.00657201 -0.00012046 0.00182414)
(0.00221589 0.00345516 -0.000520032 -0.00393192 -8.65719e-05 0.000959861)
(0.00135136 0.00256217 -0.000582671 -0.00206619 -5.1074e-05 0.000298973)
(0.00129016 0.00125996 -0.000754119 -0.000908207 -5.87124e-06 -0.000428575)
(0.0216239 3.65483e-05 3.95975e-05 -0.036221 -0.00682442 0.00351815)
(0.00912466 8.15378e-05 7.22244e-05 -0.0195582 0.00116148 0.00565629)
(0.00943058 0.000112127 7.52903e-05 -0.0182579 0.000665304 0.00396269)
(0.00648711 0.000115566 7.13085e-05 -0.0128317 0.00130416 0.00300181)
(0.0044255 0.000101943 7.40779e-05 -0.00849526 0.00131413 0.0017963)
(0.00264998 8.16231e-05 8.93067e-05 -0.0047693 0.00123279 0.000772767)
(0.00152446 4.88037e-05 0.000118564 -0.00214771 0.000977616 -9.21648e-05)
(0.00124028 -9.98298e-05 0.000154058 -0.000845078 0.000377198 -0.00076511)
(0.0213265 1.58157e-05 -9.03936e-06 -0.0347825 -0.00466752 0.00248287)
(0.0107377 4.32983e-05 -1.39697e-05 -0.0211639 -0.00015807 0.00474976)
(0.00928313 6.69418e-05 -2.31221e-05 -0.0182327 0.00113263 0.00402171)
(0.00648109 7.66721e-05 -3.01269e-05 -0.0128652 0.00181317 0.00288083)
(0.00427059 7.62343e-05 -2.89621e-05 -0.00829338 0.00199981 0.00164866)
(0.00249528 7.33041e-05 -1.84084e-05 -0.0044929 0.00188809 0.000541467)
(0.00133659 6.31425e-05 -8.7017e-07 -0.00180089 0.00149735 -0.000348076)
(0.00111592 -5.9993e-05 1.63888e-05 -0.000598445 0.000735833 -0.0010078)
(0.0220804 6.76633e-06 -1.74667e-05 -0.0349574 -0.00264425 0.00150378)
(0.0113001 2.55378e-05 -2.73819e-05 -0.0203538 -0.000212163 0.00305968)
(0.00973737 4.64152e-05 -3.25765e-05 -0.0177863 0.000799146 0.00284492)
(0.00674095 6.10265e-05 -3.41604e-05 -0.0125939 0.00141185 0.00216177)
(0.00433796 7.03367e-05 -2.9701e-05 -0.00812052 0.00165016 0.00131327)
(0.00242182 7.92275e-05 -1.95335e-05 -0.00441136 0.00160842 0.00050999)
(0.00114961 8.0716e-05 -7.77911e-06 -0.00179154 0.00131644 -0.000132523)
(0.000749611 -1.98345e-05 -3.44933e-06 -0.000607389 0.000645164 -0.000516952)
(0.0225112 3.25848e-06 -1.661e-05 -0.0349759 -0.00141654 0.000859766)
(0.0116934 1.77654e-05 -2.59719e-05 -0.0197176 -0.000119177 0.0018134)
(0.0101003 3.73958e-05 -2.83034e-05 -0.017302 0.00053125 0.00179101)
(0.00698631 5.56283e-05 -2.67674e-05 -0.0122675 0.000972212 0.00143841)
(0.00444508 7.19159e-05 -2.1057e-05 -0.0079302 0.00118456 0.000932808)
(0.00240774 8.89152e-05 -1.25238e-05 -0.00433291 0.00119338 0.000425455)
(0.00102415 9.83102e-05 -5.29949e-06 -0.00178399 0.00100745 2.42325e-05)
(0.000512162 1.20289e-05 -6.11076e-06 -0.000644053 0.000506133 -0.00015388)
(0.0226832 1.84988e-06 -1.31551e-05 -0.0348672 -0.000729271 0.000480966)
(0.0119265 1.45291e-05 -2.05692e-05 -0.0193121 -4.45177e-05 0.00104473)
(0.0103219 3.4015e-05 -2.1293e-05 -0.016938 0.000354447 0.00107896)
(0.00714625 5.50428e-05 -1.86436e-05 -0.0119884 0.00064076 0.000902205)
(0.00452374 7.61729e-05 -1.33268e-05 -0.00775018 0.000796867 0.000618036)
(0.00240339 9.83906e-05 -7.02792e-06 -0.00423844 0.000822722 0.000322694)
(0.000938091 0.000112321 -3.27189e-06 -0.00174483 0.000710562 0.000100783)
(0.000353788 3.5081e-05 -6.99465e-06 -0.000645624 0.000360553 6.67913e-05)
(0.022727 1.36275e-06 -9.05879e-06 -0.0347273 -0.000356817 0.000267051)
(0.0120509 1.3474e-05 -1.41109e-05 -0.0190607 -5.16761e-06 0.000598017)
(0.0104438 3.33568e-05 -1.40478e-05 -0.0166947 0.000229166 0.0006431)
(0.00723694 5.64128e-05 -1.15077e-05 -0.011787 0.000402533 0.000554741)
(0.00456887 8.06336e-05 -7.44891e-06 -0.00760619 0.000503911 0.000396813)
(0.00239907 0.000105887 -3.38228e-06 -0.00414939 0.000527772 0.000231844)
(0.000882939 0.000122271 -1.87717e-06 -0.00169354 0.000462546 0.000124307)