/*--------------------------------*- C++ -*----------------------------------*\
| =========                 |                                                 |
| \\      /  F ield         | foam-extend: Open Source CFD                    |
|  \\    /   O peration     | Version:     3.1                                |
|   \\  /    A nd           | Web:         http://www.extend-project.de       |
|    \\/     M anipulation  |                                                 |
\*---------------------------------------------------------------------------*/
FoamFile
{
    version     2.0;
    format      ascii;
    class       volScalarField;
    location    "3.8";
    object      sigmaEq;
}
// * * * * * * * * * * * * * * * * * * * * * * * * * * * * * * * * * * * * * //

dimensions      [1 -1 -2 0 0 0 0];

internalField   nonuniform List<scalar> 
256
(
244.398
107.92
106.351
234.872
183.394
137.617
127.368
165.067
166.791
131.682
121.388
145.405
133.228
118.354
109.155
109.745
103.296
101.485
93.6324
79.0672
77.9908
82.5404
75.9407
53.1785
61.1328
63.8179
56.4353
33.6203
57.9766
50.1945
31.3204
19.1497
241.412
121.738
117.077
224.935
191.693
142.021
133.362
174.35
165.037
123.005
113.546
143.717
130.203
105.159
96.1994
106.225
98.9111
86.7349
78.9538
73.5603
73.7884
68.723
62.2601
47.2131
57.6947
52.3917
45.6245
28.2863
55.6584
43.486
25.971
16.1033
243.936
125.847
118.98
222.736
191.257
143.684
133.543
170.486
165.55
122.763
111.715
140.777
130.517
102.666
92.1186
103.205
99.0969
83.2962
74.0819
70.5984
73.7339
65.1631
57.6458
44.5067
57.2668
49.5668
42.2634
26.0487
54.4619
42.783
24.9488
13.3837
245.548
126.899
118.48
221.273
191.034
144.803
133.111
167.423
165.968
123.847
111.2
138.101
131.298
103.274
91.2197
100.836
100.023
83.5059
72.9947
68.4834
74.6228
65.1379
56.6618
42.6696
57.9628
49.6486
41.7605
24.568
54.8623
43.838
25.4456
12.0761
246.271
126.864
117.384
219.839
191.224
145.357
132.462
165.429
166.53
124.855
110.998
136.192
132.218
104.384
91.2295
99.1615
101.136
84.5424
73.1118
67.0459
75.7592
66.0183
56.8641
41.4586
58.9984
50.46
42.117
23.6568
55.7697
45.0651
26.2011
11.6145
246.493
126.535
116.342
218.567
191.47
145.557
131.797
164.099
167.042
125.534
110.825
134.904
132.994
105.293
91.3854
98.0393
102.058
85.4974
73.4567
66.1015
76.7101
66.8885
57.2908
40.691
59.897
51.2346
42.5783
23.1219
56.6708
46.0316
26.7749
11.4288
246.512
126.227
115.588
217.633
191.652
145.595
131.274
163.258
167.406
125.919
110.665
134.099
133.526
105.871
91.493
97.3453
102.68
86.1392
73.7257
65.5249
77.3493
67.4889
57.6233
40.2366
60.5122
51.764
42.9085
22.8257
57.3203
46.6598
27.1181
11.3182
246.488
126.055
115.2
217.143
191.742
145.588
130.991
162.845
167.589
126.087
110.567
133.709
133.791
106.143
91.5381
97.0119
102.985
86.4502
73.8591
65.2498
77.661
67.7831
57.7907
40.0238
60.8125
52.0226
43.0691
22.6917
57.6425
46.9631
27.2718
11.2552
)
;

boundaryField
{
    interface
    {
        type            calculated;
        value           nonuniform List<scalar> 
192
(
395.718
208.296
202.457
152.435
113.5
81.6668
64.6233
56.7668
388.262
224.676
204.273
156.273
116.472
85.5721
69.0265
60.8867
393.802
220.958
203.645
156.098
116.259
84.9614
67.8173
57.214
397.939
218.874
203.194
156.31
116.884
85.711
68.5768
57.0828
400.105
218.14
203.23
156.783
117.716
86.6948
69.6371
57.6124
401.066
217.951
203.489
157.317
118.48
87.5738
70.5938
58.3869
401.426
217.927
203.74
157.731
119.019
88.178
71.2476
58.9762
401.527
217.929
203.876
157.943
119.285
88.4711
71.5574
59.2566
275.91
170.705
171.694
137.353
108.982
83.6099
65.976
62.2304
98.1224
132.055
139.558
128.867
113.014
93.1925
72.667
57.2235
100.951
119.001
127.821
118.587
104.284
85.7595
64.2892
35.6621
271.013
148.539
149.549
113.043
84.6369
59.0311
39.065
23.1203
375.68
194.219
181.621
128.411
86.0458
50.125
25.8314
15.5122
357.953
209.789
181.25
129.259
85.6558
50.3611
26.8541
16.6665
358.856
203.185
177.465
126.221
82.9513
47.9501
24.4762
12.3239
359.627
198.717
173.953
123.205
80.2562
45.3448
21.6082
9.5282
359.196
196.18
171.571
120.984
78.2096
43.262
19.1734
7.78604
358.242
194.672
170.045
119.51
76.8063
41.8065
17.4172
6.76022
357.338
193.78
169.126
118.615
75.9396
40.9028
16.3107
6.13427
356.816
193.357
168.689
118.193
75.5265
40.4725
15.7818
5.82469
62.9634
60.3637
59.4594
59.6982
60.6028
61.5227
62.2045
62.5304
49.0791
44.3319
45.0124
46.7941
48.4217
49.6182
50.3811
50.7524
13.0545
11.6185
12.8239
14.7991
16.3281
17.2434
17.7239
17.9263
18.6196
15.4656
11.6711
9.82014
9.35222
9.176
9.023
8.91263
)
;
    }
    symmetry
    {
        type            symmetryPlane;
    }
    bottom
    {
        type            calculated;
        value           nonuniform List<scalar> 
32
(
224.028
194.382
191.281
192.047
192.788
193.145
193.267
193.292
73.3778
80.0251
80.9264
80.179
79.2104
78.4167
77.8898
77.6307
78.4352
78.8632
76.8086
74.2469
72.1974
70.7686
69.8839
69.4629
225.838
184.051
173.021
169.348
167.571
166.422
165.66
165.272
)
;
    }
}


// ************************************************************************* //
