/*--------------------------------*- C++ -*----------------------------------*\
| =========                 |                                                 |
| \\      /  F ield         | foam-extend: Open Source CFD                    |
|  \\    /   O peration     | Version:     3.1                                |
|   \\  /    A nd           | Web:         http://www.extend-project.de       |
|    \\/     M anipulation  |                                                 |
\*---------------------------------------------------------------------------*/
FoamFile
{
    version     2.0;
    format      ascii;
    class       volSymmTensorField;
    location    "3.8";
    object      sigmaCauchy;
}
// * * * * * * * * * * * * * * * * * * * * * * * * * * * * * * * * * * * * * //

dimensions      [1 -1 -2 0 0 0 0];

internalField   nonuniform List<symmTensor> 
256
(
(177.736 71.646 -1.04945 416.188 36.1129 203.326)
(25.9514 53.7524 -7.78669 81.979 11.1575 32.713)
(-54.5158 46.602 -8.88527 -112.332 -15.7456 -55.9343)
(-204.698 43.3651 -4.8978 -402.616 -34.4417 -222.086)
(-71.33 32.3836 -3.19676 124.901 -10.8453 -20.1919)
(-26.6895 69.7502 -12.9099 43.283 -5.06303 -8.46653)
(3.46471 63.8808 -13.3638 -54.7034 2.01089 -2.24566)
(42.8521 18.8101 -4.65336 -128.802 6.88332 10.0359)
(-23.3405 39.7311 -1.28519 151.173 -6.27292 26.6798)
(-26.6075 68.3215 -8.73075 37.686 -2.63526 -3.58321)
(-1.09611 63.2311 -9.09079 -50.7423 -0.00697508 -7.35826)
(-4.28495 25.0072 -2.7064 -150.125 2.84167 -31.2508)
(-34.5564 35.1251 -1.49564 101.379 -8.59061 13.4556)
(-27.3255 62.7535 -7.20841 24.3449 -2.90127 -4.48721)
(-0.470809 58.6012 -7.25459 -37.5079 1.07354 -3.72223)
(6.96105 22.916 -2.53547 -101.356 5.93718 -13.7927)
(-31.9205 30.3445 -1.17858 70.2352 -7.74238 13.9316)
(-26.0536 54.4291 -5.76624 14.6704 -2.34264 -2.95761)
(-2.44996 51.4245 -5.70276 -27.76 1.21347 -3.26445)
(3.90716 21.3353 -2.09791 -70.3441 6.02118 -11.4643)
(-33.4655 23.547 -1.25617 41.6186 -6.63562 11.4333)
(-26.2679 44.0584 -5.00724 6.16056 -1.92409 -2.39403)
(-4.22686 42.3973 -4.79148 -19.0547 1.21231 -2.6909)
(3.90952 18.2991 -2.00973 -41.4777 5.7396 -7.53107)
(-33.9583 15.9999 -1.79686 24.4019 -5.43151 12.2541)
(-28.3376 32.654 -4.82977 -0.0500804 -1.84556 -2.08318)
(-6.49456 31.7907 -4.37867 -12.3033 0.861362 -2.77755)
(3.93975 13.9429 -2.20786 -20.6864 4.6262 -5.86018)
(-46.108 10.4334 -2.31628 8.7782 -3.07184 7.39867)
(-43.3444 19.7804 -4.5202 -8.19425 -1.21635 -8.24431)
(-3.32871 17.4168 -4.20854 -2.08544 0.083317 1.02505)
(9.62113 6.76832 -2.85914 -5.50441 1.72975 -2.94029)
(180.436 81.0965 -0.564286 412.724 22.1582 211.638)
(32.7279 64.8956 -6.32385 85.6818 6.24442 39.5972)
(-47.9663 57.9553 -7.59188 -99.6872 -11.3472 -52.398)
(-195.231 51.8872 -4.23075 -385.536 -23.9778 -219.996)
(-39.3918 33.9368 -2.2381 169.736 -4.25312 18.0786)
(-4.066 72.6411 -12.0542 68.6641 -2.95552 13.0919)
(-16.2854 66.3358 -13.4616 -78.6419 -1.31578 -24.0526)
(9.16986 20.0249 -5.65004 -171.986 -0.68049 -29.5546)
(-17.9888 35.8044 -1.03443 157.121 -9.48168 31.4101)
(-15.761 63.048 -9.47367 46.8252 -3.8608 3.96171)
(-7.11359 58.0714 -10.7633 -55.6847 1.22016 -12.5055)
(-7.90249 21.4386 -4.15457 -153.029 5.73533 -33.9349)
(-24.7894 30.3359 -0.0725658 111.185 -11.6199 22.3294)
(-16.1354 54.9002 -6.68644 33.8792 -4.01429 3.26964)
(-6.50871 50.8228 -7.8582 -41.3038 2.49469 -8.9431)
(-0.984497 18.3959 -3.08028 -107.031 9.11472 -20.6117)
(-24.9229 24.9939 0.920767 75.9879 -11.5051 19.8168)
(-16.6367 45.8304 -4.42929 22.2303 -3.7075 2.86862)
(-6.18639 42.9768 -5.56286 -28.2941 2.94291 -6.18201)
(-1.00221 16.3624 -2.04241 -71.2547 10.1062 -15.0714)
(-26.5129 18.6927 1.50005 46.9844 -10.1224 17.5295)
(-17.5581 36.194 -2.91218 12.9251 -3.22473 2.72548)
(-6.59714 34.6977 -3.96421 -17.9032 2.72147 -4.42344)
(-0.430779 13.82 -1.38987 -41.1461 9.52501 -10.8107)
(-27.5124 11.9453 1.54221 29.0083 -7.94978 17.9803)
(-20.8737 26.3758 -2.18801 5.13581 -2.79709 1.76266)
(-7.43309 25.7782 -3.11299 -9.89742 1.85494 -3.21409)
(1.04201 10.5264 -1.13958 -18.6395 7.45109 -7.76877)
(-39.1391 8.44594 1.25372 13.7299 -4.56869 13.4535)
(-36.6211 16.531 -1.99496 -4.08849 -1.84888 -5.27865)
(-4.96798 14.374 -3.2687 -1.2963 0.559758 -0.041361)
(5.6045 5.28655 -1.9164 -5.56872 3.51891 -5.77649)
(187.37 85.5034 -0.530049 423.779 11.0002 225.965)
(35.7486 67.9474 -4.09671 90.141 2.49411 45.4413)
(-48.017 60.5714 -4.97334 -99.1085 -7.14157 -55.2699)
(-201.537 54.2384 -2.83024 -393.229 -13.8142 -233.709)
(-40.0389 34.5911 -1.809 170.94 -2.85915 30.3726)
(-2.1515 74.0506 -8.17308 72.9527 -2.36514 20.4678)
(-17.6267 67.6598 -9.37117 -79.9606 -1.62125 -30.278)
(7.28956 20.5888 -4.38809 -173.707 -1.23798 -44.5242)
(-18.8045 35.4978 -1.2657 159.304 -7.26954 39.256)
(-15.095 62.7337 -7.03157 50.107 -3.27562 8.92215)
(-8.01302 57.6651 -8.16571 -56.6343 0.704484 -16.6388)
(-9.9919 20.9314 -3.58341 -155.541 4.10046 -45.1003)
(-26.0314 29.5242 -0.494658 112.279 -9.39216 25.8416)
(-15.7205 53.027 -5.09146 36.5115 -3.53611 6.76038)
(-7.49971 48.9197 -6.1041 -41.291 2.10266 -11.2598)
(-3.31565 17.5453 -2.56587 -108.773 7.34295 -27.9392)
(-27.1128 23.7909 0.301633 75.9571 -9.6621 19.6083)
(-16.3715 43.3068 -3.19171 24.5757 -3.35072 5.35665)
(-7.12641 40.4923 -4.13911 -27.6699 2.70239 -7.10027)
(-2.64232 15.2582 -1.60665 -71.7195 8.63665 -18.6385)
(-29.0952 17.3848 0.869169 46.4505 -8.6945 14.8809)
(-17.296 33.5869 -1.80969 15.016 -2.93557 4.5181)
(-7.38489 32.2474 -2.68341 -16.8125 2.61898 -4.19465)
(-1.67577 12.8135 -0.921017 -40.8221 8.39618 -11.5545)
(-29.807 10.6303 1.04049 28.7634 -6.84261 14.0122)
(-20.5812 24.1938 -1.15228 6.9019 -2.43307 2.94405)
(-8.14922 23.885 -1.98065 -8.67247 1.883 -2.11292)
(0.0656407 9.83017 -0.664795 -17.8035 6.73569 -6.22932)
(-42.1475 7.83199 0.788657 12.164 -3.68544 7.10456)
(-36.8425 15.4631 -1.32904 -3.04301 -1.41356 -5.17126)
(-6.27485 13.5052 -2.59189 -0.335432 0.624093 1.7176)
(5.41179 5.11404 -1.59191 -3.47402 3.13548 -1.10466)
(191.011 87.2918 -0.343307 430.245 4.66533 234.8)
(36.8035 68.6449 -2.47436 92.413 0.547713 48.6324)
(-48.4134 60.918 -3.00528 -99.026 -4.41682 -57.2243)
(-204.851 54.7704 -1.71128 -397.199 -7.61412 -241.688)
(-41.1286 34.8093 -1.088 170.84 -2.39599 39.0093)
(-2.45821 74.7574 -5.12358 74.5185 -1.92965 24.4631)
(-17.9794 68.3073 -5.93915 -79.3808 -1.38301 -33.6268)
(6.9454 20.8107 -2.87666 -173.171 -0.87598 -54.0981)
(-19.5104 35.7124 -0.892035 160.484 -5.20254 46.7105)
(-16.0619 63.1725 -4.74528 51.386 -2.50217 11.9293)
(-8.36716 58.0957 -5.52888 -56.1079 0.299728 -19.3153)
(-10.5647 21.1367 -2.5332 -155.608 2.69784 -53.4132)
(-26.9245 29.5507 -0.43199 113.493 -6.73698 30.6686)
(-16.7878 53.0372 -3.59425 37.6767 -2.68294 8.91939)
(-8.05545 48.9416 -4.26669 -40.7178 1.43856 -12.9887)
(-3.92171 17.6172 -1.85825 -108.811 5.12319 -33.7094)
(-28.0488 23.6541 0.112213 77.198 -7.09244 21.9861)
(-17.426 42.9797 -2.29514 25.713 -2.56664 6.80235)
(-7.80709 40.2187 -2.89148 -27.0401 2.00813 -7.85112)
(-3.24881 15.2388 -1.14188 -71.6031 6.29895 -21.7262)
(-29.9871 17.1116 0.533434 47.7678 -6.54759 15.3313)
(-18.266 33.0668 -1.2989 16.123 -2.28083 5.42456)
(-8.08738 31.8543 -1.82911 -16.1156 2.03365 -4.04102)
(-2.2755 12.7811 -0.60358 -40.5539 6.32602 -12.2994)
(-30.2952 10.2469 0.664928 30.505 -5.29818 13.2912)
(-21.4648 23.6786 -0.894075 7.93798 -1.89789 3.43221)
(-8.94462 23.5603 -1.4124 -7.98265 1.51184 -1.2137)
(-0.581495 9.85954 -0.432378 -17.3197 5.21299 -4.99695)
(-42.5478 7.71172 0.352242 13.7197 -2.99088 5.35538)
(-37.8713 15.2332 -1.35486 -2.04361 -1.11979 -4.94974)
(-7.71241 13.3459 -2.23964 0.171834 0.523701 3.1471)
(4.58076 5.2017 -1.31047 -2.72585 2.4785 1.90049)
(192.472 87.9152 -0.188806 433.235 1.49061 239.418)
(37.2028 68.5575 -1.41748 93.6567 -0.293527 50.3811)
(-48.6182 60.6073 -1.72494 -98.6837 -2.69403 -58.2423)
(-205.931 54.6919 -0.979116 -398.111 -4.07424 -245.384)
(-42.1205 34.8132 -0.566779 170.661 -2.02229 44.1893)
(-2.92322 74.957 -3.03301 75.4234 -1.51992 26.7858)
(-18.286 68.488 -3.55335 -78.6147 -1.04968 -35.5902)
(6.71604 20.876 -1.74657 -172.468 -0.503235 -59.8626)
(-20.3751 35.8682 -0.518431 160.967 -3.653 51.6293)
(-16.9094 63.5448 -2.98844 52.1695 -1.81741 13.8415)
(-8.7059 58.5056 -3.49754 -55.3559 0.0815792 -21.044)
(-10.7447 21.3599 -1.62505 -154.993 1.7543 -58.6794)
(-27.8539 29.7229 -0.269172 114.18 -4.60459 34.277)
(-17.6736 53.4124 -2.36208 38.469 -1.90239 10.3978)
(-8.4879 49.3613 -2.78713 -40.0404 0.901047 -14.2131)
(-4.13744 17.8797 -1.22202 -108.277 3.37943 -37.6496)
(-28.9361 23.788 0.0621586 78.0818 -4.88602 24.1426)
(-18.2782 43.2584 -1.56203 26.5275 -1.82274 7.85282)
(-8.29597 40.5589 -1.92247 -26.4251 1.3506 -8.44769)
(-3.51213 15.4934 -0.753979 -71.149 4.26404 -24.0134)
(-30.7973 17.1613 0.325582 48.8002 -4.60714 16.2195)
(-19.041 33.2156 -0.93502 16.9501 -1.64526 6.14085)
(-8.6016 32.0987 -1.24337 -15.5516 1.41185 -4.0119)
(-2.56978 13.0154 -0.396926 -40.1169 4.38805 -12.9689)
(-30.8429 10.1922 0.376842 31.8218 -3.83502 13.3635)
(-22.2108 23.7323 -0.755406 8.72198 -1.3942 3.88008)
(-9.56213 23.7264 -1.06192 -7.48213 1.06331 -0.654532)
(-0.915136 10.0791 -0.323289 -16.7791 3.68763 -4.2279)
(-43.301 7.75106 0.0350407 14.7004 -2.22119 4.45495)
(-38.9401 15.3003 -1.31919 -1.41849 -0.82994 -4.85609)
(-8.80623 13.411 -1.89603 0.557678 0.360753 4.0452)
(4.08674 5.33893 -1.07845 -2.06848 1.76327 3.84747)
(192.959 88.0666 -0.0863163 434.476 0.134257 241.71)
(37.3515 68.2779 -0.764572 94.3711 -0.516473 51.3297)
(-48.6527 60.1902 -0.935925 -98.2176 -1.58337 -58.6916)
(-206.012 54.459 -0.529089 -397.703 -2.09013 -246.857)
(-42.7824 34.7293 -0.247519 170.597 -1.55302 47.1719)
(-3.29563 74.9116 -1.68355 76.0223 -1.10214 28.1012)
(-18.5142 68.4428 -1.99866 -77.9238 -0.722613 -36.7017)
(6.49189 20.8713 -0.988538 -171.86 -0.25127 -63.1918)
(-21.0114 35.9328 -0.249144 161.28 -2.44272 54.6566)
(-17.4998 63.7406 -1.74727 52.7213 -1.23526 14.9984)
(-8.98254 58.7443 -2.0612 -54.688 -0.0104491 -22.104)
(-10.8461 21.5048 -0.959066 -154.339 1.1034 -61.8153)
(-28.5229 29.8568 -0.12397 114.644 -2.97954 36.6878)
(-18.2785 53.7308 -1.43233 39.037 -1.26001 11.346)
(-8.79188 49.7258 -1.69046 -39.4323 0.526406 -14.999)
(-4.24544 18.1043 -0.736482 -107.674 2.11116 -40.1069)
(-29.5664 23.932 0.0612054 78.6966 -3.16027 25.7768)
(-18.8495 43.5864 -0.980895 27.1135 -1.20443 8.57461)
(-8.61157 40.9402 -1.19341 -25.8869 0.835982 -8.854)
(-3.64009 15.7423 -0.459482 -70.6213 2.69683 -25.5217)
(-31.3608 17.2607 0.207362 49.5313 -3.02426 17.1353)
(-19.5601 33.4758 -0.628615 17.5383 -1.1014 6.67713)
(-8.92694 32.4288 -0.805194 -15.0849 0.891862 -4.01936)
(-2.72786 13.2545 -0.249879 -39.6481 2.81638 -13.4922)
(-31.2392 10.2104 0.208604 32.7362 -2.574 13.8045)
(-22.7328 23.8972 -0.586605 9.26479 -0.949679 4.25042)
(-9.97025 23.9635 -0.764531 -7.09718 0.672216 -0.329274)
(-1.10637 10.2875 -0.237814 -16.2857 2.39553 -3.84628)
(-43.7823 7.80023 -0.081769 15.5121 -1.53058 4.39473)
(-39.7151 15.4066 -1.08656 -0.972373 -0.57455 -4.71753)
(-9.55226 13.5027 -1.44816 0.842229 0.218893 4.52664)
(3.69518 5.44399 -0.808119 -1.63728 1.14985 4.81877)
(193.059 88.0622 -0.0324108 434.919 -0.23561 242.768)
(37.4043 68.0302 -0.367252 94.774 -0.412545 51.823)
(-48.6158 59.8627 -0.45321 -97.8109 -0.828244 -58.8555)
(-205.787 54.2518 -0.255402 -397.009 -0.96959 -247.328)
(-43.1896 34.6392 -0.0876905 170.574 -0.97813 48.7493)
(-3.54098 74.802 -0.827367 76.4027 -0.669376 28.8011)
(-18.6547 68.3392 -0.995747 -77.4139 -0.420406 -37.2866)
(6.32641 20.8476 -0.493813 -171.41 -0.106652 -64.9799)
(-21.4233 35.9456 -0.0987799 161.477 -1.41218 56.337)
(-17.8626 63.8153 -0.893905 53.0898 -0.719487 15.6452)
(-9.16927 58.8519 -1.06409 -54.2078 -0.0303153 -22.7018)
(-10.9099 21.5817 -0.493581 -153.843 0.611742 -63.54)
(-28.9528 29.9318 -0.0431025 114.933 -1.67847 38.0979)
(-18.6455 53.9222 -0.753641 39.4146 -0.719729 11.9011)
(-8.9823 49.9514 -0.892603 -38.991 0.270725 -15.4543)
(-4.30872 18.2472 -0.38486 -107.211 1.1562 -41.5032)
(-29.9739 24.0265 0.0475088 79.0667 -1.77505 26.8044)
(-19.1919 43.8129 -0.530991 27.4966 -0.686038 9.02201)
(-8.79737 41.2041 -0.643602 -25.4956 0.448726 -9.09558)
(-3.70672 15.9117 -0.242853 -70.2016 1.48377 -26.4116)
(-31.7283 17.333 0.116889 49.9623 -1.71411 17.7935)
(-19.8709 33.6714 -0.360651 17.9138 -0.63303 7.03289)
(-9.11417 32.67 -0.452652 -14.7509 0.484471 -4.03066)
(-2.81117 13.4209 -0.137672 -39.275 1.56129 -13.8368)
(-31.5159 10.2311 0.100547 33.2662 -1.48131 14.2123)
(-23.0525 24.0266 -0.372236 9.60395 -0.552698 4.51604)
(-10.212 24.1364 -0.465853 -6.83121 0.363779 -0.15473)
(-1.20792 10.4289 -0.148632 -15.9159 1.3364 -3.6818)
(-44.1127 7.83664 -0.0931721 16.0005 -0.899989 4.53879)
(-40.2087 15.4873 -0.706836 -0.698582 -0.338183 -4.5988)
(-10.0087 13.5672 -0.906618 1.03429 0.114362 4.75687)
(3.44325 5.50841 -0.502098 -1.35647 0.6424 5.25238)
(193.054 88.0352 -0.00785538 435.041 -0.125969 243.174)
(37.4203 67.8943 -0.108044 94.9578 -0.152767 52.0333)
(-48.5797 59.6899 -0.134074 -97.5807 -0.257144 -58.9003)
(-205.603 54.1372 -0.0754073 -396.553 -0.279777 -247.431)
(-43.3829 34.5852 -0.0199157 170.565 -0.333806 49.4205)
(-3.66134 74.7266 -0.246676 76.5892 -0.224589 29.1022)
(-18.7197 68.2683 -0.299443 -77.1449 -0.137779 -37.5356)
(6.24096 20.8306 -0.148596 -171.171 -0.0282259 -65.7549)
(-21.6233 35.9424 -0.0250532 161.574 -0.46304 57.0753)
(-18.0345 63.8344 -0.27272 53.2756 -0.236626 15.9321)
(-9.26168 58.8884 -0.326448 -53.9588 -0.013789 -22.9694)
(-10.9415 21.6134 -0.150941 -153.58 0.19642 -64.2995)
(-29.1606 29.9629 -0.00964513 115.073 -0.542924 38.7369)
(-18.8183 54.0065 -0.233661 39.6037 -0.234339 12.1546)
(-9.0735 50.0534 -0.277376 -38.7618 0.0829771 -15.6612)
(-4.3393 18.3141 -0.118696 -106.966 0.368174 -42.1306)
(-30.1717 24.0702 0.017147 79.2388 -0.57299 27.2895)
(-19.352 43.9215 -0.167439 27.6855 -0.223003 9.23388)
(-8.88332 41.3315 -0.202597 -25.2918 0.140795 -9.20656)
(-3.73623 15.994 -0.0754757 -69.9758 0.473072 -26.8204)
(-31.907 17.3671 0.0370141 50.1585 -0.555788 18.1266)
(-20.0161 33.7686 -0.117732 18.0954 -0.20673 7.20823)
(-9.19931 32.7892 -0.146193 -14.5775 0.152878 -4.03711)
(-2.84794 13.5025 -0.0440206 -39.0736 0.499316 -14.0062)
(-31.6538 10.2405 0.028109 33.5026 -0.484509 14.4404)
(-23.2032 24.0915 -0.128041 9.76528 -0.181693 4.65222)
(-10.3238 24.2209 -0.157082 -6.69493 0.114517 -0.0795991)
(-1.25363 10.4971 -0.050907 -15.7221 0.428537 -3.62737)
(-44.2689 7.85557 -0.0404068 16.2252 -0.299549 4.66058)
(-40.4428 15.5295 -0.245048 -0.567808 -0.111993 -4.53182)
(-10.2267 13.5974 -0.308756 1.13083 0.035681 4.84327)
(3.31545 5.53696 -0.170723 -1.2213 0.206308 5.40261)
)
;

boundaryField
{
    interface
    {
        type            calculated;
        value           nonuniform List<symmTensor> 
192
(
(-20.4835 16.4921 4.14925 446.99 45.9355 125.67)
(-20.7883 8.12985 3.68661 211.963 -13.4939 24.6024)
(-20.4463 10.9281 4.58954 212.071 -8.83858 46.0164)
(-20.7266 9.34507 4.71514 152.874 -12.5434 36.549)
(-21.4451 7.33861 4.90729 107.601 -11.6174 33.328)
(-22.4699 4.73993 4.99203 68.8483 -10.0811 29.5162)
(-23.4385 2.21423 4.85886 45.5217 -8.00075 29.4125)
(-22.7843 -0.442279 4.3257 33.4947 -4.52761 32.2147)
(-23.2499 17.6455 2.92024 440.989 28.4197 132.901)
(-23.9522 9.32763 2.91813 233.853 -4.88256 41.5831)
(-24.4475 10.9873 3.12325 209.879 -12.567 44.1343)
(-25.4644 9.5124 3.15195 152.253 -15.9494 36.4572)
(-26.7565 7.33814 3.20481 104.385 -15.9499 32.0462)
(-28.0444 4.64278 3.24525 65.7446 -14.0669 28.9968)
(-28.6028 1.85868 3.1789 43.1542 -10.843 29.8664)
(-25.7012 -1.08871 2.88042 33.198 -6.09303 34.6691)
(-25.046 18.7869 1.87028 449.623 14.25 143.995)
(-25.7854 9.44458 2.10674 231.165 -3.11156 54.1274)
(-26.4528 11.0319 2.19832 209.424 -9.29441 51.1085)
(-27.663 9.51413 2.15568 151.419 -12.4232 38.1734)
(-29.0864 7.26993 2.13726 103.067 -12.9481 29.5493)
(-30.3509 4.49517 2.14238 64.5103 -11.7194 23.7082)
(-30.5281 1.59348 2.1159 42.8384 -9.17496 23.0973)
(-26.482 -1.52197 2.00038 32.672 -4.96767 26.4275)
(-26.3546 19.3948 1.18702 454.761 6.08401 151.321)
(-27.0721 9.47033 1.52195 229.398 -2.68887 64.3113)
(-27.7671 11.0604 1.6047 209.371 -6.53377 59.521)
(-29.0253 9.53133 1.57135 151.826 -8.73866 43.3058)
(-30.4675 7.26873 1.54253 103.692 -9.34008 31.4544)
(-31.6609 4.45389 1.53407 65.4231 -8.69116 23.0889)
(-31.5734 1.48754 1.51892 44.4018 -7.04451 20.8481)
(-26.8462 -1.6963 1.45725 34.3082 -4.04266 23.1901)
(-27.3109 19.671 0.749713 456.931 1.97893 155.236)
(-28.0061 9.46965 1.07666 228.482 -2.3556 70.6607)
(-28.6941 11.0652 1.15356 209.392 -4.56837 65.5104)
(-29.9555 9.53797 1.14087 152.273 -5.91743 47.6764)
(-31.3869 7.27253 1.12145 104.458 -6.37397 33.8836)
(-32.5175 4.43523 1.11245 66.4434 -6.06679 23.8108)
(-32.256 1.42589 1.10247 45.823 -5.08128 20.4115)
(-27.0797 -1.80355 1.06438 35.7209 -3.01826 21.9428)
(-27.9876 19.7803 0.458615 457.597 0.216589 157.167)
(-28.6627 9.45822 0.718938 227.999 -1.85311 74.3143)
(-29.3382 11.0607 0.780867 209.482 -3.05866 69.2645)
(-30.5914 9.53927 0.780477 152.65 -3.81604 50.7007)
(-32.0078 7.27403 0.770862 105.055 -4.10479 35.8782)
(-33.0932 4.42295 0.764951 67.2124 -3.96803 24.8348)
(-32.7201 1.38448 0.758153 46.8443 -3.4081 20.7625)
(-27.2449 -1.86833 0.73171 36.852 -2.08885 21.9064)
(-28.4214 19.8166 0.246784 457.66 -0.275584 158.035)
(-29.0849 9.44583 0.410523 227.727 -1.18214 76.2267)
(-29.7517 11.0541 0.449518 209.561 -1.77218 71.351)
(-30.9969 9.53801 0.452315 152.9 -2.14814 52.485)
(-32.402 7.27301 0.448502 105.425 -2.3019 37.1639)
(-33.4595 4.41254 0.445414 67.6722 -2.24599 25.626)
(-33.0188 1.35484 0.439669 47.4466 -1.96203 21.2056)
(-27.36 -1.90789 0.419853 37.5549 -1.23291 22.1734)
(-28.6242 19.8248 0.077025 457.599 -0.152509 158.362)
(-29.281 9.43707 0.132162 227.605 -0.405558 77.0377)
(-29.9403 11.0484 0.145056 209.611 -0.581813 72.2726)
(-31.1788 9.53586 0.146261 153.032 -0.694826 53.3031)
(-32.5774 7.27108 0.14527 105.607 -0.742709 37.7848)
(-33.623 4.40403 0.144292 67.8897 -0.727932 26.044)
(-33.1389 1.33383 0.14136 47.7313 -0.642074 21.4877)
(-27.3709 -1.92273 0.132441 37.9057 -0.41146 22.4062)
(39.4638 63.4601 -1.98727 279.985 2.69738 -9.27896)
(-73.2573 31.5618 -4.3133 112.795 -1.60186 -5.96613)
(-47.8146 43.0528 -5.46082 127.351 -1.52306 -2.78468)
(-48.9406 39.0879 -6.22235 88.0445 -1.16622 -0.373099)
(-44.1523 34.5988 -6.87852 60.1789 -0.779709 1.25913)
(-42.7884 27.3032 -7.49399 34.7489 -0.635812 2.15573)
(-42.9827 19.0108 -8.19825 18.049 -0.802538 2.30174)
(-52.3605 11.922 -9.45724 4.94842 -1.05968 1.54715)
(-3.56865 44.7399 -1.48516 55.9019 -0.486996 -8.3333)
(-34.9656 67.9712 -2.86698 33.6177 -1.66196 -6.97396)
(-34.2896 73.0888 -3.46765 32.9968 -1.66676 -5.1387)
(-33.2051 68.941 -3.84404 21.1044 -1.30047 -3.6031)
(-31.568 60.9379 -4.15525 11.8927 -0.837797 -2.55417)
(-31.3635 49.8523 -4.51567 3.71779 -0.497407 -1.9845)
(-32.9384 37.2323 -5.10834 -1.91139 -0.338736 -1.81661)
(-43.5069 22.2193 -6.5788 -5.50265 -0.206347 -1.72235)
(-24.8277 37.8398 -1.41104 -88.8027 -0.0295578 -7.6561)
(7.21394 62.0337 -2.58344 -47.038 -1.39031 -7.20823)
(3.41013 67.7927 -3.04223 -47.7354 -1.52425 -6.0977)
(1.47734 64.615 -3.20532 -37.3318 -1.27174 -5.04553)
(-1.53847 57.7612 -3.34801 -29.1745 -0.83617 -4.33202)
(-4.31148 48.0845 -3.58414 -21.5533 -0.43804 -3.9699)
(-7.23983 36.2602 -4.08401 -15.2799 -0.155444 -3.89422)
(-6.71132 19.743 -5.42184 -6.72387 0.0745747 -3.80748)
(-65.1792 38.2198 -1.59238 -278.583 3.84646 -6.79761)
(43.2738 17.7977 -2.75812 -117.822 -1.02773 -6.5999)
(17.1501 28.1069 -3.16988 -130.54 -1.33043 -5.74313)
(17.1264 26.6704 -3.37003 -93.1393 -1.27569 -4.88298)
(11.2593 25.3635 -3.48476 -66.2082 -0.895931 -4.29192)
(7.88212 21.9194 -3.68117 -41.0795 -0.47938 -3.97089)
(5.86484 16.7463 -4.1219 -22.5382 -0.107668 -3.83811)
(9.62698 8.05813 -5.31853 -8.08562 0.292351 -3.77268)
(-4.42574 -12.3727 -1.27802 -391.521 -41.7443 -134.427)
(-3.32186 -6.03754 0.703034 -200.669 7.94522 -28.294)
(-2.50676 -7.92519 0.617547 -193.315 4.28318 -41.7195)
(-1.72063 -6.20848 0.936248 -136.055 8.72896 -26.4979)
(-1.08829 -4.43431 1.05302 -91.6027 8.97203 -19.6938)
(-0.428214 -2.52223 1.17809 -52.7659 8.56596 -13.696)
(0.61152 -1.21657 1.30113 -25.4205 6.85526 -10.8461)
(3.43981 -1.58004 1.32851 -11.1705 2.60609 -10.7221)
(-5.13119 -13.1026 -1.20035 -381.353 -28.9645 -140.916)
(-4.75418 -7.19639 -0.221207 -223.596 -0.99891 -47.9117)
(-4.5208 -7.95382 0.109572 -194.01 7.70225 -42.2094)
(-4.10864 -6.29002 0.400303 -138.484 12.4811 -29.6866)
(-3.65822 -4.32361 0.572603 -91.5883 13.9375 -22.1926)
(-3.10223 -2.32583 0.656781 -52.3525 13.2915 -16.9166)
(-2.09145 -0.866455 0.644093 -24.3417 10.6057 -14.0621)
(0.876841 -1.1421 0.47806 -11.1639 5.20824 -14.1814)
(-5.53325 -13.8412 -0.772604 -387.913 -16.3515 -154.014)
(-5.30479 -7.33745 -0.288965 -222.82 -1.34693 -64.5835)
(-5.24648 -7.99296 -0.0245794 -194.973 5.47846 -54.628)
(-4.95321 -6.27886 0.240402 -139.319 9.76311 -37.5695)
(-4.53982 -4.22652 0.426978 -91.7586 11.5351 -25.9917)
(-3.95206 -2.16002 0.519644 -52.1283 11.3445 -17.5056)
(-2.8651 -0.630656 0.496857 -23.7544 9.33947 -12.0014)
(-0.0468922 -0.697647 0.263238 -9.61908 4.58546 -9.04456)
(-5.80378 -14.1374 -0.455217 -391.228 -8.72771 -162.018)
(-5.60839 -7.34903 -0.223453 -221.757 -0.731525 -76.5615)
(-5.62019 -7.96943 -0.0445663 -194.721 3.65688 -65.1096)
(-5.37197 -6.21797 0.153864 -139.286 6.73511 -44.922)
(-4.95792 -4.12234 0.312296 -91.6543 8.28957 -29.9176)
(-4.33002 -2.01347 0.39693 -51.8953 8.42422 -18.4158)
(-3.18784 -0.429529 0.376661 -23.1763 7.15457 -10.3386)
(-0.441345 -0.379984 0.168838 -8.64533 3.60676 -5.18628)
(-5.99272 -14.1861 -0.257627 -391.946 -4.47823 -166.118)
(-5.80909 -7.31991 -0.149958 -220.965 -0.246789 -83.868)
(-5.85024 -7.91474 -0.0316891 -194.127 2.44523 -71.9754)
(-5.61784 -6.13738 0.104897 -138.798 4.44361 -50.1336)
(-5.19222 -4.01576 0.221503 -91.2352 5.57989 -32.9719)
(-4.53103 -1.88091 0.285771 -51.4393 5.81064 -19.3373)
(-3.36391 -0.265194 0.265772 -22.5013 5.04995 -9.37257)
(-0.6829 -0.146807 0.0954884 -7.81673 2.5747 -2.74215)
(-6.11677 -14.1387 -0.138684 -391.54 -2.18316 -168.05)
(-5.93788 -7.27837 -0.0899617 -220.338 0.000700983 -88.0373)
(-5.98952 -7.85567 -0.0142168 -193.533 1.58266 -76.0698)
(-5.76039 -6.06176 0.0739017 -138.239 2.79341 -53.395)
(-5.32318 -3.9233 0.150897 -90.7164 3.52986 -35.008)
(-4.64099 -1.77453 0.192498 -50.9212 3.72867 -20.0752)
(-3.46606 -0.142933 0.17373 -21.8753 3.28895 -8.92458)
(-0.844426 0.0124182 0.0492237 -7.22066 1.69138 -1.48594)
(-6.19074 -14.0765 -0.066647 -390.904 -0.960409 -168.88)
(-6.014 -7.24207 -0.0459219 -219.882 0.0689295 -90.2456)
(-6.06862 -7.80848 -0.00334017 -193.081 0.896807 -78.3092)
(-5.83877 -6.00545 0.0458578 -137.802 1.54109 -55.2382)
(-5.39365 -3.85721 0.0888641 -90.2931 1.94725 -36.2093)
(-4.70065 -1.70164 0.111224 -50.5029 2.07124 -20.5652)
(-3.52615 -0.0632148 0.0979439 -21.411 1.84176 -8.7531)
(-0.948458 0.111489 0.0213006 -6.82872 0.951333 -0.914912)
(-6.22397 -14.0377 -0.0195423 -390.491 -0.267076 -169.175)
(-6.04751 -7.22151 -0.0137529 -219.638 0.0340384 -91.1921)
(-6.10275 -7.78293 4.59015e-07 -192.838 0.291265 -79.2894)
(-5.87235 -5.97609 0.0157521 -137.567 0.493 -56.0612)
(-5.42417 -3.82336 0.0294453 -90.0626 0.622164 -36.7598)
(-4.72718 -1.66468 0.0363878 -50.2761 0.663539 -20.8067)
(-3.55194 -0.0247765 0.0317381 -21.1671 0.592037 -8.70346)
(-1.0055 0.158546 0.00546644 -6.64039 0.306501 -0.713281)
(-56.6803 13.2135 -2.47562 -0.303051 -2.3821 2.14589)
(-51.4447 12.569 1.11315 1.56656 -2.1759 6.31074)
(-52.4417 12.7145 0.563723 3.0205 -1.70106 1.10174)
(-53.032 12.9152 0.0746017 4.15039 -1.3125 -1.24322)
(-53.9354 13.1245 -0.25248 4.98584 -0.983718 -2.58686)
(-54.617 13.2901 -0.315671 5.57417 -0.693874 -2.98601)
(-55.0743 13.4039 -0.244473 5.9331 -0.423096 -3.03211)
(-55.3331 13.4564 -0.0929156 6.03106 -0.145366 -3.03789)
(-49.4296 9.59122 -4.18396 -2.12993 -0.68257 -6.91037)
(-44.6378 8.45667 -1.95668 -1.12303 -0.685663 -5.99382)
(-45.0125 8.29302 -1.63226 -0.0956473 -0.525712 -6.28957)
(-46.3145 8.33688 -1.82946 0.741454 -0.387209 -6.25272)
(-47.6206 8.41738 -1.81987 1.35693 -0.284186 -6.31391)
(-48.5923 8.48825 -1.49716 1.78824 -0.199155 -6.29296)
(-49.208 8.54242 -0.969671 2.06787 -0.11885 -6.24243)
(-49.4826 8.57945 -0.334934 2.22811 -0.0392144 -6.19104)
(-5.2566 5.96076 -4.08308 -3.63194 0.0372929 -1.07616)
(-6.95923 4.974 -3.64326 -2.89639 -0.009278 -2.07857)
(-8.81951 4.73456 -3.322 -2.13749 0.00912631 -0.00353436)
(-10.6333 4.68591 -3.05896 -1.53784 0.0133358 1.79522)
(-12.0269 4.68112 -2.64475 -1.10928 0.00687294 2.88198)
(-12.9893 4.68499 -2.02517 -0.816104 0.000702822 3.42488)
(-13.5875 4.6896 -1.26497 -0.631203 0.000742466 3.65821)
(-13.867 4.69147 -0.429804 -0.526135 0.00145741 3.74452)
(12.2684 4.74188 -3.24685 -3.53386 0.43372 -3.45575)
(8.53031 3.85959 -2.73966 -2.95373 0.199608 -5.78788)
(7.18864 3.53044 -2.54485 -2.44479 0.118123 -0.803264)
(5.86637 3.39859 -2.18199 -2.04387 0.0644138 2.73539)
(4.9408 3.32091 -1.79361 -1.76623 0.0285173 4.90799)
(4.25587 3.27288 -1.32868 -1.58306 0.00734662 5.94209)
(3.80976 3.24288 -0.816493 -1.47355 -0.000467341 6.35794)
(3.58474 3.22528 -0.275874 -1.42421 -0.000649267 6.48212)
)
;
    }
    symmetry
    {
        type            symmetryPlane;
    }
    bottom
    {
        type            calculated;
        value           nonuniform List<symmTensor> 
32
(
(210.98 81.7348 3.72286 320.465 93.5875 211.992)
(208.033 92.1585 2.09738 314.47 46.6517 204.952)
(214.615 97.2992 1.07725 324.212 22.7873 210.268)
(218.527 99.2891 0.50541 330.149 10.5026 213.803)
(220.378 99.9855 0.212182 332.995 4.38362 215.547)
(221.195 100.196 0.0746168 334.267 1.53913 216.338)
(221.52 100.241 0.0190846 334.78 0.393565 216.66)
(221.627 100.241 0.00255199 334.95 0.0526311 216.766)
(40.6695 32.2533 0.456814 60.4852 26.0054 40.4712)
(43.1281 43.3001 0.317917 63.5262 13.4996 42.2075)
(46.1825 45.2753 0.155452 68.0221 6.32581 45.0916)
(47.6546 45.0809 0.0625087 70.2748 2.55726 46.5562)
(48.4268 44.4915 0.0180737 71.493 0.749614 47.3544)
(48.8597 43.9726 0.000316298 72.1895 0.0132776 47.8122)
(49.0993 43.6262 -0.00390072 72.5792 -0.165075 48.0685)
(49.2073 43.4568 -0.00189605 72.7557 -0.0805583 48.1845)
(-58.3547 27.4855 -0.487705 -87.4584 -30.3945 -58.2564)
(-51.74 38.073 -0.392509 -78.2839 -17.7376 -52.3997)
(-52.1265 39.3465 -0.239628 -78.9408 -10.4751 -52.9628)
(-52.3967 38.6536 -0.138802 -79.2946 -6.17532 -53.2433)
(-52.3894 37.738 -0.0788216 -79.2243 -3.59201 -53.21)
(-52.2465 37.0077 -0.0433762 -78.9665 -2.01598 -53.0404)
(-52.0898 36.5325 -0.0215541 -78.7051 -1.01492 -52.8651)
(-51.9943 36.3022 -0.00650338 -78.5496 -0.308192 -52.7603)
(-215.347 58.1302 -3.31033 -316.224 -86.8072 -212.62)
(-204.129 65.7968 -2.01466 -301.367 -47.0568 -205.505)
(-209.56 67.9787 -1.1241 -309.364 -25.3072 -212.161)
(-212.435 68.1074 -0.597755 -313.459 -13.4031 -215.355)
(-213.331 67.6509 -0.306874 -314.675 -6.9229 -216.299)
(-213.345 67.1398 -0.150815 -314.634 -3.42829 -216.291)
(-213.099 66.7556 -0.0673106 -314.241 -1.53922 -216.017)
(-212.911 66.5558 -0.0189554 -313.951 -0.43483 -215.813)
)
;
    }
}


// ************************************************************************* //
