/*--------------------------------*- C++ -*----------------------------------*\
| =========                 |                                                 |
| \\      /  F ield         | foam-extend: Open Source CFD                    |
|  \\    /   O peration     | Version:     3.1                                |
|   \\  /    A nd           | Web:         http://www.extend-project.de       |
|    \\/     M anipulation  |                                                 |
\*---------------------------------------------------------------------------*/
FoamFile
{
    version     2.0;
    format      ascii;
    class       volScalarField;
    location    "3.8";
    object      sigmaCauchyEq;
}
// * * * * * * * * * * * * * * * * * * * * * * * * * * * * * * * * * * * * * //

dimensions      [1 -1 -2 0 0 0 0];

internalField   nonuniform List<scalar> 
256
(
265.947
109.678
103.723
212.85
186.055
138.294
125.993
161.794
170.547
132.047
120.148
141.372
134.857
118.349
108.285
107.777
103.925
101.267
93.0381
78.0751
77.9907
82.2017
75.5703
52.7935
60.9156
63.4496
56.2214
33.514
57.5296
49.7323
31.2774
19.1704
262.464
123.931
114.46
204.87
196.324
143.626
131.204
169.121
169.034
123.737
112.228
139.609
132.167
105.509
95.3138
104.128
99.7179
86.8007
78.4136
72.5746
73.9391
68.6222
61.9539
46.838
57.5994
52.2017
45.4665
28.186
55.3347
43.1635
25.9325
16.1001
265.614
128.237
116.303
202.573
195.546
145.331
131.384
165.531
169.399
123.488
110.437
136.786
132.387
103.006
91.2874
101.173
99.8453
83.3652
73.5851
69.66
73.8551
65.0768
57.3673
44.1576
57.1561
49.3961
42.1159
25.9572
54.1035
42.4691
24.9034
13.3819
267.581
129.345
115.81
201.125
194.992
146.403
131.009
162.788
169.628
124.513
109.971
134.314
133.054
103.568
90.4251
98.9182
100.717
83.5472
72.5182
67.6041
74.7245
65.0388
56.3901
42.3466
57.8525
49.473
41.6097
24.4842
54.5067
43.5128
25.3905
12.0723
268.444
129.319
114.751
199.835
194.96
146.913
130.415
161.019
170.037
125.474
109.81
132.577
133.878
104.643
90.4601
97.3445
101.779
84.5619
72.6469
66.2178
75.8383
65.9071
56.5939
41.1572
58.8819
50.2765
41.9612
23.5788
55.4068
44.7246
26.1389
11.6104
268.701
128.987
113.748
198.734
195.075
147.086
129.794
159.834
170.451
126.125
109.667
131.408
134.589
105.53
90.6341
96.2951
102.666
85.5029
72.9998
65.3111
76.7712
66.7685
57.0213
40.4052
59.7734
51.0441
42.4189
23.048
56.301
45.6788
26.7081
11.4248
268.718
128.675
113.025
197.941
195.184
147.108
129.303
159.078
170.761
126.494
109.527
130.677
135.084
106.097
90.7537
95.6465
103.265
86.1368
73.2743
64.7584
77.398
67.3634
57.3547
39.9609
60.3826
51.5688
42.7472
22.7545
56.9444
46.2987
27.0486
11.3144
268.686
128.5
112.653
197.528
195.243
147.095
129.036
158.705
170.92
126.655
109.439
130.321
135.331
106.364
90.8047
95.3346
103.56
86.4442
73.4104
64.4948
77.7036
67.6551
57.5227
39.7529
60.6796
51.8251
42.9069
22.6219
57.2634
46.5981
27.2011
11.2515
)
;

boundaryField
{
    interface
    {
        type            calculated;
        value           nonuniform List<scalar> 
192
(
422.809
215.532
209.006
155.805
114.993
82.1056
64.666
56.7023
413.27
232.855
210.73
159.618
117.898
85.9659
69.0329
60.8091
418.719
228.443
209.756
159.259
117.597
85.3191
67.8056
57.1121
422.85
225.806
208.943
159.27
118.123
86.0273
68.5561
56.9875
424.96
224.73
208.721
159.59
118.877
86.9768
69.6073
57.5236
425.841
224.343
208.821
160.026
119.588
87.8296
70.5542
58.3008
426.13
224.21
208.983
160.383
120.095
88.4163
71.1999
58.8902
426.192
224.165
209.08
160.57
120.346
88.701
71.5055
59.1706
289.94
172.266
174.585
138.472
109.29
83.3861
65.571
61.6364
99.2728
132.139
139.593
128.554
112.534
92.6329
72.1317
56.6863
98.9331
118.064
126.658
117.714
103.63
85.3156
64.0098
35.5813
256.598
146.223
146.154
111.306
83.7084
58.6525
38.9564
23.1487
349.446
186.926
175.237
125.212
84.6095
49.6411
25.7134
15.5006
334.561
201.167
174.794
125.938
84.1744
49.8355
26.7013
16.6251
335.951
195.192
171.311
123.044
81.5451
47.4615
24.3433
12.2965
337.009
191.264
168.165
120.221
78.9478
44.9044
21.5007
9.50985
336.843
189.08
166.062
118.162
76.9856
42.8628
19.0862
7.7731
336.117
187.789
164.722
116.802
75.6435
41.4372
17.3439
6.75036
335.381
187.022
163.914
115.978
74.8152
40.5523
16.2457
6.12614
334.946
186.657
163.529
115.588
74.4205
40.1309
15.7208
5.81733
62.303
59.8001
58.8891
59.1278
60.0227
60.9314
61.6039
61.9242
48.6198
43.963
44.6411
46.4011
48.0071
49.1871
49.9394
50.3059
13.0359
11.5992
12.7991
14.7681
16.2918
17.2032
17.681
17.8822
18.6582
15.4851
11.6853
9.82624
9.35436
9.1768
9.0232
8.91251
)
;
    }
    symmetry
    {
        type            symmetryPlane;
    }
    bottom
    {
        type            calculated;
        value           nonuniform List<scalar> 
32
(
241.322
209.018
206.081
207.161
208.084
208.525
208.68
208.714
74.4777
81.286
82.29
81.5734
80.6109
79.816
79.2868
79.0262
76.7362
77.3337
75.3066
72.7888
70.7811
69.3851
68.5223
68.1122
207.931
170.195
159.676
156.126
154.443
153.389
152.706
152.361
)
;
    }
}


// ************************************************************************* //
