/*--------------------------------*- C++ -*----------------------------------*\
| =========                 |                                                 |
| \\      /  F ield         | foam-extend: Open Source CFD                    |
|  \\    /   O peration     | Version:     3.1                                |
|   \\  /    A nd           | Web:         http://www.extend-project.de       |
|    \\/     M anipulation  |                                                 |
\*---------------------------------------------------------------------------*/
FoamFile
{
    version     2.0;
    format      ascii;
    class       volSymmTensorField;
    location    "3.8";
    object      sigma;
}
// * * * * * * * * * * * * * * * * * * * * * * * * * * * * * * * * * * * * * //

dimensions      [1 -1 -2 0 0 0 0];

internalField   nonuniform List<symmTensor> 
256
(
(178.783 61.4124 -2.67511 404.214 32.18 206.802)
(23.9339 52.1164 -8.19981 81.928 11.0412 32.7201)
(-55.9947 48.5906 -8.38355 -112.75 -16.1626 -55.7884)
(-201.51 51.8895 -3.39828 -415.146 -39.3599 -217.914)
(-75.1477 25.6793 -3.00977 122.685 -10.3308 -20.442)
(-31.9857 67.4816 -12.8892 45.2792 -4.67768 -8.70312)
(-1.20323 66.0048 -13.3456 -52.8311 2.29259 -2.44897)
(40.5503 24.6085 -4.66538 -131.352 7.0247 9.86475)
(-27.2543 31.6368 -1.0391 149.86 -5.69225 26.8218)
(-33.1805 65.5583 -8.71089 41.1386 -2.40281 -3.70084)
(-7.07492 65.5173 -9.06363 -47.3948 0.156775 -7.44385)
(-6.77507 31.8 -2.76826 -151.6 3.11041 -30.9565)
(-38.6054 27.9854 -0.972011 102.166 -8.126 13.4299)
(-34.2505 60.1545 -7.06766 28.7224 -2.86499 -4.55302)
(-6.89209 60.4534 -7.33057 -33.2428 1.07598 -3.77276)
(4.18007 28.5612 -2.86165 -100.783 6.183 -13.7399)
(-35.5934 24.5206 -0.573685 71.9775 -7.48795 13.8819)
(-32.5057 52.1762 -5.57591 19.2244 -2.47525 -2.97896)
(-8.52308 52.7244 -5.79244 -23.2996 1.06858 -3.27731)
(1.20279 25.4841 -2.49509 -68.7791 6.11944 -11.4456)
(-36.4281 19.1314 -0.64174 43.509 -6.57036 11.3713)
(-31.6524 42.2008 -4.78896 10.2724 -2.1763 -2.38789)
(-9.37375 43.1254 -4.86221 -14.9881 0.962659 -2.68087)
(1.56777 20.872 -2.40396 -39.6479 5.69238 -7.53189)
(-36.0319 12.5487 -1.20822 25.8405 -5.49074 12.1913)
(-32.3558 31.0443 -4.57943 3.19092 -2.1634 -2.05861)
(-10.3326 32.0226 -4.40132 -9.08184 0.559197 -2.7515)
(2.1827 15.3072 -2.52515 -19.1429 4.48264 -5.85392)
(-47.6586 7.22329 -1.81068 9.73912 -3.20954 7.36804)
(-45.8658 17.8714 -4.27669 -6.18019 -1.52133 -8.1817)
(-5.35722 17.2652 -4.17138 -0.270407 -0.202416 1.0556)
(8.74398 7.57804 -3.00452 -4.71763 1.54035 -2.91839)
(180.687 70.0797 -1.62333 401.629 19.8832 215.389)
(29.9426 63.0169 -6.56224 85.7249 6.20334 39.712)
(-50.3077 59.9768 -7.18752 -99.7934 -11.5771 -52.21)
(-193.174 60.9728 -3.13319 -396.429 -27.0508 -215.851)
(-42.6643 26.4913 -2.22446 166.097 -3.98968 18.2136)
(-9.48527 69.8138 -12.0117 70.4139 -2.76239 13.0179)
(-21.1636 69.0048 -13.3514 -76.9644 -1.25676 -24.0525)
(7.36105 26.4982 -5.43979 -175.85 -0.850232 -29.2392)
(-21.3434 27.842 -0.632744 155.348 -8.97401 31.5929)
(-21.6377 60.2073 -9.34345 49.9562 -3.81538 3.88491)
(-12.5121 60.3677 -10.7937 -52.6061 1.16432 -12.5429)
(-9.95078 28.0733 -4.3518 -154.861 5.86311 -33.6093)
(-28.0668 23.3261 0.575342 111.335 -11.1478 22.3488)
(-21.9541 52.266 -6.46611 37.6751 -4.0671 3.22827)
(-11.9319 52.6113 -7.99322 -37.5659 2.35294 -8.95762)
(-3.12336 23.8446 -3.5466 -106.981 9.25342 -20.5021)
(-27.7943 19.3672 1.67109 77.1098 -11.138 19.7654)
(-21.8525 43.6073 -4.16885 26.0594 -3.82103 2.85067)
(-11.1202 44.1303 -5.7348 -24.5127 2.74744 -6.17925)
(-3.02177 20.2271 -2.6339 -70.2206 10.1715 -15.0396)
(-28.7492 14.4481 2.23438 48.3027 -9.86675 17.4384)
(-21.8071 34.3939 -2.64545 16.3002 -3.36568 2.71787)
(-10.6937 35.2529 -4.11527 -14.5364 2.50528 -4.41029)
(-2.15375 16.1105 -1.97298 -39.8196 9.50722 -10.8106)
(-28.9834 8.64844 2.18541 29.9704 -7.77531 17.8696)
(-23.9936 24.8623 -1.9259 7.74771 -2.94677 1.76006)
(-10.4633 25.8399 -3.19534 -7.27062 1.63974 -3.19591)
(-0.247173 11.6162 -1.59975 -17.4936 7.37876 -7.77033)
(-40.3345 5.36321 1.75306 14.4452 -4.47115 13.3567)
(-38.6509 14.7397 -1.76595 -2.42012 -1.99174 -5.255)
(-6.60737 14.1098 -3.26647 0.197924 0.346697 -0.0217865)
(4.94329 5.88977 -2.15052 -4.96662 3.39667 -5.76556)
(187.598 73.8035 -1.0685 412.554 9.84644 229.962)
(32.7511 65.9311 -4.18748 90.1839 2.49157 45.6033)
(-50.561 62.6271 -4.71226 -99.1459 -7.29342 -55.024)
(-199.38 63.7638 -2.18905 -404.044 -15.6353 -229.251)
(-43.4587 27.0691 -1.79302 167.448 -2.70967 30.5596)
(-7.71839 71.1099 -8.11109 74.6893 -2.25991 20.4776)
(-22.6451 70.3356 -9.2581 -78.2276 -1.63797 -30.1857)
(5.44753 27.0802 -4.21877 -177.332 -1.43953 -44.114)
(-22.1405 27.5099 -0.955372 157.468 -6.9325 39.4692)
(-20.9251 59.7988 -6.90123 53.1541 -3.2758 8.8969)
(-13.3503 59.9447 -8.16904 -53.5947 0.608288 -16.6148)
(-11.9303 27.5059 -3.72201 -157.353 4.12684 -44.7038)
(-29.2198 22.5257 0.0198384 112.301 -9.06319 25.8896)
(-21.27 50.3212 -4.8904 40.1128 -3.60026 6.74261)
(-12.6477 50.6404 -6.2069 -37.7132 1.954 -11.2435)
(-5.29966 22.8822 -2.93609 -108.793 7.41046 -27.7754)
(-29.8465 18.1674 0.909954 76.9057 -9.39777 19.5836)
(-21.2177 41.0121 -2.95922 28.1379 -3.43842 5.34553)
(-11.6924 41.5555 -4.28587 -24.1277 2.53742 -7.08646)
(-4.48218 18.995 -2.09936 -70.8077 8.67231 -18.5777)
(-31.1825 13.116 1.46837 47.5863 -8.5031 14.8224)
(-21.1685 31.7179 -1.57655 18.1051 -3.02239 4.50878)
(-11.1201 32.702 -2.8207 -13.7037 2.46143 -4.18211)
(-3.23813 14.98 -1.4186 -39.6227 8.38486 -11.5406)
(-31.1315 7.27706 1.5559 29.547 -6.70464 13.9415)
(-23.3967 22.6202 -0.935041 9.26788 -2.51535 2.93611)
(-10.9058 23.8481 -2.0615 -6.25797 1.73701 -2.10145)
(-1.11057 10.8031 -1.06239 -16.7533 6.68803 -6.2259)
(-43.2864 4.69867 1.15726 12.8002 -3.61587 7.05803)
(-38.731 13.6147 -1.15635 -1.50057 -1.50744 -5.15242)
(-7.78914 13.1286 -2.59069 1.05231 0.45806 1.72816)
(4.7952 5.5822 -1.77706 -2.90378 3.03097 -1.09173)
(191.317 75.2645 -0.57154 418.929 4.16828 238.857)
(33.7711 66.577 -2.4872 92.4436 0.564727 48.8054)
(-50.9755 62.9651 -2.84296 -99.037 -4.51869 -56.9584)
(-202.546 64.4291 -1.36032 -407.946 -8.64473 -237.152)
(-44.6488 27.2716 -1.03589 167.483 -2.27742 39.1912)
(-8.09665 71.7732 -5.05152 76.245 -1.86858 24.499)
(-23.0463 70.9335 -5.84799 -77.6034 -1.42229 -33.503)
(5.08743 27.2487 -2.77774 -176.567 -1.03139 -53.6802)
(-22.8888 27.7101 -0.652344 158.684 -4.96968 46.9216)
(-21.9317 60.1832 -4.62995 54.4029 -2.51442 11.9252)
(-13.7183 60.3152 -5.51845 -53.0567 0.209392 -19.2645)
(-12.4891 27.6309 -2.63291 -157.278 2.68889 -53.0077)
(-30.1277 22.5316 -0.0524502 113.487 -6.51041 30.7277)
(-22.3115 50.2671 -3.432 41.2191 -2.73977 8.91186)
(-13.1584 50.5908 -4.33129 -37.1673 1.3154 -12.958)
(-5.87862 22.8631 -2.12063 -108.773 5.15103 -33.528)
(-30.7682 17.9903 0.562958 78.0846 -6.90685 21.9767)
(-22.1981 40.6097 -2.11111 29.192 -2.63639 6.79405)
(-12.2896 41.2057 -2.99406 -23.5558 1.88014 -7.83272)
(-5.05315 18.8885 -1.5 -70.6816 6.31467 -21.6513)
(-32.0415 12.779 0.983165 48.8282 -6.40985 15.2909)
(-22.0446 31.1158 -1.11474 19.1189 -2.34535 5.41515)
(-11.7314 32.233 -1.92912 -13.0757 1.91721 -4.02979)
(-3.80661 14.8702 -0.973021 -39.3636 6.31466 -12.2771)
(-31.5732 6.8089 1.05675 31.2074 -5.19658 13.2403)
(-24.1995 22.0215 -0.723806 10.2219 -1.95996 3.42389)
(-11.6318 23.4478 -1.47139 -5.62574 1.40304 -1.2064)
(-1.74008 10.7549 -0.731323 -16.2762 5.17567 -4.99085)
(-43.6719 4.4906 0.635455 14.3156 -2.948 5.32627)
(-39.7332 13.2895 -1.22107 -0.544083 -1.20649 -4.93159)
(-9.19172 12.873 -2.2335 1.52652 0.383618 3.15103)
(3.9733 5.57603 -1.44463 -2.15463 2.38961 1.9096)
(192.848 75.7596 -0.25966 421.883 1.33047 243.469)
(34.193 66.473 -1.39811 93.6726 -0.270478 50.5554)
(-51.1475 62.6277 -1.62555 -98.6808 -2.76101 -57.9729)
(-203.534 64.3332 -0.793962 -408.752 -4.63747 -240.868)
(-45.6996 27.2759 -0.497022 167.377 -1.92113 44.3512)
(-8.5743 71.9518 -2.96335 77.1298 -1.48254 26.8273)
(-23.3479 71.0594 -3.48621 -76.8147 -1.08978 -35.4592)
(4.86223 27.2491 -1.6972 -175.712 -0.607981 -59.4615)
(-23.7935 27.8598 -0.334384 159.199 -3.48903 51.8225)
(-22.8092 60.521 -2.89299 55.164 -1.82973 13.8437)
(-14.0688 60.6623 -3.48328 -52.2913 0.0100787 -20.9848)
(-12.6675 27.775 -1.69889 -156.537 1.73838 -58.2893)
(-31.094 22.6825 0.00256924 114.173 -4.45003 34.3327)
(-23.2208 50.5946 -2.23831 41.9894 -1.94574 10.3931)
(-13.6011 50.945 -2.82395 -36.4838 0.808866 -14.1777)
(-6.09879 23.0453 -1.40071 -108.163 3.38893 -37.4699)
(-31.6796 18.0824 0.38146 78.9483 -4.75935 24.1373)
(-23.0601 40.8303 -1.42462 29.9837 -1.87513 7.84479)
(-12.7816 41.4823 -1.98717 -22.9415 1.25662 -8.42834)
(-5.32244 19.0714 -0.998117 -70.1853 4.26869 -23.9357)
(-32.8623 12.7683 0.647263 49.8315 -4.51247 16.1872)
(-22.8169 31.2009 -0.797398 19.9223 -1.69431 6.13091)
(-12.2436 32.4185 -1.30789 -12.5166 1.32647 -4.00213)
(-4.10888 15.0428 -0.651559 -38.9021 4.37619 -12.9437)
(-32.1177 6.67996 0.662136 32.4889 -3.76598 13.3222)
(-24.9391 22.009 -0.627534 10.9846 -1.44493 3.87136)
(-12.2465 23.5567 -1.09805 -5.13074 0.980215 -0.650189)
(-2.08411 10.9147 -0.530499 -15.7175 3.65647 -4.22171)
(-44.4365 4.45258 0.243787 15.2804 -2.20124 4.43464)
(-40.8119 13.2805 -1.21966 0.071116 -0.909463 -4.83832)
(-10.2799 12.8653 -1.88544 1.90465 0.244957 4.04392)
(3.47734 5.64479 -1.1676 -1.48801 1.68955 3.85144)
(193.385 75.8725 -0.0906174 423.115 0.119862 245.743)
(34.3748 66.1896 -0.738513 94.3739 -0.495669 51.5038)
(-51.144 62.1823 -0.87712 -98.2061 -1.62523 -58.4239)
(-203.567 64.0361 -0.435437 -408.237 -2.38476 -242.386)
(-46.3899 27.1989 -0.182201 167.344 -1.47332 47.3171)
(-8.93316 71.8951 -1.62688 77.7059 -1.07901 28.1427)
(-23.5515 70.9677 -1.9531 -76.1141 -0.754387 -36.5711)
(4.65035 27.1857 -0.967176 -175.008 -0.31557 -62.8083)
(-24.4534 27.9222 -0.116837 159.526 -2.33098 54.833)
(-23.411 60.6936 -1.67575 55.6951 -1.24401 15.0016)
(-14.3455 60.8496 -2.04838 -51.6167 -0.0605258 -22.0435)
(-12.7662 27.8548 -1.01107 -155.796 1.09026 -61.4428)
(-31.7916 22.8004 0.0600865 114.637 -2.87782 36.7366)
(-23.848 50.8796 -1.34487 42.5443 -1.28927 11.3414)
(-13.9194 51.2575 -1.70975 -35.8667 0.463701 -14.9631)
(-6.21446 23.2061 -0.851943 -107.501 2.11343 -39.9343)
(-32.3342 18.1956 0.27429 79.5545 -3.07742 25.7705)
(-23.6546 41.1178 -0.885589 30.5632 -1.24029 8.56591)
(-13.1164 41.8149 -1.23087 -22.3929 0.77219 -8.8351)
(-5.46298 19.2633 -0.615534 -69.6184 2.69672 -25.4458)
(-33.4423 12.8249 0.423191 50.5499 -2.96229 17.1055)
(-23.3531 31.4173 -0.533109 20.5068 -1.13621 6.66641)
(-12.5866 32.7051 -0.842852 -12.0401 0.832974 -4.01088)
(-4.2813 15.233 -0.41297 -38.4072 2.80605 -13.4668)
(-32.5197 6.6468 0.402845 33.3857 -2.52954 13.7668)
(-25.4713 22.1289 -0.497358 11.5235 -0.988333 4.24101)
(-12.6664 23.7533 -0.783713 -4.73932 0.612335 -0.327039)
(-2.28859 11.0775 -0.370493 -15.2054 2.3716 -3.84097)
(-44.9298 4.44524 0.06306 16.0825 -1.52237 4.37697)
(-41.5999 13.3339 -1.01707 0.514989 -0.638119 -4.70073)
(-11.0261 12.9068 -1.43699 2.18745 0.132006 4.52159)
(3.08365 5.70148 -0.863318 -1.04965 1.09489 4.81859)
(193.515 75.863 -0.0193493 423.558 -0.210041 246.787)
(34.454 65.942 -0.347625 94.7675 -0.398584 51.9968)
(-51.0786 61.8331 -0.422224 -97.7939 -0.851127 -58.5904)
(-203.319 63.7683 -0.212432 -407.46 -1.10873 -242.894)
(-46.8094 27.1163 -0.0426784 167.333 -0.926968 48.8842)
(-9.16037 71.7792 -0.790762 78.0679 -0.65649 28.8416)
(-23.6678 70.8311 -0.96939 -75.6006 -0.440268 -37.158)
(4.4963 27.1189 -0.486101 -174.501 -0.140806 -64.6087)
(-24.8772 27.9347 -0.0186516 159.727 -1.34644 56.5023)
(-23.7744 60.7535 -0.849582 56.0469 -0.724332 15.648)
(-14.5267 60.9217 -1.05548 -51.1345 -0.0596115 -22.6419)
(-12.8266 27.8863 -0.524689 -155.247 0.603812 -63.18)
(-32.2386 22.8652 0.0641076 114.924 -1.62019 38.1411)
(-24.2276 51.0497 -0.701347 42.9124 -0.736297 11.8958)
(-14.1181 51.4477 -0.901487 -35.4202 0.234603 -15.4189)
(-6.28265 23.3055 -0.449777 -106.999 1.15627 -41.3368)
(-32.7581 18.271 0.170168 79.9199 -1.72793 26.7962)
(-24.0139 41.3191 -0.474729 30.9433 -0.70675 9.01259)
(-13.3171 42.046 -0.662547 -21.9934 0.411855 -9.07733)
(-5.53901 19.3936 -0.329525 -69.1721 1.48257 -26.3381)
(-33.822 12.8713 0.241457 50.9746 -1.67899 17.7641)
(-23.6784 31.5862 -0.304264 20.8823 -0.65384 7.0215)
(-12.7887 32.9176 -0.471694 -11.6975 0.449843 -4.02307)
(-4.37536 15.3656 -0.228069 -38.0158 1.55434 -13.8121)
(-32.8019 6.63693 0.213797 33.9063 -1.4566 14.1756)
(-25.8001 22.2313 -0.319329 11.8623 -0.576997 4.50595)
(-12.9178 23.9003 -0.474498 -4.46767 0.327404 -0.153856)
(-2.39939 11.1882 -0.221958 -14.8231 1.32129 -3.67739)
(-45.2693 4.44699 -0.00733036 16.5657 -0.89754 4.52148)
(-42.1028 13.3823 -0.66557 0.788259 -0.378932 -4.58297)
(-11.4826 12.9401 -0.898484 2.37861 0.0605716 4.74942)
(2.83078 5.7349 -0.531853 -0.764766 0.608534 5.24959)
(193.523 75.8386 -0.0011579 423.682 -0.112302 247.185)
(34.484 65.8066 -0.100918 94.9465 -0.147893 52.2071)
(-51.0279 61.6488 -0.124408 -97.561 -0.264416 -58.6368)
(-203.128 63.6194 -0.0630822 -406.962 -0.320396 -243.017)
(-47.0071 27.067 -0.00399629 167.327 -0.316192 49.5507)
(-9.26934 71.701 -0.234061 78.2443 -0.220423 29.1422)
(-23.7188 70.7432 -0.290821 -75.3305 -0.144493 -37.4082)
(4.41732 27.0793 -0.146824 -174.235 -0.0388653 -65.3898)
(-25.0817 27.9317 0.00180704 159.823 -0.441292 57.2353)
(-23.9446 60.7654 -0.257705 56.2234 -0.238148 15.9345)
(-14.6145 60.9403 -0.323435 -50.8854 -0.0234031 -22.91)
(-12.8559 27.8948 -0.161307 -154.959 0.193822 -63.9459)
(-32.4541 22.8914 0.0256317 115.062 -0.523914 38.7773)
(-24.4054 51.1236 -0.216237 43.0962 -0.23968 12.1489)
(-14.2124 51.5319 -0.279904 -35.1889 0.0712018 -15.6262)
(-6.31533 23.3503 -0.13966 -106.736 0.368032 -41.9675)
(-32.9637 18.3058 0.0572614 80.0896 -0.557707 27.2801)
(-24.182 41.4155 -0.14881 31.1307 -0.22977 9.22406)
(-13.4102 42.1571 -0.20833 -21.7857 0.128739 -9.1887)
(-5.5731 19.4559 -0.103259 -68.9333 0.4725 -26.7483)
(-34.0066 12.8937 0.0778027 51.1679 -0.544446 18.0971)
(-23.8308 31.6707 -0.0990615 21.0641 -0.213669 7.19647)
(-12.8813 33.0227 -0.151943 -11.5198 0.141436 -4.02997)
(-4.41743 15.43 -0.0729384 -37.8054 0.496875 -13.982)
(-32.9425 6.63271 0.0654098 34.1384 -0.476662 14.404)
(-25.9553 22.2836 -0.110484 12.0235 -0.19001 4.64171)
(-13.0341 23.9722 -0.159483 -4.32873 0.102288 -0.0793927)
(-2.44947 11.2409 -0.0743111 -14.6233 0.423363 -3.62347)
(-45.4301 4.4504 -0.0117848 16.7882 -0.299236 4.64315)
(-42.3415 13.4096 -0.231329 0.918981 -0.126029 -4.51657)
(-11.7004 12.9552 -0.305834 2.47449 0.0174619 4.83466)
(2.70288 5.74826 -0.180107 -0.627994 0.194859 5.39859)
)
;

boundaryField
{
    interface
    {
        type            calculated;
        value           nonuniform List<symmTensor> 
192
(
(-22.3259 -0.079667 2.41683 419.763 39.9282 126.534)
(-21.6634 0.0665398 4.12629 204.688 -12.4745 24.8549)
(-21.5927 0.212067 4.97871 205.451 -7.73586 46.394)
(-21.7116 0.221356 5.46194 149.593 -11.4224 36.6213)
(-22.2359 -0.0490786 5.74763 106.145 -10.7423 33.2473)
(-22.9861 -0.699146 5.83979 68.3277 -9.4434 29.3405)
(-23.6761 -1.93968 5.65872 45.2214 -7.51924 29.1861)
(-22.7109 -3.85305 4.97305 33.0788 -4.16651 31.9663)
(-25.3706 0.101115 1.75892 414.662 24.9693 134.26)
(-25.0662 0.325812 3.02587 225.327 -4.39952 42.0731)
(-25.7137 0.509265 3.64715 203.253 -11.6263 44.4761)
(-26.5879 0.466827 3.99185 148.877 -15.0131 36.5295)
(-27.6677 0.0813675 4.17504 102.912 -15.1998 31.9607)
(-28.668 -0.772289 4.20038 65.1957 -13.5217 28.8264)
(-28.9124 -2.35483 4.01421 42.7989 -10.4415 29.6527)
(-25.6322 -4.61564 3.48783 32.6927 -5.80333 34.4235)
(-27.4138 0.155916 1.27799 422.617 12.509 145.544)
(-26.9962 0.418055 2.18904 223.068 -2.81274 54.6222)
(-27.7991 0.622989 2.60138 202.919 -8.64234 51.47)
(-28.8439 0.557889 2.80881 148.066 -11.7544 38.2878)
(-30.0328 0.105623 2.90798 101.574 -12.4021 29.5208)
(-30.9898 -0.86805 2.90492 63.916 -11.3203 23.6114)
(-30.8311 -2.63103 2.77499 42.4142 -8.8785 22.9724)
(-26.3683 -5.02033 2.44644 32.0931 -4.75517 26.2875)
(-28.8876 0.168244 0.943012 427.354 5.34436 152.866)
(-28.3572 0.445747 1.61809 221.613 -2.45113 64.7627)
(-29.1825 0.661265 1.90934 203.006 -6.07473 59.8657)
(-30.2585 0.582962 2.04457 148.507 -8.26835 43.4332)
(-31.4499 0.0882973 2.10465 102.181 -8.94919 31.4535)
(-32.32 -0.960127 2.09814 64.7886 -8.40021 23.0277)
(-31.881 -2.82925 2.01573 43.9216 -6.82324 20.7637)
(-26.7167 -5.27974 1.80172 33.6731 -3.8804 23.0925)
(-29.9474 0.168561 0.682579 429.366 1.74857 156.738)
(-29.3439 0.450214 1.176 220.872 -2.1589 71.0644)
(-30.1603 0.668945 1.38409 203.119 -4.24327 65.8234)
(-31.2289 0.582011 1.47593 148.981 -5.59199 47.7968)
(-32.399 0.0607402 1.51574 102.935 -6.10091 33.8907)
(-33.1948 -1.03452 1.51259 65.7804 -5.85951 23.7651)
(-32.5709 -2.97098 1.46326 45.3042 -4.91978 20.3457)
(-26.9428 -5.45827 1.3206 35.0478 -2.89785 21.8645)
(-30.6874 0.165825 0.464196 429.994 0.203477 158.631)
(-30.0358 0.447251 0.802895 220.482 -1.70318 74.6833)
(-30.8392 0.665933 0.944606 203.261 -2.8385 69.5502)
(-31.8934 0.573218 1.00563 149.372 -3.60144 50.8094)
(-33.0418 0.0354755 1.03228 103.524 -3.92414 35.8845)
(-33.7852 -1.0891 1.03209 66.5311 -3.82875 24.7944)
(-33.0423 -3.06914 1.00363 46.3006 -3.29749 20.7041)
(-27.1064 -5.58007 0.9106 36.1538 -2.00516 21.8351)
(-31.1577 0.163746 0.268146 430.064 -0.232023 159.476)
(-30.4795 0.443716 0.465687 220.258 -1.08814 76.5751)
(-31.2743 0.661104 0.54783 203.364 -1.64385 71.6191)
(-32.317 0.564697 0.582768 149.628 -2.02561 52.5846)
(-33.4502 0.0172431 0.598393 103.887 -2.19876 37.1674)
(-34.1612 -1.1252 0.599173 66.9802 -2.16575 25.5867)
(-33.3463 -3.13225 0.582824 46.8886 -1.89764 21.1498)
(-27.2218 -5.6549 0.526409 36.8422 -1.18394 22.1042)
(-31.3764 0.162165 0.0868023 430.015 -0.130322 159.793)
(-30.6851 0.44061 0.151275 220.156 -0.373588 77.377)
(-31.4724 0.657032 0.177845 203.424 -0.539636 72.5325)
(-32.507 0.559356 0.189054 149.762 -0.655008 53.3981)
(-33.6321 0.00756343 0.194185 104.067 -0.709233 37.7867)
(-34.3291 -1.1451 0.194568 67.1925 -0.701809 26.0048)
(-33.4681 -3.16753 0.188521 47.1661 -0.621058 21.4327)
(-27.2331 -5.68446 0.168091 37.187 -0.395542 22.3374)
(36.8331 55.3905 -2.68292 269.109 -0.698615 -9.61668)
(-77.1129 25.2851 -4.56391 111.287 -1.07438 -6.04684)
(-52.6047 34.9974 -5.49304 126.718 -1.09142 -2.85252)
(-53.7575 31.9129 -6.1233 89.3694 -0.941748 -0.401459)
(-48.604 28.6762 -6.67795 62.4051 -0.8585 1.267)
(-46.4338 22.7794 -7.21863 37.0522 -0.959969 2.1937)
(-45.6347 15.4415 -7.86305 19.8281 -1.26666 2.36669)
(-54.3004 8.59562 -9.03836 6.08576 -1.62728 1.64299)
(-5.25861 43.5142 -1.6575 55.8688 -0.54026 -8.39961)
(-40.2677 65.9647 -2.99122 35.7309 -0.999577 -7.0382)
(-41.5504 70.327 -3.52107 36.6789 -1.17996 -5.19411)
(-41.0264 66.3037 -3.79929 25.8662 -1.07073 -3.63885)
(-38.9741 58.6094 -4.04346 16.9334 -0.876091 -2.56638)
(-37.5953 47.904 -4.35711 8.3261 -0.735435 -1.97333)
(-37.6181 35.5108 -4.90953 1.75922 -0.697696 -1.78202)
(-46.4022 20.1682 -6.33079 -3.26491 -0.644114 -1.65691)
(-26.0671 39.4195 -1.24808 -89.4145 -0.354398 -7.59464)
(2.63557 63.8755 -2.44295 -45.0552 -0.813739 -7.23359)
(-3.14949 70.0913 -2.94441 -44.1782 -1.08136 -6.11853)
(-5.74185 66.5424 -3.1704 -32.7053 -1.03946 -5.05998)
(-8.47763 59.1846 -3.33412 -24.2508 -0.840213 -4.33391)
(-10.2354 48.9477 -3.56627 -17.0058 -0.625198 -3.95778)
(-11.6754 36.618 -4.04751 -11.6384 -0.458792 -3.86584)
(-9.04726 19.6671 -5.39064 -4.67128 -0.291267 -3.7593)
(-65.9727 44.9833 -1.16503 -290.651 -0.290623 -6.51858)
(41.0343 23.1497 -2.43739 -119.654 -0.759001 -6.58237)
(13.9771 34.9249 -3.03252 -131.453 -1.05521 -5.70613)
(13.767 32.422 -3.31516 -92.1313 -1.04984 -4.86108)
(7.96352 29.6903 -3.49169 -64.2428 -0.860428 -4.27031)
(5.02552 24.6797 -3.71451 -38.8874 -0.61837 -3.94615)
(3.71164 18.3012 -4.16193 -20.6994 -0.364814 -3.80537)
(8.54942 8.99969 -5.38657 -7.15321 -0.0419374 -3.72727)
(-3.81424 0.261059 0.282839 -416.992 -48.7459 -133.141)
(-3.07007 0.582413 0.515889 -207.948 8.29629 -27.8442)
(-2.13293 0.800905 0.537788 -199.907 4.75217 -41.1893)
(-1.41756 0.825473 0.509347 -139.409 9.3154 -26.3126)
(-0.867235 0.728166 0.529128 -93.1584 9.38664 -19.6472)
(-0.30792 0.583022 0.637905 -53.3028 8.80568 -13.7166)
(0.668736 0.348598 0.846888 -25.561 6.98297 -10.8786)
(3.57475 -0.71307 1.10042 -11.3207 2.69427 -10.7495)
(-4.42721 0.112969 -0.0645668 -405.205 -33.3395 -139.024)
(-4.39501 0.309273 -0.0997833 -232.263 -1.12907 -47.1657)
(-4.08972 0.478156 -0.165158 -200.631 8.09023 -41.6713)
(-3.75396 0.547658 -0.215192 -141.942 12.9512 -29.4701)
(-3.41195 0.54453 -0.206872 -93.1546 14.2843 -22.14)
(-2.97875 0.523601 -0.131489 -52.8944 13.4863 -16.9346)
(-2.05825 0.451018 -0.0062155 -24.4688 10.6953 -14.0916)
(0.966225 -0.428521 0.117063 -11.2793 5.25595 -14.2032)
(-4.75699 0.0483309 -0.124762 -412.171 -18.8875 -151.733)
(-4.91331 0.182413 -0.195585 -231.013 -1.51545 -63.7736)
(-4.78979 0.331537 -0.23269 -201.387 5.70819 -54.0215)
(-4.58189 0.435903 -0.244003 -142.688 10.0846 -37.2903)
(-4.29025 0.502405 -0.21215 -93.2794 11.7868 -25.8952)
(-3.83758 0.565911 -0.139525 -52.646 11.4887 -17.4935)
(-2.85209 0.576543 -0.0555651 -23.8603 9.40316 -12.0102)
(0.00106926 -0.141675 -0.0246381 -9.69179 4.60831 -9.04581)
(-4.99091 0.0232749 -0.118643 -415.613 -10.1181 -159.644)
(-5.20115 0.126895 -0.185513 -229.566 -0.851262 -75.7728)
(-5.15058 0.267113 -0.202167 -200.882 3.79465 -64.5027)
(-4.99483 0.397345 -0.191196 -142.522 6.94437 -44.6227)
(-4.71108 0.513685 -0.150407 -93.106 8.46111 -29.7987)
(-4.22642 0.635109 -0.0894558 -52.3739 8.52418 -18.3856)
(-3.19344 0.702216 -0.0378535 -23.2516 7.19607 -10.3357)
(-0.424132 0.085921 -0.0436483 -8.68282 3.61524 -5.18158)
(-5.16444 0.0132134 -0.0939647 -416.238 -5.20908 -163.751)
(-5.39373 0.103779 -0.146923 -228.527 -0.317984 -83.1208)
(-5.37487 0.242964 -0.152093 -200.089 2.53177 -71.3957)
(-5.23993 0.393163 -0.133168 -141.916 4.57686 -49.8402)
(-4.95044 0.544092 -0.0951916 -92.6213 5.6919 -32.8483)
(-4.43789 0.70279 -0.0501994 -51.8795 5.87659 -19.3)
(-3.38448 0.80229 -0.0233707 -22.5482 5.07544 -9.36526)
(-0.68787 0.250579 -0.0499618 -7.82653 2.57538 -2.73785)
(-5.28358 0.00973389 -0.0647057 -415.671 -2.54869 -165.711)
(-5.51885 0.0962431 -0.100792 -227.744 -0.0369115 -87.325)
(-5.51238 0.238263 -0.100341 -199.359 1.6369 -75.5177)
(-5.38402 0.402949 -0.0821979 -141.27 2.87524 -53.114)
(-5.08672 0.575955 -0.0532065 -92.0514 3.59937 -34.8871)
(-4.55634 0.756339 -0.0241592 -51.331 3.7698 -20.0365)
(-3.49746 0.873363 -0.0134083 -21.9009 3.3039 -8.91626)
(-0.864268 0.362299 -0.0438159 -7.21127 1.68945 -1.4834)
(-5.35685 0.00893798 -0.0368676 -414.892 -1.12553 -166.566)
(-5.59361 0.0951709 -0.0570714 -227.195 0.0517329 -89.5561)
(-5.59146 0.240678 -0.0552301 -198.823 0.927129 -77.7761)
(-5.46433 0.414679 -0.0429456 -140.776 1.58558 -54.9673)
(-5.16133 0.600326 -0.0254298 -91.5942 1.98514 -36.092)
(-4.62181 0.792122 -0.00974317 -50.8925 2.09369 -20.527)
(-3.56443 0.917718 -0.00654413 -21.4229 1.8496 -8.7449)
(-0.977377 0.43084 -0.0302215 -6.80751 0.949401 -0.913727)
(-5.39047 0.00910386 -0.0118142 -414.4 -0.313868 -166.874)
(-5.62681 0.0957352 -0.0181851 -226.907 0.0291975 -90.5135)
(-5.62594 0.243191 -0.0173386 -198.54 0.301074 -78.7657)
(-5.49912 0.421618 -0.0131093 -140.515 0.507142 -55.7957)
(-5.19405 0.613043 -0.00737263 -91.3471 0.634198 -36.6447)
(-4.65128 0.810103 -0.00248537 -50.6557 0.670671 -20.769)
(-3.59348 0.938318 -0.00181432 -21.1725 0.594485 -8.69549)
(-1.03866 0.46296 -0.0110154 -6.61361 0.305736 -0.712757)
(-58.7271 9.90867 -1.95709 1.02442 -2.56357 2.14781)
(-53.3048 9.46459 1.51802 2.81718 -2.139 6.25453)
(-54.313 9.47827 0.846689 4.26285 -1.68301 1.08836)
(-54.9254 9.59403 0.280245 5.39401 -1.31708 -1.23981)
(-55.8603 9.71894 -0.102264 6.2337 -1.00393 -2.57545)
(-56.5688 9.8256 -0.210637 6.82624 -0.715679 -2.97247)
(-57.0452 9.9028 -0.181238 7.18856 -0.439146 -3.0184)
(-57.3134 9.9405 -0.0715759 7.28847 -0.151322 -3.02421)
(-50.8138 7.02644 -3.9452 -1.23337 -0.927406 -6.84789)
(-45.8006 6.08851 -1.77803 -0.340746 -0.803289 -5.96107)
(-46.1536 5.85725 -1.50143 0.657589 -0.619436 -6.26112)
(-47.4751 5.79975 -1.73365 1.48487 -0.48777 -6.22504)
(-48.8039 5.79311 -1.75057 2.09564 -0.381898 -6.28718)
(-49.7928 5.80297 -1.44934 2.52428 -0.278577 -6.26774)
(-50.42 5.81947 -0.941349 2.80283 -0.169961 -6.21861)
(-50.701 5.83852 -0.325547 2.9634 -0.0568223 -6.1681)
(-5.94921 5.84944 -4.0555 -3.0051 -0.204998 -1.04151)
(-7.52409 4.73727 -3.61851 -2.37928 -0.217573 -2.05506)
(-9.34548 4.36302 -3.29264 -1.65609 -0.177521 0.0111609)
(-11.1466 4.19128 -3.02889 -1.07185 -0.156295 1.80236)
(-12.534 4.09505 -2.61808 -0.652157 -0.138046 2.8829)
(-13.4918 4.03689 -2.00463 -0.364707 -0.109228 3.4213)
(-14.0869 4.00328 -1.25225 -0.183306 -0.0674939 3.6518)
(-14.3645 3.98647 -0.425569 -0.0800319 -0.0216566 3.73672)
(11.609 5.59194 -3.3333 -2.96397 0.228367 -3.43079)
(8.01607 4.47202 -2.79506 -2.49538 0.0361455 -5.77663)
(6.73801 4.03913 -2.56222 -2.0333 -0.0341143 -0.789454)
(5.45197 3.81024 -2.18003 -1.6561 -0.0677885 2.74431)
(4.54958 3.66483 -1.78434 -1.39371 -0.0805394 4.9108)
(3.88008 3.56815 -1.31894 -1.2206 -0.0731832 5.94019)
(3.44369 3.50716 -0.809704 -1.11744 -0.0497024 6.3532)
(3.22375 3.47434 -0.273495 -1.07152 -0.0172252 6.47608)
)
;
    }
    symmetry
    {
        type            symmetryPlane;
    }
    bottom
    {
        type            calculated;
        value           nonuniform List<symmTensor> 
32
(
(210.665 75.0908 0 315.998 85.9801 210.665)
(206.748 84.7954 0 310.123 42.9244 206.748)
(213.056 89.3077 0 319.585 20.9157 213.056)
(216.901 90.9992 0 325.352 9.62568 216.901)
(218.743 91.5725 0 328.115 4.01478 218.743)
(219.567 91.736 0 329.35 1.40918 219.567)
(219.899 91.766 0 329.848 0.36029 219.899)
(220.009 91.7621 0 330.014 0.0481792 220.009)
(40.213 31.7176 0 60.3196 25.5735 40.213)
(42.2294 42.5455 0 63.3441 13.2643 42.2294)
(45.2088 44.4316 0 67.8132 6.20794 45.2088)
(46.701 44.2137 0 70.0515 2.50807 46.701)
(47.5078 43.6212 0 71.2617 0.734949 47.5078)
(47.969 43.1042 0 71.9536 0.0130154 47.969)
(48.227 42.7601 0 72.3405 -0.161797 48.227)
(48.3439 42.592 0 72.5158 -0.0789552 48.3439)
(-58.5501 28.1785 0 -87.8252 -31.1607 -58.5501)
(-52.3855 38.9295 0 -78.5783 -18.1366 -52.3855)
(-52.8265 40.2393 0 -79.2398 -10.7128 -52.8265)
(-53.0639 39.5347 0 -79.5958 -6.31609 -53.0639)
(-53.0165 38.5974 0 -79.5247 -3.67382 -53.0165)
(-52.8432 37.8477 0 -79.2647 -2.06174 -52.8432)
(-52.6675 37.3589 0 -79.0012 -1.03788 -52.6675)
(-52.563 37.1218 0 -78.8445 -0.315149 -52.563)
(-214.163 63.8758 0 -321.245 -95.3872 -214.163)
(-203.906 71.9595 0 -305.859 -51.4642 -203.906)
(-209.387 74.5334 0 -314.08 -27.7474 -209.387)
(-212.198 74.7712 0 -318.297 -14.7146 -212.198)
(-213.032 74.2987 0 -319.548 -7.60318 -213.032)
(-213.002 73.7363 0 -319.503 -3.76512 -213.002)
(-212.731 73.3052 0 -319.097 -1.69024 -212.731)
(-212.532 73.0791 0 -318.798 -0.477449 -212.532)
)
;
    }
}


// ************************************************************************* //
