/*--------------------------------*- C++ -*----------------------------------*\
| =========                 |                                                 |
| \\      /  F ield         | foam-extend: Open Source CFD                    |
|  \\    /   O peration     | Version:     3.1                                |
|   \\  /    A nd           | Web:         http://www.extend-project.de       |
|    \\/     M anipulation  |                                                 |
\*---------------------------------------------------------------------------*/
FoamFile
{
    version     2.0;
    format      ascii;
    class       surfaceScalarField;
    location    "0.2";
    object      meshPhi;
}
// * * * * * * * * * * * * * * * * * * * * * * * * * * * * * * * * * * * * * //

dimensions      [0 3 -1 0 0 0 0];

internalField   nonuniform List<scalar> 
41600
(
4.2491e-08
8.08365e-10
1.57511e-09
-1.62004e-09
8.19404e-08
2.46358e-09
4.69782e-09
-4.83293e-09
1.18092e-07
4.28666e-09
7.83255e-09
-8.06114e-09
1.51936e-07
6.49601e-09
1.11546e-08
-1.14862e-08
1.8432e-07
9.37781e-09
1.48785e-08
-1.53301e-08
2.15978e-07
1.33046e-08
1.92226e-08
-1.98188e-08
2.47533e-07
1.8789e-08
2.4425e-08
-2.51994e-08
2.79489e-07
2.65575e-08
3.07607e-08
-3.17577e-08
3.1219e-07
3.76519e-08
3.85648e-08
-3.98425e-08
3.45762e-07
5.35776e-08
4.82679e-08
-4.99041e-08
3.80035e-07
7.65255e-08
6.04612e-08
-6.25632e-08
4.14482e-07
1.09697e-07
7.60152e-08
-7.87386e-08
4.48259e-07
1.57685e-07
9.62674e-08
-9.98598e-08
4.80299e-07
2.26192e-07
1.23068e-07
-1.28022e-07
5.07884e-07
3.15884e-07
1.56746e-07
-1.64856e-07
6.21689e-07
2.35568e-07
-3.19758e-07
1.267e-07
1.52832e-09
4.67845e-09
-4.81191e-09
2.44312e-07
4.65375e-09
1.39513e-08
-1.43527e-08
3.52057e-07
8.08409e-09
2.3253e-08
-2.39318e-08
4.52874e-07
1.22216e-08
3.30988e-08
-3.40832e-08
5.49281e-07
1.75922e-08
4.41186e-08
-4.54583e-08
6.43455e-07
2.48738e-08
5.69503e-08
-5.87177e-08
7.37251e-07
3.49914e-08
7.22831e-08
-7.45766e-08
8.32166e-07
4.92392e-08
9.09032e-08
-9.38522e-08
9.29234e-07
6.94388e-08
1.13748e-07
-1.17522e-07
1.02881e-06
9.81496e-08
1.41984e-07
-1.46809e-07
1.13029e-06
1.38926e-07
1.77134e-07
-1.83317e-07
1.23175e-06
1.96555e-07
2.21269e-07
-2.29255e-07
1.32966e-06
2.7692e-07
2.77218e-07
-2.87701e-07
1.41846e-06
3.84934e-07
3.48085e-07
-3.62376e-07
1.48744e-06
5.13705e-07
4.31731e-07
-4.54117e-07
7.50251e-07
5.82368e-07
-7.20293e-07
2.08618e-07
2.08363e-09
7.64479e-09
-7.86297e-09
4.02213e-07
6.33545e-09
2.279e-08
-2.34459e-08
5.79449e-07
1.09742e-08
3.79606e-08
-3.90693e-08
7.45123e-07
1.65249e-08
5.39822e-08
-5.55887e-08
9.03344e-07
2.36698e-08
7.18623e-08
-7.4046e-08
1.05766e-06
3.32768e-08
9.261e-08
-9.54867e-08
1.21112e-06
4.65133e-08
1.17299e-07
-1.21025e-07
1.36619e-06
6.49827e-08
1.47124e-07
-1.51905e-07
1.5246e-06
9.08839e-08
1.8346e-07
-1.89562e-07
1.68694e-06
1.27192e-07
2.27915e-07
-2.35687e-07
1.85213e-06
1.77794e-07
2.82389e-07
-2.92304e-07
2.01645e-06
2.47407e-07
3.49071e-07
-3.61798e-07
2.17244e-06
3.40705e-07
4.30149e-07
-4.46701e-07
2.30739e-06
4.59e-07
5.26209e-07
-5.48367e-07
2.40092e-06
5.88856e-07
6.29249e-07
-6.61952e-07
8.19198e-07
7.64016e-07
-8.74156e-07
2.86808e-07
2.42255e-09
1.03934e-08
-1.06901e-08
5.52839e-07
7.35e-09
3.09699e-08
-3.18617e-08
7.96154e-07
1.26785e-08
5.15387e-08
-5.3045e-08
1.02325e-06
1.89791e-08
7.31908e-08
-7.53706e-08
1.2397e-06
2.69876e-08
9.72543e-08
-1.00212e-07
1.45031e-06
3.76247e-08
1.2504e-07
-1.2893e-07
1.65924e-06
5.21064e-08
1.57916e-07
-1.62941e-07
1.86989e-06
7.20634e-08
1.97355e-07
-2.03782e-07
2.08473e-06
9.96693e-08
2.44975e-07
-2.53143e-07
2.30477e-06
1.37746e-07
3.02522e-07
-3.12873e-07
2.52871e-06
1.89763e-07
3.71785e-07
-3.84901e-07
2.75151e-06
2.59517e-07
4.54289e-07
-4.70974e-07
2.96232e-06
3.49993e-07
5.5045e-07
-5.71881e-07
3.14206e-06
4.6015e-07
6.57284e-07
-6.85401e-07
3.2624e-06
5.75532e-07
7.62206e-07
-8.01699e-07
7.74913e-07
8.77422e-07
-9.84735e-07
3.59968e-07
2.52409e-09
1.28575e-08
-1.32249e-08
6.93658e-07
7.63475e-09
3.82905e-08
-3.93939e-08
9.98457e-07
1.30921e-08
6.36478e-08
-6.55095e-08
1.28236e-06
1.94343e-08
9.02301e-08
-9.292e-08
1.55222e-06
2.73493e-08
1.19618e-07
-1.23261e-07
1.81395e-06
3.76792e-08
1.53346e-07
-1.58122e-07
2.07268e-06
5.15099e-08
1.92975e-07
-1.99126e-07
2.33269e-06
7.02595e-08
2.40133e-07
-2.47968e-07
2.59725e-06
9.57598e-08
2.96517e-07
-3.06424e-07
2.86803e-06
1.30296e-07
3.63806e-07
-3.76278e-07
3.14421e-06
1.76532e-07
4.43444e-07
-4.59112e-07
3.42066e-06
2.37162e-07
5.36108e-07
-5.55816e-07
3.68522e-06
3.13936e-07
6.40554e-07
-6.655e-07
3.91491e-06
4.05155e-07
7.51224e-07
-7.83321e-07
4.0736e-06
4.98177e-07
8.53446e-07
-8.97056e-07
6.65041e-07
9.52535e-07
-1.05363e-06
4.26976e-07
2.39957e-09
1.49881e-08
-1.54167e-08
8.22492e-07
7.22693e-09
4.46055e-08
-4.58918e-08
1.18319e-06
1.22893e-08
7.40433e-08
-7.62109e-08
1.5183e-06
1.80243e-08
1.04751e-07
-1.07877e-07
1.83572e-06
2.49879e-08
1.38489e-07
-1.42712e-07
2.14228e-06
3.38392e-08
1.76935e-07
-1.82455e-07
2.44387e-06
4.54008e-08
2.21751e-07
-2.28832e-07
2.74554e-06
6.07113e-08
2.74615e-07
-2.8359e-07
3.0513e-06
8.10619e-08
3.37187e-07
-3.48469e-07
3.36371e-06
1.07996e-07
4.10989e-07
-4.25082e-07
3.68304e-06
1.43239e-07
4.97112e-07
-5.14639e-07
4.0056e-06
1.88494e-07
5.95618e-07
-6.17376e-07
4.32073e-06
2.44939e-07
7.04361e-07
-7.31444e-07
4.60522e-06
3.11755e-07
8.16753e-07
-8.5091e-07
4.81536e-06
3.80034e-07
9.17657e-07
-9.63062e-07
5.14587e-07
1.00982e-06
-1.10863e-06
4.86918e-07
2.08853e-09
1.67556e-08
-1.7235e-08
9.37585e-07
6.25111e-09
4.98275e-08
-5.12653e-08
1.34781e-06
1.04998e-08
8.25835e-08
-8.50028e-08
1.72778e-06
1.51255e-08
1.16561e-07
-1.20043e-07
2.08617e-06
2.04955e-08
1.53628e-07
-1.58317e-07
2.43043e-06
2.70219e-08
1.95526e-07
-2.01635e-07
2.76699e-06
3.51897e-08
2.43942e-07
-2.51744e-07
3.10141e-06
4.5575e-08
3.00514e-07
-3.10352e-07
3.43823e-06
5.88443e-08
3.66796e-07
-3.7908e-07
3.78077e-06
7.57314e-08
4.44115e-07
-4.59332e-07
4.13055e-06
9.70001e-08
5.33292e-07
-5.52014e-07
4.48611e-06
1.23427e-07
6.34109e-07
-6.57018e-07
4.84051e-06
1.55891e-07
7.44339e-07
-7.7231e-07
5.17545e-06
1.95418e-07
8.57901e-07
-8.92333e-07
5.44643e-06
2.39396e-07
9.60796e-07
-1.00558e-06
3.48005e-07
1.05748e-06
-1.15514e-06
5.39122e-07
1.81498e-08
-1.86693e-08
1.65091e-09
1.03767e-06
5.39291e-08
-5.54859e-08
4.89402e-09
1.49056e-06
8.92309e-08
-9.18462e-08
8.06176e-09
1.90861e-06
1.25623e-07
-1.29377e-07
1.12771e-08
2.30096e-06
1.6501e-07
-1.70053e-07
1.46951e-08
2.67539e-06
2.09136e-07
-2.15678e-07
1.84588e-08
3.03858e-06
2.59634e-07
-2.6795e-07
2.27005e-08
3.39621e-06
3.18039e-07
-3.28465e-07
2.75282e-08
3.75298e-06
3.85736e-07
-3.98667e-07
3.29956e-08
4.11245e-06
4.63827e-07
-4.79713e-07
3.90554e-08
4.47669e-06
5.52888e-07
-5.72227e-07
4.55033e-08
4.84556e-06
6.52545e-07
-6.75881e-07
5.19321e-08
5.21502e-06
7.6076e-07
-7.88715e-07
5.77053e-08
5.57268e-06
8.72461e-07
-9.0597e-07
6.15636e-08
5.88505e-06
9.76284e-07
-1.01827e-06
5.65294e-08
1.09252e-06
-1.18863e-06
1.53272e-07
4.31847e-08
9.2156e-10
1.47242e-09
8.32912e-08
2.80642e-09
4.39067e-09
1.20076e-07
4.87567e-09
7.31768e-09
1.54565e-07
7.37203e-09
1.04157e-08
1.87638e-07
1.06128e-08
1.38831e-08
2.20055e-07
1.5009e-08
1.79204e-08
2.52463e-07
2.11252e-08
2.27436e-08
2.85384e-07
2.97587e-08
2.85975e-08
3.19177e-07
4.20516e-08
3.57707e-08
3.53983e-07
5.96511e-08
4.46156e-08
3.89664e-07
8.49438e-08
5.55766e-08
4.25787e-07
1.21378e-07
6.9224e-08
4.61766e-07
1.73759e-07
8.62418e-08
4.97066e-07
2.47598e-07
1.07096e-07
5.29464e-07
3.41993e-07
1.30254e-07
5.66155e-07
1.69968e-07
1.28761e-07
1.74682e-09
4.37344e-09
2.48326e-07
5.31502e-09
1.30392e-08
3.57951e-07
9.2186e-09
2.17245e-08
4.60681e-07
1.39055e-08
3.09065e-08
5.59127e-07
1.99591e-08
4.11676e-08
6.55544e-07
2.8129e-08
5.30936e-08
7.51856e-07
3.94341e-08
6.73103e-08
8.49614e-07
5.52949e-08
8.45173e-08
9.49882e-07
7.77072e-08
1.05523e-07
1.05304e-06
1.09466e-07
1.3128e-07
1.1585e-06
1.5443e-07
1.62925e-07
1.26448e-06
2.17714e-07
2.01773e-07
1.36784e-06
3.05348e-07
2.49105e-07
1.46389e-06
4.21572e-07
3.05015e-07
1.54278e-06
5.57156e-07
3.63963e-07
7.32009e-07
4.44035e-07
2.11989e-07
2.39257e-09
7.1464e-09
4.08773e-07
7.2694e-09
2.13001e-08
5.89079e-07
1.25731e-08
3.54656e-08
7.57867e-07
1.88898e-08
5.04073e-08
9.19398e-07
2.69789e-08
6.70571e-08
1.07735e-06
3.78024e-08
8.6342e-08
1.23488e-06
5.2648e-08
1.09237e-07
1.39452e-06
7.32766e-08
1.36808e-07
1.55803e-06
1.02097e-07
1.7024e-07
1.726e-06
1.42352e-07
2.10842e-07
1.89722e-06
1.98247e-07
2.60006e-07
2.06786e-06
2.74771e-07
3.18997e-07
2.23036e-06
3.76556e-07
3.883e-07
2.3721e-06
5.03882e-07
4.65663e-07
2.47308e-06
6.41206e-07
5.41016e-07
8.05453e-07
6.19554e-07
2.91396e-07
2.80206e-09
9.71579e-09
5.61763e-07
8.49557e-09
2.89453e-08
8.09238e-07
1.46335e-08
4.81516e-08
1.04055e-06
2.18572e-08
6.83448e-08
1.26145e-06
3.09906e-08
9.07536e-08
1.47695e-06
4.30587e-08
1.16584e-07
1.69132e-06
5.94062e-08
1.47077e-07
1.90806e-06
8.18282e-08
1.83551e-07
2.12965e-06
1.12707e-07
2.274e-07
2.35699e-06
1.5512e-07
2.80041e-07
2.58852e-06
2.12814e-07
3.42735e-07
2.81863e-06
2.89785e-07
4.1613e-07
3.03562e-06
3.88871e-07
4.99205e-07
3.21932e-06
5.08025e-07
5.86967e-07
3.34115e-06
6.31441e-07
6.66322e-07
7.70085e-07
7.379e-07
3.6565e-07
2.95132e-09
1.20193e-08
7.047e-07
8.92185e-09
3.57874e-08
1.01463e-06
1.52801e-08
5.94654e-08
1.3037e-06
2.26374e-08
8.42572e-08
1.57901e-06
3.17719e-08
1.11626e-07
1.84668e-06
4.36282e-08
1.42983e-07
2.112e-06
5.94142e-08
1.7975e-07
2.37935e-06
8.06977e-08
2.23383e-07
2.652e-06
1.09494e-07
2.75348e-07
2.93146e-06
1.48304e-07
3.37003e-07
3.21644e-06
2.0002e-07
4.09303e-07
3.50095e-06
2.67494e-07
4.92178e-07
3.77125e-06
3.52365e-07
5.8327e-07
4.00219e-06
4.52196e-07
6.75686e-07
4.15635e-06
5.53768e-07
7.55016e-07
6.63668e-07
8.19437e-07
4.33605e-07
2.85083e-09
1.40111e-08
8.35361e-07
8.58348e-09
4.16898e-08
1.202e-06
1.45852e-08
6.91784e-08
1.54309e-06
2.1364e-08
9.78189e-08
1.86676e-06
2.95602e-08
1.29241e-07
2.18009e-06
3.99243e-08
1.64988e-07
2.48916e-06
5.33823e-08
2.06578e-07
2.79912e-06
7.1094e-08
2.55514e-07
3.11398e-06
9.44937e-08
3.13236e-07
3.43612e-06
1.25291e-07
3.80968e-07
3.76529e-06
1.6539e-07
4.59379e-07
4.09677e-06
2.16651e-07
5.4791e-07
4.41795e-06
2.80279e-07
6.43531e-07
4.70263e-06
3.55136e-07
7.38645e-07
4.90397e-06
4.32457e-07
8.18569e-07
5.14484e-07
8.80397e-07
4.94331e-07
2.54155e-09
1.56634e-08
9.51959e-07
7.60969e-09
4.65709e-08
1.36879e-06
1.27882e-08
7.71585e-08
1.75535e-06
1.84305e-08
1.0885e-07
2.1206e-06
2.49772e-08
1.43373e-07
2.47222e-06
3.29146e-08
1.82336e-07
2.81687e-06
4.28061e-08
2.27277e-07
3.16019e-06
5.5313e-08
2.79671e-07
3.50675e-06
7.11982e-08
3.40868e-07
3.85971e-06
9.13049e-08
4.11937e-07
4.22009e-06
1.16521e-07
4.93342e-07
4.58548e-06
1.47766e-07
5.84349e-07
4.9471e-06
1.8609e-07
6.81967e-07
5.28349e-06
2.32728e-07
7.79144e-07
5.54498e-06
2.86222e-07
8.62034e-07
3.47205e-07
9.2913e-07
5.47148e-07
1.69669e-08
2.08637e-09
1.05322e-06
5.0405e-08
6.19667e-09
1.51321e-06
8.33707e-08
1.02449e-08
1.93828e-06
1.17315e-07
1.44056e-08
2.33787e-06
1.54003e-07
1.88929e-08
2.72003e-06
1.95041e-07
2.3905e-08
3.09161e-06
2.41926e-07
2.96248e-08
3.45842e-06
2.96039e-07
3.62094e-08
3.82517e-06
3.58592e-07
4.37614e-08
4.19528e-06
4.3047e-07
5.22812e-08
4.57041e-06
5.11963e-07
6.16109e-08
4.94963e-06
6.0228e-07
7.13867e-08
5.32745e-06
6.9874e-07
8.09895e-08
5.68889e-06
7.9535e-07
8.90612e-08
5.9957e-06
8.80414e-07
8.84286e-08
9.65068e-07
1.44036e-07
4.37924e-08
1.02152e-09
1.31642e-09
8.44762e-08
3.10798e-09
3.92477e-09
1.21818e-07
5.38968e-09
6.53876e-09
1.56871e-07
8.12719e-09
9.3017e-09
1.90538e-07
1.16594e-08
1.23883e-08
2.236e-07
1.6421e-08
1.59729e-08
2.56718e-07
2.30035e-08
2.02399e-08
2.90425e-07
3.22339e-08
2.53908e-08
3.25083e-07
4.52812e-08
3.165e-08
3.60834e-07
6.38018e-08
3.92665e-08
3.97549e-07
9.01309e-08
4.85054e-08
4.34831e-07
1.27491e-07
5.96153e-08
4.72173e-07
1.80021e-07
7.27149e-08
5.09102e-07
2.51636e-07
8.74484e-08
5.43147e-07
3.39212e-07
1.02034e-07
5.55608e-07
1.22311e-07
1.30568e-07
1.93984e-09
3.91011e-09
2.51846e-07
5.89694e-09
1.16557e-08
3.63125e-07
1.02091e-08
1.94123e-08
4.67525e-07
1.53576e-08
2.76014e-08
5.6773e-07
2.1966e-08
3.67361e-08
6.66055e-07
3.08272e-08
4.73262e-08
7.64463e-07
4.3008e-08
5.99058e-08
8.64531e-07
5.99791e-08
7.5052e-08
9.67325e-07
8.37774e-08
9.33942e-08
1.07321e-06
1.17199e-07
1.15604e-07
1.18158e-06
1.63978e-07
1.42347e-07
1.29066e-06
2.28776e-07
1.7413e-07
1.3974e-06
3.16384e-07
2.10906e-07
1.49719e-06
4.28337e-07
2.51054e-07
1.57975e-06
5.52131e-07
2.89096e-07
6.99946e-07
3.31235e-07
2.14943e-07
2.66568e-09
6.38937e-09
4.14529e-07
8.09184e-09
1.90403e-08
5.97531e-07
1.39699e-08
3.16915e-08
7.6904e-07
2.0931e-08
4.50184e-08
9.3343e-07
2.97873e-08
5.98419e-08
1.09447e-06
4.15569e-08
7.697e-08
1.25538e-06
5.75868e-08
9.72363e-08
1.41873e-06
7.96952e-08
1.21522e-07
1.58626e-06
1.10329e-07
1.50751e-07
1.75846e-06
1.52704e-07
1.85843e-07
1.934e-06
2.10815e-07
2.27572e-07
2.10886e-06
2.89006e-07
2.7623e-07
2.27526e-06
3.90296e-07
3.30887e-07
2.42037e-06
5.11727e-07
3.87898e-07
2.5241e-06
6.34314e-07
4.38508e-07
7.64019e-07
4.82725e-07
2.95417e-07
3.13776e-09
8.6867e-09
5.69593e-07
9.50501e-09
2.58749e-08
8.20726e-07
1.63429e-08
4.30287e-08
1.05571e-06
2.43439e-08
6.10408e-08
1.28047e-06
3.43916e-08
8.09945e-08
1.50012e-06
4.75714e-08
1.03942e-07
1.719e-06
6.52881e-08
1.30947e-07
1.94066e-06
8.93882e-08
1.63102e-07
2.16751e-06
1.22275e-07
2.01499e-07
2.4003e-06
1.66961e-07
2.47125e-07
2.6371e-06
2.26916e-07
3.0061e-07
2.87179e-06
3.05378e-07
3.61706e-07
3.09192e-06
4.03438e-07
4.28294e-07
3.27668e-06
5.15752e-07
4.94763e-07
3.39787e-06
6.23298e-07
5.50366e-07
7.26752e-07
5.93744e-07
3.7063e-07
3.32951e-09
1.07464e-08
7.14391e-07
1.0057e-08
3.19919e-08
1.02883e-06
1.71954e-08
5.31405e-08
1.32242e-06
2.54084e-08
7.52565e-08
1.60244e-06
3.5534e-08
9.96306e-08
1.87516e-06
4.85742e-08
1.27496e-07
2.14595e-06
6.57884e-08
1.60074e-07
2.41921e-06
8.87809e-08
1.98578e-07
2.69812e-06
1.19563e-07
2.44159e-07
2.98393e-06
1.60538e-07
2.97754e-07
3.27482e-06
2.14282e-07
3.59748e-07
3.5639e-06
2.82877e-07
4.29339e-07
3.83616e-06
3.6628e-07
5.03438e-07
4.06521e-06
4.58992e-07
5.75143e-07
4.21458e-06
5.44926e-07
6.32819e-07
6.21285e-07
6.74609e-07
4.39416e-07
3.2508e-09
1.25275e-08
8.4666e-07
9.78154e-09
3.72693e-08
1.21854e-06
1.6598e-08
6.18227e-08
1.56484e-06
2.42575e-08
8.73745e-08
1.89393e-06
3.34552e-08
1.15363e-07
2.21302e-06
4.499e-08
1.47141e-07
2.5283e-06
5.98249e-08
1.84013e-07
2.84493e-06
7.91355e-08
2.27237e-07
3.1668e-06
1.04327e-07
2.77952e-07
3.49596e-06
1.36985e-07
3.36993e-07
3.8315e-06
1.78696e-07
4.04538e-07
4.16756e-06
2.30604e-07
4.79444e-07
4.48978e-06
2.92426e-07
5.58185e-07
4.77013e-06
3.60342e-07
6.33434e-07
4.9629e-06
4.23025e-07
6.93301e-07
4.74265e-07
7.35691e-07
5.00831e-07
2.94376e-09
1.40053e-08
9.64586e-07
8.81164e-09
4.1634e-08
1.38724e-06
1.4798e-08
6.8957e-08
1.77957e-06
2.12991e-08
9.72333e-08
2.15076e-06
2.88019e-08
1.27991e-07
2.50866e-06
3.78282e-08
1.62637e-07
2.86004e-06
4.89613e-08
2.02502e-07
3.21053e-06
6.28567e-08
2.48824e-07
3.56459e-06
8.02248e-08
3.02674e-07
3.925e-06
1.0177e-07
3.64781e-07
4.29212e-06
1.28076e-07
4.35189e-07
4.66225e-06
1.59441e-07
5.12676e-07
5.02466e-06
1.9568e-07
5.93842e-07
5.35548e-06
2.35797e-07
6.71852e-07
5.60566e-06
2.76054e-07
7.35339e-07
3.0931e-07
7.83615e-07
5.54191e-07
1.51712e-08
2.47376e-09
1.06689e-06
4.50632e-08
7.35147e-09
1.53313e-06
7.45122e-08
1.21662e-08
1.96438e-06
1.04802e-07
1.71268e-08
2.37027e-06
1.37493e-07
2.24832e-08
2.75903e-06
1.73997e-07
2.84553e-08
3.13762e-06
2.15607e-07
3.52292e-08
3.51186e-06
2.63491e-07
4.29369e-08
3.88633e-06
3.18612e-07
5.16103e-08
4.26409e-06
3.81569e-07
6.11025e-08
4.64616e-06
4.52302e-07
7.0975e-08
5.03042e-06
5.29619e-07
8.034e-08
5.40947e-06
6.10466e-07
8.76105e-08
5.76585e-06
6.88908e-07
8.97512e-08
6.06105e-06
7.55047e-07
7.76412e-08
8.18521e-07
1.08309e-07
4.43084e-08
1.10579e-09
1.11334e-09
8.54826e-08
3.36111e-09
3.31873e-09
1.23296e-07
5.81726e-09
5.52709e-09
1.58824e-07
8.74651e-09
7.85806e-09
1.92986e-07
1.25003e-08
1.04568e-08
2.26577e-07
1.7524e-08
1.34661e-08
2.60268e-07
2.44156e-08
1.7033e-08
2.94593e-07
3.39994e-08
2.13116e-08
3.29915e-07
4.74222e-08
2.64605e-08
3.66371e-07
6.62772e-08
3.26323e-08
4.03832e-07
9.27551e-08
3.9946e-08
4.41923e-07
1.29792e-07
4.84298e-08
4.8019e-07
1.81047e-07
5.79061e-08
5.18221e-07
2.49932e-07
6.7777e-08
5.53449e-07
3.33738e-07
7.66606e-08
5.52845e-07
8.7335e-08
1.32101e-07
2.10266e-09
3.30694e-09
2.54836e-07
6.38561e-09
9.85599e-09
3.67515e-07
1.10333e-08
1.64091e-08
4.73323e-07
1.65491e-08
2.33182e-08
5.74994e-07
2.35795e-08
3.10096e-08
6.74882e-07
3.2936e-08
3.99013e-08
7.74978e-07
4.56955e-08
5.04198e-08
8.76864e-07
6.33196e-08
6.3007e-08
9.81594e-07
8.77966e-08
7.81087e-08
1.0895e-06
1.21793e-07
9.61349e-08
1.19997e-06
1.68756e-07
1.17366e-07
1.31122e-06
2.32786e-07
1.41765e-07
1.42031e-06
3.17741e-07
1.68615e-07
1.52278e-06
4.24116e-07
1.9592e-07
1.60823e-06
5.39867e-07
2.19584e-07
6.79439e-07
2.42298e-07
2.17452e-07
2.89616e-09
5.40384e-09
4.19418e-07
8.78287e-09
1.61007e-08
6.04705e-07
1.5133e-08
2.67895e-08
7.78507e-07
2.26069e-08
3.80341e-08
9.45278e-07
3.20468e-08
5.05174e-08
1.10886e-06
4.44933e-08
6.49023e-08
1.27248e-06
6.1302e-08
8.18563e-08
1.43874e-06
8.42704e-08
1.02056e-07
1.60933e-06
1.15766e-07
1.26158e-07
1.78466e-06
1.58811e-07
1.54718e-07
1.96329e-06
2.16989e-07
1.88011e-07
2.14108e-06
2.93863e-07
2.25693e-07
2.31026e-06
3.91182e-07
2.66208e-07
2.45818e-06
5.04581e-07
3.05953e-07
2.56489e-06
6.15557e-07
3.38598e-07
7.30039e-07
3.63784e-07
2.98831e-07
3.42123e-09
7.34699e-09
5.76244e-07
1.03537e-08
2.18807e-08
8.30479e-07
1.77674e-08
3.63745e-08
1.06857e-06
2.63875e-08
5.1574e-08
1.29654e-06
3.71304e-08
6.83809e-08
1.51958e-06
5.11035e-08
8.76597e-08
1.7421e-06
6.97135e-08
1.10265e-07
1.96761e-06
9.47713e-08
1.3704e-07
2.19845e-06
1.28571e-07
1.68763e-07
2.43521e-06
1.73878e-07
2.06021e-07
2.67569e-06
2.33663e-07
2.48945e-07
2.91347e-06
3.10259e-07
2.9674e-07
3.13587e-06
4.03341e-07
3.46948e-07
3.32219e-06
5.06065e-07
3.94587e-07
3.44492e-06
6.00071e-07
4.31973e-07
6.85585e-07
4.58332e-07
3.7486e-07
3.64913e-09
9.08929e-09
7.22625e-07
1.10123e-08
2.70545e-08
1.04089e-06
1.87932e-08
4.49247e-08
1.3383e-06
2.7688e-08
6.35896e-08
1.62224e-06
3.85666e-08
8.41245e-08
1.8991e-06
5.2448e-08
1.07545e-07
2.17428e-06
7.0584e-08
1.34835e-07
2.45216e-06
9.45267e-08
1.66935e-07
2.73579e-06
1.26154e-07
2.04671e-07
3.02616e-06
1.67586e-07
2.48589e-07
3.32106e-06
2.20865e-07
2.98635e-07
3.61301e-06
2.87139e-07
3.5361e-07
3.8865e-06
3.64966e-07
4.10386e-07
4.1152e-06
4.47446e-07
4.63112e-07
4.26396e-06
5.19332e-07
5.0343e-07
5.77441e-07
5.30605e-07
4.44354e-07
3.58921e-09
1.05961e-08
8.56265e-07
1.07909e-08
3.15187e-08
1.23259e-06
1.82792e-08
5.22675e-08
1.5833e-06
2.66409e-08
7.3835e-08
1.91691e-06
3.65984e-08
9.7421e-08
2.24073e-06
4.89602e-08
1.24141e-07
2.56099e-06
6.46708e-08
1.5505e-07
2.88282e-06
8.48387e-08
1.91129e-07
3.20994e-06
1.10718e-07
2.332e-07
3.54408e-06
1.43601e-07
2.81743e-07
3.88379e-06
1.84544e-07
3.3656e-07
4.22242e-06
2.33808e-07
3.96239e-07
4.54486e-06
2.89831e-07
4.57386e-07
4.82298e-06
3.47572e-07
5.13894e-07
5.01293e-06
3.96616e-07
5.57126e-07
4.3057e-07
5.86418e-07
5.06359e-07
3.28454e-09
1.18465e-08
9.75328e-07
9.82581e-09
3.52114e-08
1.40293e-06
1.64793e-08
5.83026e-08
1.80014e-06
2.36657e-08
8.21732e-08
2.17629e-06
3.18926e-08
1.08099e-07
2.53937e-06
4.16828e-08
1.37243e-07
2.89615e-06
5.35905e-08
1.70686e-07
3.25224e-06
6.81932e-08
2.09396e-07
3.6119e-06
8.6043e-08
2.54153e-07
3.97757e-06
1.07556e-07
3.05367e-07
4.34896e-06
1.32826e-07
3.6277e-07
4.72152e-06
1.61366e-07
4.24934e-07
5.0835e-06
1.91887e-07
4.88618e-07
5.41075e-06
2.22349e-07
5.48104e-07
5.65631e-06
2.49848e-07
5.9503e-07
2.67358e-07
6.30055e-07
5.60185e-07
1.28332e-08
2.80255e-09
1.07852e-06
3.81134e-08
8.3275e-09
1.5501e-06
6.30034e-08
1.37761e-08
1.98657e-06
8.85773e-08
1.93756e-08
2.39775e-06
1.1614e-07
2.53891e-08
2.79196e-06
1.46859e-07
3.20293e-08
3.17621e-06
1.8179e-07
3.94448e-08
3.55627e-06
2.21849e-07
4.76834e-08
3.93652e-06
2.67742e-07
5.66208e-08
4.31967e-06
3.19795e-07
6.58444e-08
4.70612e-06
3.77693e-07
7.4486e-08
5.09286e-06
4.40077e-07
8.10072e-08
5.47145e-06
5.04016e-07
8.29445e-08
5.82394e-06
5.64453e-07
7.64547e-08
6.11358e-06
6.13944e-07
5.28543e-08
6.61407e-07
6.89729e-08
4.47273e-08
1.17308e-09
8.70884e-10
8.62991e-08
3.56231e-09
2.5956e-09
1.24495e-07
6.15391e-09
4.32137e-09
1.60403e-07
9.22671e-09
6.14061e-09
1.94959e-07
1.31378e-08
8.16486e-09
2.28965e-07
1.83335e-08
1.05023e-08
2.63098e-07
2.54052e-08
1.32614e-08
2.97891e-07
3.51573e-08
1.65504e-08
3.33703e-07
4.86931e-08
2.04716e-08
3.70668e-07
6.75251e-08
2.51057e-08
4.08656e-07
9.37109e-08
3.04816e-08
4.47307e-07
1.30003e-07
3.65243e-08
4.86202e-07
1.79904e-07
4.29755e-08
5.24957e-07
2.46957e-07
4.92966e-08
5.60909e-07
3.2928e-07
5.45849e-08
5.52424e-07
6.03169e-08
1.33346e-07
2.23268e-09
2.58679e-09
2.57263e-07
6.77412e-09
7.70852e-09
3.71074e-07
1.16825e-08
1.28297e-08
4.78013e-07
1.74732e-08
1.82223e-08
5.8085e-07
2.48029e-08
2.4214e-08
6.81965e-07
3.44839e-08
3.11216e-08
7.83362e-07
4.75787e-08
3.92601e-08
8.86621e-07
6.55077e-08
4.89407e-08
9.92779e-07
9.01726e-08
6.04513e-08
1.10215e-06
1.2408e-07
7.40066e-08
1.21409e-06
1.70411e-07
8.96542e-08
1.32686e-06
2.32893e-07
1.07113e-07
1.43759e-06
3.15018e-07
1.25537e-07
1.54189e-06
4.17341e-07
1.4324e-07
1.62916e-06
5.29044e-07
1.57572e-07
6.6749e-07
1.70011e-07
2.19488e-07
3.0803e-09
4.22714e-09
4.23385e-07
9.33251e-09
1.25929e-08
6.10521e-07
1.60496e-08
2.09464e-08
7.86165e-07
2.39074e-08
2.97236e-08
9.54831e-07
3.37609e-08
3.94499e-08
1.12039e-06
4.66493e-08
5.06281e-08
1.28612e-06
6.39041e-08
6.37522e-08
1.45457e-06
8.72603e-08
7.93008e-08
1.62741e-06
1.18958e-07
9.76991e-08
1.805e-06
1.61786e-07
1.19232e-07
1.9858e-06
2.18947e-07
1.43883e-07
2.16566e-06
2.93463e-07
1.71059e-07
2.33687e-06
3.86516e-07
1.99225e-07
2.48694e-06
4.93666e-07
2.25538e-07
2.59577e-06
5.97832e-07
2.45913e-07
7.06859e-07
2.60368e-07
3.01604e-07
3.64783e-09
5.74732e-09
5.81643e-07
1.10292e-08
1.71142e-08
8.38387e-07
1.88907e-08
2.84422e-08
1.07897e-06
2.79745e-08
4.03078e-08
1.30949e-06
3.92094e-08
5.34054e-08
1.53521e-06
5.36974e-08
6.83921e-08
1.76052e-06
7.28107e-08
8.59024e-08
1.98893e-06
9.82773e-08
1.06535e-07
2.2227e-06
1.32229e-07
1.30797e-07
2.46228e-06
1.77142e-07
1.5898e-07
2.70534e-06
2.35525e-07
1.90936e-07
2.94531e-06
3.09061e-07
2.25726e-07
3.1695e-06
3.96744e-07
2.61165e-07
3.35746e-06
4.91606e-07
2.9347e-07
3.48188e-06
5.76906e-07
3.17648e-07
6.54267e-07
3.33618e-07
3.78296e-07
3.90481e-09
7.11051e-09
7.29312e-07
1.17732e-08
2.11618e-08
1.05067e-06
2.0054e-08
3.51297e-08
1.35115e-06
2.94597e-08
4.97027e-08
1.63822e-06
4.08701e-08
6.57094e-08
1.91832e-06
5.52932e-08
8.39235e-08
2.19688e-06
7.39362e-08
1.05078e-07
2.47823e-06
9.82517e-08
1.29844e-07
2.76531e-06
1.2993e-07
1.58764e-07
3.0589e-06
1.70771e-07
1.92098e-07
3.35653e-06
2.22314e-07
2.29564e-07
3.65048e-06
2.8502e-07
2.69945e-07
3.92513e-06
3.56748e-07
3.10607e-07
4.15447e-06
4.30509e-07
3.47188e-07
4.30399e-06
4.92803e-07
3.7418e-07
5.41666e-07
3.91613e-07
4.48367e-07
3.86017e-09
8.28961e-09
8.64067e-07
1.15956e-08
2.46547e-08
1.24399e-06
1.96072e-08
4.0874e-08
1.59825e-06
2.8495e-08
5.77157e-08
1.93546e-06
3.89878e-08
7.61057e-08
2.26299e-06
5.18767e-08
9.68948e-08
2.58709e-06
6.80531e-08
1.20873e-07
2.91283e-06
8.85148e-08
1.48745e-07
3.24377e-06
1.14316e-07
1.81052e-07
3.58138e-06
1.46419e-07
2.18013e-07
3.92386e-06
1.85379e-07
2.5926e-07
4.26419e-06
2.30791e-07
3.03444e-07
4.58704e-06
2.80443e-07
3.47778e-07
4.86468e-06
3.29259e-07
3.87737e-07
5.05432e-06
3.68609e-07
4.17536e-07
3.93286e-07
4.37342e-07
5.10853e-07
3.55774e-09
9.26818e-09
9.84059e-07
1.06353e-08
2.75446e-08
1.41567e-06
1.78088e-08
4.55966e-08
1.81681e-06
2.55088e-08
6.42396e-08
2.19694e-06
3.42441e-08
8.44592e-08
2.56407e-06
4.45149e-08
1.07146e-07
2.92502e-06
5.6816e-08
1.33108e-07
3.28532e-06
7.16097e-08
1.63048e-07
3.64904e-06
8.92484e-08
1.97482e-07
4.01834e-06
1.0983e-07
2.3659e-07
4.39251e-06
1.32978e-07
2.7997e-07
4.76651e-06
1.57603e-07
3.26292e-07
5.12834e-06
1.8184e-07
3.72898e-07
5.45419e-06
2.03645e-07
4.1554e-07
5.69849e-06
2.21781e-07
4.48548e-07
2.30605e-07
4.73196e-07
5.65062e-07
1.00406e-08
3.06644e-09
1.08799e-06
2.98163e-08
9.10751e-09
1.56389e-06
4.92764e-08
1.50509e-08
2.00458e-06
6.92529e-08
2.11293e-08
2.41999e-06
9.07551e-08
2.76025e-08
2.81849e-06
1.14678e-07
3.46564e-08
3.20712e-06
1.41815e-07
4.23776e-08
3.59156e-06
1.72833e-07
5.07e-08
3.97602e-06
2.08202e-07
5.93107e-08
4.36289e-06
2.48053e-07
6.7507e-08
4.75213e-06
2.9197e-07
7.40103e-08
5.14025e-06
3.38697e-07
7.67718e-08
5.51845e-06
3.85811e-07
7.28603e-08
5.86908e-06
4.29499e-07
5.84299e-08
6.15675e-06
4.64627e-07
2.60375e-08
4.9866e-07
3.3846e-08
4.50448e-08
1.22305e-09
5.97934e-10
8.69177e-08
3.71111e-09
1.78188e-09
1.25401e-07
6.40067e-09
2.96586e-09
1.61596e-07
9.57344e-09
4.21265e-09
1.96445e-07
1.35877e-08
5.59772e-09
2.30757e-07
1.88858e-08
7.19333e-09
2.65209e-07
2.60473e-08
9.07023e-09
3.00336e-07
3.58517e-08
1.12962e-08
3.36492e-07
4.93593e-08
1.39297e-08
3.73807e-07
6.80155e-08
1.70071e-08
4.12153e-07
9.37915e-08
2.05184e-08
4.5118e-07
1.29365e-07
2.43721e-08
4.90489e-07
1.78266e-07
2.83521e-08
5.297e-07
2.44339e-07
3.20854e-08
5.66075e-07
3.26319e-07
3.50541e-08
5.52899e-07
3.80585e-08
1.3429e-07
2.32926e-09
1.77606e-09
2.59101e-07
7.06152e-09
5.29195e-09
3.73767e-07
1.21585e-08
8.80549e-09
4.81555e-07
1.81407e-08
1.25013e-08
5.85259e-07
2.56665e-08
1.66014e-08
6.87277e-07
3.55401e-08
2.13173e-08
7.89618e-07
4.87996e-08
2.68549e-08
8.93856e-07
6.68164e-08
3.34091e-08
1.00102e-06
9.14068e-08
4.11453e-08
1.11139e-06
1.24944e-07
5.0158e-08
1.22434e-06
1.70434e-07
6.03995e-08
1.33814e-06
2.31434e-07
7.15737e-08
1.44997e-06
3.11422e-07
8.30065e-08
1.55546e-06
4.1137e-07
9.3559e-08
1.64381e-06
5.21429e-07
1.01708e-07
6.60932e-07
1.08329e-07
2.21032e-07
3.21714e-09
2.90236e-09
4.26392e-07
9.73926e-09
8.6453e-09
6.14923e-07
1.67218e-08
1.43767e-08
7.9195e-07
2.48471e-08
2.03927e-08
9.62025e-07
3.49713e-08
2.70491e-08
1.12905e-06
4.81203e-08
3.46824e-08
1.29629e-06
6.55891e-08
4.3616e-08
1.46631e-06
8.90407e-08
5.41508e-08
1.64073e-06
1.20591e-07
6.65316e-08
1.81986e-06
1.62835e-07
8.08791e-08
2.00215e-06
2.18716e-07
9.70712e-08
2.18344e-06
2.90988e-07
1.1457e-07
2.35609e-06
3.80735e-07
1.32224e-07
2.50765e-06
4.83934e-07
1.48155e-07
2.61784e-06
5.8469e-07
1.60004e-07
6.9237e-07
1.67987e-07
3.03706e-07
3.81629e-09
3.94622e-09
5.85735e-07
1.15293e-08
1.17496e-08
8.44374e-07
1.97148e-08
1.95222e-08
1.08683e-06
2.91217e-08
2.76559e-08
1.31926e-06
4.0678e-08
3.66212e-08
1.54693e-06
5.54668e-08
4.68585e-08
1.77427e-06
7.48124e-08
5.87843e-08
2.00474e-06
1.00351e-07
7.27768e-08
2.24056e-06
1.34059e-07
8.91292e-08
2.48208e-06
1.78171e-07
1.07957e-07
2.7269e-06
2.34874e-07
1.2904e-07
2.96841e-06
3.05506e-07
1.51604e-07
3.19399e-06
3.889e-07
1.74075e-07
3.38332e-06
4.78507e-07
1.93993e-07
3.50902e-06
5.58946e-07
2.08437e-07
6.33051e-07
2.17627e-07
3.80902e-07
4.09499e-09
4.88236e-09
7.3438e-07
1.23368e-08
1.4529e-08
1.05808e-06
2.09797e-08
2.41136e-08
1.36086e-06
3.07412e-08
3.41043e-08
1.65026e-06
4.24979e-08
4.50633e-08
1.93275e-06
5.72333e-08
5.75098e-08
2.21376e-06
7.60973e-08
7.19264e-08
2.49758e-06
1.00436e-07
8.87399e-08
2.78705e-06
1.31762e-07
1.08265e-07
3.08285e-06
1.71607e-07
1.30595e-07
3.38234e-06
2.21151e-07
1.55425e-07
3.67772e-06
2.80478e-07
1.81802e-07
3.95343e-06
3.47261e-07
2.07878e-07
4.18371e-06
4.14944e-07
2.30833e-07
4.3342e-06
4.71512e-07
2.47387e-07
5.16036e-07
2.5785e-07
4.51411e-07
4.06189e-09
5.69219e-09
8.69985e-07
1.21922e-08
1.69278e-08
1.25263e-06
2.05829e-08
2.80581e-08
1.60956e-06
2.98371e-08
3.96057e-08
1.94945e-06
4.06769e-08
5.21993e-08
2.27972e-06
5.38643e-08
6.64111e-08
2.6066e-06
7.02269e-08
8.27629e-08
2.9351e-06
9.06474e-08
1.01704e-07
3.26869e-06
1.15993e-07
1.23553e-07
3.60865e-06
1.46948e-07
1.48378e-07
3.953e-06
1.83703e-07
1.75825e-07
4.29455e-06
2.25475e-07
2.04869e-07
4.61803e-06
2.69875e-07
2.33575e-07
4.89605e-06
3.12277e-07
2.5902e-07
5.08624e-06
3.45574e-07
2.77706e-07
3.65554e-07
2.90056e-07
5.14265e-07
3.76129e-09
6.36439e-09
9.90685e-07
1.12359e-08
1.89129e-08
1.42533e-06
1.87866e-08
3.13018e-08
1.82944e-06
2.68438e-08
4.40863e-08
2.21252e-06
3.59071e-08
5.79362e-08
2.58265e-06
4.64439e-08
7.34512e-08
2.94662e-06
5.8882e-08
9.11674e-08
3.30991e-06
7.35667e-08
1.11535e-07
3.67644e-06
9.06647e-08
1.34858e-07
4.04818e-06
1.10005e-07
1.61188e-07
4.42417e-06
1.30865e-07
1.90155e-07
4.7992e-06
1.51803e-07
2.20759e-07
5.16127e-06
1.70795e-07
2.51157e-07
5.48699e-06
1.8622e-07
2.78593e-07
5.73142e-06
1.98313e-07
2.99606e-07
2.02582e-07
3.15405e-07
5.68766e-07
6.8951e-09
3.26326e-09
1.09517e-06
2.04737e-08
9.6869e-09
1.57436e-06
3.383e-08
1.59894e-08
2.01823e-06
4.7531e-08
2.24008e-08
2.43679e-06
6.2263e-08
2.91689e-08
2.83848e-06
7.86298e-08
3.64453e-08
3.23029e-06
9.7159e-08
4.42497e-08
3.61784e-06
1.1828e-07
5.24033e-08
4.00521e-06
1.42271e-07
6.04194e-08
4.39457e-06
1.69157e-07
6.73497e-08
4.78563e-06
1.98571e-07
7.16079e-08
5.17466e-06
2.29567e-07
7.0839e-08
5.55287e-06
2.60454e-07
6.19755e-08
5.90299e-06
2.88732e-07
4.15261e-08
6.19042e-06
3.11225e-07
3.2237e-09
3.33258e-07
6.50628e-09
4.5258e-08
1.25598e-09
3.04216e-10
8.73328e-08
3.80883e-09
9.06513e-10
1.26009e-07
6.56145e-09
1.50861e-09
1.62394e-07
9.79641e-09
2.14221e-09
1.97437e-07
1.38712e-08
2.84533e-09
2.31949e-07
1.92234e-08
3.65407e-09
2.6661e-07
2.64211e-08
4.60322e-09
3.01951e-07
3.62238e-08
5.7251e-09
3.38325e-07
4.96595e-08
7.0459e-09
3.7586e-07
6.81305e-08
8.57815e-09
4.14428e-07
9.35637e-08
1.03083e-08
4.53687e-07
1.28623e-07
1.21795e-08
4.93247e-07
1.76921e-07
1.40736e-08
5.32725e-07
2.42553e-07
1.5805e-08
5.69338e-07
3.24607e-07
1.71416e-08
5.5355e-07
1.84421e-08
1.34923e-07
2.39295e-09
9.0363e-10
2.60334e-07
7.25032e-09
2.69226e-09
3.75573e-07
1.24687e-08
4.47903e-09