/*--------------------------------*- C++ -*----------------------------------*\
| =========                 |                                                 |
| \\      /  F ield         | foam-extend: Open Source CFD                    |
|  \\    /   O peration     | Version:     3.1                                |
|   \\  /    A nd           | Web:         http://www.extend-project.de       |
|    \\/     M anipulation  |                                                 |
\*---------------------------------------------------------------------------*/
FoamFile
{
    version     2.0;
    format      ascii;
    class       volScalarField;
    location    "0.2";
    object      p;
}
// * * * * * * * * * * * * * * * * * * * * * * * * * * * * * * * * * * * * * //

dimensions      [0 2 -2 0 0 0 0];

internalField   nonuniform List<scalar> 
14592
(
0.0965407
0.0955233
0.0940913
0.0924588
0.0907281
0.088945
0.087136
0.0853181
0.083503
0.0817001
0.079919
0.0781712
0.0764733
0.074853
0.0733879
0.0722989
0.097041
0.0957448
0.0942011
0.0925177
0.0907591
0.0889592
0.0871394
0.0853137
0.0834922
0.0816834
0.0798959
0.0781403
0.0764317
0.0747947
0.0732962
0.0721306
0.097864
0.0961992
0.0944609
0.0926688
0.090845
0.0890045
0.0871579
0.0853131
0.0834762
0.081653
0.0798497
0.0780743
0.0763383
0.0746602
0.0730923
0.0717935
0.0987748
0.0967491
0.0947944
0.0928702
0.0909626
0.0890678
0.0871846
0.085313
0.0834544
0.0816105
0.0797845
0.0779807
0.0762059
0.0744713
0.0728126
0.0713465
0.0996226
0.097288
0.095133
0.0930793
0.0910861
0.089134
0.0872108
0.0853095
0.0834259
0.0815581
0.0797054
0.0778685
0.0760492
0.0742514
0.072495
0.0708567
0.100319
0.0977445
0.0954258
0.0932617
0.0911932
0.0891891
0.0872287
0.0852986
0.0833902
0.0814977
0.0796175
0.0777464
0.0758817
0.0740206
0.0721679
0.0703619
0.100807
0.0980686
0.0956348
0.0933907
0.091266
0.0892219
0.0872316
0.0852773
0.0833469
0.081432
0.0795261
0.0776232
0.0757166
0.0737978
0.0718575
0.0698952
0.10105
0.0982288
0.095735
0.0934481
0.0912921
0.0892243
0.087215
0.0852438
0.0832967
0.0813635
0.079436
0.0775064
0.0755656
0.0736009
0.071591
0.0694975
0.0971565
0.096079
0.0945751
0.092873
0.0910812
0.0892474
0.0873992
0.0855536
0.0837229
0.081918
0.0801508
0.078438
0.0768054
0.0752966
0.0740113
0.0731674
0.0976925
0.0963162
0.0946926
0.092936
0.0911143
0.0892626
0.0874027
0.0855487
0.0837111
0.0818996
0.0801251
0.0784029
0.0767569
0.0752261
0.0738949
0.0729458
0.098574
0.0968028
0.0949706
0.0930976
0.091206
0.0893107
0.087422
0.0855472
0.0836927
0.0818648
0.0800718
0.0783257
0.0766455
0.0750618
0.0736411
0.0725285
0.0995496
0.0973918
0.0953275
0.0933128
0.0913314
0.0893779
0.0874496
0.0855458
0.0836671
0.0818157
0.079996
0.0782154
0.0764867
0.0748307
0.0732943
0.0719824
0.100458
0.0979689
0.0956899
0.0935363
0.091463
0.0894479
0.0874766
0.0855403
0.0836339
0.0817551
0.0799039
0.0780831
0.0762985
0.0745615
0.0728997
0.0713811
0.101204
0.0984579
0.0960032
0.0937312
0.0915771
0.0895061
0.0874945
0.0855267
0.0835925
0.0816855
0.0798017
0.0779391
0.0760973
0.0742783
0.072492
0.0707711
0.101727
0.0988051
0.0962269
0.093869
0.0916545
0.0895404
0.0874964
0.0855019
0.0835431
0.08161
0.0796956
0.0777937
0.0758987
0.0740041
0.072103
0.0701921
0.101988
0.0989768
0.0963342
0.0939303
0.0916821
0.0895424
0.0874776
0.0854643
0.0834863
0.0815319
0.0795914
0.0776564
0.0757169
0.0737604
0.0717648
0.0696893
0.0977125
0.0965831
0.0950162
0.0932527
0.0914065
0.0895275
0.0876439
0.0857734
0.0839287
0.0821214
0.0803656
0.0786805
0.0770961
0.0756602
0.074469
0.0737032
0.0982792
0.0968338
0.0951404
0.0933192
0.0914415
0.0895435
0.0876476
0.0857681
0.0839159
0.0821014
0.0803374
0.0786417
0.0770417
0.0755802
0.0743368
0.0734539
0.0992111
0.0973483
0.0954342
0.0934899
0.0915382
0.089594
0.0876675
0.0857657
0.0838951
0.0820627
0.0802778
0.0785548
0.0769154
0.0753933
0.0740495
0.0729916
0.100243
0.097971
0.0958115
0.0937173
0.0916704
0.0896645
0.0876959
0.085763
0.0838661
0.0820076
0.0801925
0.0784301
0.076735
0.0751301
0.0736571
0.0723888
0.101203
0.0985813
0.0961945
0.0939532
0.0918091
0.0897378
0.0877233
0.0857555
0.0838284
0.0819394
0.0800888
0.0782802
0.0765209
0.0748229
0.0732097
0.0717234
0.101993
0.0990985
0.0965257
0.0941591
0.0919293
0.0897986
0.0877411
0.0857393
0.0837818
0.0818613
0.0799737
0.078117
0.0762915
0.0744991
0.072746
0.0710457
0.102546
0.0994658
0.0967621
0.0943045
0.0920107
0.0898341
0.0877418
0.0857112
0.0837265
0.0817769
0.0798543
0.0779522
0.0760647
0.0741846
0.0723015
0.0703996
0.102821
0.0996474
0.0968756
0.0943692
0.0920395
0.0898356
0.0877208
0.0856696
0.0836637
0.0816898
0.0797373
0.0777965
0.0758567
0.0739036
0.0719116
0.0698319
0.0981954
0.0970224
0.0954023
0.0935864
0.0916937
0.0897757
0.0878616
0.0859693
0.0841119
0.0823019
0.080554
0.0788888
0.0773372
0.0759466
0.074806
0.0740728
0.0987878
0.0972845
0.095532
0.093656
0.0917302
0.0897924
0.0878653
0.0859635
0.0840983
0.0822805
0.0805237
0.0788468
0.0772782
0.0758597
0.0746639
0.0738078
0.0997619
0.0978223
0.0958391
0.0938343
0.0918311
0.0898449
0.0878856
0.0859604
0.0840755
0.0822383
0.0804588
0.078752
0.0771404
0.0756563
0.0743539
0.0733165
0.10084
0.0984734
0.0962335
0.0940719
0.0919691
0.0899181
0.0879146
0.0859564
0.0840434
0.082178
0.0803656
0.0786157
0.0769431
0.0753695
0.0739299
0.0726761
0.101845
0.0991116
0.0966339
0.0943184
0.0921137
0.0899941
0.0879423
0.0859471
0.0840018
0.0821034
0.0802521
0.0784515
0.0767086
0.0750342
0.0734456
0.071968
0.10267
0.0996524
0.0969802
0.0945334
0.0922389
0.090057
0.0879599
0.0859285
0.0839505
0.0820179
0.080126
0.0782726
0.0764571
0.0746799
0.0729425
0.0712452
0.103249
0.100037
0.0972273
0.0946852
0.0923237
0.0900935
0.0879596
0.0858975
0.0838902
0.0819257
0.0799953
0.0780917
0.0762078
0.0743349
0.0724584
0.0705536
0.103537
0.100226
0.0973459
0.0947526
0.0923534
0.0900944
0.0879365
0.0858523
0.0838219
0.0818308
0.0798673
0.0779206
0.0759787
0.0740252
0.072031
0.069941
0.0985944
0.0973863
0.0957231
0.0938647
0.091934
0.089984
0.0880446
0.0861342
0.0842661
0.0824529
0.0807099
0.0790578
0.0775272
0.0761635
0.0750498
0.0743303
0.0992073
0.0976575
0.0958573
0.0939367
0.0919717
0.0900012
0.0880483
0.0861281
0.0842517
0.0824304
0.0806779
0.0790135
0.0774649
0.076072
0.0749012
0.0740554
0.100215
0.098214
0.0961751
0.0941212
0.092076
0.0900553
0.088069
0.0861243
0.0842273
0.0823854
0.0806088
0.0789126
0.0773185
0.0758569
0.0745757
0.073545
0.101331
0.0988879
0.0965833
0.0943669
0.0922186
0.0901307
0.0880984
0.0861192
0.0841927
0.082321
0.0805094
0.0787672
0.0771086
0.0755531
0.0741302
0.0728794
0.102371
0.0995485
0.0969977
0.0946219
0.092368
0.0902089
0.0881264
0.0861084
0.0841478
0.082241
0.0803881
0.078592
0.0768589
0.0751975
0.0736204
0.0721424
0.103226
0.100108
0.097356
0.0948443
0.0924973
0.0902734
0.0881436
0.0860878
0.0840927
0.0821496
0.0802533
0.0784008
0.0765906
0.0748213
0.0730898
0.071389
0.103824
0.100506
0.0976117
0.0950013
0.0925846
0.0903105
0.0881424
0.0860542
0.0840281
0.082051
0.0801135
0.0782074
0.0763244
0.0744539
0.0725781
0.0706663
0.104123
0.100703
0.0977344
0.0950709
0.092615
0.0903109
0.0881176
0.0860061
0.0839553
0.0819497
0.0799766
0.0780242
0.0760791
0.074123
0.072124
0.0700226
0.098901
0.0976665
0.0959707
0.0940801
0.0921203
0.0901459
0.0881871
0.0862627
0.084386
0.0825698
0.0808293
0.0791853
0.0776673
0.076319
0.0752191
0.0745052
0.0995294
0.0979445
0.0961083
0.0941538
0.092159
0.0901635
0.0881909
0.0862563
0.0843711
0.0825464
0.0807962
0.0791392
0.0776026
0.0762243
0.0750663
0.074224
0.100563
0.0985152
0.0964342
0.0943429
0.0922658
0.0902188
0.0882118
0.0862519
0.0843454
0.0824994
0.080724
0.079034
0.0774503
0.0760013
0.0747307
0.0737012
0.101707
0.0992062
0.0968527
0.0945949
0.0924118
0.0902958
0.0882415
0.086246
0.0843088
0.0824318
0.0806199
0.0788821
0.0772316
0.075686
0.0742708
0.0730189
0.102773
0.0998837
0.0972776
0.0948562
0.0925648
0.0903756
0.0882695
0.0862341
0.0842615
0.0823479
0.0804929
0.0786989
0.0769712
0.0753165
0.073744
0.0722628
0.103649
0.100458
0.097645
0.0950841
0.0926971
0.0904413
0.0882865
0.0862119
0.0842035
0.082252
0.0803516
0.0784988
0.076691
0.074925
0.073195
0.071489
0.104263
0.100866
0.0979072
0.095245
0.0927864
0.0904789
0.0882845
0.0861764
0.0841356
0.0821486
0.080205
0.0782962
0.0764126
0.0745422
0.0726644
0.0707455
0.10457
0.101067
0.098033
0.0953162
0.0928174
0.0904788
0.0882584
0.0861259
0.0840594
0.0820424
0.0800615
0.0781041
0.0761557
0.0741964
0.0721921
0.0700807
0.099109
0.0978565
0.0961391
0.0942268
0.0922476
0.0902566
0.0882847
0.0863506
0.0844679
0.0826494
0.0809101
0.0792705
0.0777596
0.0764195
0.0753265
0.0746145
0.0997479
0.0981395
0.0962792
0.0943019
0.0922869
0.0902745
0.0882885
0.0863441
0.0844527
0.0826255
0.0808761
0.0792233
0.0776933
0.0763227
0.075171
0.0743294
0.100798
0.0987195
0.0966104
0.0944941
0.0923955
0.0903306
0.0883095
0.0863394
0.0844261
0.082577
0.080802
0.0791153
0.0775372
0.0760948
0.0748292
0.073799
0.101961
0.0994221
0.0970358
0.0947501
0.0925438
0.0904086
0.0883394
0.0863329
0.0843883
0.0825074
0.0806949
0.0789592
0.077313
0.0757723
0.0743605
0.0731066
0.103044
0.100111
0.0974678
0.0950157
0.0926991
0.0904895
0.0883675
0.0863202
0.0843393
0.0824209
0.0805641
0.0787709
0.0770457
0.0753941
0.0738232
0.0723388
0.103936
0.100695
0.0978413
0.0952474
0.0928335
0.0905561
0.0883843
0.0862969
0.0842793
0.0823219
0.0804185
0.078565
0.076758
0.0749931
0.0732627
0.0715523
0.10456
0.101109
0.0981078
0.0954108
0.092924
0.090594
0.0883818
0.08626
0.0842092
0.0822153
0.0802675
0.0783564
0.0764718
0.0746005
0.0727204
0.0707959
0.104871
0.101314
0.0982356
0.095483
0.0929553
0.0905935
0.0883548
0.086208
0.0841307
0.0821059
0.0801196
0.0781585
0.0762073
0.0742453
0.0722367
0.070118
0.0992128
0.09795
0.096223
0.0943001
0.0923112
0.090312
0.0883335
0.0863947
0.084509
0.0826892
0.0809504
0.0793127
0.0778048
0.0764683
0.075379
0.0746665
0.0998584
0.0982369
0.0963649
0.0943761
0.092351
0.0903301
0.0883373
0.086388
0.0844935
0.0826649
0.0809158
0.0792647
0.0777375
0.07637
0.0752212
0.0743787
0.100915
0.0988213
0.0966982
0.0945695
0.0924602
0.0903864
0.0883584
0.0863831
0.0844665
0.0826157
0.0808407
0.0791554
0.0775797
0.07614
0.0748768
0.0738453
0.102087
0.0995297
0.0971269
0.0948275
0.0926096
0.090465
0.0883883
0.0863763
0.084428
0.0825451
0.0807321
0.0789973
0.0773528
0.0758142
0.0744038
0.0731484
0.103179
0.100224
0.0975623
0.0950951
0.0927661
0.0905464
0.0884165
0.0863632
0.0843782
0.0824573
0.0805995
0.0788065
0.0770823
0.0754319
0.0738614
0.0723751
0.104077
0.100813
0.0979389
0.0953286
0.0929014
0.0906133
0.0884332
0.0863394
0.0843172
0.0823569
0.0804519
0.0785978
0.0767909
0.0750263
0.0732954
0.0715828
0.104707
0.101231
0.0982075
0.0954932
0.0929926
0.0906513
0.0884304
0.0863019
0.0842461
0.0822487
0.0802986
0.0783863
0.076501
0.074629
0.0727475
0.0708202
0.10502
0.101438
0.0983363
0.095566
0.093024
0.0906507
0.0884029
0.086249
0.0841664
0.0821376
0.0801485
0.0781856
0.076233
0.0742694
0.0722583
0.0701362
0.0921785
0.09176
0.0909514
0.0898666
0.0885863
0.0871596
0.0856214
0.0839966
0.0823029
0.0805525
0.0787536
0.076911
0.0750277
0.0731051
0.0711454
0.0691529
0.0922927
0.0918374
0.0910005
0.0898973
0.0886048
0.0871696
0.0856253
0.0839961
0.082299
0.0805461
0.0787451
0.076901
0.0750164
0.0730931
0.0711331
0.0691407
0.0925051
0.0919901
0.0911034
0.0899642
0.0886466
0.0871938
0.085637
0.0839988
0.0822952
0.0805372
0.0787325
0.0768856
0.0749991
0.0730749
0.0711151
0.0691241
0.0927604
0.0921812
0.0912365
0.0900527
0.0887026
0.0872265
0.0856531
0.0840029
0.0822904
0.0805258
0.0787161
0.0768655
0.0749767
0.0730516
0.0710926
0.0691042
0.0930112
0.0923744
0.091374
0.0901452
0.0887614
0.0872606
0.0856693
0.0840059
0.0822836
0.0805117
0.0786964
0.0768418
0.0749507
0.073025
0.0710674
0.0690827
0.0932243
0.0925414
0.0914941
0.0902263
0.0888123
0.087289
0.085681
0.0840052
0.0822735
0.0804945
0.0786738
0.0768156
0.0749224
0.0729966
0.0710413
0.0690612
0.0933753
0.0926604
0.0915795
0.0902829
0.0888462
0.0873055
0.0856843
0.0839985
0.0822591
0.080474
0.0786489
0.0767876
0.0748931
0.0729681
0.0710157
0.0690412
0.0934486
0.0927172
0.0916184
0.0903061
0.0888566
0.0873059
0.0856766
0.0839843
0.0822397
0.0804505
0.0786223
0.0767591
0.0748642
0.0729406
0.0709921
0.0690238
0.0923556
0.0918932
0.0910506
0.0899427
0.0886461
0.0872076
0.0856608
0.0840299
0.0823321
0.0805792
0.0787789
0.0769358
0.075052
0.0731285
0.0711662
0.0691686
0.0924991
0.0919725
0.0910963
0.0899696
0.0886613
0.0872149
0.0856625
0.0840276
0.0823267
0.0805713
0.0787691
0.0769244
0.0750394
0.0731152
0.0711527
0.0691554
0.0927601
0.0921405
0.0912043
0.0900382
0.0887033
0.0872387
0.0856736
0.0840296
0.082322
0.0805616
0.0787554
0.0769077
0.0750207
0.0730954
0.0711331
0.0691373
0.0930649
0.0923505
0.0913454
0.0901304
0.088761
0.0872721
0.0856899
0.0840334
0.0823167
0.0805494
0.078738
0.0768864
0.0749968
0.0730704
0.0711087
0.0691157
0.0933586
0.0925613
0.091491
0.0902271
0.0888219
0.0873072
0.0857063
0.0840363
0.0823095
0.0805345
0.0787173
0.0768614
0.0749691
0.0730418
0.0710815
0.0690923
0.0936052
0.0927426
0.091618
0.0903117
0.0888747
0.0873365
0.0857183
0.0840355
0.082299
0.0805166
0.0786936
0.0768337
0.074939
0.0730114
0.0710532
0.069069
0.0937791
0.0928717
0.0917083
0.0903708
0.0889099
0.0873536
0.0857218
0.0840286
0.082284
0.0804953
0.0786676
0.0768043
0.074908
0.0729809
0.0710257
0.0690472
0.0938638
0.0929335
0.0917496
0.0903953
0.0889209
0.0873541
0.085714
0.0840141
0.0822641
0.080471
0.0786399
0.0767744
0.0748775
0.0729518
0.0710004
0.0690285
0.0927281
0.0921929
0.091286
0.090128
0.0887936
0.0873269
0.0857594
0.0841137
0.0824059
0.0806468
0.0788433
0.076999
0.0751147
0.0731893
0.0712209
0.0692099
0.092924
0.0922891
0.0913376
0.0901572
0.0888097
0.0873344
0.085761
0.084111
0.0823999
0.0806383
0.0788327
0.0769866
0.0751009
0.0731745
0.0712058
0.0691952
0.0932632
0.0924911
0.0914613
0.0902334
0.0888553
0.0873597
0.0857725
0.0841128
0.0823945
0.0806273
0.0788173
0.0769677
0.0750794
0.0731514
0.0711825
0.0691736
0.0936489
0.0927403
0.0916222
0.0903359
0.0889182
0.0873957
0.0857897
0.0841166
0.0823884
0.0806136
0.0787976
0.0769433
0.0750516
0.0731217
0.0711531
0.0691472
0.0940144
0.092988
0.0917873
0.0904431
0.0889846
0.0874335
0.0858071
0.0841193
0.0823801
0.0805968
0.0787742
0.0769147
0.0750192
0.0730877
0.07112
0.0691184
0.094318
0.0931998
0.0919309
0.0905368
0.0890423
0.0874651
0.0858199
0.0841181
0.0823684
0.0805768
0.0787475
0.076883
0.0749843
0.0730516
0.0710858
0.0690896
0.0945312
0.0933503
0.0920331
0.0906026
0.0890809
0.0874837
0.0858237
0.0841106
0.082352
0.0805533
0.0787185
0.0768498
0.0749485
0.0730157
0.0710527
0.069063
0.0946357
0.0934229
0.0920804
0.0906303
0.0890935
0.0874847
0.0858155
0.0840951
0.0823304
0.0805268
0.0786878
0.0768162
0.0749137
0.0729818
0.0710227
0.0690406
0.0932427
0.092622
0.0916326
0.0904059
0.0890177
0.0875098
0.0859116
0.0842438
0.0825212
0.0807533
0.0789459
0.0771014
0.0752183
0.0732923
0.0713164
0.0692842
0.0934965
0.09274
0.0916935
0.0904396
0.0890358
0.0875182
0.0859134
0.084241
0.0825147
0.0807439
0.0789341
0.0770874
0.0752025
0.0732751
0.0712986
0.0692668
0.093924
0.0929846
0.0918385
0.0905269
0.0890871
0.0875462
0.0859259
0.0842426
0.0825083
0.0807312
0.0789162
0.077065
0.0751764
0.0732463
0.0712689
0.0692388
0.0944032
0.0932835
0.0920261
0.0906439
0.0891578
0.087586
0.0859446
0.0842463
0.0825009
0.0807151
0.0788928
0.0770355
0.0751419
0.0732085
0.0712303
0.0692034
0.0948528
0.0935785
0.0922178
0.0907659
0.0892322
0.0876278
0.0859635
0.0842488
0.082491
0.0806953
0.0788649
0.0770007
0.0751017
0.0731649
0.0711865
0.0691644
0.0952242
0.0938296
0.0923841
0.0908726
0.0892969
0.0876629
0.0859774
0.084247
0.0824772
0.0806718
0.0788333
0.0769625
0.0750583
0.0731188
0.0711413
0.0691254
0.0954843
0.0940078
0.0925024
0.0909476
0.0893406
0.0876838
0.0859815
0.0842384
0.0824584
0.0806447
0.0787992
0.0769226
0.0750143
0.0730732
0.071098
0.0690899
0.0956125
0.0940945
0.0925579
0.0909798
0.0893553
0.0876853
0.0859728
0.0842214
0.0824343
0.0806145
0.0787637
0.0768828
0.074972
0.0730308
0.0710595
0.0690605
0.0938493
0.0931408
0.0920603
0.0907545
0.0893021
0.087744
0.086108
0.0844131
0.0826724
0.0808946
0.0790845
0.0772429
0.0753663
0.0734457
0.0714658
0.0694062
0.0941598
0.0932815
0.0921314
0.0907932
0.0893227
0.0877535
0.0861101
0.08441
0.0826653
0.0808842
0.0790711
0.0772268
0.0753476
0.0734247
0.0714436
0.0693845
0.0946765
0.0935713
0.0923002
0.0908933
0.0893807
0.0877849
0.0861239
0.0844115
0.0826577
0.0808692
0.0790496
0.0771992
0.0753145
0.073387
0.0714032
0.0693454
0.0952514
0.0939237
0.0925178
0.0910271
0.0894605
0.0878293
0.0861443
0.084415
0.0826484
0.0808496
0.079021
0.0771623
0.07527
0.0733363
0.0713494
0.0692945
0.0957883
0.0942701
0.0927395
0.0911664
0.0895446
0.0878759
0.086165
0.084417
0.0826361
0.0808255
0.0789866
0.0771186
0.0752179
0.0732776
0.0712881
0.069238
0.0962305
0.0945643
0.0929314
0.0912881
0.0896176
0.0879151
0.0861801
0.0844142
0.0826195
0.0807973
0.0789481
0.0770706
0.0751617
0.0732156
0.0712248
0.0691814
0.0965399
0.0947729
0.0930681
0.0913738
0.089667
0.0879385
0.0861845
0.0844041
0.0825975
0.0807651
0.0789068
0.0770211
0.0751053
0.0731549
0.0711647
0.0691302
0.096693
0.094875
0.0931327
0.0914112
0.0896842
0.0879406
0.0861749
0.0843848
0.0825698
0.0807298
0.0788643
0.0769723
0.0750517
0.0730994
0.0711123
0.0690889
0.0945112
0.093717
0.0925432
0.0911534
0.0896312
0.0880176
0.0863394
0.0846141
0.082854
0.0810668
0.0792567
0.0774242
0.0755641
0.0736625
0.0716928
0.0696058
0.0948755
0.0938801
0.0926248
0.0911975
0.0896545
0.0880284
0.0863419
0.0846108
0.0828461
0.081055
0.0792414
0.0774052
0.0755412
0.073636
0.0716635
0.0695771
0.095478
0.094215
0.0928179
0.0913109
0.0897198
0.0880634
0.086357
0.084612
0.0828368
0.081037
0.0792151
0.0773707
0.0754983
0.0735847
0.0716057
0.069519
0.0961462
0.0946211
0.0930664
0.0914625
0.0898094
0.0881127
0.0863792
0.0846151
0.0828251
0.0810129
0.0791795
0.0773237
0.0754395
0.0735146
0.0715275
0.0694414
0.0967689
0.0950195
0.0933191
0.09162
0.0899036
0.0881645
0.0864017
0.0846162
0.0828097
0.0809833
0.0791368
0.0772677
0.0753703
0.0734333
0.071438
0.0693548
0.097281
0.0953574
0.0935378
0.0917576
0.0899855
0.0882079
0.0864178
0.0846121
0.0827894
0.0809488
0.0790889
0.0772065
0.0752961
0.0733475
0.0713456
0.0692683
0.0976392
0.095597
0.0936936
0.0918546
0.0900411
0.088234
0.0864223
0.0845999
0.0827632
0.0809101
0.0790381
0.0771438
0.0752219
0.0732641
0.0712586
0.0691903
0.097817
0.0957148
0.0937677
0.0918973
0.0900608
0.0882366
0.0864115
0.0845778
0.082731
0.0808682
0.0789866
0.0770829
0.0751526
0.073189
0.0711839
0.0691282
0.0951973
0.0943222
0.093057
0.0915827
0.0899889
0.0883177
0.0865952
0.0848384
0.0830587
0.0812639
0.0794586
0.0776444
0.0758169
0.0739607
0.0720373
0.0699434
0.0956115
0.0945065
0.0931487
0.091632
0.0900149
0.0883297
0.086598
0.0848347
0.08305
0.0812506
0.0794409
0.0776217
0.0757885
0.0739255
0.071995
0.0698994
0.0962944
0.0948845
0.0933656
0.0917588
0.0900875
0.0883684
0.0866145
0.0848356
0.0830387
0.0812289
0.0794088
0.0775783
0.0757321
0.0738541
0.0719088
0.0698069
0.0970507
0.0953423
0.0936444
0.0919279
0.0901869
0.0884226
0.0866384
0.0848378
0.083024
0.0811993
0.0793645
0.0775181
0.0756538
0.0737558
0.0717916
0.0696826
0.0977548
0.095791
0.0939276
0.0921036
0.0902914
0.0884795
0.0866624
0.0848378
0.0830048
0.081163
0.0793112
0.0774464
0.0755614
0.0736414
0.0716575
0.0695443
0.0983336
0.0961713
0.0941725
0.092257
0.0903822
0.0885272
0.0866794
0.0848318
0.0829799
0.0811208
0.0792517
0.0773681
0.0754625
0.0735211
0.0715193
0.0694056
0.0987385
0.0964412
0.0943472
0.0923654
0.0904439
0.0885558
0.0866837
0.0848169
0.0829486
0.0810741
0.0791891
0.0772884
0.0753644
0.0734047
0.0713893
0.0692802
0.0989398
0.0965741
0.0944306
0.0924133
0.090466
0.0885586
0.0866712
0.0847914
0.082911
0.0810243
0.0791264
0.0772119
0.0752737
0.0733012
0.0712792
0.0691815
0.0958813
0.0949315
0.0935796
0.0920235
0.0903595
0.0886311
0.0868645
0.0850764
0.0832782
0.0814783
0.0796832
0.0778981
0.0761256
0.0743606
0.0725803
0.0706292
0.0963409
0.0951354
0.0936807
0.0920779
0.0903881
0.0886443
0.0868676
0.0850724
0.0832685
0.0814633
0.0796628
0.0778713
0.0760906
0.0743135
0.0725148
0.0705433
0.0970976
0.0955534
0.09392
0.0922174
0.0904676
0.0886864
0.0868852
0.0850725
0.0832549
0.0814374
0.0796239
0.0778171
0.0760168
0.0742138
0.0723811
0.0703771
0.097935
0.0960595
0.0942274
0.0924032
0.0905765
0.0887454
0.0869106
0.0850738
0.0832368
0.0814016
0.0795695
0.077741
0.0759133
0.0740755
0.0721995
0.0701569
0.0987146
0.0965553
0.0945394
0.0925963
0.0906908
0.0888071
0.0869359
0.0850721
0.0832131
0.0813574
0.0795038
0.07765
0.0757911
0.0739145
0.0719926
0.0699135
0.0993552
0.0969754
0.0948093
0.0927648
0.0907901
0.0888587
0.0869535
0.0850638
0.083183
0.0813065
0.0794306
0.077551
0.0756605
0.0737455
0.0717795
0.0696683
0.0998034
0.0972736
0.0950018
0.0928838
0.0908576
0.0888896
0.0869572
0.0850459
0.083146
0.0812506
0.0793542
0.0774506
0.0755315
0.0735825
0.0715787
0.0694419
0.100027
0.0974208
0.0950941
0.0929368
0.0908819
0.0888923
0.0869428
0.0850165
0.0831022
0.0811918
0.0792784
0.0773551
0.0754131
0.0734386
0.0714089
0.0692617
0.101032
0.09821
0.0957148
0.0934252
0.0912656
0.089193
0.0871774
0.0851981
0.0832407
0.0812946
0.0793513
0.0774022
0.0754377
0.0734448
0.0714039
0.0692736
0.100753
0.0980132
0.0955748
0.0933231
0.0911877
0.0891292
0.0871201
0.0851417
0.0831808
0.0812278
0.0792745
0.0773133
0.0753357
0.0733314
0.0712872
0.0691851
0.100233
0.0976548
0.0953287
0.0931522
0.0910662
0.0890385
0.0870475
0.0850781
0.0831199
0.0811651
0.0792071
0.0772397
0.0752566
0.0732506
0.0712143
0.0691411
0.0995068
0.0971681
0.0950028
0.0929322
0.0909152
0.0889312
0.0869666
0.0850121
0.0830612
0.0811087
0.0791499
0.0771806
0.0751965
0.0731935
0.0711682
0.0691193
0.0986353
0.0966044
0.0946366
0.0926915
0.0907546
0.0888206
0.0868865
0.0849499
0.0830087
0.0810607
0.0791036
0.077135
0.0751524
0.073154
0.0711388
0.0691086
0.0977072
0.0960359
0.094282
0.0924655
0.0906078
0.0887222
0.0868172
0.0848978
0.0829663
0.0810235
0.079069
0.0771021
0.0751218
0.0731277
0.0711205
0.0691032
0.0968743
0.0955701
0.0940084
0.0922978
0.0905018
0.0886526
0.0867692
0.0848624
0.0829382
0.0809993
0.0790471
0.0770817
0.0751032
0.0731122
0.0711102
0.0691005
0.0963714
0.095344
0.0938921
0.0922306
0.0904606
0.088626
0.0867509
0.084849
0.0829275
0.0809902
0.0790388
0.0770739
0.0750961
0.0731062
0.0711059
0.0690989
0.101968
0.0989569
0.0963127
0.0939059
0.0916537
0.0895085
0.0874364
0.0854138
0.0834238
0.081454
0.079494
0.0775342
0.0755632
0.073566
0.0715189
0.0693686
0.10167
0.0987464
0.0961631
0.0937969
0.0915704
0.08944
0.0873745
0.0853523
0.0833577
0.081379
0.0794065
0.0774308
0.0754417
0.0734264
0.0713682
0.0692424
0.101113
0.0983629
0.0959
0.0936143
0.0914406
0.089343
0.0872965
0.0852833
0.0832909
0.0813093
0.0793303
0.0773461
0.0753485
0.0733285
0.071276
0.0691812
0.100335
0.0978419
0.0955515
0.0933792
0.0912794
0.0892283
0.0872098
0.0852122
0.083227
0.081247
0.0792662
0.0772787
0.0752788
0.0732605
0.071219
0.0691511
0.0994021
0.0972385
0.0951599
0.0931221
0.0911079
0.0891102
0.0871241
0.0851453
0.08317
0.0811944
0.0792147
0.0772272
0.075228
0.073214
0.0711833
0.0691365
0.0984083
0.09663
0.0947805
0.0928805
0.0909511
0.0890051
0.08705
0.0850894
0.0831242
0.0811537
0.0791764
0.0771902
0.0751931
0.0731835
0.0711615
0.0691293
0.0975163
0.0961313
0.0944879
0.0927012
0.0908379
0.0889309
0.0869988
0.0850515
0.0830939
0.0811275
0.0791523
0.0771674
0.075172
0.0731657
0.0711493
0.0691257
0.0969776
0.0958893
0.0943635
0.0926294
0.0907939
0.0889025
0.0869793
0.0850372
0.0830824
0.0811175
0.0791431
0.0771588
0.0751641
0.0731588
0.0711443
0.0691238
0.102801
0.0996265
0.0968528
0.0943433
0.0920092
0.0897992
0.0876764
0.0856146
0.083595
0.0816034
0.0796282
0.0776581
0.0756804
0.0736775
0.0716215
0.0694474
0.102486
0.0994039
0.0966947
0.094228
0.091921
0.0897264
0.0876102
0.0855482
0.0835229
0.0815208
0.0795306
0.0775415
0.0755414
0.0735154
0.0714432
0.0692943
0.101896
0.0989985
0.0964167
0.0940351
0.0917837
0.0896237
0.0875271
0.0854743
0.0834506
0.0814445
0.0794462
0.0774464
0.0754354
0.0734022
0.0713345
0.0692195
0.101075
0.0984477
0.0960484
0.0937868
0.0916134
0.0895023
0.0874352
0.0853984
0.0833818
0.0813767
0.0793756
0.0773712
0.0753565
0.0733241
0.0712674
0.0691821
0.100088
0.0978097
0.0956345
0.0935151
0.0914322
0.0893775
0.0873444
0.0853272
0.0833207
0.0813197
0.0793192
0.0773141
0.0752995
0.0732711
0.0712259
0.0691637
0.099037
0.0971664
0.0952336
0.0932599
0.0912666
0.0892664
0.087266
0.0852678
0.0832717
0.0812758
0.0792774
0.0772733
0.0752604
0.0732365
0.0712006
0.0691546
0.0980942
0.0966393
0.0949244
0.0930705
0.0911471
0.089188
0.0872118
0.0852276
0.0832393
0.0812475
0.0792511
0.0772482
0.0752371
0.0732164
0.0711866
0.0691501
0.0975246
0.0963835
0.094793
0.0929946
0.0911006
0.089158
0.0871912
0.0852124
0.0832271
0.0812368
0.0792412
0.0772388
0.0752282
0.0732087
0.0711809
0.0691478
0.103516
0.100205
0.097322
0.0947255
0.0923214
0.0900558
0.0878891
0.0857933
0.0837478
0.081737
0.0797481
0.0777685
0.0757839
0.0737743
0.0717081
0.0695115
0.103186
0.0999719
0.0971567
0.0946048
0.092229
0.0899792
0.0878191
0.0857226
0.0836705
0.0816477
0.0796418
0.0776404
0.0756302
0.0735939
0.0715085
0.0693385
0.10257
0.0995479
0.0968659
0.094403
0.0920853
0.0898714
0.0877317
0.0856443
0.0835932
0.0815655
0.0795501
0.0775364
0.0755132
0.0734681
0.0713865
0.0692538
0.10171
0.0989719
0.0964809
0.0941434
0.0919071
0.0897444
0.087635
0.0855642
0.08352
0.0814928
0.0794737
0.0774543
0.0754264
0.0733813
0.071311
0.0692105
0.100678
0.0983048
0.0960482
0.0938593
0.0917176
0.0896137
0.0875398
0.0854891
0.0834552
0.0814318
0.0794129
0.0773922
0.0753639
0.0733226
0.0712645
0.0691888
0.0995801
0.0976322
0.0956291
0.0935926
0.0915445
0.0894975
0.0874577
0.0854267
0.0834034
0.081385
0.0793679
0.077348
0.0753212
0.0732844
0.0712362
0.0691779
0.0985947
0.0970812
0.0953058
0.0933946
0.0914196
0.0894155
0.0874009
0.0853844
0.0833692
0.0813549
0.0793397
0.0773209
0.0752957
0.0732623
0.0712204
0.0691725
0.0979994
0.0968139
0.0951685
0.0933153
0.091371
0.0893841
0.0873793
0.0853684
0.0833562
0.0813436
0.0793291
0.0773107
0.0752861
0.0732538
0.0712142
0.0691699
0.104101
0.10068
0.0977096
0.0950425
0.0925816
0.0902704
0.0880677
0.0859437
0.0838767
0.0818498
0.0798492
0.0778612
0.0758699
0.0738536
0.0717773
0.0695614
0.10376
0.100439
0.0975384
0.0949175
0.0924856
0.0901907
0.0879945
0.0858694
0.0837949
0.0817549
0.0797357
0.0777239
0.0757047
0.0736592
0.0715621
0.0693745
0.103121
0.1
0.0972374
0.0947085
0.0923367
0.0900788
0.0879034
0.0857874
0.0837136
0.0816678
0.079638
0.0776124
0.0755789
0.0735234
0.0714301
0.0692825
0.102232
0.0994037
0.0968388
0.0944397
0.0921521
0.089947
0.0878029
0.0857037
0.0836367
0.0815909
0.0795567
0.0775248
0.0754856
0.0734297
0.071348
0.0692347
0.101164
0.0987132
0.0963908
0.0941456
0.0919559
0.0898115
0.087704
0.0856255
0.0835688
0.0815267
0.0794922
0.0774584
0.0754185
0.0733664
0.0712975
0.0692104
0.100027
0.0980171
0.095957
0.0938694
0.0917766
0.0896911
0.0876187
0.0855605
0.0835146
0.0814775
0.0794447
0.0774113
0.0753728
0.0733252
0.0712666
0.069198
0.0990074
0.0974468
0.0956224
0.0936645
0.0916473
0.0896062
0.0875598
0.0855165
0.0834788
0.0814458
0.0794149
0.0773826
0.0753455
0.0733014
0.0712494
0.0691918
0.0983915
0.0971703
0.0954804
0.0935825
0.091597
0.0895736
0.0875374
0.0854999
0.0834653
0.0814339
0.0794037
0.0773717
0.0753353
0.0732923
0.0712427
0.0691889
0.104547
0.101044
0.0980074
0.095287
0.0927828
0.0904369
0.0882066
0.0860609
0.0839772
0.0819378
0.0799279
0.077933
0.0759361
0.0739138
0.0718291
0.069598
0.104197
0.100797
0.0978318
0.0951586
0.0926841
0.0903547
0.0881309
0.0859838
0.0838921
0.0818386
0.079809
0.0777889
0.0757624
0.0737094
0.0716029
0.0694018
0.103542
0.100347
0.0975229
0.0949441
0.0925312
0.0902396
0.0880369
0.085899
0.0838075
0.0817477
0.0797067
0.0776719
0.0756301
0.0735663
0.0714638
0.0693048
0.10263
0.0997348
0.097114
0.0946683
0.0923417
0.0901042
0.0879334
0.0858125
0.0837278
0.0816677
0.0796217
0.0775799
0.0755319
0.0734675
0.0713769
0.0692537
0.101535
0.0990266
0.0966546
0.0943666
0.0921403
0.0899651
0.0878317
0.0857318
0.0836575
0.0816009
0.0795544
0.0775103
0.0754614
0.0734007
0.0713233
0.0692275
0.100369
0.0983127
0.0962097
0.0940834
0.0919564
0.0898415
0.087744
0.0856648
0.0836014
0.0815498
0.0795048
0.077461
0.0754133
0.0733573
0.0712905
0.069214
0.0993241
0.097728
0.0958666
0.0938732
0.0918237
0.0897543
0.0876835
0.0856195
0.0835645
0.081517
0.0794737
0.0774309
0.0753847
0.0733321
0.0712723
0.0692072
0.0986927
0.0974444
0.0957209
0.093789
0.0917721
0.0897209
0.0876604
0.0856024
0.0835505
0.0815046
0.0794621
0.0774196
0.0753739
0.0733226
0.0712651
0.069204
0.104848
0.101291
0.0982096
0.0954532
0.0929199
0.0905506
0.0883016
0.0861412
0.0840462
0.0819982
0.0799819
0.0779821
0.075981
0.0739543
0.0718635
0.0696219
0.104492
0.101039
0.0980309
0.0953226
0.0928194
0.0904667
0.0882242
0.0860622
0.0839587
0.0818961
0.0798592
0.0778333
0.0758017
0.0737435
0.0716304
0.06942
0.103827
0.100581
0.0977168
0.0951044
0.0926638
0.0903495
0.0881283
0.0859754
0.083872
0.0818026
0.0797539
0.0777126
0.0756651
0.0735957
0.0714867
0.0693199
0.102899
0.0999593
0.097301
0.0948239
0.092471
0.0902116
0.0880228
0.0858871
0.0837903
0.0817204
0.0796664
0.0776178
0.0755637
0.0734935
0.0713967
0.0692668
0.101786
0.0992392
0.0968338
0.0945171
0.0922662
0.09007
0.0879191
0.0858047
0.0837184
0.0816519
0.0795971
0.0775461
0.0754909
0.0734243
0.0713411
0.0692393
0.100601
0.0985134
0.0963815
0.0942291
0.0920791
0.0899443
0.0878298
0.0857363
0.0836611
0.0815995
0.0795462
0.0774953
0.0754412
0.0733794
0.0713071
0.0692251
0.099539
0.097919
0.0960328
0.0940155
0.0919442
0.0898556
0.0877682
0.0856902
0.0836233
0.0815658
0.0795142
0.0774642
0.0754117
0.0733534
0.0712881
0.0692179
0.0988969
0.0976304
0.0958845
0.0939298
0.0918917
0.0898215
0.0877447
0.0856727
0.083609
0.0815531
0.0795022
0.0774525
0.0754005
0.0733434
0.0712807
0.0692145
0.104997
0.101414
0.0983101
0.0955359
0.0929882
0.0906073
0.088349
0.0861814
0.0840806
0.0820284
0.0800088
0.0780066
0.0760034