/*--------------------------------*- C++ -*----------------------------------*\
| =========                 |                                                 |
| \\      /  F ield         | foam-extend: Open Source CFD                    |
|  \\    /   O peration     | Version:     3.1                                |
|   \\  /    A nd           | Web:         http://www.extend-project.de       |
|    \\/     M anipulation  |                                                 |
\*---------------------------------------------------------------------------*/
FoamFile
{
    version     2.0;
    format      ascii;
    class       surfaceScalarField;
    location    "0.2";
    object      phi;
}
// * * * * * * * * * * * * * * * * * * * * * * * * * * * * * * * * * * * * * //

dimensions      [0 3 -1 0 0 0 0];

internalField   nonuniform List<scalar> 
41600
(
2.35943e-06
-1.32992e-06
-1.38514e-06
1.48346e-06
3.15742e-06
-8.96023e-07
-1.51287e-06
1.61091e-06
3.585e-06
-5.05379e-07
-1.34403e-06
1.42183e-06
3.81554e-06
-2.89287e-07
-1.15301e-06
1.21176e-06
3.93868e-06
-1.66688e-07
-9.81728e-07
1.02527e-06
3.99996e-06
-9.33046e-08
-8.38998e-07
8.71029e-07
4.02297e-06
-4.65745e-08
-7.27222e-07
7.5078e-07
4.01972e-06
-1.41961e-08
-6.47283e-07
6.64729e-07
3.9954e-06
1.11519e-08
-6.00448e-07
6.1362e-07
3.95039e-06
3.4495e-08
-5.89847e-07
6.00362e-07
3.88032e-06
6.01313e-08
-6.22263e-07
6.32197e-07
3.77348e-06
9.29445e-08
-7.10964e-07
7.24865e-07
3.60174e-06
1.4033e-07
-8.80518e-07
9.11922e-07
3.2895e-06
2.17509e-07
-1.17245e-06
1.26718e-06
2.58316e-06
3.59841e-07
-1.61963e-06
1.96614e-06
5.86016e-07
-1.83217e-06
3.21074e-06
3.84812e-06
-2.14806e-06
-1.80557e-06
1.9408e-06
4.44128e-06
-1.62309e-06
-2.0053e-06
2.13921e-06
4.81995e-06
-9.88862e-07
-1.77407e-06
1.87888e-06
5.04207e-06
-5.89758e-07
-1.51395e-06
1.5923e-06
5.16458e-06
-3.46874e-07
-1.28361e-06
1.34128e-06
5.22481e-06
-1.95746e-07
-1.09317e-06
1.13539e-06
5.24452e-06
-9.72268e-08
-9.44439e-07
9.75373e-07
5.23541e-06
-2.79132e-08
-8.37653e-07
8.60488e-07
5.20246e-06
2.69306e-08
-7.7381e-07
7.90982e-07
5.14559e-06
7.77632e-08
-7.56341e-07
7.69941e-07
5.05948e-06
1.33615e-07
-7.93215e-07
8.0584e-07
4.93068e-06
2.0455e-07
-9.00234e-07
9.17424e-07
4.72818e-06
3.04788e-07
-1.10632e-06
1.14437e-06
4.37435e-06
4.58374e-07
-1.45738e-06
1.57034e-06
3.62469e-06
7.09694e-07
-1.96881e-06
2.36862e-06
1.05411e-06
-2.06123e-06
3.58732e-06
4.99734e-06
-2.39281e-06
-1.9868e-06
2.14571e-06
5.17219e-06
-1.95058e-06
-2.18029e-06
2.33293e-06
5.31628e-06
-1.24951e-06
-1.90166e-06
2.01822e-06
5.40902e-06
-7.68062e-07
-1.6049e-06
1.69047e-06
5.45919e-06
-4.59183e-07
-1.34927e-06
1.41141e-06
5.47831e-06
-2.59876e-07
-1.1413e-06
1.18632e-06
5.47478e-06
-1.26407e-07
-9.79955e-07
1.01267e-06
5.45337e-06
-3.0473e-08
-8.63592e-07
8.87556e-07
5.41567e-06
4.67676e-08
-7.91828e-07
8.09688e-07
5.36033e-06
1.19177e-07
-7.66878e-07
7.80805e-07
5.28257e-06
1.98866e-07
-7.95304e-07
8.0782e-07
5.17181e-06
2.99071e-07
-8.90788e-07
9.07023e-07
5.0043e-06
4.3747e-07
-1.07845e-06
1.11329e-06
4.71942e-06
6.40924e-07
-1.39665e-06
1.49898e-06
4.11845e-06
9.51964e-07
-1.84595e-06
2.20465e-06
1.32333e-06
-1.84646e-06
3.21454e-06
6.04404e-06
-2.25218e-06
-2.15231e-06
2.33441e-06
5.85077e-06
-1.92814e-06
-2.32896e-06
2.49979e-06
5.75062e-06
-1.27698e-06
-2.00037e-06
2.128e-06
5.69178e-06
-8.01237e-07
-1.66675e-06
1.75877e-06
5.64999e-06
-4.83228e-07
-1.38676e-06
1.4526e-06
5.61427e-06
-2.7128e-07
-1.16258e-06
1.2097e-06
5.57932e-06
-1.25337e-07
-9.8977e-07
1.02365e-06
5.54197e-06
-1.76849e-08
-8.64227e-07
8.88795e-07
5.49959e-06
7.10658e-08
-7.83659e-07
8.01735e-07
5.44931e-06
1.55693e-07
-7.48435e-07
7.62199e-07
5.38716e-06
2.49295e-07
-7.62817e-07
7.74547e-07
5.30626e-06
3.6602e-07
-8.37032e-07
8.50976e-07
5.19147e-06
5.24034e-07
-9.9047e-07
1.01869e-06
5.00115e-06
7.49091e-07
-1.25209e-06
1.33425e-06
4.58741e-06
1.07657e-06
-1.6127e-06
1.90183e-06
1.42229e-06
-1.5414e-06
2.66417e-06
6.93525e-06
-1.8597e-06
-2.30481e-06
2.50807e-06
6.46081e-06
-1.64171e-06
-2.46871e-06
2.65673e-06
6.15516e-06
-1.10967e-06
-2.09384e-06
2.23218e-06
5.95891e-06
-7.03343e-07
-1.72464e-06
1.82299e-06
5.82896e-06
-4.2276e-07
-1.42044e-06
1.48992e-06
5.73868e-06
-2.30172e-07
-1.17973e-06
1.2289e-06
5.6719e-06
-9.3551e-08
-9.94842e-07
1.02984e-06
5.61859e-06
1.05076e-08
-8.59217e-07
8.84328e-07
5.57234e-06
9.91001e-08
-7.68505e-07
7.86721e-07
5.52884e-06
1.85699e-07
-7.20997e-07
7.34489e-07
5.48494e-06
2.82456e-07
-7.18342e-07
7.29088e-07
5.43726e-06
4.02483e-07
-7.66896e-07
7.78105e-07
5.37849e-06
5.62318e-07
-8.79876e-07
9.00368e-07
5.28379e-06
7.84684e-07
-1.0768e-06
1.13591e-06
5.0496e-06
1.09826e-06
-1.34125e-06
1.55375e-06
1.39888e-06
-1.20804e-06
2.06791e-06
7.62859e-06
-1.30467e-06
-2.43075e-06
2.65127e-06
6.95502e-06
-1.17057e-06
-2.58683e-06
2.78925e-06
6.49474e-06
-7.96899e-07
-2.17402e-06
2.32154e-06
6.18988e-06
-5.02353e-07
-1.77446e-06
1.87833e-06
5.98761e-06
-2.93189e-07
-1.44891e-06
1.52161e-06
5.85152e-06
-1.45085e-07
-1.19309e-06
1.24408e-06
5.75792e-06
-3.59298e-08
-9.96694e-07
1.03268e-06
5.69169e-06
5.11582e-08
-8.51e-07
8.76582e-07
5.64346e-06
1.2901e-07
-7.49735e-07
7.68055e-07
5.60789e-06
2.0806e-07
-6.89172e-07
7.02383e-07
5.58262e-06
2.97935e-07
-6.68358e-07
6.78147e-07
5.56745e-06
4.09094e-07
-6.89808e-07
6.98362e-07
5.5621e-06
5.54724e-07
-7.60673e-07
7.73619e-07
5.55729e-06
7.53012e-07
-8.91391e-07
9.27873e-07
5.4915e-06
1.02687e-06
-1.0595e-06
1.19668e-06
1.27118e-06
-8.69688e-07
1.46994e-06
8.10086e-06
-6.51925e-07
-2.51964e-06
2.75229e-06
7.30086e-06
-5.83288e-07
-2.67129e-06
2.88401e-06
6.73893e-06
-3.89127e-07
-2.23161e-06
2.38578e-06
6.36063e-06
-2.31955e-07
-1.80986e-06
1.91776e-06
6.10855e-06
-1.16179e-07
-1.46817e-06
1.54323e-06
5.94082e-06
-2.96943e-08
-1.20043e-06
1.25277e-06
5.82916e-06
3.90327e-08
-9.94425e-07
1.03113e-06
5.75521e-06
9.91925e-08
-8.39757e-07
8.65671e-07
5.70772e-06
1.58122e-07
-7.28585e-07
7.4696e-07
5.68074e-06
2.22061e-07
-6.5542e-07
6.68395e-07
5.67271e-06
2.96949e-07
-6.16982e-07
6.26001e-07
5.68617e-06
3.89241e-07
-6.12279e-07
6.18676e-07
5.72735e-06
5.06919e-07
-6.42859e-07
6.49477e-07
5.80278e-06
6.60783e-07
-7.10653e-07
7.27455e-07
5.89636e-06
8.64364e-07
-7.87638e-07
8.56564e-07
1.03168e-06
-5.45949e-07
9.03577e-07
8.34013e-06
-2.56503e-06
2.80394e-06
4.63414e-08
7.47967e-06
-2.71421e-06
2.93226e-06
5.91162e-08
6.86859e-06
-2.26017e-06
2.41779e-06
6.43293e-08
6.4547e-06
-1.82622e-06
1.93621e-06
7.1942e-08
6.17882e-06
-1.4752e-06
1.55149e-06
8.34082e-08
5.99672e-06
-1.20001e-06
1.25303e-06
9.93931e-08
5.87803e-06
-9.87294e-07
1.02435e-06
1.20668e-07
5.80293e-06
-8.25625e-07
8.51682e-07
1.48236e-07
5.75933e-06
-7.06059e-07
7.24427e-07
1.83355e-07
5.74107e-06
-6.2178e-07
6.34591e-07
2.2751e-07
5.74712e-06
-5.67661e-07
5.76214e-07
2.82345e-07
5.78181e-06
-5.39835e-07
5.44909e-07
3.49473e-07
5.85617e-06
-5.35101e-07
5.37594e-07
4.30063e-07
5.9909e-06
-5.4798e-07
5.50896e-07
5.23143e-07
6.22643e-06
-5.46552e-07
5.62492e-07
6.12888e-07
-2.70808e-07
4.20473e-07
6.0627e-07
2.49622e-06
-1.42388e-06
-1.25061e-06
3.31521e-06
-9.59719e-07
-1.37214e-06
3.73766e-06
-5.41112e-07
-1.22537e-06
3.95091e-06
-3.09395e-07
-1.05687e-06
4.05162e-06
-1.77864e-07
-9.04566e-07
4.08851e-06
-9.90491e-08
-7.76842e-07
4.0863e-06
-4.86853e-08
-6.7633e-07
4.05668e-06
-1.34727e-08
-6.04183e-07
4.0033e-06
1.46013e-08
-5.61671e-07
3.92353e-06
4.11996e-08
-5.51279e-07
3.80756e-06
7.14341e-08
-5.77732e-07
3.63409e-06
1.11538e-07
-6.49025e-07
3.359e-06
1.71516e-07
-7.76946e-07
2.88787e-06
2.71958e-07
-9.73269e-07
2.02385e-06
4.57123e-07
-1.21274e-06
7.2684e-07
-1.17924e-06
4.08129e-06
-2.29821e-06
-1.62549e-06
4.67073e-06
-1.73837e-06
-1.81609e-06
5.0303e-06
-1.05877e-06
-1.61598e-06
5.22452e-06
-6.30722e-07
-1.38684e-06
5.31531e-06
-3.70081e-07
-1.18218e-06
5.34262e-06
-2.07703e-07
-1.01183e-06
5.32905e-06
-1.01451e-07
-8.78104e-07
5.28564e-06
-2.59903e-08
-7.81721e-07
5.21536e-06
3.48416e-08
-7.23774e-07
5.11433e-06
9.28606e-08
-7.06972e-07
4.97055e-06
1.58812e-07
-7.36814e-07
4.75914e-06
2.45447e-07
-8.22737e-07
4.43107e-06
3.71627e-07
-9.78358e-07
3.89159e-06
5.69118e-07
-1.21506e-06
2.97758e-06
8.88907e-07
-1.48658e-06
1.27491e-06
-1.33227e-06
5.31141e-06
-2.55876e-06
-1.7819e-06
5.45137e-06
-2.08883e-06
-1.9698e-06
5.55793e-06
-1.3377e-06
-1.72929e-06
5.61197e-06
-8.21279e-07
-1.46838e-06
5.62392e-06
-4.8975e-07
-1.24156e-06
5.60612e-06
-2.75515e-07
-1.05569e-06
5.56686e-06
-1.31452e-07
-9.1069e-07
5.50981e-06
-2.68669e-08
-8.05672e-07
5.43441e-06
5.89643e-08
-7.4055e-07
5.33564e-06
1.41757e-07
-7.17005e-07
5.2026e-06
2.35958e-07
-7.39409e-07
5.01458e-06
3.58341e-07
-8.1566e-07
4.73242e-06
5.3233e-07
-9.56999e-07
4.28242e-06
7.93354e-07
-1.17089e-06
3.54201e-06
1.1879e-06
-1.40454e-06
1.60057e-06
-1.19073e-06
6.43306e-06
-2.40744e-06
-1.92368e-06
6.17864e-06
-2.06455e-06
-2.09882e-06
6.02309e-06
-1.36696e-06
-1.81556e-06
5.91437e-06
-8.56588e-07
-1.52272e-06
5.82762e-06
-5.15161e-07
-1.27461e-06
5.75117e-06
-2.872e-07
-1.07445e-06
5.67865e-06
-1.29483e-07
-9.19218e-07
5.60536e-06
-1.18807e-08
-8.0592e-07
5.52648e-06
8.70136e-08
-7.32829e-07
5.43584e-06
1.84043e-07
-7.00077e-07
5.32429e-06
2.94932e-07
-7.10243e-07
5.1767e-06
4.37734e-07
-7.68835e-07
4.96558e-06
6.36772e-07
-8.83794e-07
4.63898e-06
9.26526e-07
-1.05867e-06
4.1101e-06
1.34491e-06
-1.24082e-06
1.73153e-06
-9.94884e-07
7.38836e-06
-1.98737e-06
-2.05443e-06
6.83285e-06
-1.75773e-06
-2.22001e-06
6.4569e-06
-1.18779e-06
-1.89706e-06
6.20082e-06
-7.51789e-07
-1.57336e-06
6.01968e-06
-4.50402e-07
-1.30406e-06
5.8851e-06
-2.43057e-07
-1.0893e-06
5.77917e-06
-9.51257e-08
-9.23269e-07
5.69001e-06
1.89245e-08
-8.00855e-07
5.60901e-06
1.18073e-07
-7.18565e-07
5.52904e-06
2.17808e-07
-6.74794e-07
5.44283e-06
3.32895e-07
-6.70098e-07
5.34068e-06
4.80331e-07
-7.07338e-07
5.20584e-06
6.82747e-07
-7.91017e-07
5.00535e-06
9.71389e-07
-9.21171e-07
4.68042e-06
1.37682e-06
-1.04823e-06
1.71685e-06
-7.82924e-07
8.13166e-06
-1.3941e-06
-2.16251e-06
7.36296e-06
-1.25337e-06
-2.32249e-06
6.82118e-06
-8.5305e-07
-1.96697e-06
6.44867e-06
-5.36861e-07
-1.61688e-06
6.1902e-06
-3.11981e-07
-1.32886e-06
6.00698e-06
-1.52223e-07
-1.1007e-06
5.87311e-06
-3.36038e-08
-9.24348e-07
5.77145e-06
6.23944e-08
-7.92802e-07
5.69054e-06
1.50153e-07
-7.00905e-07
5.6227e-06
2.41856e-07
-6.45385e-07
5.56255e-06
3.49476e-07
-6.24785e-07
5.5054e-06
4.87018e-07
-6.39352e-07
5.44441e-06
6.7332e-07
-6.90257e-07
5.3641e-06
9.34669e-07
-7.74353e-07
5.23149e-06
1.29615e-06
-8.46222e-07
1.57882e-06
-5.67394e-07
8.638e-06
-6.96837e-07
-2.23883e-06
7.73398e-06
-6.24874e-07
-2.39577e-06
7.08322e-06
-4.1676e-07
-2.01714e-06
6.63205e-06
-2.47836e-07
-1.64771e-06
6.32043e-06
-1.2304e-07
-1.3455e-06
6.10378e-06
-2.92774e-08
-1.10672e-06
5.95139e-06
4.60563e-08
-9.21693e-07
5.8428e-06
1.13181e-07
-7.81955e-07
5.76486e-06
1.80506e-07
-6.81001e-07
5.70979e-06
2.55596e-07
-6.14085e-07
5.67398e-06
3.46249e-07
-5.7795e-07
5.65736e-06
4.61819e-07
-5.70461e-07
5.66245e-06
6.15074e-07
-5.89699e-07
5.69188e-06
8.2413e-07
-6.29543e-07
5.74313e-06
1.10604e-06
-6.48773e-07
1.31335e-06
-3.59279e-07
8.89456e-06
-2.27774e-06
4.88429e-08
7.92585e-06
-2.43291e-06
6.25363e-08
7.22247e-06
-2.04189e-06
6.83504e-08
6.73327e-06
-1.66179e-06
7.69309e-08
6.39643e-06
-1.35131e-06
8.99077e-08
6.16486e-06
-1.10583e-06
1.08114e-07
6.00573e-06
-9.14673e-07
1.32563e-07
5.89715e-06
-7.68483e-07
1.64613e-07
5.82535e-06
-6.59796e-07
2.06046e-07
5.78279e-06
-5.82757e-07
2.59136e-07
5.76731e-06
-5.32669e-07
3.26732e-07
5.78233e-06
-5.05423e-07
4.12388e-07
5.83818e-06
-4.96422e-07
5.20544e-07
5.9556e-06
-4.96841e-07
6.55577e-07
6.17897e-06
-4.70147e-07
8.06262e-07
-1.82492e-07
8.59279e-07
2.61475e-06
-1.50466e-06
-1.08607e-06
3.45321e-06
-1.01479e-06
-1.19581e-06
3.8723e-06
-5.72152e-07
-1.07231e-06
4.0712e-06
-3.26923e-07
-9.28844e-07
4.15259e-06
-1.87619e-07
-7.98334e-07
4.16807e-06
-1.04035e-07
-6.88291e-07
4.14342e-06
-5.04402e-08
-6.01243e-07
4.09025e-06
-1.2674e-08
-5.38333e-07
4.01126e-06
1.78752e-08
-5.00559e-07
3.90207e-06
4.74118e-08
-4.89504e-07
3.75041e-06
8.16974e-08
-5.07763e-07
3.53238e-06
1.27928e-07
-5.58924e-07
3.20419e-06
1.97659e-07
-6.46417e-07
2.68567e-06
3.13636e-07
-7.68387e-07
1.84341e-06
5.2094e-07
-8.91424e-07
8.02639e-07
-8.01073e-07
4.28286e-06
-2.42741e-06
-1.40841e-06
4.87102e-06
-1.83815e-06
-1.58088e-06
5.21555e-06
-1.11954e-06
-1.41312e-06
5.38647e-06
-6.66448e-07
-1.21824e-06
5.44997e-06
-3.9034e-07
-1.04296e-06
5.44842e-06
-2.18072e-07
-8.96245e-07
5.40527e-06
-1.04941e-07
-7.80455e-07
5.33126e-06
-2.3946e-08
-6.96438e-07
5.2281e-06
4.23019e-08
-6.45039e-07
5.08971e-06
1.06751e-07
-6.27917e-07
4.90112e-06
1.8147e-07
-6.48005e-07
4.63469e-06
2.81024e-07
-7.09398e-07
4.24284e-06
4.26832e-07
-8.15681e-07
3.65044e-06
6.53449e-07
-9.62473e-07
2.77359e-06
1.00935e-06
-1.09814e-06
1.39697e-06
-9.06219e-07
5.58248e-06
-2.70167e-06
-1.53931e-06
5.69457e-06
-2.20862e-06
-1.71142e-06
5.77036e-06
-1.41443e-06
-1.51019e-06
5.79185e-06
-8.67711e-07
-1.28861e-06
5.77094e-06
-5.16422e-07
-1.09456e-06
5.72082e-06
-2.89043e-07
-9.346e-07
5.64986e-06
-1.3554e-07
-8.09122e-07
5.56104e-06
-2.31568e-08
-7.17641e-07
5.45238e-06
7.04433e-08
-6.60037e-07
5.31676e-06
1.62513e-07
-6.37149e-07
5.14061e-06
2.69284e-07
-6.51067e-07
4.90096e-06
4.09871e-07
-7.04859e-07
4.56079e-06
6.10737e-07
-8.00737e-07
4.0657e-06
9.1e-07
-9.32339e-07
3.36645e-06
1.34836e-06
-1.0443e-06
1.75284e-06
-8.08716e-07
6.76856e-06
-2.54122e-06
-1.6572e-06
6.46382e-06
-2.18283e-06
-1.81986e-06
6.26221e-06
-1.4453e-06
-1.58309e-06
6.11137e-06
-9.04883e-07
-1.3347e-06
5.986e-06
-5.4299e-07
-1.12267e-06
5.87395e-06
-3.00898e-07
-9.50551e-07
5.76816e-06
-1.32661e-07
-8.16303e-07
5.66284e-06
-6.06609e-09
-7.1769e-07
5.55169e-06
1.02017e-07
-6.53253e-07
5.42659e-06
2.10148e-07
-6.22613e-07
5.27617e-06
3.36043e-07
-6.26581e-07
5.0836e-06
5.0033e-07
-6.66728e-07
4.82361e-06
7.30521e-07
-7.43586e-07
4.46086e-06
1.06358e-06
-8.49497e-07
3.96942e-06
1.52985e-06
-9.30875e-07
1.90384e-06
-6.74359e-07
7.77897e-06
-2.0974e-06
-1.76598e-06
7.15616e-06
-1.85838e-06
-1.92164e-06
6.72141e-06
-1.25579e-06
-1.65182e-06
6.41467e-06
-7.94021e-07
-1.37749e-06
6.18957e-06
-4.74413e-07
-1.14754e-06
6.01636e-06
-2.54006e-07
-9.62979e-07
5.87583e-06
-9.59324e-08
-8.19465e-07
5.75471e-06
2.71835e-08
-7.12984e-07
5.6429e-06
1.35924e-07
-6.40664e-07
5.53155e-06
2.47461e-07
-6.00753e-07
5.41159e-06
3.78534e-07
-5.9263e-07
5.27212e-06
5.48704e-07
-6.16245e-07
5.09836e-06
7.83742e-07
-6.70477e-07
4.87043e-06
1.11723e-06
-7.46896e-07
4.57651e-06
1.57172e-06
-7.96175e-07
1.89784e-06
-5.30377e-07
8.56525e-06
-1.47114e-06
-1.85597e-06
7.71728e-06
-1.32517e-06
-2.00773e-06
7.10714e-06
-9.01875e-07
-1.71075e-06
6.6773e-06
-5.66848e-07
-1.41422e-06
6.37058e-06
-3.28159e-07
-1.1684e-06
6.14632e-06
-1.58036e-07
-9.72406e-07
5.97692e-06
-3.08792e-08
-8.20007e-07
5.84371e-06
7.32491e-08
-7.05654e-07
5.73372e-06
1.70058e-07
-6.25056e-07
5.63785e-06
2.73186e-07
-5.75232e-07
5.54933e-06
3.96388e-07
-5.54124e-07
5.46276e-06
5.56019e-07
-5.60097e-07
5.37287e-06
7.73862e-07
-5.90482e-07
5.27355e-06
1.07856e-06
-6.3637e-07
5.16475e-06
1.48798e-06
-6.53684e-07
1.75844e-06
-3.8451e-07
9.10092e-06
-7.35441e-07
-1.91952e-06
8.11006e-06
-6.60817e-07
-2.06926e-06
7.3847e-06
-4.40646e-07
-1.753e-06
6.87175e-06
-2.61448e-07
-1.44016e-06
6.50905e-06
-1.28671e-07
-1.18229e-06
6.24986e-06
-2.83695e-08
-9.77197e-07
6.0616e-06
5.29917e-08
-8.17298e-07
5.92219e-06
1.26532e-07
-6.95828e-07
5.81708e-06
2.01587e-07
-6.07428e-07
5.73732e-06
2.86822e-07
-5.47954e-07
5.67839e-06
3.91455e-07
-5.14095e-07
5.63995e-06
5.26785e-07
-5.02782e-07
5.62589e-06
7.08152e-07
-5.09927e-07
5.64497e-06
9.56148e-07
-5.26203e-07
5.71412e-06
1.28294e-06
-5.12888e-07
1.48471e-06
-2.43273e-07
9.37237e-06
-1.95189e-06
5.11988e-08
8.31327e-06
-2.10039e-06
6.57694e-08
7.53232e-06
-1.77376e-06
7.2161e-08
6.9793e-06
-1.45188e-06
8.1664e-08
6.59018e-06
-1.18694e-06
9.60755e-08
6.31565e-06
-9.76052e-07
1.16387e-07
6.12096e-06
-8.1082e-07
1.43833e-07
5.98262e-06
-6.83713e-07
1.80096e-07
5.88561e-06
-5.8861e-07
2.27416e-07
5.82147e-06
-5.20514e-07
2.88721e-07
5.78758e-06
-4.75116e-07
3.67789e-07
5.78762e-06
-4.4816e-07
4.69485e-07
5.83358e-06
-4.34305e-07
6.00065e-07
5.9507e-06
-4.23782e-07
7.65973e-07
6.19279e-06
-3.83667e-07
9.54372e-07
-1.23891e-07
1.02562e-06
2.71432e-06
-1.5721e-06
-8.97193e-07
3.56995e-06
-1.06096e-06
-9.90485e-07
3.98694e-06
-5.9826e-07
-8.91039e-07
4.17422e-06
-3.41701e-07
-7.74425e-07
4.23953e-06
-1.95846e-07
-6.678e-07
4.23694e-06
-1.08217e-07
-5.77482e-07
4.19323e-06
-5.18598e-08
-5.05674e-07
4.12014e-06
-1.1896e-08
-4.53346e-07
4.01996e-06
2.07777e-08
-4.21163e-07
3.8876e-06
5.27889e-08
-4.09928e-07
3.71016e-06
9.03576e-08
-4.20679e-07
3.46427e-06
1.41257e-07
-4.54295e-07
3.11023e-06
2.17778e-07
-5.10154e-07
2.58087e-06
3.43262e-07
-5.82287e-07
1.77094e-06
5.62011e-07
-6.43506e-07
8.47879e-07
-5.53571e-07
4.45191e-06
-2.53532e-06
-1.16145e-06
5.04021e-06
-1.92184e-06
-1.30832e-06
5.37311e-06
-1.17067e-06
-1.17361e-06
5.52506e-06
-6.96566e-07
-1.01532e-06
5.56586e-06
-4.07421e-07
-8.72182e-07
5.53996e-06
-2.26762e-07
-7.51799e-07
5.4717e-06
-1.07749e-07
-6.56303e-07
5.37182e-06
-2.1998e-08
-5.86455e-07
5.24144e-06
4.88832e-08
-5.42769e-07
5.07359e-06
1.18721e-07
-5.26e-07
4.85264e-06
2.00515e-07
-5.37213e-07
4.55181e-06
3.09921e-07
-5.7723e-07
4.12914e-06
4.69571e-07
-6.44799e-07
3.5263e-06
7.14698e-07
-7.31073e-07
2.69472e-06
1.09058e-06
-7.95128e-07
1.47476e-06
-6.26509e-07
5.80956e-06
-2.82107e-06
-1.26642e-06
5.8997e-06
-2.30916e-06
-1.41425e-06
5.95078e-06
-1.47902e-06
-1.25292e-06
5.94562e-06
-9.06863e-07
-1.07315e-06
5.89735e-06
-5.389e-07
-9.14816e-07
5.81999e-06
-3.00356e-07
-7.8365e-07
5.72212e-06
-1.38773e-07
-6.80228e-07
5.60642e-06
-1.96827e-08
-6.04252e-07
5.47018e-06
8.05628e-08
-5.5548e-07
5.30539e-06
1.80407e-07
-5.34044e-07
5.09792e-06
2.9733e-07
-5.4041e-07
4.82587e-06
4.51849e-07
-5.74738e-07
4.45786e-06
6.71827e-07
-6.34991e-07
3.95573e-06
9.95748e-07
-7.11249e-07
3.30335e-06
1.45859e-06
-7.59942e-07
1.85095e-06
-5.58517e-07
7.04942e-06
-2.65302e-06
-1.36045e-06
6.70408e-06
-2.28216e-06
-1.50151e-06
6.46504e-06
-1.51126e-06
-1.31181e-06
6.27956e-06
-9.45601e-07
-1.11048e-06
6.12203e-06
-5.66414e-07
-9.37626e-07
5.98002e-06
-3.12297e-07
-7.96593e-07
5.846e-06
-1.35039e-07
-6.86023e-07
5.71355e-06
-6.88641e-10
-6.04232e-07
5.57553e-06
1.15257e-07
-5.49924e-07
5.42296e-06
2.32707e-07
-5.22344e-07
5.24403e-06
3.70762e-07
-5.21085e-07
5.023e-06
5.51577e-07
-5.45424e-07
4.73968e-06
8.04087e-07
-5.92532e-07
4.37283e-06
1.16529e-06
-6.52189e-07
3.92445e-06
1.65821e-06
-6.82103e-07
2.01438e-06
-4.64548e-07
8.10587e-06
-2.18936e-06
-1.44725e-06
7.42835e-06
-1.94292e-06
-1.58336e-06
6.94556e-06
-1.31305e-06
-1.36724e-06
6.5971e-06
-8.29595e-07
-1.14503e-06
6.3354e-06
-4.94562e-07
-9.57688e-07
6.12968e-06
-2.63014e-07
-8.06548e-07
5.95982e-06
-9.62212e-08
-6.8842e-07
5.81158e-06
3.47979e-08
-6.00228e-07
5.674e-06
1.51703e-07
-5.39526e-07
5.53737e-06
2.73179e-07
-5.04602e-07
5.39232e-06
4.17265e-07
-4.94078e-07
5.22891e-06
6.05037e-07
-5.06298e-07
5.03661e-06
8.63637e-07
-5.37729e-07
4.80678e-06
1.22655e-06
-5.7832e-07
4.54929e-06
1.70841e-06
-5.88884e-07
2.01443e-06
-3.64176e-07
8.92806e-06
-1.5355e-06
-1.5191e-06
8.01546e-06
-1.38545e-06
-1.65259e-06
7.34934e-06
-9.42934e-07
-1.41476e-06
6.87221e-06
-5.92032e-07
-1.17465e-06
6.52533e-06
-3.41623e-07
-9.74462e-07
6.26656e-06
-1.62628e-07
-8.14017e-07
6.06705e-06
-2.80962e-08
-6.88621e-07
5.90705e-06
8.30911e-08
-5.93946e-07
5.77259e-06
1.87691e-07
-5.2659e-07
5.65386e-06
3.00482e-07
-4.83808e-07
5.54387e-06
4.36444e-07
-4.63307e-07
5.43803e-06
6.13315e-07
-4.62539e-07
5.33438e-06
8.54176e-07
-4.77365e-07
5.23502e-06
1.18768e-06
-4.98144e-07
5.15506e-06
1.6243e-06
-4.89613e-07
1.8756e-06
-2.62866e-07
9.48825e-06
-7.6762e-07
-1.56985e-06
8.4265e-06
-6.90902e-07
-1.70207e-06
7.63998e-06
-4.60622e-07
-1.44879e-06
7.07606e-06
-2.72737e-07
-1.19553e-06
6.67085e-06
-1.33146e-07
-9.85555e-07
6.37591e-06
-2.72027e-08
-8.17688e-07
6.15726e-06
5.94078e-08
-6.86146e-07
5.99163e-06
1.38549e-07
-5.8566e-07
5.86354e-06
2.20303e-07
-5.1195e-07
5.76339e-06
3.14168e-07
-4.61489e-07
5.68654e-06
4.30341e-07
-4.31147e-07
5.63339e-06
5.81261e-07
-4.1758e-07
5.61032e-06
7.83434e-07
-4.1611e-07
5.63153e-06
1.05779e-06
-4.17532e-07
5.72269e-06
1.41096e-06
-3.90703e-07
1.599e-06
-1.64823e-07
9.77215e-06
-1.59567e-06
5.33182e-08
8.63922e-06
-1.72705e-06
6.86863e-08
7.79468e-06
-1.46545e-06
7.56043e-08
7.18899e-06
-1.20487e-06
8.59419e-08
6.75639e-06
-9.89134e-07
1.01646e-07
6.4458e-06
-8.1651e-07
1.23847e-07
6.22099e-06
-6.8057e-07
1.53969e-07
6.05732e-06
-5.75449e-07
1.9396e-07
5.93886e-06
-4.96276e-07
2.46425e-07
5.85667e-06
-4.38927e-07
3.14776e-07
5.80811e-06
-3.99628e-07
4.03414e-07
5.79764e-06
-3.74388e-07
5.17949e-07
5.83938e-06
-3.58046e-07
6.65443e-07
5.96237e-06
-3.41758e-07
8.52775e-07
6.22446e-06
-2.99049e-07
1.06425e-06
-8.28854e-08
1.14053e-06
2.79447e-06
-1.62613e-06
-6.89272e-07
3.66438e-06
-1.09807e-06
-7.62324e-07
4.08012e-06
-6.19296e-07
-6.87479e-07
4.25835e-06
-3.53623e-07
-5.99035e-07
4.31086e-06
-2.02481e-07
-5.17828e-07
4.29373e-06
-1.11573e-07
-4.48781e-07
4.23466e-06
-5.2967e-08
-3.93637e-07
4.14565e-06
-1.12109e-08
-3.53127e-07
4.02894e-06
2.31812e-08
-3.27634e-07
3.87931e-06
5.71477e-08
-3.17442e-07
3.68413e-06
9.721e-08
-3.22709e-07
3.42142e-06
1.51463e-07
-3.43046e-07
3.05525e-06
2.32512e-07
-3.76504e-07
2.5264e-06
3.63813e-07
-4.17245e-07
1.74035e-06
5.8906e-07
-4.46515e-07
8.77002e-07
-3.74738e-07
4.5878e-06
-2.62174e-06
-8.91226e-07
5.17695e-06
-1.98909e-06
-1.00645e-06
5.50109e-06
-1.21183e-06
-9.0522e-07
5.63818e-06
-7.20843e-07
-7.85197e-07
5.66089e-06
-4.21182e-07
-6.76192e-07
5.61542e-06
-2.33728e-07
-5.8417e-07
5.52693e-06
-1.09931e-07
-5.10845e-07
5.40636e-06
-2.03078e-08
-4.56797e-07
5.25473e-06
5.4312e-08
-4.22267e-07
5.06491e-06
1.28399e-07
-4.0743e-07
4.82165e-06
2.15565e-07
-4.12311e-07
4.50003e-06
3.32083e-07
-4.36229e-07
4.06306e-06
5.01108e-07
-4.76421e-07
3.46257e-06
7.57864e-07
-5.24642e-07
2.66384e-06
1.14534e-06
-5.52673e-07
1.52636e-06
-4.2409e-07
5.99192e-06
-2.91671e-06
-9.69974e-07
6.06528e-06
-2.38998e-06
-1.08673e-06
6.09717e-06
-1.53103e-06
-9.65601e-07
6.071e-06
-9.38421e-07
-8.29405e-07
6.00093e-06
-5.57002e-07
-7.08924e-07
5.90168e-06
-3.09407e-07
-6.08723e-07
5.78213e-06
-1.41248e-07
-5.29362e-07
5.64491e-06
-1.66983e-08
-4.70639e-07
5.48707e-06
8.89107e-08
-4.32237e-07
5.30042e-06
1.94888e-07
-4.13887e-07
5.07125e-06
3.19537e-07
-4.1521e-07
4.77954e-06
4.84169e-07
-4.35108e-07
4.39881e-06
7.17211e-07
-4.70368e-07
3.90072e-06
1.05681e-06
-5.12107e-07
3.28235e-06
1.5339e-06
-5.30129e-07
1.91666e-06
-3.77773e-07
7.27486e-06
-2.74258e-06
-1.04022e-06
6.89785e-06
-2.36204e-06
-1.15243e-06
6.62946e-06
-1.56439e-06
-1.01005e-06
6.4166e-06
-9.78418e-07
-8.57625e-07
6.23341e-06
-5.85258e-07
-7.26185e-07
6.06731e-06
-3.2138e-07
-6.18518e-07
5.91054e-06
-1.36771e-07
-5.33736e-07
5.75634e-06
3.88128e-09
-4.70605e-07
5.59717e-06
1.26198e-07
-4.28046e-07
5.42387e-06
2.51012e-07
-4.05169e-07
5.225e-06
3.98353e-07
-4.01034e-07
4.98656e-06
5.91228e-07
-4.14044e-07
4.69277e-06
8.59102e-07
-4.40627e-07
4.33095e-06
1.23833e-06
-4.71895e-07
3.91439e-06
1.74661e-06
-4.78251e-07
2.0882e-06
-3.13511e-07
8.36819e-06
-2.26302e-06
-1.10512e-06
7.64776e-06
-2.01091e-06
-1.21405e-06
7.12715e-06
-1.35917e-06
-1.05185e-06
6.74562e-06
-8.58243e-07
-8.83681e-07
6.45471e-06
-5.1073e-07
-7.41298e-07
6.22287e-06
-2.70122e-07
-6.25975e-07
6.02934e-06
-9.62012e-08
-5.35456e-07
5.85933e-06
4.11288e-08
-4.67469e-07
5.70134e-06
1.64783e-07
-4.20119e-07
5.54546e-06
2.94127e-07
-3.91838e-07
5.38262e-06
4.48188e-07
-3.81074e-07
5.20439e-06
6.48876e-07
-3.85716e-07
5.00389e-06
9.23812e-07
-4.01932e-07
4.77938e-06
1.30569e-06
-4.21177e-07
4.5495e-06
1.80329e-06
-4.15677e-07
2.09218e-06
-2.44815e-07
9.21917e-06
-1.58704e-06
-1.15888e-06
8.25574e-06
-1.4339e-06
-1.26617e-06
7.54545e-06
-9.75969e-07
-1.08767e-06
7.03083e-06
-6.1226e-07
-9.06008e-07
6.65189e-06
-3.52351e-07
-7.53906e-07
6.3654e-06
-1.6612e-07
-6.31524e-07
6.1416e-06
-2.55485e-08
-5.35481e-07
5.95998e-06
9.13992e-08
-4.62592e-07
5.80606e-06
2.0234e-07
-4.10231e-07
5.66973e-06
3.22812e-07
-3.76159e-07
5.54424e-06
4.68605e-07
-3.58239e-07
5.42625e-06
6.58211e-07
-3.53885e-07
5.31662e-06
9.15164e-07
-3.59078e-07
5.22254e-06
1.26742e-06
-3.65798e-07
5.16506e-06
1.71985e-06
-3.48694e-07
1.95414e-06
-1.75582e-07
9.799e-06
-7.93337e-07
-1.19685e-06
8.68147e-06
-7.15021e-07
-1.30341e-06
7.84665e-06
-4.76618e-07
-1.11332e-06
7.24227e-06
-2.81704e-07
-9.21718e-07
6.80314e-06
-1.36566e-07
-7.62201e-07
6.4795e-06
-2.59949e-08
-6.34177e-07
6.23632e-06
6.49409e-08
-5.33452e-07
6.04951e-06
1.48688e-07
-4.56141e-07
5.90301e-06
2.35899e-07
-3.99009e-07
5.78695e-06
3.36654e-07
-3.59267e-07
5.6969e-06
4.61772e-07
-3.34267e-07
5.63424e-06
6.24302e-07
-3.21009e-07
5.60744e-06
8.41173e-07
-3.15327e-07
5.63415e-06
1.13294e-06
-3.09749e-07
5.743e-06
1.50186e-06
-2.81569e-07
1.67669e-06
-1.08693e-07
1.00929e-05
-1.21615e-06
5.51194e-08
8.90184e-06
-1.32219e-06
7.11707e-08
8.00707e-06
-1.12583e-06
7.85395e-08
7.35959e-06
-9.28688e-07
8.95874e-08
6.8923e-06
-7.64795e-07
1.06387e-07
6.55275e-06
-6.33139e-07
1.30182e-07
6.30363e-06
-5.29052e-07
1.62545e-07
6.11945e-06
-4.4821e-07
2.05631e-07
5.98372e-06
-3.86961e-07
2.62308e-07
5.88725e-06
-3.42119e-07
3.36318e-07
5.82761e-06
-3.10647e-07
4.32432e-07
5.81012e-06
-2.89223e-07
5.56629e-07
5.85058e-06
-2.73553e-07
7.1622e-07
5.98052e-06
-2.56658e-07
9.17898e-07
6.25886e-06
-2.19047e-07
1.14352e-06
-5.35585e-08
1.22021e-06
2.85491e-06
-1.66676e-06
-4.6728e-07
3.73575e-06
-1.12613e-06
-5.17032e-07
4.1508e-06
-6.35226e-07
-4.67304e-07
4.32241e-06
-3.62659e-07
-4.07984e-07
4.36538e-06
-2.07513e-07
-3.53278e-07
4.33734e-06
-1.14114e-07
-3.06632e-07
4.26675e-06
-5.37947e-08
-2.69246e-07
4.1659e-06
-1.06754e-08
-2.41603e-07
4.03714e-06
2.50102e-08
-2.23888e-07
3.87542e-06
6.04152e-08
-2.16133e-07
3.66861e-06
1.0225e-07
-2.18155e-07
3.39604e-06
1.5878e-07
-2.29256e-07
3.02441e-06
2.42744e-07
-2.47612e-07
2.49866e-06
3.77599e-07
-2.69095e-07
1.7278e-06
6.06719e-07
-2.82375e-07
8.95889e-07
-2.3339e-07
4.69015e-06
-2.68655e-06
-6.04106e-07
5.28026e-06
-2.03971e-06
-6.82983e-07
5.59816e-06
-1.24284e-06
-6.15503e-07
5.7243e-06
-7.39135e-07
-5.34866e-07
5.73351e-06
-4.31546e-07
-4.61372e-07
5.67335e-06
-2.38955e-07
-3.99165e-07
5.56967e-06
-1.11533e-07
-3.49429e-07
5.43372e-06
-1.89806e-08
-3.12539e-07
5.26659e-06
5.84389e-08
-2.88567e-07
5.06137e-06
1.3564e-07
-2.77429e-07
4.80347e-06
2.26619e-07
-2.78781e-07
4.46965e-06
3.47983e-07
-2.91617e-07
4.02633e-06
5.23095e-07
-3.13447e-07
3.43074e-06
7.87033e-07
-3.38485e-07
2.65293e-06
1.1814e-06
-3.49549e-07
1.56027e-06
-2.63811e-07
6.12909e-06
-2.98842e-06
-6.56258e-07
6.19028e-06
-2.4508e-06
-7.3683e-07
6.2081e-06
-1.5702e-06
-6.5606e-07
6.16638e-06
-9.62189e-07
-5.64634e-07
6.08003e-06
-5.7062e-07
-4.83494e-07
5.96435e-06
-3.16182e-07
-4.15818e-07
5.82852e-06
-1.43039e-07
-3.62033e-07
5.67527e-06
-1.436e-08
-3.22e-07
5.50163e-06
9.52643e-08
-2.95431e-07
5.29961e-06
2.05739e-07
-2.81958e-07
5.05612e-06
3.35886e-07
-2.80987e-07
4.75282e-06
5.07439e-07
-2.91272e-07
4.3666e-06
7.49027e-07
-3.1007e-07
3.87434e-06
1.09839e-06
-3.31204e-07
3.27782e-06
1.58392e-06
-3.36126e-07
1.96019e-06
-2.3494e-07
7.44431e-06
-2.80976e-06
-7.02732e-07
7.04404e-06
-2.42217e-06
-7.80781e-07
6.75396e-06
-1.60442e-06
-6.85758e-07
6.52076e-06
-1.00314e-06
-5.83472e-07
6.3184e-06
-5.99425e-07
-4.95021e-07
6.13421e-06
-3.28159e-07
-4.22357e-07
5.96036e-06
-1.37971e-07
-3.64946e-07
5.7899e-06
7.45849e-09
-3.21969e-07
5.61522e-06
1.34542e-07
-2.92644e-07
5.42724e-06
2.64767e-07
-2.76212e-07
5.21511e-06
4.18733e-07
-2.7175e-07
4.96635e-06
6.19902e-07
-2.77748e-07
4.66817e-06
8.97887e-07
-2.91306e-07
4.31254e-06
1.28839e-06
-3.06276e-07
3.91677e-06
1.80573e-06
-3.04281e-07
2.13713e-06
-1.94707e-07
8.5653e-06
-2.31828e-06
-7.45809e-07
7.81322e-06
-2.0621e-06
-8.22047e-07
7.26459e-06
-1.39392e-06
-7.13721e-07
6.85846e-06
-8.7981e-07
-6.00875e-07
6.54569e-06
-5.22863e-07
-5.05098e-07
6.29425e-06
-2.75385e-07
-4.27304e-07
6.08292e-06
-9.605e-08
-3.66047e-07
5.89661e-06
4.61234e-08
-3.19823e-07
5.72357e-06
1.74782e-07
-2.87321e-07
5.55394e-06
3.09919e-07
-2.67358e-07
5.37913e-06
4.71123e-07
-2.58654e-07
5.19201e-06
6.80735e-07
-2.59434e-07
4.9882e-06
9.66482e-07
-2.66715e-07
4.76972e-06
1.36029e-06
-2.74601e-07
4.55829e-06
1.86711e-06
-2.65625e-07
2.14365e-06
-1.51543e-07
9.43786e-06
-1.62568e-06
-7.81525e-07
8.43691e-06
-1.47036e-06
-8.56958e-07
7.69385e-06
-1.00084e-06
-7.37699e-07
7.15129e-06
-6.27459e-07
-6.1579e-07
6.74837e-06
-3.60356e-07
-5.13496e-07
6.44105e-06
-1.68628e-07
-4.30965e-07
6.19898e-06
-2.34564e-08
-3.66001e-07
6.00113e-06
9.78724e-08
-3.16497e-07
5.83278e-06
2.13574e-07
-2.80666e-07
5.68374e-06
3.39713e-07
-2.56915e-07
5.54768e-06
4.92571e-07
-2.43624e-07
5.42229e-06
6.91021e-07
-2.3878e-07
5.31037e-06
9.58689e-07
-2.39366e-07
5.22189e-06
1.32283e-06
-2.39859e-07
5.17985e-06
1.78455e-06
-2.24091e-07
2.00622e-06
-1.08024e-07
1.00324e-05
-8.12596e-07
-8.0676e-07
8.87369e-06
-7.33133e-07
-8.81893e-07
8.00301e-06
-4.88612e-07
-7.54857e-07
7.36849e-06
-2.88381e-07
-6.26276e-07
6.90396e-06
-1.39029e-07
-5.19004e-07
6.55876e-06
-2.49272e-08
-4.32679e-07
6.29711e-06
6.93148e-08
-3.64566e-07
6.09437e-06
1.5657e-07
-3.12099e-07
5.93414e-06
2.47892e-07
-2.73097e-07
5.80647e-06
3.53748e-07
-2.45631e-07
5.70724e-06
4.85324e-07
-2.27792e-07
5.63865e-06
6.55964e-07
-2.17364e-07
5.61065e-06
8.8269e-07
-2.11325e-07
5.6427e-06
1.18557e-06
-2.04543e-07
5.76409e-06
1.56391e-06
-1.8232e-07
1.72852e-06
-6.60286e-08
1.03338e-05
-8.19578e-07
5.65334e-08
9.09983e-06
-8.94448e-07
7.31244e-08
8.16775e-06
-7.6321e-07
8.08485e-08
7.48913e-06
-6.30903e-07
9.24536e-08
6.99588e-06
-5.20685e-07
1.1011e-07
6.63458e-06
-4.31912e-07
1.35143e-07
6.36714e-06
-3.61533e-07
1.69239e-07
6.1675e-06
-3.06694e-07
2.14695e-07