/*--------------------------------*- C++ -*----------------------------------*\
| =========                 |                                                 |
| \\      /  F ield         | foam-extend: Open Source CFD                    |
|  \\    /   O peration     | Version:     3.1                                |
|   \\  /    A nd           | Web:         http://www.extend-project.de       |
|    \\/     M anipulation  |                                                 |
\*---------------------------------------------------------------------------*/
FoamFile
{
    version     2.0;
    format      ascii;
    class       pointVectorField;
    location    "0.2";
    object      pointMotionU;
}
// * * * * * * * * * * * * * * * * * * * * * * * * * * * * * * * * * * * * * //

dimensions      [0 1 -1 0 0 0 0];

internalField   nonuniform List<vector> 
16859
(
(0 0 0)
(0 0 0)
(0 0 0)
(0 0 0)
(0 0 0)
(0 0 0)
(0 0 0)
(0 0 0)
(0 0 0)
(0 0 0)
(0 0 0)
(0 0 0)
(0 0 0)
(0 0 0)
(0 0 0)
(0 0 0)
(0 0 0)
(0 0 0)
(9.88634e-10 4.48933e-11 -4.16387e-11)
(1.91038e-09 8.87389e-11 -8.26523e-11)
(2.76309e-09 1.33336e-10 -1.24892e-10)
(3.57407e-09 1.81947e-10 -1.71274e-10)
(4.36862e-09 2.38244e-10 -2.24617e-10)
(5.17148e-09 3.06839e-10 -2.87791e-10)
(6.00822e-09 3.93972e-10 -3.63776e-10)
(6.90643e-09 5.08494e-10 -4.55574e-10)
(7.89688e-09 6.632e-10 -5.65819e-10)
(9.01403e-09 8.76503e-10 -6.95706e-10)
(1.02954e-08 1.17401e-09 -8.42411e-10)
(1.17773e-08 1.58805e-09 -9.93236e-10)
(1.34813e-08 2.14921e-09 -1.1134e-09)
(1.53735e-08 2.85072e-09 -1.12658e-09)
(1.72374e-08 3.5142e-09 -9.15023e-10)
(2.28286e-08 5.02867e-09 2.28096e-09)
(0 0 0)
(1.95652e-09 8.70997e-11 -8.20131e-11)
(3.7798e-09 1.71993e-10 -1.62754e-10)
(5.4648e-09 2.57976e-10 -2.45835e-10)
(7.06473e-09 3.51103e-10 -3.36972e-10)
(8.62861e-09 4.58083e-10 -4.41707e-10)
(1.0204e-08 5.8716e-10 -5.65716e-10)
(1.18397e-08 7.493e-10 -7.15008e-10)
(1.35876e-08 9.59793e-10 -8.959e-10)
(1.55049e-08 1.24038e-09 -1.11463e-09)
(1.76544e-08 1.62188e-09 -1.37614e-09)
(2.01023e-08 2.14628e-09 -1.68127e-09)
(2.29077e-08 2.86499e-09 -2.02061e-09)
(2.60928e-08 3.82267e-09 -2.36291e-09)
(2.95587e-08 4.99613e-09 -2.63785e-09)
(3.2876e-08 6.0877e-09 -2.7217e-09)
(4.09018e-08 8.7811e-09 -3.04915e-09)
(0 0 0)
(2.88401e-09 1.24243e-10 -1.19932e-10)
(5.56956e-09 2.44941e-10 -2.379e-10)
(8.0473e-09 3.66348e-10 -3.59094e-10)
(1.03937e-08 4.96501e-10 -4.91797e-10)
(1.26785e-08 6.44014e-10 -6.44051e-10)
(1.49688e-08 8.19112e-10 -8.24167e-10)
(1.73319e-08 1.03493e-09 -1.04112e-09)
(1.98386e-08 1.3092e-09 -1.30477e-09)
(2.25649e-08 1.66635e-09 -1.62591e-09)
(2.5592e-08 2.14e-09 -2.01585e-09)
(2.90017e-08 2.77452e-09 -2.48521e-09)
(3.28608e-08 3.622e-09 -3.04127e-09)
(3.71768e-08 4.7232e-09 -3.68251e-09)
(4.17862e-08 6.0413e-09 -4.3851e-09)
(4.6111e-08 7.25325e-09 -5.04156e-09)
(5.57959e-08 1.03239e-08 -8.25995e-09)
(0 0 0)
(3.75341e-09 1.54488e-10 -1.54339e-10)
(7.24493e-09 3.03918e-10 -3.05954e-10)
(1.04591e-08 4.52862e-10 -4.61349e-10)
(1.3492e-08 6.10342e-10 -6.31009e-10)
(1.64302e-08 7.85568e-10 -8.25118e-10)
(1.93556e-08 9.88874e-10 -1.05426e-09)
(2.23487e-08 1.23274e-09 -1.33001e-09)
(2.5492e-08 1.53301e-09 -1.66554e-09)
(2.8871e-08 1.91025e-09 -2.07616e-09)
(3.25741e-08 2.3911e-09 -2.57995e-09)
(3.66859e-08 3.00859e-09 -3.19829e-09)
(4.1269e-08 3.79887e-09 -3.95586e-09)
(4.63159e-08 4.78621e-09 -4.87706e-09)
(5.16309e-08 5.93356e-09 -5.96426e-09)
(5.65846e-08 6.9834e-09 -7.08264e-09)
(6.76932e-08 1.00983e-08 -1.19998e-08)
(0 0 0)
(4.54996e-09 1.76694e-10 -1.84386e-10)
(8.77721e-09 3.46731e-10 -3.65205e-10)
(1.26582e-08 5.14385e-10 -5.49931e-10)
(1.63043e-08 6.88702e-10 -7.50784e-10)
(1.98145e-08 8.78305e-10 -9.79588e-10)
(2.32804e-08 1.09202e-09 -1.24861e-09)
(2.67898e-08 1.33937e-09 -1.57135e-09)
(3.04294e-08 1.63097e-09 -1.96336e-09)
(3.42853e-08 1.97863e-09 -2.44322e-09)
(3.84421e-08 2.39498e-09 -3.03378e-09)
(4.29748e-08 2.89207e-09 -3.7635e-09)
(4.7932e-08 3.47812e-09 -4.66678e-09)
(5.32909e-08 4.15039e-09 -5.77766e-09)
(5.88514e-08 4.87631e-09 -7.09556e-09)
(6.4011e-08 5.51995e-09 -8.43935e-09)
(7.56719e-08 7.87175e-09 -1.39567e-08)
(0 0 0)
(5.26227e-09 1.90427e-10 -2.09484e-10)
(1.01445e-08 3.72662e-10 -4.14466e-10)
(1.46132e-08 5.50213e-10 -6.23002e-10)
(1.87904e-08 7.31395e-10 -8.48496e-10)
(2.27831e-08 9.23414e-10 -1.1038e-09)
(2.66877e-08 1.13259e-09 -1.40214e-09)
(3.05936e-08 1.36426e-09 -1.75794e-09)
(3.45851e-08 1.62232e-09 -2.18773e-09)
(3.87414e-08 1.90795e-09 -2.71125e-09)
(4.31334e-08 2.21757e-09 -3.35272e-09)
(4.78167e-08 2.53941e-09 -4.14217e-09)
(5.28143e-08 2.84942e-09 -5.11489e-09)
(5.80803e-08 3.10939e-09 -6.30228e-09)
(6.3415e-08 3.27634e-09 -7.68958e-09)
(6.82883e-08 3.33208e-09 -9.05791e-09)
(7.92797e-08 4.38748e-09 -1.42397e-08)
(0 0 0)
(5.88246e-09 1.95866e-10 -2.29327e-10)
(1.13321e-08 3.82258e-10 -4.5314e-10)
(1.63038e-08 5.61654e-10 -6.79668e-10)
(2.0926e-08 7.41191e-10 -9.2292e-10)
(2.53094e-08 9.26282e-10 -1.19613e-09)
(2.95508e-08 1.1205e-09 -1.51265e-09)
(3.37367e-08 1.32501e-09 -1.88676e-09)
(3.7944e-08 1.5375e-09 -2.33441e-09)
(4.22392e-08 1.75007e-09 -2.87411e-09)
(4.66744e-08 1.94617e-09 -3.52782e-09)
(5.12784e-08 2.09608e-09 -4.32158e-09)
(5.60414e-08 2.15184e-09 -5.2844e-09)
(6.08839e-08 2.04571e-09 -6.4402e-09)
(6.55954e-08 1.70797e-09 -7.77357e-09)
(6.97209e-08 1.16362e-09 -9.0868e-09)
(7.86954e-08 -1.83656e-10 -1.34044e-08)
(0 0 0)
(6.40626e-09 1.93637e-10 -2.43915e-10)
(1.23328e-08 3.76944e-10 -4.81261e-10)
(1.77216e-08 5.51339e-10 -7.20056e-10)
(2.27036e-08 7.2262e-10 -9.74346e-10)
(2.73891e-08 8.94454e-10 -1.25713e-09)
(3.18722e-08 1.06805e-09 -1.58114e-09)
(3.62332e-08 1.2414e-09 -1.9595e-09)
(4.05389e-08 1.40797e-09 -2.4062e-09)
(4.48408e-08 1.55464e-09 -2.93648e-09)
(4.91705e-08 1.65892e-09 -3.56685e-09)
(5.353e-08 1.6856e-09 -4.31434e-09)
(5.78773e-08 1.58434e-09 -5.19304e-09)
(6.20994e-08 1.29303e-09 -6.20356e-09)
(6.59718e-08 7.61376e-10 -7.30079e-09)
(6.91263e-08 3.67906e-11 -8.28676e-09)
(7.34561e-08 -4.03948e-09 -1.32957e-08)
(0 0 0)
(0 0 0)
(0 0 0)
(0 0 0)
(0 0 0)
(0 0 0)
(0 0 0)
(0 0 0)
(0 0 0)
(0 0 0)
(0 0 0)
(0 0 0)
(0 0 0)
(0 0 0)
(0 0 0)
(0 0 0)
(0 0 0)
(0 0 0)
(1.00083e-09 4.74366e-11 -4.04439e-11)
(1.934e-09 9.39057e-11 -8.02422e-11)
(2.79755e-09 1.4146e-10 -1.21162e-10)
(3.61945e-09 1.93737e-10 -1.66003e-10)
(4.42558e-09 2.54893e-10 -2.17457e-10)
(5.24122e-09 3.3023e-10 -2.78239e-10)
(6.09234e-09 4.27043e-10 -3.5114e-10)
(7.00683e-09 5.55878e-10 -4.38932e-10)
(8.01547e-09 7.32365e-10 -5.43981e-10)
(9.15239e-09 9.79857e-10 -6.67247e-10)
(1.04541e-08 1.3329e-09 -8.0588e-10)
(1.19557e-08 1.84068e-09 -9.47831e-10)
(1.36774e-08 2.5664e-09 -1.06067e-09)
(1.55835e-08 3.56341e-09 -1.0748e-09)
(1.74068e-08 4.72715e-09 -9.0526e-10)
(2.13444e-08 8.8898e-09 1.2527e-09)
(0 0 0)
(1.98045e-09 9.19927e-11 -7.96624e-11)
(3.82611e-09 1.81917e-10 -1.58015e-10)
(5.5323e-09 2.73536e-10 -2.38507e-10)
(7.15347e-09 3.73595e-10 -3.26629e-10)
(8.73975e-09 4.89674e-10 -4.27673e-10)
(1.03397e-08 6.31245e-10 -5.47028e-10)
(1.20027e-08 8.11113e-10 -6.90342e-10)
(1.37812e-08 1.04746e-09 -8.63502e-10)
(1.5732e-08 1.36678e-09 -1.07227e-09)
(1.79166e-08 1.80797e-09 -1.32122e-09)
(2.03978e-08 2.42721e-09 -1.61137e-09)
(2.32284e-08 3.30158e-09 -1.93528e-09)
(2.64188e-08 4.52246e-09 -2.26835e-09)
(2.98446e-08 6.14482e-09 -2.55798e-09)
(3.2953e-08 7.94857e-09 -2.72783e-09)
(3.7572e-08 1.24645e-08 -2.92635e-09)
(0 0 0)
(2.91881e-09 1.31127e-10 -1.16501e-10)
(5.63681e-09 2.58866e-10 -2.30988e-10)
(8.14514e-09 3.88082e-10 -3.48421e-10)
(1.0522e-08 5.27709e-10 -4.76759e-10)
(1.28386e-08 6.87469e-10 -6.23695e-10)
(1.51633e-08 8.79086e-10 -7.97139e-10)
(1.75642e-08 1.11787e-09 -1.00557e-09)
(2.01123e-08 1.42485e-09 -1.25829e-09)
(2.28826e-08 1.82968e-09 -1.56547e-09)
(2.5953e-08 2.37455e-09 -1.93803e-09)
(2.93985e-08 3.11825e-09 -2.38711e-09)
(3.32719e-08 4.13764e-09 -2.92336e-09)
(3.7554e-08 5.51571e-09 -3.55592e-09)
(4.20252e-08 7.27936e-09 -4.28669e-09)
(4.5919e-08 9.15294e-09 -5.048e-09)
(5.09686e-08 1.31458e-08 -6.88933e-09)
(0 0 0)
(3.79785e-09 1.62891e-10 -1.49935e-10)
(7.33069e-09 3.20853e-10 -2.97092e-10)
(1.05835e-08 4.79128e-10 -4.47687e-10)
(1.36545e-08 6.47726e-10 -6.11807e-10)
(1.66321e-08 8.37013e-10 -7.99211e-10)
(1.95993e-08 1.05881e-09 -1.01999e-09)
(2.26376e-08 1.32762e-09 -1.28517e-09)
(2.58288e-08 1.66218e-09 -1.60726e-09)
(2.92566e-08 2.08736e-09 -2.00092e-09)
(3.30039e-08 2.63637e-09 -2.48389e-09)
(3.71446e-08 3.35272e-09 -3.0784e-09)
(4.17205e-08 4.2895e-09 -3.81333e-09)
(4.66859e-08 5.49862e-09 -4.72553e-09)
(5.17706e-08 6.98293e-09 -5.84476e-09)
(5.6122e-08 8.51023e-09 -7.0623e-09)
(6.1748e-08 1.15223e-08 -9.77166e-09)
(0 0 0)
(4.60257e-09 1.86086e-10 -1.79141e-10)
(8.87853e-09 3.65575e-10 -3.54664e-10)
(1.28047e-08 5.43396e-10 -5.33717e-10)
(1.64948e-08 7.29553e-10 -7.28065e-10)
(2.00497e-08 9.33719e-10 -9.49058e-10)
(2.35623e-08 1.16595e-09 -1.20844e-09)
(2.71208e-08 1.43727e-09 -1.51911e-09)
(3.08107e-08 1.76018e-09 -1.89596e-09)
(3.47149e-08 2.14892e-09 -2.35697e-09)
(3.89104e-08 2.61918e-09 -2.92483e-09)
(4.34584e-08 3.18703e-09 -3.62917e-09)
(4.83815e-08 3.86623e-09 -4.50916e-09)
(5.3613e-08 4.66278e-09 -5.61178e-09)
(5.8874e-08 5.55886e-09 -6.96276e-09)
(6.33336e-08 6.43472e-09 -8.39946e-09)
(6.92417e-08 8.03366e-09 -1.12855e-08)
(0 0 0)
(5.32142e-09 2.00281e-10 -2.03545e-10)
(1.02582e-08 3.92339e-10 -4.02549e-10)
(1.4777e-08 5.80254e-10 -6.04719e-10)
(1.90023e-08 7.7319e-10 -8.22972e-10)
(2.3043e-08 9.79189e-10 -1.06967e-09)
(2.69965e-08 1.2054e-09 -1.35749e-09)
(3.09523e-08 1.45798e-09 -1.70029e-09)
(3.49929e-08 1.74146e-09 -2.11402e-09)
(3.91927e-08 2.0573e-09 -2.61794e-09)
(4.36137e-08 2.40111e-09 -3.23639e-09)
(4.82945e-08 2.75834e-09 -4.00108e-09)
(5.32294e-08 3.09846e-09 -4.95297e-09)
(5.83254e-08 3.37182e-09 -6.13773e-09)
(6.33062e-08 3.52248e-09 -7.56797e-09)
(6.74374e-08 3.54483e-09 -9.04271e-09)
(7.29717e-08 3.47917e-09 -1.16085e-08)
(0 0 0)
(5.94649e-09 2.05708e-10 -2.2285e-10)
(1.14549e-08 4.01808e-10 -4.40166e-10)
(1.648e-08 5.91242e-10 -6.59821e-10)
(2.11528e-08 7.81837e-10 -8.95326e-10)
(2.55854e-08 9.79587e-10 -1.15942e-09)
(2.98758e-08 1.18848e-09 -1.46496e-09)
(3.41099e-08 1.40984e-09 -1.82569e-09)
(3.83622e-08 1.6409e-09 -2.25708e-09)
(4.26937e-08 1.87225e-09 -2.77738e-09)
(4.71462e-08 2.08364e-09 -3.40897e-09)
(5.17301e-08 2.23755e-09 -4.18015e-09)
(5.64048e-08 2.27086e-09 -5.12671e-09)
(6.10416e-08 2.0882e-09 -6.28968e-09)
(6.53514e-08 1.57788e-09 -7.68913e-09)
(6.87012e-08 7.57028e-10 -9.1614e-09)
(7.29377e-08 -1.65476e-09 -1.13953e-08)
(0 0 0)
(6.47356e-09 2.03068e-10 -2.37052e-10)
(1.24615e-08 3.95588e-10 -4.6754e-10)
(1.79056e-08 5.79315e-10 -6.99133e-10)
(2.2939e-08 7.60569e-10 -9.45387e-10)
(2.76736e-08 9.43368e-10 -1.21883e-09)
(3.2204e-08 1.129e-09 -1.53175e-09)
(3.66098e-08 1.31512e-09 -1.8968e-09)
(4.0955e-08 1.49405e-09 -2.32763e-09)
(4.52853e-08 1.65021e-09 -2.83937e-09)
(4.96215e-08 1.75619e-09 -3.44916e-09)
(5.39479e-08 1.76761e-09 -4.17635e-09)
(5.8193e-08 1.61785e-09 -5.04131e-09)
(6.21989e-08 1.21742e-09 -6.05914e-09)
(6.56736e-08 4.76911e-10 -7.21282e-09)
(6.81356e-08 -5.74255e-10 -8.33186e-09)
(6.79579e-08 -5.68508e-09 -1.20615e-08)
(0 0 0)
(0 0 0)
(0 0 0)
(0 0 0)
(0 0 0)
(0 0 0)
(0 0 0)
(0 0 0)
(0 0 0)
(0 0 0)
(0 0 0)
(0 0 0)
(0 0 0)
(0 0 0)
(0 0 0)
(0 0 0)
(0 0 0)
(0 0 0)
(1.01083e-09 4.98431e-11 -3.77478e-11)
(1.95331e-09 9.87941e-11 -7.48529e-11)
(2.82551e-09 1.49137e-10 -1.12923e-10)
(3.65571e-09 2.04849e-10 -1.54513e-10)
(4.46997e-09 2.70509e-10 -2.02039e-10)
(5.29355e-09 3.51993e-10 -2.57876e-10)
(6.15206e-09 4.57438e-10 -3.24351e-10)
(7.07243e-09 5.98638e-10 -4.03585e-10)
(8.08349e-09 7.9314e-10 -4.97031e-10)
(9.2156e-09 1.06722e-09 -6.04405e-10)
(1.04983e-08 1.45977e-09 -7.21428e-10)
(1.19538e-08 2.02571e-09 -8.35258e-10)
(1.35796e-08 2.83313e-09 -9.16378e-10)
(1.53043e-08 3.92969e-09 -9.10455e-10)
(1.68526e-08 5.17809e-09 -7.68699e-10)
(2.03578e-08 8.90909e-09 5.32713e-10)
(0 0 0)
(2.00009e-09 9.66271e-11 -7.43555e-11)
(3.86401e-09 1.91317e-10 -1.47411e-10)
(5.58713e-09 2.8826e-10 -2.22305e-10)
(7.22447e-09 3.94831e-10 -3.04052e-10)
(8.8265e-09 5.19373e-10 -3.9741e-10)
(1.04417e-08 6.7239e-10 -5.07099e-10)
(1.21187e-08 8.68152e-10 -6.37859e-10)
(1.3908e-08 1.12698e-09 -7.94283e-10)
(1.58624e-08 1.47856e-09 -9.80241e-10)
(1.80359e-08 1.96648e-09 -1.19757e-09)
(2.0477e-08 2.65348e-09 -1.44342e-09)
(2.32124e-08 3.62432e-09 -1.70543e-09)
(2.62057e-08 4.9738e-09 -1.95399e-09)
(2.92609e-08 6.73794e-09 -2.13529e-09)
(3.18119e-08 8.63444e-09 -2.19017e-09)
(3.50819e-08 1.27035e-08 -1.99595e-09)
(0 0 0)
(2.94737e-09 1.37656e-10 -1.08748e-10)
(5.6919e-09 2.72076e-10 -2.15508e-10)
(8.2247e-09 4.08693e-10 -3.24793e-10)
(1.06247e-08 5.5726e-10 -4.43879e-10)
(1.29638e-08 7.28477e-10 -5.79696e-10)
(1.53098e-08 9.35347e-10 -7.39195e-10)
(1.773e-08 1.19493e-09 -9.2955e-10)
(2.02922e-08 1.53068e-09 -1.15816e-09)
(2.30654e-08 1.97576e-09 -1.43236e-09)
(2.61164e-08 2.57714e-09 -1.75863e-09)
(2.94991e-08 3.39964e-09 -2.1411e-09)
(3.32281e-08 4.52562e-09 -2.5789e-09)
(3.72164e-08 6.03529e-09 -3.0615e-09)
(4.11452e-08 7.92356e-09 -3.55823e-09)
(4.42399e-08 9.84086e-09 -3.98638e-09)
(4.74402e-08 1.34366e-08 -4.66797e-09)
(0 0 0)
(3.83435e-09 1.70873e-10 -1.39972e-10)
(7.40098e-09 3.36951e-10 -2.77216e-10)
(1.06848e-08 5.04107e-10 -4.17395e-10)
(1.3785e-08 6.83256e-10 -5.69739e-10)
(1.67903e-08 8.85811e-10 -7.43057e-10)
(1.97836e-08 1.12488e-09 -9.46259e-10)
(2.28445e-08 1.41662e-09 -1.18874e-09)
(2.60511e-08 1.78195e-09 -1.48065e-09)
(2.94793e-08 2.24854e-09 -1.83299e-09)
(3.31978e-08 2.85307e-09 -2.25762e-09)
(3.7254e-08 3.6425e-09 -2.76691e-09)
(4.1643e-08 4.67095e-09 -3.37228e-09)
(4.62381e-08 5.9812e-09 -4.07835e-09)
(5.06561e-08 7.53927e-09 -4.85931e-09)
(5.40474e-08 9.04749e-09 -5.57847e-09)
(5.74721e-08 1.1645e-08 -6.66622e-09)
(0 0 0)
(4.6458e-09 1.95027e-10 -1.67258e-10)
(8.96166e-09 3.83537e-10 -3.30986e-10)
(1.29242e-08 5.7108e-10 -4.977e-10)
(1.66481e-08 7.68559e-10 -6.7818e-10)
(2.02347e-08 9.86619e-10 -8.82697e-10)
(2.37764e-08 1.23642e-09 -1.12166e-09)
(2.73592e-08 1.53028e-09 -1.40616e-09)
(3.10641e-08 1.88217e-09 -1.74845e-09)
(3.49649e-08 2.30788e-09 -2.1624e-09)
(3.91223e-08 2.82438e-09 -2.664e-09)
(4.35681e-08 3.44769e-09 -3.27144e-09)
(4.82738e-08 4.18779e-09 -4.00327e-09)
(5.30878e-08 5.03747e-09 -4.86809e-09)
(5.76179e-08 5.94652e-09 -5.82644e-09)
(6.10495e-08 6.75327e-09 -6.68647e-09)
(6.46424e-08 8.02033e-09 -7.77889e-09)
(0 0 0)
(5.37007e-09 2.09686e-10 -1.90071e-10)
(1.03516e-08 4.11149e-10 -3.75738e-10)
(1.49107e-08 6.0903e-10 -5.64034e-10)
(1.91732e-08 8.13309e-10 -7.66811e-10)
(2.32481e-08 1.03283e-09 -9.95283e-10)
(2.72322e-08 1.27556e-09 -1.26075e-09)
(3.12126e-08 1.54843e-09 -1.57519e-09)
(3.52665e-08 1.85659e-09 -1.95189e-09)
(3.94587e-08 2.20163e-09 -2.40601e-09)
(4.38339e-08 2.57821e-09 -2.95521e-09)
(4.84007e-08 2.96839e-09 -3.6199e-09)
(5.31021e-08 3.33385e-09 -4.4208e-09)
(5.77634e-08 3.60986e-09 -5.36619e-09)
(6.20048e-08 3.71778e-09 -6.40595e-09)
(6.51237e-08 3.64136e-09 -7.31424e-09)
(6.84463e-08 3.37243e-09 -8.1961e-09)
(0 0 0)
(5.99921e-09 2.15125e-10 -2.08131e-10)
(1.15559e-08 4.20558e-10 -4.10925e-10)
(1.66242e-08 6.19706e-10 -6.15573e-10)
(2.13362e-08 8.21079e-10 -8.34488e-10)
(2.58043e-08 1.03128e-09 -1.07927e-09)
(3.01255e-08 1.25479e-09 -1.3614e-09)
(3.43832e-08 1.49321e-09 -1.69287e-09)
(3.86466e-08 1.74363e-09 -2.08667e-09)
(4.29669e-08 1.99567e-09 -2.55736e-09)
(4.73688e-08 2.22644e-09 -3.12148e-09)
(5.18343e-08 2.39298e-09 -3.79772e-09)
(5.62752e-08 2.42212e-09 -4.60516e-09)
(6.04881e-08 2.20319e-09 -5.55438e-09)
(6.40913e-08 1.60992e-09 -6.61361e-09)
(6.64851e-08 6.72659e-10 -7.59658e-09)
(6.87335e-08 -1.93506e-09 -8.51563e-09)
(0 0 0)
(6.52907e-09 2.12119e-10 -2.21432e-10)
(1.25676e-08 4.13529e-10 -4.36566e-10)
(1.80567e-08 6.06343e-10 -6.52406e-10)
(2.31302e-08 7.97423e-10 -8.81432e-10)
(2.79004e-08 9.91201e-10 -1.13507e-09)
(3.2461e-08 1.18919e-09 -1.42435e-09)
(3.68889e-08 1.38895e-09 -1.76039e-09)
(4.12429e-08 1.58219e-09 -2.15471e-09)
(4.55596e-08 1.75173e-09 -2.61944e-09)
(4.98447e-08 1.86694e-09 -3.16728e-09)
(5.40575e-08 1.87766e-09 -3.81067e-09)
(5.80872e-08 1.70798e-09 -4.55902e-09)
(6.1718e-08 1.25631e-09 -5.40961e-09)
(6.45917e-08 4.25558e-10 -6.31954e-09)
(6.62423e-08 -7.38579e-10 -7.11886e-09)
(6.38632e-08 -6.22659e-09 -9.96191e-09)
(0 0 0)
(0 0 0)
(0 0 0)
(0 0 0)
(0 0 0)
(0 0 0)
(0 0 0)
(0 0 0)
(0 0 0)
(0 0 0)
(0 0 0)
(0 0 0)
(0 0 0)
(0 0 0)
(0 0 0)
(0 0 0)
(0 0 0)
(0 0 0)
(1.0188e-09 5.20396e-11 -3.36804e-11)
(1.96862e-09 1.03252e-10 -6.67471e-11)
(2.84743e-09 1.56125e-10 -1.00587e-10)
(3.68357e-09 2.14928e-10 -1.37407e-10)
(4.50303e-09 2.84587e-10 -1.79241e-10)
(5.33067e-09 3.71426e-10 -2.27987e-10)
(6.19127e-09 4.84169e-10 -2.85338e-10)
(7.1102e-09 6.35389e-10 -3.52516e-10)
(8.11355e-09 8.43593e-10 -4.29694e-10)
(9.227e-09 1.13607e-09 -5.14833e-10)
(1.04726e-08 1.55218e-09 -6.01559e-10)
(1.18609e-08 2.14512e-09 -6.75606e-10)
(1.3375e-08 2.9751e-09 -7.1017e-10)
(1.49362e-08 4.06943e-09 -6.65858e-10)
(1.63058e-08 5.26481e-09 -5.25052e-10)
(1.95532e-08 8.53489e-09 2.90666e-10)
(0 0 0)
(2.01574e-09 1.00861e-10 -6.63478e-11)
(3.89409e-09 1.99897e-10 -1.31458e-10)
(5.63015e-09 3.01682e-10 -1.98038e-10)
(7.2791e-09 4.14131e-10 -2.70425e-10)
(8.89121e-09 5.46225e-10 -3.52627e-10)
(1.05142e-08 7.09271e-10 -4.48432e-10)
(1.21951e-08 9.18584e-10 -5.61318e-10)
(1.39813e-08 1.19583e-09 -6.94065e-10)
(1.59204e-08 1.57229e-09 -8.47863e-10)
(1.8057e-08 2.09309e-09 -1.02059e-09)
(2.04251e-08 2.82138e-09 -1.2038e-09)
(2.30288e-08 3.83813e-09 -1.37814e-09)
(2.58032e-08 5.22366e-09 -1.50818e-09)
(2.85382e-08 6.98046e-09 -1.54435e-09)
(3.0739e-08 8.79114e-09 -1.46233e-09)
(3.35822e-08 1.22623e-08 -1.00279e-09)
(0 0 0)
(2.97017e-09 1.43631e-10 -9.70461e-11)
(5.73565e-09 2.84159e-10 -1.92207e-10)
(8.2872e-09 4.27524e-10 -2.89382e-10)
(1.0704e-08 5.84204e-10 -3.94869e-10)
(1.30574e-08 7.65722e-10 -5.14516e-10)
(1.54145e-08 9.86098e-10 -6.53931e-10)
(1.78398e-08 1.26366e-09 -8.18447e-10)
(2.0397e-08 1.62345e-09 -1.01277e-09)
(2.31474e-08 2.10037e-09 -1.24009e-09)
(2.61448e-08 2.74287e-09 -1.50042e-09)
(2.94224e-08 3.61547e-09 -1.78771e-09)
(3.29628e-08 4.79486e-09 -2.08565e-09)
(3.664e-08 6.34329e-09 -2.36271e-09)
(4.01161e-08 8.21909e-09 -2.57116e-09)
(4.27188e-08 1.00439e-08 -2.66637e-09)
(4.53075e-08 1.31801e-08 -2.57019e-09)
(0 0 0)
(3.86351e-09 1.78192e-10 -1.24925e-10)
(7.45688e-09 3.51711e-10 -2.4728e-10)
(1.07646e-08 5.27003e-10 -3.71961e-10)
(1.38858e-08 7.15797e-10 -5.06968e-10)
(1.6909e-08 9.30406e-10 -6.59758e-10)
(1.99157e-08 1.185e-09 -8.37558e-10)
(2.29825e-08 1.497e-09 -1.04745e-09)
(2.61821e-08 1.88879e-09 -1.29613e-09)
(2.95809e-08 2.38955e-09 -1.58924e-09)
(3.32319e-08 3.03685e-09 -1.92991e-09)
(3.71576e-08 3.87648e-09 -2.31619e-09)
(4.13153e-08 4.95604e-09 -2.73645e-09)
(4.55331e-08 6.3008e-09 -3.16193e-09)
(4.94084e-08 7.84547e-09 -3.53652e-09)
(5.22159e-08 9.27491e-09 -3.77695e-09)
(5.49188e-08 1.1551e-08 -3.83489e-09)
(0 0 0)
(4.68038e-09 2.03244e-10 -1.49302e-10)
(9.02787e-09 4.00053e-10 -2.95298e-10)
(1.30184e-08 5.96553e-10 -4.43632e-10)
(1.67669e-08 8.04473e-10 -6.03661e-10)
(2.03741e-08 1.03533e-09 -7.8411e-10)
(2.39309e-08 1.30124e-09 -9.93474e-10)
(2.75198e-08 1.61561e-09 -1.24022e-09)
(3.12156e-08 1.99354e-09 -1.53268e-09)
(3.50819e-08 2.45178e-09 -1.87858e-09)
(3.91621e-08 3.00747e-09 -2.2838e-09)
(4.3461e-08 3.67488e-09 -2.74975e-09)
(4.79111e-08 4.45791e-09 -3.26773e-09)
(5.23147e-08 5.33594e-09 -3.807e-09)
(5.62636e-08 6.23854e-09 -4.29427e-09)
(5.90789e-08 6.99833e-09 -4.60563e-09)
(6.19165e-08 8.13645e-09 -4.59182e-09)
(0 0 0)
(5.40905e-09 2.18353e-10 -1.69695e-10)
(1.04261e-08 4.28504e-10 -3.35297e-10)
(1.50166e-08 6.35629e-10 -5.02898e-10)
(1.93062e-08 8.50473e-10 -6.82811e-10)
(2.34036e-08 1.08265e-09 -8.84596e-10)
(2.74037e-08 1.34091e-09 -1.11753e-09)
(3.139e-08 1.63297e-09 -1.39088e-09)
(3.54333e-08 1.96469e-09 -1.71389e-09)
(3.95877e-08 2.33802e-09 -2.09539e-09)
(4.38808e-08 2.74721e-09 -2.54279e-09)
(4.82947e-08 3.17235e-09 -3.05942e-09)
(5.27353e-08 3.57062e-09 -3.63851e-09)
(5.69854e-08 3.86999e-09 -4.24916e-09)
(6.06554e-08 3.98512e-09 -4.80928e-09)
(6.31803e-08 3.90486e-09 -5.16679e-09)
(6.58114e-08 3.72426e-09 -4.99047e-09)
(0 0 0)
(6.04155e-09 2.23831e-10 -1.85856e-10)
(1.16367e-08 4.37921e-10 -3.66782e-10)
(1.67387e-08 6.46138e-10 -5.49016e-10)
(2.14796e-08 8.57665e-10 -7.43383e-10)
(2.59713e-08 1.07973e-09 -9.59805e-10)
(3.03089e-08 1.31738e-09 -1.20779e-09)
(3.45723e-08 1.57273e-09 -1.49668e-09)
(3.88242e-08 1.84317e-09 -1.8357e-09)
(4.31058e-08 2.11821e-09 -2.23355e-09)
(4.74257e-08 2.37421e-09 -2.69748e-09)
(5.17422e-08 2.56643e-09 -3.23103e-09)
(5.5934e-08 2.61906e-09 -3.82918e-09)
(5.97617e-08 2.41966e-09 -4.46818e-09)
(6.2837e-08 1.84628e-09 -5.08652e-09)
(6.46856e-08 9.41754e-10 -5.5591e-09)
(6.64015e-08 -1.42178e-09 -5.51733e-09)
(0 0 0)
(6.57376e-09 2.20512e-10 -1.97774e-10)
(1.26528e-08 4.30202e-10 -3.89764e-10)
(1.8177e-08 6.3156e-10 -5.82051e-10)
(2.32805e-08 8.32005e-10 -7.85543e-10)
(2.80748e-08 1.03644e-09 -1.01006e-09)
(3.26518e-08 1.24679e-09 -1.26478e-09)
(3.70852e-08 1.46084e-09 -1.55847e-09)
(4.14278e-08 1.67034e-09 -1.89937e-09)
(4.57073e-08 1.85777e-09 -2.29479e-09)
(4.99153e-08 1.99165e-09 -2.75001e-09)
(5.39917e-08 2.02044e-09 -3.26601e-09)
(5.77998e-08 1.86695e-09 -3.83519e-09)
(6.10973e-08 1.43041e-09 -4.43321e-09)
(6.35248e-08 6.20523e-10 -5.00504e-09)
(6.4706e-08 -5.06508e-10 -5.43932e-09)
(6.18196e-08 -5.70102e-09 -7.26221e-09)
(0 0 0)
(0 0 0)
(0 0 0)
(0 0 0)
(0 0 0)
(0 0 0)
(0 0 0)
(0 0 0)
(0 0 0)
(0 0 0)
(0 0 0)
(0 0 0)
(0 0 0)
(0 0 0)
(0 0 0)
(0 0 0)
(0 0 0)
(0 0 0)
(1.02492e-09 5.39519e-11 -2.84208e-11)
(1.98031e-09 1.07128e-10 -5.62877e-11)
(2.86394e-09 1.6219e-10 -8.47257e-11)
(3.70409e-09 2.23644e-10 -1.15528e-10)
(4.52648e-09 2.96687e-10 -1.50286e-10)
(5.35547e-09 3.87962e-10 -1.9038e-10)
(6.21488e-09 5.06567e-10 -2.36843e-10)
(7.1285e-09 6.65468e-10 -2.90023e-10)
(8.11993e-09 8.83455e-10 -3.48922e-10)
(9.21122e-09 1.18765e-09 -4.10028e-10)
(1.04195e-08 1.61599e-09 -4.65464e-10)
(1.17502e-08 2.21759e-09 -5.00542e-10)
(1.31843e-08 3.04365e-09 -4.92083e-10)
(1.46521e-08 4.1076e-09 -4.13585e-10)
(1.59454e-08 5.24176e-09 -2.68673e-10)
(1.91002e-08 8.32272e-09 3.10502e-10)
(0 0 0)
(2.02778e-09 1.04551e-10 -5.59904e-11)
(3.91705e-09 2.07369e-10 -1.10866e-10)
(5.66257e-09 3.13349e-10 -1.66828e-10)
(7.31936e-09 4.30855e-10 -2.27397e-10)
(8.93721e-09 5.69369e-10 -2.95717e-10)
(1.05628e-08 7.40786e-10 -3.74555e-10)
(1.22414e-08 9.61095e-10 -4.66075e-10)
(1.40173e-08 1.25266e-09 -5.71271e-10)
(1.59332e-08 1.64726e-09 -6.8884e-10)
(1.80269e-08 2.18969e-09 -8.13248e-10)
(2.03231e-08 2.94055e-09 -9.31762e-10)
(2.28159e-08 3.97359e-09 -1.02085e-09)
(2.54366e-08 5.35394e-09 -1.04454e-09)
(2.79935e-08 7.06168e-09 -9.64413e-10)
(3.00534e-08 8.77478e-09 -7.88824e-10)
(3.28703e-08 1.19212e-08 -2.28787e-10)
(0 0 0)
(2.98772e-09 1.48845e-10 -8.19046e-11)
(5.7691e-09 2.947e-10 -1.62119e-10)
(8.33439e-09 4.43934e-10 -2.43814e-10)
(1.07625e-08 6.07633e-10 -3.32111e-10)
(1.31242e-08 7.97981e-10 -4.31609e-10)
(1.5485e-08 1.02976e-09 -5.46427e-10)
(1.79069e-08 1.32217e-09 -6.79967e-10)
(2.04493e-08 1.70114e-09 -8.34238e-10)
(2.31667e-08 2.20216e-09 -1.00853e-09)
(2.61035e-08 2.87325e-09 -1.19712e-09)
(2.928e-08 3.77594e-09 -1.38584e-09)
(3.26655e-08 4.97852e-09 -1.54797e-09)
(3.61292e-08 6.52634e-09 -1.64251e-09)
(3.93602e-08 8.35472e-09 -1.62504e-09)
(4.17722e-08 1.00841e-08 -1.49773e-09)
(4.43384e-08 1.29427e-08 -1.01954e-09)
(0 0 0)
(3.88598e-09 1.84594e-10 -1.05448e-10)
(7.4997e-09 3.6462e-10 -2.08606e-10)
(1.08249e-08 5.47022e-10 -3.13457e-10)
(1.39605e-08 7.44222e-10 -4.26519e-10)
(1.69941e-08 9.69281e-10 -5.53675e-10)
(2.00055e-08 1.23721e-09 -7.00277e-10)
(2.30679e-08 1.56636e-09 -8.70946e-10)
(2.6249e-08 1.98007e-09 -1.06891e-09)
(2.96073e-08 2.50817e-09 -1.29461e-09)
(3.31844e-08 3.18793e-09 -1.54334e-09)
(3.6988e-08 4.06251e-09 -1.80138e-09)
(4.09608e-08 5.17229e-09 -2.04099e-09)
(4.49268e-08 6.52858e-09 -2.21658e-09)
(4.85166e-08 8.04849e-09 -2.27213e-09)
(5.11055e-08 9.41781e-09 -2.19095e-09)
(5.37982e-08 1.15348e-08 -1.71564e-09)
(0 0 0)
(4.70708e-09 2.1045e-10 -1.26045e-10)
(9.0787e-09 4.14542e-10 -2.49164e-10)
(1.30899e-08 6.18915e-10 -3.73953e-10)
(1.68553e-08 8.36018e-10 -5.08052e-10)
(2.04747e-08 1.07812e-09 -6.58372e-10)
(2.40367e-08 1.35818e-09 -8.31259e-10)
(2.76207e-08 1.69049e-09 -1.03236e-09)
(3.12956e-08 2.09108e-09 -1.26599e-09)
(3.51164e-08 2.57742e-09 -1.53387e-09)
(3.91148e-08 3.16674e-09 -1.83259e-09)
(4.32808e-08 3.87191e-09 -2.14954e-09)
(4.75327e-08 4.69281e-09 -2.45647e-09)
(5.16716e-08 5.6014e-09 -2.70239e-09)
(5.53281e-08 6.51861e-09 -2.81519e-09)
(5.79275e-08 7.27662e-09 -2.75357e-09)
(6.07859e-08 8.41208e-09 -2.16474e-09)
(0 0 0)
(5.43921e-09 2.25976e-10 -1.43289e-10)
(1.04835e-08 4.43782e-10 -2.82979e-10)
(1.50971e-08 6.59082e-10 -4.24039e-10)
(1.94056e-08 8.83317e-10 -5.74909e-10)
(2.35164e-08 1.1268e-09 -7.43197e-10)
(2.75225e-08 1.39905e-09 -9.35894e-10)
(3.15035e-08 1.70858e-09 -1.15929e-09)
(3.55247e-08 2.06211e-09 -1.41845e-09)
(3.96316e-08 2.46239e-09 -1.71595e-09)
(4.38407e-08 2.9043e-09 -2.04955e-09)
(4.81207e-08 3.3683e-09 -2.40803e-09)
(5.2366e-08 3.81178e-09 -2.76437e-09)
(5.63632e-08 4.16361e-09 -3.06667e-09)
(5.97656e-08 4.34115e-09 -3.23463e-09)
(6.21092e-08 4.33063e-09 -3.20436e-09)
(6.48303e-08 4.33785e-09 -2.4661e-09)
(0 0 0)
(6.07438e-09 2.3151e-10 -1.56969e-10)
(1.16991e-08 4.53261e-10 -3.09631e-10)
(1.68262e-08 6.69555e-10 -4.6308e-10)
(2.15874e-08 8.90207e-10 -6.26201e-10)
(2.60934e-08 1.12306e-09 -8.06928e-10)
(3.04375e-08 1.37382e-09 -1.01249e-09)
(3.46958e-08 1.64528e-09 -1.24935e-09)
(3.89256e-08 1.9356e-09 -1.52271e-09)
(4.31605e-08 2.23517e-09 -1.83543e-09)
(4.73991e-08 2.52147e-09 -2.18589e-09)
(5.15888e-08 2.75167e-09 -2.56432e-09)
(5.56007e-08 2.85383e-09 -2.94728e-09)
(5.92037e-08 2.72366e-09 -3.29105e-09)
(6.20552e-08 2.25276e-09 -3.53123e-09)
(6.3776e-08 1.48447e-09 -3.61526e-09)
(6.57238e-08 -4.73618e-10 -2.99244e-09)
(0 0 0)
(6.60851e-09 2.27938e-10 -1.67073e-10)
(1.27188e-08 4.44986e-10 -3.2912e-10)
(1.82694e-08 6.54004e-10 -4.91118e-10)
(2.33942e-08 8.62958e-10 -6.62042e-10)
(2.82035e-08 1.07728e-09 -8.49786e-10)
(3.27874e-08 1.2994e-09 -1.0614e-09)
(3.72162e-08 1.5277e-09 -1.30301e-09)
(4.15381e-08 1.75458e-09 -1.5794e-09)
(4.57739e-08 1.96339e-09 -1.89294e-09)
(4.99072e-08 2.12402e-09 -2.24171e-09)
(5.38696e-08 2.18752e-09 -2.61648e-09)
(5.75207e-08 2.08177e-09 -2.99633e-09)
(6.06288e-08 1.71558e-09 -3.34448e-09)
(6.28771e-08 1.01212e-09 -3.6099e-09)
(6.39732e-08 2.84475e-11 -3.74546e-09)
(6.15713e-08 -4.5206e-09 -4.67839e-09)
(0 0 0)
(0 0 0)
(0 0 0)
(0 0 0)
(0 0 0)
(0 0 0)
(0 0 0)
(0 0 0)
(0 0 0)
(0 0 0)
(0 0 0)
(0 0 0)
(0 0 0)
(0 0 0)
(0 0 0)
(0 0 0)
(0 0 0)
(0 0 0)
(1.0294e-09 5.55152e-11 -2.21829e-11)
(1.9888e-09 1.10294e-10 -4.39065e-11)
(2.87576e-09 1.67132e-10 -6.6015e-11)
(3.71843e-09 2.30723e-10 -8.98526e-11)
(4.54226e-09 3.0646e-10 -1.16564e-10)
(5.37106e-09 4.01202e-10 -1.47052e-10)
(6.22785e-09 5.24266e-10 -1.8181e-10)
(7.13517e-09 6.88774e-10 -2.20577e-10)
(8.11496e-09 9.13463e-10 -2.61693e-10)
(9.18729e-09 1.22487e-09 -3.01078e-10)
(1.03677e-08 1.65931e-09 -3.30798e-10)
(1.16616e-08 2.26243e-09 -3.37651e-10)
(1.3055e-08 3.08005e-09 -3.03424e-10)
(1.44914e-08 4.12084e-09 -2.12007e-10)
(1.57786e-08 5.22302e-09 -7.75104e-11)
(1.90178e-08 8.29754e-09 3.56281e-10)
(0 0 0)
(2.0366e-09 1.07569e-10 -4.37038e-11)
(3.93375e-09 2.13477e-10 -8.64862e-11)
(5.68582e-09 3.2287e-10 -1.29998e-10)
(7.34757e-09 4.44465e-10 -1.76882e-10)
(8.96823e-09 5.88116e-10 -2.29403e-10)
(1.05935e-08 7.66123e-10 -2.89379e-10)
(1.2267e-08 9.94886e-10 -3.57894e-10)
(1.40308e-08 1.29708e-09 -4.34664e-10)
(1.59243e-08 1.70444e-09 -5.16907e-10)
(1.79817e-08 2.26078e-09 -5.97526e-10)
(2.02246e-08 3.02392e-09 -6.62659e-10)
(2.26476e-08 4.06171e-09 -6.89445e-10)
(2.51919e-08 5.42987e-09 -6.47203e-10)
(2.76914e-08 7.09969e-09 -5.10943e-10)
(2.97443e-08 8.75707e-09 -3.07826e-10)
(3.27737e-08 1.17846e-08 2.23569e-10)
(0 0 0)
(3.00058e-09 1.53118e-10 -6.39376e-11)
(5.79345e-09 3.0333e-10 -1.26483e-10)
(8.36828e-09 4.57357e-10 -1.90017e-10)
(1.08036e-08 6.26759e-10 -2.58387e-10)
(1.31694e-08 8.24229e-10 -3.34917e-10)
(1.55298e-08 1.0651e-09 -4.22337e-10)
(1.79446e-08 1.36914e-09 -5.22431e-10)
(2.04699e-08 1.76272e-09 -6.35238e-10)
(2.3156e-08 2.28144e-09 -7.57592e-10)
(2.60422e-08 2.97234e-09 -8.80813e-10)
(2.91451e-08 3.89391e-09 -9.87576e-10)
(3.24353e-08 5.10801e-09 -1.04911e-09)
(3.57964e-08 6.64957e-09 -1.02684e-09)
(3.8953e-08 8.44402e-09 -8.89575e-10)
(4.13613e-08 1.01189e-08 -6.69486e-10)
(4.42015e-08 1.2858e-08 -9.92091e-11)
(0 0 0)
(3.90248e-09 1.89849e-10 -8.23272e-11)
(7.53092e-09 3.75215e-10 -1.62776e-10)
(1.08683e-08 5.63446e-10 -2.44343e-10)
(1.40132e-08 7.67526e-10 -3.31931e-10)
(1.70521e-08 1.00111e-09 -4.29808e-10)
(2.0063e-08 1.27983e-09 -5.41558e-10)
(2.31168e-08 1.62276e-09 -6.69713e-10)
(2.62772e-08 2.05383e-09 -8.14884e-10)
(2.95976e-08 2.60322e-09 -9.74135e-10)
(3.31142e-08 3.30775e-09 -1.13835e-09)
(3.68311e-08 4.2085e-09 -1.28853e-09)
(4.06938e-08 5.34106e-09 -1.39208e-09)
(4.45448e-08 6.70892e-09 -1.40339e-09)
(4.80574e-08 8.22134e-09 -1.28149e-09)
(5.0653e-08 9.56703e-09 -1.05382e-09)
(5.36752e-08 1.16297e-08 -4.1942e-10)
(0 0 0)
(4.72672e-09 2.16379e-10 -9.84232e-11)
(9.11585e-09 4.26468e-10 -1.94461e-10)
(1.31416e-08 6.3733e-10 -2.91573e-10)
(1.69179e-08 8.62013e-10 -3.95522e-10)
(2.05436e-08 1.11341e-09 -5.11341e-10)
(2.41054e-08 1.40516e-09 -6.43326e-10)
(2.76798e-08 1.75232e-09 -7.94687e-10)
(3.13316e-08 2.17173e-09 -9.66676e-10)
(3.51109e-08 2.68158e-09 -1.15691e-09)
(3.90439e-08 3.29961e-09 -1.35658e-09)
(4.31182e-08 4.03853e-09 -1.54625e-09)
(4.72575e-08 4.89712e-09 -1.69102e-09)
(5.12859e-08 5.84505e-09 -1.73889e-09)
(5.48812e-08 6.79994e-09 -1.63611e-09)
(5.75122e-08 7.5885e-09 -1.39765e-09)
(6.07642e-08 8.77061e-09 -6.39935e-10)
(0 0 0)
(5.46144e-09 2.32264e-10 -1.11909e-10)
(1.05255e-08 4.56396e-10 -2.20901e-10)