/*--------------------------------*- C++ -*----------------------------------*\
| =========                 |                                                 |
| \\      /  F ield         | foam-extend: Open Source CFD                    |
|  \\    /   O peration     | Version:     3.1                                |
|   \\  /    A nd           | Web:         http://www.extend-project.de       |
|    \\/     M anipulation  |                                                 |
\*---------------------------------------------------------------------------*/
FoamFile
{
    version     2.0;
    format      ascii;
    class       surfaceVectorField;
    location    "0.2";
    object      Sf;
}
// * * * * * * * * * * * * * * * * * * * * * * * * * * * * * * * * * * * * * //

dimensions      [0 2 0 0 0 0 0];

internalField   nonuniform List<vector> 
41600
(
(0.000625 -4.30753e-07 -3.76779e-09)
(-1.73459e-10 0.000703555 -4.68833e-10)
(-1.55482e-08 -1.74918e-08 0.000703343)
(1.59942e-08 1.79934e-08 -0.000703338)
(0.000625 -8.30797e-07 -7.33481e-09)
(-8.92467e-10 0.000703524 -1.43079e-09)
(-1.52761e-08 -5.21686e-08 0.000703328)
(1.57256e-08 5.36776e-08 -0.000703323)
(0.000625002 -1.19764e-06 -1.07815e-08)
(-2.36395e-09 0.000703489 -2.49377e-09)
(-1.56643e-08 -8.69746e-08 0.000703314)
(1.61437e-08 8.95284e-08 -0.000703308)
(0.000625006 -1.54144e-06 -1.43129e-08)
(-4.74327e-09 0.000703465 -3.78422e-09)
(-1.71195e-08 -1.23852e-07 0.000703307)
(1.76653e-08 1.27559e-07 -0.0007033)
(0.000625014 -1.87096e-06 -1.81172e-08)
(-8.36705e-09 0.000703449 -5.4687e-09)
(-1.96209e-08 -1.65178e-07 0.000703308)
(2.02705e-08 1.7023e-07 -0.000703299)
(0.000625027 -2.19383e-06 -2.23674e-08)
(-1.37873e-08 0.000703441 -7.76831e-09)
(-2.32255e-08 -2.13371e-07 0.000703319)
(2.402e-08 2.20047e-07 -0.000703307)
(0.000625048 -2.51666e-06 -2.72227e-08)
(-2.18345e-08 0.000703439 -1.09996e-08)
(-2.80674e-08 -2.71063e-07 0.000703341)
(2.90558e-08 2.79744e-07 -0.000703325)
(0.00062508 -2.84501e-06 -3.28313e-08)
(-3.37495e-08 0.000703442 -1.56298e-08)
(-3.43709e-08 -3.41289e-07 0.000703377)
(3.56142e-08 3.5248e-07 -0.000703356)
(0.00062513 -3.183e-06 -3.93387e-08)
(-5.13421e-08 0.000703449 -2.23734e-08)
(-4.24898e-08 -4.27738e-07 0.000703434)
(4.407e-08 4.42102e-07 -0.000703405)
(0.000625205 -3.53289e-06 -4.69262e-08)
(-7.72922e-08 0.000703456 -3.23624e-08)
(-5.29934e-08 -5.35133e-07 0.000703518)
(5.50288e-08 5.53562e-07 -0.000703478)
(0.000625318 -3.89433e-06 -5.59392e-08)
(-1.15607e-07 0.000703463 -4.74529e-08)
(-6.68466e-08 -6.69928e-07 0.00070364)
(6.95227e-08 6.9365e-07 -0.000703584)
(0.000625487 -4.26398e-06 -6.726e-08)
(-1.72221e-07 0.000703464 -7.08305e-08)
(-8.57345e-08 -8.41554e-07 0.000703819)
(8.93719e-08 8.72365e-07 -0.000703737)
(0.000625737 -4.63584e-06 -8.32496e-08)
(-2.55094e-07 0.000703456 -1.08147e-07)
(-1.12362e-07 -1.06439e-06 0.000704081)
(1.17607e-07 1.10516e-06 -0.000703957)
(0.000626096 -5.00133e-06 -1.09381e-07)
(-3.68134e-07 0.000703434 -1.68749e-07)
(-1.48697e-07 -1.35807e-06 0.000704464)
(1.57449e-07 1.41451e-06 -0.000704269)
(0.000626535 -5.3294e-06 -1.5217e-07)
(-4.62074e-07 0.000703361 -2.58306e-07)
(-1.77636e-07 -1.72533e-06 0.000704965)
(2.01115e-07 1.81778e-06 -0.000704664)
(-2.45884e-06 0.000703518 5.52351e-07)
(-5.79977e-07 -2.57643e-06 0.000706668)
(1.29051e-06 3.49039e-06 -0.000707221)
(0.000624998 -4.22817e-07 -1.11947e-08)
(2.14178e-10 0.000703978 -9.00198e-10)
(-4.6185e-08 -1.69745e-08 0.000703773)
(4.75098e-08 1.74616e-08 -0.000703761)
(0.000624997 -8.15293e-07 -2.17884e-08)
(-1.13782e-09 0.000703915 -2.74489e-09)
(-4.53556e-08 -5.06011e-08 0.000703727)
(4.66904e-08 5.20655e-08 -0.000703715)
(0.000624997 -1.17482e-06 -3.20163e-08)
(-3.86392e-09 0.000703846 -4.777e-09)
(-4.64658e-08 -8.4278e-08 0.000703679)
(4.78883e-08 8.67542e-08 -0.000703666)
(0.000624999 -1.5112e-06 -4.24842e-08)
(-8.2303e-09 0.000703798 -7.2326e-09)
(-5.07178e-08 -1.19833e-07 0.000703647)
(5.2336e-08 1.23423e-07 -0.000703634)
(0.000625004 -1.83291e-06 -5.3747e-08)
(-1.48486e-08 0.000703766 -1.04195e-08)
(-5.80374e-08 -1.59496e-07 0.000703633)
(5.99605e-08 1.64379e-07 -0.000703616)
(0.000625012 -2.1473e-06 -6.63119e-08)
(-2.46934e-08 0.000703749 -1.47464e-08)
(-6.85706e-08 -2.05494e-07 0.000703634)
(7.09196e-08 2.11932e-07 -0.000703614)
(0.000625027 -2.46076e-06 -8.0641e-08)
(-3.9238e-08 0.000703744 -2.07885e-08)
(-8.26722e-08 -2.60188e-07 0.000703651)
(8.55891e-08 2.68537e-07 -0.000703627)
(0.00062505 -2.77863e-06 -9.71498e-08)
(-6.06052e-08 0.000703749 -2.93805e-08)
(-1.00926e-07 -3.26189e-07 0.000703687)
(1.04588e-07 3.36915e-07 -0.000703657)
(0.000625086 -3.10482e-06 -1.16213e-07)
(-9.17914e-08 0.000703761 -4.17749e-08)
(-1.24217e-07 -4.06454e-07 0.000703743)
(1.28858e-07 4.20164e-07 -0.000703704)
(0.000625139 -3.44105e-06 -1.3822e-07)
(-1.3698e-07 0.000703775 -5.98913e-08)
(-1.53874e-07 -5.04355e-07 0.000703821)
(1.59832e-07 5.21848e-07 -0.000703772)
(0.000625218 -3.7855e-06 -1.63799e-07)
(-2.0176e-07 0.000703785 -8.67343e-08)
(-1.91962e-07 -6.23623e-07 0.000703926)
(1.9976e-07 6.4598e-07 -0.000703862)
(0.000625328 -4.13039e-06 -1.94517e-07)
(-2.92828e-07 0.00070378 -1.27107e-07)
(-2.41635e-07 -7.67887e-07 0.000704062)
(2.52164e-07 7.96637e-07 -0.000703975)
(0.000625473 -4.45784e-06 -2.34617e-07)
(-4.14942e-07 0.000703746 -1.88716e-07)
(-3.06765e-07 -9.38794e-07 0.000704229)
(3.21757e-07 9.76228e-07 -0.000704109)
(0.000625636 -4.7327e-06 -2.93751e-07)
(-5.55893e-07 0.000703659 -2.82718e-07)
(-3.8545e-07 -1.12972e-06 0.000704418)
(4.09629e-07 1.17963e-06 -0.000704245)
(0.000625734 -4.89634e-06 -3.82372e-07)
(-6.19039e-07 0.000703454 -4.15429e-07)
(-4.27552e-07 -1.30986e-06 0.000704555)
(4.86404e-07 1.38032e-06 -0.000704309)
(-1.57028e-06 0.000703036 4.02615e-08)
(-1.03109e-06 -1.24282e-06 0.000704767)
(2.09389e-06 9.15822e-07 -0.00070426)
(0.000624996 -4.07242e-07 -1.83014e-08)
(1.61017e-09 0.000704384 -1.26123e-09)
(-7.54747e-08 -1.59758e-08 0.000704191)
(7.76404e-08 1.64346e-08 -0.000704172)
(0.000624993 -7.84873e-07 -3.56053e-08)
(-2.16429e-10 0.000704291 -3.84113e-09)
(-7.40516e-08 -4.75777e-08 0.000704113)
(7.62317e-08 4.89561e-08 -0.000704095)
(0.000624991 -1.13004e-06 -5.22845e-08)
(-3.80459e-09 0.000704189 -6.66846e-09)
(-7.57283e-08 -7.90875e-08 0.000704031)
(7.80482e-08 8.14143e-08 -0.000704012)
(0.00062499 -1.4519e-06 -6.9318e-08)
(-9.45817e-09 0.000704116 -1.00575e-08)
(-8.24524e-08 -1.12121e-07 0.000703974)
(8.50858e-08 1.15484e-07 -0.000703954)
(0.00062499 -1.75832e-06 -8.75996e-08)
(-1.7943e-08 0.000704068 -1.44174e-08)
(-9.40648e-08 -1.48635e-07 0.000703941)
(9.71867e-08 1.53195e-07 -0.000703919)
(0.000624991 -2.05614e-06 -1.0794e-07)
(-3.04681e-08 0.000704041 -2.02832e-08)
(-1.10736e-07 -1.90521e-07 0.00070393)
(1.14538e-07 1.96506e-07 -0.000703904)
(0.000624996 -2.35132e-06 -1.31062e-07)
(-4.88272e-08 0.000704032 -2.83919e-08)
(-1.32922e-07 -2.39677e-07 0.000703938)
(1.37628e-07 2.47394e-07 -0.000703908)
(0.000625005 -2.64887e-06 -1.57586e-07)
(-7.54997e-08 0.000704037 -3.97911e-08)
(-1.61352e-07 -2.98025e-07 0.000703966)
(1.67234e-07 3.0787e-07 -0.000703929)
(0.00062502 -2.95252e-06 -1.87982e-07)
(-1.13823e-07 0.000704052 -5.60081e-08)
(-1.97027e-07 -3.67432e-07 0.000704012)
(2.04444e-07 3.79905e-07 -0.000703967)
(0.000625042 -3.2639e-06 -2.22538e-07)
(-1.68062e-07 0.000704071 -7.92986e-08)
(-2.41226e-07 -4.49418e-07 0.000704072)
(2.50682e-07 4.65152e-07 -0.000704018)
(0.000625071 -3.58077e-06 -2.61392e-07)
(-2.43034e-07 0.000704082 -1.13016e-07)
(-2.9544e-07 -5.44429e-07 0.00070414)
(3.07704e-07 5.64234e-07 -0.000704075)
(0.000625104 -3.89375e-06 -3.04846e-07)
(-3.42495e-07 0.000704068 -1.62165e-07)
(-3.6086e-07 -6.50139e-07 0.000704204)
(3.77207e-07 6.75078e-07 -0.000704126)
(0.00062513 -4.18087e-06 -3.54348e-07)
(-4.63537e-07 0.000704002 -2.34157e-07)
(-4.35928e-07 -7.57875e-07 0.000704239)
(4.587e-07 7.89344e-07 -0.000704144)
(0.000625118 -4.40179e-06 -4.13918e-07)
(-5.79077e-07 0.00070384 -3.39157e-07)
(-5.05807e-07 -8.46669e-07 0.000704197)
(5.40698e-07 8.86275e-07 -0.000704081)
(0.000625006 -4.50807e-06 -4.86713e-07)
(-5.80431e-07 0.000703513 -4.86718e-07)
(-5.00073e-07 -8.83046e-07 0.000703997)
(5.73869e-07 9.30324e-07 -0.000703853)
(-1.51905e-06 0.000703102 -2.30316e-08)
(-8.16139e-07 -7.83497e-07 0.000703871)
(1.50165e-06 8.08649e-07 -0.000703892)
(0.000624994 -3.84605e-07 -2.48934e-08)
(4.25355e-09 0.000704769 -1.52952e-09)
(-1.0262e-07 -1.45608e-08 0.000704589)
(1.05566e-07 1.49796e-08 -0.000704564)
(0.000624989 -7.40686e-07 -4.83997e-08)
(2.15539e-09 0.000704646 -4.64981e-09)
(-1.00551e-07 -4.32998e-08 0.000704481)
(1.03513e-07 4.45563e-08 -0.000704457)
(0.000624984 -1.06505e-06 -7.10018e-08)
(-1.80358e-09 0.000704511 -8.04255e-09)
(-1.02559e-07 -7.17617e-08 0.000704364)
(1.05704e-07 7.38767e-08 -0.00070434)
(0.000624979 -1.3659e-06 -9.40088e-08)
(-7.86834e-09 0.000704414 -1.20653e-08)
(-1.11262e-07 -1.01276e-07 0.000704281)
(1.14821e-07 1.04321e-07 -0.000704256)
(0.000624973 -1.65022e-06 -1.18611e-07)
(-1.68277e-08 0.000704348 -1.71807e-08)
(-1.26377e-07 -1.33446e-07 0.000704228)
(1.30581e-07 1.37551e-07 -0.000704201)
(0.000624968 -1.92411e-06 -1.45877e-07)
(-2.99309e-08 0.00070431 -2.39768e-08)
(-1.48017e-07 -1.69736e-07 0.000704201)
(1.53116e-07 1.75087e-07 -0.00070417)
(0.000624962 -2.19289e-06 -1.76744e-07)
(-4.89395e-08 0.000704294 -3.32437e-08)
(-1.76603e-07 -2.11499e-07 0.000704197)
(1.82881e-07 2.18339e-07 -0.000704161)
(0.000624955 -2.46117e-06 -2.11972e-07)
(-7.62136e-08 0.000704297 -4.60799e-08)
(-2.12773e-07 -2.59917e-07 0.000704213)
(2.20573e-07 2.68546e-07 -0.000704171)
(0.000624946 -2.73273e-06 -2.52035e-07)
(-1.14744e-07 0.000704313 -6.40418e-08)
(-2.57255e-07 -3.15815e-07 0.000704242)
(2.67011e-07 3.26592e-07 -0.000704194)
(0.000624933 -3.00996e-06 -2.96929e-07)
(-1.67969e-07 0.000704335 -8.9361e-08)
(-3.10602e-07 -3.79229e-07 0.000704279)
(3.22912e-07 3.92573e-07 -0.000704224)
(0.000624914 -3.29271e-06 -3.45887e-07)
(-2.39048e-07 0.000704348 -1.25249e-07)
(-3.72602e-07 -4.48534e-07 0.000704307)
(3.88356e-07 4.64917e-07 -0.000704246)
(0.000624879 -3.57569e-06 -3.97027e-07)
(-3.28738e-07 0.000704331 -1.76372e-07)
(-4.40775e-07 -5.18812e-07 0.000704304)
(4.61402e-07 5.38758e-07 -0.000704238)
(0.000624818 -3.84431e-06 -4.47207e-07)
(-4.29997e-07 0.000704246 -2.49657e-07)
(-5.06471e-07 -5.79403e-07 0.000704228)
(5.34473e-07 6.03437e-07 -0.000704163)
(0.000624712 -4.07046e-06 -4.92374e-07)
(-5.14323e-07 0.000704038 -3.55592e-07)
(-5.44388e-07 -6.12353e-07 0.000704024)
(5.85279e-07 6.40706e-07 -0.000703962)
(0.000624543 -4.21918e-06 -5.26867e-07)
(-4.88855e-07 0.000703631 -5.10352e-07)
(-4.84286e-07 -6.01384e-07 0.000703633)
(5.61251e-07 6.31829e-07 -0.000703575)
(-1.29624e-06 0.000703236 -1.04009e-07)
(-6.5002e-07 -4.92453e-07 0.000703334)
(1.24978e-06 4.441e-07 -0.000703466)
(0.000624992 -3.55757e-07 -3.08042e-08)
(8.12556e-09 0.000705124 -1.69274e-09)
(-1.26962e-07 -1.28201e-08 0.000704962)
(1.30609e-07 1.31895e-08 -0.000704931)
(0.000624985 -6.84421e-07 -5.98426e-08)
(5.96847e-09 0.000704973 -5.1337e-09)
(-1.2419e-07 -3.80453e-08 0.000704824)
(1.27851e-07 3.91512e-08 -0.000704794)
(0.000624977 -9.82394e-07 -8.7672e-08)
(2.14685e-09 0.000704808 -8.83861e-09)
(-1.26244e-07 -6.27911e-08 0.000704673)
(1.3012e-07 6.46453e-08 -0.000704645)
(0.000624968 -1.25665e-06 -1.15876e-07)
(-3.43366e-09 0.000704686 -1.31734e-08)
(-1.36324e-07 -8.8058e-08 0.000704564)
(1.40692e-07 9.07123e-08 -0.000704535)
(0.000624958 -1.51309e-06 -1.45887e-07)
(-1.14897e-08 0.000704601 -1.86033e-08)
(-1.53986e-07 -1.15048e-07 0.00070449)
(1.59123e-07 1.18599e-07 -0.000704458)
(0.000624945 -1.75676e-06 -1.7898e-07)
(-2.3112e-08 0.000704549 -2.5702e-08)
(-1.79215e-07 -1.44775e-07 0.000704445)
(1.8541e-07 1.49357e-07 -0.00070441)
(0.000624928 -1.99213e-06 -2.16259e-07)
(-3.97873e-08 0.000704523 -3.52159e-08)
(-2.1228e-07 -1.78049e-07 0.000704426)
(2.19859e-07 1.83833e-07 -0.000704386)
(0.000624906 -2.2232e-06 -2.58588e-07)
(-6.34139e-08 0.000704521 -4.81566e-08)
(-2.53571e-07 -2.15401e-07 0.000704425)
(2.62911e-07 2.22582e-07 -0.000704381)
(0.000624876 -2.45374e-06 -3.06434e-07)
(-9.62468e-08 0.000704535 -6.59322e-08)
(-3.03334e-07 -2.56891e-07 0.000704437)
(3.14896e-07 2.65675e-07 -0.000704388)
(0.000624834 -2.68735e-06 -3.59565e-07)
(-1.40626e-07 0.000704558 -9.05335e-08)
(-3.61182e-07 -3.01763e-07 0.000704451)
(3.75576e-07 3.12338e-07 -0.000704396)
(0.000624775 -2.92739e-06 -4.1651e-07)
(-1.98262e-07 0.000704576 -1.24831e-07)
(-4.25124e-07 -3.4786e-07 0.000704447)
(4.43226e-07 3.60355e-07 -0.000704391)
(0.000624692 -3.17624e-06 -4.73692e-07)
(-2.68537e-07 0.000704565 -1.73118e-07)
(-4.89537e-07 -3.90779e-07 0.000704398)
(5.12726e-07 4.05195e-07 -0.000704344)
(0.000624576 -3.4324e-06 -5.24385e-07)
(-3.44653e-07 0.000704486 -2.4225e-07)
(-5.41015e-07 -4.23021e-07 0.000704259)
(5.71679e-07 4.39156e-07 -0.000704215)
(0.000624422 -3.68247e-06 -5.5794e-07)
(-4.04061e-07 0.000704271 -3.43922e-07)
(-5.50086e-07 -4.34531e-07 0.000703967)
(5.93385e-07 4.51906e-07 -0.000703945)
(0.00062423 -3.88654e-06 -5.57909e-07)
(-3.73232e-07 0.000703818 -5.00242e-07)
(-4.55352e-07 -4.19471e-07 0.000703461)
(5.31903e-07 4.36544e-07 -0.000703471)
(-1.09336e-06 0.000703453 -1.21604e-07)
(-5.26652e-07 -3.54792e-07 0.00070309)
(1.03538e-06 3.41519e-07 -0.000703373)
(0.000624991 -3.21735e-07 -3.59045e-08)
(1.29433e-08 0.000705445 -1.74956e-09)
(-1.48016e-07 -1.08584e-08 0.000705302)
(1.5227e-07 1.11716e-08 -0.000705266)
(0.000624982 -6.18152e-07 -6.96793e-08)
(1.09198e-08 0.000705269 -5.29174e-09)
(-1.44489e-07 -3.21346e-08 0.000705137)
(1.48751e-07 3.30698e-08 -0.000705103)
(0.000624972 -8.8522e-07 -1.01915e-07)
(7.68044e-09 0.000705073 -9.06214e-09)
(-1.46289e-07 -5.27361e-08 0.000704955)
(1.50784e-07 5.42956e-08 -0.000704922)
(0.00062496 -1.12848e-06 -1.34403e-07)
(3.34427e-09 0.000704927 -1.34035e-08)
(-1.57096e-07 -7.33191e-08 0.000704819)
(1.6214e-07 7.55339e-08 -0.000704786)
(0.000624945 -1.3525e-06 -1.68755e-07)
(-2.66343e-09 0.000704822 -1.87427e-08)
(-1.76284e-07 -9.46753e-08 0.000704723)
(1.82182e-07 9.76061e-08 -0.000704688)
(0.000624926 -1.56107e-06 -2.06395e-07)
(-1.11536e-08 0.000704753 -2.55813e-08)
(-2.03657e-07 -1.17377e-07 0.000704659)
(2.10725e-07 1.21107e-07 -0.000704622)
(0.000624901 -1.75746e-06 -2.48544e-07)
(-2.31851e-08 0.000704715 -3.45511e-08)
(-2.39268e-07 -1.41749e-07 0.000704622)
(2.47846e-07 1.46374e-07 -0.000704581)
(0.000624867 -1.94468e-06 -2.96146e-07)
(-4.0031e-08 0.000704702 -4.64873e-08)
(-2.8319e-07 -1.67797e-07 0.000704605)
(2.93658e-07 1.73409e-07 -0.000704559)
(0.000624821 -2.12587e-06 -3.49711e-07)
(-6.30854e-08 0.000704709 -6.25386e-08)
(-3.35179e-07 -1.9509e-07 0.000704599)
(3.4798e-07 2.01751e-07 -0.000704548)
(0.000624758 -2.30504e-06 -4.08994e-07)
(-9.36639e-08 0.000704729 -8.43426e-08)
(-3.94089e-07 -2.22604e-07 0.000704592)
(4.0977e-07 2.30298e-07 -0.000704539)
(0.000624674 -2.4882e-06 -4.72414e-07)
(-1.32604e-07 0.00070475 -1.14351e-07)
(-4.56804e-07 -2.48595e-07 0.000704568)
(4.76107e-07 2.57144e-07 -0.000704515)
(0.00062456 -2.685e-06 -5.36069e-07)
(-1.7954e-07 0.000704753 -1.56545e-07)
(-5.16236e-07 -2.70664e-07 0.000704498)
(5.40308e-07 2.79603e-07 -0.000704451)
(0.000624416 -2.9094e-06 -5.92212e-07)
(-2.31197e-07 0.000704702 -2.18069e-07)
(-5.57595e-07 -2.86354e-07 0.000704342)
(5.88507e-07 2.9479e-07 -0.00070431)
(0.000624245 -3.17214e-06 -6.26546e-07)
(-2.75207e-07 0.000704527 -3.12488e-07)
(-5.51538e-07 -2.94531e-07 0.000704037)
(5.94227e-07 3.01205e-07 -0.000704034)
(0.000624053 -3.44378e-06 -6.06764e-07)
(-2.56195e-07 0.000704086 -4.67169e-07)
(-4.42164e-07 -2.96669e-07 0.00070349)
(5.17149e-07 3.00821e-07 -0.000703542)
(-8.92421e-07 0.000703825 -1.17356e-07)
(-4.73702e-07 -2.85592e-07 0.000703133)
(9.52228e-07 2.79364e-07 -0.00070353)
(0.00062499 -2.83687e-07 -4.01077e-08)
(1.82025e-08 0.000705729 -1.7104e-09)
(-1.65487e-07 -8.78507e-09 0.000705607)
(1.70245e-07 9.03849e-09 -0.000705567)
(0.00062498 -5.44202e-07 -7.77427e-08)
(1.64606e-08 0.000705528 -5.15761e-09)
(-1.61169e-07 -2.59013e-08 0.000705416)
(1.65926e-07 2.66552e-08 -0.000705379)
(0.000624968 -7.77094e-07 -1.13486e-07)
(1.41238e-08 0.000705305 -8.77937e-09)
(-1.62428e-07 -4.21768e-08 0.000705204)
(1.67425e-07 4.34248e-08 -0.000705169)
(0.000624954 -9.86322e-07 -1.49265e-07)
(1.15459e-08 0.000705134 -1.287e-08)
(-1.73323e-07 -5.79313e-08 0.000705044)
(1.78899e-07 5.96833e-08 -0.000705008)
(0.000624937 -1.17494e-06 -1.86803e-07)
(8.33659e-09 0.000705009 -1.77869e-08)
(-1.93034e-07 -7.35615e-08 0.000704925)
(1.99511e-07 7.58437e-08 -0.000704889)
(0.000624914 -1.34527e-06 -2.27604e-07)
(4.00317e-09 0.000704921 -2.39283e-08)
(-2.21159e-07 -8.92338e-08 0.000704841)
(2.28863e-07 9.20792e-08 -0.000704802)
(0.000624884 -1.4991e-06 -2.72946e-07)
(-2.03242e-09 0.000704865 -3.17707e-08)
(-2.57502e-07 -1.0485e-07 0.000704785)
(2.66771e-07 1.08287e-07 -0.000704743)
(0.000624843 -1.63787e-06 -3.23819e-07)
(-1.03968e-08 0.000704837 -4.19262e-08)
(-3.01821e-07 -1.19998e-07 0.000704749)
(3.13013e-07 1.24028e-07 -0.000704703)
(0.000624788 -1.76311e-06 -3.80791e-07)
(-2.16675e-08 0.00070483 -5.52314e-08)
(-3.53474e-07 -1.33897e-07 0.000704725)
(3.66976e-07 1.38467e-07 -0.000704675)
(0.000624714 -1.87724e-06 -4.43769e-07)
(-3.62857e-08 0.000704838 -7.29016e-08)
(-4.1087e-07 -1.45414e-07 0.000704701)
(4.27112e-07 1.50354e-07 -0.00070465)
(0.000624617 -1.98523e-06 -5.11584e-07)
(-5.45439e-08 0.000704853 -9.68648e-08)
(-4.70555e-07 -1.53257e-07 0.000704662)
(4.90062e-07 1.58184e-07 -0.000704612)
(0.000624491 -2.09776e-06 -5.81351e-07)
(-7.68535e-08 0.000704862 -1.306e-07)
(-5.25664e-07 -1.56677e-07 0.000704587)
(5.49193e-07 1.60806e-07 -0.000704543)
(0.000624335 -2.23689e-06 -6.47437e-07)
(-1.04673e-07 0.00070484 -1.81267e-07)
(-5.63102e-07 -1.57182e-07 0.000704443)
(5.92102e-07 1.59011e-07 -0.000704414)
(0.000624161 -2.44127e-06 -6.97945e-07)
(-1.3991e-07 0.000704734 -2.64615e-07)
(-5.57535e-07 -1.61507e-07 0.00070418)
(5.96284e-07 1.58429e-07 -0.000704178)
(0.000623988 -2.73859e-06 -6.87148e-07)
(-1.53364e-07 0.000704393 -4.15445e-07)
(-4.552e-07 -1.81064e-07 0.000703684)
(5.25582e-07 1.70602e-07 -0.000703746)
(-7.22073e-07 0.00070467 -9.69749e-08)
(-5.02384e-07 -2.38047e-07 0.000703623)
(9.86466e-07 2.34746e-07 -0.000704134)
(0.00062499 -2.42959e-07 -4.33744e-08)
(-1.79273e-07 -6.70834e-09 0.000705872)
(1.84428e-07 6.90148e-09 -0.000705829)
(2.32549e-08 0.000705972 -1.59332e-09)
(0.000624979 -4.65383e-07 -8.39625e-08)
(-1.74157e-07 -1.96778e-08 0.000705659)
(1.79299e-07 2.02495e-08 -0.000705619)
(2.1887e-08 0.00070575 -4.78854e-09)
(0.000624967 -6.62458e-07 -1.22293e-07)
(-1.74631e-07 -3.16925e-08 0.000705421)
(1.80007e-07 3.26285e-08 -0.000705383)
(2.06184e-08 0.000705501 -8.09643e-09)
(0.000624953 -8.36439e-07 -1.60357e-07)
(-1.85031e-07 -4.27605e-08 0.000705236)
(1.90993e-07 4.40519e-08 -0.000705199)
(2.0022e-08 0.000705307 -1.17473e-08)
(0.000624934 -9.88813e-07 -1.99914e-07)
(-2.04348e-07 -5.29158e-08 0.000705096)
(2.11224e-07 5.4557e-08 -0.000705058)
(1.98956e-08 0.000705159 -1.60138e-08)
(0.00062491 -1.12037e-06 -2.42481e-07)
(-2.31962e-07 -6.19679e-08 0.000704992)
(2.40074e-07 6.39476e-08 -0.000704952)
(2.00567e-08 0.000705051 -2.11785e-08)
(0.000624878 -1.23127e-06 -2.89322e-07)
(-2.67422e-07 -6.94595e-08 0.000704915)
(2.7709e-07 7.17475e-08 -0.000704873)
(2.03596e-08 0.000704974 -2.75519e-08)
(0.000624836 -1.32109e-06 -3.41396e-07)
(-3.10187e-07 -7.46255e-08 0.00070486)
(3.21731e-07 7.71539e-08 -0.000704814)
(2.07587e-08 0.000704924 -3.55158e-08)
(0.000624779 -1.38896e-06 -3.99268e-07)
(-3.59296e-07 -7.63705e-08 0.000704815)
(3.7303e-07 7.90052e-08 -0.000704767)
(2.13687e-08 0.000704895 -4.55849e-08)
(0.000624704 -1.43395e-06 -4.62945e-07)
(-4.12902e-07 -7.3314e-08 0.000704772)
(4.29127e-07 7.58059e-08 -0.000704723)
(2.25103e-08 0.000704881 -5.85104e-08)
(0.000624606 -1.45569e-06 -5.31664e-07)
(-4.67592e-07 -6.39956e-08 0.000704717)
(4.86598e-07 6.59007e-08 -0.00070467)
(2.47089e-08 0.000704873 -7.55136e-08)
(0.000624478 -1.4558e-06 -6.03696e-07)
(-5.17333e-07 -4.74091e-08 0.000704631)
(5.39456e-07 4.79452e-08 -0.000704591)
(2.8512e-08 0.000704861 -9.88309e-08)
(0.000624313 -1.44107e-06 -6.76216e-07)
(-5.51592e-07 -2.4142e-08 0.000704484)
(5.77513e-07 2.19055e-08 -0.00070446)
(3.43035e-08 0.000704827 -1.32945e-07)
(0.000624095 -1.43383e-06 -7.43402e-07)
(-5.50719e-07 1.06426e-09 0.000704218)
(5.83269e-07 -8.8902e-09 -0.000704229)
(4.53166e-08 0.000704735 -1.86957e-07)
(0.000623778 -1.52302e-06 -7.70608e-07)
(-4.7169e-07 9.38239e-09 0.000703682)
(5.28839e-07 -3.19052e-08 -0.000703793)
(1.06517e-07 0.000704505 -2.76986e-07)
(-6.72146e-07 -1.42136e-07 0.000704824)
(1.18622e-06 1.27379e-07 -0.000705487)
(-8.22391e-07 0.000706608 -9.326e-09)
(0.000625 -4.37866e-07 -3.3442e-09)
(-9.63038e-10 0.000703562 -4.19984e-10)
(-1.45324e-08 -1.63489e-08 0.000703346)
(0.000625001 -8.44655e-07 -6.52339e-09)
(-1.71777e-09 0.000703528 -1.27573e-09)
(-1.42692e-08 -4.87502e-08 0.000703333)
(0.000625003 -1.21802e-06 -9.59906e-09)
(-3.30717e-09 0.000703493 -2.20316e-09)
(-1.46155e-08 -8.12436e-08 0.000703319)
(0.000625008 -1.56849e-06 -1.27327e-08)
(-5.91954e-09 0.000703467 -3.29793e-09)
(-1.59502e-08 -1.15626e-07 0.000703314)
(0.000625016 -1.90516e-06 -1.60699e-08)
(-9.91611e-09 0.000703451 -4.68031e-09)
(-1.82493e-08 -1.54095e-07 0.000703316)
(0.00062503 -2.23594e-06 -1.97382e-08)
(-1.58953e-08 0.000703441 -6.496e-09)
(-2.15561e-08 -1.98867e-07 0.000703329)
(0.000625053 -2.56775e-06 -2.38451e-08)
(-2.47639e-08 0.000703438 -8.93316e-09)
(-2.59765e-08 -2.5233e-07 0.000703354)
(0.000625088 -2.90634e-06 -2.84755e-08)
(-3.78668e-08 0.000703439 -1.22321e-08)
(-3.16818e-08 -3.17181e-07 0.000703394)
(0.000625142 -3.25608e-06 -3.36937e-08)
(-5.71776e-08 0.000703444 -1.66873e-08)
(-3.89222e-08 -3.96594e-07 0.000703456)
(0.000625223 -3.61945e-06 -3.95603e-08)
(-8.56002e-08 0.000703448 -2.26116e-08)
(-4.80575e-08 -4.94429e-07 0.000703546)
(0.000625343 -3.99656e-06 -4.61861e-08)
(-1.2741e-07 0.000703448 -3.01473e-08)
(-5.9601e-08 -6.15529e-07 0.000703677)
(0.00062552 -4.38522e-06 -5.38338e-08)
(-1.88726e-07 0.000703438 -3.86139e-08)
(-7.42102e-08 -7.66062e-07 0.000703865)
(0.000625777 -4.78218e-06 -6.29444e-08)
(-2.76951e-07 0.000703411 -4.44417e-08)
(-9.22329e-08 -9.53335e-07 0.000704135)
(0.000626132 -5.18416e-06 -7.34361e-08)
(-3.92556e-07 0.000703351 -3.586e-08)
(-1.1104e-07 -1.18212e-06 0.00070451)
(0.000626544 -5.56377e-06 -8.25747e-08)
(-4.76238e-07 0.000703215 1.0394e-08)
(-1.13731e-07 -1.43531e-06 0.000704964)
(-1.64349e-06 0.000703744 1.04017e-07)
(-2.68547e-07 -1.86643e-06 0.000706592)
(0.000624997 -4.29724e-07 -9.9363e-09)
(-1.30134e-09 0.00070399 -8.06826e-10)
(-4.31675e-08 -1.58655e-08 0.000703783)
(0.000624995 -8.28742e-07 -1.93786e-08)
(-2.71819e-09 0.000703924 -2.44867e-09)
(-4.23662e-08 -4.72857e-08 0.000703738)
(0.000624995 -1.19457e-06 -2.85063e-08)
(-5.66337e-09 0.000703853 -4.22192e-09)
(-4.33551e-08 -7.87257e-08 0.00070369)
(0.000624996 -1.53738e-06 -3.7796e-08)
(-1.04628e-08 0.000703802 -6.30529e-09)
(-4.72546e-08 -1.11877e-07 0.00070366)
(0.000624999 -1.86594e-06 -4.7676e-08)
(-1.777e-08 0.000703768 -8.9199e-09)
(-5.3982e-08 -1.48799e-07 0.000703647)
(0.000625007 -2.1879e-06 -5.8519e-08)
(-2.86485e-08 0.000703749 -1.23331e-08)
(-6.36454e-08 -1.91539e-07 0.00070365)
(0.000625021 -2.50988e-06 -7.06324e-08)
(-4.46931e-08 0.000703742 -1.68823e-08)
(-7.65217e-08 -2.42237e-07 0.000703671)
(0.000625044 -2.83738e-06 -8.42443e-08)
(-6.82078e-08 0.000703744 -2.29861e-08)
(-9.30497e-08 -3.03218e-07 0.000703711)
(0.000625078 -3.17442e-06 -9.94904e-08)
(-1.02448e-07 0.000703751 -3.11406e-08)
(-1.13834e-07 -3.77029e-07 0.000703772)
(0.000625131 -3.52267e-06 -1.16423e-07)
(-1.51914e-07 0.000703758 -4.18209e-08)
(-1.3966e-07 -4.66409e-07 0.000703857)
(0.000625205 -3.88005e-06 -1.3508e-07)
(-2.22491e-07 0.000703756 -5.51058e-08)
(-1.71456e-07 -5.74056e-07 0.00070397)
(0.000625305 -4.23819e-06 -1.5562e-07)
(-3.20776e-07 0.00070373 -6.94917e-08)
(-2.09938e-07 -7.01887e-07 0.000704113)
(0.000625425 -4.57801e-06 -1.78252e-07)
(-4.49814e-07 0.000703661 -7.85198e-08)
(-2.53811e-07 -8.48915e-07 0.000704286)
(0.000625531 -4.86192e-06 -2.01756e-07)
(-5.91145e-07 0.000703511 -6.32962e-08)
(-2.92421e-07 -1.0059e-06 0.000704469)
(0.000625547 -5.02864e-06 -2.20405e-07)
(-6.38152e-07 0.000703217 8.49067e-09)
(-2.81293e-07 -1.14574e-06 0.000704575)
(-9.54162e-07 0.000702918 2.26467e-07)
(-4.97691e-07 -1.16082e-06 0.000704756)
(0.000624994 -4.13748e-07 -1.62444e-08)
(-5.12636e-10 0.000704403 -1.13124e-09)
(-7.05437e-08 -1.49321e-08 0.000704207)
(0.000624989 -7.97525e-07 -3.1669e-08)
(-2.42231e-09 0.000704305 -3.42876e-09)
(-6.91713e-08 -4.4461e-08 0.00070413)
(0.000624985 -1.14859e-06 -4.65563e-08)
(-6.30037e-09 0.000704199 -5.89716e-09)
(-7.06594e-08 -7.38787e-08 0.000704047)
(0.000624981 -1.47641e-06 -6.16754e-08)
(-1.25261e-08 0.000704122 -8.77351e-09)
(-7.68242e-08 -1.0468e-07 0.000703992)
(0.000624979 -1.78913e-06 -7.77138e-08)
(-2.19219e-08 0.000704071 -1.23482e-08)
(-8.74964e-08 -1.38676e-07 0.00070396)
(0.000624978 -2.09385e-06 -9.52614e-08)
(-3.58021e-08 0.000704041 -1.69675e-08)
(-1.02792e-07 -1.77604e-07 0.000703952)
(0.000624979 -2.3967e-06 -1.14789e-07)
(-5.61017e-08 0.000704028 -2.30534e-08)
(-1.23057e-07 -2.23191e-07 0.000703964)
(0.000624984 -2.7028e-06 -1.36605e-07)
(-8.55084e-08 0.000704029 -3.11101e-08)
(-1.48816e-07 -2.77155e-07 0.000703996)
(0.000624993 -3.01584e-06 -1.60791e-07)
(-1.2763e-07 0.000704038 -4.16997e-08)
(-1.80694e-07 -3.41104e-07 0.000704046)
(0.000625006 -3.33708e-06 -1.87117e-07)
(-1.87014e-07 0.000704046 -5.52776e-08)
(-2.19265e-07 -4.16241e-07 0.000704112)
(0.000625022 -3.66335e-06 -2.14942e-07)
(-2.68617e-07 0.00070404 -7.16738e-08)
(-2.64654e-07 -5.02666e-07 0.000704185)
(0.000625031 -3.9832e-06 -2.43072e-07)
(-3.75656e-07 0.000703998 -8.86085e-08)
(-3.15397e-07 -5.97902e-07 0.000704252)
(0.000625013 -4.27058e-06 -2.69357e-07)
(-5.02653e-07 0.000703885 -9.78814e-08)
(-3.65081e-07 -6.94196e-07 0.000704285)
(0.000624925 -4.47876e-06 -2.89538e-07)
(-6.15717e-07 0.000703648 -7.79629e-08)
(-3.92972e-07 -7.75086e-07 0.000704232)
(0.000624732 -4.55569e-06 -2.98549e-07)
(-6.02502e-07 0.000703229 3.83e-09)
(-3.42988e-07 -8.18026e-07 0.000704011)
(-8.64793e-07 0.000702881 2.53521e-07)
(-4.27334e-07 -7.91138e-07 0.000703959)
(0.000624991 -3.90539e-07 -2.20959e-08)
(1.67996e-09 0.000704793 -1.37268e-09)
(-9.59158e-08 -1.36097e-08 0.000704612)
(0.000624983 -7.52199e-07 -4.30523e-08)
(-5.05396e-10 0.000704664 -4.15329e-09)
(-9.3925e-08 -4.04638e-08 0.000704503)
(0.000624974 -1.08187e-06 -6.32315e-08)
(-4.78491e-09 0.000704524 -7.11803e-09)
(-9.56957e-08 -6.70371e-08 0.000704385)
(0.000624966 -1.38802e-06 -8.36596e-08)
(-1.14895e-08 0.000704422 -1.05327e-08)
(-1.03671e-07 -9.45598e-08 0.000704303)
(0.000624956 -1.67788e-06 -1.05247e-07)
(-2.14686e-08 0.000704352 -1.47227e-08)
(-1.1756e-07 -1.24515e-07 0.000704252)
(0.000624946 -1.95774e-06 -1.28766e-07)
(-3.60644e-08 0.000704309 -2.00602e-08)
(-1.37417e-07 -1.58254e-07 0.000704228)
(0.000624934 -2.23306e-06 -1.54804e-07)
(-5.71813e-08 0.000704289 -2.69808e-08)
(-1.63539e-07 -1.97012e-07 0.000704227)
(0.000624919 -2.5085e-06 -1.83691e-07)
(-8.73673e-08 0.000704287 -3.59831e-08)
(-1.96341e-07 -2.41853e-07 0.000704246)
(0.0006249 -2.78773e-06 -2.15353e-07)
(-1.2984e-07 0.000704295 -4.75737e-08)
(-2.36155e-07 -2.93494e-07 0.00070428)
(0.000624874 -3.07272e-06 -2.4908e-07)
(-1.88245e-07 0.000704304 -6.20716e-08)
(-2.82834e-07 -3.51914e-07 0.000704319)
(0.000624833 -3.3622e-06 -2.83137e-07)
(-2.65731e-07 0.000704297 -7.9034e-08)
(-3.34917e-07 -4.156e-07 0.000704348)
(0.000624767 -3.6486e-06 -3.14177e-07)
(-3.62344e-07 0.000704246 -9.57424e-08)
(-3.87752e-07 -4.80249e-07 0.000704342)
(0.000624656 -3.91304e-06 -3.36419e-07)
(-4.68514e-07 0.000704107 -1.03555e-07)
(-4.29407e-07 -5.37093e-07 0.000704256)
(0.000624479 -4.12148e-06 -3.41456e-07)
(-5.50248e-07 0.000703816 -8.12191e-08)
(-4.32564e-07 -5.72629e-07 0.000704032)
(0.000624253 -4.23639e-06 -3.26399e-07)
(-5.16835e-07 0.000703319 1.94433e-09)
(-3.44574e-07 -5.76349e-07 0.00070362)
(-6.95284e-07 0.00070294 2.42199e-07)
(-3.60338e-07 -5.28687e-07 0.000703386)
(0.000624988 -3.60978e-07 -2.73442e-08)
(5.27786e-09 0.000705153 -1.52038e-09)
(-1.18668e-07 -1.1983e-08 0.000704989)
(0.000624976 -6.9452e-07 -5.32383e-08)
(3.04396e-09 0.000704995 -4.58985e-09)
(-1.16007e-07 -3.55545e-08 0.00070485)
(0.000624964 -9.97073e-07 -7.80956e-08)
(-1.09023e-09 0.000704822 -7.83039e-09)
(-1.17799e-07 -5.86595e-08 0.000704699)
(0.000624951 -1.27583e-06 -1.03153e-07)
(-7.30899e-09 0.000704695 -1.15101e-08)
(-1.27028e-07 -8.22238e-08 0.00070459)
(0.000624935 -1.53686e-06 -1.29503e-07)
(-1.63755e-08 0.000704605 -1.59504e-08)
(-1.43254e-07 -1.07362e-07 0.000704517)
(0.000624916 -1.78538e-06 -1.58053e-07)
(-2.94573e-08 0.000704548 -2.15031e-08)
(-1.66406e-07 -1.3501e-07 0.000704475)
(0.000624891 -2.02594e-06 -1.89476e-07)
(-4.81516e-08 0.000704518 -2.85574e-08)
(-1.96636e-07 -1.65918e-07 0.000704459)
(0.000624859 -2.2626e-06 -2.24089e-07)
(-7.45062e-08 0.000704508 -3.75293e-08)
(-2.34123e-07 -2.00574e-07 0.000704462)
(0.000624815 -2.49903e-06 -2.61646e-07)
(-1.10946e-07 0.000704513 -4.87971e-08)
(-2.78751e-07 -2.39043e-07 0.000704476)
(0.000624755 -2.73854e-06 -3.00955e-07)
(-1.59949e-07 0.000704522 -6.25022e-08)
(-3.29528e-07 -2.80673e-07 0.00070449)
(0.000624671 -2.9838e-06 -3.39224e-07)
(-2.23195e-07 0.000704518 -7.80237e-08)
(-3.83451e-07 -3.23621e-07 0.000704484)
(0.000624552 -3.23565e-06 -3.71014e-07)
(-2.995e-07 0.000704471 -9.26359e-08)
(-4.33305e-07 -3.6423e-07 0.000704427)
(0.000624386 -3.4896e-06 -3.8695e-07)
(-3.80206e-07 0.000704334 -9.83063e-08)
(-4.6366e-07 -3.96557e-07 0.000704269)
(0.00062417 -3.72727e-06 -3.74333e-07)
(-4.38956e-07 0.000704033 -7.57471e-08)
(-4.45047e-07 -4.13229e-07 0.000703949)
(0.000623938 -3.90295e-06 -3.32285e-07)
(-4.07711e-07 0.000703486 2.83396e-09)
(-3.32648e-07 -4.10651e-07 0.000703418)
(-5.26547e-07 0.000703097 2.25043e-07)