/*--------------------------------*- C++ -*----------------------------------*\
| =========                 |                                                 |
| \\      /  F ield         | foam-extend: Open Source CFD                    |
|  \\    /   O peration     | Version:     3.1                                |
|   \\  /    A nd           | Web:         http://www.extend-project.de       |
|    \\/     M anipulation  |                                                 |
\*---------------------------------------------------------------------------*/
FoamFile
{
    version     2.0;
    format      ascii;
    class       volVectorField;
    location    "0.2";
    object      U;
}
// * * * * * * * * * * * * * * * * * * * * * * * * * * * * * * * * * * * * * //

dimensions      [0 1 -1 0 0 0 0];

internalField   nonuniform List<vector> 
14592
(
(0.003514 -0.00161326 -0.00204409)
(0.00446563 -0.0010102 -0.00222764)
(0.00542246 -0.000547272 -0.00197304)
(0.00594544 -0.000307288 -0.00168727)
(0.00621715 -0.000175331 -0.00143221)
(0.00635876 -9.75951e-05 -0.0012204)
(0.00642323 -4.84901e-05 -0.00105487)
(0.00643747 -1.457e-05 -0.000936449)
(0.00641467 1.19976e-05 -0.000866643)
(0.00635906 3.65345e-05 -0.000849889)
(0.00626754 6.35917e-05 -0.000896467)
(0.00612828 9.83943e-05 -0.00102775)
(0.00591208 0.000149089 -0.00128697)
(0.00552613 0.000233483 -0.00176086)
(0.0047665 0.000395646 -0.00260239)
(0.00387986 0.000671644 -0.00352789)
(0.00594442 -0.00255602 -0.00266891)
(0.00665485 -0.00184589 -0.00295545)
(0.00743564 -0.00108795 -0.00260609)
(0.00791453 -0.000636902 -0.00221664)
(0.00818048 -0.000371004 -0.00187342)
(0.00832085 -0.000208561 -0.00159064)
(0.00838165 -0.000103857 -0.00137022)
(0.00838849 -3.07145e-05 -0.00121191)
(0.00835422 2.69161e-05 -0.00111671)
(0.00828258 8.02531e-05 -0.00108946)
(0.00816944 0.000138949 -0.00114233)
(0.00800108 0.000213865 -0.00130103)
(0.00774569 0.000320817 -0.00161722)
(0.00730615 0.000488842 -0.00218998)
(0.00647587 0.000778092 -0.00315923)
(0.00550242 0.00123148 -0.00395278)
(0.00794305 -0.00327875 -0.00294164)
(0.00812909 -0.00259703 -0.00321636)
(0.00839574 -0.00162833 -0.00279505)
(0.00858832 -0.000987348 -0.00235046)
(0.00870078 -0.000585925 -0.00196938)
(0.0087545 -0.000331342 -0.00166045)
(0.00876595 -0.000163066 -0.00142128)
(0.00874563 -4.33478e-05 -0.00124876)
(0.00869853 5.22834e-05 -0.00114181)
(0.00862487 0.000141525 -0.00110345)
(0.00851999 0.000239754 -0.00114376)
(0.00837277 0.000363901 -0.00128519)
(0.00815902 0.000537063 -0.00157332)
(0.0078028 0.000795762 -0.00209367)
(0.00713746 0.00120107 -0.00295163)
(0.00636018 0.00172365 -0.00354174)
(0.00975641 -0.00334468 -0.00319109)
(0.00949447 -0.002811 -0.00343876)
(0.0092679 -0.00183586 -0.00294185)
(0.00914522 -0.00114173 -0.00244186)
(0.00906937 -0.000686345 -0.00202432)
(0.00900971 -0.000387477 -0.00169126)
(0.00895459 -0.00018446 -0.0014351)
(0.00889786 -3.66024e-05 -0.00124905)
(0.00883517 8.39079e-05 -0.00112918)
(0.00876234 0.000197903 -0.00107575)
(0.00867417 0.000323717 -0.00109534)
(0.00856291 0.000481213 -0.00120495)
(0.00841349 0.000696241 -0.00144035)
(0.00817437 0.00100634 -0.00186825)
(0.007725 0.00146584 -0.00255978)
(0.00719469 0.00198994 -0.00293667)
(0.0112854 -0.00294787 -0.00342045)
(0.0106894 -0.00257444 -0.00364759)
(0.0100677 -0.00172673 -0.00308083)
(0.00966973 -0.00109087 -0.00252747)
(0.0094176 -0.000658174 -0.00207378)
(0.00924677 -0.000365321 -0.00171617)
(0.0091245 -0.000160632 -0.0014422)
(0.00903083 -7.25965e-06 -0.00124137)
(0.00895307 0.000121191 -0.0011067)
(0.00888295 0.000245165 -0.00103535)
(0.00881482 0.000382951 -0.00102991)
(0.00874413 0.000554236 -0.00110121)
(0.00866418 0.000783944 -0.00127422)
(0.00854562 0.00110653 -0.00159602)
(0.00830878 0.00156638 -0.00210612)
(0.00801115 0.00203692 -0.00227755)
(0.0124665 -0.00226286 -0.00360932)
(0.0116374 -0.00202216 -0.00382369)
(0.0107279 -0.00137567 -0.00319985)
(0.0101174 -0.000872294 -0.00260107)
(0.00972293 -0.000519442 -0.00211559)
(0.00945955 -0.000273514 -0.00173562)
(0.00928056 -9.59301e-05 -0.00144475)
(0.00915602 4.22039e-05 -0.00122924)
(0.00906688 0.000162443 -0.00107924)
(0.00900173 0.000282028 -0.000988919)
(0.00895469 0.000416689 -0.000956898)
(0.00892414 0.000583422 -0.000987824)
(0.00891082 0.00080362 -0.00109598)
(0.00890596 0.0011066 -0.00130927)
(0.00886831 0.00152862 -0.00163759)
(0.00878733 0.0019264 -0.0016105)
(0.0132675 -0.00139746 -0.00374212)
(0.0122915 -0.0012593 -0.00394919)
(0.0111963 -0.000854757 -0.00328506)
(0.0104442 -0.000531005 -0.00265321)
(0.00995224 -0.000297378 -0.00214382)
(0.00962479 -0.000128397 -0.00174631)
(0.00940683 -1.66517e-07 -0.0014414)
(0.00926221 0.000105964 -0.00121288)
(0.00916778 0.000204456 -0.00104858)
(0.00911012 0.000307313 -0.00094003)
(0.00908345 0.000425748 -0.000882318)
(0.00908865 0.000571962 -0.000874457)
(0.00913313 0.00076131 -0.000920846)
(0.00922805 0.00101511 -0.00103145)
(0.00937267 0.0013599 -0.00118815)
(0.00949953 0.00166075 -0.000973006)
(0.0136722 -0.000432721 -0.00380931)
(0.0126261 -0.000376685 -0.00401238)
(0.0114416 -0.000234697 -0.00332693)
(0.0106208 -0.000116711 -0.00267707)
(0.0100818 -2.5377e-05 -0.00215401)
(0.00972424 4.82402e-05 -0.00174564)
(0.00948947 0.000112872 -0.00143105)
(0.00933849 0.0001758 -0.00119247)
(0.00924629 0.000243158 -0.00101614)
(0.00919861 0.00032048 -0.000891617)
(0.00918985 0.000413181 -0.000811202)
(0.00922253 0.000527027 -0.000769344)
(0.00930869 0.000668602 -0.000762233)
(0.00947581 0.000844993 -0.000784628)
(0.00976446 0.00105398 -0.000795762)
(0.0100965 0.00116644 -0.000429166)
(0.00372425 -0.00172787 -0.00187774)
(0.00470559 -0.00108196 -0.00205678)
(0.00567297 -0.000585855 -0.00183235)
(0.00617726 -0.000328577 -0.0015763)
(0.00641634 -0.000187044 -0.00134571)
(0.00652012 -0.000103578 -0.0011529)
(0.00654483 -5.06663e-05 -0.00100152)
(0.00651793 -1.3784e-05 -0.000893044)
(0.00645114 1.56345e-05 -0.000829345)
(0.00634516 4.35808e-05 -0.000814476)
(0.00619037 7.54671e-05 -0.000856707)
(0.00596337 0.00011798 -0.000971234)
(0.00561522 0.000182207 -0.00118371)
(0.0050252 0.000292483 -0.00153018)
(0.00398748 0.000505612 -0.00200893)
(0.00294256 0.000832101 -0.00213042)
(0.00631737 -0.00273563 -0.00244357)
(0.00702776 -0.00197711 -0.00272406)
(0.00778952 -0.00116488 -0.00241762)
(0.00822996 -0.000681147 -0.00206927)
(0.00844748 -0.000395833 -0.00175926)
(0.00853582 -0.000221327 -0.00150199)
(0.00854368 -0.000108435 -0.00130043)
(0.00849675 -2.88438e-05 -0.00115539)
(0.00840579 3.50334e-05 -0.00106841)
(0.00827006 9.58514e-05 -0.00104397)
(0.00807739 0.000165085 -0.00109178)
(0.00780016 0.000256522 -0.00122993)
(0.00738367 0.000391292 -0.00148848)
(0.00670158 0.000608219 -0.00190578)
(0.00555465 0.000979609 -0.00244994)
(0.00442056 0.00148483 -0.00239249)
(0.00845763 -0.00350684 -0.00268182)
(0.00860454 -0.00278128 -0.00295644)
(0.00881299 -0.00174336 -0.00258799)
(0.00894399 -0.00105583 -0.00219119)
(0.00899476 -0.000625001 -0.00184753)
(0.00898836 -0.000351401 -0.00156673)
(0.0089419 -0.000169838 -0.00134813)
(0.00886489 -3.9414e-05 -0.00119003)
(0.00875983 6.67476e-05 -0.00109217)
(0.00862242 0.00016867 -0.00105744)
(0.00844052 0.000284662 -0.00109376)
(0.00819049 0.000436158 -0.00121667)
(0.00782816 0.000653793 -0.00145198)
(0.00725373 0.000985943 -0.00183033)
(0.00631118 0.00150168 -0.00230543)
(0.00539911 0.00207775 -0.00213841)
(0.0104008 -0.00357561 -0.00289798)
(0.0100679 -0.00300992 -0.00315194)
(0.00974758 -0.00196528 -0.00271806)
(0.00954009 -0.00122068 -0.00227263)
(0.00938868 -0.000731825 -0.00189667)
(0.00926078 -0.000410478 -0.00159425)
(0.00914339 -0.000191218 -0.00136022)
(0.00902837 -2.98693e-05 -0.00118965)
(0.00890846 0.000104211 -0.00107976)
(0.00877524 0.000234694 -0.00103104)
(0.00861702 0.000383508 -0.00104851)
(0.00841569 0.000575896 -0.00114359)
(0.00814 0.00084632 -0.00133584)
(0.00771961 0.00124485 -0.00164699)
(0.00704248 0.00183078 -0.00202551)
(0.00639917 0.00240605 -0.00178637)
(0.0120396 -0.00315031 -0.00309692)
(0.0113491 -0.00275628 -0.00333538)
(0.0106055 -0.00184825 -0.0028409)
(0.0101026 -0.00116606 -0.00234857)
(0.00976224 -0.000701396 -0.00194053)
(0.00951556 -0.000386275 -0.00161607)
(0.00932705 -0.000164873 -0.00136581)
(0.00917396 2.92392e-06 -0.00118157)
(0.00904043 0.000146338 -0.00105788)
(0.00891434 0.000288752 -0.000992486)
(0.00878468 0.000452238 -0.000987136)
(0.00863887 0.000662099 -0.00104864)
(0.00845784 0.000952087 -0.0011898)
(0.00819798 0.00136912 -0.0014237)
(0.00778449 0.001961 -0.00169756)
(0.00739566 0.00248153 -0.00140281)
(0.0133057 -0.00241775 -0.00326093)
(0.0123657 -0.00216493 -0.00349015)
(0.0113137 -0.00147243 -0.00294609)
(0.010583 -0.000932222 -0.00241377)
(0.0100902 -0.000553065 -0.00197744)
(0.00974477 -0.000288079 -0.00163284)
(0.00949647 -9.54933e-05 -0.00136713)
(0.00931198 5.62817e-05 -0.00116925)
(0.00916904 0.000191277 -0.00103119)
(0.0090528 0.000329442 -0.000948092)
(0.00895324 0.000490079 -0.000918396)
(0.00886297 0.000695543 -0.000944311)
(0.00877414 0.000975685 -0.00103201)
(0.00866793 0.00137183 -0.00118627)
(0.0085041 0.00192335 -0.00135477)
(0.00835375 0.002369 -0.00101212)
(0.0141643 -0.00149315 -0.00337627)
(0.0130672 -0.00134845 -0.00360043)
(0.0118164 -0.000915031 -0.00302131)
(0.0109338 -0.000567358 -0.00245981)
(0.0103367 -0.000315951 -0.00200212)
(0.00992324 -0.000133337 -0.00164165)
(0.00963421 6.47319e-06 -0.00136301)
(0.0094299 0.000124031 -0.00115297)
(0.00928402 0.000235686 -0.00100142)
(0.00918024 0.000355651 -0.000901212)
(0.00910976 0.000498167 -0.000847826)
(0.00906992 0.000680092 -0.000839245)
(0.00906321 0.000924339 -0.000875451)
(0.00909522 0.00126347 -0.000953378)
(0.00916359 0.00172848 -0.00102139)
(0.00924489 0.00207848 -0.000635264)
(0.0145982 -0.000462901 -0.00343451)
(0.0134261 -0.000404012 -0.00365579)
(0.0120799 -0.000251676 -0.00305806)
(0.0111237 -0.000124586 -0.00248058)
(0.0104765 -2.56937e-05 -0.00201059)
(0.0100313 5.47478e-05 -0.00164017)
(0.00972526 0.000126404 -0.0013525)
(0.00951573 0.00019754 -0.00113295)
(0.00937474 0.000275441 -0.00096996)
(0.00928561 0.000367149 -0.000854632)
(0.00924079 0.000480285 -0.000780093)
(0.0092412 0.000624114 -0.000740836)
(0.0092976 0.000811093 -0.00073153)
(0.00943739 0.00105766 -0.00074215)
(0.00970203 0.00136776 -0.000722861)
(0.0100241 0.00153788 -0.000311714)
(0.00390608 -0.00182641 -0.0016644)
(0.0049145 -0.00114396 -0.00183035)
(0.00589299 -0.00061935 -0.0016382)
(0.00638249 -0.000347126 -0.00141608)
(0.0065939 -0.000197265 -0.00121461)
(0.00666476 -0.000108769 -0.00104515)
(0.00665431 -5.24759e-05 -0.000911432)
(0.0065907 -1.29269e-05 -0.000815103)
(0.00648481 1.90777e-05 -0.000757797)
(0.00633519 5.00992e-05 -0.000742401)
(0.00612884 8.62396e-05 -0.000774043)
(0.0058381 0.000135232 -0.000860693)
(0.00541126 0.000209923 -0.00101236)
(0.00473818 0.000337314 -0.00123388)
(0.00366641 0.000576582 -0.00147916)
(0.00267307 0.000923842 -0.00137538)
(0.00663914 -0.00289013 -0.00216024)
(0.00735168 -0.00209062 -0.00242086)
(0.00809982 -0.00123173 -0.00215959)
(0.0085089 -0.000719726 -0.00185779)
(0.00868531 -0.000417509 -0.00158713)
(0.00872843 -0.000232405 -0.00136111)
(0.00868951 -0.000112237 -0.00118312)
(0.00859464 -2.68458e-05 -0.00105433)
(0.00845331 4.26762e-05 -0.000976148)
(0.00826201 0.000110186 -0.000951679)
(0.00800442 0.000188574 -0.000986826)
(0.00764796 0.000293629 -0.00109085)
(0.00713529 0.000449467 -0.00127491)
(0.00635498 0.000698589 -0.00154111)
(0.00517668 0.00111243 -0.00181441)
(0.0041248 0.00162661 -0.00155105)
(0.00890102 -0.00370318 -0.00236282)
(0.0090167 -0.00294082 -0.00262167)
(0.00917813 -0.00184338 -0.00230826)
(0.009258 -0.00111556 -0.00196507)
(0.00925629 -0.000659109 -0.00166539)
(0.00919773 -0.000368783 -0.00141891)
(0.00910019 -0.000175397 -0.00122597)
(0.0089727 -3.53408e-05 -0.00108565)
(0.00881609 8.03228e-05 -0.000997834)
(0.00862329 0.000193543 -0.000964334)
(0.00837825 0.000324864 -0.000989674)
(0.00805304 0.000498706 -0.00108137)
(0.00760177 0.000749705 -0.00124808)
(0.00693999 0.00113014 -0.00148813)
(0.00597682 0.00170299 -0.00171988)
(0.00515017 0.00227151 -0.00138446)
(0.0109557 -0.0037745 -0.0025453)
(0.0105643 -0.00318233 -0.00278869)
(0.0101667 -0.0020779 -0.00242004)
(0.00988816 -0.00128956 -0.00203536)
(0.0096724 -0.000771495 -0.00170791)
(0.00948536 -0.000430336 -0.0014427)
(0.00931317 -0.000196593 -0.00123625)
(0.0091463 -2.30823e-05 -0.00108494)
(0.00897548 0.000123254 -0.000986535)
(0.00878955 0.000268438 -0.0009409)
(0.00857344 0.000437117 -0.000950418)
(0.00830558 0.00065806 -0.00101994)
(0.00795374 0.000970177 -0.00115485)
(0.00746128 0.00142719 -0.00135032)
(0.00677081 0.00207867 -0.00152689)
(0.00620253 0.00263623 -0.00115616)
(0.0126888 -0.00332471 -0.00271336)
(0.0119199 -0.00291399 -0.00294526)
(0.0110748 -0.00195404 -0.00252538)
(0.0104837 -0.00123164 -0.00210063)
(0.0100682 -0.000739018 -0.00174556)
(0.00975584 -0.000404222 -0.00146122)
(0.00950916 -0.000167873 -0.00124055)
(0.00930327 1.29619e-05 -0.00107716)
(0.00912007 0.000169932 -0.000966589)
(0.00894485 0.000328836 -0.000906493)
(0.00876377 0.000514607 -0.000896844)
(0.0085616 0.000756221 -0.000939554)
(0.00831878 0.00109194 -0.00103661)
(0.00800284 0.00157207 -0.00118069)
(0.00758112 0.00223317 -0.00129839)
(0.00725293 0.00273237 -0.000909947)
(0.014028 -0.00255118 -0.00285201)
(0.0129956 -0.00228875 -0.00307741)
(0.0118248 -0.00155663 -0.00261556)
(0.0109927 -0.000984403 -0.00215658)
(0.010416 -0.000582178 -0.00177712)
(0.00999968 -0.000300292 -0.00147525)
(0.00969059 -9.42292e-05 -0.00124099)
(0.00945293 6.99312e-05 -0.00106554)
(0.009262 0.000218352 -0.000942253)
(0.00910063 0.000373206 -0.000866747)
(0.00895653 0.000556503 -0.000836565)
(0.00882045 0.000794109 -0.000850705)
(0.00868448 0.00112022 -0.000907867)
(0.00853803 0.00157945 -0.000998599)
(0.0083703 0.00220014 -0.00105717)
(0.00826527 0.00262486 -0.000659474)
(0.0149362 -0.00157551 -0.00294953)
(0.013738 -0.00142567 -0.00317153)
(0.0123572 -0.000967342 -0.00267997)
(0.0113644 -0.00059882 -0.00219596)
(0.0106778 -0.000331753 -0.00179803)
(0.01019 -0.000136973 -0.00148228)
(0.00983871 1.33216e-05 -0.00123661)
(0.00958154 0.000141336 -0.00105032)
(0.00938975 0.000265035 -0.000915069)
(0.00924495 0.000400465 -0.000824609)
(0.00913669 0.000564165 -0.000774327)
(0.00906122 0.00077607 -0.000760548)
(0.00902147 0.00106306 -0.000778907)
(0.00902889 0.00146117 -0.000817945)
(0.00909889 0.00199259 -0.000819669)
(0.00921218 0.00232788 -0.000416439)
(0.0153952 -0.000488686 -0.00299867)
(0.014118 -0.000427431 -0.00321865)
(0.0126363 -0.000266114 -0.00271125)
(0.011566 -0.000131012 -0.00221349)
(0.0108266 -2.5365e-05 -0.00180485)
(0.0103058 6.12804e-05 -0.00148034)
(0.00993748 0.00013941 -0.0012266)
(0.00967614 0.000218155 -0.00103178)
(0.0094916 0.000305795 -0.000886304)
(0.00936543 0.000410625 -0.000782542)
(0.00928894 0.000541949 -0.000714154)
(0.0092628 0.000711376 -0.000675251)
(0.00929905 0.000934563 -0.000658773)
(0.00943003 0.00123136 -0.000651368)
(0.00970776 0.00160113 -0.000603283)
(0.0100591 0.00177302 -0.000208448)
(0.00405862 -0.0019087 -0.00141248)
(0.00509063 -0.00119593 -0.00155808)
(0.00607971 -0.000647514 -0.00139959)
(0.00655775 -0.00036276 -0.00121445)
(0.00674638 -0.000205884 -0.00104555)
(0.00678962 -0.000113123 -0.000902782)
(0.00674937 -5.39411e-05 -0.000789537)
(0.00665461 -1.2099e-05 -0.000707329)
(0.00651596 2.21224e-05 -0.000657336)
(0.00633101 5.57297e-05 -0.000641211)
(0.0060856 9.53099e-05 -0.000661418)
(0.00575174 0.000149222 -0.000720846)
(0.00528069 0.000231146 -0.000820875)
(0.00457593 0.000368894 -0.000954838)
(0.00351792 0.000621627 -0.00107885)
(0.00257299 0.000978435 -0.000945413)
(0.00690859 -0.00301916 -0.00182951)
(0.00762431 -0.00218581 -0.00205858)
(0.00836285 -0.00128796 -0.0018438)
(0.00874691 -0.000752251 -0.00159249)
(0.00888943 -0.000435789 -0.00136571)
(0.00889464 -0.000241697 -0.00117535)
(0.0088161 -0.000115314 -0.00102466)
(0.00868054 -2.49413e-05 -0.000914796)
(0.00849696 4.94048e-05 -0.000846733)
(0.00826058 0.000122516 -0.000822132)
(0.0079537 0.000208276 -0.000843677)
(0.00754347 0.000323674 -0.000914485)
(0.00697658 0.000494249 -0.00103542)
(0.00615942 0.000763512 -0.0011957)
(0.00500427 0.00120032 -0.0013289)
(0.00402327 0.00171575 -0.00106915)
(0.00927197 -0.00386719 -0.00199572)
(0.00936309 -0.00307469 -0.00222554)
(0.00948718 -0.00192756 -0.00196836)
(0.00952559 -0.00116593 -0.00168296)
(0.00948054 -0.000687865 -0.00143211)
(0.00937826 -0.000383343 -0.00122468)
(0.00923749 -0.000179851 -0.00106142)
(0.00906716 -3.15234e-05 -0.000941829)
(0.00886725 9.22502e-05 -0.000865648)
(0.00862934 0.000214911 -0.000833529)
(0.0083361 0.000358564 -0.00084716)
(0.00795954 0.000549416 -0.000908525)
(0.00745803 0.000823977 -0.00101708)
(0.00676456 0.00123529 -0.00116014)
(0.00582883 0.00183996 -0.00126695)
(0.00507476 0.0023961 -0.000953456)
(0.0114198 -0.00394067 -0.00214453)
(0.0109812 -0.00332707 -0.00236307)
(0.010521 -0.00217272 -0.00206083)
(0.0101844 -0.00134764 -0.00174128)
(0.00991542 -0.000804915 -0.00146745)
(0.00967885 -0.000446917 -0.00124443)
(0.00946031 -0.000200774 -0.00106987)
(0.00924943 -1.6805e-05 -0.000941053)
(0.00903572 0.000139997 -0.00085604)
(0.00880663 0.000297478 -0.000814011)
(0.00854593 0.000482175 -0.000815169)
(0.00823216 0.000724957 -0.000859899)
(0.0078371 0.00106675 -0.000946088)
(0.0073195 0.00156155 -0.00106018)
(0.00665647 0.00224958 -0.00113362)
(0.0061538 0.00278426 -0.000794101)
(0.0132317 -0.00347045 -0.00228163)
(0.0123989 -0.00304645 -0.0024919)
(0.0114713 -0.00204312 -0.00214779)
(0.0108079 -0.00128691 -0.00179523)
(0.01033 -0.000770653 -0.00149853)
(0.00996273 -0.000419101 -0.00125957)
(0.00966688 -0.000169929 -0.00107309)
(0.00941616 2.21301e-05 -0.000934147)
(0.00919097 0.000190711 -0.000838984)
(0.00897523 0.000363446 -0.000785152)
(0.00875405 0.00056726 -0.00077119)
(0.00851239 0.000833304 -0.000795758)
(0.00823417 0.00120182 -0.000855227)
(0.00789941 0.00172307 -0.000935859)
(0.00750248 0.00242271 -0.000974365)
(0.00722895 0.00289356 -0.000623387)
(0.0146318 -0.00266267 -0.00239481)
(0.0135241 -0.00239273 -0.00260064)
(0.0122562 -0.0016275 -0.00222221)
(0.0113408 -0.00102831 -0.00184142)
(0.0106946 -0.000606541 -0.00152449)
(0.0102191 -0.000310223 -0.00127089)
(0.00985863 -9.25588e-05 -0.001073)
(0.0095758 8.22973e-05 -0.000923882)
(0.0093442 0.000242251 -0.000818126)
(0.00914527 0.000411156 -0.00075169)
(0.00896589 0.000612898 -0.000721478)
(0.00879704 0.000875414 -0.000724453)
(0.00863362 0.00123479 -0.000755592)
(0.00847443 0.00173558 -0.000801319)
(0.00832783 0.00239516 -0.000804985)
(0.00826524 0.00279068 -0.000450443)
(0.0155815 -0.00164424 -0.00247441)
(0.0143008 -0.00149043 -0.00267806)
(0.0128136 -0.00101126 -0.0022753)
(0.0117303 -0.000625147 -0.00187384)
(0.0109694 -0.000344766 -0.00154155)
(0.0104195 -0.000139544 -0.00127633)
(0.0100157 1.98279e-05 -0.00106882)
(0.00971363 0.000156928 -0.00091056)
(0.0094828 0.000291009 -0.00079478)
(0.00930358 0.000439522 -0.000716066)
(0.00916481 0.000620585 -0.000669863)
(0.00906312 0.000855944 -0.000651598)
(0.00900371 0.00117425 -0.000654954)
(0.00900463 0.00161182 -0.000666548)
(0.0090931 0.00218159 -0.00063662)
(0.00923754 0.00249237 -0.000282456)
(0.0160615 -0.000510062 -0.00251444)
(0.0146983 -0.00044688 -0.00271671)
(0.013106 -0.000278007 -0.00230096)
(0.0119418 -0.000136094 -0.00188809)
(0.011126 -2.46352e-05 -0.00154685)
(0.0105421 6.741e-05 -0.00127424)
(0.0101212 0.000151215 -0.00105989)
(0.00981586 0.00023663 -0.000894394)
(0.00959419 0.000332722 -0.000770014)
(0.00943665 0.00044873 -0.000680324)
(0.00933408 0.000595101 -0.00061962)
(0.00928768 0.000784806 -0.000582062)
(0.00931161 0.00103497 -0.000560182)
(0.00944321 0.00136614 -0.000540705)
(0.00974162 0.00177179 -0.00048146)
(0.0101202 0.00193254 -0.00014017)
(0.00418128 -0.00197464 -0.00112981)
(0.00523277 -0.00123771 -0.00124906)
(0.00623112 -0.000670207 -0.00112516)
(0.00670054 -0.000375374 -0.000979191)
(0.00687119 -0.000212838 -0.000845425)
(0.00689231 -0.000116621 -0.00073188)
(0.00682805 -5.5086e-05 -0.000641377)
(0.00670827 -1.13749e-05 -0.000575134)
(0.00654369 2.4638e-05 -0.000533876)
(0.00633172 6.02855e-05 -0.000518331)
(0.00605825 0.000102473 -0.000529241)
(0.0056964 0.000159907 -0.000566744)
(0.00520127 0.000246634 -0.000628655)
(0.00448611 0.000390681 -0.000706127)
(0.0034472 0.00065106 -0.000766715)
(0.00253357 0.00101321 -0.000650204)
(0.00712497 -0.0031225 -0.00146116)
(0.00784405 -0.00226232 -0.00164909)
(0.00857596 -0.00133325 -0.00148157)
(0.00894072 -0.000778475 -0.00128356)
(0.00905644 -0.000450526 -0.00110401)
(0.00903129 -0.000249155 -0.000952652)
(0.00892083 -0.000117716 -0.000832249)
(0.00875258 -2.32913e-05 -0.000743767)
(0.00853552 5.49441e-05 -0.000687729)
(0.00826462 0.000132465 -0.000664733)
(0.0079222 0.000223811 -0.000675414)
(0.00747694 0.000346649 -0.0007196)
(0.00688049 0.000527142 -0.000793985)
(0.00605188 0.000808946 -0.000885905)
(0.00492441 0.00125902 -0.000946793)
(0.00398887 0.0017745 -0.000735979)
(0.0095696 -0.00399852 -0.00159058)
(0.00964195 -0.00318228 -0.00178052)
(0.00973728 -0.00199534 -0.00158018)
(0.00974328 -0.00120653 -0.00135553)
(0.00966387 -0.000711032 -0.00115709)
(0.00952658 -0.000395011 -0.000992257)
(0.00935098 -0.000183302 -0.000861903)
(0.00914619 -2.82509e-05 -0.000765691)
(0.00891191 0.000102057 -0.000703217)
(0.00863932 0.000232146 -0.000674338)
(0.00831114 0.000385156 -0.000678998)
(0.00790093 0.000588302 -0.000716306)
(0.00737199 0.000878895 -0.000782167)
(0.00666971 0.00130977 -0.00086284)
(0.00576401 0.00193299 -0.000906511)
(0.00505697 0.00247959 -0.000655779)
(0.011792 -0.00407376 -0.00170587)
(0.0113165 -0.00344345 -0.00188795)
(0.0108074 -0.0022491 -0.00165265)
(0.0104252 -0.00139447 -0.00140133)
(0.0101139 -0.000831822 -0.00118487)
(0.00983768 -0.000460172 -0.00100777)
(0.00958181 -0.000203937 -0.000868495)
(0.00933549 -1.14702e-05 -0.000765007)
(0.00908762 0.00015378 -0.000695627)
(0.00882514 0.00032095 -0.000659156)
(0.00853183 0.000517835 -0.000654561)
(0.0081877 0.000776484 -0.000680037)
(0.00776897 0.00113861 -0.000730781)
(0.00724541 0.00165755 -0.000792945)
(0.00661154 0.00236678 -0.000815913)
(0.00615246 0.00288347 -0.00054479)
(0.0136669 -0.00358718 -0.00181214)
(0.012784 -0.00315297 -0.00198853)
(0.0117916 -0.00211488 -0.00172069)
(0.0110711 -0.00133145 -0.00144356)
(0.0105437 -0.000796083 -0.00120916)
(0.0101324 -0.000430925 -0.00101951)
(0.00979697 -0.000171292 -0.000870828)
(0.00951012 2.99335e-05 -0.000759357)
(0.00925138 0.000207865 -0.000682038)
(0.00900403 0.000391516 -0.000636533)
(0.00875317 0.000609108 -0.000620721)
(0.00848502 0.000892997 -0.00063183)
(0.00818728 0.00128416 -0.000664467)
(0.00784897 0.00183183 -0.000705238)
(0.00747817 0.00255366 -0.000706892)
(0.00724207 0.00300116 -0.000426028)
(0.0151159 -0.00275194 -0.00189991)
(0.013949 -0.00247634 -0.00207342)
(0.0126047 -0.00168455 -0.0017789)
(0.0116234 -0.00106364 -0.00147968)
(0.010922 -0.000626047 -0.00122939)
(0.0103989 -0.000317984 -0.0010282)
(0.00999718 -9.08341e-05 -0.000870478)
(0.00967786 9.2777e-05 -0.000750952)
(0.0094136 0.000262039 -0.000665371)
(0.00918515 0.000442066 -0.000610209)
(0.00897926 0.000657955 -0.000582306)
(0.00878799 0.000938777 -0.000577968)
(0.00860923 0.00132129 -0.000591311)
(0.00844864 0.001849 -0.000609683)
(0.00832423 0.00253108 -0.000590263)
(0.00829166 0.00290153 -0.000306022)
(0.0160988 -0.00169924 -0.00196164)
(0.0147531 -0.00154244 -0.00213384)
(0.0131822 -0.00104654 -0.00182039)
(0.0120273 -0.000646229 -0.00150497)
(0.0112074 -0.000355039 -0.0012426)
(0.0106077 -0.000141289 -0.00103222)
(0.0101616 2.55275e-05 -0.000866871)
(0.0098232 0.000170059 -0.000740119)
(0.0095609 0.000312574 -0.000646673)
(0.00935434 0.00047149 -0.000582074)
(0.00919228 0.000665944 -0.000542227)
(0.00907218 0.000918664 -0.000522613)
(0.00900159 0.00125896 -0.000516914)
(0.00900342 0.00172241 -0.000513239)
(0.00911074 0.00231482 -0.000473524)
(0.00927815 0.00260343 -0.00018957)
(0.0165956 -0.000527066 -0.00199264)
(0.0151648 -0.000462369 -0.00216394)
(0.0134854 -0.000287405 -0.00184036)
(0.0122468 -0.000139959 -0.00151598)
(0.0113703 -2.37404e-05 -0.00124653)
(0.0107359 7.27603e-05 -0.00103029)
(0.0102726 0.000161261 -0.000859492)
(0.00993165 0.00025217 -0.000726989)
(0.00967994 0.000355151 -0.000626783)
(0.00949728 0.00048009 -0.000553718)
(0.00937441 0.000638144 -0.000502984)
(0.00931331 0.000843 -0.000469401)
(0.00933013 0.00111231 -0.000446263)
(0.00946586 0.00146637 -0.000422353)
(0.00978333 0.00189384 -0.000365185)
(0.0101828 0.00204194 -9.21972e-05)
(0.00427375 -0.0020243 -0.000823601)
(0.00534008 -0.00126935 -0.000911583)
(0.00634575 -0.000687435 -0.000823088)
(0.00680907 -0.000384964 -0.000717908)
(0.00696641 -0.00021813 -0.000621121)
(0.00697097 -0.000119282 -0.000538694)
(0.00688868 -5.59509e-05 -0.000472729)
(0.00675019 -1.08154e-05 -0.000424088)
(0.00656649 2.65473e-05 -0.000393159)
(0.00633519 6.36967e-05 -0.000380131)
(0.00604264 0.000107737 -0.000384906)
(0.00566333 0.000167563 -0.000406584)
(0.00515539 0.00025738 -0.000442297)
(0.00443788 0.000405278 -0.000484797)
(0.00341397 0.000670234 -0.000513042)
(0.00251886 0.00103562 -0.000426542)
(0.00728782 -0.0032001 -0.00106444)
(0.00800981 -0.00232 -0.00120356)
(0.00873726 -0.00136743 -0.0010838)
(0.00908799 -0.00079828 -0.000941024)
(0.00918382 -0.000461655 -0.000811071)
(0.00913593 -0.000254773 -0.000701167)
(0.00900151 -0.000119499 -0.000613392)
(0.00880879 -2.2005e-05 -0.000548431)
(0.00856703 5.91446e-05 -0.000506489)
(0.00827138 0.000139898 -0.00048758)
(0.00790475 0.000235207 -0.000491377)
(0.00743758 0.000363105 -0.000516519)
(0.00682538 0.000550023 -0.000559043)
(0.00599482 0.000839556 -0.00060882)
(0.00488856 0.00129755 -0.000634208)
(0.00398006 0.00181303 -0.00048267)
(0.00979331 -0.00409699 -0.00115655)
(0.00985206 -0.00326323 -0.00129819)
(0.00992644 -0.00204638 -0.00115502)
(0.00990857 -0.00123711 -0.000993189)
(0.0098036 -0.000728466 -0.00084969)
(0.00964009 -0.000403757 -0.000730093)
(0.00943832 -0.000185826 -0.000635134)
(0.00920773 -2.56953e-05 -0.000564581)
(0.00894803 0.000109497 -0.000517997)
(0.00865048 0.000245024 -0.000494888)
(0.00829837 0.000404675 -0.000494482)
(0.00786699 0.000616216 -0.000514981)
(0.00732347 0.000917269 -0.000551977)
(0.00662067 0.0013603 -0.000594683)
(0.00573768 0.00199456 -0.000609072)
(0.00505901 0.00253488 -0.000429862)
(0.0120715 -0.00417357 -0.00123842)
(0.011569 -0.00353104 -0.00137519)
(0.0110239 -0.00230663 -0.00120699)
(0.0106079 -0.00142973 -0.00102604)
(0.0102651 -0.000852063 -0.000869631)
(0.00995915 -0.000470086 -0.00074122)
(0.00967522 -0.000206204 -0.000639843)
(0.00940231 -7.30973e-06 -0.000564063)
(0.00912911 0.000164257 -0.000512558)
(0.00884247 0.000338528 -0.000484134)
(0.00852666 0.000544089 -0.000477413)
(0.00816324 0.00081362 -0.000490096)
(0.00773193 0.00118911 -0.000517471)
(0.00720914 0.00172313 -0.00054881)
(0.00659736 0.00244492 -0.000550505)
(0.00616516 0.00294934 -0.000356428)
(0.0139938 -0.00367474 -0.00131401)
(0.0130739 -0.00323316 -0.0014473)
(0.0120336 -0.00216895 -0.00125578)
(0.0112707 -0.00136499 -0.0010563)
(0.0107064 -0.000815193 -0.000887007)
(0.0102621 -0.000439729 -0.000749565)
(0.00989689 -0.000172161 -0.000641409)
(0.00958288 3.59975e-05 -0.000559888)
(0.00929916 0.000220937 -0.000502735)
(0.0090288 0.000412604 -0.00046799)
(0.00875725 0.000640033 -0.000453612)
(0.00847206 0.000936217 -0.000456789)
(0.00816387 0.00134232 -0.00047261)
(0.00782724 0.00190659 -0.000490801)
(0.00747646 0.00264148 -0.00047957)
(0.00726404 0.00307248 -0.000277679)
(0.0154795 -0.0028189 -0.00137649)
(0.0142687 -0.00253927 -0.00150816)
(0.012868 -0.00172753 -0.00129752)
(0.0118377 -0.00109022 -0.00108217)
(0.011095 -0.000640661 -0.000901446)
(0.0105364 -0.000323687 -0.000755689)
(0.0101035 -8.93289e-05 -0.000641017)
(0.00975674 0.000100913 -0.00055371)
(0.00946806 0.00027716 -0.00049066)
(0.00921792 0.000465373 -0.000449148)
(0.00899333 0.000691398 -0.000426499)
(0.00878739 0.000984892 -0.000419421)
(0.00860034 0.00138277 -0.000422886)
(0.00844208 0.00192749 -0.000427278)
(0.00833493 0.00262279 -0.000403358)
(0.00832195 0.00297497 -0.000198145)
(0.0164873 -0.00174045 -0.00142043)
(0.0150935 -0.00158155 -0.00155145)
(0.0134607 -0.00107307 -0.00132725)
(0.0122525 -0.000662031 -0.00110026)
(0.0113884 -0.00036265 -0.000910833)
(0.0107514 -0.000142414 -0.000758442)
(0.0102735 3.00771e-05 -0.000638255)
(0.00990773 0.000180257 -0.000545739)
(0.00962181 0.000329107 -0.00047708)
(0.00939503 0.000495697 -0.000428944)
(0.00921627 0.000699784 -0.000398101)
(0.00908385 0.000964589 -0.000380844)
(0.00900716 0.00131957 -0.000372061)
(0.00901212 0.00179951 -0.000362817)
(0.00913427 0.00240538 -0.000326726)
(0.00931724 0.0026773 -0.000121055)
(0.0169967 -0.000539751 -0.00144248)
(0.0155159 -0.000473938 -0.00157298)
(0.0137719 -0.000294378 -0.00134152)
(0.012478 -0.000142733 -0.00110808)
(0.0115561 -2.28837e-05 -0.000913538)
(0.0108838 7.703e-05 -0.000756895)
(0.0103887 0.00016913 -0.000632759)
(0.0100209 0.000264226 -0.00053609)
(0.00974656 0.000372398 -0.000462598)
(0.00954515 0.000503949 -0.000408505)
(0.00940751 0.00067045 -0.000370167)
(0.00933631 0.000885917 -0.00034356)
(0.0093492 0.00116812 -0.000323508)
(0.00948954 0.00153686 -0.000301719)
(0.00982176 0.00197747 -0.00025542)
(0.0102359 0.00211509 -5.74814e-05)
(0.00433621 -0.00205836 -0.000499412)
(0.00541204 -0.00129172 -0.000551387)
(0.00642235 -0.000699669 -0.000499699)
(0.00688201 -0.000391819 -0.000436706)
(0.00703063 -0.000221963 -0.000378345)
(0.00702419 -0.000121253 -0.000328539)
(0.0069299 -5.66476e-05 -0.000288567)
(0.00677899 -1.05073e-05 -0.000258935)
(0.00658277 2.77928e-05 -0.000239819)
(0.00633907 6.59603e-05 -0.000231197)
(0.00603475 0.000111221 -0.000232774)
(0.00564533 0.000172571 -0.000243662)
(0.00513082 0.000264296 -0.000261754)
(0.00441329 0.000414544 -0.000282748)
(0.00339921 0.000682347 -0.000295515)
(0.00251462 0.00104955 -0.000241837)
(0.00739723 -0.00325202 -0.000646879)
(0.00812103 -0.00235923 -0.000730505)