/*--------------------------------*- C++ -*----------------------------------*\
| =========                 |                                                 |
| \\      /  F ield         | foam-extend: Open Source CFD                    |
|  \\    /   O peration     | Version:     3.1                                |
|   \\  /    A nd           | Web:         http://www.extend-project.de       |
|    \\/     M anipulation  |                                                 |
\*---------------------------------------------------------------------------*/
FoamFile
{
    version     2.0;
    format      ascii;
    class       volVectorField;
    location    "3.7";
    object      D;
}
// * * * * * * * * * * * * * * * * * * * * * * * * * * * * * * * * * * * * * //

dimensions      [0 1 0 0 0 0 0];

internalField   nonuniform List<vector> 
256
(
(0.000261589 0.000175331 0.000298384)
(0.000110964 3.40227e-05 8.88885e-05)
(9.85549e-05 -5.17104e-05 -0.000107778)
(0.000222208 -0.00019366 -0.00033037)
(0.00109823 0.000719955 0.000242462)
(0.000911121 0.000192698 8.41082e-05)
(0.000875889 -0.000227271 -0.000151233)
(0.000986318 -0.000751897 -0.000335255)
(0.00215995 0.00111249 0.000164638)
(0.00197194 0.000323626 3.5007e-05)
(0.0019235 -0.000370591 -0.000145578)
(0.00200991 -0.0011624 -0.000303233)
(0.00342612 0.00141581 5.23389e-05)
(0.00325583 0.000418441 -1.69826e-05)
(0.00319842 -0.000493464 -0.000133151)
(0.00324807 -0.00149562 -0.000232884)
(0.00482612 0.00162131 -6.26199e-05)
(0.00467187 0.000476132 -6.95351e-05)
(0.00460811 -0.000593524 -0.000117876)
(0.00462759 -0.0017417 -0.000156086)
(0.00629403 0.00174779 -0.000168557)
(0.00615407 0.000503717 -0.000119107)
(0.00608589 -0.000673659 -0.000106063)
(0.00608158 -0.00191538 -8.62038e-05)
(0.00777726 0.00181391 -0.000257586)
(0.00764636 0.000508654 -0.00016627)
(0.00757404 -0.000735744 -0.000102101)
(0.00755422 -0.00202981 -3.40339e-05)
(0.00924908 0.00183856 -0.000330802)
(0.0091089 0.000501184 -0.000213476)
(0.00902699 -0.000781009 -0.000108535)
(0.00900351 -0.00210162 -1.04757e-05)
(0.000294951 0.000173913 0.000148697)
(0.000148137 3.56347e-05 4.60425e-05)
(0.000135451 -4.64205e-05 -6.26629e-05)
(0.000249917 -0.000182051 -0.000177942)
(0.00117061 0.000716764 0.000135407)
(0.000960227 0.000196684 4.09668e-05)
(0.000927252 -0.000215984 -9.98505e-05)
(0.00106275 -0.000734487 -0.00021237)
(0.00221453 0.00112743 8.68209e-05)
(0.0020266 0.000335664 8.41805e-06)
(0.00198078 -0.00036564 -0.000106177)
(0.00206934 -0.00116089 -0.000203716)
(0.00344952 0.00143677 1.01172e-05)
(0.00328143 0.000434839 -3.0461e-05)
(0.00322675 -0.000487894 -0.000102943)
(0.00327611 -0.00149502 -0.000163986)
(0.00480907 0.00164686 -7.35832e-05)
(0.00465986 0.000496438 -7.10515e-05)
(0.0045986 -0.000585153 -9.64592e-05)
(0.00461446 -0.0017382 -0.000114573)
(0.00623598 0.00177525 -0.000153124)
(0.00610214 0.000526791 -0.000110531)
(0.00603632 -0.000660364 -9.19566e-05)
(0.00602671 -0.00190497 -6.85408e-05)
(0.00768212 0.00184143 -0.000221599)
(0.00755876 0.000533097 -0.000148456)
(0.00748906 -0.000716654 -9.38474e-05)
(0.00746244 -0.00201041 -3.5763e-05)
(0.00912631 0.00186484 -0.000277149)
(0.00899406 0.00052534 -0.000184952)
(0.0089151 -0.000757097 -0.000105901)
(0.00888496 -0.00207385 -2.66961e-05)
(0.000310394 0.000179549 7.22177e-05)
(0.000154448 3.81979e-05 2.14822e-05)
(0.000139746 -4.67449e-05 -3.69511e-05)
(0.000258587 -0.000186078 -9.56891e-05)
(0.00120381 0.000711933 6.54887e-05)
(0.000974853 0.000197656 1.37082e-05)
(0.000939585 -0.000208256 -6.47578e-05)
(0.00108857 -0.00072273 -0.000127666)
(0.0022434 0.00112106 3.32468e-05)
(0.00204136 0.000339222 -9.69286e-06)
(0.00199314 -0.000354716 -7.4993e-05)
(0.00209105 -0.00114172 -0.000128936)
(0.00346164 0.00143059 -1.85751e-05)
(0.00328391 0.000441073 -3.85069e-05)
(0.00322664 -0.000473366 -7.76108e-05)
(0.00328059 -0.00146889 -0.000108803)
(0.00479801 0.00164374 -7.7177e-05)
(0.00464207 0.000506032 -6.91777e-05)
(0.00457802 -0.000567049 -7.73763e-05)
(0.00459515 -0.00170703 -8.03144e-05)
(0.00619923 0.00177693 -0.000134633)
(0.00606091 0.00053996 -9.97564e-05)
(0.00599226 -0.00063873 -7.82476e-05)
(0.00598134 -0.00186975 -5.30433e-05)
(0.00762091 0.00184938 -0.000185375)
(0.00749513 0.000549577 -0.0001296)
(0.00742277 -0.000691941 -8.40797e-05)
(0.00739266 -0.00197239 -3.51763e-05)
(0.00904642 0.00188015 -0.00022653)
(0.00891356 0.000544662 -0.000158188)
(0.00883141 -0.000730107 -9.87467e-05)
(0.00879472 -0.00203426 -3.63228e-05)
(0.000316102 0.000182802 3.3036e-05)
(0.00015354 3.95052e-05 8.61723e-06)
(0.000137138 -4.68775e-05 -2.17375e-05)
(0.000259216 -0.000188233 -5.05518e-05)
(0.00121577 0.000708743 2.58332e-05)
(0.000975189 0.000198252 -2.66849e-07)
(0.000937143 -0.000202451 -4.19383e-05)
(0.00109263 -0.000713375 -7.47963e-05)
(0.00225217 0.00111341 2.57288e-06)
(0.00203959 0.000340877 -1.79131e-05)
(0.00198839 -0.00034399 -5.21916e-05)
(0.00209178 -0.00112208 -7.89565e-05)
(0.00346087 0.00142142 -3.30908e-05)
(0.00327483 0.000444581 -3.93059e-05)
(0.00321452 -0.000458217 -5.72556e-05)
(0.00327175 -0.00144107 -6.9562e-05)
(0.0047835 0.00163594 -7.38844e-05)
(0.00462128 0.000512197 -6.22561e-05)
(0.00455417 -0.000548075 -6.02547e-05)
(0.00457254 -0.00167344 -5.42697e-05)
(0.00616881 0.00177284 -0.000114807)
(0.00602595 0.00054934 -8.55605e-05)
(0.00595428 -0.000616616 -6.40212e-05)
(0.00594281 -0.0018325 -3.94296e-05)
(0.0075746 0.00185072 -0.000151871)
(0.00744578 0.000562316 -0.000108723)
(0.00737042 -0.000667436 -7.15758e-05)
(0.00733805 -0.00193322 -3.12053e-05)
(0.00898717 0.00188771 -0.000182185)
(0.00885209 0.000560761 -0.000131093)
(0.00876604 -0.000703808 -8.61965e-05)
(0.0087248 -0.00199431 -3.75401e-05)
(0.000317969 0.000184317 1.36163e-05)
(0.000151381 4.02225e-05 2.46647e-06)
(0.000133776 -4.67779e-05 -1.26097e-05)
(0.000257433 -0.000188798 -2.59807e-05)
(0.00121839 0.000706638 5.91402e-06)
(0.000970676 0.000198978 -5.91808e-06)
(0.000930394 -0.000197955 -2.68269e-05)
(0.00108891 -0.000705701 -4.27579e-05)
(0.00225138 0.00110815 -1.12718e-05)
(0.00203186 0.000342451 -1.91677e-05)
(0.00197824 -0.000335119 -3.54889e-05)
(0.00208434 -0.00110625 -4.70083e-05)
(0.00345377 0.00141472 -3.5932e-05)
(0.00326183 0.000447579 -3.47915e-05)
(0.00319912 -0.000445339 -4.08581e-05)
(0.00325813 -0.00141826 -4.30557e-05)
(0.00476779 0.00162983 -6.40652e-05)
(0.00460084 0.00051722 -5.15655e-05)
(0.0045314 -0.000531786 -4.4907e-05)
(0.00455049 -0.00164543 -3.53455e-05)
(0.00614298 0.00176911 -9.26877e-05)
(0.00599651 0.000556822 -6.88181e-05)
(0.00592259 -0.000597612 -4.95767e-05)
(0.00591079 -0.00180106 -2.79439e-05)
(0.00753814 0.00185066 -0.000119133)
(0.0074067 0.000572394 -8.62178e-05)
(0.00732908 -0.000646424 -5.70604e-05)
(0.00729528 -0.00189985 -2.51733e-05)
(0.00894108 0.00189188 -0.00014089)
(0.00880391 0.000573472 -0.000103128)
(0.00871487 -0.000681247 -6.97986e-05)
(0.00867066 -0.00196001 -3.3031e-05)
(0.000318451 0.000184978 4.65268e-06)
(0.000149518 4.06366e-05 -2.15946e-08)
(0.000131101 -4.65865e-05 -7.0556e-06)
(0.00025538 -0.000188666 -1.27753e-05)
(0.00121758 0.00070532 -2.15907e-06)
(0.000965608 0.000199736 -6.7358e-06)
(0.000923739 -0.000194625 -1.64499e-05)
(0.00108355 -0.000699835 -2.34547e-05)
(0.00224739 0.00110505 -1.42521e-05)
(0.00202352 0.000344007 -1.60802e-05)
(0.00196816 -0.000328465 -2.2866e-05)
(0.00207552 -0.00109468 -2.67687e-05)
(0.00344531 0.00141076 -3.06284e-05)
(0.0032495 0.000450264 -2.68318e-05)
(0.0031851 -0.000435587 -2.73289e-05)
(0.00324497 -0.0014016 -2.53677e-05)
(0.00475371 0.0016262 -4.91711e-05)
(0.00458356 0.000521383 -3.83546e-05)
(0.00451252 -0.000519374 -3.10268e-05)
(0.00453193 -0.00162477 -2.17574e-05)
(0.00612234 0.0017669 -6.81849e-05)
(0.00597333 0.000562708 -5.03037e-05)
(0.00589791 -0.000583078 -3.52134e-05)
(0.00588585 -0.0017776 -1.84305e-05)
(0.00751033 0.00185067 -8.59942e-05)
(0.00737697 0.000580064 -6.24724e-05)
(0.00729783 -0.000630316 -4.13495e-05)
(0.00726317 -0.00187463 -1.81993e-05)
(0.00890628 0.00189447 -0.000100711)
(0.00876742 0.000582964 -7.43437e-05)
(0.00867639 -0.000663901 -5.10619e-05)
(0.00863041 -0.0019338 -2.51579e-05)
(0.0003185 0.000185236 1.10412e-06)
(0.000148281 4.08694e-05 -6.0367e-07)
(0.00012936 -4.64084e-05 -3.54228e-06)
(0.00025382 -0.000188361 -5.69067e-06)
(0.00121612 0.000704551 -3.52254e-06)
(0.000961747 0.000200345 -4.89988e-06)
(0.000918871 -0.000192421 -8.88484e-06)
(0.00107916 -0.000695892 -1.15466e-05)
(0.00224349 0.00110339 -1.0769e-05)
(0.00201709 0.000345249 -1.04878e-05)
(0.00196063 -0.000324059 -1.27958e-05)
(0.00206852 -0.00108715 -1.35893e-05)
(0.00343845 0.00140871 -2.02025e-05)
(0.00324033 0.000452311 -1.68113e-05)
(0.00317487 -0.000429117 -1.56908e-05)
(0.0032351 -0.00139083 -1.32255e-05)
(0.00474335 0.00162437 -3.08104e-05)
(0.00457124 0.000524406 -2.35756e-05)
(0.0044992 -0.000511117 -1.82013e-05)
(0.00451871 -0.00161136 -1.17249e-05)
(0.00610792 0.00176586 -4.17309e-05)
(0.00595733 0.000566817 -3.0623e-05)
(0.00588097 -0.000573385 -2.1029e-05)
(0.00586874 -0.00176225 -1.04357e-05)
(0.0074914 0.00185084 -5.20431e-05)
(0.00735679 0.00058527 -3.78391e-05)
(0.00727673 -0.000619549 -2.50036e-05)
(0.00724157 -0.00185799 -1.09345e-05)
(0.00888273 0.00189607 -6.05844e-05)
(0.00874272 0.000589291 -4.48876e-05)
(0.0086505 -0.000652276 -3.10418e-05)
(0.00860355 -0.00191634 -1.55815e-05)
(0.000318459 0.000185319 1.17956e-07)
(0.000147677 4.09751e-05 -2.88362e-07)
(0.000128515 -4.63054e-05 -1.07384e-06)
(0.000253004 -0.000188153 -1.5985e-06)
(0.00121517 0.000704197 -1.51356e-06)
(0.000959719 0.000200679 -1.76246e-06)
(0.000916357 -0.000191323 -2.80658e-06)
(0.00107679 -0.000693914 -3.45671e-06)
(0.00224122 0.00110269 -3.93245e-06)
(0.00201367 0.000345932 -3.62432e-06)
(0.00195668 -0.00032187 -4.11784e-06)
(0.00206476 -0.00108345 -4.14194e-06)
(0.00343469 0.00140786 -7.02088e-06)
(0.00323549 0.000453415 -5.71424e-06)
(0.00316952 -0.000425901 -5.11605e-06)
(0.00322989 -0.00138555 -4.09192e-06)
(0.00473788 0.00162363 -1.04804e-05)
(0.00456485 0.000525998 -7.94746e-06)
(0.00449233 -0.000507008 -5.99866e-06)
(0.00451188 -0.00160479 -3.69381e-06)
(0.0061005 0.00176548 -1.40478e-05)
(0.00594915 0.000568934 -1.02789e-05)
(0.00587236 -0.000568555 -6.99127e-06)
(0.00586003 -0.0017547 -3.37416e-06)
(0.00748175 0.00185097 -1.74295e-05)
(0.00734655 0.00058791 -1.26718e-05)
(0.00726607 -0.000614173 -8.36228e-06)
(0.00723069 -0.00184975 -3.64012e-06)
(0.00887075 0.00189678 -2.02326e-05)
(0.00873021 0.000592468 -1.50089e-05)
(0.00863744 -0.000646454 -1.04065e-05)
(0.00859005 -0.00190766 -5.26094e-06)
)
;

boundaryField
{
    interface
    {
        type            tractionDisplacement;
        gradient        nonuniform List<vector> 
192
(
(0.0248079 0.0342215 0.00070843)
(0.0119177 0.0340986 0.00165367)
(0.0132479 0.0450038 0.000540411)
(0.0109324 0.0512939 -0.00139191)
(0.00935793 0.0558053 -0.00342968)
(0.00789957 0.0580418 -0.0053695)
(0.00709526 0.0588449 -0.00694084)
(0.00668588 0.0598092 -0.00780607)
(0.0253049 0.0364491 0.000499333)
(0.0137821 0.0340839 0.00129034)
(0.0134369 0.0436327 0.000785427)
(0.0113105 0.0497212 -0.000340864)
(0.00962453 0.0540998 -0.00163419)
(0.00822668 0.0565181 -0.00295624)
(0.00745803 0.0576759 -0.0041058)
(0.00701698 0.0593743 -0.00481922)
(0.0263391 0.0378227 0.000131539)
(0.0143922 0.0342034 0.000422759)
(0.0138823 0.0429387 0.000160455)
(0.0115272 0.0487714 -0.000439383)
(0.00965092 0.0530088 -0.00124098)
(0.0081395 0.0554801 -0.00209651)
(0.00731547 0.0568207 -0.00288342)
(0.00671334 0.0589634 -0.00342521)
(0.0269976 0.038473 -4.63238e-05)
(0.0148777 0.0342167 -1.68935e-05)
(0.0143476 0.0426013 -0.00021832)
(0.0118656 0.048192 -0.000581499)
(0.00985917 0.0523216 -0.00107077)
(0.00824666 0.0547899 -0.00161433)
(0.00735836 0.0562195 -0.00214128)
(0.00666216 0.0586068 -0.00254194)
(0.0273494 0.0387481 -0.000106545)
(0.0151978 0.0341698 -0.000188721)
(0.0146806 0.0423849 -0.000361288)
(0.0121406 0.0478387 -0.000605162)
(0.0100606 0.0518921 -0.000916569)
(0.00837974 0.0543399 -0.00126752)
(0.00744326 0.0558026 -0.0016253)
(0.006674 0.0583153 -0.00192315)
(0.0275263 0.0388474 -0.000103002)
(0.0153937 0.0341001 -0.000205054)
(0.0148975 0.0422308 -0.000340524)
(0.0123334 0.0476143 -0.000505784)
(0.0102151 0.0516215 -0.00070455)
(0.00849499 0.054048 -0.000928163)
(0.00752931 0.0555161 -0.00116318)
(0.00672074 0.0580903 -0.00136919)
(0.0276091 0.0388747 -6.95573e-05)
(0.0155024 0.0340387 -0.000144691)
(0.0150239 0.0421274 -0.000231011)
(0.0124511 0.0474767 -0.000328966)
(0.010314 0.0514589 -0.000442111)
(0.00857318 0.0538699 -0.000568711)
(0.00759145 0.0553347 -0.000703836)
(0.006762 0.0579378 -0.000825552)
(0.0276407 0.0388788 -2.40722e-05)
(0.0155497 0.0340041 -5.11001e-05)
(0.0150806 0.0420751 -8.06518e-05)
(0.0125051 0.0474104 -0.000113276)
(0.0103604 0.0513817 -0.000150272)
(0.00861086 0.0537851 -0.000191553)
(0.00762141 0.0552471 -0.000235841)
(0.00678181 0.0578588 -0.000276118)
(-0.00194534 0.0121266 0.0132597)
(-0.00371667 -0.00383926 0.00196263)
(-0.00174745 -0.00343305 0.00322732)
(0.000393038 -0.00471448 0.00145472)
(0.00294118 -0.00464177 0.000428133)
(0.00527984 -0.00422588 -0.000573211)
(0.00717459 -0.00360399 -0.00122839)
(0.00859171 -0.00256273 -0.00203552)
(-0.00474434 0.00442822 0.00286901)
(-0.00844914 -0.00158059 0.000553167)
(-0.00596821 -0.00138383 0.000337995)
(-0.00336384 -0.00182367 -0.000236924)
(-0.000433864 -0.00191324 -0.000621051)
(0.00222265 -0.00195041 -0.000962637)
(0.00448147 -0.00200254 -0.00123303)
(0.00638476 -0.0018037 -0.00178122)
(-0.00509441 -0.00629091 -0.00377406)
(-0.00892501 0.00077699 -0.000921798)
(-0.00659203 0.000735947 -0.00124191)
(-0.00399313 0.00113493 -0.00100767)
(-0.00109467 0.000897136 -0.000859909)
(0.00157846 0.000464104 -0.000678532)
(0.0039049 -0.000120636 -0.000524348)
(0.00577741 -0.000759801 -0.000142437)
(-0.00323447 -0.0156005 -0.0132709)
(-0.00534634 0.00235398 -0.00243895)
(-0.00394866 0.00236714 -0.00406346)
(-0.00195777 0.00368933 -0.00260187)
(0.000427562 0.00340742 -0.00178923)
(0.00271058 0.00271368 -0.000932737)
(0.00467778 0.00162515 -0.00027391)
(0.00611511 5.43397e-05 0.000456649)
(0.0206911 -0.0327859 -0.00156612)
(0.00843968 -0.0335187 -0.00343073)
(0.00827036 -0.0454919 -0.00301943)
(0.0050657 -0.0519276 -0.00136695)
(0.00279796 -0.0563182 0.000556491)
(0.000936317 -0.0581964 0.00254597)
(-0.000185906 -0.0583331 0.00431504)
(-0.000420841 -0.0574978 0.00556025)
(0.0203145 -0.0354079 -0.000882665)
(0.0100018 -0.0342213 -0.00195015)
(0.00817898 -0.0443308 -0.00170811)
(0.00513311 -0.0504866 -0.000649994)
(0.00273763 -0.0546307 0.000652154)
(0.000876303 -0.0565815 0.00204365)
(-0.000290177 -0.0569578 0.00331401)
(-0.000486706 -0.0565883 0.00433477)
(0.0209921 -0.0366833 -0.000365282)
(0.0105431 -0.0345367 -0.000744708)
(0.00865227 -0.0437059 -0.000579393)
(0.0054346 -0.0495554 2.79689e-07)
(0.00286425 -0.0534988 0.000822412)
(0.00086705 -0.0554445 0.00173026)
(-0.000416324 -0.0559297 0.0026148)
(-0.000798177 -0.0556997 0.0034096)
(0.0213851 -0.0371158 -0.000102832)
(0.0109259 -0.03457 -0.00015481)
(0.00902111 -0.0433918 1.52335e-05)
(0.00570387 -0.0489819 0.000379946)
(0.00300787 -0.0527845 0.000888033)
(0.000895667 -0.0546838 0.00146922)
(-0.000497509 -0.0551787 0.00206661)
(-0.000990595 -0.0549609 0.00264992)
(0.0215425 -0.03716 6.56649e-06)
(0.011155 -0.0344898 8.28654e-05)
(0.00924694 -0.0431679 0.00024489)
(0.00587833 -0.0486246 0.000495152)
(0.0031094 -0.0523338 0.000820085)
(0.000919488 -0.0541808 0.00119486)
(-0.000552587 -0.0546494 0.00159559)
(-0.00111507 -0.0543938 0.0020114)
(0.0215824 -0.0370682 3.82691e-05)
(0.0112789 -0.0343799 0.000138963)
(0.00937285 -0.0429971 0.000270599)
(0.0059786 -0.0483921 0.00044162)
(0.0031692 -0.0520468 0.000648905)
(0.000933638 -0.0538524 0.000885787)
(-0.000586613 -0.0542877 0.00114431)
(-0.00118344 -0.0539853 0.00142249)
(0.0215781 -0.0369635 3.34262e-05)
(0.0113394 -0.0342873 0.000108347)
(0.00943699 -0.0428786 0.000193199)
(0.0060311 -0.0482467 0.000294716)
(0.00320063 -0.0518727 0.00041228)
(0.000940522 -0.0536516 0.000545027)
(-0.000606055 -0.054061 0.000691305)
(-0.00121829 -0.0537217 0.000851488)
(0.021568 -0.0369007 1.26418e-05)
(0.0113635 -0.0342361 3.96899e-05)
(0.00946356 -0.0428176 6.88841e-05)
(0.00605332 -0.0481758 0.000102689)
(0.0032139 -0.0517895 0.000141006)
(0.000943222 -0.0535555 0.000183966)
(-0.000614557 -0.0539514 0.00023153)
(-0.0012327 -0.0535923 0.000283884)
(0.0597419 0.000562122 -0.00192641)
(0.0595237 0.000373126 -0.00112118)
(0.0593024 0.000772923 -0.000852673)
(0.0590503 0.00101553 -0.000568261)
(0.0588013 0.00120282 -0.000393735)
(0.0585977 0.00131697 -0.000262302)
(0.0584554 0.00138174 -0.000152606)
(0.0583805 0.00140682 -5.01145e-05)
(0.0550034 0.000651295 -0.00127833)
(0.0548687 0.000512502 -0.000924322)
(0.0546377 0.000649472 -0.000826479)
(0.0543429 0.000798312 -0.000667895)
(0.0540278 0.000931034 -0.000516149)
(0.0537634 0.00102626 -0.000365726)
(0.0535791 0.00108675 -0.000218051)
(0.053487 0.00111679 -7.22178e-05)
(0.0541519 -0.00149536 -0.00070246)
(0.0539054 -0.0013136 -0.00094396)
(0.0534838 -0.00122833 -0.00101401)
(0.0530445 -0.00114587 -0.000944793)
(0.0526409 -0.00107009 -0.000777212)
(0.0523204 -0.00100755 -0.000567052)
(0.052103 -0.000963337 -0.000341967)
(0.0519939 -0.000939558 -0.000113906)
(0.0565514 -0.00222654 -0.000415979)
(0.0559259 -0.0019038 -0.00129097)
(0.0551918 -0.00196366 -0.00146859)
(0.0545405 -0.00197842 -0.00139227)
(0.0540097 -0.00197264 -0.00114744)
(0.0536159 -0.00194763 -0.000836618)
(0.0533574 -0.00192199 -0.000504078)
(0.053229 -0.00190642 -0.000167986)
)
;
        traction        nonuniform List<vector> 
192
(
(21.0962 -0.659373 -2.33975)
(21.1187 -0.78999 -4.06893)
(20.9887 -1.16074 -4.87937)
(21.2236 -1.30237 -5.33475)
(21.8247 -1.15429 -5.5917)
(22.655 -0.601626 -5.65621)
(23.4265 0.564575 -5.45171)
(22.5967 2.48486 -4.76964)
(23.9254 -0.99643 -1.7032)
(24.3012 -1.15928 -2.97985)
(24.9485 -1.59099 -3.57867)
(25.9232 -1.73403 -3.90408)
(27.0842 -1.51614 -4.06617)
(28.1707 -0.791715 -4.06861)
(28.5197 0.72124 -3.86402)
(25.4448 3.0887 -3.34625)
(25.7769 -1.15682 -1.23016)
(26.122 -1.31594 -2.14301)
(26.9286 -1.7714 -2.54084)
(28.0927 -1.90476 -2.73872)
(29.3821 -1.63046 -2.82444)
(30.4434 -0.789976 -2.80613)
(30.4101 0.917769 -2.66386)
(26.1917 3.46449 -2.34335)
(27.1131 -1.23918 -0.902929)
(27.399 -1.38729 -1.57507)
(28.2287 -1.85593 -1.85495)
(29.4387 -1.97869 -1.98465)
(30.7472 -1.6646 -2.03685)
(31.7378 -0.747553 -2.02098)
(31.4402 1.07752 -1.93098)
(26.5426 3.71531 -1.72412)
(28.0791 -1.28571 -0.651035)
(28.3257 -1.42209 -1.13959)
(29.1466 -1.89651 -1.33844)
(30.359 -2.01176 -1.42651)
(31.6579 -1.67159 -1.46144)
(32.5862 -0.705142 -1.45244)
(32.1147 1.19514 -1.39833)
(26.7688 3.88977 -1.26162)
(28.7582 -1.31307 -0.44169)
(28.9772 -1.43947 -0.775734)
(29.7848 -1.91609 -0.910477)
(30.9892 -2.02645 -0.968793)
(32.2738 -1.66991 -0.99232)
(33.1575 -0.672109 -0.988454)
(32.5743 1.2771 -0.957042)
(26.9301 4.00878 -0.868609)
(29.1915 -1.3292 -0.254823)
(29.3964 -1.44852 -0.449155)
(30.1947 -1.92553 -0.526941)
(31.3915 -2.03297 -0.56018)
(32.6651 -1.66678 -0.574007)
(33.5213 -0.649821 -0.572667)
(32.8703 1.32973 -0.554669)
(27.0432 4.08135 -0.501217)
(29.3935 -1.33587 -0.0824419)
(29.5911 -1.45106 -0.145784)
(30.3814 -1.92776 -0.170874)
(31.572 -2.03421 -0.181496)
(32.8394 -1.66363 -0.186037)
(33.6837 -0.635842 -0.185704)
(32.9889 1.36128 -0.179124)
(27.0539 4.11253 -0.159742)
(2.66257 0.555343 9.35615)
(4.57975 0.980925 6.03639)
(5.49314 0.915224 2.85536)
(6.1265 0.69208 0.44259)
(6.68521 0.544133 -1.19425)
(7.23823 0.590262 -2.09309)
(7.89638 0.843585 -2.24149)
(9.07243 1.12838 -1.50129)
(1.70653 0.493375 8.37653)
(3.09275 0.960142 7.03934)
(3.61679 1.09405 5.20182)
(3.88234 0.945303 3.66249)
(4.10675 0.715303 2.60903)
(4.40152 0.540511 2.03747)
(4.93583 0.460966 1.86975)
(6.32748 0.324144 1.7743)
(1.3114 0.394427 7.70305)
(2.56803 0.760271 7.26916)
(3.0748 0.989691 6.15558)
(3.28557 0.913788 5.09759)
(3.42266 0.690971 4.37953)
(3.62543 0.453724 4.01465)
(4.07737 0.256248 3.93794)
(5.38545 0.0161552 3.8526)
(1.23253 0.380831 6.785)
(2.54977 0.667428 6.65384)
(3.1695 0.9186 5.79154)
(3.43905 0.872145 4.92365)
(3.58927 0.662187 4.32789)
(3.77999 0.403677 4.00351)
(4.19404 0.126514 3.86935)
(5.38081 -0.257645 3.80621)
(-4.08127 0.394222 0.291719)
(-3.17356 0.689617 0.533464)
(-2.1924 0.90041 0.552514)
(-1.43958 0.898905 0.518324)
(-0.876988 0.775073 0.535076)
(-0.317372 0.597814 0.644117)
(0.650691 0.304268 0.858971)
(3.50732 -0.930478 1.13563)
(-4.75746 0.278826 -0.0706822)
(-4.59489 0.466096 -0.102169)
(-4.25178 0.665903 -0.169584)
(-3.87382 0.741694 -0.222942)
(-3.50545 0.733661 -0.216875)
(-3.05403 0.693548 -0.142141)
(-2.11975 0.567455 -0.013555)
(0.885562 -0.493685 0.128338)
(-5.13263 0.232848 -0.133735)
(-5.15682 0.359222 -0.203731)
(-5.00206 0.548531 -0.241412)
(-4.74705 0.669019 -0.25314)
(-4.41941 0.736323 -0.221716)
(-3.93722 0.78174 -0.148844)
(-2.92643 0.736821 -0.0623859)
(-0.0798923 -0.150855 -0.0188317)
(-5.39974 0.219278 -0.127384)
(-5.47413 0.31429 -0.194454)
(-5.39451 0.499193 -0.211)
(-5.18779 0.649466 -0.199203)
(-4.86098 0.768608 -0.157745)
(-4.33786 0.871328 -0.0959675)
(-3.27114 0.880898 -0.0422598)
(-0.501326 0.101313 -0.0389366)
(-5.59634 0.216484 -0.10096)
(-5.68686 0.297914 -0.154317)
(-5.63926 0.484481 -0.159086)
(-5.4501 0.656745 -0.138994)
(-5.1123 0.811069 -0.100036)
(-4.55558 0.950042 -0.0542151)
(-3.46416 0.991304 -0.0258835)
(-0.760623 0.281254 -0.0460614)
(-5.73033 0.217397 -0.0695046)
(-5.82482 0.294611 -0.105865)
(-5.78913 0.485625 -0.104945)
(-5.604 0.673434 -0.0857523)
(-5.25482 0.84994 -0.0558947)
(-4.67669 1.00985 -0.0261889)
(-3.57721 1.06837 -0.0144173)
(-0.93411 0.402973 -0.0406818)
(-5.81227 0.219059 -0.0395814)
(-5.90699 0.296017 -0.0599087)
(-5.875 0.491438 -0.0577154)
(-5.68936 0.689091 -0.0447427)
(-5.33232 0.878209 -0.0266754)
(-4.74311 1.0491 -0.0106014)
(-3.64395 1.11622 -0.0068409)
(-1.04513 0.477767 -0.0281219)
(-5.84973 0.220277 -0.0126808)
(-5.94345 0.297656 -0.0190835)
(-5.91241 0.49543 -0.0181115)
(-5.72629 0.697741 -0.0136496)
(-5.36616 0.892629 -0.00773112)
(-4.77285 1.06861 -0.00272476)
(-3.67252 1.13832 -0.00187733)
(-1.10536 0.513218 -0.010275)
(9.87689 0.387611 -2.50211)
(9.52332 2.20042 -2.094)
(9.61815 3.64832 -1.65144)
(9.79641 4.7785 -1.29354)
(9.96689 5.61729 -0.986569)
(10.1048 6.2089 -0.703572)
(10.2007 6.57055 -0.431953)
(10.243 6.67055 -0.148925)
(6.90035 -1.69192 -0.88072)
(6.00548 -0.757416 -0.770154)
(5.82372 0.251172 -0.595209)
(5.8071 1.08211 -0.469936)
(5.83019 1.69503 -0.36898)
(5.86049 2.12507 -0.269713)
(5.89005 2.40426 -0.164725)
(5.91665 2.56468 -0.0550784)
(5.65817 -3.38224 -0.163375)
(4.57731 -2.7072 -0.187505)
(4.23869 -1.96769 -0.154883)
(4.09558 -1.37624 -0.139203)
(4.01976 -0.952105 -0.125407)
(3.97542 -0.661651 -0.100449)
(3.95043 -0.478373 -0.0623024)
(3.93857 -0.374228 -0.0199412)
(5.41546 -3.33069 0.270049)
(4.32198 -2.80752 0.0691935)
(3.91247 -2.32619 -0.00848377)
(3.70272 -1.93906 -0.0477927)
(3.57064 -1.66985 -0.0653515)
(3.48272 -1.49208 -0.0624415)
(3.42695 -1.38587 -0.0432792)
(3.39644 -1.33826 -0.0150909)
)
;
        pressure        uniform 0;
        value           nonuniform List<vector> 
192
(
(0.000571688 0.000603101 0.000307239)
(0.0012472 0.00114619 0.000263133)
(0.00232555 0.00167504 0.000171393)
(0.00356277 0.00205699 3.49401e-05)
(0.0049431 0.00231888 -0.000105491)
(0.00639278 0.00247331 -0.000235676)
(0.00786595 0.00254947 -0.000344347)
(0.00933266 0.00258617 -0.000428378)
(0.000611262 0.000629526 0.000154939)
(0.00134288 0.00114281 0.000151536)
(0.00238249 0.00167284 9.66387e-05)
(0.0035909 0.00205829 5.85645e-06)
(0.00492938 0.00232311 -9.40106e-05)
(0.00633881 0.00248172 -0.000190077)
(0.00777535 0.00256238 -0.000272921)
(0.00921402 0.00260702 -0.000337389)
(0.000639632 0.000652333 7.38619e-05)
(0.00138372 0.00113948 7.07732e-05)
(0.00241693 0.00165779 3.52524e-05)
(0.00360573 0.00204023 -2.40674e-05)
(0.00491865 0.00230635 -9.26893e-05)
(0.00630097 0.00247043 -0.000160839)
(0.00771236 0.00255964 -0.000221418)
(0.00913034 0.00261719 -0.000269345)
(0.000653571 0.000663715 3.24569e-05)
(0.00140174 0.00113645 2.5622e-05)
(0.00243152 0.00164593 -1.5612e-07)
(0.00360919 0.00202382 -4.03595e-05)
(0.00490674 0.00228996 -8.72691e-05)
(0.0062719 0.00245772 -0.000134986)
(0.00766657 0.00255347 -0.000178637)
(0.00907044 0.0026203 -0.00021396)
(0.000659836 0.000668668 1.22844e-05)
(0.00140836 0.00113376 3.55501e-06)
(0.00243489 0.00163796 -1.57879e-05)
(0.00360553 0.0020127 -4.34966e-05)
(0.00489354 0.00227848 -7.55223e-05)
(0.00624772 0.00244836 -0.000108532)
(0.00763118 0.0025482 -0.000139449)
(0.0090245 0.00262082 -0.000164929)
(0.00066253 0.00067057 3.36515e-06)
(0.00141001 0.00113157 -4.72225e-06)
(0.0024336 0.00163293 -1.85087e-05)
(0.00359948 0.00200594 -3.69507e-05)
(0.0048814 0.00227147 -5.79779e-05)
(0.00622852 0.00244251 -7.9787e-05)
(0.00760445 0.00254462 -0.000100534)
(0.00899029 0.00262059 -0.000117826)
(0.000663614 0.00067117 2.34658e-07)
(0.0014099 0.00113003 -5.33118e-06)
(0.00243129 0.00162999 -1.36566e-05)
(0.00359409 0.00200217 -2.43146e-05)
(0.00487227 0.0022676 -3.63368e-05)
(0.00621509 0.00243924 -4.88398e-05)
(0.0075863 0.00254253 -6.0841e-05)
(0.00896725 0.00262029 -7.09038e-05)
(0.000663969 0.000671304 -1.82946e-07)
(0.00140954 0.00112925 -2.15231e-06)
(0.00242973 0.00162862 -4.9406e-06)
(0.003591 0.00200049 -8.43683e-06)
(0.00486738 0.0022659 -1.23588e-05)
(0.00620813 0.00243779 -1.64422e-05)
(0.00757702 0.00254156 -2.03775e-05)
(0.00895552 0.00262002 -2.36841e-05)
(0.000237272 0.000326914 0.00046413)
(0.00105177 0.000671964 0.000266995)
(0.00213811 0.00106958 0.000204979)
(0.00343103 0.00135688 7.05229e-05)
(0.00486289 0.00156329 -5.72683e-05)
(0.00636003 0.00169496 -0.000175722)
(0.00786694 0.00176886 -0.000272941)
(0.00935648 0.00180652 -0.000356246)
(5.16596e-05 8.93755e-05 0.000124751)
(0.000805507 0.00017294 9.10227e-05)
(0.00189734 0.000306329 3.9232e-05)
(0.00321378 0.000395645 -1.99441e-05)
(0.00466645 0.000452217 -7.72982e-05)
(0.00618186 0.000479337 -0.00013114)
(0.00770238 0.000483622 -0.000181683)
(0.00918871 0.000478638 -0.000235741)
(3.48748e-05 -0.000130347 -0.000154954)
(0.000764327 -0.000217558 -0.000162756)
(0.0018411 -0.000361391 -0.000161102)
(0.00314851 -0.000479277 -0.000145747)
(0.00459442 -0.000582309 -0.000128625)
(0.00610562 -0.000667858 -0.000114545)
(0.00762285 -0.000737252 -0.000108656)
(0.00909921 -0.000790507 -0.000110315)
(0.000181777 -0.000388667 -0.000496257)
(0.000919489 -0.000722472 -0.000365741)
(0.00196055 -0.00113281 -0.000354026)
(0.0032236 -0.00144951 -0.000265407)
(0.00463294 -0.00169911 -0.000178451)
(0.00611547 -0.00188146 -9.7863e-05)
(0.0076127 -0.00200949 -3.74578e-05)
(0.00907995 -0.00210094 -4.76762e-06)
(0.000480847 -0.000603484 -0.000349947)
(0.00109181 -0.00117088 -0.000378139)
(0.00211329 -0.00173105 -0.000340976)
(0.0033114 -0.00214472 -0.000249971)
(0.00466257 -0.00244568 -0.00014913)
(0.00609329 -0.00264284 -5.43792e-05)
(0.0075519 -0.00275897 1.99041e-05)
(0.00899825 -0.00282034 5.90274e-05)
(0.000503847 -0.00062465 -0.000188975)
(0.00118777 -0.00116225 -0.000236747)
(0.00217158 -0.00171503 -0.000225067)
(0.00334027 -0.0021261 -0.000172111)
(0.00464868 -0.00242109 -0.000106421)
(0.00603767 -0.00261224 -4.29951e-05)
(0.00745881 -0.00272238 5.66211e-06)
(0.00887888 -0.0027812 2.74886e-05)
(0.000520988 -0.000644619 -0.000100255)
(0.00122035 -0.00115444 -0.000136975)
(0.0021992 -0.00168804 -0.000136178)
(0.00334853 -0.00208833 -0.000108799)
(0.00463096 -0.00237576 -7.00343e-05)
(0.00599218 -0.0025628 -3.1415e-05)
(0.00738745 -0.00267151 -2.49134e-06)
(0.00878475 -0.0027305 6.2972e-06)
(0.00052653 -0.00065218 -5.18372e-05)
(0.0012292 -0.0011455 -7.67314e-05)
(0.00220454 -0.00166448 -7.87661e-05)
(0.00334305 -0.00205335 -6.48127e-05)
(0.00461014 -0.00233325 -4.31693e-05)
(0.00595401 -0.00251604 -2.10644e-05)
(0.00733183 -0.00262295 -5.37259e-06)
(0.00871242 -0.00268132 -4.4161e-06)
(0.000526714 -0.000653298 -2.58986e-05)
(0.00122834 -0.00113682 -4.1722e-05)
(0.00219993 -0.00164585 -4.39472e-05)
(0.00333161 -0.00202607 -3.68663e-05)
(0.00458936 -0.0022996 -2.50944e-05)
(0.00592228 -0.00247832 -1.3008e-05)
(0.00728838 -0.00258296 -5.22849e-06)
(0.00865672 -0.00263994 -7.88853e-06)
(0.00052516 -0.000652018 -1.22969e-05)
(0.00122453 -0.00112958 -2.17176e-05)
(0.00219268 -0.00163214 -2.33862e-05)
(0.00331971 -0.0020065 -1.98474e-05)
(0.00457154 -0.00227535 -1.36461e-05)
(0.00589752 -0.00245075 -7.35821e-06)
(0.00725583 -0.00255323 -3.89543e-06)
(0.00861562 -0.00260862 -7.37672e-06)
(0.000523546 -0.000650405 -5.27284e-06)
(0.0012209 -0.00112448 -1.01923e-05)
(0.00218648 -0.00162313 -1.11743e-05)
(0.00331049 -0.00199391 -9.54155e-06)
(0.00455872 -0.00225977 -6.57138e-06)
(0.00588049 -0.00243289 -3.62283e-06)
(0.00723399 -0.00253375 -2.29316e-06)
(0.00858832 -0.00258787 -4.9379e-06)
(0.000522604 -0.000649413 -1.44048e-06)
(0.00121883 -0.00112187 -2.96059e-06)
(0.00218305 -0.00161867 -3.28088e-06)
(0.00330555 -0.00198775 -2.80831e-06)
(0.00455205 -0.00225216 -1.93123e-06)
(0.00587182 -0.00242414 -1.07458e-06)
(0.007223 -0.00252414 -7.45996e-07)
(0.00857465 -0.00257757 -1.7124e-06)
(0.00999586 0.00184558 -0.000354882)
(0.00987036 0.00186951 -0.000291163)
(0.0097877 0.00188981 -0.000237188)
(0.00972529 0.00190041 -0.000189289)
(0.0096761 0.00190692 -0.000145812)
(0.00963875 0.00191093 -0.00010399)
(0.00961342 0.00191334 -6.2492e-05)
(0.00960051 0.00191437 -2.0859e-05)
(0.00979644 0.000509325 -0.000229455)
(0.00967992 0.000531747 -0.000196506)
(0.00959654 0.000552781 -0.000168519)
(0.00953138 0.00057074 -0.000139442)
(0.00947926 0.00058511 -0.000109579)
(0.00943946 0.000595793 -7.89152e-05)
(0.00941246 0.000602875 -4.76132e-05)
(0.0093988 0.000606428 -1.59117e-05)
(0.00970389 -0.000799701 -0.000117316)
(0.00958891 -0.000773517 -0.0001177)
(0.00949996 -0.000745461 -0.000111422)
(0.0094291 -0.000718131 -9.80064e-05)
(0.00937289 -0.000694623 -7.95138e-05)