/*--------------------------------*- C++ -*----------------------------------*\
| =========                 |                                                 |
| \\      /  F ield         | foam-extend: Open Source CFD                    |
|  \\    /   O peration     | Version:     3.1                                |
|   \\  /    A nd           | Web:         http://www.extend-project.de       |
|    \\/     M anipulation  |                                                 |
\*---------------------------------------------------------------------------*/
FoamFile
{
    version     2.0;
    format      ascii;
    class       volSymmTensorField;
    location    "3.7";
    object      epsilon;
}
// * * * * * * * * * * * * * * * * * * * * * * * * * * * * * * * * * * * * * //

dimensions      [0 0 0 0 0 0 0];

internalField   nonuniform List<symmTensor> 
256
(
(-0.00651509 0.0085573 -0.000372499 0.0248056 0.00445606 -0.00261727)
(-0.00217903 0.00726966 -0.00114053 0.00588222 0.00153312 -0.000955825)
(0.00112876 0.00677657 -0.0011658 -0.00673478 -0.00223498 0.00115837)
(0.00512639 0.00722586 -0.000473101 -0.0245239 -0.00544411 0.00284687)
(-0.011524 0.00357851 -0.000420396 0.0159572 -0.0014488 -0.00390807)
(-0.00463577 0.00939593 -0.00179449 0.00611172 -0.000654297 -0.00139128)
(0.00206481 0.00919081 -0.00185778 -0.00508489 0.000318234 0.00189501)
(0.0088344 0.00343272 -0.000651091 -0.0150131 0.000983534 0.00457041)
(-0.00972894 0.00439976 -0.000147681 0.0148787 -0.000800889 -0.0021934)
(-0.0047922 0.00911825 -0.00121622 0.00555151 -0.000337521 -0.000681008)
(0.0014645 0.00911367 -0.00126555 -0.00411186 2.13331e-05 0.00141697)
(0.00656341 0.00442519 -0.000389135 -0.0135186 0.000438024 0.00320024)
(-0.00843288 0.00388614 -0.000139207 0.0111298 -0.0011368 -0.00117772)
(-0.00437228 0.00835831 -0.000989777 0.00439546 -0.000401293 -0.000229654)
(0.000776646 0.00840167 -0.00102653 -0.00286214 0.000148745 0.00121232)
(0.00495301 0.00397082 -0.000402787 -0.00959812 0.000862836 0.0024562)
(-0.00695388 0.0034007 -8.41508e-05 0.00799967 -0.00104609 -5.54304e-05)
(-0.00388296 0.00724374 -0.000783684 0.00332026 -0.00034645 0.000233887)
(0.000203526 0.00732216 -0.000814137 -0.00183375 0.000148055 0.000931852)
(0.00330108 0.00354005 -0.000352265 -0.00640234 0.00085338 0.0015326)
(-0.00580594 0.00265047 -9.35732e-05 0.00531071 -0.000917197 0.000855559)
(-0.00346317 0.00585559 -0.000674981 0.00237306 -0.000304293 0.000612582)
(-0.000230048 0.00598652 -0.000685749 -0.00100338 0.000133819 0.000694814)
(0.00203174 0.00289802 -0.000339642 -0.00369051 0.000793992 0.000751254)
(-0.00509586 0.00173696 -0.000172057 0.00351241 -0.000766677 0.00161908)
(-0.00326092 0.00430725 -0.000646226 0.00168352 -0.000302051 0.000952258)
(-0.000551219 0.00444566 -0.000622355 -0.00038122 7.84161e-05 0.00049051)
(0.00121899 0.00212539 -0.000356238 -0.00175608 0.000626599 7.96353e-05)
(-0.00541722 0.00100113 -0.000256255 0.00256743 -0.000448021 0.00223858)
(-0.00398295 0.00248144 -0.000605532 0.00153096 -0.000211776 0.00125076)
(-0.000551712 0.00239969 -0.000592155 0.000140706 -2.70744e-05 0.000318772)
(0.0011874 0.00105426 -0.000423414 -0.000705351 0.000216935 -0.00046424)
(-0.0065636 0.0097474 -0.000225129 0.0241352 0.00274464 -0.00173865)
(-0.00201075 0.00876697 -0.000911706 0.00574474 0.000858936 -0.000651423)
(0.00103656 0.00834124 -0.000998662 -0.00582262 -0.00159843 0.000774304)
(0.00512808 0.00847376 -0.00043564 -0.0230851 -0.0037332 0.00197882)
(-0.0115563 0.00368157 -0.000308359 0.0174414 -0.00057374 -0.00308468)
(-0.0042612 0.00970428 -0.00166976 0.00685192 -0.000389673 -0.00112716)
(0.00189878 0.00959172 -0.00185659 -0.00582595 -0.000171073 0.00150198)
(0.00885733 0.00368511 -0.000757528 -0.0165545 -0.000101778 0.00377369)
(-0.00954746 0.00386563 -8.81326e-05 0.0149968 -0.00126333 -0.0021705)
(-0.00429517 0.0083634 -0.00130135 0.00566577 -0.00053608 -0.000736575)
(0.00133277 0.00838675 -0.00150399 -0.00420959 0.000163313 0.00133336)
(0.00648055 0.0039006 -0.000607777 -0.013609 0.000826657 0.00319052)
(-0.00810298 0.0032347 7.85159e-05 0.0112644 -0.00156165 -0.00107155)
(-0.00381337 0.00725514 -0.000904115 0.00448464 -0.000569942 -0.00030023)
(0.000652204 0.00730457 -0.00111725 -0.00288527 0.000328018 0.00106976)
(0.00474027 0.00331088 -0.000496721 -0.00965399 0.00129499 0.00231926)
(-0.0066155 0.00268261 0.000229704 0.00796292 -0.00155681 1.92862e-05)
(-0.003326 0.00604937 -0.000587084 0.00334183 -0.000534347 0.00011951)
(0.000106802 0.00612375 -0.000805422 -0.00173653 0.00038314 0.000795742)
(0.00307905 0.0028069 -0.000370511 -0.00623497 0.0014213 0.00139893)
(-0.00547369 0.00199896 0.000307018 0.00523818 -0.00137766 0.000967237)
(-0.00292628 0.00476941 -0.000377222 0.0023757 -0.000469824 0.000490948)
(-0.000313538 0.00489061 -0.000581999 -0.000838156 0.000350158 0.00055843)
(0.00179625 0.00223498 -0.000279004 -0.00342951 0.00132879 0.000578233)
(-0.00478457 0.00119484 0.000299247 0.00341424 -0.00108558 0.00174372)
(-0.00276236 0.00344823 -0.000279133 0.00165045 -0.000410637 0.00082037)
(-0.000622674 0.00358604 -0.000455929 -0.000178628 0.000230548 0.000380397)
(0.000984664 0.00161195 -0.000227421 -0.00141849 0.00103333 -8.21879e-05)
(-0.00511405 0.000742217 0.000237017 0.00250357 -0.00062388 0.00235964)
(-0.00353183 0.00204641 -0.000260547 0.0015005 -0.000276624 0.00110705)
(-0.000656525 0.00196107 -0.000469638 0.000280591 5.06991e-05 0.000243016)
(0.000928908 0.000819218 -0.000305933 -0.000463632 0.000477907 -0.000589432)
(-0.00688872 0.0102565 -0.000147974 0.0243583 0.0013517 -0.00100029)
(-0.00214312 0.00916133 -0.000580873 0.00584069 0.000342436 -0.000354569)
(0.00109685 0.0086985 -0.00065383 -0.00563631 -0.0010053 0.000480097)
(0.00534481 0.00885247 -0.000304046 -0.0230546 -0.00215128 0.00119838)
(-0.0121774 0.00375753 -0.000248337 0.017116 -0.000393346 -0.00188229)
(-0.0045519 0.00987482 -0.00112615 0.00690917 -0.000319229 -0.000625704)
(0.00204388 0.00976684 -0.00128598 -0.00564854 -0.000223792 0.00100374)
(0.00931376 0.00376138 -0.000586814 -0.0160349 -0.000184754 0.00243434)
(-0.0100227 0.00381596 -0.000132867 0.0149263 -0.000979173 -0.00144303)
(-0.00455035 0.00829919 -0.000960369 0.00575543 -0.000460762 -0.00039387)
(0.00144878 0.00832056 -0.00113732 -0.00411252 8.7229e-05 0.001003)
(0.00682117 0.00381836 -0.000519064 -0.0133375 0.000586546 0.00226909)
(-0.00839614 0.00312104 1.51617e-06 0.0112658 -0.00127266 -0.000713627)
(-0.00398182 0.0069797 -0.000683366 0.00455937 -0.000504948 -7.47892e-05)
(0.000676392 0.00702555 -0.000866969 -0.0027808 0.000273969 0.000877864)
(0.0048833 0.00317481 -0.000410777 -0.00945922 0.001041 0.00175689)
(-0.0068043 0.00251423 0.000124209 0.00803136 -0.00131622 9.13778e-05)
(-0.0034448 0.00568548 -0.000417172 0.00342328 -0.000481109 0.000260331)
(6.956e-05 0.00576276 -0.000602 -0.00163966 0.000355388 0.00071333)
(0.0030967 0.00263432 -0.000295158 -0.00609503 0.00121541 0.00112897)
(-0.0055838 0.00181278 0.000200904 0.00536684 -0.00118943 0.00083498)
(-0.00300616 0.00439582 -0.000226986 0.00245773 -0.000421994 0.000573068)
(-0.000399144 0.0045345 -0.000400153 -0.000747424 0.000345379 0.00056468)
(0.00170882 0.00207729 -0.000201025 -0.00333733 0.00117516 0.000539665)
(-0.0048262 0.0010036 0.000212069 0.00361185 -0.0009376 0.00145989)
(-0.00281096 0.00313599 -0.000140106 0.00173022 -0.000350465 0.000854888)
(-0.000751633 0.00330868 -0.000296807 -0.000103304 0.000244958 0.000465921)
(0.000807207 0.00149884 -0.000152123 -0.00137026 0.000938961 7.36846e-05)
(-0.00509326 0.00064915 0.000154418 0.00270566 -0.000505176 0.00192186)
(-0.00358166 0.00188961 -0.000174932 0.00159022 -0.000209218 0.00108629)
(-0.000878879 0.00182426 -0.000374674 0.000343822 6.61414e-05 0.00043)
(0.000645525 0.000776155 -0.000253865 -0.000436377 0.000427196 -0.00020317)
(-0.00712421 0.0104535 -7.8867e-05 0.0244821 0.000565242 -0.000517868)
(-0.00225871 0.00924393 -0.000344349 0.00589571 7.48023e-05 -0.000166471)
(0.00112757 0.00873802 -0.000393779 -0.00553108 -0.000621607 0.000300696)
(0.00549729 0.00893834 -0.000188692 -0.0229943 -0.00118426 0.000695376)
(-0.0126375 0.00378273 -0.000143048 0.0168217 -0.000329994 -0.000979638)
(-0.00481096 0.00996018 -0.00070034 0.0069177 -0.000263838 -0.000272521)
(0.00210963 0.00984294 -0.000811247 -0.00543831 -0.000194244 0.000666654)
(0.00962441 0.0037818 -0.000385962 -0.0155637 -0.000130509 0.00147031)
(-0.0104405 0.00384128 -9.05687e-05 0.0147805 -0.000704057 -0.000722563)
(-0.00482036 0.00834734 -0.000643777 0.00579874 -0.000353925 -0.000102475)
(0.00149473 0.00836679 -0.000767683 -0.00393907 3.21121e-05 0.000734171)
(0.00709058 0.00383329 -0.000366843 -0.0129782 0.000385812 0.00146569)
(-0.00872551 0.00312006 -8.15963e-06 0.0112282 -0.000916662 -0.000244929)
(-0.00421569 0.00696835 -0.000479392 0.00462442 -0.000384629 0.000138229)
(0.000671062 0.00701489 -0.00060473 -0.0026381 0.00018582 0.000706692)
(0.00505223 0.00317051 -0.000296449 -0.00920611 0.00072711 0.00120875)
(-0.0070383 0.00248833 7.65139e-05 0.00809069 -0.000969682 0.000319177)
(-0.00364209 0.00562697 -0.000297718 0.00350946 -0.000369229 0.000401602)
(1.64715e-05 0.00571169 -0.000420663 -0.00152927 0.000264653 0.000640108)
(0.00315646 0.00261853 -0.000210792 -0.0059378 0.000888287 0.000840983)
(-0.00573813 0.00176506 0.000134121 0.00550579 -0.000898598 0.000868056)
(-0.00317014 0.00431061 -0.000161028 0.0025572 -0.000327713 0.000658361)
(-0.000491401 0.00446796 -0.000274311 -0.000666355 0.000270177 0.000578588)
(0.00167111 0.00206158 -0.000138041 -0.00325908 0.000887933 0.000477091)
(-0.00490961 0.000937954 0.000143398 0.00382141 -0.000728108 0.00134496)
(-0.00294885 0.00305203 -0.000108897 0.00183726 -0.000273234 0.000898614)
(-0.000885017 0.00325243 -0.000212834 -4.65219e-05 0.000198639 0.000557907)
(0.00067652 0.00149204 -0.000105134 -0.00134544 0.000728793 0.00019992)
(-0.00512479 0.000619776 8.26897e-05 0.00293906 -0.000412376 0.00170907)
(-0.00372925 0.001844 -0.000181909 0.00171583 -0.000167478 0.00111199)
(-0.00109442 0.00178832 -0.000322904 0.000390704 5.56088e-05 0.000608138)
(0.000414598 0.000775148 -0.000206644 -0.000447145 0.000337739 9.569e-05)
(-0.00727119 0.0105178 -3.55744e-05 0.0245246 0.000173839 -0.000237915)
(-0.00233499 0.00922446 -0.000193073 0.00593006 -4.06925e-05 -5.80228e-05)
(0.00113612 0.00868594 -0.000224661 -0.0054474 -0.000378955 0.000192961)
(0.0055772 0.00892028 -0.00010995 -0.0228806 -0.000631486 0.000398079)
(-0.0129406 0.00378122 -6.82208e-05 0.0166456 -0.000277297 -0.000421413)
(-0.00498582 0.00998002 -0.000410067 0.0069309 -0.000209177 -5.71043e-05)
(0.00212494 0.00985539 -0.000482838 -0.00526956 -0.000148647 0.000453732)
(0.009795 0.00377977 -0.000235523 -0.0152386 -7.43855e-05 0.000872339)
(-0.0107447 0.00386025 -4.62618e-05 0.0146723 -0.000495425 -0.000220947)
(-0.005014 0.00839042 -0.000401846 0.00583262 -0.000257664 9.2838e-05)
(0.00149684 0.00841116 -0.000484112 -0.00378048 4.19053e-06 0.000547411)
(0.00725164 0.00385154 -0.000236473 -0.0126871 0.000251766 0.000919933)
(-0.00899193 0.0031397 -1.85497e-07 0.011192 -0.000628165 0.000123837)
(-0.00439573 0.00701101 -0.000312525 0.00467831 -0.000273386 0.000290904)
(0.000647666 0.00706132 -0.000394097 -0.00250391 0.000115364 0.00057616)
(0.00516185 0.00319465 -0.000195648 -0.00898021 0.000480904 0.000802209)
(-0.00724957 0.00250016 5.17977e-05 0.00812755 -0.000669802 0.000535872)
(-0.00380136 0.00565567 -0.000200968 0.00358088 -0.000262855 0.000508888)
(-3.3626e-05 0.00574828 -0.000279251 -0.00142468 0.000177901 0.000575831)
(0.00320045 0.00264324 -0.000140183 -0.00578689 0.00060293 0.000604518)
(-0.00589615 0.00176289 8.80971e-05 0.00560282 -0.000634007 0.000951001)
(-0.00330779 0.00432122 -0.000115277 0.00263947 -0.000236947 0.000728645)
(-0.000565947 0.00449266 -0.000186241 -0.00059105 0.000187825 0.00057892)
(0.00164926 0.00208526 -9.24577e-05 -0.00317411 0.000617521 0.000403081)
(-0.00501916 0.000919556 8.93533e-05 0.00396687 -0.000528682 0.001326)
(-0.00307113 0.00304965 -9.35716e-05 0.00192464 -0.000201584 0.000943025)
(-0.000988239 0.00326704 -0.000158945 5.57304e-06 0.000139456 0.000617381)
(0.00058971 0.00151421 -7.62843e-05 -0.00130572 0.000516511 0.000265833)
(-0.00520521 0.000614168 2.93461e-05 0.00310004 -0.000308337 0.00161549)
(-0.00386559 0.0018424 -0.000179244 0.00181589 -0.0001263 0.00114109)
(-0.00125366 0.00178695 -0.000271971 0.000436495 3.59504e-05 0.000725012)
(0.000261688 0.000784655 -0.000166919 -0.000437356 0.000239589 0.000280204)
(-0.00735593 0.0105304 -1.21858e-05 0.0245302 8.71311e-06 -8.23374e-05)
(-0.0023823 0.00918163 -0.000101658 0.00595375 -7.11931e-05 1.19753e-06)
(0.00113513 0.00862051 -0.000120905 -0.00538149 -0.000222551 0.000129347)
(0.00561246 0.0088757 -6.01774e-05 -0.0227627 -0.000322272 0.000228557)
(-0.0131241 0.00376903 -2.46232e-05 0.0165501 -0.000212021 -9.8266e-05)
(-0.00509636 0.00996863 -0.000224607 0.00694925 -0.000152144 6.50837e-05)
(0.00212025 0.00983911 -0.000269997 -0.005147 -0.000102755 0.000323914)
(0.00987686 0.00376953 -0.000134007 -0.0150257 -3.65599e-05 0.000521039)
(-0.0109423 0.00386762 -1.59882e-05 0.0146107 -0.000331492 9.09869e-05)
(-0.00514084 0.00841163 -0.000232478 0.00586298 -0.000175219 0.000210702)
(0.0014839 0.00843444 -0.000284382 -0.00366002 -6.19677e-06 0.000426707)
(0.00733648 0.00386141 -0.000140565 -0.0124836 0.00015914 0.000581756)
(-0.00917517 0.00315513 8.06424e-06 0.0111705 -0.000407081 0.000371632)
(-0.00451794 0.00704858 -0.000187684 0.00472078 -0.000181259 0.000387932)
(0.000622238 0.00710275 -0.000238475 -0.00239844 6.68563e-05 0.000486277)
(0.00522133 0.00321616 -0.000118874 -0.00881163 0.000301377 0.000535794)
(-0.00740405 0.0025152 3.73459e-05 0.00814942 -0.000434 0.000700171)
(-0.00391243 0.00569423 -0.000124969 0.0036337 -0.000173993 0.000581142)
(-7.2852e-05 0.00579316 -0.000172985 -0.00134035 0.000109967 0.000526659)
(0.00322379 0.00266942 -8.63727e-05 -0.00566473 0.000382366 0.000437039)
(-0.0060196 0.00177027 5.75654e-05 0.00566113 -0.000417005 0.0010375)
(-0.00340602 0.00435041 -7.70886e-05 0.00269782 -0.000159016 0.000780172)
(-0.000618844 0.0045317 -0.000120111 -0.000529304 0.000118525 0.000572311)
(0.00163334 0.00211148 -5.85645e-05 -0.00309682 0.000397271 0.000337191)
(-0.0051134 0.000914586 5.41192e-05 0.00405425 -0.000355694 0.00135198)
(-0.00316069 0.00306581 -7.35768e-05 0.00198474 -0.000137978 0.000980068)
(-0.00105862 0.00329398 -0.000113332 4.87528e-05 8.75869e-05 0.000650235)
(0.000534061 0.00153679 -5.31899e-05 -0.0012611 0.000336021 0.000290055)
(-0.00528497 0.000612926 5.46641e-06 0.00320129 -0.00021348 0.00159946)
(-0.00396779 0.00184958 -0.000148398 0.00188577 -8.86553e-05 0.00116942)
(-0.00135849 0.0017925 -0.000206879 0.000475606 1.97648e-05 0.000790869)
(0.000166755 0.000792508 -0.000123302 -0.000415909 0.000155772 0.000373399)
(-0.00740131 0.0105271 -2.42727e-06 0.0245243 -3.39657e-05 -1.42363e-06)
(-0.00240954 0.00914506 -4.76886e-05 0.00596941 -5.68044e-05 3.14374e-05)
(0.00113161 0.00856976 -5.80458e-05 -0.00533584 -0.00011632 9.392e-05)
(0.00562549 0.00883639 -2.92961e-05 -0.0226717 -0.000148641 0.000137545)
(-0.0132264 0.00375661 -5.47368e-06 0.016502 -0.000133148 7.44185e-05)
(-0.00516089 0.00995029 -0.000108915 0.00696589 -9.2525e-05 0.00012922)
(0.00211109 0.00981788 -0.000133763 -0.00506749 -5.98991e-05 0.000250003)
(0.00991157 0.00375935 -6.72453e-05 -0.0148966 -1.51564e-05 0.00032853)
(-0.0110582 0.0038685 -2.39729e-06 0.0145806 -0.000191646 0.000265462)
(-0.00521656 0.00841817 -0.000117716 0.00588649 -0.00010203 0.000275369)
(0.00147006 0.00844271 -0.000146384 -0.0035808 -6.87104e-06 0.000355389)
(0.00737688 0.00386501 -7.28583e-05 -0.0123569 8.8617e-05 0.000389989)
(-0.00928678 0.00316351 8.78409e-06 0.0111611 -0.000229509 0.000517349)
(-0.00459241 0.00707088 -9.7827e-05 0.00475047 -0.000103555 0.000443417)
(0.000602563 0.00712789 -0.000125672 -0.00232781 3.41673e-05 0.000431087)
(0.00524995 0.00322945 -6.26933e-05 -0.00870306 0.000165502 0.000379216)
(-0.00750173 0.00252524 2.32293e-05 0.00816213 -0.000244048 0.00080447)
(-0.00398118 0.00572127 -6.70098e-05 0.00366819 -9.91955e-05 0.000624681)
(-9.92385e-05 0.00582442 -9.31117e-05 -0.00128279 5.89496e-05 0.00049448)
(0.00323387 0.0026872 -4.6196e-05 -0.00558168 0.00021084 0.000333281)
(-0.00610089 0.0017764 3.28442e-05 0.00569252 -0.000236678 0.0011016)
(-0.00346766 0.00437329 -4.40029e-05 0.00273414 -9.15543e-05 0.000813585)
(-0.000652208 0.00456072 -6.72414e-05 -0.000486441 6.42768e-05 0.000565221)
(0.00162225 0.00212976 -3.23142e-05 -0.00304014 0.000220626 0.00029035)
(-0.00517903 0.000912975 2.86128e-05 0.00410101 -0.000205059 0.001384)
(-0.00321773 0.0030797 -4.70091e-05 0.00202102 -8.05917e-05 0.00100635)
(-0.00110145 0.00331414 -6.85362e-05 7.91494e-05 4.70578e-05 0.000666398)
(0.000501471 0.00155214 -3.18063e-05 -0.00122476 0.000187652 0.000294651)
(-0.00534443 0.00061303 -3.01189e-06 0.00325691 -0.00012595 0.00160932)
(-0.00403383 0.00185616 -9.67518e-05 0.00192822 -5.26608e-05 0.00119084)
(-0.00142083 0.00179698 -0.000129186 0.00050392 9.28992e-06 0.000824049)
(0.000113207 0.00079713 -7.58943e-05 -0.000394263 8.68071e-05 0.000414261)
(-0.00742085 0.0105228 -7.04433e-08 0.0245189 -1.71995e-05 3.27905e-05)
(-0.00242195 0.0091252 -1.38116e-05 0.0059773 -2.10273e-05 4.40389e-05)
(0.00112911 0.00854307 -1.70727e-05 -0.00531252 -3.60952e-05 7.80807e-05)
(0.00562918 0.00881469 -8.68702e-06 -0.0226232 -4.27187e-05 9.79206e-05)
(-0.0132718 0.00374928 -3.9577e-07 0.0164821 -4.53775e-05 0.000148643)
(-0.00519055 0.00993832 -3.21866e-05 0.00697552 -3.1059e-05 0.000156415)
(0.00210498 0.00980457 -4.00813e-05 -0.0050284 -1.96457e-05 0.000216501)
(0.0099235 0.00375342 -2.02896e-05 -0.0148353 -3.92459e-06 0.000243642)
(-0.0111112 0.00386768 3.24004e-07 0.0145689 -6.2836e-05 0.000342476)
(-0.00525182 0.00841896 -3.56776e-05 0.0058993 -3.3546e-05 0.000303563)
(0.00146187 0.00844442 -4.48275e-05 -0.00354171 -2.7676e-06 0.000322364)
(0.00739257 0.00386581 -2.23817e-05 -0.0122963 2.85244e-05 0.00030372)
(-0.0093389 0.00316686 3.52848e-06 0.0111581 -7.42679e-05 0.000583569)
(-0.00462747 0.0070805 -3.01515e-05 0.00476577 -3.37151e-05 0.000468288)
(0.000592093 0.00713895 -3.90067e-05 -0.00229269 1.04349e-05 0.000404996)
(0.00526112 0.00323542 -1.9454e-05 -0.00865035 5.27834e-05 0.000307342)
(-0.00754828 0.00252985 7.82577e-06 0.00816809 -7.88287e-05 0.000854004)
(-0.00401384 0.00573422 -2.10079e-05 0.00368518 -3.2257e-05 0.000644914)
(-0.000112416 0.00583941 -2.92765e-05 -0.00125387 1.84815e-05 0.000478743)
(0.00323726 0.00269571 -1.44671e-05 -0.00554016 6.73045e-05 0.000284179)
(-0.00614041 0.00177934 1.05812e-05 0.00570598 -7.68009e-05 0.00113455)
(-0.00349713 0.00438475 -1.43253e-05 0.00275141 -2.99267e-05 0.000829862)
(-0.000668266 0.00457506 -2.16615e-05 -0.000464677 2.02588e-05 0.000561006)
(0.0016165 0.00213864 -1.03279e-05 -0.00301065 7.06265e-05 0.000266427)
(-0.00521163 0.000912268 8.72704e-06 0.00412064 -6.71416e-05 0.00140347)
(-0.00324514 0.00308681 -1.62234e-05 0.00203787 -2.65458e-05 0.00101977)
(-0.00112158 0.00332399 -2.30177e-05 9.47663e-05 1.47444e-05 0.000672783)
(0.000486472 0.00155945 -1.06359e-05 -0.00120484 6.02057e-05 0.000293648)
(-0.00537447 0.000613438 -2.3038e-06 0.00328052 -4.20016e-05 0.00161952)
(-0.00406566 0.00185988 -3.35697e-05 0.00194807 -1.75164e-05 0.00120202)
(-0.00144983 0.00179901 -4.3944e-05 0.00051883 2.72076e-06 0.000837362)
(8.9156e-05 0.000798974 -2.56871e-05 -0.000381312 2.78372e-05 0.000428387)
)
;

boundaryField
{
    interface
    {
        type            calculated;
        value           nonuniform List<symmTensor> 
192
(
(-0.0239144 -1.10042e-05 0.000337522 0.0375223 0.00552424 -0.00321571)
(-0.0112639 8.48716e-06 0.000576001 0.0201635 -0.00175335 -0.00478724)
(-0.0121474 2.70295e-05 0.000694701 0.0193837 -0.00108954 -0.00267746)
(-0.00955613 2.64912e-05 0.000761808 0.0142366 -0.00159804 -0.00142432)
(-0.00775115 -1.23052e-05 0.000801305 0.0100857 -0.00150029 -1.55712e-05)
(-0.00616953 -0.000102921 0.000813771 0.00652448 -0.00131773 0.00112367)
(-0.00531464 -0.000274836 0.00078834 0.00427169 -0.0010497 0.00204853)
(-0.00484449 -0.000539828 0.000692988 0.00291844 -0.000581846 0.00276514)
(-0.0243204 1.41431e-05 0.000245196 0.0368294 0.0034427 -0.00212587)
(-0.0131054 4.44545e-05 0.000421636 0.0216634 -0.000639304 -0.00376173)
(-0.0123944 6.81228e-05 0.000508014 0.0194032 -0.0016386 -0.00261313)
(-0.0100104 6.02525e-05 0.000555867 0.0143603 -0.00210366 -0.0012057)
(-0.00811349 5.26714e-06 0.00058128 0.0100291 -0.00212465 0.000207327)
(-0.00659132 -0.000113805 0.000584665 0.00645717 -0.00188805 0.00142967)
(-0.00575853 -0.000333266 0.00055875 0.00421756 -0.00145824 0.00240607)
(-0.00521809 -0.000646445 0.000485735 0.00289572 -0.000810523 0.00314686)
(-0.0252769 2.16992e-05 0.000177942 0.0372374 0.00171478 -0.00124107)
(-0.0137036 5.71493e-05 0.000304707 0.0210171 -0.000414666 -0.0023522)
(-0.0128641 8.37593e-05 0.000362016 0.0191762 -0.00122294 -0.00182643)
(-0.0102713 7.27003e-05 0.000390832 0.014301 -0.00165171 -0.000911752)
(-0.00819861 8.33663e-06 0.000404618 0.0100878 -0.00173774 0.0001121)
(-0.00656516 -0.00012753 0.000404168 0.00662904 -0.00158419 0.00105757)
(-0.00567026 -0.000372152 0.000386157 0.00451899 -0.00124252 0.00183942)
(-0.0049466 -0.00070317 0.00034067 0.00318615 -0.000665342 0.00239866)
(-0.025893 2.33544e-05 0.000131215 0.0374618 0.000723239 -0.000643744)
(-0.0141816 6.08887e-05 0.000225098 0.0205217 -0.000359636 -0.00123441)
(-0.0133372 8.89433e-05 0.000265572 0.0189065 -0.000862824 -0.000943082)
(-0.0106338 7.60383e-05 0.000284367 0.0141982 -0.00116558 -0.00036346)
(-0.00844122 5.73267e-06 0.000292746 0.010129 -0.00125744 0.000336392)
(-0.00671039 -0.000140605 0.000291857 0.00679215 -0.00117856 0.00101993)
(-0.00574868 -0.000400062 0.000280477 0.00479733 -0.000957072 0.0016059)
(-0.00491936 -0.000739587 0.000250897 0.00348236 -0.00054378 0.00203763)
(-0.0262246 2.33675e-05 9.49408e-05 0.0375389 0.00022783 -0.000297132)
(-0.0144985 6.14397e-05 0.000163548 0.0202345 -0.000314514 -0.000540505)
(-0.0136745 8.99165e-05 0.000192469 0.0187195 -0.000604353 -0.000318122)
(-0.0109224 7.58086e-05 0.000205245 0.0141113 -0.000790685 8.88649e-05)
(-0.00866316 1.7709e-06 0.000210814 0.0101459 -0.000859644 0.000586319)
(-0.00686742 -0.000151145 0.000210402 0.00689677 -0.0008242 0.00108998)
(-0.00585727 -0.000420029 0.000203616 0.00497849 -0.000691624 0.00153966)
(-0.00494955 -0.00076468 0.000183923 0.00367589 -0.000406755 0.00187375)
(-0.0263929 2.29774e-05 6.45577e-05 0.0375474 1.74521e-05 -0.000104674)
(-0.0146938 6.09877e-05 0.00011165 0.0200773 -0.0002469 -0.000138443)
(-0.0138948 8.94365e-05 0.000131345 0.0186117 -0.000404987 7.28091e-05)
(-0.0111237 7.45223e-05 0.000139839 0.0140573 -0.000510477 0.000398531)
(-0.00883027 -1.82981e-06 0.000143575 0.0101515 -0.000554262 0.000786649)
(-0.00699788 -0.000158871 0.000143572 0.00695448 -0.000539739 0.00118682)
(-0.00595927 -0.000433865 0.000139674 0.00508203 -0.000464438 0.00155629)
(-0.00500998 -0.000781813 0.000126843 0.00379306 -0.000281819 0.00183588)
(-0.0264724 2.26856e-05 3.72948e-05 0.0375341 -3.87283e-05 -4.89074e-06)
(-0.014803 6.04718e-05 6.47604e-05 0.0199959 -0.00015729 7.5803e-05)
(-0.0140237 8.87257e-05 7.61726e-05 0.0185564 -0.000234767 0.000291149)
(-0.0112465 7.33003e-05 8.10372e-05 0.0140292 -0.000287589 0.000581264)
(-0.0089367 -4.41864e-06 8.3234e-05 0.0101534 -0.000311094 0.000915949)
(-0.00708528 -0.000163978 8.33554e-05 0.00698296 -0.000305783 0.00126321)
(-0.00603142 -0.000442761 8.11169e-05 0.00513493 -0.000267625 0.00159041)
(-0.0050604 -0.000792346 7.33398e-05 0.00385519 -0.000166534 0.00184136)
(-0.026503 2.24668e-05 1.20736e-05 0.0375227 -2.02697e-05 3.71596e-05)
(-0.0148506 6.00276e-05 2.10382e-05 0.0199612 -5.39327e-05 0.000167577)
(-0.0140817 8.81382e-05 2.47279e-05 0.0185336 -7.71005e-05 0.000387222)
(-0.011303 7.25432e-05 2.62885e-05 0.0140178 -9.3072e-05 0.000664202)
(-0.0089867 -5.7893e-06 2.70125e-05 0.010154 -0.000100434 0.000977606)
(-0.00712735 -0.000166792 2.70685e-05 0.00699431 -9.91665e-05 0.00130325)
(-0.00606622 -0.000447723 2.62382e-05 0.00515619 -8.76429e-05 0.00161285)
(-0.00508495 -0.000796517 2.34217e-05 0.00388058 -5.5652e-05 0.00185199)
(-0.0066485 0.00772999 -0.000376752 0.0256173 -9.77429e-05 -0.0130964)
(-0.0118393 0.00353085 -0.000641811 0.0143327 -0.000150548 -0.00194642)
(-0.0101499 0.00487148 -0.00077271 0.0147691 -0.000153685 -0.00321469)
(-0.00888151 0.00443448 -0.000860644 0.0110133 -0.000133726 -0.00144247)
(-0.00736616 0.00397921 -0.000936877 0.00806956 -0.000122705 -0.000412943)
(-0.00617996 0.00315753 -0.00101044 0.00543336 -0.000136854 0.000596243)
(-0.00542178 0.00213874 -0.00109818 0.00368864 -0.000179112 0.00126137)
(-0.00570557 0.00119182 -0.00126016 0.00269702 -0.000228545 0.00207779)
(-0.0024098 0.00608534 -0.000233295 0.00608497 -7.56756e-05 -0.00284384)
(-0.00514645 0.00919523 -0.00042173 0.0054254 -0.000139933 -0.00051607)
(-0.00538901 0.00978778 -0.000496885 0.00550169 -0.000165297 -0.00031917)
(-0.00497033 0.00921679 -0.000536092 0.00434648 -0.000150299 0.000244273)
(-0.00445274 0.00813952 -0.00056982 0.00333514 -0.000123309 0.000623168)
(-0.00399407 0.00664855 -0.000612651 0.00240084 -0.000103655 0.000967473)
(-0.00373876 0.00492763 -0.000688299 0.00174055 -9.82087e-05 0.00124584)
(-0.00441205 0.00280027 -0.000884751 0.00158319 -9.05987e-05 0.00180481)
(0.00125934 0.00551309 -0.000175885 -0.00751467 -4.9737e-05 0.00381395)
(0.002327 0.00890515 -0.000344822 -0.00427947 -0.000113959 0.000962352)
(0.00167425 0.0097562 -0.000416008 -0.00400207 -0.000151305 0.00126468)
(0.000921494 0.00925215 -0.000448112 -0.00280348 -0.000145417 0.00101679)
(0.000289339 0.00822225 -0.000471039 -0.00188749 -0.000117583 0.000861281)
(-0.000182368 0.00679666 -0.0005031 -0.0011181 -8.75109e-05 0.000680116)
(-0.000535491 0.00508446 -0.000569504 -0.0005371 -6.41838e-05 0.000532117)
(-0.000548246 0.00273336 -0.000755761 4.12178e-05 -4.08543e-05 0.000159425)
(0.0052438 0.00627517 -0.000164079 -0.025932 -4.09292e-05 0.0134859)
(0.0090716 0.00323739 -0.000343835 -0.0132236 -0.000106441 0.00245898)
(0.00682199 0.00486419 -0.000428133 -0.0133474 -0.000147681 0.00408231)
(0.00521002 0.00451047 -0.000468239 -0.00947371 -0.000146698 0.00261398)
(0.003509 0.00412641 -0.00049317 -0.00650557 -0.000120085 0.00179673)
(0.00220476 0.00342819 -0.00052425 -0.00389454 -8.61859e-05 0.000940528)
(0.00135416 0.00254192 -0.00058634 -0.00205301 -5.06584e-05 0.000286209)
(0.00130021 0.00125205 -0.000756693 -0.000908361 -5.54848e-06 -0.000437846)
(0.0214439 3.68811e-05 3.90479e-05 -0.0359212 -0.00674015 0.00348425)
(0.00904293 8.20987e-05 7.16413e-05 -0.0193805 0.00116631 0.00559751)
(0.00934388 0.000112602 7.4773e-05 -0.0180827 0.000670835 0.0039143)
(0.0064277 0.000115706 7.09253e-05 -0.0127037 0.0013014 0.00295993)
(0.0043879 0.000101722 7.39636e-05 -0.00841025 0.00130988 0.00176478)
(0.0026334 8.11097e-05 8.96067e-05 -0.00472512 0.00122864 0.000750671)
(0.00152479 4.78587e-05 0.00011951 -0.00213601 0.000976 -0.000106881)
(0.0012477 -0.00010182 0.000156138 -0.000846413 0.0003785 -0.000776604)
(0.0211481 1.59504e-05 -9.9595e-06 -0.0344957 -0.00459845 0.00245765)
(0.0106393 4.36397e-05 -1.51975e-05 -0.0209697 -0.000132193 0.00469691)
(0.00919649 6.72746e-05 -2.43999e-05 -0.0180564 0.00114282 0.00396923)
(0.00642094 7.6753e-05 -3.13499e-05 -0.0127364 0.00181396 0.00283603)
(0.00423385 7.6025e-05 -2.99944e-05 -0.00821 0.00199688 0.00161409)
(0.00247951 7.28747e-05 -1.91013e-05 -0.0044506 0.00188517 0.000516516)
(0.00133745 6.24126e-05 -9.91796e-07 -0.00179001 0.00149745 -0.000366053)
(0.00112392 -6.19617e-05 1.73976e-05 -0.000598662 0.000738473 -0.00102352)
(0.0218854 6.78614e-06 -1.82755e-05 -0.0346551 -0.00259612 0.00148692)
(0.0111953 2.56884e-05 -2.84458e-05 -0.0201665 -0.000188237 0.00302218)
(0.00964497 4.65699e-05 -3.36241e-05 -0.0176145 0.000812517 0.0028041)
(0.00667724 6.10122e-05 -3.50819e-05 -0.0124684 0.00141782 0.002124)
(0.00429975 7.01202e-05 -3.0398e-05 -0.00803914 0.00165259 0.00128127)
(0.00240597 7.88614e-05 -1.99029e-05 -0.00436913 0.00161034 0.000483692)
(0.00115124 8.01068e-05 -7.70208e-06 -0.00177858 0.0013199 -0.000155078)
(0.000759181 -2.16935e-05 -2.61175e-06 -0.00060494 0.000648794 -0.000538823)
(0.0223026 3.22963e-06 -1.72689e-05 -0.0346597 -0.00138342 0.000848408)
(0.0115831 1.78241e-05 -2.67921e-05 -0.0195343 -9.98017e-05 0.00178712)
(0.0100032 3.74644e-05 -2.90288e-05 -0.0171342 0.000544818 0.00176012)
(0.00691983 5.5597e-05 -2.73189e-05 -0.0121452 0.000981091 0.00140698)
(0.00440589 7.17875e-05 -2.13767e-05 -0.00785058 0.00119078 0.000902984)
(0.0023923 8.87287e-05 -1.25552e-05 -0.00429061 0.00119879 0.000397537)
(0.0010271 9.79019e-05 -4.98678e-06 -0.00176929 0.00101309 -2.75418e-06)
(0.000523755 1.03133e-05 -5.25356e-06 -0.000639617 0.000510364 -0.000181404)
(0.022465 1.80801e-06 -1.36299e-05 -0.0345406 -0.000706688 0.000472886)
(0.011812 1.45647e-05 -2.11176e-05 -0.0191301 -2.9733e-05 0.00102532)
(0.0102215 3.40773e-05 -2.17106e-05 -0.0167723 0.000366296 0.00105449)
(0.00707791 5.50608e-05 -1.88772e-05 -0.0118683 0.000649972 0.000875091)
(0.00448398 7.61651e-05 -1.33529e-05 -0.00767188 0.000804343 0.00058972)
(0.00238841 9.83751e-05 -6.8366e-06 -0.0041962 0.000829359 0.000293587)
(0.000942116 0.000112108 -2.84976e-06 -0.0017291 0.000716768 7.0629e-05)
(0.000366916 3.35362e-05 -6.20622e-06 -0.000639936 0.000364663 3.53715e-05)
(0.0225023 1.32611e-06 -9.36e-06 -0.0343933 -0.000342088 0.000260816)
(0.0119335 1.3526e-05 -1.44255e-05 -0.0188787 5.24541e-06 0.000582504)
(0.0103412 3.34596e-05 -1.42349e-05 -0.0165298 0.000238211 0.000622334)
(0.00716747 5.65115e-05 -1.1535e-05 -0.0116683 0.000410221 0.000530162)
(0.00452886 8.07496e-05 -7.31324e-06 -0.00752876 0.000510575 0.00036935)
(0.00238451 0.000106023 -3.09241e-06 -0.00410731 0.000533763 0.000201924)
(0.000887791 0.0001222 -1.43727e-06 -0.00167728 0.000467925 9.21157e-05)
(0.000275477 4.92877e-05 -5.47849e-06 -0.000620838 0.000239892 0.000140852)