/*--------------------------------*- C++ -*----------------------------------*\
| =========                 |                                                 |
| \\      /  F ield         | foam-extend: Open Source CFD                    |
|  \\    /   O peration     | Version:     3.1                                |
|   \\  /    A nd           | Web:         http://www.extend-project.de       |
|    \\/     M anipulation  |                                                 |
\*---------------------------------------------------------------------------*/
FoamFile
{
    version     2.0;
    format      ascii;
    class       pointVectorField;
    location    "3.7";
    object      pointD;
}
// * * * * * * * * * * * * * * * * * * * * * * * * * * * * * * * * * * * * * //

dimensions      [0 1 0 0 0 0 0];

internalField   nonuniform List<vector> 
405
(
(0 0 0)
(0 0 0)
(0 0 0)
(0 0 0)
(0 0 0)
(0.000874058 0.00092644 0.000380326)
(0.000536553 0.000315299 0.000236725)
(0.000414092 -2.13973e-05 -2.54839e-05)
(0.000475117 -0.000364761 -0.000294927)
(0.0007327 -0.000969973 -0.000462229)
(0.00175223 0.00136516 0.0002497)
(0.00147318 0.000555203 0.000150557)
(0.00132707 -2.49202e-05 -4.84007e-05)
(0.00137137 -0.000608557 -0.000260906)
(0.00154446 -0.00142146 -0.000400197)
(0.0029357 0.00181509 0.000132429)
(0.00267007 0.000782109 7.36974e-05)
(0.00252518 -3.46738e-05 -7.18902e-05)
(0.00254344 -0.000855746 -0.000231571)
(0.00267543 -0.00190003 -0.000337132)
(0.00427377 0.00212945 -2.35076e-05)
(0.00404354 0.000942008 -2.09969e-05)
(0.00390579 -5.34312e-05 -9.29036e-05)
(0.00389987 -0.00105255 -0.000179558)
(0.00397742 -0.00225084 -0.000226995)
(0.00571932 0.00234067 -0.00017149)
(0.00551781 0.00104745 -0.000110357)
(0.00538709 -7.96534e-05 -0.000112902)
(0.00536211 -0.00120768 -0.000129871)
(0.00539754 -0.002506 -0.000118767)
(0.00720721 0.00246245 -0.000301271)
(0.0070278 0.0011067 -0.000190372)
(0.00690318 -0.000110538 -0.000134006)
(0.00686416 -0.00132402 -8.96304e-05)
(0.00686877 -0.00267379 -2.47791e-05)
(0.00869784 0.00252928 -0.000406762)
(0.00852863 0.00113441 -0.000261653)
(0.00840329 -0.000141375 -0.000159099)
(0.00835367 -0.00140955 -6.52991e-05)
(0.00834253 -0.00277916 4.06079e-05)
(0.0101868 0.00256117 -0.000477902)
(0.00998975 0.00115016 -0.000316023)
(0.00982618 -0.00016121 -0.000185408)
(0.00978147 -0.00146899 -6.45318e-05)
(0.00978158 -0.0028475 5.95358e-05)
(0 0 0)
(0 0 0)
(0 0 0)
(0 0 0)
(0 0 0)
(0.000943259 0.000880407 0.000219212)
(0.000619479 0.000280625 0.000135619)
(0.00052095 -1.02933e-05 -2.01899e-05)
(0.000569792 -0.000300435 -0.000184683)
(0.00081607 -0.000890317 -0.000288452)
(0.00182453 0.00140922 0.000170675)
(0.00156415 0.000590665 9.97284e-05)
(0.00144716 -1.63516e-05 -4.17923e-05)
(0.00147947 -0.000623645 -0.000194676)
(0.00164111 -0.0014448 -0.000295232)
(0.00296543 0.00186579 7.7207e-05)
(0.00272324 0.000825636 3.8737e-05)
(0.00260816 -2.56271e-05 -6.14833e-05)
(0.00261661 -0.00087894 -0.000173958)
(0.00273413 -0.00192922 -0.000247031)
(0.00425654 0.00218932 -3.96763e-05)
(0.00404748 0.000993326 -3.27221e-05)
(0.00393761 -4.1773e-05 -7.98074e-05)
(0.00392477 -0.00107882 -0.000139745)
(0.00399073 -0.0022844 -0.000169408)
(0.00565102 0.00239926 -0.000156314)
(0.00546914 0.00109929 -0.000103514)
(0.00536461 -6.37028e-05 -9.78225e-05)
(0.00533491 -0.00122662 -0.00010472)
(0.00536055 -0.00253046 -8.82312e-05)
(0.00709322 0.00251672 -0.000260755)
(0.00693134 0.00115633 -0.000168154)
(0.00683083 -8.92703e-05 -0.000117292)
(0.00678878 -0.00133087 -7.73138e-05)
(0.00678542 -0.00268411 -1.7952e-05)
(0.00854699 0.00257626 -0.000345759)
(0.00839286 0.00117838 -0.000225036)
(0.00828916 -0.000115279 -0.000140442)
(0.00823879 -0.00140077 -6.46691e-05)
(0.00822196 -0.00277073 2.80205e-05)
(0.0100187 0.00260244 -0.000401931)
(0.00983564 0.00118904 -0.000268002)
(0.00969229 -0.000133037 -0.000165244)
(0.00964681 -0.00145008 -7.33811e-05)
(0.00964155 -0.00282659 3.25895e-05)
(0 0 0)
(0 0 0)
(0 0 0)
(0 0 0)
(0 0 0)
(0.000994373 0.000891037 0.000112778)
(0.000652179 0.000281292 6.80013e-05)
(0.000547462 -6.15414e-06 -1.77528e-05)
(0.000600231 -0.000292844 -0.000109736)
(0.00085824 -0.00089649 -0.000165738)
(0.0018815 0.00140323 8.85501e-05)
(0.00160442 0.000593302 4.67954e-05)
(0.00148047 -9.42114e-06 -3.65472e-05)
(0.00151906 -0.000613053 -0.000127308)
(0.00169473 -0.00142994 -0.000183742)
(0.00299901 0.00185729 2.842e-05)
(0.0027503 0.000833332 5.17088e-06)
(0.00263258 -1.6352e-05 -5.39957e-05)
(0.00264305 -0.000868518 -0.000120895)
(0.0027649 -0.00190438 -0.000160539)
(0.00426116 0.002182 -5.12277e-05)
(0.00404819 0.00100454 -4.60519e-05)
(0.00393716 -2.93849e-05 -7.04482e-05)
(0.00392454 -0.00106533 -0.000102758)
(0.00399211 -0.00225282 -0.000114341)
(0.00562195 0.00239541 -0.000134404)
(0.00543841 0.001114 -9.86292e-05)
(0.00533377 -4.77595e-05 -8.68195e-05)
(0.00530286 -0.00120891 -8.25638e-05)
(0.00532737 -0.00249297 -6.27163e-05)
(0.00703187 0.00251854 -0.000211314)
(0.0068694 0.00117405 -0.000147884)
(0.00676967 -6.97831e-05 -0.000104559)
(0.00672544 -0.00130815 -6.75818e-05)
(0.00671903 -0.00264223 -1.78098e-05)
(0.00845802 0.00258656 -0.000275268)
(0.00830466 0.00119856 -0.000191481)
(0.00820248 -9.28903e-05 -0.000125471)
(0.00814914 -0.00137334 -6.45666e-05)
(0.00812747 -0.0027264 9.23913e-06)
(0.00991484 0.00261927 -0.000315704)
(0.00973363 0.00121096 -0.000223344)
(0.00959133 -0.000108613 -0.000148537)
(0.00953938 -0.00141886 -8.16589e-05)
(0.0095263 -0.00278003 -3.54405e-07)
(0 0 0)
(0 0 0)
(0 0 0)
(0 0 0)
(0 0 0)
(0.00101967 0.000897994 5.06785e-05)
(0.000663014 0.00028208 3.00145e-05)
(0.000551455 -3.83976e-06 -1.52305e-05)
(0.000606576 -0.000289343 -6.42609e-05)
(0.000874269 -0.000899185 -9.14496e-05)
(0.00190848 0.00139491 3.28729e-05)
(0.00161827 0.000591394 1.41221e-05)
(0.00148616 -4.17569e-06 -3.10057e-05)
(0.00152778 -0.000601165 -8.05294e-05)
(0.00171332 -0.00141312 -0.000107163)
(0.00301584 0.00184194 -7.33266e-06)
(0.00275722 0.000831529 -1.51581e-05)
(0.0026328 -8.06693e-06 -4.59337e-05)
(0.00264473 -0.000850507 -8.10385e-05)
(0.00277383 -0.00187355 -9.71391e-05)
(0.00426008 0.00216509 -6.10963e-05)
(0.00404076 0.00100445 -5.14967e-05)
(0.00392443 -1.7853e-05 -6.0218e-05)
(0.00391168 -0.00104214 -7.31808e-05)
(0.00398317 -0.00221267 -7.17039e-05)
(0.00559956 0.00238112 -0.000118946)
(0.00541247 0.00111712 -8.96565e-05)
(0.00530362 -3.28677e-05 -7.45813e-05)
(0.00527132 -0.00118165 -6.33696e-05)
(0.00529682 -0.00244696 -4.14208e-05)
(0.00698795 0.00251031 -0.00017397)
(0.00682392 0.00118138 -0.000126291)
(0.00672094 -5.16913e-05 -9.01956e-05)
(0.00667432 -0.00127782 -5.70974e-05)
(0.00666637 -0.00259333 -1.50858e-05)
(0.00839493 0.00258765 -0.00022084)
(0.00824196 0.00121066 -0.000159196)
(0.00813715 -7.1997e-05 -0.000108525)
(0.00808011 -0.00134093 -6.01054e-05)
(0.00805411 -0.00267657 -1.49571e-06)
(0.00984009 0.00262992 -0.000250533)
(0.00966023 0.00122844 -0.00018361)
(0.00951424 -8.50178e-05 -0.000129347)
(0.00945506 -0.00138536 -7.9763e-05)
(0.00943441 -0.00273055 -1.69399e-05)
(0 0 0)
(0 0 0)
(0 0 0)
(0 0 0)
(0 0 0)
(0.00103088 0.000900649 1.84796e-05)
(0.000664877 0.000282432 1.04123e-05)
(0.000548655 -2.13787e-06 -1.22767e-05)
(0.000604579 -0.000286271 -3.71499e-05)
(0.000877697 -0.00089695 -4.90473e-05)
(0.00191913 0.00138853 3.30826e-06)
(0.00161938 0.000589688 -2.52718e-06)
(0.00148144 1.30395e-07 -2.49639e-05)
(0.00152398 -0.000590866 -4.99956e-05)
(0.0017155 -0.00139816 -6.02917e-05)
(0.00302028 0.0018301 -2.495e-05)
(0.00275329 0.000829149 -2.36125e-05)
(0.00262355 -8.97178e-07 -3.71216e-05)
(0.00263578 -0.000833792 -5.30471e-05)
(0.00276978 -0.00184744 -5.60981e-05)
(0.00425375 0.00215124 -6.16619e-05)
(0.00402809 0.00100294 -4.93614e-05)
(0.00390725 -7.73e-06 -4.88993e-05)
(0.00389402 -0.0010202 -5.06885e-05)
(0.00396854 -0.00217807 -4.24857e-05)
(0.00557998 0.00236863 -0.000101577)
(0.00538846 0.00111791 -7.67056e-05)
(0.00527588 -1.98137e-05 -6.087e-05)
(0.00524238 -0.00115582 -4.69685e-05)
(0.00526895 -0.0024068 -2.5584e-05)
(0.00695434 0.00250194 -0.000140401)
(0.00678743 0.00118553 -0.000103477)
(0.00668141 -3.5902e-05 -7.39442e-05)
(0.00663291 -0.00124934 -4.57483e-05)
(0.00662412 -0.00255007 -1.11684e-05)
(0.00834817 0.0025857 -0.000174244)
(0.00819368 0.00121874 -0.000127905)
(0.00808611 -5.37465e-05 -8.92241e-05)
(0.00802615 -0.00131079 -5.14476e-05)
(0.00799734 -0.00263179 -5.72643e-06)
(0.00978405 0.00263443 -0.000195457)
(0.00960301 0.00124079 -0.00014603)
(0.00945315 -6.42261e-05 -0.000106635)
(0.00938858 -0.00135412 -6.99594e-05)
(0.00936301 -0.00268532 -2.20255e-05)
(0 0 0)
(0 0 0)
(0 0 0)
(0 0 0)
(0 0 0)
(0.00103518 0.000901142 3.62059e-06)
(0.000663697 0.000282603 1.47686e-06)
(0.000544524 -7.96397e-07 -9.14389e-06)
(0.000600535 -0.000283618 -2.09888e-05)
(0.000876188 -0.000892931 -2.54088e-05)
(0.00192172 0.00138406 -8.86594e-06)
(0.0016158 0.000588791 -8.70883e-06)
(0.00147402 3.62599e-06 -1.86917e-05)
(0.00151661 -0.000582829 -3.02027e-05)
(0.00171137 -0.0013861 -3.26933e-05)
(0.00301837 0.00182238 -2.86859e-05)
(0.00274557 0.000827873 -2.36194e-05)
(0.00261217 4.97381e-06 -2.79266e-05)
(0.0026242 -0.000820663 -3.35928e-05)
(0.00276098 -0.00182764 -3.10118e-05)
(0.00424499 0.00214215 -5.34869e-05)
(0.00401454 0.00100224 -4.14175e-05)
(0.00389049 5.45044e-07 -3.6958e-05)
(0.00387671 -0.00100277 -3.37059e-05)
(0.00395305 -0.00215188 -2.38636e-05)
(0.0055628 0.0023602 -8.04547e-05)
(0.00536763 0.00111877 -6.03939e-05)
(0.00525234 -9.21449e-06 -4.62207e-05)
(0.00521793 -0.00113509 -3.30251e-05)
(0.00524517 -0.00237601 -1.47767e-05)
(0.00692797 0.00249592 -0.000107075)
(0.00675841 0.00118867 -7.92265e-05)
(0.00665012 -2.31802e-05 -5.63765e-05)
(0.00660031 -0.00122632 -3.41184e-05)
(0.006591 -0.00251632 -7.37254e-06)
(0.0083126 0.00258356 -0.000130685)
(0.00815635 0.00122457 -9.66112e-05)
(0.00804665 -3.91243e-05 -6.8179e-05)
(0.00798471 -0.00128627 -4.0104e-05)
(0.00795414 -0.00259619 -6.09729e-06)
(0.00974114 0.00263646 -0.000145478)
(0.00955839 0.00124969 -0.000109574)
(0.0094055 -4.75541e-05 -8.15396e-05)
(0.00933742 -0.00132848 -5.51634e-05)
(0.00930883 -0.00264878 -2.0033e-05)
(0 0 0)
(0 0 0)
(0 0 0)
(0 0 0)
(0 0 0)
(0.00103651 0.000900836 -1.61341e-06)
(0.000661977 0.000282709 -1.52322e-06)
(0.000541028 1.93246e-07 -6.0242e-06)
(0.000596873 -0.000281599 -1.1175e-05)
(0.000873536 -0.000889123 -1.23699e-05)
(0.0019212 0.00138113 -1.05547e-05)
(0.00161157 0.000588456 -8.61329e-06)
(0.00146742 6.22081e-06 -1.24e-05)
(0.00150977 -0.000577141 -1.70445e-05)
(0.00170615 -0.00137734 -1.66176e-05)
(0.00301461 0.00181776 -2.33576e-05)
(0.00273813 0.000827468 -1.82579e-05)
(0.0026024 9.32528e-06 -1.86116e-05)
(0.00261411 -0.000811436 -1.97041e-05)
(0.00275234 -0.00181392 -1.59874e-05)
(0.00423681 0.0021368 -3.8895e-05)
(0.00400318 0.0010023 -2.95482e-05)
(0.00387704 6.6462e-06 -2.47276e-05)
(0.0038628 -0.000990469 -2.05404e-05)
(0.00394012 -0.00213388 -1.24016e-05)
(0.00554932 0.0023552 -5.57354e-05)
(0.0053516 0.00111983 -4.15943e-05)
(0.00523451 -1.45492e-06 -3.10409e-05)
(0.00519948 -0.00112037 -2.09774e-05)
(0.00522707 -0.00235469 -7.79963e-06)
(0.00690859 0.00249222 -7.25004e-05)
(0.00673705 0.00119114 -5.36489e-05)
(0.00662723 -1.39336e-05 -3.79792e-05)
(0.0065766 -0.00120985 -2.25744e-05)
(0.00656696 -0.00249266 -4.29241e-06)
(0.00828707 0.00258201 -8.75262e-05)
(0.00812933 0.0012287 -6.48594e-05)
(0.00801817 -2.85566e-05 -4.6e-05)
(0.00795502 -0.0012686 -2.72913e-05)
(0.00792344 -0.00257086 -4.6258e-06)
(0.00971035 0.00263731 -9.6958e-05)
(0.00952602 0.00125573 -7.32526e-05)
(0.00937103 -3.55363e-05 -5.49988e-05)
(0.00930083 -0.00130983 -3.77412e-05)
(0.00927055 -0.00262243 -1.45367e-05)
(0 0 0)
(0 0 0)
(0 0 0)
(0 0 0)
(0 0 0)
(0.00103676 0.000900439 -1.85795e-06)
(0.000660709 0.000282771 -1.42105e-06)
(0.000538816 8.01312e-07 -2.98274e-06)
(0.000594485 -0.000280347 -4.82501e-06)
(0.000871472 -0.000886541 -4.96655e-06)
(0.00192012 0.00137947 -6.52017e-06)
(0.00160853 0.000588379 -5.064e-06)
(0.00146309 7.81641e-06 -6.17244e-06)
(0.00150522 -0.00057376 -7.66745e-06)
(0.00170232 -0.00137204 -6.90203e-06)
(0.00301153 0.00181532 -1.28372e-05)
(0.00273305 0.000827445 -9.82031e-06)
(0.00259603 1.1995e-05 -9.29476e-06)
(0.00260749 -0.000805991 -9.09613e-06)
(0.00274639 -0.00180587 -6.70127e-06)
(0.00423119 0.00213404 -2.03618e-05)
(0.00399578 0.00100259 -1.53204e-05)
(0.00386848 1.03735e-05 -1.23819e-05)
(0.00385394 -0.000983209 -9.71786e-06)
(0.0039317 -0.0021234 -5.21312e-06)
(0.00554072 0.00235264 -2.84944e-05)
(0.00534153 0.00112069 -2.11868e-05)
(0.00522343 3.26133e-06 -1.55807e-05)
(0.00518803 -0.00111164 -1.01811e-05)
(0.00521577 -0.00234224 -3.30001e-06)
(0.00689664 0.00249028 -3.66251e-05)
(0.00672392 0.00119276 -2.7083e-05)
(0.00661324 -8.34124e-06 -1.90999e-05)
(0.00656215 -0.00120004 -1.12213e-05)
(0.00655233 -0.00247873 -1.93414e-06)
(0.00827152 0.0025811 -4.39516e-05)
(0.00811286 0.0012312 -3.25871e-05)
(0.00800088 -2.21889e-05 -2.31527e-05)
(0.00793707 -0.00125802 -1.37789e-05)
(0.00790499 -0.00255583 -2.42236e-06)
(0.00969161 0.00263758 -4.8561e-05)
(0.0095063 0.00125925 -3.6719e-05)
(0.0093501 -2.8303e-05 -2.76679e-05)
(0.00927877 -0.00129859 -1.90975e-05)
(0.00924765 -0.00260664 -7.52555e-06)
(0 0 0)
(0 0 0)
(0 0 0)
(0 0 0)
(0 0 0)
(0.00103675 0.000900276 -0)
(0.000660256 0.000282792 -0)
(0.000538067 1.00635e-06 -0)
(0.000593667 -0.000279924 0)
(0.000870719 -0.000885639 0)
(0.00191964 0.00137894 -0)
(0.00160745 0.000588373 0)
(0.00146161 8.3544e-06 -0)
(0.00150365 -0.000572639 0)
(0.00170094 -0.00137027 0)
(0.00301037 0.00181456 -0)
(0.00273127 0.000827474 0)
(0.00259384 1.28941e-05 0)
(0.00260521 -0.000804194 0)
(0.0027443 -0.00180321 0)
(0.00422919 0.0021332 -0)
(0.00399323 0.00100273 0)
(0.00386555 1.1626e-05 -0)
(0.00385091 -0.000980813 0)
(0.0039288 -0.00211995 0)
(0.00553776 0.00235185 -0)
(0.00533809 0.00112101 0)
(0.00521967 4.84221e-06 0)
(0.00518415 -0.00110876 0)
(0.00521194 -0.00233815 0)
(0.00689258 0.00248968 -0)
(0.00671949 0.00119332 0)
(0.00660853 -6.47094e-06 0)
(0.00655729 -0.00119679 0)
(0.00654741 -0.00247414 0)
(0.00826627 0.00258079 -0)
(0.00810732 0.00123203 0)
(0.00799507 -2.0062e-05 0)
(0.00793106 -0.00125451 0)
(0.00789882 -0.00255086 0)
(0.00968528 0.0026376 -0)
(0.00949965 0.0012604 -0)
(0.00934308 -2.58849e-05 0)
(0.00927139 -0.00129485 0)
(0.00924001 -0.0026014 0)
)
;

boundaryField
{
    interface
    {
        type            calculated;
    }
    symmetry
    {
        type            symmetryPlane;
    }
    bottom
    {
        type            fixedValue;
        value           uniform (0 0 0);
    }
}


// ************************************************************************* //
