/*--------------------------------*- C++ -*----------------------------------*\
| =========                 |                                                 |
| \\      /  F ield         | foam-extend: Open Source CFD                    |
|  \\    /   O peration     | Version:     3.1                                |
|   \\  /    A nd           | Web:         http://www.extend-project.de       |
|    \\/     M anipulation  |                                                 |
\*---------------------------------------------------------------------------*/
FoamFile
{
    version     2.0;
    format      ascii;
    class       volScalarField;
    location    "3.7";
    object      sigmaEq;
}
// * * * * * * * * * * * * * * * * * * * * * * * * * * * * * * * * * * * * * //

dimensions      [1 -1 -2 0 0 0 0];

internalField   nonuniform List<scalar> 
256
(
242.622
107.408
105.68
232.881
181.992
136.83
126.572
163.62
165.516
130.848
120.546
144.073
132.22
117.525
108.329
108.717
102.529
100.711
92.8739
78.3362
77.4356
81.8768
75.305
52.7264
60.732
63.3062
55.9742
33.4038
57.6066
49.818
31.1055
19.1632
239.617
120.953
116.212
223.018
190.182
141.03
132.325
172.75
163.729
122.103
112.622
142.342
129.181
104.341
95.3787
105.188
98.1577
86.0211
78.2558
72.8548
73.262
68.139
61.7067
46.8078
57.322
51.9564
45.2431
28.1243
55.3012
43.1512
25.8046
16.1459
242.035
124.911
117.991
220.762
189.726
142.575
132.391
168.892
164.227
121.782
110.713
139.407
129.489
101.81
91.2622
102.18
98.3416
82.574
73.3772
69.907
73.2104
64.5893
57.1023
44.1129
56.9045
49.1479
41.8938
25.8884
54.1286
42.4571
24.7702
13.4025
243.549
125.871
117.412
219.23
189.472
143.61
131.882
165.824
164.629
122.803
110.137
136.733
130.262
102.375
90.3215
99.8154
99.263
82.7588
72.2642
67.7932
74.0969
64.5537
56.1046
42.2689
57.6022
49.2285
41.382
24.3873
54.5403
43.5128
25.2459
12.0424
244.196
125.776
116.264
217.738
189.631
144.102
131.177
163.815
165.175
123.763
109.89
134.82
131.175
103.45
90.2956
98.1399
100.371
83.7711
72.3552
66.3518
75.23
65.4202
56.2892
41.0461
58.6372
50.0339
41.726
23.452
55.4531
44.7375
25.9835
11.5281
244.362
125.409
115.187
216.421
189.851
144.262
130.474
162.47
165.671
124.408
109.685
133.525
131.943
104.332
90.4251
97.0147
101.29
84.7076
72.6797
65.403
76.1789
66.279
56.7012
40.2684
59.5358
50.8029
42.177
22.8979
56.3574
45.7012
26.5445
11.3056
244.346
125.077
114.412
215.458
190.015
144.275
129.928
161.617
166.024
124.772
109.504
132.714
132.47
104.894
90.5159
96.3177
101.909
85.3375
72.9355
64.8232
76.817
66.8718
57.0241
39.8074
60.1514
51.3284
42.5004
22.5896
57.0092
46.3273
26.8794
11.1737
244.305
124.893
114.014
214.954
190.095
144.255
129.633
161.198
166.202
124.93
109.396
132.32
132.731
105.158
90.5527
95.9826
102.212
85.6427
73.0624
64.5464
77.1283
67.1623
57.1868
39.5915
60.4521
51.5852
42.6577
22.45
57.3328
46.6296
27.0291
11.1011
)
;

boundaryField
{
    interface
    {
        type            calculated;
        value           nonuniform List<scalar> 
192
(
392.736
206.564
200.802
151.211
112.643
81.1198
64.2559
56.4363
385.346
222.815
202.608
155.033
115.614
85.0258
68.6538
60.5532
390.714
219.119
201.988
154.865
115.405
84.4203
67.4584
56.9268
394.692
217.029
201.539
155.085
116.035
85.1707
68.2174
56.8092
396.733
216.275
201.566
155.56
116.87
86.1552
69.2767
57.345
397.606
216.065
201.815
156.094
117.636
87.0354
70.2339
58.1233
397.908
216.025
202.056
156.506
118.177
87.6409
70.8888
58.7156
397.981
216.019
202.187
156.717
118.443
87.9348
71.1994
58.9979
273.9
169.428
170.427
136.355
108.2
83.0297
65.549
61.8449
97.7583
131.417
138.748
128.013
112.182
92.4583
72.0869
56.7928
100.307
118.406
127.015
117.741
103.469
85.0548
63.7606
35.401
268.692
147.289
148.229
112.028
83.8884
58.551
38.8179
23.1243
372.481
192.453
179.879
127.141
85.206
49.6985
25.752
15.6134
354.921
207.84
179.5
127.989
84.8454
49.9769
26.8158
16.7943
355.697
201.291
175.747
124.981
82.1663
47.5807
24.4416
12.4524
356.331
196.845
172.258
121.987
79.4846
44.9745
21.5572
9.61541
355.791
194.308
169.882
119.777
77.4435
42.8836
19.0942
7.79941
354.757
192.79
168.354
118.308
76.0423
41.4205
17.3108
6.70387
353.802
191.888
167.431
117.415
75.1764
40.5119
16.1844
6.02896
353.255
191.46
166.992
116.992
74.7635
40.0792
15.6455
5.69484
62.5547
59.9619
59.0815
59.3354
60.2469
61.1708
61.8552
62.1828
48.7139
43.9877
44.6734
46.4558
48.0809
49.2743
50.0348
50.4048
13.0347
11.6189
12.7629
14.684
16.1762
17.0668
17.5316
17.7264
18.7207
15.5778
11.7611
9.83825
9.29113
9.06028
8.87543
8.75039
)
;
    }
    symmetry
    {
        type            symmetryPlane;
    }
    bottom
    {
        type            calculated;
        value           nonuniform List<scalar> 
32
(
222.442
192.975
189.83
190.527
191.206
191.516
191.609
191.618
73.1273
79.5734
80.3576
79.5456
78.5364
77.7162
77.1729
76.906
77.8748
78.2885
76.1745
73.573
71.4955
70.0472
69.1499
68.7226
223.822
182.416
171.443
167.748
165.933
164.75
163.964
163.564
)
;
    }
}


// ************************************************************************* //
