/*--------------------------------*- C++ -*----------------------------------*\
| =========                 |                                                 |
| \\      /  F ield         | foam-extend: Open Source CFD                    |
|  \\    /   O peration     | Version:     3.1                                |
|   \\  /    A nd           | Web:         http://www.extend-project.de       |
|    \\/     M anipulation  |                                                 |
\*---------------------------------------------------------------------------*/
FoamFile
{
    version     2.0;
    format      ascii;
    class       volSymmTensorField;
    location    "3.7";
    object      sigma;
}
// * * * * * * * * * * * * * * * * * * * * * * * * * * * * * * * * * * * * * //

dimensions      [1 -1 -2 0 0 0 0];

internalField   nonuniform List<symmTensor> 
256
(
(177.368 61.1236 -2.66071 401.087 31.829 205.209)
(23.6835 51.9261 -8.14664 81.2638 10.9509 32.4207)
(-55.4753 48.4041 -8.32716 -111.643 -15.9641 -55.2638)
(-199.821 51.6133 -3.37929 -411.609 -38.8865 -216.103)
(-74.8122 25.5608 -3.00283 121.482 -10.3486 -20.4127)
(-31.9031 67.1138 -12.8178 44.8647 -4.67355 -8.72816)
(-1.32382 65.6486 -13.2699 -52.3931 2.2731 -2.53665)
(40.1273 24.5195 -4.65065 -130.212 7.02524 9.67023)
(-27.2584 31.4269 -1.05486 148.511 -5.72064 26.5668)
(-33.1112 65.1303 -8.6873 40.7724 -2.41087 -3.74561)
(-7.11631 65.0976 -9.03966 -46.9475 0.152379 -7.45579)
(-6.76075 31.6085 -2.77954 -150.204 3.12874 -30.7834)
(-38.5316 27.7582 -0.994333 101.202 -8.11998 13.2911)
(-34.1803 59.7022 -7.06984 28.4464 -2.86638 -4.59007)
(-6.92647 60.0119 -7.33239 -32.9178 1.06246 -3.81451)
(4.10852 28.363 -2.87705 -99.8282 6.16311 -13.7259)
(-35.5226 24.2907 -0.601077 71.2884 -7.47205 13.752)
(-32.4328 51.741 -5.59774 19.0187 -2.47464 -3.02677)
(-8.52291 52.3011 -5.81527 -23.0749 1.05754 -3.32059)
(1.16977 25.2861 -2.51618 -68.1403 6.09557 -11.4622)
(-36.3234 18.9319 -0.66838 43.0813 -6.5514 11.2588)
(-31.5588 41.8256 -4.82129 10.1286 -2.17352 -2.44624)
(-9.33769 42.7609 -4.8982 -14.8615 0.955853 -2.73153)
(1.54793 20.7001 -2.42601 -39.3253 5.67137 -7.59841)
(-35.8902 12.4069 -1.22898 25.5975 -5.47627 12.0737)
(-32.2228 30.7661 -4.6159 3.09459 -2.15751 -2.12871)
(-10.2505 31.7547 -4.44539 -9.03627 0.560115 -2.80962)
(2.17207 15.1814 -2.54455 -19.0785 4.4757 -5.96621)
(-47.426 7.15096 -1.83039 9.60719 -3.20015 7.25828)
(-45.6101 17.7246 -4.32523 -6.22501 -1.51269 -8.22647)
(-5.25842 17.1406 -4.22968 -0.312588 -0.193388 0.959315)
(8.73582 7.53044 -3.02439 -4.78382 1.54953 -3.06161)
(179.301 69.6243 -1.60806 398.578 19.6045 213.765)
(29.6742 62.6212 -6.51218 85.0706 6.13526 39.3837)
(-49.9069 59.5803 -7.1333 -98.901 -11.4173 -51.7801)
(-191.631 60.5269 -3.11172 -393.153 -26.6657 -214.125)
(-42.539 26.2969 -2.20256 164.588 -4.09814 17.9727)
(-9.52916 69.3163 -11.9269 69.8503 -2.78338 12.8568)
(-21.0828 68.5123 -13.2614 -76.2594 -1.22195 -23.9171)
(7.21668 26.3222 -5.41092 -174.297 -0.726988 -29.095)
(-21.3558 27.6116 -0.629519 153.96 -9.0238 31.3367)
(-21.6223 59.7385 -9.29539 49.5273 -3.82914 3.79626)
(-12.5296 59.9054 -10.7428 -52.1179 1.16652 -12.5254)
(-9.96596 27.8614 -4.34126 -153.462 5.90469 -33.4661)
(-28.0229 23.105 0.560828 110.316 -11.1546 22.2016)
(-21.9379 51.8224 -6.45797 37.3336 -4.07101 3.156)
(-11.96 52.1755 -7.98037 -37.2276 2.34299 -8.97738)
(-3.20476 23.6492 -3.54801 -106.021 9.24994 -20.4977)
(-27.7292 19.1615 1.64074 76.4024 -11.1201 19.6622)
(-21.8236 43.2098 -4.19346 25.8037 -3.81677 2.78715)
(-11.1512 43.7411 -5.75302 -24.3178 2.73672 -6.23015)
(-3.10665 20.0493 -2.64651 -69.6354 10.1521 -15.1076)
(-28.6445 14.2783 2.19299 47.8688 -9.84041 17.3621)
(-21.7538 34.0672 -2.69444 16.1175 -3.35589 2.65494)
(-10.7148 34.933 -4.15714 -14.462 2.50113 -4.48641)
(-2.24148 15.9641 -1.99288 -39.5684 9.49138 -10.9416)
(-28.8415 8.53459 2.13748 29.7214 -7.75415 17.7891)
(-23.896 24.6302 -1.9938 7.62409 -2.93312 1.69495)
(-10.4606 25.6145 -3.25664 -7.28886 1.64677 -3.29582)
(-0.338289 11.5139 -1.62444 -17.5037 7.38093 -7.95866)
(-40.1122 5.30155 1.69298 14.2993 -4.45628 13.2713)
(-38.4315 14.6172 -1.86105 -2.48627 -1.97589 -5.29663)
(-6.5883 14.0076 -3.35455 0.105384 0.362137 -0.163004)
(4.86139 5.85156 -2.18523 -5.08533 3.41362 -5.9839)
(186.071 73.2608 -1.05695 409.264 9.655 228.131)
(32.4492 65.4381 -4.14909 89.4765 2.44597 45.2246)
(-50.1564 62.1321 -4.67022 -98.2504 -7.18074 -54.5618)
(-197.701 63.2319 -2.17175 -400.554 -15.3663 -227.318)
(-43.3191 26.8395 -1.77384 165.919 -2.80961 30.2171)
(-7.77703 70.5344 -8.04392 74.0878 -2.2802 20.2673)
(-22.5569 69.7631 -9.18559 -77.5027 -1.59851 -29.9865)
(5.28645 26.867 -4.19153 -175.776 -1.31967 -43.8523)
(-22.1546 27.2569 -0.949051 156.052 -6.99409 39.1288)
(-20.9138 59.2799 -6.85978 52.6989 -3.29115 8.77533)
(-13.3763 59.4326 -8.12373 -53.0999 0.623064 -16.5605)
(-11.9524 27.274 -3.7076 -155.943 4.18961 -44.4673)
(-29.1721 22.2931 0.0108298 111.27 -9.09044 25.703)
(-21.2592 49.855 -4.88119 39.7493 -3.60677 6.64814)
(-12.6906 50.1825 -6.19264 -37.3848 1.95692 -11.2516)
(-5.39113 22.6772 -2.93412 -107.838 7.43573 -27.7226)
(-29.7673 17.9588 0.887205 76.2017 -9.40157 19.4876)
(-21.1942 40.6106 -2.9798 27.8636 -3.43649 5.27106)
(-11.7427 41.1626 -4.3 -23.9513 2.53849 -7.14429)
(-4.58587 18.8166 -2.10827 -70.2411 8.68149 -18.6411)
(-31.0554 12.9485 1.43503 47.1634 -8.49593 14.793)
(-21.1208 31.3987 -1.62133 17.907 -3.01424 4.44518)
(-11.1637 32.3893 -2.85824 -13.6514 2.46699 -4.27925)
(-3.34899 14.8378 -1.43589 -39.3929 8.39398 -11.7001)
(-30.9652 7.1686 1.51478 29.3067 -6.69714 13.9355)
(-23.3047 22.3999 -1.00076 9.13229 -2.50332 2.87989)
(-10.9262 23.6334 -2.12005 -6.29526 1.7497 -2.22936)
(-1.22521 10.706 -1.08659 -16.7785 6.70686 -6.46466)
(-43.0339 4.63679 1.10299 12.6727 -3.6084 7.07412)
(-38.514 13.4972 -1.24951 -1.57198 -1.49442 -5.17144)
(-7.77851 13.0304 -2.67625 0.955062 0.472438 1.57062)
(4.6963 5.54397 -1.81332 -3.03157 3.0514 -1.36581)
(189.684 74.6676 -0.563336 415.443 4.03744 236.872)
(33.4453 66.028 -2.45964 91.6911 0.534302 48.3899)
(-50.5575 62.4144 -2.81271 -98.1193 -4.44005 -56.4637)
(-200.757 63.8453 -1.3478 -404.268 -8.45903 -235.056)
(-44.4883 27.0195 -1.02177 165.935 -2.3571 38.7822)
(-8.16088 71.1441 -5.00243 75.6152 -1.88455 24.2565)
(-22.9602 70.3067 -5.79462 -76.8741 -1.38746 -33.2672)
(4.90245 27.0128 -2.75687 -175.013 -0.932207 -53.3411)
(-22.8968 27.4377 -0.646919 157.253 -5.02898 46.5167)
(-21.9181 59.6239 -4.5984 53.9326 -2.52804 11.781)
(-13.7544 59.7628 -5.48345 -52.5672 0.229372 -19.1869)
(-12.523 27.3806 -2.62031 -155.871 2.7558 -52.7008)
(-30.0707 22.2862 -0.058283 112.456 -6.54759 30.5049)
(-22.2984 49.7739 -3.42423 40.8453 -2.74735 8.80106)
(-13.2116 50.1064 -4.3195 -36.8484 1.32729 -12.9571)
(-5.98589 22.6465 -2.11749 -107.831 5.19364 -33.4393)
(-30.6798 17.7738 0.546528 77.3844 -6.9263 21.8736)
(-22.1725 40.1926 -2.12656 28.91 -2.63735 6.71104)
(-12.3494 40.7978 -3.00474 -23.3904 1.89038 -7.89481)
(-5.17322 18.7038 -1.50565 -70.1322 6.3449 -21.7124)
(-31.9051 12.6076 0.958006 48.4086 -6.41856 15.282)
(-21.9949 30.7901 -1.1502 18.9146 -2.34081 5.35147)
(-11.7838 31.914 -1.95937 -13.0335 1.92983 -4.14106)
(-3.9333 14.7256 -0.986009 -39.1489 6.34238 -12.462)
(-31.4007 6.69967 1.02427 30.9638 -5.20077 13.2748)
(-24.1056 21.8002 -0.777833 10.0809 -1.95167 3.37624)
(-11.6591 23.2316 -1.52024 -5.6699 1.41885 -1.35254)
(-1.86771 10.6575 -0.750954 -16.3103 5.20566 -5.27199)
(-43.4151 4.42697 0.590641 14.1838 -2.94554 5.39821)
(-39.515 13.1714 -1.29935 -0.621576 -1.19627 -4.93471)
(-9.18278 12.7737 -2.30645 1.42528 0.397206 2.97838)
(3.86345 5.53677 -1.47603 -2.29186 2.41242 1.58554)
(191.141 75.1274 -0.254103 418.254 1.24171 241.379)
(33.8506 65.889 -1.3791 92.8867 -0.290661 50.1147)
(-50.7181 62.0424 -1.60472 -97.7432 -2.70682 -57.4549)
(-201.668 63.7163 -0.78536 -404.938 -4.51061 -238.661)
(-45.524 27.0087 -0.487291 165.806 -1.9807 43.8987)
(-8.6419 71.2858 -2.92905 76.4776 -1.49412 26.5632)
(-23.2632 70.3957 -3.44884 -76.081 -1.06176 -35.2004)
(4.66003 26.9983 -1.68231 -174.152 -0.531325 -59.0733)
(-23.7962 27.5732 -0.330442 157.754 -3.53875 51.3738)
(-22.7936 59.9315 -2.87033 54.6823 -1.84046 13.6839)
(-14.1116 60.0797 -3.45794 -51.8067 0.0299324 -20.8932)
(-12.7108 27.511 -1.68909 -155.131 1.79833 -57.9372)
(-31.0298 22.4264 -0.00132498 113.141 -4.4869 34.0828)
(-23.2055 50.0786 -2.23232 41.6091 -1.95276 10.2705)
(-13.6607 50.438 -2.81498 -36.1719 0.824029 -14.1714)
(-6.21745 22.8189 -1.39748 -107.232 3.43503 -37.3578)
(-31.5848 17.8583 0.369984 78.2518 -4.7843 24.0255)
(-23.0324 40.3977 -1.43548 29.6979 -1.87753 7.75505)
(-12.847 41.0592 -1.99465 -22.7831 1.27072 -8.49372)
(-5.45296 18.8803 -1.0013 -69.6482 4.30664 -23.9953)
(-32.72 12.5921 0.629265 49.4155 -4.52862 16.1882)
(-22.7653 30.8659 -0.82341 19.7152 -1.69248 6.06639)
(-12.3007 32.0904 -1.33029 -12.48 1.34161 -4.12309)
(-4.24485 14.8947 -0.660412 -38.6975 4.41086 -13.1461)
(-31.9412 6.56826 0.638238 32.2448 -3.7763 13.3814)
(-24.8434 21.7832 -0.668369 10.8407 -1.43989 3.82918)
(-12.2772 23.336 -1.13532 -5.17854 0.996115 -0.808485)
(-2.21896 10.8158 -0.544888 -15.7578 3.68937 -4.53236)
(-44.1754 4.38692 0.209615 15.1478 -2.2024 4.5438)
(-40.5915 13.16 -1.28031 -0.00943406 -0.902143 -4.82942)
(-10.2711 12.7639 -1.94265 1.80137 0.256789 3.86221)
(3.36258 5.60468 -1.19228 -1.6306 1.71135 3.49483)
(191.628 75.2172 -0.0870417 419.387 0.0622365 243.583)
(34.0213 65.5831 -0.72613 93.5645 -0.508522 51.0463)
(-50.7064 61.575 -0.863606 -97.2537 -1.58965 -57.8906)
(-201.649 63.3978 -0.429838 -404.329 -2.30194 -240.106)
(-46.2044 26.9217 -0.17588 165.754 -1.51443 46.8371)
(-9.00303 71.2045 -1.60434 77.037 -1.08674 27.8644)
(-23.4673 70.2794 -1.92855 -75.3762 -0.733963 -36.2982)
(4.43694 26.9252 -0.957196 -173.439 -0.261142 -62.3904)
(-24.4527 27.6258 -0.114201 158.068 -2.3678 54.3561)
(-23.394 60.0831 -1.66055 55.2047 -1.25157 14.8313)
(-14.3924 60.246 -2.0313 -51.1347 -0.0442627 -21.9438)
(-12.8156 27.5815 -1.00404 -154.387 1.13671 -61.0636)
(-31.7228 22.5366 0.0576017 113.604 -2.90772 36.4687)
(-23.8314 50.347 -1.3406 42.1594 -1.29471 11.2105)
(-13.983 50.7339 -1.70339 -35.5592 0.477545 -14.9541)
(-6.34059 22.9726 -0.849101 -106.576 2.15269 -39.8087)
(-32.2355 17.9657 0.266757 78.8607 -3.1 25.6518)
(-23.6257 40.6731 -0.892638 30.2752 -1.24281 8.47124)
(-13.1853 41.3797 -1.2356 -22.2389 0.785479 -8.9031)
(-5.60015 19.0673 -0.616948 -69.0896 2.73118 -25.5055)
(-33.2967 12.6448 0.411181 50.1371 -2.97861 17.1112)
(-23.3005 31.0744 -0.550633 20.2984 -1.13583 6.60088)
(-12.6466 32.3693 -0.857936 -12.007 0.846609 -4.13831)
(-4.423 15.082 -0.418318 -38.2099 2.83765 -13.6812)
(-32.341 6.53276 0.386565 33.1423 -2.54067 13.8403)
(-25.3747 21.8987 -0.525548 11.3784 -0.985556 4.20217)
(-12.6991 23.5284 -0.809517 -4.78934 0.62562 -0.49304)
(-2.42795 10.9771 -0.379928 -15.2506 2.40015 -4.17085)
(-44.6671 4.37804 0.0390458 15.949 -1.52486 4.5074)
(-41.3786 13.2113 -1.05999 0.432547 -0.633252 -4.68427)
(-11.018 12.8036 -1.47771 2.08266 0.141177 4.33454)
(2.96602 5.66077 -0.880729 -1.19587 1.11265 4.44205)
(191.727 75.1937 -0.0173377 419.767 -0.242612 244.583)
(34.0934 65.3219 -0.340633 93.943 -0.405746 51.529)
(-50.6358 61.2126 -0.414613 -96.8319 -0.830858 -58.0479)
(-201.37 63.1171 -0.209258 -403.493 -1.06172 -240.57)
(-46.6181 26.8329 -0.0390977 165.728 -0.951057 48.3881)
(-9.23169 71.0735 -0.777961 77.3881 -0.660893 28.5548)
(-23.5837 70.1277 -0.955449 -74.8593 -0.427851 -36.8772)
(4.27623 26.8525 -0.480323 -172.925 -0.10826 -64.1741)
(-24.8746 27.6322 -0.0171235 158.26 -1.3689 56.0087)
(-23.7568 60.1298 -0.840825 55.5506 -0.728784 15.4712)
(-14.5759 60.305 -1.0456 -50.6535 -0.0490788 -22.5379)
(-12.8795 27.6072 -0.520417 -153.835 0.632979 -62.7858)
(-32.1673 22.5965 0.0627435 113.889 -1.63935 37.8622)
(-24.2104 50.5063 -0.698765 42.5244 -0.739681 11.7598)
(-14.1839 50.9135 -0.897657 -35.1152 0.244052 -15.4088)
(-6.41309 23.0675 -0.447809 -106.078 1.18216 -41.2041)
(-32.6572 18.0374 0.165924 79.2276 -1.7432 26.6728)
(-23.9843 40.8662 -0.478642 30.6541 -0.70854 8.91469)
(-13.3881 41.603 -0.665084 -21.842 0.421068 -9.14723)
(-5.67997 19.1943 -0.329971 -68.6482 1.506 -26.3985)
(-33.6746 12.6886 0.234601 50.5641 -1.69056 17.7718)
(-23.6252 31.2378 -0.314306 20.6734 -0.653959 6.95511)
(-12.8505 32.5766 -0.480296 -11.6664 0.45912 -4.15453)
(-4.5203 15.2125 -0.230816 -37.8231 1.5759 -14.0339)
(-32.6219 6.52125 0.204377 33.6641 -1.46471 14.2569)
(-25.7031 21.9979 -0.33578 11.7166 -0.575655 4.46892)
(-12.9519 23.6724 -0.489544 -4.51903 0.336127 -0.324405)
(-2.54139 11.0867 -0.227188 -14.8716 1.34037 -4.01868)
(-45.0059 4.37878 -0.0215135 16.4322 -0.899643 4.6637)
(-41.8812 13.2583 -0.691084 0.704846 -0.376149 -4.56211)
(-11.4754 12.8356 -0.922754 2.27285 0.0663566 4.55948)
(2.71155 5.69379 -0.542102 -0.913237 0.620051 4.86193)
(191.72 75.1626 -0.000503166 419.861 -0.122854 244.96)
(34.1201 65.18 -0.0986542 94.1147 -0.150195 51.7343)
(-50.5825 61.022 -0.121948 -96.5942 -0.257823 -58.0899)
(-201.164 62.962 -0.0620501 -402.966 -0.305134 -240.673)
(-46.813 26.7806 -0.00282693 165.715 -0.324125 49.0472)
(-9.34138 70.988 -0.229904 77.5591 -0.22185 28.8513)
(-23.6347 70.0326 -0.286295 -74.5874 -0.140327 -37.1238)
(4.19417 26.8102 -0.144926 -172.654 -0.0280328 -64.9477)
(-25.0782 27.6263 0.00231431 158.351 -0.448829 56.7339)
(-23.9266 60.1354 -0.25484 55.7242 -0.239614 15.7547)
(-14.6648 60.3173 -0.320197 -50.4047 -0.0197685 -22.8042)
(-12.9103 27.6129 -0.159869 -153.545 0.203746 -63.545)
(-32.3816 22.6204 0.0252034 114.025 -0.530485 38.4932)
(-24.3879 50.575 -0.215368 42.7067 -0.240822 12.0104)
(-14.2793 50.9925 -0.278619 -34.8849 0.0745351 -15.6157)
(-6.44771 23.1102 -0.138957 -105.815 0.377024 -41.8318)
(-32.8618 18.0703 0.0558984 79.398 -0.563062 27.1545)
(-24.1522 40.9587 -0.150056 30.8408 -0.230407 9.12457)
(-13.4822 41.7101 -0.209118 -21.6354 0.13201 -9.2596)
(-5.71574 19.2551 -0.103337 -68.4116 0.480747 -26.8091)
(-33.8584 12.7096 0.0755801 50.7586 -0.548578 18.1056)
(-23.7775 31.3197 -0.102324 20.8549 -0.213762 7.1296)
(-12.9439 32.679 -0.154725 -11.4897 0.144706 -4.16335)
(-4.56377 15.276 -0.0737705 -37.6148 0.504475 -14.2072)
(-32.762 6.5162 0.062336 33.8971 -0.479583 14.4887)
(-25.8582 22.0487 -0.115881 11.8777 -0.189613 4.60549)
(-13.0689 23.7428 -0.164412 -4.38073 0.105317 -0.252045)
(-2.59259 11.1389 -0.075971 -14.6734 0.430041 -3.96991)
(-45.1665 4.3817 -0.0164557 16.6549 -0.300012 4.7906)
(-42.12 13.2848 -0.239783 0.835166 -0.125117 -4.49372)
(-11.6936 12.8501 -0.313886 2.36824 0.019434 4.64346)
(2.58298 5.70696 -0.183479 -0.777504 0.198837 5.00606)
)
;

boundaryField
{
    interface
    {
        type            calculated;
        value           nonuniform List<symmTensor> 
192
(
(-22.3569 -0.0786011 2.41087 416.476 39.4589 125.491)
(-21.7093 0.0606226 4.1143 202.772 -12.5239 24.5528)
(-21.64 0.193068 4.96215 203.582 -7.78246 46.0023)
(-21.7418 0.189223 5.44149 148.206 -11.4145 36.3425)
(-22.2366 -0.0878942 5.72361 105.17 -10.7164 33.0175)
(-22.9449 -0.735149 5.81265 67.7267 -9.41234 29.1494)
(-23.5964 -1.96312 5.631 44.8773 -7.49789 28.9976)
(-22.6164 -3.85591 4.94992 32.8331 -4.15604 31.7381)
(-25.3856 0.101022 1.7514 411.398 24.5907 133.146)
(-25.0921 0.317532 3.01169 223.257 -4.56646 41.6485)
(-25.7357 0.486592 3.62867 201.39 -11.7043 44.1304)
(-26.5866 0.430375 3.97048 147.49 -15.0262 36.3043)
(-27.6259 0.0376224 4.152 101.964 -15.1761 31.8085)
(-28.5735 -0.812895 4.17618 64.63 -13.4861 28.7194)
(-28.7739 -2.38047 3.99107 42.4839 -10.416 29.5446)
(-25.4936 -4.61747 3.46953 32.4622 -5.78945 34.2561)
(-27.4152 0.154995 1.27102 419.115 12.2484 144.269)
(-27.008 0.408209 2.17648 220.997 -2.9619 54.0735)
(-27.8048 0.598281 2.58583 201.054 -8.7353 51.0355)
(-28.8247 0.519288 2.79166 146.692 -11.7979 38.0294)
(-29.9713 0.0595474 2.89013 100.646 -12.4124 29.3909)
(-30.8733 -0.910925 2.88692 63.371 -11.3156 23.5748)
(-30.6711 -2.65823 2.75827 42.1092 -8.87515 22.9695)
(-26.2157 -5.02264 2.43336 31.8754 -4.75244 26.2505)
(-28.8791 0.166817 0.93725 423.655 5.16599 151.473)
(-28.3591 0.434919 1.60784 219.522 -2.56883 64.121)
(-29.1776 0.635309 1.89694 201.135 -6.16303 59.3521)
(-30.2283 0.543131 2.0312 147.143 -8.32556 43.1312)
(-31.3778 0.0409477 2.09104 101.267 -8.98172 31.3194)
(-32.1929 -1.00432 2.08469 64.2538 -8.41828 23.0236)
(-31.7113 -2.85759 2.00341 43.6174 -6.83623 20.8214)
(-26.5579 -5.28277 1.79212 33.4544 -3.88414 23.1349)
(-29.931 0.166911 0.678148 425.523 1.62736 155.266)
(-29.3392 0.438855 1.1682 218.753 -2.24653 70.3605)
(-30.1486 0.642261 1.37478 201.237 -4.31681 65.2542)
(-31.1921 0.54149 1.46603 147.62 -5.64775 47.4599)
(-32.3213 0.0126493 1.50581 102.029 -6.14032 33.7464)
(-33.0625 -1.07961 1.50287 65.2531 -5.88715 23.7761)
(-32.3964 -3.00021 1.4544 45.0019 -4.94017 20.4388)
(-26.7811 -5.462 1.31373 34.8292 -2.90539 21.9568)
(-30.6663 0.164124 0.461127 426.05 0.124658 157.107)
(-30.0269 0.435627 0.7975 218.338 -1.76357 73.94)
(-30.8234 0.638832 0.93818 201.366 -2.89277 68.945)
(-31.853 0.532302 0.99885 148.011 -3.64627 50.4486)
(-32.9609 -0.0130701 1.02554 102.623 -3.95901 35.7314)
(-33.6503 -1.1348 1.02552 66.0094 -3.85528 24.8119)
(-32.8656 -3.09904 0.997672 46.0009 -3.31741 20.817)
(-26.9432 -5.58438 0.90602 35.9356 -2.01299 21.9557)
(-31.1335 0.16204 0.266391 426.056 -0.27663 157.92)
(-30.4683 0.431942 0.462574 218.095 -1.1235 75.8086)
(-31.256 0.633755 0.54409 201.459 -1.6769 70.9926)
(-32.2747 0.523573 0.578837 148.266 -2.05421 52.2093)
(-33.3677 -0.0315617 0.594528 102.99 -2.2221 37.0084)
(-34.0251 -1.17127 0.595396 66.4624 -2.18416 25.607)
(-33.1685 -3.16258 0.579406 46.5912 -1.91161 21.2732)
(-27.0579 -5.65962 0.523856 36.6248 -1.18953 22.2404)
(-31.3508 0.160477 0.08624 425.975 -0.144784 158.221)
(-30.6731 0.428768 0.150273 217.983 -0.385233 76.5997)
(-31.4531 0.629559 0.176628 201.513 -0.550718 71.8962)
(-32.464 0.518166 0.187775 148.399 -0.6648 53.016)
(-33.549 -0.0413522 0.192946 103.17 -0.717384 37.6246)
(-34.1924 -1.19137 0.193346 66.6766 -0.708332 26.0262)
(-33.2899 -3.19802 0.187416 46.8702 -0.626021 21.5606)
(-27.0694 -5.68941 0.167298 36.9701 -0.397514 22.4802)
(36.4016 55.2142 -2.69109 266.871 -0.698164 -9.65488)
(-76.7513 25.2204 -4.58436 110.192 -1.07534 -6.0881)
(-52.436 34.7963 -5.51936 125.557 -1.09775 -2.89857)
(-53.5918 31.6749 -6.14746 88.514 -0.955182 -0.455793)
(-48.4661 28.4229 -6.69198 61.7891 -0.876464 1.19978)
(-46.2906 22.5538 -7.21742 36.6617 -0.977527 2.11087)
(-45.4664 15.2767 -7.84416 19.6079 -1.27937 2.27034)
(-54.0507 8.51303 -9.00114 5.96786 -1.63246 1.54473)
(-5.3368 43.4667 -1.66639 55.3401 -0.54054 -8.43706)
(-40.1477 65.6802 -3.01236 35.3655 -0.999524 -7.0736)
(-41.4428 69.9127 -3.54918 36.3479 -1.18069 -5.2297)
(-40.9249 65.8342 -3.82923 25.6238 -1.07356 -3.67769)
(-38.8685 58.1394 -4.07014 16.7592 -0.880775 -2.61206)
(-37.4684 47.4897 -4.37608 8.20953 -0.740394 -2.02883)
(-37.4536 35.1974 -4.91642 1.68431 -0.70149 -1.84934)
(-46.1439 20.0019 -6.31965 -3.32071 -0.647134 -1.7377)
(-25.8815 39.3792 -1.25632 -88.553 -0.355264 -7.63433)
(2.477 63.6082 -2.46302 -44.7121 -0.81399 -7.27052)
(-3.22877 69.6872 -2.97148 -43.774 -1.08075 -6.15433)
(-5.77778 66.0868 -3.2008 -32.3847 -1.03869 -5.09707)
(-8.45994 58.7304 -3.36457 -24.0087 -0.839882 -4.37464)
(-10.1647 48.5476 -3.59357 -16.8485 -0.625078 -4.00413)
(-11.546 36.3176 -4.06789 -11.5575 -0.458456 -3.92022)
(-8.88181 19.524 -5.39829 -4.67135 -0.291817 -3.82702)
(-65.434 44.8226 -1.17199 -288.118 -0.292352 -6.56198)
(40.6111 23.1242 -2.45596 -118.64 -0.760293 -6.62186)
(13.8271 34.7442 -3.05809 -130.24 -1.05487 -5.74198)
(13.6472 32.2177 -3.34456 -91.2366 -1.04785 -4.89602)
(7.92381 29.4743 -3.52265 -63.6088 -0.857753 -4.3067)
(5.04475 24.487 -3.74464 -38.5217 -0.615614 -3.98552)
(3.77766 18.1566 -4.18814 -20.5593 -0.361846 -3.85057)
(8.63017 8.94324 -5.40495 -7.14536 -0.039632 -3.78453)
(-3.8737 0.263436 0.278914 -413.624 -48.1439 -132.157)
(-3.12348 0.586419 0.511723 -206.148 8.33076 -27.7336)
(-2.1802 0.804301 0.534093 -198.085 4.79168 -40.9629)
(-1.46099 0.82647 0.506609 -138.114 9.29571 -26.2308)
(-0.908861 0.726589 0.528312 -92.3243 9.35626 -19.6454)
(-0.347796 0.579355 0.640048 -52.9087 8.77597 -13.7959)
(0.63293 0.341848 0.853646 -25.5156 6.97143 -11.0219)
(3.55051 -0.727285 1.11527 -11.4075 2.70357 -10.9088)
(-4.51354 0.113932 -0.0711393 -401.969 -32.8461 -138.016)
(-4.48388 0.311712 -0.108553 -230.263 -0.944235 -46.9296)
(-4.17716 0.480533 -0.174285 -198.84 8.16303 -41.5147)
(-3.84233 0.548236 -0.223928 -140.68 12.9569 -29.4488)
(-3.50206 0.543036 -0.214246 -92.3867 14.2634 -22.2146)
(-3.06886 0.520534 -0.136438 -52.5696 13.4655 -17.0902)
(-2.14118 0.445805 -0.00708426 -24.4802 10.6961 -14.3091)
(0.910036 -0.442584 0.124269 -11.3941 5.27481 -14.4289)
(-4.8585 0.0484724 -0.130539 -408.719 -18.5437 -150.562)
(-5.02008 0.183488 -0.203185 -229.033 -1.34455 -63.3995)
(-4.89857 0.332642 -0.240172 -199.609 5.8037 -53.7619)
(-4.69315 0.435801 -0.250585 -141.448 10.1273 -37.2163)
(-4.40342 0.500858 -0.217128 -92.5383 11.8042 -25.964)
(-3.94977 0.563296 -0.142163 -52.3433 11.5024 -17.6803)
(-2.95413 0.572192 -0.0550149 -23.8814 9.42783 -12.285)
(-0.0713073 -0.154953 -0.0186553 -9.81503 4.63424 -9.34277)
(-5.10524 0.0230688 -0.123349 -411.978 -9.88156 -158.349)
(-5.32181 0.127315 -0.191372 -227.589 -0.71287 -75.2931)
(-5.27434 0.267603 -0.207349 -199.113 3.89156 -64.1536)
(-5.12158 0.397121 -0.195135 -141.301 7.00779 -44.4991)
(-4.83938 0.512768 -0.152691 -92.3856 8.50555 -29.8602)
(-4.35167 0.633777 -0.0896803 -52.0868 8.56276 -18.6)
(-3.30566 0.699299 -0.0356199 -23.2798 7.23639 -10.6617)
(-0.505557 0.0736664 -0.0375254 -8.81536 3.64546 -5.54241)
(-5.28866 0.0129144 -0.0973561 -412.471 -5.04777 -162.375)
(-5.5246 0.104033 -0.15084 -226.54 -0.212379 -82.5724)
(-5.50905 0.243409 -0.155076 -198.322 2.6164 -70.9874)
(-5.37699 0.393291 -0.134837 -140.707 4.64266 -49.6828)
(-5.08838 0.544036 -0.0953777 -91.916 5.74531 -32.9045)
(-4.57156 0.702679 -0.0488329 -51.6045 5.92399 -19.5345)
(-3.5042 0.800769 -0.0203555 -22.5843 5.11977 -9.72911)
(-0.774146 0.239545 -0.0443302 -7.96595 2.60473 -3.14232)
(-5.41465 0.0094722 -0.0668572 -411.812 -2.44348 -164.283)
(-5.65656 0.096614 -0.103039 -225.744 0.0374672 -86.7351)
(-5.65323 0.238997 -0.101678 -197.589 1.70151 -75.0736)
(-5.52736 0.403654 -0.0823926 -140.068 2.93015 -52.9367)
(-5.23024 0.576783 -0.0522374 -91.3561 3.64696 -34.941)
(-4.69469 0.75731 -0.0220886 -51.0648 3.81259 -20.2846)
(-3.62114 0.872858 -0.0102662 -21.9431 3.34232 -9.30453)
(-0.953869 0.352055 -0.0391321 -7.35611 1.71352 -1.91548)
(-5.49215 0.0087526 -0.0380141 -410.975 -1.06583 -165.106)
(-5.73542 0.0957398 -0.0581427 -225.183 0.0959908 -88.9427)
(-5.73613 0.241769 -0.0556581 -197.049 0.967362 -77.3123)
(-5.61107 0.415918 -0.0426123 -139.578 1.6214 -54.7792)
(-5.30775 0.601836 -0.024367 -90.9047 2.0172 -36.1453)
(-4.76256 0.793834 -0.00804046 -50.632 2.12273 -20.7834)
(-3.69029 0.917848 -0.00426376 -21.4696 1.87525 -9.14769)
(-1.06867 0.421035 -0.0270688 -6.95576 0.965048 -1.36137)
(-5.52773 0.00896998 -0.0121685 -410.455 -0.294486 -165.4)
(-5.77049 0.0964306 -0.0184912 -224.889 0.0438939 -89.8896)
(-5.77232 0.244496 -0.017417 -196.763 0.31471 -78.2931)
(-5.64738 0.423149 -0.0129247 -139.318 0.519525 -55.6029)
(-5.3417 0.614894 -0.00694424 -90.6602 0.645433 -36.6978)
(-4.79306 0.812163 -0.00185436 -50.3979 0.680884 -21.0292)
(-3.71998 0.938779 -0.00100394 -21.2211 0.603455 -9.10467)
(-1.13066 0.453344 -0.00990177 -6.7635 0.311148 -1.16729)
(-58.4146 9.84435 -1.9802 0.945891 -2.54349 2.06232)
(-53.0085 9.3917 1.44801 2.72432 -2.12148 6.18535)
(-54.0064 9.4003 0.782635 4.1614 -1.6685 1.11053)
(-54.6167 9.51271 0.22659 5.28721 -1.30534 -1.15727)
(-55.549 9.63534 -0.143765 6.12348 -0.994938 -2.45262)
(-56.2567 9.74049 -0.240189 6.71394 -0.709328 -2.82638)
(-56.7329 9.81682 -0.198849 7.07528 -0.435311 -2.85951)
(-57.0008 9.85415 -0.0774002 7.17554 -0.150018 -2.85923)
(-50.5075 6.98721 -4.00496 -1.31615 -0.910814 -6.90815)
(-45.528 6.04221 -1.89147 -0.434906 -0.788679 -6.01795)
(-45.8849 5.8064 -1.61173 0.556276 -0.607123 -6.29097)
(-47.2045 5.74569 -1.82673 1.37862 -0.477636 -6.23464)
(-48.5308 5.73673 -1.82333 1.98606 -0.373952 -6.28158)
(-49.5187 5.74494 -1.50131 2.41255 -0.272846 -6.25253)
(-50.1459 5.76036 -0.972483 2.68978 -0.166476 -6.19786)
(-50.4271 5.77882 -0.335905 2.84964 -0.0556464 -6.14492)
(-5.8465 5.83346 -4.12498 -3.07984 -0.190287 -1.1587)
(-7.47357 4.71657 -3.72401 -2.46133 -0.204696 -2.19483)
(-9.29659 4.33917 -3.39466 -1.74224 -0.166621 -0.138916)
(-11.0953 4.16515 -3.1164 -1.16099 -0.147323 1.64067)
(-12.4809 4.06729 -2.68742 -0.743161 -0.130942 2.71502)
(-13.4383 4.00796 -2.05453 -0.45684 -0.104056 3.25041)
(-14.0335 3.97359 -1.28226 -0.276099 -0.0643519 3.47965)
(-14.3114 3.95639 -0.435575 -0.173226 -0.0206072 3.56408)
(11.6137 5.59275 -3.35615 -3.03187 0.243426 -3.56973)
(7.97703 4.4689 -2.83789 -2.56871 0.0492021 -5.96633)
(6.68831 4.03373 -2.60719 -2.11315 -0.0232257 -1.03154)
(5.39766 3.80323 -2.21986 -1.74002 -0.0586636 2.4564)
(4.49423 3.65675 -1.81642 -1.47987 -0.0731433 4.59394)
(3.82434 3.55929 -1.34213 -1.30814 -0.0676993 5.6065)
(3.38782 3.49781 -0.823617 -1.20575 -0.0463246 6.0106)
(3.16787 3.46473 -0.278124 -1.16016 -0.0160889 6.12972)
)
;
    }
    symmetry
    {
        type            symmetryPlane;
    }
    bottom
    {
        type            calculated;
        value           nonuniform List<symmTensor> 
32
(
(208.982 74.7397 0 313.474 85.2525 208.982)
(205.128 84.2717 0 307.692 42.4849 205.128)
(211.316 88.6841 0 316.974 20.6336 211.316)
(215.061 90.3148 0 322.592 9.43885 215.061)
(216.831 90.8483 0 325.247 3.89036 216.831)
(217.604 90.9859 0 326.407 1.32934 217.604)
(217.904 90.9999 0 326.857 0.315464 217.904)
(217.999 90.9884 0 326.999 0.0337017 217.999)
(39.8601 31.704 0 59.7902 25.3967 39.8601)
(41.8835 42.325 0 62.8252 13.155 41.8835)
(44.8331 44.128 0 67.2496 6.13776 44.8331)
(46.3013 43.8686 0 69.4519 2.46207 46.3013)
(47.0904 43.2516 0 70.6356 0.704706 47.0904)
(47.5393 42.7193 0 71.3089 -0.00616989 47.5393)
(47.7893 42.3659 0 71.684 -0.172477 47.7893)
(47.9024 42.1934 0 71.8535 -0.0823891 47.9024)
(-58.0004 28.1585 0 -87.0005 -30.7937 -58.0004)
(-51.9353 38.7003 0 -77.9029 -17.9037 -51.9353)
(-52.3677 39.9273 0 -78.5516 -10.5574 -52.3677)
(-52.5925 39.1823 0 -78.8888 -6.21072 -52.5925)
(-52.5351 38.2217 0 -78.8026 -3.60277 -52.5351)
(-52.3545 37.4574 0 -78.5318 -2.01589 -52.3545)
(-52.1742 36.9599 0 -78.2612 -1.01208 -52.1742)
(-52.0674 36.7186 0 -78.1011 -0.306811 -52.0674)
(-212.364 63.488 0 -318.546 -94.3915 -212.364)
(-202.241 71.4047 0 -303.361 -50.8405 -202.241)
(-207.602 73.8819 0 -311.404 -27.3397 -207.602)
(-210.315 74.0617 0 -315.472 -14.4434 -210.315)
(-211.079 73.5522 0 -316.619 -7.42306 -211.079)
(-211.002 72.9658 0 -316.503 -3.65007 -211.002)
(-210.701 72.52 0 -316.052 -1.6259 -210.701)
(-210.488 72.2869 0 -315.732 -0.456715 -210.488)
)
;
    }
}


// ************************************************************************* //
