/*--------------------------------*- C++ -*----------------------------------*\
| =========                 |                                                 |
| \\      /  F ield         | foam-extend: Open Source CFD                    |
|  \\    /   O peration     | Version:     3.1                                |
|   \\  /    A nd           | Web:         http://www.extend-project.de       |
|    \\/     M anipulation  |                                                 |
\*---------------------------------------------------------------------------*/
FoamFile
{
    version     2.0;
    format      ascii;
    class       volVectorField;
    location    "3.4";
    object      cellMotionU;
}
// * * * * * * * * * * * * * * * * * * * * * * * * * * * * * * * * * * * * * //

dimensions      [0 1 -1 0 0 0 0];

internalField   nonuniform List<vector> 
14592
(
(-1.04677e-11 -2.62758e-12 4.41971e-14)
(-3.02411e-11 -7.69012e-12 1.23342e-13)
(-4.79909e-11 -1.25269e-11 1.79954e-13)
(-6.41391e-11 -1.74049e-11 2.02381e-13)
(-7.90091e-11 -2.25672e-11 1.69862e-13)
(-9.28158e-11 -2.82493e-11 4.57377e-14)
(-1.05644e-10 -3.46901e-11 -2.33343e-13)
(-1.17404e-10 -4.2148e-11 -7.76223e-13)
(-1.27764e-10 -5.08983e-11 -1.76806e-12)
(-1.36045e-10 -6.12316e-11 -3.52396e-12)
(-1.41091e-10 -7.34229e-11 -6.57751e-12)
(-1.4114e-10 -8.76579e-11 -1.18228e-11)
(-1.33788e-10 -1.03917e-10 -2.07259e-11)
(-1.16304e-10 -1.21796e-10 -3.55558e-11)
(-8.7268e-11 -1.40223e-10 -5.90509e-11)
(-5.44995e-11 -1.55628e-10 -8.86037e-11)
(-3.12118e-11 -7.75208e-12 1.36889e-13)
(-9.01781e-11 -2.26887e-11 3.8394e-13)
(-1.43128e-10 -3.69506e-11 5.67838e-13)
(-1.91326e-10 -5.13218e-11 6.58137e-13)
(-2.35751e-10 -6.65107e-11 6.00127e-13)
(-2.77073e-10 -8.3196e-11 2.97174e-13)
(-3.15602e-10 -1.02071e-10 -4.17562e-13)
(-3.5117e-10 -1.23878e-10 -1.82773e-12)
(-3.82958e-10 -1.49408e-10 -4.41056e-12)
(-4.09217e-10 -1.79513e-10 -8.96754e-12)
(-4.26946e-10 -2.14998e-10 -1.68284e-11)
(-4.31611e-10 -2.5647e-10 -3.01604e-11)
(-4.173e-10 -3.03991e-10 -5.23342e-11)
(-3.78269e-10 -3.5662e-10 -8.8011e-11)
(-3.14535e-10 -4.11525e-10 -1.41142e-10)
(-2.50005e-10 -4.5781e-10 -2.01015e-10)
(-5.15399e-11 -1.25361e-11 2.41682e-13)
(-1.48916e-10 -3.66785e-11 6.84033e-13)
(-2.36377e-10 -5.97039e-11 1.03345e-12)
(-3.16044e-10 -8.28589e-11 1.25354e-12)
(-3.89591e-10 -1.07262e-10 1.27546e-12)
(-4.58224e-10 -1.33972e-10 9.76526e-13)
(-5.22621e-10 -1.64072e-10 1.45818e-13)
(-5.8281e-10 -1.98679e-10 -1.56592e-12)
(-6.37922e-10 -2.39026e-10 -4.73448e-12)
(-6.85871e-10 -2.86395e-10 -1.02902e-11)
(-7.22934e-10 -3.42072e-10 -1.97166e-11)
(-7.43513e-10 -4.0708e-10 -3.52897e-11)
(-7.40718e-10 -4.81761e-10 -6.02212e-11)
(-7.09493e-10 -5.65107e-10 -9.8064e-11)
(-6.55737e-10 -6.53353e-10 -1.49183e-10)
(-6.13718e-10 -7.29156e-10 -1.97395e-10)
(-7.11818e-11 -1.67789e-11 3.63037e-13)
(-2.05679e-10 -4.90756e-11 1.0376e-12)
(-3.26514e-10 -7.98258e-11 1.60421e-12)
(-4.36678e-10 -1.1066e-10 2.03689e-12)
(-5.38583e-10 -1.43023e-10 2.27811e-12)
(-6.34065e-10 -1.7827e-10 2.22075e-12)
(-7.2437e-10 -2.17743e-10 1.68433e-12)
(-8.10054e-10 -2.62829e-10 3.79957e-13)
(-8.90782e-10 -3.15011e-10 -2.13842e-12)
(-9.65043e-10 -3.75861e-10 -6.53653e-12)
(-1.0298e-09 -4.46961e-10 -1.37641e-11)
(-1.08027e-09 -5.29691e-10 -2.50755e-11)
(-1.11061e-09 -6.24753e-10 -4.18269e-11)
(-1.11731e-09 -7.31393e-10 -6.45402e-11)
(-1.10849e-09 -8.45389e-10 -8.99492e-11)
(-1.115e-09 -9.44471e-10 -1.05357e-10)
(-8.9871e-11 -2.03165e-11 5.00851e-13)
(-2.59701e-10 -5.94005e-11 1.44451e-12)
(-4.12321e-10 -9.65331e-11 2.27967e-12)
(-5.5158e-10 -1.33634e-10 3.0061e-12)
(-6.80653e-10 -1.72376e-10 3.60034e-12)
(-8.02083e-10 -2.14304e-10 4.00695e-12)
(-9.1785e-10 -2.60876e-10 4.13648e-12)
(-1.02933e-09 -3.13598e-10 3.85965e-12)
(-1.13726e-09 -3.73993e-10 3.02768e-12)
(-1.24157e-09 -4.43683e-10 1.51755e-12)
(-1.34123e-09 -5.24311e-10 -6.36774e-13)
(-1.43413e-09 -6.1741e-10 -2.96593e-12)
(-1.51735e-09 -7.24061e-10 -4.02149e-12)
(-1.58881e-09 -8.44167e-10 -4.72278e-13)
(-1.6519e-09 -9.73978e-10 1.36714e-11)
(-1.71652e-09 -1.08837e-09 4.14796e-11)
(-1.07347e-10 -2.30244e-11 6.50978e-13)
(-3.10224e-10 -6.72872e-11 1.89132e-12)
(-4.92573e-10 -1.09244e-10 3.03306e-12)
(-6.5906e-10 -1.50992e-10 4.11255e-12)
(-8.13596e-10 -1.94338e-10 5.15361e-12)
(-9.5946e-10 -2.40875e-10 6.17442e-12)
(-1.09942e-09 -2.92088e-10 7.20189e-12)
(-1.23586e-09 -3.49377e-10 8.31081e-12)
(-1.37086e-09 -4.14137e-10 9.69869e-12)
(-1.50634e-09 -4.87737e-10 1.18516e-11)
(-1.64421e-09 -5.71548e-10 1.58603e-11)
(-1.78669e-09 -6.6691e-10 2.40057e-11)
(-1.9365e-09 -7.75084e-10 4.07182e-11)
(-2.09662e-09 -8.97089e-10 7.36737e-11)
(-2.26639e-09 -1.03171e-09 1.32584e-10)
(-2.4189e-09 -1.15574e-09 2.10581e-10)
(-1.23365e-10 -2.48197e-11 8.05986e-13)
(-3.56533e-10 -7.25028e-11 2.35449e-12)
(-5.66111e-10 -1.17593e-10 3.81926e-12)
(-7.57489e-10 -1.62265e-10 5.27667e-12)
(-9.35245e-10 -2.08356e-10 6.80053e-12)
(-1.10332e-09 -2.57419e-10 8.48221e-12)
(-1.26523e-09 -3.10816e-10 1.04602e-11)
(-1.4243e-09 -3.69738e-10 1.2985e-11)
(-1.5839e-09 -4.35218e-10 1.65368e-11)
(-1.74791e-09 -5.08131e-10 2.2054e-11)
(-1.92123e-09 -5.8919e-10 3.13567e-11)
(-2.11087e-09 -6.78977e-10 4.7928e-11)
(-2.32732e-09 -7.78222e-10 7.82642e-11)
(-2.58557e-09 -8.88487e-10 1.33794e-10)
(-2.89788e-09 -1.01197e-09 2.30363e-10)
(-3.21379e-09 -1.13278e-09 3.60682e-10)
(-1.37707e-10 -2.56613e-11 9.57274e-13)
(-3.97995e-10 -7.4937e-11 2.80621e-12)
(-6.31906e-10 -1.21421e-10 4.58609e-12)
(-8.45421e-10 -1.67287e-10 6.40873e-12)
(-1.04366e-09 -2.14302e-10 8.39239e-12)
(-1.23108e-09 -2.63913e-10 1.06837e-11)
(-1.41177e-09 -3.17273e-10 1.34998e-11)
(-1.58971e-09 -3.75259e-10 1.71972e-11)
(-1.76918e-09 -4.38438e-10 2.23949e-11)
(-1.95526e-09 -5.07007e-10 3.01922e-11)
(-2.15466e-09 -5.80708e-10 4.25537e-11)
(-2.37709e-09 -6.588e-10 6.29835e-11)
(-2.63761e-09 -7.40302e-10 9.77355e-11)
(-2.96028e-09 -8.25264e-10 1.57941e-10)
(-3.37769e-09 -9.18e-10 2.61552e-10)
(-3.86476e-09 -1.01916e-09 4.12387e-10)
(-1.0527e-11 -2.76001e-12 3.46876e-14)
(-3.04037e-11 -8.08293e-12 9.41943e-14)
(-4.82231e-11 -1.3183e-11 1.28142e-13)
(-6.43963e-11 -1.83526e-11 1.20698e-13)
(-7.92309e-11 -2.38586e-11 4.57981e-14)
(-9.29148e-11 -2.9962e-11 -1.40786e-13)
(-1.05487e-10 -3.69335e-11 -5.13868e-13)
(-1.16788e-10 -4.50653e-11 -1.19907e-12)
(-1.26373e-10 -5.46787e-11 -2.40668e-12)
(-1.33398e-10 -6.61148e-11 -4.48705e-12)
(-1.3647e-10 -7.96982e-11 -8.01886e-12)
(-1.33506e-10 -9.56444e-11 -1.39399e-11)
(-1.21711e-10 -1.13837e-10 -2.37007e-11)
(-9.79555e-11 -1.33325e-10 -3.9276e-11)
(-6.06414e-11 -1.5117e-10 -6.21616e-11)
(-1.85875e-11 -1.60738e-10 -8.73597e-11)
(-3.13911e-11 -8.14271e-12 1.08614e-13)
(-9.06711e-11 -2.38436e-11 2.97556e-13)
(-1.43835e-10 -3.88819e-11 4.1413e-13)
(-1.92119e-10 -5.411e-11 4.15961e-13)
(-2.36455e-10 -7.03061e-11 2.3266e-13)
(-2.77437e-10 -8.82269e-11 -2.54994e-13)
(-3.15244e-10 -1.08653e-10 -1.24729e-12)
(-3.49506e-10 -1.32427e-10 -3.07747e-12)
(-3.79078e-10 -1.60475e-10 -6.29738e-12)
(-4.01731e-10 -1.93787e-10 -1.18125e-11)
(-4.13751e-10 -2.33339e-10 -2.10918e-11)
(-4.09634e-10 -2.79838e-10 -3.6449e-11)
(-3.82254e-10 -3.33178e-10 -6.12927e-11)
(-3.24609e-10 -3.91198e-10 -9.97934e-11)
(-2.3604e-10 -4.46846e-10 -1.53776e-10)
(-1.43195e-10 -4.82715e-10 -2.08947e-10)
(-5.18441e-11 -1.31643e-11 1.95487e-13)
(-1.49755e-10 -3.85403e-11 5.42592e-13)
(-2.3759e-10 -6.28126e-11 7.82171e-13)
(-3.17431e-10 -8.73407e-11 8.5821e-13)
(-3.90883e-10 -1.13354e-10 6.76529e-13)
(-4.59033e-10 -1.42035e-10 7.7823e-14)
(-5.2237e-10 -1.74587e-10 -1.20159e-12)
(-5.80598e-10 -2.1231e-10 -3.59327e-12)
(-6.32355e-10 -2.56612e-10 -7.79112e-12)
(-6.74772e-10 -3.09029e-10 -1.49e-11)
(-7.02958e-10 -3.71094e-10 -2.66376e-11)
(-7.09613e-10 -4.44052e-10 -4.55653e-11)
(-6.85537e-10 -5.2813e-10 -7.51405e-11)
(-6.22837e-10 -6.20909e-10 -1.18859e-10)
(-5.24656e-10 -7.13389e-10 -1.76226e-10)
(-4.28487e-10 -7.80056e-10 -2.29639e-10)
(-7.16151e-11 -1.7616e-11 2.99989e-13)
(-2.0688e-10 -5.15536e-11 8.44818e-13)
(-3.28271e-10 -8.39577e-11 1.26229e-12)
(-4.38733e-10 -1.16606e-10 1.50011e-12)
(-5.40598e-10 -1.51089e-10 1.46663e-12)
(-6.35564e-10 -1.88909e-10 1.00678e-12)
(-7.24642e-10 -2.3158e-10 -1.31848e-13)
(-8.07996e-10 -2.80687e-10 -2.34576e-12)
(-8.84662e-10 -3.37961e-10 -6.24284e-12)
(-9.52123e-10 -4.05258e-10 -1.27251e-11)
(-1.00572e-09 -4.84509e-10 -2.30811e-11)
(-1.03815e-09 -5.77395e-10 -3.90211e-11)
(-1.03963e-09 -6.84586e-10 -6.24857e-11)
(-1.00078e-09 -8.03755e-10 -9.47432e-11)
(-9.2211e-10 -9.24281e-10 -1.33678e-10)
(-8.37314e-10 -1.01305e-09 -1.67086e-10)
(-9.04376e-11 -2.13236e-11 4.22585e-13)
(-2.61278e-10 -6.23769e-11 1.20554e-12)
(-4.14657e-10 -1.01491e-10 1.85647e-12)
(-5.54379e-10 -1.40755e-10 2.34355e-12)
(-6.83537e-10 -1.8201e-10 2.60183e-12)
(-8.0454e-10 -2.26957e-10 2.51914e-12)
(-9.19111e-10 -2.77266e-10 1.91803e-12)
(-1.02822e-09 -3.34634e-10 5.41277e-13)
(-1.13191e-09 -4.00867e-10 -1.9583e-12)
(-1.22896e-09 -4.77894e-10 -5.99869e-12)
(-1.31641e-09 -5.67723e-10 -1.19866e-11)
(-1.38884e-09 -6.72252e-10 -2.01105e-11)
(-1.43751e-09 -7.92576e-10 -2.99428e-11)
(-1.45026e-09 -9.26921e-10 -3.9947e-11)
(-1.41537e-09 -1.06422e-09 -4.7611e-11)
(-1.34457e-09 -1.16635e-09 -5.17876e-11)
(-1.08049e-10 -2.41558e-11 5.59491e-13)
(-3.12187e-10 -7.06333e-11 1.61209e-12)
(-4.95515e-10 -1.14806e-10 2.54008e-12)
(-6.62662e-10 -1.58962e-10 3.34328e-12)
(-8.17478e-10 -2.05077e-10 3.99987e-12)
(-9.6311e-10 -2.5493e-10 4.46263e-12)
(-1.1021e-09 -3.10181e-10 4.66328e-12)
(-1.23643e-09 -3.72461e-10 4.52929e-12)
(-1.36753e-09 -4.43399e-10 4.03687e-12)
(-1.49615e-09 -5.24663e-10 3.32924e-12)
(-1.62223e-09 -6.17961e-10 2.96403e-12)
(-1.74427e-09 -7.24958e-10 4.36156e-12)
(-1.85791e-09 -8.46923e-10 1.04336e-11)
(-1.95223e-09 -9.83168e-10 2.57972e-11)
(-2.00276e-09 -1.12485e-09 5.38398e-11)
(-1.97909e-09 -1.23477e-09 8.39708e-11)
(-1.242e-10 -2.60296e-11 7.03491e-13)
(-3.58881e-10 -7.6077e-11 2.04214e-12)
(-5.69666e-10 -1.23523e-10 3.26954e-12)
(-7.61926e-10 -1.70742e-10 4.42251e-12)
(-9.40202e-10 -2.19733e-10 5.52711e-12)
(-1.10833e-09 -2.72235e-10 6.60459e-12)
(-1.26964e-09 -3.29778e-10 7.69326e-12)
(-1.4271e-09 -3.93745e-10 8.88987e-12)
(-1.58355e-09 -4.65376e-10 1.04395e-11)
(-1.74183e-09 -5.4577e-10 1.29129e-11)
(-1.9051e-09 -6.35861e-10 1.75409e-11)
(-2.07697e-09 -7.36413e-10 2.6794e-11)
(-2.26102e-09 -8.4794e-10 4.52236e-11)
(-2.45739e-09 -9.70022e-10 7.99212e-11)
(-2.64915e-09 -1.09676e-09 1.36871e-10)
(-2.77118e-09 -1.19739e-09 2.00289e-10)
(-1.38668e-10 -2.6903e-11 8.46083e-13)
(-4.00711e-10 -7.85961e-11 2.4686e-12)
(-6.36053e-10 -1.27488e-10 3.99363e-12)
(-8.50684e-10 -1.75928e-10 5.49389e-12)
(-1.0497e-09 -2.25864e-10 7.03669e-12)
(-1.2375e-09 -2.7889e-10 8.70096e-12)
(-1.41803e-09 -3.3632e-10 1.06026e-11)
(-1.59501e-09 -3.99181e-10 1.29467e-11)
(-1.77229e-09 -4.68184e-10 1.61208e-11)
(-1.95418e-09 -5.43645e-10 2.08637e-11)
(-2.14605e-09 -6.25376e-10 2.85536e-11)
(-2.35502e-09 -7.12532e-10 4.16759e-11)
(-2.59077e-09 -8.03489e-10 6.44619e-11)
(-2.86496e-09 -8.95719e-10 1.03298e-10)
(-3.18175e-09 -9.84704e-10 1.64243e-10)
(-3.48519e-09 -1.0539e-09 2.35107e-10)
(-1.05682e-11 -2.88147e-12 2.49438e-14)
(-3.05142e-11 -8.44256e-12 6.48552e-14)
(-4.83716e-11 -1.37843e-11 7.74005e-14)
(-6.45385e-11 -1.92194e-11 4.37181e-14)
(-7.93036e-11 -2.50359e-11 -6.61825e-14)
(-9.28264e-11 -3.15164e-11 -3.01966e-13)
(-1.05102e-10 -3.8954e-11 -7.46087e-13)
(-1.15906e-10 -4.76671e-11 -1.53502e-12)
(-1.247e-10 -5.80015e-11 -2.89293e-12)
(-1.30512e-10 -7.0318e-11 -5.1847e-12)
(-1.31787e-10 -8.49428e-11 -8.99436e-12)
(-1.26267e-10 -1.02036e-10 -1.52256e-11)
(-1.11007e-10 -1.21307e-10 -2.51804e-11)
(-8.28488e-11 -1.41406e-10 -4.04146e-11)
(-4.04065e-11 -1.58827e-10 -6.15975e-11)
(6.50747e-12 -1.67287e-10 -8.34955e-11)
(-3.15165e-11 -8.49994e-12 7.94882e-14)
(-9.10081e-11 -2.49041e-11 2.09601e-13)
(-1.44293e-10 -4.06523e-11 2.6209e-13)
(-1.92567e-10 -5.6661e-11 1.85097e-13)
(-2.36712e-10 -7.37689e-11 -1.03668e-13)
(-2.77237e-10 -9.27936e-11 -7.39973e-13)
(-3.14195e-10 -1.14583e-10 -1.9481e-12)
(-3.47023e-10 -1.40054e-10 -4.09626e-12)
(-3.74302e-10 -1.70202e-10 -7.78319e-12)
(-3.93409e-10 -2.06081e-10 -1.39723e-11)
(-4.0012e-10 -2.48659e-10 -2.41807e-11)
(-3.88322e-10 -2.9849e-10 -4.07026e-11)
(-3.50315e-10 -3.54955e-10 -6.6708e-11)
(-2.78859e-10 -4.14732e-10 -1.05621e-10)
(-1.74135e-10 -4.69108e-10 -1.5782e-10)
(-6.71039e-11 -5.01383e-10 -2.08608e-10)
(-5.20589e-11 -1.37414e-11 1.46947e-13)
(-1.50336e-10 -4.02477e-11 3.96287e-13)
(-2.38392e-10 -6.56627e-11 5.28975e-13)
(-3.18249e-10 -9.14431e-11 4.73235e-13)
(-3.91431e-10 -1.18913e-10 1.14589e-13)
(-4.58898e-10 -1.49351e-10 -7.34766e-13)
(-5.20939e-10 -1.84072e-10 -2.38197e-12)
(-5.76957e-10 -2.24475e-10 -5.32167e-12)
(-6.25132e-10 -2.72091e-10 -1.03431e-11)
(-6.61934e-10 -3.2853e-10 -1.86819e-11)
(-6.81532e-10 -3.95326e-10 -3.22246e-11)
(-6.75386e-10 -4.73463e-10 -5.37066e-11)
(-6.32843e-10 -5.62339e-10 -8.66757e-11)
(-5.44847e-10 -6.57673e-10 -1.34453e-10)
(-4.15471e-10 -7.47748e-10 -1.9592e-10)
(-2.91645e-10 -8.07825e-10 -2.52439e-10)
(-7.19257e-11 -1.83836e-11 2.32388e-13)
(-2.07726e-10 -5.38257e-11 6.40873e-13)
(-3.29461e-10 -8.77462e-11 9.09068e-13)
(-4.40001e-10 -1.22051e-10 9.62404e-13)
(-5.4158e-10 -1.5845e-10 6.80444e-13)
(-6.35737e-10 -1.98575e-10 -1.33758e-13)
(-7.23231e-10 -2.44063e-10 -1.79591e-12)
(-8.03833e-10 -2.96645e-10 -4.80174e-12)
(-8.75973e-10 -3.58177e-10 -9.91284e-12)
(-9.36194e-10 -4.30626e-10 -1.82707e-11)
(-9.78418e-10 -5.15888e-10 -3.15259e-11)
(-9.9321e-10 -6.15299e-10 -5.19285e-11)
(-9.67834e-10 -7.28414e-10 -8.21841e-11)
(-8.89523e-10 -8.50367e-10 -1.2453e-10)
(-7.58264e-10 -9.66698e-10 -1.77472e-10)
(-6.2345e-10 -1.04505e-09 -2.25612e-10)
(-9.08504e-11 -2.22466e-11 3.36527e-13)
(-2.62412e-10 -6.51099e-11 9.45626e-13)
(-4.1628e-10 -1.0604e-10 1.40642e-12)
(-5.56185e-10 -1.47278e-10 1.65815e-12)
(-6.85113e-10 -1.90803e-10 1.59907e-12)
(-8.05296e-10 -2.38466e-10 1.06186e-12)
(-9.18184e-10 -2.92066e-10 -2.14161e-13)
(-1.02429e-09 -3.53464e-10 -2.62236e-12)
(-1.12295e-09 -4.24599e-10 -6.72851e-12)
(-1.21179e-09 -5.07495e-10 -1.33113e-11)
(-1.28597e-09 -6.04125e-10 -2.33773e-11)
(-1.33697e-09 -7.15963e-10 -3.81166e-11)
(-1.35119e-09 -8.42806e-10 -5.8751e-11)
(-1.30977e-09 -9.79848e-10 -8.61798e-11)
(-1.19713e-09 -1.11126e-09 -1.19875e-10)
(-1.04701e-09 -1.19951e-09 -1.52219e-10)
(-1.08568e-10 -2.51952e-11 4.55928e-13)
(-3.13626e-10 -7.37034e-11 1.29982e-12)
(-4.97612e-10 -1.1991e-10 1.99942e-12)
(-6.65088e-10 -1.66263e-10 2.52078e-12)
(-8.19797e-10 -2.14892e-10 2.79735e-12)
(-9.64719e-10 -2.67716e-10 2.71704e-12)
(-1.10211e-09 -3.26552e-10 2.10886e-12)
(-1.2335e-09 -3.93164e-10 7.35367e-13)
(-1.35956e-09 -4.69318e-10 -1.70376e-12)
(-1.4798e-09 -5.56759e-10 -5.53452e-12)
(-1.59199e-09 -6.57124e-10 -1.10175e-11)
(-1.69091e-09 -7.71629e-10 -1.81886e-11)
(-1.76568e-09 -9.00192e-10 -2.67136e-11)
(-1.79543e-09 -1.03897e-09 -3.61161e-11)
(-1.74741e-09 -1.17402e-09 -4.69469e-11)
(-1.61658e-09 -1.2685e-09 -6.03561e-11)
(-1.24828e-10 -2.714e-11 5.84245e-13)
(-3.60632e-10 -7.93569e-11 1.68266e-12)
(-5.72261e-10 -1.28967e-10 2.64812e-12)
(-7.65028e-10 -1.78507e-10 3.47952e-12)
(-9.43379e-10 -2.3014e-10 4.15223e-12)
(-1.111e-09 -2.85733e-10 4.61636e-12)
(-1.27097e-09 -3.46962e-10 4.79585e-12)
(-1.42582e-09 -4.15335e-10 4.60294e-12)
(-1.57768e-09 -4.92195e-10 3.97351e-12)
(-1.72819e-09 -5.78678e-10 2.94539e-12)
(-1.87841e-09 -6.75608e-10 1.79988e-12)
(-2.02815e-09 -7.83259e-10 1.26474e-12)
(-2.1741e-09 -9.00824e-10 2.64116e-12)
(-2.30508e-09 -1.02488e-09 7.33603e-12)
(-2.39302e-09 -1.1447e-09 1.46136e-11)
(-2.39778e-09 -1.23014e-09 1.81466e-11)
(-1.39402e-10 -2.80403e-11 7.13428e-13)
(-4.02772e-10 -8.19576e-11 2.06872e-12)
(-6.39151e-10 -1.33054e-10 3.30449e-12)
(-8.54482e-10 -1.83855e-10 4.45156e-12)
(-1.0538e-09 -2.36442e-10 5.52619e-12)
(-1.24137e-09 -2.92551e-10 6.53095e-12)
(-1.42091e-09 -3.53613e-10 7.46571e-12)
(-1.59581e-09 -4.20755e-10 8.34802e-12)
(-1.76928e-09 -4.94751e-10 9.25495e-12)
(-1.94462e-09 -5.75905e-10 1.03952e-11)
(-2.12542e-09 -6.63841e-10 1.22156e-11)
(-2.31558e-09 -7.57174e-10 1.55008e-11)
(-2.51892e-09 -8.52946e-10 2.13019e-11)
(-2.73722e-09 -9.45779e-10 3.0218e-11)
(-2.96358e-09 -1.02667e-09 4.02249e-11)
(-3.16047e-09 -1.07944e-09 4.42288e-11)
(-1.05951e-11 -2.98843e-12 1.61383e-14)
(-3.05837e-11 -8.75966e-12 3.88595e-14)
(-4.8456e-11 -1.43129e-11 3.44072e-14)
(-6.45963e-11 -1.99795e-11 -1.75045e-14)
(-7.92753e-11 -2.60641e-11 -1.48291e-13)
(-9.26271e-11 -3.28652e-11 -4.09145e-13)
(-1.04612e-10 -4.06933e-11 -8.84125e-13)
(-1.14957e-10 -4.98808e-11 -1.71035e-12)
(-1.23069e-10 -6.0785e-11 -3.10933e-12)
(-1.27922e-10 -7.37664e-11 -5.43295e-12)
(-1.27938e-10 -8.9129e-11 -9.22534e-12)
(-1.20933e-10 -1.06977e-10 -1.52881e-11)
(-1.04259e-10 -1.26926e-10 -2.46927e-11)
(-7.54332e-11 -1.47569e-10 -3.85563e-11)
(-3.41696e-11 -1.65625e-10 -5.69871e-11)
(9.30505e-12 -1.75441e-10 -7.51672e-11)
(-3.15987e-11 -8.81538e-12 5.28043e-14)
(-9.1222e-11 -2.58363e-11 1.30919e-13)
(-1.44557e-10 -4.22081e-11 1.31473e-13)
(-1.92761e-10 -5.88974e-11 -1.75875e-15)
(-2.36661e-10 -7.67915e-11 -3.55963e-13)
(-2.76694e-10 -9.6757e-11 -1.07284e-12)
(-3.12809e-10 -1.19689e-10 -2.38377e-12)
(-3.44303e-10 -1.46545e-10 -4.6638e-12)
(-3.69582e-10 -1.78354e-10 -8.51421e-12)
(-3.85844e-10 -2.16162e-10 -1.48809e-11)
(-3.8875e-10 -2.60866e-10 -2.52082e-11)
(-3.72321e-10 -3.12822e-10 -4.15813e-11)
(-3.29582e-10 -3.71052e-10 -6.66795e-11)
(-2.55153e-10 -4.3183e-10 -1.02988e-10)
(-1.52485e-10 -4.86552e-10 -1.49718e-10)
(-5.42509e-11 -5.19833e-10 -1.93101e-10)
(-5.2202e-11 -1.42485e-11 1.01754e-13)
(-1.50712e-10 -4.17503e-11 2.62475e-13)
(-2.3887e-10 -6.81672e-11 3.05915e-13)
(-3.18637e-10 -9.50392e-11 1.51782e-13)
(-3.91455e-10 -1.23767e-10 -3.24336e-13)
(-4.58168e-10 -1.55707e-10 -1.32371e-12)
(-5.18897e-10 -1.92239e-10 -3.17145e-12)
(-5.72816e-10 -2.34837e-10 -6.3885e-12)
(-6.17804e-10 -2.85066e-10 -1.17957e-11)
(-6.4998e-10 -3.44527e-10 -2.06606e-11)
(-6.63197e-10 -4.14607e-10 -3.48721e-11)
(-6.48864e-10 -4.95916e-10 -5.70709e-11)
(-5.9707e-10 -5.87123e-10 -9.0472e-11)
(-5.01281e-10 -6.82909e-10 -1.37638e-10)
(-3.70919e-10 -7.70977e-10 -1.96328e-10)
(-2.57556e-10 -8.28399e-10 -2.48048e-10)
(-7.21365e-11 -1.90597e-11 1.67723e-13)
(-2.08287e-10 -5.58263e-11 4.49013e-13)
(-3.30197e-10 -9.10765e-11 5.87667e-13)
(-4.40664e-10 -1.26824e-10 4.95458e-13)
(-5.41814e-10 -1.64882e-10 3.49494e-14)
(-6.35041e-10 -2.06972e-10 -1.01466e-12)
(-7.20883e-10 -2.54827e-10 -3.00566e-12)
(-7.988e-10 -3.10254e-10 -6.49115e-12)
(-8.66791e-10 -3.75158e-10 -1.23223e-11)
(-9.20845e-10 -4.51469e-10 -2.17754e-11)
(-9.54242e-10 -5.40879e-10 -3.66923e-11)
(-9.57024e-10 -6.44174e-10 -5.95544e-11)
(-9.16655e-10 -7.59811e-10 -9.32539e-11)
(-8.2278e-10 -8.81231e-10 -1.39897e-10)
(-6.82486e-10 -9.92668e-10 -1.96959e-10)
(-5.54861e-10 -1.0643e-09 -2.46717e-10)
(-9.11363e-11 -2.30605e-11 2.51718e-13)
(-2.63182e-10 -6.75141e-11 6.93657e-13)
(-4.17326e-10 -1.10038e-10 9.8223e-13)
(-5.57214e-10 -1.52998e-10 1.0374e-12)
(-6.85717e-10 -1.98493e-10 7.31992e-13)
(-8.04899e-10 -2.48472e-10 -1.37433e-13)
(-9.15952e-10 -3.04848e-10 -1.89125e-12)
(-1.01903e-09 -3.69556e-10 -5.01864e-12)
(-1.1129e-09 -4.44585e-10 -1.02485e-11)
(-1.19446e-09 -5.31911e-10 -1.86306e-11)
(-1.25785e-09 -6.33253e-10 -3.16145e-11)
(-1.29338e-09 -7.49439e-10 -5.10752e-11)
(-1.28664e-09 -8.78948e-10 -7.91498e-11)
(-1.22024e-09 -1.01488e-09 -1.17479e-10)
(-1.08658e-09 -1.13958e-09 -1.64538e-10)
(-9.3521e-10 -1.21836e-09 -2.06832e-10)
(-1.08936e-10 -2.61097e-11 3.51028e-13)
(-3.14627e-10 -7.64073e-11 9.8728e-13)
(-4.99015e-10 -1.24398e-10 1.47169e-12)
(-6.66572e-10 -1.72671e-10 1.74449e-12)
(-8.20928e-10 -2.23478e-10 1.70604e-12)
(-9.64885e-10 -2.78854e-10 1.19463e-12)
(-1.10044e-09 -3.40712e-10 -4.03681e-14)
(-1.2287e-09 -4.10908e-10 -2.37176e-12)
(-1.34975e-09 -4.91238e-10 -6.3307e-12)
(-1.46221e-09 -5.83392e-10 -1.26433e-11)
(-1.56256e-09 -6.88745e-10 -2.22551e-11)
(-1.6438e-09 -8.07875e-10 -3.63321e-11)
(-1.69329e-09 -9.39428e-10 -5.6219e-11)
(-1.6902e-09 -1.07758e-09 -8.3217e-11)
(-1.60946e-09 -1.20674e-09 -1.17268e-10)
(-1.46676e-09 -1.29277e-09 -1.50163e-10)
(-1.25282e-10 -2.81184e-11 4.59904e-13)
(-3.61882e-10 -8.22463e-11 1.31194e-12)
(-5.74056e-10 -1.33756e-10 2.0211e-12)
(-7.67038e-10 -1.85331e-10 2.55488e-12)
(-9.45168e-10 -2.3925e-10 2.84963e-12)
(-1.11196e-09 -2.97505e-10 2.79477e-12)
(-1.27023e-09 -3.61861e-10 2.21925e-12)
(-1.42214e-09 -4.339e-10 8.74242e-13)
(-1.56918e-09 -5.14989e-10 -1.58084e-12)
(-1.7121e-09 -6.06199e-10 -5.58809e-12)
(-1.85058e-09 -7.08102e-10 -1.16964e-11)
(-1.98247e-09 -8.20424e-10 -2.05827e-11)
(-2.10218e-09 -9.41352e-10 -3.31371e-11)
(-2.1978e-09 -1.06616e-09 -5.06151e-11)
(-2.24832e-09 -1.18382e-09 -7.41092e-11)
(-2.23638e-09 -1.2674e-09 -9.90118e-11)
(-1.39943e-10 -2.90444e-11 5.71219e-13)
(-4.04276e-10 -8.49169e-11 1.64511e-12)
(-6.41356e-10 -1.37955e-10 2.5876e-12)
(-8.57062e-10 -1.90818e-10 3.39555e-12)
(-1.05633e-09 -2.45716e-10 4.03985e-12)
(-1.24329e-09 -3.04484e-10 4.45902e-12)
(-1.42142e-09 -3.6864e-10 4.55001e-12)
(-1.59374e-09 -4.3937e-10 4.16112e-12)
(-1.76294e-09 -5.17455e-10 3.08395e-12)
(-1.93149e-09 -6.03113e-10 1.04211e-12)
(-2.10173e-09 -6.95734e-10 -2.3406e-12)
(-2.27582e-09 -7.93452e-10 -7.63829e-12)
(-2.45561e-09 -8.92564e-10 -1.58833e-11)
(-2.64238e-09 -9.87081e-10 -2.90226e-11)
(-2.8362e-09 -1.06933e-09 -4.97135e-11)
(-3.02229e-09 -1.12874e-09 -7.52297e-11)
(-1.06114e-11 -3.07771e-12 9.12994e-15)
(-3.06233e-11 -9.0235e-12 1.89791e-14)
(-4.84958e-11 -1.47528e-11 4.09962e-15)
(-6.46005e-11 -2.06104e-11 -5.48718e-14)
(-7.91932e-11 -2.6914e-11 -1.87558e-13)
(-9.23883e-11 -3.39745e-11 -4.41735e-13)
(-1.04123e-10 -4.21121e-11 -8.9503e-13)
(-1.141e-10 -5.16678e-11 -1.67266e-12)
(-1.21713e-10 -6.30007e-11 -2.97358e-12)
(-1.25956e-10 -7.64643e-11 -5.10638e-12)
(-1.25358e-10 -9.23435e-11 -8.53195e-12)
(-1.18012e-10 -1.10718e-10 -1.38951e-11)
(-1.0184e-10 -1.31218e-10 -2.19911e-11)
(-7.53069e-11 -1.52607e-10 -3.35218e-11)
(-3.91384e-11 -1.72124e-10 -4.82384e-11)
(-2.58882e-12 -1.84557e-10 -6.21486e-11)
(-3.16488e-11 -9.0777e-12 3.12656e-14)
(-9.13456e-11 -2.66142e-11 6.94255e-14)
(-1.44686e-10 -4.35031e-11 3.6932e-14)
(-1.9279e-10 -6.07539e-11 -1.20502e-13)
(-2.36442e-10 -7.92915e-11 -4.85725e-13)
(-2.76021e-10 -1.00017e-10 -1.192e-12)
(-3.11406e-10 -1.23854e-10 -2.45499e-12)
(-3.41821e-10 -1.51785e-10 -4.62087e-12)
(-3.6562e-10 -1.84842e-10 -8.2361e-12)
(-3.8004e-10 -2.24046e-10 -1.41419e-11)
(-3.81013e-10 -2.7022e-10 -2.35808e-11)
(-3.63298e-10 -3.23604e-10 -3.82575e-11)
(-3.21491e-10 -3.83131e-10 -6.01837e-11)
(-2.52841e-10 -4.45245e-10 -9.08635e-11)
(-1.63569e-10 -5.02126e-10 -1.28746e-10)
(-8.33819e-11 -5.39059e-10 -1.62257e-10)
(-5.22908e-11 -1.46722e-11 6.40526e-14)
(-1.50935e-10 -4.3003e-11 1.54326e-13)
(-2.39117e-10 -7.02521e-11 1.37068e-13)
(-3.18742e-10 -9.80252e-11 -6.65527e-14)
(-3.9118e-10 -1.27783e-10 -5.76859e-13)
(-4.57186e-10 -1.60933e-10 -1.5864e-12)
(-5.16765e-10 -1.98908e-10 -3.40462e-12)
(-5.6896e-10 -2.43207e-10 -6.5229e-12)
(-6.11542e-10 -2.95403e-10 -1.17079e-11)
(-6.40634e-10 -3.57038e-10 -2.01217e-11)
(-6.50396e-10 -4.29354e-10 -3.34475e-11)
(-6.33219e-10 -5.12683e-10 -5.39272e-11)
(-5.81414e-10 -6.05322e-10 -8.40546e-11)
(-4.92389e-10 -7.017e-10 -1.25299e-10)
(-3.80009e-10 -7.89842e-10 -1.74526e-10)
(-2.9195e-10 -8.47744e-10 -2.15617e-10)
(-7.22707e-11 -1.96237e-11 1.11816e-13)
(-2.08631e-10 -5.74936e-11 2.87409e-13)
(-3.30605e-10 -9.38493e-11 3.3109e-13)
(-4.40916e-10 -1.3079e-10 1.53368e-13)
(-5.41603e-10 -1.70205e-10 -3.82605e-13)
(-6.33937e-10 -2.13886e-10 -1.49481e-12)
(-7.18302e-10 -2.63623e-10 -3.52999e-12)
(-7.93968e-10 -3.21263e-10 -7.03121e-12)
(-8.58749e-10 -3.88707e-10 -1.28314e-11)
(-9.08536e-10 -4.678e-10 -2.21684e-11)
(-9.36817e-10 -5.60009e-10 -3.67939e-11)
(-9.34583e-10 -6.65681e-10 -5.89747e-11)
(-8.91762e-10 -7.8259e-10 -9.11176e-11)
(-8.02879e-10 -9.03446e-10 -1.3439e-10)
(-6.81461e-10 -1.0124e-09 -1.85066e-10)
(-5.8389e-10 -1.08136e-09 -2.2646e-10)
(-9.13238e-11 -2.37388e-11 1.75579e-13)
(-2.63672e-10 -6.95206e-11 4.71878e-13)
(-4.17942e-10 -1.1337e-10 6.24907e-13)
(-5.57699e-10 -1.57755e-10 5.48435e-13)
(-6.85711e-10 -2.04861e-10 1.09638e-13)
(-8.039e-10 -2.56722e-10 -9.03076e-13)
(-9.13272e-10 -3.15309e-10 -2.82209e-12)
(-1.01374e-09 -3.82604e-10 -6.16071e-12)
(-1.1038e-09 -4.60582e-10 -1.16901e-11)
(-1.18012e-09 -5.51118e-10 -2.05318e-11)
(-1.23684e-09 -6.55663e-10 -3.42373e-11)
(-1.26497e-09 -7.74516e-10 -5.47724e-11)
(-1.25238e-09 -9.05309e-10 -8.41884e-11)
(-1.18695e-09 -1.04013e-09 -1.23455e-10)
(-1.06941e-09 -1.16098e-09 -1.693e-10)
(-9.49358e-10 -1.23522e-09 -2.0692e-10)
(-1.09183e-10 -2.68738e-11 2.53139e-13)
(-3.15287e-10 -7.8663e-11 7.0085e-13)
(-4.99888e-10 -1.28139e-10 1.00459e-12)
(-6.67376e-10 -1.78002e-10 1.09295e-12)
(-8.21272e-10 -2.30598e-10 8.52368e-13)
(-9.64229e-10 -2.88046e-10 1.00972e-13)
(-1.09803e-09 -3.52329e-10 -1.44579e-12)
(-1.22353e-09 -4.25336e-10 -4.22052e-12)
(-1.34046e-09 -5.08858e-10 -8.86236e-12)
(-1.44708e-09 -6.04476e-10 -1.62836e-11)
(-1.53967e-09 -7.13306e-10 -2.77275e-11)
(-1.61158e-09 -8.35435e-10 -4.47648e-11)
(-1.65198e-09 -9.68761e-10 -6.90798e-11)
(-1.64508e-09 -1.10665e-09 -1.01638e-10)
(-1.57498e-09 -1.23333e-09 -1.40162e-10)
(-1.46025e-09 -1.31625e-09 -1.72627e-10)
(-1.25594e-10 -2.89355e-11 3.3997e-13)
(-3.6273e-10 -8.46574e-11 9.59549e-13)
(-5.75225e-10 -1.3775e-10 1.44168e-12)
(-7.68234e-10 -1.91008e-10 1.73656e-12)
(-9.45992e-10 -2.46815e-10 1.75815e-12)
(-1.11187e-09 -3.07237e-10 1.36532e-12)
(-1.26846e-09 -3.74109e-10 3.3476e-13)
(-1.41765e-09 -4.49048e-10 -1.6715e-12)
(-1.56058e-09 -5.33408e-10 -5.14961e-12)
(-1.69757e-09 -6.28162e-10 -1.08064e-11)
(-1.82794e-09 -7.33672e-10 -1.96161e-11)
(-1.94962e-09 -8.49302e-10 -3.28558e-11)
(-2.05844e-09 -9.72836e-10 -5.20285e-11)
(-2.147e-09 -1.09949e-09 -7.83257e-11)
(-2.20346e-09 -1.21923e-09 -1.10507e-10)
(-2.21501e-09 -1.30644e-09 -1.38595e-10)
(-1.40324e-10 -2.98816e-11 4.30149e-13)
(-4.05322e-10 -8.73895e-11 1.22914e-12)
(-6.42846e-10 -1.42043e-10 1.90063e-12)
(-8.58702e-10 -1.96621e-10 2.418e-12)
(-1.05773e-09 -2.53422e-10 2.72525e-12)
(-1.24393e-09 -3.14365e-10 2.7211e-12)
(-1.42057e-09 -3.81024e-10 2.24032e-12)
(-1.59042e-09 -4.54615e-10 1.0276e-12)
(-1.75581e-09 -5.35901e-10 -1.29912e-12)
(-1.9188e-09 -6.25018e-10 -5.30103e-12)
(-2.08135e-09 -7.21182e-10 -1.17924e-11)
(-2.24562e-09 -8.22298e-10 -2.19373e-11)
(-2.41463e-09 -9.24574e-10 -3.73164e-11)
(-2.59383e-09 -1.0227e-09 -5.96813e-11)
(-2.79252e-09 -1.11163e-09 -8.92453e-11)
(-3.003e-09 -1.18381e-09 -1.17977e-10)
(-1.06203e-11 -3.14676e-12 4.32697e-15)
(-3.06432e-11 -9.22801e-12 6.35402e-15)
(-4.85087e-11 -1.50927e-11 -1.14502e-14)
(-6.45785e-11 -2.10966e-11 -6.51788e-14)
(-7.90972e-11 -2.75667e-11 -1.79186e-13)
(-9.21667e-11 -3.48216e-11 -3.92466e-13)
(-1.03712e-10 -4.31884e-11 -7.67916e-13)
(-1.13431e-10 -5.30113e-11 -1.40598e-12)
(-1.20734e-10 -6.46488e-11 -2.46393e-12)
(-1.24683e-10 -7.84483e-11 -4.18049e-12)
(-1.23974e-10 -9.46862e-11 -6.90072e-12)
(-1.17043e-10 -1.13451e-10 -1.10839e-11)
(-1.02393e-10 -1.34446e-10 -1.72513e-11)
(-7.92584e-11 -1.56687e-10 -2.57759e-11)
(-4.88468e-11 -1.77935e-10 -3.62786e-11)
(-1.88062e-11 -1.93187e-10 -4.58563e-11)
(-3.16767e-11 -9.28142e-12 1.59886e-14)
(-9.14088e-11 -2.72155e-11 2.883e-14)
(-1.44732e-10 -4.45034e-11 -1.51786e-14)
(-1.92737e-10 -6.21844e-11 -1.61296e-13)
(-2.36175e-10 -8.12106e-11 -4.78014e-13)
(-2.75388e-10 -1.02506e-10 -1.07473e-12)
(-3.10218e-10 -1.27015e-10 -2.1273e-12)
(-3.3987e-10 -1.55726e-10 -3.91538e-12)
(-3.62739e-10 -1.8967e-10 -6.87463e-12)
(-3.7624e-10 -2.2984e-10 -1.16619e-11)
(-3.76768e-10 -2.77023e-10 -1.92165e-11)
(-3.60031e-10 -3.31433e-10 -3.07633e-11)
(-3.22242e-10 -3.92097e-10 -4.76188e-11)
(-2.62756e-10 -4.55867e-10 -7.04993e-11)
(-1.88872e-10 -5.15749e-10 -9.77002e-11)
(-1.25262e-10 -5.57063e-10 -1.20722e-10)
(-5.23415e-11 -1.5e-11 3.59727e-14)
(-1.51054e-10 -4.3972e-11 7.80815e-14)
(-2.39219e-10 -7.18625e-11 3.33659e-14)
(-3.18696e-10 -1.00326e-10 -1.64707e-13)
(-3.90803e-10 -1.30866e-10 -6.1671e-13)
(-4.56233e-10 -1.64928e-10 -1.48266e-12)
(-5.14928e-10 -2.03969e-10 -3.01817e-12)
(-5.6589e-10 -2.49506e-10 -5.62653e-12)
(-6.06926e-10 -3.03097e-10 -9.92966e-12)
(-6.34397e-10 -3.66235e-10 -1.68534e-11)
(-6.43109e-10 -4.4006e-10 -2.76978e-11)
(-6.26826e-10 -5.24777e-10 -4.41055e-11)
(-5.80257e-10 -6.18605e-10 -6.77132e-11)
(-5.03966e-10 -7.16127e-10 -9.90504e-11)
(-4.13338e-10 -8.05851e-10 -1.34926e-10)
(-3.48193e-10 -8.65783e-10 -1.6328e-10)
(-7.23502e-11 -2.00603e-11 6.76302e-14)
(-2.08824e-10 -5.87843e-11 1.64936e-13)
(-3.30798e-10 -9.59917e-11 1.55134e-13)
(-4.40937e-10 -1.33847e-10 -3.88522e-14)
(-5.41211e-10 -1.74294e-10 -5.33577e-13)
(-6.32808e-10 -2.19173e-10 -1.51381e-12)
(-7.16021e-10 -2.70307e-10 -3.2723e-12)
(-7.90047e-10 -3.29559e-10 -6.26626e-12)
(-8.52707e-10 -3.98808e-10 -1.11916e-11)
(-9.00119e-10 -4.79822e-10 -1.90682e-11)
(-9.26468e-10 -5.73905e-10 -3.13003e-11)
(-9.24317e-10 -6.8115e-10 -4.96083e-11)
(-8.86496e-10 -7.99038e-10 -7.55935e-11)
(-8.11627e-10 -9.20115e-10 -1.09471e-10)
(-7.15814e-10 -1.02877e-09 -1.47283e-10)
(-6.46643e-10 -1.09757e-09 -1.7611e-10)
(-9.14381e-11 -2.42646e-11 1.1187e-13)
(-2.63961e-10 -7.1073e-11 2.923e-13)
(-4.18268e-10 -1.15944e-10 3.55388e-13)
(-5.57857e-10 -1.61422e-10 2.24641e-13)
(-6.85416e-10 -2.09758e-10 -2.16642e-13)
(-8.02769e-10 -2.63036e-10 -1.15289e-12)
(-9.10805e-10 -3.23271e-10 -2.87466e-12)
(-1.00933e-09 -3.92455e-10 -5.83034e-12)
(-1.0968e-09 -4.72541e-10 -1.06939e-11)
(-1.17003e-09 -5.65307e-10 -1.84385e-11)
(-1.22381e-09 -6.72008e-10 -3.03816e-11)
(-1.25068e-09 -7.92623e-10 -4.81038e-11)
(-1.2416e-09 -9.24366e-10 -7.30138e-11)
(-1.18921e-09 -1.05896e-09 -1.05129e-10)
(-1.09818e-09 -1.17838e-09 -1.4046e-10)
(-1.01021e-09 -1.25091e-09 -1.66843e-10)
(-1.0934e-10 -2.74655e-11 1.67218e-13)
(-3.15693e-10 -8.04094e-11 4.55195e-13)
(-5.00387e-10 -1.31032e-10 6.24316e-13)
(-6.67743e-10 -1.82114e-10 6.07521e-13)