/*--------------------------------*- C++ -*----------------------------------*\
| =========                 |                                                 |
| \\      /  F ield         | foam-extend: Open Source CFD                    |
|  \\    /   O peration     | Version:     3.1                                |
|   \\  /    A nd           | Web:         http://www.extend-project.de       |
|    \\/     M anipulation  |                                                 |
\*---------------------------------------------------------------------------*/
FoamFile
{
    version     2.0;
    format      ascii;
    class       surfaceScalarField;
    location    "3.4";
    object      meshPhi;
}
// * * * * * * * * * * * * * * * * * * * * * * * * * * * * * * * * * * * * * //

dimensions      [0 3 -1 0 0 0 0];

internalField   nonuniform List<scalar> 
41600
(
-1.89393e-09
-3.40198e-10
-1.87691e-11
1.9487e-11
-3.64813e-09
-1.0072e-09
-5.58111e-11
5.79905e-11
-5.24958e-09
-1.65549e-09
-9.24423e-11
9.62027e-11
-6.74136e-09
-2.31051e-09
-1.30338e-10
1.35961e-10
-8.15947e-09
-3.0063e-09
-1.71522e-10
1.79496e-10
-9.53329e-09
-3.77674e-09
-2.17864e-10
2.28938e-10
-1.0885e-08
-4.65806e-09
-2.71198e-10
2.86478e-10
-1.22279e-08
-5.69131e-09
-3.33509e-10
3.5459e-10
-1.35624e-08
-6.92486e-09
-4.07298e-10
4.36468e-10
-1.487e-08
-8.41656e-09
-4.96436e-10
5.3695e-10
-1.61063e-08
-1.02355e-08
-6.08151e-10
6.64587e-10
-1.71942e-08
-1.24618e-08
-7.57393e-10
8.36057e-10
-1.80278e-08
-1.5181e-08
-9.75221e-10
1.08457e-09
-1.85044e-08
-1.8448e-08
-1.31898e-09
1.47082e-09
-1.85699e-08
-2.20503e-08
-1.84196e-09
2.06546e-09
-3.05794e-08
-3.41762e-09
5.52501e-09
-5.6484e-09
-6.64513e-10
-5.61604e-11
5.8298e-11
-1.0879e-08
-1.96687e-09
-1.66926e-10
1.73413e-10
-1.56526e-08
-3.23105e-09
-2.76357e-10
2.87544e-10
-2.00978e-08
-4.50557e-09
-3.89496e-10
4.06213e-10
-2.43218e-08
-5.85544e-09
-5.12378e-10
5.36063e-10
-2.84128e-08
-7.34469e-09
-6.50507e-10
6.83369e-10
-3.24388e-08
-9.04093e-09
-8.09173e-10
8.54462e-10
-3.64422e-08
-1.10198e-08
-9.93844e-10
1.05625e-09
-4.04302e-08
-1.33687e-08
-1.21089e-09
1.29713e-09
-4.43569e-08
-1.61898e-08
-1.46931e-09
1.58895e-09
-4.81018e-08
-1.95987e-08
-1.78472e-09
1.95123e-09
-5.14465e-08
-2.37166e-08
-2.18802e-09
2.41997e-09
-5.40756e-08
-2.864e-08
-2.74103e-09
3.06322e-09
-5.56494e-08
-3.43451e-08
-3.55216e-09
3.99767e-09
-5.59446e-08
-4.03027e-08
-4.70767e-09
5.34252e-09
-4.92973e-08
-7.35111e-09
1.08436e-08
-9.30736e-09
-9.59316e-10
-9.27333e-11
9.62362e-11
-1.79227e-08
-2.83837e-09
-2.7548e-10
2.86106e-10
-2.57808e-08
-4.65893e-09
-4.55781e-10
4.74088e-10
-3.30927e-08
-6.48859e-09
-6.41989e-10
6.69309e-10
-4.00356e-08
-8.41812e-09
-8.43992e-10
8.82635e-10
-4.67563e-08
-1.05354e-08
-1.07067e-09
1.12418e-09
-5.33713e-08
-1.29316e-08
-1.33029e-09
1.40387e-09
-5.99602e-08
-1.57064e-08
-1.63083e-09
1.73196e-09
-6.65519e-08
-1.89723e-08
-1.98037e-09
2.11978e-09
-7.30995e-08
-2.28559e-08
-2.38814e-09
2.58109e-09
-7.9444e-08
-2.74931e-08
-2.86706e-09
3.13507e-09
-8.5272e-08
-3.30087e-08
-3.43911e-09
3.81196e-09
-9.00934e-08
-3.94608e-08
-4.14398e-09
4.66142e-09
-9.33155e-08
-4.67027e-08
-5.04224e-09
5.75532e-09
-9.44612e-08
-5.39663e-08
-6.1516e-09
7.13752e-09
-6.43151e-08
-7.74968e-09
1.04958e-08
-1.28141e-08
-1.21273e-09
-1.27738e-10
1.32517e-10
-2.46691e-08
-3.58646e-09
-3.79238e-10
3.93722e-10
-3.54725e-08
-5.88108e-09
-6.26979e-10
6.51901e-10
-4.55141e-08
-8.17816e-09
-8.82479e-10
9.19598e-10
-5.50374e-08
-1.05875e-08
-1.15923e-09
1.21161e-09
-6.42472e-08
-1.32133e-08
-1.46918e-09
1.5415e-09
-7.33113e-08
-1.61607e-08
-1.82316e-09
1.92226e-09
-8.23558e-08
-1.95417e-08
-2.23088e-09
2.3666e-09
-9.14507e-08
-2.34784e-08
-2.7007e-09
2.88706e-09
-1.00584e-07
-2.81036e-08
-3.23902e-09
3.49597e-09
-1.09615e-07
-3.35524e-08
-3.84944e-09
4.20517e-09
-1.18218e-07
-3.99361e-08
-4.53165e-09
5.02543e-09
-1.25815e-07
-4.72751e-08
-5.27815e-09
5.9631e-09
-1.31601e-07
-5.53441e-08
-6.06616e-09
7.01062e-09
-1.34731e-07
-6.32755e-08
-6.83123e-09
8.12335e-09
-7.40223e-08
-7.48879e-09
1.01962e-08
-1.61158e-08
-1.41538e-09
-1.60489e-10
1.66422e-10
-3.10156e-08
-4.18362e-09
-4.76168e-10
4.94136e-10
-4.45785e-08
-6.85276e-09
-7.86599e-10
8.17464e-10
-5.71661e-08
-9.51288e-09
-1.10623e-09
1.15209e-09
-6.90834e-08
-1.22855e-08
-1.45185e-09
1.51637e-09
-8.05897e-08
-1.52832e-08
-1.83825e-09
1.92699e-09
-9.19047e-08
-1.86157e-08
-2.27855e-09
2.39961e-09
-1.03207e-07
-2.23954e-08
-2.78413e-09
2.94908e-09
-1.14625e-07
-2.67407e-08
-3.36372e-09
3.58898e-09
-1.26215e-07
-3.17746e-08
-4.02143e-09
4.33029e-09
-1.37918e-07
-3.76174e-08
-4.75315e-09
5.17854e-09
-1.49487e-07
-4.43632e-08
-5.54026e-09
6.12857e-09
-1.60385e-07
-5.20173e-08
-6.33684e-09
7.15264e-09
-1.69667e-07
-6.03422e-08
-7.05309e-09
8.18329e-09
-1.75925e-07
-6.84681e-08
-7.5543e-09
9.11353e-09
-7.91535e-08
-7.60904e-09
1.03996e-08
-1.91655e-08
-1.56071e-09
-1.90392e-10
1.97335e-10
-3.68716e-08
-4.6107e-09
-5.64526e-10
5.85531e-10
-5.29672e-08
-7.54364e-09
-9.31762e-10
9.67773e-10
-6.78765e-08
-1.04528e-08
-1.30917e-09
1.36253e-09
-8.19579e-08
-1.34645e-08
-1.71654e-09
1.79131e-09
-9.55192e-08
-1.66921e-08
-2.1712e-09
2.27358e-09
-1.08827e-07
-2.02414e-08
-2.68856e-09
2.82744e-09
-1.22113e-07
-2.42156e-08
-3.28198e-09
3.46999e-09
-1.35569e-07
-2.8717e-08
-3.96185e-09
4.21675e-09
-1.49336e-07
-3.38466e-08
-4.7332e-09
5.07999e-09
-1.63477e-07
-3.96981e-08
-5.59135e-09
6.06533e-09
-1.77909e-07
-4.63443e-08
-6.51447e-09
7.16574e-09
-1.92274e-07
-5.37961e-08
-7.44708e-09
8.34769e-09
-2.05659e-07
-6.18816e-08
-8.27256e-09
9.52653e-09
-2.1605e-07
-6.98669e-08
-8.78988e-09
1.05562e-08
-8.0392e-08
-8.80549e-09
1.19971e-08
-2.19237e-08
-1.64495e-09
-2.16965e-10
2.24757e-10
-4.21616e-08
-4.85704e-09
-6.42889e-10
6.66438e-10
-6.05293e-08
-7.93779e-09
-1.06013e-09
1.10041e-09
-7.75027e-08
-1.0979e-08
-1.48801e-09
1.54749e-09
-9.34831e-08
-1.41057e-08
-1.94888e-09
2.03188e-09
-1.08816e-07
-1.74258e-08
-2.46233e-09
2.57533e-09
-1.23807e-07
-2.10347e-08
-3.04591e-09
3.19818e-09
-1.38727e-07
-2.50187e-08
-3.71532e-09
3.91986e-09
-1.53822e-07
-2.94555e-08
-4.48384e-09
4.75865e-09
-1.69311e-07
-3.44129e-08
-5.36063e-09
5.73072e-09
-1.85371e-07
-3.99446e-08
-6.34775e-09
6.84798e-09
-2.02104e-07
-4.60847e-08
-7.43538e-09
8.11503e-09
-2.1942e-07
-5.28358e-08
-8.5894e-09
9.5202e-09
-2.36705e-07
-6.01257e-08
-9.71984e-09
1.10115e-08
-2.51791e-07
-6.75679e-08
-1.06052e-08
1.24606e-08
-7.84377e-08
-1.14506e-08
1.52733e-08
-2.43584e-08
-2.39836e-10
2.48311e-10
-1.66696e-09
-4.68244e-08
-7.10178e-10
7.35755e-10
-4.91985e-09
-6.7178e-08
-1.16994e-09
1.21358e-09
-8.0324e-09
-8.59337e-08
-1.64023e-09
1.70444e-09
-1.10914e-08
-1.03523e-07
-2.14543e-09
2.23457e-09
-1.42155e-08
-1.20317e-07
-2.70692e-09
2.82752e-09
-1.75028e-08
-1.36643e-07
-3.34403e-09
3.50532e-09
-2.10344e-08
-1.52795e-07
-4.07462e-09
4.28929e-09
-2.48757e-08
-1.69047e-07
-4.915e-09
5.20034e-09
-2.90747e-08
-1.85655e-07
-5.87937e-09
6.25882e-09
-3.36589e-08
-2.02857e-07
-6.97897e-09
7.48433e-09
-3.86287e-08
-2.20846e-07
-8.22076e-09
8.89552e-09
-4.39472e-08
-2.39677e-07
-9.60181e-09
1.0507e-08
-4.95248e-08
-2.58938e-07
-1.10851e-08
1.23124e-08
-5.51726e-08
-2.76779e-07
-1.25253e-08
1.42538e-08
-6.04329e-08
-1.58391e-08
2.0372e-08
-7.08984e-08
-1.91354e-09
-3.5329e-10
-1.73821e-11
-3.68565e-09
-1.04636e-09
-5.16476e-11
-5.30322e-09
-1.7212e-09
-8.54111e-11
-6.80982e-09
-2.40507e-09
-1.20127e-10
-8.24171e-09
-3.13426e-09
-1.57535e-10
-9.62804e-09
-3.94499e-09
-1.99151e-10
-1.09903e-08
-4.87618e-09
-2.46335e-10
-1.234e-08
-5.9721e-09
-3.00367e-10
-1.3675e-08
-7.28505e-09
-3.6263e-10
-1.49735e-08
-8.87779e-09
-4.35089e-10
-1.61869e-08
-1.08254e-08
-5.21432e-10
-1.72367e-08
-1.32149e-08
-6.29381e-10
-1.80235e-08
-1.61374e-08
-7.74074e-10
-1.84714e-08
-1.96439e-08
-9.78059e-10
-1.85911e-08
-2.34993e-08
-1.24458e-09
-3.03557e-08
-1.787e-09
-5.70676e-09
-6.89999e-10
-5.202e-11
-1.09906e-08
-2.04307e-09
-1.54503e-10
-1.58122e-08
-3.35879e-09
-2.5539e-10
-2.03015e-08
-4.68912e-09
-3.59069e-10
-2.45666e-08
-6.10329e-09
-4.70732e-10
-2.86951e-08
-7.66975e-09
-5.94859e-10
-3.27527e-08
-9.46109e-09
-7.35359e-10
-3.67775e-08
-1.15587e-08
-8.95686e-10
-4.07688e-08
-1.4057e-08
-1.07909e-09
-4.46704e-08
-1.70663e-08
-1.28941e-09
-4.83484e-08
-2.07117e-08
-1.53307e-09
-5.15751e-08
-2.51232e-08
-1.82339e-09
-5.4043e-08
-3.03994e-08
-2.18624e-09
-5.54646e-08
-3.64975e-08
-2.65794e-09
-5.57747e-08
-4.2849e-08
-3.23256e-09
-5.01693e-08
-4.07076e-09
-9.40307e-09
-9.95911e-10
-8.59218e-11
-1.81058e-08
-2.94771e-09
-2.55055e-10
-2.60424e-08
-4.84197e-09
-4.21341e-10
-3.34267e-08
-6.75106e-09
-5.92074e-10
-4.04371e-08
-8.77152e-09
-7.75783e-10
-4.722e-08
-1.09973e-08
-9.79721e-10
-5.38885e-08
-1.3526e-08
-1.21e-09
-6.05153e-08
-1.64649e-08
-1.47153e-09
-6.71177e-08
-1.99349e-08
-1.76775e-09
-7.36311e-08
-2.40726e-08
-2.10061e-09
-7.98732e-08
-2.90236e-08
-2.471e-09
-8.55058e-08
-3.49194e-08
-2.88023e-09
-9.00275e-08
-4.18131e-08
-3.33149e-09
-9.28814e-08
-4.95232e-08
-3.82469e-09
-9.37721e-08
-5.72354e-08
-4.32366e-09
-6.54803e-08
-4.61907e-09
-1.29449e-08
-1.25867e-09
-1.184e-10
-2.49191e-08
-3.72362e-09
-3.51257e-10
-3.58296e-08
-6.11029e-09
-5.79859e-10
-4.59699e-08
-8.50597e-09
-8.14298e-10
-5.55858e-08
-1.10274e-08
-1.06626e-09
-6.48815e-08
-1.37856e-08
-1.34558e-09
-7.40213e-08
-1.68934e-08
-1.66029e-09
-8.31229e-08
-2.04707e-08
-2.01627e-09
-9.2242e-08
-2.46485e-08
-2.41626e-09
-1.01344e-07
-2.95693e-08
-2.85821e-09
-1.10255e-07
-3.53768e-08
-3.33295e-09
-1.18607e-07
-4.21863e-08
-3.82067e-09
-1.25781e-07
-5.0007e-08
-4.28554e-09
-1.30965e-07
-5.8571e-08
-4.67144e-09
-1.3346e-07
-6.69607e-08
-4.91296e-09
-7.54074e-08
-4.66452e-09
-1.62784e-08
-1.46858e-09
-1.48822e-10
-3.13263e-08
-4.34228e-09
-4.41241e-10
-4.50221e-08
-7.11739e-09
-7.27867e-10
-5.77323e-08
-9.89025e-09
-1.02141e-09
-6.97648e-08
-1.279e-08
-1.33651e-09
-8.13792e-08
-1.59364e-08
-1.68541e-09
-9.27915e-08
-1.94468e-08
-2.07805e-09
-1.04172e-07
-2.34416e-08
-2.52139e-09
-1.15635e-07
-2.8047e-08
-3.01797e-09
-1.27209e-07
-3.33945e-08
-3.56289e-09
-1.38799e-07
-3.96111e-08
-4.13908e-09
-1.50103e-07
-4.67924e-08
-4.70977e-09
-1.60512e-07
-5.49307e-08
-5.20662e-09
-1.69014e-07
-6.37439e-08
-5.52448e-09
-1.7425e-07
-7.23036e-08
-5.56363e-09
-8.05617e-08
-4.92652e-09
-1.93562e-08
-1.61886e-09
-1.76639e-10
-3.72359e-08
-4.78397e-09
-5.23395e-10
-5.34868e-08
-7.83207e-09
-8.62713e-10
-6.85393e-08
-1.08629e-08
-1.20969e-09
-8.27556e-08
-1.40105e-08
-1.58165e-09
-9.64443e-08
-1.73954e-08
-1.99315e-09
-1.0987e-07
-2.11305e-08
-2.4561e-09
-1.23255e-07
-2.53259e-08
-2.97919e-09
-1.36778e-07
-3.00904e-08
-3.56625e-09
-1.50557e-07
-3.55311e-08
-4.213e-09
-1.64616e-07
-4.17459e-08
-4.90149e-09
-1.78814e-07
-4.88073e-08
-5.59126e-09
-1.92703e-07
-5.67145e-08
-6.20358e-09
-2.05247e-07
-6.52563e-08
-6.60695e-09
-2.14312e-07
-7.36324e-08
-6.64957e-09
-8.16567e-08
-5.92846e-09
-2.21384e-08
-1.70569e-09
-2.01402e-10
-4.25711e-08
-5.03789e-09
-5.96393e-10
-6.11128e-08
-8.23824e-09
-9.82216e-10
-7.82463e-08
-1.1405e-08
-1.37605e-09
-9.43775e-08
-1.46705e-08
-1.79757e-09
-1.09854e-07
-1.81495e-08
-2.26346e-09
-1.24978e-07
-2.19436e-08
-2.78766e-09
-1.40017e-07
-2.61445e-08
-3.3811e-09
-1.55203e-07
-3.08343e-08
-4.05046e-09
-1.70733e-07
-3.60842e-08
-4.79559e-09
-1.86754e-07
-4.19488e-08
-5.60496e-09
-2.03314e-07
-4.84591e-08
-6.44868e-09
-2.20236e-07
-5.56068e-08
-7.26368e-09
-2.36762e-07
-6.32929e-08
-7.92948e-09
-2.50427e-07
-7.10837e-08
-8.254e-09
-7.92832e-08
-7.9957e-09
-2.45924e-08
-2.22761e-10
-1.72799e-09
-4.72704e-08
-6.59218e-10
-5.10139e-09
-6.78128e-08
-1.08471e-09
-8.3335e-09
-8.67415e-08
-1.5181e-09
-1.15171e-08
-1.04493e-07
-1.98101e-09
-1.47778e-08
-1.21442e-07
-2.49184e-09
-1.82198e-08
-1.37913e-07
-3.06637e-09
-2.19292e-08
-1.54197e-07
-3.71781e-09
-2.59751e-08
-1.70557e-07
-4.45621e-09
-3.04081e-08
-1.87233e-07
-5.28695e-09
-3.52559e-08
-2.04434e-07
-6.20828e-09
-4.05158e-08
-2.22311e-07
-7.20728e-09
-4.61421e-08
-2.40845e-07
-8.25026e-09
-5.2027e-08
-2.59484e-07
-9.2595e-09
-5.79434e-08
-2.76018e-07
-1.00862e-08
-6.33605e-08
-1.1468e-08
-7.07844e-08
-1.92957e-09
-3.64826e-10
-1.5403e-11
-3.71624e-09
-1.08079e-09
-4.57332e-11
-5.34655e-09
-1.7787e-09
-7.55119e-11
-6.86422e-09
-2.48714e-09
-1.05939e-10
-8.30528e-09
-3.24392e-09
-1.38422e-10
-9.69823e-09
-4.08667e-09
-1.74096e-10
-1.10632e-08
-5.0555e-09
-2.13813e-10
-1.24095e-08
-6.19553e-09
-2.5811e-10
-1.3732e-08
-7.5591e-09
-3.07183e-10
-1.50047e-08
-9.20721e-09
-3.60945e-10
-1.61755e-08
-1.12092e-08
-4.19308e-10
-1.71642e-08
-1.3638e-08
-4.82762e-10
-1.7877e-08
-1.65522e-08
-5.52833e-10
-1.82541e-08
-1.99385e-08
-6.30329e-10
-1.83338e-08
-2.34899e-08
-7.06531e-10
-2.97356e-08
-7.78293e-10
-5.75451e-09
-7.12464e-10
-4.61053e-11
-1.10817e-08
-2.11009e-09
-1.36835e-10
-1.59413e-08
-3.47061e-09
-2.25835e-10
-2.04636e-08
-4.84849e-09
-3.16735e-10
-2.47561e-08
-6.31586e-09
-4.13753e-10
-2.89047e-08
-7.94376e-09
-5.20246e-10
-3.29709e-08
-9.80696e-09
-6.38664e-10
-3.69866e-08
-1.19883e-08
-7.70365e-10
-4.09419e-08
-1.45819e-08
-9.15347e-10
-4.47683e-08
-1.76945e-08
-1.07203e-09
-4.83193e-08
-2.14399e-08
-1.23732e-09
-5.13594e-08
-2.59207e-08
-1.4073e-09
-5.35902e-08
-3.11761e-08
-1.57766e-09
-5.47662e-08
-3.70516e-08
-1.74084e-09
-5.49095e-08
-4.28633e-08
-1.87537e-09
-4.89741e-08
-1.87092e-09
-9.48146e-09
-1.02818e-09
-7.61741e-11
-1.82553e-08
-3.04392e-09
-2.25956e-10
-2.62543e-08
-5.00229e-09
-3.72709e-10
-3.36929e-08
-6.9791e-09
-5.22487e-10
-4.07488e-08
-9.07489e-09
-6.82253e-10
-4.75653e-08
-1.13871e-08
-8.57475e-10
-5.42496e-08
-1.40161e-08
-1.05201e-09
-6.08643e-08
-1.70707e-08
-1.2676e-09
-6.74114e-08
-2.06711e-08
-1.50306e-09
-7.38057e-08
-2.49479e-08
-1.75301e-09
-7.9841e-08
-3.00304e-08
-2.00654e-09
-8.51576e-08
-3.60123e-08
-2.24591e-09
-8.9253e-08
-4.28675e-08
-2.44557e-09
-9.16173e-08
-5.02735e-08
-2.5731e-09
-9.21031e-08
-5.72768e-08
-2.60223e-09
-6.39874e-08
-2.27825e-09
-1.30521e-08
-1.2992e-09
-1.05007e-10
-2.51234e-08
-3.84436e-09
-3.11305e-10
-3.61192e-08
-6.31113e-09
-5.13162e-10
-4.63339e-08
-8.79098e-09
-7.18995e-10
-5.60125e-08
-1.14053e-08
-9.38396e-10
-6.53556e-08
-1.42693e-08
-1.17885e-09
-7.45196e-08
-1.74986e-08
-1.44553e-09
-8.36093e-08
-2.12145e-08
-1.74042e-09
-9.26602e-08
-2.55462e-08
-2.06081e-09
-1.01609e-07
-3.0628e-08
-2.39666e-09
-1.10245e-07
-3.65833e-08
-2.72717e-09
-1.1816e-07
-4.34825e-08
-3.01652e-09
-1.24709e-07
-5.1244e-08
-3.21054e-09
-1.29112e-07
-5.94429e-08
-3.24478e-09
-1.3087e-07
-6.70105e-08
-3.0926e-09
-7.3769e-08
-2.46022e-09
-1.64119e-08
-1.51551e-09
-1.32046e-10
-3.15807e-08
-4.48199e-09
-3.91238e-10
-4.53825e-08
-7.34939e-09
-6.44494e-10
-5.81854e-08
-1.02186e-08
-9.02475e-10
-7.02965e-08
-1.32239e-08
-1.17727e-09
-8.19715e-08
-1.64891e-08
-1.47834e-09
-9.34179e-08
-2.01346e-08
-1.81228e-09
-1.04791e-07
-2.42814e-08
-2.18171e-09
-1.16179e-07
-2.90526e-08
-2.58321e-09
-1.2758e-07
-3.45696e-08
-3.00372e-09
-1.38846e-07
-4.09363e-08
-3.41522e-09
-1.49618e-07
-4.81998e-08
-3.76792e-09
-1.59225e-07
-5.62562e-08
-3.98354e-09
-1.66653e-07
-6.46605e-08
-3.96666e-09
-1.70784e-07
-7.23275e-08
-3.67874e-09
-7.88359e-08
-2.82559e-09
-1.9513e-08
-1.67019e-09
-1.56805e-10
-3.75344e-08
-4.93662e-09
-4.64328e-10
-5.39096e-08
-8.08511e-09
-7.64363e-10
-6.90709e-08
-1.122e-08
-1.06964e-09
-8.33801e-08
-1.44806e-08
-1.39458e-09
-9.71419e-08
-1.79915e-08
-1.75061e-09
-1.10612e-07
-2.1868e-08
-2.14599e-09
-1.23996e-07
-2.62199e-08
-2.58472e-09
-1.37448e-07
-3.1152e-08
-3.06439e-09
-1.51046e-07
-3.67595e-08
-3.57226e-09
-1.64759e-07
-4.31155e-08
-4.07932e-09
-1.78366e-07
-5.02428e-08
-4.53233e-09
-1.91327e-07
-5.8045e-08
-4.84342e-09
-2.0255e-07
-6.61465e-08
-4.89501e-09
-2.10152e-07
-7.35833e-08
-4.61203e-09
-7.98171e-08
-3.70442e-09
-2.23151e-08
-1.75934e-09
-1.78884e-10
-4.29073e-08
-5.1973e-09
-5.29393e-10
-6.15888e-08
-8.50202e-09
-8.70824e-10
-7.88446e-08
-1.17762e-08
-1.21774e-09
-9.50807e-08
-1.51575e-08
-1.58665e-09
-1.10641e-07
-1.87641e-08
-1.99089e-09
-1.2582e-07
-2.26995e-08
-2.44055e-09
-1.40867e-07
-2.70543e-08
-2.94169e-09
-1.5599e-07
-3.19055e-08
-3.49454e-09
-1.71347e-07
-3.73115e-08
-4.09018e-09
-1.87022e-07
-4.33016e-08
-4.70526e-09
-2.02979e-07
-4.98579e-08
-5.29476e-09
-2.18918e-07
-5.68819e-08
-5.78028e-09
-2.33967e-07
-6.41158e-08
-6.04378e-09
-2.45856e-07
-7.09498e-08
-5.96651e-09
-7.71938e-08
-5.33594e-09
-2.47854e-08
-1.97966e-10
-1.78191e-09
-4.76375e-08
-5.85514e-10
-5.26153e-09
-6.8332e-08
-9.6237e-10
-8.59806e-09
-8.73938e-08
-1.34461e-09
-1.18886e-08
-1.0526e-07
-1.75052e-09
-1.52634e-08
-1.22302e-07
-2.19504e-09
-1.883e-08
-1.38836e-07
-2.69006e-09
-2.26756e-08
-1.55139e-07
-3.24391e-09
-2.68676e-08
-1.71449e-07
-3.86023e-09
-3.14506e-08
-1.87967e-07
-4.53569e-09
-3.64395e-08
-2.04846e-07
-5.25628e-09
-4.18072e-08
-2.22151e-07
-5.99221e-09
-4.74635e-08
-2.39737e-07
-6.68902e-09
-5.32228e-08
-2.56915e-07
-7.25787e-09
-5.87271e-08
-2.71566e-07
-7.59864e-09
-6.32816e-08
-8.0863e-09
-6.85254e-08
-1.94227e-09
-3.7459e-10
-1.29229e-11
-3.74033e-09
-1.10986e-09
-3.8343e-11
-5.38028e-09
-1.82695e-09
-6.32161e-11
-6.90566e-09
-2.55533e-09
-8.84756e-11
-8.35202e-09
-3.33374e-09
-1.15194e-10
-9.74687e-09
-4.20033e-09
-1.44142e-10
-1.11087e-08
-5.19519e-09
-1.75735e-10
-1.24445e-08
-6.36248e-09
-2.09912e-10
-1.37456e-08
-7.75189e-09
-2.45964e-10
-1.49825e-08
-9.4188e-09
-2.82323e-10
-1.60993e-08
-1.14219e-08
-3.16364e-10
-1.70147e-08
-1.38154e-08
-3.44261e-10
-1.76395e-08
-1.6629e-08
-3.60891e-10
-1.79266e-08
-1.98179e-08
-3.59987e-10
-1.79363e-08
-2.30858e-08
-3.37138e-10
-2.89363e-08
-2.3357e-10
-5.79235e-09
-7.31479e-10
-3.86879e-11
-1.11535e-08
-2.16667e-09
-1.14742e-10
-1.60418e-08
-3.56445e-09
-1.89097e-10
-2.05871e-08
-4.98097e-09
-2.64586e-10
-2.48956e-08
-6.49006e-09
-3.4443e-10
-2.90501e-08
-8.16375e-09
-4.30926e-10
-3.31077e-08
-1.00767e-08
-5.25265e-10
-3.70926e-08
-1.23099e-08
-6.27136e-10
-4.09854e-08
-1.49523e-08
-7.34103e-10
-4.47057e-08
-1.80997e-08
-8.40781e-10
-4.80956e-08
-2.18464e-08
-9.37917e-10
-5.09143e-08
-2.62604e-08
-1.01177e-09
-5.28744e-08
-3.13292e-08
-1.04424e-09
-5.37682e-08
-3.68443e-08
-1.0159e-09
-5.36911e-08
-4.21426e-08
-9.21255e-10
-4.75655e-08
-6.1978e-10
-9.54361e-09
-1.0555e-09
-6.3936e-11
-1.83732e-08
-3.12517e-09
-1.89527e-10
-2.64193e-08
-5.13689e-09
-3.12179e-10
-3.3896e-08
-7.16878e-09
-4.36639e-10
-4.09785e-08
-9.32373e-09
-5.68251e-10
-4.78058e-08
-1.17004e-08
-7.10798e-10
-5.44771e-08
-1.4399e-08
-8.66184e-10
-6.10437e-08
-1.75255e-08
-1.03369e-09
-6.74911e-08
-2.11925e-08
-1.20875e-09
-7.37139e-08
-2.55158e-08
-1.38112e-09
-7.94843e-08
-3.05975e-08
-1.53283e-09
-8.4429e-08
-3.64856e-08
-1.63655e-09
-8.80557e-08
-4.30867e-08
-1.65652e-09
-8.99137e-08
-5.00123e-08
-1.55865e-09
-8.99905e-08
-5.63396e-08
-1.34741e-09
-6.21777e-08
-8.42766e-10
-1.31372e-08
-1.33352e-09
-8.81671e-11
-2.52848e-08
-3.94635e-09
-2.61213e-10
-3.63452e-08
-6.47987e-09
-4.30007e-10
-4.66122e-08
-9.02826e-09
-6.01186e-10
-5.63279e-08
-1.17157e-08
-7.8216e-10
-6.56871e-08
-1.46588e-08
-9.78194e-10
-7.48362e-08
-1.79726e-08
-1.19196e-09
-8.38642e-08
-2.17746e-08
-1.42245e-09
-9.27845e-08
-2.61847e-08
-1.66309e-09
-1.01504e-07
-3.13193e-08
-1.8989e-09
-1.09781e-07
-3.72692e-08
-2.103e-09
-1.17178e-07
-4.40518e-08
-2.23361e-09
-1.23051e-07
-5.15097e-08
-2.23534e-09
-1.26693e-07
-5.91472e-08
-2.05773e-09
-1.2781e-07
-6.5936e-08
-1.71672e-09
-7.17474e-08
-1.02449e-09
-1.6518e-08
-1.55528e-09
-1.10916e-10
-3.17818e-08
-4.60007e-09
-3.2843e-10
-4.56642e-08
-7.54445e-09
-5.40338e-10
-5.85327e-08
-1.04922e-08
-7.55093e-10
-7.06911e-08
-1.35807e-08
-9.82112e-10
-8.23883e-08
-1.69352e-08
-1.22819e-09
-9.38199e-08
-2.06749e-08
-1.49697e-09
-1.05122e-07
-2.49161e-08
-1.78771e-09
-1.16358e-07
-2.97716e-08
-2.09287e-09
-1.27485e-07
-3.53422e-08
-2.39455e-09
-1.38314e-07
-4.16966e-08
-2.65977e-09
-1.48438e-07
-4.88247e-08
-2.83604e-09
-1.5717e-07
-5.65434e-08
-2.85121e-09
-1.63572e-07
-6.43344e-08
-2.63653e-09
-1.66802e-07
-7.11608e-08
-2.2064e-09
-7.671e-08
-1.38249e-09
-1.96378e-08
-1.71369e-09
-1.31775e-10
-3.7771e-08
-5.06573e-09
-3.89982e-10
-5.4241e-08
-8.29803e-09
-6.4121e-10
-6.94798e-08
-1.1518e-08
-8.95616e-10
-8.38458e-08
-1.48679e-08
-1.16453e-09
-9.76364e-08
-1.84735e-08
-1.45633e-09
-1.11094e-07
-2.24489e-08
-1.77601e-09
-1.24405e-07
-2.68986e-08
-2.12383e-09
-1.37691e-07
-3.19156e-08
-2.49298e-09
-1.50988e-07
-3.75738e-08
-2.86568e-09
-1.64207e-07
-4.39095e-08
-3.20798e-09
-1.77069e-07
-5.08878e-08
-3.46434e-09
-1.88988e-07
-5.83311e-08
-3.55449e-09
-1.98933e-07
-6.57879e-08
-3.39244e-09
-2.05359e-07
-7.23417e-08
-2.96777e-09
-7.76074e-08
-2.1048e-09
-2.2456e-08
-1.80484e-09
-1.50405e-10
-4.31744e-08
-5.33223e-09
-4.4487e-10
-6.19629e-08
-8.7242e-09
-7.3098e-10
-7.93067e-08
-1.20864e-08
-1.02043e-09
-9.56083e-08
-1.55593e-08
-1.32631e-09
-1.11205e-07
-1.92622e-08
-1.65858e-09
-1.26376e-07
-2.3297e-08
-2.02382e-09
-1.41351e-07
-2.77485e-08
-2.42408e-09
-1.56306e-07
-3.26817e-08
-2.85483e-09
-1.71351e-07
-3.81336e-08
-3.30152e-09
-1.86509e-07
-4.40975e-08
-3.73475e-09
-2.01665e-07
-5.04994e-08
-4.1048e-09
-2.16452e-07
-5.71617e-08
-4.3361e-09
-2.30021e-07
-6.37464e-08
-4.33621e-09
-2.40451e-07
-6.96717e-08
-4.05603e-09
-7.48216e-08
-3.35132e-09
-2.49397e-08
-1.66536e-10
-1.82769e-09
-4.79298e-08
-4.92309e-10
-5.39717e-09
-6.87417e-08
-8.08359e-10
-8.82111e-09
-8.79001e-08
-1.12767e-09
-1.21993e-08
-1.0584e-07
-1.46486e-09
-1.56648e-08
-1.22924e-07
-1.83132e-09
-1.93259e-08
-1.39458e-07
-2.23525e-09
-2.32679e-08
-1.55695e-07
-2.6808e-09
-2.75524e-08
-1.71844e-07
-3.16661e-09
-3.22125e-08
-1.88058e-07
-3.6832e-09
-3.72428e-08
-2.04428e-07
-4.20929e-09
-4.25835e-08
-2.20937e-07
-4.70743e-09
-4.8094e-08
-2.37357e-07
-5.1196e-09
-5.35201e-08
-2.52989e-07
-5.37108e-09
-5.84337e-08
-2.65998e-07
-5.41824e-09
-6.21422e-08
-5.45617e-09
-6.60696e-08
-1.95192e-09
-3.82445e-10
-1.00409e-11
-3.75849e-09
-1.13317e-09
-2.9774e-11
-5.40534e-09
-1.86542e-09
-4.90248e-11
-6.93569e-09
-2.60916e-09
-6.84683e-11
-8.38444e-09
-3.40354e-09
-8.88607e-11
-9.77804e-09
-4.28666e-09
-1.10676e-10
-1.11333e-08
-5.29783e-09
-1.34024e-10
-1.24548e-08
-6.47926e-09
-1.58506e-10
-1.37309e-08
-7.87685e-09
-1.82983e-10
-1.49287e-08
-9.53942e-09
-2.05286e-10
-1.59895e-08
-1.15152e-08
-2.21891e-10
-1.68317e-08
-1.38435e-08
-2.27708e-10
-1.73695e-08
-1.65378e-08
-2.16298e-10
-1.75665e-08
-1.95462e-08
-1.81597e-10
-1.75012e-08
-2.26015e-08
-1.24728e-10
-2.81587e-08
1.57397e-11
-5.82108e-09
-7.46778e-10
-3.0064e-11
-1.12076e-08
-2.21206e-09
-8.9112e-11
-1.61164e-08
-3.63929e-09
-1.46671e-10
-2.06766e-08
-5.08556e-09
-2.04796e-10
-2.49924e-08
-6.62549e-09
-2.65769e-10
-2.91435e-08
-8.331e-09
-3.3101e-10
-3.31819e-08
-1.02752e-08
-4.00839e-10
-3.7125e-08
-1.25353e-08
-4.74013e-10
-4.09441e-08
-1.51932e-08
-5.47007e-10
-4.45486e-08
-1.83323e-08
-6.13048e-10
-4.77718e-08
-2.20273e-08
-6.61071e-10
-5.03706e-08
-2.63199e-08
-6.75202e-10
-5.20691e-08
-3.11691e-08
-6.36069e-10
-5.26928e-08
-3.63575e-08
-5.27651e-10
-5.23974e-08
-4.12788e-08
-3.59302e-10
-4.63025e-08
-1.9103e-11
-9.59082e-09
-1.07749e-09
-4.96952e-11
-1.84621e-08
-3.19037e-09
-1.47228e-10
-2.65421e-08
-5.24428e-09
-2.42206e-10
-3.40434e-08
-7.31863e-09
-3.38092e-10
-4.11383e-08
-9.51739e-09
-4.38689e-10
-4.79607e-08
-1.1939e-08
-5.46374e-10
-5.4602e-08
-1.46815e-08
-6.61701e-10
-6.11016e-08
-1.78453e-08
-7.82601e-10
-6.74303e-08
-2.15334e-08
-9.03129e-10
-7.34649e-08
-2.58444e-08
-1.01169e-09
-7.89614e-08
-3.08544e-08
-1.08917e-09
-8.35403e-08
-3.65767e-08
-1.10825e-09
-8.6727e-08
-4.28823e-08
-1.0366e-09
-8.81291e-08
-4.9377e-08
-8.51177e-10
-8.78458e-08
-5.52165e-08
-5.76994e-10
-6.05843e-08
-1.06732e-10
-1.32018e-08
-1.36115e-09
-6.85498e-11
-2.54065e-08
-4.02825e-09
-2.0298e-10
-3.65135e-08
-6.61458e-09
-3.33751e-10
-4.68146e-08
-9.21588e-09
-4.65726e-10
-5.65481e-08
-1.19576e-08
-6.04222e-10
-6.59021e-08
-1.4956e-08
-7.5262e-10
-7.50124e-08
-1.83232e-08
-9.11837e-10
-8.39525e-08
-2.21701e-08
-1.07924e-09
-9.2715e-08
-2.66047e-08
-1.24686e-09
-1.01182e-07
-3.1723e-08
-1.39886e-09
-1.09085e-07
-3.75855e-08
-1.5089e-09
-1.15975e-07
-4.41694e-08
-1.53892e-09
-1.21227e-07
-5.1279e-08
-1.44389e-09
-1.24218e-07
-5.84166e-08
-1.19345e-09
-1.24823e-07
-6.46489e-08
-8.26494e-10
-6.99692e-08
-2.38267e-10
-1.65988e-08
-1.58731e-09
-8.62682e-11
-3.19339e-08
-4.69495e-09
-2.55311e-10
-4.58746e-08
-7.70029e-09
-4.19576e-10
-5.87861e-08
-1.07088e-08
-5.85295e-10
-7.09679e-08
-1.38592e-08
-7.59281e-10
-8.26609e-08
-1.72762e-08
-9.46009e-10
-9.40479e-08
-2.10756e-08
-1.14702e-09
-1.05247e-07
-2.53665e-08
-1.35969e-09
-1.16293e-07
-3.02477e-08
-1.57504e-09
-1.27114e-07
-3.57982e-08
-1.77472e-09
-1.37483e-07
-4.20534e-08
-1.92765e-09
-1.46971e-07
-4.89606e-08
-1.98802e-09
-1.54907e-07
-5.62965e-08
-1.89973e-09
-1.60454e-07
-6.35437e-08
-1.62189e-09
-1.63007e-07
-6.97717e-08
-1.19547e-09
-7.48291e-08
-5.2413e-10
-1.9733e-08
-1.74877e-09
-1.02534e-10
-3.79503e-08
-5.16954e-09
-3.03292e-10
-5.44892e-08
-8.46831e-09
-4.9816e-10
-6.97793e-08
-1.17541e-08
-6.94672e-10
-8.41745e-08
-1.51707e-08
-9.01101e-10
-9.79633e-08
-1.8843e-08
-1.12311e-09
-1.11374e-07
-2.28815e-08
-1.36321e-09
-1.24572e-07
-2.73827e-08
-1.61952e-09
-1.37648e-07
-3.24255e-08
-1.8835e-09
-1.506e-07
-3.80603e-08
-2.1368e-09
-1.63295e-07
-4.42897e-08
-2.34742e-09
-1.75415e-07
-5.1035e-08
-2.46705e-09
-1.8638e-07
-5.8077e-08
-2.43319e-09
-1.95266e-07
-6.49628e-08
-2.19215e-09
-2.00824e-07
-7.08855e-08
-1.76816e-09
-7.56507e-08
-1.06433e-09
-2.25638e-08
-1.84155e-09
-1.1708e-10
-4.33774e-08
-5.4408e-09
-3.46143e-10
-6.22442e-08
-8.90206e-09
-5.6822e-10
-7.96469e-08
-1.23326e-08
-7.92037e-10
-9.59835e-08
-1.58741e-08
-1.02724e-09
-1.11582e-07
-1.96451e-08
-1.28072e-09
-1.26707e-07
-2.37437e-08
-1.55625e-09
-1.41566e-07
-2.82467e-08
-1.85334e-09
-1.56302e-07
-3.32048e-08
-2.16529e-09
-1.70982e-07
-3.86321e-08
-2.47622e-09
-1.85579e-07
-4.44889e-08
-2.75741e-09
-1.99926e-07
-5.06581e-08
-2.9643e-09
-2.13642e-07
-5.69202e-08
-3.03605e-09
-2.25968e-07
-6.29284e-08
-2.91069e-09
-2.35309e-07
-6.81959e-08
-2.58172e-09
-7.27519e-08
-1.95931e-09
-2.50581e-08
-1.29697e-10
-1.86464e-09
-4.81527e-08
-3.83243e-10
-5.50642e-09
-6.90508e-08
-6.28734e-10
-8.99986e-09
-8.82751e-08
-8.75914e-10
-1.24463e-08
-1.06255e-07
-1.13563e-09
-1.59799e-08
-1.23346e-07
-1.41595e-09
-1.97082e-08
-1.39838e-07
-1.72197e-09
-2.37127e-08
-1.55963e-07
-2.05498e-09
-2.80473e-08
-1.71896e-07
-2.41089e-09
-3.27315e-08
-1.87748e-07
-2.77794e-09
-3.7739e-08
-2.03554e-07
-3.13376e-09
-4.29796e-08
-2.19241e-07
-3.44275e-09
-4.82739e-08
-2.3455e-07
-3.65575e-09
-5.33304e-08
-2.48848e-07
-3.72048e-09
-5.77105e-08
-2.60594e-07
-3.63028e-09
-6.07933e-08
-3.48253e-09
-6.39744e-08
-1.95881e-09
-3.88333e-10
-6.85902e-12
-3.77136e-09
-1.1506e-09
-2.03293e-11
-5.42283e-09
-1.89401e-09
-3.34396e-11
-6.95609e-09
-2.64878e-09
-4.66239e-11
-8.40541e-09
-3.45415e-09
-6.03573e-11
-9.79624e-09
-4.34787e-09
-7.48956e-11
-1.11439e-08
-5.36819e-09
-9.02007e-11
-1.2451e-08
-6.55518e-09
-1.05813e-10
-1.37034e-08
-7.95111e-09
-1.20658e-10
-1.48656e-08
-9.59912e-09
-1.3279e-10
-1.5877e-08
-1.15396e-08
-1.39149e-10
-1.66559e-08
-1.38026e-08
-1.35462e-10
-1.71202e-08
-1.63949e-08
-1.16691e-10
-1.72412e-08
-1.92674e-08
-7.89949e-11
-1.71126e-08
-2.21773e-08
-2.57272e-11
-2.75184e-08
8.91205e-11
-5.84159e-09
-7.58246e-10
-2.05391e-11
-1.12459e-08
-2.246e-09
-6.08511e-11
-1.61686e-08
-3.69493e-09
-1.00057e-10
-2.07375e-08
-5.16257e-09
-1.3948e-10
-2.50551e-08
-6.72375e-09
-1.80559e-10
-2.91982e-08
-8.44969e-09
-2.24071e-10
-3.32144e-08
-1.04115e-08
-2.69908e-10
-3.71151e-08
-1.26822e-08
-3.16692e-10
-4.08641e-08
-1.5337e-08
-3.61182e-10
-4.43632e-08
-1.84486e-08
-3.97498e-10
-4.74395e-08
-2.20773e-08
-4.16367e-10
-4.98499e-08
-2.62487e-08
-4.05018e-10
-5.13295e-08
-3.0911e-08
-3.49002e-10
-5.17306e-08
-3.58568e-08
-2.39004e-10
-5.12558e-08
-4.05289e-08
-8.87697e-11
-4.5313e-08
1.75362e-10
-9.62453e-09
-1.09398e-09
-3.39566e-11
-1.85251e-08
-3.23914e-09
-1.00555e-10
-2.66279e-08
-5.32414e-09
-1.65265e-10
-3.41437e-08
-7.42903e-09
-2.30328e-10
-4.1242e-08
-9.65803e-09
-2.98155e-10
-4.8052e-08
-1.21086e-08
-3.70068e-10
-5.46578e-08
-1.48757e-08
-4.45949e-10
-6.10893e-08
-1.80545e-08
-5.23584e-10
-6.73047e-08
-2.17381e-08
-5.97691e-10
-7.31677e-08
-2.60109e-08
-6.58575e-10
-7.84234e-08
-3.09297e-08
-6.90921e-10
-8.26914e-08
-3.64872e-08
-6.73849e-10
-8.55168e-08
-4.25432e-08
-5.84714e-10
-8.6556e-08
-4.87218e-08
-4.11747e-10
-8.59915e-08
-5.42491e-08
-1.82958e-10
-5.93683e-08
1.59047e-10
-1.32481e-08
-1.38188e-09
-4.68509e-11
-2.5493e-08
-4.08952e-09
-1.38667e-10
-3.66312e-08
-6.71483e-09
-2.27796e-10
-4.69526e-08
-9.35424e-09
-3.17402e-10
-5.66915e-08
-1.21335e-08
-4.10876e-10
-6.60298e-08
-1.51676e-08
-5.10148e-10
-7.50937e-08
-1.8565e-08
-6.15225e-10
-8.39434e-08
-2.243e-08
-7.23327e-10
-9.25545e-08
-2.68588e-08
-8.27551e-10
-1.00789e-07
-3.19306e-08
-9.15037e-10
-1.08365e-07
-3.76835e-08
-9.65357e-10
-1.14826e-07
-4.40715e-08
-9.50589e-10
-1.19578e-07
-5.08881e-08
-8.40602e-10
-1.22067e-07
-5.76618e-08
-6.2095e-10
-1.22295e-07
-6.35441e-08
-3.3102e-10
-6.86263e-08
8.18616e-11
-1.66566e-08
-1.61135e-09
-5.89772e-11
-3.20421e-08
-4.76598e-09
-1.74471e-10
-4.60221e-08
-7.81636e-09
-2.86477e-10
-5.89595e-08
-1.08688e-08
-3.99073e-10
-7.11492e-08
-1.40621e-08
-5.16641e-10
-8.28247e-08
-1.75195e-08
-6.41805e-10
-9.41572e-08
-2.13531e-08
-7.74925e-10
-1.05248e-07
-2.56639e-08
-9.13117e-10
-1.16112e-07
-3.05383e-08
-1.04867e-09
-1.26651e-07
-3.60365e-08
-1.16687e-09
-1.36615e-07
-4.21698e-08
-1.24403e-09
-1.45567e-07
-4.88609e-08
-1.2472e-09
-1.52866e-07
-5.58757e-08
-1.1395e-09
-1.57771e-07
-6.27276e-08
-9.00748e-10
-1.59845e-07
-6.85804e-08
-5.72876e-10
-7.3401e-08
-1.08936e-10
-1.98013e-08
-1.7751e-09
-7.0119e-11
-3.80781e-08
-5.24731e-09
-2.07331e-10
-5.46638e-08
-8.59524e-09
-3.40271e-10
-6.99853e-08
-1.19287e-08
-4.73895e-10
-8.43914e-08
-1.53916e-08
-6.13567e-10
-9.81625e-08
-1.91074e-08
-7.627e-10
-1.11514e-07
-2.31821e-08
-9.22285e-10
-1.24592e-07
-2.77043e-08
-1.0899e-09
-1.37464e-07
-3.27396e-08