/*--------------------------------*- C++ -*----------------------------------*\
| =========                 |                                                 |
| \\      /  F ield         | foam-extend: Open Source CFD                    |
|  \\    /   O peration     | Version:     3.1                                |
|   \\  /    A nd           | Web:         http://www.extend-project.de       |
|    \\/     M anipulation  |                                                 |
\*---------------------------------------------------------------------------*/
FoamFile
{
    version     2.0;
    format      ascii;
    class       volScalarField;
    location    "3.4";
    object      p;
}
// * * * * * * * * * * * * * * * * * * * * * * * * * * * * * * * * * * * * * //

dimensions      [0 2 -2 0 0 0 0];

internalField   nonuniform List<scalar> 
14592
(
0.0243749
0.0241846
0.0239964
0.0238269
0.0236841
0.0235738
0.023501
0.0234677
0.0234706
0.0234982
0.0235264
0.0235121
0.0233839
0.0230193
0.0222418
0.0211377
0.0243954
0.0241873
0.0239996
0.0238355
0.0236969
0.0235889
0.0235168
0.0234832
0.0234859
0.0235145
0.0235458
0.0235375
0.0234201
0.0230676
0.0222335
0.0208294
0.0243873
0.024164
0.0239712
0.0238064
0.0236662
0.0235554
0.0234802
0.023445
0.0234507
0.0234901
0.0235442
0.0235747
0.023513
0.023224
0.0223647
0.020602
0.024351
0.0241141
0.0239124
0.0237417
0.0235955
0.0234776
0.0233952
0.0233556
0.0233631
0.0234157
0.0235008
0.0235867
0.0236107
0.0234384
0.0226498
0.0206465
0.0242863
0.0240383
0.0238268
0.0236478
0.0234929
0.0233647
0.0232712
0.0232216
0.0232239
0.023282
0.0233913
0.0235301
0.0236484
0.0236287
0.023014
0.0209146
0.0241947
0.0239377
0.0237166
0.0235277
0.0233615
0.0232195
0.0231095
0.0230414
0.0230259
0.023071
0.0231805
0.0233436
0.0235311
0.0236574
0.0232897
0.0212264
0.0240804
0.0238163
0.0235863
0.0233862
0.023206
0.023046
0.0229128
0.0228157
0.0227656
0.0227713
0.0228404
0.0229669
0.0231461
0.0233267
0.0232294
0.0212312
0.0239501
0.0236811
0.0234432
0.0232312
0.0230345
0.0228524
0.0226897
0.0225535
0.0224527
0.0223919
0.0223749
0.0223815
0.0224134
0.0223584
0.0223735
0.0195064
0.0246072
0.0244081
0.0242191
0.0240583
0.0239339
0.0238531
0.0238226
0.0238473
0.023928
0.0240586
0.0242229
0.0243913
0.0245141
0.0245083
0.0242945
0.0240678
0.0246305
0.0244121
0.0242223
0.024067
0.0239472
0.0238691
0.0238397
0.0238645
0.0239453
0.0240773
0.0242454
0.0244198
0.0245534
0.0245573
0.0243411
0.024188
0.0246244
0.02439
0.0241948
0.0240391
0.0239187
0.0238389
0.0238078
0.023833
0.0239196
0.0240672
0.0242662
0.0244928
0.024702
0.0248031
0.0246576
0.0245963
0.0245873
0.0243394
0.024135
0.0239738
0.0238483
0.0237628
0.0237267
0.0237505
0.0238438
0.0240126
0.024256
0.0245604
0.0248933
0.0251589
0.0251603
0.0252296
0.0245184
0.0242593
0.0240447
0.0238751
0.0237413
0.0236466
0.0236011
0.0236176
0.0237103
0.0238921
0.024173
0.0245531
0.0250169
0.025487
0.025698
0.0259253
0.024419
0.0241506
0.0239258
0.0237455
0.0235998
0.023491
0.023429
0.0234275
0.0235034
0.023675
0.023962
0.0243788
0.0249339
0.0255851
0.0260163
0.0263954
0.0242935
0.0240177
0.023783
0.0235899
0.0234284
0.0232994
0.0232117
0.0231779
0.0232147
0.0233405
0.0235788
0.0239495
0.0244843
0.0251841
0.0257521
0.0259989
0.0241495
0.0238683
0.0236245
0.0234173
0.0232364
0.0230813
0.0229587
0.0228784
0.0228536
0.0228966
0.0230236
0.0232348
0.0235565
0.0239319
0.024327
0.0225665
0.0248311
0.0246251
0.0244371
0.0242865
0.0241819
0.0241316
0.0241439
0.0242263
0.0243828
0.0246113
0.0249009
0.0252282
0.0255533
0.0258093
0.0259301
0.0259688
0.0248574
0.0246307
0.0244407
0.0242956
0.0241959
0.0241487
0.0241627
0.0242455
0.0244025
0.0246327
0.024926
0.0252599
0.0255944
0.0258601
0.0260054
0.0261558
0.0248534
0.0246101
0.0244144
0.0242694
0.02417
0.0241223
0.0241361
0.0242215
0.0243873
0.0246377
0.0249688
0.0253627
0.0257848
0.0261608
0.0264212
0.0267382
0.0248158
0.0245592
0.0243541
0.024204
0.0241005
0.0240486
0.0240596
0.0241469
0.0243242
0.0246034
0.0249903
0.0254788
0.0260434
0.0266015
0.0270428
0.0275581
0.0247431
0.0244753
0.0242598
0.0241011
0.0239896
0.0239295
0.0239329
0.0240157
0.0241969
0.0244961
0.0249317
0.0255119
0.0262288
0.0270056
0.0276684
0.0283754
0.0246363
0.0243592
0.0241327
0.0239625
0.0238385
0.0237639
0.0237507
0.023816
0.0239818
0.0242733
0.0247198
0.0253445
0.0261628
0.0271187
0.0279689
0.0288113
0.0245001
0.0242152
0.023978
0.0237936
0.0236519
0.0235548
0.0235134
0.0235431
0.0236656
0.0239058
0.0242964
0.0248656
0.02565
0.0266235
0.027501
0.0280585
0.0243428
0.024052
0.0238044
0.0236038
0.0234398
0.0233127
0.0232311
0.0232072
0.023258
0.0234007
0.0236583
0.0240363
0.02456
0.0251385
0.0256517
0.0237016
0.0250366
0.0248253
0.0246394
0.0244993
0.0244141
0.0243929
0.0244455
0.0245812
0.0248062
0.0251209
0.0255169
0.0259725
0.026449
0.0268823
0.0271941
0.0273271
0.0250657
0.0248327
0.0246436
0.0245091
0.0244291
0.0244114
0.024466
0.0246024
0.0248282
0.025145
0.0255446
0.0260066
0.0264914
0.0269337
0.0272762
0.0275131
0.0250636
0.0248137
0.0246187
0.0244848
0.024406
0.024389
0.0244449
0.0245859
0.0248232
0.0251639
0.0256063
0.0261325
0.0267102
0.0272637
0.0277299
0.0281388
0.0250258
0.0247626
0.0245582
0.0244195
0.0243375
0.0243177
0.0243729
0.0245188
0.0247721
0.0251477
0.0256545
0.0262868
0.0270132
0.0277506
0.0283996
0.0290122
0.0249499
0.0246756
0.0244604
0.024313
0.0242234
0.0241961
0.0242453
0.0243893
0.0246503
0.0250518
0.025615
0.0263484
0.0272376
0.0281924
0.029053
0.0298507
0.0248364
0.0245526
0.0243261
0.0241664
0.0240636
0.0240214
0.024054
0.0241809
0.0244275
0.0248231
0.0254004
0.0261821
0.0271753
0.0282984
0.0293129
0.0302142
0.0246904
0.0243987
0.0241605
0.0239852
0.023863
0.0237963
0.0237981
0.0238866
0.0240863
0.0244259
0.0249411
0.0256588
0.0266055
0.0277187
0.028687
0.0292092
0.0245209
0.0242227
0.0239731
0.0237797
0.0236324
0.023532
0.0234889
0.0235173
0.0236365
0.0238662
0.0242314
0.0247339
0.0253874
0.0260582
0.0265566
0.0242963
0.0252143
0.0249991
0.0248155
0.0246852
0.0246174
0.0246219
0.0247095
0.0248908
0.0251735
0.025559
0.0260393
0.0265916
0.0271746
0.0277204
0.0281377
0.0283032
0.0252456
0.0250077
0.0248204
0.0246957
0.0246334
0.0246418
0.0247316
0.0249139
0.0251974
0.0255847
0.0260691
0.0266273
0.0272179
0.0277718
0.0282175
0.028481
0.0252453
0.0249904
0.0247969
0.0246733
0.0246129
0.0246229
0.0247155
0.024904
0.0252013
0.0256157
0.0261448
0.0267685
0.0274542
0.028116
0.028682
0.0291117
0.0252074
0.0249394
0.0247364
0.0246083
0.0245455
0.024554
0.0246476
0.0248436
0.0251602
0.0256141
0.0262141
0.0269527
0.0277854
0.0286258
0.0293669
0.0299932
0.0251288
0.0248497
0.0246358
0.0244989
0.0244288
0.0244304
0.0245193
0.0247154
0.0250429
0.0255268
0.0261884
0.0270321
0.0280324
0.029084
0.0300219
0.0308228
0.0250097
0.0247211
0.0244953
0.0243455
0.0242617
0.024248
0.0243201
0.0244995
0.0248134
0.0252926
0.0259698
0.0268631
0.0279668
0.0291758
0.0302422
0.0311213
0.0248553
0.0245585
0.0243203
0.0241538
0.024049
0.024009
0.0240483
0.0241868
0.0244508
0.0248701
0.0254803
0.0263028
0.0273505
0.02853
0.0295043
0.0299457
0.0246751
0.0243714
0.024121
0.0239346
0.0238024
0.0237256
0.0237158
0.0237888
0.0239652
0.0242652
0.0247127
0.025303
0.0260359
0.0267426
0.0271877
0.0246653
0.0253556
0.0251381
0.0249565
0.0248344
0.0247808
0.024806
0.0249215
0.0251386
0.0254656
0.0259046
0.0264471
0.0270676
0.0277211
0.0283351
0.0288064
0.0289849
0.0253887
0.0251472
0.0249619
0.0248455
0.0247977
0.024827
0.024945
0.0251633
0.0254913
0.0259307
0.0264785
0.0271047
0.027765
0.0283861
0.0288842
0.0291541
0.0253899
0.0251317
0.0249398
0.0248247
0.0247795
0.0248112
0.0249329
0.0251587
0.0255024
0.0259736
0.026565
0.027259
0.0280123
0.0287365
0.0293496
0.0297793
0.025352
0.0250808
0.0248794
0.0247601
0.0247131
0.0247442
0.0248684
0.0251035
0.025469
0.0259816
0.0266483
0.0274573
0.0283599
0.029257
0.0300365
0.0306555
0.0252712
0.024989
0.0247765
0.0246484
0.0245942
0.0246192
0.0247395
0.0249764
0.0253548
0.0259
0.026632
0.0275502
0.0286195
0.029721
0.0306847
0.0314705
0.0251477
0.0248559
0.0246312
0.0244897
0.0244214
0.0244306
0.024534
0.0247543
0.0251196
0.025661
0.0264095
0.0273776
0.0285483
0.029799
0.030874
0.0317209
0.0249867
0.0246864
0.0244488
0.0242896
0.0241991
0.0241806
0.0242495
0.024427
0.0247401
0.0252188
0.0258967
0.0267891
0.0278971
0.0291057
0.0300608
0.030433
0.024798
0.0244905
0.0242399
0.0240596
0.0239397
0.0238819
0.0238986
0.0240064
0.0242267
0.024579
0.0250854
0.0257342
0.0265138
0.0272303
0.0276219
0.024908
0.0254539
0.0252352
0.0250554
0.0249393
0.0248959
0.0249357
0.0250707
0.0253126
0.0256699
0.0261453
0.0267285
0.0273924
0.0280883
0.0287415
0.0292381
0.0294199
0.0254883
0.025245
0.0250616
0.0249514
0.0249142
0.0249585
0.0250963
0.0253398
0.0256989
0.0261753
0.0267634
0.0274332
0.028136
0.0287948
0.0293176
0.0295853
0.0254905
0.0252306
0.0250404
0.0249318
0.0248976
0.0249451
0.0250874
0.0253394
0.025715
0.0262231
0.0268575
0.0275966
0.028391
0.0291493
0.0297825
0.0302051
0.0254525
0.0251796
0.0249799
0.0248673
0.0248317
0.0248792
0.025025
0.0252875
0.0256866
0.0262388
0.02695
0.027804
0.0287482
0.0296751
0.0304683
0.0310745
0.0253702
0.0250864
0.0248753
0.0247539
0.0247113
0.0247528
0.0248953
0.0251606
0.025574
0.0261606
0.0269388
0.0279041
0.0290141
0.0301408
0.0311101
0.0318784
0.0252436
0.0249501
0.0247265
0.0245913
0.0245342
0.0245597
0.0246851
0.0249338
0.0253343
0.0259174
0.0267125
0.0277276
0.0289375
0.0302083
0.0312786
0.0320976
0.025078
0.0247758
0.0245389
0.0243853
0.0243052
0.0243019
0.0243916
0.024596
0.0249427
0.0254611
0.0261831
0.0271193
0.0282621
0.0294836
0.0304179
0.0307402
0.0248834
0.0245738
0.0243233
0.0241476
0.0240368
0.0239925
0.0240277
0.0241597
0.02441
0.0247975
0.0253423
0.0260278
0.0268338
0.0275511
0.0279013
0.0250638
0.0255028
0.0252831
0.0251038
0.0249903
0.0249517
0.0249983
0.0251424
0.025396
0.0257677
0.0262596
0.0268613
0.0275444
0.0282584
0.0289293
0.0294355
0.0296219
0.0255375
0.025293
0.0251096
0.0250017
0.024969
0.02502
0.0251668
0.0254217
0.0257945
0.0262878
0.0268941
0.027583
0.0283043
0.0289795
0.0295133
0.0297846
0.0255403
0.0252792
0.0250888
0.0249826
0.0249531
0.0250074
0.0251589
0.0254224
0.0258121
0.0263366
0.0269898
0.0277478
0.0285595
0.0293317
0.0299742
0.0303977
0.0255025
0.0252285
0.0250286
0.0249185
0.0248878
0.0249424
0.0250978
0.0253725
0.0257864
0.026356
0.0270862
0.0279593
0.02892
0.029858
0.0306577
0.0312608
0.0254196
0.0251347
0.0249235
0.0248045
0.024767
0.0248159
0.0249684
0.0252463
0.0256752
0.02628
0.0270779
0.0280629
0.0291887
0.030324
0.0312967
0.0320602
0.0252915
0.024997
0.0247733
0.0246404
0.0245882
0.0246211
0.0247565
0.0250179
0.0254341
0.0260355
0.0268504
0.0278849
0.0291097
0.0303862
0.0314549
0.0322643
0.0251236
0.0248204
0.0245832
0.0244317
0.0243562
0.0243599
0.024459
0.0246757
0.0250374
0.0255732
0.0263139
0.0272678
0.0284229
0.0296456
0.0305674
0.0308632
0.0249262
0.0246154
0.0243644
0.0241904
0.0240836
0.0240454
0.0240891
0.0242321
0.0244959
0.0248989
0.02546
0.0261604
0.0269747
0.0276873
0.0279928
0.0250972
0.0232308
0.023174
0.0230731
0.0229428
0.0227936
0.0226287
0.0224472
0.0222417
0.0219988
0.0216993
0.021317
0.0208198
0.0201714
0.0193383
0.018294
0.017047
0.0232393
0.0231831
0.0230852
0.0229574
0.0228108
0.0226488
0.0224696
0.0222668
0.0220277
0.0217333
0.0213574
0.0208671
0.020226
0.0194001
0.0183589
0.0171132
0.0232347
0.0231748
0.0230768
0.0229499
0.0228047
0.0226451
0.0224703
0.022274
0.0220442
0.0217615
0.0214
0.0209278
0.020309
0.0195089
0.0184918
0.0172718
0.0232141
0.0231466
0.0230439
0.0229135
0.0227656
0.0226047
0.0224307
0.0222378
0.0220147
0.0217428
0.0213968
0.0209458
0.0203509
0.0195815
0.0185951
0.0174103
0.0231777
0.0231019
0.0229917
0.0228541
0.0226994
0.0225324
0.022354
0.0221595
0.021938
0.0216719
0.0213363
0.0209007
0.0203272
0.0195859
0.0186306
0.0174832
0.0231278
0.0230445
0.0229262
0.0227799
0.0226157
0.0224394
0.0222525
0.0220512
0.0218259
0.0215595
0.0212282
0.0208022
0.0202446
0.0195272
0.0186024
0.0174937
0.023067
0.0229781
0.0228527
0.0226979
0.022524
0.0223372
0.0221395
0.0219284
0.0216948
0.0214229
0.02109
0.0206676
0.0201205
0.0194225
0.0185282
0.0174598
0.0229989
0.0229064
0.0227757
0.022614
0.0224317
0.022235
0.0220266
0.0218044
0.0215602
0.0212793
0.0209402
0.0205165
0.0199754
0.019293
0.0184287
0.0174018
0.0232501
0.023177
0.0230654
0.0229274
0.022772
0.0226018
0.0224151
0.0222048
0.021958
0.0216555
0.02127
0.0207692
0.0201156
0.0192751
0.0182181
0.0169578
0.0232569
0.0231818
0.0230728
0.0229366
0.0227821
0.0226121
0.0224252
0.0222148
0.0219684
0.0216662
0.0212822
0.0207837
0.0201333
0.0192976
0.0182431
0.0169882
0.0232515
0.0231702
0.0230599
0.0229229
0.0227675
0.0225971
0.0224109
0.022203
0.0219615
0.0216675
0.0212952
0.0208123
0.0201805
0.0193678
0.0183353
0.0171074
0.0232315
0.0231412
0.0230256
0.0228841
0.0227244
0.0225504
0.0223622
0.0221549
0.0219172
0.0216312
0.0212714
0.0208065
0.0201973
0.0194151
0.018409
0.0172152
0.0231965
0.0230976
0.0229749
0.0228264
0.0226594
0.0224783
0.0222841
0.022073
0.0218349
0.0215527
0.0212016
0.0207511
0.0201617
0.0194065
0.0184303
0.0172734
0.0231476
0.0230416
0.022912
0.0227557
0.0225799
0.0223894
0.022186
0.0219672
0.021724
0.0214405
0.0210927
0.0206515
0.0200777
0.0193469
0.0184016
0.0172844
0.0230872
0.0229762
0.0228407
0.0226774
0.0224929
0.0222924
0.0220786
0.0218498
0.0215981
0.0213087
0.0209592
0.020522
0.0199594
0.0192495
0.0183368
0.017262
0.0230188
0.022905
0.0227654
0.0225963
0.0224044
0.022195
0.0219712
0.0217318
0.02147
0.0211721
0.0208172
0.0203796
0.0198246
0.0191322
0.018253
0.0172222
0.023312
0.0232185
0.0230914
0.0229414
0.0227771
0.0226006
0.0224103
0.0221994
0.0219547
0.0216557
0.0212737
0.0207734
0.0201096
0.01924
0.0181214
0.0167661
0.0233195
0.0232221
0.023098
0.0229504
0.0227868
0.02261
0.0224187
0.0222066
0.021961
0.021662
0.0212815
0.0207823
0.0201207
0.019258
0.0181424
0.0167977
0.0233123
0.0232071
0.0230813
0.0229321
0.0227663
0.0225872
0.0223944
0.0221827
0.0219402
0.0216476
0.0212774
0.0207942
0.0201536
0.019314
0.0182175
0.0169006
0.0232904
0.0231752
0.0230434
0.0228887
0.022717
0.0225321
0.0223348
0.0221211
0.0218802
0.0215938
0.0212348
0.0207685
0.0201485
0.0193385
0.0182659
0.0169834
0.0232538
0.0231295
0.0229906
0.0228286
0.0226485
0.0224547
0.0222491
0.0220291
0.0217853
0.0215005
0.0211486
0.0206957
0.0200943
0.0193118
0.0182664
0.017023
0.0232032
0.0230717
0.0229263
0.0227569
0.0225676
0.0223633
0.0221468
0.0219169
0.0216656
0.0213774
0.021027
0.0205823
0.0199961
0.0192392
0.0182258
0.0170278
0.0231406
0.0230043
0.0228537
0.0226777
0.02248
0.0222654
0.0220374
0.0217958
0.0215342
0.0212382
0.0208846
0.0204429
0.0198681
0.0191345
0.0181586
0.0170122
0.0230696
0.0229306
0.0227765
0.0225954
0.0223906
0.0221671
0.0219287
0.0216757
0.0214028
0.0210971
0.0207368
0.0202941
0.0197275
0.0190144
0.0180804
0.0169898
0.0234151
0.0233011
0.0231579
0.0229964
0.0228245
0.0226446
0.0224555
0.0222505
0.0220164
0.0217314
0.0213639
0.0208707
0.0201963
0.0192782
0.0180459
0.0164971
0.0234243
0.0233042
0.0231648
0.0230066
0.0228362
0.0226565
0.0224666
0.0222607
0.022026
0.0217414
0.0213757
0.0208863
0.0202165
0.0193076
0.0180786
0.0165446
0.0234151
0.0232859
0.0231445
0.0229846
0.0228114
0.0226285
0.022436
0.0222292
0.0219966
0.0217179
0.0213626
0.0208887
0.020239
0.0193558
0.018143
0.0166271
0.02339
0.0232499
0.0231019
0.0229359
0.0227556
0.0225651
0.022366
0.0221551
0.021922
0.0216478
0.0213024
0.0208444
0.0202145
0.019357
0.0181599
0.016673
0.0233497
0.0231999
0.0230445
0.0228707
0.0226811
0.0224801
0.0222703
0.0220504
0.0218118
0.0215367
0.0211962
0.0207496
0.0201366
0.0193046
0.0181305
0.0166849
0.0232949
0.0231376
0.0229755
0.0227942
0.0225949
0.022382
0.0221594
0.0219269
0.0216778
0.0213962
0.0210546
0.0206139
0.020015
0.0192094
0.018069
0.0166806
0.0232277
0.0230652
0.0228979
0.0227101
0.022502
0.0222779
0.022042
0.0217954
0.0215331
0.0212406
0.0208927
0.0204528
0.0198647
0.0190856
0.0179909
0.0166749
0.0231516
0.0229864
0.0228155
0.0226225
0.0224071
0.0221734
0.0219257
0.0216657
0.0213895
0.0210842
0.0207266
0.0202832
0.0197028
0.0189487
0.0179093
0.0166767
0.0235545
0.0234212
0.0232635
0.0230928
0.0229167
0.0227381
0.0225562
0.0223652
0.0221517
0.0218929
0.0215534
0.021081
0.0204026
0.019426
0.0180332
0.0161737
0.0235657
0.0234235
0.0232696
0.0231031
0.0229293
0.0227515
0.0225692
0.0223774
0.0221636
0.0219054
0.0215681
0.0211003
0.0204289
0.0194621
0.0180736
0.0162228
0.023555
0.0234024
0.023246
0.0230778
0.0229009
0.0227191
0.0225332
0.0223394
0.0221264
0.0218732
0.0215455
0.021092
0.0204376
0.0194896
0.0181024
0.0162388
0.0235266
0.0233623
0.0231987
0.023024
0.0228394
0.0226488
0.0224545
0.0222543
0.0220388
0.021788
0.0214683
0.0210277
0.0203889
0.0194566
0.0180716
0.0162109
0.0234816
0.0233071
0.0231357
0.022953
0.0227585
0.0225562
0.0223494
0.0221379
0.0219139
0.0216595
0.021342
0.0209096
0.0202841
0.0193701
0.0180016
0.0161767
0.0234209
0.0232385
0.0230601
0.0228696
0.0226651
0.02245
0.0222286
0.0220019
0.0217643
0.0214998
0.0211778
0.0207482
0.0201349
0.0192458
0.017915
0.0161645
0.0233469
0.023159
0.022975
0.0227777
0.0225639
0.0223366
0.0221001
0.0218566
0.0216022
0.0213226
0.02099
0.0205573
0.019954
0.0190955
0.017824
0.016186
0.0232636
0.0230725
0.0228845
0.0226816
0.0224597
0.0222215
0.0219712
0.0217114
0.0214391
0.0211418
0.0207943
0.0203535
0.0197566
0.0189303
0.0177348
0.0162387
0.0237265
0.0235756
0.0234058
0.0232293
0.0230538
0.0228826
0.0227157
0.0225483
0.0223679
0.0221514
0.0218602
0.0214328
0.0207742
0.019746
0.01815
0.0158312
0.0237396
0.0235773
0.0234109
0.0232392
0.0230667
0.0228966
0.0227296
0.0225615
0.0223807
0.0221648
0.0218755
0.0214519
0.0207981
0.0197693
0.0181543
0.0157816
0.0237284
0.0235542
0.0233846
0.0232114
0.0230357
0.0228613
0.0226899
0.0225187
0.0223379
0.0221259
0.0218455
0.0214339
0.0207899
0.0197559
0.0180952
0.0155938
0.0236971
0.0235105
0.0233332
0.0231534
0.0229698
0.022786
0.0226051
0.0224262
0.0222412
0.0220303
0.0217568
0.0213557
0.0207205
0.0196779
0.017982
0.0153836
0.023647
0.0234499
0.0232642
0.0230764
0.0228828
0.0226869
0.0224925
0.0223006
0.0221053
0.0218889
0.0216162
0.0212212
0.0205962
0.0195561
0.0178605
0.0152388
0.0235793
0.0233739
0.0231807
0.0229848
0.022781
0.0225718
0.0223616
0.0221525
0.0219409
0.0217114
0.0214315
0.0210366
0.0204236
0.0194029
0.0177519
0.0151958
0.0234968
0.0232855
0.0230861
0.0228827
0.0226689
0.0224465
0.0222194
0.0219907
0.0217582
0.0215084
0.0212124
0.0208091
0.0202062
0.0192201
0.017658
0.0152695
0.023404
0.0231891
0.0229851
0.022775
0.0225519
0.0223166
0.022073
0.021824
0.0215681
0.0212932
0.0209736
0.0205524
0.0199524
0.0190089
0.0175739
0.0154643
0.0239256
0.0237592
0.0235802
0.0234022
0.0232327
0.0230756
0.0229322
0.0227996
0.022667
0.0225128
0.0222982
0.0219567
0.0213749
0.0203569
0.0185626
0.0156057
0.0239407
0.0237607
0.0235844
0.0234115
0.0232454
0.0230898
0.0229466
0.0228133
0.0226802
0.0225264
0.0223135
0.0219748
0.0213921
0.0203493
0.0184416
0.0151723
0.02393
0.0237367
0.0235565
0.0233822
0.0232133
0.0230535
0.0229056
0.0227689
0.0226354
0.022486
0.0222833
0.0219581
0.021382
0.0203031
0.0182389
0.0145164
0.0238964
0.0236902
0.0235018
0.0233211
0.0231445
0.0229755
0.0228181
0.0226733
0.0225357
0.0223885
0.0221955
0.0218853
0.0213205
0.0202131
0.0180406
0.0139413
0.0238413
0.0236241
0.0234269
0.0232381
0.0230519
0.022871
0.0227001
0.022542
0.022394
0.0222419
0.0220526
0.0217541
0.0212075
0.020097
0.0178985
0.013568
0.0237658
0.0235402
0.0233348
0.0231374
0.0229407
0.0227464
0.0225591
0.0223827
0.0222167
0.0220498
0.0218531
0.0215569
0.0210308
0.0199425
0.0178053
0.0134169
0.0236735
0.0234415
0.0232291
0.0230233
0.0228156
0.0226067
0.0224007
0.0222017
0.0220105
0.0218174
0.021598
0.0212862
0.0207707
0.0197198
0.0177324
0.0135093
0.0235694
0.0233334
0.0231154
0.0229015
0.0226826
0.0224584
0.0222322
0.0220078
0.0217858
0.0215567
0.021299
0.0209483
0.0204183
0.0193968
0.0176506
0.0139373
0.0241446
0.023965
0.0237801
0.0236046
0.0234462
0.0233098
0.0231984
0.0231112
0.0230409
0.02297
0.0228648
0.022665
0.0222629
0.0214502
0.0197887
0.016482
0.0241622
0.0239669
0.0237835
0.0236133
0.0234588
0.0233243
0.0232133
0.0231257
0.0230549
0.0229844
0.0228815
0.0226858
0.0222852
0.0214485
0.0195915
0.0155652
0.0241525
0.0239428
0.023755
0.0235837
0.0234269
0.0232887
0.0231735
0.0230829
0.0230128
0.0229492
0.0228614
0.0226895
0.0223133
0.021461
0.0193897
0.0145174
0.0241173
0.0238943
0.0236979
0.0235204
0.0233566
0.02321
0.0230861
0.0229886
0.0229166
0.0228594
0.02279
0.0226498
0.0223135
0.0214768
0.0192921
0.0137349
0.0240573
0.0238232
0.0236174
0.0234317
0.0232587
0.023101
0.0229645
0.0228548
0.0227742
0.022716
0.0226587
0.0225477
0.0222611
0.0214761
0.0193041
0.0132834
0.0239738
0.0237309
0.0235162
0.0233214
0.0231376
0.0229663
0.0228132
0.0226849
0.0225858
0.022513
0.0224511
0.0223517
0.0221076
0.0213907
0.0193468
0.0130988
0.0238706
0.0236211
0.0233984
0.0231939
0.0229978
0.0228103
0.0226365
0.0224824
0.0223535
0.022248
0.022155
0.0220303
0.0217924
0.0211185
0.0193068
0.0131061
0.0237539
0.0234999
0.0232705
0.023056
0.0228463
0.0226404
0.022442
0.0222562
0.0220871
0.0219314
0.0217784
0.0215784
0.021274
0.0205272
0.0190209
0.0132476
0.0238126
0.0235408
0.0232966
0.0230728
0.0228585
0.0226516
0.0224553
0.0222739
0.0221126
0.021969
0.0218374
0.0216687
0.0214241
0.0207525
0.0194398
0.0140278
0.0236774
0.0234055
0.0231571
0.0229227
0.0226911
0.0224595
0.0222294
0.0220029
0.0217812
0.0215563
0.0213119
0.020985
0.0204998
0.0195392
0.0178542
0.0143371
0.0235538
0.0232848
0.0230351
0.0227923
0.0225458
0.0222924
0.0220328
0.0217676
0.0214955
0.0212064
0.0208781
0.0204584
0.0198648
0.0189515
0.0174912
0.0155111
0.0234499
0.0231869
0.0229389
0.0226912
0.0224337
0.0221643
0.0218831
0.0215905
0.0212836
0.0209532
0.0205767
0.0201197
0.0195083
0.0187014
0.017487
0.01607
0.0233708
0.0231173
0.0228739
0.0226247
0.0223618
0.0220836
0.0217907
0.0214832
0.0211578
0.0208063
0.0204084
0.0199408
0.0193428
0.018607
0.0175733
0.016395
0.0233178
0.0230771
0.0228404
0.0225929
0.0223297
0.0220503
0.0217553
0.0214443
0.0211137
0.0207553
0.0203512
0.0198827
0.0193023
0.0186074
0.0176954
0.016653
0.0232865
0.0230627
0.0228333
0.0225893
0.0223296
0.0220548
0.0217654
0.0214604
0.0211355
0.020782
0.020383
0.0199199
0.0193552
0.0186807
0.0178307
0.0168472
0.0232649
0.023064
0.0228408
0.0225994
0.0223435
0.0220745
0.0217933
0.021499
0.0211866
0.0208464
0.0204615
0.0200113
0.0194618
0.0187964
0.017963
0.0169839
0.0239968
0.0237122
0.0234607
0.0232392
0.0230369
0.0228517
0.022688
0.0225518
0.0224509
0.0223874
0.0223624
0.0223346
0.0222664
0.021783
0.0204416
0.0144034
0.0238462
0.0235608
0.0233039
0.0230691
0.0228454
0.0226295
0.0224234
0.0222299
0.0220511
0.0218807
0.021704
0.0214539
0.0210425
0.0200884
0.0182293
0.0140774
0.0237082
0.0234251
0.0231656
0.0229203
0.0226776
0.0224341
0.02219
0.021946
0.0217007
0.0214439
0.0211521
0.0207666
0.0201911
0.0192425
0.0176478
0.0153887
0.0235919
0.0233144
0.0230559
0.0228036
0.0225467
0.0222819
0.022009
0.0217278
0.0214353
0.0211217
0.0207624
0.0203191
0.0197064
0.0188745
0.0175715
0.0160332
0.0235031
0.0232349
0.0229807
0.0227256
0.0224606
0.0221832
0.0218934
0.0215908
0.021272
0.0209284
0.0205381
0.0200765
0.0194731
0.0187223
0.0176291
0.0163804
0.0234431
0.023188
0.0229406
0.0226865
0.0224196
0.0221388
0.021844
0.0215347
0.0212072
0.0208532
0.0204534
0.0199886
0.0194038
0.0186995
0.0177495
0.0166615
0.0234075
0.0231701
0.0229305
0.0226798
0.0224161
0.0221393
0.0218495
0.0215458
0.0212238
0.0208747
0.0204804
0.0200218
0.0194556
0.0187752
0.0178999
0.0168827
0.0233834
0.0231709
0.0229386
0.0226911
0.0224314
0.0221608
0.02188
0.0215879
0.0212799
0.0209459
0.0205681
0.0201245
0.0195767
0.0189076
0.0180536
0.0170432
0.0241752
0.0238804
0.0236239
0.0234064
0.0232172
0.0230548
0.0229248
0.0228347
0.0227946
0.0228093
0.0228829
0.022972
0.0230284
0.0226211
0.021198
0.0145743
0.0240093
0.0237131
0.0234497
0.0232164
0.0230018
0.0228028
0.0226221
0.0224629
0.0223284
0.0222126
0.0221003
0.0219167
0.0215589
0.0205849
0.018573
0.013964
0.023857
0.0235624
0.0232953
0.023049
0.0228116
0.0225792
0.0223522
0.0221313
0.0219148
0.0216917
0.0214365
0.0210824
0.0205196
0.019531
0.0178142
0.0153239
0.0237282
0.0234388
0.0231718
0.0229166
0.0226617
0.0224031
0.0221403
0.0218726
0.0215967
0.0213018
0.020961
0.0205314
0.0199165
0.0190571
0.0176713
0.0160196
0.0236295
0.0233492
0.0230861
0.0228268
0.0225613
0.0222864
0.0220015
0.0217058
0.0213956
0.0210619
0.0206807
0.0202258
0.0196175
0.0188508
0.0177029
0.0163875
0.0235626
0.0232954
0.0230391
0.0227801
0.0225113
0.0222306
0.0219379
0.0216321
0.0213093
0.0209613
0.0205671
0.020107
0.0195188
0.0188053
0.0178203
0.0166889
0.0235226
0.0232739
0.023026
0.0227703
0.0225041
0.0222268
0.0219383
0.0216375
0.0213199
0.0209764
0.020588
0.0201347
0.0195678
0.018882
0.0179834
0.0169337
0.0234962
0.0232741
0.0230346
0.0227826
0.0225208
0.0222502
0.0219713
0.0216831
0.0213807
0.0210541
0.0206842
0.0202479
0.0197024
0.0190302
0.0181571
0.0171169
0.0243395
0.0240367
0.0237768
0.0235643
0.0233883
0.0232478
0.0231496
0.0231026
0.0231183
0.0232021
0.0233581
0.0235356
0.023672
0.023284
0.0217445
0.0146234
0.0241593
0.0238545
0.0235865
0.0233557
0.0231505
0.0229681
0.0228116
0.022685
0.0225919
0.0225254
0.0224684
0.0223365
0.0220123
0.0210048
0.0188524
0.013893
0.0239935
0.0236896
0.0234168
0.0231708
0.0229392
0.0227181
0.0225081
0.0223095
0.0221207
0.0219292
0.0217066
0.021378
0.0208213
0.019792
0.0179666
0.0152914
0.0238529
0.0235538
0.0232802
0.0230235
0.0227714
0.0225196
0.0222672
0.0220135
0.0217543
0.0214778
0.0211544
0.0207367
0.0201181
0.0192314
0.0177718
0.0160223
0.0237448
0.0234546
0.0231845
0.0229224
0.0226575
0.0223859
0.0221067
0.0218189
0.0215181
0.0211948
0.0208229
0.0203744
0.0197614
0.0189793
0.0177831
0.0164084
0.0236712
0.0233943
0.0231309
0.0228685
0.0225987
0.0223194
0.0220297
0.0217284
0.0214114
0.0210701
0.0206821
0.0202269
0.0196359
0.0189139
0.0178983
0.0167277
0.0236272
0.0233693
0.0231148
0.0228555
0.0225881
0.0223114
0.0220252
0.0217282
0.0214158
0.0210786
0.0206965
0.0202486
0.0196816
0.018991
0.0180719
0.0169927
0.0235987
0.0233689
0.0231237
0.0228686
0.022606
0.0223365
0.0220605
0.021777
0.0214809
0.021162
0.0208003
0.0203713
0.0198283
0.0191531
0.0182631
0.0171957
0.0244817
0.0241729
0.023911
0.0237035
0.0235396
0.0234185
0.023348
0.023338
0.0234007
0.0235408
0.0237607
0.024001
0.0241854
0.0237881
0.0221344
0.0146158
0.0242891
0.0239776
0.0237065
0.0234786
0.0232823
0.0231146
0.0229795
0.0228812
0.0228234
0.0227978
0.0227846
0.0226899
0.0223841
0.0213375
0.0190647
0.0138369
0.0241113
0.0238004
0.0235234
0.0232783
0.0230524
0.0228417
0.0226467
0.022468
0.0223033
0.0221387
0.0219428
0.021633
0.0210771
0.0200095
0.0180932
0.0152756
0.0239603
0.0236537
0.0233752
0.0231178
0.0228688
0.0226235
0.0223809
0.0221398
0.0218957
0.0216355
0.0213269
0.0209184
0.020295
0.0193833
0.0178621
0.0160337
0.0238439
0.023546
0.0232706
0.0230067
0.0227429
0.0224749
0.0222015
0.0219212
0.0216293
0.0213157
0.0209522
0.0205092
0.0198918
0.0190956
0.0178592
0.016435
0.0237645
0.0234798
0.0232111
0.0229463
0.0226765
0.0223989
0.0221126
0.0218161
0.0215049
0.02117
0.020788
0.0203373
0.0197441
0.0190145
0.0179734
0.0167695
0.0237169
0.0234517
0.0231922
0.0229305
0.0226626
0.0223872
0.0221038
0.0218108
0.0215035
0.0211725
0.0207963
0.0203536
0.0197868
0.019092
0.0181557
0.0170514
0.0236866
0.0234507
0.0232014
0.0229443
0.0226816
0.0224137
0.022141
0.0218623
0.0215724
0.0212608
0.0209066
0.0204842
0.0199435
0.0192659
0.0183616
0.0172708
0.0245949
0.0242819
0.024019
0.0238159
0.023662
0.0235566
0.0235082
0.0235273
0.0236261
0.0238086
0.0240745
0.0243569
0.0245685
0.0241523
0.0224059
0.014596
0.0243923
0.0240762
0.0238031
0.0235779
0.023389
0.0232334
0.0231155
0.0230396
0.0230093
0.0230148
0.0230338
0.0229642
0.0226669
0.0215842
0.019218
0.0137969
0.024205
0.0238889
0.0236092
0.0233652
0.0231443
0.0229421
0.0227594
0.0225967
0.0224512
0.0223075
0.0221314
0.0218344
0.0212765
0.0201766
0.0181907
0.0152708
0.0240456
0.0237335
0.0234516
0.0231941
0.0229479
0.0227081
0.0224736
0.0222431
0.0220112
0.021764
0.021467
0.021065
0.0204368
0.0195044
0.0179362
0.0160492
0.0239225
0.0236189
0.0233397
0.0230749
0.0228123
0.0225476
0.0222792
0.0220054
0.021721
0.0214154
0.0210587
0.02062
0.0199989
0.0191913
0.0179241
0.0164619
0.0238383
0.023548
0.0232755
0.0230091
0.0227396
0.022464
0.0221808
0.0218885
0.0215824
0.0212531
0.0208761
0.0204292
0.0198343
0.0190986
0.0180381
0.0168081
0.0237879
0.0235173
0.0232543
0.022991
0.0227232
0.0224492
0.0221684
0.0218791
0.0215764
0.0212506
0.0208796
0.0204411
0.0198746
0.0191766
0.018227
0.0171027
0.0237562
0.0235158
0.0232636
0.0230053
0.0227429
0.0224768
0.0222071
0.0219326
0.0216481
0.0213427
0.0209948
0.0205779
0.0200391
0.0193594
0.0184439
0.0173347
0.0246736
0.0243581
0.0240948
0.0238952
0.0237486
0.0236545
0.0236216
0.0236609
0.0237847
0.0239959
0.0242923
0.0246015
0.0248287
0.0243971
0.0225886
0.0145943
0.024464
0.0241451
0.0238709
0.023648
0.0234647
0.0233178
0.023212
0.0231519
0.0231408
0.0231677
0.0232083
0.0231551
0.0228621
0.021753
0.0193231
0.0137783
0.02427
0.0239508
0.0236694
0.0234266
0.0232095
0.0230136
0.0228399
0.0226885
0.0225566
0.0224276
0.0222653
0.0219768
0.0214165
0.0202933
0.0182601
0.0152757
0.0241047
0.0237893
0.0235054
0.0232481
0.0230043
0.0227687
0.0225403
0.0223174
0.0220945
0.0218568
0.0215679
0.0211705
0.0205388
0.0195921
0.017993
0.0160688
0.023977
0.0236699
0.0233884
0.0231233
0.022862
0.0225999
0.0223354
0.0220667
0.021788
0.0214885
0.021137
0.0207014
0.0200782
0.0192628
0.0179757
0.0164882
0.0238895
0.0235957
0.0233209
0.0230538
0.022785
0.022511
0.0222305
0.0219417
0.0216395
0.0213147
0.0209415
0.0204976
0.019902
0.0191622
0.0180889
0.016841
0.0238371
0.0235632
0.023298
0.0230341
0.0227666
0.022494
0.0222153
0.021929
0.0216299
0.0213082
0.0209411
0.0205059
0.0199399
0.0192395
0.0182812
0.017143
0.0238044
0.0235612
0.0233073
0.0230484
0.0227865
0.0225218
0.0222545
0.0219832
0.0217027
0.0214019
0.0210586
0.0206456
0.0201083
0.0194271
0.0185041
0.017382
0.024713
0.0243962
0.0241321
0.0239336
0.0237904