/*--------------------------------*- C++ -*----------------------------------*\
| =========                 |                                                 |
| \\      /  F ield         | foam-extend: Open Source CFD                    |
|  \\    /   O peration     | Version:     3.1                                |
|   \\  /    A nd           | Web:         http://www.extend-project.de       |
|    \\/     M anipulation  |                                                 |
\*---------------------------------------------------------------------------*/
FoamFile
{
    version     2.0;
    format      ascii;
    class       surfaceScalarField;
    location    "3.4";
    object      phi;
}
// * * * * * * * * * * * * * * * * * * * * * * * * * * * * * * * * * * * * * //

dimensions      [0 3 -1 0 0 0 0];

internalField   nonuniform List<scalar> 
41600
(
1.18671e-05
-6.8869e-08
-1.1872e-06
1.19974e-06
1.17768e-05
8.30092e-08
-2.14537e-06
2.15272e-06
1.1549e-05
2.32882e-07
-2.73053e-06
2.72537e-06
1.12159e-05
3.51866e-07
-3.26365e-06
3.24491e-06
1.08018e-05
4.47273e-07
-3.86429e-06
3.8311e-06
1.03354e-05
5.16935e-07
-4.58844e-06
4.53792e-06
9.85414e-06
5.53971e-07
-5.47099e-06
5.39829e-06
9.40268e-06
5.51589e-07
-6.54474e-06
6.44461e-06
9.031e-06
5.02355e-07
-7.85301e-06
7.72234e-06
8.79516e-06
3.93938e-07
-9.4608e-06
9.3027e-06
8.7628e-06
2.00063e-07
-1.14678e-05
1.13001e-05
9.01445e-06
-1.29822e-07
-1.40196e-05
1.38978e-05
9.59216e-06
-6.65735e-07
-1.72773e-05
1.73654e-05
1.01916e-05
-1.38713e-06
-2.1181e-05
2.19687e-05
8.89956e-06
-1.63486e-06
-2.44105e-05
2.73374e-05
-2.50532e-07
-1.97355e-05
2.89046e-05
3.30486e-05
-2.17592e-08
-1.4012e-06
1.45188e-06
3.27988e-05
2.59284e-07
-3.27846e-06
3.35198e-06
3.23772e-05
5.82749e-07
-4.68959e-06
4.76128e-06
3.17763e-05
8.8407e-07
-5.98584e-06
6.0546e-06
3.10072e-05
1.14608e-06
-7.38178e-06
7.45202e-06
3.01015e-05
1.35049e-06
-9.00473e-06
9.0769e-06
2.91092e-05
1.4781e-06
-1.09314e-05
1.09996e-05
2.80908e-05
1.51537e-06
-1.3219e-05
1.32736e-05
2.7105e-05
1.45325e-06
-1.59328e-05
1.59677e-05
2.61974e-05
1.27894e-06
-1.91731e-05
1.91957e-05
2.53905e-05
9.56639e-07
-2.31037e-05
2.3154e-05
2.4655e-05
4.07366e-07
-2.79735e-05
2.81718e-05
2.37953e-05
-5.13052e-07
-3.40499e-05
3.47569e-05
2.1987e-05
-1.89744e-06
-4.105e-05
4.33685e-05
1.63718e-05
-2.94052e-06
-4.58845e-05
5.28054e-05
-1.39626e-06
-3.41843e-05
5.17563e-05
5.13478e-05
2.09373e-09
-1.12342e-06
1.18579e-06
5.10857e-05
4.04838e-07
-3.02854e-06
3.14514e-06
5.06646e-05
8.66295e-07
-4.67552e-06
4.81301e-06
5.00659e-05
1.32724e-06
-6.26731e-06
6.42291e-06
4.92712e-05
1.75559e-06
-7.99347e-06
8.17857e-06
4.82759e-05
2.1207e-06
-1.00042e-05
1.02293e-05
4.70952e-05
2.39294e-06
-1.24054e-05
1.26713e-05
4.576e-05
2.55272e-06
-1.52709e-05
1.55687e-05
4.43033e-05
2.59204e-06
-1.86672e-05
1.89851e-05
4.27365e-05
2.50778e-06
-2.26851e-05
2.30231e-05
4.10191e-05
2.2787e-06
-2.74796e-05
2.7875e-05
3.90032e-05
1.83765e-06
-3.33163e-05
3.39019e-05
3.62781e-05
1.02026e-06
-4.05563e-05
4.1748e-05
3.16076e-05
-4.23429e-07
-4.90553e-05
5.22518e-05
2.17047e-05
-2.17828e-06
-5.51737e-05
6.43144e-05
-2.04008e-06
-4.10409e-05
6.34818e-05
6.6621e-05
-1.9066e-09
-8.82262e-07
9.39059e-07
6.64005e-05
5.0452e-07
-2.52188e-06
2.64261e-06
6.60492e-05
1.06435e-06
-4.04573e-06
4.19906e-06
6.55562e-05
1.63838e-06
-5.5769e-06
5.75874e-06
6.48861e-05
2.19878e-06
-7.26565e-06
7.49257e-06
6.39945e-05
2.71712e-06
-9.26527e-06
9.56037e-06
6.28443e-05
3.16489e-06
-1.17103e-05
1.20886e-05
6.14125e-05
3.5237e-06
-1.47063e-05
1.51671e-05
5.96854e-05
3.7897e-06
-1.83378e-05
1.88672e-05
5.76336e-05
3.97423e-06
-2.26929e-05
2.32782e-05
5.51706e-05
4.08291e-06
-2.79042e-05
2.8563e-05
5.20662e-05
4.09696e-06
-3.42152e-05
3.50602e-05
4.77681e-05
3.90363e-06
-4.20556e-05
4.34704e-05
4.06579e-05
3.1909e-06
-5.15964e-05
5.50923e-05
2.67862e-05
1.55727e-06
-5.93293e-05
6.94654e-05
-6.2851e-07
-4.51186e-05
7.06291e-05
7.8833e-05
-1.79113e-08
-7.29337e-07
7.77833e-07
7.86537e-05
5.76161e-07
-2.11551e-06
2.22322e-06
7.83713e-05
1.20817e-06
-3.43187e-06
3.57041e-06
7.79886e-05
1.85858e-06
-4.7712e-06
4.93369e-06
7.74696e-05
2.51421e-06
-6.2558e-06
6.4594e-06
7.67483e-05
3.16116e-06
-8.03389e-06
8.31118e-06
7.57449e-05
3.78562e-06
-1.02631e-05
1.06457e-05
7.43822e-05
4.38294e-06
-1.30892e-05
1.35927e-05
7.25915e-05
4.96275e-06
-1.66377e-05
1.72553e-05
7.02954e-05
5.55861e-06
-2.1022e-05
2.17338e-05
6.73677e-05
6.20997e-06
-2.63761e-05
2.71767e-05
6.35178e-05
6.97342e-06
-3.29215e-05
3.38949e-05
5.81186e-05
7.83354e-06
-4.10953e-05
4.25646e-05
4.91846e-05
8.6848e-06
-5.14427e-05
5.48828e-05
3.18383e-05
8.47632e-06
-6.08733e-05
7.13006e-05
3.65472e-06
-4.75065e-05
7.52431e-05
8.79831e-05
-3.34157e-08
-6.29783e-07
6.71546e-07
8.78351e-05
6.30816e-07
-1.83061e-06
1.92399e-06
8.7609e-05
1.31659e-06
-2.96934e-06
3.08694e-06
8.7318e-05
2.01908e-06
-4.1221e-06
4.25262e-06
8.69344e-05
2.74166e-06
-5.38851e-06
5.54473e-06
8.63885e-05
3.48981e-06
-6.90231e-06
7.11954e-06
8.558e-05
4.27191e-06
-8.82776e-06
9.14997e-06
8.43956e-05
5.10695e-06
-1.13396e-05
1.18e-05
8.2724e-05
6.02784e-06
-1.46042e-05
1.52107e-05
8.0446e-05
7.10144e-06
-1.87745e-05
1.95096e-05
7.74053e-05
8.40849e-06
-2.40066e-05
2.48487e-05
7.32619e-05
1.01136e-05
-3.05238e-05
3.1527e-05
6.73602e-05
1.23099e-05
-3.87226e-05
4.0148e-05
5.74686e-05
1.5388e-05
-4.94763e-05
5.26646e-05
3.73859e-05
1.83396e-05
-6.04344e-05
7.06538e-05
1.19123e-05
-4.83025e-05
7.76587e-05
9.40756e-05
-4.09271e-08
-5.59004e-07
5.96134e-07
9.39526e-05
6.71554e-07
-1.62587e-06
1.70812e-06
9.37779e-05
1.39097e-06
-2.62978e-06
2.73016e-06
9.35701e-05
2.12354e-06
-3.63527e-06
3.7386e-06
9.33108e-05
2.88774e-06
-4.7238e-06
4.83698e-06
9.2937e-05
3.70778e-06
-6.0104e-06
6.16623e-06
9.23462e-05
4.61496e-06
-7.65059e-06
7.89835e-06
9.14137e-05
5.65387e-06
-9.82619e-06
1.02118e-05
9.00119e-05
6.88349e-06
-1.27242e-05
1.32703e-05
8.80092e-05
8.40676e-06
-1.65224e-05
1.72198e-05
8.52511e-05
1.03464e-05
-2.13905e-05
2.22107e-05
8.13999e-05
1.30001e-05
-2.75563e-05
2.85209e-05
7.58011e-05
1.65903e-05
-3.53355e-05
3.66539e-05
6.62481e-05
2.21905e-05
-4.57766e-05
4.85272e-05
4.48456e-05
3.03351e-05
-5.78311e-05
6.72382e-05
2.6731e-05
-4.69199e-05
7.72204e-05
9.71146e-05
-5.0634e-07
5.4054e-07
-3.65343e-08
9.70144e-05
-1.47288e-06
1.54732e-06
6.97342e-07
9.6893e-05
-2.37353e-06
2.46147e-06
1.4244e-06
9.67724e-05
-3.26473e-06
3.3489e-06
2.15994e-06
9.66415e-05
-4.21572e-06
4.29896e-06
2.93546e-06
9.64462e-05
-5.32574e-06
5.43748e-06
3.79127e-06
9.6093e-05
-6.73545e-06
6.92547e-06
4.77819e-06
9.54659e-05
-8.61653e-06
8.93628e-06
5.96117e-06
9.44493e-05
-1.11509e-05
1.16319e-05
7.41902e-06
9.29413e-05
-1.45104e-05
1.51504e-05
9.27482e-06
9.08425e-05
-1.88467e-05
1.96167e-05
1.16752e-05
8.7971e-05
-2.43448e-05
2.52296e-05
1.49869e-05
8.38161e-05
-3.12079e-05
3.23692e-05
1.95839e-05
7.67021e-05
-4.01752e-05
4.22349e-05
2.72447e-05
5.82614e-05
-5.24318e-05
5.97781e-05
4.14295e-05
-4.18341e-05
7.01624e-05
5.69827e-05
1.26653e-05
-8.7173e-08
-1.12673e-06
1.25103e-05
5.59862e-08
-2.04642e-06
1.21913e-05
2.02845e-07
-2.61438e-06
1.17421e-05
3.18222e-07
-3.13268e-06
1.11843e-05
4.08896e-07
-3.7153e-06
1.05399e-05
4.72716e-07
-4.41682e-06
9.83864e-06
5.01396e-07
-5.27109e-06
9.1154e-06
4.86131e-07
-6.30763e-06
8.40664e-06
4.17254e-07
-7.56151e-06
7.74634e-06
2.7993e-07
-9.08043e-06
7.16343e-06
4.51934e-08
-1.09301e-05
6.6729e-06
-3.4351e-07
-1.31856e-05
6.22523e-06
-9.6322e-07
-1.58664e-05
5.50993e-06
-1.79838e-06
-1.86673e-05
3.55276e-06
-2.43526e-06
-2.0018e-05
-1.89836e-06
-1.4265e-05
3.53278e-05
-4.46441e-08
-1.30201e-06
3.49686e-05
2.15017e-07
-3.07829e-06
3.43822e-05
5.26304e-07
-4.42662e-06
3.35621e-05
8.17597e-07
-5.66514e-06
3.25135e-05
1.06944e-06
-6.99368e-06
3.12555e-05
1.26171e-06
-8.53571e-06
2.98223e-05
1.37104e-06
-1.03679e-05
2.82552e-05
1.37866e-06
-1.25444e-05
2.65882e-05
1.27021e-06
-1.51187e-05
2.48297e-05
1.02718e-06
-1.81618e-05
2.29426e-05
6.05252e-07
-2.17766e-05
2.08028e-05
-8.76703e-08
-2.60896e-05
1.8118e-05
-1.23289e-06
-3.10954e-05
1.42134e-05
-2.90251e-06
-3.60413e-05
7.79864e-06
-4.44809e-06
-3.74569e-05
-3.7837e-06
-2.44454e-05
5.49213e-05
-2.23486e-08
-1.02807e-06
5.45532e-05
3.61189e-07
-2.80664e-06
5.3959e-05
8.07815e-07
-4.36284e-06
5.31208e-05
1.25692e-06
-5.86847e-06
5.20146e-05
1.67457e-06
-7.4924e-06
5.0621e-05
2.02751e-06
-9.37636e-06
4.89328e-05
2.28034e-06
-1.16265e-05
4.69524e-05
2.40612e-06
-1.43179e-05
4.46762e-05
2.38962e-06
-1.75103e-05
4.20656e-05
2.2211e-06
-2.12685e-05
3.9005e-05
1.87007e-06
-2.56839e-05
3.52314e-05
1.25093e-06
-3.08813e-05
3.01845e-05
1.74358e-07
-3.69166e-05
2.28435e-05
-1.63153e-06
-4.29853e-05
1.17704e-05
-3.74643e-06
-4.48023e-05
-4.07012e-06
-2.88926e-05
7.12728e-05
-2.84086e-08
-8.02258e-07
7.09622e-05
4.69735e-07
-2.31985e-06
7.04523e-05
1.02131e-06
-3.74928e-06
6.97329e-05
1.58935e-06
-5.18995e-06
6.87649e-05
2.14583e-06
-6.76894e-06
6.74911e-05
2.66054e-06
-8.62448e-06
6.58484e-05
3.09993e-06
-1.08871e-05
6.37752e-05
3.43867e-06
-1.36657e-05
6.12063e-05
3.66632e-06
-1.70456e-05
5.80435e-05
3.78986e-06
-2.10988e-05
5.41014e-05
3.81117e-06
-2.59033e-05
4.90029e-05
3.70294e-06
-3.15686e-05
4.19951e-05
3.33048e-06
-3.8204e-05
3.16014e-05
2.36203e-06
-4.51962e-05
1.59748e-05
5.48313e-07
-4.79974e-05
-1.75563e-06
-3.13252e-05
8.43448e-05
-4.69703e-08
-6.62564e-07
8.40894e-05
5.51192e-07
-1.94154e-06
8.3666e-05
1.18628e-06
-3.17344e-06
8.30764e-05
1.84191e-06
-4.43412e-06
8.22834e-05
2.50611e-06
-5.82311e-06
8.12126e-05
3.16479e-06
-7.46733e-06
7.97604e-05
3.8015e-06
-9.51246e-06
7.78059e-05
4.4079e-06
-1.2104e-05
7.52155e-05
4.99085e-06
-1.53718e-05
7.18223e-05
5.58523e-06
-1.94242e-05
6.73742e-05
6.23708e-06
-2.4354e-05
6.14031e-05
7.01115e-06
-3.02586e-05
5.30098e-05
7.90829e-06
-3.72798e-05
4.02521e-05
8.77019e-06
-4.50932e-05
2.04779e-05
8.6064e-06
-4.91572e-05
4.01211e-06
-3.26193e-05
9.41381e-05
-6.49105e-08
-5.72246e-07
9.39244e-05
6.14359e-07
-1.68001e-06
9.35728e-05
1.31488e-06
-2.74639e-06
9.30934e-05
2.03521e-06
-3.83599e-06
9.24584e-05
2.78097e-06
-5.02842e-06
9.15949e-05
3.55901e-06
-6.43302e-06
9.03846e-05
4.37825e-06
-8.19416e-06
8.86725e-05
5.25893e-06
-1.04785e-05
8.62771e-05
6.23765e-06
-1.34556e-05
8.29757e-05
7.39174e-06
-1.72796e-05
7.84639e-05
8.82297e-06
-2.20807e-05
7.21944e-05
1.07273e-05
-2.79704e-05
6.32e-05
1.32721e-05
-3.50921e-05
4.91064e-05
1.68365e-05
-4.34489e-05
2.5816e-05
2.02811e-05
-4.88186e-05
1.45783e-05
-3.28307e-05
0.000100658
-7.36193e-08
-5.07907e-07
0.000100477
6.62467e-07
-1.49266e-06
0.00010019
1.40657e-06
-2.43422e-06
9.98107e-05
2.16836e-06
-3.38924e-06
9.93215e-05
2.96922e-06
-4.42278e-06
9.86595e-05
3.83615e-06
-5.62554e-06
9.77114e-05
4.80414e-06
-7.12839e-06
9.63179e-05
5.92436e-06
-9.0982e-06
9.42857e-05
7.26646e-06
-1.17207e-05
9.13778e-05
8.95489e-06
-1.51776e-05
8.72889e-05
1.1148e-05
-1.96266e-05
8.14519e-05
1.421e-05
-2.52019e-05
7.29168e-05
1.84845e-05
-3.20128e-05
5.90916e-05
2.52523e-05
-4.03673e-05
3.36985e-05
3.48113e-05
-4.69682e-05
3.3354e-05
-3.17302e-05
0.000103911
-4.59691e-07
-6.85279e-08
0.000103757
-1.35225e-06
6.9511e-07
0.000103534
-2.19832e-06
1.45453e-06
0.000103258
-3.04835e-06
2.22826e-06
0.000102918
-3.95772e-06
3.05101e-06
0.000102464
-5.00274e-06
3.96692e-06
0.000101798
-6.29819e-06
5.03317e-06
0.000100778
-7.99749e-06
6.32583e-06
9.9232e-05
-1.02786e-05
7.9398e-06
9.6967e-05
-1.3319e-05
1.00285e-05
9.37573e-05
-1.72695e-05
1.27805e-05
8.92054e-05
-2.2252e-05
1.66691e-05
8.25879e-05
-2.83056e-05
2.21997e-05
7.16475e-05
-3.57474e-05
3.1765e-05
4.88903e-05
-4.34388e-05
4.85755e-05
-2.87201e-05
6.94413e-05
1.33459e-05
-1.0425e-07
-1.02032e-06
1.3129e-05
3.03702e-08
-1.85984e-06
1.27237e-05
1.73245e-07
-2.38234e-06
1.21656e-05
2.84571e-07
-2.85911e-06
1.14741e-05
3.69643e-07
-3.39347e-06
1.06663e-05
4.26309e-07
-4.03535e-06
9.7654e-06
4.44919e-07
-4.81511e-06
8.79975e-06
4.14829e-07
-5.7568e-06
7.7985e-06
3.24698e-07
-6.88496e-06
6.78676e-06
1.59149e-07
-8.22784e-06
5.78432e-06
-1.10977e-07
-9.81666e-06
4.80243e-06
-5.37281e-07
-1.16664e-05
3.82884e-06
-1.18618e-06
-1.37067e-05
2.75637e-06
-2.04545e-06
-1.55494e-05
1.36009e-06
-2.81372e-06
-1.5808e-05
-2.38998e-06
-1.04959e-05
3.72785e-05
-6.53287e-08
-1.15858e-06
3.68177e-05
1.74376e-07
-2.76155e-06
3.60777e-05
4.73563e-07
-3.98694e-06
3.50546e-05
7.54424e-07
-5.11191e-06
3.37492e-05
9.94965e-07
-6.3136e-06
3.21712e-05
1.17307e-06
-7.70449e-06
3.03422e-05
1.26146e-06
-9.35539e-06
2.82894e-05
1.23644e-06
-1.13132e-05
2.6032e-05
1.07932e-06
-1.3616e-05
2.35637e-05
7.69056e-07
-1.63034e-05
2.0832e-05
2.65506e-07
-1.94213e-05
1.77292e-05
-5.38075e-07
-2.29861e-05
1.40606e-05
-1.77726e-06
-2.68357e-05
9.56005e-06
-3.50897e-06
-3.00772e-05
4.15825e-06
-5.18738e-06
-2.96814e-05
-4.61185e-06
-1.80113e-05
5.79829e-05
-4.38616e-08
-9.03624e-07
5.75185e-05
3.22988e-07
-2.49083e-06
5.67656e-05
7.56325e-07
-3.89267e-06
5.57075e-05
1.19414e-06
-5.2501e-06
5.43163e-05
1.60074e-06
-6.707e-06
5.2562e-05
1.94031e-06
-8.38925e-06
5.04198e-05
2.17198e-06
-1.03948e-05
4.78697e-05
2.26155e-06
-1.2793e-05
4.4883e-05
2.1874e-06
-1.56317e-05
4.13945e-05
1.93622e-06
-1.89471e-05
3.7268e-05
1.47811e-06
-2.27699e-05
3.22306e-05
7.3284e-07
-2.71149e-05
2.58343e-05
-4.62133e-07
-3.18354e-05
1.75599e-05
-2.32522e-06
-3.58947e-05
7.50887e-06
-4.47948e-06
-3.54592e-05
-4.80733e-06
-2.10989e-05
7.52594e-05
-5.15115e-08
-7.01769e-07
7.4868e-05
4.41022e-07
-2.04657e-06
7.42147e-05
9.86707e-07
-3.32633e-06
7.32886e-05
1.55021e-06
-4.61996e-06
7.2048e-05
2.10342e-06
-6.03098e-06
7.04264e-05
2.61464e-06
-7.67719e-06
6.83415e-05
3.04554e-06
-9.67578e-06
6.57017e-05
3.36358e-06
-1.2128e-05
6.2403e-05
3.55179e-06
-1.51112e-05
5.83027e-05
3.61446e-06
-1.86768e-05
5.3172e-05
3.55672e-06
-2.28512e-05
4.66074e-05
3.36361e-06
-2.76348e-05
3.79259e-05
2.92418e-06
-3.29088e-05
2.61699e-05
1.98534e-06
-3.77508e-05
1.13489e-05
2.55816e-07
-3.79118e-05
-2.00644e-06
-2.26478e-05
8.90684e-05
-7.23699e-08
-5.7925e-07
8.87453e-05
5.32393e-07
-1.70977e-06
8.81957e-05
1.17291e-06
-2.81003e-06
8.74183e-05
1.83543e-06
-3.94195e-06
8.63739e-05
2.50933e-06
-5.18459e-06
8.49821e-05
3.18068e-06
-6.64157e-06
8.31227e-05
3.83054e-06
-8.43815e-06
8.06424e-05
4.44619e-06
-1.07062e-05
7.7358e-05
5.03071e-06
-1.35664e-05
7.30402e-05
5.61973e-06
-1.71116e-05
6.73682e-05
6.26764e-06
-2.13928e-05
5.98211e-05
7.06036e-06
-2.64082e-05
4.95124e-05
8.0356e-06
-3.20825e-05
3.49868e-05
9.10244e-06
-3.76847e-05
1.56913e-05
9.18042e-06
-3.87863e-05
4.64954e-06
-2.34122e-05
9.94129e-05
-9.22291e-08
-5.00426e-07
9.91406e-05
6.04234e-07
-1.47952e-06
9.86775e-05
1.32149e-06
-2.43191e-06
9.80284e-05
2.06109e-06
-3.41249e-06
9.71628e-05
2.83103e-06
-4.48453e-06
9.60047e-05
3.63987e-06
-5.73418e-06
9.44246e-05
4.49701e-06
-7.28049e-06
9.22384e-05
5.42287e-06
-9.26904e-06
8.92129e-05
6.45553e-06
-1.18549e-05
8.50509e-05
7.67976e-06
-1.51776e-05
7.93585e-05
9.21372e-06
-1.93343e-05
7.15125e-05
1.12856e-05
-2.43497e-05
6.05086e-05
1.41236e-05
-3.01762e-05
4.43466e-05
1.81797e-05
-3.63642e-05
2.11121e-05
2.21654e-05
-3.85692e-05
1.66199e-05
-2.34736e-05
0.0001063
-1.01636e-07
-4.44138e-07
0.000106066
6.60018e-07
-1.31499e-06
0.00010568
1.43043e-06
-2.15651e-06
0.000105147
2.22254e-06
-3.01828e-06
0.000104448
3.06079e-06
-3.9528e-06
0.000103517
3.97511e-06
-5.02996e-06
0.000102236
5.0037e-06
-6.35383e-06
0.000100423
6.20289e-06
-8.0653e-06
9.78381e-05
7.65e-06
-1.03306e-05
9.41704e-05
9.48563e-06
-1.33158e-05
8.90171e-05
1.18939e-05
-1.71535e-05
8.17184e-05
1.52874e-05
-2.1905e-05
7.1269e-05
2.00898e-05
-2.75295e-05
5.52698e-05
2.77215e-05
-3.39099e-05
2.94727e-05
3.8332e-05
-3.73376e-05
3.74095e-05
-2.27881e-05
0.000109735
-4.01712e-07
-9.55226e-08
0.000109534
-1.19134e-06
6.99781e-07
0.000109222
-1.94823e-06
1.49288e-06
0.000108807
-2.71708e-06
2.30568e-06
0.000108277
-3.54318e-06
3.17624e-06
0.000107582
-4.48453e-06
4.15236e-06
0.000106621
-5.6301e-06
5.2966e-06
0.000105238
-7.10634e-06
6.6943e-06
0.000103227
-9.0702e-06
8.45323e-06
0.000100327
-1.16844e-05
1.07505e-05
9.62295e-05
-1.50836e-05
1.38055e-05
9.04427e-05
-1.93379e-05
1.816e-05
8.2211e-05
-2.43829e-05
2.43987e-05
6.92698e-05
-3.0256e-05
3.51712e-05
4.5696e-05
-3.50799e-05
5.3547e-05
-2.0908e-05
7.55956e-05
1.39106e-05
-1.19453e-07
-8.72103e-07
1.36368e-05
8.51738e-09
-1.59454e-06
1.31537e-05
1.45912e-07
-2.04517e-06
1.24978e-05
2.5334e-07
-2.45655e-06
1.16878e-05
3.32889e-07
-2.9163e-06
1.07369e-05
3.82415e-07
-3.46693e-06
9.66442e-06
3.91036e-07
-4.13364e-06
8.49545e-06
3.46549e-07
-4.93438e-06
7.25782e-06
2.36691e-07
-5.88403e-06
5.97831e-06
4.67328e-08
-6.99506e-06
4.68537e-06
-2.50699e-07
-8.27303e-06
3.41275e-06
-6.96389e-07
-9.69738e-06
2.21169e-06
-1.34328e-06
-1.11623e-05
1.14146e-06
-2.17503e-06
-1.23041e-05
3.26654e-07
-2.93675e-06
-1.20565e-05
-2.4761e-06
-7.67452e-06
3.89017e-05
-8.33108e-08
-9.76186e-07
3.83506e-05
1.38816e-07
-2.3408e-06
3.74735e-05
4.26779e-07
-3.39064e-06
3.62699e-05
6.97996e-07
-4.353e-06
3.47382e-05
9.27752e-07
-5.37675e-06
3.28816e-05
1.09229e-06
-6.55781e-06
3.07133e-05
1.16061e-06
-7.95662e-06
2.82526e-05
1.10462e-06
-9.61061e-06
2.55138e-05
9.02827e-07
-1.15433e-05
2.24914e-05
5.3483e-07
-1.37692e-05
1.91518e-05
-3.82071e-08
-1.62942e-05
1.54365e-05
-8.97097e-07
-1.90701e-05
1.12923e-05
-2.15885e-06
-2.18759e-05
6.76838e-06
-3.83788e-06
-2.38905e-05
2.37347e-06
-5.46111e-06
-2.27621e-05
-4.83099e-06
-1.32305e-05
6.05333e-05
-6.23268e-08
-7.54112e-07
5.99845e-05
2.90609e-07
-2.09387e-06
5.90918e-05
7.12658e-07
-3.28585e-06
5.78397e-05
1.14065e-06
-4.44065e-06
5.6198e-05
1.5373e-06
-5.67485e-06
5.41296e-05
1.86471e-06
-7.09325e-06
5.15979e-05
2.07701e-06
-8.77946e-06
4.85681e-05
2.13347e-06
-1.07921e-05
4.49981e-05
2.00731e-06
-1.31663e-05
4.08167e-05
1.68485e-06
-1.59157e-05
3.58948e-05
1.14223e-06
-1.90284e-05
3.0006e-05
3.29659e-07
-2.24528e-05
2.28835e-05
-9.11766e-07
-2.59599e-05
1.43988e-05
-2.68942e-06
-2.85585e-05
5.42139e-06
-4.72621e-06
-2.72167e-05
-4.98439e-06
-1.54374e-05
7.85808e-05
-7.12864e-08
-5.83607e-07
7.81197e-05
4.17742e-07
-1.71252e-06
7.73416e-05
9.59466e-07
-2.7951e-06
7.62346e-05
1.51987e-06
-3.89217e-06
7.47546e-05
2.0709e-06
-5.08453e-06
7.28291e-05
2.5799e-06
-6.4669e-06
7.03629e-05
3.0042e-06
-8.13676e-06
6.7244e-05
3.30476e-06
-1.01805e-05
6.33434e-05
3.4587e-06
-1.2662e-05
5.84962e-05
3.46936e-06
-1.56141e-05
5.24655e-05
3.35e-06
-1.90282e-05
4.48924e-05
3.1091e-06
-2.28411e-05
3.52299e-05
2.67054e-06
-2.68287e-05
2.29915e-05
1.8564e-06
-3.00581e-05
9.13504e-06
3.04008e-07
-2.90855e-05
-1.89353e-06
-1.64781e-05
9.30042e-05
-9.40264e-08
-4.81573e-07
9.26226e-05
5.18329e-07
-1.42881e-06
9.19642e-05
1.16536e-06
-2.35751e-06
9.10237e-05
1.83541e-06
-3.317e-06
8.9759e-05
2.51926e-06
-4.36822e-06
8.80854e-05
3.20353e-06
-5.5916e-06
8.5872e-05
3.86731e-06
-7.08787e-06
8.29438e-05
4.49363e-06
-8.96689e-06
7.90857e-05
5.08132e-06
-1.13309e-05
7.40306e-05
5.66649e-06
-1.42536e-05
6.74305e-05
6.31238e-06
-1.77552e-05
5.87785e-05
7.1297e-06
-2.17768e-05
4.73079e-05
8.19636e-06
-2.61378e-05
3.20251e-05
9.47954e-06
-3.0025e-05
1.34826e-05
9.81638e-06
-2.97562e-05
5.31754e-06
-1.69738e-05
0.000103808
-1.15364e-07
-4.16131e-07
0.000103485
5.98319e-07
-1.23651e-06
0.000102926
1.33236e-06
-2.04014e-06
0.000102131
2.09076e-06
-2.87229e-06
0.000101064
2.88387e-06
-3.78227e-06
9.96464e-05
3.72218e-06
-4.83546e-06
9.77418e-05
4.61573e-06
-6.12429e-06
9.51481e-05
5.58468e-06
-7.76643e-06
9.15991e-05
6.66696e-06
-9.8915e-06
8.67518e-05
7.95189e-06
-1.26157e-05
8.01675e-05
9.56917e-06
-1.60068e-05
7.12131e-05
1.17738e-05
-2.00394e-05
5.89661e-05
1.48379e-05
-2.45708e-05
4.18311e-05
1.92631e-05
-2.90128e-05
1.90719e-05
2.36553e-05
-2.96489e-05
1.81444e-05
-1.70193e-05
0.000111
-1.25134e-07
-3.69291e-07
0.000110722
6.61435e-07
-1.09934e-06
0.00011025
1.45729e-06
-1.80971e-06
0.000109586
2.27823e-06
-2.54205e-06
0.000108704
3.15168e-06
-3.33821e-06
0.000107536
4.11046e-06
-4.25069e-06
0.00010596
5.19569e-06
-5.35808e-06
0.000103783
6.46761e-06
-6.77099e-06
0.000100737
8.00855e-06
-8.62572e-06
9.64641e-05
9.96984e-06
-1.10612e-05
9.05105e-05
1.25514e-05
-1.4182e-05
8.21878e-05
1.61975e-05
-1.8006e-05
7.05396e-05
2.13753e-05
-2.24188e-05
5.34596e-05
2.95705e-05
-2.71372e-05
2.78157e-05
4.08245e-05
-2.8863e-05
4.00574e-05
-1.66336e-05
0.000114588
-3.33831e-07
-1.17883e-07
0.000114346
-9.96016e-07
7.08002e-07
0.000113957
-1.63533e-06
1.53323e-06
0.000113425
-2.28959e-06
2.38282e-06
0.000112731
-2.99546e-06
3.29814e-06
0.000111822
-3.79634e-06
4.33036e-06
0.0001106
-4.7582e-06
5.54651e-06
0.0001089
-5.9782e-06
7.03932e-06
0.000106495
-7.58321e-06
8.92597e-06
0.00010309
-9.70939e-06
1.14003e-05
9.83257e-05
-1.24681e-05
1.47001e-05
9.16751e-05
-1.58971e-05
1.94073e-05
8.24145e-05
-1.98868e-05
2.61397e-05
6.84177e-05
-2.43493e-05
3.76607e-05
4.46609e-05
-2.7418e-05
5.69194e-05
-1.54135e-05
7.95177e-05
1.43601e-05
-1.31945e-07
-6.87859e-07
1.40385e-05
-1.23056e-08
-1.26067e-06
1.34886e-05
1.22723e-07
-1.61794e-06
1.27498e-05
2.26426e-07
-1.94421e-06
1.18404e-05
3.01111e-07
-2.30793e-06
1.07713e-05
3.44361e-07
-2.74223e-06
9.55969e-06
3.44278e-07
-3.26631e-06
8.23025e-06
2.87463e-07
-3.89241e-06
6.81325e-06
1.61106e-07
-4.62813e-06
5.34306e-06
-4.8954e-08
-5.47591e-06
3.86323e-06
-3.6507e-07
-6.42813e-06
2.43494e-06
-8.18225e-07
-7.45087e-06
1.16234e-06
-1.44897e-06
-8.44075e-06
2.0291e-07
-2.23524e-06
-9.10947e-06
-2.0622e-07
-2.94271e-06
-8.70466e-06
-2.44959e-06
-5.41315e-06
4.01993e-05
-9.82357e-08
-7.61446e-07
3.95711e-05
1.08805e-07
-1.83377e-06
3.85785e-05
3.87622e-07
-2.66295e-06
3.72231e-05
6.50606e-07
-3.42174e-06
3.55023e-05
8.71154e-07
-4.22605e-06
3.34159e-05
1.02399e-06
-5.15099e-06
3.09721e-05
1.07516e-06
-6.24371e-06
2.81876e-05
9.92937e-07
-7.53156e-06
2.50786e-05
7.54229e-07
-9.02749e-06
2.16476e-05
3.43122e-07
-1.07302e-05
1.78952e-05
-2.82514e-07
-1.26244e-05
1.38142e-05
-1.16541e-06
-1.46419e-05
9.46906e-06
-2.4123e-06
-1.65675e-05
5.09978e-06
-4.0007e-06
-1.77557e-05
1.4351e-06
-5.51333e-06
-1.65268e-05
-4.82826e-06
-9.36586e-06
6.25729e-05
-7.74926e-08
-5.84051e-07
6.19538e-05
2.64283e-07
-1.63031e-06
6.09445e-05
6.77265e-07
-2.56613e-06
5.95302e-05
1.09729e-06
-3.473e-06
5.76797e-05
1.48579e-06
-4.43899e-06
5.53517e-05
1.80326e-06
-5.54461e-06
5.25027e-05
1.9997e-06
-6.85493e-06
4.90896e-05
2.02898e-06
-8.41505e-06
4.50655e-05
1.86043e-06
-1.02484e-05
4.03663e-05
1.48241e-06
-1.23558e-05
3.48821e-05
8.79059e-07
-1.47057e-05
2.84453e-05
4.88988e-08
-1.72304e-05
2.09522e-05
-1.20265e-06
-1.96764e-05
1.25178e-05
-2.86006e-06
-2.12647e-05
4.32493e-06
-4.74289e-06
-1.97942e-05
-4.94228e-06
-1.09143e-05
8.12376e-05
-8.74718e-08
-4.50876e-07
8.07188e-05
3.99466e-07
-1.32889e-06
7.98376e-05
9.38697e-07
-2.17539e-06
7.85804e-05
1.49719e-06
-3.03486e-06
7.69013e-05
2.04706e-06
-3.96668e-06
7.47242e-05
2.55499e-06
-5.04151e-06
7.19458e-05
2.97509e-06
-6.3338e-06
6.84421e-05
3.2627e-06
-7.91045e-06
6.40703e-05
3.39001e-06
-9.81982e-06
5.86582e-05
3.36065e-06
-1.20803e-05
5.19785e-05
3.19725e-06
-1.46667e-05
4.37398e-05
2.93415e-06
-1.74876e-05
3.35176e-05
2.52557e-06
-2.03347e-05
2.11519e-05
1.85081e-06
-2.24033e-05
8.00717e-06
4.79258e-07
-2.1163e-05
-1.67177e-06
-1.16194e-05
9.61523e-05
-1.11703e-07
-3.71975e-07
9.57226e-05
5.0804e-07
-1.1077e-06
9.49748e-05
1.1616e-06
-1.83257e-06
9.38998e-05
1.83892e-06
-2.5838e-06
9.24526e-05
2.53202e-06
-3.40597e-06
9.05453e-05
3.22831e-06
-4.35763e-06
8.80405e-05
3.90556e-06
-5.51354e-06
8.47505e-05
4.5432e-06
-6.9574e-06
8.04415e-05
5.13602e-06
-8.76791e-06
7.48274e-05
5.72008e-06
-1.09989e-05
6.75564e-05
6.3663e-06
-1.36532e-05
5.81597e-05
7.2072e-06
-1.66532e-05
4.59969e-05
8.35554e-06
-1.98048e-05
3.03979e-05
9.81981e-06
-2.2395e-05
1.24093e-05
1.03776e-05
-2.16659e-05
5.8846e-06
-1.19586e-05
0.000107323
-1.34154e-07
-3.21461e-07
0.000106959
5.95144e-07
-9.58711e-07
0.000106321
1.34445e-06
-1.58577e-06
0.000105406
2.11972e-06
-2.23758e-06
0.000104173
2.9333e-06
-2.95084e-06
0.000102541
3.79763e-06
-3.77249e-06
0.000100368
4.72358e-06
-4.76938e-06
9.74426e-05
5.73095e-06
-6.02894e-06
9.34804e-05
6.85663e-06
-7.64989e-06
8.81136e-05
8.19203e-06
-9.72082e-06
8.08856e-05
9.87397e-06
-1.22866e-05
7.11807e-05
1.21763e-05
-1.53035e-05
5.81758e-05
1.54003e-05
-1.86107e-05
4.05682e-05
2.00801e-05
-2.16655e-05
1.8165e-05
2.47637e-05
-2.16319e-05
1.92439e-05
-1.20098e-05
0.00011476
-1.44082e-07
-2.85239e-07
0.000114444
6.64731e-07
-8.52561e-07
0.000113902
1.48322e-06
-1.407e-06
0.000113132
2.32953e-06
-1.98104e-06
0.000112099
3.2337e-06
-2.60646e-06
0.000110736
4.23117e-06
-3.32092e-06
0.000108916
5.36557e-06
-4.18015e-06
0.00010644
6.70016e-06
-5.26444e-06
0.000103027
8.32012e-06
-6.67587e-06
9.82954e-05
1.03831e-05
-8.52065e-06
9.1766e-05
1.30972e-05
-1.08758e-05
8.27503e-05
1.69249e-05
-1.37389e-05
7.03612e-05
2.23534e-05
-1.69828e-05
5.27144e-05
3.09006e-05
-2.03109e-05
2.72016e-05
4.25628e-05
-2.11493e-05
4.18673e-05
-1.18099e-05
0.000118469
-2.57736e-07
-1.35743e-07
0.000118193
-7.72464e-07
7.17311e-07
0.000117742
-1.27166e-06
1.57084e-06
0.000117114
-1.7849e-06
2.45256e-06
0.000116286
-2.34038e-06
3.40679e-06
0.000115202
-2.96935e-06
4.4876e-06
0.000113762
-3.71797e-06
5.76555e-06
0.000111801
-4.65561e-06
7.33903e-06
0.000109082
-5.87608e-06
9.33156e-06
0.000105291
-7.48323e-06
1.19479e-05
0.000100048
-9.56173e-06
1.54346e-05
9.28118e-05
-1.2132e-05
2.03956e-05
8.29055e-05
-1.50825e-05
2.74554e-05
6.83162e-05
-1.82955e-05
3.94361e-05
4.44732e-05
-2.02354e-05
5.92232e-05
-1.10189e-05
8.22326e-05
1.46955e-05
-1.41409e-07
-4.74759e-07
1.43372e-05
-3.10053e-08
-8.71438e-07
1.37342e-05
1.04523e-07
-1.1194e-06
1.29306e-05
2.04833e-07
-1.34546e-06
1.1944e-05
2.75503e-07
-1.59689e-06
1.07845e-05
3.13642e-07
-1.89636e-06
9.46834e-06
3.06566e-07
-2.25669e-06
8.02127e-06
2.39945e-07
-2.68528e-06
6.47759e-06
1.0072e-07
-3.18517e-06
4.8802e-06
-1.23044e-07
-3.75548e-06
3.28827e-06
-4.52893e-07
-4.38331e-06
1.78553e-06
-9.08785e-07
-5.03934e-06
5.10813e-07
-1.52053e-06
-5.64551e-06
-3.25133e-07
-2.26324e-06
-6.01028e-06
-4.6634e-07
-2.91672e-06
-5.64673e-06
-2.39786e-06
-3.46413e-06
4.11718e-05
-1.09748e-07
-5.21514e-07
4.04825e-05
8.52961e-08
-1.26079e-06
3.94002e-05
3.5727e-07
-1.83341e-06
3.79265e-05
6.13749e-07
-2.35697e-06
3.60595e-05
8.27003e-07
-2.91056e-06
3.3797e-05
9.7067e-07
-3.54554e-06
3.11454e-05
1.00847e-06
-4.29402e-06
2.81213e-05
9.06316e-07
-5.17376e-06
2.47468e-05
6.38376e-07
-6.19062e-06
2.10337e-05
1.99871e-07
-7.34008e-06
1.70159e-05
-4.64132e-07
-8.59538e-06
1.27312e-05
-1.36326e-06
-9.90267e-06
8.31865e-06
-2.57667e-06
-1.10988e-05
4.12286e-06
-4.07656e-06
-1.17466e-05
9.36302e-07
-5.48411e-06
-1.07729e-05
-4.76205e-06
-6.01594e-06
6.41018e-05
-8.90637e-08
-3.97939e-07
6.34283e-05
2.44376e-07
-1.11584e-06
6.23286e-05
6.50601e-07
-1.75978e-06
6.07886e-05
1.06467e-06
-2.38388e-06
5.87767e-05
1.44708e-06
-3.04722e-06
5.62498e-05
1.75709e-06
-3.80405e-06
5.31602e-05
1.94176e-06
-4.69861e-06
4.94619e-05
1.95081e-06
-5.76126e-06
4.51072e-05
1.75075e-06
-7.00605e-06
4.00445e-05
1.33236e-06
-8.4257e-06
3.4179e-05
6.9178e-07
-9.99612e-06
2.74196e-05
-1.86674e-07
-1.16476e-05
1.97412e-05
-1.38279e-06
-1.31919e-05
1.14207e-05
-2.93082e-06
-1.409e-05
3.74406e-06
-4.67773e-06
-1.2924e-05
-4.83976e-06
-7.01059e-06
8.32295e-05
-9.97948e-08
-3.06596e-07
8.26663e-05
3.8605e-07
-9.07337e-07
8.17058e-05
9.23887e-07
-1.48821e-06
8.03329e-05
1.48141e-06
-2.07865e-06
7.85003e-05
2.03083e-06
-2.71789e-06
7.61299e-05
2.53859e-06
-3.45261e-06
7.3114e-05
2.95649e-06
-4.33263e-06
6.93221e-05
3.23557e-06
-5.40324e-06
6.46054e-05
3.3442e-06
-6.69658e-06
5.87925e-05
3.28636e-06
-8.22146e-06
5.16785e-05
3.09259e-06
-9.95348e-06
4.3005e-05
2.81378e-06
-1.18146e-05
3.24768e-05
2.44705e-06
-1.36363e-05
2.01096e-05
1.89082e-06
-1.48578e-05
7.43042e-06
6.67191e-07
-1.38287e-05
-1.45308e-06
-7.45664e-06
9.85128e-05
-1.25151e-07
-2.52861e-07
9.8046e-05
5.00948e-07
-7.55809e-07
9.72297e-05
1.16024e-06
-1.25257e-06
9.60517e-05
1.84384e-06
-1.7683e-06
9.44644e-05
2.54472e-06
-2.33256e-06
9.23777e-05
3.25111e-06
-2.98337e-06
8.96503e-05
3.94008e-06
-3.7698e-06
8.6088e-05
4.58824e-06
-4.74778e-06
8.14476e-05
5.18706e-06
-5.97035e-06
7.54357e-05
5.77188e-06
-7.47248e-06
6.77062e-05
6.4193e-06
-9.25042e-06
5.78266e-05
7.2779e-06
-1.12377e-05
4.52591e-05
8.48853e-06
-1.32789e-05
2.95304e-05
1.00867e-05
-1.48621e-05
1.18895e-05
1.08117e-05
-1.41696e-05
6.31253e-06
-7.67607e-06
0.00010996
-1.48407e-07
-2.1851e-07
0.000109562
5.93694e-07
-6.54198e-07
0.000108865
1.35557e-06
-1.08381e-06
0.000107858
2.14463e-06
-1.53131e-06
0.000106498
2.97477e-06
-2.02142e-06
0.000104701
3.86005e-06
-2.58441e-06
0.000102323
4.81229e-06
-3.26337e-06
9.91473e-05
5.85095e-06
-4.1157e-06
9.48802e-05
7.01159e-06
-5.20731e-06
8.91428e-05
8.38608e-06
-6.59762e-06
8.14743e-05
1.01149e-05
-8.31374e-06
7.12815e-05
1.24834e-05
-1.03162e-05
5.78218e-05
1.58125e-05
-1.2475e-05
3.9975e-05
2.0658e-05
-1.43901e-05
1.77809e-05
2.55435e-05
-1.41695e-05
2.00049e-05
-7.72176e-06
0.00011758
-1.58391e-07
-1.93858e-07
0.000117234
6.68459e-07
-5.81867e-07
0.000116639
1.50528e-06
-9.61801e-07
0.000115787
2.37202e-06
-1.35602e-06
0.000114641
3.30074e-06
-1.78629e-06
0.000113128
4.32899e-06
-2.27698e-06
0.000111121
5.50247e-06
-2.86351e-06
0.000108419
6.88659e-06
-3.59772e-06
0.000104733
8.568e-06
-4.5469e-06
9.96734e-05
1.07076e-05
-5.78231e-06
9.27505e-05
1.35165e-05
-7.35449e-06
8.32841e-05
1.74667e-05
-9.25591e-06
7.04442e-05
2.30537e-05
-1.1384e-05
5.2487e-05
3.18136e-05
-1.35093e-05
2.70316e-05
4.37391e-05
-1.38895e-05
4.30895e-05
-7.62241e-06
0.00012138
-1.75115e-07
-1.49146e-07
0.000121077
-5.27228e-07
7.25863e-07
0.000120578
-8.6941e-07
1.60216e-06
0.000119878
-1.22203e-06
2.50956e-06
0.000118948
-1.60458e-06
3.49475e-06
0.000117731
-2.03739e-06
4.61406e-06
0.000116124
-2.54955e-06
5.94072e-06
0.000113964
-3.18533e-06
7.57713e-06
0.000111011
-4.00592e-06
9.65082e-06
0.000106943
-5.0809e-06
1.2373e-05
0.000101371
-6.46688e-06
1.59933e-05
9.37546e-05
-8.17544e-06
2.11266e-05
8.34512e-05
-1.01185e-05