/*--------------------------------*- C++ -*----------------------------------*\
| =========                 |                                                 |
| \\      /  F ield         | foam-extend: Open Source CFD                    |
|  \\    /   O peration     | Version:     3.1                                |
|   \\  /    A nd           | Web:         http://www.extend-project.de       |
|    \\/     M anipulation  |                                                 |
\*---------------------------------------------------------------------------*/
FoamFile
{
    version     2.0;
    format      ascii;
    class       pointVectorField;
    location    "3.4";
    object      pointMotionU;
}
// * * * * * * * * * * * * * * * * * * * * * * * * * * * * * * * * * * * * * //

dimensions      [0 1 -1 0 0 0 0];

internalField   nonuniform List<vector> 
16859
(
(0 0 0)
(0 0 0)
(0 0 0)
(0 0 0)
(0 0 0)
(0 0 0)
(0 0 0)
(0 0 0)
(0 0 0)
(0 0 0)
(0 0 0)
(0 0 0)
(0 0 0)
(0 0 0)
(0 0 0)
(0 0 0)
(0 0 0)
(0 0 0)
(-4.03594e-11 -9.91458e-12 1.88263e-13)
(-7.75849e-11 -1.94155e-11 3.48429e-13)
(-1.11252e-10 -2.87124e-11 4.61069e-13)
(-1.42114e-10 -3.82795e-11 5.01709e-13)
(-1.70733e-10 -4.85552e-11 4.24983e-13)
(-1.97457e-10 -5.99692e-11 1.50105e-13)
(-2.22371e-10 -7.29645e-11 -4.63146e-13)
(-2.45204e-10 -8.80062e-11 -1.65464e-12)
(-2.65192e-10 -1.05577e-10 -3.83163e-12)
(-2.80884e-10 -1.26134e-10 -7.67895e-12)
(-2.89943e-10 -1.49996e-10 -1.43275e-11)
(-2.89069e-10 -1.77109e-10 -2.55722e-11)
(-2.7439e-10 -2.06593e-10 -4.40059e-11)
(-2.43259e-10 -2.35841e-10 -7.2427e-11)
(-1.99197e-10 -2.57426e-10 -1.09953e-10)
(-9.26554e-11 -3.6531e-10 -2.91532e-10)
(0 0 0)
(-8.01497e-11 -1.93828e-11 3.93185e-13)
(-1.54077e-10 -3.79449e-11 7.34796e-13)
(-2.20957e-10 -5.60866e-11 9.92813e-13)
(-2.82315e-10 -7.47225e-11 1.12902e-12)
(-3.39308e-10 -9.46907e-11 1.0705e-12)
(-3.92705e-10 -1.16809e-10 6.86759e-13)
(-4.42806e-10 -1.4191e-10 -2.46756e-13)
(-4.89304e-10 -1.70868e-10 -2.10913e-12)
(-5.31054e-10 -2.04588e-10 -5.53247e-12)
(-5.65771e-10 -2.43934e-10 -1.15563e-11)
(-5.89737e-10 -2.89537e-10 -2.18487e-11)
(-5.9781e-10 -3.41357e-10 -3.89448e-11)
(-5.84471e-10 -3.97816e-10 -6.62191e-11)
(-5.47561e-10 -4.53951e-10 -1.06532e-10)
(-4.95874e-10 -4.95134e-10 -1.5674e-10)
(-4.79357e-10 -6.34739e-10 -2.79999e-10)
(0 0 0)
(-1.18875e-10 -2.80078e-11 6.26936e-13)
(-2.28526e-10 -5.48034e-11 1.1866e-12)
(-3.27763e-10 -8.09414e-11 1.64584e-12)
(-4.18908e-10 -1.07713e-10 1.97048e-12)
(-5.03773e-10 -1.3629e-10 2.08895e-12)
(-5.83666e-10 -1.67798e-10 1.87107e-12)
(-6.59324e-10 -2.03365e-10 1.09595e-12)
(-7.30782e-10 -2.44164e-10 -5.9849e-13)
(-7.97142e-10 -2.91402e-10 -3.79175e-12)
(-8.5627e-10 -3.46241e-10 -9.39021e-12)
(-9.04523e-10 -4.09562e-10 -1.87624e-11)
(-9.36864e-10 -4.81407e-10 -3.38276e-11)
(-9.48306e-10 -5.59768e-10 -5.68111e-11)
(-9.38515e-10 -6.37867e-10 -8.88059e-11)
(-9.18926e-10 -6.95057e-10 -1.26114e-10)
(-1.10458e-09 -8.9024e-10 -1.55846e-10)
(0 0 0)
(-1.56015e-10 -3.54424e-11 8.93559e-13)
(-2.99933e-10 -6.93084e-11 1.71293e-12)
(-4.30239e-10 -1.02259e-10 2.4365e-12)
(-5.50065e-10 -1.3588e-10 3.0531e-12)
(-6.6193e-10 -1.71587e-10 3.52254e-12)
(-7.67799e-10 -2.10706e-10 3.7655e-12)
(-8.69079e-10 -2.54539e-10 3.65055e-12)
(-9.6655e-10 -3.04408e-10 2.98022e-12)
(-1.06023e-09 -3.61647e-10 1.48049e-12)
(-1.1492e-09 -4.27541e-10 -1.19506e-12)
(-1.2314e-09 -5.03093e-10 -5.42164e-12)
(-1.30376e-09 -5.88441e-10 -1.14756e-11)
(-1.36313e-09 -6.81475e-10 -1.92485e-11)
(-1.40936e-09 -7.74413e-10 -2.7763e-11)
(-1.44875e-09 -8.42458e-10 -3.60226e-11)
(-1.83297e-09 -1.07455e-09 5.25209e-11)
(0 0 0)
(-1.91058e-10 -4.14097e-11 1.18829e-12)
(-3.6731e-10 -8.09211e-11 2.30297e-12)
(-5.26945e-10 -1.19251e-10 3.34428e-12)
(-6.73887e-10 -1.58183e-10 4.3387e-12)
(-8.11382e-10 -1.99274e-10 5.29939e-12)
(-9.42124e-10 -2.4394e-10 6.23178e-12)
(-1.06834e-09 -2.93517e-10 7.14791e-12)
(-1.19185e-09 -3.49301e-10 8.09981e-12)
(-1.31409e-09 -4.12552e-10 9.25164e-12)
(-1.43617e-09 -4.8444e-10 1.1023e-11)
(-1.55895e-09 -5.65869e-10 1.43456e-11)
(-1.68314e-09 -6.56995e-10 2.10468e-11)
(-1.80934e-09 -7.55952e-10 3.41599e-11)
(-1.93734e-09 -8.55228e-10 5.71167e-11)
(-2.06113e-09 -9.28788e-10 8.72661e-11)
(-2.6208e-09 -1.1879e-09 2.92768e-10)
(0 0 0)
(-2.23512e-10 -4.57118e-11 1.4989e-12)
(-4.29699e-10 -8.92625e-11 2.9293e-12)
(-6.16466e-10 -1.31375e-10 4.31898e-12)
(-7.88471e-10 -1.73935e-10 5.73874e-12)
(-9.49645e-10 -2.18542e-10 7.26323e-12)
(-1.1034e-09 -2.66591e-10 8.99162e-12)
(-1.25279e-09 -3.19319e-10 1.10865e-11)
(-1.40074e-09 -3.77836e-10 1.38478e-11)
(-1.55025e-09 -4.43113e-10 1.78511e-11)
(-1.70477e-09 -5.15937e-10 2.42011e-11)
(-1.86865e-09 -5.96789e-10 3.49634e-11)
(-2.04779e-09 -6.85547e-10 5.38087e-11)
(-2.24962e-09 -7.80632e-10 8.65833e-11)
(-2.47943e-09 -8.76039e-10 1.40054e-10)
(-2.72245e-09 -9.48478e-10 2.11001e-10)
(-3.51948e-09 -1.23841e-09 5.66334e-10)
(0 0 0)
(-2.52927e-10 -4.82327e-11 1.80863e-12)
(-4.86224e-10 -9.41178e-11 3.55501e-12)
(-6.97501e-10 -1.38344e-10 5.29448e-12)
(-8.92046e-10 -1.8281e-10 7.14044e-12)
(-1.07437e-09 -2.29072e-10 9.22288e-12)
(-1.24848e-09 -2.78412e-10 1.17196e-11)
(-1.41813e-09 -3.31869e-10 1.4909e-11)
(-1.58713e-09 -3.9024e-10 1.92627e-11)
(-1.75973e-09 -4.54042e-10 2.56081e-11)
(-1.94119e-09 -5.23438e-10 3.54114e-11)
(-2.13861e-09 -5.98118e-10 5.12477e-11)
(-2.36224e-09 -6.77126e-10 7.75195e-11)
(-2.62643e-09 -7.58522e-10 1.2127e-10)
(-2.94704e-09 -8.37993e-10 1.91608e-10)
(-3.31624e-09 -8.99545e-10 2.88889e-10)
(-4.66841e-09 -1.20185e-09 8.48194e-10)
(0 0 0)
(-2.78892e-10 -4.89323e-11 2.09962e-12)
(-5.36088e-10 -9.54233e-11 4.14138e-12)
(-7.68882e-10 -1.40102e-10 6.20352e-12)
(-9.83038e-10 -1.84801e-10 8.43333e-12)
(-1.18349e-09 -2.30969e-10 1.10001e-11)
(-1.37464e-09 -2.79719e-10 1.41301e-11)
(-1.56069e-09 -3.31836e-10 1.81597e-11)
(-1.74591e-09 -3.87746e-10 2.36218e-11)
(-1.9351e-09 -4.4744e-10 3.13854e-11)
(-2.13416e-09 -5.10338e-10 4.28734e-11)
(-2.35082e-09 -5.75097e-10 6.03802e-11)
(-2.5956e-09 -6.39313e-10 8.74522e-11)
(-2.88227e-09 -6.99006e-10 1.29042e-10)
(-3.22452e-09 -7.47232e-10 1.90085e-10)
(-3.61982e-09 -7.66953e-10 2.67174e-10)
(-5.46567e-09 -1.06116e-09 8.38041e-10)
(0 0 0)
(0 0 0)
(0 0 0)
(0 0 0)
(0 0 0)
(0 0 0)
(0 0 0)
(0 0 0)
(0 0 0)
(0 0 0)
(0 0 0)
(0 0 0)
(0 0 0)
(0 0 0)
(0 0 0)
(0 0 0)
(0 0 0)
(0 0 0)
(-4.06254e-11 -1.04456e-11 1.52884e-13)
(-7.8065e-11 -2.04761e-11 2.73567e-13)
(-1.11869e-10 -3.03346e-11 3.35822e-13)
(-1.42773e-10 -4.05454e-11 3.05628e-13)
(-1.71301e-10 -5.15993e-11 1.2441e-13)
(-1.9774e-10 -6.39858e-11 -3.08071e-13)
(-2.22067e-10 -7.82195e-11 -1.16138e-12)
(-2.43842e-10 -9.48572e-11 -2.71997e-12)
(-2.62037e-10 -1.14498e-10 -5.45847e-12)
(-2.7481e-10 -1.37751e-10 -1.01624e-11)
(-2.7927e-10 -1.65131e-10 -1.81104e-11)
(-2.71411e-10 -1.9684e-10 -3.13053e-11)
(-2.46636e-10 -2.32318e-10 -5.25995e-11)
(-2.02179e-10 -2.69329e-10 -8.49007e-11)
(-1.4572e-10 -3.00968e-10 -1.25295e-10)
(3.49052e-11 -3.17593e-10 -2.55728e-10)
(0 0 0)
(-8.06864e-11 -2.04179e-11 3.23834e-13)
(-1.5505e-10 -4.00111e-11 5.8817e-13)
(-2.22217e-10 -5.92444e-11 7.47849e-13)
(-2.83681e-10 -7.91285e-11 7.46218e-13)
(-3.40534e-10 -1.00602e-10 4.85031e-13)
(-3.93427e-10 -1.24595e-10 -2.03164e-13)
(-4.42467e-10 -1.52078e-10 -1.59831e-12)
(-4.8703e-10 -1.84097e-10 -4.16251e-12)
(-5.25478e-10 -2.21779e-10 -8.65098e-12)
(-5.5478e-10 -2.66286e-10 -1.62817e-11)
(-5.70161e-10 -3.18643e-10 -2.89699e-11)
(-5.65123e-10 -3.79374e-10 -4.9562e-11)
(-5.32846e-10 -4.47754e-10 -8.17237e-11)
(-4.71241e-10 -5.20204e-10 -1.28141e-10)
(-3.96078e-10 -5.84577e-10 -1.82178e-10)
(-2.19814e-10 -6.79945e-10 -3.07639e-10)
(0 0 0)
(-1.1969e-10 -2.94967e-11 5.26204e-13)
(-2.30012e-10 -5.77727e-11 9.73921e-13)
(-3.2971e-10 -8.54733e-11 1.29132e-12)
(-4.21067e-10 -1.14026e-10 1.41807e-12)
(-5.05814e-10 -1.44741e-10 1.24712e-12)
(-5.85108e-10 -1.78898e-10 5.96984e-13)
(-6.59432e-10 -2.17816e-10 -8.29094e-13)
(-7.28403e-10 -2.62898e-10 -3.50492e-12)
(-7.9046e-10 -3.15661e-10 -8.17142e-12)
(-8.42444e-10 -3.77678e-10 -1.5959e-11)
(-8.79201e-10 -4.50411e-10 -2.85228e-11)
(-8.93664e-10 -5.34778e-10 -4.80819e-11)
(-8.78681e-10 -6.30225e-10 -7.6978e-11)
(-8.33369e-10 -7.32538e-10 -1.15592e-10)
(-7.76122e-10 -8.25627e-10 -1.56009e-10)
(-6.67305e-10 -9.78727e-10 -2.30974e-10)
(0 0 0)
(-1.57117e-10 -3.73143e-11 7.6503e-13)
(-3.01954e-10 -7.3038e-11 1.44205e-12)
(-4.32923e-10 -1.07943e-10 1.98623e-12)
(-5.53117e-10 -1.43779e-10 2.35417e-12)
(-6.64975e-10 -1.82128e-10 2.46242e-12)
(-7.70301e-10 -2.24501e-10 2.16976e-12)
(-8.70225e-10 -2.72419e-10 1.2547e-12)
(-9.65066e-10 -3.27472e-10 -6.10544e-13)
(-1.0541e-09 -3.91352e-10 -3.88328e-12)
(-1.13519e-09 -4.6583e-10 -9.15326e-12)
(-1.20446e-09 -5.52616e-10 -1.70811e-11)
(-1.25604e-09 -6.52971e-10 -2.81756e-11)
(-1.28321e-09 -7.66731e-10 -4.22141e-11)
(-1.28279e-09 -8.89592e-10 -5.70241e-11)
(-1.26447e-09 -1.00273e-09 -6.74223e-11)
(-1.20211e-09 -1.18664e-09 -7.36253e-11)
(0 0 0)
(-1.92451e-10 -4.35799e-11 1.03625e-12)
(-3.69882e-10 -8.52402e-11 1.98321e-12)
(-5.30405e-10 -1.2582e-10 2.81462e-12)
(-6.77923e-10 -1.67286e-10 3.52034e-12)
(-8.15609e-10 -2.11378e-10 4.06497e-12)
(-9.46013e-10 -2.59708e-10 4.38538e-12)
(-1.0711e-09 -3.13839e-10 4.39505e-12)
(-1.19225e-09 -3.75347e-10 4.00574e-12)
(-1.31018e-09 -4.45851e-10 3.18848e-12)
(-1.42479e-09 -5.27017e-10 2.11464e-12)
(-1.53497e-09 -6.20495e-10 1.444e-12)
(-1.63824e-09 -7.27684e-10 2.83421e-12)
(-1.73024e-09 -8.48983e-10 9.6045e-12)
(-1.80425e-09 -9.81093e-10 2.66641e-11)
(-1.85017e-09 -1.10521e-09 5.47747e-11)
(-1.80919e-09 -1.31116e-09 1.23245e-10)
(0 0 0)
(-2.25194e-10 -4.80873e-11 1.32805e-12)
(-4.32823e-10 -9.39841e-11 2.57091e-12)
(-6.20721e-10 -1.3854e-10 3.7277e-12)
(-7.93544e-10 -1.83833e-10 4.83006e-12)
(-9.55176e-10 -2.31647e-10 5.90118e-12)
(-1.10891e-09 -2.83572e-10 6.96848e-12)
(-1.25761e-09 -3.41062e-10 8.09267e-12)
(-1.40381e-09 -4.05482e-10 9.43005e-12)
(-1.54992e-09 -4.78121e-10 1.1361e-11)
(-1.69834e-09 -5.60199e-10 1.47417e-11)
(-1.85176e-09 -6.52855e-10 2.13709e-11)
(-2.0132e-09 -7.57109e-10 3.47657e-11)
(-2.18519e-09 -8.73621e-10 6.11077e-11)
(-2.36521e-09 -1.00084e-09 1.08697e-10)
(-2.52585e-09 -1.12344e-09 1.76392e-10)
(-2.59082e-09 -1.36332e-09 3.40829e-10)
(0 0 0)
(-2.54887e-10 -5.07171e-11 1.62386e-12)
(-4.89882e-10 -9.90493e-11 3.1685e-12)
(-7.02537e-10 -1.45811e-10 4.65974e-12)
(-8.9816e-10 -1.9309e-10 6.17079e-12)
(-1.08125e-09 -2.42622e-10 7.77964e-12)
(-1.25573e-09 -2.95868e-10 9.59238e-12)
(-1.42523e-09 -3.54059e-10 1.17865e-11)
(-1.59329e-09 -4.18198e-10 1.46924e-11)
(-1.76372e-09 -4.89042e-10 1.8946e-11)
(-1.94106e-09 -5.67053e-10 2.57668e-11)
(-2.13128e-09 -6.52354e-10 3.7452e-11)
(-2.34274e-09 -7.44748e-10 5.82e-11)
(-2.5868e-09 -8.43894e-10 9.52453e-11)
(-2.87432e-09 -9.491e-10 1.58929e-10)
(-3.18112e-09 -1.05187e-09 2.50332e-10)
(-3.77599e-09 -1.23796e-09 5.29008e-10)
(0 0 0)
(-2.81106e-10 -5.14303e-11 1.90569e-12)
(-5.40241e-10 -1.00376e-10 3.73698e-12)
(-7.74648e-10 -1.47584e-10 5.54282e-12)
(-9.90137e-10 -1.95069e-10 7.43076e-12)
(-1.19166e-09 -2.44444e-10 9.51958e-12)
(-1.38359e-09 -2.96979e-10 1.19666e-11)
(-1.57005e-09 -3.53613e-10 1.50124e-11)
(-1.75515e-09 -4.14922e-10 1.9057e-11)
(-1.94344e-09 -4.81037e-10 2.47878e-11)
(-2.14039e-09 -5.51512e-10 3.33905e-11)
(-2.35312e-09 -6.25128e-10 4.687e-11)
(-2.59124e-09 -6.9962e-10 6.84756e-11)
(-2.86737e-09 -7.71237e-10 1.0299e-10)
(-3.19379e-09 -8.33512e-10 1.555e-10)
(-3.56118e-09 -8.70179e-10 2.21545e-10)
(-4.67138e-09 -9.65619e-10 4.52453e-10)
(0 0 0)
(0 0 0)
(0 0 0)
(0 0 0)
(0 0 0)
(0 0 0)
(0 0 0)
(0 0 0)
(0 0 0)
(0 0 0)
(0 0 0)
(0 0 0)
(0 0 0)
(0 0 0)
(0 0 0)
(0 0 0)
(0 0 0)
(0 0 0)
(-4.08136e-11 -1.09416e-11 1.14209e-13)
(-7.83957e-11 -2.14666e-11 1.93445e-13)
(-1.12267e-10 -3.18483e-11 2.0585e-13)
(-1.43134e-10 -4.26549e-11 1.09226e-13)
(-1.71479e-10 -5.44225e-11 -1.66119e-13)
(-1.97518e-10 -6.76899e-11 -7.36505e-13)
(-2.21117e-10 -8.30274e-11 -1.79509e-12)
(-2.41672e-10 -1.01055e-10 -3.66041e-12)
(-2.57905e-10 -1.22441e-10 -6.85365e-12)
(-2.67627e-10 -1.47855e-10 -1.22166e-11)
(-2.67485e-10 -1.7783e-10 -2.10746e-11)
(-2.52919e-10 -2.12437e-10 -3.54025e-11)
(-2.18795e-10 -2.50581e-10 -5.7763e-11)
(-1.6211e-10 -2.88552e-10 -9.01101e-11)
(-9.17748e-11 -3.1737e-10 -1.27999e-10)
(1.47039e-10 -3.24051e-10 -2.38539e-10)
(0 0 0)
(-8.10704e-11 -2.13851e-11 2.47058e-13)
(-1.55728e-10 -4.19417e-11 4.29136e-13)
(-2.23046e-10 -6.21922e-11 4.89912e-13)
(-2.84462e-10 -8.32324e-11 3.56481e-13)
(-3.40988e-10 -1.06088e-10 -9.15882e-14)
(-3.93144e-10 -1.31781e-10 -1.05399e-12)
(-4.4083e-10 -1.61389e-10 -2.85862e-12)
(-4.83099e-10 -1.96076e-10 -6.0382e-12)
(-5.17829e-10 -2.371e-10 -1.14483e-11)
(-5.41284e-10 -2.85739e-10 -2.0439e-11)
(-5.47705e-10 -3.43061e-10 -3.5073e-11)
(-5.29333e-10 -4.09373e-10 -5.82871e-11)
(-4.77954e-10 -4.83034e-10 -9.35812e-11)
(-3.90544e-10 -5.58001e-10 -1.42828e-10)
(-2.85257e-10 -6.18817e-10 -1.97943e-10)
(-1.94428e-11 -6.99289e-10 -3.25688e-10)
(0 0 0)
(-1.20282e-10 -3.0888e-11 4.12458e-13)
(-2.31065e-10 -6.05477e-11 7.38389e-13)
(-3.31021e-10 -8.97053e-11 9.09494e-13)
(-4.22363e-10 -1.19908e-10 8.41375e-13)
(-5.06712e-10 -1.52586e-10 3.94032e-13)
(-5.85048e-10 -1.89149e-10 -6.62325e-13)
(-6.57569e-10 -2.31058e-10 -2.69743e-12)
(-7.23443e-10 -2.7988e-10 -6.29527e-12)
(-7.80411e-10 -3.37304e-10 -1.23606e-11)
(-8.24247e-10 -4.05066e-10 -2.22595e-11)
(-8.48201e-10 -4.84688e-10 -3.79672e-11)
(-8.42919e-10 -5.76813e-10 -6.20962e-11)
(-7.98246e-10 -6.79697e-10 -9.73866e-11)
(-7.10322e-10 -7.85894e-10 -1.44454e-10)
(-6.00413e-10 -8.74938e-10 -1.94743e-10)
(-3.33446e-10 -1.00431e-09 -3.05981e-10)
(0 0 0)
(-1.57928e-10 -3.90641e-11 6.1617e-13)
(-3.03412e-10 -7.65244e-11 1.134e-12)
(-4.34777e-10 -1.13251e-10 1.48731e-12)
(-5.5504e-10 -1.5114e-10 1.60141e-12)
(-6.66518e-10 -1.91919e-10 1.34997e-12)
(-7.70811e-10 -2.37249e-10 5.28235e-13)
(-8.68717e-10 -2.8882e-10 -1.1825e-12)
(-9.60018e-10 -3.48406e-10 -4.26049e-12)
(-1.04313e-09 -4.179e-10 -9.39618e-12)
(-1.11453e-09 -4.9925e-10 -1.75386e-11)
(-1.16809e-09 -5.94236e-10 -2.98986e-11)
(-1.19437e-09 -7.038e-10 -4.78207e-11)
(-1.18115e-09 -8.26361e-10 -7.23331e-11)
(-1.11852e-09 -9.53695e-10 -1.02935e-10)
(-1.01843e-09 -1.06146e-09 -1.34374e-10)
(-6.99734e-10 -1.21176e-09 -2.12095e-10)
(0 0 0)
(-1.93491e-10 -4.5609e-11 8.54972e-13)
(-3.71772e-10 -8.92786e-11 1.60846e-12)
(-5.3286e-10 -1.31956e-10 2.20869e-12)
(-6.80585e-10 -1.75774e-10 2.60803e-12)
(-8.18001e-10 -2.22628e-10 2.71974e-12)
(-9.47451e-10 -2.74292e-10 2.40425e-12)
(-1.07056e-09 -3.32506e-10 1.4568e-12)
(-1.18813e-09 -3.99031e-10 -3.97355e-13)
(-1.29993e-09 -4.75684e-10 -3.48521e-12)
(-1.4043e-09 -5.64303e-10 -8.11831e-12)
(-1.4974e-09 -6.66588e-10 -1.44339e-11)
(-1.57195e-09 -7.83584e-10 -2.21203e-11)
(-1.61545e-09 -9.14158e-10 -3.01425e-11)
(-1.60956e-09 -1.05069e-09 -3.70231e-11)
(-1.54406e-09 -1.16809e-09 -4.25542e-11)
(-1.12957e-09 -1.32957e-09 -7.92101e-11)
(0 0 0)
(-2.26469e-10 -5.03087e-11 1.11795e-12)
(-4.35161e-10 -9.83995e-11 2.13727e-12)
(-6.23817e-10 -1.45236e-10 3.02833e-12)
(-7.97033e-10 -1.93066e-10 3.78066e-12)
(-9.58587e-10 -2.43836e-10 4.35989e-12)
(-1.11159e-09 -2.99295e-10 4.70789e-12)
(-1.25856e-09 -3.61065e-10 4.75245e-12)
(-1.40152e-09 -4.30679e-10 4.43815e-12)
(-1.54194e-09 -5.09594e-10 3.80065e-12)
(-1.68067e-09 -5.99154e-10 3.12022e-12)
(-1.81755e-09 -7.0049e-10 3.19832e-12)
(-1.95031e-09 -8.14209e-10 5.75153e-12)
(-2.07178e-09 -9.39369e-10 1.36309e-11)
(-2.1639e-09 -1.06997e-09 2.95736e-11)
(-2.19503e-09 -1.18403e-09 5.01418e-11)
(-1.79213e-09 -1.37091e-09 6.23086e-11)
(0 0 0)
(-2.56393e-10 -5.30404e-11 1.38938e-12)
(-4.92668e-10 -1.03661e-10 2.68558e-12)
(-7.06288e-10 -1.5279e-10 3.88366e-12)
(-9.02521e-10 -2.02684e-10 5.01192e-12)
(-1.08578e-09 -2.55234e-10 6.08761e-12)
(-1.25984e-09 -3.12051e-10 7.12711e-12)
(-1.42805e-09 -3.7451e-10 8.16923e-12)
(-1.59348e-09 -4.43752e-10 9.32382e-12)
(-1.75916e-09 -5.20641e-10 1.08666e-11)
(-1.92825e-09 -6.05687e-10 1.34104e-11)
(-2.10423e-09 -6.98891e-10 1.81838e-11)
(-2.29066e-09 -7.99496e-10 2.73944e-11)
(-2.48966e-09 -9.05413e-10 4.43862e-11)
(-2.69583e-09 -1.01135e-09 7.22896e-11)
(-2.87583e-09 -1.10172e-09 1.06765e-10)
(-3.03451e-09 -1.21949e-09 1.70576e-10)
(0 0 0)
(-2.82833e-10 -5.37663e-11 1.65189e-12)
(-5.43456e-10 -1.05008e-10 3.21569e-12)
(-7.79037e-10 -1.5458e-10 4.7089e-12)
(-9.95365e-10 -2.04656e-10 6.19339e-12)
(-1.19733e-09 -2.56996e-10 7.72723e-12)
(-1.38921e-09 -3.12999e-10 9.37935e-12)
(-1.57489e-09 -3.73722e-10 1.12557e-11)
(-1.75813e-09 -4.39833e-10 1.3545e-11)
(-1.94287e-09 -5.11508e-10 1.65961e-11)
(-2.13351e-09 -5.88251e-10 2.10351e-11)
(-2.33528e-09 -6.68581e-10 2.79098e-11)
(-2.55433e-09 -7.49481e-10 3.87602e-11)
(-2.79667e-09 -8.25284e-10 5.52302e-11)
(-3.06348e-09 -8.85048e-10 7.70596e-11)
(-3.33762e-09 -9.04865e-10 9.55945e-11)
(-4.08691e-09 -8.78877e-10 9.39833e-11)
(0 0 0)
(0 0 0)
(0 0 0)
(0 0 0)
(0 0 0)
(0 0 0)
(0 0 0)
(0 0 0)
(0 0 0)
(0 0 0)
(0 0 0)
(0 0 0)
(0 0 0)
(0 0 0)
(0 0 0)
(0 0 0)
(0 0 0)
(0 0 0)
(-4.09392e-11 -1.13878e-11 7.71778e-14)
(-7.86061e-11 -2.2357e-11 1.18667e-13)
(-1.12491e-10 -3.32067e-11 8.9337e-14)
(-1.4327e-10 -4.45425e-11 -5.80674e-14)
(-1.71382e-10 -5.69374e-11 -3.99684e-13)
(-1.96975e-10 -7.09678e-11 -1.06056e-12)
(-2.19824e-10 -8.72426e-11 -2.24554e-12)
(-2.39193e-10 -1.06419e-10 -4.28744e-12)
(-2.53636e-10 -1.29192e-10 -7.72026e-12)
(-2.60766e-10 -1.56228e-10 -1.33836e-11)
(-2.57059e-10 -1.8799e-10 -2.25501e-11)
(-2.37916e-10 -2.24349e-10 -3.70102e-11)
(-1.98523e-10 -2.63813e-10 -5.88703e-11)
(-1.36834e-10 -3.0218e-10 -8.92645e-11)
(-6.33986e-11 -3.306e-10 -1.23333e-10)
(1.64383e-10 -3.43273e-10 -2.15611e-10)
(0 0 0)
(-8.13294e-11 -2.22549e-11 1.72522e-13)
(-1.56167e-10 -4.3677e-11 2.78432e-13)
(-2.23527e-10 -6.48379e-11 2.5454e-13)
(-2.84789e-10 -8.69052e-11 1.72929e-14)
(-3.40884e-10 -1.10975e-10 -5.67674e-13)
(-3.92205e-10 -1.38142e-10 -1.71967e-12)
(-4.38468e-10 -1.69555e-10 -3.79458e-12)
(-4.7847e-10 -2.06448e-10 -7.36356e-12)
(-5.09739e-10 -2.50126e-10 -1.33296e-11)
(-5.28104e-10 -3.01854e-10 -2.30867e-11)
(-5.27351e-10 -3.62549e-10 -3.86971e-11)
(-4.99428e-10 -4.32091e-10 -6.2958e-11)
(-4.36418e-10 -5.07974e-10 -9.89211e-11)
(-3.3696e-10 -5.82985e-10 -1.4759e-10)
(-2.23083e-10 -6.41659e-10 -2.00275e-10)
(2.06771e-11 -7.19797e-10 -3.1459e-10)
(0 0 0)
(-1.20687e-10 -3.21395e-11 2.99704e-13)
(-2.31762e-10 -6.30425e-11 5.10021e-13)
(-3.31814e-10 -9.35042e-11 5.51732e-13)
(-4.22978e-10 -1.25173e-10 3.23403e-13)
(-5.06761e-10 -1.59579e-10 -3.37936e-13)
(-5.8397e-10 -1.98229e-10 -1.69571e-12)
(-6.54543e-10 -2.42682e-10 -4.17056e-12)
(-7.17268e-10 -2.94599e-10 -8.42355e-12)
(-7.69349e-10 -3.55726e-10 -1.54728e-11)
(-8.05831e-10 -4.27768e-10 -2.68424e-11)
(-8.19058e-10 -5.12008e-10 -4.47045e-11)
(-7.98742e-10 -6.08425e-10 -7.18673e-11)
(-7.3434e-10 -7.13909e-10 -1.1115e-10)
(-6.23634e-10 -8.19061e-10 -1.62892e-10)
(-4.94532e-10 -9.03128e-10 -2.17438e-10)
(-2.50246e-10 -1.01872e-09 -3.30667e-10)
(0 0 0)
(-1.58494e-10 -4.06384e-11 4.64782e-13)
(-3.04401e-10 -7.96596e-11 8.26876e-13)
(-4.35947e-10 -1.18017e-10 1.0048e-12)
(-5.5606e-10 -1.57733e-10 8.99801e-13)
(-6.66922e-10 -2.00651e-10 3.52425e-13)
(-7.69926e-10 -2.48552e-10 -8.92074e-13)
(-8.65553e-10 -3.03236e-10 -3.23135e-12)
(-9.53109e-10 -3.66584e-10 -7.27041e-12)
(-1.03029e-09 -4.40546e-10 -1.39037e-11)
(-1.09255e-09 -5.2702e-10 -2.44058e-11)
(-1.13225e-09 -6.27474e-10 -4.04948e-11)
(-1.13804e-09 -7.41999e-10 -6.42633e-11)
(-1.09587e-09 -8.67237e-10 -9.76845e-11)
(-9.96352e-10 -9.92321e-10 -1.40839e-10)
(-8.60841e-10 -1.09232e-09 -1.86264e-10)
(-5.50208e-10 -1.21729e-09 -2.8614e-10)
(0 0 0)
(-1.94233e-10 -4.74351e-11 6.65405e-13)
(-3.73086e-10 -9.29109e-11 1.22346e-12)
(-5.34475e-10 -1.37469e-10 1.60264e-12)
(-6.82132e-10 -1.8338e-10 1.72432e-12)
(-8.18972e-10 -2.32669e-10 1.45851e-12)
(-9.47115e-10 -2.87238e-10 5.99245e-13)
(-1.06784e-09 -3.48943e-10 -1.16548e-12)
(-1.18141e-09 -4.1965e-10 -4.28819e-12)
(-1.28678e-09 -5.01226e-10 -9.39486e-12)
(-1.38096e-09 -5.95441e-10 -1.73034e-11)
(-1.45811e-09 -7.03646e-10 -2.90047e-11)
(-1.50799e-09 -8.2596e-10 -4.55762e-11)
(-1.51443e-09 -9.59307e-10 -6.79784e-11)
(-1.45761e-09 -1.09311e-09 -9.64197e-11)
(-1.33849e-09 -1.20147e-09 -1.27256e-10)
(-9.02565e-10 -1.33095e-09 -2.08962e-10)
(0 0 0)
(-2.27396e-10 -5.2308e-11 8.91972e-13)
(-4.36828e-10 -1.02372e-10 1.67815e-12)
(-6.25932e-10 -1.51253e-10 2.30527e-12)
(-7.99213e-10 -2.01345e-10 2.72574e-12)
(-9.60316e-10 -2.54728e-10 2.85345e-12)
(-1.11213e-09 -3.13274e-10 2.55048e-12)
(-1.25684e-09 -3.7872e-10 1.61486e-12)
(-1.39591e-09 -4.5269e-10 -2.26367e-13)
(-1.52996e-09 -5.36675e-10 -3.30979e-12)
(-1.65843e-09 -6.31933e-10 -8.00154e-12)
(-1.77888e-09 -7.39241e-10 -1.46291e-11)
(-1.88545e-09 -8.58318e-10 -2.34094e-11)
(-1.96602e-09 -9.86421e-10 -3.44969e-11)
(-1.99916e-09 -1.11488e-09 -4.82554e-11)
(-1.96474e-09 -1.22112e-09 -6.4375e-11)
(-1.51137e-09 -1.38364e-09 -1.25991e-10)
(0 0 0)
(-2.5751e-10 -5.51318e-11 1.13023e-12)
(-4.94702e-10 -1.07812e-10 2.15937e-12)
(-7.08938e-10 -1.59065e-10 3.05589e-12)
(-9.05408e-10 -2.11292e-10 3.80661e-12)
(-1.08841e-09 -2.66516e-10 4.37145e-12)
(-1.26152e-09 -3.26462e-10 4.6792e-12)
(-1.42777e-09 -3.92607e-10 4.62723e-12)
(-1.58973e-09 -4.66159e-10 4.08972e-12)
(-1.74964e-09 -5.47994e-10 2.94075e-12)
(-1.90933e-09 -6.38505e-10 1.097e-12)
(-2.07013e-09 -7.37338e-10 -1.4329e-12)
(-2.23214e-09 -8.42927e-10 -4.56121e-12)
(-2.3925e-09 -9.51655e-10 -8.38127e-12)
(-2.54194e-09 -1.05623e-09 -1.38523e-11)
(-2.65773e-09 -1.14127e-09 -2.26008e-11)
(-2.7776e-09 -1.26294e-09 -6.34114e-11)
(0 0 0)
(-2.84135e-10 -5.58695e-11 1.36419e-12)
(-5.45854e-10 -1.09178e-10 2.63237e-12)
(-7.82228e-10 -1.60871e-10 3.79382e-12)
(-9.98989e-10 -2.13264e-10 4.86673e-12)
(-1.20093e-09 -2.68235e-10 5.85e-12)
(-1.39217e-09 -3.27289e-10 6.72392e-12)
(-1.57632e-09 -3.91561e-10 7.45417e-12)
(-1.75673e-09 -4.61764e-10 8.00092e-12)
(-1.93666e-09 -5.38051e-10 8.33309e-12)
(-2.11944e-09 -6.19776e-10 8.43865e-12)
(-2.30858e-09 -7.05083e-10 8.29321e-12)
(-2.50754e-09 -7.90177e-10 7.68144e-12)
(-2.71883e-09 -8.67997e-10 5.65961e-12)
(-2.94153e-09 -9.25757e-10 -4.73087e-13)
(-3.16764e-09 -9.38793e-10 -1.5768e-11)
(-3.94073e-09 -9.46669e-10 -8.58774e-11)
(0 0 0)
(0 0 0)
(0 0 0)
(0 0 0)
(0 0 0)
(0 0 0)
(0 0 0)
(0 0 0)
(0 0 0)
(0 0 0)
(0 0 0)
(0 0 0)
(0 0 0)
(0 0 0)
(0 0 0)
(0 0 0)
(0 0 0)
(0 0 0)
(-4.10168e-11 -1.17708e-11 4.59256e-14)
(-7.87263e-11 -2.31206e-11 5.81182e-14)
(-1.12591e-10 -3.43692e-11 1.52681e-15)
(-1.43258e-10 -4.61527e-11 -1.71494e-13)
(-1.71127e-10 -5.90721e-11 -5.36558e-13)
(-1.96297e-10 -7.37309e-11 -1.21648e-12)
(-2.18477e-10 -9.07621e-11 -2.41027e-12)
(-2.36858e-10 -1.1084e-10 -4.43689e-12)
(-2.49938e-10 -1.3466e-10 -7.79836e-12)
(-2.55335e-10 -1.62861e-10 -1.32623e-11)
(-2.49707e-10 -1.95834e-10 -2.19454e-11)
(-2.29005e-10 -2.33334e-10 -3.53239e-11)
(-1.89572e-10 -2.73787e-10 -5.49485e-11)
(-1.31147e-10 -3.1318e-10 -8.12485e-11)
(-6.50832e-11 -3.43241e-10 -1.0956e-10)
(1.26583e-10 -3.71829e-10 -1.81002e-10)
(0 0 0)
(-8.14918e-11 -2.30016e-11 1.08367e-13)
(-1.56423e-10 -4.51651e-11 1.53538e-13)
(-2.23755e-10 -6.71021e-11 7.17461e-14)
(-2.84813e-10 -9.00384e-11 -2.22551e-13)
(-3.40452e-10 -1.15124e-10 -8.64797e-13)
(-3.90968e-10 -1.43506e-10 -2.0738e-12)
(-4.35948e-10 -1.76376e-10 -4.20147e-12)
(-4.74036e-10 -2.15e-10 -7.80647e-12)
(-5.02622e-10 -2.6068e-10 -1.3758e-11)
(-5.1749e-10 -3.14613e-10 -2.33657e-11)
(-5.12671e-10 -3.7754e-10 -3.84969e-11)
(-4.80993e-10 -4.49029e-10 -6.15369e-11)
(-4.16564e-10 -5.26185e-10 -9.47896e-11)
(-3.2137e-10 -6.01683e-10 -1.38295e-10)
(-2.1939e-10 -6.60737e-10 -1.8357e-10)
(-3.31277e-11 -7.43241e-10 -2.73673e-10)
(0 0 0)
(-1.20947e-10 -3.32139e-11 1.99831e-13)
(-2.32183e-10 -6.51821e-11 3.14346e-13)
(-3.32223e-10 -9.67561e-11 2.61888e-13)
(-4.23125e-10 -1.29667e-10 -6.45141e-14)
(-5.06294e-10 -1.65519e-10 -8.33836e-13)
(-5.82393e-10 -2.0589e-10 -2.31689e-12)
(-6.51172e-10 -2.52401e-10 -4.94401e-12)
(-7.11184e-10 -3.06749e-10 -9.38785e-12)
(-7.59377e-10 -3.70668e-10 -1.66756e-11)
(-7.90618e-10 -4.45748e-10 -2.83212e-11)
(-7.97363e-10 -5.32978e-10 -4.64249e-11)
(-7.70197e-10 -6.31772e-10 -7.35664e-11)
(-7.00997e-10 -7.3819e-10 -1.12032e-10)
(-5.9217e-10 -8.4216e-10 -1.61269e-10)
(-4.75573e-10 -9.2362e-10 -2.11225e-10)
(-3.07713e-10 -1.0349e-09 -3.05064e-10)
(0 0 0)
(-1.58867e-10 -4.19901e-11 3.26158e-13)
(-3.05023e-10 -8.2349e-11 5.53498e-13)
(-4.36602e-10 -1.22099e-10 5.94985e-13)
(-5.56442e-10 -1.63362e-10 3.40858e-13)
(-6.666e-10 -2.08075e-10 -3.82435e-13)
(-7.68296e-10 -2.58099e-10 -1.85065e-12)
(-8.6177e-10 -3.15308e-10 -4.49522e-12)
(-9.46008e-10 -3.8162e-10 -8.97666e-12)
(-1.01833e-09 -4.58962e-10 -1.6279e-11)
(-1.07379e-09 -5.4908e-10 -2.78126e-11)
(-1.10457e-09 -6.53051e-10 -4.54758e-11)
(-1.09984e-09 -7.70201e-10 -7.15275e-11)
(-1.0478e-09 -8.95987e-10 -1.07884e-10)
(-9.44547e-10 -1.0184e-09 -1.53884e-10)
(-8.181e-10 -1.11324e-09 -2.00351e-10)
(-5.96528e-10 -1.22613e-09 -2.88181e-10)
(0 0 0)
(-1.94735e-10 -4.90034e-11 4.85787e-13)
(-3.73944e-10 -9.6028e-11 8.6725e-13)
(-5.35442e-10 -1.42192e-10 1.06332e-12)
(-6.82867e-10 -1.89878e-10 9.77731e-13)
(-8.18995e-10 -2.41214e-10 4.56453e-13)
(-9.45755e-10 -2.9819e-10 -7.43897e-13)
(-1.06415e-09 -3.62737e-10 -2.99792e-12)
(-1.17406e-09 -4.36757e-10 -6.86559e-12)
(-1.27394e-09 -5.22087e-10 -1.31572e-11)
(-1.36022e-09 -6.20327e-10 -2.29982e-11)
(-1.4265e-09 -7.32409e-10 -3.78599e-11)
(-1.46248e-09 -8.57639e-10 -5.9466e-11)
(-1.45367e-09 -9.91681e-10 -8.93247e-11)
(-1.38587e-09 -1.12272e-09 -1.2714e-10)
(-1.26919e-09 -1.22552e-09 -1.65983e-10)
(-9.23195e-10 -1.3404e-09 -2.4421e-10)
(0 0 0)
(-2.28039e-10 -5.40257e-11 6.70732e-13)
(-4.37954e-10 -1.05782e-10 1.23761e-12)
(-6.27274e-10 -1.56411e-10 1.63363e-12)
(-8.00412e-10 -2.08424e-10 1.78685e-12)
(-9.60874e-10 -2.64006e-10 1.57746e-12)
(-1.11135e-09 -3.25121e-10 8.14793e-13)
(-1.25375e-09 -3.93574e-10 -7.91466e-13)
(-1.38912e-09 -4.71023e-10 -3.6664e-12)
(-1.51751e-09 -5.58923e-10 -8.40959e-12)
(-1.63765e-09 -6.58368e-10 -1.58338e-11)
(-1.74628e-09 -7.69756e-10 -2.69901e-11)
(-1.83702e-09 -8.92122e-10 -4.31429e-11)
(-1.89873e-09 -1.02178e-09 -6.55586e-11)
(-1.91526e-09 -1.14939e-09 -9.45092e-11)
(-1.87706e-09 -1.25336e-09 -1.25327e-10)
(-1.50262e-09 -1.41178e-09 -1.94363e-10)
(0 0 0)
(-2.58303e-10 -5.69291e-11 8.68813e-13)
(-4.96117e-10 -1.11376e-10 1.63757e-12)
(-7.107e-10 -1.64446e-10 2.25734e-12)
(-9.07156e-10 -2.18659e-10 2.68493e-12)
(-1.08965e-09 -2.76139e-10 2.83915e-12)
(-1.26159e-09 -3.38699e-10 2.58531e-12)
(-1.42572e-09 -4.07876e-10 1.71628e-12)
(-1.58422e-09 -4.84905e-10 -7.06813e-14)
(-1.73875e-09 -5.70618e-10 -3.2025e-12)
(-1.89045e-09 -6.65259e-10 -8.26704e-12)
(-2.03974e-09 -7.68164e-10 -1.60659e-11)
(-2.18604e-09 -8.77279e-10 -2.7688e-11)
(-2.32725e-09 -9.88552e-10 -4.45301e-11)
(-2.45906e-09 -1.09511e-09 -6.77023e-11)
(-2.57008e-09 -1.1838e-09 -9.43088e-11)
(-2.76518e-09 -1.33623e-09 -1.53128e-10)
(0 0 0)
(-2.8508e-10 -5.76775e-11 1.06615e-12)
(-5.47566e-10 -1.1276e-10 2.03696e-12)
(-7.84432e-10 -1.6627e-10 2.88171e-12)
(-1.00134e-09 -2.20637e-10 3.58481e-12)
(-1.20297e-09 -2.77836e-10 4.10005e-12)
(-1.39327e-09 -3.39446e-10 4.34006e-12)
(-1.57563e-09 -4.06657e-10 4.16239e-12)
(-1.75303e-09 -4.80193e-10 3.35006e-12)
(-1.92825e-09 -5.60156e-10 1.58116e-12)
(-2.10397e-09 -6.45757e-10 -1.62325e-12)
(-2.28297e-09 -7.34868e-10 -6.9948e-12)
(-2.46819e-09 -8.23313e-10 -1.56807e-11)
(-2.66292e-09 -9.03775e-10 -2.94155e-11)
(-2.8709e-09 -9.64041e-10 -5.01766e-11)
(-3.0951e-09 -9.81429e-10 -7.76303e-11)
(-3.98688e-09 -1.06258e-09 -1.49274e-10)
(0 0 0)
(0 0 0)
(0 0 0)
(0 0 0)
(0 0 0)
(0 0 0)
(0 0 0)
(0 0 0)
(0 0 0)
(0 0 0)
(0 0 0)
(0 0 0)
(0 0 0)
(0 0 0)
(0 0 0)
(0 0 0)
(0 0 0)
(0 0 0)
(-4.10603e-11 -1.20796e-11 2.30296e-14)
(-7.87853e-11 -2.37357e-11 1.72411e-14)
(-1.12614e-10 -3.53039e-11 -4.84254e-14)
(-1.4317e-10 -4.7443e-11 -2.16502e-13)
(-1.70823e-10 -6.0775e-11 -5.53822e-13)
(-1.95639e-10 -7.59211e-11 -1.16805e-12)
(-2.17296e-10 -9.3528e-11 -2.23211e-12)
(-2.34966e-10 -1.14276e-10 -4.01973e-12)
(-2.47185e-10 -1.38852e-10 -6.95391e-12)
(-2.51737e-10 -1.67871e-10 -1.1664e-11)
(-2.45691e-10 -2.01684e-10 -1.90282e-11)
(-2.2583e-10 -2.4004e-10 -3.01329e-11)
(-1.89846e-10 -2.815e-10 -4.59745e-11)
(-1.38956e-10 -3.2251e-10 -6.64901e-11)
(-8.38524e-11 -3.5529e-10 -8.7753e-11)
(7.20323e-11 -4.02989e-10 -1.38393e-10)
(0 0 0)
(-8.15849e-11 -2.36039e-11 5.9735e-14)
(-1.56555e-10 -4.6364e-11 6.53343e-14)
(-2.23825e-10 -6.89226e-11 -4.01448e-14)
(-2.84675e-10 -9.25497e-11 -3.3384e-13)
(-3.39905e-10 -1.18435e-10 -9.36685e-13)
(-3.89743e-10 -1.47759e-10 -2.04266e-12)
(-4.33708e-10 -1.81739e-10 -3.96142e-12)
(-4.70402e-10 -2.21649e-10 -7.17942e-12)
(-4.97258e-10 -2.68771e-10 -1.24414e-11)
(-5.10333e-10 -3.24238e-10 -2.08416e-11)
(-5.0437e-10 -3.88676e-10 -3.38778e-11)
(-4.7368e-10 -4.61528e-10 -5.33355e-11)
(-4.14825e-10 -5.39906e-10 -8.06756e-11)
(-3.32494e-10 -6.16842e-10 -1.15231e-10)
(-2.49443e-10 -6.78064e-10 -1.49745e-10)
(-1.15379e-10 -7.68055e-10 -2.12467e-10)
(0 0 0)
(-1.21101e-10 -3.40804e-11 1.2053e-13)
(-2.32412e-10 -6.69061e-11 1.67648e-13)
(-3.32384e-10 -9.93713e-11 6.74093e-14)
(-4.2301e-10 -1.33269e-10 -2.7846e-13)
(-5.05616e-10 -1.70261e-10 -1.02368e-12)
(-5.80768e-10 -2.1197e-10 -2.41328e-12)
(-6.48108e-10 -2.6005e-10 -4.83475e-12)
(-7.06103e-10 -3.16207e-10 -8.88976e-12)
(-7.51718e-10 -3.82136e-10 -1.54864e-11)
(-7.80096e-10 -4.59317e-10 -2.59357e-11)
(-7.84535e-10 -5.48518e-10 -4.19895e-11)
(-7.57479e-10 -6.4884e-10 -6.56492e-11)
(-6.94059e-10 -7.56038e-10 -9.83524e-11)
(-6.0056e-10 -8.60035e-10 -1.38763e-10)
(-5.07838e-10 -9.41315e-10 -1.7792e-10)
(-4.07299e-10 -1.05422e-09 -2.43947e-10)
(0 0 0)
(-1.59097e-10 -4.30806e-11 2.10461e-13)
(-3.0538e-10 -8.45166e-11 3.35372e-13)
(-4.36909e-10 -1.25383e-10 2.94168e-13)
(-5.56443e-10 -1.67878e-10 -1.71691e-14)
(-6.65941e-10 -2.14005e-10 -7.61387e-13)
(-7.66499e-10 -2.65683e-10 -2.1962e-12)
(-8.58211e-10 -3.24822e-10 -4.72475e-12)
(-9.39927e-10 -3.93347e-10 -8.96422e-12)