/*--------------------------------*- C++ -*----------------------------------*\
| =========                 |                                                 |
| \\      /  F ield         | foam-extend: Open Source CFD                    |
|  \\    /   O peration     | Version:     3.1                                |
|   \\  /    A nd           | Web:         http://www.extend-project.de       |
|    \\/     M anipulation  |                                                 |
\*---------------------------------------------------------------------------*/
FoamFile
{
    version     2.0;
    format      ascii;
    class       surfaceVectorField;
    location    "3.4";
    object      Sf;
}
// * * * * * * * * * * * * * * * * * * * * * * * * * * * * * * * * * * * * * //

dimensions      [0 2 0 0 0 0 0];

internalField   nonuniform List<vector> 
41600
(
(0.000625511 -2.74996e-06 -1.92347e-08)
(-5.10744e-07 0.000705875 -1.27843e-08)
(1.02925e-08 1.15791e-08 0.000704803)
(-1.05503e-08 -1.18691e-08 -0.000704771)
(0.000626 -5.29829e-06 -3.70658e-08)
(-4.88924e-07 0.000705674 -3.82509e-08)
(1.01194e-08 3.45396e-08 0.000705277)
(-1.03752e-08 -3.54075e-08 -0.000705221)
(0.000626478 -7.62079e-06 -5.34739e-08)
(-4.77148e-07 0.000705449 -6.42047e-08)
(1.04893e-08 5.77122e-08 0.000705719)
(-1.07501e-08 -5.91612e-08 -0.000705639)
(0.000626967 -9.77251e-06 -6.89455e-08)
(-4.88875e-07 0.000705279 -9.24049e-08)
(1.16183e-08 8.2556e-08 0.000706191)
(-1.18898e-08 -8.46035e-08 -0.000706083)
(0.000627489 -1.17979e-05 -8.40052e-08)
(-5.22193e-07 0.000705153 -1.25036e-07)
(1.33711e-08 1.10622e-07 0.000706712)
(-1.36484e-08 -1.13287e-07 -0.000706572)
(0.000628066 -1.37357e-05 -9.91235e-08)
(-5.76845e-07 0.000705066 -1.64508e-07)
(1.5462e-08 1.42993e-07 0.000707305)
(-1.57324e-08 -1.46275e-07 -0.000707126)
(0.00062872 -1.56137e-05 -1.13978e-07)
(-6.52971e-07 0.000705007 -2.13589e-07)
(1.73963e-08 1.79887e-07 0.000707991)
(-1.76465e-08 -1.83754e-07 -0.000707762)
(0.000629472 -1.74427e-05 -1.27697e-07)
(-7.51893e-07 0.000704958 -2.75572e-07)
(1.83827e-08 2.20093e-07 0.000708785)
(-1.85787e-08 -2.24461e-07 -0.000708496)
(0.000630348 -1.92149e-05 -1.39025e-07)
(-8.75944e-07 0.000704902 -3.54866e-07)
(1.68249e-08 2.5977e-07 0.000709709)
(-1.68862e-08 -2.64425e-07 -0.000709343)
(0.000631374 -2.08884e-05 -1.45224e-07)
(-1.02692e-06 0.000704803 -4.57612e-07)
(9.5968e-09 2.89875e-07 0.000710776)
(-9.45545e-09 -2.94429e-07 -0.000710312)
(0.000632583 -2.23832e-05 -1.42792e-07)
(-1.20885e-06 0.000704624 -5.93116e-07)
(-9.15954e-09 2.91506e-07 0.000712004)
(9.48044e-09 -2.95497e-07 -0.000711413)
(0.000634009 -2.35677e-05 -1.2911e-07)
(-1.4262e-06 0.000704313 -7.77374e-07)
(-4.97272e-08 2.28084e-07 0.000713412)
(4.99782e-08 -2.31294e-07 -0.000712648)
(0.000635689 -2.42617e-05 -1.07282e-07)
(-1.67973e-06 0.000703822 -1.04014e-06)
(-1.30098e-07 3.21705e-08 0.000715033)
(1.29561e-07 -3.53352e-08 -0.000714015)
(0.000637634 -2.43098e-05 -1.00919e-07)
(-1.94314e-06 0.000703178 -1.43695e-06)
(-2.72008e-07 -4.07094e-07 0.000716944)
(2.703e-07 4.02204e-07 -0.000715514)
(0.000639585 -2.37674e-05 -1.98579e-07)
(-1.96825e-06 0.00070257 -2.04346e-06)
(-4.46527e-07 -1.19408e-06 0.000719201)
(4.6395e-07 1.207e-06 -0.000717059)
(-7.78398e-06 0.000699712 -5.56398e-07)
(-1.96805e-06 -3.79798e-06 0.000723833)
(3.98037e-06 5.98471e-06 -0.000722596)
(0.00062549 -2.7117e-06 -5.75173e-08)
(-1.00032e-06 0.000708587 -2.50563e-08)
(3.03829e-08 1.1021e-08 0.000707541)
(-3.11546e-08 -1.13091e-08 -0.000707471)
(0.000625959 -5.22636e-06 -1.10981e-07)
(-9.57104e-07 0.00070819 -7.49271e-08)
(2.97945e-08 3.27831e-08 0.00070779)
(-3.05683e-08 -3.36542e-08 -0.0007077)
(0.000626416 -7.51852e-06 -1.60409e-07)
(-9.33087e-07 0.000707743 -1.25666e-07)
(3.08207e-08 5.45705e-08 0.000707982)
(-3.16223e-08 -5.60514e-08 -0.000707871)
(0.000626883 -9.64212e-06 -2.071e-07)
(-9.54779e-07 0.000707404 -1.80669e-07)
(3.41378e-08 7.78336e-08 0.000708257)
(-3.49788e-08 -7.99648e-08 -0.000708122)
(0.00062738 -1.16458e-05 -2.52861e-07)
(-1.01859e-06 0.000707159 -2.44204e-07)
(3.92943e-08 1.04099e-07 0.000708626)
(-4.01631e-08 -1.0692e-07 -0.000708461)
(0.000627927 -1.35682e-05 -2.99048e-07)
(-1.12301e-06 0.000706992 -3.20962e-07)
(4.55082e-08 1.34467e-07 0.000709101)
(-4.63926e-08 -1.38029e-07 -0.000708898)
(0.000628543 -1.54359e-05 -3.44622e-07)
(-1.26844e-06 0.000706879 -4.16178e-07)
(5.16637e-08 1.69672e-07 0.000709687)
(-5.24918e-08 -1.73993e-07 -0.000709438)
(0.000629249 -1.72648e-05 -3.87355e-07)
(-1.45715e-06 0.000706792 -5.36269e-07)
(5.57393e-08 2.09852e-07 0.000710385)
(-5.63512e-08 -2.14797e-07 -0.000710081)
(0.000630065 -1.90555e-05 -4.23142e-07)
(-1.69175e-06 0.000706698 -6.89473e-07)
(5.34444e-08 2.5351e-07 0.000711192)
(-5.36237e-08 -2.58778e-07 -0.000710822)
(0.000631013 -2.07876e-05 -4.44468e-07)
(-1.97464e-06 0.00070654 -8.8682e-07)
(3.67927e-08 2.96144e-07 0.000712088)
(-3.63255e-08 -3.01277e-07 -0.000711638)
(0.00063211 -2.24025e-05 -4.41401e-07)
(-2.30755e-06 0.000706243 -1.14472e-06)
(-8.55208e-09 3.28704e-07 0.00071304)
(9.68383e-09 -3.3306e-07 -0.000712491)
(0.000633369 -2.37965e-05 -4.04026e-07)
(-2.6861e-06 0.000705709 -1.48957e-06)
(-1.0698e-07 3.35509e-07 0.000713993)
(1.08309e-07 -3.38275e-07 -0.000713318)
(0.000634775 -2.48098e-05 -3.34609e-07)
(-3.08654e-06 0.000704836 -1.96757e-06)
(-2.97182e-07 2.94469e-07 0.000714881)
(2.97298e-07 -2.94637e-07 -0.000714023)
(0.000636239 -2.52599e-05 -2.82138e-07)
(-3.40518e-06 0.000703624 -2.66004e-06)
(-6.16395e-07 1.87686e-07 0.000715698)
(6.15151e-07 -1.83402e-07 -0.000714527)
(0.000637384 -2.50915e-05 -4.52567e-07)
(-3.15581e-06 0.000702387 -3.68165e-06)
(-9.71043e-07 3.80669e-08 0.000716599)
(1.01338e-06 -2.33866e-08 -0.000714791)
(-7.33292e-06 0.000697611 -2.73841e-06)
(-3.25947e-06 7.84097e-07 0.000715461)
(6.24618e-06 -2.02448e-06 -0.000712024)
(0.00062545 -2.63309e-06 -9.50883e-08)
(-1.44875e-06 0.000711221 -3.62715e-08)
(4.91993e-08 1.01401e-08 0.000710208)
(-5.04757e-08 -1.04199e-08 -0.000710102)
(0.000625879 -5.07468e-06 -1.83744e-07)
(-1.38505e-06 0.000710632 -1.08428e-07)
(4.80811e-08 3.00872e-08 0.000710214)
(-4.93695e-08 -3.09303e-08 -0.000710092)
(0.000626295 -7.29869e-06 -2.65793e-07)
(-1.3482e-06 0.000709968 -1.81719e-07)
(4.96292e-08 4.99403e-08 0.000710139)
(-5.09648e-08 -5.13524e-08 -0.000710001)
(0.000626719 -9.3611e-06 -3.43627e-07)
(-1.37717e-06 0.000709469 -2.60963e-07)
(5.50025e-08 7.11243e-08 0.000710198)
(-5.64082e-08 -7.31213e-08 -0.00071004)
(0.000627168 -1.1312e-05 -4.21036e-07)
(-1.46596e-06 0.000709113 -3.523e-07)
(6.33932e-08 9.51462e-08 0.000710397)
(-6.48885e-08 -9.77938e-08 -0.000710211)
(0.000627658 -1.31867e-05 -4.99705e-07)
(-1.61102e-06 0.00070887 -4.62344e-07)
(7.38343e-08 1.23357e-07 0.00071073)
(-7.5402e-08 -1.26738e-07 -0.00071051)
(0.000628203 -1.50152e-05 -5.78054e-07)
(-1.81252e-06 0.000708712 -5.98326e-07)
(8.51233e-08 1.57197e-07 0.000711188)
(-8.66074e-08 -1.61334e-07 -0.000710928)
(0.00062882 -1.68247e-05 -6.53526e-07)
(-2.07266e-06 0.000708606 -7.69048e-07)
(9.47363e-08 1.98129e-07 0.000711761)
(-9.58606e-08 -2.02973e-07 -0.000711452)
(0.000629522 -1.86299e-05 -7.19388e-07)
(-2.39333e-06 0.000708509 -9.85598e-07)
(9.7428e-08 2.47802e-07 0.000712422)
(-9.78549e-08 -2.53209e-07 -0.00071206)
(0.000630322 -2.04397e-05 -7.64799e-07)
(-2.77573e-06 0.000708356 -1.26257e-06)
(8.37133e-08 3.08479e-07 0.00071313)
(-8.30407e-08 -3.14104e-07 -0.000712709)
(0.000631227 -2.22388e-05 -7.74007e-07)
(-3.2141e-06 0.000708047 -1.62072e-06)
(3.74966e-08 3.8397e-07 0.000713804)
(-3.54117e-08 -3.8907e-07 -0.000713319)
(0.000632223 -2.39774e-05 -7.27347e-07)
(-3.68542e-06 0.000707451 -2.0914e-06)
(-6.68984e-08 4.82376e-07 0.000714326)
(7.02534e-08 -4.85585e-07 -0.000713771)
(0.000633261 -2.55541e-05 -6.13495e-07)
(-4.1282e-06 0.000706411 -2.72642e-06)
(-2.64007e-07 6.2275e-07 0.000714535)
(2.67732e-07 -6.21759e-07 -0.00071389)
(0.000634214 -2.67984e-05 -4.66917e-07)
(-4.36366e-06 0.00070486 -3.61442e-06)
(-5.72003e-07 8.45165e-07 0.000714331)
(5.77087e-07 -8.36564e-07 -0.000713524)
(0.00063478 -2.75419e-05 -5.02705e-07)
(-3.76952e-06 0.00070312 -4.89865e-06)
(-8.63245e-07 1.19495e-06 0.000713973)
(9.11287e-07 -1.18463e-06 -0.000712721)
(-8.72949e-06 0.000699196 -3.51606e-06)
(-2.00058e-06 2.08446e-06 0.000711471)
(3.63067e-06 -2.48225e-06 -0.000710082)
(0.000625391 -2.5131e-06 -1.30747e-07)
(-1.83816e-06 0.000713734 -4.59396e-08)
(6.62578e-08 9.03235e-09 0.000712765)
(-6.80082e-08 -9.28598e-09 -0.000712625)
(0.000625764 -4.84014e-06 -2.53127e-07)
(-1.75569e-06 0.00071296 -1.37302e-07)
(6.46353e-08 2.68442e-08 0.000712514)
(-6.63991e-08 -2.76018e-08 -0.000712363)
(0.000626123 -6.95865e-06 -3.6622e-07)
(-1.70613e-06 0.000712088 -2.29938e-07)
(6.66883e-08 4.46753e-08 0.000712157)
(-6.85032e-08 -4.59362e-08 -0.000711996)
(0.000626487 -8.92225e-06 -4.74588e-07)
(-1.73865e-06 0.000711434 -3.29863e-07)
(7.40075e-08 6.38092e-08 0.000711989)
(-7.59376e-08 -6.56125e-08 -0.000711812)
(0.000626867 -1.07735e-05 -5.83917e-07)
(-1.84409e-06 0.000710967 -4.44709e-07)
(8.55756e-08 8.57246e-08 0.000712001)
(-8.76866e-08 -8.8158e-08 -0.000711799)
(0.000627276 -1.25513e-05 -6.95436e-07)
(-2.01748e-06 0.000710651 -5.82401e-07)
(1.00568e-07 1.12003e-07 0.000712171)
(-1.02806e-07 -1.15151e-07 -0.000711939)
(0.000627723 -1.42955e-05 -8.08111e-07)
(-2.25771e-06 0.00071046 -7.51575e-07)
(1.17935e-07 1.44501e-07 0.000712483)
(-1.20109e-07 -1.48434e-07 -0.000712217)
(0.000628218 -1.60436e-05 -9.20298e-07)
(-2.56552e-06 0.000710359 -9.62626e-07)
(1.35533e-07 1.85738e-07 0.000712917)
(-1.37347e-07 -1.90542e-07 -0.000712612)
(0.000628767 -1.78305e-05 -1.02429e-06)
(-2.94137e-06 0.000710301 -1.22846e-06)
(1.49332e-07 2.40014e-07 0.000713432)
(-1.50311e-07 -2.45703e-07 -0.000713086)
(0.000629374 -1.96877e-05 -1.10758e-06)
(-3.38325e-06 0.000710219 -1.56585e-06)
(1.51856e-07 3.1497e-07 0.000713969)
(-1.51348e-07 -3.21326e-07 -0.000713583)
(0.000630036 -2.16503e-05 -1.15043e-06)
(-3.8796e-06 0.000710016 -1.99808e-06)
(1.3096e-07 4.23917e-07 0.000714428)
(-1.28144e-07 -4.30258e-07 -0.000714007)
(0.000630738 -2.37409e-05 -1.12387e-06)
(-4.3927e-06 0.000709547 -2.55933e-06)
(6.93745e-08 5.90437e-07 0.000714655)
(-6.36257e-08 -5.95236e-07 -0.000714213)
(0.00063143 -2.5943e-05 -9.94881e-07)
(-4.82861e-06 0.000708614 -3.30374e-06)
(-5.43392e-08 8.51692e-07 0.000714437)
(6.31771e-08 -8.52258e-07 -0.000713989)
(0.000632017 -2.81242e-05 -7.56697e-07)
(-4.96482e-06 0.000707034 -4.32381e-06)
(-2.45306e-07 1.25078e-06 0.000713591)
(2.58522e-07 -1.24411e-06 -0.00071312)
(0.000632329 -2.99442e-05 -5.48011e-07)
(-4.12264e-06 0.000704935 -5.79187e-06)
(-4.18051e-07 1.78096e-06 0.000712345)
(4.59606e-07 -1.77609e-06 -0.00071166)
(-9.26408e-06 0.000702321 -4.1525e-06)
(-8.68155e-07 2.69725e-06 0.000709416)
(1.71033e-06 -3.28183e-06 -0.000709387)
(0.000625318 -2.34953e-06 -1.63687e-07)
(-2.15439e-06 0.000716084 -5.37464e-08)
(8.14971e-08 8.08359e-09 0.00071517)
(-8.36791e-08 -8.31531e-09 -0.000714999)
(0.00062562 -4.52117e-06 -3.17219e-07)
(-2.05545e-06 0.000715132 -1.60518e-07)
(7.95029e-08 2.40694e-08 0.000714653)
(-8.1695e-08 -2.47633e-08 -0.000714476)
(0.00062591 -6.49436e-06 -4.59484e-07)
(-1.99357e-06 0.000714062 -2.68523e-07)
(8.20963e-08 4.01451e-08 0.00071401)
(-8.43627e-08 -4.13236e-08 -0.000713829)
(0.000626199 -8.31494e-06 -5.97367e-07)
(-2.02513e-06 0.000713257 -3.84728e-07)
(9.12616e-08 5.74631e-08 0.000713603)
(-9.3713e-08 -5.91912e-08 -0.000713411)
(0.000626496 -1.00234e-05 -7.36797e-07)
(-2.13841e-06 0.000712677 -5.17691e-07)
(1.05971e-07 7.7445e-08 0.00071341)
(-1.08687e-07 -7.98066e-08 -0.000713197)
(0.000626808 -1.16626e-05 -8.79437e-07)
(-2.32679e-06 0.000712294 -6.76085e-07)
(1.2562e-07 1.01663e-07 0.000713403)
(-1.28544e-07 -1.04762e-07 -0.000713167)
(0.00062714 -1.32736e-05 -1.02656e-06)
(-2.58681e-06 0.000712075 -8.69393e-07)
(1.49539e-07 1.32116e-07 0.000713561)
(-1.52494e-07 -1.36091e-07 -0.000713296)
(0.000627494 -1.48967e-05 -1.17795e-06)
(-2.91636e-06 0.000711988 -1.10883e-06)
(1.76758e-07 1.71948e-07 0.000713853)
(-1.79453e-07 -1.76952e-07 -0.000713555)
(0.000627867 -1.65809e-05 -1.32717e-06)
(-3.31304e-06 0.000711991 -1.408e-06)
(2.05656e-07 2.26662e-07 0.000714232)
(-2.07503e-07 -2.32811e-07 -0.000713904)
(0.000628256 -1.83846e-05 -1.46262e-06)
(-3.77215e-06 0.00071203 -1.78458e-06)
(2.32845e-07 3.05933e-07 0.000714633)
(-2.32957e-07 -3.13204e-07 -0.000714279)
(0.000628655 -2.03875e-05 -1.56499e-06)
(-4.28143e-06 0.000712027 -2.26358e-06)
(2.52977e-07 4.26281e-07 0.000714961)
(-2.49999e-07 -4.34283e-07 -0.000714593)
(0.000629056 -2.26915e-05 -1.59907e-06)
(-4.801e-06 0.000711858 -2.88199e-06)
(2.60655e-07 6.15079e-07 0.000715069)
(-2.52846e-07 -6.22458e-07 -0.000714712)
(0.00062944 -2.53762e-05 -1.51123e-06)
(-5.22674e-06 0.000711303 -3.69796e-06)
(2.46049e-07 9.12301e-07 0.00071473)
(-2.32117e-07 -9.1642e-07 -0.000714423)
(0.00062977 -2.83725e-05 -1.24191e-06)
(-5.31625e-06 0.000710028 -4.81055e-06)
(1.9713e-07 1.35519e-06 0.000713664)
(-1.76093e-07 -1.35304e-06 -0.000713447)
(0.00062995 -3.11687e-05 -7.72513e-07)
(-4.33597e-06 0.00070773 -6.41049e-06)
(1.07142e-07 1.91388e-06 0.000711784)
(-7.38338e-08 -1.91277e-06 -0.000711635)
(-9.50284e-06 0.000706691 -4.49583e-06)
(1.53446e-07 2.72158e-06 0.000708935)
(-1.86203e-07 -3.16121e-06 -0.000710673)
(0.000625235 -2.14573e-06 -1.93765e-07)
(-2.38649e-06 0.00071823 -5.94085e-08)
(9.5203e-08 7.30474e-09 0.000717384)
(-9.77831e-08 -7.52089e-09 -0.000717185)
(0.000625456 -4.12502e-06 -3.75239e-07)
(-2.27423e-06 0.000717112 -1.7728e-07)
(9.28973e-08 2.17314e-08 0.000716597)
(-9.54913e-08 -2.23841e-08 -0.000716399)
(0.000625666 -5.91517e-06 -5.44168e-07)
(-2.20082e-06 0.000715853 -2.96182e-07)
(9.59781e-08 3.61841e-08 0.000715666)
(-9.86836e-08 -3.72957e-08 -0.000715469)
(0.000625872 -7.55831e-06 -7.08352e-07)
(-2.22792e-06 0.000714901 -4.23605e-07)
(1.0682e-07 5.16805e-08 0.000715015)
(-1.09773e-07 -5.32977e-08 -0.000714811)
(0.000626078 -9.09378e-06 -8.73186e-07)
(-2.34137e-06 0.000714215 -5.68547e-07)
(1.24435e-07 6.94886e-08 0.000714608)
(-1.27742e-07 -7.16975e-08 -0.000714393)
(0.000626286 -1.05557e-05 -1.04341e-06)
(-2.53157e-06 0.000713758 -7.40053e-07)
(1.48459e-07 9.10559e-08 0.000714417)
(-1.52093e-07 -9.39878e-08 -0.000714183)
(0.000626495 -1.19757e-05 -1.22306e-06)
(-2.79196e-06 0.000713498 -9.47838e-07)
(1.78774e-07 1.18312e-07 0.000714408)
(-1.82577e-07 -1.22127e-07 -0.00071415)
(0.0006267 -1.33913e-05 -1.41298e-06)
(-3.11712e-06 0.000713408 -1.20298e-06)
(2.15772e-07 1.54217e-07 0.000714546)
(-2.19486e-07 -1.5913e-07 -0.000714262)
(0.000626891 -1.4853e-05 -1.61023e-06)
(-3.50099e-06 0.000713459 -1.5188e-06)
(2.60308e-07 2.03726e-07 0.000714788)
(-2.63312e-07 -2.1001e-07 -0.000714479)
(0.000627056 -1.64352e-05 -1.80674e-06)
(-3.93608e-06 0.00071362 -1.9126e-06)
(3.132e-07 2.75205e-07 0.000715074)
(-3.14439e-07 -2.83077e-07 -0.00071475)
(0.000627185 -1.82491e-05 -1.98804e-06)
(-4.41282e-06 0.00071385 -2.40978e-06)
(3.75621e-07 3.82273e-07 0.000715334)
(-3.73312e-07 -3.91716e-07 -0.000715006)
(0.000627278 -2.04506e-05 -2.12196e-06)
(-4.90248e-06 0.00071407 -3.05012e-06)
(4.52658e-07 5.46512e-07 0.000715455)
(-4.4397e-07 -5.56902e-07 -0.000715153)
(0.00062736 -2.32237e-05 -2.14981e-06)
(-5.32691e-06 0.000714085 -3.90059e-06)
(5.45691e-07 8.00826e-07 0.000715243)
(-5.2791e-07 -8.10211e-07 -0.000715012)
(0.00062749 -2.66765e-05 -1.96719e-06)
(-5.47464e-06 0.000713486 -5.079e-06)
(6.31408e-07 1.17993e-06 0.000714371)
(-6.02555e-07 -1.18444e-06 -0.000714285)
(0.000627683 -3.0347e-05 -1.32367e-06)
(-4.55849e-06 0.000711403 -6.79372e-06)
(6.09276e-07 1.66848e-06 0.000712259)
(-5.80089e-07 -1.671e-06 -0.00071252)
(-9.76041e-06 0.000712901 -4.68075e-06)
(1.04475e-06 2.37883e-06 0.00071034)
(-1.77443e-06 -2.70361e-06 -0.000713993)
(0.000625144 -1.90886e-06 -2.19914e-07)
(-2.52715e-06 0.000720139 -6.27104e-08)
(1.07573e-07 6.5864e-09 0.000719371)
(-1.10519e-07 -6.7812e-09 -0.000719148)
(0.000625278 -3.66521e-06 -4.25407e-07)
(-2.40572e-06 0.000718869 -1.86985e-07)
(1.04921e-07 1.95382e-08 0.00071832)
(-1.07885e-07 -2.01226e-08 -0.000718105)
(0.000625403 -5.24584e-06 -6.17117e-07)
(-2.32297e-06 0.000717435 -3.12016e-07)
(1.08342e-07 3.23735e-08 0.000717105)
(-1.11449e-07 -3.33643e-08 -0.000716898)
(0.000625522 -6.68624e-06 -8.02353e-07)
(-2.34345e-06 0.000716343 -4.4542e-07)
(1.20567e-07 4.5955e-08 0.000716209)
(-1.23977e-07 -4.73994e-08 -0.000716002)
(0.000625635 -8.01425e-06 -9.87485e-07)
(-2.45032e-06 0.000715545 -5.96182e-07)
(1.40625e-07 6.13462e-08 0.000715587)
(-1.44486e-07 -6.33274e-08 -0.000715374)
(0.000625739 -9.25144e-06 -1.18111e-06)
(-2.63077e-06 0.000714998 -7.73342e-07)
(1.68381e-07 7.97208e-08 0.000715199)
(-1.72695e-07 -8.2362e-08 -0.000714972)
(0.000625826 -1.04204e-05 -1.38848e-06)
(-2.87476e-06 0.000714671 -9.86168e-07)
(2.04203e-07 1.02588e-07 0.000715004)
(-2.08844e-07 -1.06057e-07 -0.000714758)
(0.000625887 -1.15486e-05 -1.6119e-06)
(-3.17302e-06 0.000714541 -1.24473e-06)
(2.49461e-07 1.32066e-07 0.000714966)
(-2.54242e-07 -1.36599e-07 -0.000714701)
(0.000625905 -1.26739e-05 -1.85216e-06)
(-3.51487e-06 0.000714591 -1.56096e-06)
(3.06741e-07 1.71307e-07 0.000715047)
(-3.11072e-07 -1.77219e-07 -0.000714764)
(0.000625859 -1.38531e-05 -2.10597e-06)
(-3.88793e-06 0.000714807 -1.95015e-06)
(3.79627e-07 2.25068e-07 0.000715201)
(-3.82368e-07 -2.32714e-07 -0.00071491)
(0.000625728 -1.51816e-05 -2.36719e-06)
(-4.28165e-06 0.000715189 -2.43524e-06)
(4.73253e-07 3.00309e-07 0.000715383)
(-4.72486e-07 -3.10107e-07 -0.000715096)
(0.000625498 -1.6802e-05 -2.61863e-06)
(-4.68011e-06 0.000715703 -3.05514e-06)
(5.98655e-07 4.0664e-07 0.000715515)
(-5.91071e-07 -4.19112e-07 -0.000715258)
(0.000625207 -1.89448e-05 -2.82237e-06)
(-5.05509e-06 0.000716243 -3.88381e-06)
(7.6621e-07 5.58485e-07 0.000715463)
(-7.47589e-07 -5.73574e-07 -0.000715276)
(0.000625018 -2.19519e-05 -2.87713e-06)
(-5.32005e-06 0.000716508 -5.07251e-06)
(9.52579e-07 7.78623e-07 0.000714983)
(-9.18118e-07 -7.93975e-07 -0.000714935)
(0.000625251 -2.58893e-05 -2.32224e-06)
(-4.82275e-06 0.000715353 -6.8984e-06)
(1.0115e-06 1.09351e-06 0.000713211)
(-9.80608e-07 -1.10676e-06 -0.000713661)
(-1.10557e-05 0.000723692 -4.71783e-06)
(1.92767e-06 1.75325e-06 0.000715275)
(-3.21407e-06 -1.99477e-06 -0.000721087)
(0.000625049 -1.64382e-06 -2.41228e-07)
(1.18675e-07 5.88976e-09 0.000721103)
(-1.21947e-07 -6.06295e-09 -0.000720861)
(-2.57266e-06 0.000721783 -6.36305e-08)
(0.000625094 -3.156e-06 -4.66037e-07)
(1.15616e-07 1.7417e-08 0.000719801)
(-1.18902e-07 -1.79288e-08 -0.000719573)
(-2.44736e-06 0.000720382 -1.89574e-07)
(0.000625133 -4.5107e-06 -6.75423e-07)
(1.1916e-07 2.86588e-08 0.000718316)
(-1.22617e-07 -2.95147e-08 -0.000718103)
(-2.35901e-06 0.000718791 -3.15918e-07)
(0.000625166 -5.72806e-06 -8.76628e-07)
(1.32386e-07 4.02744e-08 0.00071718)
(-1.36201e-07 -4.15195e-08 -0.000716974)
(-2.37204e-06 0.000717562 -4.50179e-07)
(0.000625187 -6.82179e-06 -1.07815e-06)
(1.54254e-07 5.3069e-08 0.000716337)
(-1.58598e-07 -5.47686e-08 -0.00071613)
(-2.46753e-06 0.000716641 -6.01093e-07)
(0.000625191 -7.80408e-06 -1.28972e-06)
(1.84728e-07 6.77803e-08 0.000715736)
(-1.8964e-07 -7.00281e-08 -0.000715521)
(-2.63013e-06 0.000715983 -7.77113e-07)
(0.000625168 -8.68694e-06 -1.5169e-06)
(2.24465e-07 8.52515e-08 0.000715336)
(-2.29869e-07 -8.82003e-08 -0.000715108)
(-2.84628e-06 0.000715557 -9.86465e-07)
(0.000625103 -9.48119e-06 -1.76399e-06)
(2.75252e-07 1.06493e-07 0.000715097)
(-2.80993e-07 -1.10328e-07 -0.000714857)
(-3.10187e-06 0.000715339 -1.23766e-06)
(0.000624974 -1.01997e-05 -2.03351e-06)
(3.40221e-07 1.32523e-07 0.00071498)
(-3.45761e-07 -1.37461e-07 -0.000714732)
(-3.38007e-06 0.000715314 -1.54024e-06)
(0.00062475 -1.08601e-05 -2.32673e-06)
(4.23705e-07 1.64142e-07 0.000714946)
(-4.27974e-07 -1.70535e-07 -0.000714697)
(-3.66038e-06 0.000715474 -1.90567e-06)
(0.000624389 -1.14857e-05 -2.6453e-06)
(5.31557e-07 2.01461e-07 0.000714952)
(-5.32803e-07 -2.09932e-07 -0.000714718)
(-3.91858e-06 0.000715823 -2.35e-06)
(0.000623825 -1.21071e-05 -2.98724e-06)
(6.7389e-07 2.41249e-07 0.000714905)
(-6.69081e-07 -2.52973e-07 -0.000714719)
(-4.12113e-06 0.000716336 -2.89884e-06)
(0.000622965 -1.27918e-05 -3.34441e-06)
(8.5972e-07 2.72332e-07 0.000714618)
(-8.44443e-07 -2.89426e-07 -0.000714547)
(-4.21017e-06 0.000716945 -3.59782e-06)
(0.000621657 -1.37124e-05 -3.67026e-06)
(1.06641e-06 2.75095e-07 0.000713665)
(-1.03518e-06 -3.01493e-07 -0.000713878)
(-4.04319e-06 0.000717455 -4.5336e-06)
(0.000619739 -1.55828e-05 -3.58639e-06)
(1.16712e-06 2.55144e-07 0.00071076)
(-1.13601e-06 -2.90097e-07 -0.000711905)
(-2.93636e-06 0.000717259 -5.8371e-06)
(2.92887e-06 7.99393e-07 0.000725915)
(-4.63078e-06 -9.71712e-07 -0.000734397)
(-1.70268e-05 0.000744964 -4.00821e-06)
(0.000625533 -2.78562e-06 -1.63587e-08)
(-5.32429e-07 0.000705911 -1.16779e-08)
(9.65933e-09 1.08667e-08 0.000704831)
(0.000626044 -5.36729e-06 -3.16748e-08)
(-5.10436e-07 0.000705709 -3.49238e-08)
(9.49762e-09 3.24156e-08 0.000705327)
(0.000626544 -7.72046e-06 -4.56148e-08)
(-4.99575e-07 0.000705482 -5.84917e-08)
(9.85209e-09 5.41725e-08 0.000705792)
(0.000627059 -9.90091e-06 -5.84166e-08)
(-5.13957e-07 0.00070531 -8.38194e-08)
(1.09399e-08 7.75371e-08 0.000706287)
(0.000627611 -1.19542e-05 -7.06349e-08)
(-5.51714e-07 0.000705185 -1.12697e-07)
(1.26249e-08 1.04002e-07 0.000706837)
(0.000628225 -1.39197e-05 -8.22349e-08)
(-6.12728e-07 0.000705099 -1.46893e-07)
(1.46582e-08 1.34631e-07 0.000707464)
(0.000628923 -1.58242e-05 -9.26659e-08)
(-6.97423e-07 0.00070504 -1.88294e-07)
(1.66141e-08 1.6974e-07 0.000708189)
(0.000629731 -1.76772e-05 -1.01198e-07)
(-8.07424e-07 0.00070499 -2.38916e-07)
(1.77627e-08 2.08362e-07 0.000709033)
(0.000630677 -1.94685e-05 -1.06622e-07)
(-9.45671e-07 0.000704929 -3.0068e-07)
(1.66978e-08 2.47179e-07 0.000710015)
(0.000631791 -2.11519e-05 -1.07027e-07)
(-1.11476e-06 0.00070482 -3.75336e-07)
(1.08499e-08 2.78492e-07 0.000711152)
(0.000633106 -2.26429e-05 -1.01309e-07)
(-1.32021e-06 0.000704621 -4.64003e-07)
(-4.5235e-09 2.86584e-07 0.000712462)
(0.000634661 -2.38087e-05 -9.08137e-08)
(-1.56821e-06 0.000704277 -5.64633e-07)
(-3.69278e-08 2.42323e-07 0.000713966)
(0.000636489 -2.44812e-05 -8.49937e-08)
(-1.86058e-06 0.000703733 -6.64404e-07)
(-9.69439e-08 9.68207e-08 0.000715692)
(0.000638573 -2.45509e-05 -1.08635e-07)
(-2.16633e-06 0.000703004 -7.20416e-07)
(-1.8961e-07 -2.16015e-07 0.000717688)
(0.000640624 -2.41824e-05 -1.86937e-07)
(-2.22259e-06 0.000702288 -6.4778e-07)
(-2.74935e-07 -7.25209e-07 0.000719927)
(-6.0262e-06 0.000701178 -4.10863e-07)
(-9.25849e-07 -2.0241e-06 0.000724685)
(0.000625512 -2.74721e-06 -4.91069e-08)
(-1.04273e-06 0.000708659 -2.29113e-08)
(2.85019e-08 1.03295e-08 0.000707601)
(0.000626003 -5.29529e-06 -9.51725e-08)
(-9.99099e-07 0.000708259 -6.84426e-08)
(2.79341e-08 3.07065e-08 0.000707869)
(0.000626482 -7.61859e-06 -1.37273e-07)
(-9.76802e-07 0.000707808 -1.14475e-07)
(2.89039e-08 5.10786e-08 0.00070808)
(0.000626974 -9.77176e-06 -1.76258e-07)
(-1.00357e-06 0.000707469 -1.63845e-07)
(3.20769e-08 7.28291e-08 0.000708376)
(0.0006275 -1.18045e-05 -2.13517e-07)
(-1.07596e-06 0.000707224 -2.20044e-07)
(3.70291e-08 9.74368e-08 0.00070877)
(0.000628082 -1.37561e-05 -2.49074e-07)
(-1.19275e-06 0.000707059 -2.86626e-07)
(4.30781e-08 1.26012e-07 0.000709276)
(0.000628742 -1.56524e-05 -2.81438e-07)
(-1.35459e-06 0.000706946 -3.6719e-07)
(4.92402e-08 1.59323e-07 0.000709898)
(0.000629501 -1.7508e-05 -3.08367e-07)
(-1.56458e-06 0.000706858 -4.65362e-07)
(5.3694e-08 1.97616e-07 0.000710638)
(0.000630383 -1.93207e-05 -3.25781e-07)
(-1.82623e-06 0.000706755 -5.84878e-07)
(5.27621e-08 2.3984e-07 0.000711494)
(0.000631408 -2.1066e-05 -3.27823e-07)
(-2.14313e-06 0.000706579 -7.28966e-07)
(3.97279e-08 2.82347e-07 0.000712444)
(0.000632595 -2.26815e-05 -3.11242e-07)
(-2.51876e-06 0.000706248 -8.98657e-07)
(2.77279e-09 3.17385e-07 0.000713458)
(0.000633946 -2.40563e-05 -2.76258e-07)
(-2.94966e-06 0.000705655 -1.08771e-06)
(-7.59108e-08 3.31856e-07 0.000714481)
(0.000635417 -2.50271e-05 -2.43023e-07)
(-3.41024e-06 0.00070469 -1.26853e-06)
(-2.18978e-07 3.08306e-07 0.000715452)
(0.000636846 -2.54201e-05 -2.71281e-07)
(-3.78152e-06 0.000703351 -1.3585e-06)
(-4.30432e-07 2.33785e-07 0.000716364)
(0.000637821 -2.52201e-05 -4.2366e-07)
(-3.56405e-06 0.000701999 -1.2101e-06)
(-6.03936e-07 1.26349e-07 0.000717314)
(-5.42714e-06 0.00069814 -4.21983e-07)
(-1.54561e-06 4.40715e-07 0.00071635)
(0.00062547 -2.66777e-06 -8.15932e-08)
(-1.51001e-06 0.000711328 -3.31865e-08)
(4.61218e-08 9.48573e-09 0.0007103)
(0.00062592 -5.14175e-06 -1.57922e-07)
(-1.44566e-06 0.000710735 -9.90801e-08)
(4.50394e-08 2.81442e-08 0.000710321)
(0.000626358 -7.39578e-06 -2.27964e-07)
(-1.41124e-06 0.000710066 -1.65637e-07)
(4.64996e-08 4.67236e-08 0.00071026)
(0.000626805 -9.48722e-06 -2.93571e-07)
(-1.44738e-06 0.000709565 -2.36959e-07)
(5.16181e-08 6.65744e-08 0.000710337)
(0.000627281 -1.14678e-05 -3.56847e-07)
(-1.54839e-06 0.000709211 -3.18007e-07)
(5.96534e-08 8.9117e-08 0.000710558)
(0.000627803 -1.3373e-05 -4.17865e-07)
(-1.71088e-06 0.000708972 -4.13776e-07)
(6.97766e-08 1.15639e-07 0.000710918)
(0.000628388 -1.5232e-05 -4.7432e-07)
(-1.93533e-06 0.000708815 -5.29164e-07)
(8.09245e-08 1.47545e-07 0.000711407)
(0.000629052 -1.70717e-05 -5.22447e-07)
(-2.22503e-06 0.000708709 -6.69072e-07)
(9.08985e-08 1.86322e-07 0.000712012)
(0.000629811 -1.89046e-05 -5.55246e-07)
(-2.58289e-06 0.000708602 -8.38468e-07)
(9.52709e-08 2.33654e-07 0.000712709)
(0.000630677 -2.0737e-05 -5.63452e-07)
(-3.0114e-06 0.000708428 -1.04134e-06)
(8.58327e-08 2.91609e-07 0.00071345)
(0.000631652 -2.25473e-05 -5.38943e-07)
(-3.50567e-06 0.000708078 -1.27772e-06)
(4.91978e-08 3.63468e-07 0.000714159)
(0.000632711 -2.42751e-05 -4.74289e-07)
(-4.04124e-06 0.00070741 -1.53598e-06)
(-3.37408e-08 4.5536e-07 0.00071471)
(0.00063377 -2.58012e-05 -3.8309e-07)
(-4.54969e-06 0.000706259 -1.77371e-06)
(-1.83637e-07 5.79096e-07 0.000714949)
(0.000634637 -2.69289e-05 -3.27139e-07)
(-4.82719e-06 0.000704569 -1.87472e-06)
(-3.93696e-07 7.54258e-07 0.000714792)
(0.000635008 -2.74772e-05 -3.88214e-07)
(-4.25796e-06 0.000702752 -1.64886e-06)
(-5.40101e-07 9.90147e-07 0.000714473)
(-6.09412e-06 0.000699188 -5.75829e-07)
(-9.61327e-07 1.44228e-06 0.00071229)
(0.00062541 -2.54518e-06 -1.12582e-07)
(-1.91559e-06 0.000713873 -4.20705e-08)
(6.20899e-08 8.4608e-09 0.000712887)
(0.000625801 -4.90274e-06 -2.17782e-07)
(-1.83232e-06 0.000713094 -1.2561e-07)
(6.05294e-08 2.51403e-08 0.000712646)
(0.000626179 -7.04955e-06 -3.14577e-07)
(-1.78569e-06 0.000712215 -2.09927e-07)
(6.24793e-08 4.18403e-08 0.000712298)
(0.000626563 -9.04154e-06 -4.06343e-07)
(-1.8271e-06 0.000711561 -3.00097e-07)
(6.94421e-08 5.9776e-08 0.000712144)
(0.000626968 -1.09225e-05 -4.96194e-07)
(-1.94762e-06 0.000711097 -4.02306e-07)
(8.0473e-08 8.03243e-08 0.000712175)
(0.000627405 -1.27306e-05 -5.83698e-07)
(-2.14213e-06 0.000710787 -5.22513e-07)
(9.49007e-08 1.04962e-07 0.000712367)
(0.000627886 -1.45062e-05 -6.65987e-07)
(-2.41013e-06 0.0007106 -6.66475e-07)
(1.1185e-07 1.35465e-07 0.000712703)
(0.00062842 -1.62874e-05 -7.38195e-07)
(-2.75335e-06 0.000710502 -8.39981e-07)
(1.29502e-07 1.7424e-07 0.000713161)
(0.000629015 -1.81084e-05 -7.91396e-07)
(-3.17326e-06 0.000710438 -1.04857e-06)
(1.44432e-07 2.252e-07 0.000713696)
(0.000629675 -1.99993e-05 -8.13496e-07)
(-3.66909e-06 0.000710339 -1.29639e-06)
(1.50084e-07 2.95141e-07 0.000714246)
(0.000630393 -2.19896e-05 -7.88252e-07)
(-4.22942e-06 0.000710097 -1.58245e-06)
(1.36447e-07 3.9571e-07 0.000714707)
(0.000631144 -2.4092e-05 -6.96996e-07)
(-4.8131e-06 0.000709557 -1.89067e-06)
(8.97985e-08 5.45978e-07 0.000714918)
(0.00063186 -2.62622e-05 -5.29652e-07)
(-5.31424e-06 0.00070851 -2.16666e-06)
(-4.97067e-09 7.71547e-07 0.000714663)
(0.000632411 -2.83213e-05 -3.18841e-07)
(-5.48039e-06 0.000706788 -2.26903e-06)
(-1.43061e-07 1.09144e-06 0.000713775)
(0.000632645 -2.98794e-05 -1.59067e-07)
(-4.66356e-06 0.000704619 -1.97837e-06)
(-2.46542e-07 1.47221e-06 0.000712515)
(-6.18189e-06 0.000701574 -7.35053e-07)
(-4.19786e-07 1.96354e-06 0.000709783)
(0.000625334 -2.37897e-06 -1.41063e-07)
(-2.24479e-06 0.000716253 -4.92448e-08)
(7.63613e-08 7.56759e-09 0.000715319)
(0.000625652 -4.57871e-06 -2.73483e-07)
(-2.14486e-06 0.000715295 -1.47007e-07)
(7.44346e-08 2.25182e-08 0.000714807)
(0.000625958 -6.57862e-06 -3.95726e-07)
(-2.08617e-06 0.000714218 -2.45519e-07)
(7.68921e-08 3.75303e-08 0.000714167)
(0.000626264 -8.42616e-06 -5.12772e-07)
(-2.12783e-06 0.000713412 -3.50562e-07)
(8.55861e-08 5.36907e-08 0.000713771)
(0.000626581 -1.01612e-05 -6.28128e-07)
(-2.25794e-06 0.000712837 -4.69117e-07)
(9.9555e-08 7.23305e-08 0.000713592)
(0.000626916 -1.18274e-05 -7.40797e-07)
(-2.46975e-06 0.00071246 -6.07705e-07)
(1.1834e-07 9.49143e-08 0.000713601)
(0.000627274 -1.34683e-05 -8.48727e-07)
(-2.76044e-06 0.000712249 -7.72597e-07)
(1.41469e-07 1.23322e-07 0.000713775)
(0.000627658 -1.51254e-05 -9.47149e-07)
(-3.12872e-06 0.00071217 -9.69967e-07)
(1.68148e-07 1.60461e-07 0.000714081)
(0.000628066 -1.68487e-05 -1.02625e-06)
(-3.57301e-06 0.000712177 -1.20549e-06)
(1.97025e-07 2.11305e-07 0.000714469)
(0.000628495 -1.86965e-05 -1.07114e-06)
(-4.08993e-06 0.000712208 -1.48323e-06)
(2.25144e-07 2.8451e-07 0.000714865)
(0.000628938 -2.07478e-05 -1.0588e-06)
(-4.66763e-06 0.00071218 -1.8018e-06)
(2.48053e-07 3.94367e-07 0.000715168)
(0.000629387 -2.30939e-05 -9.55554e-07)
(-5.26171e-06 0.000711955 -2.1429e-06)
(2.60361e-07 5.63421e-07 0.000715218)
(0.000629822 -2.57881e-05 -7.16963e-07)
(-5.75386e-06 0.000711295 -2.44512e-06)
(2.5051e-07 8.20778e-07 0.00071477)
(0.000630204 -2.87058e-05 -3.2588e-07)
(-5.86942e-06 0.000709878 -2.55157e-06)
(2.03936e-07 1.18249e-06 0.000713556)
(0.000630449 -3.1231e-05 1.22954e-07)
(-4.91635e-06 0.00070746 -2.22205e-06)
(1.15595e-07 1.59828e-06 0.000711579)
(-6.045e-06 0.000705052 -8.93097e-07)
(7.81209e-08 2.06171e-06 0.000708775)
(0.000625247 -2.17239e-06 -1.67019e-07)
(-2.48623e-06 0.000718426 -5.44605e-08)