/*--------------------------------*- C++ -*----------------------------------*\
| =========                 |                                                 |
| \\      /  F ield         | foam-extend: Open Source CFD                    |
|  \\    /   O peration     | Version:     3.1                                |
|   \\  /    A nd           | Web:         http://www.extend-project.de       |
|    \\/     M anipulation  |                                                 |
\*---------------------------------------------------------------------------*/
FoamFile
{
    version     2.0;
    format      ascii;
    class       volVectorField;
    location    "3.4";
    object      U;
}
// * * * * * * * * * * * * * * * * * * * * * * * * * * * * * * * * * * * * * //

dimensions      [0 1 -1 0 0 0 0];

internalField   nonuniform List<vector> 
14592
(
(0.0190005 -8.98282e-05 -0.00170257)
(0.0189345 4.77846e-05 -0.00307047)
(0.0186624 0.000160485 -0.00389906)
(0.0181954 0.000229144 -0.00465105)
(0.0175775 0.000280017 -0.00549761)
(0.0168511 0.000317761 -0.00651697)
(0.0160689 0.000337117 -0.00775693)
(0.0152972 0.000329782 -0.00926324)
(0.0146112 0.000284533 -0.0110986)
(0.0140932 0.000184724 -0.0133603)
(0.0138382 2.3254e-06 -0.0162033)
(0.0139654 -0.000306063 -0.0198702)
(0.0146219 -0.000790713 -0.0246875)
(0.0157538 -0.00136879 -0.0308263)
(0.0159459 -0.00129614 -0.0369001)
(0.0115801 0.00063604 -0.0323172)
(0.0529348 -9.81509e-06 -0.00202724)
(0.0526736 0.000295713 -0.00472072)
(0.0521175 0.000638738 -0.00673427)
(0.0512623 0.000936837 -0.00858106)
(0.0501275 0.0011824 -0.0105705)
(0.0487427 0.00136294 -0.0128807)
(0.0471722 0.00146158 -0.0156155)
(0.0455075 0.00146463 -0.0188523)
(0.043847 0.00135886 -0.0226853)
(0.042276 0.00112084 -0.0272677)
(0.0408524 0.000694922 -0.0328615)
(0.0395842 -2.96641e-05 -0.0398971)
(0.0383998 -0.00122492 -0.048972)
(0.0368218 -0.00292706 -0.0602684)
(0.0321347 -0.00396865 -0.0702085)
(0.0188388 -0.00129651 -0.0558602)
(0.0821919 0.000137642 -0.00163494)
(0.081917 0.000619478 -0.00437888)
(0.0813407 0.00117937 -0.00673848)
(0.0804787 0.00173029 -0.00901637)
(0.0793251 0.00222884 -0.0114905)
(0.0778501 0.00263501 -0.0143734)
(0.0760558 0.00291145 -0.0178081)
(0.0739809 0.00303373 -0.0218913)
(0.0716828 0.00298879 -0.0267141)
(0.0692052 0.00276143 -0.0324147)
(0.0665422 0.00229977 -0.0392472)
(0.0635743 0.00147227 -0.0476808)
(0.0599964 1.03787e-05 -0.0584988)
(0.0550138 -0.00241046 -0.0723144)
(0.0449139 -0.00488915 -0.0851116)
(0.0229216 -0.00306654 -0.0670559)
(0.106596 0.000252651 -0.00128771)
(0.106369 0.000887521 -0.00365182)
(0.105874 0.00160802 -0.00583879)
(0.105147 0.00235372 -0.00803322)
(0.104184 0.00307516 -0.0104601)
(0.102907 0.00372279 -0.0133411)
(0.101239 0.00424883 -0.0168615)
(0.0991303 0.00462128 -0.0211595)
(0.096556 0.00482795 -0.0263451)
(0.0934938 0.00487028 -0.0325447)
(0.0898814 0.00472811 -0.0399757)
(0.0855154 0.00431569 -0.0490757)
(0.079927 0.00337797 -0.0607256)
(0.0721775 0.00135879 -0.0761668)
(0.0574692 -0.00184781 -0.0920452)
(0.0268079 -0.00277201 -0.0738679)
(0.126117 0.000340617 -0.00106673)
(0.125936 0.00110096 -0.003062)
(0.125529 0.00193247 -0.00494967)
(0.124946 0.00280617 -0.00686632)
(0.124199 0.00368915 -0.00899815)
(0.123198 0.00454578 -0.0115648)
(0.121813 0.00533958 -0.0147897)
(0.119911 0.00604723 -0.0188694)
(0.11738 0.00666587 -0.0239663)
(0.114113 0.00721978 -0.0302335)
(0.109987 0.0077313 -0.0378776)
(0.104736 0.00820269 -0.0472971)
(0.0977677 0.00849728 -0.059352)
(0.0881431 0.00814103 -0.0758935)
(0.0701256 0.00580022 -0.0948241)
(0.031032 0.0010958 -0.0781055)
(0.140753 0.000409288 -0.000923682)
(0.14061 0.0012728 -0.00264722)
(0.140282 0.00218664 -0.0042767)
(0.139825 0.00314643 -0.00592099)
(0.139268 0.00414231 -0.00773288)
(0.138533 0.00516449 -0.00991522)
(0.137473 0.0062042 -0.0127074)
(0.135908 0.00726523 -0.0163519)
(0.133662 0.00837001 -0.0210688)
(0.130556 0.00958041 -0.0270592)
(0.126415 0.0109724 -0.0345458)
(0.120921 0.0126792 -0.043915)
(0.113391 0.0147261 -0.0559229)
(0.10294 0.0171612 -0.0728434)
(0.0835563 0.0178775 -0.0943878)
(0.0365208 0.00981026 -0.0798754)
(0.150507 0.000459877 -0.000823154)
(0.150396 0.00140075 -0.00235001)
(0.150144 0.00237254 -0.00378337)
(0.149808 0.00338842 -0.00521284)
(0.14943 0.00446019 -0.00676336)
(0.148949 0.00560515 -0.00861257)
(0.148225 0.00684723 -0.0109925)
(0.147067 0.00822613 -0.0141614)
(0.145279 0.00979986 -0.0183717)
(0.142648 0.0116802 -0.0238564)
(0.139003 0.014003 -0.0308451)
(0.133995 0.017085 -0.0397088)
(0.127033 0.0211354 -0.0510499)
(0.116941 0.0272587 -0.0671689)
(0.0995846 0.0340486 -0.0904245)
(0.0455039 0.026386 -0.0781764)
(0.155383 0.000492097 -0.000749202)
(0.1553 0.00147807 -0.00212915)
(0.155126 0.00247719 -0.00341259)
(0.154919 0.00351592 -0.00467639)
(0.15473 0.00462474 -0.00602652)
(0.15451 0.00584493 -0.00761822)
(0.154138 0.00723021 -0.00966479)
(0.153434 0.00885324 -0.0124142)
(0.152224 0.0108049 -0.016115)
(0.150305 0.0132384 -0.0209921)
(0.147616 0.0163342 -0.0272446)
(0.143799 0.0205607 -0.0351566)
(0.138994 0.0263387 -0.0451629)
(0.13055 0.0356199 -0.0586923)
(0.122861 0.0532996 -0.081872)
(0.0642955 0.0524633 -0.0699889)
(0.0203019 -0.000109697 -0.00165018)
(0.0201661 2.17745e-05 -0.00299386)
(0.0197688 0.000137062 -0.00381863)
(0.0191342 0.000204182 -0.0045691)
(0.0183091 0.000251406 -0.00541226)
(0.0173272 0.000284695 -0.00642675)
(0.0162294 0.000298213 -0.00766089)
(0.0150687 0.000282315 -0.00915803)
(0.0139033 0.000223969 -0.0109724)
(0.0127893 0.000104489 -0.0131823)
(0.0117766 -0.000106219 -0.0159023)
(0.0109064 -0.000453754 -0.0192831)
(0.0101942 -0.00099377 -0.0234338)
(0.00937949 -0.00166886 -0.0280348)
(0.00738121 -0.00209427 -0.0309309)
(0.00374993 -0.00159628 -0.0233463)
(0.0566205 -3.34694e-05 -0.00191975)
(0.0562429 0.000245306 -0.00452353)
(0.0554684 0.0005772 -0.0064923)
(0.0543015 0.000865467 -0.00829844)
(0.0527672 0.00109992 -0.0102366)
(0.0508793 0.00126659 -0.0124848)
(0.0486786 0.00134471 -0.0151513)
(0.0462292 0.00131544 -0.0183133)
(0.0435969 0.00116006 -0.022053)
(0.0408214 0.000848578 -0.0264893)
(0.0378877 0.000315731 -0.0318085)
(0.0346867 -0.000563074 -0.038271)
(0.0309709 -0.00197345 -0.0460346)
(0.0259454 -0.00393785 -0.0542375)
(0.0176812 -0.00556547 -0.0579837)
(0.00716616 -0.00438091 -0.0405416)
(0.08794 0.000121462 -0.00152242)
(0.0875594 0.000570767 -0.00413581)
(0.0867616 0.00110803 -0.00641419)
(0.0855626 0.0016417 -0.00861606)
(0.0839653 0.00212475 -0.0109939)
(0.0819242 0.00251302 -0.0137544)
(0.0794105 0.00276141 -0.0170473)
(0.076422 0.002836 -0.020977)
(0.0729661 0.00271445 -0.025631)
(0.0690216 0.00237203 -0.0311174)
(0.0644893 0.0017425 -0.0376108)
(0.0591033 0.000668693 -0.0453897)
(0.0523367 -0.00115297 -0.0547376)
(0.0428951 -0.00397767 -0.0648379)
(0.0278957 -0.006895 -0.0696859)
(0.00994651 -0.00623625 -0.0486685)
(0.11406 0.000246488 -0.00119073)
(0.113747 0.000859583 -0.00342096)
(0.113056 0.00156096 -0.00551589)
(0.112013 0.00229279 -0.00762428)
(0.110625 0.00300429 -0.0099393)
(0.108804 0.00364222 -0.0126663)
(0.106444 0.0041503 -0.0159927)
(0.10344 0.00448541 -0.0200702)
(0.099698 0.00462485 -0.0250182)
(0.0951036 0.00456169 -0.0309496)
(0.0894688 0.00426624 -0.0380154)
(0.0823995 0.00363313 -0.0464736)
(0.0731776 0.00236805 -0.056716)
(0.0601322 -2.73447e-05 -0.068302)
(0.0389323 -0.00338113 -0.0749672)
(0.0130455 -0.00499304 -0.0534458)
(0.13495 0.000342959 -0.00098551)
(0.134699 0.00109898 -0.00286114)
(0.134123 0.00192564 -0.00466522)
(0.133254 0.00279924 -0.00650792)
(0.132115 0.00368784 -0.00854198)
(0.130615 0.00455428 -0.0109598)
(0.128598 0.0053563 -0.0139754)
(0.12588 0.00606219 -0.017796)
(0.122263 0.0066617 -0.0226029)
(0.11752 0.00717613 -0.0285543)
(0.111364 0.00762993 -0.0358141)
(0.103293 0.00802746 -0.0446172)
(0.0924238 0.00823235 -0.0553997)
(0.0769553 0.00775021 -0.0682269)
(0.0507992 0.00558631 -0.0769846)
(0.0168293 0.000610282 -0.0561552)
(0.150612 0.000418151 -0.000854093)
(0.150409 0.00129377 -0.0024737)
(0.149935 0.00221975 -0.00403276)
(0.149222 0.00319755 -0.00562197)
(0.148307 0.00421976 -0.00736324)
(0.147115 0.00527738 -0.00942503)
(0.145486 0.00636013 -0.0120245)
(0.143196 0.00746958 -0.0154044)
(0.139983 0.00862827 -0.0198048)
(0.135531 0.00990567 -0.0254456)
(0.129474 0.011398 -0.0325335)
(0.121219 0.0132686 -0.0413128)
(0.109738 0.0156202 -0.0521946)
(0.0933745 0.0184591 -0.0657629)
(0.0642932 0.0198299 -0.0765208)
(0.0221959 0.0121162 -0.0568365)
(0.161051 0.000473665 -0.000761635)
(0.160886 0.0014397 -0.00219715)
(0.160506 0.00243878 -0.00357135)
(0.159941 0.00349003 -0.00496157)
(0.159238 0.00460864 -0.0064665)
(0.15834 0.00581476 -0.00822738)
(0.157107 0.00713519 -0.0104449)
(0.155314 0.00861492 -0.0133668)
(0.152689 0.0103217 -0.0172603)
(0.148887 0.0123894 -0.0223838)
(0.143538 0.0149957 -0.0289733)
(0.136024 0.0185277 -0.0372915)
(0.125306 0.023363 -0.0476595)
(0.109926 0.0307409 -0.0610751)
(0.0818019 0.0390109 -0.0735061)
(0.0315367 0.03322 -0.054836)
(0.166268 0.000509351 -0.000693085)
(0.166137 0.00153015 -0.00199106)
(0.16585 0.00256857 -0.00322405)
(0.165438 0.00365686 -0.00445976)
(0.164954 0.00482945 -0.00578144)
(0.164359 0.00613203 -0.0073088)
(0.163537 0.0076251 -0.00922024)
(0.162286 0.0093936 -0.0117469)
(0.160374 0.0115469 -0.0151475)
(0.157484 0.0142745 -0.0196746)
(0.153375 0.0178123 -0.0255476)
(0.147489 0.0227529 -0.032994)
(0.13944 0.0297081 -0.0421962)
(0.127059 0.0413372 -0.0540512)
(0.10972 0.0620765 -0.0677782)
(0.0503438 0.06389 -0.0485264)
(0.0214141 -0.000128978 -0.00153091)
(0.0212112 -5.27408e-06 -0.00278944)
(0.0206949 0.000112372 -0.00356896)
(0.0199023 0.000177554 -0.00427868)
(0.0188836 0.000220314 -0.00507381)
(0.0176657 0.000247897 -0.00602856)
(0.0162799 0.000253907 -0.00718793)
(0.0147691 0.000227532 -0.00858864)
(0.013181 0.000154493 -0.0102708)
(0.0115598 1.56021e-05 -0.0122849)
(0.00994084 -0.000217454 -0.0146936)
(0.0083512 -0.000589114 -0.0175496)
(0.00680756 -0.001142 -0.0207943)
(0.00519302 -0.0018439 -0.023897)
(0.00315819 -0.00247082 -0.0247584)
(0.000906781 -0.00220167 -0.0168494)
(0.0597772 -5.52203e-05 -0.00174674)
(0.0592918 0.000197166 -0.00415398)
(0.0583144 0.000517643 -0.0059894)
(0.0568576 0.000795193 -0.00767231)
(0.0549546 0.0010167 -0.00947048)
(0.0526072 0.00116666 -0.0115512)
(0.0498374 0.00122049 -0.0140181)
(0.0466881 0.00115453 -0.016941)
(0.0432031 0.000945752 -0.0203812)
(0.0393989 0.000561436 -0.0244121)
(0.0352359 -6.30574e-05 -0.0291311)
(0.0305962 -0.0010439 -0.0346242)
(0.025265 -0.00254834 -0.0407395)
(0.0187422 -0.0045749 -0.0462424)
(0.0105229 -0.006401 -0.0465188)
(0.00256965 -0.00539804 -0.0291864)
(0.0928655 0.000107515 -0.00136636)
(0.0923894 0.000527634 -0.00375268)
(0.0913898 0.00104355 -0.00585548)
(0.0898813 0.00155991 -0.00788948)
(0.0878765 0.002026 -0.0100744)
(0.0853199 0.0023936 -0.0125991)
(0.0821584 0.00261003 -0.0156073)
(0.0783578 0.00263207 -0.0192)
(0.0738878 0.00242922 -0.0234505)
(0.0686868 0.00197162 -0.0284264)
(0.0626164 0.0011917 -0.0342085)
(0.0553774 -5.98387e-05 -0.0408879)
(0.0464551 -0.00205798 -0.0483756)
(0.0348302 -0.00496641 -0.0552912)
(0.0195398 -0.00798817 -0.0558205)
(0.00454351 -0.00742959 -0.0345371)
(0.120456 0.000242046 -0.00106309)
(0.120066 0.000837837 -0.00308342)
(0.119199 0.00152322 -0.00500385)
(0.11787 0.00224268 -0.00694263)
(0.116092 0.00294424 -0.00905969)
(0.113775 0.00357127 -0.0115345)
(0.110787 0.00405922 -0.0145414)
(0.106986 0.00435361 -0.0182286)
(0.102222 0.00442151 -0.0227099)
(0.0963144 0.00425065 -0.0280709)
(0.089004 0.00381258 -0.0343834)
(0.0798336 0.00301045 -0.0417237)
(0.068065 0.0015852 -0.0500713)
(0.0521286 -0.000842362 -0.0582623)
(0.0299856 -0.00415591 -0.0599373)
(0.00710243 -0.00578638 -0.0374117)
(0.14252 0.000346555 -0.000879649)
(0.142205 0.00110238 -0.00257379)
(0.141479 0.00192782 -0.00422344)
(0.140355 0.0028036 -0.00591815)
(0.138858 0.00369883 -0.00778042)
(0.136897 0.00457529 -0.00997045)
(0.134303 0.00538499 -0.0126784)
(0.130851 0.00608715 -0.0161002)
(0.12628 0.00666282 -0.0204136)
(0.120272 0.00713055 -0.0257612)
(0.112437 0.00752142 -0.0322452)
(0.102162 0.00786192 -0.0399342)
(0.0885222 0.00805404 -0.0488713)
(0.0695956 0.00770677 -0.0582347)
(0.041716 0.00577001 -0.0615019)
(0.0105941 0.000808466 -0.0389115)
(0.159062 0.000428129 -0.000762991)
(0.158803 0.0013193 -0.00222554)
(0.1582 0.00226062 -0.00365134)
(0.157259 0.00325851 -0.00511738)
(0.156019 0.00430811 -0.00672083)
(0.154405 0.00540164 -0.0085963)
(0.152249 0.00652718 -0.0109277)
(0.149297 0.00768273 -0.0139355)
(0.145227 0.00888808 -0.0178507)
(0.139622 0.0102169 -0.022883)
(0.131987 0.0117811 -0.0291955)
(0.121578 0.0137799 -0.0368853)
(0.107312 0.0163831 -0.04602)
(0.0872299 0.0196783 -0.0562131)
(0.0556103 0.0215912 -0.0612045)
(0.0159859 0.0139978 -0.0391022)
(0.170087 0.000488666 -0.000680786)
(0.169873 0.00148291 -0.00197775)
(0.16938 0.0025119 -0.00323567)
(0.168613 0.00360008 -0.00452263)
(0.167615 0.00476617 -0.00591812)
(0.166333 0.00603337 -0.00753181)
(0.164622 0.00743088 -0.0095269)
(0.16224 0.00900695 -0.0121203)
(0.158866 0.0108351 -0.0155627)
(0.154058 0.0130643 -0.0201032)
(0.147315 0.0159012 -0.0259507)
(0.137846 0.0197866 -0.0332444)
(0.124542 0.0252055 -0.0420335)
(0.105657 0.0335125 -0.0523928)
(0.0742766 0.0427951 -0.0591238)
(0.0258211 0.0375657 -0.0377082)
(0.175598 0.000528067 -0.000619453)
(0.175422 0.00158662 -0.0017926)
(0.175035 0.0026665 -0.00292254)
(0.174444 0.00380551 -0.00406993)
(0.173696 0.00504219 -0.00530254)
(0.172755 0.00642651 -0.00671158)
(0.171507 0.0080246 -0.00843806)
(0.169744 0.00993113 -0.010679)
(0.167197 0.0122693 -0.0136734)
(0.163468 0.0152555 -0.0176661)
(0.158204 0.0191648 -0.022864)
(0.150696 0.0246697 -0.0294074)
(0.140454 0.032498 -0.0372852)
(0.125307 0.0456352 -0.0467424)
(0.104675 0.0681697 -0.0554179)
(0.045028 0.0699895 -0.0338549)
(0.0223386 -0.000146622 -0.00134919)
(0.0220742 -3.13752e-05 -0.0024664)
(0.0214499 8.84274e-05 -0.00316172)
(0.0205151 0.000151674 -0.00379474)
(0.0193235 0.000189924 -0.00450173)
(0.0178975 0.000211648 -0.00534822)
(0.0162617 0.000209969 -0.00637296)
(0.0144532 0.000173129 -0.00760429)
(0.0125163 8.61671e-05 -0.0090677)
(0.0104951 -6.98306e-05 -0.0107882)
(0.00843239 -0.000320923 -0.0127856)
(0.00637505 -0.000702323 -0.0150458)
(0.00439104 -0.00124666 -0.0174294)
(0.00254332 -0.00192833 -0.0193906)
(0.000934739 -0.00257947 -0.0192317)
(-0.00029061 -0.00229134 -0.012379)
(0.0624058 -7.43255e-05 -0.00151498)
(0.0618246 0.000153612 -0.00362821)
(0.0606668 0.000463432 -0.00525015)
(0.0589515 0.000730816 -0.00673559)
(0.0567215 0.000939688 -0.00831587)
(0.0539714 0.0010731 -0.0101384)
(0.0507096 0.00110296 -0.0122954)
(0.0469658 0.00100146 -0.0148442)
(0.0427735 0.000742634 -0.0178248)
(0.038145 0.000294524 -0.0212699)
(0.033054 -0.000399136 -0.025207)
(0.0274244 -0.00143754 -0.0296001)
(0.0211594 -0.00295787 -0.0341569)
(0.0141167 -0.0049259 -0.0376438)
(0.0066275 -0.006705 -0.0363202)
(0.000547847 -0.00563821 -0.021506)
(0.096969 9.58355e-05 -0.00117227)
(0.0964096 0.000490847 -0.00324644)
(0.0952333 0.00098784 -0.00508947)
(0.0934518 0.00148852 -0.00687338)
(0.0910878 0.00193875 -0.00878075)
(0.0880795 0.0022866 -0.0109738)
(0.0843575 0.00247248 -0.0135802)
(0.079866 0.00244473 -0.0166887)
(0.0745513 0.00216633 -0.0203553)
(0.068335 0.00160652 -0.0246109)
(0.061077 0.000707703 -0.0294623)
(0.0525048 -0.000656885 -0.0348747)
(0.0422388 -0.00269979 -0.0405652)
(0.0296697 -0.00552263 -0.0450748)
(0.0149878 -0.00841032 -0.0435849)
(0.00216408 -0.0077627 -0.025269)
(0.125785 0.000238874 -0.000908581)
(0.125329 0.00082121 -0.00265351)
(0.12431 0.00149374 -0.00432712)
(0.122731 0.002203 -0.0060215)
(0.120612 0.00289602 -0.00786407)
(0.117859 0.00351336 -0.0100032)
(0.114325 0.00398305 -0.0125893)
(0.109842 0.00424002 -0.0157541)
(0.104223 0.00424221 -0.0195964)
(0.0972482 0.00397513 -0.0241731)
(0.0886287 0.00341885 -0.0294938)
(0.0779226 0.00250494 -0.0355104)
(0.064486 0.00104195 -0.0419716)
(0.0471072 -0.00126267 -0.0475291)
(0.0252036 -0.00436243 -0.0467423)
(0.00453252 -0.00590924 -0.0271439)
(0.148827 0.000350575 -0.000751818)
(0.148457 0.00110855 -0.00221172)
(0.147603 0.00193508 -0.0036459)
(0.146257 0.00281443 -0.00512649)
(0.144448 0.00371684 -0.00674933)
(0.142083 0.00460352 -0.00864178)
(0.138983 0.00542156 -0.0109616)
(0.134898 0.00612136 -0.0138787)
(0.129524 0.00667519 -0.0175506)
(0.122487 0.00709947 -0.0220947)
(0.113339 0.00743529 -0.0275611)
(0.101442 0.00774195 -0.033906)
(0.0859373 0.00797214 -0.0409411)
(0.0651505 0.00783518 -0.0475385)
(0.0370228 0.00620488 -0.0479359)
(0.00797893 0.00129437 -0.0280691)
(0.166102 0.000438012 -0.000652593)
(0.165795 0.00134556 -0.00191283)
(0.165081 0.00230302 -0.00315205)
(0.163945 0.00332087 -0.00443486)
(0.162423 0.00439664 -0.00583795)
(0.160438 0.00552411 -0.00746535)
(0.157817 0.00669014 -0.00946383)
(0.154289 0.00788876 -0.0120181)
(0.149492 0.00913525 -0.0153297)
(0.142947 0.0105047 -0.0195806)
(0.134083 0.0121209 -0.0248886)
(0.122089 0.014217 -0.0312524)
(0.105932 0.0170209 -0.038532)
(0.0837534 0.0206952 -0.0459548)
(0.0513642 0.0230712 -0.0477824)
(0.0135298 0.0155292 -0.0281486)
(0.177616 0.000503284 -0.000582544)
(0.177358 0.00152546 -0.00170065)
(0.176769 0.00258377 -0.0027945)
(0.17583 0.00370716 -0.00392268)
(0.174579 0.00491765 -0.00514936)
(0.172959 0.00624152 -0.00655804)
(0.170825 0.00771018 -0.00827488)
(0.167925 0.00937384 -0.0104758)
(0.163909 0.0113083 -0.0133751)
(0.158278 0.0136715 -0.01719)
(0.150452 0.0166875 -0.0220905)
(0.139552 0.0208346 -0.0281325)
(0.124495 0.026664 -0.0352008)
(0.103556 0.0355985 -0.0429727)
(0.0709047 0.0455544 -0.0464263)
(0.0237744 0.0405631 -0.0273026)
(0.183371 0.000546285 -0.000530024)
(0.183156 0.00164161 -0.00154173)
(0.182683 0.00276128 -0.00252499)
(0.18194 0.00394802 -0.00353254)
(0.180966 0.00524428 -0.00462)
(0.179724 0.00670399 -0.00585633)
(0.178099 0.00839801 -0.00734817)
(0.17588 0.0104283 -0.00925174)
(0.172783 0.0129274 -0.011768)
(0.168364 0.0161295 -0.0151107)
(0.162204 0.0203324 -0.0194574)
(0.153506 0.0262564 -0.0248871)
(0.141787 0.0346862 -0.0312778)
(0.124923 0.048756 -0.0385845)
(0.102861 0.0723562 -0.0440866)
(0.0431726 0.0738484 -0.0248546)
(0.0230757 -0.000161268 -0.00111218)
(0.0227595 -5.19358e-05 -0.00203856)
(0.0220432 6.75999e-05 -0.0026158)
(0.020987 0.000128645 -0.00314133)
(0.0196496 0.00016284 -0.00372659)
(0.0180502 0.000179323 -0.00442513)
(0.0162097 0.000170837 -0.00526777)
(0.0141627 0.00012496 -0.00627454)
(0.0119551 2.65184e-05 -0.00745912)
(0.00963833 -0.000141819 -0.00882863)
(0.00727284 -0.000406842 -0.0103765)
(0.00493593 -0.000789802 -0.012057)
(0.00275119 -0.00131721 -0.013714)
(0.000906421 -0.00196165 -0.0148859)
(-0.000272866 -0.00257258 -0.0143268)
(-0.000826865 -0.00225651 -0.0089376)
(0.0645081 -9.00705e-05 -0.00123301)
(0.0638459 0.000117787 -0.00296822)
(0.0625352 0.000417545 -0.00430743)
(0.0606022 0.000675828 -0.00553205)
(0.0580979 0.000873618 -0.00682959)
(0.0550131 0.000992507 -0.00832091)
(0.0513482 0.00100142 -0.0100813)
(0.0471266 0.000869218 -0.0121547)
(0.0423803 0.000568124 -0.0145633)
(0.0371284 6.87267e-05 -0.0173118)
(0.0313759 -0.000673083 -0.0203857)
(0.0251062 -0.00173827 -0.0236932)
(0.0183433 -0.00323498 -0.0269151)
(0.0112079 -0.00510167 -0.0290155)
(0.0044325 -0.00675491 -0.0272149)
(-0.000407358 -0.00562195 -0.0156003)
(0.100251 8.63976e-05 -0.00094622)
(0.0996225 0.000460425 -0.00263665)
(0.0982991 0.000941996 -0.00414828)
(0.0962896 0.00142961 -0.00561203)
(0.0936253 0.00186637 -0.00717106)
(0.0902417 0.00219738 -0.00895543)
(0.0860594 0.0023572 -0.0110693)
(0.0810096 0.00228706 -0.0135846)
(0.0750274 0.00194506 -0.01654)
(0.0680343 0.00130182 -0.0199421)
(0.0599071 0.000315832 -0.0237549)
(0.0504245 -0.00111297 -0.0278872)
(0.0393611 -0.00313383 -0.0319909)
(0.0264352 -0.00581062 -0.0348121)
(0.0124229 -0.00849768 -0.0327059)
(0.00104843 -0.00775903 -0.018284)
(0.130047 0.000236643 -0.000731359)
(0.129536 0.000808717 -0.0021466)
(0.128393 0.00147144 -0.00351293)
(0.126606 0.00217277 -0.00489936)
(0.124203 0.00285905 -0.00640263)
(0.121088 0.00346875 -0.00813779)
(0.117105 0.00392377 -0.010225)
(0.112068 0.00415 -0.0127715)
(0.10577 0.00409783 -0.0158555)
(0.0979709 0.00375282 -0.019511)
(0.0883796 0.00310591 -0.0237113)
(0.0766017 0.00212448 -0.0283448)
(0.0621156 0.000684576 -0.0331014)
(0.0440367 -0.00144956 -0.0367443)
(0.0225731 -0.00430148 -0.0350781)
(0.00337025 -0.00577526 -0.0195592)
(0.153872 0.000354429 -0.000605229)
(0.153456 0.00111557 -0.00178734)
(0.152496 0.00194435 -0.00295579)
(0.150968 0.00282777 -0.00416658)
(0.148902 0.00373705 -0.00549191)
(0.146203 0.00463332 -0.0070277)
(0.142683 0.00545984 -0.00889598)
(0.13808 0.00615939 -0.0112323)
(0.132066 0.00669626 -0.014164)
(0.124232 0.00708519 -0.0177807)
(0.114106 0.00737792 -0.0220984)
(0.101066 0.00766696 -0.0270199)
(0.0843514 0.00795345 -0.0322774)
(0.0625669 0.00802371 -0.036779)
(0.0345492 0.00668263 -0.035987)
(0.00685411 0.00180509 -0.0201802)
(0.171734 0.000446903 -0.000525639)
(0.171386 0.00136969 -0.00154611)
(0.170581 0.00234224 -0.00255535)
(0.169286 0.00337812 -0.0036051)
(0.167532 0.00447689 -0.00475411)
(0.165241 0.00563401 -0.00607938)
(0.162234 0.00683564 -0.00769106)
(0.158231 0.0080722 -0.00973237)
(0.15285 0.00935399 -0.0123642)
(0.145575 0.0107554 -0.0157318)
(0.135796 0.0124087 -0.0199156)
(0.122687 0.0145744 -0.0248664)
(0.105286 0.0175267 -0.0303664)
(0.0819229 0.0214866 -0.0355991)
(0.0492875 0.024224 -0.035945)
(0.0125777 0.0166949 -0.020257)
(0.183639 0.000516315 -0.000469357)
(0.183344 0.00156362 -0.00137513)
(0.182675 0.00264821 -0.00226625)
(0.181595 0.00380257 -0.00319034)
(0.180138 0.00505152 -0.00419769)
(0.178241 0.00642414 -0.00534992)
(0.175757 0.00795387 -0.00673949)
(0.172426 0.00969211 -0.00849928)
(0.16789 0.0117149 -0.0107971)
(0.161616 0.0141843 -0.013807)
(0.152986 0.0173331 -0.0176586)
(0.14108 0.0216639 -0.0223632)
(0.124865 0.0277671 -0.0277459)
(0.102726 0.0371099 -0.0333759)
(0.069477 0.0475205 -0.0350981)
(0.0231383 0.0426637 -0.0197855)
(0.18959 0.000562518 -0.000427012)
(0.189341 0.00169064 -0.00124683)
(0.188798 0.00284548 -0.00204826)
(0.18793 0.00407383 -0.00287434)
(0.186774 0.0054215 -0.00376936)
(0.185285 0.00694583 -0.00478429)
(0.183347 0.00872148 -0.0059961)
(0.180749 0.0108558 -0.00752054)
(0.177202 0.0134869 -0.00951287)
(0.172239 0.0168598 -0.0121437)
(0.165413 0.021283 -0.015554)
(0.155879 0.0275031 -0.0197872)
(0.143183 0.0363274 -0.0246879)
(0.125266 0.0509635 -0.030107)
(0.102493 0.0752412 -0.0336316)
(0.0426577 0.0764775 -0.0181866)
(0.0236264 -0.000172401 -0.000828865)
(0.0232701 -6.62751e-05 -0.00152237)
(0.0224817 5.0863e-05 -0.00195486)
(0.0213299 0.000109508 -0.00234836)
(0.0198788 0.000140227 -0.00278547)
(0.0181459 0.000152301 -0.00330565)
(0.0161498 0.000138187 -0.00393104)
(0.0139255 8.4984e-05 -0.00467448)
(0.0115225 -2.2705e-05 -0.00554177)
(0.00900207 -0.000200053 -0.00653139)
(0.00644311 -0.000474722 -0.0076252)
(0.00395227 -0.000858 -0.00877413)
(0.00169452 -0.00136735 -0.00984597)
(-7.0823e-05 -0.00197582 -0.0105049)
(-0.000930456 -0.00254117 -0.00990609)
(-0.00107922 -0.00219873 -0.00607101)
(0.0660841 -0.000102084 -0.000910204)
(0.0653585 9.07535e-05 -0.00220012)
(0.0639278 0.000381645 -0.00319926)
(0.0618253 0.000632294 -0.0041117)
(0.0591081 0.000821071 -0.00507539)
(0.0557653 0.000928247 -0.00617963)
(0.0517938 0.000920442 -0.00747977)
(0.0472145 0.000764013 -0.00900614)
(0.0420638 0.000430166 -0.0107694)
(0.0363716 -0.000107771 -0.0127617)
(0.0301747 -0.000882217 -0.0149484)
(0.0235164 -0.00196209 -0.0172369)
(0.0165093 -0.00341995 -0.0193553)
(0.00943534 -0.00518709 -0.0205466)
(0.00320204 -0.00671858 -0.0189177)
(-0.000866881 -0.00553676 -0.0106403)
(0.102712 7.92909e-05 -0.000694201)
(0.10203 0.000436908 -0.00194389)
(0.100592 0.000906948 -0.00306621)
(0.0984063 0.00138454 -0.00415324)
(0.0955095 0.00181081 -0.00530778)
(0.0918366 0.00212872 -0.00662423)
(0.0873029 0.00226835 -0.00817905)
(0.0818331 0.0021654 -0.0100243)
(0.0753589 0.00177465 -0.0121847)
(0.0678089 0.00106915 -0.0146527)
(0.0590781 2.37845e-05 -0.0173851)
(0.0490149 -0.0014317 -0.020281)
(0.0375011 -0.0034149 -0.0230273)
(0.0244702 -0.00595054 -0.0246967)
(0.0109876 -0.00845457 -0.0227759)
(0.000521127 -0.00765328 -0.0124655)
(0.133243 0.000235196 -0.000535436)
(0.132689 0.000799903 -0.00157798)
(0.13145 0.0014557 -0.0025889)
(0.129505 0.00215136 -0.00361636)
(0.126883 0.00283275 -0.00472832)
(0.123489 0.003437 -0.0060062)
(0.119161 0.00388141 -0.00753662)
(0.113705 0.00408478 -0.0093979)
(0.106903 0.00399165 -0.0116459)
(0.0985091 0.00358887 -0.0142984)
(0.0882435 0.00287789 -0.0173185)
(0.0757544 0.00186528 -0.0205854)
(0.0606232 0.000461951 -0.0238312)
(0.0422167 -0.00151651 -0.0260942)
(0.0211396 -0.00415627 -0.0244453)
(0.00284895 -0.00558709 -0.0133129)
(0.157655 0.000357728 -0.000443074)
(0.157203 0.00112214 -0.00131284)
(0.156163 0.00195351 -0.00217596)
(0.154496 0.00284081 -0.00307262)
(0.152232 0.003756 -0.00405358)
(0.149275 0.00466043 -0.00518532)
(0.145434 0.00549467 -0.00655371)
(0.140438 0.00619556 -0.00825623)
(0.133945 0.00672088 -0.0103854)
(0.125533 0.00708386 -0.0130035)
(0.114723 0.00734517 -0.0161097)
(0.100916 0.00762072 -0.0196023)
(0.0834425 0.00796397 -0.0232342)
(0.0611229 0.00820362 -0.0261378)
(0.0332661 0.0070925 -0.0250994)
(0.00638359 0.00222578 -0.0137325)
(0.175957 0.00045416 -0.000384922)
(0.175577 0.00138965 -0.00113578)
(0.174703 0.00237483 -0.00188104)
(0.173286 0.00342553 -0.00265857)
(0.171355 0.00454281 -0.00351041)
(0.168829 0.00572362 -0.00448946)
(0.165527 0.00695387 -0.00567153)
(0.161162 0.00822118 -0.00715742)
(0.155342 0.00953133 -0.00906275)
(0.147536 0.0109569 -0.0114922)
(0.137116 0.0126354 -0.0144972)
(0.123257 0.0148462 -0.0180195)
(0.105066 0.0179015 -0.0218526)
(0.0810315 0.0220612 -0.0253246)
(0.0483164 0.0250614 -0.0251161)
(0.0122518 0.017528 -0.0138098)
(0.188155 0.000526861 -0.000343764)
(0.187832 0.00159465 -0.00101045)
(0.187101 0.0027006 -0.00166862)
(0.185914 0.00387987 -0.00235336)
(0.184299 0.00515935 -0.00310138)
(0.182192 0.00657042 -0.00395512)
(0.179439 0.00814821 -0.00497719)
(0.17578 0.00994489 -0.00625922)
(0.170851 0.0120357 -0.00791995)
(0.164107 0.0145839 -0.0100849)
(0.154911 0.017826 -0.0128452)
(0.142332 0.0222784 -0.0161945)
(0.125377 0.0285553 -0.0199685)
(0.102537 0.0381554 -0.0237855)
(0.0689723 0.0488728 -0.0246094)
(0.0230452 0.0441016 -0.0135592)
(0.194253 0.000575634 -0.000312736)
(0.193978 0.00173032 -0.000916283)
(0.193381 0.00291348 -0.00150842)
(0.192419 0.00417501 -0.00212089)
(0.191123 0.00556334 -0.00278638)
(0.189447 0.00713847 -0.0035402)
(0.18727 0.0089779 -0.00443396)
(0.184381 0.0111928 -0.00554634)
(0.180493 0.0139242 -0.00698588)
(0.17513 0.0174232 -0.00887538)
(0.167834 0.0220018 -0.0113161)
(0.157739 0.0284201 -0.0143329)
(0.144418 0.0374915 -0.0177858)
(0.125864 0.0524623 -0.0215232)
(0.102717 0.0771802 -0.0237063)
(0.0426536 0.0782549 -0.0125304)
(0.0239922 -0.000179932 -0.000508176)
(0.0236081 -7.69491e-05 -0.000934817)
(0.0227704 3.82507e-05 -0.00120074)
(0.0215531 9.47892e-05 -0.00144214)
(0.0200243 0.000122502 -0.00170989)
(0.0182008 0.000130851 -0.0020279)
(0.0161005 0.00011205 -0.00240929)
(0.0137594 5.27665e-05 -0.00286108)
(0.0112302 -6.29354e-05 -0.00338518)
(0.00858391 -0.000249304 -0.00397734)
(0.00591326 -0.000529167 -0.0046216)
(0.00334485 -0.000913238 -0.00528309)
(0.00106866 -0.00141029 -0.00587645)
(-0.00061355 -0.00198971 -0.00620459)
(-0.00126785 -0.00252751 -0.00577641)
(-0.00119404 -0.00216144 -0.00350528)
(0.0671327 -0.000110018 -0.000554061)
(0.0663635 7.2072e-05 -0.00134492)
(0.0648515 0.00035668 -0.00195733)
(0.0626333 0.000601767 -0.00251572)
(0.0597707 0.000783863 -0.00310447)
(0.0562531 0.000882454 -0.00377769)
(0.0520753 0.000862616 -0.00456884)
(0.0472588 0.000688969 -0.00549552)
(0.041843 0.000332134 -0.00656172)
(0.0358741 -0.000230127 -0.0077592)
(0.0294084 -0.00102721 -0.00905492)
(0.022531 -0.00211417 -0.0103861)
(0.0154147 -0.0035407 -0.0115767)
(0.00843009 -0.00523188 -0.0121732)
(0.00255076 -0.00668009 -0.0110849)
(-0.00107644 -0.00546454 -0.00616889)
(0.10435 7.47708e-05 -0.000420571)
(0.103631 0.000421458 -0.00118387)
(0.102117 0.00088377 -0.00186976)
(0.0998112 0.0013546 -0.00253373)
(0.0967561 0.00177365 -0.00323795)
(0.092887 0.00208258 -0.00403894)
(0.0881165 0.0022085 -0.00498279)
(0.0823669 0.00208343 -0.00610073)
(0.0755706 0.00165989 -0.0074059)
(0.0676626 0.000914831 -0.00888861)
(0.0585543 -0.000169691 -0.0105172)
(0.0481481 -0.00163766 -0.0122161)
(0.0363967 -0.00358561 -0.013781)
(0.0233581 -0.00601559 -0.0146492)
(0.0102296 -0.00839029 -0.0133637)
(0.000288231 -0.0075508 -0.00722525)
(0.135372 0.000234467 -0.000323851)
(0.134789 0.000794701 -0.000959122)
(0.133485 0.00144625 -0.00157552)
(0.131432 0.00213845 -0.00220211)
(0.128662 0.00281685 -0.0028798)
(0.125079 0.0034178 -0.00365648)
(0.120519 0.00385562 -0.00458368)
(0.114783 0.00404431 -0.00570856)
(0.107648 0.00392436 -0.00706425)
(0.0988685 0.00348214 -0.00865878)
(0.0881781 0.00273155 -0.0104643)
(0.0752578 0.00170312 -0.0123932)
(0.0597624 0.00033313 -0.0142651)
(0.0412104 -0.00153223 -0.0154893)
(0.0204033 -0.00402527 -0.0143545)
(0.0026368 -0.00543433 -0.00771075)
(0.160176 0.000360159 -0.000267994)
(0.159699 0.00112732 -0.000797633)
(0.158604 0.00196102 -0.00132336)
(0.156844 0.00285151 -0.00186972)
(0.154446 0.00377119 -0.00246763)
(0.151315 0.00468172 -0.00315569)
(0.147257 0.00552206 -0.00398414)
(0.141997 0.00622502 -0.00501103)
(0.135188 0.00674388 -0.00629187)
(0.1264 0.00709021 -0.00786318)
(0.115157 0.007332 -0.00972002)
(0.100881 0.00760037 -0.0117901)
(0.0829662 0.00798436 -0.0139052)
(0.0603697 0.00833952 -0.0155229)
(0.0326416 0.00738326 -0.014752)
(0.00621309 0.00251593 -0.00795788)
(0.178771 0.000459258 -0.000232906)
(0.178369 0.00140389 -0.000690222)
(0.177448 0.0023982 -0.00114411)
(0.175949 0.00345953 -0.00161779)
(0.173899 0.00458986 -0.00213736)
(0.171215 0.00578723 -0.00273346)