/*--------------------------------*- C++ -*----------------------------------*\
| =========                 |                                                 |
| \\      /  F ield         | foam-extend: Open Source CFD                    |
|  \\    /   O peration     | Version:     3.1                                |
|   \\  /    A nd           | Web:         http://www.extend-project.de       |
|    \\/     M anipulation  |                                                 |
\*---------------------------------------------------------------------------*/
FoamFile
{
    version     2.0;
    format      ascii;
    class       volVectorField;
    location    "1.8";
    object      cellMotionU;
}
// * * * * * * * * * * * * * * * * * * * * * * * * * * * * * * * * * * * * * //

dimensions      [0 1 -1 0 0 0 0];

internalField   nonuniform List<vector> 
14592
(
(1.70836e-11 -4.64719e-12 -8.6408e-13)
(4.97674e-11 -1.34924e-11 -2.57381e-12)
(8.03202e-11 -2.16019e-11 -4.33988e-12)
(1.10193e-10 -2.91839e-11 -6.34126e-12)
(1.40834e-10 -3.63061e-11 -8.77225e-12)
(1.73825e-10 -4.28426e-11 -1.18683e-11)
(2.11039e-10 -4.83744e-11 -1.59368e-11)
(2.54821e-10 -5.20401e-11 -2.13953e-11)
(3.08187e-10 -5.22438e-11 -2.88181e-11)
(3.75014e-10 -4.62134e-11 -3.89782e-11)
(4.60104e-10 -2.92577e-11 -5.28402e-11)
(5.6883e-10 6.41079e-12 -7.13559e-11)
(7.05824e-10 7.34368e-11 -9.46479e-11)
(8.71621e-10 1.91612e-10 -1.19511e-10)
(1.05487e-09 3.8655e-10 -1.33392e-10)
(1.20883e-09 6.41651e-10 -1.11878e-10)
(5.06465e-11 -1.38189e-11 -2.5448e-12)
(1.47507e-10 -4.01404e-11 -7.57726e-12)
(2.37938e-10 -6.43178e-11 -1.27665e-11)
(3.26153e-10 -8.70155e-11 -1.86315e-11)
(4.16327e-10 -1.08498e-10 -2.57324e-11)
(5.1299e-10 -1.2849e-10 -3.47445e-11)
(6.21463e-10 -1.45943e-10 -4.65453e-11)
(7.48359e-10 -1.58627e-10 -6.23265e-11)
(9.02155e-10 -1.62399e-10 -8.3734e-11)
(1.09373e-09 -1.50125e-10 -1.13023e-10)
(1.33659e-09 -1.09852e-10 -1.53143e-10)
(1.64589e-09 -2.23389e-11 -2.07509e-10)
(2.03458e-09 1.41987e-10 -2.78762e-10)
(2.50253e-09 4.24107e-10 -3.65002e-10)
(3.01006e-09 8.61887e-10 -4.50942e-10)
(3.40907e-09 1.37454e-09 -4.96844e-10)
(8.25956e-11 -2.26553e-11 -4.09621e-12)
(2.40428e-10 -6.58482e-11 -1.21867e-11)
(3.8739e-10 -1.05665e-10 -2.04987e-11)
(5.30082e-10 -1.43314e-10 -2.98418e-11)
(6.74962e-10 -1.79416e-10 -4.10804e-11)
(8.28921e-10 -2.13835e-10 -5.52434e-11)
(9.99911e-10 -2.45426e-10 -7.36545e-11)
(1.19766e-09 -2.71467e-10 -9.81011e-11)
(1.4345e-09 -2.86935e-10 -1.3106e-10)
(1.72614e-09 -2.83119e-10 -1.75986e-10)
(2.09213e-09 -2.4585e-10 -2.3764e-10)
(2.55477e-09 -1.53134e-10 -3.22317e-10)
(3.13386e-09 2.63336e-11 -4.37594e-10)
(3.83071e-09 3.29251e-10 -5.90646e-10)
(4.58625e-09 7.7132e-10 -7.81832e-10)
(5.17339e-09 1.23065e-09 -9.72269e-10)
(1.12021e-10 -3.09027e-11 -5.44882e-12)
(3.25833e-10 -8.98997e-11 -1.61915e-11)
(5.24157e-10 -1.4454e-10 -2.71688e-11)
(7.15428e-10 -1.96685e-10 -3.94083e-11)
(9.0774e-10 -2.47503e-10 -5.39879e-11)
(1.1095e-09 -2.97372e-10 -7.21646e-11)
(1.33014e-09 -3.45642e-10 -9.55251e-11)
(1.58085e-09 -3.90248e-10 -1.26181e-10)
(1.87545e-09 -4.27108e-10 -1.67035e-10)
(2.23126e-09 -4.49181e-10 -2.22163e-10)
(2.66973e-09 -4.45237e-10 -2.97335e-10)
(3.2158e-09 -3.98601e-10 -4.00698e-10)
(3.89349e-09 -2.86997e-10 -5.43441e-10)
(4.71045e-09 -8.73276e-11 -7.39432e-10)
(5.61122e-09 2.03548e-10 -9.97595e-10)
(6.33893e-09 4.95772e-10 -1.268e-09)
(1.38233e-10 -3.82836e-11 -6.5546e-12)
(4.017e-10 -1.11489e-10 -1.94473e-11)
(6.4492e-10 -1.79638e-10 -3.25302e-11)
(8.77521e-10 -2.45329e-10 -4.69641e-11)
(1.1085e-09 -3.10439e-10 -6.39369e-11)
(1.34686e-09 -3.76155e-10 -8.47929e-11)
(1.60224e-09 -4.42817e-10 -1.11176e-10)
(1.88548e-09 -5.09907e-10 -1.45208e-10)
(2.20934e-09 -5.75695e-10 -1.89737e-10)
(2.58902e-09 -6.37121e-10 -2.48682e-10)
(3.04265e-09 -6.89476e-10 -3.27562e-10)
(3.59102e-09 -7.26421e-10 -4.34247e-10)
(4.25514e-09 -7.40447e-10 -5.79934e-10)
(5.04607e-09 -7.2476e-10 -7.79444e-10)
(5.92615e-09 -6.79042e-10 -1.04428e-09)
(6.66449e-09 -6.26238e-10 -1.32636e-09)
(1.60795e-10 -4.45021e-11 -7.38927e-12)
(4.6677e-10 -1.29732e-10 -2.18845e-11)
(7.47703e-10 -2.09493e-10 -3.64712e-11)
(1.01377e-09 -2.87121e-10 -5.23599e-11)
(1.27419e-09 -3.65279e-10 -7.07503e-11)
(1.53771e-09 -4.46046e-10 -9.2943e-11)
(1.81307e-09 -5.31061e-10 -1.20455e-10)
(2.10928e-09 -6.216e-10 -1.55144e-10)
(2.43583e-09 -7.18907e-10 -1.99372e-10)
(2.80258e-09 -8.24571e-10 -2.56203e-10)
(3.21935e-09 -9.41426e-10 -3.29692e-10)
(3.69493e-09 -1.0748e-09 -4.25275e-10)
(4.23526e-09 -1.23382e-09 -5.50242e-10)
(4.83934e-09 -1.43043e-09 -7.139e-10)
(5.48271e-09 -1.66784e-09 -9.2351e-10)
(6.02888e-09 -1.88943e-09 -1.14562e-09)
(1.7952e-10 -4.92608e-11 -7.95286e-12)
(5.20549e-10 -1.43751e-10 -2.35059e-11)
(8.3186e-10 -2.32606e-10 -3.90104e-11)
(1.12363e-09 -3.1983e-10 -5.56539e-11)
(1.40473e-09 -4.08803e-10 -7.45679e-11)
(1.68304e-09 -5.02449e-10 -9.69127e-11)
(1.9657e-09 -6.03537e-10 -1.23951e-10)
(2.259e-09 -7.14999e-10 -1.57108e-10)
(2.56806e-09 -8.40489e-10 -1.9801e-10)
(2.89579e-09 -9.85327e-10 -2.48502e-10)
(3.24116e-09 -1.15807e-09 -3.10584e-10)
(3.59611e-09 -1.37283e-09 -3.86186e-10)
(3.94084e-09 -1.6524e-09 -4.76575e-10)
(4.23863e-09 -2.02912e-09 -5.80978e-10)
(4.43767e-09 -2.52741e-09 -6.93371e-10)
(4.50892e-09 -3.0434e-09 -7.9074e-10)
(1.94447e-10 -5.22916e-11 -8.26517e-12)
(5.63212e-10 -1.52745e-10 -2.43766e-11)
(8.97891e-10 -2.47607e-10 -4.02751e-11)
(1.20824e-09 -3.41407e-10 -5.70713e-11)
(1.5024e-09 -4.38036e-10 -7.57749e-11)
(1.7871e-09 -5.41059e-10 -9.73536e-11)
(2.06763e-09 -6.54002e-10 -1.22764e-10)
(2.3475e-09 -7.80775e-10 -1.52951e-10)
(2.62765e-09 -9.26282e-10 -1.888e-10)
(2.90486e-09 -1.09737e-09 -2.31001e-10)
(3.16901e-09 -1.30429e-09 -2.79754e-10)
(3.39832e-09 -1.56293e-09 -3.34162e-10)
(3.55142e-09 -1.89839e-09 -3.9097e-10)
(3.55433e-09 -2.35052e-09 -4.42057e-10)
(3.28977e-09 -2.97528e-09 -4.70262e-10)
(2.70209e-09 -3.73343e-09 -4.51849e-10)
(1.73539e-11 -4.8021e-12 -8.2048e-13)
(5.0566e-11 -1.39419e-11 -2.44286e-12)
(8.16513e-11 -2.23186e-11 -4.11575e-12)
(1.12115e-10 -3.01457e-11 -6.00696e-12)
(1.43464e-10 -3.74811e-11 -8.29805e-12)
(1.7735e-10 -4.41681e-11 -1.12082e-11)
(2.15733e-10 -4.9729e-11 -1.50223e-11)
(2.61057e-10 -5.31784e-11 -2.01266e-11)
(3.16461e-10 -5.27133e-11 -2.70502e-11)
(3.85936e-10 -4.51867e-11 -3.65035e-11)
(4.74338e-10 -2.52648e-11 -4.93689e-11)
(5.86892e-10 1.58744e-11 -6.65143e-11)
(7.27608e-10 9.2329e-11 -8.80839e-11)
(8.95498e-10 2.24798e-10 -1.11533e-10)
(1.07665e-09 4.34391e-10 -1.27808e-10)
(1.22461e-09 6.86917e-10 -1.22348e-10)
(5.14362e-11 -1.42831e-11 -2.41616e-12)
(1.49838e-10 -4.14843e-11 -7.19102e-12)
(2.41818e-10 -6.64701e-11 -1.21057e-11)
(3.31744e-10 -8.99167e-11 -1.76465e-11)
(4.23959e-10 -1.12067e-10 -2.43364e-11)
(5.23188e-10 -1.32576e-10 -3.28027e-11)
(6.34989e-10 -1.50233e-10 -4.38575e-11)
(7.66264e-10 -1.62492e-10 -5.85988e-11)
(9.25817e-10 -1.64677e-10 -7.8538e-11)
(1.12485e-09 -1.48674e-10 -1.05736e-10)
(1.37696e-09 -1.00954e-10 -1.42867e-10)
(1.69682e-09 2.37704e-13 -1.92968e-10)
(2.09515e-09 1.87688e-10 -2.58213e-10)
(2.56608e-09 5.03633e-10 -3.3635e-10)
(3.05895e-09 9.74264e-10 -4.13152e-10)
(3.42389e-09 1.48261e-09 -4.55935e-10)
(8.38478e-11 -2.34235e-11 -3.88855e-12)
(2.44119e-10 -6.80836e-11 -1.15635e-11)
(3.93514e-10 -1.09259e-10 -1.94335e-11)
(5.38869e-10 -1.48195e-10 -2.82563e-11)
(6.86891e-10 -1.85502e-10 -3.8837e-11)
(8.44758e-10 -2.20971e-10 -5.21286e-11)
(1.02076e-09 -2.53236e-10 -6.93501e-11)
(1.22504e-09 -2.79233e-10 -9.21386e-11)
(1.47037e-09 -2.93228e-10 -1.22749e-10)
(1.7729e-09 -2.85405e-10 -1.64307e-10)
(2.1523e-09 -2.39721e-10 -2.21065e-10)
(2.62996e-09 -1.31478e-10 -2.98482e-10)
(3.22198e-09 7.3733e-11 -4.02566e-10)
(3.91951e-09 4.1267e-10 -5.36907e-10)
(4.64304e-09 8.8694e-10 -6.9329e-10)
(5.15974e-09 1.34028e-09 -8.25191e-10)
(1.1365e-10 -3.19685e-11 -5.17154e-12)
(3.30624e-10 -9.30064e-11 -1.536e-11)
(5.3207e-10 -1.49561e-10 -2.57497e-11)
(7.26708e-10 -2.03569e-10 -3.73006e-11)
(9.22928e-10 -2.56232e-10 -5.10136e-11)
(1.12947e-09 -3.07869e-10 -6.80471e-11)
(1.35612e-09 -3.57686e-10 -8.98519e-11)
(1.61451e-09 -4.03308e-10 -1.18342e-10)
(1.91893e-09 -4.40108e-10 -1.56126e-10)
(2.2871e-09 -4.60134e-10 -2.06828e-10)
(2.74055e-09 -4.5078e-10 -2.75495e-10)
(3.30318e-09 -3.9344e-10 -3.69008e-10)
(3.99498e-09 -2.63886e-10 -4.96e-10)
(4.81215e-09 -3.94721e-11 -6.64286e-10)
(5.6755e-09 2.73063e-10 -8.68609e-10)
(6.31996e-09 5.6184e-10 -1.04807e-09)
(1.40137e-10 -3.96284e-11 -6.21954e-12)
(4.07279e-10 -1.15417e-10 -1.84438e-11)
(6.54081e-10 -1.86027e-10 -3.08211e-11)
(8.90466e-10 -2.54179e-10 -4.44333e-11)
(1.12573e-09 -3.21843e-10 -6.03792e-11)
(1.3692e-09 -3.90203e-10 -7.98889e-11)
(1.63082e-09 -4.59598e-10 -1.04449e-10)
(1.92182e-09 -5.29336e-10 -1.35956e-10)
(2.25525e-09 -5.97491e-10 -1.76912e-10)
(2.64656e-09 -6.60617e-10 -2.30712e-10)
(3.11375e-09 -7.13534e-10 -3.02014e-10)
(3.67663e-09 -7.49356e-10 -3.9719e-10)
(4.35303e-09 -7.60099e-10 -5.24432e-10)
(5.14543e-09 -7.38761e-10 -6.91632e-10)
(5.99796e-09 -6.85169e-10 -8.94529e-10)
(6.67274e-09 -6.23354e-10 -1.07337e-09)
(1.62864e-10 -4.60937e-11 -7.00995e-12)
(4.72812e-10 -1.34399e-10 -2.07497e-11)
(7.5755e-10 -2.17124e-10 -3.45438e-11)
(1.02754e-09 -2.97793e-10 -4.95172e-11)
(1.29225e-09 -3.79209e-10 -6.67738e-11)
(1.5607e-09 -4.63579e-10 -8.7494e-11)
(1.84184e-09 -5.52617e-10 -1.13029e-10)
(2.14487e-09 -6.47729e-10 -1.45e-10)
(2.47935e-09 -7.50269e-10 -1.85413e-10)
(2.85499e-09 -8.62116e-10 -2.36791e-10)
(3.28106e-09 -9.86645e-10 -3.02327e-10)
(3.76513e-09 -1.13016e-09 -3.85997e-10)
(4.31094e-09 -1.30298e-09 -4.92346e-10)
(4.91401e-09 -1.51611e-09 -6.24718e-10)
(5.54568e-09 -1.76186e-09 -7.77267e-10)
(6.07332e-09 -1.96031e-09 -9.06837e-10)
(1.81651e-10 -5.10557e-11 -7.54299e-12)
(5.26744e-10 -1.49025e-10 -2.22818e-11)
(8.41868e-10 -2.41272e-10 -3.69381e-11)
(1.13744e-09 -3.32045e-10 -5.26123e-11)
(1.42253e-09 -4.24915e-10 -7.03394e-11)
(1.70519e-09 -5.23033e-10 -9.11615e-11)
(1.99264e-09 -6.29385e-10 -1.16181e-10)
(2.29115e-09 -7.47197e-10 -1.46595e-10)
(2.60556e-09 -8.80585e-10 -1.83701e-10)
(2.93817e-09 -1.03564e-09 -2.28854e-10)
(3.28673e-09 -1.22221e-09 -2.83311e-10)
(3.64118e-09 -1.45662e-09 -3.47862e-10)
(3.97934e-09 -1.76428e-09 -4.21915e-10)
(4.26452e-09 -2.17685e-09 -5.01386e-10)
(4.4569e-09 -2.69973e-09 -5.74277e-10)
(4.55871e-09 -3.18015e-09 -6.15728e-10)
(1.96551e-10 -5.42314e-11 -7.83795e-12)
(5.69295e-10 -1.58448e-10 -2.31027e-11)
(9.07619e-10 -2.5702e-10 -3.81271e-11)
(1.22145e-09 -3.5474e-10 -5.39363e-11)
(1.51909e-09 -4.55781e-10 -7.14495e-11)
(1.80731e-09 -5.63955e-10 -9.15233e-11)
(2.09136e-09 -6.83115e-10 -1.1497e-10)
(2.37452e-09 -8.17591e-10 -1.42537e-10)
(2.65718e-09 -9.72902e-10 -1.74832e-10)
(2.93508e-09 -1.15685e-09 -2.12152e-10)
(3.19628e-09 -1.38125e-09 -2.54164e-10)
(3.41621e-09 -1.66438e-09 -2.99282e-10)
(3.55004e-09 -2.0342e-09 -3.43526e-10)
(3.52361e-09 -2.5302e-09 -3.78562e-10)
(3.23908e-09 -3.18831e-09 -3.89712e-10)
(2.70436e-09 -3.90546e-09 -3.64151e-10)
(1.75857e-11 -4.93892e-12 -7.46845e-13)
(5.12508e-11 -1.4338e-11 -2.22242e-12)
(8.27905e-11 -2.29494e-11 -3.74029e-12)
(1.13751e-10 -3.09864e-11 -5.44995e-12)
(1.45682e-10 -3.84975e-11 -7.51138e-12)
(1.8028e-10 -4.52993e-11 -1.01149e-11)
(2.1955e-10 -5.08604e-11 -1.35036e-11)
(2.65984e-10 -5.41051e-11 -1.80002e-11)
(3.22737e-10 -5.30809e-11 -2.4036e-11)
(3.93761e-10 -4.44204e-11 -3.21716e-11)
(4.83721e-10 -2.2505e-11 -4.3073e-11)
(5.97375e-10 2.17327e-11 -5.73458e-11)
(7.37851e-10 1.02197e-10 -7.50166e-11)
(9.03074e-10 2.37892e-10 -9.43251e-11)
(1.07934e-09 4.45194e-10 -1.09897e-10)
(1.22511e-09 6.86021e-10 -1.13865e-10)
(5.21131e-11 -1.46921e-11 -2.19916e-12)
(1.51837e-10 -4.26724e-11 -6.54161e-12)
(2.45138e-10 -6.83643e-11 -1.10003e-11)
(3.36503e-10 -9.24523e-11 -1.60082e-11)
(4.30395e-10 -1.15156e-10 -2.20256e-11)
(5.31666e-10 -1.36059e-10 -2.95961e-11)
(6.46006e-10 -1.53811e-10 -3.94103e-11)
(7.80436e-10 -1.65625e-10 -5.23812e-11)
(9.43819e-10 -1.66425e-10 -6.97316e-11)
(1.14723e-09 -1.47526e-10 -9.30696e-11)
(1.40373e-09 -9.46529e-11 -1.24376e-10)
(1.72658e-09 1.45554e-11 -1.65692e-10)
(2.12376e-09 2.12314e-10 -2.18048e-10)
(2.5854e-09 5.36472e-10 -2.78854e-10)
(3.05935e-09 1.00158e-09 -3.37423e-10)
(3.40798e-09 1.48186e-09 -3.72552e-10)
(8.49208e-11 -2.4104e-11 -3.53891e-12)
(2.47281e-10 -7.0057e-11 -1.05178e-11)
(3.98753e-10 -1.12421e-10 -1.76561e-11)
(5.46349e-10 -1.52461e-10 -2.56275e-11)
(6.96957e-10 -1.90767e-10 -3.51391e-11)
(8.57941e-10 -2.27041e-10 -4.70131e-11)
(1.03778e-09 -2.59747e-10 -6.22795e-11)
(1.24679e-09 -2.85488e-10 -8.22854e-11)
(1.49781e-09 -2.98039e-10 -1.08828e-10)
(1.8068e-09 -2.86826e-10 -1.44292e-10)
(2.19262e-09 -2.34882e-10 -1.91723e-10)
(2.67457e-09 -1.16749e-10 -2.54627e-10)
(3.2644e-09 1.01318e-10 -3.35953e-10)
(3.9464e-09 4.51083e-10 -4.3511e-10)
(4.63642e-09 9.21597e-10 -5.41114e-10)
(5.11812e-09 1.34807e-09 -6.20216e-10)
(1.15045e-10 -3.29102e-11 -4.70578e-12)
(3.34725e-10 -9.57489e-11 -1.39684e-11)
(5.38836e-10 -1.53979e-10 -2.33896e-11)
(7.36312e-10 -2.09589e-10 -3.3821e-11)
(9.35754e-10 -2.63776e-10 -4.61385e-11)
(1.14611e-09 -3.16801e-10 -6.13358e-11)
(1.3774e-09 -3.677e-10 -8.06253e-11)
(1.6414e-09 -4.1381e-10 -1.05556e-10)
(1.95247e-09 -4.50024e-10 -1.38155e-10)
(2.3281e-09 -4.67705e-10 -1.8109e-10)
(2.7889e-09 -4.53365e-10 -2.37797e-10)
(3.35653e-09 -3.87607e-10 -3.12402e-10)
(4.04626e-09 -2.46342e-10 -4.08872e-10)
(4.84668e-09 -9.95058e-12 -5.27854e-10)
(5.67293e-09 3.06843e-10 -6.57775e-10)
(6.27761e-09 5.85842e-10 -7.56009e-10)
(1.41764e-10 -4.08172e-11 -5.65841e-12)
(4.12051e-10 -1.18889e-10 -1.67698e-11)
(6.61909e-10 -1.91653e-10 -2.79897e-11)
(9.01488e-10 -2.61919e-10 -4.02762e-11)
(1.1403e-09 -3.31696e-10 -5.45863e-11)
(1.38788e-09 -4.02161e-10 -7.19667e-11)
(1.65435e-09 -4.73543e-10 -9.36403e-11)
(1.95106e-09 -5.44973e-10 -1.21102e-10)
(2.29109e-09 -6.14185e-10 -1.5622e-10)
(2.68959e-09 -6.7726e-10 -2.01335e-10)
(3.16374e-09 -7.28367e-10 -2.59334e-10)
(3.73148e-09 -7.59817e-10 -3.33521e-10)
(4.40706e-09 -7.62762e-10 -4.26843e-10)
(5.18768e-09 -7.29492e-10 -5.39072e-10)
(6.01449e-09 -6.6012e-10 -6.58792e-10)
(6.66425e-09 -5.83224e-10 -7.46939e-10)
(1.6463e-10 -4.75041e-11 -6.37655e-12)
(4.77971e-10 -1.38525e-10 -1.8863e-11)
(7.65955e-10 -2.23848e-10 -3.13637e-11)
(1.03925e-09 -3.07126e-10 -4.48718e-11)
(1.30754e-09 -3.91262e-10 -6.03443e-11)
(1.57997e-09 -4.78505e-10 -7.87734e-11)
(1.86565e-09 -5.70576e-10 -1.01247e-10)
(2.1738e-09 -6.68809e-10 -1.28993e-10)
(2.51388e-09 -7.74446e-10 -1.63398e-10)
(2.89524e-09 -8.89149e-10 -2.05986e-10)
(3.32642e-09 -1.01594e-09 -2.58289e-10)
(3.81375e-09 -1.16037e-09 -3.21497e-10)
(4.35941e-09 -1.33084e-09 -3.95545e-10)
(4.95818e-09 -1.53369e-09 -4.76949e-10)
(5.58478e-09 -1.75312e-09 -5.54393e-10)
(6.11659e-09 -1.91151e-09 -6.03468e-10)
(1.83466e-10 -5.26459e-11 -6.86048e-12)
(5.32024e-10 -1.53691e-10 -2.02529e-11)
(8.504e-10 -2.48912e-10 -3.35319e-11)
(1.14919e-09 -3.42731e-10 -4.76663e-11)
(1.4376e-09 -4.38876e-10 -6.35483e-11)
(1.72382e-09 -5.40595e-10 -8.20411e-11)
(2.01507e-09 -6.50971e-10 -1.04005e-10)
(2.31758e-09 -7.73301e-10 -1.30285e-10)
(2.63593e-09 -9.11746e-10 -1.6164e-10)
(2.97194e-09 -1.07241e-09 -1.98585e-10)
(3.32263e-09 -1.26505e-09 -2.41058e-10)
(3.67713e-09 -1.50528e-09 -2.87781e-10)
(4.01336e-09 -1.81595e-09 -3.35106e-10)
(4.29829e-09 -2.22129e-09 -3.75242e-10)
(4.50309e-09 -2.71228e-09 -3.95233e-10)
(4.63803e-09 -3.13527e-09 -3.85958e-10)
(1.98336e-10 -5.59474e-11 -7.12812e-12)
(5.74468e-10 -1.63499e-10 -2.09975e-11)
(9.15896e-10 -2.6532e-10 -3.46082e-11)
(1.23269e-09 -3.66431e-10 -4.8861e-11)
(1.53323e-09 -4.7117e-10 -6.45418e-11)
(1.82436e-09 -5.83534e-10 -8.23504e-11)
(2.11125e-09 -7.07521e-10 -1.02891e-10)
(2.39702e-09 -8.47614e-10 -1.2662e-10)
(2.68169e-09 -1.00948e-09 -1.53721e-10)
(2.96042e-09 -1.20106e-09 -1.8387e-10)
(3.22045e-09 -1.43409e-09 -2.15826e-10)
(3.43653e-09 -1.72616e-09 -2.46772e-10)
(3.56458e-09 -2.10238e-09 -2.71343e-10)
(3.53595e-09 -2.59407e-09 -2.80662e-10)
(3.26788e-09 -3.22062e-09 -2.63639e-10)
(2.77939e-09 -3.87395e-09 -2.21301e-10)
(1.77783e-11 -5.05536e-12 -6.46957e-13)
(5.1819e-11 -1.46747e-11 -1.92398e-12)
(8.37325e-11 -2.34821e-11 -3.23382e-12)
(1.15095e-10 -3.16909e-11 -4.70234e-12)
(1.47484e-10 -3.9339e-11 -6.46186e-12)
(1.82624e-10 -4.62194e-11 -8.66592e-12)
(2.22539e-10 -5.17586e-11 -1.15047e-11)
(2.69722e-10 -5.48136e-11 -1.52207e-11)
(3.27293e-10 -5.33389e-11 -2.01227e-11)
(3.99083e-10 -4.38591e-11 -2.65859e-11)
(4.89486e-10 -2.06905e-11 -3.5014e-11)
(6.02749e-10 2.51066e-11 -4.57033e-11)
(7.41229e-10 1.06776e-10 -5.85125e-11)
(9.021e-10 2.41648e-10 -7.2251e-11)
(1.0719e-09 4.43564e-10 -8.40069e-11)
(1.21193e-09 6.75088e-10 -8.97876e-11)
(5.26754e-11 -1.50409e-11 -1.90494e-12)
(1.53494e-10 -4.36789e-11 -5.66274e-12)
(2.47883e-10 -6.99631e-11 -9.5101e-12)
(3.40413e-10 -9.45758e-11 -1.3811e-11)
(4.35628e-10 -1.17711e-10 -1.89457e-11)
(5.38457e-10 -1.38888e-10 -2.53519e-11)
(6.54644e-10 -1.56644e-10 -3.35671e-11)
(7.91219e-10 -1.68004e-10 -4.42726e-11)
(9.56942e-10 -1.67636e-10 -5.83326e-11)
(1.16255e-09 -1.46555e-10 -7.68025e-11)
(1.42036e-09 -9.02787e-11 -1.00845e-10)
(1.74214e-09 2.32574e-11 -1.31414e-10)
(2.13357e-09 2.24634e-10 -1.68471e-10)
(2.58228e-09 5.47521e-10 -2.09499e-10)
(3.03616e-09 1.00021e-09 -2.47606e-10)
(3.36576e-09 1.4585e-09 -2.71189e-10)
(8.58112e-11 -2.46806e-11 -3.06511e-12)
(2.49903e-10 -7.17308e-11 -9.10386e-12)
(4.03083e-10 -1.15089e-10 -1.52624e-11)
(5.52496e-10 -1.56031e-10 -2.21066e-11)
(7.05151e-10 -1.95116e-10 -3.02191e-11)
(8.68522e-10 -2.31965e-10 -4.02585e-11)
(1.05118e-09 -2.64877e-10 -5.30188e-11)
(1.26343e-09 -2.90204e-10 -6.94898e-11)
(1.51798e-09 -3.01351e-10 -9.09078e-11)
(1.83033e-09 -2.87298e-10 -1.18775e-10)
(2.21823e-09 -2.30724e-10 -1.54762e-10)
(2.69886e-09 -1.06356e-10 -2.00351e-10)
(3.28047e-09 1.17828e-10 -2.55885e-10)
(3.94321e-09 4.69017e-10 -3.18625e-10)
(4.60207e-09 9.2944e-10 -3.79616e-10)
(5.05266e-09 1.33561e-09 -4.20426e-10)
(1.16202e-10 -3.37112e-11 -4.07538e-12)
(3.38125e-10 -9.80756e-11 -1.20893e-11)
(5.44431e-10 -1.57708e-10 -2.02157e-11)
(7.44211e-10 -2.14623e-10 -2.91689e-11)
(9.46215e-10 -2.70004e-10 -3.96681e-11)
(1.15952e-09 -3.24031e-10 -5.25027e-11)
(1.39423e-09 -3.75573e-10 -6.85939e-11)
(1.66215e-09 -4.21694e-10 -8.90487e-11)
(1.97747e-09 -4.56873e-10 -1.152e-10)
(2.35718e-09 -4.7195e-10 -1.486e-10)
(2.82073e-09 -4.52886e-10 -1.90904e-10)
(3.38753e-09 -3.80049e-10 -2.43477e-10)
(4.06909e-09 -2.3013e-10 -3.06418e-10)
(4.84934e-09 1.36912e-11 -3.76448e-10)
(5.64167e-09 3.31929e-10 -4.43242e-10)
(6.21074e-09 6.05144e-10 -4.85742e-10)
(1.43114e-10 -4.18288e-11 -4.89989e-12)
(4.16006e-10 -1.21834e-10 -1.4512e-11)
(6.68384e-10 -1.96399e-10 -2.41882e-11)
(9.10565e-10 -2.68392e-10 -3.47299e-11)
(1.15222e-09 -3.39832e-10 -4.69193e-11)
(1.40298e-09 -4.11834e-10 -6.15785e-11)
(1.6731e-09 -4.84505e-10 -7.9617e-11)
(1.97391e-09 -5.56709e-10 -1.02056e-10)
(2.31833e-09 -6.25804e-10 -1.30022e-10)
(2.72108e-09 -6.87297e-10 -1.64672e-10)
(3.19839e-09 -7.34618e-10 -2.06978e-10)
(3.76643e-09 -7.59193e-10 -2.57251e-10)
(4.43663e-09 -7.5133e-10 -3.14167e-10)
(5.20259e-09 -7.03017e-10 -3.73044e-10)
(6.00368e-09 -6.15813e-10 -4.23649e-10)
(6.62441e-09 -5.24201e-10 -4.50676e-10)
(1.66093e-10 -4.87024e-11 -5.52119e-12)
(4.82247e-10 -1.42027e-10 -1.63219e-11)
(7.72911e-10 -2.29522e-10 -2.71008e-11)
(1.04892e-09 -3.14938e-10 -3.86873e-11)
(1.32007e-09 -4.01217e-10 -5.18582e-11)
(1.59565e-09 -4.90596e-10 -6.7383e-11)
(1.8848e-09 -5.84704e-10 -8.60425e-11)
(2.19674e-09 -6.8469e-10 -1.08613e-10)
(2.54079e-09 -7.91449e-10 -1.35787e-10)
(2.92598e-09 -9.06089e-10 -1.6799e-10)
(3.36024e-09 -1.03072e-09 -2.05023e-10)
(3.84901e-09 -1.16935e-09 -2.45409e-10)
(4.39336e-09 -1.32785e-09 -2.85393e-10)
(4.98709e-09 -1.50895e-09 -3.17862e-10)
(5.60435e-09 -1.69477e-09 -3.33123e-10)
(6.12328e-09 -1.8183e-09 -3.28006e-10)
(1.84969e-10 -5.3999e-11 -5.93994e-12)
(5.36398e-10 -1.57652e-10 -1.75236e-11)
(8.5746e-10 -2.55364e-10 -2.89728e-11)
(1.15889e-09 -3.51686e-10 -4.10943e-11)
(1.45001e-09 -4.50416e-10 -5.46071e-11)
(1.73906e-09 -5.54845e-10 -7.01696e-11)
(2.03331e-09 -6.68012e-10 -8.83671e-11)
(2.33893e-09 -7.93083e-10 -1.09654e-10)
(2.66037e-09 -9.33944e-10 -1.34208e-10)
(2.99924e-09 -1.09617e-09 -1.61658e-10)
(3.35229e-09 -1.28848e-09 -1.90595e-10)
(3.70862e-09 -1.52452e-09 -2.17793e-10)
(4.04684e-09 -1.82342e-09 -2.37151e-10)
(4.33582e-09 -2.20347e-09 -2.39014e-10)
(4.54838e-09 -2.65097e-09 -2.13136e-10)
(4.68921e-09 -3.02608e-09 -1.66772e-10)
(1.99814e-10 -5.74114e-11 -6.17178e-12)
(5.78747e-10 -1.67788e-10 -1.81678e-11)
(9.22744e-10 -2.72339e-10 -2.99035e-11)
(1.24198e-09 -3.76229e-10 -4.21259e-11)
(1.5449e-09 -4.8392e-10 -5.5466e-11)
(1.83839e-09 -5.99465e-10 -7.04431e-11)
(2.12761e-09 -7.26874e-10 -8.74353e-11)
(2.41559e-09 -8.70549e-10 -1.0659e-10)
(2.70223e-09 -1.03593e-09 -1.27652e-10)
(2.98252e-09 -1.23043e-09 -1.4966e-10)
(3.24371e-09 -1.46477e-09 -1.70474e-10)
(3.46107e-09 -1.75436e-09 -1.86094e-10)
(3.5923e-09 -2.12025e-09 -1.89915e-10)
(3.57247e-09 -2.58716e-09 -1.72646e-10)
(3.3223e-09 -3.16881e-09 -1.2585e-10)
(2.85259e-09 -3.7706e-09 -6.03805e-11)
(1.79314e-11 -5.14937e-12 -5.25359e-13)
(5.227e-11 -1.49452e-11 -1.56132e-12)
(8.44774e-11 -2.39089e-11 -2.62074e-12)
(1.16151e-10 -3.22504e-11 -3.80248e-12)
(1.48887e-10 -3.99987e-11 -5.20836e-12)
(1.84421e-10 -4.6927e-11 -6.95272e-12)
(2.24782e-10 -5.24287e-11 -9.171e-12)
(2.72447e-10 -5.53136e-11 -1.20263e-11)
(3.30477e-10 -5.34794e-11 -1.57099e-11)
(4.02573e-10 -4.34081e-11 -2.04281e-11)
(4.92879e-10 -1.94395e-11 -2.63582e-11)
(6.05238e-10 2.71499e-11 -3.35476e-11)
(7.41466e-10 1.09023e-10 -4.17296e-11)
(8.9827e-10 2.42448e-10 -5.00773e-11)
(1.06231e-09 4.4022e-10 -5.70873e-11)
(1.19662e-09 6.66204e-10 -6.10013e-11)
(5.31222e-11 -1.53212e-11 -1.5468e-12)
(1.5481e-10 -4.44903e-11 -4.59525e-12)
(2.50054e-10 -7.12439e-11 -7.70675e-12)
(3.43486e-10 -9.62619e-11 -1.11674e-11)
(4.39703e-10 -1.19712e-10 -1.52693e-11)
(5.4367e-10 -1.41062e-10 -2.03373e-11)
(6.61144e-10 -1.58751e-10 -2.6752e-11)
(7.99108e-10 -1.69672e-10 -3.49668e-11)
(9.66168e-10 -1.6833e-10 -4.55062e-11)
(1.1727e-09 -1.4559e-10 -5.89297e-11)
(1.43033e-09 -8.70067e-11 -7.57116e-11)
(1.7497e-09 2.89937e-11 -9.59767e-11)
(2.13491e-09 2.31554e-10 -1.19023e-10)
(2.57221e-09 5.51703e-10 -1.42687e-10)
(3.00983e-09 9.95169e-10 -1.62978e-10)
(3.32385e-09 1.44097e-09 -1.74818e-10)
(8.65191e-11 -2.51474e-11 -2.48881e-12)
(2.51984e-10 -7.30783e-11 -7.38717e-12)
(4.06509e-10 -1.17226e-10 -1.23673e-11)
(5.57332e-10 -1.58865e-10 -1.78734e-11)
(7.1154e-10 -1.98521e-10 -2.43516e-11)
(8.76667e-10 -2.35737e-10 -3.22879e-11)
(1.0613e-09 -2.68678e-10 -4.22382e-11)
(1.27569e-09 -2.93491e-10 -5.4844e-11)
(1.53233e-09 -3.03313e-10 -7.08236e-11)
(1.84623e-09 -2.86866e-10 -9.09032e-11)
(2.23417e-09 -2.26724e-10 -1.1564e-10)
(2.71172e-09 -9.80481e-11 -1.45052e-10)
(3.28488e-09 1.29675e-10 -1.77974e-10)
(3.93168e-09 4.8069e-10 -2.11216e-10)
(4.56749e-09 9.34223e-10 -2.39031e-10)
(4.99625e-09 1.32967e-09 -2.54212e-10)
(1.17122e-10 -3.43574e-11 -3.30887e-12)
(3.40825e-10 -9.9948e-11 -9.80893e-12)
(5.48861e-10 -1.60693e-10 -1.63797e-11)
(7.50435e-10 -2.18618e-10 -2.35808e-11)
(9.54392e-10 -2.74877e-10 -3.19609e-11)
(1.16989e-09 -3.29562e-10 -4.20971e-11)
(1.40704e-09 -3.8139e-10 -5.46209e-11)
(1.67761e-09 -4.27171e-10 -7.022e-11)
(1.99557e-09 -4.61042e-10 -8.95999e-11)
(2.37741e-09 -4.73422e-10 -1.13369e-10)
(2.84162e-09 -4.49917e-10 -1.41788e-10)
(3.40596e-09 -3.7085e-10 -1.74315e-10)
(4.07958e-09 -2.13669e-10 -2.08894e-10)
(4.84398e-09 3.64378e-11 -2.41173e-10)
(5.61255e-09 3.57209e-10 -2.6447e-10)
(6.15828e-09 6.28775e-10 -2.72952e-10)
(1.44187e-10 -4.26445e-11 -3.97805e-12)
(4.19149e-10 -1.24205e-10 -1.1774e-11)
(6.73516e-10 -2.00202e-10 -1.95971e-11)
(9.17731e-10 -2.7353e-10 -2.8074e-11)
(1.16156e-09 -3.46192e-10 -3.77982e-11)
(1.41473e-09 -4.19234e-10 -4.93635e-11)
(1.6875e-09 -4.92595e-10 -6.33723e-11)
(1.99118e-09 -5.64879e-10 -8.04116e-11)
(2.33853e-09 -6.33029e-10 -1.00963e-10)
(2.74389e-09 -6.91985e-10 -1.25217e-10)
(3.22278e-09 -7.34461e-10 -1.52716e-10)
(3.79017e-09 -7.51107e-10 -1.81797e-10)
(4.4558e-09 -7.31684e-10 -2.0888e-10)
(5.2113e-09 -6.68482e-10 -2.28119e-10)
(5.99525e-09 -5.65357e-10 -2.33108e-10)
(6.5972e-09 -4.62488e-10 -2.24605e-10)
(1.67257e-10 -4.96709e-11 -4.48242e-12)
(4.85645e-10 -1.44848e-10 -1.32419e-11)
(7.7843e-10 -2.3407e-10 -2.19562e-11)
(1.05656e-09 -3.21139e-10 -3.12718e-11)
(1.32994e-09 -4.09005e-10 -4.1775e-11)
(1.60792e-09 -4.99848e-10 -5.40109e-11)
(1.89967e-09 -5.95155e-10 -6.84715e-11)
(2.21442e-09 -6.95804e-10 -8.55322e-11)
(2.56138e-09 -8.02245e-10 -1.05309e-10)
(2.94942e-09 -9.14888e-10 -1.27382e-10)
(3.38618e-09 -1.03477e-09 -1.50327e-10)
(3.87674e-09 -1.16439e-09 -1.71026e-10)
(4.42172e-09 -1.30764e-09 -1.83937e-10)
(5.01423e-09 -1.4657e-09 -1.81256e-10)
(5.62711e-09 -1.62233e-09 -1.56986e-10)
(6.13791e-09 -1.72153e-09 -1.21689e-10)
(1.86165e-10 -5.50925e-11 -4.82235e-12)
(5.39875e-10 -1.60845e-10 -1.42171e-11)
(8.63068e-10 -2.60538e-10 -2.34735e-11)
(1.16658e-09 -3.58798e-10 -3.32188e-11)
(1.45982e-09 -4.59459e-10 -4.3993e-11)
(1.75108e-09 -5.65773e-10 -5.625e-11)
(2.04767e-09 -6.80664e-10 -7.03269e-11)
(2.35576e-09 -8.07044e-10 -8.63483e-11)
(2.6798e-09 -9.48343e-10 -1.04038e-10)
(3.02143e-09 -1.10935e-09 -1.22388e-10)
(3.37758e-09 -1.29748e-09 -1.39115e-10)
(3.73787e-09 -1.5243e-09 -1.49904e-10)
(4.08189e-09 -1.80599e-09 -1.47637e-10)
(4.37955e-09 -2.15786e-09 -1.2271e-10)
(4.60264e-09 -2.56723e-09 -6.83016e-11)
(4.74952e-09 -2.90901e-09 -1.74947e-12)
(2.00988e-10 -5.85927e-11 -5.01069e-12)
(5.82149e-10 -1.71249e-10 -1.4741e-11)
(9.28188e-10 -2.77971e-10 -2.423e-11)
(1.24936e-09 -3.84026e-10 -3.40587e-11)
(1.55417e-09 -4.93926e-10 -4.46954e-11)
(1.84955e-09 -6.1172e-10 -5.64889e-11)
(2.14067e-09 -7.41322e-10 -6.96192e-11)
(2.4306e-09 -8.86906e-10 -8.39894e-11)
(2.71929e-09 -1.05346e-09 -9.9027e-11)
(3.00193e-09 -1.2476e-09 -1.13358e-10)
(3.2663e-09 -1.47865e-09 -1.2432e-10)
(3.48883e-09 -1.75979e-09 -1.27334e-10)
(3.62925e-09 -2.1088e-09 -1.15385e-10)
(3.62517e-09 -2.54699e-09 -7.94971e-11)
(3.39731e-09 -3.08849e-09 -1.32635e-11)
(2.947e-09 -3.65332e-09 6.69759e-11)
(1.80454e-11 -5.2199e-12 -3.86986e-13)
(5.26054e-11 -1.51488e-11 -1.14945e-12)
(8.50295e-11 -2.42276e-11 -1.92694e-12)
(1.16929e-10 -3.26647e-11 -2.79014e-12)
(1.49911e-10 -4.04809e-11 -3.81005e-12)
(1.85718e-10 -4.74335e-11 -5.06367e-12)
(2.26374e-10 -5.28918e-11 -6.63762e-12)
(2.74333e-10 -5.5633e-11 -8.62854e-12)
(3.32608e-10 -5.35213e-11 -1.11369e-11)
(4.04792e-10 -4.30209e-11 -1.42486e-11)
(4.94855e-10 -1.85188e-11 -1.79962e-11)
(6.06389e-10 2.85379e-11 -2.22912e-11)
(7.40935e-10 1.10434e-10 -2.6834e-11)
(8.95048e-10 2.42888e-10 -3.10514e-11)
(1.05564e-09 4.3837e-10 -3.41913e-11)
(1.18681e-09 6.617e-10 -3.57133e-11)
(5.34551e-11 -1.55333e-11 -1.13941e-12)
(1.55788e-10 -4.50987e-11 -3.38286e-12)
(2.51663e-10 -7.22001e-11 -5.66634e-12)
(3.45751e-10 -9.75098e-11 -8.19395e-12)
(4.42682e-10 -1.21174e-10 -1.11692e-11)
(5.47437e-10 -1.42615e-10 -1.48103e-11)
(6.65764e-10 -1.60203e-10 -1.93589e-11)
(8.04591e-10 -1.70735e-10 -2.50793e-11)
(9.72382e-10 -1.68606e-10 -3.22386e-11)
(1.17924e-09 -1.44622e-10 -4.10501e-11)
(1.43629e-09 -8.44062e-11 -5.15621e-11)
(1.7535e-09 3.32002e-11 -6.34683e-11)
(2.13421e-09 2.36413e-10 -7.58644e-11)
(2.56425e-09 5.54874e-10 -8.70941e-11)
(2.99275e-09 9.93472e-10 -9.50524e-11)
(3.29912e-09 1.43354e-09 -9.84089e-11)
(8.70462e-11 -2.54978e-11 -1.83319e-12)
(2.53532e-10 -7.40894e-11 -5.438e-12)
(4.0905e-10 -1.18821e-10 -9.09262e-12)
(5.609e-10 -1.60961e-10 -1.31136e-11)
(7.16219e-10 -2.01004e-10 -1.78112e-11)
(8.82569e-10 -2.38428e-10 -2.35097e-11)
(1.06853e-09 -2.71289e-10 -3.05563e-11)
(1.28428e-09 -2.95577e-10 -3.93132e-11)
(1.54213e-09 -3.04244e-10 -5.01152e-11)
(1.85669e-09 -2.85839e-10 -6.31739e-11)
(2.24414e-09 -2.22928e-10 -7.83936e-11)
(2.71909e-09 -9.1026e-11 -9.50863e-11)
(3.2865e-09 1.39375e-10 -1.11633e-10)
(3.92387e-09 4.90889e-10 -1.25342e-10)
(4.54797e-09 9.41511e-10 -1.33135e-10)
(4.96765e-09 1.33252e-09 -1.34108e-10)
(1.17807e-10 -3.48434e-11 -2.43719e-12)
(3.42834e-10 -1.01354e-10 -7.22056e-12)
(5.52148e-10 -1.62921e-10 -1.20421e-11)
(7.55034e-10 -2.21572e-10 -1.73003e-11)
(9.60398e-10 -2.78427e-10 -2.33749e-11)
(1.17743e-09 -3.33503e-10 -3.06472e-11)
(1.41626e-09 -3.85376e-10 -3.95017e-11)
(1.68857e-09 -4.30653e-10 -5.03006e-11)
(2.00816e-09 -4.63187e-10 -6.33103e-11)
(2.39118e-09 -4.73087e-10 -7.85513e-11)
(2.85551e-09 -4.45697e-10 -9.55385e-11)
(3.41803e-09 -3.6134e-10 -1.12908e-10)
(4.08693e-09 -1.98018e-10 -1.28049e-10)
(4.8432e-09 5.77608e-11 -1.37176e-10)
(5.60148e-09 3.81998e-10 -1.36899e-10)
(6.13942e-09 6.5417e-10 -1.29255e-10)
(1.44987e-10 -4.32585e-11 -2.93008e-12)
(4.21489e-10 -1.25986e-10 -8.66686e-12)
(6.77331e-10 -2.03038e-10 -1.44072e-11)
(9.23038e-10 -2.77327e-10 -2.05962e-11)
(1.16845e-09 -3.50827e-10 -2.76431e-11)
(1.42333e-09 -4.24502e-10 -3.59335e-11)
(1.69796e-09 -4.98141e-10 -4.58194e-11)
(2.00362e-09 -5.70098e-10 -5.75664e-11)
(2.35295e-09 -6.36949e-10 -7.12397e-11)
(2.76007e-09 -6.93141e-10 -8.64878e-11)
(3.24017e-09 -7.30792e-10 -1.02193e-10)
(3.80775e-09 -7.3998e-10 -1.16007e-10)
(4.47205e-09 -7.10205e-10 -1.23988e-10)
(5.22448e-09 -6.34372e-10 -1.211e-10)
(6.00421e-09 -5.18652e-10 -1.04373e-10)
(6.603e-09 -4.07747e-10 -8.1862e-11)
(1.68126e-10 -5.03998e-11 -3.30149e-12)
(4.88178e-10 -1.46964e-10 -9.74756e-12)
(7.82538e-10 -2.37464e-10 -1.61418e-11)
(1.06224e-09 -3.25725e-10 -2.2943e-11)
(1.33725e-09 -4.14682e-10 -3.05526e-11)
(1.61697e-09 -5.06442e-10 -3.93176e-11)
(1.91061e-09 -6.02335e-10 -4.95029e-11)
(2.22739e-09 -7.02964e-10 -6.12127e-11)
(2.57653e-09 -8.08341e-10 -7.42316e-11)
(2.96688e-09 -9.18213e-10 -8.77463e-11)
(3.40616e-09 -1.03269e-09 -9.99076e-11)
(3.89962e-09 -1.15308e-09 -1.07267e-10)
(4.4483e-09 -1.28212e-09 -1.04383e-10)
(5.04579e-09 -1.4207e-09 -8.46776e-11)
(5.66481e-09 -1.55528e-09 -4.5369e-11)
(6.18091e-09 -1.63824e-09 -1.94216e-12)
(1.87057e-10 -5.59153e-11 -3.55203e-12)