/*--------------------------------*- C++ -*----------------------------------*\
| =========                 |                                                 |
| \\      /  F ield         | foam-extend: Open Source CFD                    |
|  \\    /   O peration     | Version:     3.1                                |
|   \\  /    A nd           | Web:         http://www.extend-project.de       |
|    \\/     M anipulation  |                                                 |
\*---------------------------------------------------------------------------*/
FoamFile
{
    version     2.0;
    format      ascii;
    class       surfaceScalarField;
    location    "1.8";
    object      meshPhi;
}
// * * * * * * * * * * * * * * * * * * * * * * * * * * * * * * * * * * * * * //

dimensions      [0 3 -1 0 0 0 0];

internalField   nonuniform List<scalar> 
41600
(
-1.6771e-08
-4.07733e-09
1.14363e-10
-1.16137e-10
-3.22896e-08
-1.20508e-08
3.40606e-10
-3.45734e-10
-4.64216e-08
-1.9736e-08
5.66308e-10
-5.74269e-10
-5.95254e-08
-2.73882e-08
8.02658e-10
-8.12625e-10
-7.18917e-08
-3.53511e-08
1.06214e-09
-1.07278e-09
-8.37447e-08
-4.3941e-08
1.35455e-09
-1.36361e-09
-9.5233e-08
-5.34632e-08
1.68553e-09
-1.68927e-09
-1.06408e-07
-6.42236e-08
2.0529e-09
-2.04521e-09
-1.17184e-07
-7.65364e-08
2.43932e-09
-2.4106e-09
-1.27283e-07
-9.07213e-08
2.79825e-09
-2.7337e-09
-1.36168e-07
-1.07095e-07
3.02838e-09
-2.90588e-09
-1.43005e-07
-1.25952e-07
2.92881e-09
-2.71608e-09
-1.46761e-07
-1.47523e-07
2.13e-09
-1.78058e-09
-1.46653e-07
-1.71795e-07
3.67397e-11
5.2301e-10
-1.43075e-07
-1.97015e-07
-3.85176e-09
4.8565e-09
-2.56358e-07
-1.71087e-08
3.14325e-08
-5.00383e-08
-7.98828e-09
3.39579e-10
-3.44874e-10
-9.63347e-08
-2.3606e-08
1.01138e-09
-1.02669e-09
-1.38489e-07
-3.86481e-08
1.68143e-09
-1.70523e-09
-1.77573e-07
-5.36082e-08
2.38294e-09
-2.41281e-09
-2.14459e-07
-6.91516e-08
3.15346e-09
-3.1855e-09
-2.49826e-07
-8.58868e-08
4.02348e-09
-4.05112e-09
-2.84143e-07
-1.04396e-07
5.01275e-09
-5.02502e-09
-3.17605e-07
-1.25257e-07
6.12121e-09
-6.10028e-09
-3.50026e-07
-1.49054e-07
7.31086e-09
-7.22853e-09
-3.80681e-07
-1.76366e-07
8.47117e-09
-8.28398e-09
-4.08101e-07
-2.07721e-07
9.35798e-09
-9.00063e-09
-4.29936e-07
-2.43496e-07
9.4926e-09
-8.86931e-09
-4.43132e-07
-2.83701e-07
8.02409e-09
-6.99636e-09
-4.45064e-07
-3.27382e-07
3.67068e-09
-2.02453e-09
-4.36215e-07
-3.70096e-07
-4.47502e-09
7.30493e-09
-4.32702e-07
-2.69788e-08
4.98419e-08
-8.2504e-08
-1.15783e-08
5.55316e-10
-5.64059e-10
-1.58822e-07
-3.42071e-08
1.65398e-09
-1.67929e-09
-2.28294e-07
-5.59791e-08
2.74971e-09
-2.78914e-09
-2.9269e-07
-7.75961e-08
3.89708e-09
-3.94681e-09
-3.53463e-07
-1.00005e-07
5.15927e-09
-5.21311e-09
-4.11772e-07
-1.24063e-07
6.59022e-09
-6.63769e-09
-4.68456e-07
-1.50579e-07
8.23087e-09
-8.25456e-09
-5.23965e-07
-1.80348e-07
1.00994e-08
-1.00709e-08
-5.78207e-07
-2.14155e-07
1.21702e-08
-1.20443e-08
-6.30313e-07
-2.52752e-07
1.43352e-08
-1.40421e-08
-6.78312e-07
-2.9677e-07
1.63375e-08
-1.57719e-08
-7.18832e-07
-3.46518e-07
1.76728e-08
-1.66792e-08
-7.47143e-07
-4.01538e-07
1.74821e-08
-1.58348e-08
-7.58503e-07
-4.59662e-07
1.45977e-08
-1.19599e-08
-7.5209e-07
-5.14121e-07
8.4214e-09
-4.10244e-09
-5.9075e-07
-4.99945e-09
2.0742e-08
-1.1367e-07
-1.4708e-08
7.56273e-10
-7.68346e-10
-2.18786e-07
-4.34416e-08
2.25255e-09
-2.28754e-09
-3.1443e-07
-7.10526e-08
3.74455e-09
-3.79927e-09
-4.03045e-07
-9.841e-08
5.30721e-09
-5.37665e-09
-4.8666e-07
-1.26687e-07
7.02937e-09
-7.10541e-09
-5.66928e-07
-1.56932e-07
8.99094e-09
-9.05995e-09
-6.45129e-07
-1.90122e-07
1.12619e-08
-1.13011e-08
-7.22106e-07
-2.27192e-07
1.38957e-08
-1.38678e-08
-7.98116e-07
-2.69052e-07
1.69134e-08
-1.67589e-08
-8.72577e-07
-3.16547e-07
2.02754e-08
-1.99017e-08
-9.43667e-07
-3.70353e-07
2.3833e-08
-2.31e-08
-1.00785e-06
-4.3071e-07
2.72616e-08
-2.59616e-08
-1.05955e-06
-4.96848e-07
3.00051e-08
-2.78358e-08
-1.09203e-06
-5.65769e-07
3.13388e-08
-2.78619e-08
-1.10122e-06
-6.29204e-07
3.08612e-08
-2.5351e-08
-7.14567e-07
2.73742e-08
-1.45949e-08
-1.43064e-07
-1.7261e-08
9.37558e-10
-9.52793e-10
-2.75312e-07
-5.0967e-08
2.79223e-09
-2.83646e-09
-3.95565e-07
-8.3311e-08
4.64059e-09
-4.71002e-09
-5.06899e-07
-1.15281e-07
6.57584e-09
-6.66455e-09
-6.11885e-07
-1.48215e-07
8.7109e-09
-8.80938e-09
-7.12675e-07
-1.83285e-07
1.11522e-08
-1.12445e-08
-8.11033e-07
-2.21564e-07
1.40026e-08
-1.4062e-08
-9.08314e-07
-2.64052e-07
1.73605e-08
-1.73431e-08
-1.00536e-06
-3.11696e-07
2.13138e-08
-2.11493e-08
-1.1023e-06
-3.65359e-07
2.5929e-08
-2.55076e-08
-1.19818e-06
-4.25725e-07
3.12313e-08
-3.0385e-08
-1.29033e-06
-4.93059e-07
3.71711e-08
-3.5649e-08
-1.37364e-06
-5.66621e-07
4.3598e-08
-4.10311e-08
-1.43994e-06
-6.43252e-07
5.02317e-08
-4.60914e-08
-1.47931e-06
-7.13822e-07
5.65567e-08
-5.0091e-08
-8.06207e-07
6.28341e-08
-5.36404e-08
-1.7026e-07
-1.91478e-08
1.09499e-09
-1.11317e-09
-3.27574e-07
-5.65212e-08
3.2603e-09
-3.31317e-09
-4.70496e-07
-9.23328e-08
5.41567e-09
-5.49898e-09
-6.02661e-07
-1.27641e-07
7.66914e-09
-7.7764e-09
-7.27133e-07
-1.63878e-07
1.01541e-08
-1.0275e-08
-8.46526e-07
-2.02278e-07
1.30003e-08
-1.31174e-08
-9.63083e-07
-2.43931e-07
1.63406e-08
-1.64251e-08
-1.07871e-06
-2.89818e-07
2.03161e-08
-2.03203e-08
-1.19496e-06
-3.40832e-07
2.50806e-08
-2.49278e-08
-1.31292e-06
-3.97757e-07
3.08067e-08
-3.03764e-08
-1.433e-06
-4.61213e-07
3.76929e-08
-3.67988e-08
-1.5544e-06
-5.31522e-07
4.59608e-08
-4.43198e-08
-1.67398e-06
-6.08295e-07
5.5846e-08
-5.30306e-08
-1.78394e-06
-6.89168e-07
6.74899e-08
-6.28768e-08
-1.86754e-06
-7.65581e-07
8.02785e-08
-7.30568e-08
-8.66209e-07
9.52157e-08
-8.85603e-08
-1.94889e-07
-2.03077e-08
1.22549e-09
-1.24633e-09
-3.74861e-07
-5.99286e-08
3.64728e-09
-3.70803e-09
-5.38184e-07
-9.78424e-08
6.05309e-09
-6.14921e-09
-6.88962e-07
-1.3513e-07
8.56105e-09
-8.68579e-09
-8.30668e-07
-1.73255e-07
1.13191e-08
-1.14619e-08
-9.66297e-07
-2.13443e-07
1.44734e-08
-1.46165e-08
-1.09849e-06
-2.56738e-07
1.81775e-08
-1.82916e-08
-1.22964e-06
-3.04024e-07
2.26018e-08
-2.26384e-08
-1.36192e-06
-3.56038e-07
2.79446e-08
-2.7826e-08
-1.49736e-06
-4.13355e-07
3.44495e-08
-3.40528e-08
-1.63774e-06
-4.76361e-07
4.24295e-08
-4.15631e-08
-1.78441e-06
-5.45212e-07
5.22852e-08
-5.06523e-08
-1.9373e-06
-6.19739e-07
6.45247e-08
-6.16604e-08
-2.09185e-06
-6.98967e-07
7.96776e-08
-7.48655e-08
-2.22892e-06
-7.77761e-07
9.73392e-08
-8.96375e-08
-8.95417e-07
1.19479e-07
-1.14538e-07
-2.16648e-07
1.32732e-09
-1.35051e-09
-2.07085e-08
-4.16592e-07
3.94796e-09
-4.01569e-09
-6.10991e-08
-5.97796e-07
6.54363e-09
-6.65121e-09
-9.97073e-08
-7.64717e-07
9.23692e-09
-9.37761e-09
-1.37594e-07
-9.21123e-07
1.2183e-08
-1.23465e-08
-1.76192e-07
-1.07028e-06
1.55349e-08
-1.57041e-08
-2.1667e-07
-1.21508e-06
1.94536e-08
-1.96004e-08
-2.59968e-07
-1.35822e-06
2.41184e-08
-2.41965e-08
-3.06813e-07
-1.50224e-06
2.97389e-08
-2.96747e-08
-3.57705e-07
-1.6497e-06
3.65726e-08
-3.62505e-08
-4.12878e-07
-1.80318e-06
4.49465e-08
-4.41868e-08
-4.72238e-07
-1.96523e-06
5.52716e-08
-5.37974e-08
-5.3525e-07
-2.13764e-06
6.80521e-08
-6.5431e-08
-6.00749e-07
-2.31856e-06
8.38012e-08
-7.93604e-08
-6.66324e-07
-2.49263e-06
1.02079e-07
-9.49407e-08
-7.2554e-07
1.28946e-07
-1.25402e-07
-8.65227e-07
-1.69531e-08
-4.25029e-09
1.08261e-10
-3.26374e-08
-1.25674e-08
3.22597e-10
-4.69171e-08
-2.06002e-08
5.36941e-10
-6.01543e-08
-2.86259e-08
7.62346e-10
-7.26404e-08
-3.70139e-08
1.01133e-09
-8.4596e-08
-4.61066e-08
1.29428e-09
-9.61599e-08
-5.62364e-08
1.6183e-09
-1.07365e-07
-6.77384e-08
1.98431e-09
-1.18098e-07
-8.09582e-08
2.38098e-09
-1.28043e-07
-9.62501e-08
2.77369e-09
-1.36621e-07
-1.13968e-07
3.0857e-09
-1.42983e-07
-1.34444e-07
3.16961e-09
-1.46169e-07
-1.57945e-07
2.77744e-09
-1.45679e-07
-1.8445e-07
1.58171e-09
-1.42592e-07
-2.12159e-07
-5.29243e-10
-2.6034e-07
-6.02446e-09
-5.05804e-08
-8.32654e-09
3.21436e-10
-9.73704e-08
-2.46161e-08
9.57821e-10
-1.39965e-07
-4.03372e-08
1.59407e-09
-1.79448e-07
-5.60255e-08
2.26297e-09
-2.16693e-07
-7.23965e-08
3.00209e-09
-2.52372e-07
-9.01086e-08
3.84349e-09
-2.86924e-07
-1.09796e-07
4.811e-09
-3.20495e-07
-1.32093e-07
5.91295e-09
-3.52817e-07
-1.57642e-07
7.12743e-09
-3.8305e-07
-1.87085e-07
8.37506e-09
-4.09598e-07
-2.21011e-07
9.47396e-09
-4.30025e-07
-2.59849e-07
1.00744e-08
-4.41392e-07
-3.03614e-07
9.60161e-09
-4.41702e-07
-3.51249e-07
7.33676e-09
-4.33164e-07
-3.98215e-07
3.09629e-09
-4.49906e-07
-6.06326e-09
-8.33944e-08
-1.20673e-08
5.25565e-10
-1.60524e-07
-3.56668e-08
1.56613e-09
-2.3072e-07
-5.84185e-08
2.60631e-09
-2.95774e-07
-8.10839e-08
3.69991e-09
-3.57146e-07
-1.04681e-07
4.90992e-09
-4.15983e-07
-1.30139e-07
6.29238e-09
-4.73086e-07
-1.58339e-07
7.89396e-09
-5.28828e-07
-1.90154e-07
9.74439e-09
-5.82994e-07
-2.26449e-07
1.18397e-08
-6.34533e-07
-2.68064e-07
1.41121e-08
-6.81248e-07
-3.15704e-07
1.63797e-08
-7.19546e-07
-3.69724e-07
1.82807e-08
-7.44669e-07
-4.29624e-07
1.92281e-08
-7.52439e-07
-4.93013e-07
1.85282e-08
-7.44156e-07
-5.52998e-07
1.60227e-08
-6.15267e-07
1.14872e-08
-1.1489e-07
-1.53272e-08
7.15588e-10
-2.21117e-07
-4.52893e-08
2.13236e-09
-3.17755e-07
-7.41377e-08
3.54821e-09
-4.07279e-07
-1.02816e-07
5.03682e-09
-4.9173e-07
-1.32586e-07
6.68643e-09
-5.72752e-07
-1.64584e-07
8.57903e-09
-6.51584e-07
-1.99875e-07
1.07907e-08
-7.28979e-07
-2.3949e-07
1.33873e-08
-8.05048e-07
-2.84436e-07
1.64122e-08
-8.7898e-07
-3.3566e-07
1.98649e-08
-9.48641e-07
-3.93931e-07
2.36624e-08
-1.01011e-06
-4.5954e-07
2.75895e-08
-1.0575e-06
-5.31648e-07
3.12629e-08
-1.08427e-06
-6.06962e-07
3.41771e-08
-1.08822e-06
-6.77016e-07
3.59644e-08
-7.46285e-07
3.70677e-08
-1.44588e-07
-1.79851e-08
8.86856e-10
-2.78225e-07
-5.31266e-08
2.6424e-09
-3.99723e-07
-8.69137e-08
4.39562e-09
-5.12199e-07
-1.2042e-07
6.23797e-09
-6.18249e-07
-1.55084e-07
8.28113e-09
-7.20022e-07
-1.92178e-07
1.06331e-08
-8.19245e-07
-2.32873e-07
1.34022e-08
-9.17188e-07
-2.78273e-07
1.6698e-08
-1.01455e-06
-3.29436e-07
2.06282e-08
-1.1112e-06
-3.87339e-07
2.52904e-08
-1.20584e-06
-4.52778e-07
3.07549e-08
-1.29529e-06
-5.26099e-07
3.70303e-08
-1.37381e-06
-6.06522e-07
4.40177e-08
-1.43279e-06
-6.90577e-07
5.1403e-08
-1.46323e-06
-7.68762e-07
5.83885e-08
-8.4385e-07
6.52656e-08
-1.72056e-07
-1.99479e-08
1.03541e-09
-3.31008e-07
-5.89065e-08
3.08418e-09
-4.75399e-07
-9.63085e-08
5.12754e-09
-6.08919e-07
-1.33304e-07
7.27123e-09
-7.34666e-07
-1.71435e-07
9.64666e-09
-8.55261e-07
-2.1204e-07
1.23843e-08
-9.72922e-07
-2.56311e-07
1.56213e-08
-1.08949e-06
-3.05338e-07
1.95079e-08
-1.20637e-06
-3.60125e-07
2.42131e-08
-1.32446e-06
-4.21577e-07
2.99308e-08
-1.4438e-06
-4.90442e-07
3.68831e-08
-1.56305e-06
-5.67163e-07
4.53007e-08
-1.67825e-06
-6.51407e-07
5.5369e-08
-1.78042e-06
-7.40613e-07
6.69922e-08
-1.85199e-06
-8.25691e-07
7.90245e-08
-9.08769e-07
9.13181e-08
-1.96922e-07
-2.11529e-08
1.15834e-09
-3.78745e-07
-6.24474e-08
3.44875e-09
-5.43731e-07
-1.02037e-07
5.72818e-09
-6.96047e-07
-1.41097e-07
8.11199e-09
-8.39209e-07
-1.81202e-07
1.07455e-08
-9.76233e-07
-2.23686e-07
1.37745e-08
-1.10975e-06
-2.6969e-07
1.73555e-08
-1.2421e-06
-3.20201e-07
2.16658e-08
-1.37537e-06
-3.7606e-07
2.69147e-08
-1.5114e-06
-4.37954e-07
3.33585e-08
-1.6517e-06
-5.06391e-07
4.13169e-08
-1.79714e-06
-5.81662e-07
5.1168e-08
-1.94682e-06
-6.63746e-07
6.33058e-08
-2.09467e-06
-7.51727e-07
7.78954e-08
-2.21866e-06
-8.4023e-07
9.3827e-08
-9.41145e-07
1.11113e-07
-2.18876e-07
1.25403e-09
-2.15672e-08
-4.20849e-07
3.73125e-09
-6.3657e-08
-6.03873e-07
6.18899e-09
-1.03964e-07
-7.72478e-07
8.74669e-09
-1.43642e-07
-9.30484e-07
1.15563e-08
-1.84234e-07
-1.08118e-06
1.47697e-08
-2.27009e-07
-1.22749e-06
1.85497e-08
-2.73001e-07
-1.37204e-06
2.30804e-08
-3.23026e-07
-1.51734e-06
2.85791e-08
-3.7767e-07
-1.6658e-06
3.53106e-08
-4.3725e-07
-1.8198e-06
4.36008e-08
-5.01751e-07
-1.98152e-06
5.38266e-08
-5.70701e-07
-2.15206e-06
6.63658e-08
-6.4296e-07
-2.32815e-06
8.1366e-08
-7.15968e-07
-2.4909e-06
9.77028e-08
-7.82669e-07
1.19171e-07
-9.06999e-07
-1.71041e-08
-4.40666e-09
9.7952e-11
-3.29251e-08
-1.3034e-08
2.92022e-10
-4.7324e-08
-2.13791e-08
4.86558e-10
-6.06632e-08
-2.97367e-08
6.91972e-10
-7.3232e-08
-3.84966e-08
9.20209e-10
-8.52438e-08
-4.80194e-08
1.18168e-09
-9.68243e-08
-5.8653e-08
1.48452e-09
-1.07986e-07
-7.07442e-08
1.83254e-09
-1.18586e-07
-8.4641e-08
2.22097e-09
-1.28273e-07
-1.00683e-07
2.62898e-09
-1.3644e-07
-1.19172e-07
3.00864e-09
-1.42239e-07
-1.40322e-07
3.27151e-09
-1.44791e-07
-1.64133e-07
3.28452e-09
-1.43803e-07
-1.90082e-07
2.9092e-09
-1.40614e-07
-2.15806e-07
2.16089e-09
-2.59492e-07
5.28635e-10
-5.10299e-08
-8.63238e-09
2.90802e-10
-9.8227e-08
-2.55286e-08
8.66961e-10
-1.41177e-07
-4.18597e-08
1.44434e-09
-1.80965e-07
-5.81956e-08
2.05377e-09
-2.18459e-07
-7.52911e-08
2.73105e-09
-2.5431e-07
-9.38399e-08
3.50806e-09
-2.88921e-07
-1.14507e-07
4.41117e-09
-3.22375e-07
-1.37947e-07
5.45621e-09
-3.5432e-07
-1.64811e-07
6.638e-09
-3.8381e-07
-1.95709e-07
7.91202e-09
-4.09146e-07
-2.31135e-07
9.16768e-09
-4.27862e-07
-2.71287e-07
1.0196e-08
-4.37194e-07
-3.15685e-07
1.06834e-08
-4.35658e-07
-3.62363e-07
1.03105e-08
-4.26243e-07
-4.05833e-07
9.10154e-09
-4.48285e-07
6.83212e-09
-8.41327e-08
-1.25095e-08
4.75401e-10
-1.61931e-07
-3.69857e-08
1.41731e-09
-2.32712e-07
-6.06178e-08
2.36099e-09
-2.98271e-07
-8.42162e-08
3.35692e-09
-3.6006e-07
-1.08856e-07
4.4649e-09
-4.19196e-07
-1.35514e-07
5.73998e-09
-4.7642e-07
-1.65118e-07
7.23157e-09
-5.32013e-07
-1.9857e-07
8.97831e-09
-5.85621e-07
-2.36746e-07
1.09963e-08
-6.3601e-07
-2.80444e-07
1.32591e-08
-6.80784e-07
-3.30242e-07
1.5666e-08
-7.16213e-07
-3.86174e-07
1.80044e-08
-7.37639e-07
-4.47068e-07
1.99419e-08
-7.41475e-07
-5.09328e-07
2.11206e-08
-7.30295e-07
-5.64839e-07
2.14468e-08
-6.15434e-07
2.17414e-08
-1.15902e-07
-1.58872e-08
6.47137e-10
-2.23047e-07
-4.69589e-08
1.92924e-09
-3.20488e-07
-7.69199e-08
3.21322e-09
-4.10711e-07
-1.06775e-07
4.56811e-09
-4.95747e-07
-1.37856e-07
6.0772e-09
-5.77206e-07
-1.71362e-07
7.82004e-09
-6.56253e-07
-2.0841e-07
9.87397e-09
-7.33523e-07
-2.50073e-07
1.23116e-08
-8.08943e-07
-2.97369e-07
1.51931e-08
-8.8145e-07
-3.51206e-07
1.85512e-08
-9.48594e-07
-4.12201e-07
2.23634e-08
-1.00614e-06
-4.80278e-07
2.65162e-08
-1.04807e-06
-5.53809e-07
3.07762e-08
-1.06824e-06
-6.28092e-07
3.47881e-08
-1.0662e-06
-6.93206e-07
3.81134e-08
-7.49586e-07
4.15808e-08
-1.45853e-07
-1.864e-08
8.01786e-10
-2.80637e-07
-5.50786e-08
2.38993e-09
-4.03143e-07
-9.01641e-08
3.97913e-09
-5.16502e-07
-1.2504e-07
5.65481e-09
-6.23304e-07
-1.61226e-07
7.52192e-09
-7.25661e-07
-2.00065e-07
9.68399e-09
-8.25224e-07
-2.42789e-07
1.22479e-08
-9.23126e-07
-2.9055e-07
1.53257e-08
-1.01985e-06
-3.44419e-07
1.90334e-08
-1.11497e-06
-4.05337e-07
2.34856e-08
-1.20675e-06
-4.73951e-07
2.87767e-08
-1.2915e-06
-5.50229e-07
3.49461e-08
-1.36298e-06
-6.32563e-07
4.19147e-08
-1.41258e-06
-7.15951e-07
4.93338e-08
-1.43337e-06
-7.89208e-07
5.62817e-08
-8.51048e-07
6.30969e-08
-1.73549e-07
-2.06719e-08
9.3577e-10
-3.33856e-07
-6.10634e-08
2.78847e-09
-4.7944e-07
-9.98974e-08
4.63968e-09
-6.14012e-07
-1.384e-07
6.58795e-09
-7.40669e-07
-1.782e-07
8.75618e-09
-8.62001e-07
-2.20711e-07
1.12683e-08
-9.80146e-07
-2.67193e-07
1.4257e-08
-1.0968e-06
-3.18783e-07
1.78698e-08
-1.21317e-06
-3.76504e-07
2.2275e-08
-1.32978e-06
-4.41228e-07
2.76645e-08
-1.4462e-06
-5.13566e-07
3.42489e-08
-1.56038e-06
-5.93613e-07
4.22223e-08
-1.66744e-06
-6.80245e-07
5.16762e-08
-1.75783e-06
-7.69349e-07
6.23291e-08
-1.81597e-06
-8.49948e-07
7.28807e-08
-9.20207e-07
8.30644e-08
-1.98613e-07
-2.19181e-08
1.04646e-09
-3.81972e-07
-6.47261e-08
3.11678e-09
-5.48313e-07
-1.05826e-07
5.18069e-09
-7.01831e-07
-1.46471e-07
7.3454e-09
-8.46046e-07
-1.88325e-07
9.74632e-09
-9.83949e-07
-2.32801e-07
1.25211e-08
-1.1181e-06
-2.81104e-07
1.5819e-08
-1.25071e-06
-3.34268e-07
1.98106e-08
-1.38364e-06
-3.93154e-07
2.46968e-08
-1.5184e-06
-4.58417e-07
3.07181e-08
-1.65596e-06
-5.30444e-07
3.81577e-08
-1.79638e-06
-6.09214e-07
4.73117e-08
-1.93757e-06
-6.94011e-07
5.84075e-08
-2.07214e-06
-7.82499e-07
7.13218e-08
-2.17943e-06
-8.67343e-07
8.47428e-08
-9.56646e-07
9.84332e-08
-2.20733e-07
1.13243e-09
-2.23448e-08
-4.24393e-07
3.37056e-09
-6.59724e-08
-6.08907e-07
5.59456e-09
-1.07811e-07
-7.78838e-07
7.9152e-09
-1.49093e-07
-9.38018e-07
1.04737e-08
-1.9145e-07
-1.08972e-06
1.34126e-08
-2.36227e-07
-1.2368e-06
1.6886e-08
-2.84518e-07
-1.38178e-06
2.10689e-08
-3.37181e-07
-1.52695e-06
2.61665e-08
-3.94816e-07
-1.67441e-06
3.24217e-08
-4.57708e-07
-1.82604e-06
4.01155e-08
-5.25723e-07
-1.98321e-06
4.95326e-08
-5.98104e-07
-2.14576e-06
6.08743e-08
-6.73117e-07
-2.30882e-06
7.39985e-08
-7.47042e-07
-2.45383e-06
8.7587e-08
-8.1109e-07
1.04782e-07
-9.25821e-07
-1.72253e-08
-4.54237e-09
8.373e-11
-3.31549e-08
-1.34385e-08
2.49734e-10
-4.76456e-08
-2.20524e-08
4.16493e-10
-6.10584e-08
-3.06923e-08
5.93221e-10
-7.36777e-08
-3.97629e-08
7.90615e-10
-8.57082e-08
-4.96354e-08
1.01837e-09
-9.72609e-08
-6.06637e-08
1.28481e-09
-1.08327e-07
-7.31913e-08
1.59562e-09
-1.18736e-07
-8.75477e-08
1.95117e-09
-1.28106e-07
-1.04026e-07
2.34213e-09
-1.35809e-07
-1.22839e-07
2.74378e-09
-1.41006e-07
-1.44035e-07
3.11111e-09
-1.42885e-07
-1.67366e-07
3.3827e-09
-1.41302e-07
-1.92023e-07
3.50744e-09
-1.37777e-07
-2.15689e-07
3.50154e-09
-2.5625e-07
3.48054e-09
-5.13907e-08
-8.89785e-09
2.48562e-10
-9.89113e-08
-2.63197e-08
7.41356e-10
-1.42135e-07
-4.3176e-08
1.23622e-09
-1.82143e-07
-6.00629e-08
1.76042e-09
-2.1979e-07
-7.77641e-08
2.34595e-09
-2.55702e-07
-9.69946e-08
3.02231e-09
-2.90237e-07
-1.18431e-07
3.81584e-09
-3.23416e-07
-1.42723e-07
4.74671e-09
-3.54806e-07
-1.70485e-07
5.82232e-09
-3.83365e-07
-2.02243e-07
7.02634e-09
-4.07319e-07
-2.38323e-07
8.30475e-09
-4.24201e-07
-2.78619e-07
9.55197e-09
-4.31418e-07
-3.22189e-07
1.0618e-08
-4.279e-07
-3.66561e-07
1.13671e-08
-4.17219e-07
-4.06325e-07
1.17903e-08
-4.42955e-07
1.23226e-08
-8.47254e-08
-1.28933e-08
4.06287e-10
-1.63055e-07
-3.81292e-08
1.21177e-09
-2.34287e-07
-6.25197e-08
2.02037e-09
-3.00212e-07
-8.69128e-08
2.87666e-09
-3.6226e-07
-1.12425e-07
3.83385e-09
-4.21507e-07
-1.40064e-07
4.94235e-09
-4.78629e-07
-1.70774e-07
6.2499e-09
-5.33803e-07
-2.05452e-07
7.79866e-09
-5.86539e-07
-2.44927e-07
9.61794e-09
-6.35437e-07
-2.89884e-07
1.17119e-08
-6.77945e-07
-3.40672e-07
1.40414e-08
-7.10266e-07
-3.9692e-07
1.65021e-08
-7.27926e-07
-4.56839e-07
1.89208e-08
-7.27934e-07
-5.16173e-07
2.10932e-08
-7.13944e-07
-5.66917e-07
2.28413e-08
-6.10269e-07
2.48919e-08
-1.16715e-07
-1.63734e-08
5.52939e-10
-2.24589e-07
-4.8407e-08
1.64907e-09
-3.22652e-07
-7.93271e-08
2.74886e-09
-4.13382e-07
-1.10185e-07
3.9131e-09
-4.98787e-07
-1.42366e-07
5.21556e-09
-5.80423e-07
-1.77107e-07
6.72824e-09
-6.5937e-07
-2.15547e-07
8.5235e-09
-7.36127e-07
-2.58755e-07
1.06732e-08
-8.10434e-07
-3.07696e-07
1.32438e-08
-8.80984e-07
-3.63149e-07
1.62877e-08
-9.45067e-07
-4.25468e-07
1.98223e-08
-9.98258e-07
-4.9411e-07
2.38016e-08
-1.03462e-06
-5.66736e-07
2.80834e-08
-1.04871e-06
-6.37881e-07
3.23857e-08
-1.04174e-06
-6.9775e-07
3.6204e-08
-7.46399e-07
4.01462e-08
-1.4687e-07
-1.92089e-08
6.84892e-10
-2.82569e-07
-5.67723e-08
2.04225e-09
-4.05856e-07
-9.2978e-08
3.40289e-09
-5.19858e-07
-1.29024e-07
4.84181e-09
-6.27141e-07
-1.66489e-07
6.45153e-09
-7.29758e-07
-2.06762e-07
8.32474e-09
-8.29256e-07
-2.51103e-07
1.0559e-08
-9.26612e-07
-3.00658e-07
1.32589e-08
-1.02207e-06
-3.56449e-07
1.65361e-08
-1.11491e-06
-4.19282e-07
2.05047e-08
-1.203e-06
-4.89529e-07
2.52635e-08
-1.28231e-06
-5.66674e-07
3.08587e-08
-1.34646e-06
-6.48358e-07
3.72163e-08
-1.38754e-06
-7.28757e-07
4.39848e-08
-1.40095e-06
-7.96778e-07
5.02603e-08
-8.51053e-07
5.62458e-08
-1.74752e-07
-2.1301e-08
7.99092e-10
-3.3614e-07
-6.29359e-08
2.382e-09
-4.82652e-07
-1.03006e-07
3.9662e-09
-6.17997e-07
-1.42798e-07
5.63796e-09
-7.45247e-07
-1.84003e-07
7.50519e-09
-8.66931e-07
-2.28088e-07
9.67787e-09
-9.8508e-07
-2.7634e-07
1.22749e-08
-1.10122e-06
-3.29899e-07
1.54299e-08
-1.21628e-06
-3.89736e-07
1.92948e-08
-1.33044e-06
-4.56593e-07
2.4041e-08
-1.44279e-06
-5.30819e-07
2.9847e-08
-1.55072e-06
-6.12039e-07
3.68568e-08
-1.649e-06
-6.98395e-07
4.50879e-08
-1.72856e-06
-7.84932e-07
5.41912e-08
-1.77675e-06
-8.60688e-07
6.29644e-08
-9.24033e-07
7.11625e-08
-1.99978e-07
-2.25833e-08
8.93299e-10
-3.84566e-07
-6.67056e-08
2.66146e-09
-5.51965e-07
-1.0911e-07
4.42675e-09
-7.06373e-07
-1.51113e-07
6.28284e-09
-8.51288e-07
-1.94445e-07
8.34815e-09
-9.89643e-07
-2.4057e-07
1.0744e-08
-1.12389e-06
-2.90727e-07
1.36028e-08
-1.25606e-06
-3.4595e-07
1.70759e-08
-1.38775e-06
-4.07055e-07
2.13395e-08
-1.52005e-06
-4.74577e-07
2.6599e-08
-1.65342e-06
-5.48661e-07
3.30811e-08
-1.78723e-06
-6.28855e-07
4.09934e-08
-1.91873e-06
-7.13773e-07
5.04373e-08
-2.0407e-06
-8.00283e-07
6.11677e-08
-2.13557e-06
-8.80942e-07
7.19875e-08
-9.64311e-07
8.27607e-08
-2.22235e-07
9.66325e-10
-2.30213e-08
-4.27248e-07
2.87701e-09
-6.79849e-08
-6.12933e-07
4.7782e-09
-1.11149e-07
-7.83857e-07
6.76647e-09
-1.53807e-07
-9.43834e-07
8.96491e-09
-1.97659e-07
-1.09609e-06
1.14987e-08
-2.441e-07
-1.24336e-06
1.45034e-08
-2.94257e-07
-1.38802e-06
1.81328e-08
-3.4899e-07
-1.53208e-06
2.2564e-08
-4.08856e-07
-1.67725e-06
2.80002e-08
-4.74034e-07
-1.82486e-06
3.46599e-08
-5.44172e-07
-1.97555e-06
4.27332e-08
-6.18136e-07
-2.12839e-06
5.22933e-08
-6.93625e-07
-2.27836e-06
6.30798e-08
-7.66238e-07
-2.40947e-06
7.38997e-08
-8.26957e-07
8.75497e-08
-9.37149e-07
-1.73185e-08
-4.65419e-09
6.60867e-11
-3.33305e-08
-1.37713e-08
1.97183e-10
-4.78886e-08
-2.26048e-08
3.29105e-10
-6.13507e-08
-3.14725e-08
4.69335e-10
-7.39961e-08
-4.07888e-08
6.26639e-10
-8.60198e-08
-5.09304e-08
8.09187e-10
-9.75188e-08
-6.22497e-08
1.02446e-09
-1.08464e-07
-7.50785e-08
1.27854e-09
-1.18662e-07
-8.97175e-08
1.5746e-09
-1.27706e-07
-1.06405e-07
1.91056e-09
-1.34953e-07
-1.2526e-07
2.27631e-09
-1.39575e-07
-1.46196e-07
2.65208e-09
-1.40816e-07
-1.68804e-07
3.01184e-09
-1.38639e-07
-1.92177e-07
3.33483e-09
-1.34701e-07
-2.14197e-07
3.61355e-09
-2.52364e-07
4.10658e-09
-5.16682e-08
-9.11658e-09
1.96172e-10
-9.94343e-08
-2.69706e-08
5.85309e-10
-1.42859e-07
-4.4256e-08
9.76747e-10
-1.83015e-07
-6.15878e-08
1.39261e-09
-2.20741e-07
-7.97687e-08
1.85905e-09
-2.56637e-07
-9.95244e-08
2.40083e-09
-2.91017e-07
-1.21529e-07
3.04126e-09
-3.23846e-07
-1.46412e-07
3.80053e-09
-3.54615e-07
-1.74733e-07
4.69214e-09
-3.8221e-07
-2.06916e-07
5.7167e-09
-4.04801e-07
-2.43115e-07
6.85484e-09
-4.19943e-07
-2.82974e-07
8.06081e-09
-4.25197e-07
-3.25262e-07
9.26618e-09
-4.19814e-07
-3.67347e-07
1.03994e-08
-4.07812e-07
-4.04208e-07
1.13893e-08
-4.37198e-07
1.26999e-08
-8.51813e-08
-1.32097e-08
3.20612e-10
-1.63915e-07
-3.90705e-08
9.56569e-10
-2.35479e-07
-6.40808e-08
1.59602e-09
-3.01649e-07
-8.91161e-08
2.27508e-09
-3.63834e-07
-1.1532e-07
3.03709e-09
-4.23065e-07
-1.43716e-07
3.92403e-09
-4.7995e-07
-1.75249e-07
4.97709e-09
-5.34571e-07
-2.10783e-07
6.23541e-09
-5.86315e-07
-2.5108e-07
7.73196e-09
-6.33649e-07
-2.96683e-07
9.48644e-09
-6.7391e-07
-3.47715e-07
1.14945e-08
-7.03298e-07
-4.03474e-07
1.3713e-08
-7.1755e-07
-4.61789e-07
1.60501e-08
-7.14207e-07
-5.18223e-07
1.83603e-08
-6.97762e-07
-5.65304e-07
2.04064e-08
-6.04404e-07
2.26245e-08
-1.1734e-07
-1.67743e-08
4.36259e-10
-2.2577e-07
-4.95994e-08
1.3015e-09
-3.2429e-07
-8.1304e-08
2.17095e-09
-4.15365e-07
-1.12974e-07
3.09374e-09
-5.00969e-07
-1.46029e-07
4.12973e-09
-5.82604e-07
-1.81726e-07
5.3383e-09
-6.61259e-07
-2.21207e-07
6.7804e-09
-7.37304e-07
-2.65504e-07
8.51877e-09
-8.10309e-07
-3.15504e-07
1.06153e-08
-8.78766e-07
-3.71826e-07
1.31254e-08
-9.3978e-07
-4.34561e-07
1.60827e-08
-9.88852e-07
-5.02786e-07
1.94754e-08
-1.02027e-06
-5.73733e-07
2.321e-08
-1.0293e-06
-6.41749e-07
2.70493e-08
-1.01851e-06
-6.97657e-07
3.05016e-08
-7.41976e-07
3.3889e-08
-1.47654e-07
-1.96781e-08
5.40246e-10
-2.84049e-07
-5.81677e-08
1.61141e-09
-4.07913e-07
-9.52903e-08
2.68666e-09
-5.22356e-07
-1.32284e-07
3.82649e-09
-6.29908e-07
-1.70768e-07
5.10565e-09
-7.32555e-07
-2.12158e-07
6.59987e-09
-8.3174e-07
-2.57712e-07
8.38977e-09
-9.2828e-07
-3.08548e-07
1.05632e-08
-1.02221e-06
-3.656e-07
1.32152e-08
-1.11254e-06
-4.29508e-07
1.64443e-08
-1.19686e-06
-5.00372e-07
2.03366e-08
-1.27097e-06
-5.77277e-07
2.49317e-08
-1.32866e-06
-6.5742e-07
3.01593e-08
-1.36288e-06
-7.34778e-07
3.57047e-08
-1.37094e-06
-7.98907e-07
4.07928e-08
-8.49147e-07
4.54884e-08
-1.7568e-07
-2.18201e-08
6.30159e-10
-3.37894e-07
-6.44793e-08
1.87894e-09
-4.85094e-07
-1.05563e-07
3.13035e-09
-6.20973e-07
-1.464e-07
4.45379e-09
-7.48565e-07
-1.88729e-07
5.93612e-09
-8.70329e-07
-2.34043e-07
7.66648e-09
-9.88179e-07
-2.83635e-07
9.74192e-09
-1.10346e-06
-3.38613e-07
1.22716e-08
-1.21686e-06
-3.99867e-07
1.53796e-08
-1.32824e-06
-4.67976e-07
1.92031e-08
-1.43631e-06
-5.4302e-07
2.38792e-08
-1.53818e-06
-6.24239e-07
2.95045e-08
-1.62866e-06
-7.09337e-07
3.6057e-08
-1.69961e-06
-7.93155e-07
4.321e-08
-1.74085e-06
-8.65348e-07
4.99893e-08
-9.25176e-07
5.61954e-08
-2.01033e-07
-2.31325e-08
7.04245e-10
-3.86563e-07
-6.83381e-08
2.09872e-09
-5.54751e-07
-1.11813e-07
3.49258e-09
-7.0978e-07
-1.54919e-07
4.96099e-09
-8.55114e-07
-1.99435e-07
6.59897e-09
-9.93612e-07
-2.46855e-07
8.5043e-09
-1.12761e-06
-2.98424e-07
1.07841e-08
-1.25894e-06
-3.55151e-07
1.35601e-08
-1.38894e-06
-4.17773e-07
1.69728e-08
-1.51835e-06
-4.86675e-07
2.11812e-08
-1.6472e-06
-5.61753e-07
2.63514e-08
-1.77443e-06
-6.42198e-07
3.26174e-08
-1.89719e-06
-7.2622e-07
4.00089e-08
-2.00909e-06
-8.10476e-07
4.82764e-08
-2.09534e-06
-8.8804e-07
5.64744e-08
-9.68493e-07
6.45743e-08
-2.234e-07
7.61584e-10
-2.35801e-08
-4.29454e-07
2.26795e-09
-6.96457e-08
-6.16014e-07
3.76845e-09
-1.13898e-07
-7.8764e-07
5.34043e-09
-1.57676e-07
-9.4811e-07
7.08237e-09
-2.02728e-07
-1.10058e-06
9.09481e-09
-2.50482e-07
-1.24767e-06
1.14867e-08
-3.02072e-07
-1.39156e-06
1.43809e-08
-3.58335e-07
-1.53401e-06
1.79166e-08
-4.19759e-07
-1.67637e-06
2.2248e-08
-4.86388e-07
-1.81949e-06
2.7531e-08
-5.57651e-07
-1.96355e-06
3.38817e-08
-6.32096e-07
-2.10739e-06
4.13056e-08
-7.07075e-07
-2.24664e-06
4.9545e-08
-7.77991e-07
-2.36789e-06
5.76674e-08
-8.36188e-07
6.80056e-08
-9.44366e-07
-1.73858e-08
-4.73977e-09
4.56865e-11
-3.34566e-08
-1.40258e-08
1.36349e-10
-4.80608e-08
-2.3026e-08
2.27696e-10
-6.15537e-08
-3.20646e-08
3.25013e-10
-7.42089e-08
-4.1562e-08
4.34526e-10
-8.62133e-08
-5.18965e-08
5.62156e-10
-9.76515e-08
-6.34158e-08
7.13533e-10
-1.08479e-07
-7.64372e-08
8.9366e-10
-1.18482e-07
-9.12329e-08
1.10616e-09
-1.27238e-07
-1.07992e-07
1.35208e-09
-1.34092e-07
-1.26761e-07
1.62856e-09
-1.3823e-07
-1.47362e-07
1.92812e-09
-1.3894e-07
-1.693e-07
2.23996e-09
-1.36263e-07
-1.91659e-07
2.55272e-09
-1.31959e-07
-2.12508e-07
2.84771e-09
-2.48895e-07
3.34828e-09
-5.18685e-08
-9.28401e-09
1.35608e-10
-9.98097e-08
-2.74683e-08
4.04706e-10
-1.43373e-07
-4.50797e-08
6.75725e-10
-1.83621e-07
-6.27455e-08
9.6428e-10
-2.21378e-07
-8.12803e-08
1.28894e-09
-2.57218e-07
-1.01413e-07
1.66755e-09
-2.91423e-07
-1.2381e-07
2.11749e-09
-3.23905e-07
-1.49072e-07
2.65489e-09
-3.541e-07
-1.77709e-07
3.29282e-09
-3.80838e-07
-2.1005e-07
4.03804e-09
-4.02259e-07
-2.46117e-07
4.88742e-09
-4.15947e-07
-2.85388e-07
5.82389e-09
-4.19588e-07
-3.26486e-07
6.81563e-09
-4.12678e-07
-3.66787e-07
7.81577e-09
-3.99569e-07
-4.01638e-07
8.73676e-09
-4.32338e-07
9.90676e-09
-8.55106e-08
-1.34519e-08
2.21605e-10
-1.64532e-07
-3.97904e-08
6.61333e-10
-2.36324e-07
-6.52718e-08
1.10399e-09
-3.02649e-07
-9.07896e-08
1.57504e-09
-3.6489e-07
-1.17505e-07
2.10516e-09
-4.24039e-07
-1.46447e-07
2.72444e-09
-4.80647e-07
-1.78548e-07
3.46309e-09
-5.34715e-07
-2.14639e-07
4.3511e-09
-5.85534e-07
-2.55408e-07
5.41603e-09
-6.31474e-07
-3.01278e-07
6.67915e-09
-6.69805e-07
-3.52191e-07
8.14895e-09
-6.96756e-07
-4.07229e-07
9.81054e-09
-7.08264e-07
-4.64045e-07
1.16128e-08
-7.02291e-07
-5.18241e-07
1.34486e-08
-6.83936e-07
-5.62859e-07
1.51017e-08
-5.99496e-07
1.67834e-08
-1.17792e-07
-1.70813e-08
3.01496e-10
-2.26618e-07
-5.05116e-08
8.99659e-10
-3.25454e-07
-8.28127e-08
1.50139e-09
-4.16745e-07
-1.15094e-07
2.14126e-09
-5.02437e-07
-1.48795e-07
2.86151e-09
-5.83977e-07
-1.85184e-07
3.70437e-09
-6.62276e-07
-2.25389e-07
4.71388e-09
-7.37597e-07
-2.70402e-07
5.93638e-09
-8.09373e-07
-3.21026e-07
7.41903e-09
-8.75951e-07
-3.7774e-07
9.20645e-09
-9.34321e-07
-4.40432e-07
1.13305e-08
-9.7999e-07
-5.07931e-07
1.37912e-08
-1.00749e-06
-5.77279e-07
1.65265e-08
-1.01271e-06
-6.42896e-07
1.93564e-08
-9.99124e-07
-6.96206e-07
2.18948e-08
-7.38178e-07
2.42723e-08
-1.48222e-07
-2.00376e-08
3.73294e-10
-2.85114e-07
-5.92356e-08
1.11366e-09
-4.09377e-07
-9.7056e-08
1.85761e-09
-5.24101e-07
-1.34763e-07
2.64763e-09
-6.31777e-07
-1.74004e-07
3.53626e-09
-7.34332e-07
-2.16203e-07
4.57702e-09
-8.33113e-07
-2.62609e-07
5.8274e-09
-9.28804e-07
-3.14296e-07
7.35054e-09
-1.02127e-06
-3.7211e-07
9.21521e-09
-1.10932e-06
-4.36546e-07
1.14931e-08
-1.19037e-06
-5.07489e-07
1.42466e-08
-1.26018e-06
-5.83769e-07
1.75021e-08
-1.31281e-06
-6.62389e-07
2.1203e-08
-1.34198e-06
-7.3742e-07
2.51113e-08
-1.34632e-06
-7.99047e-07
2.86647e-08
-8.47226e-07
3.18525e-08
-1.76353e-07
-2.2218e-08
4.35333e-10
-3.39159e-07
-6.56613e-08
1.29827e-09
-4.86837e-07
-1.07516e-07
2.16384e-09
-6.23059e-07
-1.49142e-07
3.08067e-09
-7.50821e-07
-1.92307e-07
4.10962e-09
-8.72513e-07
-2.38516e-07
5.31337e-09
-9.89942e-07
-2.89054e-07
6.76043e-09
-1.10431e-06
-3.44987e-07
8.52791e-09
-1.21609e-06
-4.0712e-07
1.0703e-08
-1.3249e-06
-4.75886e-07
1.33809e-08
-1.42922e-06
-5.51158e-07
1.66533e-08
-1.52606e-06
-6.31924e-07
2.05782e-08
-1.61046e-06
-7.15702e-07
2.51236e-08
-1.67516e-06
-7.97424e-07
3.00435e-08
-1.71166e-06
-8.67357e-07
3.46594e-08
-9.25474e-07
3.88267e-08
-2.01801e-07
-2.35537e-08
4.86411e-10
-3.88007e-07
-6.9589e-08
1.4498e-09
-5.56745e-07
-1.1388e-07
2.41359e-09
-7.1218e-07
-1.5782e-07
3.43034e-09
-8.57733e-07
-2.03219e-07
4.56645e-09
-9.96194e-07
-2.51585e-07
5.8904e-09
-1.12979e-06
-3.04158e-07
7.4773e-09
-1.26019e-06
-3.6191e-07
9.41227e-09
-1.38851e-06
-4.25496e-07
1.17924e-08
-1.51522e-06
-4.95167e-07