/*--------------------------------*- C++ -*----------------------------------*\
| =========                 |                                                 |
| \\      /  F ield         | foam-extend: Open Source CFD                    |
|  \\    /   O peration     | Version:     3.1                                |
|   \\  /    A nd           | Web:         http://www.extend-project.de       |
|    \\/     M anipulation  |                                                 |
\*---------------------------------------------------------------------------*/
FoamFile
{
    version     2.0;
    format      ascii;
    class       volScalarField;
    location    "1.8";
    object      p;
}
// * * * * * * * * * * * * * * * * * * * * * * * * * * * * * * * * * * * * * //

dimensions      [0 2 -2 0 0 0 0];

internalField   nonuniform List<scalar> 
14592
(
0.0250741
0.0248904
0.0247902
0.0247863
0.0248427
0.0249113
0.0249512
0.0249379
0.0248631
0.0247275
0.0245331
0.0242699
0.0239071
0.0233706
0.0225399
0.0214431
0.0250729
0.0248502
0.0247195
0.0247007
0.0247583
0.0248414
0.0249026
0.024912
0.0248589
0.0247443
0.0245713
0.0243336
0.0240052
0.0235132
0.0226628
0.0211904
0.025021
0.0247629
0.0245993
0.0245648
0.0246292
0.0247348
0.024825
0.0248625
0.024834
0.0247441
0.0246007
0.0244038
0.0241326
0.0237039
0.0228349
0.0209265
0.0249562
0.0246792
0.0244876
0.024432
0.0244938
0.0246125
0.0247237
0.0247825
0.0247715
0.0246992
0.0245773
0.0244118
0.0241882
0.0238192
0.0229768
0.0207716
0.024892
0.0246102
0.0243988
0.0243202
0.0243678
0.0244848
0.0246033
0.0246719
0.0246699
0.0246002
0.0244834
0.0243291
0.0241325
0.0238139
0.0230494
0.0207075
0.0248244
0.024548
0.0243212
0.0242234
0.0242521
0.0243562
0.0244682
0.0245327
0.0245232
0.0244421
0.0243097
0.0241391
0.0239405
0.02365
0.0230028
0.020674
0.0247443
0.0244663
0.0242407
0.0241261
0.0241355
0.0242217
0.0243182
0.0243657
0.0243351
0.0242244
0.0240517
0.0238282
0.0235816
0.0232604
0.0227492
0.0204939
0.0246511
0.0243712
0.0241409
0.0240158
0.0240088
0.0240762
0.0241521
0.0241758
0.0241135
0.0239573
0.02372
0.0233981
0.0230247
0.0224898
0.0220335
0.0190713
0.0252561
0.0250619
0.0249571
0.024959
0.0250324
0.0251287
0.0252053
0.0252377
0.02522
0.0251574
0.0250605
0.0249311
0.0247579
0.0244995
0.0241274
0.0238637
0.0252592
0.0250231
0.0248845
0.0248682
0.0249413
0.0250522
0.0251521
0.0252104
0.0252178
0.0251802
0.025108
0.0250068
0.0248674
0.0246394
0.0242522
0.023981
0.0252134
0.0249435
0.0247697
0.0247348
0.0248124
0.0249454
0.0250756
0.0251646
0.0252002
0.0251918
0.0251549
0.0251024
0.025031
0.0248782
0.0245083
0.0241691
0.0251545
0.0248681
0.0246687
0.0246124
0.0246853
0.0248294
0.0249796
0.0250899
0.0251427
0.0251557
0.025145
0.0251321
0.0251214
0.0250472
0.0247106
0.0243097
0.0250945
0.0248058
0.0245915
0.0245139
0.0245712
0.0247102
0.0248645
0.0249823
0.025045
0.0250566
0.0250513
0.0250531
0.0250765
0.0250654
0.0247781
0.0243215
0.0250285
0.0247488
0.024522
0.0244279
0.0244653
0.0245875
0.02473
0.0248381
0.0248872
0.0248834
0.0248574
0.0248383
0.0248546
0.0248692
0.0246242
0.0241246
0.0249473
0.0246656
0.0244429
0.0243336
0.0243504
0.0244504
0.024571
0.0246553
0.0246745
0.0246318
0.0245534
0.0244661
0.0244121
0.0243705
0.0241137
0.0233958
0.0248462
0.0245631
0.0243363
0.0242161
0.0242143
0.0242909
0.0243842
0.0244362
0.0244137
0.024312
0.0241498
0.0239354
0.0237082
0.0233914
0.0229717
0.0205709
0.0254405
0.0252386
0.0251318
0.0251417
0.0252338
0.0253584
0.0254713
0.0255477
0.0255827
0.0255843
0.0255688
0.0255415
0.025498
0.0254103
0.0252734
0.0252145
0.0254477
0.0252014
0.025058
0.025047
0.0251371
0.0252766
0.0254149
0.0255202
0.0255839
0.0256144
0.0256256
0.0256275
0.025614
0.0255443
0.0253926
0.0253428
0.0254079
0.025129
0.0249492
0.0249178
0.025011
0.0251725
0.0253427
0.0254816
0.0255772
0.0256403
0.0256904
0.0257438
0.0257976
0.0257951
0.0256729
0.0255863
0.0253548
0.025062
0.0248591
0.0248067
0.0248944
0.0250658
0.0252555
0.0254162
0.0255316
0.0256162
0.0256948
0.0257905
0.0259065
0.0259766
0.0258818
0.0257647
0.025299
0.0250062
0.0247929
0.0247219
0.0247936
0.0249577
0.0251486
0.025314
0.0254335
0.0255191
0.0256028
0.0257128
0.0258615
0.0259842
0.0259104
0.0257257
0.0252365
0.0249537
0.0247305
0.0246461
0.0246981
0.0248425
0.0250172
0.0251678
0.0252706
0.025334
0.0253914
0.0254744
0.0256071
0.0257343
0.0256408
0.0253569
0.025153
0.0248689
0.0246522
0.0245543
0.0245851
0.0247038
0.0248509
0.0249711
0.025036
0.0250513
0.0250457
0.0250474
0.0250908
0.0251266
0.0249061
0.0242515
0.0250442
0.0247593
0.0245385
0.0244294
0.0244396
0.0245306
0.0246441
0.0247237
0.0247373
0.0246815
0.0245763
0.0244301
0.0242707
0.0239898
0.0234554
0.0207319
0.0256157
0.0254081
0.0253015
0.0253204
0.0254311
0.0255828
0.0257296
0.0258455
0.0259263
0.0259806
0.0260269
0.0260708
0.0261074
0.026115
0.02609
0.0260789
0.0256269
0.0253729
0.025227
0.0252227
0.0253301
0.025497
0.025671
0.0258187
0.0259311
0.0260171
0.0260924
0.0261657
0.0262298
0.0262459
0.0262022
0.026173
0.0255924
0.0253068
0.0251242
0.0250984
0.025208
0.0253971
0.0256047
0.0257887
0.0259363
0.0260583
0.0261737
0.026298
0.0264232
0.026492
0.0264605
0.0263902
0.0255448
0.0252475
0.0250439
0.0249984
0.0251023
0.0253009
0.0255279
0.0257343
0.0259028
0.0260467
0.0261911
0.0263568
0.0265394
0.0266675
0.0266484
0.0265262
0.0254932
0.0251974
0.0249874
0.024926
0.0250146
0.0252046
0.0254307
0.0256396
0.0258094
0.0259533
0.0261012
0.0262782
0.0264875
0.0266524
0.0266277
0.0264199
0.025434
0.0251488
0.024931
0.0248592
0.0249289
0.0250973
0.0253034
0.025493
0.0256423
0.0257586
0.0258748
0.0260185
0.0262022
0.0263501
0.0262607
0.0259148
0.0253476
0.0250626
0.0248529
0.0247691
0.0248176
0.0249576
0.0251314
0.0252848
0.0253886
0.025449
0.0254933
0.0255451
0.0256252
0.0256538
0.0253644
0.0245666
0.0252323
0.0249462
0.0247324
0.0246371
0.0246632
0.0247718
0.0249062
0.0250115
0.0250555
0.0250346
0.0249674
0.024857
0.0247162
0.0244029
0.0237149
0.0206464
0.0257709
0.0255593
0.0254538
0.0254815
0.0256093
0.0257851
0.0259613
0.0261105
0.0262282
0.0263239
0.026413
0.0265026
0.026585
0.0266378
0.0266565
0.0266491
0.0257856
0.0255258
0.0253789
0.0253816
0.0255049
0.025696
0.025901
0.0260845
0.0262362
0.0263634
0.0264855
0.0266046
0.0267109
0.0267669
0.0267609
0.0267151
0.0257555
0.0254652
0.0252814
0.0252619
0.0253869
0.0256008
0.0258409
0.026063
0.0262526
0.0264199
0.0265809
0.0267489
0.0269096
0.0270043
0.0269935
0.0268941
0.0257127
0.0254123
0.0252097
0.0251718
0.0252914
0.0255147
0.0257744
0.0260194
0.0262305
0.0264197
0.0266092
0.026816
0.0270273
0.0271671
0.0271523
0.0269839
0.0256656
0.0253673
0.0251612
0.0251101
0.0252154
0.0254293
0.0256867
0.0259326
0.0261432
0.0263307
0.0265212
0.0267353
0.0269663
0.0271281
0.0270858
0.0268156
0.0256076
0.0253215
0.0251093
0.0250506
0.0251382
0.0253294
0.0255639
0.0257866
0.0259736
0.0261287
0.0262829
0.0264578
0.0266547
0.0267824
0.0266444
0.0262107
0.0255195
0.0252342
0.0250312
0.0249615
0.0250281
0.025189
0.0253874
0.0255693
0.0257039
0.0257968
0.0258724
0.0259476
0.0260308
0.0260198
0.0256362
0.0247021
0.0253986
0.0251117
0.0249044
0.0248231
0.0248659
0.0249924
0.0251465
0.0252738
0.0253418
0.0253455
0.0253008
0.0252044
0.0250562
0.0246884
0.0238569
0.0205185
0.0258966
0.0256824
0.0255783
0.0256138
0.0257556
0.0259509
0.0261505
0.0263256
0.0264708
0.0265951
0.0267129
0.0268299
0.0269352
0.0270062
0.0270364
0.0270216
0.0259142
0.0256503
0.0255033
0.0255123
0.0256488
0.0258596
0.0260892
0.0263004
0.0264815
0.0266375
0.0267912
0.0269373
0.0270645
0.0271349
0.027136
0.0270683
0.0258874
0.025594
0.0254101
0.0253966
0.0255345
0.0257686
0.0260346
0.0262863
0.0265077
0.026708
0.0268976
0.0270903
0.0272659
0.0273642
0.0273481
0.027216
0.0258478
0.0255462
0.025345
0.0253143
0.0254475
0.025691
0.025977
0.0262521
0.0264952
0.0267163
0.0269344
0.0271629
0.0273826
0.0275146
0.0274809
0.027268
0.0258058
0.0255056
0.0253027
0.025261
0.0253808
0.0256149
0.0258975
0.0261722
0.0264134
0.026631
0.0268479
0.02708
0.0273131
0.0274554
0.0273785
0.0270525
0.0257477
0.0254609
0.0252541
0.025207
0.0253103
0.025521
0.0257786
0.0260273
0.0262424
0.0264239
0.0266007
0.0267889
0.0269813
0.0270772
0.0268841
0.0263785
0.0256584
0.025373
0.0251758
0.0251185
0.0252011
0.0253802
0.025599
0.0258033
0.0259605
0.0260751
0.0261683
0.0262515
0.0263233
0.0262678
0.0258007
0.0247647
0.025533
0.0252457
0.0250439
0.0249748
0.0250325
0.0251749
0.0253457
0.0254904
0.0255758
0.0255954
0.0255624
0.0254681
0.0253025
0.0248811
0.0239368
0.0204056
0.0259851
0.0257697
0.0256673
0.0257087
0.0258607
0.02607
0.0262859
0.0264786
0.026642
0.0267842
0.0269195
0.0270514
0.0271672
0.0272438
0.0272748
0.0272476
0.0260046
0.025739
0.0255928
0.0256072
0.0257537
0.0259788
0.0262257
0.0264559
0.0266565
0.0268304
0.0270039
0.0271649
0.0273012
0.027375
0.0273727
0.0272857
0.0259801
0.0256854
0.0255026
0.0254944
0.0256426
0.0258915
0.0261761
0.0264483
0.0266909
0.026913
0.0271191
0.0273246
0.0275052
0.0275999
0.0275721
0.0274135
0.0259429
0.0256409
0.0254417
0.0254172
0.0255614
0.0258203
0.0261252
0.0264213
0.0266859
0.0269274
0.027162
0.0274011
0.0276211
0.0277415
0.0276871
0.02744
0.0259035
0.0256033
0.0254032
0.0253692
0.0255009
0.0257504
0.0260515
0.0263465
0.0266081
0.0268449
0.0270767
0.0273166
0.0275453
0.0276683
0.0275605
0.0271935
0.0258457
0.0255589
0.0253565
0.0253186
0.0254346
0.0256606
0.0259355
0.0262024
0.0264366
0.0266344
0.0268235
0.0270163
0.0271998
0.0272683
0.027032
0.026476
0.0257556
0.0254707
0.0252779
0.0252301
0.0253256
0.0255193
0.0257535
0.0259742
0.0261463
0.0262743
0.0263765
0.0264607
0.0265192
0.0264287
0.0259014
0.024797
0.025627
0.02534
0.0251422
0.0250825
0.0251524
0.0253078
0.0254915
0.0256491
0.0257461
0.0257753
0.0257476
0.0256507
0.0254683
0.0250064
0.0239836
0.0203296
0.0260289
0.0258125
0.0257099
0.0257532
0.0259096
0.0261253
0.0263491
0.0265504
0.0267225
0.026873
0.0270159
0.0271536
0.0272723
0.0273496
0.0273795
0.0273483
0.0260488
0.0257818
0.0256344
0.02565
0.0258004
0.0260319
0.0262869
0.0265261
0.0267359
0.0269182
0.0270997
0.0272662
0.0274048
0.0274781
0.0274736
0.0273801
0.0260259
0.02573
0.0255459
0.0255383
0.02569
0.025945
0.0262378
0.0265196
0.0267722
0.0270038
0.027217
0.0274269
0.0276073
0.027698
0.0276646
0.027496
0.0259901
0.0256874
0.0254875
0.0254641
0.0256117
0.0258767
0.0261898
0.0264955
0.02677
0.0270208
0.0272621
0.0275044
0.0277219
0.0278341
0.0277699
0.0275092
0.0259522
0.0256515
0.0254514
0.0254192
0.0255549
0.0258103
0.0261191
0.0264232
0.026694
0.0269394
0.0271772
0.0274189
0.0276429
0.0277538
0.0276315
0.027248
0.0258946
0.0256076
0.025406
0.0253706
0.0254911
0.0257228
0.0260047
0.0262795
0.0265224
0.0267273
0.0269211
0.0271143
0.027291
0.0273435
0.0270866
0.0265104
0.0258043
0.0255195
0.0253277
0.0252826
0.0253826
0.0255817
0.0258221
0.0260498
0.0262282
0.0263617
0.0264672
0.0265502
0.0265998
0.0264894
0.0259314
0.0247911
0.0256741
0.0253873
0.0251904
0.0251333
0.0252074
0.0253675
0.0255561
0.0257187
0.0258205
0.0258537
0.0258277
0.0257284
0.0255351
0.0250512
0.0239714
0.020263
0.0245153
0.0245157
0.0245509
0.024588
0.0245953
0.0245458
0.0244189
0.0242002
0.0238806
0.0234527
0.0229089
0.0222396
0.0214327
0.0204792
0.0193721
0.0181371
0.0245112
0.0245128
0.0245571
0.0246049
0.0246218
0.0245796
0.0244574
0.0242415
0.0239235
0.0234971
0.0229555
0.0222897
0.0214877
0.0205411
0.0194382
0.0182087
0.0244848
0.0244823
0.0245376
0.0246046
0.0246421
0.0246169
0.0245062
0.0242965
0.0239811
0.0235556
0.0230162
0.0223549
0.0215604
0.0206273
0.0195375
0.0183264
0.024443
0.0244287
0.0244866
0.0245691
0.0246275
0.0246221
0.0245259
0.0243247
0.0240129
0.0235887
0.0230491
0.0223903
0.0216016
0.0206804
0.0196045
0.0184133
0.0243924
0.0243634
0.0244157
0.024506
0.02458
0.0245916
0.0245092
0.0243165
0.0240084
0.0235847
0.0230449
0.0223869
0.0216017
0.0206894
0.0196261
0.0184528
0.0243371
0.024295
0.0243389
0.024431
0.0245142
0.0245377
0.0244655
0.0242793
0.0239737
0.0235495
0.0230082
0.0223497
0.0215666
0.0206616
0.0196115
0.0184576
0.0242801
0.0242287
0.0242651
0.0243559
0.0244432
0.0244729
0.0244062
0.024223
0.0239174
0.0234913
0.0229473
0.0222872
0.0215059
0.0206079
0.0195734
0.0184417
0.0242245
0.0241684
0.0241999
0.0242885
0.0243759
0.0244067
0.0243405
0.0241562
0.0238481
0.0234183
0.0228707
0.0222088
0.0214298
0.0205395
0.0195239
0.0184182
0.0245045
0.0244837
0.0245052
0.0245359
0.0245426
0.0244959
0.0243722
0.0241562
0.0238376
0.0234088
0.0228619
0.0221872
0.0213719
0.0204075
0.0192841
0.0180348
0.0244944
0.0244649
0.0244873
0.0245229
0.0245371
0.0244981
0.0243809
0.0241696
0.0238541
0.0234273
0.0228817
0.0222093
0.0213973
0.0204386
0.0193199
0.0180806
0.0244611
0.0244185
0.0244432
0.0244926
0.0245257
0.0245048
0.0244013
0.0241985
0.0238875
0.0234633
0.0229209
0.0222529
0.0214468
0.0205017
0.0193922
0.0181723
0.024418
0.0243574
0.0243774
0.0244374
0.0244894
0.0244885
0.0244013
0.0242088
0.0239034
0.0234815
0.02294
0.022275
0.0214745
0.0205406
0.0194436
0.0182422
0.0243698
0.0242905
0.0242998
0.0243634
0.0244289
0.0244449
0.0243726
0.0241908
0.0238906
0.0234709
0.0229303
0.0222672
0.0214707
0.0205463
0.0194615
0.018278
0.0243185
0.0242236
0.0242206
0.0242829
0.024356
0.0243838
0.0243227
0.0241486
0.0238526
0.023434
0.0228934
0.0222311
0.021438
0.0205221
0.0194518
0.0182884
0.0242633
0.0241586
0.0241464
0.0242057
0.0242818
0.0243157
0.0242608
0.0240908
0.0237963
0.0233772
0.0228352
0.022173
0.0213835
0.0204764
0.0194243
0.0182849
0.0242078
0.024099
0.0240815
0.0241378
0.0242138
0.024249
0.0241952
0.0240251
0.0237291
0.0233074
0.0227634
0.0221009
0.0213157
0.0204188
0.0193891
0.0182781
0.0244981
0.0244502
0.024454
0.0244782
0.0244876
0.0244488
0.0243353
0.0241297
0.0238207
0.0233998
0.0228575
0.0221813
0.0213525
0.0203561
0.0191687
0.0178296
0.024483
0.0244203
0.0244198
0.0244468
0.0244641
0.0244349
0.0243303
0.0241318
0.023828
0.0234108
0.0228717
0.0221992
0.0213741
0.0203853
0.0192011
0.0178772
0.0244384
0.0243548
0.0243505
0.0243888
0.024426
0.0244178
0.0243304
0.0241437
0.023847
0.0234346
0.0228991
0.0222319
0.0214137
0.0204387
0.019262
0.0179584
0.0243862
0.0242794
0.024263
0.0243082
0.0243642
0.0243784
0.0243103
0.024137
0.0238482
0.0234397
0.0229072
0.0222443
0.0214319
0.0204685
0.0192997
0.0180132
0.0243323
0.024204
0.0241707
0.0242148
0.0242829
0.0243152
0.0242645
0.024104
0.0238228
0.0234182
0.0228878
0.0222276
0.0214194
0.0204657
0.0193073
0.0180391
0.0242761
0.0241334
0.0240822
0.0241208
0.0241946
0.0242394
0.0242016
0.0240507
0.023775
0.0233728
0.0228429
0.0221839
0.0213795
0.0204354
0.019293
0.0180485
0.0242199
0.024066
0.0240037
0.0240363
0.0241116
0.0241615
0.0241305
0.0239849
0.0237117
0.0233093
0.0227783
0.0221195
0.0213193
0.020386
0.0192668
0.0180531
0.0241647
0.0240046
0.0239352
0.0239634
0.0240377
0.0240891
0.0240596
0.0239144
0.0236397
0.0232348
0.0227015
0.0220424
0.0212474
0.0203266
0.0192379
0.018062
0.0245146
0.024438
0.0244205
0.0244375
0.0244509
0.0244236
0.0243258
0.024138
0.0238478
0.0234453
0.0229181
0.0222487
0.0214074
0.0203631
0.0190654
0.0175487
0.0244985
0.0244022
0.0243768
0.0243952
0.024417
0.024401
0.0243144
0.0241361
0.0238534
0.0234569
0.0229362
0.0222729
0.0214379
0.0204037
0.0191091
0.0176145
0.0244442
0.0243204
0.0242861
0.0243134
0.0243557
0.0243634
0.0242974
0.0241342
0.0238613
0.0234726
0.0229573
0.0223019
0.0214758
0.020457
0.0191651
0.017687
0.0243818
0.0242321
0.0241788
0.0242084
0.0242687
0.0243005
0.0242567
0.0241099
0.0238478
0.0234647
0.0229543
0.0223045
0.0214847
0.0204766
0.0191858
0.0177202
0.0243204
0.0241479
0.0240725
0.024096
0.0241659
0.0242159
0.0241913
0.0240594
0.0238066
0.0234288
0.0229212
0.0222743
0.0214585
0.0204593
0.0191758
0.0177296
0.02426
0.0240743
0.0239747
0.0239888
0.0240615
0.0241226
0.0241117
0.0239906
0.0237441
0.0233689
0.0228616
0.0222153
0.0214028
0.0204141
0.0191486
0.0177342
0.0241991
0.0240028
0.0238932
0.023895
0.0239662
0.0240323
0.0240276
0.0239118
0.0236676
0.0232916
0.022782
0.0221345
0.0213256
0.0203498
0.0191149
0.0177462
0.024139
0.0239373
0.0238189
0.0238158
0.0238845
0.0239507
0.0239471
0.0238312
0.0235846
0.0232045
0.0226904
0.0220405
0.0212358
0.0202754
0.0190826
0.017772
0.024562
0.0244565
0.0244163
0.0244249
0.0244428
0.0244291
0.0243513
0.0241875
0.0239245
0.0235505
0.0230523
0.0224026
0.0215573
0.0204556
0.0190074
0.0172036
0.0245471
0.0244173
0.0243647
0.0243722
0.0243979
0.0243969
0.0243323
0.0241804
0.0239273
0.0235631
0.0230722
0.0224309
0.0215949
0.0205068
0.0190644
0.0172865
0.0244869
0.0243252
0.0242573
0.0242691
0.0243141
0.024338
0.0242968
0.0241632
0.0239227
0.0235684
0.0230867
0.0224556
0.0216301
0.0205535
0.0191053
0.0173249
0.024417
0.0242285
0.024136
0.0241442
0.024204
0.0242519
0.0242346
0.0241198
0.0238928
0.0235459
0.0230708
0.0224459
0.0216261
0.0205541
0.0190967
0.0173138
0.0243494
0.0241407
0.0240219
0.0240179
0.0240828
0.0241469
0.0241491
0.0240502
0.0238336
0.0234929
0.0230209
0.0223983
0.0215814
0.0205145
0.0190599
0.017297
0.0242842
0.0240642
0.0239203
0.0239021
0.0239651
0.0240373
0.0240519
0.0239639
0.0237533
0.0234146
0.0229418
0.022318
0.0215034
0.0204468
0.0190139
0.0172997
0.0242185
0.0239899
0.0238358
0.0238018
0.0238594
0.0239338
0.023953
0.0238689
0.0236593
0.0233179
0.0228402
0.0222122
0.0213997
0.0203595
0.0189681
0.0173317
0.0241525
0.0239198
0.0237568
0.0237161
0.0237688
0.0238413
0.0238598
0.0237739
0.0235598
0.0232111
0.0227249
0.0220903
0.0212795
0.0202596
0.0189261
0.0173915
0.0246437
0.0245123
0.024451
0.0244518
0.0244751
0.0244774
0.0244231
0.0242891
0.0240614
0.0237288
0.023275
0.0226658
0.0218379
0.020683
0.0190452
0.0167888
0.0246312
0.0244711
0.0243927
0.0243892
0.0244191
0.0244348
0.0243959
0.0242762
0.0240608
0.0237399
0.0232963
0.0226974
0.0218804
0.0207341
0.0190875
0.0167948
0.024569
0.0243745
0.0242743
0.0242695
0.024316
0.0243568
0.0243433
0.0242446
0.0240451
0.0237366
0.0233052
0.0227185
0.0219114
0.0207573
0.019073
0.016677
0.0244955
0.0242748
0.0241466
0.0241318
0.0241886
0.0242514
0.0242623
0.0241839
0.0239993
0.0237005
0.0232774
0.0226973
0.0218942
0.0207265
0.0190086
0.0165376
0.0244251
0.0241891
0.0240319
0.0239993
0.0240553
0.0241306
0.0241592
0.0240966
0.023923
0.0236304
0.0232104
0.0226312
0.0218297
0.0206566
0.0189346
0.0164562
0.0243564
0.0241117
0.023932
0.0238812
0.0239297
0.0240084
0.0240463
0.0239933
0.0238238
0.0235314
0.0231084
0.022525
0.0217246
0.0205594
0.0188687
0.0164571
0.0242864
0.0240356
0.0238465
0.023778
0.0238168
0.0238933
0.0239328
0.0238801
0.0237091
0.0234103
0.0229778
0.0223848
0.0215842
0.0204401
0.0188147
0.0165484
0.0242142
0.0239605
0.0237632
0.0236862
0.0237172
0.0237886
0.0238241
0.0237667
0.0235873
0.023276
0.022828
0.0222201
0.0214158
0.0203008
0.0187706
0.0167301
0.0247595
0.0246066
0.0245279
0.0245233
0.0245542
0.0245753
0.0245487
0.02445
0.0242656
0.0239882
0.0236006
0.0230662
0.0223064
0.0211576
0.0193298
0.0163914
0.0247503
0.0245653
0.0244641
0.0244516
0.0244877
0.0245227
0.0245134
0.0244316
0.0242628
0.0239991
0.0236247
0.0231039
0.0223572
0.0211995
0.019284
0.0160161
0.0246892
0.0244675
0.0243407
0.0243213
0.0243705
0.0244299
0.0244474
0.0243892
0.0242394
0.023991
0.0236332
0.0231297
0.022396
0.0212072
0.0191719
0.0154736
0.0246161
0.0243704
0.0242136
0.024179
0.0242333
0.0243118
0.0243529
0.0243158
0.0241823
0.0239456
0.023599
0.0231058
0.0223795
0.0211593
0.0190455
0.0150468
0.024546
0.02429
0.0241044
0.024048
0.0240959
0.0241818
0.0242376
0.0242151
0.0240917
0.023861
0.0235179
0.0230261
0.0223039
0.0210693
0.0189467
0.0148253
0.024476
0.0242151
0.0240101
0.0239334
0.0239686
0.0240523
0.0241116
0.024096
0.0239743
0.0237409
0.0233917
0.0228918
0.0221705
0.0209404
0.0188742
0.0147981
0.0244023
0.0241374
0.0239258
0.0238306
0.023852
0.0239286
0.023987
0.0239648
0.0238363
0.0235907
0.0232246
0.0227051
0.0219782
0.0207669
0.0188174
0.0149651
0.0243233
0.0240564
0.0238377
0.0237328
0.0237435
0.0238106
0.0238596
0.0238289
0.0236864
0.0234199
0.0230266
0.0224746
0.0217271
0.0205336
0.0187632
0.0153797
0.0249054
0.0247353
0.0246435
0.0246373
0.0246792
0.0247225
0.0247274
0.0246696
0.0245371
0.0243272
0.0240293
0.0236156
0.0230159
0.0220644
0.0203688
0.0170448
0.0249001
0.0246949
0.0245757
0.024558
0.0246032
0.0246606
0.0246848
0.0246467
0.0245335
0.02434
0.0240593
0.0236654
0.0230892
0.0221389
0.0202924
0.0161835
0.0248426
0.0245995
0.0244521
0.0244226
0.0244775
0.0245584
0.0246105
0.024598
0.0245055
0.0243327
0.024075
0.0237095
0.0231649
0.0222083
0.0201969
0.0152464
0.0247728
0.0245089
0.0243312
0.0242826
0.0243381
0.0244349
0.0245093
0.0245183
0.0244438
0.0242844
0.0240427
0.0236971
0.0231769
0.0222152
0.020123
0.014612
0.0247051
0.0244343
0.0242312
0.0241592
0.0242036
0.0243029
0.0243884
0.0244096
0.0243442
0.02419
0.0239526
0.0236127
0.0231069
0.0221508
0.020076
0.0143062
0.0246357
0.0243648
0.0241449
0.0240523
0.0240802
0.0241716
0.0242561
0.0242786
0.0242108
0.0240498
0.023802
0.0234501
0.0229453
0.022
0.0200227
0.0142442
0.0245588
0.0242854
0.0240626
0.0239519
0.0239627
0.0240414
0.0241171
0.0241291
0.024048
0.0238668
0.0235913
0.0232045
0.0226785
0.0217308
0.019919
0.0143531
0.0244723
0.0241976
0.023969
0.0238481
0.0238452
0.0239099
0.0239712
0.0239674
0.0238642
0.0236508
0.023331
0.0228814
0.0222918
0.0212714
0.0196782
0.014551
0.0245463
0.0242639
0.0240284
0.0238953
0.0238766
0.0239282
0.023983
0.0239789
0.0238785
0.0236684
0.023353
0.0229053
0.0223251
0.0212988
0.0197492
0.0146159
0.0244401
0.0241526
0.0239123
0.023776
0.0237526
0.0237936
0.0238297
0.0237977
0.023659
0.0233971
0.0230083
0.0224563
0.0217113
0.0205016
0.0187133
0.0152928
0.0243437
0.0240508
0.0238089
0.0236769
0.0236567
0.0236932
0.023714
0.0236565
0.0234831
0.0231781
0.0227341
0.0221255
0.0213132
0.0201833
0.0186012
0.0165709
0.0242717
0.0239766
0.0237411
0.0236234
0.0236135
0.0236488
0.0236552
0.0235732
0.0233686
0.0230291
0.022548
0.0219156
0.0210951
0.0200711
0.0186951
0.0171747
0.0242369
0.0239477
0.0237314
0.0236366
0.0236384
0.0236695
0.023658
0.0235499
0.0233162
0.0229482
0.022442
0.0217986
0.0209895
0.0200338
0.0188172
0.0175115
0.0242427
0.0239736
0.0237895
0.023719
0.0237256
0.0237438
0.0237084
0.0235726
0.0233125
0.0229222
0.0223999
0.0217514
0.0209585
0.0200476
0.0189513
0.0177799
0.0242716
0.0240402
0.0238963
0.0238481
0.0238538
0.0238546
0.0237941
0.0236336
0.0233535
0.0229491
0.0224202
0.0217727
0.0209962
0.0201131
0.0190866
0.0179832
0.0242743
0.0240888
0.0239826
0.0239575
0.0239701
0.0239647
0.0238918
0.0237187
0.0234296
0.0230209
0.0224932
0.0218505
0.0210854
0.0202119
0.019204
0.0181088
0.0247293
0.0244429
0.0242094
0.0240788
0.0240618
0.0241179
0.0241841
0.0242002
0.0241289
0.023958
0.0236947
0.0233143
0.0228107
0.0218425
0.0201197
0.0143717
0.0246069
0.0243142
0.0240728
0.0239348
0.023909
0.0239507
0.0239937
0.0239755
0.0238567
0.0236202
0.0232623
0.0227415
0.0220187
0.0207629
0.0187833
0.0147739
0.0244929
0.0241926
0.023945
0.0238061
0.02378
0.0238151
0.0238408
0.0237935
0.0236336
0.0233439
0.0229158
0.0223172
0.0215014
0.0203176
0.0186075
0.0163119
0.0244032
0.0240982
0.0238518
0.0237228
0.0237054
0.0237396
0.0237512
0.023678
0.0234834
0.0231531
0.022679
0.0220477
0.0212154
0.020156
0.0186924
0.0170586
0.024353
0.0240511
0.0238197
0.0237116
0.0237067
0.0237389
0.0237343
0.023635
0.0234092
0.0230469
0.0225427
0.0218966
0.0210732
0.0200928
0.0188121
0.0174377
0.0243472
0.0240633
0.0238625
0.0237797
0.0237824
0.0238045
0.0237773
0.0236502
0.0233966
0.0230095
0.0224864
0.0218331
0.0210258
0.0200953
0.0189533
0.0177336
0.0243688
0.0241221
0.0239636
0.0239069
0.0239121
0.0239187
0.0238669
0.0237144
0.0234395
0.023037
0.0225061
0.0218532
0.021064
0.0201645
0.0191044
0.0179634
0.0243678
0.0241696
0.0240526
0.0240229
0.0240378
0.0240395
0.0239752
0.0238093
0.0235246
0.0231175
0.0225883
0.021941
0.0211655
0.0202774
0.0192404
0.01811
0.0249152
0.0246264
0.0243976
0.0242756
0.024267
0.0243328
0.0244129
0.0244486
0.0244032
0.0242645
0.0240397
0.0237001
0.0232251
0.0222295
0.0203215
0.0140644
0.024777
0.0244808
0.0242414
0.0241077
0.0240859
0.0241329
0.0241846
0.0241796
0.0240778
0.0238611
0.0235251
0.0230208
0.0222981
0.0209767
0.0188292
0.0144117
0.0246457
0.0243399
0.0240903
0.0239505
0.0239241
0.0239614
0.0239929
0.0239547
0.0238058
0.0235273
0.0231093
0.0225133
0.0216847
0.0204422
0.018615
0.0161052
0.0245386
0.0242259
0.0239731
0.0238382
0.0238175
0.023853
0.02387
0.0238044
0.0236175
0.0232934
0.0228227
0.0221883
0.0213402
0.0202419
0.0186965
0.01696
0.0244731
0.0241613
0.0239193
0.0238024
0.0237938
0.0238284
0.0238303
0.0237386
0.0235189
0.02316
0.0226555
0.0220041
0.0211649
0.0201581
0.0188182
0.0173811
0.0244557
0.02416
0.0239466
0.0238551
0.0238557
0.0238822
0.0238627
0.0237432
0.0234947
0.0231093
0.0225837
0.0219242
0.021102
0.0201514
0.018967
0.0177025
0.02447
0.0242111
0.0240413
0.0239785
0.0239845
0.0239971
0.0239536
0.0238082
0.0235374
0.0231356
0.0226016
0.0219423
0.0211401
0.020224
0.0191322
0.0179557
0.0244655
0.0242572
0.0241322
0.0241
0.0241183
0.0241274
0.0240714
0.023912
0.0236308
0.023224
0.0226921
0.0220393
0.0212528
0.0203498
0.019285
0.0181212
0.0250921
0.0248015
0.0245783
0.024468
0.0244721
0.0245509
0.024646
0.0246999
0.0246759
0.024561
0.0243606
0.0240395
0.0235629
0.0225081
0.0204207
0.013743
0.0249395
0.0246403
0.0244043
0.0242784
0.0242648
0.0243202
0.0243819
0.0243889
0.0243007
0.024098
0.0237745
0.023274
0.0225365
0.0211446
0.0188488
0.0141245
0.0247911
0.0244816
0.0242323
0.0240952
0.0240724
0.0241146
0.0241529
0.0241228
0.0239822
0.023711
0.0232973
0.0226971
0.0218494
0.0205495
0.0186188
0.0159415
0.0246684
0.0243498
0.0240933
0.0239564
0.0239358
0.0239745
0.0239973
0.0239383
0.023757
0.0234364
0.0229655
0.0223245
0.0214579
0.0203213
0.0187034
0.0168804
0.0245886
0.0242692
0.02402
0.0238977
0.023888
0.0239261
0.0239343
0.023849
0.0236338
0.0232765
0.0227696
0.0221112
0.0212553
0.0202227
0.0188307
0.0173392
0.0245603
0.0242556
0.024033
0.0239356
0.0239358
0.0239669
0.0239547
0.0238418
0.0235972
0.0232122
0.022683
0.0220163
0.0211794
0.0202094
0.0189875
0.0176834
0.0245681
0.0242994
0.0241211
0.0240544
0.0240621
0.0240809
0.024045
0.0239059
0.0236384
0.0232363
0.0226985
0.0220323
0.0212173
0.0202853
0.019165
0.0179564
0.0245603
0.0243442
0.0242136
0.0241803
0.0242027
0.0242192
0.0241709
0.0240173
0.0237388
0.0233316
0.0227962
0.0221372
0.0213397
0.0204224
0.0193322
0.018138
0.0252486
0.0249568
0.0247391
0.0246407
0.0246586
0.0247514
0.024861
0.0249307
0.0249233
0.0248244
0.0246371
0.0243197
0.0238259
0.0227038
0.0204608
0.0134499
0.0250834
0.0247821
0.0245496
0.0244324
0.0244287
0.0244939
0.0245656
0.024583
0.0245049
0.0243109
0.0239926
0.0234874
0.0227279
0.0212685
0.0188483
0.0138915
0.02492
0.024608
0.0243598
0.0242272
0.0242099
0.0242584
0.0243035
0.0242804
0.0241458
0.0238783
0.0234647
0.022856
0.0219866
0.0206344
0.0186176
0.0158129
0.0247838
0.0244609
0.0242024
0.0240657
0.0240472
0.0240901
0.0241185
0.0240651
0.0238877
0.0235683
0.023095
0.0224452
0.0215598
0.0203884
0.0187101
0.0168183
0.0246917
0.0243665
0.0241124
0.0239873
0.023978
0.02402
0.024034
0.0239542
0.0237422
0.023385
0.0228746
0.0222082
0.0213365
0.0202804
0.018845
0.0173087
0.024654
0.0243424
0.0241131
0.0240119
0.0240127
0.0240484
0.0240427
0.0239354
0.0236937
0.0233083
0.0227752
0.0221011
0.0212506
0.0202632
0.0190098
0.0176725
0.0246561
0.0243799
0.0241954
0.0241263
0.0241362
0.0241607
0.0241316
0.0239978
0.0237328
0.02333
0.0227882
0.0221153
0.0212885
0.0203422
0.0191978
0.0179618
0.0246455
0.0244235
0.0242889
0.0242557
0.0242822
0.0243055
0.0242642
0.0241156
0.0238392
0.0234311
0.022892
0.0222269
0.0214191
0.0204886
0.0193766
0.0181563
0.0253751
0.0250826
0.0248695
0.0247818
0.0248124
0.0249179
0.0250402
0.0251224
0.0251267
0.0250377
0.024856
0.0245346
0.0240189
0.0228366
0.0204738
0.0132192
0.0251999
0.0248971
0.0246679
0.0245588
0.0245646
0.0246391
0.0247196
0.0247452
0.0246743
0.0244849
0.0241672
0.0236536
0.0228712
0.0213549
0.0188395
0.0137161
0.0250249
0.0247109
0.0244641
0.0243362
0.0243249
0.0243796
0.0244309
0.0244132
0.0242826
0.0240164
0.0236005
0.0229819
0.0220921
0.0206969
0.0186142
0.0157189
0.0248771
0.0245515
0.0242922
0.0241568
0.0241413
0.0241885
0.0242218
0.0241727
0.0239979
0.0236784
0.0232015
0.0225428
0.0216407
0.0204407
0.0187162
0.0167736
0.0247756
0.0244463
0.0241892
0.0240629
0.0240548
0.0241005
0.0241194
0.0240439
0.0238341
0.0234763
0.0229621
0.0222882
0.0214029
0.0203274
0.0188586
0.017288
0.0247303
0.0244138
0.0241801
0.0240768
0.0240787
0.0241185
0.0241181
0.0240152
0.0237755
0.0233893
0.0228524
0.0221717
0.02131
0.020308
0.0190303
0.017667
0.024728
0.0244464
0.0242577
0.0241873
0.0241994
0.0242287
0.0242052
0.0240758
0.0238126
0.0234088
0.0228633
0.0221845
0.0213481
0.0203898
0.0192264
0.0179689
0.0247153
0.0244891
0.0243519
0.0243193
0.0243495
0.0243785
0.0243429
0.0241984
0.0239235
0.0235144
0.0229719
0.0223013
0.0214848
0.0205433
0.019414
0.018173
0.0254637
0.0251711
0.0249614
0.024882
0.0249233
0.0250395
0.025172
0.0252636
0.025276
0.0251926
0.0250126
0.0246855
0.0241513
0.022926
0.0204832
0.013074
0.0252816
0.0249782
0.0247515
0.0246489
0.0246631
0.0247459
0.0248339
0.024866
0.0247999
0.0246129
0.0242939
0.0237723
0.0229715
0.0214142
0.0188337
0.0136036
0.0250986
0.0247835
0.0245381
0.0244146
0.0244091
0.0244698
0.0245266
0.0245133
0.0243854
0.0241195
0.0237006
0.0230736
0.0221676
0.020741
0.0186131
0.0156602
0.0249426
0.0246156
0.0243565
0.0242232
0.0242113
0.0242629
0.0243006
0.024255
0.0240818
0.0237616
0.0232814
0.0226152
0.0217003
0.0204796
0.018724
0.0167489
0.0248347
0.0245032
0.0242447
0.0241188
0.024113
0.0241624
0.0241854
0.0241131
0.0239047
0.023546
0.0230284
0.0223484
0.0214531
0.0203636
0.0188724
0.0172787
0.0247842
0.0244651
0.0242292
0.0241255
0.0241292
0.0241727
0.0241764
0.0240767
0.0238383
0.0234512
0.0229111
0.0222253
0.0213552
0.0203428
0.0190484
0.0176669
0.024779
0.0244943
0.0243036
0.0242332
0.0242474
0.0242807
0.0242613
0.0241348
0.0238727
0.023468
0.0229197
0.0222363
0.0213928
0.0204257
0.0192492
0.0179765
0.0247646
0.0245361
0.0243978
0.024366
0.0243992
0.0244324
0.024401
0.0242593
0.0239854
0.0235753
0.0230301
0.0223553
0.0215325
0.020583
0.0194417
0.0181861
0.0255081
0.0252155