/*--------------------------------*- C++ -*----------------------------------*\
| =========                 |                                                 |
| \\      /  F ield         | foam-extend: Open Source CFD                    |
|  \\    /   O peration     | Version:     3.1                                |
|   \\  /    A nd           | Web:         http://www.extend-project.de       |
|    \\/     M anipulation  |                                                 |
\*---------------------------------------------------------------------------*/
FoamFile
{
    version     2.0;
    format      ascii;
    class       surfaceScalarField;
    location    "1.8";
    object      phi;
}
// * * * * * * * * * * * * * * * * * * * * * * * * * * * * * * * * * * * * * //

dimensions      [0 3 -1 0 0 0 0];

internalField   nonuniform List<scalar> 
41600
(
1.17213e-05
1.07673e-07
-1.2177e-06
1.19945e-06
1.15442e-05
1.62688e-07
-2.84685e-06
2.86126e-06
1.15505e-05
-4.55006e-08
-4.16763e-06
4.20684e-06
1.18542e-05
-3.35962e-07
-5.18303e-06
5.21534e-06
1.23931e-05
-5.38905e-07
-5.89156e-06
5.89153e-06
1.3019e-05
-5.83822e-07
-6.36124e-06
6.31919e-06
1.35848e-05
-4.85782e-07
-6.70987e-06
6.62987e-06
1.39918e-05
-3.01325e-07
-7.0779e-06
6.97223e-06
1.41957e-05
-8.93706e-08
-7.61087e-06
7.49632e-06
1.42173e-05
7.95907e-08
-8.45484e-06
8.35363e-06
1.41057e-05
1.65253e-07
-9.77104e-06
9.71741e-06
1.3932e-05
1.08354e-07
-1.17505e-05
1.18158e-05
1.37282e-05
-1.66243e-07
-1.46316e-05
1.50017e-05
1.31708e-05
-6.76915e-07
-1.85338e-05
1.97681e-05
1.0401e-05
-1.00593e-06
-2.23585e-05
2.61343e-05
-1.0611e-07
-1.87206e-05
2.93665e-05
3.29846e-05
2.33366e-07
-1.41573e-06
1.45185e-06
3.27867e-05
1.5698e-07
-4.67547e-06
4.87909e-06
3.28598e-05
-4.67589e-07
-7.99889e-06
8.34785e-06
3.33719e-05
-1.24597e-06
-1.08534e-05
1.12514e-05
3.4261e-05
-1.78271e-06
-1.29453e-05
1.33e-05
3.53006e-05
-1.88373e-06
-1.42801e-05
1.45403e-05
3.62272e-05
-1.5708e-06
-1.50748e-05
1.52333e-05
3.68321e-05
-9.8516e-07
-1.56557e-05
1.57346e-05
3.69915e-05
-2.85484e-07
-1.63815e-05
1.64182e-05
3.66656e-05
3.63358e-07
-1.7612e-05
1.76542e-05
3.58324e-05
8.85043e-07
-1.97024e-05
1.98158e-05
3.44444e-05
1.18561e-06
-2.30476e-05
2.33583e-05
3.22717e-05
1.17048e-06
-2.81139e-05
2.89499e-05
2.83216e-05
7.75542e-07
-3.51154e-05
3.7613e-05
1.9613e-05
1.10442e-07
-4.15888e-05
4.9181e-05
-1.05811e-07
-3.26192e-05
5.26374e-05
5.13937e-05
2.35568e-07
-9.80483e-07
1.01866e-06
5.1115e-05
1.35293e-07
-4.0921e-06
4.39249e-06
5.08123e-05
-7.49139e-07
-8.06988e-06
8.65412e-06
5.07327e-05
-1.91193e-06
-1.20937e-05
1.28392e-05
5.09868e-05
-2.78384e-06
-1.54441e-05
1.61911e-05
5.14822e-05
-3.01345e-06
-1.77969e-05
1.84312e-05
5.19952e-05
-2.56361e-06
-1.92235e-05
1.97033e-05
5.22802e-05
-1.61153e-06
-2.00674e-05
2.04088e-05
5.21328e-05
-3.89965e-07
-2.08005e-05
2.10524e-05
5.14161e-05
8.51115e-07
-2.19297e-05
2.21586e-05
4.99955e-05
2.01434e-06
-2.39502e-05
2.42415e-05
4.76755e-05
3.00164e-06
-2.73867e-05
2.78907e-05
4.40231e-05
3.74004e-06
-3.28553e-05
3.39381e-05
3.76297e-05
4.14164e-06
-4.08264e-05
4.38537e-05
2.4925e-05
3.61012e-06
-4.86462e-05
5.78513e-05
9.11568e-07
-3.81761e-05
6.27924e-05
6.67292e-05
1.7265e-07
-6.66586e-07
6.74051e-07
6.64072e-05
1.86225e-07
-3.03796e-06
3.30902e-06
6.56668e-05
-6.62542e-07
-6.72383e-06
7.37767e-06
6.472e-05
-1.90581e-06
-1.1108e-05
1.20487e-05
6.38451e-05
-2.93398e-06
-1.5272e-05
1.6297e-05
6.31855e-05
-3.28161e-06
-1.85336e-05
1.94614e-05
6.26936e-05
-2.80983e-06
-2.06761e-05
2.14142e-05
6.21922e-05
-1.65615e-06
-2.19161e-05
2.24621e-05
6.14662e-05
-7.43027e-08
-2.27379e-05
2.31482e-05
6.02891e-05
1.67924e-06
-2.37449e-05
2.40939e-05
5.84336e-05
3.47818e-06
-2.55268e-05
2.59185e-05
5.55772e-05
5.25619e-06
-2.87052e-05
2.93071e-05
5.11547e-05
6.98373e-06
-3.39962e-05
3.5175e-05
4.34488e-05
8.65021e-06
-4.21577e-05
4.5355e-05
2.832e-05
8.9426e-06
-5.07851e-05
6.05815e-05
3.43451e-06
-4.04615e-05
6.73395e-05
7.89579e-05
9.91286e-08
-5.29302e-07
5.10476e-07
7.86672e-05
2.82544e-07
-2.27962e-06
2.47397e-06
7.76821e-05
-2.94231e-07
-5.39779e-06
6.01456e-06
7.60616e-05
-1.28969e-06
-9.64923e-06
1.06537e-05
7.41301e-05
-2.18395e-06
-1.4168e-05
1.53494e-05
7.22285e-05
-2.5027e-06
-1.80512e-05
1.9174e-05
7.05335e-05
-2.0321e-06
-2.07971e-05
2.17143e-05
6.90212e-05
-8.24068e-07
-2.24324e-05
2.31126e-05
6.75459e-05
9.07326e-07
-2.33936e-05
2.38873e-05
6.58498e-05
2.97408e-06
-2.43012e-05
2.47025e-05
6.36485e-05
5.25757e-06
-2.58337e-05
2.62556e-05
6.05198e-05
7.76314e-06
-2.86761e-05
2.92979e-05
5.57998e-05
1.05242e-05
-3.35943e-05
3.47739e-05
4.75083e-05
1.37642e-05
-4.15982e-05
4.47757e-05
3.08335e-05
1.57361e-05
-5.06695e-05
6.05508e-05
7.72433e-06
-4.09289e-05
6.89748e-05
8.80922e-05
4.88891e-08
-4.76048e-07
4.43401e-07
8.78644e-05
3.82047e-07
-1.85349e-06
1.98183e-06
8.68106e-05
2.11179e-07
-4.4803e-06
5.02872e-06
8.48287e-05
-3.0763e-07
-8.44128e-06
9.44112e-06
8.21849e-05
-7.96322e-07
-1.30253e-05
1.42814e-05
7.93216e-05
-8.82988e-07
-1.72473e-05
1.8491e-05
7.65962e-05
-3.43695e-07
-2.03996e-05
2.14366e-05
7.41742e-05
8.30207e-07
-2.2325e-05
2.30927e-05
7.19946e-05
2.54466e-06
-2.33757e-05
2.39179e-05
6.98554e-05
4.69818e-06
-2.41761e-05
2.45911e-05
6.74514e-05
7.2515e-06
-2.54351e-05
2.58452e-05
6.4302e-05
1.03244e-05
-2.78751e-05
2.84632e-05
5.96776e-05
1.40368e-05
-3.22594e-05
3.33711e-05
5.13845e-05
1.90512e-05
-3.97894e-05
4.27955e-05
3.36361e-05
2.38858e-05
-4.89816e-05
5.85802e-05
1.47211e-05
-3.99406e-05
6.85388e-05
9.41677e-05
2.5279e-08
-4.4743e-07
4.08617e-07
9.3981e-05
4.86979e-07
-1.61877e-06
1.70053e-06
9.29586e-05
7.44241e-07
-3.91751e-06
4.40676e-06
9.08483e-05
8.28311e-07
-7.61134e-06
8.58573e-06
8.7845e-05
9.22066e-07
-1.21309e-05
1.34159e-05
8.44229e-05
1.22771e-06
-1.64833e-05
1.77948e-05
8.10596e-05
1.90934e-06
-1.98423e-05
2.09525e-05
7.80415e-05
3.02715e-06
-2.19188e-05
2.27399e-05
7.54284e-05
4.5918e-06
-2.29765e-05
2.35426e-05
7.309e-05
6.62756e-06
-2.36191e-05
2.40281e-05
7.07548e-05
9.2105e-06
-2.45521e-05
2.49284e-05
6.7956e-05
1.26087e-05
-2.64922e-05
2.70068e-05
6.39454e-05
1.70676e-05
-3.01387e-05
3.11185e-05
5.65101e-05
2.38531e-05
-3.67509e-05
3.93843e-05
3.84959e-05
3.30734e-05
-4.56738e-05
5.45004e-05
2.71185e-05
-3.71743e-05
6.57095e-05
9.72e-05
-4.18146e-07
3.7891e-07
1.77315e-08
9.70355e-05
-1.4765e-06
1.53616e-06
5.91788e-07
9.60659e-05
-3.59385e-06
4.04953e-06
1.2582e-06
9.39716e-05
-7.11345e-06
8.06514e-06
1.97087e-06
9.08964e-05
-1.15326e-05
1.2822e-05
2.70789e-06
8.73076e-05
-1.58753e-05
1.72132e-05
3.47853e-06
8.37375e-05
-1.9265e-05
2.04084e-05
4.33605e-06
8.05552e-05
-2.13426e-05
2.21878e-05
5.3643e-06
7.79004e-05
-2.23142e-05
2.28862e-05
6.6747e-06
7.57201e-05
-2.27433e-05
2.31358e-05
8.41541e-06
7.38211e-05
-2.32991e-05
2.3632e-05
1.07766e-05
7.1893e-05
-2.46347e-05
2.50475e-05
1.4124e-05
6.93211e-05
-2.73319e-05
2.81146e-05
1.88569e-05
6.4365e-05
-3.23714e-05
3.4306e-05
2.68745e-05
4.95172e-05
-4.05042e-05
4.74625e-05
4.09629e-05
-3.15074e-05
5.72768e-05
5.37949e-05
1.25184e-05
8.05123e-08
-1.17803e-06
1.22666e-05
1.14068e-07
-2.70917e-06
1.2163e-05
-1.15144e-07
-3.94881e-06
1.23347e-05
-4.3357e-07
-4.92123e-06
1.27263e-05
-6.61611e-07
-5.62155e-06
1.31842e-05
-7.16972e-07
-6.10211e-06
1.35479e-05
-6.10965e-07
-6.46263e-06
1.37022e-05
-4.04931e-07
-6.82725e-06
1.35851e-05
-1.68065e-07
-7.3257e-06
1.31867e-05
2.7332e-08
-8.08382e-06
1.25163e-05
1.27927e-07
-9.22854e-06
1.1568e-05
7.7568e-08
-1.08798e-05
1.02561e-05
-1.91047e-07
-1.31287e-05
8.21287e-06
-6.78506e-07
-1.58121e-05
4.56567e-06
-1.20131e-06
-1.751e-05
-1.42753e-06
-1.25863e-05
3.5265e-05
1.96873e-07
-1.32756e-06
3.49357e-05
8.36707e-08
-4.31577e-06
3.47979e-05
-6.02805e-07
-7.37338e-06
3.50323e-05
-1.46926e-06
-1.00522e-05
3.5592e-05
-2.09153e-06
-1.20751e-05
3.62501e-05
-2.23758e-06
-1.34176e-05
3.67269e-05
-1.91181e-06
-1.42508e-05
3.6787e-05
-1.26353e-06
-1.48572e-05
3.62716e-05
-4.75579e-07
-1.55587e-05
3.50943e-05
2.68376e-07
-1.66758e-05
3.31589e-05
8.6693e-07
-1.85059e-05
3.03016e-05
1.21788e-06
-2.13306e-05
2.61402e-05
1.21689e-06
-2.53605e-05
1.98202e-05
7.67938e-07
-3.02419e-05
1.00657e-05
-1.82512e-07
-3.2853e-05
-1.61855e-06
-2.19553e-05
5.497e-05
1.97108e-07
-9.11746e-07
5.45837e-05
7.29921e-08
-3.69515e-06
5.40614e-05
-8.77671e-07
-7.2727e-06
5.36418e-05
-2.16756e-06
-1.09759e-05
5.34486e-05
-3.18563e-06
-1.41567e-05
5.34064e-05
-3.51425e-06
-1.64781e-05
5.32957e-05
-3.07228e-06
-1.79523e-05
5.28541e-05
-2.03398e-06
-1.88553e-05
5.18422e-05
-6.62875e-07
-1.96013e-05
5.00678e-05
7.59002e-07
-2.06459e-05
4.7303e-05
2.09836e-06
-2.24169e-05
4.32121e-05
3.23878e-06
-2.53167e-05
3.71683e-05
4.08897e-06
-2.96836e-05
2.79153e-05
4.45966e-06
-3.52651e-05
1.38869e-05
3.58616e-06
-3.83865e-05
1.4861e-07
-2.53591e-05
7.13794e-05
1.31911e-07
-6.33995e-07
7.09925e-05
1.40485e-07
-2.71862e-06
7.00867e-05
-7.45422e-07
-5.95022e-06
6.88166e-05
-2.10655e-06
-9.89891e-06
6.7443e-05
-3.3005e-06
-1.37836e-05
6.61312e-05
-3.78462e-06
-1.69515e-05
6.48658e-05
-3.35163e-06
-1.91313e-05
6.3486e-05
-2.11539e-06
-2.04549e-05
6.17486e-05
-3.32216e-07
-2.13312e-05
5.93904e-05
1.65758e-06
-2.22853e-05
5.60693e-05
3.7401e-06
-2.38474e-05
5.13017e-05
5.81076e-06
-2.65096e-05
4.42766e-05
7.83699e-06
-3.07191e-05
3.33666e-05
9.6448e-06
-3.64329e-05
1.64805e-05
9.63563e-06
-3.99485e-05
3.71554e-06
-2.6496e-05
8.44567e-05
5.7981e-08
-5.1907e-07
8.4125e-05
2.47585e-07
-2.05505e-06
8.30428e-05
-3.34701e-07
-4.72627e-06
8.1168e-05
-1.40702e-06
-8.47399e-06
7.87573e-05
-2.43843e-06
-1.26193e-05
7.61499e-05
-2.88763e-06
-1.63408e-05
7.35688e-05
-2.46537e-06
-1.91023e-05
7.10382e-05
-1.18186e-06
-2.08353e-05
6.84366e-05
7.51108e-07
-2.18754e-05
6.54571e-05
3.11001e-06
-2.27741e-05
6.17199e-05
5.76473e-06
-2.41211e-05
5.66224e-05
8.7081e-06
-2.6476e-05
4.92151e-05
1.20071e-05
-3.03571e-05
3.74948e-05
1.57092e-05
-3.59423e-05
1.86487e-05
1.75328e-05
-3.97206e-05
9.31267e-06
-2.64224e-05
9.42219e-05
1.42974e-08
-4.7658e-07
9.39582e-05
3.55945e-07
-1.69816e-06
9.28544e-05
1.99737e-07
-3.91087e-06
9.06958e-05
-3.50799e-07
-7.33887e-06
8.76339e-05
-9.19628e-07
-1.14822e-05
8.40708e-05
-1.0887e-06
-1.54831e-05
8.04053e-05
-5.73002e-07
-1.86265e-05
7.6874e-05
6.84183e-07
-2.06597e-05
7.3473e-05
2.5982e-06
-2.18218e-05
6.99865e-05
5.06685e-06
-2.26464e-05
6.60235e-05
8.05157e-06
-2.3759e-05
6.09201e-05
1.16908e-05
-2.57544e-05
5.36516e-05
1.61918e-05
-2.91755e-05
4.18401e-05
2.21424e-05
-3.44111e-05
2.14701e-05
2.7246e-05
-3.83247e-05
1.8134e-05
-2.53972e-05
0.000100719
-2.29057e-09
-4.48909e-07
0.000100489
4.72058e-07
-1.50491e-06
9.94433e-05
7.50213e-07
-3.42232e-06
9.7215e-05
8.42344e-07
-6.57615e-06
9.38604e-05
9.19435e-07
-1.06154e-05
8.97767e-05
1.2169e-06
-1.47052e-05
8.54686e-05
1.92861e-06
-1.80358e-05
8.13091e-05
3.15223e-06
-2.02274e-05
7.74352e-05
4.91804e-06
-2.14225e-05
7.37394e-05
7.26883e-06
-2.21253e-05
6.989e-05
1.0309e-05
-2.29601e-05
6.52438e-05
1.43688e-05
-2.45239e-05
5.8804e-05
1.98206e-05
-2.73277e-05
4.79749e-05
2.81468e-05
-3.19263e-05
2.68793e-05
3.85315e-05
-3.58636e-05
3.35454e-05
-2.33477e-05
0.00010396
-4.20355e-07
1.96312e-09
0.000103748
-1.38406e-06
5.91823e-07
0.000102767
-3.13998e-06
1.27738e-06
0.000100594
-6.12218e-06
2.02401e-06
9.72156e-05
-1.00467e-05
2.81216e-06
9.30096e-05
-1.41071e-05
3.65478e-06
8.85224e-05
-1.74591e-05
4.6098e-06
8.42149e-05
-1.9658e-05
5.77506e-06
8.03236e-05
-2.07881e-05
7.28323e-06
7.68443e-05
-2.13125e-05
9.3174e-06
7.35614e-05
-2.1825e-05
1.21178e-05
7.00192e-05
-2.28838e-05
1.61599e-05
6.54502e-05
-2.49158e-05
2.19736e-05
5.75877e-05
-2.84683e-05
3.21063e-05
3.95393e-05
-3.24588e-05
4.85344e-05
-1.99083e-05
6.43271e-05
1.3197e-05
5.4977e-08
-1.08189e-06
1.28779e-05
6.55574e-08
-2.45564e-06
1.26783e-05
-1.84161e-07
-3.56502e-06
1.27365e-05
-5.30823e-07
-4.44865e-06
1.30015e-05
-7.85775e-07
-5.10074e-06
1.33141e-05
-8.55227e-07
-5.55949e-06
1.35022e-05
-7.45853e-07
-5.90489e-06
1.34376e-05
-5.2243e-07
-6.2402e-06
1.30478e-05
-2.62353e-07
-6.67356e-06
1.23073e-05
-3.89151e-08
-7.30446e-06
1.12183e-05
8.2321e-08
-8.22179e-06
9.76302e-06
6.14651e-08
-9.48601e-06
7.87544e-06
-1.48924e-07
-1.10922e-05
5.3823e-06
-5.5036e-07
-1.27686e-05
2.2275e-06
-1.11069e-06
-1.32445e-05
-1.54413e-06
-8.67407e-06
3.7216e-05
1.6267e-07
-1.19043e-06
3.67722e-05
1.22714e-08
-3.8187e-06
3.64554e-05
-7.30077e-07
-6.5107e-06
3.64568e-05
-1.67974e-06
-8.90467e-06
3.67382e-05
-2.38741e-06
-1.07548e-05
3.70697e-05
-2.58505e-06
-1.20193e-05
3.71562e-05
-2.25749e-06
-1.28256e-05
3.67405e-05
-1.55816e-06
-1.34058e-05
3.56411e-05
-6.90196e-07
-1.40314e-05
3.37496e-05
1.45894e-07
-1.49691e-05
3.09478e-05
8.28542e-07
-1.64504e-05
2.70655e-05
1.26228e-06
-1.86491e-05
2.1799e-05
1.35631e-06
-2.15991e-05
1.47277e-05
1.00586e-06
-2.47269e-05
5.99913e-06
-1.44029e-08
-2.52207e-05
-1.75093e-06
-1.53473e-05
5.8032e-05
1.60959e-07
-8.13169e-07
5.75519e-05
1.23975e-08
-3.21522e-06
5.68491e-05
-9.94095e-07
-6.30592e-06
5.61519e-05
-2.39743e-06
-9.56093e-06
5.5588e-05
-3.55425e-06
-1.2426e-05
5.50912e-05
-3.98647e-06
-1.45798e-05
5.4442e-05
-3.56717e-06
-1.59935e-05
5.33663e-05
-2.46175e-06
-1.6876e-05
5.16011e-05
-9.55455e-07
-1.7571e-05
4.89286e-05
6.34322e-07
-1.84618e-05
4.50862e-05
2.14888e-06
-1.98949e-05
3.97226e-05
3.46226e-06
-2.21531e-05
3.22793e-05
4.48335e-06
-2.53673e-05
2.20038e-05
4.98576e-06
-2.89695e-05
9.10443e-06
4.01967e-06
-2.95212e-05
3.01462e-07
-1.76254e-05
7.53607e-05
9.35709e-08
-5.75072e-07
7.49132e-05
9.46659e-08
-2.35346e-06
7.38746e-05
-8.18078e-07
-5.08757e-06
7.23506e-05
-2.27793e-06
-8.4945e-06
7.05764e-05
-3.62253e-06
-1.1941e-05
6.8723e-05
-4.24216e-06
-1.48425e-05
6.67962e-05
-3.86207e-06
-1.69096e-05
6.46485e-05
-2.56508e-06
-1.82039e-05
6.20345e-05
-6.25819e-07
-1.90468e-05
5.86646e-05
1.60172e-06
-1.98829e-05
5.41585e-05
3.95176e-06
-2.11442e-05
4.80001e-05
6.31068e-06
-2.31996e-05
3.94048e-05
8.64197e-06
-2.62823e-05
2.72339e-05
1.06906e-05
-2.99669e-05
1.13528e-05
1.06228e-05
-3.06705e-05
4.3759e-06
-1.81952e-05
8.91652e-05
2.12937e-08
-4.81155e-07
8.8787e-05
2.12434e-07
-1.7946e-06
8.76248e-05
-3.68422e-07
-4.01372e-06
8.55604e-05
-1.49954e-06
-7.18799e-06
8.27805e-05
-2.65031e-06
-1.08116e-05
7.96031e-05
-3.22461e-06
-1.4181e-05
7.62765e-05
-2.86192e-06
-1.67758e-05
7.2867e-05
-1.5258e-06
-1.8465e-05
6.92775e-05
5.77211e-07
-1.94889e-05
6.5199e-05
3.20328e-06
-2.02973e-05
6.02136e-05
6.19933e-06
-2.13832e-05
5.36777e-05
9.54692e-06
-2.31763e-05
4.46252e-05
1.33246e-05
-2.59872e-05
3.14732e-05
1.74698e-05
-2.95695e-05
1.34412e-05
1.93518e-05
-3.04177e-05
1.07546e-05
-1.79483e-05
9.94745e-05
-2.01066e-08
-4.44817e-07
9.91611e-05
3.3136e-07
-1.50364e-06
9.80087e-05
1.93442e-07
-3.32037e-06
9.57255e-05
-3.76218e-07
-6.17898e-06
9.23578e-05
-1.01103e-06
-9.7538e-06
8.8248e-05
-1.25784e-06
-1.33401e-05
8.38069e-05
-7.74658e-07
-1.62727e-05
7.93251e-05
5.45217e-07
-1.8249e-05
7.48595e-05
2.62957e-06
-1.94086e-05
7.02128e-05
5.38034e-06
-2.01767e-05
6.49745e-05
8.75261e-06
-2.10739e-05
5.84413e-05
1.28923e-05
-2.25667e-05
4.95454e-05
1.80531e-05
-2.50081e-05
3.62125e-05
2.47392e-05
-2.83476e-05
1.64006e-05
3.01662e-05
-2.93272e-05
2.06887e-05
-1.70925e-05
0.000106333
-3.04636e-08
-4.16952e-07
0.000106045
4.61686e-07
-1.34745e-06
0.000104967
7.62301e-07
-2.91285e-06
0.00010266
8.6784e-07
-5.51373e-06
9.90623e-05
9.3514e-07
-8.96384e-06
9.44785e-05
1.22285e-06
-1.26021e-05
8.94061e-05
1.95561e-06
-1.56936e-05
8.42794e-05
3.26722e-06
-1.78228e-05
7.93101e-05
5.20857e-06
-1.90322e-05
7.44405e-05
7.8397e-06
-1.9715e-05
6.93401e-05
1.12836e-05
-2.03907e-05
6.33364e-05
1.59061e-05
-2.1534e-05
5.54027e-05
2.21569e-05
-2.34977e-05
4.3078e-05
3.15638e-05
-2.64263e-05
2.22286e-05
4.2727e-05
-2.7575e-05
3.75381e-05
-1.56772e-05
0.000109753
-3.92207e-07
-1.29682e-08
0.000109479
-1.24723e-06
5.98822e-07
0.000108472
-2.67558e-06
1.30528e-06
0.000106252
-5.11829e-06
2.08388e-06
0.000102675
-8.45247e-06
2.91796e-06
9.80152e-05
-1.20487e-05
3.82408e-06
9.27979e-05
-1.5152e-05
4.86586e-06
8.75448e-05
-1.72917e-05
6.15399e-06
8.25818e-05
-1.84566e-05
7.84007e-06
7.79731e-05
-1.90005e-05
1.01363e-05
7.35298e-05
-1.94192e-05
1.33211e-05
6.87792e-05
-2.01659e-05
1.79388e-05
6.29737e-05
-2.15503e-05
2.45968e-05
5.38113e-05
-2.38248e-05
3.60828e-05
3.56718e-05
-2.53733e-05
5.3781e-05
-1.343e-05
6.94974e-05
1.3759e-05
3.24507e-08
-9.33965e-07
1.33805e-05
2.1681e-08
-2.09879e-06
1.30987e-05
-2.46974e-07
-3.03632e-06
1.30616e-05
-6.19915e-07
-3.79155e-06
1.32212e-05
-9.01258e-07
-4.35917e-06
1.34139e-05
-9.86581e-07
-4.7656e-06
1.3458e-05
-8.77449e-07
-5.07149e-06
1.32161e-05
-6.40676e-07
-5.35762e-06
1.26118e-05
-3.60894e-07
-5.70838e-06
1.16161e-05
-1.09983e-07
-6.19876e-06
1.02408e-05
3.66157e-08
-6.88315e-06
8.48558e-06
5.57322e-08
-7.78651e-06
6.33666e-06
-8.21532e-08
-8.86108e-06
3.78839e-06
-3.85168e-07
-9.83519e-06
1.17741e-06
-9.02457e-07
-9.73111e-06
-1.35196e-06
-6.00709e-06
3.8839e-05
1.3258e-07
-1.0094e-06
3.82967e-05
-5.13482e-08
-3.20338e-06
3.78301e-05
-8.41619e-07
-5.44943e-06
3.76393e-05
-1.86511e-06
-7.46862e-06
3.76922e-05
-2.6523e-06
-9.05671e-06
3.77548e-05
-2.90285e-06
-1.01656e-05
3.75188e-05
-2.58155e-06
-1.08855e-05
3.67114e-05
-1.84274e-06
-1.13963e-05
3.51388e-05
-9.05838e-07
-1.19139e-05
3.26886e-05
1.64353e-08
-1.26452e-05
2.92554e-05
7.84044e-07
-1.37646e-05
2.47107e-05
1.31583e-06
-1.53645e-05
1.88832e-05
1.53773e-06
-1.73916e-05
1.17063e-05
1.3385e-06
-1.92736e-05
4.0463e-06
3.39771e-07
-1.88029e-05
-1.46787e-06
-1.07928e-05
6.05813e-05
1.28993e-07
-6.87097e-07
6.00203e-05
-4.17793e-08
-2.6638e-06
5.91693e-05
-1.09296e-06
-5.20365e-06
5.82479e-05
-2.5924e-06
-7.9122e-06
5.73842e-05
-3.87333e-06
-1.03413e-05
5.65156e-05
-4.40538e-06
-1.22087e-05
5.54217e-05
-4.01762e-06
-1.34635e-05
5.38202e-05
-2.86238e-06
-1.42549e-05
5.14374e-05
-1.24182e-06
-1.48522e-05
4.80504e-05
4.99747e-07
-1.55582e-05
4.33998e-05
2.17862e-06
-1.66388e-05
3.71786e-05
3.667e-06
-1.8283e-05
2.89764e-05
4.87849e-06
-2.05059e-05
1.84813e-05
5.56079e-06
-2.26967e-05
6.76918e-06
4.63555e-06
-2.21048e-05
7.2186e-07
-1.23834e-05
7.86757e-05
6.00537e-08
-4.91812e-07
7.81727e-05
5.25679e-08
-1.94482e-06
7.70253e-05
-8.78098e-07
-4.15503e-06
7.53022e-05
-2.41682e-06
-6.94692e-06
7.32115e-05
-3.89119e-06
-9.83248e-06
7.0922e-05
-4.63623e-06
-1.23221e-05
6.84523e-05
-4.31518e-06
-1.41423e-05
6.56692e-05
-2.97746e-06
-1.53057e-05
6.23297e-05
-8.9664e-07
-1.60524e-05
5.81486e-05
1.52749e-06
-1.67295e-05
5.27427e-05
4.11809e-06
-1.76778e-05
4.5629e-05
6.74184e-06
-1.91608e-05
3.61493e-05
9.35611e-06
-2.12803e-05
2.36129e-05
1.16486e-05
-2.35183e-05
8.90252e-06
1.16293e-05
-2.29538e-05
5.11761e-06
-1.26957e-05
9.3088e-05
-1.2103e-08
-4.17917e-07
9.26614e-05
1.80145e-07
-1.49551e-06
9.14296e-05
-3.94998e-07
-3.26502e-06
8.92205e-05
-1.56874e-06
-5.82701e-06
8.61592e-05
-2.81827e-06
-8.82323e-06
8.25337e-05
-3.50503e-06
-1.16867e-05
7.86032e-05
-3.2052e-06
-1.39553e-05
7.44673e-05
-1.83626e-06
-1.54703e-05
7.00628e-05
4.07777e-07
-1.63888e-05
6.50956e-05
3.26186e-06
-1.70644e-05
5.91549e-05
6.55487e-06
-1.78793e-05
5.16208e-05
1.02527e-05
-1.91531e-05
4.16212e-05
1.44291e-05
-2.10605e-05
2.79869e-05
1.89356e-05
-2.32222e-05
1.10122e-05
2.09217e-05
-2.27354e-05
1.19864e-05
-1.24336e-05
0.000103852
-5.34513e-08
-3.84433e-07
0.000103484
3.09963e-07
-1.26599e-06
0.000102282
1.90897e-07
-2.70428e-06
9.99059e-05
-3.88389e-07
-4.98289e-06
9.63146e-05
-1.07428e-06
-7.90646e-06
9.17878e-05
-1.38968e-06
-1.09286e-05
8.67297e-05
-9.42499e-07
-1.34772e-05
8.1469e-05
4.22121e-07
-1.52467e-05
7.61247e-05
2.64463e-06
-1.63011e-05
7.05353e-05
5.63418e-06
-1.69597e-05
6.43132e-05
9.33481e-06
-1.76317e-05
5.67794e-05
1.38902e-05
-1.86703e-05
4.69309e-05
1.95667e-05
-2.02972e-05
3.30365e-05
2.6781e-05
-2.22986e-05
1.41136e-05
3.24451e-05
-2.19277e-05
2.25794e-05
-1.17837e-05
0.00011101
-5.36425e-08
-3.61145e-07
0.000110662
4.54484e-07
-1.14408e-06
0.000109542
7.77308e-07
-2.37982e-06
0.000107178
8.96879e-07
-4.43471e-06
0.00010341
9.62671e-07
-7.2328e-06
9.84564e-05
1.24079e-06
-1.02788e-05
9.27866e-05
1.98774e-06
-1.2954e-05
8.68762e-05
3.3692e-06
-1.48595e-05
8.10034e-05
5.45556e-06
-1.59703e-05
7.51753e-05
8.32182e-06
-1.65746e-05
6.90996e-05
1.21004e-05
-1.70805e-05
6.21354e-05
1.71733e-05
-1.78529e-05
5.33112e-05
2.40227e-05
-1.91295e-05
4.0397e-05
3.41468e-05
-2.08779e-05
2.02149e-05
4.57651e-05
-2.07129e-05
4.01738e-05
-1.08238e-05
0.000114581
-3.39678e-07
-2.50041e-08
0.000114243
-1.06375e-06
6.09061e-07
0.000113198
-2.18938e-06
1.3363e-06
0.000110942
-4.1091e-06
2.14371e-06
0.000107234
-6.80043e-06
3.01843e-06
0.000102248
-9.80005e-06
3.97875e-06
9.64685e-05
-1.24794e-05
5.09452e-06
9.04547e-05
-1.43961e-05
6.4874e-06
8.46087e-05
-1.54795e-05
8.32443e-06
7.90722e-05
-1.59825e-05
1.08404e-05
7.37101e-05
-1.62958e-05
1.43391e-05
6.80871e-05
-1.67737e-05
1.9404e-05
6.15203e-05
-1.76372e-05
2.66764e-05
5.18088e-05
-1.89888e-05
3.90223e-05
3.40614e-05
-1.92878e-05
5.7427e-05
-9.301e-06
7.28073e-05
1.42061e-05
1.40397e-08
-7.41741e-07
1.37776e-05
-1.55949e-08
-1.65469e-06
1.34284e-05
-3.00015e-07
-2.38703e-06
1.3314e-05
-6.95526e-07
-2.9817e-06
1.339e-05
-1.00052e-06
-3.43464e-06
1.34887e-05
-1.10138e-06
-3.76292e-06
1.34214e-05
-9.94667e-07
-4.00945e-06
1.30448e-05
-7.4813e-07
-4.23292e-06
1.22816e-05
-4.50714e-07
-4.49452e-06
1.11095e-05
-1.81125e-07
-4.84546e-06
9.55095e-06
-3.71998e-09
-5.32092e-06
7.6319e-06
5.57525e-08
-5.92321e-06
5.38588e-06
-1.77651e-08
-6.5973e-06
2.9044e-06
-2.27497e-07
-7.12622e-06
6.74845e-07
-6.7948e-07
-6.82207e-06
-1.13712e-06
-4.06113e-06
4.01358e-05
1.07707e-07
-7.9117e-07
3.95119e-05
-1.04388e-07
-2.49063e-06
3.89239e-05
-9.33315e-07
-4.22814e-06
3.85799e-05
-2.01815e-06
-5.80202e-06
3.84526e-05
-2.87409e-06
-7.0558e-06
3.8304e-05
-3.17361e-06
-7.94483e-06
3.78154e-05
-2.86294e-06
-8.52865e-06
3.67034e-05
-2.09509e-06
-8.93739e-06
3.4771e-05
-1.10187e-06
-9.33025e-06
3.19067e-05
-1.04091e-07
-9.85802e-06
2.80399e-05
7.41202e-07
-1.06427e-05
2.30906e-05
1.36868e-06
-1.17282e-05
1.70024e-05
1.71607e-06
-1.30372e-05
9.9364e-06
1.66655e-06
-1.41016e-05
3.04299e-06
7.56073e-07
-1.33451e-05
-1.1179e-06
-7.38768e-06
6.26194e-05
1.0217e-07
-5.37243e-07
6.19911e-05
-8.70699e-08
-2.05288e-06
6.10216e-05
-1.17224e-06
-3.99518e-06
5.99242e-05
-2.74858e-06
-6.08437e-06
5.88263e-05
-4.13359e-06
-7.98389e-06
5.76666e-05
-4.7542e-06
-9.46835e-06
5.6223e-05
-4.40048e-06
-1.04823e-05
5.42086e-05
-3.21037e-06
-1.11252e-05
5.13481e-05
-1.50062e-06
-1.15929e-05
4.74241e-05
3.72829e-07
-1.21111e-05
4.2198e-05
2.19468e-06
-1.28662e-05
3.54246e-05
3.84111e-06
-1.39821e-05
2.68316e-05
5.22943e-06
-1.54262e-05
1.63968e-05
6.08768e-06
-1.6683e-05
5.55478e-06
5.25118e-06
-1.57579e-05
1.18517e-06
-8.48807e-06
8.13263e-05
3.19343e-08
-3.87569e-07
8.07752e-05
1.65627e-08
-1.49737e-06
7.95401e-05
-9.25167e-07
-3.16699e-06
7.76633e-05
-2.52378e-06
-5.29493e-06
7.53302e-05
-4.10363e-06
-7.52928e-06
7.27031e-05
-4.95658e-06
-9.49261e-06
6.98082e-05
-4.69274e-06
-1.09552e-05
6.65245e-05
-3.32937e-06
-1.1903e-05
6.26209e-05
-1.14683e-06
-1.25026e-05
5.78222e-05
1.4505e-06
-1.30085e-05
5.17658e-05
4.24299e-06
-1.36697e-05
4.4022e-05
7.09143e-06
-1.46673e-05
3.40621e-05
9.94504e-06
-1.6036e-05
2.14995e-05
1.24507e-05
-1.73187e-05
7.65408e-06
1.25153e-05
-1.63725e-05
5.78403e-06
-8.67502e-06
9.62268e-05
-4.20948e-08
-3.32982e-07
9.57547e-05
1.53122e-07
-1.16e-06
9.4463e-05
-4.15005e-07
-2.48351e-06
9.21436e-05
-1.618e-06
-4.41335e-06
8.88722e-05
-2.94494e-06
-6.7106e-06
8.49068e-05
-3.72617e-06
-8.95165e-06
8.05088e-05
-3.48528e-06
-1.07647e-05
7.58047e-05
-2.09808e-06
-1.19975e-05
7.07593e-05
2.54589e-07
-1.27448e-05
6.51123e-05
3.2945e-06
-1.32615e-05
5.8474e-05
6.83069e-06
-1.38287e-05
5.02722e-05
1.08124e-05
-1.46723e-05
3.97423e-05
1.53013e-05
-1.58869e-05
2.60013e-05
2.00862e-05
-1.71168e-05
9.81246e-06
2.21806e-05
-1.62117e-05
1.29605e-05
-8.46171e-06
0.000107353
-7.89863e-08
-3.04602e-07
0.000106936
2.92094e-07
-9.87977e-07
0.000105686
1.90563e-07
-2.06047e-06
0.000103238
-3.91791e-07
-3.7609e-06
9.94851e-05
-1.11524e-06
-5.98309e-06
9.46499e-05
-1.4871e-06
-8.33247e-06
8.91216e-05
-1.07446e-06
-1.03598e-05
8.32538e-05
3.20595e-07
-1.17976e-05
7.72215e-05
2.64878e-06
-1.26629e-05
7.09056e-05
5.82908e-06
-1.31785e-05
6.39579e-05
9.79205e-06
-1.36453e-05
5.57454e-05
1.46724e-05
-1.43178e-05
4.53508e-05
2.07316e-05
-1.5333e-05
3.1285e-05
2.83154e-05
-1.6462e-05
1.30313e-05
3.41552e-05
-1.56486e-05
2.39571e-05
-8.00351e-06
0.000114752
-7.16571e-08
-2.86202e-07
0.000114349
4.49629e-07
-8.98578e-07
0.000113186
7.92383e-07
-1.81881e-06
0.000110775
9.26382e-07
-3.34212e-06
0.000106888
9.94223e-07
-5.45502e-06
0.000101668
1.26496e-06
-7.81058e-06
9.55496e-05
2.02098e-06
-9.93119e-06
8.90343e-05
3.45529e-06
-1.14789e-05
8.24548e-05
5.65475e-06
-1.23968e-05
7.58839e-05
8.70693e-06
-1.28815e-05
6.90806e-05
1.27472e-05
-1.32325e-05
6.14543e-05
1.81614e-05
-1.37156e-05
5.21063e-05
2.54384e-05
-1.44882e-05
3.89786e-05
3.6033e-05
-1.54678e-05
1.93183e-05
4.79394e-05
-1.48368e-05
4.20066e-05
-7.37091e-06
0.000118445
-2.69036e-07
-3.39938e-08
0.000118049
-8.3807e-07
6.19962e-07
0.000116962
-1.67585e-06
1.3661e-06
0.000114675
-3.09347e-06
2.1983e-06
0.000110879
-5.1179e-06
3.10708e-06
0.000105663
-7.43076e-06
4.11179e-06
9.94678e-05
-9.55074e-06
5.28757e-06
9.28704e-05
-1.11083e-05
6.76491e-06
8.63342e-05
-1.20112e-05
8.72261e-06
8.00741e-05
-1.24273e-05
1.14119e-05
7.40168e-05
-1.26435e-05
1.51523e-05
6.77785e-05
-1.29216e-05
2.05477e-05
6.07467e-05
-1.34146e-05
2.82476e-05
5.08085e-05
-1.4161e-05
4.11434e-05
3.34176e-05
-1.39269e-05
5.99694e-05
-6.34851e-06
7.51189e-05
1.45396e-05
3.11161e-10
-5.14448e-07
1.40721e-05
-4.502e-08
-1.1422e-06
1.3671e-05
-3.41798e-07
-1.64413e-06
1.34984e-05
-7.55334e-07
-2.05377e-06
1.35122e-05
-1.0798e-06
-2.36866e-06
1.35423e-05
-1.19423e-06
-2.59874e-06
1.33948e-05
-1.0908e-06
-2.77113e-06
1.29231e-05
-8.37528e-07
-2.92374e-06
1.20515e-05
-5.26938e-07
-3.09601e-06
1.0763e-05
-2.37077e-07
-3.31981e-06
9.0952e-06
-3.78262e-08
-3.61532e-06
7.09419e-06
5.57187e-08
-3.97792e-06
4.82401e-06
3.66017e-08
-4.36372e-06
2.42797e-06
-1.03506e-07
-4.62667e-06
4.41587e-07
-4.98463e-07
-4.33723e-06
-9.6661e-07
-2.52219e-06
4.11067e-05
8.89058e-08
-5.43072e-07
4.04194e-05
-1.45356e-07
-1.70307e-06
3.97393e-05
-1.00339e-06
-2.88644e-06
3.92808e-05
-2.13547e-06
-3.96338e-06
3.90202e-05
-3.04611e-06
-4.82884e-06
3.87165e-05
-3.38657e-06
-5.44886e-06
3.80435e-05
-3.0875e-06
-5.85892e-06
3.67111e-05
-2.29962e-06
-6.14294e-06
3.45228e-05
-1.26352e-06
-6.40534e-06
3.13714e-05
-2.00651e-07
-6.74306e-06
2.72233e-05
7.03188e-07
-7.23557e-06
2.20383e-05
1.41127e-06
-7.89883e-06
1.58424e-05
1.86304e-06
-8.66769e-06
8.92339e-06
1.93529e-06
-9.22144e-06
2.52731e-06
1.1098e-06
-8.55727e-06
-8.20704e-07
-4.63445e-06
6.41464e-05
8.21475e-08
-3.68238e-07
6.34658e-05
-1.21973e-07
-1.39562e-06
6.24065e-05
-1.23132e-06
-2.70803e-06
6.11787e-05
-2.86493e-06
-4.12707e-06
5.99088e-05
-4.33057e-06
-5.42947e-06
5.85354e-05
-5.02283e-06
-6.45875e-06
5.68352e-05
-4.7002e-06
-7.16943e-06
5.45189e-05
-3.48743e-06
-7.62111e-06
5.13116e-05
-1.7082e-06
-7.94093e-06
4.70116e-05
2.66451e-07
-8.2782e-06
4.13976e-05
2.20093e-06
-8.74996e-06
3.42837e-05
3.97478e-06
-9.43171e-06
2.54986e-05
5.50648e-06
-1.02845e-05
1.51894e-05
6.50942e-06
-1.09479e-05
4.92142e-06
5.75976e-06
-1.01399e-05
1.57646e-06
-5.3361e-06
8.33127e-05
1.24328e-08
-2.6751e-07
8.27231e-05
-1.21047e-08
-1.01766e-06
8.14207e-05
-9.59485e-07
-2.13641e-06
7.9431e-05
-2.6006e-06
-3.56957e-06
7.6922e-05
-4.26002e-06
-5.0908e-06
7.40493e-05
-5.19818e-06
-6.44456e-06
7.08431e-05
-4.98334e-06
-7.46588e-06
6.71915e-05
-3.60543e-06
-8.13342e-06
6.28776e-05
-1.34627e-06
-8.55063e-06
5.76391e-05
1.38167e-06
-8.88512e-06
5.11379e-05
4.33023e-06
-9.2978e-06
4.29952e-05
7.35283e-06
-9.90263e-06
3.27813e-05
1.03908e-05
-1.07065e-05
2.0292e-05
1.30631e-05
-1.13831e-05
7.01516e-06
1.32092e-05
-1.05451e-05
6.30668e-06
-5.44699e-06
9.85805e-05
-6.49563e-08
-2.29523e-07
9.80709e-05
1.29655e-07
-7.92103e-07
9.67302e-05
-4.28818e-07
-1.67353e-06
9.43294e-05
-1.65068e-06
-2.96249e-06
9.09085e-05
-3.0342e-06
-4.5155e-06
8.66996e-05
-3.88856e-06
-6.05239e-06
8.19623e-05
-3.69696e-06
-7.31369e-06
7.6842e-05
-2.30096e-06
-8.18172e-06
7.13281e-05
1.30611e-07
-8.70779e-06
6.51934e-05
3.30981e-06
-9.05491e-06
5.8073e-05
7.03011e-06
-9.40821e-06
4.94415e-05
1.12247e-05
-9.91256e-06
3.86197e-05
1.59425e-05
-1.06167e-05
2.48967e-05
2.09295e-05
-1.12602e-05
9.2208e-06
2.31163e-05
-1.0443e-05
1.3676e-05
-5.30268e-06
0.000109978
-9.80976e-08
-2.10249e-07
0.000109519
2.77901e-07
-6.77491e-07
0.000108229
1.91379e-07
-1.39057e-06
0.000105727
-3.90274e-07
-2.5189e-06
0.000101861
-1.13961e-06
-4.01174e-06
9.68092e-05
-1.55425e-06
-5.61511e-06
9.0944e-05
-1.17083e-06
-7.02081e-06
8.46337e-05
2.43886e-07
-8.03209e-06
7.80988e-05
2.6473e-06
-8.64465e-06
7.12583e-05
5.96912e-06
-8.99733e-06
6.38042e-05
1.01267e-05
-9.28778e-06
5.51485e-05
1.5244e-05
-9.68146e-06
4.44442e-05
2.1572e-05
-1.02582e-05
3.03482e-05
2.94064e-05
-1.08429e-05
1.25282e-05
3.5375e-05
-1.00872e-05
2.49239e-05
-5.01128e-06
0.000117559
-8.49838e-08
-1.97321e-07
0.000117111
4.46439e-07
-6.18747e-07
0.000115908
8.05408e-07
-1.23057e-06
0.00011346
9.52648e-07
-2.23677e-06
0.000109491
1.02352e-06
-3.64932e-06
0.000104088
1.28963e-06
-5.25081e-06
9.7652e-05
2.05107e-06
-6.71747e-06
9.06999e-05
3.52294e-06
-7.80586e-06
8.36042e-05
5.80459e-06
-8.45844e-06
7.64942e-05
8.99341e-06
-8.79583e-06
6.91778e-05
1.32244e-05
-9.01377e-06
6.11118e-05
1.88812e-05
-9.28689e-06
5.14582e-05
2.64488e-05
-9.71139e-06
3.82632e-05
3.73468e-05
-1.02132e-05
1.89425e-05
4.94441e-05
-9.58527e-06
4.32626e-05
-4.62118e-06
0.000121344
-1.854e-07
-4.05319e-08
0.000120901
-5.783e-07
6.29601e-07
0.000119774
-1.13537e-06
1.3913e-06
0.000117459
-2.0691e-06
2.24327e-06
0.000113606
-3.41893e-06
3.1785e-06
0.000108235
-4.98793e-06
4.21729e-06
0.000101749
-6.45215e-06
5.43844e-06
9.47322e-05
-7.54762e-06
6.97914e-06
8.76922e-05
-8.1931e-06
9.02644e-06