/*--------------------------------*- C++ -*----------------------------------*\
| =========                 |                                                 |
| \\      /  F ield         | foam-extend: Open Source CFD                    |
|  \\    /   O peration     | Version:     3.1                                |
|   \\  /    A nd           | Web:         http://www.extend-project.de       |
|    \\/     M anipulation  |                                                 |
\*---------------------------------------------------------------------------*/
FoamFile
{
    version     2.0;
    format      ascii;
    class       pointVectorField;
    location    "1.8";
    object      pointMotionU;
}
// * * * * * * * * * * * * * * * * * * * * * * * * * * * * * * * * * * * * * //

dimensions      [0 1 -1 0 0 0 0];

internalField   nonuniform List<vector> 
16859
(
(0 0 0)
(0 0 0)
(0 0 0)
(0 0 0)
(0 0 0)
(0 0 0)
(0 0 0)
(0 0 0)
(0 0 0)
(0 0 0)
(0 0 0)
(0 0 0)
(0 0 0)
(0 0 0)
(0 0 0)
(0 0 0)
(0 0 0)
(0 0 0)
(6.56453e-11 -1.76929e-11 -3.41155e-12)
(1.27681e-10 -3.42463e-11 -6.85949e-12)
(1.86818e-10 -4.96001e-11 -1.05928e-11)
(2.45804e-10 -6.40543e-11 -1.49773e-11)
(3.07491e-10 -7.76068e-11 -2.04312e-11)
(3.75096e-10 -8.98352e-11 -2.7479e-11)
(4.52513e-10 -9.96916e-11 -3.6816e-11)
(5.44652e-10 -1.0515e-10 -4.93872e-11)
(6.57797e-10 -1.02648e-10 -6.64735e-11)
(7.9983e-10 -8.62154e-11 -8.9741e-11)
(9.79963e-10 -4.62553e-11 -1.21121e-10)
(1.2071e-09 3.17989e-11 -1.62159e-10)
(1.48498e-09 1.67645e-10 -2.11996e-10)
(1.80082e-09 3.7946e-10 -2.62721e-10)
(2.10217e-09 6.46274e-10 -2.93467e-10)
(2.7228e-09 2.01118e-09 1.04343e-10)
(0 0 0)
(1.29146e-10 -3.49585e-11 -6.6447e-12)
(2.51034e-10 -6.7717e-11 -1.33479e-11)
(3.6691e-10 -9.82197e-11 -2.0581e-11)
(4.82009e-10 -1.27148e-10 -2.90379e-11)
(6.01689e-10 -1.54639e-10 -3.95053e-11)
(7.3193e-10 -1.8011e-10 -5.29619e-11)
(8.79877e-10 -2.01919e-10 -7.06982e-11)
(1.05446e-09 -2.16821e-10 -9.4469e-11)
(1.26703e-09 -2.19104e-10 -1.26676e-10)
(1.53182e-09 -1.99297e-10 -1.70538e-10)
(1.86559e-09 -1.42509e-10 -2.30109e-10)
(2.28487e-09 -2.70647e-11 -3.0973e-10)
(2.79728e-09 1.73793e-10 -4.11958e-10)
(3.38033e-09 4.77762e-10 -5.32158e-10)
(3.94074e-09 8.38153e-10 -6.47297e-10)
(4.82428e-09 1.84699e-09 -1.0451e-09)
(0 0 0)
(1.88614e-10 -5.1351e-11 -9.54514e-12)
(3.66263e-10 -9.95854e-11 -1.91452e-11)
(5.34415e-10 -1.44758e-10 -2.94454e-11)
(7.00303e-10 -1.88058e-10 -4.13995e-11)
(8.71191e-10 -2.30002e-10 -5.60725e-11)
(1.055e-09 -2.70254e-10 -7.47688e-11)
(1.261e-09 -3.07304e-10 -9.91887e-11)
(1.5005e-09 -3.37949e-10 -1.3163e-10)
(1.78773e-09 -3.56479e-10 -1.75251e-10)
(2.14036e-09 -3.53537e-10 -2.3439e-10)
(2.57941e-09 -3.14802e-10 -3.14856e-10)
(3.12637e-09 -2.20358e-10 -4.23924e-10)
(3.79354e-09 -4.77489e-11 -5.69103e-10)
(4.55808e-09 2.12771e-10 -7.529e-10)
(5.31024e-09 5.12138e-10 -9.54556e-10)
(6.65983e-09 1.32065e-09 -1.65299e-09)
(0 0 0)
(2.42495e-10 -6.63647e-11 -1.1994e-11)
(4.70281e-10 -1.28883e-10 -2.40074e-11)
(6.84649e-10 -1.87834e-10 -3.67971e-11)
(8.94212e-10 -2.45045e-10 -5.1489e-11)
(1.10738e-09 -3.0164e-10 -6.93114e-11)
(1.33302e-09 -3.57945e-10 -9.17325e-11)
(1.5811e-09 -4.13299e-10 -1.20623e-10)
(1.86337e-09 -4.65745e-10 -1.58464e-10)
(2.19404e-09 -5.11573e-10 -2.08632e-10)
(2.59043e-09 -5.44741e-10 -2.7577e-10)
(3.07286e-09 -5.5629e-10 -3.6624e-10)
(3.66278e-09 -5.34296e-10 -4.88472e-10)
(4.37498e-09 -4.65845e-10 -6.52314e-10)
(5.19405e-09 -3.45035e-10 -8.63808e-10)
(6.02054e-09 -1.92638e-10 -1.10283e-09)
(7.55527e-09 1.60558e-10 -1.96478e-09)
(0 0 0)
(2.897e-10 -7.94453e-11 -1.39188e-11)
(5.60967e-10 -1.54519e-10 -2.77899e-11)
(8.14509e-10 -2.25814e-10 -4.24148e-11)
(1.05966e-09 -2.95869e-10 -5.89989e-11)
(1.30522e-09 -3.66562e-10 -7.88157e-11)
(1.56e-09 -4.39148e-10 -1.03333e-10)
(1.83331e-09 -5.14266e-10 -1.34349e-10)
(2.13541e-09 -5.91935e-10 -1.74162e-10)
(2.47778e-09 -6.71589e-10 -2.25786e-10)
(2.87326e-09 -7.52212e-10 -2.93227e-10)
(3.33577e-09 -8.3263e-10 -3.81826e-10)
(3.87881e-09 -9.11867e-10 -4.98514e-10)
(4.51103e-09 -9.88873e-10 -6.51314e-10)
(5.22183e-09 -1.0594e-09 -8.45108e-10)
(5.94418e-09 -1.10165e-09 -1.06302e-09)
(7.37036e-09 -1.25902e-09 -1.88624e-09)
(0 0 0)
(3.29631e-10 -9.00184e-11 -1.52961e-11)
(6.37222e-10 -1.75343e-10 -3.04511e-11)
(9.2254e-10 -2.56922e-10 -4.62499e-11)
(1.19506e-09 -3.37986e-10 -6.38928e-11)
(1.46329e-09 -4.2118e-10 -8.45967e-11)
(1.73522e-09 -5.08728e-10 -1.09693e-10)
(2.01851e-09 -6.02626e-10 -1.40721e-10)
(2.32054e-09 -7.04913e-10 -1.79516e-10)
(2.64815e-09 -8.1813e-10 -2.283e-10)
(3.00686e-09 -9.46071e-10 -2.89753e-10)
(3.39949e-09 -1.09485e-09 -3.67003e-10)
(3.82378e-09 -1.27389e-09 -4.63386e-10)
(4.26892e-09 -1.49462e-09 -5.81454e-10)
(4.71166e-09 -1.759e-09 -7.19728e-10)
(5.11821e-09 -2.0108e-09 -8.62815e-10)
(5.93448e-09 -2.72303e-09 -1.45544e-09)
(0 0 0)
(3.62158e-10 -9.75386e-11 -1.61475e-11)
(6.98902e-10 -1.90252e-10 -3.20437e-11)
(1.0088e-09 -2.79427e-10 -4.84079e-11)
(1.301e-09 -3.68872e-10 -6.63697e-11)
(1.5833e-09 -4.6187e-10 -8.70175e-11)
(1.86237e-09 -5.61434e-10 -1.11463e-10)
(2.14378e-09 -6.70603e-10 -1.40883e-10)
(2.43159e-09 -7.92859e-10 -1.76529e-10)
(2.72756e-09 -9.32764e-10 -2.19687e-10)
(3.02952e-09 -1.09693e-09 -2.71539e-10)
(3.32871e-09 -1.29534e-09 -3.3281e-10)
(3.60543e-09 -1.54278e-09 -4.02986e-10)
(3.82336e-09 -1.85841e-09 -4.78642e-10)
(3.92707e-09 -2.25541e-09 -5.50326e-10)
(3.87642e-09 -2.6799e-09 -5.99604e-10)
(3.19153e-09 -4.13387e-09 -6.50391e-10)
(0 0 0)
(3.87528e-10 -1.01539e-10 -1.65299e-11)
(7.46627e-10 -1.98299e-10 -3.26934e-11)
(1.07455e-09 -2.91843e-10 -4.9111e-11)
(1.37978e-09 -3.86363e-10 -6.67985e-11)
(1.66919e-09 -4.85552e-10 -8.66778e-11)
(1.94805e-09 -5.92884e-10 -1.09611e-10)
(2.21992e-09 -7.11916e-10 -1.36403e-10)
(2.486e-09 -8.4667e-10 -1.67753e-10)
(2.74406e-09 -1.00214e-09 -2.04134e-10)
(2.9866e-09 -1.18494e-09 -2.45552e-10)
(3.19785e-09 -1.40388e-09 -2.91074e-10)
(3.34955e-09 -1.67001e-09 -3.37957e-10)
(3.39617e-09 -1.99387e-09 -3.80133e-10)
(3.27518e-09 -2.37308e-09 -4.06021e-10)
(2.93631e-09 -2.74273e-09 -3.97303e-10)
(-4.44552e-10 -5.07535e-09 -4.1228e-11)
(0 0 0)
(0 0 0)
(0 0 0)
(0 0 0)
(0 0 0)
(0 0 0)
(0 0 0)
(0 0 0)
(0 0 0)
(0 0 0)
(0 0 0)
(0 0 0)
(0 0 0)
(0 0 0)
(0 0 0)
(0 0 0)
(0 0 0)
(0 0 0)
(6.6764e-11 -1.83233e-11 -3.30328e-12)
(1.29907e-10 -3.54659e-11 -6.63818e-12)
(1.90216e-10 -5.13644e-11 -1.02429e-11)
(2.50567e-10 -6.63183e-11 -1.44689e-11)
(3.13955e-10 -8.02938e-11 -1.9718e-11)
(3.83779e-10 -9.2784e-11 -2.64953e-11)
(4.64166e-10 -1.02566e-10 -3.54724e-11)
(5.60335e-10 -1.07286e-10 -4.75688e-11)
(6.78961e-10 -1.02771e-10 -6.40422e-11)
(8.28387e-10 -8.19371e-11 -8.6552e-11)
(1.01827e-09 -3.31456e-11 -1.17068e-10)
(1.25775e-09 6.19461e-11 -1.57264e-10)
(1.55013e-09 2.29961e-10 -2.0655e-10)
(1.88043e-09 5.00307e-10 -2.57345e-10)
(2.18365e-09 8.55367e-10 -2.89092e-10)
(2.77282e-09 2.22026e-09 -1.06892e-10)
(0 0 0)
(1.313e-10 -3.62165e-11 -6.43293e-12)
(2.55313e-10 -7.01567e-11 -1.29151e-11)
(3.73426e-10 -1.01765e-10 -1.98971e-11)
(4.91106e-10 -1.31735e-10 -2.80445e-11)
(6.13978e-10 -1.60163e-10 -3.81121e-11)
(7.48349e-10 -1.86331e-10 -5.10396e-11)
(9.01782e-10 -2.08325e-10 -6.80703e-11)
(1.08375e-09 -2.22375e-10 -9.09048e-11)
(1.3063e-09 -2.21815e-10 -1.21892e-10)
(1.58447e-09 -1.9546e-10 -1.64225e-10)
(1.93575e-09 -1.25388e-10 -2.22011e-10)
(2.37683e-09 1.53708e-11 -2.99833e-10)
(2.91354e-09 2.62402e-10 -4.00834e-10)
(3.51585e-09 6.45418e-10 -5.21233e-10)
(4.05875e-09 1.11529e-09 -6.36349e-10)
(4.74221e-09 2.22408e-09 -8.70625e-10)
(0 0 0)
(1.91652e-10 -5.3227e-11 -9.239e-12)
(3.72281e-10 -1.03236e-10 -1.85199e-11)
(5.43535e-10 -1.501e-10 -2.84579e-11)
(7.12955e-10 -1.95052e-10 -3.99665e-11)
(8.88149e-10 -2.38587e-10 -5.40638e-11)
(1.07745e-09 -2.80254e-10 -7.19972e-11)
(1.29064e-09 -3.1828e-10 -9.53956e-11)
(1.53969e-09 -3.48954e-10 -1.26471e-10)
(1.83964e-09 -3.65653e-10 -1.6829e-10)
(2.20911e-09 -3.57432e-10 -2.25118e-10)
(2.66999e-09 -3.07291e-10 -3.02785e-10)
(3.24385e-09 -1.90966e-10 -4.08822e-10)
(3.94026e-09 2.04258e-11 -5.51473e-10)
(4.72475e-09 3.43309e-10 -7.34303e-10)
(5.43924e-09 7.20129e-10 -9.32036e-10)
(6.46761e-09 1.53049e-09 -1.35056e-09)
(0 0 0)
(2.46218e-10 -6.88336e-11 -1.16063e-11)
(4.77623e-10 -1.33708e-10 -2.32163e-11)
(6.95703e-10 -1.9495e-10 -3.55493e-11)
(9.09409e-10 -2.5448e-10 -4.96806e-11)
(1.12753e-09 -3.1346e-10 -6.67798e-11)
(1.35934e-09 -3.72176e-10 -8.82417e-11)
(1.6153e-09 -4.29827e-10 -1.15843e-10)
(1.90778e-09 -4.84162e-10 -1.51948e-10)
(2.25173e-09 -5.30949e-10 -1.99791e-10)
(2.66526e-09 -5.63286e-10 -2.63877e-10)
(3.16945e-09 -5.70902e-10 -3.50491e-10)
(3.78585e-09 -5.40005e-10 -4.682e-10)
(4.527e-09 -4.55474e-10 -6.27463e-10)
(5.36651e-09 -3.1052e-10 -8.35189e-10)
(6.15137e-09 -1.3553e-10 -1.06523e-09)
(7.38263e-09 2.27996e-10 -1.55058e-09)
(0 0 0)
(2.93881e-10 -8.24592e-11 -1.34651e-11)
(5.69172e-10 -1.60434e-10 -2.68651e-11)
(8.26757e-10 -2.34606e-10 -4.0959e-11)
(1.07631e-09 -3.07666e-10 -5.68938e-11)
(1.32696e-09 -3.81612e-10 -7.58755e-11)
(1.58788e-09 -4.5778e-10 -9.92858e-11)
(1.86877e-09 -5.36857e-10 -1.28812e-10)
(2.18027e-09 -6.18898e-10 -1.66608e-10)
(2.53428e-09 -7.03393e-10 -2.15501e-10)
(2.94398e-09 -7.89507e-10 -2.79285e-10)
(3.4234e-09 -8.76594e-10 -3.63097e-10)
(3.98572e-09 -9.6498e-10 -4.73801e-10)
(4.63799e-09 -1.05639e-09 -6.19725e-10)
(5.36265e-09 -1.15164e-09 -8.06337e-10)
(6.04909e-09 -1.23751e-09 -1.01153e-09)
(7.28825e-09 -1.35858e-09 -1.44969e-09)
(0 0 0)
(3.34047e-10 -9.35009e-11 -1.47934e-11)
(6.45832e-10 -1.82204e-10 -2.94282e-11)
(9.35261e-10 -2.67188e-10 -4.46436e-11)
(1.2121e-09 -3.51902e-10 -6.15779e-11)
(1.48513e-09 -4.39193e-10 -8.13752e-11)
(1.76259e-09 -5.31497e-10 -1.05275e-10)
(2.05231e-09 -6.31058e-10 -1.34696e-10)
(2.36179e-09 -7.40278e-10 -1.71311e-10)
(2.69773e-09 -8.62318e-10 -2.17132e-10)
(3.06523e-09 -1.00212e-09 -2.74572e-10)
(3.46602e-09 -1.16805e-09 -3.46463e-10)
(3.89584e-09 -1.37387e-09 -4.35887e-10)
(4.34068e-09 -1.63901e-09 -5.45376e-10)
(4.77218e-09 -1.9778e-09 -6.73772e-10)
(5.13612e-09 -2.34234e-09 -8.03382e-10)
(5.97795e-09 -2.99487e-09 -1.07195e-09)
(0 0 0)
(3.66605e-10 -1.01381e-10 -1.5613e-11)
(7.07509e-10 -1.97847e-10 -3.09584e-11)
(1.02137e-09 -2.90851e-10 -4.67094e-11)
(1.31755e-09 -3.84481e-10 -6.39328e-11)
(1.60404e-09 -4.82294e-10 -8.36438e-11)
(1.88762e-09 -5.87613e-10 -1.06863e-10)
(2.17382e-09 -7.03884e-10 -1.34646e-10)
(2.46649e-09 -8.35181e-10 -1.68085e-10)
(2.76673e-09 -9.87042e-10 -2.08257e-10)
(3.0711e-09 -1.1678e-09 -2.56074e-10)
(3.36835e-09 -1.3906e-09 -3.11959e-10)
(3.63435e-09 -1.67626e-09 -3.75118e-10)
(3.82515e-09 -2.0555e-09 -4.42047e-10)
(3.87394e-09 -2.56188e-09 -5.03753e-10)
(3.73593e-09 -3.15764e-09 -5.43591e-10)
(3.30762e-09 -4.45331e-09 -4.83374e-10)
(0 0 0)
(3.91839e-10 -1.05604e-10 -1.59798e-11)
(7.54901e-10 -2.06354e-10 -3.15792e-11)
(1.08646e-09 -3.0401e-10 -4.73746e-11)
(1.39517e-09 -4.0308e-10 -6.43213e-11)
(1.68798e-09 -5.07582e-10 -8.32721e-11)
(1.97015e-09 -6.21359e-10 -1.05004e-10)
(2.24503e-09 -7.48449e-10 -1.30213e-10)
(2.51333e-09 -8.93554e-10 -1.59455e-10)
(2.77185e-09 -1.06271e-09 -1.93025e-10)
(3.01125e-09 -1.26422e-09 -2.30713e-10)
(3.21255e-09 -1.50981e-09 -2.71372e-10)
(3.34187e-09 -1.81548e-09 -3.1215e-10)
(3.34415e-09 -2.20038e-09 -3.47225e-10)
(3.14226e-09 -2.67532e-09 -3.66162e-10)
(2.67502e-09 -3.18272e-09 -3.54364e-10)
(-3.48164e-10 -5.32632e-09 -1.33438e-10)
(0 0 0)
(0 0 0)
(0 0 0)
(0 0 0)
(0 0 0)
(0 0 0)
(0 0 0)
(0 0 0)
(0 0 0)
(0 0 0)
(0 0 0)
(0 0 0)
(0 0 0)
(0 0 0)
(0 0 0)
(0 0 0)
(0 0 0)
(0 0 0)
(6.77364e-11 -1.8891e-11 -3.07207e-12)
(1.31842e-10 -3.65621e-11 -6.16913e-12)
(1.93163e-10 -5.29432e-11 -9.50796e-12)
(2.54669e-10 -6.83291e-11 -1.34087e-11)
(3.19459e-10 -8.26529e-11 -1.82345e-11)
(3.91051e-10 -9.53311e-11 -2.44367e-11)
(4.73701e-10 -1.04993e-10 -3.26091e-11)
(5.72765e-10 -1.09026e-10 -4.35535e-11)
(6.95016e-10 -1.0283e-10 -5.83496e-11)
(8.48759e-10 -7.86449e-11 -7.83907e-11)
(1.04327e-09 -2.38762e-11 -1.05273e-10)
(1.28655e-09 8.08571e-11 -1.40241e-10)
(1.57955e-09 2.62174e-10 -1.82582e-10)
(1.9038e-09 5.44905e-10 -2.26263e-10)
(2.19465e-09 8.99096e-10 -2.56651e-10)
(2.83474e-09 2.17196e-09 -2.0973e-10)
(0 0 0)
(1.33172e-10 -3.73492e-11 -5.98199e-12)
(2.59031e-10 -7.23494e-11 -1.2001e-11)
(3.79073e-10 -1.04938e-10 -1.84663e-11)
(4.9894e-10 -1.35809e-10 -2.59838e-11)
(6.24447e-10 -1.65011e-10 -3.52338e-11)
(7.62112e-10 -1.91702e-10 -4.70536e-11)
(9.19734e-10 -2.13725e-10 -6.25364e-11)
(1.10702e-09 -2.26893e-10 -8.31554e-11)
(1.33619e-09 -2.23844e-10 -1.10907e-10)
(1.62219e-09 -1.92328e-10 -1.48432e-10)
(1.98176e-09 -1.12959e-10 -1.98985e-10)
(2.42934e-09 4.26908e-11 -2.65844e-10)
(2.96578e-09 3.09832e-10 -3.5031e-10)
(3.55286e-09 7.10923e-10 -4.46665e-10)
(4.06395e-09 1.17964e-09 -5.32453e-10)
(4.7368e-09 2.15854e-09 -6.74929e-10)
(0 0 0)
(1.94289e-10 -5.49163e-11 -8.58991e-12)
(3.77504e-10 -1.06518e-10 -1.72056e-11)
(5.51434e-10 -1.54881e-10 -2.6405e-11)
(7.23849e-10 -2.01261e-10 -3.70173e-11)
(9.02604e-10 -2.46119e-10 -4.99575e-11)
(1.0963e-09 -2.8888e-10 -6.63303e-11)
(1.31499e-09 -3.27524e-10 -8.75559e-11)
(1.57094e-09 -3.57904e-10 -1.15527e-10)
(1.87936e-09 -3.72684e-10 -1.52804e-10)
(2.25876e-09 -3.59857e-10 -2.02838e-10)
(2.73e-09 -3.01016e-10 -2.701e-10)
(3.3118e-09 -1.70594e-10 -3.59784e-10)
(4.00709e-09 5.97727e-11 -4.76024e-10)
(4.76994e-09 3.99941e-10 -6.15751e-10)
(5.43844e-09 7.77859e-10 -7.51383e-10)
(6.42437e-09 1.50482e-09 -9.74543e-10)
(0 0 0)
(2.49443e-10 -7.10577e-11 -1.07887e-11)
(4.83988e-10 -1.38047e-10 -2.15636e-11)
(7.05268e-10 -2.01319e-10 -3.29747e-11)
(9.22493e-10 -2.62858e-10 -4.5996e-11)
(1.14471e-09 -3.23831e-10 -6.16726e-11)
(1.38146e-09 -3.84454e-10 -8.123e-11)
(1.64349e-09 -4.43754e-10 -1.06196e-10)
(1.9434e-09 -4.99167e-10 -1.38555e-10)
(2.29625e-09 -5.45958e-10 -1.80937e-10)
(2.71996e-09 -5.76498e-10 -2.36849e-10)
(3.23461e-09 -5.79583e-10 -3.10883e-10)
(3.85905e-09 -5.40519e-10 -4.08595e-10)
(4.59972e-09 -4.441e-10 -5.34966e-10)
(5.41974e-09 -2.86045e-10 -6.8793e-10)
(6.16232e-09 -1.03418e-10 -8.38088e-10)
(7.38702e-09 2.49235e-10 -1.07894e-09)
(0 0 0)
(2.97496e-10 -8.51759e-11 -1.25139e-11)
(5.76272e-10 -1.65756e-10 -2.49465e-11)
(8.37343e-10 -2.42477e-10 -3.79807e-11)
(1.09063e-09 -3.18147e-10 -5.26519e-11)
(1.34551e-09 -3.94826e-10 -7.0031e-11)
(1.61138e-09 -4.73869e-10 -9.13179e-11)
(1.89812e-09 -5.55923e-10 -1.17937e-10)
(2.21651e-09 -6.40938e-10 -1.51638e-10)
(2.57841e-09 -7.28239e-10 -1.94616e-10)
(2.99665e-09 -8.16775e-10 -2.49629e-10)
(3.48431e-09 -9.05645e-10 -3.20067e-10)
(4.0526e-09 -9.94773e-10 -4.09739e-10)
(4.70495e-09 -1.08479e-09 -5.21532e-10)
(5.41886e-09 -1.17322e-09 -6.52253e-10)
(6.08391e-09 -1.24289e-09 -7.76992e-10)
(7.39382e-09 -1.29428e-09 -9.70443e-10)
(0 0 0)
(3.37855e-10 -9.66418e-11 -1.37457e-11)
(6.53268e-10 -1.8838e-10 -2.73203e-11)
(9.46241e-10 -2.76385e-10 -4.13856e-11)
(1.22676e-09 -3.64273e-10 -5.69648e-11)
(1.50379e-09 -4.55027e-10 -7.50662e-11)
(1.78571e-09 -5.51193e-10 -9.67501e-11)
(2.08045e-09 -6.55117e-10 -1.23178e-10)
(2.39542e-09 -7.69319e-10 -1.55644e-10)
(2.73708e-09 -8.9713e-10 -1.95568e-10)
(3.10989e-09 -1.04378e-09 -2.44432e-10)
(3.51455e-09 -1.218e-09 -3.0356e-10)
(3.94536e-09 -1.4337e-09 -3.73565e-10)
(4.3875e-09 -1.70847e-09 -4.52967e-10)
(4.81549e-09 -2.0482e-09 -5.34965e-10)
(5.18448e-09 -2.39e-09 -6.01638e-10)
(6.20095e-09 -2.89841e-09 -6.78546e-10)
(0 0 0)
(3.70428e-10 -1.04849e-10 -1.4505e-11)
(7.14921e-10 -2.04687e-10 -2.87358e-11)
(1.03219e-09 -3.01096e-10 -4.32911e-11)
(1.33177e-09 -3.98374e-10 -5.91259e-11)
(1.62175e-09 -5.00274e-10 -7.71271e-11)
(1.909e-09 -6.10312e-10 -9.815e-11)
(2.19896e-09 -7.32148e-10 -1.23023e-10)
(2.49524e-09 -8.70135e-10 -1.52507e-10)
(2.79843e-09 -1.0302e-09 -1.8719e-10)
(3.10417e-09 -1.22125e-09 -2.27255e-10)
(3.39985e-09 -1.45717e-09 -2.7204e-10)
(3.65992e-09 -1.75917e-09 -3.19233e-10)
(3.84099e-09 -2.15587e-09 -3.63482e-10)
(3.88477e-09 -2.66983e-09 -3.94754e-10)
(3.76762e-09 -3.24015e-09 -4.01167e-10)
(3.56173e-09 -4.35531e-09 -2.8638e-10)
(0 0 0)
(3.95529e-10 -1.09275e-10 -1.48444e-11)
(7.62001e-10 -2.13615e-10 -2.93091e-11)
(1.09669e-09 -3.14931e-10 -4.39024e-11)
(1.40836e-09 -4.1798e-10 -5.94761e-11)
(1.70402e-09 -5.27013e-10 -7.67679e-11)
(1.98889e-09 -6.46119e-10 -9.64134e-11)
(2.26614e-09 -7.79612e-10 -1.18918e-10)
(2.5361e-09 -9.32534e-10 -1.44578e-10)
(2.79488e-09 -1.11137e-09 -1.73323e-10)
(3.03202e-09 -1.32501e-09 -2.04443e-10)
(3.227e-09 -1.58576e-09 -2.36158e-10)
(3.34436e-09 -1.90971e-09 -2.64984e-10)
(3.32938e-09 -2.31341e-09 -2.85027e-10)
(3.11285e-09 -2.79713e-09 -2.88068e-10)
(2.65431e-09 -3.2806e-09 -2.67775e-10)
(-1.61485e-10 -5.22496e-09 -1.61198e-10)
(0 0 0)
(0 0 0)
(0 0 0)
(0 0 0)
(0 0 0)
(0 0 0)
(0 0 0)
(0 0 0)
(0 0 0)
(0 0 0)
(0 0 0)
(0 0 0)
(0 0 0)
(0 0 0)
(0 0 0)
(0 0 0)
(0 0 0)
(0 0 0)
(6.85577e-11 -1.93832e-11 -2.73063e-12)
(1.33474e-10 -3.75099e-11 -5.47863e-12)
(1.95637e-10 -5.43006e-11 -8.43088e-12)
(2.58086e-10 -7.0042e-11 -1.1863e-11)
(3.23988e-10 -8.46358e-11 -1.60823e-11)
(3.96925e-10 -9.74313e-11 -2.14619e-11)
(4.8121e-10 -1.06941e-10 -2.84795e-11)
(5.82211e-10 -1.10368e-10 -3.77584e-11)
(7.06616e-10 -1.02847e-10 -5.01023e-11)
(8.62433e-10 -7.63086e-11 -6.64879e-11)
(1.05823e-09 -1.79398e-11 -8.79303e-11)
(1.3007e-09 9.13108e-11 -1.15029e-10)
(1.58888e-09 2.76187e-10 -1.46894e-10)
(1.90313e-09 5.5687e-10 -1.79299e-10)
(2.1823e-09 8.98972e-10 -2.03304e-10)
(2.80563e-09 2.11217e-09 -2.09693e-10)
(0 0 0)
(1.34752e-10 -3.83313e-11 -5.31667e-12)
(2.62165e-10 -7.4245e-11 -1.06567e-11)
(3.83814e-10 -1.07666e-10 -1.63723e-11)
(5.05468e-10 -1.39278e-10 -2.29847e-11)
(6.33066e-10 -1.69081e-10 -3.10677e-11)
(7.73248e-10 -1.96121e-10 -4.13108e-11)
(9.33908e-10 -2.18042e-10 -5.45869e-11)
(1.12478e-09 -2.30339e-10 -7.20277e-11)
(1.35792e-09 -2.25202e-10 -9.50922e-11)
(1.64774e-09 -1.89842e-10 -1.25583e-10)
(2.0097e-09 -1.04484e-10 -1.65481e-10)
(2.45572e-09 5.8834e-11 -2.16324e-10)
(2.98284e-09 3.32481e-10 -2.77597e-10)
(3.54976e-09 7.31996e-10 -3.43571e-10)
(4.0353e-09 1.18458e-09 -3.98826e-10)
(4.65227e-09 2.07758e-09 -4.84536e-10)
(0 0 0)
(1.96514e-10 -5.63809e-11 -7.6336e-12)
(3.81906e-10 -1.09355e-10 -1.52761e-11)
(5.58066e-10 -1.58989e-10 -2.34066e-11)
(7.32934e-10 -2.06546e-10 -3.27367e-11)
(9.14524e-10 -2.52437e-10 -4.40351e-11)
(1.11159e-09 -2.95965e-10 -5.82046e-11)
(1.33431e-09 -3.34885e-10 -7.63641e-11)
(1.59496e-09 -3.64684e-10 -9.99372e-11)
(1.90857e-09 -3.77509e-10 -1.30737e-10)
(2.29295e-09 -3.6071e-10 -1.71003e-10)
(2.76742e-09 -2.95343e-10 -2.23274e-10)
(3.34751e-09 -1.56055e-10 -2.8978e-10)
(4.03121e-09 8.31824e-11 -3.70697e-10)
(4.76807e-09 4.26306e-10 -4.60048e-10)
(5.40201e-09 7.9534e-10 -5.38072e-10)
(6.30142e-09 1.46941e-09 -6.46905e-10)
(0 0 0)
(2.52163e-10 -7.29866e-11 -9.58622e-12)
(4.8935e-10 -1.41798e-10 -1.91422e-11)
(7.13301e-10 -2.06792e-10 -2.92242e-11)
(9.33415e-10 -2.69987e-10 -4.06656e-11)
(1.15891e-09 -3.32525e-10 -5.43397e-11)
(1.39949e-09 -3.94527e-10 -7.12362e-11)
(1.66601e-09 -4.54823e-10 -9.25351e-11)
(1.97106e-09 -5.10522e-10 -1.19678e-10)
(2.32953e-09 -5.56405e-10 -1.54423e-10)
(2.75864e-09 -5.84209e-10 -1.98856e-10)
(3.27697e-09 -5.82039e-10 -2.55235e-10)
(3.90049e-09 -5.34762e-10 -3.25408e-10)
(4.63114e-09 -4.2767e-10 -4.09141e-10)
(5.42788e-09 -2.58862e-10 -5.00032e-10)
(6.13905e-09 -6.95774e-11 -5.77884e-10)
(7.27357e-09 2.85789e-10 -6.77069e-10)
(0 0 0)
(3.00543e-10 -8.75331e-11 -1.11176e-11)
(5.82251e-10 -1.70358e-10 -2.21417e-11)
(8.46237e-10 -2.49244e-10 -3.36541e-11)
(1.10261e-09 -3.27067e-10 -4.65378e-11)
(1.36089e-09 -4.05908e-10 -6.16807e-11)
(1.63062e-09 -4.87075e-10 -8.00369e-11)
(1.92177e-09 -5.7109e-10 -1.02672e-10)
(2.24507e-09 -6.57667e-10 -1.30785e-10)
(2.61216e-09 -7.45758e-10 -1.65692e-10)
(3.03531e-09 -8.33752e-10 -2.08723e-10)
(3.52648e-09 -9.19917e-10 -2.60944e-10)
(4.09502e-09 -1.00291e-09 -3.22492e-10)
(4.7419e-09 -1.08141e-09 -3.9115e-10)
(5.44309e-09 -1.1507e-09 -4.59627e-10)
(6.09211e-09 -1.19564e-09 -5.12381e-10)
(7.33856e-09 -1.18289e-09 -5.65663e-10)
(0 0 0)
(3.4106e-10 -9.93683e-11 -1.22106e-11)
(6.59524e-10 -1.93724e-10 -2.42455e-11)
(9.55465e-10 -2.84295e-10 -3.66655e-11)
(1.23902e-09 -3.74811e-10 -5.03396e-11)
(1.51931e-09 -4.68321e-10 -6.60965e-11)
(1.80477e-09 -5.67387e-10 -8.4761e-11)
(2.10336e-09 -6.74313e-10 -1.0716e-10)
(2.4224e-09 -7.91494e-10 -1.34085e-10)
(2.76811e-09 -9.22012e-10 -1.66174e-10)
(3.14448e-09 -1.07063e-09 -2.03671e-10)
(3.55154e-09 -1.24518e-09 -2.45958e-10)
(3.98298e-09 -1.45757e-09 -2.90738e-10)
(4.42424e-09 -1.72134e-09 -3.32798e-10)
(4.85229e-09 -2.03598e-09 -3.63087e-10)
(5.22581e-09 -2.3384e-09 -3.72477e-10)
(6.22761e-09 -2.73062e-09 -3.39512e-10)
(0 0 0)
(3.7364e-10 -1.07862e-10 -1.28842e-11)
(7.21151e-10 -2.10611e-10 -2.54999e-11)
(1.04128e-09 -3.09915e-10 -3.83507e-11)
(1.34368e-09 -4.10222e-10 -5.22446e-11)
(1.63654e-09 -5.15396e-10 -6.79026e-11)
(1.92673e-09 -6.29027e-10 -8.5971e-11)
(2.21968e-09 -7.54804e-10 -1.06991e-10)
(2.51882e-09 -8.97041e-10 -1.31309e-10)
(2.82447e-09 -1.06152e-09 -1.5889e-10)
(3.13185e-09 -1.25674e-09 -1.88984e-10)
(3.428e-09 -1.49563e-09 -2.19567e-10)
(3.68766e-09 -1.79703e-09 -2.46504e-10)
(3.86972e-09 -2.18439e-09 -2.62611e-10)
(3.92175e-09 -2.6715e-09 -2.58059e-10)
(3.8244e-09 -3.19536e-09 -2.28973e-10)
(3.64205e-09 -4.17974e-09 -7.15802e-11)
(0 0 0)
(3.98623e-10 -1.12466e-10 -1.31857e-11)
(7.67958e-10 -2.19907e-10 -2.60089e-11)
(1.10527e-09 -3.24342e-10 -3.88934e-11)
(1.41942e-09 -4.30705e-10 -5.2557e-11)
(1.71744e-09 -5.43393e-10 -6.75926e-11)
(2.00453e-09 -6.66607e-10 -8.44616e-11)
(2.28376e-09 -8.04735e-10 -1.03442e-10)
(2.55526e-09 -9.62831e-10 -1.24514e-10)
(2.81481e-09 -1.14727e-09 -1.47164e-10)
(3.05159e-09 -1.36655e-09 -1.70066e-10)
(3.24487e-09 -1.632e-09 -1.90634e-10)
(3.35985e-09 -1.9573e-09 -2.04532e-10)
(3.3446e-09 -2.35398e-09 -2.05557e-10)
(3.13612e-09 -2.81426e-09 -1.8736e-10)
(2.699e-09 -3.25417e-09 -1.50714e-10)
(-8.66021e-11 -5.08477e-09 -2.36478e-11)
(0 0 0)
(0 0 0)
(0 0 0)
(0 0 0)
(0 0 0)
(0 0 0)
(0 0 0)
(0 0 0)
(0 0 0)
(0 0 0)
(0 0 0)
(0 0 0)
(0 0 0)
(0 0 0)
(0 0 0)
(0 0 0)
(0 0 0)
(0 0 0)
(6.92258e-11 -1.97911e-11 -2.29553e-12)
(1.34798e-10 -3.82927e-11 -4.60117e-12)
(1.97634e-10 -5.54145e-11 -7.06837e-12)
(2.60822e-10 -7.14332e-11 -9.91979e-12)
(3.27569e-10 -8.62215e-11 -1.33975e-11)
(4.01488e-10 -9.90734e-11 -1.77858e-11)
(4.86897e-10 -1.08411e-10 -2.34326e-11)
(5.89113e-10 -1.11313e-10 -3.07667e-11)
(7.14663e-10 -1.02767e-10 -4.02988e-11)
(8.7119e-10 -7.46018e-11 -5.25811e-11)
(1.06658e-09 -1.41198e-11 -6.80694e-11)
(1.30641e-09 9.70494e-11 -8.67999e-11)
(1.58845e-09 2.81913e-10 -1.07796e-10)
(1.89248e-09 5.57902e-10 -1.28316e-10)
(2.15983e-09 8.89935e-10 -1.43563e-10)
(2.75276e-09 2.06898e-09 -1.57942e-10)
(0 0 0)
(1.36037e-10 -3.91451e-11 -4.46925e-12)
(2.64708e-10 -7.58104e-11 -8.94927e-12)
(3.87643e-10 -1.09903e-10 -1.37252e-11)
(5.10699e-10 -1.42093e-10 -1.92174e-11)
(6.39893e-10 -1.72332e-10 -2.58769e-11)
(7.8192e-10 -1.99567e-10 -3.42255e-11)
(9.44685e-10 -2.21282e-10 -4.48926e-11)
(1.13783e-09 -2.32743e-10 -5.8642e-11)
(1.37314e-09 -2.25862e-10 -7.63724e-11)
(1.66437e-09 -1.8763e-10 -9.90475e-11)
(2.02575e-09 -9.83684e-11 -1.27474e-10)
(2.46719e-09 6.8922e-11 -1.6178e-10)
(2.98326e-09 3.44028e-10 -2.00449e-10)
(3.53137e-09 7.3837e-10 -2.38961e-10)
(3.99468e-09 1.17793e-09 -2.68766e-10)
(4.56016e-09 2.02857e-09 -3.10179e-10)
(0 0 0)
(1.98324e-10 -5.75948e-11 -6.41637e-12)
(3.85479e-10 -1.11697e-10 -1.28274e-11)
(5.63427e-10 -1.62358e-10 -1.96198e-11)
(7.40224e-10 -2.10832e-10 -2.73666e-11)
(9.23989e-10 -2.57475e-10 -3.66688e-11)
(1.12355e-09 -3.01475e-10 -4.82031e-11)
(1.34909e-09 -3.40383e-10 -6.27608e-11)
(1.61281e-09 -3.69391e-10 -8.12692e-11)
(1.92936e-09 -3.80265e-10 -1.04776e-10)
(2.31583e-09 -3.59979e-10 -1.3435e-10)
(2.79001e-09 -2.89462e-10 -1.70798e-10)
(3.36503e-09 -1.43997e-10 -2.14065e-10)
(4.0357e-09 1.00307e-10 -2.62108e-10)
(4.74962e-09 4.43696e-10 -3.09265e-10)
(5.35563e-09 8.06289e-10 -3.44985e-10)
(6.18745e-09 1.45549e-09 -3.81532e-10)
(0 0 0)
(2.54375e-10 -7.45855e-11 -8.05694e-12)
(4.93704e-10 -1.44895e-10 -1.60721e-11)
(7.19801e-10 -2.1128e-10 -2.44933e-11)
(9.42198e-10 -2.75767e-10 -3.39892e-11)
(1.17022e-09 -3.39454e-10 -4.52382e-11)
(1.41367e-09 -4.02349e-10 -5.89712e-11)
(1.6834e-09 -4.63075e-10 -7.59966e-11)
(1.99192e-09 -5.18413e-10 -9.7196e-11)
(2.3538e-09 -5.62693e-10 -1.23464e-10)
(2.78555e-09 -5.87095e-10 -1.55542e-10)
(3.30444e-09 -5.79186e-10 -1.9367e-10)
(3.92423e-09 -5.23608e-10 -2.36921e-10)
(4.64395e-09 -4.06267e-10 -2.82165e-10)
(5.42045e-09 -2.27248e-10 -3.22918e-10)
(6.10574e-09 -3.09433e-11 -3.49809e-10)
(7.16908e-09 3.29471e-10 -3.62878e-10)
(0 0 0)
(3.03022e-10 -8.94875e-11 -9.34332e-12)
(5.87109e-10 -1.7416e-10 -1.85891e-11)
(8.53442e-10 -2.54794e-10 -2.82033e-11)
(1.11226e-09 -3.343e-10 -3.88922e-11)
(1.3732e-09 -4.1474e-10 -5.13395e-11)
(1.64587e-09 -4.97331e-10 -6.62346e-11)
(1.94026e-09 -5.82407e-10 -8.42707e-11)
(2.26703e-09 -6.6936e-10 -1.06095e-10)
(2.63759e-09 -7.56645e-10 -1.32179e-10)
(3.06371e-09 -8.41923e-10 -1.62553e-10)
(3.55652e-09 -9.2244e-10 -1.96333e-10)
(4.12408e-09 -9.95524e-10 -2.30999e-10)
(4.76569e-09 -1.05847e-09 -2.61589e-10)
(5.45587e-09 -1.10629e-09 -2.80873e-10)
(6.08924e-09 -1.12854e-09 -2.83958e-10)
(7.27582e-09 -1.07664e-09 -2.52781e-10)
(0 0 0)
(3.43667e-10 -1.0163e-10 -1.02614e-11)
(6.64609e-10 -1.9814e-10 -2.03545e-11)
(9.62946e-10 -2.90787e-10 -3.07256e-11)
(1.24894e-09 -3.83363e-10 -4.20673e-11)
(1.53179e-09 -4.78927e-10 -5.50107e-11)
(1.82e-09 -5.79987e-10 -7.01336e-11)
(2.12153e-09 -6.8869e-10 -8.79269e-11)
(2.44367e-09 -8.07136e-10 -1.08696e-10)
(2.79249e-09 -9.37895e-10 -1.32357e-10)
(3.17177e-09 -1.08487e-09 -1.58074e-10)
(3.58133e-09 -1.25445e-09 -1.83662e-10)
(4.01478e-09 -1.45628e-09 -2.04787e-10)
(4.45773e-09 -1.70071e-09 -2.14351e-10)
(4.8872e-09 -1.98492e-09 -2.03979e-10)
(5.26017e-09 -2.25179e-09 -1.73671e-10)
(6.22925e-09 -2.57558e-09 -7.35996e-11)
(0 0 0)
(3.76251e-10 -1.10362e-10 -1.08276e-11)
(7.26213e-10 -2.1551e-10 -2.1408e-11)
(1.04865e-09 -3.17159e-10 -3.21391e-11)
(1.35333e-09 -4.19848e-10 -4.36622e-11)
(1.64849e-09 -5.27485e-10 -5.65196e-11)
(1.94104e-09 -6.43636e-10 -7.1144e-11)
(2.2364e-09 -7.71871e-10 -8.77991e-11)
(2.53798e-09 -9.16242e-10 -1.06448e-10)
(2.84603e-09 -1.08202e-09 -1.26509e-10)
(3.15582e-09 -1.27679e-09 -1.46456e-10)
(3.45472e-09 -1.51182e-09 -1.63209e-10)
(3.71843e-09 -1.80314e-09 -1.71392e-10)
(3.90769e-09 -2.17004e-09 -1.62944e-10)
(3.97179e-09 -2.62283e-09 -1.29161e-10)
(3.88801e-09 -3.10474e-09 -7.27617e-11)
(3.70342e-09 -4.01479e-09 1.19099e-10)
(0 0 0)
(4.01136e-10 -1.15117e-10 -1.10817e-11)
(7.72797e-10 -2.25116e-10 -2.18373e-11)
(1.11225e-09 -3.32081e-10 -3.25985e-11)
(1.42841e-09 -4.41062e-10 -4.39328e-11)
(1.72834e-09 -5.56522e-10 -5.62799e-11)
(2.01728e-09 -6.82667e-10 -6.99283e-11)
(2.29826e-09 -8.238e-10 -8.49448e-11)
(2.57138e-09 -9.84742e-10 -1.01036e-10)
(2.83243e-09 -1.17139e-09 -1.17321e-10)
(3.0708e-09 -1.39132e-09 -1.31986e-10)
(3.2664e-09 -1.65421e-09 -1.41851e-10)
(3.38593e-09 -1.97099e-09 -1.42001e-10)
(3.38017e-09 -2.34931e-09 -1.26097e-10)
(3.18889e-09 -2.77836e-09 -8.9059e-11)
(2.77503e-09 -3.17932e-09 -3.60298e-11)
(8.76972e-12 -4.94286e-09 1.34504e-10)
(0 0 0)
(0 0 0)
(0 0 0)
(0 0 0)
(0 0 0)
(0 0 0)
(0 0 0)
(0 0 0)
(0 0 0)
(0 0 0)
(0 0 0)
(0 0 0)
(0 0 0)
(0 0 0)
(0 0 0)
(0 0 0)
(0 0 0)
(0 0 0)
(6.97415e-11 -2.01099e-11 -1.78563e-12)
(1.35817e-10 -3.89021e-11 -3.57568e-12)
(1.99165e-10 -5.62756e-11 -5.48359e-12)
(2.62903e-10 -7.24971e-11 -7.67538e-12)
(3.30263e-10 -8.74145e-11 -1.03263e-11)
(4.04866e-10 -1.00277e-10 -1.36339e-11)
(4.91014e-10 -1.09442e-10 -1.78256e-11)
(5.93955e-10 -1.11901e-10 -2.31593e-11)
(7.20056e-10 -1.02565e-10 -2.99035e-11)
(8.76652e-10 -7.32504e-11 -3.82832e-11)
(1.07111e-09 -1.14432e-11 -4.83626e-11)
(1.30832e-09 1.00649e-10 -5.98436e-11)
(1.58534e-09 2.84913e-10 -7.18039e-11)
(1.88183e-09 5.57469e-10 -8.25524e-11)
(2.14085e-09 8.8363e-10 -8.99069e-11)
(2.71089e-09 2.04571e-09 -9.78277e-11)
(0 0 0)
(1.37029e-10 -3.97811e-11 -3.47637e-12)
(2.66667e-10 -7.70287e-11 -6.95439e-12)
(3.90579e-10 -1.11632e-10 -1.06474e-11)
(5.14682e-10 -1.44245e-10 -1.48682e-11)
(6.45036e-10 -1.74774e-10 -1.99427e-11)
(7.88356e-10 -2.02087e-10 -2.62306e-11)
(9.52521e-10 -2.23541e-10 -3.41378e-11)
(1.14706e-09 -2.34238e-10 -4.41101e-11)
(1.38347e-09 -2.25922e-10 -5.65923e-11)
(1.67498e-09 -1.85498e-10 -7.19214e-11)
(2.03492e-09 -9.35021e-11 -9.01144e-11)
(2.47196e-09 7.62439e-11 -1.10517e-10)
(2.97938e-09 3.51842e-10 -1.31369e-10)
(3.51443e-09 7.42685e-10 -1.49596e-10)
(3.96348e-09 1.17509e-09 -1.61483e-10)
(4.49978e-09 2.00771e-09 -1.73255e-10)
(0 0 0)
(1.99721e-10 -5.8543e-11 -4.99068e-12)
(3.88232e-10 -1.1352e-10 -9.96751e-12)
(5.67541e-10 -1.64961e-10 -1.52191e-11)
(7.45784e-10 -2.14105e-10 -2.11712e-11)
(9.3114e-10 -2.61256e-10 -2.82555e-11)
(1.13246e-09 -3.05494e-10 -3.6933e-11)
(1.35992e-09 -3.44201e-10 -4.77004e-11)
(1.62557e-09 -3.72334e-10 -6.10676e-11)
(1.94376e-09 -3.81376e-10 -7.74836e-11)
(2.33095e-09 -3.58067e-10 -9.71742e-11)
(2.80393e-09 -2.83335e-10 -1.19847e-10)
(3.37433e-09 -1.33037e-10 -1.44249e-10)
(4.03545e-09 1.15257e-10 -1.67696e-10)
(4.73457e-09 4.5972e-10 -1.86071e-10)
(5.32426e-09 8.19811e-10 -1.95515e-10)
(6.12534e-09 1.45974e-09 -1.92394e-10)
(0 0 0)
(2.56084e-10 -7.58346e-11 -6.26645e-12)
(4.97061e-10 -1.47306e-10 -1.24883e-11)
(7.24796e-10 -2.14747e-10 -1.89983e-11)
(9.48912e-10 -2.8018e-10 -2.62923e-11)
(1.17881e-09 -3.44649e-10 -3.48539e-11)
(1.42431e-09 -4.08047e-10 -4.51716e-11)
(1.69627e-09 -4.68798e-10 -5.77296e-11)
(2.0071e-09 -5.23388e-10 -7.29556e-11)
(2.37108e-09 -5.65747e-10 -9.10978e-11)
(2.80424e-09 -5.8659e-10 -1.1199e-10)
(3.32297e-09 -5.73067e-10 -1.34667e-10)
(3.93984e-09 -5.0971e-10 -1.56864e-10)
(4.65254e-09 -3.83012e-10 -1.74678e-10)
(5.4174e-09 -1.94718e-10 -1.83296e-10)
(6.08916e-09 8.17772e-12 -1.80932e-10)
(7.12637e-09 3.73791e-10 -1.51874e-10)
(0 0 0)
(3.04937e-10 -9.10149e-11 -7.26678e-12)
(5.90858e-10 -1.77119e-10 -1.44436e-11)
(8.58988e-10 -2.59082e-10 -2.18754e-11)