/*--------------------------------*- C++ -*----------------------------------*\
| =========                 |                                                 |
| \\      /  F ield         | foam-extend: Open Source CFD                    |
|  \\    /   O peration     | Version:     3.1                                |
|   \\  /    A nd           | Web:         http://www.extend-project.de       |
|    \\/     M anipulation  |                                                 |
\*---------------------------------------------------------------------------*/
FoamFile
{
    version     2.0;
    format      ascii;
    class       surfaceVectorField;
    location    "1.8";
    object      Sf;
}
// * * * * * * * * * * * * * * * * * * * * * * * * * * * * * * * * * * * * * //

dimensions      [0 2 0 0 0 0 0];

internalField   nonuniform List<vector> 
41600
(
(0.000625315 -1.596e-06 -8.39083e-09)
(-3.14396e-07 0.000704721 -7.34076e-09)
(1.68695e-08 1.89782e-08 0.000704108)
(-1.72198e-08 -1.93723e-08 -0.000704092)
(0.000625616 -3.07688e-06 -1.60389e-08)
(-3.00758e-07 0.000704607 -2.19531e-08)
(1.67681e-08 5.68173e-08 0.000704403)
(-1.71082e-08 -5.7988e-08 -0.000704373)
(0.000625909 -4.428e-06 -2.27227e-08)
(-2.9301e-07 0.000704478 -3.67971e-08)
(1.76909e-08 9.55699e-08 0.000704679)
(-1.80229e-08 -9.74968e-08 -0.000704636)
(0.000626209 -5.68016e-06 -2.84017e-08)
(-2.99378e-07 0.00070438 -5.28243e-08)
(2.00788e-08 1.38029e-07 0.00070497)
(-2.04014e-08 -1.40692e-07 -0.000704912)
(0.000626528 -6.85853e-06 -3.31775e-08)
(-3.18626e-07 0.000704307 -7.12322e-08)
(2.38983e-08 1.87443e-07 0.00070529)
(-2.41916e-08 -1.90801e-07 -0.000705214)
(0.000626879 -7.9877e-06 -3.72281e-08)
(-3.50588e-07 0.000704258 -9.33626e-08)
(2.90758e-08 2.46944e-07 0.000705652)
(-2.92998e-08 -2.50885e-07 -0.000705554)
(0.000627274 -9.08703e-06 -4.01174e-08)
(-3.95012e-07 0.000704229 -1.20724e-07)
(3.54723e-08 3.19421e-07 0.000706069)
(-3.55679e-08 -3.23726e-07 -0.000705945)
(0.000627726 -1.01668e-05 -4.11144e-08)
(-4.52359e-07 0.000704209 -1.55063e-07)
(4.28661e-08 4.07363e-07 0.000706552)
(-4.27258e-08 -4.11625e-07 -0.000706396)
(0.000628249 -1.12296e-05 -3.94667e-08)
(-5.23852e-07 0.000704191 -1.98788e-07)
(5.05671e-08 5.12243e-07 0.000707112)
(-4.99929e-08 -5.15715e-07 -0.000706915)
(0.000628858 -1.2259e-05 -3.3394e-08)
(-6.10122e-07 0.000704156 -2.55334e-07)
(5.69117e-08 6.32919e-07 0.000707759)
(-5.56449e-08 -6.34342e-07 -0.000707509)
(0.00062957 -1.3222e-05 -2.07218e-08)
(-7.14383e-07 0.000704085 -3.30168e-07)
(5.84435e-08 7.62576e-07 0.000708503)
(-5.6182e-08 -7.60058e-07 -0.000708186)
(0.000630408 -1.40581e-05 1.88007e-10)
(-8.41545e-07 0.000703952 -4.33413e-07)
(4.88169e-08 8.83542e-07 0.000709361)
(-4.52041e-08 -8.74436e-07 -0.000708948)
(0.000631399 -1.46779e-05 2.80874e-08)
(-9.9661e-07 0.000703725 -5.8512e-07)
(1.5967e-08 9.57823e-07 0.000710356)
(-1.05277e-08 -9.38502e-07 -0.000709799)
(0.000632563 -1.50009e-05 5.12451e-08)
(-1.17258e-06 0.000703413 -8.24723e-07)
(-5.72481e-08 9.15209e-07 0.000711547)
(6.58898e-08 -8.79869e-07 -0.000710745)
(0.000633764 -1.50473e-05 2.82747e-08)
(-1.22739e-06 0.000703096 -1.20876e-06)
(-1.71445e-07 6.6559e-07 0.000712972)
(1.97903e-07 -5.90727e-07 -0.00071174)
(-5.13518e-06 0.000702313 -5.95284e-07)
(-1.05309e-06 -6.68329e-07 0.000716391)
(2.09764e-06 1.91115e-06 -0.000715814)
(0.000625303 -1.57696e-06 -2.52644e-08)
(-6.16215e-07 0.000706299 -1.43936e-08)
(4.97721e-08 1.80355e-08 0.000705695)
(-5.08174e-08 -1.84233e-08 -0.000705663)
(0.000625592 -3.0423e-06 -4.84462e-08)
(-5.89205e-07 0.000706074 -4.30233e-08)
(4.93715e-08 5.38755e-08 0.000705862)
(-5.03947e-08 -5.50371e-08 -0.000705818)
(0.000625874 -4.37993e-06 -6.8958e-08)
(-5.73458e-07 0.000705818 -7.20624e-08)
(5.1978e-08 9.03219e-08 0.000705994)
(-5.29903e-08 -9.22615e-08 -0.000705939)
(0.000626161 -5.61985e-06 -8.65226e-08)
(-5.8529e-07 0.000705622 -1.03345e-07)
(5.89183e-08 1.30015e-07 0.000706171)
(-5.99104e-08 -1.32738e-07 -0.000706103)
(0.000626466 -6.79134e-06 -1.01671e-07)
(-6.22529e-07 0.000705482 -1.39247e-07)
(7.00189e-08 1.75976e-07 0.000706402)
(-7.09349e-08 -1.79463e-07 -0.000706319)
(0.0006268 -7.91836e-06 -1.14852e-07)
(-6.8404e-07 0.000705389 -1.82407e-07)
(8.50783e-08 2.31049e-07 0.000706698)
(-8.58254e-08 -2.35248e-07 -0.000706595)
(0.000627175 -9.01753e-06 -1.24622e-07)
(-7.69616e-07 0.000705333 -2.35679e-07)
(1.03951e-07 2.98161e-07 0.000707062)
(-1.04323e-07 -3.0291e-07 -0.000706938)
(0.000627602 -1.0101e-05 -1.29065e-07)
(-8.80201e-07 0.000705297 -3.0259e-07)
(1.26146e-07 3.8034e-07 0.000707499)
(-1.25767e-07 -3.85203e-07 -0.000707347)
(0.000628093 -1.11743e-05 -1.25428e-07)
(-1.01672e-06 0.000705269 -3.87684e-07)
(1.49756e-07 4.79995e-07 0.000708009)
(-1.48068e-07 -4.84176e-07 -0.000707824)
(0.00062866 -1.2234e-05 -1.08899e-07)
(-1.18012e-06 0.000705218 -4.9712e-07)
(1.70521e-07 5.97939e-07 0.000708584)
(-1.66765e-07 -6.00198e-07 -0.000708359)
(0.000629311 -1.32554e-05 -7.35448e-08)
(-1.37229e-06 0.000705105 -6.40616e-07)
(1.79935e-07 7.32263e-07 0.000709211)
(-1.73187e-07 -7.30731e-07 -0.000708936)
(0.000630052 -1.41901e-05 -1.31943e-08)
(-1.59346e-06 0.000704879 -8.34845e-07)
(1.6247e-07 8.76295e-07 0.000709861)
(-1.51583e-07 -8.68257e-07 -0.00070952)
(0.000630875 -1.49537e-05 7.22714e-08)
(-1.83616e-06 0.000704471 -1.11083e-06)
(9.09513e-08 1.01715e-06 0.000710497)
(-7.43012e-08 -9.98634e-07 -0.000710057)
(0.000631723 -1.54374e-05 1.5993e-07)
(-2.04786e-06 0.000703861 -1.52567e-06)
(-6.88921e-08 1.13896e-06 0.000711102)
(9.55601e-08 -1.1035e-06 -0.000710489)
(0.000632362 -1.55862e-05 1.59018e-07)
(-1.93708e-06 0.00070318 -2.16047e-06)
(-3.06663e-07 1.23778e-06 0.000711716)
(3.77163e-07 -1.17257e-06 -0.000710764)
(-4.56289e-06 0.000701682 -1.90931e-06)
(-1.53703e-06 1.94143e-06 0.000711314)
(2.84002e-06 -2.76953e-06 -0.000710393)
(0.000625279 -1.53485e-06 -4.22311e-08)
(-8.93232e-07 0.000707834 -2.08542e-08)
(8.04215e-08 1.64367e-08 0.000707245)
(-8.21413e-08 -1.68079e-08 -0.000707197)
(0.000625545 -2.96151e-06 -8.12752e-08)
(-8.53437e-07 0.000707501 -6.2331e-08)
(7.95319e-08 4.8971e-08 0.000707274)
(-8.12246e-08 -5.00806e-08 -0.000707215)
(0.000625802 -4.26316e-06 -1.15962e-07)
(-8.29456e-07 0.000707121 -1.04362e-07)
(8.34676e-08 8.17779e-08 0.00070725)
(-8.51447e-08 -8.36109e-08 -0.000707183)
(0.000626064 -5.4724e-06 -1.46075e-07)
(-8.45585e-07 0.000706834 -1.49561e-07)
(9.44021e-08 1.17218e-07 0.000707302)
(-9.60522e-08 -1.19757e-07 -0.000707226)
(0.000626341 -6.62002e-06 -1.73249e-07)
(-8.98166e-07 0.000706633 -2.01398e-07)
(1.11905e-07 1.57938e-07 0.000707436)
(-1.13476e-07 -1.61196e-07 -0.000707347)
(0.000626643 -7.72572e-06 -1.97578e-07)
(-9.84504e-07 0.000706499 -2.6363e-07)
(1.35816e-07 2.06523e-07 0.000707653)
(-1.3716e-07 -2.10488e-07 -0.000707547)
(0.000626979 -8.80699e-06 -2.16616e-07)
(-1.10436e-06 0.000706418 -3.40226e-07)
(1.66267e-07 2.65827e-07 0.000707947)
(-1.67013e-07 -2.70357e-07 -0.000707824)
(0.000627357 -9.88227e-06 -2.27989e-07)
(-1.25871e-06 0.000706377 -4.3608e-07)
(2.02781e-07 3.38939e-07 0.000708319)
(-2.02307e-07 -3.43717e-07 -0.000708174)
(0.000627785 -1.09622e-05 -2.26697e-07)
(-1.44791e-06 0.000706353 -5.57387e-07)
(2.43169e-07 4.29321e-07 0.000708758)
(-2.40597e-07 -4.33764e-07 -0.00070859)
(0.000628272 -1.20578e-05 -2.05788e-07)
(-1.67245e-06 0.000706316 -7.12431e-07)
(2.82432e-07 5.40978e-07 0.000709247)
(-2.76512e-07 -5.44061e-07 -0.000709053)
(0.000628818 -1.31653e-05 -1.55893e-07)
(-1.92912e-06 0.000706213 -9.13587e-07)
(3.10841e-07 6.78652e-07 0.000709748)
(-2.99908e-07 -6.78611e-07 -0.000709525)
(0.000629412 -1.42605e-05 -6.5035e-08)
(-2.20558e-06 0.000705968 -1.18051e-06)
(3.10921e-07 8.4868e-07 0.000710194)
(-2.92842e-07 -8.42677e-07 -0.000709939)
(0.000630017 -1.52859e-05 7.52856e-08)
(-2.4702e-06 0.00070548 -1.54733e-06)
(2.55096e-07 1.0616e-06 0.000710483)
(-2.26762e-07 -1.04529e-06 -0.000710187)
(0.000630546 -1.61312e-05 2.5334e-07)
(-2.62174e-06 0.000704673 -2.07394e-06)
(1.13636e-07 1.33597e-06 0.000710521)
(-6.81992e-08 -1.30298e-06 -0.000710151)
(0.000630791 -1.66778e-05 3.86393e-07)
(-2.2796e-06 0.000703674 -2.85464e-06)
(-9.79427e-08 1.68693e-06 0.00071037)
(1.95106e-07 -1.63441e-06 -0.000709809)
(-5.23767e-06 0.000702866 -2.28744e-06)
(-5.29748e-07 2.37182e-06 0.000709161)
(7.88121e-07 -2.59842e-06 -0.000710061)
(0.000625244 -1.46829e-06 -5.85738e-08)
(-1.13442e-06 0.000709303 -2.64345e-08)
(1.0781e-07 1.43531e-08 0.000708735)
(-1.10156e-07 -1.46867e-08 -0.00070867)
(0.000625475 -2.8306e-06 -1.13241e-07)
(-1.08298e-06 0.000708865 -7.90338e-08)
(1.06349e-07 4.27329e-08 0.000708615)
(-1.08656e-07 -4.37237e-08 -0.000708543)
(0.000625699 -4.07372e-06 -1.61729e-07)
(-1.05121e-06 0.000708366 -1.32308e-07)
(1.1128e-07 7.12322e-08 0.000708429)
(-1.13552e-07 -7.28608e-08 -0.000708352)
(0.000625926 -5.22905e-06 -2.04984e-07)
(-1.06982e-06 0.000707992 -1.89556e-07)
(1.25482e-07 1.01751e-07 0.000708349)
(-1.27739e-07 -1.04027e-07 -0.000708266)
(0.000626163 -6.32038e-06 -2.45656e-07)
(-1.13306e-06 0.000707727 -2.55136e-07)
(1.48319e-07 1.36477e-07 0.000708376)
(-1.50527e-07 -1.39439e-07 -0.000708281)
(0.000626418 -7.37019e-06 -2.82605e-07)
(-1.23753e-06 0.000707552 -3.33541e-07)
(1.79817e-07 1.77632e-07 0.000708499)
(-1.81751e-07 -1.81283e-07 -0.000708392)
(0.000626697 -8.40372e-06 -3.13264e-07)
(-1.38239e-06 0.000707456 -4.29563e-07)
(2.20321e-07 2.27617e-07 0.000708712)
(-2.21501e-07 -2.31888e-07 -0.000708592)
(0.000627006 -9.44451e-06 -3.35622e-07)
(-1.5678e-06 0.000707423 -5.49061e-07)
(2.69737e-07 2.89272e-07 0.000709009)
(-2.69412e-07 -2.94016e-07 -0.000708874)
(0.000627348 -1.05135e-05 -3.43396e-07)
(-1.79346e-06 0.000707427 -6.99373e-07)
(3.26913e-07 3.66699e-07 0.000709372)
(-3.23893e-07 -3.7156e-07 -0.000709222)
(0.000627727 -1.16279e-05 -3.28167e-07)
(-2.05795e-06 0.000707435 -8.902e-07)
(3.88193e-07 4.66225e-07 0.000709776)
(-3.80721e-07 -4.70399e-07 -0.000709614)
(0.000628137 -1.2808e-05 -2.77841e-07)
(-2.35446e-06 0.000707395 -1.13553e-06)
(4.46033e-07 5.97571e-07 0.00071017)
(-4.31562e-07 -5.99474e-07 -0.000709999)
(0.000628567 -1.40659e-05 -1.74852e-07)
(-2.6603e-06 0.000707223 -1.45666e-06)
(4.87317e-07 7.76484e-07 0.00071047)
(-4.62432e-07 -7.73242e-07 -0.000710297)
(0.000628976 -1.53905e-05 2.57514e-09)
(-2.91952e-06 0.000706791 -1.8881e-06)
(4.89547e-07 1.02546e-06 0.000710539)
(-4.49392e-07 -1.0124e-06 -0.000710376)
(0.000629291 -1.66963e-05 2.67765e-07)
(-3.00051e-06 0.00070595 -2.48888e-06)
(4.24581e-07 1.36635e-06 0.000710221)
(-3.60664e-07 -1.3373e-06 -0.000710071)
(0.000629384 -1.77786e-05 5.86837e-07)
(-2.48505e-06 0.000704711 -3.36713e-06)
(2.71695e-07 1.78432e-06 0.000709552)
(-1.5877e-07 -1.73913e-06 -0.000709358)
(-5.45996e-06 0.00070471 -2.58499e-06)
(2.79841e-07 2.41785e-06 0.000708081)
(-5.88695e-07 -2.71684e-06 -0.000710072)
(0.0006252 -1.37363e-06 -7.39182e-08)
(-1.33116e-06 0.000710677 -3.09811e-08)
(1.31506e-07 1.22663e-08 0.000710138)
(-1.34414e-07 -1.25643e-08 -0.000710059)
(0.000625389 -2.64524e-06 -1.43284e-07)
(-1.26952e-06 0.000710137 -9.25771e-08)
(1.2949e-07 3.64788e-08 0.000709863)
(-1.32343e-07 -3.73656e-08 -0.00070978)
(0.000625571 -3.8037e-06 -2.05318e-07)
(-1.23042e-06 0.000709526 -1.54882e-07)
(1.35091e-07 6.06103e-08 0.00070951)
(-1.37913e-07 -6.2092e-08 -0.000709426)
(0.000625753 -4.87454e-06 -2.62361e-07)
(-1.24897e-06 0.000709065 -2.21782e-07)
(1.51765e-07 8.60958e-08 0.000709293)
(-1.54609e-07 -8.82118e-08 -0.000709203)
(0.000625941 -5.88074e-06 -3.16453e-07)
(-1.31789e-06 0.000708736 -2.98165e-07)
(1.78772e-07 1.14632e-07 0.0007092)
(-1.81599e-07 -1.17425e-07 -0.000709103)
(0.000626139 -6.84935e-06 -3.66069e-07)
(-1.43316e-06 0.000708525 -3.88937e-07)
(2.1624e-07 1.47873e-07 0.00070922)
(-2.18786e-07 -1.5138e-07 -0.000709115)
(0.000626351 -7.80544e-06 -4.10094e-07)
(-1.59264e-06 0.000708417 -4.99475e-07)
(2.64685e-07 1.87597e-07 0.000709346)
(-2.6643e-07 -1.91846e-07 -0.000709232)
(0.000626578 -8.77242e-06 -4.47014e-07)
(-1.79476e-06 0.000708395 -6.36241e-07)
(3.24796e-07 2.36209e-07 0.000709565)
(-3.24899e-07 -2.41173e-07 -0.000709441)
(0.000626819 -9.77821e-06 -4.70773e-07)
(-2.03764e-06 0.000708438 -8.07096e-07)
(3.97061e-07 2.97584e-07 0.000709854)
(-3.94076e-07 -3.03088e-07 -0.000709723)
(0.000627071 -1.08539e-05 -4.72787e-07)
(-2.31847e-06 0.000708516 -1.02241e-06)
(4.80469e-07 3.78246e-07 0.000710183)
(-4.72177e-07 -3.83795e-07 -0.000710049)
(0.000627331 -1.20427e-05 -4.40782e-07)
(-2.63078e-06 0.000708588 -1.29745e-06)
(5.71681e-07 4.89107e-07 0.000710505)
(-5.54644e-07 -4.93534e-07 -0.000710375)
(0.00062759 -1.34014e-05 -3.52372e-07)
(-2.95004e-06 0.000708582 -1.65523e-06)
(6.65167e-07 6.48376e-07 0.000710742)
(-6.34309e-07 -6.49053e-07 -0.000710631)
(0.000627828 -1.49718e-05 -1.72765e-07)
(-3.20997e-06 0.000708354 -2.13158e-06)
(7.44323e-07 8.82826e-07 0.00071075)
(-6.92801e-07 -8.75019e-07 -0.000710686)
(0.000628008 -1.67094e-05 1.40651e-07)
(-3.26186e-06 0.000707665 -2.78673e-06)
(7.71712e-07 1.21618e-06 0.000710319)
(-6.89701e-07 -1.19332e-06 -0.000710334)
(0.000628042 -1.83203e-05 6.43611e-07)
(-2.64606e-06 0.000706283 -3.73692e-06)
(6.59224e-07 1.62415e-06 0.000709307)
(-5.32508e-07 -1.5852e-06 -0.00070944)
(-5.61496e-06 0.000707172 -2.72142e-06)
(9.58859e-07 2.16459e-06 0.000707891)
(-1.8138e-06 -2.35233e-06 -0.000711074)
(0.000625149 -1.25241e-06 -8.84748e-08)
(-1.4765e-06 0.000711929 -3.43235e-08)
(1.51605e-07 1.029e-08 0.000711428)
(-1.55015e-07 -1.05577e-08 -0.000711336)
(0.000625289 -2.40915e-06 -1.71322e-07)
(-1.40663e-06 0.000711295 -1.02489e-07)
(1.48987e-07 3.04957e-08 0.000710996)
(-1.52336e-07 -3.12979e-08 -0.000710903)
(0.000625423 -3.45738e-06 -2.46377e-07)
(-1.36076e-06 0.000710575 -1.71299e-07)
(1.54858e-07 5.03209e-08 0.000710476)
(-1.58195e-07 -5.16664e-08 -0.000710384)
(0.000625555 -4.42165e-06 -3.16091e-07)
(-1.37737e-06 0.000710031 -2.44962e-07)
(1.7316e-07 7.07612e-08 0.000710114)
(-1.76556e-07 -7.26756e-08 -0.000710021)
(0.000625688 -5.32612e-06 -3.81217e-07)
(-1.4478e-06 0.000709643 -3.28609e-07)
(2.03033e-07 9.29836e-08 0.000709897)
(-2.06459e-07 -9.55214e-08 -0.000709801)
(0.000625824 -6.19081e-06 -4.42513e-07)
(-1.56626e-06 0.000709393 -4.2744e-07)
(2.44612e-07 1.18069e-07 0.00070981)
(-2.47809e-07 -1.21313e-07 -0.00070971)
(0.000625963 -7.03276e-06 -5.00714e-07)
(-1.72883e-06 0.000709262 -5.47092e-07)
(2.9859e-07 1.4717e-07 0.00070984)
(-3.01018e-07 -1.51208e-07 -0.000709734)
(0.000626101 -7.87267e-06 -5.54241e-07)
(-1.93221e-06 0.00070924 -6.94057e-07)
(3.66406e-07 1.81844e-07 0.000709969)
(-3.67194e-07 -1.86778e-07 -0.000709857)
(0.000626234 -8.73883e-06 -5.99011e-07)
(-2.17259e-06 0.00070931 -8.76162e-07)
(4.50035e-07 2.24677e-07 0.000710176)
(-4.47598e-07 -2.30597e-07 -0.000710063)
(0.000626353 -9.67425e-06 -6.27835e-07)
(-2.44578e-06 0.000709458 -1.10375e-06)
(5.5111e-07 2.80245e-07 0.000710435)
(-5.42888e-07 -2.87071e-07 -0.000710325)
(0.000626452 -1.07436e-05 -6.30616e-07)
(-2.74807e-06 0.000709664 -1.39257e-06)
(6.7053e-07 3.56464e-07 0.000710713)
(-6.52355e-07 -3.63669e-07 -0.000710615)
(0.000626529 -1.20362e-05 -5.85496e-07)
(-3.06241e-06 0.000709881 -1.76749e-06)
(8.10426e-07 4.67197e-07 0.000710952)
(-7.75583e-07 -4.73222e-07 -0.000710885)
(0.000626596 -1.36551e-05 -4.54289e-07)
(-3.33777e-06 0.000709974 -2.26947e-06)
(9.63407e-07 6.36744e-07 0.000711031)
(-9.02642e-07 -6.37866e-07 -0.000711025)
(0.000626675 -1.56661e-05 -1.6993e-07)
(-3.43987e-06 0.000709665 -2.96888e-06)
(1.08463e-06 8.95148e-07 0.000710729)
(-9.85254e-07 -8.84053e-07 -0.000710831)
(0.000626746 -1.78031e-05 4.55515e-07)
(-2.85933e-06 0.000708392 -3.98996e-06)
(1.0185e-06 1.2404e-06 0.000709626)
(-8.7613e-07 -1.21258e-06 -0.000709999)
(-5.89943e-06 0.000710733 -2.78914e-06)
(1.56036e-06 1.74277e-06 0.000708785)
(-2.80793e-06 -1.85881e-06 -0.000713183)
(0.000625093 -1.10954e-06 -1.01448e-07)
(-1.56563e-06 0.000713039 -3.63015e-08)
(1.68286e-07 8.41071e-09 0.000712583)
(-1.7214e-07 -8.64254e-09 -0.00071248)
(0.00062518 -2.13137e-06 -1.96111e-07)
(-1.49015e-06 0.000712317 -1.0832e-07)
(1.6495e-07 2.47862e-08 0.000711995)
(-1.6874e-07 -2.54776e-08 -0.000711894)
(0.000625262 -3.05276e-06 -2.8257e-07)
(-1.43896e-06 0.000711498 -1.80882e-07)
(1.70654e-07 4.04655e-08 0.000711309)
(-1.74448e-07 -4.16224e-08 -0.000711213)
(0.000625341 -3.89517e-06 -3.62166e-07)
(-1.45249e-06 0.000710875 -2.5828e-07)
(1.8972e-07 5.60428e-08 0.000710804)
(-1.93606e-07 -5.76966e-08 -0.000710711)
(0.000625418 -4.67458e-06 -4.36018e-07)
(-1.52039e-06 0.000710424 -3.45627e-07)
(2.21115e-07 7.21952e-08 0.000710461)
(-2.25101e-07 -7.44089e-08 -0.00071037)
(0.00062549 -5.40174e-06 -5.08082e-07)
(-1.63486e-06 0.000710123 -4.48237e-07)
(2.64917e-07 8.94285e-08 0.000710258)
(-2.68758e-07 -9.23001e-08 -0.000710165)
(0.000625555 -6.08819e-06 -5.79559e-07)
(-1.79005e-06 0.000709953 -5.7158e-07)
(3.21869e-07 1.08164e-07 0.000710176)
(-3.25039e-07 -1.11831e-07 -0.00071008)
(0.000625605 -6.74886e-06 -6.49303e-07)
(-1.9807e-06 0.000709905 -7.21609e-07)
(3.93744e-07 1.28832e-07 0.000710197)
(-3.95413e-07 -1.33492e-07 -0.0007101)
(0.000625631 -7.4047e-06 -7.15423e-07)
(-2.2006e-06 0.000709972 -9.05483e-07)
(4.83299e-07 1.52055e-07 0.000710303)
(-4.81875e-07 -1.57986e-07 -0.000710208)
(0.000625621 -8.08855e-06 -7.73164e-07)
(-2.4429e-06 0.00071015 -1.13249e-06)
(5.93648e-07 1.78973e-07 0.000710475)
(-5.86414e-07 -1.86485e-07 -0.000710389)
(0.00062556 -8.85882e-06 -8.1696e-07)
(-2.70388e-06 0.000710444 -1.41709e-06)
(7.28123e-07 2.11703e-07 0.000710697)
(-7.10647e-07 -2.21175e-07 -0.000710629)
(0.000625438 -9.79988e-06 -8.34041e-07)
(-2.97601e-06 0.000710834 -1.78407e-06)
(8.93616e-07 2.54248e-07 0.00071093)
(-8.58423e-07 -2.66121e-07 -0.000710896)
(0.000625278 -1.10514e-05 -7.99265e-07)
(-3.24182e-06 0.000711239 -2.27952e-06)
(1.09271e-06 3.16575e-07 0.000711093)
(-1.02833e-06 -3.30449e-07 -0.000711118)
(0.000625171 -1.28338e-05 -6.48277e-07)
(-3.44411e-06 0.000711459 -2.99559e-06)
(1.28834e-06 4.23639e-07 0.000711035)
(-1.17733e-06 -4.35526e-07 -0.000711159)
(0.000625285 -1.51991e-05 -7.19753e-08)
(-3.13283e-06 0.000710759 -4.09768e-06)
(1.30332e-06 6.22508e-07 0.000710186)
(-1.14422e-06 -6.23954e-07 -0.000710654)
(-6.99331e-06 0.000717217 -2.77165e-06)
(2.24358e-06 1.15796e-06 0.000711797)
(-3.78877e-06 -1.26092e-06 -0.000717603)
(0.000625034 -9.47774e-07 -1.12102e-07)
(1.81752e-07 6.66829e-09 0.000713583)
(-1.85988e-07 -6.86486e-09 -0.00071347)
(-1.59583e-06 0.000713987 -3.6904e-08)
(0.000625067 -1.82165e-06 -2.16291e-07)
(1.77595e-07 1.95173e-08 0.000712847)
(-1.81752e-07 -2.0096e-08 -0.000712741)
(-1.51819e-06 0.000713192 -1.10027e-07)
(0.000625096 -2.60703e-06 -3.11492e-07)
(1.82708e-07 3.14037e-08 0.000712004)
(-1.86887e-07 -3.23626e-08 -0.000711906)
(-1.46413e-06 0.000712284 -1.83512e-07)
(0.000625122 -3.31426e-06 -3.9856e-07)
(2.01739e-07 4.25442e-08 0.000711358)
(-2.06052e-07 -4.39188e-08 -0.000711267)
(-1.47399e-06 0.000711584 -2.61646e-07)
(0.000625142 -3.94922e-06 -4.80335e-07)
(2.33396e-07 5.31729e-08 0.000710883)
(-2.37871e-07 -5.50205e-08 -0.000710798)
(-1.53615e-06 0.000711061 -3.49451e-07)
(0.000625153 -4.51756e-06 -5.61527e-07)
(2.77574e-07 6.32044e-08 0.000710553)
(-2.82004e-07 -6.56165e-08 -0.000710468)
(-1.64135e-06 0.000710693 -4.5192e-07)
(0.000625149 -5.02537e-06 -6.43168e-07)
(3.34899e-07 7.22955e-08 0.000710344)
(-3.38812e-07 -7.54363e-08 -0.00071026)
(-1.7817e-06 0.000710464 -5.73934e-07)
(0.00062512 -5.47759e-06 -7.25495e-07)
(4.06993e-07 7.97801e-08 0.000710239)
(-4.09608e-07 -8.38769e-08 -0.000710157)
(-1.94914e-06 0.000710361 -7.20573e-07)
(0.000625053 -5.88049e-06 -8.07404e-07)
(4.96416e-07 8.4373e-08 0.000710218)
(-4.96225e-07 -8.97516e-08 -0.000710144)
(-2.134e-06 0.00071038 -8.97649e-07)
(0.000624929 -6.24347e-06 -8.87147e-07)
(6.06122e-07 8.38316e-08 0.000710264)
(-6.00565e-07 -9.10921e-08 -0.000710204)
(-2.32467e-06 0.00071052 -1.11227e-06)
(0.000624718 -6.57918e-06 -9.64203e-07)
(7.39244e-07 7.44563e-08 0.000710363)
(-7.24242e-07 -8.47772e-08 -0.000710328)
(-2.5083e-06 0.00071079 -1.37475e-06)
(0.000624377 -6.90369e-06 -1.03592e-06)
(9.01238e-07 4.85958e-08 0.000710462)
(-8.7001e-07 -6.44193e-08 -0.000710472)
(-2.66622e-06 0.000711174 -1.70161e-06)
(0.000623839 -7.26094e-06 -1.09684e-06)
(1.09418e-06 -9.75345e-09 0.000710443)
(-1.03599e-06 -1.67267e-08 -0.00071054)
(-2.76208e-06 0.000711623 -2.12157e-06)
(0.000622995 -7.76709e-06 -1.11795e-06)
(1.28584e-06 -1.25928e-07 0.000710045)
(-1.18443e-06 7.74201e-08 -0.000710332)
(-2.70094e-06 0.000712014 -2.68778e-06)
(0.000621722 -8.86157e-06 -8.48809e-07)
(1.32793e-06 -3.04159e-07 0.000708438)
(-1.1819e-06 2.16471e-07 -0.00070933)
(-2.00588e-06 0.000711941 -3.47486e-06)
(3.18296e-06 1.70946e-07 0.000718311)
(-4.93276e-06 -3.2504e-07 -0.0007259)
(-1.11171e-05 0.000730744 -2.29976e-06)
(0.000625328 -1.61089e-06 -6.47222e-09)
(-3.26797e-07 0.000704737 -6.63377e-09)
(1.58895e-08 1.78756e-08 0.000704121)
(0.000625642 -3.10546e-06 -1.24384e-08)
(-3.13037e-07 0.000704623 -1.98281e-08)
(1.5803e-08 5.35266e-08 0.000704429)
(0.000625949 -4.46832e-06 -1.73771e-08)
(-3.05728e-07 0.000704493 -3.31381e-08)
(1.66967e-08 9.00754e-08 0.000704717)
(0.000626263 -5.73002e-06 -2.10607e-08)
(-3.13474e-07 0.000704395 -4.73051e-08)
(1.90025e-08 1.30206e-07 0.000705021)
(0.000626599 -6.916e-06 -2.36527e-08)
(-3.35071e-07 0.000704321 -6.32852e-08)
(2.26839e-08 1.77045e-07 0.000705355)
(0.000626971 -8.05073e-06 -2.48161e-08)
(-3.70407e-07 0.000704273 -8.19858e-08)
(2.76941e-08 2.33627e-07 0.000705735)
(0.000627392 -9.15243e-06 -2.3806e-08)
(-4.19358e-07 0.000704243 -1.04355e-07)
(3.39402e-08 3.02828e-07 0.000706172)
(0.000627876 -1.02299e-05 -1.9822e-08)
(-4.82498e-07 0.000704223 -1.31373e-07)
(4.12065e-08 3.87178e-07 0.000706679)
(0.000628439 -1.12839e-05 -1.16933e-08)
(-5.61366e-07 0.000704203 -1.63837e-07)
(4.88687e-08 4.88276e-07 0.000707268)
(0.000629098 -1.22944e-05 2.48408e-09)
(-6.57052e-07 0.000704163 -2.0239e-07)
(5.55286e-08 6.0547e-07 0.000707947)
(0.000629872 -1.32247e-05 2.43454e-08)
(-7.73903e-07 0.000704085 -2.47432e-07)
(5.81488e-08 7.33194e-07 0.000708729)
(0.000630788 -1.40119e-05 5.4954e-08)
(-9.18393e-07 0.000703939 -2.9772e-07)
(5.14604e-08 8.56684e-07 0.000709628)
(0.000631874 -1.45701e-05 9.1919e-08)
(-1.09748e-06 0.000703695 -3.46002e-07)
(2.66894e-08 9.45663e-07 0.000710665)
(0.000633146 -1.48405e-05 1.25063e-07)
(-1.30393e-06 0.00070336 -3.67492e-07)
(-2.5071e-08 9.5032e-07 0.000711881)
(0.000634457 -1.48982e-05 1.39672e-07)
(-1.38807e-06 0.000703027 -3.11222e-07)
(-9.46665e-08 8.20803e-07 0.000713268)
(-4.16134e-06 0.000702783 -3.13241e-09)
(-4.72239e-07 2.04805e-07 0.000716526)
(0.000625317 -1.59223e-06 -1.97009e-08)
(-6.40507e-07 0.00070633 -1.30283e-08)
(4.68679e-08 1.69734e-08 0.000705721)
(0.00062562 -3.07185e-06 -3.79611e-08)
(-6.132e-07 0.000706106 -3.88834e-08)
(4.64997e-08 5.06924e-08 0.0007059)
(0.000625915 -4.42222e-06 -5.32958e-08)
(-5.98269e-07 0.000705849 -6.48757e-08)
(4.90118e-08 8.49807e-08 0.000706041)
(0.000626218 -5.67302e-06 -6.51655e-08)
(-6.12733e-07 0.000705653 -9.249e-08)
(5.56928e-08 1.22369e-07 0.000706228)
(0.000626541 -6.8538e-06 -7.3782e-08)
(-6.54563e-07 0.000705512 -1.23616e-07)
(6.63907e-08 1.65778e-07 0.000706471)
(0.000626897 -7.98839e-06 -7.82517e-08)
(-7.22733e-07 0.000705421 -1.60161e-07)
(8.09793e-08 2.18002e-07 0.00070678)
(0.000627299 -9.0923e-06 -7.64691e-08)
(-8.17047e-07 0.000705363 -2.03951e-07)
(9.93844e-08 2.81924e-07 0.00070716)
(0.000627761 -1.01763e-05 -6.59399e-08)
(-9.38927e-07 0.000705327 -2.56696e-07)
(1.21171e-07 3.6055e-07 0.000707613)
(0.000628294 -1.12433e-05 -4.26858e-08)
(-1.08972e-06 0.000705293 -3.20102e-07)
(1.44721e-07 4.56489e-07 0.000708142)
(0.000628913 -1.22866e-05 -9.83748e-10)
(-1.27109e-06 0.000705233 -3.95539e-07)
(1.66294e-07 5.70913e-07 0.000708736)
(0.000629627 -1.32791e-05 6.34836e-08)
(-1.48636e-06 0.000705107 -4.83207e-07)
(1.7814e-07 7.02158e-07 0.000709382)
(0.000630441 -1.41664e-05 1.56065e-07)
(-1.73716e-06 0.000704859 -5.79489e-07)
(1.67118e-07 8.4392e-07 0.000710051)
(0.000631339 -1.48597e-05 2.73674e-07)
(-2.01734e-06 0.000704422 -6.69321e-07)
(1.12355e-07 9.83529e-07 0.000710703)
(0.000632241 -1.52526e-05 3.92391e-07)
(-2.26871e-06 0.000703789 -7.06346e-07)
(-5.79608e-09 1.10267e-06 0.000711323)
(0.0006329 -1.53045e-05 4.75583e-07)
(-2.19184e-06 0.00070313 -6.0432e-07)
(-1.62172e-07 1.18754e-06 0.000711926)
(-3.57237e-06 0.000701321 -2.43374e-08)
(-7.10738e-07 1.49035e-06 0.000711484)
(0.000625293 -1.55031e-06 -3.3409e-08)
(-9.28389e-07 0.000707882 -1.8894e-08)
(7.56947e-08 1.54486e-08 0.000707285)
(0.000625572 -2.99122e-06 -6.41946e-08)
(-8.88151e-07 0.00070755 -5.63639e-08)
(7.48634e-08 4.60337e-08 0.000707322)
(0.000625844 -4.30545e-06 -9.04138e-08)
(-8.6536e-07 0.000707168 -9.40444e-08)
(7.86589e-08 7.69083e-08 0.000707306)
(0.000626122 -5.52604e-06 -1.1162e-07)
(-8.85275e-07 0.00070688 -1.34126e-07)
(8.91686e-08 1.10328e-07 0.000707365)
(0.000626418 -6.68462e-06 -1.27957e-07)
(-9.44504e-07 0.00070668 -1.79315e-07)
(1.06025e-07 1.48818e-07 0.000707508)
(0.000626742 -7.80008e-06 -1.37926e-07)
(-1.04034e-06 0.000706548 -2.3231e-07)
(1.29178e-07 1.94872e-07 0.000707735)
(0.000627105 -8.88883e-06 -1.38115e-07)
(-1.17254e-06 0.000706467 -2.95595e-07)
(1.58823e-07 2.51279e-07 0.000708039)
(0.000627517 -9.96841e-06 -1.24213e-07)
(-1.34278e-06 0.000706424 -3.71513e-07)
(1.94629e-07 3.21134e-07 0.00070842)
(0.000627987 -1.10473e-05 -8.9304e-08)
(-1.55189e-06 0.000706394 -4.62426e-07)
(2.3482e-07 4.07905e-07 0.000708866)
(0.000628525 -1.21344e-05 -2.45738e-08)
(-1.80125e-06 0.000706346 -5.70154e-07)
(2.7475e-07 5.15394e-07 0.000709357)
(0.000629133 -1.32212e-05 7.85609e-08)
(-2.08851e-06 0.000706225 -6.94351e-07)
(3.05283e-07 6.47865e-07 0.000709856)
(0.000629798 -1.42765e-05 2.32653e-07)
(-2.40145e-06 0.000705953 -8.28404e-07)
(3.1067e-07 8.10045e-07 0.000710289)
(0.000630476 -1.52315e-05 4.42237e-07)
(-2.70694e-06 0.000705432 -9.49338e-07)
(2.66621e-07 1.00675e-06 0.000710554)
(0.000631062 -1.59586e-05 6.86065e-07)
(-2.89158e-06 0.000704611 -9.92476e-07)
(1.50199e-07 1.241e-06 0.000710564)
(0.000631368 -1.63294e-05 9.14837e-07)
(-2.5785e-06 0.000703686 -8.48497e-07)
(-1.74433e-08 1.50098e-06 0.000710385)
(-3.80845e-06 0.000702025 -1.50828e-07)
(-2.59761e-07 1.87616e-06 0.000709099)
(0.000625257 -1.48262e-06 -4.68169e-08)
(-1.17895e-06 0.000709365 -2.39887e-08)
(1.01444e-07 1.34977e-08 0.000708786)
(0.000625502 -2.85875e-06 -8.98917e-08)
(-1.12704e-06 0.000708928 -7.1614e-08)
(1.00083e-07 4.01873e-08 0.000708673)
(0.00062574 -4.11416e-06 -1.26951e-07)
(-1.09673e-06 0.000708428 -1.1956e-07)
(1.04856e-07 6.70102e-08 0.000708491)
(0.000625982 -5.28165e-06 -1.58207e-07)
(-1.12015e-06 0.000708054 -1.7055e-07)
(1.18505e-07 9.5782e-08 0.000708417)
(0.000626237 -6.38546e-06 -1.84035e-07)
(-1.19173e-06 0.000707792 -2.28007e-07)
(1.40469e-07 1.28575e-07 0.00070845)
(0.000626513 -7.4465e-06 -2.01752e-07)
(-1.3078e-06 0.000707619 -2.95135e-07)
(1.7091e-07 1.6751e-07 0.000708579)
(0.000626818 -8.48986e-06 -2.06789e-07)
(-1.46781e-06 0.000707523 -3.74857e-07)
(2.10283e-07 2.14936e-07 0.000708796)
(0.000627159 -9.53889e-06 -1.93284e-07)
(-1.67249e-06 0.000707489 -4.70031e-07)
(2.58669e-07 2.73655e-07 0.000709094)
(0.000627541 -1.06134e-05 -1.52191e-07)
(-1.92212e-06 0.000707487 -5.83344e-07)
(3.15161e-07 3.4756e-07 0.000709452)
(0.000627968 -1.17289e-05 -7.21795e-08)
(-2.21617e-06 0.000707485 -7.16775e-07)
(3.76216e-07 4.42523e-07 0.000709843)
(0.000628439 -1.29013e-05 6.20282e-08)
(-2.54827e-06 0.000707427 -8.6952e-07)
(4.34599e-07 5.67478e-07 0.000710211)
(0.000628943 -1.41368e-05 2.70629e-07)
(-2.89449e-06 0.000707229 -1.03243e-06)
(4.76666e-07 7.3564e-07 0.000710466)
(0.000629442 -1.54063e-05 5.74648e-07)
(-3.19355e-06 0.000706765 -1.17534e-06)
(4.7766e-07 9.6233e-07 0.000710461)
(0.000629867 -1.65981e-05 9.71746e-07)
(-3.29783e-06 0.000705916 -1.21865e-06)
(4.05539e-07 1.25392e-06 0.00071005)
(0.000630126 -1.7483e-05 1.40001e-06)
(-2.80926e-06 0.000704779 -1.03705e-06)
(2.42767e-07 1.57697e-06 0.000709312)
(-3.74568e-06 0.00070334 -2.72441e-07)
(1.54921e-07 1.95557e-06 0.000707593)
(0.000625212 -1.38717e-06 -5.93101e-08)
(-1.3833e-06 0.000710753 -2.81413e-08)
(1.23719e-07 1.15252e-08 0.000710201)
(0.000625414 -2.67197e-06 -1.14558e-07)
(-1.32111e-06 0.000710215 -8.40447e-08)
(1.21828e-07 3.42638e-08 0.00070993)
(0.000625609 -3.84294e-06 -1.62686e-07)
(-1.28368e-06 0.000709602 -1.40314e-07)
(1.27252e-07 5.69161e-08 0.000709579)
(0.000625805 -4.92644e-06 -2.04708e-07)
(-1.3078e-06 0.000709143 -2.0007e-07)
(1.43261e-07 8.08502e-08 0.000709364)
(0.000626009 -5.94407e-06 -2.40668e-07)
(-1.38611e-06 0.000708816 -2.67192e-07)
(1.69198e-07 1.07678e-07 0.000709275)
(0.000626226 -6.92286e-06 -2.66633e-07)
(-1.51437e-06 0.000708607 -3.45182e-07)
(2.05339e-07 1.38975e-07 0.000709296)
(0.000626462 -7.88964e-06 -2.78188e-07)
(-1.69081e-06 0.000708501 -4.37288e-07)
(2.52369e-07 1.76467e-07 0.00070942)
(0.000626717 -8.86808e-06 -2.68942e-07)
(-1.91436e-06 0.000708481 -5.46656e-07)
(3.1107e-07 2.22468e-07 0.000709632)
(0.000626994 -9.88607e-06 -2.28483e-07)
(-2.18359e-06 0.000708522 -6.76117e-07)
(3.81984e-07 2.80619e-07 0.000709907)
(0.000627291 -1.09737e-05 -1.42675e-07)
(-2.49672e-06 0.000708594 -8.27728e-07)
(4.64022e-07 3.57023e-07 0.000710208)
(0.000627609 -1.21731e-05 9.13903e-09)
(-2.84797e-06 0.000708654 -1.00061e-06)
(5.53557e-07 4.61615e-07 0.000710484)
(0.000627947 -1.35329e-05 2.57347e-07)
(-3.2103e-06 0.000708627 -1.18407e-06)
(6.4239e-07 6.10333e-07 0.000710645)
(0.000628301 -1.5078e-05 6.45303e-07)
(-3.50965e-06 0.000708369 -1.34262e-06)
(7.06389e-07 8.2416e-07 0.000710529)
(0.000628658 -1.67348e-05 1.19919e-06)
(-3.57907e-06 0.000707674 -1.38577e-06)
(6.95821e-07 1.11437e-06 0.000709932)
(0.000628966 -1.81551e-05 1.84938e-06)
(-2.98775e-06 0.00070638 -1.17653e-06)
(5.30366e-07 1.44296e-06 0.000708796)
(-3.63461e-06 0.000705213 -3.73708e-07)
(5.31418e-07 1.79971e-06 0.000706972)
(0.00062516 -1.26534e-06 -7.11873e-08)
(-1.53421e-06 0.000712019 -3.12037e-08)
(1.42578e-07 9.63906e-09 0.000711502)