/*--------------------------------*- C++ -*----------------------------------*\
| =========                 |                                                 |
| \\      /  F ield         | foam-extend: Open Source CFD                    |
|  \\    /   O peration     | Version:     3.1                                |
|   \\  /    A nd           | Web:         http://www.extend-project.de       |
|    \\/     M anipulation  |                                                 |
\*---------------------------------------------------------------------------*/
FoamFile
{
    version     2.0;
    format      ascii;
    class       volVectorField;
    location    "1.8";
    object      U;
}
// * * * * * * * * * * * * * * * * * * * * * * * * * * * * * * * * * * * * * //

dimensions      [0 1 -1 0 0 0 0];

internalField   nonuniform List<vector> 
14592
(
(0.0187776 0.000138016 -0.00172786)
(0.0185477 0.000329204 -0.0040839)
(0.0183715 0.000304601 -0.00599332)
(0.0186124 0.000165187 -0.00744262)
(0.0193169 2.80925e-05 -0.00843323)
(0.0202814 -5.05389e-05 -0.00907309)
(0.021252 -6.5446e-05 -0.00954064)
(0.0220284 -4.02061e-05 -0.0100432)
(0.0224959 -1.17646e-05 -0.0107929)
(0.0226429 -1.44085e-05 -0.0120041)
(0.0225292 -9.53777e-05 -0.0139193)
(0.0222582 -0.000319032 -0.0168481)
(0.0219642 -0.000755651 -0.0212398)
(0.0215986 -0.00136507 -0.0275862)
(0.0198638 -0.00150716 -0.0349538)
(0.0127723 0.0003723 -0.0320588)
(0.052783 0.000279511 -0.0020423)
(0.0524893 0.000219849 -0.00680669)
(0.0523219 -0.000397113 -0.011656)
(0.0527351 -0.00112779 -0.015773)
(0.0538748 -0.0015926 -0.0187359)
(0.0554643 -0.00163712 -0.0205773)
(0.0570729 -0.00131249 -0.021637)
(0.0583089 -0.000768263 -0.0224026)
(0.0589007 -0.000167496 -0.0233988)
(0.0587338 0.000364264 -0.0251497)
(0.0577747 0.000714274 -0.0281809)
(0.0559972 0.000765187 -0.0331165)
(0.0533063 0.000372202 -0.0408201)
(0.0491892 -0.000550028 -0.0523101)
(0.0408906 -0.00153285 -0.0653644)
(0.0210122 -0.000555786 -0.055167)
(0.0821891 0.000440359 -0.00142116)
(0.0819417 0.000253843 -0.00601539)
(0.0814253 -0.000931764 -0.0118764)
(0.0809912 -0.00238824 -0.0177328)
(0.0810573 -0.00340145 -0.0225245)
(0.0816503 -0.00359299 -0.0258117)
(0.0824831 -0.00298179 -0.0277422)
(0.0831522 -0.00182303 -0.028846)
(0.0832801 -0.000430946 -0.0298213)
(0.0826036 0.000953551 -0.0314076)
(0.0809252 0.00214309 -0.0343315)
(0.0780244 0.00300323 -0.0394066)
(0.073561 0.00338729 -0.0477302)
(0.0667385 0.00311138 -0.0608953)
(0.0540156 0.00179485 -0.0769339)
(0.0248755 3.15039e-05 -0.0644518)
(0.106675 0.000466408 -0.000958267)
(0.106529 0.000377821 -0.00448033)
(0.105705 -0.000946978 -0.00997125)
(0.104203 -0.00278511 -0.016414)
(0.102569 -0.00422762 -0.02242)
(0.101239 -0.00466177 -0.0270187)
(0.100293 -0.00396587 -0.0299531)
(0.0995269 -0.00239014 -0.0315914)
(0.0985996 -0.000326925 -0.0326671)
(0.0971531 0.00190327 -0.0340569)
(0.0948389 0.00406321 -0.0366312)
(0.0912616 0.00603425 -0.0413406)
(0.0858868 0.00771565 -0.0494133)
(0.0777329 0.00894471 -0.0629484)
(0.062824 0.00821328 -0.0807997)
(0.0271976 0.00255812 -0.068519)
(0.126207 0.000426447 -0.000753124)
(0.126168 0.000553553 -0.00334728)
(0.125275 -0.000476032 -0.00803801)
(0.123085 -0.00216326 -0.0143448)
(0.120017 -0.00363555 -0.0209139)
(0.116759 -0.00417902 -0.0264278)
(0.113784 -0.00351891 -0.030218)
(0.111212 -0.00180326 -0.0323964)
(0.10889 0.0006321 -0.0336424)
(0.106473 0.00345049 -0.0348762)
(0.103538 0.00643027 -0.0370858)
(0.0995533 0.00951076 -0.0413143)
(0.0938356 0.0126641 -0.0488388)
(0.0852143 0.015932 -0.0621324)
(0.0695887 0.0168734 -0.08103)
(0.0290356 0.00723976 -0.0697515)
(0.140815 0.000387063 -0.000675888)
(0.140849 0.000746585 -0.00270041)
(0.140037 0.000233608 -0.006677)
(0.137585 -0.000880615 -0.0125993)
(0.133665 -0.00193858 -0.0193086)
(0.129019 -0.00229884 -0.0253381)
(0.124385 -0.00162345 -0.0297132)
(0.120213 7.62545e-05 -0.0322904)
(0.116589 0.00258894 -0.0336447)
(0.113272 0.00566659 -0.0347084)
(0.109864 0.00917918 -0.036516)
(0.10575 0.0131915 -0.0401582)
(0.100185 0.0177848 -0.046884)
(0.0917273 0.0234792 -0.0593705)
(0.0766329 0.0274782 -0.0786671)
(0.0317482 0.0149448 -0.0687621)
(0.150546 0.000370346 -0.000637283)
(0.150607 0.000938995 -0.00234012)
(0.149912 0.000999651 -0.0058328)
(0.14746 0.000677409 -0.0113871)
(0.143186 0.000358465 -0.0180355)
(0.137792 0.000478695 -0.0242785)
(0.132161 0.00131753 -0.0289577)
(0.126964 0.00295333 -0.0317451)
(0.122494 0.00531928 -0.033097)
(0.118657 0.00834789 -0.0339222)
(0.115162 0.0120563 -0.0352509)
(0.111356 0.0167087 -0.038154)
(0.106664 0.0225508 -0.0437706)
(0.0990426 0.0309987 -0.0546634)
(0.0867702 0.0401974 -0.0735846)
(0.0378356 0.0288087 -0.0650226)
(0.155412 0.000371058 -0.000599844)
(0.155486 0.0011215 -0.00212628)
(0.154883 0.00176596 -0.00534785)
(0.152537 0.00232183 -0.0106551)
(0.148253 0.00290219 -0.0171756)
(0.142678 0.00366628 -0.0234213)
(0.136738 0.00476102 -0.0281553)
(0.131222 0.0062945 -0.0309458)
(0.126565 0.00835537 -0.0321708)
(0.122792 0.0110673 -0.032684)
(0.119767 0.0146145 -0.0334629)
(0.116854 0.0194487 -0.035468)
(0.114204 0.0260411 -0.0396648)
(0.10823 0.0365764 -0.047824)
(0.105211 0.0552761 -0.0651127)
(0.0533685 0.0508275 -0.0560743)
(0.0200837 0.000103936 -0.00171196)
(0.0197721 0.000281085 -0.00397306)
(0.0194469 0.000255321 -0.00580478)
(0.0194901 0.000112335 -0.00722701)
(0.0199707 -3.01999e-05 -0.00823455)
(0.0206854 -0.000111744 -0.00891248)
(0.0213638 -0.000125333 -0.00941582)
(0.0217819 -9.55713e-05 -0.00993361)
(0.0217982 -6.27888e-05 -0.0106625)
(0.0213653 -6.85718e-05 -0.0117962)
(0.0204915 -0.000155907 -0.0135393)
(0.0191944 -0.000388707 -0.0161096)
(0.0174559 -0.000821312 -0.0197266)
(0.014937 -0.00139376 -0.0242934)
(0.0104764 -0.00176655 -0.027866)
(0.00432345 -0.00151254 -0.0215814)
(0.0564828 0.000234379 -0.00195297)
(0.0560507 0.000116472 -0.0064004)
(0.0556113 -0.000567992 -0.0109504)
(0.0556241 -0.00138109 -0.0149017)
(0.0562718 -0.0019146 -0.0178434)
(0.0572927 -0.00198424 -0.0197572)
(0.0582414 -0.00163306 -0.0209176)
(0.0586919 -0.00102364 -0.0217578)
(0.0583237 -0.000341952 -0.0227636)
(0.0569616 0.000261515 -0.0244205)
(0.0544831 0.000664607 -0.0271931)
(0.0507194 0.000740076 -0.0315607)
(0.0453613 0.000348022 -0.0379871)
(0.0374409 -0.000584606 -0.0462412)
(0.0245211 -0.00187839 -0.0519591)
(0.00843893 -0.00270466 -0.0377959)
(0.087947 0.000399671 -0.00134567)
(0.0875959 0.000163999 -0.00551729)
(0.0868313 -0.00112646 -0.0108824)
(0.0859451 -0.0027525 -0.0163853)
(0.085368 -0.00393853 -0.0210479)
(0.0851627 -0.00422914 -0.0243902)
(0.0850638 -0.00360317 -0.026465)
(0.0846607 -0.00232595 -0.0277101)
(0.0835343 -0.000751589 -0.0287567)
(0.0813532 0.000826779 -0.0302919)
(0.0778092 0.00219386 -0.0329746)
(0.0725037 0.00318927 -0.0374672)
(0.0648419 0.00364834 -0.0444472)
(0.0534285 0.00331875 -0.0539356)
(0.0346649 0.00164593 -0.0608467)
(0.0110472 -0.00157942 -0.0442385)
(0.114135 0.000428278 -0.000931207)
(0.113924 0.000328972 -0.00406393)
(0.112942 -0.00107308 -0.0089518)
(0.111064 -0.00309939 -0.0148667)
(0.108764 -0.00478108 -0.0206016)
(0.106493 -0.00539438 -0.0251963)
(0.10439 -0.00473297 -0.0282913)
(0.1023 -0.00302956 -0.0301273)
(0.0998759 -0.000717901 -0.0313385)
(0.0967133 0.00183129 -0.0327299)
(0.0923468 0.00432596 -0.0351023)
(0.0861724 0.0066159 -0.0392544)
(0.0773524 0.00858644 -0.0460275)
(0.0642383 0.00990727 -0.055819)
(0.0419994 0.0088767 -0.063559)
(0.012698 0.00223942 -0.0467833)
(0.135022 0.000389834 -0.000760472)
(0.134924 0.000527506 -0.003057)
(0.133951 -0.000523598 -0.00712606)
(0.131517 -0.00234925 -0.012784)
(0.127872 -0.00404722 -0.0189448)
(0.123648 -0.0047948 -0.0243747)
(0.119371 -0.00420742 -0.0283195)
(0.115259 -0.00238082 -0.0307377)
(0.111225 0.000329293 -0.0321745)
(0.106918 0.00354934 -0.0334653)
(0.101797 0.00700572 -0.0355167)
(0.0951285 0.0106142 -0.0392221)
(0.0858717 0.0143706 -0.0455165)
(0.072241 0.0180845 -0.055165)
(0.0482291 0.0188687 -0.063418)
(0.0142437 0.00862701 -0.0471184)
(0.150646 0.000357929 -0.000700004)
(0.150608 0.000733755 -0.00250865)
(0.149753 0.000238625 -0.00589296)
(0.147172 -0.000943432 -0.0111016)
(0.142808 -0.00215552 -0.0172957)
(0.137261 -0.00267513 -0.0231623)
(0.131284 -0.00206121 -0.0276728)
(0.125442 -0.000258216 -0.03052)
(0.119946 0.00253926 -0.0321171)
(0.114601 0.00605599 -0.033288)
(0.108934 0.0101487 -0.0349866)
(0.102145 0.0148861 -0.0381575)
(0.093076 0.0204412 -0.0437518)
(0.0799036 0.0271405 -0.05286)
(0.0555625 0.0313504 -0.0613269)
(0.0169444 0.0186301 -0.045659)
(0.161059 0.000358003 -0.000665697)
(0.16103 0.000944888 -0.00221153)
(0.160301 0.00103574 -0.00514811)
(0.157794 0.000700937 -0.00996162)
(0.153193 0.000321283 -0.0160268)
(0.146998 0.000375543 -0.0220469)
(0.140054 0.00121594 -0.0268419)
(0.13315 0.00297827 -0.0299179)
(0.126739 0.00562867 -0.031553)
(0.120823 0.00910736 -0.0325341)
(0.115082 0.013455 -0.0338109)
(0.108734 0.0189928 -0.0363258)
(0.100725 0.026139 -0.0409557)
(0.0891593 0.0363754 -0.0490069)
(0.0671807 0.0465185 -0.0573788)
(0.0233641 0.0359824 -0.0421166)
(0.166266 0.000378584 -0.000628784)
(0.16624 0.00114974 -0.00202864)
(0.165605 0.00182424 -0.00471867)
(0.163247 0.00240992 -0.00928077)
(0.158716 0.00302256 -0.0151883)
(0.152422 0.00383404 -0.02118)
(0.145232 0.00502126 -0.0260169)
(0.138041 0.0067263 -0.0291068)
(0.131465 0.00906932 -0.0306436)
(0.125667 0.0122138 -0.0313551)
(0.120528 0.0164021 -0.0321429)
(0.115357 0.0222121 -0.0338789)
(0.109815 0.0303098 -0.0372898)
(0.101102 0.0436301 -0.0435579)
(0.0898659 0.0648821 -0.0517246)
(0.0387253 0.0609205 -0.0353527)
(0.0211972 7.06864e-05 -0.00161448)
(0.0208107 0.000231385 -0.00369187)
(0.0203539 0.000201857 -0.00537098)
(0.0202262 5.25661e-05 -0.00669779)
(0.0205148 -9.8109e-05 -0.00766434)
(0.0210144 -0.000185353 -0.00833424)
(0.0214396 -0.000200353 -0.00883503)
(0.0215461 -0.000168477 -0.00932845)
(0.0211742 -0.000132753 -0.0099834)
(0.0202565 -0.000139512 -0.0109588)
(0.0187845 -0.000221684 -0.0124042)
(0.0167582 -0.000436357 -0.0144386)
(0.0141416 -0.000813018 -0.0171012)
(0.0106817 -0.00128295 -0.0200355)
(0.00597544 -0.00170113 -0.0212962)
(0.00133277 -0.00173156 -0.0144779)
(0.0596487 0.00019196 -0.00179208)
(0.0590939 1.77374e-05 -0.00578771)
(0.0584212 -0.000731994 -0.00988348)
(0.0580971 -0.00162642 -0.0135019)
(0.0583315 -0.00223222 -0.0162678)
(0.0588695 -0.00233591 -0.01813)
(0.0592495 -0.00196984 -0.019298)
(0.0590152 -0.00130639 -0.0201365)
(0.0578102 -0.000551923 -0.0210674)
(0.0554245 0.00012183 -0.0225068)
(0.0517023 0.000591306 -0.024826)
(0.0464444 0.000734733 -0.0283359)
(0.0393428 0.000442572 -0.0331761)
(0.0296228 -0.000348992 -0.0385966)
(0.0164502 -0.00171797 -0.0403035)
(0.00343919 -0.0029308 -0.0256064)
(0.0928774 0.000360743 -0.00122714)
(0.0924323 7.86215e-05 -0.00489451)
(0.0914591 -0.00130475 -0.00962406)
(0.0902043 -0.00308685 -0.0145723)
(0.0890997 -0.00444161 -0.0188826)
(0.0882267 -0.00484125 -0.0220791)
(0.0873311 -0.0042207 -0.024143)
(0.0859956 -0.00284806 -0.0254147)
(0.0837723 -0.00111323 -0.0264319)
(0.0802916 0.000650134 -0.0277901)
(0.075196 0.00219824 -0.0300371)
(0.0680386 0.00336318 -0.0336517)
(0.0582081 0.0039925 -0.0389401)
(0.0444226 0.00381357 -0.0452182)
(0.0251305 0.00202686 -0.0472954)
(0.00519989 -0.00164705 -0.0296269)
(0.120524 0.000391053 -0.000866617)
(0.120247 0.000278454 -0.0035823)
(0.11913 -0.00118401 -0.00779197)
(0.116957 -0.00337266 -0.0130037)
(0.114131 -0.00527619 -0.0182183)
(0.111092 -0.00607167 -0.0225493)
(0.108014 -0.00546701 -0.0255873)
(0.104776 -0.00366722 -0.027461)
(0.101045 -0.00113571 -0.0286858)
(0.0963959 0.00170506 -0.0299504)
(0.0903087 0.00451812 -0.0319376)
(0.0821135 0.00713031 -0.0352553)
(0.0709277 0.00942195 -0.0403687)
(0.0550645 0.0109829 -0.0468442)
(0.0318372 0.0098493 -0.049315)
(0.00639279 0.00273141 -0.0308735)
(0.142575 0.000354059 -0.000726009)
(0.14241 0.000497276 -0.00271929)
(0.141355 -0.000562898 -0.00615216)
(0.138736 -0.00249851 -0.0110377)
(0.134659 -0.00439616 -0.0165501)
(0.129676 -0.00534192 -0.0216041)
(0.124326 -0.00484564 -0.0254359)
(0.118896 -0.00294243 -0.0278909)
(0.113368 6.03876e-06 -0.0293716)
(0.107411 0.00358655 -0.030588)
(0.100452 0.00748078 -0.0323092)
(0.0916833 0.0115804 -0.0352362)
(0.0800028 0.0158819 -0.0399454)
(0.0634488 0.0200537 -0.046291)
(0.0379666 0.0208349 -0.0490655)
(0.00780517 0.0100759 -0.030674)
(0.159075 0.000332139 -0.00067646)
(0.158954 0.000718343 -0.00226728)
(0.158035 0.000246818 -0.00508277)
(0.155354 -0.000980694 -0.00950386)
(0.150679 -0.00232211 -0.014968)
(0.144457 -0.00299177 -0.0203697)
(0.137402 -0.00245318 -0.0247161)
(0.130152 -0.000579899 -0.027597)
(0.123029 0.00245759 -0.0292712)
(0.115917 0.00636756 -0.0304167)
(0.108338 0.0109813 -0.0318477)
(0.0994372 0.0163623 -0.0343162)
(0.0879963 0.0227212 -0.0384499)
(0.0719528 0.0302244 -0.0443967)
(0.0456425 0.0346874 -0.0473701)
(0.01066 0.0214584 -0.029342)
(0.170072 0.000350754 -0.000642154)
(0.169947 0.000951714 -0.00202528)
(0.169152 0.0010751 -0.00445047)
(0.166597 0.000740275 -0.00848594)
(0.161786 0.000314015 -0.0137788)
(0.155016 0.000307278 -0.0192765)
(0.147047 0.00113719 -0.0238716)
(0.138726 0.00299771 -0.0269814)
(0.13064 0.00589192 -0.0287242)
(0.12291 0.00976873 -0.0297325)
(0.115256 0.0146798 -0.0308183)
(0.106875 0.0209747 -0.0327416)
(0.0966543 0.0291665 -0.0361094)
(0.0825959 0.0406567 -0.0413393)
(0.0581481 0.0514482 -0.0444566)
(0.0175781 0.0406829 -0.0268296)
(0.17557 0.000388779 -0.000607982)
(0.175441 0.00118245 -0.00187196)
(0.174739 0.00188905 -0.00408376)
(0.172363 0.00250663 -0.00788081)
(0.167689 0.00315113 -0.0130054)
(0.160902 0.00400466 -0.018451)
(0.152756 0.0052708 -0.0230731)
(0.144192 0.00712432 -0.0262028)
(0.135971 0.00971546 -0.0278769)
(0.128402 0.0132421 -0.0286692)
(0.121444 0.0179893 -0.0293536)
(0.114431 0.0246102 -0.0306497)
(0.106946 0.033891 -0.0330793)
(0.096462 0.0490323 -0.0371743)
(0.0827543 0.0716146 -0.0407271)
(0.0331532 0.0663925 -0.0226014)
(0.0221209 4.005e-05 -0.0014398)
(0.0216674 0.000184501 -0.0032546)
(0.0210965 0.000150335 -0.00471679)
(0.0208241 -6.45152e-06 -0.00588741)
(0.0209524 -0.000166663 -0.00675845)
(0.0212741 -0.00026141 -0.00737505)
(0.0214908 -0.00027984 -0.00783659)
(0.0213428 -0.000247544 -0.00827342)
(0.02066 -0.000209073 -0.00882158)
(0.0193686 -0.000213075 -0.009603)
(0.0174657 -0.000284832 -0.0107152)
(0.0149685 -0.000469407 -0.0122102)
(0.0118758 -0.000776977 -0.0140355)
(0.00808609 -0.00113951 -0.0157863)
(0.0037028 -0.00150726 -0.0158876)
(0.000142078 -0.00153681 -0.0100082)
(0.0622836 0.000154425 -0.00156537)
(0.0616218 -7.01797e-05 -0.00499463)
(0.0607514 -0.00087801 -0.00850973)
(0.0601476 -0.00184696 -0.0116547)
(0.0600426 -0.00252273 -0.0141078)
(0.0601841 -0.00266474 -0.0158016)
(0.0600948 -0.00229327 -0.0168878)
(0.0592946 -0.0015872 -0.0176575)
(0.0574041 -0.000769572 -0.0184557)
(0.054199 -2.93731e-05 -0.0196163)
(0.0495293 0.000512461 -0.0214215)
(0.0432291 0.000745884 -0.0240476)
(0.0350816 0.000592588 -0.0274558)
(0.024642 -1.00112e-05 -0.0307937)
(0.0121306 -0.00127999 -0.0305333)
(0.00130208 -0.00259928 -0.0179538)
(0.0969831 0.000326327 -0.00106763)
(0.0964547 3.6089e-06 -0.0041636)
(0.0953063 -0.00145732 -0.00815385)
(0.0937522 -0.00337515 -0.01239)
(0.0922225 -0.00488436 -0.0161599)
(0.0908069 -0.00539291 -0.0190291)
(0.089256 -0.00479187 -0.0209344)
(0.0871475 -0.00334612 -0.0221255)
(0.084017 -0.0014733 -0.0230354)
(0.0794811 0.000455413 -0.0241497)
(0.0731769 0.00217796 -0.025898)
(0.0646826 0.00352538 -0.0286063)
(0.0534815 0.00436561 -0.0323555)
(0.0386455 0.00441422 -0.0362611)
(0.0199686 0.00271953 -0.035941)
(0.0026471 -0.0011689 -0.0206855)
(0.125846 0.000356867 -0.000765288)
(0.125506 0.000231568 -0.00303735)
(0.124272 -0.00127548 -0.00652346)
(0.121863 -0.00359751 -0.0109097)
(0.118626 -0.00569572 -0.0154071)
(0.114977 -0.00666316 -0.0192492)
(0.111104 -0.00612709 -0.022027)
(0.106917 -0.00425964 -0.0237847)
(0.102101 -0.00154463 -0.0249162)
(0.0962346 0.00155279 -0.0259807)
(0.0887927 0.00465438 -0.0275247)
(0.079117 0.00757076 -0.0299905)
(0.0663958 0.010181 -0.0335979)
(0.0492172 0.0120225 -0.037625)
(0.0264013 0.0109536 -0.0374345)
(0.00369904 0.00352528 -0.0213377)
(0.14887 0.000322168 -0.000652674)
(0.148638 0.00046738 -0.00232723)
(0.147501 -0.00059312 -0.00512556)
(0.144733 -0.00261198 -0.0091681)
(0.140332 -0.00467763 -0.0138572)
(0.134763 -0.00580371 -0.0182927)
(0.128556 -0.005405 -0.0217677)
(0.122045 -0.00345439 -0.0240643)
(0.115277 -0.00031247 -0.0254568)
(0.107965 0.00357859 -0.0265117)
(0.0995465 0.00785577 -0.0278482)
(0.0892243 0.0123869 -0.0299934)
(0.0759511 0.0171575 -0.0332764)
(0.0579246 0.0217356 -0.0371997)
(0.0325788 0.0226207 -0.0371747)
(0.00512174 0.0114405 -0.0210007)
(0.166101 0.000312508 -0.000608553)
(0.165901 0.00070366 -0.00196467)
(0.164904 0.000257025 -0.00423921)
(0.162136 -0.000998332 -0.00784647)
(0.157239 -0.00244289 -0.0124382)
(0.150515 -0.00324531 -0.0171347)
(0.142621 -0.00278608 -0.0210501)
(0.134231 -0.000870194 -0.0237387)
(0.125764 0.00236138 -0.0253338)
(0.117193 0.00660296 -0.0263586)
(0.108085 0.0116596 -0.0274703)
(0.0976084 0.0175803 -0.0292458)
(0.0845988 0.0245784 -0.0320803)
(0.0670473 0.0326883 -0.0357315)
(0.0405638 0.0373862 -0.0358858)
(0.00814991 0.0236609 -0.0199454)
(0.177584 0.000346816 -0.000576661)
(0.177368 0.000958768 -0.00177233)
(0.176491 0.00111381 -0.0037242)
(0.173885 0.000787932 -0.00698428)
(0.168931 0.000327971 -0.011391)
(0.161753 0.000268433 -0.0161368)
(0.153005 0.00108091 -0.0202562)
(0.143553 0.00301303 -0.0231564)
(0.134092 0.00610549 -0.0248361)
(0.124861 0.0103144 -0.0257716)
(0.115665 0.0156932 -0.0266177)
(0.105746 0.0225997 -0.0279664)
(0.0940542 0.0315831 -0.0302254)
(0.078629 0.0439287 -0.0334214)
(0.053639 0.0551353 -0.0338372)
(0.0154148 0.0439681 -0.018239)
(0.183326 0.000398471 -0.000547061)
(0.183102 0.00121495 -0.00164738)
(0.182315 0.00195321 -0.00342323)
(0.179906 0.00260303 -0.00647222)
(0.175143 0.00327744 -0.0107171)
(0.168022 0.0041673 -0.0153985)
(0.159166 0.00549819 -0.0195317)
(0.149519 0.00747393 -0.0224533)
(0.139952 0.0102711 -0.0240902)
(0.130913 0.0141152 -0.0248642)
(0.122474 0.0193185 -0.0254014)
(0.114036 0.0265744 -0.0262727)
(0.105241 0.0367259 -0.0278491)
(0.0937235 0.0530374 -0.0303486)
(0.0792911 0.0763645 -0.0314294)
(0.03103 0.0698774 -0.0154719)
(0.0228569 1.32918e-05 -0.00119683)
(0.0223466 0.000143786 -0.00268209)
(0.021681 0.000105127 -0.00387461)
(0.0212905 -5.89739e-05 -0.00483839)
(0.0212904 -0.000228624 -0.00556683)
(0.0214718 -0.000331305 -0.00609014)
(0.0215261 -0.000354094 -0.00648122)
(0.0211826 -0.000322386 -0.00683853)
(0.0202658 -0.000281181 -0.00726454)
(0.0187058 -0.00027705 -0.00784698)
(0.0165133 -0.000339505 -0.00864593)
(0.0137327 -0.000492429 -0.0096747)
(0.0104096 -0.000734085 -0.010852)
(0.00655788 -0.00100542 -0.0118259)
(0.00253008 -0.00129937 -0.0114457)
(-0.000351838 -0.00131334 -0.00688725)
(0.0643898 0.000123019 -0.00128131)
(0.0636385 -0.000143536 -0.00404992)
(0.0626062 -0.000999518 -0.00688466)
(0.0617778 -0.00203192 -0.00944387)
(0.061404 -0.00276988 -0.0114702)
(0.0612336 -0.00294943 -0.0128951)
(0.0607761 -0.00257885 -0.0138223)
(0.0595336 -0.00184083 -0.0144702)
(0.0571144 -0.000971695 -0.0151033)
(0.0532909 -0.000171599 -0.0159734)
(0.0479395 0.000439339 -0.0172853)
(0.0409531 0.000764339 -0.0191264)
(0.0322184 0.000749417 -0.0213893)
(0.0215638 0.000326196 -0.0233239)
(0.00974528 -0.000808823 -0.0223003)
(0.00033471 -0.0021932 -0.0125315)
(0.100266 0.000297947 -0.000871608)
(0.0996676 -5.82068e-05 -0.00334107)
(0.0983761 -0.00158028 -0.00651634)
(0.0965852 -0.00360919 -0.00992227)
(0.0947232 -0.00525032 -0.0130024)
(0.0928836 -0.005858 -0.0153922)
(0.0908184 -0.00528334 -0.017011)
(0.0881011 -0.00378454 -0.0180309)
(0.0842616 -0.00180073 -0.0187796)
(0.078917 0.000267579 -0.0196297)
(0.0717218 0.00214665 -0.020898)
(0.0623084 0.00366545 -0.0227989)
(0.0502826 0.00471044 -0.0253064)
(0.0350383 0.00498775 -0.0276036)
(0.0170798 0.00343983 -0.0263669)
(0.00147986 -0.000600654 -0.014443)
(0.130103 0.000327284 -0.000631206)
(0.129707 0.000191237 -0.00243406)
(0.128374 -0.00134693 -0.00516896)
(0.125781 -0.00377291 -0.00864763)
(0.122228 -0.00603191 -0.0122809)
(0.11811 -0.00714968 -0.0154516)
(0.113618 -0.00668323 -0.0177958)
(0.108684 -0.00477124 -0.0193047)
(0.103016 -0.00190872 -0.0202623)
(0.0962073 0.00140029 -0.0210927)
(0.0877526 0.00474628 -0.0222108)
(0.0770397 0.00792676 -0.023927)
(0.0633626 0.0108193 -0.0263267)
(0.0456012 0.0129253 -0.0286959)
(0.0233968 0.0119818 -0.0274661)
(0.00250271 0.0043098 -0.0148236)
(0.153907 0.000297023 -0.000545104)
(0.153617 0.000441316 -0.00188065)
(0.152401 -0.000615105 -0.00405087)
(0.149514 -0.00269403 -0.00721397)
(0.14487 -0.00489353 -0.0109596)
(0.138862 -0.00617279 -0.0145884)
(0.131999 -0.00586665 -0.0175022)
(0.124645 -0.0038905 -0.0194707)
(0.116899 -0.000597693 -0.0206645)
(0.10853 0.00354484 -0.0215108)
(0.099011 0.00813692 -0.0224782)
(0.0875886 0.0130232 -0.0239491)
(0.0733039 0.0181739 -0.0261041)
(0.0545745 0.0230864 -0.0283972)
(0.0296665 0.0241069 -0.0272561)
(0.00398032 0.0125819 -0.0145106)
(0.171721 0.000298482 -0.000505713)
(0.171453 0.00069118 -0.0016009)
(0.17038 0.00026743 -0.0033567)
(0.167533 -0.001003 -0.00614889)
(0.162474 -0.00252578 -0.00978075)
(0.155388 -0.00343831 -0.0135936)
(0.146865 -0.00305343 -0.0168591)
(0.137593 -0.00111575 -0.0191595)
(0.128071 0.002263 -0.0205417)
(0.118359 0.00677002 -0.0213848)
(0.108088 0.0121824 -0.022189)
(0.0964813 0.0185304 -0.023381)
(0.0824592 0.0260139 -0.0252058)
(0.0641494 0.0345694 -0.0273226)
(0.0378988 0.0394672 -0.0263296)
(0.00715659 0.0253202 -0.0137414)
(0.183594 0.000343818 -0.000479606)
(0.183302 0.000964804 -0.00145498)
(0.182343 0.00114826 -0.00295915)
(0.179681 0.000835796 -0.00546341)
(0.174626 0.000353347 -0.00892286)
(0.167162 0.000251012 -0.012753)
(0.157843 0.00104374 -0.0161749)
(0.147528 0.00302479 -0.0186548)
(0.136992 0.00626948 -0.0201224)
(0.126584 0.0107401 -0.0209135)
(0.116204 0.0164859 -0.0215261)
(0.105166 0.023861 -0.0224038)
(0.0925084 0.0334185 -0.023818)
(0.0763656 0.0463431 -0.0256587)
(0.051351 0.057832 -0.0249335)
(0.0146644 0.0463116 -0.0126058)
(0.189533 0.00040731 -0.000454964)
(0.18923 0.00124433 -0.00135752)
(0.188358 0.002011 -0.00272485)
(0.185905 0.00269045 -0.00505636)
(0.181079 0.00339158 -0.00837453)
(0.173733 0.00431148 -0.0121399)
(0.164368 0.00569305 -0.0155659)
(0.153903 0.00776419 -0.0180655)
(0.143288 0.0107226 -0.0195098)
(0.133095 0.0148153 -0.0201883)
(0.123506 0.02037 -0.0205774)
(0.114011 0.0280994 -0.0211117)
(0.104335 0.038864 -0.022052)
(0.0922427 0.055928 -0.023478)
(0.0776494 0.0797189 -0.0233893)
(0.0302832 0.0722853 -0.0107436)
(0.0234066 -8.14013e-06 -0.000897145)
(0.0228515 0.000110965 -0.00199866)
(0.0221127 6.81699e-05 -0.00288009)
(0.0216323 -0.000102552 -0.00359711)
(0.0215361 -0.000280698 -0.00414513)
(0.0216142 -0.000390707 -0.00454278)
(0.0215507 -0.000417819 -0.0048392)
(0.0210677 -0.000387028 -0.00510243)
(0.019988 -0.000343368 -0.0054031)
(0.0182466 -0.000331938 -0.00579883)
(0.0158708 -0.000385428 -0.00632652)
(0.0129318 -0.000511254 -0.0069809)
(0.00951014 -0.000701751 -0.00768778)
(0.00569134 -0.000903019 -0.00818987)
(0.00193161 -0.00113484 -0.00771957)
(-0.000552866 -0.00114034 -0.00451386)
(0.0659674 9.87563e-05 -0.000949343)
(0.0651462 -0.000200466 -0.00298279)
(0.0639898 -0.00109363 -0.00506117)
(0.0629922 -0.00217604 -0.006949)
(0.0624184 -0.00296471 -0.00845987)
(0.0620184 -0.00317693 -0.00953594)
(0.0612913 -0.00281051 -0.0102426)
(0.0597267 -0.00204997 -0.0107303)
(0.0569274 -0.00114128 -0.0111846)
(0.0526673 -0.000294577 -0.0117796)
(0.0468554 0.000375877 -0.0126544)
(0.0394406 0.000779587 -0.0138456)
(0.0303943 0.000879037 -0.0152446)
(0.0197267 0.000600139 -0.0162912)
(0.00843974 -0.000419209 -0.0152005)
(-0.000101859 -0.00185556 -0.00830794)
(0.102727 0.000276495 -0.000644589)
(0.102073 -0.000105453 -0.00244301)
(0.100671 -0.00167243 -0.00474848)
(0.0987033 -0.00378566 -0.00723835)
(0.0965963 -0.0055306 -0.00951617)
(0.0944456 -0.00622011 -0.0113081)
(0.0920027 -0.00567222 -0.0125385)
(0.0888388 -0.00413754 -0.0133167)
(0.0844812 -0.0020705 -0.0138698)
(0.0785575 0.000106265 -0.0144616)
(0.0707462 0.0021124 -0.0153049)
(0.0607323 0.00377306 -0.0165355)
(0.0482303 0.0049884 -0.0180961)
(0.0328606 0.00545545 -0.0193612)
(0.0154766 0.00404197 -0.0180463)
(0.00094958 -0.00011744 -0.0095941)
(0.133293 0.000303805 -0.000470125)
(0.132853 0.000159297 -0.00177905)
(0.131441 -0.00139888 -0.00374451)
(0.12871 -0.00390038 -0.00626155)
(0.124928 -0.00628236 -0.00892564)
(0.120469 -0.00752039 -0.0112869)
(0.115525 -0.00711538 -0.0130603)
(0.110043 -0.00517658 -0.0142148)
(0.103749 -0.00220518 -0.0149381)
(0.0962596 0.00126694 -0.015527)
(0.0870936 0.0048032 -0.0162697)
(0.0756897 0.0081922 -0.0173721)
(0.0614388 0.0113093 -0.0188578)
(0.0434387 0.0136309 -0.0201638)
(0.0217482 0.0128106 -0.0188145)
(0.00197883 0.00494756 -0.00982781)
(0.157684 0.000278439 -0.000408161)
(0.157347 0.000421524 -0.0013831)
(0.156066 -0.000629662 -0.00293063)
(0.153085 -0.00274931 -0.00519638)
(0.148267 -0.00504816 -0.00791948)
(0.141947 -0.00644714 -0.0106041)
(0.134611 -0.00621921 -0.0127983)
(0.12664 -0.004232 -0.0143031)
(0.118177 -0.00083017 -0.0152159)
(0.109037 0.00350197 -0.0158291)
(0.0987385 0.00833386 -0.0164712)
(0.0865739 0.0134904 -0.0174024)
(0.071668 0.0189271 -0.0187188)
(0.052614 0.0240942 -0.0199738)
(0.0281085 0.0252386 -0.0186712)
(0.00351426 0.0134474 -0.00959465)
(0.175937 0.000289243 -0.000377674)
(0.175613 0.000682217 -0.00118346)
(0.174473 0.000276869 -0.00243281)
(0.171562 -0.00100036 -0.0044172)
(0.166387 -0.0025787 -0.00703777)
(0.159048 -0.00357556 -0.00984209)
(0.15008 -0.00325281 -0.0122911)
(0.14017 -0.00130687 -0.0140475)
(0.129875 0.00217688 -0.0151119)
(0.119329 0.00688101 -0.0157356)
(0.108226 0.012559 -0.0162692)
(0.0958481 0.0192223 -0.0170079)
(0.0811918 0.0270541 -0.0180997)
(0.0625069 0.0359243 -0.0192467)
(0.0365247 0.0409794 -0.0180528)
(0.00680305 0.0265077 -0.00907749)
(0.188102 0.000341781 -0.000358115)
(0.18775 0.000969167 -0.00108118)
(0.186721 0.00117596 -0.00215105)
(0.184006 0.000877482 -0.00392087)
(0.178877 0.000381456 -0.00640282)
(0.17122 0.000247063 -0.00920705)
(0.161503 0.00102151 -0.0117656)
(0.150571 0.00303361 -0.0136583)
(0.139252 0.00638765 -0.0147943)
(0.127982 0.0110501 -0.0153919)
(0.116748 0.0170645 -0.0157985)
(0.104935 0.0247764 -0.0163242)
(0.0916591 0.0347307 -0.017143)
(0.0751445 0.04804 -0.01813)
(0.0502282 0.059727 -0.0171487)
(0.0144802 0.04794 -0.00834871)
(0.194188 0.00041463 -0.000339569)
(0.193825 0.00126819 -0.00101137)
(0.19288 0.00205798 -0.00198391)
(0.190381 0.00276202 -0.00362629)
(0.185509 0.00348522 -0.00599898)
(0.178016 0.00442833 -0.00874856)
(0.168302 0.00584703 -0.0113059)
(0.157257 0.00798774 -0.013214)
(0.14588 0.0110636 -0.0143395)
(0.134839 0.0153375 -0.0148651)
(0.124415 0.0211454 -0.0151231)
(0.114177 0.0292072 -0.0154206)
(0.103924 0.0403837 -0.0159308)
(0.0915173 0.0579237 -0.0166811)
(0.0769443 0.0820195 -0.0161803)
(0.030101 0.0739337 -0.00712762)
(0.0237708 -2.20313e-05 -0.000550961)
(0.0231849 8.73753e-05 -0.00122484)
(0.0223969 4.00481e-05 -0.00176069)
(0.0218559 -0.00013711 -0.00219796)
(0.0216957 -0.000322963 -0.00253485)
(0.0217062 -0.000439368 -0.0027811)
(0.0215668 -0.000470193 -0.00296457)
(0.020995 -0.000440283 -0.00312453)
(0.0198137 -0.000394782 -0.00330168)
(0.0179619 -0.000377018 -0.00352838)
(0.0154804 -0.000424866 -0.00382396)
(0.0124599 -0.000531737 -0.00418029)
(0.00900269 -0.000688535 -0.00454839)
(0.00523126 -0.000843885 -0.00477602)
(0.00164425 -0.00103146 -0.00442971)
(-0.000621094 -0.00103575 -0.00254497)
(0.0670155 8.2886e-05 -0.000577459)
(0.0661458 -0.00023936 -0.00181425)
(0.0649068 -0.00115867 -0.00307392)
(0.063796 -0.0022765 -0.00422176)
(0.06309 -0.00310212 -0.00514721)
(0.0625395 -0.00333937 -0.00581186)
(0.0616369 -0.00297802 -0.00625081)
(0.0598637 -0.0022034 -0.00655103)
(0.0568212 -0.00126791 -0.00682153)
(0.0522844 -0.000389506 -0.00716368)
(0.0461904 0.000324095 -0.00765705)
(0.0385301 0.000784335 -0.00831476)
(0.02933 0.000963328 -0.00906165)
(0.0187056 0.000782931 -0.00956056)
(0.00776478 -0.000155229 -0.00878961)
(-0.000283768 -0.00163081 -0.00472479)
(0.104364 0.000261864 -0.00039109)
(0.10367 -0.00013666 -0.00147885)
(0.102196 -0.00173268 -0.00286768)
(0.100109 -0.0039023 -0.00437248)
(0.097841 -0.00571921 -0.00576005)
(0.0954868 -0.00646783 -0.0068618)
(0.0927974 -0.00594217 -0.00762494)
(0.0893423 -0.00438619 -0.00810857)
(0.0846478 -0.00226369 -0.00844459)
(0.0783532 -1.37515e-05 -0.00878907)
(0.0701578 0.00208176 -0.00926399)
(0.0597847 0.00384271 -0.00994342)
(0.0470257 0.00517791 -0.0107806)
(0.0316377 0.00577772 -0.0113937)
(0.0146362 0.00446084 -0.0104647)
(0.000726083 0.000217477 -0.00546461)
(0.135419 0.000288565 -0.000286447)
(0.134945 0.000138364 -0.0010761)
(0.133479 -0.00143098 -0.00225214)
(0.130656 -0.00398079 -0.00376252)
(0.126723 -0.00644566 -0.00537587)
(0.122043 -0.00776807 -0.00682128)
(0.116805 -0.00740946 -0.00791821)
(0.110965 -0.00545702 -0.00863747)
(0.104263 -0.00241509 -0.00908377)
(0.0963332 0.00116791 -0.00943208)
(0.0867179 0.00483398 -0.00984991)
(0.0748937 0.00836632 -0.0104547)
(0.0603215 0.0116382 -0.0112479)
(0.0422347 0.0141099 -0.0118809)
(0.020893 0.0133814 -0.0109186)
(0.00176913 0.00538546 -0.00559337)
(0.160201 0.000266636 -0.000248692)
(0.159829 0.000408831 -0.000839342)
(0.158502 -0.00063723 -0.00176082)
(0.155456 -0.00278098 -0.00311083)
(0.150524 -0.00514486 -0.00475)
(0.144004 -0.00662612 -0.00638602)
(0.136362 -0.00645523 -0.00773922)
(0.127991 -0.00446544 -0.0086765)
(0.119059 -0.000994475 -0.0092454)
(0.10942 0.00346424 -0.00961356)
(0.0986238 0.00845734 -0.00997436)
(0.0860025 0.0137953 -0.0104792)
(0.0707409 0.0194228 -0.0111741)
(0.051545 0.0247613 -0.0117773)
(0.0273207 0.0259975 -0.0108374)
(0.00334786 0.0140245 -0.00545376)
(0.178746 0.000282993 -0.000230465)
(0.178383 0.0006763 -0.000721006)