/*--------------------------------*- C++ -*----------------------------------*\
| =========                 |                                                 |
| \\      /  F ield         | foam-extend: Open Source CFD                    |
|  \\    /   O peration     | Version:     3.1                                |
|   \\  /    A nd           | Web:         http://www.extend-project.de       |
|    \\/     M anipulation  |                                                 |
\*---------------------------------------------------------------------------*/
FoamFile
{
    version     2.0;
    format      ascii;
    class       volVectorField;
    location    "0.0014";
    object      D_0;
}
// * * * * * * * * * * * * * * * * * * * * * * * * * * * * * * * * * * * * * //

dimensions      [0 1 0 0 0 0 0];

internalField   nonuniform List<vector> 
6400
(
(7.3377e-06 2.54572e-07 5.73561e-06)
(5.80944e-06 2.02849e-07 1.86261e-06)
(5.28337e-06 1.81933e-07 -9.92959e-07)
(5.65722e-06 1.89689e-07 -4.58298e-06)
(7.27935e-06 8.41382e-07 5.73993e-06)
(5.76631e-06 6.6632e-07 1.86952e-06)
(5.24648e-06 6.06105e-07 -9.85367e-07)
(5.6245e-06 6.50043e-07 -4.57518e-06)
(7.18664e-06 1.41748e-06 5.73782e-06)
(5.69304e-06 1.12236e-06 1.86918e-06)
(5.18018e-06 1.02172e-06 -9.85129e-07)
(5.55413e-06 1.09664e-06 -4.57475e-06)
(7.05114e-06 1.98144e-06 5.73642e-06)
(5.58587e-06 1.56947e-06 1.86847e-06)
(5.08275e-06 1.42875e-06 -9.85423e-07)
(5.44978e-06 1.53301e-06 -4.5747e-06)
(6.87271e-06 2.53112e-06 5.73584e-06)
(5.44455e-06 2.00533e-06 1.86821e-06)
(4.95415e-06 1.82545e-06 -9.85406e-07)
(5.31187e-06 1.95815e-06 -4.57436e-06)
(6.65213e-06 3.06386e-06 5.73581e-06)
(5.26969e-06 2.42767e-06 1.86833e-06)
(4.79495e-06 2.20979e-06 -9.85098e-07)
(5.14107e-06 2.37007e-06 -4.57378e-06)
(6.39061e-06 3.57683e-06 5.73619e-06)
(5.0623e-06 2.8342e-06 1.86872e-06)
(4.60609e-06 2.57967e-06 -9.84598e-07)
(4.93846e-06 2.76653e-06 -4.57303e-06)
(6.08969e-06 4.0672e-06 5.73686e-06)
(4.82364e-06 3.22264e-06 1.86928e-06)
(4.38878e-06 2.933e-06 -9.84004e-07)
(4.70538e-06 3.14524e-06 -4.57221e-06)
(5.75117e-06 4.53221e-06 5.73778e-06)
(4.55523e-06 3.5908e-06 1.86993e-06)
(4.1445e-06 3.26777e-06 -9.83416e-07)
(4.44349e-06 3.50402e-06 -4.57147e-06)
(5.377e-06 4.96937e-06 5.73892e-06)
(4.25885e-06 3.9367e-06 1.87054e-06)
(3.87498e-06 3.58221e-06 -9.82989e-07)
(4.15468e-06 3.84098e-06 -4.571e-06)
(4.96937e-06 5.377e-06 5.73892e-06)
(3.9367e-06 4.25885e-06 1.87054e-06)
(3.5822e-06 3.87498e-06 -9.82989e-07)
(3.84098e-06 4.15468e-06 -4.571e-06)
(4.53221e-06 5.75117e-06 5.73778e-06)
(3.5908e-06 4.55523e-06 1.86993e-06)
(3.26777e-06 4.1445e-06 -9.83416e-07)
(3.50402e-06 4.44349e-06 -4.57147e-06)
(4.0672e-06 6.08969e-06 5.73686e-06)
(3.22264e-06 4.82364e-06 1.86927e-06)
(2.933e-06 4.38878e-06 -9.84004e-07)
(3.14524e-06 4.70538e-06 -4.57221e-06)
(3.57683e-06 6.39061e-06 5.73618e-06)
(2.8342e-06 5.0623e-06 1.86871e-06)
(2.57967e-06 4.60609e-06 -9.84599e-07)
(2.76653e-06 4.93845e-06 -4.57303e-06)
(3.06386e-06 6.65212e-06 5.73581e-06)
(2.42767e-06 5.26969e-06 1.86833e-06)
(2.20979e-06 4.79495e-06 -9.85098e-07)
(2.37007e-06 5.14107e-06 -4.57378e-06)
(2.53112e-06 6.8727e-06 5.73583e-06)
(2.00533e-06 5.44454e-06 1.8682e-06)
(1.82545e-06 4.95415e-06 -9.85406e-07)
(1.95814e-06 5.31186e-06 -4.57436e-06)
(1.98143e-06 7.05114e-06 5.73642e-06)
(1.56947e-06 5.58587e-06 1.86847e-06)
(1.42875e-06 5.08275e-06 -9.85423e-07)
(1.53301e-06 5.44977e-06 -4.5747e-06)
(1.41748e-06 7.18664e-06 5.73781e-06)
(1.12236e-06 5.69304e-06 1.86918e-06)
(1.02172e-06 5.18018e-06 -9.85129e-07)
(1.09664e-06 5.55412e-06 -4.57475e-06)
(8.41381e-07 7.27935e-06 5.73993e-06)
(6.6632e-07 5.76631e-06 1.86951e-06)
(6.06104e-07 5.24648e-06 -9.85367e-07)
(6.50042e-07 5.6245e-06 -4.57518e-06)
(2.54572e-07 7.3377e-06 5.73561e-06)
(2.02849e-07 5.80944e-06 1.86261e-06)
(1.81932e-07 5.28337e-06 -9.92959e-07)
(1.89689e-07 5.65722e-06 -4.58298e-06)
(3.1312e-05 1.21356e-06 1.22156e-05)
(2.96327e-05 1.15366e-06 4.65718e-06)
(2.86431e-05 1.11701e-06 -2.12141e-06)
(2.83036e-05 1.10656e-06 -9.45887e-06)
(3.10997e-05 3.66496e-06 1.22012e-05)
(2.94359e-05 3.473e-06 4.64383e-06)
(2.84592e-05 3.36077e-06 -2.13469e-06)
(2.81279e-05 3.3243e-06 -9.47189e-06)
(3.07087e-05 6.09601e-06 1.21951e-05)
(2.90662e-05 5.77242e-06 4.63881e-06)
(2.81027e-05 5.58373e-06 -2.1388e-06)
(2.77767e-05 5.52136e-06 -9.47479e-06)
(3.01314e-05 8.48847e-06 1.21926e-05)
(2.852e-05 8.03644e-06 4.6372e-06)
(2.75747e-05 7.77235e-06 -2.13954e-06)
(2.7255e-05 7.68434e-06 -9.47449e-06)
(2.93697e-05 1.08276e-05 1.21921e-05)
(2.7799e-05 1.02504e-05 4.63733e-06)
(2.68776e-05 9.91268e-06 -2.13871e-06)
(2.65658e-05 9.79964e-06 -9.47281e-06)
(2.84276e-05 1.3099e-05 1.21927e-05)
(2.69071e-05 1.24003e-05 4.63844e-06)
(2.6015e-05 1.19913e-05 -2.13704e-06)
(2.57131e-05 1.18539e-05 -9.47045e-06)
(2.73103e-05 1.52889e-05 1.21942e-05)
(2.58493e-05 1.44731e-05 4.64012e-06)
(2.4992e-05 1.39952e-05 -2.13498e-06)
(2.47017e-05 1.38344e-05 -9.46781e-06)
(2.60247e-05 1.7384e-05 1.21961e-05)
(2.46321e-05 1.6456e-05 4.64206e-06)
(2.3815e-05 1.59121e-05 -2.13284e-06)
(2.35381e-05 1.57288e-05 -9.46524e-06)
(2.45785e-05 1.93718e-05 1.21983e-05)
(2.3263e-05 1.83371e-05 4.64394e-06)
(2.24913e-05 1.77304e-05 -2.13095e-06)
(2.22299e-05 1.75256e-05 -9.46309e-06)
(2.29804e-05 2.12407e-05 1.22001e-05)
(2.17507e-05 2.01053e-05 4.64529e-06)
(2.10295e-05 1.94394e-05 -2.12977e-06)
(2.07854e-05 1.92143e-05 -9.46182e-06)
(2.12407e-05 2.29804e-05 1.22001e-05)
(2.01053e-05 2.17507e-05 4.64529e-06)
(1.94394e-05 2.10295e-05 -2.12977e-06)
(1.92143e-05 2.07854e-05 -9.46182e-06)
(1.93718e-05 2.45785e-05 1.21983e-05)
(1.83371e-05 2.3263e-05 4.64394e-06)
(1.77304e-05 2.24913e-05 -2.13096e-06)
(1.75256e-05 2.22299e-05 -9.46309e-06)
(1.7384e-05 2.60247e-05 1.21961e-05)
(1.6456e-05 2.46321e-05 4.64206e-06)
(1.59121e-05 2.3815e-05 -2.13284e-06)
(1.57288e-05 2.35381e-05 -9.46523e-06)
(1.52889e-05 2.73103e-05 1.21942e-05)
(1.44731e-05 2.58493e-05 4.64012e-06)
(1.39951e-05 2.4992e-05 -2.13498e-06)
(1.38344e-05 2.47017e-05 -9.46781e-06)
(1.3099e-05 2.84276e-05 1.21927e-05)
(1.24003e-05 2.69071e-05 4.63844e-06)
(1.19913e-05 2.6015e-05 -2.13705e-06)
(1.18539e-05 2.57131e-05 -9.47045e-06)
(1.08276e-05 2.93697e-05 1.21921e-05)
(1.02504e-05 2.7799e-05 4.63733e-06)
(9.91268e-06 2.68776e-05 -2.13871e-06)
(9.79963e-06 2.65658e-05 -9.47281e-06)
(8.48847e-06 3.01314e-05 1.21926e-05)
(8.03644e-06 2.852e-05 4.6372e-06)
(7.77235e-06 2.75747e-05 -2.13954e-06)
(7.68434e-06 2.7255e-05 -9.47449e-06)
(6.09601e-06 3.07087e-05 1.2195e-05)
(5.77242e-06 2.90662e-05 4.63881e-06)
(5.58373e-06 2.81027e-05 -2.13881e-06)
(5.52136e-06 2.77767e-05 -9.47479e-06)
(3.66496e-06 3.10997e-05 1.22011e-05)
(3.473e-06 2.94359e-05 4.64382e-06)
(3.36076e-06 2.84592e-05 -2.13469e-06)
(3.3243e-06 2.81279e-05 -9.47189e-06)
(1.21356e-06 3.1312e-05 1.22156e-05)
(1.15366e-06 2.96326e-05 4.65717e-06)
(1.11701e-06 2.86431e-05 -2.12141e-06)
(1.10656e-06 2.83036e-05 -9.45887e-06)
(5.65457e-05 2.21235e-06 1.30366e-05)
(5.4967e-05 2.15839e-06 5.00027e-06)
(5.36467e-05 2.11062e-06 -2.58681e-06)
(5.25596e-05 2.07441e-06 -1.04555e-05)
(5.61832e-05 6.63888e-06 1.30215e-05)
(5.46143e-05 6.45999e-06 4.98427e-06)
(5.33036e-05 6.31021e-06 -2.60291e-06)
(5.22242e-05 6.1878e-06 -1.04697e-05)
(5.54823e-05 1.1026e-05 1.30139e-05)
(5.3932e-05 1.07224e-05 4.97688e-06)
(5.26374e-05 1.04697e-05 -2.60939e-06)
(5.15714e-05 1.02622e-05 -1.04744e-05)
(5.4441e-05 1.53442e-05 1.30107e-05)
(5.29196e-05 1.49192e-05 4.97446e-06)
(5.16489e-05 1.4565e-05 -2.61078e-06)
(5.06026e-05 1.42739e-05 -1.04744e-05)
(5.30652e-05 1.95673e-05 1.30102e-05)
(5.1582e-05 1.90238e-05 4.97475e-06)
(5.03431e-05 1.85706e-05 -2.60951e-06)
(4.9323e-05 1.81979e-05 -1.04721e-05)
(5.13629e-05 2.36692e-05 1.30113e-05)
(4.99269e-05 2.30109e-05 4.97656e-06)
(4.87275e-05 2.24616e-05 -2.60685e-06)
(4.77397e-05 2.20097e-05 -1.04684e-05)
(4.93441e-05 2.76249e-05 1.30134e-05)
(4.79642e-05 2.68558e-05 4.97919e-06)
(4.68116e-05 2.62138e-05 -2.60357e-06)
(4.58623e-05 2.56854e-05 -1.04643e-05)
(4.70212e-05 3.14101e-05 1.30161e-05)
(4.57059e-05 3.05348e-05 4.9821e-06)
(4.46073e-05 2.98039e-05 -2.60023e-06)
(4.37026e-05 2.92023e-05 -1.04603e-05)
(4.44083e-05 3.5002e-05 1.3019e-05)
(4.31659e-05 3.40257e-05 4.98479e-06)
(4.21285e-05 3.32102e-05 -2.59742e-06)
(4.12741e-05 3.25388e-05 -1.04571e-05)
(4.15215e-05 3.83789e-05 1.30212e-05)
(4.03603e-05 3.73072e-05 4.98658e-06)
(3.93908e-05 3.6412e-05 -2.59572e-06)
(3.85925e-05 3.56749e-05 -1.04553e-05)
(3.83789e-05 4.15215e-05 1.30212e-05)
(3.73072e-05 4.03603e-05 4.98658e-06)
(3.6412e-05 3.93908e-05 -2.59572e-06)
(3.56749e-05 3.85925e-05 -1.04553e-05)
(3.5002e-05 4.44083e-05 1.3019e-05)
(3.40256e-05 4.31659e-05 4.98479e-06)
(3.32102e-05 4.21285e-05 -2.59742e-06)
(3.25388e-05 4.12741e-05 -1.04571e-05)
(3.14101e-05 4.70212e-05 1.30161e-05)
(3.05348e-05 4.57059e-05 4.9821e-06)
(2.98039e-05 4.46073e-05 -2.60024e-06)
(2.92022e-05 4.37026e-05 -1.04603e-05)
(2.76249e-05 4.93441e-05 1.30134e-05)
(2.68558e-05 4.79642e-05 4.97919e-06)
(2.62138e-05 4.68116e-05 -2.60357e-06)
(2.56854e-05 4.58623e-05 -1.04643e-05)
(2.36692e-05 5.13628e-05 1.30113e-05)
(2.30109e-05 4.99269e-05 4.97656e-06)
(2.24616e-05 4.87275e-05 -2.60685e-06)
(2.20097e-05 4.77397e-05 -1.04684e-05)
(1.95673e-05 5.30652e-05 1.30102e-05)
(1.90238e-05 5.1582e-05 4.97475e-06)
(1.85706e-05 5.03431e-05 -2.60951e-06)
(1.81979e-05 4.93229e-05 -1.04721e-05)
(1.53442e-05 5.44409e-05 1.30107e-05)
(1.49192e-05 5.29195e-05 4.97446e-06)
(1.4565e-05 5.16489e-05 -2.61078e-06)
(1.42739e-05 5.06026e-05 -1.04744e-05)
(1.1026e-05 5.54823e-05 1.30139e-05)
(1.07224e-05 5.3932e-05 4.97688e-06)
(1.04697e-05 5.26374e-05 -2.6094e-06)
(1.02622e-05 5.15714e-05 -1.04744e-05)
(6.63887e-06 5.61832e-05 1.30215e-05)
(6.45999e-06 5.46143e-05 4.98427e-06)
(6.3102e-06 5.33036e-05 -2.60291e-06)
(6.1878e-06 5.22242e-05 -1.04697e-05)
(2.21235e-06 5.65457e-05 1.30366e-05)
(2.15839e-06 5.4967e-05 5.00026e-06)
(2.11062e-06 5.36467e-05 -2.58681e-06)
(2.0744e-06 5.25596e-05 -1.04555e-05)
(7.82246e-05 3.06824e-06 1.0158e-05)
(7.66112e-05 3.01273e-06 3.49589e-06)
(7.50123e-05 2.95522e-06 -2.91502e-06)
(7.34075e-05 2.90279e-06 -9.44356e-06)
(7.7731e-05 9.19138e-06 1.01468e-05)
(7.61246e-05 9.00867e-06 3.48445e-06)
(7.45335e-05 8.82741e-06 -2.92627e-06)
(7.29365e-05 8.64688e-06 -9.45322e-06)
(7.67628e-05 1.5259e-05 1.01404e-05)
(7.51748e-05 1.49495e-05 3.47854e-06)
(7.36025e-05 1.46434e-05 -2.93114e-06)
(7.20249e-05 1.43366e-05 -9.45636e-06)
(7.53223e-05 2.12315e-05 1.01375e-05)
(7.37635e-05 2.07977e-05 3.4767e-06)
(7.222e-05 2.03686e-05 -2.93172e-06)
(7.06713e-05 1.9938e-05 -9.45551e-06)
(7.34184e-05 2.70726e-05 1.01371e-05)
(7.18985e-05 2.65175e-05 3.47746e-06)
(7.03934e-05 2.59681e-05 -2.92968e-06)
(6.88833e-05 2.54166e-05 -9.45206e-06)
(7.10625e-05 3.27466e-05 1.01384e-05)
(6.95908e-05 3.20736e-05 3.47983e-06)
(6.81334e-05 3.14073e-05 -2.92611e-06)
(6.66712e-05 3.07386e-05 -9.44716e-06)
(6.82688e-05 3.82187e-05 1.01408e-05)
(6.68544e-05 3.74319e-05 3.48306e-06)
(6.54539e-05 3.66527e-05 -2.92188e-06)
(6.40488e-05 3.58708e-05 -9.44176e-06)
(6.50544e-05 4.34555e-05 1.01438e-05)
(6.37062e-05 4.25596e-05 3.48656e-06)
(6.23715e-05 4.16722e-05 -2.91768e-06)
(6.10324e-05 4.07816e-05 -9.43667e-06)
(6.14392e-05 4.84252e-05 1.01469e-05)
(6.01658e-05 4.74253e-05 3.4897e-06)
(5.89054e-05 4.64349e-05 -2.91422e-06)
(5.76409e-05 4.54411e-05 -9.43264e-06)
(5.74452e-05 5.30976e-05 1.01493e-05)
(5.62553e-05 5.19996e-05 3.49172e-06)
(5.50775e-05 5.09122e-05 -2.91217e-06)
(5.3896e-05 4.98212e-05 -9.43036e-06)
(5.30976e-05 5.74452e-05 1.01493e-05)
(5.19996e-05 5.62553e-05 3.49172e-06)
(5.09122e-05 5.50775e-05 -2.91217e-06)
(4.98212e-05 5.3896e-05 -9.43036e-06)
(4.84252e-05 6.14392e-05 1.01469e-05)
(4.74253e-05 6.01658e-05 3.4897e-06)
(4.64349e-05 5.89054e-05 -2.91422e-06)
(4.54411e-05 5.76409e-05 -9.43264e-06)
(4.34555e-05 6.50544e-05 1.01438e-05)
(4.25596e-05 6.37062e-05 3.48656e-06)
(4.16722e-05 6.23715e-05 -2.91769e-06)
(4.07816e-05 6.10324e-05 -9.43667e-06)
(3.82187e-05 6.82688e-05 1.01408e-05)
(3.74319e-05 6.68544e-05 3.48306e-06)
(3.66527e-05 6.54539e-05 -2.92188e-06)
(3.58708e-05 6.40488e-05 -9.44176e-06)
(3.27466e-05 7.10625e-05 1.01384e-05)
(3.20736e-05 6.95907e-05 3.47982e-06)
(3.14073e-05 6.81334e-05 -2.92612e-06)
(3.07386e-05 6.66712e-05 -9.44716e-06)
(2.70726e-05 7.34184e-05 1.01371e-05)
(2.65175e-05 7.18984e-05 3.47746e-06)
(2.5968e-05 7.03933e-05 -2.92968e-06)
(2.54166e-05 6.88832e-05 -9.45206e-06)
(2.12315e-05 7.53223e-05 1.01375e-05)
(2.07977e-05 7.37635e-05 3.4767e-06)
(2.03686e-05 7.22199e-05 -2.93173e-06)
(1.9938e-05 7.06713e-05 -9.45551e-06)
(1.5259e-05 7.67627e-05 1.01404e-05)
(1.49494e-05 7.51748e-05 3.47854e-06)
(1.46434e-05 7.36024e-05 -2.93114e-06)
(1.43365e-05 7.20249e-05 -9.45636e-06)
(9.19137e-06 7.7731e-05 1.01468e-05)
(9.00866e-06 7.61246e-05 3.48444e-06)
(8.82741e-06 7.45335e-05 -2.92627e-06)
(8.64687e-06 7.29364e-05 -9.45322e-06)
(3.06824e-06 7.82245e-05 1.0158e-05)
(3.01273e-06 7.66112e-05 3.49588e-06)
(2.95522e-06 7.50123e-05 -2.91502e-06)
(2.90279e-06 7.34075e-05 -9.44356e-06)
(9.349e-05 3.66843e-06 5.12569e-06)
(9.17987e-05 3.61015e-06 8.26213e-07)
(9.0006e-05 3.54593e-06 -3.36504e-06)
(8.80944e-05 3.48407e-06 -7.57983e-06)
(9.29025e-05 1.09851e-05 5.11971e-06)
(9.12171e-05 1.07941e-05 8.20579e-07)
(8.94314e-05 1.05915e-05 -3.37014e-06)
(8.75278e-05 1.03772e-05 -7.58365e-06)
(9.17446e-05 1.82353e-05 5.11575e-06)
(9.00782e-05 1.7912e-05 8.17728e-07)
(8.83133e-05 1.75698e-05 -3.37171e-06)
(8.64328e-05 1.72051e-05 -7.58357e-06)
(9.00215e-05 2.53718e-05 5.1139e-06)
(8.83853e-05 2.49185e-05 8.1742e-07)
(8.66527e-05 2.44384e-05 -3.37042e-06)
(8.48066e-05 2.39264e-05 -7.58055e-06)
(8.77442e-05 3.23512e-05 5.11382e-06)
(8.61485e-05 3.17706e-05 8.19022e-07)
(8.44588e-05 3.11555e-05 -3.36709e-06)
(8.26585e-05 3.04996e-05 -7.57537e-06)
(8.49266e-05 3.9131e-05 5.11512e-06)
(8.33813e-05 3.84265e-05 8.21922e-07)
(8.17451e-05 3.76802e-05 -3.36251e-06)
(8.00018e-05 3.68844e-05 -7.56896e-06)
(8.15859e-05 4.56699e-05 5.11742e-06)
(8.01007e-05 4.48456e-05 8.25548e-07)
(7.85283e-05 4.39723e-05 -3.35742e-06)
(7.68531e-05 4.30413e-05 -7.56224e-06)
(7.77428e-05 5.19279e-05 5.12032e-06)
(7.63272e-05 5.09886e-05 8.29336e-07)
(7.48286e-05 4.99935e-05 -3.35254e-06)
(7.32322e-05 4.89328e-05 -7.55606e-06)
(7.34212e-05 5.78671e-05 5.12332e-06)
(7.20843e-05 5.68182e-05 8.32666e-07)
(7.06693e-05 5.57072e-05 -3.3486e-06)
(6.9162e-05 5.45232e-05 -7.55126e-06)
(6.86474e-05 6.34514e-05 5.12562e-06)
(6.73983e-05 6.22991e-05 8.34779e-07)
(6.60763e-05 6.10788e-05 -3.34631e-06)
(6.4668e-05 5.97786e-05 -7.54858e-06)
(6.34514e-05 6.86474e-05 5.12562e-06)
(6.22991e-05 6.73983e-05 8.34779e-07)
(6.10788e-05 6.60763e-05 -3.34631e-06)
(5.97786e-05 6.4668e-05 -7.54858e-06)
(5.78671e-05 7.34212e-05 5.12332e-06)
(5.68182e-05 7.20843e-05 8.32665e-07)
(5.57072e-05 7.06693e-05 -3.3486e-06)
(5.45231e-05 6.9162e-05 -7.55126e-06)
(5.19279e-05 7.77428e-05 5.12032e-06)
(5.09886e-05 7.63272e-05 8.29335e-07)
(4.99935e-05 7.48286e-05 -3.35255e-06)
(4.89328e-05 7.32322e-05 -7.55606e-06)
(4.56699e-05 8.15859e-05 5.11741e-06)
(4.48456e-05 8.01007e-05 8.25546e-07)
(4.39723e-05 7.85283e-05 -3.35742e-06)
(4.30413e-05 7.68531e-05 -7.56224e-06)
(3.9131e-05 8.49265e-05 5.11511e-06)
(3.84265e-05 8.33813e-05 8.21919e-07)
(3.76801e-05 8.17451e-05 -3.36251e-06)
(3.68843e-05 8.00018e-05 -7.56896e-06)
(3.23512e-05 8.77442e-05 5.11382e-06)
(3.17706e-05 8.61485e-05 8.19019e-07)
(3.11555e-05 8.44588e-05 -3.36709e-06)
(3.04996e-05 8.26585e-05 -7.57537e-06)
(2.53717e-05 9.00215e-05 5.1139e-06)
(2.49185e-05 8.83853e-05 8.17417e-07)
(2.44384e-05 8.66527e-05 -3.37042e-06)
(2.39264e-05 8.48066e-05 -7.58055e-06)
(1.82353e-05 9.17446e-05 5.11575e-06)
(1.7912e-05 9.00781e-05 8.17724e-07)
(1.75698e-05 8.83133e-05 -3.37171e-06)
(1.72051e-05 8.64328e-05 -7.58357e-06)
(1.09851e-05 9.29024e-05 5.11971e-06)
(1.07941e-05 9.1217e-05 8.20575e-07)
(1.05915e-05 8.94314e-05 -3.37014e-06)
(1.03772e-05 8.75278e-05 -7.58365e-06)
(3.66842e-06 9.349e-05 5.12569e-06)
(3.61015e-06 9.17987e-05 8.26209e-07)
(3.54593e-06 9.0006e-05 -3.36505e-06)
(3.48407e-06 8.80943e-05 -7.57984e-06)
(0.000101143 3.96714e-06 -8.79946e-07)
(9.93971e-05 3.90733e-06 -2.43958e-06)
(9.75164e-05 3.84036e-06 -4.00237e-06)
(9.54846e-05 3.77514e-06 -5.53802e-06)
(0.000100507 1.188e-05 -8.81204e-07)
(9.87663e-05 1.1684e-05 -2.44e-06)
(9.68925e-05 1.14727e-05 -4.00195e-06)
(9.48689e-05 1.12462e-05 -5.53653e-06)
(9.92518e-05 1.9721e-05 -8.82415e-07)
(9.75305e-05 1.93892e-05 -2.43959e-06)
(9.56783e-05 1.90321e-05 -4e-06)
(9.36792e-05 1.86463e-05 -5.53288e-06)
(9.73843e-05 2.74388e-05 -8.8298e-07)
(9.56939e-05 2.69733e-05 -2.43807e-06)
(9.38753e-05 2.64718e-05 -3.99647e-06)
(9.19126e-05 2.59299e-05 -5.52721e-06)
(9.49168e-05 3.49867e-05 -8.82711e-07)
(9.32679e-05 3.43898e-05 -2.43551e-06)
(9.14941e-05 3.37468e-05 -3.99165e-06)
(8.95799e-05 3.30522e-05 -5.51998e-06)
(9.18647e-05 4.23187e-05 -8.81592e-07)
(9.02676e-05 4.15936e-05 -2.43213e-06)
(8.85499e-05 4.08128e-05 -3.98602e-06)
(8.66962e-05 3.99693e-05 -5.51192e-06)
(8.82472e-05 4.93903e-05 -8.79715e-07)
(8.67121e-05 4.8541e-05 -2.4283e-06)
(8.50613e-05 4.76267e-05 -3.98018e-06)
(8.328e-05 4.66392e-05 -5.50385e-06)
(8.40869e-05 5.61586e-05 -8.77288e-07)
(8.26238e-05 5.51899e-05 -2.42445e-06)
(8.10506e-05 5.41473e-05 -3.97477e-06)
(7.93532e-05 5.30215e-05 -5.49663e-06)
(7.94098e-05 6.25826e-05 -8.7469e-07)
(7.80283e-05 6.15001e-05 -2.42113e-06)
(7.6543e-05 6.03352e-05 -3.97047e-06)
(7.49406e-05 5.90777e-05 -5.49111e-06)
(7.42446e-05 6.86234e-05 -8.72639e-07)
(7.29541e-05 6.74333e-05 -2.41904e-06)
(7.15668e-05 6.61532e-05 -3.96802e-06)
(7.007e-05 6.47718e-05 -5.48807e-06)
(6.86233e-05 7.42446e-05 -8.72639e-07)
(6.74333e-05 7.29541e-05 -2.41904e-06)
(6.61532e-05 7.15668e-05 -3.96802e-06)
(6.47718e-05 7.007e-05 -5.48807e-06)
(6.25826e-05 7.94098e-05 -8.7469e-07)
(6.15001e-05 7.80283e-05 -2.42113e-06)
(6.03352e-05 7.6543e-05 -3.97048e-06)
(5.90777e-05 7.49406e-05 -5.49111e-06)
(5.61586e-05 8.40869e-05 -8.77288e-07)
(5.51899e-05 8.26238e-05 -2.42445e-06)
(5.41472e-05 8.10506e-05 -3.97477e-06)
(5.30215e-05 7.93532e-05 -5.49663e-06)
(4.93903e-05 8.82472e-05 -8.79716e-07)
(4.8541e-05 8.67121e-05 -2.4283e-06)
(4.76267e-05 8.50613e-05 -3.98018e-06)
(4.66392e-05 8.328e-05 -5.50385e-06)
(4.23187e-05 9.18647e-05 -8.81593e-07)
(4.15936e-05 9.02676e-05 -2.43213e-06)
(4.08128e-05 8.85499e-05 -3.98603e-06)
(3.99693e-05 8.66962e-05 -5.51192e-06)
(3.49867e-05 9.49167e-05 -8.82713e-07)
(3.43897e-05 9.32678e-05 -2.43551e-06)
(3.37468e-05 9.14941e-05 -3.99165e-06)
(3.30522e-05 8.95799e-05 -5.51998e-06)
(2.74388e-05 9.73843e-05 -8.82981e-07)
(2.69732e-05 9.56939e-05 -2.43808e-06)
(2.64718e-05 9.38753e-05 -3.99647e-06)
(2.59299e-05 9.19125e-05 -5.52721e-06)
(1.9721e-05 9.92518e-05 -8.82416e-07)
(1.93892e-05 9.75304e-05 -2.4396e-06)
(1.90321e-05 9.56783e-05 -4e-06)
(1.86463e-05 9.36791e-05 -5.53288e-06)
(1.188e-05 0.000100507 -8.81206e-07)
(1.1684e-05 9.87663e-05 -2.44e-06)
(1.14727e-05 9.68925e-05 -4.00195e-06)
(1.12462e-05 9.48689e-05 -5.53653e-06)
(3.96714e-06 0.000101143 -8.79948e-07)
(3.90733e-06 9.9397e-05 -2.43958e-06)
(3.84036e-06 9.75164e-05 -4.00238e-06)
(3.77514e-06 9.54845e-05 -5.53802e-06)
(0.000101103 3.96214e-06 -6.95656e-06)
(9.93577e-05 3.90309e-06 -5.82486e-06)
(9.74995e-05 3.83751e-06 -4.78892e-06)
(9.55112e-05 3.77433e-06 -3.69741e-06)
(0.000100464 1.18674e-05 -6.95388e-06)
(9.87244e-05 1.16735e-05 -5.82102e-06)
(9.68729e-05 1.14665e-05 -4.78403e-06)
(9.48928e-05 1.12469e-05 -3.69163e-06)
(9.92051e-05 1.97008e-05 -6.95262e-06)
(9.74843e-05 1.93721e-05 -5.8178e-06)
(9.5654e-05 1.9022e-05 -4.77907e-06)
(9.36976e-05 1.86475e-05 -3.68495e-06)
(9.73326e-05 2.7411e-05 -6.952e-06)
(9.56423e-05 2.69492e-05 -5.81464e-06)
(9.38449e-05 2.64571e-05 -4.77359e-06)
(9.19239e-05 2.59306e-05 -3.67698e-06)
(9.48598e-05 3.49511e-05 -6.95146e-06)
(9.32106e-05 3.43582e-05 -5.81126e-06)
(9.14572e-05 3.37266e-05 -4.76753e-06)
(8.95835e-05 3.30509e-05 -3.66801e-06)
(9.18027e-05 4.22755e-05 -6.95065e-06)
(9.0205e-05 4.15542e-05 -5.8076e-06)
(8.85068e-05 4.07863e-05 -4.76112e-06)
(8.66922e-05 3.99649e-05 -3.65862e-06)
(8.81811e-05 4.93398e-05 -6.94938e-06)
(8.66453e-05 4.84939e-05 -5.80378e-06)
(8.50131e-05 4.75936e-05 -4.75479e-06)
(8.32694e-05 4.66309e-05 -3.64951e-06)
(8.40181e-05 5.61016e-05 -6.94764e-06)
(8.25543e-05 5.51356e-05 -5.80007e-06)
(8.0999e-05 5.41078e-05 -4.74909e-06)
(7.93376e-05 5.30092e-05 -3.64151e-06)
(7.93399e-05 6.25201e-05 -6.94563e-06)
(7.79581e-05 6.14394e-05 -5.79692e-06)
(7.64901e-05 6.02901e-05 -4.74463e-06)
(7.49221e-05 5.90619e-05 -3.63546e-06)
(7.41755e-05 6.85569e-05 -6.94394e-06)
(7.28854e-05 6.73678e-05 -5.79496e-06)
(7.15147e-05 6.61039e-05 -4.74212e-06)
(7.00507e-05 6.47534e-05 -3.63216e-06)
(6.85568e-05 7.41755e-05 -6.94394e-06)
(6.73678e-05 7.28854e-05 -5.79496e-06)
(6.61038e-05 7.15148e-05 -4.74212e-06)
(6.47534e-05 7.00507e-05 -3.63216e-06)
(6.25201e-05 7.93399e-05 -6.94563e-06)
(6.14394e-05 7.79581e-05 -5.79692e-06)
(6.02901e-05 7.64901e-05 -4.74463e-06)
(5.90618e-05 7.49221e-05 -3.63546e-06)
(5.61016e-05 8.40181e-05 -6.94764e-06)
(5.51355e-05 8.25543e-05 -5.80007e-06)
(5.41078e-05 8.0999e-05 -4.74909e-06)
(5.30091e-05 7.93376e-05 -3.64151e-06)
(4.93398e-05 8.8181e-05 -6.94938e-06)
(4.84939e-05 8.66453e-05 -5.80378e-06)
(4.75936e-05 8.50131e-05 -4.75479e-06)
(4.66309e-05 8.32694e-05 -3.64951e-06)
(4.22755e-05 9.18026e-05 -6.95065e-06)
(4.15542e-05 9.0205e-05 -5.8076e-06)
(4.07863e-05 8.85067e-05 -4.76112e-06)
(3.99649e-05 8.66921e-05 -3.65862e-06)
(3.49511e-05 9.48597e-05 -6.95146e-06)
(3.43582e-05 9.32106e-05 -5.81126e-06)
(3.37266e-05 9.14572e-05 -4.76753e-06)
(3.30508e-05 8.95834e-05 -3.66802e-06)
(2.7411e-05 9.73326e-05 -6.95199e-06)
(2.69492e-05 9.56423e-05 -5.81464e-06)
(2.64571e-05 9.38449e-05 -4.77359e-06)
(2.59306e-05 9.19239e-05 -3.67698e-06)
(1.97008e-05 9.9205e-05 -6.95262e-06)
(1.93721e-05 9.74843e-05 -5.8178e-06)
(1.9022e-05 9.56539e-05 -4.77908e-06)
(1.86475e-05 9.36976e-05 -3.68495e-06)
(1.18674e-05 0.000100464 -6.95388e-06)
(1.16735e-05 9.87244e-05 -5.82102e-06)
(1.14665e-05 9.68729e-05 -4.78403e-06)
(1.12469e-05 9.48927e-05 -3.69164e-06)
(3.96214e-06 0.000101103 -6.95656e-06)
(3.90309e-06 9.93577e-05 -5.82486e-06)
(3.83751e-06 9.74994e-05 -4.78892e-06)
(3.77433e-06 9.55112e-05 -3.69741e-06)
(9.40554e-05 3.68093e-06 -1.23792e-05)
(9.23765e-05 3.62516e-06 -8.9252e-06)
(9.06449e-05 3.56483e-06 -5.64819e-06)
(8.88426e-05 3.50837e-06 -2.29473e-06)
(9.34565e-05 1.1029e-05 -1.23733e-05)
(9.17833e-05 1.0845e-05 -8.91809e-06)
(9.00583e-05 1.06546e-05 -5.64e-06)
(8.82637e-05 1.04584e-05 -2.28589e-06)
(9.22787e-05 1.83102e-05 -1.237e-05)
(9.06233e-05 1.79977e-05 -8.91276e-06)
(8.89178e-05 1.76752e-05 -5.63301e-06)
(8.71445e-05 1.734e-05 -2.27735e-06)
(9.05285e-05 2.54764e-05 -1.23683e-05)
(8.8902e-05 2.50366e-05 -8.90845e-06)
(8.72267e-05 2.45827e-05 -5.62638e-06)
(8.54851e-05 2.41106e-05 -2.26821e-06)
(8.82189e-05 3.24841e-05 -1.23674e-05)
(8.66314e-05 3.19184e-05 -8.90459e-06)
(8.49968e-05 3.13348e-05 -5.61977e-06)
(8.32978e-05 3.0728e-05 -2.25859e-06)
(8.53658e-05 3.92908e-05 -1.23668e-05)
(8.38274e-05 3.86016e-05 -8.9009e-06)
(8.2244e-05 3.78909e-05 -5.61321e-06)
(8.05984e-05 3.7152e-05 -2.24886e-06)
(8.19883e-05 4.58558e-05 -1.23661e-05)
(8.05093e-05 4.50462e-05 -8.8973e-06)
(7.89875e-05 4.42116e-05 -5.60695e-06)
(7.74063e-05 4.33443e-05 -2.2396e-06)
(7.81088e-05 5.21401e-05 -1.23649e-05)
(7.66993e-05 5.1214e-05 -8.89392e-06)
(7.52493e-05 5.026e-05 -5.60139e-06)
(7.37431e-05 4.92686e-05 -2.23153e-06)
(7.37523e-05 5.81065e-05 -1.23635e-05)
(7.24222e-05 5.70689e-05 -8.89109e-06)
(7.10541e-05 5.60006e-05 -5.5971e-06)
(6.96332e-05 5.48908e-05 -2.22546e-06)
(6.8946e-05 6.37195e-05 -1.23622e-05)
(6.77048e-05 6.25766e-05 -8.88932e-06)
(6.64282e-05 6.14005e-05 -5.59468e-06)
(6.51024e-05 6.01787e-05 -2.22214e-06)
(6.37195e-05 6.8946e-05 -1.23622e-05)
(6.25766e-05 6.77048e-05 -8.88932e-06)
(6.14004e-05 6.64282e-05 -5.59468e-06)
(6.01787e-05 6.51024e-05 -2.22215e-06)
(5.81065e-05 7.37523e-05 -1.23635e-05)
(5.70689e-05 7.24222e-05 -8.89108e-06)
(5.60006e-05 7.10541e-05 -5.5971e-06)
(5.48908e-05 6.96332e-05 -2.22546e-06)
(5.21401e-05 7.81088e-05 -1.23649e-05)
(5.1214e-05 7.66993e-05 -8.89392e-06)
(5.02599e-05 7.52493e-05 -5.60139e-06)
(4.92686e-05 7.37431e-05 -2.23153e-06)
(4.58558e-05 8.19883e-05 -1.23661e-05)
(4.50461e-05 8.05093e-05 -8.8973e-06)
(4.42116e-05 7.89874e-05 -5.60695e-06)
(4.33443e-05 7.74063e-05 -2.2396e-06)
(3.92908e-05 8.53657e-05 -1.23668e-05)
(3.86016e-05 8.38274e-05 -8.9009e-06)
(3.78909e-05 8.22439e-05 -5.61321e-06)
(3.7152e-05 8.05984e-05 -2.24887e-06)
(3.24841e-05 8.82189e-05 -1.23674e-05)
(3.19184e-05 8.66313e-05 -8.90459e-06)
(3.13348e-05 8.49968e-05 -5.61977e-06)
(3.0728e-05 8.32978e-05 -2.2586e-06)
(2.54764e-05 9.05285e-05 -1.23683e-05)
(2.50366e-05 8.89019e-05 -8.90845e-06)
(2.45826e-05 8.72267e-05 -5.62638e-06)
(2.41105e-05 8.54851e-05 -2.26822e-06)
(1.83102e-05 9.22787e-05 -1.23699e-05)
(1.79977e-05 9.06233e-05 -8.91275e-06)
(1.76752e-05 8.89178e-05 -5.63301e-06)
(1.734e-05 8.71445e-05 -2.27735e-06)
(1.1029e-05 9.34565e-05 -1.23733e-05)
(1.0845e-05 9.17832e-05 -8.91809e-06)
(1.06546e-05 9.00583e-05 -5.64e-06)
(1.04584e-05 8.82637e-05 -2.28589e-06)
(3.68093e-06 9.40554e-05 -1.23791e-05)
(3.62515e-06 9.23764e-05 -8.92519e-06)
(3.56483e-06 9.06449e-05 -5.64819e-06)
(3.50837e-06 8.88426e-05 -2.29474e-06)
(8.13539e-05 3.17715e-06 -1.65287e-05)
(7.98015e-05 3.12681e-06 -1.13995e-05)
(7.82849e-05 3.07488e-06 -6.51172e-06)
(7.67845e-05 3.02883e-06 -1.53162e-06)
(8.08297e-05 9.52557e-06 -1.65205e-05)
(7.92832e-05 9.35833e-06 -1.13903e-05)
(7.7773e-05 9.1944e-06 -6.50167e-06)
(7.62795e-05 9.03454e-06 -1.5213e-06)
(7.98028e-05 1.5816e-05 -1.65155e-05)
(7.82724e-05 1.55311e-05 -1.13838e-05)
(7.67788e-05 1.5253e-05 -6.49395e-06)
(7.53028e-05 1.49793e-05 -1.51262e-06)
(7.82785e-05 2.20063e-05 -1.65127e-05)
(7.67742e-05 2.16047e-05 -1.13789e-05)
(7.53067e-05 2.12125e-05 -6.48735e-06)
(7.38568e-05 2.0826e-05 -1.50412e-06)
(7.6269e-05 2.80589e-05 -1.65112e-05)
(7.48003e-05 2.75413e-05 -1.1375e-05)
(7.3368e-05 2.70361e-05 -6.48126e-06)
(7.19532e-05 2.65381e-05 -1.49564e-06)
(7.37892e-05 3.39372e-05 -1.65102e-05)
(7.23656e-05 3.33054e-05 -1.13715e-05)
(7.09779e-05 3.26888e-05 -6.47549e-06)
(6.96075e-05 3.2081e-05 -1.4873e-06)
(7.08569e-05 3.96065e-05 -1.65094e-05)
(6.9488e-05 3.88628e-05 -1.13683e-05)
(6.81543e-05 3.81373e-05 -6.47011e-06)
(6.68375e-05 3.74221e-05 -1.47943e-06)
(6.74923e-05 4.50337e-05 -1.65085e-05)
(6.61879e-05 4.41814e-05 -1.13653e-05)
(6.49175e-05 4.33504e-05 -6.46538e-06)
(6.36636e-05 4.25311e-05 -1.47257e-06)
(6.37179e-05 5.01874e-05 -1.65073e-05)
(6.24875e-05 4.9231e-05 -1.13629e-05)
(6.12895e-05 4.82989e-05 -6.46173e-06)
(6.01075e-05 4.73797e-05 -1.46738e-06)
(5.95579e-05 5.50382e-05 -1.65062e-05)
(5.84108e-05 5.39831e-05 -1.13614e-05)
(5.72939e-05 5.29553e-05 -6.45967e-06)
(5.61922e-05 5.19417e-05 -1.46454e-06)
(5.50382e-05 5.95579e-05 -1.65062e-05)
(5.39831e-05 5.84108e-05 -1.13614e-05)
(5.29553e-05 5.72939e-05 -6.45967e-06)
(5.19416e-05 5.61922e-05 -1.46454e-06)
(5.01874e-05 6.37179e-05 -1.65073e-05)
(4.9231e-05 6.24875e-05 -1.13629e-05)
(4.82989e-05 6.12895e-05 -6.46173e-06)
(4.73797e-05 6.01075e-05 -1.46738e-06)
(4.50337e-05 6.74923e-05 -1.65085e-05)
(4.41814e-05 6.61879e-05 -1.13653e-05)
(4.33504e-05 6.49175e-05 -6.46538e-06)
(4.25311e-05 6.36636e-05 -1.47257e-06)
(3.96065e-05 7.08569e-05 -1.65094e-05)
(3.88628e-05 6.9488e-05 -1.13682e-05)
(3.81373e-05 6.81543e-05 -6.47011e-06)
(3.74221e-05 6.68375e-05 -1.47943e-06)
(3.39372e-05 7.37892e-05 -1.65102e-05)
(3.33054e-05 7.23656e-05 -1.13715e-05)
(3.26888e-05 7.09779e-05 -6.47549e-06)
(3.2081e-05 6.96074e-05 -1.4873e-06)
(2.80589e-05 7.6269e-05 -1.65112e-05)
(2.75413e-05 7.48003e-05 -1.1375e-05)
(2.70361e-05 7.3368e-05 -6.48126e-06)
(2.65381e-05 7.19532e-05 -1.49564e-06)
(2.20063e-05 7.82785e-05 -1.65127e-05)
(2.16047e-05 7.67742e-05 -1.13789e-05)
(2.12124e-05 7.53067e-05 -6.48735e-06)
(2.0826e-05 7.38568e-05 -1.50412e-06)
(1.5816e-05 7.98028e-05 -1.65155e-05)
(1.55311e-05 7.82724e-05 -1.13838e-05)
(1.5253e-05 7.67788e-05 -6.49395e-06)
(1.49793e-05 7.53028e-05 -1.51262e-06)
(9.52556e-06 8.08297e-05 -1.65205e-05)
(9.35832e-06 7.92832e-05 -1.13903e-05)
(9.1944e-06 7.7773e-05 -6.50167e-06)
(9.03454e-06 7.62795e-05 -1.52131e-06)
(3.17715e-06 8.13539e-05 -1.65287e-05)
(3.12681e-06 7.98015e-05 -1.13995e-05)
(3.07488e-06 7.82849e-05 -6.51172e-06)
(3.02883e-06 7.67845e-05 -1.53162e-06)
(6.51207e-05 2.53502e-06 -1.89223e-05)
(6.37397e-05 2.49152e-06 -1.29949e-05)
(6.24959e-05 2.44987e-06 -7.33623e-06)
(6.13684e-05 2.41625e-06 -1.58564e-06)
(6.46941e-05 7.60893e-06 -1.8913e-05)
(6.33192e-05 7.46288e-06 -1.29853e-05)
(6.20814e-05 7.33147e-06 -7.32625e-06)
(6.09597e-05 7.21533e-06 -1.57596e-06)
(6.38632e-05 1.26363e-05 -1.89068e-05)
(6.25022e-05 1.23867e-05 -1.29786e-05)
(6.12779e-05 1.21632e-05 -7.31932e-06)
(6.01691e-05 1.19636e-05 -1.5691e-06)
(6.26317e-05 1.75828e-05 -1.89027e-05)
(6.12935e-05 1.72302e-05 -1.29738e-05)
(6.00901e-05 1.69142e-05 -7.31402e-06)
(5.90005e-05 1.66312e-05 -1.56324e-06)
(6.10105e-05 2.24183e-05 -1.88999e-05)
(5.97034e-05 2.1963e-05 -1.29701e-05)
(5.85285e-05 2.15549e-05 -7.30956e-06)
(5.74649e-05 2.11889e-05 -1.55793e-06)
(5.90123e-05 2.71135e-05 -1.88978e-05)
(5.77451e-05 2.65567e-05 -1.29669e-05)
(5.66065e-05 2.60574e-05 -7.3056e-06)
(5.55761e-05 2.5609e-05 -1.55296e-06)
(5.66528e-05 3.16413e-05 -1.8896e-05)
(5.54342e-05 3.09846e-05 -1.29642e-05)
(5.43399e-05 3.03956e-05 -7.30201e-06)
(5.335e-05 2.98661e-05 -1.54833e-06)
(5.39492e-05 3.59758e-05 -1.88944e-05)
(5.27883e-05 3.52218e-05 -1.29617e-05)
(5.17463e-05 3.45455e-05 -7.29887e-06)
(5.08042e-05 3.39368e-05 -1.54427e-06)
(5.09207e-05 4.00932e-05 -1.88928e-05)
(4.98263e-05 3.92456e-05 -1.29597e-05)
(4.88444e-05 3.84853e-05 -7.29641e-06)
(4.79573e-05 3.78002e-05 -1.54114e-06)
(4.75875e-05 4.39709e-05 -1.88917e-05)
(4.65681e-05 4.30344e-05 -1.29585e-05)
(4.56539e-05 4.21944e-05 -7.29501e-06)