/*--------------------------------*- C++ -*----------------------------------*\
| =========                 |                                                 |
| \\      /  F ield         | foam-extend: Open Source CFD                    |
|  \\    /   O peration     | Version:     3.1                                |
|   \\  /    A nd           | Web:         http://www.extend-project.de       |
|    \\/     M anipulation  |                                                 |
\*---------------------------------------------------------------------------*/
FoamFile
{
    version     2.0;
    format      ascii;
    class       volVectorField;
    location    "0.0014";
    object      D_0_0_0;
}
// * * * * * * * * * * * * * * * * * * * * * * * * * * * * * * * * * * * * * //

dimensions      [0 1 0 0 0 0 0];

internalField   nonuniform List<vector> 
6400
(
(7.20482e-06 2.5152e-07 5.39526e-06)
(5.75543e-06 2.02493e-07 1.73925e-06)
(5.24034e-06 1.82052e-07 -9.28031e-07)
(5.56201e-06 1.88157e-07 -4.31178e-06)
(7.14841e-06 8.27185e-07 5.39882e-06)
(5.71326e-06 6.61084e-07 1.74519e-06)
(5.20391e-06 6.02065e-07 -9.21451e-07)
(5.5295e-06 6.39906e-07 -4.30493e-06)
(7.05754e-06 1.39257e-06 5.39673e-06)
(5.64083e-06 1.11265e-06 1.74475e-06)
(5.13828e-06 1.01405e-06 -9.21328e-07)
(5.46041e-06 1.0787e-06 -4.30456e-06)
(6.92457e-06 1.94617e-06 5.3954e-06)
(5.53472e-06 1.55546e-06 1.74407e-06)
(5.0417e-06 1.41761e-06 -9.21579e-07)
(5.35784e-06 1.50757e-06 -4.30445e-06)
(6.7494e-06 2.48583e-06 5.39484e-06)
(5.39474e-06 1.98718e-06 1.74385e-06)
(4.91416e-06 1.81096e-06 -9.21502e-07)
(5.22225e-06 1.92542e-06 -4.30403e-06)
(6.53285e-06 3.00894e-06 5.39482e-06)
(5.22154e-06 2.40556e-06 1.74399e-06)
(4.75628e-06 2.1921e-06 -9.21148e-07)
(5.05434e-06 2.33028e-06 -4.30337e-06)
(6.27609e-06 3.51271e-06 5.39518e-06)
(5.01612e-06 2.80834e-06 1.74438e-06)
(4.56901e-06 2.55894e-06 -9.20624e-07)
(4.85519e-06 2.71997e-06 -4.30257e-06)
(5.98063e-06 3.99432e-06 5.39584e-06)
(4.77971e-06 3.19326e-06 1.74494e-06)
(4.35353e-06 2.90942e-06 -9.20022e-07)
(4.62612e-06 3.09225e-06 -4.30174e-06)
(5.64822e-06 4.45106e-06 5.39676e-06)
(4.51381e-06 3.55812e-06 1.74558e-06)
(4.11128e-06 3.24153e-06 -9.19439e-07)
(4.3687e-06 3.44501e-06 -4.30101e-06)
(5.28078e-06 4.88042e-06 5.3979e-06)
(4.22015e-06 3.90091e-06 1.74618e-06)
(3.84394e-06 3.5535e-06 -9.19018e-07)
(4.08476e-06 3.77633e-06 -4.30054e-06)
(4.88042e-06 5.28078e-06 5.3979e-06)
(3.90091e-06 4.22015e-06 1.74618e-06)
(3.55349e-06 3.84394e-06 -9.19018e-07)
(3.77633e-06 4.08476e-06 -4.30054e-06)
(4.45106e-06 5.64822e-06 5.39676e-06)
(3.55812e-06 4.51381e-06 1.74558e-06)
(3.24153e-06 4.11128e-06 -9.19439e-07)
(3.445e-06 4.3687e-06 -4.30101e-06)
(3.99432e-06 5.98063e-06 5.39584e-06)
(3.19326e-06 4.77971e-06 1.74494e-06)
(2.90942e-06 4.35353e-06 -9.20022e-07)
(3.09225e-06 4.62612e-06 -4.30174e-06)
(3.5127e-06 6.27609e-06 5.39518e-06)
(2.80834e-06 5.01612e-06 1.74438e-06)
(2.55894e-06 4.56901e-06 -9.20624e-07)
(2.71997e-06 4.85519e-06 -4.30257e-06)
(3.00894e-06 6.53285e-06 5.39482e-06)
(2.40556e-06 5.22154e-06 1.74399e-06)
(2.19209e-06 4.75628e-06 -9.21148e-07)
(2.33028e-06 5.05434e-06 -4.30337e-06)
(2.48583e-06 6.7494e-06 5.39484e-06)
(1.98717e-06 5.39474e-06 1.74385e-06)
(1.81096e-06 4.91416e-06 -9.21502e-07)
(1.92542e-06 5.22225e-06 -4.30403e-06)
(1.94617e-06 6.92457e-06 5.3954e-06)
(1.55545e-06 5.53472e-06 1.74407e-06)
(1.41761e-06 5.0417e-06 -9.21579e-07)
(1.50757e-06 5.35784e-06 -4.30445e-06)
(1.39257e-06 7.05754e-06 5.39673e-06)
(1.11265e-06 5.64083e-06 1.74475e-06)
(1.01405e-06 5.13828e-06 -9.21328e-07)
(1.0787e-06 5.46041e-06 -4.30457e-06)
(8.27184e-07 7.14841e-06 5.39882e-06)
(6.61084e-07 5.71326e-06 1.74519e-06)
(6.02064e-07 5.20391e-06 -9.21451e-07)
(6.39905e-07 5.5295e-06 -4.30493e-06)
(2.51519e-07 7.20481e-06 5.39526e-06)
(2.02492e-07 5.75543e-06 1.73925e-06)
(1.82051e-07 5.24034e-06 -9.28031e-07)
(1.88157e-07 5.56201e-06 -4.31178e-06)
(2.99214e-05 1.16119e-06 1.12046e-05)
(2.83528e-05 1.10504e-06 4.27301e-06)
(2.74002e-05 1.0698e-06 -1.90404e-06)
(2.70277e-05 1.05836e-06 -8.63311e-06)
(2.97195e-05 3.50331e-06 1.11903e-05)
(2.81651e-05 3.32393e-06 4.25972e-06)
(2.72244e-05 3.21587e-06 -1.91725e-06)
(2.68597e-05 3.17557e-06 -8.64607e-06)
(2.9346e-05 5.82596e-06 1.11843e-05)
(2.78116e-05 5.5238e-06 4.25482e-06)
(2.68834e-05 5.34217e-06 -1.92122e-06)
(2.65243e-05 5.27332e-06 -8.64879e-06)
(2.87944e-05 8.11181e-06 1.11819e-05)
(2.72889e-05 7.68975e-06 4.25333e-06)
(2.63782e-05 7.43556e-06 -1.92176e-06)
(2.60259e-05 7.33854e-06 -8.64819e-06)
(2.80664e-05 1.03468e-05 1.11813e-05)
(2.65989e-05 9.80778e-06 4.25351e-06)
(2.57111e-05 9.48271e-06 -1.92074e-06)
(2.53676e-05 9.35815e-06 -8.64619e-06)
(2.7166e-05 1.25172e-05 1.11818e-05)
(2.57454e-05 1.18647e-05 4.25462e-06)
(2.48859e-05 1.14708e-05 -1.91895e-06)
(2.45531e-05 1.13195e-05 -8.64357e-06)
(2.60983e-05 1.46099e-05 1.11831e-05)
(2.47332e-05 1.38479e-05 4.25623e-06)
(2.39072e-05 1.33876e-05 -1.91683e-06)
(2.35873e-05 1.32104e-05 -8.64077e-06)
(2.48698e-05 1.66121e-05 1.11849e-05)
(2.35686e-05 1.57452e-05 4.25808e-06)
(2.27813e-05 1.52212e-05 -1.9147e-06)
(2.24763e-05 1.50192e-05 -8.63813e-06)
(2.34878e-05 1.85119e-05 1.11869e-05)
(2.22587e-05 1.75453e-05 4.25987e-06)
(2.15152e-05 1.69607e-05 -1.91286e-06)
(2.12271e-05 1.6735e-05 -8.63598e-06)
(2.19607e-05 2.0298e-05 1.11887e-05)
(2.08118e-05 1.92373e-05 4.26117e-06)
(2.01169e-05 1.85957e-05 -1.9117e-06)
(1.98478e-05 1.83475e-05 -8.63473e-06)
(2.0298e-05 2.19607e-05 1.11887e-05)
(1.92373e-05 2.08118e-05 4.26117e-06)
(1.85957e-05 2.01169e-05 -1.9117e-06)
(1.83475e-05 1.98478e-05 -8.63473e-06)
(1.85119e-05 2.34878e-05 1.11869e-05)
(1.75453e-05 2.22588e-05 4.25987e-06)
(1.69607e-05 2.15152e-05 -1.91286e-06)
(1.6735e-05 2.12271e-05 -8.63598e-06)
(1.66121e-05 2.48698e-05 1.11849e-05)
(1.57452e-05 2.35686e-05 4.25808e-06)
(1.52212e-05 2.27813e-05 -1.9147e-06)
(1.50192e-05 2.24763e-05 -8.63813e-06)
(1.46099e-05 2.60983e-05 1.11831e-05)
(1.38479e-05 2.47332e-05 4.25623e-06)
(1.33876e-05 2.39072e-05 -1.91683e-06)
(1.32104e-05 2.35873e-05 -8.64077e-06)
(1.25172e-05 2.7166e-05 1.11818e-05)
(1.18647e-05 2.57454e-05 4.25462e-06)
(1.14708e-05 2.48859e-05 -1.91895e-06)
(1.13195e-05 2.45531e-05 -8.64357e-06)
(1.03468e-05 2.80664e-05 1.11813e-05)
(9.80777e-06 2.65989e-05 4.25351e-06)
(9.48271e-06 2.57111e-05 -1.92074e-06)
(9.35814e-06 2.53676e-05 -8.6462e-06)
(8.1118e-06 2.87944e-05 1.11819e-05)
(7.68975e-06 2.72889e-05 4.25333e-06)
(7.43556e-06 2.63782e-05 -1.92176e-06)
(7.33854e-06 2.60259e-05 -8.64819e-06)
(5.82596e-06 2.9346e-05 1.11843e-05)
(5.5238e-06 2.78116e-05 4.25482e-06)
(5.34217e-06 2.68834e-05 -1.92122e-06)
(5.27332e-06 2.65243e-05 -8.64879e-06)
(3.5033e-06 2.97195e-05 1.11903e-05)
(3.32393e-06 2.81651e-05 4.25972e-06)
(3.21587e-06 2.72244e-05 -1.91725e-06)
(3.17557e-06 2.68597e-05 -8.64607e-06)
(1.16119e-06 2.99214e-05 1.12046e-05)
(1.10504e-06 2.83528e-05 4.27301e-06)
(1.0698e-06 2.74002e-05 -1.90404e-06)
(1.05836e-06 2.70277e-05 -8.63311e-06)
(5.29859e-05 2.07477e-06 1.14921e-05)
(5.15472e-05 2.02551e-06 4.43412e-06)
(5.0299e-05 1.98048e-06 -2.19969e-06)
(4.92204e-05 1.9448e-06 -9.11506e-06)
(5.26471e-05 6.2218e-06 1.14776e-05)
(5.12168e-05 6.05895e-06 4.41882e-06)
(4.99772e-05 5.91754e-06 -2.21502e-06)
(4.89057e-05 5.79621e-06 -9.12853e-06)
(5.19901e-05 1.03318e-05 1.14703e-05)
(5.05767e-05 1.00555e-05 4.4119e-06)
(4.93522e-05 9.81696e-06 -2.22092e-06)
(4.82939e-05 9.6113e-06 -9.13247e-06)
(5.10138e-05 1.43772e-05 1.14672e-05)
(4.96266e-05 1.39904e-05 4.40973e-06)
(4.84246e-05 1.3656e-05 -2.22184e-06)
(4.73857e-05 1.33674e-05 -9.13187e-06)
(4.97239e-05 1.83336e-05 1.14664e-05)
(4.83714e-05 1.78389e-05 4.41008e-06)
(4.71994e-05 1.74108e-05 -2.22025e-06)
(4.61864e-05 1.70412e-05 -9.12886e-06)
(4.81281e-05 2.21768e-05 1.14671e-05)
(4.68187e-05 2.15772e-05 4.4118e-06)
(4.56839e-05 2.10582e-05 -2.2174e-06)
(4.47029e-05 2.06099e-05 -9.12473e-06)
(4.62361e-05 2.58832e-05 1.14688e-05)
(4.49777e-05 2.51824e-05 4.41424e-06)
(4.38871e-05 2.45755e-05 -2.21405e-06)
(4.29445e-05 2.40512e-05 -9.1203e-06)
(4.40592e-05 2.94301e-05 1.14711e-05)
(4.28597e-05 2.86323e-05 4.41693e-06)
(4.18203e-05 2.79412e-05 -2.21076e-06)
(4.09219e-05 2.73439e-05 -9.11619e-06)
(4.16108e-05 3.27961e-05 1.14736e-05)
(4.04778e-05 3.1906e-05 4.41942e-06)
(3.94963e-05 3.11347e-05 -2.20802e-06)
(3.86478e-05 3.04681e-05 -9.11295e-06)
(3.89056e-05 3.59607e-05 1.14757e-05)
(3.78467e-05 3.49835e-05 4.42108e-06)
(3.69296e-05 3.41367e-05 -2.20637e-06)
(3.61368e-05 3.34048e-05 -9.11112e-06)
(3.59607e-05 3.89056e-05 1.14757e-05)
(3.49835e-05 3.78467e-05 4.42108e-06)
(3.41367e-05 3.69296e-05 -2.20637e-06)
(3.34047e-05 3.61368e-05 -9.11112e-06)
(3.2796e-05 4.16108e-05 1.14736e-05)
(3.1906e-05 4.04778e-05 4.41942e-06)
(3.11347e-05 3.94963e-05 -2.20802e-06)
(3.04681e-05 3.86479e-05 -9.11295e-06)
(2.94301e-05 4.40592e-05 1.14711e-05)
(2.86323e-05 4.28597e-05 4.41693e-06)
(2.79412e-05 4.18203e-05 -2.21076e-06)
(2.73439e-05 4.09219e-05 -9.11619e-06)
(2.58832e-05 4.62361e-05 1.14688e-05)
(2.51824e-05 4.49777e-05 4.41424e-06)
(2.45755e-05 4.38872e-05 -2.21405e-06)
(2.40511e-05 4.29445e-05 -9.1203e-06)
(2.21768e-05 4.81281e-05 1.14671e-05)
(2.15772e-05 4.68187e-05 4.4118e-06)
(2.10582e-05 4.56839e-05 -2.2174e-06)
(2.06099e-05 4.47029e-05 -9.12473e-06)
(1.83336e-05 4.97239e-05 1.14664e-05)
(1.78389e-05 4.83715e-05 4.41008e-06)
(1.74108e-05 4.71994e-05 -2.22025e-06)
(1.70412e-05 4.61864e-05 -9.12887e-06)
(1.43772e-05 5.10138e-05 1.14672e-05)
(1.39904e-05 4.96266e-05 4.40973e-06)
(1.3656e-05 4.84246e-05 -2.22184e-06)
(1.33674e-05 4.73857e-05 -9.13187e-06)
(1.03318e-05 5.19901e-05 1.14703e-05)
(1.00555e-05 5.05767e-05 4.4119e-06)
(9.81695e-06 4.93522e-05 -2.22092e-06)
(9.61129e-06 4.82939e-05 -9.13247e-06)
(6.2218e-06 5.26471e-05 1.14776e-05)
(6.05894e-06 5.12168e-05 4.41882e-06)
(5.91753e-06 4.99772e-05 -2.21502e-06)
(5.79621e-06 4.89057e-05 -9.12854e-06)
(2.07477e-06 5.29859e-05 1.14921e-05)
(2.02551e-06 5.15472e-05 4.43412e-06)
(1.98048e-06 5.0299e-05 -2.19969e-06)
(1.9448e-06 4.92204e-05 -9.11506e-06)
(7.16476e-05 2.81194e-06 8.24299e-06)
(7.02147e-05 2.76265e-06 2.85566e-06)
(6.8735e-05 2.70969e-06 -2.3136e-06)
(6.71929e-05 2.65967e-06 -7.59928e-06)
(7.11961e-05 8.4186e-06 8.2329e-06)
(6.97687e-05 8.25687e-06 2.84542e-06)
(6.82956e-05 8.08967e-06 -2.32352e-06)
(6.67604e-05 7.91664e-06 -7.60761e-06)
(7.03082e-05 1.39742e-05 8.22694e-06)
(6.88969e-05 1.37002e-05 2.84028e-06)
(6.74411e-05 1.34179e-05 -2.32742e-06)
(6.59244e-05 1.31237e-05 -7.60961e-06)
(6.89871e-05 1.94426e-05 8.22399e-06)
(6.76015e-05 1.90585e-05 2.83877e-06)
(6.61722e-05 1.86624e-05 -2.32733e-06)
(6.46832e-05 1.82496e-05 -7.60773e-06)
(6.72414e-05 2.47908e-05 8.22314e-06)
(6.58901e-05 2.4299e-05 2.83954e-06)
(6.44962e-05 2.37915e-05 -2.32488e-06)
(6.30441e-05 2.32626e-05 -7.60343e-06)
(6.50817e-05 2.99863e-05 8.22374e-06)
(6.37732e-05 2.93895e-05 2.84168e-06)
(6.24234e-05 2.87737e-05 -2.32113e-06)
(6.10174e-05 2.81319e-05 -7.5979e-06)
(6.25216e-05 3.49974e-05 8.22537e-06)
(6.1264e-05 3.42991e-05 2.84455e-06)
(5.99668e-05 3.35785e-05 -2.31689e-06)
(5.86157e-05 3.28276e-05 -7.5921e-06)
(5.95767e-05 3.97933e-05 8.22767e-06)
(5.8378e-05 3.89976e-05 2.84764e-06)
(5.71417e-05 3.81766e-05 -2.3128e-06)
(5.58541e-05 3.7321e-05 -7.58679e-06)
(5.62651e-05 4.43449e-05 8.23021e-06)
(5.51329e-05 4.34566e-05 2.85043e-06)
(5.39656e-05 4.25399e-05 -2.30946e-06)
(5.27498e-05 4.15848e-05 -7.58268e-06)
(5.26068e-05 4.86246e-05 8.23226e-06)
(5.15489e-05 4.76487e-05 2.85225e-06)
(5.04583e-05 4.66419e-05 -2.30751e-06)
(4.93223e-05 4.55931e-05 -7.58039e-06)
(4.86246e-05 5.26068e-05 8.23226e-06)
(4.76487e-05 5.15489e-05 2.85225e-06)
(4.66419e-05 5.04583e-05 -2.30751e-06)
(4.55931e-05 4.93223e-05 -7.58039e-06)
(4.43449e-05 5.62651e-05 8.23021e-06)
(4.34565e-05 5.51329e-05 2.85043e-06)
(4.25398e-05 5.39656e-05 -2.30946e-06)
(4.15847e-05 5.27498e-05 -7.58268e-06)
(3.97933e-05 5.95767e-05 8.22767e-06)
(3.89976e-05 5.8378e-05 2.84764e-06)
(3.81766e-05 5.71417e-05 -2.3128e-06)
(3.7321e-05 5.58541e-05 -7.58679e-06)
(3.49973e-05 6.25216e-05 8.22537e-06)
(3.4299e-05 6.1264e-05 2.84455e-06)
(3.35785e-05 5.99668e-05 -2.31689e-06)
(3.28276e-05 5.86157e-05 -7.5921e-06)
(2.99863e-05 6.50818e-05 8.22375e-06)
(2.93895e-05 6.37732e-05 2.84168e-06)
(2.87737e-05 6.24234e-05 -2.32113e-06)
(2.81319e-05 6.10174e-05 -7.5979e-06)
(2.47908e-05 6.72414e-05 8.22314e-06)
(2.4299e-05 6.58901e-05 2.83955e-06)
(2.37915e-05 6.44962e-05 -2.32488e-06)
(2.32626e-05 6.30441e-05 -7.60343e-06)
(1.94426e-05 6.89871e-05 8.224e-06)
(1.90585e-05 6.76015e-05 2.83877e-06)
(1.86624e-05 6.61722e-05 -2.32733e-06)
(1.82496e-05 6.46832e-05 -7.60773e-06)
(1.39742e-05 7.03082e-05 8.22694e-06)
(1.37002e-05 6.8897e-05 2.84028e-06)
(1.34179e-05 6.74411e-05 -2.32742e-06)
(1.31237e-05 6.59244e-05 -7.60961e-06)
(8.4186e-06 7.11961e-05 8.2329e-06)
(8.25686e-06 6.97687e-05 2.84542e-06)
(8.08966e-06 6.82956e-05 -2.32352e-06)
(7.91664e-06 6.67604e-05 -7.60761e-06)
(2.81194e-06 7.16476e-05 8.243e-06)
(2.76265e-06 7.02147e-05 2.85566e-06)
(2.70969e-06 6.8735e-05 -2.3136e-06)
(2.65967e-06 6.71929e-05 -7.59928e-06)
(8.31537e-05 3.26402e-06 3.06906e-06)
(8.16893e-05 3.21375e-06 2.57389e-07)
(8.00742e-05 3.15632e-06 -2.49245e-06)
(7.82958e-05 3.09931e-06 -5.25758e-06)
(8.26308e-05 9.76891e-06 3.0646e-06)
(8.11707e-05 9.60463e-06 2.53481e-07)
(7.95614e-05 9.42311e-06 -2.49565e-06)
(7.779e-05 9.22471e-06 -5.25951e-06)
(8.15985e-05 1.62143e-05 3.06133e-06)
(8.01544e-05 1.59362e-05 2.5163e-07)
(7.85636e-05 1.56295e-05 -2.49601e-06)
(7.68135e-05 1.52917e-05 -5.25803e-06)
(8.00623e-05 2.25584e-05 3.05939e-06)
(7.86442e-05 2.21681e-05 2.51678e-07)
(7.70821e-05 2.17375e-05 -2.49401e-06)
(7.53638e-05 2.12631e-05 -5.25391e-06)
(7.80329e-05 2.87629e-05 3.05867e-06)
(7.66495e-05 2.82624e-05 2.53159e-07)
(7.51259e-05 2.77102e-05 -2.49037e-06)
(7.34501e-05 2.7102e-05 -5.24793e-06)
(7.55231e-05 3.47903e-05 3.05899e-06)
(7.41832e-05 3.41822e-05 2.55621e-07)
(7.27077e-05 3.35115e-05 -2.48577e-06)
(7.1085e-05 3.27729e-05 -5.241e-06)
(7.2549e-05 4.06039e-05 3.06019e-06)
(7.12611e-05 3.98915e-05 2.58651e-07)
(6.98431e-05 3.9106e-05 -2.48085e-06)
(6.82837e-05 3.82413e-05 -5.23397e-06)
(6.91289e-05 4.61684e-05 3.06206e-06)
(6.79014e-05 4.53557e-05 2.61824e-07)
(6.65501e-05 4.44599e-05 -2.47623e-06)
(6.50642e-05 4.34741e-05 -5.22767e-06)
(6.52841e-05 5.145e-05 3.06425e-06)
(6.4125e-05 5.05417e-05 2.64645e-07)
(6.28492e-05 4.95409e-05 -2.47253e-06)
(6.14464e-05 4.84399e-05 -5.22284e-06)
(6.10379e-05 5.64164e-05 3.06608e-06)
(5.99551e-05 5.54179e-05 2.66462e-07)
(5.87634e-05 5.43183e-05 -2.4704e-06)
(5.7453e-05 5.31087e-05 -5.22017e-06)
(5.64164e-05 6.10379e-05 3.06608e-06)
(5.54179e-05 5.99551e-05 2.66462e-07)
(5.43183e-05 5.87634e-05 -2.4704e-06)
(5.31087e-05 5.7453e-05 -5.22017e-06)
(5.14499e-05 6.52841e-05 3.06425e-06)
(5.05417e-05 6.4125e-05 2.64645e-07)
(4.95409e-05 6.28492e-05 -2.47253e-06)
(4.84399e-05 6.14464e-05 -5.22284e-06)
(4.61684e-05 6.9129e-05 3.06206e-06)
(4.53557e-05 6.79014e-05 2.61824e-07)
(4.44599e-05 6.65501e-05 -2.47623e-06)
(4.34741e-05 6.50642e-05 -5.22767e-06)
(4.06039e-05 7.2549e-05 3.06019e-06)
(3.98914e-05 7.12611e-05 2.58652e-07)
(3.9106e-05 6.98431e-05 -2.48085e-06)
(3.82413e-05 6.82838e-05 -5.23397e-06)
(3.47903e-05 7.55232e-05 3.05899e-06)
(3.41821e-05 7.41832e-05 2.55622e-07)
(3.35114e-05 7.27077e-05 -2.48577e-06)
(3.27729e-05 7.1085e-05 -5.241e-06)
(2.87629e-05 7.80329e-05 3.05867e-06)
(2.82624e-05 7.66495e-05 2.5316e-07)
(2.77102e-05 7.51259e-05 -2.49037e-06)
(2.7102e-05 7.34501e-05 -5.24793e-06)
(2.25584e-05 8.00623e-05 3.05939e-06)
(2.21681e-05 7.86442e-05 2.5168e-07)
(2.17375e-05 7.70821e-05 -2.49401e-06)
(2.12631e-05 7.53638e-05 -5.25391e-06)
(1.62143e-05 8.15985e-05 3.06133e-06)
(1.59362e-05 8.01544e-05 2.51632e-07)
(1.56295e-05 7.85636e-05 -2.496e-06)
(1.52917e-05 7.68135e-05 -5.25803e-06)
(9.7689e-06 8.26308e-05 3.0646e-06)
(9.60463e-06 8.11707e-05 2.53484e-07)
(9.4231e-06 7.95614e-05 -2.49565e-06)
(9.22471e-06 7.779e-05 -5.25951e-06)
(3.26401e-06 8.31537e-05 3.06906e-06)
(3.21375e-06 8.16893e-05 2.57391e-07)
(3.15632e-06 8.00742e-05 -2.49245e-06)
(3.09931e-06 7.82958e-05 -5.25758e-06)
(8.65361e-05 3.39425e-06 -2.74745e-06)
(8.50625e-05 3.34423e-06 -2.74368e-06)
(8.34269e-05 3.28659e-06 -2.80711e-06)
(8.16173e-05 3.22922e-06 -2.82215e-06)
(8.59899e-05 1.016e-05 -2.74661e-06)
(8.45204e-05 9.9964e-06 -2.74184e-06)
(8.28903e-05 9.81415e-06 -2.80432e-06)
(8.10876e-05 9.61406e-06 -2.81837e-06)
(8.49116e-05 1.68638e-05 -2.74688e-06)
(8.34579e-05 1.65866e-05 -2.74029e-06)
(8.18463e-05 1.62784e-05 -2.80114e-06)
(8.00651e-05 1.59373e-05 -2.81347e-06)
(8.33078e-05 2.34619e-05 -2.74746e-06)
(8.18798e-05 2.30724e-05 -2.7385e-06)
(8.0297e-05 2.26393e-05 -2.79717e-06)
(7.85481e-05 2.21597e-05 -2.80715e-06)
(8.11901e-05 2.99147e-05 -2.74786e-06)
(7.97967e-05 2.94143e-05 -2.73625e-06)
(7.82527e-05 2.88583e-05 -2.79243e-06)
(7.65468e-05 2.82428e-05 -2.7997e-06)
(7.85727e-05 3.6183e-05 -2.74781e-06)
(7.72228e-05 3.55741e-05 -2.73356e-06)
(7.57273e-05 3.48979e-05 -2.78721e-06)
(7.40754e-05 3.41497e-05 -2.7917e-06)
(7.54727e-05 4.22291e-05 -2.74717e-06)
(7.4175e-05 4.15147e-05 -2.73056e-06)
(7.27378e-05 4.07218e-05 -2.78191e-06)
(7.11504e-05 3.98449e-05 -2.78383e-06)
(7.19097e-05 4.80165e-05 -2.74594e-06)
(7.06729e-05 4.72004e-05 -2.72752e-06)
(6.93034e-05 4.62953e-05 -2.77705e-06)
(6.7791e-05 4.52946e-05 -2.77686e-06)
(6.79061e-05 5.35102e-05 -2.7443e-06)
(6.67385e-05 5.25972e-05 -2.72486e-06)
(6.54458e-05 5.1585e-05 -2.77321e-06)
(6.40184e-05 5.04665e-05 -2.77155e-06)
(6.34862e-05 5.86772e-05 -2.74281e-06)
(6.2396e-05 5.76726e-05 -2.72315e-06)
(6.11891e-05 5.65594e-05 -2.77101e-06)
(5.98562e-05 5.53298e-05 -2.76863e-06)
(5.86772e-05 6.34862e-05 -2.74281e-06)
(5.76725e-05 6.2396e-05 -2.72315e-06)
(5.65594e-05 6.11891e-05 -2.77101e-06)
(5.53298e-05 5.98562e-05 -2.76863e-06)
(5.35102e-05 6.79061e-05 -2.7443e-06)
(5.25972e-05 6.67385e-05 -2.72486e-06)
(5.1585e-05 6.54459e-05 -2.77321e-06)
(5.04664e-05 6.40184e-05 -2.77155e-06)
(4.80164e-05 7.19097e-05 -2.74594e-06)
(4.72004e-05 7.06729e-05 -2.72752e-06)
(4.62953e-05 6.93034e-05 -2.77705e-06)
(4.52946e-05 6.7791e-05 -2.77686e-06)
(4.2229e-05 7.54727e-05 -2.74717e-06)
(4.15147e-05 7.4175e-05 -2.73056e-06)
(4.07218e-05 7.27378e-05 -2.78191e-06)
(3.98449e-05 7.11504e-05 -2.78383e-06)
(3.6183e-05 7.85727e-05 -2.74781e-06)
(3.55741e-05 7.72228e-05 -2.73355e-06)
(3.48979e-05 7.57273e-05 -2.78721e-06)
(3.41497e-05 7.40754e-05 -2.7917e-06)
(2.99147e-05 8.11901e-05 -2.74786e-06)
(2.94143e-05 7.97967e-05 -2.73625e-06)
(2.88583e-05 7.82527e-05 -2.79243e-06)
(2.82428e-05 7.65468e-05 -2.7997e-06)
(2.34619e-05 8.33078e-05 -2.74745e-06)
(2.30724e-05 8.18798e-05 -2.7385e-06)
(2.26393e-05 8.0297e-05 -2.79717e-06)
(2.21597e-05 7.85481e-05 -2.80715e-06)
(1.68638e-05 8.49116e-05 -2.74688e-06)
(1.65866e-05 8.34579e-05 -2.74029e-06)
(1.62784e-05 8.18463e-05 -2.80114e-06)
(1.59373e-05 8.00652e-05 -2.81347e-06)
(1.016e-05 8.599e-05 -2.7466e-06)
(9.99639e-06 8.45205e-05 -2.74183e-06)
(9.81415e-06 8.28903e-05 -2.80431e-06)
(9.61405e-06 8.10876e-05 -2.81837e-06)
(3.39425e-06 8.65361e-05 -2.74745e-06)
(3.34423e-06 8.50625e-05 -2.74367e-06)
(3.28659e-06 8.34269e-05 -2.8071e-06)
(3.22922e-06 8.16173e-05 -2.82215e-06)
(8.20934e-05 3.21535e-06 -8.16903e-06)
(8.0661e-05 3.16763e-06 -5.61941e-06)
(7.91207e-05 3.11402e-06 -3.24625e-06)
(7.74597e-05 3.06208e-06 -7.8033e-07)
(8.15712e-05 9.6285e-06 -8.16377e-06)
(8.01431e-05 9.47172e-06 -5.61305e-06)
(7.86082e-05 9.30223e-06 -3.23892e-06)
(7.69537e-05 9.12103e-06 -7.72365e-07)
(8.05423e-05 1.59828e-05 -8.16125e-06)
(7.91292e-05 1.57167e-05 -5.60875e-06)
(7.76116e-05 1.54297e-05 -3.23317e-06)
(7.59768e-05 1.51203e-05 -7.65255e-07)
(7.90133e-05 2.22366e-05 -8.1603e-06)
(7.76247e-05 2.1862e-05 -5.60551e-06)
(7.6134e-05 2.14581e-05 -3.22793e-06)
(7.45285e-05 2.10224e-05 -7.57841e-07)
(7.69961e-05 2.8352e-05 -8.16006e-06)
(7.56407e-05 2.78699e-05 -5.60266e-06)
(7.41862e-05 2.73506e-05 -3.22271e-06)
(7.262e-05 2.67907e-05 -7.50016e-07)
(7.45047e-05 3.42922e-05 -8.15997e-06)
(7.31913e-05 3.37044e-05 -5.59986e-06)
(7.17823e-05 3.30719e-05 -3.21744e-06)
(7.02656e-05 3.23902e-05 -7.41998e-07)
(7.15563e-05 4.00216e-05 -8.15963e-06)
(7.02936e-05 3.93308e-05 -5.59703e-06)
(6.89395e-05 3.85881e-05 -3.21231e-06)
(6.74821e-05 3.77879e-05 -7.34241e-07)
(6.81703e-05 4.55061e-05 -8.15886e-06)
(6.69669e-05 4.47158e-05 -5.59426e-06)
(6.56768e-05 4.38667e-05 -3.20766e-06)
(6.42886e-05 4.29523e-05 -7.27377e-07)
(6.43682e-05 5.07133e-05 -8.1577e-06)
(6.32326e-05 4.98277e-05 -5.59186e-06)
(6.20153e-05 4.8877e-05 -3.204e-06)
(6.07057e-05 4.78535e-05 -7.22139e-07)
(6.01736e-05 5.56122e-05 -8.15654e-06)
(5.91139e-05 5.46366e-05 -5.59033e-06)
(5.7978e-05 5.35899e-05 -3.20192e-06)
(5.6756e-05 5.24635e-05 -7.19257e-07)
(5.56122e-05 6.01736e-05 -8.15654e-06)
(5.46366e-05 5.91139e-05 -5.59033e-06)
(5.35899e-05 5.79781e-05 -3.20192e-06)
(5.24635e-05 5.6756e-05 -7.19257e-07)
(5.07133e-05 6.43682e-05 -8.1577e-06)
(4.98277e-05 6.32326e-05 -5.59186e-06)
(4.8877e-05 6.20153e-05 -3.204e-06)
(4.78535e-05 6.07057e-05 -7.22138e-07)
(4.55061e-05 6.81703e-05 -8.15886e-06)
(4.47158e-05 6.69669e-05 -5.59426e-06)
(4.38667e-05 6.56768e-05 -3.20766e-06)
(4.29523e-05 6.42886e-05 -7.27377e-07)
(4.00216e-05 7.15563e-05 -8.15963e-06)
(3.93308e-05 7.02936e-05 -5.59702e-06)
(3.85881e-05 6.89395e-05 -3.21231e-06)
(3.77879e-05 6.74822e-05 -7.34241e-07)
(3.42922e-05 7.45047e-05 -8.15996e-06)
(3.37044e-05 7.31913e-05 -5.59985e-06)
(3.30719e-05 7.17824e-05 -3.21744e-06)
(3.23902e-05 7.02656e-05 -7.41997e-07)
(2.8352e-05 7.69961e-05 -8.16006e-06)
(2.78699e-05 7.56407e-05 -5.60265e-06)
(2.73506e-05 7.41862e-05 -3.22271e-06)
(2.67907e-05 7.26201e-05 -7.50015e-07)
(2.22366e-05 7.90134e-05 -8.1603e-06)
(2.1862e-05 7.76248e-05 -5.60551e-06)
(2.1458e-05 7.6134e-05 -3.22792e-06)
(2.10224e-05 7.45285e-05 -7.57839e-07)
(1.59828e-05 8.05423e-05 -8.16124e-06)
(1.57167e-05 7.91292e-05 -5.60875e-06)
(1.54297e-05 7.76116e-05 -3.23317e-06)
(1.51203e-05 7.59768e-05 -7.65253e-07)
(9.62849e-06 8.15712e-05 -8.16376e-06)
(9.47172e-06 8.01431e-05 -5.61305e-06)
(9.30222e-06 7.86082e-05 -3.23892e-06)
(9.12103e-06 7.69537e-05 -7.72363e-07)
(3.21535e-06 8.20934e-05 -8.16903e-06)
(3.16762e-06 8.0661e-05 -5.6194e-06)
(3.11402e-06 7.91208e-05 -3.24624e-06)
(3.06208e-06 7.74597e-05 -7.80328e-07)
(7.12287e-05 2.78334e-06 -1.23363e-05)
(6.98938e-05 2.73997e-06 -7.93031e-06)
(6.85487e-05 2.6939e-06 -3.77879e-06)
(6.71784e-05 2.65183e-06 4.91069e-07)
(7.07701e-05 8.34161e-06 -1.23279e-05)
(6.94398e-05 8.19789e-06 -7.92119e-06)
(6.81e-05 8.05233e-06 -3.76897e-06)
(6.67357e-05 7.90591e-06 5.01034e-07)
(6.98702e-05 1.38488e-05 -1.23231e-05)
(6.85537e-05 1.36041e-05 -7.91519e-06)
(6.72287e-05 1.33572e-05 -3.76216e-06)
(6.58804e-05 1.31066e-05 5.08427e-07)
(6.85345e-05 1.92682e-05 -1.23204e-05)
(6.72404e-05 1.89232e-05 -7.91107e-06)
(6.59386e-05 1.8575e-05 -3.75682e-06)
(6.46142e-05 1.82213e-05 5.15086e-07)
(6.6774e-05 2.45668e-05 -1.2319e-05)
(6.55104e-05 2.41221e-05 -7.90789e-06)
(6.42399e-05 2.36736e-05 -3.75211e-06)
(6.29478e-05 2.3218e-05 5.21499e-07)
(6.46019e-05 2.97128e-05 -1.23182e-05)
(6.33771e-05 2.91697e-05 -7.90512e-06)
(6.21463e-05 2.86225e-05 -3.7477e-06)
(6.08948e-05 2.80665e-05 5.27808e-07)
(6.20339e-05 3.46758e-05 -1.23174e-05)
(6.08564e-05 3.40363e-05 -7.90253e-06)
(5.96735e-05 3.33925e-05 -3.74352e-06)
(5.84711e-05 3.27386e-05 5.33859e-07)
(5.90879e-05 3.94268e-05 -1.23165e-05)
(5.79659e-05 3.86939e-05 -7.9001e-06)
(5.68391e-05 3.79566e-05 -3.73975e-06)
(5.56943e-05 3.72076e-05 5.39259e-07)
(5.57834e-05 4.39384e-05 -1.23153e-05)
(5.47251e-05 4.31159e-05 -7.89802e-06)
(5.36626e-05 4.2289e-05 -3.73678e-06)
(5.25833e-05 4.14491e-05 5.43434e-07)
(5.21414e-05 4.81848e-05 -1.23143e-05)
(5.11548e-05 4.72774e-05 -7.8967e-06)
(5.01643e-05 4.63657e-05 -3.73507e-06)
(4.91582e-05 4.54398e-05 5.45755e-07)
(4.81848e-05 5.21415e-05 -1.23143e-05)
(4.72774e-05 5.11548e-05 -7.8967e-06)
(4.63657e-05 5.01643e-05 -3.73507e-06)
(4.54398e-05 4.91582e-05 5.45756e-07)
(4.39384e-05 5.57834e-05 -1.23153e-05)
(4.31159e-05 5.47251e-05 -7.89802e-06)
(4.2289e-05 5.36626e-05 -3.73678e-06)
(4.14491e-05 5.25833e-05 5.43435e-07)
(3.94268e-05 5.90879e-05 -1.23165e-05)
(3.86939e-05 5.79659e-05 -7.9001e-06)
(3.79566e-05 5.68392e-05 -3.73975e-06)
(3.72076e-05 5.56943e-05 5.3926e-07)
(3.46758e-05 6.20339e-05 -1.23174e-05)
(3.40363e-05 6.08564e-05 -7.90253e-06)
(3.33925e-05 5.96735e-05 -3.74352e-06)
(3.27385e-05 5.84711e-05 5.33861e-07)
(2.97128e-05 6.46019e-05 -1.23182e-05)
(2.91697e-05 6.33772e-05 -7.90512e-06)
(2.86225e-05 6.21463e-05 -3.7477e-06)
(2.80665e-05 6.08949e-05 5.2781e-07)
(2.45668e-05 6.6774e-05 -1.2319e-05)
(2.41221e-05 6.55104e-05 -7.90788e-06)
(2.36736e-05 6.42399e-05 -3.75211e-06)
(2.3218e-05 6.29478e-05 5.21502e-07)
(1.92682e-05 6.85345e-05 -1.23204e-05)
(1.89232e-05 6.72404e-05 -7.91107e-06)
(1.8575e-05 6.59386e-05 -3.75682e-06)
(1.82213e-05 6.46143e-05 5.15089e-07)
(1.38488e-05 6.98702e-05 -1.23231e-05)
(1.36041e-05 6.85537e-05 -7.91519e-06)
(1.33572e-05 6.72287e-05 -3.76216e-06)
(1.31066e-05 6.58805e-05 5.0843e-07)
(8.34161e-06 7.07701e-05 -1.23279e-05)
(8.19789e-06 6.94398e-05 -7.92119e-06)
(8.05233e-06 6.81e-05 -3.76897e-06)
(7.9059e-06 6.67357e-05 5.01037e-07)
(2.78334e-06 7.12287e-05 -1.23363e-05)
(2.73997e-06 6.98938e-05 -7.93031e-06)
(2.6939e-06 6.85487e-05 -3.77879e-06)
(2.65183e-06 6.71784e-05 4.91072e-07)
(5.64784e-05 2.1992e-06 -1.46477e-05)
(5.52859e-05 2.16156e-06 -9.37229e-06)
(5.41977e-05 2.12501e-06 -4.37245e-06)
(5.31959e-05 2.09501e-06 7.39303e-07)
(5.61087e-05 6.60038e-06 -1.46381e-05)
(5.49214e-05 6.47407e-06 -9.36265e-06)
(5.38381e-05 6.35875e-06 -4.36266e-06)
(5.28414e-05 6.25509e-06 7.48599e-07)
(5.5388e-05 1.09611e-05 -1.46318e-05)
(5.42128e-05 1.07454e-05 -9.35628e-06)
(5.31414e-05 1.05493e-05 -4.3565e-06)
(5.21563e-05 1.03712e-05 7.54221e-07)
(5.43199e-05 1.52517e-05 -1.46275e-05)
(5.31645e-05 1.49469e-05 -9.35196e-06)
(5.21114e-05 1.46698e-05 -4.3523e-06)
(5.11435e-05 1.44175e-05 7.58277e-07)
(5.29137e-05 1.94457e-05 -1.46244e-05)
(5.17853e-05 1.90523e-05 -9.34876e-06)
(5.07574e-05 1.86945e-05 -4.3491e-06)
(4.98127e-05 1.83683e-05 7.61511e-07)
(5.11808e-05 2.3518e-05 -1.46219e-05)
(5.00869e-05 2.30369e-05 -9.34613e-06)
(4.90908e-05 2.25993e-05 -4.34639e-06)
(4.81758e-05 2.21999e-05 7.64383e-07)
(4.91345e-05 2.74447e-05 -1.46199e-05)
(4.80827e-05 2.68775e-05 -9.34381e-06)
(4.71255e-05 2.63615e-05 -4.34394e-06)
(4.62465e-05 2.58902e-05 7.67086e-07)
(4.67899e-05 3.12037e-05 -1.4618e-05)
(4.57879e-05 3.05526e-05 -9.34172e-06)
(4.48765e-05 2.99605e-05 -4.34174e-06)
(4.404e-05 2.9419e-05 7.69568e-07)
(4.41635e-05 3.47742e-05 -1.46163e-05)
(4.32189e-05 3.40424e-05 -9.33998e-06)
(4.23602e-05 3.3377e-05 -4.33996e-06)
(4.15724e-05 3.2768e-05 7.71574e-07)
(4.12729e-05 3.81367e-05 -1.4615e-05)
(4.03931e-05 3.73284e-05 -9.3389e-06)
(3.95934e-05 3.65935e-05 -4.33891e-06)
(3.88603e-05 3.59203e-05 7.7273e-07)
(3.81367e-05 4.12729e-05 -1.4615e-05)
(3.73284e-05 4.03931e-05 -9.3389e-06)
(3.65935e-05 3.95934e-05 -4.33891e-06)
(3.59203e-05 3.88604e-05 7.7273e-07)
(3.47741e-05 4.41635e-05 -1.46163e-05)
(3.40424e-05 4.32189e-05 -9.33998e-06)
(3.3377e-05 4.23602e-05 -4.33996e-06)
(3.2768e-05 4.15724e-05 7.71575e-07)
(3.12037e-05 4.67899e-05 -1.46179e-05)
(3.05526e-05 4.57879e-05 -9.34172e-06)
(2.99605e-05 4.48765e-05 -4.34174e-06)
(2.9419e-05 4.404e-05 7.6957e-07)
(2.74447e-05 4.91345e-05 -1.46198e-05)
(2.68775e-05 4.80827e-05 -9.34381e-06)
(2.63615e-05 4.71255e-05 -4.34394e-06)
(2.58902e-05 4.62465e-05 7.67088e-07)
(2.3518e-05 5.11808e-05 -1.46219e-05)
(2.30369e-05 5.00869e-05 -9.34613e-06)
(2.25993e-05 4.90908e-05 -4.34639e-06)
(2.21999e-05 4.81758e-05 7.64385e-07)
(1.94457e-05 5.29138e-05 -1.46244e-05)
(1.90523e-05 5.17853e-05 -9.34876e-06)
(1.86945e-05 5.07574e-05 -4.3491e-06)
(1.83683e-05 4.98127e-05 7.61514e-07)
(1.52517e-05 5.43199e-05 -1.46275e-05)
(1.49469e-05 5.31645e-05 -9.35196e-06)
(1.46698e-05 5.21115e-05 -4.35229e-06)
(1.44175e-05 5.11435e-05 7.5828e-07)
(1.09611e-05 5.5388e-05 -1.46318e-05)
(1.07454e-05 5.42128e-05 -9.35628e-06)
(1.05493e-05 5.31414e-05 -4.35649e-06)
(1.03712e-05 5.21563e-05 7.54225e-07)
(6.60038e-06 5.61087e-05 -1.46381e-05)
(6.47407e-06 5.49214e-05 -9.36265e-06)
(6.35874e-06 5.38381e-05 -4.36266e-06)
(6.25508e-06 5.28414e-05 7.48603e-07)
(2.1992e-06 5.64784e-05 -1.46477e-05)
(2.16156e-06 5.5286e-05 -9.37228e-06)
(2.12501e-06 5.41977e-05 -4.37245e-06)
(2.09501e-06 5.31959e-05 7.39307e-07)
(4.11097e-05 1.59291e-06 -1.49584e-05)
(4.0082e-05 1.5613e-06 -9.85341e-06)
(3.92565e-05 1.53413e-06 -4.97517e-06)
(3.86134e-05 1.51551e-06 -2.95479e-08)
(4.0835e-05 4.79155e-06 -1.495e-05)
(3.98128e-05 4.68393e-06 -9.84559e-06)
(3.8992e-05 4.59843e-06 -4.96784e-06)
(3.83531e-05 4.53521e-06 -2.33369e-08)
(4.03048e-05 7.96102e-06 -1.49433e-05)
(3.92931e-05 7.7766e-06 -9.84015e-06)
(3.8481e-05 7.63081e-06 -4.96371e-06)
(3.78494e-05 7.52149e-06 -2.08858e-08)
(3.95205e-05 1.1079e-05 -1.49378e-05)
(3.85257e-05 1.08183e-05 -9.83632e-06)
(3.77274e-05 1.06116e-05 -4.96148e-06)
(3.71064e-05 1.04557e-05 -2.04121e-08)
(3.84893e-05 1.41263e-05 -1.4933e-05)
(3.75176e-05 1.37894e-05 -9.83343e-06)
(3.67381e-05 1.35219e-05 -4.96033e-06)
(3.61318e-05 1.33192e-05 -2.1142e-08)
(3.72199e-05 1.70843e-05 -1.49287e-05)
(3.62778e-05 1.6672e-05 -9.83108e-06)
(3.55223e-05 1.63442e-05 -4.95974e-06)
(3.49348e-05 1.60946e-05 -2.24282e-08)
(3.57226e-05 1.99362e-05 -1.49249e-05)
(3.48168e-05 1.94497e-05 -9.82906e-06)
(3.40908e-05 1.90622e-05 -4.95936e-06)
(3.35265e-05 1.87661e-05 -2.37777e-08)
(3.40092e-05 2.26661e-05 -1.49216e-05)
(3.31464e-05 2.21073e-05 -9.82731e-06)
(3.24555e-05 2.16616e-05 -4.95902e-06)
(3.19188e-05 2.13198e-05 -2.48708e-08)
(3.20924e-05 2.52596e-05 -1.4919e-05)
(3.12794e-05 2.46312e-05 -9.82591e-06)
(3.06289e-05 2.41293e-05 -4.95867e-06)
(3.01243e-05 2.37431e-05 -2.55668e-08)
(2.99859e-05 2.77037e-05 -1.49174e-05)
(2.92292e-05 2.7009e-05 -9.82506e-06)
(2.86241e-05 2.64538e-05 -4.95841e-06)