/*--------------------------------*- C++ -*----------------------------------*\
| =========                 |                                                 |
| \\      /  F ield         | foam-extend: Open Source CFD                    |
|  \\    /   O peration     | Version:     3.1                                |
|   \\  /    A nd           | Web:         http://www.extend-project.de       |
|    \\/     M anipulation  |                                                 |
\*---------------------------------------------------------------------------*/
FoamFile
{
    version     2.0;
    format      ascii;
    class       volSymmTensorField;
    location    "0.0014";
    object      epsilon;
}
// * * * * * * * * * * * * * * * * * * * * * * * * * * * * * * * * * * * * * //

dimensions      [0 0 0 0 0 0 0];

internalField   nonuniform List<symmTensor> 
6400
(
(-0.00439603 -0.000283473 0.00842198 0.00189015 0.00019198 0.0158065)
(-0.00237104 -0.000180229 0.00908259 0.00165831 0.000255716 0.00556324)
(-0.000701662 -9.47397e-05 0.00857446 0.00152218 0.000237939 -0.00299723)
(0.00102574 -8.59282e-06 0.00699527 0.00146739 0.000146965 -0.012801)
(-0.00428574 -0.000734644 0.00837416 0.00185701 0.000973033 0.0156357)
(-0.00229312 -0.000471941 0.00901323 0.00163495 0.00105412 0.00543278)
(-0.000643958 -0.00026028 0.00849655 0.00151777 0.000995267 -0.00313165)
(0.00107173 -5.0041e-05 0.00690791 0.00148728 0.000808314 -0.0129841)
(-0.0041292 -0.00120524 0.00826673 0.00169689 0.00163359 0.015629)
(-0.0021922 -0.000770585 0.00889835 0.00153585 0.00176154 0.00542871)
(-0.000586422 -0.000423454 0.00838915 0.00146223 0.0016624 -0.00313443)
(0.00108735 -7.96904e-05 0.00682234 0.00147339 0.00135255 -0.0129855)
(-0.00390369 -0.00164501 0.00811053 0.00147018 0.00228092 0.0156254)
(-0.00204814 -0.00105198 0.00873059 0.00139101 0.00245724 0.00542658)
(-0.000507088 -0.000577607 0.00823109 0.00138238 0.0023181 -0.00313542)
(0.00110255 -0.000108064 0.00669391 0.00145727 0.00188627 -0.0129853)
(-0.003613 -0.00204426 0.00790493 0.00117832 0.00291244 0.0156242)
(-0.00186222 -0.0013076 0.0085095 0.0012041 0.00313661 0.00542626)
(-0.00040505 -0.000717953 0.00802269 0.00127943 0.00295848 -0.0031349)
(0.00112154 -0.000134227 0.00652437 0.00143731 0.00240721 -0.0129837)
(-0.00326378 -0.00239326 0.00765082 0.000828119 0.00352475 0.0156246)
(-0.00163877 -0.00153107 0.00823609 0.000979734 0.00379565 0.00542712)
(-0.000282416 -0.00084073 0.00776492 0.00115589 0.00357975 -0.00313343)
(0.00114425 -0.00015719 0.00631463 0.00141361 0.00291251 -0.0129814)
(-0.00286445 -0.00268353 0.00734957 0.000427999 0.00411442 0.015626)
(-0.00138318 -0.0017169 0.00791189 0.000723372 0.00443047 0.0054287)
(-0.00014211 -0.00094282 0.00745925 0.00101476 0.0041782 -0.00313145)
(0.00117024 -0.000176277 0.00606594 0.00138667 0.00339918 -0.0129788)
(-0.00242467 -0.00290797 0.00700293 -1.23283e-05 0.00467806 0.015628)
(-0.00110164 -0.00186053 0.00753885 0.00044126 0.00503732 0.00543066)
(1.24744e-05 -0.00102167 0.00710759 0.000859486 0.00475024 -0.00312932)
(0.00119891 -0.000190959 0.00577992 0.00135712 0.00386426 -0.0129761)
(-0.00195507 -0.00306118 0.00661298 -0.000482147 0.00521242 0.0156305)
(-0.000800919 -0.00195839 0.00711935 0.000140302 0.00561262 0.00543264)
(0.00017756 -0.00107528 0.00671227 0.000693943 0.00529249 -0.0031274)
(0.00122955 -0.000200837 0.00545856 0.00132575 0.00430499 -0.0129738)
(-0.00146571 -0.00313977 0.00618244 -0.000970077 0.00571466 0.0156325)
(-0.000488358 -0.00200806 0.00665636 -0.000172027 0.00615319 0.005434)
(0.00034895 -0.00110237 0.00627607 0.000522388 0.00580195 -0.00312622)
(0.00126132 -0.000205739 0.00510413 0.00129355 0.00471894 -0.0129724)
(-0.000970077 -0.00313977 0.00571466 -0.00146571 0.00618244 0.0156325)
(-0.000172027 -0.00200806 0.00615319 -0.000488358 0.00665636 0.005434)
(0.000522388 -0.00110237 0.00580195 0.00034895 0.00627607 -0.00312622)
(0.00129355 -0.000205739 0.00471895 0.00126132 0.00510413 -0.0129724)
(-0.000482147 -0.00306118 0.00521243 -0.00195507 0.00661297 0.0156305)
(0.000140301 -0.00195839 0.00561263 -0.000800919 0.00711934 0.00543264)
(0.000693942 -0.00107528 0.00529249 0.00017756 0.00671227 -0.0031274)
(0.00132575 -0.000200837 0.00430499 0.00122955 0.00545856 -0.0129738)
(-1.23283e-05 -0.00290797 0.00467807 -0.00242467 0.00700292 0.015628)
(0.00044126 -0.00186053 0.00503732 -0.00110164 0.00753885 0.00543066)
(0.000859486 -0.00102167 0.00475024 1.24748e-05 0.00710759 -0.00312932)
(0.00135712 -0.000190959 0.00386426 0.00119891 0.00577992 -0.0129761)
(0.000427999 -0.00268353 0.00411442 -0.00286445 0.00734956 0.0156259)
(0.000723372 -0.0017169 0.00443047 -0.00138318 0.00791189 0.0054287)
(0.00101476 -0.00094282 0.0041782 -0.000142109 0.00745925 -0.00313145)
(0.00138667 -0.000176277 0.00339918 0.00117024 0.00606594 -0.0129787)
(0.000828119 -0.00239326 0.00352475 -0.00326378 0.00765081 0.0156246)
(0.000979734 -0.00153107 0.00379565 -0.00163876 0.00823609 0.00542712)
(0.00115589 -0.00084073 0.00357975 -0.000282415 0.00776491 -0.00313343)
(0.00141361 -0.00015719 0.00291251 0.00114425 0.00631463 -0.0129814)
(0.00117832 -0.00204426 0.00291244 -0.003613 0.00790493 0.0156242)
(0.0012041 -0.0013076 0.00313662 -0.00186221 0.0085095 0.00542625)
(0.00127943 -0.000717953 0.00295848 -0.00040505 0.00802268 -0.0031349)
(0.00143731 -0.000134227 0.00240721 0.00112154 0.00652437 -0.0129837)
(0.00147018 -0.00164501 0.00228092 -0.00390369 0.00811052 0.0156254)
(0.00139101 -0.00105198 0.00245724 -0.00204814 0.00873059 0.00542657)
(0.00138238 -0.000577608 0.0023181 -0.000507088 0.00823108 -0.00313542)
(0.00145727 -0.000108064 0.00188626 0.00110255 0.0066939 -0.0129853)
(0.00169689 -0.00120524 0.00163359 -0.00412919 0.00826673 0.015629)
(0.00153584 -0.000770585 0.00176154 -0.0021922 0.00889835 0.0054287)
(0.00146223 -0.000423454 0.0016624 -0.000586422 0.00838915 -0.00313443)
(0.00147339 -7.96906e-05 0.00135255 0.00108735 0.00682233 -0.0129855)
(0.00185701 -0.000734643 0.000973034 -0.00428574 0.00837416 0.0156357)
(0.00163495 -0.000471941 0.00105412 -0.00229312 0.00901323 0.00543277)
(0.00151777 -0.00026028 0.000995267 -0.000643957 0.00849654 -0.00313165)
(0.00148728 -5.00411e-05 0.000808314 0.00107173 0.00690791 -0.0129841)
(0.00189015 -0.000283473 0.00019198 -0.00439603 0.00842198 0.0158065)
(0.00165831 -0.000180229 0.000255716 -0.00237104 0.00908259 0.00556324)
(0.00152218 -9.47397e-05 0.000237939 -0.000701662 0.00857445 -0.00299722)
(0.00146739 -8.59286e-06 0.000146965 0.00102574 0.00699526 -0.012801)
(-0.00807319 -0.000627778 0.00368242 0.00622724 -0.000134252 0.00553864)
(-0.00519615 -0.000474465 0.00684861 0.00565501 4.16524e-05 0.00245828)
(-0.00255744 -0.000331048 0.00671548 0.00524422 3.81472e-05 -0.0013594)
(-0.000101081 -0.000200033 0.00350633 0.00497388 -0.000131112 -0.00459065)
(-0.00786052 -0.00167219 0.00370876 0.00612374 0.000437485 0.00549882)
(-0.00501916 -0.00127077 0.00680525 0.00555661 0.000805803 0.00239205)
(-0.00241437 -0.000912054 0.00662906 0.0051742 0.000787591 -0.0014296)
(1.22763e-05 -0.000589996 0.00338447 0.00493414 0.000408896 -0.00464238)
(-0.00750886 -0.00274611 0.0036636 0.00576332 0.000728321 0.00549334)
(-0.00475069 -0.00207714 0.00671998 0.00529282 0.00133786 0.00238446)
(-0.00221895 -0.00148985 0.00654537 0.00498393 0.00130545 -0.00143717)
(0.000142029 -0.000965404 0.00334197 0.00480844 0.00067147 -0.00464828)
(-0.00699578 -0.0037486 0.00359453 0.00524878 0.00101421 0.00549169)
(-0.00436317 -0.00283601 0.00659349 0.00490462 0.00186125 0.00238256)
(-0.00194076 -0.0020336 0.00642209 0.00470578 0.00181477 -0.0014387)
(0.000322336 -0.00131746 0.00327885 0.00462761 0.000930774 -0.00464909)
(-0.00633362 -0.00465879 0.00350311 0.0045848 0.00129336 0.00549168)
(-0.00386225 -0.00352534 0.00642642 0.0044023 0.00237276 0.00238279)
(-0.0015817 -0.00252802 0.00625943 0.00434554 0.0023127 -0.00143801)
(0.000554737 -0.0016378 0.00319565 0.00439405 0.00118448 -0.00464787)
(-0.00553779 -0.00545445 0.00338992 0.00378733 0.00156417 0.00549258)
(-0.0032599 -0.004128 0.00621975 0.00379845 0.00286941 0.00238404)
(-0.00114985 -0.00296042 0.00605829 0.00391223 0.00279625 -0.00143632)
(0.000834189 -0.00191796 0.00309289 0.00411308 0.00143097 -0.00464572)
(-0.00462757 -0.0061162 0.00325563 0.00287579 0.00182497 0.005494)
(-0.00257074 -0.00462916 0.00597469 0.00310796 0.00334811 0.00238577)
(-0.000655646 -0.00331995 0.00581985 0.00341658 0.00326242 -0.00143423)
(0.00115402 -0.00215084 0.0029712 0.00379161 0.00166862 -0.00464329)
(-0.00362505 -0.00662791 0.00310103 0.00187247 0.00207411 0.00549563)
(-0.00181153 -0.0050165 0.00569272 0.00234781 0.00380586 0.0023876)
(-0.000111154 -0.00359765 0.00554559 0.00287086 0.00370824 -0.00143216)
(0.00150641 -0.00233055 0.00283135 0.00343763 0.00189587 -0.00464101)
(-0.0025545 -0.00697719 0.00292716 0.000801843 0.00230991 0.00549708)
(-0.00100065 -0.00528042 0.00537575 0.00153668 0.00423976 0.00238916)
(0.000470254 -0.00378658 0.00523734 0.00228867 0.00413092 -0.00143048)
(0.00188265 -0.0024526 0.00267433 0.00306006 0.00211119 -0.00463924)
(-0.00143936 -0.00715619 0.00273631 -0.000310128 0.00253066 0.00549794)
(-0.00015802 -0.0054143 0.00502636 0.000694729 0.00464717 0.00239005)
(0.0010739 -0.00388209 0.00489736 0.0016848 0.00452794 -0.00142953)
(0.00227321 -0.00251415 0.00250129 0.00266868 0.00231331 -0.00463827)
(-0.000310128 -0.00715619 0.00253067 -0.00143936 0.0027363 0.00549794)
(0.000694729 -0.0054143 0.00464717 -0.000158019 0.00502636 0.00239005)
(0.0016848 -0.00388209 0.00452794 0.0010739 0.00489736 -0.00142953)
(0.00266868 -0.00251415 0.00231331 0.00227321 0.00250129 -0.00463827)
(0.000801843 -0.00697719 0.00230992 -0.00255449 0.00292715 0.00549708)
(0.00153668 -0.00528042 0.00423976 -0.00100065 0.00537575 0.00238916)
(0.00228867 -0.00378658 0.00413092 0.000470255 0.00523734 -0.00143048)
(0.00306006 -0.0024526 0.00211119 0.00188265 0.00267433 -0.00463924)
(0.00187247 -0.00662791 0.00207411 -0.00362504 0.00310103 0.00549563)
(0.00234781 -0.0050165 0.00380586 -0.00181153 0.00569272 0.0023876)
(0.00287086 -0.00359765 0.00370824 -0.000111153 0.00554558 -0.00143216)
(0.00343763 -0.00233055 0.00189587 0.00150641 0.00283135 -0.00464101)
(0.00287579 -0.0061162 0.00182497 -0.00462757 0.00325563 0.005494)
(0.00310796 -0.00462916 0.00334811 -0.00257074 0.00597468 0.00238577)
(0.00341658 -0.00331995 0.00326242 -0.000655645 0.00581984 -0.00143423)
(0.00379161 -0.00215084 0.00166862 0.00115402 0.0029712 -0.00464329)
(0.00378733 -0.00545445 0.00156417 -0.00553779 0.00338992 0.00549257)
(0.00379845 -0.004128 0.00286941 -0.00325989 0.00621975 0.00238404)
(0.00391222 -0.00296042 0.00279625 -0.00114985 0.00605829 -0.00143632)
(0.00411308 -0.00191796 0.00143097 0.000834189 0.00309289 -0.00464572)
(0.0045848 -0.00465879 0.00129337 -0.00633361 0.0035031 0.00549167)
(0.0044023 -0.00352534 0.00237276 -0.00386225 0.00642642 0.00238279)
(0.00434554 -0.00252802 0.0023127 -0.0015817 0.00625943 -0.00143801)
(0.00439405 -0.0016378 0.00118448 0.000554738 0.00319565 -0.00464786)
(0.00524878 -0.0037486 0.00101421 -0.00699578 0.00359453 0.00549168)
(0.00490462 -0.00283601 0.00186125 -0.00436317 0.00659348 0.00238255)
(0.00470578 -0.0020336 0.00181477 -0.00194075 0.00642209 -0.0014387)
(0.00462761 -0.00131746 0.000930774 0.000322336 0.00327885 -0.00464909)
(0.00576332 -0.00274611 0.000728322 -0.00750885 0.0036636 0.00549333)
(0.00529282 -0.00207714 0.00133786 -0.00475069 0.00671998 0.00238446)
(0.00498392 -0.00148985 0.00130545 -0.00221895 0.00654536 -0.00143717)
(0.00480844 -0.000965404 0.00067147 0.00014203 0.00334197 -0.00464828)
(0.00612374 -0.00167219 0.000437486 -0.00786051 0.00370876 0.00549881)
(0.00555661 -0.00127077 0.000805804 -0.00501915 0.00680525 0.00239205)
(0.0051742 -0.000912054 0.000787592 -0.00241437 0.00662906 -0.00142961)
(0.00493413 -0.000589996 0.000408897 1.22766e-05 0.00338447 -0.00464238)
(0.00622723 -0.000627778 -0.000134252 -0.00807319 0.00368242 0.00553863)
(0.00565501 -0.000474465 4.16527e-05 -0.00519615 0.00684861 0.00245828)
(0.00524422 -0.000331048 3.81474e-05 -0.00255744 0.00671548 -0.0013594)
(0.00497388 -0.000200033 -0.000131111 -0.00010108 0.00350633 -0.00459065)
(-0.00705691 -0.000767624 0.00233359 0.0110532 -0.000204074 -0.00158907)
(-0.00596098 -0.00069213 0.00406317 0.0102601 -0.000109863 -0.000933692)
(-0.0046872 -0.000603783 0.00396222 0.00958193 -0.000113395 -0.000664427)
(-0.00381424 -0.00053467 0.0020951 0.00901009 -0.000208945 -5.01579e-05)
(-0.00683706 -0.00211823 0.00233166 0.010876 0.000270952 -0.00157428)
(-0.00574611 -0.0018993 0.00402721 0.010069 0.000471843 -0.000929044)
(-0.00449415 -0.00166836 0.00389832 0.00940099 0.000459011 -0.000659819)
(-0.00364806 -0.0014934 0.00201695 0.00882803 0.000242248 -3.42865e-05)
(-0.00639845 -0.00348137 0.00230234 0.0104257 0.000456827 -0.00157431)
(-0.00535127 -0.00310893 0.00397656 0.00967648 0.000791385 -0.000929102)
(-0.00414563 -0.00273117 0.00384898 0.00905532 0.000768534 -0.000659832)
(-0.00333535 -0.0024528 0.00199256 0.00851939 0.000402729 -3.44892e-05)
(-0.00574958 -0.00475345 0.00225872 0.00977611 0.000637832 -0.00157452)
(-0.00477272 -0.00424566 0.00390151 0.00909747 0.0011029 -0.000929275)
(-0.00363709 -0.00372963 0.00377644 0.00854729 0.0010699 -0.000659839)
(-0.00287895 -0.00335002 0.00195481 0.00806333 0.000558879 -3.43571e-05)
(-0.00491043 -0.00590856 0.00220103 0.00893585 0.000813796 -0.00157429)
(-0.00402331 -0.00527813 0.00380241 0.00834732 0.00140616 -0.000928804)
(-0.00297889 -0.00463688 0.00368058 0.00788861 0.00136323 -0.000659065)
(-0.0022879 -0.00416508 0.00190493 0.00747198 0.000710529 -3.33125e-05)
(-0.00390118 -0.00691838 0.00212957 0.0079256 0.000984142 -0.00157362)
(-0.00312159 -0.00618083 0.00367982 0.00744469 0.0017001 -0.00092781)
(-0.00218676 -0.00543016 0.00356207 0.00709561 0.00164753 -0.000657702)
(-0.00157659 -0.00487766 0.00184346 0.00675981 0.000857295 -3.16058e-05)
(-0.00274646 -0.00775827 0.00204474 0.00677019 0.001148 -0.00157268)
(-0.00208962 -0.00693154 0.00353449 0.00641193 0.00198316 -0.000926544)
(-0.0012801 -0.00608975 0.00342168 0.00618798 0.00192131 -0.000656079)
(-0.000762416 -0.00546998 0.00177082 0.00594451 0.000998496 -2.96471e-05)
(-0.00147444 -0.00840774 0.00194709 0.005498 0.00130432 -0.00157166)
(-0.000952649 -0.00751173 0.00336738 0.0052745 0.00225361 -0.000925273)
(-0.000281165 -0.00659927 0.00326035 0.00518823 0.00218295 -0.000654517)
(0.000134552 -0.0059273 0.00168754 0.00504635 0.0011333 -2.78188e-05)
(-0.000116049 -0.00885099 0.00183744 0.00414019 0.00145188 -0.00157082)
(0.00026162 -0.00790703 0.00317973 0.00406045 0.00250968 -0.000924252)
(0.000785414 -0.00694602 0.00307926 0.00412119 0.00243079 -0.000653298)
(0.00109211 -0.00623826 0.00159427 0.00408772 0.00126087 -2.64276e-05)
(0.00129803 -0.00907767 0.00171771 0.00272972 0.00158951 -0.00157034)
(0.00152319 -0.00810747 0.00297334 0.00279991 0.00274982 -0.00092369)
(0.00189288 -0.00712142 0.00287984 0.00301372 0.0026634 -0.000652634)
(0.00208631 -0.00639539 0.00149173 0.00309284 0.00138049 -2.56819e-05)
(0.00272972 -0.00907767 0.00158951 0.00129803 0.00171771 -0.00157034)
(0.00279991 -0.00810747 0.00274982 0.00152319 0.00297334 -0.00092369)
(0.00301372 -0.00712142 0.0026634 0.00189288 0.00287984 -0.000652634)
(0.00309284 -0.00639539 0.00138049 0.00208631 0.00149173 -2.56821e-05)
(0.00414019 -0.00885098 0.00145189 -0.000116048 0.00183743 -0.00157082)
(0.00406045 -0.00790703 0.00250968 0.000261621 0.00317972 -0.000924253)
(0.00412119 -0.00694601 0.00243079 0.000785414 0.00307926 -0.000653299)
(0.00408772 -0.00623826 0.00126087 0.00109211 0.00159427 -2.64281e-05)
(0.005498 -0.00840774 0.00130432 -0.00147444 0.00194709 -0.00157166)
(0.0052745 -0.00751173 0.00225361 -0.000952648 0.00336737 -0.000925273)
(0.00518823 -0.00659927 0.00218295 -0.000281165 0.00326035 -0.000654518)
(0.00504635 -0.0059273 0.0011333 0.000134552 0.00168754 -2.78197e-05)
(0.00677019 -0.00775827 0.001148 -0.00274646 0.00204474 -0.00157268)
(0.00641193 -0.00693154 0.00198316 -0.00208962 0.00353449 -0.000926545)
(0.00618798 -0.00608975 0.00192132 -0.00128009 0.00342168 -0.00065608)
(0.00594451 -0.00546997 0.000998496 -0.000762415 0.00177082 -2.96484e-05)
(0.0079256 -0.00691838 0.000984145 -0.00390118 0.00212957 -0.00157362)
(0.00744469 -0.00618083 0.00170011 -0.00312158 0.00367982 -0.00092781)
(0.00709561 -0.00543016 0.00164753 -0.00218676 0.00356207 -0.000657703)
(0.00675981 -0.00487765 0.000857295 -0.00157658 0.00184345 -3.16074e-05)
(0.00893585 -0.00590855 0.000813798 -0.00491043 0.00220103 -0.00157429)
(0.00834732 -0.00527813 0.00140617 -0.00402331 0.00380241 -0.000928805)
(0.0078886 -0.00463688 0.00136323 -0.00297888 0.00368058 -0.000659066)
(0.00747198 -0.00416508 0.000710529 -0.0022879 0.00190493 -3.33145e-05)
(0.00977611 -0.00475345 0.000637835 -0.00574957 0.00225872 -0.00157452)
(0.00909747 -0.00424566 0.0011029 -0.00477271 0.00390151 -0.000929276)
(0.00854729 -0.00372963 0.0010699 -0.00363708 0.00377644 -0.000659841)
(0.00806333 -0.00335002 0.000558879 -0.00287895 0.00195481 -3.43592e-05)
(0.0104257 -0.00348137 0.000456829 -0.00639845 0.00230234 -0.00157431)
(0.00967648 -0.00310893 0.000791386 -0.00535127 0.00397655 -0.000929103)
(0.00905531 -0.00273117 0.000768534 -0.00414563 0.00384897 -0.000659834)
(0.00851939 -0.0024528 0.000402729 -0.00333534 0.00199256 -3.44916e-05)
(0.010876 -0.00211823 0.000270953 -0.00683706 0.00233166 -0.00157428)
(0.010069 -0.0018993 0.000471844 -0.00574611 0.00402721 -0.000929045)
(0.00940099 -0.00166836 0.000459011 -0.00449414 0.00389832 -0.000659821)
(0.00882803 -0.0014934 0.000242248 -0.00364805 0.00201695 -3.42891e-05)
(0.0110532 -0.000767624 -0.000204073 -0.00705691 0.00233359 -0.00158907)
(0.0102601 -0.00069213 -0.000109862 -0.00596098 0.00406317 -0.000933693)
(0.00958193 -0.000603783 -0.000113394 -0.0046872 0.00396221 -0.000664428)
(0.00901009 -0.00053467 -0.000208945 -0.00381424 0.0020951 -5.01605e-05)
(-0.00677101 -0.000922739 0.00126884 0.0153569 -0.000201896 -0.00621659)
(-0.00660785 -0.000883777 0.00214895 0.0143535 -0.000153589 -0.00332151)
(-0.00635588 -0.000836066 0.00207232 0.0134432 -0.000156327 -0.000684663)
(-0.00637733 -0.000797 0.00108388 0.0126247 -0.000205567 0.00215732)
(-0.00651821 -0.00258798 0.00125947 0.0151149 0.000142421 -0.00616903)
(-0.00635809 -0.00245447 0.0021208 0.0140909 0.000245172 -0.00327791)
(-0.00611976 -0.00231604 0.00203048 0.0131776 0.000236778 -0.000638946)
(-0.00615387 -0.00221133 0.00103566 0.012337 0.000123793 0.00221154)
(-0.00598537 -0.00425299 0.00124341 0.0145681 0.000243992 -0.00616568)
(-0.00585248 -0.00402069 0.00209368 0.0135824 0.000415073 -0.00327386)
(-0.00564129 -0.0037936 0.00200477 0.0126966 0.000400076 -0.000634637)
(-0.00569405 -0.00363569 0.00102331 0.0118805 0.000208184 0.0022155)
(-0.00519398 -0.00580781 0.00121956 0.0137756 0.000342828 -0.00616427)
(-0.00510519 -0.00549135 0.00205383 0.0128334 0.000580483 -0.00327194)
(-0.00493568 -0.00518136 0.00196679 0.0119903 0.000558634 -0.000632381)
(-0.00501839 -0.00496669 0.00100365 0.011204 0.00028996 0.00221793)
(-0.00416913 -0.00721991 0.0011881 0.0127499 0.000438605 -0.0061636)
(-0.00413622 -0.00682716 0.00200131 0.0118637 0.000740954 -0.00327074)
(-0.00402143 -0.00644208 0.0019165 0.0110754 0.000712258 -0.000630728)
(-0.00414223 -0.00617532 0.000977598 0.0103274 0.000368678 0.00222)
(-0.00293596 -0.00845458 0.00114909 0.0115163 0.000531062 -0.00616314)
(-0.00296993 -0.00799517 0.00193639 0.0106969 0.000896066 -0.00326974)
(-0.00292093 -0.00754435 0.00185441 0.00997432 0.00086061 -0.000629204)
(-0.0030875 -0.00723187 0.000945665 0.00927192 0.000444235 0.00222202)
(-0.00152471 -0.00948159 0.00110273 0.010105 0.000619778 -0.00616273)
(-0.001635 -0.00896656 0.00185948 0.00936168 0.00104512 -0.00326881)
(-0.00166122 -0.00846088 0.00178102 0.00871403 0.00100308 -0.000627762)
(-0.00188019 -0.00811017 0.000908188 0.00806375 0.000516445 0.00222397)
(3.00791e-05 -0.0102757 0.00104936 0.00855071 0.000704134 -0.00616235)
(-0.000164172 -0.00971733 0.00177116 0.00789089 0.00118722 -0.00326799)
(-0.0002733 -0.00916893 0.00169688 0.00732568 0.00113889 -0.000626509)
(-0.000550108 -0.00878841 0.000865508 0.00673275 0.000585014 0.00222565)
(0.00169046 -0.0108176 0.000989545 0.00689138 0.00078334 -0.00616204)
(0.0014066 -0.0102288 0.0016722 0.00632072 0.00132144 -0.00326738)
(0.0012086 -0.00965087 0.00160271 0.00584364 0.00126725 -0.000625583)
(0.00086984 -0.00924977 0.00081801 0.00531195 0.00064961 0.00222688)
(0.00341821 -0.0110942 0.000924902 0.00516745 0.000856618 -0.00616188)
(0.00303847 -0.0104881 0.00156384 0.00469008 0.00144697 -0.00326705)
(0.00274742 -0.00989474 0.00149936 0.00430497 0.00138748 -0.000625093)
(0.00234427 -0.00948305 0.000766096 0.00383697 0.000709978 0.00222752)
(0.00516745 -0.0110942 0.00085662 0.00341821 0.000924899 -0.00616188)
(0.00469008 -0.0104881 0.00144697 0.00303847 0.00156384 -0.00326705)
(0.00430497 -0.00989474 0.00138748 0.00274742 0.00149936 -0.000625093)
(0.00383697 -0.00948305 0.000709978 0.00234427 0.000766096 0.00222752)
(0.00689138 -0.0108176 0.000783343 0.00169046 0.000989543 -0.00616204)
(0.00632072 -0.0102288 0.00132144 0.0014066 0.0016722 -0.00326738)
(0.00584364 -0.00965087 0.00126725 0.0012086 0.00160271 -0.000625583)
(0.00531195 -0.00924977 0.000649609 0.00086984 0.00081801 0.00222688)
(0.00855071 -0.0102757 0.000704136 3.00804e-05 0.00104936 -0.00616234)
(0.00789089 -0.00971733 0.00118723 -0.000164171 0.00177115 -0.00326799)
(0.00732568 -0.00916893 0.00113889 -0.0002733 0.00169688 -0.000626509)
(0.00673275 -0.00878841 0.000585014 -0.000550107 0.000865508 0.00222565)
(0.010105 -0.00948159 0.000619781 -0.00152471 0.00110273 -0.00616273)
(0.00936168 -0.00896655 0.00104512 -0.001635 0.00185948 -0.00326881)
(0.00871403 -0.00846087 0.00100308 -0.00166122 0.00178102 -0.000627763)
(0.00806375 -0.00811016 0.000516444 -0.00188019 0.000908188 0.00222397)
(0.0115163 -0.00845458 0.000531065 -0.00293595 0.00114909 -0.00616314)
(0.0106969 -0.00799517 0.000896067 -0.00296993 0.00193639 -0.00326974)
(0.00997432 -0.00754435 0.000860611 -0.00292093 0.00185441 -0.000629205)
(0.00927192 -0.00723187 0.000444234 -0.0030875 0.000945665 0.00222202)
(0.0127499 -0.00721991 0.000438607 -0.00416913 0.0011881 -0.00616359)
(0.0118637 -0.00682716 0.000740955 -0.00413622 0.00200131 -0.00327074)
(0.0110754 -0.00644208 0.000712258 -0.00402143 0.00191649 -0.000630728)
(0.0103274 -0.00617532 0.000368678 -0.00414223 0.000977598 0.00221999)
(0.0137756 -0.00580781 0.000342829 -0.00519397 0.00121956 -0.00616427)
(0.0128334 -0.00549135 0.000580484 -0.00510519 0.00205383 -0.00327194)
(0.0119903 -0.00518136 0.000558634 -0.00493567 0.00196678 -0.000632382)
(0.011204 -0.00496669 0.00028996 -0.00501839 0.00100365 0.00221793)
(0.0145681 -0.00425299 0.000243993 -0.00598537 0.00124341 -0.00616567)
(0.0135824 -0.00402069 0.000415074 -0.00585248 0.00209368 -0.00327386)
(0.0126966 -0.0037936 0.000400077 -0.00564129 0.00200477 -0.000634638)
(0.0118805 -0.00363569 0.000208184 -0.00569404 0.00102331 0.0022155)
(0.0151149 -0.00258798 0.000142421 -0.00651821 0.00125947 -0.00616903)
(0.0140909 -0.00245447 0.000245173 -0.00635809 0.0021208 -0.00327791)
(0.0131776 -0.00231604 0.000236778 -0.00611976 0.00203048 -0.000638947)
(0.012337 -0.00221133 0.000123793 -0.00615387 0.00103566 0.00221153)
(0.0153568 -0.000922738 -0.000201896 -0.00677101 0.00126884 -0.00621659)
(0.0143535 -0.000883777 -0.000153588 -0.00660785 0.00214895 -0.00332151)
(0.0134432 -0.000836066 -0.000156327 -0.00635587 0.00207232 -0.000684664)
(0.0126247 -0.000797 -0.000205567 -0.00637733 0.00108388 0.00215732)
(-0.00690712 -0.00105473 0.000522244 0.0185539 -0.000152604 -0.00876891)
(-0.00720017 -0.00103159 0.000869595 0.0173852 -0.000132833 -0.00478056)
(-0.00745827 -0.00100172 0.000828304 0.0163045 -0.000133982 -0.000982809)
(-0.0079144 -0.000974747 0.000419835 0.0153138 -0.000153299 0.00292549)
(-0.00662183 -0.00297821 0.000512737 0.0182661 5.41451e-05 -0.00870653)
(-0.00691807 -0.00287949 0.000851704 0.0170735 9.61342e-05 -0.00471924)
(-0.00718637 -0.00278019 0.00080494 0.0159832 9.29462e-05 -0.000918543)
(-0.00764773 -0.00270262 0.000394689 0.0149589 4.79792e-05 0.00299656)
(-0.00600972 -0.00489361 0.000506344 0.017639 9.54584e-05 -0.00870212)
(-0.00632655 -0.00471776 0.000840512 0.0164767 0.000164802 -0.00471409)
(-0.00661362 -0.00455483 0.000794405 0.0154053 0.000158698 -0.000913006)
(-0.00708643 -0.00444472 0.000389752 0.0144009 8.15479e-05 0.00300203)
(-0.00509974 -0.00668279 0.000496571 0.0167277 0.000136119 -0.00869995)
(-0.00544991 -0.00644331 0.000824145 0.0155976 0.00023189 -0.00471118)
(-0.00576639 -0.00622136 0.000778876 0.0145565 0.000222522 -0.000909549)
(-0.00626049 -0.00607228 0.000381707 0.0135732 0.000113995 0.00300596)
(-0.00392076 -0.00830806 0.000483494 0.015548 0.000175649 -0.00869907)
(-0.00431305 -0.00801078 0.000802569 0.0144598 0.000296842 -0.0047095)
(-0.00466859 -0.00773515 0.00075835 0.0134577 0.000284021 -0.000907168)
(-0.00518927 -0.00754989 0.000371131 0.0125008 0.000144753 0.00300905)
(-0.00250179 -0.00972935 0.000467095 0.0141291 0.000213816 -0.00869886)
(-0.00294462 -0.00938147 0.000775913 0.0130911 0.000359409 -0.00470845)
(-0.00334719 -0.00905865 0.00073315 0.0121357 0.000343003 -0.000905354)
(-0.00389973 -0.00884147 0.00035841 0.0112103 0.000173694 0.00301165)
(-0.000877714 -0.0109117 0.000447446 0.0125056 0.000250364 -0.00869897)
(-0.00137826 -0.0105215 0.000744398 0.0115248 0.000419287 -0.00470774)
(-0.00183466 -0.0101591 0.000703577 0.0106227 0.00039925 -0.000903906)
(-0.00242368 -0.00991515 0.000343816 0.0097333 0.000200802 0.00301387)
(0.00091169 -0.011826 0.000424732 0.0107173 0.000284896 -0.00869917)
(0.000347597 -0.0114026 0.000708342 0.00979938 0.000476078 -0.00470726)
(-0.000168195 -0.0110094 0.000669964 0.00895604 0.00045249 -0.000902784)
(-0.000797552 -0.0107444 0.000327591 0.0081063 0.00022606 0.00301565)
(0.00282266 -0.0124498 0.000399354 0.0088077 0.000316865 -0.00869936)
(0.00219071 -0.012003 0.000668225 0.00795714 0.000529338 -0.00470695)
(0.0016111 -0.0115881 0.000632713 0.00717678 0.000502449 -0.000902011)
(0.000938457 -0.0113085 0.000309968 0.00636952 0.000249461 0.0030169)
(0.00481071 -0.0127679 0.000372712 0.00682354 0.000345745 -0.00869948)
(0.00410553 -0.0123073 0.000624878 0.00604365 0.00057878 -0.00470681)
(0.00345888 -0.0118811 0.000592311 0.00532926 0.000548981 -0.000901618)
(0.00274119 -0.0115939 0.000291136 0.0045663 0.000271067 0.00301755)
(0.00682354 -0.0127679 0.000345746 0.00481071 0.000372711 -0.00869948)
(0.00604365 -0.0123073 0.000578781 0.00410553 0.000624878 -0.00470681)
(0.00532926 -0.0118811 0.000548981 0.00345888 0.000592311 -0.000901618)
(0.0045663 -0.0115939 0.000271067 0.00274119 0.000291137 0.00301755)
(0.0088077 -0.0124498 0.000316866 0.00282266 0.000399354 -0.00869936)
(0.00795714 -0.012003 0.000529339 0.00219071 0.000668225 -0.00470695)
(0.00717678 -0.0115881 0.000502449 0.0016111 0.000632713 -0.000902011)
(0.00636952 -0.0113085 0.00024946 0.000938457 0.000309968 0.0030169)
(0.0107173 -0.011826 0.000284897 0.000911691 0.000424732 -0.00869916)
(0.00979938 -0.0114026 0.000476079 0.000347597 0.000708341 -0.00470726)
(0.00895604 -0.0110094 0.00045249 -0.000168195 0.000669964 -0.000902784)
(0.0081063 -0.0107443 0.00022606 -0.000797552 0.000327592 0.00301565)
(0.0125056 -0.0109117 0.000250366 -0.000877712 0.000447445 -0.00869896)
(0.0115248 -0.0105215 0.000419288 -0.00137826 0.000744398 -0.00470774)
(0.0106227 -0.0101591 0.000399249 -0.00183465 0.000703577 -0.000903906)
(0.0097333 -0.00991515 0.000200801 -0.00242368 0.000343817 0.00301387)
(0.0141291 -0.00972935 0.000213817 -0.00250179 0.000467095 -0.00869886)
(0.0130911 -0.00938146 0.00035941 -0.00294462 0.000775913 -0.00470845)
(0.0121357 -0.00905865 0.000343003 -0.00334719 0.00073315 -0.000905354)
(0.0112103 -0.00884146 0.000173693 -0.00389973 0.00035841 0.00301165)
(0.015548 -0.00830806 0.000175649 -0.00392075 0.000483493 -0.00869906)
(0.0144598 -0.00801078 0.000296842 -0.00431305 0.000802569 -0.00470949)
(0.0134577 -0.00773515 0.000284021 -0.00466859 0.00075835 -0.000907168)
(0.0125008 -0.00754988 0.000144752 -0.00518926 0.000371131 0.00300904)
(0.0167277 -0.00668279 0.00013612 -0.00509973 0.000496571 -0.00869994)
(0.0155976 -0.00644331 0.000231891 -0.00544991 0.000824145 -0.00471118)
(0.0145565 -0.00622136 0.000222522 -0.00576639 0.000778876 -0.000909549)
(0.0135732 -0.00607228 0.000113995 -0.00626048 0.000381707 0.00300595)
(0.017639 -0.0048936 9.54588e-05 -0.00600972 0.000506344 -0.00870212)
(0.0164767 -0.00471775 0.000164802 -0.00632655 0.000840512 -0.00471409)
(0.0154053 -0.00455483 0.000158698 -0.00661362 0.000794405 -0.000913006)
(0.0144009 -0.00444472 8.15479e-05 -0.00708642 0.000389752 0.00300203)
(0.0182661 -0.00297821 5.41453e-05 -0.00662183 0.000512737 -0.00870653)
(0.0170735 -0.00287949 9.61344e-05 -0.00691807 0.000851704 -0.00471924)
(0.0159832 -0.00278019 9.29463e-05 -0.00718636 0.00080494 -0.000918543)
(0.0149589 -0.00270262 4.79793e-05 -0.00764772 0.000394689 0.00299655)
(0.0185539 -0.00105473 -0.000152604 -0.00690712 0.000522244 -0.00876891)
(0.0173852 -0.00103159 -0.000132833 -0.00720016 0.000869595 -0.00478055)
(0.0163045 -0.00100172 -0.000133982 -0.00745827 0.000828304 -0.000982809)
(0.0153138 -0.000974747 -0.000153299 -0.0079144 0.000419835 0.00292549)
(-0.00713229 -0.00113714 1.01787e-05 0.0203785 -7.99889e-05 -0.00976804)
(-0.00756873 -0.00111759 1.60734e-05 0.0191132 -7.87239e-05 -0.00546246)
(-0.00800592 -0.00109258 7.00748e-06 0.0179377 -7.84132e-05 -0.0013058)
(-0.00859879 -0.00106752 -1.48128e-05 0.0168554 -7.80823e-05 0.00290512)
(-0.00682463 -0.00321847 4.11425e-06 0.0200667 -5.27261e-06 -0.00970237)
(-0.0072654 -0.00312589 8.75734e-06 0.0187759 -2.00334e-06 -0.00539647)
(-0.00771188 -0.00303603 -6.34543e-07 0.0175883 -6.01554e-07 -0.00123669)
(-0.00830694 -0.00296178 -2.17036e-05 0.0164678 -2.49926e-07 0.00297979)
(-0.00616332 -0.00528811 4.35673e-06 0.0193904 -5.94845e-06 -0.00969822)
(-0.00662355 -0.00512153 8.11375e-06 0.0181283 -1.28688e-06 -0.00539165)