/*--------------------------------*- C++ -*----------------------------------*\
| =========                 |                                                 |
| \\      /  F ield         | foam-extend: Open Source CFD                    |
|  \\    /   O peration     | Version:     3.1                                |
|   \\  /    A nd           | Web:         http://www.extend-project.de       |
|    \\/     M anipulation  |                                                 |
\*---------------------------------------------------------------------------*/
FoamFile
{
    version     2.0;
    format      ascii;
    class       pointVectorField;
    location    "0.0014";
    object      pointD;
}
// * * * * * * * * * * * * * * * * * * * * * * * * * * * * * * * * * * * * * //

dimensions      [0 1 0 0 0 0 0];

internalField   nonuniform List<vector> 
8505
(
(0 0 0)
(0 0 0)
(0 0 0)
(0 0 0)
(0 0 0)
(0 0 0)
(0 0 0)
(0 0 0)
(0 0 0)
(0 0 0)
(0 0 0)
(0 0 0)
(0 0 0)
(0 0 0)
(0 0 0)
(0 0 0)
(0 0 0)
(0 0 0)
(0 0 0)
(0 0 0)
(0 0 0)
(0 0 0)
(0 0 0)
(0 0 0)
(0 0 0)
(0 0 0)
(0 0 0)
(0 0 0)
(0 0 0)
(0 0 0)
(0 0 0)
(0 0 0)
(0 0 0)
(0 0 0)
(0 0 0)
(0 0 0)
(0 0 0)
(0 0 0)
(0 0 0)
(0 0 0)
(0 0 0)
(0 0 0)
(0 0 0)
(0 0 0)
(0 0 0)
(0 0 0)
(0 0 0)
(0 0 0)
(0 0 0)
(0 0 0)
(0 0 0)
(0 0 0)
(0 0 0)
(0 0 0)
(0 0 0)
(0 0 0)
(0 0 0)
(0 0 0)
(0 0 0)
(0 0 0)
(0 0 0)
(0 0 0)
(0 0 0)
(0 0 0)
(0 0 0)
(0 0 0)
(0 0 0)
(0 0 0)
(0 0 0)
(0 0 0)
(0 0 0)
(0 0 0)
(0 0 0)
(0 0 0)
(0 0 0)
(0 0 0)
(0 0 0)
(0 0 0)
(0 0 0)
(0 0 0)
(0 0 0)
(0 0 0)
(0 0 0)
(0 0 0)
(0 0 0)
(0 0 0)
(0 0 0)
(0 0 0)
(0 0 0)
(0 0 0)
(0 0 0)
(0 0 0)
(0 0 0)
(0 0 0)
(0 0 0)
(0 0 0)
(0 0 0)
(0 0 0)
(0 0 0)
(0 0 0)
(0 0 0)
(0 0 0)
(0 0 0)
(0 0 0)
(0 0 0)
(2.09784e-05 0 1.37424e-05)
(1.87582e-05 0 6.28458e-06)
(1.75555e-05 0 8.71419e-07)
(1.71891e-05 0 -4.41304e-06)
(1.76843e-05 0 -1.13117e-05)
(2.0829e-05 1.607e-06 1.34943e-05)
(1.86469e-05 1.44807e-06 6.11561e-06)
(1.74741e-05 1.35963e-06 7.20267e-07)
(1.71359e-05 1.33364e-06 -4.59322e-06)
(1.76648e-05 1.37339e-06 -1.15859e-05)
(2.06236e-05 3.24921e-06 1.34874e-05)
(1.84652e-05 2.91075e-06 6.11197e-06)
(1.73063e-05 2.73019e-06 7.17737e-07)
(1.69746e-05 2.67944e-06 -4.59522e-06)
(1.75034e-05 2.76409e-06 -1.15867e-05)
(2.02993e-05 4.862e-06 1.34836e-05)
(1.81755e-05 4.35404e-06 6.1095e-06)
(1.70352e-05 4.08246e-06 7.16179e-07)
(1.67091e-05 4.00597e-06 -4.59607e-06)
(1.72301e-05 4.13227e-06 -1.15866e-05)
(1.98521e-05 6.44232e-06 1.34818e-05)
(1.77753e-05 5.76907e-06 6.10854e-06)
(1.66601e-05 5.40853e-06 7.15827e-07)
(1.63413e-05 5.30653e-06 -4.59581e-06)
(1.68508e-05 5.4732e-06 -1.15856e-05)
(1.92835e-05 7.98138e-06 1.34814e-05)
(1.72661e-05 7.14734e-06 6.10858e-06)
(1.61828e-05 6.70029e-06 7.16286e-07)
(1.58731e-05 6.57344e-06 -4.59487e-06)
(1.63679e-05 6.77945e-06 -1.1584e-05)
(1.85964e-05 9.47016e-06 1.3482e-05)
(1.66507e-05 8.4806e-06 6.10928e-06)
(1.56059e-05 7.94989e-06 7.17234e-07)
(1.5307e-05 7.799e-06 -4.59355e-06)
(1.5784e-05 8.04311e-06 -1.15821e-05)
(1.77949e-05 1.08999e-05 1.34831e-05)
(1.59327e-05 9.76087e-06 6.11039e-06)
(1.49327e-05 9.14974e-06 7.1844e-07)
(1.46465e-05 8.97573e-06 -4.59209e-06)
(1.51028e-05 9.2564e-06 -1.15801e-05)
(1.68838e-05 1.22621e-05 1.34848e-05)
(1.51164e-05 1.09805e-05 6.11171e-06)
(1.41675e-05 1.02926e-05 7.19697e-07)
(1.38959e-05 1.00965e-05 -4.59068e-06)
(1.43287e-05 1.04119e-05 -1.15782e-05)
(1.58685e-05 1.35489e-05 1.34867e-05)
(1.4207e-05 1.21323e-05 6.11302e-06)
(1.33151e-05 1.13718e-05 7.20751e-07)
(1.306e-05 1.11547e-05 -4.58962e-06)
(1.34668e-05 1.15028e-05 -1.15769e-05)
(1.4754e-05 1.4754e-05 1.34877e-05)
(1.321e-05 1.321e-05 6.11362e-06)
(1.23812e-05 1.23812e-05 7.2119e-07)
(1.21443e-05 1.21443e-05 -4.5892e-06)
(1.2523e-05 1.2523e-05 -1.15763e-05)
(1.35489e-05 1.58685e-05 1.34867e-05)
(1.21323e-05 1.42069e-05 6.11301e-06)
(1.13718e-05 1.33151e-05 7.20751e-07)
(1.11547e-05 1.306e-05 -4.58962e-06)
(1.15028e-05 1.34668e-05 -1.15769e-05)
(1.22621e-05 1.68838e-05 1.34848e-05)
(1.09805e-05 1.51164e-05 6.11171e-06)
(1.02926e-05 1.41675e-05 7.19697e-07)
(1.00965e-05 1.38959e-05 -4.59068e-06)
(1.04119e-05 1.43287e-05 -1.15782e-05)
(1.08999e-05 1.77949e-05 1.34831e-05)
(9.76087e-06 1.59327e-05 6.11038e-06)
(9.14974e-06 1.49327e-05 7.18439e-07)
(8.97573e-06 1.46465e-05 -4.59208e-06)
(9.2564e-06 1.51028e-05 -1.15801e-05)
(9.47016e-06 1.85964e-05 1.3482e-05)
(8.4806e-06 1.66507e-05 6.10928e-06)
(7.94988e-06 1.56059e-05 7.17234e-07)
(7.799e-06 1.5307e-05 -4.59355e-06)
(8.04311e-06 1.5784e-05 -1.15821e-05)
(7.98138e-06 1.92835e-05 1.34814e-05)
(7.14734e-06 1.72661e-05 6.10858e-06)
(6.70029e-06 1.61828e-05 7.16285e-07)
(6.57344e-06 1.58731e-05 -4.59487e-06)
(6.77945e-06 1.63679e-05 -1.15839e-05)
(6.44232e-06 1.98521e-05 1.34818e-05)
(5.76907e-06 1.77753e-05 6.10853e-06)
(5.40853e-06 1.66601e-05 7.15826e-07)
(5.30653e-06 1.63413e-05 -4.59581e-06)
(5.4732e-06 1.68508e-05 -1.15855e-05)
(4.862e-06 2.02993e-05 1.34836e-05)
(4.35404e-06 1.81755e-05 6.10949e-06)
(4.08246e-06 1.70352e-05 7.16178e-07)
(4.00597e-06 1.67091e-05 -4.59607e-06)
(4.13227e-06 1.72301e-05 -1.15866e-05)
(3.24921e-06 2.06236e-05 1.34874e-05)
(2.91075e-06 1.84652e-05 6.11196e-06)
(2.73019e-06 1.73063e-05 7.17736e-07)
(2.67944e-06 1.69746e-05 -4.59522e-06)
(2.76409e-06 1.75033e-05 -1.15867e-05)
(1.607e-06 2.0829e-05 1.34943e-05)
(1.44807e-06 1.86469e-05 6.1156e-06)
(1.35963e-06 1.74741e-05 7.20265e-07)
(1.33363e-06 1.71359e-05 -4.59322e-06)
(1.37339e-06 1.76648e-05 -1.15859e-05)
(0 2.09784e-05 1.37423e-05)
(0 1.87581e-05 6.28458e-06)
(0 1.75555e-05 8.71417e-07)
(0 1.71891e-05 -4.41304e-06)
(0 1.76843e-05 -1.13117e-05)
(4.57936e-05 0 1.79536e-05)
(4.39446e-05 0 9.053e-06)
(4.25186e-05 0 1.26962e-06)
(4.15782e-05 0 -6.41251e-06)
(4.10062e-05 0 -1.49801e-05)
(4.55913e-05 3.56271e-06 1.76855e-05)
(4.37536e-05 3.43262e-06 8.81517e-06)
(4.23461e-05 3.32716e-06 1.03664e-06)
(4.14235e-05 3.25876e-06 -6.67133e-06)
(4.08624e-05 3.21965e-06 -1.52932e-05)
(4.51586e-05 7.13701e-06 1.76754e-05)
(4.33372e-05 6.85347e-06 8.80448e-06)
(4.19447e-05 6.63759e-06 1.02638e-06)
(4.1033e-05 6.49724e-06 -6.68067e-06)
(4.04786e-05 6.41304e-06 -1.52987e-05)
(4.44521e-05 1.06595e-05 1.76703e-05)
(4.26597e-05 1.02327e-05 8.79995e-06)
(4.1289e-05 9.90728e-06 1.02267e-06)
(4.03917e-05 9.69538e-06 -6.68322e-06)
(3.9846e-05 9.56751e-06 -1.52997e-05)
(4.3474e-05 1.4115e-05 1.76682e-05)
(4.17211e-05 1.35483e-05 8.79861e-06)
(4.03805e-05 1.31159e-05 1.02215e-06)
(3.95028e-05 1.28338e-05 -6.68277e-06)
(3.8969e-05 1.2663e-05 -1.52981e-05)
(4.22292e-05 1.74824e-05 1.7668e-05)
(4.05264e-05 1.67799e-05 8.79909e-06)
(3.92239e-05 1.62434e-05 1.02331e-06)
(3.83712e-05 1.58929e-05 -6.68082e-06)
(3.78524e-05 1.56805e-05 -1.52951e-05)
(4.07246e-05 2.07413e-05 1.76692e-05)
(3.90822e-05 1.99074e-05 8.80066e-06)
(3.78259e-05 1.92701e-05 1.02537e-06)
(3.70033e-05 1.88537e-05 -6.67811e-06)
(3.65027e-05 1.86009e-05 -1.52916e-05)
(3.89692e-05 2.38718e-05 1.76713e-05)
(3.73972e-05 2.29117e-05 8.80285e-06)
(3.61948e-05 2.21776e-05 1.02783e-06)
(3.54074e-05 2.16976e-05 -6.67519e-06)
(3.49282e-05 2.14062e-05 -1.5288e-05)
(3.69737e-05 2.68551e-05 1.76739e-05)
(3.54817e-05 2.57744e-05 8.80525e-06)
(3.43406e-05 2.49479e-05 1.03026e-06)
(3.35936e-05 2.44072e-05 -6.6725e-06)
(3.31388e-05 2.40788e-05 -1.52848e-05)
(3.475e-05 2.96733e-05 1.76767e-05)
(3.33474e-05 2.84784e-05 8.80735e-06)
(3.22752e-05 2.75644e-05 1.03215e-06)
(3.15733e-05 2.69662e-05 -6.67053e-06)
(3.11461e-05 2.66026e-05 -1.52826e-05)
(3.23109e-05 3.23109e-05 1.7678e-05)
(3.10079e-05 3.10079e-05 8.80825e-06)
(3.00116e-05 3.00116e-05 1.0329e-06)
(2.93596e-05 2.93596e-05 -6.66979e-06)
(2.89629e-05 2.89629e-05 -1.52817e-05)
(2.96733e-05 3.475e-05 1.76767e-05)
(2.84784e-05 3.33474e-05 8.80735e-06)
(2.75644e-05 3.22752e-05 1.03215e-06)
(2.69662e-05 3.15733e-05 -6.67053e-06)
(2.66026e-05 3.11461e-05 -1.52826e-05)
(2.68551e-05 3.69737e-05 1.76739e-05)
(2.57744e-05 3.54816e-05 8.80525e-06)
(2.49479e-05 3.43406e-05 1.03026e-06)
(2.44072e-05 3.35936e-05 -6.67249e-06)
(2.40788e-05 3.31388e-05 -1.52848e-05)
(2.38718e-05 3.89692e-05 1.76713e-05)
(2.29117e-05 3.73972e-05 8.80285e-06)
(2.21776e-05 3.61947e-05 1.02783e-06)
(2.16976e-05 3.54074e-05 -6.67519e-06)
(2.14062e-05 3.49282e-05 -1.5288e-05)
(2.07413e-05 4.07246e-05 1.76692e-05)
(1.99074e-05 3.90821e-05 8.80066e-06)
(1.92701e-05 3.78258e-05 1.02537e-06)
(1.88537e-05 3.70033e-05 -6.67811e-06)
(1.86009e-05 3.65027e-05 -1.52916e-05)
(1.74824e-05 4.22291e-05 1.7668e-05)
(1.67799e-05 4.05263e-05 8.79909e-06)
(1.62433e-05 3.92239e-05 1.02331e-06)
(1.58929e-05 3.83712e-05 -6.68081e-06)
(1.56805e-05 3.78524e-05 -1.52951e-05)
(1.4115e-05 4.3474e-05 1.76682e-05)
(1.35483e-05 4.17211e-05 8.7986e-06)
(1.31159e-05 4.03804e-05 1.02215e-06)
(1.28338e-05 3.95028e-05 -6.68277e-06)
(1.2663e-05 3.8969e-05 -1.52981e-05)
(1.06595e-05 4.44521e-05 1.76702e-05)
(1.02327e-05 4.26597e-05 8.79994e-06)
(9.90728e-06 4.1289e-05 1.02267e-06)
(9.69538e-06 4.03917e-05 -6.68321e-06)
(9.56751e-06 3.9846e-05 -1.52997e-05)
(7.13701e-06 4.51585e-05 1.76754e-05)
(6.85347e-06 4.33372e-05 8.80447e-06)
(6.63759e-06 4.19447e-05 1.02637e-06)
(6.49724e-06 4.1033e-05 -6.68066e-06)
(6.41303e-06 4.04785e-05 -1.52987e-05)
(3.56271e-06 4.55913e-05 1.76855e-05)
(3.43262e-06 4.37535e-05 8.81516e-06)
(3.32716e-06 4.2346e-05 1.03663e-06)
(3.25876e-06 4.14235e-05 -6.67132e-06)
(3.21965e-06 4.08623e-05 -1.52932e-05)
(0 4.57935e-05 1.79536e-05)
(0 4.39446e-05 9.05299e-06)
(0 4.25186e-05 1.26962e-06)
(0 4.15782e-05 -6.41251e-06)
(0 4.10062e-05 -1.49801e-05)
(7.00579e-05 0 1.662e-05)
(6.83605e-05 0 8.37664e-06)
(6.67832e-05 0 7.71911e-07)
(6.53588e-05 0 -6.75202e-06)
(6.40083e-05 0 -1.47273e-05)
(6.97908e-05 5.47367e-06 1.63792e-05)
(6.80955e-05 5.35365e-06 8.1482e-06)
(6.65249e-05 5.2367e-06 5.40737e-07)
(6.51067e-05 5.13184e-06 -7.00167e-06)
(6.37591e-05 5.03863e-06 -1.501e-05)
(6.91365e-05 1.0937e-05 1.63692e-05)
(6.74543e-05 1.06765e-05 8.13787e-06)
(6.58975e-05 1.04362e-05 5.30596e-07)
(6.44922e-05 1.02198e-05 -7.01065e-06)
(6.31573e-05 1.0015e-05 -1.5016e-05)
(6.80578e-05 1.63263e-05 1.63638e-05)
(6.64016e-05 1.59337e-05 8.13304e-06)
(6.48684e-05 1.5571e-05 5.26569e-07)
(6.34846e-05 1.52442e-05 -7.01339e-06)
(6.21699e-05 1.49339e-05 -1.50172e-05)
(6.65613e-05 2.16142e-05 1.63617e-05)
(6.49412e-05 2.10923e-05 8.13172e-06)
(6.34413e-05 2.06098e-05 5.2621e-07)
(6.20875e-05 2.01748e-05 -7.01261e-06)
(6.08012e-05 1.97614e-05 -1.50151e-05)
(6.46555e-05 2.67683e-05 1.63618e-05)
(6.30815e-05 2.61206e-05 8.13259e-06)
(6.16241e-05 2.55215e-05 5.27972e-07)
(6.03087e-05 2.4981e-05 -7.00983e-06)
(5.90588e-05 2.44675e-05 -1.50112e-05)
(6.23517e-05 3.17569e-05 1.63634e-05)
(6.08334e-05 3.09876e-05 8.13479e-06)
(5.94276e-05 3.02756e-05 5.30899e-07)
(5.81586e-05 2.96331e-05 -7.00602e-06)
(5.6953e-05 2.90227e-05 -1.50064e-05)
(5.96639e-05 3.65496e-05 1.63661e-05)
(5.82105e-05 3.56633e-05 8.13771e-06)
(5.6865e-05 3.48428e-05 5.34298e-07)
(5.56505e-05 3.41023e-05 -7.00194e-06)
(5.44966e-05 3.33987e-05 -1.50014e-05)
(5.66083e-05 4.11172e-05 1.63692e-05)
(5.5229e-05 4.01193e-05 8.14078e-06)
(5.39522e-05 3.91952e-05 5.37554e-07)
(5.27999e-05 3.8361e-05 -6.99827e-06)
(5.1705e-05 3.75684e-05 -1.49971e-05)
(5.32037e-05 4.54324e-05 1.63724e-05)
(5.19071e-05 4.43285e-05 8.14336e-06)
(5.07074e-05 4.33062e-05 5.40016e-07)
(4.96248e-05 4.23833e-05 -6.99564e-06)
(4.85962e-05 4.15066e-05 -1.49942e-05)
(4.947e-05 4.947e-05 1.63738e-05)
(4.82658e-05 4.82658e-05 8.14442e-06)
(4.71513e-05 4.71513e-05 5.40962e-07)
(4.61454e-05 4.61454e-05 -6.99467e-06)
(4.51897e-05 4.51897e-05 -1.49931e-05)
(4.54324e-05 5.32037e-05 1.63724e-05)
(4.43285e-05 5.19071e-05 8.14336e-06)
(4.33062e-05 5.07074e-05 5.40016e-07)
(4.23833e-05 4.96248e-05 -6.99564e-06)
(4.15066e-05 4.85961e-05 -1.49942e-05)
(4.11173e-05 5.66083e-05 1.63692e-05)
(4.01193e-05 5.52289e-05 8.14078e-06)
(3.91952e-05 5.39522e-05 5.37554e-07)
(3.8361e-05 5.27999e-05 -6.99827e-06)
(3.75684e-05 5.1705e-05 -1.49971e-05)
(3.65496e-05 5.96638e-05 1.6366e-05)
(3.56633e-05 5.82105e-05 8.1377e-06)
(3.48428e-05 5.6865e-05 5.34297e-07)
(3.41023e-05 5.56505e-05 -7.00194e-06)
(3.33986e-05 5.44966e-05 -1.50014e-05)
(3.17569e-05 6.23517e-05 1.63634e-05)
(3.09876e-05 6.08333e-05 8.13479e-06)
(3.02756e-05 5.94276e-05 5.30897e-07)
(2.96331e-05 5.81586e-05 -7.00602e-06)
(2.90226e-05 5.69529e-05 -1.50064e-05)
(2.67683e-05 6.46554e-05 1.63618e-05)
(2.61206e-05 6.30814e-05 8.13259e-06)
(2.55215e-05 6.16241e-05 5.2797e-07)
(2.4981e-05 6.03086e-05 -7.00982e-06)
(2.44674e-05 5.90588e-05 -1.50112e-05)
(2.16142e-05 6.65612e-05 1.63617e-05)
(2.10923e-05 6.49412e-05 8.13172e-06)
(2.06098e-05 6.34413e-05 5.26208e-07)
(2.01748e-05 6.20874e-05 -7.01261e-06)
(1.97614e-05 6.08012e-05 -1.50151e-05)
(1.63263e-05 6.80578e-05 1.63638e-05)
(1.59337e-05 6.64016e-05 8.13303e-06)
(1.5571e-05 6.48684e-05 5.26566e-07)
(1.52442e-05 6.34845e-05 -7.01339e-06)
(1.49339e-05 6.21698e-05 -1.50172e-05)
(1.0937e-05 6.91364e-05 1.63692e-05)
(1.06765e-05 6.74543e-05 8.13786e-06)
(1.04362e-05 6.58974e-05 5.30592e-07)
(1.02198e-05 6.44921e-05 -7.01065e-06)
(1.0015e-05 6.31572e-05 -1.5016e-05)
(5.47367e-06 6.97908e-05 1.63792e-05)
(5.35365e-06 6.80955e-05 8.14819e-06)
(5.2367e-06 6.65249e-05 5.40734e-07)
(5.13183e-06 6.51066e-05 -7.00167e-06)
(5.03863e-06 6.37591e-05 -1.501e-05)
(0 7.00578e-05 1.662e-05)
(0 6.83605e-05 8.37663e-06)
(0 6.67832e-05 7.71907e-07)
(0 6.53587e-05 -6.75202e-06)
(0 6.40082e-05 -1.47273e-05)
(8.97998e-05 0 1.1713e-05)
(8.80976e-05 0 5.44042e-06)
(8.63539e-05 0 -5.07576e-07)
(8.45844e-05 0 -6.39397e-06)
(8.27331e-05 0 -1.24668e-05)
(8.94746e-05 7.02451e-06 1.15334e-05)
(8.77697e-05 6.9036e-06 5.26388e-06)
(8.60263e-05 6.77394e-06 -6.88674e-07)
(8.42568e-05 6.64369e-06 -6.58679e-06)
(8.24044e-05 6.51627e-06 -1.26773e-05)
(8.86386e-05 1.40249e-05 1.15259e-05)
(8.69457e-05 1.37637e-05 5.25689e-06)
(8.52161e-05 1.34976e-05 -6.95133e-07)
(8.34613e-05 1.32281e-05 -6.59211e-06)
(8.16257e-05 1.29464e-05 -1.26804e-05)
(8.72563e-05 2.09326e-05 1.15215e-05)
(8.5589e-05 2.0539e-05 5.25349e-06)
(8.38853e-05 2.01372e-05 -6.97477e-07)
(8.21571e-05 1.97298e-05 -6.5931e-06)
(8.0349e-05 1.93032e-05 -1.26799e-05)
(8.53373e-05 2.77106e-05 1.15198e-05)
(8.37061e-05 2.7187e-05 5.25288e-06)
(8.20392e-05 2.66522e-05 -6.9685e-07)
(8.03483e-05 2.61096e-05 -6.59111e-06)
(7.85791e-05 2.55415e-05 -1.26765e-05)
(8.28933e-05 3.43173e-05 1.152e-05)
(8.13082e-05 3.3667e-05 5.25423e-06)
(7.96884e-05 3.30025e-05 -6.94276e-07)
(7.80453e-05 3.23283e-05 -6.5872e-06)
(7.63262e-05 3.16224e-05 -1.26712e-05)
(7.99388e-05 4.07124e-05 1.15217e-05)
(7.84096e-05 3.99393e-05 5.25686e-06)
(7.6847e-05 3.91492e-05 -6.90578e-07)
(7.5262e-05 3.83475e-05 -6.58229e-06)
(7.36036e-05 3.75082e-05 -1.26649e-05)
(7.6492e-05 4.68567e-05 1.15245e-05)
(7.50282e-05 4.59655e-05 5.26018e-06)
(7.35326e-05 4.50545e-05 -6.86466e-07)
(7.20156e-05 4.41302e-05 -6.5772e-06)
(7.04285e-05 4.31627e-05 -1.26587e-05)
(7.25739e-05 5.27129e-05 1.15278e-05)
(7.11846e-05 5.17088e-05 5.2636e-06)
(6.97656e-05 5.06824e-05 -6.82628e-07)
(6.83263e-05 4.96409e-05 -6.57271e-06)
(6.68205e-05 4.85509e-05 -1.26533e-05)
(6.82085e-05 5.82455e-05 1.1531e-05)
(6.69028e-05 5.71343e-05 5.2664e-06)
(6.55695e-05 5.59985e-05 -6.79787e-07)
(6.42174e-05 5.48461e-05 -6.56955e-06)
(6.28027e-05 5.36402e-05 -1.26497e-05)
(6.34219e-05 6.34219e-05 1.15324e-05)
(6.22094e-05 6.22094e-05 5.26754e-06)
(6.09709e-05 6.09709e-05 -6.78712e-07)
(5.97146e-05 5.97146e-05 -6.5684e-06)
(5.84002e-05 5.84002e-05 -1.26483e-05)
(5.82455e-05 6.82085e-05 1.1531e-05)
(5.71344e-05 6.69028e-05 5.2664e-06)
(5.59985e-05 6.55695e-05 -6.79788e-07)
(5.48461e-05 6.42173e-05 -6.56955e-06)
(5.36402e-05 6.28027e-05 -1.26497e-05)
(5.27129e-05 7.25739e-05 1.15278e-05)
(5.17088e-05 7.11846e-05 5.2636e-06)
(5.06824e-05 6.97655e-05 -6.82629e-07)
(4.96409e-05 6.83263e-05 -6.57271e-06)
(4.85509e-05 6.68205e-05 -1.26533e-05)
(4.68567e-05 7.6492e-05 1.15245e-05)
(4.59655e-05 7.50281e-05 5.26018e-06)
(4.50545e-05 7.35325e-05 -6.86468e-07)
(4.41302e-05 7.20156e-05 -6.5772e-06)
(4.31626e-05 7.04284e-05 -1.26587e-05)
(4.07124e-05 7.99388e-05 1.15217e-05)
(3.99393e-05 7.84096e-05 5.25686e-06)
(3.91492e-05 7.6847e-05 -6.9058e-07)
(3.83475e-05 7.5262e-05 -6.58229e-06)
(3.75082e-05 7.36036e-05 -1.26649e-05)
(3.43173e-05 8.28932e-05 1.152e-05)
(3.3667e-05 8.13081e-05 5.25422e-06)
(3.30025e-05 7.96883e-05 -6.94278e-07)
(3.23283e-05 7.80452e-05 -6.5872e-06)
(3.16224e-05 7.63261e-05 -1.26712e-05)
(2.77106e-05 8.53373e-05 1.15198e-05)
(2.7187e-05 8.37061e-05 5.25287e-06)
(2.66521e-05 8.20391e-05 -6.96852e-07)
(2.61096e-05 8.03482e-05 -6.59111e-06)
(2.55415e-05 7.85791e-05 -1.26765e-05)
(2.09326e-05 8.72562e-05 1.15215e-05)
(2.0539e-05 8.5589e-05 5.25348e-06)
(2.01372e-05 8.38853e-05 -6.9748e-07)
(1.97298e-05 8.2157e-05 -6.5931e-06)
(1.93032e-05 8.03489e-05 -1.26799e-05)
(1.40249e-05 8.86385e-05 1.15259e-05)
(1.37637e-05 8.69456e-05 5.25688e-06)
(1.34976e-05 8.52161e-05 -6.95136e-07)
(1.32281e-05 8.34612e-05 -6.59211e-06)
(1.29464e-05 8.16256e-05 -1.26804e-05)
(7.02451e-06 8.94746e-05 1.15333e-05)
(6.9036e-06 8.77697e-05 5.26387e-06)
(6.77394e-06 8.60262e-05 -6.88678e-07)
(6.64369e-06 8.42567e-05 -6.58679e-06)
(6.51627e-06 8.24043e-05 -1.26773e-05)
(0 8.97997e-05 1.1713e-05)
(0 8.80976e-05 5.44041e-06)
(0 8.63538e-05 -5.0758e-07)
(0 8.45844e-05 -6.39397e-06)
(0 8.2733e-05 -1.24668e-05)
(0.000102922 0 4.88233e-06)
(0.000101157 0 1.21442e-06)
(9.92854e-05 0 -2.34828e-06)
(9.73116e-05 0 -5.87526e-06)
(9.51926e-05 0 -9.43122e-06)
(0.000102555 8.05163e-06 4.77929e-06)
(0.000100786 7.92656e-06 1.11001e-06)
(9.89117e-05 7.78764e-06 -2.45647e-06)
(9.69352e-05 7.6428e-06 -5.989e-06)
(9.48138e-05 7.49764e-06 -9.55141e-06)
(0.000101597 1.60725e-05 4.77517e-06)
(9.98394e-05 1.58028e-05 1.10695e-06)
(9.79797e-05 1.55177e-05 -2.45863e-06)
(9.6019e-05 1.52176e-05 -5.98999e-06)
(9.39166e-05 1.4896e-05 -9.55074e-06)
(0.000100011 2.39881e-05 4.77243e-06)
(9.82801e-05 2.35814e-05 1.10569e-06)
(9.6448e-05 2.3151e-05 -2.45847e-06)
(9.45169e-05 2.26972e-05 -5.98828e-06)
(9.24459e-05 2.22098e-05 -9.54734e-06)
(9.78099e-05 3.17552e-05 4.77122e-06)
(9.6116e-05 3.12137e-05 1.10618e-06)
(9.43232e-05 3.06404e-05 -2.45632e-06)
(9.24336e-05 3.00358e-05 -5.98439e-06)
(9.04072e-05 2.93866e-05 -9.54159e-06)
(9.50065e-05 3.93262e-05 4.77143e-06)
(9.33603e-05 3.8653e-05 1.10808e-06)
(9.1618e-05 3.79402e-05 -2.45271e-06)
(8.97817e-05 3.71885e-05 -5.97899e-06)
(8.78124e-05 3.63816e-05 -9.53424e-06)
(9.16182e-05 4.66548e-05 4.77284e-06)
(9.00298e-05 4.58539e-05 1.11098e-06)
(8.83489e-05 4.50058e-05 -2.44825e-06)
(8.65775e-05 4.41115e-05 -5.97284e-06)
(8.46778e-05 4.31517e-05 -9.52621e-06)
(8.76657e-05 5.36964e-05 4.77521e-06)
(8.61452e-05 5.27724e-05 1.11444e-06)
(8.45364e-05 5.1794e-05 -2.44356e-06)
(8.2841e-05 5.07624e-05 -5.96673e-06)
(8.10229e-05 4.96554e-05 -9.51848e-06)
(8.31734e-05 6.04082e-05 4.77817e-06)
(8.17305e-05 5.93665e-05 1.11792e-06)
(8.02041e-05 5.82635e-05 -2.4393e-06)
(7.85957e-05 5.71007e-05 -5.96146e-06)
(7.68709e-05 5.58532e-05 -9.51198e-06)
(7.81691e-05 6.67494e-05 4.78114e-06)
(7.68131e-05 6.55961e-05 1.12074e-06)
(7.53791e-05 6.43751e-05 -2.4362e-06)
(7.38682e-05 6.30879e-05 -5.95782e-06)
(7.2248e-05 6.17074e-05 -9.50759e-06)
(7.26825e-05 7.26824e-05 4.78253e-06)
(7.14236e-05 7.14236e-05 1.12189e-06)
(7.00918e-05 7.00918e-05 -2.43504e-06)
(6.86883e-05 6.86883e-05 -5.95651e-06)
(6.71832e-05 6.71832e-05 -9.50604e-06)
(6.67494e-05 7.8169e-05 4.78114e-06)
(6.55961e-05 7.68131e-05 1.12074e-06)
(6.43751e-05 7.53791e-05 -2.4362e-06)
(6.30879e-05 7.38682e-05 -5.95782e-06)
(6.17074e-05 7.2248e-05 -9.50759e-06)
(6.04082e-05 8.31734e-05 4.77817e-06)
(5.93665e-05 8.17305e-05 1.11792e-06)
(5.82635e-05 8.02041e-05 -2.4393e-06)
(5.71007e-05 7.85957e-05 -5.96146e-06)
(5.58531e-05 7.68709e-05 -9.51198e-06)
(5.36964e-05 8.76657e-05 4.77521e-06)
(5.27724e-05 8.61452e-05 1.11444e-06)
(5.1794e-05 8.45364e-05 -2.44356e-06)
(5.07624e-05 8.2841e-05 -5.96673e-06)
(4.96554e-05 8.10229e-05 -9.51848e-06)
(4.66548e-05 9.16181e-05 4.77284e-06)
(4.58539e-05 9.00298e-05 1.11098e-06)
(4.50058e-05 8.83489e-05 -2.44825e-06)
(4.41115e-05 8.65775e-05 -5.97284e-06)
(4.31517e-05 8.46778e-05 -9.52621e-06)
(3.93262e-05 9.50065e-05 4.77142e-06)
(3.8653e-05 9.33602e-05 1.10808e-06)
(3.79402e-05 9.16179e-05 -2.45271e-06)
(3.71885e-05 8.97817e-05 -5.97899e-06)
(3.63816e-05 8.78124e-05 -9.53424e-06)
(3.17552e-05 9.78098e-05 4.77122e-06)
(3.12137e-05 9.61159e-05 1.10618e-06)
(3.06404e-05 9.43232e-05 -2.45632e-06)
(3.00358e-05 9.24336e-05 -5.98439e-06)
(2.93866e-05 9.04071e-05 -9.54159e-06)
(2.39881e-05 0.000100011 4.77243e-06)
(2.35814e-05 9.82801e-05 1.10569e-06)
(2.3151e-05 9.6448e-05 -2.45847e-06)
(2.26972e-05 9.45168e-05 -5.98828e-06)
(2.22098e-05 9.24458e-05 -9.54734e-06)
(1.60725e-05 0.000101597 4.77516e-06)
(1.58027e-05 9.98393e-05 1.10695e-06)
(1.55177e-05 9.79796e-05 -2.45864e-06)
(1.52176e-05 9.60189e-05 -5.99e-06)
(1.4896e-05 9.39166e-05 -9.55074e-06)
(8.05162e-06 0.000102555 4.77929e-06)
(7.92656e-06 0.000100786 1.11001e-06)
(7.78764e-06 9.89117e-05 -2.45647e-06)
(7.6428e-06 9.69351e-05 -5.989e-06)
(7.49763e-06 9.48137e-05 -9.55141e-06)
(0 0.000102921 4.88232e-06)
(0 0.000101157 1.21441e-06)
(0 9.92854e-05 -2.34829e-06)
(0 9.73116e-05 -5.87526e-06)
(0 9.51925e-05 -9.43123e-06)
(0.000108673 0 -2.65965e-06)
(0.000106858 0 -3.55495e-06)
(0.00010493 0 -4.50603e-06)
(0.000102887 0 -5.45139e-06)
(0.000100692 0 -6.33225e-06)
(0.000108286 8.4978e-06 -2.68298e-06)
(0.000106466 8.37016e-06 -3.58151e-06)
(0.000104535 8.2279e-06 -4.53448e-06)
(0.000102489 8.07884e-06 -5.4799e-06)
(0.000100292 7.9296e-06 -6.35857e-06)
(0.000107273 1.69634e-05 -2.68401e-06)
(0.000105465 1.66878e-05 -3.58105e-06)
(0.000103548 1.63958e-05 -4.53279e-06)
(0.000101518 1.60868e-05 -5.47697e-06)
(9.93411e-05 1.57556e-05 -6.3543e-06)
(0.000105596 2.53182e-05 -2.68514e-06)
(0.000103814 2.49023e-05 -3.58017e-06)
(0.000101926 2.44611e-05 -4.5301e-06)
(9.99263e-05 2.39935e-05 -5.47245e-06)
(9.77817e-05 2.34912e-05 -6.34779e-06)
(0.000103268 3.35164e-05 -2.68587e-06)
(0.000101524 3.2962e-05 -3.57856e-06)
(9.96764e-05 3.23738e-05 -4.52632e-06)
(9.77194e-05 3.17504e-05 -5.46648e-06)
(9.56207e-05 3.10809e-05 -6.33939e-06)
(0.000100304 4.15075e-05 -2.68592e-06)
(9.86092e-05 4.08176e-05 -3.57619e-06)
(9.6813e-05 4.00857e-05 -4.52168e-06)
(9.49111e-05 3.931e-05 -5.45947e-06)
(9.28715e-05 3.84773e-05 -6.32976e-06)
(9.67226e-05 4.9243e-05 -2.68516e-06)
(9.50872e-05 4.84214e-05 -3.5732e-06)
(9.33541e-05 4.75498e-05 -4.51654e-06)
(9.15193e-05 4.66263e-05 -5.45206e-06)
(8.95516e-05 4.56352e-05 -6.31979e-06)
(9.2546e-05 5.6676e-05 -2.68357e-06)
(9.09804e-05 5.57272e-05 -3.56986e-06)
(8.93216e-05 5.47209e-05 -4.51141e-06)
(8.75656e-05 5.36548e-05 -5.44497e-06)
(8.56826e-05 5.25108e-05 -6.31045e-06)
(8.78002e-05 6.37614e-05 -2.68133e-06)
(8.63146e-05 6.26908e-05 -3.56655e-06)
(8.47409e-05 6.15555e-05 -4.50688e-06)
(8.30751e-05 6.03529e-05 -5.439e-06)
(8.1289e-05 5.9063e-05 -6.30274e-06)
(8.25145e-05 7.04562e-05 -2.67887e-06)
(8.11187e-05 6.927e-05 -3.56387e-06)
(7.96407e-05 6.80124e-05 -4.50364e-06)
(7.80762e-05 6.66806e-05 -5.43494e-06)
(7.63987e-05 6.52523e-05 -6.29761e-06)
(7.67207e-05 7.67206e-05 -2.67766e-06)
(7.54253e-05 7.54253e-05 -3.56279e-06)
(7.4053e-05 7.4053e-05 -4.50244e-06)
(7.26002e-05 7.26002e-05 -5.43348e-06)
(7.10423e-05 7.10423e-05 -6.2958e-06)
(7.04562e-05 8.25145e-05 -2.67887e-06)
(6.927e-05 8.11187e-05 -3.56387e-06)
(6.80124e-05 7.96407e-05 -4.50364e-06)
(6.66806e-05 7.80762e-05 -5.43494e-06)
(6.52523e-05 7.63987e-05 -6.29761e-06)
(6.37614e-05 8.78001e-05 -2.68133e-06)
(6.26908e-05 8.63145e-05 -3.56655e-06)
(6.15555e-05 8.47409e-05 -4.50688e-06)
(6.03529e-05 8.30751e-05 -5.439e-06)
(5.90629e-05 8.1289e-05 -6.30274e-06)
(5.6676e-05 9.2546e-05 -2.68357e-06)
(5.57272e-05 9.09803e-05 -3.56986e-06)
(5.47209e-05 8.93216e-05 -4.51141e-06)
(5.36547e-05 8.75656e-05 -5.44497e-06)
(5.25108e-05 8.56826e-05 -6.31045e-06)
(4.9243e-05 9.67226e-05 -2.68515e-06)
(4.84214e-05 9.50871e-05 -3.5732e-06)
(4.75498e-05 9.33541e-05 -4.51654e-06)
(4.66263e-05 9.15192e-05 -5.45206e-06)
(4.56351e-05 8.95516e-05 -6.31979e-06)
(4.15075e-05 0.000100304 -2.68592e-06)
(4.08176e-05 9.86092e-05 -3.57619e-06)
(4.00857e-05 9.6813e-05 -4.52168e-06)
(3.931e-05 9.49111e-05 -5.45947e-06)
(3.84773e-05 9.28714e-05 -6.32976e-06)
(3.35163e-05 0.000103268 -2.68586e-06)
(3.2962e-05 0.000101524 -3.57856e-06)
(3.23738e-05 9.96763e-05 -4.52632e-06)
(3.17504e-05 9.77194e-05 -5.46648e-06)
(3.10809e-05 9.56207e-05 -6.33939e-06)
(2.53182e-05 0.000105596 -2.68513e-06)
(2.49023e-05 0.000103814 -3.58017e-06)
(2.44611e-05 0.000101926 -4.5301e-06)
(2.39935e-05 9.99263e-05 -5.47245e-06)
(2.34912e-05 9.77816e-05 -6.34779e-06)
(1.69634e-05 0.000107273 -2.68401e-06)
(1.66878e-05 0.000105465 -3.58105e-06)
(1.63958e-05 0.000103548 -4.53279e-06)
(1.60868e-05 0.000101518 -5.47697e-06)
(1.57556e-05 9.9341e-05 -6.3543e-06)
(8.49779e-06 0.000108286 -2.68298e-06)
(8.37016e-06 0.000106466 -3.58151e-06)
(8.22789e-06 0.000104535 -4.53448e-06)
(8.07884e-06 0.000102489 -5.47991e-06)
(7.9296e-06 0.000100292 -6.35857e-06)
(0 0.000108673 -2.65965e-06)
(0 0.000106858 -3.55495e-06)
(0 0.00010493 -4.50603e-06)
(0 0.000102886 -5.45139e-06)
(0 0.000100692 -6.33225e-06)
(0.000107185 0 -1.00121e-05)
(0.000105365 0 -8.28288e-06)
(0.000103464 0 -6.73925e-06)
(0.000101476 0 -5.22049e-06)
(9.93682e-05 0 -3.57457e-06)
(0.000106801 8.37441e-06 -9.96064e-06)
(0.000104977 8.2481e-06 -8.23556e-06)
(0.000103074 8.10921e-06 -6.69173e-06)
(0.000101084 7.96554e-06 -5.16828e-06)
(9.89749e-05 7.82377e-06 -3.51315e-06)
(0.000105798 1.6719e-05 -9.95905e-06)
(0.000103986 1.64455e-05 -8.23222e-06)
(0.000102097 1.61601e-05 -6.68694e-06)
(0.000100123 1.58621e-05 -5.16218e-06)
(9.80322e-05 1.5547e-05 -3.50599e-06)
(0.000104139 2.49543e-05 -9.95884e-06)
(0.000102353 2.4541e-05 -8.22954e-06)
(0.000100492 2.41093e-05 -6.68215e-06)
(9.85469e-05 2.36579e-05 -5.15535e-06)
(9.64873e-05 2.31794e-05 -3.49687e-06)
(0.000101837 3.30351e-05 -9.95927e-06)
(0.000100089 3.24834e-05 -8.22703e-06)
(9.82671e-05 3.19074e-05 -6.67706e-06)
(9.63633e-05 3.13049e-05 -5.14766e-06)
(9.43475e-05 3.06665e-05 -3.48622e-06)
(9.89079e-05 4.09118e-05 -9.95975e-06)
(9.72079e-05 4.02243e-05 -8.2244e-06)
(9.54368e-05 3.95068e-05 -6.67164e-06)
(9.35863e-05 3.87563e-05 -5.13938e-06)
(9.16271e-05 3.79613e-05 -3.47468e-06)
(9.53697e-05 4.85368e-05 -9.95986e-06)
(9.37289e-05 4.77169e-05 -8.22154e-06)
(9.20198e-05 4.68614e-05 -6.66608e-06)
(9.02344e-05 4.59669e-05 -5.13102e-06)
(8.83443e-05 4.50195e-05 -3.46309e-06)
(9.1245e-05 5.58641e-05 -9.9593e-06)
(8.96742e-05 5.49159e-05 -8.21852e-06)
(8.80384e-05 5.3927e-05 -6.66075e-06)
(8.63298e-05 5.28934e-05 -5.12324e-06)
(8.45211e-05 5.17987e-05 -3.45243e-06)
(8.65602e-05 6.28494e-05 -9.95801e-06)
(8.50698e-05 6.17781e-05 -8.21558e-06)
(8.35181e-05 6.06614e-05 -6.65616e-06)
(8.18977e-05 5.94943e-05 -5.1168e-06)
(8.01824e-05 5.82587e-05 -3.44374e-06)
(8.13443e-05 6.94507e-05 -9.95624e-06)
(7.99446e-05 6.82626e-05 -8.21319e-06)
(7.84876e-05 6.70244e-05 -6.65292e-06)
(7.69662e-05 6.57309e-05 -5.11246e-06)
(7.53559e-05 6.43615e-05 -3.43799e-06)
(7.56289e-05 7.56288e-05 -9.95529e-06)
(7.43304e-05 7.43304e-05 -8.21222e-06)
(7.29784e-05 7.29784e-05 -6.65172e-06)
(7.15663e-05 7.15663e-05 -5.11091e-06)
(7.00717e-05 7.00717e-05 -3.43597e-06)
(6.94507e-05 8.13443e-05 -9.95624e-06)
(6.82626e-05 7.99446e-05 -8.21319e-06)
(6.70244e-05 7.84876e-05 -6.65292e-06)
(6.57309e-05 7.69662e-05 -5.11246e-06)
(6.43615e-05 7.53559e-05 -3.43799e-06)
(6.28494e-05 8.65601e-05 -9.95801e-06)
(6.17781e-05 8.50698e-05 -8.21557e-06)
(6.06614e-05 8.35181e-05 -6.65616e-06)
(5.94943e-05 8.18976e-05 -5.1168e-06)
(5.82587e-05 8.01824e-05 -3.44374e-06)
(5.58641e-05 9.1245e-05 -9.9593e-06)
(5.49159e-05 8.96742e-05 -8.21852e-06)
(5.3927e-05 8.80384e-05 -6.66075e-06)
(5.28933e-05 8.63298e-05 -5.12324e-06)
(5.17987e-05 8.45211e-05 -3.45244e-06)
(4.85368e-05 9.53696e-05 -9.95985e-06)
(4.77168e-05 9.37288e-05 -8.22154e-06)
(4.68614e-05 9.20198e-05 -6.66608e-06)
(4.59669e-05 9.02344e-05 -5.13102e-06)
(4.50195e-05 8.83443e-05 -3.4631e-06)
(4.09118e-05 9.89079e-05 -9.95975e-06)
(4.02243e-05 9.72079e-05 -8.2244e-06)
(3.95068e-05 9.54368e-05 -6.67163e-06)
(3.87563e-05 9.35863e-05 -5.13938e-06)
(3.79613e-05 9.16271e-05 -3.47469e-06)
(3.30351e-05 0.000101837 -9.95926e-06)
(3.24834e-05 0.000100089 -8.22703e-06)
(3.19074e-05 9.8267e-05 -6.67706e-06)
(3.13049e-05 9.63633e-05 -5.14766e-06)
(3.06664e-05 9.43475e-05 -3.48623e-06)
(2.49543e-05 0.000104139 -9.95883e-06)
(2.4541e-05 0.000102353 -8.22953e-06)
(2.41093e-05 0.000100492 -6.68215e-06)
(2.36579e-05 9.85468e-05 -5.15535e-06)
(2.31794e-05 9.64872e-05 -3.49688e-06)
(1.6719e-05 0.000105798 -9.95904e-06)
(1.64455e-05 0.000103986 -8.23221e-06)
(1.61601e-05 0.000102097 -6.68693e-06)
(1.58621e-05 0.000100123 -5.16218e-06)
(1.5547e-05 9.80322e-05 -3.50599e-06)
(8.37441e-06 0.000106801 -9.96063e-06)
(8.24809e-06 0.000104977 -8.23556e-06)
(8.10921e-06 0.000103074 -6.69173e-06)
(7.96554e-06 0.000101084 -5.16828e-06)
(7.82377e-06 9.89749e-05 -3.51315e-06)
(0 0.000107185 -1.00121e-05)
(0 0.000105365 -8.28288e-06)
(0 0.000103464 -6.73925e-06)
(0 0.000101476 -5.22049e-06)
(0 9.93681e-05 -3.57458e-06)
(9.92084e-05 0 -1.64498e-05)
(9.74367e-05 0 -1.24878e-05)
(9.56452e-05 0 -8.82619e-06)
(9.38239e-05 0 -5.21761e-06)
(9.19413e-05 0 -1.42894e-06)
(9.88477e-05 7.74108e-06 -1.63348e-05)
(9.70743e-05 7.62034e-06 -1.23779e-05)
(9.52825e-05 7.49128e-06 -8.71441e-06)
(9.34607e-05 7.36147e-06 -5.0972e-06)
(9.15787e-05 7.23708e-06 -1.29336e-06)
(9.79139e-05 1.54578e-05 -1.6331e-05)
(9.6152e-05 1.51952e-05 -1.23723e-05)
(9.43734e-05 1.49296e-05 -8.70736e-06)
(9.2566e-05 1.46602e-05 -5.08894e-06)
(9.07008e-05 1.43831e-05 -1.28441e-06)
(9.63715e-05 2.3073e-05 -1.63296e-05)
(9.46346e-05 2.26754e-05 -1.23683e-05)
(9.28815e-05 2.22731e-05 -8.7012e-06)
(9.11006e-05 2.18644e-05 -5.08076e-06)
(8.92627e-05 2.14429e-05 -1.2739e-06)
(9.42329e-05 3.0545e-05 -1.63297e-05)
(9.25317e-05 3.00135e-05 -1.23651e-05)
(9.08151e-05 2.94758e-05 -8.69539e-06)