/*--------------------------------*- C++ -*----------------------------------*\
| =========                 |                                                 |
| \\      /  F ield         | foam-extend: Open Source CFD                    |
|  \\    /   O peration     | Version:     3.1                                |
|   \\  /    A nd           | Web:         http://www.extend-project.de       |
|    \\/     M anipulation  |                                                 |
\*---------------------------------------------------------------------------*/
FoamFile
{
    version     2.0;
    format      ascii;
    class       volSymmTensorField;
    location    "0.0014";
    object      sigma;
}
// * * * * * * * * * * * * * * * * * * * * * * * * * * * * * * * * * * * * * //

dimensions      [1 -1 -2 0 0 0 0];

internalField   nonuniform List<symmTensor> 
6400
(
(1287.56 -65.4168 1943.53 2738.22 44.3031 5949.69)
(292.347 -41.5914 2095.98 1222.2 59.0113 2123.34)
(-538.66 -21.863 1978.72 -25.4656 54.909 -1068.41)
(-1547.34 -1.98296 1614.29 -1445.42 33.9149 -4738.11)
(1296.81 -169.533 1932.5 2714.37 224.546 5894.08)
(297.191 -108.91 2079.98 1203.67 243.259 2080.09)
(-539.386 -60.0647 1960.74 -40.5258 229.677 -1113.47)
(-1557.02 -11.5479 1594.13 -1461.12 186.534 -4800.67)
(1331.16 -278.133 1907.71 2675.64 376.983 5890.74)
(320.092 -177.827 2053.47 1180.41 406.508 2078.76)
(-526.243 -97.7202 1935.96 -53.4766 383.63 -1114.24)
(-1553.36 -18.3901 1574.39 -1464.27 312.126 -4800.94)
(1382.36 -379.617 1871.66 2622.49 526.366 5889.08)
(352.834 -242.765 2014.75 1146.48 567.056 2077.77)
(-508.196 -133.294 1899.48 -72.1651 534.946 -1114.73)
(-1549.97 -24.9378 1544.75 -1468.11 435.292 -4801.01)
(1449.04 -471.752 1824.22 2554.72 672.101 5888.39)
(395.514 -301.754 1963.73 1103.13 723.834 2077.47)
(-484.716 -165.681 1851.39 -95.9885 682.726 -1114.68)
(-1545.49 -30.9756 1505.62 -1472.62 555.509 -4800.55)
(1529.51 -552.292 1765.57 2473.8 813.404 5888.36)
(447.07 -353.324 1900.64 1051.34 875.919 2077.66)
(-456.319 -194.015 1791.9 -124.403 826.096 -1114.25)
(-1540.02 -36.2747 1457.22 -1477.86 672.118 -4799.79)
(1621.77 -619.275 1696.05 2381.57 949.481 5888.79)
(506.191 -396.208 1825.82 992.318 1022.42 2078.16)
(-423.742 -217.574 1721.37 -156.773 964.2 -1113.59)
(-1533.73 -40.6793 1399.83 -1483.78 784.426 -4798.88)
(1723.53 -671.071 1616.06 2280.22 1079.55 5889.54)
(571.402 -429.352 1739.74 927.455 1162.46 2078.86)
(-387.818 -235.769 1640.21 -192.353 1096.21 -1112.85)
(-1526.8 -44.0674 1333.83 -1490.29 891.753 -4797.95)
(1832.29 -706.425 1526.07 2172.19 1202.87 5890.5)
(641.099 -451.936 1642.93 858.304 1295.22 2079.61)
(-349.469 -248.143 1548.99 -230.304 1221.34 -1112.15)
(-1519.46 -46.3471 1259.67 -1497.26 993.459 -4797.15)
(1945.8 -724.563 1426.72 2060.18 1318.77 5891.54)
(713.504 -463.398 1536.08 786.504 1419.97 2080.2)
(-309.74 -254.393 1448.32 -269.716 1338.91 -1111.7)
(-1511.97 -47.4781 1177.88 -1504.53 1088.99 -4796.68)
(2060.18 -724.563 1318.77 1945.8 1426.72 5891.53)
(786.504 -463.398 1419.97 713.504 1536.08 2080.2)
(-269.716 -254.393 1338.91 -309.74 1448.32 -1111.7)
(-1504.53 -47.4781 1088.99 -1511.97 1177.88 -4796.68)
(2172.19 -706.425 1202.87 1832.29 1526.07 5890.5)
(858.303 -451.936 1295.22 641.099 1642.93 2079.61)
(-230.304 -248.142 1221.34 -349.469 1548.98 -1112.15)
(-1497.26 -46.3471 993.459 -1519.46 1259.67 -4797.15)
(2280.22 -671.071 1079.55 1723.53 1616.06 5889.53)
(927.455 -429.352 1162.46 571.402 1739.73 2078.86)
(-192.353 -235.769 1096.21 -387.817 1640.21 -1112.85)
(-1490.29 -44.0674 891.753 -1526.8 1333.83 -4797.95)
(2381.57 -619.275 949.482 1621.77 1696.05 5888.79)
(992.318 -396.208 1022.42 506.191 1825.82 2078.16)
(-156.773 -217.574 964.2 -423.741 1721.36 -1113.59)
(-1483.78 -40.6793 784.426 -1533.72 1399.83 -4798.88)
(2473.8 -552.291 813.404 1529.51 1765.57 5888.36)
(1051.34 -353.324 875.919 447.069 1900.64 2077.66)
(-124.403 -194.015 826.096 -456.319 1791.9 -1114.24)
(-1477.86 -36.2747 672.118 -1540.02 1457.22 -4799.79)
(2554.72 -471.752 672.101 1449.03 1824.21 5888.39)
(1103.13 -301.754 723.834 395.514 1963.73 2077.47)
(-95.9885 -165.681 682.726 -484.715 1851.39 -1114.68)
(-1472.62 -30.9756 555.509 -1545.49 1505.62 -4800.55)
(2622.48 -379.617 526.367 1382.36 1871.66 5889.08)
(1146.48 -242.765 567.056 352.833 2014.75 2077.77)
(-72.1651 -133.294 534.946 -508.196 1899.48 -1114.73)
(-1468.11 -24.9378 435.292 -1549.97 1544.75 -4801)
(2675.64 -278.133 376.983 1331.15 1907.71 5890.74)
(1180.41 -177.827 406.508 320.092 2053.46 2078.76)
(-53.4766 -97.7202 383.63 -526.243 1935.96 -1114.24)
(-1464.27 -18.3901 312.126 -1553.36 1574.38 -4800.94)
(2714.37 -169.533 224.546 1296.81 1932.5 5894.07)
(1203.67 -108.91 243.259 297.191 2079.98 2080.09)
(-40.5258 -60.0647 229.677 -539.386 1960.74 -1113.47)
(-1461.12 -11.548 186.534 -1557.02 1594.13 -4800.67)
(2738.22 -65.4168 44.3032 1287.56 1943.53 5949.68)
(1222.2 -41.5914 59.0114 292.347 2095.98 2123.33)
(-25.4657 -21.863 54.909 -538.66 1978.72 -1068.41)
(-1445.42 -1.98297 33.915 -1547.34 1614.29 -4738.11)
(-1223.93 -144.872 849.789 2076.17 -30.9813 1917.26)
(-694.222 -109.492 1580.45 1809.89 9.6121 1072.19)
(-360.44 -76.3958 1549.73 1439.94 8.8032 -83.9683)
(25.508 -46.1615 809.154 1196.65 -30.2565 -1010.55)
(-1162.84 -385.89 855.868 2064.29 100.958 1920.08)
(-651.235 -293.256 1570.44 1789.33 185.955 1059.04)
(-326.931 -210.474 1529.78 1424.28 181.752 -99.6774)
(55.4545 -136.153 781.032 1191.27 94.3607 -1018.7)
(-1084.16 -633.719 845.447 1978.66 168.074 1916.35)
(-589.787 -479.339 1550.76 1727.95 308.737 1056.79)
(-282.251 -343.813 1510.47 1379.95 301.258 -101.841)
(85.0772 -222.786 771.224 1161.94 154.955 -1020.38)
(-966.292 -865.061 829.507 1859.38 234.048 1915.43)
(-500.808 -654.464 1521.57 1637.91 429.518 1055.9)
(-218.311 -469.292 1482.02 1315.5 418.794 -102.452)
(126.457 -304.03 756.658 1119.98 214.794 -1020.8)
(-813.802 -1075.11 808.41 1705.83 298.469 1915.11)
(-385.412 -813.539 1483.02 1521.79 547.561 1055.75)
(-135.537 -583.39 1444.48 1232.29 533.699 -102.376)
(180.099 -377.953 737.458 1066.09 273.341 -1020.5)
(-630.278 -1258.72 782.29 1521.67 360.962 1915.19)
(-246.451 -952.615 1435.33 1382.4 662.171 1056)
(-35.8395 -683.174 1398.07 1132.33 645.289 -101.947)
(244.695 -442.607 713.745 1001.36 330.223 -1019.9)
(-420.209 -1411.43 751.299 1311.34 421.147 1915.54)
(-87.3442 -1068.27 1378.77 1223.12 772.641 1056.47)
(78.3189 -766.142 1343.04 1018.06 752.866 -101.354)
(318.639 -496.347 685.661 927.313 385.067 -1019.2)
(-188.713 -1529.52 715.622 1079.94 478.641 1916.06)
(88.0105 -1157.65 1313.71 1047.86 878.276 1057.04)
(204.118 -830.227 1279.75 892.276 855.749 -100.73)
(400.082 -537.82 653.388 845.749 437.508 -1018.55)
(58.5755 -1610.12 675.498 833.115 533.057 1916.63)
(275.363 -1218.56 1240.56 860.901 978.406 1057.63)
(338.444 -873.825 1208.62 758.079 953.289 -100.187)
(486.981 -565.985 617.153 758.69 487.198 -1018.07)
(316.612 -1651.43 631.456 577.203 584 1917.53)
(470.089 -1249.45 1159.93 666.877 1072.42 1058.11)
(477.873 -895.866 1130.16 618.85 1044.91 -99.8426)
(577.139 -580.188 577.222 668.402 533.841 -1017.82)
(577.203 -1651.43 584.001 316.612 631.455 1917.53)
(666.877 -1249.45 1072.42 470.089 1159.93 1058.11)
(618.85 -895.866 1044.91 477.873 1130.16 -99.8426)
(668.402 -580.188 533.841 577.139 577.221 -1017.82)
(833.115 -1610.12 533.058 58.5759 675.497 1916.63)
(860.901 -1218.56 978.406 275.363 1240.56 1057.63)
(758.079 -873.825 953.289 338.444 1208.62 -100.187)
(758.69 -565.985 487.198 486.981 617.152 -1018.07)
(1079.94 -1529.52 478.642 -188.713 715.621 1916.06)
(1047.86 -1157.65 878.276 88.0108 1313.7 1057.04)
(892.275 -830.227 855.749 204.118 1279.75 -100.73)
(845.748 -537.82 437.508 400.082 653.387 -1018.55)
(1311.34 -1411.43 421.148 -420.208 751.298 1915.54)
(1223.12 -1068.27 772.641 -87.3438 1378.77 1056.47)
(1018.06 -766.142 752.866 78.319 1343.04 -101.354)
(927.313 -496.347 385.067 318.638 685.66 -1019.2)
(1521.67 -1258.72 360.963 -630.278 782.289 1915.19)
(1382.4 -952.615 662.171 -246.45 1435.33 1056)
(1132.33 -683.174 645.289 -35.8394 1398.07 -101.948)
(1001.36 -442.607 330.223 244.695 713.745 -1019.9)
(1705.83 -1075.11 298.469 -813.801 808.409 1915.11)
(1521.79 -813.539 547.561 -385.412 1483.02 1055.75)
(1232.29 -583.39 533.699 -135.537 1444.48 -102.377)
(1066.09 -377.953 273.341 180.099 737.457 -1020.5)
(1859.38 -865.061 234.048 -966.291 829.507 1915.43)
(1637.91 -654.464 429.518 -500.808 1521.57 1055.9)
(1315.5 -469.292 418.794 -218.311 1482.02 -102.452)
(1119.98 -304.03 214.794 126.457 756.658 -1020.8)
(1978.66 -633.719 168.074 -1084.15 845.446 1916.35)
(1727.95 -479.339 308.737 -589.787 1550.76 1056.78)
(1379.95 -343.813 301.258 -282.251 1510.47 -101.841)
(1161.94 -222.786 154.955 85.0771 771.224 -1020.38)
(2064.29 -385.89 100.958 -1162.84 855.867 1920.08)
(1789.33 -293.256 185.955 -651.235 1570.44 1059.04)
(1424.28 -210.474 181.752 -326.931 1529.78 -99.6779)
(1191.27 -136.153 94.3607 55.4545 781.031 -1018.7)
(2076.17 -144.872 -30.9812 -1223.93 849.789 1917.26)
(1809.89 -109.492 9.61215 -694.221 1580.45 1072.19)
(1439.94 -76.3958 8.80324 -360.44 1549.73 -83.9688)
(1196.65 -46.1615 -30.2565 25.5079 809.154 -1010.55)
(-1211.89 -177.144 538.522 2967.36 -47.0939 49.9181)
(-793.132 -159.722 937.654 2950.2 -25.353 367.012)
(-349.492 -139.335 914.358 2943.38 -26.168 578.84)
(10.3913 -123.385 483.485 2969.85 -48.218 879.026)
(-1151.21 -488.823 538.075 2936.41 62.5274 63.2733)
(-738.627 -438.3 929.356 2911.02 108.887 373.004)
(-302.048 -385.005 899.613 2904.52 105.926 582.796)
(48.7406 -344.63 465.451 2927.84 55.9033 882.687)
(-1052.02 -803.392 531.31 2830.47 105.422 61.2405)
(-647.122 -717.445 917.667 2820.82 182.627 373.379)
(-221.132 -630.27 888.225 2825.24 177.354 583.283)
(121.574 -566.031 459.821 2857.28 92.9375 883.31)
(-902.44 -1096.95 521.243 2680.41 147.192 61.0343)
(-513.718 -979.768 900.349 2687.09 254.515 373.231)
(-103.688 -860.683 871.487 2708.09 246.9 583.369)
(226.977 -773.081 451.109 2752.12 128.972 883.422)
(-708.944 -1363.51 507.931 2486.35 187.799 60.9355)
(-340.826 -1218.03 877.48 2513.94 324.5 373.292)
(48.2551 -1070.05 849.365 2556.14 314.591 583.598)
(363.501 -961.173 439.6 2615.78 163.968 883.791)
(-476.096 -1596.55 491.439 2253.16 227.11 61.033)
(-132.718 -1426.35 849.19 2305.65 392.332 373.538)
(231.14 -1253.11 822.016 2373.22 380.198 583.999)
(527.799 -1125.61 425.413 2451.58 197.837 884.333)
(-209.58 -1790.37 471.863 1986.57 264.923 61.2936)
(105.509 -1599.59 815.653 2067.4 457.653 373.911)
(440.483 -1405.33 789.618 2163.89 443.38 584.487)
(715.828 -1262.3 408.651 2263.58 230.422 884.928)
(84.1106 -1940.25 449.329 1693.14 300.996 61.6747)
(368.027 -1733.48 777.087 1805.06 520.063 374.345)
(671.133 -1522.91 752.389 1933.3 503.757 584.975)
(922.93 -1367.84 389.433 2056.42 261.532 885.46)
(397.833 -2042.54 424.024 1380.04 335.05 62.117)
(648.458 -1824.7 733.783 1525.11 579.156 374.795)
(917.399 -1602.93 710.598 1687.19 560.951 585.389)
(1143.96 -1439.6 367.909 1835.25 290.971 885.836)
(724.867 -2094.85 396.395 1055.26 366.809 62.9352)
(939.863 -1870.95 686.156 1234.49 634.574 375.199)
(1173.08 -1643.4 664.578 1431.74 614.631 585.655)
(1373.4 -1475.86 344.245 1605.68 318.574 886.02)
(1055.26 -2094.85 366.81 724.867 396.394 62.9353)
(1234.49 -1870.95 634.574 939.863 686.156 375.199)
(1431.74 -1643.4 614.631 1173.08 664.578 585.655)
(1605.68 -1475.86 318.574 1373.4 344.245 886.02)
(1380.04 -2042.53 335.051 397.833 424.023 62.1172)
(1525.11 -1824.7 579.157 648.458 733.782 374.795)
(1687.19 -1602.93 560.951 917.399 710.598 585.389)
(1835.25 -1439.6 290.971 1143.96 367.909 885.836)
(1693.14 -1940.25 300.997 84.1113 449.328 61.675)
(1805.06 -1733.48 520.064 368.028 777.086 374.345)
(1933.3 -1522.91 503.758 671.133 752.389 584.975)
(2056.42 -1367.84 261.532 922.93 389.433 885.46)
(1986.57 -1790.37 264.924 -209.579 471.862 61.294)
(2067.4 -1599.59 457.653 105.51 815.652 373.911)
(2163.89 -1405.33 443.38 440.483 789.618 584.487)
(2263.58 -1262.3 230.422 715.828 408.65 884.928)
(2253.16 -1596.55 227.11 -476.095 491.438 61.0336)
(2305.65 -1426.35 392.332 -132.718 849.19 373.538)
(2373.22 -1253.11 380.198 231.14 822.015 583.998)
(2451.58 -1125.61 197.837 527.799 425.413 884.332)
(2486.35 -1363.51 187.8 -708.943 507.93 60.9361)
(2513.94 -1218.03 324.5 -340.825 877.479 373.292)
(2556.14 -1070.05 314.591 48.2552 849.364 583.598)
(2615.78 -961.173 163.968 363.501 439.6 883.79)
(2680.41 -1096.95 147.193 -902.439 521.243 61.0348)
(2687.09 -979.768 254.515 -513.717 900.348 373.231)
(2708.09 -860.683 246.9 -103.688 871.486 583.369)
(2752.12 -773.081 128.972 226.977 451.109 883.421)
(2830.47 -803.392 105.422 -1052.02 531.309 61.2409)
(2820.82 -717.445 182.627 -647.122 917.666 373.379)
(2825.24 -630.27 177.354 -221.132 888.224 583.282)
(2857.28 -566.031 92.9375 121.574 459.821 883.309)
(2936.41 -488.822 62.5276 -1151.21 538.075 63.2736)
(2911.02 -438.3 108.887 -738.627 929.356 373.003)
(2904.52 -385.005 105.926 -302.048 899.612 582.795)
(2927.84 -344.63 55.9034 48.7405 465.451 882.686)
(2967.36 -177.144 -47.0938 -1211.89 538.521 49.9184)
(2950.2 -159.722 -25.3529 -793.131 937.653 367.011)
(2943.38 -139.335 -26.1679 -349.492 914.357 578.839)
(2969.85 -123.385 -48.218 10.3912 483.485 879.025)
(-1152.48 -212.94 292.81 3953.95 -46.5914 -1024.53)
(-759.175 -203.949 495.913 4078.06 -35.4435 -0.787769)
(-358.582 -192.938 478.229 4210.44 -36.0754 950.159)
(-17.042 -183.923 250.127 4368.03 -47.4386 1952.49)
(-1084.03 -597.226 290.648 3908.22 32.8663 -1003.45)
(-696.204 -566.415 489.416 4022.8 56.5782 14.6061)
(-301.283 -534.471 468.573 4151.96 54.6411 963.52)
(32.7941 -510.307 238.999 4299.91 28.5675 1963.27)
(-962.897 -981.458 286.941 3780.22 56.3058 -1004.51)
(-579.332 -927.852 483.158 3905.64 95.7862 15.7355)
(-190.563 -875.445 462.64 4041.26 92.3253 964.818)
(140.169 -839.006 236.149 4195.83 48.0424 1965.45)
(-780.217 -1340.26 281.438 3597.38 79.1141 -1004.13)
(-406.836 -1267.24 473.961 3732.85 133.958 16.2216)
(-27.4613 -1195.7 453.874 3878.53 128.916 965.607)
(296.377 -1146.16 231.611 4040.02 66.9139 1966.3)
(-543.749 -1666.13 274.178 3360.65 101.217 -1004.01)
(-183.153 -1575.5 461.841 3509.14 170.989 16.5728)
(183.697 -1486.63 442.268 3667.59 164.367 966.167)
(498.836 -1425.07 225.599 3837.97 85.0795 1967.04)
(-259.165 -1951.06 265.176 3075.97 122.553 -1003.9)
(86.0744 -1845.04 446.859 3239.96 206.784 16.8887)
(437.817 -1741 427.94 3413.64 198.602 966.677)
(742.462 -1668.89 218.23 3594.64 102.516 1967.74)
(66.5734 -2188.06 254.477 2750.36 143.026 -1003.74)
(394.246 -2069.21 429.111 2931.94 241.181 17.2145)
(728.668 -1952.51 411.004 3122.96 231.48 967.159)
(1021.26 -1871.58 209.582 3316.01 119.18 1968.37)
(425.518 -2371.32 242.16 2391.82 162.492 -1003.5)
(733.817 -2242.46 408.728 2592.68 273.975 17.5521)
(1049.1 -2115.91 391.588 2802.71 262.821 967.591)
(1328.33 -2028.09 199.733 3008.99 135.003 1968.89)
(808.918 -2496.37 228.357 2009.13 180.771 -1003.2)
(1096.52 -2360.5 385.893 2230.54 304.947 17.9046)
(1391.21 -2227.12 369.856 2460.84 292.442 967.94)
(1656.08 -2134.56 188.772 2681.18 149.91 1969.24)
(1208.32 -2560.21 213.439 1611.99 197.681 -1002.47)
(1473.37 -2420.34 360.886 1854.51 333.916 18.2471)
(1746.44 -2283.4 346.006 2105.87 320.189 968.165)
(1996.35 -2188.4 176.791 2340.82 163.841 1969.41)
(1611.99 -2560.21 197.682 1208.32 213.438 -1002.47)
(1854.51 -2420.34 333.916 1473.37 360.885 18.2472)
(2105.87 -2283.4 320.189 1746.44 346.006 968.165)
(2340.82 -2188.4 163.841 1996.35 176.791 1969.41)
(2009.13 -2496.37 180.771 808.918 228.356 -1003.2)
(2230.54 -2360.5 304.947 1096.52 385.893 17.9047)
(2460.84 -2227.12 292.442 1391.21 369.856 967.94)
(2681.18 -2134.56 149.91 1656.08 188.772 1969.24)
(2391.82 -2371.32 162.493 425.519 242.16 -1003.5)
(2592.68 -2242.46 273.975 733.818 408.728 17.5523)
(2802.71 -2115.91 262.821 1049.1 391.588 967.59)
(3008.99 -2028.09 135.003 1328.33 199.733 1968.89)
(2750.36 -2188.06 143.026 66.5744 254.477 -1003.74)
(2931.94 -2069.2 241.181 394.246 429.11 17.2148)
(3122.96 -1952.51 231.48 728.668 411.003 967.159)
(3316.01 -1871.58 119.179 1021.26 209.582 1968.37)
(3075.97 -1951.06 122.553 -259.164 265.175 -1003.9)
(3239.96 -1845.04 206.785 86.0749 446.859 16.889)
(3413.64 -1741 198.602 437.817 427.94 966.676)
(3594.63 -1668.89 102.516 742.462 218.23 1967.74)
(3360.65 -1666.13 101.217 -543.748 274.177 -1004.01)
(3509.14 -1575.5 170.99 -183.152 461.841 16.5732)
(3667.59 -1486.63 164.367 183.697 442.268 966.167)
(3837.97 -1425.07 85.0795 498.836 225.599 1967.04)
(3597.38 -1340.26 79.1145 -780.216 281.437 -1004.13)
(3732.84 -1267.24 133.958 -406.836 473.961 16.2219)
(3878.53 -1195.7 128.916 -27.4612 453.873 965.606)
(4040.01 -1146.16 66.9138 296.377 231.611 1966.3)
(3780.22 -981.458 56.306 -962.896 286.941 -1004.5)
(3905.64 -927.852 95.7863 -579.332 483.158 15.7358)
(4041.26 -875.445 92.3254 -190.563 462.64 964.818)
(4195.82 -839.005 48.0424 140.169 236.149 1965.45)
(3908.22 -597.226 32.8664 -1084.03 290.648 -1003.45)
(4022.8 -566.415 56.5783 -696.203 489.416 14.6063)
(4151.96 -534.471 54.6411 -301.283 468.573 963.519)
(4299.91 -510.306 28.5675 32.7941 238.999 1963.27)
(3953.95 -212.94 -46.5913 -1152.48 292.81 -1024.53)
(4078.06 -203.949 -35.4435 -759.174 495.912 -0.787574)
(4210.44 -192.938 -36.0754 -358.582 478.228 950.159)
(4368.03 -183.923 -47.4386 -17.0421 250.127 1952.49)
(-1095.86 -243.4 120.518 4779.77 -35.2164 -1525.5)
(-726.184 -238.06 200.676 4947.36 -30.6537 -167.813)
(-360.171 -231.166 191.147 5123.54 -30.9189 1134.17)
(-39.3958 -224.942 96.8851 5320.97 -35.3767 2462.12)
(-1019.65 -687.28 118.324 4723.72 12.495 -1500.74)
(-655.591 -664.498 196.547 4880.93 22.1848 -148.171)
(-294.834 -641.582 185.755 5052 21.4491 1151.59)
(19.1742 -623.682 91.082 5236.09 11.0721 2475.55)
(-880.238 -1129.29 116.849 4577.15 22.0289 -1501.56)
(-519.122 -1088.71 193.964 4743.16 38.0312 -147.016)
(-162.597 -1051.11 183.324 4918.7 36.6227 1152.93)
(150.226 -1025.7 89.9427 5108.85 18.8187 2478.33)
(-670.093 -1542.18 114.593 4367.01 31.4121 -1500.91)
(-316.739 -1486.92 190.187 4540.37 53.5132 -146.264)
(33.2367 -1435.7 179.741 4723.13 51.3512 1154.05)
(341.193 -1401.3 88.0861 4918.19 26.3066 2479.6)
(-397.985 -1917.24 111.575 4094.81 40.5343 -1500.67)
(-54.2484 -1848.64 185.208 4277.96 68.5019 -145.736)
(286.818 -1785.03 175.004 4469.81 65.5432 1154.84)
(588.737 -1742.28 85.6455 4671.07 33.4044 2480.65)
(-70.4838 -2245.24 107.791 3767.42 49.3423 -1500.58)
(261.673 -2164.95 179.057 3962.23 82.9407 -145.364)
(591.961 -2090.46 169.188 4164.93 79.1546 1155.46)
(886.599 -2040.34 82.71 4373.53 40.0831 2481.53)
(304.388 -2518.09 103.257 3392.86 57.7764 -1500.52)
(623.275 -2428.03 171.784 3600.91 96.7586 -145.067)
(941.185 -2344.42 162.364 3815.96 92.1345 1155.97)
(1227.45 -2288.11 79.3422 4032.9 46.3388 2482.27)
(717.468 -2729.09 98.0152 2980.29 65.7452 -1500.42)
(1021.7 -2631.38 163.463 3202.89 109.864 -144.801)
(1325.91 -2540.62 154.607 3431.5 104.421 1156.39)
(1602.86 -2479.47 75.5979 3657.6 52.1678 2482.84)
(1158.67 -2873.03 92.1587 2539.83 73.1227 -1500.26)
(1447.24 -2769.92 154.206 2777.96 122.155 -144.526)
(1736.66 -2674.19 146.011 3021.04 115.95 1156.71)
(2003.57 -2609.66 71.531 3256.89 57.5678 2483.21)
(1618.1 -2946.45 86.0104 2082.6 79.7874 -1499.63)
(1889.38 -2840.15 144.203 2336.64 133.565 -144.237)
(2163.18 -2741.79 136.687 2594.8 126.688 1156.91)
(2419.61 -2675.51 67.1853 2840.79 62.554 2483.38)
(2082.6 -2946.45 79.7876 1618.1 86.0102 -1499.63)
(2336.64 -2840.15 133.565 1889.38 144.203 -144.237)
(2594.8 -2741.79 126.688 2163.18 136.687 1156.91)
(2840.79 -2675.51 62.5538 2419.61 67.1854 2483.38)
(2539.83 -2873.03 73.1229 1158.67 92.1585 -1500.26)
(2777.96 -2769.92 122.155 1447.24 154.206 -144.526)
(3021.04 -2674.19 115.95 1736.66 146.011 1156.71)
(3256.89 -2609.66 57.5677 2003.57 71.5311 2483.21)
(2980.29 -2729.09 65.7454 717.469 98.015 -1500.42)
(3202.89 -2631.37 109.864 1021.7 163.463 -144.8)
(3431.5 -2540.62 104.421 1325.91 154.607 1156.39)
(3657.6 -2479.46 52.1676 1602.86 75.598 2482.83)
(3392.86 -2518.09 57.7767 304.389 103.257 -1500.52)
(3600.91 -2428.03 96.7587 623.276 171.784 -145.066)
(3815.96 -2344.42 92.1345 941.184 162.364 1155.97)
(4032.9 -2288.11 46.3387 1227.45 79.3423 2482.27)
(3767.42 -2245.24 49.3425 -70.4823 107.791 -1500.58)
(3962.23 -2164.95 82.9407 261.673 179.057 -145.363)
(4164.93 -2090.46 79.1546 591.961 169.188 1155.46)
(4373.53 -2040.34 40.083 886.599 82.71 2481.53)
(4094.81 -1917.24 40.5345 -397.983 111.575 -1500.67)
(4277.96 -1848.64 68.502 -54.2478 185.208 -145.735)
(4469.81 -1785.03 65.5433 286.818 175.004 1154.84)
(4671.06 -1742.28 33.4044 588.736 85.6456 2480.65)
(4367.01 -1542.18 31.4123 -670.091 114.593 -1500.91)
(4540.37 -1486.92 53.5133 -316.739 190.187 -146.263)
(4723.13 -1435.7 51.3513 33.2368 179.741 1154.05)
(4918.19 -1401.3 26.3066 341.193 88.0861 2479.6)
(4577.15 -1129.29 22.029 -880.236 116.849 -1501.56)
(4743.16 -1088.71 38.0313 -519.121 193.964 -147.016)
(4918.7 -1051.11 36.6227 -162.597 183.324 1152.93)
(5108.84 -1025.7 18.8188 150.226 89.9427 2478.33)
(4723.72 -687.28 12.4951 -1019.65 118.324 -1500.74)
(4880.93 -664.498 22.1849 -655.591 196.547 -148.17)
(5052 -641.582 21.4492 -294.834 185.755 1151.59)
(5236.09 -623.682 11.0721 19.1741 91.0821 2475.54)
(4779.77 -243.4 -35.2163 -1095.86 120.518 -1525.5)
(4947.36 -238.06 -30.6537 -726.184 200.676 -167.812)
(5123.53 -231.166 -30.9189 -360.171 191.147 1134.17)
(5320.96 -224.942 -35.3767 -39.3959 96.8851 2462.12)
(-1043.93 -262.416 2.34894 5304.71 -18.459 -1652.17)
(-693.968 -257.905 3.70925 5463.41 -18.1671 -207.905)
(-354.567 -252.134 1.61711 5632.42 -18.0954 1191.61)
(-52.496 -246.351 -3.41834 5821.55 -18.019 2602.25)
(-962.28 -742.724 0.949441 5243.41 -1.21676 -1626.37)
(-618.439 -721.358 2.02092 5391.09 -0.46231 -187.147)
(-284.322 -700.623 -0.146433 5554.18 -0.13882 1209.95)
(11.2059 -683.488 -5.00853 5728.46 -0.0576752 2615.84)
(-811.541 -1220.33 1.0054 5085.47 -1.37272 -1627.29)
(-470.481 -1181.89 1.8724 5241.47 -0.296971 -186.196)
(-140.121 -1147.86 -0.317624 5408.45 0.108441 1211.07)
(154.786 -1124.06 -5.09506 5588.86 0.0120421 2618.64)
(-584.455 -1666.54 0.991015 4858.6 -1.33819 -1626.58)
(-250.758 -1614.13 1.67314 5021.35 -0.0645733 -185.427)
(73.7583 -1567.8 -0.543101 5194.73 0.317557 1212.2)
(364.069 -1535.64 -5.2464 5379.69 0.00372378 2619.96)
(-290.377 -2071.92 0.883876 4564.68 -1.19021 -1626.31)
(34.22 -2006.78 1.40714 4736.54 0.154248 -184.864)
(350.697 -1949.22 -0.811155 4918.01 0.421131 1213.03)
(635.342 -1909.22 -5.3951 5108.66 -0.17086 2621.06)
(63.5815 -2426.48 0.659075 4211.09 -0.973832 -1626.24)
(377.18 -2350.14 1.08274 4393.9 0.331317 -184.496)
(683.906 -2282.67 -1.07947 4585.06 0.399329 1213.66)
(961.729 -2235.74 -5.47818 4782.46 -0.536458 2621.97)
(468.743 -2721.47 0.30734 3806.47 -0.738005 -1626.25)
(769.706 -2635.73 0.720965 4001.78 0.444329 -184.243)
(1065.22 -2559.92 -1.30555 4204.02 0.250035 1214.14)
(1335.19 -2507.16 -5.44197 4409.13 -1.08236 2622.71)
(915.193 -2949.6 -0.154742 3360.7 -0.555021 -1626.26)
(1202.18 -2856.48 0.359186 3569.79 0.464978 -184.045)
(1485.26 -2774.13 -1.44387 3784.25 -0.0222211 1214.51)
(1746.51 -2716.77 -5.24081 3997.87 -1.77963 2623.26)
(1392.01 -3105.23 -0.661983 2884.68 -0.526021 -1626.21)
(1664.06 -3006.89 0.0652502 3108.55 0.361908 -183.842)
(1933.71 -2919.96 -1.44186 3336.1 -0.404411 1214.79)
(2185.54 -2859.4 -4.83912 3558.81 -2.58518 2623.63)
(1888.42 -3184.55 -0.921417 2390.4 -0.745889 -1625.68)
(2143.95 -3083.14 -0.0239224 2629.46 0.140936 -183.603)
(2399.4 -2993.78 -1.24092 2870.69 -0.851799 1214.96)
(2641.4 -2931.55 -4.22232 3102.9 -3.43436 2623.8)
(2390.4 -3184.55 -0.746035 1888.42 -0.921277 -1625.68)
(2629.46 -3083.14 0.140786 2143.95 -0.0237765 -183.603)
(2870.69 -2993.78 -0.851951 2399.4 -1.24077 1214.96)
(3102.9 -2931.55 -3.43452 2641.4 -4.22216 2623.8)
(2884.68 -3105.23 -0.526165 1392.01 -0.661854 -1626.21)
(3108.55 -3006.89 0.36176 1664.06 0.0653856 -183.841)
(3336.1 -2919.96 -0.40456 1933.71 -1.44172 1214.79)
(3558.81 -2859.39 -2.58533 2185.54 -4.83898 2623.63)
(3360.7 -2949.6 -0.555157 915.194 -0.154628 -1626.26)
(3569.79 -2856.48 0.464838 1202.18 0.359306 -184.044)
(3784.25 -2774.13 -0.0223618 1485.26 -1.44375 1214.51)
(3997.87 -2716.77 -1.77977 1746.51 -5.24068 2623.26)
(3806.47 -2721.47 -0.738133 468.744 0.307439 -1626.25)
(4001.78 -2635.73 0.444201 769.706 0.721068 -184.242)
(4204.02 -2559.92 0.249909 1065.22 -1.30544 1214.14)
(4409.13 -2507.16 -1.08249 1335.19 -5.44185 2622.71)
(4211.09 -2426.48 -0.973949 63.5832 0.659158 -1626.24)
(4393.9 -2350.14 0.331205 377.18 1.08283 -184.495)
(4585.06 -2282.67 0.399223 683.906 -1.07938 1213.66)
(4782.46 -2235.74 -0.53656 961.729 -5.47808 2621.97)
(4564.68 -2071.92 -1.19031 -290.376 0.883952 -1626.31)
(4736.54 -2006.78 0.154156 34.2208 1.40722 -184.863)
(4918.01 -1949.22 0.421051 350.697 -0.811079 1213.03)
(5108.66 -1909.22 -0.170928 635.342 -5.39502 2621.06)
(4858.6 -1666.54 -1.33829 -584.453 0.991091 -1626.58)
(5021.34 -1614.13 -0.064646 -250.757 1.67322 -185.426)
(5194.72 -1567.8 0.317504 73.7584 -0.543028 1212.2)
(5379.68 -1535.64 0.00368943 364.069 -5.24633 2619.95)
(5085.47 -1220.33 -1.3728 -811.539 1.00548 -1627.28)
(5241.47 -1181.89 -0.297025 -470.48 1.87249 -186.195)
(5408.44 -1147.86 0.10841 -140.121 -0.317544 1211.07)
(5588.85 -1124.06 0.0120336 154.786 -5.09499 2618.64)
(5243.41 -742.724 -1.21682 -962.278 0.949511 -1626.37)
(5391.08 -721.358 -0.462344 -618.439 2.02101 -187.146)
(5554.18 -700.623 -0.138835 -284.322 -0.146345 1209.95)
(5728.46 -683.487 -0.0576711 11.2059 -5.00845 2615.83)
(5304.71 -262.416 -18.459 -1043.93 2.349 -1652.17)
(5463.41 -257.905 -18.1671 -693.968 3.70934 -207.904)
(5632.41 -252.134 -18.0954 -354.566 1.6172 1191.61)
(5821.55 -246.351 -18.019 -52.496 -3.41827 2602.25)
(-987.77 -267.283 -83.3885 5478.44 -0.356803 -1529.12)
(-656.564 -262.101 -136.231 5601.85 -3.06042 -164.466)
(-340.233 -255.843 -132.199 5737.07 -2.72516 1161.68)
(-56.9983 -249.329 -74.0428 5892.72 0.514615 2492.5)
(-904.306 -756.631 -83.6891 5416.65 -11.0476 -1504.13)
(-579.736 -733.461 -135.621 5528.73 -16.426 -144.652)
(-268.861 -711.433 -130.852 5657.97 -15.2434 1178.92)
(7.89145 -692.428 -72.1776 5798.87 -7.75705 2504.76)
(-750.624 -1243.19 -82.5485 5256.11 -18.3037 -1505.15)
(-429.233 -1201.65 -134.078 5376.72 -27.4242 -143.918)
(-122.398 -1165.46 -129.472 5509.9 -25.5311 1179.72)
(153.387 -1138.61 -71.5701 5657.15 -13.0472 2507.21)
(-519.212 -1697.81 -80.9514 5025.33 -25.1395 -1504.44)
(-205.773 -1641.04 -131.791 5153 -38.0879 -143.262)
(94.8004 -1591.73 -127.393 5292.78 -35.6094 1180.64)
(365.389 -1555.38 -70.5683 5444.97 -18.3366 2508.22)
(-219.535 -2110.88 -78.9609 4726.24 -31.569 -1504.14)
(84.0127 -2040.17 -128.772 4863.56 -48.4215 -142.767)
(375.99 -1978.83 -124.578 5011.74 -45.4961 1181.29)
(640.137 -1933.61 -69.1518 5170.14 -23.6485 2509.06)
(141.165 -2472.2 -76.6249 4366.35 -37.6151 -1504.03)
(432.717 -2389.2 -125.026 4515.35 -58.4176 -142.459)
(714.256 -2317.2 -121.006 4673.66 -55.1791 1181.76)
(970.653 -2264.11 -67.2768 4839.51 -28.9883 2509.71)
(554.039 -2772.85 -73.977 3954.41 -43.3166 -1504.03)
(831.772 -2679.49 -120.552 4116.86 -68.0606 -142.27)
(1101.29 -2598.52 -116.651 4286.84 -64.6229 1182.1)
(1348.78 -2538.79 -64.894 4461.25 -34.3322 2510.22)
(1008.97 -3005.39 -71.0241 3500.46 -48.7359 -1504.06)
(1271.39 -2903.87 -115.336 3677.84 -77.3351 -142.139)
(1527.59 -2815.84 -111.484 3860.76 -73.776 1182.34)
(1765.21 -2750.89 -61.9605 4044.67 -39.6307 2510.6)
(1494.81 -3164.03 -67.7216 3015.57 -53.9626 -1504.05)
(1740.86 -3056.75 -109.336 3209.07 -86.2227 -142.002)
(1982.69 -2963.79 -105.475 3405.93 -82.5704 1182.51)
(2209.67 -2895.2 -58.4482 3600.06 -44.8096 2510.83)
(2000.51 -3244.87 -63.7977 2511.95 -59.081 -1503.58)
(2228.61 -3134.26 -102.449 2722.11 -94.6663 -141.813)
(2455.28 -3038.68 -98.5964 2933.59 -90.9028 1182.63)
(2671.18 -2968.22 -54.36 3138.43 -49.7666 2510.94)
(2511.95 -3244.87 -59.0815 2000.51 -63.7973 -1503.58)
(2722.11 -3134.26 -94.6667 2228.61 -102.449 -141.813)
(2933.59 -3038.68 -90.9031 2455.28 -98.5962 1182.63)
(3138.43 -2968.22 -49.7667 2671.18 -54.3599 2510.94)
(3015.57 -3164.03 -53.9631 1494.81 -67.7212 -1504.05)
(3209.07 -3056.75 -86.2231 1740.86 -109.336 -142.002)
(3405.93 -2963.78 -82.5707 1982.69 -105.474 1182.51)
(3600.06 -2895.2 -44.8097 2209.67 -58.4481 2510.83)
(3500.46 -3005.39 -48.7364 1008.97 -71.0238 -1504.06)
(3677.84 -2903.87 -77.3355 1271.39 -115.336 -142.139)
(3860.76 -2815.84 -73.7763 1527.59 -111.484 1182.34)
(4044.67 -2750.89 -39.6308 1765.21 -61.9603 2510.6)
(3954.41 -2772.85 -43.3171 554.041 -73.9767 -1504.03)
(4116.86 -2679.49 -68.061 831.773 -120.552 -142.269)
(4286.84 -2598.51 -64.6231 1101.29 -116.651 1182.1)
(4461.24 -2538.79 -34.3323 1348.78 -64.8939 2510.22)
(4366.35 -2472.2 -37.6155 141.167 -76.6246 -1504.03)
(4515.35 -2389.2 -58.4179 432.718 -125.025 -142.458)
(4673.66 -2317.2 -55.1794 714.256 -121.006 1181.76)
(4839.51 -2264.11 -28.9884 970.653 -67.2767 2509.71)
(4726.24 -2110.88 -31.5694 -219.533 -78.9607 -1504.14)
(4863.56 -2040.17 -48.4218 84.0136 -128.772 -142.765)
(5011.74 -1978.83 -45.4963 375.99 -124.578 1181.3)
(5170.14 -1933.6 -23.6486 640.137 -69.1518 2509.06)
(5025.33 -1697.81 -25.1398 -519.211 -80.9512 -1504.44)
(5153 -1641.04 -38.0881 -205.772 -131.791 -143.26)
(5292.78 -1591.73 -35.6095 94.8008 -127.393 1180.64)
(5444.96 -1555.38 -18.3367 365.389 -70.5682 2508.22)
(5256.11 -1243.19 -18.304 -750.622 -82.5484 -1505.15)
(5376.72 -1201.65 -27.4243 -429.232 -134.078 -143.917)
(5509.9 -1165.46 -25.5312 -122.397 -129.472 1179.72)
(5657.15 -1138.61 -13.0472 153.387 -71.57 2507.21)
(5416.65 -756.631 -11.0477 -904.305 -83.6891 -1504.13)
(5528.73 -733.461 -16.4262 -579.735 -135.621 -144.651)
(5657.97 -711.433 -15.2434 -268.861 -130.852 1178.92)
(5798.87 -692.428 -7.75706 7.89153 -72.1776 2504.76)
(5478.44 -267.283 -0.35688 -987.769 -83.3885 -1529.12)
(5601.85 -262.101 -3.06047 -656.563 -136.23 -164.465)
(5737.07 -255.843 -2.7252 -340.233 -132.199 1161.68)
(5892.72 -249.329 0.514595 -56.9983 -74.0427 2492.5)
(-916.574 -257.915 -154.453 5313.37 16.1718 -1215.7)