/*--------------------------------*- C++ -*----------------------------------*\
| =========                 |                                                 |
| \\      /  F ield         | foam-extend: Open Source CFD                    |
|  \\    /   O peration     | Version:     3.1                                |
|   \\  /    A nd           | Web:         http://www.extend-project.de       |
|    \\/     M anipulation  |                                                 |
\*---------------------------------------------------------------------------*/
FoamFile
{
    version     2.0;
    format      ascii;
    class       volScalarField;
    location    "0.0014";
    object      sigmaEq;
}
// * * * * * * * * * * * * * * * * * * * * * * * * * * * * * * * * * * * * * //

dimensions      [1 -1 -2 0 0 0 0];

internalField   nonuniform List<scalar> 
6400
(
5331.73
3963.54
3545.75
4282.28
5297.98
3946.68
3545.06
4309.3
5295.63
3944.72
3544.18
4309.68
5294.56
3944.04
3543.78
4309.42
5294.15
3943.76
3543.51
4308.98
5294.05
3943.62
3543.22
4308.39
5294.1
3943.48
3542.84
4307.7
5294.21
3943.28
3542.36
4306.97
5294.31
3942.99
3541.84
4306.29
5294.3
3942.74
3541.46
4305.86
5294.3
3942.74
3541.46
4305.86
5294.31
3942.99
3541.84
4306.29
5294.21
3943.28
3542.35
4306.97
5294.1
3943.48
3542.83
4307.7
5294.05
3943.62
3543.22
4308.39
5294.14
3943.75
3543.51
4308.98
5294.56
3944.03
3543.78
4309.42
5295.62
3944.72
3544.18
4309.68
5297.98
3946.68
3545.05
4309.3
5331.73
3963.54
3545.75
4282.28
3552.99
3535.14
3169.03
2373.12
3555.93
3531
3158.02
2361.41
3553.55
3529.4
3157.06
2361.65
3552.4
3528.75
3156.63
2361.44
3551.77
3528.29
3156.24
2361.01
3551.41
3527.94
3155.85
2360.46
3551.25
3527.64
3155.45
2359.86
3551.23
3527.36
3155.04
2359.26
3551.33
3527.06
3154.65
2358.74
3551.72
3526.86
3154.38
2358.42
3551.72
3526.86
3154.38
2358.42
3551.33
3527.06
3154.65
2358.74
3551.23
3527.36
3155.04
2359.26
3551.25
3527.64
3155.45
2359.85
3551.41
3527.94
3155.84
2360.46
3551.77
3528.29
3156.24
2361.01
3552.39
3528.75
3156.63
2361.44
3553.55
3529.39
3157.06
2361.65
3555.93
3531
3158.02
2361.41
3552.99
3535.14
3169.03
2373.12
3841.31
3705.63
3349.09
2774.2
3849.21
3701.56
3336.76
2756.68
3848.04
3701.3
3336.14
2757.14
3847.48
3701.21
3336.16
2757.36
3847.07
3701.03
3336.12
2757.46
3846.76
3700.82
3335.99
2757.45
3846.61
3700.64
3335.83
2757.34
3846.65
3700.52
3335.65
2757.13
3846.97
3700.47
3335.47
2756.87
3847.88
3700.53
3335.35
2756.66
3847.88
3700.53
3335.35
2756.66
3846.97
3700.47
3335.47
2756.87
3846.65
3700.52
3335.65
2757.13
3846.6
3700.64
3335.83
2757.33
3846.76
3700.82
3335.99
2757.45
3847.07
3701.03
3336.12
2757.46
3847.48
3701.21
3336.16
2757.35
3848.03
3701.29
3336.14
2757.14
3849.21
3701.56
3336.76
2756.68
3841.31
3705.63
3349.09
2774.2
5083.15
4601.28
4172.63
3842.83
5084.63
4594.63
4162.12
3827.86
5083.56
4594.65
4161.82
3829.27
5083.21
4594.56
4161.85
3829.79
5083.05
4594.52
4161.95
3830.12
5083.06
4594.54
4162.03
3830.34
5083.23
4594.63
4162.08
3830.45
5083.6
4594.79
4162.11
3830.43
5084.21
4595.02
4162.11
3830.31
5085.36
4595.28
4162.11
3830.17
5085.36
4595.28
4162.11
3830.17
5084.21
4595.02
4162.11
3830.31
5083.6
4594.79
4162.11
3830.43
5083.23
4594.63
4162.08
3830.45
5083.06
4594.54
4162.02
3830.34
5083.05
4594.52
4161.95
3830.12
5083.21
4594.56
4161.85
3829.79
5083.56
4594.65
4161.82
3829.27
5084.63
4594.63
4162.12
3827.86
5083.15
4601.28
4172.62
3842.83
6120.21
5443.04
4937.85
4665.38
6118.85
5435.37
4928.16
4650.54
6117.87
5435.54
4927.98
4652.46
6117.59
5435.3
4927.82
4653.01
6117.6
5435.27
4927.86
4653.31
6117.9
5435.44
4927.98
4653.53
6118.42
5435.73
4928.13
4653.66
6119.12
5436.12
4928.28
4653.68
6120
5436.56
4928.39
4653.6
6121.29
5436.95
4928.45
4653.49
6121.28
5436.95
4928.45
4653.49
6120
5436.55
4928.39
4653.6
6119.12
5436.12
4928.27
4653.68
6118.42
5435.73
4928.13
4653.65
6117.9
5435.43
4927.98
4653.53
6117.6
5435.27
4927.86
4653.31
6117.58
5435.3
4927.82
4653.01
6117.87
5435.53
4927.98
4652.45
6118.85
5435.37
4928.16
4650.54
6120.21
5443.03
4937.85
4665.38
6689.12
5946.2
5400.87
5112.83
6687.87
5938.82
5391.59
5097.19
6687.17
5939.19
5391.47
5099.17
6687.1
5938.95
5391.15
5099.55
6687.37
5938.98
5391.09
5099.65
6688
5939.28
5391.17
5099.68
6688.88
5939.76
5391.33
5099.67
6689.92
5940.34
5391.52
5099.61
6691.05
5940.94
5391.69
5099.48
6692.45
5941.42
5391.79
5099.36
6692.45
5941.42
5391.79
5099.36
6691.05
5940.93
5391.68
5099.48
6689.92
5940.34
5391.52
5099.61
6688.88
5939.76
5391.33
5099.67
6688
5939.28
5391.17
5099.68
6687.37
5938.98
5391.08
5099.64
6687.1
5938.95
5391.15
5099.55
6687.17
5939.19
5391.46
5099.17
6687.87
5938.82
5391.59
5097.18
6689.12
5946.2
5400.87
5112.83
6770.57
6049.13
5505.5
5189.73
6770.86
6042.75
5496.65
5173.46
6770.56
6043.34
5496.5
5175.15
6770.85
6043.25
5496.11
5175.2
6771.51
6043.44
5495.96
5174.95
6772.54
6043.91
5495.98
5174.65
6773.82
6044.57
5496.09
5174.35
6775.21
6045.31
5496.26
5174.06
6776.59
6046.04
5496.42
5173.78
6778.1
6046.6
5496.53
5173.6
6778.1
6046.6
5496.53
5173.6
6776.59
6046.04
5496.42
5173.78
6775.21
6045.31
5496.26
5174.06
6773.82
6044.57
5496.09
5174.35
6772.54
6043.91
5495.97
5174.65
6771.51
6043.43
5495.96
5174.95
6770.85
6043.25
5496.1
5175.2
6770.56
6043.34
5496.5
5175.15
6770.86
6042.75
5496.65
5173.45
6770.57
6049.13
5505.5
5189.72
6406.02
5770.03
5266.54
4930.66
6408.55
5765.08
5258.28
4914.33
6408.66
5765.86
5258.06
4915.45
6409.41
5766.02
5257.63
4915.05
6410.51
5766.41
5257.41
4914.35
6411.97
5767.07
5257.34
4913.59
6413.64
5767.9
5257.36
4912.85
6415.37
5768.78
5257.45
4912.19
6417
5769.62
5257.56
4911.65
6418.58
5770.23
5257.64
4911.34
6418.58
5770.22
5257.64
4911.34
6417
5769.61
5257.56
4911.65
6415.37
5768.78
5257.44
4912.18
6413.64
5767.9
5257.36
4912.85
6411.97
5767.07
5257.34
4913.58
6410.51
5766.41
5257.41
4914.34
6409.41
5766.02
5257.63
4915.05
6408.66
5765.86
5258.06
4915.45
6408.54
5765.08
5258.28
4914.33
6406.02
5770.03
5266.54
4930.66
5669.78
5168.57
4737.58
4393.69
5675.01
5165.43
4730.22
4378.01
5675.51
5166.33
4729.87
4378.35
5676.68
5166.74
4729.44
4377.46
5678.18
5167.33
4729.16
4376.27
5679.99
5168.13
4728.96
4375
5681.97
5169.06
4728.85
4373.76
5683.95
5170.02
4728.81
4372.65
5685.76
5170.89
4728.82
4371.78
5687.37
5171.51
4728.85
4371.28
5687.37
5171.51
4728.85
4371.28
5685.76
5170.89
4728.82
4371.78
5683.95
5170.02
4728.81
4372.65
5681.96
5169.06
4728.85
4373.76
5679.98
5168.13
4728.96
4375
5678.18
5167.33
4729.15
4376.27
5676.68
5166.74
4729.44
4377.46
5675.51
5166.32
4729.87
4378.35
5675.01
5165.43
4730.21
4378
5669.77
5168.57
4737.57
4393.69
4684.81
4337.88
3999.95
3670.94
4692.77
4336.73
3993.96
3657.05
4693.57
4337.64
3993.48
3656.63
4695.04
4338.22
3993.05
3655.38
4696.79
4338.88
3992.66
3653.85
4698.79
4339.67
3992.31
3652.21
4700.91
4340.55
3992.01
3650.58
4702.99
4341.43
3991.78
3649.1
4704.84
4342.22
3991.63
3647.93
4706.39
4342.77
3991.57
3647.27
4706.39
4342.77
3991.57
3647.27
4704.84
4342.22
3991.63
3647.93
4702.98
4341.43
3991.78
3649.1
4700.9
4340.55
3992.01
3650.58
4698.78
4339.67
3992.31
3652.21
4696.79
4338.88
3992.66
3653.85
4695.04
4338.22
3993.04
3655.37
4693.57
4337.64
3993.48
3656.63
4692.76
4336.73
3993.96
3657.05
4684.81
4337.87
3999.95
3670.93
3643.74
3398.8
3150.93
2891.5
3652.86
3399.2
3146.95
2881.7
3653.8
3399.95
3146.33
2880.79
3655.38
3400.49
3145.84
2879.53
3657.19
3400.98
3145.28
2878.05
3659.17
3401.52
3144.69
2876.42
3661.23
3402.1
3144.12
2874.77
3663.2
3402.68
3143.63
2873.24
3664.93
3403.2
3143.26
2872
3666.26
3403.57
3143.06
2871.29
3666.26
3403.57
3143.06
2871.29
3664.92
3403.2
3143.26
2872
3663.2
3402.68
3143.63
2873.24
3661.22
3402.1
3144.12
2874.77
3659.17
3401.52
3144.69
2876.42
3657.19
3400.98
3145.28
2878.05
3655.38
3400.49
3145.84
2879.53
3653.8
3399.95
3146.33
2880.79
3652.86
3399.19
3146.95
2881.7
3643.73
3398.8
3150.93
2891.5
2775.76
2491.47
2296.94
2189.31
2782.22
2492.03
2295.55
2186.54
2783
2492.43
2294.84
2185.65
2784.4
2492.75
2294.27
2184.78
2786.03
2492.9
2293.53
2183.75
2787.77
2493.02
2292.7
2182.59
2789.54
2493.14
2291.85
2181.35
2791.19
2493.27
2291.07
2180.15
2792.57
2493.39
2290.46
2179.15
2793.57
2493.49
2290.11
2178.55
2793.57
2493.49
2290.11
2178.55
2792.57
2493.39
2290.46
2179.15
2791.19
2493.27
2291.07
2180.15
2789.53
2493.14
2291.85
2181.35
2787.77
2493.02
2292.7
2182.59
2786.03
2492.9
2293.53
2183.75
2784.4
2492.74
2294.27
2184.78
2782.99
2492.43
2294.84
2185.65
2782.22
2492.03
2295.55
2186.54
2775.76
2491.47
2296.94
2189.31
2207.67
1767.36
1564.59
1635.01
2208.4
1766.47
1565.67
1639.64
2208.73
1766.51
1565.01
1639.05
2209.67
1766.69
1564.53
1638.63
2210.84
1766.7
1563.87
1638.11
2212.09
1766.64
1563.09
1637.45
2213.34
1766.56
1562.26
1636.7
2214.49
1766.47
1561.49
1635.93
2215.41
1766.38
1560.85
1635.26
2216.02
1766.33
1560.49
1634.85
2216.02
1766.33
1560.49
1634.85
2215.4
1766.38
1560.85
1635.26
2214.49
1766.47
1561.49
1635.93
2213.34
1766.56
1562.26
1636.7
2212.09
1766.64
1563.09
1637.45
2210.83
1766.7
1563.87
1638.11
2209.66
1766.69
1564.53
1638.63
2208.72
1766.51
1565
1639.05
2208.39
1766.46
1565.67
1639.64
2207.67
1767.36
1564.58
1635.01
1844.43
1335.16
1088.46
1205.94
1841.61
1332.81
1090.2
1213.17
1841.55
1332.77
1089.77
1212.65
1841.95
1333.11
1089.71
1212.32
1842.55
1333.4
1089.59
1211.92
1843.21
1333.66
1089.39
1211.4
1843.89
1333.92
1089.16
1210.81
1844.52
1334.13
1088.91
1210.2
1845.02
1334.27
1088.69
1209.68
1845.36
1334.35
1088.55
1209.36
1845.36
1334.35
1088.55
1209.36
1845.02
1334.27
1088.69
1209.68
1844.51
1334.13
1088.91
1210.2
1843.89
1333.91
1089.16
1210.81
1843.21
1333.66
1089.39
1211.4
1842.55
1333.39
1089.58
1211.92
1841.95
1333.11
1089.71
1212.32
1841.54
1332.77
1089.77
1212.65
1841.61
1332.81
1090.19
1213.17
1844.43
1335.16
1088.46
1205.94
1527.08
1136.67
890.069
868.998
1525.12
1134.57
890.035
872.625
1524.94
1134.64
889.809
871.892
1525.01
1135.13
890.1
871.424
1525.19
1135.65
890.455
870.941
1525.39
1136.2
890.826
870.394
1525.62
1136.75
891.187
869.812
1525.87
1137.26
891.503
869.25
1526.11
1137.66
891.733
868.784
1526.31
1137.89
891.852
868.511
1526.31
1137.89
891.852
868.511
1526.1
1137.66
891.732
868.784
1525.86
1137.26
891.502
869.25
1525.61
1136.75
891.187
869.812
1525.38
1136.2
890.825
870.394
1525.18
1135.65
890.454
870.942
1525.01
1135.13
890.099
871.425
1524.94
1134.64
889.808
871.893
1525.12
1134.57
890.034
872.625
1527.07
1136.67
890.067
868.999
1228.5
1009.16
816.697
668.486
1229.15
1008.07
815.117
666.811
1229.04
1008.17
814.919
666.133
1229.02
1008.56
815.199
665.837
1229.01
1008.96
815.574
665.653
1229
1009.37
815.984
665.494
1229
1009.79
816.398
665.338
1229.05
1010.18
816.774
665.186
1229.16
1010.51
817.062
665.053
1229.31
1010.71
817.219
664.97
1229.31
1010.71
817.219
664.97
1229.16
1010.51
817.061
665.053
1229.05
1010.18
816.773
665.187
1229
1009.78
816.398
665.339
1228.99
1009.36
815.984
665.495
1229.01
1008.95
815.573
665.654
1229.01
1008.56
815.198
665.838
1229.03
1008.17
814.918
666.134
1229.14
1008.07
815.115
666.812
1228.5
1009.16
816.696
668.487
1003.37
888.284
760.973
632.42
1005.51
887.815
759.325
629.431
1005.49
887.896
759.17
629.262
1005.5
888.117
759.367
629.43
1005.49
888.315
759.641
629.762
1005.45
888.505
759.941
630.171
1005.42
888.695
760.242
630.591
1005.42
888.882
760.515
630.965
1005.49
889.048
760.726
631.24
1005.65
889.162
760.842
631.384
1005.65
889.161
760.842
631.384
1005.49
889.047
760.725
631.241
1005.42
888.88
760.514
630.966
1005.42
888.693
760.241
630.592
1005.45
888.502
759.94
630.172
1005.49
888.311
759.639
629.762
1005.49
888.113
759.366
629.431
1005.49
887.892
759.169
629.263
1005.5
887.811
759.323
629.432
1003.37
888.279
760.972
632.421
862.685
788.281
710.699
648.506
864.918
788.076
709.618
646.471
864.944
788.172
709.551
646.602
864.975
788.322
709.717
646.917
864.999
788.447
709.947
647.344
865
788.565
710.196
647.829
865
788.68
710.443
648.314
865.026
788.796
710.665
648.741
865.107
788.904
710.834
649.054
865.271
788.986
710.927
649.218
865.27
788.986
710.927
649.218
865.105
788.903
710.833
649.055
865.023
788.794
710.664
648.741
864.996
788.678
710.442
648.315
864.995
788.562
710.195
647.83
864.994
788.444
709.945
647.345
864.969
788.318
709.716
646.918
864.938
788.168
709.549
646.603
864.911
788.071
709.616
646.471
862.677
788.276
710.697
648.507
765.699
709.239
656.849
621.675
767.669
709.187
656.121
620.045
767.729
709.305
656.08
620.14
767.768
709.426
656.187
620.315
767.809
709.528
656.34
620.532
767.84
709.627
656.505
620.769
767.876
709.725
656.664
620.995
767.931
709.821
656.803
621.183
768.024
709.909
656.905
621.31
768.177
709.973
656.959
621.37
768.176
709.973
656.959
621.37
768.022
709.908
656.905
621.31
767.928
709.82
656.802
621.183
767.872
709.723
656.663
620.996
767.836
709.624
656.503
620.769
767.804
709.524
656.339
620.532
767.761
709.422
656.185
620.315
767.722
709.301
656.078
620.14
767.662
709.182
656.119
620.046
765.691
709.234
656.847
621.675
687.556
635.316
587.34
547.153
689.136
635.263
586.639
545.41
689.233
635.36
586.547
545.347
689.291
635.436
586.555
545.333
689.357
635.489
586.586
545.318
689.422
635.537
586.615
545.297
689.493
635.582
586.636
545.259
689.574
635.625
586.648
545.206
689.673
635.662
586.647
545.146
689.8
635.69
586.642
545.102
689.8
635.69
586.642
545.102
689.672
635.661
586.647
545.146
689.571
635.623
586.647
545.207
689.489
635.579
586.635
545.26
689.417
635.533
586.613
545.297
689.352
635.485
586.584
545.318
689.284
635.431
586.553
545.333
689.226
635.355
586.545
545.347
689.128
635.257
586.637
545.41
687.547
635.31
587.337
547.153
626.179
564.871
509.981
457.65
627.142
564.621
509.171
455.797
627.252
564.667
509.018
455.61
627.322
564.702
508.95
455.488
627.409
564.712
508.892
455.354
627.499
564.714
508.826
455.203
627.593
564.712
508.751
455.037
627.688
564.707
508.674
454.869
627.784
564.701
508.604
454.72
627.881
564.699
508.56
454.628
627.881
564.699
508.56
454.628
627.782
564.699
508.604
454.72
627.685
564.705
508.673
454.869
627.589
564.709
508.75
455.037
627.494
564.711
508.824
455.203
627.403
564.708
508.89
455.353
627.315
564.697
508.947
455.487
627.245
564.662
509.015
455.609
627.133
564.615
509.167
455.797
626.171
564.864
509.978
457.65
576.149
505.314
442.97
382.927
576.508
504.822
442.059
381.131
576.602
504.826
441.885
380.904
576.655
504.842
441.802
380.773
576.73
504.841
441.732
380.638
576.81
504.834
441.656
380.491
576.894
504.825
441.574
380.332
576.976
504.812
441.491
380.173
577.053
504.799
441.418
380.035
577.123
504.792
441.373
379.951
577.123
504.791
441.373
379.951
577.051
504.798
441.417
380.035
576.973
504.81
441.49
380.173
576.89
504.822
441.572
380.332
576.805
504.831
441.654
380.49
576.724
504.836
441.73
380.637
576.648
504.836
441.799
380.772
576.594
504.82
441.881
380.903
576.5
504.816
442.055
381.13
576.14
505.308
442.967
382.926
527.552
457.608
395.055
335.049
527.575
456.999
394.138
333.449
527.644
456.984
393.985
333.252
527.663
456.996
393.928
333.17
527.702
456.999
393.891
333.098
527.745
457.002
393.854
333.023
527.793
457.003
393.814
332.941
527.843
457.003
393.772
332.856
527.892
457.001
393.733
332.778
527.938
456.999
393.708
332.73
527.937
456.999
393.708
332.73
527.89
457
393.733
332.778
527.84
457.001
393.771
332.855
527.789
457
393.812
332.94
527.74
456.998
393.852
333.022
527.696
456.995
393.888
333.097
527.656
456.991
393.925
333.169
527.637
456.978
393.981
333.25
527.566
456.993
394.134
333.447
527.543
457.602
395.051
335.047
476.472
416.748
361.828
309.407
476.415
416.174
361.018
308.1
476.471
416.159
360.905
307.964
476.463
416.172
360.879
307.94
476.467
416.177
360.875
307.933
476.473
416.184
360.875
307.93
476.485
416.19
360.873
307.922
476.502
416.197
360.868
307.907
476.526
416.201
360.859
307.888
476.554
416.203
360.852
307.872
476.554
416.203
360.852
307.872
476.525
416.2
360.859
307.887
476.5
416.195
360.866
307.907
476.481
416.188
360.871
307.921
476.469
416.18
360.872
307.929
476.461
416.173
360.872
307.931
476.456
416.167
360.876
307.938
476.464
416.154
360.901
307.961
476.407
416.168
361.013
308.097
476.464
416.742
361.823
309.404
425.518
378.937
335.2
294.138
425.499
378.478
334.559
293.151
425.554
378.472
334.484
293.068
425.533
378.485
334.479
293.083
425.519
378.49
334.492
293.113
425.505
378.494
334.509
293.147
425.496
378.499
334.524
293.178
425.494
378.504
334.534
293.198
425.502
378.508
334.539
293.208
425.519
378.509
334.539
293.209
425.518
378.509
334.539
293.209
425.5
378.506
334.538
293.207
425.491
378.502
334.533
293.197
425.492
378.496
334.522
293.176
425.501
378.491
334.506
293.145
425.514
378.486
334.489
293.11
425.528
378.481
334.475
293.08
425.547
378.467
334.48
293.065
425.492
378.473
334.555
293.148
425.511
378.931
335.195
294.135
378.422
343.255
310.04
279.604
378.451
342.916
309.564
278.885
378.509
342.919
309.515
278.834
378.488
342.932
309.52
278.863
378.47
342.936
309.537
278.901
378.451
342.938
309.556
278.941
378.436
342.939
309.572
278.977
378.427
342.94
309.584
279.002
378.428
342.941
309.589
279.016
378.439
342.94
309.59
279.021
378.438
342.94
309.589
279.021
378.427
342.94
309.588
279.016
378.425
342.939
309.582
279.001
378.433
342.937
309.57
278.975
378.447
342.935
309.554
278.94
378.466
342.932
309.534
278.899
378.483
342.928
309.516
278.86
378.503
342.914
309.511
278.831
378.444
342.91
309.56
278.882
378.414
343.25
310.035
279.601
336.788
309.781
284.474
261.711
336.834
309.53
284.121
261.175
336.894
309.539
284.087
261.138
336.878
309.552
284.093
261.166
336.863
309.555
284.109
261.198
336.847
309.555
284.123
261.228
336.833
309.553
284.133
261.253
336.825
309.551
284.139
261.269
336.824
309.548
284.141
261.276
336.831
309.545
284.139
261.277
336.83
309.545
284.139
261.277
336.823
309.547
284.14
261.275
336.823
309.55
284.138
261.268
336.831
309.551
284.132
261.252
336.844
309.552
284.121
261.227
336.859
309.551
284.106
261.196
336.873
309.548
284.09
261.164
336.888
309.534
284.084
261.136
336.828
309.525
284.118
261.172
336.781
309.776
284.47
261.708
300.137
278.447
258.419
240.489
300.171
278.249
258.145
240.07
300.228
278.258
258.118
240.037
300.217
278.27
258.121
240.058
300.206
278.272
258.132
240.08
300.194
278.271
258.141
240.098
300.184
278.267
258.145
240.11
300.176
278.263
258.145
240.115
300.175
278.258
258.142
240.114
300.179
278.253
258.138
240.111
300.179
278.253
258.138
240.111
300.174
278.257
258.141
240.113
300.175
278.262
258.144
240.114
300.181
278.266
258.143
240.109
300.191
278.268
258.139
240.096
300.202
278.269
258.13
240.078
300.212
278.266
258.119
240.056
300.223
278.254
258.114
240.034
300.165
278.245
258.141
240.067
300.131
278.442
258.415
240.487
267.187
249.026
232.489
217.619
267.196
248.858
232.264
217.275
267.249
248.866
232.24
217.244
267.239
248.875
232.242
217.259
267.231
248.876
232.248
217.273
267.221
248.874
232.252
217.283
267.213
248.869
232.252
217.287
267.206
248.863
232.249
217.285
267.204
248.857
232.243
217.279
267.206
248.852
232.238
217.274
267.205
248.852
232.237
217.274
267.203
248.856
232.242
217.279
267.205
248.862
232.248
217.284
267.211
248.868
232.251
217.286
267.219
248.872
232.251
217.281
267.227
248.874
232.246
217.271
267.235
248.872
232.239
217.257
267.244
248.863
232.237
217.241
267.191
248.855
232.261
217.273
267.182
249.022
232.486
217.617
236.851
221.351
207.371
194.742
236.837
221.203
207.181
194.457
236.883
221.209
207.159
194.427
236.874
221.215
207.159
194.439
236.866
221.215
207.163
194.448
236.857
221.212
207.165
194.454
236.849
221.207
207.163
194.455
236.843
221.2
207.158
194.451
236.839
221.193
207.151
194.444
236.839
221.188
207.146
194.439
236.839
221.188
207.146
194.438
236.839
221.193
207.151
194.444
236.842
221.2
207.157
194.45
236.848
221.206
207.162
194.454
236.855
221.21
207.164
194.453
236.864
221.213
207.162
194.447
236.871
221.213
207.157
194.438
236.88
221.206
207.157
194.425
236.833
221.2
207.178
194.455
236.846
221.348
207.368
194.741
208.585
195.385
183.546
172.855
208.558
195.256
183.386
172.62
208.597
195.259
183.368
172.593
208.588
195.264
183.367
172.603
208.58
195.262
183.37
172.611
208.571
195.259
183.37
172.615
208.562
195.253
183.368
172.615
208.555
195.247
183.362
172.611
208.551
195.24
183.356
172.605
208.549
195.235
183.351
172.6
208.549
195.235
183.351
172.6
208.55
195.24
183.356
172.605
208.554
195.246
183.362
172.611
208.561
195.253
183.367
172.615
208.569
195.258
183.369
172.615
208.577
195.261
183.369
172.61
208.585
195.262
183.365
172.602
208.594
195.257
183.366
172.592
208.554
195.253
183.384
172.619
208.581
195.382
183.545
172.853
182.298
171.196
161.278
152.368
182.265
171.084
161.145
152.179
182.299
171.087
161.129
152.156
182.289
171.09
161.128
152.165
182.281
171.088
161.13
152.171
182.272
171.084
161.131
152.175
182.263
171.079
161.128
152.176
182.255
171.072
161.124
152.172
182.25
171.066
161.118
152.168
182.248
171.061
161.114
152.164
182.248
171.061
161.114
152.164
182.25
171.066
161.118
152.168
182.255
171.072
161.123
152.173
182.262
171.078
161.128
152.176
182.271
171.084
161.13
152.175
182.279
171.087
161.13
152.171
182.287
171.088
161.128
152.164
182.296
171.085
161.128
152.155
182.262
171.082
161.144
152.178
182.294
171.194
161.277
152.368
158.109
148.89
140.69
133.388
158.076
148.796
140.582
133.238
158.106
148.798
140.569
133.218
158.096
148.8
140.568
133.226
158.088
148.798
140.57
133.233
158.079
148.794
140.57
133.236
158.07
148.789
140.567
133.236
158.063
148.783
140.563
133.234
158.057
148.777
140.558
133.23
158.054
148.772
140.555
133.227
158.054
148.772
140.555
133.227
158.057
148.777
140.558
133.23
158.062
148.783
140.563
133.234
158.07
148.789
140.568
133.237
158.078
148.794
140.57
133.236
158.087
148.798
140.57
133.233
158.094
148.799
140.568
133.227
158.103
148.797
140.568
133.219
158.074
148.795
140.581
133.238
158.106
148.888
140.69
133.389
136.152
128.559
121.845
115.928
136.122
128.482
121.758
115.809
136.147
128.483
121.747
115.793
136.138
128.485
121.746
115.8
136.131
128.483
121.748
115.806
136.122
128.479
121.747
115.808
136.114
128.474
121.745
115.809
136.107
128.468
121.741
115.806
136.101
128.462
121.737
115.803
136.098
128.458
121.734
115.801
136.098
128.458
121.734
115.801
136.101
128.462
121.737
115.804
136.106
128.468
121.742
115.807
136.113
128.474
121.745
115.809
136.121
128.479
121.748
115.809
136.129
128.482
121.748
115.806
136.137
128.484
121.747
115.801
136.145
128.482
121.747
115.794
136.119
128.481
121.757
115.81
136.149
128.558
121.845
115.929
116.478
110.244
104.771
99.9986
116.451
110.18
104.701
99.9053
116.473
110.182
104.692
99.892
116.465
110.183
104.692
99.8982
116.458
110.181
104.693
99.9024
116.45
110.177
104.692
99.9045
116.443
110.172
104.69
99.9043
116.436
110.167
104.686
99.9022
116.431
110.162
104.682
99.8993
116.428
110.158
104.679
99.8971
116.428
110.158
104.679
99.8973
116.431
110.162
104.683
99.8997
116.436
110.167
104.687
99.903
116.443
110.172
104.69
99.9053
116.45
110.177
104.693
99.9056
116.457
110.18
104.693
99.9035
116.464
110.182
104.692
99.8993
116.471
110.181
104.693
99.8931
116.449
110.179
104.701
99.9065
116.476
110.243
104.771
99.9998
99.046
93.9251
89.4659
85.6171
99.0223
93.8732
89.4101
85.5436
99.0405
93.8742
89.4033
85.5325
99.0338
93.875
89.4026
85.5377
99.0275
93.8729
89.4032
85.541
99.0206
93.8695
89.4024
85.5425
99.0139
93.8651
89.4001
85.5419
99.0077
93.8602
89.3967
85.5398
99.0028
93.8556
89.3931
85.5371
99.0001
93.8523
89.3906
85.5352
99.0001
93.8524
89.3908
85.5354
99.0028
93.8558
89.3935
85.5376
99.0076
93.8606
89.3973
85.5406
99.0136
93.8654
89.4008
85.543
99.0201
93.8697
89.4031
85.5436
99.0265
93.8729
89.4038
85.5422
99.0324
93.8747
89.4032
85.539
99.0386
93.8736
89.4037
85.5338
99.02
93.8724
89.4105
85.545
99.0435
93.9241
89.4662
85.6185
83.7444
79.5318
75.894
72.7834
83.7235
79.4892
75.8492
72.7253
83.7389
79.49
75.8436
72.716
83.733
79.4905
75.8429
72.7203
83.7274
79.4886
75.8432
72.7228
83.7214
79.4854
75.8423
72.7237
83.7154
79.4814
75.8401
72.723
83.7098
79.4771
75.837
72.7209
83.7055
79.4729
75.8338
72.7184
83.7029
79.47
75.8316
72.7167
83.7029
79.4701
75.8317
72.7169
83.7055
79.4732
75.8342
72.7189
83.7098
79.4774
75.8376
72.7217
83.7151
79.4818
75.8408
72.724
83.7208
79.4856
75.843
72.7249
83.7265
79.4886
75.8439
72.724
83.7316
79.4903
75.8435
72.7216
83.7369
79.4895
75.8441
72.7173
83.7212
79.4884
75.8496
72.7267
83.7419
79.5309
75.8943
72.7848
70.4235
66.9543
63.9824
61.4637
70.4052
66.9193
63.9464
61.4175
70.418
66.92
63.9417
61.4097
70.4129
66.9203
63.9411
61.4132
70.408
66.9184
63.9412
61.4152
70.4027
66.9156
63.9402
61.4157
70.3974
66.9121
63.9381
61.4148
70.3925
66.9082
63.9354
61.4129
70.3886
66.9045
63.9325
61.4107
70.3863
66.902
63.9306
61.4092
70.3863
66.9021
63.9307
61.4094
70.3887
66.9048
63.9329
61.4112
70.3925
66.9085
63.936
61.4137
70.3972
66.9124
63.9388
61.4158
70.4021
66.9158
63.9409
61.4168
70.407
66.9184
63.9418
61.4163
70.4114
66.92
63.9417
61.4144
70.416
66.9194
63.9422
61.4109
70.4028
66.9185
63.9467
61.4187
70.4209
66.9534
63.9827
61.4649
58.9152
56.0582
53.6287
51.5873
58.8993
56.0293
53.5996
51.5505
58.9099
56.0298
53.5958
51.544
58.9055
56.03
53.5952
51.5469
58.9012
56.0283
53.5951
51.5484
58.8966
56.0258
53.5942
51.5487
58.892
56.0227
53.5923
51.5478
58.8878
56.0193
53.5899
51.546
58.8843
56.0161
53.5874
51.5441
58.8822
56.014
53.5858
51.5428
58.8822
56.014
53.5859
51.5429
58.8843
56.0164
53.5878
51.5445
58.8877
56.0196
53.5904
51.5467
58.8917
56.023
53.5929
51.5486
58.896
56.026
53.5948
51.5496
58.9001
56.0282
53.5956
51.5493
58.9039
56.0296
53.5956
51.5478
58.9078
56.0292
53.5961
51.5449
58.8968
56.0285
53.5998
51.5515
58.9125
56.0572
53.6289
51.5883
49.0456
46.6945
44.7088
43.0541
49.0318
46.6707
44.6853
43.0248
49.0406
46.6711
44.6821
43.0194
49.0368
46.6711
44.6816
43.0218
49.0331
46.6696
44.6814
43.0229
49.0291
46.6674
44.6805
43.0231
49.0252
46.6647
44.6789
43.0222
49.0215
46.6618
44.6768
43.0207
49.0185
46.6591
44.6747
43.019
49.0166
46.6573
44.6733
43.0179
49.0166
46.6573
44.6734
43.018
49.0184
46.6593
44.675
43.0193
49.0213
46.6621
44.6772
43.0212
49.0248
46.665
44.6794
43.0228
49.0284
46.6675
44.681
43.0237
49.0319
46.6695
44.6818
43.0236
49.0351
46.6707
44.6818
43.0224
49.0384
46.6704
44.6822
43.02
49.0292
46.6698
44.6852
43.0254
49.0427
46.6934
44.7087
43.0547
40.6408
38.7083
37.0863
35.7456
40.6291
38.6888
37.0673
35.7222
40.6362
38.6891
37.0647
35.7178
40.633
38.6891
37.0643
35.7197
40.6298
38.6877
37.0641
35.7207
40.6264
38.6858
37.0633
35.7207
40.623
38.6835
37.0619
35.7199
40.6198
38.681
37.0601
35.7186
40.6173
38.6787
37.0583
35.7172
40.6157
38.6772
37.0571
35.7162
40.6157
38.6772
37.0572
35.7163
40.6172
38.6789
37.0585
35.7174
40.6197
38.6813
37.0604
35.7189
40.6226
38.6837
37.0622
35.7203
40.6256
38.6858
37.0636
35.7211
40.6285
38.6875
37.0642
35.721
40.6312
38.6885
37.0643
35.72
40.634
38.6882
37.0646
35.718
40.6264
38.6877
37.067
35.7223
40.6378
38.7071
37.086
35.7458
33.5316
31.9451
30.621
29.5349
33.5217
31.9291
30.6057
29.5162
33.5275
31.9293
30.6035
29.5126
33.5247
31.9292
30.6031
29.5142
33.522
31.928
30.603
29.515
33.519
31.9264
30.6023
29.515
33.5162
31.9244
30.601
29.5143
33.5135
31.9223
30.5995
29.5132
33.5113
31.9204
30.598
29.5119
33.5099
31.919
30.597
29.5111
33.5099
31.9191
30.597
29.5112
33.5112
31.9205
30.5981
29.5121
33.5132
31.9225
30.5997
29.5133
33.5157
31.9245
30.6012
29.5144
33.5182
31.9263
30.6023
29.515
33.5206
31.9276
30.6029
29.5149
33.5228
31.9285
30.6029
29.5141
33.5251
31.9282
30.6031
29.5124
33.5189
31.9278
30.6051
29.5159
33.5285
31.9437
30.6204
29.5347
27.556
26.2549
25.1746
24.2947
27.5477
26.2418
25.1622
24.2796
27.5524
26.2419
25.1604
24.2767
27.55
26.2418
25.1601
24.2781
27.5477
26.2408
25.1599
24.2787
27.5452
26.2394
25.1593
24.2786
27.5427
26.2377
25.1583
24.2781
27.5405
26.236
25.157
24.2771
27.5386
26.2343
25.1557
24.2761
27.5374
26.2332
25.1548
24.2754
27.5374
26.2333
25.1549
24.2754
27.5385
26.2344
25.1558
24.2761
27.5402
26.2361
25.1571
24.2771
27.5422
26.2377
25.1583
24.278
27.5443
26.2392
25.1592
24.2785
27.5463
26.2403
25.1597
24.2784
27.5481
26.241
25.1596
24.2776
27.55
26.2408
25.1598
24.2762
27.5449
26.2404
25.1614
24.279
27.5529
26.2534
25.1738
24.294
22.5627
21.4965
20.6153
19.902
22.5557
21.4858
20.6052
19.8899
22.5595
21.4858
20.6038
19.8876
22.5574
21.4857
20.6035
19.8887
22.5554
21.4848
20.6033
19.8891
22.5533
21.4836
20.6028
19.8891
22.5512
21.4822
20.6019
19.8886
22.5493
21.4807
20.6008
19.8878
22.5477
21.4793
20.5997
19.8869
22.5467
21.4784
20.599
19.8864
22.5466
21.4784
20.599
19.8863
22.5476
21.4794
20.5998
19.8869
22.549
21.4807
20.6008
19.8877
22.5507
21.4821
20.6018
19.8884
22.5524
21.4833
20.6026
19.8888
22.5541
21.4842
20.6029
19.8886
22.5555
21.4848
20.6029
19.888
22.5571
21.4846
20.603
19.8868
22.5529
21.4843
20.6042
19.889
22.5596
21.4949
20.6143
19.9011
18.4122
17.5393
16.8206
16.242
18.4065
17.5305
16.8124
16.2322
18.4095
17.5305
16.8112
16.2303
18.4077
17.5303
16.8109
16.2312
18.4059
17.5295
16.8108
16.2316
18.4041
17.5285
16.8103
16.2315
18.4023
17.5273
16.8095
16.2311
18.4007
17.526
16.8086
16.2304
18.3993
17.5248
16.8077
16.2297
18.3985
17.5241
16.8071
16.2292
18.3985
17.5241
16.8071
16.2291
18.3992
17.5249
16.8077
16.2296
18.4004
17.526
16.8086
16.2302
18.4019
17.5272
16.8094
16.2308
18.4033
17.5282
16.81
16.2311
18.4046
17.5289
16.8103
16.2309
18.4059
17.5294
16.8102
16.2304
18.4071
17.5292
16.8103
16.2294
18.4037
17.5289
16.8113
16.2312
18.4092
17.5376
16.8194
16.2409
14.9792
14.265
13.6789
13.2092
14.9744
14.2578
13.6722
13.2013
14.9767
14.2577
13.6712
13.1998
14.9752
14.2575
13.671
13.2005
14.9737
14.2568
13.6708
13.2007
14.9721
14.2559
13.6703
13.2006
14.9706
14.2548
13.6696
13.2003
14.9692
14.2537
13.6688
13.1997
14.968
14.2528
13.6681
13.199
14.9673
14.2521
13.6676
13.1986
14.9673
14.2522
13.6676
13.1986
14.968
14.2528
13.6681
13.1989
14.969
14.2538
13.6688
13.1994
14.9702
14.2547
13.6695
13.1999
14.9714
14.2556
13.67
13.2001
14.9725
14.2562
13.6702
13.2
14.9735
14.2566
13.6702
13.1996
14.9745
14.2564
13.6702
13.1987
14.9718
14.2562
13.671
13.2002
14.9763
14.2633
13.6776
13.208
12.1521
11.5682
11.0903
10.7088
12.1481
11.5623
11.0849
10.7024
12.1499
11.5622
11.0841
10.7012
12.1486
11.562
11.0838