/*--------------------------------*- C++ -*----------------------------------*\
| =========                 |                                                 |
| \\      /  F ield         | foam-extend: Open Source CFD                    |
|  \\    /   O peration     | Version:     3.1                                |
|   \\  /    A nd           | Web:         http://www.extend-project.de       |
|    \\/     M anipulation  |                                                 |
\*---------------------------------------------------------------------------*/
FoamFile
{
    version     2.0;
    format      ascii;
    class       volVectorField;
    location    "0.0014";
    object      U;
}
// * * * * * * * * * * * * * * * * * * * * * * * * * * * * * * * * * * * * * //

dimensions      [0 1 -1 0 0 0 0];

internalField   nonuniform List<vector> 
6400
(
(0.000307508 5.19114e-06 0.00102152)
(5.67089e-05 -3.24742e-06 0.000373284)
(2.33182e-05 -4.49544e-06 -0.000201416)
(0.000191819 1.12419e-06 -0.000814813)
(0.000301614 3.09418e-05 0.00102402)
(5.39043e-05 2.94892e-06 0.000376656)
(2.21763e-05 -1.82153e-07 -0.000197769)
(0.000191414 1.99793e-05 -0.000811254)
(0.000296638 5.54338e-05 0.0010237)
(5.20217e-05 7.73753e-06 0.000377057)
(2.07137e-05 2.1978e-06 -0.000197136)
(0.000187853 3.59453e-05 -0.000810496)
(0.000290118 7.91137e-05 0.00102313)
(5.01433e-05 1.21256e-05 0.00037688)
(1.94378e-05 4.01561e-06 -0.00019712)
(0.000183473 5.07323e-05 -0.000810222)
(0.000282024 0.000102113 0.00102263)
(4.82328e-05 1.62866e-05 0.000376617)
(1.84075e-05 5.60632e-06 -0.000197266)
(0.000178415 6.48809e-05 -0.000810192)
(0.000272481 0.000124382 0.00102226)
(4.63388e-05 2.0296e-05 0.000376362)
(1.7615e-05 7.13989e-06 -0.000197484)
(0.000172651 7.86215e-05 -0.00081036)
(0.000261569 0.00014581 0.00102202)
(4.44511e-05 2.41871e-05 0.000376137)
(1.69925e-05 8.71423e-06 -0.000197734)
(0.000166093 9.20434e-05 -0.000810664)
(0.000249299 0.000166261 0.00102187)
(4.24806e-05 2.79442e-05 0.000375949)
(1.64009e-05 1.03412e-05 -0.000197975)
(0.000158593 0.000105104 -0.000811015)
(0.000235619 0.0001856 0.00102174)
(4.02936e-05 3.15106e-05 0.000375801)
(1.56797e-05 1.1953e-05 -0.000198169)
(0.00015001 0.000117643 -0.000811316)
(0.000220441 0.000203701 0.00102161)
(3.77602e-05 3.48046e-05 0.000375706)
(1.47084e-05 1.34376e-05 -0.000198279)
(0.000140279 0.000129432 -0.000811488)
(0.000203721 0.000220421 0.00102161)
(3.48237e-05 3.77434e-05 0.000375707)
(1.34554e-05 1.46933e-05 -0.000198279)
(0.000129449 0.000140264 -0.000811487)
(0.000185621 0.000235602 0.00102175)
(3.15315e-05 4.02797e-05 0.000375804)
(1.19728e-05 1.56679e-05 -0.000198167)
(0.000117662 0.000149999 -0.000811313)
(0.000166283 0.000249284 0.00102187)
(2.79663e-05 4.24703e-05 0.000375952)
(1.03626e-05 1.63931e-05 -0.000197972)
(0.000105125 0.000158586 -0.000811011)
(0.000145832 0.000261558 0.00102203)
(2.42098e-05 4.44453e-05 0.000376141)
(8.73639e-06 1.69894e-05 -0.00019773)
(9.20646e-05 0.00016609 -0.000810659)
(0.000124404 0.000272475 0.00102226)
(2.03185e-05 4.63381e-05 0.000376367)
(7.16177e-06 1.76171e-05 -0.000197479)
(7.86423e-05 0.000172653 -0.000810354)
(0.000102133 0.000282023 0.00102263)
(1.63076e-05 4.82375e-05 0.000376624)
(5.62667e-06 1.84149e-05 -0.00019726)
(6.49002e-05 0.000178422 -0.000810185)
(7.91314e-05 0.000290122 0.00102314)
(1.21438e-05 5.01531e-05 0.000376888)
(4.03312e-06 1.94503e-05 -0.000197114)
(5.07487e-05 0.000183485 -0.000810214)
(5.54478e-05 0.000296647 0.00102371)
(7.75163e-06 5.20358e-05 0.000377064)
(2.21126e-06 2.07303e-05 -0.00019713)
(3.59577e-05 0.000187869 -0.000810488)
(3.09507e-05 0.000301626 0.00102402)
(2.95782e-06 5.39218e-05 0.000376664)
(-1.73709e-07 2.2196e-05 -0.000197762)
(1.9987e-05 0.000191433 -0.000811245)
(5.19429e-06 0.000307522 0.00102152)
(-3.24438e-06 5.67282e-05 0.000373292)
(-4.49256e-06 2.33395e-05 -0.000201409)
(1.1268e-06 0.000191839 -0.000814804)
(0.00393637 0.000146166 0.00321064)
(0.00356404 0.000134112 0.00122731)
(0.00344862 0.000130088 -0.00070053)
(0.00357539 0.000134292 -0.00262204)
(0.00390418 0.000454056 0.00321091)
(0.00353616 0.000412998 0.0012282)
(0.00342395 0.000401016 -0.000699342)
(0.00355235 0.000416911 -0.0026205)
(0.00385135 0.000759411 0.00321016)
(0.00348801 0.000688942 0.00122816)
(0.00337747 0.000668255 -0.000699005)
(0.00350461 0.000694708 -0.00261976)
(0.0037757 0.00105985 0.00320924)
(0.00341928 0.00096058 0.00122764)
(0.00331095 0.000930969 -0.000699288)
(0.00343592 0.00096712 -0.00261972)
(0.00367785 0.00135367 0.00320843)
(0.00333065 0.00122624 0.00122699)
(0.00322531 0.00118781 -0.000699903)
(0.00334743 0.00123323 -0.00262024)
(0.00355858 0.0016391 0.00320786)
(0.00322281 0.00148441 0.00122636)
(0.00312115 0.00143746 -0.000700678)
(0.00323969 0.00149194 -0.00262113)
(0.00341855 0.00191437 0.00320753)
(0.00309625 0.00173356 0.00122581)
(0.00299884 0.00167857 -0.000701484)
(0.00311303 0.00174195 -0.00262221)
(0.00325825 0.00217767 0.00320733)
(0.00295127 0.00197208 0.00122538)
(0.0028586 0.00190959 -0.000702205)
(0.00296758 0.00198172 -0.00262326)
(0.00307813 0.00242721 0.00320717)
(0.00278821 0.00219828 0.00122506)
(0.0027007 0.00212885 -0.000702746)
(0.00280365 0.00220944 -0.00262407)
(0.00287884 0.00266136 0.003207)
(0.00260766 0.00241057 0.00122487)
(0.00252574 0.00233468 -0.00070304)
(0.00262188 0.00242333 -0.00262451)
(0.00266142 0.00287878 0.003207)
(0.00241063 0.0026076 0.00122487)
(0.00233473 0.00252569 -0.000703038)
(0.00242339 0.00262183 -0.00262451)
(0.00242727 0.00307806 0.00320717)
(0.00219834 0.00278815 0.00122506)
(0.0021289 0.00270065 -0.000702741)
(0.0022095 0.0028036 -0.00262406)
(0.00217772 0.00325818 0.00320733)
(0.00197213 0.00295121 0.00122538)
(0.00190965 0.00285855 -0.000702197)
(0.00198177 0.00296754 -0.00262324)
(0.00191442 0.00341848 0.00320752)
(0.00173361 0.00309619 0.00122582)
(0.00167862 0.0029988 -0.000701474)
(0.00174201 0.00311298 -0.00262219)
(0.00163914 0.00355851 0.00320785)
(0.00148445 0.00322276 0.00122636)
(0.00143751 0.00312111 -0.000700666)
(0.00149199 0.00323966 -0.00262111)
(0.00135371 0.00367779 0.00320842)
(0.00122628 0.00333061 0.00122699)
(0.00118785 0.00322528 -0.000699889)
(0.00123328 0.0033474 -0.00262021)
(0.00105989 0.00377565 0.00320923)
(0.000960619 0.00341925 0.00122764)
(0.000931008 0.00331093 -0.000699272)
(0.000967158 0.0034359 -0.0026197)
(0.000759438 0.0038513 0.00321015)
(0.000688971 0.00348798 0.00122816)
(0.000668285 0.00337746 -0.000698988)
(0.000694737 0.00350459 -0.00261973)
(0.000454073 0.00390413 0.0032109)
(0.000413016 0.00353613 0.0012282)
(0.000401035 0.00342394 -0.000699325)
(0.000416929 0.00355234 -0.00262046)
(0.000146172 0.00393632 0.00321063)
(0.000134118 0.00356402 0.00122732)
(0.000130095 0.00344861 -0.000700511)
(0.000134298 0.00357538 -0.00262201)
(0.0107098 0.000410773 0.00520403)
(0.0102118 0.000394889 0.00192582)
(0.00998115 0.000386727 -0.00130191)
(0.0100018 0.000387154 -0.00449441)
(0.0106338 0.00124907 0.0052031)
(0.0101406 0.00119409 0.00192509)
(0.00991375 0.00116903 -0.00130254)
(0.00993665 0.00117295 -0.00449462)
(0.0104959 0.00208036 0.00520187)
(0.0100087 0.00198574 0.00192407)
(0.00978493 0.00194278 -0.00130348)
(0.00980792 0.00194885 -0.00449534)
(0.0102945 0.00289875 0.00520098)
(0.00981659 0.0027653 0.00192303)
(0.00959722 0.00270428 -0.00130472)
(0.00962017 0.00271164 -0.00449674)
(0.0100314 0.00369925 0.00520051)
(0.00956593 0.00352789 0.00192211)
(0.00935252 0.00344915 -0.00130613)
(0.0093754 0.00345755 -0.00449862)
(0.00970852 0.00447688 0.00520044)
(0.00925846 0.00426889 0.00192139)
(0.00905237 0.00417311 -0.00130755)
(0.00907505 0.00418267 -0.00450072)
(0.00932763 0.00522669 0.00520064)
(0.00889567 0.00498373 0.00192087)
(0.00869806 0.00487182 -0.00130882)
(0.00872028 0.00488284 -0.00450278)
(0.00889034 0.0059438 0.00520095)
(0.00847893 0.00566776 0.00192053)
(0.00829084 0.00554076 -0.00130985)
(0.00831221 0.00555355 -0.00450452)
(0.00839852 0.00662352 0.00520117)
(0.00800995 0.00631638 0.00192032)
(0.00783228 0.00617533 -0.00131056)
(0.00785241 0.00619009 -0.00450576)
(0.00785457 0.0072616 0.00520122)
(0.00749106 0.00692533 0.0019202)
(0.00732472 0.0067712 -0.00131092)
(0.00734329 0.00678795 -0.00450639)
(0.00726169 0.00785446 0.00520122)
(0.00692542 0.00749096 0.0019202)
(0.00677129 0.00732463 -0.00131091)
(0.00678803 0.00734321 -0.00450639)
(0.0066236 0.0083984 0.00520117)
(0.00631646 0.00800985 0.00192032)
(0.00617541 0.00783218 -0.00131055)
(0.00619017 0.00785233 -0.00450575)
(0.00594387 0.00889021 0.00520094)
(0.00566783 0.00847883 0.00192053)
(0.00554084 0.00829074 -0.00130984)
(0.00555363 0.00831212 -0.0045045)
(0.00522676 0.0093275 0.00520063)
(0.0049838 0.00889556 0.00192087)
(0.0048719 0.00869797 -0.00130881)
(0.00488292 0.00872019 -0.00450276)
(0.00447694 0.00970839 0.00520043)
(0.00426896 0.00925836 0.00192139)
(0.00417318 0.00905228 -0.00130753)
(0.00418274 0.00907497 -0.00450069)
(0.00369931 0.0100313 0.0052005)
(0.00352795 0.00956583 0.00192212)
(0.00344921 0.00935244 -0.00130611)
(0.00345761 0.00937533 -0.00449858)
(0.0028988 0.0102944 0.00520097)
(0.00276535 0.0098165 0.00192303)
(0.00270433 0.00959715 -0.0013047)
(0.00271169 0.00962011 -0.0044967)
(0.0020804 0.0104958 0.00520186)
(0.00198578 0.0100086 0.00192407)
(0.00194282 0.00978486 -0.00130346)
(0.0019489 0.00980786 -0.0044953)
(0.00124909 0.0106337 0.00520309)
(0.00119412 0.0101405 0.0019251)
(0.00116905 0.00991369 -0.00130252)
(0.00117298 0.0099366 -0.00449457)
(0.000410781 0.0107097 0.00520402)
(0.000394898 0.0102117 0.00192583)
(0.000386736 0.00998109 -0.00130189)
(0.000387162 0.0100018 -0.00449437)
(0.0207368 0.000803735 0.00695401)
(0.020065 0.000781768 0.00237971)
(0.0196754 0.000767641 -0.00212334)
(0.0195486 0.000763017 -0.00658345)
(0.0205978 0.00242891 0.00695197)
(0.0199317 0.00235365 0.00237749)
(0.0195466 0.0023099 -0.00212581)
(0.0194229 0.00229673 -0.00658576)
(0.0203364 0.00404029 0.00695038)
(0.0196785 0.00391125 0.00237544)
(0.0192985 0.00383673 -0.00212833)
(0.0191769 0.0038136 -0.00658864)
(0.0199517 0.0056268 0.00694991)
(0.0193064 0.00544514 0.00237393)
(0.018934 0.00533991 -0.00213081)
(0.0188153 0.00530626 -0.00659214)
(0.0194465 0.00717865 0.00695039)
(0.0188182 0.00694575 0.00237299)
(0.0184558 0.00681058 -0.00213311)
(0.0183408 0.0067666 -0.00659586)
(0.0188242 0.00868604 0.00695157)
(0.0182167 0.00840381 0.00237256)
(0.0178666 0.00823994 -0.00213509)
(0.017756 0.00818631 -0.00659946)
(0.0180878 0.0101393 0.0069531)
(0.0175048 0.00981012 0.00237252)
(0.0171689 0.00961913 -0.00213664)
(0.0170631 0.00955676 -0.0066026)
(0.0172408 0.0115291 0.00695461)
(0.0166855 0.0111555 0.00237272)
(0.0163656 0.0109391 -0.00213773)
(0.016265 0.010869 -0.00660504)
(0.0162874 0.0128464 0.00695576)
(0.0157628 0.0124312 0.00237298)
(0.0154605 0.012191 -0.00213839)
(0.0153653 0.0121139 -0.00660665)
(0.0152327 0.0140832 0.00695633)
(0.0147418 0.0136289 0.00237314)
(0.0144588 0.0133666 -0.00213869)
(0.0143692 0.0132831 -0.00660744)
(0.0140834 0.0152326 0.00695633)
(0.0136291 0.0147417 0.00237314)
(0.0133667 0.0144587 -0.00213869)
(0.0132832 0.0143691 -0.00660744)
(0.0128465 0.0162872 0.00695575)
(0.0124313 0.0157626 0.00237298)
(0.0121911 0.0154604 -0.00213838)
(0.012114 0.0153652 -0.00660664)
(0.0115292 0.0172406 0.0069546)
(0.0111556 0.0166853 0.00237273)
(0.0109392 0.0163655 -0.00213772)
(0.010869 0.0162649 -0.00660502)
(0.0101394 0.0180876 0.0069531)
(0.00981021 0.0175046 0.00237253)
(0.00961923 0.0171688 -0.00213662)
(0.00955685 0.017063 -0.00660257)
(0.00868611 0.018824 0.00695157)
(0.00840389 0.0182166 0.00237257)
(0.00824003 0.0178665 -0.00213507)
(0.0081864 0.0177559 -0.00659943)
(0.00717871 0.0194464 0.00695039)
(0.00694582 0.0188181 0.002373)
(0.00681066 0.0184557 -0.00213309)
(0.00676668 0.0183407 -0.00659583)
(0.00562686 0.0199515 0.0069499)
(0.0054452 0.0193063 0.00237394)
(0.00533998 0.0189339 -0.00213079)
(0.00530632 0.0188152 -0.0065921)
(0.00404033 0.0203363 0.00695037)
(0.00391129 0.0196784 0.00237545)
(0.00383678 0.0192984 -0.00212831)
(0.00381365 0.0191768 -0.0065886)
(0.00242893 0.0205976 0.00695196)
(0.00235368 0.0199315 0.0023775)
(0.00230993 0.0195465 -0.00212578)
(0.00229676 0.0194228 -0.00658572)
(0.000803745 0.0207367 0.006954)
(0.000781778 0.0200649 0.00237972)
(0.000767652 0.0196753 -0.00212331)
(0.000763027 0.0195485 -0.0065834)
(0.0342202 0.00133347 0.00829102)
(0.033336 0.0013037 0.00246126)
(0.0327365 0.00128148 -0.00324952)
(0.0323989 0.00126944 -0.0089338)
(0.0339981 0.00401814 0.00828744)
(0.0331207 0.00391726 0.00245702)
(0.0325267 0.00384822 -0.00325442)
(0.0321932 0.00380991 -0.00893886)
(0.0335733 0.00667989 0.00828554)
(0.0327068 0.00650772 0.00245385)
(0.0321206 0.00639069 -0.00325869)
(0.0317921 0.00632487 -0.00894415)
(0.0329449 0.0093007 0.00828578)
(0.0320954 0.00905898 0.00245206)
(0.0315209 0.00889448 -0.00326231)
(0.0311994 0.00880121 -0.00894974)
(0.0321171 0.0118643 0.00828771)
(0.0312901 0.0115551 0.00245147)
(0.030731 0.0113446 -0.00326521)
(0.0304186 0.0112248 -0.00895512)
(0.0310944 0.0143545 0.00829072)
(0.0302949 0.0139806 0.0024518)
(0.0297546 0.0137262 -0.00326734)
(0.029453 0.0135814 -0.00895988)
(0.0298816 0.0167553 0.00829417)
(0.0291142 0.01632 0.00245275)
(0.0285957 0.016024 -0.00326871)
(0.0283064 0.0158559 -0.00896373)
(0.0284847 0.0190512 0.00829742)
(0.0277536 0.0185579 0.00245393)
(0.0272596 0.0182229 -0.00326946)
(0.0269839 0.0180334 -0.00896651)
(0.0269109 0.0212274 0.00829991)
(0.0262201 0.0206797 0.00245499)
(0.0257531 0.0203082 -0.00326976)
(0.0254921 0.0200989 -0.00896824)
(0.0251693 0.0232707 0.00830126)
(0.0245226 0.0226719 0.00245563)
(0.0240851 0.0222662 -0.00326983)
(0.0238401 0.0220385 -0.00896905)
(0.0232708 0.0251691 0.00830126)
(0.022672 0.0245224 0.00245563)
(0.0222664 0.0240849 -0.00326983)
(0.0220386 0.02384 -0.00896905)
(0.0212276 0.0269107 0.00829991)
(0.0206798 0.0262199 0.002455)
(0.0203083 0.0257529 -0.00326975)
(0.020099 0.025492 -0.00896823)
(0.0190513 0.0284845 0.00829742)
(0.018558 0.0277535 0.00245394)
(0.018223 0.0272594 -0.00326944)
(0.0180335 0.0269837 -0.00896649)
(0.0167554 0.0298814 0.00829417)
(0.0163201 0.0291141 0.00245276)
(0.0160241 0.0285955 -0.0032687)
(0.015856 0.0283062 -0.0089637)
(0.0143546 0.0310942 0.00829073)
(0.0139807 0.0302947 0.00245182)
(0.0137263 0.0297544 -0.00326732)
(0.0135815 0.0294528 -0.00895985)
(0.0118644 0.0321169 0.00828771)
(0.0115552 0.0312899 0.00245148)
(0.0113447 0.0307309 -0.00326519)
(0.0112249 0.0304184 -0.00895509)
(0.00930077 0.0329447 0.00828579)
(0.00905905 0.0320953 0.00245207)
(0.00889456 0.0315208 -0.00326229)
(0.00880128 0.0311993 -0.0089497)
(0.00667994 0.0335731 0.00828554)
(0.00650777 0.0327066 0.00245387)
(0.00639075 0.0321204 -0.00325867)
(0.00632492 0.031792 -0.00894411)
(0.00401817 0.0339979 0.00828745)
(0.00391729 0.0331205 0.00245703)
(0.00384825 0.0325265 -0.00325439)
(0.00380994 0.0321931 -0.00893881)
(0.00133348 0.03422 0.00829103)
(0.00130371 0.0333358 0.00246128)
(0.00128149 0.0327364 -0.00324949)
(0.00126945 0.0323988 -0.00893376)
(0.0511821 0.00200149 0.00883557)
(0.0500631 0.00196268 0.00197049)
(0.0492004 0.00193019 -0.00470782)
(0.0485687 0.0019078 -0.0113973)
(0.0508576 0.00601973 0.00882988)
(0.0497462 0.0058897 0.00196366)
(0.0488899 0.00578852 -0.00471566)
(0.0482635 0.00571474 -0.0114055)
(0.0502292 0.0100036 0.00882755)
(0.0491319 0.00978264 0.00195939)
(0.0482868 0.00961174 -0.0047215)
(0.0476693 0.00948587 -0.0114128)
(0.0492968 0.0139263 0.00882859)
(0.0482212 0.013617 0.00195762)
(0.0473931 0.0133776 -0.00472568)
(0.0467882 0.0132007 -0.0114197)
(0.0480652 0.0177636 0.0088321)
(0.0470184 0.0173689 0.00195782)
(0.0462123 0.0170634 -0.0047284)
(0.0456237 0.0168375 -0.0114256)
(0.0465405 0.0214911 0.00883709)
(0.0455285 0.0210149 0.0019594)
(0.0447492 0.0206462 -0.00472983)
(0.0441803 0.0203739 -0.0114303)
(0.0447296 0.025085 0.0088426)
(0.0437582 0.0245314 0.00196178)
(0.04301 0.0241032 -0.00473026)
(0.0424637 0.0237874 -0.0114337)
(0.0426414 0.028522 0.00884771)
(0.0417158 0.0278956 0.00196432)
(0.0410027 0.0274113 -0.00473001)
(0.0404817 0.0270549 -0.0114359)
(0.0402873 0.0317802 0.00885166)
(0.0394123 0.0310853 0.00196647)
(0.038738 0.0305485 -0.0047295)
(0.0382449 0.0301541 -0.0114371)
(0.0376811 0.0348392 0.00885385)
(0.0368616 0.03408 0.00196772)
(0.0362298 0.033494 -0.00472911)
(0.0357671 0.0330644 -0.0114376)
(0.0348393 0.0376809 0.00885386)
(0.0340802 0.0368614 0.00196772)
(0.0334942 0.0362296 -0.0047291)
(0.0330645 0.035767 -0.0114376)
(0.0317803 0.0402871 0.00885166)
(0.0310854 0.0394121 0.00196647)
(0.0305486 0.0387379 -0.00472949)
(0.0301542 0.0382448 -0.0114371)
(0.0285221 0.0426412 0.00884772)
(0.0278957 0.0417156 0.00196433)
(0.0274114 0.0410025 -0.00473)
(0.027055 0.0404815 -0.0114359)
(0.0250851 0.0447293 0.00884261)
(0.0245315 0.043758 0.00196179)
(0.0241033 0.0430098 -0.00473024)
(0.0237875 0.0424635 -0.0114337)
(0.0214912 0.0465402 0.0088371)
(0.0210149 0.0455283 0.00195942)
(0.0206463 0.0447491 -0.00472981)
(0.020374 0.0441801 -0.0114303)
(0.0177636 0.048065 0.00883211)
(0.017369 0.0470182 0.00195784)
(0.0170635 0.0462121 -0.00472837)
(0.0168376 0.0456235 -0.0114255)
(0.0139264 0.0492965 0.00882861)
(0.0136171 0.0482211 0.00195764)
(0.0133777 0.0473929 -0.00472565)
(0.0132008 0.046788 -0.0114196)
(0.0100036 0.050229 0.00882756)
(0.00978269 0.0491317 0.00195942)
(0.0096118 0.0482867 -0.00472147)
(0.00948592 0.0476692 -0.0114128)
(0.00601976 0.0508574 0.00882989)
(0.00588973 0.049746 0.00196369)
(0.00578855 0.0488897 -0.00471563)
(0.00571478 0.0482634 -0.0114055)
(0.0020015 0.0511819 0.00883558)
(0.00196269 0.0500629 0.00197052)
(0.0019302 0.0492002 -0.00470779)
(0.00190781 0.0485685 -0.0113973)
(0.0708146 0.00277614 0.00805959)
(0.0694657 0.0027282 0.000662857)
(0.0682964 0.00268378 -0.00646544)
(0.0672805 0.00264803 -0.0136619)
(0.0703732 0.00833783 0.00805127)
(0.0690324 0.00817868 0.000653208)
(0.06787 0.00804006 -0.00647616)
(0.0668607 0.00792015 -0.0136729)
(0.0695109 0.0138517 0.00804825)
(0.0681873 0.0135824 0.000648104)
(0.06704 0.0133488 -0.00648272)
(0.0660444 0.0131448 -0.0136808)
(0.0682281 0.0192813 0.00804974)
(0.066931 0.0189051 0.000646787)
(0.0658065 0.0185785 -0.00648621)
(0.0648306 0.0182929 -0.0136868)
(0.0665305 0.0245928 0.00805438)
(0.0652681 0.0241137 0.000648196)
(0.0641733 0.0236976 -0.0064874)
(0.063223 0.0233337 -0.013691)
(0.0644253 0.0297527 0.00806084)
(0.063205 0.0291756 0.000651375)
(0.0621463 0.0286741 -0.0064869)
(0.0612271 0.0282357 -0.0136936)
(0.0619222 0.034728 0.00806791)
(0.0607507 0.0340581 0.000655421)
(0.059734 0.0334758 -0.00648532)
(0.0588507 0.0329671 -0.0136948)
(0.0590337 0.0394867 0.00807448)
(0.0579172 0.0387293 0.000659482)
(0.0569479 0.0380708 -0.0064833)
(0.0561053 0.0374962 -0.013695)
(0.0557759 0.043998 0.00807962)
(0.0547201 0.0431584 0.000662789)
(0.0538034 0.0424285 -0.00648147)
(0.0530061 0.0417921 -0.0136948)
(0.0521681 0.0482335 0.00808255)
(0.0511791 0.0473169 0.000664702)
(0.05032 0.0465201 -0.00648035)
(0.0495722 0.0458261 -0.0136945)
(0.0482337 0.0521679 0.00808255)
(0.047317 0.0511789 0.000664705)
(0.0465202 0.0503198 -0.00648035)
(0.0458262 0.049572 -0.0136945)
(0.0439981 0.0557756 0.00807963)
(0.0431585 0.05472 0.000662797)
(0.0424286 0.0538033 -0.00648146)
(0.0417922 0.0530059 -0.0136947)
(0.0394868 0.0590335 0.00807449)
(0.0387294 0.057917 0.000659495)
(0.0380709 0.0569477 -0.00648329)
(0.0374963 0.0561052 -0.013695)
(0.0347281 0.0619219 0.00806792)
(0.0340582 0.0607504 0.000655439)
(0.0334758 0.0597338 -0.0064853)
(0.0329672 0.0588506 -0.0136947)
(0.0297528 0.064425 0.00806086)
(0.0291757 0.0632048 0.000651396)
(0.0286741 0.0621461 -0.00648688)
(0.0282358 0.0612269 -0.0136935)
(0.0245928 0.0665302 0.0080544)
(0.0241138 0.0652679 0.000648222)
(0.0236977 0.0641731 -0.00648737)
(0.0233338 0.0632228 -0.013691)
(0.0192813 0.0682279 0.00804977)
(0.0189051 0.0669308 0.000646815)
(0.0185786 0.0658063 -0.00648618)
(0.018293 0.0648305 -0.0136868)
(0.0138518 0.0695107 0.00804828)
(0.0135824 0.068187 0.000648135)
(0.0133488 0.0670399 -0.00648268)
(0.0131449 0.0660442 -0.0136808)
(0.00833786 0.070373 0.00805131)
(0.0081787 0.0690322 0.000653241)
(0.00804009 0.0678698 -0.00647613)
(0.00792018 0.0668605 -0.0136729)
(0.00277615 0.0708143 0.00805962)
(0.00272821 0.0694655 0.00066289)
(0.00268379 0.0682963 -0.0064654)
(0.00264803 0.0672803 -0.0136619)
(0.0916153 0.00359831 0.00535183)
(0.0900678 0.00354237 -0.00171274)
(0.0885624 0.00348528 -0.00841456)
(0.0870751 0.00343362 -0.0152667)
(0.0910513 0.0107934 0.00534069)
(0.0895113 0.0106092 -0.00172457)
(0.088013 0.0104305 -0.00842686)
(0.0865333 0.0102551 -0.0152787)
(0.0899415 0.0179264 0.00533638)
(0.0884211 0.0176156 -0.00172979)
(0.0869417 0.0173147 -0.00843224)
(0.0854814 0.0170168 -0.015284)
(0.0882874 0.0249506 0.00533707)
(0.0867974 0.0245171 -0.00173019)
(0.0853469 0.0240967 -0.00843301)
(0.0839146 0.0236801 -0.0152855)
(0.0860956 0.0318229 0.0053411)
(0.0846453 0.0312713 -0.00172742)
(0.0832326 0.0307357 -0.00843074)
(0.081837 0.0302048 -0.0152841)
(0.083375 0.0385 0.00534711)
(0.081973 0.0378358 -0.00172274)
(0.0806063 0.03719 -0.00842661)
(0.0792555 0.03655 -0.0152809)
(0.0801383 0.0449393 0.00535393)
(0.078792 0.0441684 -0.00171726)
(0.077479 0.0434181 -0.00842168)
(0.0761807 0.0426746 -0.0152768)
(0.0764017 0.0510991 0.00536048)
(0.0751184 0.0502278 -0.00171198)
(0.0738663 0.0493788 -0.0084169)
(0.0726277 0.0485375 -0.0152728)
(0.0721863 0.0569397 0.00536578)
(0.0709726 0.055974 -0.00170776)
(0.0697883 0.055032 -0.00841313)
(0.0686163 0.0540989 -0.0152697)
(0.0675169 0.0624235 0.00536895)
(0.0663796 0.0613692 -0.00170533)
(0.0652699 0.0603405 -0.008411)
(0.0641712 0.0593215 -0.0152679)
(0.0624237 0.0675168 0.00536896)
(0.0613693 0.0663795 -0.00170533)
(0.0603406 0.0652698 -0.008411)
(0.0593216 0.0641711 -0.0152679)
(0.0569398 0.0721861 0.00536579)
(0.0559741 0.0709724 -0.00170775)
(0.0550321 0.0697882 -0.00841312)
(0.054099 0.0686161 -0.0152697)
(0.0510992 0.0764015 0.0053605)
(0.0502279 0.0751182 -0.00171196)
(0.0493788 0.0738662 -0.00841689)
(0.0485375 0.0726275 -0.0152728)
(0.0449393 0.080138 0.00535395)
(0.0441685 0.0787918 -0.00171724)
(0.0434182 0.0774788 -0.00842166)
(0.0426746 0.0761805 -0.0152768)
(0.0385 0.0833748 0.00534714)
(0.0378358 0.0819727 -0.00172271)
(0.0371901 0.080606 -0.00842659)
(0.0365501 0.0792553 -0.0152809)
(0.0318229 0.0860953 0.00534113)
(0.0312713 0.0846451 -0.00172739)
(0.0307357 0.0832324 -0.00843071)
(0.0302048 0.0818368 -0.0152841)
(0.0249507 0.0882871 0.0053371)
(0.0245171 0.0867971 -0.00173016)
(0.0240967 0.0853467 -0.00843298)
(0.0236801 0.0839144 -0.0152854)
(0.0179264 0.0899412 0.00533642)
(0.0176156 0.0884208 -0.00172975)
(0.0173147 0.0869415 -0.0084322)
(0.0170168 0.0854812 -0.015284)
(0.0107934 0.0910511 0.00534073)
(0.0106093 0.0895111 -0.00172453)
(0.0104305 0.0880128 -0.00842682)
(0.0102551 0.0865331 -0.0152787)
(0.00359832 0.0916151 0.00535187)
(0.00354238 0.0900675 -0.0017127)
(0.00348528 0.0885622 -0.00841452)
(0.00343362 0.0870749 -0.0152667)
(0.111061 0.00436783 -1.9268e-05)
(0.10936 0.00430593 -0.00538594)
(0.107515 0.0042369 -0.0103425)
(0.10551 0.00416885 -0.0155153)
(0.110381 0.0130844 -3.18071e-05)
(0.108686 0.0128826 -0.00539727)
(0.106848 0.0126657 -0.0103528)
(0.104851 0.0124317 -0.015524)
(0.109036 0.021725 -3.7987e-05)
(0.107361 0.0213849 -0.00540121)
(0.105546 0.0210196 -0.010354)
(0.103574 0.0206222 -0.0155222)
(0.107029 0.0302342 -4.03158e-05)
(0.105387 0.0297596 -0.00540036)
(0.103606 0.0292488 -0.0103496)
(0.101671 0.0286928 -0.0155142)
(0.10437 0.0385602 -4.01684e-05)
(0.10277 0.0379556 -0.00539657)
(0.101035 0.037304 -0.0103418)
(0.0991485 0.0365946 -0.0155022)
(0.101069 0.0466512 -3.83571e-05)
(0.099522 0.0459223 -0.00539113)
(0.0978424 0.0451352 -0.0103322)
(0.0960155 0.0442783 -0.0154885)
(0.0971425 0.0544561 -3.54774e-05)
(0.0956567 0.0536088 -0.00538509)
(0.0940424 0.0526925 -0.0103224)
(0.092286 0.0516947 -0.0154749)
(0.0926111 0.0619247 -3.21053e-05)
(0.0911942 0.0609653 -0.00537936)
(0.0896545 0.0599262 -0.0103136)
(0.0879789 0.0587948 -0.0154631)
(0.0874996 0.0690082 -2.89052e-05)
(0.0861594 0.0679433 -0.00537481)
(0.0847032 0.0667884 -0.010307)
(0.0831182 0.0655309 -0.0154544)
(0.0818376 0.07566 -2.66531e-05)
(0.0805816 0.0744963 -0.00537216)
(0.0792177 0.0732331 -0.0103034)
(0.077733 0.0718577 -0.0154498)
(0.0756601 0.0818375 -2.66491e-05)
(0.0744964 0.0805815 -0.00537215)
(0.0732332 0.0792176 -0.0103034)
(0.0718577 0.0777329 -0.0154498)
(0.0690082 0.0874994 -2.88934e-05)
(0.0679433 0.0861592 -0.00537479)
(0.0667885 0.084703 -0.010307)
(0.065531 0.0831181 -0.0154544)
(0.0619247 0.0926108 -3.20859e-05)
(0.0609653 0.091194 -0.00537934)
(0.0599263 0.0896544 -0.0103136)
(0.0587948 0.0879788 -0.0154631)
(0.0544562 0.0971422 -3.54507e-05)
(0.0536088 0.0956564 -0.00538506)
(0.0526925 0.0940422 -0.0103223)
(0.0516947 0.0922858 -0.0154749)
(0.0466512 0.101068 -3.83234e-05)
(0.0459223 0.0995218 -0.0053911)
(0.0451353 0.0978422 -0.0103322)
(0.0442784 0.0960153 -0.0154885)
(0.0385602 0.104369 -4.01285e-05)
(0.0379556 0.10277 -0.00539653)
(0.037304 0.101035 -0.0103417)
(0.0365946 0.0991483 -0.0155022)
(0.0302342 0.107029 -4.02706e-05)
(0.0297596 0.105387 -0.00540032)
(0.0292488 0.103606 -0.0103496)
(0.0286928 0.101671 -0.0155141)
(0.021725 0.109035 -3.79379e-05)
(0.0213849 0.107361 -0.00540116)
(0.0210196 0.105546 -0.010354)
(0.0206222 0.103574 -0.0155221)
(0.0130844 0.110381 -3.17551e-05)
(0.0128826 0.108685 -0.00539722)
(0.0126657 0.106848 -0.0103527)
(0.0124317 0.104851 -0.015524)
(0.00436783 0.111061 -1.92147e-05)
(0.00430593 0.109359 -0.00538589)
(0.0042369 0.107515 -0.0103424)
(0.00416885 0.105509 -0.0155153)
(0.124243 0.00488791 -0.00846553)
(0.122448 0.00482339 -0.0103771)
(0.120344 0.00474655 -0.0120041)
(0.117919 0.0046669 -0.0138006)
(0.123478 0.014625 -0.00847507)
(0.121688 0.0144167 -0.0103828)
(0.119591 0.0141742 -0.0120067)
(0.117174 0.0138968 -0.0137996)
(0.121961 0.0242754 -0.00848242)
(0.120192 0.0239243 -0.0103834)
(0.118119 0.0235155 -0.0120009)
(0.115732 0.0230438 -0.0137869)
(0.1197 0.0337782 -0.00848929)
(0.117964 0.033287 -0.0103811)
(0.11593 0.0327143 -0.0119898)
(0.113586 0.0320534 -0.0137664)
(0.116707 0.0430763 -0.00849588)
(0.115015 0.0424485 -0.0103769)
(0.113031 0.041716 -0.0119755)
(0.110745 0.0408708 -0.0137411)
(0.112997 0.0521127 -0.00850183)
(0.111359 0.0513527 -0.0103718)
(0.109437 0.0504654 -0.0119598)
(0.107223 0.0494417 -0.013714)
(0.10859 0.0608312 -0.00850662)
(0.107015 0.0599443 -0.0103663)
(0.105167 0.0589078 -0.0119444)
(0.103038 0.0577123 -0.0136879)
(0.103509 0.0691768 -0.00850982)
(0.102007 0.0681687 -0.0103611)
(0.100245 0.0669896 -0.011931)
(0.0982143 0.06563 -0.0136655)
(0.0977842 0.0770956 -0.00851128)
(0.0963633 0.0759728 -0.0103569)
(0.0946973 0.0746584 -0.0119209)
(0.0927782 0.0731434 -0.013649)
(0.0914472 0.0845354 -0.00851134)
(0.0901166 0.0833049 -0.0103543)
(0.0885577 0.0818636 -0.0119155)
(0.086762 0.0802029 -0.0136403)
(0.0845355 0.091447 -0.00851134)
(0.0833049 0.0901165 -0.0103543)
(0.0818637 0.0885576 -0.0119154)
(0.080203 0.086762 -0.0136403)
(0.0770956 0.0977841 -0.00851127)
(0.0759728 0.0963631 -0.0103568)
(0.0746584 0.0946972 -0.0119209)
(0.0731434 0.0927781 -0.013649)
(0.0691768 0.103509 -0.00850979)
(0.0681687 0.102007 -0.0103611)
(0.0669896 0.100244 -0.0119309)
(0.06563 0.0982141 -0.0136654)
(0.0608312 0.108589 -0.00850659)
(0.0599443 0.107014 -0.0103663)
(0.0589078 0.105167 -0.0119444)
(0.0577123 0.103038 -0.0136879)
(0.0521126 0.112997 -0.00850179)
(0.0513527 0.111358 -0.0103718)
(0.0504653 0.109437 -0.0119598)
(0.0494416 0.107222 -0.013714)
(0.0430762 0.116707 -0.00849583)
(0.0424484 0.115015 -0.0103769)
(0.041716 0.11303 -0.0119755)
(0.0408708 0.110744 -0.0137411)
(0.0337782 0.1197 -0.00848924)
(0.033287 0.117964 -0.010381)
(0.0327143 0.115929 -0.0119898)
(0.0320534 0.113586 -0.0137663)
(0.0242754 0.121961 -0.00848236)
(0.0239243 0.120192 -0.0103834)
(0.0235155 0.118119 -0.0120009)
(0.0230438 0.115732 -0.0137868)
(0.0146249 0.123478 -0.008475)
(0.0144167 0.121688 -0.0103828)
(0.0141742 0.119591 -0.0120066)
(0.0138968 0.117174 -0.0137996)
(0.00488791 0.124242 -0.00846547)
(0.00482338 0.122448 -0.0103771)
(0.00474655 0.120344 -0.0120041)
(0.0046669 0.117918 -0.0138006)
(0.124605 0.00489561 -0.019039)
(0.122816 0.00483378 -0.0161505)
(0.12067 0.00475815 -0.0133258)
(0.118158 0.00467898 -0.0104721)
(0.123825 0.0146386 -0.0190396)
(0.12204 0.0144397 -0.0161455)
(0.1199 0.0142002 -0.013316)
(0.117397 0.0139215 -0.0104574)
(0.12228 0.0242924 -0.0190451)
(0.120513 0.0239559 -0.0161409)
(0.118397 0.0235512 -0.0133025)
(0.115923 0.0230763 -0.0104344)
(0.119979 0.0337955 -0.0190548)
(0.118243 0.0333227 -0.0161367)
(0.116164 0.032754 -0.0132859)
(0.113735 0.0320869 -0.0104042)
(0.116939 0.0430911 -0.0190669)
(0.115245 0.0424834 -0.0161325)
(0.113216 0.0417534 -0.0132672)
(0.110846 0.0408976 -0.0103694)
(0.11318 0.0521231 -0.0190799)
(0.111537 0.0513831 -0.0161283)
(0.109572 0.0504951 -0.0132476)
(0.107276 0.0494549 -0.0103327)
(0.108725 0.0608372 -0.0190921)
(0.107145 0.0599681 -0.016124)
(0.105255 0.0589263 -0.0132286)
(0.103048 0.0577071 -0.0102974)
(0.103602 0.0691804 -0.0191019)
(0.102095 0.0681865 -0.0161199)
(0.100293 0.0669963 -0.013212)
(0.0981898 0.0656046 -0.0102668)
(0.0978422 0.0771014 -0.0191084)
(0.0964185 0.0759882 -0.0161164)
(0.0947169 0.0746564 -0.0131995)
(0.0927312 0.0731002 -0.0102441)
(0.0914793 0.0845504 -0.019111)
(0.0901492 0.0833247 -0.0161142)
(0.0885599 0.0818592 -0.0131927)
(0.0867053 0.0801483 -0.010232)
(0.0845504 0.0914792 -0.019111)
(0.0833247 0.0901491 -0.0161142)
(0.0818592 0.0885598 -0.0131927)
(0.0801482 0.0867053 -0.010232)
(0.0771014 0.097842 -0.0191083)
(0.0759882 0.0964184 -0.0161164)
(0.0746563 0.0947168 -0.0131995)
(0.0731002 0.0927312 -0.0102441)
(0.0691803 0.103602 -0.0191019)
(0.0681864 0.102095 -0.0161199)
(0.0669963 0.100293 -0.013212)
(0.0656046 0.0981896 -0.0102668)
(0.0608371 0.108725 -0.0190921)
(0.059968 0.107145 -0.016124)
(0.0589262 0.105255 -0.0132286)
(0.057707 0.103048 -0.0102973)
(0.052123 0.11318 -0.0190799)