/*--------------------------------*- C++ -*----------------------------------*\
| =========                 |                                                 |
| \\      /  F ield         | foam-extend: Open Source CFD                    |
|  \\    /   O peration     | Version:     3.1                                |
|   \\  /    A nd           | Web:         http://www.extend-project.de       |
|    \\/     M anipulation  |                                                 |
\*---------------------------------------------------------------------------*/
FoamFile
{
    version     2.0;
    format      ascii;
    class       volVectorField;
    location    "2.8";
    object      D;
}
// * * * * * * * * * * * * * * * * * * * * * * * * * * * * * * * * * * * * * //

dimensions      [0 1 0 0 0 0 0];

internalField   nonuniform List<vector> 
256
(
(0.000283965 0.00018838 0.000323348)
(0.000121135 3.65113e-05 9.65628e-05)
(0.000107494 -5.60087e-05 -0.00011659)
(0.00024068 -0.000210012 -0.000358646)
(0.00118853 0.000774351 0.000270529)
(0.000987333 0.000206692 9.63802e-05)
(0.000949722 -0.000246244 -0.000159665)
(0.00106863 -0.000813634 -0.000359611)
(0.00233466 0.00119431 0.000194428)
(0.00213315 0.000345402 4.96811e-05)
(0.00208172 -0.000402697 -0.000148048)
(0.00217478 -0.00125753 -0.0003199)
(0.00369811 0.00151628 8.19055e-05)
(0.00351664 0.000443885 7.30413e-07)
(0.00345606 -0.000537991 -0.000128339)
(0.00350955 -0.00161831 -0.000238135)
(0.00520141 0.00173119 -3.25247e-05)
(0.00503857 0.000501394 -4.808e-05)
(0.00497187 -0.000649239 -0.000105106)
(0.00499317 -0.00188525 -0.000149328)
(0.00677319 0.00185981 -0.000136214)
(0.00662739 0.000525829 -9.281e-05)
(0.00655694 -0.000739396 -8.51315e-05)
(0.0065532 -0.00207451 -6.80375e-05)
(0.00835708 0.00192282 -0.000220603)
(0.008223 0.000525545 -0.000133601)
(0.00814967 -0.000810477 -7.2715e-05)
(0.00813022 -0.00220068 -5.52732e-06)
(0.00992404 0.00194145 -0.000285618)
(0.0097835 0.000511324 -0.000172265)
(0.00970293 -0.00086432 -6.99533e-05)
(0.00968103 -0.00228207 2.7748e-05)
(0.000319338 0.000186103 0.000161438)
(0.000161464 3.74239e-05 5.00108e-05)
(0.000147978 -5.09407e-05 -6.80799e-05)
(0.000271707 -0.000197853 -0.000193827)
(0.00126718 0.000767669 0.000153208)
(0.00104114 0.000207929 4.87274e-05)
(0.00100618 -0.00023673 -0.000105056)
(0.00115252 -0.000797331 -0.000227793)
(0.00239502 0.00120566 0.00010761)
(0.00219371 0.000353761 1.92101e-05)
(0.00214501 -0.000401501 -0.000107037)
(0.0022404 -0.00125978 -0.000214062)
(0.00372572 0.00153292 3.24745e-05)
(0.00354661 0.000455832 -1.63215e-05)
(0.00348862 -0.000537097 -9.78971e-05)
(0.00354161 -0.00162242 -0.000165998)
(0.00518648 0.0017518 -4.94471e-05)
(0.00502892 0.000516665 -5.30292e-05)
(0.00496439 -0.000646085 -8.47516e-05)
(0.00498147 -0.00188695 -0.000107203)
(0.00671539 0.00188161 -0.000126109)
(0.00657596 0.000543335 -8.78148e-05)
(0.00650739 -0.000731624 -7.32327e-05)
(0.00649764 -0.00206946 -5.1853e-05)
(0.00826095 0.00194392 -0.000190071)
(0.00813469 0.000543915 -0.000119927)
(0.00806343 -0.000797119 -6.78084e-05)
(0.0080364 -0.00218673 -1.02957e-05)
(0.0097998 0.00196072 -0.000238595)
(0.00966738 0.000529142 -0.00014915)
(0.00958922 -0.000846118 -7.22399e-05)
(0.0095601 -0.00225969 6.88477e-06)
(0.000335262 0.000191966 7.88627e-05)
(0.000168115 3.98766e-05 2.36035e-05)
(0.000152907 -5.16024e-05 -4.01281e-05)
(0.000281791 -0.000202514 -0.000104519)
(0.00130218 0.000761087 7.65187e-05)
(0.00105688 0.000207417 1.87459e-05)
(0.00102014 -0.000229929 -6.74743e-05)
(0.00118167 -0.000786216 -0.000136545)
(0.00242569 0.00119634 4.73241e-05)
(0.00220992 0.000354856 -1.72977e-06)
(0.0021593 -0.000392446 -7.43943e-05)
(0.00226531 -0.00124183 -0.00013425)
(0.00373872 0.00152288 -2.21327e-06)
(0.00354999 0.000458841 -2.72763e-05)
(0.00348983 -0.000525121 -7.22978e-05)
(0.00354825 -0.00159796 -0.000108005)
(0.00517496 0.00174427 -5.84179e-05)
(0.00501096 0.000522515 -5.42205e-05)
(0.00494403 -0.00063102 -6.65957e-05)
(0.00496294 -0.00185788 -7.23199e-05)
(0.00667681 0.00187849 -0.00011281)
(0.00653339 0.000552412 -8.04839e-05)
(0.00646236 -0.000713339 -6.15982e-05)
(0.00645167 -0.00203672 -3.76098e-05)
(0.00819683 0.00194669 -0.000159465)
(0.00806874 0.000556088 -0.000105282)
(0.00799515 -0.000775881 -6.13513e-05)
(0.00796485 -0.00215145 -1.25875e-05)
(0.00971621 0.00197037 -0.000194869)
(0.00958378 0.000544041 -0.000127992)
(0.00950276 -0.000822575 -7.00341e-05)
(0.00946728 -0.00222298 -7.40298e-06)
(0.000340799 0.000195311 3.65181e-05)
(0.000166873 4.11233e-05 9.79283e-06)
(0.000150159 -5.19389e-05 -2.3497e-05)
(0.000282878 -0.000205109 -5.53031e-05)
(0.00131404 0.000756879 3.26678e-05)
(0.00105682 0.000207196 3.12406e-06)
(0.00101772 -0.000224613 -4.30635e-05)
(0.00118686 -0.000777209 -7.94572e-05)
(0.00243415 0.00118666 1.20083e-05)
(0.00220766 0.000354981 -1.20117e-05)
(0.00215453 -0.000382665 -5.0725e-05)
(0.00226705 -0.00122257 -8.09153e-05)
(0.00373704 0.00151088 -2.13615e-05)
(0.00354003 0.000460235 -3.05256e-05)
(0.00347731 -0.000511327 -5.2074e-05)
(0.00353988 -0.00157067 -6.69595e-05)
(0.00515873 0.00173312 -5.97241e-05)
(0.00498865 0.000526149 -5.01984e-05)
(0.00491913 -0.000613723 -5.06985e-05)
(0.00494 -0.00182503 -4.61787e-05)
(0.00664376 0.00187072 -9.77935e-05)
(0.00649614 0.000558992 -6.97995e-05)
(0.00642257 -0.00069311 -4.97309e-05)
(0.0064119 -0.00200039 -2.55302e-05)
(0.00814701 0.00194407 -0.000131379)
(0.00801632 0.000565861 -8.88085e-05)
(0.00794018 -0.000753346 -5.24432e-05)
(0.00790809 -0.00211331 -1.16843e-05)
(0.00965251 0.00197361 -0.000157117)
(0.00951836 0.000557008 -0.00010659)
(0.00943393 -0.000798284 -6.25276e-05)
(0.00939428 -0.00218409 -1.3271e-05)
(0.000342312 0.000196823 1.54333e-05)
(0.000164279 4.17946e-05 3.14292e-06)
(0.00014649 -5.19628e-05 -1.35121e-05)
(0.000281178 -0.000205919 -2.84103e-05)
(0.00131587 0.000754109 1.01342e-05)
(0.00105141 0.000207456 -3.60244e-06)
(0.00101038 -0.000220369 -2.70559e-05)
(0.00118326 -0.000769669 -4.49063e-05)
(0.00243222 0.00118008 -5.03847e-06)
(0.00219873 0.00035564 -1.48655e-05)
(0.00214353 -0.000374262 -3.37272e-05)
(0.00225952 -0.0012068 -4.70772e-05)
(0.00372834 0.00150231 -2.77534e-05)
(0.00352545 0.000461926 -2.81658e-05)
(0.00346071 -0.000499133 -3.62672e-05)
(0.00352575 -0.00154791 -3.97487e-05)
(0.00514084 0.00172472 -5.37912e-05)
(0.00496617 0.000529569 -4.22909e-05)
(0.00489471 -0.000598291 -3.69661e-05)
(0.00491691 -0.00179711 -2.79536e-05)
(0.00661511 0.00186441 -8.00401e-05)
(0.0064641 0.000564675 -5.65942e-05)
(0.00638867 -0.000675067 -3.80063e-05)
(0.0063782 -0.00196908 -1.61869e-05)
(0.00810704 0.00194118 -0.000103734)
(0.00797401 0.000574006 -7.07803e-05)
(0.00789597 -0.000733325 -4.1828e-05)
(0.00786291 -0.00208003 -9.20298e-06)
(0.00960205 0.00197464 -0.000122031)
(0.00946613 0.000567631 -8.42792e-05)
(0.0093791 -0.000776734 -5.12764e-05)
(0.00933686 -0.0021498 -1.3651e-05)
(0.000342446 0.000197446 5.5798e-06)
(0.000162046 4.21738e-05 3.71555e-07)
(0.000143531 -5.18451e-05 -7.47196e-06)
(0.000279085 -0.000205912 -1.39275e-05)
(0.00131421 0.00075235 3.67289e-07)
(0.00104544 0.000207946 -5.20662e-06)
(0.00100303 -0.000217162 -1.62812e-05)
(0.00117767 -0.000763819 -2.42549e-05)
(0.00242696 0.00117614 -1.03128e-05)
(0.0021891 0.000356667 -1.31234e-05)
(0.00213242 -0.000367824 -2.12719e-05)
(0.00225018 -0.00119515 -2.60594e-05)
(0.00371825 0.00149717 -2.52483e-05)
(0.00351152 0.000463843 -2.21851e-05)
(0.00344536 -0.000489695 -2.37352e-05)
(0.00351176 -0.00153111 -2.23021e-05)
(0.00512472 0.00171963 -4.22203e-05)
(0.00494692 0.000532778 -3.17796e-05)
(0.00487414 -0.000586268 -2.50651e-05)
(0.00489712 -0.00177627 -1.58468e-05)
(0.00659195 0.00186052 -5.94836e-05)
(0.00643853 0.000569477 -4.16017e-05)
(0.00636186 -0.000660957 -2.66912e-05)
(0.00635156 -0.00194538 -9.47411e-06)
(0.00807618 0.00193929 -7.53213e-05)
(0.00794137 0.000580496 -5.14974e-05)
(0.00786209 -0.000717634 -3.02746e-05)
(0.00782852 -0.00205449 -6.32067e-06)
(0.00956348 0.00197507 -8.76296e-05)
(0.00942606 0.000575824 -6.10236e-05)
(0.00933731 -0.000759801 -3.77661e-05)
(0.00929363 -0.00212316 -1.09937e-05)
(0.000342249 0.000197665 1.53744e-06)
(0.000160558 4.23831e-05 -3.94698e-07)
(0.00014159 -5.17081e-05 -3.70643e-06)
(0.000277467 -0.000205666 -6.17249e-06)
(0.00131207 0.000751307 -2.17695e-06)
(0.0010409 0.000208408 -4.0203e-06)
(0.000997614 -0.000215012 -8.65423e-06)
(0.00117301 -0.000759844 -1.17483e-05)
(0.00242207 0.001174 -8.58915e-06)
(0.00218168 0.000357624 -8.74985e-06)
(0.00212406 -0.000363506 -1.17043e-05)
(0.00224267 -0.00118752 -1.28673e-05)
(0.00371012 0.00149443 -1.71463e-05)
(0.00350109 0.000465476 -1.40509e-05)
(0.00343404 -0.000483347 -1.34053e-05)
(0.00350113 -0.00152017 -1.11028e-05)
(0.0051128 0.00171694 -2.67916e-05)
(0.00493308 0.000535284 -1.96483e-05)
(0.00485948 -0.000578158 -1.45041e-05)
(0.00488289 -0.00176264 -7.91743e-06)
(0.00657567 0.00185848 -3.66476e-05)
(0.00642072 0.000572993 -2.54159e-05)
(0.0063433 -0.000651412 -1.58093e-05)
(0.00633311 -0.00192974 -4.82686e-06)
(0.008055 0.00193832 -4.57797e-05)
(0.00791903 0.000585049 -3.1281e-05)
(0.007839 -0.000706993 -1.82793e-05)
(0.00780518 -0.00203746 -3.60759e-06)
(0.00953719 0.00197535 -5.29053e-05)
(0.00939872 0.000581417 -3.69616e-05)
(0.00930895 -0.000748291 -2.30368e-05)
(0.00926453 -0.00210523 -6.94266e-06)
(0.000342082 0.000197724 2.44146e-07)
(0.000159828 4.24769e-05 -2.22359e-07)
(0.000140644 -5.16233e-05 -1.1148e-06)
(0.000276615 -0.00020548 -1.72638e-06)
(0.00131076 0.000750821 -1.09112e-06)
(0.00103852 0.000208678 -1.47447e-06)
(0.000994806 -0.000213934 -2.70846e-06)
(0.00117048 -0.000757838 -3.47903e-06)
(0.00241927 0.00117307 -3.23451e-06)
(0.00217773 0.000358183 -3.05003e-06)
(0.00211966 -0.000361344 -3.73146e-06)
(0.0022386 -0.00118374 -3.85266e-06)
(0.00370567 0.00149327 -6.02958e-06)
(0.00349558 0.000466401 -4.79807e-06)
(0.00342811 -0.000480168 -4.3324e-06)
(0.00349549 -0.00151479 -3.33714e-06)
(0.0051065 0.00171582 -9.16585e-06)
(0.00492588 0.000536652 -6.64108e-06)
(0.00485189 -0.000574091 -4.74586e-06)
(0.00487548 -0.00175592 -2.38061e-06)
(0.00656725 0.00185764 -1.23768e-05)
(0.00641157 0.000574852 -8.54582e-06)
(0.00633381 -0.000646617 -5.23338e-06)
(0.00632367 -0.001922 -1.46458e-06)
(0.00804416 0.00193792 -1.53661e-05)
(0.00790764 0.000587401 -1.04908e-05)
(0.00782726 -0.000701637 -6.10757e-06)
(0.00779335 -0.00202899 -1.16378e-06)
(0.00952377 0.00197545 -1.77028e-05)
(0.00938481 0.000584267 -1.2379e-05)
(0.00929457 -0.00074248 -7.73362e-06)
(0.00924984 -0.00209626 -2.35721e-06)
)
;

boundaryField
{
    interface
    {
        type            tractionDisplacement;
        gradient        nonuniform List<vector> 
192
(
(0.026885 0.0368212 0.00085508)
(0.0128394 0.0367101 0.00200622)
(0.0142401 0.0484267 0.00090814)
(0.0116673 0.0551135 -0.00107659)
(0.00987645 0.0598349 -0.00316367)
(0.00819654 0.0620712 -0.00513765)
(0.00720926 0.0627305 -0.00671658)
(0.00670622 0.0634774 -0.0075876)
(0.0273608 0.0392396 0.000580235)
(0.0148264 0.0367512 0.00149082)
(0.0143938 0.0470118 0.00100827)
(0.0120143 0.0534913 -0.000152741)
(0.0100914 0.0580798 -0.00149218)
(0.00846314 0.0605137 -0.00286172)
(0.00749597 0.0615488 -0.00404843)
(0.00696833 0.0630137 -0.00480626)
(0.0284568 0.0406842 0.000170889)
(0.0154779 0.0369028 0.000512838)
(0.0148656 0.0462917 0.000263445)
(0.0122419 0.0525015 -0.000350815)
(0.0101166 0.0569423 -0.00118152)
(0.00836892 0.0594348 -0.0020711)
(0.00734223 0.0606638 -0.00289193)
(0.00666235 0.0625592 -0.00348096)
(0.0291455 0.0413473 -2.93046e-05)
(0.0159926 0.0369202 1.64203e-05)
(0.0153556 0.0459413 -0.000183164)
(0.0125959 0.0518958 -0.000556393)
(0.0103308 0.056223 -0.00106367)
(0.00847466 0.0587121 -0.00163106)
(0.00737688 0.0600313 -0.00218685)
(0.00660191 0.062157 -0.00263213)
(0.0295049 0.0416106 -0.000100227)
(0.0163306 0.0368653 -0.000181679)
(0.0157052 0.0457124 -0.000358591)
(0.0128834 0.0515248 -0.000611609)
(0.0105393 0.0557717 -0.000935506)
(0.00860962 0.0582375 -0.00130347)
(0.00745833 0.0595861 -0.00168383)
(0.00661049 0.0618239 -0.00201849)
(0.0296793 0.0416915 -0.000101271)
(0.0165366 0.036784 -0.000207759)
(0.0159323 0.0455466 -0.000349391)
(0.0130849 0.0512875 -0.000522635)
(0.0106994 0.055486 -0.000730478)
(0.00872727 0.0579276 -0.000966123)
(0.00754317 0.0592771 -0.00121765)
(0.0066562 0.0615657 -0.00145107)
(0.0297578 0.0417035 -6.94735e-05)
(0.0166505 0.0367125 -0.00014883)
(0.0160644 0.0454338 -0.000240068)
(0.0132078 0.0511409 -0.00034361)
(0.0108021 0.0553134 -0.000462489)
(0.00880745 0.0577372 -0.000596459)
(0.00760529 0.0590802 -0.000741733)
(0.00669794 0.0613904 -0.000880281)
(0.0297864 0.0416991 -2.42101e-05)
(0.0166998 0.0366723 -5.28884e-05)
(0.0161236 0.0453764 -8.42702e-05)
(0.0132643 0.0510698 -0.000118915)
(0.0108505 0.0552311 -0.000157889)
(0.00884634 0.0576461 -0.000201671)
(0.00763565 0.0589845 -0.000249395)
(0.00671872 0.0613001 -0.000295345)
(-0.00215993 0.0133041 0.0144657)
(-0.00420728 -0.00383777 0.00223382)
(-0.0021643 -0.00334444 0.00363715)
(4.62253e-05 -0.00466456 0.00176173)
(0.00267696 -0.00452618 0.000700649)
(0.00506337 -0.00403021 -0.000323698)
(0.00696757 -0.00330429 -0.00097412)
(0.00834724 -0.00212602 -0.00176932)
(-0.00514705 0.00495081 0.00321352)
(-0.00920901 -0.00146775 0.000709145)
(-0.00656672 -0.00121102 0.000507037)
(-0.00379729 -0.00164967 -7.47186e-05)
(-0.000694437 -0.00170887 -0.000445207)
(0.00209038 -0.00170249 -0.000763445)
(0.00441605 -0.00168581 -0.00099713)
(0.0062939 -0.00138896 -0.00151757)
(-0.00552045 -0.00668422 -0.00399127)
(-0.0096753 0.00104893 -0.000900344)
(-0.00716291 0.00103662 -0.00123025)
(-0.00437263 0.00148448 -0.00094866)
(-0.00128012 0.00124155 -0.000758277)
(0.00153817 0.0008037 -0.000528791)
(0.00394205 0.00023212 -0.000324321)
(0.00580412 -0.000375147 0.000109733)
(-0.00351549 -0.0168349 -0.0142717)
(-0.00577444 0.00273889 -0.00254434)
(-0.00426166 0.00277213 -0.00429363)
(-0.00210704 0.00420179 -0.00269166)
(0.000449539 0.00388502 -0.00179449)
(0.00286284 0.00313743 -0.000854243)
(0.00489983 0.00200413 -0.000135657)
(0.00633409 0.000410314 0.000646738)
(0.0222926 -0.0356409 -0.00170125)
(0.0090348 -0.0363399 -0.00373433)
(0.00882085 -0.0492047 -0.00329651)
(0.00534805 -0.0560168 -0.00151355)
(0.00291025 -0.0606008 0.000547548)
(0.00093686 -0.0624819 0.00265623)
(-0.000214755 -0.0625444 0.00450004)
(-0.000433453 -0.0616784 0.0057801)
(0.0219148 -0.0385295 -0.000981147)
(0.0107315 -0.0371121 -0.00216657)
(0.0087319 -0.0479508 -0.00191139)
(0.00542945 -0.0544699 -0.000778053)
(0.002853 -0.0588045 0.000608308)
(0.000881674 -0.0607885 0.00207859)
(-0.000315057 -0.0611322 0.00340735)
(-0.000487812 -0.0607742 0.00447753)
(0.0226666 -0.039968 -0.000416093)
(0.0113231 -0.0374645 -0.000852552)
(0.00925326 -0.0472866 -0.000681189)
(0.00576363 -0.0534801 -6.24906e-05)
(0.00299809 -0.057607 0.000812592)
(0.000880972 -0.0595955 0.00177487)
(-0.00044018 -0.060061 0.00271099)
(-0.000805024 -0.0598626 0.00355877)
(0.0231121 -0.0404768 -0.000124911)
(0.0117517 -0.0375117 -0.000198089)
(0.00967147 -0.0469573 -1.79743e-05)
(0.00607546 -0.0528724 0.000372726)
(0.00317596 -0.0568502 0.000915711)
(0.000936915 -0.0587905 0.00153599)
(-0.000497727 -0.0592683 0.00217687)
(-0.000981449 -0.0590913 0.00280736)
(0.0233003 -0.0405504 -3.62812e-07)
(0.0120156 -0.0374319 7.32715e-05)
(0.00993701 -0.0467211 0.00024849)
(0.00628761 -0.0524926 0.000519182)
(0.00331109 -0.0563702 0.000869256)
(0.000990166 -0.0582539 0.00127301)
(-0.000525997 -0.0587025 0.00170803)
(-0.00108544 -0.0584905 0.00216414)
(0.0233572 -0.0404662 3.80057e-05)
(0.0121637 -0.0373158 0.000143181)
(0.010092 -0.0465387 0.000287494)
(0.00641699 -0.0522434 0.000474351)
(0.00339823 -0.0560621 0.000699744)
(0.0010292 -0.0579005 0.00095737)
(-0.000536834 -0.0583122 0.00124081)
(-0.00113364 -0.0580541 0.00154884)
(0.0233616 -0.040361 3.49228e-05)
(0.0122393 -0.0372162 0.000114789)
(0.0101748 -0.0464107 0.000208555)
(0.0064889 -0.0520864 0.000320289)
(0.00344845 -0.0558739 0.000449051)
(0.00105361 -0.0576828 0.000594483)
(-0.000539781 -0.0580662 0.000756005)
(-0.00115346 -0.0577714 0.00093421)
(0.0233551 -0.0402967 1.33925e-05)
(0.0122705 -0.0371608 4.24339e-05)
(0.0102104 -0.0463445 7.4807e-05)
(0.00652069 -0.0520094 0.00011215)
(0.00347106 -0.0557836 0.000154269)
(0.00106514 -0.0575783 0.000201517)
(-0.000539881 -0.0579469 0.000254202)
(-0.00116028 -0.0576325 0.000312579)
(0.0633231 0.000275717 -0.00141342)
(0.0630464 0.000100312 -0.000718118)
(0.0627603 0.000467874 -0.000516829)
(0.0624457 0.000692788 -0.000304964)
(0.0621428 0.000863436 -0.000196032)
(0.0618964 0.000964863 -0.000125799)
(0.0617249 0.00102087 -7.2918e-05)
(0.0616357 0.00104174 -2.40185e-05)
(0.0587283 0.000319795 -0.000835208)
(0.0585475 0.000199932 -0.000608077)
(0.0582622 0.000319177 -0.000580611)
(0.0579117 0.000452981 -0.00048465)
(0.0575469 0.000572545 -0.000384744)
(0.0572421 0.00065813 -0.000278178)
(0.0570296 0.000712255 -0.000168175)
(0.0569231 0.000738993 -5.60869e-05)
(0.057986 -0.00187607 -0.00030989)
(0.0577185 -0.00166918 -0.000684322)
(0.0572636 -0.0015982 -0.000829941)
(0.0567827 -0.00152817 -0.000821651)
(0.0563369 -0.00146217 -0.00069765)
(0.0559807 -0.00140587 -0.000518597)
(0.055738 -0.00136538 -0.000316144)
(0.0556161 -0.00134343 -0.000105863)
(0.0606195 -0.00259041 -4.43234e-05)
(0.0599956 -0.00224061 -0.00105456)
(0.0592435 -0.00231916 -0.00132042)
(0.0585619 -0.00234194 -0.00131028)
(0.0579977 -0.0023403 -0.00110517)
(0.0575756 -0.00231593 -0.000816686)
(0.0572973 -0.00228988 -0.000495778)
(0.057159 -0.00227385 -0.000165812)
)
;
        traction        nonuniform List<vector> 
192
(
(23.42 -0.835027 -2.30971)
(23.6735 -0.89487 -3.95718)
(23.7103 -1.17247 -4.69588)
(23.9441 -1.18869 -5.07141)
(24.3446 -0.963086 -5.23803)
(24.8273 -0.416521 -5.21463)
(25.1658 0.643167 -4.94575)
(23.9984 2.38539 -4.26141)
(26.2637 -1.17762 -1.6363)
(26.8283 -1.24086 -2.81697)
(27.5775 -1.5577 -3.34296)
(28.4391 -1.55961 -3.59759)
(29.2556 -1.25324 -3.68733)
(29.8118 -0.53635 -3.62434)
(29.5753 0.846151 -3.37817)
(26.2418 2.99436 -2.8773)
(28.0944 -1.33789 -1.15642)
(28.6098 -1.37927 -1.9823)
(29.4872 -1.70603 -2.32434)
(30.4974 -1.68947 -2.47286)
(31.389 -1.3209 -2.50799)
(31.8502 -0.488551 -2.44454)
(31.1787 1.07737 -2.27324)
(26.7471 3.38534 -1.96637)
(29.4067 -1.41867 -0.835757)
(29.8544 -1.4373 -1.43395)
(30.7383 -1.7686 -1.67056)
(31.7717 -1.73501 -1.76412)
(32.6541 -1.32318 -1.77884)
(33.0096 -0.415248 -1.72991)
(32.0459 1.2615 -1.61778)
(26.957 3.64957 -1.42176)
(30.3523 -1.46371 -0.595899)
(30.7575 -1.46324 -1.02597)
(31.6242 -1.79442 -1.19248)
(32.6486 -1.74853 -1.25423)
(33.5036 -1.30784 -1.26161)
(33.7755 -0.350847 -1.22818)
(32.6168 1.39764 -1.15691)
(27.0884 3.83552 -1.02837)
(31.0095 -1.49025 -0.401516)
(31.3938 -1.47533 -0.693358)
(32.2418 -1.80422 -0.805465)
(33.2536 -1.74995 -0.845645)
(34.0819 -1.29072 -0.850082)
(34.295 -0.302208 -0.829119)
(33.0084 1.49332 -0.785409)
(27.1846 3.96366 -0.702902)
(31.4388 -1.50583 -0.231028)
(31.8059 -1.48096 -0.399795)
(32.6402 -1.80764 -0.464126)
(33.6411 -1.7481 -0.486884)
(34.451 -1.2777 -0.489391)
(34.6271 -0.269861 -0.477909)
(33.2616 1.55496 -0.452752)
(27.2549 4.04281 -0.403423)
(31.6389 -1.51216 -0.0746461)
(31.9984 -1.48195 -0.129502)
(32.8225 -1.80719 -0.150159)
(33.8159 -1.74545 -0.157425)
(34.6165 -1.26981 -0.158212)
(34.7753 -0.251328 -0.154529)
(33.3611 1.59028 -0.145695)
(27.2493 4.07793 -0.12799)
(2.81104 0.477877 11.225)
(4.87204 0.940913 7.98113)
(5.86112 0.912149 4.96002)
(6.49518 0.763661 2.76657)
(6.98005 0.674604 1.39762)
(7.40414 0.739686 0.775792)
(7.89526 0.974073 0.857726)
(8.8602 1.24271 1.678)
(1.8798 0.459725 9.96781)
(3.41748 0.910828 8.61476)
(4.03321 1.02605 6.83062)
(4.35267 0.886123 5.39521)
(4.59052 0.678882 4.47894)
(4.857 0.527722 4.05927)
(5.30858 0.472252 4.04889)
(6.51129 0.395781 4.14307)
(1.48774 0.400297 9.0479)
(2.89193 0.718544 8.56644)
(3.48648 0.907726 7.45121)
(3.7623 0.806947 6.4441)
(3.94064 0.583604 5.79875)
(4.1561 0.362393 5.51708)
(4.57492 0.194246 5.53986)
(5.75207 0.0228139 5.63173)
(1.40545 0.414092 7.87652)
(2.86683 0.638826 7.66228)
(3.56992 0.839094 6.74195)
(3.90169 0.745911 5.86401)
(4.09653 0.515809 5.28812)
(4.30996 0.261236 5.00001)
(4.71007 0.00466343 4.93033)
(5.80455 -0.321734 5.05292)
(-4.63036 0.463204 0.342885)
(-3.5475 0.751682 0.598494)
(-2.35844 0.925811 0.633617)
(-1.42846 0.85878 0.629351)
(-0.720966 0.672572 0.686152)
(-0.0577635 0.448871 0.840225)
(1.02258 0.0834556 1.09931)
(3.79038 -1.25195 1.42514)
(-5.31349 0.340982 -0.0693564)
(-5.05447 0.522888 -0.110983)
(-4.57139 0.699774 -0.174789)
(-4.04726 0.725504 -0.212548)
(-3.54242 0.665433 -0.182453)
(-2.9519 0.572206 -0.077173)
(-1.90133 0.362839 0.0834877)
(1.19176 -0.861836 0.306212)
(-5.70207 0.292195 -0.143127)
(-5.65152 0.408445 -0.221241)
(-5.36551 0.577578 -0.251366)
(-4.97231 0.656376 -0.248005)
(-4.50975 0.67837 -0.197721)
(-3.89045 0.670194 -0.103507)
(-2.79563 0.550534 0.0103631)
(0.237112 -0.524313 0.115398)
(-5.98011 0.278545 -0.134932)
(-5.98398 0.359821 -0.203845)
(-5.7757 0.525751 -0.208712)
(-5.42778 0.640576 -0.180746)
(-4.95606 0.721879 -0.121939)
(-4.28761 0.776751 -0.0405933)
(-3.1033 0.70465 0.0403371)
(-0.170404 -0.274263 0.0825015)
(-6.18177 0.27687 -0.10336)
(-6.20024 0.343492 -0.153266)
(-6.02216 0.512527 -0.144779)
(-5.68751 0.65371 -0.109057)
(-5.19679 0.775572 -0.0551187)
(-4.48243 0.87022 0.00632718)
(-3.24848 0.824173 0.0547843)
(-0.40712 -0.0942666 0.0649607)
(-6.31441 0.279277 -0.0680209)
(-6.33326 0.34232 -0.0985849)
(-6.16271 0.517348 -0.085762)
(-5.82681 0.676638 -0.0535861)
(-5.31843 0.823349 -0.011997)
(-4.5756 0.940123 0.0288642)
(-3.32039 0.907552 0.0542955)
(-0.546642 0.0259004 0.0492272)
(-6.39216 0.282186 -0.0371581)
(-6.40797 0.346087 -0.052596)
(-6.23682 0.526814 -0.0423996)
(-5.8957 0.697348 -0.0209812)
(-5.3741 0.857579 0.00450804)
(-4.61663 0.985487 0.0273228)
(-3.35596 0.958114 0.0390511)
(-0.625846 0.0974912 0.0293731)
(-6.42659 0.284042 -0.0116175)
(-6.43955 0.34901 -0.0161714)
(-6.26734 0.532773 -0.012445)
(-5.92336 0.708547 -0.00510746)
(-5.39677 0.874889 0.00327964)
(-4.6334 1.00767 0.0105481)
(-3.36857 0.9807 0.013915)
(-0.673361 0.131021 0.00913286)
(9.31088 -1.81896 -1.99218)
(8.86147 -0.0639872 -1.64681)
(8.8903 1.31754 -1.27584)
(9.01726 2.39571 -0.983065)
(9.14787 3.19555 -0.741705)
(9.25654 3.76075 -0.526077)
(9.33345 4.10922 -0.324028)
(9.36729 4.20967 -0.112676)
(6.71142 -3.64124 -0.543764)
(5.76707 -2.7641 -0.491723)
(5.55243 -1.8077 -0.36638)
(5.50995 -1.01929 -0.281065)
(5.51343 -0.437551 -0.218486)
(5.52952 -0.0281998 -0.159393)
(5.54931 0.238544 -0.0974471)
(5.57072 0.390784 -0.0326125)
(5.7108 -5.01381 0.0732083)
(4.62347 -4.42195 0.00244175)
(4.27941 -3.70705 0.00564595)
(4.13418 -3.14261 -0.00432594)
(4.05979 -2.73399 -0.0152612)
(4.01827 -2.45063 -0.0181611)
(3.9958 -2.27037 -0.011727)
(3.98599 -2.16826 -0.00306658)
(5.59302 -4.62353 0.472376)
(4.52403 -4.11581 0.237835)
(4.1246 -3.68082 0.13752)
(3.92541 -3.32286 0.0825177)
(3.80608 -3.06453 0.0455449)
(3.73077 -2.88884 0.0223931)
(3.68521 -2.78031 0.00976234)
(3.66068 -2.72961 0.00287016)
)
;
        pressure        uniform 0;
        value           nonuniform List<vector> 
192
(
(0.000620028 0.000648645 0.000334037)
(0.00134903 0.00123323 0.000295607)
(0.00251266 0.00179964 0.00020578)
(0.00384395 0.0022052 6.84482e-05)
(0.00532487 0.00247913 -7.20706e-05)
(0.00687565 0.0026357 -0.000200435)
(0.0084472 0.00270695 -0.00030456)
(0.0100079 0.00273492 -0.000380463)
(0.000661348 0.000676597 0.000168691)
(0.00145251 0.00122706 0.000171844)
(0.00257494 0.00179331 0.000120214)
(0.0038759 0.00220156 3.05653e-05)
(0.00531262 0.0024778 -6.80993e-05)
(0.00682118 0.00263803 -0.000161881)
(0.00835465 0.00271328 -0.000240677)
(0.00988691 0.00274839 -0.000298673)
(0.000690972 0.000700518 8.09988e-05)
(0.00149566 0.00122237 8.29292e-05)
(0.00261151 0.00177498 5.06172e-05)
(0.00389174 0.00217915 -6.59846e-06)
(0.00530142 0.00245605 -7.31868e-05)
(0.00678142 0.00262143 -0.000138699)
(0.0082886 0.00270499 -0.000195615)
(0.00979948 0.00275236 -0.000238381)
(0.000705118 0.000712152 3.61518e-05)
(0.00151395 0.00121838 3.28731e-05)
(0.00262609 0.00176093 9.71879e-06)
(0.00389449 0.00215958 -2.83164e-05)
(0.00528786 0.00243591 -7.302e-05)
(0.00674969 0.00260462 -0.000118182)
(0.00823922 0.00269447 -0.000158715)
(0.00973504 0.00275058 -0.000190018)
(0.000711124 0.000716955 1.41804e-05)
(0.00152001 0.00121492 7.86323e-06)
(0.00262853 0.00175148 -9.52086e-06)
(0.00388938 0.00214637 -3.53985e-05)
(0.00527258 0.00242187 -6.5485e-05)
(0.00672273 0.00259238 -9.63335e-05)
(0.00820027 0.00268601 -0.000124782)
(0.00968468 0.00274743 -0.000147262)
(0.000713437 0.00071859 4.31391e-06)
(0.00152092 0.00121215 -2.22969e-06)
(0.00262611 0.00174547 -1.46802e-05)
(0.00388181 0.00213826 -3.17812e-05)
(0.00525846 0.0024132 -5.13512e-05)
(0.00670104 0.00258461 -7.15602e-05)
(0.00817047 0.00268025 -9.05419e-05)
(0.00964668 0.00274464 -0.000105768)
(0.000714221 0.000718958 6.69021e-07)
(0.00152021 0.00121021 -4.03732e-06)
(0.00262288 0.00174192 -1.159e-05)
(0.00387521 0.00213369 -2.14414e-05)
(0.00524783 0.00240836 -3.25727e-05)
(0.00668577 0.0025802 -4.41034e-05)
(0.00815006 0.00267682 -5.50513e-05)
(0.00962091 0.00274273 -6.39088e-05)
(0.000714412 0.000718964 -5.84806e-08)
(0.00151951 0.00120922 -1.75223e-06)
(0.00262082 0.00174027 -4.28789e-06)
(0.00387147 0.00213164 -7.51602e-06)
(0.00524213 0.00240621 -1.11395e-05)
(0.00667783 0.00257822 -1.48977e-05)
(0.00813961 0.00267523 -1.84835e-05)
(0.00960775 0.0027417 -2.13946e-05)
(0.000256966 0.000354681 0.000504169)
(0.00113594 0.000726378 0.000298452)
(0.00230761 0.0011525 0.000239892)
(0.00369869 0.00145797 0.000103927)
(0.00523487 0.00167462 -2.37666e-05)
(0.00683649 0.00180943 -0.00014026)
(0.00844418 0.00188151 -0.00023278)
(0.0100284 0.00191487 -0.000307734)
(5.67965e-05 9.83964e-05 0.000136732)
(0.00087222 0.000188345 0.000105244)
(0.00205106 0.000330264 5.60191e-05)
(0.00346918 0.000423264 -2.0357e-07)
(0.00502989 0.000480033 -5.36451e-05)
(0.00665352 0.000504548 -0.000102353)
(0.00827821 0.000504472 -0.000146065)
(0.00986217 0.000493962 -0.000191235)
(3.84888e-05 -0.000139562 -0.000166481)
(0.000828781 -0.000233133 -0.000170919)
(0.00199219 -0.000389739 -0.000163426)
(0.00340141 -0.000519435 -0.000140197)
(0.00495587 -0.00063372 -0.000114584)
(0.00657617 -0.00072935 -9.17414e-05)
(0.00819895 -0.000807575 -7.6769e-05)
(0.00977548 -0.000869009 -6.85817e-05)
(0.000196736 -0.000420449 -0.000537042)
(0.000996452 -0.000779397 -0.000391415)
(0.00212151 -0.00122288 -0.000373571)
(0.00348321 -0.00156579 -0.000271781)
(0.00499879 -0.00183668 -0.000171759)
(0.00658899 -0.00203529 -7.87155e-05)
(0.00819146 -0.00217563 -7.22304e-06)
(0.00976021 -0.00227695 3.58323e-05)
(0.000519338 -0.000655523 -0.000379911)
(0.00118157 -0.00126788 -0.00040629)
(0.00228504 -0.00187259 -0.000361107)
(0.0035764 -0.00231852 -0.000257054)
(0.00502954 -0.00264276 -0.000142483)
(0.00656491 -0.00285553 -3.48345e-05)
(0.00812753 -0.00298248 5.07232e-05)
(0.00967561 -0.00305305 9.99993e-05)
(0.000545642 -0.000679472 -0.000206091)
(0.00128667 -0.00126123 -0.000254875)
(0.00234955 -0.00185916 -0.000237955)
(0.00360948 -0.0023033 -0.000175724)
(0.00501714 -0.002622 -9.95991e-05)
(0.00650866 -0.00282931 -2.58707e-05)
(0.00803246 -0.00295088 3.22962e-05)
(0.009554 -0.00301937 6.28539e-05)
(0.000565123 -0.000702115 -0.00010972)
(0.00132321 -0.00125452 -0.000147202)
(0.00238098 -0.00183292 -0.000142765)
(0.0036203 -0.00226646 -0.000108786)
(0.00500042 -0.00257797 -6.21625e-05)
(0.00646268 -0.00278166 -1.5424e-05)
(0.00795935 -0.00290221 2.12999e-05)
(0.00945722 -0.00297126 3.70817e-05)
(0.000571779 -0.000711069 -5.68645e-05)
(0.00133375 -0.00124611 -8.19333e-05)
(0.00238795 -0.00180954 -8.114e-05)
(0.00361582 -0.00223157 -6.23005e-05)
(0.0049797 -0.00253566 -3.47323e-05)
(0.00642361 -0.00273527 -6.33032e-06)
(0.00790186 -0.00285416 1.55266e-05)
(0.00938201 -0.00292273 2.18209e-05)
(0.000572431 -0.000712799 -2.84148e-05)
(0.00133346 -0.00123757 -4.39904e-05)
(0.00238373 -0.00179082 -4.39711e-05)
(0.00360435 -0.00220407 -3.32589e-05)
(0.0049583 -0.00250173 -1.70879e-05)
(0.00639058 -0.00269725 -2.74326e-07)
(0.00785633 -0.00281381 1.21475e-05)
(0.00932329 -0.00288093 1.34007e-05)
(0.00057105 -0.000711739 -1.34524e-05)
(0.00132972 -0.00123027 -2.24651e-05)
(0.00237633 -0.00177688 -2.24657e-05)
(0.00359197 -0.00218415 -1.63727e-05)
(0.0049396 -0.00247705 -7.09997e-06)
(0.00636443 -0.00266914 2.49301e-06)
(0.00782181 -0.00278339 9.18948e-06)
(0.00927946 -0.00284884 8.36685e-06)
(0.000569487 -0.000710178 -5.73596e-06)
(0.001326 -0.00122505 -1.03135e-05)
(0.00236985 -0.00176765 -1.02603e-05)
(0.00358224 -0.00217125 -7.09916e-06)
(0.00492599 -0.00246106 -2.3043e-06)
(0.00634628 -0.00265077 2.60418e-06)
(0.00779843 -0.00276329 5.84247e-06)
(0.00925011 -0.00282737 4.73496e-06)
(0.000568554 -0.000709188 -1.55898e-06)
(0.00132386 -0.00122235 -2.9486e-06)
(0.00236624 -0.00176305 -2.91757e-06)
(0.003577 -0.00216491 -1.93527e-06)
(0.00491887 -0.00245322 -4.52244e-07)
(0.00633698 -0.00264173 1.05438e-06)
(0.0077866 -0.00275332 2.01375e-06)
(0.00923534 -0.00281667 1.55003e-06)
(0.0107156 0.0019449 -0.000303285)
(0.0105879 0.00196197 -0.000247571)
(0.0105007 0.00197621 -0.00020133)
(0.0104331 0.00198227 -0.000160929)
(0.0103788 0.00198543 -0.000124482)
(0.0103372 0.00198713 -8.92021e-05)
(0.0103087 0.00198811 -5.38168e-05)
(0.0102942 0.00198847 -1.8003e-05)
(0.0105176 0.000515321 -0.000182705)
(0.0103992 0.000531641 -0.000156751)
(0.0103121 0.000548031 -0.00013525)
(0.0102423 0.00056267 -0.000112648)
(0.0101855 0.000574788 -8.90885e-05)
(0.0101416 0.00058405 -6.45008e-05)
(0.0101116 0.00059032 -3.90638e-05)
(0.0100963 0.000593505 -1.30801e-05)
(0.0104278 -0.000887771 -7.3827e-05)
(0.0103107 -0.000866982 -8.0794e-05)
(0.0102186 -0.000842552 -8.04084e-05)
(0.0101437 -0.000817386 -7.27982e-05)
(0.0100833 -0.000795011 -5.99971e-05)
(0.0100371 -0.000777375 -4.42485e-05)