/*--------------------------------*- C++ -*----------------------------------*\
| =========                 |                                                 |
| \\      /  F ield         | foam-extend: Open Source CFD                    |
|  \\    /   O peration     | Version:     3.1                                |
|   \\  /    A nd           | Web:         http://www.extend-project.de       |
|    \\/     M anipulation  |                                                 |
\*---------------------------------------------------------------------------*/
FoamFile
{
    version     2.0;
    format      ascii;
    class       volVectorField;
    location    "2.8";
    object      D_0;
}
// * * * * * * * * * * * * * * * * * * * * * * * * * * * * * * * * * * * * * //

dimensions      [0 1 0 0 0 0 0];

internalField   nonuniform List<vector> 
256
(
(0.000285835 0.000189313 0.000325825)
(0.000122007 3.65968e-05 9.73253e-05)
(0.000108291 -5.65057e-05 -0.000117438)
(0.00024233 -0.000211563 -0.000361481)
(0.00119607 0.000778303 0.000274153)
(0.000993949 0.000207399 9.80169e-05)
(0.000956262 -0.000248242 -0.000160333)
(0.00107588 -0.000819209 -0.000362258)
(0.00234913 0.00119986 0.000199108)
(0.00214688 0.000346292 5.21073e-05)
(0.0020954 -0.000406048 -0.000147882)
(0.00218898 -0.00126592 -0.000321872)
(0.00372016 0.00152252 8.75499e-05)
(0.00353831 0.000444551 4.07187e-06)
(0.00347771 -0.0005426 -0.000127149)
(0.00353147 -0.00162885 -0.000239003)
(0.00523093 0.00173724 -2.5803e-05)
(0.00506808 0.0005015 -4.37278e-05)
(0.00500144 -0.000654935 -0.000102813)
(0.00502284 -0.00189722 -0.000149024)
(0.00680956 0.00186501 -0.000128274)
(0.00666408 0.000525167 -8.735e-05)
(0.0065938 -0.000745999 -8.17315e-05)
(0.00659006 -0.00208735 -6.6632e-05)
(0.00839932 0.00192681 -0.000211293)
(0.00826588 0.000524034 -0.000126896)
(0.00819284 -0.000817816 -6.81999e-05)
(0.00817335 -0.002214 -3.12213e-06)
(0.00997095 0.00194418 -0.000274615)
(0.00983144 0.000508946 -0.000164074)
(0.00975141 -0.000872296 -6.4229e-05)
(0.00972946 -0.00229572 3.11584e-05)
(0.000321495 0.000186897 0.000162903)
(0.000162825 3.73805e-05 5.04599e-05)
(0.000149342 -5.14836e-05 -6.86595e-05)
(0.000273902 -0.000199383 -0.000195635)
(0.00127582 0.000771091 0.000155853)
(0.00104876 0.000208156 4.99242e-05)
(0.0010138 -0.000239047 -0.000105505)
(0.00116113 -0.000803185 -0.00022971)
(0.00241093 0.00121057 0.000111334)
(0.00220894 0.000353969 2.11926e-05)
(0.00216026 -0.000405478 -0.000106838)
(0.00225627 -0.00126882 -0.000215565)
(0.00374945 0.00153836 3.72142e-05)
(0.00357002 0.000455655 -1.34626e-05)
(0.00351207 -0.000542515 -9.6844e-05)
(0.00356541 -0.00163381 -0.000166702)
(0.00521787 0.00175692 -4.36428e-05)
(0.00506036 0.000515803 -4.9219e-05)
(0.00499593 -0.000652725 -8.27528e-05)
(0.00501317 -0.00189991 -0.000106984)
(0.0067538 0.00188577 -0.00011916)
(0.00661476 0.000541599 -8.29811e-05)
(0.00654639 -0.000739282 -7.02551e-05)
(0.0065367 -0.00208339 -5.07041e-05)
(0.00830544 0.00194675 -0.000181888)
(0.00817986 0.000541237 -0.000113972)
(0.00810891 -0.000805627 -6.38151e-05)
(0.00808192 -0.00220126 -8.22612e-06)
(0.00984918 0.0019622 -0.000228979)
(0.00971781 0.000525549 -0.000141914)
(0.00964017 -0.000855354 -6.71411e-05)
(0.00961107 -0.00227468 9.93659e-06)
(0.000337538 0.000192795 7.98085e-05)
(0.000169633 3.98037e-05 2.39067e-05)
(0.000154495 -5.21996e-05 -4.05128e-05)
(0.000284319 -0.000204164 -0.000105704)
(0.00131138 0.000764352 7.84719e-05)
(0.00106506 0.00020741 1.96629e-05)
(0.00102845 -0.000232467 -6.77309e-05)
(0.00119119 -0.000792378 -0.000137871)
(0.0024425 0.00120092 5.02377e-05)
(0.00222611 0.000354651 -1.13715e-07)
(0.00217561 -0.000396845 -7.41436e-05)
(0.00228241 -0.00125137 -0.000135311)
(0.00376359 0.00152785 1.64528e-06)
(0.00357464 0.000458095 -2.48764e-05)
(0.00351463 -0.000531128 -7.1354e-05)
(0.00357352 -0.00161 -0.000108485)
(0.00520767 0.00174877 -5.35811e-05)
(0.00504386 0.000520953 -5.09701e-05)
(0.00497714 -0.000638388 -6.48631e-05)
(0.0049963 -0.00187162 -7.20848e-05)
(0.00671668 0.0018819 -0.000106951)
(0.00657382 0.000549859 -7.63258e-05)
(0.0065031 -0.000721843 -5.90246e-05)
(0.00649254 -0.00205156 -3.66036e-05)
(0.00824292 0.00194862 -0.000152539)
(0.00811568 0.000552496 -0.000100148)
(0.00804251 -0.000785332 -5.78886e-05)
(0.00801232 -0.00216699 -1.07699e-05)
(0.00976729 0.00197079 -0.000186758)
(0.00963606 0.000539457 -0.000121788)
(0.00955568 -0.000832824 -6.56174e-05)
(0.00952032 -0.00223903 -4.70825e-06)
(0.00034312 0.00019617 3.71579e-05)
(0.000168445 4.10375e-05 1.0011e-05)
(0.000151846 -5.2575e-05 -2.3746e-05)
(0.000285602 -0.00020686 -5.60834e-05)
(0.00132354 0.000760102 3.41195e-05)
(0.00106533 0.000207064 3.83519e-06)
(0.00102646 -0.00022731 -4.31896e-05)
(0.00119697 -0.00078364 -8.03495e-05)
(0.00245152 0.00119109 1.42539e-05)
(0.00222446 0.000354522 -1.07192e-05)
(0.00217156 -0.000387364 -5.04524e-05)
(0.00228502 -0.00123251 -8.16196e-05)
(0.0037627 0.00151557 -1.83098e-05)
(0.00356554 0.000459109 -2.85749e-05)
(0.00350308 -0.000517765 -5.1251e-05)
(0.00356623 -0.00158322 -6.72348e-05)
(0.00519239 0.00173721 -5.58336e-05)
(0.0050226 0.00052409 -4.753e-05)
(0.00495341 -0.000621637 -4.92366e-05)
(0.00497461 -0.00183939 -4.5902e-05)
(0.00668473 0.00187359 -9.30359e-05)
(0.00653778 0.000555836 -6.63661e-05)
(0.00646463 -0.000702257 -4.75742e-05)
(0.00645417 -0.00201593 -2.46302e-05)
(0.0081943 0.00194533 -0.000125732)
(0.00806459 0.000561572 -8.45629e-05)
(0.00798898 -0.000763516 -4.95452e-05)
(0.00795707 -0.00212961 -1.01066e-05)
(0.00970485 0.00197323 -0.000150514)
(0.00957203 0.000551641 -0.000101478)
(0.00948836 -0.000809309 -5.88472e-05)
(0.00944891 -0.00220094 -1.09636e-05)
(0.000344647 0.000197702 1.58707e-05)
(0.000165867 4.1701e-05 3.30153e-06)
(0.000148225 -5.26268e-05 -1.36681e-05)
(0.000284023 -0.000207743 -2.89169e-05)
(0.00132555 0.000757327 1.11923e-05)
(0.00106011 0.000207251 -3.06379e-06)
(0.00101938 -0.000223181 -2.71028e-05)
(0.00119375 -0.000776309 -4.54865e-05)
(0.00244995 0.00118444 -3.36523e-06)
(0.00221593 0.000355022 -1.38727e-05)
(0.00216104 -0.000379177 -3.34693e-05)
(0.00227808 -0.00121704 -4.75172e-05)
(0.00375453 0.00150682 -2.54424e-05)
(0.00355156 0.000460546 -2.66552e-05)
(0.00348716 -0.000505882 -3.55884e-05)
(0.00355288 -0.00156086 -3.98728e-05)
(0.00517519 0.00172854 -5.08116e-05)
(0.00500089 0.000527164 -4.02126e-05)
(0.00492984 -0.000606601 -3.57932e-05)
(0.00495245 -0.00181193 -2.76626e-05)
(0.00665688 0.0018669 -7.6371e-05)
(0.00650663 0.000561087 -5.39101e-05)
(0.0064317 -0.000684684 -3.62897e-05)
(0.00642152 -0.00198513 -1.54146e-05)
(0.00815522 0.00194195 -9.93655e-05)
(0.00802326 0.000569208 -6.74585e-05)
(0.00794583 -0.000744021 -3.95298e-05)
(0.00791303 -0.00209688 -7.89951e-06)
(0.00965531 0.00197365 -0.000116928)
(0.00952082 0.000561685 -8.02917e-05)
(0.00943464 -0.000788328 -4.83737e-05)
(0.00939267 -0.00216723 -1.17798e-05)
(0.000344781 0.000198337 5.86749e-06)
(0.000163635 4.20753e-05 4.81629e-07)
(0.000145289 -5.25285e-05 -7.56418e-06)
(0.000282007 -0.000207787 -1.42413e-05)
(0.00132397 0.000755572 1.09271e-06)
(0.00105425 0.000207697 -4.82572e-06)
(0.00101219 -0.000220054 -1.62871e-05)
(0.00118841 -0.000770609 -2.46104e-05)
(0.00244491 0.00118047 -9.15156e-06)
(0.00220656 0.000355949 -1.24181e-05)
(0.00215025 -0.000372888 -2.10613e-05)
(0.00226913 -0.00120561 -2.63142e-05)
(0.00374479 0.00150159 -2.36289e-05)
(0.00353802 0.000462299 -2.11084e-05)
(0.00347226 -0.000496659 -2.32268e-05)
(0.00353941 -0.00154434 -2.23372e-05)
(0.00515954 0.00172328 -4.01173e-05)
(0.00498216 0.000530143 -3.02937e-05)
(0.00490984 -0.000594853 -2.42046e-05)
(0.00493331 -0.00179142 -1.55902e-05)
(0.00663429 0.00186276 -5.68819e-05)
(0.00648168 0.000565596 -3.96786e-05)
(0.00640558 -0.000670899 -2.54408e-05)
(0.00639562 -0.0019618 -8.87485e-06)
(0.00812499 0.00193973 -7.22163e-05)
(0.00799132 0.000575348 -4.91168e-05)
(0.00791271 -0.000728695 -2.86076e-05)
(0.00787945 -0.00207173 -5.34168e-06)
(0.0096174 0.00197367 -8.4005e-05)
(0.00948146 0.000569472 -5.81728e-05)
(0.00939364 -0.000771794 -3.5671e-05)
(0.00935029 -0.00214098 -9.61126e-06)
(0.000344569 0.000198564 1.70193e-06)
(0.000162138 4.22817e-05 -3.29208e-07)
(0.000143358 -5.24038e-05 -3.75428e-06)
(0.000280433 -0.000207573 -6.34294e-06)
(0.00132188 0.000754535 -1.75171e-06)
(0.00104977 0.000208134 -3.79215e-06)
(0.00100686 -0.000217955 -8.64662e-06)
(0.00118389 -0.000766731 -1.19386e-05)
(0.00244015 0.00117831 -7.90456e-06)
(0.00219928 0.000356846 -8.32732e-06)
(0.00214207 -0.000368664 -1.15668e-05)
(0.00226186 -0.00119812 -1.2996e-05)
(0.00373688 0.0014988 -1.61866e-05)
(0.00352784 0.000463833 -1.34053e-05)
(0.00346122 -0.000490447 -1.309e-05)
(0.00352912 -0.00153359 -1.11012e-05)
(0.00514792 0.0017205 -2.55401e-05)
(0.00496864 0.000532509 -1.87561e-05)
(0.00489555 -0.000586915 -1.39777e-05)
(0.00491949 -0.001778 -7.74216e-06)
(0.00661836 0.00186057 -3.50948e-05)
(0.00646427 0.000568932 -2.42599e-05)
(0.00638745 -0.000661558 -1.50485e-05)
(0.00637765 -0.00194639 -4.44625e-06)
(0.00810421 0.00193856 -4.39237e-05)
(0.00796941 0.000579683 -2.985e-05)
(0.00789009 -0.000718282 -1.72683e-05)
(0.00785663 -0.00205494 -2.99939e-06)
(0.00959151 0.0019737 -5.07402e-05)
(0.00945458 0.000574811 -3.52512e-05)
(0.00936577 -0.000760531 -2.17709e-05)
(0.00932173 -0.0021233 -6.09379e-06)
(0.000344393 0.000198628 2.97709e-07)
(0.000161404 4.23742e-05 -2.00585e-07)
(0.000142416 -5.2325e-05 -1.12953e-06)
(0.000279601 -0.000207403 -1.78037e-06)
(0.00132058 0.000754052 -9.50957e-07)
(0.00104741 0.000208391 -1.39841e-06)
(0.00100409 -0.000216901 -2.70406e-06)
(0.00118143 -0.000764773 -3.53867e-06)
(0.00243741 0.00117737 -3.00824e-06)
(0.0021954 0.000357377 -2.90922e-06)
(0.00213775 -0.000366548 -3.68374e-06)
(0.00225791 -0.00119442 -3.89154e-06)
(0.00373254 0.00149762 -5.71165e-06)
(0.00352244 0.000464711 -4.58289e-06)
(0.00345543 -0.000487333 -4.22551e-06)
(0.00352363 -0.0015283 -3.33275e-06)
(0.00514176 0.00171933 -8.75042e-06)
(0.0049616 0.00053381 -6.34355e-06)
(0.00488814 -0.000582931 -4.56866e-06)
(0.00491228 -0.00177139 -2.31848e-06)
(0.00661012 0.00185966 -1.18606e-05)
(0.00645531 0.000570705 -8.16018e-06)
(0.00637817 -0.00065686 -4.97795e-06)
(0.00636844 -0.00193876 -1.33404e-06)
(0.00809357 0.00193806 -1.47487e-05)
(0.00795824 0.000581931 -1.00135e-05)
(0.00787859 -0.000713034 -5.76876e-06)
(0.00784505 -0.00204658 -9.57453e-07)
(0.0095783 0.00197368 -1.69828e-05)
(0.00944089 0.00057754 -1.1809e-05)
(0.00935164 -0.000754838 -7.31022e-06)
(0.0093073 -0.00211445 -2.07098e-06)
)
;

boundaryField
{
    interface
    {
        type            tractionDisplacement;
        gradient        nonuniform List<vector> 
192
(
(0.0012504 8.90088e-08 -6.27537e-06)
(0.00125106 2.32615e-07 -7.48491e-06)
(0.0012496 5.25483e-07 -7.47543e-06)
(0.00124673 8.45864e-07 -7.27339e-06)
(0.00124237 1.23213e-06 -6.95727e-06)
(0.00123606 1.75972e-06 -6.48764e-06)
(0.00122701 2.65546e-06 -5.77696e-06)
(0.00121237 4.4017e-06 -4.57372e-06)
(0.00127836 1.58951e-07 -4.18175e-06)
(0.00127813 3.40733e-07 -4.98588e-06)
(0.00127606 6.81215e-07 -4.94782e-06)
(0.00127234 1.07974e-06 -4.77587e-06)
(0.0012667 1.57845e-06 -4.5173e-06)
(0.00125852 2.26978e-06 -4.14438e-06)
(0.00124668 3.43378e-06 -3.60938e-06)
(0.00122774 5.61186e-06 -2.83028e-06)
(0.0012969 2.0556e-07 -2.92788e-06)
(0.00129628 4.22773e-07 -3.50022e-06)
(0.00129375 8.10625e-07 -3.4639e-06)
(0.00128935 1.27314e-06 -3.32432e-06)
(0.00128271 1.85533e-06 -3.11929e-06)
(0.00127309 2.65704e-06 -2.83373e-06)
(0.00125927 3.97152e-06 -2.44508e-06)
(0.00123752 6.33252e-06 -1.9299e-06)
(0.00131022 2.36666e-07 -2.12187e-06)
(0.00130939 4.82114e-07 -2.53952e-06)
(0.00130652 9.12912e-07 -2.50899e-06)
(0.00130157 1.426e-06 -2.39958e-06)
(0.00129415 2.06871e-06 -2.2415e-06)
(0.00128345 2.94405e-06 -2.02736e-06)
(0.00126819 4.35007e-06 -1.74696e-06)
(0.00124452 6.81512e-06 -1.39307e-06)
(0.00131978 2.59652e-07 -1.51365e-06)
(0.00131882 5.26652e-07 -1.81147e-06)
(0.00131569 9.91037e-07 -1.78752e-06)
(0.00131032 1.54199e-06 -1.7059e-06)
(0.0013023 2.22756e-06 -1.58946e-06)
(0.00129082 3.15197e-06 -1.43486e-06)
(0.00127453 4.6157e-06 -1.23756e-06)
(0.00124954 7.14639e-06 -9.95544e-07)
(0.00132642 2.76131e-07 -1.01788e-06)
(0.00132536 5.58719e-07 -1.21811e-06)
(0.00132204 1.04754e-06 -1.20117e-06)
(0.00131638 1.62535e-06 -1.14496e-06)
(0.00130794 2.34023e-06 -1.06545e-06)
(0.0012959 3.29691e-06 -9.61283e-07)
(0.00127891 4.79762e-06 -8.30326e-07)
(0.00125304 7.37104e-06 -6.71486e-07)
(0.00133063 2.87035e-07 -5.86262e-07)
(0.00132951 5.79709e-07 -7.01327e-07)
(0.00132607 1.08477e-06 -6.91544e-07)
(0.00132021 1.68017e-06 -6.58841e-07)
(0.00131151 2.41383e-06 -6.12817e-07)
(0.00129912 3.39091e-06 -5.5309e-07)
(0.00128169 4.9157e-06 -4.77739e-07)
(0.00125526 7.51474e-06 -3.82182e-07)
(0.00133265 2.92824e-07 -1.90632e-07)
(0.00133149 5.90077e-07 -2.27698e-07)
(0.001328 1.10224e-06 -2.24725e-07)
(0.00132205 1.70638e-06 -2.14081e-07)
(0.00131322 2.44881e-06 -1.99112e-07)
(0.00130067 3.43614e-06 -1.79825e-07)
(0.00128303 4.97701e-06 -1.55001e-07)
(0.00125626 7.58408e-06 -1.20792e-07)
(1.09308e-05 7.23725e-08 0.00114973)
(1.30776e-05 1.27851e-07 0.00114889)
(1.31548e-05 1.98457e-07 0.00114824)
(1.29808e-05 2.92527e-07 0.0011473)
(1.2715e-05 4.04896e-07 0.00114595)
(1.23458e-05 5.36693e-07 0.00114413)
(1.18492e-05 6.86119e-07 0.00114175)
(1.13079e-05 8.03277e-07 0.00113874)
(1.00547e-05 2.11513e-08 0.0010997)
(1.20342e-05 3.77271e-08 0.00109949)
(1.21003e-05 5.67502e-08 0.0010993)
(1.19489e-05 8.24212e-08 0.00109902)
(1.17254e-05 1.12105e-07 0.00109863)
(1.14243e-05 1.44074e-07 0.00109811)
(1.10382e-05 1.71046e-07 0.00109746)
(1.0708e-05 1.6209e-07 0.00109671)
(1.00418e-05 -2.70428e-08 0.00105277)
(1.20188e-05 -4.56996e-08 0.00105298)
(1.20844e-05 -6.9588e-08 0.00105321)
(1.1933e-05 -1.00411e-07 0.00105354)
(1.171e-05 -1.3707e-07 0.001054)
(1.141e-05 -1.80176e-07 0.00105463)
(1.10258e-05 -2.2871e-07 0.00105544)
(1.06983e-05 -2.6355e-07 0.00105648)
(1.09054e-05 -8.04064e-08 0.00100291)
(1.30452e-05 -1.36982e-07 0.00100376)
(1.312e-05 -2.11694e-07 0.00100444)
(1.29457e-05 -3.09713e-07 0.00100544)
(1.26804e-05 -4.27843e-07 0.00100685)
(1.23126e-05 -5.69225e-07 0.00100876)
(1.18188e-05 -7.38586e-07 0.00101129)
(1.12818e-05 -8.99354e-07 0.00101456)
(-0.000903606 -9.63547e-08 6.85177e-06)
(-0.000902881 -2.51564e-07 8.12936e-06)
(-0.000904348 -5.72774e-07 8.11249e-06)
(-0.00090722 -9.20022e-07 7.89131e-06)
(-0.000911576 -1.33875e-06 7.54482e-06)
(-0.000917854 -1.91504e-06 7.02877e-06)
(-0.00092686 -2.91625e-06 6.2435e-06)
(-0.00094155 -4.95238e-06 4.89368e-06)
(-0.000876477 -1.72336e-07 4.42126e-06)
(-0.000876696 -3.68407e-07 5.23941e-06)
(-0.000878763 -7.40343e-07 5.19106e-06)
(-0.000882477 -1.17274e-06 5.00456e-06)
(-0.000888098 -1.71422e-06 4.72407e-06)
(-0.000896245 -2.4707e-06 4.31857e-06)
(-0.000908024 -3.77243e-06 3.7342e-06)
(-0.000927051 -6.30466e-06 2.87503e-06)
(-0.000858904 -2.23527e-07 3.02815e-06)
(-0.000859518 -4.57468e-07 3.59773e-06)
(-0.000862036 -8.80012e-07 3.55226e-06)
(-0.00086643 -1.38156e-06 3.40144e-06)
(-0.000873045 -2.0136e-06 3.18024e-06)
(-0.000882602 -2.89053e-06 2.87178e-06)
(-0.000896351 -4.35875e-06 2.45083e-06)
(-0.000918167 -7.09737e-06 1.88924e-06)
(-0.00084644 -2.57774e-07 2.16159e-06)
(-0.000847264 -5.21851e-07 2.57079e-06)
(-0.000850126 -9.90306e-07 2.53274e-06)
(-0.00085506 -1.54618e-06 2.41474e-06)
(-0.000862449 -2.24345e-06 2.24466e-06)
(-0.000873069 -3.20009e-06 2.01421e-06)
(-0.000888236 -4.76849e-06 1.71208e-06)
(-0.000911949 -7.62329e-06 1.32891e-06)
(-0.000837595 -2.83051e-07 1.52365e-06)
(-0.00083856 -5.70096e-07 1.81175e-06)
(-0.000841682 -1.07445e-06 1.78199e-06)
(-0.000847026 -1.67087e-06 1.69407e-06)
(-0.000854997 -2.41412e-06 1.56902e-06)
(-0.000866396 -3.42352e-06 1.40308e-06)
(-0.00088257 -5.05455e-06 1.19126e-06)
(-0.000907581 -7.98206e-06 9.30362e-07)
(-0.000831511 -3.01135e-07 1.01526e-06)
(-0.000832571 -6.04765e-07 1.20705e-06)
(-0.000835879 -1.13523e-06 1.18601e-06)
(-0.000841519 -1.76034e-06 1.1255e-06)
(-0.000849902 -2.53489e-06 1.04024e-06)
(-0.000861845 -3.57878e-06 9.28656e-07)
(-0.000878708 -5.24964e-06 7.88457e-07)
(-0.000904589 -8.22417e-06 6.17775e-07)
(-0.000827684 -3.13066e-07 5.81157e-07)
(-0.000828802 -6.27424e-07 6.90621e-07)
(-0.00083223 -1.17521e-06 6.7841e-07)
(-0.000838059 -1.81904e-06 6.43226e-07)
(-0.000846706 -2.61357e-06 5.93914e-07)
(-0.000858993 -3.67914e-06 5.30029e-07)
(-0.000876286 -5.37574e-06 4.49542e-07)
(-0.000902707 -8.37837e-06 3.46949e-07)
(-0.000825854 -3.19376e-07 1.88378e-07)
(-0.000827006 -6.38536e-07 2.23531e-07)
(-0.000830489 -1.19398e-06 2.19753e-07)
(-0.000836409 -1.8471e-06 2.083e-07)
(-0.000845182 -2.65092e-06 1.92268e-07)
(-0.000857629 -3.72725e-06 1.71653e-07)
(-0.000875121 -5.44102e-06 1.45178e-07)
(-0.000901879 -8.45211e-06 1.08378e-07)
(1.13077e-05 -0.00113956 -9.86196e-07)
(1.18661e-05 -0.00114323 -8.3836e-07)
(1.23873e-05 -0.00114616 -6.69958e-07)
(1.27835e-05 -0.00114847 -5.21832e-07)
(1.30767e-05 -0.00115024 -3.91006e-07)
(1.32868e-05 -0.00115152 -2.72808e-07)
(1.34306e-05 -0.00115236 -1.66012e-07)
(1.35055e-05 -0.00115283 -5.78898e-08)
(1.07333e-05 -0.00109747 -3.23353e-07)
(1.10861e-05 -0.00109878 -2.9851e-07)
(1.14951e-05 -0.00109989 -2.50886e-07)
(1.18192e-05 -0.0011008 -2.02547e-07)
(1.20647e-05 -0.00110151 -1.55909e-07)
(1.22434e-05 -0.00110204 -1.10734e-07)
(1.23687e-05 -0.0011024 -6.67961e-08)
(1.24387e-05 -0.00110257 -2.25708e-08)
(1.07338e-05 -0.00105712 1.29308e-07)
(1.10872e-05 -0.00105654 1.24779e-07)
(1.1494e-05 -0.00105609 9.54584e-08)
(1.18153e-05 -0.00105577 6.74789e-08)
(1.20582e-05 -0.00105555 4.5425e-08)
(1.22347e-05 -0.00105541 2.87838e-08)
(1.23586e-05 -0.00105532 1.65634e-08)
(1.24277e-05 -0.00105528 5.73912e-09)
(1.13263e-05 -0.00101504 7.95589e-07)
(1.18919e-05 -0.00101212 6.58727e-07)
(1.24086e-05 -0.00100987 5.05786e-07)
(1.27978e-05 -0.00100817 3.78169e-07)
(1.3084e-05 -0.00100692 2.73189e-07)
(1.32882e-05 -0.00100604 1.85436e-07)
(1.34278e-05 -0.00100548 1.12584e-07)
(1.35008e-05 -0.00100515 4.00141e-08)
)
;
        traction        nonuniform List<vector> 
192
(
(26.7942 0.00190733 -0.134472)
(26.8085 0.00498462 -0.160391)
(26.7772 0.0112604 -0.160188)
(26.7157 0.0181257 -0.155858)
(26.6222 0.0264028 -0.149084)
(26.487 0.0377082 -0.139021)
(26.293 0.0569026 -0.123792)
(25.9793 0.0943222 -0.0980083)
(27.3935 0.0034061 -0.0896089)
(27.3884 0.00730142 -0.10684)
(27.3441 0.0145975 -0.106025)
(27.2645 0.0231373 -0.10234)
(27.1437 0.033824 -0.0967993)
(26.9683 0.0486382 -0.0888082)
(26.7147 0.0735809 -0.077344)
(26.3087 0.120254 -0.0606489)
(27.7907 0.00440487 -0.0627403)
(27.7773 0.00905942 -0.0750048)
(27.7233 0.0173705 -0.0742265)
(27.6289 0.0272816 -0.0712353)
(27.4865 0.039757 -0.066842)
(27.2806 0.0569365 -0.0607228)
(26.9843 0.085104 -0.0523946)
(26.5182 0.135697 -0.0413549)
(28.0762 0.00507141 -0.0454687)
(28.0584 0.010331 -0.0544183)
(27.997 0.0195624 -0.0537641)
(27.8909 0.0305572 -0.0514196)
(27.7317 0.0443295 -0.0480322)
(27.5026 0.0630869 -0.0434433)
(27.1755 0.0932158 -0.0374349)
(26.6683 0.146038 -0.0298516)
(28.2811 0.00556398 -0.0324353)
(28.2603 0.0112854 -0.0388172)
(28.1933 0.0212365 -0.038304)
(28.0783 0.0330426 -0.0365551)
(27.9065 0.0477333 -0.0340599)
(27.6604 0.0675421 -0.0307469)
(27.3113 0.0989078 -0.0265191)
(26.7759 0.153137 -0.0213331)
(28.4234 0.00591708 -0.0218117)
(28.4006 0.0119725 -0.0261023)
(28.3295 0.0224473 -0.0257394)
(28.2081 0.034829 -0.0245348)
(28.0273 0.0501478 -0.0228311)
(27.7694 0.0706481 -0.0205989)
(27.4052 0.102806 -0.0177927)
(26.8508 0.157951 -0.014389)
(28.5135 0.00615074 -0.0125628)
(28.4894 0.0124223 -0.0150284)
(28.4158 0.023245 -0.0148188)
(28.2903 0.0360036 -0.014118)
(28.1037 0.0517248 -0.0131318)
(27.8383 0.0726623 -0.0118519)
(27.4647 0.105336 -0.0102373)
(26.8984 0.16103 -0.00818961)
(28.5567 0.00627479 -0.00408497)
(28.532 0.0126445 -0.00487923)
(28.4571 0.0236193 -0.00481554)
(28.3296 0.0365652 -0.00458744)
(28.1404 0.0524745 -0.00426669)
(27.8714 0.0736316 -0.00385339)
(27.4935 0.10665 -0.00332146)
(26.9199 0.162516 -0.00258841)
(0.234232 0.00155084 24.637)
(0.280235 0.00273965 24.6191)
(0.281888 0.00425265 24.6052)
(0.278159 0.00626843 24.5849)
(0.272465 0.00867633 24.5561)
(0.264553 0.0115006 24.5171)
(0.253912 0.0147025 24.4661)
(0.242312 0.0172131 24.4015)
(0.215458 0.000453242 23.565)
(0.257875 0.000808438 23.5605)
(0.259292 0.00121608 23.5564)
(0.256048 0.00176617 23.5504)
(0.251258 0.00240225 23.542)
(0.244806 0.00308729 23.5309)
(0.236532 0.00366528 23.517)
(0.229457 0.00347336 23.5009)
(0.215181 -0.00057949 22.5593)
(0.257546 -0.000979277 22.564)
(0.258951 -0.00149117 22.5688)
(0.255708 -0.00215167 22.5758)
(0.250929 -0.00293722 22.5858)
(0.244501 -0.00386092 22.5992)
(0.236268 -0.00490093 22.6167)
(0.22925 -0.00564749 22.6389)
(0.233687 -0.00172299 21.4909)
(0.279539 -0.00293532 21.5091)
(0.281144 -0.00453631 21.5238)
(0.277407 -0.00663671 21.5451)
(0.271722 -0.00916805 21.5754)
(0.263841 -0.0121977 21.6164)
(0.253261 -0.0158268 21.6704)
(0.241752 -0.0192719 21.7405)
(-19.363 -0.00206474 0.146824)
(-19.3475 -0.00539066 0.174201)
(-19.3789 -0.0122737 0.173839)
(-19.4404 -0.0197148 0.1691)
(-19.5338 -0.0286875 0.161675)
(-19.6683 -0.0410367 0.150616)
(-19.8613 -0.0624911 0.133789)
(-20.1761 -0.106122 0.104865)
(-18.7816 -0.00369291 0.0947413)
(-18.7863 -0.00789443 0.112273)
(-18.8306 -0.0158645 0.111237)
(-18.9102 -0.0251302 0.107241)
(-19.0307 -0.0367334 0.10123)
(-19.2052 -0.0529437 0.0925409)
(-19.4577 -0.0808377 0.0800185)
(-19.8654 -0.1351 0.0616077)
(-18.4051 -0.00478987 0.064889)
(-18.4182 -0.00980289 0.0770943)
(-18.4722 -0.0188574 0.0761199)
(-18.5664 -0.0296049 0.0728881)
(-18.7081 -0.0431486 0.0681481)
(-18.9129 -0.06194 0.0615382)
(-19.2075 -0.0934018 0.0525179)
(-19.675 -0.152086 0.0404836)
(-18.138 -0.00552373 0.0463197)
(-18.1556 -0.0111825 0.0550883)
(-18.217 -0.0212208 0.054273)
(-18.3227 -0.0331325 0.0517444)
(-18.481 -0.048074 0.0480998)
(-18.7086 -0.0685733 0.0431617)
(-19.0336 -0.102182 0.0366875)
(-19.5418 -0.163356 0.0284766)
(-17.9485 -0.00606538 0.0326497)
(-17.9691 -0.0122163 0.0388231)
(-18.036 -0.023024 0.0381856)
(-18.1506 -0.0358044 0.0363015)
(-18.3214 -0.0517312 0.0336219)
(-18.5656 -0.0733611 0.0300661)
(-18.9122 -0.108312 0.0255271)
(-19.4482 -0.171044 0.0199363)
(-17.8181 -0.00645288 0.0217555)
(-17.8408 -0.0129593 0.0258653)
(-17.9117 -0.0243264 0.0254145)
(-18.0325 -0.0377215 0.0241178)
(-18.2122 -0.0543192 0.0222908)
(-18.4681 -0.0766882 0.0198998)
(-18.8294 -0.112492 0.0168955)
(-19.3841 -0.176232 0.013238)
(-17.7361 -0.00670857 0.0124534)
(-17.7601 -0.0134448 0.014799)
(-17.8335 -0.0251831 0.0145374)
(-17.9584 -0.0389794 0.0137834)
(-18.1437 -0.0560052 0.0127267)
(-18.407 -0.0788387 0.0113578)
(-18.7775 -0.115194 0.00963305)
(-19.3437 -0.179537 0.00743463)
(-17.6969 -0.00684377 0.00403667)
(-17.7216 -0.0136829 0.00478996)
(-17.7962 -0.0255853 0.00470898)
(-17.9231 -0.0395806 0.00446357)
(-18.111 -0.0568055 0.00412003)
(-18.3778 -0.0798697 0.00367828)
(-18.7526 -0.116593 0.00311095)
(-19.326 -0.181117 0.00232238)
(0.242309 -24.4191 -0.0211328)
(0.254273 -24.4977 -0.0179648)
(0.265441 -24.5605 -0.0143563)
(0.273931 -24.61 -0.0111821)
(0.280215 -24.6479 -0.00837869)
(0.284717 -24.6755 -0.00584588)
(0.287799 -24.6935 -0.0035574)
(0.289404 -24.7035 -0.0012405)
(0.229999 -23.5171 -0.006929)
(0.237559 -23.5453 -0.00639663)
(0.246324 -23.5691 -0.00537612)
(0.253268 -23.5885 -0.00434029)
(0.25853 -23.6038 -0.00334091)
(0.262358 -23.6152 -0.00237288)
(0.265043 -23.6228 -0.00143135)
(0.266544 -23.6265 -0.00048366)
(0.23001 -22.6525 0.00277088)
(0.237582 -22.6402 0.00267384)
(0.2463 -22.6305 0.00204554)
(0.253185 -22.6237 0.00144598)
(0.25839 -22.6189 0.000973392)
(0.262173 -22.6158 0.000616796)
(0.264827 -22.614 0.00035493)
(0.266308 -22.6131 0.000122981)
(0.242706 -21.7508 0.0170483)
(0.254825 -21.6882 0.0141156)
(0.265899 -21.64 0.0108383)
(0.274239 -21.6037 0.00810362)
(0.280372 -21.5769 0.00585405)
(0.284748 -21.558 0.00397363)
(0.287739 -21.5459 0.00241252)
(0.289303 -21.5389 0.000857445)
)
;
        pressure        uniform 0;
        value           nonuniform List<vector> 
192
(
(0.000624045 0.000652173 0.00033686)
(0.00135734 0.00123979 0.000300071)
(0.00252785 0.00180855 0.000211566)
(0.00386629 0.00221498 7.53939e-05)
(0.00535433 0.00248862 -6.38504e-05)
(0.00691162 0.002644 -0.000190802)
(0.00848876 0.00271351 -0.000293375)
(0.010054 0.00273948 -0.000367496)
(0.000665583 0.00068038 0.000170374)
(0.00146201 0.00123336 0.000175027)
(0.00259146 0.00180173 0.000124695)
(0.00389981 0.0022107 3.62184e-05)
(0.00534379 0.00248651 -6.12462e-05)
(0.006859 0.00264542 -0.000153767)
(0.00839824 0.00271879 -0.000231227)
(0.00993535 0.00275169 -0.00028777)
(0.000695432 0.000704532 8.20984e-05)
(0.00150575 0.00122871 8.52429e-05)
(0.00262893 0.00178322 5.40581e-05)
(0.00391677 0.00218793 -2.07055e-06)
(0.00533386 0.00246424 -6.75635e-05)
(0.00682066 0.00262814 -0.000131957)
(0.00833374 0.00270967 -0.000187732)
(0.00984961 0.0027546 -0.000229312)
(0.000709698 0.000716304 3.69004e-05)
(0.00152437 0.0012248 3.45716e-05)
(0.00264408 0.00176913 1.23326e-05)
(0.00392029 0.00216817 -2.47821e-05)
(0.00532123 0.00244377 -6.85481e-05)
(0.00678997 0.00261087 -0.000112763)
(0.0082855 0.00269852 -0.00015235)
(0.00978637 0.00275199 -0.000182702)
(0.000715765 0.000721187 1.46939e-05)
(0.00153063 0.00122142 9.09025e-06)
(0.00264689 0.0017597 -7.59246e-06)
(0.00391571 0.00215488 -3.27476e-05)
(0.00530661 0.00242953 -6.2087e-05)
(0.00676378 0.00259831 -9.2182e-05)
(0.00824739 0.00268961 -0.000119886)
(0.0097369 0.00274823 -0.000141635)
(0.000718105 0.000722867 4.6519e-06)
(0.00153164 0.00121871 -1.39588e-06)
(0.0026447 0.00175373 -1.33519e-05)
(0.00390847 0.00214674 -2.99364e-05)
(0.00529294 0.00242075 -4.89662e-05)
(0.00674263 0.00259033 -6.86298e-05)
(0.00821819 0.00268354 -8.7076e-05)
(0.00969953 0.00274501 -0.000101785)
(0.000718879 0.000723255 8.62124e-07)
(0.00153098 0.00121681 -3.55263e-06)
(0.00264159 0.0017502 -1.08116e-05)
(0.00390209 0.00214216 -2.03527e-05)
(0.00528259 0.00241585 -3.11582e-05)
(0.00672769 0.00258579 -4.23595e-05)
(0.00819816 0.00267993 -5.29848e-05)
(0.00967415 0.00274283 -6.15341e-05)
(0.000719065 0.000723268 4.27708e-09)
(0.00153031 0.00121584 -1.59293e-06)
(0.00263959 0.00174856 -4.03141e-06)
(0.00389846 0.00214011 -7.15612e-06)
(0.00527703 0.00241367 -1.06707e-05)
(0.00671993 0.00258376 -1.43189e-05)
(0.0081879 0.00267824 -1.7797e-05)
(0.00966119 0.00274168 -2.06058e-05)
(0.00025842 0.000357293 0.000508063)
(0.00114249 0.000730758 0.000302429)
(0.00232093 0.00115863 0.000245104)
(0.00371941 0.00146479 0.000110027)
(0.0052629 0.00168133 -1.65777e-05)
(0.00687116 0.00181538 -0.00013182)
(0.00848453 0.00188637 -0.000222922)
(0.0100732 0.00191856 -0.000296078)
(5.70931e-05 9.92468e-05 0.000137965)
(0.000877667 0.000189434 0.000107121)
(0.00206363 0.000331652 5.87265e-05)
(0.00348967 0.00042446 3.44453e-06)
(0.00505822 0.000480723 -4.89332e-05)
(0.00668897 0.000504531 -9.64674e-05)
(0.00831971 0.000503715 -0.000138856)
(0.00990852 0.000492464 -0.000182448)
(3.86824e-05 -0.000140478 -0.000167533)
(0.000834167 -0.000234703 -0.000171502)
(0.00200474 -0.000392578 -0.000163189)
(0.00342197 -0.000523447 -0.000138875)
(0.00498438 -0.000638812 -0.0001121)
(0.00661193 -0.000735339 -8.80847e-05)
(0.00824091 -0.000814259 -7.19322e-05)
(0.00982256 -0.000876206 -6.25176e-05)
(0.0001979 -0.00042358 -0.000540966)
(0.00100279 -0.00078457 -0.000394088)
(0.00213472 -0.00123077 -0.000375716)
(0.00350412 -0.00157568 -0.000272659)
(0.00502741 -0.00184803 -0.000171366)
(0.00662473 -0.00204754 -7.71288e-05)
(0.00823337 -0.00218837 -4.57382e-06)
(0.00980725 -0.00228987 3.94521e-05)
(0.000522745 -0.000660186 -0.000383086)
(0.00118936 -0.00127641 -0.000409741)
(0.00229968 -0.00188473 -0.000364078)
(0.00359842 -0.00233296 -0.00025899)
(0.00505909 -0.00265849 -0.000143306)
(0.00660151 -0.00287175 -3.46246e-05)
(0.00817037 -0.0029987 5.18464e-05)
(0.00972379 -0.00306918 0.000102059)
(0.000549627 -0.000684692 -0.000208175)
(0.00129596 -0.00127033 -0.00025744)
(0.00236586 -0.00187206 -0.000240278)
(0.00363338 -0.00231866 -0.000177344)
(0.0050487 -0.00263879 -0.000100375)
(0.00654746 -0.0028467 -2.57884e-05)
(0.00807769 -0.0029684 3.32379e-05)
(0.00960473 -0.0030369 6.47469e-05)
(0.00056962 -0.000707887 -0.0001111)
(0.0013335 -0.00126415 -0.000148989)
(0.00239858 -0.00184644 -0.000144436)
(0.0036457 -0.00228257 -0.000109979)
(0.00503366 -0.0025956 -6.27182e-05)
(0.0065033 -0.00280001 -1.52675e-05)
(0.00800653 -0.00292078 2.22236e-05)
(0.00951004 -0.0029899 3.88728e-05)
(0.000576619 -0.00071724 -5.77778e-05)
(0.0013447 -0.00125616 -8.31435e-05)
(0.00240649 -0.00182359 -8.22756e-05)
(0.00364236 -0.00224828 -6.30961e-05)
(0.00501424 -0.00255397 -3.50457e-05)
(0.00646566 -0.00275437 -6.07159e-06)
(0.00795059 -0.00287353 1.64303e-05)
(0.00943646 -0.00294218 2.34545e-05)
(0.0005775 -0.00071924 -2.90093e-05)
(0.00134485 -0.00124795 -4.47822e-05)
(0.00240293 -0.00180527 -4.4703e-05)
(0.00363171 -0.00222125 -3.37438e-05)
(0.0049938 -0.00252057 -1.72145e-05)
(0.0064337 -0.0027169 3.778e-08)
(0.00790623 -0.00283375 1.29666e-05)
(0.00937896 -0.00290097 1.47907e-05)
(0.000576271 -0.000718359 -1.38211e-05)
(0.00134141 -0.00124088 -2.29541e-05)
(0.00239597 -0.00179164 -2.29069e-05)
(0.00361991 -0.00220168 -1.66421e-05)
(0.00497579 -0.00249626 -7.11946e-06)
(0.00640833 -0.00268919 2.7848e-06)
(0.00787255 -0.00280374 9.8437e-06)
(0.009336 -0.00286928 9.42757e-06)
(0.0005748 -0.000716907 -5.93637e-06)
(0.00133787 -0.0012358 -1.05772e-05)
(0.00238977 -0.00178259 -1.04926e-05)
(0.00361054 -0.002189 -7.22922e-06)
(0.00496262 -0.00248052 -2.28585e-06)
(0.00639069 -0.00267108 2.80883e-06)
(0.00784971 -0.00278389 6.26418e-06)
(0.00930722 -0.00284807 5.39959e-06)
(0.000573911 -0.000715968 -1.62248e-06)
(0.00133581 -0.00123317 -3.03174e-06)
(0.00238628 -0.00177809 -2.98969e-06)
(0.00360547 -0.00218277 -1.97336e-06)
(0.00495571 -0.0024728 -4.4101e-07)
(0.00638163 -0.00266216 1.1277e-06)