/*--------------------------------*- C++ -*----------------------------------*\
| =========                 |                                                 |
| \\      /  F ield         | foam-extend: Open Source CFD                    |
|  \\    /   O peration     | Version:     3.1                                |
|   \\  /    A nd           | Web:         http://www.extend-project.de       |
|    \\/     M anipulation  |                                                 |
\*---------------------------------------------------------------------------*/
FoamFile
{
    version     2.0;
    format      ascii;
    class       volSymmTensorField;
    location    "2.8";
    object      epsilon;
}
// * * * * * * * * * * * * * * * * * * * * * * * * * * * * * * * * * * * * * //

dimensions      [0 0 0 0 0 0 0];

internalField   nonuniform List<symmTensor> 
256
(
(-0.00702356 0.00926947 -0.000415078 0.0268009 0.00488847 -0.00287175)
(-0.00233759 0.00789105 -0.00123757 0.00636626 0.00169602 -0.00106705)
(0.0012238 0.00736442 -0.00126576 -0.00725929 -0.00239689 0.00122292)
(0.00552777 0.00783465 -0.000513788 -0.0264943 -0.00588504 0.00304979)
(-0.0123665 0.00386872 -0.000484819 0.0171804 -0.00150404 -0.00432675)
(-0.00494452 0.0101743 -0.00195288 0.0065782 -0.000671521 -0.00158276)
(0.00226051 0.00996319 -0.00201958 -0.00547872 0.000374492 0.00197985)
(0.0095421 0.00372573 -0.00070866 -0.0161532 0.00109351 0.00487376)
(-0.0103523 0.00473273 -0.00020204 0.0159652 -0.000815494 -0.00251413)
(-0.00505997 0.0098453 -0.00133456 0.00594976 -0.00033374 -0.000843196)
(0.00164704 0.0098506 -0.00138101 -0.00443606 5.1174e-05 0.00143993)
(0.00710085 0.00478257 -0.000424823 -0.0145285 0.00049935 0.00336966)
(-0.00887241 0.00414345 -0.000199989 0.0118658 -0.00118651 -0.00146445)
(-0.00454853 0.00897882 -0.00109288 0.00468019 -0.000409274 -0.000390458)
(0.000942641 0.00903661 -0.00112602 -0.00309232 0.000184158 0.00119178)
(0.00538279 0.00426516 -0.000440052 -0.0102831 0.000952929 0.00254273)
(-0.00718495 0.00359148 -0.000143601 0.00843812 -0.00109292 -0.000306777)
(-0.00395477 0.00772557 -0.00087034 0.00349673 -0.000355784 7.09504e-05)
(0.000367175 0.00781808 -0.000898474 -0.00199263 0.000176601 0.00086049)
(0.00362817 0.00376929 -0.000384459 -0.00683869 0.000930797 0.00152422)
(-0.00584932 0.0027707 -0.000151428 0.00549856 -0.000955642 0.000614243)
(-0.00342965 0.00618606 -0.00074813 0.00245491 -0.000312313 0.000435051)
(-5.02969e-05 0.00632711 -0.000759766 -0.00111258 0.000156611 0.000575543)
(0.0022985 0.00304654 -0.000368395 -0.00394036 0.000854218 0.000665673)
(-0.00498636 0.00179376 -0.000223397 0.00352909 -0.000786355 0.00136412)
(-0.00312068 0.00448601 -0.000705977 0.00169089 -0.000301655 0.000747059)
(-0.000327978 0.00463504 -0.00068758 -0.000469042 9.90032e-05 0.000322733)
(0.00147222 0.00219284 -0.000379534 -0.00190756 0.000669176 -6.95676e-05)
(-0.00519872 0.000989785 -0.000307267 0.00250494 -0.000428146 0.00194705)
(-0.00372536 0.00252413 -0.000665881 0.0014614 -0.000191416 0.00100229)
(-0.00023097 0.00247534 -0.000656761 2.8718e-05 -6.34454e-06 9.63776e-05)
(0.0014863 0.00107146 -0.000442503 -0.000832558 0.000242012 -0.000673086)
(-0.00706982 0.0105635 -0.000265817 0.0259702 0.00303426 -0.00189844)
(-0.00215527 0.00952462 -0.00099661 0.00612368 0.000965783 -0.000713327)
(0.00112711 0.00907234 -0.00108424 -0.00635106 -0.00171268 0.000830426)
(0.00553504 0.00919984 -0.000469949 -0.0250137 -0.00404202 0.0021331)
(-0.0123957 0.00399862 -0.000388122 0.018723 -0.000527383 -0.00340024)
(-0.00454851 0.0105313 -0.00183448 0.00731397 -0.000360102 -0.00125365)
(0.00208007 0.0104128 -0.00201781 -0.00634235 -0.000138695 0.0015964)
(0.00957345 0.00400402 -0.000816922 -0.0178782 -7.1857e-05 0.00405216)
(-0.0101587 0.00417183 -0.000167524 0.0160401 -0.00128059 -0.00246657)
(-0.00454569 0.00905687 -0.00144782 0.00602334 -0.000524127 -0.000865808)
(0.00149417 0.00908285 -0.00163963 -0.00458596 0.000218863 0.00138584)
(0.00701111 0.0042226 -0.000655398 -0.0146667 0.000928607 0.00339243)
(-0.00852358 0.00345997 -1.72232e-06 0.0119648 -0.00160826 -0.00133324)
(-0.00398076 0.00782104 -0.00102622 0.00473389 -0.00056772 -0.000429831)
(0.000788059 0.00787611 -0.0012244 -0.00315295 0.000388378 0.00107312)
(0.00514755 0.00356379 -0.000534362 -0.0103765 0.00142302 0.00242538)
(-0.00683241 0.0028419 0.000149125 0.00835724 -0.00160588 -0.000214281)
(-0.00340181 0.00647868 -0.000690304 0.00348179 -0.000534317 -1.45558e-05)
(0.000234686 0.00655835 -0.000889751 -0.00192011 0.000439641 0.000750302)
(0.00337939 0.0029956 -0.000396151 -0.00668922 0.00154409 0.00141131)
(-0.00550697 0.00209887 0.000223536 0.00538107 -0.00141371 0.000741368)
(-0.0029091 0.00506499 -0.000468097 0.00242091 -0.000464629 0.00034273)
(-0.000174481 0.00518873 -0.000651035 -0.00096797 0.000401259 0.000466457)
(0.00203344 0.00235562 -0.000295794 -0.00369342 0.0014328 0.000511595)
(-0.00466868 0.00124896 0.000213046 0.00338112 -0.00109553 0.00149725)
(-0.00264837 0.00361735 -0.000365717 0.00162163 -0.00039069 0.000641354)
(-0.000444136 0.00375933 -0.000518993 -0.000284145 0.000280123 0.000238452)
(0.00120788 0.00166797 -0.000238361 -0.00158157 0.00111618 -0.000215827)
(-0.00489126 0.000731867 0.000137092 0.00241313 -0.000592098 0.00205812)
(-0.0033029 0.00209071 -0.000363919 0.00141436 -0.000236879 0.000869264)
(-0.00037909 0.00203626 -0.000542404 0.000163673 9.45099e-05 3.22999e-05)
(0.00120041 0.000835086 -0.000317118 -0.000592564 0.000530708 -0.000798192)
(-0.00740909 0.0111004 -0.000179012 0.0261705 0.00151907 -0.00109221)
(-0.00228739 0.00994973 -0.000640763 0.00618638 0.000406854 -0.000388071)
(0.00120172 0.00946803 -0.000713491 -0.00618935 -0.00107043 0.000517878)
(0.0057783 0.00962437 -0.000329873 -0.0250262 -0.00232976 0.00129809)
(-0.0130442 0.00408217 -0.000315704 0.01833 -0.00034169 -0.00208026)
(-0.00484116 0.0107212 -0.00125123 0.00732657 -0.000282969 -0.000702207)
(0.00225548 0.0106098 -0.00140637 -0.00619964 -0.000195465 0.00106995)
(0.0100835 0.00408789 -0.000637037 -0.0173602 -0.000164555 0.00262497)
(-0.0106515 0.00411683 -0.000205864 0.0159232 -0.000973487 -0.00165523)
(-0.004801 0.00899571 -0.00108496 0.00607756 -0.000435286 -0.000486895)
(0.00163648 0.00902052 -0.00125111 -0.00452369 0.000142023 0.001041)
(0.00739233 0.00413803 -0.00056487 -0.0144166 0.000671409 0.00242092)
(-0.00881948 0.00333644 -7.13183e-05 0.0119306 -0.00129212 -0.000920338)
(-0.00414425 0.00753416 -0.000794328 0.00477814 -0.000486615 -0.000181396)
(0.000828167 0.0075866 -0.000963539 -0.0030761 0.00033872 0.000874888)
(0.0053129 0.00342281 -0.000448186 -0.0102046 0.00115536 0.00184142)
(-0.00701534 0.00266143 5.215e-05 0.00839856 -0.00134169 -0.000108025)
(-0.00351309 0.00610026 -0.000514365 0.00353849 -0.000464442 0.000138219)
(0.000206652 0.00618374 -0.000681255 -0.00184575 0.000421092 0.000665526)
(0.00340849 0.00281675 -0.000323224 -0.00657202 0.0013341 0.00113965)
(-0.00560401 0.00190356 0.000128277 0.005488 -0.00120834 0.000631189)
(-0.00297983 0.00468114 -0.00031539 0.00248294 -0.000401672 0.000428161)
(-0.000255588 0.00482221 -0.000467914 -0.000894081 0.000408792 0.000470708)
(0.00195016 0.00219316 -0.000222126 -0.00362168 0.00128529 0.000481442)
(-0.00469327 0.00105625 0.00013738 0.00355664 -0.00094081 0.00123153)
(-0.00268725 0.00330333 -0.000228719 0.00168624 -0.00032131 0.00067397)
(-0.000571332 0.00347797 -0.00036306 -0.0002192 0.000304819 0.000321038)
(0.00103085 0.00155203 -0.000170338 -0.00154885 0.00103343 -4.89975e-05)
(-0.00485204 0.000637037 6.42689e-05 0.00259353 -0.000481476 0.0016454)
(-0.00333932 0.00193387 -0.000285878 0.00149125 -0.000173741 0.000852692)
(-0.000595889 0.00189847 -0.00045695 0.000219155 0.000108608 0.000224987)
(0.00091827 0.000790969 -0.000277827 -0.000575664 0.000483387 -0.000392873)
(-0.00765445 0.0112993 -0.000100895 0.0262786 0.000660266 -0.000570318)
(-0.00240244 0.0100324 -0.000384113 0.00622297 0.000115082 -0.000185479)
(0.00124413 0.00951364 -0.000432983 -0.00610029 -0.000654281 0.000323814)
(0.00595198 0.00972652 -0.000205845 -0.0249931 -0.00127874 0.000755056)
(-0.0135233 0.00410774 -0.000193377 0.0179896 -0.000288511 -0.00110065)
(-0.00509877 0.010812 -0.000788423 0.00730453 -0.000230402 -0.00032123)
(0.00234735 0.0106939 -0.000895238 -0.00600561 -0.000168021 0.000705907)
(0.0104378 0.00410987 -0.000421842 -0.0168812 -0.000109186 0.00158595)
(-0.0110852 0.00414173 -0.000148773 0.0157381 -0.000688506 -0.000867632)
(-0.00506752 0.00904848 -0.000739287 0.00609313 -0.000324311 -0.000172322)
(0.0017094 0.00907282 -0.000854799 -0.00436913 8.0735e-05 0.000750757)
(0.0077024 0.00415536 -0.000402878 -0.0140623 0.000454025 0.00155729)
(-0.00915808 0.00333319 -6.78567e-05 0.0118631 -0.00091687 -0.00040216)
(-0.00437148 0.00752393 -0.000569509 0.00482004 -0.00035808 4.70814e-05)
(0.000845469 0.00757879 -0.000683894 -0.00295111 0.000245412 0.000687756)
(0.00551441 0.0034202 -0.000327716 -0.00996226 0.000820777 0.00125168)
(-0.00725163 0.00263242 1.68844e-05 0.00843647 -0.000975524 0.000151931)
(-0.00370079 0.00604115 -0.000379848 0.00360672 -0.000343286 0.000286798)
(0.000172147 0.00613367 -0.000489369 -0.00175055 0.000328022 0.000579647)
(0.00349235 0.00280231 -0.000235718 -0.00642791 0.000990787 0.000825173)
(-0.0057547 0.00185368 7.38868e-05 0.00561073 -0.000902795 0.000684345)
(-0.00313201 0.00459623 -0.000238071 0.00256886 -0.000299924 0.000514425)
(-0.000332549 0.00475652 -0.000336057 -0.000824306 0.000333315 0.000473322)
(0.00192999 0.00217861 -0.000157964 -0.00355527 0.000988887 0.00040129)
(-0.00476919 0.000991396 8.0386e-05 0.00374863 -0.000725202 0.00113222)
(-0.00281194 0.00322202 -0.000189047 0.001782 -0.000241868 0.000716686)
(-0.000691906 0.0034233 -0.000276328 -0.000170085 0.000257138 0.000404074)
(0.000912755 0.00154544 -0.000123776 -0.00153331 0.000818812 6.52005e-05)
(-0.00487398 0.000606243 3.87697e-06 0.00280469 -0.000391441 0.00145013)
(-0.00347024 0.00188916 -0.000285758 0.00160134 -0.000135701 0.000881299)
(-0.000796575 0.00186358 -0.000405332 0.000254745 9.45555e-05 0.000402033)
(0.000698096 0.00079018 -0.000233812 -0.000597754 0.000391755 -9.61025e-05)
(-0.00780615 0.0113566 -5.05434e-05 0.0263057 0.000227582 -0.000268554)
(-0.00247769 0.0100037 -0.000218455 0.0062456 -1.46326e-05 -6.99147e-05)
(0.00126062 0.00945647 -0.000249309 -0.00602617 -0.000392469 0.000205577)
(0.00604629 0.0097121 -0.00012053 -0.0248925 -0.000676751 0.000431529)
(-0.0138368 0.00410398 -0.000103637 0.0177862 -0.000247204 -0.000497298)
(-0.00527076 0.0108298 -0.000469139 0.00729875 -0.000181717 -9.14846e-05)
(0.0023811 0.0107061 -0.0005385 -0.00584531 -0.000125618 0.000472063)
(0.0106397 0.00410652 -0.00025901 -0.0165506 -5.24636e-05 0.000935142)
(-0.0113999 0.00415989 -8.91892e-05 0.0156036 -0.000478708 -0.000322137)
(-0.00525671 0.00909334 -0.000470296 0.00610835 -0.000230215 3.60252e-05)
(0.00173207 0.00911992 -0.000546289 -0.00422079 4.43296e-05 0.000544542)
(0.00789606 0.00417484 -0.000261788 -0.0137716 0.000305854 0.000962017)
(-0.00943191 0.00335232 -4.54201e-05 0.011805 -0.000619699 2.70051e-06)
(-0.00454551 0.00756934 -0.000380212 0.00485786 -0.000246194 0.000209116)
(0.000841152 0.00762906 -0.000453774 -0.00282713 0.00016524 0.000540453)
(0.00565366 0.00344663 -0.000218636 -0.00974001 0.000554331 0.000804011)
(-0.00746632 0.00264381 5.86004e-06 0.00845663 -0.000665044 0.000395087)
(-0.00385251 0.0060728 -0.000264931 0.00366549 -0.00023533 0.000398965)
(0.000138967 0.00617423 -0.000333545 -0.00165476 0.000232305 0.000500722)
(0.00356138 0.00282983 -0.000159357 -0.00628207 0.000685371 0.000556041)
(-0.00591215 0.00185154 4.11356e-05 0.00569414 -0.000629794 0.000786462)
(-0.0032609 0.0046102 -0.000177157 0.00264131 -0.000208599 0.000586243)
(-0.00039241 0.00478506 -0.000237181 -0.0007555 0.000242899 0.000460658)
(0.00192891 0.00220508 -0.000108614 -0.00347452 0.000701353 0.000300827)
(-0.0048751 0.000973993 3.94061e-05 0.00387889 -0.000522308 0.00113006)
(-0.00292453 0.00322318 -0.000160017 0.00186022 -0.000172583 0.000762482)
(-0.000782409 0.00344126 -0.000213436 -0.000122984 0.000189997 0.000453731)
(0.000842887 0.00156913 -9.24333e-05 -0.00149693 0.000592745 0.000110205)
(-0.0049489 0.000599019 -3.44392e-05 0.00294735 -0.000291052 0.00137623)
(-0.00359457 0.00188826 -0.000267284 0.00168829 -9.98932e-05 0.000916416)
(-0.000942038 0.00186415 -0.000344643 0.000291749 6.84958e-05 0.000517027)
(0.000560306 0.000800599 -0.000191836 -0.000594326 0.000285412 7.76114e-05)
(-0.00789258 0.0113605 -2.17122e-05 0.0262981 3.84704e-05 -0.000101228)
(-0.00252394 0.0099505 -0.000116975 0.00626175 -5.45205e-05 -7.38622e-06)
(0.00126478 0.00938351 -0.000135513 -0.00596561 -0.000226215 0.000134831)
(0.00609063 0.00966649 -6.61876e-05 -0.0247796 -0.000341028 0.000245427)
(-0.0140252 0.00408891 -4.77616e-05 0.0176749 -0.000191958 -0.000148847)
(-0.00537851 0.0108136 -0.000261723 0.00730572 -0.000131933 3.75787e-05)
(0.00238866 0.0106861 -0.000304477 -0.0057271 -8.4633e-05 0.000327298)
(0.0107422 0.00409404 -0.000148042 -0.0163339 -1.73881e-05 0.000548793)
(-0.0116036 0.00416593 -4.50491e-05 0.0155258 -0.000317861 1.62259e-05)
(-0.00537975 0.00911404 -0.000277742 0.00612725 -0.000153631 0.000160517)
(0.00173343 0.00914322 -0.000325179 -0.00410569 2.38331e-05 0.000408637)
(0.00800424 0.00418486 -0.000156529 -0.013567 0.000199139 0.000587859)
(-0.00962018 0.00336734 -2.32701e-05 0.0117693 -0.000397209 0.000274071)
(-0.00466321 0.00760856 -0.000234101 0.00489015 -0.000158716 0.000311224)
(0.000829663 0.00767278 -0.000279293 -0.00272703 0.000104302 0.000436457)
(0.00573581 0.00346971 -0.000133845 -0.00957187 0.000354704 0.000504608)
(-0.00762383 0.00265885 4.99075e-06 0.0084666 -0.000426117 0.000578585)
(-0.00395841 0.006114 -0.00017014 0.00371 -0.000150694 0.000474257)
(0.000112515 0.00622238 -0.000211485 -0.00157494 0.000151327 0.000438695)
(0.00360513 0.00285828 -9.92475e-05 -0.00616071 0.000442817 0.000359609)
(-0.00603635 0.00185926 2.40229e-05 0.00574176 -0.000410149 0.000888768)
(-0.00335345 0.00464251 -0.000121948 0.00269285 -0.000135363 0.000639519)
(-0.000434027 0.00482758 -0.000157478 -0.000696981 0.000160697 0.000442691)
(0.00193077 0.00223366 -6.98693e-05 -0.00339732 0.000459627 0.000209762)
(-0.0049683 0.000969774 1.78871e-05 0.00395401 -0.0003488 0.00117124)
(-0.00300797 0.00324224 -0.000122944 0.00191343 -0.000114871 0.00080214)
(-0.000842934 0.00347117 -0.000154488 -8.25736e-05 0.000126048 0.000478182)
(0.000802433 0.00159315 -6.50642e-05 -0.00145231 0.000393163 0.000113536)
(-0.00502666 0.000596459 -4.14667e-05 0.00303401 -0.000200276 0.00137805)
(-0.00368937 0.00189595 -0.000214767 0.001748 -6.87611e-05 0.000951339)
(-0.00103635 0.00187146 -0.000262635 0.000324825 4.41699e-05 0.000580617)
(0.000479478 0.000809341 -0.000142278 -0.000575935 0.000190178 0.000157254)
(-0.00793834 0.0113504 -7.6585e-06 0.0262827 -1.90146e-05 -1.43068e-05)
(-0.00255036 0.00990595 -5.57945e-05 0.00627287 -4.73563e-05 2.42666e-05)
(0.00126434 0.00932654 -6.5654e-05 -0.00592273 -0.000116225 9.49748e-05)
(0.00610893 0.00962523 -3.22798e-05 -0.0246899 -0.000154873 0.000144671)
(-0.0141296 0.00407404 -1.84369e-05 0.0176181 -0.0001217 3.71525e-05)
(-0.00544098 0.0107907 -0.000129155 0.00731601 -8.01816e-05 0.000104709)
(0.00238696 0.0106609 -0.000152328 -0.00564965 -4.82851e-05 0.00024378)
(0.0107894 0.00408189 -7.45044e-05 -0.0162022 -2.11453e-06 0.000335013)
(-0.0117229 0.00416553 -1.91024e-05 0.0154868 -0.000182984 0.000205331)
(-0.00545281 0.00911923 -0.000143307 0.00614435 -8.83722e-05 0.000228181)
(0.00172858 0.00915045 -0.000169266 -0.00402905 1.17384e-05 0.000327008)
(0.00805949 0.00418816 -8.14551e-05 -0.0134392 0.000113371 0.000373009)
(-0.00973483 0.00337527 -9.52742e-06 0.0117516 -0.000222303 0.000433659)
(-0.00473473 0.00763144 -0.000124746 0.00491404 -8.88935e-05 0.000369127)
(0.000818983 0.00769885 -0.000149234 -0.00265893 5.73667e-05 0.000371292)
(0.00577944 0.00348382 -7.09413e-05 -0.00946269 0.000198031 0.000325667)
(-0.00772367 0.00266882 4.08222e-06 0.00847188 -0.000237719 0.000695131)
(-0.00402399 0.00614262 -9.37552e-05 0.00373961 -8.38625e-05 0.000519442)
(9.45116e-05 0.00625558 -0.000115894 -0.0015194 8.47172e-05 0.000397236)
(0.00362918 0.00287746 -5.34381e-05 -0.00607694 0.000247807 0.000235192)
(-0.00611863 0.00186558 1.27774e-05 0.00576596 -0.000231121 0.000963926)
(-0.00341176 0.0046674 -7.10663e-05 0.00272495 -7.6073e-05 0.000674302)
(-0.000459932 0.00485884 -8.98757e-05 -0.000655483 9.06227e-05 0.000427417)
(0.00193218 0.00225342 -3.88607e-05 -0.00333945 0.000258963 0.000144314)
(-0.00503404 0.000968557 6.72065e-06 0.00399232 -0.000199959 0.00121465)
(-0.00306155 0.00325794 -7.72859e-05 0.00194518 -6.5794e-05 0.000830827)
(-0.000879208 0.0034933 -9.39551e-05 -5.3525e-05 7.09877e-05 0.000488317)
(0.00078083 0.00160943 -3.89513e-05 -0.00141495 0.000222837 0.000102347)
(-0.00508586 0.000595569 -3.1556e-05 0.00307969 -0.000117593 0.00140157)
(-0.00375131 0.00190277 -0.000137781 0.00178366 -4.03085e-05 0.000978144)
(-0.00109161 0.00187716 -0.000163924 0.000349487 2.43433e-05 0.000611862)
(0.000436471 0.000814588 -8.76035e-05 -0.000555504 0.000107973 0.000187067)
(-0.00795789 0.0113424 -1.73596e-06 0.0262724 -1.26513e-05 2.24457e-05)
(-0.00256234 0.00988188 -1.6339e-05 0.00627863 -1.79504e-05 3.73684e-05)
(0.00126329 0.00929648 -1.94214e-05 -0.00590057 -3.56905e-05 7.70105e-05)
(0.00611503 0.00960225 -9.5793e-06 -0.0246414 -4.3998e-05 0.000100535)
(-0.0141757 0.00406535 -4.56145e-06 0.0175943 -4.16611e-05 0.000117104)
(-0.00546958 0.0107761 -3.85981e-05 0.0073228 -2.69092e-05 0.000132977)
(0.00238439 0.0106453 -4.59175e-05 -0.00561134 -1.56441e-05 0.000205579)
(0.0108071 0.00407484 -2.25141e-05 -0.0161397 6.88454e-07 0.000240093)
(-0.0117774 0.00416394 -5.10973e-06 0.0154711 -5.98869e-05 0.000288844)
(-0.00548673 0.00911903 -4.39367e-05 0.00615433 -2.88837e-05 0.000257474)
(0.00172471 0.00915132 -5.2177e-05 -0.00399096 3.53913e-06 0.000288789)
(0.00808236 0.00418869 -2.50773e-05 -0.0133779 3.6918e-05 0.000275523)
(-0.00978841 0.00337831 -2.47639e-06 0.0117448 -7.16781e-05 0.000506295)
(-0.00476835 0.00764114 -3.89535e-05 0.00492676 -2.86497e-05 0.00039492)
(0.000812908 0.00771017 -4.66888e-05 -0.00262478 1.82911e-05 0.000340076)
(0.00579801 0.00349012 -2.20755e-05 -0.00940943 6.3731e-05 0.000242623)
(-0.00777134 0.00267335 1.50557e-06 0.00847432 -7.64745e-05 0.000750628)
(-0.00405513 0.00615623 -2.98477e-05 0.00375438 -2.69313e-05 0.000540375)
(8.54642e-05 0.00627142 -3.68011e-05 -0.00149122 2.7225e-05 0.000376682)
(0.00363958 0.00288661 -1.67981e-05 -0.00603474 7.97489e-05 0.000175517)
(-0.0061588 0.00186858 3.91902e-06 0.00577583 -7.47205e-05 0.00100256)
(-0.0034397 0.00467977 -2.33573e-05 0.00274021 -2.45592e-05 0.00069131)
(-0.000472302 0.00487422 -2.92269e-05 -0.000634175 2.92057e-05 0.000418962)
(0.0019328 0.00226298 -1.24686e-05 -0.00330901 8.35523e-05 0.000110712)
(-0.00506697 0.000968009 1.42871e-06 0.00400771 -6.52749e-05 0.00124019)
(-0.00308742 0.00326588 -2.64086e-05 0.00195979 -2.14606e-05 0.000845637)
(-0.000896082 0.00350409 -3.15968e-05 -3.84371e-05 2.28525e-05 0.000491596)
(0.000771495 0.00161715 -1.30235e-05 -0.00139426 7.20666e-05 9.30578e-05)
(-0.00511621 0.000595438 -1.18332e-05 0.00309836 -3.91161e-05 0.0014192)
(-0.00378137 0.00190656 -4.74146e-05 0.00180012 -1.33307e-05 0.000992334)
(-0.00111707 0.0018798 -5.57118e-05 0.000362663 7.79651e-06 0.000624127)
(0.000417924 0.00081673 -2.96486e-05 -0.000542952 3.49673e-05 0.000195224)
)
;

boundaryField
{
    interface
    {
        type            calculated;
        value           nonuniform List<symmTensor> 
192
(
(-0.0258454 -6.80511e-06 0.000333287 0.0405476 0.00606578 -0.00352501)
(-0.0120812 2.08578e-06 0.000559026 0.0217096 -0.0018129 -0.00529441)
(-0.0129657 -1.73077e-07 0.000667835 0.0207982 -0.00111032 -0.00306351)
(-0.0100799 -2.19451e-05 0.000724269 0.0151676 -0.00166781 -0.00176562)
(-0.00803256 -7.25467e-05 0.000751677 0.0106211 -0.00156533 -0.000308192)
(-0.00622334 -0.000160395 0.000752276 0.00672729 -0.00137028 0.000848614)
(-0.00519316 -0.000313595 0.000718017 0.00425409 -0.00107841 0.00176238)
(-0.00464026 -0.000549515 0.000622567 0.00283731 -0.000563232 0.00244229)
(-0.0262165 1.64189e-05 0.000235594 0.0396904 0.00380727 -0.00232525)
(-0.0140401 3.33993e-05 0.000397676 0.0232734 -0.000578021 -0.00415641)
(-0.0131846 3.39392e-05 0.000473702 0.0207665 -0.00166563 -0.00298376)
(-0.0105114 3.00078e-06 0.000511921 0.0152547 -0.00217228 -0.0015302)
(-0.00835278 -6.4498e-05 0.000527602 0.0105185 -0.00219644 -7.7512e-05)
(-0.00659228 -0.000179306 0.000522213 0.00661454 -0.00194328 0.00115892)
(-0.00556555 -0.000375207 0.000490724 0.00414618 -0.00148319 0.00211557)
(-0.00494714 -0.000652858 0.000420532 0.00278195 -0.000785324 0.0027999)
(-0.0272243 2.25228e-05 0.000167461 0.0400914 0.00192226 -0.00135648)
(-0.0146771 4.28304e-05 0.000281604 0.0225414 -0.000353616 -0.00260089)
(-0.0136836 4.4889e-05 0.000330964 0.0204824 -0.00122401 -0.00209144)
(-0.0107887 9.82986e-06 0.000352972 0.0151564 -0.00168752 -0.00116485)
(-0.00844349 -6.74483e-05 0.000359913 0.0105493 -0.00178235 -0.000124665)
(-0.00656551 -0.000198414 0.000353393 0.00676543 -0.0016216 0.000823737)
(-0.00547104 -0.000417311 0.000331505 0.00442253 -0.00126281 0.00158527)
(-0.00467727 -0.000709809 0.000288336 0.00304604 -0.000650686 0.00209775)
(-0.0278659 2.32355e-05 0.000121722 0.040305 0.000837743 -0.000709144)
(-0.0151832 4.43272e-05 0.000205073 0.0219913 -0.000314804 -0.00138438)
(-0.0141824 4.68147e-05 0.000239425 0.020166 -0.000852703 -0.00111995)
(-0.0111698 9.25988e-06 0.000253218 0.0150196 -0.00117709 -0.000549837)
(-0.00869636 -7.41835e-05 0.000256477 0.0105672 -0.00127735 0.000145244)
(-0.00671387 -0.000215156 0.000251109 0.00691147 -0.00119769 0.000817502)
(-0.0055454 -0.000447626 0.000236759 0.00467993 -0.000969367 0.00137829)
(-0.00464491 -0.000746881 0.000209017 0.00331629 -0.000531275 0.00176511)
(-0.0282039 2.26982e-05 8.71713e-05 0.0403649 0.000290131 -0.000334644)
(-0.0155178 4.34313e-05 0.000147549 0.0216735 -0.000284598 -0.000632)
(-0.014537 4.55832e-05 0.000171931 0.0199487 -0.0005925 -0.000436689)
(-0.0114728 6.2757e-06 0.000181072 0.0149079 -0.000790268 -4.81785e-05)
(-0.00892808 -8.11074e-05 0.000182857 0.0105655 -0.000864891 0.00043284)
(-0.0068759 -0.00022839 0.000179109 0.00700065 -0.000831258 0.000916395)
(-0.00565385 -0.000469528 0.000169999 0.00484241 -0.000697482 0.00133796)
(-0.00467551 -0.000772721 0.000151679 0.00348861 -0.000396589 0.00162986)
(-0.0283698 2.20803e-05 5.89053e-05 0.0403559 5.04375e-05 -0.000127052)
(-0.0157233 4.21277e-05 0.000100099 0.0214995 -0.000228367 -0.000196885)
(-0.0147681 4.36469e-05 0.00011664 0.019823 -0.000395369 -1.0384e-05)
(-0.011684 3.08681e-06 0.000122638 0.0148379 -0.000506244 0.000293903)
(-0.00910259 -8.67976e-05 0.000123747 0.0105575 -0.000553216 0.000660438)
(-0.00701092 -0.000238074 0.0001214 0.00704575 -0.000540787 0.00103636)
(-0.00575709 -0.000484853 0.000115824 0.00493058 -0.000466404 0.0013767)
(-0.00473783 -0.000790534 0.000103973 0.00358879 -0.000273877 0.00161645)
(-0.0284454 2.16108e-05 3.39514e-05 0.0403292 -2.28282e-05 -1.94744e-05)
(-0.0158379 4.10686e-05 5.78552e-05 0.0214091 -0.000147283 3.48767e-05)
(-0.0149032 4.20359e-05 6.7401e-05 0.0197581 -0.000228774 0.000227673)
(-0.0118128 6.5776e-07 7.08296e-05 0.0148007 -0.000283808 0.000495826)
(-0.00921389 -9.07396e-05 7.14682e-05 0.0105508 -0.000308815 0.000807146)
(-0.0071017 -0.000244455 7.01958e-05 0.00706556 -0.000304946 0.00112873)
(-0.00583086 -0.000494738 6.69774e-05 0.00497282 -0.000267876 0.00142698)
(-0.00479073 -0.000801598 5.98624e-05 0.00363935 -0.000161354 0.00164026)
(-0.0284734 2.13093e-05 1.0979e-05 0.0403106 -1.55564e-05 2.58954e-05)
(-0.015888 4.03761e-05 1.87631e-05 0.0213705 -5.07809e-05 0.000134242)
(-0.0149641 4.10486e-05 2.18392e-05 0.019731 -7.50909e-05 0.00033257)
(-0.0118723 -6.62507e-07 2.29418e-05 0.0147852 -9.16397e-05 0.000587701)
(-0.00926643 -9.27648e-05 2.3149e-05 0.0105474 -9.94299e-05 0.000877306)
(-0.00714565 -0.000247843 2.27443e-05 0.00707256 -9.8661e-05 0.00117695)
(-0.00586688 -0.000500094 2.16053e-05 0.00498875 -8.75617e-05 0.00145795)
(-0.00481725 -0.000806149 1.9051e-05 0.003659 -5.38105e-05 0.00166075)
(-0.00716685 0.00836135 -0.000397922 0.0277591 -9.26186e-05 -0.0142702)
(-0.0127002 0.00380087 -0.000682257 0.0154595 -0.000146457 -0.00221511)
(-0.0107934 0.00522601 -0.000824458 0.0158754 -0.000156391 -0.0036226)
(-0.00933778 0.00471591 -0.000912333 0.0117662 -0.000147402 -0.0017493)
(-0.00760494 0.00419205 -0.000978291 0.00853695 -0.000144778 -0.000686578)
(-0.00622319 0.00329093 -0.00103425 0.00565322 -0.000161171 0.000344691)
(-0.0053064 0.00219645 -0.00109938 0.00374239 -0.000200046 0.00100433)
(-0.00547861 0.00117823 -0.00123232 0.00265311 -0.000246572 0.00180798)
(-0.00258207 0.00659726 -0.000256139 0.00665303 -7.29732e-05 -0.00318285)
(-0.00547839 0.00993933 -0.00046465 0.00587049 -0.000134264 -0.000665413)
(-0.00567524 0.0105485 -0.00055355 0.00592154 -0.000158418 -0.000484614)
(-0.00515369 0.0098809 -0.000600978 0.00464977 -0.000145748 8.32918e-05)
(-0.00451814 0.00866129 -0.000637257 0.00353389 -0.000122774 0.000447007)
(-0.00394158 0.00700491 -0.000676726 0.00250721 -0.000106848 0.00076737)
(-0.00356991 0.00511347 -0.000741318 0.00177512 -0.000104735 0.0010088)
(-0.00412176 0.00284076 -0.000911519 0.00152569 -0.00010507 0.00153949)
(0.00136648 0.00598886 -0.000198731 -0.00804899 -4.91594e-05 0.00403681)
(0.00255257 0.00964361 -0.000387168 -0.0045745 -0.000109976 0.000948105)
(0.00188937 0.0105341 -0.000471377 -0.00429662 -0.000142919 0.0012572)
(0.00112186 0.00993948 -0.000513554 -0.00301257 -0.000134869 0.000959772)
(0.000488875 0.00876688 -0.0005432 -0.00203463 -0.000107893 0.000760154)
(3.54095e-05 0.0071703 -0.000577792 -0.00121643 -8.0667e-05 0.000530437)
(-0.000271619 0.00528598 -0.000640082 -0.000613081 -6.16636e-05 0.000332171)
(-0.000185853 0.00280842 -0.000808118 -6.73927e-05 -4.7702e-05 -9.28123e-05)
(0.00565374 0.0068 -0.000186358 -0.0279677 -4.24067e-05 0.0145214)
(0.00979951 0.00351007 -0.000385839 -0.0141852 -0.000105372 0.002568)
(0.00738495 0.00525324 -0.000482037 -0.0143262 -0.000140774 0.00431577)
(0.00566844 0.00484101 -0.000531888 -0.0101361 -0.000134699 0.00270633)
(0.00386356 0.00439003 -0.000564095 -0.00693757 -0.000106113 0.00180375)
(0.00249842 0.00360006 -0.000599176 -0.00414241 -7.32623e-05 0.000863628)
(0.00163373 0.00261849 -0.000659858 -0.00220193 -4.07418e-05 0.000149679)
(0.00162443 0.00126973 -0.000817462 -0.00103707 -3.45733e-06 -0.000626384)
(0.0231777 4.22984e-05 4.57423e-05 -0.0388111 -0.00729568 0.00373819)
(0.00974288 8.77121e-05 8.00934e-05 -0.0208401 0.00129022 0.00598177)
(0.0100757 0.000113943 8.55942e-05 -0.0194158 0.000749791 0.00413825)
(0.00693243 0.000109382 8.61306e-05 -0.0135848 0.00142442 0.00308464)
(0.00475086 8.82005e-05 9.4875e-05 -0.00895379 0.00141756 0.00177493)
(0.00289282 6.23931e-05 0.000116836 -0.0050156 0.00131178 0.000670559)
(0.00175129 2.0685e-05 0.000152855 -0.00229949 0.00103141 -0.000256354)
(0.00148546 -0.000142112 0.000196326 -0.000972161 0.000406802 -0.000986225)
(0.0228977 1.97271e-05 -9.83406e-06 -0.0373483 -0.0049885 0.00265035)
(0.01148 4.74304e-05 -1.66495e-05 -0.0226131 -0.000109365 0.00504847)
(0.00992149 6.77753e-05 -2.53018e-05 -0.0194272 0.00126699 0.00423115)
(0.00692798 7.10133e-05 -2.99866e-05 -0.0136538 0.00197832 0.00298127)
(0.00458624 6.41066e-05 -2.52145e-05 -0.00877065 0.00215584 0.00164394)
(0.00273185 5.49462e-05 -1.00399e-05 -0.00475678 0.0020182 0.000451783)
(0.00155937 3.44208e-05 1.25151e-05 -0.0019679 0.00159882 -0.000504992)
(0.00136908 -0.00011023 4.20831e-05 -0.000727872 0.000797573 -0.00123903)
(0.0237223 9.71515e-06 -1.95284e-05 -0.0375717 -0.0028212 0.00161221)
(0.0120894 2.7952e-05 -3.09276e-05 -0.0217837 -0.000174222 0.00326528)
(0.0104143 4.57872e-05 -3.50551e-05 -0.0189937 0.000911159 0.00300512)
(0.0072103 5.49712e-05 -3.43896e-05 -0.0134052 0.00155681 0.00224614)
(0.0046622 5.87347e-05 -2.70464e-05 -0.00862348 0.00179822 0.00131608)
(0.00265875 6.13384e-05 -1.35618e-05 -0.00470001 0.00174481 0.000439136)
(0.00136725 5.34421e-05 2.45682e-06 -0.0019779 0.00143354 -0.000269919)
(0.000993399 -7.12627e-05 1.59901e-05 -0.000747985 0.000714445 -0.000723373)
(0.0241984 5.87545e-06 -1.82464e-05 -0.0376145 -0.00150198 0.000923015)
(0.0125243 1.93478e-05 -2.80801e-05 -0.0211273 -8.08608e-05 0.00193454)
(0.0108207 3.60519e-05 -2.87037e-05 -0.0185093 0.000622238 0.00188374)
(0.00749173 4.97807e-05 -2.4742e-05 -0.0130886 0.00109124 0.0014765)
(0.0047974 6.17233e-05 -1.63689e-05 -0.00844706 0.00131269 0.000906028)
(0.00266669 7.33939e-05 -4.81137e-06 -0.00463434 0.00131925 0.000333599)
(0.00126113 7.27404e-05 6.54523e-06 -0.00198022 0.00112075 -0.000130504)
(0.000768865 -3.97423e-05 1.15823e-05 -0.000795236 0.000574687 -0.0003688)
(0.0243939 4.46636e-06 -1.39102e-05 -0.0375124 -0.000763233 0.000514537)
(0.0127884 1.5996e-05 -2.09415e-05 -0.020709 -7.29844e-06 0.00110578)
(0.0110778 3.27648e-05 -1.97017e-05 -0.0181423 0.000427504 0.00111458)
(0.00768525 4.99733e-05 -1.4693e-05 -0.0128118 0.000734935 0.000891764)
(0.00490575 6.76418e-05 -7.07171e-06 -0.00827149 0.000900696 0.000551229)
(0.00268822 8.5181e-05 1.62929e-06 -0.00454319 0.000928081 0.000196295)
(0.00119859 8.85021e-05 8.41234e-06 -0.0019433 0.000807544 -8.42355e-05)
(0.00062806 -1.65156e-05 9.20028e-06 -0.000801515 0.000419626 -0.000168584)
(0.0244487 4.14107e-06 -9.12524e-06 -0.0373706 -0.000365442 0.000281823)
(0.012934 1.52386e-05 -1.33909e-05 -0.0204494 2.61718e-05 0.000618953)
(0.0112258 3.26686e-05 -1.15526e-05 -0.0178958 0.00028368 0.000636639)
(0.00780238 5.23437e-05 -7.04312e-06 -0.0126097 0.000471554 0.000504507)
(0.00497572 7.35753e-05 -1.17757e-06 -0.00812734 0.000580628 0.000293607)
(0.00270643 9.44104e-05 4.60509e-06 -0.00445292 0.000606675 7.2004e-05)
(0.00116424 9.97499e-05 8.15653e-06 -0.00189056 0.000535743 -9.07962e-05)