/*--------------------------------*- C++ -*----------------------------------*\
| =========                 |                                                 |
| \\      /  F ield         | foam-extend: Open Source CFD                    |
|  \\    /   O peration     | Version:     3.1                                |
|   \\  /    A nd           | Web:         http://www.extend-project.de       |
|    \\/     M anipulation  |                                                 |
\*---------------------------------------------------------------------------*/
FoamFile
{
    version     2.0;
    format      ascii;
    class       pointVectorField;
    location    "2.8";
    object      pointD;
}
// * * * * * * * * * * * * * * * * * * * * * * * * * * * * * * * * * * * * * //

dimensions      [0 1 0 0 0 0 0];

internalField   nonuniform List<vector> 
405
(
(0 0 0)
(0 0 0)
(0 0 0)
(0 0 0)
(0 0 0)
(0.000944732 0.0010001 0.000419194)
(0.000580481 0.00034195 0.000261149)
(0.000449072 -2.14883e-05 -2.38559e-05)
(0.000515114 -0.000393135 -0.000316464)
(0.00079239 -0.0010498 -0.000498201)
(0.00189102 0.00147154 0.000287387)
(0.00159171 0.000599372 0.000174902)
(0.00143606 -2.60658e-05 -4.32703e-05)
(0.00148473 -0.000656287 -0.000274833)
(0.00167058 -0.00153579 -0.000426436)
(0.00316507 0.00195236 0.000170857)
(0.00288163 0.000841 9.99087e-05)
(0.00272846 -3.89116e-05 -6.19519e-05)
(0.00274958 -0.000924461 -0.000237244)
(0.00289092 -0.00205197 -0.000352739)
(0.00460143 0.00228472 1.35787e-05)
(0.00435816 0.00100897 6.57797e-06)
(0.00421409 -6.24644e-05 -7.71575e-05)
(0.00420982 -0.00113891 -0.00017458)
(0.00429261 -0.0024301 -0.000227807)
(0.00614864 0.00250394 -0.000133897)
(0.00593869 0.00111716 -8.00063e-05)
(0.00580386 -9.4622e-05 -9.0581e-05)
(0.00577995 -0.00130876 -0.0001142)
(0.00581793 -0.00270525 -0.000105214)
(0.00773662 0.00262548 -0.000260609)
(0.0075531 0.00117499 -0.000155364)
(0.00742671 -0.000131976 -0.000104232)
(0.00738889 -0.00143696 -6.36122e-05)
(0.00739474 -0.00288687 1.75744e-06)
(0.00932325 0.00268699 -0.000359658)
(0.00915323 0.00119871 -0.000219453)
(0.0090287 -0.000169538 -0.000120663)
(0.00898153 -0.00153229 -2.91854e-05)
(0.00897178 -0.00300268 7.85555e-05)
(0.0109037 0.00271179 -0.000420247)
(0.0107081 0.00120814 -0.000263538)
(0.0105483 -0.000197251 -0.000137065)
(0.0105091 -0.00160089 -1.85885e-05)
(0.0105125 -0.00308031 0.000107529)
(0 0 0)
(0 0 0)
(0 0 0)
(0 0 0)
(0 0 0)
(0.00102073 0.000946382 0.000242544)
(0.000671262 0.000300632 0.000150026)
(0.000565306 -1.26711e-05 -1.97137e-05)
(0.000618114 -0.000326094 -0.000198658)
(0.000883304 -0.000966027 -0.000311792)
(0.00197228 0.00151331 0.000198361)
(0.00169259 0.000631971 0.000117472)
(0.00156725 -2.16737e-05 -3.82258e-05)
(0.00160237 -0.000676931 -0.000205146)
(0.00177571 -0.00156522 -0.000315057)
(0.00320186 0.00199992 0.000106252)
(0.00294295 0.000881005 5.87148e-05)
(0.00282019 -3.50508e-05 -5.35025e-05)
(0.00282972 -0.000954666 -0.000177427)
(0.00295512 -0.00208839 -0.00025796)
(0.00458934 0.00234092 -1.02891e-05)
(0.00436781 0.00105625 -1.05365e-05)
(0.00425146 -5.65795e-05 -6.65992e-05)
(0.00423834 -0.00117292 -0.000134595)
(0.00430814 -0.00247164 -0.000168715)
(0.00608358 0.00255766 -0.000125621)
(0.00589341 0.00116395 -7.82536e-05)
(0.00578393 -8.48901e-05 -7.87445e-05)
(0.00575326 -0.00133531 -9.05804e-05)
(0.00578006 -0.0027374 -7.56969e-05)
(0.00762467 0.00267349 -0.000226888)
(0.00745846 0.00121835 -0.000138394)
(0.00735481 -0.000117499 -9.163e-05)
(0.00731186 -0.00145125 -5.43251e-05)
(0.00730839 -0.00290455 5.57853e-06)
(0.00917415 0.00272588 -0.000306093)
(0.00901881 0.00123485 -0.000188729)
(0.00891423 -0.000151013 -0.000107207)
(0.00886412 -0.0015309 -3.29883e-05)
(0.0088474 -0.00300145 6.14681e-05)
(0.0107372 0.002744 -0.00035289)
(0.0105551 0.00123846 -0.000222578)
(0.0104138 -0.000176948 -0.000123519)
(0.0103718 -0.00158923 -3.3431e-05)
(0.0103687 -0.00306641 7.45585e-05)
(0 0 0)
(0 0 0)
(0 0 0)
(0 0 0)
(0 0 0)
(0.00107512 0.000956637 0.000126116)
(0.000706446 0.000299934 7.63894e-05)
(0.000594351 -9.56954e-06 -1.74564e-05)
(0.000651862 -0.00031914 -0.000117928)
(0.00093016 -0.000974335 -0.000179472)
(0.00203366 0.00150443 0.000106401)
(0.00173647 0.000631839 5.87019e-05)
(0.00160404 -1.70805e-05 -3.3626e-05)
(0.00164632 -0.000668221 -0.000133326)
(0.0018351 -0.00155196 -0.000195699)
(0.00323852 0.00198725 4.86995e-05)
(0.00297317 0.000885135 1.98848e-05)
(0.00284787 -2.91094e-05 -4.72179e-05)
(0.00285979 -0.000947271 -0.000121743)
(0.00299008 -0.00206546 -0.000166307)
(0.00459542 0.00232864 -2.93298e-05)
(0.00437029 0.00106321 -2.85564e-05)
(0.00425292 -4.81838e-05 -5.90487e-05)
(0.00424014 -0.00116307 -9.68835e-05)
(0.00431183 -0.00244243 -0.000111568)
(0.00605416 0.00254833 -0.000110466)
(0.00586286 0.00117389 -7.77916e-05)
(0.00575342 -7.33926e-05 -7.02158e-05)
(0.00572149 -0.00132163 -6.93955e-05)
(0.00574723 -0.00270274 -5.07641e-05)
(0.00756146 0.00266943 -0.000184218)
(0.00739534 0.00123081 -0.000122745)
(0.00729264 -0.000102777 -8.21872e-05)
(0.00724736 -0.00143279 -4.70421e-05)
(0.00724079 -0.00286602 3.07534e-06)
(0.00908241 0.00272975 -0.000243336)
(0.00892855 0.00124936 -0.000160669)
(0.00882564 -0.000133563 -9.67231e-05)
(0.0087724 -0.00150782 -3.68544e-05)
(0.00875076 -0.00296093 3.83829e-05)
(0.0106295 0.00275392 -0.000276246)
(0.01045 0.00125446 -0.000185225)
(0.0103101 -0.000157466 -0.000113301)
(0.0102618 -0.0015623 -4.7852e-05)
(0.0102509 -0.00302381 3.51241e-05)
(0 0 0)
(0 0 0)
(0 0 0)
(0 0 0)
(0 0 0)
(0.00110142 0.000963356 5.82382e-05)
(0.000717622 0.000300107 3.49792e-05)
(0.000598702 -7.80889e-06 -1.48621e-05)
(0.000659266 -0.000316141 -6.87484e-05)
(0.000948466 -0.000978453 -9.893e-05)
(0.0020618 0.00149417 4.40346e-05)
(0.00175092 0.000628176 2.20809e-05)
(0.00161037 -1.31505e-05 -2.84411e-05)
(0.00165657 -0.000657186 -8.33531e-05)
(0.00185647 -0.00153577 -0.00011326)
(0.00325596 0.00196866 6.35527e-06)
(0.0029804 0.000880708 -4.47321e-06)
(0.00284857 -2.28308e-05 -4.01293e-05)
(0.00286268 -0.000930574 -7.99526e-05)
(0.00300126 -0.00203512 -9.87478e-05)
(0.00459388 0.00230767 -4.52804e-05)
(0.00436238 0.00105986 -3.79922e-05)
(0.00423999 -3.91814e-05 -5.04858e-05)
(0.00422767 -0.00114159 -6.68911e-05)
(0.00430406 -0.00240291 -6.69953e-05)
(0.0060301 0.0025295 -0.000100772)
(0.00583542 0.00117333 -7.2931e-05)
(0.00572215 -6.13904e-05 -6.04157e-05)
(0.00568932 -0.0012964 -5.12827e-05)
(0.0057166 -0.00265764 -2.96623e-05)
(0.00751473 0.00265638 -0.000152803)
(0.00734737 0.00123417 -0.000105728)
(0.00724186 -8.77903e-05 -7.11871e-05)
(0.0071946 -0.00140469 -3.90669e-05)
(0.00718688 -0.00281833 3.76804e-06)
(0.00901559 0.0027256 -0.000195682)
(0.00886247 0.00125722 -0.000133938)
(0.0087574 -0.000115886 -8.43786e-05)
(0.00870081 -0.00147774 -3.64127e-05)
(0.00867511 -0.00291259 2.39323e-05)
(0.0105498 0.00275872 -0.000219336)
(0.010372 0.0012673 -0.000152539)
(0.0102291 -0.000137309 -0.000100276)
(0.0101741 -0.00153132 -5.16911e-05)
(0.0101559 -0.00297613 1.30095e-05)
(0 0 0)
(0 0 0)
(0 0 0)
(0 0 0)
(0 0 0)
(0.00111255 0.000965603 2.27671e-05)
(0.000719051 0.000300086 1.34013e-05)
(0.000595517 -6.41441e-06 -1.18339e-05)
(0.000657366 -0.000313349 -3.94007e-05)
(0.000952855 -0.000976886 -5.28008e-05)
(0.00207215 0.00148643 1.02336e-05)
(0.00175136 0.000625375 2.80204e-06)
(0.0016051 -9.57965e-06 -2.27409e-05)
(0.00165286 -0.00064727 -5.0866e-05)
(0.00185972 -0.00152101 -6.27587e-05)
(0.00325963 0.00195459 -1.58793e-05)
(0.00297545 0.000876588 -1.59642e-05)
(0.00283849 -1.68257e-05 -3.22953e-05)
(0.00285353 -0.000914417 -5.09368e-05)
(0.00299796 -0.002009 -5.51676e-05)
(0.00458608 0.00229093 -5.0555e-05)
(0.00434816 0.00105611 -3.92264e-05)
(0.00422152 -3.05745e-05 -4.08983e-05)
(0.0042093 -0.0011204 -4.46058e-05)
(0.00428954 -0.00236826 -3.68449e-05)
(0.00600822 0.0025137 -8.82551e-05)
(0.00580919 0.00117155 -6.3779e-05)
(0.00569252 -5.01008e-05 -4.92856e-05)
(0.00565901 -0.00127147 -3.64064e-05)
(0.00568805 -0.00261748 -1.46062e-05)
(0.00747798 0.00264437 -0.000124503)
(0.00730793 0.00123549 -8.73662e-05)
(0.00719974 -7.39143e-05 -5.84989e-05)
(0.00715106 -0.00137721 -3.05766e-05)
(0.0071431 -0.00277512 5.26736e-06)
(0.0089648 0.00271962 -0.000155195)
(0.00881043 0.00126225 -0.00010809)
(0.008703 -9.96479e-05 -6.98167e-05)
(0.00864391 -0.00144861 -3.19856e-05)
(0.00861587 -0.00286791 1.57239e-05)
(0.0104885 0.00275873 -0.000171772)
(0.0103099 0.00127629 -0.000121787)
(0.0101637 -0.000118735 -8.3633e-05)
(0.0101038 -0.0015012 -4.74776e-05)
(0.0100811 -0.00293109 2.51431e-06)
(0 0 0)
(0 0 0)
(0 0 0)
(0 0 0)
(0 0 0)
(0.00111637 0.000965655 6.03197e-06)
(0.000717253 0.000300012 3.2775e-06)
(0.000590827 -5.24624e-06 -8.70197e-06)
(0.000653079 -0.000310832 -2.19775e-05)
(0.000951664 -0.000973093 -2.70807e-05)
(0.00207389 0.00148101 -4.64187e-06)
(0.00174674 0.000623798 -5.20596e-06)
(0.00159676 -6.48863e-06 -1.68918e-05)
(0.001645 -0.000639382 -3.00793e-05)
(0.00185581 -0.00150888 -3.32231e-05)
(0.00325646 0.0019454 -2.28452e-05)
(0.00296632 0.000874221 -1.83366e-05)
(0.00282585 -1.16047e-05 -2.41677e-05)
(0.00284115 -0.000901486 -3.12736e-05)
(0.0029891 -0.00198898 -2.90171e-05)
(0.00457556 0.00227992 -4.6004e-05)
(0.00433278 0.00105399 -3.41793e-05)
(0.00420312 -2.31589e-05 -3.08069e-05)
(0.00419081 -0.00110322 -2.84856e-05)
(0.00427355 -0.00234175 -1.84549e-05)
(0.0059887 0.00250302 -7.11825e-05)
(0.00578604 0.00117072 -5.09752e-05)
(0.00566689 -4.05106e-05 -3.73744e-05)
(0.0056329 -0.00125105 -2.45238e-05)
(0.00566323 -0.00258629 -5.49229e-06)
(0.00744863 0.00263581 -9.58045e-05)
(0.00727604 0.00123676 -6.73816e-05)
(0.00716582 -6.22913e-05 -4.46592e-05)
(0.00711622 -0.00135449 -2.22481e-05)
(0.00710829 -0.0027409 5.88891e-06)
(0.00892552 0.00271458 -0.000117089)
(0.00876954 0.00126602 -8.20371e-05)
(0.00866025 -8.61922e-05 -5.35907e-05)
(0.00859955 -0.00142437 -2.51642e-05)
(0.00857022 -0.00283174 1.07761e-05)
(0.0104409 0.00275746 -0.000128527)
(0.0102608 0.00128285 -9.18183e-05)
(0.0101119 -0.000103387 -6.44587e-05)
(0.0100489 -0.00147589 -3.82284e-05)
(0.0100237 -0.00289399 -1.12781e-06)
(0 0 0)
(0 0 0)
(0 0 0)
(0 0 0)
(0 0 0)
(0.00111719 0.000964978 -3.2102e-07)
(0.000714991 0.00029996 -4.92809e-07)
(0.00058684 -4.35213e-06 -5.67049e-06)
(0.000649125 -0.000308871 -1.15271e-05)
(0.000949064 -0.000969308 -1.29917e-05)
(0.00207253 0.00147744 -8.13429e-06)
(0.00174156 0.000623055 -6.47647e-06)
(0.00158928 -4.10743e-06 -1.11265e-05)
(0.00163758 -0.000633729 -1.66052e-05)
(0.00185048 -0.00149996 -1.63762e-05)
(0.0032515 0.00193984 -1.98732e-05)
(0.0029576 0.000873168 -1.49257e-05)
(0.00281491 -7.59526e-06 -1.60283e-05)
(0.0028302 -0.00089229 -1.7806e-05)
(0.0029801 -0.00197498 -1.40495e-05)
(0.00456583 0.00227338 -3.42866e-05)
(0.00431981 0.00105319 -2.48838e-05)
(0.0041882 -1.75109e-05 -2.05467e-05)
(0.00417574 -0.00109096 -1.67348e-05)
(0.00425995 -0.00232338 -8.21903e-06)
(0.00597327 0.00249659 -4.98969e-05)
(0.00576805 0.00117076 -3.54486e-05)
(0.00564725 -3.32829e-05 -2.50644e-05)
(0.00561293 -0.00123635 -1.50169e-05)
(0.00564408 -0.0025645 -1.07677e-06)
(0.00742683 0.00263047 -6.53142e-05)
(0.00725231 0.00123808 -4.58785e-05)
(0.00714074 -5.36227e-05 -3.01063e-05)
(0.00709058 -0.00133801 -1.44105e-05)
(0.00708274 -0.00271665 5.03228e-06)
(0.00889703 0.00271111 -7.88175e-05)
(0.00873963 0.00126885 -5.52999e-05)
(0.00862907 -7.62418e-05 -3.6265e-05)
(0.0085674 -0.00140663 -1.71527e-05)
(0.00853745 -0.00280572 7.03344e-06)
(0.0104064 0.0027561 -8.60804e-05)
(0.0102248 0.0012874 -6.16458e-05)
(0.010074 -9.20907e-05 -4.37004e-05)
(0.0100092 -0.00145717 -2.63948e-05)
(0.00998274 -0.00286689 -1.652e-06)
(0 0 0)
(0 0 0)
(0 0 0)
(0 0 0)
(0 0 0)
(0.00111709 0.00096434 -1.29475e-06)
(0.000713372 0.000299933 -9.49788e-07)
(0.000584308 -3.79148e-06 -2.78697e-06)
(0.000646528 -0.000307638 -4.91377e-06)
(0.000946975 -0.00096669 -5.13925e-06)
(0.00207085 0.00147541 -5.41686e-06)
(0.00173788 0.000622761 -4.0483e-06)
(0.00158437 -2.61293e-06 -5.51163e-06)
(0.00163261 -0.000630342 -7.34321e-06)
(0.00184649 -0.00149452 -6.61e-06)
(0.0032476 0.00193688 -1.12088e-05)
(0.00295165 0.000872806 -8.20605e-06)
(0.00280775 -5.0853e-06 -7.97779e-06)
(0.00282297 -0.000886823 -8.04166e-06)
(0.00297383 -0.00196671 -5.55309e-06)
(0.00455916 0.00226997 -1.81674e-05)
(0.00431134 0.00105303 -1.3034e-05)
(0.00417864 -1.39941e-05 -1.02658e-05)
(0.00416606 -0.00108366 -7.7157e-06)
(0.00425103 -0.00231261 -2.94774e-06)
(0.00596339 0.00249324 -2.56783e-05)
(0.00575668 0.00117108 -1.81541e-05)
(0.00563497 -2.88121e-05 -1.2568e-05)
(0.00560045 -0.00122757 -7.11026e-06)
(0.00563203 -0.00255169 2.25505e-07)
(0.00741332 0.00262762 -3.3134e-05)
(0.00723763 0.00123908 -2.3238e-05)
(0.00712529 -4.82954e-05 -1.51454e-05)
(0.00707483 -0.00132811 -7.06154e-06)
(0.00706707 -0.00270228 2.87869e-06)
(0.00887958 0.00270912 -3.97096e-05)
(0.00872129 0.00127065 -2.78583e-05)
(0.00861 -7.01584e-05 -1.82837e-05)
(0.00854784 -0.00139592 -8.65356e-06)
(0.00851762 -0.00279016 3.5353e-06)
(0.0103853 0.00275511 -4.32576e-05)
(0.0102027 0.0012901 -3.09909e-05)
(0.0100508 -8.52016e-05 -2.20473e-05)
(0.00998513 -0.00144579 -1.34038e-05)
(0.00995808 -0.00285054 -9.92446e-07)
(0 0 0)
(0 0 0)
(0 0 0)
(0 0 0)
(0 0 0)
(0.00111696 0.000964094 -0)
(0.000712797 0.000299925 -0)
(0.000583449 -3.60069e-06 0)
(0.000645635 -0.000307219 0)
(0.000946205 -0.000965768 0)
(0.00207016 0.00147475 -0)
(0.00173657 0.000622687 0)
(0.00158268 -2.10437e-06 0)
(0.00163089 -0.000629215 0)
(0.00184505 -0.0014927 0)
(0.00324615 0.00193596 -0)
(0.00294956 0.000872729 0)
(0.00280527 -4.23219e-06 0)
(0.00282047 -0.000885011 0)
(0.00297162 -0.00196398 0)
(0.0045568 0.00226892 -0)
(0.00430841 0.00105303 0)
(0.00417537 -1.28017e-05 0)
(0.00416274 -0.00108124 0)
(0.00424793 -0.00230906 0)
(0.00595998 0.00249221 -0)
(0.0057528 0.00117124 0)
(0.00563079 -2.73009e-05 0)
(0.00559621 -0.00122466 0)
(0.00562792 -0.00254747 0)
(0.00740872 0.00262672 -0)
(0.00723266 0.00123945 0)
(0.00712007 -4.65e-05 0)
(0.00706952 -0.00132481 0)
(0.00706179 -0.00269752 0)
(0.00887368 0.00270847 -0)
(0.0087151 0.00127126 0)
(0.00860357 -6.81121e-05 0)
(0.00854126 -0.00139234 0)
(0.00851097 -0.00278499 0)
(0.0103782 0.00275473 -0)
(0.0101953 0.00129099 -0)
(0.0100431 -8.28841e-05 0)
(0.00997705 -0.00144198 0)
(0.00994983 -0.00284509 0)
)
;

boundaryField
{
    interface
    {
        type            calculated;
    }
    symmetry
    {
        type            symmetryPlane;
    }
    bottom
    {
        type            fixedValue;
        value           uniform (0 0 0);
    }
}


// ************************************************************************* //
