/*--------------------------------*- C++ -*----------------------------------*\
| =========                 |                                                 |
| \\      /  F ield         | foam-extend: Open Source CFD                    |
|  \\    /   O peration     | Version:     3.1                                |
|   \\  /    A nd           | Web:         http://www.extend-project.de       |
|    \\/     M anipulation  |                                                 |
\*---------------------------------------------------------------------------*/
FoamFile
{
    version     2.0;
    format      ascii;
    class       volSymmTensorField;
    location    "2.8";
    object      sigma;
}
// * * * * * * * * * * * * * * * * * * * * * * * * * * * * * * * * * * * * * //

dimensions      [1 -1 -2 0 0 0 0];

internalField   nonuniform List<symmTensor> 
256
(
(191.34 66.2105 -2.96485 432.943 34.9176 220.996)
(25.6117 56.3647 -8.8398 87.7821 12.1145 34.6871)
(-60.0096 52.603 -9.04117 -120.603 -17.1207 -60.0159)
(-216.469 55.9618 -3.66991 -445.198 -42.036 -234.169)
(-81.3713 27.6337 -3.46299 129.678 -10.7431 -23.9448)
(-34.5905 72.6738 -13.9492 47.7146 -4.79658 -10.578)
(-1.5442 71.1656 -14.4256 -56.8244 2.67495 -3.5489)
(43.3385 26.6124 -5.06186 -140.199 7.81078 9.99328)
(-29.6768 33.8052 -1.44314 158.305 -5.82496 26.31)
(-35.477 70.3236 -9.53259 43.1639 -2.38385 -5.35722)
(-7.50805 70.3615 -9.86438 -50.9588 0.365529 -8.98745)
(-7.2506 34.1612 -3.03445 -161.746 3.56679 -33.902)
(-41.533 29.5961 -1.4285 106.597 -8.47504 11.381)
(-36.1867 64.1344 -7.80628 29.7327 -2.92339 -6.48617)
(-6.95115 64.5472 -8.04303 -35.7723 1.31541 -5.17159)
(4.7686 30.4655 -3.14323 -107.131 6.80664 -15.5175)
(-37.8012 25.6534 -1.02572 73.7922 -7.8066 11.3286)
(-33.7783 55.1827 -6.21671 19.4467 -2.54131 -5.02311)
(-8.30544 55.8434 -6.41767 -25.1612 1.26144 -4.78175)
(1.82543 26.9235 -2.74614 -72.9379 6.64855 -13.2028)
(-38.0168 19.7907 -1.08163 43.0394 -6.82601 8.15146)
(-32.2074 44.1861 -5.34379 9.82513 -2.23081 -4.60241)
(-8.74971 45.1937 -5.4269 -16.3374 1.11865 -4.27942)
(2.47224 21.761 -2.6314 -42.091 6.10156 -9.19079)
(-36.9476 12.8125 -1.59569 23.877 -5.61682 8.41291)
(-32.0439 32.0429 -5.04269 2.3244 -2.15468 -4.41722)
(-9.11822 33.1074 -4.91129 -10.1258 0.707165 -4.47028)
(3.303 15.6631 -2.71096 -20.8383 4.77983 -7.7098)
(-47.8013 7.0699 -2.19477 7.2249 -3.05818 3.23998)
(-44.6336 18.0295 -4.7563 -7.58534 -1.36725 -10.8647)
(-3.16229 17.681 -4.69115 -1.30737 -0.0453182 -0.824086)
(10.34 7.65328 -3.16073 -6.22326 1.72866 -5.08417)
(192.387 75.4538 -1.89869 428.387 21.6733 229.325)
(31.1065 68.033 -7.11865 90.2418 6.89845 41.406)
(-54.7137 64.8024 -7.7446 -108.129 -12.2334 -56.8329)
(-208.258 65.7131 -3.35678 -426.463 -28.8716 -232.557)
(-46.7253 28.5616 -2.7723 175.551 -3.76702 17.5278)
(-10.892 75.2233 -13.1034 73.84 -2.57216 12.6427)
(-23.2264 74.3774 -14.4129 -83.3866 -0.990679 -26.6812)
(7.63063 28.6002 -5.83515 -188.453 -0.513264 -31.8072)
(-23.78 29.7988 -1.1966 163.354 -9.14709 31.164)
(-23.7286 64.6919 -10.3416 51.7645 -3.74376 2.55629)
(-13.6981 64.8775 -11.7116 -57.1275 1.56331 -14.4718)
(-10.8236 30.1614 -4.68142 -165.665 6.6329 -36.6713)
(-30.7692 24.7141 -0.0123023 115.576 -11.4876 20.5903)
(-23.8154 55.8646 -7.33012 38.432 -4.05514 1.54832)
(-12.825 56.2579 -8.74573 -40.9751 2.77413 -10.7888)
(-3.28311 25.4556 -3.81687 -114.169 10.1644 -22.7272)
(-30.0807 20.2993 1.06518 78.4167 -11.4706 17.1916)
(-23.3641 46.2763 -4.93074 25.8045 -3.81655 0.83061)
(-11.6826 46.8453 -6.35536 -27.074 3.14029 -7.99959)
(-2.98325 21.3971 -2.82965 -74.9019 11.0292 -17.0409)
(-30.543 14.9919 1.59669 47.2286 -10.0979 14.0879)
(-22.8574 36.1785 -3.34355 15.2142 -3.31878 0.370024)
(-10.9034 37.0623 -4.65025 -16.5711 2.86614 -6.32523)
(-1.88109 16.8259 -2.11281 -42.7872 10.2343 -12.7514)
(-30.352 8.92116 1.52176 27.1466 -7.82524 13.6904)
(-24.4224 25.8382 -2.61226 6.07756 -2.79065 -0.924398)
(-10.1699 26.8524 -3.70709 -9.02716 2.00088 -5.29432)
(0.206043 11.914 -1.70258 -19.7186 7.97269 -9.96331)
(-40.9376 5.22762 0.97923 11.2366 -4.22927 8.70083)
(-38.1532 14.9337 -2.59942 -4.45842 -1.69199 -8.352)
(-5.32374 14.5447 -3.87432 -1.44686 0.675071 -2.38524)
(5.85514 5.9649 -2.26513 -6.95182 3.79077 -8.42059)
(199.494 79.2889 -1.27866 439.348 10.8505 244.615)
(33.8175 71.0695 -4.57688 94.3444 2.9061 47.384)
(-55.2698 67.6288 -5.09636 -108.063 -7.64593 -60.1544)
(-215.153 68.7455 -2.35623 -435.185 -16.6412 -247.154)
(-47.3797 29.1583 -2.25503 176.722 -2.44065 30.9343)
(-9.1055 76.5802 -8.93738 77.8069 -2.02121 20.4585)
(-24.9495 75.7843 -10.0455 -85.3432 -1.39618 -33.4176)
(5.57237 29.1992 -4.55027 -190.454 -1.17539 -47.7028)
(-24.4186 29.4059 -1.47045 165.401 -6.95348 39.8407)
(-23.012 64.2551 -7.74975 54.6921 -3.10919 7.80308)
(-14.6853 64.4323 -8.93651 -58.6865 1.01445 -18.9387)
(-12.9602 29.5574 -4.03479 -168.738 4.79578 -48.4702)
(-31.6993 23.8317 -0.509416 116.515 -9.22944 24.7231)
(-23.1376 53.8154 -5.67377 40.5938 -3.47582 5.16851)
(-13.6995 54.19 -6.88242 -41.5871 2.41943 -13.3658)
(-5.62576 24.4486 -3.20133 -116.465 8.25259 -30.422)
(-31.8925 19.0102 0.3725 78.2068 -9.5835 17.4455)
(-22.7559 43.5733 -3.67404 27.6125 -3.31744 3.3248)
(-12.432 44.1695 -4.86611 -27.092 3.0078 -9.15434)
(-4.56623 20.1196 -2.30874 -75.8556 9.52932 -20.7723)
(-32.6689 13.5968 0.916264 46.5597 -8.63098 11.8682)
(-22.2663 33.4367 -2.25278 16.7534 -2.86909 2.07645)
(-11.5251 34.4443 -3.34224 -16.0857 2.91994 -6.33723)
(-3.07138 15.6655 -1.58661 -42.8702 9.18065 -13.5622)
(-32.1677 7.54461 0.981287 26.7602 -6.72007 10.1522)
(-23.8666 23.5952 -1.63371 7.37266 -2.29507 0.142134)
(-10.788 24.8426 -2.59329 -8.27276 2.17728 -4.41392)
(-0.73679 11.0859 -1.2167 -19.1632 7.38161 -8.44997)
(-43.4163 4.55027 0.459064 9.76641 -3.43912 2.99403)
(-38.0721 13.8134 -2.04199 -3.56794 -1.24101 -8.12907)
(-6.42416 13.5605 -3.26393 -0.60242 0.775771 -0.560766)
(5.84096 5.64978 -1.98448 -4.82999 3.45277 -3.52434)
(203.236 80.709 -0.720675 445.615 4.71619 253.837)
(34.7691 71.66 -2.74367 96.3791 0.822012 50.6045)
(-55.8611 67.9546 -3.09273 -108.321 -4.67344 -62.4348)
(-218.715 69.4751 -1.47032 -439.751 -9.13387 -255.836)
(-48.5143 29.341 -1.38127 176.578 -2.06079 40.2191)
(-9.49782 77.2289 -5.63159 79.0972 -1.64573 24.6274)
(-25.4096 76.3852 -6.39456 -85.0737 -1.20015 -37.1343)
(5.16344 29.3562 -3.01316 -189.973 -0.779903 -58.0642)
(-25.1036 29.5838 -1.06267 166.492 -4.9179 47.8789)
(-24.0067 64.632 -5.28062 55.7122 -2.31651 10.959)
(-15.0611 64.8059 -6.10571 -58.4792 0.576678 -21.9085)
(-13.5916 29.6811 -2.8777 -169.054 3.24304 -57.4853)
(-32.5165 23.8085 -0.484691 117.635 -6.54907 30.0258)
(-24.1442 53.7424 -4.06792 41.5095 -2.55772 7.41691)
(-14.2165 54.1342 -4.88495 -41.3349 1.75294 -15.343)
(-6.27076 24.43 -2.34083 -116.818 5.86269 -36.7188)
(-32.7005 18.803 0.120603 79.3574 -6.96803 20.1821)
(-23.6808 43.151 -2.7132 28.5157 -2.45204 4.80191)
(-13.0383 43.812 -3.4955 -26.7719 2.34302 -10.1276)
(-5.20306 20.0165 -1.6837 -76.0621 7.07705 -24.2543)
(-33.3855 13.2406 0.527763 47.7962 -6.44854 12.6077)
(-23.0676 32.8302 -1.7005 17.6529 -2.14231 2.97835)
(-12.1401 33.9752 -2.4004 -15.6527 2.38082 -6.38389)
(-3.70009 15.5615 -1.12831 -42.8805 7.06348 -14.6193)
(-32.4705 7.0814 0.574186 28.3711 -5.18002 9.68243)
(-24.5605 23.0144 -1.35033 8.25337 -1.72763 0.644009)
(-11.4839 24.4522 -1.97377 -7.75657 1.8367 -3.65544)
(-1.414 11.0389 -0.884116 -18.8859 5.84866 -7.46796)
(-43.6593 4.33031 0.0276926 11.1884 -2.79601 1.51299)
(-38.8961 13.494 -2.04113 -2.67045 -0.969293 -7.81362)
(-7.68692 13.3113 -2.89523 -0.177493 0.675396 0.874562)
(5.04696 5.64414 -1.67009 -4.20911 2.79825 -0.625883)
(204.685 81.1182 -0.361024 448.342 1.62559 258.525)
(35.1308 71.4548 -1.56039 97.44 -0.104518 52.3292)
(-56.138 67.5462 -1.78078 -108.187 -2.80335 -63.6741)
(-219.879 69.3721 -0.860929 -440.87 -4.83393 -259.984)
(-49.5175 29.3141 -0.740261 176.361 -1.76574 45.7644)
(-9.98401 77.356 -3.35099 79.7982 -1.29798 27.0108)
(-25.7372 76.472 -3.84643 -84.4973 -0.897271 -39.3732)
(4.91534 29.3323 -1.85007 -189.301 -0.37474 -64.4027)
(-25.9773 29.7135 -0.637066 166.905 -3.41934 53.1495)
(-24.8671 64.9524 -3.35926 56.312 -1.64439 12.9382)
(-15.4021 65.1423 -3.90206 -57.9225 0.31664 -23.8844)
(-13.7926 29.8203 -1.86991 -168.561 2.18467 -63.3215)
(-33.4316 23.9451 -0.324429 118.26 -4.42642 33.9585)
(-25.0184 54.0667 -2.7158 42.1485 -1.75853 8.94321)
(-14.6421 54.4933 -3.24124 -40.8441 1.18029 -16.79)
(-6.50718 24.6188 -1.56169 -116.462 3.9595 -41.1476)
(-33.5395 18.8844 0.0418574 80.1959 -4.75032 22.6134)
(-24.4903 43.3771 -1.89236 29.2097 -1.68093 5.87743)
(-13.5084 44.1016 -2.38246 -26.3208 1.65932 -10.9245)
(-5.48511 20.2131 -1.13826 -75.7955 4.8955 -26.9518)
(-34.1088 13.2253 0.293826 48.7932 -4.49853 13.7384)
(-23.7686 32.93 -1.26541 18.3901 -1.48999 3.71105)
(-12.6208 34.179 -1.69415 -15.2143 1.735 -6.52746)
(-4.00457 15.7506 -0.775811 -42.6005 5.00966 -15.6338)
(-32.91 6.95709 0.281472 29.6185 -3.73077 9.98401)
(-25.2013 23.0227 -1.14298 8.97546 -1.23274 1.13449)
(-12.041 24.5804 -1.52454 -7.33079 1.35712 -3.21139)
(-1.74843 11.208 -0.660238 -18.4614 4.23389 -6.98187)
(-44.2823 4.27871 -0.245994 12.1195 -2.07895 0.897195)
(-39.8165 13.4875 -1.90917 -2.08178 -0.713523 -7.59516)
(-8.63258 13.3154 -2.46173 0.180177 0.489256 1.78931)
(4.62492 5.71857 -1.37026 -3.62245 2.03866 1.1771)
(205.115 81.1464 -0.155087 449.334 0.274789 260.767)
(35.2637 71.075 -0.835533 98.0186 -0.389432 53.239)
(-56.1945 67.0251 -0.967953 -107.84 -1.61582 -64.2655)
(-219.975 69.0464 -0.472768 -440.477 -2.43592 -261.726)
(-50.1676 29.2065 -0.341154 176.261 -1.37113 48.949)
(-10.3496 77.2402 -1.86945 80.2521 -0.94238 28.3368)
(-25.9545 76.3291 -2.17483 -83.9242 -0.604522 -40.6785)
(4.68823 29.2432 -1.05744 -188.713 -0.124201 -68.1219)
(-26.6188 29.7566 -0.321779 167.163 -2.27044 56.3798)
(-25.4551 65.1003 -1.98387 56.7377 -1.09736 14.1182)
(-15.6702 65.3087 -2.32271 -57.3782 0.170236 -25.133)
(-13.8973 29.8918 -1.11807 -167.978 1.42242 -66.8715)
(-34.0989 24.0524 -0.166215 118.683 -2.83721 36.5743)
(-25.6205 54.3469 -1.67215 42.6177 -1.13368 9.9111)
(-14.944 54.8055 -1.99495 -40.3489 0.745015 -17.7526)
(-6.62209 24.7836 -0.956037 -115.963 2.5336 -43.9878)
(-34.1509 18.9918 0.0356482 80.7808 -3.04369 24.4378)
(-25.0479 43.6714 -1.21528 29.7265 -1.07638 6.61402)
(-13.8211 44.4456 -1.51061 -25.8744 1.08091 -11.4912)
(-5.62012 20.4163 -0.708911 -75.3761 3.16298 -28.8024)
(-34.6284 13.2804 0.171592 49.5009 -2.92964 14.8367)
(-24.2543 33.1608 -0.871054 18.9335 -0.966882 4.2669)
(-12.9333 34.4827 -1.12484 -14.8115 1.14783 -6.67101)
(-4.16284 15.9547 -0.499067 -42.2207 3.28305 -16.4558)
(-33.2457 6.92696 0.127765 30.4851 -2.49143 10.6082)
(-25.6627 23.1589 -0.878171 9.49018 -0.820507 1.5524)
(-12.4113 24.7941 -1.10348 -6.98018 0.900344 -2.97478)
(-1.93037 11.3796 -0.464744 -18.0357 2.80831 -6.85106)
(-44.6847 4.26042 -0.296191 12.8915 -1.43054 1.0632)
(-40.4959 13.5425 -1.53405 -1.65753 -0.491151 -7.348)
(-9.27267 13.3676 -1.87597 0.450027 0.315499 2.27711)
(4.29339 5.781 -1.01627 -3.24527 1.35841 1.99179)
(205.155 81.0742 -0.0547035 449.591 -0.135819 261.756)
(35.3087 70.7568 -0.398532 98.3317 -0.338259 53.6988)
(-56.1607 66.6182 -0.468957 -107.497 -0.830176 -64.5133)
(-219.74 68.7517 -0.23057 -439.732 -1.10623 -262.342)
(-50.5605 29.1003 -0.131692 176.209 -0.869289 50.6308)
(-10.5821 77.0765 -0.922533 80.5392 -0.572725 29.0299)
(-26.0775 76.1494 -1.08806 -83.4819 -0.344893 -41.386)
(4.52631 29.1563 -0.532175 -188.271 -0.0151038 -70.1477)
(-27.0321 29.7538 -0.136446 167.323 -1.30703 58.1696)
(-25.8097 65.1374 -1.02362 57.0272 -0.63123 14.7688)
(-15.8453 65.3604 -1.20904 -56.9712 0.0838454 -25.8565)
(-13.9565 29.9154 -0.581822 -167.519 0.809792 -68.86)
(-34.5285 24.1091 -0.068053 118.946 -1.58788 38.1036)
(-25.9847 54.5103 -0.891043 42.9351 -0.634953 10.4715)
(-15.1309 54.9918 -1.06595 -39.9731 0.409762 -18.3287)
(-6.68372 24.8844 -0.506724 -115.556 1.41451 -45.6392)
(-34.5498 19.063 0.0291587 81.1327 -1.69799 25.5845)
(-25.3846 43.8758 -0.66968 30.0697 -0.599018 7.06843)
(-14.0057 44.6827 -0.827817 -25.5337 0.605123 -11.8434)
(-5.68543 20.5533 -0.3817 -75.0149 1.77005 -29.9282)
(-34.9723 13.3256 0.0912669 49.9177 -1.65087 15.6174)
(-24.5485 33.3385 -0.507616 19.2851 -0.543378 4.63768)
(-13.1138 34.706 -0.641969 -14.5106 0.647305 -6.77557)
(-4.24091 16.0958 -0.277576 -41.8954 1.84974 -17.0114)
(-33.487 6.91827 0.0480046 30.987 -1.42828 11.1464)
(-25.9474 23.271 -0.552042 9.81492 -0.469957 1.85527)
(-12.6289 24.9522 -0.671108 -6.73113 0.507055 -2.86083)
(-2.01938 11.4959 -0.278223 -17.7035 1.59169 -6.86569)
(-44.9648 4.25406 -0.2254 13.3606 -0.83995 1.37398)
(-40.9308 13.5912 -0.984149 -1.3953 -0.287918 -7.14902)
(-9.65814 13.4083 -1.17089 0.635425 0.173881 2.50954)
(4.08956 5.81849 -0.625739 -2.99598 0.771233 2.3081)
(205.114 81.0171 -0.0123997 449.616 -0.0903667 262.117)
(35.3212 70.5848 -0.116707 98.471 -0.128217 53.8906)
(-56.1233 66.4034 -0.138724 -107.294 -0.254932 -64.5967)
(-219.547 68.5875 -0.0684236 -439.236 -0.314272 -262.508)
(-50.7451 29.0382 -0.0325818 176.184 -0.297579 51.3465)
(-10.6941 76.972 -0.275701 80.68 -0.192208 29.3241)
(-26.1311 76.0376 -0.327982 -83.2434 -0.111744 -41.694)
(4.44439 29.106 -0.160815 -188.033 0.00491753 -71.0345)
(-27.2318 29.7424 -0.0364981 167.401 -0.427764 58.956)
(-25.9756 65.1359 -0.313834 57.1749 -0.206312 15.0544)
(-15.93 65.3666 -0.372693 -56.7562 0.0252795 -26.1866)
(-13.9836 29.9192 -0.179123 -167.271 0.2637 -69.7467)
(-34.7356 24.1308 -0.0176885 119.073 -0.511987 38.798)
(-26.1551 54.5796 -0.278239 43.0957 -0.204641 10.7255)
(-15.2191 55.0726 -0.333492 -39.774 0.13065 -18.5965)
(-6.71128 24.9294 -0.157682 -115.336 0.455222 -46.3926)
(-34.7437 19.0953 0.0107541 81.2967 -0.546246 26.1275)
(-25.5421 43.973 -0.213198 30.2401 -0.192367 7.28297)
(-14.0905 44.7958 -0.262865 -25.3525 0.194464 -12.0104)
(-5.71203 20.6186 -0.119986 -74.8143 0.569635 -30.4554)
(-35.14 13.347 0.027993 50.1074 -0.533718 16.0125)
(-24.6862 33.4269 -0.166838 19.4561 -0.175423 4.82106)
(-13.1952 34.8159 -0.208764 -14.3515 0.208612 -6.82907)
(-4.27299 16.1641 -0.0890614 -41.7145 0.596802 -17.2879)
(-33.6079 6.91435 0.0102051 31.2112 -0.466249 11.4432)
(-26.0815 23.3277 -0.188633 9.97004 -0.15329 2.01179)
(-12.7281 25.0292 -0.225691 -6.60203 0.163232 -2.81608)
(-2.05663 11.5511 -0.0930253 -17.5263 0.514762 -6.90261)
(-45.0966 4.25313 -0.0845228 13.5789 -0.279401 1.58497)
(-41.1371 13.6183 -0.338676 -1.2693 -0.0952194 -7.0392)
(-9.84012 13.4272 -0.397942 0.729376 0.0556894 2.59697)
(3.98797 5.83379 -0.211776 -2.87543 0.249767 2.39725)
)
;

boundaryField
{
    interface
    {
        type            calculated;
        value           nonuniform List<symmTensor> 
192
(
(-24.9356 -0.0486079 2.38062 449.3 43.327 134.496)
(-24.3797 0.0148984 3.99305 216.983 -12.9493 24.0973)
(-24.4839 -0.00123627 4.77025 216.687 -7.93088 46.2461)
(-24.5415 -0.156751 5.17335 155.798 -11.9129 34.8464)
(-24.7993 -0.51819 5.36912 108.441 -11.1809 30.3748)
(-25.1301 -1.14568 5.3734 67.3744 -9.78768 25.3838)
(-25.3325 -2.23996 5.12869 42.1479 -7.7029 24.3499)
(-24.0112 -3.92511 4.44691 29.4 -4.02309 26.5784)
(-27.9947 0.117278 1.68282 442.769 27.1948 142.657)
(-27.7585 0.238567 2.84054 238.766 -4.12872 42.839)
(-28.4886 0.242423 3.38358 214.019 -11.8974 44.3746)
(-29.18 0.0214341 3.65658 154.864 -15.5163 34.9715)
(-29.8312 -0.4607 3.76859 104.964 -15.6888 29.2778)
(-30.2136 -1.28076 3.73009 64.1208 -13.8806 25.1521)
(-29.8083 -2.68005 3.50517 39.5612 -10.5942 25.0568)
(-26.2693 -4.66327 3.0038 28.9385 -5.60946 29.0667)
(-30.0211 0.160877 1.19615 450.805 13.7304 154.749)
(-29.6442 0.305932 2.01146 236.202 -2.52583 56.6142)
(-30.4929 0.320635 2.36403 213.55 -8.74289 52.3085)
(-31.3077 0.0702133 2.52123 154.014 -12.0537 37.4341)
(-32.0089 -0.481774 2.57081 103.654 -12.7311 27.4113)
(-32.2729 -1.41724 2.52424 62.9482 -11.5829 20.5075)
(-31.4108 -2.98079 2.36789 39.2576 -9.02004 18.9914)
(-26.7443 -5.07007 2.05954 28.4222 -4.64776 21.6487)
(-31.472 0.165968 0.869442 455.463 5.98388 162.505)
(-30.9697 0.316623 1.46481 234.562 -2.2486 67.5931)
(-31.8219 0.334391 1.71018 213.524 -6.09073 61.4814)
(-32.6421 0.066142 1.8087 154.425 -8.40778 43.2148)
(-33.3149 -0.529882 1.83198 104.282 -9.12392 29.8394)
(-33.4546 -1.53683 1.79363 63.8693 -8.55494 20.3409)
(-32.2839 -3.19733 1.69114 40.7541 -6.92405 17.171)
(-26.9422 -5.33486 1.49298 29.9235 -3.79482 18.8437)
(-32.5096 0.16213 0.622652 457.268 2.07237 166.557)
(-31.9306 0.310223 1.05392 233.721 -2.03284 74.3962)
(-32.7647 0.325594 1.22808 213.562 -4.23214 67.952)
(-33.5646 0.0448264 1.29337 154.869 -5.64477 48.04)
(-34.1971 -0.579339 1.30612 105.043 -6.17779 32.6666)
(-34.2402 -1.63135 1.27935 64.878 -5.93755 21.4191)
(-32.8628 -3.35377 1.21428 42.1104 -4.98202 17.0787)
(-27.0685 -5.51944 1.08342 31.2466 -2.83278 17.9698)
(-33.2257 0.157716 0.420752 457.672 0.360268 168.508)
(-32.606 0.300912 0.714995 233.271 -1.63119 78.2972)
(-33.4214 0.311763 0.833141 213.658 -2.82407 71.9908)
(-34.2017 0.0220486 0.875987 155.24 -3.61603 51.3544)
(-34.7994 -0.619983 0.883908 105.63 -3.95154 34.9365)
(-34.7753 -1.70053 0.867142 65.6296 -3.86277 22.7053)
(-33.2623 -3.46324 0.827313 43.0782 -3.33146 17.6933)
(-27.1643 -5.64667 0.742666 32.3116 -1.95627 18.2234)
(-33.6909 0.154363 0.24251 457.556 -0.163058 169.351)
(-33.0421 0.293347 0.413252 233.008 -1.05202 80.3351)
(-33.8442 0.300257 0.481436 213.736 -1.6341 74.2336)
(-34.6096 0.00469829 0.505926 155.487 -2.0272 53.3092)
(-35.1841 -0.64814 0.510487 105.992 -2.20582 36.3947)
(-35.1179 -1.74611 0.501399 66.0768 -2.17819 23.6709)
(-33.5213 -3.53384 0.47841 43.6478 -1.9134 18.3204)
(-27.2356 -5.7257 0.427589 32.9793 -1.15253 18.7)
(-33.9072 0.152209 0.0784216 457.407 -0.111117 169.659)
(-33.2457 0.288401 0.134022 232.886 -0.362721 81.1987)
(-34.0376 0.293204 0.155994 213.785 -0.536363 75.2245)
(-34.7937 -0.00473219 0.16387 155.617 -0.65457 54.2062)
(-35.3568 -0.662606 0.16535 106.17 -0.710213 37.0985)
(-35.2709 -1.77031 0.162459 66.2878 -0.704722 24.1762)
(-33.6232 -3.5721 0.154324 43.917 -0.625441 18.6971)
(-27.2304 -5.75821 0.136079 33.3142 -0.384361 19.0411)
(39.1223 59.724 -2.8423 288.593 -0.661561 -11.616)
(-82.9422 27.149 -4.87327 118.198 -1.04612 -8.04868)
(-56.2477 37.3286 -5.88899 134.244 -1.11708 -5.02737)
(-56.9963 33.685 -6.51666 93.7466 -1.05287 -2.7929)
(-50.8148 29.9432 -6.98779 64.4844 -1.03413 -1.39796)
(-47.6696 23.5067 -7.38747 37.1619 -1.15122 -0.756174)
(-45.8983 15.6889 -7.85269 18.7359 -1.4289 -0.821654)
(-53.6689 8.41594 -8.80232 4.41488 -1.76123 -1.62175)
(-5.75606 47.1233 -1.82957 60.209 -0.521237 -10.0473)
(-43.0358 70.9952 -3.31893 38.0275 -0.95903 -8.65745)
(-43.9419 75.3462 -3.95393 38.8923 -1.13155 -6.86598)
(-42.8211 70.5779 -4.2927 27.2036 -1.04105 -5.41412)
(-39.9474 61.8663 -4.55184 17.5671 -0.876954 -4.48206)
(-37.6827 50.0351 -4.83376 8.38015 -0.7632 -4.04731)
(-36.7277 36.5248 -5.29513 1.45107 -0.748111 -4.02267)
(-44.535 20.2912 -6.51085 -4.19617 -0.750499 -4.09754)
(-28.0351 42.7776 -1.41951 -95.2885 -0.351139 -8.96131)
(2.89219 68.8829 -2.76548 -48.0154 -0.785546 -8.56824)
(-2.93381 75.2433 -3.36698 -47.1194 -1.02085 -7.44932)
(-5.28579 70.9963 -3.66824 -34.8174 -0.963347 -6.44357)
(-7.73086 62.6206 -3.88 -25.7559 -0.770666 -5.79315)
(-9.04116 51.2164 -4.12708 -17.9829 -0.576193 -5.50525)
(-9.83341 37.757 -4.57201 -12.2724 -0.440454 -5.52062)
(-6.27122 20.0601 -5.77227 -5.42507 -0.340729 -5.60664)
(-70.9376 48.5714 -1.33113 -311.091 -0.302905 -7.59681)
(44.0301 25.0719 -2.75599 -127.289 -0.752655 -7.62354)
(15.2421 37.5232 -3.44312 -139.838 -1.00553 -6.68065)
(15.3276 34.5786 -3.7992 -97.5617 -0.962133 -5.83032)
(9.45023 31.3573 -4.02925 -67.7007 -0.757952 -5.2627)
(6.69782 25.7147 -4.27983 -40.7367 -0.523302 -4.97929)
(5.69055 18.7035 -4.71327 -21.707 -0.291013 -4.9098)
(11.0454 9.06952 -5.83902 -7.96529 -0.0246952 -5.03178)
(-4.37626 0.302131 0.326731 -447.153 -52.112 -143.23)
(-3.48642 0.626515 0.572096 -221.936 9.21583 -30.3514)
(-2.34221 0.81388 0.611387 -212.996 5.35565 -44.7528)
(-1.44952 0.781297 0.615219 -148.001 10.1744 -28.9338)
(-0.751023 0.630004 0.677678 -98.6414 10.1254 -22.0076)
(-0.0830375 0.445665 0.834545 -56.5718 9.36984 -15.9563)
(1.01558 0.14775 1.09182 -27.9186 7.36721 -13.3248)
(3.85432 -1.01509 1.40233 -13.7001 2.90573 -13.8006)
(-5.01949 0.140908 -0.0702433 -435.348 -35.6321 -149.643)
(-4.92282 0.338789 -0.118925 -248.445 -0.78118 -50.8626)
(-4.48372 0.484109 -0.180727 -214.118 9.04995 -45.129)
(-4.00867 0.507238 -0.21419 -151.022 14.1309 -32.1994)
(-3.5336 0.457905 -0.180104 -98.94 15.3989 -24.5501)
(-2.96038 0.392473 -0.0717135 -56.4505 14.4157 -19.2465)
(-1.91192 0.245863 0.0893932 -27.1067 11.4201 -16.6574)
(1.23888 -0.787359 0.300594 -13.7394 5.69695 -17.3905)
(-5.37316 0.0693939 -0.139488 -443.188 -20.1514 -163.302)
(-5.48996 0.199657 -0.220911 -247.44 -1.24444 -68.5194)
(-5.24475 0.327051 -0.250394 -215.302 6.50828 -58.1676)
(-4.90849 0.392652 -0.24564 -152.162 11.12 -40.3668)
(-4.48714 0.419533 -0.193189 -99.3849 12.8445 -28.388)
(-3.8965 0.438131 -0.0968701 -56.4591 12.463 -19.7509)
(-2.81341 0.381729 0.0175487 -26.7074 10.2395 -14.5075)
(0.267714 -0.509019 0.114215 -12.1707 5.10318 -11.9949)
(-5.62757 0.0419675 -0.130331 -447.148 -10.7284 -171.88)
(-5.80428 0.138199 -0.200572 -246.173 -0.577577 -81.4454)
(-5.6357 0.257514 -0.205027 -215.136 4.44456 -69.4714)
(-5.35017 0.355576 -0.176729 -152.353 7.79454 -48.3161)
(-4.92769 0.440881 -0.116921 -99.5309 9.37638 -32.7232)
(-4.2958 0.524242 -0.0343669 -56.4461 9.42323 -20.9608)
(-3.12896 0.519575 0.0467517 -26.2815 8.00538 -13.0692)
(-0.153408 -0.283874 0.0827307 -11.3256 4.10491 -8.27959)
(-5.81416 0.0319026 -0.0993586 -448.002 -5.45167 -176.381)
(-6.00914 0.114257 -0.149582 -245.276 -0.0521317 -89.4563)
(-5.87081 0.234034 -0.140726 -214.586 3.0536 -77.037)
(-5.60239 0.356952 -0.10495 -152.01 5.24954 -54.1273)
(-5.16634 0.483156 -0.0505122 -99.2895 6.43354 -36.27)
(-4.49371 0.608436 0.0116378 -56.1467 6.62915 -22.2932)
(-3.28062 0.632158 0.0600881 -25.7227 5.76817 -12.4437)
(-0.400137 -0.117969 0.0657163 -10.6114 2.99733 -6.09045)
(-5.938 0.0295791 -0.0651803 -447.504 -2.6103 -178.559)
(-6.13555 0.108847 -0.0956491 -244.588 0.186941 -94.0999)
(-6.00525 0.233347 -0.0825183 -214.017 2.02628 -81.6424)
(-5.73814 0.373884 -0.050308 -151.539 3.36825 -57.8658)
(-5.28777 0.525538 -0.00841121 -98.881 4.14734 -38.7315)
(-4.58964 0.67436 0.0328935 -55.7278 4.33339 -23.4069)
(-3.3571 0.712499 0.0582609 -25.1771 3.82674 -12.3216)
(-0.546371 -0.00590583 0.0500332 -10.1029 2.00867 -5.09652)
(-6.01112 0.0300642 -0.0355263 -446.727 -1.12122 -179.525)
(-6.20679 0.110462 -0.0507945 -244.09 0.20065 -96.5942)
(-6.0764 0.240119 -0.0403898 -213.574 1.16928 -84.2063)
(-5.80562 0.391833 -0.0189247 -151.149 1.88818 -60.0269)
(-5.34388 0.557547 0.00675616 -98.5178 2.32206 -40.2279)
(-4.63265 0.718249 0.0298311 -55.3651 2.44178 -24.1663)
(-3.39545 0.761749 0.0415061 -24.762 2.17278 -12.3889)
(-0.629564 0.0611735 0.0299555 -9.76483 1.14644 -4.71946)
(-6.04365 0.0309612 -0.011093 -446.224 -0.305881 -179.879)
(-6.23696 0.112563 -0.0155731 -243.824 0.081326 -97.6741)
(-6.10577 0.245055 -0.0117716 -213.333 0.383342 -85.3426)
(-5.83282 0.402005 -0.0044105 -150.936 0.609275 -61.0071)
(-5.3669 0.574024 0.00404488 -98.3145 0.747914 -40.9279)
(-4.65042 0.739905 0.0114001 -55.1638 0.788288 -24.5462)
(-3.4093 0.783978 0.0147463 -24.5413 0.70362 -12.4625)
(-0.678906 0.092012 0.0093468 -9.6055 0.372221 -4.62165)
(-58.2506 9.41473 -2.37709 -1.24301 -2.03651 -1.8985)
(-52.9508 8.86109 0.643509 0.469588 -1.67672 1.92482)
(-53.616 8.8021 0.0385902 1.83897 -1.29581 -2.72526)
(-54.0439 8.86201 -0.433677 2.91189 -0.997592 -4.74656)
(-54.8222 8.94392 -0.682193 3.70874 -0.752449 -5.77317)
(-55.4251 9.01915 -0.638072 4.27236 -0.533665 -5.91687)
(-55.8336 9.07592 -0.4412 4.62022 -0.328544 -5.77527)
(-56.0655 9.10437 -0.15831 4.72075 -0.114164 -5.67676)
(-49.281 6.91767 -4.4886 -3.2373 -0.575243 -9.92972)
(-44.6724 5.9223 -2.74802 -2.41992 -0.511459 -9.22845)
(-44.8065 5.65213 -2.542 -1.48291 -0.379781 -9.31674)
(-45.8915 5.56419 -2.70601 -0.703941 -0.290277 -9.12047)
(-47.0277 5.53445 -2.57265 -0.128051 -0.22483 -9.00754)
(-47.8841 5.5275 -2.06778 0.277518 -0.163609 -8.83989)
(-48.429 5.53244 -1.32304 0.542162 -0.0998868 -8.68339)
(-48.6725 5.54541 -0.454212 0.69381 -0.0334156 -8.57771)
(-3.50139 5.99221 -4.61303 -4.68496 0.04676 -3.38408)
(-5.66477 4.87058 -4.31618 -4.15317 -0.0155532 -4.67197)
(-7.31473 4.4855 -4.0805 -3.46035 -0.00745621 -2.41065)
(-8.8964 4.30773 -3.81356 -2.90678 -0.0140078 -0.50745)
(-10.0884 4.2097 -3.30652 -2.50468 -0.0222429 0.675193)
(-10.9014 4.15181 -2.53102 -2.22545 -0.0229082 1.28357)
(-11.4004 4.11895 -1.57948 -2.04765 -0.014497 1.55711)
(-11.6306 4.1033 -0.536273 -1.94672 -0.00397784 1.66239)
(13.6625 5.86027 -3.4874 -4.29214 0.445561 -5.65054)
(9.65653 4.75887 -2.93544 -3.84661 0.215927 -8.32781)
(8.50374 4.33379 -2.82146 -3.43928 0.120324 -3.08454)
(7.35055 4.1131 -2.4705 -3.09612 0.0690938 0.4989)
(6.60266 3.97807 -2.04946 -2.84704 0.0355006 2.65676)
(6.06035 3.89192 -1.52096 -2.67724 0.0154068 3.63258)
(5.71621 3.83961 -0.934444 -2.57226 0.00563977 3.99436)
(5.54453 3.8119 -0.315664 -2.52341 0.0015072 4.08882)
)
;
    }
    symmetry
    {
        type            symmetryPlane;
    }
    bottom
    {
        type            calculated;
        value           nonuniform List<symmTensor> 
32
(
(225.379 81.1328 0 338.069 92.3852 225.379)
(220.125 91.2394 0 330.188 46.125 220.125)
(226.496 95.7893 0 339.745 22.5322 226.496)
(230.326 97.3712 0 345.489 10.4337 230.326)
(232.079 97.8034 0 348.118 4.40951 232.079)
(232.797 97.8419 0 349.195 1.59423 232.797)
(233.043 97.7856 0 349.565 0.439268 233.043)
(233.107 97.7378 0 349.661 0.0697559 233.107)
(42.8852 34.6099 0 64.3277 27.5894 42.8852)
(44.1403 46.1327 0 66.2104 14.2888 44.1403)
(46.9634 48.0328 0 70.4451 6.74384 46.9634)
(48.3527 47.6781 0 72.5291 2.79795 48.3527)
(49.0792 46.937 0 73.6189 0.897977 49.0792)
(49.4804 46.299 0 74.2206 0.106159 49.4804)
(49.6984 45.8736 0 74.5475 -0.112771 49.6984)
(49.7953 45.6651 0 74.693 -0.0635311 49.7953)
(-62.7169 30.7127 0 -94.0754 -33.3115 -62.7169)
(-56.8865 42.2793 0 -85.3297 -19.4514 -56.8865)
(-57.71 43.6878 0 -86.565 -11.4652 -57.71)
(-58.1795 42.9025 0 -87.2692 -6.71342 -58.1795)
(-58.2733 41.8542 0 -87.41 -3.8606 -58.2733)
(-58.1844 41.0088 0 -87.2765 -2.13485 -58.1844)
(-58.0556 40.4543 0 -87.0834 -1.05898 -58.0556)
(-57.9719 40.1841 0 -86.9579 -0.318514 -57.9719)
(-229.469 68.7657 0 -344.204 -102.47 -229.469)
(-219.236 77.6305 0 -328.854 -55.3791 -219.236)
(-225.441 80.5118 0 -338.161 -29.8626 -225.441)
(-228.689 80.8224 0 -343.034 -15.8009 -228.689)
(-229.746 80.3365 0 -344.619 -8.11723 -229.746)
(-229.82 79.7387 0 -344.73 -3.97928 -229.82)
(-229.592 79.2763 0 -344.388 -1.76357 -229.592)
(-229.406 79.0328 0 -344.109 -0.493253 -229.406)
)
;
    }
}


// ************************************************************************* //
