/*--------------------------------*- C++ -*----------------------------------*\
| =========                 |                                                 |
| \\      /  F ield         | foam-extend: Open Source CFD                    |
|  \\    /   O peration     | Version:     3.1                                |
|   \\  /    A nd           | Web:         http://www.extend-project.de       |
|    \\/     M anipulation  |                                                 |
\*---------------------------------------------------------------------------*/
FoamFile
{
    version     2.0;
    format      ascii;
    class       volSymmTensorField;
    location    "2.8";
    object      sigmaCauchy;
}
// * * * * * * * * * * * * * * * * * * * * * * * * * * * * * * * * * * * * * //

dimensions      [1 -1 -2 0 0 0 0];

internalField   nonuniform List<symmTensor> 
256
(
(190.234 78.0316 -1.05654 446.667 39.5047 217.047)
(27.9707 58.2586 -8.34796 87.8345 12.2556 34.6854)
(-58.2777 50.3083 -9.61218 -120.135 -16.6562 -60.1876)
(-220.152 46.1408 -5.38321 -430.809 -36.4188 -239.003)
(-76.9645 35.286 -3.65054 132.145 -11.282 -23.6437)
(-28.4712 75.2557 -13.9518 45.4029 -5.23002 -10.3012)
(3.85574 68.7184 -14.4279 -58.9852 2.3357 -3.31652)
(45.988 19.9634 -5.03518 -137.317 7.61585 10.1861)
(-25.1819 42.981 -1.69384 159.726 -6.43374 26.1581)
(-27.9383 73.4367 -9.53049 39.1921 -2.63878 -5.21764)
(-0.641584 67.7228 -9.87545 -54.7956 0.167045 -8.88974)
(-4.40637 26.4019 -2.94869 -160.088 3.22846 -34.2392)
(-36.953 37.5897 -1.98802 105.648 -8.95094 11.4129)
(-28.3209 67.018 -7.93952 24.7387 -2.95223 -6.40781)
(0.359829 62.3953 -7.9355 -40.6268 1.30766 -5.11346)
(7.92033 24.0377 -2.7568 -107.79 6.50612 -15.576)
(-33.7142 32.0608 -1.66653 71.8025 -8.04863 11.3768)
(-26.5354 57.6283 -6.402 14.3028 -2.3796 -4.99831)
(-1.46645 54.3051 -6.29428 -30.1916 1.42582 -4.76667)
(4.85538 22.2033 -2.2827 -74.6915 6.52516 -13.2212)
(-34.7834 24.5242 -1.71955 40.926 -6.86349 8.20296)
(-26.2487 46.1413 -5.55349 5.23646 -1.93884 -4.61149)
(-3.03128 44.2818 -5.32255 -20.8704 1.40265 -4.29046)
(5.05714 18.81 -2.17484 -44.1083 6.14766 -9.18672)
(-34.7388 16.3897 -2.18647 22.2971 -5.52584 8.45443)
(-27.6859 33.6719 -5.27506 -1.23312 -1.7965 -4.44929)
(-4.9234 32.7199 -4.85431 -13.6636 1.0485 -4.49905)
(5.2027 14.0368 -2.33976 -22.504 4.9338 -7.71221)
(-46.2356 10.3134 -2.66614 6.21116 -2.89042 3.24089)
(-42.0012 19.9036 -4.9624 -9.74225 -1.02267 -10.9368)
(-0.971577 17.6531 -4.694 -3.27466 0.282367 -0.859497)
(11.2766 6.60438 -2.97491 -7.05317 1.93487 -5.10285)
(192.24 88.1115 -0.655397 440.987 24.327 225.087)
(34.3609 70.1677 -6.82939 90.1643 6.94873 41.2852)
(-51.9953 62.4415 -8.20201 -107.994 -11.9738 -57.0603)
(-210.673 55.2132 -4.61064 -413.867 -25.35 -237.387)
(-42.9225 37.0502 -2.75344 179.599 -4.01235 17.3906)
(-4.61565 78.4198 -13.1211 71.7916 -2.77963 12.7343)
(-17.5928 71.2762 -14.5129 -85.305 -1.07402 -26.6861)
(9.7041 21.1636 -6.05795 -184.027 -0.353896 -32.1752)
(-19.9082 38.806 -1.61872 165.261 -9.65867 30.9679)
(-16.9674 67.87 -10.4566 48.1438 -3.77697 2.64896)
(-7.49785 62.2074 -11.6489 -60.6481 1.61622 -14.4303)
(-8.49089 22.5718 -4.43433 -163.575 6.45243 -37.0453)
(-27.0424 32.5464 -0.708341 115.318 -11.9521 20.5699)
(-17.1785 58.7698 -7.54662 34.082 -3.97128 1.59759)
(-6.64443 54.1641 -8.56486 -45.2275 2.93058 -10.772)
(-0.864562 19.2422 -3.26615 -114.221 9.98062 -22.8496)
(-26.8697 26.473 0.261364 77.0993 -11.813 17.2382)
(-17.4783 48.6748 -5.19055 21.4599 -3.6608 0.849305)
(-6.1155 45.4629 -6.1345 -31.3418 3.36244 -8.00199)
(-0.723451 16.9903 -2.14266 -76.0529 10.9367 -17.0725)
(-28.0888 19.5228 0.821169 45.73 -10.316 14.1651)
(-18.1228 38.0592 -3.60542 11.4281 -3.13132 0.372585)
(-6.33708 36.3376 -4.4522 -20.3314 3.11477 -6.33952)
(0.019367 14.1844 -1.43984 -44.2454 10.2408 -12.7459)
(-28.7693 12.312 0.861194 26.0658 -7.95577 13.7747)
(-21.006 27.3533 -2.85803 3.19054 -2.5934 -0.931794)
(-6.83993 26.6512 -3.58013 -11.9238 2.25144 -5.31486)
(1.59954 10.588 -1.1661 -20.9544 8.04325 -9.95479)
(-39.7305 8.32056 0.500923 10.4777 -4.27957 8.75971)
(-36.0186 16.6811 -2.79236 -6.25356 -1.49554 -8.38897)
(-3.54236 14.6501 -3.83709 -3.07574 0.931853 -2.40894)
(6.5595 5.14798 -1.97717 -7.58704 3.92117 -8.425)
(199.38 92.6846 -0.642089 452.045 12.2113 240.105)
(37.3138 73.3423 -4.4597 94.257 2.91377 47.2103)
(-52.3234 65.214 -5.38845 -107.996 -7.47453 -60.4508)
(-217.698 57.719 -3.08588 -422.639 -14.5575 -252.355)
(-43.416 37.7129 -2.24407 180.579 -2.56419 30.7331)
(-2.66215 79.8805 -8.97881 75.7613 -2.12661 20.4534)
(-19.161 72.6524 -10.1499 -87.311 -1.3889 -33.5308)
(7.68064 21.7278 -4.72799 -186.274 -0.972541 -48.1802)
(-20.5769 38.4225 -1.79121 167.361 -7.27869 39.6073)
(-16.3048 67.5167 -7.86398 51.1581 -3.0884 7.83493)
(-8.55728 61.7585 -8.90351 -62.1533 1.11665 -18.9689)
(-10.7551 22.0189 -3.85438 -166.646 4.73584 -48.9265)
(-28.0835 31.6351 -1.05673 116.393 -9.54064 24.6694)
(-16.8043 56.7806 -5.86619 36.457 -3.37667 5.18902)
(-7.83002 52.1525 -6.7353 -45.6534 2.58688 -13.3853)
(-3.38243 18.3441 -2.75743 -116.422 8.15319 -30.6069)
(-28.8462 25.1666 -0.27526 77.0775 -9.81959 17.465)
(-17.2813 46.0339 -3.9001 23.561 -3.18777 3.33423)
(-7.27419 42.8711 -4.66971 -31.0902 3.19885 -9.17057)
(-2.50643 15.8399 -1.72852 -76.8612 9.47322 -20.8376)
(-30.3888 18.1414 0.284762 45.2577 -8.78624 11.9162)
(-17.9432 35.3787 -2.47646 13.2777 -2.73822 2.0799)
(-7.35454 33.8182 -3.15566 -19.5613 3.10686 -6.35227)
(-1.34699 13.1484 -1.00247 -44.1838 9.18321 -13.5736)
(-30.7492 10.9813 0.449567 25.8646 -6.81765 10.204)
(-20.775 25.1641 -1.8336 4.74669 -2.16726 0.140358)
(-7.75221 24.7417 -2.46673 -10.9401 2.35611 -4.42869)
(0.53464 9.87979 -0.743196 -20.2927 7.42922 -8.4494)
(-42.2811 7.68093 0.102942 9.09087 -3.46409 3.01505)
(-36.0906 15.611 -2.18472 -5.22971 -1.09253 -8.15926)
(-4.77802 13.7817 -3.23089 -2.11754 0.986667 -0.57657)
(6.49809 4.97393 -1.75016 -5.43007 3.56997 -3.53571)
(203.032 94.4414 -0.445162 458.381 5.31993 249.267)
(38.2989 73.9796 -2.71794 96.3005 0.80845 50.419)
(-52.9002 65.5422 -3.27116 -108.278 -4.55965 -62.7554)
(-221.443 58.2832 -1.86591 -427.257 -7.9624 -261.134)
(-44.4452 37.8966 -1.41809 180.272 -2.15787 40.021)
(-2.98094 80.5612 -5.6888 77.0568 -1.70141 24.5917)
(-19.5725 73.2958 -6.47689 -87.0831 -1.16385 -37.2845)
(7.28699 21.9356 -3.1119 -186.036 -0.624613 -58.5515)
(-21.2213 38.5999 -1.30896 168.4 -5.13523 47.6462)
(-17.2615 67.9367 -5.38137 52.2086 -2.28346 10.9651)
(-8.9219 62.1829 -6.09049 -61.9516 0.675052 -21.9704)
(-11.4058 22.2186 -2.7427 -167.104 3.22829 -57.9539)
(-28.8916 31.6206 -0.884662 117.537 -6.75583 29.9589)
(-17.8457 56.7623 -4.21889 37.4365 -2.46911 7.42441)
(-8.40038 52.1597 -4.78186 -45.3656 1.89368 -15.3802)
(-4.0594 18.411 -2.01866 -116.828 5.81182 -36.9255)
(-29.6767 24.9922 -0.355542 78.2922 -7.12729 20.1856)
(-18.2925 45.6802 -2.88679 24.5548 -2.34542 4.80734)
(-7.97478 42.5828 -3.34854 -30.7032 2.49407 -10.1502)
(-3.1832 15.818 -1.25281 -77.0716 7.04593 -24.3373)
(-31.1467 17.8446 0.0563074 46.5723 -6.55501 12.6391)
(-18.8493 34.8492 -1.87228 14.2769 -2.03938 2.98187)
(-8.07004 33.4203 -2.25539 -19.0518 2.5231 -6.39863)
(-2.00993 13.1174 -0.684292 -44.181 7.06807 -14.642)
(-31.1044 10.5978 0.170155 27.5562 -5.24681 9.71845)
(-21.5569 24.6626 -1.50371 5.71277 -1.62496 0.643502)
(-8.52343 24.425 -1.87364 -10.362 1.97542 -3.6668)
(-0.162136 9.90842 -0.518303 -20.0065 5.88676 -7.47268)
(-42.5455 7.53954 -0.246798 10.553 -2.79844 1.52233)
(-36.9484 15.3796 -2.14996 -4.28733 -0.831572 -7.8415)
(-6.08096 13.626 -2.87242 -1.65751 0.858488 0.864641)
(5.69375 5.06113 -1.49318 -4.80954 2.90055 -0.636258)
(204.398 94.9659 -0.269481 461.125 1.83787 253.969)
(38.6276 73.785 -1.57366 97.3751 -0.125007 52.1426)
(-53.2212 65.1608 -1.88757 -108.155 -2.72971 -63.9994)
(-222.723 58.1938 -1.06605 -428.482 -4.2018 -265.263)
(-45.3902 37.8565 -0.803104 179.966 -1.85162 45.5877)
(-3.46201 80.7004 -3.41059 77.7779 -1.32868 26.9681)
(-19.9133 73.4364 -3.9051 -86.5262 -0.857608 -39.5321)
(7.03159 21.9791 -1.89391 -185.526 -0.273114 -64.8712)
(-22.0567 38.7237 -0.82643 168.77 -3.56933 52.9363)
(-18.096 68.2832 -3.44304 52.8322 -1.61442 12.9363)
(-9.25538 62.5788 -3.89525 -61.4043 0.395391 -23.9563)
(-11.6116 22.4365 -1.7667 -166.742 2.18256 -63.7733)
(-29.7717 31.7699 -0.608944 118.159 -4.56341 33.8951)
(-18.6997 57.1275 -2.82855 38.0996 -1.68945 8.94676)
(-8.81853 52.5797 -3.17325 -44.8778 1.28673 -16.8329)
(-4.29235 18.6773 -1.33617 -116.549 3.93291 -41.353)
(-30.4944 25.1103 -0.293005 79.1498 -4.85517 22.6132)
(-19.0952 45.9594 -2.01856 25.2733 -1.59893 5.88223)
(-8.44366 42.9316 -2.28139 -30.2494 1.77188 -10.9486)
(-3.45902 16.082 -0.837038 -76.8479 4.87926 -27.0388)
(-31.8626 17.8867 -0.0414669 47.5978 -4.56821 13.7629)
(-19.5555 35.0094 -1.39058 15.0385 -1.40986 3.71538)
(-8.55381 33.6799 -1.5924 -18.608 1.84156 -6.54114)
(-2.30525 13.3641 -0.461694 -43.927 5.01648 -15.6607)
(-31.5498 10.5439 -0.0120465 28.8369 -3.77194 10.0129)
(-22.2062 24.7338 -1.25604 6.45571 -1.1484 1.1352)
(-9.08411 24.6085 -1.45469 -9.93112 1.46556 -3.22008)
(-0.485333 10.1349 -0.399096 -19.6016 4.26634 -6.98826)
(-43.1623 7.55889 -0.4485 11.4998 -2.06554 0.901439)
(-37.8642 15.444 -1.98901 -3.68832 -0.590611 -7.62123)
(-7.03516 13.7002 -2.4495 -1.29234 0.64235 1.78451)
(5.27359 5.2017 -1.24692 -4.23311 2.12465 1.17036)
(204.768 95.0144 -0.142813 462.111 0.313097 256.237)
(38.7165 73.4037 -0.858754 97.9667 -0.408365 53.0532)
(-53.3267 64.6705 -1.02957 -107.816 -1.5706 -64.5891)
(-222.881 57.9393 -0.573913 -428.203 -2.11141 -266.957)
(-46.0153 37.7319 -0.404152 179.828 -1.44104 48.7906)
(-3.85122 80.5897 -1.91972 78.2564 -0.959714 28.294)
(-20.1653 73.3418 -2.21338 -85.9601 -0.572425 -40.8369)
(6.78837 21.953 -1.07187 -185.039 -0.0643698 -68.57)
(-22.677 38.7604 -0.458386 169.008 -2.37174 56.1852)
(-18.6783 68.4488 -2.04707 53.2812 -1.07554 14.1149)
(-9.52892 62.7961 -2.31978 -60.8636 0.225699 -25.2064)
(-11.7219 22.5747 -1.04366 -166.25 1.42218 -67.3032)
(-30.4119 31.8873 -0.35825 118.579 -2.92564 36.5185)
(-19.2823 57.4365 -1.75077 38.5835 -1.0858 9.91436)
(-9.10831 52.9422 -1.95274 -44.3896 0.817936 -17.7963)
(-4.39997 18.905 -0.806557 -116.112 2.51905 -44.1852)
(-31.0828 25.245 -0.186683 79.7422 -3.11049 24.4391)
(-19.6309 46.2909 -1.30113 25.7971 -1.01911 6.61953)
(-8.73736 43.3223 -1.44629 -29.8131 1.15812 -11.515)
(-3.58053 16.3401 -0.511672 -76.4701 3.1547 -28.8875)
(-32.3672 17.9823 -0.0523685 48.3173 -2.97353 14.8595)
(-20.0245 35.2816 -0.956301 15.5852 -0.909364 4.27236)
(-8.84806 34.0254 -1.05962 -18.2159 1.22235 -6.68342)
(-2.44761 13.615 -0.292841 -43.5759 3.28977 -16.4833)
(-31.8814 10.5621 -0.0716509 29.7196 -2.51565 10.635)
(-22.6581 24.9125 -0.956015 6.97327 -0.756851 1.5545)
(-9.44253 24.8616 -1.05952 -9.5882 0.979372 -2.98131)
(-0.652917 10.3507 -0.292824 -19.1967 2.83343 -6.85727)
(-43.5564 7.59268 -0.436789 12.2814 -1.41405 1.06704)
(-38.5345 15.5483 -1.58933 -3.26171 -0.394807 -7.372)
(-7.67721 13.8006 -1.8707 -1.02134 0.430831 2.27638)
(4.94412 5.3104 -0.93624 -3.86423 1.4228 1.98865)
(204.772 94.9319 -0.0652226 462.355 -0.151537 257.246)
(38.7269 73.0817 -0.416915 98.2894 -0.351054 53.5136)
(-53.3293 64.2877 -0.500732 -107.478 -0.805825 -64.834)
(-222.675 57.7133 -0.275632 -427.548 -0.956212 -267.53)
(-46.399 37.6112 -0.176296 179.76 -0.915085 50.484)
(-4.11036 80.4282 -0.955583 78.5641 -0.58181 28.9882)
(-20.3209 73.1971 -1.10979 -85.5193 -0.324682 -41.542)
(6.61198 21.9134 -0.534549 -184.658 0.0153555 -70.5815)
(-23.0809 38.7522 -0.219431 169.163 -1.36646 57.9875)
(-19.0374 68.4975 -1.06299 53.5898 -0.618429 14.7658)
(-9.71461 62.8838 -1.2079 -60.4562 0.116373 -25.9292)
(-11.7866 22.6458 -0.536627 -165.846 0.809333 -69.2769)
(-30.8255 31.9504 -0.179741 118.843 -1.63801 38.0541)
(-19.6364 57.6187 -0.937719 38.9119 -0.607187 10.4753)
(-9.28912 53.1635 -1.04304 -44.0178 0.451953 -18.3717)
(-4.45701 19.0495 -0.421058 -115.746 1.40691 -45.8293)
(-31.4663 25.333 -0.0984438 80.0982 -1.73535 25.5881)
(-19.9517 46.5188 -0.719759 26.1437 -0.565399 7.07481)
(-8.90745 43.5913 -0.792436 -29.4805 0.650049 -11.8664)
(-3.63578 16.5155 -0.270084 -76.1375 1.76612 -30.0104)
(-32.6997 18.0516 -0.037633 48.7398 -1.67508 15.6405)
(-20.3046 35.4847 -0.557359 15.9364 -0.508775 4.64412)
(-9.01325 34.2766 -0.606055 -17.9242 0.691471 -6.78695)
(-2.51387 13.789 -0.16105 -43.271 1.85447 -17.0381)
(-32.1183 10.582 -0.0680929 30.2299 -1.44074 11.1731)
(-22.9344 25.0504 -0.597813 7.29784 -0.430291 1.85858)
(-9.65036 25.045 -0.647368 -9.34572 0.555302 -2.86582)
(-0.731975 10.4969 -0.181132 -18.8787 1.60761 -6.87122)
(-43.8298 7.61823 -0.308801 12.7559 -0.827308 1.37871)
(-38.9628 15.6271 -1.01686 -2.9988 -0.226882 -7.17126)
(-8.06409 13.8714 -1.16914 -0.835492 0.245356 2.51158)
(4.74111 5.37738 -0.580955 -3.61985 0.810956 2.30747)
(204.714 94.8639 -0.0185813 462.372 -0.101423 257.618)
(38.7212 72.9072 -0.12348 98.4337 -0.132693 53.7055)
(-53.3107 64.0859 -0.148511 -107.277 -0.247262 -64.9156)
(-222.493 57.5885 -0.0810735 -427.1 -0.27113 -267.673)
(-46.5811 37.5409 -0.0485213 179.731 -0.313492 51.2049)
(-4.2384 80.3247 -0.287177 78.7162 -0.19506 29.283)
(-20.3931 73.1036 -0.334995 -85.2808 -0.104894 -41.8484)
(6.52196 21.8881 -0.160616 -184.448 0.0141485 -71.4611)
(-23.2773 38.7378 -0.0643624 169.24 -0.447414 58.7798)
(-19.208 68.5018 -0.327206 53.7481 -0.202127 15.0518)
(-9.80673 62.9085 -0.3724 -60.2401 0.0359636 -26.2585)
(-11.8171 22.6741 -0.16395 -165.625 0.26343 -70.1562)
(-31.0257 31.9752 -0.0544214 118.972 -0.528263 38.7518)
(-19.8033 57.6972 -0.293745 39.0788 -0.19557 10.7298)
(-9.37554 53.2621 -0.32624 -43.8199 0.144432 -18.6389)
(-4.48269 19.1168 -0.129736 -115.545 0.452821 -46.5786)
(-31.653 25.3732 -0.030923 80.2645 -0.558268 26.1327)
(-20.1018 46.6273 -0.229689 26.3161 -0.181294 7.28986)
(-8.98539 43.7206 -0.251602 -29.3031 0.209202 -12.0328)
(-3.6575 16.6005 -0.0838434 -75.951 0.568477 -30.5358)
(-32.862 18.084 -0.0141598 48.9321 -0.541418 16.0361)
(-20.4353 35.585 -0.183219 16.1071 -0.163862 4.82805)
(-9.08717 34.4004 -0.197338 -17.7697 0.223259 -6.8399)
(-2.54016 13.8742 -0.0513921 -43.1001 0.5985 -17.314)
(-32.237 10.5907 -0.0280057 30.4581 -0.470002 11.4701)
(-23.0643 25.119 -0.203766 7.45284 -0.139794 2.01579)
(-9.74502 25.1345 -0.218226 -9.21968 0.179479 -2.82026)
(-0.764577 10.5672 -0.0616676 -18.7082 0.520221 -6.90765)
(-43.9582 7.63157 -0.112346 12.9766 -0.274653 1.59047)
(-39.1658 15.668 -0.349546 -2.87263 -0.074331 -7.06044)
(-8.24718 13.9048 -0.397566 -0.741092 0.0798965 2.60042)
(4.6395 5.40711 -0.197362 -3.50131 0.263204 2.39788)
)
;

boundaryField
{
    interface
    {
        type            calculated;
        value           nonuniform List<symmTensor> 
192
(
(-22.708 19.0878 4.4247 480.568 50.3526 133.578)
(-23.3356 9.22852 3.51368 225.228 -14.029 23.8311)
(-23.1313 12.165 4.35936 224.131 -9.09219 45.8322)
(-23.4184 10.0708 4.36305 159.438 -13.0886 34.7653)
(-23.937 7.61941 4.46841 110.032 -12.0759 30.4462)
(-24.6002 4.68572 4.48247 67.9345 -10.4181 25.5396)
(-25.1098 2.05543 4.31426 42.4615 -8.16292 24.5396)
(-24.1013 -0.489356 3.82503 29.8223 -4.36064 26.7749)
(-25.4622 20.3022 3.05146 472.842 31.2361 141.153)
(-26.4478 10.514 2.74535 248.397 -4.5998 42.3014)
(-27.0248 12.1117 2.81928 221.438 -12.8733 44)
(-27.9294 10.1355 2.74126 158.595 -16.4801 34.8885)
(-28.8677 7.5019 2.71823 106.569 -16.4391 29.3536)
(-29.5993 4.49011 2.71066 64.7124 -14.4038 25.3021)
(-29.539 1.63248 2.63485 39.932 -10.9634 25.2335)
(-26.3735 -1.14654 2.40125 29.4507 -5.86925 29.2581)
(-27.2153 21.5347 1.89909 481.578 15.7902 153.02)
(-28.2299 10.5936 1.93975 245.322 -2.80327 56.0658)
(-28.9487 12.0952 1.93282 220.813 -9.40791 51.9092)
(-30.0042 10.0733 1.81273 157.71 -12.7331 37.3056)
(-31.0185 7.37116 1.73771 105.276 -13.2706 27.4316)
(-31.6534 4.29176 1.7084 63.5854 -11.9604 20.5912)
(-31.1587 1.3342 1.67467 39.6955 -9.28746 19.0929)
(-26.9005 -1.59229 1.60893 29.0052 -4.83397 21.7547)
(-28.488 22.1686 1.16547 486.631 6.88323 160.78)
(-29.4767 10.5881 1.37117 243.317 -2.47054 67.0912)
(-30.2065 12.0828 1.3844 220.616 -6.55311 61.0993)
(-31.2873 10.0489 1.2975 158.074 -8.88005 43.0715)
(-32.2918 7.33217 1.22644 105.918 -9.50618 29.8318)
(-32.8198 4.2202 1.19076 64.5454 -8.82746 20.3916)
(-32.0329 1.20589 1.16659 41.2449 -7.12141 17.2382)
(-27.1186 -1.7814 1.14195 30.5589 -3.93468 18.9164)
(-29.4173 22.4347 0.711075 488.564 2.37709 164.882)
(-30.3822 10.5647 0.951839 242.272 -2.2202 73.9471)
(-31.0973 12.0588 0.980704 220.54 -4.55734 67.605)
(-32.1698 10.0268 0.932212 158.482 -5.9686 47.9046)
(-33.1461 7.3099 0.882697 106.688 -6.4426 32.6517)
(-33.59 4.17972 0.852483 65.5813 -6.1304 21.4559)
(-32.6083 1.12635 0.832871 42.6373 -5.12523 17.1307)
(-27.255 -1.90071 0.820982 31.9171 -2.93572 18.0285)
(-30.0694 22.5225 0.422149 488.971 0.404904 166.876)
(-31.0208 10.5373 0.626661 241.712 -1.77636 77.8871)
(-31.7184 12.0348 0.65674 220.574 -3.0436 71.6745)
(-32.7785 10.0086 0.633417 158.834 -3.82823 51.2323)
(-33.7276 7.29315 0.603676 107.282 -4.12568 34.9233)
(-34.1123 4.15129 0.582548 66.3503 -3.99177 22.7382)
(-33.003 1.07083 0.567649 43.6282 -3.42927 17.74)
(-27.3541 -1.97518 0.558856 33.005 -2.02758 18.278)
(-30.4981 22.5389 0.22258 488.821 -0.19501 167.747)
(-31.4347 10.514 0.354579 241.392 -1.14397 79.9484)
(-32.1193 12.0156 0.375204 220.621 -1.76193 73.9372)
(-33.1683 9.99507 0.365326 159.072 -2.14792 53.1976)
(-34.0988 7.28033 0.349928 107.649 -2.30487 36.385)
(-34.4464 4.13014 0.337701 66.8077 -2.25231 23.7034)
(-33.2583 1.03167 0.326938 44.2112 -1.97025 18.3656)
(-27.4262 -2.02153 0.317906 33.686 -1.19419 18.7542)
(-30.6986 22.5359 0.0687093 488.645 -0.13053 168.067)
(-31.6283 10.4997 0.113598 241.247 -0.394139 80.8224)
(-32.3029 12.0039 0.120504 220.657 -0.578371 74.9374)
(-33.3443 9.98719 0.117725 159.199 -0.693747 54.0999)
(-34.2653 7.2727 0.112961 107.83 -0.742309 37.091)
(-34.5957 4.11665 0.108943 67.0235 -0.728826 24.2092)
(-33.3592 1.00669 0.104417 44.487 -0.643981 18.7421)
(-27.4211 -2.04037 0.0993633 34.0265 -0.397881 19.0956)
(42.2083 69.0624 -2.01691 301.135 3.33169 -11.1756)
(-78.5087 34.3202 -4.57181 119.885 -1.62284 -7.94905)
(-50.7808 46.4702 -5.83182 134.914 -1.57446 -4.93197)
(-51.5787 41.7314 -6.60465 92.2092 -1.28717 -2.7484)
(-45.8923 36.4753 -7.18319 61.9668 -0.940158 -1.39821)
(-43.7215 28.3753 -7.65359 34.6033 -0.801411 -0.79513)
(-43.1063 19.4132 -8.16851 16.7978 -0.941976 -0.893053)
(-51.729 11.7976 -9.19115 3.21903 -1.18183 -1.72875)
(-3.78113 48.5538 -1.62377 60.2536 -0.444382 -9.96101)
(-36.9224 73.2881 -3.1672 35.5903 -1.71561 -8.58014)
(-35.6338 78.4689 -3.87454 34.6674 -1.68064 -6.79856)
(-33.9608 73.5136 -4.31977 21.7825 -1.29548 -5.37121)
(-31.6599 64.4034 -4.6483 11.8848 -0.828823 -4.46819)
(-30.8136 52.0959 -4.97443 3.24908 -0.495995 -4.06197)
(-31.6795 38.2803 -5.46984 -2.56602 -0.355982 -4.06423)
(-41.5282 22.3156 -6.72921 -6.58884 -0.286744 -4.17263)
(-26.5831 40.962 -1.60754 -94.6165 -0.00322673 -9.03877)
(8.19092 66.7723 -2.92036 -50.3104 -1.45898 -8.53767)
(4.59908 72.5993 -3.466 -51.2 -1.53673 -7.4246)
(2.92906 68.7643 -3.69061 -40.0834 -1.22951 -6.42583)
(0.0755439 60.9457 -3.87419 -31.3068 -0.762407 -5.79041)
(-2.47041 50.1553 -4.12108 -23.0475 -0.360025 -5.51889)
(-5.00045 37.2302 -4.58113 -16.2634 -0.0984415 -5.55207)
(-3.76329 19.9409 -5.77529 -7.64167 0.0634945 -5.65598)
(-70.0176 40.7901 -1.81746 -297.303 4.38684 -7.94385)
(46.6133 18.9423 -3.12294 -125.244 -1.08154 -7.64484)
(18.877 29.7383 -3.59321 -138.832 -1.34437 -6.72675)
(19.1429 28.0327 -3.8508 -98.719 -1.22766 -5.85677)
(13.1502 26.4383 -4.00679 -69.9068 -0.794954 -5.28839)
(9.85675 22.5565 -4.2245 -43.1556 -0.356037 -5.00815)
(8.02339 16.8681 -4.64755 -23.6906 0.008194 -4.947)
(12.2 7.87081 -5.74322 -8.94801 0.354279 -5.07984)
(-5.13273 -14.2195 -1.45262 -417.884 -44.1166 -144.755)
(-3.79818 -6.94643 0.797004 -213.65 8.76494 -30.8687)
(-2.8061 -9.12716 0.712404 -205.5 4.77337 -45.3581)
(-1.83105 -7.19036 1.11129 -144.199 9.47127 -29.1403)
(-1.03789 -5.20026 1.2788 -96.872 9.62877 -22.0552)
(-0.253488 -3.07133 1.4482 -55.9427 9.07748 -15.9271)
(0.912555 -1.68204 1.60804 -27.7234 7.20248 -13.2798)
(3.65972 -2.09773 1.67315 -13.4873 2.78663 -13.7583)
(-5.88774 -15.0802 -1.36807 -407.825 -30.6221 -151.863)
(-5.36249 -8.25941 -0.245208 -238.528 -0.678368 -51.7237)
(-5.01162 -9.13118 0.148751 -206.564 8.56091 -45.7429)
(-4.44687 -7.2535 0.500578 -147.088 13.5607 -32.4401)
(-3.84592 -5.0526 0.713714 -97.1528 14.9799 -24.6021)
(-3.13265 -2.85245 0.8255 -55.8132 14.1755 -19.2175)
(-1.98872 -1.32309 0.831719 -26.9252 11.3011 -16.6136)
(1.0872 -1.70956 0.723822 -13.5586 5.62502 -17.3526)
(-6.33031 -15.9469 -0.878944 -415.146 -17.2501 -165.972)
(-5.96819 -8.42361 -0.3161 -238.035 -1.08867 -69.4545)
(-5.80241 -9.18062 0.00401121 -207.955 6.20504 -58.8612)
(-5.36543 -7.24532 0.323171 -148.308 10.7211 -40.6802)
(-4.80261 -4.9506 0.547935 -97.6359 12.5338 -28.4911)
(-4.05863 -2.68256 0.664595 -55.841 12.2801 -19.7574)
(-2.86713 -1.07388 0.660595 -26.546 10.1501 -14.4897)
(0.160464 -1.26235 0.460373 -12.0338 5.0607 -11.9852)
(-6.62992 -16.3007 -0.512116 -418.926 -9.14682 -174.66)
(-6.3015 -8.44322 -0.23305 -237.187 -0.471605 -82.3578)
(-6.20888 -9.1651 -0.00818388 -208.054 4.25107 -70.1682)
(-5.81386 -7.18777 0.235675 -148.633 7.52562 -48.6548)
(-5.23951 -4.84298 0.429008 -97.8503 9.15716 -32.8536)
(-4.44461 -2.5259 0.538791 -55.8676 9.29024 -20.9897)
(-3.16142 -0.865876 0.540739 -26.152 7.94091 -13.0669)
(-0.227735 -0.949171 0.346697 -11.2251 4.07953 -8.28018)
(-6.83525 -16.3646 -0.282179 -419.864 -4.63068 -179.154)
(-6.51594 -8.41369 -0.142972 -236.561 0.00335984 -90.3217)
(-6.4507 -9.11068 0.0126762 -207.715 2.92397 -77.7038)
(-6.06673 -7.10512 0.185516 -148.415 5.07083 -54.4603)
(-5.47172 -4.72997 0.330783 -97.6776 6.28419 -36.4068)
(-4.62964 -2.3824 0.416185 -55.6099 6.53642 -22.3313)
(-3.29568 -0.693656 0.41314 -25.6246 5.72375 -12.4482)
(-0.45036 -0.717683 0.252709 -10.5407 2.98266 -6.09318)
(-6.96456 -16.3136 -0.145435 -419.541 -2.20795 -181.299)
(-6.64628 -8.36705 -0.0749668 -236.044 0.209933 -94.9249)
(-6.5867 -9.04703 0.0289822 -207.291 1.9405 -82.2778)
(-6.20013 -7.02429 0.143835 -148.037 3.25385 -58.1847)
(-5.58634 -4.63035 0.242107 -97.3245 4.05074 -38.8653)
(-4.71514 -2.2671 0.299059 -55.2252 4.27243 -23.4471)
(-3.35952 -0.565194 0.291823 -25.1034 3.79762 -12.3283)
(-0.580459 -0.561398 0.173385 -10.0531 2.00005 -5.09876)
(-7.0379 -16.2433 -0.0664349 -418.922 -0.943974 -182.237)
(-6.71864 -8.32498 -0.03258 -235.649 0.207591 -97.3927)
(-6.65726 -8.99434 0.0275288 -206.939 1.11954 -84.8193)
(-6.26474 -6.96258 0.0931035 -147.708 1.82397 -60.3338)
(-5.63707 -4.5584 0.149127 -96.9986 2.26769 -40.3573)
(-4.75097 -2.188 0.180735 -54.8856 2.40714 -24.206)
(-3.38992 -0.482403 0.174082 -24.7041 2.15618 -12.3959)
(-0.653959 -0.466221 0.099861 -9.72805 1.14186 -4.72091)
(-7.06958 -16.199 -0.0187895 -418.508 -0.256603 -182.576)
(-6.74889 -8.301 -0.00859971 -235.431 0.0824954 -98.4599)
(-6.68588 -8.9655 0.0110475 -206.742 0.366967 -85.9446)
(-6.29019 -6.93018 0.0322703 -147.523 0.588527 -61.3075)
(-5.65724 -4.52146 0.0502699 -96.8138 0.730353 -41.0544)
(-4.76513 -2.14814 0.0602931 -54.6959 0.777058 -24.5851)
(-3.40007 -0.443162 0.0576952 -24.4911 0.69823 -12.4694)
(-0.698828 -0.421582 0.0319877 -9.57481 0.370805 -4.62263)
(-56.2353 12.7361 -2.82637 -2.59628 -1.82609 -1.93285)
(-51.1348 11.9734 0.289871 -0.789398 -1.66687 1.94268)
(-51.8066 12.0277 -0.20557 0.595071 -1.26621 -2.73711)
(-52.224 12.1619 -0.6094 1.67142 -0.948474 -4.76869)
(-52.98 12.32 -0.810078 2.46733 -0.694709 -5.79917)
(-53.5627 12.4488 -0.727726 3.02921 -0.483732 -5.94262)
(-53.9562 12.5388 -0.495485 3.37529 -0.295211 -5.79975)
(-54.1808 12.5806 -0.176726 3.47466 -0.102403 -5.70046)
(-47.9026 9.43801 -4.67365 -4.183 -0.286214 -10.0048)
(-43.5173 8.24976 -2.88406 -3.23787 -0.332884 -9.2754)
(-43.6848 8.03491 -2.63847 -2.2659 -0.221976 -9.35689)
(-44.7611 8.03845 -2.77417 -1.47368 -0.129001 -9.15787)
(-45.8837 8.08867 -2.62067 -0.890869 -0.0751221 -9.04231)
(-46.7298 8.13802 -2.10058 -0.481121 -0.0448265 -8.87187)
(-47.2679 8.17777 -1.34246 -0.214399 -0.0244153 -8.71307)
(-47.5073 8.20732 -0.460659 -0.0626479 -0.00758467 -8.60606)
(-2.76269 5.87419 -4.60019 -5.35304 0.331689 -3.42329)
(-5.06164 4.91358 -4.31003 -4.70617 0.242503 -4.69946)
(-6.75755 4.6618 -4.08577 -3.97419 0.232819 -2.43085)
(-8.35825 4.60265 -3.82475 -3.40348 0.20812 -0.520951)
(-9.56185 4.59183 -3.31885 -2.99168 0.168499 0.667873)
(-10.3838 4.59299 -2.54143 -2.70638 0.121976 1.28116)
(-10.889 4.59642 -1.58615 -2.52496 0.0754373 1.55801)
(-11.1225 4.59845 -0.538506 -2.42227 0.0264728 1.66497)
(14.3951 4.75097 -3.35964 -4.91243 0.67085 -5.67172)
(10.2351 3.92687 -2.84752 -4.35336 0.396301 -8.33309)
(9.01514 3.60343 -2.77943 -3.89624 0.295198 -3.09816)
(7.82286 3.47847 -2.45308 -3.52822 0.224465 0.487224)
(7.04977 3.40802 -2.04369 -3.26363 0.16511 2.64981)
(6.49067 3.36801 -1.51978 -3.08405 0.111466 3.62993)
(6.13602 3.34482 -0.934559 -2.97316 0.0644355 3.99458)
(5.95891 3.3314 -0.315795 -2.92121 0.021311 4.09044)
)
;
    }
    symmetry
    {
        type            symmetryPlane;
    }
    bottom
    {
        type            calculated;
        value           nonuniform List<symmTensor> 
32
(
(225.837 88.8128 4.33086 343.164 101.13 226.965)
(221.702 99.6747 2.42949 335.104 50.3894 218.124)
(228.372 104.902 1.24701 344.962 24.6756 223.364)
(232.263 106.791 0.587272 350.888 11.4431 226.846)
(234.012 107.337 0.249352 353.6 4.83932 228.492)
(234.712 107.408 0.0901958 354.711 1.75011 229.178)
(234.945 107.357 0.0248387 355.093 0.482263 229.416)
(235.002 107.307 0.0039425 355.192 0.0765854 229.478)
(43.4351 35.2333 0.537968 64.5156 28.0863 43.1891)
(45.2078 46.9879 0.371451 66.4086 14.5537 44.1236)
(48.1147 48.9803 0.182605 70.6698 6.87686 46.8397)
(49.4759 48.6463 0.0752157 72.7677 2.85477 48.1986)
(50.158 47.9045 0.0237669 73.865 0.916487 48.9161)
(50.5228 47.2611 0.00277167 74.471 0.108365 49.314)
(50.7172 46.8312 -0.00291734 74.8003 -0.115125 49.5304)
(50.8027 46.6201 -0.00163607 74.9468 -0.0648598 49.6267)
(-62.4756 29.9037 -0.567927 -93.6539 -32.434 -62.3832)
(-56.1261 41.2691 -0.456899 -84.9819 -18.9867 -56.909)
(-56.889 42.6289 -0.278246 -86.2076 -11.1873 -57.8762)
(-57.3998 41.8542 -0.159987 -86.9066 -6.54937 -58.3972)
(-57.5435 40.8298 -0.0897518 -87.0466 -3.76611 -58.5083)
(-57.4926 40.0067 -0.0486292 -86.9145 -2.08268 -58.4242)
(-57.3877 39.4679 -0.0237965 -86.7232 -1.03316 -58.2961)
(-57.3154 39.2057 -0.00710966 -86.5988 -0.310759 -58.2123)
(-230.827 62.1383 -3.82003 -338.421 -92.5944 -227.698)
(-219.491 70.4824 -2.3336 -323.649 -50.2798 -221.098)
(-225.638 72.8885 -1.30378 -332.682 -27.0351 -228.67)
(-228.964 73.0594 -0.692169 -337.405 -14.2832 -232.369)
(-230.097 72.5846 -0.353384 -338.942 -7.33397 -233.558)
(-230.224 72.0419 -0.171946 -339.051 -3.59518 -233.661)
(-230.027 71.6318 -0.0757649 -338.721 -1.59351 -233.431)
(-229.855 71.4179 -0.0211261 -338.453 -0.445727 -233.24)
)
;
    }
}


// ************************************************************************* //
