/*--------------------------------*- C++ -*----------------------------------*\
| =========                 |                                                 |
| \\      /  F ield         | foam-extend: Open Source CFD                    |
|  \\    /   O peration     | Version:     3.1                                |
|   \\  /    A nd           | Web:         http://www.extend-project.de       |
|    \\/     M anipulation  |                                                 |
\*---------------------------------------------------------------------------*/
FoamFile
{
    version     2.0;
    format      ascii;
    class       volScalarField;
    location    "2.8";
    object      sigmaEq;
}
// * * * * * * * * * * * * * * * * * * * * * * * * * * * * * * * * * * * * * //

dimensions      [1 -1 -2 0 0 0 0];

internalField   nonuniform List<scalar> 
256
(
262.53
116.572
114.442
251.631
195.941
147.89
137.071
176.246
177.436
140.886
130.27
155.011
140.547
125.769
116.548
116.688
107.446
106.771
99.1953
83.7955
79.232
85.5938
79.5675
56.1716
59.9411
64.5399
58.2191
35.5642
54.9267
48.0676
31.7561
21.7123
258.54
131.051
126.378
241.642
204.368
152.479
143.685
186.622
175.144
131.62
122.062
153.521
136.992
111.858
102.963
113.205
102.527
91.4026
83.9128
78.2391
74.5463
71.3995
65.4935
50.237
56.0612
53.032
47.2853
30.3811
52.2953
41.4392
26.3309
18.7144
260.695
135.156
128.559
239.629
203.441
153.96
144.035
182.88
175.239
131.104
120.267
150.781
136.926
108.996
98.7749
110.363
102.392
87.5953
78.897
75.4474
74.2478
67.522
60.7429
47.6771
55.4868
49.9631
43.7811
28.1691
51.1108
40.5403
24.891
15.6519
262.018
136.018
128.055
238.258
202.899
154.876
143.627
179.867
175.367
131.992
119.779
148.225
137.463
109.4
97.8697
108.129
103.121
87.6082
77.773
73.4489
74.9904
67.3191
59.6902
45.8966
56.0878
49.8836
43.1455
26.5834
51.487
41.4006
24.9697
13.8843
262.483
135.762
126.863
236.838
202.895
155.237
142.927
177.916
175.748
132.848
119.565
146.402
138.234
110.384
97.873
106.554
104.115
88.5386
77.8723
72.0869
76.034
68.1073
59.8491
44.6921
57.051
50.5981
43.401
25.5184
52.3662
42.479
25.4014
12.9491
262.495
135.243
125.711
235.539
203.018
155.279
142.188
176.614
176.149
133.411
119.358
145.173
138.922
111.209
98.0127
105.502
104.967
89.4312
78.2009
71.1913
76.9287
68.9266
60.2448
43.9137
57.9012
51.313
43.7907
24.8423
53.2424
43.3333
25.7404
12.3965
262.367
134.802
124.872
234.571
203.125
155.205
141.601
175.787
176.451
133.717
119.164
144.404
139.406
111.732
98.1026
104.852
105.551
90.0356
78.4557
70.6449
77.5369
69.4976
60.5557
43.4488
58.4898
51.8058
44.0743
24.4494
53.8792
43.8863
25.929
12.0532
262.268
134.562
124.439
234.059
203.179
155.14
141.282
175.38
176.606
133.844
119.046
144.03
139.649
111.978
98.1365
104.54
105.839
90.3284
78.5806
70.3842
77.8355
69.7779
60.7118
43.2306
58.7795
52.0468
44.2117
24.2679
54.1982
44.1524
26.0056
11.8802
)
;

boundaryField
{
    interface
    {
        type            calculated;
        value           nonuniform List<scalar> 
192
(
424.686
222.388
215.326
160.765
117.933
82.5465
62.78
53.5174
415.489
239.33
216.583
164.144
120.323
85.8261
66.4188
56.9359
420.787
234.978
215.528
163.662
119.92
85.1742
65.2696
53.5743
424.722
232.534
214.777
163.646
120.384
85.8289
65.9646
53.4947
426.644
231.617
214.639
163.982
121.116
86.7421
66.9589
54.0525
427.372
231.33
214.805
164.444
121.823
87.5757
67.8653
54.8337
427.559
231.251
215.007
164.822
122.334
88.1562
68.4923
55.4327
427.568
231.23
215.122
165.021
122.59
88.4405
68.7931
55.7242
296.975
182.45
182.871
145.001
113.48
85.1053
65.0041
59.277
106.422
141.856
149.154
136.695
118.629
96.3647
73.2569
54.7291
108.008
128.058
137.095
126.506
110.338
89.6969
66.1448
36.168
289.793
158.365
159.352
120.151
89.632
62.2255
41.0966
25.7546
402.49
206.955
193.207
136.082
90.9048
53.0315
28.1847
18.554
384.281
224.117
193.195
137.343
90.8354
53.6582
29.5323
19.7955
385.613
217.411
189.567
134.503
88.3418
51.4531
27.2624
15.2152
386.68
212.88
186.149
131.615
85.7741
48.9439
24.4496
12.2832
386.38
210.348
183.852
129.493
83.8087
46.8871
21.9772
10.2738
385.455
208.859
182.398
128.099
82.4652
45.4381
20.1577
8.98103
384.54
207.983
181.527
127.26
81.6401
44.5398
19.0042
8.17159
384.003
207.567
181.114
126.865
81.2477
44.1129
18.4537
7.77659
59.2303
56.3811
55.5018
55.7277
56.6027
57.4931
58.1576
58.4793
45.4056
40.8975
41.4074
42.9829
44.4283
45.4767
46.1368
46.4561
13.1575
11.3502
11.4155
12.4621
13.3306
13.7464
13.8768
13.897
22.1068
18.8907
14.7917
12.3927
11.2986
10.6493
10.2098
9.96779
)
;
    }
    symmetry
    {
        type            symmetryPlane;
    }
    bottom
    {
        type            calculated;
        value           nonuniform List<scalar> 
32
(
240.939
208.495
204.634
205.019
205.475
205.61
205.582
205.531
79.6042
86.5117
87.2313
86.1834
84.9344
83.9219
83.2508
82.9205
84.5111
85.4792
83.3836
80.6431
78.4154
76.8453
75.8658
75.3975
242.591
198.233
186.622
182.813
180.984
179.796
179.002
178.595
)
;
    }
}


// ************************************************************************* //
