/*--------------------------------*- C++ -*----------------------------------*\
| =========                 |                                                 |
| \\      /  F ield         | foam-extend: Open Source CFD                    |
|  \\    /   O peration     | Version:     3.1                                |
|   \\  /    A nd           | Web:         http://www.extend-project.de       |
|    \\/     M anipulation  |                                                 |
\*---------------------------------------------------------------------------*/
FoamFile
{
    version     2.0;
    format      ascii;
    class       volScalarField;
    location    "2.8";
    object      sigmaCauchyEq;
}
// * * * * * * * * * * * * * * * * * * * * * * * * * * * * * * * * * * * * * //

dimensions      [1 -1 -2 0 0 0 0];

internalField   nonuniform List<scalar> 
256
(
287.32
118.611
111.418
226.304
198.94
148.666
135.489
172.527
181.683
141.314
128.864
150.435
142.368
125.787
115.582
114.479
108.146
106.56
98.5562
82.6974
79.245
85.259
79.1889
55.757
59.7244
64.1838
58.0177
35.4567
54.4903
47.6341
31.7303
21.741
282.579
133.532
123.315
218.427
209.575
154.279
141.167
180.628
179.613
132.427
120.535
148.83
139.152
112.239
101.949
110.827
103.395
91.4723
83.3052
77.1289
74.7006
71.2931
65.1585
49.8167
55.9539
52.8395
47.1215
30.2665
51.9707
41.1319
26.2987
18.7094
285.356
137.838
125.405
216.237
208.242
155.788
141.498
177.174
179.525
131.89
118.772
146.201
138.973
109.356
97.812
108.044
103.192
87.6618
78.3296
74.3811
74.371
67.4269
60.4325
47.2798
55.3677
49.7885
43.6253
28.0614
50.7631
40.2439
24.8515
15.6498
287.015
138.749
124.9
214.843
207.315
156.638
141.147
174.511
179.428
132.705
118.335
143.862
139.378
109.705
96.9454
105.93
103.858
87.6429
77.2272
72.4446
75.091
67.2099
59.3874
45.5273
55.9687
49.7044
42.987
26.4852
51.1439
41.0954
24.9209
13.8808
287.586
138.492
123.744
213.564
207.055
156.945
140.506
172.81
179.63
133.506
118.166
142.226
140.036
110.65
96.9772
104.466
104.795
88.5489
77.3405
71.1398
76.1093
67.9852
59.5496
44.3486
56.9244
50.4112
43.2388
25.4292
52.0169
42.1606
25.3464
12.9455
287.598
137.963
122.636
212.45
207.026
156.951
139.817
171.669
179.918
134.036
117.994
141.129
140.65
111.45
97.1381
103.495
105.606
89.426
77.6796
70.2877
76.9838
68.7953
59.9479
43.5902
57.7663
51.1193
43.6262
24.7601
52.8862
43.0044
25.6817
12.3933
287.441
137.511
121.831
211.638
207.05
156.857
139.266
170.937
180.155
134.323
117.824
140.442
141.091
111.96
97.2424
102.897
106.165
90.0218
77.9416
69.7695
77.5782
69.3606
60.2611
43.1386
58.3479
51.6074
43.9089
24.372
53.5168
43.5503
25.8685
12.0505
287.32
137.266
121.417
211.212
207.068
156.783
138.965
170.575
180.282
134.443
117.717
140.107
141.315
112.2
97.2836
102.609
106.442
90.3107
78.0704
69.5226
77.8698
69.6381
60.4184
42.9268
58.6338
51.846
44.0461
24.193
53.8325
43.8131
25.9444
11.8779
)
;

boundaryField
{
    interface
    {
        type            calculated;
        value           nonuniform List<scalar> 
192
(
455.867
230.581
222.692
164.492
119.546
82.9986
62.8051
53.4263
444.111
248.573
223.814
167.827
121.857
86.2319
66.4121
56.835
449.225
243.411
222.35
167.131
121.353
85.5417
65.2497
53.4617
453.095
240.331
221.178
166.885
121.705
86.1508
65.9348
53.3911
454.908
239.021
220.744
167.047
122.349
87.0251
66.9173
53.9549
455.511
238.506
220.726
167.396
122.996
87.8287
67.8113
54.7373
455.593
238.303
220.825
167.709
123.47
88.389
68.4283
55.3352
455.546
238.227
220.896
167.879
123.708
88.6637
68.7241
55.6261
313.161
184.24
186.168
146.282
113.855
84.9022
64.6155
58.7118
107.774
141.981
149.239
136.399
118.16
95.8207
72.7496
54.2316
105.695
127.009
135.802
125.564
109.659
89.2636
65.8953
36.1147
273.276
155.768
155.521
118.222
88.6228
61.8349
41.0009
25.7988
372.398
198.663
185.985
132.493
89.3079
52.4966
28.0517
18.5374
357.338
214.271
185.858
133.595
89.1718
53.065
29.3513
19.7414
359.179
208.253
182.547
130.898
86.7513
50.8946
27.0999
15.1776
360.545
204.321
179.523
128.216
84.2877
48.4376
24.3157
12.2564
360.53
202.181
177.534
126.273
82.4162
46.4287
21.8683
10.254
359.859
200.937
176.286
125.006
81.1428
45.0161
20.0673
8.96563
359.131
200.202
175.539
124.247
80.3627
44.1413
18.9258
8.15898
358.694
199.851
175.185
123.889
79.9921
43.7259
18.3811
7.76534
58.5983
55.8422
54.9668
55.1965
56.0639
56.9439
57.5997
57.9162
44.9864
40.5605
41.0709
42.6287
44.0562
45.0911
45.7428
46.0583
13.1442
11.3342
11.3958
12.4383
13.3037
13.7173
13.8465
13.8661
22.1572
18.915
14.8131
12.4054
11.305
10.652
10.2104
9.96748
)
;
    }
    symmetry
    {
        type            symmetryPlane;
    }
    bottom
    {
        type            calculated;
        value           nonuniform List<scalar> 
32
(
260.837
225.208
221.465
222.149
222.768
222.965
222.952
222.9
80.8775
87.938
88.7598
87.7368
86.4873
85.4681
84.7909
84.4573
82.5502
83.6792
81.6026
78.9069
76.7248
75.1913
74.2367
73.7808
221.972
182.176
171.112
167.417
165.68
164.591
163.881
163.522
)
;
    }
}


// ************************************************************************* //
