/*--------------------------------*- C++ -*----------------------------------*\
| =========                 |                                                 |
| \\      /  F ield         | foam-extend: Open Source CFD                    |
|  \\    /   O peration     | Version:     3.1                                |
|   \\  /    A nd           | Web:         http://www.extend-project.de       |
|    \\/     M anipulation  |                                                 |
\*---------------------------------------------------------------------------*/
FoamFile
{
    version     2.0;
    format      ascii;
    class       volVectorField;
    location    "1.8";
    object      D;
}
// * * * * * * * * * * * * * * * * * * * * * * * * * * * * * * * * * * * * * //

dimensions      [0 1 0 0 0 0 0];

internalField   nonuniform List<vector> 
256
(
(0.000192825 0.000104764 0.000163583)
(0.000101773 1.75316e-05 5.2883e-05)
(8.88065e-05 -2.87947e-05 -4.8594e-05)
(0.000149706 -0.000110227 -0.000162005)
(0.000750083 0.000432297 7.10163e-05)
(0.00062414 0.000117544 3.22604e-05)
(0.000592334 -0.000118435 -6.13992e-05)
(0.00065093 -0.000420681 -0.000123816)
(0.00140745 0.000667811 -1.69696e-05)
(0.0012779 0.000206572 -1.49437e-05)
(0.00123699 -0.000186837 -5.44138e-05)
(0.00128334 -0.000641111 -7.7663e-05)
(0.00215952 0.000855352 -0.000112436)
(0.00204018 0.000278029 -5.83006e-05)
(0.00199494 -0.000240653 -4.48533e-05)
(0.00202225 -0.000814399 -1.754e-05)
(0.00297385 0.000990458 -0.000198373)
(0.00286485 0.00032975 -9.66136e-05)
(0.00281783 -0.000280742 -3.29824e-05)
(0.00283013 -0.000938781 4.22906e-05)
(0.003822 0.00108413 -0.000271197)
(0.00372279 0.000364612 -0.000129056)
(0.00367566 -0.000310557 -2.19564e-05)
(0.003677 -0.00102516 9.64742e-05)
(0.00468368 0.00114617 -0.000329129)
(0.00459064 0.000385636 -0.000157997)
(0.00454347 -0.0003328 -1.50206e-05)
(0.00453945 -0.0010825 0.000139256)
(0.00555409 0.00118456 -0.000375123)
(0.00545326 0.000398239 -0.000186088)
(0.00540119 -0.000348748 -1.50259e-05)
(0.00539988 -0.00111953 0.000161909)
(0.000196981 0.000105629 6.74804e-05)
(0.000103598 2.03705e-05 2.40132e-05)
(8.99087e-05 -2.71007e-05 -2.5018e-05)
(0.000148379 -0.000105775 -7.32111e-05)
(0.000740666 0.000436031 1.79731e-05)
(0.00060288 0.000125341 6.87116e-06)
(0.000571254 -0.000112706 -3.6423e-05)
(0.000639629 -0.000411689 -6.27808e-05)
(0.00135821 0.000682604 -4.65107e-05)
(0.00123211 0.00022036 -2.68062e-05)
(0.00119252 -0.000181894 -3.57846e-05)
(0.00123555 -0.000637683 -3.24438e-05)
(0.00207064 0.000872121 -0.000118971)
(0.00195611 0.000293679 -6.09284e-05)
(0.00191275 -0.000233774 -3.06698e-05)
(0.00193578 -0.000808804 1.01522e-05)
(0.00284565 0.00100772 -0.000187432)
(0.00274304 0.000346309 -9.20892e-05)
(0.00269799 -0.000271398 -2.31736e-05)
(0.00270456 -0.000929555 5.53226e-05)
(0.00365817 0.0010999 -0.000247018)
(0.00356586 0.000381106 -0.000119318)
(0.00352062 -0.000297749 -1.61423e-05)
(0.00351544 -0.00101 9.67711e-05)
(0.00448841 0.00115872 -0.000295221)
(0.00440347 0.000400994 -0.000143595)
(0.00435837 -0.000315528 -1.31137e-05)
(0.00434662 -0.00105918 0.000128173)
(0.00533315 0.00119238 -0.0003308)
(0.00524083 0.0004112 -0.000165524)
(0.00519106 -0.00032654 -1.84104e-05)
(0.00518208 -0.0010868 0.000139223)
(0.000195385 0.000106195 2.02694e-05)
(9.56328e-05 2.19544e-05 7.49038e-06)
(7.98534e-05 -2.68604e-05 -1.17211e-05)
(0.000139983 -0.000105056 -2.73443e-05)
(0.000721431 0.000426481 -1.44813e-05)
(0.000572474 0.000126149 -8.46567e-06)
(0.000537691 -0.000105952 -1.98812e-05)
(0.000610869 -0.000395722 -2.25252e-05)
(0.00131172 0.000672594 -6.25062e-05)
(0.00117716 0.00022355 -3.34794e-05)
(0.00113449 -0.000171184 -2.14914e-05)
(0.00118015 -0.00061479 -1.10957e-06)
(0.00199393 0.000863353 -0.000116732)
(0.00187333 0.000299249 -5.97494e-05)
(0.00182711 -0.000219267 -1.92622e-05)
(0.0018507 -0.000780203 2.90309e-05)
(0.00273906 0.00100162 -0.000169579)
(0.00263183 0.00035434 -8.44376e-05)
(0.00258411 -0.000253439 -1.50468e-05)
(0.00259003 -0.000896559 6.1932e-05)
(0.00352339 0.00109672 -0.000216867)
(0.00342772 0.000391328 -0.000106669)
(0.00338007 -0.000276442 -1.12431e-05)
(0.00337325 -0.00097281 9.23152e-05)
(0.00432801 0.00115833 -0.000255766)
(0.00424122 0.000412847 -0.000126748)
(0.00419402 -0.000290918 -1.12516e-05)
(0.00417941 -0.00101761 0.000114061)
(0.00515125 0.00119474 -0.000283102)
(0.00505847 0.000424228 -0.000144511)
(0.00500617 -0.000298741 -1.97794e-05)
(0.00499189 -0.00104071 0.000116518)
(0.000190499 0.000105407 -1.26246e-06)
(8.74115e-05 2.2409e-05 -4.30573e-07)
(7.001e-05 -2.63481e-05 -4.46242e-06)
(0.000130223 -0.000103026 -4.89438e-06)
(0.000697907 0.000416298 -2.90159e-05)
(0.000542666 0.000125411 -1.4702e-05)
(0.000504927 -9.96737e-05 -9.79733e-06)
(0.000579139 -0.00037972 -3.72953e-07)
(0.00126576 0.000658893 -6.57046e-05)
(0.00112482 0.000223797 -3.36767e-05)
(0.00107904 -0.000159922 -1.17387e-05)
(0.00112591 -0.000589601 1.58656e-05)
(0.00192417 0.000849656 -0.000106329)
(0.00179809 0.00030156 -5.36711e-05)
(0.00174891 -0.000203627 -1.09494e-05)
(0.00177316 -0.000748298 3.76148e-05)
(0.00264595 0.000990082 -0.000146544)
(0.00253416 0.000359265 -7.2858e-05)
(0.0024837 -0.000233981 -8.77218e-06)
(0.00248973 -0.000859741 6.13813e-05)
(0.00340814 0.00108828 -0.000183319)
(0.00330886 0.000398955 -9.06116e-05)
(0.00325876 -0.000253648 -7.12686e-06)
(0.00325144 -0.000932082 8.3165e-05)
(0.00419233 0.00115318 -0.00021409)
(0.00410296 0.000422882 -0.000106968)
(0.00405347 -0.000265208 -8.92233e-06)
(0.00403752 -0.000973454 9.77155e-05)
(0.00499776 0.00119264 -0.000235098)
(0.0049029 0.00043641 -0.000121409)
(0.00484764 -0.000270457 -1.83505e-05)
(0.0048304 -0.000993421 9.55658e-05)
(0.000185314 0.000104006 -9.17926e-06)
(8.07715e-05 2.24955e-05 -3.38901e-06)
(6.22826e-05 -2.57417e-05 -8.16004e-07)
(0.00012168 -0.000100537 4.58274e-06)
(0.000675819 0.000407704 -3.14043e-05)
(0.00051733 0.000124652 -1.52173e-05)
(0.000477444 -9.43302e-05 -4.01399e-06)
(0.00055107 -0.00036584 9.40772e-06)
(0.00122514 0.00064701 -5.90539e-05)
(0.00108023 0.000223641 -2.93818e-05)
(0.00103215 -0.000150015 -5.61281e-06)
(0.00107914 -0.00056758 2.18281e-05)
(0.00186464 0.000837322 -8.89591e-05)
(0.00173471 0.000303045 -4.42037e-05)
(0.00168337 -0.000189674 -5.44808e-06)
(0.00170788 -0.000720102 3.74822e-05)
(0.00256814 0.000979223 -0.000118768)
(0.00245291 0.000362977 -5.86293e-05)
(0.0024005 -0.000216516 -4.43297e-06)
(0.00240672 -0.000826954 5.43681e-05)
(0.00331303 0.00107983 -0.000146443)
(0.0032109 0.00040504 -7.22736e-05)
(0.00315906 -0.000233191 -4.02407e-06)
(0.00315169 -0.000895745 6.95903e-05)
(0.00408102 0.0011473 -0.000169908)
(0.00398944 0.000431112 -8.50632e-05)
(0.00393833 -0.000242252 -6.49691e-06)
(0.00392183 -0.000934176 7.90315e-05)
(0.00487158 0.00118903 -0.000185571)
(0.00477487 0.000446524 -9.63322e-05)
(0.00471745 -0.000245371 -1.51514e-05)
(0.00469857 -0.000951641 7.51024e-05)
(0.000181038 0.000102637 -9.96232e-06)
(7.59744e-05 2.24685e-05 -3.68047e-06)
(5.67773e-05 -2.51812e-05 6.50178e-07)
(0.000115148 -9.82855e-05 6.9135e-06)
(0.000658034 0.000401211 -2.64106e-05)
(0.000497989 0.00012415 -1.24819e-05)
(0.00045667 -9.01597e-05 -1.08299e-06)
(0.000529236 -0.000354997 1.13082e-05)
(0.00119303 0.000638081 -4.59155e-05)
(0.00104583 0.000223614 -2.23846e-05)
(0.000996226 -0.000142217 -2.18261e-06)
(0.00104289 -0.000550428 2.02446e-05)
(0.00181816 0.000827966 -6.66187e-05)
(0.00168579 0.000304264 -3.267e-05)
(0.00163304 -0.000178637 -2.23974e-06)
(0.00165758 -0.000698074 3.09428e-05)
(0.00250792 0.000970835 -8.73184e-05)
(0.0023904 0.000365889 -4.27759e-05)
(0.00233674 -0.000202665 -1.83335e-06)
(0.00234311 -0.000801234 4.23021e-05)
(0.00323983 0.00107309 -0.000106729)
(0.00313571 0.000409745 -5.24868e-05)
(0.0030828 -0.000216963 -1.98118e-06)
(0.00307552 -0.000867155 5.23611e-05)
(0.0039955 0.00114229 -0.000123336)
(0.00390234 0.000437424 -6.16997e-05)
(0.00385024 -0.000224076 -4.29135e-06)
(0.00383357 -0.000903244 5.81942e-05)
(0.00477443 0.00118548 -0.000134248)
(0.00467632 0.00045423 -6.97955e-05)
(0.00461756 -0.000225557 -1.1085e-05)
(0.00459791 -0.000918746 5.43489e-05)
(0.000178094 0.000101604 -7.09864e-06)
(7.29073e-05 2.24215e-05 -2.61706e-06)
(5.32795e-05 -2.47612e-05 8.35347e-07)
(0.000110801 -9.66381e-05 5.39393e-06)
(0.000645814 0.000396887 -1.72297e-05)
(0.00048509 0.000123872 -8.02414e-06)
(0.000442895 -8.73086e-05 2.60018e-08)
(0.00051451 -0.000347612 8.45746e-06)
(0.00117106 0.000632197 -2.88849e-05)
(0.00102264 0.000223691 -1.3903e-05)
(0.000972108 -0.000136879 -5.96834e-07)
(0.00101838 -0.000538782 1.38838e-05)
(0.00178647 0.000821798 -4.1108e-05)
(0.0016527 0.000305189 -1.99783e-05)
(0.00159911 -0.000171073 -6.85818e-07)
(0.00162357 -0.000683111 2.01558e-05)
(0.00246698 0.000965262 -5.33472e-05)
(0.00234808 0.000367941 -2.59835e-05)
(0.00229368 -0.000193169 -5.58082e-07)
(0.00230014 -0.000783736 2.67319e-05)
(0.00319014 0.00106852 -6.48933e-05)
(0.0030848 0.000412976 -3.18118e-05)
(0.00303127 -0.000205842 -8.13784e-07)
(0.0030241 -0.000847675 3.24751e-05)
(0.00393747 0.00113875 -7.48244e-05)
(0.0038433 0.000441698 -3.73803e-05)
(0.00379064 -0.000211633 -2.40505e-06)
(0.00377398 -0.000882148 3.56425e-05)
(0.00470838 0.00118278 -8.12834e-05)
(0.00460936 0.000459403 -4.22581e-05)
(0.00454984 -0.000212007 -6.69793e-06)
(0.00452987 -0.000896297 3.29688e-05)
(0.000176603 0.000101056 -2.53111e-06)
(7.14172e-05 2.23913e-05 -9.31713e-07)
(5.15856e-05 -2.45382e-05 3.48245e-07)
(0.000108639 -9.57769e-05 1.98663e-06)
(0.000639622 0.000394729 -5.95311e-06)
(0.00047866 0.000123751 -2.75332e-06)
(0.000436052 -8.58632e-05 1.17817e-07)
(0.000507127 -0.000343881 3.08238e-06)
(0.00115994 0.000629282 -9.83432e-06)
(0.00101099 0.000223763 -4.70433e-06)
(0.000960031 -0.000134173 -8.19413e-08)
(0.00100606 -0.000532907 4.90508e-06)
(0.00177044 0.000818745 -1.38814e-05)
(0.00163604 0.000305691 -6.71586e-06)
(0.00158205 -0.000167239 -1.19427e-07)
(0.00160645 -0.000675565 6.9753e-06)
(0.00244628 0.000962491 -1.79365e-05)
(0.00232674 0.000369005 -8.71e-06)
(0.00227201 -0.000188358 -9.51768e-08)
(0.0022785 -0.00077491 9.13128e-06)
(0.00316503 0.00106622 -2.17729e-05)
(0.00305911 0.000414622 -1.06546e-05)
(0.0030053 -0.000200209 -2.07257e-07)
(0.0029982 -0.000837844 1.10004e-05)
(0.0039081 0.00113691 -2.50812e-05)
(0.00381347 0.000443856 -1.25184e-05)
(0.00376057 -0.000205335 -7.70391e-07)
(0.00374394 -0.000871499 1.20042e-05)
(0.00467492 0.00118128 -2.72221e-05)
(0.00457548 0.000462005 -1.41474e-05)
(0.00451563 -0.000205147 -2.2346e-06)
(0.00449555 -0.000884964 1.10567e-05)
)
;

boundaryField
{
    interface
    {
        type            tractionDisplacement;
        gradient        nonuniform List<vector> 
192
(
(0.0155785 0.0239088 -0.000728917)
(0.00740872 0.0222453 -0.00198904)
(0.00839926 0.0277323 -0.00392437)
(0.0071276 0.0305432 -0.00591905)
(0.00631732 0.0327168 -0.00766685)
(0.00557242 0.0339732 -0.0091702)
(0.00526358 0.0348095 -0.0103547)
(0.0049656 0.0363114 -0.0110477)
(0.0158616 0.0237765 -0.000455457)
(0.0085591 0.0209824 -0.00128027)
(0.00859788 0.025958 -0.00263223)
(0.00749466 0.0289464 -0.004114)
(0.00663299 0.0312433 -0.00548216)
(0.00592227 0.0327346 -0.00672519)
(0.00559176 0.0338422 -0.00778721)
(0.00522926 0.0358171 -0.00855292)
(0.0159682 0.0235539 -0.0005025)
(0.00883001 0.0200985 -0.00133493)
(0.00878256 0.0247028 -0.00233446)
(0.00758635 0.0277212 -0.00342733)
(0.00664429 0.0300789 -0.00449754)
(0.00588562 0.0317005 -0.00548848)
(0.00552667 0.0329664 -0.00636684)
(0.00505362 0.0352188 -0.00706191)
(0.015901 0.0230984 -0.000469875)
(0.00902685 0.0193736 -0.00123697)
(0.00901668 0.0237863 -0.00203416)
(0.00779731 0.0267696 -0.00287529)
(0.00680965 0.0291669 -0.00370073)
(0.00600793 0.0308671 -0.00447748)
(0.00561282 0.0322339 -0.00518625)
(0.00507766 0.0346483 -0.00578742)
(0.0157347 0.0226017 -0.000391986)
(0.00912544 0.0187748 -0.00103558)
(0.00917361 0.0230778 -0.00166303)
(0.00797189 0.0260432 -0.00230767)
(0.00696992 0.028466 -0.00293485)
(0.00614295 0.0302147 -0.00352952)
(0.00572204 0.0316408 -0.00408558)
(0.0051347 0.0341452 -0.00458107)
(0.0155565 0.0221712 -0.000288861)
(0.00916493 0.0183091 -0.000767469)
(0.0092662 0.0225459 -0.00122287)
(0.00809312 0.0255067 -0.00168503)
(0.00709297 0.0279483 -0.0021319)
(0.00625533 0.029727 -0.0025573)
(0.00581947 0.0311855 -0.0029606)
(0.00520204 0.0337391 -0.00332902)
(0.0154162 0.0218634 -0.0001753)
(0.00917434 0.017991 -0.000468195)
(0.00931348 0.022188 -0.00074456)
(0.00816495 0.0251491 -0.00102389)
(0.00717115 0.0276036 -0.00129332)
(0.00633015 0.0293999 -0.00155051)
(0.0058864 0.0308755 -0.00179596)
(0.00525184 0.033455 -0.00202306)
(0.01534 0.0217047 -5.85238e-05)
(0.00917351 0.0178299 -0.000156898)
(0.00933187 0.0220079 -0.000249511)
(0.0081969 0.0249697 -0.00034306)
(0.00720765 0.0274307 -0.000433246)
(0.0063661 0.0292356 -0.000519491)
(0.00591833 0.0307189 -0.000601946)
(0.00527551 0.033307 -0.000678614)
(7.88437e-05 0.0053698 0.00771056)
(0.00104022 -0.00442853 0.000638816)
(0.00354115 -0.00358422 0.00134521)
(0.00565119 -0.00385308 0.000232201)
(0.00766488 -0.00337695 -0.000324221)
(0.00934356 -0.00282091 -0.000831998)
(0.0106504 -0.00228358 -0.00108343)
(0.0116448 -0.00135989 -0.0016203)
(-0.00182731 0.00226113 0.00159763)
(-0.00241431 -0.00179931 0.000111152)
(0.000146667 -0.00154206 -0.000102811)
(0.00237709 -0.00162246 -0.000507338)
(0.00453524 -0.00147493 -0.000736956)
(0.00636771 -0.00134068 -0.000915463)
(0.00789611 -0.00128508 -0.00103359)
(0.00920477 -0.00100667 -0.001397)
(-0.00207583 -0.00266268 -0.00173101)
(-0.00288762 0.00069563 -0.000489498)
(-0.000479279 0.000499443 -0.000592935)
(0.00174292 0.000639564 -0.000454193)
(0.0038946 0.00051168 -0.0003595)
(0.00577761 0.000292854 -0.00024341)
(0.00741056 -2.81076e-05 -0.000128096)
(0.00875099 -0.00044029 0.000187778)
(-0.000893036 -0.00653137 -0.00721258)
(-0.000586848 0.00279773 -0.00117988)
(0.00142317 0.002342 -0.00196574)
(0.00336065 0.00272797 -0.0011152)
(0.00528839 0.00239375 -0.000667105)
(0.00703161 0.00192106 -0.000210446)
(0.00856042 0.00124636 0.000134377)
(0.00975381 3.57746e-05 0.000698449)
(0.0121082 -0.0205923 -0.000105912)
(0.00482706 -0.021021 0.000347728)
(0.00479721 -0.0272432 0.00177556)
(0.00312825 -0.0304863 0.00355187)
(0.00201287 -0.0328124 0.00526557)
(0.00112185 -0.0340234 0.00690078)
(0.000660408 -0.0344929 0.00837998)
(0.000612324 -0.0345472 0.00955326)
(0.0118485 -0.0205892 0.000114356)
(0.00560696 -0.0201952 0.000771558)
(0.00466496 -0.0256816 0.00193182)
(0.00310188 -0.0289677 0.00333244)
(0.00192767 -0.0312892 0.00471189)
(0.0010412 -0.0325972 0.00604411)
(0.000541624 -0.0332019 0.00727369)
(0.000559032 -0.033526 0.00841154)
(0.0117609 -0.0199944 0.000295558)
(0.0058497 -0.0193803 0.00110788)
(0.0048578 -0.0244866 0.00206488)
(0.00322622 -0.0277519 0.00313785)
(0.00197891 -0.0300713 0.00422502)
(0.00103552 -0.0314392 0.00527889)
(0.000475154 -0.0321143 0.00628738)
(0.000364569 -0.032462 0.00727557)
(0.0115237 -0.0191617 0.000340593)
(0.00598386 -0.0186075 0.00113159)
(0.00501641 -0.0235658 0.00194035)
(0.00337513 -0.0267929 0.00279192)
(0.00208843 -0.0291183 0.00363868)
(0.00109915 -0.0305145 0.00446249)
(0.000479494 -0.0312067 0.00526282)
(0.000304032 -0.0315292 0.00606702)
(0.0112267 -0.0183536 0.000309099)
(0.0060268 -0.0179376 0.000979884)
(0.00510021 -0.0228256 0.00162973)
(0.00348059 -0.0260464 0.00229265)
(0.00218352 -0.0283813 0.00294013)
(0.00116728 -0.0297934 0.00356776)
(0.000506171 -0.0304873 0.00418156)
(0.00028823 -0.0307733 0.004808)
(0.0109547 -0.0176943 0.0002383)
(0.0060216 -0.017411 0.000738454)
(0.00513401 -0.0222597 0.00121338)
(0.0035436 -0.0254878 0.00169174)
(0.00225016 -0.0278347 0.00215408)
(0.00122243 -0.029258 0.00260034)
(0.000537182 -0.0299489 0.00303734)
(0.000298328 -0.0302023 0.00348566)
(0.0107546 -0.0172383 0.000148514)
(0.0060011 -0.0170511 0.000454812)
(0.00514229 -0.0218761 0.000743548)
(0.00357654 -0.0251129 0.00103325)
(0.00229034 -0.0274703 0.00131197)
(0.00125918 -0.0289013 0.00158033)
(0.000561766 -0.0295894 0.00184327)
(0.000313472 -0.0298202 0.00211289)
(0.0106498 -0.0170069 5.02899e-05)
(0.00598599 -0.0168691 0.000153202)
(0.00514215 -0.0216825 0.000249991)
(0.00359005 -0.0249243 0.000347037)
(0.00230875 -0.0272874 0.000440273)
(0.00127717 -0.0287224 0.000529974)
(0.000575289 -0.0294094 0.000617907)
(0.000323185 -0.029629 0.000707863)
(0.0364929 0.00126791 -0.000789674)
(0.0359853 0.00100674 -0.000180859)
(0.0354633 0.00122322 -5.10767e-05)
(0.0349278 0.00134213 8.97317e-05)
(0.0344299 0.00144454 0.000132369)
(0.0340234 0.00150894 0.00012472)
(0.0337374 0.00154691 8.46568e-05)
(0.0335887 0.00156107 2.96614e-05)
(0.0328848 0.00119721 -0.000511972)
(0.0323046 0.0010478 -0.000351505)
(0.0317065 0.00113232 -0.000372146)
(0.0311096 0.00123221 -0.000315848)
(0.0305458 0.00132674 -0.000249098)
(0.0300841 0.00139746 -0.000176987)
(0.0297615 0.00144389 -0.000105277)
(0.0295977 0.00146745 -3.47575e-05)
(0.0322461 -0.000590221 -0.000349062)
(0.031593 -0.000316121 -0.000738497)
(0.0308413 -0.000212608 -0.000876707)
(0.0301275 -0.000114506 -0.000863877)
(0.0294924 -3.03185e-05 -0.00073647)
(0.0289863 3.67897e-05 -0.000550986)
(0.0286377 8.32625e-05 -0.000337686)
(0.0284604 0.000107708 -0.000113384)
(0.0340868 -0.00113359 -0.000339511)
(0.0332201 -0.000691233 -0.00136243)
(0.0322594 -0.000646621 -0.00159227)
(0.0313892 -0.000576014 -0.00154585)
(0.0306595 -0.000514001 -0.00130663)
(0.0300994 -0.00045534 -0.000974697)
(0.0297212 -0.000411435 -0.00059723)
(0.0295298 -0.000388244 -0.000200772)
)
;
        traction        nonuniform List<vector> 
192
(
(21.813 -0.465257 -2.27667)
(21.9891 -0.457391 -3.8993)
(21.8188 -0.497817 -4.53429)
(21.7207 -0.348234 -4.78347)
(21.762 -0.0415074 -4.83058)
(21.9706 0.488562 -4.71665)
(22.2934 1.45379 -4.40272)
(21.6169 2.99852 -3.72759)
(24.0485 -0.666605 -1.53385)
(24.4866 -0.658198 -2.67404)
(24.8589 -0.682871 -3.11083)
(25.1251 -0.467889 -3.25875)
(25.2626 -0.0534676 -3.2484)
(25.2824 0.638952 -3.10977)
(24.9448 1.87116 -2.82425)
(22.3954 3.67781 -2.32875)
(25.2885 -0.711942 -1.02456)
(25.6034 -0.683993 -1.80053)
(25.9841 -0.697047 -2.06888)
(26.2693 -0.448258 -2.13192)
(26.3397 0.0322328 -2.09059)
(26.1707 0.825526 -1.96952)
(25.4189 2.20243 -1.76826)
(22.0052 4.08656 -1.46544)
(26.0919 -0.707366 -0.705392)
(26.291 -0.659104 -1.25515)
(26.6122 -0.659853 -1.43426)
(26.8335 -0.388189 -1.46036)
(26.8272 0.133151 -1.41535)
(26.5145 0.988693 -1.3205)
(25.5048 2.4491 -1.18353)
(21.5951 4.35876 -0.989672)
(26.6285 -0.69148 -0.483762)
(26.7549 -0.625104 -0.871814)
(27.0165 -0.612601 -0.995192)
(27.18 -0.324774 -1.00647)
(27.1069 0.22272 -0.968247)
(26.6918 1.11706 -0.898886)
(25.5148 2.63008 -0.807222)
(21.2762 4.55121 -0.679417)
(26.9829 -0.675853 -0.316266)
(27.0652 -0.595294 -0.57595)
(27.2828 -0.571168 -0.658018)
(27.4023 -0.271785 -0.663229)
(27.2799 0.292524 -0.635306)
(26.7952 1.2111 -0.5883)
(25.51 2.75801 -0.529184)
(21.0508 4.68492 -0.446831)
(27.1978 -0.664871 -0.178005)
(27.2594 -0.574684 -0.326742)
(27.4499 -0.541899 -0.37354)
(27.5407 -0.234866 -0.37577)
(27.3866 0.339728 -0.359026)
(26.8587 1.27308 -0.331765)
(25.5074 2.84079 -0.296829)
(20.9127 4.76806 -0.247968)
(27.2942 -0.658399 -0.0568497)
(27.3442 -0.563184 -0.104836)
(27.5196 -0.526104 -0.1198)
(27.5955 -0.215669 -0.12034)
(27.4265 0.363807 -0.11479)
(26.8792 1.3058 -0.105843)
(25.4855 2.88524 -0.0935928)
(20.8165 4.80276 -0.076326)
(3.01583 0.689129 10.0041)
(5.33322 1.03062 6.37553)
(6.35608 0.933825 3.32599)
(6.87918 0.739487 1.46382)
(7.18044 0.644541 0.598925)
(7.40616 0.719466 0.515151)
(7.72438 0.988689 1.09566)
(8.58659 1.33953 2.29446)
(1.97471 0.594458 9.37488)
(3.73544 1.00196 7.79622)
(4.3882 1.00982 5.96241)
(4.62138 0.765159 4.72027)
(4.71423 0.505678 4.12569)
(4.81596 0.345421 4.06062)
(5.11702 0.327625 4.39915)
(6.24874 0.354265 4.80943)
(1.54161 0.458612 9.13235)
(3.20176 0.809781 8.55)
(3.8568 0.901395 7.38169)
(4.05061 0.692968 6.49144)
(4.08249 0.406588 6.06617)
(4.12906 0.166498 6.02863)
(4.39762 0.0198153 6.30608)
(5.53247 -0.0725127 6.65531)
(1.44689 0.459496 8.69344)
(3.23146 0.753773 8.40469)
(4.00835 0.851526 7.37879)
(4.24632 0.639887 6.59511)
(4.2783 0.344143 6.23104)
(4.30844 0.077319 6.16634)
(4.55407 -0.156536 6.28841)
(5.63304 -0.43593 6.55981)
(-7.24592 0.581738 0.136984)
(-5.81389 0.919067 0.503066)
(-4.59545 0.975995 0.551743)
(-4.07059 0.765269 0.495393)
(-3.95844 0.530162 0.494805)
(-3.81366 0.369149 0.627282)
(-2.97983 0.148038 0.959524)
(0.474192 -1.13881 1.52808)
(-9.28244 0.358933 -0.368443)
(-9.18888 0.582085 -0.380075)
(-8.94741 0.705786 -0.438314)
(-8.89464 0.670785 -0.506595)
(-8.96145 0.636503 -0.491244)
(-8.81751 0.689487 -0.350349)
(-7.64329 0.704816 -0.0677906)
(-3.34394 -0.471915 0.39011)
(-10.6019 0.251849 -0.389441)
(-10.821 0.385633 -0.416564)
(-10.9158 0.534262 -0.405241)
(-11.0421 0.614345 -0.399363)
(-11.0915 0.723959 -0.342121)
(-10.7118 0.914887 -0.204325)
(-9.23573 1.04781 0.00310076)
(-4.83708 0.00983701 0.270503)
(-11.5637 0.210775 -0.309209)
(-11.8663 0.299182 -0.31333)
(-12.0892 0.460991 -0.261198)
(-12.267 0.613438 -0.216185)
(-12.2528 0.82085 -0.145451)
(-11.7029 1.10822 -0.0319401)
(-9.96889 1.31013 0.113924)
(-5.41298 0.334984 0.281558)
(-12.2487 0.197364 -0.217442)
(-12.5663 0.270158 -0.204462)
(-12.827 0.444693 -0.141674)
(-12.9997 0.643496 -0.0866953)
(-12.9204 0.911602 -0.021872)
(-12.2513 1.25633 0.0608743)
(-10.3555 1.49685 0.152183)
(-5.69995 0.55223 0.252368)
(-12.7075 0.194957 -0.138019)
(-13.019 0.266843 -0.118945)
(-13.2796 0.452885 -0.064186)
(-13.434 0.679643 -0.0168124)
(-13.3011 0.982687 0.0320259)
(-12.549 1.35834 0.0863297)
(-10.5607 1.61859 0.139351)
(-5.85297 0.690439 0.195171)
(-12.9871 0.195573 -0.0751206)
(-13.2908 0.271019 -0.0600636)
(-13.5448 0.465922 -0.0244263)
(-13.6804 0.708469 0.00626332)
(-13.5108 1.02991 0.0358159)
(-12.7073 1.42143 0.0663578)
(-10.6672 1.69072 0.0942995)
(-5.93089 0.77073 0.120394)
(-13.1178 0.196034 -0.0237328)
(-13.4176 0.274073 -0.0182535)
(-13.6675 0.473684 -0.00615455)
(-13.7927 0.723517 0.004251)
(-13.6056 1.05327 0.0140113)
(-12.7781 1.45196 0.0239443)
(-10.7079 1.72286 0.0328423)
(-5.96897 0.805471 0.0396722)
(8.75752 -2.23578 -1.56064)
(8.05275 -0.473944 -1.17652)
(7.9289 0.970734 -0.81716)
(7.95733 2.12704 -0.569091)
(8.02234 3.00551 -0.397178)
(8.08711 3.6379 -0.268477)
(8.13708 4.03819 -0.165404)
(8.16026 4.17522 -0.0593539)
(6.2373 -4.4784 -0.231349)
(5.04661 -3.65206 -0.123811)
(4.71226 -2.64652 0.00427692)
(4.6084 -1.80832 0.0537197)
(4.57805 -1.16507 0.059367)
(4.57435 -0.698728 0.0475802)
(4.58267 -0.388516 0.0297477)
(4.59717 -0.214405 0.0101261)
(5.3938 -6.16074 0.382013)
(4.11189 -5.50421 0.371964)
(3.69018 -4.73446 0.369717)
(3.51955 -4.09735 0.323651)
(3.43764 -3.6205 0.255426)
(3.39495 -3.27617 0.182583)
(3.37294 -3.04954 0.111334)
(3.36224 -2.92646 0.0382273)
(5.41371 -6.09681 0.813731)
(4.16184 -5.63718 0.615746)
(3.72294 -5.23674 0.504323)
(3.53029 -4.86016 0.414564)
(3.42817 -4.55834 0.321413)
(3.36884 -4.3358 0.227819)
(3.3341 -4.18983 0.135529)
(3.31286 -4.12512 0.0448259)
)
;
        pressure        uniform 0;
        value           nonuniform List<vector> 
192
(
(0.000387557 0.000403624 0.000154472)
(0.000842692 0.000710363 4.61532e-05)
(0.00151244 0.00101447 -6.60242e-05)
(0.00224862 0.00123714 -0.000186424)
(0.00305281 0.00139942 -0.000294208)
(0.00389165 0.00150879 -0.000385824)
(0.00474948 0.00158129 -0.000458563)
(0.00561616 0.00163845 -0.000513219)
(0.000395251 0.000402836 6.17872e-05)
(0.000847655 0.000698311 1.96977e-06)
(0.00146568 0.00100708 -7.94136e-05)
(0.00216432 0.00123395 -0.000170396)
(0.00292856 0.00139826 -0.000255959)
(0.0037322 0.00150909 -0.000331082)
(0.00455831 0.00158175 -0.000392561)
(0.00539851 0.00164009 -0.000437711)
(0.000394987 0.00040062 1.39882e-05)
(0.000831806 0.000677712 -3.1168e-05)
(0.0014215 0.000981379 -9.16869e-05)
(0.00208876 0.00120987 -0.000159574)
(0.00282212 0.00137761 -0.000225798)
(0.00359696 0.00149298 -0.000285473)
(0.00439709 0.00157041 -0.000335352)
(0.00521442 0.00163498 -0.000371376)
(0.000389261 0.000394137 -7.13589e-06)
(0.000810743 0.000658468 -4.4478e-05)
(0.00137847 0.000956222 -9.11316e-05)
(0.00202163 0.00118428 -0.00014227)
(0.00273108 0.00135467 -0.000192803)
(0.00348324 0.00147412 -0.000239288)
(0.00426249 0.0015561 -0.000278918)
(0.00506123 0.00162574 -0.000307441)
(0.000381998 0.000386527 -1.40791e-05)
(0.000789887 0.000642388 -4.4349e-05)
(0.00133981 0.000935482 -7.98418e-05)
(0.00196429 0.00116286 -0.000117805)
(0.00265527 0.00133505 -0.000155453)
(0.00338982 0.00145752 -0.000190562)
(0.00415254 0.00154281 -0.000220978)
(0.00493576 0.00161585 -0.000242834)
(0.000375494 0.000379777 -1.35731e-05)
(0.000772595 0.000630076 -3.6004e-05)
(0.00130886 0.000919905 -6.12014e-05)
(0.00191932 0.0011468 -8.76816e-05)
(0.00259659 0.00132019 -0.000113967)
(0.00331802 0.00144468 -0.000138695)
(0.00406825 0.00153211 -0.000160344)
(0.00483946 0.00160722 -0.00017586)
(0.000370796 0.000374896 -9.28989e-06)
(0.000760493 0.000621774 -2.30821e-05)
(0.00128748 0.000909547 -3.81919e-05)
(0.00188853 0.00113616 -5.39067e-05)
(0.00255662 0.00131031 -6.95137e-05)
(0.00326927 0.00143602 -8.42746e-05)
(0.00401105 0.00152469 -9.7274e-05)
(0.00477403 0.00160097 -0.000106572)
(0.000368354 0.000372364 -3.26266e-06)
(0.000754291 0.000617603 -7.91433e-06)
(0.00127658 0.00090438 -1.29532e-05)
(0.0018729 0.00113087 -1.81697e-05)
(0.00253637 0.00130538 -2.33521e-05)
(0.0032446 0.00143166 -2.82665e-05)
(0.00398208 0.00152089 -3.26055e-05)
(0.00474086 0.00159762 -3.57048e-05)
(0.000193811 0.000171886 0.000259965)
(0.000763086 0.00037694 7.90015e-05)
(0.00145171 0.000623009 -1.54558e-07)
(0.00223016 0.000807188 -0.000109534)
(0.00306966 0.000948246 -0.000202425)
(0.00393879 0.00104887 -0.000281597)
(0.00481681 0.00111763 -0.000342672)
(0.00569965 0.00116756 -0.000395377)
(7.89312e-05 4.57958e-05 7.28533e-05)
(0.000593961 9.50523e-05 3.36498e-05)
(0.00127973 0.000187296 -1.62288e-05)
(0.00206989 0.000257749 -6.46423e-05)
(0.00292154 0.000311313 -0.000105826)
(0.00380239 0.000347853 -0.000140499)
(0.00468935 0.000369572 -0.000170916)
(0.00556832 0.000385656 -0.000203551)
(6.28586e-05 -6.20782e-05 -7.02316e-05)
(0.000556239 -0.000109739 -6.7518e-05)
(0.001231 -0.000180594 -6.18255e-05)
(0.00201673 -0.000232659 -5.05307e-05)
(0.00286651 -0.000274346 -3.74762e-05)
(0.00374788 -0.000306897 -2.4999e-05)
(0.0046361 -0.000333152 -1.66218e-05)
(0.00551058 -0.000354252 -1.26787e-05)
(0.000138543 -0.000191869 -0.000252163)
(0.000643595 -0.000385709 -0.000138564)
(0.00130113 -0.000611836 -0.000102235)
(0.00206425 -0.000780299 -3.14799e-05)
(0.00289623 -0.000908859 3.39518e-05)
(0.0037649 -0.00100114 9.38436e-05)
(0.00464646 -0.00106692 0.000140936)
(0.0055218 -0.00111908 0.000170639)
(0.000301058 -0.000367631 -0.000163329)
(0.000711268 -0.000683443 -0.000119469)
(0.0013433 -0.000981651 -5.54684e-05)
(0.00206135 -0.00119548 2.68585e-05)
(0.00285529 -0.00134894 0.00010811)
(0.00369103 -0.00145045 0.000182734)
(0.00454771 -0.00151366 0.000244006)
(0.00540753 -0.00155137 0.000281324)
(0.000296485 -0.00036314 -7.17817e-05)
(0.000709716 -0.000664129 -5.31363e-05)
(0.00129386 -0.000958703 -8.29599e-06)
(0.00197455 -0.0011709 5.18077e-05)
(0.00272865 -0.00132067 0.000114221)
(0.00352846 -0.00141747 0.000172322)
(0.00435339 -0.0014742 0.000219094)
(0.00518907 -0.00150587 0.000244367)
(0.000286994 -0.000354986 -2.36498e-05)
(0.00068399 -0.000637976 -8.67672e-06)
(0.00124087 -0.000920873 2.47014e-05)
(0.00189103 -0.0011271 6.8254e-05)
(0.00261477 -0.00127245 0.000114745)
(0.0033862 -0.0013658 0.000158301)
(0.00418535 -0.00141904 0.000192653)
(0.00499644 -0.00144648 0.000207462)
(0.000274268 -0.000342548 -6.3696e-07)
(0.000653937 -0.000612313 1.37719e-05)
(0.00118861 -0.000884174 4.01201e-05)
(0.00181535 -0.00108321 7.25138e-05)
(0.00251583 -0.00122372 0.000106865)
(0.00326518 -0.00131351 0.000138946)
(0.00404352 -0.00136354 0.000163501)
(0.0048342 -0.00138754 0.000171404)
(0.000262014 -0.000329956 8.44648e-06)
(0.000626405 -0.00059006 2.16563e-05)
(0.0011429 -0.0008529 4.21997e-05)
(0.00175139 -0.00104568 6.61404e-05)
(0.00243402 -0.00118172 9.11198e-05)
(0.00316628 -0.00126816 0.000114187)
(0.00392816 -0.00131527 0.000131301)
(0.00470218 -0.00133631 0.000135202)
(0.000252082 -0.000319464 9.89225e-06)
(0.000604506 -0.000572635 2.05389e-05)
(0.00110706 -0.000828674 3.54118e-05)
(0.00170187 -0.00101667 5.20896e-05)
(0.00237124 -0.00114917 6.92281e-05)
(0.0030908 -0.00123288 8.48654e-05)
(0.00384029 -0.00127761 9.6161e-05)
(0.00460163 -0.00129627 9.79196e-05)
(0.000245233 -0.000312117 7.25036e-06)
(0.000589524 -0.000560751 1.41426e-05)
(0.00108266 -0.000812233 2.31782e-05)
(0.00166827 -0.000997022 3.30714e-05)
(0.00232877 -0.00112711 4.31316e-05)
(0.00303984 -0.00120894 5.22293e-05)
(0.003781 -0.00125202 5.86833e-05)
(0.00453379 -0.00126905 5.93798e-05)
(0.000241762 -0.000308363 2.61525e-06)
(0.000581952 -0.000554744 4.99741e-06)
(0.00107034 -0.000803938 8.02997e-06)
(0.00165132 -0.000987119 1.13133e-05)
(0.00230736 -0.001116 1.46347e-05)
(0.00301416 -0.00119687 1.7625e-05)
(0.00375114 -0.00123912 1.9728e-05)
(0.00449959 -0.00125533 1.9905e-05)
(0.00601025 0.00120041 -0.000384994)
(0.00578296 0.00120496 -0.00033306)
(0.00559455 0.00121003 -0.000283741)
(0.00543436 0.00120941 -0.000233977)
(0.00530195 0.00120709 -0.000183916)
(0.00519973 0.00120434 -0.000132689)
(0.0051301 0.00120212 -8.02252e-05)
(0.00509478 0.0012008 -2.68514e-05)
(0.00586432 0.000413204 -0.000192488)
(0.00564463 0.000424297 -0.000169917)
(0.0054548 0.000438382 -0.000149163)
(0.00529177 0.000451812 -0.000125358)
(0.00515669 0.000463108 -9.94459e-05)
(0.00505237 0.000471698 -7.20078e-05)
(0.00498138 0.000477451 -4.35741e-05)
(0.00494546 0.000480348 -1.45819e-05)
(0.00580427 -0.000356126 -1.93892e-05)
(0.00558597 -0.000330491 -2.76416e-05)
(0.00539168 -0.000301399 -3.07383e-05)
(0.00522424 -0.000271888 -2.9149e-05)
(0.0050861 -0.00024575 -2.43573e-05)