/*--------------------------------*- C++ -*----------------------------------*\
| =========                 |                                                 |
| \\      /  F ield         | foam-extend: Open Source CFD                    |
|  \\    /   O peration     | Version:     3.1                                |
|   \\  /    A nd           | Web:         http://www.extend-project.de       |
|    \\/     M anipulation  |                                                 |
\*---------------------------------------------------------------------------*/
FoamFile
{
    version     2.0;
    format      ascii;
    class       volVectorField;
    location    "1.8";
    object      D_0;
}
// * * * * * * * * * * * * * * * * * * * * * * * * * * * * * * * * * * * * * //

dimensions      [0 1 0 0 0 0 0];

internalField   nonuniform List<vector> 
256
(
(0.000206039 0.000113543 0.00017681)
(0.000107546 1.96845e-05 5.72786e-05)
(9.37807e-05 -3.05825e-05 -5.25994e-05)
(0.000160179 -0.000118747 -0.000175091)
(0.000803055 0.000468552 8.09219e-05)
(0.000667506 0.000128654 3.68522e-05)
(0.000634018 -0.000127409 -6.57033e-05)
(0.000698462 -0.000454973 -0.000133583)
(0.00151092 0.00072484 -1.11412e-05)
(0.00137157 0.000225246 -1.22866e-05)
(0.00132851 -0.000202178 -5.71944e-05)
(0.00138001 -0.000695433 -8.32584e-05)
(0.00232424 0.000929372 -0.000112189)
(0.00219578 0.000302521 -5.76828e-05)
(0.00214804 -0.000261794 -4.59562e-05)
(0.00217903 -0.000885885 -1.77651e-05)
(0.00320794 0.00107706 -0.000203812)
(0.00309047 0.000358219 -9.80409e-05)
(0.00304066 -0.000306924 -3.2304e-05)
(0.00305532 -0.00102396 4.74672e-05)
(0.00413085 0.00117947 -0.000281822)
(0.00402386 0.000395427 -0.000132309)
(0.00397379 -0.000341125 -1.95773e-05)
(0.00397639 -0.00112105 0.000106624)
(0.00507017 0.00124698 -0.000343883)
(0.00496998 0.00041733 -0.000162818)
(0.00491996 -0.000367235 -1.11495e-05)
(0.00491671 -0.00118666 0.000153522)
(0.0060195 0.00128808 -0.000392836)
(0.0059115 0.000429568 -0.000192345)
(0.00585689 -0.00038679 -1.01178e-05)
(0.00585707 -0.00123003 0.00017898)
(0.000210634 0.000114263 7.3317e-05)
(0.000109812 2.25165e-05 2.61572e-05)
(9.51845e-05 -2.89121e-05 -2.70223e-05)
(0.000158808 -0.000113975 -7.90734e-05)
(0.000794098 0.000471869 2.26157e-05)
(0.000645403 0.000136474 9.13889e-06)
(0.00061169 -0.000121563 -3.86007e-05)
(0.000686349 -0.000445392 -6.72834e-05)
(0.00145977 0.000740118 -4.46946e-05)
(0.00132349 0.000239579 -2.57019e-05)
(0.00128117 -0.0001971 -3.70044e-05)
(0.00132857 -0.000691737 -3.39391e-05)
(0.00223066 0.000947043 -0.00012118)
(0.00210668 0.000319122 -6.12971e-05)
(0.00206013 -0.000254398 -3.06492e-05)
(0.00208583 -0.00087965 1.26004e-05)
(0.00307208 0.0010956 -0.000193919)
(0.00296078 0.000376108 -9.39863e-05)
(0.00291225 -0.000296609 -2.18152e-05)
(0.00292003 -0.0010136 6.18761e-05)
(0.00395662 0.00119677 -0.000257448)
(0.00385641 0.000413547 -0.000122618)
(0.00380761 -0.000326828 -1.35166e-05)
(0.00380261 -0.00110416 0.000107104)
(0.00486219 0.00126117 -0.000308837)
(0.00477017 0.000434514 -0.000148125)
(0.00472173 -0.000347902 -9.48596e-06)
(0.00470968 -0.00116085 0.000141494)
(0.00578425 0.00129758 -0.00034666)
(0.00568497 0.000444481 -0.00017119)
(0.00563235 -0.000361928 -1.44205e-05)
(0.00562403 -0.00119402 0.000154134)
(0.000208856 0.000114922 2.24575e-05)
(0.000101226 2.41854e-05 8.44264e-06)
(8.43863e-05 -2.87096e-05 -1.24928e-05)
(0.000149838 -0.000113236 -2.93642e-05)
(0.000773575 0.000461635 -1.31216e-05)
(0.000612765 0.000137259 -7.55044e-06)
(0.000575605 -0.000114366 -2.05442e-05)
(0.000655451 -0.000428208 -2.34996e-05)
(0.00141016 0.000729381 -6.32235e-05)
(0.00126457 0.000242977 -3.33145e-05)
(0.00121881 -0.000185563 -2.14505e-05)
(0.00126905 -0.000667002 2.3812e-07)
(0.00214866 0.000937727 -0.000120334)
(0.00201791 0.000325228 -6.06081e-05)
(0.00196814 -0.000238614 -1.82926e-05)
(0.00199448 -0.000848634 3.32962e-05)
(0.00295801 0.00108934 -0.000176296)
(0.00284153 0.000385076 -8.63958e-05)
(0.00278996 -0.000276911 -1.30927e-05)
(0.00279709 -0.000977738 6.92276e-05)
(0.00381234 0.00119393 -0.000226508)
(0.00370834 0.000425136 -0.000109683)
(0.00365679 -0.00030331 -8.39834e-06)
(0.00365002 -0.00106369 0.00010236)
(0.00469064 0.00126168 -0.000267834)
(0.00459649 0.000448148 -0.000130748)
(0.00454567 -0.000320619 -7.82046e-06)
(0.00453057 -0.00111563 0.000126143)
(0.00559006 0.0013014 -0.000296914)
(0.00549016 0.000459649 -0.000149506)
(0.00543481 -0.000331066 -1.64572e-05)
(0.00542098 -0.001144 0.000129295)
(0.000203495 0.000114117 -8.06171e-07)
(9.22725e-05 2.4683e-05 -6.1424e-08)
(7.37258e-05 -2.81735e-05 -4.55253e-06)
(0.000139327 -0.000111069 -4.99487e-06)
(0.000748092 0.000450834 -2.93417e-05)
(0.000580487 0.000136538 -1.44473e-05)
(0.000540195 -0.000107571 -9.58374e-06)
(0.000621257 -0.000410937 5.76384e-07)
(0.00136055 0.000714866 -6.76384e-05)
(0.00120804 0.0002434 -3.39359e-05)
(0.00115897 -0.000173311 -1.09538e-05)
(0.00121065 -0.000639755 1.8691e-05)
(0.00207351 0.000923316 -0.000110363)
(0.00193678 0.000327995 -5.46437e-05)
(0.00188387 -0.000221528 -9.45999e-06)
(0.00191108 -0.000814072 4.26274e-05)
(0.00285783 0.00107742 -0.000152843)
(0.00273636 0.000390824 -7.46187e-05)
(0.0026819 -0.000255569 -6.56265e-06)
(0.00268929 -0.000937816 6.86178e-05)
(0.00368852 0.00118558 -0.000191779)
(0.00358058 0.000434002 -9.31669e-05)
(0.00352644 -0.000278213 -4.3086e-06)
(0.00351929 -0.00101951 9.23728e-05)
(0.00454516 0.00125716 -0.000224401)
(0.0044482 0.000459837 -0.000110324)
(0.00439501 -0.000292222 -5.80169e-06)
(0.00437865 -0.00106776 0.000108274)
(0.00542585 0.00130042 -0.000246768)
(0.00532373 0.000473844 -0.000125629)
(0.00526536 -0.000299793 -1.55739e-05)
(0.00524864 -0.00109283 0.000106295)
(0.000197805 0.000112641 -9.44096e-06)
(8.50046e-05 2.47935e-05 -3.28262e-06)
(6.53094e-05 -2.75221e-05 -5.93528e-07)
(0.000130079 -0.000108397 5.27866e-06)
(0.000724046 0.000441729 -3.23854e-05)
(0.000552926 0.000135827 -1.52397e-05)
(0.000510368 -0.000101752 -3.4113e-06)
(0.000590893 -0.000395938 1.11142e-05)
(0.00131649 0.00070233 -6.12711e-05)
(0.00115967 0.000243435 -2.97618e-05)
(0.00110819 -0.000162489 -4.54439e-06)
(0.00116011 -0.000615922 2.50265e-05)
(0.0020091 0.000910419 -9.26979e-05)
(0.00186818 0.000329912 -4.50789e-05)
(0.00181302 -0.000206247 -3.85185e-06)
(0.00184065 -0.000783527 4.23018e-05)
(0.00277384 0.00106627 -0.000124137)
(0.00264864 0.00039528 -6.00648e-05)
(0.00259215 -0.00023639 -2.32168e-06)
(0.0025999 -0.000902277 6.07926e-05)
(0.00358611 0.00117723 -0.000153387)
(0.00347507 0.000441178 -7.43009e-05)
(0.00341914 -0.000255687 -1.51066e-06)
(0.00341211 -0.000980115 7.73973e-05)
(0.0044256 0.00125179 -0.000178239)
(0.00432627 0.000469498 -8.77233e-05)
(0.00427143 -0.000266879 -3.85443e-06)
(0.00425466 -0.0010252 8.77107e-05)
(0.00529066 0.00129769 -0.000194931)
(0.00518658 0.000485679 -9.97042e-05)
(0.00512606 -0.000272061 -1.29212e-05)
(0.00510785 -0.0010476 8.36925e-05)
(0.000193105 0.000111189 -1.04074e-05)
(7.97339e-05 2.47807e-05 -3.67541e-06)
(5.9288e-05 -2.69156e-05 9.48805e-07)
(0.000122984 -0.000105972 7.75747e-06)
(0.000704635 0.00043485 -2.74358e-05)
(0.000531828 0.00013538 -1.2584e-05)
(0.000487757 -9.71986e-05 -4.32696e-07)
(0.000567209 -0.000384209 1.2995e-05)
(0.00128156 0.000692932 -4.78274e-05)
(0.00112226 0.000243589 -2.27249e-05)
(0.00106918 -0.000153956 -1.18017e-06)
(0.00112084 -0.000597349 2.30296e-05)
(0.00195869 0.000900678 -6.95766e-05)
(0.00181513 0.000331506 -3.33394e-05)
(0.00175849 -0.000194143 -8.65988e-07)
(0.00178626 -0.000759659 3.48597e-05)
(0.0027087 0.00105771 -9.13909e-05)
(0.00258102 0.000398809 -4.38255e-05)
(0.00252324 -0.000221168 -1.13309e-07)
(0.00253128 -0.0008744 4.73121e-05)
(0.00350716 0.0011706 -0.000111888)
(0.00339397 0.000446764 -5.39529e-05)
(0.00333695 -0.000237811 -1.09806e-08)
(0.00333014 -0.000949124 5.82883e-05)
(0.00433364 0.00124719 -0.000129469)
(0.00423261 0.000476942 -6.36292e-05)
(0.00417676 -0.000246811 -2.28344e-06)
(0.00415996 -0.000991672 6.46598e-05)
(0.00518646 0.00129478 -0.000141109)
(0.0050809 0.000494727 -7.22568e-05)
(0.00501906 -0.000250156 -9.44251e-06)
(0.00500021 -0.00101197 6.06464e-05)
(0.000189868 0.000110089 -7.45137e-06)
(7.63561e-05 2.47419e-05 -2.63602e-06)
(5.54514e-05 -2.64596e-05 1.06586e-06)
(0.000118251 -0.000104193 6.02185e-06)
(0.000691277 0.000430265 -1.7957e-05)
(0.00051773 0.000135146 -8.11176e-06)
(0.000472735 -9.4082e-05 5.00045e-07)
(0.000551204 -0.000376213 9.64212e-06)
(0.00125763 0.000686747 -3.01482e-05)
(0.001097 0.000243802 -1.41276e-05)
(0.00104295 -0.000148109 9.81184e-08)
(0.00109425 -0.000584733 1.57438e-05)
(0.00192428 0.000894278 -4.29874e-05)
(0.0017792 0.000332704 -2.03926e-05)
(0.00172168 -0.000185842 2.30885e-07)
(0.00174944 -0.000743445 2.26886e-05)
(0.00266437 0.00105205 -5.58808e-05)
(0.00253518 0.000401301 -2.66203e-05)
(0.00247665 -0.000210727 5.58441e-07)
(0.00248486 -0.000855435 2.99031e-05)
(0.00345352 0.00116613 -6.80684e-05)
(0.003339 0.000450611 -3.26981e-05)
(0.00328136 -0.000225556 4.38522e-07)
(0.00327476 -0.000928005 3.61719e-05)
(0.00427117 0.00124393 -7.85815e-05)
(0.00416906 0.000481997 -3.85507e-05)
(0.00411267 -0.000233069 -1.15101e-06)
(0.00409596 -0.000968801 3.96318e-05)
(0.00511556 0.00129251 -8.54768e-05)
(0.00500904 0.000500816 -4.3757e-05)
(0.00494647 -0.000235173 -5.68941e-06)
(0.0049274 -0.000987632 3.68196e-05)
(0.000188228 0.000109505 -2.66137e-06)
(7.47122e-05 2.47154e-05 -9.41117e-07)
(5.35898e-05 -2.62172e-05 4.33204e-07)
(0.000115894 -0.000103262 2.21459e-06)
(0.000684504 0.000427976 -6.21259e-06)
(0.000510696 0.00013505 -2.78614e-06)
(0.000465263 -9.2501e-05 2.894e-07)
(0.00054317 -0.000372171 3.50457e-06)
(0.0012455 0.000683684 -1.02733e-05)
(0.00108431 0.000243947 -4.78196e-06)
(0.0010298 -0.000145143 1.65028e-07)
(0.00108087 -0.000578367 5.55539e-06)
(0.00190685 0.000891115 -1.45243e-05)
(0.00176109 0.00033335 -6.85555e-06)
(0.00170316 -0.000181633 2.014e-07)
(0.00173089 -0.000735267 7.84919e-06)
(0.00264193 0.00104925 -1.87956e-05)
(0.00251206 0.000402594 -8.92315e-06)
(0.00245318 -0.000205434 2.91009e-07)
(0.00246147 -0.000845867 1.02154e-05)
(0.00342638 0.00116388 -2.28446e-05)
(0.00331125 0.000452575 -1.09511e-05)
(0.00325333 -0.000219348 2.2187e-07)
(0.00324684 -0.000917346 1.22559e-05)
(0.00423955 0.00124223 -2.63469e-05)
(0.00413694 0.000484553 -1.29107e-05)
(0.00408032 -0.000226111 -3.44055e-07)
(0.00406369 -0.000957253 1.33526e-05)
(0.00507962 0.00129123 -2.86334e-05)
(0.00497267 0.000503885 -1.46507e-05)
(0.00490977 -0.000227584 -1.89426e-06)
(0.00489065 -0.000975341 1.2353e-05)
)
;

boundaryField
{
    interface
    {
        type            tractionDisplacement;
        gradient        nonuniform List<vector> 
192
(
(0.0012504 8.90088e-08 -6.27537e-06)
(0.00125106 2.32615e-07 -7.48491e-06)
(0.0012496 5.25483e-07 -7.47543e-06)
(0.00124673 8.45864e-07 -7.27339e-06)
(0.00124237 1.23213e-06 -6.95727e-06)
(0.00123606 1.75972e-06 -6.48764e-06)
(0.00122701 2.65546e-06 -5.77696e-06)
(0.00121237 4.4017e-06 -4.57372e-06)
(0.00127836 1.58951e-07 -4.18175e-06)
(0.00127813 3.40733e-07 -4.98588e-06)
(0.00127606 6.81215e-07 -4.94782e-06)
(0.00127234 1.07974e-06 -4.77587e-06)
(0.0012667 1.57845e-06 -4.5173e-06)
(0.00125852 2.26978e-06 -4.14438e-06)
(0.00124668 3.43378e-06 -3.60938e-06)
(0.00122774 5.61186e-06 -2.83028e-06)
(0.0012969 2.0556e-07 -2.92788e-06)
(0.00129628 4.22773e-07 -3.50022e-06)
(0.00129375 8.10625e-07 -3.4639e-06)
(0.00128935 1.27314e-06 -3.32432e-06)
(0.00128271 1.85533e-06 -3.11929e-06)
(0.00127309 2.65704e-06 -2.83373e-06)
(0.00125927 3.97152e-06 -2.44508e-06)
(0.00123752 6.33252e-06 -1.9299e-06)
(0.00131022 2.36666e-07 -2.12187e-06)
(0.00130939 4.82114e-07 -2.53952e-06)
(0.00130652 9.12912e-07 -2.50899e-06)
(0.00130157 1.426e-06 -2.39958e-06)
(0.00129415 2.06871e-06 -2.2415e-06)
(0.00128345 2.94405e-06 -2.02736e-06)
(0.00126819 4.35007e-06 -1.74696e-06)
(0.00124452 6.81512e-06 -1.39307e-06)
(0.00131978 2.59652e-07 -1.51365e-06)
(0.00131882 5.26652e-07 -1.81147e-06)
(0.00131569 9.91037e-07 -1.78752e-06)
(0.00131032 1.54199e-06 -1.7059e-06)
(0.0013023 2.22756e-06 -1.58946e-06)
(0.00129082 3.15197e-06 -1.43486e-06)
(0.00127453 4.6157e-06 -1.23756e-06)
(0.00124954 7.14639e-06 -9.95544e-07)
(0.00132642 2.76131e-07 -1.01788e-06)
(0.00132536 5.58719e-07 -1.21811e-06)
(0.00132204 1.04754e-06 -1.20117e-06)
(0.00131638 1.62535e-06 -1.14496e-06)
(0.00130794 2.34023e-06 -1.06545e-06)
(0.0012959 3.29691e-06 -9.61283e-07)
(0.00127891 4.79762e-06 -8.30326e-07)
(0.00125304 7.37104e-06 -6.71486e-07)
(0.00133063 2.87035e-07 -5.86262e-07)
(0.00132951 5.79709e-07 -7.01327e-07)
(0.00132607 1.08477e-06 -6.91544e-07)
(0.00132021 1.68017e-06 -6.58841e-07)
(0.00131151 2.41383e-06 -6.12817e-07)
(0.00129912 3.39091e-06 -5.5309e-07)
(0.00128169 4.9157e-06 -4.77739e-07)
(0.00125526 7.51474e-06 -3.82182e-07)
(0.00133265 2.92824e-07 -1.90632e-07)
(0.00133149 5.90077e-07 -2.27698e-07)
(0.001328 1.10224e-06 -2.24725e-07)
(0.00132205 1.70638e-06 -2.14081e-07)
(0.00131322 2.44881e-06 -1.99112e-07)
(0.00130067 3.43614e-06 -1.79825e-07)
(0.00128303 4.97701e-06 -1.55001e-07)
(0.00125626 7.58408e-06 -1.20792e-07)
(1.09308e-05 7.23725e-08 0.00114973)
(1.30776e-05 1.27851e-07 0.00114889)
(1.31548e-05 1.98457e-07 0.00114824)
(1.29808e-05 2.92527e-07 0.0011473)
(1.2715e-05 4.04896e-07 0.00114595)
(1.23458e-05 5.36693e-07 0.00114413)
(1.18492e-05 6.86119e-07 0.00114175)
(1.13079e-05 8.03277e-07 0.00113874)
(1.00547e-05 2.11513e-08 0.0010997)
(1.20342e-05 3.77271e-08 0.00109949)
(1.21003e-05 5.67502e-08 0.0010993)
(1.19489e-05 8.24212e-08 0.00109902)
(1.17254e-05 1.12105e-07 0.00109863)
(1.14243e-05 1.44074e-07 0.00109811)
(1.10382e-05 1.71046e-07 0.00109746)
(1.0708e-05 1.6209e-07 0.00109671)
(1.00418e-05 -2.70428e-08 0.00105277)
(1.20188e-05 -4.56996e-08 0.00105298)
(1.20844e-05 -6.9588e-08 0.00105321)
(1.1933e-05 -1.00411e-07 0.00105354)
(1.171e-05 -1.3707e-07 0.001054)
(1.141e-05 -1.80176e-07 0.00105463)
(1.10258e-05 -2.2871e-07 0.00105544)
(1.06983e-05 -2.6355e-07 0.00105648)
(1.09054e-05 -8.04064e-08 0.00100291)
(1.30452e-05 -1.36982e-07 0.00100376)
(1.312e-05 -2.11694e-07 0.00100444)
(1.29457e-05 -3.09713e-07 0.00100544)
(1.26804e-05 -4.27843e-07 0.00100685)
(1.23126e-05 -5.69225e-07 0.00100876)
(1.18188e-05 -7.38586e-07 0.00101129)
(1.12818e-05 -8.99354e-07 0.00101456)
(-0.000903606 -9.63547e-08 6.85177e-06)
(-0.000902881 -2.51564e-07 8.12936e-06)
(-0.000904348 -5.72774e-07 8.11249e-06)
(-0.00090722 -9.20022e-07 7.89131e-06)
(-0.000911576 -1.33875e-06 7.54482e-06)
(-0.000917854 -1.91504e-06 7.02877e-06)
(-0.00092686 -2.91625e-06 6.2435e-06)
(-0.00094155 -4.95238e-06 4.89368e-06)
(-0.000876477 -1.72336e-07 4.42126e-06)
(-0.000876696 -3.68407e-07 5.23941e-06)
(-0.000878763 -7.40343e-07 5.19106e-06)
(-0.000882477 -1.17274e-06 5.00456e-06)
(-0.000888098 -1.71422e-06 4.72407e-06)
(-0.000896245 -2.4707e-06 4.31857e-06)
(-0.000908024 -3.77243e-06 3.7342e-06)
(-0.000927051 -6.30466e-06 2.87503e-06)
(-0.000858904 -2.23527e-07 3.02815e-06)
(-0.000859518 -4.57468e-07 3.59773e-06)
(-0.000862036 -8.80012e-07 3.55226e-06)
(-0.00086643 -1.38156e-06 3.40144e-06)
(-0.000873045 -2.0136e-06 3.18024e-06)
(-0.000882602 -2.89053e-06 2.87178e-06)
(-0.000896351 -4.35875e-06 2.45083e-06)
(-0.000918167 -7.09737e-06 1.88924e-06)
(-0.00084644 -2.57774e-07 2.16159e-06)
(-0.000847264 -5.21851e-07 2.57079e-06)
(-0.000850126 -9.90306e-07 2.53274e-06)
(-0.00085506 -1.54618e-06 2.41474e-06)
(-0.000862449 -2.24345e-06 2.24466e-06)
(-0.000873069 -3.20009e-06 2.01421e-06)
(-0.000888236 -4.76849e-06 1.71208e-06)
(-0.000911949 -7.62329e-06 1.32891e-06)
(-0.000837595 -2.83051e-07 1.52365e-06)
(-0.00083856 -5.70096e-07 1.81175e-06)
(-0.000841682 -1.07445e-06 1.78199e-06)
(-0.000847026 -1.67087e-06 1.69407e-06)
(-0.000854997 -2.41412e-06 1.56902e-06)
(-0.000866396 -3.42352e-06 1.40308e-06)
(-0.00088257 -5.05455e-06 1.19126e-06)
(-0.000907581 -7.98206e-06 9.30362e-07)
(-0.000831511 -3.01135e-07 1.01526e-06)
(-0.000832571 -6.04765e-07 1.20705e-06)
(-0.000835879 -1.13523e-06 1.18601e-06)
(-0.000841519 -1.76034e-06 1.1255e-06)
(-0.000849902 -2.53489e-06 1.04024e-06)
(-0.000861845 -3.57878e-06 9.28656e-07)
(-0.000878708 -5.24964e-06 7.88457e-07)
(-0.000904589 -8.22417e-06 6.17775e-07)
(-0.000827684 -3.13066e-07 5.81157e-07)
(-0.000828802 -6.27424e-07 6.90621e-07)
(-0.00083223 -1.17521e-06 6.7841e-07)
(-0.000838059 -1.81904e-06 6.43226e-07)
(-0.000846706 -2.61357e-06 5.93914e-07)
(-0.000858993 -3.67914e-06 5.30029e-07)
(-0.000876286 -5.37574e-06 4.49542e-07)
(-0.000902707 -8.37837e-06 3.46949e-07)
(-0.000825854 -3.19376e-07 1.88378e-07)
(-0.000827006 -6.38536e-07 2.23531e-07)
(-0.000830489 -1.19398e-06 2.19753e-07)
(-0.000836409 -1.8471e-06 2.083e-07)
(-0.000845182 -2.65092e-06 1.92268e-07)
(-0.000857629 -3.72725e-06 1.71653e-07)
(-0.000875121 -5.44102e-06 1.45178e-07)
(-0.000901879 -8.45211e-06 1.08378e-07)
(1.13077e-05 -0.00113956 -9.86196e-07)
(1.18661e-05 -0.00114323 -8.3836e-07)
(1.23873e-05 -0.00114616 -6.69958e-07)
(1.27835e-05 -0.00114847 -5.21832e-07)
(1.30767e-05 -0.00115024 -3.91006e-07)
(1.32868e-05 -0.00115152 -2.72808e-07)
(1.34306e-05 -0.00115236 -1.66012e-07)
(1.35055e-05 -0.00115283 -5.78898e-08)
(1.07333e-05 -0.00109747 -3.23353e-07)
(1.10861e-05 -0.00109878 -2.9851e-07)
(1.14951e-05 -0.00109989 -2.50886e-07)
(1.18192e-05 -0.0011008 -2.02547e-07)
(1.20647e-05 -0.00110151 -1.55909e-07)
(1.22434e-05 -0.00110204 -1.10734e-07)
(1.23687e-05 -0.0011024 -6.67961e-08)
(1.24387e-05 -0.00110257 -2.25708e-08)
(1.07338e-05 -0.00105712 1.29308e-07)
(1.10872e-05 -0.00105654 1.24779e-07)
(1.1494e-05 -0.00105609 9.54584e-08)
(1.18153e-05 -0.00105577 6.74789e-08)
(1.20582e-05 -0.00105555 4.5425e-08)
(1.22347e-05 -0.00105541 2.87838e-08)
(1.23586e-05 -0.00105532 1.65634e-08)
(1.24277e-05 -0.00105528 5.73912e-09)
(1.13263e-05 -0.00101504 7.95589e-07)
(1.18919e-05 -0.00101212 6.58727e-07)
(1.24086e-05 -0.00100987 5.05786e-07)
(1.27978e-05 -0.00100817 3.78169e-07)
(1.3084e-05 -0.00100692 2.73189e-07)
(1.32882e-05 -0.00100604 1.85436e-07)
(1.34278e-05 -0.00100548 1.12584e-07)
(1.35008e-05 -0.00100515 4.00141e-08)
)
;
        traction        nonuniform List<vector> 
192
(
(26.7942 0.00190733 -0.134472)
(26.8085 0.00498462 -0.160391)
(26.7772 0.0112604 -0.160188)
(26.7157 0.0181257 -0.155858)
(26.6222 0.0264028 -0.149084)
(26.487 0.0377082 -0.139021)
(26.293 0.0569026 -0.123792)
(25.9793 0.0943222 -0.0980083)
(27.3935 0.0034061 -0.0896089)
(27.3884 0.00730142 -0.10684)
(27.3441 0.0145975 -0.106025)
(27.2645 0.0231373 -0.10234)
(27.1437 0.033824 -0.0967993)
(26.9683 0.0486382 -0.0888082)
(26.7147 0.0735809 -0.077344)
(26.3087 0.120254 -0.0606489)
(27.7907 0.00440487 -0.0627403)
(27.7773 0.00905942 -0.0750048)
(27.7233 0.0173705 -0.0742265)
(27.6289 0.0272816 -0.0712353)
(27.4865 0.039757 -0.066842)
(27.2806 0.0569365 -0.0607228)
(26.9843 0.085104 -0.0523946)
(26.5182 0.135697 -0.0413549)
(28.0762 0.00507141 -0.0454687)
(28.0584 0.010331 -0.0544183)
(27.997 0.0195624 -0.0537641)
(27.8909 0.0305572 -0.0514196)
(27.7317 0.0443295 -0.0480322)
(27.5026 0.0630869 -0.0434433)
(27.1755 0.0932158 -0.0374349)
(26.6683 0.146038 -0.0298516)
(28.2811 0.00556398 -0.0324353)
(28.2603 0.0112854 -0.0388172)
(28.1933 0.0212365 -0.038304)
(28.0783 0.0330426 -0.0365551)
(27.9065 0.0477333 -0.0340599)
(27.6604 0.0675421 -0.0307469)
(27.3113 0.0989078 -0.0265191)
(26.7759 0.153137 -0.0213331)
(28.4234 0.00591708 -0.0218117)
(28.4006 0.0119725 -0.0261023)
(28.3295 0.0224473 -0.0257394)
(28.2081 0.034829 -0.0245348)
(28.0273 0.0501478 -0.0228311)
(27.7694 0.0706481 -0.0205989)
(27.4052 0.102806 -0.0177927)
(26.8508 0.157951 -0.014389)
(28.5135 0.00615074 -0.0125628)
(28.4894 0.0124223 -0.0150284)
(28.4158 0.023245 -0.0148188)
(28.2903 0.0360036 -0.014118)
(28.1037 0.0517248 -0.0131318)
(27.8383 0.0726623 -0.0118519)
(27.4647 0.105336 -0.0102373)
(26.8984 0.16103 -0.00818961)
(28.5567 0.00627479 -0.00408497)
(28.532 0.0126445 -0.00487923)
(28.4571 0.0236193 -0.00481554)
(28.3296 0.0365652 -0.00458744)
(28.1404 0.0524745 -0.00426669)
(27.8714 0.0736316 -0.00385339)
(27.4935 0.10665 -0.00332146)
(26.9199 0.162516 -0.00258841)
(0.234232 0.00155084 24.637)
(0.280235 0.00273965 24.6191)
(0.281888 0.00425265 24.6052)
(0.278159 0.00626843 24.5849)
(0.272465 0.00867633 24.5561)
(0.264553 0.0115006 24.5171)
(0.253912 0.0147025 24.4661)
(0.242312 0.0172131 24.4015)
(0.215458 0.000453242 23.565)
(0.257875 0.000808438 23.5605)
(0.259292 0.00121608 23.5564)
(0.256048 0.00176617 23.5504)
(0.251258 0.00240225 23.542)
(0.244806 0.00308729 23.5309)
(0.236532 0.00366528 23.517)
(0.229457 0.00347336 23.5009)
(0.215181 -0.00057949 22.5593)
(0.257546 -0.000979277 22.564)
(0.258951 -0.00149117 22.5688)
(0.255708 -0.00215167 22.5758)
(0.250929 -0.00293722 22.5858)
(0.244501 -0.00386092 22.5992)
(0.236268 -0.00490093 22.6167)
(0.22925 -0.00564749 22.6389)
(0.233687 -0.00172299 21.4909)
(0.279539 -0.00293532 21.5091)
(0.281144 -0.00453631 21.5238)
(0.277407 -0.00663671 21.5451)
(0.271722 -0.00916805 21.5754)
(0.263841 -0.0121977 21.6164)
(0.253261 -0.0158268 21.6704)
(0.241752 -0.0192719 21.7405)
(-19.363 -0.00206474 0.146824)
(-19.3475 -0.00539066 0.174201)
(-19.3789 -0.0122737 0.173839)
(-19.4404 -0.0197148 0.1691)
(-19.5338 -0.0286875 0.161675)
(-19.6683 -0.0410367 0.150616)
(-19.8613 -0.0624911 0.133789)
(-20.1761 -0.106122 0.104865)
(-18.7816 -0.00369291 0.0947413)
(-18.7863 -0.00789443 0.112273)
(-18.8306 -0.0158645 0.111237)
(-18.9102 -0.0251302 0.107241)
(-19.0307 -0.0367334 0.10123)
(-19.2052 -0.0529437 0.0925409)
(-19.4577 -0.0808377 0.0800185)
(-19.8654 -0.1351 0.0616077)
(-18.4051 -0.00478987 0.064889)
(-18.4182 -0.00980289 0.0770943)
(-18.4722 -0.0188574 0.0761199)
(-18.5664 -0.0296049 0.0728881)
(-18.7081 -0.0431486 0.0681481)
(-18.9129 -0.06194 0.0615382)
(-19.2075 -0.0934018 0.0525179)
(-19.675 -0.152086 0.0404836)
(-18.138 -0.00552373 0.0463197)
(-18.1556 -0.0111825 0.0550883)
(-18.217 -0.0212208 0.054273)
(-18.3227 -0.0331325 0.0517444)
(-18.481 -0.048074 0.0480998)
(-18.7086 -0.0685733 0.0431617)
(-19.0336 -0.102182 0.0366875)
(-19.5418 -0.163356 0.0284766)
(-17.9485 -0.00606538 0.0326497)
(-17.9691 -0.0122163 0.0388231)
(-18.036 -0.023024 0.0381856)
(-18.1506 -0.0358044 0.0363015)
(-18.3214 -0.0517312 0.0336219)
(-18.5656 -0.0733611 0.0300661)
(-18.9122 -0.108312 0.0255271)
(-19.4482 -0.171044 0.0199363)
(-17.8181 -0.00645288 0.0217555)
(-17.8408 -0.0129593 0.0258653)
(-17.9117 -0.0243264 0.0254145)
(-18.0325 -0.0377215 0.0241178)
(-18.2122 -0.0543192 0.0222908)
(-18.4681 -0.0766882 0.0198998)
(-18.8294 -0.112492 0.0168955)
(-19.3841 -0.176232 0.013238)
(-17.7361 -0.00670857 0.0124534)
(-17.7601 -0.0134448 0.014799)
(-17.8335 -0.0251831 0.0145374)
(-17.9584 -0.0389794 0.0137834)
(-18.1437 -0.0560052 0.0127267)
(-18.407 -0.0788387 0.0113578)
(-18.7775 -0.115194 0.00963305)
(-19.3437 -0.179537 0.00743463)
(-17.6969 -0.00684377 0.00403667)
(-17.7216 -0.0136829 0.00478996)
(-17.7962 -0.0255853 0.00470898)
(-17.9231 -0.0395806 0.00446357)
(-18.111 -0.0568055 0.00412003)
(-18.3778 -0.0798697 0.00367828)
(-18.7526 -0.116593 0.00311095)
(-19.326 -0.181117 0.00232238)
(0.242309 -24.4191 -0.0211328)
(0.254273 -24.4977 -0.0179648)
(0.265441 -24.5605 -0.0143563)
(0.273931 -24.61 -0.0111821)
(0.280215 -24.6479 -0.00837869)
(0.284717 -24.6755 -0.00584588)
(0.287799 -24.6935 -0.0035574)
(0.289404 -24.7035 -0.0012405)
(0.229999 -23.5171 -0.006929)
(0.237559 -23.5453 -0.00639663)
(0.246324 -23.5691 -0.00537612)
(0.253268 -23.5885 -0.00434029)
(0.25853 -23.6038 -0.00334091)
(0.262358 -23.6152 -0.00237288)
(0.265043 -23.6228 -0.00143135)
(0.266544 -23.6265 -0.00048366)
(0.23001 -22.6525 0.00277088)
(0.237582 -22.6402 0.00267384)
(0.2463 -22.6305 0.00204554)
(0.253185 -22.6237 0.00144598)
(0.25839 -22.6189 0.000973392)
(0.262173 -22.6158 0.000616796)
(0.264827 -22.614 0.00035493)
(0.266308 -22.6131 0.000122981)
(0.242706 -21.7508 0.0170483)
(0.254825 -21.6882 0.0141156)
(0.265899 -21.64 0.0108383)
(0.274239 -21.6037 0.00810362)
(0.280372 -21.5769 0.00585405)
(0.284748 -21.558 0.00397363)
(0.287739 -21.5459 0.00241252)
(0.289303 -21.5389 0.000857445)
)
;
        pressure        uniform 0;
        value           nonuniform List<vector> 
192
(
(0.000416057 0.000432985 0.000167507)
(0.000903384 0.000766877 5.56595e-05)
(0.00162477 0.00109852 -6.17791e-05)
(0.00242105 0.00134267 -0.000189381)
(0.00329383 0.00152119 -0.000304507)
(0.00420658 0.00164169 -0.000402844)
(0.00514149 0.00172105 -0.000480895)
(0.00608649 0.00178251 -0.00053906)
(0.000424269 0.000432372 6.73664e-05)
(0.000909974 0.000753707 6.028e-06)
(0.00157632 0.00109024 -7.90959e-05)
(0.00233244 0.00133896 -0.000175341)
(0.00316224 0.00151991 -0.000266431)
(0.00403708 0.00164232 -0.000346656)
(0.00493793 0.00172232 -0.000412256)
(0.00585473 0.00178555 -0.000460158)
(0.000424018 0.000430151 1.57616e-05)
(0.00089324 0.000731795 -3.08156e-05)
(0.0015294 0.00106276 -9.41807e-05)
(0.0022519 0.00131323 -0.00016588)
(0.00304856 0.00149803 -0.000236166)
(0.00389252 0.00162565 -0.000299629)
(0.00476568 0.00171121 -0.000352637)
(0.00565835 0.00178155 -0.000390828)
(0.000417785 0.000423227 -7.12103e-06)
(0.000870493 0.00071129 -4.59053e-05)
(0.00148306 0.00103596 -9.48447e-05)
(0.00217974 0.00128606 -0.00014882)
(0.00295075 0.0014739 -0.000202336)
(0.00377049 0.00160619 -0.000251626)
(0.00462148 0.001697 -0.000293643)
(0.00549455 0.00177311 -0.000323884)
(0.000409852 0.000415029 -1.47312e-05)
(0.000847829 0.000694112 -4.63216e-05)
(0.0014412 0.0010139 -8.36171e-05)
(0.00211777 0.00126342 -0.000123681)
(0.00286901 0.00145338 -0.000163504)
(0.00366998 0.00158916 -0.000200667)
(0.00450346 0.0016838 -0.000232876)
(0.00536018 0.00176379 -0.000256059)
(0.000402732 0.000407732 -1.43153e-05)
(0.000828983 0.000680933 -3.77922e-05)
(0.00140756 0.000997336 -6.43017e-05)
(0.00206906 0.00124648 -9.22514e-05)
(0.0028056 0.0014379 -0.00012004)
(0.0035926 0.00157605 -0.000146194)
(0.00441286 0.00167318 -0.000169108)
(0.00525691 0.00175556 -0.000185577)
(0.000397587 0.000402448 -9.82633e-06)
(0.000815772 0.000672036 -2.42846e-05)
(0.0013843 0.000986321 -4.01937e-05)
(0.00203565 0.00123528 -5.67839e-05)
(0.00276236 0.00142764 -7.32802e-05)
(0.00354 0.00156724 -8.88876e-05)
(0.00435132 0.00166584 -0.000102646)
(0.0051867 0.00174955 -0.000112519)
(0.00039491 0.000399704 -3.45478e-06)
(0.000808997 0.000667563 -8.33474e-06)
(0.00137243 0.000980826 -1.36421e-05)
(0.00201867 0.0012297 -1.91499e-05)
(0.00274043 0.00142252 -2.46275e-05)
(0.00351337 0.00156282 -2.98233e-05)
(0.00432014 0.00166207 -3.44157e-05)
(0.00515108 0.00174632 -3.77079e-05)
(0.000206604 0.000187284 0.000281221)
(0.000815373 0.000410618 9.02848e-05)
(0.00155619 0.000677746 7.91032e-06)
(0.00239761 0.000878163 -0.000107994)
(0.00330845 0.00103184 -0.000207115)
(0.00425417 0.0011415 -0.000292051)
(0.00521124 0.00121624 -0.000357598)
(0.00617389 0.00126994 -0.000413846)
(8.26345e-05 5.09245e-05 7.92959e-05)
(0.000633916 0.000105333 3.88002e-05)
(0.00137198 0.000205154 -1.30724e-05)
(0.00222606 0.000281085 -6.37895e-05)
(0.0031499 0.000338549 -0.000107187)
(0.00410819 0.000377442 -0.000143851)
(0.00507508 0.000400073 -0.00017595)
(0.0060341 0.000416081 -0.00021035)
(6.5682e-05 -6.62819e-05 -7.57861e-05)
(0.000594591 -0.00011768 -7.21028e-05)
(0.00132124 -0.000195187 -6.49103e-05)
(0.00217063 -0.000253036 -5.17067e-05)
(0.0030923 -0.000299984 -3.67087e-05)
(0.00405092 -0.000337183 -2.23715e-05)
(0.00501916 -0.000367604 -1.2347e-05)
(0.00597396 -0.000392841 -6.93969e-06)
(0.000148351 -0.000206923 -0.000272328)
(0.000690964 -0.000417227 -0.000149694)
(0.00139953 -0.000663956 -0.000110005)
(0.0022247 -0.000849292 -3.29909e-05)
(0.00312703 -0.000991948 3.83654e-05)
(0.00407159 -0.00109549 0.00010377)
(0.00503232 -0.00117018 0.000155379)
(0.00598836 -0.00122999 0.000188669)
(0.00032339 -0.000396158 -0.000176061)
(0.000764368 -0.000738523 -0.000128121)
(0.00144575 -0.00106401 -5.84771e-05)
(0.00222236 -0.00129954 3.10191e-05)
(0.00308353 -0.00147034 0.000119366)
(0.00399242 -0.00158502 0.000200447)
(0.00492646 -0.00165815 0.000266967)
(0.005866 -0.00170361 0.000307749)
(0.000318476 -0.000391237 -7.72453e-05)
(0.000762745 -0.000717757 -5.63788e-05)
(0.00139247 -0.00103916 -7.34186e-06)
(0.00212869 -0.00127273 5.80554e-05)
(0.002947 -0.0014394 0.000125845)
(0.0038176 -0.00154902 0.000188846)
(0.00471792 -0.00161526 0.000239477)
(0.00563236 -0.00165449 0.000266947)
(0.000308358 -0.000382518 -2.5143e-05)
(0.000735103 -0.000689587 -8.16617e-06)
(0.00133557 -0.000998304 2.84881e-05)
(0.00203908 -0.00122534 7.59496e-05)
(0.00282484 -0.00138722 0.000126429)
(0.00366496 -0.00149315 0.000173582)
(0.00453797 -0.00155575 0.000210667)
(0.00542677 -0.00159082 0.000226681)
(0.000294711 -0.000369121 -1.93636e-07)
(0.000702778 -0.000661885 1.61992e-05)
(0.0012794 -0.000958659 4.52378e-05)
(0.0019578 -0.0011779 8.06014e-05)
(0.00271864 -0.00133456 0.000117896)
(0.00353522 -0.00143672 0.000152581)
(0.00438627 -0.00149601 0.000179006)
(0.00525378 -0.0015277 0.000187467)
(0.000281512 -0.000355515 9.62068e-06)
(0.000673069 -0.000637832 2.46433e-05)
(0.00123009 -0.000924854 4.73437e-05)
(0.00188891 -0.00113735 7.35146e-05)
(0.00263066 -0.0012892 0.00010064)
(0.0034291 -0.0013878 0.000125557)
(0.0042628 -0.00144406 0.000143933)
(0.00511292 -0.00147277 0.000148056)
(0.000270784 -0.000344148 1.10996e-05)
(0.000649378 -0.000618975 2.31923e-05)
(0.00119136 -0.000898651 3.96539e-05)
(0.00183547 -0.00110599 5.79051e-05)
(0.00256304 -0.00125406 7.65227e-05)
(0.00334799 -0.00134976 9.34073e-05)
(0.00416865 -0.00140351 0.00010552)
(0.00500555 -0.00142979 0.000107341)
(0.000263371 -0.000336174 8.10282e-06)
(0.000633137 -0.000606101 1.59233e-05)
(0.00116493 -0.000880861 2.59344e-05)
(0.00179915 -0.00108476 3.6769e-05)
(0.00251724 -0.00123025 4.7701e-05)
(0.00329317 -0.00132394 5.75237e-05)
(0.00410506 -0.00137595 6.44396e-05)
(0.00493303 -0.00140054 6.51399e-05)
(0.000259608 -0.000332096 2.91879e-06)
(0.000624919 -0.00059959 5.62036e-06)
(0.00115158 -0.000871884 8.98202e-06)