/*--------------------------------*- C++ -*----------------------------------*\
| =========                 |                                                 |
| \\      /  F ield         | foam-extend: Open Source CFD                    |
|  \\    /   O peration     | Version:     3.1                                |
|   \\  /    A nd           | Web:         http://www.extend-project.de       |
|    \\/     M anipulation  |                                                 |
\*---------------------------------------------------------------------------*/
FoamFile
{
    version     2.0;
    format      ascii;
    class       volSymmTensorField;
    location    "1.8";
    object      epsilon;
}
// * * * * * * * * * * * * * * * * * * * * * * * * * * * * * * * * * * * * * //

dimensions      [0 0 0 0 0 0 0];

internalField   nonuniform List<symmTensor> 
256
(
(-0.00414953 0.00633767 -0.000248599 0.0149166 0.00186117 -0.00143155)
(-0.00150838 0.00568406 -0.000750328 0.00345627 0.000780032 -0.000559511)
(0.000476349 0.00521543 -0.000759136 -0.00352284 -0.000966522 0.00058878)
(0.00287865 0.00509772 -0.00033075 -0.0139659 -0.00226699 0.00150014)
(-0.00752351 0.00268201 -0.000319747 0.00924425 -0.00152628 -0.00191029)
(-0.00335354 0.0066219 -0.00125584 0.00383222 -0.000598886 -0.000729839)
(0.000792418 0.00647276 -0.00130032 -0.00264353 0.000190046 0.000949976)
(0.00488825 0.00267994 -0.000524524 -0.00832734 0.000971165 0.00230132)
(-0.00665079 0.00292891 -0.000193026 0.00873615 -0.000929838 -0.00066127)
(-0.00366703 0.00602915 -0.00100168 0.00358559 -0.000344589 -0.000187813)
(0.000401701 0.00605063 -0.00105532 -0.00197959 2.27705e-05 0.000697578)
(0.00358428 0.00300296 -0.000429462 -0.00728832 0.000572468 0.00143614)
(-0.00606237 0.00240825 -0.00022423 0.00663747 -0.000999717 1.55692e-05)
(-0.00350218 0.0052424 -0.000945713 0.00291068 -0.000335315 0.000133258)
(7.66246e-06 0.00531017 -0.000982475 -0.00128348 0.000110756 0.000598701)
(0.00271644 0.00255103 -0.000463668 -0.00510452 0.000757134 0.00099092)
(-0.00530242 0.00199831 -0.00021476 0.00497484 -0.000848849 0.000664045)
(-0.00322669 0.00438977 -0.000878504 0.00227661 -0.000261883 0.000416665)
(-0.000277614 0.00449184 -0.000905748 -0.000764084 0.000137141 0.000459621)
(0.00186678 0.00218754 -0.000447231 -0.00344189 0.000739285 0.000489995)
(-0.00470454 0.0015071 -0.000242686 0.00357427 -0.000719977 0.00112856)
(-0.00295064 0.00352299 -0.00085838 0.00170442 -0.000216032 0.000615532)
(-0.000445277 0.00367517 -0.000864646 -0.000390764 0.000147785 0.000332101)
(0.00127055 0.00179405 -0.000440886 -0.00210549 0.00070981 7.44203e-05)
(-0.00433661 0.000973868 -0.000322128 0.00270544 -0.000631518 0.00150974)
(-0.002804 0.00269009 -0.000891079 0.00128539 -0.000223034 0.000786035)
(-0.000520162 0.00285488 -0.000865242 -0.000139873 0.000122424 0.000195458)
(0.000965338 0.00138675 -0.000448894 -0.00120983 0.00062731 -0.000320826)
(-0.00464872 0.000706571 -0.00043972 0.00212862 -0.000371945 0.00186635)
(-0.00335562 0.00174336 -0.000964275 0.0012207 -0.000144706 0.000944622)
(-0.000393714 0.00171938 -0.000945339 0.0001351 3.83414e-05 2.79263e-05)
(0.00113367 0.000809568 -0.000535474 -0.000607718 0.000288918 -0.000739267)
(-0.0041422 0.00638132 -9.66136e-05 0.0147117 0.000695381 -0.000937724)
(-0.00138543 0.00576933 -0.000550397 0.00354622 0.000294784 -0.000403207)
(0.000406633 0.00534332 -0.000618133 -0.00316047 -0.000576622 0.000383389)
(0.00283187 0.00517725 -0.000284855 -0.0132871 -0.00115555 0.00101968)
(-0.00745075 0.00226915 -0.000111545 0.0101403 -0.00131255 -0.0014322)
(-0.00303224 0.00605084 -0.00105449 0.0043305 -0.000532368 -0.000621525)
(0.000646523 0.00596123 -0.0012205 -0.00292295 5.82332e-05 0.000718445)
(0.00478547 0.00235676 -0.000544491 -0.00906033 0.000722065 0.00181412)
(-0.00642285 0.00227002 -1.37583e-05 0.0087235 -0.00154102 -0.000577656)
(-0.00321055 0.0050135 -0.000941247 0.00361315 -0.000578082 -0.000255806)
(0.000248616 0.00505931 -0.00113705 -0.00196218 0.000214769 0.000612035)
(0.00340104 0.00236066 -0.00051703 -0.00723295 0.00112518 0.00132705)
(-0.00573912 0.001797 3.42022e-05 0.00663285 -0.00152868 0.000203238)
(-0.00298437 0.00420143 -0.000818234 0.00290708 -0.000523625 7.83678e-05)
(-0.000142968 0.00427167 -0.00101415 -0.00125653 0.000320182 0.00048612)
(0.00246172 0.00193394 -0.000492936 -0.00505872 0.00131039 0.000794787)
(-0.00497549 0.00142616 7.4495e-05 0.00486828 -0.00137206 0.000862217)
(-0.00270461 0.00343217 -0.000726223 0.00223147 -0.000435021 0.000348936)
(-0.000418018 0.0035266 -0.000915792 -0.000686429 0.000377224 0.000350371)
(0.00160951 0.00160899 -0.000448776 -0.00328616 0.00134661 0.000279851)
(-0.0043785 0.00102503 6.93744e-05 0.00344892 -0.00116581 0.00137279)
(-0.0024423 0.00272613 -0.000686451 0.00165713 -0.000352426 0.000555504)
(-0.000591744 0.0028637 -0.000852986 -0.000268694 0.000378943 0.000218498)
(0.000999582 0.00131004 -0.000411234 -0.00188029 0.00128327 -0.000178485)
(-0.00401414 0.000582867 -1.83128e-07 0.00253511 -0.00093486 0.00177202)
(-0.00232324 0.0020938 -0.000727039 0.00121122 -0.000297822 0.000724077)
(-0.000681485 0.00225034 -0.000859382 2.84383e-05 0.00030691 9.17773e-05)
(0.000680782 0.0010275 -0.000396561 -0.00088156 0.00109139 -0.000583867)
(-0.00433308 0.000505373 -0.000164188 0.00198158 -0.000527679 0.00211059)
(-0.0029204 0.00144691 -0.000902751 0.00115883 -0.000174681 0.000860318)
(-0.000596285 0.00141472 -0.00105633 0.000284307 0.000149983 -6.88673e-05)
(0.000823296 0.000638343 -0.000549913 -0.000315842 0.00059928 -0.000996313)
(-0.00428908 0.00629354 -5.29742e-05 0.0144777 -5.29496e-05 -0.000490448)
(-0.00147895 0.00549373 -0.000308405 0.00357985 -3.16492e-05 -0.000200645)
(0.000413259 0.00502201 -0.000364185 -0.00300066 -0.000278294 0.00022395)
(0.00287998 0.00495533 -0.000185023 -0.012864 -0.000342318 0.000567785)
(-0.00776344 0.00210339 -8.63243e-05 0.00992891 -0.00108611 -0.000753484)
(-0.00322414 0.0056856 -0.000650032 0.00436323 -0.000460694 -0.000290498)
(0.000659072 0.00558922 -0.000785783 -0.00275577 4.27409e-05 0.000454319)
(0.00491288 0.00217804 -0.000391615 -0.00870039 0.000634355 0.00105914)
(-0.00668748 0.00206979 -5.82463e-05 0.00871882 -0.00136335 -0.000228403)
(-0.00337049 0.00460822 -0.000665812 0.00368158 -0.000530119 -4.07627e-05)
(0.000234738 0.00465383 -0.000826146 -0.0018531 0.00021712 0.000436843)
(0.00349752 0.0021412 -0.000407961 -0.00703819 0.00103682 0.000815567)
(-0.00591524 0.00160673 -3.27644e-05 0.00667941 -0.00140464 0.000366097)
(-0.00309135 0.00377248 -0.00061457 0.00296427 -0.000496897 0.000228204)
(-0.00019488 0.00384425 -0.000774478 -0.00115521 0.000340446 0.000370453)
(0.00247015 0.00173745 -0.000389116 -0.00491881 0.00125078 0.000446311)
(-0.00510742 0.00123845 -1.11189e-05 0.00493474 -0.00129736 0.00091478)
(-0.0027832 0.00303797 -0.000556106 0.00228652 -0.000418189 0.000464353)
(-0.000491164 0.00314148 -0.000708287 -0.000592088 0.000412704 0.00027871)
(0.0015701 0.00143965 -0.000353573 -0.00316455 0.00132349 4.61225e-05)
(-0.0044711 0.000852979 -1.57635e-05 0.0035164 -0.00111607 0.00136781)
(-0.00249705 0.00239636 -0.000534405 0.00170237 -0.00033219 0.000654032)
(-0.00068435 0.00255601 -0.000667453 -0.000171537 0.000423593 0.000182598)
(0.000913066 0.00118968 -0.000320383 -0.00175364 0.00127969 -0.000327836)
(-0.00406289 0.000423831 -7.09655e-05 0.00260592 -0.000879174 0.00172699)
(-0.00235719 0.0018523 -0.000594774 0.00124414 -0.000255127 0.000807381)
(-0.000800415 0.00204396 -0.000706027 0.000128474 0.00035135 9.75124e-05)
(0.000541496 0.00096093 -0.000320099 -0.000739805 0.00109226 -0.000648945)
(-0.00434845 0.000413699 -0.000232746 0.00204256 -0.000450044 0.00198333)
(-0.00296842 0.00132309 -0.000821823 0.00119703 -0.000118957 0.00091818)
(-0.000783632 0.00131098 -0.000965881 0.000381693 0.000165638 3.21712e-05)
(0.000612787 0.00060948 -0.00050444 -0.000181007 0.000571525 -0.000876714)
(-0.00435982 0.00611467 -1.32296e-05 0.0141681 -0.000393641 -0.000183052)
(-0.00155305 0.00518495 -0.000151659 0.00355491 -0.000171178 -6.85158e-05)
(0.000400004 0.00466925 -0.000187885 -0.00285729 -0.000107018 0.0001248)
(0.00287797 0.00467174 -0.000102325 -0.0124006 7.64131e-05 0.00026951)
(-0.00795442 0.00197094 -2.92215e-05 0.00966709 -0.000888375 -0.000206054)
(-0.00339395 0.00539561 -0.000359987 0.00434015 -0.000375205 -5.17714e-05)
(0.000629165 0.00528653 -0.000449315 -0.00256024 4.61318e-05 0.000270113)
(0.00495417 0.00203968 -0.000236129 -0.00831646 0.000559434 0.000498273)
(-0.00691943 0.00196 -3.82045e-05 0.00864425 -0.00109215 0.000175814)
(-0.00355633 0.00437362 -0.000430709 0.00372249 -0.000424852 0.000143308)
(0.000194597 0.00441852 -0.000535941 -0.00169886 0.000190399 0.000284819)
(0.00357795 0.00202693 -0.000271045 -0.0067722 0.000865762 0.000345219)
(-0.00612309 0.00151526 -3.90625e-05 0.00671264 -0.00113894 0.00063151)
(-0.0032616 0.00357322 -0.000436415 0.00303363 -0.000402429 0.000361238)
(-0.00024887 0.0036494 -0.000538725 -0.00102583 0.000299321 0.000256137)
(0.00252532 0.00165342 -0.000269535 -0.00473909 0.00104752 8.68802e-05)
(-0.0052792 0.00115812 -3.52215e-05 0.00502208 -0.00107366 0.00107664)
(-0.00293362 0.00287352 -0.000419844 0.00236847 -0.000343346 0.000562964)
(-0.000557525 0.00298903 -0.000514213 -0.000482393 0.000367674 0.00020276)
(0.0015908 0.00138396 -0.000249896 -0.00303391 0.00112487 -0.00020998)
(-0.00460597 0.000780726 -4.60273e-05 0.00362399 -0.000940855 0.00146352)
(-0.0026266 0.00226868 -0.000424051 0.00178258 -0.00027468 0.000734457)
(-0.000762804 0.00245056 -0.000504004 -7.57403e-05 0.000381669 0.000144848)
(0.000894453 0.0011644 -0.000231265 -0.00164591 0.00110039 -0.000494756)
(-0.00415787 0.0003563 -9.67176e-05 0.00272202 -0.000750019 0.00177622)
(-0.00247001 0.00176537 -0.000501797 0.00131629 -0.000207333 0.000879172)
(-0.000901487 0.00198566 -0.000568332 0.000213599 0.000319018 0.000106552)
(0.000471614 0.000961284 -0.000244756 -0.000636426 0.000943024 -0.000723847)
(-0.0044171 0.000378962 -0.00025336 0.00215807 -0.000390069 0.00199436)
(-0.00309762 0.00128013 -0.000745124 0.00127444 -9.40797e-05 0.000996348)
(-0.000946133 0.00127963 -0.000839668 0.000454449 0.000151347 0.000119092)
(0.000475037 0.000612885 -0.000423666 -0.000106431 0.000493163 -0.000820778)
(-0.00438286 0.00592949 7.59247e-06 0.0138719 -0.000476492 -3.77061e-06)
(-0.00159609 0.00491385 -6.19992e-05 0.00352192 -0.000201065 7.12989e-06)
(0.000378551 0.00436753 -8.42913e-05 -0.00273034 -1.85472e-05 6.26918e-05)
(0.00284395 0.00441349 -5.03279e-05 -0.0119691 0.00023985 8.99678e-05)
(-0.00805486 0.00185996 6.55666e-06 0.00946435 -0.000698386 0.000137489)
(-0.00349993 0.0051521 -0.000177446 0.00431705 -0.000289582 9.21052e-05)
(0.00058302 0.00503518 -0.000233336 -0.00238889 4.77625e-05 0.00014577)
(0.00493186 0.00193041 -0.00012839 -0.00800214 0.000465782 0.000138606)
(-0.0070839 0.00187677 -1.41612e-05 0.00856758 -0.000829987 0.0004682)
(-0.00368612 0.0042019 -0.000256662 0.00375163 -0.000318004 0.000263808)
(0.000146123 0.00424888 -0.000322273 -0.00155266 0.000155396 0.00016722)
(0.00361146 0.00194751 -0.000163325 -0.00652917 0.000681203 6.88008e-06)
(-0.00629661 0.00145826 -2.81001e-05 0.00673009 -0.000864039 0.000849811)
(-0.00339189 0.00345495 -0.000289198 0.00309436 -0.000300992 0.000451453)
(-0.000297418 0.00353688 -0.000351157 -0.000901382 0.000239714 0.000156713)
(0.00256368 0.00160833 -0.000171656 -0.00456641 0.000816256 -0.000197484)
(-0.00544032 0.00111673 -3.57986e-05 0.00509194 -0.00082413 0.00122929)
(-0.00305469 0.00279485 -0.000299578 0.00244398 -0.00025984 0.000630605)
(-0.000608644 0.00292082 -0.000354768 -0.000377591 0.000294241 0.00012835)
(0.00161805 0.00136502 -0.000165449 -0.00290792 0.000879641 -0.000429303)
(-0.00474528 0.000747843 -5.1659e-05 0.00371352 -0.000734107 0.00157183)
(-0.00273473 0.00221967 -0.000321648 0.00185784 -0.000211345 0.000791537)
(-0.000819213 0.00241784 -0.000366502 1.18813e-05 0.000305657 0.000100285)
(0.000898995 0.00116737 -0.000159999 -0.00154664 0.000864731 -0.00064859)
(-0.00427079 0.000326436 -9.84056e-05 0.00281406 -0.000594424 0.00185675)
(-0.00256871 0.0017395 -0.000403634 0.00138307 -0.000161026 0.000934936)
(-0.000972588 0.0019781 -0.000439959 0.000286748 0.000255137 9.92613e-05)
(0.000442543 0.000978903 -0.000182211 -0.000548691 0.000742087 -0.000807733)
(-0.00451552 0.000366386 -0.000238565 0.00224311 -0.000309865 0.00204466)
(-0.00321206 0.0012722 -0.000629324 0.0013417 -7.16695e-05 0.00105536)
(-0.00105856 0.00127525 -0.000685772 0.000518252 0.000120091 0.000165014)
(0.000402517 0.000623963 -0.000338879 -4.06275e-05 0.000386252 -0.000814792)
(-0.00438109 0.00577551 1.46324e-05 0.0136312 -0.000413597 9.54448e-05)
(-0.00161934 0.00470531 -1.74205e-05 0.00349507 -0.000171637 4.73674e-05)
(0.000358095 0.0041389 -3.06003e-05 -0.00262806 1.76568e-05 2.40361e-05)
(0.00280129 0.00421109 -2.14764e-05 -0.0116194 0.000252666 -1.47912e-05)
(-0.00809629 0.00177348 2.14776e-05 0.00932375 -0.000504803 0.000336757)
(-0.00356095 0.00496136 -7.49648e-05 0.00430297 -0.000205583 0.000171001)
(0.000539858 0.00484018 -0.000108498 -0.00225496 4.19189e-05 6.41239e-05)
(0.00488396 0.00184862 -6.28891e-05 -0.00776615 0.000350229 -8.06144e-05)
(-0.00718337 0.00181212 1.92029e-06 0.00851009 -0.000583711 0.000652935)
(-0.00376719 0.00407113 -0.000139952 0.00377464 -0.000219862 0.000333146)
(0.000103998 0.00412094 -0.00017916 -0.00143509 0.000115179 8.30943e-05)
(0.00361443 0.00188913 -9.00424e-05 -0.00633883 0.00049123 -0.000214799)
(-0.00641496 0.00141724 -1.43158e-05 0.00674032 -0.000604759 0.00100006)
(-0.00347827 0.00337295 -0.000176579 0.00314142 -0.000207306 0.00050502)
(-0.000334713 0.00346003 -0.000212626 -0.00080006 0.00017374 8.04294e-05)
(0.00258157 0.00157865 -0.000100854 -0.00442711 0.000582319 -0.000395885)
(-0.00555924 0.00109056 -2.56754e-05 0.00514041 -0.000580662 0.0013459)
(-0.00313786 0.00274866 -0.000196859 0.00250236 -0.00018063 0.000672296)
(-0.000643929 0.00288253 -0.000227932 -0.000292132 0.000211842 6.69924e-05)
(0.00163722 0.00135639 -0.000101895 -0.00280383 0.000626664 -0.000592206)
(-0.00485424 0.000729748 -4.17546e-05 0.00377524 -0.000523518 0.00166601)
(-0.00281078 0.00219764 -0.000224054 0.0019153 -0.000149421 0.000829119)
(-0.000855664 0.00240705 -0.000248232 8.22571e-05 0.000219139 5.93461e-05)
(0.000907966 0.00117462 -0.000103758 -0.00146472 0.00061643 -0.000770903)
(-0.00436436 0.00031051 -7.98479e-05 0.00287445 -0.00042919 0.00193825)
(-0.00263947 0.00173256 -0.000295242 0.00143263 -0.00011542 0.00097431)
(-0.00101731 0.00198296 -0.000314128 0.000343917 0.00018208 8.39974e-05)
(0.000432306 0.000994987 -0.000126479 -0.000478087 0.000528738 -0.000884968)
(-0.00460197 0.000360034 -0.000188984 0.00229935 -0.000225145 0.00211107)
(-0.00329491 0.00127294 -0.00047449 0.00139152 -5.1282e-05 0.00109757)
(-0.00112823 0.00127717 -0.000506759 0.00056874 8.52275e-05 0.000181231)
(0.000366861 0.000632649 -0.000246912 1.3903e-05 0.000274781 -0.000839992)
(-0.00437182 0.00566851 1.21895e-05 0.0134645 -0.000272769 0.000146478)
(-0.00163107 0.00456611 -6.13432e-07 0.00347725 -0.000112062 6.71874e-05)
(0.000342863 0.00398753 -7.56404e-06 -0.00255674 2.20038e-05 1.41184e-06)
(0.00276584 0.00407445 -7.53724e-06 -0.0113768 0.000180235 -7.2345e-05)
(-0.00810866 0.00171471 1.94417e-05 0.00923583 -0.000305603 0.000442418)
(-0.00359355 0.00483088 -2.53532e-05 0.00429605 -0.00012289 0.000210599)
(0.00050806 0.00470757 -4.32318e-05 -0.00216357 2.85716e-05 1.45512e-05)
(0.00483872 0.00179419 -2.67524e-05 -0.00760869 0.000217269 -0.00020485)
(-0.0072372 0.00176732 6.40189e-06 0.00847357 -0.00034728 0.000756268)
(-0.00381333 0.00398108 -6.65483e-05 0.00379129 -0.000129139 0.000369015)
(7.40334e-05 0.00403324 -8.73869e-05 -0.0013541 7.08616e-05 2.92913e-05)
(0.00360595 0.00184972 -4.34762e-05 -0.00620975 0.000296825 -0.000346497)
(-0.00648566 0.00138915 -5.57129e-06 0.00674667 -0.000358447 0.00108902)
(-0.00352955 0.00331765 -9.33105e-05 0.00317334 -0.000121376 0.000533536)
(-0.000359606 0.00340841 -0.000112091 -0.000730027 0.000105055 2.97468e-05)
(0.00258729 0.00155888 -5.17786e-05 -0.00433156 0.000349106 -0.000518524)
(-0.00563447 0.00107343 -1.46785e-05 0.00517037 -0.000345474 0.00142017)
(-0.00318849 0.00271938 -0.000110562 0.00254117 -0.000106458 0.000695622)
(-0.000665867 0.00285843 -0.000126352 -0.000233077 0.000127234 2.46029e-05)
(0.00164789 0.00135101 -5.46668e-05 -0.00273141 0.000374821 -0.000697176)
(-0.00492591 0.000718714 -2.63837e-05 0.00381234 -0.000313901 0.00173122)
(-0.0028578 0.00218552 -0.000131676 0.00195275 -8.92011e-05 0.000851752)
(-0.000877049 0.00240189 -0.000143525 0.000130541 0.000131003 2.92993e-05)
(0.000915297 0.00117966 -5.82285e-05 -0.00140739 0.000368371 -0.00085364)
(-0.00442813 0.000301289 -5.14134e-05 0.00290903 -0.000259523 0.00199908)
(-0.00268365 0.00173022 -0.000179602 0.00146416 -6.9671e-05 0.000999382)
(-0.00104268 0.00198758 -0.00018854 0.000382705 0.000108384 6.93523e-05)
(0.000430211 0.00100533 -7.46933e-05 -0.000428963 0.00031557 -0.000942261)
(-0.00466281 0.000356932 -0.000120539 0.00233102 -0.00013713 0.00216467)
(-0.00334701 0.00127508 -0.000293853 0.00142307 -3.09718e-05 0.00112434)
(-0.00116744 0.00127918 -0.000310451 0.000603607 5.06216e-05 0.000183415)
(0.000351502 0.000637807 -0.000150276 5.32858e-05 0.000163753 -0.000869747)
(-0.0043649 0.00561412 4.58029e-06 0.0133796 -9.45827e-05 0.000167811)
(-0.00163591 0.00449683 1.33785e-06 0.00346849 -3.86704e-05 7.51756e-05)
(0.00033484 0.00391248 -8.28441e-07 -0.00252021 9.14788e-06 -9.06022e-06)
(0.00274623 0.00400598 -1.66796e-06 -0.0112532 6.4491e-05 -9.78173e-05)
(-0.00811038 0.00168506 7.49254e-06 0.00919352 -0.000102335 0.000487386)
(-0.00360759 0.00476484 -5.31701e-06 0.0042934 -4.08919e-05 0.000226714)
(0.000491402 0.00464063 -1.0922e-05 -0.0021173 1.01169e-05 -8.89382e-06)
(0.00481244 0.00176701 -7.15711e-06 -0.00752984 7.36102e-05 -0.000260888)
(-0.00726015 0.00174437 2.96567e-06 0.008456 -0.000115347 0.000801627)
(-0.00383409 0.00393501 -1.93178e-05 0.0038001 -4.26107e-05 0.000383853)
(5.85972e-05 0.00398845 -2.58387e-05 -0.00131298 2.39188e-05 3.12457e-06)
(0.00359866 0.00182974 -1.27712e-05 -0.00614471 9.93075e-05 -0.000407519)
(-0.00651805 0.00137469 -1.37439e-06 0.00674981 -0.000118839 0.00112944)
(-0.00355325 0.00328931 -2.89803e-05 0.00318944 -3.99865e-05 0.000545582)
(-0.000372029 0.00338194 -3.47932e-05 -0.000694478 3.51381e-05 4.63497e-06)
(0.00258818 0.00154873 -1.58318e-05 -0.00428326 0.000116334 -0.000576589)
(-0.00567022 0.00106469 -4.78275e-06 0.00518459 -0.00011475 0.00145548)
(-0.00321224 0.00270451 -3.55644e-05 0.0025604 -3.51963e-05 0.000705903)
(-0.000676381 0.0028461 -4.03849e-05 -0.000203143 4.23905e-05 3.19733e-06)
(0.00165237 0.0013481 -1.71776e-05 -0.00269459 0.000124722 -0.000748041)
(-0.00496072 0.000713166 -9.04873e-06 0.00382949 -0.00010467 0.00176381)
(-0.00288004 0.00217954 -4.34199e-05 0.00197103 -2.96949e-05 0.000862306)
(-0.000886889 0.0023992 -4.69561e-05 0.000154924 4.35251e-05 1.36471e-05)
(0.000919144 0.00118191 -1.87759e-05 -0.00137817 0.000122477 -0.0008949)
(-0.00445954 0.000296843 -1.78119e-05 0.00292422 -8.69654e-05 0.00203074)
(-0.0027046 0.00172922 -6.02882e-05 0.00147928 -2.33392e-05 0.00101147)
(-0.00105403 0.00198968 -6.28876e-05 0.000402221 3.59269e-05 6.07951e-05)
(0.000430392 0.00101005 -2.47417e-05 -0.000403959 0.000104816 -0.000972341)
(-0.00469296 0.000355834 -4.15055e-05 0.00234453 -4.63702e-05 0.00219373)
(-0.00337171 0.00127658 -9.94415e-05 0.0014382 -1.04146e-05 0.00113718)
(-0.00118501 0.00128002 -0.000104547 0.000621431 1.67999e-05 0.000181939)
(0.000346039 0.000639878 -5.05191e-05 7.37738e-05 5.43374e-05 -0.000888286)
)
;

boundaryField
{
    interface
    {
        type            calculated;
        value           nonuniform List<symmTensor> 
192
(
(-0.0151711 -8.95769e-06 0.0003283 0.0228999 0.00208823 -0.0017265)
(-0.00713187 -5.33541e-06 0.000558295 0.0113941 -0.00204357 -0.00226069)
(-0.00797175 -1.68239e-05 0.00065396 0.0111172 -0.00133552 -0.000714657)
(-0.00661824 -4.58908e-05 0.000693254 0.00827486 -0.00144087 0.00011064)
(-0.00573278 -9.55475e-05 0.000703655 0.00614547 -0.00123765 0.000913678)
(-0.00493776 -0.000174427 0.000691051 0.00437164 -0.00104762 0.00148508)
(-0.00459027 -0.000313673 0.000650118 0.00338436 -0.000874918 0.00193232)
(-0.00423299 -0.000531351 0.000555849 0.00249915 -0.000499044 0.00233451)
(-0.015453 1.20037e-05 0.000221096 0.0225211 0.000685241 -0.00108841)
(-0.00830152 1.97553e-05 0.000383484 0.0123074 -0.00178116 -0.00160239)
(-0.00822055 4.77391e-06 0.000449662 0.0110646 -0.00210533 -0.000507099)
(-0.00703916 -3.67855e-05 0.000474546 0.00828489 -0.0021121 0.00048765)
(-0.00610789 -0.000103566 0.000476788 0.00603973 -0.00190875 0.00133157)
(-0.00534634 -0.000206069 0.000460642 0.00425207 -0.00162755 0.00198078)
(-0.00497316 -0.000381344 0.000423181 0.00323104 -0.00128879 0.00247063)
(-0.00453758 -0.000629035 0.000352952 0.00236322 -0.000723078 0.00287139)
(-0.0155631 1.49493e-05 0.000148421 0.022084 -0.000182105 -0.000576636)
(-0.00858816 2.32317e-05 0.000259996 0.0119208 -0.00145116 -0.000866716)
(-0.00843615 7.22057e-06 0.000301492 0.0110065 -0.00182263 -0.000206746)
(-0.00716747 -3.96542e-05 0.000313639 0.0083398 -0.00189519 0.000543121)
(-0.00615973 -0.000115961 0.000310954 0.00613219 -0.00176675 0.00124002)
(-0.00535078 -0.000232459 0.00029669 0.00436035 -0.001534 0.00181609)
(-0.00494774 -0.000426849 0.000270415 0.00336334 -0.00121606 0.00226675)
(-0.00439573 -0.000682375 0.000226905 0.00246839 -0.000642144 0.00258165)
(-0.0155077 1.33096e-05 0.000102656 0.0215723 -0.000576434 -0.000206152)
(-0.00879767 2.04271e-05 0.000182417 0.0115306 -0.00118751 -0.000212286)
(-0.00869107 3.14046e-06 0.000210703 0.010873 -0.00145377 0.000263163)
(-0.00740447 -4.68208e-05 0.000217028 0.00836467 -0.00152704 0.00083249)
(-0.00635426 -0.000128864 0.000213193 0.00623478 -0.0014532 0.00139369)
(-0.00550347 -0.000253876 0.000202018 0.00449718 -0.00128736 0.00188323)
(-0.0050641 -0.000459291 0.000184258 0.0035225 -0.00104008 0.00227559)
(-0.00444777 -0.000716803 0.000156019 0.00261545 -0.000563282 0.00254149)
(-0.0153554 1.12113e-05 7.06681e-05 0.0210894 -0.000657251 1.02408e-05)
(-0.00890702 1.6611e-05 0.000127399 0.0112461 -0.000937278 0.000202689)
(-0.00886386 -2.22781e-06 0.000147229 0.0107496 -0.00110773 0.000616021)
(-0.00759833 -5.43522e-05 0.000150919 0.00836973 -0.0011592 0.00109266)
(-0.00653616 -0.000140018 0.000147476 0.0063113 -0.00111501 0.00156932)
(-0.00566139 -0.000270312 0.000139368 0.00460346 -0.0010042 0.00200057)
(-0.00519675 -0.000482698 0.000127585 0.00363882 -0.000826529 0.00235699)
(-0.00452808 -0.000740816 0.000108736 0.0027156 -0.000451351 0.00258406)
(-0.0151897 9.54575e-06 4.63246e-05 0.0206959 -0.000559525 0.000130323)
(-0.00895502 1.33598e-05 8.44994e-05 0.0110532 -0.000679852 0.000445228)
(-0.00896837 -6.91317e-06 9.78563e-05 0.0106596 -0.000782107 0.000843353)
(-0.00773365 -6.0603e-05 0.00010013 0.0083699 -0.000813631 0.00127902)
(-0.00667499 -0.000148599 9.75978e-05 0.0063621 -0.000786977 0.00171384)
(-0.00579064 -0.000282195 9.21609e-05 0.00467368 -0.00071707 0.0021163)
(-0.00531189 -0.000499087 8.46187e-05 0.00371152 -0.000598336 0.00245685)
(-0.00461381 -0.000757388 7.23462e-05 0.00277861 -0.000329762 0.00266525)
(-0.0150583 8.52919e-06 2.61215e-05 0.0204222 -0.000365955 0.000192032)
(-0.00897031 1.11756e-05 4.80707e-05 0.0109335 -0.000412454 0.000573955)
(-0.00902368 -1.01957e-05 5.57594e-05 0.0106025 -0.000466732 0.000971214)
(-0.00781486 -6.49355e-05 5.70173e-05 0.00836962 -0.000483503 0.00139088)
(-0.00676362 -0.000154363 5.55108e-05 0.00639264 -0.000469097 0.00180825)
(-0.00587673 -0.000289979 5.23865e-05 0.00471465 -0.000430539 0.00219958)
(-0.00539081 -0.000509649 4.79327e-05 0.0037516 -0.000362481 0.00253501)
(-0.00467638 -0.000767642 4.06224e-05 0.00281243 -0.000201588 0.00273481)
(-0.0149868 7.94406e-06 8.3522e-06 0.0202826 -0.000126474 0.00021777)
(-0.00897247 9.96184e-06 1.54506e-05 0.010876 -0.000138246 0.000628662)
(-0.00904612 -1.19438e-05 1.79264e-05 0.010575 -0.000155262 0.00102737)
(-0.00785151 -6.7145e-05 1.83208e-05 0.0083695 -0.00016053 0.00144191)
(-0.00680535 -0.000157253 1.78259e-05 0.00640692 -0.00015598 0.00185355)
(-0.00591834 -0.000294061 1.6806e-05 0.00473323 -0.00014367 0.00224177)
(-0.00542881 -0.000515266 1.52352e-05 0.00376863 -0.000121586 0.00257636)
(-0.00470669 -0.000771667 1.26561e-05 0.00282606 -6.82956e-05 0.00277331)
(-0.00425338 0.00628729 -0.000426401 0.01504 -0.000106909 -0.00766642)
(-0.0077874 0.00300056 -0.00075017 0.00828256 -0.0001524 -0.000628265)
(-0.00701247 0.00345076 -0.000895123 0.0087769 -0.000147783 -0.00133161)
(-0.00645499 0.00288706 -0.000966833 0.00666724 -0.000127169 -0.000208783)
(-0.00567982 0.00243696 -0.00100735 0.00510158 -0.000118456 0.000359351)
(-0.00506404 0.00186745 -0.0010372 0.0037117 -0.000132011 0.000879974)
(-0.0046723 0.00125335 -0.00108059 0.0028852 -0.000172438 0.00114334)
(-0.00496116 0.000842359 -0.00120114 0.00227109 -0.000226405 0.00169034)
(-0.00167824 0.0054821 -0.000273702 0.00340781 -8.70401e-05 -0.00159212)
(-0.00376305 0.00698384 -0.000518588 0.00337641 -0.000143009 -0.000106613)
(-0.00417592 0.00677709 -0.000612299 0.0036024 -0.000149111 0.000104016)
(-0.00403325 0.0059828 -0.000646652 0.00293623 -0.000118915 0.000511609)
(-0.00374687 0.00506655 -0.000661342 0.00233682 -8.57012e-05 0.000748599)
(-0.003446 0.00408276 -0.00067693 0.00175858 -6.56709e-05 0.000937055)
(-0.00326182 0.00311105 -0.00072016 0.00135789 -6.57568e-05 0.00106612)
(-0.00377434 0.00195127 -0.000879902 0.00128096 -7.54246e-05 0.00144085)
(0.000555915 0.00495116 -0.000211525 -0.00379963 -6.16048e-05 0.00173821)
(0.000958809 0.00677612 -0.00044096 -0.00229801 -0.000118751 0.000494029)
(0.000556672 0.006776 -0.000534484 -0.00196274 -0.000135174 0.00059335)
(0.000133919 0.00604866 -0.000564468 -0.0012714 -0.000109233 0.00045602)
(-0.00017353 0.00517961 -0.000572071 -0.000800632 -7.12044e-05 0.000367279)
(-0.000346612 0.00425929 -0.000581469 -0.000463846 -3.91464e-05 0.000260173)
(-0.000419633 0.00330192 -0.000621551 -0.000252859 -2.05627e-05 0.000155563)
(-0.00028443 0.00194668 -0.000782615 4.54595e-05 -1.29634e-05 -0.000149373)
(0.00296331 0.00493909 -0.000197567 -0.0144512 -5.80566e-05 0.00726031)
(0.00507694 0.00290103 -0.000445794 -0.00744032 -0.000116943 0.00118466)
(0.00381078 0.00349477 -0.000554841 -0.00728137 -0.00013426 0.00197143)
(0.00294971 0.0030282 -0.000591299 -0.00509685 -0.000107834 0.00112519)
(0.0020792 0.00263902 -0.00059937 -0.00353941 -6.77398e-05 0.000684176)
(0.0014736 0.00218211 -0.00060705 -0.00225858 -3.11936e-05 0.000237035)
(0.00115951 0.00168742 -0.000644479 -0.00145187 3.05692e-07 -9.69508e-05)
(0.00132334 0.000954428 -0.000798534 -0.000803874 3.51448e-05 -0.000650636)
(0.0123936 6.08894e-05 1.90274e-05 -0.0209227 -0.00267509 0.00184033)
(0.00505971 0.000111917 6.96549e-05 -0.0107956 0.00137351 0.00280314)
(0.00518139 0.000119422 7.72893e-05 -0.00980076 0.000934594 0.00170959)
(0.00360416 8.99399e-05 7.06035e-05 -0.00682052 0.00118088 0.00113062)
(0.00256708 5.61277e-05 7.16889e-05 -0.0046065 0.00114074 0.000479755)
(0.00172508 3.35598e-05 9.11595e-05 -0.00279748 0.00108446 -5.63038e-05)
(0.00129062 6.34494e-06 0.000137591 -0.00159581 0.000951866 -0.000547669)
(0.0012549 -0.000156979 0.000213137 -0.000802233 0.000456459 -0.00104336)
(0.0121306 2.38446e-05 -5.03243e-05 -0.0200793 -0.00127393 0.00125321)
(0.0058269 5.58089e-05 -5.16928e-05 -0.0115848 0.00110701 0.00221031)
(0.00500748 6.69374e-05 -5.85219e-05 -0.009697 0.00164153 0.00156658)
(0.00353181 5.80588e-05 -6.6471e-05 -0.00677078 0.00187861 0.000855117)
(0.00243013 5.00005e-05 -6.2708e-05 -0.00443331 0.00190428 0.000163771)
(0.0015913 5.63378e-05 -4.15964e-05 -0.00255473 0.00180804 -0.000447985)
(0.00111941 6.30721e-05 -1.78639e-06 -0.00123695 0.00155439 -0.000976767)
(0.00115656 -8.16937e-05 5.84922e-05 -0.000482482 0.00088155 -0.00148424)
(0.01203 5.9467e-06 -5.30202e-05 -0.0194552 -0.000267748 0.000690644)
(0.00605523 2.48796e-05 -5.60425e-05 -0.0110976 0.00098283 0.0012689)
(0.00517153 3.76535e-05 -5.31427e-05 -0.00943766 0.00148322 0.000925961)
(0.00362143 4.33296e-05 -5.08124e-05 -0.00661749 0.00174099 0.000419012)
(0.00244193 5.47938e-05 -4.12638e-05 -0.00430917 0.0018132 -0.000126057)
(0.0015442 8.09336e-05 -2.07616e-05 -0.002432 0.00174602 -0.000632382)
(0.0010107 0.000105006 8.46485e-06 -0.00109708 0.00151395 -0.00106543)
(0.000917993 -2.06484e-05 4.27653e-05 -0.000347981 0.000831889 -0.00136641)
(0.0117737 -1.14676e-06 -4.19345e-05 -0.0187582 0.000235177 0.000312347)
(0.00617552 1.11984e-05 -4.15574e-05 -0.0106333 0.000865327 0.00055261)
(0.00530854 2.48953e-05 -3.30237e-05 -0.00911665 0.00123151 0.000318942)
(0.00374365 4.00447e-05 -2.53746e-05 -0.0064197 0.00144239 -4.6584e-05)
(0.00252116 6.50398e-05 -1.41565e-05 -0.00417549 0.00152186 -0.000459155)
(0.00157528 0.000105066 2.71768e-06 -0.0023261 0.00148248 -0.000854118)
(0.000980386 0.000139608 2.31961e-05 -0.000989393 0.0012934 -0.00117929)
(0.000819529 2.2882e-05 4.40191e-05 -0.000273473 0.000712407 -0.00133424)
(0.0114582 -3.4856e-06 -2.93692e-05 -0.0181063 0.000410277 8.65982e-05)
(0.00620632 6.47258e-06 -2.66375e-05 -0.0102726 0.00071626 9.76045e-05)
(0.00537505 2.14836e-05 -1.6791e-05 -0.00883469 0.000967807 -0.000113443)
(0.00382848 4.28275e-05 -7.96941e-06 -0.00623162 0.00111998 -0.000412449)
(0.00259297 7.63075e-05 2.16718e-06 -0.00404531 0.00118438 -0.000743351)
(0.00161815 0.000124635 1.45129e-05 -0.00222508 0.0011595 -0.00105776)
(0.00097978 0.000165046 2.7289e-05 -0.000894464 0.00101425 -0.00130061)
(0.000773328 5.26011e-05 3.91956e-05 -0.000204872 0.000557428 -0.0013541)
(0.0111713 -3.84126e-06 -1.85659e-05 -0.0175777 0.000394342 -4.34842e-05)
(0.00619158 5.81893e-06 -1.51633e-05 -0.0100083 0.00053512 -0.000175754)
(0.00539567 2.2221e-05 -6.69687e-06 -0.0086182 0.000697657 -0.000392012)
(0.00387612 4.73344e-05 7.8145e-07 -0.00608183 0.000798425 -0.000663678)