/*--------------------------------*- C++ -*----------------------------------*\
| =========                 |                                                 |
| \\      /  F ield         | foam-extend: Open Source CFD                    |
|  \\    /   O peration     | Version:     3.1                                |
|   \\  /    A nd           | Web:         http://www.extend-project.de       |
|    \\/     M anipulation  |                                                 |
\*---------------------------------------------------------------------------*/
FoamFile
{
    version     2.0;
    format      ascii;
    class       pointVectorField;
    location    "1.8";
    object      pointD;
}
// * * * * * * * * * * * * * * * * * * * * * * * * * * * * * * * * * * * * * //

dimensions      [0 1 0 0 0 0 0];

internalField   nonuniform List<vector> 
405
(
(0 0 0)
(0 0 0)
(0 0 0)
(0 0 0)
(0 0 0)
(0.000622119 0.000562876 0.000152496)
(0.000407447 0.000172419 0.000111367)
(0.000322997 -7.74232e-06 -7.81164e-06)
(0.000350309 -0.000187349 -0.000132119)
(0.000496914 -0.000548872 -0.000193852)
(0.0012062 0.000812335 2.46464e-06)
(0.00102212 0.000320574 2.4067e-05)
(0.000915234 -1.9962e-06 -2.79806e-05)
(0.000932991 -0.00032197 -9.25355e-05)
(0.00103251 -0.000800424 -0.000107129)
(0.00193798 0.00107932 -0.000116365)
(0.00175788 0.00046881 -4.76398e-05)
(0.00164934 7.94801e-06 -4.83068e-05)
(0.00165328 -0.000451347 -6.15177e-05)
(0.00173222 -0.00105688 -3.35608e-05)
(0.00273394 0.00127309 -0.000240891)
(0.00257281 0.000581124 -0.000120607)
(0.00246867 1.55142e-05 -6.46187e-05)
(0.00246093 -0.000549041 -2.13837e-05)
(0.00251237 -0.0012402 5.6345e-05)
(0.00357854 0.00141537 -0.000347243)
(0.00343309 0.00066407 -0.000182587)
(0.00333458 1.94808e-05 -7.71999e-05)
(0.00331888 -0.000622811 1.63301e-05)
(0.00335016 -0.00137272 0.000139937)
(0.00444553 0.00151314 -0.000434165)
(0.00431183 0.000720979 -0.000233921)
(0.00421893 1.93442e-05 -8.8259e-05)
(0.00419883 -0.000677028 4.82897e-05)
(0.00421682 -0.00146226 0.000212895)
(0.00532216 0.0015871 -0.000502789)
(0.00519353 0.000760104 -0.000278129)
(0.00510109 1.69561e-05 -0.000100942)
(0.00507873 -0.000718352 7.05687e-05)
(0.00509208 -0.0015245 0.00026787)
(0.00621788 0.0016373 -0.000543344)
(0.0060676 0.000792016 -0.000307599)
(0.00594652 1.94957e-05 -0.000113496)
(0.00593077 -0.00074744 7.46768e-05)
(0.00595554 -0.00156509 0.000285811)
(0 0 0)
(0 0 0)
(0 0 0)
(0 0 0)
(0 0 0)
(0.000618289 0.000553783 6.60954e-05)
(0.000414118 0.000169938 5.45101e-05)
(0.000346837 -7.81067e-07 -6.92583e-06)
(0.000366368 -0.000166926 -7.41559e-05)
(0.000504632 -0.000519586 -0.000101929)
(0.00116712 0.000857555 -2.43287e-05)
(0.00099918 0.00036107 2.86133e-06)
(0.000916266 8.74313e-06 -2.38299e-05)
(0.000925318 -0.00033888 -6.05905e-05)
(0.00101454 -0.000821982 -5.90924e-05)
(0.00184777 0.00112316 -0.000125564)
(0.00168776 0.000509566 -5.69833e-05)
(0.00160544 1.94351e-05 -4.08375e-05)
(0.00160176 -0.000468145 -3.5402e-05)
(0.00166827 -0.00107668 3.72544e-06)
(0.00259858 0.00131719 -0.000226747)
(0.00245673 0.000621677 -0.000115643)
(0.00237846 2.765e-05 -5.49514e-05)
(0.00236453 -0.000564763 -5.18171e-06)
(0.00240496 -0.001259 7.52494e-05)
(0.00340131 0.00145389 -0.000316769)
(0.00327453 0.000700498 -0.000167637)
(0.00320108 3.26663e-05 -6.64164e-05)
(0.0031799 -0.000632993 2.45755e-05)
(0.00320086 -0.00138438 0.000144347)
(0.00423291 0.00154523 -0.000392008)
(0.00411688 0.000752659 -0.000211566)
(0.00404761 3.4464e-05 -7.70249e-05)
(0.00402208 -0.000679184 4.93052e-05)
(0.00403014 -0.00146394 0.000204539)
(0.00508062 0.0016104 -0.000450513)
(0.00496844 0.000784737 -0.000247934)
(0.00489779 3.40565e-05 -8.93468e-05)
(0.00487027 -0.000708953 6.33738e-05)
(0.00487442 -0.00151128 0.000247198)
(0.00596033 0.00165349 -0.000481531)
(0.00582554 0.000810718 -0.000270115)
(0.0057248 3.77211e-05 -0.000102359)
(0.00570338 -0.000728939 5.82066e-05)
(0.00571897 -0.00154003 0.000252209)
(0 0 0)
(0 0 0)
(0 0 0)
(0 0 0)
(0 0 0)
(0.000617425 0.00054487 1.16443e-05)
(0.000403631 0.000171019 1.51438e-05)
(0.000331662 2.6496e-06 -7.89179e-06)
(0.000352196 -0.000161358 -3.48631e-05)
(0.000494296 -0.000505058 -3.93111e-05)
(0.00114166 0.00084112 -5.00747e-05)
(0.000964582 0.000364139 -2.09257e-05)
(0.000877572 1.54581e-05 -2.19325e-05)
(0.000887769 -0.000328953 -2.9055e-05)
(0.00098211 -0.00079542 -1.13519e-05)
(0.00178507 0.00110807 -0.000125268)
(0.00162165 0.000515939 -6.57104e-05)
(0.0015382 2.88399e-05 -3.60214e-05)
(0.00153363 -0.00045595 -1.26973e-05)
(0.00160008 -0.00104439 3.41168e-05)
(0.00250094 0.00130492 -0.000202932)
(0.0023567 0.000629799 -0.00011124)
(0.00227828 3.94624e-05 -4.81696e-05)
(0.00226288 -0.000549125 8.53566e-06)
(0.00230225 -0.00122278 8.72569e-05)
(0.00326996 0.00144448 -0.000274578)
(0.00314184 0.000709881 -0.000152926)
(0.00306891 4.6757e-05 -5.8515e-05)
(0.00304576 -0.000613494 3.00919e-05)
(0.00306452 -0.0013441 0.000139897)
(0.00407114 0.00153856 -0.000336117)
(0.00395453 0.000762494 -0.0001889)
(0.00388642 5.07048e-05 -6.85103e-05)
(0.00385848 -0.00065503 4.74462e-05)
(0.00386335 -0.00141913 0.000185593)
(0.00489209 0.00160681 -0.00038425)
(0.0047806 0.00079418 -0.000218158)
(0.0047117 5.21927e-05 -8.03667e-05)
(0.0046812 -0.000679503 5.44274e-05)
(0.00468106 -0.0014614 0.000215894)
(0.00575302 0.00165147 -0.000405993)
(0.00561924 0.000819418 -0.00023397)
(0.00551927 5.76974e-05 -9.43651e-05)
(0.00549253 -0.00069403 4.01067e-05)
(0.005502 -0.00148454 0.000207448)
(0 0 0)
(0 0 0)
(0 0 0)
(0 0 0)
(0 0 0)
(0.000606699 0.000532734 -1.71985e-05)
(0.000387926 0.000168788 -5.07477e-06)
(0.000311333 4.63616e-06 -7.74623e-06)
(0.000331587 -0.000155295 -1.26249e-05)
(0.000474797 -0.000486956 -4.79791e-06)
(0.00111063 0.000818445 -6.46161e-05)
(0.000926743 0.000359147 -3.2754e-05)
(0.000834159 2.02719e-05 -1.9154e-05)
(0.000844027 -0.000314571 -8.88134e-06)
(0.000941853 -0.000763834 1.74791e-05)
(0.00172759 0.00108294 -0.000121166)
(0.00155862 0.000511582 -6.64811e-05)
(0.00147037 3.67696e-05 -3.05023e-05)
(0.00146493 -0.000435862 2.24501e-06)
(0.00153397 -0.00100384 5.13973e-05)
(0.0024159 0.00128161 -0.000180111)
(0.00226757 0.000627391 -0.000101238)
(0.00218516 5.05125e-05 -4.05933e-05)
(0.00216843 -0.000524389 1.6991e-05)
(0.00220924 -0.00117662 9.05944e-05)
(0.00315835 0.00142485 -0.000235841)
(0.00302739 0.000710075 -0.000133861)
(0.00295115 6.07973e-05 -4.95957e-05)
(0.00292639 -0.000584838 3.20756e-05)
(0.00294549 -0.00129387 0.000129714)
(0.00393494 0.0015234 -0.000284758)
(0.00381658 0.000765316 -0.00016263)
(0.00374588 6.74746e-05 -5.86927e-05)
(0.00371599 -0.000622772 4.3589e-05)
(0.00372006 -0.00136547 0.00016335)
(0.00473381 0.00159681 -0.000323272)
(0.00462186 0.000799406 -0.000185962)
(0.00455086 7.13803e-05 -6.97426e-05)
(0.00451757 -0.000643815 4.56945e-05)
(0.00451488 -0.00140415 0.000183755)
(0.00557777 0.00164639 -0.000339167)
(0.00544387 0.00082741 -0.000198059)
(0.00534062 7.92269e-05 -8.3602e-05)
(0.00530845 -0.000655674 2.82424e-05)
(0.00531313 -0.00142465 0.00016982)
(0 0 0)
(0 0 0)
(0 0 0)
(0 0 0)
(0 0 0)
(0.000592972 0.00052038 -2.75105e-05)
(0.000372215 0.000166048 -1.30751e-05)
(0.000292855 6.10923e-06 -6.60358e-06)
(0.000312097 -0.000149402 -1.29583e-06)
(0.000454156 -0.000468719 1.08094e-05)
(0.00107973 0.00079814 -6.49501e-05)
(0.00089121 0.000353426 -3.47696e-05)
(0.000794827 2.4195e-05 -1.55176e-05)
(0.000803603 -0.000300835 1.94572e-06)
(0.000902963 -0.000734862 2.9437e-05)
(0.00167605 0.00105971 -0.000107762)
(0.00150219 0.000505615 -6.01225e-05)
(0.00141017 4.36005e-05 -2.43353e-05)
(0.0014037 -0.000416102 9.88023e-06)
(0.00147456 -0.000966491 5.52435e-05)
(0.00234307 0.00125921 -0.000152083)
(0.00219035 0.000622891 -8.62453e-05)
(0.00210455 6.03811e-05 -3.23706e-05)
(0.00208675 -0.000499862 2.01555e-05)
(0.00212915 -0.00113358 8.41597e-05)
(0.00306485 0.00140534 -0.000194527)
(0.00293026 0.000707957 -0.000111181)
(0.00285111 7.36127e-05 -3.98411e-05)
(0.0028252 -0.000556482 3.05186e-05)
(0.00284533 -0.00124678 0.00011278)
(0.00382202 0.00150764 -0.000232436)
(0.00370083 0.000765823 -0.000133585)
(0.00362772 8.29614e-05 -4.76858e-05)
(0.00359651 -0.00059122 3.78665e-05)
(0.00360078 -0.00131512 0.000136984)
(0.00460301 0.00158512 -0.000262543)
(0.00448911 0.000802384 -0.000151805)
(0.00441588 8.92051e-05 -5.73368e-05)
(0.00438065 -0.000609497 3.73117e-05)
(0.00437701 -0.00135066 0.000150352)
(0.00543199 0.00163821 -0.00027375)
(0.0052962 0.000832856 -0.000160674)
(0.0051897 9.93206e-05 -6.95774e-05)
(0.00515373 -0.000619081 2.03765e-05)
(0.00515599 -0.00136873 0.000135475)
(0 0 0)
(0 0 0)
(0 0 0)
(0 0 0)
(0 0 0)
(0.000579994 0.000509692 -2.70013e-05)
(0.000359034 0.000163666 -1.39656e-05)
(0.000278155 7.29423e-06 -5.00393e-06)
(0.000296288 -0.000144384 3.36867e-06)
(0.000436252 -0.000453029 1.51335e-05)
(0.00105279 0.000781963 -5.53491e-05)
(0.000861675 0.000348758 -3.02812e-05)
(0.000762984 2.7417e-05 -1.15448e-05)
(0.000770604 -0.000289446 6.23703e-06)
(0.000870218 -0.000711067 2.99517e-05)
(0.00163307 0.00104126 -8.66325e-05)
(0.00145594 0.000500618 -4.86484e-05)
(0.00136142 4.92526e-05 -1.80154e-05)
(0.00135404 -0.000399591 1.18768e-05)
(0.00142581 -0.000935982 4.89604e-05)
(0.00228387 0.00124122 -0.000118727)
(0.00212783 0.00061894 -6.74929e-05)
(0.00203968 6.85854e-05 -2.40291e-05)
(0.00202112 -0.000479232 1.88926e-05)
(0.00206463 -0.00109831 6.96445e-05)
(0.00298992 0.00138936 -0.000149669)
(0.00285236 0.000705829 -8.56779e-05)
(0.00277113 8.42896e-05 -2.98046e-05)
(0.00274452 -0.000532553 2.57938e-05)
(0.00276558 -0.00120798 8.98502e-05)
(0.00373216 0.00149428 -0.000177645)
(0.00360847 0.000765729 -0.000102242)
(0.0035336 9.5855e-05 -3.60396e-05)
(0.00350163 -0.0005646 3.0298e-05)
(0.00350638 -0.00127348 0.000106629)
(0.004499 0.0015745 -0.000200004)
(0.00438319 0.000804175 -0.000115744)
(0.00430832 0.000104004 -4.37394e-05)
(0.00427193 -0.000580633 2.87065e-05)
(0.00426806 -0.00130636 0.000115146)
(0.00531544 0.00162999 -0.00020774)
(0.00517769 0.000836561 -0.000122015)
(0.00506876 0.00011599 -5.34458e-05)
(0.00503049 -0.000588338 1.46513e-05)
(0.00503165 -0.00132235 0.000102303)
(0 0 0)
(0 0 0)
(0 0 0)
(0 0 0)
(0 0 0)
(0.000569845 0.000501631 -2.04873e-05)
(0.000349367 0.000161906 -1.09381e-05)
(0.000267698 8.18764e-06 -3.29688e-06)
(0.000284915 -0.000140618 4.0627e-06)
(0.000422836 -0.000441242 1.2956e-05)
(0.00103236 0.000770325 -3.96199e-05)
(0.000839935 0.000345463 -2.19043e-05)
(0.00073993 2.98453e-05 -7.57875e-06)
(0.000746614 -0.000281048 6.2572e-06)
(0.000845938 -0.000693573 2.33179e-05)
(0.00160105 0.0010281 -6.02454e-05)
(0.00142196 0.0004971 -3.39329e-05)
(0.00132593 5.3494e-05 -1.18301e-05)
(0.00131786 -0.0003874 9.94025e-06)
(0.00138997 -0.00091365 3.59377e-05)
(0.00224027 0.00122836 -8.12673e-05)
(0.00208206 0.000616143 -4.6225e-05)
(0.00199244 7.47173e-05 -1.58406e-05)
(0.00197337 -0.000463962 1.4352e-05)
(0.00201754 -0.00107249 4.93802e-05)
(0.00293512 0.0013778 -0.000101613)
(0.00279548 0.000704283 -5.81682e-05)
(0.00271293 9.22389e-05 -1.97805e-05)
(0.00268592 -0.000514805 1.85855e-05)
(0.00270766 -0.00117953 6.23636e-05)
(0.00366665 0.00148437 -0.000120147)
(0.00354114 0.000765561 -6.91452e-05)
(0.00346514 0.000105416 -2.41087e-05)
(0.00343276 -0.000544842 2.11477e-05)
(0.00343798 -0.00124286 7.29848e-05)
(0.00442319 0.00156625 -0.000135012)
(0.00430589 0.000805257 -7.81032e-05)
(0.00422995 0.000114935 -2.94516e-05)
(0.00419295 -0.000559213 1.95844e-05)
(0.00418918 -0.00127374 7.80359e-05)
(0.00523025 0.00162319 -0.000139907)
(0.0050909 0.000838903 -8.21239e-05)
(0.00498036 0.000128272 -3.61183e-05)
(0.00494081 -0.000565485 9.6943e-06)
(0.00494159 -0.00128808 6.88252e-05)
(0 0 0)
(0 0 0)
(0 0 0)
(0 0 0)
(0 0 0)
(0.000563483 0.000496659 -1.08872e-05)
(0.000343526 0.000160839 -5.89234e-06)
(0.000261486 8.74554e-06 -1.62485e-06)
(0.000278111 -0.000138297 2.53098e-06)
(0.000414618 -0.000433993 7.25141e-06)
(0.00101971 0.000763326 -2.05354e-05)
(0.000826726 0.000343521 -1.14108e-05)
(0.000726058 3.13566e-05 -3.73996e-06)
(0.000732145 -0.000275926 3.72422e-06)
(0.000831117 -0.000682916 1.2587e-05)
(0.00158137 0.00102024 -3.08054e-05)
(0.00140128 0.000495044 -1.73763e-05)
(0.00130446 5.61211e-05 -5.84819e-06)
(0.00129597 -0.000379966 5.5545e-06)
(0.00136815 -0.000900078 1.88982e-05)
(0.00221361 0.00122068 -4.12355e-05)
(0.00205422 0.000614515 -2.34576e-05)
(0.0019638 7.84983e-05 -7.85577e-06)
(0.00194444 -0.000454645 7.69198e-06)
(0.00198893 -0.00105681 2.55377e-05)
(0.00290172 0.00137084 -5.13517e-05)
(0.00276089 0.00070338 -2.93887e-05)
(0.00267762 9.71207e-05 -9.85427e-06)
(0.0026504 -0.000503968 9.70805e-06)
(0.00267253 -0.00116223 3.19052e-05)
(0.00362675 0.00147832 -6.06051e-05)
(0.00350018 0.000765443 -3.48671e-05)
(0.00342356 0.000111267 -1.20702e-05)
(0.003391 -0.000532773 1.08657e-05)
(0.00339654 -0.00122424 3.70664e-05)
(0.004377 0.00156104 -6.8039e-05)
(0.00425881 0.000805835 -3.93394e-05)
(0.00418229 0.000121605 -1.48015e-05)
(0.004145 -0.000546129 9.94551e-06)
(0.00414138 -0.00125388 3.9424e-05)
(0.00517823 0.00161872 -7.04238e-05)
(0.00503793 0.000840179 -4.13081e-05)
(0.00492651 0.000135758 -1.81817e-05)
(0.00488631 -0.000551506 4.86988e-06)
(0.00488701 -0.00126719 3.46549e-05)
(0 0 0)
(0 0 0)
(0 0 0)
(0 0 0)
(0 0 0)
(0.000561322 0.000494983 -0)
(0.000341576 0.000160482 0)
(0.000259429 8.93523e-06 0)
(0.000275851 -0.000137515 0)
(0.000411857 -0.000431553 0)
(0.00101544 0.000760991 -0)
(0.000822303 0.000342881 0)
(0.000721434 3.18693e-05 0)
(0.000727317 -0.000274206 0)
(0.000826144 -0.000679341 0)
(0.00157474 0.00101762 -0)
(0.00139435 0.00049437 0)
(0.00129728 5.70102e-05 0)
(0.00128865 -0.000377471 0)
(0.00136083 -0.000895529 0)
(0.00220464 0.00121812 -0)
(0.00204487 0.000613983 0)
(0.00195421 7.97747e-05 0)
(0.00193475 -0.000451518 0)
(0.00197934 -0.00105156 0)
(0.00289049 0.00136852 -0)
(0.00274929 0.000703085 0)
(0.00266579 9.87651e-05 0)
(0.0026385 -0.00050033 0)
(0.00266076 -0.00115644 0)
(0.00361334 0.00147628 -0)
(0.00348643 0.000765401 0)
(0.00340961 0.000113234 0)
(0.00337701 -0.000528722 0)
(0.00338265 -0.001218 0)
(0.00436147 0.00155926 -0)
(0.00424299 0.000806013 0)
(0.00416629 0.000123845 0)
(0.00412893 -0.000541736 0)
(0.00412536 -0.00124722 0)
(0.00516072 0.00161713 -0)
(0.00502012 0.000840573 -0)
(0.00490842 0.000138274 -0)
(0.00486803 -0.000546809 0)
(0.00486871 -0.00126018 0)
)
;

boundaryField
{
    interface
    {
        type            calculated;
    }
    symmetry
    {
        type            symmetryPlane;
    }
    bottom
    {
        type            fixedValue;
        value           uniform (0 0 0);
    }
}


// ************************************************************************* //
