/*--------------------------------*- C++ -*----------------------------------*\
| =========                 |                                                 |
| \\      /  F ield         | foam-extend: Open Source CFD                    |
|  \\    /   O peration     | Version:     3.1                                |
|   \\  /    A nd           | Web:         http://www.extend-project.de       |
|    \\/     M anipulation  |                                                 |
\*---------------------------------------------------------------------------*/
FoamFile
{
    version     2.0;
    format      ascii;
    class       volScalarField;
    location    "1.8";
    object      sigmaCauchyEq;
}
// * * * * * * * * * * * * * * * * * * * * * * * * * * * * * * * * * * * * * //

dimensions      [1 -1 -2 0 0 0 0];

internalField   nonuniform List<scalar> 
256
(
159.445
79.3283
71.357
127.618
112.941
95.1476
84.8698
92.6524
104.267
87.9704
77.626
79.5672
85.304
76.8916
67.5244
60.2156
69.3446
65.1476
56.9739
44.4827
56.463
53.8337
46.8787
32.2166
48.7522
44.4462
37.0854
23.7727
48.4741
39.8949
24.4886
18.008
155.706
79.5398
70.645
120.914
116.584
89.8065
78.7804
93.758
101.583
76.4747
65.9865
75.8523
82.4434
64.6233
55.1924
56.405
66.1378
53.4295
45.5614
40.6795
53.7138
43.6798
37.4351
29.1537
46.2804
36.2954
30.3936
21.6525
46.2742
34.9962
22.5393
17.0741
152.908
76.2653
65.8863
115.669
115.223
85.8369
73.0163
89.7844
101.614
72.7047
60.1484
72.7862
82.7473
60.686
49.3052
53.6964
66.5085
49.8995
40.3773
38.3456
53.988
40.7793
33.3838
27.2953
46.3484
34.2374
27.7712
20.3414
45.9067
34.4623
21.4992
15.1543
149.36
72.7303
61.2122
110.751
113.515
82.887
68.4511
86.1499
101.337
70.8942
56.416
69.8836
83.2689
59.4578
46.1884
51.2355
67.3416
49.1329
37.9497
36.1101
54.883
40.3848
31.7122
25.2985
47.1946
34.2122
26.8501
18.7463
46.7343
35.1823
21.0085
13.6299
145.895
69.644
57.3294
106.441
112.109
80.528
64.8454
83.2099
101.052
69.7032
53.7636
67.4874
83.787
58.9865
44.2886
49.2342
68.2299
49.1282
36.6915
34.2573
55.8863
40.652
30.997
23.5437
48.2121
34.6402
26.5325
17.3268
47.7886
35.8809
20.6271
12.5478
143.001
67.2698
54.4047
103.008
111.003
78.7308
62.1314
80.9476
100.782
68.8342
51.8477
65.6476
84.1607
58.7296
43.0317
47.7274
68.9232
49.2592
35.9614
32.8701
56.695
40.9809
30.6549
22.2103
49.0545
35.0328
26.4017
16.2645
48.7166
36.3274
20.2204
11.8574
140.962
65.684
52.4647
100.634
110.233
77.519
60.3111
79.3986
100.565
68.2433
50.5766
64.3921
84.3825
58.5616
42.2289
46.7145
69.3687
49.3593
35.5263
31.9499
57.2267
41.2109
30.4726
21.3308
49.62
35.2859
26.3261
15.5862
49.3587
36.5627
19.8642
11.4672
139.915
64.8943
51.4999
99.4245
109.835
76.9098
59.3971
78.6095
100.443
67.9416
49.9387
63.7533
84.4799
58.4728
41.8311
46.2031
69.5796
49.4059
35.3162
31.4897
57.4821
41.3217
30.3874
20.8951
49.8938
35.4037
26.2852
15.2595
49.6743
36.6586
19.6561
11.294
)
;

boundaryField
{
    interface
    {
        type            calculated;
        value           nonuniform List<scalar> 
192
(
249.411
123.785
122.482
95.2879
76.1201
61.0919
54.3691
48.7696
245.854
134.374
124.865
99.4397
79.9804
65.6359
58.7116
52.6799
242.486
131.549
124.633
99.7119
80.0886
65.3732
58.1609
50.7899
238.156
128.984
124.118
100.234
80.9703
66.2904
59.1013
51.4117
233.604
127.085
123.609
100.695
81.8639
67.3069
60.2074
52.3407
229.646
125.697
123.196
101.052
82.5928
68.1725
61.1741
53.3334
226.787
124.755
122.887
101.267
83.0664
68.7493
61.8282
54.0532
225.298
124.271
122.714
101.357
83.2872
69.0244
62.1387
54.4046
175.384
106.845
109.004
89.5702
74.2179
61.0903
52.7597
52.5201
77.2832
97.0573
96.7667
85.9865
73.8874
61.4048
50.487
44.8748
70.2809
86.3032
85.5366
75.6609
64.611
53.2116
41.5996
25.9954
149.933
86.3713
84.5211
64.1501
49.0327
36.4681
27.537
21.2985
204.528
105.117
95.7918
67.9875
47.3127
31.0263
21.5434
16.9042
195.439
111.726
95.2724
69.0087
48.6943
33.7427
24.8478
19.7257
189.951
107.602
92.8225
67.2175
47.1935
32.4827
23.8289
17.4349
183.971
104.027
90.0938
65.0056
45.0662
30.2681
21.7162
15.9167
178.147
101.236
87.7718
63.0883
43.1478
28.105
19.5811
14.8298
173.261
99.095
85.9603
61.6164
41.6743
26.4049
17.9054
14.2921
169.794
97.6149
84.7045
60.6141
40.6837
25.2618
16.7988
14.0858
168.007
96.8544
84.0584
60.1031
40.1837
24.6885
16.2577
14.0329
52.641
49.9484
49.8759
50.6253
51.6675
52.5838
53.2263
53.5333
41.2412
37.3379
37.8431
39.0739
39.9741
40.4646
40.6902
40.7752
15.8615
17.352
17.1773
16.6987
15.865
14.7862
13.7894
13.1937
19.7747
18.0989
15.2465
13.1013
11.6423
10.6737
10.0835
9.79965
)
;
    }
    symmetry
    {
        type            symmetryPlane;
    }
    bottom
    {
        type            calculated;
        value           nonuniform List<scalar> 
32
(
145.788
125.464
120.402
117.491
114.788
112.425
110.695
109.787
58.136
54.4374
49.6254
45.6032
42.4775
40.2015
38.7221
37.9944
52.0192
48.0922
42.2489
37.3725
33.7419
31.1967
29.5789
28.7915
119.642
96.8231
88.1957
83.2011
79.4279
76.4849
74.4292
73.3695
)
;
    }
}


// ************************************************************************* //
