/*--------------------------------*- C++ -*----------------------------------*\
| =========                 |                                                 |
| \\      /  F ield         | foam-extend: Open Source CFD                    |
|  \\    /   O peration     | Version:     3.1                                |
|   \\  /    A nd           | Web:         http://www.extend-project.de       |
|    \\/     M anipulation  |                                                 |
\*---------------------------------------------------------------------------*/
FoamFile
{
    version     2.0;
    format      ascii;
    class       volScalarField;
    location    "1.8";
    object      sigmaEq;
}
// * * * * * * * * * * * * * * * * * * * * * * * * * * * * * * * * * * * * * //

dimensions      [1 -1 -2 0 0 0 0];

internalField   nonuniform List<scalar> 
256
(
151.55
78.6614
72.3474
134.795
112.354
95.0354
85.4886
93.775
103.242
88.0313
78.1272
80.8317
84.993
77.0953
67.8782
60.835
69.3194
65.4034
57.226
44.815
56.613
54.1027
47.0529
32.3727
48.9445
44.7051
37.2023
23.8429
48.821
40.2326
24.5247
18.0074
147.939
78.7229
71.5851
127.487
115.274
89.2989
79.5687
95.4343
100.415
76.3307
66.4823
77.145
81.9284
64.6153
55.545
57.0983
65.9621
53.5027
45.8048
41.0554
53.7245
43.7901
37.6036
29.3511
46.3562
36.4298
30.5087
21.7557
46.5047
35.2314
22.5972
17.1174
145.367
75.4546
66.7529
121.835
114.056
85.3559
73.741
91.3642
100.509
72.5686
60.603
74.0299
82.2627
60.675
49.6245
54.3714
66.3505
49.9615
40.5971
38.7111
54.0101
40.8751
33.5367
27.4873
46.4324
34.3578
27.8792
20.4418
46.155
34.6907
21.559
15.1927
142.136
71.9694
61.9971
116.477
112.495
82.4641
69.1088
87.6039
100.318
70.7912
56.8316
71.0387
82.8277
59.4658
46.4807
51.8608
67.2057
49.2043
38.1513
36.444
54.9164
40.4847
31.8535
25.4698
47.2817
34.3348
26.9526
18.8334
46.9819
35.4165
21.0692
13.6628
138.989
68.9312
58.0427
111.765
111.198
80.1489
65.4472
84.5599
100.111
69.6245
54.1469
68.5578
83.3891
59.0083
44.5592
49.8069
68.1193
49.207
36.8789
34.5548
55.9357
40.7561
31.1293
23.6898
48.307
34.7664
26.6302
17.3982
48.0426
36.1219
20.686
12.574
136.358
66.5935
55.0632
108.013
110.165
78.3796
62.6907
82.221
99.8946
68.7697
52.2062
66.6516
83.7942
58.7591
43.2858
48.2569
68.8323
49.342
36.1379
33.1362
56.7578
41.0877
30.7801
22.3335
49.1566
35.1618
26.4947
16.3218
48.9754
36.5725
20.2761
11.8779
134.502
65.0313
53.0869
105.422
109.437
77.1837
60.842
80.6217
99.712
68.1861
50.9185
65.3516
84.0354
58.5949
42.4718
47.2142
69.2908
49.444
35.6954
32.1936
57.2989
41.3191
30.5928
21.4373
49.7277
35.4165
26.4156
15.6333
49.6211
36.8098
19.9165
11.4837
133.548
64.253
52.104
104.103
109.059
76.5816
59.9139
79.8077
99.6058
67.8875
50.2723
64.6904
84.1421
58.5074
42.0684
46.6878
69.508
49.4913
35.4816
31.722
57.5592
41.4305
30.505
20.9929
50.0045
35.535
26.3727
15.3011
49.9383
36.9065
19.7063
11.3085
)
;

boundaryField
{
    interface
    {
        type            calculated;
        value           nonuniform List<scalar> 
192
(
240.292
121.672
120.619
94.3681
75.7372
61.0042
54.3905
48.8445
237.38
131.999
123.007
98.5095
79.5981
65.5426
58.7302
52.7389
234.507
129.442
122.885
98.8282
79.7269
65.2926
58.1891
50.8574
230.65
127.126
122.521
99.4287
80.6532
66.2372
59.1426
51.4774
226.513
125.404
122.135
99.9598
81.5898
67.282
60.2639
52.4056
222.882
124.134
121.807
100.368
82.3523
68.1714
61.2445
53.3976
220.245
123.265
121.552
100.615
82.8483
68.7651
61.9091
54.1171
218.868
122.814
121.404
100.72
83.0801
69.0488
62.225
54.4681
170.369
106.718
108.344
89.5288
74.4031
61.4134
53.1126
52.9985
76.8795
97.2653
97.024
86.3762
74.3047
61.81
50.8517
45.2611
71.1443
86.8033
86.0397
76.0242
64.8809
53.4029
41.7299
26.0388
154.832
87.1885
85.6054
64.6769
49.3124
36.5868
27.5765
21.2757
213.239
107.479
97.7252
68.9681
47.7944
31.2388
21.6415
16.9351
203.329
114.502
97.3035
70.11
49.2734
34.043
25.0177
19.8124
197.316
110.18
94.7718
68.2911
47.7624
32.7793
23.9967
17.514
190.836
106.4
91.9076
66.0033
45.5862
30.532
21.8633
15.9867
184.569
103.447
89.4605
64.0056
43.6101
28.3269
19.7032
14.8922
179.331
101.189
87.5517
62.4674
42.0861
26.5879
18.005
14.3506
175.624
99.6313
86.2305
61.4193
41.0593
25.4157
16.8819
14.1425
173.715
98.8322
85.5516
60.885
40.5405
24.8269
16.3321
14.0892
53.1509
50.3614
50.2918
51.045
52.0971
53.0217
53.6699
53.98
41.6032
37.6312
38.1364
39.3784
40.2872
40.7816
41.0084
41.0932
15.8929
17.4023
17.2304
16.7524
15.917
14.8342
13.8329
13.234
19.7565
18.1137
15.259
13.1128
11.6526
10.683
10.0921
9.80786
)
;
    }
    symmetry
    {
        type            symmetryPlane;
    }
    bottom
    {
        type            calculated;
        value           nonuniform List<scalar> 
32
(
139.466
120.054
115.203
112.46
109.94
107.74
106.129
105.283
57.6894
53.9573
49.1577
45.1666
42.0707
39.8177
38.3538
37.6338
52.6515
48.6427
42.7292
37.7896
34.1098
31.5292
29.8888
29.0903
125.341
101.252
92.1966
86.8958
82.8639
79.7147
77.5161
76.3836
)
;
    }
}


// ************************************************************************* //
