/*--------------------------------*- C++ -*----------------------------------*\
| =========                 |                                                 |
| \\      /  F ield         | foam-extend: Open Source CFD                    |
|  \\    /   O peration     | Version:     3.1                                |
|   \\  /    A nd           | Web:         http://www.extend-project.de       |
|    \\/     M anipulation  |                                                 |
\*---------------------------------------------------------------------------*/
FoamFile
{
    version     2.0;
    format      ascii;
    class       volSymmTensorField;
    location    "1.8";
    object      sigma;
}
// * * * * * * * * * * * * * * * * * * * * * * * * * * * * * * * * * * * * * //

dimensions      [1 -1 -2 0 0 0 0];

internalField   nonuniform List<symmTensor> 
256
(
(103.725 45.2691 -1.77571 239.911 13.2941 123.139)
(9.05988 40.6004 -5.35948 44.5216 5.57166 15.8375)
(-31.7076 37.2531 -5.4224 -60.2732 -6.90373 -30.9046)
(-116.397 36.4123 -2.3625 -236.715 -16.1928 -126.244)
(-56.4472 19.1572 -2.28391 63.3226 -10.902 -16.3527)
(-27.5417 47.2993 -8.97025 23.7851 -4.27776 -8.80105)
(-7.21319 46.234 -9.28797 -31.7556 1.35747 -6.08777)
(18.6622 19.1424 -3.7466 -75.7349 6.93689 0.184149)
(-27.1615 20.9208 -1.37876 82.7452 -6.6417 15.6208)
(-30.0396 43.0654 -7.15486 21.7649 -2.46135 -5.188)
(-9.70656 43.2188 -7.538 -26.7158 0.162647 -7.59315)
(-6.79652 21.4497 -3.06758 -84.4579 4.08906 -22.1404)
(-34.8645 17.2018 -1.60164 55.8487 -7.14083 8.54936)
(-31.5619 37.4457 -6.7551 14.2443 -2.3951 -5.59447)
(-9.61843 37.9298 -7.01768 -18.8409 0.791117 -5.39673)
(-0.556294 18.2216 -3.31191 -56.4203 5.4081 -12.8814)
(-33.0678 14.2736 -1.534 40.3412 -6.0632 9.54982)
(-30.6679 31.3555 -6.27503 8.64132 -1.87059 -4.64399)
(-10.2984 32.0846 -6.46963 -13.7731 0.979578 -5.03238)
(-2.16737 15.6253 -3.19451 -40.0865 5.28061 -12.0016)
(-33.6284 10.765 -1.73347 25.506 -5.14269 8.03663)
(-30.0858 25.1642 -6.13128 3.16461 -1.54308 -4.61317)
(-10.3797 26.2512 -6.17604 -9.9903 1.05561 -4.82698)
(-1.78906 12.8146 -3.14919 -25.9036 5.07007 -10.3329)
(-32.7104 6.9562 -2.30091 17.59 -4.51084 9.04924)
(-30.4941 19.215 -6.36485 -1.28415 -1.5931 -4.85095)
(-10.3523 20.392 -6.1803 -7.63591 0.874454 -5.24069)
(-1.18067 9.90537 -3.20639 -16.7176 4.48079 -10.3676)
(-42.5445 5.04694 -3.14085 5.8651 -2.65675 3.99172)
(-40.9729 12.4526 -6.88768 -8.2849 -1.03362 -10.2569)
(-6.10778 12.2813 -6.75242 -2.33054 0.273867 -3.09606)
(5.05025 5.78263 -3.82481 -7.38822 2.0637 -8.32786)
(108.009 45.5809 -0.690097 242.679 4.96701 130.898)
(15.2124 41.2095 -3.93141 50.4385 2.1056 22.2283)
(-30.959 38.1666 -4.41524 -56.4383 -4.11873 -31.125)
(-114.566 36.9803 -2.03468 -229.702 -8.25395 -127.511)
(-35.258 16.2082 -0.796752 90.3921 -9.37533 7.73164)
(-11.9913 43.2203 -7.53205 40.5997 -3.80263 5.22807)
(-17.6388 42.5802 -8.71785 -43.135 0.415951 -17.1251)
(-0.97157 16.834 -3.88922 -99.8701 5.15761 -22.1955)
(-21.2635 16.2144 -0.0982738 86.9248 -11.0073 20.488)
(-20.8355 35.8107 -6.72319 27.9053 -4.12916 0.269867)
(-13.9603 36.1379 -8.12179 -29.7517 1.53407 -11.3644)
(-11.4905 16.8619 -3.69307 -87.4475 8.03698 -26.3047)
(-25.3229 12.8357 0.244302 63.0483 -10.9191 17.1226)
(-21.3014 30.0102 -5.84453 20.7804 -3.74018 0.575254)
(-14.0695 30.5119 -7.24391 -22.0235 2.28702 -9.57597)
(-8.16213 13.8139 -3.52097 -61.8795 9.35991 -20.0688)
(-24.7534 10.1869 0.532107 45.5592 -9.80041 16.9445)
(-21.093 24.5155 -5.18731 14.1646 -3.10729 0.718001)
(-13.7584 25.19 -6.54137 -15.6756 2.69446 -8.26987)
(-8.45776 11.4928 -3.20555 -43.4268 9.61861 -17.9553)
(-24.9435 7.32162 0.495531 30.9666 -8.32719 16.1372)
(-20.7259 19.4724 -4.90322 8.55567 -2.51733 0.686951)
(-13.3973 20.455 -6.09276 -11.0898 2.70674 -7.60986)
(-7.99146 9.3574 -2.93739 -28.562 9.16624 -16.4062)
(-24.4867 4.16334 -0.00130806 22.2937 -6.67757 16.843)
(-22.1367 14.9557 -5.19313 3.10947 -2.1273 -0.370104)
(-12.8859 16.0739 -6.13844 -7.815 2.19222 -7.36258)
(-6.34648 7.33926 -2.83258 -17.5061 7.79564 -15.3797)
(-34.3921 3.60981 -1.17277 10.7126 -3.76914 11.6341)
(-33.735 10.335 -6.44822 -4.59764 -1.24772 -6.72986)
(-9.69982 10.1051 -7.54522 -3.40988 1.07131 -5.93255)
(-1.10301 4.55959 -3.92795 -9.23971 4.28057 -14.1002)
(107.909 44.9538 -0.378387 241.958 -0.378211 135.042)
(16.5825 39.2409 -2.20289 52.7168 -0.226066 25.7133)
(-30.8118 35.8715 -2.60132 -55.197 -1.98781 -32.164)
(-113.946 35.3952 -1.32159 -226.403 -2.44513 -130.462)
(-35.282 15.0242 -0.616602 91.0919 -7.75793 14.7891)
(-10.9068 40.6114 -4.64308 43.2887 -3.29067 10.0478)
(-18.7549 39.923 -5.61273 -43.1466 0.305292 -20.2174)
(-3.88474 15.5574 -2.79725 -101.122 4.53111 -31.4115)
(-22.0115 14.7842 -0.416045 88.0335 -9.73819 24.1248)
(-20.2132 32.9159 -4.7558 30.1588 -3.78656 3.57061)
(-15.2021 33.2417 -5.90104 -30.1153 1.55086 -13.7585)
(-13.9478 15.2943 -2.91401 -89.2029 7.40585 -33.1046)
(-26.105 11.4766 -0.234031 63.8568 -10.0331 18.7617)
(-20.6363 26.9463 -4.38979 22.6181 -3.54926 3.07475)
(-15.3868 27.4589 -5.53199 -22.2462 2.43175 -11.3487)
(-10.961 12.4104 -2.7794 -63.7393 8.93412 -25.417)
(-25.8801 8.84606 -0.0794205 45.8496 -9.26684 17.1356)
(-20.3418 21.6998 -3.97219 15.8705 -2.98706 2.85502)
(-15.0018 22.4391 -5.05919 -15.7227 2.94789 -9.50268)
(-10.9039 10.2832 -2.52552 -44.7228 9.45348 -21.7895)
(-26.0349 6.09271 -0.112596 31.0187 -7.9719 15.6716)
(-19.8453 17.1169 -3.81718 10.1505 -2.37279 2.66242)
(-14.5066 18.2572 -4.76752 -10.8437 3.02566 -8.31415)
(-10.1696 8.49771 -2.28845 -29.2175 9.14067 -19.0332)
(-25.1632 3.02737 -0.506896 22.4712 -6.27981 16.1931)
(-21.2038 13.2307 -4.24839 4.51997 -1.82234 1.40026)
(-13.9234 14.5997 -5.04305 -7.28846 2.50964 -7.50961)
(-8.2358 6.86378 -2.28642 -17.388 7.80186 -16.7389)
(-35.6684 2.95499 -1.66247 9.98175 -3.2146 9.55861)
(-33.3916 9.45064 -5.87016 -3.63842 -0.849692 -5.63022)
(-10.8798 9.36412 -6.89915 -2.55603 1.18313 -5.05262)
(-1.97917 4.35343 -3.60314 -7.64912 4.08232 -12.6185)
(106.361 43.6762 -0.0944974 238.703 -2.81172 136.195)
(16.526 37.0353 -1.08328 53.0114 -1.2227 27.1298)
(-30.4641 33.3518 -1.34203 -53.7306 -0.764415 -32.4299)
(-111.631 33.3696 -0.730894 -220.764 0.545808 -130.263)
(-35.2942 14.0781 -0.208725 90.5737 -6.34554 20.0513)
(-11.465 38.54 -2.57134 43.7786 -2.68003 12.4077)
(-19.234 37.7609 -3.20939 -42.0155 0.329513 -21.7987)
(-5.52759 14.5692 -1.68664 -100.318 3.99595 -37.3554)
(-22.2726 14 -0.272889 88.8965 -7.80106 28.4077)
(-20.9814 31.2401 -3.0765 31.0103 -3.03466 5.44464)
(-16.0307 31.5609 -3.82815 -29.5554 1.35999 -15.3862)
(-15.1437 14.4781 -1.93603 -89.0733 6.18401 -38.2346)
(-26.2927 10.8233 -0.279018 65.3911 -8.13527 21.9544)
(-21.3932 25.523 -3.11725 23.5726 -2.87449 4.48414)
(-16.3285 26.0671 -3.84803 -21.8782 2.13801 -12.7213)
(-12.3462 11.8101 -1.92525 -64.2349 7.4823 -29.7636)
(-26.0013 8.27226 -0.251582 47.5793 -7.66903 19.3976)
(-20.9857 20.5251 -2.99889 16.8863 -2.45247 3.98989)
(-15.9417 21.3502 -3.67295 -15.4051 2.62625 -10.5111)
(-12.2527 9.88544 -1.78497 -45.2863 8.03481 -25.1154)
(-26.0207 5.57662 -0.328766 32.7648 -6.72039 17.3328)
(-20.3266 16.2049 -3.02894 11.1675 -1.962 3.68096)
(-15.3585 17.504 -3.60003 -10.4509 2.72621 -8.87532)
(-11.414 8.31715 -1.65189 -29.5595 7.85995 -21.337)
(-24.8368 2.545 -0.69084 24.3053 -5.35728 17.5496)
(-21.5652 12.6098 -3.58426 5.47981 -1.48095 2.35757)
(-14.744 14.1833 -4.05951 -6.77911 2.2787 -7.54373)
(-9.32645 6.86631 -1.74826 -17.241 6.73589 -17.8655)
(-35.3318 2.70687 -1.80971 11.6337 -2.78621 10.4643)
(-33.9378 9.14379 -5.32231 -2.70874 -0.671998 -4.69512)
(-12.0808 9.14024 -5.99763 -2.07668 1.08105 -4.47209)
(-3.06648 4.37775 -3.02619 -7.21982 3.5226 -12.3223)
(104.198 42.3535 0.0542319 234.59 -3.40351 135.478)
(16.2132 35.0989 -0.442852 52.7705 -1.43618 27.6648)
(-29.9975 31.1967 -0.602081 -52.2039 -0.13248 -32.2536)
(-108.76 31.5249 -0.359485 -214.568 1.71321 -128.432)
(-35.4351 13.2854 0.0468333 89.7021 -4.98847 23.0817)
(-12.0105 36.8007 -1.26747 43.8251 -2.06844 13.6469)
(-19.5513 35.9656 -1.66668 -40.7792 0.341161 -22.6745)
(-6.65341 13.7886 -0.917074 -99.0392 3.32702 -40.891)
(-22.7153 13.4055 -0.101152 89.081 -5.92848 31.2283)
(-21.6249 30.0136 -1.8333 31.5019 -2.27146 6.58886)
(-16.6608 30.3491 -2.30195 -28.795 1.10997 -16.5101)
(-15.7871 13.9108 -1.16661 -88.2202 4.86574 -41.5341)
(-26.643 10.4162 -0.200715 66.4048 -6.17171 24.4028)
(-22.029 24.6782 -2.0657 24.3014 -2.14995 5.42352)
(-17.0114 25.2635 -2.50827 -21.3254 1.71225 -13.7676)
(-13.1197 11.4881 -1.22612 -64.0489 5.8304 -32.8423)
(-26.275 7.97666 -0.255704 48.9555 -5.88664 21.3651)
(-21.5349 19.9632 -2.13984 17.7413 -1.856 4.78862)
(-16.603 20.863 -2.53405 -14.9526 2.10172 -11.3387)
(-13.002 9.75016 -1.18178 -45.3303 6.28315 -27.6259)
(-26.1795 5.34173 -0.368993 34.2405 -5.24362 18.9426)
(-20.753 15.8548 -2.29749 12.0511 -1.50961 4.4346)
(-15.9522 17.2703 -2.61787 -10.0158 2.18326 -9.38434)
(-12.0962 8.33838 -1.14285 -29.565 6.17665 -23.1504)
(-24.791 2.33169 -0.702897 25.8151 -4.24588 18.9772)
(-21.9295 12.425 -2.8831 6.2976 -1.15018 3.09662)
(-15.3267 14.1293 -3.14256 -6.33149 1.82241 -7.67068)
(-9.89442 6.99216 -1.30151 -16.9747 5.30062 -18.825)
(-35.5073 2.61704 -1.70404 12.7686 -2.21332 11.3511)
(-34.5861 9.08716 -4.49517 -2.05925 -0.511925 -4.10451)
(-12.9225 9.10896 -4.89837 -1.65955 0.857796 -4.18268)
(-3.59492 4.45688 -2.42057 -6.76023 2.75894 -12.29)
(102.215 41.2536 0.104517 230.874 -2.95426 134.19)
(15.906 33.6093 -0.124432 52.4375 -1.22598 27.8111)
(-29.5268 29.5636 -0.218573 -50.8565 0.12612 -31.913)
(-106.175 30.0792 -0.153403 -209.18 1.80476 -126.29)
(-35.4848 12.6677 0.153412 88.944 -3.60574 24.7513)
(-12.3923 35.4383 -0.535463 43.7785 -1.46845 14.2645)
(-19.7292 34.5727 -0.774988 -39.6922 0.299421 -23.1273)
(-7.4404 13.2044 -0.449208 -97.7983 2.50164 -42.9016)
(-23.0289 12.9437 0.0137163 89.0673 -4.16936 32.9447)
(-22.0428 29.0795 -0.99966 31.8273 -1.57045 7.24526)
(-17.0857 29.4353 -1.27972 -28.0792 0.822704 -17.235)
(-16.1713 13.4938 -0.64316 -87.266 3.50879 -43.5229)
(-26.8866 10.1231 -0.102255 67.0797 -4.31971 26.0778)
(-22.4425 24.0925 -1.26128 24.841 -1.48076 6.00961)
(-17.4529 24.7145 -1.51876 -20.7768 1.241 -14.4876)
(-13.5807 11.2761 -0.720389 -63.6427 4.15942 -34.8482)
(-26.465 7.78972 -0.183396 49.9612 -4.14759 22.8575)
(-21.8876 19.6333 -1.40614 18.3997 -1.29021 5.32783)
(-17.0148 20.5895 -1.62808 -14.5019 1.51316 -11.9368)
(-13.4316 9.68852 -0.72782 -45.1533 4.47617 -29.356)
(-26.2874 5.21249 -0.298247 35.3517 -3.73941 20.2858)
(-21.0251 15.6974 -1.60039 12.7326 -1.06729 4.97416)
(-16.3128 17.1932 -1.77308 -9.61332 1.56528 -9.77697)
(-12.481 8.39011 -0.741127 -29.4288 4.40307 -24.473)
(-24.7693 2.21793 -0.570342 26.9366 -3.06564 20.2494)
(-22.1752 12.3754 -2.10887 6.91118 -0.824429 3.63748)
(-15.6864 14.164 -2.24377 -5.96336 1.30057 -7.81993)
(-10.2085 7.10705 -0.903419 -16.7113 3.7767 -19.6176)
(-35.6076 2.57167 -1.34989 13.6876 -1.60818 12.3427)
(-35.0468 9.09244 -3.38922 -1.57231 -0.3663 -3.67188)
(-13.4626 9.12261 -3.61971 -1.34134 0.608768 -4.10927)
(-3.93996 4.51892 -1.76366 -6.46109 1.96272 -12.5603)
(100.76 40.4893 0.0870678 228.163 -1.94835 133.034)
(15.6832 32.6151 -0.00438166 52.1713 -0.80044 27.8137)
(-29.1577 28.4823 -0.0540288 -49.8692 0.15717 -31.5966)
(-104.291 29.1032 -0.0538375 -205.31 1.2874 -124.564)
(-35.4963 12.2479 0.138869 88.3929 -2.18288 25.5828)
(-12.624 34.5063 -0.181094 43.7303 -0.877787 14.5485)
(-19.8133 33.6255 -0.308798 -38.8963 0.204083 -23.3383)
(-7.93503 12.8156 -0.191088 -96.8451 1.55192 -43.9605)
(-23.2281 12.6237 0.0457278 88.9917 -2.48057 33.8681)
(-22.2812 28.4363 -0.475345 32.0374 -0.92242 7.59264)
(-17.3394 28.8089 -0.624192 -27.5404 0.506154 -17.659)
(-16.3902 13.2123 -0.310544 -86.5023 2.12018 -44.622)
(-27.04 9.92248 -0.039795 67.4766 -2.56034 27.0648)
(-22.678 23.6975 -0.666504 25.1998 -0.866969 6.34412)
(-17.7099 24.3458 -0.800649 -20.3557 0.75039 -14.9288)
(-13.8449 11.1349 -0.369847 -63.2653 2.49361 -36.0294)
(-26.5881 7.66739 -0.104847 50.5893 -2.46767 23.8022)
(-22.0849 19.4241 -0.789726 18.8412 -0.760417 5.65872)
(-17.2468 20.4174 -0.902515 -14.1554 0.908811 -12.3148)
(-13.6679 9.6501 -0.390477 -44.9486 2.67729 -30.4183)
(-26.3616 5.13367 -0.188455 36.0544 -2.24215 21.1893)
(-21.1743 15.6108 -0.940544 13.1868 -0.637151 5.32251)
(-16.5105 17.1564 -1.02518 -9.3134 0.935736 -10.0366)
(-12.687 8.42611 -0.415918 -29.2776 2.63122 -25.3222)
(-24.7727 2.15206 -0.367238 27.6356 -1.85374 21.136)
(-22.3133 12.3587 -1.28287 7.31392 -0.49765 3.99408)
(-15.8852 14.197 -1.34671 -5.70386 0.774169 -7.94209)
(-10.3701 7.18092 -0.533524 -16.5071 2.25407 -20.1735)
(-35.6932 2.54951 -0.860994 14.2628 -0.979503 13.0745)
(-35.3301 9.10768 -2.09895 -1.25817 -0.221227 -3.39196)
(-13.7733 9.13697 -2.21751 -1.12301 0.361583 -4.12438)
(-4.13153 4.55576 -1.0734 -6.26165 1.16967 -12.8547)
(100.001 40.1009 0.0327163 226.748 -0.675591 132.378)
(15.5685 32.1202 0.00955608 52.0285 -0.276217 27.7905)
(-28.9573 27.9463 -0.00591744 -49.3506 0.065342 -31.4138)
(-103.309 28.6141 -0.011914 -203.305 0.46065 -123.624)
(-35.4952 12.0362 0.0535181 88.1041 -0.730965 25.9174)
(-12.7324 34.0346 -0.0379786 43.7033 -0.292085 14.6555)
(-19.8442 33.1474 -0.0780142 -38.4778 0.0722636 -23.4178)
(-8.17243 12.6215 -0.0511222 -96.3316 0.525787 -44.4105)
(-23.3228 12.4598 0.0211834 88.9354 -0.823907 34.2613)
(-22.3883 28.1072 -0.137985 32.1416 -0.304362 7.73987)
(-17.4566 28.489 -0.184562 -27.2535 0.170849 -17.8528)
(-16.4891 13.0696 -0.0912231 -86.0846 0.709339 -45.1047)
(-27.1118 9.81922 -0.00981709 67.6586 -0.848851 27.5131)
(-22.7835 23.4951 -0.207002 25.3786 -0.285618 6.49387)
(-17.8269 24.1567 -0.248523 -20.1301 0.250986 -15.1365)
(-13.9654 11.0624 -0.113084 -63.0471 0.830954 -36.5709)
(-26.6465 7.60494 -0.0341625 50.8879 -0.819643 24.2513)
(-22.1723 19.318 -0.254031 19.0609 -0.251402 5.81447)
(-17.3502 20.3293 -0.288464 -13.97 0.302789 -12.4961)
(-13.7726 9.62925 -0.122697 -44.8222 0.890869 -30.9183)
(-26.3968 5.09404 -0.0646338 36.3904 -0.747644 21.6355)
(-21.239 15.5681 -0.310142 13.4114 -0.212106 5.49201)
(-16.5966 17.1371 -0.335401 -9.15509 0.310894 -10.1642)
(-12.7764 8.44223 -0.134114 -29.1858 0.874835 -25.7339)
(-24.7764 2.12031 -0.127228 27.9647 -0.621181 21.5827)
(-22.3735 12.3516 -0.43063 7.51139 -0.166708 4.16988)
(-15.9718 14.212 -0.449197 -5.57005 0.256621 -8.00881)
(-10.4387 7.21467 -0.176726 -16.3984 0.748686 -20.4583)
(-35.7312 2.54167 -0.296468 14.5365 -0.331216 13.4594)
(-35.4596 9.1184 -0.710296 -1.10311 -0.0743901 -3.25326)
(-13.9163 9.14301 -0.746766 -1.01319 0.119999 -4.15242)
(-4.22078 4.57056 -0.360851 -6.16553 0.388124 -13.0374)
)
;

boundaryField
{
    interface
    {
        type            calculated;
        value           nonuniform List<symmTensor> 
192
(
(-22.6188 -0.0639835 2.345 249.317 14.9159 73.4142)
(-22.349 -0.0381101 3.98782 109.979 -14.5969 12.4451)
(-22.2153 -0.120171 4.67115 114.134 -9.5394 29.6211)
(-22.0265 -0.327792 4.95181 84.3528 -10.2919 26.0369)
(-22.0004 -0.682482 5.02611 62.8443 -8.84036 25.4744)
(-22.1417 -1.2459 4.93608 44.354 -7.48298 23.7357)
(-22.4104 -2.24052 4.6437 34.5512 -6.24941 24.1795)
(-21.6545 -3.79537 3.97035 26.4322 -3.5646 25.2562)
(-24.9553 0.085741 1.57926 246.288 4.89458 77.649)
(-24.9615 0.141109 2.73917 122.245 -12.7226 22.8895)
(-25.3325 0.0340993 3.21187 112.419 -15.0381 29.7636)
(-25.5172 -0.262753 3.38961 83.9404 -15.0865 28.2458)
(-25.5792 -0.739755 3.40563 61.1896 -13.6339 27.5598)
(-25.5236 -1.47192 3.2903 43.0365 -11.6254 26.8129)
(-25.1153 -2.72389 3.02272 33.4862 -9.20564 28.0547)
(-22.4536 -4.49311 2.52109 26.8378 -5.16484 30.4676)
(-26.2476 0.106781 1.06015 242.661 -1.30075 80.7989)
(-26.1167 0.165941 1.85712 120.376 -10.3655 29.0365)
(-26.4931 0.0515755 2.15352 112.383 -13.0188 32.2884)
(-26.6898 -0.283245 2.24028 84.0764 -13.5371 28.3858)
(-26.6769 -0.828291 2.2211 61.1225 -12.6197 26.1785)
(-26.4248 -1.66042 2.11921 42.9404 -10.9572 24.7672)
(-25.5932 -3.04892 1.93154 33.7716 -8.68613 25.9388)
(-22.0508 -4.87411 1.62075 26.9787 -4.58674 27.7876)
(-27.0759 0.0950684 0.733257 237.781 -4.11738 82.2206)
(-26.8306 0.145908 1.30298 118.372 -8.48221 34.4936)
(-27.1499 0.0224318 1.50502 112.593 -10.3841 36.809)
(-27.2792 -0.334434 1.5502 85.3576 -10.9074 31.5563)
(-27.1845 -0.920454 1.52281 62.7371 -10.38 28.158)
(-26.7828 -1.8134 1.44299 44.6504 -9.19543 25.9793)
(-25.6867 -3.28065 1.31613 35.6462 -7.42913 26.7397)
(-21.6389 -5.12002 1.11442 28.8127 -4.02344 28.2844)
(-27.6209 0.080081 0.504772 232.699 -4.69465 82.1338)
(-27.3103 0.11865 0.909995 116.641 -6.69484 37.7591)
(-27.5732 -0.0159129 1.05163 112.523 -7.91233 40.1402)
(-27.6444 -0.38823 1.07799 86.4132 -8.27997 34.4342)
(-27.4803 -1.00013 1.0534 64.2873 -7.96435 30.416)
(-26.9724 -1.9308 0.995488 46.348 -7.17285 27.7559)
(-25.7046 -3.44785 0.911321 37.4066 -5.90378 28.2508)
(-21.3209 -5.29154 0.776688 30.4197 -3.22394 29.4801)
(-27.976 0.0681839 0.33089 228.35 -3.99661 81.4527)
(-27.6295 0.0954269 0.603567 115.287 -4.85608 39.5151)
(-27.8515 -0.0493798 0.698973 112.348 -5.58648 42.2322)
(-27.8793 -0.432879 0.715215 87.1461 -5.81165 36.4969)
(-27.665 -1.06142 0.697127 65.4571 -5.62126 32.2552)
(-27.0854 -2.01568 0.658292 47.6597 -5.12193 29.3928)
(-25.7066 -3.56491 0.604419 38.7463 -4.27383 29.7844)
(-21.0979 -5.40991 0.516758 31.7051 -2.35544 30.8954)
(-28.1889 0.0609228 0.186582 225.243 -2.61396 80.7421)
(-27.8282 0.0798258 0.343362 114.342 -2.9461 40.3451)
(-28.0255 -0.0728262 0.398281 112.162 -3.3338 43.3666)
(-28.0255 -0.463825 0.407266 87.578 -3.45359 37.7298)
(-27.7791 -1.10259 0.396506 66.1941 -3.35069 33.4485)
(-27.1554 -2.07128 0.374189 48.4973 -3.07528 30.5325)
(-25.7087 -3.64035 0.342377 39.5942 -2.58915 30.9043)
(-20.9619 -5.48316 0.29016 32.5296 -1.43991 31.9752)
(-28.2835 0.0567433 0.0596586 223.641 -0.903384 80.3206)
(-27.9147 0.071156 0.110361 113.86 -0.987471 40.6648)
(-28.0979 -0.0853127 0.128046 112.053 -1.10901 43.8556)
(-28.0837 -0.479607 0.130863 87.7807 -1.14664 38.2979)
(-27.8224 -1.12323 0.127328 66.551 -1.11414 34.0269)
(-27.1787 -2.10044 0.120043 48.9039 -1.02622 31.1078)
(-25.6888 -3.68047 0.108823 40.0072 -0.868471 31.491)
(-20.8666 -5.51191 0.0904005 32.9388 -0.487826 32.562)
(14.1925 44.9092 -3.04572 152.002 -0.763635 -10.1864)
(-57.5258 21.4326 -5.35836 57.2597 -1.08857 -6.38909)
(-43.9059 24.6483 -6.39373 68.8753 -1.05559 -3.32831)
(-46.0576 20.6219 -6.90595 47.6727 -0.908348 -1.44179)
(-43.6971 17.4069 -7.19535 33.3128 -0.846117 -0.560198)
(-42.9199 13.3389 -7.40857 19.764 -0.942935 -0.462585)
(-42.57 8.95252 -7.71848 11.4121 -1.2317 -1.02974)
(-49.7186 6.01685 -8.57959 1.94029 -1.61718 -2.20791)
(-10.0239 39.1578 -1.95501 26.305 -0.621715 -9.40882)
(-33.9254 49.8846 -3.7042 17.0707 -1.0215 -7.80799)
(-36.5352 48.4078 -4.37356 19.0242 -1.06508 -5.96422)
(-37.1719 42.7343 -4.61894 12.61 -0.849394 -4.70866)
(-36.2127 36.1896 -4.72387 7.24218 -0.612151 -4.10223)
(-35.3337 29.1625 -4.83522 1.84187 -0.469078 -4.0262)
(-35.2673 22.2218 -5.144 -2.26941 -0.469691 -4.35346)
(-41.9958 13.9376 -6.28501 -5.88655 -0.538747 -4.74449)
(-17.5364 35.3654 -1.5109 -48.6474 -0.440034 -9.09144)
(-5.22524 48.4009 -3.14972 -28.4882 -0.848221 -8.5451)
(-7.63396 48.4 -3.81774 -25.6297 -0.965531 -7.37197)
(-8.77856 43.2047 -4.03191 -18.8165 -0.780239 -6.47784)
(-9.90925 36.9972 -4.08622 -14.3886 -0.508603 -6.04633)
(-10.337 30.4235 -4.15335 -11.1744 -0.279617 -6.00284)
(-10.3821 23.5852 -4.43965 -9.19082 -0.146876 -6.27352)
(-7.57941 13.9048 -5.59011 -5.22305 -0.0925958 -6.61472)
(-39.2276 35.2792 -1.41119 -163.617 -0.41469 -8.53469)
(19.4251 20.7216 -3.18424 -69.9839 -0.835304 -8.37689)
(5.80317 24.9626 -3.96315 -73.4265 -0.958997 -7.33506)
(6.46995 21.63 -4.22357 -51.0055 -0.770244 -6.56236)
(3.76527 18.8502 -4.28122 -36.3677 -0.483855 -6.19921)
(2.69796 15.5865 -4.33607 -23.9604 -0.222812 -6.13464)
(2.72067 12.053 -4.60342 -15.932 0.00218352 -6.25404)
(7.57858 6.81735 -5.70382 -7.61581 0.251035 -6.52126)
(-7.02924 0.434924 0.13591 -245.003 -19.1078 -82.4095)
(-5.75569 0.79941 0.497535 -119.008 9.81079 -21.8741)
(-4.55827 0.853018 0.552066 -111.574 6.67567 -29.3568)
(-4.05237 0.642428 0.504311 -78.5144 8.43486 -21.7205)
(-3.94458 0.400912 0.512064 -55.1845 8.14813 -18.8541)
(-3.80224 0.239713 0.65114 -36.1062 7.74611 -16.5264)
(-2.96509 0.045321 0.982794 -23.5825 6.79904 -16.0957)
(0.525128 -1.12128 1.52241 -14.1687 3.26042 -15.891)
(-9.00231 0.170319 -0.359459 -239.073 -9.09951 -86.6983)
(-9.05931 0.398635 -0.369234 -133.429 7.90721 -34.8921)
(-8.84578 0.478124 -0.418014 -113.878 11.7252 -33.4237)
(-8.82787 0.414705 -0.474793 -82.4178 13.4187 -27.9471)
(-8.91911 0.357147 -0.447914 -57.9437 13.602 -25.1074)
(-8.79671 0.402413 -0.297117 -38.4112 12.9145 -23.363)
(-7.63726 0.450515 -0.0127599 -24.4684 11.1028 -22.6099)
(-3.31264 -0.583527 0.417801 -15.0201 6.29678 -22.1755)
(-10.2808 0.0424764 -0.378716 -235.175 -1.91248 -91.2759)
(-10.6553 0.177711 -0.400304 -133.176 7.02021 -44.8434)
(-10.7772 0.268953 -0.379591 -115.129 10.5944 -41.1027)
(-10.9477 0.309497 -0.362946 -84.0828 12.4356 -33.8221)
(-11.0333 0.391384 -0.294742 -59.2555 12.9515 -29.3761)
(-10.6868 0.578097 -0.148297 -39.0882 12.4715 -26.2338)
(-9.23515 0.750043 0.0604632 -24.2907 10.814 -24.0646)
(-4.82007 -0.147489 0.305466 -13.8627 5.94206 -21.1373)
(-11.219 -0.00819114 -0.299532 -229.304 1.67984 -93.0859)
(-11.6779 0.0799888 -0.296839 -131.741 6.18091 -51.8415)
(-11.927 0.177824 -0.235883 -114.964 8.79648 -47.567)
(-12.1544 0.286033 -0.181247 -84.7498 10.3028 -39.2275)
(-12.1843 0.46457 -0.101118 -60.0176 10.8704 -33.4723)
(-11.6756 0.750472 0.019412 -39.5427 10.5891 -29.0285)
(-9.97294 0.997201 0.165686 -24.0428 9.23855 -25.3992)
(-5.40593 0.163443 0.314422 -13.2131 5.08862 -20.79)
(-11.892 -0.0248972 -0.20978 -223.067 2.93055 -93.1177)
(-12.3643 0.0462327 -0.190268 -130.071 5.11615 -55.998)
(-12.6508 0.153454 -0.119935 -114.149 6.91291 -51.8544)
(-12.8763 0.30591 -0.0569243 -84.7342 7.99982 -43.1687)
(-12.8457 0.545054 0.0154799 -60.262 8.45989 -36.6766)
(-12.223 0.890248 0.103663 -39.6747 8.28216 -31.3367)
(-10.363 1.1789 0.194921 -23.7504 7.24461 -26.6515)
(-5.6997 0.375722 0.279969 -12.6868 3.98163 -20.8956)
(-12.3459 -0.0274376 -0.132614 -217.696 2.81673 -92.4516)
(-12.8094 0.0415638 -0.108309 -128.523 3.82229 -58.2903)
(-13.0958 0.158721 -0.0478348 -113.195 4.98326 -54.4364)
(-13.3046 0.338103 0.00558179 -84.4328 5.70304 -45.7317)
(-13.2232 0.612399 0.0600033 -60.2221 6.01956 -38.8958)
(-12.5204 0.989866 0.118199 -39.6267 5.89804 -33.0386)
(-10.5703 1.29986 0.171036 -23.4774 5.1613 -27.7085)
(-5.85695 0.512501 0.215813 -12.3368 2.83658 -21.319)
(-12.624 -0.0259203 -0.0719309 -213.854 1.94205 -91.7317)
(-13.0774 0.0457345 -0.0535348 -127.352 2.35935 -59.4565)
(-13.3571 0.170993 -0.0143463 -112.413 3.01039 -55.8566)
(-13.5479 0.365708 0.0200884 -84.1102 3.41955 -47.2295)
(-13.4312 0.658613 0.0530625 -60.0998 3.60081 -40.2564)
(-12.6785 1.05274 0.0859495 -39.5316 3.52579 -34.1363)
(-10.6781 1.37253 0.113736 -23.2733 3.08312 -28.4566)
(-5.93727 0.592703 0.133111 -12.1115 1.69303 -21.7411)
(-12.7544 -0.0247168 -0.0226802 -211.866 0.685905 -91.2982)
(-13.2027 0.0490408 -0.0160565 -126.724 0.797198 -59.9375)
(-13.4782 0.178691 -0.00275372 -111.979 1.007 -56.4777)
(-13.6589 0.380508 0.00891947 -83.9146 1.13974 -47.9119)
(-13.5253 0.681816 0.0198323 -60.0125 1.19851 -40.8959)
(-12.7493 1.08346 0.0305492 -39.4683 1.17277 -34.6702)
(-10.7193 1.40536 0.0393855 -23.1635 1.0247 -28.8374)
(-5.97636 0.62746 0.0439655 -12.0064 0.562155 -21.9952)
(-52 8.83507 -3.56359 -1.92706 -1.63315 -1.19006)
(-46.0686 8.07288 -1.95128 -0.201969 -1.23274 4.19537)
(-46.1118 7.90007 -2.50429 1.22751 -0.86258 2.86071)
(-46.1381 7.89122 -2.64901 2.37425 -0.606587 3.24842)
(-46.5769 7.92905 -2.45725 3.24574 -0.427105 3.73371)
(-46.9397 7.97517 -1.93391 3.87318 -0.290449 4.40056)
(-47.1921 8.01383 -1.22891 4.27033 -0.178819 4.93756)
(-47.3435 8.03362 -0.422086 4.40606 -0.0638474 5.19886)
(-44.7017 6.38499 -7.18899 -4.26265 -0.278794 -9.42389)
(-39.8114 5.16531 -7.38772 -3.48024 -0.156325 -8.14425)
(-39.7975 4.79817 -7.08339 -2.4918 -0.021023 -7.32416)
(-40.6302 4.66745 -6.59532 -1.66308 0.0338259 -6.45042)
(-41.4922 4.61678 -5.65476 -1.02623 0.0441553 -5.92767)
(-42.1225 4.5987 -4.29544 -0.56434 0.0367656 -5.56273)
(-42.5109 4.59765 -2.67013 -0.256918 0.0232513 -5.32677)
(-42.6769 4.60698 -0.904851 -0.0840508 0.00795373 -5.19673)
(-7.26337 5.59249 -7.22843 -5.99104 0.34083 -5.96222)
(-10.1397 4.28591 -8.76212 -5.37253 0.342532 -7.87311)
(-11.6667 3.83698 -8.4119 -4.61836 0.346507 -6.46395)
(-13.0676 3.64377 -7.50369 -3.989 0.305205 -5.39759)
(-14.08 3.54486 -6.22016 -3.51687 0.241362 -4.83351)
(-14.7394 3.48995 -4.63209 -3.1756 0.172674 -4.6257)
(-15.1275 3.45999 -2.84895 -2.95088 0.105439 -4.58419)
(-15.3028 3.44507 -0.960983 -2.82877 0.0362716 -4.58714)
(7.81011 5.62042 -4.35861 -5.9236 0.767281 -8.82061)
(2.91794 4.34662 -5.00292 -5.50177 0.577452 -13.2154)
(1.40496 3.88985 -4.82216 -5.11875 0.47252 -11.0816)
(0.21468 3.68058 -4.16074 -4.7508 0.388566 -10.0414)
(-0.454609 3.56512 -3.37859 -4.45417 0.301292 -9.60549)
(-0.882859 3.49594 -2.48153 -4.23485 0.213525 -9.6599)
(-1.13114 3.45474 -1.51672 -4.09083 0.126996 -9.85846)
(-1.25328 3.43054 -0.51088 -4.02718 0.0419911 -10.0111)
)
;
    }
    symmetry
    {
        type            symmetryPlane;
    }
    bottom
    {
        type            calculated;
        value           nonuniform List<symmTensor> 
32
(
(123.155 55.0929 0 184.732 46.738 123.155)
(123.211 56.2803 0 184.817 19.2801 123.211)
(123.646 55.8243 0 185.468 5.79126 123.646)
(122.632 54.4282 0 183.948 -0.360702 122.632)
(120.932 52.9469 0 181.398 -2.62265 120.932)
(119.284 51.7251 0 178.926 -2.84638 119.284)
(118.042 50.884 0 177.064 -2.02818 118.042)
(117.385 50.4581 0 176.078 -0.723175 117.385)
(20.6515 29.0779 0 30.9773 15.1094 20.6515)
(23.8165 29.5993 0 35.7248 6.86091 23.8165)
(25.5334 27.3237 0 38.3001 2.14011 25.5334)
(25.9826 24.9747 0 38.9739 -0.123021 25.9826)
(26.031 23.0776 0 39.0465 -0.968288 26.031)
(25.9659 21.707 0 38.9488 -1.05156 25.9659)
(25.8909 20.8307 0 38.8364 -0.747731 25.8909)
(25.8461 20.4049 0 38.7692 -0.266204 25.8461)
(-32.4018 25.3733 0 -48.6027 -13.884 -32.4018)
(-30.5405 25.6882 0 -45.8108 -7.14801 -30.5405)
(-30.3668 22.8152 0 -45.5502 -3.34888 -30.3668)
(-29.8554 20.0029 0 -44.783 -1.27498 -29.8554)
(-29.2114 17.795 0 -43.8171 -0.233144 -29.2114)
(-28.6021 16.2221 0 -42.9032 0.185765 -28.6021)
(-28.1407 15.2227 0 -42.2111 0.238671 -28.1407)
(-27.8945 14.7387 0 -41.8417 0.0994985 -27.8945)
(-123.194 42.773 0 -184.791 -46.2873 -123.194)
(-119.123 42.3939 0 -178.684 -20.9175 -119.123)
(-118.63 39.9951 0 -177.945 -7.81266 -118.63)
(-116.483 37.2064 0 -174.724 -1.39839 -116.483)
(-113.759 34.7658 0 -170.639 1.30935 -113.759)
(-111.276 32.8994 0 -166.915 1.97529 -111.276)
(-109.454 31.6574 0 -164.181 1.54112 -109.454)
(-108.5 31.0398 0 -162.75 0.567607 -108.5)
)
;
    }
}


// ************************************************************************* //
