/*--------------------------------*- C++ -*----------------------------------*\
| =========                 |                                                 |
| \\      /  F ield         | foam-extend: Open Source CFD                    |
|  \\    /   O peration     | Version:     3.1                                |
|   \\  /    A nd           | Web:         http://www.extend-project.de       |
|    \\/     M anipulation  |                                                 |
\*---------------------------------------------------------------------------*/
FoamFile
{
    version     2.0;
    format      ascii;
    class       volVectorField;
    location    "1.8";
    object      U;
}
// * * * * * * * * * * * * * * * * * * * * * * * * * * * * * * * * * * * * * //

dimensions      [0 1 -1 0 0 0 0];

internalField   nonuniform List<vector> 
256
(
(-0.000132145 -8.7792e-05 -0.000132272)
(-5.77332e-05 -2.15293e-05 -4.3956e-05)
(-4.97422e-05 1.78781e-05 4.00536e-05)
(-0.000104734 8.51964e-05 0.000130859)
(-0.000529722 -0.000362546 -9.90561e-05)
(-0.000433654 -0.000111099 -4.59184e-05)
(-0.000416843 8.97439e-05 4.30408e-05)
(-0.000475321 0.000342917 9.76773e-05)
(-0.00103476 -0.000570281 -5.82845e-05)
(-0.000936706 -0.000186745 -2.65707e-05)
(-0.000915163 0.000153406 2.78066e-05)
(-0.000966763 0.000543214 5.59544e-05)
(-0.00164717 -0.000740204 -2.47531e-06)
(-0.00155602 -0.000244922 -6.17801e-06)
(-0.00153099 0.000211405 1.10292e-05)
(-0.00156789 0.000714862 2.25099e-06)
(-0.00234089 -0.000866021 5.43943e-05)
(-0.00225628 -0.000284693 1.42729e-05)
(-0.00222836 0.000261822 -6.7839e-06)
(-0.00225195 0.000851779 -5.17657e-05)
(-0.00308855 -0.000953426 0.000106251)
(-0.00301074 -0.000308148 3.25312e-05)
(-0.00298125 0.000305674 -2.37913e-05)
(-0.00299385 0.000958992 -0.000101498)
(-0.00386487 -0.00100811 0.000147546)
(-0.00379338 -0.000316943 4.82175e-05)
(-0.00376492 0.000344349 -3.87112e-05)
(-0.00377256 0.00104154 -0.000142655)
(-0.00465411 -0.00103523 0.000177127)
(-0.00458243 -0.000313289 6.257e-05)
(-0.00455698 0.000380422 -4.90813e-05)
(-0.00457194 0.00110499 -0.000170712)
(-0.000136524 -8.63417e-05 -5.83658e-05)
(-6.21447e-05 -2.14596e-05 -2.144e-05)
(-5.27583e-05 1.81144e-05 2.00431e-05)
(-0.000104289 8.20053e-05 5.86228e-05)
(-0.000534326 -0.000358388 -4.64259e-05)
(-0.000425225 -0.000111332 -2.26774e-05)
(-0.000404357 8.85774e-05 2.17772e-05)
(-0.000467205 0.000337028 4.50258e-05)
(-0.00101555 -0.000575135 -1.8161e-05)
(-0.000913821 -0.000192194 -1.1043e-05)
(-0.000886473 0.000152059 1.21981e-05)
(-0.000930174 0.000540537 1.4953e-05)
(-0.00160027 -0.000749214 2.20947e-05)
(-0.00150563 -0.000254436 3.68728e-06)
(-0.00147379 0.000206239 -2.06423e-07)
(-0.00150057 0.000708451 -2.44822e-05)
(-0.00226429 -0.000878798 6.48679e-05)
(-0.00217744 -0.000297994 1.8971e-05)
(-0.00214256 0.000252113 -1.35843e-05)
(-0.00215471 0.000840499 -6.55354e-05)
(-0.00298451 -0.000968622 0.000104302)
(-0.00290553 -0.000324408 3.29972e-05)
(-0.00286983 0.000290793 -2.62568e-05)
(-0.0028717 0.0009416 -0.000103326)
(-0.0037378 -0.00102446 0.000136167)
(-0.00366703 -0.000335201 4.5291e-05)
(-0.00363354 0.000323741 -3.62769e-05)
(-0.00363062 0.00101671 -0.000133216)
(-0.00451102 -0.00105201 0.000158601)
(-0.00444143 -0.000332814 5.66655e-05)
(-0.00441288 0.000353882 -3.98995e-05)
(-0.0044195 0.00107215 -0.000149115)
(-0.000134713 -8.72687e-05 -2.18808e-05)
(-5.59329e-05 -2.23101e-05 -9.52259e-06)
(-4.53297e-05 1.84922e-05 7.71696e-06)
(-9.85478e-05 8.17928e-05 2.01991e-05)
(-0.000521442 -0.000351535 -1.35977e-05)
(-0.000402908 -0.0001111 -9.15229e-06)
(-0.000379143 8.41388e-05 6.62973e-06)
(-0.000445819 0.000324865 9.74311e-06)
(-0.000984345 -0.000567872 7.17271e-06)
(-0.000874139 -0.000194268 -1.64909e-06)
(-0.000843213 0.000143794 -4.09552e-07)
(-0.000888962 0.00052212 -1.34769e-05)
(-0.00154733 -0.00074374 3.60191e-05)
(-0.0014458 -0.00025979 8.58671e-06)
(-0.00141031 0.000193479 -9.69612e-06)
(-0.00143777 0.000684307 -4.26532e-05)
(-0.00218949 -0.000877195 6.717e-05)
(-0.00209697 -0.000307364 1.9582e-05)
(-0.00205859 0.000234725 -1.95416e-05)
(-0.00207057 0.000811784 -7.2956e-05)
(-0.00288957 -0.000972047 9.64064e-05)
(-0.00280621 -0.000338074 3.01332e-05)
(-0.00276717 0.000268685 -2.84474e-05)
(-0.00276766 0.000908759 -0.000100449)
(-0.0036263 -0.00103349 0.000120684)
(-0.00355272 -0.00035301 3.99977e-05)
(-0.00351653 0.00029701 -3.43111e-05)
(-0.00351163 0.000980201 -0.000120825)
(-0.00438808 -0.00106655 0.000138117)
(-0.00431692 -0.000354213 4.99438e-05)
(-0.00428645 0.000323249 -3.32228e-05)
(-0.00429093 0.00103292 -0.000127769)
(-0.000129963 -8.71032e-05 -4.56288e-06)
(-4.86101e-05 -2.27401e-05 -3.69149e-06)
(-3.71575e-05 1.82545e-05 9.01111e-07)
(-9.10404e-05 8.04287e-05 1.00494e-06)
(-0.000501852 -0.000345356 3.25777e-06)
(-0.000378206 -0.000111271 -2.54709e-06)
(-0.000352674 7.89712e-05 -2.13584e-06)
(-0.000421185 0.000312172 -9.49337e-06)
(-0.000947886 -0.000559728 1.93378e-05)
(-0.000832155 -0.000196031 2.59228e-06)
(-0.000799318 0.000133892 -7.84875e-06)
(-0.000847376 0.000501537 -2.82531e-05)
(-0.0014934 -0.000736603 4.03377e-05)
(-0.00138685 -0.000264349 9.7252e-06)
(-0.00134958 0.000179007 -1.48945e-05)
(-0.00137919 0.000657737 -5.01255e-05)
(-0.00211874 -0.000873376 6.29905e-05)
(-0.00202197 -0.000315594 1.76064e-05)
(-0.00198198 0.000215874 -2.20953e-05)
(-0.00199567 0.000780752 -7.23659e-05)
(-0.00280387 -0.000973001 8.45962e-05)
(-0.00271718 -0.000350466 2.5553e-05)
(-0.00267681 0.00024565 -2.81826e-05)
(-0.00267855 0.000874263 -9.20785e-05)
(-0.00352831 -0.00103981 0.000103113)
(-0.00345248 -0.000369547 3.35564e-05)
(-0.00341532 0.000270142 -3.12064e-05)
(-0.00341125 0.000943061 -0.000105583)
(-0.0042809 -0.00107779 0.000116692)
(-0.00420824 -0.000374346 4.21979e-05)
(-0.0041772 0.000293363 -2.77664e-05)
(-0.00418243 0.000994058 -0.000107288)
(-0.00012491 -8.63507e-05 2.61705e-06)
(-4.23305e-05 -2.29801e-05 -1.06391e-06)
(-3.02674e-05 1.7804e-05 -2.22476e-06)
(-8.39908e-05 7.86005e-05 -6.95921e-06)
(-0.000482271 -0.000340255 9.81081e-06)
(-0.000355963 -0.000111747 2.23868e-07)
(-0.000329246 7.42154e-05 -6.02695e-06)
(-0.000398233 0.000300981 -1.70644e-05)
(-0.000913464 -0.0005532 2.21724e-05)
(-0.00079439 -0.000197945 3.79949e-06)
(-0.000760348 0.000124743 -1.06842e-05)
(-0.000809682 0.000483419 -3.19839e-05)
(-0.00144464 -0.000730961 3.73883e-05)
(-0.00133477 -0.00026867 8.75181e-06)
(-0.00129647 0.000165727 -1.59623e-05)
(-0.00132766 0.000634247 -4.81959e-05)
(-0.00205692 -0.000870461 5.36947e-05)
(-0.00195721 -0.000323027 1.43555e-05)
(-0.00191642 0.000198745 -2.11129e-05)
(-0.0019318 0.000753233 -6.42454e-05)
(-0.00273077 -0.00097394 6.94434e-05)
(-0.00264171 -0.000361378 2.02731e-05)
(-0.00260081 0.000224964 -2.51341e-05)
(-0.00260419 0.000843699 -7.80697e-05)
(-0.00344584 -0.00104492 8.33032e-05)
(-0.00336834 -0.000383858 2.66008e-05)
(-0.00333093 0.000246272 -2.64249e-05)
(-0.00332828 0.000910204 -8.67919e-05)
(-0.00419081 -0.00108652 9.35985e-05)
(-0.00411708 -0.000391548 3.37198e-05)
(-0.00408607 0.000266903 -2.23022e-05)
(-0.00409272 0.00095959 -8.59008e-05)
(-0.000120672 -8.55142e-05 4.4509e-06)
(-3.75959e-05 -2.3122e-05 -5.06874e-08)
(-2.51068e-05 1.73435e-05 -2.98627e-06)
(-7.83596e-05 7.68635e-05 -8.43969e-06)
(-0.000466009 -0.000336382 1.02515e-05)
(-0.000338387 -0.000112295 1.02167e-06)
(-0.000310877 7.03885e-05 -6.50297e-06)
(-0.000379731 0.000292117 -1.68677e-05)
(-0.000885318 -0.000548509 1.91195e-05)
(-0.000764304 -0.000199742 3.40303e-06)
(-0.000729505 0.000117385 -1.00244e-05)
(-0.000779495 0.000469211 -2.78506e-05)
(-0.00140535 -0.000727127 2.95791e-05)
(-0.00129342 -0.000272414 6.6941e-06)
(-0.00125453 0.00015506 -1.37375e-05)
(-0.00128682 0.000615855 -3.9169e-05)
(-0.00200781 -0.000868755 4.07241e-05)
(-0.00190616 -0.0003292 1.04969e-05)
(-0.00186498 0.000185031 -1.72004e-05)
(-0.00188167 0.000731662 -5.01e-05)
(-0.0026733 -0.000975073 5.15876e-05)
(-0.00258262 -0.000370188 1.46611e-05)
(-0.00254152 0.000208484 -1.9702e-05)
(-0.00254626 0.000819682 -5.92721e-05)
(-0.00338134 -0.00104898 6.13285e-05)
(-0.00330268 -0.00039518 1.92948e-05)
(-0.00326528 0.00022735 -2.0079e-05)
(-0.00326389 0.000884278 -6.46559e-05)
(-0.00412029 -0.00109302 6.86124e-05)
(-0.0040458 -0.000404967 2.46138e-05)
(-0.00401503 0.000245992 -1.64252e-05)
(-0.00402304 0.000932197 -6.29745e-05)
(-0.000117743 -8.48511e-05 3.52736e-06)
(-3.4488e-05 -2.32036e-05 1.89616e-07)
(-2.17182e-05 1.69842e-05 -2.30509e-06)
(-7.4504e-05 7.55519e-05 -6.27926e-06)
(-0.000454635 -0.000333782 7.27379e-06)
(-0.000326406 -0.000112743 8.76194e-07)
(-0.000298396 6.77336e-05 -4.74043e-06)
(-0.000366938 0.00028601 -1.18466e-05)
(-0.000865685 -0.000545498 1.26328e-05)
(-0.000743618 -0.000201109 2.24662e-06)
(-0.000708372 0.000112293 -6.94952e-06)
(-0.000758668 0.000459511 -1.86002e-05)
(-0.00137807 -0.000724801 1.87938e-05)
(-0.00126494 -0.000275154 4.14233e-06)
(-0.00122572 0.000147689 -9.16703e-06)
(-0.0012587 0.00060334 -2.53283e-05)
(-0.00197387 -0.000867898 2.53359e-05)
(-0.00187106 -0.000333603 6.36755e-06)
(-0.00182967 0.000175575 -1.11652e-05)
(-0.00184724 0.000716985 -3.17117e-05)
(-0.00263374 -0.000976075 3.17513e-05)
(-0.00254206 -0.000376353 8.86301e-06)
(-0.00250088 0.000197144 -1.25231e-05)
(-0.00250656 0.000803304 -3.69676e-05)
(-0.00333702 -0.00105182 3.75709e-05)
(-0.00325763 -0.00040299 1.17035e-05)
(-0.00322029 0.000214359 -1.25404e-05)
(-0.00321984 0.000866532 -3.98938e-05)
(-0.00407177 -0.00109733 4.19335e-05)
(-0.00399679 -0.000414134 1.49891e-05)
(-0.00396625 0.000231655 -1.00851e-05)
(-0.0039753 0.000913353 -3.85081e-05)
(-0.000116247 -8.44919e-05 1.30257e-06)
(-3.29501e-05 -2.32414e-05 9.40328e-08)
(-2.00422e-05 1.67899e-05 -8.49587e-07)
(-7.25502e-05 7.48546e-05 -2.27966e-06)
(-0.000448818 -0.000332477 2.59482e-06)
(-0.00032036 -0.00011299 3.28254e-07)
(-0.000292106 6.63778e-05 -1.71584e-06)
(-0.000360429 0.000282904 -4.2219e-06)
(-0.000855642 -0.000544026 4.38951e-06)
(-0.000733117 -0.000201842 7.76277e-07)
(-0.000697661 0.000109699 -2.46969e-06)
(-0.000748066 0.000454602 -6.50303e-06)
(-0.00136413 -0.000723705 6.42865e-06)
(-0.00125045 -0.000276596 1.39688e-06)
(-0.00121109 0.000143938 -3.20827e-06)
(-0.00124438 0.000597019 -8.73898e-06)
(-0.00195656 -0.000867553 8.59059e-06)
(-0.0018532 -0.000335888 2.13146e-06)
(-0.00181173 0.000170766 -3.86186e-06)
(-0.00182972 0.000709574 -1.08414e-05)
(-0.00261357 -0.000976645 1.0717e-05)
(-0.00252142 -0.000379521 2.96481e-06)
(-0.00248023 0.000191382 -4.29126e-06)
(-0.00248637 0.000795024 -1.25555e-05)
(-0.00331442 -0.00105327 1.2657e-05)
(-0.0032347 -0.000406975 3.92297e-06)
(-0.00319742 0.000207762 -4.26336e-06)
(-0.00319744 0.000857543 -1.34839e-05)
(-0.00404701 -0.00109943 1.41124e-05)
(-0.00397182 -0.000418799 5.0333e-06)
(-0.00394141 0.000224369 -3.4034e-06)
(-0.00395098 0.000903775 -1.29633e-05)
)
;

boundaryField
{
    interface
    {
        type            calculated;
        value           nonuniform List<vector> 
192
(
(-0.000285004 -0.000293616 -0.000130352)
(-0.000606917 -0.00056514 -9.50622e-05)
(-0.00112334 -0.000840572 -4.24511e-05)
(-0.00172431 -0.00105525 2.95704e-05)
(-0.00241012 -0.00121774 0.000102986)
(-0.00314929 -0.00132901 0.000170198)
(-0.00392016 -0.0013976 0.000223317)
(-0.00470323 -0.0014406 0.000258408)
(-0.000290182 -0.000295362 -5.5792e-05)
(-0.000623193 -0.000553962 -4.05823e-05)
(-0.00110637 -0.000831618 -3.17667e-06)
(-0.0016812 -0.00105013 4.945e-05)
(-0.00233678 -0.00121649 0.000104712)
(-0.00304878 -0.00133234 0.00015574)
(-0.00379619 -0.00140574 0.000196952)
(-0.00456219 -0.00145456 0.000224469)
(-0.000290313 -0.000295315 -1.77349e-05)
(-0.000614341 -0.000540827 -3.524e-06)
(-0.001079 -0.000813771 2.49379e-05)
(-0.00163147 -0.00103365 6.30619e-05)
(-0.00226444 -0.00120421 0.000103685)
(-0.00295567 -0.00132665 0.000141556)
(-0.0036859 -0.00140798 0.000172858)
(-0.00443929 -0.00146578 0.000194516)
(-0.000285248 -0.000290901 -1.48694e-07)
(-0.000597501 -0.000528214 1.42731e-05)
(-0.00104596 -0.000797413 3.71315e-05)
(-0.00158102 -0.00101789 6.54985e-05)
(-0.00219674 -0.00119228 9.53296e-05)
(-0.0028725 -0.00132068 0.000123379)
(-0.0035899 -0.00140896 0.000147251)
(-0.00433315 -0.00147369 0.000164428)
(-0.000278543 -0.000285011 6.52092e-06)
(-0.000579422 -0.000517236 1.9726e-05)
(-0.00101383 -0.0007842 3.77529e-05)
(-0.00153487 -0.00100561 5.87592e-05)
(-0.00213744 -0.00118327 8.05026e-05)
(-0.00280161 -0.00131641 0.000101052)
(-0.00350922 -0.00140988 0.000118982)
(-0.00424413 -0.00147938 0.00013225)
(-0.000272374 -0.000279544 7.42251e-06)
(-0.000563878 -0.000508574 1.78822e-05)
(-0.000987074 -0.000774316 3.10037e-05)
(-0.00149736 -0.000996822 4.56976e-05)
(-0.00209014 -0.00117712 6.07262e-05)
(-0.0027458 -0.00131374 7.49871e-05)
(-0.00344612 -0.00141076 8.76452e-05)
(-0.00417455 -0.00148334 9.71668e-05)
(-0.000267909 -0.000275516 5.36434e-06)
(-0.000552792 -0.000502625 1.20255e-05)
(-0.000968199 -0.000767741 2.00177e-05)
(-0.00147114 -0.000991164 2.87717e-05)
(-0.00205735 -0.00117331 3.76648e-05)
(-0.00270732 -0.00131221 4.61299e-05)
(-0.00340272 -0.00141145 5.37183e-05)
(-0.00412668 -0.00148584 5.94766e-05)
(-0.000265567 -0.000273401 1.92127e-06)
(-0.000547061 -0.000499599 4.2041e-06)
(-0.000958482 -0.000764455 6.88914e-06)
(-0.0014577 -0.000988387 9.80268e-06)
(-0.00204059 -0.00117149 1.27538e-05)
(-0.00268769 -0.00131152 1.55682e-05)
(-0.00338057 -0.00141181 1.81017e-05)
(-0.00410223 -0.00148697 2.00311e-05)
(-0.000127933 -0.000153977 -0.000212554)
(-0.000522875 -0.00033678 -0.000112833)
(-0.00104478 -0.000547371 -8.06488e-05)
(-0.00167444 -0.000709745 -1.53928e-05)
(-0.00238787 -0.00083593 4.68957e-05)
(-0.00315373 -0.000926369 0.000104537)
(-0.00394433 -0.00098611 0.00014926)
(-0.00474238 -0.00102382 0.000184689)
(-3.70331e-05 -5.12868e-05 -6.44258e-05)
(-0.00039955 -0.00010281 -5.15043e-05)
(-0.000922472 -0.000178583 -3.15639e-05)
(-0.00156172 -0.000233365 -8.52783e-06)
(-0.00228367 -0.000272362 1.36103e-05)
(-0.00305799 -0.000295885 3.35202e-05)
(-0.00385734 -0.000305003 5.0341e-05)
(-0.00465784 -0.00030425 6.79956e-05)
(-2.82346e-05 4.20372e-05 5.5545e-05)
(-0.000383527 7.94038e-05 4.58484e-05)
(-0.000902391 0.000145932 3.08488e-05)
(-0.00153897 0.000203775 1.17598e-05)
(-0.00225793 0.000256382 -7.67469e-06)
(-0.00303033 0.000302864 -2.62748e-05)
(-0.00383055 0.000344519 -4.27482e-05)
(-0.00463379 0.00038589 -5.73898e-05)
(-9.80888e-05 0.000150543 0.000201653)
(-0.000473695 0.000315181 0.000111298)
(-0.000984 0.000521199 7.7699e-05)
(-0.00160441 0.000689929 1.51093e-05)
(-0.00230801 0.00083089 -4.41362e-05)
(-0.0030669 0.000943529 -9.92608e-05)
(-0.00385861 0.00103256 -0.000144431)
(-0.00466558 0.00110912 -0.000180295)
(-0.000223318 0.00028527 0.000127319)
(-0.000530999 0.000550797 8.65158e-05)
(-0.00102445 0.000823604 3.00867e-05)
(-0.00161009 0.00104065 -4.16065e-05)
(-0.00228242 0.00121402 -0.000112554)
(-0.00301398 0.00134574 -0.000177134)
(-0.00378752 0.00144483 -0.000229611)
(-0.0045847 0.00152244 -0.000264242)
(-0.000219909 0.000280975 5.46365e-05)
(-0.000530292 0.000536284 3.24246e-05)
(-0.000986073 0.000804596 -9.54132e-06)
(-0.0015414 0.00101826 -6.24766e-05)
(-0.00218347 0.00118732 -0.000116241)
(-0.00289144 0.00131548 -0.000165239)
(-0.00364528 0.00141063 -0.000203826)
(-0.0044329 0.00148615 -0.000225795)
(-0.000213647 0.000275326 1.49317e-05)
(-0.000511132 0.000516114 -5.10544e-06)
(-0.000946923 0.000774308 -3.78668e-05)
(-0.00148047 0.000982335 -7.69551e-05)
(-0.00210072 0.00114767 -0.000116844)
(-0.00278761 0.00127346 -0.000152806)
(-0.00352625 0.00136709 -0.000180139)
(-0.00430327 0.0014434 -0.000192182)
(-0.000204424 0.000265728 -4.43324e-06)
(-0.000488416 0.000495716 -2.42733e-05)
(-0.000907838 0.000744845 -5.11777e-05)
(-0.00142455 0.000946926 -8.08763e-05)
(-0.00202806 0.0011084 -0.00011031)
(-0.00270043 0.00123202 -0.000136346)
(-0.00342753 0.00132473 -0.000155051)
(-0.00419578 0.00140164 -0.000160636)
(-0.000194981 0.000255582 -1.17421e-05)
(-0.00046664 0.000477722 -2.98707e-05)
(-0.000871957 0.000719539 -5.14398e-05)
(-0.00137518 0.00091665 -7.37424e-05)
(-0.00196641 0.00107482 -9.5201e-05)
(-0.00262818 0.00119642 -0.000113694)
(-0.00334643 0.00128791 -0.000126324)
(-0.00410745 0.00136467 -0.000128537)
(-0.000187022 0.000246842 -1.20732e-05)
(-0.000448718 0.000463395 -2.65337e-05)
(-0.000842931 0.000699773 -4.24206e-05)
(-0.00133594 0.000893229 -5.81548e-05)
(-0.001918 0.00104889 -7.29463e-05)
(-0.00257191 0.00116877 -8.54188e-05)
(-0.00328361 0.00125903 -9.35888e-05)
(-0.00403914 0.00133521 -9.42181e-05)
(-0.000181381 0.000240578 -8.52461e-06)
(-0.000436132 0.000453501 -1.7807e-05)
(-0.000822753 0.000686285 -2.75626e-05)
(-0.00130881 0.000877342 -3.69761e-05)
(-0.00188468 0.00103132 -4.56942e-05)
(-0.00253333 0.00114998 -5.2944e-05)
(-0.00324065 0.0012393 -5.75628e-05)
(-0.0039924 0.00131488 -5.76004e-05)
(-0.000178467 0.000237332 -3.03538e-06)
(-0.000429671 0.000448465 -6.22951e-06)
(-0.000812428 0.000679458 -9.52042e-06)
(-0.00129495 0.000869322 -1.26581e-05)
(-0.0018677 0.00102245 -1.55426e-05)
(-0.00251369 0.00114049 -1.7927e-05)
(-0.00321881 0.00122932 -1.9429e-05)
(-0.0039686 0.00130453 -1.93844e-05)
(-0.00506435 -0.00104271 0.000178386)
(-0.00491966 -0.00105999 0.000159937)
(-0.00479472 -0.00107705 0.000139558)
(-0.00468495 -0.00109024 0.000117518)
(-0.00459216 -0.00110052 9.40315e-05)
(-0.00451928 -0.00110806 6.8807e-05)
(-0.00446903 -0.00111301 4.20138e-05)
(-0.00444334 -0.00111537 1.41354e-05)
(-0.00496242 -0.000315106 6.33446e-05)
(-0.00481868 -0.000335201 6.01202e-05)
(-0.00469107 -0.000357807 5.43824e-05)
(-0.00457894 -0.000379415 4.65499e-05)
(-0.00448424 -0.000397873 3.74646e-05)
(-0.00440993 -0.00041223 2.74287e-05)
(-0.00435876 -0.000422022 1.67276e-05)
(-0.00433268 -0.000427009 5.62138e-06)
(-0.00493416 0.000401455 -4.75346e-05)
(-0.00478776 0.000371704 -3.28739e-05)
(-0.00465805 0.000340563 -2.4852e-05)
(-0.0045453 0.000310024 -1.92836e-05)
(-0.00445071 0.000282874 -1.48743e-05)
(-0.00437672 0.000261405 -1.07621e-05)
(-0.00432584 0.000246659 -6.57339e-06)
(-0.00429992 0.000239142 -2.21786e-06)
(-0.00497883 0.00113321 -0.000168724)
(-0.00482512 0.00109588 -0.000138687)
(-0.00469434 0.00105702 -0.000115753)
(-0.00458337 0.001018 -9.5131e-05)
(-0.00449116 0.000983294 -7.52307e-05)
(-0.00441932 0.000955524 -5.48005e-05)
(-0.00436998 0.000936334 -3.34255e-05)
(-0.0043448 0.000926542 -1.12463e-05)
)
;
    }
    symmetry
    {
        type            symmetryPlane;
    }
    bottom
    {
        type            calculated;
        value           uniform (0 0 0);
    }
}


// ************************************************************************* //
