/*--------------------------------*- C++ -*----------------------------------*\
| =========                 |                                                 |
| \\      /  F ield         | foam-extend: Open Source CFD                    |
|  \\    /   O peration     | Version:     3.1                                |
|   \\  /    A nd           | Web:         http://www.extend-project.de       |
|    \\/     M anipulation  |                                                 |
\*---------------------------------------------------------------------------*/
FoamFile
{
    version     2.0;
    format      ascii;
    class       regIOobject;
    location    "2.9/uniform";
    object      profilingInfo;
}
// * * * * * * * * * * * * * * * * * * * * * * * * * * * * * * * * * * * * * //

profilingInfo
(

    {
        id              23;
        parentId        22;
        description     "Foam::Time::writeObject - outputTime";
        calls           29;
        totalTime       7.95498;
        childTime       0;
        onStack         1;
    }

    {
        id              22;
        parentId        1;
        description     "Foam::Time::writeObject";
        calls           29;
        totalTime       7.95515;
        childTime       7.95498;
        onStack         1;
    }

    {
        id              1;
        description     "application::main";
        calls           1;
        totalTime       272.938;
        childTime       61.5964;
        onStack         1;
    }

    {
        id              25;
        parentId        24;
        description     "FO::beamReport::execute";
        calls           28;
        totalTime       0.000573;
        childTime       0;
        onStack         0;
    }

    {
        id              27;
        parentId        24;
        description     "FO::forces::execute";
        calls           28;
        totalTime       0.077727;
        childTime       0;
        onStack         0;
    }

    {
        id              26;
        parentId        24;
        description     "FO::setInletVelocity::execute";
        calls           28;
        totalTime       0.0005;
        childTime       0;
        onStack         0;
    }

    {
        id              3;
        parentId        2;
        description     "functionObjectList::read";
        calls           1;
        totalTime       0.233355;
        childTime       0;
        onStack         0;
    }

    {
        id              24;
        parentId        1;
        description     "functionObjects_.execute()";
        calls           28;
        totalTime       0.079016;
        childTime       0.0788;
        onStack         0;
    }

    {
        id              2;
        parentId        1;
        description     "functionObjects_.start()";
        calls           1;
        totalTime       0.233375;
        childTime       0.233355;
        onStack         0;
    }

    {
        id              18;
        parentId        1;
        description     "fvMatrix::solve_D";
        calls           85243;
        totalTime       16.1753;
        childTime       10.5162;
        onStack         0;
    }

    {
        id              11;
        parentId        1;
        description     "fvMatrix::solve_U";
        calls           331;
        totalTime       2.62446;
        childTime       2.4265;
        onStack         0;
    }

    {
        id              4;
        parentId        1;
        description     "fvMatrix::solve_cellMotionU";
        calls           662;
        totalTime       18.6174;
        childTime       18.1429;
        onStack         0;
    }

    {
        id              15;
        parentId        1;
        description     "fvMatrix::solve_p";
        calls           1986;
        totalTime       15.9117;
        childTime       15.499;
        onStack         0;
    }

    {
        id              19;
        parentId        18;
        description     "lduMatrix::solver_Dx";
        calls           85243;
        totalTime       5.13209;
        childTime       0;
        onStack         0;
    }

    {
        id              20;
        parentId        18;
        description     "lduMatrix::solver_Dy";
        calls           85243;
        totalTime       2.6866;
        childTime       0;
        onStack         0;
    }

    {
        id              21;
        parentId        18;
        description     "lduMatrix::solver_Dz";
        calls           85243;
        totalTime       2.69748;
        childTime       0;
        onStack         0;
    }

    {
        id              12;
        parentId        11;
        description     "lduMatrix::solver_Ux";
        calls           331;
        totalTime       0.791477;
        childTime       0;
        onStack         0;
    }

    {
        id              13;
        parentId        11;
        description     "lduMatrix::solver_Uy";
        calls           331;
        totalTime       0.836782;
        childTime       0;
        onStack         0;
    }

    {
        id              14;
        parentId        11;
        description     "lduMatrix::solver_Uz";
        calls           331;
        totalTime       0.798237;
        childTime       0;
        onStack         0;
    }

    {
        id              5;
        parentId        4;
        description     "lduMatrix::solver_cellMotionUx";
        calls           662;
        totalTime       6.58776;
        childTime       0.047022;
        onStack         0;
    }

    {
        id              7;
        parentId        4;
        description     "lduMatrix::solver_cellMotionUy";
        calls           662;
        totalTime       5.37443;
        childTime       0.034539;
        onStack         0;
    }

    {
        id              9;
        parentId        4;
        description     "lduMatrix::solver_cellMotionUz";
        calls           662;
        totalTime       6.1807;
        childTime       0.038629;
        onStack         0;
    }

    {
        id              6;
        parentId        5;
        description     "lduMatrix::solver_coarsestLevelCorr";
        calls           2855;
        totalTime       0.047022;
        childTime       0;
        onStack         0;
    }

    {
        id              8;
        parentId        7;
        description     "lduMatrix::solver_coarsestLevelCorr";
        calls           2323;
        totalTime       0.034539;
        childTime       0;
        onStack         0;
    }

    {
        id              10;
        parentId        9;
        description     "lduMatrix::solver_coarsestLevelCorr";
        calls           2709;
        totalTime       0.038629;
        childTime       0;
        onStack         0;
    }

    {
        id              17;
        parentId        16;
        description     "lduMatrix::solver_coarsestLevelCorr";
        calls           6572;
        totalTime       0.148733;
        childTime       0;
        onStack         0;
    }

    {
        id              16;
        parentId        15;
        description     "lduMatrix::solver_p";
        calls           1986;
        totalTime       15.499;
        childTime       0.148733;
        onStack         0;
    }
);


// ************************************************************************* //
