/*--------------------------------*- C++ -*----------------------------------*\
| =========                 |                                                 |
| \\      /  F ield         | foam-extend: Open Source CFD                    |
|  \\    /   O peration     | Version:     3.1                                |
|   \\  /    A nd           | Web:         http://www.extend-project.de       |
|    \\/     M anipulation  |                                                 |
\*---------------------------------------------------------------------------*/
FoamFile
{
    version     2.0;
    format      ascii;
    class       volVectorField;
    location    "1.6";
    object      cellMotionU;
}
// * * * * * * * * * * * * * * * * * * * * * * * * * * * * * * * * * * * * * //

dimensions      [0 1 -1 0 0 0 0];

internalField   nonuniform List<vector> 
14592
(
(6.52873e-11 -5.46194e-11 -1.47515e-11)
(1.88938e-10 -1.59344e-10 -4.34886e-11)
(3.00831e-10 -2.57998e-10 -7.18234e-11)
(4.03997e-10 -3.54878e-10 -1.0169e-10)
(5.00847e-10 -4.53724e-10 -1.3476e-10)
(5.93113e-10 -5.57801e-10 -1.72453e-10)
(6.81498e-10 -6.69529e-10 -2.15807e-10)
(7.65353e-10 -7.91913e-10 -2.65145e-10)
(8.4147e-10 -9.26969e-10 -3.19327e-10)
(9.02615e-10 -1.07751e-09 -3.74325e-10)
(9.35112e-10 -1.24704e-09 -4.20596e-10)
(9.15745e-10 -1.43962e-09 -4.38452e-10)
(8.11218e-10 -1.66094e-09 -3.90566e-10)
(5.86436e-10 -1.91276e-09 -2.11971e-10)
(2.41624e-10 -2.17268e-09 1.88776e-10)
(-8.66143e-11 -2.33611e-09 7.98522e-10)
(1.94585e-10 -1.61471e-10 -4.37942e-11)
(5.63207e-10 -4.71442e-10 -1.29118e-10)
(8.96782e-10 -7.62986e-10 -2.13253e-10)
(1.20449e-09 -1.0494e-09 -3.01961e-10)
(1.49368e-09 -1.34167e-09 -4.00254e-10)
(1.76971e-09 -1.64851e-09 -5.12459e-10)
(2.03541e-09 -1.9778e-09 -6.41938e-10)
(2.28992e-09 -2.33713e-09 -7.90228e-10)
(2.52567e-09 -2.7318e-09 -9.55129e-10)
(2.72485e-09 -3.17018e-09 -1.12709e-09)
(2.85145e-09 -3.65832e-09 -1.28249e-09)
(2.84349e-09 -4.20773e-09 -1.37229e-09)
(2.60559e-09 -4.83195e-09 -1.3045e-09)
(2.0224e-09 -5.54464e-09 -9.25187e-10)
(1.03989e-09 -6.3284e-09 -3.92553e-11)
(-3.19973e-11 -6.99914e-09 1.26111e-09)
(3.20836e-10 -2.62261e-10 -7.16505e-11)
(9.28574e-10 -7.65212e-10 -2.11231e-10)
(1.4786e-09 -1.23833e-09 -3.48843e-10)
(1.98625e-09 -1.70286e-09 -4.93955e-10)
(2.4641e-09 -2.17608e-09 -6.549e-10)
(2.92182e-09 -2.67143e-09 -8.39099e-10)
(3.36616e-09 -3.20262e-09 -1.05284e-09)
(3.79844e-09 -3.77694e-09 -1.30023e-09)
(4.2129e-09 -4.40534e-09 -1.58103e-09)
(4.58959e-09 -5.09236e-09 -1.8862e-09)
(4.88654e-09 -5.84602e-09 -2.19008e-09)
(5.02454e-09 -6.6722e-09 -2.43712e-09)
(4.87229e-09 -7.58013e-09 -2.52276e-09)
(4.24369e-09 -8.57696e-09 -2.27567e-09)
(2.97478e-09 -9.64329e-09 -1.49052e-09)
(1.36448e-09 -1.05802e-08 -2.75116e-10)
(4.42018e-10 -3.52971e-10 -9.75923e-11)
(1.27925e-09 -1.02982e-09 -2.87674e-10)
(2.03706e-09 -1.66641e-09 -4.74989e-10)
(2.73685e-09 -2.29085e-09 -6.72464e-10)
(3.39659e-09 -2.92527e-09 -8.91643e-10)
(4.03132e-09 -3.58852e-09 -1.14317e-09)
(4.65295e-09 -4.29492e-09 -1.43679e-09)
(5.26923e-09 -5.05505e-09 -1.78069e-09)
(5.88176e-09 -5.87638e-09 -2.17978e-09)
(6.48135e-09 -6.76172e-09 -2.63217e-09)
(7.03934e-09 -7.7077e-09 -3.12291e-09)
(7.49429e-09 -8.70698e-09 -3.61362e-09)
(7.7305e-09 -9.7428e-09 -4.02728e-09)
(7.56031e-09 -1.07828e-08 -4.23248e-09)
(6.76279e-09 -1.17445e-08 -4.05518e-09)
(5.47008e-09 -1.23943e-08 -3.47368e-09)
(5.56213e-10 -4.30457e-10 -1.20986e-10)
(1.60983e-09 -1.2561e-09 -3.56563e-10)
(2.5633e-09 -2.03197e-09 -5.88485e-10)
(3.44396e-09 -2.79221e-09 -8.32753e-10)
(4.27516e-09 -3.56289e-09 -1.10382e-09)
(5.07786e-09 -4.36721e-09 -1.41542e-09)
(5.86991e-09 -5.21771e-09 -1.7809e-09)
(6.66835e-09 -6.12812e-09 -2.21329e-09)
(7.48663e-09 -7.09859e-09 -2.7245e-09)
(8.33509e-09 -8.12564e-09 -3.32383e-09)
(9.21562e-09 -9.19197e-09 -4.01513e-09)
(1.01141e-08 -1.02671e-08 -4.79207e-09)
(1.09847e-08 -1.13022e-08 -5.63115e-09)
(1.17261e-08 -1.2223e-08 -6.48139e-09)
(1.2167e-08 -1.29119e-08 -7.2478e-09)
(1.21674e-08 -1.31924e-08 -7.74742e-09)
(6.61746e-10 -4.92115e-10 -1.41323e-10)
(1.91506e-09 -1.43565e-09 -4.16355e-10)
(3.0489e-09 -2.32232e-09 -6.86692e-10)
(4.0957e-09 -3.18983e-09 -9.7083e-10)
(5.08403e-09 -4.06882e-09 -1.28563e-09)
(6.03977e-09 -4.98134e-09 -1.64736e-09)
(6.98798e-09 -5.94492e-09 -2.07256e-09)
(7.95351e-09 -6.96526e-09 -2.57854e-09)
(8.96412e-09 -8.04267e-09 -3.18394e-09)
(1.00507e-08 -9.16082e-09 -3.909e-09)
(1.125e-08 -1.02874e-08 -4.77634e-09)
(1.26043e-08 -1.13674e-08 -5.81224e-09)
(1.4156e-08 -1.23172e-08 -7.04866e-09)
(1.59276e-08 -1.3029e-08 -8.52176e-09)
(1.7852e-08 -1.33953e-08 -1.02345e-08)
(1.95095e-08 -1.34002e-08 -1.18746e-08)
(7.57012e-10 -5.35649e-10 -1.58245e-10)
(2.19053e-09 -1.56269e-09 -4.65986e-10)
(3.48652e-09 -2.52765e-09 -7.67755e-10)
(4.68158e-09 -3.47093e-09 -1.08385e-09)
(5.80874e-09 -4.42612e-09 -1.43279e-09)
(6.89784e-09 -5.41542e-09 -1.83257e-09)
(7.97904e-09 -6.45519e-09 -2.30174e-09)
(9.08434e-09 -7.55077e-09 -2.86041e-09)
(1.02511e-08 -8.69521e-09 -3.53134e-09)
(1.15258e-08 -9.86448e-09 -4.34153e-09)
(1.29701e-08 -1.10125e-08 -5.32481e-09)
(1.46646e-08 -1.20588e-08 -6.52638e-09)
(1.67133e-08 -1.28833e-08 -8.01013e-09)
(1.92252e-08 -1.33209e-08 -9.86369e-09)
(2.21946e-08 -1.32049e-08 -1.21524e-08)
(2.49367e-08 -1.26332e-08 -1.4495e-08)
(8.40776e-10 -5.59489e-10 -1.71581e-10)
(2.43276e-09 -1.63308e-09 -5.04938e-10)
(3.87033e-09 -2.64113e-09 -8.30782e-10)
(5.19371e-09 -3.62749e-09 -1.17044e-09)
(6.43823e-09 -4.62449e-09 -1.54322e-09)
(7.63697e-09 -5.65693e-09 -1.96778e-09)
(8.82264e-09 -6.73919e-09 -2.46324e-09)
(1.00306e-08 -7.87496e-09 -3.05025e-09)
(1.13024e-08 -9.05391e-09 -3.75215e-09)
(1.269e-08 -1.02473e-08 -4.59645e-09)
(1.42609e-08 -1.13989e-08 -5.61697e-09)
(1.61038e-08 -1.24157e-08 -6.85726e-09)
(1.83335e-08 -1.31512e-08 -8.3756e-09)
(2.109e-08 -1.33762e-08 -1.02497e-08)
(2.44899e-08 -1.27462e-08 -1.25467e-08)
(2.81263e-08 -1.10622e-08 -1.49553e-08)
(6.47879e-11 -5.70069e-11 -1.41876e-11)
(1.87428e-10 -1.66435e-10 -4.18374e-11)
(2.98169e-10 -2.69623e-10 -6.91366e-11)
(3.99959e-10 -3.71484e-10 -9.79889e-11)
(4.95097e-10 -4.76012e-10 -1.30066e-10)
(5.85137e-10 -5.86651e-10 -1.66836e-10)
(6.70698e-10 -7.06502e-10 -2.09466e-10)
(7.50859e-10 -8.38299e-10 -2.58538e-10)
(8.22296e-10 -9.84837e-10 -3.13403e-10)
(8.77622e-10 -1.14885e-09 -3.70938e-10)
(9.03155e-10 -1.33322e-09 -4.23297e-10)
(8.76807e-10 -1.54155e-09 -4.54201e-10)
(7.69134e-10 -1.77671e-09 -4.33798e-10)
(5.57575e-10 -2.03569e-09 -3.15218e-10)
(2.72747e-10 -2.28995e-09 -4.98574e-11)
(7.68327e-11 -2.44816e-09 3.06068e-10)
(1.93117e-10 -1.6862e-10 -4.21169e-11)
(5.58652e-10 -4.92121e-10 -1.24199e-10)
(8.88832e-10 -7.97357e-10 -2.05248e-10)
(1.19246e-09 -1.09845e-09 -2.90924e-10)
(1.47652e-09 -1.40722e-09 -3.86233e-10)
(1.74604e-09 -1.73379e-09 -4.95637e-10)
(2.00344e-09 -2.08684e-09 -6.22855e-10)
(2.24726e-09 -2.47397e-09 -7.70134e-10)
(2.46977e-09 -2.90284e-09 -9.3664e-10)
(2.65256e-09 -3.3795e-09 -1.11526e-09)
(2.76067e-09 -3.91153e-09 -1.28693e-09)
(2.73493e-09 -4.50587e-09 -1.41143e-09)
(2.49126e-09 -5.16902e-09 -1.41545e-09)
(1.94715e-09 -5.89685e-09 -1.18814e-09)
(1.12892e-09 -6.64022e-09 -6.29611e-10)
(4.16828e-10 -7.20501e-09 9.42222e-11)
(3.18372e-10 -2.73643e-10 -6.88915e-11)
(9.21056e-10 -7.9892e-10 -2.03142e-10)
(1.46546e-09 -1.29406e-09 -3.35668e-10)
(1.96638e-09 -1.78216e-09 -4.75762e-10)
(2.43584e-09 -2.28213e-09 -6.31727e-10)
(2.8831e-09 -2.8099e-09 -8.11168e-10)
(3.31394e-09 -3.37796e-09 -1.02085e-09)
(3.72967e-09 -3.99852e-09 -1.26594e-09)
(4.12361e-09 -4.67955e-09 -1.54806e-09)
(4.47676e-09 -5.4293e-09 -1.86157e-09)
(4.74858e-09 -6.2512e-09 -2.18675e-09)
(4.8664e-09 -7.14763e-09 -2.47902e-09)
(4.71509e-09 -8.11324e-09 -2.6555e-09)
(4.15136e-09 -9.12573e-09 -2.59153e-09)
(3.10877e-09 -1.01092e-08 -2.1787e-09)
(1.96721e-09 -1.08299e-08 -1.58669e-09)
(4.38602e-10 -3.68374e-10 -9.38093e-11)
(1.26885e-09 -1.07518e-09 -2.76578e-10)
(2.01886e-09 -1.74117e-09 -4.56896e-10)
(2.70936e-09 -2.39699e-09 -6.4743e-10)
(3.3577e-09 -3.06772e-09 -8.59649e-10)
(3.97813e-09 -3.77317e-09 -1.10436e-09)
(4.5819e-09 -4.53009e-09 -1.39185e-09)
(5.17626e-09 -5.35005e-09 -1.73143e-09)
(5.76302e-09 -6.24236e-09 -2.13005e-09)
(6.33406e-09 -7.20815e-09 -2.5893e-09)
(6.86548e-09 -8.24398e-09 -3.1e-09)
(7.30522e-09 -9.33357e-09 -3.63327e-09)
(7.55901e-09 -1.04438e-08 -4.12834e-09)
(7.4815e-09 -1.15059e-08 -4.48395e-09)
(6.92811e-09 -1.23784e-08 -4.58303e-09)
(6.06423e-09 -1.28145e-08 -4.43772e-09)
(5.51897e-10 -4.49217e-10 -1.16259e-10)
(1.59654e-09 -1.31091e-09 -3.42684e-10)
(2.54018e-09 -2.12263e-09 -5.65834e-10)
(3.40912e-09 -2.92099e-09 -8.01348e-10)
(4.22608e-09 -3.73582e-09 -1.06354e-09)
(5.01075e-09 -4.59006e-09 -1.36622e-09)
(5.78088e-09 -5.50201e-09 -1.72325e-09)
(6.55239e-09 -6.48295e-09 -2.14865e-09)
(7.33982e-09 -7.53764e-09 -2.65619e-09)
(8.15565e-09 -8.661e-09 -3.2581e-09)
(9.00797e-09 -9.8333e-09 -3.96248e-09)
(9.8959e-09 -1.1017e-08 -4.76852e-09)
(1.07972e-08 -1.21463e-08 -5.65786e-09)
(1.16461e-08 -1.31164e-08 -6.57898e-09)
(1.23016e-08 -1.37698e-08 -7.41864e-09)
(1.25699e-08 -1.39394e-08 -7.95769e-09)
(6.56489e-10 -5.13277e-10 -1.35748e-10)
(1.89909e-09 -1.49821e-09 -3.99987e-10)
(3.02105e-09 -2.42526e-09 -6.59948e-10)
(4.05385e-09 -3.33638e-09 -9.33683e-10)
(5.02501e-09 -4.26416e-09 -1.23781e-09)
(5.95947e-09 -5.23433e-09 -1.5886e-09)
(6.88113e-09 -6.26443e-09 -2.00292e-09)
(7.8149e-09 -7.36519e-09 -2.49891e-09)
(8.7885e-09 -8.53563e-09 -3.09655e-09)
(9.83562e-09 -9.76077e-09 -3.8181e-09)
(1.09992e-08 -1.10057e-08 -4.68839e-09)
(1.23337e-08 -1.22082e-08 -5.73442e-09)
(1.39009e-08 -1.32738e-08 -6.98146e-09)
(1.57387e-08 -1.40817e-08 -8.43359e-09)
(1.77462e-08 -1.45297e-08 -9.9968e-09)
(1.93675e-08 -1.46502e-08 -1.12387e-08)
(7.50906e-10 -5.58633e-10 -1.5194e-10)
(2.17198e-09 -1.63043e-09 -4.47468e-10)
(3.45417e-09 -2.63912e-09 -7.37477e-10)
(4.63316e-09 -3.62971e-09 -1.04173e-09)
(5.74021e-09 -4.63663e-09 -1.37841e-09)
(6.80458e-09 -5.6872e-09 -1.7654e-09)
(7.85497e-09 -6.79859e-09 -2.22142e-09)
(8.92261e-09 -7.97868e-09 -2.76708e-09)
(1.00447e-08 -9.222e-09 -3.426e-09)
(1.12692e-08 -1.05046e-08 -4.22616e-09)
(1.26605e-08 -1.17763e-08 -5.20166e-09)
(1.4306e-08 -1.29525e-08 -6.39463e-09)
(1.63126e-08 -1.39048e-08 -7.85413e-09)
(1.87637e-08 -1.44716e-08 -9.61692e-09)
(2.15264e-08 -1.45478e-08 -1.16071e-08)
(2.36992e-08 -1.43653e-08 -1.32754e-08)
(8.3394e-10 -5.83596e-10 -1.64676e-10)
(2.4117e-09 -1.70318e-09 -4.8465e-10)
(3.83387e-09 -2.75717e-09 -7.976e-10)
(5.13883e-09 -3.79142e-09 -1.12423e-09)
(6.36094e-09 -4.8431e-09 -1.48345e-09)
(7.53148e-09 -5.93775e-09 -1.89368e-09)
(8.68194e-09 -7.09327e-09 -2.37406e-09)
(9.84626e-09 -8.31539e-09 -2.94547e-09)
(1.10647e-08 -9.59507e-09 -3.63162e-09)
(1.23882e-08 -1.09021e-08 -4.46018e-09)
(1.38835e-08 -1.21781e-08 -5.46397e-09)
(1.56361e-08 -1.33225e-08 -6.68147e-09)
(1.77456e-08 -1.41802e-08 -8.15389e-09)
(2.02876e-08 -1.45261e-08 -9.90732e-09)
(2.31667e-08 -1.40954e-08 -1.18723e-08)
(2.5625e-08 -1.29329e-08 -1.35645e-08)
(6.41538e-11 -5.92482e-11 -1.30896e-11)
(1.85487e-10 -1.73043e-10 -3.86105e-11)
(2.94804e-10 -2.80688e-10 -6.38476e-11)
(3.94863e-10 -3.87339e-10 -9.05964e-11)
(4.87782e-10 -4.97428e-10 -1.20463e-10)
(5.74942e-10 -6.14789e-10 -1.54907e-10)
(6.56671e-10 -7.42776e-10 -1.95191e-10)
(7.31827e-10 -8.84649e-10 -2.42173e-10)
(7.96767e-10 -1.04347e-09 -2.95842e-10)
(8.43924e-10 -1.22218e-09 -3.54422e-10)
(8.59826e-10 -1.42388e-09 -4.1287e-10)
(8.23373e-10 -1.65148e-09 -4.60679e-10)
(7.08133e-10 -1.90659e-09 -4.79724e-10)
(4.97153e-10 -2.18393e-09 -4.45349e-10)
(2.25234e-10 -2.45304e-09 -3.40336e-10)
(3.77907e-11 -2.62151e-09 -2.04012e-10)
(1.91202e-10 -1.75196e-10 -3.88523e-11)
(5.5289e-10 -5.11833e-10 -1.14606e-10)
(8.78796e-10 -8.3004e-10 -1.8952e-10)
(1.17725e-09 -1.14531e-09 -2.68929e-10)
(1.45475e-09 -1.47058e-09 -3.57634e-10)
(1.71569e-09 -1.81685e-09 -4.60055e-10)
(1.9618e-09 -2.19385e-09 -5.80136e-10)
(2.1909e-09 -2.61075e-09 -7.20854e-10)
(2.39444e-09 -3.07552e-09 -8.83038e-10)
(2.55384e-09 -3.59609e-09 -1.06311e-09)
(2.63472e-09 -4.17904e-09 -1.24922e-09)
(2.58181e-09 -4.83037e-09 -1.41573e-09)
(2.32064e-09 -5.55177e-09 -1.51819e-09)
(1.7879e-09 -6.33128e-09 -1.49762e-09)
(1.02991e-09 -7.11122e-09 -1.31898e-09)
(3.91646e-10 -7.69787e-09 -1.08227e-09)
(3.15242e-10 -2.84481e-10 -6.35398e-11)
(9.11517e-10 -8.30722e-10 -1.87411e-10)
(1.44889e-09 -1.347e-09 -3.09867e-10)
(1.94132e-09 -1.8581e-09 -4.39653e-10)
(2.40001e-09 -2.38469e-09 -5.84706e-10)
(2.8332e-09 -2.94396e-09 -7.5249e-10)
(3.24579e-09 -3.55133e-09 -9.50016e-10)
(3.63767e-09 -4.21909e-09 -1.18333e-09)
(4.00157e-09 -4.95903e-09 -1.45616e-09)
(4.318e-09 -5.77882e-09 -1.76726e-09)
(4.54891e-09 -6.68377e-09 -2.10569e-09)
(4.62859e-09 -7.67284e-09 -2.44409e-09)
(4.45967e-09 -8.73417e-09 -2.73205e-09)
(3.93208e-09 -9.83268e-09 -2.90011e-09)
(3.01736e-09 -1.0881e-08 -2.90056e-09)
(2.04917e-09 -1.16555e-08 -2.81084e-09)
(4.34259e-10 -3.82807e-10 -8.64979e-11)
(1.25566e-09 -1.11783e-09 -2.55083e-10)
(1.99598e-09 -1.81218e-09 -4.21627e-10)
(2.67481e-09 -2.49887e-09 -5.98028e-10)
(3.30834e-09 -3.20494e-09 -7.952e-10)
(3.90963e-09 -3.95299e-09 -1.02365e-09)
(4.48844e-09 -4.76139e-09 -1.29375e-09)
(5.05073e-09 -5.64515e-09 -1.61553e-09)
(5.5971e-09 -6.61501e-09 -1.99776e-09)
(6.12003e-09 -7.67581e-09 -2.4458e-09)
(6.59883e-09 -8.82351e-09 -2.95769e-09)
(6.99281e-09 -1.00411e-08 -3.51779e-09)
(7.23233e-09 -1.1288e-08 -4.08855e-09)
(7.21781e-09 -1.24834e-08 -4.60503e-09)
(6.85804e-09 -1.34771e-08 -4.98625e-09)
(6.26805e-09 -1.40317e-08 -5.17788e-09)
(5.46392e-10 -4.66715e-10 -1.07161e-10)
(1.57992e-09 -1.36295e-09 -3.15937e-10)
(2.51129e-09 -2.20893e-09 -5.21932e-10)
(3.36554e-09 -3.04461e-09 -7.39806e-10)
(4.16387e-09 -3.90201e-09 -9.83112e-10)
(4.9246e-09 -4.8078e-09 -1.26516e-09)
(5.66346e-09 -5.78157e-09 -1.59961e-09)
(6.39492e-09 -6.8393e-09 -2.00076e-09)
(7.13204e-09 -7.98823e-09 -2.48336e-09)
(7.88743e-09 -9.22632e-09 -3.06166e-09)
(8.67352e-09 -1.05371e-08 -3.74718e-09)
(9.50164e-09 -1.18833e-08 -4.54395e-09)
(1.03785e-08 -1.31971e-08 -5.43895e-09)
(1.12926e-08 -1.43686e-08 -6.38304e-09)
(1.21788e-08 -1.52354e-08 -7.25606e-09)
(1.28273e-08 -1.56121e-08 -7.81836e-09)
(6.49934e-10 -5.33372e-10 -1.25078e-10)
(1.87916e-09 -1.55725e-09 -3.68615e-10)
(2.98652e-09 -2.52347e-09 -6.08451e-10)
(4.00177e-09 -3.47659e-09 -8.61463e-10)
(4.95077e-09 -4.45289e-09 -1.14331e-09)
(5.85659e-09 -5.48046e-09 -1.46955e-09)
(6.74112e-09 -6.58101e-09 -1.8565e-09)
(7.62676e-09 -7.76772e-09 -2.32202e-09)
(8.53929e-09 -9.04439e-09 -2.88601e-09)
(9.51134e-09 -1.04001e-08 -3.5706e-09)
(1.05877e-08 -1.18044e-08 -4.39958e-09)
(1.18318e-08 -1.32005e-08 -5.39549e-09)
(1.33277e-08 -1.45003e-08 -6.56978e-09)
(1.51618e-08 -1.55925e-08 -7.89338e-09)
(1.73244e-08 -1.63808e-08 -9.22033e-09)
(1.93329e-08 -1.68295e-08 -1.01458e-08)
(7.43347e-10 -5.80286e-10 -1.39942e-10)
(2.14902e-09 -1.69435e-09 -4.12191e-10)
(3.41442e-09 -2.74522e-09 -6.79582e-10)
(4.57316e-09 -3.78096e-09 -9.60545e-10)
(5.65495e-09 -4.84052e-09 -1.27215e-09)
(6.68638e-09 -5.95254e-09 -1.63134e-09)
(7.69383e-09 -7.13892e-09 -2.05601e-09)
(8.70547e-09 -8.41113e-09 -2.56597e-09)
(9.75508e-09 -9.76792e-09 -3.18381e-09)
(1.0887e-08 -1.11902e-08 -3.93555e-09)
(1.2163e-08 -1.26345e-08 -4.85075e-09)
(1.36687e-08 -1.40242e-08 -5.96017e-09)
(1.55136e-08 -1.5246e-08 -7.28595e-09)
(1.77946e-08 -1.61653e-08 -8.80862e-09)
(2.04361e-08 -1.67033e-08 -1.03738e-08)
(2.27039e-08 -1.69877e-08 -1.14997e-08)
(8.25424e-10 -6.05941e-10 -1.51607e-10)
(2.38606e-09 -1.76968e-09 -4.4624e-10)
(3.78935e-09 -2.86708e-09 -7.34598e-10)
(5.07196e-09 -3.94887e-09 -1.03595e-09)
(6.26565e-09 -5.05371e-09 -1.36797e-09)
(7.39956e-09 -6.21207e-09 -1.74802e-09)
(8.50196e-09 -7.44455e-09 -2.1942e-09)
(9.60301e-09 -8.76086e-09 -2.72623e-09)
(1.07381e-08 -1.01561e-08 -3.36622e-09)
(1.19519e-08 -1.16056e-08 -4.13889e-09)
(1.33023e-08 -1.30558e-08 -5.07084e-09)
(1.48621e-08 -1.44161e-08 -6.18669e-09)
(1.6709e-08 -1.55469e-08 -7.49732e-09)
(1.88827e-08 -1.62542e-08 -8.96843e-09)
(2.12615e-08 -1.63173e-08 -1.0445e-08)
(2.32389e-08 -1.57062e-08 -1.14995e-08)
(6.34486e-11 -6.13009e-11 -1.14909e-11)
(1.83362e-10 -1.79146e-10 -3.39055e-11)
(2.91094e-10 -2.90829e-10 -5.61052e-11)
(3.89217e-10 -4.01967e-10 -7.96999e-11)
(4.79635e-10 -5.17309e-10 -1.06155e-10)
(5.63432e-10 -6.41032e-10 -1.36848e-10)
(6.40648e-10 -7.77014e-10 -1.73055e-10)
(7.09681e-10 -9.28924e-10 -2.15841e-10)
(7.66424e-10 -1.10037e-09 -2.65778e-10)
(8.02732e-10 -1.29486e-09 -3.22423e-10)
(8.04476e-10 -1.51585e-09 -3.83518e-10)
(7.49899e-10 -1.7666e-09 -4.4401e-10)
(6.11328e-10 -2.04897e-09 -4.956e-10)
(3.68539e-10 -2.35854e-09 -5.28522e-10)
(4.78714e-11 -2.66698e-09 -5.38086e-10)
(-2.09119e-10 -2.87834e-09 -5.34428e-10)
(1.89116e-10 -1.81293e-10 -3.41036e-11)
(5.46518e-10 -5.29694e-10 -1.00628e-10)
(8.67721e-10 -8.59979e-10 -1.66513e-10)
(1.16043e-09 -1.18849e-09 -2.36541e-10)
(1.43045e-09 -1.52919e-09 -3.15081e-10)
(1.68144e-09 -1.89432e-09 -4.06279e-10)
(1.91416e-09 -2.29497e-09 -5.14074e-10)
(2.12519e-09 -2.74143e-09 -6.41929e-10)
(2.30468e-09 -3.24372e-09 -7.92148e-10)
(2.43242e-09 -3.81089e-09 -9.64559e-10)
(2.47281e-09 -4.45121e-09 -1.15442e-09)
(2.36945e-09 -5.17114e-09 -1.34987e-09)
(2.0471e-09 -5.97228e-09 -1.53061e-09)
(1.43909e-09 -6.84232e-09 -1.67222e-09)
(5.80489e-10 -7.72352e-09 -1.7616e-09)
(-1.85432e-10 -8.40734e-09 -1.81225e-09)
(3.1177e-10 -2.94215e-10 -5.57631e-11)
(9.01016e-10 -8.59744e-10 -1.64517e-10)
(1.43063e-09 -1.39549e-09 -2.72183e-10)
(1.91358e-09 -1.92796e-09 -3.86579e-10)
(2.36e-09 -2.47948e-09 -5.14907e-10)
(2.77692e-09 -3.0694e-09 -6.64112e-10)
(3.16757e-09 -3.71455e-09 -8.41028e-10)
(3.53016e-09 -4.43058e-09 -1.05214e-09)
(3.85515e-09 -5.23107e-09 -1.30288e-09)
(4.12129e-09 -6.12715e-09 -1.59599e-09)
(4.28917e-09 -7.1261e-09 -1.92902e-09)
(4.29419e-09 -8.22816e-09 -2.29073e-09)
(4.04309e-09 -9.4203e-09 -2.65835e-09)
(3.43223e-09 -1.06636e-08 -2.99972e-09)
(2.43372e-09 -1.18635e-08 -3.28464e-09)
(1.37666e-09 -1.27689e-08 -3.48373e-09)
(4.29486e-10 -3.95961e-10 -7.58906e-11)
(1.2412e-09 -1.15686e-09 -2.23858e-10)
(1.97082e-09 -1.87724e-09 -3.70223e-10)
(2.63661e-09 -2.59244e-09 -5.25604e-10)
(3.25332e-09 -3.33198e-09 -6.99854e-10)
(3.83229e-09 -4.12073e-09 -9.02656e-10)
(4.3812e-09 -4.98001e-09 -1.14386e-09)
(4.90356e-09 -5.92823e-09 -1.43356e-09)
(5.39731e-09 -6.97988e-09 -1.78158e-09)
(5.85256e-09 -8.144e-09 -2.19631e-09)
(6.24836e-09 -9.42088e-09 -2.68231e-09)
(6.54777e-09 -1.07961e-08 -3.23638e-09)
(6.6935e-09 -1.22289e-08 -3.84192e-09)
(6.60813e-09 -1.36326e-08 -4.46209e-09)
(6.22119e-09 -1.48414e-08 -5.03087e-09)
(5.63085e-09 -1.55708e-08 -5.4235e-09)
(5.40393e-10 -4.82775e-10 -9.39902e-11)
(1.56168e-09 -1.41022e-09 -2.77166e-10)
(2.47961e-09 -2.28786e-09 -4.58108e-10)
(3.31747e-09 -3.15808e-09 -6.49867e-10)
(4.09476e-09 -4.05615e-09 -8.64624e-10)
(4.82745e-09 -5.01082e-09 -1.11451e-09)
(5.52895e-09 -6.04654e-09 -1.41222e-09)
(6.2103e-09 -7.18213e-09 -1.77144e-09)
(6.88129e-09 -8.43076e-09 -2.20681e-09)
(7.55151e-09 -9.79614e-09 -2.73344e-09)
(8.23252e-09 -1.12687e-08 -3.36519e-09)
(8.94124e-09 -1.28176e-08 -4.11073e-09)
(9.70289e-09 -1.43797e-08 -4.96482e-09)
(1.05463e-08 -1.58418e-08 -5.88965e-09)
(1.14614e-08 -1.70153e-08 -6.77795e-09)
(1.22337e-08 -1.76278e-08 -7.38758e-09)
(6.42766e-10 -5.51508e-10 -1.09666e-10)
(1.85746e-09 -1.61114e-09 -3.23253e-10)
(2.94879e-09 -2.6131e-09 -5.338e-10)
(3.94461e-09 -3.60559e-09 -7.56293e-10)
(4.86861e-09 -4.62764e-09 -1.00474e-09)
(5.74128e-09 -5.71105e-09 -1.29318e-09)
(6.58125e-09 -6.88103e-09 -1.63654e-09)
(7.40711e-09 -8.15627e-09 -2.05127e-09)
(8.23986e-09 -9.54624e-09 -2.55588e-09)
(9.10734e-09 -1.10481e-08 -3.17084e-09)
(1.0051e-08 -1.26415e-08 -3.91761e-09)
(1.11361e-08 -1.42818e-08 -4.81475e-09)
(1.2463e-08 -1.58946e-08 -5.86719e-09)
(1.4165e-08 -1.73758e-08 -7.03943e-09)
(1.63234e-08 -1.85995e-08 -8.19707e-09)
(1.85113e-08 -1.93878e-08 -9.00705e-09)
(7.35132e-10 -5.99975e-10 -1.22651e-10)
(2.12417e-09 -1.75264e-09 -3.61316e-10)
(3.37123e-09 -2.84219e-09 -5.95912e-10)
(4.50787e-09 -3.92054e-09 -8.42765e-10)
(5.56101e-09 -5.02895e-09 -1.11708e-09)
(6.55467e-09 -6.20111e-09 -1.43403e-09)
(7.51121e-09 -7.46224e-09 -1.80973e-09)
(8.45397e-09 -8.8293e-09 -2.26201e-09)
(9.41048e-09 -1.03079e-08 -2.81096e-09)
(1.04175e-08 -1.18883e-08 -3.47906e-09)
(1.15281e-08 -1.35391e-08 -4.28992e-09)
(1.28208e-08 -1.52015e-08 -5.26403e-09)
(1.44051e-08 -1.6786e-08 -6.40681e-09)
(1.64036e-08 -1.81825e-08 -7.6798e-09)
(1.88281e-08 -1.92992e-08 -8.93956e-09)
(2.10878e-08 -2.00832e-08 -9.83353e-09)
(8.16325e-10 -6.26487e-10 -1.32823e-10)
(2.35836e-09 -1.83e-09 -3.90999e-10)
(3.74142e-09 -2.96778e-09 -6.43838e-10)
(4.9994e-09 -4.09306e-09 -9.08373e-10)
(6.16168e-09 -5.24912e-09 -1.20029e-09)
(7.25385e-09 -6.46916e-09 -1.53503e-09)
(8.29999e-09 -7.7784e-09 -1.92871e-09)
(9.32452e-09 -9.19189e-09 -2.39877e-09)
(1.03551e-08 -1.07117e-08 -2.9643e-09)
(1.14259e-08 -1.2322e-08 -3.64554e-09)
(1.2581e-08 -1.39827e-08 -4.46169e-09)
(1.38749e-08 -1.56216e-08 -5.42486e-09)
(1.53643e-08 -1.71259e-08 -6.52591e-09)
(1.70749e-08 -1.83359e-08 -7.70642e-09)
(1.8912e-08 -1.90471e-08 -8.81312e-09)
(2.04204e-08 -1.90913e-08 -9.54323e-09)
(6.27577e-11 -6.30524e-11 -9.44622e-12)
(1.81251e-10 -1.84326e-10 -2.78803e-11)
(2.87421e-10 -2.99556e-10 -4.61628e-11)
(3.83611e-10 -4.1461e-10 -6.56431e-11)
(4.71479e-10 -5.34601e-10 -8.75669e-11)
(5.51828e-10 -6.64108e-10 -1.13138e-10)
(6.24269e-10 -8.07427e-10 -1.43541e-10)
(6.8669e-10 -9.6875e-10 -1.79894e-10)
(7.34215e-10 -1.15233e-09 -2.23131e-10)
(7.57641e-10 -1.36236e-09 -2.73762e-10)
(7.41232e-10 -1.60301e-09 -3.3156e-10)
(6.60489e-10 -1.87836e-09 -3.95291e-10)
(4.82821e-10 -2.19143e-09 -4.6285e-10)
(1.79021e-10 -2.54008e-09 -5.32246e-10)
(-2.36687e-10 -2.89972e-09 -6.02374e-10)
(-6.11851e-10 -3.16998e-09 -6.64301e-10)
(1.87038e-10 -1.8643e-10 -2.80327e-11)
(5.40245e-10 -5.45103e-10 -8.2735e-11)
(8.56775e-10 -8.8576e-10 -1.36987e-10)
(1.14371e-09 -1.22584e-09 -1.94789e-10)
(1.40618e-09 -1.58029e-09 -2.59848e-10)
(1.6469e-09 -1.96247e-09 -3.35779e-10)
(1.86547e-09 -2.38474e-09 -4.26185e-10)
(2.05694e-09 -2.85913e-09 -5.3458e-10)
(2.20929e-09 -3.39739e-09 -6.64113e-10)
(2.29946e-09 -4.01065e-09 -8.16957e-10)
(2.28755e-09 -4.70943e-09 -9.93509e-10)
(2.11065e-09 -5.50203e-09 -1.19153e-09)
(1.68231e-09 -6.39199e-09 -1.40608e-09)
(9.17355e-10 -7.36874e-09 -1.63088e-09)
(-1.69635e-10 -8.37413e-09 -1.85716e-09)
(-1.19502e-09 -9.17563e-09 -2.04513e-09)
(3.08367e-10 -3.02639e-10 -4.58271e-11)
(8.90667e-10 -8.84657e-10 -1.35239e-10)
(1.41259e-09 -1.43725e-09 -2.23867e-10)
(1.88607e-09 -1.98843e-09 -3.18247e-10)
(2.32007e-09 -2.56221e-09 -4.24469e-10)
(2.72014e-09 -3.1796e-09 -5.48541e-10)
(3.0877e-09 -3.8599e-09 -6.96587e-10)
(3.4184e-09 -4.62117e-09 -8.74883e-10)
(3.69955e-09 -5.4802e-09 -1.08954e-09)
(3.90562e-09 -6.45186e-09 -1.34591e-09)
(3.99185e-09 -7.54679e-09 -1.64738e-09)
(3.88627e-09 -8.7682e-09 -1.99403e-09)
(3.48527e-09 -1.01036e-08 -2.3811e-09)
(2.67013e-09 -1.15098e-08 -2.79715e-09)
(1.40074e-09 -1.28767e-08 -3.2151e-09)
(6.20953e-11 -1.39064e-08 -3.54364e-09)
(4.24786e-10 -4.07226e-10 -6.23543e-11)
(1.22696e-09 -1.19026e-09 -1.83971e-10)
(1.94601e-09 -1.93324e-09 -3.04408e-10)
(2.59879e-09 -2.67356e-09 -4.32521e-10)
(3.19847e-09 -3.44281e-09 -5.76611e-10)
(3.75439e-09 -4.26838e-09 -7.44965e-10)
(4.27173e-09 -5.17474e-09 -9.46251e-10)
(4.75069e-09 -6.18381e-09 -1.18972e-09)
(5.18499e-09 -7.31481e-09 -1.48514e-09)
(5.55972e-09 -8.58191e-09 -1.8423e-09)
(5.84806e-09 -9.99121e-09 -2.26994e-09)
(6.00749e-09 -1.15326e-08 -2.77358e-09)
(5.97599e-09 -1.31661e-08 -3.35151e-09)
(5.67351e-09 -1.47946e-08 -3.98603e-09)
(5.03282e-09 -1.62206e-08 -4.62104e-09)
(4.20007e-09 -1.70912e-08 -5.09637e-09)
(5.34491e-10 -4.96411e-10 -7.72037e-11)
(1.5438e-09 -1.45091e-09 -2.27708e-10)
(2.44846e-09 -2.35589e-09 -3.76529e-10)
(3.27002e-09 -3.25654e-09 -5.3452e-10)
(4.02594e-09 -4.19048e-09 -7.119e-10)
(4.72988e-09 -5.18997e-09 -9.18946e-10)
(5.39187e-09 -6.28261e-09 -1.16663e-09)
(6.01899e-09 -7.49242e-09 -1.46698e-09)
(6.6157e-09 -8.83817e-09 -1.83337e-09)
(7.18536e-09 -1.03312e-08 -2.28027e-09)
(7.73317e-09 -1.19704e-08 -2.82234e-09)
(8.27143e-09 -1.37335e-08 -3.47173e-09)
(8.82713e-09 -1.55612e-08 -4.2313e-09)
(9.44314e-09 -1.73292e-08 -5.07852e-09)
(1.01401e-08 -1.88015e-08 -5.92801e-09)
(1.07517e-08 -1.96018e-08 -6.54816e-09)
(6.35763e-10 -5.67126e-10 -9.00504e-11)
(1.83623e-09 -1.65736e-09 -2.6548e-10)
(2.91184e-09 -2.6905e-09 -4.38559e-10)
(3.88834e-09 -3.71739e-09 -6.2173e-10)
(4.78711e-09 -4.78024e-09 -8.26681e-10)
(5.62573e-09 -5.91425e-09 -1.06522e-09)
(6.41904e-09 -7.149e-09 -1.34999e-09)
(7.18049e-09 -8.50849e-09 -1.69509e-09)
(7.92461e-09 -1.00095e-08 -2.11643e-09)
(8.67111e-09 -1.16588e-08 -2.63174e-09)
(9.45256e-09 -1.34483e-08 -3.25963e-09)
(1.03273e-08 -1.53475e-08 -4.01644e-09)
(1.13974e-08 -1.72951e-08 -4.90791e-09)
(1.28198e-08 -1.91843e-08 -5.9093e-09)
(1.47372e-08 -2.08372e-08 -6.92047e-09)
(1.68069e-08 -2.19219e-08 -7.66713e-09)
(7.27143e-10 -6.16848e-10 -1.00679e-10)
(2.09992e-09 -1.80263e-09 -2.96632e-10)
(3.3291e-09 -2.92586e-09 -4.89378e-10)
(4.44374e-09 -4.04123e-09 -6.92442e-10)
(5.46837e-09 -5.19391e-09 -9.18451e-10)
(6.4234e-09 -6.42045e-09 -1.18008e-09)
(7.32692e-09 -7.75117e-09 -1.49081e-09)
(8.19627e-09 -9.20889e-09 -1.86553e-09)
(9.05092e-09 -1.08073e-08 -2.32088e-09)
(9.91697e-09 -1.25477e-08 -2.87504e-09)
(1.08345e-08 -1.44141e-08 -3.54628e-09)
(1.18677e-08 -1.63679e-08 -4.34893e-09)
(1.31173e-08 -1.83436e-08 -5.28417e-09)
(1.47169e-08 -2.02475e-08 -6.32103e-09)
(1.67422e-08 -2.19572e-08 -7.35862e-09)
(1.87511e-08 -2.32321e-08 -8.13849e-09)
(8.07439e-10 -6.43898e-10 -1.08994e-10)
(2.33155e-09 -1.88197e-09 -3.2088e-10)
(3.6948e-09 -3.05449e-09 -5.28508e-10)
(4.92872e-09 -4.2185e-09 -7.45942e-10)
(6.05959e-09 -5.41985e-09 -9.86184e-10)
(7.10952e-09 -6.6961e-09 -1.26204e-09)
(8.09762e-09 -8.07687e-09 -1.58684e-09)
(9.04161e-09 -9.58325e-09 -1.9749e-09)
(9.95979e-09 -1.12255e-08 -2.44154e-09)
(1.08735e-08 -1.29993e-08 -3.00224e-09)
(1.18093e-08 -1.48807e-08 -3.67013e-09)
(1.27999e-08 -1.68194e-08 -4.45018e-09)
(1.38775e-08 -1.87318e-08 -5.32779e-09)
(1.50506e-08 -2.04897e-08 -6.25052e-09)
(1.62412e-08 -2.18968e-08 -7.10563e-09)
(1.71326e-08 -2.26466e-08 -7.68841e-09)
(6.21507e-11 -6.44434e-11 -7.02981e-12)
(1.79417e-10 -1.88483e-10 -2.07524e-11)
(2.84209e-10 -3.06514e-10 -3.43788e-11)
(3.78684e-10 -4.24732e-10 -4.89271e-11)
(4.64275e-10 -5.48513e-10 -6.53498e-11)
(5.4148e-10 -6.82782e-10 -8.45896e-11)
(6.09519e-10 -8.32234e-10 -1.07609e-10)
(6.65679e-10 -1.0016e-09 -1.35397e-10)
(7.0423e-10 -1.19568e-09 -1.68938e-10)
(7.14616e-10 -1.41936e-09 -2.09147e-10)
(6.78878e-10 -1.67767e-09 -2.56824e-10)
(5.68718e-10 -1.97553e-09 -3.12673e-10)
(3.44928e-10 -2.31734e-09 -3.7751e-10)
(-3.22128e-11 -2.7034e-09 -4.52422e-10)
(-5.59508e-10 -3.11333e-09 -5.36813e-10)
(-1.066e-09 -3.44356e-09 -6.14619e-10)
(1.85241e-10 -1.90571e-10 -2.08591e-11)
(5.34763e-10 -5.57322e-10 -6.15787e-11)
(8.47198e-10 -9.0632e-10 -1.02007e-10)
(1.12904e-09 -1.25573e-09 -1.45165e-10)
(1.38472e-09 -1.62139e-09 -1.93884e-10)
(1.61611e-09 -2.01763e-09 -2.5098e-10)
(1.82162e-09 -2.45807e-09 -3.1936e-10)
(1.99459e-09 -2.95624e-09 -4.0207e-10)
(2.12054e-09 -3.52559e-09 -5.02225e-10)
(2.17261e-09 -4.17956e-09 -6.22896e-10)
(2.10499e-09 -4.93066e-09 -7.66924e-10)
(1.84489e-09 -5.78957e-09 -9.36881e-10)
(1.28977e-09 -6.7617e-09 -1.13512e-09)
(3.30964e-10 -7.8382e-09 -1.36283e-09)
(-1.03497e-09 -8.95998e-09 -1.61173e-09)
(-2.36127e-09 -9.87237e-09 -1.82461e-09)
(3.05387e-10 -3.09296e-10 -3.40962e-11)
(8.81648e-10 -9.04471e-10 -1.0064e-10)
(1.39683e-09 -1.47054e-09 -1.6667e-10)
(1.86192e-09 -2.03684e-09 -2.37112e-10)
(2.28479e-09 -2.6287e-09 -3.16604e-10)
(2.66959e-09 -3.26887e-09 -4.09794e-10)
(3.01579e-09 -3.97862e-09 -5.21572e-10)
(3.3164e-09 -4.77848e-09 -6.57177e-10)
(3.55487e-09 -5.68844e-09 -8.22231e-10)
(3.70018e-09 -6.72663e-09 -1.02259e-09)
(3.69933e-09 -7.90764e-09 -1.26414e-09)
(3.46788e-09 -9.23724e-09 -1.55233e-09)
(2.8836e-09 -1.07033e-08 -1.89111e-09)
(1.80386e-09 -1.22565e-08 -2.27874e-09)
(1.78264e-10 -1.37678e-08 -2.6909e-09)
(-1.51529e-09 -1.48958e-08 -3.02236e-09)
(4.20712e-10 -4.1616e-10 -4.63831e-11)
(1.21456e-09 -1.21689e-09 -1.36875e-10)
(1.92436e-09 -1.97793e-09 -2.26574e-10)
(2.56562e-09 -2.73844e-09 -3.22144e-10)
(3.15006e-09 -3.53193e-09 -4.29881e-10)
(3.68511e-09 -4.38805e-09 -5.56155e-10)
(4.17333e-09 -5.33393e-09 -7.07764e-10)
(4.61138e-09 -6.39515e-09 -8.922e-10)
(4.98805e-09 -7.59506e-09 -1.11779e-09)
(5.28164e-09 -8.95332e-09 -1.39367e-09)
(5.45609e-09 -1.04812e-08 -1.72952e-09)
(5.45643e-09 -1.2173e-08 -2.13457e-09)
(5.20496e-09 -1.39872e-08 -2.6147e-09)
(4.60555e-09 -1.58132e-08 -3.16357e-09)
(3.59227e-09 -1.74165e-08 -3.73667e-09)
(2.40661e-09 -1.83847e-08 -4.17972e-09)
(5.2936e-10 -5.073e-10 -5.7415e-11)
(1.52826e-09 -1.48326e-09 -1.69374e-10)
(2.42131e-09 -2.41015e-09 -2.80168e-10)
(3.22847e-09 -3.33526e-09 -3.97956e-10)
(3.96538e-09 -4.29867e-09 -5.3045e-10)
(4.64323e-09 -5.33511e-09 -6.85502e-10)
(5.26896e-09 -6.47589e-09 -8.71565e-10)
(5.84514e-09 -7.74927e-09 -1.09812e-09)
(6.3703e-09 -9.17983e-09 -1.37594e-09)
(6.83978e-09 -1.0786e-08 -1.71718e-09)
(7.24856e-09 -1.25749e-08 -2.13506e-09)
(7.59714e-09 -1.45315e-08 -2.64237e-09)
(7.90128e-09 -1.65978e-08 -3.24697e-09)
(8.20003e-09 -1.86323e-08 -3.93896e-09)
(8.53467e-09 -2.03471e-08 -4.65666e-09)
(8.83555e-09 -2.12766e-08 -5.20183e-09)
(6.29706e-10 -5.79512e-10 -6.69533e-11)
(1.81781e-09 -1.69414e-09 -1.97412e-10)
(2.87969e-09 -2.75215e-09 -3.26214e-10)
(3.8392e-09 -3.80688e-09 -4.62681e-10)
(4.71555e-09 -4.90312e-09 -6.15616e-10)
(5.52348e-09 -6.07913e-09 -7.93955e-10)
(6.27403e-09 -7.36854e-09 -1.00734e-09)
(6.97545e-09 -8.80046e-09 -1.26658e-09)
(7.63503e-09 -1.03987e-08 -1.58399e-09)
(8.26291e-09 -1.21792e-08 -1.97347e-09)
(8.87955e-09 -1.41453e-08 -2.44993e-09)
(9.52968e-09 -1.62795e-08 -3.02748e-09)
(1.0305e-08 -1.85286e-08 -3.71415e-09)