/*--------------------------------*- C++ -*----------------------------------*\
| =========                 |                                                 |
| \\      /  F ield         | foam-extend: Open Source CFD                    |
|  \\    /   O peration     | Version:     3.1                                |
|   \\  /    A nd           | Web:         http://www.extend-project.de       |
|    \\/     M anipulation  |                                                 |
\*---------------------------------------------------------------------------*/
FoamFile
{
    version     2.0;
    format      ascii;
    class       volScalarField;
    location    "1.6";
    object      p;
}
// * * * * * * * * * * * * * * * * * * * * * * * * * * * * * * * * * * * * * //

dimensions      [0 2 -2 0 0 0 0];

internalField   nonuniform List<scalar> 
14592
(
0.0277786
0.0276317
0.0276138
0.0276905
0.0277907
0.0278572
0.0278589
0.0277893
0.0276551
0.0274727
0.0272417
0.0269514
0.0265646
0.0260026
0.0251136
0.0238623
0.0277501
0.0275483
0.0274981
0.0275714
0.0276882
0.0277813
0.0278113
0.0277673
0.0276565
0.0274955
0.0272879
0.0270274
0.0266839
0.0261725
0.0252663
0.0235402
0.0276645
0.0274169
0.0273299
0.0274022
0.0275439
0.0276715
0.0277347
0.0277183
0.0276313
0.0274921
0.0273152
0.0271003
0.0268219
0.0263888
0.02548
0.0232509
0.0275745
0.027302
0.0271798
0.0272401
0.0273938
0.0275445
0.0276317
0.0276347
0.0275634
0.0274364
0.0272796
0.0270987
0.0268755
0.0265158
0.0256616
0.0231072
0.0274974
0.0272153
0.0270657
0.0271036
0.0272524
0.0274101
0.0275069
0.0275164
0.0274471
0.0273196
0.0271643
0.026994
0.0268025
0.0265057
0.0257674
0.0230749
0.0274265
0.0271415
0.0269741
0.026989
0.0271222
0.0272737
0.0273659
0.0273688
0.0272841
0.0271377
0.0269599
0.0267677
0.0265736
0.0263117
0.0257372
0.0230795
0.0273506
0.0270637
0.0268803
0.026877
0.0269888
0.0271299
0.0272083
0.0271892
0.0270759
0.0268907
0.0266614
0.0264036
0.0261496
0.0258453
0.0254478
0.0228749
0.027267
0.0269901
0.0268052
0.0267786
0.026875
0.0269803
0.0270317
0.026984
0.0268317
0.02659
0.0262811
0.0259033
0.0254937
0.0249137
0.0245834
0.0210454
0.0279649
0.0278084
0.0277899
0.0278793
0.0280033
0.028102
0.0281434
0.0281226
0.0280503
0.0279517
0.0278336
0.0276989
0.0275324
0.0272916
0.0269274
0.0266767
0.0279412
0.0277254
0.0276695
0.0277522
0.0278923
0.0280194
0.0280921
0.0281006
0.0280552
0.0279825
0.0278918
0.0277907
0.0276683
0.0274628
0.0270792
0.0267969
0.0278613
0.0276008
0.0275048
0.0275832
0.0277466
0.0279086
0.0280165
0.0280553
0.0280373
0.0279903
0.0279364
0.0278898
0.0278452
0.0277342
0.0273824
0.0270247
0.0277793
0.0274976
0.0273671
0.0274307
0.0276033
0.0277865
0.0279174
0.027976
0.0279767
0.027941
0.0279112
0.0279074
0.0279327
0.0279198
0.0276265
0.0272217
0.0277136
0.0274241
0.027269
0.0273089
0.0274727
0.0276585
0.0277955
0.0278573
0.0278565
0.0278197
0.0277914
0.0278015
0.0278665
0.027934
0.0277233
0.0272978
0.0276489
0.0273598
0.0271908
0.0272077
0.0273517
0.0275257
0.0276521
0.0277011
0.0276791
0.027618
0.0275608
0.0275437
0.0276
0.0277028
0.0275695
0.0271366
0.0275754
0.0272854
0.0271025
0.0271015
0.0272205
0.0273772
0.0274828
0.0275027
0.0274428
0.0273324
0.0272101
0.0271098
0.0270803
0.0271127
0.026986
0.0262868
0.0274851
0.0272094
0.0270259
0.0269981
0.0270973
0.0272132
0.0272835
0.0272658
0.0271564
0.0269751
0.0267519
0.0264987
0.02626
0.0259411
0.0256463
0.0227279
0.0281558
0.0279925
0.027976
0.0280796
0.0282282
0.0283591
0.028439
0.0284646
0.0284503
0.0284229
0.0283975
0.028382
0.0283689
0.0283281
0.0282435
0.0282536
0.0281375
0.0279107
0.0278521
0.0279462
0.0281104
0.0282713
0.0283855
0.0284436
0.0284592
0.0284622
0.0284672
0.028486
0.0285112
0.0284924
0.0283901
0.0283927
0.028063
0.0277935
0.0276927
0.0277799
0.0279664
0.0281629
0.028314
0.0284046
0.0284472
0.0284825
0.0285283
0.0286046
0.0287075
0.0287737
0.02871
0.0286862
0.0279918
0.0277024
0.0275682
0.0276392
0.0278329
0.0280489
0.0282224
0.0283331
0.0283984
0.0284419
0.0285133
0.0286348
0.0288095
0.0289684
0.0289586
0.0289239
0.0279353
0.0276414
0.0274859
0.0275332
0.0277154
0.0279305
0.0281067
0.0282176
0.0282785
0.0283186
0.0283896
0.0285239
0.0287361
0.0289646
0.0290049
0.0289451
0.0278782
0.0275861
0.0274204
0.0274455
0.0276052
0.0278036
0.0279636
0.0280555
0.0280894
0.0280997
0.0281353
0.028235
0.0284277
0.0286672
0.0287107
0.0285813
0.0278038
0.0275143
0.0273367
0.0273448
0.0274771
0.0276518
0.0277843
0.0278404
0.027827
0.0277783
0.0277369
0.0277383
0.0278228
0.0279504
0.0278625
0.0272745
0.027708
0.0274351
0.0272579
0.0272365
0.0273439
0.0274737
0.027563
0.0275724
0.0274997
0.0273674
0.0272079
0.0270329
0.0268732
0.0265983
0.0261727
0.0228518
0.0283387
0.0281709
0.0281578
0.0282759
0.0284483
0.0286094
0.0287246
0.0287914
0.028827
0.0288563
0.028901
0.0289688
0.0290527
0.029126
0.0291787
0.0292573
0.0283259
0.0280907
0.0280315
0.0281377
0.0283252
0.0285178
0.02867
0.0287724
0.0288403
0.0289039
0.0289809
0.0290826
0.0291991
0.0292844
0.0293119
0.0293552
0.0282565
0.0279807
0.0278779
0.0279753
0.0281846
0.0284136
0.0286044
0.0287411
0.0288371
0.0289368
0.0290563
0.0292147
0.0294031
0.0295569
0.0296068
0.0296104
0.0281959
0.0279008
0.027766
0.0278467
0.0280619
0.0283095
0.0285221
0.0286783
0.0287955
0.0289046
0.0290496
0.0292518
0.0295066
0.0297391
0.0298265
0.0298179
0.0281481
0.027851
0.0276981
0.0277559
0.027958
0.0282019
0.0284142
0.0285682
0.0286807
0.0287808
0.0289221
0.029133
0.0294182
0.0297029
0.029809
0.0297496
0.0280966
0.0278035
0.0276435
0.0276805
0.0278585
0.0280818
0.0282731
0.0284027
0.0284828
0.0285475
0.0286469
0.0288152
0.0290692
0.0293395
0.0293948
0.0292178
0.0280215
0.0277337
0.0275636
0.0275844
0.0277331
0.0279276
0.0280856
0.0281732
0.0281975
0.0281949
0.0282074
0.0282653
0.0283936
0.0285181
0.0283535
0.0276131
0.0279207
0.027651
0.0274821
0.0274719
0.0275917
0.0277367
0.027844
0.0278767
0.0278332
0.0277365
0.027618
0.0274833
0.0273457
0.0270355
0.0264372
0.0226891
0.0285028
0.0283312
0.0283218
0.0284533
0.0286468
0.0288345
0.02898
0.0290808
0.0291552
0.0292277
0.029322
0.0294437
0.0295834
0.0297143
0.0298264
0.029915
0.0284934
0.0282524
0.0281938
0.0283113
0.0285197
0.0287401
0.0289249
0.029064
0.0291737
0.0292827
0.0294103
0.0295651
0.0297332
0.0298695
0.0299463
0.02998
0.0284296
0.0281488
0.0280456
0.0281532
0.028383
0.0286406
0.0288656
0.0290409
0.0291816
0.0293271
0.0294973
0.0297063
0.0299388
0.0301283
0.0302106
0.0301928
0.0283771
0.0280785
0.0279447
0.0280356
0.0282707
0.0285463
0.0287924
0.0289861
0.0291423
0.0293021
0.029497
0.0297464
0.0300377
0.0302908
0.0303917
0.0303369
0.028338
0.0280382
0.027889
0.027958
0.0281793
0.0284492
0.0286928
0.0288824
0.0290351
0.0291787
0.0293659
0.029619
0.0299325
0.0302213
0.0303167
0.0301959
0.028289
0.0279968
0.0278435
0.0278933
0.0280894
0.0283358
0.0285544
0.028715
0.0288306
0.0289338
0.0290733
0.0292769
0.0295487
0.0298027
0.0298103
0.0295416
0.0282143
0.0279285
0.0277663
0.0278006
0.0279663
0.0281802
0.0283605
0.0284738
0.0285265
0.0285555
0.0286005
0.0286844
0.0288181
0.0289022
0.0286339
0.0277401
0.0281093
0.0278426
0.0276822
0.0276846
0.0278183
0.0279779
0.0281015
0.028153
0.0281309
0.0280578
0.0279625
0.0278432
0.0276981
0.0273274
0.026569
0.0224849
0.0286365
0.0284623
0.0284564
0.028599
0.0288099
0.0290189
0.0291881
0.0293149
0.0294176
0.0295204
0.0296473
0.0298012
0.0299703
0.0301276
0.0302595
0.0303419
0.0286295
0.0283847
0.0283272
0.0284544
0.0286798
0.0289225
0.029133
0.0293002
0.0294406
0.0295815
0.0297421
0.0299283
0.0301228
0.0302798
0.0303705
0.0303839
0.0285706
0.0282863
0.0281837
0.0283
0.0285468
0.0288274
0.0290794
0.0292843
0.0294574
0.0296352
0.0298379
0.0300757
0.0303279
0.0305268
0.0306095
0.0305592
0.0285242
0.0282236
0.0280915
0.0281915
0.0284434
0.0287417
0.0290144
0.0292368
0.0294216
0.029616
0.0298422
0.0301168
0.0304208
0.030671
0.0307575
0.030654
0.0284918
0.0281906
0.0280453
0.0281246
0.0283623
0.0286535
0.028922
0.0291388
0.0293211
0.0294934
0.0297082
0.0299819
0.0303008
0.0305739
0.0306373
0.0304556
0.0284448
0.0281539
0.0280065
0.028068
0.0282802
0.0285461
0.0287864
0.0289703
0.0291115
0.0292397
0.0294023
0.0296208
0.0298901
0.0301136
0.0300647
0.0297165
0.0283704
0.0280865
0.0279312
0.0279778
0.0281587
0.0283896
0.0285877
0.0287204
0.0287928
0.0288419
0.0289043
0.0289968
0.0291192
0.0291568
0.0287969
0.0277859
0.028262
0.0279978
0.0278448
0.0278591
0.0280058
0.028178
0.028315
0.0283804
0.0283729
0.028314
0.0282299
0.0281124
0.0279486
0.0275182
0.0266346
0.0223092
0.0287314
0.0285558
0.0285529
0.0287038
0.0289271
0.0291511
0.0293368
0.0294809
0.0296021
0.0297238
0.0298702
0.0300419
0.0302251
0.0303923
0.030528
0.0306024
0.0287255
0.0284793
0.0284238
0.0285586
0.0287966
0.0290552
0.0292835
0.0294696
0.0296299
0.0297913
0.0299715
0.0301751
0.030382
0.0305456
0.0306344
0.0306336
0.0286697
0.0283844
0.0282834
0.0284073
0.028667
0.0289643
0.029235
0.0294599
0.0296539
0.0298524
0.0300742
0.0303272
0.0305873
0.0307856
0.0308592
0.0307811
0.0286277
0.0283266
0.0281969
0.0283049
0.02857
0.028885
0.0291765
0.0294185
0.0296219
0.0298379
0.030082
0.0303689
0.0306755
0.030917
0.0309849
0.0308428
0.0285996
0.0282984
0.0281567
0.0282448
0.0284958
0.0288034
0.0290896
0.0293251
0.0295272
0.0297161
0.029946
0.0302286
0.0305448
0.0308005
0.0308343
0.0306061
0.0285541
0.0282646
0.0281222
0.0281934
0.0284189
0.0286999
0.028956
0.029156
0.0293137
0.0294566
0.0296311
0.0298546
0.0301157
0.0303122
0.0302184
0.0298134
0.0284799
0.0281978
0.0280479
0.0281046
0.0282982
0.0285426
0.0287541
0.0289002
0.028985
0.0290455
0.0291161
0.0292093
0.0293181
0.0293187
0.0288926
0.0278025
0.0283691
0.0281072
0.0279599
0.0279839
0.028142
0.0283251
0.0284719
0.028547
0.0285484
0.0284971
0.0284173
0.0282967
0.0281146
0.0276392
0.0266682
0.0221897
0.0287782
0.0286016
0.0285986
0.0287524
0.0289814
0.0292127
0.0294066
0.0295593
0.0296893
0.0298197
0.0299746
0.0301532
0.0303409
0.0305102
0.0306456
0.0307182
0.0287722
0.028525
0.0284682
0.0286053
0.0288487
0.0291147
0.0293515
0.0295468
0.0297163
0.0298869
0.0300755
0.0302855
0.0304958
0.03066
0.0307452
0.0307445
0.0287184
0.0284322
0.0283295
0.0284548
0.0287195
0.0290242
0.0293038
0.0295382
0.0297418
0.0299499
0.0301796
0.0304378
0.0306988
0.030894
0.0309624
0.0308738
0.0286791
0.0283772
0.0282463
0.0283555
0.0286255
0.0289477
0.0292478
0.0294989
0.0297107
0.029937
0.0301884
0.0304791
0.030784
0.0310181
0.0310768
0.030918
0.0286527
0.0283515
0.0282096
0.0282993
0.0285551
0.0288693
0.0291635
0.0294079
0.0296198
0.0298156
0.0300513
0.030336
0.030648
0.0308919
0.0309111
0.0306628
0.0286084
0.0283194
0.0281774
0.0282508
0.0284808
0.0287679
0.029031
0.0292383
0.0294039
0.0295531
0.029732
0.0299558
0.0302101
0.0303901
0.0302737
0.0298452
0.0285344
0.0282532
0.0281038
0.0281627
0.0283607
0.0286105
0.0288277
0.0289799
0.0290703
0.0291355
0.0292089
0.0293007
0.0293999
0.0293791
0.0289171
0.0277834
0.0284226
0.0281621
0.0280159
0.028042
0.0282036
0.0283905
0.0285411
0.0286202
0.0286256
0.0285776
0.028499
0.0283756
0.0281814
0.027682
0.0266435
0.022096
0.0273198
0.0273534
0.0274269
0.0274806
0.0274738
0.0273805
0.027186
0.0268834
0.0264694
0.0259405
0.0252903
0.0245082
0.0235801
0.0224949
0.021245
0.0198578
0.0273068
0.0273457
0.0274348
0.0275027
0.0275063
0.0274192
0.0272272
0.0269249
0.0265103
0.0259813
0.025332
0.0245526
0.0236286
0.0225499
0.0213038
0.0199217
0.0272688
0.0273082
0.0274164
0.0275095
0.0275348
0.0274621
0.027277
0.026976
0.0265597
0.0260292
0.0253793
0.0246023
0.0236848
0.0226184
0.0213854
0.0200222
0.0272155
0.0272455
0.0273637
0.027479
0.0275274
0.0274718
0.0272962
0.026998
0.026581
0.0260464
0.025394
0.0246179
0.023705
0.0226494
0.0214287
0.0200829
0.0271542
0.0271702
0.0272893
0.0274191
0.0274858
0.0274455
0.027279
0.0269838
0.0265648
0.0260269
0.0253712
0.0245939
0.0236832
0.0226357
0.0214275
0.0201003
0.0270894
0.0270926
0.0272083
0.0273459
0.0274248
0.0273953
0.027235
0.026941
0.0265193
0.0259769
0.0253165
0.0245364
0.0236267
0.0225859
0.0213914
0.020085
0.0270245
0.0270189
0.0271305
0.0272712
0.0273565
0.0273325
0.0271743
0.0268788
0.0264528
0.0259045
0.0252383
0.0244545
0.0235452
0.0225112
0.0213331
0.0200513
0.0269633
0.026953
0.0270616
0.0272022
0.0272886
0.0272648
0.0271047
0.026805
0.0263729
0.0258177
0.0251453
0.0243575
0.0234491
0.022423
0.0212651
0.0200123
0.0272927
0.0273061
0.0273699
0.0274214
0.0274176
0.0273292
0.0271391
0.0268393
0.0264263
0.0258963
0.0252429
0.024455
0.0235176
0.0224199
0.0211508
0.0197456
0.0272678
0.0272741
0.027345
0.0274066
0.0274136
0.0273341
0.0271498
0.0268533
0.0264415
0.0259115
0.0252593
0.0244729
0.0235376
0.0224453
0.0211795
0.0197842
0.0272179
0.0272129
0.0272945
0.0273783
0.027408
0.0273459
0.027172
0.0268798
0.0264686
0.02594
0.0252859
0.0245014
0.0235712
0.0224905
0.0212352
0.0198599
0.0271606
0.0271371
0.0272212
0.0273243
0.0273772
0.0273343
0.0271725
0.0268855
0.0264762
0.025944
0.0252891
0.0245061
0.0235803
0.0225101
0.0212653
0.0199067
0.0270998
0.027056
0.027135
0.0272497
0.0273207
0.0272947
0.0271442
0.026863
0.0264528
0.025919
0.0252622
0.024479
0.0235558
0.0224941
0.021261
0.0199205
0.027038
0.0269762
0.0270473
0.0271675
0.0272504
0.0272366
0.0270945
0.0268158
0.0264048
0.025868
0.0252078
0.024423
0.0235018
0.022448
0.0212295
0.0199105
0.0269739
0.0269022
0.0269661
0.0270882
0.0271782
0.0271703
0.0270312
0.0267524
0.0263385
0.0257971
0.0251324
0.0243452
0.023426
0.0223807
0.0211812
0.0198884
0.0269131
0.0268357
0.0268958
0.0270174
0.0271083
0.0271014
0.0269615
0.0266795
0.0262606
0.0257134
0.0250436
0.024254
0.0233377
0.0223024
0.0211267
0.0198653
0.0272651
0.0272534
0.0273057
0.0273582
0.027363
0.0272864
0.0271087
0.0268211
0.0264193
0.0258991
0.0252517
0.0244641
0.0235134
0.0223818
0.0210428
0.0195393
0.0272306
0.0272026
0.0272576
0.0273201
0.027338
0.0272737
0.0271053
0.0268238
0.0264256
0.025908
0.0252639
0.0244783
0.02353
0.0224046
0.0210672
0.0195792
0.0271635
0.0271147
0.0271743
0.0272592
0.0273034
0.027261
0.0271074
0.0268338
0.026439
0.0259238
0.0252798
0.0244981
0.0235557
0.022443
0.0211121
0.019642
0.0270931
0.0270175
0.0270723
0.0271752
0.0272451
0.027226
0.0270883
0.0268233
0.0264328
0.0259164
0.0252728
0.0244936
0.0235557
0.0224535
0.021129
0.0196751
0.0270246
0.026923
0.026965
0.0270769
0.0271661
0.0271665
0.0270435
0.0267867
0.0263978
0.0258813
0.0252366
0.0244578
0.0235227
0.0224291
0.0211143
0.0196792
0.0269595
0.0268353
0.0268634
0.0269779
0.0270792
0.0270922
0.0269812
0.0267291
0.0263405
0.0258218
0.0251741
0.0243939
0.0234608
0.0223761
0.0210773
0.0196673
0.0268915
0.0267564
0.0267734
0.0268874
0.0269955
0.0270189
0.0269093
0.0266579
0.026267
0.0257438
0.0250913
0.0243085
0.0233777
0.0223032
0.0210285
0.019652
0.0268278
0.0266866
0.0266982
0.0268106
0.0269195
0.0269427
0.0268339
0.0265798
0.0261838
0.0256543
0.0249961
0.0242101
0.0232827
0.0222203
0.0209777
0.0196426
0.0272613
0.0272212
0.0272593
0.0273135
0.0273297
0.0272698
0.0271114
0.0268446
0.0264649
0.0259667
0.02534
0.024563
0.0236016
0.0224197
0.0209618
0.0192663
0.0272226
0.0271589
0.0271957
0.02726
0.0272915
0.0272469
0.0271008
0.026843
0.0264697
0.025978
0.0253551
0.0245828
0.023626
0.0224541
0.0209962
0.0193236
0.0271411
0.0270488
0.0270838
0.0271698
0.0272307
0.0272124
0.0270854
0.0268394
0.0264729
0.0259849
0.0253662
0.0246003
0.0236514
0.0224933
0.0210358
0.0193778
0.0270567
0.0269323
0.0269546
0.0270563
0.0271447
0.0271531
0.0270459
0.0268117
0.0264516
0.0259655
0.0253488
0.0245868
0.0236427
0.0224941
0.0210358
0.0193893
0.02698
0.0268253
0.0268276
0.0269343
0.0270418
0.0270719
0.026982
0.0267582
0.0264018
0.0259166
0.0252993
0.0245379
0.0235961
0.0224553
0.0210031
0.0193765
0.0269057
0.02673
0.0267132
0.0268182
0.0269367
0.0269811
0.0269034
0.026686
0.0263303
0.0258427
0.0252218
0.0244579
0.0235173
0.022386
0.0209518
0.0193589
0.026833
0.0266464
0.0266148
0.0267158
0.0268393
0.0268918
0.0268186
0.0266018
0.0262433
0.0257501
0.0251225
0.0243539
0.0234144
0.0222951
0.0208926
0.0193485
0.0267652
0.0265726
0.0265341
0.0266316
0.0267546
0.0268074
0.0267334
0.026513
0.026148
0.0256462
0.02501
0.0242353
0.0232974
0.0221924
0.0208338
0.019352
0.0272912
0.0272222
0.0272439
0.0272989
0.0273279
0.0272878
0.0271538
0.0269152
0.0265672
0.0261048
0.0255132
0.0247625
0.0238014
0.0225613
0.0209426
0.0189393
0.0272519
0.0271514
0.0271662
0.0272301
0.0272756
0.0272536
0.0271351
0.0269083
0.0265689
0.0261158
0.0255308
0.0247874
0.0238338
0.0226076
0.0209889
0.0190159
0.0271618
0.0270254
0.0270298
0.0271125
0.0271887
0.0271964
0.027101
0.0268901
0.0265628
0.0261144
0.0255365
0.0248021
0.0238574
0.022641
0.0210132
0.0190384
0.0270666
0.026896
0.02688
0.0269732
0.0270764
0.0271128
0.0270401
0.0268438
0.0265245
0.0260815
0.0255075
0.0247776
0.0238371
0.0226239
0.0209837
0.0190071
0.0269809
0.026782
0.0267401
0.0268323
0.026952
0.0270101
0.0269561
0.0267717
0.0264576
0.0260162
0.0254418
0.0247118
0.0237721
0.022563
0.0209237
0.0189688
0.0269007
0.0266836
0.0266187
0.0267036
0.0268308
0.0269021
0.0268599
0.0266829
0.0263685
0.0259237
0.025344
0.0246094
0.0236693
0.0224695
0.0208514
0.0189486
0.0268243
0.026598
0.026515
0.0265916
0.0267209
0.0267983
0.0267606
0.0265821
0.0262635
0.0258104
0.0252206
0.0244775
0.0235361
0.0223513
0.0207758
0.0189553
0.0267522
0.0265211
0.0264323
0.0265019
0.0266269
0.0267025
0.0266619
0.0264782
0.0261503
0.0256846
0.0250809
0.0243261
0.0233824
0.0222157
0.0207003
0.0189851
0.0273594
0.0272645
0.0272708
0.0273272
0.0273703
0.0273528
0.0272473
0.027043
0.0267357
0.0263235
0.0257863
0.0250868
0.0241522
0.022862
0.0210391
0.0185407
0.0273212
0.0271876
0.0271805
0.0272434
0.0273038
0.0273067
0.02722
0.0270311
0.0267373
0.0263345
0.0258068
0.0251168
0.0241907
0.0229048
0.0210648
0.0185339
0.0272272
0.0270524
0.0270264
0.0271034
0.0271941
0.027229
0.0271687
0.0269987
0.0267185
0.0263256
0.0258087
0.0251302
0.0242126
0.0229166
0.0210323
0.0183956
0.0271269
0.0269181
0.0268648
0.0269459
0.0270608
0.0271246
0.0270888
0.0269357
0.0266661
0.0262801
0.0257691
0.0250961
0.0241811
0.0228696
0.0209457
0.0182335
0.027037
0.0268039
0.0267211
0.0267941
0.0269208
0.0270044
0.0269869
0.0268454
0.0265824
0.026198
0.0256866
0.0250123
0.0240968
0.0227786
0.0208469
0.0181298
0.0269539
0.026707
0.0265994
0.0266592
0.0267888
0.0268821
0.026874
0.0267411
0.0264742
0.0260841
0.0255648
0.0248825
0.023965
0.0226537
0.0207519
0.0181086
0.026875
0.0266219
0.0264928
0.0265395
0.026669
0.0267653
0.0267605
0.0266209
0.0263472
0.0259445
0.0254094
0.0247118
0.0237898
0.0224981
0.0206632
0.0181775
0.0268004
0.0265442
0.0264151
0.0264521
0.0265666
0.0266565
0.0266449
0.0264974
0.0262101
0.0257884
0.0252305
0.0245108
0.0235785
0.0223131
0.0205773
0.0183319
0.0274665
0.02735
0.0273442
0.0274043
0.0274636
0.0274713
0.0273983
0.0272344
0.0269783
0.0266302
0.0261725
0.0255642
0.0247146
0.0234396
0.0214105
0.0181293
0.0274309
0.0272693
0.0272434
0.0273068
0.0273836
0.027414
0.0273629
0.0272177
0.0269779
0.0266427
0.0261982
0.0256037
0.0247664
0.0234775
0.0213452
0.0176866
0.0273369
0.0271312
0.0270788
0.0271509
0.0272565
0.0273202
0.0272982
0.0271748
0.0269515
0.0266303
0.0262018
0.0256254
0.0248017
0.0234769
0.0212139
0.017081
0.0272368
0.0269989
0.0269146
0.0269843
0.02711
0.0272013
0.0272042
0.0270989
0.0268885
0.0265759
0.026157
0.0255908
0.0247749
0.0234162
0.0210682
0.016607
0.0271473
0.0268903
0.0267753
0.0268305
0.0269623
0.0270697
0.0270888
0.0269927
0.0267901
0.0264788
0.0260598
0.0254933
0.0246812
0.0233071
0.0209482
0.0163488
0.0270647
0.0267989
0.0266599
0.0266969
0.0268255
0.0269378
0.0269632
0.0268763
0.0266627
0.026342
0.0259115
0.0253327
0.0245192
0.0231488
0.0208491
0.0162954
0.0269863
0.0267161
0.0265554
0.0265757
0.0266993
0.0268099
0.0268342
0.0267345
0.0265105
0.0261706
0.0257154
0.0251096
0.0242844
0.0229309
0.0207552
0.0164542
0.026909
0.0266391
0.0264802
0.0264874
0.02659
0.0266876
0.0266998
0.026587
0.0263432
0.0259744
0.0254825
0.0248331
0.0239754
0.0226323
0.0206448
0.0168808
0.0276088
0.0274752
0.0274613
0.027528
0.0276064
0.0276422
0.0276053
0.027487
0.0272898
0.0270205
0.0266689
0.0262033
0.025543
0.0245024
0.0226289
0.0188516
0.0275765
0.0273924
0.0273521
0.0274188
0.0275143
0.0275749
0.027563
0.0274668
0.0272893
0.027037
0.0267036
0.0262601
0.0256275
0.024587
0.0225461
0.0178334
0.0274858
0.0272561
0.0271833
0.0272535
0.0273758
0.0274704
0.0274897
0.0274183
0.0272606
0.0270264
0.0267163
0.0263043
0.0257079
0.0246629
0.0224518
0.0167744
0.0273896
0.0271309
0.0270237
0.0270859
0.0272241
0.0273441
0.0273881
0.0273357
0.0271923
0.0269687
0.0266733
0.0262827
0.025715
0.0246678
0.0223825
0.0160658
0.0273043
0.0270321
0.0268951
0.026938
0.0270763
0.0272079
0.0272653
0.0272216
0.0270829
0.0268598
0.0265653
0.0261794
0.0256287
0.0245905
0.0223382
0.0157128
0.0272263
0.0269487
0.0267905
0.0268119
0.0269402
0.0270715
0.0271301
0.0270866
0.0269367
0.0266999
0.0263889
0.0259862
0.0254357
0.0244099
0.0222783
0.0156248
0.0271493
0.0268682
0.0266909
0.0266943
0.026808
0.0269345
0.0269859
0.0269264
0.0267571
0.0264919
0.0261439
0.0256962
0.0251162
0.0240814
0.0221415
0.0157325
0.0270688
0.0267938
0.0266163
0.0266012
0.0266992
0.0267989
0.0268313
0.0267516
0.0265535
0.0262466
0.0258419
0.025315
0.0246513
0.0235144
0.0218082
0.015921
0.027158
0.0268714
0.0266781
0.026646
0.026728
0.0268211
0.0268496
0.0267696
0.0265719
0.0262651
0.025861
0.025331
0.0246695
0.0235034
0.021807
0.0157069
0.0270396
0.0267448
0.0265495
0.0265188
0.0265961
0.0266773
0.026683
0.0265697
0.0263263
0.0259567
0.0254623
0.0248035
0.0239322
0.0225391
0.0204712
0.0165396
0.0269295
0.0266282
0.0264383
0.0264183
0.026498
0.0265697
0.0265538
0.0264086
0.0261234
0.0257008
0.0251375
0.0244048
0.0234438
0.0221352
0.0202928
0.0180349
0.0268478
0.0265462
0.0263736
0.0263732
0.0264585
0.0265199
0.026481
0.0263043
0.0259815
0.0255166
0.024907
0.0241409
0.0231677
0.0219757
0.0203783
0.0186704
0.0268142
0.0265248
0.0263832
0.0264056
0.0264918
0.0265363
0.0264698
0.0262605
0.0259032
0.0254044
0.0247644
0.0239825
0.0230222
0.0219037
0.02049
0.0189999
0.0268385
0.0265791
0.0264772
0.0265143
0.0265885
0.026606
0.0265067
0.0262648
0.025878
0.0253536
0.0246947
0.0239061
0.0229646
0.0218953
0.0206198
0.0192741
0.0269051
0.0266923
0.0266321
0.0266748
0.0267277
0.0267129
0.0265807
0.0263111
0.0259033
0.0253642
0.0246985
0.023911
0.0229889
0.0219516
0.0207582
0.019489
0.026934
0.0267855
0.0267645
0.0268175
0.0268609
0.0268268
0.0266746
0.0263893
0.0259721
0.0254297
0.0247666
0.0239857
0.0230773
0.0220522
0.0208831
0.0196251
0.0273632
0.0270768
0.0268829
0.0268478
0.0269292
0.0270274
0.0270688
0.0270108
0.0268448
0.026582
0.026238
0.0257869
0.0252164
0.0241137
0.0222167
0.0152524
0.0272261
0.026929
0.0267296
0.0266925
0.0267666
0.0268502
0.0268649
0.026767
0.0265455
0.0262047
0.0257465
0.0251247
0.0242797
0.0228252
0.0205277
0.0158481
0.0270943
0.0267867
0.0265879
0.0265583
0.0266339
0.0267076
0.0266991
0.0265654
0.0262948
0.0258895
0.0253447
0.0246242
0.0236576
0.0222825
0.0202826
0.0177213
0.0269902
0.0266778
0.0264914
0.0264801
0.0265625
0.0266278
0.0265968
0.0264295
0.0261165
0.0256613
0.0250594
0.0242946
0.0233061
0.022072
0.0203681
0.0185392
0.0269364
0.0266323
0.0264739
0.0264866
0.0265731
0.0266246
0.026567
0.026366
0.0260152
0.0255211
0.0248824
0.024097
0.0231193
0.0219713
0.02048
0.0189131
0.0269452
0.0266692
0.026551
0.026582
0.0266601
0.0266867
0.0265969
0.0263622
0.0259794
0.0254562
0.024795
0.024
0.0230415
0.0219481
0.0206171
0.0192155
0.0270049
0.0267747
0.0267022
0.0267433
0.0268029
0.0267979
0.0266745
0.0264105
0.0260049
0.0254652
0.0247956
0.0240011
0.0230637
0.0220062
0.0207719
0.0194584
0.0270295
0.0268683
0.0268405
0.026896
0.0269478
0.0269233
0.0267786
0.0264976
0.0260816
0.0255383
0.024872
0.024085
0.023164
0.0221208
0.0209164
0.0196168
0.0275737
0.0272891
0.0270994
0.0270685
0.0271551
0.0272615
0.0273156
0.0272767
0.0271371
0.026909
0.0266086
0.0262045
0.0256679
0.0245278
0.0224148
0.0147696
0.0274186
0.0271208
0.0269224
0.026886
0.026962
0.0270502
0.0270732
0.0269881
0.0267839
0.0264648
0.0260317
0.0254293
0.0245841
0.0230461
0.0205476
0.0153511
0.0272656
0.0269541
0.0267516
0.0267188
0.0267942
0.0268714
0.0268692
0.0267442
0.0264843
0.0260912
0.025558
0.0248407
0.0238579
0.0224109
0.0202677
0.017459
0.0271397
0.0268195
0.0266245
0.0266073
0.0266896
0.0267593
0.0267348
0.0265744
0.026268
0.0258187
0.0252203
0.0244519
0.0234436
0.0221634
0.0203597
0.0184191
0.027066
0.0267507
0.0265803
0.026587
0.0266754
0.0267334
0.0266834
0.0264885
0.0261418
0.0256495
0.0250096
0.0242178
0.0232208
0.0220415
0.0204782
0.0188407
0.0270593
0.0267703
0.0266398
0.026667
0.0267496
0.0267848
0.0267032
0.0264739
0.0260932
0.0255693
0.0249041
0.0241011
0.0231248
0.0220071
0.0206244
0.0191708
0.0271115
0.0268673
0.0267855
0.0268265
0.026893
0.0268973
0.0267817
0.026522
0.0261171
0.0255753
0.0249006
0.024098
0.023145
0.0220672
0.0207943
0.0194389
0.0271322
0.0269607
0.0269285
0.0269876
0.0270479
0.0270328
0.0268948
0.0266169
0.026201
0.0256553
0.0249844
0.0241904
0.0232562
0.0221948
0.0209567
0.0196174
0.027775
0.0274925
0.0273093
0.0272873
0.0273832
0.0274996
0.0275659
0.027543
0.0274236
0.0272198
0.026946
0.0265629
0.0260248
0.0248123
0.0224922
0.0142948
0.0276031
0.0273057
0.0271107
0.0270796
0.0271614
0.0272562
0.0272871
0.0272121
0.0270203
0.0267155
0.0262963
0.0256982
0.0248358
0.0232106
0.0205361
0.0149523
0.0274308
0.0271167
0.0269137
0.026882
0.0269605
0.0270425
0.0270461
0.0269276
0.0266747
0.0262885
0.0257602
0.0250381
0.0240323
0.0225157
0.020247
0.0172435
0.0272847
0.0269588
0.0267589
0.0267397
0.0268242
0.0268988
0.0268799
0.0267245
0.0264219
0.025975
0.0253761
0.0245998
0.0235691
0.0222434
0.0203516
0.0183158
0.0271926
0.0268688
0.0266902
0.0266939
0.0267853
0.0268498
0.0268063
0.0266158
0.0262711
0.0257786
0.025135
0.0243345
0.0233177
0.0221075
0.0204809
0.0187819
0.0271719
0.0268725
0.0267329
0.0267583
0.0268459
0.0268891
0.0268145
0.0265893
0.0262094
0.0256834
0.0250127
0.0242008
0.0232069
0.0220659
0.0206374
0.0191376
0.0272158
0.0269613
0.0268727
0.0269147
0.026988
0.027001
0.0268922
0.0266358
0.0262306
0.0256857
0.0250051
0.0241938
0.0232256
0.0221284
0.0208209
0.0194276
0.0272342
0.0270542
0.0270192
0.0270825
0.0271513
0.0271449
0.027013
0.0267374
0.0263205
0.0257716
0.0250954
0.0242936
0.0233463
0.0222673
0.0209987
0.0196233
0.0279537
0.0276732
0.0274969
0.0274854
0.0275923
0.0277192
0.0277966
0.0277863
0.0276812
0.0274925
0.0272323
0.0268531
0.0262959
0.0250033
0.0225049
0.0138726
0.0277673
0.0274704
0.02728
0.0272561
0.0273456
0.0274476
0.0274857
0.0274183
0.0272347
0.0269377
0.0265238
0.0259204
0.0250326
0.0233256
0.0205043
0.0146275
0.0275781
0.0272625
0.0270605
0.0270323
0.0271157
0.027203
0.0272117
0.0270978
0.026849
0.0264656
0.0259369
0.0252052
0.0241738
0.0225946
0.0202218
0.0170699
0.0274147
0.0270847
0.0268822
0.0268633
0.0269513
0.027031
0.0270168
0.0268648
0.026564
0.026117
0.0255146
0.0247283
0.0236751
0.0223083
0.0203433
0.0182308
0.0273066
0.0269765
0.0267925
0.026795
0.0268902
0.0269606
0.0269225
0.0267353
0.0263912
0.0258968
0.0252482
0.0244383
0.0234025
0.0221645
0.0204852
0.018735
0.0272741
0.0269666
0.0268204
0.0268453
0.0269378
0.0269881
0.0269195
0.0266973
0.0263172
0.0257883
0.0251118
0.0242908
0.0232809
0.0221188
0.0206521
0.0191133
0.0273107
0.027048
0.0269545
0.0269981
0.0270778
0.0270984
0.0269954
0.0267415
0.0263355
0.0257872
0.0251006
0.0242807
0.0232988
0.0221842
0.0208473
0.0194216
0.0273265
0.0271404
0.0271038
0.0271713
0.0272478
0.0272492
0.0271225
0.0268487
0.0264305
0.025878
0.0251962
0.0243867
0.0234274
0.0223325
0.0210375
0.0196311
0.0280985
0.0278198
0.0276496
0.0276481
0.0277658
0.0279022
0.0279887
0.0279876
0.0278917
0.0277114
0.0274562
0.0270722
0.0264907
0.0251275
0.0224923
0.0135429
0.0279004
0.0276044
0.0274181
0.0274017
0.027499
0.0276079
0.027652
0.02759
0.0274111
0.0271175
0.0267036
0.0260907
0.025177
0.0234018
0.0204684
0.0143821
0.0276979
0.0273814
0.0271812
0.0271573
0.0272461
0.0273384
0.0273513
0.0272405
0.0269935
0.0266102
0.0260785
0.0253356
0.0242804
0.02265
0.0201978
0.01694
0.0275208
0.027188
0.0269844
0.0269671
0.0270589
0.0271432
0.0271328
0.0269831
0.0266826
0.026234
0.0256271
0.0248305
0.0237575
0.0223571
0.020336
0.0181668
0.0274
0.0270656
0.0268781
0.0268808
0.0269796
0.0270551
0.0270213
0.0268362
0.0264918
0.025995
0.0253412
0.0245223
0.0234705
0.0222096
0.0204897
0.0187003
0.0273583
0.0270449
0.0268943
0.0269194
0.0270163
0.0270723
0.0270085
0.0267884
0.0264077
0.0258758
0.0251938
0.0243648
0.0233414
0.022162
0.0206656
0.0190964
0.0273893
0.0271204
0.0270237
0.027069
0.027154
0.0271809
0.0270825
0.0268303
0.0264233
0.0258717
0.0251797
0.0243525
0.0233591
0.0222302
0.0208701
0.0194189
0.0274022
0.0272121
0.0271748
0.0272461
0.027329
0.0273368
0.0272144
0.0269418
0.0265222
0.0259664
0.0252795
0.0244633
0.0234938
0.0223856
0.0210697
0.0196388
0.0282
0.0279231
0.0277577
0.0277647
0.027892
0.0280371
0.0281307
0.028136
0.0280456
0.0278692
0.0276147
0.0272242
0.0266222
0.0252088
0.0224826
0.0133331
0.0279939
0.0276989
0.0275162
0.0275064
0.0276114
0.0277269
0.0277759
0.0277176
0.0275413
0.0272486
0.0268326
0.0262106
0.0252763
0.0234523
0.0204422
0.0142218
0.0277822
0.0274656
0.0272673
0.0272479
0.0273425
0.0274399
0.0274564
0.0273476
0.0271013
0.026717
0.0261814
0.0254289
0.0243551
0.0226875
0.0201808
0.0168555
0.0275956
0.0272616
0.0270581
0.0270434
0.0271397
0.0272283
0.0272211
0.0270728
0.0267721
0.0263214
0.0257101
0.0249049
0.0238169
0.0223922
0.0203335
0.0181278
0.0274662
0.0271295
0.0269406
0.0269449
0.0270477
0.0271276
0.027097
0.0269133
0.0265683
0.0260689
0.0254107
0.0245846
0.0235209
0.0222435
0.0204966
0.0186805
0.0274182
0.0271016
0.0269491
0.0269756
0.0270765
0.0271371
0.0270766
0.0268579
0.0264763
0.0259417
0.0252553
0.02442
0.0233869
0.022195
0.0206784
0.0190878
0.0274453
0.0271732
0.027075
0.0271225
0.0272118
0.0272433
0.0271481
0.026897
0.026489
0.0259346
0.0252384
0.0244055
0.0234038
0.0222645
0.0208886
0.0194193
0.0274561
0.027264
0.0272268
0.0273011
0.0273888
0.0274012
0.0272817
0.0270099
0.026589
0.0260305
0.0253398
0.0245184
0.0235415
0.0224238
0.0210935
0.0196454
0.0282509
0.027975
0.0278102
0.0278186