/*--------------------------------*- C++ -*----------------------------------*\
| =========                 |                                                 |
| \\      /  F ield         | foam-extend: Open Source CFD                    |
|  \\    /   O peration     | Version:     3.1                                |
|   \\  /    A nd           | Web:         http://www.extend-project.de       |
|    \\/     M anipulation  |                                                 |
\*---------------------------------------------------------------------------*/
FoamFile
{
    version     2.0;
    format      ascii;
    class       surfaceScalarField;
    location    "1.6";
    object      phi;
}
// * * * * * * * * * * * * * * * * * * * * * * * * * * * * * * * * * * * * * //

dimensions      [0 3 -1 0 0 0 0];

internalField   nonuniform List<scalar> 
41600
(
1.16879e-05
1.31962e-07
-1.45981e-06
1.45071e-06
1.17067e-05
-6.85594e-08
-3.5302e-06
3.57995e-06
1.21122e-05
-4.82987e-07
-5.04993e-06
5.12741e-06
1.28611e-05
-8.09056e-07
-6.03637e-06
6.09653e-06
1.37476e-05
-9.04049e-07
-6.58465e-06
6.60219e-06
1.45603e-05
-7.84071e-07
-6.8609e-06
6.83229e-06
1.51644e-05
-5.39156e-07
-7.05209e-06
6.98716e-06
1.55076e-05
-2.56958e-07
-7.33406e-06
7.24784e-06
1.55918e-05
5.30204e-09
-7.86081e-06
7.77123e-06
1.54812e-05
1.83877e-07
-8.78473e-06
8.7115e-06
1.5236e-05
2.67787e-07
-1.02562e-05
1.02337e-05
1.49335e-05
2.02635e-07
-1.24751e-05
1.25749e-05
1.45953e-05
-7.35267e-08
-1.57095e-05
1.61213e-05
1.39122e-05
-6.41317e-07
-2.01512e-05
2.14755e-05
1.09275e-05
-1.10319e-06
-2.47891e-05
2.88771e-05
-5.22175e-07
-2.15203e-05
3.35268e-05
3.29873e-05
2.22096e-07
-1.72597e-06
1.7949e-06
3.30711e-05
-4.6613e-07
-5.95475e-06
6.26858e-06
3.37221e-05
-1.60256e-06
-9.8691e-06
1.03376e-05
3.4922e-05
-2.49047e-06
-1.27525e-05
1.3234e-05
3.63898e-05
-2.76786e-06
-1.44686e-05
1.48646e-05
3.77714e-05
-2.44172e-06
-1.52685e-05
1.55446e-05
3.87954e-05
-1.73116e-06
-1.55701e-05
1.57381e-05
3.93207e-05
-8.75958e-07
-1.58107e-05
1.59044e-05
3.93046e-05
-3.94932e-08
-1.63805e-05
1.64414e-05
3.87721e-05
6.45504e-07
-1.76313e-05
1.77021e-05
3.7729e-05
1.16614e-06
-1.98839e-05
2.00287e-05
3.61271e-05
1.46069e-06
-2.35184e-05
2.38622e-05
3.37193e-05
1.45832e-06
-2.90246e-05
2.99006e-05
2.94315e-05
1.07681e-06
-3.67463e-05
3.93159e-05
2.00859e-05
3.0704e-07
-4.45107e-05
5.24461e-05
-7.30313e-07
-3.63553e-05
5.83033e-05
5.13629e-05
2.20886e-07
-1.16431e-06
1.23665e-06
5.11178e-05
-6.73927e-07
-5.3755e-06
5.82842e-06
5.10661e-05
-2.31652e-06
-1.02993e-05
1.1065e-05
5.1435e-05
-3.7278e-06
-1.46001e-05
1.54686e-05
5.21729e-05
-4.29355e-06
-1.757e-05
1.83577e-05
5.30238e-05
-3.91026e-06
-1.91749e-05
1.97925e-05
5.36917e-05
-2.84181e-06
-1.98134e-05
2.02561e-05
5.39515e-05
-1.44599e-06
-2.00509e-05
2.03611e-05
5.36731e-05
1.88791e-09
-2.04469e-05
2.0684e-05
5.27769e-05
1.3165e-06
-2.14994e-05
2.17246e-05
5.11728e-05
2.4755e-06
-2.36521e-05
2.39468e-05
4.86741e-05
3.44705e-06
-2.7381e-05
2.78933e-05
4.4826e-05
4.20453e-06
-3.32932e-05
3.4395e-05
3.81386e-05
4.68241e-06
-4.19725e-05
4.50544e-05
2.47788e-05
4.172e-06
-5.11936e-05
6.06884e-05
3.13796e-07
-4.19324e-05
6.86299e-05
6.66926e-05
1.71804e-07
-7.3432e-07
7.64509e-07
6.61557e-05
-5.85793e-07
-4.13798e-06
4.58681e-06
6.52222e-05
-2.27526e-06
-9.0296e-06
9.92187e-06
6.42804e-05
-3.89582e-06
-1.40291e-05
1.51389e-05
6.35969e-05
-4.68008e-06
-1.79742e-05
1.90442e-05
6.31869e-05
-4.37479e-06
-2.04047e-05
2.12793e-05
6.28773e-05
-3.17677e-06
-2.15204e-05
2.2165e-05
6.24376e-05
-1.46352e-06
-2.18922e-05
2.23494e-05
6.16796e-05
4.18634e-07
-2.21852e-05
2.25266e-05
6.04074e-05
2.28028e-06
-2.2998e-05
2.33064e-05
5.84348e-05
4.08004e-06
-2.48767e-05
2.52448e-05
5.54558e-05
5.83663e-06
-2.83616e-05
2.8951e-05
5.08885e-05
7.58352e-06
-3.4126e-05
3.53144e-05
4.29534e-05
9.35764e-06
-4.2999e-05
4.62588e-05
2.7237e-05
9.81171e-06
-5.30596e-05
6.31364e-05
3.03253e-06
-4.42382e-05
7.33499e-05
7.89484e-05
1.01391e-07
-5.36255e-07
5.2384e-07
7.83107e-05
-3.3211e-07
-3.18998e-06
3.574e-06
7.67869e-05
-1.65998e-06
-7.66535e-06
8.5738e-06
7.47323e-05
-3.07372e-06
-1.2855e-05
1.40876e-05
7.26289e-05
-3.82799e-06
-1.73988e-05
1.865e-05
7.07889e-05
-3.58539e-06
-2.04746e-05
2.15252e-05
6.92606e-05
-2.42683e-06
-2.20279e-05
2.28063e-05
6.78966e-05
-6.4268e-07
-2.25583e-05
2.31015e-05
6.65144e-05
1.4092e-06
-2.27785e-05
2.31702e-05
6.48466e-05
3.61288e-06
-2.33742e-05
2.37094e-05
6.26239e-05
5.92051e-06
-2.49537e-05
2.5336e-05
5.94377e-05
8.42343e-06
-2.81019e-05
2.87013e-05
5.46059e-05
1.1227e-05
-3.35187e-05
3.47071e-05
4.60936e-05
1.46119e-05
-4.22425e-05
4.55004e-05
2.88043e-05
1.69119e-05
-5.27521e-05
6.29413e-05
7.73503e-06
-4.47497e-05
7.52764e-05
8.81167e-05
2.92345e-08
-4.54453e-07
4.19294e-07
8.74873e-05
-2.00175e-08
-2.61601e-06
2.9333e-06
8.56895e-05
-7.4399e-07
-6.66911e-06
7.55092e-06
8.29368e-05
-1.60851e-06
-1.18141e-05
1.31016e-05
7.97852e-05
-2.04024e-06
-1.66638e-05
1.80276e-05
7.67688e-05
-1.74018e-06
-2.01616e-05
2.13328e-05
7.41461e-05
-6.7367e-07
-2.203e-05
2.28995e-05
7.19511e-05
9.57504e-07
-2.26668e-05
2.32616e-05
6.99862e-05
2.96285e-06
-2.27987e-05
2.321e-05
6.80091e-05
5.25801e-06
-2.31613e-05
2.34933e-05
6.56962e-05
7.87029e-06
-2.4401e-05
2.47641e-05
6.2568e-05
1.09881e-05
-2.71219e-05
2.76855e-05
5.7865e-05
1.48058e-05
-3.20024e-05
3.31267e-05
4.93281e-05
2.00457e-05
-4.02355e-05
4.33386e-05
3.08579e-05
2.54429e-05
-5.0835e-05
6.07741e-05
1.55871e-05
-4.37355e-05
7.5112e-05
9.42093e-05
-2.53068e-08
-4.16723e-07
3.67208e-07
9.36203e-05
2.99984e-07
-2.29052e-06
2.55955e-06
9.17333e-05
2.92599e-07
-6.03512e-06
6.8855e-06
8.86445e-05
1.71467e-07
-1.10677e-05
1.23765e-05
8.48816e-05
2.95367e-07
-1.60342e-05
1.74615e-05
8.11274e-05
7.66115e-07
-1.9751e-05
2.09989e-05
7.78056e-05
1.72028e-06
-2.17895e-05
2.27173e-05
7.50419e-05
3.09667e-06
-2.24586e-05
2.30832e-05
7.27419e-05
4.84762e-06
-2.24636e-05
2.28788e-05
7.06832e-05
7.0016e-06
-2.25627e-05
2.28778e-05
6.85496e-05
9.67744e-06
-2.34075e-05
2.3734e-05
6.58629e-05
1.31834e-05
-2.5583e-05
2.60744e-05
6.18313e-05
1.78414e-05
-2.96885e-05
3.06844e-05
5.41692e-05
2.49725e-05
-3.6932e-05
3.96673e-05
3.53903e-05
3.50533e-05
-4.71449e-05
5.63136e-05
2.97877e-05
-4.07105e-05
7.2254e-05
9.72221e-05
-3.83563e-07
3.32155e-07
-4.28256e-08
9.66763e-05
-2.11059e-06
2.35929e-06
5.97137e-07
9.48124e-05
-5.67961e-06
6.51106e-06
1.32506e-06
9.16174e-05
-1.06039e-05
1.19153e-05
2.05504e-06
8.7674e-05
-1.55653e-05
1.70248e-05
2.77917e-06
8.36456e-05
-1.93373e-05
2.06202e-05
3.51165e-06
8.00656e-05
-2.13986e-05
2.23535e-05
4.34535e-06
7.71483e-05
-2.201e-05
2.26464e-05
5.37759e-06
7.4862e-05
-2.18529e-05
2.22631e-05
6.72377e-06
7.30365e-05
-2.16677e-05
2.19606e-05
8.53421e-06
7.14208e-05
-2.2075e-05
2.23574e-05
1.10107e-05
6.96936e-05
-2.35872e-05
2.39796e-05
1.45183e-05
6.7196e-05
-2.66742e-05
2.74758e-05
1.95375e-05
6.21573e-05
-3.21846e-05
3.42037e-05
2.7992e-05
4.68237e-05
-4.13731e-05
4.86031e-05
4.31569e-05
-3.4075e-05
6.26103e-05
6.0396e-05
1.24766e-05
1.04286e-07
-1.40214e-06
1.24111e-05
-1.2994e-07
-3.33471e-06
1.27053e-05
-5.82028e-07
-4.7621e-06
1.33289e-05
-9.44652e-07
-5.71532e-06
1.40736e-05
-1.05808e-06
-6.27126e-06
1.47142e-05
-9.30824e-07
-6.57066e-06
1.51002e-05
-6.58775e-07
-6.77935e-06
1.51659e-05
-3.41918e-07
-7.05783e-06
1.48907e-05
-3.8666e-08
-7.54694e-06
1.43199e-05
1.59607e-07
-8.37353e-06
1.34615e-05
2.59363e-07
-9.65722e-06
1.2308e-05
2.01009e-07
-1.15226e-05
1.07501e-05
-7.13103e-08
-1.40803e-05
8.41957e-06
-6.17012e-07
-1.72036e-05
4.38629e-06
-1.28078e-06
-1.94751e-05
-1.95221e-06
-1.45594e-05
3.52575e-05
1.91228e-07
-1.60091e-06
3.51892e-05
-5.61246e-07
-5.45514e-06
3.56121e-05
-1.80671e-06
-9.06731e-06
3.65299e-05
-2.81379e-06
-1.18012e-05
3.76692e-05
-3.16674e-06
-1.34993e-05
3.86641e-05
-2.84164e-06
-1.43526e-05
3.9221e-05
-2.0653e-06
-1.47205e-05
3.91728e-05
-1.10699e-06
-1.49974e-05
3.84401e-05
-1.43626e-07
-1.55428e-05
3.70108e-05
6.26954e-07
-1.66694e-05
3.48035e-05
1.22779e-06
-1.8645e-05
3.16407e-05
1.57659e-06
-2.17312e-05
2.71039e-05
1.59267e-06
-2.61517e-05
2.02456e-05
1.14866e-06
-3.16537e-05
9.63666e-06
4.10669e-08
-3.52236e-05
-2.30212e-06
-2.45539e-05
5.49395e-05
1.91227e-07
-1.06492e-06
5.45603e-05
-7.49897e-07
-4.80761e-06
5.42429e-05
-2.52754e-06
-9.26109e-06
5.42249e-05
-4.12514e-06
-1.32708e-05
5.44816e-05
-4.83955e-06
-1.61538e-05
5.47733e-05
-4.49843e-06
-1.78098e-05
5.47997e-05
-3.35549e-06
-1.85496e-05
5.43146e-05
-1.80378e-06
-1.8869e-05
5.31475e-05
-1.46881e-07
-1.92765e-05
5.11642e-05
1.34667e-06
-2.02358e-05
4.81715e-05
2.68751e-06
-2.21192e-05
4.38277e-05
3.81848e-06
-2.5279e-05
3.74636e-05
4.70048e-06
-3.00369e-05
2.77254e-05
5.14826e-06
-3.62339e-05
1.27617e-05
4.23292e-06
-4.04218e-05
-4.1501e-07
-2.79123e-05
7.13535e-05
1.38905e-07
-6.88767e-07
7.07398e-05
-6.33223e-07
-3.64096e-06
6.95785e-05
-2.42854e-06
-7.96724e-06
6.82173e-05
-4.24396e-06
-1.25491e-05
6.69419e-05
-5.21672e-06
-1.63217e-05
6.58146e-05
-4.99694e-06
-1.87788e-05
6.46969e-05
-3.74284e-06
-2.00155e-05
6.33617e-05
-1.85407e-06
-2.05067e-05
6.15996e-05
2.81296e-07
-2.08512e-05
5.91346e-05
2.41471e-06
-2.16011e-05
5.56735e-05
4.50538e-06
-2.32335e-05
5.07282e-05
6.56341e-06
-2.61612e-05
4.34515e-05
8.62946e-06
-3.07783e-05
3.21338e-05
1.05662e-05
-3.70993e-05
1.43483e-05
1.06731e-05
-4.17143e-05
3.44157e-06
-2.89845e-05
8.44635e-05
5.61184e-08
-5.2392e-07
8.37947e-05
-3.62771e-07
-2.79162e-06
8.21168e-05
-1.74863e-06
-6.66742e-06
7.96789e-05
-3.31516e-06
-1.13459e-05
7.69411e-05
-4.24222e-06
-1.56355e-05
7.42697e-05
-4.09516e-06
-1.87049e-05
7.17864e-05
-2.89797e-06
-2.03895e-05
6.93889e-05
-9.44259e-07
-2.10706e-05
6.68908e-05
1.37976e-06
-2.13789e-05
6.39591e-05
3.91344e-06
-2.19412e-05
6.02035e-05
6.60782e-06
-2.33005e-05
5.50141e-05
9.56399e-06
-2.59131e-05
4.7403e-05
1.2937e-05
-3.02152e-05
3.52938e-05
1.68335e-05
-3.64006e-05
1.55024e-05
1.8992e-05
-4.12796e-05
9.61774e-06
-2.88587e-05
9.426e-05
-1.77306e-08
-4.62913e-07
9.36214e-05
-4.29738e-08
-2.29712e-06
9.17365e-05
-7.84623e-07
-5.74826e-06
8.86673e-05
-1.73821e-06
-1.03218e-05
8.48956e-05
-2.2827e-06
-1.48517e-05
8.09933e-05
-2.04398e-06
-1.83104e-05
7.73179e-05
-9.36971e-07
-2.03156e-05
7.39807e-05
8.57024e-07
-2.11309e-05
7.08175e-05
3.12715e-06
-2.13829e-05
6.75365e-05
5.77765e-06
-2.17445e-05
6.36962e-05
8.84568e-06
-2.27986e-05
5.86043e-05
1.25569e-05
-2.5023e-05
5.11836e-05
1.72123e-05
-2.88571e-05
3.897e-05
2.3478e-05
-3.46663e-05
1.7532e-05
2.92475e-05
-3.96525e-05
1.96053e-05
-2.77134e-05
0.000100769
-7.24794e-08
-4.2978e-07
0.000100175
2.82406e-07
-2.02204e-06
9.82438e-05
2.85429e-07
-5.1742e-06
9.49001e-05
1.39939e-07
-9.60217e-06
9.05577e-05
2.30859e-07
-1.42054e-05
8.59082e-05
7.12617e-07
-1.7858e-05
8.14889e-05
1.72967e-06
-2.00368e-05
7.75322e-05
3.26129e-06
-2.09063e-05
7.3999e-05
5.25832e-06
-2.10615e-05
7.06468e-05
7.76179e-06
-2.11946e-05
6.70588e-05
1.09252e-05
-2.18991e-05
6.25455e-05
1.51332e-05
-2.36459e-05
5.60431e-05
2.08527e-05
-2.68265e-05
4.48524e-05
2.96679e-05
-3.19313e-05
2.26723e-05
4.11406e-05
-3.68578e-05
3.74102e-05
-2.54096e-05
0.000103984
-4.02706e-07
-7.48763e-08
0.000103436
-1.86784e-06
5.87267e-07
0.000101556
-4.85288e-06
1.3392e-06
9.81428e-05
-9.16213e-06
2.11119e-06
9.36511e-05
-1.37388e-05
2.89607e-06
8.87534e-05
-1.74366e-05
3.7096e-06
8.40785e-05
-1.96414e-05
4.64739e-06
7.99714e-05
-2.04687e-05
5.82706e-06
7.64773e-05
-2.04866e-05
7.38613e-06
7.34311e-05
-2.03704e-05
9.51077e-06
7.05156e-05
-2.0692e-05
1.24576e-05
6.72303e-05
-2.18776e-05
1.67088e-05
6.2742e-05
-2.42243e-05
2.28911e-05
5.47177e-05
-2.81511e-05
3.36587e-05
3.5989e-05
-3.29787e-05
5.14748e-05
-2.12717e-05
7.29803e-05
1.31482e-05
7.82459e-08
-1.28052e-06
1.30077e-05
-1.8925e-07
-3.00495e-06
1.32061e-05
-6.77485e-07
-4.28295e-06
1.37231e-05
-1.07689e-06
-5.15544e-06
1.43466e-05
-1.21174e-06
-5.68307e-06
1.4838e-05
-1.08198e-06
-5.98011e-06
1.50326e-05
-7.87589e-07
-6.18631e-06
1.48541e-05
-4.3957e-07
-6.43973e-06
1.42728e-05
-1.05161e-07
-6.86047e-06
1.33225e-05
1.22232e-07
-7.54545e-06
1.19986e-05
2.45873e-07
-8.57929e-06
1.02795e-05
2.18213e-07
-1.00216e-05
8.08118e-06
-4.50117e-09
-1.18775e-05
5.22639e-06
-4.55816e-07
-1.3893e-05
1.69561e-06
-1.18424e-06
-1.47601e-05
-2.10887e-06
-1.00923e-05
3.72008e-05
1.61155e-07
-1.4238e-06
3.70022e-05
-6.49923e-07
-4.79589e-06
3.72344e-05
-1.99384e-06
-7.98316e-06
3.7917e-05
-3.11413e-06
-1.04465e-05
3.87793e-05
-3.54591e-06
-1.20274e-05
3.94416e-05
-3.23262e-06
-1.28643e-05
3.95896e-05
-2.40356e-06
-1.32525e-05
3.90349e-05
-1.35275e-06
-1.35295e-05
3.76787e-05
-2.85966e-07
-1.40058e-05
3.54905e-05
5.84961e-07
-1.49439e-05
3.23632e-05
1.27367e-06
-1.65455e-05
2.81074e-05
1.70749e-06
-1.89646e-05
2.23727e-05
1.81811e-06
-2.22397e-05
1.46594e-05
1.46785e-06
-2.58641e-05
5.07201e-06
2.22555e-07
-2.7043e-05
-2.46568e-06
-1.72109e-05
5.8002e-05
1.61852e-07
-9.38774e-07
5.75119e-05
-8.20431e-07
-4.14702e-06
5.698e-05
-2.71285e-06
-8.01021e-06
5.66469e-05
-4.47991e-06
-1.15719e-05
5.65025e-05
-5.34045e-06
-1.42149e-05
5.63161e-05
-5.05388e-06
-1.58022e-05
5.57832e-05
-3.85635e-06
-1.65639e-05
5.46432e-05
-2.16828e-06
-1.69135e-05
5.26919e-05
-3.19751e-07
-1.72914e-05
4.97827e-05
1.34687e-06
-1.80886e-05
4.56759e-05
2.86946e-06
-1.96081e-05
4.00081e-05
4.17767e-06
-2.20814e-05
3.21699e-05
5.23653e-06
-2.56171e-05
2.13076e-05
5.8142e-06
-2.9718e-05
7.42573e-06
4.74615e-06
-3.10635e-05
-2.6734e-07
-1.94164e-05
7.53451e-05
9.95339e-08
-6.19344e-07
7.4666e-05
-6.78218e-07
-3.10412e-06
7.33293e-05
-2.55729e-06
-6.7861e-06
7.16386e-05
-4.54273e-06
-1.07956e-05
6.98805e-05
-5.69355e-06
-1.42104e-05
6.81466e-05
-5.56842e-06
-1.65305e-05
6.63272e-05
-4.28052e-06
-1.77719e-05
6.42028e-05
-2.24136e-06
-1.83093e-05
6.15561e-05
1.25391e-07
-1.86497e-05
5.80692e-05
2.51309e-06
-1.92805e-05
5.34074e-05
4.88159e-06
-2.05838e-05
4.70411e-05
7.23508e-06
-2.28523e-05
3.81421e-05
9.6195e-06
-2.62622e-05
2.54747e-05
1.18133e-05
-3.0431e-05
8.63726e-06
1.18222e-05
-3.19529e-05
4.18682e-06
-1.99168e-05
8.9183e-05
1.0355e-08
-4.86848e-07
8.84826e-05
-3.93344e-07
-2.37607e-06
8.66934e-05
-1.81889e-06
-5.61661e-06
8.39696e-05
-3.51301e-06
-9.65181e-06
8.07302e-05
-4.59847e-06
-1.34912e-05
7.73679e-05
-4.55154e-06
-1.63595e-05
7.40619e-05
-3.33625e-06
-1.80277e-05
7.07541e-05
-1.23725e-06
-1.8767e-05
6.72733e-05
1.33001e-06
-1.91027e-05
6.32539e-05
4.16871e-06
-1.95774e-05
5.82578e-05
7.22169e-06
-2.06445e-05
5.16212e-05
1.05958e-05
-2.26373e-05
4.23337e-05
1.44715e-05
-2.57797e-05
2.8724e-05
1.88538e-05
-2.98315e-05
9.68578e-06
2.10767e-05
-3.14959e-05
1.12708e-05
-1.95817e-05
9.95188e-05
-6.8313e-08
-4.38123e-07
9.8858e-05
-6.44102e-08
-1.96531e-06
9.69146e-05
-8.12403e-07
-4.81129e-06
9.36238e-05
-1.83624e-06
-8.70782e-06
8.93796e-05
-2.48212e-06
-1.27238e-05
8.4756e-05
-2.30716e-06
-1.59312e-05
8.0183e-05
-1.17645e-06
-1.79024e-05
7.5845e-05
7.56329e-07
-1.87865e-05
7.16241e-05
3.26351e-06
-1.90954e-05
6.72163e-05
6.23875e-06
-1.94068e-05
6.21341e-05
9.71992e-06
-2.02145e-05
5.56276e-05
1.39563e-05
-2.18769e-05
4.65702e-05
1.93109e-05
-2.4639e-05
3.27901e-05
2.63873e-05
-2.84198e-05
1.18495e-05
3.25596e-05
-3.01948e-05
2.25713e-05
-1.85934e-05
0.000106382
-1.13664e-07
-4.11705e-07
0.000105766
2.69431e-07
-1.74073e-06
0.000103808
2.87501e-07
-4.31624e-06
0.000100298
1.27249e-07
-8.05501e-06
9.55306e-05
1.8679e-07
-1.21071e-05
9.01652e-05
6.77049e-07
-1.54768e-05
8.4821e-05
1.74278e-06
-1.76119e-05
7.98242e-05
3.4102e-06
-1.85633e-05
7.52013e-05
5.629e-06
-1.88041e-05
7.07248e-05
8.44922e-06
-1.89286e-05
6.5944e-05
1.20469e-05
-1.94452e-05
6.01154e-05
1.68539e-05
-2.07149e-05
5.21393e-05
2.3428e-05
-2.29675e-05
3.94408e-05
3.34347e-05
-2.62802e-05
1.746e-05
4.5853e-05
-2.81705e-05
4.21053e-05
-1.69718e-05
0.000109772
-3.88895e-07
-1.00731e-07
0.000109202
-1.6131e-06
5.85077e-07
0.000107315
-4.03932e-06
1.36099e-06
0.000103769
-7.6606e-06
2.1711e-06
9.88828e-05
-1.16747e-05
3.00926e-06
9.33031e-05
-1.50759e-05
3.89599e-06
8.7713e-05
-1.72363e-05
4.92777e-06
8.2572e-05
-1.81596e-05
6.24212e-06
7.80098e-05
-1.82912e-05
7.99581e-06
7.38947e-05
-1.82104e-05
1.04042e-05
6.98974e-05
-1.84133e-05
1.37656e-05
6.54741e-05
-1.92364e-05
1.8636e-05
5.98079e-05
-2.08591e-05
2.57291e-05
5.05195e-05
-2.34137e-05
3.79857e-05
3.17194e-05
-2.56081e-05
5.72826e-05
-1.41879e-05
7.91939e-05
1.37043e-05
5.68819e-08
-1.10229e-06
1.34987e-05
-2.42677e-07
-2.55672e-06
1.36159e-05
-7.63134e-07
-3.63696e-06
1.40443e-05
-1.19696e-06
-4.3869e-06
1.4568e-05
-1.35402e-06
-4.85274e-06
1.49362e-05
-1.22547e-06
-5.12287e-06
1.49723e-05
-9.13709e-07
-5.30866e-06
1.45929e-05
-5.38793e-07
-5.52163e-06
1.37698e-05
-1.80523e-07
-5.85676e-06
1.25314e-05
8.0106e-08
-6.38717e-06
1.08848e-05
2.3158e-07
-7.16429e-06
8.82523e-06
2.4493e-07
-8.20698e-06
6.32956e-06
8.98792e-08
-9.47171e-06
3.39554e-06
-2.60767e-07
-1.06983e-05
4.62681e-07
-9.63437e-07
-1.08638e-05
-1.92737e-06
-7.01707e-06
3.88182e-05
1.33948e-07
-1.1989e-06
3.85091e-05
-7.27375e-07
-4.002e-06
3.85837e-05
-2.15556e-06
-6.6654e-06
3.90741e-05
-3.37734e-06
-8.75654e-06
3.97097e-05
-3.88513e-06
-1.01318e-05
4.00974e-05
-3.59059e-06
-1.08869e-05
3.9905e-05
-2.72149e-06
-1.12523e-05
3.89296e-05
-1.5921e-06
-1.15008e-05
3.70638e-05
-4.35295e-07
-1.18852e-05
3.42788e-05
5.32082e-07
-1.2611e-05
3.04769e-05
1.31004e-06
-1.3822e-05
2.55112e-05
1.84234e-06
-1.55963e-05
1.91636e-05
2.07695e-06
-1.78791e-05
1.13128e-05
1.86556e-06
-2.01397e-05
2.83974e-06
6.28136e-07
-2.01615e-05
-2.19513e-06
-1.21321e-05
6.0552e-05
1.34202e-07
-7.8724e-07
5.99697e-05
-8.8155e-07
-3.41057e-06
5.92654e-05
-2.86742e-06
-6.59403e-06
5.86795e-05
-4.78109e-06
-9.58231e-06
5.82098e-05
-5.7763e-06
-1.1854e-05
5.76297e-05
-5.54932e-06
-1.32634e-05
5.66306e-05
-4.31452e-06
-1.39717e-05
5.49417e-05
-2.51145e-06
-1.43053e-05
5.23467e-05
-5.08062e-07
-1.46236e-05
4.86968e-05
1.33024e-06
-1.52369e-05
4.37545e-05
3.02316e-06
-1.63789e-05
3.71978e-05
4.50797e-06
-1.81903e-05
2.85641e-05
5.75668e-06
-2.06631e-05
1.74453e-05
6.50307e-06
-2.32368e-05
4.80232e-06
5.4307e-06
-2.3223e-05
1.96948e-07
-1.36621e-05
7.86685e-05
6.29977e-08
-5.26582e-07
7.79331e-05
-7.18104e-07
-2.53218e-06
7.64598e-05
-2.66056e-06
-5.51969e-06
7.45129e-05
-4.78781e-06
-8.84196e-06
7.23703e-05
-6.09745e-06
-1.17467e-05
7.01412e-05
-6.06685e-06
-1.37838e-05
6.77383e-05
-4.76285e-06
-1.49207e-05
6.49554e-05
-2.60122e-06
-1.54366e-05
6.1569e-05
-3.4341e-08
-1.5737e-05
5.72628e-05
2.58136e-06
-1.62253e-05
5.16936e-05
5.2011e-06
-1.71926e-05
4.43613e-05
7.82379e-06
-1.88358e-05
3.45632e-05
1.04965e-05
-2.1204e-05
2.151e-05
1.29355e-05
-2.38102e-05
5.87438e-06
1.29582e-05
-2.38448e-05
5.00454e-06
-1.38821e-05
9.31121e-05
-3.23019e-08
-4.24605e-07
9.23786e-05
-4.21163e-07
-1.93943e-06
9.0505e-05
-1.87219e-06
-4.53137e-06
8.75682e-05
-3.66833e-06
-7.83456e-06
8.39406e-05
-4.89132e-06
-1.10697e-05
8.00227e-05
-4.94075e-06
-1.35677e-05
7.60363e-05
-3.72246e-06
-1.50817e-05
7.19666e-05
-1.50863e-06
-1.57899e-05
6.76669e-05
1.26951e-06
-1.61068e-05
6.27682e-05
4.37543e-06
-1.64728e-05
5.683e-05
7.74267e-06
-1.72479e-05
4.92051e-05
1.14774e-05
-1.8666e-05
3.89767e-05
1.57662e-05
-2.08209e-05
2.48848e-05
2.05308e-05
-2.33348e-05
6.94359e-06
2.28508e-05
-2.34473e-05
1.26678e-05
-1.35436e-05
0.000103896
-1.11335e-07
-3.8453e-07
0.000103206
-8.36955e-08
-1.61285e-06
0.000101218
-8.30125e-07
-3.86513e-06
9.77709e-05
-1.90664e-06
-7.0222e-06
9.31727e-05
-2.63801e-06
-1.0379e-05
8.79801e-05
-2.52461e-06
-1.31547e-05
8.26727e-05
-1.38322e-06
-1.49344e-05
7.74979e-05
6.62275e-07
-1.57826e-05
7.23942e-05
3.37112e-06
-1.60933e-05
6.707e-05
6.62695e-06
-1.63341e-05
6.10391e-05
1.04609e-05
-1.69019e-05
5.35634e-05
1.51325e-05
-1.80564e-05
4.35802e-05
2.10297e-05
-1.99193e-05
2.92596e-05
2.86799e-05
-2.22482e-05
9.25253e-06
3.51264e-05
-2.24632e-05
2.47547e-05
-1.27792e-05
0.000111055
-1.482e-07
-3.64545e-07
0.000110408
2.59635e-07
-1.43699e-06
0.000108427
2.95053e-07
-3.46088e-06
0.000104806
1.27393e-07
-6.46758e-06
9.97307e-05
1.64375e-07
-9.83412e-06
9.38106e-05
6.56155e-07
-1.27375e-05
8.77169e-05
1.75862e-06
-1.46601e-05
8.18547e-05
3.53916e-06
-1.55779e-05
7.63198e-05
5.94698e-06
-1.58451e-05
7.09229e-05
9.0376e-06
-1.59423e-05
6.52223e-05
1.2998e-05
-1.62817e-05
5.84873e-05
1.82845e-05
-1.7132e-05
4.96711e-05
2.5497e-05
-1.86186e-05
3.6428e-05
3.6292e-05
-2.06492e-05
1.51622e-05
4.92564e-05
-2.10347e-05
4.519e-05
-1.16604e-05
0.000114593
-3.45805e-07
-1.2156e-07
0.000113988
-1.33564e-06
5.87474e-07
0.000112092
-3.23467e-06
1.38602e-06
0.000108464
-6.13533e-06
2.22992e-06
0.000103299
-9.45988e-06
3.11438e-06
9.71992e-05
-1.23831e-05
4.0636e-06
9.08729e-05
-1.43278e-05
5.17636e-06
8.4874e-05
-1.52288e-05
6.60721e-06
7.94157e-05
-1.54144e-05
8.52843e-06
7.44182e-05
-1.53525e-05
1.11773e-05
6.95736e-05
-1.54498e-05
1.48789e-05
6.43539e-05
-1.59637e-05
2.02315e-05
5.80035e-05
-1.69983e-05
2.79865e-05
4.82431e-05
-1.85524e-05
4.11911e-05
2.99184e-05
-1.93389e-05
6.1312e-05
-9.72882e-06
8.31724e-05
1.41476e-05
3.59621e-08
-8.73422e-07
1.38871e-05
-2.87314e-07
-2.00896e-06
1.39379e-05
-8.34871e-07
-2.85284e-06
1.42954e-05
-1.29854e-06
-3.44587e-06
1.47404e-05
-1.47633e-06
-3.82145e-06
1.50122e-05
-1.35115e-06
-4.04352e-06
1.49248e-05
-1.02659e-06
-4.19468e-06
1.43915e-05
-6.29866e-07
-4.35843e-06
1.33871e-05
-2.47144e-07
-4.6052e-06
1.19447e-05
3.96613e-08
-4.98446e-06
1.00888e-05
2.18645e-07
-5.52699e-06
7.83941e-06
2.73079e-07
-6.2307e-06
5.22574e-06
1.83636e-07
-7.04168e-06
2.35444e-06
-7.90499e-08
-7.74791e-06
-1.61667e-07
-7.25691e-07
-7.62196e-06
-1.72125e-06
-4.75969e-06
4.01103e-05
1.0951e-07
-9.35054e-07
3.97111e-05
-7.91149e-07
-3.09895e-06
3.96597e-05
-2.28746e-06
-5.16139e-06
3.99984e-05
-3.59453e-06
-6.79923e-06
4.04558e-05
-4.16984e-06
-7.8958e-06
4.06276e-05
-3.8966e-06
-8.51321e-06
4.01669e-05
-2.99869e-06
-8.81949e-06
3.88614e-05
-1.80586e-06
-9.01937e-06
3.6604e-05
-5.72202e-07
-9.30273e-06
3.33768e-05
4.786e-07
-9.82263e-06
2.91073e-05
1.33849e-06
-1.06724e-05
2.37048e-05
1.9654e-06
-1.18861e-05
1.70707e-05
2.32066e-06
-1.33821e-05
9.32598e-06
2.24464e-06
-1.47186e-05
1.67219e-06
1.0694e-06
-1.43028e-05
-1.85849e-06
-8.3187e-06
6.25911e-05
1.07195e-07
-6.12383e-07
6.19339e-05
-9.31355e-07
-2.6131e-06
6.10941e-05
-2.9899e-06
-5.05182e-06
6.03116e-05
-5.02339e-06
-7.37096e-06
5.95879e-05
-6.13435e-06
-9.16574e-06
5.86981e-05
-5.96468e-06
-1.03055e-05
5.73297e-05
-4.70631e-06
-1.08958e-05
5.52058e-05
-2.81104e-06
-1.11762e-05
5.21126e-05
-6.86235e-07
-1.14164e-05
4.79028e-05
1.30607e-06
-1.18545e-05
4.23663e-05
3.14702e-06
-1.2651e-05
3.52401e-05
4.78931e-06
-1.3888e-05
2.62013e-05
6.21031e-06
-1.55139e-05
1.51386e-05
7.1179e-06
-1.70474e-05
3.41163e-06
6.10144e-06
-1.65281e-05
6.46308e-07
-9.36521e-06
8.1325e-05
3.01636e-08
-4.14189e-07
8.05427e-05
-7.51444e-07
-1.92985e-06
7.89643e-05
-2.73974e-06
-4.19142e-06
7.68227e-05
-4.97931e-06
-6.74448e-06
7.43845e-05
-6.42196e-06
-9.02083e-06
7.17682e-05
-6.47727e-06
-1.06549e-05
6.89038e-05
-5.16908e-06
-1.15934e-05
6.56e-05
-2.91247e-06
-1.20314e-05
6.163e-05
-1.8098e-07
-1.22723e-05
5.67021e-05
2.62578e-06
-1.26172e-05
5.04806e-05
5.45797e-06
-1.3282e-05
4.25191e-05
8.30706e-06
-1.4392e-05
3.22454e-05
1.12185e-05
-1.59385e-05
1.91756e-05
1.38633e-05
-1.74858e-05
4.45388e-06
1.39419e-05
-1.69636e-05
5.72093e-06
-9.48036e-06
9.62541e-05
-7.21486e-08
-3.38717e-07
9.54882e-05
-4.4468e-07
-1.4803e-06
9.35495e-05
-1.91101e-06
-3.42143e-06
9.04561e-05
-3.7849e-06
-5.93558e-06
8.65369e-05
-5.12047e-06
-8.45195e-06
8.21903e-05
-5.25517e-06
-1.04432e-05
7.76681e-05
-4.04309e-06
-1.16855e-05
7.29933e-05
-1.74088e-06
-1.22866e-05
6.80487e-05
1.2081e-06
-1.25514e-05
6.24764e-05
4.53434e-06
-1.28091e-05
5.5856e-05
8.16014e-06
-1.33296e-05
4.75819e-05
1.21853e-05
-1.42702e-05
3.68457e-05
1.67928e-05
-1.5659e-05
2.26719e-05
2.18421e-05
-1.71399e-05
5.56828e-06
2.4259e-05
-1.66608e-05
1.37628e-05
-9.20081e-06
0.000107395
-1.47149e-07
-3.09165e-07
0.000106675
-1.00199e-07
-1.23718e-06
0.00010465
-8.40701e-07
-2.91076e-06
0.000101092
-1.95474e-06
-5.29436e-06
9.62358e-05
-2.75432e-06
-7.88855e-06
9.06113e-05
-2.69514e-06
-1.00902e-05
8.47306e-05
-1.55168e-06
-1.15451e-05
7.88924e-05
5.81028e-07
-1.22662e-05
7.30911e-05
3.45189e-06
-1.25357e-05
6.70602e-05
6.93597e-06
-1.27049e-05
6.03369e-05
1.10534e-05
-1.30718e-05
5.22191e-05
1.60641e-05
-1.38172e-05
4.17291e-05
2.23598e-05
-1.49963e-05
2.72768e-05
3.04032e-05
-1.6357e-05
7.9923e-06
3.70412e-05
-1.5961e-05
2.63372e-05
-8.65273e-06
0.000114793
-1.76137e-07
-2.93847e-07
0.000114111
2.5227e-07
-1.10757e-06
0.000112108
3.04799e-07
-2.60401e-06
0.000108412
1.34964e-07
-4.8608e-06
0.000103118
1.55479e-07
-7.45001e-06
9.67832e-05
6.46883e-07
-9.74473e-06
9.01095e-05
1.77532e-06
-1.13133e-05
8.35637e-05
3.64526e-06
-1.20964e-05
7.73062e-05
6.20507e-06
-1.23409e-05
7.11944e-05
9.51296e-06
-1.24075e-05
6.48152e-05
1.37587e-05
-1.26077e-05
5.74723e-05
1.94082e-05
-1.31332e-05
4.81898e-05
2.70736e-05
-1.40499e-05
3.47892e-05
3.83821e-05
-1.52275e-05
1.41006e-05
5.16853e-05
-1.49901e-05
4.73264e-05
-7.90439e-06
0.000118449
-2.79222e-07
-1.37932e-07
0.000117805
-1.032e-06
5.91982e-07
0.000115897
-2.43227e-06
1.41057e-06
0.000112217
-4.6027e-06
2.28306e-06
0.000106859
-7.1531e-06
3.20588e-06
0.000100376
-9.45903e-06
4.20614e-06
9.34835e-05
-1.10448e-05
5.3849e-06
8.68081e-05
-1.18189e-05
6.91081e-06
8.06378e-05
-1.20067e-05
8.96768e-06
7.49492e-05
-1.19589e-05
1.18079e-05
6.94702e-05
-1.19847e-05
1.57726e-05
6.37055e-05
-1.22728e-05
2.14819e-05
5.69664e-05
-1.28814e-05
2.96959e-05
4.70572e-05
-1.37678e-05
4.35068e-05
2.91738e-05
-1.38851e-05
6.4115e-05
-6.5872e-06
8.59422e-05
1.44785e-05
2.0234e-08
-6.0494e-07
1.41753e-05
-3.22224e-07
-1.38359e-06
1.41754e-05
-8.91087e-07
-1.96184e-06
1.44798e-05
-1.37872e-06
-2.37155e-06
1.48669e-05
-1.57404e-06
-2.63454e-06
1.50685e-05
-1.45302e-06
-2.79205e-06
1.48917e-05
-1.11958e-06
-2.89835e-06
1.42481e-05
-7.06082e-07
-3.0087e-06
1.31181e-05
-3.06022e-07
-3.16925e-06
1.15397e-05
4.6766e-09
-3.41076e-06
9.55605e-06
2.06648e-07
-3.74994e-06
7.20794e-06
2.95689e-07
-4.17828e-06
4.55933e-06
2.59104e-07
-4.65217e-06
1.77777e-06
6.0616e-08
-5.02697e-06
-4.6673e-07
-5.31985e-07
-4.84547e-06
-1.55654e-06
-2.96508e-06
4.10774e-05
9.121e-08
-6.40037e-07
4.06095e-05
-8.40049e-07
-2.11323e-06
4.04633e-05
-2.3878e-06
-3.51848e-06
4.06894e-05
-3.76121e-06
-4.64284e-06
4.10158e-05
-4.39133e-06
-5.40497e-06
4.1029e-05
-4.13815e-06
-5.84119e-06
4.03714e-05
-3.22081e-06
-6.06073e-06
3.88256e-05
-1.98001e-06
-6.19961e-06
3.62862e-05
-6.84363e-07
-6.38503e-06
3.27525e-05
4.3113e-07
-6.71531e-06
2.8177e-05
1.35792e-06
-7.24826e-06
2.25185e-05
2.0634e-06
-7.99532e-06
1.57643e-05
2.51754e-06
-8.88632e-06
8.17186e-06
2.55047e-06
-9.61603e-06
1.06409e-06
1.44004e-06
-9.16707e-06
-1.56458e-06
-5.22386e-06
6.4119e-05
8.6347e-08
-4.17919e-07
6.34042e-05
-9.69025e-07
-1.76932e-06
6.24638e-05
-3.08056e-06
-3.41859e-06
6.15368e-05
-5.20498e-06
-5.00027e-06
6.06268e-05
-6.40739e-06
-6.23965e-06
5.95091e-05
-6.28671e-06
-7.03917e-06
5.78685e-05
-5.01491e-06
-7.46106e-06
5.54258e-05
-3.05155e-06
-7.66193e-06
5.19678e-05
-8.21732e-07
-7.82113e-06
4.73638e-05
1.27979e-06
-8.09903e-06
4.14279e-05
3.23871e-06
-8.59596e-06
3.39527e-05
5.00681e-06
-9.35619e-06
2.47183e-05
6.56516e-06
-1.03271e-05
1.3788e-05
7.60323e-06
-1.11699e-05
2.67157e-06
6.64967e-06
-1.06213e-05
1.0471e-06
-5.88775e-06
8.33154e-05
4.62806e-09
-2.8477e-07
8.24959e-05
-7.76993e-07
-1.30245e-06
8.08398e-05
-2.79659e-06
-2.81928e-06
7.85577e-05
-5.11914e-06
-4.54817e-06
7.59052e-05
-6.66468e-06
-6.11103e-06
7.30052e-05
-6.79058e-06
-7.25109e-06
6.97999e-05
-5.48483e-06
-7.91821e-06
6.61104e-05
-3.15913e-06
-8.23433e-06
6.17152e-05
-2.99245e-07
-8.39949e-06
5.63435e-05
2.65202e-06
-8.61779e-06
4.96784e-05
5.64913e-06
-9.02725e-06
4.13236e-05
8.6724e-06
-9.70282e-06
3.08065e-05
1.17646e-05
-1.06208e-05
1.78261e-05
1.45662e-05
-1.14684e-05
3.7109e-06
1.4705e-05
-1.09037e-05
6.28302e-06
-5.9482e-06
9.86086e-05
-1.0143e-07
-2.34665e-07
9.78147e-05
-4.63084e-07
-1.00036e-06
9.58271e-05
-1.93761e-06
-2.29281e-06
9.2623e-05
-3.86694e-06
-3.9836e-06
8.84961e-05
-5.28794e-06
-5.70188e-06
8.38388e-05
-5.49134e-06
-7.08506e-06
7.89225e-05
-4.28931e-06
-7.9648e-06
7.37991e-05
-1.92301e-06
-8.3994e-06
6.83824e-05
1.15462e-06
-8.5885e-06
6.23262e-05
4.64845e-06
-8.74933e-06
5.52378e-05
8.47061e-06
-9.06273e-06
4.65533e-05
1.27124e-05
-9.62573e-06
3.55494e-05
1.75498e-05
-1.04403e-05
2.14204e-05
2.28005e-05
-1.12451e-05
4.86896e-06
2.52989e-05
-1.07032e-05
1.45636e-05
-5.75629e-06
0.000110018
-1.74235e-07
-2.15191e-07
0.00010927
-1.13126e-07
-8.3916e-07
0.000107216
-8.4643e-07
-1.9476e-06
0.000103581
-1.98544e-06
-3.54124e-06
9.85446e-05
-2.83563e-06
-5.30434e-06
9.26112e-05
-2.81985e-06
-6.82833e-06
8.63115e-05
-1.67883e-06
-7.85589e-06
7.99832e-05
5.17036e-07
-8.37796e-06
7.36681e-05
3.50889e-06
-8.57495e-06
6.71268e-05
7.16489e-06
-8.68e-06
5.99244e-05
1.14937e-05
-8.89247e-06
5.13964e-05
1.67505e-05
-9.32734e-06
4.06337e-05
2.33231e-05
-1.0007e-05
2.61883e-05
3.16285e-05
-1.07396e-05
7.37831e-06
3.84017e-05
-1.02539e-05
2.74436e-05
-5.403e-06
0.000117595
-1.97222e-07
-2.04768e-07
0.000116881
2.47015e-07
-7.53821e-07
0.000114858
3.14252e-07
-1.74179e-06
0.000111111
1.45366e-07
-3.24425e-06
0.000105668
1.54623e-07
-4.99777e-06
9.90407e-05
6.45338e-07
-6.5824e-06
9.19464e-05
1.7907e-06
-7.68848e-06
8.4897e-05
3.72655e-06
-8.25653e-06
7.81059e-05
6.39987e-06
-8.44072e-06
7.14742e-05
9.86965e-06
-8.48058e-06
6.46207e-05
1.43243e-05
-8.58474e-06
5.68843e-05
2.02313e-05
-8.87767e-06
4.73465e-05
2.82025e-05
-9.39153e-06
3.39269e-05
3.98395e-05
-1.00189e-05
1.36215e-05
5.33623e-05
-9.64535e-06
4.87866e-05
-4.93593e-06
0.00012134
-1.94766e-07
-1.50088e-07
0.000120662
-7.03805e-07
5.96818e-07
0.000118739
-1.6268e-06
1.43164e-06
0.000115024
-3.06851e-06
2.32664e-06
0.000109539
-4.79233e-06
3.27906e-06
0.000102788
-6.38161e-06
4.31823e-06
9.54873e-05
-7.49997e-06
5.54699e-06
8.83142e-05
-8.06404e-06
7.14482e-06
8.16168e-05