/*--------------------------------*- C++ -*----------------------------------*\
| =========                 |                                                 |
| \\      /  F ield         | foam-extend: Open Source CFD                    |
|  \\    /   O peration     | Version:     3.1                                |
|   \\  /    A nd           | Web:         http://www.extend-project.de       |
|    \\/     M anipulation  |                                                 |
\*---------------------------------------------------------------------------*/
FoamFile
{
    version     2.0;
    format      ascii;
    class       pointVectorField;
    location    "1.6";
    object      pointMotionU;
}
// * * * * * * * * * * * * * * * * * * * * * * * * * * * * * * * * * * * * * //

dimensions      [0 1 -1 0 0 0 0];

internalField   nonuniform List<vector> 
16859
(
(0 0 0)
(0 0 0)
(0 0 0)
(0 0 0)
(0 0 0)
(0 0 0)
(0 0 0)
(0 0 0)
(0 0 0)
(0 0 0)
(0 0 0)
(0 0 0)
(0 0 0)
(0 0 0)
(0 0 0)
(0 0 0)
(0 0 0)
(0 0 0)
(2.53586e-10 -2.06969e-10 -5.7807e-11)
(4.8869e-10 -4.03564e-10 -1.14446e-10)
(7.03579e-10 -5.92225e-10 -1.72168e-10)
(9.03797e-10 -7.80663e-10 -2.34522e-10)
(1.0936e-09 -9.75227e-10 -3.04544e-10)
(1.27574e-09 -1.1813e-09 -3.84665e-10)
(1.4508e-09 -1.40379e-09 -4.76295e-10)
(1.61591e-09 -1.64702e-09 -5.78864e-10)
(1.76245e-09 -1.9155e-09 -6.87934e-10)
(1.87235e-09 -2.21435e-09 -7.9176e-10)
(1.91313e-09 -2.55007e-09 -8.65439e-10)
(1.8335e-09 -2.9317e-09 -8.62071e-10)
(1.56712e-09 -3.36871e-09 -7.03015e-10)
(1.06471e-09 -3.85848e-09 -2.8248e-10)
(3.86669e-10 -4.34197e-09 4.49272e-10)
(-1.61025e-09 -4.28387e-09 4.90532e-09)
(0 0 0)
(5.03054e-10 -4.05856e-10 -1.14015e-10)
(9.69432e-10 -7.91256e-10 -2.25713e-10)
(1.3958e-09 -1.16098e-09 -3.3955e-10)
(1.79337e-09 -1.52999e-09 -4.62586e-10)
(2.17097e-09 -1.91037e-09 -6.00956e-10)
(2.53487e-09 -2.31257e-09 -7.59801e-10)
(2.88771e-09 -2.74527e-09 -9.42637e-10)
(3.22649e-09 -3.216e-09 -1.14985e-09)
(3.53879e-09 -3.73183e-09 -1.37568e-09)
(3.79645e-09 -4.29971e-09 -1.60282e-09)
(3.94633e-09 -4.92819e-09 -1.79328e-09)
(3.90008e-09 -5.62871e-09 -1.87508e-09)
(3.53305e-09 -6.41449e-09 -1.72906e-09)
(2.72493e-09 -7.28658e-09 -1.20113e-09)
(1.51195e-09 -8.1773e-09 -2.29165e-10)
(-3.16049e-09 -1.12272e-08 4.5018e-09)
(0 0 0)
(7.4463e-10 -5.89264e-10 -1.67172e-10)
(1.43494e-09 -1.14867e-09 -3.309e-10)
(2.06618e-09 -1.68503e-09 -4.97731e-10)
(2.65533e-09 -2.21959e-09 -6.78121e-10)
(3.21633e-09 -2.76958e-09 -8.81361e-10)
(3.76008e-09 -3.3493e-09 -1.11567e-09)
(4.2936e-09 -3.96984e-09 -1.38768e-09)
(4.8181e-09 -4.6399e-09 -1.70098e-09)
(5.32522e-09 -5.36582e-09 -2.05313e-09)
(5.79009e-09 -6.15142e-09 -2.43034e-09)
(6.16049e-09 -6.9992e-09 -2.79852e-09)
(6.34197e-09 -7.91078e-09 -3.0904e-09)
(6.187e-09 -8.88532e-09 -3.19284e-09)
(5.52051e-09 -9.90617e-09 -2.9563e-09)
(4.29073e-09 -1.0897e-08 -2.29577e-09)
(-1.1847e-09 -1.32463e-08 1.85009e-09)
(0 0 0)
(9.74529e-10 -7.50548e-10 -2.15928e-10)
(1.87788e-09 -1.46284e-09 -4.273e-10)
(2.70399e-09 -2.14524e-09 -6.42537e-10)
(3.47563e-09 -2.82433e-09 -8.75242e-10)
(4.2122e-09 -3.5216e-09 -1.13777e-09)
(4.93018e-09 -4.25362e-09 -1.44161e-09)
(5.64308e-09 -5.03263e-09 -1.79726e-09)
(6.36049e-09 -5.86623e-09 -2.21335e-09)
(7.08569e-09 -6.75656e-09 -2.69469e-09)
(7.81087e-09 -7.69962e-09 -3.23867e-09)
(8.5084e-09 -8.68415e-09 -3.82934e-09)
(9.11683e-09 -9.69125e-09 -4.42853e-09)
(9.52373e-09 -1.06919e-08 -4.96514e-09)
(9.56453e-09 -1.16383e-08 -5.33008e-09)
(9.09554e-09 -1.24517e-08 -5.3955e-09)
(6.04527e-09 -1.36328e-08 -3.89523e-09)
(0 0 0)
(1.18918e-09 -8.8398e-10 -2.59141e-10)
(2.29126e-09 -1.72264e-09 -5.12593e-10)
(3.2989e-09 -2.52549e-09 -7.70325e-10)
(4.24032e-09 -3.32346e-09 -1.04865e-09)
(5.14027e-09 -4.14092e-09 -1.36265e-09)
(6.02117e-09 -4.99593e-09 -1.72686e-09)
(6.90391e-09 -5.90026e-09 -2.15567e-09)
(7.80853e-09 -6.85869e-09 -2.66327e-09)
(8.75409e-09 -7.86713e-09 -3.26311e-09)
(9.75758e-09 -8.91041e-09 -3.96679e-09)
(1.08305e-08 -9.95965e-09 -4.78227e-09)
(1.19706e-08 -1.09701e-08 -5.71065e-09)
(1.31452e-08 -1.1882e-08 -6.73915e-09)
(1.42606e-08 -1.2629e-08 -7.81994e-09)
(1.51061e-08 -1.31744e-08 -8.79069e-09)
(1.7082e-08 -1.32139e-08 -1.12622e-08)
(0 0 0)
(1.38534e-09 -9.84875e-10 -2.95937e-10)
(2.66873e-09 -1.91909e-09 -5.84997e-10)
(3.84137e-09 -2.81292e-09 -8.78252e-10)
(4.93626e-09 -3.7006e-09 -1.19412e-09)
(5.98285e-09 -4.60821e-09 -1.54975e-09)
(7.0088e-09 -5.55436e-09 -1.96203e-09)
(8.04172e-09 -6.54966e-09 -2.44841e-09)
(9.11117e-09 -7.59526e-09 -3.0275e-09)
(1.02508e-08 -8.68047e-09 -3.7197e-09)
(1.15007e-08 -9.77869e-09 -4.54817e-09)
(1.2909e-08 -1.08428e-08 -5.54012e-09)
(1.45307e-08 -1.18006e-08 -6.72827e-09)
(1.64142e-08 -1.25569e-08 -8.14741e-09)
(1.85451e-08 -1.30178e-08 -9.80222e-09)
(2.06604e-08 -1.31922e-08 -1.15091e-08)
(2.77904e-08 -1.2387e-08 -1.73777e-08)
(0 0 0)
(1.56031e-09 -1.04982e-09 -3.25781e-10)
(3.00502e-09 -2.04563e-09 -6.43418e-10)
(4.3235e-09 -2.99825e-09 -9.64558e-10)
(5.55251e-09 -3.9439e-09 -1.30896e-09)
(6.72502e-09 -4.90973e-09 -1.695e-09)
(7.87244e-09 -5.91425e-09 -2.14084e-09)
(9.02696e-09 -6.96673e-09 -2.66543e-09)
(1.02243e-08 -8.06532e-09 -3.28943e-09)
(1.15068e-08 -9.19398e-09 -4.03632e-09)
(1.29279e-08 -1.03175e-08 -4.93389e-09)
(1.45553e-08 -1.13748e-08 -6.01642e-09)
(1.64737e-08 -1.22712e-08 -7.32689e-09)
(1.87771e-08 -1.28735e-08 -8.91431e-09)
(2.15178e-08 -1.30226e-08 -1.08007e-08)
(2.44883e-08 -1.26629e-08 -1.28042e-08)
(3.3277e-08 -8.60121e-09 -1.96952e-08)
(0 0 0)
(1.71195e-09 -1.07654e-09 -3.48502e-10)
(3.29597e-09 -2.09793e-09 -6.8752e-10)
(4.73926e-09 -3.07543e-09 -1.02872e-09)
(6.08097e-09 -4.04599e-09 -1.39239e-09)
(7.35615e-09 -5.03717e-09 -1.79719e-09)
(8.59805e-09 -6.06728e-09 -2.26129e-09)
(9.84053e-09 -7.14451e-09 -2.80339e-09)
(1.11209e-08 -8.26549e-09 -3.44347e-09)
(1.24832e-08 -9.41178e-09 -4.20356e-09)
(1.39808e-08 -1.05448e-08 -5.10842e-09)
(1.56791e-08 -1.15996e-08 -6.18579e-09)
(1.76535e-08 -1.24787e-08 -7.46436e-09)
(1.9977e-08 -1.3049e-08 -8.96326e-09)
(2.26725e-08 -1.31602e-08 -1.06514e-08)
(2.55853e-08 -1.27692e-08 -1.23173e-08)
(4.1643e-08 -2.65597e-09 -1.79938e-08)
(0 0 0)
(0 0 0)
(0 0 0)
(0 0 0)
(0 0 0)
(0 0 0)
(0 0 0)
(0 0 0)
(0 0 0)
(0 0 0)
(0 0 0)
(0 0 0)
(0 0 0)
(0 0 0)
(0 0 0)
(0 0 0)
(0 0 0)
(0 0 0)
(2.51947e-10 -2.16337e-10 -5.66747e-11)
(4.85265e-10 -4.22085e-10 -1.12242e-10)
(6.98068e-10 -6.20164e-10 -1.68974e-10)
(8.95734e-10 -8.18971e-10 -2.30447e-10)
(1.08235e-09 -1.02551e-09 -2.99791e-10)
(1.26045e-09 -1.24575e-09 -3.79626e-10)
(1.43036e-09 -1.48504e-09 -4.717e-10)
(1.58888e-09 -1.74825e-09 -5.75997e-10)
(1.72693e-09 -2.0401e-09 -6.88943e-10)
(1.82588e-09 -2.36559e-09 -8.0006e-10)
(1.85265e-09 -2.73055e-09 -8.86198e-10)
(1.7562e-09 -3.14191e-09 -9.02671e-10)
(1.47435e-09 -3.6045e-09 -7.73371e-10)
(9.75513e-10 -4.10538e-09 -3.9685e-10)
(3.82504e-10 -4.55361e-09 2.41205e-10)
(6.63796e-11 -4.94141e-09 2.78471e-09)
(0 0 0)
(4.99789e-10 -4.24203e-10 -1.11766e-10)
(9.62613e-10 -8.2753e-10 -2.21332e-10)
(1.38484e-09 -1.21565e-09 -3.33189e-10)
(1.77738e-09 -1.60492e-09 -4.54445e-10)
(2.14874e-09 -2.00875e-09 -5.9141e-10)
(2.50484e-09 -2.4385e-09 -7.49578e-10)
(2.84792e-09 -2.90387e-09 -9.33098e-10)
(3.17456e-09 -3.41317e-09 -1.1434e-09)
(3.47191e-09 -3.97382e-09 -1.37637e-09)
(3.71141e-09 -4.59236e-09 -1.61708e-09)
(3.83977e-09 -5.27533e-09 -1.83087e-09)
(3.7697e-09 -6.02916e-09 -1.95003e-09)
(3.38222e-09 -6.85638e-09 -1.86048e-09)
(2.57954e-09 -7.73673e-09 -1.4165e-09)
(1.49691e-09 -8.54395e-09 -6.06179e-10)
(-6.86324e-10 -1.03149e-08 1.76744e-09)
(0 0 0)
(7.39759e-10 -6.15853e-10 -1.63836e-10)
(1.42478e-09 -1.2012e-09 -3.24395e-10)
(2.04988e-09 -1.76414e-09 -4.88263e-10)
(2.63164e-09 -2.32803e-09 -6.65951e-10)
(3.18356e-09 -2.91179e-09 -8.66975e-10)
(3.71616e-09 -3.5311e-09 -1.10003e-09)
(4.23608e-09 -4.19832e-09 -1.37261e-09)
(4.74441e-09 -4.92312e-09 -1.6897e-09)
(5.233e-09 -5.71207e-09 -2.05111e-09)
(5.67796e-09 -6.56788e-09 -2.44629e-09)
(6.02928e-09 -7.48925e-09 -2.84564e-09)
(6.19685e-09 -8.46857e-09 -3.18766e-09)
(6.04113e-09 -9.4857e-09 -3.36581e-09)
(5.40595e-09 -1.04865e-08 -3.23921e-09)
(4.33266e-09 -1.13134e-08 -2.76191e-09)
(1.08701e-09 -1.20826e-08 -1.02579e-09)
(0 0 0)
(9.68072e-10 -7.8427e-10 -2.11557e-10)
(1.86443e-09 -1.52945e-09 -4.18762e-10)
(2.68249e-09 -2.24555e-09 -6.30071e-10)
(3.44448e-09 -2.96173e-09 -8.5913e-10)
(4.16932e-09 -3.70148e-09 -1.11854e-09)
(4.8731e-09 -4.48313e-09 -1.42032e-09)
(5.56915e-09 -5.32033e-09 -1.77596e-09)
(6.26741e-09 -6.22169e-09 -2.19572e-09)
(6.97252e-09 -7.18935e-09 -2.68697e-09)
(7.67987e-09 -8.21729e-09 -3.25085e-09)
(8.36814e-09 -9.28859e-09 -3.87657e-09)
(8.98668e-09 -1.03712e-08 -4.53248e-09)
(9.43869e-09 -1.14097e-08 -5.15448e-09)
(9.57861e-09 -1.23065e-08 -5.63919e-09)
(9.30862e-09 -1.28942e-08 -5.86805e-09)
(7.20193e-09 -1.24787e-08 -5.67149e-09)
(0 0 0)
(1.18116e-09 -9.23483e-10 -2.53804e-10)
(2.2746e-09 -1.80068e-09 -5.02154e-10)
(3.27231e-09 -2.64297e-09 -7.55032e-10)
(4.20189e-09 -3.48416e-09 -1.02877e-09)
(5.08753e-09 -4.35086e-09 -1.33866e-09)
(5.95126e-09 -5.26307e-09 -1.69979e-09)
(6.81398e-09 -6.23421e-09 -2.12756e-09)
(7.69648e-09 -7.27e-09 -2.63784e-09)
(8.62016e-09 -8.366e-09 -3.24667e-09)
(9.60719e-09 -9.5042e-09 -3.96952e-09)
(1.06791e-08 -1.06484e-08 -4.81964e-09)
(1.18508e-08 -1.17388e-08 -5.80486e-09)
(1.31142e-08 -1.26879e-08 -6.91961e-09)
(1.43975e-08 -1.33837e-08 -8.11961e-09)
(1.54666e-08 -1.37242e-08 -9.21833e-09)
(1.62784e-08 -1.29819e-08 -1.12004e-08)
(0 0 0)
(1.3758e-09 -1.02867e-09 -2.89728e-10)
(2.64894e-09 -2.00558e-09 -5.72832e-10)
(3.80983e-09 -2.94304e-09 -8.6037e-10)
(4.89071e-09 -3.87821e-09 -1.17073e-09)
(5.92038e-09 -4.83967e-09 -1.52123e-09)
(6.92606e-09 -5.84815e-09 -1.92928e-09)
(7.93535e-09 -6.91594e-09 -2.41322e-09)
(8.97867e-09 -8.04511e-09 -2.99323e-09)
(1.00922e-08 -9.22414e-09 -3.69213e-09)
(1.13215e-08 -1.04227e-08 -4.53659e-09)
(1.27257e-08 -1.15849e-08 -5.55869e-09)
(1.43775e-08 -1.26222e-08 -6.79747e-09)
(1.63486e-08 -1.34116e-08 -8.29517e-09)
(1.86337e-08 -1.38228e-08 -1.00605e-08)
(2.08606e-08 -1.38404e-08 -1.18635e-08)
(2.42881e-08 -1.40206e-08 -1.5682e-08)
(0 0 0)
(1.5493e-09 -1.09627e-09 -3.18811e-10)
(2.98218e-09 -2.13733e-09 -6.29742e-10)
(4.28714e-09 -3.13607e-09 -9.44394e-10)
(5.5e-09 -4.13173e-09 -1.28244e-09)
(6.65295e-09 -5.15398e-09 -1.66237e-09)
(7.7768e-09 -6.22353e-09 -2.10275e-09)
(8.90352e-09 -7.35144e-09 -2.6233e-09)
(1.00692e-08 -8.53657e-09 -3.24601e-09)
(1.13182e-08 -9.76158e-09 -3.99635e-09)
(1.27077e-08 -1.09867e-08 -4.90496e-09)
(1.43133e-08 -1.21408e-08 -6.00995e-09)
(1.62312e-08 -1.31101e-08 -7.35927e-09)
(1.85666e-08 -1.37276e-08 -9.00849e-09)
(2.13578e-08 -1.37842e-08 -1.09855e-08)
(2.42253e-08 -1.3197e-08 -1.30609e-08)
(2.61894e-08 -1.21019e-08 -1.73958e-08)
(0 0 0)
(1.69953e-09 -1.12392e-09 -3.40899e-10)
(3.27024e-09 -2.19145e-09 -6.72582e-10)
(4.6983e-09 -3.21587e-09 -1.00664e-09)
(6.02179e-09 -4.2372e-09 -1.36322e-09)
(7.27481e-09 -5.28543e-09 -1.76101e-09)
(8.48979e-09 -6.38108e-09 -2.2185e-09)
(9.69999e-09 -7.53417e-09 -2.75498e-09)
(1.09425e-08 -8.74179e-09 -3.39144e-09)
(1.22617e-08 -9.98389e-09 -4.1514e-09)
(1.37124e-08 -1.12169e-08 -5.06163e-09)
(1.53626e-08 -1.23651e-08 -6.15227e-09)
(1.72898e-08 -1.33112e-08 -7.45448e-09)
(1.95617e-08 -1.38869e-08 -8.98943e-09)
(2.21649e-08 -1.38883e-08 -1.07249e-08)
(2.47829e-08 -1.32329e-08 -1.24163e-08)
(3.17643e-08 -6.69465e-09 -1.60627e-08)
(0 0 0)
(0 0 0)
(0 0 0)
(0 0 0)
(0 0 0)
(0 0 0)
(0 0 0)
(0 0 0)
(0 0 0)
(0 0 0)
(0 0 0)
(0 0 0)
(0 0 0)
(0 0 0)
(0 0 0)
(0 0 0)
(0 0 0)
(0 0 0)
(2.49661e-10 -2.2539e-10 -5.34259e-11)
(4.80542e-10 -4.4006e-10 -1.05856e-10)
(6.90519e-10 -6.47422e-10 -1.59496e-10)
(8.84688e-10 -8.56585e-10 -2.17819e-10)
(1.06683e-09 -1.07525e-09 -2.83935e-10)
(1.23912e-09 -1.31006e-09 -3.60583e-10)
(1.40149e-09 -1.56699e-09 -4.49857e-10)
(1.55033e-09 -1.85156e-09 -5.52509e-10)
(1.67623e-09 -2.16893e-09 -6.66513e-10)
(1.76068e-09 -2.5241e-09 -7.84451e-10)
(1.77191e-09 -2.92206e-09 -8.89284e-10)
(1.66345e-09 -3.36692e-09 -9.48738e-10)
(1.38533e-09 -3.85741e-09 -9.1196e-10)
(9.31603e-10 -4.37024e-09 -7.2374e-10)
(4.47727e-10 -4.80923e-09 -4.03283e-10)
(2.05119e-10 -5.08567e-09 6.43358e-10)
(0 0 0)
(4.95244e-10 -4.41933e-10 -1.05342e-10)
(9.53229e-10 -8.62731e-10 -2.08702e-10)
(1.36986e-09 -1.269e-09 -3.14434e-10)
(1.75548e-09 -1.6785e-09 -4.29428e-10)
(2.11804e-09 -2.10604e-09 -5.59933e-10)
(2.46276e-09 -2.5642e-09 -7.11624e-10)
(2.79119e-09 -3.06393e-09 -8.89236e-10)
(3.09927e-09 -3.61481e-09 -1.0955e-09)
(3.37377e-09 -4.22504e-09 -1.32888e-09)
(3.58679e-09 -4.90122e-09 -1.57951e-09)
(3.68828e-09 -5.64807e-09 -1.82247e-09)
(3.6003e-09 -6.46633e-09 -2.00921e-09)
(3.2267e-09 -7.34588e-09 -2.06295e-09)
(2.515e-09 -8.24414e-09 -1.90209e-09)
(1.63947e-09 -9.01786e-09 -1.55232e-09)
(-4.38619e-11 -1.0767e-08 -8.27986e-10)
(0 0 0)
(7.33008e-10 -6.41553e-10 -1.54383e-10)
(1.41085e-09 -1.2522e-09 -3.05801e-10)
(2.02766e-09 -1.84136e-09 -4.60629e-10)
(2.59922e-09 -2.43447e-09 -6.29029e-10)
(3.13823e-09 -3.05245e-09 -8.20379e-10)
(3.65425e-09 -3.71262e-09 -1.04353e-09)
(4.15305e-09 -4.42925e-09 -1.30661e-09)
(4.635e-09 -5.2137e-09 -1.61608e-09)
(5.09188e-09 -6.0737e-09 -1.97459e-09)
(5.50157e-09 -7.01217e-09 -2.37692e-09)
(5.81983e-09 -8.02533e-09 -2.80333e-09)
(5.9708e-09 -9.09786e-09 -3.21037e-09)
(5.84541e-09 -1.01926e-08 -3.52417e-09)
(5.34069e-09 -1.12268e-08 -3.65581e-09)
(4.53453e-09 -1.20234e-08 -3.58392e-09)
(1.99038e-09 -1.30341e-08 -3.29138e-09)
(0 0 0)
(9.59183e-10 -8.16895e-10 -1.99287e-10)
(1.84611e-09 -1.59415e-09 -3.94618e-10)
(2.65329e-09 -2.34345e-09 -5.94157e-10)
(3.40198e-09 -3.09664e-09 -8.11061e-10)
(4.11e-09 -3.87947e-09 -1.05767e-09)
(4.79235e-09 -4.71257e-09 -1.34605e-09)
(5.46128e-09 -5.6118e-09 -1.6882e-09)
(6.12601e-09 -6.58791e-09 -2.09562e-09)
(6.79148e-09 -7.64477e-09 -2.578e-09)
(7.4559e-09 -8.77681e-09 -3.14063e-09)
(8.10604e-09 -9.96506e-09 -3.77942e-09)
(8.70933e-09 -1.11701e-08 -4.47308e-09)
(9.20342e-09 -1.23204e-08 -5.17217e-09)
(9.49364e-09 -1.3294e-08 -5.78973e-09)
(9.50274e-09 -1.39082e-08 -6.20614e-09)
(8.55198e-09 -1.39813e-08 -6.57835e-09)
(0 0 0)
(1.17022e-09 -9.61739e-10 -2.38996e-10)
(2.25207e-09 -1.87651e-09 -4.73005e-10)
(3.23646e-09 -2.75765e-09 -7.11639e-10)
(4.14977e-09 -3.64197e-09 -9.70598e-10)
(5.01491e-09 -4.55875e-09 -1.26477e-09)
(5.85253e-09 -5.53056e-09 -1.60911e-09)
(6.68228e-09 -6.57345e-09 -2.01926e-09)
(7.52401e-09 -7.69568e-09 -2.51181e-09)
(8.39932e-09 -8.89498e-09 -3.1042e-09)
(9.33321e-09 -1.01545e-08 -3.81384e-09)
(1.03553e-08 -1.14374e-08 -4.6559e-09)
(1.14982e-08 -1.26798e-08 -5.63774e-09)
(1.27845e-08 -1.37863e-08 -6.74444e-09)
(1.4181e-08 -1.4636e-08 -7.90134e-09)
(1.54604e-08 -1.5119e-08 -8.88371e-09)
(1.80073e-08 -1.5088e-08 -1.01207e-08)
(0 0 0)
(1.36293e-09 -1.07108e-09 -2.72712e-10)
(2.62245e-09 -2.0896e-09 -5.39333e-10)
(3.76772e-09 -3.07e-09 -8.10479e-10)
(4.82953e-09 -4.05265e-09 -1.10377e-09)
(5.83516e-09 -5.06904e-09 -1.43598e-09)
(6.8102e-09 -6.14269e-09 -1.82416e-09)
(7.78062e-09 -7.28881e-09 -2.28662e-09)
(8.77533e-09 -8.51233e-09 -2.84366e-09)
(9.82975e-09 -9.80415e-09 -3.51838e-09)
(1.09905e-08 -1.11358e-08 -4.33715e-09)
(1.23208e-08 -1.24523e-08 -5.32939e-09)
(1.39026e-08 -1.36655e-08 -6.524e-09)
(1.58196e-08 -1.46561e-08 -7.93367e-09)
(1.80703e-08 -1.53099e-08 -9.49877e-09)
(2.02714e-08 -1.56244e-08 -1.09221e-08)
(2.56868e-08 -1.67078e-08 -1.28919e-08)
(0 0 0)
(1.53465e-09 -1.14121e-09 -2.99959e-10)
(2.95202e-09 -2.22633e-09 -5.92628e-10)
(4.23923e-09 -3.27047e-09 -8.89118e-10)
(5.43043e-09 -4.31614e-09 -1.20822e-09)
(6.55603e-09 -5.396e-09 -1.56775e-09)
(7.64494e-09 -6.53374e-09 -1.98577e-09)
(8.72694e-09 -7.74341e-09 -2.48163e-09)
(9.83585e-09 -9.02679e-09 -3.077e-09)
(1.10135e-08 -1.0369e-08 -3.79669e-09)
(1.23148e-08 -1.17322e-08 -4.66944e-09)
(1.38126e-08 -1.30466e-08 -5.72771e-09)
(1.5598e-08 -1.42008e-08 -7.00408e-09)
(1.77575e-08 -1.50382e-08 -8.51531e-09)
(2.02755e-08 -1.53844e-08 -1.02059e-08)
(2.27098e-08 -1.52061e-08 -1.17685e-08)
(2.53351e-08 -1.51467e-08 -1.39069e-08)
(0 0 0)
(1.68325e-09 -1.16971e-09 -3.206e-10)
(3.23676e-09 -2.28212e-09 -6.32634e-10)
(4.64515e-09 -3.35269e-09 -9.4717e-10)
(5.94468e-09 -4.42476e-09 -1.2834e-09)
(7.16743e-09 -5.53125e-09 -1.65926e-09)
(8.3436e-09 -6.69562e-09 -2.0926e-09)
(9.50383e-09 -7.9309e-09 -2.60216e-09)
(1.06819e-08 -9.23688e-09 -3.2083e-09)
(1.19181e-08 -1.05956e-08 -3.93341e-09)
(1.32617e-08 -1.19648e-08 -4.80165e-09)
(1.47716e-08 -1.32691e-08 -5.83682e-09)
(1.65083e-08 -1.43913e-08 -7.055e-09)
(1.85005e-08 -1.51669e-08 -8.44348e-09)
(2.06484e-08 -1.5411e-08 -9.90481e-09)
(2.25007e-08 -1.50704e-08 -1.11297e-08)
(2.76022e-08 -9.48945e-09 -1.2704e-08)
(0 0 0)
(0 0 0)
(0 0 0)
(0 0 0)
(0 0 0)
(0 0 0)
(0 0 0)
(0 0 0)
(0 0 0)
(0 0 0)
(0 0 0)
(0 0 0)
(0 0 0)
(0 0 0)
(0 0 0)
(0 0 0)
(0 0 0)
(0 0 0)
(2.46968e-10 -2.33793e-10 -4.81504e-11)
(4.74994e-10 -4.5682e-10 -9.5449e-11)
(6.8165e-10 -6.72961e-10 -1.43944e-10)
(8.71652e-10 -8.92052e-10 -1.96855e-10)
(1.04835e-09 -1.12251e-09 -2.57138e-10)
(1.21342e-09 -1.37175e-09 -3.2752e-10)
(1.36617e-09 -1.64657e-09 -4.1035e-10)
(1.50231e-09 -1.95336e-09 -5.07138e-10)
(1.61175e-09 -2.29815e-09 -6.17602e-10)
(1.67549e-09 -2.68656e-09 -7.38016e-10)
(1.66205e-09 -3.12364e-09 -8.58778e-10)
(1.52665e-09 -3.61266e-09 -9.61884e-10)
(1.2229e-09 -4.1504e-09 -1.02125e-09)
(7.47672e-10 -4.71128e-09 -1.01347e-09)
(2.4001e-10 -5.19571e-09 -9.492e-10)
(-2.94979e-10 -5.62813e-09 -7.07344e-10)
(0 0 0)
(4.89896e-10 -4.58387e-10 -9.49255e-11)
(9.42214e-10 -8.95535e-10 -1.8815e-10)
(1.35226e-09 -1.31899e-09 -2.83712e-10)
(1.72963e-09 -1.74789e-09 -3.87987e-10)
(2.08145e-09 -2.19846e-09 -5.06887e-10)
(2.41195e-09 -2.68479e-09 -6.45999e-10)
(2.72154e-09 -3.21945e-09 -8.10413e-10)
(3.00488e-09 -3.8138e-09 -1.00404e-09)
(3.24763e-09 -4.47774e-09 -1.22814e-09)
(3.42144e-09 -5.21921e-09 -1.47869e-09)
(3.47766e-09 -6.04314e-09 -1.74245e-09)
(3.34355e-09 -6.94838e-09 -1.99272e-09)
(2.93371e-09 -7.92011e-09 -2.18919e-09)
(2.2085e-09 -8.9092e-09 -2.29317e-09)
(1.33747e-09 -9.76534e-09 -2.30755e-09)
(-4.23392e-10 -1.1764e-08 -2.35943e-09)
(0 0 0)
(7.2508e-10 -6.65387e-10 -1.39083e-10)
(1.39453e-09 -1.2997e-09 -2.75612e-10)
(2.00161e-09 -1.9137e-09 -4.15481e-10)
(2.561e-09 -2.53483e-09 -5.68075e-10)
(3.0842e-09 -3.18604e-09 -7.42207e-10)
(3.57937e-09 -3.88682e-09 -9.46461e-10)
(4.05064e-09 -4.65385e-09 -1.18918e-09)
(4.49669e-09 -5.50112e-09 -1.47792e-09)
(4.90798e-09 -6.43906e-09 -1.81806e-09)
(5.26237e-09 -7.47289e-09 -2.21017e-09)
(5.51903e-09 -8.59973e-09 -2.64575e-09)
(5.61236e-09 -9.80232e-09 -3.10174e-09)
(5.45407e-09 -1.10373e-08 -3.5369e-09)
(4.96861e-09 -1.22121e-08 -3.89788e-09)
(4.23388e-09 -1.31377e-08 -4.13834e-09)
(1.79104e-09 -1.45401e-08 -4.51944e-09)
(0 0 0)
(9.4879e-10 -8.47168e-10 -1.79481e-10)
(1.82471e-09 -1.65445e-09 -3.55534e-10)
(2.61916e-09 -2.43519e-09 -5.35689e-10)
(3.35196e-09 -3.22379e-09 -7.32054e-10)
(4.03939e-09 -4.04859e-09 -9.56147e-10)
(4.69462e-09 -4.93293e-09 -1.2195e-09)
(5.32784e-09 -5.8958e-09 -1.53394e-09)
(5.94611e-09 -6.95144e-09 -1.91149e-09)
(6.55272e-09 -8.10752e-09 -2.36355e-09)
(7.14608e-09 -9.36228e-09 -2.89902e-09)
(7.71789e-09 -1.06996e-08 -3.52067e-09)
(8.25023e-09 -1.20804e-08 -4.21872e-09)
(8.7116e-09 -1.34294e-08 -4.9606e-09)
(9.05309e-09 -1.46142e-08 -5.67604e-09)
(9.21315e-09 -1.54275e-08 -6.23363e-09)
(8.7554e-09 -1.59838e-08 -6.969e-09)
(0 0 0)
(1.15751e-09 -9.97252e-10 -2.15165e-10)
(2.2259e-09 -1.94719e-09 -4.25982e-10)
(3.19474e-09 -2.86508e-09 -6.41289e-10)
(4.08869e-09 -3.79075e-09 -8.75484e-10)
(4.92875e-09 -4.75643e-09 -1.14237e-09)
(5.73336e-09 -5.78791e-09 -1.45603e-09)
(6.51955e-09 -6.90491e-09 -1.83146e-09)
(7.30436e-09 -8.11998e-09 -2.28493e-09)
(8.10683e-09 -9.43583e-09 -2.83392e-09)
(8.95113e-09 -1.08414e-08 -3.49629e-09)
(9.87072e-09 -1.23057e-08 -4.28761e-09)
(1.09125e-08 -1.37711e-08 -5.21445e-09)
(1.21333e-08 -1.51458e-08 -6.25767e-09)
(1.3563e-08 -1.63033e-08 -7.33485e-09)
(1.50282e-08 -1.7087e-08 -8.22784e-09)
(1.85789e-08 -1.76137e-08 -9.39232e-09)
(0 0 0)
(1.34806e-09 -1.11044e-09 -2.45421e-10)
(2.59187e-09 -2.16788e-09 -4.85497e-10)
(3.719e-09 -3.18889e-09 -7.2996e-10)
(4.75826e-09 -4.21715e-09 -9.94914e-10)
(5.73469e-09 -5.28737e-09 -1.29582e-09)
(6.67122e-09 -6.42659e-09 -1.64854e-09)
(7.59058e-09 -7.6541e-09 -2.07025e-09)
(8.51787e-09 -8.97968e-09 -2.58008e-09)
(9.48431e-09 -1.04002e-08 -3.19957e-09)
(1.05328e-08 -1.18946e-08 -3.95246e-09)
(1.17252e-08 -1.34176e-08 -4.86263e-09)
(1.31487e-08 -1.48939e-08 -5.9472e-09)
(1.49089e-08 -1.622e-08 -7.1964e-09)
(1.70619e-08 -1.72891e-08 -8.52253e-09)
(1.93223e-08 -1.80345e-08 -9.65374e-09)
(2.59535e-08 -1.9828e-08 -1.12155e-08)
(0 0 0)
(1.51782e-09 -1.18289e-09 -2.69829e-10)
(2.91745e-09 -2.3092e-09 -5.33223e-10)
(4.18421e-09 -3.39626e-09 -8.00335e-10)
(5.35002e-09 -4.49002e-09 -1.08829e-09)
(6.44276e-09 -5.62649e-09 -1.41342e-09)
(7.48826e-09 -6.83304e-09 -1.79236e-09)
(8.51239e-09 -8.12796e-09 -2.243e-09)
(9.544e-09 -9.51807e-09 -2.78519e-09)
(1.06187e-08 -1.09949e-08 -3.44111e-09)
(1.17835e-08 -1.25288e-08 -4.23486e-09)
(1.31021e-08 -1.40612e-08 -5.18986e-09)
(1.46554e-08 -1.54981e-08 -6.32086e-09)
(1.65235e-08 -1.67074e-08 -7.61278e-09)
(1.8707e-08 -1.7539e-08 -8.97092e-09)
(2.08627e-08 -1.7904e-08 -1.01192e-08)
(2.38303e-08 -1.88423e-08 -1.17392e-08)
(0 0 0)
(1.66471e-09 -1.21213e-09 -2.88277e-10)
(3.1987e-09 -2.36647e-09 -5.68952e-10)
(4.58467e-09 -3.48072e-09 -8.52116e-10)
(5.85643e-09 -4.60156e-09 -1.15521e-09)
(7.04329e-09 -5.76532e-09 -1.49459e-09)
(8.17204e-09 -6.99911e-09 -1.8866e-09)
(9.26887e-09 -8.32005e-09 -2.34833e-09)
(1.03617e-08 -9.73279e-09 -2.8981e-09)
(1.14827e-08 -1.12254e-08 -3.55527e-09)
(1.267e-08 -1.2763e-08 -4.33888e-09)
(1.3967e-08 -1.42806e-08 -5.26329e-09)
(1.54118e-08 -1.56746e-08 -6.32724e-09)
(1.70036e-08 -1.67991e-08 -7.48921e-09)
(1.86182e-08 -1.74802e-08 -8.61861e-09)
(1.98305e-08 -1.76064e-08 -9.42133e-09)
(2.31642e-08 -1.33197e-08 -9.96466e-09)
(0 0 0)
(0 0 0)
(0 0 0)
(0 0 0)
(0 0 0)
(0 0 0)
(0 0 0)
(0 0 0)
(0 0 0)
(0 0 0)
(0 0 0)
(0 0 0)
(0 0 0)
(0 0 0)
(0 0 0)
(0 0 0)
(0 0 0)
(0 0 0)
(2.44163e-10 -2.4124e-10 -4.10188e-11)
(4.69208e-10 -4.71709e-10 -8.13493e-11)
(6.72376e-10 -6.95754e-10 -1.22783e-10)
(8.57944e-10 -9.23882e-10 -1.68137e-10)
(1.02875e-09 -1.16523e-09 -2.20052e-10)
(1.18584e-09 -1.42805e-09 -2.81071e-10)
(1.3277e-09 -1.72006e-09 -3.53589e-10)
(1.44896e-09 -2.04875e-09 -4.39623e-10)
(1.53821e-09 -2.42132e-09 -5.40305e-10)
(1.5747e-09 -2.84458e-09 -6.55044e-10)
(1.52458e-09 -3.32465e-09 -7.80452e-10)
(1.33942e-09 -3.86561e-09 -9.09549e-10)
(9.66303e-10 -4.46523e-09 -1.03261e-09)
(3.91241e-10 -5.09914e-09 -1.14097e-09)
(-2.47237e-10 -5.66252e-09 -1.22706e-09)
(-1.33936e-09 -6.38592e-09 -1.41731e-09)
(0 0 0)
(4.84328e-10 -4.7296e-10 -8.08537e-11)
(9.30737e-10 -9.2468e-10 -1.60329e-10)
(1.33387e-09 -1.36359e-09 -2.41953e-10)
(1.70247e-09 -1.81015e-09 -3.31293e-10)
(2.04265e-09 -2.28201e-09 -4.33609e-10)
(2.35742e-09 -2.79487e-09 -5.54052e-10)
(2.64558e-09 -3.36319e-09 -6.97654e-10)
(2.89983e-09 -4.00048e-09 -8.6901e-10)
(3.10339e-09 -4.71908e-09 -1.07151e-09)
(3.22506e-09 -5.52934e-09 -1.306e-09)
(3.21293e-09 -6.43821e-09 -1.56891e-09)
(2.99023e-09 -7.44548e-09 -1.85052e-09)
(2.46547e-09 -8.53565e-09 -2.13501e-09)
(1.58972e-09 -9.6558e-09 -2.40332e-09)
(5.38637e-10 -1.06387e-08 -2.626e-09)
(-1.75144e-09 -1.28729e-08 -3.07398e-09)
(0 0 0)
(7.16842e-10 -6.86505e-10 -1.18438e-10)
(1.37755e-09 -1.34191e-09 -2.34796e-10)
(1.97441e-09 -1.97824e-09 -3.54213e-10)
(2.52086e-09 -2.62488e-09 -4.84856e-10)
(3.02693e-09 -3.30684e-09 -6.34523e-10)
(3.49897e-09 -4.04594e-09 -8.11014e-10)
(3.93887e-09 -4.86169e-09 -1.02228e-09)
(4.34251e-09 -5.77134e-09 -1.27623e-09)
(4.69712e-09 -6.78909e-09 -1.58004e-09)
(4.97728e-09 -7.92415e-09 -1.93878e-09)
(5.13955e-09 -9.17698e-09 -2.35317e-09)
(5.11748e-09 -1.05317e-08 -2.81639e-09)
(4.8243e-09 -1.19418e-08 -3.3105e-09)
(4.18732e-09 -1.33031e-08 -3.80088e-09)
(3.29665e-09 -1.43939e-08 -4.21319e-09)
(3.61141e-10 -1.60542e-08 -4.94282e-09)
(0 0 0)
(9.38014e-10 -8.73986e-10 -1.52796e-10)
(1.80251e-09 -1.70801e-09 -3.02783e-10)
(2.58362e-09 -2.51703e-09 -4.56507e-10)
(3.29954e-09 -3.33792e-09 -6.24474e-10)
(3.96467e-09 -4.20159e-09 -8.16803e-10)
(4.58983e-09 -5.13444e-09 -1.04381e-09)
(5.1823e-09 -6.15909e-09 -1.31642e-09)
(5.74554e-09 -7.29416e-09 -1.6462e-09)
(6.27883e-09 -8.55265e-09 -2.04508e-09)
(6.77684e-09 -9.93882e-09 -2.52429e-09)
(7.22946e-09 -1.14425e-08 -3.09197e-09)
(7.62217e-09 -1.30285e-08 -3.74845e-09)
(7.93614e-09 -1.46188e-08 -4.47682e-09)
(8.14537e-09 -1.60621e-08 -5.22337e-09)
(8.21195e-09 -1.70976e-08 -5.85266e-09)
(7.49564e-09 -1.79319e-08 -6.82323e-09)
(0 0 0)
(1.14436e-09 -1.0287e-09 -1.83113e-10)
(2.19883e-09 -2.00996e-09 -3.62639e-10)
(3.15143e-09 -2.96093e-09 -5.46239e-10)
(4.02486e-09 -3.92433e-09 -7.46365e-10)
(4.83784e-09 -4.93542e-09 -9.7506e-10)
(5.60594e-09 -6.02356e-09 -1.24476e-09)
(6.34255e-09 -7.21281e-09 -1.56891e-09)
(7.06017e-09 -8.52115e-09 -1.96236e-09)
(7.7726e-09 -9.95823e-09 -2.44139e-09)
(8.4988e-09 -1.15215e-08 -3.02308e-09)
(9.26927e-09 -1.31902e-08 -3.72298e-09)
(1.01351e-08 -1.49158e-08 -4.54912e-09)
(1.11737e-08 -1.661e-08 -5.4875e-09)
(1.24599e-08 -1.81256e-08 -6.46955e-09)
(1.38743e-08 -1.92254e-08 -7.30531e-09)
(1.75149e-08 -2.01231e-08 -8.54896e-09)
(0 0 0)
(1.33276e-09 -1.14529e-09 -2.08786e-10)
(2.56036e-09 -2.2374e-09 -4.13133e-10)
(3.66864e-09 -3.295e-09 -6.21453e-10)
(4.68411e-09 -4.3649e-09 -8.47626e-10)
(5.62916e-09 -5.4852e-09 -1.10506e-09)
(6.52335e-09 -6.68686e-09 -1.4076e-09)
(7.38499e-09 -7.994e-09 -1.77032e-09)
(8.23352e-09 -9.42262e-09 -2.21004e-09)
(9.09308e-09 -1.09779e-08 -2.74552e-09)
(9.9984e-09 -1.26497e-08 -3.39687e-09)
(1.10037e-08 -1.44071e-08 -4.18309e-09)
(1.21941e-08 -1.61921e-08 -5.11512e-09)
(1.36897e-08 -1.79164e-08 -6.17889e-09)
(1.55979e-08 -1.94632e-08 -7.29823e-09)
(1.77267e-08 -2.06659e-08 -8.25892e-09)
(2.46226e-08 -2.31107e-08 -9.78027e-09)
(0 0 0)
(1.50059e-09 -1.21979e-09 -2.29464e-10)
(2.88201e-09 -2.38279e-09 -4.53551e-10)
(4.12764e-09 -3.50853e-09 -6.81015e-10)
(5.26685e-09 -4.64623e-09 -9.26572e-10)
(6.32454e-09 -5.83546e-09 -1.2043e-09)
(7.32269e-09 -7.10765e-09 -1.5286e-09)
(8.28212e-09 -8.4861e-09 -1.91491e-09)
(9.2248e-09 -9.98426e-09 -2.38021e-09)
(1.01772e-08 -1.16025e-08 -2.94293e-09)
(1.11745e-08 -1.33234e-08 -3.62192e-09)
(1.22662e-08 -1.51054e-08 -4.43301e-09)
(1.35183e-08 -1.68773e-08 -5.38057e-09)
(1.50049e-08 -1.85333e-08 -6.43994e-09)
(1.67515e-08 -1.99346e-08 -7.52465e-09)
(1.85152e-08 -2.09067e-08 -8.42797e-09)
(2.11811e-08 -2.30845e-08 -9.96698e-09)
(0 0 0)
(1.64583e-09 -1.24969e-09 -2.45059e-10)
(3.15991e-09 -2.44139e-09 -4.83737e-10)
(4.52286e-09 -3.59494e-09 -7.24709e-10)
(5.76575e-09 -4.7604e-09 -9.82922e-10)
(6.91468e-09 -5.97757e-09 -1.27242e-09)
(7.99228e-09 -7.27754e-09 -1.60724e-09)
(9.01915e-09 -8.68238e-09 -2.00196e-09)
(1.00156e-08 -1.02031e-08 -2.47189e-09)
(1.1003e-08 -1.18363e-08 -3.03252e-09)
(1.20052e-08 -1.35588e-08 -3.69751e-09)
(1.3046e-08 -1.53212e-08 -4.47354e-09)
(1.41398e-08 -1.70406e-08 -5.34942e-09)
(1.52628e-08 -1.85926e-08 -6.27499e-09)
(1.62879e-08 -1.98081e-08 -7.12697e-09)
(1.68453e-08 -2.04983e-08 -7.66489e-09)
(1.79887e-08 -1.81448e-08 -7.83169e-09)
(0 0 0)
(0 0 0)
(0 0 0)
(0 0 0)
(0 0 0)
(0 0 0)
(0 0 0)
(0 0 0)
(0 0 0)
(0 0 0)
(0 0 0)
(0 0 0)
(0 0 0)
(0 0 0)
(0 0 0)
(0 0 0)
(0 0 0)
(0 0 0)
(2.41554e-10 -2.47412e-10 -3.22821e-11)
(4.6382e-10 -4.8408e-10 -6.40481e-11)
(6.63711e-10 -7.14754e-10 -9.67403e-11)
(8.45068e-10 -9.50553e-10 -1.32624e-10)
(1.01021e-09 -1.20128e-09 -1.73865e-10)
(1.15948e-09 -1.47596e-09 -2.22615e-10)
(1.29042e-09 -1.78328e-09 -2.81041e-10)
(1.39635e-09 -2.13182e-09 -3.5125e-10)
(1.46394e-09 -2.53011e-09 -4.35102e-10)
(1.46954e-09 -2.98639e-09 -5.33912e-10)
(1.37469e-09 -3.50822e-09 -6.48139e-10)
(1.12322e-09 -4.10126e-09 -7.77294e-10)
(6.49671e-10 -4.76503e-09 -9.20178e-10)
(-7.53883e-11 -5.47706e-09 -1.07379e-09)
(-9.04168e-10 -6.12649e-09 -1.21967e-09)
(-2.69796e-09 -7.19991e-09 -1.57957e-09)
(0 0 0)
(4.79155e-10 -4.85048e-10 -6.36243e-11)
(9.20056e-10 -9.48897e-10 -1.26212e-10)
(1.3167e-09 -1.40078e-09 -1.90598e-10)
(1.67697e-09 -1.86234e-09 -2.61253e-10)
(2.00595e-09 -2.35253e-09 -3.42473e-10)
(2.3053e-09 -2.88861e-09 -4.38583e-10)
(2.572e-09 -3.48692e-09 -5.54034e-10)
(2.79623e-09 -4.16323e-09 -6.93339e-10)
(2.95772e-09 -4.9325e-09 -8.60807e-10)
(3.02024e-09 -5.80799e-09 -1.06006e-09)
(2.92435e-09 -6.79928e-09 -1.29342e-09)
(2.58172e-09 -7.90798e-09 -1.56121e-09)
(1.8837e-09 -9.11829e-09 -1.86076e-09)
(7.63615e-10 -1.0372e-08 -2.18133e-09)
(-5.7882e-10 -1.14803e-08 -2.47679e-09)
(-3.62546e-09 -1.39159e-08 -3.0516e-09)
(0 0 0)
(7.09195e-10 -7.04012e-10 -9.31814e-11)
(1.36176e-09 -1.37698e-09 -1.84791e-10)
(1.94905e-09 -2.03207e-09 -2.7895e-10)
(2.48322e-09 -2.70039e-09 -3.82205e-10)
(2.97281e-09 -3.40884e-09 -5.00885e-10)
(3.4222e-09 -4.18154e-09 -6.41465e-10)
(3.83067e-09 -5.04079e-09 -8.10789e-10)
(4.19056e-09 -6.00728e-09 -1.01612e-09)
(4.48441e-09 -7.09928e-09 -1.26496e-09)
(4.68049e-09 -8.33051e-09 -1.56454e-09)
(4.72703e-09 -9.7055e-09 -1.92088e-09)
(4.54667e-09 -1.12101e-08 -2.33696e-09)
(4.03926e-09 -1.27937e-08 -2.80857e-09)
(3.12265e-09 -1.43347e-08 -3.31209e-09)
(1.9214e-09 -1.55715e-08 -3.76384e-09)
(-1.81628e-09 -1.73937e-08 -4.57685e-09)
(0 0 0)
(9.28029e-10 -8.96215e-10 -1.20182e-10)
(1.7819e-09 -1.75252e-09 -2.38229e-10)
(2.55052e-09 -2.5853e-09 -3.5938e-10)
(3.25045e-09 -3.43363e-09 -4.92027e-10)
(3.89416e-09 -4.33086e-09 -6.44336e-10)
(4.48992e-09 -5.30631e-09 -8.24769e-10)
(5.04164e-09 -6.38628e-09 -1.04247e-09)
(5.54832e-09 -7.59398e-09 -1.3075e-09)
(6.00343e-09 -8.94811e-09 -1.63085e-09)
(6.39441e-09 -1.04596e-08 -2.024e-09)
(6.7029e-09 -1.21247e-08 -2.49773e-09)
(6.90629e-09 -1.3912e-08 -3.05888e-09)
(6.98096e-09 -1.57374e-08 -3.70226e-09)
(6.90685e-09 -1.7422e-08 -4.38982e-09)
(6.68938e-09 -1.86439e-08 -4.99676e-09)
(5.28051e-09 -1.96284e-08 -5.99658e-09)
(0 0 0)
(1.13222e-09 -1.05478e-09 -1.43988e-10)