/*--------------------------------*- C++ -*----------------------------------*\
| =========                 |                                                 |
| \\      /  F ield         | foam-extend: Open Source CFD                    |
|  \\    /   O peration     | Version:     3.1                                |
|   \\  /    A nd           | Web:         http://www.extend-project.de       |
|    \\/     M anipulation  |                                                 |
\*---------------------------------------------------------------------------*/
FoamFile
{
    version     2.0;
    format      ascii;
    class       surfaceVectorField;
    location    "1.6";
    object      Sf;
}
// * * * * * * * * * * * * * * * * * * * * * * * * * * * * * * * * * * * * * //

dimensions      [0 2 0 0 0 0 0];

internalField   nonuniform List<vector> 
41600
(
(0.000625411 -2.09149e-06 -1.19237e-08)
(-4.11119e-07 0.000705217 -9.83928e-09)
(1.70699e-08 1.92037e-08 0.000704413)
(-1.74149e-08 -1.95918e-08 -0.000704391)
(0.000625805 -4.03085e-06 -2.2827e-08)
(-3.93304e-07 0.000705066 -2.94234e-08)
(1.69365e-08 5.74567e-08 0.000704799)
(-1.72692e-08 -5.86073e-08 -0.000704758)
(0.000626189 -5.79949e-06 -3.2513e-08)
(-3.8327e-07 0.000704896 -4.93261e-08)
(1.78032e-08 9.65211e-08 0.000705159)
(-1.8123e-08 -9.84059e-08 -0.0007051)
(0.000626581 -7.43879e-06 -4.10746e-08)
(-3.91793e-07 0.000704767 -7.08469e-08)
(2.01021e-08 1.39124e-07 0.000705541)
(-2.0404e-08 -1.41708e-07 -0.000705461)
(0.000626998 -8.98249e-06 -4.87006e-08)
(-4.17247e-07 0.000704672 -9.56053e-08)
(2.37702e-08 1.88405e-07 0.00070596)
(-2.40293e-08 -1.91622e-07 -0.000705856)
(0.000627458 -1.04617e-05 -5.55938e-08)
(-4.59327e-07 0.000704608 -1.25388e-07)
(2.86819e-08 2.47295e-07 0.000706434)
(-2.88505e-08 -2.50997e-07 -0.000706302)
(0.000627976 -1.19001e-05 -6.12542e-08)
(-5.17841e-07 0.000704567 -1.62213e-07)
(3.46061e-08 3.18326e-07 0.000706981)
(-3.4614e-08 -3.22231e-07 -0.000706813)
(0.000628569 -1.33092e-05 -6.47651e-08)
(-5.93494e-07 0.000704538 -2.08434e-07)
(4.11584e-08 4.03341e-07 0.000707613)
(-4.08821e-08 -4.06956e-07 -0.000707401)
(0.000629256 -1.46885e-05 -6.50236e-08)
(-6.87826e-07 0.000704507 -2.6723e-07)
(4.73575e-08 5.02674e-07 0.000708345)
(-4.65768e-08 -5.05119e-07 -0.000708078)
(0.000630056 -1.6013e-05 -5.97039e-08)
(-8.01788e-07 0.000704449 -3.43078e-07)
(5.10165e-08 6.13151e-07 0.000709189)
(-4.94441e-08 -6.12978e-07 -0.000708851)
(0.000630992 -1.72326e-05 -4.59482e-08)
(-9.388e-07 0.00070434 -4.42953e-07)
(4.77378e-08 7.2433e-07 0.000710159)
(-4.50413e-08 -7.19391e-07 -0.00070973)
(0.000632092 -1.82609e-05 -2.16282e-08)
(-1.10361e-06 0.000704141 -5.79442e-07)
(2.9514e-08 8.12102e-07 0.000711272)
(-2.5321e-08 -7.99433e-07 -0.000710717)
(0.000633386 -1.89751e-05 1.12379e-08)
(-1.30003e-06 0.000703815 -7.77068e-07)
(-1.84291e-08 8.27341e-07 0.000712557)
(2.45605e-08 -8.02996e-07 -0.000711813)
(0.00063489 -1.92684e-05 3.6089e-08)
(-1.51441e-06 0.000703376 -1.08357e-06)
(-1.16106e-07 6.82739e-07 0.000714081)
(1.25619e-07 -6.40526e-07 -0.000713023)
(0.000636419 -1.91713e-05 -5.58836e-09)
(-1.55986e-06 0.00070294 -1.56701e-06)
(-2.5607e-07 2.76579e-07 0.000715888)
(2.87002e-07 -1.88953e-07 -0.000714279)
(-6.40582e-06 0.000701588 -6.38054e-07)
(-1.38643e-06 -1.50158e-06 0.000720018)
(2.81503e-06 3.1672e-06 -0.000719259)
(0.000625395 -2.06423e-06 -3.57753e-08)
(-8.0557e-07 0.000707281 -1.92907e-08)
(5.0392e-08 1.82816e-08 0.000706493)
(-5.14223e-08 -1.86644e-08 -0.000706448)
(0.000625773 -3.9803e-06 -6.86418e-08)
(-7.70306e-07 0.000706983 -5.76576e-08)
(4.99009e-08 5.45816e-08 0.000706709)
(-5.09029e-08 -5.57259e-08 -0.000706648)
(0.000626141 -5.72824e-06 -9.80879e-08)
(-7.49933e-07 0.000706645 -9.65893e-08)
(5.23525e-08 9.14025e-08 0.00070688)
(-5.33296e-08 -9.33054e-08 -0.000706803)
(0.000626516 -7.3485e-06 -1.24239e-07)
(-7.65743e-07 0.00070639 -1.38595e-07)
(5.90521e-08 1.3134e-07 0.000707111)
(-5.99843e-08 -1.33993e-07 -0.000707017)
(0.000626914 -8.87892e-06 -1.47897e-07)
(-8.14767e-07 0.000706206 -1.86866e-07)
(6.97467e-08 1.77344e-07 0.000707414)
(-7.05631e-08 -1.80706e-07 -0.000707299)
(0.000627351 -1.03502e-05 -1.69604e-07)
(-8.95524e-07 0.000706083 -2.449e-07)
(8.4096e-08 2.32126e-07 0.000707801)
(-8.46815e-08 -2.3611e-07 -0.00070766)
(0.000627841 -1.17839e-05 -1.87754e-07)
(-1.00787e-06 0.000706005 -3.16525e-07)
(1.01712e-07 2.98381e-07 0.000708276)
(-1.01827e-07 -3.02771e-07 -0.000708104)
(0.0006284 -1.31946e-05 -1.99932e-07)
(-1.1531e-06 0.000705953 -4.06416e-07)
(1.2168e-07 3.78734e-07 0.000708842)
(-1.20902e-07 -3.83013e-07 -0.000708632)
(0.000629043 -1.45872e-05 -2.02401e-07)
(-1.33257e-06 0.000705903 -5.20563e-07)
(1.41347e-07 4.74918e-07 0.000709501)
(-1.39052e-07 -4.78168e-07 -0.000709245)
(0.000629784 -1.59526e-05 -1.88783e-07)
(-1.54751e-06 0.000705816 -6.67019e-07)
(1.55144e-07 5.86629e-07 0.000710237)
(-1.50484e-07 -5.87429e-07 -0.000709927)
(0.000630636 -1.72541e-05 -1.51062e-07)
(-1.79939e-06 0.000705637 -8.58159e-07)
(1.52291e-07 7.10184e-07 0.000711031)
(-1.44241e-07 -7.06407e-07 -0.000710654)
(0.000631606 -1.84224e-05 -8.11984e-08)
(-2.08621e-06 0.000705297 -1.11473e-06)
(1.13469e-07 8.36313e-07 0.000711845)
(-1.00799e-07 -8.24878e-07 -0.000711379)
(0.000632681 -1.93436e-05 2.01012e-08)
(-2.39375e-06 0.000704713 -1.47468e-06)
(5.94623e-09 9.49079e-07 0.000712628)
(1.29648e-08 -9.25499e-07 -0.000712032)
(0.000633785 -1.98777e-05 1.19655e-07)
(-2.64863e-06 0.000703867 -2.00736e-06)
(-2.08573e-07 1.0314e-06 0.000713366)
(2.38231e-07 -9.88499e-07 -0.000712542)
(0.00063462 -1.99619e-05 8.56849e-08)
(-2.4759e-06 0.000702948 -2.81249e-06)
(-4.96821e-07 1.0863e-06 0.000714127)
(5.78295e-07 -1.01026e-06 -0.000712847)
(-5.79068e-06 0.000700482 -2.33332e-06)
(-2.10557e-06 1.89236e-06 0.000713502)
(4.01089e-06 -2.91624e-06 -0.000711912)
(0.000625364 -2.00647e-06 -5.94703e-08)
(-1.1674e-06 0.000709288 -2.79441e-08)
(8.15117e-08 1.67178e-08 0.000708521)
(-8.32089e-08 -1.70855e-08 -0.000708453)
(0.00062571 -3.86912e-06 -1.14398e-07)
(-1.11547e-06 0.000708846 -8.3506e-08)
(8.04876e-08 4.97911e-08 0.000708553)
(-8.21479e-08 -5.08886e-08 -0.000708472)
(0.000626046 -5.56727e-06 -1.63743e-07)
(-1.08444e-06 0.000708345 -1.39817e-07)
(8.42057e-08 8.30837e-08 0.00070852)
(-8.58282e-08 -8.489e-08 -0.000708427)
(0.000626388 -7.14373e-06 -2.07971e-07)
(-1.10578e-06 0.000707969 -2.00452e-07)
(9.48177e-08 1.18948e-07 0.000708587)
(-9.63743e-08 -1.21435e-07 -0.000708481)
(0.000626749 -8.6378e-06 -2.49193e-07)
(-1.17458e-06 0.000707703 -2.70038e-07)
(1.11788e-07 1.60023e-07 0.000708762)
(-1.13202e-07 -1.63184e-07 -0.000708637)
(0.000627142 -1.00763e-05 -2.87709e-07)
(-1.2875e-06 0.000707526 -3.53544e-07)
(1.34773e-07 2.0887e-07 0.000709043)
(-1.35862e-07 -2.12665e-07 -0.000708896)
(0.000627579 -1.14826e-05 -3.20912e-07)
(-1.44426e-06 0.000707416 -4.56293e-07)
(1.63597e-07 2.68305e-07 0.000709424)
(-1.63937e-07 -2.72547e-07 -0.000709251)
(0.000628071 -1.28796e-05 -3.45756e-07)
(-1.64607e-06 0.000707354 -5.84763e-07)
(1.97257e-07 3.41376e-07 0.000709901)
(-1.96149e-07 -3.4568e-07 -0.000709698)
(0.000628628 -1.4281e-05 -3.55846e-07)
(-1.89361e-06 0.000707308 -7.47104e-07)
(2.32667e-07 4.3153e-07 0.00071046)
(-2.29124e-07 -4.35209e-07 -0.000710223)
(0.000629261 -1.5698e-05 -3.41877e-07)
(-2.18725e-06 0.000707234 -9.54115e-07)
(2.63322e-07 5.42885e-07 0.000711073)
(-2.55946e-07 -5.44759e-07 -0.0007108)
(0.00062997 -1.71236e-05 -2.91093e-07)
(-2.52211e-06 0.000707061 -1.22156e-06)
(2.77043e-07 6.80679e-07 0.000711685)
(-2.6398e-07 -6.78747e-07 -0.000711372)
(0.000630744 -1.85236e-05 -1.87656e-07)
(-2.8806e-06 0.000706688 -1.57403e-06)
(2.52682e-07 8.5275e-07 0.000712209)
(-2.31598e-07 -8.43816e-07 -0.000711854)
(0.000631535 -1.98215e-05 -2.12985e-08)
(-3.21757e-06 0.00070599 -2.05364e-06)
(1.58375e-07 1.07347e-06 0.000712519)
(-1.26002e-07 -1.05265e-06 -0.000712106)
(0.000632234 -2.08777e-05 1.88148e-07)
(-3.39789e-06 0.000704884 -2.73425e-06)
(-3.53709e-08 1.36945e-06 0.000712507)
(8.63077e-08 -1.32969e-06 -0.00071199)
(0.000632584 -2.15443e-05 3.12773e-07)
(-2.93649e-06 0.000703554 -3.73467e-06)
(-2.83897e-07 1.7647e-06 0.00071229)
(3.94374e-07 -1.70413e-06 -0.000711493)
(-6.75849e-06 0.0007019 -2.86771e-06)
(-9.14101e-07 2.57829e-06 0.000710633)
(1.56372e-06 -2.85619e-06 -0.000711155)
(0.000625317 -1.91698e-06 -8.2144e-08)
(-1.48226e-06 0.000711206 -3.54213e-08)
(1.09438e-07 1.46728e-08 0.000710467)
(-1.11758e-07 -1.50052e-08 -0.000710378)
(0.000625619 -3.69374e-06 -1.58527e-07)
(-1.41514e-06 0.000710624 -1.05855e-07)
(1.07819e-07 4.36803e-08 0.000710303)
(-1.10086e-07 -4.46659e-08 -0.000710204)
(0.000625911 -5.31318e-06 -2.27066e-07)
(-1.37384e-06 0.000709966 -1.77162e-07)
(1.12516e-07 7.27917e-08 0.000710055)
(-1.14721e-07 -7.44069e-08 -0.000709949)
(0.000626205 -6.8164e-06 -2.89672e-07)
(-1.39815e-06 0.000709474 -2.53833e-07)
(1.26406e-07 1.0394e-07 0.000709949)
(-1.28544e-07 -1.06186e-07 -0.000709833)
(0.000626513 -8.23546e-06 -3.49706e-07)
(-1.48054e-06 0.000709125 -3.41663e-07)
(1.48746e-07 1.39368e-07 0.000709982)
(-1.50754e-07 -1.42271e-07 -0.00070985)
(0.000626844 -9.60017e-06 -4.06414e-07)
(-1.61664e-06 0.000708894 -4.46622e-07)
(1.79391e-07 1.81388e-07 0.000710139)
(-1.80997e-07 -1.84928e-07 -0.000709989)
(0.000627206 -1.09425e-05 -4.57186e-07)
(-1.80525e-06 0.000708762 -5.75126e-07)
(2.18407e-07 2.32551e-07 0.000710412)
(-2.19063e-07 -2.36627e-07 -0.000710242)
(0.000627605 -1.22928e-05 -4.99385e-07)
(-2.04649e-06 0.000708709 -7.3492e-07)
(2.65247e-07 2.95984e-07 0.000710789)
(-2.641e-07 -3.00402e-07 -0.000710596)
(0.000628047 -1.36786e-05 -5.2525e-07)
(-2.34009e-06 0.000708698 -9.35636e-07)
(3.18022e-07 3.76344e-07 0.000711244)
(-3.13736e-07 -3.80672e-07 -0.000711029)
(0.000628534 -1.51245e-05 -5.23692e-07)
(-2.68397e-06 0.000708684 -1.18989e-06)
(3.71927e-07 4.81032e-07 0.000711739)
(-3.62541e-07 -4.84349e-07 -0.000711505)
(0.000629064 -1.66582e-05 -4.78403e-07)
(-3.0687e-06 0.000708595 -1.51555e-06)
(4.17719e-07 6.2181e-07 0.000712205)
(-4.00413e-07 -6.22358e-07 -0.000711957)
(0.000629618 -1.82967e-05 -3.66041e-07)
(-3.4642e-06 0.000708322 -1.9395e-06)
(4.40122e-07 8.18154e-07 0.000712531)
(-4.11153e-07 -8.1279e-07 -0.000712277)
(0.000630152 -2.00255e-05 -1.59034e-07)
(-3.7967e-06 0.000707702 -2.50506e-06)
(4.15029e-07 1.09875e-06 0.000712543)
(-3.69205e-07 -1.08241e-06 -0.000712299)
(0.000630575 -2.17345e-05 1.5536e-07)
(-3.89313e-06 0.000706559 -3.28692e-06)
(3.17513e-07 1.49333e-06 0.000712065)
(-2.45896e-07 -1.45946e-06 -0.000711827)
(0.000630733 -2.31535e-05 5.11262e-07)
(-3.22036e-06 0.000704923 -4.42308e-06)
(1.49106e-07 1.98744e-06 0.000711179)
(-2.28121e-08 -1.93727e-06 -0.000710846)
(-7.12804e-06 0.000704294 -3.30172e-06)
(6.65223e-08 2.75896e-06 0.000709196)
(-1.03684e-07 -3.14809e-06 -0.000711013)
(0.000625259 -1.79275e-06 -1.03288e-07)
(-1.73878e-06 0.000712999 -4.1495e-08)
(1.33739e-07 1.26179e-08 0.000712299)
(-1.3662e-07 -1.29171e-08 -0.00071219)
(0.000625505 -3.45103e-06 -1.99709e-07)
(-1.65838e-06 0.000712283 -1.23931e-07)
(1.31558e-07 3.75318e-08 0.00071193)
(-1.3437e-07 -3.84211e-08 -0.000711816)
(0.000625742 -4.95975e-06 -2.86734e-07)
(-1.60735e-06 0.000711477 -2.07245e-07)
(1.36957e-07 6.23816e-08 0.000711463)
(-1.39704e-07 -6.38645e-08 -0.000711346)
(0.000625978 -6.35327e-06 -3.67945e-07)
(-1.63131e-06 0.00071087 -2.96688e-07)
(1.53414e-07 8.86668e-08 0.000711175)
(-1.56125e-07 -9.07778e-08 -0.000711051)
(0.00062622 -7.66225e-06 -4.46343e-07)
(-1.72072e-06 0.000710437 -3.98776e-07)
(1.80109e-07 1.1819e-07 0.00071105)
(-1.82709e-07 -1.20964e-07 -0.000710915)
(0.000626476 -8.92084e-06 -5.21025e-07)
(-1.87014e-06 0.000710156 -5.20066e-07)
(2.17052e-07 1.52771e-07 0.000711072)
(-2.19223e-07 -1.56233e-07 -0.000710924)
(0.000626749 -1.01612e-05 -5.91075e-07)
(-2.07661e-06 0.000710007 -6.67707e-07)
(2.64582e-07 1.94461e-07 0.000711228)
(-2.65724e-07 -1.98622e-07 -0.000711066)
(0.000627039 -1.14148e-05 -6.54617e-07)
(-2.33813e-06 0.000709967 -8.50192e-07)
(3.23123e-07 2.46149e-07 0.0007115)
(-3.22277e-07 -2.50956e-07 -0.000711322)
(0.000627347 -1.27191e-05 -7.04416e-07)
(-2.65237e-06 0.000710007 -1.07784e-06)
(3.92784e-07 3.12553e-07 0.000711857)
(-3.8833e-07 -3.17792e-07 -0.000711665)
(0.000627668 -1.4118e-05 -7.29514e-07)
(-3.01545e-06 0.000710088 -1.36414e-06)
(4.72047e-07 4.01682e-07 0.000712254)
(-4.6152e-07 -4.06796e-07 -0.000712055)
(0.000627997 -1.56715e-05 -7.13501e-07)
(-3.41805e-06 0.000710152 -1.72865e-06)
(5.56994e-07 5.26989e-07 0.000712628)
(-5.36615e-07 -5.30716e-07 -0.000712431)
(0.000628325 -1.7457e-05 -6.2738e-07)
(-3.82827e-06 0.000710107 -2.20062e-06)
(6.41684e-07 7.10783e-07 0.000712874)
(-6.05939e-07 -7.10339e-07 -0.000712699)
(0.000628632 -1.95328e-05 -4.26959e-07)
(-4.16177e-06 0.000709768 -2.82606e-06)
(7.09949e-07 9.85694e-07 0.00071281)
(-6.51511e-07 -9.76102e-07 -0.00071269)
(0.000628873 -2.18413e-05 -5.95888e-08)
(-4.22549e-06 0.000708842 -3.68293e-06)
(7.27268e-07 1.38122e-06 0.000712186)
(-6.35884e-07 -1.35566e-06 -0.000712157)
(0.000628947 -2.39869e-05 5.28847e-07)
(-3.43376e-06 0.000707027 -4.92034e-06)
(6.14005e-07 1.86987e-06 0.000710841)
(-4.74311e-07 -1.82834e-06 -0.000710932)
(-7.37034e-06 0.000707574 -3.52234e-06)
(9.05119e-07 2.53068e-06 0.00070893)
(-1.6342e-06 -2.78796e-06 -0.00071224)
(0.000625193 -1.63609e-06 -1.22996e-07)
(-1.92797e-06 0.000714635 -4.59408e-08)
(1.54488e-07 1.06577e-08 0.000713984)
(-1.57876e-07 -1.09288e-08 -0.000713857)
(0.000625374 -3.14624e-06 -2.37634e-07)
(-1.83688e-06 0.000713794 -1.37107e-07)
(1.51713e-07 3.16029e-08 0.000713408)
(-1.55023e-07 -3.24152e-08 -0.00071328)
(0.000625547 -4.51344e-06 -3.4205e-07)
(-1.77689e-06 0.000712845 -2.29033e-07)
(1.57444e-07 5.22037e-08 0.00071272)
(-1.60707e-07 -5.35649e-08 -0.000712593)
(0.000625717 -5.76987e-06 -4.40189e-07)
(-1.79797e-06 0.000712128 -3.274e-07)
(1.75683e-07 7.35362e-08 0.000712242)
(-1.78942e-07 -7.54702e-08 -0.000712114)
(0.000625888 -6.94633e-06 -5.34012e-07)
(-1.88874e-06 0.000711616 -4.39076e-07)
(2.05527e-07 9.68947e-08 0.000711954)
(-2.08716e-07 -9.94542e-08 -0.00071182)
(0.000626062 -8.0691e-06 -6.25159e-07)
(-2.04145e-06 0.000711282 -5.70974e-07)
(2.47063e-07 1.23552e-07 0.000711835)
(-2.49865e-07 -1.26818e-07 -0.000711693)
(0.000626238 -9.16172e-06 -7.14883e-07)
(-2.25083e-06 0.000711104 -7.30535e-07)
(3.00935e-07 1.54968e-07 0.000711863)
(-3.02725e-07 -1.59025e-07 -0.000711711)
(0.000626413 -1.02526e-05 -8.01656e-07)
(-2.51251e-06 0.000711063 -9.26271e-07)
(3.68544e-07 1.93201e-07 0.000712017)
(-3.68325e-07 -1.9815e-07 -0.000711854)
(0.000626578 -1.138e-05 -8.80819e-07)
(-2.8216e-06 0.000711141 -1.16843e-06)
(4.51873e-07 2.41665e-07 0.000712268)
(-4.47873e-07 -2.47595e-07 -0.000712098)
(0.000626724 -1.26016e-05 -9.43666e-07)
(-3.17245e-06 0.000711316 -1.47049e-06)
(5.52691e-07 3.06284e-07 0.000712577)
(-5.42078e-07 -3.13114e-07 -0.000712408)
(0.000626843 -1.40032e-05 -9.77104e-07)
(-3.55877e-06 0.000711561 -1.85261e-06)
(6.72325e-07 3.97113e-07 0.000712899)
(-6.50546e-07 -4.04311e-07 -0.000712741)
(0.000626933 -1.57055e-05 -9.53734e-07)
(-3.95826e-06 0.000711815 -2.3466e-06)
(8.13878e-07 5.31206e-07 0.000713156)
(-7.73691e-07 -5.37182e-07 -0.000713033)
(0.00062701 -1.78494e-05 -8.25212e-07)
(-4.30706e-06 0.000711913 -3.00554e-06)
(9.71636e-07 7.3713e-07 0.000713196)
(-9.03122e-07 -7.38037e-07 -0.000713145)
(0.000627107 -2.05219e-05 -5.05117e-07)
(-4.43328e-06 0.000711502 -3.92152e-06)
(1.10225e-06 1.04898e-06 0.000712741)
(-9.92124e-07 -1.03721e-06 -0.000712822)
(0.000627212 -2.33669e-05 2.39017e-07)
(-3.69347e-06 0.000709844 -5.2547e-06)
(1.04546e-06 1.46234e-06 0.000711257)
(-8.89958e-07 -1.43378e-06 -0.000711667)
(-7.73102e-06 0.000712327 -3.64008e-06)
(1.64087e-06 2.06033e-06 0.000710098)
(-2.88405e-06 -2.22688e-06 -0.000714963)
(0.00062512 -1.45289e-06 -1.40379e-07)
(-2.04367e-06 0.000716088 -4.85684e-08)
(1.71832e-07 8.77292e-09 0.000715495)
(-1.75672e-07 -9.01033e-09 -0.000715352)
(0.000625232 -2.79033e-06 -2.7087e-07)
(-1.94529e-06 0.000715132 -1.44846e-07)
(1.68352e-07 2.58787e-08 0.000714714)
(-1.7211e-07 -2.65868e-08 -0.000714576)
(0.000625337 -3.99516e-06 -3.90387e-07)
(-1.87821e-06 0.000714051 -2.4172e-07)
(1.73992e-07 4.23277e-08 0.000713807)
(-1.7772e-07 -4.35127e-08 -0.000713675)
(0.000625437 -5.09489e-06 -5.01975e-07)
(-1.89488e-06 0.00071323 -3.4499e-07)
(1.9317e-07 5.87929e-08 0.000713141)
(-1.96926e-07 -6.04876e-08 -0.000713012)
(0.000625534 -6.11067e-06 -6.08173e-07)
(-1.98175e-06 0.000712634 -4.61531e-07)
(2.24844e-07 7.60711e-08 0.000712686)
(-2.28598e-07 -7.83417e-08 -0.000712558)
(0.000625625 -7.05799e-06 -7.1407e-07)
(-2.12858e-06 0.000712232 -5.98346e-07)
(2.6911e-07 9.4838e-08 0.000712414)
(-2.72562e-07 -9.7789e-08 -0.000712281)
(0.000625704 -7.95328e-06 -8.21689e-07)
(-2.32748e-06 0.000712003 -7.62625e-07)
(3.26775e-07 1.1577e-07 0.000712298)
(-3.29315e-07 -1.1955e-07 -0.000712158)
(0.000625763 -8.81711e-06 -9.30374e-07)
(-2.57136e-06 0.000711931 -9.62185e-07)
(3.99755e-07 1.39681e-07 0.000712313)
(-4.00428e-07 -1.4451e-07 -0.000712168)
(0.000625791 -9.67796e-06 -1.03834e-06)
(-2.852e-06 0.000712008 -1.20638e-06)
(4.91102e-07 1.6777e-07 0.000712434)
(-4.8813e-07 -1.73959e-07 -0.000712288)
(0.000625769 -1.05796e-05 -1.14043e-06)
(-3.16023e-06 0.000712226 -1.50727e-06)
(6.04492e-07 2.02011e-07 0.000712635)
(-5.9489e-07 -2.09932e-07 -0.000712496)
(0.000625679 -1.15976e-05 -1.22987e-06)
(-3.48953e-06 0.000712589 -1.88337e-06)
(7.44287e-07 2.45682e-07 0.00071289)
(-7.23226e-07 -2.55806e-07 -0.00071277)
(0.000625509 -1.28438e-05 -1.29122e-06)
(-3.82896e-06 0.000713074 -2.36625e-06)
(9.19084e-07 3.04257e-07 0.000713148)
(-8.7851e-07 -3.17158e-07 -0.000713067)
(0.000625286 -1.45023e-05 -1.29304e-06)
(-4.15632e-06 0.000713587 -3.01526e-06)
(1.13377e-06 3.89463e-07 0.000713307)
(-1.06136e-06 -4.04844e-07 -0.000713295)
(0.000625129 -1.68559e-05 -1.15206e-06)
(-4.39948e-06 0.00071387 -3.95008e-06)
(1.35216e-06 5.28351e-07 0.000713168)
(-1.22943e-06 -5.42044e-07 -0.00071328)
(0.000625269 -1.99707e-05 -4.71623e-07)
(-4.00611e-06 0.000712962 -5.38455e-06)
(1.38503e-06 7.69392e-07 0.000711989)
(-1.21172e-06 -7.72428e-07 -0.000712539)
(-9.07112e-06 0.000720859 -3.63664e-06)
(2.43426e-06 1.37183e-06 0.000714037)
(-4.07093e-06 -1.50659e-06 -0.000720693)
(0.000625043 -1.2468e-06 -1.54631e-07)
(1.85934e-07 7.00269e-09 0.000716807)
(-1.90166e-07 -7.20633e-09 -0.000716652)
(-2.08254e-06 0.000717335 -4.93563e-08)
(0.000625083 -2.39499e-06 -2.97925e-07)
(1.81644e-07 2.05243e-08 0.000715832)
(-1.85782e-07 -2.11244e-08 -0.000715686)
(-1.98123e-06 0.000716281 -1.47083e-07)
(0.000625119 -3.42515e-06 -4.29137e-07)
(1.86763e-07 3.31125e-08 0.000714717)
(-1.90888e-07 -3.41086e-08 -0.000714582)
(-1.91017e-06 0.000715082 -2.45161e-07)
(0.00062515 -4.35184e-06 -5.50977e-07)
(2.06061e-07 4.50463e-08 0.000713865)
(-2.10259e-07 -4.64777e-08 -0.000713739)
(-1.92173e-06 0.000714158 -3.4936e-07)
(0.000625174 -5.18432e-06 -6.67867e-07)
(2.38265e-07 5.66497e-08 0.000713238)
(-2.42529e-07 -5.85809e-08 -0.000713116)
(-2.00074e-06 0.000713468 -4.66411e-07)
(0.000625184 -5.93106e-06 -7.85826e-07)
(2.83329e-07 6.7953e-08 0.0007128)
(-2.874e-07 -7.04884e-08 -0.000712678)
(-2.13501e-06 0.000712981 -6.02904e-07)
(0.000625174 -6.60065e-06 -9.06932e-07)
(3.42009e-07 7.87663e-08 0.00071252)
(-3.45338e-07 -8.20926e-08 -0.000712397)
(-2.31399e-06 0.000712676 -7.65268e-07)
(0.000625131 -7.20054e-06 -1.03224e-06)
(4.16167e-07 8.86206e-08 0.000712374)
(-4.17856e-07 -9.30024e-08 -0.00071225)
(-2.52683e-06 0.000712536 -9.60181e-07)
(0.000625038 -7.73975e-06 -1.16126e-06)
(5.08772e-07 9.64591e-08 0.000712334)
(-5.07147e-07 -1.02286e-07 -0.000712217)
(-2.76069e-06 0.000712553 -1.19522e-06)
(0.00062487 -8.23107e-06 -1.29269e-06)
(6.2346e-07 1.00245e-07 0.000712378)
(-6.15719e-07 -1.08228e-07 -0.000712275)
(-3.00001e-06 0.000712725 -1.47959e-06)
(0.000624589 -8.69164e-06 -1.42631e-06)
(7.64444e-07 9.63034e-08 0.000712482)
(-7.46158e-07 -1.07812e-07 -0.000712405)
(-3.22698e-06 0.000713061 -1.82644e-06)
(0.000624141 -9.14388e-06 -1.55958e-06)
(9.38724e-07 7.64497e-08 0.000712578)
(-9.02599e-07 -9.42732e-08 -0.000712554)
(-3.4163e-06 0.000713544 -2.25676e-06)
(0.00062344 -9.64244e-06 -1.68619e-06)
(1.1501e-06 2.28841e-08 0.000712521)
(-1.08462e-06 -5.28266e-08 -0.000712602)
(-3.52151e-06 0.000714116 -2.80746e-06)
(0.000622353 -1.03308e-05 -1.76888e-06)
(1.36617e-06 -9.36039e-08 0.000711968)
(-1.25401e-06 3.89273e-08 -0.000712288)
(-3.42397e-06 0.000714613 -3.54734e-06)
(0.000620732 -1.17845e-05 -1.48391e-06)
(1.42549e-06 -2.80871e-07 0.000709848)
(-1.26631e-06 1.82846e-07 -0.000710942)
(-2.54491e-06 0.000714513 -4.57485e-06)
(3.46892e-06 2.19293e-07 0.000722558)
(-5.36495e-06 -3.84711e-07 -0.00073145)
(-1.42154e-05 0.000738312 -3.05377e-06)
(0.000625429 -2.11302e-06 -9.56098e-09)
(-4.27773e-07 0.000705239 -8.93796e-09)
(1.60874e-08 1.80983e-08 0.000704431)
(0.00062584 -4.07223e-06 -1.83805e-08)
(-4.09795e-07 0.000705088 -2.67132e-08)
(1.59726e-08 5.41618e-08 0.000704834)
(0.000626241 -5.85831e-06 -2.59412e-08)
(-4.00378e-07 0.000704917 -4.46656e-08)
(1.68177e-08 9.10337e-08 0.000705212)
(0.000626653 -7.51264e-06 -3.2103e-08)
(-4.10803e-07 0.000704787 -6.38289e-08)
(1.90479e-08 1.31343e-07 0.000705611)
(0.000627093 -9.06935e-06 -3.70759e-08)
(-4.39465e-07 0.000704692 -8.55047e-08)
(2.26011e-08 1.78125e-07 0.00070605)
(0.000627581 -1.05595e-05 -4.051e-08)
(-4.86137e-07 0.000704628 -1.1094e-07)
(2.73854e-08 2.34243e-07 0.000706549)
(0.000628133 -1.20054e-05 -4.15689e-08)
(-5.50799e-07 0.000704587 -1.41431e-07)
(3.32298e-08 3.02266e-07 0.000707123)
(0.000628769 -1.34168e-05 -3.92613e-08)
(-6.34313e-07 0.000704556 -1.78308e-07)
(3.97815e-08 3.84181e-07 0.000707789)
(0.000629508 -1.47909e-05 -3.21155e-08)
(-7.38616e-07 0.000704521 -2.22698e-07)
(4.6178e-08 4.80625e-07 0.000708561)
(0.000630374 -1.6098e-05 -1.78533e-08)
(-8.65203e-07 0.000704456 -2.75482e-07)
(5.06104e-08 5.8928e-07 0.00070945)
(0.000631391 -1.72836e-05 5.43653e-09)
(-1.01871e-06 0.000704333 -3.3701e-07)
(4.93562e-08 7.01727e-07 0.000710473)
(0.00063259 -1.82585e-05 3.85203e-08)
(-1.2055e-06 0.000704114 -4.05165e-07)
(3.60934e-08 7.98474e-07 0.000711644)
(0.000634002 -1.89063e-05 7.71446e-08)
(-1.43106e-06 0.000703758 -4.69535e-07)
(8.02446e-10 8.42073e-07 0.000712988)
(0.000635631 -1.91505e-05 1.06592e-07)
(-1.68015e-06 0.000703277 -4.96447e-07)
(-6.52711e-08 7.7441e-07 0.000714548)
(0.000637276 -1.90973e-05 1.07335e-07)
(-1.75672e-06 0.000702802 -4.19445e-07)
(-1.44274e-07 5.46809e-07 0.000716307)
(-5.07853e-06 0.000702321 -6.3238e-08)
(-6.16059e-07 -2.75463e-07 0.000720282)
(0.000625413 -2.08597e-06 -2.88898e-08)
(-8.38172e-07 0.000707326 -1.75453e-08)
(4.74789e-08 1.7215e-08 0.000706531)
(0.000625809 -4.02234e-06 -5.56382e-08)
(-8.02521e-07 0.000707027 -5.23739e-08)
(4.70305e-08 5.13885e-08 0.000706761)
(0.000626195 -5.78858e-06 -7.87753e-08)
(-7.83307e-07 0.000706688 -8.74459e-08)
(4.94096e-08 8.6057e-08 0.000706946)
(0.00062659 -7.42508e-06 -9.80273e-08)
(-8.02754e-07 0.000706431 -1.24816e-07)
(5.58879e-08 1.23715e-07 0.000707191)
(0.000627012 -8.97011e-06 -1.13753e-07)
(-8.5802e-07 0.000706247 -1.67043e-07)
(6.6245e-08 1.67226e-07 0.000707512)
(0.000627477 -1.04543e-05 -1.25033e-07)
(-9.47781e-07 0.000706125 -2.16691e-07)
(8.0236e-08 2.19277e-07 0.000707918)
(0.000628003 -1.18981e-05 -1.29511e-07)
(-1.07197e-06 0.000706047 -2.76252e-07)
(9.75811e-08 2.82556e-07 0.000708416)
(0.000628605 -1.33143e-05 -1.24149e-07)
(-1.23244e-06 0.000705991 -3.48097e-07)
(1.17491e-07 3.59736e-07 0.000709007)
(0.000629301 -1.47046e-05 -1.0409e-07)
(-1.4311e-06 0.000705933 -4.34548e-07)
(1.37741e-07 4.52873e-07 0.000709692)
(0.000630108 -1.60561e-05 -6.24595e-08)
(-1.67002e-06 0.000705832 -5.37379e-07)
(1.53568e-07 5.62245e-07 0.000710457)
(0.000631038 -1.73284e-05 6.07565e-09)
(-1.95211e-06 0.000705631 -6.56573e-07)
(1.5558e-07 6.84824e-07 0.000711282)
(0.000632094 -1.8445e-05 1.06586e-07)
(-2.27657e-06 0.000705254 -7.86594e-07)
(1.2828e-07 8.12457e-07 0.000712126)
(0.00063325 -1.9287e-05 2.31878e-07)
(-2.62939e-06 0.000704619 -9.05995e-07)
(4.84827e-08 9.30658e-07 0.000712939)
(0.000634391 -1.97187e-05 3.47066e-07)
(-2.92833e-06 0.000703719 -9.51755e-07)
(-1.01409e-07 1.02136e-06 0.000713706)
(0.000635202 -1.97017e-05 4.02478e-07)
(-2.79074e-06 0.000702794 -8.11127e-07)
(-2.74243e-07 1.077e-06 0.000714463)
(-4.4118e-06 0.000700237 -8.14365e-08)
(-9.50578e-07 1.42497e-06 0.000713814)
(0.000625381 -2.0281e-06 -4.84767e-08)
(-1.21455e-06 0.000709355 -2.54345e-08)
(7.67652e-08 1.5722e-08 0.000708578)
(0.000625745 -3.91071e-06 -9.31792e-08)
(-1.16204e-06 0.000708913 -7.58862e-08)
(7.58153e-08 4.68337e-08 0.000708621)
(0.000626099 -5.62675e-06 -1.32197e-07)
(-1.13267e-06 0.000708409 -1.26677e-07)
(7.94261e-08 7.819e-08 0.000708598)
(0.000626461 -7.2197e-06 -1.65535e-07)
(-1.1592e-06 0.000708031 -1.8081e-07)
(8.96702e-08 1.12044e-07 0.000708676)
(0.000626846 -8.72988e-06 -1.93605e-07)
(-1.23697e-06 0.000707766 -2.41941e-07)
(1.06089e-07 1.50921e-07 0.000708865)
(0.000627267 -1.01834e-05 -2.14908e-07)
(-1.36269e-06 0.00070759 -3.13701e-07)
(1.28482e-07 1.97303e-07 0.000709161)
(0.000627738 -1.16026e-05 -2.25683e-07)
(-1.53613e-06 0.00070748 -3.99499e-07)
(1.56783e-07 2.53964e-07 0.000709558)
(0.000628272 -1.30094e-05 -2.20807e-07)
(-1.75932e-06 0.000707415 -5.02592e-07)
(1.9023e-07 3.23982e-07 0.000710051)
(0.000628881 -1.44149e-05 -1.91989e-07)
(-2.03357e-06 0.00070736 -6.26169e-07)
(2.26327e-07 4.10851e-07 0.000710623)
(0.000629575 -1.58277e-05 -1.28469e-07)
(-2.36018e-06 0.000707269 -7.72544e-07)
(2.59271e-07 5.18521e-07 0.000711244)
(0.000630357 -1.72345e-05 -1.9524e-08)
(-2.73507e-06 0.000707067 -9.4092e-07)
(2.78196e-07 6.5174e-07 0.00071186)
(0.000631208 -1.85926e-05 1.48462e-07)
(-3.14011e-06 0.000706648 -1.12174e-06)
(2.65186e-07 8.16487e-07 0.000712377)
(0.000632069 -1.98103e-05 3.76919e-07)
(-3.5266e-06 0.000705889 -1.28281e-06)
(1.94715e-07 1.02036e-06 0.000712667)
(0.000632799 -2.07268e-05 6.32865e-07)
(-3.74282e-06 0.000704734 -1.33668e-06)
(4.87851e-08 1.27121e-06 0.000712636)
(0.000633162 -2.11842e-05 8.48263e-07)
(-3.31113e-06 0.000703456 -1.13983e-06)
(-1.26669e-07 1.56024e-06 0.000712404)
(-4.81089e-06 0.000701091 -2.38718e-07)
(-4.10263e-07 1.9996e-06 0.000710719)
(0.000625334 -1.93704e-06 -6.74123e-08)
(-1.54194e-06 0.000711293 -3.22792e-08)
(1.03035e-07 1.38061e-08 0.000710542)
(0.000625652 -3.73291e-06 -1.29507e-07)
(-1.47414e-06 0.000710711 -9.63434e-08)
(1.01535e-07 4.11024e-08 0.000710385)
(0.000625961 -5.36957e-06 -1.84067e-07)
(-1.43488e-06 0.00071005 -1.60851e-07)
(1.06116e-07 6.85215e-08 0.000710144)
(0.000626274 -6.88974e-06 -2.31952e-07)
(-1.46571e-06 0.000709557 -2.29535e-07)
(1.1952e-07 9.7913e-08 0.000710046)
(0.000626604 -8.32615e-06 -2.73949e-07)
(-1.55928e-06 0.000709211 -3.06998e-07)
(1.411e-07 1.31408e-07 0.000710089)
(0.000626961 -9.70718e-06 -3.07451e-07)
(-1.71099e-06 0.000708982 -3.97582e-07)
(1.70878e-07 1.71217e-07 0.000710256)
(0.000627354 -1.10649e-05 -3.27532e-07)
(-1.92e-06 0.00070885 -5.0533e-07)
(2.09084e-07 2.1984e-07 0.000710537)
(0.000627792 -1.24292e-05 -3.27383e-07)
(-2.18713e-06 0.000708795 -6.34189e-07)
(2.55436e-07 2.80357e-07 0.00071092)
(0.000628281 -1.38269e-05 -2.96239e-07)
(-2.51281e-06 0.000708776 -7.87808e-07)
(3.08462e-07 3.57179e-07 0.000711374)
(0.000628824 -1.52803e-05 -2.20139e-07)
(-2.89591e-06 0.000708746 -9.68714e-07)
(3.63773e-07 4.57141e-07 0.000711859)
(0.000629421 -1.6812e-05 -8.03266e-08)
(-3.32726e-06 0.000708629 -1.1755e-06)
(4.13009e-07 5.90924e-07 0.0007123)
(0.000630055 -1.84309e-05 1.46911e-07)
(-3.77464e-06 0.000708311 -1.39539e-06)
(4.41431e-07 7.74694e-07 0.000712577)
(0.000630675 -2.00999e-05 4.83564e-07)
(-4.15632e-06 0.000707629 -1.58711e-06)
(4.24532e-07 1.02808e-06 0.000712511)
(0.000631192 -2.16742e-05 9.20296e-07)
(-4.27805e-06 0.00070644 -1.64389e-06)
(3.35616e-07 1.3614e-06 0.000711935)
(0.000631489 -2.28504e-05 1.37302e-06)
(-3.6332e-06 0.000704882 -1.40007e-06)
(1.74299e-07 1.73737e-06 0.000710986)
(-4.81478e-06 0.000702827 -4.00234e-07)
(8.50014e-08 2.18599e-06 0.000708787)
(0.000625274 -1.81146e-06 -8.49673e-08)
(-1.80859e-06 0.000713105 -3.78413e-08)
(1.25892e-07 1.18617e-08 0.00071239)
(0.000625535 -3.4877e-06 -1.63909e-07)
(-1.72737e-06 0.00071239 -1.12958e-07)
(1.23857e-07 3.52725e-08 0.000712026)
(0.000625787 -5.01336e-06 -2.33846e-07)
(-1.67862e-06 0.000711579 -1.88531e-07)
(1.29122e-07 5.86153e-08 0.000711561)
(0.00062604 -6.42386e-06 -2.96639e-07)
(-1.71008e-06 0.000710973 -2.68839e-07)
(1.44984e-07 8.33212e-08 0.000711277)
(0.000626302 -7.74869e-06 -3.52906e-07)
(-1.81207e-06 0.000710543 -3.59104e-07)
(1.70725e-07 1.11105e-07 0.000711158)
(0.00062658 -9.02218e-06 -3.98919e-07)
(-1.97894e-06 0.000710264 -4.64102e-07)
(2.0653e-07 1.43699e-07 0.000711185)
(0.00062688 -1.02785e-05 -4.29987e-07)
(-2.2082e-06 0.000710118 -5.88312e-07)
(2.52956e-07 1.8309e-07 0.000711342)
(0.000627204 -1.15495e-05 -4.38794e-07)
(-2.49841e-06 0.00071008 -7.36057e-07)
(3.10596e-07 2.32035e-07 0.000711611)
(0.000627552 -1.28731e-05 -4.131e-07)
(-2.84783e-06 0.000710118 -9.11199e-07)
(3.79739e-07 2.94942e-07 0.000711955)
(0.000627923 -1.42922e-05 -3.35719e-07)
(-3.25371e-06 0.000710188 -1.11638e-06)
(4.58994e-07 3.79222e-07 0.000712324)
(0.000628316 -1.58658e-05 -1.81373e-07)
(-3.70728e-06 0.000710233 -1.35014e-06)
(5.44476e-07 4.96947e-07 0.000712649)
(0.000628728 -1.76616e-05 8.66408e-08)
(-4.17329e-06 0.00071015 -1.59805e-06)
(6.28052e-07 6.67275e-07 0.000712808)
(0.000629152 -1.97168e-05 5.18609e-07)
(-4.55698e-06 0.000709755 -1.8128e-06)
(6.866e-07 9.15188e-07 0.000712604)
(0.000629569 -2.19336e-05 1.14307e-06)
(-4.64122e-06 0.000708784 -1.87428e-06)
(6.73373e-07 1.25432e-06 0.000711792)
(0.000629912 -2.38419e-05 1.86841e-06)
(-3.87527e-06 0.00070702 -1.59984e-06)
(5.12928e-07 1.64026e-06 0.000710316)
(-4.72403e-06 0.000705358 -5.46864e-07)
(5.34169e-07 2.05977e-06 0.000708003)
(0.000625206 -1.65353e-06 -1.01345e-07)
(-2.00515e-06 0.00071476 -4.19242e-08)
(1.45372e-07 9.98867e-09 0.00071409)