/*--------------------------------*- C++ -*----------------------------------*\
| =========                 |                                                 |
| \\      /  F ield         | foam-extend: Open Source CFD                    |
|  \\    /   O peration     | Version:     3.1                                |
|   \\  /    A nd           | Web:         http://www.extend-project.de       |
|    \\/     M anipulation  |                                                 |
\*---------------------------------------------------------------------------*/
FoamFile
{
    version     2.0;
    format      ascii;
    class       volVectorField;
    location    "1.6";
    object      U;
}
// * * * * * * * * * * * * * * * * * * * * * * * * * * * * * * * * * * * * * //

dimensions      [0 1 -1 0 0 0 0];

internalField   nonuniform List<vector> 
14592
(
(0.0185962 0.000219221 -0.00207838)
(0.0185921 0.000289584 -0.00508052)
(0.0189186 0.0001474 -0.0072735)
(0.0198701 -3.24427e-05 -0.00867067)
(0.0212251 -0.000131833 -0.00942119)
(0.0226073 -0.00013567 -0.00977777)
(0.0237346 -7.87152e-05 -0.0100174)
(0.0244643 -6.27757e-06 -0.0103951)
(0.0247622 4.42965e-05 -0.0111332)
(0.0246893 4.97364e-05 -0.0124506)
(0.0243474 -3.77551e-05 -0.0145744)
(0.0238508 -0.000282809 -0.0178238)
(0.0233253 -0.000772009 -0.0226904)
(0.0227487 -0.00147906 -0.0297996)
(0.0208345 -0.00181307 -0.0384548)
(0.0130616 1.50795e-05 -0.0363449)
(0.0526 0.000274011 -0.00249903)
(0.052623 -0.000454802 -0.00868354)
(0.053152 -0.00155813 -0.0143723)
(0.0546088 -0.00234313 -0.0184969)
(0.0567921 -0.00251161 -0.0208857)
(0.0591149 -0.00212594 -0.021938)
(0.0610441 -0.00142188 -0.0222816)
(0.0622506 -0.000630758 -0.0225565)
(0.0625967 8.87648e-05 -0.023325)
(0.062089 0.000663754 -0.0250903)
(0.0607683 0.00101894 -0.0283285)
(0.0586302 0.00106835 -0.0336387)
(0.0555619 0.000673595 -0.0419188)
(0.0510426 -0.000290467 -0.0544074)
(0.042259 -0.00154748 -0.0695711)
(0.0204829 -0.00140638 -0.0609283)
(0.0820372 0.000441463 -0.00169455)
(0.0818592 -0.000816613 -0.00790826)
(0.0815344 -0.00294023 -0.0151189)
(0.0816181 -0.00462894 -0.0213166)
(0.0824435 -0.00519101 -0.0254976)
(0.0837294 -0.00459844 -0.0276685)
(0.0849697 -0.00323793 -0.0284516)
(0.0857192 -0.00156167 -0.0286854)
(0.0856911 9.09866e-05 -0.02918)
(0.0847357 0.0015632 -0.0306474)
(0.0827427 0.00275573 -0.0337391)
(0.0795398 0.00360661 -0.0391983)
(0.0747749 0.00401331 -0.0481144)
(0.0676529 0.0037774 -0.0622806)
(0.0546516 0.0022817 -0.0807019)
(0.0231466 -0.000914348 -0.0703798)
(0.106582 0.000507386 -0.00105727)
(0.106311 -0.00070481 -0.00611707)
(0.105104 -0.00323812 -0.0133407)
(0.103321 -0.0055403 -0.0205955)
(0.101804 -0.0065642 -0.026191)
(0.100856 -0.0060481 -0.029526)
(0.100294 -0.00434955 -0.0309592)
(0.0997394 -0.00203289 -0.0313546)
(0.0988339 0.000427759 -0.0316804)
(0.0972755 0.00278892 -0.032799)
(0.094783 0.00494642 -0.0355012)
(0.0910208 0.00688566 -0.0406255)
(0.0854545 0.00857656 -0.0493527)
(0.0771069 0.00988852 -0.0639187)
(0.0621769 0.00913795 -0.0842844)
(0.0239667 0.00174906 -0.0746211)
(0.126175 0.000492596 -0.000754131)
(0.125956 -0.000297969 -0.00471378)
(0.124315 -0.00253304 -0.0113731)
(0.121157 -0.0048277 -0.0189521)
(0.117495 -0.0060314 -0.0254344)
(0.114159 -0.00568288 -0.0296888)
(0.111427 -0.00397596 -0.0317246)
(0.109165 -0.00143631 -0.0323224)
(0.10707 0.00148407 -0.0325295)
(0.104767 0.00448153 -0.0333323)
(0.10185 0.00747444 -0.0356095)
(0.0978318 0.0105219 -0.0402609)
(0.092029 0.0136845 -0.048488)
(0.0832544 0.0170606 -0.062835)
(0.0677558 0.0181748 -0.0843244)
(0.0242873 0.00680866 -0.0760493)
(0.14083 0.000453402 -0.000630442)
(0.140697 0.000190957 -0.00384939)
(0.138966 -0.00128653 -0.00991404)
(0.13509 -0.00299431 -0.0174675)
(0.129982 -0.00393822 -0.0244184)
(0.124783 -0.00361867 -0.0292827)
(0.120172 -0.00205774 -0.0317556)
(0.116349 0.000394235 -0.032488)
(0.113146 0.00338006 -0.0325578)
(0.110175 0.00666361 -0.0330233)
(0.107001 0.0102272 -0.0348147)
(0.103026 0.0142453 -0.038851)
(0.0974909 0.0188966 -0.0462808)
(0.0888832 0.0247679 -0.0597861)
(0.0740166 0.0292208 -0.0816719)
(0.0257586 0.0153513 -0.0751224)
(0.15058 0.000417022 -0.000573404)
(0.150513 0.000634384 -0.00335347)
(0.148841 0.00010573 -0.00897529)
(0.144704 -0.000617793 -0.0163909)
(0.138839 -0.000924699 -0.0235317)
(0.132518 -0.000393762 -0.0287209)
(0.12671 0.00102734 -0.0314328)
(0.121848 0.00319626 -0.032203)
(0.11792 0.00591734 -0.0320857)
(0.114623 0.00913293 -0.0321726)
(0.111557 0.0129364 -0.033397)
(0.108064 0.0176655 -0.0366365)
(0.103537 0.0236635 -0.0429082)
(0.0957706 0.0324353 -0.0546945)
(0.0839854 0.0424865 -0.0760279)
(0.0312358 0.0310935 -0.0710092)
(0.155422 0.000401039 -0.000529689)
(0.15539 0.00108802 -0.00308314)
(0.153838 0.00157966 -0.00844538)
(0.149698 0.00201214 -0.0157126)
(0.143624 0.00256485 -0.0228643)
(0.136933 0.00343556 -0.0281391)
(0.130683 0.00471388 -0.0308883)
(0.125471 0.0064394 -0.0315776)
(0.121414 0.00866129 -0.0312297)
(0.118296 0.0115029 -0.0309117)
(0.115828 0.015181 -0.0315095)
(0.113367 0.0201672 -0.0337767)
(0.111049 0.0270347 -0.0385424)
(0.104913 0.0379354 -0.0473551)
(0.103416 0.0582381 -0.0666705)
(0.0466875 0.0555814 -0.0604295)
(0.0198919 0.000182737 -0.00204274)
(0.0197929 0.000232311 -0.00490218)
(0.0199612 8.52567e-05 -0.00700719)
(0.0207199 -0.000100244 -0.00839193)
(0.0218624 -0.000201545 -0.00917834)
(0.0229966 -0.000199989 -0.00958477)
(0.0238152 -0.000132701 -0.00986284)
(0.0241537 -4.91882e-05 -0.0102524)
(0.0239498 7.58587e-06 -0.010963)
(0.023237 1.21383e-05 -0.0121923)
(0.0220647 -8.25277e-05 -0.0141296)
(0.0204464 -0.000339048 -0.0169994)
(0.0183441 -0.000829267 -0.0210516)
(0.0154072 -0.00150083 -0.0262593)
(0.0104018 -0.00206167 -0.0307249)
(0.00370086 -0.00211392 -0.024685)
(0.0562918 0.000233025 -0.00236004)
(0.0561485 -0.000587919 -0.00809798)
(0.0563727 -0.00180601 -0.0134541)
(0.0574082 -0.00269472 -0.0174577)
(0.0590973 -0.00291296 -0.0198928)
(0.0608499 -0.00250562 -0.021069)
(0.062102 -0.00172511 -0.0215375)
(0.062487 -0.000833504 -0.0218906)
(0.0618171 -1.76032e-05 -0.0226614)
(0.0600499 0.000637954 -0.024322)
(0.0571336 0.00104931 -0.0272882)
(0.0529024 0.00112759 -0.0320114)
(0.0470134 0.000737702 -0.0389802)
(0.0384348 -0.0002365 -0.0481276)
(0.0244394 -0.00179661 -0.0553345)
(0.00697579 -0.00368594 -0.042028)
(0.0877999 0.000415465 -0.00157374)
(0.0874959 -0.000927419 -0.00718006)
(0.0868635 -0.00324771 -0.013823)
(0.0864091 -0.00517024 -0.0197302)
(0.0865185 -0.00589363 -0.0239012)
(0.0869611 -0.00532132 -0.0262284)
(0.0872421 -0.0038459 -0.0272091)
(0.0868953 -0.0019726 -0.0275961)
(0.0855831 -0.000100881 -0.0281489)
(0.0830887 0.00158746 -0.0295511)
(0.0791834 0.00296423 -0.0323834)
(0.0734995 0.00395987 -0.0372368)
(0.0654119 0.0044596 -0.0447737)
(0.0534855 0.00418197 -0.0551765)
(0.0336875 0.00232148 -0.063774)
(0.00838342 -0.00252953 -0.0485492)
(0.114053 0.000481638 -0.00100636)
(0.113721 -0.000753524 -0.00544994)
(0.112305 -0.00346706 -0.0119459)
(0.110005 -0.00606009 -0.0187343)
(0.107648 -0.00734095 -0.0242251)
(0.105624 -0.00692188 -0.0277144)
(0.10383 -0.00512521 -0.029398)
(0.101919 -0.002561 -0.0300132)
(0.0995199 0.000222221 -0.0304575)
(0.0962543 0.0029316 -0.0315502)
(0.0916979 0.00543168 -0.0340206)
(0.0852969 0.00770114 -0.038554)
(0.0761887 0.00971154 -0.0459289)
(0.0627196 0.0111562 -0.0566575)
(0.039605 0.0101118 -0.0661672)
(0.00850452 0.0015801 -0.0511248)
(0.135001 0.000463002 -0.0007574)
(0.134754 -0.000303962 -0.00416931)
(0.133016 -0.00264808 -0.0100224)
(0.129457 -0.00519651 -0.0169904)
(0.124959 -0.0066722 -0.0232638)
(0.120411 -0.00646639 -0.0276496)
(0.11622 -0.00469862 -0.0299723)
(0.112362 -0.00190854 -0.0308468)
(0.10857 0.00138779 -0.0312253)
(0.104417 0.00482748 -0.0320417)
(0.0993518 0.00831108 -0.034118)
(0.0926491 0.0119028 -0.0382035)
(0.0832376 0.0157109 -0.0451332)
(0.069345 0.019613 -0.0557324)
(0.0445284 0.0206415 -0.0657882)
(0.00851122 0.00856404 -0.0514797)
(0.150666 0.000427698 -0.000664025)
(0.150501 0.000203922 -0.00341315)
(0.148751 -0.00131372 -0.00864571)
(0.144609 -0.0031887 -0.0154868)
(0.13875 -0.0043421 -0.0221376)
(0.132307 -0.00414544 -0.0271012)
(0.126102 -0.00253729 -0.0298845)
(0.120503 0.000146332 -0.0309419)
(0.115441 0.00351523 -0.0312298)
(0.110518 0.00729352 -0.0317497)
(0.105169 0.0114643 -0.0333789)
(0.0985638 0.016236 -0.0368947)
(0.0894876 0.0219097 -0.0431177)
(0.0761201 0.0289136 -0.0531464)
(0.0510247 0.0337616 -0.0633896)
(0.00998282 0.0197705 -0.0498959)
(0.161091 0.000404579 -0.000619726)
(0.160977 0.000655104 -0.00298977)
(0.159324 0.000129271 -0.00777836)
(0.155023 -0.000662243 -0.014421)
(0.14851 -0.00106887 -0.0211986)
(0.140976 -0.00059046 -0.0264574)
(0.133525 0.000904031 -0.0294939)
(0.126798 0.00329256 -0.030625)
(0.120931 0.00637798 -0.0307664)
(0.115654 0.0100972 -0.0309487)
(0.110467 0.0145768 -0.0320599)
(0.104524 0.0202363 -0.0348582)
(0.0966887 0.0276225 -0.0400658)
(0.085021 0.0383733 -0.0489359)
(0.0626233 0.0496809 -0.0589479)
(0.0159203 0.0396346 -0.0458979)
(0.166266 0.000407744 -0.000581358)
(0.166178 0.00111872 -0.00275359)
(0.164669 0.0016384 -0.00729022)
(0.160428 0.00209374 -0.0137626)
(0.153771 0.00267262 -0.0205137)
(0.145918 0.00359733 -0.0258472)
(0.138048 0.00499838 -0.0289281)
(0.130968 0.00693722 -0.0300003)
(0.124985 0.00948334 -0.0299414)
(0.119952 0.0127956 -0.0297571)
(0.115524 0.0171559 -0.0302979)
(0.110941 0.0231771 -0.0322421)
(0.105808 0.0316503 -0.0361449)
(0.0970238 0.045582 -0.0430372)
(0.0869941 0.0689996 -0.0526186)
(0.0309725 0.0673857 -0.0377565)
(0.0209964 0.000146087 -0.00191417)
(0.0208118 0.000173497 -0.00452493)
(0.0208423 1.87209e-05 -0.00645565)
(0.0214365 -0.000175166 -0.00775796)
(0.0223984 -0.000281187 -0.00852931)
(0.0233194 -0.000276969 -0.00895065)
(0.0238685 -0.000201575 -0.00923934)
(0.0238623 -0.000108131 -0.00960758)
(0.0232235 -4.43694e-05 -0.0102398)
(0.0219718 -3.82801e-05 -0.0112927)
(0.0201385 -0.000128386 -0.0129053)
(0.0177138 -0.000366164 -0.0151967)
(0.0146444 -0.000795554 -0.0182236)
(0.0106571 -0.00136984 -0.0216628)
(0.0053289 -0.00199941 -0.0235457)
(0.00024003 -0.00240598 -0.01667)
(0.0594514 0.000193304 -0.00214491)
(0.0591633 -0.000712721 -0.00727084)
(0.0591309 -0.00203829 -0.0121044)
(0.0598158 -0.00302949 -0.0158045)
(0.0610912 -0.00330442 -0.0181408)
(0.0623584 -0.00288765 -0.0193427)
(0.0630227 -0.00204347 -0.0198729)
(0.0626844 -0.00106103 -0.0202513)
(0.0611227 -0.000151586 -0.0209525)
(0.0582699 0.00058101 -0.0223825)
(0.05404 0.00106059 -0.0248674)
(0.0482307 0.00120879 -0.0286875)
(0.0404907 0.000919968 -0.0339935)
(0.0299545 7.56997e-05 -0.0401537)
(0.0155812 -0.00160973 -0.0429648)
(0.0013066 -0.00397409 -0.0285594)
(0.0927328 0.00038577 -0.00141514)
(0.0923206 -0.00102896 -0.00630996)
(0.0914393 -0.00352173 -0.0121935)
(0.0905504 -0.00566199 -0.0175675)
(0.0900703 -0.00654904 -0.0215004)
(0.0898008 -0.00601564 -0.0238124)
(0.0892528 -0.00445041 -0.0248805)
(0.0879446 -0.00240276 -0.025347)
(0.085499 -0.000326845 -0.0258852)
(0.0816658 0.00156604 -0.0270996)
(0.0761682 0.003129 -0.0294661)
(0.068578 0.00429776 -0.0333903)
(0.0582477 0.00497021 -0.0391531)
(0.0438113 0.00483489 -0.0461946)
(0.0233084 0.00278713 -0.0495656)
(0.00176787 -0.00261903 -0.0325502)
(0.120451 0.000452015 -0.000926777)
(0.120061 -0.000799613 -0.00472483)
(0.118481 -0.00366035 -0.0103588)
(0.115782 -0.00651186 -0.0164344)
(0.112755 -0.00803968 -0.0215394)
(0.109836 -0.0077341 -0.0249451)
(0.106983 -0.00587143 -0.0267165)
(0.103884 -0.00309398 -0.0274495)
(0.100165 -1.91336e-05 -0.0279267)
(0.0954101 0.00301778 -0.0288854)
(0.0891258 0.0058449 -0.030934)
(0.0806835 0.00844164 -0.0345699)
(0.0691713 0.0107848 -0.0401843)
(0.0528537 0.0124791 -0.0474273)
(0.028556 0.011265 -0.0512633)
(0.00136688 0.00213603 -0.0337439)
(0.142559 0.00043189 -0.000723946)
(0.14227 -0.000313441 -0.00360457)
(0.140457 -0.00273697 -0.00858262)
(0.136611 -0.00550057 -0.0147217)
(0.131476 -0.00722799 -0.0204831)
(0.125943 -0.00717382 -0.0247136)
(0.120515 -0.00537683 -0.027115)
(0.115261 -0.00237638 -0.0281378)
(0.109969 0.00125698 -0.0285982)
(0.104198 0.00510491 -0.0293253)
(0.0973272 0.00904199 -0.0310265)
(0.0885408 0.0131349 -0.0342609)
(0.0767005 0.0175113 -0.0394894)
(0.059829 0.0219138 -0.0465961)
(0.0333357 0.0229231 -0.0507563)
(0.00118926 0.010227 -0.033465)
(0.159093 0.000403582 -0.000652838)
(0.158876 0.000212408 -0.00296656)
(0.157102 -0.00132536 -0.00734854)
(0.152788 -0.00333445 -0.0132956)
(0.146386 -0.0046763 -0.019341)
(0.138962 -0.00460575 -0.0240877)
(0.131426 -0.00297727 -0.0269396)
(0.124286 -0.00010084 -0.0281721)
(0.117582 0.00360992 -0.0285858)
(0.110945 0.0078381 -0.029067)
(0.103758 0.012557 -0.03038)
(0.0951004 0.0179942 -0.033117)
(0.0836837 0.0245117 -0.0377578)
(0.0674406 0.0324035 -0.044426)
(0.0401722 0.0375738 -0.0487586)
(0.0028246 0.0230462 -0.0319446)
(0.170095 0.000395342 -0.000615966)
(0.169913 0.00067531 -0.00261573)
(0.16826 0.000162475 -0.00658461)
(0.163868 -0.000678526 -0.0123031)
(0.156912 -0.00117069 -0.0184171)
(0.14845 -0.00074903 -0.0234168)
(0.139647 0.000797418 -0.0265157)
(0.131316 0.00337322 -0.027846)
(0.123739 0.00678341 -0.0281553)
(0.116715 0.0109562 -0.0283539)
(0.109724 0.0160358 -0.0292244)
(0.101851 0.02249 -0.0313559)
(0.0918757 0.0309834 -0.0351845)
(0.0777825 0.043119 -0.0410439)
(0.0527533 0.0552356 -0.045418)
(0.00940512 0.0451426 -0.0290455)
(0.175557 0.000415042 -0.000584239)
(0.175391 0.00115302 -0.00241741)
(0.173896 0.00170378 -0.00615548)
(0.169617 0.00218401 -0.0116985)
(0.162579 0.00278891 -0.0177624)
(0.153854 0.00375876 -0.0228185)
(0.14467 0.0052662 -0.0259623)
(0.135994 0.00739472 -0.0272541)
(0.128312 0.0102324 -0.0274005)
(0.121582 0.0139663 -0.0272888)
(0.115469 0.0189248 -0.0276785)
(0.109181 0.0258082 -0.0291129)
(0.102227 0.0355426 -0.0319305)
(0.0917966 0.0514684 -0.0364988)
(0.0793965 0.0765522 -0.0411549)
(0.0246949 0.0737497 -0.0238066)
(0.021912 0.000111047 -0.00169978)
(0.0216523 0.000118171 -0.00396822)
(0.0215649 -4.50893e-05 -0.00565001)
(0.0220213 -0.00024861 -0.00680639)
(0.0228341 -0.000361225 -0.00751311)
(0.0235794 -0.000356741 -0.00791363)
(0.0239055 -0.000275552 -0.00818616)
(0.0236143 -0.000173592 -0.00850752)
(0.0226241 -0.000101362 -0.00902917)
(0.0209528 -9.23989e-05 -0.00986875)
(0.0186366 -0.000170756 -0.011117)
(0.015684 -0.00037713 -0.012819)
(0.0120822 -0.000733345 -0.0149302)
(0.00771752 -0.00120304 -0.0170644)
(0.00271924 -0.00179026 -0.0175966)
(-0.00120287 -0.00222495 -0.0115748)
(0.0620816 0.000156997 -0.00185946)
(0.0616693 -0.000822472 -0.00623741)
(0.0614226 -0.00224263 -0.0103931)
(0.0618199 -0.00332848 -0.0136325)
(0.0627574 -0.00366138 -0.0157368)
(0.0636259 -0.00324472 -0.0168678)
(0.0638027 -0.00235024 -0.0173964)
(0.0628617 -0.00128997 -0.0177547)
(0.0605634 -0.000297201 -0.018341)
(0.056836 0.000509205 -0.0194834)
(0.0516009 0.00106266 -0.0214195)
(0.0446868 0.00130041 -0.0242994)
(0.0358331 0.0011465 -0.0280857)
(0.0245094 0.000473731 -0.0320044)
(0.0107932 -0.00115909 -0.0325446)
(-0.00120571 -0.00366866 -0.0200664)
(0.0968402 0.000357438 -0.00121949)
(0.0963351 -0.00111583 -0.00532368)
(0.0952515 -0.00375296 -0.0103038)
(0.0940149 -0.00608536 -0.0149473)
(0.0930599 -0.00712701 -0.0184409)
(0.0922082 -0.00664323 -0.0205748)
(0.0909724 -0.00501177 -0.0216196)
(0.0888591 -0.00281662 -0.0220963)
(0.0854713 -0.000557955 -0.0225708)
(0.0805477 0.00151835 -0.0235384)
(0.0738076 0.00325877 -0.0253734)
(0.0648458 0.00460878 -0.0283306)
(0.0531066 0.00548554 -0.0324611)
(0.0375633 0.00555563 -0.0369721)
(0.0176636 0.00353099 -0.0376157)
(-0.00118881 -0.00216264 -0.0227414)
(0.12578 0.000422605 -0.00081308)
(0.125334 -0.000839686 -0.00394849)
(0.123623 -0.00381565 -0.00863501)
(0.120616 -0.00688638 -0.0138124)
(0.117063 -0.00863784 -0.0182945)
(0.113422 -0.00844974 -0.0213967)
(0.109695 -0.00654787 -0.0230947)
(0.105603 -0.003595 -0.0238449)
(0.100777 -0.000265199 -0.024291)
(0.0947974 0.00306169 -0.0250623)
(0.0871569 0.00618471 -0.0266342)
(0.0772318 0.00908528 -0.0293477)
(0.0641815 0.0117461 -0.0333487)
(0.0465291 0.0137108 -0.0379767)
(0.0226142 0.0125055 -0.0388034)
(-0.00179273 0.00297421 -0.0233076)
(0.148855 0.000403441 -0.000653601)
(0.148518 -0.000323499 -0.00301289)
(0.14664 -0.00280203 -0.00708762)
(0.142584 -0.00574049 -0.0122489)
(0.136966 -0.00768863 -0.0172544)
(0.130657 -0.00778216 -0.0210719)
(0.124218 -0.00597988 -0.0233478)
(0.1178 -0.00281063 -0.0243884)
(0.111249 0.00110809 -0.0248546)
(0.104142 0.00531514 -0.0254408)
(0.0958433 0.00965026 -0.0267227)
(0.0855356 0.014179 -0.0290982)
(0.0721323 0.0190329 -0.0327814)
(0.0538079 0.023855 -0.0372909)
(0.02743 0.0249429 -0.0382965)
(-0.00198238 0.0117624 -0.0228675)
(0.166113 0.000382675 -0.000596416)
(0.165835 0.000218012 -0.00249453)
(0.16403 -0.00132594 -0.00603802)
(0.159598 -0.00343804 -0.0109811)
(0.152806 -0.00494033 -0.0161865)
(0.144629 -0.00498985 -0.0204394)
(0.136021 -0.00336107 -0.0231251)
(0.127602 -0.00033163 -0.0243783)
(0.119519 0.0036683 -0.0248325)
(0.111459 0.00828392 -0.0252262)
(0.10281 0.013471 -0.0261892)
(0.092644 0.0194626 -0.0281559)
(0.0797213 0.0266419 -0.0313754)
(0.0620283 0.0351846 -0.0355744)
(0.0345869 0.0406164 -0.0367402)
(-0.00015397 0.025571 -0.02163)
(0.177596 0.000387353 -0.00056782)
(0.17734 0.000693257 -0.0022143)
(0.175668 0.000199386 -0.00539783)
(0.171222 -0.00067522 -0.0101116)
(0.163963 -0.00123825 -0.0153409)
(0.154807 -0.000870864 -0.0197984)
(0.144931 0.000709832 -0.0227076)
(0.135277 0.00343701 -0.0240682)
(0.126265 0.00712142 -0.024455)
(0.117783 0.0116797 -0.0246258)
(0.109345 0.0172603 -0.0252322)
(0.100036 0.0243546 -0.0267166)
(0.0886884 0.03368 -0.029321)
(0.0733335 0.0467505 -0.0329889)
(0.0477974 0.059361 -0.0343471)
(0.00687702 0.0489755 -0.0196236)
(0.1833 0.000422514 -0.000541536)
(0.183052 0.00118691 -0.00205363)
(0.181543 0.00176884 -0.00503833)
(0.17725 0.00227422 -0.00958721)
(0.169965 0.00290278 -0.0147559)
(0.160602 0.00391024 -0.019251)
(0.150386 0.0055061 -0.0222006)
(0.140401 0.00779442 -0.0235392)
(0.131294 0.0108793 -0.0238017)
(0.123141 0.0149682 -0.0237258)
(0.115658 0.0204176 -0.0239508)
(0.108079 0.0279761 -0.0248969)
(0.0999476 0.0386356 -0.0267609)
(0.0886228 0.0558429 -0.0296101)
(0.0756959 0.0818689 -0.0315345)
(0.0222079 0.0777868 -0.0161085)
(0.0226429 8.31075e-05 -0.0014093)
(0.0223195 7.06496e-05 -0.00325731)
(0.0221343 -0.000100931 -0.00462904)
(0.0224793 -0.000313863 -0.00558576)
(0.023174 -0.00043363 -0.00618399)
(0.0237815 -0.000430418 -0.0065314)
(0.0239333 -0.000345404 -0.00676537)
(0.0234213 -0.000236893 -0.00702376)
(0.0221638 -0.000157993 -0.0074227)
(0.0201854 -0.000143482 -0.00804652)
(0.0175394 -0.000206874 -0.00894883)
(0.0142647 -0.000380289 -0.0101342)
(0.0103973 -0.000670607 -0.0115239)
(0.00595143 -0.00104757 -0.0127773)
(0.00134141 -0.00156271 -0.0126918)
(-0.00183111 -0.00200977 -0.00799082)
(0.0641834 0.00012674 -0.00151303)
(0.0636688 -0.000913053 -0.00503374)
(0.0632492 -0.00241156 -0.00838916)
(0.0634181 -0.00357879 -0.0110399)
(0.0640899 -0.00396529 -0.0127982)
(0.0646452 -0.00355458 -0.0137726)
(0.0644378 -0.00262235 -0.0142436)
(0.0630223 -0.00149897 -0.0145487)
(0.0601504 -0.000437277 -0.0150001)
(0.0557599 0.00043625 -0.0158489)
(0.0497991 0.00106039 -0.0172566)
(0.042153 0.00138766 -0.0192923)
(0.0326719 0.00136493 -0.0218443)
(0.0211093 0.000856154 -0.0242126)
(0.0081119 -0.000672097 -0.023761)
(-0.00239583 -0.0032854 -0.0140298)
(0.100125 0.000332858 -0.000989362)
(0.0995427 -0.00118594 -0.00424321)
(0.0982981 -0.00393782 -0.00821447)
(0.0967904 -0.00642984 -0.0119744)
(0.0954655 -0.00760692 -0.0148629)
(0.0941574 -0.0071749 -0.0166766)
(0.0923779 -0.00549735 -0.0175989)
(0.0896258 -0.00318376 -0.0180274)
(0.0854982 -0.000771045 -0.0184064)
(0.0797363 0.00146056 -0.0191221)
(0.0720786 0.00335754 -0.0204493)
(0.0621776 0.00487468 -0.0225381)
(0.0495986 0.00594622 -0.0253349)
(0.0336356 0.00622054 -0.0280872)
(0.01447 0.00429461 -0.027548)
(-0.00260937 -0.00159686 -0.0158857)
(0.130041 0.000396406 -0.000668286)
(0.129545 -0.000872374 -0.00312713)
(0.127729 -0.00393463 -0.00681334)
(0.124489 -0.00718164 -0.0109586)
(0.120535 -0.0091228 -0.0146298)
(0.116334 -0.00904414 -0.0172412)
(0.111918 -0.00712277 -0.0187217)
(0.107038 -0.00403257 -0.0194005)
(0.101336 -0.00049231 -0.019777)
(0.0944034 0.00307655 -0.0203481)
(0.0857534 0.00645062 -0.0214703)
(0.0747998 0.00961181 -0.0233675)
(0.0608092 0.0125475 -0.02606)
(0.0425936 0.0147586 -0.0288774)
(0.0193067 0.0136362 -0.028387)
(-0.00326365 0.00380367 -0.0161699)
(0.153891 0.000379648 -0.00054787)
(0.153508 -0.00033273 -0.00239003)
(0.151573 -0.0028475 -0.00555511)
(0.147361 -0.00592137 -0.00964237)
(0.141387 -0.0080519 -0.0137073)
(0.134488 -0.00827749 -0.0168973)
(0.127258 -0.0064848 -0.0188666)
(0.119916 -0.00318709 -0.019807)
(0.112366 0.000960729 -0.0202223)
(0.104214 0.00546538 -0.0206555)
(0.0948439 0.0101295 -0.0215512)
(0.0834722 0.0150138 -0.0231833)
(0.0691011 0.0202469 -0.025631)
(0.050124 0.025401 -0.0283567)
(0.0242054 0.0265994 -0.0279669)
(-0.00342157 0.0130255 -0.0157643)
(0.171727 0.000366061 -0.000503068)
(0.171391 0.000221664 -0.00199014)
(0.169551 -0.00132032 -0.00471758)
(0.165035 -0.00350794 -0.0085961)
(0.157965 -0.00513951 -0.0127923)
(0.149228 -0.00529447 -0.016326)
(0.139794 -0.00367733 -0.0186391)
(0.130364 -0.000532955 -0.0197725)
(0.121185 0.00369857 -0.0201969)
(0.112007 0.00862884 -0.0204889)
(0.10225 0.0141932 -0.0211392)
(0.0910209 0.0206208 -0.0224568)
(0.0771563 0.0282955 -0.0245594)
(0.0587835 0.0373031 -0.0270768)
(0.0316194 0.0429422 -0.0268229)
(-0.00142768 0.0274575 -0.0148456)
(0.183598 0.00038018 -0.000481436)
(0.183272 0.000707993 -0.00177675)
(0.181569 0.000234745 -0.00421269)
(0.177084 -0.000661041 -0.00788651)
(0.169621 -0.00127959 -0.012079)
(0.15996 -0.000959948 -0.0157675)
(0.149267 0.00064151 -0.018267)
(0.138575 0.00348485 -0.0195021)
(0.128422 0.00738789 -0.0198877)
(0.118789 0.0122551 -0.0200152)
(0.109243 0.0182308 -0.0203955)
(0.0989095 0.0258136 -0.0213518)
(0.0866933 0.0357371 -0.0230119)
(0.0707304 0.0494318 -0.0251947)
(0.0452437 0.0623628 -0.0251622)
(0.00592148 0.0516988 -0.0134887)
(0.189496 0.00042943 -0.000460343)
(0.189171 0.00121729 -0.00165276)
(0.187635 0.00182766 -0.00392905)
(0.183331 0.00235637 -0.00746176)
(0.175887 0.00300548 -0.0115936)
(0.166071 0.00404287 -0.0153048)
(0.155078 0.00570858 -0.0178374)
(0.144069 0.00812421 -0.0190622)
(0.133829 0.0114066 -0.019359)
(0.124544 0.0157769 -0.0193024)
(0.116003 0.0216063 -0.0193983)
(0.107481 0.0296675 -0.0199618)
(0.0985942 0.0409758 -0.0211042)
(0.0868229 0.0590047 -0.0227805)
(0.0739272 0.0856147 -0.0233193)
(0.0212549 0.0805623 -0.0110818)
(0.0231891 6.19106e-05 -0.00105449)
(0.0228158 3.25306e-05 -0.00242039)
(0.0225554 -0.000146571 -0.00343421)
(0.0228161 -0.000367959 -0.00414856)
(0.0234232 -0.00049451 -0.00460258)
(0.0239299 -0.000493271 -0.0048705)
(0.0239551 -0.000405826 -0.00504912)
(0.0232838 -0.000292118 -0.00523645)
(0.0218376 -0.00020647 -0.00551415)
(0.0196493 -0.000187704 -0.00593729)
(0.0167913 -0.000237147 -0.00653627)
(0.0133317 -0.000382448 -0.00729923)
(0.00934485 -0.000621269 -0.00815228)
(0.00492744 -0.000926413 -0.00884301)
(0.00061423 -0.0013808 -0.00856258)
(-0.00211292 -0.00184087 -0.0052519)
(0.0657573 0.000103342 -0.00111665)
(0.0651635 -0.000982897 -0.0036946)
(0.0646132 -0.00254193 -0.00615638)
(0.0646115 -0.00377377 -0.00811965)
(0.0650871 -0.00420521 -0.00944165)
(0.0654124 -0.00380287 -0.0101896)
(0.0649229 -0.00284408 -0.0105583)
(0.0631599 -0.00167265 -0.0107884)
(0.0598716 -0.000555239 -0.0111033)
(0.0550107 0.000371097 -0.0116788)
(0.0485578 0.00105423 -0.0126175)
(0.040452 0.00145731 -0.013945)
(0.0306369 0.00154222 -0.0155466)
(0.0190565 0.00116517 -0.0168932)
(0.00661465 -0.000267558 -0.0161874)
(-0.0029755 -0.00295986 -0.00931246)
(0.102587 0.000313411 -0.000728327)
(0.101944 -0.00123866 -0.00308704)
(0.100578 -0.00407579 -0.00597391)
(0.0988704 -0.00669062 -0.00873663)
(0.0972742 -0.00797639 -0.0108913)
(0.0956307 -0.00759095 -0.012271)
(0.0934504 -0.00588367 -0.0129898)
(0.090228 -0.00348184 -0.0133259)
(0.0855568 -0.00095132 -0.0135958)
(0.0791911 0.00140356 -0.01408)
(0.0708979 0.00342658 -0.0149604)
(0.0603865 0.00508032 -0.0163215)
(0.0473279 0.00631166 -0.018084)
(0.0312459 0.00675431 -0.0196652)
(0.012672 0.0049296 -0.0188247)
(-0.00330328 -0.00111245 -0.0105508)
(0.133234 0.000375908 -0.000496564)
(0.132697 -0.000896849 -0.00226572)
(0.130801 -0.00402 -0.00491828)
(0.127392 -0.00739895 -0.00793803)
(0.123148 -0.00948843 -0.0106575)
(0.118539 -0.00950137 -0.0126303)
(0.113616 -0.00757326 -0.0137756)
(0.108153 -0.00438298 -0.0143124)
(0.101804 -0.000684631 -0.0145946)
(0.0941813 0.00307326 -0.0149789)
(0.0848235 0.00664394 -0.0157133)
(0.0731908 0.0100093 -0.0169375)
(0.0586468 0.0131601 -0.0186244)
(0.0402213 0.0155686 -0.0202405)
(0.0174645 0.0145379 -0.0193981)
(-0.00396877 0.00447579 -0.0107106)
(0.157667 0.000361014 -0.000411497)
(0.157243 -0.000340239 -0.00173457)
(0.15526 -0.0028773 -0.00399164)
(0.150938 -0.00604923 -0.00694432)
(0.144712 -0.00831931 -0.00993572)
(0.137388 -0.0086522 -0.0123328)
(0.129581 -0.00687554 -0.0138486)
(0.121554 -0.00348646 -0.0145923)
(0.113265 0.000833967 -0.0149166)
(0.104353 0.00556562 -0.0152065)
(0.0942244 0.010481 -0.0157799)
(0.0821436 0.015634 -0.016815)
(0.0671933 0.0211481 -0.0183298)
(0.047943 0.0265486 -0.019882)
(0.0224504 0.0278508 -0.0190959)
(-0.00408088 0.0139799 -0.0104025)
(0.175937 0.00035325 -0.000380001)
(0.175551 0.000223862 -0.00145104)
(0.173677 -0.0013124 -0.00338336)
(0.1691 -0.00355196 -0.00616555)
(0.161839 -0.00528038 -0.00923615)
(0.152708 -0.00551981 -0.01188)
(0.142676 -0.00391881 -0.0136547)
(0.132502 -0.000693732 -0.0145522)
(0.122509 0.00371096 -0.0148933)
(0.112512 0.00887785 -0.0150887)
(0.101966 0.0147248 -0.0154896)
(0.0900207 0.0214725 -0.0163037)
(0.0755845 0.0294984 -0.0175816)
(0.0569081 0.038827 -0.0190021)
(0.0300556 0.0446235 -0.018317)
(-0.00196048 0.0288014 -0.00977431)
(0.1881 0.000374928 -0.000364281)
(0.187715 0.000719357 -0.00130096)
(0.185978 0.000264632 -0.00301989)
(0.181464 -0.000643316 -0.00564183)
(0.173864 -0.00130228 -0.00869673)
(0.163855 -0.00102081 -0.0114481)
(0.152577 0.000591892 -0.0133622)
(0.141124 0.00351861 -0.0143424)
(0.130126 0.0075838 -0.0146641)
(0.119643 0.0126807 -0.0147483)
(0.109302 0.0189471 -0.0149619)
(0.0982694 0.0268799 -0.0155272)
(0.0855179 0.0372131 -0.0165088)
(0.0692759 0.0513173 -0.0177277)
(0.0439544 0.0644647 -0.0172241)
(0.00561118 0.0535853 -0.00889129)
(0.194143 0.000435267 -0.000348722)
(0.193756 0.00124191 -0.00121305)
(0.192187 0.00187565 -0.00281588)
(0.187873 0.00242392 -0.00533028)
(0.180327 0.00308966 -0.00833414)
(0.170204 0.0041494 -0.011097)
(0.158659 0.00586654 -0.0130356)
(0.146903 0.00837653 -0.0140127)
(0.135822 0.0118055 -0.0142762)
(0.125698 0.0163831 -0.0142348)
(0.116388 0.0224873 -0.0142537)
(0.107214 0.0309012 -0.0145542)
(0.0978527 0.0426431 -0.0151967)
(0.0858714 0.0611898 -0.0161151)
(0.0731492 0.0881782 -0.016048)
(0.0209466 0.0824533 -0.00729667)
(0.023551 4.84547e-05 -0.000646829)
(0.0231438 4.50348e-06 -0.00148032)
(0.0228329 -0.000181864 -0.00209613)
(0.0230369 -0.000411107 -0.00253288)
(0.0235861 -0.000544026 -0.00281384)
(0.0240273 -0.00054502 -0.00298167)
(0.0239707 -0.000456052 -0.00309307)
(0.0231972 -0.000338614 -0.00320583)
(0.0216318 -0.000248603 -0.00336773)
(0.0193143 -0.000226065 -0.00360984)
(0.0163322 -0.00026465 -0.00394701)
(0.0127749 -0.000390383 -0.00436676)
(0.00874121 -0.000595494 -0.00481974)
(0.00437239 -0.000854945 -0.00515522)
(0.000248444 -0.00126698 -0.00491456)
(-0.00223362 -0.00173535 -0.00296803)
(0.0668022 8.84649e-05 -0.000677792)
(0.0661544 -0.00103091 -0.00224275)
(0.0655179 -0.00263222 -0.00373475)
(0.0654028 -0.00390986 -0.00493161)
(0.0657493 -0.00437479 -0.00574606)
(0.0659244 -0.00398082 -0.00621303)
(0.0652511 -0.00300543 -0.00644589)
(0.0632615 -0.00180151 -0.00658738)
(0.0597046 -0.000645037 -0.00677095)
(0.0545451 0.000317807 -0.00709922)
(0.0477899 0.00104318 -0.0076291)
(0.0394184 0.00150016 -0.00836702)
(0.0294374 0.00165945 -0.00923312)
(0.0179021 0.00137161 -0.00990724)
(0.00582294 6.63153e-06 -0.00935713)
(-0.00324576 -0.00274007 -0.00530222)
(0.104224 0.000300495 -0.000440119)
(0.103538 -0.00127299 -0.00186322)
(0.102093 -0.00416628 -0.00360269)
(0.100253 -0.00686426 -0.00527765)
(0.098479 -0.00822673 -0.00659816)
(0.0966164 -0.00787734 -0.00745479)
(0.0941738 -0.00615354 -0.00790786)
(0.090644 -0.0036936 -0.00812009)
(0.0856182 -0.00108212 -0.00827976)
(0.0788635 0.00135707 -0.00855547)
(0.0701733 0.00346768 -0.00904997)
(0.0592983 0.0052172 -0.0098055)
(0.0459841 0.00656005 -0.0107611)
(0.0298931 0.00712034 -0.0115588)
(0.0117124 0.00537084 -0.0109047)
(-0.00362962 -0.000775145 -0.00601117)
(0.13536 0.000362094 -0.000301282)
(0.134791 -0.000911983 -0.00136336)
(0.132842 -0.00407315 -0.00295095)
(0.129322 -0.00753903 -0.00477059)
(0.12489 -0.00973049 -0.00642915)
(0.120015 -0.00981017 -0.00764897)
(0.11476 -0.00788254 -0.00836796)
(0.108915 -0.00462795 -0.00870919)
(0.102142 -0.000824864 -0.00888131)
(0.0940726 0.00306279 -0.00910002)
(0.0842683 0.0067683 -0.0095082)
(0.0722257 0.0102733 -0.0101823)
(0.0573775 0.0135708 -0.0110925)
(0.0388888 0.0161156 -0.0119058)
(0.0164907 0.0151559 -0.0112385)
(-0.00429282 0.00493721 -0.00609462)
(0.160182 0.000348366 -0.000250555)
(0.159726 -0.000344718 -0.00104433)
(0.157709 -0.00289361 -0.00238743)
(0.153314 -0.0061282 -0.00415608)
(0.146927 -0.0084923 -0.00597193)
(0.13933 -0.00890136 -0.00744877)
(0.131147 -0.00714062 -0.00839757)
(0.122671 -0.00369404 -0.008871)
(0.113897 0.000740013 -0.0090762)
(0.104491 0.00562516 -0.00923926)
(0.0938796 0.0107102 -0.00955149)
(0.0813665 0.0160428 -0.0101134)
(0.0660924 0.0217424 -0.0109224)
(0.0467384 0.0273063 -0.0116976)
(0.0215424 0.0286859 -0.0110588)
(-0.00436851 0.0146154 -0.00590738)
(0.178742 0.00034445 -0.00023251)
(0.178318 0.00022536 -0.000876049)
(0.176417 -0.00130456 -0.00202099)