/*--------------------------------*- C++ -*----------------------------------*\
| =========                 |                                                 |
| \\      /  F ield         | foam-extend: Open Source CFD                    |
|  \\    /   O peration     | Version:     3.1                                |
|   \\  /    A nd           | Web:         http://www.extend-project.de       |
|    \\/     M anipulation  |                                                 |
\*---------------------------------------------------------------------------*/
FoamFile
{
    version     2.0;
    format      ascii;
    class       volVectorField;
    location    "0.3";
    object      D;
}
// * * * * * * * * * * * * * * * * * * * * * * * * * * * * * * * * * * * * * //

dimensions      [0 1 0 0 0 0 0];

internalField   nonuniform List<vector> 
256
(
(0.000227715 2.76954e-05 0.000237265)
(0.0001202 -3.77165e-05 0.000129238)
(7.9447e-05 -6.92922e-05 4.08098e-05)
(8.67573e-05 -0.000125868 -5.97669e-05)
(0.000665635 0.000206478 0.000302008)
(0.000549012 -1.93742e-05 0.000241425)
(0.000494756 -0.000181727 0.000145661)
(0.000500446 -0.000391443 6.89934e-05)
(0.00113325 0.00027567 0.000350523)
(0.00102326 -2.79722e-05 0.000291887)
(0.000964029 -0.000285833 0.000222142)
(0.000956553 -0.000585627 0.000161526)
(0.00161543 0.00030372 0.000372134)
(0.00152186 -5.3166e-05 0.000328861)
(0.00146295 -0.000376497 0.000279723)
(0.00143968 -0.000732939 0.000237403)
(0.00209357 0.000290477 0.000386775)
(0.00201237 -9.39065e-05 0.000355819)
(0.00195413 -0.000455469 0.000322797)
(0.00191886 -0.00084062 0.000293692)
(0.00255325 0.000251939 0.000400381)
(0.00248106 -0.000143819 0.000378039)
(0.00242299 -0.000524872 0.000355234)
(0.00237875 -0.000921095 0.000334143)
(0.00298857 0.00019854 0.00041619)
(0.00292209 -0.000198757 0.000398193)
(0.00286389 -0.000586967 0.000380887)
(0.00281358 -0.000984194 0.00036343)
(0.00340133 0.000139164 0.000434824)
(0.00333697 -0.000255729 0.000418135)
(0.00327847 -0.000644255 0.000404125)
(0.00322556 -0.0010387 0.000387397)
(0.000228949 1.33082e-05 0.000133165)
(0.0001334 -5.17831e-05 7.79919e-05)
(0.000100413 -8.19967e-05 2.76692e-05)
(0.000117119 -0.000137395 -2.51519e-05)
(0.000712861 0.000166904 0.000215384)
(0.000579213 -5.74763e-05 0.000172678)
(0.00052096 -0.000216422 0.000112351)
(0.000532603 -0.000424767 6.31746e-05)
(0.00117575 0.000243638 0.000272801)
(0.00106264 -6.31161e-05 0.000230449)
(0.00100064 -0.000323022 0.000180646)
(0.000990452 -0.00062503 0.000136917)
(0.00165376 0.00027418 0.000306382)
(0.00155746 -8.54777e-05 0.000271028)
(0.00149613 -0.000411357 0.000232833)
(0.00147003 -0.000770361 0.000198864)
(0.00212532 0.000264364 0.000328723)
(0.00204295 -0.000122566 0.000300759)
(0.00198284 -0.000486831 0.000272351)
(0.00194485 -0.000874564 0.000246157)
(0.00257968 0.00022792 0.000346849)
(0.00250693 -0.000169867 0.000324296)
(0.00244769 -0.000553239 0.000302483)
(0.0024016 -0.000951759 0.000281236)
(0.00301161 0.000175881 0.000364333)
(0.00294496 -0.000223209 0.000344825)
(0.00288629 -0.000613541 0.000326754)
(0.00283524 -0.00101291 0.000307903)
(0.0034233 0.000117388 0.000382762)
(0.00335897 -0.000279292 0.00036474)
(0.00330051 -0.000670199 0.000349001)
(0.00324774 -0.0010668 0.000331096)
(0.000233431 1.40586e-05 8.07452e-05)
(0.000137471 -5.32718e-05 5.10781e-05)
(0.000106997 -8.48154e-05 2.22004e-05)
(0.000130002 -0.000142411 -6.77752e-06)
(0.000737609 0.00015051 0.000152951)
(0.000596171 -7.39712e-05 0.000124376)
(0.000536849 -0.000230629 8.70125e-05)
(0.000554524 -0.000438738 5.60954e-05)
(0.00120804 0.000220784 0.000207557)
(0.00108833 -8.58099e-05 0.00017753)
(0.00102375 -0.000344306 0.000143333)
(0.00101512 -0.000645372 0.000112763)
(0.00168645 0.000248607 0.000244819)
(0.00158598 -0.000110361 0.000217134)
(0.00152224 -0.000435318 0.000188373)
(0.00149564 -0.000793534 0.000161989)
(0.00215611 0.000239028 0.00027129)
(0.00207123 -0.000147494 0.00024707)
(0.00200923 -0.000511529 0.0002234)
(0.00197004 -0.000899055 0.000200765)
(0.00260788 0.000203799 0.000292102)
(0.00253388 -0.000194096 0.00027072)
(0.0024734 -0.000577938 0.000250712)
(0.00242615 -0.00097699 0.000230566)
(0.00303786 0.000153334 0.000310527)
(0.00297081 -0.000246625 0.0002909)
(0.00291155 -0.000638168 0.000273109)
(0.00285979 -0.00103887 0.000254187)
(0.00344901 9.64473e-05 0.000328342)
(0.00338492 -0.000301928 0.000309896)
(0.00332639 -0.000694785 0.000293713)
(0.00327334 -0.00109352 0.000275515)
(0.000237007 1.52673e-05 5.13547e-05)
(0.000139488 -5.3663e-05 3.47245e-05)
(0.00010982 -8.60128e-05 1.79014e-05)
(0.000136167 -0.000145211 1.40174e-06)
(0.000752361 0.000143565 0.000108879)
(0.000606848 -8.2088e-05 9.00578e-05)
(0.000547322 -0.000237778 6.66438e-05)
(0.000568924 -0.000446366 4.70301e-05)
(0.00123008 0.000206801 0.000155258)
(0.00110628 -9.99517e-05 0.000134253)
(0.00104033 -0.000357289 0.000110941)
(0.00103335 -0.000657846 8.97814e-05)
(0.00171173 0.000230241 0.000190002)
(0.00160819 -0.000128172 0.000169113)
(0.00154286 -0.000452102 0.00014783)
(0.00151638 -0.000809751 0.000127824)
(0.00218229 0.000218819 0.00021627)
(0.00209539 -0.000167126 0.000196447)
(0.002032 -0.000530575 0.000177402)
(0.00199221 -0.000917858 0.000158736)
(0.00263378 0.000183355 0.000237106)
(0.00255868 -0.000214365 0.000218359)
(0.00249722 -0.00059828 0.00020102)
(0.00244917 -0.000997668 0.000183248)
(0.00306331 0.000133601 0.000254925)
(0.00299589 -0.000266876 0.000236912)
(0.00293609 -0.00065925 0.000220682)
(0.00288367 -0.00106099 0.000203297)
(0.0034747 7.78802e-05 0.000271157)
(0.00341076 -0.000321774 0.000253893)
(0.00335205 -0.000716214 0.000238707)
(0.00329855 -0.00111671 0.000221741)
(0.000239554 1.608e-05 3.33161e-05)
(0.000140839 -5.38572e-05 2.3691e-05)
(0.000111508 -8.66975e-05 1.37787e-05)
(0.000139757 -0.000146928 4.11351e-06)
(0.000762052 0.000140413 7.63466e-05)
(0.000614154 -8.65061e-05 6.40817e-05)
(0.000554624 -0.000241991 4.93377e-05)
(0.000578663 -0.000451442 3.68249e-05)
(0.00124535 0.000198759 0.0001127)
(0.00111919 -0.00010875 9.82483e-05)
(0.0010526 -0.000365692 8.25449e-05)
(0.00104685 -0.000666501 6.80803e-05)
(0.00173066 0.000218218 0.000141563)
(0.00162517 -0.000140406 0.000126348)
(0.00155893 -0.000463911 0.000111034)
(0.00153269 -0.000821642 9.63582e-05)
(0.00220319 0.000204345 0.000164392)
(0.00211492 -0.000181602 0.00014908)
(0.00205064 -0.000544832 0.000134476)
(0.00201052 -0.000932304 0.000119917)
(0.00265558 0.000167827 0.000182831)
(0.00257967 -0.000230047 0.000167619)
(0.00251751 -0.000614155 0.000153597)
(0.00246891 -0.00101405 0.000139076)
(0.00308562 0.000118049 0.00019841)
(0.00301785 -0.000283004 0.000183302)
(0.00295759 -0.000676111 0.000169702)
(0.00290461 -0.00107882 0.000155097)
(0.00349771 6.29337e-05 0.000212047)
(0.00343376 -0.000337843 0.000197329)
(0.00337481 -0.000733586 0.000184366)
(0.00332081 -0.00113554 0.000169946)
(0.000241314 1.66017e-05 2.10506e-05)
(0.000141825 -5.39792e-05 1.54903e-05)
(0.000112672 -8.71246e-05 9.73812e-06)
(0.000142058 -0.000148024 4.10362e-06)
(0.00076856 0.000138986 5.07261e-05)
(0.000619238 -8.90213e-05 4.30362e-05)
(0.000559751 -0.000244646 3.40071e-05)
(0.000585289 -0.000454982 2.62456e-05)
(0.00125587 0.000194258 7.66254e-05)
(0.00112834 -0.000114167 6.71654e-05)
(0.00106146 -0.000371197 5.7049e-05)
(0.00105653 -0.000672606 4.76064e-05)
(0.00174423 0.000210783 9.79548e-05)
(0.00163759 -0.000148446 8.75804e-05)
(0.00157086 -0.000472002 7.72227e-05)
(0.00154483 -0.000830194 6.71525e-05)
(0.00221879 0.000194754 0.000115342)
(0.00212967 -0.000191599 0.000104476)
(0.00206486 -0.000554962 9.4148e-05)
(0.00202454 -0.000942901 8.37338e-05)
(0.00267244 0.000157033 0.000129612)
(0.00259598 -0.000241263 0.000118455)
(0.00253334 -0.000625726 0.000108178)
(0.00248435 -0.00102623 9.74721e-05)
(0.00310332 0.00010689 0.000141625)
(0.00303527 -0.000294803 0.000130295)
(0.00297464 -0.000688594 0.000120092)
(0.00292121 -0.00109216 0.000109129)
(0.00351626 5.19881e-05 0.000151864)
(0.00345221 -0.000349772 0.000140701)
(0.00339298 -0.000746576 0.000130863)
(0.00333853 -0.0011497 0.000119954)
(0.000242435 1.69148e-05 1.17198e-05)
(0.000142493 -5.40547e-05 8.80308e-06)
(0.00011344 -8.73817e-05 5.79092e-06)
(0.000143483 -0.00014869 2.81693e-06)
(0.000772654 0.000138376 2.90832e-05)
(0.000622524 -9.04127e-05 2.4841e-05)
(0.000563081 -0.000246254 1.99345e-05)
(0.00058949 -0.000457275 1.56734e-05)
(0.00126256 0.000191878 4.45505e-05)
(0.00113428 -0.000117304 3.91769e-05)
(0.00106727 -0.000374578 3.34917e-05)
(0.00106284 -0.000676569 2.81319e-05)
(0.00175306 0.000206545 5.75687e-05)
(0.00164579 -0.000153295 5.15194e-05)
(0.00157879 -0.000477082 4.55115e-05)
(0.00155291 -0.000835775 3.96143e-05)
(0.00222917 0.000189011 6.83774e-05)
(0.00213957 -0.000197824 6.18844e-05)
(0.00207445 -0.000561449 5.57242e-05)
(0.00203402 -0.000949867 4.94691e-05)
(0.00268389 0.000150341 7.73454e-05)
(0.0026071 -0.000248412 7.05443e-05)
(0.00254416 -0.000633244 6.428e-05)
(0.00249491 -0.00103428 5.77329e-05)
(0.00311554 9.98096e-05 8.48897e-05)
(0.00304729 -0.000302442 7.78896e-05)
(0.0029864 -0.000696782 7.15823e-05)
(0.00293265 -0.001101 6.48062e-05)
(0.00352921 4.493e-05 9.12145e-05)
(0.00346502 -0.000357581 8.42682e-05)
(0.00340556 -0.000755159 7.81465e-05)
(0.00335077 -0.00115911 7.13724e-05)
(0.000242981 1.7063e-05 3.77139e-06)
(0.000142832 -5.40913e-05 2.85975e-06)
(0.000113825 -8.75037e-05 1.92053e-06)
(0.000144172 -0.000149008 9.88086e-07)
(0.000774641 0.000138158 9.48497e-06)
(0.000624147 -9.10369e-05 8.12728e-06)
(0.000564729 -0.000247019 6.56861e-06)
(0.00059154 -0.000458408 5.20728e-06)
(0.00126583 0.000190856 1.4625e-05)
(0.00113722 -0.000118746 1.288e-05)
(0.00107016 -0.000376194 1.10436e-05)
(0.00106596 -0.000678526 9.30313e-06)
(0.00175742 0.000204631 1.89955e-05)
(0.00164987 -0.000155573 1.70059e-05)
(0.00158276 -0.000479534 1.5035e-05)
(0.00155695 -0.000838535 1.30913e-05)
(0.00223436 0.000186338 2.26559e-05)
(0.00214455 -0.0002008 2.04954e-05)
(0.00207928 -0.000564611 1.84474e-05)
(0.00203879 -0.000953321 1.6361e-05)
(0.00268967 0.000147162 2.57093e-05)
(0.00261273 -0.000251876 2.34251e-05)
(0.00254965 -0.000636938 2.13211e-05)
(0.00250027 -0.00103828 1.9119e-05)
(0.00312177 9.63964e-05 2.8278e-05)
(0.00305341 -0.000306178 2.5912e-05)
(0.00299238 -0.000700827 2.37796e-05)
(0.00293847 -0.00110541 2.14892e-05)
(0.00353584 4.14921e-05 3.04141e-05)
(0.00347157 -0.000361428 2.80586e-05)
(0.00341198 -0.000759417 2.59828e-05)
(0.00335701 -0.0011638 2.36882e-05)
)
;

boundaryField
{
    interface
    {
        type            tractionDisplacement;
        gradient        nonuniform List<vector> 
192
(
(0.015346 0.0221565 0.000500118)
(0.00497265 0.0157793 0.00143379)
(0.00583845 0.0186515 0.0015477)
(0.0043023 0.018597 0.00123969)
(0.00354558 0.0184071 0.000993216)
(0.00295018 0.0176856 0.000793302)
(0.00265686 0.0168938 0.000699156)
(0.00263855 0.016286 0.000689004)
(0.0146897 0.0233143 0.000353075)
(0.00625556 0.0164495 0.00117447)
(0.00584032 0.0183865 0.00147632)
(0.00447927 0.0184149 0.00134086)
(0.00360708 0.0181872 0.00119197)
(0.00300259 0.0175489 0.00103852)
(0.00269629 0.0168387 0.000941701)
(0.0026646 0.0163121 0.000919041)
(0.0150842 0.0240724 0.000233312)
(0.00652865 0.0170387 0.00073755)
(0.00602975 0.0183926 0.0010307)
(0.00459501 0.0183564 0.00111699)
(0.00364452 0.0180702 0.00109153)
(0.00300151 0.0174563 0.00103347)
(0.00267205 0.016792 0.000987058)
(0.00260904 0.0163396 0.000983202)
(0.015427 0.0245715 0.000152779)
(0.00672345 0.0173889 0.000486199)
(0.00619711 0.0185693 0.000718567)
(0.00471327 0.0184004 0.000855612)
(0.00370358 0.0180539 0.000908717)
(0.00301842 0.017427 0.000918564)
(0.00266066 0.0167799 0.0009191)
(0.00256956 0.0163737 0.000937733)
(0.0156581 0.024903 0.000100287)
(0.00685179 0.0176239 0.000324922)
(0.006308 0.0187419 0.000497989)
(0.00479253 0.0184923 0.00062658)
(0.00374936 0.0180928 0.000703607)
(0.00303427 0.0174423 0.000745442)
(0.00265499 0.0167961 0.000772371)
(0.00254366 0.0164135 0.00080366)
(0.0158078 0.0251213 6.44682e-05)
(0.00693278 0.0177836 0.000211672)
(0.00637786 0.0188774 0.000331597)
(0.00484136 0.0185839 0.000430393)
(0.00377838 0.0181484 0.000499698)
(0.00304545 0.0174765 0.000545588)
(0.00265296 0.0168252 0.000578859)
(0.00253081 0.0164525 0.000611232)
(0.015898 0.0252557 3.64824e-05)
(0.00697961 0.0178845 0.000120721)
(0.00641798 0.0189688 0.000191432)
(0.00486863 0.0186526 0.000252674)
(0.00379438 0.018196 0.000298836)
(0.00305179 0.0175095 0.000332001)
(0.00265235 0.0168529 0.000357302)
(0.00252537 0.0164837 0.000380836)
(0.0159405 0.0253202 1.18505e-05)
(0.00700084 0.0179336 3.93519e-05)
(0.00643608 0.0190147 6.27366e-05)
(0.00488067 0.0186887 8.34252e-05)
(0.00380129 0.0182225 9.94841e-05)
(0.00305451 0.0175289 0.000111402)
(0.00265222 0.0168692 0.000120691)
(0.00252359 0.0165009 0.000129224)
(-0.000950945 0.0127292 0.0107867)
(-0.00200295 0.00102937 0.00172486)
(-0.00156492 0.00161123 0.00321868)
(-0.00130429 0.000609922 0.00242228)
(-0.000931583 0.000553243 0.00227018)
(-0.000700022 0.000573215 0.00211142)
(-0.000601744 0.000689805 0.00206914)
(-0.000599207 0.000756795 0.00208554)
(-0.00193882 0.00926526 0.00561662)
(-0.00345367 0.00220381 0.00190169)
(-0.00243126 0.00203953 0.00225063)
(-0.0017878 0.00130462 0.00207417)
(-0.00117854 0.00103994 0.0020817)
(-0.00080154 0.000889477 0.00208572)
(-0.000610271 0.000848514 0.00211269)
(-0.000528586 0.000863323 0.00210804)
(-0.00200461 0.00471013 0.00269927)
(-0.00361462 0.00364237 0.00135352)
(-0.00255415 0.00280921 0.0016434)
(-0.00176659 0.00214655 0.00179581)
(-0.00114473 0.00161628 0.00193667)
(-0.000774685 0.00124915 0.00204491)
(-0.000599495 0.00104068 0.00212612)
(-0.000527767 0.00100549 0.00218123)
(-0.00112123 0.000918851 -0.00174821)
(-0.00212628 0.00465821 0.000777639)
(-0.00160434 0.00349397 0.000781725)
(-0.00118025 0.00284197 0.00140963)
(-0.000828545 0.00208765 0.0017594)
(-0.00064597 0.00152876 0.00201747)
(-0.000606588 0.00117227 0.00217287)
(-0.000639086 0.00110553 0.00220654)
(0.006851 -0.0142784 -0.000648619)
(0.00198007 -0.0159845 -0.00144294)
(0.00101975 -0.018422 -0.00132811)
(-0.000361352 -0.0188142 -0.00106454)
(-0.00121989 -0.0184777 -0.000852859)
(-0.00178355 -0.0176775 -0.000733857)
(-0.00207332 -0.0168255 -0.000718859)
(-0.00207546 -0.016169 -0.000764409)
(0.0078828 -0.0157832 -0.000533912)
(0.00227955 -0.0159928 -0.00111408)
(0.000923649 -0.0182548 -0.0010761)
(-0.000437272 -0.0186458 -0.0010198)
(-0.00130406 -0.0183463 -0.000946721)
(-0.00183373 -0.0176318 -0.000900487)
(-0.00207957 -0.0168539 -0.000906803)
(-0.00204824 -0.0162352 -0.000962635)
(0.00848737 -0.0168171 -0.00030623)
(0.00248302 -0.0160518 -0.000727651)
(0.00103129 -0.0182689 -0.000836332)
(-0.000448797 -0.0186133 -0.000880026)
(-0.00136607 -0.0183099 -0.000894416)
(-0.00190631 -0.0176261 -0.000909329)
(-0.0021421 -0.0168894 -0.000943168)
(-0.00209911 -0.0163072 -0.00100563)
(0.00886099 -0.0174343 -0.000187182)
(0.00264176 -0.0162158 -0.000487183)
(0.00113846 -0.0183582 -0.000627345)
(-0.000430591 -0.0186551 -0.000716295)
(-0.0013959 -0.0183368 -0.00077604)
(-0.00195648 -0.0176561 -0.000824811)
(-0.00219455 -0.0169364 -0.000875392)
(-0.00215015 -0.0163765 -0.000938049)
(0.00909613 -0.0178254 -0.00012116)
(0.00274597 -0.0163758 -0.000332525)
(0.00121218 -0.0184686 -0.000459014)
(-0.00041105 -0.0187278 -0.000553528)
(-0.00141314 -0.0183912 -0.000624309)
(-0.00199271 -0.0177033 -0.000681762)
(-0.00223679 -0.0169867 -0.000734135)
(-0.00219526 -0.0164373 -0.000789551)
(0.0092457 -0.0180795 -7.8288e-05)
(0.00281121 -0.0165016 -0.000220707)
(0.00125825 -0.0185677 -0.000316582)
(-0.000398179 -0.0188008 -0.000394215)
(-0.00142474 -0.018448 -0.000455383)
(-0.00201846 -0.0177506 -0.000505275)
(-0.00226831 -0.0170314 -0.000548787)
(-0.00222981 -0.0164859 -0.000591753)
(0.00933565 -0.018236 -4.46864e-05)
(0.00284905 -0.0165864 -0.00012758)
(0.00128465 -0.0186394 -0.000186628)
(-0.000391231 -0.0188566 -0.000236419)
(-0.00143255 -0.0184925 -0.00027669)
(-0.00203542 -0.0177871 -0.000309689)
(-0.00228945 -0.0170642 -0.000337948)
(-0.00225328 -0.0165198 -0.000364992)
(0.00937815 -0.0183113 -1.4592e-05)
(0.00286628 -0.016629 -4.18742e-05)
(0.00129653 -0.0186765 -6.1756e-05)
(-0.000388394 -0.0188863 -7.8818e-05)
(-0.00143666 -0.0185164 -9.27763e-05)
(-0.00204396 -0.0178067 -0.000104243)
(-0.00230013 -0.0170813 -0.000113996)
(-0.00226515 -0.0165371 -0.000123215)
(0.0160454 -0.00235485 0.000766631)
(0.0161066 -0.00232798 0.000785255)
(0.016167 -0.00224716 0.000717248)
(0.0162234 -0.00218898 0.000610012)
(0.0162741 -0.00215291 0.000473277)
(0.016318 -0.0021369 0.000330782)
(0.0163509 -0.00213199 0.000193519)
(0.0163686 -0.00213144 6.34953e-05)
(0.0156822 -0.00222585 0.000865431)
(0.0157876 -0.00219475 0.000868968)
(0.0158756 -0.00215101 0.000794492)
(0.0159507 -0.00212144 0.000675872)
(0.016012 -0.00210816 0.000529844)
(0.0160607 -0.00210687 0.000375426)
(0.0160953 -0.00211055 0.000222466)
(0.0161135 -0.00211383 7.3543e-05)
(0.0156684 -0.00225842 0.000989671)
(0.015777 -0.00223829 0.000970005)
(0.0158718 -0.0022143 0.000885225)
(0.0159537 -0.00220786 0.00075043)
(0.01602 -0.00221434 0.000590421)
(0.0160714 -0.00222653 0.000421197)
(0.016107 -0.00223825 0.000251352)
(0.0161254 -0.00224521 8.34475e-05)
(0.0159612 -0.00214674 0.00108753)
(0.0160377 -0.0021235 0.00106658)
(0.0161222 -0.00213265 0.000976477)
(0.0161999 -0.00215162 0.000827198)
(0.0162648 -0.0021773 0.00065255)
(0.0163155 -0.00220156 0.000467445)
(0.0163505 -0.00222018 0.000280097)
(0.0163685 -0.00223031 9.32134e-05)
)
;
        traction        nonuniform List<vector> 
192
(
(122.489 -2.74469 -0.706839)
(122.347 -1.95238 -0.993881)
(121.71 -2.24617 -0.970297)
(120.786 -2.18962 -0.850161)
(119.72 -2.12689 -0.718714)
(118.587 -2.01177 -0.587934)
(117.447 -1.90541 -0.472272)
(116.358 -1.85055 -0.378328)
(124.212 -2.90361 -0.443694)
(123.938 -2.01556 -0.658575)
(123.175 -2.18134 -0.684155)
(122.095 -2.11959 -0.624723)
(120.845 -2.04162 -0.551243)
(119.511 -1.92959 -0.472679)
(118.166 -1.82968 -0.401371)
(116.87 -1.78444 -0.345583)
(125.272 -3.01592 -0.292136)
(124.935 -2.08348 -0.433866)
(124.101 -2.16369 -0.469302)
(122.931 -2.08339 -0.45784)
(121.573 -1.99088 -0.423338)
(120.121 -1.87719 -0.380657)
(118.652 -1.78038 -0.338604)
(117.229 -1.74304 -0.30563)
(126.009 -3.09304 -0.201872)
(125.64 -2.12681 -0.300071)
(124.759 -2.17556 -0.331663)
(123.526 -2.07048 -0.336617)
(122.096 -1.96475 -0.324384)
(120.563 -1.84572 -0.303246)
(119.008 -1.74878 -0.279721)
(117.497 -1.71576 -0.260756)
(126.526 -3.14556 -0.139277)
(126.138 -2.15718 -0.207253)
(125.224 -2.19147 -0.232316)
(123.95 -2.07025 -0.241737)
(122.469 -1.95354 -0.239953)
(120.88 -1.82859 -0.23104)
(119.266 -1.72985 -0.219044)
(117.693 -1.69845 -0.208965)
(126.879 -3.1807 -0.0917242)
(126.479 -2.1784 -0.136706)
(125.545 -2.20532 -0.154736)
(124.241 -2.07444 -0.163567)
(122.727 -1.95008 -0.165529)
(121.101 -1.82024 -0.162628)
(119.447 -1.71935 -0.157159)
(117.832 -1.68817 -0.152351)
(127.1 -3.20248 -0.0522044)
(126.693 -2.19203 -0.0777832)
(125.746 -2.21519 -0.0887278)
(124.425 -2.07885 -0.0947691)
(122.89 -1.94979 -0.0970681)
(121.24 -1.81666 -0.0965847)
(119.562 -1.71408 -0.0944614)
(117.921 -1.68263 -0.0924732)
(127.205 -3.2126 -0.0168944)
(126.793 -2.19855 -0.0251136)
(125.841 -2.22037 -0.0288201)
(124.513 -2.08152 -0.0309773)
(122.968 -1.95024 -0.0319328)
(121.307 -1.81546 -0.0319838)
(119.617 -1.71194 -0.0314689)
(117.963 -1.68026 -0.0309463)
(1.35898 -1.49926 114.613)
(1.68177 -0.192359 114.384)
(1.50189 -0.267705 114.246)
(1.26046 -0.158436 114.078)
(0.987288 -0.149768 113.894)
(0.726092 -0.147357 113.69)
(0.486114 -0.16139 113.475)
(0.265384 -0.194844 113.27)
(1.35205 -1.02682 110.749)
(1.71881 -0.242193 110.645)
(1.47258 -0.217628 110.555)
(1.20041 -0.130209 110.45)
(0.915951 -0.0940047 110.342)
(0.656242 -0.0701657 110.237)
(0.425316 -0.061473 110.123)
(0.221965 -0.0761547 109.999)
(1.34344 -0.488383 107.109)
(1.71836 -0.339826 107.073)
(1.46996 -0.219282 107.011)
(1.18241 -0.124719 106.951)
(0.89642 -0.0496984 106.902)
(0.637587 0.00505673 106.864)
(0.408592 0.0410743 106.823)
(0.206953 0.049747 106.754)
(1.33179 -0.0542954 103.156)
(1.64765 -0.359023 103.189)
(1.45138 -0.192848 103.183)
(1.18831 -0.0896676 103.218)
(0.913947 0.0141514 103.281)
(0.656118 0.0935068 103.364)
(0.421459 0.152686 103.448)
(0.206431 0.18292 103.485)
(-95.473 1.38673 0.690044)
(-95.5167 1.60937 0.89357)
(-96.0762 1.83945 0.80798)
(-96.9277 1.89273 0.669208)
(-97.9191 1.88805 0.521808)
(-98.969 1.84966 0.383083)
(-100.008 1.82357 0.262893)
(-100.955 1.84613 0.166433)
(-94.0138 1.47872 0.409315)
(-94.2298 1.54863 0.539745)
(-94.9009 1.74681 0.495468)
(-95.875 1.78761 0.426522)
(-97.0141 1.78134 0.348638)
(-98.2315 1.75286 0.272712)
(-99.4486 1.74282 0.205865)
(-100.574 1.78596 0.150737)
(-93.1345 1.54843 0.253629)
(-93.4164 1.52181 0.342523)
(-94.1509 1.70568 0.328807)
(-95.2021 1.73661 0.293899)
(-96.4324 1.72804 0.25143)
(-97.7519 1.70423 0.208381)
(-99.0772 1.7034 0.169089)
(-100.312 1.75843 0.135026)
(-92.5234 1.58901 0.169184)
(-92.8357 1.51711 0.230632)
(-93.613 1.68674 0.228289)
(-94.7204 1.70967 0.210774)
(-96.0168 1.69876 0.187193)
(-97.4092 1.67663 0.162027)
(-98.8108 1.68084 0.138041)
(-100.123 1.74317 0.116041)
(-92.1028 1.614 0.113644)
(-92.4331 1.51898 0.155594)
(-93.239 1.67923 0.157154)
(-94.385 1.69636 0.148761)
(-95.7269 1.68319 0.135902)
(-97.1695 1.66133 0.121361)
(-98.6236 1.66806 0.106869)
(-99.9889 1.73472 0.0928299)
(-91.8209 1.63001 0.0733241)
(-92.1623 1.52224 0.100691)
(-92.9869 1.67703 0.103067)
(-94.1586 1.6903 0.0992772)
(-95.531 1.67532 0.0925043)
(-97.0072 1.6532 0.0843777)
(-98.4964 1.66108 0.0759342)
(-99.8975 1.7303 0.0673832)
(-91.6468 1.63978 0.0411584)
(-91.9947 1.52502 0.0564845)
(-92.8305 1.67689 0.0583785)
(-94.018 1.68783 0.0568956)
(-95.4093 1.67162 0.0536899)
(-96.9063 1.64915 0.0496323)
(-98.4173 1.65755 0.0452891)
(-99.8403 1.72819 0.0407706)
(-91.565 1.64418 0.0132252)
(-91.9177 1.5265 0.0180735)
(-92.7579 1.67731 0.0188054)
(-93.9525 1.68713 0.0184546)
(-95.3524 1.67028 0.0175314)
(-96.859 1.6476 0.0163199)
(-98.3799 1.65621 0.0150065)
(-99.8131 1.72743 0.0136289)
(-1.71547 -113.827 -0.255405)
(-1.69214 -113.994 -0.22857)
(-1.67675 -114.102 -0.198001)
(-1.66715 -114.184 -0.165083)
(-1.66181 -114.248 -0.128783)
(-1.65942 -114.294 -0.091463)
(-1.65869 -114.325 -0.0545638)
(-1.65873 -114.342 -0.0181712)
(-1.57952 -110.123 -0.19)
(-1.55847 -110.188 -0.183774)
(-1.55054 -110.226 -0.163754)
(-1.54783 -110.253 -0.137847)
(-1.54755 -110.275 -0.108382)
(-1.54849 -110.291 -0.077444)
(-1.54968 -110.302 -0.0463598)
(-1.55043 -110.308 -0.0154487)
(-1.53949 -106.385 -0.133933)
(-1.522 -106.344 -0.151466)
(-1.51754 -106.315 -0.141675)
(-1.51775 -106.292 -0.120757)
(-1.51969 -106.276 -0.0956416)
(-1.5221 -106.265 -0.0687102)
(-1.52421 -106.259 -0.0413269)
(-1.52557 -106.257 -0.01382)
(-1.60571 -102.727 -0.0922673)
(-1.59662 -102.588 -0.125734)
(-1.59345 -102.495 -0.123028)
(-1.5939 -102.422 -0.10604)
(-1.59595 -102.369 -0.0845309)
(-1.59843 -102.332 -0.0610429)
(-1.60052 -102.308 -0.0370046)
(-1.60171 -102.299 -0.0124884)
)
;
        pressure        uniform 0;
        value           nonuniform List<vector> 
192
(
(0.00041954 0.000304652 0.000243517)
(0.000727793 0.000403719 0.00031993)
(0.00120623 0.000508814 0.00036987)
(0.00166921 0.000536183 0.00038763)
(0.00213789 0.000520565 0.000399191)
(0.00259012 0.000473009 0.000410297)
(0.00302178 0.000409712 0.00042493)
(0.00343431 0.000342739 0.000443436)
(0.000412571 0.000304737 0.000137578)
(0.000791055 0.000372522 0.000230064)
(0.00124875 0.00047347 0.000291255)
(0.00170975 0.000504366 0.000323143)
(0.00217041 0.000491705 0.000343622)
(0.00261721 0.000447282 0.000359831)
(0.00304532 0.000386365 0.000376104)
(0.00345661 0.000321288 0.00039425)
(0.000421983 0.000314964 8.36616e-05)
(0.000819217 0.000363493 0.000162171)
(0.00128342 0.000450691 0.000220441)
(0.00174389 0.000478062 0.000258781)
(0.00220166 0.000464906 0.000284934)
(0.0026454 0.000422002 0.00030502)
(0.00307126 0.000363234 0.000322865)
(0.00348163 0.000300692 0.000340632)
(0.000429844 0.000322411 5.32645e-05)
(0.000836404 0.000360926 0.000114957)
(0.00130754 0.000438917 0.00016424)
(0.00177065 0.000460246 0.000200697)
(0.00222858 0.000444492 0.000227629)
(0.00267151 0.000401193 0.000248588)
(0.00309657 0.00034335 0.000266414)
(0.00350682 0.000282552 0.000282879)
(0.00043528 0.000327368 3.45697e-05)
(0.000847699 0.000360712 8.04081e-05)
(0.0013242 0.000433033 0.000118925)
(0.00179056 0.000449371 0.000149395)
(0.00225005 0.000430505 0.000173187)
(0.00269351 0.000385855 0.000192149)
(0.00311881 0.000328 0.000208065)
(0.00352951 0.000268102 0.000222093)
(0.000438911 0.000330618 2.18565e-05)
(0.00085522 0.000361281 5.3372e-05)
(0.00133559 0.000430225 8.07703e-05)
(0.00180475 0.000443082 0.000103335)
(0.00226602 0.000421609 0.000121588)
(0.00271051 0.000375489 0.000136432)
(0.00313648 0.000317205 0.00014886)
(0.0035479 0.000257645 0.000159505)
(0.00044116 0.000332611 1.21759e-05)
(0.000859899 0.000361932 3.05922e-05)
(0.00134279 0.000428989 4.69434e-05)
(0.00181392 0.000439703 6.07271e-05)
(0.0022766 0.00041646 7.21129e-05)
(0.00272203 0.000369211 8.14954e-05)
(0.0031487 0.00031047 8.9356e-05)
(0.00356078 0.000250976 9.59749e-05)
(0.000442237 0.000333566 3.91952e-06)
(0.000862152 0.000362329 9.97687e-06)
(0.00134628 0.000428539 1.54093e-05)
(0.00181843 0.00043824 2.00383e-05)
(0.00228188 0.000414119 2.38994e-05)
(0.00272785 0.000366273 2.71018e-05)
(0.00315493 0.000307261 2.97866e-05)
(0.00356739 0.000247753 3.20294e-05)
(0.000215829 0.000186811 0.000372099)
(0.000640598 0.000219345 0.000323568)
(0.00111369 0.000295811 0.000390757)
(0.00159912 0.000311344 0.000402413)
(0.00208192 0.000297392 0.000415153)
(0.0025445 0.000259104 0.000426774)
(0.00298105 0.000207163 0.000442054)
(0.00339384 0.000148624 0.000460893)
(9.59652e-05 7.80992e-05 0.000199446)
(0.000505841 8.17348e-06 0.000265196)
(0.000992866 -2.47812e-06 0.00032002)
(0.00149951 -3.68582e-05 0.000354788)
(0.00199764 -8.09072e-05 0.00038184)
(0.00247104 -0.0001327 0.00040411)
(0.00291446 -0.00018815 0.000424601)
(0.00333036 -0.000244937 0.000444485)
(5.43894e-05 -1.04156e-05 7.45507e-05)
(0.000449573 -0.000136197 0.00016258)
(0.000932102 -0.000250718 0.000242684)
(0.00144087 -0.000349665 0.00030217)
(0.00193982 -0.000435266 0.000347005)
(0.00241331 -0.000509257 0.000380795)
(0.0028564 -0.000573959 0.000407464)
(0.00327187 -0.000631686 0.00043139)
(7.27419e-05 -0.000114383 -8.16195e-05)
(0.000473868 -0.000333216 7.87139e-05)
(0.000936499 -0.000541953 0.000171298)
(0.00142493 -0.000697415 0.000255023)
(0.0019085 -0.000814524 0.000315685)
(0.00237068 -0.000901986 0.000359361)
(0.002806 -0.000969541 0.000390591)
(0.00321757 -0.00102488 0.000414978)
(0.000172395 -0.000304348 -6.78746e-05)
(0.000525197 -0.00059125 5.09566e-05)
(0.0009693 -0.000815903 0.000144925)
(0.00143516 -0.000968117 0.000224096)
(0.00190361 -0.00107159 0.000283031)
(0.00235646 -0.00114206 0.000324969)
(0.00278767 -0.00119451 0.000354444)
(0.00319962 -0.00124081 0.000377841)
(0.000215654 -0.000334685 -3.18258e-05)
(0.000561097 -0.000624677 4.92485e-05)
(0.001002 -0.000853215 0.000123465)
(0.00146457 -0.00100343 0.000186116)
(0.00192855 -0.00110389 0.000234323)
(0.00237867 -0.00117216 0.00026998)
(0.00280925 -0.00122358 0.000296568)
(0.00322214 -0.00126974 0.000319063)
(0.000236094 -0.000352624 -1.06054e-05)
(0.000585561 -0.000639385 4.69997e-05)
(0.00102801 -0.000873733 0.000102309)
(0.00149003 -0.0010262 0.000150988)
(0.00195297 -0.00112793 0.000189585)
(0.00240232 -0.00119732 0.0002192)
(0.00283301 -0.00124998 0.000242398)
(0.0032471 -0.00129736 0.000262945)
(0.000246929 -0.000363139 -9.38032e-07)
(0.000601946 -0.000649064 4.09404e-05)
(0.00104758 -0.000887324 8.19396e-05)
(0.001511 -0.00104294 0.00011887)
(0.00197476 -0.00114707 0.000149036)
(0.00242472 -0.00121837 0.000172938)
(0.00285624 -0.0012727 0.000192354)
(0.00327168 -0.00132141 0.000210016)
(0.000253459 -0.000369745 2.59901e-06)
(0.000612987 -0.00065614 3.26684e-05)
(0.001062 -0.000897358 6.23426e-05)
(0.00152755 -0.00105574 8.94391e-05)
(0.00199285 -0.00116219 0.000112113)
(0.002444 -0.00123534 0.000130554)
(0.00287665 -0.00129115 0.00014592)
(0.00329337 -0.00134101 0.000160077)
(0.000257629 -0.000374018 3.12502e-06)
(0.000620429 -0.000661252 2.34868e-05)
(0.00107226 -0.000904702 4.36491e-05)
(0.00153986 -0.0010652 6.22249e-05)
(0.00200673 -0.0011735 7.80415e-05)
(0.00245912 -0.00124811 9.11562e-05)
(0.00289285 -0.00130505 0.000102269)
(0.00331066 -0.00135577 0.000112557)
(0.000260179 -0.00037664 2.25835e-06)
(0.000625104 -0.000664605 1.40786e-05)
(0.0010789 -0.000909561 2.57991e-05)
(0.00154802 -0.00107148 3.66591e-05)
(0.00201611 -0.00118102 4.60105e-05)
(0.00246947 -0.00125662 5.38617e-05)
(0.00290403 -0.00131431 6.05819e-05)
(0.00332261 -0.00136561 6.681e-05)
(0.000261398 -0.000377899 8.05686e-07)
(0.000627368 -0.00066627 4.68385e-06)
(0.00108217 -0.000911983 8.53118e-06)
(0.00155209 -0.00107461 1.21061e-05)
(0.00202083 -0.00118478 1.52013e-05)
(0.00247472 -0.00126087 1.78159e-05)
(0.00290971 -0.00131892 2.00643e-05)
(0.0033287 -0.00137052 2.2148e-05)
(0.0036019 0.000109728 0.000444407)
(0.00362464 8.8288e-05 0.000392578)
(0.0036511 6.83578e-05 0.000337308)
(0.0036775 5.05179e-05 0.000278782)
(0.00370114 3.60222e-05 0.000217963)
(0.00372024 2.52768e-05 0.000155999)
(0.0037336 1.82802e-05 9.36335e-05)
(0.00374045 1.48491e-05 3.12078e-05)
(0.00353299 -0.000283552 0.000428953)
(0.00355632 -0.000306726 0.000375602)
(0.00358337 -0.000328816 0.000319828)
(0.00361014 -0.000348292 0.000262341)
(0.00363391 -0.000364195 0.000203952)
(0.00365297 -0.000376107 0.000145393)
(0.00366621 -0.000383963 8.70491e-05)
(0.00367299 -0.000387851 2.89779e-05)
(0.00347432 -0.000672485 0.000416496)
(0.00349773 -0.000698178 0.000361126)
(0.00352479 -0.000722464 0.000304779)
(0.00355147 -0.000743812 0.000248088)
(0.00357506 -0.000761265 0.000191746)
(0.00359387 -0.000774408 0.000136128)
(0.0036069 -0.000783137 8.12884e-05)