/*--------------------------------*- C++ -*----------------------------------*\
| =========                 |                                                 |
| \\      /  F ield         | foam-extend: Open Source CFD                    |
|  \\    /   O peration     | Version:     3.1                                |
|   \\  /    A nd           | Web:         http://www.extend-project.de       |
|    \\/     M anipulation  |                                                 |
\*---------------------------------------------------------------------------*/
FoamFile
{
    version     2.0;
    format      ascii;
    class       volVectorField;
    location    "0.3";
    object      D_0;
}
// * * * * * * * * * * * * * * * * * * * * * * * * * * * * * * * * * * * * * //

dimensions      [0 1 0 0 0 0 0];

internalField   nonuniform List<vector> 
256
(
(0.000114546 3.82473e-06 0.000114966)
(6.18789e-05 -2.43639e-05 6.98873e-05)
(3.73637e-05 -3.62984e-05 3.51943e-05)
(2.95585e-05 -5.77792e-05 -3.59235e-06)
(0.000304155 6.74952e-05 0.000153176)
(0.000246872 -2.35001e-05 0.00013389)
(0.000214244 -8.50991e-05 9.92711e-05)
(0.000205336 -0.000164732 7.09485e-05)
(0.000492627 8.02935e-05 0.000182629)
(0.000438013 -3.56011e-05 0.000163586)
(0.000402579 -0.000131715 0.000140649)
(0.000387423 -0.000243918 0.000120893)
(0.000675265 7.6965e-05 0.000198525)
(0.000627772 -5.46196e-05 0.000185106)
(0.000592754 -0.000172798 0.000170125)
(0.000571259 -0.000303145 0.000157606)
(0.000848202 5.75878e-05 0.000210139)
(0.000805836 -8.02661e-05 0.000200575)
(0.000771435 -0.000209889 0.000190925)
(0.000745358 -0.000347611 0.000182699)
(0.00100863 2.94667e-05 0.000220222)
(0.000969824 -0.000109563 0.000212901)
(0.000935731 -0.000243906 0.000205908)
(0.000906414 -0.000382909 0.000199516)
(0.0011571 -3.17218e-06 0.000230317)
(0.00112045 -0.000140756 0.000223644)
(0.00108646 -0.000275829 0.000217505)
(0.00105506 -0.00041323 0.000211342)
(0.00129674 -3.71725e-05 0.00024083)
(0.00126095 -0.000172724 0.000234045)
(0.0012269 -0.000306637 0.000228202)
(0.00119459 -0.000441852 0.000221561)
(0.000112293 -4.55194e-06 6.51633e-05)
(6.58849e-05 -3.25481e-05 4.25301e-05)
(4.57369e-05 -4.3969e-05 2.30289e-05)
(4.39566e-05 -6.50419e-05 3.11526e-06)
(0.000323903 4.58044e-05 0.00011094)
(0.000258331 -4.48168e-05 9.65019e-05)
(0.000222909 -0.000105301 7.49136e-05)
(0.000214823 -0.000184506 5.7146e-05)
(0.000508992 6.23774e-05 0.000143751)
(0.000452451 -5.49271e-05 0.000129613)
(0.000415086 -0.000151975 0.000113069)
(0.000397877 -0.000265059 9.85656e-05)
(0.000689767 6.06154e-05 0.000164255)
(0.000640496 -7.20469e-05 0.000152589)
(0.000603844 -0.00019117 0.000140567)
(0.000580444 -0.000322478 0.000130078)
(0.000860153 4.32738e-05 0.000178404)
(0.000816772 -9.54616e-05 0.000169113)
(0.000781112 -0.000225975 0.000160315)
(0.000753441 -0.000364614 0.000152331)
(0.00101878 1.64553e-05 0.000189659)
(0.000979298 -0.000123192 0.000181824)
(0.000944377 -0.000258226 0.000174746)
(0.000914019 -0.000398017 0.000167882)
(0.00116619 -1.53814e-05 0.00019984)
(0.00112914 -0.000153476 0.000192583)
(0.00109474 -0.000289166 0.000186137)
(0.00106292 -0.00042729 0.000179445)
(0.00130555 -4.89957e-05 0.000209936)
(0.00126955 -0.000185037 0.000202884)
(0.00123539 -0.000319652 0.000196759)
(0.00120308 -0.000455595 0.000189931)
(0.000113581 -4.63771e-06 4.02261e-05)
(6.73413e-05 -3.34654e-05 2.82198e-05)
(4.85127e-05 -4.53564e-05 1.71942e-05)
(4.96881e-05 -6.71925e-05 6.48323e-06)
(0.000334347 3.67685e-05 8.00212e-05)
(0.000265193 -5.38536e-05 6.99847e-05)
(0.000228773 -0.000113353 5.67093e-05)
(0.000222502 -0.000192254 4.57084e-05)
(0.000522525 5.01403e-05 0.000110533)
(0.00046271 -6.71787e-05 0.000100137)
(0.000423494 -0.000163685 8.86317e-05)
(0.000405935 -0.000276289 7.83297e-05)
(0.000703169 4.72214e-05 0.000131879)
(0.000651677 -8.525e-05 0.000122251)
(0.000613339 -0.000204084 0.000112878)
(0.000588875 -0.000335155 0.000104371)
(0.000872611 3.01543e-05 0.000147145)
(0.000827751 -0.000108525 0.00013861)
(0.000790753 -0.000239055 0.000130882)
(0.000761941 -0.000377774 0.000123555)
(0.00103011 3.97229e-06 0.00015896)
(0.00098973 -0.000135808 0.000151195)
(0.000953889 -0.000271133 0.000144392)
(0.000922618 -0.000411316 0.000137568)
(0.00117667 -2.71936e-05 0.000169082)
(0.00113915 -0.00016568 0.000161685)
(0.00110423 -0.000301915 0.000155257)
(0.00107187 -0.000440699 0.000148457)
(0.00131572 -6.02303e-05 0.000178629)
(0.00127957 -0.000196917 0.000171507)
(0.00124521 -0.000332298 0.000165377)
(0.00121269 -0.000469123 0.000158558)
(0.000115096 -4.22915e-06 2.61007e-05)
(6.82916e-05 -3.36972e-05 1.94214e-05)
(4.98219e-05 -4.58629e-05 1.30759e-05)
(5.23427e-05 -6.82477e-05 7.05233e-06)
(0.000340816 3.28976e-05 5.77213e-05)
(0.000269837 -5.82153e-05 5.09306e-05)
(0.000233031 -0.000117249 4.26266e-05)
(0.000227977 -0.000196124 3.5683e-05)
(0.00053211 4.27098e-05 8.33663e-05)
(0.000470293 -7.47177e-05 7.58549e-05)
(0.00043 -0.00017076 6.78899e-05)
(0.000412484 -0.00028305 6.06264e-05)
(0.000713939 3.76537e-05 0.000102711)
(0.000660833 -9.46443e-05 9.51687e-05)
(0.000621321 -0.000213149 8.80039e-05)
(0.000596274 -0.000344049 8.12851e-05)
(0.000883546 1.97156e-05 0.000117238)
(0.000837519 -0.000118804 0.000109976)
(0.000799504 -0.000249234 0.000103492)
(0.00076991 -0.000388007 9.71561e-05)
(0.00104072 -6.61232e-06 0.000128563)
(0.000999604 -0.000146396 0.000121555)
(0.000963008 -0.000281896 0.00011545)
(0.000931022 -0.000422398 0.000109206)
(0.00118693 -3.75459e-05 0.000138047)
(0.00114901 -0.000176288 0.000131172)
(0.00111362 -0.000312977 0.000125221)
(0.00108075 -0.000452336 0.000118873)
(0.00132594 -7.01791e-05 0.000146632)
(0.00128965 -0.000207382 0.000139971)
(0.00125505 -0.000343467 0.00013425)
(0.00122221 -0.0004811 0.000127898)
(0.000116307 -3.91082e-06 1.7238e-05)
(6.90211e-05 -3.37979e-05 1.3376e-05)
(5.06685e-05 -4.61298e-05 9.66463e-06)
(5.3888e-05 -6.88707e-05 6.15024e-06)
(0.000345243 3.11038e-05 4.08797e-05)
(0.000273196 -6.05538e-05 3.63592e-05)
(0.000236201 -0.000119457 3.11138e-05)
(0.000231878 -0.000198544 2.6669e-05)
(0.000538934 3.83952e-05 6.08633e-05)
(0.000475962 -7.93749e-05 5.55532e-05)
(0.000435087 -0.000175253 5.0099e-05)
(0.000417675 -0.000287556 4.50362e-05)
(0.00072218 3.13236e-05 7.66947e-05)
(0.000668046 -0.000101089 7.10458e-05)
(0.000627812 -0.000219474 6.57463e-05)
(0.000602436 -0.000350415 6.06497e-05)
(0.000892426 1.21464e-05 8.90577e-05)
(0.0008456 -0.000126406 8.32997e-05)
(0.000806901 -0.000256841 7.81693e-05)
(0.000776784 -0.000395771 7.30491e-05)
(0.00104978 -1.47537e-05 9.88628e-05)
(0.00100811 -0.00015463 9.30641e-05)
(0.000970958 -0.000290317 8.80006e-05)
(0.00093844 -0.000431138 8.27611e-05)
(0.00119601 -4.57895e-05 0.000107018)
(0.00115776 -0.000184787 0.000101191)
(0.00112198 -0.000321869 9.61374e-05)
(0.00108867 -0.000461727 9.07277e-05)
(0.00133516 -7.82392e-05 0.00011418)
(0.00129873 -0.000215899 0.000108479)
(0.00126388 -0.000352581 0.000103581)
(0.0012307 -0.000490892 9.81563e-05)
(0.000117183 -3.6901e-06 1.10405e-05)
(6.95751e-05 -3.38534e-05 8.80156e-06)
(5.1271e-05 -4.62896e-05 6.65336e-06)
(5.48885e-05 -6.92666e-05 4.59984e-06)
(0.000348298 3.0261e-05 2.73464e-05)
(0.000275609 -6.18705e-05 2.44644e-05)
(0.000238512 -0.000120804 2.12332e-05)
(0.000234623 -0.000200172 1.84545e-05)
(0.000543713 3.59347e-05 4.15322e-05)
(0.000480075 -8.22318e-05 3.79836e-05)
(0.000438887 -0.000178141 3.4417e-05)
(0.000421558 -0.000290624 3.10535e-05)
(0.000728168 2.73422e-05 5.31325e-05)
(0.000673422 -0.000105329 4.92032e-05)
(0.000632763 -0.00022376 4.55417e-05)
(0.000607193 -0.000354871 4.19562e-05)
(0.000899121 7.04726e-06 6.24429e-05)
(0.000851792 -0.000131675 5.8285e-05)
(0.000812658 -0.000262215 5.45755e-05)
(0.000782199 -0.000401361 5.08218e-05)
(0.00105683 -2.04997e-05 6.99447e-05)
(0.00101479 -0.000160551 6.56363e-05)
(0.000977257 -0.000296443 6.18599e-05)
(0.00094436 -0.000437564 5.79248e-05)
(0.00120326 -5.17784e-05 7.61798e-05)
(0.00116476 -0.000191037 7.17745e-05)
(0.00112869 -0.000328457 6.79443e-05)
(0.00109502 -0.000468724 6.38388e-05)
(0.00134266 -8.41956e-05 8.15382e-05)
(0.00130607 -0.000222252 7.71937e-05)
(0.00127099 -0.000359413 7.34588e-05)
(0.00123751 -0.000498252 6.93315e-05)
(0.000117751 -3.55155e-06 6.20071e-06)
(6.99514e-05 -3.38849e-05 5.02056e-06)
(5.16708e-05 -4.63841e-05 3.89521e-06)
(5.55134e-05 -6.95086e-05 2.80622e-06)
(0.000350248 2.98797e-05 1.57432e-05)
(0.000277191 -6.25936e-05 1.41346e-05)
(0.000240041 -0.0001216 1.23682e-05)
(0.000236398 -0.000201207 1.08307e-05)
(0.000546786 3.46056e-05 2.41968e-05)
(0.000482779 -8.38838e-05 2.2153e-05)
(0.000441426 -0.000179887 2.0126e-05)
(0.000424149 -0.000292567 1.81921e-05)
(0.00073209 2.50329e-05 3.12435e-05)
(0.000677002 -0.00010789 2.89228e-05)
(0.000636107 -0.000226423 2.67682e-05)
(0.000610427 -0.000357718 2.46341e-05)
(0.000903599 3.94612e-06 3.69967e-05)
(0.000855981 -0.000134968 3.44852e-05)
(0.000816591 -0.000265635 3.22412e-05)
(0.000785923 -0.000404979 2.99517e-05)
(0.00106164 -2.411e-05 4.16838e-05)
(0.00101937 -0.00016434 3.90362e-05)
(0.000981602 -0.000300411 3.67089e-05)
(0.000948461 -0.000441768 3.42744e-05)
(0.00120829 -5.56214e-05 4.55827e-05)
(0.00116963 -0.000195101 4.28461e-05)
(0.00113335 -0.000332774 4.04621e-05)
(0.00109944 -0.000473335 3.79061e-05)
(0.00134792 -8.807e-05 4.88871e-05)
(0.0013112 -0.000226426 4.61736e-05)
(0.00127595 -0.000363928 4.38401e-05)
(0.00124224 -0.000503131 4.1266e-05)
(0.000118031 -3.48435e-06 2.00375e-06)
(7.01413e-05 -3.38995e-05 1.63371e-06)
(5.1871e-05 -4.64286e-05 1.28247e-06)
(5.58164e-05 -6.96248e-05 9.39878e-07)
(0.000351201 2.97346e-05 5.14412e-06)
(0.000277977 -6.29166e-05 4.62622e-06)
(0.000240804 -0.000121975 4.06301e-06)
(0.000237273 -0.000201713 3.56948e-06)
(0.000548295 3.40242e-05 7.95055e-06)
(0.000484123 -8.46426e-05 7.28226e-06)
(0.000442698 -0.000180714 6.62357e-06)
(0.000425445 -0.000293514 5.9913e-06)
(0.000734034 2.39763e-05 1.03112e-05)
(0.000678793 -0.000109094 9.54315e-06)
(0.000637793 -0.000227701 8.83123e-06)
(0.000612061 -0.000359108 8.12219e-06)
(0.000905843 2.48707e-06 1.22544e-05)
(0.000858093 -0.000136545 1.14144e-05)
(0.000818584 -0.000267295 1.06632e-05)
(0.000787816 -0.000406754 9.89397e-06)
(0.00106407 -2.58414e-05 1.38463e-05)
(0.0010217 -0.000166181 1.29536e-05)
(0.000983816 -0.000302356 1.21678e-05)
(0.000950554 -0.000443842 1.13444e-05)
(0.00121086 -5.74881e-05 1.51714e-05)
(0.00117211 -0.000197094 1.4244e-05)
(0.00113573 -0.000334904 1.34352e-05)
(0.0011017 -0.00047562 1.25681e-05)
(0.00135063 -8.99689e-05 1.62867e-05)
(0.00131384 -0.000228487 1.53647e-05)
(0.00127849 -0.000366168 1.45717e-05)
(0.00124466 -0.000505558 1.36977e-05)
)
;

boundaryField
{
    interface
    {
        type            tractionDisplacement;
        gradient        nonuniform List<vector> 
192
(
(0.0012504 8.90088e-08 -6.27537e-06)
(0.00125106 2.32615e-07 -7.48491e-06)
(0.0012496 5.25483e-07 -7.47543e-06)
(0.00124673 8.45864e-07 -7.27339e-06)
(0.00124237 1.23213e-06 -6.95727e-06)
(0.00123606 1.75972e-06 -6.48764e-06)
(0.00122701 2.65546e-06 -5.77696e-06)
(0.00121237 4.4017e-06 -4.57372e-06)
(0.00127836 1.58951e-07 -4.18175e-06)
(0.00127813 3.40733e-07 -4.98588e-06)
(0.00127606 6.81215e-07 -4.94782e-06)
(0.00127234 1.07974e-06 -4.77587e-06)
(0.0012667 1.57845e-06 -4.5173e-06)
(0.00125852 2.26978e-06 -4.14438e-06)
(0.00124668 3.43378e-06 -3.60938e-06)
(0.00122774 5.61186e-06 -2.83028e-06)
(0.0012969 2.0556e-07 -2.92788e-06)
(0.00129628 4.22773e-07 -3.50022e-06)
(0.00129375 8.10625e-07 -3.4639e-06)
(0.00128935 1.27314e-06 -3.32432e-06)
(0.00128271 1.85533e-06 -3.11929e-06)
(0.00127309 2.65704e-06 -2.83373e-06)
(0.00125927 3.97152e-06 -2.44508e-06)
(0.00123752 6.33252e-06 -1.9299e-06)
(0.00131022 2.36666e-07 -2.12187e-06)
(0.00130939 4.82114e-07 -2.53952e-06)
(0.00130652 9.12912e-07 -2.50899e-06)
(0.00130157 1.426e-06 -2.39958e-06)
(0.00129415 2.06871e-06 -2.2415e-06)
(0.00128345 2.94405e-06 -2.02736e-06)
(0.00126819 4.35007e-06 -1.74696e-06)
(0.00124452 6.81512e-06 -1.39307e-06)
(0.00131978 2.59652e-07 -1.51365e-06)
(0.00131882 5.26652e-07 -1.81147e-06)
(0.00131569 9.91037e-07 -1.78752e-06)
(0.00131032 1.54199e-06 -1.7059e-06)
(0.0013023 2.22756e-06 -1.58946e-06)
(0.00129082 3.15197e-06 -1.43486e-06)
(0.00127453 4.6157e-06 -1.23756e-06)
(0.00124954 7.14639e-06 -9.95544e-07)
(0.00132642 2.76131e-07 -1.01788e-06)
(0.00132536 5.58719e-07 -1.21811e-06)
(0.00132204 1.04754e-06 -1.20117e-06)
(0.00131638 1.62535e-06 -1.14496e-06)
(0.00130794 2.34023e-06 -1.06545e-06)
(0.0012959 3.29691e-06 -9.61283e-07)
(0.00127891 4.79762e-06 -8.30326e-07)
(0.00125304 7.37104e-06 -6.71486e-07)
(0.00133063 2.87035e-07 -5.86262e-07)
(0.00132951 5.79709e-07 -7.01327e-07)
(0.00132607 1.08477e-06 -6.91544e-07)
(0.00132021 1.68017e-06 -6.58841e-07)
(0.00131151 2.41383e-06 -6.12817e-07)
(0.00129912 3.39091e-06 -5.5309e-07)
(0.00128169 4.9157e-06 -4.77739e-07)
(0.00125526 7.51474e-06 -3.82182e-07)
(0.00133265 2.92824e-07 -1.90632e-07)
(0.00133149 5.90077e-07 -2.27698e-07)
(0.001328 1.10224e-06 -2.24725e-07)
(0.00132205 1.70638e-06 -2.14081e-07)
(0.00131322 2.44881e-06 -1.99112e-07)
(0.00130067 3.43614e-06 -1.79825e-07)
(0.00128303 4.97701e-06 -1.55001e-07)
(0.00125626 7.58408e-06 -1.20792e-07)
(1.09308e-05 7.23725e-08 0.00114973)
(1.30776e-05 1.27851e-07 0.00114889)
(1.31548e-05 1.98457e-07 0.00114824)
(1.29808e-05 2.92527e-07 0.0011473)
(1.2715e-05 4.04896e-07 0.00114595)
(1.23458e-05 5.36693e-07 0.00114413)
(1.18492e-05 6.86119e-07 0.00114175)
(1.13079e-05 8.03277e-07 0.00113874)
(1.00547e-05 2.11513e-08 0.0010997)
(1.20342e-05 3.77271e-08 0.00109949)
(1.21003e-05 5.67502e-08 0.0010993)
(1.19489e-05 8.24212e-08 0.00109902)
(1.17254e-05 1.12105e-07 0.00109863)
(1.14243e-05 1.44074e-07 0.00109811)
(1.10382e-05 1.71046e-07 0.00109746)
(1.0708e-05 1.6209e-07 0.00109671)
(1.00418e-05 -2.70428e-08 0.00105277)
(1.20188e-05 -4.56996e-08 0.00105298)
(1.20844e-05 -6.9588e-08 0.00105321)
(1.1933e-05 -1.00411e-07 0.00105354)
(1.171e-05 -1.3707e-07 0.001054)
(1.141e-05 -1.80176e-07 0.00105463)
(1.10258e-05 -2.2871e-07 0.00105544)
(1.06983e-05 -2.6355e-07 0.00105648)
(1.09054e-05 -8.04064e-08 0.00100291)
(1.30452e-05 -1.36982e-07 0.00100376)
(1.312e-05 -2.11694e-07 0.00100444)
(1.29457e-05 -3.09713e-07 0.00100544)
(1.26804e-05 -4.27843e-07 0.00100685)
(1.23126e-05 -5.69225e-07 0.00100876)
(1.18188e-05 -7.38586e-07 0.00101129)
(1.12818e-05 -8.99354e-07 0.00101456)
(-0.000903606 -9.63547e-08 6.85177e-06)
(-0.000902881 -2.51564e-07 8.12936e-06)
(-0.000904348 -5.72774e-07 8.11249e-06)
(-0.00090722 -9.20022e-07 7.89131e-06)
(-0.000911576 -1.33875e-06 7.54482e-06)
(-0.000917854 -1.91504e-06 7.02877e-06)
(-0.00092686 -2.91625e-06 6.2435e-06)
(-0.00094155 -4.95238e-06 4.89368e-06)
(-0.000876477 -1.72336e-07 4.42126e-06)
(-0.000876696 -3.68407e-07 5.23941e-06)
(-0.000878763 -7.40343e-07 5.19106e-06)
(-0.000882477 -1.17274e-06 5.00456e-06)
(-0.000888098 -1.71422e-06 4.72407e-06)
(-0.000896245 -2.4707e-06 4.31857e-06)
(-0.000908024 -3.77243e-06 3.7342e-06)
(-0.000927051 -6.30466e-06 2.87503e-06)
(-0.000858904 -2.23527e-07 3.02815e-06)
(-0.000859518 -4.57468e-07 3.59773e-06)
(-0.000862036 -8.80012e-07 3.55226e-06)
(-0.00086643 -1.38156e-06 3.40144e-06)
(-0.000873045 -2.0136e-06 3.18024e-06)
(-0.000882602 -2.89053e-06 2.87178e-06)
(-0.000896351 -4.35875e-06 2.45083e-06)
(-0.000918167 -7.09737e-06 1.88924e-06)
(-0.00084644 -2.57774e-07 2.16159e-06)
(-0.000847264 -5.21851e-07 2.57079e-06)
(-0.000850126 -9.90306e-07 2.53274e-06)
(-0.00085506 -1.54618e-06 2.41474e-06)
(-0.000862449 -2.24345e-06 2.24466e-06)
(-0.000873069 -3.20009e-06 2.01421e-06)
(-0.000888236 -4.76849e-06 1.71208e-06)
(-0.000911949 -7.62329e-06 1.32891e-06)
(-0.000837595 -2.83051e-07 1.52365e-06)
(-0.00083856 -5.70096e-07 1.81175e-06)
(-0.000841682 -1.07445e-06 1.78199e-06)
(-0.000847026 -1.67087e-06 1.69407e-06)
(-0.000854997 -2.41412e-06 1.56902e-06)
(-0.000866396 -3.42352e-06 1.40308e-06)
(-0.00088257 -5.05455e-06 1.19126e-06)
(-0.000907581 -7.98206e-06 9.30362e-07)
(-0.000831511 -3.01135e-07 1.01526e-06)
(-0.000832571 -6.04765e-07 1.20705e-06)
(-0.000835879 -1.13523e-06 1.18601e-06)
(-0.000841519 -1.76034e-06 1.1255e-06)
(-0.000849902 -2.53489e-06 1.04024e-06)
(-0.000861845 -3.57878e-06 9.28656e-07)
(-0.000878708 -5.24964e-06 7.88457e-07)
(-0.000904589 -8.22417e-06 6.17775e-07)
(-0.000827684 -3.13066e-07 5.81157e-07)
(-0.000828802 -6.27424e-07 6.90621e-07)
(-0.00083223 -1.17521e-06 6.7841e-07)
(-0.000838059 -1.81904e-06 6.43226e-07)
(-0.000846706 -2.61357e-06 5.93914e-07)
(-0.000858993 -3.67914e-06 5.30029e-07)
(-0.000876286 -5.37574e-06 4.49542e-07)
(-0.000902707 -8.37837e-06 3.46949e-07)
(-0.000825854 -3.19376e-07 1.88378e-07)
(-0.000827006 -6.38536e-07 2.23531e-07)
(-0.000830489 -1.19398e-06 2.19753e-07)
(-0.000836409 -1.8471e-06 2.083e-07)
(-0.000845182 -2.65092e-06 1.92268e-07)
(-0.000857629 -3.72725e-06 1.71653e-07)
(-0.000875121 -5.44102e-06 1.45178e-07)
(-0.000901879 -8.45211e-06 1.08378e-07)
(1.13077e-05 -0.00113956 -9.86196e-07)
(1.18661e-05 -0.00114323 -8.3836e-07)
(1.23873e-05 -0.00114616 -6.69958e-07)
(1.27835e-05 -0.00114847 -5.21832e-07)
(1.30767e-05 -0.00115024 -3.91006e-07)
(1.32868e-05 -0.00115152 -2.72808e-07)
(1.34306e-05 -0.00115236 -1.66012e-07)
(1.35055e-05 -0.00115283 -5.78898e-08)
(1.07333e-05 -0.00109747 -3.23353e-07)
(1.10861e-05 -0.00109878 -2.9851e-07)
(1.14951e-05 -0.00109989 -2.50886e-07)
(1.18192e-05 -0.0011008 -2.02547e-07)
(1.20647e-05 -0.00110151 -1.55909e-07)
(1.22434e-05 -0.00110204 -1.10734e-07)
(1.23687e-05 -0.0011024 -6.67961e-08)
(1.24387e-05 -0.00110257 -2.25708e-08)
(1.07338e-05 -0.00105712 1.29308e-07)
(1.10872e-05 -0.00105654 1.24779e-07)
(1.1494e-05 -0.00105609 9.54584e-08)
(1.18153e-05 -0.00105577 6.74789e-08)
(1.20582e-05 -0.00105555 4.5425e-08)
(1.22347e-05 -0.00105541 2.87838e-08)
(1.23586e-05 -0.00105532 1.65634e-08)
(1.24277e-05 -0.00105528 5.73912e-09)
(1.13263e-05 -0.00101504 7.95589e-07)
(1.18919e-05 -0.00101212 6.58727e-07)
(1.24086e-05 -0.00100987 5.05786e-07)
(1.27978e-05 -0.00100817 3.78169e-07)
(1.3084e-05 -0.00100692 2.73189e-07)
(1.32882e-05 -0.00100604 1.85436e-07)
(1.34278e-05 -0.00100548 1.12584e-07)
(1.35008e-05 -0.00100515 4.00141e-08)
)
;
        traction        nonuniform List<vector> 
192
(
(26.7942 0.00190733 -0.134472)
(26.8085 0.00498462 -0.160391)
(26.7772 0.0112604 -0.160188)
(26.7157 0.0181257 -0.155858)
(26.6222 0.0264028 -0.149084)
(26.487 0.0377082 -0.139021)
(26.293 0.0569026 -0.123792)
(25.9793 0.0943222 -0.0980083)
(27.3935 0.0034061 -0.0896089)
(27.3884 0.00730142 -0.10684)
(27.3441 0.0145975 -0.106025)
(27.2645 0.0231373 -0.10234)
(27.1437 0.033824 -0.0967993)
(26.9683 0.0486382 -0.0888082)
(26.7147 0.0735809 -0.077344)
(26.3087 0.120254 -0.0606489)
(27.7907 0.00440487 -0.0627403)
(27.7773 0.00905942 -0.0750048)
(27.7233 0.0173705 -0.0742265)
(27.6289 0.0272816 -0.0712353)
(27.4865 0.039757 -0.066842)
(27.2806 0.0569365 -0.0607228)
(26.9843 0.085104 -0.0523946)
(26.5182 0.135697 -0.0413549)
(28.0762 0.00507141 -0.0454687)
(28.0584 0.010331 -0.0544183)
(27.997 0.0195624 -0.0537641)
(27.8909 0.0305572 -0.0514196)
(27.7317 0.0443295 -0.0480322)
(27.5026 0.0630869 -0.0434433)
(27.1755 0.0932158 -0.0374349)
(26.6683 0.146038 -0.0298516)
(28.2811 0.00556398 -0.0324353)
(28.2603 0.0112854 -0.0388172)
(28.1933 0.0212365 -0.038304)
(28.0783 0.0330426 -0.0365551)
(27.9065 0.0477333 -0.0340599)
(27.6604 0.0675421 -0.0307469)
(27.3113 0.0989078 -0.0265191)
(26.7759 0.153137 -0.0213331)
(28.4234 0.00591708 -0.0218117)
(28.4006 0.0119725 -0.0261023)
(28.3295 0.0224473 -0.0257394)
(28.2081 0.034829 -0.0245348)
(28.0273 0.0501478 -0.0228311)
(27.7694 0.0706481 -0.0205989)
(27.4052 0.102806 -0.0177927)
(26.8508 0.157951 -0.014389)
(28.5135 0.00615074 -0.0125628)
(28.4894 0.0124223 -0.0150284)
(28.4158 0.023245 -0.0148188)
(28.2903 0.0360036 -0.014118)
(28.1037 0.0517248 -0.0131318)
(27.8383 0.0726623 -0.0118519)
(27.4647 0.105336 -0.0102373)
(26.8984 0.16103 -0.00818961)
(28.5567 0.00627479 -0.00408497)
(28.532 0.0126445 -0.00487923)
(28.4571 0.0236193 -0.00481554)
(28.3296 0.0365652 -0.00458744)
(28.1404 0.0524745 -0.00426669)
(27.8714 0.0736316 -0.00385339)
(27.4935 0.10665 -0.00332146)
(26.9199 0.162516 -0.00258841)
(0.234232 0.00155084 24.637)
(0.280235 0.00273965 24.6191)
(0.281888 0.00425265 24.6052)
(0.278159 0.00626843 24.5849)
(0.272465 0.00867633 24.5561)
(0.264553 0.0115006 24.5171)
(0.253912 0.0147025 24.4661)
(0.242312 0.0172131 24.4015)
(0.215458 0.000453242 23.565)
(0.257875 0.000808438 23.5605)
(0.259292 0.00121608 23.5564)
(0.256048 0.00176617 23.5504)
(0.251258 0.00240225 23.542)
(0.244806 0.00308729 23.5309)
(0.236532 0.00366528 23.517)
(0.229457 0.00347336 23.5009)
(0.215181 -0.00057949 22.5593)
(0.257546 -0.000979277 22.564)
(0.258951 -0.00149117 22.5688)
(0.255708 -0.00215167 22.5758)
(0.250929 -0.00293722 22.5858)
(0.244501 -0.00386092 22.5992)
(0.236268 -0.00490093 22.6167)
(0.22925 -0.00564749 22.6389)
(0.233687 -0.00172299 21.4909)
(0.279539 -0.00293532 21.5091)
(0.281144 -0.00453631 21.5238)
(0.277407 -0.00663671 21.5451)
(0.271722 -0.00916805 21.5754)
(0.263841 -0.0121977 21.6164)
(0.253261 -0.0158268 21.6704)
(0.241752 -0.0192719 21.7405)
(-19.363 -0.00206474 0.146824)
(-19.3475 -0.00539066 0.174201)
(-19.3789 -0.0122737 0.173839)
(-19.4404 -0.0197148 0.1691)
(-19.5338 -0.0286875 0.161675)
(-19.6683 -0.0410367 0.150616)
(-19.8613 -0.0624911 0.133789)
(-20.1761 -0.106122 0.104865)
(-18.7816 -0.00369291 0.0947413)
(-18.7863 -0.00789443 0.112273)
(-18.8306 -0.0158645 0.111237)
(-18.9102 -0.0251302 0.107241)
(-19.0307 -0.0367334 0.10123)
(-19.2052 -0.0529437 0.0925409)
(-19.4577 -0.0808377 0.0800185)
(-19.8654 -0.1351 0.0616077)
(-18.4051 -0.00478987 0.064889)
(-18.4182 -0.00980289 0.0770943)
(-18.4722 -0.0188574 0.0761199)
(-18.5664 -0.0296049 0.0728881)
(-18.7081 -0.0431486 0.0681481)
(-18.9129 -0.06194 0.0615382)
(-19.2075 -0.0934018 0.0525179)
(-19.675 -0.152086 0.0404836)
(-18.138 -0.00552373 0.0463197)
(-18.1556 -0.0111825 0.0550883)
(-18.217 -0.0212208 0.054273)
(-18.3227 -0.0331325 0.0517444)
(-18.481 -0.048074 0.0480998)
(-18.7086 -0.0685733 0.0431617)
(-19.0336 -0.102182 0.0366875)
(-19.5418 -0.163356 0.0284766)
(-17.9485 -0.00606538 0.0326497)
(-17.9691 -0.0122163 0.0388231)
(-18.036 -0.023024 0.0381856)
(-18.1506 -0.0358044 0.0363015)
(-18.3214 -0.0517312 0.0336219)
(-18.5656 -0.0733611 0.0300661)
(-18.9122 -0.108312 0.0255271)
(-19.4482 -0.171044 0.0199363)
(-17.8181 -0.00645288 0.0217555)
(-17.8408 -0.0129593 0.0258653)
(-17.9117 -0.0243264 0.0254145)
(-18.0325 -0.0377215 0.0241178)
(-18.2122 -0.0543192 0.0222908)
(-18.4681 -0.0766882 0.0198998)
(-18.8294 -0.112492 0.0168955)
(-19.3841 -0.176232 0.013238)
(-17.7361 -0.00670857 0.0124534)
(-17.7601 -0.0134448 0.014799)
(-17.8335 -0.0251831 0.0145374)
(-17.9584 -0.0389794 0.0137834)
(-18.1437 -0.0560052 0.0127267)
(-18.407 -0.0788387 0.0113578)
(-18.7775 -0.115194 0.00963305)
(-19.3437 -0.179537 0.00743463)
(-17.6969 -0.00684377 0.00403667)
(-17.7216 -0.0136829 0.00478996)
(-17.7962 -0.0255853 0.00470898)
(-17.9231 -0.0395806 0.00446357)
(-18.111 -0.0568055 0.00412003)
(-18.3778 -0.0798697 0.00367828)
(-18.7526 -0.116593 0.00311095)
(-19.326 -0.181117 0.00232238)
(0.242309 -24.4191 -0.0211328)
(0.254273 -24.4977 -0.0179648)
(0.265441 -24.5605 -0.0143563)
(0.273931 -24.61 -0.0111821)
(0.280215 -24.6479 -0.00837869)
(0.284717 -24.6755 -0.00584588)
(0.287799 -24.6935 -0.0035574)
(0.289404 -24.7035 -0.0012405)
(0.229999 -23.5171 -0.006929)
(0.237559 -23.5453 -0.00639663)
(0.246324 -23.5691 -0.00537612)
(0.253268 -23.5885 -0.00434029)
(0.25853 -23.6038 -0.00334091)
(0.262358 -23.6152 -0.00237288)
(0.265043 -23.6228 -0.00143135)
(0.266544 -23.6265 -0.00048366)
(0.23001 -22.6525 0.00277088)
(0.237582 -22.6402 0.00267384)
(0.2463 -22.6305 0.00204554)
(0.253185 -22.6237 0.00144598)
(0.25839 -22.6189 0.000973392)
(0.262173 -22.6158 0.000616796)
(0.264827 -22.614 0.00035493)
(0.266308 -22.6131 0.000122981)
(0.242706 -21.7508 0.0170483)
(0.254825 -21.6882 0.0141156)
(0.265899 -21.64 0.0108383)
(0.274239 -21.6037 0.00810362)
(0.280372 -21.5769 0.00585405)
(0.284748 -21.558 0.00397363)
(0.287739 -21.5459 0.00241252)
(0.289303 -21.5389 0.000857445)
)
;
        pressure        uniform 0;
        value           nonuniform List<vector> 
192
(
(0.000202629 0.000134961 0.000116912)
(0.000330283 0.000149215 0.000159415)
(0.000525161 0.00017225 0.000189413)
(0.000699997 0.000163229 0.000203699)
(0.000869799 0.000139644 0.000214316)
(0.00102785 0.000105975 0.00022369)
(0.00117539 6.87433e-05 0.000233582)
(0.00131513 3.20132e-05 0.000244186)
(0.000195378 0.000131849 6.67294e-05)
(0.000357861 0.000131445 0.000116751)
(0.000541743 0.000152697 0.000151205)
(0.000715856 0.000146081 0.000170816)
(0.000882398 0.000124389 0.000184188)
(0.00103854 9.24807e-05 0.000194693)
(0.00118489 5.63979e-05 0.00020442)
(0.00132422 2.03508e-05 0.000214394)
(0.000198355 0.00013553 4.1396e-05)
(0.000369714 0.000125854 8.38382e-05)
(0.000556284 0.000140338 0.000115921)
(0.000729971 0.000132354 0.000137634)
(0.000895185 0.000110662 0.000152678)
(0.00105002 7.95406e-05 0.000164124)
(0.0011954 4.43422e-05 0.000173945)
(0.00133424 9.22485e-06 0.000183413)
(0.000201557 0.000138621 2.6938e-05)
(0.00037715 0.00012396 6.03642e-05)
(0.000566741 0.000133829 8.72453e-05)
(0.000741431 0.000122957 0.00010725)
(0.000906528 0.000100072 0.000121959)
(0.00106084 6.87434e-05 0.000133235)
(0.00120573 3.38673e-05 0.000142629)
(0.00134436 -5.94222e-07 0.000151237)
(0.000203953 0.000140821 1.78205e-05)
(0.000382204 0.000123481 4.27109e-05)
(0.000574131 0.000130429 6.36154e-05)
(0.00075012 0.000117056 8.00772e-05)
(0.000915713 9.26292e-05 9.27633e-05)
(0.00107006 6.06011e-05 0.000102695)
(0.00121486 2.56364e-05 0.000110904)
(0.00135353 -8.49334e-06 0.000118162)
(0.000205618 0.000142324 1.14286e-05)
(0.000385654 0.000123535 2.85674e-05)
(0.000579265 0.000128687 4.33934e-05)
(0.00075638 0.000113515 5.5481e-05)
(0.000922601 8.77562e-05 6.50958e-05)
(0.00107723 5.49638e-05 7.27683e-05)
(0.00122216 1.97386e-05 7.91119e-05)
(0.00136101 -1.42831e-05 8.45899e-05)
(0.00020667 0.000143268 6.42452e-06)
(0.000387833 0.000123723 1.64484e-05)
(0.000582541 0.000127842 2.52807e-05)
(0.000760454 0.000111539 3.26306e-05)
(0.000927187 8.48594e-05 3.85905e-05)
(0.0010821 5.14774e-05 4.34091e-05)
(0.00122723 1.59985e-05 4.74009e-05)
(0.00136628 -1.802e-05 5.07983e-05)
(0.00020718 0.000143726 2.07701e-06)
(0.000388889 0.000123857 5.37523e-06)
(0.000584141 0.000127504 8.30711e-06)
(0.000762465 0.000110659 1.07704e-05)
(0.000929478 8.35166e-05 1.2786e-05)
(0.00108457 4.98227e-05 1.44264e-05)
(0.00122982 1.41962e-05 1.5787e-05)
(0.001369 -1.98415e-05 1.6937e-05)
(0.000110262 8.45196e-05 0.00018048)
(0.000295697 7.66772e-05 0.000163541)
(0.000486644 9.29656e-05 0.000202716)
(0.000670289 8.32079e-05 0.000214414)
(0.00084466 6.30725e-05 0.00022575)
(0.00100572 3.45732e-05 0.000235411)
(0.00115421 2.13255e-06 0.000245659)
(0.00129356 -3.1836e-05 0.000256481)
(5.29101e-05 3.94907e-05 0.000108274)
(0.00023162 -7.14978e-06 0.000147057)
(0.000428446 -2.10122e-05 0.000179421)
(0.000621076 -4.52339e-05 0.0002)
(0.000801573 -7.29282e-05 0.000215702)
(0.000966687 -0.000103467 0.000228186)
(0.00111756 -0.000135125 0.000239183)
(0.00125797 -0.000167083 0.000249652)
(2.81331e-05 5.77806e-06 5.95195e-05)
(0.000197892 -6.03185e-05 0.000110011)
(0.000392139 -0.000113107 0.00015386)
(0.000586224 -0.000159572 0.000184046)
(0.000767425 -0.000200345 0.000205626)
(0.000932804 -0.000236734 0.000221136)
(0.00108368 -0.000269835 0.00023311)
(0.00122397 -0.000300604 0.000243912)
(2.46869e-05 -3.35169e-05 -1.13118e-06)
(0.000195991 -0.000133941 7.87596e-05)
(0.000381198 -0.000221382 0.00013068)
(0.000567098 -0.000286753 0.000170256)
(0.000742438 -0.000336314 0.000197026)
(0.000903765 -0.000375009 0.00021486)
(0.00105203 -0.000407105 0.000227222)
(0.00119106 -0.000435573 0.000237293)
(5.58359e-05 -0.000125148 -6.46858e-06)
(0.000210538 -0.000246366 6.49337e-05)
(0.000385345 -0.000332543 0.000116022)
(0.000562484 -0.00039013 0.000153817)
(0.000732573 -0.000429727 0.00017953)
(0.000891367 -0.000459205 0.000196388)
(0.00103902 -0.000484626 0.000207812)
(0.00117883 -0.000509971 0.000217546)
(7.78811e-05 -0.000139445 5.52227e-07)
(0.000220147 -0.000264772 5.23567e-05)
(0.000395024 -0.000352917 9.45727e-05)
(0.000570866 -0.000408827 0.000126219)
(0.00073997 -0.00044649 0.00014858)
(0.000898526 -0.000474505 0.000164026)
(0.00104674 -0.000499138 0.000175256)
(0.00118737 -0.000524118 0.000185291)
(8.68083e-05 -0.00014652 5.04988e-06)
(0.000228588 -0.000271847 4.24431e-05)
(0.000403263 -0.000364131 7.48383e-05)
(0.000578851 -0.000421413 0.000100721)
(0.000747868 -0.000459679 0.000119739)
(0.000906573 -0.000488009 0.000133519)
(0.00105528 -0.000512913 0.000144077)
(0.00119675 -0.000538062 0.000153752)
(9.12663e-05 -0.000150477 6.16801e-06)
(0.00023465 -0.000276161 3.34019e-05)
(0.000410054 -0.000371146 5.7795e-05)
(0.000586007 -0.000430488 7.80864e-05)
(0.000755408 -0.000470111 9.36559e-05)
(0.000914524 -0.000499339 0.000105411)
(0.00106377 -0.000524881 0.000114754)
(0.00120597 -0.000550425 0.000123405)
(9.39239e-05 -0.000152959 5.56275e-06)
(0.00023891 -0.000279224 2.50509e-05)
(0.0004154 -0.000376071 4.28523e-05)
(0.000592027 -0.000437154 5.80495e-05)
(0.000761979 -0.000478138 7.01221e-05)
(0.000921593 -0.000508338 7.95454e-05)
(0.00107136 -0.000534559 8.72291e-05)
(0.00121417 -0.00056054 9.43538e-05)
(9.56339e-05 -0.000154584 4.2107e-06)
(0.000241869 -0.000281413 1.735e-05)
(0.000419366 -0.000379557 2.94968e-05)
(0.000596687 -0.000441916 4.00458e-05)
(0.000767185 -0.00048398 4.86335e-05)
(0.000927261 -0.000514991 5.55016e-05)
(0.00107747 -0.000541784 6.11988e-05)
(0.00122074 -0.000568147 6.6469e-05)
(9.66896e-05 -0.000155595 2.5804e-06)
(0.000243765 -0.000282844 1.01813e-05)
(0.000421997 -0.000381817 1.72571e-05)
(0.000599857 -0.000445001 2.34681e-05)
(0.000770776 -0.000487789 2.86031e-05)
(0.000931197 -0.000519359 3.27742e-05)
(0.00108172 -0.000546553 3.62704e-05)