/*--------------------------------*- C++ -*----------------------------------*\
| =========                 |                                                 |
| \\      /  F ield         | foam-extend: Open Source CFD                    |
|  \\    /   O peration     | Version:     3.1                                |
|   \\  /    A nd           | Web:         http://www.extend-project.de       |
|    \\/     M anipulation  |                                                 |
\*---------------------------------------------------------------------------*/
FoamFile
{
    version     2.0;
    format      ascii;
    class       pointVectorField;
    location    "0.3";
    object      pointD;
}
// * * * * * * * * * * * * * * * * * * * * * * * * * * * * * * * * * * * * * //

dimensions      [0 1 0 0 0 0 0];

internalField   nonuniform List<vector> 
405
(
(0 0 0)
(0 0 0)
(0 0 0)
(0 0 0)
(0 0 0)
(0.000555205 0.000440177 0.00035992)
(0.000364558 0.000123107 0.000290077)
(0.000276442 -1.50851e-05 0.000175443)
(0.000262643 -0.000148553 5.85563e-05)
(0.000328499 -0.000412943 -1.4525e-05)
(0.000944713 0.000472771 0.000375797)
(0.000813249 0.000130213 0.000324885)
(0.000720095 -9.5305e-05 0.00024762)
(0.00069801 -0.000315521 0.000163819)
(0.000723932 -0.000652625 0.000107687)
(0.00141979 0.000536381 0.000414006)
(0.0013013 0.000141955 0.000366994)
(0.00121634 -0.00015993 0.000304916)
(0.0011836 -0.000459938 0.000242794)
(0.00118483 -0.00085241 0.000198207)
(0.00188957 0.000535644 0.000422738)
(0.00179455 0.000122743 0.000388548)
(0.00171946 -0.000225674 0.000346451)
(0.00167853 -0.000574218 0.000304971)
(0.00165683 -0.000989044 0.00027337)
(0.00235381 0.000503827 0.000432129)
(0.00227377 8.57223e-05 0.000406969)
(0.00220545 -0.000289533 0.000378438)
(0.00215808 -0.000665258 0.000350712)
(0.00212082 -0.00108422 0.000327606)
(0.00279782 0.000449254 0.000443742)
(0.00272776 3.63541e-05 0.000424385)
(0.0026638 -0.000351017 0.000404243)
(0.00261159 -0.000738686 0.000384553)
(0.00256423 -0.00115141 0.000365897)
(0.00322054 0.000385267 0.00046015)
(0.00315493 -1.93252e-05 0.000443009)
(0.00309327 -0.000409683 0.000426985)
(0.00303796 -0.000800016 0.000411106)
(0.00298586 -0.00120342 0.000393514)
(0.00362739 0.000322764 0.000479089)
(0.0035604 -7.67861e-05 0.00046289)
(0.00349706 -0.000466338 0.000449532)
(0.00344241 -0.000855814 0.000436167)
(0.00339115 -0.00125382 0.000419017)
(0 0 0)
(0 0 0)
(0 0 0)
(0 0 0)
(0 0 0)
(0.00058774 0.000346408 0.000232772)
(0.000402123 3.10045e-05 0.000188644)
(0.000322175 -8.94735e-05 0.000118478)
(0.000304063 -0.000203614 4.67175e-05)
(0.000368586 -0.00046374 1.26198e-07)
(0.000993458 0.000439632 0.00030278)
(0.000862703 9.0594e-05 0.000259644)
(0.000774314 -0.000146868 0.000199655)
(0.000745055 -0.000379234 0.000136426)
(0.000764398 -0.000721261 9.21489e-05)
(0.00145849 0.000505708 0.000342974)
(0.00134293 0.000108435 0.000303008)
(0.00126112 -0.000203305 0.000254696)
(0.00122256 -0.000513833 0.000206257)
(0.00121776 -0.000910167 0.000169651)
(0.00192181 0.000513205 0.000363397)
(0.00182784 9.72031e-05 0.00033131)
(0.00175384 -0.000260659 0.000295521)
(0.00170868 -0.00061858 0.000260477)
(0.00168297 -0.00103676 0.000231892)
(0.00237891 0.00048314 0.000378235)
(0.00229939 6.30678e-05 0.000352705)
(0.00223137 -0.000318821 0.000326472)
(0.00218146 -0.000701056 0.000301012)
(0.00214182 -0.00112243 0.000278076)
(0.00281861 0.000429092 0.00039279)
(0.00274852 1.48287e-05 0.000371638)
(0.00268449 -0.000376784 0.000351339)
(0.00263125 -0.000768572 0.000331509)
(0.00258301 -0.00118308 0.00031149)
(0.0032395 0.000365026 0.00040968)
(0.00317348 -4.07517e-05 0.0003905)
(0.00311152 -0.000433994 0.000373333)
(0.00305641 -0.000827195 0.000356324)
(0.00300467 -0.00123216 0.000336979)
(0.00364641 0.000302746 0.000428543)
(0.00357896 -9.80655e-05 0.000410385)
(0.00351534 -0.000490235 0.000395544)
(0.00346134 -0.000882385 0.00038076)
(0.00341087 -0.00128197 0.000361915)
(0 0 0)
(0 0 0)
(0 0 0)
(0 0 0)
(0 0 0)
(0.000611207 0.000338929 0.000153369)
(0.000419888 1.35348e-05 0.000126046)
(0.000338934 -0.000106296 8.44196e-05)
(0.000324933 -0.000219647 4.20717e-05)
(0.000399602 -0.000487843 1.34543e-05)
(0.00103561 0.000415044 0.000225983)
(0.000895078 6.26829e-05 0.000194216)
(0.00080107 -0.000174344 0.000153547)
(0.000771862 -0.000406036 0.000111537)
(0.000794166 -0.000747752 8.05057e-05)
(0.00149645 0.000476647 0.000273405)
(0.0013773 8.03056e-05 0.000240962)
(0.00129215 -0.000232346 0.000205166)
(0.00125175 -0.000543537 0.000169465)
(0.00124615 -0.000939146 0.00014072)
(0.00195643 0.00048476 0.00030262)
(0.00185991 7.0035e-05 0.0002734)
(0.00178351 -0.000288867 0.000244118)
(0.00173637 -0.000647819 0.000215591)
(0.00170903 -0.00106536 0.000190253)
(0.00240867 0.000456474 0.000323352)
(0.002328 3.76361e-05 0.000297726)
(0.00225852 -0.000345445 0.000273974)
(0.00220697 -0.000728988 0.000250959)
(0.00216563 -0.00115032 0.000228272)
(0.0028448 0.000404721 0.000340955)
(0.0027742 -9.10772e-06 0.000318069)
(0.00270944 -0.000402085 0.000297975)
(0.00265521 -0.000795426 0.000278369)
(0.00260581 -0.00121076 0.000257036)
(0.0032637 0.000342895 0.000358463)
(0.00319768 -6.35005e-05 0.000337041)
(0.00313555 -0.000458468 0.000319117)
(0.00308011 -0.000853599 0.00030141)
(0.00302788 -0.00126017 0.000280243)
(0.00367083 0.000282396 0.000376832)
(0.00360386 -0.000119724 0.000356329)
(0.00354055 -0.000514046 0.000340334)
(0.0034864 -0.000908542 0.000324513)
(0.00343562 -0.00131015 0.000303773)
(0 0 0)
(0 0 0)
(0 0 0)
(0 0 0)
(0 0 0)
(0.000626862 0.000340448 0.000103513)
(0.000430048 7.55091e-06 8.67708e-05)
(0.000347621 -0.000112779 6.17493e-05)
(0.000336326 -0.000226495 3.64385e-05)
(0.000417633 -0.000501053 1.90992e-05)
(0.00106164 0.000403507 0.000165452)
(0.000915715 4.74799e-05 0.000143858)
(0.000818235 -0.000188978 0.000116768)
(0.000790021 -0.00041979 8.92001e-05)
(0.000815773 -0.000762376 6.80472e-05)
(0.00152637 0.000456979 0.00021104)
(0.00140314 6.02672e-05 0.000186958)
(0.00131474 -0.000251664 0.000161063)
(0.00127371 -0.00056194 0.000135354)
(0.00126915 -0.000957549 0.000113527)
(0.0019862 0.000461926 0.00024301)
(0.00188717 4.79426e-05 0.000219018)
(0.00180839 -0.000310334 0.000195846)
(0.00176008 -0.000668715 0.00017329)
(0.00173219 -0.00108603 0.00015212)
(0.00243679 0.000433148 0.000266543)
(0.00235491 1.524e-05 0.00024367)
(0.00228388 -0.000367675 0.000223141)
(0.00223118 -0.000751237 0.000203231)
(0.00218869 -0.00117267 0.00018269)
(0.00287119 0.000382445 0.000285722)
(0.00280026 -3.0984e-05 0.000263944)
(0.00273469 -0.00042445 0.000245302)
(0.00267963 -0.000818519 0.000227103)
(0.00262907 -0.00123459 0.000206723)
(0.00328907 0.000322457 0.000303198)
(0.00322341 -8.44926e-05 0.000282069)
(0.00316106 -0.000480702 0.000264727)
(0.00310518 -0.000877313 0.000247619)
(0.00305201 -0.00128536 0.000226928)
(0.00369667 0.000263896 0.000320051)
(0.00363053 -0.000139558 0.000299565)
(0.00356744 -0.000535846 0.000283759)
(0.00351305 -0.000932515 0.000268167)
(0.0034614 -0.00133616 0.000247753)
(0 0 0)
(0 0 0)
(0 0 0)
(0 0 0)
(0 0 0)
(0.000637307 0.000342854 7.07997e-05)
(0.000436538 4.90138e-06 6.03064e-05)
(0.000353075 -0.000116074 4.50271e-05)
(0.000343348 -0.000230303 2.9629e-05)
(0.00042883 -0.000509522 1.88174e-05)
(0.00107896 0.000398397 0.000119632)
(0.000929538 3.90302e-05 0.000104978)
(0.000830167 -0.000197506 8.70136e-05)
(0.000802831 -0.000428113 6.88981e-05)
(0.000831127 -0.000772472 5.44727e-05)
(0.00154824 0.000445392 0.000158314)
(0.00142208 4.70923e-05 0.000140936)
(0.00133169 -0.000264534 0.000122539)
(0.0012905 -0.000574342 0.000104299)
(0.00128703 -0.00097084 8.81479e-05)
(0.00200996 0.000446154 0.000187727)
(0.00190894 3.17895e-05 0.000169152)
(0.00182851 -0.000326091 0.000151466)
(0.00177953 -0.000684122 0.000134197)
(0.00175154 -0.00110199 0.000117364)
(0.00246091 0.000415511 0.000210388)
(0.00237794 -2.34935e-06 0.000191513)
(0.00230575 -0.000385123 0.00017475)
(0.00225227 -0.000768715 0.000158434)
(0.00220908 -0.00119074 0.00014116)
(0.0028951 0.000364599 0.000228804)
(0.0028238 -4.89326e-05 0.000209933)
(0.00275756 -0.000442761 0.000193899)
(0.00270184 -0.000837415 0.000178215)
(0.0026504 -0.00125439 0.000160442)
(0.00331293 0.000305501 0.000244863)
(0.00324745 -0.000102129 0.000225997)
(0.00318485 -0.000499332 0.000210612)
(0.00312852 -0.000897152 0.000195442)
(0.00307448 -0.00130657 0.000177092)
(0.00372127 0.00024819 0.000259257)
(0.00365567 -0.000156487 0.00024076)
(0.00359265 -0.000554391 0.000226532)
(0.00353793 -0.00095286 0.000212505)
(0.00348543 -0.00135827 0.000194295)
(0 0 0)
(0 0 0)
(0 0 0)
(0 0 0)
(0 0 0)
(0.000644278 0.000344995 4.75516e-05)
(0.000440942 3.58966e-06 4.09673e-05)
(0.000356826 -0.000117978 3.16451e-05)
(0.00034804 -0.000232729 2.22687e-05)
(0.000436126 -0.000515289 1.54698e-05)
(0.00109068 0.000396313 8.33688e-05)
(0.000939094 3.42464e-05 7.36162e-05)
(0.000838668 -0.000202746 6.19338e-05)
(0.000811969 -0.000433632 5.0212e-05)
(0.000841918 -0.000779863 4.05367e-05)
(0.00156378 0.000438928 0.000113106)
(0.0014358 3.87811e-05 0.000101023)
(0.00134427 -0.000273071 8.83992e-05)
(0.00130309 -0.000582968 7.5881e-05)
(0.00130042 -0.000980751 6.44139e-05)
(0.00202785 0.000436142 0.000136876)
(0.00192553 2.07559e-05 0.000123342)
(0.00184408 -0.00033722 0.000110546)
(0.00179473 -0.000695344 9.80052e-05)
(0.00176675 -0.00111416 8.54545e-05)
(0.00248002 0.000403365 0.000155839)
(0.00239628 -1.50692e-05 0.000141476)
(0.00232332 -0.000398023 0.000128754)
(0.00226933 -0.000781895 0.000116325)
(0.00222567 -0.00120479 0.000102966)
(0.00291483 0.000351637 0.000171377)
(0.00284322 -6.2415e-05 0.000156519)
(0.00277648 -0.000456713 0.000143905)
(0.00272027 -0.00085198 0.000131543)
(0.00266815 -0.00126991 0.000117475)
(0.00333317 0.000292738 0.000184631)
(0.00326775 -0.000115695 0.000169447)
(0.00320489 -0.000513786 0.000157081)
(0.00314815 -0.000912636 0.000144894)
(0.00309338 -0.00132325 0.000130206)
(0.00374241 0.000236062 0.000195824)
(0.00367706 -0.000169751 0.000180827)
(0.00361395 -0.000568994 0.000169305)
(0.00355888 -0.000968913 0.000157943)
(0.00350564 -0.00137576 0.000143317)
(0 0 0)
(0 0 0)
(0 0 0)
(0 0 0)
(0 0 0)
(0.000648797 0.000346611 2.94991e-05)
(0.00044388 2.92643e-06 2.55938e-05)
(0.000359378 -0.000119109 2.02051e-05)
(0.000351158 -0.000234297 1.47888e-05)
(0.000440835 -0.000519129 1.07372e-05)
(0.00109837 0.000395607 5.29195e-05)
(0.000945503 3.15743e-05 4.69006e-05)
(0.000844493 -0.000205947 3.98377e-05)
(0.000818214 -0.000437263 3.27674e-05)
(0.000849171 -0.00078503 2.67534e-05)
(0.00157426 0.0004355 7.29439e-05)
(0.00144521 3.37818e-05 6.52677e-05)
(0.00135305 -0.000278509 5.73396e-05)
(0.00131194 -0.00058875 4.94725e-05)
(0.00130976 -0.000987737 4.2083e-05)
(0.00204032 0.000430214 8.94407e-05)
(0.00193723 1.37413e-05 8.05879e-05)
(0.0018552 -0.000344582 7.22583e-05)
(0.00180566 -0.000703029 6.4072e-05)
(0.00177768 -0.0011228 5.5734e-05)
(0.00249379 0.000395692 0.000102907)
(0.00240958 -2.34949e-05 9.32545e-05)
(0.00233614 -0.00040681 8.47112e-05)
(0.00228183 -0.000791083 7.63423e-05)
(0.00223786 -0.00121482 6.72675e-05)
(0.00292943 0.000343094 0.000114036)
(0.0028576 -7.16059e-05 0.000103832)
(0.00279052 -0.000466408 9.51645e-05)
(0.00273396 -0.000862253 8.6659e-05)
(0.00268137 -0.00128102 7.69673e-05)
(0.00334846 0.000284074 0.000123424)
(0.00328301 -0.000125123 0.000112843)
(0.00321992 -0.000523964 0.00010423)
(0.00316284 -0.000923636 9.57431e-05)
(0.00310754 -0.00133519 8.55545e-05)
(0.00375852 0.00022763 0.000131017)
(0.00369325 -0.000179128 0.000120519)
(0.00362999 -0.000579404 0.000112465)
(0.0035746 -0.000980408 0.000104522)
(0.0035208 -0.00138833 9.43555e-05)
(0 0 0)
(0 0 0)
(0 0 0)
(0 0 0)
(0 0 0)
(0.000651362 0.00034761 1.41661e-05)
(0.000445589 2.61462e-06 1.23363e-05)
(0.000360884 -0.000119719 9.8557e-06)
(0.00035297 -0.000235192 7.36253e-06)
(0.000443512 -0.000521354 5.45663e-06)
(0.00110278 0.000395447 2.57305e-05)
(0.000949233 3.02213e-05 2.28461e-05)
(0.000847927 -0.000207693 1.95079e-05)
(0.000821884 -0.000439353 1.61693e-05)
(0.000853384 -0.000788105 1.32732e-05)
(0.00158035 0.000433868 3.57795e-05)
(0.00145075 3.11243e-05 3.20402e-05)
(0.00135827 -0.000281538 2.8208e-05)
(0.00131721 -0.000592099 2.44028e-05)
(0.00131529 -0.00099191 2.07739e-05)
(0.00204771 0.000427131 4.41944e-05)
(0.00194422 9.87922e-06 3.98128e-05)
(0.00186188 -0.000348771 3.57029e-05)
(0.00181224 -0.000707522 3.16567e-05)
(0.00178426 -0.00112797 2.74942e-05)
(0.00250209 0.000391516 5.11524e-05)
(0.00241763 -2.82575e-05 4.63047e-05)
(0.00234394 -0.000411894 4.20152e-05)
(0.00228944 -0.0007965 3.78068e-05)
(0.00224528 -0.00122082 3.32224e-05)
(0.00293838 0.000338304 5.6935e-05)
(0.00286642 -7.68998e-05 5.17492e-05)
(0.00279914 -0.000472087 4.73417e-05)
(0.00274236 -0.000868346 4.30138e-05)
(0.00268948 -0.00128768 3.80809e-05)
(0.00335795 0.000279115 6.17867e-05)
(0.00329246 -0.000130625 5.63656e-05)
(0.0032292 -0.000529977 5.19525e-05)
(0.0031719 -0.000930189 4.76059e-05)
(0.00311626 -0.00134234 4.2401e-05)
(0.00376858 0.000222718 6.56085e-05)
(0.00370331 -0.000184671 6.02171e-05)
(0.00363991 -0.000585608 5.60853e-05)
(0.00358431 -0.000987292 5.20103e-05)
(0.00353015 -0.00139588 4.68122e-05)
(0 0 0)
(0 0 0)
(0 0 0)
(0 0 0)
(0 0 0)
(0.000652195 0.000347947 0)
(0.00044615 2.52331e-06 -0)
(0.000361383 -0.000119913 0)
(0.000353567 -0.000235485 0)
(0.000444383 -0.000522085 0)
(0.00110422 0.000395434 0)
(0.00095046 2.9808e-05 -0)
(0.000849064 -0.000208249 0)
(0.000823097 -0.000440037 0)
(0.000854767 -0.000789127 0)
(0.00158235 0.00043339 0)
(0.00145258 3.02922e-05 -0)
(0.00136 -0.000282512 0)
(0.00131896 -0.000593198 0)
(0.00131713 -0.000993298 0)
(0.00205015 0.000426179 0)
(0.00194655 8.64898e-06 -0)
(0.00186411 -0.00035013 0)
(0.00181445 -0.000709 0)
(0.00178646 -0.00112969 0)
(0.00250486 0.000390196 0)
(0.00242033 -2.97941e-05 0)
(0.00234655 -0.000413556 0)
(0.002292 -0.000798289 0)
(0.00224778 -0.00122282 0)
(0.00294139 0.000336767 0)
(0.00286939 -7.86239e-05 0)
(0.00280204 -0.000473955 0)
(0.00274519 -0.000870364 0)
(0.00269222 -0.0012899 0)
(0.00336116 0.000277507 0)
(0.00329565 -0.000132429 0)
(0.00323234 -0.000531962 0)
(0.00317496 -0.000932364 0)
(0.00311921 -0.00134472 0)
(0.003772 0.00022111 0)
(0.00370672 -0.000186501 0)
(0.00364327 -0.000587666 0)
(0.00358758 -0.000989583 0)
(0.0035333 -0.0013984 0)
)
;

boundaryField
{
    interface
    {
        type            calculated;
    }
    symmetry
    {
        type            symmetryPlane;
    }
    bottom
    {
        type            fixedValue;
        value           uniform (0 0 0);
    }
}


// ************************************************************************* //
