/*--------------------------------*- C++ -*----------------------------------*\
| =========                 |                                                 |
| \\      /  F ield         | foam-extend: Open Source CFD                    |
|  \\    /   O peration     | Version:     3.1                                |
|   \\  /    A nd           | Web:         http://www.extend-project.de       |
|    \\/     M anipulation  |                                                 |
\*---------------------------------------------------------------------------*/
FoamFile
{
    version     2.0;
    format      ascii;
    class       volScalarField;
    location    "0.3";
    object      sigmaCauchyEq;
}
// * * * * * * * * * * * * * * * * * * * * * * * * * * * * * * * * * * * * * //

dimensions      [1 -1 -2 0 0 0 0];

internalField   nonuniform List<scalar> 
256
(
135.32
78.8871
64.1745
97.0737
55.873
67.737
69.5651
69.9776
47.9073
54.8512
55.9064
50.7043
29.8409
40.4291
41.2723
32.2019
17.8782
27.5916
27.9552
18.5833
9.42872
16.9593
17.0023
9.2517
4.71329
8.94814
8.80975
4.15119
2.97075
3.70366
3.32134
2.28107
121.888
81.0313
76.4814
108.772
63.1056
72.6304
72.933
73.2908
47.7193
53.4643
54.004
49.5541
30.0353
38.2769
38.4059
30.1398
17.3606
25.4198
25.3892
16.5757
8.96261
15.4112
15.2844
7.95559
4.45681
8.12245
7.98169
3.81949
3.00771
3.81899
3.55253
2.66206
118.449
81.6459
80.61
114.147
62.2966
74.5863
75.5838
75.0637
47.7283
54.7022
55.4517
50.7989
30.373
38.5077
38.6309
30.4155
17.5465
25.21
25.1086
16.4739
8.88774
15.0213
14.8577
7.67378
4.05912
7.80459
7.65341
3.30378
2.6146
3.89666
3.62343
2.2114
117.75
82.2417
82.6352
117.021
61.635
75.9542
77.5617
76.3472
47.4997
55.9514
57.031
52.1082
30.5808
39.3304
39.6128
31.2554
17.8143
25.6318
25.5925
16.9918
9.01603
15.1224
14.9953
7.9401
3.93806
7.72157
7.57464
3.14544
2.60282
3.838
3.42464
1.58796
117.88
82.7916
83.8443
118.805
61.367
76.9253
78.9788
77.355
47.2902
56.8956
58.3096
53.1907
30.6396
40.0921
40.5859
32.1216
17.9955
26.1445
26.2263
17.6539
9.16647
15.3755
15.324
8.42645
3.95773
7.74973
7.63562
3.35902
2.7215
3.69374
3.13091
1.14513
118.199
83.2419
84.6285
119.972
61.2621
77.5896
79.9528
78.1108
47.1204
57.5368
59.2291
54.0046
30.599
40.6429
41.3416
32.827
18.053
26.553
26.7699
18.2388
9.24045
15.6117
15.651
8.90556
3.96646
7.80318
7.74581
3.71111
2.77733
3.51781
2.86184
1.10373
118.482
83.5584
85.1183
120.699
61.2212
78.006
80.5658
78.6156
46.9992
57.9286
59.8151
54.5446
30.5278
40.985
41.8394
33.3102
18.0385
26.8163
27.1443
18.6546
9.24506
15.7731
15.8912
9.26323
3.93333
7.84394
7.84494
4.01789
2.76213
3.36473
2.67575
1.29298
118.64
83.7212
85.3567
121.051
61.2069
78.2072
80.8628
78.8681
46.9355
58.1138
60.0992
54.8131
30.4784
41.1467
42.084
33.5536
18.0128
26.9423
27.3318
18.8675
9.22873
15.8517
16.0151
9.45068
3.89693
7.86368
7.90109
4.18884
2.733
3.27709
2.58537
1.44208
)
;

boundaryField
{
    interface
    {
        type            calculated;
        value           nonuniform List<scalar> 
192
(
204.521
49.8261
51.9687
27.2691
14.0336
5.443
3.24533
3.03962
181.99
61.2554
51.8792
29.2168
14.8138
6.05011
3.32845
2.92311
179.594
58.3276
51.101
29.4322
15.0196
5.86769
2.21205
1.68857
180.335
56.4263
50.107
29.2788
15.1602
5.97691
1.81526
1.64419
181.474
55.4751
49.3623
28.9371
15.1387
6.08703
1.90141
2.12709
182.45
54.9851
48.8558
28.5784
14.985
6.07054
1.96138
2.45327
183.128
54.7271
48.533
28.2893
14.7971
5.96023
1.88259
2.58806
183.471
54.6123
48.3735
28.1288
14.6735
5.86345
1.77795
2.62326
158.984
48.6539
49.0753
29.876
18.5795
9.9786
4.98557
2.82102
77.5418
64.6508
56.8103
42.4647
29.4387
18.1934
9.6253
3.91123
52.4466
68.2448
58.52
43.9484
30.1117
18.3562
9.47721
3.48941
94.7756
67.186
53.5446
34.4828
20.5213
10.39
4.42741
2.0486
146.909
76.0766
54.8915
30.7767
14.8041
4.70363
2.36841
2.6837
160.896
80.3793
54.1712
29.512
13.3521
3.74089
2.57871
2.9764
168.208
81.0681
55.3286
29.7845
13.3699
3.45493
1.42265
2.03394
172.558
81.6165
56.4888
30.5182
13.9543
4.08867
1.00929
1.0823
175.377
82.2174
57.4464
31.3036
14.6759
4.9914
1.80354
0.852212
177.242
82.759
58.1835
31.9595
15.3138
5.78053
2.61087
1.36325
178.401
83.1544
58.6833
32.4168
15.7689
6.3326
3.17707
1.8432
178.961
83.3596
58.9347
32.6493
16.0025
6.61289
3.46469
2.10228
3.10224
3.1531
2.92466
3.11231
3.37416
3.49546
3.50711
3.48675
2.3876
3.20426
3.54849
3.59646
3.44064
3.17527
2.9094
2.74414
1.46086
2.72346
3.07041
2.8707
2.37919
1.76646
1.13569
0.606355
2.14205
2.78428
2.51293
1.94173
1.32099
0.869756
0.718619
0.747131
)
;
    }
    symmetry
    {
        type            symmetryPlane;
    }
    bottom
    {
        type            calculated;
        value           nonuniform List<scalar> 
32
(
166.079
132.337
123.492
121.366
121.125
121.363
121.639
121.801
88.4046
80.0244
76.7517
75.5307
75.1556
75.1126
75.1695
75.2187
57.4525
67.0374
69.7919
70.8967
71.5087
71.9111
72.1719
72.3022
83.7853
92.2714
97.1048
99.8696
101.559
102.63
103.281
103.591
)
;
    }
}


// ************************************************************************* //
