/*--------------------------------*- C++ -*----------------------------------*\
| =========                 |                                                 |
| \\      /  F ield         | foam-extend: Open Source CFD                    |
|  \\    /   O peration     | Version:     3.1                                |
|   \\  /    A nd           | Web:         http://www.extend-project.de       |
|    \\/     M anipulation  |                                                 |
\*---------------------------------------------------------------------------*/
FoamFile
{
    version     2.0;
    format      ascii;
    class       volScalarField;
    location    "0.3";
    object      sigmaEq;
}
// * * * * * * * * * * * * * * * * * * * * * * * * * * * * * * * * * * * * * //

dimensions      [1 -1 -2 0 0 0 0];

internalField   nonuniform List<scalar> 
256
(
131.905
79.7209
66.0056
102.832
57.6754
69.68
71.9122
72.498
49.0289
56.4058
57.6628
52.4972
30.7044
41.6294
42.527
33.2081
18.4194
28.419
28.7818
19.1242
9.72481
17.4705
17.4952
9.50738
4.8616
9.21735
9.06186
4.26333
3.06257
3.81535
3.41553
2.344
119.794
82.5747
79.2592
116.066
64.7039
74.3768
75.4104
76.0504
48.851
54.9442
55.7093
51.2932
30.8782
39.3771
39.5653
31.0727
17.8827
26.1704
26.1315
17.0497
9.2432
15.8723
15.7231
8.17204
4.59707
8.36686
8.20919
3.9224
3.10109
3.93461
3.6537
2.73586
116.522
83.3214
83.6724
122.135
63.9873
76.455
78.2062
77.8945
48.9032
56.2433
57.2162
52.5903
31.2366
39.6245
39.8021
31.3566
18.0774
25.9561
25.8435
16.9447
9.16641
15.4707
15.2841
7.88274
4.18738
8.03921
7.87144
3.39244
2.69665
4.0148
3.72674
2.2723
115.853
83.9741
85.828
125.392
63.4086
77.9255
80.2881
79.2238
48.7194
57.5689
58.8651
53.9543
31.4689
40.4906
40.8246
32.2253
18.3584
26.3975
26.3468
17.4792
9.29925
15.5765
15.4275
8.15747
4.06238
7.95359
7.79074
3.2301
2.68443
3.95421
3.52211
1.63139
115.981
84.5593
87.1137
127.415
63.2024
78.9677
81.7794
80.2688
48.5472
58.5745
60.2026
55.0827
31.5482
41.2935
41.839
33.1222
18.5511
26.9335
27.0053
18.1622
9.45546
15.8395
15.7683
8.65793
4.08252
7.98284
7.8541
3.44966
2.80663
3.80532
3.21983
1.17627
116.29
85.0333
87.9474
128.739
63.1386
79.6791
82.8051
81.0547
48.4034
59.2589
61.1656
55.9318
31.5215
41.8755
42.6276
33.853
18.6159
27.3612
27.5704
18.7654
9.5331
16.0854
16.107
9.15052
4.09162
8.03842
7.96817
3.81117
2.86408
3.62387
2.94307
1.13364
116.563
85.3647
88.4681
129.564
63.1226
80.1243
83.4511
81.5807
48.2982
59.6778
61.78
56.4957
31.4586
42.2379
43.1474
34.3538
18.6051
27.6376
27.9596
19.1942
9.5391
16.2537
16.3559
9.51808
4.05768
8.08096
8.07075
4.12601
2.84833
3.46606
2.75178
1.32791
116.715
85.5347
88.7215
129.964
63.1199
80.3392
83.7641
81.8441
48.2421
59.876
62.0781
56.7762
31.413
42.4094
43.4029
34.6061
18.5809
27.77
28.1546
19.4138
9.52301
16.3357
16.4843
9.71066
4.02031
8.10166
8.12884
4.3014
2.81825
3.37575
2.65893
1.48096
)
;

boundaryField
{
    interface
    {
        type            calculated;
        value           nonuniform List<scalar> 
192
(
203.609
50.9653
53.1514
28.0138
14.4538
5.61365
3.34593
3.1331
182.293
62.5572
53.0787
30.0164
15.2589
6.24027
3.43227
3.01368
180.335
59.679
52.3346
30.2513
15.4741
6.05332
2.28213
1.74167
181.287
57.8359
51.3778
30.1133
15.6237
6.16664
1.87322
1.69575
182.528
56.9324
50.6639
29.781
15.6065
6.28074
1.96203
2.19393
183.556
56.4757
50.1798
29.4275
15.4528
6.26442
2.02392
2.53061
184.259
56.2381
49.871
29.1408
15.2628
6.15142
1.9427
2.66981
184.612
56.1327
49.7181
28.9811
15.1375
6.05212
1.83482
2.7062
158.903
50.3126
50.3256
30.769
19.1503
10.2934
5.14262
2.90858
78.68
66.6916
58.484
43.7588
30.3336
18.7453
9.91532
4.02888
53.786
70.5211
60.3713
45.2986
31.0115
18.8928
9.7496
3.5885
99.1555
69.5364
55.4061
35.5651
21.1256
10.6809
4.5477
2.10484
155.231
79.2464
56.931
31.7706
15.2356
4.83142
2.43278
2.75739
170.394
83.7744
56.1612
30.4497
13.7347
3.84118
2.6482
3.05812
178.314
84.4818
57.3621
30.7278
13.7521
3.54781
1.46029
2.08909
183.02
85.0424
58.5689
31.4857
14.3532
4.19836
1.03588
1.11127
186.073
85.6642
59.5666
32.2983
15.0956
5.1243
1.85063
0.874956
188.097
86.2288
60.3359
32.9774
15.7517
5.93336
2.67843
1.39948
189.356
86.6426
60.858
33.451
16.2198
6.49919
3.2588
1.89193
189.965
86.8577
61.1208
33.6918
16.4599
6.78643
3.55357
2.1577
3.19819
3.25128
3.01629
3.20955
3.47936
3.60432
3.61623
3.59516
2.45943
3.30123
3.6563
3.70574
3.5449
3.27108
2.99679
2.8263
1.50253
2.80146
3.15876
2.9534
2.44763
1.81714
1.16819
0.623668
2.20152
2.8618
2.5827
1.9954
1.35728
0.893532
0.738248
0.767553
)
;
    }
    symmetry
    {
        type            symmetryPlane;
    }
    bottom
    {
        type            calculated;
        value           nonuniform List<scalar> 
32
(
163.771
131.395
122.598
120.432
120.152
120.361
120.619
120.771
89.7868
81.7788
78.4869
77.2521
76.875
76.8351
76.8957
76.9472
59.1471
69.3879
72.3265
73.5091
74.1654
74.5964
74.8752
75.0144
88.3349
97.7728
103.125
106.193
108.072
109.266
109.991
110.337
)
;
    }
}


// ************************************************************************* //
