/*--------------------------------*- C++ -*----------------------------------*\
| =========                 |                                                 |
| \\      /  F ield         | foam-extend: Open Source CFD                    |
|  \\    /   O peration     | Version:     3.1                                |
|   \\  /    A nd           | Web:         http://www.extend-project.de       |
|    \\/     M anipulation  |                                                 |
\*---------------------------------------------------------------------------*/
FoamFile
{
    version     2.0;
    format      ascii;
    class       volSymmTensorField;
    location    "0.3";
    object      sigma;
}
// * * * * * * * * * * * * * * * * * * * * * * * * * * * * * * * * * * * * * //

dimensions      [1 -1 -2 0 0 0 0];

internalField   nonuniform List<symmTensor> 
256
(
(25.8194 45.0999 -1.52497 121.718 31.5244 36.2028)
(-49.6222 39.3849 -3.60425 -33.2445 21.6422 -48.9566)
(-80.5553 32.7757 -3.60972 -110.318 9.68135 -83.2151)
(-144.643 26.6878 -1.33957 -240.728 -0.451792 -153.858)
(-157.068 13.0928 -1.30735 -97.4343 -2.33107 -138.37)
(-120.544 38.4564 -4.75015 -99.7145 0.155118 -115.176)
(-103.804 38.31 -5.18646 -131.128 3.84329 -108.331)
(-83.7544 17.0034 -1.70762 -155.526 6.27333 -99.6807)
(-117.245 14.748 -0.0306087 -69.9874 1.05953 -102.158)
(-115.919 31.0147 -1.99467 -96.6768 1.18378 -107.722)
(-102.352 31.5791 -2.50483 -121.168 1.87939 -105.567)
(-96.5619 14.9791 -0.655718 -146.562 2.75373 -108.003)
(-124.264 10.1018 -0.207443 -95.4415 -1.09093 -112.993)
(-116.496 23.2015 -1.15904 -104.166 -0.08018 -110.456)
(-103.738 23.6041 -1.29922 -116.123 0.904054 -106.119)
(-95.6578 10.8195 -0.347976 -125.99 1.89752 -103.725)
(-120.106 7.16587 0.02365 -104.494 -0.897185 -112.278)
(-114.285 16.0038 -0.423446 -107.169 -0.265544 -109.985)
(-104.564 16.1447 -0.489628 -112.01 0.253303 -106.302)
(-98.0124 7.32936 -0.0960013 -114.141 0.812481 -103.346)
(-118.513 4.26817 0.0857166 -111.705 -0.743605 -113.243)
(-112.87 9.88975 -0.0265542 -109.168 -0.374882 -109.971)
(-105.255 9.91348 -0.0423227 -109.031 -0.143813 -106.443)
(-99.4722 4.34405 0.0145889 -106.181 0.0732461 -102.895)
(-116.855 2.0524 0.126488 -114.473 -0.399232 -113.171)
(-111.762 5.1869 0.215025 -109.848 -0.336913 -109.795)
(-105.723 5.17726 0.224991 -106.976 -0.345571 -106.486)
(-100.513 2.11995 0.0722825 -101.981 -0.417364 -102.841)
(-115.841 0.480693 0.203745 -113.935 -0.147784 -112.486)
(-111.945 1.88197 0.486609 -110.252 -0.184626 -110.115)
(-105.411 1.84725 0.515647 -105.694 -0.231592 -106.193)
(-101.417 0.53167 0.170202 -101.799 -0.337619 -103.635)
(7.47261 48.8345 -1.07547 88.1557 24.1264 24.0624)
(-68.0011 44.2932 -2.75478 -66.4551 17.2629 -63.4423)
(-99.2467 37.9741 -2.72756 -140.431 9.26457 -99.7396)
(-162.258 31.3569 -0.823019 -269.136 2.26857 -171.687)
(-134.969 14.5752 -1.06745 -68.4366 7.33473 -109.735)
(-102.422 40.3 -4.21547 -78.0827 7.17642 -92.9913)
(-101.567 39.7038 -4.54974 -128.827 8.00264 -103.114)
(-86.5766 17.1231 -1.453 -161.537 8.12046 -102.02)
(-118.884 13.6088 0.0307831 -70.6913 2.50525 -103.16)
(-113.78 29.8277 -2.10778 -93.5932 3.08142 -105.222)
(-102.964 30.3781 -2.65101 -119.788 4.41663 -104.807)
(-95.8984 14.1743 -0.880927 -144.099 5.57446 -106.207)
(-122.045 9.22808 0.246106 -91.8258 -0.00238929 -110.531)
(-114.04 21.6375 -0.735728 -100.353 1.08198 -107.807)
(-104.066 22.0336 -1.0181 -114.144 2.3671 -105.515)
(-95.6717 9.90124 -0.212018 -123.7 3.49733 -102.949)
(-119.99 6.24477 0.507588 -103.677 -0.862822 -112.282)
(-113.463 14.5562 0.140926 -105.371 0.0458168 -109.177)
(-104.599 14.7708 -0.0125941 -110.131 0.958281 -105.744)
(-97.4476 6.54866 0.195378 -111.482 1.72962 -102.181)
(-118.502 3.64676 0.592859 -111.244 -0.963235 -113.391)
(-112.578 8.86381 0.624862 -108.239 -0.40042 -109.734)
(-105.089 8.96983 0.545988 -107.613 0.0691359 -105.954)
(-98.9447 3.85156 0.391409 -104.257 0.409412 -101.993)
(-117.055 1.68497 0.609757 -114.372 -0.685561 -113.547)
(-111.905 4.56903 0.886439 -109.665 -0.491708 -110.056)
(-105.562 4.62774 0.859251 -106.291 -0.369819 -106.271)
(-100.204 1.87268 0.485066 -101.115 -0.385144 -102.418)
(-116.07 0.357496 0.705932 -113.91 -0.316128 -113.006)
(-112.281 1.61447 1.20619 -110.4 -0.302458 -110.734)
(-105.408 1.60544 1.2215 -105.586 -0.295266 -106.422)
(-101.44 0.443275 0.65557 -101.76 -0.398801 -103.848)
(8.41816 50.5997 -0.652891 87.7768 16.6187 29.5692)
(-70.2391 46.2163 -1.70574 -71.8396 12.379 -63.0239)
(-102.783 40.063 -1.6977 -147.687 7.55869 -103.018)
(-168.194 33.778 -0.584953 -280.432 3.27599 -179.449)
(-135.539 15.6326 -0.885985 -70.6577 8.19045 -102.458)
(-101.895 41.9036 -2.7663 -79.4174 7.42227 -87.4196)
(-101.875 40.9129 -2.90977 -132.249 7.34542 -102.385)
(-85.6078 17.1624 -1.00651 -163.755 6.83263 -103.219)
(-119.627 13.6203 -0.241212 -71.0673 4.20856 -98.9704)
(-113.329 30.4561 -1.51899 -92.8046 4.21336 -100.955)
(-102.383 31.0199 -1.79724 -120.062 4.83699 -102.696)
(-95.5766 14.4193 -0.604869 -145.231 5.22884 -105.923)
(-122.472 9.15826 0.149425 -91.608 1.53207 -108.632)
(-113.958 21.6129 -0.448377 -99.632 2.03987 -105.484)
(-103.797 22.0689 -0.651911 -113.709 2.84035 -103.859)
(-95.1786 9.89245 -0.139425 -123.353 3.41711 -101.569)
(-120.707 6.02003 0.417351 -103.679 0.162734 -112.205)
(-113.507 14.2903 0.317105 -104.708 0.708914 -108.009)
(-104.396 14.5713 0.193211 -109.454 1.33869 -104.427)
(-96.8908 6.43212 0.209408 -110.646 1.76923 -100.366)
(-119.164 3.42513 0.56018 -111.303 -0.377725 -114.175)
(-112.715 8.54023 0.779719 -107.834 -0.00828341 -109.356)
(-104.943 8.70814 0.708808 -107.045 0.332733 -105.016)
(-98.4109 3.71483 0.411473 -103.434 0.509906 -100.199)
(-117.645 1.49725 0.630005 -114.497 -0.418599 -114.783)
(-112.099 4.30635 1.06492 -109.514 -0.286986 -110.229)
(-105.488 4.41358 1.03569 -105.983 -0.197946 -105.769)
(-99.7473 1.76563 0.530657 -100.528 -0.257026 -100.948)
(-116.744 0.301748 0.759446 -114.28 -0.21601 -114.754)
(-112.562 1.50969 1.39128 -110.456 -0.21816 -111.443)
(-105.536 1.518 1.4021 -105.557 -0.218236 -106.514)
(-101.168 0.406189 0.721195 -101.376 -0.329044 -102.931)
(10.0608 51.6671 -0.369675 89.7701 11.4755 34.0165)
(-70.7026 47.2785 -1.01232 -73.4247 8.8571 -61.9685)
(-104.04 41.201 -1.00746 -150.674 5.92572 -104.238)
(-171.328 35.1072 -0.351078 -286.569 3.29134 -183.868)
(-136.406 16.1857 -0.552129 -72.7502 7.11734 -98.0387)
(-102.254 43.0541 -1.69761 -81.2033 6.29873 -84.5578)
(-102.069 41.9183 -1.74904 -134.612 5.92024 -102.028)
(-84.8708 17.4258 -0.601264 -165.239 5.24794 -104.138)
(-120.165 13.9707 -0.19394 -72.1883 4.50131 -95.2659)
(-113.637 31.2524 -0.97581 -93.6548 4.17422 -98.2204)
(-102.133 31.7696 -1.09545 -121.125 4.29954 -101.257)
(-95.2166 14.7293 -0.356309 -146.558 4.21199 -105.734)
(-122.915 9.31543 0.107822 -92.1088 2.37035 -106.373)
(-114.233 22.032 -0.239374 -99.9491 2.40788 -103.531)
(-103.614 22.5083 -0.346843 -114.072 2.73347 -102.363)
(-94.7021 10.0745 -0.0544086 -123.72 2.86013 -100.384)
(-121.135 6.05255 0.333437 -103.913 0.987307 -111.336)
(-113.732 14.4478 0.340297 -104.746 1.15067 -106.845)
(-104.265 14.7599 0.265718 -109.466 1.43699 -103.137)
(-96.5135 6.51004 0.200286 -110.604 1.54218 -98.8464)
(-119.541 3.38702 0.474325 -111.395 0.246547 -114.267)
(-112.914 8.53854 0.726737 -107.795 0.36883 -108.852)
(-104.851 8.73904 0.679023 -106.939 0.515357 -104.039)
(-98.1046 3.72114 0.367301 -103.241 0.509676 -98.665)
(-117.943 1.42947 0.563595 -114.505 -0.0375995 -115.48)
(-112.282 4.24306 0.99592 -109.489 -0.0210639 -110.238)
(-105.44 4.37645 0.971075 -105.892 -0.00712492 -105.162)
(-99.5293 1.74213 0.480348 -100.345 -0.128167 -99.6413)
(-117.055 0.281649 0.703392 -114.368 -0.0759337 -115.935)
(-112.737 1.47386 1.30196 -110.449 -0.104434 -111.863)
(-105.576 1.49087 1.3026 -105.512 -0.114221 -106.322)
(-101.055 0.394376 0.656477 -101.188 -0.22435 -101.98)
(11.181 52.3648 -0.205253 91.4162 7.87899 36.7811)
(-70.8537 47.9529 -0.587302 -74.0972 6.24318 -61.2519)
(-104.695 41.9148 -0.582792 -152.303 4.4415 -104.873)
(-173.198 35.9147 -0.198362 -290.336 2.79613 -186.484)
(-137.111 16.5248 -0.31921 -74.0829 5.58413 -95.4921)
(-102.505 43.8391 -0.999635 -82.3708 4.88382 -82.8623)
(-102.167 42.6547 -1.01461 -136.123 4.46016 -101.764)
(-84.3273 17.6676 -0.33709 -166.242 3.84015 -104.559)
(-120.667 14.2641 -0.114669 -73.3073 3.96048 -92.8513)
(-113.929 31.894 -0.575457 -94.6227 3.54422 -96.4601)
(-102.015 32.3789 -0.624276 -122.14 3.42779 -100.287)
(-94.9155 14.9845 -0.188486 -147.599 3.14863 -105.478)
(-123.36 9.49986 0.0913133 -92.9346 2.46195 -104.677)
(-114.478 22.4705 -0.094196 -100.561 2.27319 -102.079)
(-103.513 22.945 -0.147103 -114.66 2.31001 -101.224)
(-94.3608 10.2588 0.00362265 -124.248 2.19657 -99.4594)
(-121.5 6.14943 0.257283 -104.415 1.33674 -110.467)
(-113.928 14.6998 0.310916 -105.075 1.26552 -105.858)
(-104.186 15.02 0.268747 -109.745 1.31653 -102.077)
(-96.2306 6.62106 0.174722 -110.799 1.23175 -97.6378)
(-119.845 3.41704 0.371132 -111.67 0.62178 -114.122)
(-113.073 8.64765 0.601837 -107.945 0.572115 -108.327)
(-104.793 8.85926 0.570687 -107.039 0.571873 -103.189)
(-97.8798 3.76901 0.296173 -103.248 0.455627 -97.427)
(-118.172 1.41973 0.454142 -114.608 0.244987 -115.844)
(-112.412 4.26824 0.824004 -109.541 0.170115 -110.103)
(-105.404 4.41049 0.80247 -105.903 0.119469 -104.572)
(-99.371 1.75068 0.386352 -100.278 -0.035406 -98.5445)
(-117.28 0.280757 0.582516 -114.46 0.0485289 -116.677)
(-112.841 1.47488 1.08352 -110.447 -0.00870069 -112.008)
(-105.569 1.49326 1.07424 -105.477 -0.035257 -105.977)
(-100.944 0.393973 0.530614 -101.05 -0.141185 -101.069)
(11.9071 52.8257 -0.109451 92.582 5.16735 38.4536)
(-70.9279 48.4024 -0.329334 -74.4451 4.16704 -60.8302)
(-105.086 42.3867 -0.325536 -153.289 3.08183 -105.242)
(-174.378 36.4315 -0.106346 -292.754 2.07335 -188.074)
(-137.583 16.7418 -0.171178 -74.8692 3.9668 -94.0355)
(-102.659 44.361 -0.561287 -83.0923 3.446 -81.8602)
(-102.221 43.158 -0.563308 -137.092 3.09457 -101.569)
(-83.9676 17.8447 -0.177615 -166.941 2.61668 -104.706)
(-121.009 14.4684 -0.0531627 -74.1172 3.00908 -91.3491)
(-114.126 32.3438 -0.312718 -95.372 2.64149 -95.3545)
(-101.946 32.8115 -0.331712 -122.903 2.46 -99.6355)
(-94.7044 15.1679 -0.0891375 -148.345 2.16803 -105.212)
(-123.684 9.64422 0.0768979 -93.6705 2.04496 -103.537)
(-114.652 22.8074 -0.0142723 -101.141 1.80843 -101.091)
(-103.451 23.277 -0.0396178 -115.194 1.7253 -100.417)
(-94.1287 10.3984 0.0282004 -124.702 1.54112 -98.7642)
(-121.768 6.23842 0.186712 -104.942 1.252 -109.798)
(-114.072 14.9179 0.247916 -105.456 1.09854 -105.125)
(-104.135 15.2386 0.224666 -110.061 1.04058 -101.289)
(-96.0358 6.7132 0.135782 -111.023 0.893064 -96.7457)
(-120.063 3.45843 0.266761 -111.99 0.692884 -113.915)
(-113.187 8.76354 0.445981 -108.154 0.574542 -107.885)
(-104.755 8.9774 0.425987 -107.192 0.505906 -102.526)
(-97.7255 3.81615 0.215874 -103.313 0.360706 -96.5077)
(-118.332 1.42832 0.330682 -114.75 0.347858 -115.988)
(-112.5 4.31337 0.607503 -109.624 0.238736 -109.913)
(-105.376 4.45696 0.589991 -105.946 0.161602 -104.07)
(-99.2622 1.76494 0.27915 -100.255 0.0144895 -97.7076)
(-117.409 0.283512 0.43363 -114.528 0.105675 -117.035)
(-112.893 1.48483 0.804501 -110.448 0.0408407 -111.968)
(-105.544 1.50223 0.790595 -105.454 0.00786722 -105.6)
(-100.863 0.395315 0.385282 -100.964 -0.0807999 -100.327)
(12.3451 53.1119 -0.0529675 93.323 2.94134 39.4086)
(-70.9696 48.6858 -0.166308 -74.6319 2.39668 -60.601)
(-105.318 42.6832 -0.163831 -153.874 1.81269 -105.454)
(-175.091 36.7487 -0.051481 -294.231 1.26208 -188.999)
(-137.875 16.874 -0.0819955 -75.3126 2.36278 -93.2553)
(-102.749 44.6827 -0.281795 -83.5119 2.04462 -81.3012)
(-102.25 43.4718 -0.280589 -137.679 1.81889 -101.441)
(-83.7474 17.9581 -0.0840879 -167.388 1.52166 -104.732)
(-121.219 14.5952 -0.0196419 -74.6277 1.8623 -90.4946)
(-114.243 32.6245 -0.149564 -95.8582 1.61768 -94.7089)
(-101.905 33.0833 -0.156425 -123.399 1.47429 -99.2305)
(-94.5738 15.2842 -0.0366099 -148.824 1.26765 -105.002)
(-123.889 9.7377 0.0519632 -94.1865 1.32857 -102.859)
(-114.759 23.0254 0.0130596 -101.558 1.15057 -100.485)
(-103.414 23.4912 0.00164312 -115.572 1.06006 -99.9033)
(-93.9854 10.4882 0.0268342 -125.016 0.912236 -98.2977)
(-121.941 6.29956 0.113972 -105.346 0.864918 -109.37)
(-114.163 15.0659 0.159416 -105.755 0.734367 -104.65)
(-104.105 15.3853 0.147625 -110.307 0.662683 -100.773)
(-95.9146 6.77447 0.0858177 -111.195 0.541162 -96.158)
(-120.204 3.49015 0.160833 -112.253 0.517272 -113.749)
(-113.259 8.84779 0.273493 -108.332 0.413144 -107.573)
(-104.731 9.06111 0.262067 -107.322 0.343696 -102.075)
(-97.6286 3.84915 0.130909 -103.374 0.231957 -95.8994)
(-118.437 1.43833 0.20039 -114.877 0.283051 -116.029)
(-112.553 4.34959 0.370648 -109.699 0.19382 -109.744)
(-105.356 4.49213 0.359033 -105.988 0.129531 -103.706)
(-99.1921 1.77564 0.167975 -100.247 0.0260344 -97.1417)
(-117.482 0.285837 0.2668 -114.581 0.0948887 -117.177)
(-112.918 1.49326 0.493751 -110.454 0.0451704 -111.866)
(-105.52 1.50929 0.48205 -105.441 0.0187528 -105.292)
(-100.807 0.396173 0.232862 -100.912 -0.0402841 -99.8028)
(12.5531 53.2499 -0.0157996 93.6842 0.956222 39.845)
(-70.9891 48.8241 -0.0507157 -74.715 0.782858 -60.5006)
(-105.427 42.8277 -0.0498599 -154.149 0.598157 -105.552)
(-175.431 36.9012 -0.0153411 -294.938 0.422598 -189.429)
(-138.015 16.9372 -0.0242273 -75.5127 0.784099 -92.9162)
(-102.791 44.8369 -0.0854766 -83.7056 0.677295 -81.0512)
(-102.264 43.6229 -0.0847514 -137.957 0.599967 -101.377)
(-83.6429 18.0132 -0.024683 -167.607 0.499416 -104.725)
(-121.318 14.6558 -0.00460394 -74.8717 0.628935 -90.1088)
(-114.298 32.7589 -0.0437809 -96.0947 0.543746 -94.4119)
(-101.886 33.214 -0.0454585 -123.642 0.490674 -99.0361)
(-94.5124 15.3403 -0.00965224 -149.059 0.417066 -104.888)
(-123.988 9.78304 0.018284 -94.4466 0.458533 -102.545)
(-114.809 23.1311 0.00789182 -101.771 0.393638 -100.199)
(-103.396 23.595 0.00461103 -115.764 0.357065 -99.6538)
(-93.9175 10.5317 0.0104553 -125.174 0.301997 -98.0639)
(-122.025 6.32989 0.0383148 -105.559 0.30661 -109.164)
(-114.206 15.1391 0.0548913 -105.915 0.256996 -104.419)
(-104.09 15.4576 0.0512624 -110.437 0.227115 -100.518)
(-95.857 6.80448 0.029248 -111.285 0.18134 -95.8664)
(-120.273 3.50649 0.0537112 -112.396 0.189353 -113.66)
(-113.294 8.89048 0.0920763 -108.43 0.149214 -107.413)
(-104.72 9.10308 0.0883309 -107.393 0.121338 -101.848)
(-97.5821 3.86555 0.0437895 -103.408 0.0800624 -95.5966)
(-118.488 1.44401 0.0670575 -114.95 0.10708 -116.033)
(-112.579 4.3684 0.124439 -109.742 0.0733025 -109.648)
(-105.346 4.50994 0.120365 -106.012 0.0487551 -103.516)
(-99.1581 1.78092 0.0559869 -100.244 0.0116833 -96.8563)
(-117.515 0.286883 0.0899927 -114.609 0.0370409 -117.218)
(-112.928 1.49751 0.166335 -110.458 0.0186044 -111.791)
(-105.506 1.51267 0.161848 -105.435 0.00861627 -105.12)
(-100.779 0.396415 0.0778504 -100.888 -0.0120967 -99.5318)
)
;

boundaryField
{
    interface
    {
        type            calculated;
        value           nonuniform List<symmTensor> 
192
(
(-126.068 -0.0102809 0.655071 96.5719 35.4775 -37.1761)
(-122.792 0.014204 0.819727 -69.3473 -2.88534 -116.763)
(-122.411 -0.0361279 0.783043 -62.2588 1.13175 -102.613)
(-121.029 -0.0654018 0.700033 -89.3941 -1.62263 -110.194)
(-119.745 -0.0839026 0.598782 -103.3 -1.2744 -111.829)
(-118.448 -0.0910732 0.49263 -112.91 -0.988315 -113.483)
(-117.236 -0.083483 0.389047 -116.556 -0.457093 -113.774)
(-116.154 -0.0490943 0.297272 -115.137 -0.129612 -112.693)
(-127.624 -0.0353414 0.405044 75.4329 27.0364 -36.7433)
(-124.767 -0.0355316 0.514007 -55.9496 7.93506 -103.467)
(-123.872 -0.0958821 0.502779 -63.9939 2.50421 -104.358)
(-122.382 -0.13796 0.460636 -88.2252 -0.476844 -110.261)
(-120.879 -0.163297 0.40639 -103.494 -1.31343 -112.84)
(-119.378 -0.173237 0.347619 -113.068 -1.27568 -114.288)
(-117.957 -0.164793 0.289218 -116.693 -0.800885 -114.44)
(-116.668 -0.12654 0.237427 -115.183 -0.316493 -113.297)
(-128.827 -0.0457825 0.266343 76.0319 18.4681 -31.0836)
(-125.845 -0.0590054 0.342276 -59.413 8.9233 -96.1525)
(-124.853 -0.132116 0.341707 -65.4308 4.46715 -100.654)
(-123.247 -0.182823 0.320261 -88.629 1.40158 -109.105)
(-121.612 -0.213192 0.290062 -103.777 -0.0642639 -113.401)
(-119.981 -0.22519 0.255825 -113.203 -0.561376 -115.647)
(-118.431 -0.216623 0.220821 -116.759 -0.488394 -116.142)
(-117.006 -0.176855 0.189768 -115.39 -0.204794 -115.334)
(-129.686 -0.0516363 0.185049 78.1082 12.6358 -27.1716)
(-126.61 -0.0725658 0.239337 -61.749 7.74093 -91.0362)
(-125.56 -0.155132 0.242249 -67.0424 4.86461 -96.727)
(-123.875 -0.212569 0.230758 -89.4656 2.48062 -106.909)
(-122.147 -0.246988 0.213036 -104.229 0.97028 -112.806)
(-120.423 -0.260897 0.192006 -113.405 0.209552 -116.113)
(-118.779 -0.252719 0.169842 -116.801 -0.0330792 -117.249)
(-117.259 -0.21239 0.1501 -115.471 -0.0444858 -116.882)
(-130.286 -0.0553718 0.128298 79.773 8.61749 -24.8537)
(-127.146 -0.0810663 0.166505 -63.0632 6.06695 -87.9784)
(-126.059 -0.170014 0.170129 -68.3108 4.30414 -94.0272)
(-124.319 -0.232325 0.163972 -90.4524 2.65893 -105.099)
(-122.531 -0.269893 0.153519 -104.857 1.43389 -112.009)
(-120.742 -0.285468 0.140589 -113.757 0.678201 -116.166)
(-119.033 -0.277902 0.126568 -116.94 0.30345 -117.889)
(-117.445 -0.237523 0.11402 -115.573 0.0976225 -117.905)
(-130.694 -0.0577934 0.0846839 80.954 5.62701 -23.5056)
(-127.512 -0.086433 0.110088 -63.7971 4.30793 -86.2192)
(-126.4 -0.179525 0.113226 -69.1752 3.27827 -92.3416)
(-124.624 -0.245154 0.110036 -91.2754 2.23347 -103.863)
(-122.795 -0.284988 0.104036 -105.469 1.37551 -111.357)
(-120.963 -0.301867 0.0963347 -114.139 0.779962 -116.069)
(-119.211 -0.294901 0.0877757 -117.122 0.423044 -118.212)
(-117.579 -0.25465 0.080075 -115.675 0.156866 -118.47)
(-130.948 -0.0593263 0.0482199 81.7086 3.1951 -22.7619)
(-127.741 -0.0896366 0.0625756 -64.1951 2.56583 -85.2752)
(-126.613 -0.185171 0.0647262 -69.7064 2.03148 -91.39)
(-124.815 -0.252867 0.0633004 -91.8384 1.45774 -103.13)
(-122.961 -0.294165 0.0602527 -105.927 0.958552 -110.936)
(-121.103 -0.311933 0.0562077 -114.446 0.587682 -115.966)
(-119.324 -0.305425 0.0516034 -117.28 0.342096 -118.36)
(-117.664 -0.265305 0.0474137 -115.759 0.132717 -118.745)
(-131.069 -0.0603882 0.0155986 82.079 1.03759 -22.4286)
(-127.848 -0.0912365 0.0201518 -64.3683 0.851521 -84.8625)
(-126.713 -0.187665 0.0209481 -69.9564 0.686467 -90.9623)
(-124.905 -0.256389 0.0205807 -92.1188 0.503999 -102.792)
(-123.04 -0.298431 0.0196704 -106.166 0.340847 -110.734)
(-121.17 -0.316667 0.0184297 -114.613 0.21575 -115.907)
(-119.378 -0.310448 0.0169872 -117.37 0.129094 -118.415)
(-117.706 -0.270405 0.0156525 -115.806 0.0508648 -118.851)
(-67.7295 42.479 -1.26342 42.0377 0.016388 -116.747)
(-146.897 12.3232 -1.45467 -94.991 0.054765 -113.964)
(-126.143 15.7182 -1.32612 -79.2073 0.0631156 -114.25)
(-126.081 10.8478 -1.11258 -98.1083 0.0703594 -113.859)
(-121.413 7.87587 -0.881364 -105.995 0.0716649 -113.633)
(-118.745 4.71416 -0.646463 -112.005 0.0710591 -113.388)
(-116.799 2.28735 -0.418094 -114.442 0.0758974 -113.162)
(-116.079 0.566109 -0.19866 -114.259 0.10548 -112.964)
(-84.2747 35.7366 -1.13856 -55.3989 -0.00823714 -111.43)
(-122.409 37.5371 -1.33396 -106.086 -0.0118353 -110.313)
(-119.272 32.4044 -1.20175 -100.45 -0.02103 -110.32)
(-117.594 24.5611 -1.00055 -106.088 -0.0271835 -110.169)
(-114.922 17.1546 -0.783645 -108.282 -0.0322976 -110.065)
(-113.123 10.6392 -0.565923 -109.711 -0.0366782 -109.962)
(-111.842 5.60755 -0.356594 -110.052 -0.0376538 -109.857)
(-111.658 2.07682 -0.163013 -110.04 -0.0215174 -109.733)
(-89.7905 28.9542 -1.12428 -110.71 -0.0205057 -107.025)
(-101.952 37.553 -1.32335 -131.141 -0.0600971 -106.632)
(-102.381 33.0219 -1.18959 -123.367 -0.0941911 -106.648)
(-103.742 25.0108 -0.987456 -118.075 -0.117999 -106.63)
(-104.662 17.2644 -0.769027 -113.568 -0.134413 -106.621)
(-105.404 10.6187 -0.550599 -110.082 -0.147011 -106.612)
(-105.905 5.55911 -0.340974 -107.5 -0.157513 -106.593)
(-105.802 2.02664 -0.147603 -106.091 -0.159326 -106.539)
(-104.946 23.6025 -1.2022 -193.729 -0.0468258 -101.962)
(-83.5194 16.7954 -1.41445 -153.98 -0.139438 -102.642)
(-92.4568 15.8644 -1.27369 -144.793 -0.186808 -102.64)
(-94.7928 11.6486 -1.05702 -127.201 -0.221219 -102.836)
(-97.8711 7.97309 -0.820794 -115.719 -0.243683 -102.989)
(-99.84 4.71485 -0.583033 -107.654 -0.261219 -103.138)
(-101.005 2.28467 -0.353102 -102.906 -0.279529 -103.261)
(-101.4 0.593688 -0.135025 -101.783 -0.299215 -103.306)
(-93.1984 0.0334529 0.617593 -266.479 -4.55365 -140.932)
(-94.3941 0.0873867 0.748229 -179.187 6.94711 -109.568)
(-95.1677 0.0729955 0.675094 -157.751 3.12893 -109.939)
(-96.3369 0.0695617 0.562916 -131.247 2.38592 -105.002)
(-97.5252 0.0771469 0.436526 -114.597 1.10731 -103.015)
(-98.7045 0.0972557 0.309433 -104.208 0.183271 -101.917)
(-99.8082 0.137323 0.190339 -99.4354 -0.476041 -101.851)
(-100.75 0.210018 0.0887125 -100.232 -0.415353 -103.085)
(-91.5393 0.00666761 0.352713 -282.761 -0.684532 -147.051)
(-93.0592 0.0455083 0.430415 -182.886 7.855 -110.028)
(-94.0326 0.0164491 0.390468 -154.751 5.97214 -107.612)
(-95.3145 -0.000439504 0.327101 -128.213 3.95252 -103.503)
(-96.649 -0.000515778 0.255839 -111.672 2.04663 -101.589)
(-97.9849 0.0178766 0.18365 -102.174 0.530517 -100.883)
(-99.2539 0.0632425 0.11522 -98.4687 -0.443848 -101.292)
(-100.364 0.149498 0.0534709 -99.9851 -0.496232 -103.078)
(-90.547 -0.00456145 0.220926 -291.357 1.42162 -151.632)
(-92.2136 0.0261911 0.271828 -184.05 6.362 -111.864)
(-93.2684 -0.0123738 0.248282 -155.656 5.26041 -107.491)
(-94.6519 -0.0359662 0.209112 -127.745 3.57084 -102.008)
(-96.0875 -0.0397936 0.164577 -110.811 1.88922 -99.4804)
(-97.5266 -0.0218508 0.119072 -101.382 0.531852 -98.7158)
(-98.9004 0.0264985 0.0752765 -97.9125 -0.343355 -99.4202)
(-100.117 0.11896 0.0337633 -99.5192 -0.430724 -101.687)
(-89.87 -0.00985189 0.148975 -296.412 2.12915 -154.569)
(-91.6073 0.0157449 0.183576 -185.02 4.75967 -113.42)
(-92.7135 -0.0297446 0.16837 -156.864 4.03534 -107.615)
(-94.1713 -0.0579133 0.14226 -128.099 2.80909 -100.923)
(-95.6826 -0.0641212 0.112271 -110.737 1.50744 -97.8075)
(-97.1986 -0.0464231 0.0813746 -101.156 0.442756 -96.882)
(-98.6487 0.00372725 0.0512522 -97.6828 -0.242114 -97.7303)
(-99.9415 0.0998005 0.0217995 -99.2252 -0.321759 -100.296)
(-89.4096 -0.0129384 0.100508 -299.643 2.05449 -156.29)
(-91.1883 0.0095009 0.12363 -185.812 3.42674 -114.255)
(-92.3279 -0.0405731 0.113562 -157.82 2.91335 -107.589)
(-93.8349 -0.0718262 0.0960751 -128.605 2.0546 -100.096)
(-95.3993 -0.0796315 0.0758618 -110.9 1.1219 -96.5273)
(-96.9694 -0.0621446 0.0548936 -101.126 0.346387 -95.4529)
(-98.473 -0.0109181 0.0342442 -97.5714 -0.156059 -96.3674)
(-99.8194 0.0874129 0.0136303 -99.0261 -0.228703 -99.0865)
(-89.1032 -0.0148383 0.0648503 -301.762 1.60904 -157.293)
(-90.9076 0.00571167 0.0795609 -186.42 2.31082 -114.633)
(-92.0688 -0.0472598 0.073122 -158.508 1.9592 -107.45)
(-93.6079 -0.0805133 0.0618786 -129.029 1.39209 -99.4584)
(-95.2077 -0.089372 0.0488226 -111.09 0.773581 -95.5927)
(-96.8144 -0.0720575 0.0352131 -101.153 0.252885 -94.4143)
(-98.3544 -0.0201851 0.0217244 -97.5111 -0.0894318 -95.361)
(-99.7371 0.0795927 0.00808615 -98.9031 -0.150144 -98.1582)
(-88.9144 -0.0160111 0.0363402 -303.073 1.00434 -157.851)
(-90.7345 0.00351413 0.044309 -186.827 1.33522 -114.776)
(-91.9086 -0.0511158 0.0407732 -158.952 1.12899 -107.299)
(-93.4671 -0.085581 0.0345136 -129.316 0.80612 -99.0178)
(-95.0888 -0.0950875 0.0271914 -111.232 0.454423 -94.9771)
(-96.7182 -0.0778879 0.0195354 -101.183 0.155956 -93.7352)
(-98.2808 -0.025632 0.0119364 -97.4762 -0.0433633 -94.6963)
(-99.6861 0.0750107 0.00421963 -98.8311 -0.0847965 -97.5287)
(-88.8258 -0.0168958 0.0116569 -303.705 0.339682 -158.104)
(-90.6551 0.00238764 0.0140853 -187.033 0.436867 -114.821)
(-91.8344 -0.0527674 0.0129881 -159.171 0.368881 -107.209)
(-93.4015 -0.0878398 0.0110006 -129.461 0.264081 -98.7938)
(-95.0334 -0.097674 0.00865313 -111.307 0.150074 -94.6719)
(-96.6733 -0.0805168 0.006195 -101.2 0.0529232 -93.3998)
(-98.2464 -0.0280463 0.00376085 -97.4601 -0.0126058 -94.3659)
(-99.662 0.0729469 0.00129361 -98.7983 -0.0274348 -97.2107)
(-115.951 0.115078 0.275786 -113.567 -0.167428 -112.39)
(-116.298 0.147975 0.805428 -113.725 -0.138378 -113.132)
(-116.772 0.171776 0.863436 -113.808 -0.115543 -114.907)
(-117.056 0.188954 0.804422 -113.872 -0.0948907 -116.255)
(-117.251 0.200986 0.672247 -113.924 -0.0742755 -117.108)
(-117.359 0.209077 0.505429 -113.966 -0.0533365 -117.519)
(-117.414 0.21404 0.313389 -113.995 -0.0322444 -117.673)
(-117.436 0.21628 0.106152 -114.011 -0.0108453 -117.712)
(-112.105 0.151001 0.665997 -109.865 -0.0941715 -110.057)
(-112.378 0.184588 1.42318 -109.92 -0.0874895 -110.739)
(-112.638 0.2027 1.59683 -109.946 -0.0756809 -111.666)
(-112.827 0.214037 1.48724 -109.964 -0.0628926 -112.288)
(-112.943 0.221357 1.239 -109.981 -0.0495978 -112.569)
(-113.002 0.226034 0.923386 -109.997 -0.0357765 -112.599)
(-113.029 0.228838 0.568822 -110.009 -0.0216618 -112.523)
(-113.039 0.230187 0.192052 -110.016 -0.00728262 -112.455)
(-105.57 0.130855 0.70224 -106.172 -0.0282763 -106.544)
(-105.597 0.159191 1.45831 -106.126 -0.0478854 -106.946)
(-105.788 0.173225 1.62896 -106.091 -0.0471483 -107.3)
(-105.89 0.181327 1.50293 -106.065 -0.0406258 -107.326)
(-105.925 0.186185 1.23771 -106.051 -0.032594 -107.117)
(-105.925 0.18908 0.912249 -106.043 -0.0237301 -106.813)
(-105.915 0.19068 0.557411 -106.04 -0.0144829 -106.535)
(-105.908 0.191246 0.187419 -106.04 -0.00490751 -106.375)
(-101.723 0.0373293 0.252332 -102.52 0.0196852 -104.165)
(-101.676 0.0520189 0.791991 -102.376 -0.0160094 -104.462)
(-101.688 0.062365 0.861783 -102.286 -0.0226355 -104.027)
(-101.73 0.0687378 0.782226 -102.218 -0.0210406 -103.371)
(-101.728 0.0725212 0.633 -102.172 -0.0175025 -102.64)
(-101.711 0.0746709 0.461104 -102.141 -0.01304 -101.993)
(-101.691 0.0758085 0.279604 -102.122 -0.00824486 -101.515)
(-101.68 0.0763175 0.0936746 -102.116 -0.00291769 -101.263)
)
;
    }
    symmetry
    {
        type            symmetryPlane;
    }
    bottom
    {
        type            calculated;
        value           nonuniform List<symmTensor> 
32
(
(36.631 65.0615 0 54.9464 67.79 36.631)
(18.4244 65.4141 0 27.6366 38.0471 18.4244)
(18.8651 66.6946 0 28.2976 23.07 18.8651)
(20.1474 67.7164 0 30.2211 14.6728 20.1474)
(21.0631 68.4441 0 31.5947 9.51888 21.0631)
(21.6683 68.9468 0 32.5025 6.01446 21.6683)
(22.0374 69.2671 0 33.056 3.34853 22.0374)
(22.2135 69.4233 0 33.3202 1.07754 22.2135)
(-41.6155 34.343 0 -62.4233 36.9251 -41.6155)
(-57.9665 38.1143 0 -86.9497 22.2834 -57.9665)
(-59.7691 39.2775 0 -89.6536 14.5937 -59.7691)
(-60.2529 39.8538 0 -90.3793 9.92129 -60.2529)
(-60.4861 40.2396 0 -90.7292 6.76886 -60.4861)
(-60.6268 40.5215 0 -90.9402 4.4258 -60.6268)
(-60.7115 40.7124 0 -91.0672 2.51517 -60.7115)
(-60.7518 40.8092 0 -91.1278 0.817071 -60.7518)
(-78.6069 22.6991 0 -117.91 11.6599 -78.6069)
(-92.9072 28.6894 0 -139.361 7.9055 -92.9072)
(-96.0571 30.5705 0 -144.086 6.34297 -96.0571)
(-97.3961 31.3773 0 -146.094 5.11469 -97.3961)
(-98.1621 31.8594 0 -147.243 3.93678 -98.1621)
(-98.6393 32.192 0 -147.959 2.78232 -98.6393)
(-98.9259 32.4114 0 -148.389 1.65455 -98.9259)
(-99.0617 32.5215 0 -148.593 0.548722 -99.0617)
(-142.618 24.7878 0 -213.927 -17.0762 -142.618)
(-155.504 33.4627 0 -233.255 -7.18625 -155.504)
(-161.053 37.1434 0 -241.58 -1.93644 -161.053)
(-164.144 38.9049 0 -246.216 0.400496 -164.144)
(-166.037 39.9307 0 -249.055 1.17529 -166.037)
(-167.245 40.5879 0 -250.867 1.17246 -167.245)
(-167.979 40.9952 0 -251.969 0.804836 -167.979)
(-168.33 41.1919 0 -252.494 0.28231 -168.33)
)
;
    }
}


// ************************************************************************* //
