/*--------------------------------*- C++ -*----------------------------------*\
| =========                 |                                                 |
| \\      /  F ield         | foam-extend: Open Source CFD                    |
|  \\    /   O peration     | Version:     3.1                                |
|   \\  /    A nd           | Web:         http://www.extend-project.de       |
|    \\/     M anipulation  |                                                 |
\*---------------------------------------------------------------------------*/
FoamFile
{
    version     2.0;
    format      ascii;
    class       volVectorField;
    location    "0.3";
    object      U;
}
// * * * * * * * * * * * * * * * * * * * * * * * * * * * * * * * * * * * * * //

dimensions      [0 1 -1 0 0 0 0];

internalField   nonuniform List<vector> 
256
(
(0.00113169 0.000238707 0.00122299)
(0.000583216 -0.000133526 0.000593506)
(0.000420833 -0.000329938 5.61548e-05)
(0.000571989 -0.00068089 -0.000561745)
(0.0036148 0.00138983 0.00148832)
(0.0030214 4.1259e-05 0.00107535)
(0.00280512 -0.00096628 0.000463901)
(0.0029511 -0.00226711 -1.95506e-05)
(0.00640623 0.00195377 0.00167894)
(0.00585244 7.62894e-05 0.00128301)
(0.0056145 -0.00154118 0.000814927)
(0.00569131 -0.00341709 0.000406332)
(0.00940161 0.00226755 0.0017361)
(0.00894086 1.4536e-05 0.00143755)
(0.00870195 -0.00203699 0.00109598)
(0.0086842 -0.00429794 0.000797968)
(0.0124536 0.00232889 0.00176637)
(0.0120653 -0.000136404 0.00155245)
(0.0118269 -0.00245581 0.00131872)
(0.011735 -0.00493009 0.00110993)
(0.0154461 0.00222473 0.0018016)
(0.0151123 -0.000342556 0.00165137)
(0.0148726 -0.00280966 0.00149326)
(0.0147234 -0.00538186 0.00134627)
(0.0183147 0.00201712 0.00185873)
(0.0180164 -0.000580007 0.00174549)
(0.0177743 -0.00311138 0.00163383)
(0.0175853 -0.00570965 0.00152088)
(0.0210459 0.00176336 0.00193994)
(0.0207602 -0.000830051 0.0018409)
(0.0205156 -0.00337618 0.00175923)
(0.0203097 -0.00596843 0.00165835)
(0.00116656 0.000178602 0.000680015)
(0.00067515 -0.00019235 0.000354619)
(0.000546761 -0.000380276 4.64035e-05)
(0.000731628 -0.000723528 -0.000282671)
(0.00388958 0.00121099 0.00104444)
(0.00320882 -0.000126596 0.000761766)
(0.00298052 -0.00111121 0.000374372)
(0.0031778 -0.00240261 6.02861e-05)
(0.00666759 0.00181261 0.0012905)
(0.00610193 -8.18898e-05 0.00100837)
(0.00585554 -0.00171047 0.000675769)
(0.00592575 -0.00359971 0.000383511)
(0.00963992 0.00213564 0.00142127)
(0.0091696 -0.000134307 0.00118439)
(0.00892282 -0.00220187 0.000922659)
(0.00889589 -0.00447883 0.000687858)
(0.0126517 0.0022109 0.00150319)
(0.0122618 -0.000271048 0.00131646)
(0.0120173 -0.00260856 0.00112036)
(0.0119141 -0.0050995 0.000938256)
(0.015609 0.00211465 0.00157191)
(0.0152764 -0.000466748 0.00142472)
(0.0150332 -0.00295012 0.00127737)
(0.0148758 -0.00553742 0.00113354)
(0.0184542 0.00191263 0.00164492)
(0.0181582 -0.000697326 0.00152242)
(0.0179155 -0.00324375 0.00140617)
(0.0177232 -0.00585617 0.00128457)
(0.0211775 0.00166383 0.00172826)
(0.0208943 -0.000942549 0.00161856)
(0.0206513 -0.00350548 0.00152242)
(0.0204466 -0.00611208 0.00141164)
(0.0011985 0.000186963 0.000405191)
(0.000701301 -0.000198064 0.000228583)
(0.000584842 -0.00039459 5.00621e-05)
(0.000803138 -0.000752183 -0.000132608)
(0.00403262 0.00113742 0.000729301)
(0.00330978 -0.000201176 0.00054391)
(0.00308076 -0.00117275 0.000303032)
(0.00332022 -0.00246483 0.000103869)
(0.0068552 0.00170644 0.000970234)
(0.00625623 -0.000186313 0.000773931)
(0.00600259 -0.00180621 0.000547017)
(0.00609184 -0.00369083 0.000344336)
(0.00983284 0.00201385 0.0011294)
(0.00934302 -0.00025111 0.000948827)
(0.00908901 -0.00231234 0.00075495)
(0.0090676 -0.00458379 0.000576173)
(0.012835 0.00208873 0.00124145)
(0.0124348 -0.000389687 0.0010846)
(0.0121847 -0.00272474 0.000925181)
(0.012081 -0.00521281 0.000772098)
(0.0157778 0.00199827 0.00133142)
(0.0154415 -0.00058287 0.00119525)
(0.0151951 -0.00306805 0.0010632)
(0.0150353 -0.00565674 0.000929983)
(0.0186119 0.00180528 0.00141445)
(0.0183166 -0.000809451 0.00129215)
(0.0180732 -0.00336253 0.00117852)
(0.0178792 -0.00598168 0.0010573)
(0.0213329 0.00156678 0.00149713)
(0.0210535 -0.00105011 0.0013839)
(0.0208119 -0.00362487 0.00128336)
(0.0206065 -0.00624398 0.00116957)
(0.00121911 0.000194964 0.00025254)
(0.000711968 -0.000199658 0.000153032)
(0.000599985 -0.000401498 4.8255e-05)
(0.000838244 -0.000769634 -5.65059e-05)
(0.00411545 0.00110668 0.000511578)
(0.00337011 -0.000238727 0.000391272)
(0.00314291 -0.00120529 0.000240172)
(0.00340947 -0.00250242 0.000113471)
(0.00697968 0.00164091 0.000718914)
(0.00635982 -0.00025234 0.000583983)
(0.0061033 -0.0018653 0.000430514)
(0.00620862 -0.00374796 0.000291551)
(0.00997796 0.00192587 0.000872912)
(0.00947355 -0.000335279 0.000739439)
(0.00921541 -0.00238953 0.000598263)
(0.00920108 -0.00465702 0.000465387)
(0.0129874 0.00199103 0.000990323)
(0.0125787 -0.000483221 0.00086471)
(0.012325 -0.0028134 0.000739098)
(0.012223 -0.00529851 0.000615799)
(0.0159305 0.00189968 0.00108543)
(0.0155908 -0.000679692 0.000968043)
(0.0153421 -0.00316383 0.000855702)
(0.0151815 -0.0057527 0.000740421)
(0.0187638 0.00171147 0.00116878)
(0.0184688 -0.000905876 0.00105739)
(0.0182246 -0.00346273 0.000954611)
(0.0180292 -0.00608656 0.00084424)
(0.0214877 0.00148059 0.00124525)
(0.0212111 -0.00114392 0.00113921)
(0.0209701 -0.00372747 0.00104457)
(0.0207634 -0.00635608 0.000938436)
(0.00123248 0.000199909 0.000160781)
(0.000718175 -0.000200594 0.00010315)
(0.000608394 -0.000405677 4.11409e-05)
(0.000858693 -0.000780569 -2.03673e-05)
(0.00416809 0.00109309 0.000354669)
(0.00340957 -0.000259524 0.000277226)
(0.00318422 -0.00122534 0.000182239)
(0.00346785 -0.00252898 0.000101559)
(0.00706419 0.00160363 0.000518365)
(0.00643224 -0.000293751 0.000426952)
(0.0061751 -0.00190439 0.000324459)
(0.0062917 -0.00378945 0.000230441)
(0.0100848 0.00186894 0.000648682)
(0.00957119 -0.000393169 0.000553026)
(0.00931115 -0.00244436 0.00045288)
(0.00930257 -0.00471228 0.000357086)
(0.0131076 0.00192198 0.000753346)
(0.0126932 -0.000551967 0.000657802)
(0.0124374 -0.00287991 0.000563064)
(0.0123373 -0.00536533 0.000468674)
(0.0160581 0.0018258 0.000839686)
(0.0157156 -0.000754166 0.000745549)
(0.0154655 -0.00323838 0.000655962)
(0.0153047 -0.00582913 0.000563152)
(0.0188961 0.00163838 0.00091392)
(0.0186009 -0.000982178 0.000821109)
(0.018356 -0.00354242 0.000735644)
(0.0181594 -0.00617088 0.000643694)
(0.0216255 0.00141173 0.000978675)
(0.0213504 -0.00121944 0.000888501)
(0.0211093 -0.00381005 0.000807848)
(0.0209011 -0.0064465 0.000717901)
(0.00124131 0.000202918 0.000100101)
(0.000722501 -0.000201258 6.68875e-05)
(0.000614008 -0.00040835 3.08476e-05)
(0.000871693 -0.00078757 -4.96226e-06)
(0.00420262 0.00108725 0.000233797)
(0.00343629 -0.000271508 0.000185718)
(0.00321239 -0.00123843 0.000127739)
(0.00350666 -0.00254809 7.79113e-05)
(0.00712154 0.00158323 0.000350931)
(0.00648265 -0.000319347 0.000291818)
(0.00622571 -0.00193056 0.00022632)
(0.0063497 -0.00381982 0.000165529)
(0.0101606 0.00183441 0.000448223)
(0.0096417 -0.000431171 0.000383772)
(0.00938094 -0.00248242 0.00031681)
(0.0093764 -0.00475323 0.000251963)
(0.0131967 0.00187707 0.000528991)
(0.0127788 -0.000599239 0.000461909)
(0.012522 -0.00292748 0.000395725)
(0.0124234 -0.0054154 0.00032912)
(0.0161561 0.00177532 0.000596669)
(0.015812 -0.000807125 0.000528185)
(0.0155608 -0.00329283 0.00046318)
(0.0153999 -0.00588667 0.000395474)
(0.0190006 0.00158669 0.000654448)
(0.018705 -0.00103766 0.000585205)
(0.0184595 -0.00360137 0.000521476)
(0.0182618 -0.00623434 0.000452903)
(0.0217361 0.00136184 0.000703261)
(0.0214614 -0.0012752 0.000635069)
(0.0212199 -0.00387164 0.000574039)
(0.0210102 -0.00651449 0.000506222)
(0.00124684 0.000204663 5.51913e-05)
(0.000725421 -0.000201698 3.78252e-05)
(0.000617693 -0.000409976 1.89572e-05)
(0.000879697 -0.000791813 1.07108e-07)
(0.00422406 0.00108497 0.0001334)
(0.00345333 -0.000278191 0.000107063)
(0.0032304 -0.00124654 7.56626e-05)
(0.00353092 -0.00256068 4.84269e-05)
(0.00715775 0.00157273 0.000203537)
(0.00651504 -0.000334199 0.000170238)
(0.00625846 -0.00194691 0.000133657)
(0.00638689 -0.00384001 9.93986e-05)
(0.0102097 0.00181513 0.000263252)
(0.00968785 -0.00045405 0.000225966)
(0.00942687 -0.00250658 0.000187432)
(0.00942483 -0.00478057 0.000149802)
(0.0132558 0.00185065 0.000313808)
(0.0128359 -0.000628561 0.000273992)
(0.0125786 -0.00295814 0.00023483)
(0.0124809 -0.00544889 0.000195174)
(0.0162225 0.00174451 0.000356616)
(0.0158773 -0.000840719 0.000315082)
(0.0156256 -0.00332833 0.000275711)
(0.0154645 -0.00592515 0.000234585)
(0.0190726 0.00155431 0.00039307)
(0.0187766 -0.00107341 0.000350434)
(0.0185305 -0.00364008 0.000311202)
(0.0183321 -0.00627669 0.000269002)
(0.0218129 0.00133 0.000423274)
(0.0215381 -0.00131155 0.000380947)
(0.0212961 -0.00391231 0.000343065)
(0.0210853 -0.00655982 0.000301064)
(0.00124951 0.000205473 1.76764e-05)
(0.000726909 -0.000201918 1.22604e-05)
(0.000619543 -0.000410751 6.38058e-06)
(0.000883552 -0.000793832 4.82082e-07)
(0.0042344 0.00108424 4.34085e-05)
(0.00346169 -0.000281203 3.50106e-05)
(0.00323926 -0.00125045 2.5056e-05)
(0.00354267 -0.00256695 1.6378e-05)
(0.00717536 0.00156832 6.6745e-05)
(0.00653098 -0.000341029 5.59771e-05)
(0.00627462 -0.00195481 4.42003e-05)
(0.00640513 -0.00385012 3.31183e-05)
(0.0102338 0.00180655 8.68433e-05)
(0.00971073 -0.000464785 7.46274e-05)
(0.00944971 -0.00251834 6.20378e-05)
(0.00944885 -0.00479427 4.96909e-05)
(0.0132852 0.00183851 0.000104015)
(0.0128645 -0.000642548 9.08101e-05)
(0.012607 -0.00297316 7.78417e-05)
(0.0125097 -0.00546567 6.46707e-05)
(0.0162559 0.00173003 0.00011863)
(0.0159103 -0.000856948 0.000104715)
(0.0156583 -0.00334582 9.15333e-05)
(0.0154971 -0.00594441 7.77456e-05)
(0.0191091 0.00153885 0.000131066)
(0.018813 -0.00109084 0.00011668)
(0.0185666 -0.00365923 0.000103445)
(0.0183677 -0.00629786 8.92109e-05)
(0.0218522 0.00131461 0.000141274)
(0.0215773 -0.0013294 0.000126939)
(0.0213349 -0.00393249 0.000114112)
(0.0211235 -0.00658246 9.99048e-05)
)
;

boundaryField
{
    interface
    {
        type            calculated;
        value           nonuniform List<vector> 
192
(
(0.00216911 0.00169691 0.00126605)
(0.0039751 0.00254505 0.00160515)
(0.0068107 0.00336564 0.00180456)
(0.00969208 0.00372955 0.00183931)
(0.0126809 0.00380921 0.00184874)
(0.0156227 0.00367033 0.00186608)
(0.0184639 0.00340969 0.00191347)
(0.0211918 0.00310726 0.0019925)
(0.00217193 0.00172888 0.000708488)
(0.00433194 0.00241078 0.00113313)
(0.00707011 0.00320773 0.0014005)
(0.00993894 0.00358285 0.00152327)
(0.0128801 0.00367316 0.00159434)
(0.0157867 0.00354801 0.00165138)
(0.0186042 0.00329967 0.00171684)
(0.0213239 0.00300938 0.00179857)
(0.00223628 0.00179434 0.000422656)
(0.00449502 0.00237639 0.000783325)
(0.00727133 0.00310353 0.00104519)
(0.0101392 0.00345708 0.00121147)
(0.0130648 0.00354244 0.00132255)
(0.0159538 0.00342462 0.00140896)
(0.0187586 0.00318892 0.0014892)
(0.0214739 0.00291467 0.00157219)
(0.00228287 0.0018379 0.000263265)
(0.00459254 0.00236966 0.000545924)
(0.00740801 0.00305088 0.000769945)
(0.0102922 0.00337289 0.000934471)
(0.0132205 0.0034442 0.0010567)
(0.0161066 0.00332449 0.00115353)
(0.0189085 0.00309482 0.00123786)
(0.0216246 0.00283146 0.00131642)
(0.00231328 0.00186547 0.000167491)
(0.00465495 0.0023723 0.000376972)
(0.00750072 0.00302604 0.000553092)
(0.0104044 0.00332315 0.00069318)
(0.0133434 0.00337876 0.000804241)
(0.0162345 0.00325254 0.000894549)
(0.0190395 0.00302363 0.000971611)
(0.0217598 0.00276596 0.00103931)
(0.00233293 0.00188293 0.000104279)
(0.00469565 0.00237746 0.000248046)
(0.00756325 0.00301539 0.000373769)
(0.0104837 0.00329567 0.000478537)
(0.0134342 0.00333853 0.000564924)
(0.0163328 0.00320525 0.000636632)
(0.0191432 0.00297467 0.000697484)
(0.0218689 0.00271928 0.000749149)
(0.00234489 0.00189343 5.75135e-05)
(0.00472066 0.00238209 0.000141438)
(0.00760244 0.00301146 0.000216627)
(0.0105346 0.00328163 0.000280965)
(0.0134942 0.00331601 0.000335224)
(0.0163993 0.00317733 0.000380863)
(0.0192147 0.00294472 0.000419551)
(0.0219449 0.00268996 0.000451766)
(0.00235058 0.0018984 1.84251e-05)
(0.00473263 0.00238472 4.60164e-05)
(0.00762141 0.00301035 7.10214e-05)
(0.0105596 0.00327581 9.26793e-05)
(0.013524 0.00330602 0.000111134)
(0.0164328 0.0031645 0.000126755)
(0.0192511 0.00293065 0.000139997)
(0.0219839 0.00267595 0.000150925)
(0.00105566 0.00102291 0.00191618)
(0.00344901 0.00142668 0.00160028)
(0.00627045 0.00202845 0.00188041)
(0.00928834 0.00228136 0.00187998)
(0.0123726 0.0023432 0.00189403)
(0.0153877 0.00224531 0.00191363)
(0.0182684 0.0020503 0.00196395)
(0.0210028 0.0018046 0.00204412)
(0.000430552 0.000386085 0.000911718)
(0.00274221 0.000153233 0.00118139)
(0.0056442 0.000185341 0.00140599)
(0.00878435 8.37573e-05 0.00154788)
(0.0119606 -7.97898e-05 0.00166139)
(0.0150435 -0.000292337 0.00175924)
(0.017969 -0.000530253 0.00185419)
(0.0207239 -0.000778543 0.00194834)
(0.000262563 -0.000161937 0.000150312)
(0.00251681 -0.000758789 0.000525691)
(0.00539962 -0.0013761 0.000888243)
(0.00854643 -0.00190094 0.00118124)
(0.0117239 -0.00234921 0.00141379)
(0.014805 -0.00272523 0.00159659)
(0.0177272 -0.00304123 0.00174354)
(0.0204791 -0.00331082 0.00187478)
(0.00048055 -0.000808658 -0.000804883)
(0.00277877 -0.00199275 -4.56925e-07)
(0.00555301 -0.0032057 0.000406177)
(0.00857828 -0.00410662 0.000847675)
(0.0116606 -0.0047821 0.00118658)
(0.0146691 -0.00526977 0.00144501)
(0.0175397 -0.00562436 0.00163369)
(0.0202652 -0.00589304 0.00177685)
(0.00116559 -0.001792 -0.00061406)
(0.00314659 -0.00344884 -0.000139771)
(0.00583955 -0.00483359 0.000289032)
(0.00872679 -0.00577987 0.000702792)
(0.0117104 -0.00641864 0.00103501)
(0.0146509 -0.00682858 0.00128581)
(0.0174865 -0.00709887 0.00146632)
(0.0202079 -0.00730837 0.00160295)
(0.00137773 -0.0019524 -0.00032378)
(0.00340951 -0.00359905 -3.10815e-05)
(0.00606974 -0.00500298 0.000288928)
(0.00893701 -0.00594607 0.000598971)
(0.0118858 -0.00657403 0.000857424)
(0.0148015 -0.00697651 0.00105954)
(0.0176251 -0.00724443 0.00121311)
(0.0203477 -0.00745626 0.00133772)
(0.00149286 -0.00206104 -0.000156553)
(0.00356974 -0.00367538 4.55661e-05)
(0.00624747 -0.00509601 0.000274709)
(0.00911174 -0.00604786 0.000502667)
(0.012051 -0.00668249 0.00069846)
(0.0149575 -0.00709307 0.000856806)
(0.0177773 -0.00737072 0.000983209)
(0.0205036 -0.00759299 0.00109193)
(0.00155663 -0.00212662 -7.10604e-05)
(0.00367297 -0.00372903 7.53841e-05)
(0.00637522 -0.00516178 0.000241446)
(0.00924993 -0.00612451 0.000407838)
(0.0121936 -0.00676956 0.000553797)
(0.0151019 -0.0071903 0.000675274)
(0.0179246 -0.00747817 0.000776005)
(0.0206571 -0.00770989 0.000866105)
(0.00159535 -0.00216786 -2.96375e-05)
(0.00374078 -0.00376917 7.61751e-05)
(0.00646597 -0.00521287 0.000194904)
(0.00935528 -0.00618586 0.000313897)
(0.0123087 -0.00684056 0.000419905)
(0.015224 -0.00727004 0.000510089)
(0.0180528 -0.0075659 0.000586913)
(0.020792 -0.00780468 0.000657232)
(0.00161995 -0.00219433 -1.08568e-05)
(0.0037856 -0.00379839 6.13681e-05)
(0.00652891 -0.00525145 0.000141523)
(0.00943168 -0.00623289 0.000221791)
(0.0123954 -0.00689522 0.000294079)
(0.0153186 -0.00733123 0.000356546)
(0.0181538 -0.00763267 0.000410704)
(0.0208992 -0.00787628 0.000460878)
(0.00163489 -0.00221045 -3.22056e-06)
(0.00381339 -0.00381761 3.89732e-05)
(0.006569 -0.00527744 8.54201e-05)
(0.00948163 -0.00626481 0.00013191)
(0.0124533 -0.00693234 0.000174074)
(0.0153827 -0.00737263 0.000210875)
(0.0182231 -0.00767754 0.000243114)
(0.0209731 -0.00792417 0.000273151)
(0.00164201 -0.00221814 -5.98943e-07)
(0.00382676 -0.00382717 1.32915e-05)
(0.00658856 -0.00529051 2.85183e-05)
(0.00950634 -0.00628093 4.37564e-05)
(0.0124823 -0.00695109 5.7625e-05)
(0.0154151 -0.00739348 6.97886e-05)
(0.0182582 -0.00770006 8.04953e-05)
(0.0210106 -0.00794815 9.04916e-05)
(0.0223692 0.00163747 0.00198342)
(0.0225059 0.00154034 0.00177325)
(0.0226662 0.00144952 0.00153811)
(0.0228255 0.00136785 0.00127989)
(0.0229674 0.00130183 0.00100526)
(0.0230814 0.0012533 0.000721624)
(0.0231607 0.00122198 0.00043391)
(0.0232014 0.00120672 0.000144744)
(0.0220503 -0.000949152 0.00189311)
(0.0221937 -0.00105922 0.00167037)
(0.0223601 -0.00116383 0.00143084)
(0.0225233 -0.00125557 0.00117882)
(0.0226672 -0.00133008 0.000919314)
(0.0227817 -0.00138559 0.000656764)
(0.022861 -0.00142206 0.000393743)
(0.0229015 -0.00144005 0.000131159)
(0.0218048 -0.00350421 0.00182267)
(0.0219499 -0.00363203 0.00158251)
(0.022118 -0.00375038 0.00133717)
(0.0222823 -0.00385302 0.00108957)
(0.0224263 -0.00393628 0.00084299)
(0.0225405 -0.00399876 0.000599015)
(0.0226193 -0.0040402 0.000357944)
(0.0226594 -0.00406082 0.000119048)
(0.0216297 -0.0060907 0.00173054)
(0.0217729 -0.00623261 0.00147934)
(0.0219391 -0.00636662 0.00123014)
(0.0221016 -0.00648094 0.00098892)
(0.022244 -0.00657364 0.000757477)
(0.0223568 -0.00664347 0.000534532)
(0.0224345 -0.00669008 0.000318037)
(0.022474 -0.00671339 0.000105556)
)
;
    }
    symmetry
    {
        type            symmetryPlane;
    }
    bottom
    {
        type            calculated;
        value           uniform (0 0 0);
    }
}


// ************************************************************************* //
