/*--------------------------------*- C++ -*----------------------------------*\
| =========                 |                                                 |
| \\      /  F ield         | foam-extend: Open Source CFD                    |
|  \\    /   O peration     | Version:     3.1                                |
|   \\  /    A nd           | Web:         http://www.extend-project.de       |
|    \\/     M anipulation  |                                                 |
\*---------------------------------------------------------------------------*/
FoamFile
{
    version     2.0;
    format      ascii;
    class       volVectorField;
    location    "2.9";
    object      cellMotionU;
}
// * * * * * * * * * * * * * * * * * * * * * * * * * * * * * * * * * * * * * //

dimensions      [0 1 -1 0 0 0 0];

internalField   nonuniform List<vector> 
14592
(
(2.31788e-11 5.32329e-12 -2.21292e-12)
(6.72982e-11 1.55749e-11 -6.61219e-12)
(1.07929e-10 2.53852e-11 -1.12251e-11)
(1.46659e-10 3.52863e-11 -1.65666e-11)
(1.84986e-10 4.57892e-11 -2.3219e-11)
(2.244e-10 5.74101e-11 -3.19193e-11)
(2.66429e-10 7.06507e-11 -4.36698e-11)
(3.12725e-10 8.61224e-11 -5.99081e-11)
(3.64923e-10 1.04398e-10 -8.27263e-11)
(4.24544e-10 1.26088e-10 -1.15213e-10)
(4.92591e-10 1.51698e-10 -1.61864e-10)
(5.6913e-10 1.81329e-10 -2.289e-10)
(6.53701e-10 2.14712e-10 -3.23867e-10)
(7.48731e-10 2.5154e-10 -4.52353e-10)
(8.68261e-10 2.93724e-10 -6.05935e-10)
(1.02153e-09 3.42993e-10 -7.2943e-10)
(6.87811e-11 1.57176e-11 -6.48963e-12)
(1.99683e-10 4.60354e-11 -1.93831e-11)
(3.20098e-10 7.49957e-11 -3.28609e-11)
(4.3466e-10 1.0424e-10 -4.84019e-11)
(5.47686e-10 1.35269e-10 -6.76509e-11)
(6.63387e-10 1.69535e-10 -9.26559e-11)
(7.86098e-10 2.08591e-10 -1.26175e-10)
(9.20309e-10 2.54196e-10 -1.72084e-10)
(1.07034e-09 3.08033e-10 -2.35943e-10)
(1.2398e-09 3.72087e-10 -3.25838e-10)
(1.42958e-09 4.47515e-10 -4.53283e-10)
(1.63503e-09 5.34428e-10 -6.33928e-10)
(1.84101e-09 6.29592e-10 -8.85938e-10)
(2.01707e-09 7.23875e-10 -1.22051e-09)
(2.11674e-09 7.98014e-10 -1.60948e-09)
(2.09489e-09 8.23093e-10 -1.907e-09)
(1.12574e-10 2.55036e-11 -1.03816e-11)
(3.26649e-10 7.46352e-11 -3.09623e-11)
(5.23138e-10 1.21584e-10 -5.23575e-11)
(7.09325e-10 1.68959e-10 -7.68116e-11)
(8.91888e-10 2.1917e-10 -1.06767e-10)
(1.0772e-09 2.74513e-10 -1.45172e-10)
(1.27169e-09 3.3769e-10 -1.95887e-10)
(1.48148e-09 4.11166e-10 -2.64079e-10)
(1.71229e-09 4.98217e-10 -3.56952e-10)
(1.96729e-09 6.01632e-10 -4.84408e-10)
(2.24378e-09 7.24041e-10 -6.59958e-10)
(2.52481e-09 8.6544e-10 -9.00693e-10)
(2.76367e-09 1.02023e-09 -1.22408e-09)
(2.85644e-09 1.1701e-09 -1.63328e-09)
(2.61625e-09 1.27395e-09 -2.07225e-09)
(1.92342e-09 1.27598e-09 -2.34291e-09)
(1.53542e-10 3.42759e-11 -1.36947e-11)
(4.45252e-10 1.00302e-10 -4.07716e-11)
(7.1216e-10 1.63379e-10 -6.86902e-11)
(9.63657e-10 2.26972e-10 -1.002e-10)
(1.20814e-09 2.94229e-10 -1.38178e-10)
(1.45346e-09 3.6835e-10 -1.85952e-10)
(1.70696e-09 4.52683e-10 -2.47584e-10)
(1.97532e-09 5.50864e-10 -3.28187e-10)
(2.26365e-09 6.67078e-10 -4.34208e-10)
(2.57295e-09 8.05832e-10 -5.73601e-10)
(2.89457e-09 9.71166e-10 -7.55551e-10)
(3.19872e-09 1.16549e-09 -9.89103e-10)
(3.41125e-09 1.38567e-09 -1.27809e-09)
(3.374e-09 1.61781e-09 -1.60559e-09)
(2.81285e-09 1.83025e-09 -1.89258e-09)
(1.60417e-09 1.96923e-09 -1.95542e-09)
(1.90934e-10 4.17299e-11 -1.63183e-11)
(5.53298e-10 1.22132e-10 -4.84726e-11)
(8.83599e-10 1.98861e-10 -8.12882e-11)
(1.19274e-09 2.7614e-10 -1.1774e-10)
(1.49018e-09 3.57691e-10 -1.60782e-10)
(1.78446e-09 4.47561e-10 -2.13608e-10)
(2.08281e-09 5.49357e-10 -2.79684e-10)
(2.39134e-09 6.67997e-10 -3.62853e-10)
(2.71305e-09 8.08267e-10 -4.66825e-10)
(3.04536e-09 9.76334e-10 -5.9439e-10)
(3.37343e-09 1.17858e-09 -7.45309e-10)
(3.65771e-09 1.42094e-09 -9.12408e-10)
(3.81054e-09 1.7063e-09 -1.07444e-09)
(3.65873e-09 2.02999e-09 -1.18363e-09)
(2.92216e-09 2.37197e-09 -1.14899e-09)
(1.51565e-09 2.66531e-09 -8.86074e-10)
(2.24248e-10 4.76079e-11 -1.82132e-11)
(6.49334e-10 1.39294e-10 -5.39686e-11)
(1.03526e-09 2.26775e-10 -9.00373e-11)
(1.3938e-09 3.14712e-10 -1.29369e-10)
(1.73499e-09 4.07467e-10 -1.74728e-10)
(2.06717e-09 5.09179e-10 -2.28756e-10)
(2.39713e-09 6.24484e-10 -2.93914e-10)
(2.72912e-09 7.58096e-10 -3.71964e-10)
(3.06369e-09 9.162e-10 -4.63036e-10)
(3.39386e-09 1.1058e-09 -5.63337e-10)
(3.6987e-09 1.33557e-09 -6.6107e-10)
(3.93059e-09 1.61536e-09 -7.29013e-10)
(3.99264e-09 1.95415e-09 -7.12596e-10)
(3.706e-09 2.35479e-09 -5.15742e-10)
(2.80486e-09 2.79714e-09 -9.11745e-12)
(1.27735e-09 3.179e-09 7.73361e-10)
(2.53227e-10 5.16993e-11 -1.94193e-11)
(7.32709e-10 1.51244e-10 -5.73871e-11)
(1.16627e-09 2.46172e-10 -9.52154e-11)
(1.56609e-09 3.41418e-10 -1.35655e-10)
(1.94232e-09 4.41779e-10 -1.81112e-10)
(2.30283e-09 5.51484e-10 -2.33527e-10)
(2.65339e-09 6.75293e-10 -2.94177e-10)
(2.99663e-09 8.18346e-10 -3.62846e-10)
(3.33043e-09 9.86842e-10 -4.36305e-10)
(3.64438e-09 1.18847e-09 -5.05241e-10)
(3.91317e-09 1.43337e-09 -5.48584e-10)
(4.08299e-09 1.73386e-09 -5.22918e-10)
(4.04651e-09 2.10492e-09 -3.44157e-10)
(3.59862e-09 2.55998e-09 1.39771e-10)
(2.40763e-09 3.09042e-09 1.14963e-09)
(4.10918e-10 3.57193e-09 2.6417e-09)
(2.77823e-10 5.38501e-11 -2.00183e-11)
(8.03389e-10 1.57628e-10 -5.90142e-11)
(1.2768e-09 2.56422e-10 -9.73691e-11)
(1.71042e-09 3.55565e-10 -1.37577e-10)
(2.11409e-09 4.59622e-10 -1.81581e-10)
(2.49531e-09 5.73148e-10 -2.30716e-10)
(2.85887e-09 7.00619e-10 -2.85241e-10)
(3.2062e-09 8.47011e-10 -3.43516e-10)
(3.53383e-09 1.01818e-09 -4.00298e-10)
(3.83052e-09 1.22152e-09 -4.43669e-10)
(4.07143e-09 1.46634e-09 -4.49377e-10)
(4.20721e-09 1.76493e-09 -3.70748e-10)
(4.14087e-09 2.13345e-09 -1.19836e-10)
(3.67968e-09 2.59361e-09 4.67477e-10)
(2.46604e-09 3.17219e-09 1.6724e-09)
(2.60153e-10 3.82538e-09 3.63046e-09)
(2.38258e-11 5.34039e-12 -2.21399e-12)
(6.92605e-11 1.56226e-11 -6.62896e-12)
(1.11361e-10 2.54114e-11 -1.12969e-11)
(1.51978e-10 3.52484e-11 -1.67712e-11)
(1.9293e-10 4.56135e-11 -2.36867e-11)
(2.36174e-10 5.69722e-11 -3.2862e-11)
(2.83967e-10 6.98148e-11 -4.5431e-11)
(3.39035e-10 8.46475e-11 -6.30212e-11)
(4.04772e-10 1.02037e-10 -8.80175e-11)
(4.85391e-10 1.22561e-10 -1.23916e-10)
(5.86117e-10 1.46779e-10 -1.75762e-10)
(7.13677e-10 1.75355e-10 -2.5053e-10)
(8.78178e-10 2.09651e-10 -3.56854e-10)
(1.09898e-09 2.54446e-10 -5.02454e-10)
(1.41246e-09 3.2416e-10 -6.84154e-10)
(1.81287e-09 4.3386e-10 -8.53843e-10)
(7.06547e-11 1.57878e-11 -6.49447e-12)
(2.05339e-10 4.6156e-11 -1.94308e-11)
(3.30001e-10 7.5098e-11 -3.30762e-11)
(4.49978e-10 1.04164e-10 -4.90113e-11)
(5.7051e-10 1.34774e-10 -6.90383e-11)
(6.97169e-10 1.68317e-10 -9.54547e-11)
(8.36303e-10 2.06211e-10 -1.31399e-10)
(9.95518e-10 2.49938e-10 -1.81316e-10)
(1.18415e-09 3.0118e-10 -2.51636e-10)
(1.41346e-09 3.61474e-10 -3.51622e-10)
(1.69661e-09 4.3228e-10 -4.94446e-10)
(2.0478e-09 5.14103e-10 -6.97841e-10)
(2.48137e-09 6.06148e-10 -9.82904e-10)
(3.01181e-09 7.0621e-10 -1.36634e-09)
(3.65014e-09 8.12292e-10 -1.8342e-09)
(4.3103e-09 9.1455e-10 -2.26006e-09)
(1.15474e-10 2.56049e-11 -1.03885e-11)
(3.3543e-10 7.48971e-11 -3.10483e-11)
(5.38452e-10 1.21824e-10 -5.27168e-11)
(7.32911e-10 1.68935e-10 -7.78147e-11)
(9.2689e-10 2.1852e-10 -1.09041e-10)
(1.1288e-09 2.72822e-10 -1.49756e-10)
(1.34799e-09 3.3402e-10 -2.04406e-10)
(1.59548e-09 4.04685e-10 -2.79152e-10)
(1.88428e-09 4.8725e-10 -3.82539e-10)
(2.22962e-09 5.84467e-10 -5.26495e-10)
(2.64751e-09 6.98028e-10 -7.27121e-10)
(3.1507e-09 8.27549e-10 -1.00488e-09)
(3.73859e-09 9.66457e-10 -1.38162e-09)
(4.37831e-09 1.09561e-09 -1.86912e-09)
(4.97968e-09 1.17451e-09 -2.43652e-09)
(5.38417e-09 1.1561e-09 -2.92569e-09)
(1.57196e-10 3.44516e-11 -1.37087e-11)
(4.56274e-10 1.00742e-10 -4.08971e-11)
(7.31284e-10 1.63836e-10 -6.91893e-11)
(9.9293e-10 2.27129e-10 -1.01572e-10)
(1.25132e-09 2.93697e-10 -1.41279e-10)
(1.51663e-09 3.66444e-10 -1.92166e-10)
(1.79982e-09 4.48451e-10 -2.59143e-10)
(2.1132e-09 5.42867e-10 -3.48597e-10)
(2.47092e-09 6.53376e-10 -4.68906e-10)
(2.8885e-09 7.83416e-10 -6.3073e-10)
(3.38124e-09 9.36073e-10 -8.47022e-10)
(3.95822e-09 1.11119e-09 -1.13161e-09)
(4.60933e-09 1.30109e-09 -1.49486e-09)
(5.28136e-09 1.48185e-09 -1.93273e-09)
(5.8554e-09 1.60498e-09 -2.40384e-09)
(6.18613e-09 1.61861e-09 -2.7829e-09)
(1.94997e-10 4.19867e-11 -1.63384e-11)
(5.65493e-10 1.22746e-10 -4.86329e-11)
(9.04643e-10 1.99613e-10 -8.19151e-11)
(1.22469e-09 2.76645e-10 -1.19443e-10)
(1.53688e-09 3.57575e-10 -1.6461e-10)
(1.85203e-09 4.45864e-10 -2.21235e-10)
(2.18123e-09 5.45258e-10 -2.93866e-10)
(2.53612e-09 6.59605e-10 -3.87869e-10)
(2.9292e-09 7.93416e-10 -5.09403e-10)
(3.37329e-09 9.51606e-10 -6.64762e-10)
(3.87969e-09 1.13878e-09 -8.58705e-10)
(4.45418e-09 1.35757e-09 -1.09105e-09)
(5.08899e-09 1.60321e-09 -1.35092e-09)
(5.75344e-09 1.85371e-09 -1.61091e-09)
(6.39353e-09 2.05552e-09 -1.83136e-09)
(6.92919e-09 2.13105e-09 -1.98707e-09)
(2.2836e-10 4.79297e-11 -1.82387e-11)
(6.61654e-10 1.4018e-10 -5.41657e-11)
(1.05631e-09 2.27894e-10 -9.07701e-11)
(1.42541e-09 3.15767e-10 -1.31345e-10)
(1.78051e-09 4.07915e-10 -1.79127e-10)
(2.1322e-09 5.08365e-10 -2.3752e-10)
(2.49037e-09 6.21119e-10 -3.10127e-10)
(2.86458e-09 7.50813e-10 -4.00585e-10)
(3.26358e-09 9.02592e-10 -5.11785e-10)
(3.69466e-09 1.08266e-09 -6.44209e-10)
(4.16167e-09 1.29807e-09 -7.92449e-10)
(4.66199e-09 1.55526e-09 -9.39044e-10)
(5.18397e-09 1.85554e-09 -1.046e-09)
(5.71406e-09 2.18125e-09 -1.05146e-09)
(6.27584e-09 2.46489e-09 -9.04478e-10)
(6.93613e-09 2.56804e-09 -7.04891e-10)
(2.5708e-10 5.21166e-11 -1.9449e-11)
(7.44168e-10 1.52401e-10 -5.76083e-11)
(1.18561e-09 2.47739e-10 -9.6024e-11)
(1.59469e-09 3.43184e-10 -1.37824e-10)
(1.98269e-09 4.4308e-10 -1.85896e-10)
(2.35934e-09 5.51825e-10 -2.43031e-10)
(2.7328e-09 6.73669e-10 -3.11727e-10)
(3.10967e-09 8.13462e-10 -3.93752e-10)
(3.49429e-09 9.76957e-10 -4.88935e-10)
(3.88736e-09 1.17136e-09 -5.92726e-10)
(4.28322e-09 1.40574e-09 -6.91469e-10)
(4.66526e-09 1.69148e-09 -7.54149e-10)
(4.9993e-09 2.03962e-09 -7.19868e-10)
(5.23227e-09 2.45035e-09 -4.89031e-10)
(5.32973e-09 2.87479e-09 3.39132e-11)
(5.40786e-09 3.13353e-09 6.84061e-10)
(2.81167e-10 5.43875e-11 -2.00527e-11)
(8.1318e-10 1.59004e-10 -5.92365e-11)
(1.29309e-09 2.58492e-10 -9.82136e-11)
(1.73389e-09 3.57928e-10 -1.39815e-10)
(2.14643e-09 4.62056e-10 -1.86551e-10)
(2.53917e-09 5.75024e-10 -2.40529e-10)
(2.91861e-09 7.01313e-10 -3.03302e-10)
(3.2887e-09 8.45732e-10 -3.75209e-10)
(3.65017e-09 1.01407e-09 -4.54105e-10)
(3.99894e-09 1.21364e-09 -5.32862e-10)
(4.32346e-09 1.4546e-09 -5.94952e-10)
(4.59946e-09 1.75075e-09 -6.06738e-10)
(4.78103e-09 2.12154e-09 -5.05811e-10)
(4.78746e-09 2.59221e-09 -1.88908e-10)
(4.50878e-09 3.1829e-09 4.66075e-10)
(3.97922e-09 3.81337e-09 1.36117e-09)
(2.44333e-11 5.32276e-12 -2.12152e-12)
(7.11088e-11 1.55471e-11 -6.36385e-12)
(1.14624e-10 2.52437e-11 -1.08899e-11)
(1.57072e-10 3.49013e-11 -1.62636e-11)
(2.00606e-10 4.49624e-11 -2.31489e-11)
(2.47662e-10 5.58404e-11 -3.24189e-11)
(3.01221e-10 6.79269e-11 -4.5298e-11)
(3.6517e-10 8.16529e-11 -6.3569e-11)
(4.44706e-10 9.74654e-11 -8.98526e-11)
(5.46898e-10 1.15889e-10 -1.28003e-10)
(6.8142e-10 1.37632e-10 -1.83591e-10)
(8.61746e-10 1.63944e-10 -2.64354e-10)
(1.10778e-09 1.9807e-10 -3.80138e-10)
(1.45134e-09 2.49428e-10 -5.40767e-10)
(1.93674e-09 3.41541e-10 -7.46159e-10)
(2.52164e-09 4.93966e-10 -9.45896e-10)
(7.24064e-11 1.57291e-11 -6.22244e-12)
(2.1068e-10 4.59733e-11 -1.86587e-11)
(3.39401e-10 7.46265e-11 -3.18895e-11)
(4.6463e-10 1.03174e-10 -4.75401e-11)
(5.92547e-10 1.32915e-10 -6.75014e-11)
(7.30067e-10 1.65033e-10 -9.42337e-11)
(8.85627e-10 2.00694e-10 -1.31161e-10)
(1.07012e-09 2.4114e-10 -1.83215e-10)
(1.29806e-09 2.87604e-10 -2.57565e-10)
(1.58899e-09 3.41517e-10 -3.64646e-10)
(1.96901e-09 4.04252e-10 -5.19302e-10)
(2.47213e-09 4.7752e-10 -7.4176e-10)
(3.14108e-09 5.63963e-10 -1.05682e-09)
(4.02429e-09 6.69939e-10 -1.48688e-09)
(5.14511e-09 8.08684e-10 -2.02402e-09)
(6.28662e-09 9.74402e-10 -2.52734e-09)
(1.18195e-10 2.55487e-11 -9.9579e-12)
(3.43677e-10 7.46239e-11 -2.98187e-11)
(5.52934e-10 1.21132e-10 -5.08411e-11)
(7.55405e-10 1.67447e-10 -7.55175e-11)
(9.60567e-10 2.15662e-10 -1.06703e-10)
(1.17884e-09 2.67659e-10 -1.48038e-10)
(1.42275e-09 3.25382e-10 -2.045e-10)
(1.70814e-09 3.90599e-10 -2.83065e-10)
(2.05603e-09 4.65398e-10 -3.93693e-10)
(2.49432e-09 5.51513e-10 -5.50422e-10)
(3.05954e-09 6.50421e-10 -7.72654e-10)
(3.79647e-09 7.61784e-10 -1.08568e-09)
(4.75168e-09 8.81256e-10 -1.51855e-09)
(5.94925e-09 9.95565e-10 -2.09311e-09)
(7.31739e-09 1.0753e-09 -2.78687e-09)
(8.46959e-09 1.07972e-09 -3.40973e-09)
(1.60593e-10 3.43876e-11 -1.31416e-11)
(4.66561e-10 1.00448e-10 -3.92873e-11)
(7.49272e-10 1.63042e-10 -6.67547e-11)
(1.0207e-09 2.25347e-10 -9.86415e-11)
(1.29261e-09 2.90137e-10 -1.38405e-10)
(1.57757e-09 3.59977e-10 -1.90335e-10)
(1.89019e-09 4.37297e-10 -2.60083e-10)
(2.24867e-09 5.24599e-10 -3.55328e-10)
(2.67664e-09 6.24384e-10 -4.86546e-10)
(3.20545e-09 7.39059e-10 -6.67853e-10)
(3.87649e-09 8.69969e-10 -9.17597e-10)
(4.74199e-09 1.01581e-09 -1.25805e-09)
(5.85925e-09 1.16825e-09 -1.71228e-09)
(7.2644e-09 1.30571e-09 -2.29342e-09)
(8.88597e-09 1.38953e-09 -2.97181e-09)
(1.02788e-08 1.38979e-09 -3.56552e-09)
(1.9874e-10 4.19395e-11 -1.56649e-11)
(5.76809e-10 1.22542e-10 -4.67367e-11)
(9.24285e-10 1.98865e-10 -7.90695e-11)
(1.25475e-09 2.74817e-10 -1.16087e-10)
(1.5811e-09 3.53711e-10 -1.61475e-10)
(1.91664e-09 4.38721e-10 -2.19642e-10)
(2.27603e-09 5.32635e-10 -2.96098e-10)
(2.67692e-09 6.38637e-10 -3.97977e-10)
(3.14155e-09 7.59719e-10 -5.34343e-10)
(3.69931e-09 8.98948e-10 -7.16394e-10)
(4.39036e-09 1.05862e-09 -9.57049e-10)
(5.27052e-09 1.23811e-09 -1.26946e-09)
(6.41677e-09 1.42941e-09 -1.66387e-09)
(7.92354e-09 1.60931e-09 -2.14189e-09)
(9.83364e-09 1.73462e-09 -2.68103e-09)
(1.17347e-08 1.76888e-09 -3.15923e-09)
(2.32121e-10 4.79566e-11 -1.74938e-11)
(6.72931e-10 1.40083e-10 -5.2064e-11)
(1.07573e-09 2.27352e-10 -8.76573e-11)
(1.45475e-09 3.14123e-10 -1.2775e-10)
(1.82309e-09 4.04254e-10 -1.75963e-10)
(2.1934e-09 5.01177e-10 -2.36379e-10)
(2.57884e-09 6.08333e-10 -3.13841e-10)
(2.994e-09 7.29085e-10 -4.14086e-10)
(3.45631e-09 8.67249e-10 -5.43697e-10)
(3.98796e-09 1.0268e-09 -7.09466e-10)
(4.61967e-09 1.21169e-09 -9.16919e-10)
(5.39808e-09 1.42422e-09 -1.16761e-09)
(6.40055e-09 1.66006e-09 -1.45586e-09)
(7.75835e-09 1.89706e-09 -1.76855e-09)
(9.63939e-09 2.07685e-09 -2.09238e-09)
(1.18142e-08 2.11706e-09 -2.39088e-09)
(2.60532e-10 5.21967e-11 -1.8655e-11)
(7.54466e-10 1.52499e-10 -5.53822e-11)
(1.20312e-09 2.47504e-10 -9.27585e-11)
(1.62068e-09 3.41938e-10 -1.34127e-10)
(2.01969e-09 4.40059e-10 -1.82836e-10)
(2.41131e-09 5.45457e-10 -2.42406e-10)
(2.80615e-09 6.619e-10 -3.16738e-10)
(3.21451e-09 7.93195e-10 -4.09983e-10)
(3.64704e-09 9.43637e-10 -5.26118e-10)
(4.1156e-09 1.11835e-09 -6.67836e-10)
(4.63521e-09 1.32372e-09 -8.34383e-10)
(5.22828e-09 1.56688e-09 -1.01803e-09)
(5.93439e-09 1.85374e-09 -1.20037e-09)
(6.82708e-09 2.17945e-09 -1.35393e-09)
(8.01235e-09 2.50158e-09 -1.46285e-09)
(9.38051e-09 2.69544e-09 -1.5556e-09)
(2.84055e-10 5.45204e-11 -1.92297e-11)
(8.21761e-10 1.5936e-10 -5.6951e-11)
(1.30737e-09 2.58628e-10 -9.4877e-11)
(1.75463e-09 3.57419e-10 -1.36121e-10)
(2.17494e-09 4.59908e-10 -1.83606e-10)
(2.57787e-09 5.7009e-10 -2.40288e-10)
(2.97117e-09 6.91739e-10 -3.09125e-10)
(3.36094e-09 8.28874e-10 -3.92911e-10)
(3.75151e-09 9.86134e-10 -4.93715e-10)
(4.14541e-09 1.1695e-09 -6.11753e-10)
(4.5435e-09 1.38712e-09 -7.43393e-10)
(4.94589e-09 1.6512e-09 -8.78471e-10)
(5.35325e-09 1.97996e-09 -9.97994e-10)
(5.7654e-09 2.40002e-09 -1.07714e-09)
(6.15992e-09 2.94136e-09 -1.10365e-09)
(6.40874e-09 3.55482e-09 -1.11046e-09)
(2.49796e-11 5.27887e-12 -1.92805e-12)
(7.27751e-11 1.54061e-11 -5.79513e-12)
(1.17567e-10 2.49402e-11 -9.9533e-12)
(1.61681e-10 3.43404e-11 -1.49485e-11)
(2.07562e-10 4.39873e-11 -2.1433e-11)
(2.58067e-10 5.42059e-11 -3.02793e-11)
(3.16824e-10 6.53032e-11 -4.2733e-11)
(3.88676e-10 7.75629e-11 -6.06189e-11)
(4.80291e-10 9.13171e-11 -8.66396e-11)
(6.00881e-10 1.07002e-10 -1.24766e-10)
(7.63083e-10 1.25389e-10 -1.80701e-10)
(9.83985e-10 1.48236e-10 -2.62267e-10)
(1.28658e-09 1.80046e-10 -3.79184e-10)
(1.70171e-09 2.32679e-10 -5.40637e-10)
(2.26082e-09 3.32646e-10 -7.45007e-10)
(2.88883e-09 4.98007e-10 -9.40506e-10)
(7.39822e-11 1.56136e-11 -5.65646e-12)
(2.15468e-10 4.5543e-11 -1.69896e-11)
(3.47862e-10 7.37478e-11 -2.91503e-11)
(4.77858e-10 1.01547e-10 -4.37058e-11)
(6.12463e-10 1.30059e-10 -6.25209e-11)
(7.59808e-10 1.60254e-10 -8.80735e-11)
(9.30127e-10 1.92997e-10 -1.23869e-10)
(1.13706e-09 2.29076e-10 -1.75009e-10)
(1.39931e-09 2.69377e-10 -2.48996e-10)
(1.74262e-09 3.14866e-10 -3.56746e-10)
(2.20182e-09 3.67075e-10 -5.1378e-10)
(2.82176e-09 4.28686e-10 -7.40962e-10)
(3.65455e-09 5.05407e-10 -1.06318e-09)
(4.74517e-09 6.09339e-10 -1.50094e-09)
(6.07435e-09 7.60185e-10 -2.03982e-09)
(7.32012e-09 9.47385e-10 -2.52938e-09)
(1.20618e-10 2.53518e-11 -9.05088e-12)
(3.51056e-10 7.39789e-11 -2.71581e-11)
(5.65929e-10 1.19774e-10 -4.64873e-11)
(7.75632e-10 1.64902e-10 -6.94589e-11)
(9.90886e-10 2.11162e-10 -9.89074e-11)
(1.22391e-09 2.60114e-10 -1.38546e-10)
(1.48983e-09 3.13027e-10 -1.93536e-10)
(1.80869e-09 3.71188e-10 -2.71301e-10)
(2.20773e-09 4.35625e-10 -3.82545e-10)
(2.72447e-09 5.0746e-10 -5.42604e-10)
(3.40926e-09 5.8755e-10 -7.72756e-10)
(4.32507e-09 6.7648e-10 -1.10071e-09)
(5.53604e-09 7.73381e-10 -1.55751e-09)
(7.06476e-09 8.7287e-10 -2.16356e-09)
(8.77274e-09 9.56143e-10 -2.88455e-09)
(1.00949e-08 9.81205e-10 -3.50501e-09)
(1.63614e-10 3.41592e-11 -1.19484e-11)
(4.75729e-10 9.96685e-11 -3.57922e-11)
(7.6533e-10 1.6135e-10 -6.10622e-11)
(1.04553e-09 2.22114e-10 -9.07846e-11)
(1.32956e-09 2.84384e-10 -1.28435e-10)
(1.63203e-09 3.50165e-10 -1.78455e-10)
(1.97066e-09 4.21182e-10 -2.46892e-10)
(2.36842e-09 4.98896e-10 -3.42222e-10)
(2.85637e-09 5.8454e-10 -4.76396e-10)
(3.47747e-09 6.78878e-10 -6.66054e-10)
(4.29076e-09 7.82013e-10 -9.33623e-10)
(5.37332e-09 8.92225e-10 -1.30721e-09)
(6.81077e-09 1.00429e-09 -1.81648e-09)
(8.64949e-09 1.10658e-09 -2.47681e-09)
(1.07467e-08 1.17977e-09 -3.2423e-09)
(1.24171e-08 1.20657e-09 -3.88034e-09)
(2.02052e-10 4.1713e-11 -1.42471e-11)
(5.868e-10 1.21685e-10 -4.25877e-11)
(9.41676e-10 1.97009e-10 -7.23576e-11)
(1.28139e-09 2.71193e-10 -1.06918e-10)
(1.62032e-09 3.47206e-10 -1.50038e-10)
(1.97372e-09 4.27397e-10 -2.06379e-10)
(2.35935e-09 5.13922e-10 -2.82122e-10)
(2.7994e-09 6.0836e-10 -3.85627e-10)
(3.32347e-09 7.12099e-10 -5.28327e-10)
(3.97266e-09 8.25806e-10 -7.25563e-10)
(4.80571e-09 9.48999e-10 -9.97244e-10)
(5.90675e-09 1.07888e-09 -1.36741e-09)
(7.38983e-09 1.20823e-09 -1.86057e-09)
(9.37621e-09 1.32388e-09 -2.48859e-09)
(1.18537e-08 1.41067e-09 -3.21016e-09)
(1.41401e-08 1.46597e-09 -3.81367e-09)
(2.35396e-10 4.7728e-11 -1.59106e-11)
(6.82793e-10 1.39289e-10 -4.74567e-11)
(1.09271e-09 2.25507e-10 -8.02465e-11)
(1.48043e-09 3.10465e-10 -1.17746e-10)
(1.86027e-09 3.97486e-10 -1.63705e-10)
(2.24657e-09 4.89362e-10 -2.22618e-10)
(2.6549e-09 5.8838e-10 -3.00193e-10)
(3.10361e-09 6.96574e-10 -4.03906e-10)
(3.61593e-09 8.15431e-10 -5.43515e-10)
(4.22359e-09 9.45946e-10 -7.31576e-10)
(4.9729e-09 1.088e-09 -9.83653e-10)
(5.93539e-09 1.23906e-09 -1.31786e-09)
(7.22383e-09 1.39144e-09 -1.75269e-09)
(9.00171e-09 1.52746e-09 -2.29939e-09)
(1.14026e-08 1.61625e-09 -2.93298e-09)
(1.39586e-08 1.6322e-09 -3.48501e-09)
(2.63498e-10 5.20208e-11 -1.69694e-11)
(7.63323e-10 1.51832e-10 -5.04886e-11)
(1.21816e-09 2.45862e-10 -8.49401e-11)
(1.643e-09 3.38595e-10 -1.23698e-10)
(2.05118e-09 4.33587e-10 -1.70274e-10)
(2.45512e-09 5.34e-10 -2.28743e-10)
(2.86689e-09 6.42386e-10 -3.04048e-10)
(3.29906e-09 7.61037e-10 -4.02388e-10)
(3.76573e-09 8.91969e-10 -5.31522e-10)
(4.28427e-09 1.03699e-09 -7.00979e-10)
(4.87862e-09 1.19753e-09 -9.22079e-10)
(5.58533e-09 1.37432e-09 -1.20779e-09)
(6.46246e-09 1.56509e-09 -1.5722e-09)
(7.59314e-09 1.75871e-09 -2.02798e-09)
(9.03471e-09 1.92144e-09 -2.56815e-09)
(1.05062e-08 1.98682e-09 -3.06973e-09)
(2.86492e-10 5.44287e-11 -1.74943e-11)
(8.28914e-10 1.58856e-10 -5.1912e-11)
(1.31929e-09 2.57358e-10 -8.68888e-11)
(1.77174e-09 3.54528e-10 -1.25554e-10)
(2.19822e-09 4.54312e-10 -1.71104e-10)
(2.6087e-09 5.59881e-10 -2.27042e-10)
(3.01153e-09 6.74131e-10 -2.97492e-10)
(3.41345e-09 7.99663e-10 -3.8741e-10)
(3.81959e-09 9.39058e-10 -5.02783e-10)
(4.23353e-09 1.09521e-09 -6.5078e-10)
(4.65758e-09 1.2721e-09 -8.39945e-10)
(5.09286e-09 1.47578e-09 -1.08066e-09)
(5.53609e-09 1.71614e-09 -1.38636e-09)
(5.9599e-09 2.00786e-09 -1.77444e-09)
(6.24374e-09 2.36306e-09 -2.25335e-09)
(6.09359e-09 2.7324e-09 -2.72729e-09)
(2.54406e-11 5.22146e-12 -1.63289e-12)
(7.4179e-11 1.52098e-11 -4.9152e-12)
(1.20052e-10 2.45586e-11 -8.47091e-12)
(1.65566e-10 3.3663e-11 -1.27847e-11)
(2.13406e-10 4.28424e-11 -1.84471e-11)
(2.66756e-10 5.23449e-11 -2.62601e-11)
(3.29701e-10 6.23507e-11 -3.73781e-11)
(4.07744e-10 7.30148e-11 -5.35078e-11)
(5.08421e-10 8.4505e-11 -7.71785e-11)
(6.41991e-10 9.71322e-11 -1.12088e-10)
(8.22024e-10 1.11665e-10 -1.63478e-10)
(1.06558e-09 1.30042e-10 -2.38326e-10)
(1.39277e-09 1.57183e-10 -3.44836e-10)
(1.82555e-09 2.05061e-10 -4.89747e-10)
(2.37888e-09 2.985e-10 -6.68976e-10)
(2.96972e-09 4.52154e-10 -8.35563e-10)
(7.53054e-11 1.54372e-11 -4.78963e-12)
(2.1951e-10 4.4993e-11 -1.44131e-11)
(3.54997e-10 7.26407e-11 -2.48119e-11)
(4.88991e-10 9.95727e-11 -3.73871e-11)
(6.29173e-10 1.26723e-10 -5.38312e-11)
(7.8458e-10 1.54798e-10 -7.6428e-11)
(9.66749e-10 1.84298e-10 -1.08449e-10)
(1.19116e-09 2.15627e-10 -1.54706e-10)
(1.47898e-09 2.49106e-10 -2.22287e-10)
(1.85897e-09 2.85338e-10 -3.21499e-10)
(2.36875e-09 3.2564e-10 -4.66792e-10)
(3.0534e-09 3.7328e-10 -6.77041e-10)
(3.95735e-09 4.35444e-10 -9.73346e-10)
(5.10053e-09 5.26035e-10 -1.36972e-09)
(6.41596e-09 6.6386e-10 -1.84454e-09)
(7.55772e-09 8.33459e-10 -2.2589e-09)
(1.2266e-10 2.50946e-11 -7.66694e-12)
(3.57261e-10 7.31136e-11 -2.30423e-11)
(5.76848e-10 1.1804e-10 -3.95788e-11)
(7.926e-10 1.61793e-10 -5.9442e-11)
(1.01622e-09 2.05878e-10 -8.52207e-11)
(1.26124e-09 2.5138e-10 -1.20362e-10)
(1.54473e-09 2.9909e-10 -1.6976e-10)
(1.88933e-09 3.49386e-10 -2.40515e-10)
(2.32594e-09 4.02515e-10 -3.42995e-10)
(2.89657e-09 4.58531e-10 -4.92069e-10)
(3.65605e-09 5.1785e-10 -7.08242e-10)
(4.66863e-09 5.81601e-10 -1.01751e-09)
(5.98885e-09 6.51882e-10 -1.44692e-09)
(7.60433e-09 7.2919e-10 -2.00876e-09)
(9.30558e-09 8.01258e-10 -2.6576e-09)
(1.04857e-08 8.25328e-10 -3.18856e-09)
(1.66142e-10 3.38297e-11 -1.01223e-11)
(4.83393e-10 9.85661e-11 -3.0374e-11)
(7.78753e-10 1.59136e-10 -5.20051e-11)
(1.06625e-09 2.1812e-10 -7.77375e-11)
(1.36021e-09 2.77516e-10 -1.10768e-10)
(1.67679e-09 3.3876e-10 -1.55283e-10)
(2.0358e-09 4.02755e-10 -2.17123e-10)
(2.46314e-09 4.69836e-10 -3.04642e-10)
(2.99389e-09 5.3976e-10 -4.29848e-10)
(3.67607e-09 6.11677e-10 -6.09712e-10)
(4.57401e-09 6.84133e-10 -8.6723e-10)
(5.76733e-09 7.55397e-10 -1.23086e-09)
(7.33319e-09 8.23801e-10 -1.72867e-09)
(9.28183e-09 8.88198e-10 -2.36889e-09)
(1.13908e-08 9.46746e-10 -3.09047e-09)
(1.29166e-08 9.8985e-10 -3.65911e-09)
(2.04796e-10 4.13369e-11 -1.20708e-11)
(5.9511e-10 1.20472e-10 -3.61522e-11)
(9.56109e-10 1.94504e-10 -6.16489e-11)
(1.30343e-09 2.66627e-10 -9.16121e-11)
(1.6525e-09 3.39237e-10 -1.29539e-10)
(2.02003e-09 4.1411e-10 -1.79924e-10)
(2.42561e-09 4.92169e-10 -2.48878e-10)
(2.89406e-09 5.7372e-10 -3.45018e-10)
(3.4583e-09 6.57966e-10 -4.80489e-10)
(4.16359e-09 7.42965e-10 -6.72223e-10)
(5.07286e-09 8.25282e-10 -9.42916e-10)
(6.27191e-09 8.99913e-10 -1.3205e-09)
(7.86682e-09 9.61336e-10 -1.8326e-09)
(9.94644e-09 1.0078e-09 -2.48754e-09)
(1.24266e-08 1.05127e-09 -3.22408e-09)
(1.45719e-08 1.11553e-09 -3.80399e-09)
(2.38097e-10 4.73646e-11 -1.34849e-11)
(6.90899e-10 1.38036e-10 -4.02919e-11)
(1.10665e-09 2.22922e-10 -6.83956e-11)
(1.50138e-09 3.05657e-10 -1.0095e-10)
(1.89028e-09 3.89049e-10 -1.41495e-10)
(2.28874e-09 4.75057e-10 -1.94445e-10)
(2.71365e-09 5.64862e-10 -2.65688e-10)
(3.18489e-09 6.58631e-10 -3.63316e-10)
(3.72744e-09 7.55379e-10 -4.98581e-10)
(4.37456e-09 8.52424e-10 -6.86979e-10)
(5.17275e-09 9.4479e-10 -9.49272e-10)
(6.18958e-09 1.02436e-09 -1.31155e-09)
(7.52331e-09 1.07928e-09 -1.80159e-09)
(9.30141e-09 1.0958e-09 -2.4337e-09)
(1.15973e-08 1.06861e-09 -3.16181e-09)
(1.39397e-08 1.02665e-09 -3.76092e-09)
(2.65901e-10 5.16791e-11 -1.43824e-11)
(7.70477e-10 1.50647e-10 -4.28702e-11)
(1.23027e-09 2.43385e-10 -7.24126e-11)
(1.66077e-09 3.33877e-10 -1.06096e-10)
(2.07592e-09 4.25288e-10 -1.47308e-10)
(2.48858e-09 5.19758e-10 -2.00124e-10)
(2.91131e-09 6.18726e-10 -2.69873e-10)
(3.35687e-09 7.22585e-10 -3.63724e-10)
(3.83881e-09 8.30506e-10 -4.91494e-10)
(4.37225e-09 9.40008e-10 -6.66642e-10)
(4.97511e-09 1.04631e-09 -9.07414e-10)
(5.66971e-09 1.14099e-09 -1.23767e-09)
(6.48313e-09 1.20987e-09 -1.68568e-09)
(7.43904e-09 1.22929e-09 -2.27433e-09)
(8.51777e-09 1.16622e-09 -2.98099e-09)
(9.50363e-09 1.02113e-09 -3.60785e-09)
(2.88395e-10 5.4119e-11 -1.48231e-11)
(8.34549e-10 1.5785e-10 -4.4081e-11)
(1.32857e-09 2.55137e-10 -7.40726e-11)
(1.78486e-09 3.50316e-10 -1.07718e-10)
(2.21549e-09 4.4665e-10 -1.48092e-10)
(2.63042e-09 5.46653e-10 -1.9884e-10)
(3.03754e-09 6.52e-10 -2.64574e-10)
(3.44238e-09 7.63514e-10 -3.51403e-10)
(3.84728e-09 8.8103e-10 -4.67608e-10)
(4.24996e-09 1.00331e-09 -6.24572e-10)
(4.64083e-09 1.12789e-09 -8.3798e-10)
(4.99715e-09 1.25109e-09 -1.12918e-09)
(5.26832e-09 1.36748e-09 -1.5255e-09)
(5.33833e-09 1.46717e-09 -2.05435e-09)
(4.95696e-09 1.52611e-09 -2.71088e-09)
(3.85995e-09 1.50348e-09 -3.33113e-09)
(2.57994e-11 5.16185e-12 -1.24412e-12)
(7.52741e-11 1.50222e-11 -3.75047e-12)
(1.21982e-10 2.41847e-11 -6.48007e-12)
(1.68572e-10 3.30074e-11 -9.81807e-12)
(2.17893e-10 4.17489e-11 -1.42378e-11)
(2.73347e-10 5.05728e-11 -2.03884e-11)
(3.39298e-10 5.9558e-11 -2.9213e-11)
(4.21579e-10 6.87205e-11 -4.21095e-11)
(5.28048e-10 7.80742e-11 -6.11484e-11)
(6.69074e-10 8.77828e-11 -8.93345e-11)
(8.57646e-10 9.84935e-11 -1.30852e-10)
(1.10861e-09 1.12077e-10 -1.91091e-10)
(1.4367e-09 1.33179e-10 -2.75995e-10)
(1.85408e-09 1.72507e-10 -3.89637e-10)
(2.36458e-09 2.51233e-10 -5.27077e-10)
(2.89401e-09 3.81414e-10 -6.51876e-10)
(7.63389e-11 1.52718e-11 -3.65025e-12)
(2.2265e-10 4.44355e-11 -1.09969e-11)
(3.60528e-10 7.15495e-11 -1.89822e-11)
(4.97588e-10 9.76567e-11 -2.87162e-11)
(6.41973e-10 1.23514e-10 -4.15587e-11)
(8.03325e-10 1.49586e-10 -5.93661e-11)
(9.93953e-10 1.76071e-10 -8.48218e-11)
(1.23024e-09 2.02913e-10 -1.21888e-10)
(1.53423e-09 2.2999e-10 -1.76412e-10)
(1.93496e-09 2.57364e-10 -2.56835e-10)
(2.46839e-09 2.86048e-10 -3.74805e-10)
(3.17345e-09 3.19217e-10 -5.45024e-10)
(4.07969e-09 3.64109e-10 -7.82744e-10)
(5.18017e-09 4.33583e-10 -1.09541e-09)
(6.3784e-09 5.42258e-10 -1.46053e-09)
(7.35659e-09 6.7347e-10 -1.76906e-09)
(1.24242e-10 2.48254e-11 -5.84243e-12)
(3.62069e-10 7.22403e-11 -1.75835e-11)
(5.8529e-10 1.16318e-10 -3.02854e-11)
(8.05657e-10 1.58755e-10 -4.5671e-11)
(1.03554e-09 2.0076e-10 -6.58279e-11)
(1.28935e-09 2.43051e-10 -9.35789e-11)
(1.5852e-09 2.85808e-10 -1.32966e-10)
(1.947e-09 3.28755e-10 -1.89916e-10)
(2.40676e-09 3.71164e-10 -2.73102e-10)
(3.00668e-09 4.12197e-10 -3.94936e-10)
(3.79902e-09 4.51484e-10 -5.72298e-10)
(4.83894e-09 4.9023e-10 -8.25883e-10)
(6.15968e-09 5.31997e-10 -1.17545e-09)
(7.71094e-09 5.80396e-10 -1.62544e-09)
(9.24274e-09 6.26675e-10 -2.13099e-09)
(1.01915e-08 6.31694e-10 -2.52868e-09)
(1.68094e-10 3.34872e-11 -7.71514e-12)
(4.89315e-10 9.74556e-11 -2.31834e-11)
(7.89087e-10 1.56918e-10 -3.98051e-11)
(1.0821e-09 2.14174e-10 -5.97547e-11)
(1.38344e-09 2.70833e-10 -8.56267e-11)
(1.71019e-09 3.27789e-10 -1.20881e-10)
(2.08324e-09 3.85145e-10 -1.70409e-10)
(2.52969e-09 4.42182e-10 -2.41313e-10)
(3.08546e-09 4.97235e-10 -3.43883e-10)
(3.79814e-09 5.47773e-10 -4.92718e-10)
(4.72819e-09 5.90833e-10 -7.07463e-10)
(5.94384e-09 6.2417e-10 -1.01176e-09)
(7.49741e-09 6.48561e-10 -1.42698e-09)
(9.35708e-09 6.70636e-10 -1.9539e-09)
(1.12583e-08 7.02068e-10 -2.53209e-09)
(1.25127e-08 7.42592e-10 -2.96896e-09)
(2.06911e-10 4.09545e-11 -9.20272e-12)
(6.01483e-10 1.19198e-10 -2.75975e-11)
(9.67139e-10 1.91957e-10 -4.7201e-11)
(1.32014e-09 2.62049e-10 -7.04546e-11)
(1.67663e-09 3.31453e-10 -1.00227e-10)
(2.05406e-09 4.01176e-10 -1.40265e-10)
(2.47287e-09 4.7127e-10 -1.95804e-10)
(2.95848e-09 5.40491e-10 -2.74335e-10)
(3.54376e-09 6.06122e-10 -3.86636e-10)
(4.27194e-09 6.63578e-10 -5.47907e-10)
(5.19959e-09 7.06384e-10 -7.78611e-10)
(6.39778e-09 7.27075e-10 -1.10354e-09)
(7.94433e-09 7.20759e-10 -1.54558e-09)
(9.88563e-09 6.94412e-10 -2.10649e-09)
(1.21053e-08 6.82154e-10 -2.72271e-09)
(1.3948e-08 7.3375e-10 -3.18788e-09)
(2.40152e-10 4.69628e-11 -1.02804e-11)
(6.9706e-10 1.36706e-10 -3.07641e-11)
(1.11718e-09 2.20224e-10 -5.23799e-11)
(1.51706e-09 3.00786e-10 -7.76747e-11)
(1.91238e-09 3.80666e-10 -1.09571e-10)
(2.31898e-09 4.61058e-10 -1.51813e-10)
(2.75399e-09 5.41967e-10 -2.09544e-10)
(3.23698e-09 6.21882e-10 -2.9004e-10)
(3.79128e-09 6.97228e-10 -4.03691e-10)
(4.44545e-09 7.61667e-10 -5.65168e-10)
(5.23547e-09 8.05213e-10 -7.94461e-10)
(6.20792e-09 8.13647e-10 -1.11666e-09)
(7.42477e-09 7.69809e-10 -1.55726e-09)
(8.96534e-09 6.61264e-10 -2.12526e-09)
(1.08826e-08 5.03912e-10 -2.76817e-09)
(1.28405e-08 3.82057e-10 -3.27774e-09)
(2.67703e-10 5.12889e-11 -1.09657e-11)
(7.75841e-10 1.49358e-10 -3.27365e-11)
(1.23926e-09 2.40729e-10 -5.54665e-11)
(1.6738e-09 3.29059e-10 -8.16682e-11)
(2.09355e-09 4.16858e-10 -1.14147e-10)
(2.51144e-09 5.05595e-10 -1.5644e-10)
(2.93954e-09 5.95403e-10 -2.13303e-10)
(3.38913e-09 6.84816e-10 -2.914e-10)
(3.87015e-09 7.70106e-10 -4.00193e-10)
(4.3899e-09 8.44366e-10 -5.53118e-10)
(4.95052e-09 8.96035e-10 -7.68835e-10)
(5.54468e-09 9.06826e-10 -1.07185e-09)
(6.14903e-09 8.48808e-10 -1.49004e-09)
(6.71866e-09 6.83277e-10 -2.04207e-09)
(7.1995e-09 3.76897e-10 -2.69609e-09)
(7.57483e-09 5.28879e-12 -3.25861e-09)
(2.89806e-10 5.37821e-11 -1.13034e-11)