/*--------------------------------*- C++ -*----------------------------------*\
| =========                 |                                                 |
| \\      /  F ield         | foam-extend: Open Source CFD                    |
|  \\    /   O peration     | Version:     3.1                                |
|   \\  /    A nd           | Web:         http://www.extend-project.de       |
|    \\/     M anipulation  |                                                 |
\*---------------------------------------------------------------------------*/
FoamFile
{
    version     2.0;
    format      ascii;
    class       surfaceScalarField;
    location    "2.9";
    object      meshPhi;
}
// * * * * * * * * * * * * * * * * * * * * * * * * * * * * * * * * * * * * * //

dimensions      [0 3 -1 0 0 0 0];

internalField   nonuniform List<scalar> 
41600
(
-5.17107e-09
-7.31974e-10
-9.21445e-11
9.44894e-11
-9.95957e-09
-2.16948e-09
-2.75242e-10
2.82262e-10
-1.43275e-08
-3.57367e-09
-4.60135e-10
4.71904e-10
-1.83896e-08
-5.00423e-09
-6.5788e-10
6.74724e-10
-2.22401e-08
-6.54081e-09
-8.81962e-10
9.04466e-10
-2.59527e-08
-8.26519e-09
-1.14629e-09
1.17527e-09
-2.95781e-08
-1.02679e-08
-1.46622e-09
1.50265e-09
-3.31373e-08
-1.26553e-08
-1.8596e-09
1.90459e-09
-3.6609e-08
-1.55565e-08
-2.34822e-09
2.40291e-09
-3.99106e-08
-1.91301e-08
-2.96006e-09
3.02544e-09
-4.28745e-08
-2.35687e-08
-3.73381e-09
3.81033e-09
-4.52278e-08
-2.9097e-08
-4.7281e-09
4.81445e-09
-4.66053e-08
-3.59478e-08
-6.03824e-09
6.12825e-09
-4.6665e-08
-4.42486e-08
-7.80904e-09
7.88696e-09
-4.53507e-08
-5.33933e-08
-1.00974e-08
1.01647e-08
-7.42402e-08
-1.54626e-08
2.07637e-08
-1.54219e-08
-1.42592e-09
-2.74605e-10
2.81583e-10
-2.96995e-08
-4.22513e-09
-8.19842e-10
8.40729e-10
-4.27191e-08
-6.95533e-09
-1.36961e-09
1.40462e-09
-5.48231e-08
-9.72916e-09
-1.95674e-09
2.00683e-09
-6.62924e-08
-1.26974e-08
-2.62102e-09
2.68791e-09
-7.73487e-08
-1.60131e-08
-3.40321e-09
3.48926e-09
-8.81484e-08
-1.98436e-08
-4.34782e-09
4.45593e-09
-9.87643e-08
-2.43824e-08
-5.50591e-09
5.6393e-09
-1.09151e-07
-2.98609e-08
-6.93824e-09
7.1002e-09
-1.19093e-07
-3.65562e-08
-8.71973e-09
8.91321e-09
-1.28131e-07
-4.47916e-08
-1.09477e-08
1.11743e-08
-1.35502e-07
-5.49129e-08
-1.37572e-08
1.40142e-08
-1.40154e-07
-6.72035e-08
-1.73456e-08
1.7618e-08
-1.41031e-07
-8.16176e-08
-2.19719e-08
2.22189e-08
-1.37828e-07
-9.67652e-08
-2.76199e-08
2.78145e-08
-1.19841e-07
-3.79085e-08
4.6755e-08
-2.5412e-08
-2.05127e-09
-4.50104e-10
4.61538e-10
-4.89286e-08
-6.0755e-09
-1.34281e-09
1.37702e-09
-7.03602e-08
-9.99158e-09
-2.24085e-09
2.29817e-09
-9.02703e-08
-1.39541e-08
-3.19737e-09
3.27932e-09
-1.09123e-07
-1.8171e-08
-4.27637e-09
4.38571e-09
-1.27289e-07
-2.28492e-08
-5.5426e-09
5.6831e-09
-1.45041e-07
-2.82103e-08
-7.06575e-09
7.24199e-09
-1.6253e-07
-3.45051e-08
-8.92401e-09
9.14101e-09
-1.79734e-07
-4.2025e-08
-1.12069e-08
1.14698e-08
-1.96387e-07
-5.11087e-08
-1.40183e-08
1.43315e-08
-2.11871e-07
-6.21306e-08
-1.74785e-08
1.78445e-08
-2.25099e-07
-7.54527e-08
-2.17264e-08
2.21421e-08
-2.34494e-07
-9.12805e-08
-2.69129e-08
2.73597e-08
-2.38346e-07
-1.093e-07
-3.31417e-08
3.35644e-08
-2.35876e-07
-1.27586e-07
-4.00729e-08
4.03879e-08
-1.54178e-07
-4.93394e-08
5.62781e-08
-3.49877e-08
-2.58211e-09
-6.1358e-10
6.29179e-10
-6.73474e-08
-7.64357e-09
-1.82886e-09
1.87552e-09
-9.6812e-08
-1.25549e-08
-3.04772e-09
3.12585e-09
-1.24156e-07
-1.74993e-08
-4.34119e-09
4.45277e-09
-1.50018e-07
-2.27239e-08
-5.7941e-09
5.94277e-09
-1.74919e-07
-2.84691e-08
-7.49111e-09
7.68185e-09
-1.99258e-07
-3.49848e-08
-9.5218e-09
9.76052e-09
-2.23292e-07
-4.25447e-08
-1.19841e-08
1.22773e-08
-2.4709e-07
-5.14559e-08
-1.49862e-08
1.53399e-08
-2.70447e-07
-6.20617e-08
-1.86449e-08
1.90642e-08
-2.9276e-07
-7.47226e-08
-2.30788e-08
2.35655e-08
-3.12877e-07
-8.97552e-08
-2.8389e-08
2.8938e-08
-3.28989e-07
-1.0727e-07
-3.46119e-08
3.52005e-08
-3.38886e-07
-1.26786e-07
-4.16054e-08
4.21698e-08
-3.40954e-07
-1.4622e-07
-4.86921e-08
4.91078e-08
-1.73172e-07
-5.67468e-08
6.31939e-08
-4.40049e-08
-2.999e-09
-7.60796e-10
7.80172e-10
-8.46768e-08
-8.87207e-09
-2.26533e-09
2.32327e-09
-1.21668e-07
-1.45523e-08
-3.76889e-09
3.86581e-09
-1.55947e-07
-2.02373e-08
-5.3571e-09
5.49536e-09
-1.88316e-07
-2.61949e-08
-7.13153e-09
7.31545e-09
-2.19437e-07
-3.26781e-08
-9.19202e-09
9.4275e-09
-2.4984e-07
-3.99397e-08
-1.16423e-08
1.19362e-08
-2.79915e-07
-4.82443e-08
-1.45932e-08
1.49528e-08
-3.09869e-07
-5.78761e-08
-1.81635e-08
1.85953e-08
-3.3966e-07
-6.91367e-08
-2.24753e-08
2.29833e-08
-3.68883e-07
-8.23261e-08
-2.76401e-08
2.82232e-08
-3.96592e-07
-9.76884e-08
-3.37269e-08
3.43738e-08
-4.21091e-07
-1.1527e-07
-4.06852e-08
4.13644e-08
-4.39857e-07
-1.34565e-07
-4.81895e-08
4.88286e-08
-4.49878e-07
-1.53599e-07
-5.52863e-08
5.57613e-08
-1.7906e-07
-6.26335e-08
6.87151e-08
-5.2336e-08
-3.28944e-09
-8.8861e-10
9.11297e-10
-1.00671e-07
-9.72477e-09
-2.64293e-09
2.71073e-09
-1.44572e-07
-1.59271e-08
-4.38891e-09
4.50223e-09
-1.85177e-07
-2.20951e-08
-6.22307e-09
6.38449e-09
-2.23432e-07
-2.85007e-08
-8.2592e-09
8.47355e-09
-2.60125e-07
-3.53907e-08
-1.06073e-08
1.08811e-08
-2.9591e-07
-4.29993e-08
-1.33794e-08
1.37201e-08
-3.31308e-07
-5.15571e-08
-1.6693e-08
1.71082e-08
-3.66688e-07
-6.12949e-08
-2.06717e-08
2.11673e-08
-4.02226e-07
-7.24396e-08
-2.54397e-08
2.60177e-08
-4.37821e-07
-8.51978e-08
-3.11081e-08
3.17625e-08
-4.72947e-07
-9.97228e-08
-3.77438e-08
3.84532e-08
-5.06367e-07
-1.16026e-07
-4.5289e-08
4.60055e-08
-5.35642e-07
-1.33727e-07
-5.33753e-08
5.40093e-08
-5.56229e-07
-1.51276e-07
-6.08531e-08
6.13173e-08
-1.74348e-07
-6.8658e-08
7.4994e-08
-5.98736e-08
-3.44772e-09
-9.95084e-10
1.02056e-09
-1.15123e-07
-1.0186e-08
-2.95601e-09
3.03212e-09
-1.65225e-07
-1.66575e-08
-4.89875e-09
5.02581e-09
-2.11458e-07
-2.30514e-08
-6.92679e-09
7.10749e-09
-2.54881e-07
-2.96294e-08
-9.16148e-09
9.40096e-09
-2.96387e-07
-3.66181e-08
-1.17179e-08
1.20229e-08
-3.36727e-07
-4.42185e-08
-1.47106e-08
1.5089e-08
-3.7653e-07
-5.26102e-08
-1.82578e-08
1.8717e-08
-4.16303e-07
-6.19517e-08
-2.24814e-08
2.30267e-08
-4.56416e-07
-7.23735e-08
-2.75038e-08
2.81347e-08
-4.97064e-07
-8.39641e-08
-3.34376e-08
3.4143e-08
-5.38172e-07
-9.67532e-08
-4.03665e-08
4.11145e-08
-5.79151e-07
-1.10688e-07
-4.82903e-08
4.90121e-08
-6.18244e-07
-1.25563e-07
-5.69631e-08
5.75345e-08
-6.50463e-07
-1.40661e-07
-6.53044e-08
6.56552e-08
-1.61528e-07
-7.57462e-08
8.28957e-08
-6.65296e-08
-1.07946e-09
1.10719e-09
-3.47422e-09
-1.27867e-07
-3.20258e-09
3.28536e-09
-1.02581e-08
-1.83391e-07
-5.29568e-09
5.4337e-09
-1.67521e-08
-2.34485e-07
-7.46539e-09
7.66133e-09
-2.31285e-08
-2.82294e-07
-9.83601e-09
1.00951e-08
-2.96281e-08
-3.27776e-07
-1.25228e-08
1.28518e-08
-3.64486e-08
-3.71744e-07
-1.56376e-08
1.60445e-08
-4.37501e-08
-4.1489e-07
-1.92927e-08
1.97846e-08
-5.16552e-08
-4.57793e-07
-2.3601e-08
2.41825e-08
-6.02439e-08
-5.00927e-07
-2.86732e-08
2.93424e-08
-6.95426e-08
-5.44635e-07
-3.46108e-08
3.53538e-08
-7.9507e-08
-5.89065e-07
-4.14916e-08
4.22724e-08
-8.99974e-08
-6.3394e-07
-4.93311e-08
5.00758e-08
-1.00751e-07
-6.77881e-07
-5.79458e-08
5.8529e-08
-1.11311e-07
-7.16448e-07
-6.64197e-08
6.67938e-08
-1.20775e-07
-8.35686e-08
9.21321e-08
-1.36473e-07
-5.25476e-09
-7.65324e-10
-8.63792e-11
-1.01223e-08
-2.26952e-09
-2.58011e-10
-1.45661e-08
-3.74245e-09
-4.31291e-10
-1.8705e-08
-5.24903e-09
-6.16573e-10
-2.26365e-08
-6.87539e-09
-8.26467e-10
-2.64368e-08
-8.71051e-09
-1.07394e-09
-3.0158e-08
-1.08536e-08
-1.37315e-09
-3.38208e-08
-1.34219e-08
-1.74027e-09
-3.74017e-08
-1.65584e-08
-2.19436e-09
-4.08137e-08
-2.04399e-08
-2.75847e-09
-4.38851e-08
-2.52815e-08
-3.46139e-09
-4.63464e-08
-3.13339e-08
-4.34009e-09
-4.78625e-08
-3.8851e-08
-5.44009e-09
-4.81841e-08
-4.79474e-08
-6.79556e-09
-4.74662e-08
-5.79292e-08
-8.30659e-09
-7.45158e-08
-1.08124e-08
-1.56707e-08
-1.49062e-09
-2.57435e-10
-3.01833e-08
-4.41912e-09
-7.68546e-10
-4.34284e-08
-7.28228e-09
-1.2838e-09
-5.57604e-08
-1.02025e-08
-1.83394e-09
-6.74702e-08
-1.33428e-08
-2.45619e-09
-7.87872e-08
-1.68695e-08
-3.18855e-09
-8.98721e-08
-2.09658e-08
-4.07213e-09
-1.00797e-07
-2.58449e-08
-5.15326e-09
-1.11512e-07
-3.17624e-08
-6.48517e-09
-1.21785e-07
-3.90264e-08
-8.12955e-09
-1.31145e-07
-4.7996e-08
-1.01579e-08
-1.38826e-07
-5.90536e-08
-1.26509e-08
-1.43829e-07
-7.24988e-08
-1.56867e-08
-1.45301e-07
-8.82313e-08
-1.92745e-08
-1.43456e-07
-1.04717e-07
-2.30719e-08
-1.23306e-07
-2.78109e-08
-2.58195e-08
-2.14377e-09
-4.21973e-10
-4.97205e-08
-6.35264e-09
-1.25882e-09
-7.15205e-08
-1.04579e-08
-2.10047e-09
-9.18029e-08
-1.46276e-08
-2.99674e-09
-1.11048e-07
-1.90859e-08
-4.00752e-09
-1.29641e-07
-2.4058e-08
-5.19321e-09
-1.47861e-07
-2.9786e-08
-6.61833e-09
-1.65859e-07
-3.65455e-08
-8.35396e-09
-1.83607e-07
-4.4658e-08
-1.04789e-08
-2.00819e-07
-5.44981e-08
-1.30787e-08
-2.16843e-07
-6.64798e-08
-1.62398e-08
-2.30568e-07
-8.09983e-08
-2.00341e-08
-2.40443e-07
-9.82578e-08
-2.44759e-08
-2.44938e-07
-1.17854e-07
-2.94085e-08
-2.43877e-07
-1.37707e-07
-3.42069e-08
-1.5882e-07
-3.84971e-08
-3.55432e-08
-2.69764e-09
-5.75232e-10
-6.84262e-08
-7.98935e-09
-1.71445e-09
-9.83916e-08
-1.31355e-08
-2.85676e-09
-1.26241e-07
-1.83351e-08
-4.06871e-09
-1.52636e-07
-2.38546e-08
-5.42977e-09
-1.78116e-07
-2.99549e-08
-7.019e-09
-2.03092e-07
-3.69088e-08
-8.91948e-09
-2.27827e-07
-4.50164e-08
-1.12207e-08
-2.5238e-07
-5.46157e-08
-1.40183e-08
-2.76524e-07
-6.60848e-08
-1.74092e-08
-2.99614e-07
-7.98202e-08
-2.14766e-08
-3.2044e-07
-9.61641e-08
-2.62563e-08
-3.37158e-07
-1.15213e-07
-3.166e-08
-3.47639e-07
-1.36387e-07
-3.73288e-08
-3.50753e-07
-1.57469e-07
-4.23969e-08
-1.78775e-07
-4.6226e-08
-4.46943e-08
-3.13195e-09
-7.13231e-10
-8.60145e-08
-9.26954e-09
-2.12355e-09
-1.23625e-07
-1.52182e-08
-3.53259e-09
-1.58527e-07
-2.11923e-08
-5.02062e-09
-1.91552e-07
-2.74808e-08
-6.68281e-09
-2.23387e-07
-3.43575e-08
-8.61254e-09
-2.54579e-07
-4.2098e-08
-1.09062e-08
-2.85525e-07
-5.0992e-08
-1.36656e-08
-3.16432e-07
-6.1351e-08
-1.69968e-08
-3.47238e-07
-7.35065e-08
-2.10022e-08
-3.77492e-07
-8.77866e-08
-2.57604e-08
-4.06172e-07
-1.04454e-07
-3.12811e-08
-4.31487e-07
-1.23539e-07
-3.74043e-08
-4.50846e-07
-1.44449e-07
-4.3625e-08
-4.61424e-07
-1.65099e-07
-4.88708e-08
-1.8511e-07
-5.25487e-08
-5.31425e-08
-3.43379e-09
-8.33022e-10
-1.02234e-07
-1.01559e-08
-2.47739e-09
-1.46856e-07
-1.66475e-08
-4.11348e-09
-1.88184e-07
-2.31246e-08
-5.8318e-09
-2.27198e-07
-2.98796e-08
-7.73899e-09
-2.64716e-07
-3.71799e-08
-9.93805e-09
-3.01415e-07
-4.52802e-08
-1.25335e-08
-3.37828e-07
-5.44321e-08
-1.56337e-08
-3.74332e-07
-6.48884e-08
-1.93501e-08
-4.1109e-07
-7.68976e-08
-2.37888e-08
-4.47967e-07
-9.06851e-08
-2.90313e-08
-4.84363e-07
-1.06415e-07
-3.50906e-08
-5.18919e-07
-1.24089e-07
-4.1807e-08
-5.48997e-07
-1.4327e-07
-4.86413e-08
-5.69784e-07
-1.6233e-07
-5.43507e-08
-1.80418e-07
-5.8608e-08
-6.07788e-08
-3.59745e-09
-9.32788e-10
-1.16876e-07
-1.06326e-08
-2.77069e-09
-1.67782e-07
-1.74021e-08
-4.59098e-09
-2.14817e-07
-2.41115e-08
-6.4907e-09
-2.5908e-07
-3.10421e-08
-8.58362e-09
-3.01496e-07
-3.8439e-08
-1.09777e-08
-3.42842e-07
-4.65203e-08
-1.378e-08
-3.83766e-07
-5.5482e-08
-1.71001e-08
-4.24788e-07
-6.54974e-08
-2.10489e-08
-4.66278e-07
-7.67097e-08
-2.57329e-08
-5.0841e-07
-8.92147e-08
-3.12385e-08
-5.51059e-07
-1.03043e-07
-3.76002e-08
-5.9353e-07
-1.18134e-07
-4.47175e-08
-6.33848e-07
-1.34264e-07
-5.21578e-08
-6.66348e-07
-1.50728e-07
-5.87032e-08
-1.6706e-07
-6.51065e-08
-6.7514e-08
-1.01182e-09
-3.62357e-09
-1.29771e-07
-3.00159e-09
-1.07032e-08
-1.86162e-07
-4.96256e-09
-1.74924e-08
-2.38118e-07
-6.9947e-09
-2.41787e-08
-2.86823e-07
-9.21462e-09
-3.10207e-08
-3.3327e-07
-1.17305e-08
-3.82322e-08
-3.78301e-07
-1.46472e-08
-4.59866e-08
-4.22629e-07
-1.80691e-08
-5.44178e-08
-4.66851e-07
-2.20997e-08
-6.36138e-08
-5.11445e-07
-2.68367e-08
-7.36045e-08
-5.56745e-07
-3.23595e-08
-8.43416e-08
-6.02859e-07
-3.87041e-08
-9.56706e-08
-6.49422e-07
-4.57966e-08
-1.07301e-07
-6.94829e-07
-5.32782e-08
-1.18723e-07
-7.33829e-07
-6.00605e-08
-1.28957e-07
-7.17519e-08
-1.39547e-07
-5.32894e-09
-7.95161e-10
-7.74235e-11
-1.02669e-08
-2.35888e-09
-2.31248e-10
-1.47785e-08
-3.89269e-09
-3.86503e-10
-1.89859e-08
-5.46565e-09
-5.52417e-10
-2.29893e-08
-7.16883e-09
-7.40192e-10
-2.68671e-08
-9.09625e-09
-9.61217e-10
-3.06725e-08
-1.13525e-08
-1.22768e-09
-3.44264e-08
-1.40603e-08
-1.55296e-09
-3.81043e-08
-1.73681e-08
-1.95177e-09
-4.16184e-08
-2.14556e-08
-2.43975e-09
-4.47991e-08
-2.65349e-08
-3.03226e-09
-4.73891e-08
-3.28363e-08
-3.74122e-09
-4.90883e-08
-4.05539e-08
-4.567e-09
-4.97094e-08
-4.96677e-08
-5.47706e-09
-4.94297e-08
-5.93119e-08
-6.34956e-09
-7.60751e-08
-7.50217e-09
-1.58913e-08
-1.54852e-09
-2.30753e-10
-3.06132e-08
-4.59246e-09
-6.88852e-10
-4.40597e-08
-7.5734e-09
-1.15052e-09
-5.65951e-08
-1.06216e-08
-1.64318e-09
-6.85187e-08
-1.39091e-08
-2.19991e-09
-8.00661e-08
-1.76117e-08
-2.85412e-09
-9.14016e-08
-2.19224e-08
-3.64126e-09
-1.02598e-07
-2.70639e-08
-4.59973e-09
-1.13602e-07
-3.33005e-08
-5.77073e-09
-1.2418e-07
-4.09438e-08
-7.19596e-09
-1.3386e-07
-5.03432e-08
-8.91178e-09
-1.41902e-07
-6.18363e-08
-1.0936e-08
-1.47391e-07
-7.56012e-08
-1.32393e-08
-1.49625e-07
-9.12798e-08
-1.56844e-08
-1.48888e-07
-1.07022e-07
-1.79089e-08
-1.24004e-07
-1.99496e-08
-2.61808e-08
-2.22656e-09
-3.78251e-10
-5.04242e-08
-6.6003e-09
-1.12832e-09
-7.25534e-08
-1.08732e-08
-1.88246e-09
-9.31683e-08
-1.52239e-08
-2.68513e-09
-1.12763e-07
-1.98891e-08
-3.5896e-09
-1.31732e-07
-2.51062e-08
-4.64907e-09
-1.50362e-07
-3.113e-08
-5.91926e-09
-1.68805e-07
-3.82474e-08
-7.45944e-09
-1.8703e-07
-4.67892e-08
-9.33098e-09
-2.0474e-07
-5.71305e-08
-1.15915e-08
-2.21279e-07
-6.96652e-08
-1.42811e-08
-2.3555e-07
-8.47189e-08
-1.7394e-08
-2.46082e-07
-1.02321e-07
-2.08236e-08
-2.51511e-07
-1.21718e-07
-2.42752e-08
-2.51777e-07
-1.40417e-07
-2.7172e-08
-1.58805e-07
-2.89163e-08
-3.60358e-08
-2.80102e-09
-5.1564e-10
-6.93849e-08
-8.29834e-09
-1.53674e-09
-9.97978e-08
-1.36527e-08
-2.56029e-09
-1.28098e-07
-1.90753e-08
-3.64572e-09
-1.54967e-07
-2.48475e-08
-4.86378e-09
-1.80958e-07
-3.12441e-08
-6.28425e-09
-2.06491e-07
-3.8551e-08
-7.97915e-09
-2.31833e-07
-4.70797e-08
-1.00236e-08
-2.57038e-07
-5.7175e-08
-1.24926e-08
-2.81864e-07
-6.92103e-08
-1.54521e-08
-3.05648e-07
-8.35508e-08
-1.89363e-08
-3.27166e-07
-1.0045e-07
-2.29048e-08
-3.44609e-07
-1.19796e-07
-2.71634e-08
-3.55957e-07
-1.40612e-07
-3.12628e-08
-3.60224e-07
-1.60227e-07
-3.44626e-08
-1.78164e-07
-3.60979e-08
-4.53055e-08
-3.2509e-09
-6.39342e-10
-8.72032e-08
-9.62474e-09
-1.90341e-09
-1.25367e-07
-1.58113e-08
-3.16596e-09
-1.60825e-07
-2.20385e-08
-4.49869e-09
-1.94433e-07
-2.86105e-08
-5.98642e-09
-2.26896e-07
-3.58155e-08
-7.7117e-09
-2.58775e-07
-4.39415e-08
-9.75852e-09
-2.90472e-07
-5.32875e-08
-1.22129e-08
-3.22189e-07
-6.41678e-08
-1.51592e-08
-3.53847e-07
-7.69026e-08
-1.86682e-08
-3.84962e-07
-9.17798e-08
-2.27712e-08
-4.14471e-07
-1.08962e-07
-2.74079e-08
-4.40541e-07
-1.28259e-07
-3.23304e-08
-4.60592e-07
-1.48674e-07
-3.69823e-08
-4.71935e-07
-1.67661e-07
-4.0477e-08
-1.83993e-07
-4.2293e-08
-5.38575e-08
-3.56297e-09
-7.46711e-10
-1.03623e-07
-1.05412e-08
-2.22052e-09
-1.48889e-07
-1.72895e-08
-3.68648e-09
-1.90862e-07
-2.4037e-08
-5.22547e-09
-2.30551e-07
-3.10917e-08
-6.93262e-09
-2.68795e-07
-3.87343e-08
-8.8992e-09
-3.06286e-07
-4.723e-08
-1.12166e-08
-3.4357e-07
-5.68367e-08
-1.39772e-08
-3.81016e-07
-6.78053e-08
-1.72707e-08
-4.18773e-07
-8.03667e-08
-2.11729e-08
-4.56666e-07
-9.46992e-08
-2.57199e-08
-4.94026e-07
-1.10864e-07
-3.08591e-08
-5.29388e-07
-1.28648e-07
-3.63483e-08
-5.59998e-07
-1.47227e-07
-4.16081e-08
-5.81114e-07
-1.64522e-07
-4.56179e-08
-1.78812e-07
-4.81257e-08
-6.15811e-08
-3.73147e-09
-8.36117e-10
-1.18433e-07
-1.1032e-08
-2.48334e-09
-1.70056e-07
-1.80659e-08
-4.11428e-09
-2.17808e-07
-2.50515e-08
-5.81571e-09
-2.62818e-07
-3.22846e-08
-7.68921e-09
-3.06033e-07
-4.00222e-08
-9.83058e-09
-3.48252e-07
-4.84905e-08
-1.2334e-08
-3.90134e-07
-5.7888e-08
-1.52933e-08
-4.32197e-07
-6.83819e-08
-1.87989e-08
-4.74797e-07
-8.0093e-08
-2.29288e-08
-5.18067e-07
-9.30667e-08
-2.77274e-08
-5.61801e-07
-1.07232e-07
-3.31651e-08
-6.0516e-07
-1.22333e-07
-3.90537e-08
-6.45942e-07
-1.37796e-07
-4.48992e-08
-6.78425e-07
-1.52481e-07
-4.96839e-08
-1.64776e-07
-5.40115e-08
-6.83865e-08
-9.06926e-10
-3.75729e-09
-1.31462e-07
-2.69018e-09
-1.11012e-08
-1.88629e-07
-4.44708e-09
-1.81527e-08
-2.41355e-07
-6.26706e-09
-2.51105e-08
-2.90855e-07
-8.25429e-09
-3.22467e-08
-3.38152e-07
-1.0505e-08
-3.97848e-08
-3.84107e-07
-1.31116e-08
-4.7904e-08
-4.29445e-07
-1.61641e-08
-5.67376e-08
-4.74765e-07
-1.97477e-08
-6.6364e-08
-5.20532e-07
-2.39349e-08
-7.67883e-08
-5.6704e-07
-2.87683e-08
-8.79119e-08
-6.14317e-07
-3.42259e-08
-9.94866e-08
-6.61843e-07
-4.01511e-08
-1.11057e-07
-7.07755e-07
-4.61146e-08
-1.21832e-07
-7.46612e-07
-5.11718e-08
-1.30455e-07
-5.9704e-08
-1.36524e-07
-5.39266e-09
-8.2079e-10
-6.5622e-11
-1.03911e-08
-2.43549e-09
-1.95986e-10
-1.49611e-08
-4.02097e-09
-3.27509e-10
-1.92274e-08
-5.64935e-09
-4.67947e-10
-2.32926e-08
-7.41518e-09
-6.26669e-10
-2.72365e-08
-9.41555e-09
-8.13049e-10
-3.11133e-08
-1.17575e-08
-1.03684e-09
-3.49444e-08
-1.45653e-08
-1.30819e-09
-3.87051e-08
-1.79863e-08
-1.63718e-09
-4.23079e-08
-2.2195e-08
-2.03241e-09
-4.55863e-08
-2.73896e-08
-2.49826e-09
-4.82925e-08
-3.37735e-08
-3.0298e-09
-5.01447e-08
-4.14983e-08
-3.60471e-09
-5.09724e-08
-5.05054e-08
-4.17274e-09
-5.09168e-08
-5.99708e-08
-4.64458e-09
-7.72344e-08
-5.17366e-09
-1.60808e-08
-1.59825e-09
-1.95587e-10
-3.09826e-08
-4.74105e-09
-5.8383e-10
-4.46025e-08
-7.82195e-09
-9.74943e-10
-5.73129e-08
-1.09769e-08
-1.39198e-09
-6.94197e-08
-1.43845e-08
-1.86263e-09
-8.11634e-08
-1.82263e-08
-2.41442e-09
-9.27113e-08
-2.26993e-08
-3.07576e-09
-1.04137e-07
-2.80285e-08
-3.87588e-09
-1.15387e-07
-3.44755e-08
-4.84309e-09
-1.26227e-07
-4.23397e-08
-6.00007e-09
-1.36191e-07
-5.19422e-08
-7.35452e-09
-1.44561e-07
-6.35641e-08
-8.88262e-09
-1.50465e-07
-7.72933e-08
-1.05037e-08
-1.53242e-07
-9.26762e-08
-1.20519e-08
-1.53089e-07
-1.07898e-07
-1.32667e-08
-1.24548e-07
-1.40891e-08
-2.6491e-08
-2.29766e-09
-3.20617e-10
-5.10288e-08
-6.81263e-09
-9.56325e-10
-7.34414e-08
-1.12278e-08
-1.59524e-09
-9.4342e-08
-1.57297e-08
-2.27477e-09
-1.14236e-07
-2.05637e-08
-3.03953e-09
-1.33525e-07
-2.59746e-08
-3.93343e-09
-1.52502e-07
-3.22223e-08
-5.00132e-09
-1.7132e-07
-3.95953e-08
-6.28854e-09
-1.89945e-07
-4.84182e-08
-7.83761e-09
-2.08078e-07
-5.90465e-08
-9.67947e-09
-2.25063e-07
-7.183e-08
-1.18166e-08
-2.39822e-07
-8.70096e-08
-1.41932e-08
-2.50928e-07
-1.04479e-07
-1.66524e-08
-2.57062e-07
-1.23334e-07
-1.88982e-08
-2.58066e-07
-1.41102e-07
-2.05263e-08
-1.58459e-07
-2.11143e-08
-3.64586e-08
-2.88981e-09
-4.37084e-10
-7.02085e-08
-8.56327e-09
-1.30252e-09
-1.01007e-07
-1.40943e-08
-2.16971e-09
-1.29694e-07
-1.97035e-08
-3.08872e-09
-1.56968e-07
-2.5682e-08
-4.11884e-09
-1.83393e-07
-3.23128e-08
-5.31783e-09
-2.09397e-07
-3.98868e-08
-6.7439e-09
-2.35246e-07
-4.8715e-08
-8.45496e-09
-2.60993e-07
-5.91322e-08
-1.05037e-08
-2.86386e-07
-7.14841e-08
-1.29257e-08
-3.10752e-07
-8.60777e-08
-1.57154e-08
-3.32866e-07
-1.03059e-07
-1.87856e-08
-3.5094e-07
-1.22149e-07
-2.19087e-08
-3.62986e-07
-1.42188e-07
-2.46747e-08
-3.67951e-07
-1.60526e-07
-2.65699e-08
-1.7694e-07
-2.71601e-08
-4.58301e-08
-3.35309e-09
-5.41949e-10
-8.82243e-08
-9.92935e-09
-1.61334e-09
-1.26864e-07
-1.63181e-08
-2.68305e-09
-1.628e-07
-2.27568e-08
-3.81152e-09
-1.96907e-07
-2.95605e-08
-5.06997e-09
-2.29903e-07
-3.70252e-08
-6.52689e-09
-2.62359e-07
-4.54426e-08
-8.25048e-09
-2.9468e-07
-5.51089e-08
-1.03077e-08
-3.27062e-07
-6.63238e-08
-1.27588e-08
-3.59412e-07
-7.93727e-08
-1.56433e-08
-3.91223e-07
-9.44751e-08
-1.89532e-08
-4.21401e-07
-1.11672e-07
-2.25867e-08
-4.48097e-07
-1.30592e-07
-2.62769e-08
-4.68729e-07
-1.50038e-07
-2.95384e-08
-4.80596e-07
-1.67498e-07
-3.17517e-08
-1.82012e-07
-3.26167e-08
-5.44711e-08
-3.67395e-09
-6.32965e-10
-1.04817e-07
-1.08717e-08
-1.88213e-09
-1.50636e-07
-1.78381e-08
-3.12421e-09
-1.93164e-07
-2.48119e-08
-4.42743e-09
-2.33429e-07
-3.21118e-08
-5.87177e-09
-2.72289e-07
-4.00251e-08
-7.53315e-09
-3.10446e-07
-4.88196e-08
-9.48617e-09
-3.48448e-07
-5.87475e-08
-1.18034e-08
-3.86661e-07
-7.00412e-08
-1.455e-08
-4.25213e-07
-8.28915e-08
-1.77706e-08
-4.63893e-07
-9.74027e-08
-2.14631e-08
-5.01979e-07
-1.1351e-07
-2.55343e-08
-5.37942e-07
-1.30813e-07
-2.97251e-08
-5.68983e-07
-1.48286e-07
-3.35352e-08
-5.90392e-07
-1.63886e-07
-3.62411e-08
-1.76166e-07
-3.77687e-08
-6.22697e-08
-3.84665e-09
-7.08749e-10
-1.1977e-07
-1.13746e-08
-2.10488e-09
-1.72012e-07
-1.86334e-08
-3.48676e-09
-2.2038e-07
-2.58504e-08
-4.92764e-09
-2.66027e-07
-3.33311e-08
-6.51299e-09
-3.09921e-07
-4.13384e-08
-8.32269e-09
-3.52872e-07
-5.0099e-08
-1.0434e-08
-3.95543e-07
-5.98036e-08
-1.29213e-08
-4.38448e-07
-7.05984e-08
-1.58512e-08
-4.81918e-07
-8.25616e-08
-1.92717e-08
-5.26046e-07
-9.56637e-08
-2.319e-08
-5.70552e-07
-1.09711e-07
-2.75346e-08
-6.14496e-07
-1.24268e-07
-3.20907e-08
-6.5558e-07
-1.3856e-07
-3.64212e-08
-6.88121e-07
-1.51455e-07
-3.97951e-08
-1.61401e-07
-4.28077e-08
-6.91355e-08
-7.68763e-10
-3.87226e-09
-1.32915e-07
-2.28017e-09
-1.14429e-08
-1.9075e-07
-3.76878e-09
-1.87175e-08
-2.44138e-07
-5.31012e-09
-2.5903e-08
-2.94321e-07
-6.99194e-09
-3.32802e-08
-3.42339e-07
-8.89467e-09
-4.10773e-08
-3.89068e-07
-1.10945e-08
-4.94724e-08
-4.35239e-07
-1.3663e-08
-5.85895e-08
-4.81445e-07
-1.66638e-08
-6.84849e-08
-5.28127e-07
-2.01426e-08
-7.91225e-08
-5.75536e-07
-2.4108e-08
-9.03334e-08
-6.23619e-07
-2.84989e-08
-1.01759e-07
-6.71738e-07
-3.31289e-08
-1.12788e-07
-7.17895e-07
-3.76072e-08
-1.22458e-07
-7.56638e-07
-4.12351e-08
-1.29374e-07
-4.74776e-08
-1.32469e-07
-5.44492e-09
-8.41698e-10
-5.14217e-11
-1.04931e-08
-2.49787e-09
-1.53563e-10
-1.51109e-08
-4.12497e-09
-2.56567e-10
-1.94255e-08
-5.79724e-09
-3.66455e-10
-2.3541e-08
-7.61146e-09
-4.90456e-10
-2.75385e-08
-9.66623e-09
-6.35686e-10
-3.14731e-08
-1.20692e-08
-8.09313e-10
-3.53663e-08
-1.49433e-08
-1.01838e-09
-3.91934e-08
-1.84322e-08
-1.26901e-09
-4.28672e-08
-2.27024e-08
-1.56481e-09
-4.62223e-08
-2.79388e-08
-1.90386e-09
-4.90147e-08
-3.43269e-08
-2.27434e-09
-5.0966e-08
-4.20048e-08
-2.64953e-09
-5.18992e-08
-5.09284e-08
-2.98606e-09
-5.19225e-08
-6.03424e-08
-3.23099e-09
-7.80148e-08
-3.47431e-09
-1.62361e-08
-1.63881e-09
-1.53267e-10
-3.12855e-08
-4.86201e-09
-4.57468e-10
-4.50477e-08
-8.02343e-09
-7.63785e-10
-5.79013e-08
-1.1263e-08
-1.09012e-09
-7.01575e-08
-1.47634e-08
-1.45786e-09
-8.20604e-08
-1.87089e-08
-1.88792e-09
-9.37796e-08
-2.32973e-08
-2.40123e-09
-1.0539e-07
-2.87509e-08
-3.01811e-09
-1.16836e-07
-3.53232e-08
-3.75589e-09
-1.27884e-07
-4.32974e-08
-4.62365e-09
-1.38071e-07
-5.29667e-08
-5.61309e-09
-1.46686e-07
-6.45747e-08
-6.68487e-09
-1.52864e-07
-7.81739e-08
-7.75325e-09
-1.55926e-07
-9.33185e-08
-8.68209e-09
-1.55985e-07
-1.08298e-07
-9.3161e-09
-1.25038e-07
-9.61721e-09
-2.67452e-08
-2.35566e-09
-2.51252e-10
-5.15244e-08
-6.98547e-09
-7.49365e-10
-7.41694e-08
-1.15153e-08
-1.24979e-09
-9.53037e-08
-1.61369e-08
-1.78158e-09
-1.15441e-07
-2.11015e-08
-2.37923e-09
-1.3499e-07
-2.6657e-08
-3.07618e-09
-1.54246e-07
-3.30636e-08
-3.90558e-09
-1.73363e-07
-4.06052e-08
-4.89916e-09
-1.92307e-07
-4.95937e-08
-6.08318e-09
-2.10774e-07
-6.03593e-08
-7.46953e-09
-2.28107e-07
-7.32097e-08
-9.04027e-09
-2.43232e-07
-8.83271e-08
-1.07246e-08
-2.54726e-07
-1.05545e-07
-1.23735e-08
-2.61246e-07
-1.23951e-07
-1.37556e-08
-2.62533e-07
-1.412e-07
-1.46281e-08
-1.58299e-07
-1.47489e-08
-3.6805e-08
-2.96224e-09
-3.42531e-10
-7.08835e-08
-8.77897e-09
-1.02067e-09
-1.01997e-07
-1.44525e-08
-1.69992e-09
-1.31002e-07
-2.02095e-08
-2.41921e-09
-1.58606e-07
-2.63476e-08
-3.22442e-09
-1.85382e-07
-3.31532e-08
-4.15966e-09
-2.11763e-07
-4.09165e-08
-5.26815e-09
-2.38016e-07
-4.99413e-08
-6.59077e-09
-2.64191e-07
-6.05448e-08
-8.1606e-09
-2.90026e-07
-7.30394e-08
-9.99125e-09
-3.14839e-07
-8.76771e-08
-1.20565e-08
-3.37399e-07
-1.04527e-07
-1.42594e-08
-3.55909e-07
-1.23229e-07
-1.63978e-08
-3.68357e-07
-1.42605e-07
-1.81611e-08
-3.73612e-07
-1.60158e-07
-1.92353e-08
-1.76003e-07
-1.93818e-08
-4.626e-08
-3.43646e-09
-4.24722e-10
-8.90612e-08
-1.01774e-08
-1.26426e-09
-1.28091e-07
-1.67292e-08
-2.10217e-09
-1.64418e-07
-2.33357e-08
-2.98551e-09
-1.98931e-07
-3.03187e-08
-3.96946e-09
-2.32358e-07
-3.79772e-08
-5.10643e-09
-2.65276e-07
-4.66009e-08
-6.44735e-09
-2.98092e-07
-5.64762e-08
-8.03997e-09
-3.30994e-07
-6.78807e-08
-9.9228e-09
-3.63876e-07
-8.10597e-08
-1.21123e-08
-3.96211e-07
-9.61683e-08
-1.45802e-08
-4.2688e-07
-1.13158e-07
-1.72189e-08
-4.5401e-07
-1.31562e-07
-1.97984e-08
-4.74994e-07
-1.5016e-07
-2.19565e-08
-4.87101e-07
-1.66617e-07
-2.33034e-08
-1.80334e-07
-2.36997e-08
-5.4974e-08
-3.76453e-09
-4.96059e-10
-1.05795e-07
-1.11409e-08
-1.47492e-09
-1.52069e-07
-1.82833e-08
-2.4479e-09
-1.9505e-07
-2.54369e-08
-3.46814e-09
-2.35785e-07
-3.29265e-08
-4.59772e-09
-2.75141e-07
-4.1042e-08
-5.89486e-09
-3.13831e-07
-5.00478e-08
-7.41556e-09
-3.52401e-07
-6.0184e-08
-9.21209e-09
-3.91208e-07
-7.16577e-08
-1.13271e-08
-4.30363e-07
-8.46151e-08
-1.37813e-08
-4.69624e-07
-9.90903e-08
-1.65517e-08
-5.08227e-07
-1.14922e-07
-1.95385e-08
-5.44595e-07
-1.31609e-07
-2.25186e-08
-5.75901e-07
-1.48092e-07
-2.51193e-08
-5.97454e-07
-1.62518e-07
-2.68731e-08
-1.73815e-07
-2.78087e-08
-6.28342e-08
-3.94068e-09
-5.55458e-10
-1.20867e-07
-1.16539e-08
-1.6495e-09
-1.73616e-07
-1.90942e-08
-2.73203e-09
-2.22488e-07
-2.64951e-08
-3.86016e-09
-2.68655e-07
-3.41678e-08
-5.10029e-09
-3.13097e-07
-4.23767e-08
-6.51385e-09
-3.56632e-07
-5.13439e-08
-8.15913e-09
-3.99926e-07
-6.12468e-08
-1.00901e-08
-4.4348e-07
-7.22045e-08
-1.23512e-08
-4.87605e-07
-8.42491e-08
-1.49668e-08
-5.32353e-07
-9.72803e-08
-1.7922e-08
-5.7739e-07
-1.11008e-07
-2.11347e-08
-6.21706e-07
-1.24893e-07
-2.44148e-08
-6.62959e-07
-1.38116e-07
-2.74327e-08
-6.95516e-07
-1.49711e-07
-2.97088e-08
-1.58369e-07
-3.17682e-08
-6.97497e-08
-6.02496e-10
-3.96615e-09
-1.34107e-07
-1.78689e-09
-1.17215e-08
-1.9249e-07
-2.95306e-09
-1.91763e-08
-2.46421e-07
-4.15995e-09
-2.65429e-08
-2.9716e-07
-5.4758e-09
-3.41072e-08
-3.45762e-07
-6.96261e-09
-4.20982e-08
-3.9311e-07
-8.67807e-09
-5.06887e-08
-4.39937e-07
-1.06746e-08
-5.99884e-08
-4.86826e-07
-1.2995e-08
-7.00272e-08
-5.34195e-07
-1.56632e-08
-8.07246e-08
-5.82249e-07
-1.86675e-08
-9.18455e-08
-6.30873e-07
-2.19352e-08
-1.02942e-07
-6.79346e-07
-2.52977e-08
-1.13311e-07
-7.25608e-07
-2.84537e-08
-1.21942e-07
-7.64241e-07
-3.0934e-08
-1.27558e-07
-3.53415e-08
-1.28855e-07
-5.48487e-09
-8.5756e-10
-3.53514e-11
-1.0571e-08
-2.54511e-09
-1.05564e-10
-1.52255e-08
-4.20343e-09
-1.7634e-10
-1.95768e-08
-5.90809e-09
-2.51787e-10
-2.37305e-08
-7.75716e-09
-3.36805e-10
-2.77686e-08
-9.8498e-09
-4.36148e-10
-3.17466e-08
-1.22931e-08
-5.54472e-10
-3.56862e-08
-1.5208e-08
-6.96096e-10
-3.95625e-08
-1.87338e-08
-8.64303e-10
-4.3288e-08
-2.303e-08
-1.05995e-09
-4.6697e-08
-2.82726e-08
-1.27927e-09
-4.95449e-08
-3.46395e-08
-1.51093e-09
-5.155e-08
-4.2272e-08
-1.73385e-09
-5.25248e-08
-5.1153e-08
-1.91906e-09
-5.25602e-08
-6.05753e-08
-2.03952e-09
-7.85281e-08
-2.14976e-09
-1.63548e-08
-1.66958e-09
-1.05371e-10
-3.15171e-08
-4.95362e-09
-3.14483e-10
-4.53879e-08
-8.17543e-09
-5.24968e-10
-5.83506e-08
-1.14774e-08
-7.49037e-10
-7.07202e-08
-1.50447e-08
-1.00119e-09
-8.27435e-08
-1.90624e-08
-1.29542e-09
-9.45915e-08
-2.37271e-08
-1.64535e-09
-1.06339e-07
-2.92568e-08
-2.06349e-09
-1.17931e-07
-3.58965e-08
-2.55912e-09
-1.29131e-07
-4.3915e-08
-3.13408e-09
-1.39475e-07
-5.35867e-08
-3.776e-09
-1.48248e-07
-6.51378e-08
-4.44953e-09
-1.54578e-07
-7.86201e-08
-5.08927e-09
-1.57756e-07
-9.36275e-08
-5.60559e-09
-1.57852e-07
-1.08531e-07
-5.9179e-09
-1.25453e-07
-6.01261e-09
-2.69394e-08
-2.39965e-09
-1.72739e-10
-5.19031e-08
-7.11637e-09
-5.15159e-10
-7.47255e-08
-1.17322e-08
-8.59037e-10
-9.60379e-08
-1.64423e-08
-1.22421e-09
-1.1636e-07
-2.15009e-08
-1.63408e-09
-1.36105e-07
-2.7157e-08
-2.11106e-09
-1.5557e-07
-3.36686e-08
-2.67679e-09
-1.74911e-07
-4.13128e-08
-3.35091e-09
-1.94089e-07
-5.03884e-08
-4.14764e-09
-2.12798e-07
-6.12039e-08
-5.06884e-09
-2.30377e-07
-7.4038e-08
-6.09288e-09
-2.45742e-07
-8.90434e-08
-7.16018e-09
-2.57457e-07
-1.06044e-07
-8.16114e-09
-2.64143e-07
-1.2417e-07
-8.94583e-09
-2.65489e-07
-1.41188e-07
-9.38549e-09
-1.58318e-07
-9.35706e-09
-3.70697e-08
-3.0172e-09
-2.35501e-10
-7.13992e-08
-8.94235e-09
-7.01691e-10
-1.02754e-07
-1.47227e-08
-1.16848e-09
-1.32e-07
-2.05889e-08
-1.66245e-09
-1.59855e-07
-2.68421e-08
-2.21479e-09
-1.86895e-07
-3.37693e-08
-2.8551e-09
-2.13558e-07
-4.16575e-08
-3.61171e-09
-2.40112e-07
-5.08012e-08
-4.51014e-09
-2.666e-07
-6.14997e-08
-5.56863e-09
-2.92755e-07
-7.40372e-08
-6.78922e-09
-3.17883e-07
-8.86271e-08
-8.14347e-09
-3.40738e-07
-1.05297e-07
-9.55314e-09
-3.59504e-07
-1.23669e-07
-1.08735e-08
-3.72137e-07
-1.42609e-07
-1.19047e-08
-3.77467e-07
-1.59758e-07
-1.24753e-08
-1.75462e-07
-1.24677e-08
-4.65884e-08
-3.49973e-09
-2.92017e-10
-8.97006e-08
-1.03654e-08
-8.69177e-10
-1.29028e-07
-1.70395e-08
-1.44503e-09
-1.65653e-07
-2.37701e-08
-2.05173e-09
-2.00474e-07
-3.08825e-08
-2.72683e-09
-2.34226e-07
-3.86758e-08
-3.50559e-09
-2.6749e-07
-4.74353e-08
-4.42153e-09
-3.00671e-07
-5.74356e-08
-5.50474e-09
-3.33953e-07
-6.89331e-08
-6.77696e-09
-3.67217e-07
-8.21389e-08
-8.2419e-09
-3.99917e-07
-9.7162e-08
-9.86949e-09
-4.30912e-07
-1.13903e-07
-1.15743e-08
-4.58303e-07
-1.31869e-07
-1.31939e-08
-4.79461e-07
-1.49885e-07
-1.44956e-08
-4.91638e-07
-1.6578e-07
-1.52586e-08
-1.79205e-07
-1.54281e-08
-5.53582e-08
-3.83328e-09
-3.41071e-10
-1.06542e-07
-1.1345e-08
-1.01403e-09
-1.53163e-07
-1.86196e-08
-1.68274e-09
-1.9649e-07
-2.59061e-08
-2.38355e-09
-2.37581e-07
-3.35328e-08
-3.15874e-09
-2.77312e-07
-4.17891e-08
-4.04759e-09
-3.16399e-07
-5.09336e-08
-5.0871e-09
-3.55388e-07
-6.11934e-08
-6.3105e-09
-3.94628e-07
-7.2751e-08