/*--------------------------------*- C++ -*----------------------------------*\
| =========                 |                                                 |
| \\      /  F ield         | foam-extend: Open Source CFD                    |
|  \\    /   O peration     | Version:     3.1                                |
|   \\  /    A nd           | Web:         http://www.extend-project.de       |
|    \\/     M anipulation  |                                                 |
\*---------------------------------------------------------------------------*/
FoamFile
{
    version     2.0;
    format      ascii;
    class       volScalarField;
    location    "2.9";
    object      p;
}
// * * * * * * * * * * * * * * * * * * * * * * * * * * * * * * * * * * * * * //

dimensions      [0 2 -2 0 0 0 0];

internalField   nonuniform List<scalar> 
14592
(
0.0256077
0.0254159
0.0252266
0.025062
0.0249358
0.0248573
0.0248302
0.0248509
0.0249068
0.0249763
0.0250277
0.0250174
0.024881
0.024514
0.0237665
0.0227241
0.0256286
0.0254191
0.0252286
0.0250656
0.0249383
0.0248565
0.0248261
0.0248454
0.0249036
0.0249797
0.0250423
0.025047
0.0249322
0.0245921
0.0238114
0.0225014
0.0256192
0.0253938
0.0251955
0.0250264
0.0248913
0.0248016
0.0247661
0.0247861
0.0248536
0.0249493
0.0250438
0.0250952
0.0250428
0.0247731
0.0239827
0.0223492
0.0255811
0.0253418
0.0251332
0.0249546
0.0248087
0.0247077
0.0246633
0.0246809
0.0247555
0.0248712
0.0250015
0.025108
0.0251347
0.0249704
0.0242458
0.022399
0.0255158
0.0252655
0.0250472
0.0248592
0.0247018
0.024587
0.0245285
0.0245351
0.0246062
0.0247298
0.0248838
0.0250352
0.0251365
0.0250922
0.0245065
0.0225837
0.0254252
0.0251661
0.0249391
0.0247418
0.0245722
0.0244408
0.0243622
0.024347
0.0243983
0.0245077
0.0246579
0.0248218
0.0249652
0.0250213
0.0246215
0.0227417
0.0253131
0.0250472
0.0248122
0.0246046
0.0244209
0.0242696
0.0241644
0.0241162
0.0241294
0.0241967
0.0243027
0.0244216
0.0245334
0.0246021
0.0243868
0.0225482
0.0251858
0.0249151
0.0246726
0.0244535
0.024253
0.0240782
0.0239407
0.0238504
0.0238098
0.0238089
0.0238279
0.0238274
0.0237836
0.0236113
0.0234138
0.0206666
0.025836
0.0256358
0.0254459
0.0252898
0.0251814
0.0251319
0.0251477
0.0252284
0.0253656
0.025542
0.025735
0.0259113
0.0260299
0.0260255
0.0258461
0.0256954
0.0258596
0.0256401
0.025448
0.0252934
0.025184
0.0251312
0.0251435
0.025223
0.0253633
0.0255488
0.0257541
0.0259489
0.026092
0.0261124
0.0259452
0.0258911
0.0258522
0.0256161
0.0254161
0.0252562
0.02514
0.0250799
0.0250879
0.0251697
0.0253223
0.0255327
0.02578
0.0260351
0.0262612
0.026382
0.0262912
0.0263487
0.0258137
0.0255637
0.0253535
0.0251852
0.0250597
0.0249899
0.0249909
0.0250726
0.0252364
0.0254739
0.0257691
0.0260998
0.0264382
0.0267103
0.0267509
0.0269401
0.0257447
0.0254835
0.0252636
0.0250867
0.0249513
0.0248695
0.0248582
0.0249308
0.0250937
0.0253442
0.025673
0.0260663
0.0265087
0.0269413
0.0271469
0.0274834
0.0256467
0.0253766
0.0251475
0.0249612
0.0248142
0.0247168
0.0246857
0.0247363
0.0248786
0.0251143
0.0254407
0.0258524
0.0263498
0.0269045
0.0272604
0.027709
0.025524
0.0252468
0.0250089
0.0248113
0.0246492
0.0245307
0.0244709
0.0244846
0.0245824
0.0247668
0.0250368
0.0253886
0.025835
0.0263839
0.0267822
0.0270323
0.0253835
0.0251011
0.0248545
0.0246436
0.0244622
0.0243165
0.0242193
0.0241826
0.0242145
0.0243124
0.0244678
0.0246589
0.0248824
0.0250986
0.0252293
0.0234505
0.0260569
0.0258502
0.0256617
0.0255158
0.025427
0.0254079
0.0254674
0.0256079
0.0258239
0.0261029
0.0264238
0.0267608
0.0270811
0.0273354
0.0274874
0.0276047
0.0260833
0.0258558
0.025664
0.0255197
0.0254301
0.0254076
0.0254637
0.0256032
0.0258229
0.0261116
0.0264483
0.026806
0.0271509
0.0274283
0.0276141
0.0278612
0.026078
0.0258334
0.0256336
0.0254848
0.0253893
0.0253606
0.0254134
0.0255573
0.0257935
0.026112
0.0264976
0.0269251
0.0273636
0.0277502
0.0280506
0.0284779
0.0260393
0.0257809
0.025571
0.0254148
0.0253116
0.0252752
0.0253232
0.0254698
0.0257215
0.026075
0.026519
0.0270368
0.0276053
0.0281588
0.0286146
0.0292331
0.0259669
0.0256974
0.0254776
0.0253134
0.0252018
0.0251552
0.0251931
0.025333
0.0255869
0.0259583
0.0264443
0.0270368
0.0277243
0.028445
0.0290696
0.0298649
0.0258621
0.0255836
0.0253542
0.0251804
0.0250575
0.024996
0.0250147
0.0251327
0.0253657
0.0257222
0.0262069
0.0268205
0.0275664
0.0284009
0.0291353
0.030013
0.0257293
0.0254435
0.0252044
0.0250182
0.0248791
0.0247951
0.024783
0.0248607
0.0250436
0.0253407
0.0257582
0.0262984
0.0269748
0.027767
0.0284276
0.0289448
0.0255761
0.0252845
0.0250358
0.0248343
0.0246733
0.0245586
0.0245039
0.0245237
0.0246293
0.0248232
0.0251025
0.0254483
0.0258532
0.0262429
0.0264451
0.0244468
0.0262601
0.0260484
0.0258625
0.0257273
0.0256581
0.0256684
0.025769
0.0259644
0.026253
0.0266213
0.0270507
0.027516
0.0279848
0.0284111
0.028749
0.0289615
0.0262891
0.0260556
0.0258652
0.0257318
0.0256617
0.0256687
0.0257661
0.0259618
0.0262535
0.0266327
0.02708
0.0275675
0.0280607
0.0285079
0.028883
0.0292141
0.0262858
0.0260348
0.0258364
0.0256992
0.0256243
0.025626
0.0257214
0.0259227
0.0262334
0.0266464
0.0271493
0.0277128
0.0283032
0.0288574
0.0293519
0.029865
0.0262471
0.0259823
0.0257739
0.0256302
0.0255492
0.025545
0.0256378
0.0258449
0.0261767
0.0266334
0.0272007
0.0278631
0.0285898
0.0293101
0.0299554
0.0306612
0.0261718
0.025896
0.0256777
0.0255263
0.025438
0.0254255
0.0255102
0.0257131
0.0260498
0.0265273
0.0271433
0.0278874
0.0287387
0.0296205
0.0304206
0.0312942
0.026061
0.0257761
0.0255477
0.0253864
0.025287
0.0252601
0.0253263
0.0255076
0.0258233
0.0262854
0.0269003
0.0276658
0.0285737
0.0295544
0.0304265
0.0313469
0.0259191
0.0256266
0.0253878
0.0252131
0.0250963
0.0250455
0.025079
0.0252169
0.0254778
0.0258737
0.0264125
0.0270929
0.0279155
0.0288232
0.0295439
0.0300068
0.0257542
0.0254556
0.0252061
0.0250142
0.024873
0.0247882
0.0247745
0.0248477
0.0250215
0.0253003
0.0256818
0.0261424
0.02666
0.027119
0.0272744
0.0249555
0.026436
0.0262206
0.0260376
0.0259127
0.025861
0.0258974
0.0260342
0.0262779
0.0266263
0.027068
0.0275832
0.0281444
0.0287163
0.0292499
0.0296889
0.0299318
0.0264673
0.0262293
0.0260408
0.0259176
0.0258653
0.0258985
0.0260319
0.0262748
0.0266281
0.027082
0.0276162
0.0282005
0.0287964
0.0293489
0.0298206
0.0301764
0.0264657
0.02621
0.0260136
0.0258872
0.0258309
0.0258597
0.0259922
0.0262428
0.0266172
0.0271098
0.027702
0.028364
0.0290583
0.0297126
0.0302966
0.0308274
0.0264271
0.0261577
0.0259514
0.0258192
0.025758
0.0257826
0.0259146
0.0261737
0.026572
0.0271101
0.0277765
0.0285459
0.0293746
0.0301865
0.0309123
0.0316261
0.0263495
0.0260692
0.0258528
0.0257132
0.0256458
0.0256634
0.0257891
0.026046
0.0264522
0.0270155
0.0277325
0.0285855
0.0295403
0.0305053
0.031368
0.0322368
0.0262336
0.0259441
0.0257173
0.0255675
0.025489
0.0254926
0.0256003
0.0258361
0.0262212
0.0267689
0.027484
0.0283569
0.0293649
0.0304152
0.031321
0.0322104
0.0260839
0.0257866
0.0255487
0.0253845
0.0252875
0.025266
0.0253394
0.0255293
0.0258559
0.0263319
0.0269637
0.0277426
0.0286534
0.0296087
0.0303141
0.0306854
0.0259088
0.025605
0.0253556
0.0251727
0.0250492
0.0249907
0.0250129
0.0251326
0.0253642
0.0257122
0.0261722
0.026713
0.0272967
0.0277739
0.0278524
0.0252656
0.0265762
0.0263584
0.026178
0.0260616
0.0260244
0.0260819
0.0262472
0.0265288
0.0269241
0.0274214
0.0279995
0.0286279
0.0292669
0.0298633
0.0303516
0.0306114
0.0266093
0.026368
0.0261817
0.0260671
0.0260294
0.0260837
0.0262461
0.0265263
0.0269269
0.0274374
0.0280354
0.0286873
0.0293502
0.0299643
0.0304829
0.0308452
0.0266092
0.0263501
0.0261558
0.0260384
0.0259974
0.0260481
0.0262103
0.0264994
0.0269235
0.0274753
0.0281342
0.0288632
0.0296241
0.0303352
0.0309557
0.0314875
0.0265707
0.0262981
0.0260939
0.0259713
0.0259264
0.0259741
0.0261375
0.0264377
0.026887
0.0274872
0.0282239
0.0290677
0.0299594
0.0308189
0.0315784
0.0322794
0.0264913
0.0262078
0.0259934
0.0258637
0.0258132
0.0258552
0.0260136
0.0263131
0.0267727
0.0274004
0.02819
0.0291166
0.030134
0.031139
0.0320184
0.0328663
0.0263713
0.0260787
0.0258536
0.0257133
0.0256519
0.02568
0.0258208
0.0260994
0.026538
0.0271498
0.0279366
0.0288815
0.0299486
0.0310286
0.0319307
0.0327822
0.0262154
0.0259148
0.0256782
0.0255227
0.0254418
0.0254439
0.025549
0.0257799
0.0261571
0.0266932
0.0273915
0.0282358
0.0291976
0.0301683
0.0308395
0.0311343
0.0260322
0.025725
0.025476
0.0253006
0.0251915
0.0251542
0.0252051
0.0253614
0.0256379
0.026038
0.0265543
0.0271482
0.0277685
0.0282423
0.0282504
0.0254677
0.0266738
0.0264551
0.0262765
0.0261664
0.0261397
0.0262122
0.0263977
0.0267054
0.0271327
0.0276676
0.028287
0.0289579
0.0296369
0.0302675
0.0307806
0.0310434
0.0267081
0.026465
0.0262809
0.0261728
0.0261459
0.0262154
0.0263983
0.0267048
0.0271381
0.0276868
0.0283272
0.0290226
0.0297252
0.0303728
0.0309123
0.0312729
0.0267089
0.0264482
0.0262559
0.0261455
0.0261158
0.0261824
0.0263658
0.0266821
0.0271405
0.0277325
0.0284358
0.0292106
0.0300079
0.0307484
0.0313796
0.0319078
0.0266705
0.0263964
0.0261941
0.0260787
0.0260458
0.0261103
0.026296
0.0266251
0.02711
0.0277523
0.028535
0.0294227
0.0303546
0.031238
0.0320114
0.0326937
0.0265898
0.0263048
0.0260922
0.0259698
0.0259317
0.0259911
0.0261727
0.0265021
0.0269987
0.0276701
0.0285072
0.0294796
0.0305337
0.0315571
0.0324368
0.033263
0.026467
0.0261729
0.0259493
0.0258161
0.0257669
0.0258125
0.0259767
0.0262853
0.0267609
0.027416
0.0282499
0.0292397
0.0303406
0.0314323
0.0323218
0.0331418
0.0263068
0.0260046
0.0257691
0.0256201
0.0255508
0.0255695
0.0256971
0.0259566
0.0263689
0.0269456
0.0276875
0.0285726
0.0295628
0.0305367
0.0311772
0.0314172
0.0261181
0.0258089
0.0255607
0.0253908
0.025292
0.0252698
0.0253408
0.0255229
0.0258305
0.0262661
0.0268196
0.0274465
0.0280865
0.0285519
0.0285072
0.0255971
0.0267225
0.0265028
0.0263248
0.0262174
0.0261954
0.0262749
0.0264702
0.0267898
0.0272321
0.0277845
0.028423
0.029113
0.0298095
0.0304542
0.0309781
0.0312446
0.0267569
0.0265126
0.0263287
0.0262229
0.0262005
0.0262768
0.0264686
0.0267874
0.0272357
0.027802
0.0284616
0.0291765
0.0298963
0.0305582
0.0311072
0.031471
0.0267584
0.0264966
0.0263042
0.0261962
0.0261712
0.0262446
0.0264373
0.026766
0.0272394
0.0278494
0.0285725
0.0293672
0.0301793
0.0309318
0.0315686
0.0320986
0.0267202
0.026445
0.0262427
0.0261299
0.0261022
0.0261739
0.0263692
0.0267108
0.0272116
0.0278726
0.0286755
0.029582
0.0305307
0.0314231
0.0322038
0.0328796
0.026639
0.026353
0.0261405
0.0260208
0.0259881
0.0260551
0.026247
0.0265895
0.0271025
0.0277929
0.0286507
0.0296426
0.0307112
0.0317405
0.0326219
0.0334399
0.0265149
0.0262198
0.0259963
0.0258658
0.025822
0.0258754
0.02605
0.026372
0.0268638
0.0275379
0.0283919
0.0294004
0.0305141
0.0316081
0.0324935
0.0333009
0.0263526
0.0260494
0.0258139
0.0256673
0.0256032
0.0256295
0.0257671
0.0260394
0.0264671
0.0270614
0.0278218
0.0287234
0.0297235
0.0306947
0.0313196
0.0315297
0.0261611
0.0258508
0.0256023
0.0254346
0.0253404
0.025325
0.0254052
0.0255988
0.0259201
0.026371
0.02694
0.0275803
0.028226
0.0286826
0.0285922
0.0256203
0.0245081
0.0244526
0.0243626
0.0242539
0.0241354
0.0240081
0.0238625
0.0236861
0.0234586
0.0231552
0.0227466
0.0222007
0.0214844
0.0205705
0.0194401
0.0181092
0.0245161
0.0244602
0.0243725
0.0242665
0.0241514
0.0240256
0.0238826
0.0237105
0.0234875
0.0231889
0.0227854
0.0222446
0.0215331
0.0206239
0.0194945
0.0181634
0.0245095
0.0244489
0.0243599
0.0242547
0.0241425
0.0240229
0.0238893
0.0237255
0.0235133
0.0232266
0.0228362
0.02231
0.0216144
0.0207239
0.0196114
0.0182994
0.0244864
0.024417
0.0243216
0.0242123
0.0240989
0.0239818
0.0238538
0.0236999
0.0234996
0.0232269
0.0228513
0.0223416
0.0216641
0.0207954
0.0197044
0.0184179
0.0244481
0.0243693
0.0242642
0.0241463
0.0240266
0.0239068
0.0237799
0.0236312
0.0234392
0.0231771
0.0228142
0.022319
0.0216579
0.0208097
0.0197409
0.0184814
0.0243971
0.0243101
0.0241949
0.0240665
0.0239373
0.0238103
0.0236796
0.0235306
0.0233416
0.0230852
0.0227304
0.0222459
0.0215984
0.0207688
0.0197236
0.018494
0.0243364
0.0242431
0.0241194
0.023981
0.0238416
0.0237054
0.0235673
0.0234134
0.023222
0.0229657
0.0226137
0.0221353
0.0214984
0.0206856
0.0196662
0.0184706
0.0242692
0.0241721
0.0240424
0.0238962
0.023748
0.0236026
0.0234557
0.0232938
0.0230957
0.0228344
0.0224801
0.0220032
0.0213739
0.0205764
0.019585
0.0184274
0.0245271
0.0244547
0.0243527
0.024235
0.0241098
0.0239764
0.0238269
0.0236487
0.0234201
0.0231162
0.0227068
0.022159
0.0214385
0.0205171
0.019373
0.0180266
0.0245341
0.0244586
0.0243574
0.02424
0.0241144
0.0239805
0.0238314
0.0236527
0.0234249
0.0231229
0.0227154
0.0221699
0.0214513
0.0205332
0.0193902
0.0180483
0.0245269
0.024444
0.0243394
0.0242195
0.0240932
0.0239608
0.0238157
0.0236438
0.0234251
0.0231326
0.0227366
0.0222037
0.021499
0.0205984
0.0194705
0.018149
0.0245046
0.0244117
0.0242994
0.0241732
0.0240426
0.0239092
0.023767
0.0236017
0.0233924
0.0231123
0.0227302
0.0222135
0.0215261
0.0206468
0.0195378
0.0182408
0.024468
0.0243657
0.0242441
0.0241085
0.0239699
0.0238312
0.0236875
0.023525
0.0233223
0.0230519
0.022682
0.0221797
0.0215086
0.02065
0.0195626
0.0182926
0.0244184
0.0243086
0.0241781
0.0240325
0.0238838
0.0237367
0.0235873
0.0234228
0.0232219
0.0229566
0.0225947
0.0221037
0.0214471
0.0206084
0.0195456
0.0183069
0.0243582
0.0242432
0.0241056
0.0239511
0.0237925
0.0236357
0.0234781
0.0233078
0.0231038
0.0228385
0.0224797
0.0219957
0.0213511
0.0205312
0.0194968
0.0182946
0.0242909
0.0241729
0.0240305
0.0238693
0.0237026
0.0235369
0.0233705
0.0231921
0.0229814
0.0227114
0.022351
0.0218697
0.0212345
0.0204322
0.0194295
0.0182682
0.0245847
0.0244911
0.0243712
0.0242394
0.0241041
0.0239651
0.0238149
0.0236396
0.0234181
0.0231233
0.0227225
0.0221787
0.0214508
0.0205017
0.0192966
0.0178554
0.0245925
0.0244938
0.0243748
0.0242425
0.0241057
0.0239649
0.0238134
0.0236375
0.0234164
0.0231228
0.022723
0.0221822
0.0214569
0.0205127
0.0193089
0.0178768
0.0245834
0.0244756
0.0243515
0.0242147
0.0240744
0.0239325
0.023783
0.0236122
0.0233991
0.0231158
0.0227298
0.0222016
0.0214904
0.0205647
0.0193735
0.0179619
0.0245592
0.0244403
0.0243071
0.0241615
0.0240139
0.0238679
0.0237186
0.0235526
0.0233482
0.0230768
0.0227042
0.0221928
0.0214989
0.0205942
0.0194184
0.0180301
0.0245212
0.0243925
0.0242496
0.0240932
0.0239349
0.0237805
0.0236269
0.0234613
0.0232621
0.0229997
0.022639
0.0221426
0.0214651
0.0205814
0.0194249
0.0180648
0.0244702
0.0243341
0.0241827
0.0240157
0.0238457
0.0236802
0.0235182
0.0233483
0.023149
0.0228908
0.0225377
0.0220527
0.0213901
0.0205277
0.0193973
0.0180733
0.0244082
0.0242672
0.0241093
0.0239335
0.0237528
0.023576
0.0234037
0.0232259
0.0230218
0.0227623
0.0224117
0.0219336
0.0212838
0.0204427
0.0193458
0.0180668
0.0243385
0.0241949
0.0240328
0.0238507
0.0236616
0.0234751
0.0232928
0.0231055
0.0228934
0.0226281
0.0222751
0.0217994
0.0211599
0.0203394
0.0192826
0.0180559
0.024681
0.0245658
0.0244275
0.0242813
0.0241368
0.0239946
0.023848
0.0236831
0.0234781
0.0232037
0.0228237
0.0222933
0.0215595
0.0205662
0.0192515
0.0176206
0.0246905
0.0245685
0.0244313
0.0242852
0.0241392
0.023995
0.023847
0.0236817
0.0234776
0.0232056
0.0228283
0.0223021
0.0215725
0.0205866
0.0192732
0.0176543
0.0246794
0.0245468
0.0244038
0.0242518
0.0241006
0.0239536
0.0238061
0.0236451
0.0234488
0.0231875
0.0228236
0.0223125
0.0215991
0.0206332
0.0193279
0.0177217
0.0246518
0.0245073
0.0243542
0.0241916
0.0240305
0.0238767
0.023727
0.0235689
0.0233805
0.0231308
0.0227813
0.0222866
0.0215896
0.020642
0.0193442
0.017754
0.0246101
0.0244554
0.0242921
0.0241174
0.0239434
0.0237781
0.0236209
0.0234607
0.0232754
0.0230337
0.0226955
0.022215
0.0215334
0.0206053
0.0193227
0.0177609
0.024555
0.0243928
0.024221
0.0240352
0.0238477
0.0236687
0.0234999
0.0233321
0.0231441
0.0229044
0.0225724
0.0221023
0.0214351
0.0205291
0.0192742
0.0177578
0.0244886
0.0243213
0.0241433
0.0239485
0.0237491
0.0235567
0.0233748
0.023196
0.0230002
0.0227565
0.0224248
0.02196
0.0213053
0.0204234
0.0192098
0.0177567
0.024414
0.024244
0.0240619
0.0238606
0.0236522
0.0234487
0.0232546
0.0230637
0.022857
0.0226046
0.0222675
0.021803
0.0211582
0.0203008
0.0191399
0.0177645
0.0248127
0.0246776
0.0245223
0.0243638
0.0242128
0.0240712
0.0239336
0.0237867
0.0236082
0.0233671
0.0230224
0.0225198
0.0217909
0.0207468
0.0192799
0.0173484
0.0248245
0.02468
0.024526
0.0243681
0.0242157
0.0240719
0.0239326
0.0237852
0.0236079
0.0233698
0.0230294
0.0225333
0.0218092
0.0207741
0.0193089
0.0173849
0.0248118
0.0246556
0.0244951
0.0243305
0.0241714
0.0240229
0.0238824
0.023738
0.0235679
0.0233406
0.0230138
0.0225327
0.021824
0.0208026
0.0193316
0.01739
0.0247809
0.0246121
0.0244409
0.0242646
0.0240937
0.0239357
0.0237902
0.0236463
0.0234824
0.0232658
0.0229529
0.0224869
0.0217918
0.0207805
0.0193038
0.0173542
0.0247343
0.0245552
0.0243738
0.0241849
0.0239995
0.0238276
0.0236713
0.0235218
0.0233583
0.0231474
0.0228442
0.0223904
0.021708
0.0207102
0.0192421
0.017315
0.0246734
0.0244866
0.0242969
0.0240969
0.0238971
0.0237092
0.023538
0.0233771
0.023207
0.0229947
0.0226949
0.0222488
0.021579
0.0206021
0.0191648
0.0172977
0.0246003
0.0244082
0.0242123
0.0240033
0.0237909
0.0235877
0.0234003
0.0232244
0.0230421
0.0228214
0.0225176
0.0220731
0.0214146
0.0204651
0.0190814
0.0173126
0.0245186
0.0243234
0.0241233
0.0239074
0.0236851
0.023469
0.0232666
0.0230749
0.0228771
0.0226424
0.022328
0.0218791
0.0212285
0.0203091
0.0189973
0.0173581
0.0249769
0.024824
0.0246548
0.0244878
0.0243346
0.0241991
0.0240773
0.0239573
0.0238174
0.0236255
0.023337
0.0228886
0.0221891
0.0211056
0.0194498
0.0170755
0.0249911
0.0248263
0.0246581
0.024492
0.0243376
0.0241996
0.0240756
0.0239548
0.0238161
0.0236277
0.0233443
0.022902
0.0222072
0.0211238
0.019448
0.0170211
0.0249779
0.0248003
0.0246251
0.0244519
0.0242896
0.0241451
0.0240181
0.0238988
0.0237665
0.023589
0.0233197
0.0228923
0.0222076
0.0211167
0.0193914
0.0168384
0.0249441
0.0247534
0.0245674
0.0243823
0.0242072
0.0240511
0.0239165
0.0237952
0.0236674
0.0234997
0.0232441
0.0228306
0.0221543
0.0210522
0.0192855
0.0166337
0.0248926
0.0246913
0.0244952
0.0242979
0.0241079
0.0239362
0.0237881
0.023658
0.0235275
0.0233633
0.0231161
0.0227128
0.0220458
0.0209431
0.0191689
0.016489
0.0248247
0.0246155
0.0244114
0.0242033
0.0239988
0.0238099
0.0236441
0.0234988
0.0233574
0.0231875
0.0229402
0.0225412
0.0218852
0.020798
0.019059
0.0164358
0.0247433
0.0245284
0.024318
0.024101
0.0238835
0.0236779
0.0234929
0.023328
0.0231688
0.022984
0.0227263
0.0223228
0.0216759
0.0206191
0.0189589
0.0164869
0.0246523
0.024434
0.0242189
0.0239944
0.0237658
0.0235451
0.0233418
0.0231561
0.0229748
0.0227679
0.0224903
0.0220722
0.021428
0.0204096
0.018867
0.0166482
0.0251692
0.0250008
0.0248212
0.0246504
0.0245007
0.0243777
0.0242798
0.024197
0.0241096
0.0239865
0.0237824
0.0234292
0.022818
0.021761
0.0199296
0.0169341
0.0251853
0.025003
0.024824
0.0246544
0.0245035
0.0243777
0.0242771
0.0241932
0.0241071
0.023988
0.02379
0.0234437
0.0228345
0.0217566
0.0198141
0.016511
0.0251727
0.0249764
0.0247901
0.0246134
0.0244541
0.0243206
0.0242155
0.024132
0.024052
0.0239449
0.0237637
0.0234356
0.022836
0.0217241
0.019629
0.0158856
0.0251369
0.0249271
0.02473
0.0245419
0.0243696
0.0242237
0.0241093
0.0240221
0.0239458
0.0238493
0.0236848
0.0233752
0.0227866
0.0216453
0.0194402
0.0153385
0.0250804
0.0248599
0.024653
0.0244535
0.0242669
0.0241049
0.0239755
0.0238773
0.0237963
0.0237024
0.0235475
0.0232517
0.0226775
0.0215284
0.0192894
0.0149803
0.0250051
0.0247763
0.0245613
0.0243518
0.0241513
0.0239717
0.0238228
0.0237062
0.0236102
0.0235067
0.023349
0.0230565
0.0224963
0.0213619
0.0191692
0.0148237
0.024914
0.0246792
0.0244576
0.024239
0.0240253
0.0238278
0.0236571
0.0235163
0.023396
0.0232696
0.0230925
0.0227857
0.02223
0.0211249
0.0190603
0.0148851
0.024812
0.0245734
0.0243463
0.0241192
0.023893
0.023678
0.0234849
0.023317
0.0231659
0.0230053
0.0227925
0.0224497
0.0218764
0.0207957
0.0189462
0.0152465
0.0253823
0.0252009
0.0250148
0.024845
0.0247046
0.0246009
0.024535
0.0244999
0.0244789
0.0244447
0.024357
0.0241542
0.0237344
0.022902
0.0212344
0.0179117
0.0254006
0.0252035
0.0250171
0.0248487
0.0247071
0.0246004
0.0245314
0.0244949
0.0244755
0.0244465
0.0243671
0.0241749
0.0237637
0.022916
0.0210656
0.0170274
0.0253893
0.0251771
0.0249832
0.0248081
0.0246582
0.0245433
0.0244691
0.0244327
0.0244204
0.0244063
0.0243499
0.0241878
0.0238062
0.0229501
0.0208962
0.0160339
0.0253522
0.0251262
0.0249217
0.0247361
0.024574
0.0244467
0.0243629
0.0243226
0.0243148
0.0243149
0.024283
0.0241547
0.0238105
0.0229652
0.0207991
0.01529
0.0252911
0.0250542
0.0248401
0.0246441
0.0244689
0.0243263
0.0242273
0.0241753
0.0241625
0.0241667
0.0241499
0.0240484
0.0237429
0.0229334
0.0207652
0.0148495
0.025208
0.0249626
0.0247402
0.0245346
0.0243464
0.0241866
0.0240674
0.0239948
0.023964
0.0239557
0.0239349
0.0238402
0.0235612
0.0227968
0.0207251
0.0146438
0.0251066
0.0248548
0.0246251
0.0244101
0.0242084
0.0240297
0.0238862
0.0237848
0.0237228
0.0236822
0.0236303
0.0235073
0.02322
0.0224777
0.0205897
0.0145981
0.0249923
0.0247362
0.0245001
0.0242752
0.0240591
0.0238601
0.0236894
0.0235538
0.0234502
0.0233595
0.0232486
0.0230523
0.0226923
0.0218733
0.0202314
0.0146485
0.0250513
0.024778
0.024529
0.0242975
0.0240784
0.0238775
0.023705
0.0235679
0.0234658
0.0233826
0.0232894
0.0231216
0.0228112
0.0220554
0.0205638
0.0151744
0.0249191
0.0246455
0.0243915
0.0241479
0.0239101
0.0236837
0.0234775
0.0232962
0.0231352
0.0229732
0.0227723
0.0224549
0.0219236
0.0208927
0.0190833
0.0154608
0.0247984
0.0245273
0.0242705
0.0240168
0.0237629
0.0235154
0.0232818
0.0230648
0.0228566
0.0226332
0.0223529
0.0219468
0.0213207
0.0203306
0.0187665
0.0166255
0.0246973
0.0244317
0.0241752
0.0239151
0.0236509
0.0233898
0.0231388
0.0228984
0.0226585
0.0223948
0.0220667
0.0216216
0.0209795
0.0200871
0.0187654
0.0171868
0.0246206
0.0243642
0.0241115
0.0238508
0.0235839
0.0233187
0.0230608
0.0228088
0.0225507
0.022263
0.0219085
0.0214468
0.020813
0.0199874
0.0188399
0.0175112
0.0245694
0.0243257
0.0240806
0.023825
0.0235633
0.0233025
0.0230464
0.0227916
0.0225247
0.0222231
0.0218534
0.0213825
0.0207591
0.0199731
0.0189446
0.0177608
0.0245385
0.0243116
0.0240758
0.0238289
0.0235774
0.0233273
0.0230802
0.0228308
0.0225647
0.0222595
0.0218849
0.0214105
0.0207953
0.0200284
0.0190611
0.0179419
0.0245157
0.0243105
0.0240818
0.0238408
0.0235982
0.0233597
0.0231255
0.0228887
0.0226337
0.0223376
0.0219706
0.0215023
0.0208956
0.0201343
0.0191808
0.0180653
0.0252343
0.0249486
0.0246942
0.0244684
0.0242646
0.0240873
0.023947
0.0238524
0.0238062
0.0237975
0.0238033
0.0237652
0.0236128
0.0230206
0.0214691
0.0154446
0.025087
0.0248004
0.0245396
0.0242988
0.0240716
0.0238621
0.0236787
0.023527
0.0234045
0.0232919
0.0231529
0.0229057
0.0224378
0.0214066
0.0194123
0.0151647
0.024952
0.0246673
0.0244026
0.0241488
0.0239005
0.0236626
0.0234424
0.0232431
0.0230581
0.0228639
0.0226176
0.0222435
0.0216324
0.0206061
0.0189068
0.016485
0.0248384
0.024559
0.0242935
0.0240307
0.0237674
0.0235094
0.0232638
0.0230319
0.0228042
0.0225567
0.0222466
0.0218162
0.0211738
0.020255
0.0188453
0.0171396
0.0247519
0.0244814
0.0242192
0.0239534
0.0236836
0.0234168
0.0231591
0.0229099
0.0226582
0.0223803
0.0220365
0.0215833
0.0209463
0.0201035
0.0188955
0.0174913
0.0246936
0.024436
0.0241809
0.0239187
0.0236519
0.0233872
0.0231291
0.0228751
0.0226127
0.0223186
0.0219573
0.021493
0.0208669
0.0200689
0.0189995
0.0177652
0.0246583
0.0244182
0.0241726
0.0239185
0.0236613
0.0234072
0.0231586
0.0229108
0.0226497
0.0223525
0.0219863
0.0215186
0.0209025
0.0201267
0.0191301
0.0179718
0.024633
0.0244167
0.024179
0.0239312
0.0236834
0.0234419
0.0232075
0.022974
0.0227259
0.0224394
0.0220826
0.0216225
0.021017
0.0202484
0.0192697
0.0181169
0.0254125
0.025117
0.0248591
0.0246403
0.024453
0.0243014
0.024196
0.0241468
0.0241588
0.0242237
0.0243206
0.0243885
0.0243433
0.0238088
0.0221481
0.0155477
0.0252502
0.0249531
0.0246875
0.0244509
0.0242359
0.0240454
0.0238878
0.023769
0.0236877
0.0236253
0.0235445
0.0233562
0.0229306
0.0218728
0.0197158
0.0150191
0.0251009
0.0248052
0.0245343
0.024282
0.0240413
0.0238155
0.0236118
0.0234335
0.0232745
0.023111
0.0228976
0.022551
0.0219477
0.020879
0.019056
0.0164021
0.0249748
0.0246838
0.0244114
0.0241476
0.0238874
0.0236353
0.0233982
0.0231777
0.0229648
0.022735
0.0224428
0.0220252
0.0213797
0.0204311
0.0189381
0.0171152
0.0248783
0.0245961
0.0243263
0.0240574
0.0237872
0.0235215
0.0232667
0.0230229
0.0227794
0.0225123
0.0221794
0.021734
0.0210926
0.0202312
0.0189667
0.0174917
0.0248129
0.0245437
0.0242807
0.024014
0.0237443
0.0234782
0.0232204
0.0229693
0.0227126
0.0224268
0.0220739
0.021616
0.020987
0.0201768
0.0190691
0.0177869
0.0247732
0.0245222
0.0242687
0.0240095
0.023749
0.0234931
0.0232448
0.0230001
0.0227451
0.0224563
0.0220987
0.0216377
0.0210206
0.0202359
0.0192117
0.0180159
0.0247457
0.0245202
0.0242756
0.0240231
0.0237724
0.0235299
0.0232972
0.0230683
0.0228279
0.0225514
0.0222049
0.0217528
0.0211484
0.0203725
0.0193698
0.0181815
0.0255772
0.0252741
0.0250142
0.0248027
0.0246318
0.024505
0.0244336
0.0244282
0.0244948
0.0246256
0.0247987
0.0249457
0.0249655
0.0244351
0.022638
0.0155495
0.0254009
0.0250956
0.0248267
0.024595
0.0243922
0.0242206
0.0240887
0.0240025
0.0239608
0.0239443
0.0239133
0.0237694
0.0233668
0.0222685
0.0199631
0.0149213
0.0252382
0.0249336
0.0246583
0.0244084
0.0241758
0.0239628
0.0237764
0.0236197
0.0234865
0.0233519
0.0231675
0.0228419
0.022239
0.0211262
0.0191927
0.0163532
0.0251002
0.0248
0.0245222
0.0242586
0.0240026
0.0237577
0.0235305
0.0233227
0.0231252
0.0229126
0.0226366
0.0222289
0.0215776
0.0205985
0.019031
0.0171076
0.0249942
0.0247026
0.0244268
0.0241564
0.0238871
0.0236243
0.023374
0.023137
0.0229026
0.0226463
0.0223236
0.0218845
0.021238
0.0203578
0.0190429
0.0175055
0.024922
0.0246434
0.0243742
0.0241047
0.023834
0.0235681
0.0233122
0.0230652
0.0228149
0.0225375
0.0221927
0.0217404
0.0211085
0.0202862
0.0191444
0.0178192
0.0248782
0.0246183
0.0243589
0.0240963
0.023834
0.0235779
0.0233313
0.0230907
0.0228422
0.0225617
0.0222124
0.0217575
0.0211395
0.0203463
0.0192971
0.0180672
0.0248487
0.0246158
0.0243661
0.0241106
0.0238586
0.0236166
0.0233867
0.0231632
0.0229309
0.0226642
0.0223274
0.0218827
0.0212791
0.0204961
0.0194715
0.0182508
0.0257201
0.0254114
0.0251506
0.024946
0.0247897
0.0246851
0.0246438
0.0246767
0.0247901
0.0249753
0.0252075
0.0254098
0.0254653
0.0249135
0.0229866
0.0155083
0.0255316
0.0252201
0.0249491
0.0247222
0.0245305
0.0243761
0.0242673
0.0242101
0.0242029
0.024225
0.0242332
0.0241204
0.0237267
0.0225831
0.0201508
0.0148441
0.025357
0.0250457
0.0247673
0.0245201
0.0242951
0.0240941
0.0239237
0.0237868
0.0236768
0.0235671
0.023406
0.0230949
0.0224872
0.0213323
0.0193062
0.0163235
0.0252086
0.0249012
0.0246195
0.0243568
0.0241052
0.0238675
0.02365
0.0234543
0.0232712
0.0230738
0.0228112
0.0224104
0.0217517
0.0207443
0.0191139
0.0171097
0.0250943
0.0247952
0.0245151
0.024244
0.0239765
0.0237171
0.0234719
0.0232419
0.0230162
0.0227698
0.0224558
0.0220215
0.0213695
0.0204719
0.0191146
0.0175253
0.0250161
0.0247301
0.0244563
0.0241851
0.0239143
0.0236497
0.0233965
0.0231539
0.0229099
0.0226402
0.0223026
0.0218551
0.0212201
0.0203869
0.0192164
0.0178546
0.0249687
0.0247018
0.0244379
0.0241733
0.0239103
0.023655
0.0234107
0.0231743
0.0229321
0.0226594
0.0223175
0.0218679
0.0212489
0.020448
0.0193776
0.0181185
0.0249375
0.0246988
0.0244454
0.0241881
0.023936
0.0236953
0.0234686
0.0232506
0.0230258
0.022768
0.0224398
0.0220015
0.0213984
0.020609
0.0195655
0.0183171
0.0258343
0.0255216
0.0252604
0.0250618
0.0249175
0.0248307
0.0248135
0.024877
0.0250271
0.0252536
0.0255285
0.0257672
0.0258404
0.0252605
0.0232291
0.0154647
0.0256358
0.0253199
0.0250477
0.024825
0.0246426
0.0245022
0.0244121
0.0243783
0.0243986
0.0244504
0.0244873
0.0243946
0.024002
0.022817
0.0202862
0.0147882
0.0254518
0.0251356
0.0248552
0.0246105
0.024392
0.0242009
0.0240438
0.0239233
0.023832
0.0237418
0.0235981
0.0232961
0.0226815
0.0214909
0.0193934
0.0163075
0.0252949
0.0249823
0.0246979
0.0244363
0.0241887
0.0239573
0.0237482
0.0235629
0.0233916
0.0232065
0.0229541
0.0225577
0.0218915
0.0208604
0.0191817
0.0171175
0.0251739
0.0248694
0.0245862
0.024315
0.0240494
0.0237934
0.023553
0.0233291
0.0231109
0.0228726
0.0225655
0.0221345
0.0214775
0.0205655
0.0191754
0.0175463
0.0250909
0.0247995
0.0245224
0.0242503
0.0239801
0.023717
0.0234665
0.023228
0.0229896
0.0227263
0.0223946
0.0219506
0.0213131
0.0204709
0.019278
0.0178876
0.0250406
0.0247685
0.0245016
0.0242357
0.0239728
0.0237186
0.0234767
0.0232443
0.0230075
0.0227411
0.0224053
0.0219599
0.02134
0.0205328
0.0194458
0.0181636
0.025008
0.0247651
0.0245092
0.024251
0.0239992
0.0237602
0.0235365
0.0233233
0.0231049
0.0228545
0.0225334
0.0221
0.0214972
0.0207023
0.019644
0.0183735
0.0259136
0.0255987
0.0253376
0.0251434
0.0250078
0.0249338
0.0249337
0.0250188
0.0251945
0.0254495
0.0257531
0.0260148
0.0260971
0.0254951
0.0233932
0.015446
0.0257083
0.0253898
0.0251171
0.0248976
0.024722
0.0245917
0.0245151
0.024498
0.0245378
0.0246106
0.0246671
0.0245873
0.0241937
0.0229782
0.0203797
0.0147581
0.0255177
0.0251985
0.024917
0.0246744
0.0244608
0.0242771
0.0241297
0.0240212
0.0239436
0.0238675
0.023736
0.0234399
0.0228195
0.0216026
0.0194563
0.0163045
0.0253549
0.0250391
0.0247532
0.0244927
0.0242482
0.0240217
0.0238191
0.0236417
0.0234794
0.0233034
0.0230585
0.022665
0.0219933
0.0209453
0.0192342
0.0171314
0.0252291
0.0249213
0.0246363
0.0243655
0.0241018
0.0238486
0.0236122
0.0233933
0.0231811
0.022949
0.0226471
0.0222185
0.021558
0.0206358
0.019224
0.0175681
0.0251428
0.0248481
0.0245692
0.0242968
0.0240275
0.0237662
0.0235182
0.0232832
0.0230491
0.0227908
0.0224635
0.0220222
0.021383
0.0205344
0.0193264
0.0179162
0.0250905
0.0248153
0.0245466
0.0242803
0.0240179
0.023765
0.0235253
0.0232961
0.0230635
0.0228019
0.0224705
0.0220281
0.0214077
0.0205959
0.0194975
0.0181991
0.025057
0.0248115
0.0245541
0.0242956
0.0240444
0.0238068
0.0235857
0.0233762
0.0231624
0.0229174
0.0226012
0.0221713
0.0215686
0.0207698
0.0197013
0.0184154
0.0259534
0.0256373
0.0253757