/*--------------------------------*- C++ -*----------------------------------*\
| =========                 |                                                 |
| \\      /  F ield         | foam-extend: Open Source CFD                    |
|  \\    /   O peration     | Version:     3.1                                |
|   \\  /    A nd           | Web:         http://www.extend-project.de       |
|    \\/     M anipulation  |                                                 |
\*---------------------------------------------------------------------------*/
FoamFile
{
    version     2.0;
    format      ascii;
    class       pointVectorField;
    location    "2.9";
    object      pointMotionU;
}
// * * * * * * * * * * * * * * * * * * * * * * * * * * * * * * * * * * * * * //

dimensions      [0 1 -1 0 0 0 0];

internalField   nonuniform List<vector> 
16859
(
(0 0 0)
(0 0 0)
(0 0 0)
(0 0 0)
(0 0 0)
(0 0 0)
(0 0 0)
(0 0 0)
(0 0 0)
(0 0 0)
(0 0 0)
(0 0 0)
(0 0 0)
(0 0 0)
(0 0 0)
(0 0 0)
(0 0 0)
(0 0 0)
(8.84162e-11 2.05504e-11 -8.50372e-12)
(1.71057e-10 4.029e-11 -1.71531e-11)
(2.48032e-10 5.96954e-11 -2.66328e-11)
(3.22094e-10 7.98104e-11 -3.7941e-11)
(3.95782e-10 1.01631e-10 -5.22527e-11)
(4.71513e-10 1.26175e-10 -7.10937e-11)
(5.51587e-10 1.5455e-10 -9.65723e-11)
(6.38006e-10 1.87925e-10 -1.31705e-10)
(7.32056e-10 2.27512e-10 -1.80898e-10)
(8.33428e-10 2.74361e-10 -2.50578e-10)
(9.38779e-10 3.28897e-10 -3.49877e-10)
(1.04003e-09 3.90116e-10 -4.90757e-10)
(1.12366e-09 4.54218e-10 -6.85649e-10)
(1.17375e-09 5.12888e-10 -9.37922e-10)
(1.16928e-09 5.50462e-10 -1.22088e-09)
(1.19398e-09 5.60451e-10 -1.37246e-09)
(0 0 0)
(1.74461e-10 4.02546e-11 -1.64768e-11)
(3.37352e-10 7.89081e-11 -3.31858e-11)
(4.8875e-10 1.16893e-10 -5.13953e-11)
(6.33913e-10 1.56241e-10 -7.29493e-11)
(7.77614e-10 1.9888e-10 -9.9972e-11)
(9.24312e-10 2.46819e-10 -1.35157e-10)
(1.07807e-09 3.02195e-10 -1.82124e-10)
(1.24216e-09 3.67329e-10 -2.45917e-10)
(1.41807e-09 4.4467e-10 -3.33697e-10)
(1.60331e-09 5.36407e-10 -4.55635e-10)
(1.78744e-09 6.4363e-10 -6.25804e-10)
(1.94544e-09 7.64504e-10 -8.62102e-10)
(2.02886e-09 8.91017e-10 -1.18211e-09)
(1.96025e-09 1.0044e-09 -1.58771e-09)
(1.65106e-09 1.07498e-09 -2.03914e-09)
(-1.5352e-09 6.74957e-10 -2.07552e-09)
(0 0 0)
(2.56155e-10 5.83574e-11 -2.34879e-11)
(4.94935e-10 1.14372e-10 -4.71931e-11)
(7.16115e-10 1.69384e-10 -7.27911e-11)
(9.27027e-10 2.26298e-10 -1.0271e-10)
(1.13418e-09 2.87891e-10 -1.39644e-10)
(1.34341e-09 3.57054e-10 -1.86856e-10)
(1.55972e-09 4.36859e-10 -2.48502e-10)
(1.78653e-09 5.30722e-10 -3.30034e-10)
(2.02406e-09 6.42369e-10 -4.38692e-10)
(2.26566e-09 7.75429e-10 -5.8403e-10)
(2.49105e-09 9.32508e-10 -7.78276e-10)
(2.65406e-09 1.11306e-09 -1.03565e-09)
(2.66452e-09 1.30969e-09 -1.36796e-09)
(2.37511e-09 1.50362e-09 -1.7707e-09)
(1.6369e-09 1.66753e-09 -2.21227e-09)
(-4.46324e-09 1.92637e-09 -1.3871e-09)
(0 0 0)
(3.31842e-10 7.41862e-11 -2.92366e-11)
(6.40554e-10 1.45361e-10 -5.85584e-11)
(9.25282e-10 2.15191e-10 -8.98368e-11)
(1.19491e-09 2.87322e-10 -1.25779e-10)
(1.45708e-09 3.65272e-10 -1.69225e-10)
(1.7183e-09 4.52615e-10 -2.23351e-10)
(1.98358e-09 5.5324e-10 -2.91816e-10)
(2.25548e-09 6.71534e-10 -3.78813e-10)
(2.53177e-09 8.12449e-10 -4.88921e-10)
(2.80083e-09 9.81365e-10 -6.26642e-10)
(3.03305e-09 1.18336e-09 -7.9537e-10)
(3.16599e-09 1.42163e-09 -9.95562e-10)
(3.08355e-09 1.69466e-09 -1.22189e-09)
(2.60616e-09 1.99271e-09 -1.46032e-09)
(1.57824e-09 2.29691e-09 -1.71519e-09)
(-6.32086e-09 3.27441e-09 -1.44582e-10)
(0 0 0)
(4.00327e-10 8.71661e-11 -3.35796e-11)
(7.71919e-10 1.70748e-10 -6.70083e-11)
(1.11299e-09 2.52654e-10 -1.0215e-10)
(1.43344e-09 3.37126e-10 -1.41713e-10)
(1.7415e-09 4.28212e-10 -1.88311e-10)
(2.04369e-09 5.30018e-10 -2.44516e-10)
(2.3444e-09 6.46994e-10 -3.12723e-10)
(2.64458e-09 7.84249e-10 -3.9469e-10)
(2.93908e-09 9.4777e-10 -4.90529e-10)
(3.2115e-09 1.14455e-09 -5.96791e-10)
(3.42497e-09 1.38237e-09 -7.03273e-10)
(3.50709e-09 1.66871e-09 -7.8875e-10)
(3.33119e-09 2.0082e-09 -8.18511e-10)
(2.71645e-09 2.39684e-09 -7.56092e-10)
(1.54337e-09 2.81083e-09 -6.47719e-10)
(-6.9591e-09 4.41603e-09 1.77282e-09)
(0 0 0)
(4.60881e-10 9.68396e-11 -3.65254e-11)
(8.87707e-10 1.89649e-10 -7.25931e-11)
(1.27751e-09 2.8048e-10 -1.09901e-10)
(1.6408e-09 3.74002e-10 -1.50951e-10)
(1.98593e-09 4.74578e-10 -1.97898e-10)
(2.31909e-09 5.86604e-10 -2.52441e-10)
(2.64369e-09 7.14815e-10 -3.15402e-10)
(2.95902e-09 8.64648e-10 -3.85801e-10)
(3.25738e-09 1.04265e-09 -4.59041e-10)
(3.51886e-09 1.25681e-09 -5.23612e-10)
(3.70192e-09 1.51672e-09 -5.5555e-10)
(3.72809e-09 1.83298e-09 -5.10365e-10)
(3.46228e-09 2.21453e-09 -3.15966e-10)
(2.71368e-09 2.65865e-09 1.12173e-10)
(1.37994e-09 3.1226e-09 7.32953e-10)
(-7.63856e-09 4.90971e-09 4.89715e-09)
(0 0 0)
(5.13207e-10 1.02894e-10 -3.82061e-11)
(9.87466e-10 2.01452e-10 -7.56191e-11)
(1.41852e-09 2.97793e-10 -1.13675e-10)
(1.81713e-09 3.96795e-10 -1.54557e-10)
(2.19157e-09 5.02949e-10 -1.99887e-10)
(2.54759e-09 6.20678e-10 -2.50488e-10)
(2.88779e-09 7.54666e-10 -3.05789e-10)
(3.21037e-09 9.10222e-10 -3.62631e-10)
(3.50652e-09 1.09371e-09 -4.13065e-10)
(3.7557e-09 1.31296e-09 -4.40451e-10)
(3.91716e-09 1.57747e-09 -4.12847e-10)
(3.91534e-09 1.89821e-09 -2.7264e-10)
(3.61805e-09 2.28554e-09 7.64434e-11)
(2.82477e-09 2.73965e-09 7.67188e-10)
(1.40404e-09 3.20951e-09 1.8311e-09)
(-9.87243e-09 4.99594e-09 8.87289e-09)
(0 0 0)
(5.57285e-10 1.0514e-10 -3.88306e-11)
(1.0713e-09 2.05803e-10 -7.65476e-11)
(1.53651e-09 3.04101e-10 -1.14292e-10)
(1.96372e-09 4.0491e-10 -1.53899e-10)
(2.36107e-09 5.12655e-10 -1.96511e-10)
(2.73402e-09 6.31563e-10 -2.42281e-10)
(3.08487e-09 7.65924e-10 -2.89734e-10)
(3.41181e-09 9.20451e-10 -3.34608e-10)
(3.70704e-09 1.10053e-09 -3.67824e-10)
(3.95351e-09 1.31231e-09 -3.72153e-10)
(4.1196e-09 1.56253e-09 -3.17088e-10)
(4.15091e-09 1.85715e-09 -1.51887e-10)
(3.96129e-09 2.19691e-09 2.00266e-10)
(3.44186e-09 2.56339e-09 8.29936e-10)
(2.58949e-09 2.87204e-09 1.73406e-09)
(-6.90343e-09 4.80925e-09 1.02649e-08)
(0 0 0)
(0 0 0)
(0 0 0)
(0 0 0)
(0 0 0)
(0 0 0)
(0 0 0)
(0 0 0)
(0 0 0)
(0 0 0)
(0 0 0)
(0 0 0)
(0 0 0)
(0 0 0)
(0 0 0)
(0 0 0)
(0 0 0)
(0 0 0)
(9.09763e-11 2.06888e-11 -8.68078e-12)
(1.76326e-10 4.05245e-11 -1.75598e-11)
(2.56521e-10 5.99641e-11 -2.73948e-11)
(3.34847e-10 8.00299e-11 -3.92845e-11)
(4.14566e-10 1.01688e-10 -5.45495e-11)
(4.9914e-10 1.25913e-10 -7.4931e-11)
(5.92437e-10 1.53743e-10 -1.02857e-10)
(6.98854e-10 1.86288e-10 -1.41808e-10)
(8.23307e-10 2.24702e-10 -1.96837e-10)
(9.70919e-10 2.70038e-10 -2.75218e-10)
(1.1463e-09 3.22936e-10 -3.87062e-10)
(1.35265e-09 3.83219e-10 -5.45155e-10)
(1.59196e-09 4.497e-10 -7.61663e-10)
(1.86726e-09 5.20999e-10 -1.03531e-09)
(2.16141e-09 5.93069e-10 -1.31104e-09)
(3.83003e-09 1.17638e-09 -1.92702e-09)
(0 0 0)
(1.79319e-10 4.05414e-11 -1.68221e-11)
(3.47334e-10 7.94003e-11 -3.39786e-11)
(5.04789e-10 1.17468e-10 -5.28791e-11)
(6.57938e-10 1.56744e-10 -7.55638e-11)
(8.1289e-10 1.99103e-10 -1.04438e-10)
(9.76023e-10 2.4645e-10 -1.42608e-10)
(1.1543e-09 3.008e-10 -1.94308e-10)
(1.35544e-09 3.64324e-10 -2.65461e-10)
(1.58764e-09 4.39292e-10 -3.64436e-10)
(1.8585e-09 5.2771e-10 -5.02922e-10)
(2.17213e-09 6.30483e-10 -6.96585e-10)
(2.52326e-09 7.45634e-10 -9.64136e-10)
(2.88689e-09 8.65078e-10 -1.32079e-09)
(3.2052e-09 9.69947e-10 -1.75591e-09)
(3.38459e-09 1.02892e-09 -2.17398e-09)
(3.46356e-09 7.30645e-10 -3.11583e-09)
(0 0 0)
(2.62834e-10 5.88095e-11 -2.39851e-11)
(5.08615e-10 1.15159e-10 -4.83336e-11)
(7.38e-10 1.70333e-10 -7.4923e-11)
(9.59641e-10 2.27205e-10 -1.06462e-10)
(1.1818e-09 2.88472e-10 -1.46045e-10)
(1.41283e-09 3.56878e-10 -1.97518e-10)
(1.66151e-09 4.35314e-10 -2.65895e-10)
(1.93713e-09 5.26959e-10 -3.57854e-10)
(2.24879e-09 6.35198e-10 -4.82276e-10)
(2.60336e-09 7.63155e-10 -6.50689e-10)
(3.00025e-09 9.12504e-10 -8.7712e-10)
(3.41992e-09 1.08062e-09 -1.17581e-09)
(3.80245e-09 1.25528e-09 -1.55263e-09)
(4.02078e-09 1.40697e-09 -1.98074e-09)
(3.92043e-09 1.48855e-09 -2.35139e-09)
(2.87935e-09 1.27728e-09 -3.00071e-09)
(0 0 0)
(3.3971e-10 7.48152e-11 -2.98624e-11)
(6.56601e-10 1.46475e-10 -5.9993e-11)
(9.50792e-10 2.16593e-10 -9.2516e-11)
(1.23264e-09 2.8878e-10 -1.30489e-10)
(1.51171e-09 3.66449e-10 -1.77243e-10)
(1.79726e-09 4.53025e-10 -2.36678e-10)
(2.09846e-09 5.52175e-10 -3.13507e-10)
(2.42425e-09 6.67991e-10 -4.13407e-10)
(2.78233e-09 8.05004e-10 -5.4293e-10)
(3.17643e-09 9.67861e-10 -7.08871e-10)
(3.60014e-09 1.16019e-09 -9.16494e-10)
(4.02417e-09 1.38179e-09 -1.16546e-09)
(4.37409e-09 1.62304e-09 -1.44137e-09)
(4.50717e-09 1.85683e-09 -1.70036e-09)
(4.27746e-09 2.03159e-09 -1.86018e-09)
(3.01832e-09 2.04654e-09 -2.12009e-09)
(0 0 0)
(4.08689e-10 8.79833e-11 -3.43066e-11)
(7.88874e-10 1.72227e-10 -6.86737e-11)
(1.13971e-09 2.54589e-10 -1.05257e-10)
(1.47254e-09 3.39278e-10 -1.47164e-10)
(1.79744e-09 4.30245e-10 -1.97572e-10)
(2.12358e-09 5.31451e-10 -2.59874e-10)
(2.45927e-09 6.47159e-10 -3.37655e-10)
(2.81157e-09 7.82218e-10 -4.34356e-10)
(3.18489e-09 9.4225e-10 -5.52308e-10)
(3.57797e-09 1.13364e-09 -6.90641e-10)
(3.97772e-09 1.36284e-09 -8.4124e-10)
(4.34807e-09 1.63405e-09 -9.81932e-10)
(4.6138e-09 1.94319e-09 -1.06775e-09)
(4.65293e-09 2.26504e-09 -1.02997e-09)
(4.3813e-09 2.52991e-09 -8.3553e-10)
(3.72753e-09 2.59883e-09 -5.23101e-10)
(0 0 0)
(4.69063e-10 9.7855e-11 -3.73241e-11)
(9.04167e-10 1.91519e-10 -7.44204e-11)
(1.30315e-09 2.83012e-10 -1.13304e-10)
(1.67777e-09 3.76971e-10 -1.5691e-10)
(2.03796e-09 4.77699e-10 -2.07995e-10)
(2.39212e-09 5.89502e-10 -2.69139e-10)
(2.74696e-09 7.17006e-10 -3.42441e-10)
(3.1068e-09 8.65543e-10 -4.2872e-10)
(3.47189e-09 1.04155e-09 -5.25779e-10)
(3.83505e-09 1.25291e-09 -6.24965e-10)
(4.17516e-09 1.50902e-09 -7.04852e-10)
(4.44574e-09 1.81947e-09 -7.20719e-10)
(4.55884e-09 2.18874e-09 -5.91277e-10)
(4.3809e-09 2.5987e-09 -2.02158e-10)
(3.85434e-09 2.96098e-09 4.60876e-10)
(3.45278e-09 2.70714e-09 1.94182e-09)
(0 0 0)
(5.20627e-10 1.04099e-10 -3.90451e-11)
(1.00223e-09 2.03709e-10 -7.75367e-11)
(1.44115e-09 3.00933e-10 -1.17241e-10)
(1.84909e-09 4.00649e-10 -1.60783e-10)
(2.23553e-09 5.0733e-10 -2.10405e-10)
(2.60781e-09 6.25389e-10 -2.67826e-10)
(2.97091e-09 7.59547e-10 -3.33775e-10)
(3.32657e-09 9.15228e-10 -4.06934e-10)
(3.67162e-09 1.09909e-09 -4.81832e-10)
(3.99447e-09 1.31969e-09 -5.44896e-10)
(4.26867e-09 1.58812e-09 -5.67288e-10)
(4.4405e-09 1.91837e-09 -4.92575e-10)
(4.40744e-09 2.3259e-09 -2.18433e-10)
(3.99707e-09 2.81739e-09 4.11576e-10)
(3.09497e-09 3.33412e-09 1.45699e-09)
(-1.73902e-10 3.71244e-09 4.64923e-09)
(0 0 0)
(5.63499e-10 1.06508e-10 -3.96799e-11)
(1.08348e-09 2.08402e-10 -7.84866e-11)
(1.55473e-09 3.07799e-10 -1.17889e-10)
(1.9887e-09 4.09624e-10 -1.60162e-10)
(2.39427e-09 5.18328e-10 -2.07053e-10)
(2.77785e-09 6.38227e-10 -2.59587e-10)
(3.14313e-09 7.73812e-10 -3.17552e-10)
(3.49039e-09 9.30148e-10 -3.78467e-10)
(3.8151e-09 1.11334e-09 -4.35677e-10)
(4.1055e-09 1.33105e-09 -4.75053e-10)
(4.33839e-09 1.59313e-09 -4.69594e-10)
(4.47204e-09 1.91168e-09 -3.71422e-10)
(4.43642e-09 2.29904e-09 -1.03197e-10)
(4.13509e-09 2.75665e-09 4.33619e-10)
(3.56954e-09 3.22453e-09 1.23352e-09)
(1.03501e-09 5.12338e-09 4.94837e-09)
(0 0 0)
(0 0 0)
(0 0 0)
(0 0 0)
(0 0 0)
(0 0 0)
(0 0 0)
(0 0 0)
(0 0 0)
(0 0 0)
(0 0 0)
(0 0 0)
(0 0 0)
(0 0 0)
(0 0 0)
(0 0 0)
(0 0 0)
(0 0 0)
(9.3436e-11 2.06788e-11 -8.51436e-12)
(1.81425e-10 4.04493e-11 -1.72749e-11)
(2.64815e-10 5.97188e-11 -2.70858e-11)
(3.47451e-10 7.94508e-11 -3.91114e-11)
(4.33364e-10 1.00532e-10 -5.47815e-11)
(5.27166e-10 1.23826e-10 -7.60171e-11)
(6.345e-10 1.50225e-10 -1.05532e-10)
(7.62562e-10 1.80678e-10 -1.47249e-10)
(9.20675e-10 2.16187e-10 -2.06879e-10)
(1.12088e-09 2.57777e-10 -2.92634e-10)
(1.37855e-09 3.06484e-10 -4.15942e-10)
(1.71318e-09 3.63647e-10 -5.91467e-10)
(2.15012e-09 4.32391e-10 -8.3442e-10)
(2.71847e-09 5.21213e-10 -1.14897e-09)
(3.3854e-09 6.38085e-10 -1.48491e-09)
(6.48764e-09 1.60453e-09 -2.36156e-09)
(0 0 0)
(1.83978e-10 4.05392e-11 -1.65022e-11)
(3.56974e-10 7.92884e-11 -3.34341e-11)
(5.20432e-10 1.17043e-10 -5.22987e-11)
(6.81635e-10 1.55689e-10 -7.52676e-11)
(8.48121e-10 1.96951e-10 -1.04966e-10)
(1.02838e-09 2.42504e-10 -1.44864e-10)
(1.23268e-09 2.94071e-10 -1.99773e-10)
(1.47393e-09 3.53465e-10 -2.76522e-10)
(1.76861e-09 4.2255e-10 -3.84835e-10)
(2.13745e-09 5.03013e-10 -5.38368e-10)
(2.60519e-09 5.958e-10 -7.55537e-10)
(3.19801e-09 6.99977e-10 -1.05893e-09)
(3.93567e-09 8.10892e-10 -1.46977e-09)
(4.80925e-09 9.17679e-10 -1.98784e-09)
(5.69405e-09 9.99618e-10 -2.52607e-09)
(7.81539e-09 8.5079e-10 -3.84087e-09)
(0 0 0)
(2.69211e-10 5.8846e-11 -2.35344e-11)
(5.21773e-10 1.15077e-10 -4.75737e-11)
(7.59256e-10 1.69842e-10 -7.41351e-11)
(9.91677e-10 2.25863e-10 -1.06126e-10)
(1.22916e-09 2.85618e-10 -1.46972e-10)
(1.48284e-09 3.51512e-10 -2.01064e-10)
(1.76581e-09 4.25998e-10 -2.74302e-10)
(2.09424e-09 5.11665e-10 -3.74759e-10)
(2.48836e-09 6.11146e-10 -5.13451e-10)
(2.97309e-09 7.26687e-10 -7.05078e-10)
(3.57697e-09 8.58974e-10 -9.68231e-10)
(4.32655e-09 1.00438e-09 -1.32368e-09)
(5.23029e-09 1.14981e-09 -1.78727e-09)
(6.24099e-09 1.26592e-09 -2.34864e-09)
(7.17085e-09 1.31136e-09 -2.91052e-09)
(9.16197e-09 1.10894e-09 -4.17853e-09)
(0 0 0)
(3.47172e-10 7.49251e-11 -2.9309e-11)
(6.71932e-10 1.46503e-10 -5.90713e-11)
(9.75404e-10 2.16183e-10 -9.15955e-11)
(1.26945e-09 2.87403e-10 -1.30203e-10)
(1.56568e-09 3.63288e-10 -1.78662e-10)
(1.87636e-09 4.46859e-10 -2.41597e-10)
(2.2154e-09 5.41206e-10 -3.24909e-10)
(2.59934e-09 6.4963e-10 -4.3618e-10)
(3.04838e-09 7.75573e-10 -5.84959e-10)
(3.58721e-09 9.22185e-10 -7.82653e-10)
(4.24473e-09 1.09096e-09 -1.04152e-09)
(5.05086e-09 1.27838e-09 -1.37177e-09)
(6.026e-09 1.46952e-09 -1.77531e-09)
(7.15075e-09 1.63008e-09 -2.23315e-09)
(8.2635e-09 1.71197e-09 -2.67269e-09)
(1.12057e-08 1.61691e-09 -3.73034e-09)
(0 0 0)
(4.16541e-10 8.82034e-11 -3.36799e-11)
(8.04912e-10 1.7245e-10 -6.76439e-11)
(1.16523e-09 2.54423e-10 -1.04273e-10)
(1.5103e-09 3.3814e-10 -1.46997e-10)
(1.85213e-09 4.27241e-10 -1.99522e-10)
(2.20276e-09 5.25235e-10 -2.66127e-10)
(2.57497e-09 6.35752e-10 -3.5186e-10)
(2.98306e-09 7.6273e-10 -4.62546e-10)
(3.44362e-09 9.10504e-10 -6.04371e-10)
(3.97636e-09 1.08359e-09 -7.82653e-10)
(4.60528e-09 1.28558e-09 -9.99238e-10)
(5.36043e-09 1.51586e-09 -1.24817e-09)
(6.28132e-09 1.76183e-09 -1.51119e-09)
(7.413e-09 1.98503e-09 -1.75958e-09)
(8.69594e-09 2.11498e-09 -1.96843e-09)
(1.33595e-08 2.05415e-09 -2.67417e-09)
(0 0 0)
(4.76636e-10 9.82167e-11 -3.66498e-11)
(9.19508e-10 1.92014e-10 -7.33273e-11)
(1.32727e-09 2.83242e-10 -1.12307e-10)
(1.71291e-09 3.76346e-10 -1.56888e-10)
(2.088e-09 4.75328e-10 -2.10431e-10)
(2.46329e-09 5.84054e-10 -2.76518e-10)
(2.84914e-09 7.0654e-10 -3.58918e-10)
(3.25584e-09 8.47248e-10 -4.61204e-10)
(3.69379e-09 1.01138e-09 -5.85712e-10)
(4.17374e-09 1.20506e-09 -7.31329e-10)
(4.70741e-09 1.43502e-09 -8.89412e-10)
(5.3099e-09 1.70646e-09 -1.03769e-09)
(6.00728e-09 2.01559e-09 -1.13533e-09)
(6.84925e-09 2.32972e-09 -1.13475e-09)
(7.85028e-09 2.55459e-09 -1.04832e-09)
(1.33295e-08 2.24317e-09 -1.17846e-09)
(0 0 0)
(5.27342e-10 1.04619e-10 -3.83424e-11)
(1.01568e-09 2.04525e-10 -7.64097e-11)
(1.46193e-09 3.01673e-10 -1.1625e-10)
(1.87873e-09 4.00767e-10 -1.60881e-10)
(2.2767e-09 5.06015e-10 -2.13183e-10)
(2.66484e-09 6.21468e-10 -2.75944e-10)
(3.05064e-09 7.51349e-10 -3.51658e-10)
(3.43997e-09 9.00406e-10 -4.41924e-10)
(3.83673e-09 1.07441e-09 -5.4611e-10)
(4.2421e-09 1.2808e-09 -6.58787e-10)
(4.65362e-09 1.52939e-09 -7.65288e-10)
(5.06396e-09 1.83265e-09 -8.35123e-10)
(5.46037e-09 2.20345e-09 -8.16073e-10)
(5.8268e-09 2.64289e-09 -6.44943e-10)
(6.14772e-09 3.08807e-09 -3.35307e-10)
(7.34816e-09 3.72795e-09 2.68605e-10)
(0 0 0)
(5.68928e-10 1.07185e-10 -3.89609e-11)
(1.09418e-09 2.09551e-10 -7.73399e-11)
(1.57084e-09 3.09096e-10 -1.16897e-10)
(2.01091e-09 4.10614e-10 -1.60307e-10)
(2.42391e-09 5.18354e-10 -2.09958e-10)
(2.81717e-09 6.36379e-10 -2.67935e-10)
(3.19571e-09 7.68872e-10 -3.35762e-10)
(3.56203e-09 9.20516e-10 -4.13792e-10)
(3.91551e-09 1.09704e-09 -5.00007e-10)
(4.25173e-09 1.30603e-09 -5.8796e-10)
(4.56173e-09 1.55802e-09 -6.63697e-10)
(4.83168e-09 1.86779e-09 -7.02341e-10)
(5.0451e-09 2.25435e-09 -6.68491e-10)
(5.19497e-09 2.73347e-09 -5.35841e-10)
(5.33708e-09 3.27789e-09 -3.71843e-10)
(5.32861e-09 6.18173e-09 8.13697e-11)
(0 0 0)
(0 0 0)
(0 0 0)
(0 0 0)
(0 0 0)
(0 0 0)
(0 0 0)
(0 0 0)
(0 0 0)
(0 0 0)
(0 0 0)
(0 0 0)
(0 0 0)
(0 0 0)
(0 0 0)
(0 0 0)
(0 0 0)
(0 0 0)
(9.57004e-11 2.05456e-11 -7.9646e-12)
(1.86137e-10 4.01179e-11 -1.62071e-11)
(2.72519e-10 5.90505e-11 -2.55365e-11)
(3.59219e-10 7.82176e-11 -3.71244e-11)
(4.50999e-10 9.83856e-11 -5.244e-11)
(5.53561e-10 1.20257e-10 -7.34936e-11)
(6.74224e-10 1.44517e-10 -1.03165e-10)
(8.22783e-10 1.71871e-10 -1.45659e-10)
(1.01258e-09 2.03103e-10 -2.07123e-10)
(1.26173e-09 2.39184e-10 -2.96415e-10)
(1.59436e-09 2.81594e-10 -4.25834e-10)
(2.04146e-09 3.33281e-10 -6.11153e-10)
(2.63996e-09 4.01248e-10 -8.68848e-10)
(3.4199e-09 5.00876e-10 -1.20387e-09)
(4.30526e-09 6.44697e-10 -1.56263e-09)
(7.72834e-09 1.7807e-09 -2.48303e-09)
(0 0 0)
(1.88255e-10 4.02943e-11 -1.54388e-11)
(3.6586e-10 7.86718e-11 -3.13733e-11)
(5.34924e-10 1.15787e-10 -4.93218e-11)
(7.03703e-10 1.53349e-10 -7.14788e-11)
(8.81081e-10 1.92845e-10 -1.00562e-10)
(1.07756e-09 2.35632e-10 -1.4024e-10)
(1.30649e-09 2.83e-10 -1.95703e-10)
(1.5856e-09 3.36242e-10 -2.74423e-10)
(1.93894e-09 3.9667e-10 -3.87161e-10)
(2.39884e-09 4.65599e-10 -5.49145e-10)
(3.00716e-09 5.44273e-10 -7.81034e-10)
(3.813e-09 6.33673e-10 -1.10834e-09)
(4.8597e-09 7.3417e-10 -1.55546e-09)
(6.13924e-09 8.43802e-10 -2.12322e-09)
(7.43679e-09 9.47977e-10 -2.71392e-09)
(9.87536e-09 8.68053e-10 -4.02541e-09)
(0 0 0)
(2.75042e-10 5.85288e-11 -2.20226e-11)
(5.3385e-10 1.14261e-10 -4.46545e-11)
(7.78864e-10 1.68144e-10 -6.99475e-11)
(1.02137e-09 2.22648e-10 -1.00861e-10)
(1.27326e-09 2.7991e-10 -1.40985e-10)
(1.54824e-09 3.41855e-10 -1.95059e-10)
(1.86346e-09 4.1028e-10 -2.69634e-10)
(2.24143e-09 4.86922e-10 -3.73919e-10)
(2.71248e-09 5.73391e-10 -5.20821e-10)
(3.31754e-09 6.70918e-10 -7.28046e-10)
(4.10969e-09 7.79636e-10 -1.01871e-09)
(5.15031e-09 8.96856e-10 -1.41984e-09)
(6.48731e-09 1.01375e-09 -1.95437e-09)
(8.08373e-09 1.11057e-09 -2.61445e-09)
(9.62464e-09 1.15745e-09 -3.28109e-09)
(1.214e-08 1.05164e-09 -4.62375e-09)
(0 0 0)
(3.53954e-10 7.45876e-11 -2.74333e-11)
(6.85916e-10 1.456e-10 -5.54665e-11)
(9.97956e-10 2.14238e-10 -8.64705e-11)
(1.30333e-09 2.83633e-10 -1.23862e-10)
(1.61553e-09 3.56484e-10 -1.71664e-10)
(1.94963e-09 4.35188e-10 -2.35028e-10)
(2.32386e-09 5.21976e-10 -3.20835e-10)
(2.76165e-09 6.18954e-10 -4.3841e-10)
(3.29445e-09 7.28001e-10 -6.00287e-10)
(3.9653e-09 8.50394e-10 -8.22835e-10)
(4.83282e-09 9.8574e-10 -1.12621e-09)
(5.97243e-09 1.12964e-09 -1.53228e-09)
(7.46316e-09 1.2698e-09 -2.05716e-09)
(9.31916e-09 1.38297e-09 -2.68848e-09)
(1.12383e-08 1.44347e-09 -3.31566e-09)
(1.50622e-08 1.49532e-09 -4.57483e-09)
(0 0 0)
(4.23612e-10 8.79002e-11 -3.15325e-11)
(8.19403e-10 1.71582e-10 -6.35388e-11)
(1.18838e-09 2.52454e-10 -9.84972e-11)
(1.54467e-09 3.34195e-10 -1.39982e-10)
(1.90205e-09 4.19956e-10 -1.92054e-10)
(2.27512e-09 5.1254e-10 -2.59699e-10)
(2.68062e-09 6.14552e-10 -3.4929e-10)
(3.13922e-09 7.28476e-10 -4.69022e-10)
(3.67805e-09 8.56613e-10 -6.29243e-10)
(4.33468e-09 1.00076e-09 -8.42435e-10)
(5.1634e-09 1.16118e-09 -1.12245e-09)
(6.24416e-09 1.33401e-09 -1.48232e-09)
(7.68842e-09 1.50631e-09 -1.92938e-09)
(9.60121e-09 1.65009e-09 -2.45211e-09)
(1.17992e-08 1.72806e-09 -2.97079e-09)
(1.77109e-08 1.85266e-09 -4.09837e-09)
(0 0 0)
(4.83359e-10 9.79974e-11 -3.43193e-11)
(9.33171e-10 1.91298e-10 -6.88968e-11)
(1.34881e-09 2.81472e-10 -1.0614e-10)
(1.74436e-09 3.72618e-10 -1.49541e-10)
(2.13281e-09 4.68233e-10 -2.02902e-10)
(2.5269e-09 5.71444e-10 -2.7067e-10)
(2.94005e-09 6.85197e-10 -3.58217e-10)
(3.38741e-09 8.12385e-10 -4.72001e-10)
(3.88756e-09 9.5595e-10 -6.19484e-10)
(4.4654e-09 1.11885e-09 -8.08574e-10)
(5.15762e-09 1.30349e-09 -1.04634e-09)
(6.02234e-09 1.50982e-09 -1.33695e-09)
(7.15197e-09 1.72982e-09 -1.67934e-09)
(8.66067e-09 1.93585e-09 -2.0636e-09)
(1.04702e-08 2.06885e-09 -2.4449e-09)
(1.71823e-08 1.85112e-09 -3.4216e-09)
(0 0 0)
(5.33177e-10 1.04523e-10 -3.5906e-11)
(1.0274e-09 2.04059e-10 -7.18019e-11)
(1.48006e-09 3.00297e-10 -1.09899e-10)
(1.90455e-09 3.97613e-10 -1.53448e-10)
(2.31241e-09 4.99737e-10 -2.05829e-10)
(2.71389e-09 6.10035e-10 -2.70789e-10)
(3.1183e-09 7.31722e-10 -3.52584e-10)
(3.53438e-09 8.68082e-10 -4.55954e-10)
(3.97081e-09 1.02279e-09 -5.85826e-10)
(4.43728e-09 1.20032e-09 -7.46589e-10)
(4.94659e-09 1.40647e-09 -9.40863e-10)
(5.51811e-09 1.64851e-09 -1.1681e-09)
(6.17968e-09 1.93369e-09 -1.42425e-09)
(6.94903e-09 2.26126e-09 -1.70309e-09)
(7.72889e-09 2.5878e-09 -1.98143e-09)
(8.98672e-09 3.05405e-09 -2.78004e-09)
(0 0 0)
(5.73477e-10 1.07235e-10 -3.64797e-11)
(1.10314e-09 2.09398e-10 -7.2668e-11)
(1.58429e-09 3.08254e-10 -1.1051e-10)
(2.02929e-09 4.08303e-10 -1.52932e-10)
(2.44808e-09 5.13397e-10 -2.02843e-10)
(2.84842e-09 6.27017e-10 -2.63307e-10)
(3.23594e-09 7.52521e-10 -3.37608e-10)
(3.61399e-09 8.9343e-10 -4.29169e-10)
(3.98349e-09 1.0539e-09 -5.41295e-10)
(4.34292e-09 1.23948e-09 -6.76688e-10)
(4.68892e-09 1.45846e-09 -8.36958e-10)
(5.01743e-09 1.72391e-09 -1.02287e-09)
(5.3242e-09 2.05598e-09 -1.23715e-09)
(5.59746e-09 2.48111e-09 -1.49092e-09)
(5.79872e-09 3.0132e-09 -1.80618e-09)
(3.81483e-09 5.36329e-09 -2.51207e-09)
(0 0 0)
(0 0 0)
(0 0 0)
(0 0 0)
(0 0 0)
(0 0 0)
(0 0 0)
(0 0 0)
(0 0 0)
(0 0 0)
(0 0 0)
(0 0 0)
(0 0 0)
(0 0 0)
(0 0 0)
(0 0 0)
(0 0 0)
(0 0 0)
(9.76754e-11 2.03317e-11 -7.0129e-12)
(1.90251e-10 3.96193e-11 -1.43087e-11)
(2.79252e-10 5.81117e-11 -2.2646e-11)
(3.69501e-10 7.65738e-11 -3.31247e-11)
(4.66374e-10 9.56307e-11 -4.7149e-11)
(5.76457e-10 1.15795e-10 -6.66702e-11)
(7.08369e-10 1.37503e-10 -9.45159e-11)
(8.73806e-10 1.61171e-10 -1.34845e-10)
(1.08878e-09 1.87306e-10 -1.93748e-10)
(1.3749e-09 2.16747e-10 -2.79956e-10)
(1.76004e-09 2.51254e-10 -4.05413e-10)
(2.27727e-09 2.94831e-10 -5.84958e-10)
(2.95899e-09 3.56514e-10 -8.32955e-10)
(3.81548e-09 4.53803e-10 -1.15069e-09)
(4.73417e-09 5.98326e-10 -1.48311e-09)
(7.96905e-09 1.70024e-09 -2.2925e-09)
(0 0 0)
(1.91977e-10 3.98897e-11 -1.35956e-11)
(3.73601e-10 7.77257e-11 -2.77032e-11)
(5.47556e-10 1.13995e-10 -4.37509e-11)
(7.22931e-10 1.50195e-10 -6.38065e-11)
(9.09728e-10 1.87534e-10 -9.04828e-11)
(1.12006e-09 2.26982e-10 -1.27374e-10)
(1.36965e-09 2.69323e-10 -1.7964e-10)
(1.67973e-09 3.15228e-10 -2.54794e-10)
(2.07933e-09 3.65351e-10 -3.63727e-10)
(2.60742e-09 4.20554e-10 -5.21843e-10)
(3.3134e-09 4.82314e-10 -7.49805e-10)
(4.25142e-09 5.53363e-10 -1.07233e-09)
(5.45791e-09 6.38104e-10 -1.51087e-09)
(6.8882e-09 7.4007e-10 -2.05942e-09)
(8.25515e-09 8.46155e-10 -2.6141e-09)
(1.03194e-08 7.56511e-10 -3.72191e-09)
(0 0 0)
(2.80096e-10 5.79781e-11 -1.93973e-11)
(5.44328e-10 1.12962e-10 -3.94414e-11)
(7.95882e-10 1.65659e-10 -6.20732e-11)
(1.04712e-09 2.18236e-10 -9.00986e-11)
(1.31137e-09 2.72422e-10 -1.27004e-10)
(1.6044e-09 3.29563e-10 -1.77505e-10)
(1.94638e-09 3.90677e-10 -2.48267e-10)
(2.3643e-09 4.56483e-10 -3.4884e-10)
(2.89501e-09 5.27401e-10 -4.92835e-10)
(3.58845e-09 6.0356e-10 -6.99138e-10)
(4.5087e-09 6.84739e-10 -9.92447e-10)
(5.7265e-09 7.70014e-10 -1.40103e-09)
(7.28539e-09 8.56467e-10 -1.94639e-09)
(9.10451e-09 9.35352e-10 -2.61211e-09)
(1.07681e-08 9.85995e-10 -3.26388e-09)
(1.28515e-08 9.40761e-10 -4.42694e-09)
(0 0 0)
(3.59799e-10 7.39484e-11 -2.41686e-11)
(6.97974e-10 1.44072e-10 -4.90069e-11)
(1.0174e-09 2.11277e-10 -7.67759e-11)
(1.33249e-09 2.78318e-10 -1.10742e-10)
(1.65824e-09 3.47367e-10 -1.5487e-10)
(2.01187e-09 4.20081e-10 -2.14408e-10)
(2.41472e-09 4.97635e-10 -2.96606e-10)
(2.89488e-09 5.80689e-10 -4.11635e-10)
(3.49061e-09 6.6927e-10 -5.7368e-10)
(4.25473e-09 7.62553e-10 -8.0199e-10)
(5.25876e-09 8.58475e-10 -1.12115e-09)
(6.59141e-09 9.53175e-10 -1.55845e-09)
(8.33384e-09 1.04073e-09 -2.13307e-09)
(1.04614e-08 1.11464e-09 -2.82409e-09)
(1.25598e-08 1.17095e-09 -3.49084e-09)
(1.60095e-08 1.35064e-09 -4.63786e-09)
(0 0 0)
(4.29653e-10 8.72361e-11 -2.77862e-11)
(8.31784e-10 1.69968e-10 -5.61572e-11)
(1.20814e-09 2.49272e-10 -8.75009e-11)
(1.57391e-09 3.28401e-10 -1.25271e-10)
(1.94423e-09 4.09902e-10 -1.73545e-10)
(2.33553e-09 4.95702e-10 -2.3757e-10)
(2.76719e-09 5.87132e-10 -3.24401e-10)
(3.26374e-09 6.8484e-10 -4.43686e-10)
(3.85795e-09 7.88594e-10 -6.08546e-10)
(4.59556e-09 8.96899e-10 -8.36401e-10)
(5.54205e-09 1.00632e-09 -1.14915e-09)
(6.78999e-09 1.11052e-09 -1.57113e-09)
(8.45586e-09 1.19965e-09 -2.12031e-09)
(1.06157e-08 1.26299e-09 -2.78054e-09)
(1.29883e-08 1.29848e-09 -3.42453e-09)
(1.86015e-08 1.5426e-09 -4.56688e-09)
(0 0 0)
(4.89029e-10 9.73712e-11 -3.02467e-11)
(9.44683e-10 1.89742e-10 -6.0908e-11)
(1.36691e-09 2.78337e-10 -9.43328e-11)
(1.77064e-09 3.66804e-10 -1.33936e-10)
(2.16983e-09 4.58005e-10 -1.83624e-10)
(2.57849e-09 5.54131e-10 -2.48264e-10)
(3.01172e-09 6.56725e-10 -3.34211e-10)
(3.48695e-09 7.66611e-10 -4.4991e-10)
(4.02586e-09 8.83706e-10 -6.06571e-10)
(4.65747e-09 1.00666e-09 -8.18824e-10)
(5.42339e-09 1.13214e-09 -1.10506e-09)
(6.3854e-09 1.25333e-09 -1.4865e-09)
(7.63015e-09 1.35748e-09 -1.98189e-09)
(9.23745e-09 1.42339e-09 -2.58617e-09)
(1.10587e-08 1.43e-09 -3.19664e-09)
(1.73051e-08 1.1266e-09 -4.41909e-09)
(0 0 0)
(5.37995e-10 1.03988e-10 -3.1646e-11)
(1.03705e-09 2.02687e-10 -6.34827e-11)
(1.4949e-09 2.9745e-10 -9.76988e-11)
(1.92544e-09 3.92212e-10 -1.37512e-10)
(2.34075e-09 4.90088e-10 -1.8648e-10)
(2.75157e-09 5.93523e-10 -2.48895e-10)
(3.16773e-09 7.04352e-10 -3.30188e-10)
(3.5983e-09 8.23789e-10 -4.37399e-10)
(4.05191e-09 9.52412e-10 -5.79708e-10)
(4.53708e-09 1.09012e-09 -7.69045e-10)
(5.06277e-09 1.23603e-09 -1.02073e-09)
(5.63746e-09 1.388e-09 -1.35377e-09)
(6.26013e-09 1.54084e-09 -1.78867e-09)
(6.88303e-09 1.68113e-09 -2.33224e-09)
(7.33768e-09 1.77791e-09 -2.9065e-09)
(7.1304e-09 1.62445e-09 -4.22482e-09)
(0 0 0)
(5.77098e-10 1.0683e-10 -3.21469e-11)
(1.11023e-09 2.08309e-10 -6.42409e-11)
(1.59478e-09 3.05888e-10 -9.82374e-11)
(2.04327e-09 4.03678e-10 -1.37065e-10)
(2.46566e-09 5.04968e-10 -1.8386e-10)
(2.86951e-09 6.1242e-10 -2.42281e-10)
(3.25982e-09 7.2818e-10 -3.16842e-10)
(3.63855e-09 8.53958e-10 -4.13282e-10)
(4.00373e-09 9.91238e-10 -5.3904e-10)
(4.34833e-09 1.14173e-09 -7.03888e-10)
(4.65823e-09 1.30833e-09 -9.20805e-10)
(4.90815e-09 1.49692e-09 -1.20686e-09)
(5.05132e-09 1.71941e-09 -1.58219e-09)
(4.99694e-09 1.99718e-09 -2.05787e-09)
(4.60916e-09 2.36781e-09 -2.58721e-09)
(-9.33581e-10 3.35333e-09 -3.62796e-09)
(0 0 0)
(0 0 0)
(0 0 0)
(0 0 0)
(0 0 0)
(0 0 0)
(0 0 0)
(0 0 0)
(0 0 0)
(0 0 0)
(0 0 0)
(0 0 0)
(0 0 0)
(0 0 0)
(0 0 0)
(0 0 0)
(0 0 0)
(0 0 0)
(9.92817e-11 2.00879e-11 -5.67236e-12)
(1.93595e-10 3.90638e-11 -1.15996e-11)
(2.84713e-10 5.70897e-11 -1.84269e-11)
(3.77806e-10 7.48233e-11 -2.70914e-11)
(4.787e-10 9.27456e-11 -3.88062e-11)
(5.9459e-10 1.11174e-10 -5.52767e-11)
(7.34911e-10 1.30294e-10 -7.8994e-11)
(9.12394e-10 1.50219e-10 -1.13635e-10)
(1.14418e-09 1.71139e-10 -1.64575e-10)
(1.4526e-09 1.93668e-10 -2.39439e-10)
(1.86472e-09 2.19559e-10 -3.48421e-10)
(2.40872e-09 2.53099e-10 -5.03603e-10)
(3.10433e-09 3.0348e-10 -7.15391e-10)
(3.93988e-09 3.8684e-10 -9.8134e-10)
(4.79023e-09 5.12068e-10 -1.25226e-09)
(7.70355e-09 1.47192e-09 -1.8905e-09)
(0 0 0)
(1.94999e-10 3.94253e-11 -1.09979e-11)
(3.79878e-10 7.6663e-11 -2.24612e-11)
(5.57778e-10 1.12034e-10 -3.56079e-11)
(7.3842e-10 1.46822e-10 -5.22046e-11)
(9.32617e-10 1.81949e-10 -7.45188e-11)
(1.15358e-09 2.17997e-10 -1.05713e-10)
(1.41849e-09 2.55231e-10 -1.50375e-10)
(1.75042e-09 2.93673e-10 -2.15228e-10)
(2.1804e-09 3.33274e-10 -3.10025e-10)
(2.74879e-09 3.74318e-10 -4.48463e-10)
(3.50366e-09 4.18204e-10 -6.4852e-10)
(4.49073e-09 4.68543e-10 -9.3065e-10)
(5.72417e-09 5.317e-10 -1.31005e-09)
(7.12011e-09 6.13049e-10 -1.77476e-09)
(8.36847e-09 6.99772e-10 -2.23032e-09)
(9.90061e-09 5.46597e-10 -3.07544e-09)
(0 0 0)
(2.84185e-10 5.73342e-11 -1.56936e-11)
(5.52793e-10 1.11482e-10 -3.19854e-11)
(8.09597e-10 1.62911e-10 -5.05381e-11)
(1.06777e-09 2.13481e-10 -7.37598e-11)
(1.34164e-09 2.64497e-10 -1.04699e-10)
(1.64835e-09 3.16725e-10 -1.47554e-10)
(2.00983e-09 3.70375e-10 -2.08346e-10)
(2.45527e-09 4.25115e-10 -2.95805e-10)
(3.02391e-09 4.80128e-10 -4.22459e-10)
(3.76723e-09 5.34347e-10 -6.05674e-10)
(4.74767e-09 5.87023e-10 -8.67816e-10)
(6.02585e-09 6.38547e-10 -1.23328e-09)
(7.61837e-09 6.90709e-10 -1.71728e-09)
(9.39634e-09 7.43301e-10 -2.29651e-09)
(1.09147e-08 7.83363e-10 -2.84492e-09)
(1.233e-08 7.46192e-10 -3.75016e-09)
(0 0 0)
(3.64501e-10 7.31819e-11 -1.95577e-11)
(7.07663e-10 1.42299e-10 -3.97536e-11)
(1.03297e-09 2.07955e-10 -6.25358e-11)
(1.35568e-09 2.72519e-10 -9.07255e-11)
(1.69183e-09 3.37628e-10 -1.27829e-10)
(2.05995e-09 4.04168e-10 -1.78593e-10)
(2.48304e-09 4.72222e-10 -2.49725e-10)
(2.99112e-09 5.40948e-10 -3.50827e-10)
(3.6243e-09 6.08429e-10 -4.9552e-10)
(4.43617e-09 6.71637e-10 -7.02502e-10)
(5.49538e-09 7.26725e-10 -9.95614e-10)
(6.87922e-09 7.70219e-10 -1.40046e-09)
(8.64097e-09 8.02039e-10 -1.93188e-09)
(1.07086e-08 8.30511e-10 -2.56132e-09)
(1.26429e-08 8.70554e-10 -3.14902e-09)
(1.53802e-08 1.11333e-09 -4.07373e-09)
(0 0 0)
(4.34477e-10 8.64117e-11 -2.24895e-11)
(8.41648e-10 1.68042e-10 -4.55663e-11)
(1.22381e-09 2.45627e-10 -7.13034e-11)
(1.59689e-09 3.21975e-10 -1.02708e-10)
(1.97688e-09 3.99012e-10 -1.43433e-10)
(2.38121e-09 4.77749e-10 -1.98329e-10)
(2.83034e-09 5.58171e-10 -2.74129e-10)
(3.34977e-09 6.38984e-10 -3.80344e-10)
(3.97256e-09 7.17234e-10 -5.30338e-10)
(4.74277e-09 7.87868e-10 -7.42402e-10)
(5.71954e-09 8.4342e-10 -1.04003e-09)
(6.97975e-09 8.746e-10 -1.4492e-09)
(8.60908e-09 8.73843e-10 -1.98703e-09)
(1.06406e-08 8.45592e-10 -2.62962e-09)
(1.27904e-08 8.20404e-10 -3.23894e-09)
(1.76832e-08 1.09714e-09 -4.21867e-09)
(0 0 0)
(4.935e-10 9.65516e-11 -2.44841e-11)
(9.53732e-10 1.87807e-10 -4.94313e-11)
(1.38104e-09 2.74632e-10 -7.68989e-11)