/*--------------------------------*- C++ -*----------------------------------*\
| =========                 |                                                 |
| \\      /  F ield         | foam-extend: Open Source CFD                    |
|  \\    /   O peration     | Version:     3.1                                |
|   \\  /    A nd           | Web:         http://www.extend-project.de       |
|    \\/     M anipulation  |                                                 |
\*---------------------------------------------------------------------------*/
FoamFile
{
    version     2.0;
    format      ascii;
    class       surfaceVectorField;
    location    "2.9";
    object      Sf;
}
// * * * * * * * * * * * * * * * * * * * * * * * * * * * * * * * * * * * * * //

dimensions      [0 2 0 0 0 0 0];

internalField   nonuniform List<vector> 
41600
(
(0.00062554 -2.94526e-06 -2.07286e-08)
(-5.39707e-07 0.00070607 -1.35356e-08)
(8.35565e-09 9.4001e-09 0.000704918)
(-8.55957e-09 -9.62951e-09 -0.000704884)
(0.000626057 -5.67434e-06 -3.99459e-08)
(-5.16762e-07 0.000705855 -4.05014e-08)
(8.21167e-09 2.80359e-08 0.000705417)
(-8.41315e-09 -2.87213e-08 -0.000705357)
(0.000626562 -8.16161e-06 -5.76534e-08)
(-5.04564e-07 0.000705613 -6.79951e-08)
(8.52093e-09 4.68495e-08 0.000705884)
(-8.7238e-09 -4.79897e-08 -0.000705798)
(0.000627079 -1.04664e-05 -7.44047e-08)
(-5.17368e-07 0.000705431 -9.78932e-08)
(9.44743e-09 6.704e-08 0.000706381)
(-9.65285e-09 -6.86396e-08 -0.000706267)
(0.000627633 -1.26368e-05 -9.07749e-08)
(-5.53198e-07 0.000705297 -1.32525e-07)
(1.0855e-08 8.98398e-08 0.000706933)
(-1.10537e-08 -9.18942e-08 -0.000706784)
(0.000628245 -1.47143e-05 -1.07263e-07)
(-6.11847e-07 0.000705205 -1.74464e-07)
(1.24449e-08 1.15998e-07 0.000707562)
(-1.26192e-08 -1.18473e-07 -0.000707371)
(0.000628938 -1.67285e-05 -1.23545e-07)
(-6.93607e-07 0.000705142 -2.26672e-07)
(1.36943e-08 1.45353e-07 0.00070829)
(-1.38249e-08 -1.48172e-07 -0.000708047)
(0.000629738 -1.86911e-05 -1.38705e-07)
(-8.00067e-07 0.000705091 -2.92696e-07)
(1.3763e-08 1.76234e-07 0.000709135)
(-1.3809e-08 -1.79252e-07 -0.000708827)
(0.000630672 -2.05935e-05 -1.51384e-07)
(-9.33913e-07 0.00070503 -3.77282e-07)
(1.09706e-08 2.04194e-07 0.000710119)
(-1.08431e-08 -2.07119e-07 -0.000709729)
(0.000631769 -2.23907e-05 -1.5867e-07)
(-1.09737e-06 0.000704925 -4.8705e-07)
(2.04092e-09 2.19337e-07 0.000711258)
(-1.6625e-09 -2.21683e-07 -0.000710764)
(0.000633064 -2.39967e-05 -1.56837e-07)
(-1.29494e-06 0.000704732 -6.32015e-07)
(-1.91659e-08 2.01452e-07 0.000712571)
(1.97783e-08 -2.02639e-07 -0.000711941)
(0.000634594 -2.52697e-05 -1.43108e-07)
(-1.5314e-06 0.000704398 -8.29304e-07)
(-6.34699e-08 1.11787e-07 0.000714081)
(6.40571e-08 -1.1148e-07 -0.000713265)
(0.000636402 -2.60164e-05 -1.20909e-07)
(-1.80724e-06 0.000703871 -1.1106e-06)
(-1.49819e-07 -1.20827e-07 0.000715823)
(1.49608e-07 1.21949e-07 -0.000714734)
(0.000638496 -2.60695e-05 -1.15746e-07)
(-2.09285e-06 0.000703178 -1.53473e-06)
(-3.01037e-07 -6.13138e-07 0.000717879)
(2.99577e-07 6.13231e-07 -0.00071635)
(0.000640596 -2.54831e-05 -2.22903e-07)
(-2.11851e-06 0.000702519 -2.18099e-06)
(-4.84742e-07 -1.47307e-06 0.000720303)
(5.03484e-07 1.49262e-06 -0.000718015)
(-8.34718e-06 0.000699406 -5.39081e-07)
(-2.10633e-06 -4.26072e-06 0.00072525)
(4.29402e-06 6.63522e-06 -0.000723949)
(0.000625518 -2.9036e-06 -6.196e-08)
(-1.05691e-06 0.000708974 -2.65281e-08)
(2.46356e-08 8.91328e-09 0.00070785)
(-2.52473e-08 -9.14265e-09 -0.000707775)
(0.000626013 -5.59577e-06 -1.19545e-07)
(-1.01146e-06 0.000708548 -7.93323e-08)
(2.4137e-08 2.64964e-08 0.000708108)
(-2.47495e-08 -2.71909e-08 -0.000708012)
(0.000626496 -8.04963e-06 -1.72835e-07)
(-9.86542e-07 0.000708068 -1.33076e-07)
(2.49901e-08 4.40849e-08 0.000708307)
(-2.56198e-08 -4.52671e-08 -0.000708189)
(0.000626989 -1.03234e-05 -2.23331e-07)
(-1.01022e-06 0.000707707 -1.91381e-07)
(2.77172e-08 6.28872e-08 0.000708595)
(-2.83625e-08 -6.45856e-08 -0.000708451)
(0.000627515 -1.24691e-05 -2.72991e-07)
(-1.07874e-06 0.000707445 -2.58794e-07)
(3.18676e-08 8.41363e-08 0.000708984)
(-3.25039e-08 -8.63685e-08 -0.000708808)
(0.000628095 -1.45284e-05 -3.23264e-07)
(-1.19068e-06 0.000707267 -3.40312e-07)
(3.66251e-08 1.08632e-07 0.000709486)
(-3.72253e-08 -1.11418e-07 -0.00070927)
(0.000628748 -1.65299e-05 -3.73113e-07)
(-1.34668e-06 0.000707147 -4.4154e-07)
(4.07994e-08 1.36784e-07 0.000710108)
(-4.12749e-08 -1.401e-07 -0.000709843)
(0.000629498 -1.84905e-05 -4.20195e-07)
(-1.54945e-06 0.000707055 -5.69359e-07)
(4.22428e-08 1.68358e-07 0.00071085)
(-4.24132e-08 -1.72013e-07 -0.000710526)
(0.000630366 -2.04111e-05 -4.60122e-07)
(-1.80219e-06 0.000706955 -7.32624e-07)
(3.64542e-08 2.01417e-07 0.000711709)
(-3.60781e-08 -2.0504e-07 -0.000711314)
(0.000631375 -2.22693e-05 -4.84882e-07)
(-2.10793e-06 0.000706786 -9.43215e-07)
(1.50888e-08 2.30932e-07 0.000712663)
(-1.39243e-08 -2.33971e-07 -0.000712182)
(0.000632547 -2.40023e-05 -4.83851e-07)
(-2.4689e-06 0.000706467 -1.21876e-06)
(-3.68242e-08 2.47224e-07 0.000713677)
(3.88176e-08 -2.48922e-07 -0.000713091)
(0.000633894 -2.54985e-05 -4.46487e-07)
(-2.88051e-06 0.000705893 -1.58749e-06)
(-1.44798e-07 2.33929e-07 0.000714694)
(1.4714e-07 -2.33334e-07 -0.000713973)
(0.000635402 -2.65867e-05 -3.75422e-07)
(-3.31663e-06 0.000704955 -2.09855e-06)
(-3.49302e-07 1.68484e-07 0.000715644)
(3.50461e-07 -1.6444e-07 -0.000714727)
(0.000636974 -2.70713e-05 -3.23579e-07)
(-3.66413e-06 0.000703653 -2.83796e-06)
(-6.88852e-07 3.36595e-08 0.000716519)
(6.88497e-07 -2.42321e-08 -0.000715268)
(0.000638208 -2.68904e-05 -5.12593e-07)
(-3.39765e-06 0.000702318 -3.92614e-06)
(-1.06003e-06 -1.4375e-07 0.000717482)
(1.10533e-06 1.64197e-07 -0.000715548)
(-7.90003e-06 0.000697122 -2.8528e-06)
(-3.50076e-06 6.38652e-07 0.000716276)
(6.77453e-06 -1.96181e-06 -0.000712531)
(0.000625475 -2.81867e-06 -1.02367e-07)
(-1.53046e-06 0.000711793 -3.83979e-08)
(3.98219e-08 8.16434e-09 0.000710707)
(-4.08368e-08 -8.3888e-09 -0.000710592)
(0.000625928 -5.43177e-06 -1.97772e-07)
(-1.46344e-06 0.000711161 -1.14786e-07)
(3.88609e-08 2.42016e-08 0.000710705)
(-3.9886e-08 -2.48788e-08 -0.000710574)
(0.000626367 -7.81177e-06 -2.86142e-07)
(-1.42511e-06 0.00071045 -1.92396e-07)
(4.01477e-08 4.01487e-08 0.000710616)
(-4.1203e-08 -4.12807e-08 -0.000710469)
(0.000626815 -1.00188e-05 -3.70207e-07)
(-1.45666e-06 0.000709915 -2.76365e-07)
(4.4593e-08 5.72206e-08 0.000710674)
(-4.56806e-08 -5.88128e-08 -0.000710505)
(0.000627289 -1.21063e-05 -4.54011e-07)
(-1.55184e-06 0.000709535 -3.73219e-07)
(5.13984e-08 7.66718e-08 0.000710881)
(-5.25166e-08 -7.87712e-08 -0.000710683)
(0.000627806 -1.41126e-05 -5.39407e-07)
(-1.70708e-06 0.000709276 -4.89996e-07)
(5.95541e-08 9.96096e-08 0.000711232)
(-6.06625e-08 -1.02272e-07 -0.000710997)
(0.000628384 -1.60699e-05 -6.24849e-07)
(-1.92286e-06 0.000709107 -6.34424e-07)
(6.77624e-08 1.27231e-07 0.000711718)
(-6.86785e-08 -1.30443e-07 -0.000711439)
(0.000629036 -1.80074e-05 -7.07645e-07)
(-2.20183e-06 0.000708996 -8.15922e-07)
(7.33423e-08 1.60755e-07 0.000712324)
(-7.37579e-08 -1.64422e-07 -0.000711995)
(0.00062978 -1.9941e-05 -7.80669e-07)
(-2.5465e-06 0.000708892 -1.04638e-06)
(7.08074e-08 2.01613e-07 0.000713026)
(-7.03462e-08 -2.05531e-07 -0.00071264)
(0.000630629 -2.188e-05 -8.3234e-07)
(-2.95867e-06 0.000708728 -1.34146e-06)
(5.03037e-08 2.51942e-07 0.000713776)
(-4.85182e-08 -2.55691e-07 -0.000713326)
(0.00063159 -2.38079e-05 -8.4578e-07)
(-3.43271e-06 0.000708397 -1.7234e-06)
(-4.82907e-09 3.15676e-07 0.000714489)
(8.2952e-09 -3.18416e-07 -0.000713971)
(0.000632648 -2.56714e-05 -7.99988e-07)
(-3.94435e-06 0.000707757 -2.22571e-06)
(-1.21084e-07 4.01658e-07 0.000715038)
(1.26096e-07 -4.01893e-07 -0.000714446)
(0.000633753 -2.73621e-05 -6.83016e-07)
(-4.42721e-06 0.000706641 -2.90347e-06)
(-3.33846e-07 5.31011e-07 0.000715252)
(3.39385e-07 -5.26264e-07 -0.000714564)
(0.00063477 -2.86985e-05 -5.32257e-07)
(-4.68793e-06 0.000704976 -3.85052e-06)
(-6.60287e-07 7.48107e-07 0.000715025)
(6.67072e-07 -7.34837e-07 -0.000714163)
(0.000635378 -2.94993e-05 -5.7919e-07)
(-4.05682e-06 0.000703104 -5.21781e-06)
(-9.59706e-07 1.10319e-06 0.000714631)
(1.01084e-06 -1.0881e-06 -0.000713292)
(-9.41346e-06 0.000698818 -3.66893e-06)
(-2.17706e-06 2.03676e-06 0.000711967)
(4.01675e-06 -2.45655e-06 -0.000710364)
(0.000625412 -2.68951e-06 -1.4068e-07)
(-1.94145e-06 0.000714483 -4.86253e-08)
(5.35298e-08 7.24001e-09 0.000713443)
(-5.49248e-08 -7.44323e-09 -0.000713293)
(0.000625805 -5.17939e-06 -2.72265e-07)
(-1.85463e-06 0.000713652 -1.45323e-07)
(5.21412e-08 2.15148e-08 0.000713166)
(-5.35475e-08 -2.21213e-08 -0.000713004)
(0.000626184 -7.44568e-06 -3.93974e-07)
(-1.80293e-06 0.000712717 -2.4338e-07)
(5.388e-08 3.58414e-08 0.000712778)
(-5.53153e-08 -3.6848e-08 -0.000712605)
(0.000626567 -9.54589e-06 -5.10834e-07)
(-1.83826e-06 0.000712017 -3.49198e-07)
(6.00057e-08 5.1334e-08 0.000712592)
(-6.15064e-08 -5.27715e-08 -0.000712403)
(0.000626968 -1.15259e-05 -6.289e-07)
(-1.95106e-06 0.000711517 -4.70883e-07)
(6.95267e-08 6.92709e-08 0.000712599)
(-7.11304e-08 -7.1212e-08 -0.000712383)
(0.000627399 -1.34273e-05 -7.49651e-07)
(-2.13626e-06 0.00071118 -6.16856e-07)
(8.15821e-08 9.10544e-08 0.000712776)
(-8.32057e-08 -9.3562e-08 -0.000712528)
(0.00062787 -1.52927e-05 -8.72161e-07)
(-2.39294e-06 0.000710976 -7.96327e-07)
(9.50339e-08 1.18383e-07 0.000713105)
(-9.64518e-08 -1.215e-07 -0.000712821)
(0.000628392 -1.71621e-05 -9.94689e-07)
(-2.72221e-06 0.000710869 -1.02039e-06)
(1.07598e-07 1.53656e-07 0.000713564)
(-1.08475e-07 -1.57435e-07 -0.000713237)
(0.00062897 -1.9073e-05 -1.10913e-06)
(-3.12502e-06 0.000710807 -1.30283e-06)
(1.15058e-07 2.01136e-07 0.000714108)
(-1.14871e-07 -2.0555e-07 -0.000713737)
(0.000629609 -2.10596e-05 -1.20218e-06)
(-3.59973e-06 0.00071072 -1.66158e-06)
(1.09718e-07 2.68605e-07 0.000714673)
(-1.07759e-07 -2.73388e-07 -0.00071426)
(0.000630306 -2.31595e-05 -1.25267e-06)
(-4.13451e-06 0.000710502 -2.12151e-06)
(7.92202e-08 3.69889e-07 0.000715151)
(-7.46079e-08 -3.74304e-07 -0.000714702)
(0.000631044 -2.53973e-05 -1.22964e-06)
(-4.68958e-06 0.000709997 -2.71906e-06)
(6.25431e-09 5.29818e-07 0.000715379)
(1.66724e-09 -5.32264e-07 -0.000714908)
(0.00063177 -2.77557e-05 -1.09795e-06)
(-5.16468e-06 0.000708997 -3.51183e-06)
(-1.29969e-07 7.88039e-07 0.000715128)
(1.41265e-07 -7.85721e-07 -0.000714651)
(0.000632387 -3.00934e-05 -8.50789e-07)
(-5.32057e-06 0.000707304 -4.59804e-06)
(-3.31492e-07 1.19144e-06 0.000714206)
(3.47128e-07 -1.18126e-06 -0.000713705)
(0.000632715 -3.2046e-05 -6.37411e-07)
(-4.42931e-06 0.000705048 -6.15981e-06)
(-5.00995e-07 1.73523e-06 0.000712853)
(5.45344e-07 -1.72676e-06 -0.000712125)
(-9.98901e-06 0.000702154 -4.33452e-06)
(-9.8886e-07 2.69279e-06 0.000709742)
(2.00417e-06 -3.31277e-06 -0.000709557)
(0.000625335 -2.5142e-06 -1.76032e-07)
(-2.27492e-06 0.000716997 -5.68738e-08)
(6.57774e-08 6.51331e-09 0.000716018)
(-6.75196e-08 -6.70063e-09 -0.000715834)
(0.000625653 -4.83761e-06 -3.40996e-07)
(-2.17071e-06 0.000715976 -1.69845e-07)
(6.4103e-08 1.94113e-08 0.000715456)
(-6.58536e-08 -1.99723e-08 -0.000715266)
(0.000625958 -6.94811e-06 -4.93952e-07)
(-2.10595e-06 0.000714828 -2.84119e-07)
(6.63703e-08 3.24609e-08 0.000714761)
(-6.81693e-08 -3.34167e-08 -0.000714567)
(0.000626262 -8.89505e-06 -6.42367e-07)
(-2.14017e-06 0.000713965 -4.07094e-07)
(7.41616e-08 4.66902e-08 0.000714321)
(-7.60863e-08 -4.81002e-08 -0.000714115)
(0.000626574 -1.07218e-05 -7.92647e-07)
(-2.26108e-06 0.000713346 -5.4785e-07)
(8.64975e-08 6.33754e-08 0.000714109)
(-8.85941e-08 -6.53126e-08 -0.000713882)
(0.000626902 -1.24742e-05 -9.46807e-07)
(-2.46179e-06 0.000712935 -7.15598e-07)
(1.02756e-07 8.39719e-08 0.000714097)
(-1.04935e-07 -8.65256e-08 -0.000713844)
(0.000627249 -1.41956e-05 -1.10633e-06)
(-2.73886e-06 0.000712701 -9.20418e-07)
(1.22205e-07 1.10397e-07 0.00071426)
(-1.2425e-07 -1.13687e-07 -0.000713977)
(0.000627619 -1.59295e-05 -1.271e-06)
(-3.09034e-06 0.000712607 -1.17422e-06)
(1.43779e-07 1.45764e-07 0.000714566)
(-1.45356e-07 -1.49923e-07 -0.000714248)
(0.000628009 -1.7728e-05 -1.43412e-06)
(-3.51407e-06 0.000712611 -1.49151e-06)
(1.65764e-07 1.95635e-07 0.000714964)
(-1.66235e-07 -2.00761e-07 -0.000714612)
(0.000628413 -1.96541e-05 -1.58338e-06)
(-4.00543e-06 0.000712652 -1.89108e-06)
(1.84735e-07 2.69907e-07 0.000715383)
(-1.83157e-07 -2.75962e-07 -0.000715004)
(0.000628825 -2.17933e-05 -1.69811e-06)
(-4.55165e-06 0.000712648 -2.39952e-06)
(1.95503e-07 3.85599e-07 0.000715719)
(-1.9046e-07 -3.92189e-07 -0.000715327)
(0.000629236 -2.42547e-05 -1.74081e-06)
(-5.11065e-06 0.000712465 -3.05614e-06)
(1.93301e-07 5.71037e-07 0.000715816)
(-1.83014e-07 -5.76811e-07 -0.000715436)
(0.000629626 -2.71238e-05 -1.65441e-06)
(-5.57211e-06 0.000711868 -3.9228e-06)
(1.70008e-07 8.67769e-07 0.00071543)
(-1.53248e-07 -8.70089e-07 -0.000715105)
(0.000629959 -3.03268e-05 -1.37544e-06)
(-5.67709e-06 0.000710503 -5.10492e-06)
(1.17608e-07 1.31506e-06 0.000714264)
(-9.36789e-08 -1.31086e-06 -0.000714037)
(0.000630136 -3.33163e-05 -8.84354e-07)
(-4.64266e-06 0.000708034 -6.80445e-06)
(3.86187e-08 1.88363e-06 0.000712224)
(-2.42709e-09 -1.88018e-06 -0.00071207)
(-1.02294e-05 0.000706807 -4.68578e-06)
(7.6268e-08 2.7166e-06 0.000709198)
(2.18062e-08 -3.17879e-06 -0.000710869)
(0.000625246 -2.2964e-06 -2.08234e-07)
(-2.51935e-06 0.000719294 -6.28449e-08)
(7.69054e-08 5.98097e-09 0.000718388)
(-7.89727e-08 -6.15952e-09 -0.000718173)
(0.000625479 -4.4143e-06 -4.03092e-07)
(-2.40107e-06 0.000718094 -1.87516e-07)
(7.50136e-08 1.78164e-08 0.000717538)
(-7.70936e-08 -1.83569e-08 -0.000717325)
(0.000625699 -6.32934e-06 -5.84517e-07)
(-2.32404e-06 0.000716744 -3.13255e-07)
(7.77978e-08 2.97656e-08 0.000716535)
(-7.99614e-08 -3.06903e-08 -0.000716325)
(0.000625915 -8.08662e-06 -7.60997e-07)
(-2.35332e-06 0.000715724 -4.48015e-07)
(8.71727e-08 4.27678e-08 0.000715833)
(-8.95187e-08 -4.41202e-08 -0.000715616)
(0.00062613 -9.72803e-06 -9.38499e-07)
(-2.47404e-06 0.000714989 -6.01329e-07)
(1.02226e-07 5.79986e-08 0.000715394)
(-1.04823e-07 -5.98584e-08 -0.000715163)
(0.000626347 -1.129e-05 -1.12222e-06)
(-2.67612e-06 0.000714499 -7.82781e-07)
(1.22601e-07 7.68454e-08 0.000715185)
(-1.25386e-07 -7.93358e-08 -0.000714934)
(0.000626564 -1.28065e-05 -1.3165e-06)
(-2.95275e-06 0.00071422 -1.00266e-06)
(1.48152e-07 1.01215e-07 0.00071517)
(-1.50928e-07 -1.04488e-07 -0.000714893)
(0.000626775 -1.43177e-05 -1.52236e-06)
(-3.2984e-06 0.000714123 -1.2727e-06)
(1.79225e-07 1.34096e-07 0.000715311)
(-1.81693e-07 -1.38358e-07 -0.000715007)
(0.000626969 -1.58774e-05 -1.73679e-06)
(-3.70691e-06 0.000714176 -1.607e-06)
(2.16665e-07 1.80534e-07 0.000715561)
(-2.18158e-07 -1.86061e-07 -0.000715231)
(0.000627133 -1.75651e-05 -1.95129e-06)
(-4.17055e-06 0.000714347 -2.02393e-06)
(2.61386e-07 2.49081e-07 0.000715857)
(-2.60803e-07 -2.56105e-07 -0.00071551)
(0.000627256 -1.94989e-05 -2.15044e-06)
(-4.67909e-06 0.00071459 -2.55032e-06)
(3.14911e-07 3.53629e-07 0.00071612)
(-3.10429e-07 -3.62176e-07 -0.00071577)
(0.000627337 -2.18452e-05 -2.30011e-06)
(-5.20219e-06 0.00071482 -3.22829e-06)
(3.83228e-07 5.16074e-07 0.000716229)
(-3.72002e-07 -5.25607e-07 -0.000715907)
(0.000627401 -2.48008e-05 -2.33793e-06)
(-5.65734e-06 0.000714832 -4.12886e-06)
(4.69706e-07 7.69501e-07 0.000715975)
(-4.49083e-07 -7.782e-07 -0.000715732)
(0.000627512 -2.84808e-05 -2.15227e-06)
(-5.82005e-06 0.000714187 -5.37729e-06)
(5.5511e-07 1.14841e-06 0.00071501)
(-5.23275e-07 -1.15248e-06 -0.000714923)
(0.000627693 -3.23925e-05 -1.47562e-06)
(-4.85564e-06 0.000711947 -7.19451e-06)
(5.47134e-07 1.63683e-06 0.000712711)
(-5.14487e-07 -1.63875e-06 -0.000712998)
(-1.04686e-05 0.000713401 -4.86485e-06)
(9.89065e-07 2.35062e-06 0.000710672)
(-1.61411e-06 -2.68771e-06 -0.00071435)
(0.00062515 -2.04369e-06 -2.36181e-07)
(-2.66713e-06 0.000721338 -6.63167e-08)
(8.71413e-08 5.51916e-09 0.000720515)
(-8.95134e-08 -5.68351e-09 -0.000720276)
(0.000625291 -3.9238e-06 -4.56704e-07)
(-2.53913e-06 0.000719975 -1.97713e-07)
(8.50025e-08 1.63942e-08 0.000719383)
(-8.73934e-08 -1.68881e-08 -0.000719153)
(0.000625421 -5.61533e-06 -6.62413e-07)
(-2.45209e-06 0.000718437 -3.29871e-07)
(8.81947e-08 2.72615e-08 0.000718078)
(-9.07001e-08 -2.81029e-08 -0.000717856)
(0.000625545 -7.1561e-06 -8.61387e-07)
(-2.47409e-06 0.000717266 -4.70868e-07)
(9.89447e-08 3.89481e-08 0.000717115)
(-1.01683e-07 -4.01836e-08 -0.000716893)
(0.000625661 -8.57593e-06 -1.06065e-06)
(-2.58739e-06 0.00071641 -6.30217e-07)
(1.1638e-07 5.24744e-08 0.000716446)
(-1.19463e-07 -5.41849e-08 -0.000716217)
(0.000625767 -9.89809e-06 -1.26933e-06)
(-2.7785e-06 0.000715824 -8.17465e-07)
(1.40408e-07 6.90026e-08 0.000716026)
(-1.438e-07 -7.13093e-08 -0.000715782)
(0.000625855 -1.11468e-05 -1.49312e-06)
(-3.03687e-06 0.000715472 -1.0424e-06)
(1.714e-07 9.00669e-08 0.000715813)
(-1.74937e-07 -9.31374e-08 -0.000715549)
(0.000625912 -1.23516e-05 -1.7346e-06)
(-3.35276e-06 0.000715332 -1.31564e-06)
(2.10728e-07 1.17852e-07 0.000715767)
(-2.14185e-07 -1.21927e-07 -0.000715482)
(0.000625923 -1.35525e-05 -1.99472e-06)
(-3.71497e-06 0.000715383 -1.6498e-06)
(2.61016e-07 1.55619e-07 0.000715846)
(-2.63769e-07 -1.61029e-07 -0.000715543)
(0.000625864 -1.481e-05 -2.27012e-06)
(-4.11045e-06 0.000715611 -2.06097e-06)
(3.25994e-07 2.08259e-07 0.000716001)
(-3.26877e-07 -2.15394e-07 -0.000715688)
(0.00062571 -1.62249e-05 -2.5543e-06)
(-4.52777e-06 0.000716014 -2.57332e-06)
(4.11158e-07 2.82828e-07 0.000716181)
(-4.08246e-07 -2.92179e-07 -0.000715874)
(0.000625447 -1.79487e-05 -2.82903e-06)
(-4.94983e-06 0.000716556 -3.22784e-06)
(5.28304e-07 3.88792e-07 0.000716302)
(-5.18331e-07 -4.01019e-07 -0.000716028)
(0.000625116 -2.02263e-05 -3.05398e-06)
(-5.3468e-06 0.000717125 -4.10261e-06)
(6.89318e-07 5.39753e-07 0.00071622)
(-6.68194e-07 -5.55051e-07 -0.000716021)
(0.000624886 -2.342e-05 -3.12078e-06)
(-5.62737e-06 0.000717397 -5.35783e-06)
(8.7398e-07 7.56249e-07 0.000715668)
(-8.37064e-07 -7.72683e-07 -0.000715621)
(0.000625102 -2.76006e-05 -2.53734e-06)
(-5.10648e-06 0.000716143 -7.28734e-06)
(9.44067e-07 1.06134e-06 0.000713722)
(-9.09547e-07 -1.0766e-06 -0.000714213)
(-1.17789e-05 0.000724838 -4.88301e-06)
(1.85926e-06 1.69245e-06 0.000715907)
(-3.05029e-06 -1.93644e-06 -0.000721845)
(0.00062505 -1.76128e-06 -2.5895e-07)
(9.65589e-08 5.07671e-09 0.00072237)
(-9.92104e-08 -5.22668e-09 -0.000722111)
(-2.71446e-06 0.000723099 -6.72683e-08)
(0.000625096 -3.38103e-06 -5.00106e-07)
(9.41144e-08 1.50346e-08 0.000720971)
(-9.67808e-08 -1.54777e-08 -0.000720727)
(-2.58229e-06 0.000721595 -2.00384e-07)
(0.000625136 -4.83145e-06 -7.2467e-07)
(9.75302e-08 2.48298e-08 0.000719378)
(-1.0034e-07 -2.55738e-08 -0.000719149)
(-2.48915e-06 0.000719888 -3.33872e-07)
(0.000625168 -6.13433e-06 -9.40709e-07)
(1.09346e-07 3.51245e-08 0.000718159)
(-1.12444e-07 -3.6216e-08 -0.000717938)
(-2.50298e-06 0.00071857 -4.75692e-07)
(0.000625188 -7.30463e-06 -1.15742e-06)
(1.28648e-07 4.67243e-08 0.000717253)
(-1.32168e-07 -4.82303e-08 -0.000717031)
(-2.6038e-06 0.000717582 -6.35077e-07)
(0.000625188 -8.35555e-06 -1.38516e-06)
(1.5547e-07 6.03972e-08 0.000716608)
(-1.59414e-07 -6.24143e-08 -0.000716377)
(-2.77541e-06 0.000716877 -8.2094e-07)
(0.000625159 -9.29989e-06 -1.62994e-06)
(1.90508e-07 7.7051e-08 0.000716176)
(-1.94767e-07 -7.97388e-08 -0.000715932)
(-3.00347e-06 0.000716419 -1.04194e-06)
(0.000625084 -1.01493e-05 -1.89647e-06)
(2.35587e-07 9.77983e-08 0.000715916)
(-2.39973e-07 -1.01354e-07 -0.000715659)
(-3.27302e-06 0.000716185 -1.30704e-06)
(0.000624939 -1.09173e-05 -2.18756e-06)
(2.9391e-07 1.23792e-07 0.000715786)
(-2.97863e-07 -1.28456e-07 -0.000715519)
(-3.56628e-06 0.000716155 -1.62626e-06)
(0.000624693 -1.16224e-05 -2.50469e-06)
(3.69968e-07 1.55982e-07 0.000715742)
(-3.72412e-07 -1.62149e-07 -0.000715474)
(-3.86148e-06 0.000716323 -2.01162e-06)
(0.000624297 -1.22893e-05 -2.84956e-06)
(4.69909e-07 1.94595e-07 0.000715737)
(-4.6912e-07 -2.02958e-07 -0.000715486)
(-4.13278e-06 0.000716689 -2.47994e-06)
(0.000623685 -1.29506e-05 -3.22009e-06)
(6.04366e-07 2.36358e-07 0.000715671)
(-5.9741e-07 -2.48203e-07 -0.000715471)
(-4.34444e-06 0.00071723 -3.05805e-06)
(0.000622756 -1.3677e-05 -3.60748e-06)
(7.83252e-07 2.69683e-07 0.000715346)
(-7.65937e-07 -2.87305e-07 -0.000715267)
(-4.43537e-06 0.000717869 -3.79404e-06)
(0.000621351 -1.46513e-05 -3.9617e-06)
(9.85843e-07 2.73815e-07 0.000714303)
(-9.52971e-07 -3.01435e-07 -0.000714527)
(-4.2556e-06 0.000718399 -4.77943e-06)
(0.0006193 -1.6638e-05 -3.87845e-06)
(1.09165e-06 2.51078e-07 0.000711172)
(-1.05804e-06 -2.88781e-07 -0.00071239)
(-3.08854e-06 0.000718168 -6.15329e-06)
(2.77903e-06 7.17117e-07 0.000727207)
(-4.37748e-06 -8.83158e-07 -0.000735935)
(-1.80192e-05 0.000747317 -4.11987e-06)
(0.000625563 -2.98374e-06 -1.76764e-08)
(-5.62661e-07 0.000706109 -1.23627e-08)
(7.84785e-09 8.82884e-09 0.000704948)
(0.000626103 -5.7488e-06 -3.42201e-08)
(-5.39537e-07 0.000705892 -3.69729e-08)
(7.71444e-09 2.63341e-08 0.000705471)
(0.000626632 -8.26922e-06 -4.93111e-08)
(-5.28323e-07 0.000705648 -6.19327e-08)
(8.01431e-09 4.40188e-08 0.000705961)
(0.000627177 -1.06052e-05 -6.32372e-08)
(-5.43964e-07 0.000705465 -8.87756e-08)
(8.91595e-09 6.30422e-08 0.000706484)
(0.000627762 -1.28061e-05 -7.65886e-08)
(-5.84532e-07 0.000705331 -1.19406e-07)
(1.02836e-08 8.46022e-08 0.000707066)
(0.000628412 -1.49138e-05 -8.93463e-08)
(-6.49972e-07 0.000705239 -1.5571e-07)
(1.18579e-08 1.09458e-07 0.000707731)
(0.000629154 -1.69573e-05 -1.0095e-07)
(-7.40889e-07 0.000705176 -1.99703e-07)
(1.31909e-08 1.37583e-07 0.000708501)
(0.000630013 -1.89467e-05 -1.10627e-07)
(-8.59204e-07 0.000705123 -2.53543e-07)
(1.35151e-08 1.67609e-07 0.000709398)
(0.000631021 -2.0871e-05 -1.1709e-07)
(-1.00827e-06 0.000705058 -3.19296e-07)
(1.13637e-08 1.95705e-07 0.000710445)
(0.00063221 -2.26804e-05 -1.18331e-07)
(-1.19116e-06 0.00070494 -3.98847e-07)
(4.0661e-09 2.13493e-07 0.000711658)
(0.000633618 -2.42843e-05 -1.13194e-07)
(-1.41393e-06 0.000704726 -4.93347e-07)
(-1.32898e-08 2.04293e-07 0.00071306)
(0.000635286 -2.55398e-05 -1.03204e-07)
(-1.68312e-06 0.000704355 -6.0045e-07)
(-4.84788e-08 1.37557e-07 0.000714671)
(0.000637249 -2.62666e-05 -9.86083e-08)
(-2.00011e-06 0.000703769 -7.06049e-07)
(-1.12391e-07 -3.76118e-08 0.000716524)
(0.000639487 -2.63465e-05 -1.26042e-07)
(-2.32974e-06 0.000702981 -7.63445e-07)
(-2.09813e-07 -3.89372e-07 0.00071867)
(0.000641686 -2.5951e-05 -2.12539e-07)
(-2.38632e-06 0.000702201 -6.81153e-07)
(-2.97095e-07 -9.44781e-07 0.000721071)
(-6.42863e-06 0.000700998 -4.28222e-07)
(-9.81912e-07 -2.32604e-06 0.00072615)
(0.000625541 -2.94186e-06 -5.30282e-08)
(-1.10179e-06 0.000709052 -2.42538e-08)
(2.31266e-08 8.35817e-09 0.000707915)
(0.000626059 -5.67002e-06 -1.02746e-07)
(-1.05591e-06 0.000708622 -7.24561e-08)
(2.2646e-08 2.48279e-08 0.000708193)
(0.000626565 -8.15743e-06 -1.48271e-07)
(-1.03284e-06 0.000708138 -1.21207e-07)
(2.34599e-08 4.12772e-08 0.000708412)
(0.000627084 -1.04631e-05 -1.90603e-07)
(-1.06194e-06 0.000707775 -1.73526e-07)
(2.60908e-08 5.88657e-08 0.000708722)
(0.000627641 -1.26404e-05 -2.31237e-07)
(-1.13961e-06 0.000707514 -2.33124e-07)
(3.01181e-08 7.88002e-08 0.000709138)
(0.000628258 -1.47315e-05 -2.70251e-07)
(-1.26473e-06 0.000707337 -3.0378e-07)
(3.48324e-08 1.01917e-07 0.000709674)
(0.000628956 -1.67642e-05 -3.06128e-07)
(-1.43824e-06 0.000707217 -3.89332e-07)
(3.91922e-08 1.28691e-07 0.000710334)
(0.000629762 -1.87545e-05 -3.36509e-07)
(-1.66375e-06 0.000707123 -4.93662e-07)
(4.12802e-08 1.59041e-07 0.00071112)
(0.000630698 -2.06998e-05 -3.5709e-07)
(-1.94542e-06 0.000707013 -6.20766e-07)
(3.72705e-08 1.91546e-07 0.000712031)
(0.00063179 -2.25737e-05 -3.61707e-07)
(-2.28757e-06 0.000706823 -7.74079e-07)
(2.02163e-08 2.22145e-07 0.000713043)
(0.000633055 -2.43092e-05 -3.46878e-07)
(-2.69423e-06 0.000706466 -9.54616e-07)
(-2.20553e-08 2.42655e-07 0.000714124)
(0.000634497 -2.57871e-05 -3.13117e-07)
(-3.16165e-06 0.000705827 -1.15542e-06)
(-1.07835e-07 2.39643e-07 0.000715215)
(0.000636069 -2.68322e-05 -2.82368e-07)
(-3.66129e-06 0.000704786 -1.34625e-06)
(-2.60099e-07 1.95747e-07 0.000716254)
(0.000637594 -2.72583e-05 -3.18797e-07)
(-4.06288e-06 0.000703342 -1.43736e-06)
(-4.81385e-07 9.93773e-08 0.000717229)
(0.000638631 -2.70467e-05 -4.89887e-07)
(-3.82695e-06 0.000701873 -1.27005e-06)
(-6.56082e-07 -2.76181e-08 0.000718242)
(-5.80807e-06 0.000697722 -4.18766e-07)
(-1.63893e-06 3.03077e-07 0.000717213)
(0.000625496 -2.85596e-06 -8.80221e-08)
(-1.59527e-06 0.000711908 -3.51271e-08)
(3.73514e-08 7.63782e-09 0.000710805)
(0.00062597 -5.50388e-06 -1.70337e-07)
(-1.52757e-06 0.000711271 -1.04876e-07)
(3.64212e-08 2.26407e-08 0.000710819)
(0.000626432 -7.91618e-06 -2.4599e-07)
(-1.49185e-06 0.000710553 -1.75342e-07)
(3.76468e-08 3.75711e-08 0.000710746)
(0.000626903 -1.01545e-05 -3.17081e-07)
(-1.53105e-06 0.000710017 -2.50887e-07)
(4.19128e-08 5.35849e-08 0.000710823)
(0.000627406 -1.22741e-05 -3.85899e-07)
(-1.63922e-06 0.000709638 -3.36776e-07)
(4.84904e-08 7.18689e-08 0.000711054)
(0.000627957 -1.43132e-05 -4.5261e-07)
(-1.81302e-06 0.000709382 -4.38312e-07)
(5.65188e-08 9.3487e-08 0.000711434)
(0.000628575 -1.63038e-05 -5.14893e-07)
(-2.05323e-06 0.000709215 -5.60714e-07)
(6.48618e-08 1.19623e-07 0.000711951)
(0.000629277 -1.82742e-05 -5.68811e-07)
(-2.36371e-06 0.000709102 -7.09213e-07)
(7.12067e-08 1.51549e-07 0.000712594)
(0.00063008 -2.02385e-05 -6.07017e-07)
(-2.74806e-06 0.000708988 -8.89096e-07)
(7.09666e-08 1.90766e-07 0.000713333)
(0.000630996 -2.2203e-05 -6.19718e-07)
(-3.20944e-06 0.0007088 -1.10456e-06)
(5.57264e-08 2.39256e-07 0.000714119)
(0.000632028 -2.41443e-05 -5.98232e-07)
(-3.74309e-06 0.000708423 -1.3555e-06)
(1.18694e-08 3.00455e-07 0.000714869)
(0.000633148 -2.59982e-05 -5.35025e-07)
(-4.32304e-06 0.000707701 -1.6291e-06)
(-7.98246e-08 3.81184e-07 0.000715448)
(0.000634268 -2.76367e-05 -4.45216e-07)
(-4.87497e-06 0.000706461 -1.87912e-06)
(-2.39418e-07 4.94964e-07 0.000715695)
(0.000635179 -2.88505e-05 -3.95329e-07)
(-5.17814e-06 0.000704639 -1.97975e-06)
(-4.56853e-07 6.64441e-07 0.000715517)
(0.00063556 -2.94449e-05 -4.7394e-07)
(-4.56976e-06 0.000702669 -1.7268e-06)
(-5.97463e-07 9.01599e-07 0.000715166)
(-6.5327e-06 0.00069885 -5.64003e-07)
(-1.02184e-06 1.37302e-06 0.000712846)
(0.000625431 -2.724e-06 -1.21359e-07)
(-2.02334e-06 0.000714633 -4.45223e-08)
(5.01859e-08 6.78459e-09 0.000713574)
(0.000625843 -5.24663e-06 -2.34726e-07)
(-1.93568e-06 0.000713795 -1.32924e-07)
(4.88511e-08 2.01572e-08 0.000713308)
(0.000626241 -7.54331e-06 -3.39169e-07)
(-1.8871e-06 0.000712852 -2.2215e-07)
(5.05202e-08 3.35834e-08 0.000712929)
(0.000626646 -9.67397e-06 -4.38415e-07)
(-1.93189e-06 0.000712151 -3.17592e-07)
(5.6387e-08 4.81212e-08 0.000712758)
(0.000627071 -1.16858e-05 -5.35837e-07)
(-2.06069e-06 0.000711654 -4.25806e-07)
(6.55352e-08 6.49618e-08 0.000712785)
(0.000627531 -1.36198e-05 -6.31153e-07)
(-2.26833e-06 0.000711322 -5.53113e-07)
(7.72699e-08 8.54162e-08 0.000712986)
(0.000628037 -1.55191e-05 -7.21501e-07)
(-2.55452e-06 0.000711122 -7.05632e-07)
(9.06507e-08 1.11116e-07 0.00071334)
(0.000628598 -1.74244e-05 -8.01837e-07)
(-2.92143e-06 0.000711017 -8.89519e-07)
(1.03766e-07 1.4436e-07 0.000713824)
(0.000629223 -1.93724e-05 -8.62804e-07)
(-3.37111e-06 0.000710948 -1.11063e-06)
(1.13087e-07 1.89027e-07 0.00071439)
(0.000629915 -2.13958e-05 -8.91587e-07)
(-3.9032e-06 0.00071084 -1.37329e-06)
(1.11995e-07 2.5204e-07 0.00071497)
(0.000630666 -2.35266e-05 -8.70966e-07)
(-4.50592e-06 0.000710578 -1.67619e-06)
(9.05667e-08 3.45487e-07 0.000715451)
(0.000631449 -2.57785e-05 -7.8136e-07)
(-5.13571e-06 0.000709993 -2.00173e-06)
(3.56089e-08 4.89453e-07 0.000715662)
(0.00063219 -2.81045e-05 -6.1282e-07)
(-5.67915e-06 0.000708864 -2.29088e-06)
(-6.63032e-08 7.11397e-07 0.000715371)
(0.000632751 -3.03137e-05 -4.01003e-07)
(-5.86463e-06 0.000707007 -2.39112e-06)
(-2.06001e-07 1.03275e-06 0.000714405)
(0.000632973 -3.19882e-05 -2.48337e-07)
(-4.99664e-06 0.000704659 -2.06711e-06)
(-2.96561e-07 1.42053e-06 0.000713041)
(-6.62704e-06 0.000701405 -7.18343e-07)
(-4.55317e-07 1.92896e-06 0.00071015)
(0.000625351 -2.54578e-06 -1.51971e-07)
(-2.37048e-06 0.000717179 -5.21002e-08)
(6.16594e-08 6.09914e-09 0.000716178)
(0.000625685 -4.89928e-06 -2.94535e-07)
(-2.26523e-06 0.00071615 -1.55515e-07)
(6.00405e-08 1.8163e-08 0.000715621)
(0.000626006 -7.03836e-06 -4.2627e-07)
(-2.20386e-06 0.000714993 -2.59705e-07)
(6.22088e-08 3.0348e-08 0.00071493)
(0.000626327 -9.01407e-06 -5.52593e-07)
(-2.24878e-06 0.000714129 -3.7081e-07)
(6.96416e-08 4.3626e-08 0.0007145)
(0.000626659 -1.08693e-05 -6.77351e-07)
(-2.38752e-06 0.000713514 -4.96215e-07)
(8.14273e-08 5.91923e-08 0.000714304)
(0.00062701 -1.26507e-05 -7.9976e-07)
(-2.61308e-06 0.000713109 -6.42831e-07)
(9.71018e-08 7.84031e-08 0.000714309)
(0.000627384 -1.44042e-05 -9.17825e-07)
(-2.92266e-06 0.000712883 -8.173e-07)
(1.16152e-07 1.03061e-07 0.00071449)
(0.000627784 -1.61746e-05 -1.02663e-06)
(-3.31518e-06 0.000712797 -1.02615e-06)
(1.37731e-07 1.36041e-07 0.000714812)
(0.000628207 -1.80151e-05 -1.11591e-06)
(-3.78938e-06 0.000712802 -1.27533e-06)
(1.60469e-07 1.82363e-07 0.000715218)
(0.000628649 -1.99887e-05 -1.16993e-06)
(-4.34195e-06 0.000712833 -1.56901e-06)
(1.81504e-07 2.50861e-07 0.000715633)
(0.000629102 -2.21802e-05 -1.16438e-06)
(-4.96045e-06 0.000712799 -1.90538e-06)
(1.96773e-07 3.5622e-07 0.000715943)
(0.000629556 -2.46876e-05 -1.0637e-06)
(-5.5979e-06 0.00071255 -2.26445e-06)
(2.01922e-07 5.21694e-07 0.000715978)
(0.000629988 -2.75682e-05 -8.21614e-07)
(-6.12866e-06 0.000711835 -2.57983e-06)
(1.87753e-07 7.77445e-07 0.000715477)
(0.000630355 -3.06891e-05 -4.20832e-07)
(-6.25913e-06 0.000710302 -2.68278e-06)
(1.44331e-07 1.1406e-06 0.000714155)
(0.000630574 -3.3391e-05 3.59922e-08)
(-5.25019e-06 0.000707684 -2.31606e-06)
(7.32248e-08 1.56064e-06 0.000712016)
(-6.46689e-06 0.000705114 -8.73614e-07)
(6.00319e-08 2.03283e-06 0.000709054)
(0.000625259 -2.32492e-06 -1.79802e-07)