/*--------------------------------*- C++ -*----------------------------------*\
| =========                 |                                                 |
| \\      /  F ield         | foam-extend: Open Source CFD                    |
|  \\    /   O peration     | Version:     3.1                                |
|   \\  /    A nd           | Web:         http://www.extend-project.de       |
|    \\/     M anipulation  |                                                 |
\*---------------------------------------------------------------------------*/
FoamFile
{
    version     2.0;
    format      ascii;
    class       volVectorField;
    location    "2.9";
    object      U;
}
// * * * * * * * * * * * * * * * * * * * * * * * * * * * * * * * * * * * * * //

dimensions      [0 1 -1 0 0 0 0];

internalField   nonuniform List<vector> 
14592
(
(0.0190073 -8.28674e-05 -0.00165562)
(0.0189227 7.67859e-05 -0.0030226)
(0.0186001 0.000210092 -0.00393943)
(0.0180629 0.000290744 -0.00483174)
(0.0174049 0.000335872 -0.0058176)
(0.0167271 0.000348405 -0.00692693)
(0.0161212 0.000328703 -0.00817526)
(0.0156556 0.000279047 -0.00959355)
(0.0153659 0.000200993 -0.011245)
(0.0152608 8.88155e-05 -0.0132406)
(0.0153438 -8.03049e-05 -0.0157619)
(0.0156446 -0.000350048 -0.0190892)
(0.0162332 -0.000786259 -0.0236098)
(0.017007 -0.00134616 -0.0296052)
(0.0166135 -0.00138043 -0.0358975)
(0.0116594 0.000298974 -0.0321257)
(0.0529466 6.53012e-06 -0.00196327)
(0.0526819 0.000356579 -0.0046289)
(0.0520984 0.000719983 -0.0068168)
(0.0511974 0.00098122 -0.00901873)
(0.0500628 0.00111282 -0.0114312)
(0.0488221 0.00111642 -0.01409)
(0.0476167 0.00101929 -0.0169784)
(0.0465538 0.000864893 -0.0200993)
(0.0456708 0.000692321 -0.0235226)
(0.0449262 0.000511987 -0.0274263)
(0.0442143 0.000277425 -0.03214)
(0.0433775 -0.000132346 -0.0382046)
(0.0421991 -0.000918168 -0.0463793)
(0.0400926 -0.00218078 -0.0571382)
(0.0343134 -0.00307136 -0.0674431)
(0.0194653 -0.00110811 -0.054938)
(0.0822068 0.000153541 -0.00158198)
(0.0819623 0.000679251 -0.00424668)
(0.0814272 0.0012469 -0.00672367)
(0.0805806 0.0017107 -0.00938728)
(0.0794232 0.00198578 -0.0124489)
(0.0779982 0.002047 -0.0159559)
(0.0764063 0.00193256 -0.0198572)
(0.0747575 0.00172831 -0.0240829)
(0.0731117 0.00153039 -0.0286187)
(0.0714316 0.00140257 -0.0335767)
(0.0695603 0.0013248 -0.0392703)
(0.0671883 0.00115737 -0.0463117)
(0.0638378 0.000606393 -0.0557093)
(0.0585543 -0.000710432 -0.0684652)
(0.0475082 -0.00243867 -0.0813466)
(0.0238141 -0.00175075 -0.0655473)
(0.10661 0.000259396 -0.0012532)
(0.106429 0.000913558 -0.00351273)
(0.106023 0.00161712 -0.00571078)
(0.105365 0.00224432 -0.00817702)
(0.104379 0.00268849 -0.0111754)
(0.102986 0.00289895 -0.0148317)
(0.101186 0.00290362 -0.0191337)
(0.0990395 0.00280485 -0.0239826)
(0.0966205 0.00274331 -0.0292739)
(0.0939377 0.00284986 -0.0349953)
(0.090869 0.00317865 -0.0413427)
(0.0870657 0.00365899 -0.0488699)
(0.0818897 0.0040261 -0.0586997)
(0.0741964 0.00370313 -0.0724805)
(0.0591259 0.00196848 -0.0877326)
(0.0275695 -0.000237623 -0.0717497)
(0.126127 0.000338367 -0.00104693)
(0.125989 0.001087 -0.00294758)
(0.125682 0.00187412 -0.00477658)
(0.125197 0.00261828 -0.00682586)
(0.124424 0.00323117 -0.00940493)
(0.123189 0.0036602 -0.0127448)
(0.121373 0.00392083 -0.016939)
(0.118947 0.00410838 -0.0219395)
(0.115958 0.00437749 -0.0276126)
(0.112448 0.00490766 -0.0338456)
(0.108367 0.00583663 -0.0406927)
(0.103411 0.00721977 -0.0485781)
(0.096888 0.0089396 -0.0585784)
(0.0876443 0.0105432 -0.0728765)
(0.0699535 0.010174 -0.0901683)
(0.0313892 0.00434546 -0.0752759)
(0.14076 0.000401174 -0.000912287)
(0.140648 0.00122961 -0.00256528)
(0.140407 0.00207811 -0.004116)
(0.140051 0.00291099 -0.00580043)
(0.139473 0.00367957 -0.00792798)
(0.138454 0.00435351 -0.010799)
(0.136785 0.00494994 -0.014614)
(0.134343 0.00555383 -0.0194163)
(0.131124 0.00631264 -0.0251032)
(0.12717 0.00742827 -0.0315161)
(0.1225 0.00910397 -0.0385952)
(0.116889 0.0115501 -0.0466252)
(0.109662 0.0148625 -0.0565173)
(0.0997727 0.019114 -0.0707806)
(0.0811417 0.0218443 -0.0895963)
(0.0362706 0.0129722 -0.0763206)
(0.150512 0.00044905 -0.00081598)
(0.150421 0.00134206 -0.0022937)
(0.150237 0.00223726 -0.00365478)
(0.14999 0.00313833 -0.0050842)
(0.149592 0.00404132 -0.00686315)
(0.148814 0.00495112 -0.00931246)
(0.1474 0.00590041 -0.0126971)
(0.145169 0.00696962 -0.0171353)
(0.142075 0.00829059 -0.0225707)
(0.138154 0.0100659 -0.028834)
(0.133496 0.0125352 -0.0357851)
(0.127958 0.0160765 -0.0435824)
(0.121024 0.0210229 -0.0528976)
(0.111596 0.0284604 -0.0662296)
(0.094946 0.0367955 -0.0857634)
(0.0445647 0.0285765 -0.0740303)
(0.155386 0.000480608 -0.000744422)
(0.155317 0.00141367 -0.00208894)
(0.155197 0.0023332 -0.00331209)
(0.155066 0.00327631 -0.00456774)
(0.154851 0.00428184 -0.00610967)
(0.154328 0.00539253 -0.00825164)
(0.153236 0.00666171 -0.0112763)
(0.151376 0.00816701 -0.0153318)
(0.148699 0.0100181 -0.0203831)
(0.145256 0.0123963 -0.02625)
(0.141251 0.0155376 -0.0327296)
(0.136634 0.0199361 -0.0398468)
(0.131485 0.0261344 -0.0480049)
(0.123898 0.0361394 -0.0589895)
(0.116169 0.0542503 -0.0777859)
(0.0625937 0.0531252 -0.0657015)
(0.020308 -0.000102691 -0.0016125)
(0.020157 4.84612e-05 -0.00295713)
(0.0197144 0.000182087 -0.00386135)
(0.0190125 0.00026099 -0.00474116)
(0.0181437 0.000303892 -0.00571719)
(0.0172011 0.000313652 -0.00682273)
(0.0162703 0.000288756 -0.00807299)
(0.0154123 0.000229883 -0.00949301)
(0.0146497 0.000138179 -0.0111341)
(0.0139636 7.1927e-06 -0.0130843)
(0.0133079 -0.000184064 -0.0154815)
(0.0126237 -0.000487536 -0.0185146)
(0.0118386 -0.00096701 -0.0223531)
(0.0106269 -0.00159097 -0.0267701)
(0.00795503 -0.00206214 -0.0297734)
(0.00370637 -0.00180649 -0.0228385)
(0.0566311 -1.97038e-05 -0.00186867)
(0.0562549 0.000297223 -0.00444647)
(0.0554621 0.000644452 -0.00656172)
(0.0542569 0.000892865 -0.00868015)
(0.0527202 0.00100992 -0.0110051)
(0.0509615 0.000992946 -0.0135877)
(0.0491061 0.000865961 -0.0164199)
(0.047246 0.000672402 -0.0194982)
(0.0453952 0.000454408 -0.0228693)
(0.0434672 0.000223496 -0.0266682)
(0.0412726 -7.08665e-05 -0.0311441)
(0.0385177 -0.000565254 -0.0366694)
(0.0347932 -0.00147485 -0.0435773)
(0.0291501 -0.00290304 -0.0512631)
(0.0195889 -0.00431379 -0.0552062)
(0.00755079 -0.00388758 -0.0391904)
(0.0879528 0.000133298 -0.0014821)
(0.0876036 0.000617415 -0.00402514)
(0.0868543 0.00115653 -0.00638858)
(0.0856852 0.00159909 -0.00890796)
(0.0840944 0.00185083 -0.0117974)
(0.0820961 0.00187635 -0.0151302)
(0.0797566 0.00170745 -0.0188814)
(0.0771534 0.00143198 -0.0229908)
(0.0743118 0.00115607 -0.0274269)
(0.0711426 0.000954075 -0.0322504)
(0.0673979 0.000804442 -0.037681)
(0.0626133 0.000545655 -0.0441409)
(0.0560723 -0.000164964 -0.0521526)
(0.0462657 -0.00172515 -0.0612772)
(0.0301021 -0.00388318 -0.0660635)
(0.010531 -0.00445676 -0.0467028)
(0.114071 0.0002497 -0.00116661)
(0.1138 0.000872616 -0.00331168)
(0.113197 0.00155139 -0.00539944)
(0.11224 0.00216193 -0.00770814)
(0.110856 0.00258869 -0.0104883)
(0.108937 0.00276767 -0.0138903)
(0.106425 0.00271633 -0.0179445)
(0.103323 0.00253887 -0.022587)
(0.0996436 0.00239236 -0.0277179)
(0.0953305 0.0024314 -0.0332845)
(0.0901643 0.00272739 -0.0393822)
(0.0836255 0.0032002 -0.0463643)
(0.0748176 0.00352994 -0.0548768)
(0.0618447 0.0030763 -0.0649102)
(0.0402126 0.0011476 -0.0709031)
(0.0135034 -0.00188427 -0.050909)
(0.134958 0.000338205 -0.000973161)
(0.134741 0.00107447 -0.0027794)
(0.134255 0.00185142 -0.00452689)
(0.133492 0.00259347 -0.00644767)
(0.132363 0.00320707 -0.0088143)
(0.130674 0.00362779 -0.0118651)
(0.128241 0.00385978 -0.0157396)
(0.124949 0.00399851 -0.0204474)
(0.12075 0.00421655 -0.0258894)
(0.115591 0.00472703 -0.0319355)
(0.109311 0.00570758 -0.0385479)
(0.101429 0.0072389 -0.0459408)
(0.0909963 0.00919909 -0.0547482)
(0.0760113 0.0110047 -0.0654099)
(0.0503348 0.0107485 -0.0726462)
(0.016874 0.00447661 -0.0530254)
(0.150618 0.000408518 -0.000847708)
(0.150437 0.00124347 -0.00242187)
(0.150031 0.00209944 -0.0039193)
(0.149413 0.00294782 -0.00551719)
(0.148509 0.00373884 -0.00746952)
(0.147096 0.00443517 -0.0100596)
(0.144911 0.00504658 -0.0135228)
(0.14173 0.00565932 -0.0179703)
(0.137424 0.0064387 -0.0233612)
(0.131909 0.00762573 -0.0295492)
(0.12507 0.00948248 -0.0364042)
(0.116497 0.0122834 -0.0440006)
(0.105265 0.0162137 -0.0528503)
(0.0895804 0.0212241 -0.0637842)
(0.0616903 0.0245527 -0.0720951)
(0.0216528 0.0158091 -0.0531416)
(0.161055 0.000461927 -0.000758212)
(0.160902 0.00137741 -0.00216706)
(0.160568 0.00229679 -0.00349318)
(0.160074 0.00322981 -0.00486964)
(0.159371 0.00417451 -0.00651399)
(0.158244 0.00513518 -0.00871052)
(0.156401 0.00614434 -0.0117426)
(0.153558 0.0072892 -0.015796)
(0.149534 0.00872152 -0.0208924)
(0.144216 0.0106859 -0.0269013)
(0.137545 0.0134929 -0.0336404)
(0.129211 0.017622 -0.041078)
(0.118406 0.0236032 -0.0495335)
(0.103735 0.0326105 -0.0601213)
(0.0770104 0.0423989 -0.0692266)
(0.0303201 0.0356621 -0.0507297)
(0.166271 0.000497378 -0.000691596)
(0.166146 0.00146551 -0.00197447)
(0.165888 0.00242349 -0.00317338)
(0.165528 0.00341201 -0.00439596)
(0.16503 0.00447365 -0.00583088)
(0.1642 0.00565678 -0.00774591)
(0.162749 0.00702327 -0.0104311)
(0.160389 0.00866521 -0.0140976)
(0.156939 0.0107152 -0.0187949)
(0.152303 0.0133979 -0.0243985)
(0.146541 0.0170211 -0.0306878)
(0.139497 0.0222148 -0.0375431)
(0.130917 0.0297621 -0.0450582)
(0.119336 0.0423277 -0.0542857)
(0.102681 0.0634769 -0.0640147)
(0.0484998 0.0644323 -0.0444632)
(0.021419 -0.000121888 -0.00150153)
(0.0212033 1.99305e-05 -0.00276202)
(0.0206461 0.000153484 -0.00361019)
(0.0197904 0.000229648 -0.0044339)
(0.0187285 0.000268657 -0.0053496)
(0.0175466 0.000273353 -0.00639121)
(0.0163245 0.000240565 -0.00757213)
(0.0151178 0.000169646 -0.00890948)
(0.0139425 6.37918e-05 -0.010438)
(0.0127683 -8.67253e-05 -0.0122126)
(0.0115283 -0.000301317 -0.0143161)
(0.0101405 -0.000619634 -0.0168397)
(0.00852447 -0.00109299 -0.0197786)
(0.00648417 -0.00170807 -0.0226856)
(0.00372434 -0.00233987 -0.0236093)
(0.000847383 -0.0023239 -0.0162782)
(0.0597865 -4.33273e-05 -0.00170718)
(0.0593055 0.000241821 -0.00409157)
(0.0583173 0.00057237 -0.00604625)
(0.0568323 0.000805978 -0.00799347)
(0.0549323 0.000905231 -0.0101299)
(0.0527128 0.000863425 -0.0125148)
(0.0502842 0.000701309 -0.0151462)
(0.0477256 0.000462029 -0.0180145)
(0.0450345 0.000192872 -0.0211395)
(0.0421009 -8.89801e-05 -0.0246016)
(0.0387052 -0.000432818 -0.0285533)
(0.0345264 -0.000967716 -0.0331871)
(0.0291664 -0.00189189 -0.0385156)
(0.0219446 -0.00330332 -0.0435313)
(0.0123298 -0.0048771 -0.0439421)
(0.00290831 -0.00470402 -0.0278685)
(0.0928765 0.000116322 -0.00133635)
(0.0924316 0.000563169 -0.00366339)
(0.091485 0.0010748 -0.00582635)
(0.0900201 0.0014951 -0.00811365)
(0.0880378 0.00172106 -0.0107266)
(0.0855323 0.00170763 -0.0137514)
(0.0825398 0.00147955 -0.0171828)
(0.0791085 0.00112552 -0.0209695)
(0.0752367 0.000761476 -0.0250638)
(0.0708024 0.000478679 -0.0294737)
(0.0655173 0.000266977 -0.0343126)
(0.0588814 -3.39763e-05 -0.0398017)
(0.050176 -0.000763201 -0.0460767)
(0.0381187 -0.002295 -0.0521036)
(0.0215754 -0.00455466 -0.0525502)
(0.00507575 -0.00535643 -0.0327461)
(0.120465 0.000242534 -0.00104656)
(0.120113 0.00083959 -0.00300022)
(0.119332 0.00149622 -0.00490519)
(0.118097 0.00209081 -0.00698793)
(0.11635 0.00250025 -0.00947057)
(0.113961 0.00264778 -0.0125072)
(0.11083 0.00253922 -0.0161552)
(0.106905 0.00227832 -0.0203787)
(0.102149 0.00203674 -0.0250849)
(0.0964547 0.00199436 -0.0301858)
(0.0895564 0.0022512 -0.0356714)
(0.0808886 0.0027414 -0.04169)
(0.0695342 0.00314169 -0.0484691)
(0.0536781 0.00281513 -0.0552377)
(0.0310886 0.000903206 -0.0563047)
(0.00754238 -0.0023197 -0.0352128)
(0.142527 0.000339808 -0.000872022)
(0.14224 0.00106845 -0.00251682)
(0.141593 0.00183812 -0.00411837)
(0.140573 0.00257951 -0.00585682)
(0.139111 0.00319548 -0.00795888)
(0.137005 0.0036105 -0.0106462)
(0.13403 0.00381582 -0.0140767)
(0.129997 0.00390378 -0.0182989)
(0.124775 0.00406117 -0.0232449)
(0.118233 0.00453354 -0.0287729)
(0.110144 0.00554151 -0.0347578)
(0.0999712 0.00720544 -0.0412099)
(0.0867613 0.00942001 -0.0483453)
(0.0684108 0.011569 -0.0557128)
(0.041093 0.0115099 -0.0576324)
(0.0106655 0.00506029 -0.0362804)
(0.159067 0.00041711 -0.000759608)
(0.158825 0.00126231 -0.00219386)
(0.158274 0.00212824 -0.00357544)
(0.157415 0.0029935 -0.00503712)
(0.156198 0.00380868 -0.00677798)
(0.154412 0.00453028 -0.0090434)
(0.15176 0.00515909 -0.0120691)
(0.147945 0.00577882 -0.0160031)
(0.142733 0.00656732 -0.0208516)
(0.135926 0.0077993 -0.0264828)
(0.127317 0.00979061 -0.0327046)
(0.116429 0.0128802 -0.0393988)
(0.102356 0.0173193 -0.0466868)
(0.0830824 0.0230132 -0.0544356)
(0.0528482 0.0268613 -0.0572531)
(0.0155178 0.0180375 -0.0360693)
(0.17009 0.000475906 -0.000679651)
(0.169883 0.00141669 -0.00196349)
(0.169418 0.00236236 -0.00319295)
(0.168699 0.00332872 -0.0044663)
(0.167702 0.0043166 -0.00594583)
(0.166235 0.00532981 -0.00786483)
(0.163989 0.00639908 -0.0104898)
(0.160618 0.00761438 -0.0140342)
(0.155826 0.00914151 -0.0185738)
(0.149372 0.0112588 -0.0240132)
(0.141079 0.0143351 -0.0301376)
(0.130559 0.0189315 -0.0367461)
(0.117039 0.0257064 -0.0438243)
(0.0989586 0.0358545 -0.0515487)
(0.069256 0.0466441 -0.0552942)
(0.0246887 0.0402289 -0.0343754)
(0.175599 0.000515377 -0.000620004)
(0.175425 0.00152074 -0.00178928)
(0.175049 0.00251903 -0.00290422)
(0.174481 0.00355483 -0.00404395)
(0.173712 0.00467421 -0.00534459)
(0.172574 0.00592998 -0.00701841)
(0.170779 0.00739027 -0.00932932)
(0.167983 0.0091581 -0.0125094)
(0.163903 0.0113839 -0.0166637)
(0.158312 0.0143261 -0.0217164)
(0.151154 0.0183478 -0.027441)
(0.142205 0.0241727 -0.0335884)
(0.131227 0.0327384 -0.0399986)
(0.116895 0.0469795 -0.0470078)
(0.097201 0.0698734 -0.0520298)
(0.0432792 0.0705762 -0.0305606)
(0.0223423 -0.000139548 -0.00132689)
(0.0220665 -7.45431e-06 -0.00244589)
(0.0214048 0.000126414 -0.00319847)
(0.0204111 0.000199772 -0.00392732)
(0.0191788 0.000234349 -0.00473796)
(0.0177889 0.000233415 -0.00566219)
(0.0163174 0.000192284 -0.00671077)
(0.0148176 0.0001084 -0.00789391)
(0.0133062 -1.2789e-05 -0.00922729)
(0.0117523 -0.000182079 -0.0107392)
(0.0100898 -0.000412693 -0.0124671)
(0.00825001 -0.000733161 -0.0144305)
(0.00619451 -0.00118029 -0.0165389)
(0.00389833 -0.0017489 -0.0183209)
(0.00152612 -0.00238349 -0.0182058)
(-0.000342751 -0.00235895 -0.0118526)
(0.0624139 -6.37809e-05 -0.00148537)
(0.061839 0.000192525 -0.00358019)
(0.0606759 0.00050791 -0.00529548)
(0.0589418 0.000727358 -0.00699542)
(0.0567242 0.000808921 -0.00885761)
(0.0541078 0.000742133 -0.0109419)
(0.0511922 0.000544705 -0.0132497)
(0.0480491 0.000260376 -0.0157663)
(0.0446698 -5.82072e-05 -0.0184919)
(0.0409379 -0.000387857 -0.0214562)
(0.0366382 -0.000767257 -0.0247298)
(0.0314805 -0.00130847 -0.0283783)
(0.0251651 -0.00218253 -0.032252)
(0.0173613 -0.00347973 -0.0353131)
(0.00842285 -0.00498984 -0.0340918)
(0.00089296 -0.00481079 -0.0203537)
(0.0969786 0.000102495 -0.00115058)
(0.0964497 0.000517639 -0.00317728)
(0.0953289 0.00100489 -0.00506183)
(0.0936016 0.00140483 -0.00704119)
(0.0912769 0.00160689 -0.0092921)
(0.0883346 0.00155678 -0.0119005)
(0.0847897 0.00127195 -0.0148741)
(0.0806693 0.000842165 -0.0181697)
(0.0759522 0.000393229 -0.021732)
(0.070501 3.24054e-05 -0.0255304)
(0.0640276 -0.000227487 -0.029587)
(0.056064 -0.000528956 -0.0339769)
(0.0459973 -0.001184 -0.0386221)
(0.0329422 -0.0025482 -0.04237)
(0.0169735 -0.00467742 -0.040804)
(0.00270311 -0.00549234 -0.0237513)
(0.125793 0.000237341 -0.000897479)
(0.125371 0.000813786 -0.0025921)
(0.124434 0.00145184 -0.00424833)
(0.122955 0.00203286 -0.00604393)
(0.120886 0.00242773 -0.00816401)
(0.118088 0.00254795 -0.0107504)
(0.114431 0.00238789 -0.0138708)
(0.109824 0.00204845 -0.0175095)
(0.104185 0.00171365 -0.0215835)
(0.097381 0.00159056 -0.0259841)
(0.0891361 0.00181328 -0.0306333)
(0.0789098 0.00234391 -0.0355307)
(0.0658797 0.00288033 -0.0406431)
(0.0485824 0.00279157 -0.0449717)
(0.0262474 0.00107491 -0.0436801)
(0.00499638 -0.00219634 -0.025325)
(0.148833 0.000342236 -0.000747248)
(0.148488 0.00106673 -0.00217291)
(0.147702 0.0018316 -0.00356941)
(0.146456 0.00257366 -0.00507363)
(0.144696 0.00319374 -0.00686507)
(0.142221 0.00360664 -0.00913351)
(0.138778 0.00379092 -0.0120316)
(0.134128 0.003833 -0.0156271)
(0.128075 0.00393003 -0.0198765)
(0.120429 0.00435882 -0.0246399)
(0.110934 0.00538045 -0.0297416)
(0.099072 0.00716113 -0.0350575)
(0.0839874 0.00962212 -0.0405413)
(0.0638299 0.0121298 -0.0454097)
(0.0363444 0.0123594 -0.0446896)
(0.00810007 0.00580992 -0.0259181)
(0.166106 0.000425733 -0.000651076)
(0.165812 0.00128268 -0.00189414)
(0.165139 0.00215946 -0.00310352)
(0.16407 0.0030413 -0.00437874)
(0.162573 0.0038803 -0.00587026)
(0.160448 0.00462835 -0.00777637)
(0.157384 0.0052769 -0.0103082)
(0.153037 0.00590425 -0.0136211)
(0.147091 0.00669599 -0.01775)
(0.139265 0.00795409 -0.0225828)
(0.129293 0.0100407 -0.0278992)
(0.116695 0.0133532 -0.0334673)
(0.100681 0.0181932 -0.039166)
(0.0793815 0.0244325 -0.0444615)
(0.0485172 0.0287376 -0.0444735)
(0.0131183 0.0198024 -0.0256962)
(0.177618 0.000489495 -0.000582817)
(0.177365 0.00145546 -0.00169538)
(0.17679 0.0024268 -0.0027742)
(0.175878 0.00342485 -0.00389365)
(0.174618 0.00445376 -0.00517199)
(0.172837 0.00551749 -0.00678939)
(0.170227 0.00664416 -0.00897343)
(0.166403 0.00792345 -0.0119318)
(0.160992 0.00952941 -0.0157663)
(0.153652 0.0117651 -0.0204126)
(0.144124 0.0150436 -0.0256503)
(0.131994 0.0199886 -0.0311898)
(0.116609 0.0273387 -0.0368162)
(0.0965156 0.0382744 -0.0422876)
(0.065715 0.049749 -0.043223)
(0.0226793 0.0433868 -0.0246167)
(0.183372 0.000532814 -0.000531776)
(0.183155 0.00157403 -0.00154509)
(0.182681 0.00261077 -0.00252485)
(0.181936 0.0036914 -0.00353179)
(0.180925 0.00486539 -0.00466276)
(0.179501 0.0061892 -0.00607686)
(0.177386 0.00773546 -0.00799335)
(0.174212 0.00961465 -0.0106315)
(0.169626 0.0119892 -0.0141199)
(0.1633 0.0151414 -0.0184211)
(0.155091 0.0194719 -0.0233231)
(0.144737 0.0257655 -0.0285179)
(0.132101 0.0350477 -0.0337038)
(0.116034 0.0503568 -0.0388738)
(0.09504 0.074302 -0.0412504)
(0.0414583 0.0744903 -0.0222007)
(0.0230792 -0.000154728 -0.00109596)
(0.0227513 -3.1723e-05 -0.00202358)
(0.0219997 0.000102667 -0.00264607)
(0.0208887 0.000173607 -0.00324745)
(0.0195137 0.000204178 -0.00391612)
(0.0179523 0.000197851 -0.00467919)
(0.0162778 0.000149158 -0.00554448)
(0.0145468 5.66481e-05 -0.00651665)
(0.0127782 -8.19311e-05 -0.00759806)
(0.0109469 -0.000267504 -0.00879903)
(0.00900085 -0.000508134 -0.0101258)
(0.00689491 -0.000823435 -0.0115607)
(0.00463804 -0.00123947 -0.0129903)
(0.00232697 -0.00175183 -0.0140139)
(0.000354226 -0.0023362 -0.0134883)
(-0.000864569 -0.00229463 -0.00850422)
(0.0645146 -8.06221e-05 -0.0012118)
(0.0638599 0.000151119 -0.00293331)
(0.0625487 0.000453766 -0.00434211)
(0.0606045 0.000661108 -0.00573167)
(0.0581218 0.000727146 -0.00725052)
(0.0551799 0.000638451 -0.00895241)
(0.0518715 0.000409701 -0.0108403)
(0.0482638 8.62241e-05 -0.0128971)
(0.0443494 -0.000278436 -0.0151104)
(0.0400214 -0.00065044 -0.0174782)
(0.0350826 -0.00105144 -0.0200169)
(0.029291 -0.00157643 -0.0227187)
(0.0224574 -0.00237649 -0.0253877)
(0.0145155 -0.00353351 -0.0271422)
(0.00625228 -0.00491014 -0.0254201)
(-4.23845e-05 -0.00471071 -0.0146733)
(0.10026 9.1618e-05 -0.000931118)
(0.0996607 0.000481096 -0.00258565)
(0.0983942 0.000948162 -0.00412509)
(0.0964467 0.00133118 -0.00573317)
(0.0938359 0.0015132 -0.00755365)
(0.0905347 0.00143202 -0.00966276)
(0.0865434 0.00109839 -0.0120732)
(0.0818743 0.000601724 -0.0147512)
(0.0764957 7.96555e-05 -0.017643)
(0.0702752 -0.000344221 -0.0206961)
(0.0629402 -0.000639758 -0.0238804)
(0.0540683 -0.000922221 -0.0271822)
(0.043182 -0.00146536 -0.0304474)
(0.0297313 -0.00262162 -0.0326571)
(0.01441 -0.00455367 -0.0304882)
(0.00160805 -0.00535837 -0.0170851)
(0.130054 0.000233659 -0.000724127)
(0.129576 0.000794311 -0.00210303)
(0.12851 0.00141762 -0.00345372)
(0.126826 0.00198794 -0.0049093)
(0.124488 0.00237166 -0.00661438)
(0.121351 0.0024703 -0.00868716)
(0.117267 0.00226784 -0.0111923)
(0.112116 0.0018614 -0.0141264)
(0.105791 0.00144643 -0.0174195)
(0.0981406 0.00125571 -0.0209621)
(0.0888957 0.00145051 -0.0246476)
(0.0775809 0.00202612 -0.0283998)
(0.0634953 0.00271572 -0.0320641)
(0.0454946 0.00288442 -0.0347114)
(0.023604 0.00140669 -0.032649)
(0.00385811 -0.00188942 -0.0181429)
(0.153877 0.000344838 -0.000602632)
(0.153484 0.00106748 -0.00176169)
(0.152586 0.00182943 -0.00290254)
(0.151151 0.00257291 -0.00412577)
(0.14914 0.00319783 -0.00556617)
(0.146356 0.0036116 -0.00737357)
(0.142528 0.00378108 -0.00967904)
(0.137384 0.00378593 -0.0125521)
(0.130685 0.00382967 -0.0159666)
(0.122201 0.00421351 -0.0197993)
(0.111666 0.00524161 -0.0238654)
(0.0986114 0.00712088 -0.0279849)
(0.0823059 0.00979432 -0.031992)
(0.0611796 0.0126191 -0.0350941)
(0.0338564 0.0131357 -0.033421)
(0.00701878 0.00651008 -0.0185119)
(0.171737 0.000433538 -0.000525222)
(0.171401 0.00130197 -0.00153555)
(0.170627 0.00218914 -0.00252564)
(0.169386 0.00308578 -0.00356874)
(0.167654 0.00394616 -0.00477411)
(0.165242 0.0047191 -0.0062915)
(0.161833 0.00538765 -0.0082926)
(0.157054 0.00602362 -0.0109172)
(0.150538 0.00681597 -0.0142114)
(0.141945 0.008087 -0.018087)
(0.13097 0.0102376 -0.0223331)
(0.117165 0.0137131 -0.026685)
(0.0998637 0.0188518 -0.0309204)
(0.0774158 0.0255031 -0.034428)
(0.0463914 0.0301805 -0.0333335)
(0.0122024 0.0211381 -0.0183627)
(0.18364 0.000501588 -0.000470356)
(0.183348 0.00149033 -0.00137449)
(0.182684 0.00248465 -0.00225866)
(0.181615 0.00351042 -0.00317882)
(0.180136 0.00457518 -0.00421892)
(0.178087 0.00568354 -0.00551022)
(0.175166 0.00686115 -0.00723104)
(0.17097 0.00819563 -0.00955956)
(0.165077 0.00986471 -0.012599)
(0.157074 0.0121881 -0.0163102)
(0.146649 0.0156105 -0.0204956)
(0.133384 0.0208012 -0.0248544)
(0.116748 0.0285487 -0.0291)
(0.095462 0.0400175 -0.0328624)
(0.0641649 0.0519744 -0.0325735)
(0.0220554 0.0456137 -0.0177089)
(0.189589 0.000548311 -0.000429247)
(0.189337 0.00162129 -0.00125275)
(0.188783 0.00269187 -0.00205626)
(0.187897 0.00381167 -0.00288641)
(0.186684 0.00503325 -0.0038111)
(0.185015 0.00641616 -0.00494341)
(0.182624 0.00803621 -0.00645132)
(0.179135 0.0100085 -0.00851891)
(0.174153 0.0125028 -0.0112713)
(0.167282 0.0158164 -0.0146972)
(0.158315 0.0203733 -0.0186176)
(0.146972 0.0269971 -0.022732)
(0.133212 0.0367602 -0.0267046)
(0.116058 0.0527441 -0.0303918)
(0.0944119 0.0773754 -0.0314002)
(0.0409484 0.077173 -0.0161333)
(0.0236299 -0.000166388 -0.000818015)
(0.0232611 -4.94682e-05 -0.00151298)
(0.0224388 8.36714e-05 -0.00197751)
(0.0212356 0.000152173 -0.00242559)
(0.0197497 0.000179165 -0.00292364)
(0.018057 0.000168143 -0.00349202)
(0.0162299 0.000112501 -0.0041359)
(0.0143279 1.14353e-05 -0.0048556)
(0.0123754 -0.000139753 -0.00564932)
(0.010356 -0.000337547 -0.00651513)
(0.00823262 -0.000585178 -0.00744566)
(0.00598262 -0.000893511 -0.00841183)
(0.00365154 -0.00128215 -0.00931452)
(0.00140643 -0.00174647 -0.00986115)
(-0.000271018 -0.00228076 -0.00929169)
(-0.00110596 -0.00221997 -0.00575472)
(0.0660893 -9.33928e-05 -0.000895925)
(0.0653716 0.00011974 -0.00217594)
(0.0639439 0.000411764 -0.0032236)
(0.0618359 0.000609347 -0.00425266)
(0.0591482 0.000662995 -0.00537521)
(0.0559572 0.00055646 -0.00663306)
(0.0523528 0.000302369 -0.00802949)
(0.0484014 -5.32501e-05 -0.00954943)
(0.0441002 -0.000454817 -0.0111747)
(0.0393546 -0.000858746 -0.0128906)
(0.0339913 -0.00127427 -0.0146878)
(0.0278132 -0.00177645 -0.0165304)
(0.0207179 -0.00250541 -0.0182427)
(0.012806 -0.00353805 -0.0191787)
(0.00505562 -0.00478874 -0.0176076)
(-0.00048206 -0.00457386 -0.00996697)
(0.10272 8.35687e-05 -0.000684298)
(0.102066 0.000453355 -0.00190882)
(0.100687 0.000905288 -0.00304893)
(0.0985678 0.00127547 -0.00423494)
(0.0957353 0.00144213 -0.00557251)
(0.0921589 0.00133689 -0.00712104)
(0.0878308 0.000965109 -0.00889261)
(0.0827538 0.000415392 -0.0108632)
(0.0768935 -0.000164834 -0.0129874)
(0.0701245 -0.000638526 -0.015211)
(0.0622003 -0.000956267 -0.0174901)
(0.0527415 -0.00121401 -0.0197763)
(0.0413825 -0.00164855 -0.0219101)
(0.0278036 -0.00261694 -0.0231325)
(0.0129953 -0.00436832 -0.0211637)
(0.00110064 -0.00516944 -0.0116027)
(0.13325 0.00023119 -0.000530981)
(0.132727 0.000780426 -0.00154902)
(0.131563 0.00139299 -0.00254795)
(0.12972 0.00195561 -0.00362005)
(0.127172 0.00233143 -0.00486855)
(0.123775 0.00241469 -0.00638115)
(0.119366 0.00218037 -0.00820988)
(0.11381 0.00172175 -0.0103568)
(0.106984 0.00124389 -0.0127695)
(0.0987281 0.000998321 -0.0153572)
(0.088788 0.00117429 -0.0180139)
(0.0767495 0.0017903 -0.0206463)
(0.0620236 0.0026151 -0.023091)
(0.0436855 0.0030062 -0.0246236)
(0.0221765 0.00173883 -0.022694)
(0.00335499 -0.0015812 -0.0123043)
(0.15766 0.000347193 -0.000441715)
(0.157229 0.00106938 -0.00129677)
(0.156245 0.00182982 -0.00214125)
(0.154666 0.002575 -0.00304425)
(0.152461 0.00320471 -0.00409936)
(0.149436 0.00362105 -0.00541355)
(0.145312 0.00378133 -0.00708585)
(0.139799 0.00375909 -0.00917428)
(0.132627 0.00376057 -0.0116649)
(0.123545 0.00410706 -0.0144622)
(0.112285 0.00513497 -0.0174074)
(0.0984307 0.00708902 -0.0203287)
(0.0813583 0.00992693 -0.0230468)
(0.05971 0.0130005 -0.0249238)
(0.0325783 0.0137548 -0.02325)
(0.00658354 0.00706652 -0.0125436)
(0.17596 0.000439927 -0.00038504)
(0.17559 0.00131824 -0.00113016)
(0.174741 0.00221429 -0.00186383)
(0.173368 0.00312299 -0.00263677)
(0.171455 0.00400079 -0.00352325)
(0.168818 0.00479469 -0.00462682)
(0.165141 0.00548113 -0.00607229)
(0.160035 0.00612588 -0.00796836)
(0.153103 0.00691819 -0.0103581)
(0.143963 0.00819484 -0.013179)
(0.132295 0.0103851 -0.0162598)
(0.117678 0.0139717 -0.0193685)
(0.0995534 0.0193192 -0.0222834)
(0.0764488 0.0262641 -0.0244887)
(0.0453951 0.0312231 -0.0232357)
(0.0119011 0.0220933 -0.0124619)
(0.188156 0.000511362 -0.000344917)
(0.187834 0.00151873 -0.00101166)
(0.187103 0.00253176 -0.00166713)
(0.185915 0.0035797 -0.00235094)
(0.184267 0.00467304 -0.00311956)
(0.182008 0.00581726 -0.00406136)
(0.178843 0.00703615 -0.00530242)
(0.174361 0.00841462 -0.006977)
(0.168114 0.0101313 -0.00917125)
(0.159643 0.0125161 -0.011864)
(0.1486 0.0160348 -0.0149017)
(0.134575 0.0213885 -0.0180316)
(0.117129 0.0293973 -0.02099)
(0.0951344 0.0412167 -0.0234358)
(0.0635781 0.0535123 -0.0227954)
(0.0219657 0.0471469 -0.0120801)
(0.194251 0.000560817 -0.000314818)
(0.193972 0.00165943 -0.000922122)
(0.193358 0.00275715 -0.00151796)
(0.192365 0.0039082 -0.00213594)
(0.190998 0.00516763 -0.00282157)
(0.189137 0.00659744 -0.00364958)
(0.186527 0.00827567 -0.0047367)
(0.182793 0.0103201 -0.00621951)
(0.177518 0.0129042 -0.0081999)
(0.170263 0.0163342 -0.0106802)
(0.160779 0.0210474 -0.0135272)
(0.148775 0.0278907 -0.0164965)
(0.134281 0.0379615 -0.0192966)
(0.116453 0.0543624 -0.0217645)
(0.0944529 0.0794523 -0.022109)
(0.0409398 0.0789961 -0.0110688)
(0.0239949 -0.000173923 -0.000502016)
(0.0235986 -6.04851e-05 -0.000929988)
(0.0227281 7.00165e-05 -0.0012146)
(0.0214611 0.000135996 -0.00148853)
(0.0198995 0.000159626 -0.00179303)
(0.0181182 0.000144714 -0.00214053)
(0.0161896 8.36424e-05 -0.00253404)
(0.0141757 -2.54801e-05 -0.0029718)
(0.0121058 -0.000186249 -0.00345181)
(0.00997138 -0.000393371 -0.00396916)
(0.00774706 -0.00064661 -0.00451474)
(0.00542671 -0.00095112 -0.00506521)
(0.00307827 -0.00132051 -0.00555567)
(0.000902504 -0.00175184 -0.00581251)
(-0.00058833 -0.00224705 -0.0054085)
(-0.00121167 -0.00217132 -0.00331615)
(0.0671375 -0.00010167 -0.000545802)
(0.0663762 9.91053e-05 -0.00133035)
(0.0648686 0.000383116 -0.00197134)
(0.0626486 0.000573509 -0.00259873)
(0.0598215 0.000618175 -0.00328241)
(0.0564626 0.000498719 -0.00404832)
(0.0526603 0.00022651 -0.00489864)
(0.0484826 -0.000152859 -0.00582402)
(0.0439319 -0.000580663 -0.00680892)
(0.0389235 -0.00100689 -0.00783937)
(0.033304 -0.00143196 -0.00890139)
(0.0269102 -0.00191829 -0.00996288)
(0.019695 -0.00259266 -0.010906)
(0.0118503 -0.003536 -0.0113466)
(0.00443127 -0.00469233 -0.0102948)
(-0.000678566 -0.00446928 -0.00576437)
(0.104358 7.84277e-05 -0.000415011)
(0.103667 0.000434901 -0.00116326)
(0.10221 0.000877023 -0.00185899)
(0.0999749 0.00123871 -0.00258034)
(0.0969914 0.00139517 -0.00339206)
(0.0932289 0.00127356 -0.0043312)
(0.088675 0.000875393 -0.0054061)
(0.0833285 0.00028938 -0.00660254)
(0.0771553 -0.000331503 -0.0078896)
(0.0700361 -0.00083968 -0.00922953)
(0.0617445 -0.00117097 -0.0105865)
(0.0519415 -0.00140496 -0.0119197)
(0.0403313 -0.00176132 -0.0131108)
(0.0267288 -0.00259517 -0.0137074)
(0.0122579 -0.00422091 -0.0123922)
(0.00087731 -0.00501767 -0.00670885)
(0.135379 0.000229781 -0.000321515)
(0.134825 0.000771799 -0.000942607)
(0.133594 0.00137764 -0.00155152)
(0.131645 0.00193564 -0.00220288)
(0.128954 0.00230674 -0.0029588)
(0.125379 0.00238052 -0.0038725)
(0.120751 0.00212528 -0.00497683)
(0.114928 0.00163178 -0.00627467)
(0.107775 0.00111044 -0.00773491)
(0.0991302 0.00082643 -0.00929735)
(0.088756 0.000989924 -0.0108881)
(0.0762775 0.00163863 -0.0124338)
(0.0611862 0.00255785 -0.0138243)
(0.0426928 0.00310567 -0.0146074)
(0.0214499 0.00198278 -0.0133095)
(0.00316012 -0.00135293 -0.00711222)
(0.160181 0.000348988 -0.000267418)
(0.159723 0.00107145 -0.000788867)
(0.158682 0.0018314 -0.00130385)
(0.157006 0.0025783 -0.00185304)
(0.154668 0.00321201 -0.00249196)
(0.151479 0.00363134 -0.00328396)
(0.147155 0.00378703 -0.00428959)
(0.141395 0.00374744 -0.00554669)
(0.133915 0.00372046 -0.00704931)
(0.124449 0.00404029 -0.00873755)
(0.112735 0.00506581 -0.0105062)
(0.0983905 0.00706626 -0.0122365)
(0.0808705 0.0100166 -0.0138005)
(0.0589495 0.0132599 -0.0147962)
(0.0319634 0.0141817 -0.0136459)
(0.006439 0.00744572 -0.00725031)
(0.178774 0.00044443 -0.000233163)
(0.178381 0.00132999 -0.000687575)
(0.177482 0.00223258 -0.00113528)
(0.176021 0.0031499 -0.00160633)
(0.173984 0.0040401 -0.00214445)
(0.171193 0.00484927 -0.0028097)