/*--------------------------------*- C++ -*----------------------------------*\
| =========                 |                                                 |
| \\      /  F ield         | foam-extend: Open Source CFD                    |
|  \\    /   O peration     | Version:     3.1                                |
|   \\  /    A nd           | Web:         http://www.extend-project.de       |
|    \\/     M anipulation  |                                                 |
\*---------------------------------------------------------------------------*/
FoamFile
{
    version     2.0;
    format      ascii;
    class       regIOobject;
    location    "0.0012/uniform";
    object      profilingInfo;
}
// * * * * * * * * * * * * * * * * * * * * * * * * * * * * * * * * * * * * * //

profilingInfo
(

    {
        id              23;
        parentId        22;
        description     "Foam::Time::writeObject - outputTime";
        calls           12;
        totalTime       8.11008;
        childTime       0;
        onStack         1;
    }

    {
        id              22;
        parentId        1;
        description     "Foam::Time::writeObject";
        calls           12;
        totalTime       8.11024;
        childTime       8.11008;
        onStack         1;
    }

    {
        id              1;
        description     "application::main";
        calls           1;
        totalTime       154.402;
        childTime       34.8367;
        onStack         1;
    }

    {
        id              25;
        parentId        24;
        description     "FO::pointHistory::execute";
        calls           11;
        totalTime       0.000308;
        childTime       0;
        onStack         0;
    }

    {
        id              3;
        parentId        2;
        description     "functionObjectList::read";
        calls           1;
        totalTime       0.075523;
        childTime       0;
        onStack         0;
    }

    {
        id              24;
        parentId        1;
        description     "functionObjects_.execute()";
        calls           11;
        totalTime       0.000397;
        childTime       0.000308;
        onStack         0;
    }

    {
        id              2;
        parentId        1;
        description     "functionObjects_.start()";
        calls           1;
        totalTime       0.075545;
        childTime       0.075523;
        onStack         0;
    }

    {
        id              18;
        parentId        1;
        description     "fvMatrix::solve_D";
        calls           2050;
        totalTime       7.04287;
        childTime       5.73956;
        onStack         0;
    }

    {
        id              11;
        parentId        1;
        description     "fvMatrix::solve_U";
        calls           172;
        totalTime       1.20648;
        childTime       1.07779;
        onStack         0;
    }

    {
        id              4;
        parentId        1;
        description     "fvMatrix::solve_cellMotionU";
        calls           344;
        totalTime       7.5164;
        childTime       7.22451;
        onStack         0;
    }

    {
        id              15;
        parentId        1;
        description     "fvMatrix::solve_p";
        calls           1032;
        totalTime       10.8848;
        childTime       10.657;
        onStack         0;
    }

    {
        id              19;
        parentId        18;
        description     "lduMatrix::solver_Dx";
        calls           2050;
        totalTime       2.18425;
        childTime       0;
        onStack         0;
    }

    {
        id              20;
        parentId        18;
        description     "lduMatrix::solver_Dy";
        calls           2050;
        totalTime       2.1346;
        childTime       0;
        onStack         0;
    }

    {
        id              21;
        parentId        18;
        description     "lduMatrix::solver_Dz";
        calls           2050;
        totalTime       1.42071;
        childTime       0;
        onStack         0;
    }

    {
        id              12;
        parentId        11;
        description     "lduMatrix::solver_Ux";
        calls           172;
        totalTime       0.369642;
        childTime       0;
        onStack         0;
    }

    {
        id              13;
        parentId        11;
        description     "lduMatrix::solver_Uy";
        calls           172;
        totalTime       0.354173;
        childTime       0;
        onStack         0;
    }

    {
        id              14;
        parentId        11;
        description     "lduMatrix::solver_Uz";
        calls           172;
        totalTime       0.353971;
        childTime       0;
        onStack         0;
    }

    {
        id              5;
        parentId        4;
        description     "lduMatrix::solver_cellMotionUx";
        calls           344;
        totalTime       2.44435;
        childTime       0.017589;
        onStack         0;
    }

    {
        id              7;
        parentId        4;
        description     "lduMatrix::solver_cellMotionUy";
        calls           344;
        totalTime       2.43134;
        childTime       0.01592;
        onStack         0;
    }

    {
        id              9;
        parentId        4;
        description     "lduMatrix::solver_cellMotionUz";
        calls           344;
        totalTime       2.34882;
        childTime       0.015161;
        onStack         0;
    }

    {
        id              6;
        parentId        5;
        description     "lduMatrix::solver_coarsestLevelCorr";
        calls           968;
        totalTime       0.017589;
        childTime       0;
        onStack         0;
    }

    {
        id              8;
        parentId        7;
        description     "lduMatrix::solver_coarsestLevelCorr";
        calls           992;
        totalTime       0.01592;
        childTime       0;
        onStack         0;
    }

    {
        id              10;
        parentId        9;
        description     "lduMatrix::solver_coarsestLevelCorr";
        calls           955;
        totalTime       0.015161;
        childTime       0;
        onStack         0;
    }

    {
        id              17;
        parentId        16;
        description     "lduMatrix::solver_coarsestLevelCorr";
        calls           4441;
        totalTime       0.126737;
        childTime       0;
        onStack         0;
    }

    {
        id              16;
        parentId        15;
        description     "lduMatrix::solver_p";
        calls           1032;
        totalTime       10.657;
        childTime       0.126737;
        onStack         0;
    }
);


// ************************************************************************* //
