/*--------------------------------*- C++ -*----------------------------------*\
| =========                 |                                                 |
| \\      /  F ield         | foam-extend: Open Source CFD                    |
|  \\    /   O peration     | Version:     3.1                                |
|   \\  /    A nd           | Web:         http://www.extend-project.de       |
|    \\/     M anipulation  |                                                 |
\*---------------------------------------------------------------------------*/
FoamFile
{
    version     2.0;
    format      ascii;
    class       volSymmTensorField;
    location    "0.0016";
    object      epsilon;
}
// * * * * * * * * * * * * * * * * * * * * * * * * * * * * * * * * * * * * * //

dimensions      [0 0 0 0 0 0 0];

internalField   nonuniform List<symmTensor> 
6400
(
(-0.00453604 -0.000291274 0.00845995 0.00191906 0.000189301 0.0163356)
(-0.0024309 -0.000184111 0.00909654 0.00168189 0.000252579 0.00576074)
(-0.000687977 -9.50097e-05 0.00858298 0.00154401 0.000234698 -0.00311573)
(0.00110975 -5.55297e-06 0.00701668 0.00149046 0.000144076 -0.013238)
(-0.00442242 -0.000754415 0.00841088 0.00188581 0.000976472 0.0161602)
(-0.00235056 -0.000481777 0.00902626 0.00165868 0.00105515 0.00562591)
(-0.000628674 -0.000261295 0.00850458 0.00154054 0.000995872 -0.00325461)
(0.00115657 -4.30041e-05 0.00692912 0.0015124 0.000810533 -0.0134259)
(-0.00426162 -0.0012377 0.00830275 0.00172135 0.00163991 0.0161533)
(-0.00224744 -0.000786537 0.00891091 0.00155747 0.00176347 0.00562199)
(-0.000570738 -0.000424933 0.00839681 0.00148466 0.00166355 -0.00325711)
(0.00117092 -6.78955e-05 0.00684309 0.00149967 0.00135648 -0.013427)
(-0.00403002 -0.00168933 0.00814568 0.00148856 0.00229008 0.0161495)
(-0.00210038 -0.00107373 0.00874267 0.00140966 0.00246011 0.00561979)
(-0.00049111 -0.000579537 0.00823836 0.0014045 0.00231978 -0.00325807)
(0.00118396 -9.18504e-05 0.00671408 0.00148565 0.00189175 -0.0134266)
(-0.00373146 -0.00209934 0.00793904 0.00118888 0.00292441 0.016148)
(-0.0019106 -0.0013346 0.00852109 0.00121891 0.00314042 0.00561933)
(-0.000388717 -0.000720299 0.00802961 0.0013012 0.00296067 -0.00325762)
(0.00120012 -0.000114023 0.00654393 0.00146852 0.00241416 -0.013425)
(-0.00337281 -0.00245772 0.00768371 0.00082926 0.00353947 0.0161482)
(-0.00168252 -0.00156265 0.0082472 0.000989935 0.00380039 0.00562004)
(-0.000265666 -0.000843441 0.00777153 0.00117727 0.00358245 -0.00325628)
(0.0012194 -0.000133506 0.00633353 0.00144829 0.00292091 -0.0134228)
(-0.0029627 -0.00275577 0.00738111 0.00041836 0.00413179 0.0161494)
(-0.00142166 -0.00175228 0.00792252 0.00072831 0.00443612 0.00562147)
(-0.000124897 -0.00094584 0.00746559 0.00103571 0.00418144 -0.00325446)
(0.00124145 -0.000149714 0.00608412 0.00142534 0.00340902 -0.0134203)
(-0.00251108 -0.00298621 0.00703298 -3.38384e-05 0.00469796 0.0161514)
(-0.00113432 -0.00189884 0.00754899 0.000440402 0.00504388 0.00562328)
(3.0195e-05 -0.00102494 0.00711366 0.000879975 0.00475404 -0.00325249)
(0.00126579 -0.000162188 0.00579729 0.0014002 0.00387554 -0.0134178)
(-0.00202885 -0.00314349 0.0066414 -0.00051632 0.00523472 0.0161537)
(-0.000827401 -0.00199871 0.00712895 0.000133248 0.00562006 0.00562515)
(0.000195828 -0.00107873 0.00671802 0.000713917 0.00529685 -0.00325071)
(0.00129181 -0.000170576 0.00547498 0.00137351 0.00431769 -0.0134157)
(-0.00152634 -0.00322417 0.00620903 -0.00101739 0.00573919 0.0161556)
(-0.000508389 -0.0020494 0.00666534 -0.000185525 0.00616144 0.00562644)
(0.000367794 -0.00110591 0.00628144 0.000541809 0.00580684 -0.0032496)
(0.00131879 -0.000174728 0.00511945 0.00134614 0.00473301 -0.0134144)
(-0.00101739 -0.00322417 0.0057392 -0.00152634 0.00620903 0.0161556)
(-0.000185525 -0.0020494 0.00616145 -0.000508389 0.00666534 0.00562644)
(0.000541809 -0.00110591 0.00580685 0.000367794 0.00628143 -0.0032496)
(0.00134614 -0.000174728 0.00473302 0.00131879 0.00511945 -0.0134144)
(-0.00051632 -0.00314349 0.00523472 -0.00202885 0.00664139 0.0161537)
(0.000133248 -0.00199871 0.00562006 -0.0008274 0.00712895 0.00562515)
(0.000713918 -0.00107873 0.00529685 0.000195829 0.00671802 -0.00325071)
(0.00137351 -0.000170577 0.0043177 0.00129181 0.00547498 -0.0134157)
(-3.38378e-05 -0.00298621 0.00469797 -0.00251108 0.00703298 0.0161514)
(0.000440402 -0.00189884 0.00504388 -0.00113432 0.00754899 0.00562329)
(0.000879976 -0.00102494 0.00475404 3.01951e-05 0.00711365 -0.00325249)
(0.0014002 -0.000162189 0.00387555 0.00126579 0.00579729 -0.0134178)
(0.000418361 -0.00275577 0.00413179 -0.0029627 0.00738111 0.0161494)
(0.000728311 -0.00175228 0.00443613 -0.00142166 0.00792252 0.00562147)
(0.00103571 -0.000945841 0.00418144 -0.000124897 0.00746559 -0.00325446)
(0.00142534 -0.000149715 0.00340902 0.00124145 0.00608412 -0.0134203)
(0.000829262 -0.00245772 0.00353947 -0.00337281 0.00768371 0.0161482)
(0.000989936 -0.00156265 0.00380039 -0.00168252 0.0082472 0.00562004)
(0.00117727 -0.000843442 0.00358246 -0.000265667 0.00777153 -0.00325628)
(0.00144829 -0.000133507 0.00292092 0.0012194 0.00633353 -0.0134228)
(0.00118888 -0.00209934 0.00292441 -0.00373146 0.00793904 0.016148)
(0.00121891 -0.0013346 0.00314043 -0.0019106 0.0085211 0.00561933)
(0.0013012 -0.0007203 0.00296068 -0.000388717 0.00802961 -0.00325761)
(0.00146852 -0.000114023 0.00241417 0.00120012 0.00654393 -0.013425)
(0.00148856 -0.00168933 0.00229009 -0.00403002 0.00814568 0.0161495)
(0.00140966 -0.00107373 0.00246012 -0.00210038 0.00874268 0.00561979)
(0.0014045 -0.000579538 0.00231979 -0.000491111 0.00823837 -0.00325807)
(0.00148565 -9.18512e-05 0.00189176 0.00118396 0.00671408 -0.0134266)
(0.00172135 -0.0012377 0.00163991 -0.00426162 0.00830275 0.0161533)
(0.00155748 -0.000786537 0.00176347 -0.00224744 0.00891091 0.005622)
(0.00148466 -0.000424934 0.00166355 -0.000570739 0.00839682 -0.00325711)
(0.00149968 -6.78961e-05 0.00135649 0.00117092 0.00684309 -0.013427)
(0.00188581 -0.000754415 0.000976473 -0.00442242 0.00841089 0.0161602)
(0.00165868 -0.000481778 0.00105515 -0.00235056 0.00902626 0.00562592)
(0.00154054 -0.000261295 0.000995874 -0.000628675 0.00850459 -0.00325461)
(0.0015124 -4.30046e-05 0.000810535 0.00115657 0.00692912 -0.0134259)
(0.00191907 -0.000291274 0.000189301 -0.00453604 0.00845996 0.0163356)
(0.0016819 -0.000184111 0.000252579 -0.0024309 0.00909655 0.00576074)
(0.00154401 -9.50099e-05 0.000234699 -0.000687978 0.00858299 -0.00311572)
(0.00149046 -5.55312e-06 0.000144077 0.00110975 0.00701668 -0.013238)
(-0.0083984 -0.000648509 0.00368042 0.00636147 -0.00014528 0.00607146)
(-0.00535237 -0.000486863 0.00685143 0.00577347 3.12687e-05 0.0026549)
(-0.0025549 -0.000335497 0.0067157 0.00535478 2.77757e-05 -0.00150556)
(5.04845e-05 -0.000197313 0.00349803 0.0050833 -0.000141858 -0.00506711)
(-0.00817762 -0.00172604 0.00370603 0.00625689 0.000436819 0.00602693)
(-0.00516898 -0.00130322 0.0068069 0.00567418 0.000806006 0.00258337)
(-0.00240722 -0.000924963 0.00662805 0.00528554 0.000787648 -0.00158131)
(0.000166624 -0.000585367 0.00337495 0.00504669 0.000408094 -0.00512422)
(-0.00781451 -0.0028346 0.00366088 0.00588482 0.000727277 0.0060213)
(-0.00489341 -0.00212988 0.00672139 0.00540364 0.0013379 0.00257556)
(-0.00220866 -0.00151052 0.00654412 0.00509238 0.00130513 -0.00158908)
(0.000295881 -0.000957157 0.00333241 0.00492134 0.000669687 -0.0051303)
(-0.00728485 -0.00386941 0.00359175 0.00535381 0.00101296 0.00601957)
(-0.00449603 -0.00290788 0.00659466 0.00500565 0.0018613 0.00257353)
(-0.00192656 -0.00206154 0.00642065 0.00481036 0.0018142 -0.00159076)
(0.000474795 -0.0013059 0.00326936 0.00474185 0.000928069 -0.00513128)
(-0.00660131 -0.00480889 0.00350027 0.00466852 0.001292 0.0060195)
(-0.0039824 -0.00361453 0.00642737 0.00449067 0.00237288 0.00257365)
(-0.00156254 -0.00256257 0.00625786 0.0044452 0.00231191 -0.00159024)
(0.000705242 -0.00162327 0.00318633 0.00451027 0.00118089 -0.00513029)
(-0.00577982 -0.00563009 0.00338706 0.00384537 0.00156271 0.00602036)
(-0.0033648 -0.00423229 0.00622055 0.0038716 0.00286962 0.00257478)
(-0.00112477 -0.00300073 0.00605667 0.00400603 0.0027953 -0.00158875)
(0.000982271 -0.00190085 0.00308385 0.00423183 0.00142655 -0.00512842)
(-0.00484028 -0.006313 0.00325282 0.00290444 0.00182339 0.00602176)
(-0.00265825 -0.00474598 0.00597539 0.00316373 0.00334842 0.0025764)
(-0.00062384 -0.00336506 0.00581825 0.00350373 0.00326133 -0.00158685)
(0.00129929 -0.00213162 0.00296251 0.00391333 0.00166345 -0.00512626)
(-0.00380552 -0.00684102 0.00309835 0.00186875 0.00207238 0.00602337)
(-0.00187991 -0.00514301 0.00569339 0.00238442 0.00380626 0.00257813)
(-7.19411e-05 -0.00364651 0.00554406 0.00295069 0.00370706 -0.00158496)
(0.00164858 -0.00230976 0.00282307 0.00356263 0.00189004 -0.00512422)
(-0.00270056 -0.00720139 0.00292469 0.000763611 0.002308 0.00602481)
(-0.00104858 -0.00541353 0.0053764 0.00155283 0.00424025 0.00257961)
(0.000517398 -0.00383801 0.0052359 0.00236063 0.00412967 -0.00158341)
(0.00202152 -0.00243077 0.00266649 0.0031885 0.00210479 -0.00512264)
(-0.00154964 -0.00738604 0.00273406 -0.000384159 0.00252859 0.00602565)
(-0.000184683 -0.00555076 0.00502699 0.000689606 0.00464774 0.00258047)
(0.0011293 -0.00393483 0.004896 0.00174854 0.00452664 -0.00158253)
(0.00240866 -0.0024918 0.00249391 0.00280064 0.0023064 -0.00512176)
(-0.000384159 -0.00738604 0.00252859 -0.00154964 0.00273406 0.00602565)
(0.000689607 -0.00555076 0.00464775 -0.000184682 0.00502699 0.00258047)
(0.00174854 -0.00393483 0.00452664 0.0011293 0.004896 -0.00158253)
(0.00280064 -0.0024918 0.0023064 0.00240866 0.00249391 -0.00512176)
(0.000763612 -0.0072014 0.002308 -0.00270056 0.00292469 0.00602481)
(0.00155283 -0.00541353 0.00424025 -0.00104858 0.0053764 0.00257961)
(0.00236063 -0.00383801 0.00412967 0.000517399 0.0052359 -0.00158341)
(0.0031885 -0.00243077 0.00210479 0.00202152 0.00266649 -0.00512263)
(0.00186875 -0.00684102 0.00207238 -0.00380551 0.00309834 0.00602337)
(0.00238442 -0.00514301 0.00380627 -0.00187991 0.00569338 0.00257813)
(0.00295069 -0.00364651 0.00370706 -7.19405e-05 0.00554405 -0.00158495)
(0.00356264 -0.00230976 0.00189004 0.00164858 0.00282307 -0.00512422)
(0.00290444 -0.006313 0.0018234 -0.00484028 0.00325282 0.00602176)
(0.00316373 -0.00474598 0.00334842 -0.00265825 0.00597539 0.0025764)
(0.00350373 -0.00336507 0.00326133 -0.00062384 0.00581825 -0.00158685)
(0.00391333 -0.00213162 0.00166346 0.00129929 0.0029625 -0.00512626)
(0.00384537 -0.00563009 0.00156271 -0.00577981 0.00338706 0.00602036)
(0.00387161 -0.00423229 0.00286962 -0.0033648 0.00622055 0.00257478)
(0.00400603 -0.00300073 0.0027953 -0.00112477 0.00605667 -0.00158874)
(0.00423183 -0.00190086 0.00142655 0.00098227 0.00308384 -0.00512841)
(0.00466852 -0.00480889 0.00129201 -0.00660131 0.00350027 0.0060195)
(0.00449067 -0.00361453 0.00237289 -0.00398239 0.00642737 0.00257365)
(0.0044452 -0.00256257 0.00231192 -0.00156254 0.00625786 -0.00159024)
(0.00451028 -0.00162327 0.00118089 0.000705241 0.00318633 -0.00513029)
(0.00535381 -0.00386941 0.00101297 -0.00728485 0.00359175 0.00601958)
(0.00500566 -0.00290788 0.0018613 -0.00449603 0.00659466 0.00257354)
(0.00481036 -0.00206154 0.0018142 -0.00192656 0.00642065 -0.00159076)
(0.00474185 -0.00130591 0.000928073 0.000474793 0.00326936 -0.00513128)
(0.00588482 -0.0028346 0.000727279 -0.0078145 0.00366088 0.0060213)
(0.00540365 -0.00212988 0.0013379 -0.00489341 0.00672139 0.00257556)
(0.00509239 -0.00151052 0.00130514 -0.00220866 0.00654412 -0.00158908)
(0.00492135 -0.000957159 0.00066969 0.000295879 0.00333241 -0.00513029)
(0.00625689 -0.00172604 0.00043682 -0.00817762 0.00370603 0.00602693)
(0.00567419 -0.00130322 0.000806007 -0.00516898 0.00680691 0.00258337)
(0.00528554 -0.000924964 0.000787649 -0.00240722 0.00662805 -0.0015813)
(0.0050467 -0.000585369 0.000408096 0.000166621 0.00337495 -0.00512422)
(0.00636148 -0.000648509 -0.00014528 -0.00839839 0.00368042 0.00607147)
(0.00577348 -0.000486863 3.12691e-05 -0.00535236 0.00685144 0.0026549)
(0.00535479 -0.000335497 2.77762e-05 -0.0025549 0.0067157 -0.00150556)
(0.00508331 -0.000197313 -0.000141857 5.04814e-05 0.00349803 -0.0050671)
(-0.00748763 -0.000801407 0.0023303 0.0113926 -0.000222463 -0.00107065)
(-0.00620185 -0.000716278 0.0040494 0.0105704 -0.000128517 -0.000773686)
(-0.00474907 -0.000618577 0.0039451 0.00987272 -0.000132095 -0.000860456)
(-0.00370884 -0.000540963 0.00208109 0.00928997 -0.000227277 -0.00059717)
(-0.00725582 -0.00220856 0.00232664 0.0112117 0.000270178 -0.00106101)
(-0.00597687 -0.00196439 0.00401164 0.0103753 0.000470048 -0.000774525)
(-0.00454802 -0.00171017 0.00387952 0.00968962 0.000456948 -0.000861634)
(-0.0035368 -0.00151423 0.00200158 0.00910828 0.000240752 -0.0005873)
(-0.00679822 -0.00362987 0.00229732 0.0107422 0.000455704 -0.00106117)
(-0.00556813 -0.00321502 0.00396099 0.00996943 0.000788281 -0.000774834)
(-0.00419028 -0.00279899 0.00383022 0.00933515 0.000764857 -0.000861996)
(-0.00321914 -0.00248613 0.00197729 0.00879468 0.000399833 -0.000587946)
(-0.00612161 -0.00495618 0.00225365 0.0100651 0.000636455 -0.00106137)
(-0.00496978 -0.00439025 0.00388606 0.00937077 0.00109858 -0.000775166)
(-0.00366901 -0.00382179 0.00375789 0.00881451 0.00106466 -0.000862308)
(-0.00275628 -0.0033951 0.00193977 0.0083322 0.00055461 -0.000588273)
(-0.00524667 -0.0061604 0.00219594 0.00918903 0.000812189 -0.00106104)
(-0.00419486 -0.00545756 0.0037872 0.00859515 0.00140069 -0.000774789)
(-0.00299451 -0.00475111 0.00366237 0.0081396 0.00135649 -0.000861803)
(-0.00215712 -0.00422085 0.00189024 0.00773285 0.000704941 -0.000587688)
(-0.00419441 -0.00721303 0.0021245 0.00813566 0.000982269 -0.00106022)
(-0.00326252 -0.00639065 0.00366498 0.00766189 0.00169349 -0.000773844)
(-0.00218288 -0.00556365 0.00354438 0.00732718 0.00163934 -0.000860674)
(-0.00143619 -0.00494279 0.00182924 0.00701125 0.000850466 -0.000586414)
(-0.00299057 -0.00808841 0.00203979 0.00693088 0.00114579 -0.00105911)
(-0.0021956 -0.00716657 0.00352018 0.0065941 0.00197541 -0.000772598)
(-0.00125398 -0.00623927 0.00340466 0.00639737 0.00191175 -0.000859246)
(-0.000611106 -0.00554296 0.00175718 0.00618524 0.000990525 -0.000584834)
(-0.00166449 -0.00876519 0.00194238 0.00560435 0.00130169 -0.00105794)
(-0.00102016 -0.00776625 0.00335374 0.00541809 0.00224475 -0.000771329)
(-0.000230548 -0.00676122 0.00324414 0.00537318 0.00217208 -0.000857833)
(0.000297877 -0.00600642 0.00167455 0.00527528 0.0011243 -0.000583305)
(-0.000248409 -0.009227 0.00183309 0.00418862 0.00144879 -0.00105698)
(0.00023523 -0.00817481 0.0031669 0.00416285 0.00249974 -0.000770302)
(0.000862228 -0.00711645 0.00306396 0.00427999 0.0024187 -0.000856712)
(0.00126828 -0.0063216 0.00158197 0.00430397 0.00125094 -0.000582118)
(0.00122566 -0.00946312 0.00171378 0.00271812 0.00158599 -0.00105643)
(0.00153954 -0.00838197 0.00296142 0.00285954 0.00273886 -0.000769732)
(0.00199692 -0.00729615 0.00286553 0.00314532 0.00265016 -0.000856096)
(0.00227583 -0.00648089 0.00148016 0.00329584 0.00136971 -0.000581475)
(0.00271812 -0.00946312 0.00158599 0.00122566 0.00171378 -0.00105643)
(0.00285954 -0.00838197 0.00273886 0.00153954 0.00296142 -0.000769732)
(0.00314532 -0.00729615 0.00265017 0.00199692 0.00286553 -0.000856096)
(0.00329584 -0.00648089 0.00136971 0.00227583 0.00148016 -0.000581474)
(0.00418862 -0.009227 0.0014488 -0.000248406 0.00183308 -0.00105698)
(0.00416285 -0.00817481 0.00249974 0.000235231 0.0031669 -0.000770301)
(0.00427999 -0.00711645 0.0024187 0.000862229 0.00306395 -0.000856712)
(0.00430397 -0.0063216 0.00125095 0.00126829 0.00158197 -0.000582117)
(0.00560436 -0.00876519 0.00130169 -0.00166449 0.00194238 -0.00105794)
(0.00541809 -0.00776625 0.00224475 -0.00102015 0.00335374 -0.000771328)
(0.00537318 -0.00676122 0.00217209 -0.000230547 0.00324413 -0.000857832)
(0.00527528 -0.00600642 0.00112431 0.000297878 0.00167454 -0.000583303)
(0.00693088 -0.00808841 0.00114579 -0.00299056 0.00203978 -0.00105911)
(0.0065941 -0.00716657 0.00197542 -0.0021956 0.00352018 -0.000772598)
(0.00639738 -0.00623927 0.00191176 -0.00125398 0.00340466 -0.000859245)
(0.00618524 -0.00554296 0.00099053 -0.000611106 0.00175717 -0.000584832)
(0.00813566 -0.00721303 0.000982272 -0.00419441 0.0021245 -0.00106022)
(0.0076619 -0.00639065 0.00169349 -0.00326252 0.00366498 -0.000773843)
(0.00732718 -0.00556365 0.00163934 -0.00218288 0.00354437 -0.000860673)
(0.00701125 -0.0049428 0.00085047 -0.00143619 0.00182924 -0.000586412)
(0.00918904 -0.0061604 0.000812191 -0.00524666 0.00219594 -0.00106104)
(0.00859516 -0.00545756 0.00140069 -0.00419485 0.00378719 -0.000774788)
(0.00813961 -0.00475111 0.00135649 -0.00299451 0.00366237 -0.000861801)
(0.00773286 -0.00422086 0.000704945 -0.00215712 0.00189024 -0.000587686)
(0.0100651 -0.00495618 0.000636457 -0.0061216 0.00225365 -0.00106137)
(0.00937077 -0.00439025 0.00109859 -0.00496977 0.00388606 -0.000775165)
(0.00881452 -0.00382179 0.00106466 -0.00366901 0.00375788 -0.000862306)
(0.00833221 -0.0033951 0.000554613 -0.00275628 0.00193976 -0.00058827)
(0.0107422 -0.00362987 0.000455705 -0.00679821 0.00229731 -0.00106117)
(0.00996944 -0.00321502 0.000788283 -0.00556813 0.00396099 -0.000774833)
(0.00933516 -0.00279899 0.000764859 -0.00419028 0.00383022 -0.000861995)
(0.00879469 -0.00248613 0.000399835 -0.00321914 0.00197729 -0.000587943)
(0.0112117 -0.00220856 0.000270179 -0.00725581 0.00232663 -0.00106101)
(0.0103753 -0.00196439 0.000470049 -0.00597686 0.00401164 -0.000774524)
(0.00968963 -0.00171017 0.000456949 -0.00454802 0.00387952 -0.000861633)
(0.00910829 -0.00151423 0.000240753 -0.00353681 0.00200158 -0.000587297)
(0.0113926 -0.000801407 -0.000222463 -0.00748762 0.00233029 -0.00107065)
(0.0105704 -0.000716278 -0.000128516 -0.00620185 0.0040494 -0.000773685)
(0.00987273 -0.000618578 -0.000132095 -0.00474907 0.0039451 -0.000860454)
(0.00928998 -0.000540964 -0.000227276 -0.00370884 0.00208109 -0.000597167)
(-0.00733835 -0.000975403 0.00127567 0.016012 -0.000227812 -0.00574113)
(-0.00696151 -0.000925089 0.00214782 0.0149594 -0.000179649 -0.00322563)
(-0.00651419 -0.000866568 0.00206608 0.0140121 -0.000182555 -0.000959534)
(-0.00634965 -0.000817352 0.00107492 0.0131674 -0.000231708 0.00151168)
(-0.00706788 -0.00273132 0.00126391 0.0157622 0.000143006 -0.00569912)
(-0.0066965 -0.0025676 0.0021171 0.0146884 0.000244853 -0.0031878)
(-0.00626531 -0.0024019 0.00202178 0.0137399 0.000235849 -0.000919923)
(-0.00611567 -0.00227195 0.00102459 0.0128756 0.000122644 0.00155935)
(-0.00650509 -0.00448859 0.00124769 0.0151851 0.000245299 -0.00569588)
(-0.00616707 -0.00420539 0.00208988 0.0141566 0.000414605 -0.00318404)
(-0.00576847 -0.00393341 0.00199607 0.013241 0.000398467 -0.000916071)
(-0.00564249 -0.00373425 0.00101238 0.0124059 0.000205987 0.0015627)
(-0.00566975 -0.00612943 0.00122358 0.0143488 0.000344843 -0.00569437)
(-0.00538537 -0.00574319 0.00204998 0.0133734 0.000579911 -0.00318226)
(-0.00503673 -0.00537173 0.00195819 0.0125087 0.000556372 -0.000914187)
(-0.00494818 -0.0051008 0.000992944 0.0117109 0.000286765 0.00156452)
(-0.00458814 -0.00761946 0.00119183 0.0132662 0.000441225 -0.00569343)
(-0.00437197 -0.00713981 0.00199746 0.0123592 0.000740242 -0.00318109)
(-0.00408886 -0.0066783 0.00190809 0.0115603 0.000709362 -0.000912822)
(-0.00404817 -0.00634172 0.000967203 0.0108105 0.00036455 0.001566)
(-0.00328675 -0.00892205 0.00115255 0.0119641 0.000534125 -0.00569261)
(-0.00315237 -0.00836086 0.00193261 0.011139 0.000895152 -0.00318003)
(-0.00294806 -0.00782062 0.00184629 0.0104189 0.000857095 -0.00091151)
(-0.00296495 -0.00742653 0.000935659 0.0097268 0.000439252 0.00156752)
(-0.00179755 -0.0100053 0.00110599 0.0104744 0.000623095 -0.00569181)
(-0.00175651 -0.00937629 0.00185586 0.00974263 0.00104393 -0.00317899)
(-0.00164231 -0.00877047 0.00177326 0.00911256 0.000998961 -0.00091021)
(-0.00172511 -0.00832841 0.000898626 0.00848635 0.000510698 0.00156906)
(-0.000156987 -0.0108428 0.00105252 0.00883386 0.000707532 -0.00569108)
(-0.000218564 -0.0101611 0.00176778 0.00820452 0.0011857 -0.00317805)
(-0.000203646 -0.00950432 0.00168956 0.00767348 0.00113419 -0.00090904)
(-0.000359196 -0.00902497 0.000856418 0.00711975 0.000578591 0.00157043)
(0.00159494 -0.0114142 0.000992719 0.00708262 0.000786704 -0.0056905)
(0.00142391 -0.0106957 0.00166915 0.0065625 0.00131953 -0.00317733)
(0.00133248 -0.0100038 0.00159585 0.00613722 0.00126197 -0.000908155)
(0.00109905 -0.00949885 0.000809406 0.00566084 0.000642581 0.00157147)
(0.00341785 -0.0117057 0.000928147 0.00526346 0.000859922 -0.00569019)
(0.00313027 -0.0109667 0.00156115 0.0048573 0.00144466 -0.00317694)
(0.00292765 -0.0102566 0.00149301 0.00454222 0.00138166 -0.00090768)
(0.00261324 -0.00973848 0.00075799 0.00414618 0.000702392 0.00157202)
(0.00526346 -0.0117057 0.000859924 0.00341785 0.000928144 -0.00569019)
(0.0048573 -0.0109667 0.00144466 0.00313027 0.00156114 -0.00317694)
(0.00454222 -0.0102566 0.00138166 0.00292765 0.001493 -0.00090768)
(0.00414618 -0.00973848 0.000702395 0.00261324 0.000757987 0.00157202)
(0.00708262 -0.0114142 0.000786706 0.00159494 0.000992717 -0.0056905)
(0.0065625 -0.0106957 0.00131953 0.00142391 0.00166915 -0.00317733)
(0.00613722 -0.0100038 0.00126198 0.00133248 0.00159585 -0.000908155)
(0.00566084 -0.00949885 0.000642584 0.00109905 0.000809403 0.00157147)
(0.00883386 -0.0108428 0.000707533 -0.000156981 0.00105252 -0.00569108)
(0.00820452 -0.0101611 0.0011857 -0.000218562 0.00176778 -0.00317805)
(0.00767348 -0.00950432 0.00113419 -0.000203644 0.00168955 -0.00090904)
(0.00711975 -0.00902497 0.000578594 -0.000359195 0.000856416 0.00157044)
(0.0104744 -0.0100053 0.000623096 -0.00179754 0.00110599 -0.00569181)
(0.00974264 -0.00937629 0.00104393 -0.0017565 0.00185586 -0.00317899)
(0.00911257 -0.00877047 0.000998964 -0.0016423 0.00177326 -0.000910209)
(0.00848635 -0.00832841 0.000510701 -0.00172511 0.000898625 0.00156906)
(0.0119641 -0.00892205 0.000534126 -0.00328674 0.00115255 -0.00569261)
(0.011139 -0.00836086 0.000895153 -0.00315236 0.00193261 -0.00318003)
(0.0104189 -0.00782063 0.000857097 -0.00294806 0.00184629 -0.000911509)
(0.00972681 -0.00742653 0.000439254 -0.00296495 0.000935657 0.00156752)
(0.0132663 -0.00761946 0.000441226 -0.00458812 0.00119183 -0.00569343)
(0.0123592 -0.00713981 0.000740243 -0.00437197 0.00199746 -0.00318109)
(0.0115603 -0.0066783 0.000709364 -0.00408886 0.00190809 -0.000912821)
(0.0108105 -0.00634172 0.000364552 -0.00404817 0.000967202 0.001566)
(0.0143488 -0.00612943 0.000344843 -0.00566973 0.00122358 -0.00569437)
(0.0133734 -0.0057432 0.000579912 -0.00538536 0.00204998 -0.00318226)
(0.0125087 -0.00537174 0.000556374 -0.00503672 0.00195819 -0.000914186)
(0.0117109 -0.0051008 0.000286767 -0.00494818 0.000992943 0.00156452)
(0.0151851 -0.00448859 0.000245299 -0.00650507 0.00124769 -0.00569588)
(0.0141567 -0.00420539 0.000414606 -0.00616707 0.00208988 -0.00318404)
(0.013241 -0.00393342 0.000398468 -0.00576847 0.00199606 -0.00091607)
(0.0124059 -0.00373426 0.000205988 -0.00564249 0.00101238 0.0015627)
(0.0157622 -0.00273132 0.000143006 -0.00706786 0.00126391 -0.00569912)
(0.0146884 -0.0025676 0.000244853 -0.0066965 0.0021171 -0.0031878)
(0.0137399 -0.0024019 0.00023585 -0.00626531 0.00202178 -0.000919922)
(0.0128756 -0.00227195 0.000122645 -0.00611568 0.00102459 0.00155935)
(0.016012 -0.000975403 -0.000227812 -0.00733833 0.00127567 -0.00574113)
(0.0149595 -0.000925089 -0.000179649 -0.0069615 0.00214782 -0.00322563)
(0.0140121 -0.000866569 -0.000182555 -0.00651419 0.00206608 -0.000959533)
(0.0131674 -0.000817353 -0.000231708 -0.00634965 0.00107492 0.00151168)
(-0.00763683 -0.00113226 0.00056296 0.0196468 -0.000185426 -0.00840431)
(-0.00769932 -0.00109612 0.000922671 0.0184016 -0.00016473 -0.00479254)
(-0.00775296 -0.00105405 0.000873928 0.0172594 -0.000166197 -0.0013555)
(-0.00801179 -0.00101534 0.000438978 0.0162209 -0.000186673 0.00218569)
(-0.00732655 -0.00319177 0.000550619 0.0193451 5.90154e-05 -0.0083476)
(-0.00739528 -0.00305781 0.000901355 0.0180751 0.00010222 -0.00473695)
(-0.00746198 -0.00292726 0.000846952 0.0169252 9.79371e-05 -0.00129729)
(-0.00772834 -0.00282028 0.000410437 0.0158552 4.9792e-05 0.00225005)
(-0.00666996 -0.00524456 0.000543634 0.0186729 0.000104085 -0.00834332)
(-0.00676652 -0.0050092 0.00088947 0.0174416 0.000175213 -0.00473215)
(-0.00685825 -0.00479485 0.000835903 0.0163168 0.000167165 -0.00129228)
(-0.00714176 -0.00463695 0.000405433 0.0152723 8.4432e-05 0.00225482)
(-0.00569456 -0.00716185 0.000532956 0.0176962 0.000148332 -0.00834095)
(-0.00583564 -0.00684086 0.000872174 0.0165083 0.000246556 -0.00472933)
(-0.00596626 -0.00654855 0.000819695 0.0154233 0.000234422 -0.00128917)
(-0.00627978 -0.00633435 0.000397224 0.0144086 0.000118022 0.00225813)
(-0.00443101 -0.00890323 0.000518757 0.0164317 0.000191153 -0.00833967)
(-0.00462869 -0.00850451 0.000849411 0.0153003 0.00031557 -0.00472757)
(-0.00481076 -0.00814145 0.000798272 0.0142668 0.000299268 -0.00128699)
(-0.0051622 -0.0078754 0.000386402 0.01329 0.000149966 0.00226071)
(-0.00291042 -0.0104257 0.000501091 0.0149107 0.00023225 -0.00833893)
(-0.00317604 -0.00995915 0.000821334 0.0138471 0.000381959 -0.00472632)
(-0.00342007 -0.0095341 0.000771958 0.0128754 0.000361482 -0.00128525)
(-0.00381706 -0.00922254 0.000373339 0.0119441 0.000180129 0.00226293)
(-0.00117019 -0.011692 0.000480093 0.0131703 0.000271345 -0.00833847)
(-0.00151338 -0.0111689 0.000788179 0.0121842 0.000445388 -0.00472535)
(-0.00182827 -0.0106922 0.000741045 0.0112831 0.000420818 -0.0012838)
(-0.00227742 -0.0103426 0.000358283 0.0104037 0.000208479 0.00226486)
(0.000747059 -0.012671 0.000455995 0.0112534 0.00030807 -0.00833816)
(0.000318589 -0.0121039 0.000750271 0.0103522 0.000505446 -0.0047246)
(-7.44278e-05 -0.0115869 0.00070585 0.00952898 0.000476976 -0.00128263)
(-0.000581169 -0.0112077 0.000341453 0.00870684 0.000234973 0.00226646)
(0.00279447 -0.0133387 0.000429211 0.00920684 0.000341947 -0.00833796)
(0.00227506 -0.0127409 0.000708092 0.00839638 0.000561695 -0.00472408)
(0.00179827 -0.0121961 0.000666774 0.00765628 0.000529654 -0.0012818)
(0.00122978 -0.0117964 0.000323075 0.00689528 0.000259562 0.00226762)
(0.00492434 -0.0136791 0.0004011 0.00708078 0.000372548 -0.00833785)
(0.00430766 -0.0130638 0.000662467 0.00636503 0.00061387 -0.00472381)
(0.00374309 -0.0125043 0.000624307 0.0057117 0.00057869 -0.00128136)
(0.00311037 -0.0120941 0.000303353 0.00501428 0.000282276 0.00226822)
(0.00708078 -0.0136791 0.000372549 0.00492434 0.0004011 -0.00833785)
(0.00636503 -0.0130638 0.00061387 0.00430766 0.000662467 -0.00472381)
(0.0057117 -0.0125044 0.000578691 0.00374309 0.000624306 -0.00128136)
(0.00501428 -0.0120941 0.000282277 0.00311037 0.000303352 0.00226822)
(0.00920685 -0.0133387 0.000341948 0.00279447 0.00042921 -0.00833796)
(0.00839638 -0.0127409 0.000561696 0.00227507 0.000708092 -0.00472408)
(0.00765628 -0.0121961 0.000529655 0.00179827 0.000666773 -0.0012818)
(0.00689528 -0.0117964 0.000259563 0.00122978 0.000323074 0.00226762)
(0.0112534 -0.012671 0.00030807 0.000747066 0.000455994 -0.00833816)
(0.0103522 -0.0121039 0.000505447 0.000318593 0.00075027 -0.0047246)
(0.00952899 -0.0115869 0.000476977 -7.44262e-05 0.00070585 -0.00128263)
(0.00870684 -0.0112077 0.000234974 -0.000581168 0.000341452 0.00226646)
(0.0131703 -0.011692 0.000271345 -0.00117018 0.000480093 -0.00833847)
(0.0121842 -0.0111689 0.000445388 -0.00151337 0.000788178 -0.00472535)
(0.0112831 -0.0106922 0.000420819 -0.00182827 0.000741044 -0.0012838)
(0.0104037 -0.0103426 0.00020848 -0.00227742 0.000358283 0.00226486)
(0.0149107 -0.0104257 0.00023225 -0.00291041 0.00050109 -0.00833893)
(0.0138471 -0.00995916 0.00038196 -0.00317604 0.000821333 -0.00472632)
(0.0128754 -0.00953411 0.000361483 -0.00342007 0.000771957 -0.00128525)
(0.0119441 -0.00922254 0.00018013 -0.00381706 0.000373339 0.00226293)
(0.0164318 -0.00890322 0.000191153 -0.004431 0.000518756 -0.00833967)
(0.0153004 -0.00850452 0.00031557 -0.00462868 0.00084941 -0.00472757)
(0.0142668 -0.00814145 0.000299269 -0.00481076 0.000798272 -0.00128698)
(0.01329 -0.00787541 0.000149967 -0.0051622 0.000386401 0.00226072)
(0.0176963 -0.00716185 0.000148332 -0.00569454 0.000532956 -0.00834095)
(0.0165083 -0.00684086 0.000246556 -0.00583563 0.000872173 -0.00472933)
(0.0154233 -0.00654855 0.000234422 -0.00596626 0.000819695 -0.00128917)
(0.0144086 -0.00633435 0.000118023 -0.00627978 0.000397224 0.00225814)
(0.0186729 -0.00524455 0.000104085 -0.00666994 0.000543633 -0.00834332)
(0.0174416 -0.0050092 0.000175213 -0.00676651 0.000889469 -0.00473215)
(0.0163168 -0.00479485 0.000167166 -0.00685824 0.000835902 -0.00129228)
(0.0152723 -0.00463695 8.44327e-05 -0.00714177 0.000405433 0.00225483)
(0.0193452 -0.00319177 5.90152e-05 -0.00732653 0.000550618 -0.0083476)
(0.0180751 -0.00305781 0.00010222 -0.00739527 0.000901354 -0.00473695)
(0.0169252 -0.00292726 9.79374e-05 -0.00746198 0.000846951 -0.00129729)
(0.0158552 -0.00282028 4.97925e-05 -0.00772834 0.000410437 0.00225005)
(0.0196468 -0.00113226 -0.000185426 -0.00763681 0.000562959 -0.00840431)
(0.0184017 -0.00109612 -0.00016473 -0.00769931 0.000922671 -0.00479254)
(0.0172594 -0.00105405 -0.000166197 -0.00775296 0.000873928 -0.0013555)
(0.0162209 -0.00101534 -0.000186673 -0.00801179 0.000438979 0.00218569)
(-0.00803444 -0.00124495 0.000112448 0.0220361 -0.000118084 -0.00963765)
(-0.00824342 -0.0012114 0.00016986 0.02066 -0.000113814 -0.00564541)
(-0.00848616 -0.00117345 0.000150606 0.0193912 -0.000113974 -0.00178028)
(-0.00888966 -0.00113566 5.99048e-05 0.0182321 -0.000117026 0.00212627)
(-0.00769321 -0.00351816 0.0001034 0.0217024 7.17e-06 -0.00957695)
(-0.00791012 -0.00338676 0.00015822 0.0202993 1.59439e-05 -0.00558419)
(-0.00816531 -0.00326306 0.000137884 0.0190202 1.57058e-05 -0.00171621)
(-0.00857318 -0.00315657 4.77979e-05 0.0178243 7.72995e-06 0.00219515)
(-0.00696965 -0.00578053 0.000102293 0.0209628 1.54901e-05 -0.00957296)
(-0.0072141 -0.00554823 0.000155766 0.0195979 2.91433e-05 -0.00557972)
(-0.00749265 -0.00534509 0.000135587 0.0183421 2.80553e-05 -0.00171144)