/*--------------------------------*- C++ -*----------------------------------*\
| =========                 |                                                 |
| \\      /  F ield         | foam-extend: Open Source CFD                    |
|  \\    /   O peration     | Version:     3.1                                |
|   \\  /    A nd           | Web:         http://www.extend-project.de       |
|    \\/     M anipulation  |                                                 |
\*---------------------------------------------------------------------------*/
FoamFile
{
    version     2.0;
    format      ascii;
    class       pointVectorField;
    location    "0.0016";
    object      pointD;
}
// * * * * * * * * * * * * * * * * * * * * * * * * * * * * * * * * * * * * * //

dimensions      [0 1 0 0 0 0 0];

internalField   nonuniform List<vector> 
8505
(
(0 0 0)
(0 0 0)
(0 0 0)
(0 0 0)
(0 0 0)
(0 0 0)
(0 0 0)
(0 0 0)
(0 0 0)
(0 0 0)
(0 0 0)
(0 0 0)
(0 0 0)
(0 0 0)
(0 0 0)
(0 0 0)
(0 0 0)
(0 0 0)
(0 0 0)
(0 0 0)
(0 0 0)
(0 0 0)
(0 0 0)
(0 0 0)
(0 0 0)
(0 0 0)
(0 0 0)
(0 0 0)
(0 0 0)
(0 0 0)
(0 0 0)
(0 0 0)
(0 0 0)
(0 0 0)
(0 0 0)
(0 0 0)
(0 0 0)
(0 0 0)
(0 0 0)
(0 0 0)
(0 0 0)
(0 0 0)
(0 0 0)
(0 0 0)
(0 0 0)
(0 0 0)
(0 0 0)
(0 0 0)
(0 0 0)
(0 0 0)
(0 0 0)
(0 0 0)
(0 0 0)
(0 0 0)
(0 0 0)
(0 0 0)
(0 0 0)
(0 0 0)
(0 0 0)
(0 0 0)
(0 0 0)
(0 0 0)
(0 0 0)
(0 0 0)
(0 0 0)
(0 0 0)
(0 0 0)
(0 0 0)
(0 0 0)
(0 0 0)
(0 0 0)
(0 0 0)
(0 0 0)
(0 0 0)
(0 0 0)
(0 0 0)
(0 0 0)
(0 0 0)
(0 0 0)
(0 0 0)
(0 0 0)
(0 0 0)
(0 0 0)
(0 0 0)
(0 0 0)
(0 0 0)
(0 0 0)
(0 0 0)
(0 0 0)
(0 0 0)
(0 0 0)
(0 0 0)
(0 0 0)
(0 0 0)
(0 0 0)
(0 0 0)
(0 0 0)
(0 0 0)
(0 0 0)
(0 0 0)
(0 0 0)
(0 0 0)
(0 0 0)
(0 0 0)
(0 0 0)
(2.13321e-05 0 1.41846e-05)
(1.90411e-05 0 6.51131e-06)
(1.78079e-05 0 8.98764e-07)
(1.74476e-05 0 -4.58122e-06)
(1.79843e-05 0 -1.1682e-05)
(2.11787e-05 1.63285e-06 1.39305e-05)
(1.89272e-05 1.46911e-06 6.3367e-06)
(1.77251e-05 1.37859e-06 7.41928e-07)
(1.73943e-05 1.35323e-06 -4.76741e-06)
(1.79658e-05 1.39616e-06 -1.19629e-05)
(2.09693e-05 3.30272e-06 1.39234e-05)
(1.87423e-05 2.95372e-06 6.33322e-06)
(1.75545e-05 2.76883e-06 7.39651e-07)
(1.72303e-05 2.71944e-06 -4.7691e-06)
(1.78015e-05 2.81095e-06 -1.19634e-05)
(2.06392e-05 4.94254e-06 1.39194e-05)
(1.84478e-05 4.41862e-06 6.33069e-06)
(1.7279e-05 4.14041e-06 7.38122e-07)
(1.69604e-05 4.06589e-06 -4.76986e-06)
(1.75231e-05 4.2024e-06 -1.19631e-05)
(2.01841e-05 6.54934e-06 1.39174e-05)
(1.80413e-05 5.85481e-06 6.32962e-06)
(1.68983e-05 5.4854e-06 7.37722e-07)
(1.65868e-05 5.38591e-06 -4.76959e-06)
(1.71372e-05 5.56598e-06 -1.19619e-05)
(1.96057e-05 8.11422e-06 1.39169e-05)
(1.75242e-05 7.25373e-06 6.32956e-06)
(1.6414e-05 6.7956e-06 7.38101e-07)
(1.61113e-05 6.67176e-06 -4.7687e-06)
(1.66459e-05 6.89429e-06 -1.19603e-05)
(1.8907e-05 9.62802e-06 1.39172e-05)
(1.68995e-05 8.60701e-06 6.33015e-06)
(1.58287e-05 8.06307e-06 7.38954e-07)
(1.55367e-05 7.91571e-06 -4.76748e-06)
(1.60521e-05 8.17934e-06 -1.19585e-05)
(1.80921e-05 1.10818e-05 1.39183e-05)
(1.61708e-05 9.90652e-06 6.33117e-06)
(1.5146e-05 9.28015e-06 7.40062e-07)
(1.48665e-05 9.11017e-06 -4.76612e-06)
(1.53594e-05 9.41329e-06 -1.19566e-05)
(1.71658e-05 1.24669e-05 1.39199e-05)
(1.53424e-05 1.11445e-05 6.33242e-06)
(1.43699e-05 1.04395e-05 7.41233e-07)
(1.41046e-05 1.02479e-05 -4.76483e-06)
(1.45723e-05 1.05886e-05 -1.19549e-05)
(1.61336e-05 1.37752e-05 1.39217e-05)
(1.44194e-05 1.23137e-05 6.33366e-06)
(1.35054e-05 1.15342e-05 7.42223e-07)
(1.32562e-05 1.13221e-05 -4.76384e-06)
(1.36958e-05 1.16982e-05 -1.19537e-05)
(1.50005e-05 1.50005e-05 1.39227e-05)
(1.34075e-05 1.34075e-05 6.33425e-06)
(1.25582e-05 1.25582e-05 7.42638e-07)
(1.23268e-05 1.23268e-05 -4.76346e-06)
(1.27359e-05 1.27358e-05 -1.19532e-05)
(1.37752e-05 1.61336e-05 1.39217e-05)
(1.23137e-05 1.44194e-05 6.33366e-06)
(1.15342e-05 1.35054e-05 7.42224e-07)
(1.13221e-05 1.32562e-05 -4.76384e-06)
(1.16982e-05 1.36958e-05 -1.19537e-05)
(1.24669e-05 1.71658e-05 1.39199e-05)
(1.11445e-05 1.53424e-05 6.33242e-06)
(1.04395e-05 1.43699e-05 7.41234e-07)
(1.02479e-05 1.41046e-05 -4.76483e-06)
(1.05886e-05 1.45723e-05 -1.19549e-05)
(1.10818e-05 1.80921e-05 1.39183e-05)
(9.90653e-06 1.61708e-05 6.33117e-06)
(9.28016e-06 1.5146e-05 7.40064e-07)
(9.11018e-06 1.48664e-05 -4.76612e-06)
(9.4133e-06 1.53594e-05 -1.19566e-05)
(9.62803e-06 1.8907e-05 1.39172e-05)
(8.60701e-06 1.68995e-05 6.33015e-06)
(8.06308e-06 1.58287e-05 7.38955e-07)
(7.91572e-06 1.55367e-05 -4.76748e-06)
(8.17935e-06 1.60521e-05 -1.19585e-05)
(8.11423e-06 1.96057e-05 1.39169e-05)
(7.25374e-06 1.75242e-05 6.32956e-06)
(6.7956e-06 1.6414e-05 7.38103e-07)
(6.67177e-06 1.61113e-05 -4.7687e-06)
(6.8943e-06 1.66459e-05 -1.19603e-05)
(6.54935e-06 2.01841e-05 1.39174e-05)
(5.85482e-06 1.80413e-05 6.32963e-06)
(5.4854e-06 1.68983e-05 7.37724e-07)
(5.38591e-06 1.65868e-05 -4.76959e-06)
(5.56599e-06 1.71372e-05 -1.19619e-05)
(4.94254e-06 2.06392e-05 1.39194e-05)
(4.41862e-06 1.84478e-05 6.33069e-06)
(4.14042e-06 1.72791e-05 7.38125e-07)
(4.06589e-06 1.69605e-05 -4.76985e-06)
(4.2024e-06 1.75231e-05 -1.19631e-05)
(3.30273e-06 2.09693e-05 1.39234e-05)
(2.95373e-06 1.87423e-05 6.33322e-06)
(2.76883e-06 1.75545e-05 7.39654e-07)
(2.71945e-06 1.72304e-05 -4.7691e-06)
(2.81095e-06 1.78015e-05 -1.19634e-05)
(1.63285e-06 2.11787e-05 1.39305e-05)
(1.46911e-06 1.89272e-05 6.33671e-06)
(1.37859e-06 1.77251e-05 7.4193e-07)
(1.35323e-06 1.73943e-05 -4.76741e-06)
(1.39617e-06 1.79659e-05 -1.19629e-05)
(0 2.13321e-05 1.41846e-05)
(0 1.90412e-05 6.51132e-06)
(0 1.78079e-05 8.98766e-07)
(0 1.74476e-05 -4.58121e-06)
(0 1.79843e-05 -1.1682e-05)
(4.69517e-05 0 1.88348e-05)
(4.50093e-05 0 9.51426e-06)
(4.35343e-05 0 1.31632e-06)
(4.25874e-05 0 -6.77441e-06)
(4.20485e-05 0 -1.57441e-05)
(4.67421e-05 3.65083e-06 1.85553e-05)
(4.48123e-05 3.51456e-06 9.26457e-06)
(4.33572e-05 3.40574e-06 1.07098e-06)
(4.24297e-05 3.3371e-06 -7.04607e-06)
(4.1903e-05 3.30059e-06 -1.60704e-05)
(4.62974e-05 7.31546e-06 1.8545e-05)
(4.4385e-05 7.01805e-06 9.25387e-06)
(4.29455e-05 6.79514e-06 1.06079e-06)
(4.20292e-05 6.65433e-06 -7.05527e-06)
(4.1509e-05 6.57586e-06 -1.60757e-05)
(4.55724e-05 1.09268e-05 1.85396e-05)
(4.36903e-05 1.04789e-05 9.2492e-06)
(4.22734e-05 1.01427e-05 1.05702e-06)
(4.13716e-05 9.93001e-06 -7.05781e-06)
(4.08596e-05 9.81059e-06 -1.60765e-05)
(4.4569e-05 1.44695e-05 1.85372e-05)
(4.27284e-05 1.38746e-05 9.2477e-06)
(4.13426e-05 1.34278e-05 1.05636e-06)
(4.04605e-05 1.31444e-05 -7.05747e-06)
(3.99598e-05 1.29846e-05 -1.60749e-05)
(4.32923e-05 1.7922e-05 1.85369e-05)
(4.15043e-05 1.71843e-05 9.24801e-06)
(4.0158e-05 1.66297e-05 1.05734e-06)
(3.93011e-05 1.62776e-05 -7.0557e-06)
(3.88146e-05 1.60786e-05 -1.60722e-05)
(4.17496e-05 2.12632e-05 1.8538e-05)
(4.00251e-05 2.03875e-05 9.24943e-06)
(3.87266e-05 1.97287e-05 1.05921e-06)
(3.79001e-05 1.93101e-05 -7.05324e-06)
(3.74307e-05 1.90732e-05 -1.6069e-05)
(3.995e-05 2.44728e-05 1.854e-05)
(3.82995e-05 2.34644e-05 9.25149e-06)
(3.70568e-05 2.27056e-05 1.06149e-06)
(3.62657e-05 2.22231e-05 -7.05057e-06)
(3.58164e-05 2.19499e-05 -1.60657e-05)
(3.79044e-05 2.75313e-05 1.85426e-05)
(3.63379e-05 2.63965e-05 9.25378e-06)
(3.51587e-05 2.55421e-05 1.06375e-06)
(3.44081e-05 2.49987e-05 -7.04811e-06)
(3.39818e-05 2.46907e-05 -1.60628e-05)
(3.56249e-05 3.04206e-05 1.85452e-05)
(3.41524e-05 2.91659e-05 9.2558e-06)
(3.30442e-05 2.82211e-05 1.06553e-06)
(3.2339e-05 2.762e-05 -7.04631e-06)
(3.19385e-05 2.72791e-05 -1.60608e-05)
(3.31246e-05 3.31246e-05 1.85465e-05)
(3.17565e-05 3.17565e-05 9.25667e-06)
(3.07268e-05 3.07268e-05 1.06623e-06)
(3.00716e-05 3.00716e-05 -7.04563e-06)
(2.96997e-05 2.96997e-05 -1.606e-05)
(3.04206e-05 3.56249e-05 1.85452e-05)
(2.91659e-05 3.41524e-05 9.2558e-06)
(2.82212e-05 3.30442e-05 1.06553e-06)
(2.762e-05 3.2339e-05 -7.0463e-06)
(2.72791e-05 3.19385e-05 -1.60608e-05)
(2.75313e-05 3.79044e-05 1.85426e-05)
(2.63965e-05 3.63379e-05 9.25378e-06)
(2.55422e-05 3.51587e-05 1.06375e-06)
(2.49987e-05 3.44081e-05 -7.04811e-06)
(2.46908e-05 3.39818e-05 -1.60628e-05)
(2.44728e-05 3.995e-05 1.854e-05)
(2.34645e-05 3.82995e-05 9.25149e-06)
(2.27056e-05 3.70568e-05 1.06149e-06)
(2.22232e-05 3.62657e-05 -7.05057e-06)
(2.19499e-05 3.58164e-05 -1.60657e-05)
(2.12632e-05 4.17496e-05 1.8538e-05)
(2.03875e-05 4.00251e-05 9.24943e-06)
(1.97287e-05 3.87266e-05 1.05922e-06)
(1.93101e-05 3.79001e-05 -7.05324e-06)
(1.90732e-05 3.74307e-05 -1.6069e-05)
(1.7922e-05 4.32923e-05 1.85369e-05)
(1.71843e-05 4.15043e-05 9.24801e-06)
(1.66297e-05 4.01581e-05 1.05735e-06)
(1.62776e-05 3.93011e-05 -7.0557e-06)
(1.60786e-05 3.88146e-05 -1.60722e-05)
(1.44695e-05 4.4569e-05 1.85373e-05)
(1.38746e-05 4.27284e-05 9.2477e-06)
(1.34278e-05 4.13426e-05 1.05637e-06)
(1.31444e-05 4.04605e-05 -7.05747e-06)
(1.29847e-05 3.99598e-05 -1.60749e-05)
(1.09268e-05 4.55724e-05 1.85396e-05)
(1.04789e-05 4.36903e-05 9.24921e-06)
(1.01427e-05 4.22734e-05 1.05703e-06)
(9.93002e-06 4.13716e-05 -7.05781e-06)
(9.8106e-06 4.08596e-05 -1.60765e-05)
(7.31546e-06 4.62975e-05 1.8545e-05)
(7.01806e-06 4.4385e-05 9.25388e-06)
(6.79514e-06 4.29455e-05 1.06079e-06)
(6.65434e-06 4.20292e-05 -7.05526e-06)
(6.57587e-06 4.1509e-05 -1.60756e-05)
(3.65084e-06 4.67421e-05 1.85553e-05)
(3.51457e-06 4.48123e-05 9.26458e-06)
(3.40575e-06 4.33572e-05 1.07098e-06)
(3.33711e-06 4.24298e-05 -7.04607e-06)
(3.30059e-06 4.1903e-05 -1.60704e-05)
(0 4.69517e-05 1.88348e-05)
(0 4.50093e-05 9.51427e-06)
(0 4.35343e-05 1.31632e-06)
(0 4.25874e-05 -6.77441e-06)
(0 4.20485e-05 -1.57441e-05)
(7.25597e-05 0 1.79414e-05)
(7.07385e-05 0 9.05388e-06)
(6.90879e-05 0 8.11036e-07)
(6.7637e-05 0 -7.34276e-06)
(6.63046e-05 0 -1.59376e-05)
(7.22801e-05 5.66661e-06 1.76831e-05)
(7.04626e-05 5.53833e-06 8.8071e-06)
(6.88203e-05 5.41625e-06 5.60655e-07)
(6.73773e-05 5.30967e-06 -7.61238e-06)
(6.60493e-05 5.21808e-06 -1.62407e-05)
(7.16011e-05 1.13251e-05 1.76727e-05)
(6.97979e-05 1.10461e-05 8.7966e-06)
(6.81702e-05 1.07951e-05 5.50364e-07)
(6.67406e-05 1.05753e-05 -7.62147e-06)
(6.54254e-05 1.0374e-05 -1.62467e-05)
(7.0483e-05 1.69069e-05 1.76671e-05)
(6.87076e-05 1.64861e-05 8.79155e-06)
(6.71047e-05 1.61071e-05 5.46114e-07)
(6.5697e-05 1.57748e-05 -7.62444e-06)
(6.44017e-05 1.54695e-05 -1.62481e-05)
(6.89323e-05 2.23836e-05 1.76648e-05)
(6.71958e-05 2.18241e-05 8.79004e-06)
(6.56277e-05 2.13197e-05 5.45492e-07)
(6.42506e-05 2.08772e-05 -7.624e-06)
(6.29835e-05 2.04702e-05 -1.62465e-05)
(6.69582e-05 2.77218e-05 1.76649e-05)
(6.5271e-05 2.70273e-05 8.79076e-06)
(6.37476e-05 2.64008e-05 5.46976e-07)
(6.24097e-05 2.58509e-05 -7.62162e-06)
(6.11785e-05 2.53451e-05 -1.62431e-05)
(6.45722e-05 3.28886e-05 1.76666e-05)
(6.29449e-05 3.20636e-05 8.79284e-06)
(6.14755e-05 3.1319e-05 5.49633e-07)
(6.0185e-05 3.06653e-05 -7.61825e-06)
(5.89974e-05 3.00638e-05 -1.62388e-05)
(6.17889e-05 3.78525e-05 1.76693e-05)
(6.02313e-05 3.69021e-05 8.79568e-06)
(5.8825e-05 3.6044e-05 5.52787e-07)
(5.759e-05 3.52906e-05 -7.61459e-06)
(5.64534e-05 3.45973e-05 -1.62345e-05)
(5.86249e-05 4.25831e-05 1.76726e-05)
(5.71467e-05 4.15131e-05 8.79869e-06)
(5.58124e-05 4.05468e-05 5.55843e-07)
(5.46406e-05 3.96981e-05 -7.61126e-06)
(5.35623e-05 3.89173e-05 -1.62307e-05)
(5.50995e-05 4.7052e-05 1.76757e-05)
(5.371e-05 4.58686e-05 8.80122e-06)
(5.24562e-05 4.47998e-05 5.58171e-07)
(5.13552e-05 4.38611e-05 -7.60886e-06)
(5.0342e-05 4.29974e-05 -1.62281e-05)
(5.12333e-05 5.12333e-05 1.76771e-05)
(4.99426e-05 4.99426e-05 8.80226e-06)
(4.87776e-05 4.87776e-05 5.59069e-07)
(4.77546e-05 4.77546e-05 -7.60797e-06)
(4.68132e-05 4.68132e-05 -1.62271e-05)
(4.7052e-05 5.50995e-05 1.76757e-05)
(4.58687e-05 5.371e-05 8.80122e-06)
(4.47999e-05 5.24561e-05 5.58172e-07)
(4.38611e-05 5.13551e-05 -7.60886e-06)
(4.29974e-05 5.0342e-05 -1.62281e-05)
(4.25831e-05 5.86249e-05 1.76726e-05)
(4.15132e-05 5.71467e-05 8.79869e-06)
(4.05468e-05 5.58124e-05 5.55845e-07)
(3.96982e-05 5.46406e-05 -7.61125e-06)
(3.89173e-05 5.35622e-05 -1.62307e-05)
(3.78525e-05 6.17889e-05 1.76693e-05)
(3.69021e-05 6.02313e-05 8.79568e-06)
(3.60441e-05 5.8825e-05 5.52789e-07)
(3.52906e-05 5.759e-05 -7.61458e-06)
(3.45973e-05 5.64534e-05 -1.62345e-05)
(3.28886e-05 6.45722e-05 1.76666e-05)
(3.20636e-05 6.29449e-05 8.79285e-06)
(3.1319e-05 6.14755e-05 5.49636e-07)
(3.06653e-05 6.0185e-05 -7.61824e-06)
(3.00639e-05 5.89974e-05 -1.62388e-05)
(2.77218e-05 6.69582e-05 1.76649e-05)
(2.70273e-05 6.5271e-05 8.79076e-06)
(2.64008e-05 6.37476e-05 5.4698e-07)
(2.58509e-05 6.24097e-05 -7.62162e-06)
(2.53451e-05 6.11785e-05 -1.6243e-05)
(2.23836e-05 6.89323e-05 1.76648e-05)
(2.18242e-05 6.71958e-05 8.79005e-06)
(2.13197e-05 6.56277e-05 5.45496e-07)
(2.08772e-05 6.42506e-05 -7.624e-06)
(2.04702e-05 6.29835e-05 -1.62465e-05)
(1.69069e-05 7.0483e-05 1.76671e-05)
(1.64861e-05 6.87077e-05 8.79155e-06)
(1.61071e-05 6.71047e-05 5.46119e-07)
(1.57749e-05 6.5697e-05 -7.62444e-06)
(1.54696e-05 6.44017e-05 -1.62481e-05)
(1.13251e-05 7.16012e-05 1.76727e-05)
(1.10461e-05 6.97979e-05 8.7966e-06)
(1.07951e-05 6.81703e-05 5.50369e-07)
(1.05753e-05 6.67406e-05 -7.62146e-06)
(1.0374e-05 6.54254e-05 -1.62467e-05)
(5.66661e-06 7.22801e-05 1.76831e-05)
(5.53834e-06 7.04626e-05 8.80711e-06)
(5.41625e-06 6.88203e-05 5.6066e-07)
(5.30967e-06 6.73773e-05 -7.61238e-06)
(5.21809e-06 6.60493e-05 -1.62407e-05)
(0 7.25598e-05 1.79414e-05)
(0 7.07385e-05 9.05389e-06)
(0 6.90879e-05 8.11041e-07)
(0 6.76371e-05 -7.34275e-06)
(0 6.63046e-05 -1.59376e-05)
(9.42451e-05 0 1.34566e-05)
(9.23806e-05 0 6.29847e-06)
(9.0531e-05 0 -5.20623e-07)
(8.87065e-05 0 -7.2671e-06)
(8.68488e-05 0 -1.41922e-05)
(9.39e-05 7.36954e-06 1.32527e-05)
(9.20347e-05 7.23763e-06 6.09675e-06)
(9.01872e-05 7.10035e-06 -7.28036e-07)
(8.83645e-05 6.96621e-06 -7.48742e-06)
(8.65076e-05 6.83872e-06 -1.44313e-05)
(9.30214e-05 1.47171e-05 1.32449e-05)
(9.11695e-05 1.44315e-05 6.08939e-06)
(8.9337e-05 1.41495e-05 -7.34919e-07)
(8.75297e-05 1.3872e-05 -7.4932e-06)
(8.56899e-05 1.35901e-05 -1.44348e-05)
(9.15698e-05 2.19672e-05 1.32404e-05)
(8.97461e-05 2.15365e-05 6.0857e-06)
(8.79412e-05 2.11106e-05 -7.37685e-07)
(8.61613e-05 2.06909e-05 -7.49474e-06)
(8.43493e-05 2.02636e-05 -1.4435e-05)
(8.95556e-05 2.90813e-05 1.32387e-05)
(8.77714e-05 2.85081e-05 6.08493e-06)
(8.60055e-05 2.7941e-05 -7.37447e-07)
(8.42643e-05 2.7382e-05 -7.49337e-06)
(8.24914e-05 2.68126e-05 -1.44325e-05)
(8.69907e-05 3.60157e-05 1.32392e-05)
(8.52571e-05 3.53036e-05 6.08623e-06)
(8.35414e-05 3.4599e-05 -7.3522e-07)
(8.18495e-05 3.39042e-05 -7.49011e-06)
(8.0127e-05 3.31965e-05 -1.44281e-05)
(8.38906e-05 4.27279e-05 1.32413e-05)
(8.22185e-05 4.18814e-05 6.08889e-06)
(8.05635e-05 4.10437e-05 -7.31818e-07)
(7.89316e-05 4.02175e-05 -7.48582e-06)
(7.72701e-05 3.93759e-05 -1.44228e-05)
(8.02743e-05 4.91768e-05 1.32444e-05)
(7.86738e-05 4.82012e-05 6.09228e-06)
(7.70899e-05 4.72354e-05 -7.27948e-07)
(7.55281e-05 4.62829e-05 -7.48129e-06)
(7.39381e-05 4.53129e-05 -1.44175e-05)
(7.61635e-05 5.53229e-05 1.32481e-05)
(7.46447e-05 5.42241e-05 6.09577e-06)
(7.31418e-05 5.31362e-05 -7.2429e-07)
(7.16601e-05 5.20632e-05 -7.47723e-06)
(7.01515e-05 5.09706e-05 -1.44128e-05)
(7.15834e-05 6.11289e-05 1.32515e-05)
(7.01557e-05 5.99134e-05 6.09862e-06)
(6.87436e-05 5.87099e-05 -7.21562e-07)
(6.73515e-05 5.7523e-05 -7.47435e-06)
(6.59341e-05 5.63144e-05 -1.44096e-05)
(6.65609e-05 6.65608e-05 1.3253e-05)
(6.52349e-05 6.52349e-05 6.09977e-06)
(6.39229e-05 6.39229e-05 -7.20525e-07)
(6.26293e-05 6.26293e-05 -7.4733e-06)
(6.13122e-05 6.13122e-05 -1.44085e-05)
(6.1129e-05 7.15834e-05 1.32515e-05)
(5.99135e-05 7.01557e-05 6.09862e-06)
(5.87099e-05 6.87436e-05 -7.21562e-07)
(5.7523e-05 6.73514e-05 -7.47435e-06)
(5.63145e-05 6.5934e-05 -1.44096e-05)
(5.53229e-05 7.61635e-05 1.32481e-05)
(5.42241e-05 7.46447e-05 6.09577e-06)
(5.31362e-05 7.31418e-05 -7.24288e-07)
(5.20632e-05 7.16601e-05 -7.47723e-06)
(5.09706e-05 7.01515e-05 -1.44128e-05)
(4.91768e-05 8.02743e-05 1.32444e-05)
(4.82012e-05 7.86738e-05 6.09229e-06)
(4.72354e-05 7.70899e-05 -7.27946e-07)
(4.62829e-05 7.55281e-05 -7.48129e-06)
(4.53129e-05 7.39381e-05 -1.44175e-05)
(4.27279e-05 8.38906e-05 1.32413e-05)
(4.18815e-05 8.22185e-05 6.0889e-06)
(4.10437e-05 8.05635e-05 -7.31815e-07)
(4.02175e-05 7.89316e-05 -7.48582e-06)
(3.9376e-05 7.72701e-05 -1.44228e-05)
(3.60157e-05 8.69906e-05 1.32392e-05)
(3.53036e-05 8.52571e-05 6.08623e-06)
(3.4599e-05 8.35414e-05 -7.35216e-07)
(3.39042e-05 8.18495e-05 -7.4901e-06)
(3.31965e-05 8.0127e-05 -1.44281e-05)
(2.90814e-05 8.95556e-05 1.32387e-05)
(2.85081e-05 8.77714e-05 6.08493e-06)
(2.7941e-05 8.60055e-05 -7.37443e-07)
(2.7382e-05 8.42643e-05 -7.49337e-06)
(2.68126e-05 8.24914e-05 -1.44324e-05)
(2.19672e-05 9.15698e-05 1.32404e-05)
(2.15365e-05 8.97462e-05 6.0857e-06)
(2.11106e-05 8.79412e-05 -7.3768e-07)
(2.0691e-05 8.61613e-05 -7.49474e-06)
(2.02636e-05 8.43493e-05 -1.4435e-05)
(1.47171e-05 9.30214e-05 1.32449e-05)
(1.44315e-05 9.11695e-05 6.0894e-06)
(1.41495e-05 8.9337e-05 -7.34914e-07)
(1.3872e-05 8.75297e-05 -7.4932e-06)
(1.35902e-05 8.56899e-05 -1.44348e-05)
(7.36954e-06 9.39e-05 1.32527e-05)
(7.23764e-06 9.20347e-05 6.09675e-06)
(7.10035e-06 9.01873e-05 -7.2803e-07)
(6.96621e-06 8.83645e-05 -7.48741e-06)
(6.83872e-06 8.65077e-05 -1.44313e-05)
(0 9.42451e-05 1.34566e-05)
(0 9.23806e-05 6.29847e-06)
(0 9.0531e-05 -5.20617e-07)
(0 8.87065e-05 -7.26709e-06)
(0 8.68489e-05 -1.41922e-05)
(0.000109963 0 6.98041e-06)
(0.000107992 0 2.18269e-06)
(0.000105974 0 -2.47793e-06)
(0.000103906 0 -7.08881e-06)
(0.000101741 0 -1.17314e-05)
(0.000109567 8.60035e-06 6.84602e-06)
(0.000107594 8.46104e-06 2.04633e-06)
(0.000105575 8.3113e-06 -2.61935e-06)
(0.000103506 8.15944e-06 -7.2375e-06)
(0.000101341 8.0114e-06 -1.18885e-05)
(0.000108542 1.71717e-05 6.84139e-06)
(0.000106583 1.68705e-05 2.04264e-06)
(0.00010458 1.6563e-05 -2.62229e-06)
(0.000102528 1.62485e-05 -7.23939e-06)
(0.000100383 1.59205e-05 -1.18888e-05)
(0.000106848 2.56304e-05 6.83863e-06)
(0.000104919 2.5176e-05 2.04103e-06)
(0.000102946 2.47116e-05 -2.62275e-06)
(0.000100924 2.42358e-05 -7.23855e-06)
(9.88116e-05 2.37384e-05 -1.18866e-05)
(0.000104497 3.39305e-05 6.83782e-06)
(0.000102609 3.33254e-05 2.04145e-06)
(0.000100679 3.27068e-05 -2.62106e-06)
(9.87008e-05 3.20729e-05 -7.23553e-06)
(9.6634e-05 3.14099e-05 -1.18821e-05)
(0.000101503 4.20211e-05 6.83873e-06)
(9.96687e-05 4.1269e-05 2.0435e-06)
(9.7793e-05 4.05e-05 -2.6178e-06)
(9.58711e-05 3.97118e-05 -7.23094e-06)
(9.38628e-05 3.88876e-05 -1.18761e-05)
(9.7885e-05 4.98526e-05 6.841e-06)
(9.61153e-05 4.89581e-05 2.04667e-06)
(9.4306e-05 4.80434e-05 -2.61356e-06)
(9.24521e-05 4.71058e-05 -7.22552e-06)
(9.05149e-05 4.61256e-05 -1.18694e-05)
(9.36643e-05 5.73771e-05 6.84422e-06)
(9.19705e-05 5.63457e-05 2.05045e-06)
(9.02389e-05 5.52908e-05 -2.60902e-06)
(8.84647e-05 5.42096e-05 -7.22002e-06)
(8.66108e-05 5.30793e-05 -1.18628e-05)
(8.8867e-05 6.45487e-05 6.84789e-06)
(8.72597e-05 6.33865e-05 2.05422e-06)
(8.56167e-05 6.21979e-05 -2.60484e-06)
(8.39335e-05 6.09796e-05 -7.2152e-06)
(8.21747e-05 5.97062e-05 -1.18572e-05)
(8.35222e-05 7.13236e-05 6.85132e-06)
(8.20115e-05 7.00376e-05 2.05724e-06)
(8.04679e-05 6.87223e-05 -2.60178e-06)
(7.88865e-05 6.73744e-05 -7.21184e-06)
(7.72341e-05 6.59657e-05 -1.18533e-05)
(7.76617e-05 7.76617e-05 6.85287e-06)
(7.62588e-05 7.62588e-05 2.05845e-06)
(7.48247e-05 7.48247e-05 -2.60063e-06)
(7.33555e-05 7.33554e-05 -7.21062e-06)
(7.18201e-05 7.182e-05 -1.1852e-05)
(7.13236e-05 8.35222e-05 6.85132e-06)
(7.00377e-05 8.20115e-05 2.05724e-06)
(6.87224e-05 8.04679e-05 -2.60178e-06)
(6.73745e-05 7.88865e-05 -7.21184e-06)
(6.59657e-05 7.72341e-05 -1.18533e-05)
(6.45487e-05 8.8867e-05 6.8479e-06)
(6.33866e-05 8.72596e-05 2.05422e-06)
(6.21979e-05 8.56166e-05 -2.60484e-06)
(6.09796e-05 8.39335e-05 -7.2152e-06)
(5.97063e-05 8.21747e-05 -1.18572e-05)
(5.73771e-05 9.36643e-05 6.84422e-06)
(5.63457e-05 9.19705e-05 2.05045e-06)
(5.52908e-05 9.02389e-05 -2.60901e-06)
(5.42096e-05 8.84647e-05 -7.22002e-06)
(5.30794e-05 8.66108e-05 -1.18628e-05)
(4.98526e-05 9.7885e-05 6.841e-06)
(4.89581e-05 9.61153e-05 2.04668e-06)
(4.80434e-05 9.4306e-05 -2.61356e-06)
(4.71059e-05 9.24521e-05 -7.22552e-06)
(4.61256e-05 9.05149e-05 -1.18694e-05)
(4.20211e-05 0.000101503 6.83874e-06)
(4.1269e-05 9.96687e-05 2.0435e-06)
(4.05e-05 9.7793e-05 -2.61779e-06)
(3.97118e-05 9.58711e-05 -7.23094e-06)
(3.88877e-05 9.38628e-05 -1.18761e-05)
(3.39305e-05 0.000104497 6.83783e-06)
(3.33254e-05 0.000102609 2.04146e-06)
(3.27069e-05 0.000100679 -2.62106e-06)
(3.20729e-05 9.87009e-05 -7.23552e-06)
(3.14099e-05 9.6634e-05 -1.18821e-05)
(2.56304e-05 0.000106848 6.83864e-06)
(2.5176e-05 0.000104919 2.04104e-06)
(2.47116e-05 0.000102946 -2.62274e-06)
(2.42359e-05 0.000100924 -7.23855e-06)
(2.37384e-05 9.88116e-05 -1.18865e-05)
(1.71717e-05 0.000108542 6.84139e-06)
(1.68705e-05 0.000106583 2.04265e-06)
(1.6563e-05 0.00010458 -2.62228e-06)
(1.62485e-05 0.000102528 -7.23938e-06)
(1.59205e-05 0.000100383 -1.18888e-05)
(8.60036e-06 0.000109567 6.84603e-06)
(8.46105e-06 0.000107594 2.04634e-06)
(8.31131e-06 0.000105576 -2.61934e-06)
(8.15945e-06 0.000103506 -7.23749e-06)
(8.0114e-06 0.000101341 -1.18885e-05)
(0 0.000109963 6.98041e-06)
(0 0.000107992 2.18269e-06)
(0 0.000105974 -2.47792e-06)
(0 0.000103906 -7.0888e-06)
(0 0.000101741 -1.17314e-05)
(0.000118953 0 -3.7189e-07)
(0.000116889 0 -2.60572e-06)
(0.000114767 0 -4.83828e-06)
(0.000112575 0 -7.04821e-06)
(0.000110277 0 -9.21456e-06)
(0.000118526 9.30123e-06 -4.32865e-07)
(0.000116459 9.15594e-06 -2.66988e-06)
(0.000114336 8.99902e-06 -4.90556e-06)
(0.000112143 8.83876e-06 -7.11785e-06)
(0.000109845 8.68232e-06 -9.28514e-06)
(0.000117417 1.8571e-05 -4.34569e-07)
(0.000115364 1.82567e-05 -2.67035e-06)
(0.000113257 1.79344e-05 -4.90503e-06)
(0.000111082 1.76024e-05 -7.11625e-06)
(0.000108805 1.72553e-05 -9.28227e-06)
(0.000115583 2.77194e-05 -4.35601e-07)
(0.000113561 2.7245e-05 -2.66986e-06)
(0.000111485 2.67581e-05 -4.9031e-06)
(0.000109343 2.62555e-05 -7.11284e-06)
(0.0001071 2.57289e-05 -9.27729e-06)
(0.000113037 3.66965e-05 -4.35615e-07)
(0.000111058 3.60643e-05 -2.66818e-06)
(0.000109028 3.54154e-05 -4.89977e-06)
(0.000106931 3.47454e-05 -7.10781e-06)
(0.000104737 3.40432e-05 -9.27045e-06)
(0.000109796 4.54469e-05 -4.34537e-07)
(0.000107873 4.46606e-05 -2.66542e-06)
(0.0001059 4.38535e-05 -4.89533e-06)
(0.000103863 4.30201e-05 -7.1016e-06)
(0.00010173 4.21468e-05 -9.26232e-06)
(0.00010588 5.39174e-05 -4.32449e-07)
(0.000104025 5.29816e-05 -2.66186e-06)
(0.000102121 5.2021e-05 -4.89022e-06)
(0.000100156 5.10292e-05 -7.09482e-06)
(9.80988e-05 4.99901e-05 -9.25369e-06)
(0.000101312 6.20561e-05 -4.29559e-07)
(9.95367e-05 6.09764e-05 -2.65789e-06)
(9.77145e-05 5.9868e-05 -4.88501e-06)
(9.58341e-05 5.87237e-05 -7.0882e-06)
(9.38653e-05 5.7525e-05 -9.24547e-06)
(9.61213e-05 6.98134e-05 -4.26219e-07)
(9.44364e-05 6.85963e-05 -2.65402e-06)
(9.27076e-05 6.73467e-05 -4.88037e-06)
(9.09237e-05 6.60568e-05 -7.08255e-06)
(8.9056e-05 6.47057e-05 -9.23859e-06)
(9.03385e-05 7.7142e-05 -4.23027e-07)
(8.87551e-05 7.57947e-05 -2.65096e-06)
(8.7131e-05 7.44115e-05 -4.87704e-06)
(8.54553e-05 7.29838e-05 -7.07867e-06)
(8.37007e-05 7.14887e-05 -9.23397e-06)
(8.39984e-05 8.39984e-05 -4.21564e-07)
(8.25282e-05 8.25281e-05 -2.64974e-06)
(8.10197e-05 8.10197e-05 -4.87579e-06)
(7.9463e-05 7.9463e-05 -7.07727e-06)
(7.7833e-05 7.7833e-05 -9.23233e-06)
(7.71421e-05 9.03385e-05 -4.23026e-07)
(7.57947e-05 8.87551e-05 -2.65096e-06)
(7.44115e-05 8.7131e-05 -4.87704e-06)
(7.29838e-05 8.54553e-05 -7.07867e-06)
(7.14887e-05 8.37007e-05 -9.23397e-06)
(6.98134e-05 9.61213e-05 -4.26216e-07)
(6.85963e-05 9.44363e-05 -2.65402e-06)
(6.73467e-05 9.27075e-05 -4.88037e-06)
(6.60568e-05 9.09237e-05 -7.08255e-06)
(6.47058e-05 8.9056e-05 -9.23859e-06)
(6.20561e-05 0.000101312 -4.29556e-07)
(6.09765e-05 9.95367e-05 -2.65788e-06)
(5.98681e-05 9.77145e-05 -4.88501e-06)
(5.87237e-05 9.58341e-05 -7.0882e-06)
(5.7525e-05 9.38653e-05 -9.24546e-06)
(5.39174e-05 0.00010588 -4.32445e-07)
(5.29817e-05 0.000104025 -2.66185e-06)
(5.2021e-05 0.000102121 -4.89022e-06)
(5.10292e-05 0.000100156 -7.09481e-06)
(4.99901e-05 9.80988e-05 -9.25368e-06)
(4.5447e-05 0.000109796 -4.34532e-07)
(4.46607e-05 0.000107873 -2.66542e-06)
(4.38535e-05 0.0001059 -4.89532e-06)
(4.30201e-05 0.000103863 -7.10159e-06)
(4.21469e-05 0.00010173 -9.26231e-06)
(3.66965e-05 0.000113037 -4.3561e-07)
(3.60643e-05 0.000111059 -2.66817e-06)
(3.54154e-05 0.000109028 -4.89976e-06)
(3.47454e-05 0.000106931 -7.10781e-06)
(3.40433e-05 0.000104737 -9.27045e-06)
(2.77194e-05 0.000115583 -4.35594e-07)
(2.7245e-05 0.000113561 -2.66985e-06)
(2.67581e-05 0.000111485 -4.90309e-06)
(2.62556e-05 0.000109343 -7.11283e-06)
(2.57289e-05 0.0001071 -9.27729e-06)
(1.8571e-05 0.000117417 -4.34562e-07)
(1.82567e-05 0.000115364 -2.67035e-06)
(1.79345e-05 0.000113257 -4.90502e-06)
(1.76024e-05 0.000111082 -7.11624e-06)
(1.72553e-05 0.000108805 -9.28226e-06)
(9.30124e-06 0.000118526 -4.32857e-07)
(9.15594e-06 0.000116459 -2.66988e-06)
(8.99902e-06 0.000114336 -4.90555e-06)
(8.83876e-06 0.000112143 -7.11784e-06)
(8.68233e-06 0.000109845 -9.28514e-06)
(0 0.000118953 -3.71883e-07)
(0 0.000116889 -2.60571e-06)
(0 0.000114767 -4.83827e-06)
(0 0.000112575 -7.0482e-06)
(0 0.000110277 -9.21455e-06)
(0.000121201 0 -7.83622e-06)
(0.000119094 0 -7.55885e-06)
(0.000116948 0 -7.38022e-06)
(0.000114746 0 -7.20735e-06)
(0.000112454 0 -6.95197e-06)
(0.000120765 9.47209e-06 -7.82628e-06)
(0.000118656 9.32498e-06 -7.55198e-06)
(0.000116509 9.16725e-06 -7.37407e-06)
(0.000114306 9.00717e-06 -7.19928e-06)
(0.000112014 8.85228e-06 -6.93912e-06)
(0.000119633 1.89134e-05 -7.82562e-06)
(0.000117538 1.85947e-05 -7.54987e-06)
(0.000115408 1.82705e-05 -7.37075e-06)
(0.000113222 1.79387e-05 -7.1948e-06)
(0.000110951 1.75946e-05 -6.9336e-06)
(0.000117761 2.82313e-05 -7.8253e-06)
(0.000115697 2.77497e-05 -7.5476e-06)
(0.000113598 2.72597e-05 -7.36672e-06)
(0.000111445 2.67571e-05 -7.18905e-06)
(0.000109208 2.62346e-05 -6.92596e-06)
(0.000115163 3.73746e-05 -7.82486e-06)
(0.000113144 3.67324e-05 -7.54488e-06)
(0.000111089 3.60788e-05 -7.36188e-06)
(0.000108983 3.54084e-05 -7.18205e-06)
(0.000106794 3.47113e-05 -6.91661e-06)
(0.000111857 4.62872e-05 -7.82398e-06)
(0.000109894 4.54877e-05 -7.54162e-06)
(0.000107898 4.46742e-05 -7.35636e-06)
(0.00010585 4.38397e-05 -7.17419e-06)
(0.000103723 4.2972e-05 -6.90615e-06)
(0.000107863 5.49149e-05 -7.82247e-06)
(0.000105969 5.39625e-05 -7.5379e-06)
(0.000104043 5.29936e-05 -7.35048e-06)
(0.000102068 5.19997e-05 -7.16603e-06)
(0.000100016 5.09664e-05 -6.89543e-06)
(0.000103206 6.3205e-05 -7.82032e-06)
(0.000101393 6.21053e-05 -7.53396e-06)
(9.95491e-05 6.09864e-05 -7.34473e-06)
(9.76591e-05 5.98389e-05 -7.1583e-06)
(9.56953e-05 5.86461e-05 -6.88543e-06)
(9.79137e-05 7.11071e-05 -7.81767e-06)
(9.61936e-05 6.98665e-05 -7.53021e-06)
(9.44446e-05 6.86043e-05 -7.33973e-06)
(9.26518e-05 6.73099e-05 -7.15183e-06)
(9.0789e-05 6.59646e-05 -6.87718e-06)
(9.20198e-05 7.85733e-05 -7.81497e-06)
(9.04037e-05 7.71992e-05 -7.52726e-06)
(8.87609e-05 7.58011e-05 -7.3362e-06)
(8.70772e-05 7.43677e-05 -7.14744e-06)
(8.53277e-05 7.2878e-05 -6.87169e-06)
(8.55591e-05 8.55591e-05 -7.81368e-06)
(8.40589e-05 8.40589e-05 -7.52608e-06)
(8.25336e-05 8.25336e-05 -7.33489e-06)
(8.097e-05 8.097e-05 -7.14587e-06)
(7.93452e-05 7.93452e-05 -6.86975e-06)
(7.85733e-05 9.20198e-05 -7.81497e-06)
(7.71992e-05 9.04037e-05 -7.52726e-06)
(7.58011e-05 8.87609e-05 -7.3362e-06)
(7.43677e-05 8.70772e-05 -7.14743e-06)
(7.28781e-05 8.53277e-05 -6.87169e-06)
(7.11071e-05 9.79137e-05 -7.81767e-06)
(6.98665e-05 9.61936e-05 -7.53021e-06)
(6.86043e-05 9.44446e-05 -7.33973e-06)
(6.73099e-05 9.26518e-05 -7.15182e-06)
(6.59646e-05 9.0789e-05 -6.87718e-06)
(6.3205e-05 0.000103206 -7.82032e-06)
(6.21053e-05 0.000101393 -7.53396e-06)
(6.09864e-05 9.95491e-05 -7.34473e-06)
(5.98389e-05 9.76591e-05 -7.1583e-06)
(5.86461e-05 9.56953e-05 -6.88543e-06)
(5.49149e-05 0.000107863 -7.82247e-06)
(5.39626e-05 0.000105969 -7.53789e-06)
(5.29936e-05 0.000104043 -7.35048e-06)
(5.19997e-05 0.000102068 -7.16602e-06)
(5.09665e-05 0.000100016 -6.89543e-06)
(4.62873e-05 0.000111857 -7.82397e-06)
(4.54877e-05 0.000109894 -7.54161e-06)
(4.46742e-05 0.000107898 -7.35635e-06)
(4.38397e-05 0.00010585 -7.17418e-06)
(4.2972e-05 0.000103723 -6.90615e-06)
(3.73746e-05 0.000115163 -7.82485e-06)
(3.67324e-05 0.000113144 -7.54488e-06)
(3.60788e-05 0.000111089 -7.36188e-06)
(3.54084e-05 0.000108983 -7.18205e-06)
(3.47113e-05 0.000106794 -6.9166e-06)
(2.82313e-05 0.000117761 -7.8253e-06)
(2.77497e-05 0.000115697 -7.5476e-06)
(2.72597e-05 0.000113598 -7.36672e-06)
(2.67572e-05 0.000111445 -7.18904e-06)
(2.62346e-05 0.000109208 -6.92596e-06)
(1.89134e-05 0.000119633 -7.82561e-06)
(1.85947e-05 0.000117538 -7.54986e-06)
(1.82706e-05 0.000115408 -7.37074e-06)
(1.79387e-05 0.000113222 -7.1948e-06)
(1.75947e-05 0.000110951 -6.93359e-06)
(9.47209e-06 0.000120765 -7.82627e-06)
(9.32499e-06 0.000118656 -7.55197e-06)
(9.16725e-06 0.000116509 -7.37406e-06)
(9.00717e-06 0.000114306 -7.19927e-06)
(8.85229e-06 0.000112014 -6.93912e-06)
(0 0.000121201 -7.83621e-06)
(0 0.000119094 -7.55884e-06)
(0 0.000116948 -7.38022e-06)
(0 0.000114746 -7.20734e-06)
(0 0.000112454 -6.95196e-06)
(0.000117132 0 -1.48458e-05)
(0.000115048 0 -1.22779e-05)
(0.00011296 0 -9.89519e-06)
(0.000110849 0 -7.54576e-06)
(0.000108682 0 -5.08608e-06)
(0.000116707 9.14667e-06 -1.47714e-05)
(0.000114623 9.00285e-06 -1.22063e-05)
(0.000112534 8.8508e-06 -9.82209e-06)
(0.000110423 8.69875e-06 -7.46699e-06)
(0.000108258 8.55394e-06 -4.99765e-06)
(0.000115609 1.82657e-05 -1.47689e-05)
(0.000113539 1.79532e-05 -1.22022e-05)
(0.000111466 1.76405e-05 -9.81658e-06)
(0.000109372 1.73251e-05 -7.46026e-06)
(0.000107226 1.70029e-05 -4.99002e-06)
(0.000113795 2.72652e-05 -1.47677e-05)
(0.000111755 2.67926e-05 -1.21986e-05)
(0.000109713 2.63193e-05 -9.81094e-06)
(0.00010765 2.58413e-05 -7.45264e-06)
(0.000105535 2.53514e-05 -4.98022e-06)
(0.000111279 3.6096e-05 -1.47672e-05)
(0.000109282 3.54651e-05 -1.21952e-05)
(0.000107283 3.48332e-05 -9.80498e-06)