/*--------------------------------*- C++ -*----------------------------------*\
| =========                 |                                                 |
| \\      /  F ield         | foam-extend: Open Source CFD                    |
|  \\    /   O peration     | Version:     3.1                                |
|   \\  /    A nd           | Web:         http://www.extend-project.de       |
|    \\/     M anipulation  |                                                 |
\*---------------------------------------------------------------------------*/
FoamFile
{
    version     2.0;
    format      ascii;
    class       volSymmTensorField;
    location    "0.0016";
    object      sigma;
}
// * * * * * * * * * * * * * * * * * * * * * * * * * * * * * * * * * * * * * //

dimensions      [1 -1 -2 0 0 0 0];

internalField   nonuniform List<symmTensor> 
6400
(
(1327.6 -67.217 1952.3 2817.24 43.6848 6144.13)
(306.44 -42.4871 2099.2 1255.55 58.2874 2196.82)
(-549.865 -21.9253 1980.69 -34.7921 54.1612 -1110.12)
(-1585.05 -1.28145 1619.23 -1497.2 33.2484 -4896.06)
(1337.36 -174.096 1940.97 2793.11 225.34 6087.19)
(311.529 -111.179 2082.98 1236.74 243.495 2152.25)
(-550.554 -60.2988 1962.6 -49.966 229.817 -1156.54)
(-1594.88 -9.92403 1599.03 -1512.76 187.046 -4960.07)
(1372.66 -285.624 1916.02 2753.34 378.441 6083.8)
(334.981 -181.508 2056.36 1213.04 406.954 2151)
(-537.262 -98.0615 1937.73 -62.9398 383.896 -1157.19)
(-1591.47 -15.6682 1579.17 -1515.6 313.034 -4960.21)
(1425.23 -389.845 1879.77 2698.75 528.481 6082.05)
(368.403 -247.783 2017.54 1178.41 567.718 2149.98)
(-519.144 -133.739 1901.16 -81.6963 535.334 -1157.67)
(-1588.56 -21.1962 1549.4 -1518.94 436.558 -4960.22)
(1493.68 -484.463 1832.09 2629.15 674.863 6081.26)
(411.952 -307.984 1966.41 1134.15 724.713 2149.63)
(-495.592 -166.223 1852.99 -105.611 683.232 -1157.65)
(-1584.73 -26.3129 1510.14 -1522.79 557.115 -4959.75)
(1576.31 -567.167 1773.16 2546.02 816.8 6081.15)
(464.552 -360.611 1903.2 1081.27 877.012 2149.76)
(-467.117 -194.64 1793.43 -134.131 826.72 -1157.26)
(-1580.06 -30.8091 1461.58 -1527.24 674.056 -4959.02)
(1671.02 -635.946 1703.33 2451.27 953.489 6081.5)
(524.867 -404.371 1828.27 1021.01 1023.72 2150.2)
(-434.453 -218.271 1722.83 -166.62 964.947 -1156.66)
(-1574.69 -34.5494 1404.03 -1532.26 786.696 -4958.16)
(1775.48 -689.125 1622.99 2347.15 1084.15 6082.19)
(591.394 -438.193 1742.07 954.791 1163.97 2150.84)
(-398.433 -236.524 1641.61 -202.33 1097.09 -1155.98)
(-1568.78 -37.428 1337.84 -1537.77 894.356 -4957.3)
(1887.13 -725.422 1532.63 2236.18 1208.01 6083.11)
(662.503 -461.24 1645.14 884.191 1296.94 2151.55)
(-359.976 -248.938 1550.31 -240.417 1222.35 -1155.33)
(-1562.53 -39.3638 1263.46 -1543.68 996.391 -4956.57)
(2003.66 -744.039 1432.85 2121.11 1324.43 6084.11)
(736.385 -472.938 1538.16 810.893 1421.87 2152.11)
(-320.124 -255.21 1449.56 -279.967 1340.04 -1154.91)
(-1556.16 -40.3217 1181.41 -1549.84 1092.23 -4956.13)
(2121.11 -744.039 1324.43 2003.67 1432.85 6084.11)
(810.893 -472.938 1421.87 736.385 1538.15 2152.11)
(-279.967 -255.21 1340.04 -320.124 1449.56 -1154.91)
(-1549.84 -40.3218 1092.24 -1556.16 1181.41 -4956.13)
(2236.18 -725.422 1208.01 1887.13 1532.63 6083.11)
(884.191 -461.24 1296.94 662.503 1645.14 2151.55)
(-240.417 -248.938 1222.35 -359.976 1550.31 -1155.33)
(-1543.68 -39.3639 996.393 -1562.53 1263.46 -4956.57)
(2347.15 -689.126 1084.15 1775.48 1622.99 6082.2)
(954.792 -438.193 1163.97 591.395 1742.07 2150.84)
(-202.329 -236.524 1097.09 -398.433 1641.61 -1155.97)
(-1537.77 -37.4281 894.358 -1568.78 1337.84 -4957.3)
(2451.27 -635.946 953.491 1671.02 1703.33 6081.51)
(1021.02 -404.372 1023.72 524.868 1828.27 2150.21)
(-166.62 -218.271 964.948 -434.453 1722.83 -1156.66)
(-1532.25 -34.5496 786.698 -1574.69 1404.03 -4958.16)
(2546.02 -567.167 816.801 1576.31 1773.16 6081.15)
(1081.27 -360.611 877.013 464.553 1903.2 2149.76)
(-134.131 -194.64 826.721 -467.116 1793.43 -1157.26)
(-1527.24 -30.8093 674.058 -1580.06 1461.58 -4959.02)
(2629.15 -484.463 674.864 1493.69 1832.09 6081.27)
(1134.15 -307.985 724.714 411.954 1966.41 2149.63)
(-105.61 -166.223 683.233 -495.591 1852.99 -1157.64)
(-1522.79 -26.3131 557.116 -1584.73 1510.14 -4959.75)
(2698.75 -389.845 528.482 1425.24 1879.77 6082.05)
(1178.41 -247.783 567.719 368.404 2017.54 2149.98)
(-81.6952 -133.739 535.335 -519.144 1901.16 -1157.67)
(-1518.94 -21.1964 436.559 -1588.56 1549.4 -4960.22)
(2753.34 -285.624 378.441 1372.66 1916.02 6083.8)
(1213.04 -181.509 406.954 334.982 2056.36 2151.01)
(-62.9386 -98.0616 383.897 -537.261 1937.73 -1157.19)
(-1515.6 -15.6683 313.035 -1591.47 1579.17 -4960.21)
(2793.11 -174.096 225.34 1337.36 1940.97 6087.19)
(1236.74 -111.179 243.496 311.53 2082.98 2152.26)
(-49.9647 -60.2988 229.817 -550.553 1962.6 -1156.54)
(-1512.76 -9.92413 187.047 -1594.88 1599.03 -4960.07)
(2817.24 -67.217 43.6849 1327.6 1952.3 6144.14)
(1255.55 -42.4871 58.2875 306.441 2099.2 2196.82)
(-34.7907 -21.9254 54.1614 -549.865 1980.69 -1110.11)
(-1497.19 -1.28149 33.2485 -1585.05 1619.23 -4896.06)
(-1239.81 -149.656 849.328 2166.32 -33.5261 2099.39)
(-702.775 -112.353 1581.1 1864.73 7.21585 1145.05)
(-365.574 -77.4224 1549.78 1459.74 6.40977 -123.42)
(23.1902 -45.5337 807.237 1184.61 -32.7364 -1157.79)
(-1176.46 -398.316 855.238 2154.58 100.804 2101.52)
(-658.281 -300.742 1570.82 1843.99 186.001 1130.72)
(-331.03 -213.453 1529.55 1444.22 181.765 -140.434)
(53.8715 -135.085 778.835 1180.04 94.1755 -1167.09)
(-1095.18 -654.139 844.819 2066.2 167.833 2097.69)
(-595.17 -491.51 1551.09 1781.07 308.746 1128.44)
(-285.619 -348.582 1510.18 1399.24 301.185 -142.639)
(83.3251 -220.882 769.017 1150.74 154.543 -1168.87)
(-973.49 -892.94 828.866 1943.12 233.761 2096.76)
(-503.922 -671.05 1521.84 1688.77 429.53 1127.52)
(-220.797 -475.741 1481.69 1333.88 418.661 -143.305)
(124.342 -301.363 754.467 1109.05 214.17 -1169.37)
(-816.064 -1109.74 807.755 1784.67 298.155 2096.43)
(-385.605 -834.122 1483.24 1569.72 547.588 1127.33)
(-136.901 -591.363 1444.12 1249.5 533.519 -143.293)
(177.499 -374.6 735.306 1055.58 272.512 -1169.16)
(-626.626 -1299.25 781.63 1594.57 360.626 2096.49)
(-243.143 -976.681 1435.51 1426.8 662.219 1127.53)
(-35.8595 -692.476 1397.69 1148.17 645.068 -142.93)
(241.508 -438.658 711.657 991.406 329.203 -1168.65)
(-409.81 -1456.85 750.65 1377.43 420.783 2096.82)
(-80.0428 -1095.23 1378.94 1263.49 772.711 1127.95)
(79.832 -776.553 1342.67 1032.35 752.614 -142.402)
(314.783 -491.913 683.655 918.023 383.873 -1168.04)
(-170.899 -1578.7 715.003 1138.55 478.241 2097.31)
(99.708 -1186.85 1313.86 1083.79 878.368 1128.49)
(207.324 -841.502 1279.4 904.854 855.475 -141.833)
(395.499 -533.021 651.478 837.203 436.162 -1167.46)
(84.3062 -1661.86 674.928 883.731 532.615 2097.85)
(291.764 -1249.28 1240.71 892.089 978.519 1129.04)
(343.469 -885.694 1208.28 768.831 953 -141.332)
(481.63 -560.946 615.345 750.933 485.72 -1167.02)
(350.595 -1704.47 630.938 619.553 583.521 2098.74)
(491.391 -1280.95 1160.08 693.15 1072.56 1129.5)
(484.798 -908.038 1129.85 627.7 1044.61 -141.009)
(570.996 -575.03 575.518 661.452 532.245 -1166.79)
(619.553 -1704.47 583.521 350.596 630.937 2098.74)
(693.15 -1280.95 1072.56 491.392 1160.07 1129.5)
(627.7 -908.038 1044.61 484.798 1129.85 -141.009)
(661.452 -575.03 532.247 570.996 575.517 -1166.79)
(883.732 -1661.86 532.616 84.3071 674.928 2097.85)
(892.09 -1249.28 978.52 291.764 1240.71 1129.04)
(768.831 -885.694 953.001 343.47 1208.28 -141.331)
(750.933 -560.946 485.722 481.631 615.344 -1167.02)
(1138.55 -1578.7 478.242 -170.898 715.003 2097.31)
(1083.79 -1186.85 878.369 99.7089 1313.86 1128.49)
(904.854 -841.502 855.476 207.324 1279.4 -141.833)
(837.204 -533.021 436.163 395.499 651.477 -1167.46)
(1377.43 -1456.85 420.784 -409.808 750.65 2096.82)
(1263.49 -1095.23 772.712 -80.0416 1378.94 1127.95)
(1032.35 -776.554 752.615 79.8328 1342.67 -142.401)
(918.024 -491.913 383.875 314.783 683.655 -1168.04)
(1594.57 -1299.25 360.626 -626.623 781.63 2096.49)
(1426.8 -976.682 662.22 -243.142 1435.51 1127.53)
(1148.17 -692.477 645.069 -35.8586 1397.69 -142.929)
(991.408 -438.659 329.204 241.509 711.656 -1168.65)
(1784.67 -1109.74 298.156 -816.061 807.754 2096.43)
(1569.72 -834.122 547.589 -385.603 1483.24 1127.33)
(1249.5 -591.363 533.52 -136.9 1444.12 -143.291)
(1055.59 -374.6 272.514 177.5 735.306 -1169.16)
(1943.13 -892.94 233.762 -973.487 828.865 2096.76)
(1688.78 -671.05 429.53 -503.92 1521.84 1127.52)
(1333.88 -475.741 418.662 -220.796 1481.69 -143.303)
(1109.05 -301.363 214.171 124.343 754.467 -1169.37)
(2066.2 -654.139 167.834 -1095.18 844.819 2097.7)
(1781.08 -491.51 308.746 -595.168 1551.09 1128.44)
(1399.24 -348.582 301.185 -285.618 1510.18 -142.637)
(1150.74 -220.883 154.544 83.3257 769.017 -1168.87)
(2154.59 -398.316 100.805 -1176.45 855.238 2101.52)
(1843.99 -300.742 186.002 -658.279 1570.82 1130.72)
(1444.22 -213.453 181.765 -331.029 1529.55 -140.432)
(1180.04 -135.085 94.176 53.872 778.836 -1167.09)
(2166.32 -149.656 -33.5261 -1239.8 849.328 2099.4)
(1864.73 -112.353 7.21594 -702.773 1581.1 1145.06)
(1459.74 -77.4225 6.40989 -365.573 1549.78 -123.418)
(1184.61 -45.5339 -32.7362 23.1907 807.238 -1157.79)
(-1237.37 -184.94 537.76 3119.6 -51.3377 243.474)
(-809.016 -165.295 934.476 3061.49 -29.6577 443.637)
(-358.08 -142.749 910.409 3016.18 -30.4835 539.293)
(6.72365 -124.838 480.252 3006.45 -52.4485 724.801)
(-1173.38 -509.667 536.916 3088.36 62.3488 256.189)
(-752.059 -453.32 925.763 3021.52 108.473 448.482)
(-308.779 -394.655 895.273 2976.83 105.449 541.925)
(46.4606 -349.438 461.902 2964.56 55.5581 727.115)
(-1069.87 -837.663 530.15 2977.91 105.163 254.061)
(-657.296 -741.927 914.075 2928.29 181.911 448.85)
(-225.722 -645.92 883.896 2895.53 176.505 542.344)
(120.359 -573.722 456.298 2892.78 92.269 727.558)
(-913.859 -1143.73 520.074 2821.53 146.874 253.889)
(-519.326 -1013.13 896.784 2790.03 253.519 448.662)
(-105.373 -881.951 867.204 2775.44 245.691 542.328)
(227.183 -783.484 447.638 2786.06 127.987 727.492)
(-712.08 -1421.63 506.755 2619.24 187.428 253.835)
(-340.553 -1259.44 873.968 2610.99 323.236 448.693)
(50.2981 -1096.41 845.163 2619.71 313.035 542.461)
(365.518 -974.043 436.21 2647.82 162.679 727.695)
(-469.303 -1664.55 490.269 2376.1 226.678 253.973)
(-125.395 -1474.76 845.765 2395.62 390.804 448.916)
(237.654 -1283.92 817.933 2432.28 378.309 542.779)
(531.989 -1140.64 422.132 2481.4 196.261 728.092)
(-191.462 -1866.56 470.72 2098.1 264.413 254.259)
(120.881 -1653.82 812.35 2149.27 455.865 449.267)
(452.108 -1439.83 785.69 2217.8 441.173 543.2)
(722.508 -1279.14 405.502 2290.9 228.583 728.571)
(114.68 -2022.74 448.241 1792.11 300.389 254.653)
(392.261 -1792.21 773.941 1878.01 518.019 449.683)
(688.395 -1560.28 748.647 1981.56 501.25 543.638)
(932.37 -1386.1 386.434 2081 259.454 729.02)
(441.695 -2129.31 423.02 1465.62 334.337 255.103)
(682.168 -1886.49 730.824 1588.54 576.863 450.123)
(940.698 -1642.26 707.067 1729.41 558.161 544.02)
(1156.36 -1458.83 365.07 1856.9 288.679 729.343)
(782.578 -2183.8 395.488 1126.99 365.997 255.94)
(983.434 -1934.3 683.405 1288.05 632.044 450.526)
(1202.66 -1683.73 661.277 1467.68 611.576 544.272)
(1388.88 -1495.59 341.576 1624.26 316.086 729.501)
(1126.99 -2183.8 365.997 782.578 395.487 255.941)
(1288.05 -1934.3 632.045 983.434 683.404 450.526)
(1467.68 -1683.73 611.577 1202.66 661.276 544.272)
(1624.26 -1495.59 316.087 1388.88 341.575 729.501)
(1465.63 -2129.31 334.338 441.697 423.019 255.104)
(1588.54 -1886.49 576.863 682.169 730.823 450.123)
(1729.41 -1642.26 558.162 940.699 707.066 544.02)
(1856.9 -1458.83 288.68 1156.36 365.069 729.343)
(1792.11 -2022.74 300.39 114.683 448.241 254.654)
(1878.01 -1792.21 518.02 392.263 773.94 449.684)
(1981.56 -1560.28 501.251 688.396 748.646 543.638)
(2081 -1386.1 259.455 932.37 386.433 729.021)
(2098.1 -1866.56 264.413 -191.459 470.719 254.261)
(2149.28 -1653.82 455.866 120.883 812.349 449.268)
(2217.81 -1439.83 441.174 452.109 785.69 543.201)
(2290.9 -1279.15 228.584 722.509 405.501 728.573)
(2376.1 -1664.55 226.678 -469.299 490.268 253.975)
(2395.63 -1474.77 390.805 -125.392 845.765 448.917)
(2432.29 -1283.92 378.31 237.655 817.932 542.78)
(2481.4 -1140.65 196.262 531.99 422.131 728.094)
(2619.24 -1421.63 187.429 -712.075 506.754 253.838)
(2610.99 -1259.44 323.236 -340.55 873.968 448.696)
(2619.71 -1096.41 313.036 50.2997 845.163 542.463)
(2647.82 -974.044 162.68 365.519 436.209 727.697)
(2821.53 -1143.73 146.875 -913.854 520.074 253.892)
(2790.03 -1013.13 253.52 -519.323 896.784 448.664)
(2775.44 -881.952 245.691 -105.371 867.204 542.33)
(2786.07 -783.485 127.988 227.184 447.638 727.494)
(2977.92 -837.663 105.163 -1069.87 530.149 254.065)
(2928.3 -741.927 181.911 -657.292 914.075 448.852)
(2895.54 -645.921 176.506 -225.72 883.896 542.346)
(2892.78 -573.722 92.2696 120.36 456.298 727.56)
(3088.36 -509.667 62.3489 -1173.38 536.916 256.192)
(3021.53 -453.32 108.473 -752.056 925.763 448.485)
(2976.84 -394.655 105.45 -308.777 895.273 541.928)
(2964.56 -349.439 55.5584 46.4613 461.902 727.117)
(3119.61 -184.94 -51.3376 -1237.36 537.76 243.478)
(3061.5 -165.295 -29.6576 -809.012 934.476 443.64)
(3016.18 -142.749 -30.4834 -358.078 910.408 539.296)
(3006.45 -124.838 -52.4484 6.72429 480.252 724.803)
(-1185.91 -225.093 294.385 4202.63 -52.5719 -817.325)
(-780.525 -213.482 495.65 4278.15 -41.4575 81.6009)
(-371.628 -199.977 476.787 4365.21 -42.1281 910.216)
(-23.6673 -188.62 248.058 4480.27 -53.4712 1790.49)
(-1112.66 -630.304 291.672 4155.82 33.0013 -796.79)
(-713.864 -592.522 488.562 4221.12 56.5045 95.8374)
(-311.376 -554.284 466.564 4305.22 54.4267 922.175)
(28.5688 -524.296 236.444 4411.17 28.3026 1799.73)
(-984.691 -1035.83 287.929 4020.74 56.6074 -797.951)
(-591.444 -970.475 482.279 4098.65 95.6782 96.9491)
(-196.417 -907.711 460.631 4190.38 91.9539 923.369)
(138.942 -861.75 233.627 4303.95 47.5354 1801.68)
(-791.823 -1414.48 282.366 3827.84 79.5791 -797.505)
(-411.009 -1325.35 473.072 3917.94 133.826 97.399)
(-27.3236 -1239.63 451.889 4021.62 128.394 924.031)
(299.366 -1177.11 229.141 4143.77 66.1766 1802.29)
(-542.222 -1758.34 275.038 3578.02 101.821 -797.289)
(-177.08 -1647.65 460.952 3683.97 170.825 97.7386)
(191.554 -1541.15 440.329 3802.89 163.699 924.486)
(507.253 -1463.47 223.201 3936.19 84.1269 1802.83)
(-241.887 -2058.94 265.973 3277.54 123.26 -797.086)
(104.441 -1929.43 445.987 3402.45 206.573 98.0567)
(454.944 -1804.76 426.067 3539.62 197.791 924.917)
(757.405 -1713.81 215.921 3686.27 101.366 1803.36)
(101.828 -2308.93 255.228 2933.83 143.791 -796.848)
(426.657 -2163.76 428.276 3080.3 240.907 98.3909)
(756.399 -2023.95 409.214 3238.29 230.53 925.344)
(1043.68 -1921.94 207.375 3400.17 117.853 1803.87)
(480.544 -2502.2 242.889 2555.35 163.277 -796.554)
(781.699 -2344.86 407.95 2725.49 273.623 98.7403)
(1088.53 -2193.3 389.898 2906.32 261.736 925.743)
(1359.01 -2082.69 197.635 3084.92 133.521 1804.31)
(885.053 -2634.04 229.089 2151.44 181.547 -796.203)
(1160.93 -2468.24 385.188 2346.76 304.506 99.1087)
(1443.15 -2308.58 368.274 2551.93 291.224 926.077)
(1695.59 -2192.04 186.786 2748.31 148.288 1804.61)
(1306.43 -2701.32 214.188 1732.34 198.443 -795.426)
(1554.98 -2530.78 360.264 1953.53 333.383 99.4682)
(1811.37 -2366.91 344.54 2183.97 318.844 926.299)
(2045.04 -2247.34 174.921 2398.79 162.09 1804.75)
(1732.34 -2701.32 198.444 1306.43 214.187 -795.426)
(1953.53 -2530.78 333.384 1554.98 360.264 99.4685)
(2183.97 -2366.91 318.844 1811.37 344.539 926.299)
(2398.79 -2247.34 162.091 2045.04 174.92 1804.75)
(2151.44 -2634.04 181.548 885.055 229.088 -796.202)
(2346.76 -2468.24 304.506 1160.93 385.187 99.1095)
(2551.93 -2308.58 291.225 1443.15 368.273 926.078)
(2748.31 -2192.04 148.289 1695.59 186.785 1804.61)
(2555.36 -2502.2 163.277 480.547 242.888 -796.552)
(2725.49 -2344.86 273.623 781.701 407.949 98.7416)
(2906.33 -2193.3 261.737 1088.53 389.897 925.744)
(3084.92 -2082.69 133.522 1359.01 197.634 1804.31)
(2933.83 -2308.93 143.791 101.832 255.228 -796.845)
(3080.31 -2163.76 240.907 426.659 428.275 98.3927)
(3238.29 -2023.96 230.53 756.4 409.214 925.346)
(3400.17 -1921.94 117.854 1043.68 207.375 1803.87)
(3277.55 -2058.94 123.26 -241.881 265.973 -797.083)
(3402.45 -1929.43 206.574 104.444 445.987 98.0589)
(3539.62 -1804.76 197.792 454.945 426.066 924.918)
(3686.27 -1713.82 101.366 757.406 215.921 1803.36)
(3578.03 -1758.34 101.821 -542.215 275.038 -797.285)
(3683.97 -1647.65 170.825 -177.076 460.952 97.7413)
(3802.89 -1541.15 163.699 191.556 440.328 924.488)
(3936.19 -1463.47 84.1274 507.254 223.2 1802.83)
(3827.85 -1414.48 79.5792 -791.816 282.365 -797.5)
(3917.94 -1325.35 133.826 -411.005 473.072 97.402)
(4021.62 -1239.63 128.394 -27.3214 451.889 924.034)
(4143.77 -1177.11 66.1771 299.366 229.141 1802.3)
(4020.74 -1035.83 56.6075 -984.683 287.929 -797.946)
(4098.65 -970.476 95.6783 -591.439 482.279 96.9523)
(4190.39 -907.711 91.9542 -196.414 460.63 923.371)
(4303.95 -861.751 47.5357 138.943 233.627 1801.68)
(4155.82 -630.304 33.0013 -1112.65 291.671 -796.785)
(4221.13 -592.522 56.5046 -713.859 488.562 95.8408)
(4305.22 -554.285 54.4269 -311.373 466.564 922.178)
(4411.18 -524.297 28.3028 28.5696 236.444 1799.73)
(4202.64 -225.093 -52.5719 -1185.9 294.384 -817.32)
(4278.16 -213.482 -41.4575 -780.52 495.65 81.6044)
(4365.22 -199.977 -42.128 -371.625 476.787 910.218)
(4480.28 -188.62 -53.4711 -23.6665 248.057 1790.49)
(-1138.29 -261.291 129.914 5157.93 -42.7907 -1315.4)
(-753.92 -252.95 212.924 5269.38 -38.0145 -83.1255)
(-378.407 -243.242 201.676 5393.67 -38.3532 1097.93)
(-49.7711 -234.309 101.303 5542.39 -43.0784 2303.49)
(-1055.38 -736.562 127.066 5099.63 13.6189 -1291.01)
(-678.026 -705.649 208.005 5199.76 23.5892 -64.565)
(-308.663 -675.521 195.45 5319.15 22.6009 1113.96)
(12.5472 -650.833 94.7162 5454.91 11.4905 2315.25)
(-905.827 -1210.28 125.454 4942.53 24.0196 -1291.99)
(-532.923 -1155.97 205.262 5053.56 40.4337 -63.4528)
(-169.287 -1106.5 192.901 5178.79 38.5766 1115.17)
(149.36 -1070.07 93.5614 5321.83 19.4843 2317.8)
(-680.54 -1652.74 122.99 4717.34 34.2305 -1291.25)
(-318.033 -1578.66 201.271 4838.26 56.8976 -62.731)
(36.8331 -1511.2 189.16 4972.88 54.0973 1116.16)
(348.559 -1461.77 91.6671 5122.8 27.2358 2318.85)
(-388.896 -2054.59 119.713 4425.59 44.1122 -1290.89)
(-39.3739 -1962.58 196.018 4559.63 72.8239 -62.1922)
(303.697 -1878.8 184.217 4706.21 69.0618 1116.88)
(606.739 -1817.4 89.1696 4864.94 34.6076 2319.72)
(-37.9471 -2405.94 115.636 4074.61 53.5961 -1290.68)
(295.967 -2298.27 189.539 4224.39 88.1445 -61.7882)
(624.807 -2200.18 178.144 4385.3 83.419 1117.46)
(917.401 -2128.28 86.1552 4554.59 41.5682 2320.47)
(363.702 -2698.16 110.791 3673.05 62.6181 -1290.52)
(679.775 -2577.44 181.888 3840.74 102.782 -61.4497)
(992.31 -2467.42 171.01 4018.02 97.1118 1117.96)
(1272.92 -2386.74 82.6808 4199.33 48.1105 2321.13)
(806.25 -2924.08 105.23 3230.78 71.0931 -1290.34)
(1102.67 -2793.22 173.14 3418.13 116.641 -61.1399)
(1397.2 -2673.9 162.889 3613.37 110.071 1118.38)
(1664.52 -2586.39 78.7968 3807.91 54.2245 2321.67)
(1278.92 -3078.17 99.0487 2758.7 78.9109 -1290.1)
(1554.37 -2940.22 163.406 2966.98 129.622 -60.8218)
(1829.5 -2814.47 153.871 3181.35 122.228 1118.72)
(2082.53 -2722.24 74.5558 3389.95 59.899 2322.03)
(1771.11 -3156.72 92.5616 2268.75 85.9726 -1289.4)
(2023.69 -3014.72 152.877 2498.47 141.662 -60.4967)
(2278.42 -2885.62 144.071 2732.72 133.544 1118.93)
(2516.54 -2790.95 70.0046 2955.91 65.1407 2322.2)
(2268.75 -3156.72 85.9727 1771.11 92.5615 -1289.4)
(2498.47 -3014.72 141.662 2023.69 152.877 -60.4964)
(2732.72 -2885.62 133.544 2278.42 144.071 1118.93)
(2955.91 -2790.95 65.1409 2516.54 70.0044 2322.2)
(2758.7 -3078.17 78.911 1278.92 99.0485 -1290.1)
(2966.98 -2940.22 129.622 1554.37 163.406 -60.8209)
(3181.35 -2814.47 122.228 1829.5 153.871 1118.72)
(3389.95 -2722.24 59.8992 2082.53 74.5556 2322.03)
(3230.78 -2924.08 71.0932 806.254 105.229 -1290.34)
(3418.13 -2793.22 116.642 1102.68 173.139 -61.1384)
(3613.37 -2673.9 110.072 1397.2 162.888 1118.38)
(3807.91 -2586.39 54.2247 1664.52 78.7967 2321.67)
(3673.05 -2698.16 62.6182 363.707 110.791 -1290.51)
(3840.75 -2577.44 102.782 679.778 181.887 -61.4477)
(4018.02 -2467.42 97.112 992.312 171.01 1117.96)
(4199.34 -2386.74 48.1107 1272.92 82.6806 2321.13)
(4074.62 -2405.94 53.596 -37.9404 115.636 -1290.68)
(4224.39 -2298.27 88.1445 295.971 189.538 -61.7856)
(4385.31 -2200.18 83.4191 624.809 178.144 1117.46)
(4554.59 -2128.28 41.5684 917.402 86.1551 2320.48)
(4425.59 -2054.59 44.1122 -388.888 119.713 -1290.89)
(4559.64 -1962.58 72.824 -39.3693 196.018 -62.1891)
(4706.21 -1878.8 69.062 303.699 184.217 1116.88)
(4864.95 -1817.4 34.6078 606.74 89.1695 2319.72)
(4717.35 -1652.74 34.2304 -680.531 122.99 -1291.24)
(4838.27 -1578.66 56.8977 -318.028 201.271 -62.7276)
(4972.88 -1511.2 54.0974 36.8358 189.16 1116.16)
(5122.8 -1461.77 27.236 348.56 91.667 2318.85)
(4942.54 -1210.28 24.0195 -905.817 125.454 -1291.98)
(5053.57 -1155.97 40.4337 -532.917 205.262 -63.449)
(5178.8 -1106.5 38.5767 -169.284 192.901 1115.17)
(5321.83 -1070.07 19.4845 149.361 93.5614 2317.81)
(5099.64 -736.562 13.6189 -1055.37 127.066 -1291)
(5199.77 -705.649 23.5892 -678.02 208.005 -64.561)
(5319.15 -675.522 22.6009 -308.66 195.45 1113.96)
(5454.91 -650.834 11.4906 12.5481 94.7162 2315.25)
(5157.94 -261.291 -42.7907 -1138.28 129.914 -1315.39)
(5269.39 -252.95 -38.0145 -753.914 212.924 -83.1214)
(5393.68 -243.242 -38.3532 -378.404 201.676 1097.93)
(5542.4 -234.309 -43.0784 -49.7702 101.303 2303.49)
(-1098.8 -287.297 25.9495 5840.55 -27.2501 -1468.77)
(-730.399 -279.555 39.1984 5939.62 -26.2648 -130.858)
(-379.061 -270.797 34.7553 6054.18 -26.3017 1168.45)
(-66.4964 -262.075 13.8242 6192.36 -27.0061 2475.64)
(-1008.24 -811.882 23.8614 5775.35 1.65462 -1442.95)
(-647.625 -781.559 36.5123 5862.24 3.67937 -110.874)
(-302.608 -753.013 31.8193 5970.97 3.62443 1185.65)
(2.65106 -728.44 11.0303 6094.37 1.78383 2487.65)
(-843.34 -1333.97 23.6061 5602.62 3.57464 -1444.11)
(-487.156 -1280.36 35.946 5700.24 6.72537 -109.991)
(-147.499 -1233.48 31.2893 5814.36 6.4743 1186.63)
(155.722 -1197.7 10.8086 5945.34 3.08966 2490.3)
(-595.064 -1821.66 23.1229 5354.55 5.5971 -1443.33)
(-249.149 -1748.5 35.1428 5461.76 9.77628 -109.244)
(82.2795 -1684.62 30.5404 5584.69 9.24008 1187.69)
(378.678 -1636.13 10.4202 5722.41 4.32664 2491.48)
(-273.619 -2264.65 22.4169 5033.1 7.60941 -1442.98)
(59.4961 -2173.72 34.0786 5153.19 12.7137 -108.647)
(379.781 -2094.37 29.5653 5287.36 11.8365 1188.52)
(667.653 -2034.14 9.93804 5433.68 5.38961 2492.53)
(113.21 -2652.01 21.4824 4646.36 9.54885 -1442.83)
(430.911 -2545.54 32.7669 4781.93 15.49 -108.22)
(737.734 -2452.61 28.4064 4929.63 14.2272 1189.19)
(1015.36 -2382.04 9.42299 5086.23 6.2426 2493.46)
(555.937 -2974.21 20.3279 4203.81 11.3616 -1442.76)
(856.001 -2854.79 31.2342 4357.07 18.0676 -107.897)
(1147.39 -2750.5 27.1053 4520.22 16.3929 1189.75)
(1413.26 -2671.29 8.92415 4688.59 6.8852 2494.25)
(1043.75 -3223.32 18.9837 3716.33 12.9806 -1442.71)
(1324.38 -3093.81 29.5236 3889.02 20.4063 -107.629)
(1598.71 -2980.68 25.7082 4069.17 18.3207 1190.2)
(1851.55 -2894.72 8.48457 4250.5 7.33255 2494.89)
(1564.75 -3393.21 17.5222 3195.9 14.3184 -1442.59)
(1824.63 -3256.66 27.7082 3389.31 22.4666 -107.36)
(2080.59 -3137.39 24.2717 3587.6 20.0067 1190.54)
(2319.39 -3046.78 8.14166 3782.74 7.61216 2495.33)
(2107.15 -3479.76 16.2343 2655.67 15.2997 -1441.97)
(2344.42 -3339.2 25.9318 2870.32 24.2503 -107.07)
(2581.01 -3216.72 22.8632 3087.47 21.4824 1190.76)
(2805.18 -3123.71 7.91694 3296.95 7.7749 2495.53)
(2655.67 -3479.76 15.2995 2107.15 16.2345 -1441.97)
(2870.32 -3339.2 24.2501 2344.42 25.932 -107.069)
(3087.47 -3216.72 21.4822 2581.01 22.8634 1190.76)
(3296.95 -3123.71 7.7747 2805.18 7.91713 2495.53)
(3195.9 -3393.21 14.3182 1564.75 17.5224 -1442.58)
(3389.31 -3256.66 22.4664 1824.64 27.7083 -107.359)
(3587.6 -3137.39 20.0065 2080.59 24.2719 1190.54)
(3782.74 -3046.78 7.61196 2319.4 8.14184 2495.33)
(3716.33 -3223.32 12.9803 1043.75 18.9838 -1442.7)
(3889.02 -3093.81 20.4061 1324.38 29.5237 -107.628)
(4069.17 -2980.68 18.3205 1598.71 25.7084 1190.2)
(4250.51 -2894.72 7.33235 1851.55 8.48472 2494.89)
(4203.82 -2974.21 11.3613 555.943 20.328 -1442.76)
(4357.07 -2854.79 18.0673 856.004 31.2344 -107.895)
(4520.22 -2750.5 16.3927 1147.39 27.1054 1189.75)
(4688.59 -2671.29 6.88502 1413.26 8.92429 2494.25)
(4646.37 -2652.01 9.54854 113.218 21.4824 -1442.82)
(4781.94 -2545.54 15.4897 430.915 32.767 -108.217)
(4929.63 -2452.61 14.227 737.737 28.4065 1189.19)
(5086.23 -2382.04 6.24245 1015.36 9.42311 2493.46)
(5033.11 -2264.65 7.60912 -273.61 22.4169 -1442.98)
(5153.19 -2173.72 12.7134 59.5011 34.0787 -108.644)
(5287.37 -2094.37 11.8364 379.783 29.5654 1188.52)
(5433.68 -2034.14 5.3895 667.655 9.93814 2492.53)
(5354.56 -1821.66 5.59683 -595.054 23.123 -1443.33)
(5461.77 -1748.5 9.7761 -249.143 35.1429 -109.24)
(5584.7 -1684.62 9.23995 82.2824 30.5405 1187.7)
(5722.42 -1636.13 4.32657 378.679 10.4203 2491.48)
(5602.63 -1333.97 3.57443 -843.33 23.6061 -1444.1)
(5700.25 -1280.36 6.72523 -487.15 35.9461 -109.987)
(5814.36 -1233.48 6.47421 -147.496 31.2894 1186.63)
(5945.35 -1197.7 3.08961 155.723 10.8087 2490.3)
(5775.36 -811.882 1.65448 -1008.23 23.8614 -1442.95)
(5862.25 -781.56 3.67927 -647.619 36.5124 -110.87)
(5970.98 -753.013 3.62437 -302.605 31.8194 1185.65)
(6094.37 -728.44 1.78381 2.65208 11.0304 2487.65)
(5840.56 -287.297 -27.2501 -1098.79 25.9494 -1468.76)
(5939.62 -279.555 -26.2649 -730.392 39.1984 -130.853)
(6054.18 -270.797 -26.3017 -379.057 34.7554 1168.45)
(6192.37 -262.076 -27.0061 -66.4954 13.8243 2475.64)
(-1060.33 -300.035 -41.6343 6190.04 -9.70949 -1419.35)
(-705.234 -291.698 -69.9268 6258.39 -11.0393 -111.047)
(-372.33 -282.56 -68.8223 6344.33 -10.8334 1165.72)
(-73.9584 -273.147 -39.6486 6454.39 -9.05607 2442.42)
(-965.637 -848.363 -42.5539 6122.25 -5.99707 -1393.65)
(-618.994 -816.129 -70.4812 6177.9 -8.67244 -91.3403)
(-292.671 -786.338 -69.0008 6257.75 -7.9668 1182.46)
(-1.63548 -759.891 -39.467 6352.6 -3.95725 2453.58)
(-793.245 -1393.9 -41.9358 5942.07 -9.67844 -1395.01)
(-451.441 -1336.96 -69.6971 6008.81 -14.3185 -90.6902)
(-130.724 -1288.02 -68.3096 6094.16 -13.2468 1183.18)
(158.057 -1249.31 -39.1672 6196.97 -6.66533 2456.07)
(-533.802 -1903.55 -41.1245 5683.08 -13.0786 -1394.32)
(-202.894 -1825.75 -68.5333 5759.86 -19.7524 -90.0417)
(109.228 -1759.03 -67.2559 5854.27 -18.4172 1184.15)
(390.627 -1706.57 -38.6827 5964.25 -9.38758 2457.16)
(-197.887 -2366.53 -40.1558 5347.39 -16.2474 -1394.04)
(119.405 -2269.75 -67.0122 5437.72 -25.0211 -89.4954)
(419.882 -2186.82 -65.8301 5543.75 -23.5203 1184.94)
(692.04 -2121.62 -37.9827 5662.91 -12.1749 2458.2)
(206.372 -2771.41 -39.0593 4943.45 -19.226 -1393.95)
(507.237 -2657.99 -65.1365 5050.15 -30.1448 -89.1137)
(793.633 -2560.81 -64.0101 5170.19 -28.5703 1185.58)
(1054.68 -2484.39 -37.0227 5300.37 -15.0521 2459.13)
(669.059 -3108.22 -37.8499 4481.15 -22.0615 -1393.98)
(951.101 -2980.91 -62.8972 4606.61 -35.1348 -88.8445)
(1221.34 -2871.79 -61.767 4742.71 -33.5615 1186.11)
(1469.65 -2785.98 -35.7552 4885.54 -18.0143 2459.93)
(1178.86 -3368.65 -36.5176 3971.83 -24.8172 -1394.02)
(1440.15 -3230.51 -60.2692 4117.95 -40.0007 -88.6358)
(1692.52 -3112.09 -59.0659 4271.79 -38.4733 1186.53)
(1926.72 -3018.94 -34.1358 4428.59 -21.0325 2460.58)
(1723.34 -3546.26 -35.0049 3427.98 -27.5785 -1394)
(1962.46 -3400.57 -57.1977 3596.21 -44.7474 -88.4237)
(2195.6 -3275.69 -55.8655 3769.01 -43.2683 1186.84)
(2414.62 -3177.48 -32.1308 3940.74 -24.0539 2461.02)
(2290.1 -3636.72 -33.0303 2863.34 -30.4198 -1393.46)
(2505.17 -3486.77 -53.5627 3054.29 -49.3369 -88.1745)
(2718.06 -3358.52 -52.1228 3246.84 -47.8702 1187.05)
(2921.23 -3257.69 -29.7318 3434.1 -26.9959 2461.24)
(2863.34 -3636.72 -30.4203 2290.1 -33.0297 -1393.46)
(3054.29 -3486.77 -49.3374 2505.17 -53.5621 -88.1742)
(3246.84 -3358.52 -47.8708 2718.06 -52.1222 1187.05)
(3434.1 -3257.69 -26.9964 2921.23 -29.7313 2461.24)
(3427.99 -3546.26 -27.5791 1723.35 -35.0044 -1394)
(3596.21 -3400.57 -44.748 1962.46 -57.1972 -88.4227)
(3769.01 -3275.69 -43.2688 2195.6 -55.865 1186.85)
(3940.74 -3177.48 -24.0545 2414.62 -32.1303 2461.02)
(3971.83 -3368.65 -24.8179 1178.87 -36.5171 -1394.02)
(4117.96 -3230.51 -40.0013 1440.15 -60.2687 -88.6342)
(4271.79 -3112.09 -38.4739 1692.52 -59.0654 1186.53)
(4428.59 -3018.94 -21.0331 1926.72 -34.1354 2460.58)
(4481.16 -3108.22 -22.0621 669.065 -37.8496 -1393.98)
(4606.61 -2980.91 -35.1354 951.104 -62.8968 -88.8423)
(4742.71 -2871.8 -33.562 1221.34 -61.7666 1186.11)
(4885.54 -2785.98 -18.0149 1469.65 -35.7548 2459.93)
(4943.46 -2771.41 -19.2266 206.379 -39.059 -1393.95)
(5050.16 -2657.99 -30.1453 507.241 -65.1361 -89.1108)
(5170.19 -2560.81 -28.5708 793.636 -64.0097 1185.58)
(5300.37 -2484.39 -15.0526 1054.69 -37.0224 2459.13)
(5347.4 -2366.53 -16.2479 -197.878 -40.1556 -1394.03)
(5437.73 -2269.75 -25.0216 119.41 -67.0118 -89.492)
(5543.75 -2186.82 -23.5207 419.885 -65.8297 1184.94)
(5662.91 -2121.62 -12.1754 692.041 -37.9824 2458.2)
(5683.09 -1903.55 -13.0791 -533.792 -41.1243 -1394.32)
(5759.87 -1825.75 -19.7528 -202.889 -68.533 -90.0379)
(5854.27 -1759.04 -18.4176 109.231 -67.2556 1184.15)
(5964.26 -1706.57 -9.38794 390.629 -38.6825 2457.17)
(5942.08 -1393.9 -9.67879 -793.234 -41.9356 -1395.01)
(6008.82 -1336.96 -14.3188 -451.435 -69.6968 -90.6861)
(6094.17 -1288.02 -13.2471 -130.721 -68.3094 1183.18)
(6196.98 -1249.32 -6.66559 158.058 -39.167 2456.07)
(6122.26 -848.362 -5.99729 -965.626 -42.5538 -1393.64)
(6177.9 -816.129 -8.67262 -618.988 -70.4809 -91.336)
(6257.76 -786.338 -7.96696 -292.668 -69.0006 1182.46)
(6352.6 -759.892 -3.9574 -1.63445 -39.4668 2453.59)
(6190.05 -300.035 -9.70957 -1060.32 -41.6342 -1419.34)
(6258.4 -291.698 -11.0393 -705.227 -69.9265 -111.042)
(6344.34 -282.56 -10.8335 -372.327 -68.8221 1165.72)
(6454.39 -273.148 -9.05612 -73.9574 -39.6484 2442.42)
(-1014.05 -298.747 -92.5288 6200.79 7.3569 -1238.88)
(-673.373 -289.408 -149.666 6233.34 4.37534 -48.2654)
(-357.294 -279.369 -144.018 6284.44 4.77147 1113.72)
(-73.8343 -269.026 -78.718 6360.4 8.30665 2273.87)