/*--------------------------------*- C++ -*----------------------------------*\
| =========                 |                                                 |
| \\      /  F ield         | foam-extend: Open Source CFD                    |
|  \\    /   O peration     | Version:     3.1                                |
|   \\  /    A nd           | Web:         http://www.extend-project.de       |
|    \\/     M anipulation  |                                                 |
\*---------------------------------------------------------------------------*/
FoamFile
{
    version     2.0;
    format      ascii;
    class       volVectorField;
    location    "0.0016";
    object      U;
}
// * * * * * * * * * * * * * * * * * * * * * * * * * * * * * * * * * * * * * //

dimensions      [0 1 -1 0 0 0 0];

internalField   nonuniform List<vector> 
6400
(
(7.22208e-05 -9.76309e-07 0.000526678)
(-7.0066e-05 -5.73846e-06 0.000195946)
(-8.86237e-05 -6.33619e-06 -0.000107499)
(7.42967e-06 -2.97974e-06 -0.000417415)
(6.9468e-05 5.17298e-06 0.000528245)
(-7.10853e-05 -1.05163e-05 0.000198118)
(-8.86598e-05 -1.20344e-05 -0.00010511)
(7.76456e-06 -3.54126e-07 -0.000415046)
(6.78815e-05 1.06786e-05 0.000528016)
(-7.09716e-05 -1.61234e-05 0.000198442)
(-8.83856e-05 -1.8906e-05 -0.000104553)
(6.74641e-06 5.82859e-07 -0.000414301)
(6.59841e-05 1.59146e-05 0.000527531)
(-7.02704e-05 -2.1807e-05 0.000198344)
(-8.74087e-05 -2.59973e-05 -0.000104419)
(5.87826e-06 8.89407e-07 -0.000413853)
(6.37736e-05 2.10573e-05 0.000527014)
(-6.89779e-05 -2.73696e-05 0.000198135)
(-8.56531e-05 -3.30174e-05 -0.000104434)
(5.29608e-06 9.77027e-07 -0.000413597)
(6.1336e-05 2.61506e-05 0.000526543)
(-6.70505e-05 -3.26862e-05 0.000197888)
(-8.31064e-05 -3.97737e-05 -0.000104547)
(5.00471e-06 1.09192e-06 -0.000413534)
(5.87211e-05 3.11814e-05 0.000526145)
(-6.44993e-05 -3.76665e-05 0.000197628)
(-7.98211e-05 -4.61163e-05 -0.000104729)
(4.93395e-06 1.40487e-06 -0.000413641)
(5.59199e-05 3.61052e-05 0.000525809)
(-6.14065e-05 -4.22633e-05 0.000197376)
(-7.59237e-05 -5.19598e-05 -0.000104946)
(4.93521e-06 1.99615e-06 -0.000413858)
(5.28478e-05 4.08514e-05 0.000525507)
(-5.7924e-05 -4.6491e-05 0.000197152)
(-7.15982e-05 -5.73135e-05 -0.000105146)
(4.8146e-06 2.81889e-06 -0.000414092)
(4.93402e-05 4.5316e-05 0.000525243)
(-5.42396e-05 -5.04381e-05 0.000196999)
(-6.70283e-05 -6.22874e-05 -0.000105273)
(4.41109e-06 3.69573e-06 -0.000414244)
(4.52897e-05 4.93604e-05 0.000525248)
(-5.04545e-05 -5.42269e-05 0.000197002)
(-6.22919e-05 -6.70257e-05 -0.000105271)
(3.70107e-06 4.4052e-06 -0.000414245)
(4.08205e-05 5.28605e-05 0.000525523)
(-4.65103e-05 -5.79159e-05 0.000197163)
(-5.73197e-05 -7.15977e-05 -0.000105141)
(2.82334e-06 4.80833e-06 -0.000414094)
(3.60716e-05 5.59243e-05 0.000525836)
(-4.22846e-05 -6.14034e-05 0.000197394)
(-5.19675e-05 -7.59257e-05 -0.000104938)
(1.99935e-06 4.92852e-06 -0.000413861)
(3.1147e-05 5.87165e-05 0.000526181)
(-3.76887e-05 -6.45018e-05 0.000197653)
(-4.61252e-05 -7.9826e-05 -0.000104718)
(1.40654e-06 4.92657e-06 -0.000413645)
(2.61172e-05 6.13225e-05 0.000526587)
(-3.27082e-05 -6.70589e-05 0.000197918)
(-3.97834e-05 -8.31145e-05 -0.000104533)
(1.09197e-06 4.99618e-06 -0.000413539)
(2.10266e-05 6.37514e-05 0.000527065)
(-2.73903e-05 -6.89923e-05 0.00019817)
(-3.30272e-05 -8.56647e-05 -0.000104418)
(9.75678e-07 5.28588e-06 -0.000413603)
(1.58883e-05 6.59539e-05 0.000527588)
(-2.18251e-05 -7.02905e-05 0.000198383)
(-2.60064e-05 -8.74239e-05 -0.000104401)
(8.87191e-07 5.86603e-06 -0.000413859)
(1.06582e-05 6.78448e-05 0.000528077)
(-1.61377e-05 -7.09964e-05 0.000198485)
(-1.89135e-05 -8.8404e-05 -0.000104533)
(5.80482e-07 6.7323e-06 -0.000414307)
(5.16003e-06 6.94257e-05 0.000528309)
(-1.05255e-05 -7.11143e-05 0.000198163)
(-1.20395e-05 -8.86811e-05 -0.000105089)
(-3.56042e-07 7.74852e-06 -0.000415051)
(-9.80859e-07 7.21753e-05 0.000526743)
(-5.74182e-06 -7.00974e-05 0.000195992)
(-6.33818e-06 -8.86467e-05 -0.000107477)
(-2.98078e-06 7.41238e-06 -0.000417421)
(0.00182905 6.61306e-05 0.00180801)
(0.00160154 5.89751e-05 0.000700971)
(0.00153679 5.68866e-05 -0.000395538)
(0.00162561 5.99328e-05 -0.00146518)
(0.00181257 0.000208062 0.00180882)
(0.00158767 0.000183429 0.000702368)
(0.00152487 0.000177208 -0.000393769)
(0.0016146 0.000188629 -0.00146304)
(0.0017868 0.000348772 0.00180835)
(0.00156464 0.000306308 0.000702677)
(0.00150268 0.000295395 -0.000392954)
(0.00159137 0.000314384 -0.00146171)
(0.00175032 0.000487236 0.0018074)
(0.00153229 0.000427224 0.000702354)
(0.00147146 0.000411354 -0.000392804)
(0.00155853 0.000437203 -0.001461)
(0.0017036 0.00062281 0.00180628)
(0.00149115 0.000545529 0.000701713)
(0.00143196 0.000524635 -0.000393092)
(0.00151697 0.000556927 -0.00146085)
(0.00164721 0.000754775 0.00180518)
(0.00144176 0.000660675 0.000700917)
(0.00138466 0.00063485 -0.000393689)
(0.00146718 0.000673331 -0.0014612)
(0.00158158 0.000882355 0.00180419)
(0.00138443 0.000772104 0.000700069)
(0.00132981 0.000741589 -0.000394483)
(0.00140932 0.000786105 -0.00146193)
(0.00150694 0.00100469 0.00180334)
(0.00131926 0.000879142 0.000699252)
(0.00126738 0.000844281 -0.000395333)
(0.00134335 0.000894728 -0.00146285)
(0.00142336 0.00112084 0.00180261)
(0.00124619 0.00098095 0.000698561)
(0.00119726 0.000942122 -0.00039607)
(0.00126908 0.000998377 -0.0014637)
(0.00133087 0.00122983 0.00180207)
(0.00116518 0.00107658 0.000698125)
(0.0011194 0.00103413 -0.000396512)
(0.00118649 0.00109598 -0.00146421)
(0.00122978 0.00133092 0.00180208)
(0.00107655 0.00116521 0.000698134)
(0.00103413 0.00111941 -0.000396508)
(0.001096 0.00118649 -0.00146421)
(0.00112079 0.0014234 0.00180265)
(0.000980931 0.00124623 0.000698587)
(0.000942133 0.00119729 -0.000396059)
(0.000998412 0.00126909 -0.00146371)
(0.00100464 0.00150698 0.00180341)
(0.000879129 0.00131932 0.000699295)
(0.000844299 0.00126743 -0.000395315)
(0.000894771 0.00134339 -0.00146286)
(0.000882309 0.00158161 0.00180429)
(0.000772095 0.00138449 0.000700127)
(0.000741612 0.00132987 -0.000394458)
(0.000786152 0.00140939 -0.00146194)
(0.000754733 0.00164724 0.00180529)
(0.000660668 0.00144182 0.000700989)
(0.000634874 0.00138474 -0.000393658)
(0.000673377 0.00146726 -0.00146121)
(0.000622772 0.00170362 0.00180641)
(0.000545522 0.00149122 0.000701798)
(0.000524656 0.00143205 -0.000393055)
(0.000556968 0.00151707 -0.00146086)
(0.000487204 0.00175033 0.00180755)
(0.000427218 0.00153236 0.00070245)
(0.000411372 0.00147156 -0.000392762)
(0.000437237 0.00155864 -0.00146101)
(0.000348747 0.0017868 0.00180851)
(0.000306303 0.00156471 0.000702781)
(0.000295407 0.00150279 -0.000392907)
(0.000314408 0.00159149 -0.00146173)
(0.000208046 0.00181257 0.00180899)
(0.000183426 0.00158774 0.000702478)
(0.000177215 0.00152498 -0.000393719)
(0.000188644 0.00161473 -0.00146306)
(6.61249e-05 0.00182904 0.00180819)
(5.89735e-05 0.0016016 0.000701083)
(5.68886e-05 0.0015369 -0.000395487)
(5.99374e-05 0.00162574 -0.0014652)
(0.00550854 0.00020862 0.00317815)
(0.00518431 0.000198627 0.00119499)
(0.00505298 0.000194271 -0.000782805)
(0.00510329 0.000196007 -0.00271202)
(0.00546707 0.000637774 0.00317846)
(0.00514606 0.000602823 0.00119579)
(0.00501721 0.000589448 -0.000781675)
(0.00506886 0.000597017 -0.00271042)
(0.00539378 0.00106336 0.00317766)
(0.00507654 0.00100289 0.00119563)
(0.00494929 0.000979674 -0.000781373)
(0.00500042 0.000991962 -0.0027096)
(0.00528751 0.0014824 0.00317649)
(0.00497614 0.00139676 0.0011949)
(0.00485129 0.00136335 -0.000781774)
(0.0049016 0.00137944 -0.00270959)
(0.00514965 0.00189252 0.0031752)
(0.00484627 0.00178208 0.00119384)
(0.00472478 0.00173843 -0.000782713)
(0.00477414 0.00175787 -0.00271034)
(0.0049816 0.0022913 0.00317397)
(0.00468827 0.00215672 0.0011926)
(0.00457102 0.00210308 -0.000784042)
(0.00461922 0.00212569 -0.00271173)
(0.00478453 0.00267627 0.00317287)
(0.00450312 0.00251857 0.00119132)
(0.00439087 0.00245545 -0.000785583)
(0.0044376 0.00248125 -0.00271354)
(0.00455934 0.0030449 0.00317193)
(0.00429149 0.00286538 0.00119012)
(0.0041848 0.00279344 -0.000787114)
(0.00422963 0.00282259 -0.00271544)
(0.00430672 0.00339457 0.00317112)
(0.00405386 0.00319467 0.00118912)
(0.00395318 0.00311466 -0.000788375)
(0.00399559 0.0031473 -0.00271704)
(0.0040274 0.00372277 0.00317055)
(0.00379089 0.00350392 0.00118852)
(0.00369665 0.00341651 -0.000789103)
(0.00373614 0.00345267 -0.00271796)
(0.0037227 0.00402747 0.00317057)
(0.00350389 0.00379094 0.00118854)
(0.00341652 0.00369667 -0.000789098)
(0.00345271 0.00373614 -0.00271796)
(0.00339451 0.00430678 0.00317117)
(0.00319466 0.00405393 0.00118916)
(0.00311469 0.00395324 -0.000788359)
(0.00314737 0.00399563 -0.00271704)
(0.00304484 0.00455941 0.00317201)
(0.00286538 0.00429159 0.00119017)
(0.00279349 0.00418489 -0.000787089)
(0.00282268 0.00422971 -0.00271544)
(0.00267621 0.0047846 0.00317298)
(0.00251858 0.00450324 0.00119139)
(0.0024555 0.004391 -0.000785549)
(0.00248134 0.00443772 -0.00271354)
(0.00229124 0.00498166 0.0031741)
(0.00215673 0.0046884 0.00119269)
(0.00210314 0.00457119 -0.000783998)
(0.00212578 0.00461939 -0.00271173)
(0.00189247 0.0051497 0.00317536)
(0.00178209 0.00484642 0.00119394)
(0.00173849 0.00472497 -0.000782662)
(0.00175796 0.00477434 -0.00271034)
(0.00148236 0.00528756 0.00317667)
(0.00139677 0.0049763 0.00119502)
(0.00136339 0.0048515 -0.000781715)
(0.00137951 0.00490183 -0.00270959)
(0.00106333 0.00539382 0.00317785)
(0.0010029 0.0050767 0.00119576)
(0.000979708 0.00494952 -0.000781308)
(0.000992015 0.00500066 -0.0027096)
(0.000637755 0.0054671 0.00317866)
(0.000602825 0.00514622 0.00119592)
(0.000589469 0.00501744 -0.000781605)
(0.000597049 0.00506912 -0.00271042)
(0.000208613 0.00550856 0.00317835)
(0.000198628 0.00518448 0.00119513)
(0.000194278 0.00505321 -0.000782733)
(0.000196017 0.00510356 -0.00271202)
(0.0115484 0.00044395 0.00463668)
(0.0110886 0.000429509 0.00163179)
(0.0108583 0.000421601 -0.00135567)
(0.0108429 0.000421182 -0.00428413)
(0.0114675 0.00134615 0.00463637)
(0.0110117 0.00129606 0.00163179)
(0.0107846 0.00127156 -0.0013555)
(0.0107712 0.00127203 -0.0042836)
(0.0113181 0.00224077 0.00463522)
(0.0108677 0.00215434 0.00163096)
(0.0106434 0.00211217 -0.00135617)
(0.0106304 0.00211212 -0.00428404)
(0.0110994 0.0031217 0.00463407)
(0.0106575 0.0029994 0.00162974)
(0.0104376 0.00293917 -0.00135753)
(0.0104251 0.00293763 -0.00428549)
(0.0108141 0.00398371 0.00463307)
(0.0103836 0.00382611 0.00162834)
(0.0101696 0.00374793 -0.0013594)
(0.0101579 0.0037445 -0.00428779)
(0.0104644 0.00482154 0.00463229)
(0.0100483 0.00462966 0.00162687)
(0.0098417 0.00453409 -0.0013616)
(0.00983109 0.0045288 -0.00429074)
(0.0100528 0.00562993 0.0046317)
(0.00965356 0.00540533 0.00162542)
(0.00945568 0.00529326 -0.00136393)
(0.0094461 0.00528648 -0.00429399)
(0.00958104 0.00640358 0.00463123)
(0.00920107 0.00614818 0.00162412)
(0.00901288 0.00602078 -0.0013661)
(0.00900412 0.00601305 -0.00429709)
(0.00905106 0.00713718 0.00463081)
(0.00869229 0.00685307 0.00162308)
(0.0085146 0.00671157 -0.0013678)
(0.00850634 0.00670344 -0.00429955)
(0.00846491 0.0078257 0.00463046)
(0.00812921 0.0075149 0.00162247)
(0.00796279 0.00736047 -0.00136876)
(0.0079547 0.00735231 -0.00430091)
(0.00782562 0.00846499 0.00463047)
(0.00751487 0.00812927 0.00162248)
(0.00736049 0.00796282 -0.00136875)
(0.00735237 0.00795468 -0.00430091)
(0.0071371 0.00905114 0.00463085)
(0.00685305 0.00869238 0.00162311)
(0.00671162 0.00851467 -0.00136779)
(0.00670354 0.00850638 -0.00429954)
(0.00640351 0.00958111 0.0046313)
(0.00614818 0.00920118 0.00162417)
(0.00602085 0.00901299 -0.00136607)
(0.00601317 0.00900422 -0.00429709)
(0.00562986 0.0100528 0.0046318)
(0.00540534 0.0096537 0.00162549)
(0.00529334 0.00945585 -0.00136389)
(0.00528661 0.00944626 -0.00429398)
(0.00482147 0.0104645 0.00463241)
(0.00462968 0.0100484 0.00162695)
(0.00453417 0.00984191 -0.00136155)
(0.00452893 0.00983131 -0.00429073)
(0.00398365 0.0108141 0.00463321)
(0.00382612 0.0103837 0.00162844)
(0.00374801 0.0101698 -0.00135934)
(0.00374462 0.0101582 -0.00428778)
(0.00312165 0.0110995 0.00463423)
(0.00299941 0.0106577 0.00162985)
(0.00293924 0.0104378 -0.00135746)
(0.00293773 0.0104254 -0.00428547)
(0.00224073 0.0113181 0.0046354)
(0.00215435 0.0108679 0.00163108)
(0.00211222 0.0106437 -0.0013561)
(0.00211219 0.0106307 -0.00428401)
(0.00134613 0.0114675 0.00463655)
(0.00129606 0.0110119 0.00163192)
(0.00127159 0.0107849 -0.00135542)
(0.00127207 0.0107715 -0.00428357)
(0.000443942 0.0115485 0.00463687)
(0.000429511 0.0110888 0.00163192)
(0.00042161 0.0108586 -0.00135559)
(0.000421197 0.0108432 -0.00428411)
(0.0204456 0.000792 0.00608981)
(0.0198126 0.000771598 0.00192663)
(0.0194418 0.000758444 -0.00218902)
(0.0193149 0.000754185 -0.00624789)
(0.020308 0.00239247 0.00608846)
(0.0196801 0.00232237 0.00192528)
(0.0193134 0.0022815 -0.0021905)
(0.0191893 0.00226915 -0.0062492)
(0.0200485 0.00397942 0.00608697)
(0.0194281 0.00385893 0.00192353)
(0.0190661 0.00378902 -0.00219259)
(0.018944 0.00376699 -0.00625154)
(0.0196667 0.00554213 0.00608616)
(0.0190581 0.00537198 0.00192184)
(0.0187032 0.00527276 -0.00219515)
(0.018584 0.00524019 -0.00625497)
(0.0191663 0.00707115 0.006086)
(0.0185737 0.00685228 0.00192032)
(0.0182284 0.0067242 -0.00219802)
(0.018113 0.00668096 -0.00625923)
(0.0185511 0.00855702 0.00608636)
(0.0179784 0.00829104 0.00191896)
(0.0176451 0.00813513 -0.00220103)
(0.0175343 0.00808167 -0.00626399)
(0.0178248 0.00999032 0.006087)
(0.0172754 0.00967952 0.00191778)
(0.016956 0.00949729 -0.00220398)
(0.0168503 0.00943453 -0.00626881)
(0.0169908 0.0113616 0.00608767)
(0.0164678 0.0110087 0.00191678)
(0.0161638 0.0108021 -0.00220659)
(0.0160635 0.0107312 -0.00627314)
(0.0160525 0.0126616 0.00608814)
(0.0155585 0.0122696 0.00191603)
(0.0152713 0.0120404 -0.00220856)
(0.0151764 0.0119625 -0.00627643)
(0.0150142 0.0138816 0.00608831)
(0.0145518 0.0134532 0.0019156)
(0.0142826 0.0132033 -0.00220962)
(0.014193 0.0131193 -0.0062782)
(0.0138815 0.0150142 0.00608832)
(0.0134532 0.0145518 0.00191561)
(0.0132033 0.0142826 -0.00220962)
(0.0131193 0.014193 -0.0062782)
(0.0126615 0.0160526 0.00608817)
(0.0122696 0.0155586 0.00191605)
(0.0120404 0.0152714 -0.00220854)
(0.0119626 0.0151764 -0.00627642)
(0.0113615 0.0169908 0.00608772)
(0.0110087 0.0164679 0.00191682)
(0.0108021 0.0161639 -0.00220656)
(0.0107313 0.0160636 -0.00627313)
(0.00999023 0.0178249 0.00608708)
(0.00967953 0.0172756 0.00191783)
(0.00949739 0.0169562 -0.00220395)
(0.00943469 0.0168505 -0.00626879)
(0.00855694 0.0185512 0.00608645)
(0.00829106 0.0179786 0.00191903)
(0.00813522 0.0176453 -0.00220099)
(0.00808183 0.0175345 -0.00626397)
(0.00707108 0.0191663 0.00608611)
(0.00685229 0.0185739 0.0019204)
(0.00672429 0.0182287 -0.00219796)
(0.0066811 0.0181133 -0.0062592)
(0.00554207 0.0196667 0.00608628)
(0.00537199 0.0190583 0.00192193)
(0.00527284 0.0187035 -0.00219509)
(0.0052403 0.0185843 -0.00625494)
(0.00397937 0.0200485 0.0060871)
(0.00385894 0.0194283 0.00192363)
(0.00378908 0.0190664 -0.00219253)
(0.00376708 0.0189444 -0.0062515)
(0.00239244 0.020308 0.0060886)
(0.00232237 0.0196803 0.00192538)
(0.00228153 0.0193137 -0.00219043)
(0.0022692 0.0191897 -0.00624916)
(0.000791989 0.0204456 0.00608995)
(0.000771598 0.0198128 0.00192674)
(0.000758454 0.0194421 -0.00218894)
(0.000754202 0.0193153 -0.00624784)
(0.0326449 0.00127091 0.00730999)
(0.0318064 0.0012431 0.0019368)
(0.0312453 0.00122266 -0.00333665)
(0.0309396 0.00121212 -0.00857432)
(0.0324314 0.00383005 0.00730703)
(0.0315992 0.00373547 0.00193339)
(0.0310431 0.00367181 -0.00334058)
(0.0307413 0.00363825 -0.00857833)
(0.032023 0.00636753 0.00730518)
(0.0312009 0.00620562 0.00193054)
(0.0306521 0.00609729 -0.00334438)
(0.0303548 0.00603912 -0.00858297)
(0.03142 0.00886636 0.00730503)
(0.0306139 0.00863827 0.00192853)
(0.0300761 0.0084853 -0.0033481)
(0.0297851 0.00840205 -0.00858849)
(0.0306274 0.0113113 0.00730624)
(0.0298427 0.0110186 0.00192725)
(0.0293195 0.010822 -0.00335171)
(0.029037 0.0107141 -0.00859458)
(0.0296504 0.0136872 0.00730837)
(0.0288922 0.0133322 0.00192651)
(0.0283869 0.0130937 -0.00335514)
(0.0281147 0.0129623 -0.00860087)
(0.0284944 0.0159788 0.0073109)
(0.0277671 0.0155648 0.00192612)
(0.0272826 0.0152868 -0.00335824)
(0.0270219 0.0151336 -0.00860688)
(0.0271645 0.0181709 0.00731331)
(0.0264721 0.0177017 0.00192594)
(0.0260107 0.017387 -0.00336083)
(0.0257626 0.0172141 -0.00861204)
(0.0256668 0.0202488 0.00731513)
(0.0250125 0.0197283 0.00192587)
(0.0245764 0.0193796 -0.00336269)
(0.0243414 0.0191891 -0.00861584)
(0.0240083 0.0221986 0.00731608)
(0.0233954 0.0216303 0.00192584)
(0.0229864 0.0212504 -0.00336366)
(0.0227653 0.021044 -0.00861784)
(0.0221985 0.0240083 0.00731609)
(0.0216303 0.0233955 0.00192585)
(0.0212504 0.0229865 -0.00336365)
(0.0210441 0.0227653 -0.00861783)
(0.0202487 0.0256668 0.00731515)
(0.0197282 0.0250126 0.00192588)
(0.0193797 0.0245764 -0.00336267)
(0.0191893 0.0243414 -0.00861583)
(0.0181708 0.0271646 0.00731334)
(0.0177017 0.0264722 0.00192597)
(0.0173871 0.0260109 -0.00336081)
(0.0172143 0.0257627 -0.00861203)
(0.0159787 0.0284944 0.00731095)
(0.0155648 0.0277673 0.00192615)
(0.0152869 0.0272828 -0.00335822)
(0.0151338 0.0270221 -0.00860686)
(0.0136871 0.0296504 0.00730843)
(0.0133322 0.0288924 0.00192655)
(0.0130938 0.0283872 -0.00335511)
(0.0129625 0.0281149 -0.00860084)
(0.0113112 0.0306274 0.0073063)
(0.0110186 0.0298429 0.0019273)
(0.0108221 0.0293197 -0.00335167)
(0.0107142 0.0290373 -0.00859455)
(0.00886629 0.0314199 0.0073051)
(0.00863828 0.0306141 0.00192859)
(0.00848538 0.0300764 -0.00334806)
(0.00840218 0.0297854 -0.00858846)
(0.00636747 0.0320229 0.00730526)
(0.00620563 0.0312011 0.0019306)
(0.00609735 0.0306525 -0.00334433)
(0.00603921 0.0303551 -0.00858293)
(0.00383001 0.0324313 0.00730711)
(0.00373547 0.0315993 0.00193345)
(0.00367185 0.0310435 -0.00334053)
(0.00363831 0.0307416 -0.00857829)
(0.00127089 0.0326448 0.00731008)
(0.0012431 0.0318066 0.00193687)
(0.00122267 0.0312457 -0.00333659)
(0.00121213 0.03094 -0.00857428)
(0.0483164 0.00188797 0.00788879)
(0.0472513 0.0018516 0.00145203)
(0.046446 0.00182167 -0.00481522)
(0.0458756 0.00180185 -0.011086)
(0.0480072 0.00567944 0.00788374)
(0.0469493 0.00555705 0.00144604)
(0.04615 0.00546369 -0.00482211)
(0.0455847 0.00539834 -0.0110932)
(0.0474095 0.00943871 0.0078815)
(0.0463649 0.00923005 0.00144208)
(0.0455761 0.0090718 -0.00482755)
(0.0450188 0.00895966 -0.0111)
(0.0465247 0.0131409 0.00788219)
(0.0455007 0.0128477 0.00144005)
(0.0447277 0.0126251 -0.00483198)
(0.044182 0.0124665 -0.011107)
(0.0453589 0.0167634 0.00788506)
(0.0443624 0.016388 0.0014395)
(0.0436103 0.0161028 -0.00483562)
(0.0430798 0.0158989 -0.011114)
(0.043919 0.0202837 0.00788928)
(0.0429563 0.0198294 0.00143993)
(0.0422298 0.0194843 -0.00483861)
(0.0417176 0.0192374 -0.0111207)
(0.0422122 0.0236789 0.007894)
(0.0412887 0.0231502 0.00144092)
(0.0405918 0.0227487 -0.004841)
(0.0401006 0.0224617 -0.0111267)
(0.0402461 0.0269268 0.0078984)
(0.0393666 0.0263284 0.00144208)
(0.0387026 0.0258745 -0.00484277)
(0.0382345 0.0255506 -0.0111316)
(0.0380297 0.0300053 0.00790179)
(0.0371984 0.0293423 0.00144308)
(0.0365704 0.0288398 -0.00484393)
(0.0361271 0.0284822 -0.0111351)
(0.0355741 0.0328937 0.00790366)
(0.0347949 0.0321706 0.00144368)
(0.0342058 0.0316233 -0.00484449)
(0.033789 0.0312349 -0.0111369)
(0.0328936 0.0355742 0.00790366)
(0.0321706 0.0347949 0.00144368)
(0.0316233 0.0342058 -0.00484449)
(0.031235 0.033789 -0.0111369)
(0.0300052 0.0380298 0.0079018)
(0.0293422 0.0371984 0.00144308)
(0.0288398 0.0365704 -0.00484393)
(0.0284823 0.0361271 -0.0111351)
(0.0269267 0.0402462 0.00789841)
(0.0263284 0.0393667 0.00144208)
(0.0258746 0.0387028 -0.00484276)
(0.0255507 0.0382346 -0.0111316)
(0.0236788 0.0422122 0.00789401)
(0.0231502 0.0412888 0.00144093)
(0.0227488 0.0405919 -0.00484098)
(0.0224619 0.0401007 -0.0111267)
(0.0202836 0.043919 0.00788929)
(0.0198294 0.0429564 0.00143995)
(0.0194844 0.04223 -0.0048386)
(0.0192376 0.0417178 -0.0111207)
(0.0167634 0.0453589 0.00788507)
(0.016388 0.0443626 0.00143951)
(0.0161029 0.0436106 -0.0048356)
(0.0158991 0.0430801 -0.011114)
(0.0131408 0.0465246 0.0078822)
(0.0128477 0.0455008 0.00144007)
(0.0126252 0.044728 -0.00483195)
(0.0124666 0.0441823 -0.011107)
(0.00943866 0.0474095 0.00788152)
(0.00923006 0.0463651 0.0014421)
(0.00907186 0.0455764 -0.00482753)
(0.00895975 0.0450191 -0.0111)
(0.0056794 0.0480071 0.00788376)
(0.00555705 0.0469495 0.00144606)
(0.00546372 0.0461503 -0.00482208)
(0.0053984 0.0455851 -0.0110932)
(0.00188796 0.0483163 0.00788882)
(0.0018516 0.0472515 0.00145205)
(0.00182168 0.0464463 -0.00481519)
(0.00180187 0.045876 -0.011086)
(0.0668463 0.00261922 0.0072756)
(0.0655543 0.00257391 0.000217931)
(0.0644591 0.0025327 -0.00659419)
(0.0635343 0.00250055 -0.0134614)
(0.0664257 0.00786791 0.00726822)
(0.0651416 0.00771695 0.000209287)
(0.0640531 0.00758814 -0.00660393)
(0.0631346 0.00748021 -0.0134715)
(0.0656062 0.0130718 0.00726555)
(0.0643383 0.0128155 0.000204503)
(0.063264 0.0125978 -0.00661034)
(0.0623582 0.0124134 -0.0134794)
(0.0643898 0.0181969 0.00726701)
(0.0631473 0.0178376 0.000202924)
(0.0620945 0.0175321 -0.00661444)
(0.061207 0.0172728 -0.0134863)
(0.0627842 0.0232119 0.00727138)
(0.0615753 0.0227527 0.000203612)
(0.0605508 0.0223623 -0.0066169)
(0.0596873 0.0220304 -0.0134922)
(0.0607977 0.0280854 0.00727746)
(0.0596299 0.0275308 0.000205739)
(0.0586399 0.0270593 -0.00661817)
(0.0578053 0.0266582 -0.0134973)
(0.0584398 0.0327861 0.00728411)
(0.0573195 0.0321416 0.000208568)
(0.0563693 0.0315935 -0.00661862)
(0.0555682 0.0311277 -0.0135013)
(0.055721 0.0372827 0.00729029)
(0.0546538 0.0365544 0.000211446)
(0.0537483 0.035935 -0.00661857)
(0.0529843 0.0354089 -0.0135043)
(0.0526541 0.0415449 0.00729509)
(0.0516449 0.0407387 0.000213809)
(0.0507883 0.0400531 -0.00661829)
(0.0500649 0.0394717 -0.0135063)
(0.0492551 0.0455441 0.0072978)
(0.0483087 0.0446655 0.000215186)
(0.047505 0.0439187 -0.00661804)
(0.0468254 0.0432863 -0.0135073)
(0.045544 0.0492551 0.0072978)
(0.0446655 0.0483088 0.000215184)
(0.0439187 0.047505 -0.00661804)
(0.0432864 0.0468254 -0.0135073)
(0.0415449 0.0526542 0.00729508)
(0.0407387 0.051645 0.000213803)
(0.0400532 0.0507883 -0.00661829)
(0.0394719 0.0500649 -0.0135063)
(0.0372826 0.055721 0.00729027)
(0.0365544 0.0546539 0.000211437)
(0.0359351 0.0537484 -0.00661857)
(0.0354091 0.0529844 -0.0135043)
(0.032786 0.0584398 0.00728409)
(0.0321416 0.0573196 0.000208556)
(0.0315937 0.0563695 -0.00661862)
(0.0311278 0.0555684 -0.0135013)
(0.0280854 0.0607977 0.00727744)
(0.0275309 0.05963 0.000205724)
(0.0270594 0.0586401 -0.00661817)
(0.0266584 0.0578055 -0.0134972)
(0.0232119 0.0627841 0.00727135)
(0.0227527 0.0615754 0.000203595)
(0.0223624 0.0605511 -0.0066169)
(0.0220306 0.0596875 -0.0134922)
(0.0181969 0.0643897 0.00726698)
(0.0178376 0.0631475 0.000202905)
(0.0175322 0.0620948 -0.00661444)
(0.0172729 0.0612073 -0.0134863)
(0.0130718 0.0656061 0.00726552)
(0.0128155 0.0643384 0.000204483)
(0.0125978 0.0632643 -0.00661035)
(0.0124135 0.0623585 -0.0134794)
(0.00786787 0.0664257 0.00726818)
(0.00771696 0.0651417 0.000209265)
(0.00758818 0.0640534 -0.00660394)
(0.00748027 0.063135 -0.0134715)
(0.00261921 0.0668462 0.00727557)
(0.00257392 0.0655545 0.00021791)
(0.00253271 0.0644594 -0.00659419)
(0.00250057 0.0635347 -0.0134614)
(0.0867231 0.00340499 0.004889)
(0.0852302 0.00335153 -0.00201085)
(0.0838178 0.00329816 -0.00858847)
(0.0824607 0.00325126 -0.0152854)
(0.0861849 0.0102158 0.00487935)
(0.0846996 0.0100393 -0.00202154)
(0.0832942 0.00987208 -0.00859998)
(0.0819445 0.00971276 -0.015297)
(0.0851286 0.0169683 0.00487603)
(0.0836621 0.0166694 -0.00202646)
(0.0822748 0.0163873 -0.00860582)
(0.080943 0.0161159 -0.0153035)
(0.0835576 0.0236187 0.00487755)
(0.0821207 0.0232005 -0.00202707)
(0.0807608 0.0228054 -0.00860785)
(0.0794553 0.0224246 -0.0153073)
(0.0814807 0.0301266 0.00488233)
(0.0800827 0.0295929 -0.00202479)
(0.0787589 0.0290884 -0.00860735)
(0.0774877 0.028602 -0.015309)
(0.0789078 0.0364513 0.00488899)
(0.0775572 0.0358076 -0.00202078)
(0.0762774 0.0351986 -0.00860524)
(0.0750479 0.0346111 -0.0153092)
(0.0758507 0.042552 0.00489631)
(0.0745549 0.0418047 -0.00201602)
(0.0733261 0.041097 -0.0086023)
(0.0721452 0.0404142 -0.0153084)
(0.0723234 0.0483885 0.00490319)
(0.0710887 0.0475445 -0.00201141)
(0.0699173 0.0467444 -0.00859926)
(0.0687909 0.0459727 -0.0153073)
(0.0683431 0.0539213 0.00490865)
(0.0671752 0.0529874 -0.0020077)
(0.0660669 0.0521014 -0.00859675)
(0.0650004 0.0512472 -0.0153061)
(0.0639307 0.0591131 0.00491184)
(0.0628352 0.0580957 -0.00200556)
(0.0617955 0.05713 -0.00859529)
(0.0607943 0.0561995 -0.0153054)
(0.059113 0.0639308 0.00491184)
(0.0580957 0.0628353 -0.00200556)
(0.0571301 0.0617955 -0.00859529)
(0.0561995 0.0607943 -0.0153054)
(0.0539213 0.0683431 0.00490863)
(0.0529874 0.0671753 -0.00200771)
(0.0521015 0.0660669 -0.00859675)
(0.0512473 0.0650004 -0.0153061)
(0.0483885 0.0723235 0.00490315)
(0.0475445 0.0710888 -0.00201143)
(0.0467445 0.0699174 -0.00859927)
(0.0459729 0.0687909 -0.0153073)
(0.042552 0.0758507 0.00489626)
(0.0418047 0.074555 -0.00201606)
(0.0410971 0.0733263 -0.00860232)
(0.0404144 0.0721453 -0.0153084)
(0.0364512 0.0789078 0.00488893)
(0.0358076 0.0775574 -0.00202082)
(0.0351987 0.0762776 -0.00860526)
(0.0346113 0.0750481 -0.0153092)
(0.0301265 0.0814807 0.00488226)
(0.029593 0.0800829 -0.00202484)
(0.0290885 0.0787592 -0.00860737)
(0.0286021 0.0774879 -0.015309)
(0.0236187 0.0835576 0.00487747)
(0.0232005 0.0821209 -0.00202712)
(0.0228054 0.0807611 -0.00860787)
(0.0224247 0.0794556 -0.0153073)
(0.0169683 0.0851285 0.00487595)
(0.0166694 0.0836623 -0.00202652)
(0.0163874 0.082275 -0.00860584)
(0.016116 0.0809433 -0.0153035)
(0.0102158 0.0861849 0.00487927)
(0.0100393 0.0846998 -0.0020216)
(0.00987211 0.0832945 -0.00860001)
(0.00971281 0.0819449 -0.015297)
(0.00340498 0.0867231 0.00488891)
(0.00335153 0.0852304 -0.00201091)
(0.00329818 0.0838181 -0.0085885)
(0.00325128 0.082461 -0.0152854)
(0.105614 0.00415272 0.00014842)
(0.103964 0.00409295 -0.00543)
(0.102234 0.00402798 -0.0106369)
(0.100401 0.00396555 -0.0160239)
(0.104964 0.0124446 0.000137397)
(0.103321 0.012249 -0.00544079)
(0.101597 0.0120448 -0.0106474)
(0.0997726 0.0118305 -0.0160336)
(0.103681 0.0206649 0.000132894)
(0.102059 0.0203345 -0.0054447)
(0.100357 0.0199902 -0.0106501)
(0.0985555 0.0196256 -0.0160349)
(0.101772 0.0287612 0.000132677)
(0.100182 0.0282991 -0.00544393)
(0.0985124 0.027817 -0.0106477)
(0.0967454 0.027306 -0.0160311)
(0.0992442 0.0366845 0.000135218)
(0.097697 0.036095 -0.00544019)
(0.0960711 0.0354793 -0.0106421)
(0.0943493 0.0348265 -0.0160239)
(0.0961113 0.0443856 0.000139435)
(0.0946159 0.0436744 -0.00543474)
(0.0930432 0.0429306 -0.0106348)
(0.091377 0.0421417 -0.0160148)
(0.0923871 0.0518153 0.00014446)
(0.0909518 0.0509891 -0.00542863)
(0.0894411 0.0501238 -0.0106268)
(0.08784 0.0492055 -0.0160052)
(0.0880892 0.0589245 0.000149516)
(0.0867213 0.0579906 -0.00542282)
(0.0852807 0.057011 -0.0106195)
(0.0837533 0.0559712 -0.0159966)
(0.0832391 0.0656652 0.000153822)
(0.0819449 0.0646312 -0.00541819)
(0.080582 0.0635447 -0.0106139)
(0.0791363 0.0623915 -0.01599)
(0.0778625 0.0719917 0.000156571)
(0.0766484 0.0708645 -0.00541551)
(0.0753705 0.0696787 -0.0106108)
(0.0740145 0.0684202 -0.0159864)
(0.0719916 0.0778626 0.000156561)
(0.0708645 0.0766485 -0.00541552)
(0.0696788 0.0753705 -0.0106108)
(0.0684202 0.0740145 -0.0159864)
(0.0656651 0.0832392 0.000153791)
(0.0646312 0.081945 -0.00541821)
(0.0635448 0.080582 -0.0106139)
(0.0623916 0.0791363 -0.01599)
(0.0589244 0.0880893 0.000149466)
(0.0579906 0.0867214 -0.00542286)
(0.0570111 0.0852808 -0.0106196)
(0.0559714 0.0837534 -0.0159966)
(0.0518152 0.0923871 0.000144393)
(0.0509891 0.0909519 -0.00542868)
(0.0501239 0.0894413 -0.0106269)
(0.0492057 0.0878401 -0.0160053)
(0.0443856 0.0961113 0.000139351)
(0.0436744 0.094616 -0.0054348)
(0.0429307 0.0930434 -0.0106348)
(0.0421418 0.0913772 -0.0160148)
(0.0366845 0.0992442 0.000135121)
(0.036095 0.0976971 -0.00544026)
(0.0354794 0.0960713 -0.0106422)
(0.0348266 0.0943496 -0.0160239)
(0.0287611 0.101771 0.000132569)
(0.0282991 0.100182 -0.00544401)
(0.0278171 0.0985127 -0.0106478)
(0.0273061 0.0967456 -0.0160311)
(0.0206649 0.103681 0.000132777)
(0.0203345 0.102059 -0.00544479)
(0.0199902 0.100357 -0.0106501)
(0.0196257 0.0985558 -0.0160349)
(0.0124446 0.104964 0.000137272)
(0.012249 0.103321 -0.00544088)
(0.0120448 0.101598 -0.0106474)
(0.0118306 0.099773 -0.0160336)
(0.00415271 0.105614 0.000148293)
(0.00409295 0.103965 -0.00543009)
(0.00402799 0.102234 -0.0106369)
(0.00396557 0.100401 -0.016024)
(0.119719 0.00471043 -0.00734325)
(0.117972 0.00464731 -0.0100873)
(0.115978 0.0045738 -0.012522)
(0.113724 0.00449891 -0.0151322)
(0.118983 0.0141001 -0.00735285)
(0.117241 0.0138955 -0.0100944)
(0.115254 0.0136637 -0.0125269)
(0.113008 0.0134038 -0.0151345)
(0.117525 0.0234076 -0.00735872)
(0.115804 0.0230621 -0.0100956)
(0.113841 0.0226711 -0.0125235)
(0.111622 0.0222289 -0.015126)
(0.115353 0.0325742 -0.00736288)
(0.113665 0.0320905 -0.0100933)
(0.111738 0.0315425 -0.0125147)
(0.109561 0.0309225 -0.0151105)
(0.112479 0.041545 -0.00736602)
(0.110834 0.0409268 -0.0100887)
(0.108957 0.0402258 -0.0125025)
(0.106835 0.0394327 -0.0150903)
(0.108917 0.0502649 -0.0073683)
(0.107327 0.0495172 -0.0100829)
(0.105509 0.0486686 -0.0124886)
(0.103454 0.0477084 -0.0150678)
(0.104685 0.0586787 -0.00736964)
(0.103158 0.0578078 -0.0100766)
(0.101411 0.0568181 -0.0124745)
(0.0994359 0.0556979 -0.0150456)
(0.0998044 0.0667319 -0.00737)
(0.0983479 0.0657448 -0.0100706)
(0.0966823 0.0646212 -0.012462)
(0.0947983 0.0633494 -0.0150262)
(0.0942998 0.0743706 -0.0073695)
(0.0929219 0.0732746 -0.0100658)
(0.0913466 0.0720251 -0.0124525)
(0.0895646 0.070611 -0.0150117)
(0.0882008 0.0815429 -0.00736861)
(0.086909 0.0803455 -0.010063)
(0.0854333 0.0789785 -0.0124474)
(0.0837637 0.0774317 -0.0150039)
(0.0815429 0.0882009 -0.00736862)
(0.0803454 0.086909 -0.010063)
(0.0789785 0.0854333 -0.0124474)