/*--------------------------------*- C++ -*----------------------------------*\
| =========                 |                                                 |
| \\      /  F ield         | foam-extend: Open Source CFD                    |
|  \\    /   O peration     | Version:     3.1                                |
|   \\  /    A nd           | Web:         http://www.extend-project.de       |
|    \\/     M anipulation  |                                                 |
\*---------------------------------------------------------------------------*/
FoamFile
{
    version     2.0;
    format      ascii;
    class       volVectorField;
    location    "4";
    object      D;
}
// * * * * * * * * * * * * * * * * * * * * * * * * * * * * * * * * * * * * * //

dimensions      [0 1 0 0 0 0 0];

internalField   nonuniform List<vector> 
256
(
(0.000265539 0.000179519 0.000306051)
(0.000111293 3.49638e-05 9.07844e-05)
(9.89111e-05 -5.31759e-05 -0.000111583)
(0.000226408 -0.000198843 -0.000340758)
(0.00111894 0.000737127 0.000252073)
(0.000927909 0.000196991 8.67213e-05)
(0.00089236 -0.000234247 -0.000157056)
(0.0010059 -0.000772502 -0.000348287)
(0.00220526 0.00113915 0.000174778)
(0.00201336 0.000330224 3.74903e-05)
(0.00196425 -0.000382539 -0.000151458)
(0.00205298 -0.0011952 -0.000317039)
(0.0035033 0.00144946 6.14256e-05)
(0.00332937 0.00042611 -1.4992e-05)
(0.00327086 -0.000510203 -0.000138783)
(0.00332163 -0.00153904 -0.000245953)
(0.00494028 0.00165925 -5.54271e-05)
(0.00478247 0.000483775 -6.8432e-05)
(0.00471712 -0.000614589 -0.000123242)
(0.00473663 -0.00179352 -0.000168002)
(0.00644797 0.00178779 -0.000163661)
(0.00630444 0.000510549 -0.000119185)
(0.00623419 -0.000698458 -0.000111393)
(0.00622893 -0.0019735 -9.70693e-05)
(0.00797168 0.00185429 -0.000254964)
(0.00783711 0.000514216 -0.000167736)
(0.00776223 -0.000763546 -0.000107742)
(0.00774066 -0.00209222 -4.4311e-05)
(0.00948322 0.00187824 -0.000330285)
(0.00933894 0.000505357 -0.000216527)
(0.00925387 -0.000810998 -0.000114858)
(0.00922808 -0.00216676 -2.08828e-05)
(0.000300625 0.000178009 0.000153243)
(0.000150538 3.65382e-05 4.71915e-05)
(0.000137907 -4.76433e-05 -6.50583e-05)
(0.000255792 -0.000186745 -0.000184367)
(0.00119603 0.000733569 0.000141896)
(0.000981086 0.000200802 4.26606e-05)
(0.000947945 -0.000222599 -0.000103901)
(0.00108747 -0.000754556 -0.000221473)
(0.00226583 0.00115414 9.4149e-05)
(0.00207381 0.000342197 1.01446e-05)
(0.00202742 -0.000377573 -0.000110619)
(0.00211861 -0.00119379 -0.000214007)
(0.00353311 0.00147076 1.71152e-05)
(0.00336123 0.000442643 -2.90151e-05)
(0.00330552 -0.000504652 -0.000107427)
(0.00335622 -0.00153867 -0.000174312)
(0.00492943 0.00168546 -6.76341e-05)
(0.00477661 0.000504471 -7.0206e-05)
(0.00471384 -0.000606144 -0.000100953)
(0.00472985 -0.00179022 -0.000124513)
(0.0063956 0.00181618 -0.000148605)
(0.00625823 0.000534259 -0.00011054)
(0.00619043 -0.000684916 -9.66148e-05)
(0.00617997 -0.00196313 -7.81231e-05)
(0.00788166 0.00188299 -0.000218594)
(0.00775472 0.000539494 -0.000149503)
(0.0076826 -0.000744055 -9.89174e-05)
(0.00765432 -0.00207273 -4.52784e-05)
(0.00936524 0.00190592 -0.000275659)
(0.00922901 0.000530487 -0.000187184)
(0.00914706 -0.00078665 -0.000111631)
(0.00911474 -0.00213889 -3.6533e-05)
(0.000317043 0.000183942 7.50737e-05)
(0.000157648 3.91671e-05 2.22031e-05)
(0.000142998 -4.79951e-05 -3.85264e-05)
(0.000265409 -0.00019104 -9.98185e-05)
(0.00123219 0.000729015 6.98386e-05)
(0.000998217 0.000201815 1.4799e-05)
(0.000962837 -0.000214774 -6.75515e-05)
(0.00111636 -0.000742995 -0.000133926)
(0.00229891 0.00114798 3.84173e-05)
(0.00209244 0.000345831 -8.54407e-06)
(0.00204367 -0.000366566 -7.82712e-05)
(0.00214462 -0.00117475 -0.000136425)
(0.00355014 0.00146476 -1.33546e-05)
(0.00336839 0.000449002 -3.75251e-05)
(0.00331011 -0.000490008 -8.11244e-05)
(0.00336564 -0.00151254 -0.000116758)
(0.00492354 0.00168256 -7.2424e-05)
(0.00476387 0.000514284 -6.85947e-05)
(0.00469831 -0.000587861 -8.10935e-05)
(0.00471572 -0.00175893 -8.84232e-05)
(0.00636404 0.00181823 -0.000130667)
(0.00622214 0.000547769 -9.97703e-05)
(0.0061515 -0.000663038 -8.22627e-05)
(0.00613978 -0.00192772 -6.12787e-05)
(0.00782556 0.00189155 -0.000182331)
(0.00769621 0.000556446 -0.00013036)
(0.00762143 -0.000719068 -8.85418e-05)
(0.00758966 -0.00203456 -4.36755e-05)
(0.00929051 0.00192216 -0.000224518)
(0.00915373 0.000550402 -0.000159813)
(0.0090686 -0.000759413 -0.000103781)
(0.00902968 -0.00209927 -4.52217e-05)
(0.000323326 0.000187424 3.48873e-05)
(0.00015712 4.05295e-05 9.07989e-06)
(0.00014076 -4.81604e-05 -2.27878e-05)
(0.000266588 -0.000193431 -5.32473e-05)
(0.00124607 0.000726219 2.87708e-05)
(0.00100015 0.000202514 4.42077e-07)
(0.000962003 -0.000208957 -4.38749e-05)
(0.00112235 -0.000733968 -7.91065e-05)
(0.00231062 0.00114069 6.1969e-06)
(0.00209335 0.000347615 -1.71577e-05)
(0.00204162 -0.000355794 -5.45892e-05)
(0.0021483 -0.00115532 -8.43563e-05)
(0.00355303 0.00145585 -2.92661e-05)
(0.0033628 0.000452651 -3.86566e-05)
(0.00330147 -0.00047477 -5.99613e-05)
(0.00336046 -0.00148478 -7.55846e-05)
(0.00491314 0.00167499 -7.02043e-05)
(0.00474709 0.000520615 -6.18729e-05)
(0.00467846 -0.000568759 -6.3248e-05)
(0.0046972 -0.00172531 -6.07103e-05)
(0.00633799 0.00181443 -0.000111514)
(0.0061915 0.000557367 -8.5587e-05)
(0.00611784 -0.000640773 -6.73569e-05)
(0.00610558 -0.0018904 -4.62436e-05)
(0.00778377 0.00189332 -0.000149109)
(0.0076514 0.00056948 -0.000109274)
(0.00757361 -0.000694414 -7.53327e-05)
(0.00753956 -0.00199537 -3.84297e-05)
(0.00923598 0.00193036 -0.000180107)
(0.00909703 0.000566885 -0.000132264)
(0.00900799 -0.000732991 -9.04167e-05)
(0.00896446 -0.00205943 -4.51619e-05)
(0.00032556 0.000189102 1.48259e-05)
(0.000155174 4.12877e-05 2.76545e-06)
(0.000137601 -4.80853e-05 -1.33054e-05)
(0.000265145 -0.000194165 -2.77378e-05)
(0.00124996 0.000724471 7.88575e-06)
(0.000996689 0.000203345 -5.45859e-06)
(0.0009563 -0.000204475 -2.81557e-05)
(0.00111988 -0.000726596 -4.56947e-05)
(0.00231189 0.0011358 -8.77343e-06)
(0.0020875 0.000349326 -1.86781e-05)
(0.00203334 -0.000346915 -3.72042e-05)
(0.0021429 -0.00113974 -5.08249e-05)
(0.00354861 0.00144947 -3.3206e-05)
(0.00335236 0.00045579 -3.43725e-05)
(0.00328862 -0.000461856 -4.28721e-05)
(0.0033495 -0.00146214 -4.74765e-05)
(0.00490057 0.00166916 -6.13315e-05)
(0.00472974 0.000525782 -5.13232e-05)
(0.00465877 -0.000552413 -4.72097e-05)
(0.00467827 -0.00169739 -4.02464e-05)
(0.00631563 0.00181098 -9.01172e-05)
(0.00616552 0.00056501 -6.88511e-05)
(0.0060896 -0.000621706 -5.21988e-05)
(0.00607701 -0.00185905 -3.32819e-05)
(0.00775104 0.0018936 -0.000116851)
(0.00761606 0.000579755 -8.66086e-05)
(0.00753599 -0.00067335 -6.00373e-05)
(0.0075005 -0.00196211 -3.09349e-05)
(0.00919386 0.001935 -0.000139047)
(0.00905285 0.000579847 -0.000103949)
(0.00896082 -0.000710398 -7.31254e-05)
(0.00891428 -0.00202532 -3.91338e-05)
(0.000326275 0.000189874 5.41743e-06)
(0.000153441 4.17307e-05 1.65847e-07)
(0.000135049 -4.79109e-05 -7.49738e-06)
(0.000263308 -0.000194147 -1.38795e-05)
(0.00125 0.000723434 -8.91063e-07)
(0.00099231 0.000204189 -6.44874e-06)
(0.000950325 -0.000201166 -1.7319e-05)
(0.00111534 -0.000720969 -2.5365e-05)
(0.00230928 0.00113301 -1.26159e-05)
(0.00208043 0.000350999 -1.57762e-05)
(0.00202453 -0.000340273 -2.40228e-05)
(0.00213545 -0.0011284 -2.93195e-05)
(0.00354203 0.00144582 -2.88007e-05)
(0.00334184 0.000458596 -2.65741e-05)
(0.00327641 -0.000452104 -2.87258e-05)
(0.00333821 -0.00144567 -2.84031e-05)
(0.00488877 0.00166579 -4.72847e-05)
(0.00471469 0.000530062 -3.82097e-05)
(0.00464211 -0.000539993 -3.26601e-05)
(0.00466197 -0.00167689 -2.5207e-05)
(0.00629757 0.00180902 -6.63513e-05)
(0.00614491 0.000571015 -5.03347e-05)
(0.00606747 -0.000607167 -3.70993e-05)
(0.00605464 -0.00183573 -2.22607e-05)
(0.00772606 0.00189389 -8.43069e-05)
(0.00758916 0.000587559 -6.27341e-05)
(0.00750758 -0.000657248 -4.35002e-05)
(0.0074712 -0.00193707 -2.23799e-05)
(0.00916211 0.00193792 -9.92926e-05)
(0.00901942 0.000589503 -7.48868e-05)
(0.0089254 -0.000693071 -5.34544e-05)
(0.00887708 -0.00199933 -2.95944e-05)
(0.000326465 0.000190202 1.52921e-06)
(0.00015228 4.1982e-05 -5.00004e-07)
(0.000133379 -4.77435e-05 -3.78786e-06)
(0.000261878 -0.000193913 -6.30089e-06)
(0.00124906 0.000722856 -2.8107e-06)
(0.000988869 0.000204858 -4.74199e-06)
(0.00094587 -0.00019898 -9.37817e-06)
(0.00111146 -0.000717189 -1.26272e-05)
(0.00230626 0.00113159 -9.84025e-06)
(0.0020748 0.000352324 -1.03219e-05)
(0.00201779 -0.000335887 -1.34657e-05)
(0.0021293 -0.00112106 -1.5058e-05)
(0.00353638 0.00144399 -1.91497e-05)
(0.00333382 0.000460731 -1.66721e-05)
(0.00326732 -0.000445649 -1.65143e-05)
(0.00332951 -0.00143507 -1.50034e-05)
(0.00487989 0.00166417 -2.9704e-05)
(0.00470382 0.000533169 -2.34995e-05)
(0.00463024 -0.00053175 -1.91774e-05)
(0.00465022 -0.00166363 -1.37764e-05)
(0.00628486 0.00180817 -4.06334e-05)
(0.0061306 0.000575205 -3.06448e-05)
(0.00605223 -0.000597491 -2.21653e-05)
(0.00603923 -0.00182053 -1.27398e-05)
(0.00770902 0.00189426 -5.10116e-05)
(0.00757087 0.000592851 -3.79898e-05)
(0.00748838 -0.000646506 -2.63023e-05)
(0.0074515 -0.00192058 -1.34658e-05)
(0.00914061 0.00193975 -5.96975e-05)
(0.00899679 0.00059593 -4.51971e-05)
(0.00890158 -0.00068148 -3.24818e-05)
(0.00885228 -0.00198205 -1.82698e-05)
(0.000326491 0.000190318 2.54585e-07)
(0.000151712 4.20967e-05 -2.55112e-07)
(0.000132567 -4.76458e-05 -1.15269e-06)
(0.000261123 -0.000193739 -1.79393e-06)
(0.00124834 0.000722597 -1.28373e-06)
(0.000987039 0.000205222 -1.71201e-06)
(0.000943553 -0.000197893 -2.9667e-06)
(0.00110932 -0.000715294 -3.80686e-06)
(0.00230442 0.001131 -3.63108e-06)
(0.00207177 0.000353049 -3.57159e-06)
(0.00201422 -0.00033371 -4.33745e-06)
(0.00212595 -0.00111745 -4.62199e-06)
(0.0035332 0.00144326 -6.67684e-06)
(0.00332955 0.00046188 -5.67028e-06)
(0.00326253 -0.000442445 -5.38831e-06)
(0.00332488 -0.00142989 -4.67788e-06)
(0.00487515 0.00166354 -1.01157e-05)
(0.00469815 0.000534804 -7.92381e-06)
(0.00462409 -0.000527654 -6.32345e-06)
(0.00464411 -0.00165715 -4.37481e-06)
(0.00627828 0.00180789 -1.36825e-05)
(0.00612326 0.000577362 -1.02867e-05)
(0.00604446 -0.000592676 -7.37076e-06)
(0.00603136 -0.00181306 -4.14313e-06)
(0.00770032 0.0018945 -1.70829e-05)
(0.00756158 0.000595532 -1.2721e-05)
(0.00747866 -0.000641149 -8.79644e-06)
(0.00744156 -0.00191244 -4.48738e-06)
(0.00912966 0.00194058 -1.99315e-05)
(0.00898532 0.000599155 -1.51095e-05)
(0.00888955 -0.000675681 -1.0887e-05)
(0.00883982 -0.00197348 -6.16096e-06)
)
;

boundaryField
{
    interface
    {
        type            tractionDisplacement;
        gradient        nonuniform List<vector> 
192
(
(0.0253665 0.034825 0.00078664)
(0.0122054 0.0348072 0.00185587)
(0.0135663 0.0460471 0.000787385)
(0.0112014 0.0525709 -0.00114515)
(0.009595 0.0572529 -0.00320752)
(0.00810654 0.0595791 -0.00518365)
(0.00728412 0.0604069 -0.00678809)
(0.00687059 0.0613713 -0.00766802)
(0.0258801 0.0371858 0.000550146)
(0.0141132 0.034861 0.00142988)
(0.0137564 0.0446962 0.000970803)
(0.0115813 0.0509935 -0.000137546)
(0.00985876 0.0555247 -0.00143037)
(0.00843196 0.0580277 -0.00276218)
(0.00764804 0.0592159 -0.00392176)
(0.00720437 0.0609347 -0.00463415)
(0.0269699 0.0386472 0.000164086)
(0.0147448 0.0350347 0.000514805)
(0.0142183 0.0440312 0.000291371)
(0.0118055 0.050055 -0.000282817)
(0.00988477 0.0544322 -0.00107184)
(0.00833908 0.056983 -0.00192273)
(0.00749699 0.0583556 -0.00270708)
(0.00688806 0.0605304 -0.00324127)
(0.0276708 0.0393561 -2.54529e-05)
(0.0152482 0.0350867 4.44248e-05)
(0.0146983 0.0437231 -0.000126555)
(0.0121521 0.0494929 -0.000465089)
(0.0100954 0.0537535 -0.000937471)
(0.00844428 0.0562966 -0.0014698)
(0.00753546 0.0577577 -0.00198793)
(0.00682994 0.0601824 -0.002378)
(0.0280521 0.0396704 -9.30315e-05)
(0.0155819 0.0350676 -0.000147791)
(0.0150424 0.0435311 -0.000297772)
(0.0124336 0.0491575 -0.000521264)
(0.0102994 0.0533362 -0.000816607)
(0.00857679 0.055855 -0.00115523)
(0.00761779 0.0573479 -0.0015028)
(0.00683742 0.0598996 -0.0017902)
(0.0282487 0.0397957 -9.44896e-05)
(0.0157872 0.0350173 -0.000178747)
(0.0152671 0.0433955 -0.000298698)
(0.0126312 0.048948 -0.000449032)
(0.010456 0.0530771 -0.000635162)
(0.00869201 0.0555719 -0.000848438)
(0.00770245 0.0570687 -0.00107465)
(0.00688182 0.0596822 -0.0012721)
(0.0283436 0.0398389 -6.4825e-05)
(0.0159018 0.0349682 -0.0001299)
(0.0153985 0.0433043 -0.000207171)
(0.0127519 0.048821 -0.000296073)
(0.0105564 0.0529232 -0.000401245)
(0.00877029 0.0554007 -0.000521148)
(0.00776383 0.0568932 -0.00065048)
(0.00692182 0.0595353 -0.000766672)
(0.0283809 0.0398506 -2.25514e-05)
(0.0159517 0.0349397 -4.63188e-05)
(0.0154575 0.0432581 -7.29017e-05)
(0.0128073 0.0487601 -0.000102492)
(0.0106034 0.0528505 -0.000136766)
(0.00880806 0.0553196 -0.000175748)
(0.00779345 0.0568087 -0.000218032)
(0.00694099 0.0594591 -0.000256406)
(-0.00205929 0.0125027 0.0135837)
(-0.00399226 -0.00380797 0.00204017)
(-0.00205353 -0.00342797 0.00333521)
(9.18869e-05 -0.00477571 0.00152285)
(0.00268167 -0.00473745 0.000466683)
(0.00507482 -0.00433734 -0.000566897)
(0.00702107 -0.0037128 -0.00124838)
(0.00847752 -0.00265647 -0.00207861)
(-0.00491791 0.00454024 0.00293455)
(-0.00880974 -0.0015663 0.000576122)
(-0.0063344 -0.00137114 0.000357312)
(-0.00370659 -0.00183511 -0.000229531)
(-0.000725208 -0.00194577 -0.000625057)
(0.00198997 -0.00200036 -0.000979129)
(0.0043048 -0.00206512 -0.00126186)
(0.00625816 -0.00187161 -0.00182753)
(-0.00527672 -0.00652553 -0.00390598)
(-0.00928638 0.000784388 -0.000950605)
(-0.00695861 0.000756111 -0.00128743)
(-0.00433674 0.00117039 -0.00104927)
(-0.00139085 0.000921919 -0.000900104)
(0.00133584 0.00047022 -0.000716588)
(0.00371385 -0.000137296 -0.000562032)
(0.00563128 -0.000796573 -0.000177227)
(-0.00337641 -0.0161678 -0.0136382)
(-0.00562549 0.00233005 -0.00251939)
(-0.00426453 0.00237469 -0.0041991)
(-0.0022706 0.00375444 -0.00270273)
(0.000141938 0.00347412 -0.00186922)
(0.00245952 0.0027639 -0.000988726)
(0.00445841 0.00164465 -0.00031015)
(0.00591854 4.15321e-05 0.000432866)
(0.0212016 -0.0335211 -0.00164966)
(0.00866015 -0.0342742 -0.00364625)
(0.00848049 -0.0466145 -0.00329428)
(0.005178 -0.0532637 -0.00164867)
(0.00283258 -0.0578016 0.000287553)
(0.000903291 -0.05974 0.00230007)
(-0.000266913 -0.0598695 0.00409045)
(-0.000517443 -0.0589807 0.00534378)
(0.0208128 -0.0362989 -0.000939026)
(0.0102678 -0.0350689 -0.0021025)
(0.00838982 -0.0454748 -0.00191096)
(0.00524968 -0.0518238 -0.000869645)
(0.00277312 -0.0560987 0.000430935)
(0.000844709 -0.058106 0.00182934)
(-0.000370106 -0.0584798 0.00310561)
(-0.000583663 -0.0580699 0.00412207)
(0.0215314 -0.0376839 -0.000401197)
(0.0108256 -0.0354498 -0.000843943)
(0.00887963 -0.0448802 -0.000720675)
(0.00556273 -0.0509055 -0.000166129)
(0.00290617 -0.0549671 0.000643661)
(0.000837855 -0.0569648 0.00154581)
(-0.000496749 -0.0574494 0.00242563)
(-0.000899272 -0.0571869 0.00321069)
(0.0219581 -0.0381885 -0.00012545)
(0.0112229 -0.0355279 -0.0002202)
(0.00926151 -0.0445985 -8.31426e-05)
(0.00584068 -0.0503509 0.000256644)
(0.00305401 -0.054263 0.000747763)
(0.00086691 -0.0562102 0.00131706)
(-0.000580206 -0.0567046 0.0019044)
(-0.00109668 -0.0564573 0.00247561)
(0.0221394 -0.0382797 -7.95196e-06)
(0.0114631 -0.0354795 3.93347e-05)
(0.00949648 -0.0444016 0.000176681)
(0.00602073 -0.0500133 0.000405823)
(0.00315795 -0.0538262 0.000714223)
(0.000890476 -0.0557177 0.00107603)
(-0.000637402 -0.0561847 0.00146562)
(-0.00122475 -0.0559008 0.00186969)
(0.0221954 -0.0382183 2.90961e-05)
(0.0115946 -0.0353914 0.000110845)
(0.00962838 -0.0442513 0.000225364)
(0.00612431 -0.0497974 0.000380687)
(0.00321886 -0.0535524 0.000574782)
(0.000904015 -0.0553999 0.000800741)
(-0.000673131 -0.0558325 0.00104977)
(-0.00129537 -0.0555019 0.00131846)
(0.022201 -0.0381318 2.82908e-05)
(0.0116598 -0.0353126 9.24347e-05)
(0.00969612 -0.0441464 0.000167213)
(0.00617864 -0.0496638 0.000259138)
(0.00325073 -0.0533881 0.000368342)
(0.000910314 -0.0552073 0.000493978)
(-0.000693725 -0.055613 0.000634029)
(-0.00133149 -0.0552453 0.000788084)
(0.0221956 -0.0380777 1.09819e-05)
(0.0116862 -0.035268 3.45268e-05)
(0.00972437 -0.0440922 6.03956e-05)
(0.00620168 -0.0495989 9.09807e-05)
(0.00326414 -0.0533102 0.000126449)
(0.000912689 -0.0551156 0.000166956)
(-0.000702793 -0.0555074 0.000212365)
(-0.00134648 -0.0551197 0.00026261)
(0.0613113 0.000524295 -0.00200788)
(0.0611089 0.000338768 -0.00118432)
(0.0609031 0.000751822 -0.000903478)
(0.0606646 0.00100255 -0.000606955)
(0.060427 0.00119527 -0.00042283)
(0.0602323 0.00131242 -0.000282711)
(0.0600962 0.0013787 -0.000164735)
(0.0600245 0.00140427 -5.41319e-05)
(0.056459 0.000627779 -0.00134125)
(0.0563496 0.000487633 -0.000970818)
(0.0561393 0.000628169 -0.000862712)
(0.0558604 0.0007804 -0.000694842)
(0.0555577 0.000915803 -0.000535631)
(0.0553028 0.00101269 -0.000378894)
(0.0551251 0.00107408 -0.000225676)
(0.0550363 0.00110451 -7.47146e-05)
(0.0555755 -0.00155529 -0.000741898)
(0.055351 -0.00137963 -0.000971733)
(0.0549467 -0.00129507 -0.00103544)
(0.0545214 -0.001213 -0.000959707)
(0.0541296 -0.00113725 -0.000786838)
(0.0538187 -0.00107472 -0.000572732)
(0.0536079 -0.0010305 -0.000344875)
(0.0535023 -0.00100671 -0.000114792)
(0.0580052 -0.00230906 -0.000441023)
(0.0573906 -0.00199374 -0.00130737)
(0.0566669 -0.00205866 -0.00147914)
(0.056027 -0.00207781 -0.00139674)
(0.0555075 -0.00207462 -0.00114784)
(0.0551234 -0.00205106 -0.000835043)
(0.054872 -0.00202616 -0.000502356)
(0.0547474 -0.00201088 -0.000167282)
)
;
        traction        nonuniform List<vector> 
192
(
(21.0053 -0.666375 -2.3594)
(20.9936 -0.81785 -4.10853)
(20.8574 -1.2317 -4.9317)
(21.1374 -1.41615 -5.39748)
(21.8305 -1.29494 -5.6633)
(22.7827 -0.742931 -5.73469)
(23.67 0.453598 -5.52884)
(22.8831 2.43424 -4.83007)
(23.876 -1.01352 -1.72585)
(24.231 -1.2 -3.02323)
(24.8879 -1.67994 -3.63404)
(25.9279 -1.87029 -3.96703)
(27.2041 -1.6833 -4.13326)
(28.4452 -0.96036 -4.13697)
(28.9223 0.589687 -3.92671)
(25.8424 3.0315 -3.3923)
(25.759 -1.1812 -1.25017)
(26.0884 -1.36492 -2.18002)
(26.91 -1.87036 -2.58614)
(28.144 -2.05199 -2.78829)
(29.5528 -1.80937 -2.87549)
(30.7743 -0.970041 -2.8561)
(30.8662 0.777688 -2.7083)
(26.6192 3.40399 -2.37527)
(27.1163 -1.26858 -0.919014)
(27.3895 -1.44171 -1.60455)
(28.236 -1.96129 -1.89032)
(29.5167 -2.13241 -2.02263)
(30.9441 -1.84992 -2.07523)
(32.0937 -0.933656 -2.05781)
(31.918 0.932582 -1.96332)
(26.9803 3.65225 -1.74711)
(28.0995 -1.31834 -0.663141)
(28.3318 -1.47985 -1.16159)
(29.1695 -2.00591 -1.36459)
(30.4521 -2.16943 -1.45424)
(31.868 -1.86072 -1.48911)
(32.9533 -0.895018 -1.47878)
(32.6015 1.04685 -1.42133)
(27.2097 3.82457 -1.2778)
(28.7879 -1.3476 -0.44992)
(28.9923 -1.49926 -0.790702)
(29.8168 -2.02803 -0.928315)
(31.0902 -2.18654 -0.987594)
(32.4905 -1.86142 -1.01093)
(33.5293 -0.864445 -1.00611)
(33.0646 1.12647 -0.972389)
(27.3715 3.94191 -0.879225)
(29.2267 -1.36473 -0.259485)
(29.4152 -1.50946 -0.457615)
(30.2315 -2.03906 -0.537223)
(31.4966 -2.19445 -0.571011)
(32.8849 -1.85971 -0.584603)
(33.895 -0.843688 -0.582768)
(33.3618 1.17763 -0.563411)
(27.4841 4.01334 -0.507036)
(29.4309 -1.37168 -0.0839207)
(29.6094 -1.51246 -0.148448)
(30.4201 -2.04211 -0.1742)
(31.6786 -2.19626 -0.185008)
(33.0599 -1.85716 -0.189426)
(34.0579 -0.830454 -0.188969)
(33.4807 1.20865 -0.181943)
(27.4933 4.04399 -0.161521)
(2.64543 0.554873 9.24281)
(4.53211 0.976781 5.90972)
(5.43053 0.893852 2.71141)
(6.07183 0.648132 0.272599)
(6.66232 0.48464 -1.40291)
(7.26368 0.529149 -2.34626)
(7.97789 0.794259 -2.5293)
(9.21037 1.10022 -1.78533)
(1.68714 0.492532 8.26593)
(3.0433 0.959511 6.93059)
(3.55012 1.09009 5.08951)
(3.81306 0.934494 3.53868)
(4.05 0.698308 2.46383)
(4.371 0.521541 1.86335)
(4.94436 0.44382 1.66319)
(6.39123 0.307347 1.53481)
(1.29351 0.393155 7.58623)
(2.52117 0.758626 7.15655)
(3.01084 0.989235 6.04395)
(3.21496 0.912845 4.98072)
(3.35507 0.688228 4.25104)
(3.57046 0.449842 3.86948)
(4.04626 0.251994 3.77026)
(5.39506 0.00727631 3.65104)
(1.21826 0.377522 6.65669)
(2.50702 0.662495 6.53299)
(3.1097 0.916504 5.67858)
(3.37102 0.873188 4.81085)
(3.51965 0.66423 4.20895)
(3.71585 0.405485 3.87311)
(4.14435 0.127979 3.72207)
(5.3578 -0.260703 3.6262)
(-3.89523 0.384587 0.307691)
(-3.00433 0.674546 0.552715)
(-2.03898 0.885122 0.571479)
(-1.29076 0.887951 0.53496)
(-0.729755 0.768702 0.546879)
(-0.173927 0.5958 0.648158)
(0.794099 0.307942 0.849749)
(3.63478 -0.914639 1.10283)
(-4.49574 0.270883 -0.0487759)
(-4.3292 0.453407 -0.0719206)
(-3.98717 0.65094 -0.137586)
(-3.60877 0.729545 -0.191942)
(-3.23436 0.725299 -0.189509)
(-2.77774 0.687122 -0.121467)
(-1.85899 0.564425 -0.00527975)
(1.09388 -0.479948 0.11312)
(-4.82892 0.225964 -0.115014)
(-4.84367 0.349227 -0.178093)
(-4.68297 0.535989 -0.215498)
(-4.42136 0.657407 -0.229345)
(-4.08761 0.726297 -0.202334)
(-3.6065 0.772336 -0.136365)
(-2.61764 0.729992 -0.0592593)
(0.169781 -0.140548 -0.0320252)
(-5.05993 0.212416 -0.112044)
(-5.12276 0.305224 -0.174325)
(-5.03502 0.487339 -0.192247)
(-4.82047 0.637077 -0.183728)
(-4.48885 0.755635 -0.14687)
(-3.97212 0.857341 -0.090994)
(-2.93411 0.868927 -0.0444707)
(-0.228825 0.107498 -0.0529713)
(-5.22852 0.209223 -0.0897617)
(-5.3071 0.288674 -0.140392)
(-5.25109 0.471996 -0.147369)
(-5.05466 0.642565 -0.130838)
(-4.71408 0.794844 -0.0960296)
(-4.16712 0.93175 -0.0546717)
(-3.10779 0.974575 -0.0312355)
(-0.473831 0.283254 -0.0592958)
(-5.34307 0.209621 -0.0622787)
(-5.42597 0.284651 -0.0974659)
(-5.38249 0.471863 -0.0988077)
(-5.19129 0.657152 -0.0827286)
(-4.84126 0.830752 -0.0561231)
(-4.27523 0.988058 -0.0295369)
(-3.20984 1.04824 -0.020865)
(-0.637856 0.402087 -0.0519196)
(-5.41303 0.210843 -0.0356658)
(-5.49667 0.285283 -0.0556634)
(-5.45773 0.476424 -0.055105)
(-5.2672 0.671065 -0.0442162)
(-4.9107 0.856882 -0.0281877)
(-4.33492 1.02501 -0.0139156)
(-3.27071 1.09395 -0.0118198)
(-0.743503 0.475157 -0.0357456)
(-5.44495 0.211818 -0.0114592)
(-5.52791 0.28647 -0.0178189)
(-5.49041 0.479706 -0.0174316)
(-5.30001 0.678779 -0.0136918)
(-4.94114 0.870235 -0.00845817)
(-4.36178 1.04343 -0.00403077)
(-3.29681 1.11504 -0.0037086)
(-0.801675 0.509935 -0.0129547)
(10.105 0.62598 -2.54719)
(9.7783 2.49351 -2.133)
(9.89062 3.97512 -1.68363)
(10.0808 5.12739 -1.31936)
(10.2594 5.98089 -1.00618)
(10.4027 6.5819 -0.717331)
(10.5017 6.94854 -0.440309)
(10.545 7.04842 -0.151808)
(7.0523 -1.44736 -0.917516)
(6.17665 -0.473991 -0.803006)
(6.00942 0.560855 -0.623108)
(6.00346 1.41065 -0.492999)
(6.03426 2.03663 -0.387128)
(6.06995 2.47534 -0.28283)
(6.10305 2.75996 -0.172732)
(6.13167 2.92338 -0.0577948)
(5.74047 -3.1679 -0.197317)
(4.67153 -2.4689 -0.217671)
(4.34277 -1.71342 -0.180563)
(4.20712 -1.11072 -0.160432)
(4.13661 -0.679146 -0.142303)
(4.09601 -0.383894 -0.112779)
(4.07344 -0.197655 -0.0697815)
(4.06287 -0.0916945 -0.0224316)
(5.44956 -3.13145 0.232789)
(4.36676 -2.59197 0.0363188)
(3.96586 -2.08685 -0.0360013)
(3.76166 -1.68975 -0.0708433)
(3.63339 -1.41423 -0.0841246)
(3.54822 -1.23249 -0.0763789)
(3.49416 -1.12408 -0.0518442)
(3.46452 -1.07539 -0.0179618)
)
;
        pressure        uniform 0;
        value           nonuniform List<vector> 
192
(
(0.000582621 0.000614831 0.000315884)
(0.00127151 0.00117222 0.000275271)
(0.00237484 0.00171473 0.00018462)
(0.00364332 0.0021066 4.71112e-05)
(0.00506022 0.00237491 -9.55211e-05)
(0.00654931 0.00253253 -0.000228456)
(0.00806273 0.00260938 -0.000339816)
(0.00956911 0.00264538 -0.000426135)
(0.000624126 0.000642831 0.00016012)
(0.00137245 0.00116933 0.00015977)
(0.00243778 0.00171284 0.000106284)
(0.00367788 0.00210818 1.53958e-05)
(0.00505266 0.00237952 -8.55138e-05)
(0.006501 0.00254153 -0.000183132)
(0.00797726 0.00262319 -0.000267616)
(0.0094553 0.00266761 -0.000333586)
(0.000654167 0.000667032 7.71248e-05)
(0.0014165 0.00116695 7.62737e-05)
(0.00247664 0.00169837 4.20594e-05)
(0.00369771 0.00209044 -1.68898e-05)
(0.0050471 0.00236297 -8.5822e-05)
(0.00646828 0.00253052 -0.000154701)
(0.00791927 0.00262099 -0.000216169)
(0.00937661 0.00267879 -0.000265034)
(0.000669211 0.000679376 3.45692e-05)
(0.00143667 0.0011648 2.93261e-05)
(0.00249435 0.00168723 4.61496e-06)
(0.00370493 0.00207451 -3.50797e-05)
(0.00503933 0.00234691 -8.19227e-05)
(0.00644354 0.00251813 -0.000129886)
(0.00787797 0.00261529 -0.000173958)
(0.00932136 0.00268264 -0.000209832)
(0.000676211 0.000684982 1.3663e-05)
(0.00144473 0.00116282 6.03836e-06)
(0.00249991 0.00167993 -1.24956e-05)
(0.00370403 0.00206394 -3.97218e-05)
(0.00502931 0.00233586 -7.15391e-05)
(0.00642284 0.00250916 -0.000104558)
(0.00784626 0.00261045 -0.000135636)
(0.00927933 0.00268374 -0.000161425)
(0.000679384 0.00068732 4.23632e-06)
(0.00144734 0.00116115 -3.12541e-06)
(0.00250012 0.00167545 -1.63497e-05)
(0.00369992 0.00205767 -3.44136e-05)
(0.00501947 0.00232926 -5.52242e-05)
(0.00640622 0.00250367 -7.69568e-05)
(0.00782234 0.00260725 -9.774e-05)
(0.00924813 0.00268395 -0.000115194)
(0.000680759 0.000688188 7.18901e-07)
(0.00144783 0.00115996 -4.43445e-06)
(0.00249874 0.00167289 -1.24299e-05)
(0.00369578 0.00205425 -2.28506e-05)
(0.00501184 0.00232571 -3.47196e-05)
(0.00639449 0.00250068 -4.71477e-05)
(0.00780607 0.00260543 -5.91426e-05)
(0.00922713 0.00268394 -6.92809e-05)
(0.000681252 0.000688451 -2.73076e-08)
(0.00144774 0.00115934 -1.86272e-06)
(0.00249764 0.00167172 -4.54235e-06)
(0.0036933 0.00205276 -7.95799e-06)
(0.00500769 0.00232418 -1.18253e-05)
(0.00638838 0.00249939 -1.58794e-05)
(0.00779774 0.00260461 -1.98083e-05)
(0.00921642 0.00268382 -2.31366e-05)
(0.000239798 0.000335802 0.000475847)
(0.00106903 0.000689527 0.000277575)
(0.0021796 0.0010963 0.000216468)
(0.00350445 0.00138976 8.04613e-05)
(0.0049738 0.00160003 -4.95936e-05)
(0.00651141 0.00173357 -0.000170747)
(0.00805945 0.00180788 -0.000270569)
(0.00958919 0.00184503 -0.000356268)
(4.98191e-05 9.17168e-05 0.000127466)
(0.000817788 0.000177413 9.39229e-05)
(0.00193418 0.000313085 4.19567e-05)
(0.00328303 0.000403172 -1.78611e-05)
(0.0047734 0.000459453 -7.62452e-05)
(0.00632932 0.000485545 -0.000131424)
(0.00789092 0.000488402 -0.000183509)
(0.00941717 0.000481962 -0.000239371)
(3.29521e-05 -0.000134745 -0.000160408)
(0.00077628 -0.000224442 -0.000168938)
(0.00187726 -0.000373088 -0.000167551)
(0.00321665 -0.000495573 -0.000151898)
(0.00469974 -0.000603065 -0.000134493)
(0.00625089 -0.00069258 -0.00012035)
(0.00780865 -0.000765262 -0.000114767)
(0.00932426 -0.000820955 -0.000117073)
(0.000184203 -0.000400941 -0.000511235)
(0.000935577 -0.000743377 -0.000379779)
(0.00199968 -0.00116552 -0.000369528)
(0.00329325 -0.00149211 -0.000279737)
(0.00473841 -0.00175009 -0.000191367)
(0.00625967 -0.00193895 -0.000109428)
(0.00779639 -0.00207167 -4.81878e-05)
(0.00930206 -0.00216624 -1.5472e-05)
(0.000491428 -0.000617856 -0.000361379)
(0.00111415 -0.00120093 -0.000393865)
(0.00215899 -0.00177788 -0.000358218)
(0.00338636 -0.00220484 -0.000266561)
(0.00477204 -0.00251604 -0.000164407)
(0.00624022 -0.00272025 -6.83184e-05)
(0.00773733 -0.00284059 6.81972e-06)
(0.00922161 -0.00290401 4.59144e-05)
(0.000515952 -0.000640481 -0.000196105)
(0.00121581 -0.00119292 -0.000247754)
(0.00222349 -0.00176223 -0.000237894)
(0.00342184 -0.00218647 -0.000185182)
(0.00476452 -0.00249146 -0.000119127)
(0.00619053 -0.00268945 -5.52564e-05)
(0.0076497 -0.00280373 -6.45823e-06)
(0.00910744 -0.00286476 1.4993e-05)
(0.000534552 -0.000662089 -0.000104833)
(0.00125168 -0.00118612 -0.000144475)
(0.00225562 -0.00173575 -0.000145433)
(0.00343518 -0.00214885 -0.000118835)
(0.00475205 -0.00244602 -8.03774e-05)
(0.00615025 -0.00263978 -4.19561e-05)
(0.00758345 -0.00275267 -1.33551e-05)
(0.00901844 -0.00281411 -5.08813e-06)
(0.000541065 -0.000670787 -5.48154e-05)
(0.00126264 -0.00117807 -8.1859e-05)
(0.00226407 -0.0017128 -8.53956e-05)
(0.00343347 -0.00211417 -7.23765e-05)
(0.00473538 -0.0024036 -5.13632e-05)
(0.00611642 -0.00259303 -2.97804e-05)
(0.00753231 -0.00270417 -1.46247e-05)
(0.00895075 -0.00276514 -1.42168e-05)
(0.000541888 -0.000672661 -2.78372e-05)
(0.00126317 -0.00117009 -4.5203e-05)
(0.00226161 -0.00169476 -4.86164e-05)
(0.00342476 -0.0020873 -4.24037e-05)
(0.00471775 -0.00237022 -3.13186e-05)
(0.00608814 -0.00255552 -1.98316e-05)
(0.00749253 -0.00266442 -1.26147e-05)
(0.00889897 -0.00272408 -1.57627e-05)
(0.000540751 -0.000671875 -1.35158e-05)
(0.00126028 -0.00116336 -2.39794e-05)
(0.0022558 -0.00168154 -2.65024e-05)
(0.00341476 -0.00206814 -2.36445e-05)
(0.00470221 -0.00234629 -1.80223e-05)
(0.00606594 -0.00252823 -1.22515e-05)
(0.00746279 -0.00263498 -9.2578e-06)
(0.00886089 -0.0026931 -1.31137e-05)
(0.00053939 -0.000670561 -5.94726e-06)
(0.0012572 -0.0011586 -1.14718e-05)
(0.0022505 -0.00167289 -1.29678e-05)
(0.00340675 -0.00205586 -1.17642e-05)
(0.00469086 -0.00233098 -9.1721e-06)
(0.00605061 -0.00251062 -6.56513e-06)
(0.00744283 -0.00261574 -5.54042e-06)
(0.00883564 -0.00267262 -8.41871e-06)
(0.000538568 -0.00066971 -1.65666e-06)
(0.0012554 -0.00115614 -3.37527e-06)
(0.0022475 -0.0016686 -3.86705e-06)
(0.0034024 -0.00204987 -3.54062e-06)
(0.00468491 -0.00232352 -2.7942e-06)
(0.00604277 -0.002502 -2.05618e-06)
(0.00743277 -0.00260628 -1.83282e-06)
(0.00882299 -0.00266247 -2.87833e-06)
(0.0102496 0.00188479 -0.000355384)
(0.0101291 0.00191016 -0.000290463)
(0.0100518 0.00193156 -0.000235811)
(0.00999429 0.00194289 -0.000187694)
(0.0099492 0.00194994 -0.000144333)
(0.00991501 0.00195433 -0.000102827)
(0.00989181 0.00195699 -6.17567e-05)
(0.00987997 0.00195813 -2.06081e-05)
(0.0100447 0.000513204 -0.000233293)
(0.00993338 0.000536582 -0.000199319)
(0.00985547 0.000558254 -0.000170597)
(0.00979529 0.00057664 -0.000140949)
(0.00974732 0.000591294 -0.000110644)
(0.00971071 0.000602162 -7.9623e-05)
(0.00968586 0.000609356 -4.80181e-05)
(0.00967327 0.000612961 -1.60434e-05)
(0.00994856 -0.000830439 -0.000124132)
(0.00983895 -0.000803895 -0.000123778)
(0.00975543 -0.000775602 -0.000116724)
(0.00968951 -0.000748153 -0.000102413)
(0.00963744 -0.000724613 -8.29609e-05)
(0.00959814 -0.000706505 -6.06136e-05)