/*--------------------------------*- C++ -*----------------------------------*\
| =========                 |                                                 |
| \\      /  F ield         | foam-extend: Open Source CFD                    |
|  \\    /   O peration     | Version:     3.1                                |
|   \\  /    A nd           | Web:         http://www.extend-project.de       |
|    \\/     M anipulation  |                                                 |
\*---------------------------------------------------------------------------*/
FoamFile
{
    version     2.0;
    format      ascii;
    class       volSymmTensorField;
    location    "4";
    object      epsilon;
}
// * * * * * * * * * * * * * * * * * * * * * * * * * * * * * * * * * * * * * //

dimensions      [0 0 0 0 0 0 0];

internalField   nonuniform List<symmTensor> 
256
(
(-0.00666093 0.00868695 -0.000378968 0.0253957 0.00460184 -0.00268564)
(-0.00222138 0.00735741 -0.00116373 0.00602068 0.00157158 -0.000976666)
(0.00116825 0.00686173 -0.00119036 -0.0069388 -0.00231663 0.00119564)
(0.0052625 0.00734729 -0.000481407 -0.0251686 -0.0056389 0.00293076)
(-0.0117733 0.0036315 -0.000424276 0.0163714 -0.00144437 -0.00402254)
(-0.00471763 0.0095574 -0.00182647 0.00624942 -0.00065667 -0.00142504)
(0.00214246 0.00934733 -0.0018916 -0.00523949 0.000327225 0.00195851)
(0.00907741 0.00347379 -0.000658036 -0.0154315 0.000986761 0.00471415)
(-0.0099284 0.00449052 -0.000142467 0.0152633 -0.000791282 -0.00228005)
(-0.00486731 0.0093034 -0.00122881 0.00567115 -0.000334515 -0.000704274)
(0.00152897 0.00929556 -0.00127828 -0.00425035 2.39367e-05 0.00146816)
(0.00675068 0.00450856 -0.000385408 -0.0139171 0.000433338 0.00331612)
(-0.00859584 0.00398326 -0.000131771 0.0114221 -0.00114159 -0.00124351)
(-0.0044358 0.00855254 -0.000992315 0.00448898 -0.000401088 -0.000244339)
(0.000821287 0.00859161 -0.00102914 -0.00296663 0.000155214 0.0012583)
(0.0050949 0.00405629 -0.000397651 -0.00989377 0.000874082 0.00255595)
(-0.00708147 0.00349836 -7.50449e-05 0.00820995 -0.00105485 -9.13588e-05)
(-0.00393957 0.00743008 -0.000778657 0.0033915 -0.000347038 0.000230976)
(0.000226373 0.0075037 -0.000808604 -0.00190435 0.000153536 0.000970021)
(0.00339085 0.00362489 -0.000345038 -0.00660268 0.000866187 0.0016077)
(-0.00590943 0.00273496 -8.52104e-05 0.00544828 -0.000926934 0.00084935)
(-0.0035188 0.00601634 -0.000666157 0.00242648 -0.000305711 0.000622272)
(-0.000229434 0.00614319 -0.000675313 -0.00104149 0.000137582 0.000727173)
(0.00207499 0.00297166 -0.000332284 -0.00380106 0.000805471 0.00080434)
(-0.00518739 0.00179686 -0.000166548 0.00359794 -0.000774243 0.00164024)
(-0.00332235 0.00442723 -0.000636209 0.0017252 -0.000304665 0.00097513)
(-0.000573015 0.00456201 -0.000609091 -0.00039115 7.90912e-05 0.000519952)
(0.00122491 0.00217969 -0.000350261 -0.0017946 0.000632183 0.000115498)
(-0.00552049 0.00103254 -0.000251879 0.00262938 -0.000451901 0.00228063)
(-0.00407047 0.00254621 -0.000591496 0.00157347 -0.000214787 0.00128576)
(-0.00059023 0.00245614 -0.000573943 0.000153406 -2.98124e-05 0.000349439)
(0.00117597 0.00107627 -0.000417788 -0.000707516 0.000214842 -0.000436491)
(-0.00671262 0.00994386 -0.000231758 0.0247013 0.00285827 -0.00178453)
(-0.00204989 0.00893722 -0.000933292 0.00587401 0.000887298 -0.000664145)
(0.00107445 0.0085108 -0.00102198 -0.00598993 -0.00166336 0.000800418)
(0.00526626 0.00866328 -0.000444765 -0.0236806 -0.00388943 0.00203955)
(-0.0118113 0.00376403 -0.000318206 0.0178896 -0.000532487 -0.00317913)
(-0.00433896 0.00991631 -0.00170701 0.00700261 -0.000381587 -0.0011526)
(0.00197424 0.00980149 -0.001896 -0.00600986 -0.000183784 0.00155518)
(0.00910638 0.00376014 -0.00077007 -0.0170231 -0.000147727 0.00389892)
(-0.00974871 0.00396282 -9.06997e-05 0.0153909 -0.00124667 -0.00226148)
(-0.00436644 0.00856212 -0.00132414 0.00579185 -0.000531158 -0.000760198)
(0.00139756 0.00858289 -0.00152788 -0.00435408 0.000164139 0.00138371)
(0.00667249 0.00399028 -0.000612968 -0.0140152 0.000814689 0.00331171)
(-0.00826407 0.0033274 8.27754e-05 0.0115678 -0.00156275 -0.00114384)
(-0.00387223 0.00744267 -0.000911108 0.00458635 -0.000569066 -0.000318086)
(0.000698046 0.00748899 -0.00112603 -0.00299062 0.00033395 0.00111176)
(0.00488363 0.00339329 -0.000497229 -0.00995364 0.0013017 0.00242078)
(-0.00673981 0.00276861 0.000240016 0.00818008 -0.00156783 -2.60851e-05)
(-0.00337673 0.00621747 -0.000581224 0.00341996 -0.000536682 0.000110755)
(0.000133215 0.00628854 -0.000801948 -0.00180327 0.000389507 0.000829192)
(0.00317072 0.00288176 -0.000366615 -0.00643179 0.00143451 0.00147608)
(-0.00557283 0.00206988 0.000321377 0.00538052 -0.00139147 0.000951027)
(-0.00297445 0.00490813 -0.00036195 0.00243429 -0.000474107 0.000493336)
(-0.000306595 0.00502678 -0.000569332 -0.000871026 0.000353976 0.000585652)
(0.00184238 0.00229675 -0.000272321 -0.00353476 0.00134043 0.000633122)
(-0.00487155 0.00124236 0.000315681 0.00350406 -0.0010962 0.00175459)
(-0.00281534 0.00354803 -0.000256877 0.00169533 -0.000415945 0.000835015)
(-0.000635041 0.00368357 -0.00043597 -0.00018429 0.000229938 0.000405449)
(0.00099527 0.0016556 -0.000219093 -0.00145326 0.00103725 -4.30902e-05)
(-0.00521207 0.000768835 0.00025723 0.00257005 -0.00062981 0.00239237)
(-0.00361023 0.0021008 -0.000228772 0.00154473 -0.00028194 0.00113443)
(-0.00068435 0.00200784 -0.000440191 0.000293663 4.63011e-05 0.00027138)
(0.000922829 0.000836999 -0.000294363 -0.000467145 0.000474108 -0.000555668)
(-0.00704852 0.0104872 -0.000152972 0.0249515 0.00142826 -0.00102914)
(-0.00218462 0.00936943 -0.000597204 0.00597511 0.00036102 -0.000362225)
(0.00113784 0.00890636 -0.000671655 -0.00580035 -0.00105041 0.00049732)
(0.00549239 0.00907571 -0.000311304 -0.0236708 -0.00225863 0.00123849)
(-0.0124509 0.00385349 -0.000256955 0.0175587 -0.000355389 -0.00194601)
(-0.00463567 0.0101167 -0.00115536 0.00706283 -0.000311319 -0.000642086)
(0.00212703 0.0100073 -0.00131734 -0.00583 -0.000238303 0.00104107)
(0.00958187 0.00385074 -0.000598477 -0.0164919 -0.00022938 0.00252215)
(-0.0102369 0.00392146 -0.000136696 0.0153177 -0.000957553 -0.0015115)
(-0.00462744 0.00851653 -0.000979885 0.00588447 -0.000455071 -0.000410819)
(0.00152118 0.00853522 -0.0011583 -0.00425572 8.31686e-05 0.00104197)
(0.00702765 0.00391535 -0.000525741 -0.0137368 0.000566064 0.00236238)
(-0.00856447 0.00321755 3.52641e-06 0.0115677 -0.00126527 -0.000774088)
(-0.00404436 0.00717473 -0.000690344 0.004664 -0.000502866 -8.88832e-05)
(0.000726811 0.0072173 -0.000875816 -0.00288369 0.000274985 0.000913089)
(0.00503494 0.00326035 -0.000412588 -0.00975295 0.00103623 0.00184146)
(-0.00693167 0.00260065 0.000131442 0.00824969 -0.00131817 4.69287e-05)
(-0.00349742 0.00585376 -0.000412543 0.00350469 -0.000482288 0.00025232)
(9.8601e-05 0.00592764 -0.000599729 -0.00170406 0.000357358 0.000743886)
(0.00319247 0.00270881 -0.000292718 -0.00628804 0.00121733 0.00119932)
(-0.00568277 0.00188215 0.000212044 0.00551377 -0.00119523 0.00080985)
(-0.00305448 0.00453041 -0.000213059 0.00251982 -0.000425348 0.000573425)
(-0.000390686 0.00466666 -0.000388838 -0.000778841 0.000345679 0.000592221)
(0.00175605 0.00213692 -0.000195391 -0.00344219 0.00117703 0.000596567)
(-0.00491049 0.00104849 0.000225853 0.00371036 -0.000942522 0.00145371)
(-0.00286249 0.00323032 -0.000118459 0.0017788 -0.000354875 0.000865007)
(-0.00076287 0.00340126 -0.000277678 -0.000109129 0.00024236 0.000493658)
(0.000817059 0.00154004 -0.000144033 -0.00140892 0.000936384 0.00012196)
(-0.00518588 0.000675581 0.000172407 0.00278177 -0.000508252 0.00193165)
(-0.00365708 0.00194162 -0.000143813 0.00163818 -0.000213461 0.00110659)
(-0.00090677 0.00186915 -0.00034616 0.000355621 6.20829e-05 0.000461616)
(0.000636801 0.0007938 -0.000241835 -0.000445364 0.000421881 -0.000156416)
(-0.00729379 0.0107048 -8.2386e-05 0.0251001 0.000616557 -0.000536456)
(-0.00230274 0.00947305 -0.000355923 0.00603568 8.69681e-05 -0.000171203)
(0.00117109 0.00896686 -0.000406431 -0.00569602 -0.000652539 0.000312363)
(0.00565358 0.00918141 -0.000193859 -0.0236317 -0.00125699 0.000722093)
(-0.012927 0.0038871 -0.000149372 0.0172636 -0.000299987 -0.00102244)
(-0.00490017 0.0102223 -0.000721488 0.0070747 -0.000257592 -0.000283007)
(0.00219835 0.0101039 -0.000834077 -0.00561681 -0.000206942 0.00069303)
(0.00990833 0.00387965 -0.000394755 -0.016013 -0.000167068 0.00153113)
(-0.010666 0.00395398 -9.3804e-05 0.0151689 -0.000682879 -0.000772048)
(-0.00490259 0.00857985 -0.000658595 0.00592951 -0.000348762 -0.000113925)
(0.0015723 0.00859657 -0.000783779 -0.00407902 2.58546e-05 0.000764011)
(0.00730884 0.00393719 -0.000372545 -0.0133694 0.000363177 0.00153536)
(-0.00890123 0.0032213 -7.20085e-06 0.0115269 -0.000904639 -0.000292705)
(-0.00428207 0.00717331 -0.000485156 0.00473025 -0.000381894 0.000128241)
(0.000724592 0.0072164 -0.000611942 -0.00273822 0.000183131 0.00073638)
(0.00521159 0.00326035 -0.00029853 -0.00949318 0.000714808 0.00127794)
(-0.00716912 0.00257751 8.14443e-05 0.0083081 -0.000964688 0.000279254)
(-0.00369725 0.0058007 -0.000294557 0.00359232 -0.000369016 0.000395579)
(4.67682e-05 0.00588185 -0.000419198 -0.00159193 0.000262847 0.000668796)
(0.00325585 0.00269523 -0.000209485 -0.00612723 0.000881209 0.000905264)
(-0.00583735 0.00183565 0.00014224 0.00565526 -0.000897487 0.000839269)
(-0.00321976 0.00444728 -0.000150273 0.0026214 -0.00032944 0.000658295)
(-0.000482954 0.00460214 -0.00026538 -0.000697276 0.000267526 0.000607285)
(0.00171881 0.00212193 -0.000133968 -0.00336409 0.000881818 0.000536275)
(-0.00499153 0.000982945 0.000154013 0.00392629 -0.000728052 0.00132812)
(-0.0030005 0.00314649 -9.13919e-05 0.00188874 -0.000276107 0.000905883)
(-0.000896952 0.00334533 -0.000197095 -5.29777e-05 0.000194588 0.000588678)
(0.000684657 0.00153324 -9.87068e-05 -0.00138767 0.000721211 0.000256633)
(-0.00521274 0.000646793 9.72326e-05 0.00302319 -0.0004135 0.00170352)
(-0.00380374 0.00189616 -0.000156206 0.00176749 -0.000170743 0.00112736)
(-0.00112386 0.00183358 -0.000298936 0.000401814 5.16377e-05 0.000643251)
(0.000402502 0.000793144 -0.00019635 -0.00046034 0.000331101 0.000153788)
(-0.00744795 0.0107823 -3.79373e-05 0.0251615 0.000208054 -0.000250599)
(-0.00238101 0.00946637 -0.000200961 0.00607453 -3.27386e-05 -6.1116e-05)
(0.00118136 0.00892739 -0.000233258 -0.00561377 -0.000399893 0.00020127)
(0.00573991 0.00917567 -0.00011344 -0.0235341 -0.000680274 0.000416732)
(-0.0132419 0.00389115 -7.25649e-05 0.0170898 -0.000255059 -0.000451547)
(-0.00507912 0.0102558 -0.000424711 0.00709115 -0.000204637 -6.40716e-05)
(0.00221729 0.0101301 -0.000498656 -0.00544643 -0.000158761 0.000473281)
(0.0100903 0.00388312 -0.000241701 -0.0156851 -0.000102357 0.00091641)
(-0.0109787 0.00397821 -4.86333e-05 0.0150598 -0.00047755 -0.000257829)
(-0.00509997 0.00863415 -0.000412456 0.00596494 -0.000253539 8.5049e-05)
(0.00157759 0.00865218 -0.00049569 -0.00391793 -2.27569e-06 0.000571258)
(0.00747815 0.00396055 -0.000240823 -0.0130734 0.000231205 0.000974035)
(-0.00917324 0.00324486 2.98748e-07 0.0114882 -0.000615604 8.55189e-05)
(-0.0044649 0.00722445 -0.000316913 0.00478486 -0.000270721 0.000283984)
(0.000703087 0.00727125 -0.000399536 -0.0026019 0.000111051 0.000602102)
(0.00532654 0.00328817 -0.000197541 -0.0092624 0.000466349 0.000860659)
(-0.00738318 0.00259211 5.50726e-05 0.00834361 -0.000661934 0.000500402)
(-0.00385839 0.00583518 -0.000198975 0.00366439 -0.000261921 0.000504675)
(-2.64169e-06 0.00592412 -0.000278434 -0.00148609 0.000174206 0.000603313)
(0.00330224 0.00272234 -0.000139652 -0.0059735 0.00059186 0.00066432)
(-0.00599586 0.0018352 9.37173e-05 0.0057532 -0.000629368 0.000921139)
(-0.00335841 0.00446131 -0.000107617 0.00270477 -0.000237523 0.00072873)
(-0.000557672 0.00463019 -0.000179813 -0.000621724 0.000183791 0.000608531)
(0.00169707 0.0021469 -8.98256e-05 -0.00327899 0.000607724 0.000463689)
(-0.00509972 0.000965436 9.69624e-05 0.00407525 -0.000525851 0.00130313)
(-0.00312297 0.00314582 -8.06064e-05 0.00197789 -0.000203213 0.00094864)
(-0.00100081 0.00336164 -0.00014716 -1.34766e-06 0.000134969 0.00065027)
(0.000596379 0.00155593 -7.17146e-05 -0.00135013 0.000506948 0.000328254)
(-0.00529036 0.000641931 4.01962e-05 0.0031891 -0.000308024 0.00160036)
(-0.00393958 0.00189545 -0.000159681 0.00187005 -0.00012858 0.00115308)
(-0.00128406 0.00183303 -0.000253461 0.000447229 3.23897e-05 0.000762182)
(0.00024717 0.000802967 -0.000158952 -0.00045321 0.000232878 0.000345627)
(-0.0075376 0.0108032 -1.36998e-05 0.0251805 3.06233e-05 -9.17155e-05)
(-0.0024297 0.00943152 -0.000106744 0.00610154 -6.61757e-05 -9.93627e-07)
(0.0011815 0.00886978 -0.000126425 -0.00554911 -0.000236086 0.000135694)
(0.0057795 0.00913885 -6.24152e-05 -0.0234277 -0.000353636 0.000242585)
(-0.0134336 0.00388257 -2.74433e-05 0.0169973 -0.000196779 -0.000121093)
(-0.00519249 0.0102533 -0.000234157 0.00711217 -0.000149108 6.01401e-05)
(0.00221492 0.0101227 -0.0002803 -0.00532319 -0.000110071 0.000339437)
(0.0101798 0.00387639 -0.000138093 -0.0154718 -5.62589e-05 0.000555375)
(-0.011182 0.00398916 -1.7586e-05 0.0149985 -0.000318228 6.17796e-05)
(-0.00522936 0.0086631 -0.000239565 0.00599664 -0.000172287 0.000205173)
(0.00156661 0.00868319 -0.00029214 -0.00379599 -1.15835e-05 0.000446951)
(0.00756842 0.00397387 -0.000143636 -0.0128676 0.000143115 0.000626575)
(-0.00936031 0.00326312 8.30179e-06 0.0114656 -0.000396672 0.000339478)
(-0.00458897 0.00726822 -0.00019076 0.00482788 -0.00017914 0.000383045)
(0.000678796 0.00731886 -0.000242275 -0.00249508 6.26401e-05 0.000509937)
(0.00538942 0.00331232 -0.000120411 -0.00909092 0.000288547 0.000587659)
(-0.00753959 0.00260928 3.94104e-05 0.00836438 -0.000426454 0.00066805)
(-0.00397066 0.00587829 -0.000123819 0.00371751 -0.000172956 0.00057826)
(-4.14639e-05 0.0059735 -0.000172627 -0.00140096 0.000106114 0.000553421)
(0.00332704 0.00275036 -8.63282e-05 -0.00584943 0.000371619 0.000494005)
(-0.00611968 0.00184403 6.12163e-05 0.00581157 -0.000411774 0.00100764)
(-0.00345723 0.00449351 -7.20687e-05 0.00276361 -0.000159018 0.000780543)
(-0.000610674 0.00467217 -0.000115911 -0.000559826 0.000114581 0.000602508)
(0.00168113 0.00217422 -5.70816e-05 -0.00320138 0.000387636 0.000398608)
(-0.00519312 0.000961334 5.91934e-05 0.0041643 -0.00035219 0.00132597)
(-0.00321257 0.0031637 -6.47881e-05 0.00203896 -0.000138793 0.000984742)
(-0.00107153 0.00339022 -0.000105319 4.15516e-05 8.36514e-05 0.000684377)
(0.000539761 0.00157904 -5.02914e-05 -0.00130663 0.000327236 0.000355902)
(-0.00536842 0.000641255 1.29695e-05 0.00329311 -0.000212615 0.00157896)
(-0.00404134 0.00190345 -0.000134753 0.00194144 -9.01357e-05 0.00117926)
(-0.00138924 0.00183934 -0.000193871 0.000486168 1.69455e-05 0.000829038)
(0.000150855 0.000811047 -0.000117766 -0.000433222 0.000150127 0.00044301)
(-0.00758601 0.0108049 -3.28225e-06 0.0251831 -2.16958e-05 -9.05197e-06)
(-0.0024578 0.00939969 -5.05443e-05 0.00611937 -5.40227e-05 2.97172e-05)
(0.00117865 0.00882366 -6.11324e-05 -0.00550436 -0.000123942 9.91978e-05)
(0.0057952 0.00910416 -3.05525e-05 -0.023344 -0.000166249 0.000149097)
(-0.0135409 0.00387232 -7.08118e-06 0.0169518 -0.000124263 5.55422e-05)
(-0.00525877 0.0102404 -0.000114317 0.00713066 -9.07929e-05 0.00012537)
(0.00220713 0.0101069 -0.00013958 -0.00524351 -6.43239e-05 0.000263326)
(0.0102192 0.00386829 -6.95897e-05 -0.0153432 -2.68706e-05 0.000357627)
(-0.0113015 0.00399228 -3.3311e-06 0.0149692 -0.000183552 0.000240555)
(-0.00530666 0.00867445 -0.00012179 0.00602113 -0.000100296 0.000271127)
(0.00155392 0.00869625 -0.000150851 -0.00371604 -1.0388e-05 0.000373659)
(0.00761208 0.00397957 -7.47038e-05 -0.01274 7.85288e-05 0.000429753)
(-0.00947429 0.0032733 8.8811e-06 0.0114556 -0.000222775 0.000488804)
(-0.00466457 0.0072945 -9.9658e-05 0.00485796 -0.000102222 0.000439746)
(0.000659769 0.00734795 -0.000127933 -0.00242371 3.1206e-05 0.000453498)
(0.00542003 0.00332725 -6.37084e-05 -0.00898087 0.000156913 0.000427448)
(-0.00763846 0.00262071 2.4357e-05 0.00837639 -0.00023883 0.000774482)
(-0.00404013 0.00590835 -6.64383e-05 0.00375214 -9.84462e-05 0.000622649)
(-6.76233e-05 0.00600773 -9.30075e-05 -0.00134294 5.61682e-05 0.000520866)
(0.00333792 0.00276933 -4.63254e-05 -0.00576526 0.000203328 0.000388659)
(-0.0062012 0.00185115 3.48884e-05 0.00584278 -0.000232831 0.00107202)
(-0.00351919 0.00451846 -4.11872e-05 0.00280013 -9.14036e-05 0.000814205)
(-0.000644085 0.00470319 -6.49065e-05 -0.000516873 6.14947e-05 0.000595761)
(0.00166996 0.00219323 -3.16099e-05 -0.0031444 0.00021384 0.000352201)
(-0.00525826 0.00096034 3.15043e-05 0.00421174 -0.000202397 0.00135646)
(-0.00326957 0.00317881 -4.19483e-05 0.00207571 -8.09461e-05 0.00101053)
(-0.0011145 0.00341154 -6.39272e-05 7.17999e-05 4.44095e-05 0.000701209)
(0.000506603 0.00159476 -3.02461e-05 -0.00127078 0.000181625 0.000362365)
(-0.00542688 0.000641731 1.36914e-06 0.00335009 -0.000125199 0.00158597)
(-0.00410702 0.00191062 -8.87159e-05 0.00198469 -5.3493e-05 0.00119944)
(-0.00145161 0.00184433 -0.000121498 0.000514409 7.49138e-06 0.000862625)
(9.66088e-05 0.000815812 -7.26711e-05 -0.000412297 8.30903e-05 0.000486026)
(-0.00760698 0.0108029 -3.50866e-07 0.025182 -1.32428e-05 2.5914e-05)
(-0.00247063 0.00938204 -1.47346e-05 0.00612832 -2.01347e-05 4.25188e-05)
(0.00117648 0.00879914 -1.80672e-05 -0.00548151 -3.85591e-05 8.28896e-05)
(0.00580016 0.00908462 -9.09374e-06 -0.0232991 -4.84034e-05 0.000108401)
(-0.0135887 0.00386602 -9.25699e-07 0.0169333 -4.24587e-05 0.000131488)
(-0.00528927 0.010231 -3.39394e-05 0.00714123 -3.04971e-05 0.000153041)
(0.00220167 0.0100961 -4.19651e-05 -0.0052044 -2.11266e-05 0.00022886)
(0.0102334 0.00386333 -2.10572e-05 -0.0152824 -7.81276e-06 0.000270466)
(-0.0113562 0.00399253 1.18609e-08 0.0149581 -6.01212e-05 0.000319486)
(-0.00534267 0.00867754 -3.70103e-05 0.00603446 -3.29744e-05 0.000299902)
(0.00154626 0.00870026 -4.62889e-05 -0.00367666 -3.98538e-06 0.000339769)
(0.00762931 0.00398136 -2.30002e-05 -0.0126793 2.50886e-05 0.000341278)
(-0.00952755 0.00327751 3.55088e-06 0.0114525 -7.19503e-05 0.000556675)
(-0.00470018 0.00730604 -3.07617e-05 0.00487347 -3.32633e-05 0.000465183)
(0.000649593 0.00736092 -3.97597e-05 -0.00238827 9.37849e-06 0.000426865)
(0.0054321 0.003334 -1.981e-05 -0.00892757 4.97812e-05 0.000353978)
(-0.00768557 0.002626 8.1811e-06 0.00838202 -7.69833e-05 0.000825036)
(-0.0040731 0.00592278 -2.0839e-05 0.00376919 -3.19886e-05 0.000643293)
(-8.06988e-05 0.00602418 -2.92628e-05 -0.00131383 1.74784e-05 0.000504973)
(0.00334166 0.00277841 -1.45383e-05 -0.00572324 6.4632e-05 0.000338853)
(-0.00624081 0.00185459 1.12371e-05 0.00585608 -7.54089e-05 0.00110517)
(-0.0035488 0.00453095 -1.34213e-05 0.00281747 -2.98533e-05 0.000830621)
(-0.00066016 0.00471853 -2.09171e-05 -0.000495067 1.92641e-05 0.000591705)
(0.00166417 0.00220247 -1.0126e-05 -0.00311474 6.82039e-05 0.00032846)
(-0.00529061 0.000959944 9.66292e-06 0.00423157 -6.61691e-05 0.00137532)
(-0.00329695 0.00318654 -1.45746e-05 0.00209274 -2.66432e-05 0.00102374)
(-0.00113467 0.00342197 -2.15185e-05 8.73553e-05 1.38154e-05 0.00070788)
(0.000491344 0.00160225 -1.01487e-05 -0.00125104 5.80756e-05 0.000362164)
(-0.00545644 0.000642323 -8.70507e-07 0.00337423 -4.17247e-05 0.00159497)
(-0.00413863 0.00191464 -3.09195e-05 0.00200487 -1.77871e-05 0.00121005)
(-0.00148057 0.00184662 -4.14043e-05 0.000529297 2.10534e-06 0.000876069)
(7.22704e-05 0.000817721 -2.46332e-05 -0.00039963 2.6547e-05 0.000501039)
)
;

boundaryField
{
    interface
    {
        type            calculated;
        value           nonuniform List<symmTensor> 
192
(
(-0.0244381 -1.14399e-05 0.000340425 0.0383992 0.00571813 -0.00330229)
(-0.0115234 1.08571e-05 0.000581382 0.0207069 -0.00173731 -0.00493353)
(-0.0124138 3.46068e-05 0.000701814 0.0199042 -0.00107369 -0.00279023)
(-0.00975618 3.90864e-05 0.000770315 0.0146281 -0.00160492 -0.00151095)
(-0.00790488 2.7336e-06 0.000811048 0.0103631 -0.00151439 -6.4047e-05)
(-0.00628541 -8.92462e-05 0.000824532 0.006699 -0.0013335 0.0011129)
(-0.00541006 -0.000266627 0.000799008 0.00437393 -0.00106091 0.00207153)
(-0.00493438 -0.000540267 0.000701346 0.00298544 -0.000586525 0.00281261)
(-0.0248537 1.41847e-05 0.000248498 0.0376906 0.00359628 -0.00218577)
(-0.0134049 4.77427e-05 0.000427598 0.0222409 -0.000575781 -0.00388629)
(-0.0126624 7.70835e-05 0.000515539 0.0199297 -0.00161223 -0.00273478)
(-0.0102141 7.45141e-05 0.000564327 0.0147612 -0.00210411 -0.00130293)
(-0.00826764 2.21861e-05 0.000590238 0.0103118 -0.00213987 0.000145829)
(-0.00670899 -9.85022e-05 0.000593788 0.00663614 -0.00190728 0.00140653)
(-0.00585784 -0.000324443 0.000567116 0.00432571 -0.00147193 0.00241761)
(-0.00531116 -0.000647485 0.000491792 0.00296925 -0.000816725 0.00318469)
(-0.0258594 2.20556e-05 0.000180869 0.0381475 0.00181848 -0.00127899)
(-0.0140222 6.10108e-05 0.000309817 0.0215804 -0.000358137 -0.0024369)
(-0.0131478 9.34461e-05 0.000368168 0.0196938 -0.00119022 -0.00191882)
(-0.010483 8.77341e-05 0.000397433 0.0146958 -0.00163945 -0.000994335)
(-0.00835391 2.60723e-05 0.00041132 0.0103692 -0.00173877 4.99931e-05)
(-0.00667892 -0.00011149 0.000410666 0.0068126 -0.00159054 0.00101997)
(-0.00576254 -0.000362895 0.00039188 0.00463868 -0.00124709 0.00182515)
(-0.00502712 -0.000704123 0.000344671 0.00327238 -0.000667236 0.00240296)
(-0.0265135 2.3897e-05 0.00013358 0.0384135 0.000792821 -0.000668228)
(-0.0145164 6.50948e-05 0.000229186 0.0210798 -0.00031548 -0.00129147)
(-0.0136344 9.905e-05 0.000270385 0.019417 -0.000831312 -0.00101024)
(-0.0108533 9.14844e-05 0.000289409 0.0145861 -0.00114693 -0.000429464)
(-0.00859929 2.38722e-05 0.000297732 0.0104073 -0.00124862 0.000279625)
(-0.00682289 -0.000124178 0.000296557 0.00697787 -0.00117502 0.000976486)
(-0.00583712 -0.00039049 0.000284526 0.00492498 -0.000954654 0.00157639)
(-0.00499283 -0.000740329 0.000253665 0.00357861 -0.000543083 0.00202069)
(-0.0268718 2.39728e-05 9.6728e-05 0.0385214 0.000274278 -0.000313867)
(-0.0148456 6.58113e-05 0.000166612 0.0207931 -0.000281969 -0.000580815)
(-0.0139817 0.00010025 0.000196034 0.019227 -0.000577994 -0.000368477)
(-0.011148 9.14647e-05 0.00020892 0.0144946 -0.000771673 3.53879e-05)
(-0.00882368 2.0121e-05 0.000214383 0.0104212 -0.000847104 0.000535245)
(-0.00697945 -0.000134472 0.000213718 0.00708279 -0.000816023 0.00104474)
(-0.00594326 -0.000410205 0.000206436 0.00511024 -0.000685712 0.00150177)
(-0.00501846 -0.000765198 0.000185811 0.00377803 -0.000404445 0.00184391)
(-0.0270578 2.35889e-05 6.57767e-05 0.0385514 4.72276e-05 -0.000117077)
(-0.0150495 6.54365e-05 0.000113739 0.0206384 -0.000224653 -0.000169104)
(-0.0142089 9.98922e-05 0.00013378 0.0191187 -0.000385519 3.26588e-05)
(-0.0113534 9.02851e-05 0.000142327 0.014438 -0.000494908 0.000353233)
(-0.00899257 1.66366e-05 0.000145963 0.0104246 -0.000542606 0.000739957)
(-0.00710975 -0.000142037 0.000145774 0.00714 -0.000531198 0.00114149)
(-0.00604379 -0.000423852 0.000141527 0.00521555 -0.000458121 0.00151417)
(-0.00507635 -0.000782144 0.00012805 0.00389838 -0.000279233 0.00179903)
(-0.0271483 2.32763e-05 3.79868e-05 0.0385518 -2.20403e-05 -1.50045e-05)
(-0.015164 6.49578e-05 6.59416e-05 0.0205594 -0.000144336 5.03471e-05)
(-0.0143422 9.92556e-05 7.75767e-05 0.0190639 -0.000222914 0.000256702)
(-0.0114788 8.91124e-05 8.24683e-05 0.0144088 -0.000277573 0.000540747)
(-0.00910012 1.41081e-05 8.45868e-05 0.0104251 -0.00030314 0.000872068)
(-0.00719708 -0.000147044 8.46057e-05 0.00716788 -0.00029967 0.00121824)
(-0.00611507 -0.000432628 8.21601e-05 0.00526905 -0.000263053 0.00154631)
(-0.00512534 -0.000792544 7.39839e-05 0.00396201 -0.000164648 0.00180091)
(-0.0271841 2.30229e-05 1.22933e-05 0.038547 -1.4886e-05 2.80283e-05)
(-0.0152141 6.45285e-05 2.141e-05 0.0205262 -4.9679e-05 0.000144385)
(-0.0144024 9.8715e-05 2.51818e-05 0.0190416 -7.31285e-05 0.000355315)
(-0.0115365 8.83681e-05 2.67519e-05 0.0143969 -8.96324e-05 0.000625869)
(-0.00915063 1.27622e-05 2.74432e-05 0.0104251 -9.76356e-05 0.000935068)
(-0.00723912 -0.000149805 2.74706e-05 0.00717886 -9.69768e-05 0.00125855)
(-0.00614944 -0.000437551 2.65722e-05 0.00529043 -8.60004e-05 0.00156797)
(-0.00514918 -0.000796635 2.36134e-05 0.00398795 -5.4985e-05 0.00181003)
(-0.00679639 0.00781427 -0.000374342 0.026245 -9.80307e-05 -0.0134112)
(-0.0120924 0.00356289 -0.00063502 0.0147093 -0.000150244 -0.00202287)
(-0.0103541 0.00495999 -0.000763982 0.0151437 -0.000151124 -0.00332167)
(-0.00904943 0.00453737 -0.000853271 0.0112948 -0.000128342 -0.00151029)
(-0.00749825 0.00408771 -0.000934092 0.00827439 -0.000115635 -0.000451757)
(-0.00628762 0.00325371 -0.00101431 0.00556898 -0.000130141 0.000589341)
(-0.00551668 0.00220867 -0.00110959 0.00377458 -0.000174657 0.0012807)
(-0.00581164 0.00122765 -0.00127912 0.00275916 -0.000227695 0.00212023)
(-0.00245627 0.00611526 -0.000230451 0.00623513 -7.56401e-05 -0.00290785)
(-0.00523524 0.00932406 -0.00041449 0.00555153 -0.000139949 -0.000535924)
(-0.0054708 0.00996937 -0.000487225 0.00561689 -0.000164866 -0.000336246)
(-0.00503998 0.00942007 -0.000526159 0.00443397 -0.000148967 0.00023811)
(-0.00451567 0.00834193 -0.000561744 0.00340179 -0.000121262 0.000627408)
(-0.00405658 0.0068268 -0.000608271 0.00245126 -0.000101602 0.000983589)
(-0.00380717 0.00506292 -0.000689324 0.00178099 -9.6829e-05 0.00127405)
(-0.00450635 0.00287327 -0.000893461 0.00162557 -8.99784e-05 0.00185053)
(0.0013021 0.005539 -0.000173242 -0.00775148 -4.94322e-05 0.00394882)
(0.00241128 0.00902682 -0.000337949 -0.00440407 -0.000113785 0.000994483)
(0.00174284 0.00993383 -0.000406663 -0.00413498 -0.000151316 0.00131275)
(0.000967609 0.00944995 -0.000437846 -0.00290612 -0.000145368 0.00105991)
(0.000310452 0.00841841 -0.000461252 -0.00196058 -0.000117326 0.000901901)
(-0.000186638 0.00696946 -0.000495125 -0.00116032 -8.72221e-05 0.000717847)
(-0.000565285 0.00521512 -0.000564885 -0.000551092 -6.41109e-05 0.000569096)
(-0.000596659 0.00279767 -0.000756881 5.27099e-05 -4.07131e-05 0.000193415)
(0.00538233 0.00635 -0.000161943 -0.0266339 -4.02511e-05 0.0138676)
(0.00931859 0.00325357 -0.000337595 -0.0135853 -0.000105773 0.0025411)
(0.00701226 0.00494465 -0.000419381 -0.013736 -0.000147469 0.00421983)
(0.00535422 0.00459993 -0.000458299 -0.00976308 -0.000146961 0.002716)
(0.00359883 0.00421993 -0.00048303 -0.00670753 -0.000120516 0.00187701)
(0.00224584 0.00351147 -0.000514923 -0.00400984 -8.66668e-05 0.000996059)
(0.00135548 0.00260469 -0.000579081 -0.002097 -5.12891e-05 0.000321489)
(0.00128265 0.00127798 -0.000753239 -0.000912139 -6.01295e-06 -0.000415257)
(0.0219895 3.59784e-05 4.1164e-05 -0.0368287 -0.00698719 0.00358593)
(0.00929165 8.04591e-05 7.42415e-05 -0.0199176 0.0011572 0.00577314)
(0.00960833 0.000111124 7.73285e-05 -0.0186123 0.00065892 0.0040577)
(0.00661128 0.000115018 7.31699e-05 -0.013092 0.00131408 0.00308308)
(0.00450715 0.000101841 7.55369e-05 -0.00867041 0.00132678 0.0018562)
(0.00269078 8.19559e-05 9.00937e-05 -0.00486378 0.00124495 0.00081316)
(0.00153367 4.97092e-05 0.000118151 -0.00217867 0.000984521 -6.76126e-05)
(0.00123633 -9.78222e-05 0.00015156 -0.000848013 0.000376845 -0.000749073)
(0.0216886 1.55713e-05 -6.99403e-06 -0.0353644 -0.00479801 0.0025333)
(0.0109377 4.26202e-05 -1.10606e-05 -0.0215565 -0.000201458 0.00485443)
(0.00946082 6.61801e-05 -2.00356e-05 -0.0185894 0.00112014 0.00412399)
(0.00660669 7.62459e-05 -2.71399e-05 -0.0131274 0.00181903 0.00296673)
(0.00435059 7.62567e-05 -2.63143e-05 -0.00846548 0.00201273 0.00171325)
(0.00253489 7.35629e-05 -1.63821e-05 -0.00458388 0.00190066 0.000585905)
(0.00134473 6.36642e-05 -1.19112e-08 -0.00182996 0.00150346 -0.000318884)
(0.00111106 -5.81634e-05 1.51753e-05 -0.000602792 0.000734703 -0.000985588)
(0.0224733 6.70039e-06 -1.57383e-05 -0.0355667 -0.00273285 0.00153717)
(0.0115129 2.51801e-05 -2.49464e-05 -0.0207324 -0.000252017 0.00313313)
(0.00992643 4.59909e-05 -3.0107e-05 -0.018134 0.000780534 0.00292342)
(0.0068739 6.08042e-05 -3.18801e-05 -0.0128497 0.00140788 0.00223286)
(0.00442129 7.03546e-05 -2.78387e-05 -0.00828882 0.00165301 0.00137164)
(0.00246189 7.93377e-05 -1.8334e-05 -0.00450214 0.00161202 0.000555791)
(0.00115653 8.10067e-05 -7.44667e-06 -0.00182444 0.0013164 -9.56667e-05)
(0.000741457 -1.82696e-05 -4.56982e-06 -0.000616551 0.000642057 -0.000483238)
(0.0229284 3.26819e-06 -1.51913e-05 -0.0356087 -0.00147573 0.000881734)
(0.011917 1.75635e-05 -2.40526e-05 -0.0200875 -0.00015088 0.00186358)
(0.0102989 3.7132e-05 -2.65014e-05 -0.0176415 0.000511546 0.00184871)
(0.00712537 5.54513e-05 -2.52688e-05 -0.0125167 0.000961937 0.00149556)
(0.00453119 7.17863e-05 -1.99933e-05 -0.00809494 0.0011795 0.000985205)
(0.00244794 8.87174e-05 -1.20182e-05 -0.00442362 0.00118972 0.000472513)
(0.00102948 9.82006e-05 -5.45798e-06 -0.00182 0.0010026 6.7845e-05)
(0.000500701 1.32282e-05 -7.32132e-06 -0.000656919 0.000501446 -0.000110537)
(0.0231172 1.87797e-06 -1.21146e-05 -0.0355171 -0.000768474 0.000496021)
(0.0121582 1.43643e-05 -1.92298e-05 -0.0196784 -6.82915e-05 0.00108039)
(0.0105273 3.37621e-05 -2.0148e-05 -0.0172727 0.000336969 0.00112283)
(0.0072896 5.47789e-05 -1.78299e-05 -0.0122329 0.000628707 0.000949426)
(0.00461182 7.58215e-05 -1.29059e-05 -0.0079121 0.000788264 0.0006658)
(0.00244368 9.78613e-05 -7.03108e-06 -0.00432875 0.000815583 0.000370234)
(0.000942235 0.000111824 -3.73177e-06 -0.00178259 0.00070361 0.000148762)
(0.000340201 3.5901e-05 -8.14602e-06 -0.000660762 0.000355488 0.000116257)
(0.023172 1.37923e-06 -8.38313e-06 -0.035389 -0.000381765 0.000278148)
(0.0122881 1.32778e-05 -1.32923e-05 -0.019426 -2.1679e-05 0.000625236)
(0.0106538 3.30296e-05 -1.34304e-05 -0.0170272 0.000215742 0.00067869)
(0.00738303 5.60013e-05 -1.11798e-05 -0.0120287 0.000391986 0.000595808)
(0.00465814 8.0052e-05 -7.42848e-06 -0.00776618 0.000495426 0.000441541)
(0.00243932 0.000105071 -3.65711e-06 -0.00423917 0.00052046 0.000279489)
(0.000886279 0.00012148 -2.43798e-06 -0.00173209 0.000455905 0.00017478)
(0.000246573 5.12683e-05 -7.11773e-06 -0.000643559 0.000232137 0.000227581)