/*--------------------------------*- C++ -*----------------------------------*\
| =========                 |                                                 |
| \\      /  F ield         | foam-extend: Open Source CFD                    |
|  \\    /   O peration     | Version:     3.1                                |
|   \\  /    A nd           | Web:         http://www.extend-project.de       |
|    \\/     M anipulation  |                                                 |
\*---------------------------------------------------------------------------*/
FoamFile
{
    version     2.0;
    format      ascii;
    class       pointVectorField;
    location    "4";
    object      pointD;
}
// * * * * * * * * * * * * * * * * * * * * * * * * * * * * * * * * * * * * * //

dimensions      [0 1 0 0 0 0 0];

internalField   nonuniform List<vector> 
405
(
(0 0 0)
(0 0 0)
(0 0 0)
(0 0 0)
(0 0 0)
(0.000889241 0.000947866 0.000393227)
(0.00054411 0.000323615 0.000243703)
(0.00041921 -2.25143e-05 -2.69892e-05)
(0.000482253 -0.000375876 -0.00030509)
(0.000746526 -0.000995879 -0.000478607)
(0.00178539 0.00139825 0.000263542)
(0.00150015 0.00056908 0.000157481)
(0.00135138 -2.6758e-05 -5.01524e-05)
(0.0013972 -0.000626605 -0.000271449)
(0.00157476 -0.00146 -0.000418032)
(0.00299682 0.00185939 0.000146229)
(0.00272531 0.000800579 8.02562e-05)
(0.00257778 -3.81011e-05 -7.38385e-05)
(0.00259671 -0.000881571 -0.000242179)
(0.00273183 -0.00195305 -0.000355526)
(0.0043691 0.0021813 -1.17703e-05)
(0.00413367 0.000963104 -1.58097e-05)
(0.00399321 -5.90036e-05 -9.51244e-05)
(0.00398701 -0.00108521 -0.000189374)
(0.00406589 -0.00231526 -0.000244059)
(0.00585324 0.002397 -0.000162615)
(0.00564698 0.00106965 -0.000107002)
(0.00551334 -8.76619e-05 -0.000115628)
(0.00548718 -0.00124617 -0.00013891)
(0.00552239 -0.00257916 -0.000134225)
(0.00738162 0.00252064 -0.000295481)
(0.00719777 0.00112885 -0.000189062)
(0.00706995 -0.000120974 -0.000137513)
(0.0070289 -0.00136711 -9.81834e-05)
(0.00703201 -0.00275287 -3.88673e-05)
(0.00891279 0.00258757 -0.000403769)
(0.00873918 0.00115582 -0.000262429)
(0.00861025 -0.000153963 -0.00016368)
(0.00855784 -0.00145603 -7.38751e-05)
(0.00854433 -0.00286176 2.7134e-05)
(0.0104415 0.00261873 -0.000477216)
(0.0102392 0.0011707 -0.000318751)
(0.0100709 -0.000175294 -0.000191242)
(0.010023 -0.00151775 -7.3666e-05)
(0.0100207 -0.00293236 4.58124e-05)
(0 0 0)
(0 0 0)
(0 0 0)
(0 0 0)
(0 0 0)
(0.000962674 0.000899803 0.000227761)
(0.000631495 0.00028719 0.000140078)
(0.000530994 -1.10462e-05 -2.128e-05)
(0.000581586 -0.000308789 -0.00019156)
(0.000834335 -0.000913046 -0.000299776)
(0.00186414 0.00144228 0.000181486)
(0.00159778 0.000604274 0.000104989)
(0.00147852 -1.83429e-05 -4.32521e-05)
(0.00151212 -0.000641626 -0.00020298)
(0.00167811 -0.00148349 -0.000309433)
(0.00303346 0.00191059 8.83527e-05)
(0.00278566 0.000844335 4.38869e-05)
(0.00266823 -2.9224e-05 -6.30823e-05)
(0.00267719 -0.000905208 -0.00018245)
(0.00279767 -0.00198285 -0.000261964)
(0.00435852 0.0022423 -2.9632e-05)
(0.00414447 0.00101524 -2.83957e-05)
(0.00403213 -4.73236e-05 -8.16311e-05)
(0.00401896 -0.00111213 -0.000147898)
(0.00408619 -0.0023497 -0.000183819)
(0.0057908 0.00245712 -0.000148156)
(0.00560438 0.00112272 -0.000100461)
(0.00549717 -7.13817e-05 -0.000100071)
(0.00546637 -0.00126556 -0.000112489)
(0.00549183 -0.0026043 -0.000101777)
(0.00727258 0.00257666 -0.000254755)
(0.00710643 0.00117997 -0.000166598)
(0.00700299 -9.9057e-05 -0.000120204)
(0.00695917 -0.00137407 -8.49311e-05)
(0.00695444 -0.0027635 -3.08033e-05)
(0.0087661 0.00263639 -0.000341788)
(0.0086077 0.00120138 -0.000225057)
(0.00850069 -0.000126962 -0.000144262)
(0.00844795 -0.00144698 -7.25192e-05)
(0.00842902 -0.00285327 1.53172e-05)
(0.0102773 0.00266189 -0.000399812)
(0.0100892 0.00121118 -0.000269615)
(0.00994139 -0.000146137 -0.00017013)
(0.00989319 -0.00149844 -8.17951e-05)
(0.00988575 -0.00291128 1.95262e-05)
(0 0 0)
(0 0 0)
(0 0 0)
(0 0 0)
(0 0 0)
(0.00101681 0.000911536 0.000118322)
(0.000666672 0.000287857 7.08633e-05)
(0.000559897 -6.83614e-06 -1.85229e-05)
(0.000614589 -0.000301043 -0.000114328)
(0.000879499 -0.000920401 -0.000173292)
(0.00192584 0.00143687 9.60967e-05)
(0.00164231 0.000606918 5.04202e-05)
(0.00151593 -1.13584e-05 -3.76603e-05)
(0.00155612 -0.00063095 -0.000133272)
(0.00173665 -0.00146925 -0.000193889)
(0.0030725 0.00190246 3.67124e-05)
(0.00281798 0.000852164 8.9234e-06)
(0.00269782 -1.98906e-05 -5.52976e-05)
(0.00270898 -0.000894817 -0.000127368)
(0.00283403 -0.00195832 -0.000171836)
(0.00436884 0.00223528 -4.32074e-05)
(0.00415079 0.00102674 -4.27048e-05)
(0.00403724 -3.4783e-05 -7.19923e-05)
(0.0040244 -0.00109863 -0.000109325)
(0.0040934 -0.0023182 -0.00012588)
(0.00576726 0.00245363 -0.000127292)
(0.00557918 0.0011379 -9.60552e-05)
(0.00547187 -5.51472e-05 -8.87543e-05)
(0.00543993 -0.00124774 -8.91577e-05)
(0.00546434 -0.00256668 -7.41791e-05)
(0.00721645 0.00257906 -0.000205405)
(0.00704977 0.00119837 -0.000146296)
(0.00694716 -7.91387e-05 -0.000107064)
(0.00690121 -0.00135115 -7.43365e-05)
(0.00689348 -0.00272141 -2.92564e-05)
(0.00868211 0.00264765 -0.000270601)
(0.00852458 0.00122243 -0.000190995)
(0.00841917 -0.000104045 -0.000128717)
(0.00836351 -0.00141933 -7.16976e-05)
(0.00833976 -0.00280882 -2.47711e-06)
(0.0101785 0.00268002 -0.000312359)
(0.00999244 0.00123414 -0.000224048)
(0.00984581 -0.000121165 -0.000152605)
(0.00979113 -0.00146708 -8.92721e-05)
(0.0097758 -0.00286476 -1.24632e-05)
(0 0 0)
(0 0 0)
(0 0 0)
(0 0 0)
(0 0 0)
(0.00104414 0.00091954 5.43234e-05)
(0.00067897 0.000288828 3.18868e-05)
(0.000565217 -4.48264e-06 -1.57771e-05)
(0.000622413 -0.000297665 -6.73548e-05)
(0.000897483 -0.000924265 -9.64957e-05)
(0.00195604 0.00142934 3.80685e-05)
(0.00165899 0.000605209 1.65954e-05)
(0.00152429 -6.03955e-06 -3.18434e-05)
(0.00156772 -0.00061914 -8.47625e-05)
(0.0017585 -0.00145318 -0.000114291)
(0.0030934 0.00188764 -1.32377e-06)
(0.00282871 0.000850547 -1.24862e-05)
(0.00270173 -1.15048e-05 -4.69787e-05)
(0.00271449 -0.000876815 -8.58838e-05)
(0.00284708 -0.00192789 -0.00010551)
(0.00437227 0.00221871 -5.49285e-05)
(0.00414775 0.00102684 -4.89873e-05)
(0.00402881 -2.31057e-05 -6.15096e-05)
(0.00401592 -0.00107537 -7.8363e-05)
(0.00408902 -0.00227816 -8.0738e-05)
(0.00574956 0.00243963 -0.000113083)
(0.00555791 0.00114128 -8.75792e-05)
(0.00544634 -4.00496e-05 -7.62233e-05)
(0.00541305 -0.00122035 -6.88271e-05)
(0.00543853 -0.00252061 -5.08693e-05)
(0.00717727 0.00257124 -0.000168679)
(0.00700908 0.00120607 -0.000124826)
(0.0069032 -6.07789e-05 -9.23107e-05)
(0.00685487 -0.00132067 -6.28902e-05)
(0.00684561 -0.00267241 -2.49291e-05)
(0.0086238 0.00264943 -0.000216248)
(0.00846677 0.00123508 -0.000158472)
(0.00835875 -8.28341e-05 -0.000111223)
(0.00829937 -0.00138681 -6.63202e-05)
(0.00827124 -0.00275902 -1.18212e-05)
(0.0101088 0.00269168 -0.000246873)
(0.00992421 0.00125234 -0.000183763)
(0.00977392 -9.72152e-05 -0.000132671)
(0.00971194 -0.00143354 -8.63674e-05)
(0.00968893 -0.00281548 -2.76267e-05)
(0 0 0)
(0 0 0)
(0 0 0)
(0 0 0)
(0 0 0)
(0.00105671 0.000922994 2.08992e-05)
(0.000681756 0.000289361 1.16498e-05)
(0.000563225 -2.75019e-06 -1.26619e-05)
(0.000621329 -0.00029473 -3.92388e-05)
(0.000902191 -0.000922901 -5.24287e-05)
(0.00196892 0.00142369 6.87096e-06)
(0.00166203 0.000603746 -8.46537e-07)
(0.00152137 -1.66762e-06 -2.55845e-05)
(0.00156584 -0.00060897 -5.29758e-05)
(0.00176287 -0.00143893 -6.52685e-05)
(0.0031008 0.0018764 -2.06705e-05)
(0.00282752 0.000848398 -2.17392e-05)
(0.00269513 -4.24401e-06 -3.79365e-05)
(0.00270828 -0.000860164 -5.66086e-05)
(0.00284598 -0.00190226 -6.21981e-05)
(0.0043694 0.00220531 -5.70658e-05)
(0.00413842 0.00102554 -4.75291e-05)
(0.00401491 -1.287e-05 -4.99395e-05)
(0.0040016 -0.00105343 -5.46636e-05)
(0.00407784 -0.00224382 -4.93655e-05)
(0.00573376 0.00242752 -9.69764e-05)
(0.00553765 0.00114229 -7.51001e-05)
(0.00542231 -2.68596e-05 -6.22059e-05)
(0.00538784 -0.00119448 -5.13119e-05)
(0.00541442 -0.00248059 -3.30734e-05)
(0.00714765 0.00256326 -0.000136009)
(0.00697661 0.00121049 -0.000102239)
(0.00686769 -4.48289e-05 -7.56558e-05)
(0.00681746 -0.00129215 -5.0477e-05)
(0.00680735 -0.00262929 -1.92128e-05)
(0.00858123 0.00264803 -0.000170213)
(0.00842275 0.00124353 -0.000127151)
(0.00831197 -6.43983e-05 -9.1376e-05)
(0.00824965 -0.00135667 -5.65716e-05)
(0.00821864 -0.00271446 -1.43047e-05)
(0.0100572 0.00269693 -0.000192065)
(0.00987152 0.00126519 -0.000145905)
(0.00971739 -7.6208e-05 -0.000109242)
(0.00964997 -0.00140236 -7.53692e-05)
(0.00962195 -0.00277057 -3.08934e-05)
(0 0 0)
(0 0 0)
(0 0 0)
(0 0 0)
(0 0 0)
(0.00106192 0.000924068 5.20307e-06)
(0.000681176 0.000289679 2.28275e-06)
(0.000559611 -1.38556e-06 -9.40669e-06)
(0.000617869 -0.000292189 -2.23693e-05)
(0.000901522 -0.000919497 -2.76339e-05)
(0.00197303 0.00141984 -6.48307e-06)
(0.00165976 0.000603071 -7.59454e-06)
(0.00151518 1.8787e-06 -1.91329e-05)
(0.00155976 -0.000601067 -3.22382e-05)
(0.00176022 -0.00142744 -3.60753e-05)
(0.003101 0.00186925 -2.57452e-05)
(0.00282174 0.000847351 -2.23496e-05)
(0.00268563 1.69541e-06 -2.85282e-05)
(0.00269862 -0.000847138 -3.61061e-05)
(0.00283923 -0.00188294 -3.52918e-05)
(0.00436318 0.00219668 -5.02247e-05)
(0.00412733 0.00102506 -4.01378e-05)
(0.00400057 -4.51686e-06 -3.77434e-05)
(0.00398673 -0.00103606 -3.66001e-05)
(0.00406487 -0.00221799 -2.88473e-05)
(0.00571946 0.00241949 -7.70694e-05)
(0.00551967 0.00114335 -5.92254e-05)
(0.0054016 -1.61761e-05 -4.72358e-05)
(0.00536623 -0.00117379 -3.62705e-05)
(0.00539351 -0.00245007 -2.0356e-05)
(0.00712441 0.00255763 -0.000103723)
(0.00695074 0.00121385 -7.82694e-05)
(0.00683953 -3.20164e-05 -5.76705e-05)
(0.006788 -0.00126918 -3.77116e-05)
(0.00677735 -0.00259579 -1.34889e-05)
(0.00854902 0.00264635 -0.000127499)
(0.00838882 0.00124963 -9.59595e-05)
(0.00827591 -4.96753e-05 -6.9787e-05)
(0.00821161 -0.00133224 -4.40201e-05)
(0.0081788 -0.00267914 -1.26872e-05)
(0.0100179 0.00269952 -0.000142719)
(0.00983056 0.00127443 -0.000109357)
(0.0096734 -5.94155e-05 -8.34605e-05)
(0.00960245 -0.00137683 -5.92722e-05)
(0.00957137 -0.00273438 -2.68313e-05)
(0 0 0)
(0 0 0)
(0 0 0)
(0 0 0)
(0 0 0)
(0.00106383 0.000924154 -6.51161e-07)
(0.000679837 0.000289891 -1.035e-06)
(0.00055644 -3.80106e-07 -6.18841e-06)
(0.000614576 -0.000290252 -1.20194e-05)
(0.000899405 -0.000916099 -1.37286e-05)
(0.00197351 0.00141736 -9.08485e-06)
(0.00165638 0.000602907 -7.93086e-06)
(0.00150937 4.5078e-06 -1.26843e-05)
(0.00155376 -0.000595491 -1.83194e-05)
(0.00175595 -0.0014191 -1.87304e-05)
(0.00309864 0.00186507 -2.1511e-05)
(0.00281561 0.000847132 -1.74689e-05)
(0.00267712 6.09193e-06 -1.90091e-05)
(0.00268981 -0.000838014 -2.13141e-05)
(0.00283195 -0.00186961 -1.87198e-05)
(0.00435675 0.00219172 -3.6802e-05)
(0.00411766 0.00102529 -2.87368e-05)
(0.00398878 1.63274e-06 -2.52541e-05)
(0.0039745 -0.00102384 -2.24335e-05)
(0.00405364 -0.00220032 -1.56508e-05)
(0.005708 0.00241483 -5.35121e-05)
(0.00550564 0.00114458 -4.08328e-05)
(0.00538576 -8.36872e-06 -3.17239e-05)
(0.00534976 -0.00115915 -2.31358e-05)
(0.0053774 -0.00242903 -1.15027e-05)
(0.00710728 0.00255426 -7.02468e-05)
(0.00693163 0.0012165 -5.30008e-05)
(0.0068189 -2.27227e-05 -3.88463e-05)
(0.00676653 -0.00125279 -2.49892e-05)
(0.00675554 -0.00257239 -8.4037e-06)
(0.00852592 0.00264514 -8.53394e-05)
(0.00836426 0.00125396 -6.43896e-05)
(0.0082499 -3.90578e-05 -4.70683e-05)
(0.00818437 -0.00131467 -2.99311e-05)
(0.00815054 -0.00265411 -9.08267e-06)
(0.00998969 0.00270077 -9.50339e-05)
(0.00980085 0.00128071 -7.3056e-05)
(0.00964159 -4.73372e-05 -5.62618e-05)
(0.00956853 -0.0013583 -4.0497e-05)
(0.00953573 -0.00270834 -1.9125e-05)
(0 0 0)
(0 0 0)
(0 0 0)
(0 0 0)
(0 0 0)
(0.00106439 0.000923985 -1.40139e-06)
(0.000678782 0.000290016 -1.18997e-06)
(0.000554409 2.37023e-07 -3.06182e-06)
(0.000612393 -0.00028905 -5.22679e-06)
(0.00089764 -0.000913753 -5.61274e-06)
(0.00197299 0.00141598 -5.81735e-06)
(0.00165382 0.000602936 -4.73916e-06)
(0.00150549 6.12275e-06 -6.31194e-06)
(0.00154968 -0.000592183 -8.28276e-06)
(0.00175265 -0.00141406 -7.92048e-06)
(0.00309636 0.00186291 -1.19452e-05)
(0.00281128 0.000847228 -9.44173e-06)
(0.00267148 8.78647e-06 -9.49271e-06)
(0.00268394 -0.000832645 -9.88338e-06)
(0.00282679 -0.00186181 -8.03493e-06)
(0.00435215 0.00218923 -1.93384e-05)
(0.00411124 0.00102569 -1.49265e-05)
(0.00398119 5.38563e-06 -1.26461e-05)
(0.00396661 -0.00101665 -1.06545e-05)
(0.00404623 -0.00219006 -6.81778e-06)
(0.0057006 0.00241249 -2.7393e-05)
(0.00549675 0.00114554 -2.08113e-05)
(0.00537585 -3.62894e-06 -1.5924e-05)
(0.00533949 -0.00115049 -1.12589e-05)
(0.00536729 -0.00241678 -5.1469e-06)
(0.00709667 0.00255253 -3.54945e-05)
(0.00691985 0.00121822 -2.67566e-05)
(0.00680625 -1.71091e-05 -1.95346e-05)
(0.00675342 -0.00124305 -1.24339e-05)
(0.00674224 -0.00255866 -3.99864e-06)
(0.00851184 0.00264445 -4.28421e-05)
(0.00834927 0.00125657 -3.23426e-05)
(0.00823409 -3.26687e-05 -2.36856e-05)
(0.00816792 -0.00130417 -1.51064e-05)
(0.00813356 -0.00263928 -4.66757e-06)
(0.00997253 0.00270127 -4.75766e-05)
(0.00978273 0.00128436 -3.66066e-05)
(0.00962228 -4.00773e-05 -2.8294e-05)
(0.00954809 -0.00134715 -2.04789e-05)
(0.00951444 -0.00269278 -9.83376e-06)
(0 0 0)
(0 0 0)
(0 0 0)
(0 0 0)
(0 0 0)
(0.0010645 0.000923897 -0)
(0.000678396 0.000290059 -0)
(0.000553718 4.45001e-07 -0)
(0.000611641 -0.000288643 0)
(0.000896983 -0.000912928 0)
(0.00197269 0.00141553 -0)
(0.00165289 0.000602966 0)
(0.00150415 6.66694e-06 -0)
(0.00154826 -0.000591087 0)
(0.00175145 -0.00141237 0)
(0.00309547 0.00186224 -0)
(0.00280974 0.000847297 0)
(0.00266952 9.6934e-06 -0)
(0.0026819 -0.000830874 0)
(0.00282495 -0.00185924 0)
(0.00435049 0.00218847 -0)
(0.00410901 0.00102587 0)
(0.00397858 6.64607e-06 -0)
(0.0039639 -0.00101428 0)
(0.00404365 -0.0021867 0)
(0.00569804 0.00241178 -0)
(0.00549371 0.0011459 0)
(0.00537249 -2.04109e-06 0)
(0.005336 -0.00114763 0)
(0.00536384 -0.00241276 0)
(0.00709306 0.002552 -0)
(0.00691586 0.00121882 0)
(0.00680199 -1.52328e-05 0)
(0.00674901 -0.00123983 0)
(0.00673777 -0.00255414 0)
(0.00850708 0.00264421 -0)
(0.00834422 0.00125744 0)
(0.00822878 -3.05359e-05 0)
(0.0081624 -0.00130069 0)
(0.00812788 -0.00263438 0)
(0.00996673 0.00270137 -0)
(0.00977662 0.00128555 -0)
(0.0096158 -3.76518e-05 0)
(0.00954125 -0.00134344 0)
(0.00950734 -0.00268761 0)
)
;

boundaryField
{
    interface
    {
        type            calculated;
    }
    symmetry
    {
        type            symmetryPlane;
    }
    bottom
    {
        type            fixedValue;
        value           uniform (0 0 0);
    }
}


// ************************************************************************* //
