/*--------------------------------*- C++ -*----------------------------------*\
| =========                 |                                                 |
| \\      /  F ield         | foam-extend: Open Source CFD                    |
|  \\    /   O peration     | Version:     3.1                                |
|   \\  /    A nd           | Web:         http://www.extend-project.de       |
|    \\/     M anipulation  |                                                 |
\*---------------------------------------------------------------------------*/
FoamFile
{
    version     2.0;
    format      ascii;
    class       volScalarField;
    location    "4";
    object      sigmaCauchyEq;
}
// * * * * * * * * * * * * * * * * * * * * * * * * * * * * * * * * * * * * * //

dimensions      [1 -1 -2 0 0 0 0];

internalField   nonuniform List<scalar> 
256
(
270.313
110.859
105.036
216.104
189.096
140.008
127.623
164.616
173.368
133.835
121.856
143.928
137.071
120.101
109.964
109.8
105.611
102.89
94.5836
79.5471
79.2121
83.5891
76.8769
53.7387
61.7972
64.5207
57.1877
34.0111
58.3148
50.5113
31.7599
19.2509
266.827
125.63
116.132
208.046
199.631
145.73
133.236
172.159
171.914
125.63
114.054
142.234
134.403
107.216
96.9447
106.159
101.368
88.2832
79.8136
73.9949
75.0939
69.8348
63.0811
47.695
58.4114
53.1096
46.2681
28.582
56.0797
43.8523
26.3193
16.1271
270.204
130.213
118.184
205.811
198.871
147.642
133.608
168.559
172.296
125.512
112.389
139.4
134.627
104.766
92.9663
103.179
101.494
84.8474
74.9806
71.0515
75.0028
66.2572
58.4613
44.9901
57.9501
50.2634
42.8838
26.3445
54.8075
43.1358
25.2996
13.4412
272.373
131.481
117.817
204.45
198.354
148.857
133.362
165.827
172.542
126.643
112.023
136.922
135.301
105.397
92.17
100.914
102.371
85.0673
73.9509
68.989
75.8782
66.233
57.5005
43.1846
58.6479
50.3396
42.3862
24.8974
55.1955
44.1764
25.8132
12.2098
273.387
131.554
116.837
203.237
198.367
149.467
132.856
164.084
172.975
127.684
111.936
135.192
136.136
106.532
92.2628
99.3398
103.442
86.1219
74.1209
67.6058
76.9999
67.1243
57.7311
42.0097
59.6823
51.1531
42.7553
24.0249
56.0905
45.3911
26.5845
11.824
273.75
131.285
115.886
202.196
198.523
149.706
132.295
162.925
173.413
128.389
111.844
134.035
136.858
107.462
92.4792
98.2944
104.335
87.094
74.5065
66.7043
77.9383
68.0057
58.1816
41.2707
60.5768
51.9308
43.2284
23.52
56.982
46.349
27.1698
11.6893
273.833
131.01
115.193
201.442
198.661
149.77
131.839
162.188
173.739
128.792
111.736
133.314
137.362
108.056
92.6259
97.6502
104.939
87.7482
74.8023
66.1557
78.5682
68.6139
58.5304
40.8349
61.1871
52.4624
43.5668
23.2426
57.6233
46.9715
27.5201
11.6069
273.834
130.853
114.837
201.048
198.735
149.775
131.59
161.825
173.908
128.97
111.664
132.964
137.614
108.336
92.6901
97.341
105.237
88.0655
74.9489
65.8943
78.875
68.912
58.706
40.6311
61.4841
52.722
43.7315
23.1173
57.9407
47.2721
27.6772
11.5559
)
;

boundaryField
{
    interface
    {
        type            calculated;
        value           nonuniform List<scalar> 
192
(
429.885
219.393
212.713
158.535
116.915
83.3509
65.5147
57.4198
420.125
237.007
214.452
162.381
119.822
87.2085
69.8829
61.5234
425.902
232.521
213.444
161.997
119.508
86.5544
68.6368
57.7501
430.337
229.87
212.612
161.985
120.023
87.2643
69.3955
57.6098
432.679
228.815
212.393
162.295
120.771
88.2161
70.4544
58.1417
433.723
228.457
212.506
162.729
121.478
89.0694
71.4045
58.917
434.114
228.349
212.681
163.089
121.984
89.6556
72.0506
59.504
434.225
228.318
212.787
163.278
122.235
89.9399
72.3558
59.7825
294.577
175.026
177.377
140.665
111.01
84.667
66.5171
62.4675
100.166
133.565
141.35
130.372
114.285
94.1669
73.3401
57.573
100.214
119.338
128.326
119.454
105.302
86.7665
65.1104
36.1527
260.795
148.694
148.724
113.322
85.225
59.6589
39.5186
23.2565
355.022
190.245
178.526
127.682
86.3013
50.5624
25.9861
15.4277
339.912
204.797
178.103
128.416
85.8239
50.6967
26.912
16.5122
341.52
198.734
174.566
125.469
83.1495
48.2955
24.548
12.1766
342.799
194.772
171.385
122.607
80.5262
45.7363
21.7315
9.46136
342.806
192.594
169.275
120.53
78.5525
43.7046
19.3619
7.84811
342.203
191.32
167.94
119.163
77.2056
42.2891
17.6632
6.93588
341.544
190.57
167.139
118.337
76.3754
41.4111
16.5964
6.38595
341.147
190.215
166.76
117.947
75.98
40.993
16.0874
6.11322
63.1524
60.6226
59.6734
59.8894
60.7762
61.6804
62.3497
62.6677
49.3586
44.6542
45.32
47.0774
48.6856
49.8688
50.6234
50.9911
13.1329
11.656
12.9409
14.9842
16.5556
17.497
17.9926
18.2021
18.6012
15.405
11.6378
9.89158
9.5372
9.43608
9.32476
9.23284
)
;
    }
    symmetry
    {
        type            symmetryPlane;
    }
    bottom
    {
        type            calculated;
        value           nonuniform List<scalar> 
32
(
245.147
212.368
209.513
210.733
211.775
212.303
212.513
212.574
75.096
82.2703
83.4799
82.8697
81.9701
81.2145
80.7087
80.4591
77.8306
78.4457
76.5072
74.0449
72.0745
70.7041
69.8575
69.4551
211.349
172.984
162.336
158.8
157.164
156.155
155.504
155.176
)
;
    }
}


// ************************************************************************* //
