/*--------------------------------*- C++ -*----------------------------------*\
| =========                 |                                                 |
| \\      /  F ield         | foam-extend: Open Source CFD                    |
|  \\    /   O peration     | Version:     3.1                                |
|   \\  /    A nd           | Web:         http://www.extend-project.de       |
|    \\/     M anipulation  |                                                 |
\*---------------------------------------------------------------------------*/
FoamFile
{
    version     2.0;
    format      ascii;
    class       volSymmTensorField;
    location    "4";
    object      sigma;
}
// * * * * * * * * * * * * * * * * * * * * * * * * * * * * * * * * * * * * * //

dimensions      [1 -1 -2 0 0 0 0];

internalField   nonuniform List<symmTensor> 
256
(
(181.695 62.0496 -2.70692 410.671 32.8703 210.09)
(24.4564 52.5529 -8.31236 83.3283 11.2256 33.3472)
(-57.0112 49.0124 -8.50254 -114.919 -16.5474 -56.8156)
(-204.915 52.4806 -3.43862 -422.28 -40.2778 -221.57)
(-75.8725 25.9393 -3.03055 125.161 -10.3169 -20.5101)
(-32.1723 68.2671 -13.0462 46.1638 -4.6905 -8.65377)
(-0.961354 66.7667 -13.5115 -53.6896 2.33732 -2.2753)
(41.4112 24.8128 -4.70026 -133.652 7.04829 10.245)
(-27.276 32.0752 -1.01762 152.665 -5.65202 27.3551)
(-33.3442 66.4529 -8.77719 41.9305 -2.38939 -3.60821)
(-6.98194 66.3969 -9.1306 -48.2627 0.170976 -7.41626)
(-6.78589 32.204 -2.75291 -154.413 3.09527 -31.3184)
(-38.7881 28.4519 -0.94122 104.197 -8.15424 13.7285)
(-34.4151 61.0895 -7.08796 29.3332 -2.86492 -4.47615)
(-6.80571 61.3686 -7.35103 -33.8623 1.10867 -3.68419)
(4.35044 28.9735 -2.84036 -102.712 6.24344 -13.7849)
(-35.7659 24.9883 -0.536035 73.4584 -7.53461 14.1634)
(-32.6698 53.072 -5.56184 19.6949 -2.47884 -2.88021)
(-8.49665 53.5978 -5.77574 -23.7161 1.09668 -3.18488)
(1.30417 25.8921 -2.46456 -70.0781 6.18705 -11.4326)
(-36.6644 19.5354 -0.608646 44.4621 -6.62096 11.6126)
(-31.8493 42.9738 -4.75826 10.617 -2.18365 -2.27022)
(-9.40677 43.8799 -4.82366 -15.2072 0.98273 -2.57386)
(1.65379 21.2261 -2.37346 -40.318 5.75336 -7.42227)
(-36.3272 12.8347 -1.18963 26.4252 -5.5303 12.4416)
(-32.6171 31.6231 -4.54435 3.43678 -2.17618 -1.92085)
(-10.4389 32.5858 -4.35065 -9.13982 0.564937 -2.63195)
(2.2609 15.5692 -2.50186 -19.307 4.51559 -5.66347)
(-48.1534 7.37527 -1.79914 10.06 -3.22787 7.56892)
(-46.3783 18.1872 -4.22497 -6.06436 -1.53419 -8.11949)
(-5.46429 17.5439 -4.09959 -0.152606 -0.212946 1.24763)
(8.85647 7.68765 -2.9842 -4.59703 1.53459 -2.66113)
(183.54 71.0275 -1.65541 407.925 20.4162 218.741)
(30.5005 63.8373 -6.66637 87.0998 6.33785 40.3987)
(-51.112 60.7914 -7.29987 -101.572 -11.8811 -53.0694)
(-196.309 61.8806 -3.17689 -403.072 -27.7817 -219.357)
(-42.949 26.8859 -2.2729 169.2 -3.80348 18.709)
(-9.4062 70.8308 -12.193 71.605 -2.72562 13.3535)
(-21.3332 70.0107 -13.5429 -78.3625 -1.31274 -24.3265)
(7.64834 26.8582 -5.5005 -178.991 -1.05519 -29.5478)
(-21.3384 28.3059 -0.647855 158.23 -8.9048 32.1419)
(-21.6858 61.158 -9.45813 50.8734 -3.79398 4.07307)
(-12.4862 61.3063 -10.9134 -53.5693 1.17242 -12.5851)
(-9.92548 28.502 -4.37834 -157.695 5.81921 -33.9311)
(-28.1739 23.7671 0.591253 113.482 -11.1625 22.6849)
(-22.0011 53.1619 -6.50791 38.4173 -4.06475 3.38562)
(-11.8828 53.4928 -8.04305 -38.2304 2.38536 -8.92773)
(-2.96321 24.2378 -3.55164 -108.944 9.29788 -20.555)
(-27.9389 19.7758 1.7144 78.6317 -11.1988 20.0163)
(-21.9196 44.4105 -4.1516 26.6282 -3.83344 2.99098)
(-11.0608 44.9182 -5.7282 -24.8928 2.7822 -6.08952)
(-2.85198 20.584 -2.61868 -71.4413 10.2465 -14.9565)
(-28.9672 14.7848 2.29555 49.271 -9.93908 17.6318)
(-21.9151 35.0581 -2.58536 16.7188 -3.38648 2.85484)
(-10.6467 35.9056 -4.06666 -14.6783 2.5284 -4.27347)
(-1.97232 16.4054 -1.94515 -40.3805 9.57451 -10.6099)
(-29.2667 8.87401 2.25486 30.559 -7.83003 18.0629)
(-24.181 25.3431 -1.83484 8.03808 -2.97104 1.89297)
(-10.4486 26.3112 -3.11407 -7.22894 1.64241 -3.01652)
(-0.049185 11.8257 -1.56495 -17.5387 7.40891 -7.46604)
(-40.7954 5.49168 1.83736 14.7911 -4.49864 13.522)
(-39.0885 15.0057 -1.63408 -2.26734 -2.01386 -5.19804)
(-6.5926 14.3417 -3.14422 0.393201 0.330722 0.234037)
(5.16329 5.97857 -2.10259 -4.7651 3.38649 -5.3974)
(190.708 74.9083 -1.09265 419.28 10.2019 233.704)
(33.3709 66.9245 -4.26574 91.6547 2.57871 46.388)
(-51.3753 63.6168 -4.79753 -100.934 -7.50295 -55.9504)
(-202.768 64.8265 -2.2236 -411.077 -16.133 -233.153)
(-43.7659 27.5249 -1.83539 170.588 -2.5385 31.2689)
(-7.61094 72.2624 -8.25255 75.9498 -2.2237 20.9147)
(-22.8341 71.4809 -9.40955 -79.6701 -1.70217 -30.591)
(5.75743 27.5053 -4.27484 -180.484 -1.63843 -44.6691)
(-22.1299 28.0104 -0.976398 160.403 -6.83967 40.1943)
(-20.9644 60.8323 -6.99918 54.1206 -3.25051 9.15428)
(-13.314 60.9659 -8.2736 -54.5776 0.594062 -16.7369)
(-11.8996 27.9668 -3.75529 -160.217 4.04332 -45.2229)
(-29.3303 22.9825 0.0251886 114.471 -9.03762 26.3152)
(-21.306 51.2481 -4.93103 40.8965 -3.5919 6.94738)
(-12.5769 51.5521 -6.25583 -38.3663 1.96418 -11.2464)
(-5.1296 23.2882 -2.94706 -110.757 7.40165 -27.9401)
(-30.0126 18.5761 0.938873 78.4257 -9.41547 19.8345)
(-21.2733 41.8126 -2.94674 28.7418 -3.44491 5.51061)
(-11.6039 42.3403 -4.28378 -24.4801 2.55256 -6.99474)
(-4.28605 19.3486 -2.09084 -72.004 8.69524 -18.5228)
(-31.4361 13.4439 1.5146 48.5391 -8.53735 14.9397)
(-21.2639 32.36 -1.52185 18.5525 -3.0382 4.64969)
(-11.0378 33.3333 -2.77742 -13.8104 2.46913 -4.01708)
(-3.02216 15.2637 -1.39565 -40.1525 8.40734 -11.3042)
(-31.4523 7.4892 1.61323 30.1252 -6.7323 14.0062)
(-23.5703 23.0737 -0.846136 9.58179 -2.53482 3.05468)
(-10.854 24.2947 -1.98342 -6.18437 1.73114 -1.87875)
(-0.876774 11.0003 -1.0288 -16.7767 6.68846 -5.84177)
(-43.7914 4.82558 1.23148 13.1203 -3.63037 7.04807)
(-39.1548 13.8687 -1.02723 -1.33156 -1.52472 -5.12868)
(-7.75598 13.3511 -2.47257 1.2611 0.443449 2.01821)
(5.04888 5.67 -1.7274 -2.68087 3.01343 -0.616957)
(194.613 76.4628 -0.588472 425.998 4.40398 242.88)
(34.4337 67.6646 -2.54231 93.9938 0.621201 49.659)
(-51.8146 64.049 -2.90308 -100.865 -4.66099 -57.9484)
(-206.131 65.5815 -1.3847 -415.312 -8.97849 -241.356)
(-44.9915 27.765 -1.06695 170.656 -2.14276 40.0414)
(-7.97958 73.0165 -5.15349 77.5552 -1.83994 25.0002)
(-23.2322 72.1708 -5.95769 -79.0547 -1.47816 -33.9845)
(5.4369 27.7118 -2.81968 -179.716 -1.19334 -54.4002)
(-22.8875 28.2427 -0.670028 161.647 -4.8777 47.7833)
(-21.9756 61.2846 -4.70425 55.3965 -2.49116 12.2291)
(-13.6652 61.4041 -5.59842 -54.0318 0.184676 -19.4387)
(-12.44 28.1228 -2.66103 -160.142 2.59412 -53.6791)
(-30.2526 23.0093 -0.0514347 115.662 -6.46171 31.2369)
(-22.3516 51.2379 -3.4654 42.0221 -2.72781 9.15064)
(-13.0708 51.5457 -4.37101 -37.8052 1.30808 -12.9866)
(-5.68366 23.2882 -2.13236 -110.718 5.10577 -33.7811)
(-30.9476 18.4108 0.581745 79.604 -6.89063 22.2551)
(-22.2568 41.4336 -2.10398 29.8116 -2.63583 6.97774)
(-12.1854 42.0132 -2.99427 -23.8904 1.87748 -7.74235)
(-4.83118 19.2517 -1.49632 -71.8532 6.29435 -21.6211)
(-32.3071 13.1118 1.016 49.783 -6.41062 15.383)
(-22.142 31.7663 -1.07338 19.5806 -2.35314 5.5584)
(-11.6346 32.8724 -1.89557 -13.1655 1.9109 -3.84717)
(-3.56576 15.1566 -0.956912 -39.8722 6.2987 -12.0124)
(-31.8986 7.02104 1.1001 31.8001 -5.20037 13.2418)
(-24.3732 22.4749 -0.652799 10.5499 -1.97219 3.52949)
(-11.5675 23.8952 -1.40782 -5.53916 1.38991 -0.955903)
(-1.48647 10.9517 -0.705049 -16.2888 5.15151 -4.54379)
(-44.1771 4.61995 0.694519 14.651 -2.95357 5.22481)
(-40.1538 13.544 -1.11576 -0.359289 -1.21959 -4.93161)
(-9.15314 13.097 -2.13525 1.7445 0.368841 3.46906)
(4.24574 5.66532 -1.4025 -1.91742 2.365 2.46921)
(196.271 77.0163 -0.270981 429.195 1.4861 247.68)
(34.8844 67.6169 -1.43543 95.281 -0.233847 51.455)
(-52.0066 63.7671 -1.66613 -100.543 -2.85638 -59.0072)
(-207.25 65.5405 -0.810287 -416.351 -4.8591 -245.273)
(-46.0673 27.7939 -0.518321 170.588 -1.82185 45.2927)
(-8.45137 73.2555 -3.03365 78.4792 -1.46169 27.3704)
(-23.5316 72.3576 -3.56183 -78.2725 -1.13401 -35.9888)
(5.24055 27.7366 -1.72644 -178.869 -0.73112 -60.2874)
(-23.8007 28.4158 -0.347381 162.188 -3.41107 52.7767)
(-22.8567 61.6725 -2.94611 56.1783 -1.81099 14.1791)
(-14.004 61.8013 -3.54065 -53.2577 -0.0162549 -21.1921)
(-12.6027 28.2896 -1.72017 -159.4 1.65147 -59.0607)
(-31.23 23.1776 0.00213392 116.352 -4.39717 34.904)
(-23.2643 51.6032 -2.26366 42.8054 -1.93372 10.6563)
(-13.5024 51.9375 -2.85383 -37.1095 0.793223 -14.2238)
(-5.8848 23.4869 -1.41101 -110.092 3.33106 -37.784)
(-31.868 18.5151 0.393375 80.4662 -4.7281 24.4433)
(-23.1217 41.6799 -1.42125 30.6125 -1.87087 8.04307)
(-12.6677 42.3152 -1.98881 -23.2638 1.24433 -8.33949)
(-5.08318 19.4453 -0.997515 -71.3385 4.22757 -23.9255)
(-33.1351 13.1086 0.669409 50.7868 -4.49549 16.2721)
(-22.916 31.8665 -0.768691 20.3924 -1.69659 6.27788)
(-12.1386 33.0728 -1.28438 -12.5961 1.31279 -3.80856)
(-3.85276 15.335 -0.641612 -39.3961 4.34089 -12.6627)
(-32.4458 6.89597 0.692589 33.0896 -3.75608 13.2888)
(-25.1131 22.4701 -0.57576 11.3216 -1.45152 3.96979)
(-12.1757 24.0117 -1.05114 -5.03665 0.964062 -0.382245)
(-1.81874 11.1138 -0.512247 -15.7224 3.62106 -3.73392)
(-44.944 4.58522 0.287116 15.6236 -2.20017 4.2754)
(-41.2321 13.5389 -1.14058 0.265299 -0.918427 -4.85594)
(-10.2383 13.0931 -1.81044 2.12808 0.231355 4.37775)
(3.7596 5.73548 -1.13537 -1.24311 1.66341 4.46286)
(196.891 77.1658 -0.0978555 430.592 0.218738 250.076)
(35.0855 67.368 -0.76246 96.023 -0.472683 52.4335)
(-52.0167 63.3556 -0.903035 -100.092 -1.68633 -59.4867)
(-207.369 65.2775 -0.445823 -415.992 -2.52597 -246.918)
(-46.7732 27.7326 -0.196024 170.59 -1.40556 48.3159)
(-8.80606 73.238 -1.67255 79.0843 -1.06506 28.7127)
(-23.7341 72.3052 -2.00214 -77.5777 -0.786223 -37.1303)
(5.04737 27.6885 -0.98638 -178.179 -0.40185 -63.6988)
(-24.4658 28.494 -0.125614 162.538 -2.27305 55.8466)
(-23.4604 61.8793 -1.71118 56.7253 -1.23062 15.3577)
(-14.2733 62.0228 -2.08671 -52.5776 -0.0827392 -22.2709)
(-12.6909 28.3848 -1.02597 -158.662 1.02225 -62.2755)
(-31.9346 23.308 0.0592985 116.822 -2.83337 37.3496)
(-23.8933 51.9159 -1.36257 43.3699 -1.27957 11.6211)
(-13.8136 52.2776 -1.73054 -36.4842 0.447429 -15.0197)
(-5.98767 23.6594 -0.860081 -109.419 2.06105 -40.2859)
(-32.528 18.6377 0.281503 81.0718 -3.0461 26.098)
(-23.7175 41.9878 -0.884421 31.198 -1.2354 8.77482)
(-12.9963 42.6679 -1.23305 -22.707 0.757957 -8.74708)
(-5.21235 19.6455 -0.61663 -70.7586 2.65442 -25.4483)
(-33.7186 13.1717 0.437259 51.5046 -2.94124 17.1908)
(-23.4527 32.0965 -0.514776 20.9818 -1.13584 6.81706)
(-12.4761 33.3726 -0.827934 -12.1129 0.818433 -3.81055)
(-4.01539 15.5301 -0.407726 -38.8904 2.76883 -13.1763)
(-32.8487 6.86667 0.42281 33.99 -2.51564 13.7162)
(-25.645 22.5978 -0.462772 11.8659 -0.99138 4.33577)
(-12.5909 24.2159 -0.752276 -4.64036 0.59751 -0.0487487)
(-2.01551 11.2789 -0.359224 -15.204 2.3374 -3.3288)
(-45.4366 4.58039 0.092639 16.4315 -1.51868 4.18756)
(-42.0188 13.5961 -0.962525 0.715383 -0.643826 -4.72878)
(-10.9807 13.1382 -1.38479 2.41508 0.121039 4.86415)
(3.37243 5.7932 -0.841186 -0.799554 1.07234 5.45925)
(197.073 77.1779 -0.0234446 431.138 -0.15497 251.194)
(35.1768 67.1406 -0.361031 96.4423 -0.385876 52.9448)
(-51.9597 63.0262 -0.43666 -99.6955 -0.885299 -59.6701)
(-207.173 65.0297 -0.218232 -415.311 -1.18749 -247.503)
(-47.2012 27.6594 -0.0505799 170.604 -0.88759 49.9165)
(-9.03037 73.1457 -0.81655 79.4656 -0.648521 29.4278)
(-23.8497 72.1921 -0.997 -77.0686 -0.459457 -37.7341)
(4.90432 27.6306 -0.497069 -177.684 -0.191933 -65.5357)
(-24.892 28.5163 -0.0237936 162.756 -1.31108 57.5512)
(-23.8246 61.9604 -0.869927 57.0882 -0.7164 16.0167)
(-14.4501 62.1161 -1.07751 -52.0926 -0.0742001 -22.8805)
(-12.7452 28.4255 -0.533599 -158.118 0.56092 -64.0476)
(-32.3855 23.3807 0.0634364 117.114 -1.59125 38.7795)
(-24.2736 52.1036 -0.711843 43.7445 -0.73016 12.1858)
(-14.008 52.4853 -0.913807 -36.0328 0.2229 -15.4813)
(-6.04836 23.7661 -0.45506 -108.912 1.12081 -41.7096)
(-32.9546 18.7193 0.173979 81.4372 -1.70593 27.1379)
(-24.0771 42.2025 -0.47456 31.5819 -0.703187 9.22842)
(-13.1931 42.9123 -0.66434 -22.3025 0.401201 -8.98956)
(-5.28175 19.7809 -0.330896 -70.3045 1.45234 -26.3479)
(-34.1 13.2225 0.249203 51.9285 -1.66308 17.8516)
(-23.7779 32.2747 -0.294194 21.3602 -0.652883 7.17499)
(-12.6748 33.5942 -0.463618 -11.7662 0.439248 -3.81879)
(-4.10375 15.6659 -0.225785 -38.4921 1.52743 -13.5163)
(-33.1312 6.85957 0.225031 34.5117 -1.44569 14.1168)
(-25.9731 22.7058 -0.299631 12.2076 -0.578186 4.59911)
(-12.8392 24.3681 -0.456623 -4.36559 0.317211 0.130184)
(-2.1216 11.3912 -0.216044 -14.8172 1.29732 -3.15187)
(-45.7751 4.58379 0.00977959 16.9176 -0.89428 4.31672)
(-42.52 13.6473 -0.633685 0.992228 -0.382093 -4.61671)
(-11.434 13.1738 -0.867839 2.609 0.0535099 5.09626)
(3.12346 5.82723 -0.51908 -0.511583 0.593502 5.90501)
(197.106 77.1635 -0.00250619 431.312 -0.0945912 251.626)
(35.2128 67.0145 -0.105247 96.6339 -0.143819 53.1638)
(-51.9129 62.851 -0.129052 -99.4699 -0.275422 -59.7242)
(-207.006 64.8901 -0.0649553 -414.858 -0.345739 -247.661)
(-47.4024 27.6144 -0.00661214 170.612 -0.303277 50.5987)
(-9.13776 73.0786 -0.242425 79.6515 -0.217837 29.7359)
(-23.9004 72.1152 -0.299751 -76.8009 -0.150904 -37.9919)
(4.83041 27.5952 -0.150409 -177.425 -0.0558055 -66.3333)
(-25.0973 28.5181 8.47208e-05 162.862 -0.429437 58.3007)
(-23.9949 61.9824 -0.264359 57.2703 -0.235531 16.3092)
(-14.5359 62.1447 -0.330635 -51.8424 -0.028467 -23.1536)
(-12.7718 28.4383 -0.164287 -157.833 0.179204 -64.8292)
(-32.6025 23.4108 0.0253634 117.255 -0.51393 39.4276)
(-24.4516 52.186 -0.219726 43.9316 -0.237595 12.4439)
(-14.1003 52.578 -0.283998 -35.7993 0.0669892 -15.6912)
(-6.07766 23.8143 -0.1415 -108.647 0.35558 -42.35)
(-33.1613 18.7571 0.0584365 81.6072 -0.549881 27.6287)
(-24.2452 42.3056 -0.14885 31.7712 -0.22849 9.4433)
(-13.2843 43.0299 -0.20902 -22.0924 0.124845 -9.10095)
(-5.31287 19.8458 -0.103845 -70.0622 0.461657 -26.7615)
(-34.2852 13.247 0.0802649 52.1212 -0.538635 18.1861)
(-23.9301 32.3639 -0.0958662 21.5432 -0.213238 7.35147)
(-12.7657 33.7038 -0.149408 -11.5865 0.1376 -3.82385)
(-4.14325 15.732 -0.0723283 -38.2783 0.487171 -13.684)
(-33.2718 6.85674 0.0690208 34.7438 -0.472636 14.342)
(-26.1277 22.761 -0.104104 12.3701 -0.190309 4.73431)
(-12.9539 24.4427 -0.153703 -4.22512 0.0986815 0.207198)
(-2.16947 11.4447 -0.072491 -14.6151 0.414826 -3.09218)
(-45.9352 4.58802 -0.0062179 17.141 -0.298034 4.43206)
(-42.7576 13.676 -0.220854 1.12461 -0.127051 -4.55272)
(-11.6499 13.1901 -0.295745 2.7063 0.0150382 5.18324)
(2.99734 5.84087 -0.175951 -0.373376 0.189621 6.05998)
)
;

boundaryField
{
    interface
    {
        type            calculated;
        value           nonuniform List<symmTensor> 
192
(
(-22.2895 -0.0817135 2.43161 426.548 40.8438 128.681)
(-21.5968 0.0775506 4.15273 208.62 -12.4094 25.4738)
(-21.5243 0.247192 5.01296 209.318 -7.66919 47.2153)
(-21.6726 0.279189 5.50225 152.501 -11.4637 37.2219)
(-22.2603 0.0195257 5.7932 108.226 -10.8171 33.7456)
(-23.0888 -0.637473 5.88952 69.6569 -9.52498 29.7562)
(-23.8518 -1.90448 5.7072 46.0338 -7.57792 29.5881)
(-22.9074 -3.85905 5.00962 33.6627 -4.18946 32.4282)
(-25.3672 0.101319 1.77498 421.378 25.6877 136.546)
(-25.0405 0.34102 3.05427 229.572 -4.11272 42.9498)
(-25.6959 0.550597 3.68242 207.105 -11.5159 45.2159)
(-26.6134 0.532243 4.03091 151.781 -15.0294 37.0378)
(-27.7686 0.158472 4.21599 104.942 -15.2848 32.3276)
(-28.8688 -0.703587 4.24134 66.4536 -13.6234 29.0993)
(-29.1919 -2.31745 4.05083 43.5477 -10.5138 29.9185)
(-25.8969 -4.62489 3.5128 33.2489 -5.83375 34.7877)
(-27.4364 0.15754 1.29192 429.756 12.9891 148.138)
(-26.9969 0.435791 2.21298 227.308 -2.55812 55.7553)
(-27.8106 0.667472 2.62977 206.772 -8.5016 52.3963)
(-28.9009 0.626672 2.83881 150.948 -11.7104 38.8756)
(-30.1667 0.186231 2.938 103.57 -12.4198 29.8612)
(-31.2259 -0.796357 2.93333 65.1421 -11.361 23.7662)
(-31.1426 -2.59211 2.79914 43.1518 -8.9078 23.0552)
(-26.6476 -5.02945 2.46194 32.6346 -4.76597 26.4244)
(-28.9277 0.170693 0.954142 434.836 5.66301 155.681)
(-28.3752 0.464963 1.63704 225.884 -2.25343 66.0887)
(-29.2122 0.7075 1.93132 206.869 -5.93794 60.9604)
(-30.3333 0.65346 2.06721 151.377 -8.19238 44.1229)
(-31.6007 0.170516 2.12666 104.16 -8.91869 31.8201)
(-32.571 -0.886984 2.11826 66.0058 -8.39301 23.1388)
(-32.2043 -2.78922 2.03233 44.6678 -6.81896 20.7493)
(-26.9992 -5.28807 1.81189 34.2254 -3.87916 23.0974)
(-30.0016 0.171234 0.690914 437.093 1.95913 159.698)
(-29.3732 0.470081 1.19009 225.188 -2.01406 72.518)
(-30.2009 0.71607 1.40024 207.004 -4.12853 67.0364)
(-31.3136 0.65332 1.49229 151.847 -5.51195 48.5674)
(-32.5581 0.143721 1.53131 104.905 -6.05075 34.2913)
(-33.4521 -0.960513 1.52656 66.9925 -5.82874 23.8636)
(-32.8983 -2.93003 1.47454 46.0552 -4.89794 20.2804)
(-27.225 -5.4657 1.32722 35.6071 -2.88889 21.7919)
(-30.7495 0.168492 0.469834 437.888 0.33734 161.685)
(-30.0714 0.467404 0.81242 224.842 -1.60466 76.2172)
(-30.8861 0.713516 0.955574 207.168 -2.75371 70.8395)
(-31.9833 0.644893 1.01662 152.241 -3.53505 51.6354)
(-33.205 0.118833 1.04259 105.489 -3.87576 36.3131)
(-34.0448 -1.01455 1.04124 67.7392 -3.79427 24.8927)
(-33.371 -3.02751 1.0109 47.0529 -3.27229 20.6145)
(-27.3872 -5.58674 0.914644 36.718 -1.99452 21.7226)
(-31.2242 0.166259 0.271334 438.062 -0.157431 162.585)
(-30.5175 0.463984 0.471012 224.65 -1.03097 78.1564)
(-31.3246 0.708969 0.55412 207.291 -1.59224 72.9536)
(-32.4096 0.636517 0.589059 152.501 -1.98267 53.4442)
(-33.6151 0.100772 0.604192 105.851 -2.16528 37.6148)
(-34.4215 -1.05031 0.604327 68.1853 -2.1405 25.6879)
(-33.6749 -3.0902 0.586858 47.6402 -1.87895 21.0492)
(-27.5014 -5.66103 0.528456 37.4083 -1.17606 21.9718)
(-31.4446 0.164449 0.0878092 438.063 -0.106329 162.928)
(-30.7223 0.460918 0.152928 224.566 -0.35485 78.9814)
(-31.5239 0.705107 0.17987 207.361 -0.522347 73.8881)
(-32.6008 0.631201 0.191085 152.638 -0.640231 54.2736)
(-33.7972 0.0911586 0.196023 106.029 -0.697397 38.2435)
(-34.5896 -1.07004 0.196219 68.396 -0.692691 26.108)
(-33.7966 -3.12536 0.189801 47.9168 -0.614289 21.3278)
(-27.5113 -5.69025 0.168667 37.7539 -0.39275 22.1974)
(37.7032 55.8162 -2.67387 273.713 -0.70022 -9.54525)
(-77.8881 25.4492 -4.53586 113.552 -1.07317 -5.96291)
(-52.9874 35.4285 -5.45701 129.14 -1.07945 -2.75555)
(-54.1378 32.4098 -6.09479 91.178 -0.916732 -0.286772)
(-48.9247 29.1979 -6.67209 63.737 -0.825964 1.40732)
(-46.7587 23.2408 -7.24509 37.9314 -0.929576 2.3625)
(-45.9964 15.7762 -7.92562 20.3698 -1.24755 2.55631)
(-54.8297 8.76892 -9.13656 6.39036 -1.62639 1.82657)
(-5.10169 43.6805 -1.64608 56.9797 -0.540287 -8.32725)
(-40.5323 66.6004 -2.96064 36.5161 -0.999634 -6.96569)
(-41.7937 71.2098 -3.48018 37.4041 -1.17761 -5.11831)
(-41.2556 67.2862 -3.75828 26.4154 -1.06405 -3.55497)
(-39.2044 59.5852 -4.01245 17.3489 -0.866156 -2.46811)
(-37.8573 48.7629 -4.34479 8.62728 -0.725725 -1.85611)
(-37.9386 36.1637 -4.92374 1.9768 -0.691636 -1.64421)
(-46.9061 20.5234 -6.38186 -3.10662 -0.642703 -1.49979)
(-26.4215 39.5643 -1.23745 -91.09 -0.353087 -7.51639)
(2.96189 64.4773 -2.41392 -45.7192 -0.812752 -7.15809)
(-2.97087 70.9559 -2.90474 -44.9553 -1.08083 -6.04293)
(-5.63998 67.4996 -3.12747 -33.3095 -1.03834 -4.98068)
(-8.47147 60.1315 -3.29466 -24.6931 -0.838044 -4.24684)
(-10.3204 49.7818 -3.53661 -17.2752 -0.623015 -3.85976)
(-11.8561 37.2508 -4.03489 -11.7547 -0.457935 -3.75334)
(-9.26948 19.9834 -5.40629 -4.63113 -0.290808 -3.62609)
(-67.041 45.3571 -1.15674 -295.729 -0.287508 -6.43199)
(41.9098 23.2398 -2.41139 -121.69 -0.755523 -6.50089)
(14.317 35.319 -2.99558 -133.885 -1.05335 -5.62889)
(14.0609 32.8566 -3.27356 -93.9198 -1.04972 -4.78351)
(8.11032 30.1424 -3.45022 -65.5066 -0.860832 -4.18835)
(5.0711 25.0819 -3.67802 -39.6123 -0.619049 -3.8559)
(3.68149 18.6049 -4.13629 -20.9791 -0.366351 -3.70416)
(8.52256 9.12842 -5.38028 -7.1545 -0.0429496 -3.60534)
(-3.69241 0.256989 0.294029 -423.823 -49.9085 -135.147)
(-2.95646 0.574708 0.530296 -211.594 8.26574 -28.0887)
(-2.02957 0.793742 0.552346 -203.605 4.70657 -41.677)
(-1.31485 0.821558 0.522642 -142.053 9.38625 -26.5162)
(-0.764105 0.727436 0.539549 -94.8895 9.47701 -19.6994)
(-0.20644 0.585399 0.643527 -54.1676 8.89248 -13.618)
(0.774564 0.355066 0.843937 -25.7421 7.03229 -10.6631)
(3.67728 -0.69873 1.08257 -11.2109 2.69175 -10.5042)
(-4.25969 0.111224 -0.0499574 -411.782 -34.2715 -141.084)
(-4.2222 0.30443 -0.0790046 -236.324 -1.43899 -47.674)
(-3.91627 0.472715 -0.143111 -204.275 8.001 -42.0365)
(-3.58039 0.544614 -0.193857 -144.538 12.9931 -29.5801)
(-3.23369 0.544691 -0.187959 -94.777 14.3767 -22.0718)
(-2.79482 0.525449 -0.117015 -53.6432 13.5761 -16.7162)
(-1.88225 0.454744 -8.50798e-05 -24.5586 10.739 -13.7652)
(1.11726 -0.415453 0.108395 -11.1245 5.24788 -13.8588)
(-4.56446 0.0478599 -0.112417 -419.136 -19.5203 -154.108)
(-4.71205 0.179858 -0.178188 -235.035 -1.80012 -64.5677)
(-4.58418 0.328506 -0.21505 -205.016 5.57525 -54.6057)
(-4.37127 0.434315 -0.227715 -145.254 10.0563 -37.5215)
(-4.07474 0.502533 -0.198848 -94.8612 11.8072 -25.858)
(-3.6215 0.566698 -0.130957 -53.3646 11.5145 -17.2365)
(-2.64727 0.578619 -0.0531905 -23.9399 9.40286 -11.5916)
(0.1771 -0.130497 -0.0326416 -9.52296 4.58612 -8.57072)
(-4.77664 0.0233442 -0.10851 -422.899 -10.5409 -162.253)
(-4.97658 0.125454 -0.171804 -233.58 -1.07771 -76.7869)
(-4.92047 0.265229 -0.189296 -204.495 3.6539 -65.2791)
(-4.75871 0.396081 -0.180491 -145.059 6.87098 -44.9717)
(-4.47073 0.512759 -0.14281 -94.6573 8.42498 -29.7992)
(-3.9885 0.633696 -0.085844 -53.0711 8.49801 -18.0987)
(-2.97055 0.701433 -0.0389856 -23.324 7.16141 -9.83937)
(-0.234362 0.0944873 -0.0522952 -8.50308 3.58175 -4.60035)
(-4.93316 0.0134141 -0.0865325 -423.75 -5.4891 -166.513)
(-5.15171 0.102602 -0.137356 -232.556 -0.487796 -84.2792)
(-5.12714 0.241158 -0.143915 -203.699 2.40692 -72.3022)
(-4.98644 0.391278 -0.127357 -144.433 4.49077 -50.2734)
(-4.69385 0.541582 -0.0921848 -94.1505 5.63046 -32.8797)
(-4.18572 0.69901 -0.050222 -52.5602 5.82559 -18.996)
(-3.14968 0.798742 -0.0266555 -22.6127 5.02578 -8.81735)
(-0.488615 0.256436 -0.0581859 -7.63835 2.5392 -2.08822)
(-5.04042 0.00985162 -0.0598795 -423.334 -2.72689 -168.568)
(-5.26506 0.0948417 -0.0949451 -231.794 -0.15485 -88.5714)
(-5.25325 0.235926 -0.0959314 -202.975 1.54102 -76.5044)
(-5.11977 0.400009 -0.0798556 -143.775 2.7999 -53.5999)
(-4.82047 0.5718 -0.0530605 -93.5656 3.53876 -34.939)
(-4.29585 0.750506 -0.0261222 -51.9994 3.71757 -19.7232)
(-3.25558 0.867717 -0.0174142 -21.9582 3.25646 -8.33771)
(-0.658854 0.366202 -0.0508409 -7.01694 1.65812 -0.79451)
(-5.10636 0.00891282 -0.0342366 -422.648 -1.22488 -169.478)
(-5.33272 0.0934038 -0.0540734 -231.263 -0.017781 -90.8521)
(-5.32572 0.237686 -0.0532762 -202.446 0.867291 -78.8082)
(-5.19414 0.410756 -0.0423765 -143.277 1.5354 -55.4832)
(-4.88996 0.594907 -0.0262393 -93.0995 1.94259 -36.1559)
(-4.35698 0.78489 -0.0117724 -51.5527 2.05639 -20.209)
(-3.31882 0.910688 -0.00967159 -21.4751 1.81656 -8.14993)
(-0.768276 0.4335 -0.0349866 -6.60926 0.928501 -0.204601)
(-5.13656 0.00898307 -0.0109908 -422.201 -0.345829 -169.812)
(-5.36268 0.0937316 -0.0172838 -230.985 0.00622431 -91.8319)
(-5.35725 0.239801 -0.0168121 -202.168 0.28078 -79.8184)
(-5.22637 0.417142 -0.0130635 -143.014 0.489645 -56.3252)
(-4.92052 0.606968 -0.00779171 -92.8485 0.619044 -36.7142)
(-4.38459 0.802176 -0.00330063 -51.312 0.657291 -20.4491)
(-3.34601 0.930641 -0.00297962 -21.2219 0.582744 -8.09339)
(-0.828215 0.465113 -0.0126815 -6.41372 0.29845 0.00444114)
(-59.3995 10.057 -1.94236 1.2105 -2.58721 2.27607)
(-53.9241 9.62525 1.61544 3.04405 -2.15904 6.36731)
(-54.9376 9.64661 0.93356 4.51498 -1.69907 1.0473)
(-55.5455 9.76751 0.350429 5.66308 -1.32966 -1.38015)
(-56.4796 9.89586 -0.0498997 6.5142 -1.01329 -2.77943)
(-57.186 10.0047 -0.17427 7.11419 -0.722152 -3.21066)
(-57.6605 10.0832 -0.159945 7.48062 -0.443092 -3.27398)
(-57.9283 10.1214 -0.0646081 7.58083 -0.152707 -3.28787)
(-51.4344 7.12747 -3.87672 -1.05506 -0.946813 -6.77027)
(-46.3471 6.19823 -1.61907 -0.135382 -0.820769 -5.8879)
(-46.6821 5.974 -1.34817 0.882182 -0.634191 -6.22619)
(-48.0001 5.92169 -1.60836 1.72354 -0.499902 -6.21961)
(-49.328 5.91883 -1.65562 2.34415 -0.391418 -6.30401)
(-50.3151 5.93134 -1.38304 2.77939 -0.28545 -6.29814)
(-50.94 5.94961 -0.902209 3.06213 -0.174165 -6.25637)
(-51.2192 5.96969 -0.312617 3.22505 -0.0582555 -6.20877)
(-6.06463 5.90816 -3.96678 -2.85311 -0.22367 -0.831047)
(-7.55754 4.8011 -3.47044 -2.21165 -0.234253 -1.81323)
(-9.37053 4.43181 -3.15124 -1.47663 -0.191645 0.282126)
(-11.1714 4.26396 -2.91071 -0.884035 -0.167926 2.09916)
(-12.5577 4.17053 -2.52671 -0.458683 -0.147309 3.19299)
(-13.5125 4.11436 -1.9401 -0.1675 -0.115991 3.73751)
(-14.1045 4.08204 -1.21392 0.0162474 -0.0715896 3.97031)
(-14.3801 4.06593 -0.412862 0.120962 -0.0230166 4.05611)
(11.7212 5.6195 -3.31001 -2.82266 0.207042 -3.17785)
(8.19037 4.50496 -2.73629 -2.34435 0.0172307 -5.44973)
(6.9377 4.07667 -2.50116 -1.86511 -0.0498436 -0.353544)
(5.66114 3.85087 -2.12682 -1.482 -0.0808965 3.2629)
(4.76405 3.70766 -1.74222 -1.21552 -0.0912465 5.47892)
(4.09849 3.61261 -1.28901 -1.03981 -0.0811473 6.53483)
(3.66461 3.55264 -0.791957 -0.93521 -0.0545938 6.96024)
(3.44589 3.52036 -0.267636 -0.888554 -0.0188612 7.08786)
)
;
    }
    symmetry
    {
        type            symmetryPlane;
    }
    bottom
    {
        type            calculated;
        value           nonuniform List<symmTensor> 
32
(
(214.143 75.8683 0 321.214 87.4431 214.143)
(210.093 85.8927 0 315.139 43.7838 210.093)
(216.619 90.5837 0 324.929 21.4496 216.619)
(220.639 92.379 0 330.959 9.96781 220.639)
(222.606 93.0171 0 333.91 4.23597 222.606)
(223.515 93.2214 0 335.272 1.54784 223.515)
(223.9 93.2757 0 335.85 0.436918 223.9)
(224.036 93.283 0 336.053 0.0727386 224.036)
(40.9575 31.798 0 61.4363 25.9384 40.9575)
(42.9567 43.0109 0 64.4351 13.4833 42.9567)
(45.9912 45.0424 0 68.9868 6.34375 45.9912)
(47.5268 44.8914 0 71.2903 2.59425 47.5268)
(48.365 44.3356 0 72.5475 0.79013 48.365)
(48.8481 43.8403 0 73.2722 0.0473848 48.8481)
(49.1201 43.5087 0 73.6801 -0.142858 49.1201)
(49.2437 43.3462 0 73.8656 -0.0728892 49.2437)
(-59.6268 28.2603 0 -89.4402 -31.8809 -59.6268)
(-53.2829 39.402 0 -79.9243 -18.5881 -53.2829)
(-53.7436 40.8566 0 -80.6154 -11.0075 -53.7436)
(-54.0049 40.2171 0 -81.0073 -6.51081 -54.0049)
(-53.9753 39.3147 0 -80.9629 -3.80153 -53.9753)
(-53.8141 38.5853 0 -80.7211 -2.14211 -53.8141)
(-53.6459 38.1082 0 -80.4689 -1.08225 -53.6459)
(-53.5451 37.8764 0 -80.3176 -0.32934 -53.5451)
(-217.79 64.688 0 -326.685 -97.3595 -217.79)
(-207.284 73.0835 0 -310.926 -52.6762 -207.284)
(-212.987 75.8311 0 -319.48 -28.5196 -212.987)
(-215.975 76.168 0 -323.963 -15.2135 -215.975)
(-216.93 75.7557 0 -325.396 -7.9251 -216.93)
(-216.981 75.231 0 -325.471 -3.96558 -216.981)
(-216.759 74.8222 0 -325.138 -1.80025 -216.759)
(-216.583 74.6065 0 -324.874 -0.512552 -216.583)
)
;
    }
}


// ************************************************************************* //
