/*--------------------------------*- C++ -*----------------------------------*\
| =========                 |                                                 |
| \\      /  F ield         | foam-extend: Open Source CFD                    |
|  \\    /   O peration     | Version:     3.1                                |
|   \\  /    A nd           | Web:         http://www.extend-project.de       |
|    \\/     M anipulation  |                                                 |
\*---------------------------------------------------------------------------*/
FoamFile
{
    version     2.0;
    format      ascii;
    class       volScalarField;
    location    "4";
    object      sigmaEq;
}
// * * * * * * * * * * * * * * * * * * * * * * * * * * * * * * * * * * * * * //

dimensions      [1 -1 -2 0 0 0 0];

internalField   nonuniform List<scalar> 
256
(
248.089
109.052
107.748
238.892
186.32
139.302
129.035
168.003
169.465
133.448
123.135
148.111
135.367
120.095
110.862
111.844
104.947
103.105
95.1975
80.5775
79.2032
83.9326
77.2594
54.1379
62.0168
64.8972
57.4085
34.1206
58.7719
50.9855
31.8046
19.2297
245.117
123.372
118.833
228.801
194.822
144.071
135.464
177.577
167.763
124.867
115.415
146.496
132.356
106.847
97.8589
108.335
100.522
88.2085
80.3703
75.0162
74.932
69.9345
63.3955
48.0813
58.5073
53.3033
46.4295
28.6834
56.4114
44.1833
26.3582
16.1291
247.822
127.746
120.952
226.692
194.413
145.936
135.84
173.694
168.295
124.755
113.711
143.541
132.676
104.407
93.8244
105.288
100.708
84.7692
75.4923
72.0233
74.8706
66.3418
58.7468
45.3495
58.0611
50.437
43.0342
26.437
55.1741
43.4576
25.3455
13.4423
249.598
128.951
120.582
225.342
194.235
147.197
135.538
170.631
168.736
125.946
113.293
140.853
133.467
105.085
92.9903
102.904
101.641
85.0173
74.4416
69.9
75.7654
66.3303
57.7791
43.5175
58.7575
50.5178
42.5402
24.9825
55.5583
44.5092
25.869
12.2131
250.447
129.012
119.568
224.003
194.475
147.849
134.976
168.655
169.325
127.033
113.164
138.945
134.401
106.254
93.0571
101.226
102.763
86.094
74.5996
68.4643
76.9095
67.2339
58.0083
42.3209
59.7975
51.3392
42.9144
24.1045
56.4599
45.7393
26.6475
11.8277
250.757
128.744
118.578
222.8
194.764
148.115
134.37
167.347
169.862
127.767
113.042
137.665
135.189
107.206
93.255
100.105
103.693
87.0803
74.9769
67.5242
77.866
68.124
58.458
41.5663
60.6988
52.1238
43.3912
23.5957
57.3581
46.7095
27.2375
11.6928
250.833
128.472
117.855
221.911
194.976
148.194
133.884
166.523
170.244
128.186
112.913
136.868
135.731
107.811
93.3895
99.4146
104.32
87.7426
75.2672
66.9513
78.5082
68.7377
58.806
41.1204
61.3149
52.6601
43.7316
23.3158
58.0052
47.3403
27.5905
11.6102
250.836
128.317
117.483
221.444
195.081
148.206
133.618
166.12
170.437
128.37
112.831
136.483
136.001
108.097
93.4475
99.0832
104.627
88.0634
75.411
66.6781
78.8213
69.0385
58.981
40.9116
61.6152
52.9221
43.8971
23.1891
58.3259
47.6449
27.7488
11.5591
)
;

boundaryField
{
    interface
    {
        type            calculated;
        value           nonuniform List<scalar> 
192
(
401.881
211.879
205.907
155.024
115.356
82.8896
65.4677
57.4847
394.274
228.513
207.74
158.897
118.332
86.7943
69.874
61.6027
400.114
224.743
207.089
158.703
118.109
86.1765
68.6453
57.8533
404.526
222.658
206.63
158.897
118.724
86.9277
69.4116
57.7049
406.901
221.953
206.675
159.364
119.552
87.9138
70.4786
58.2292
408.009
221.797
206.951
159.9
120.314
88.7933
71.4381
59.0011
408.461
221.799
207.217
160.318
120.853
89.397
72.092
59.5878
408.606
221.815
207.362
160.532
121.118
89.6897
72.4011
59.8659
280.095
173.383
174.366
139.486
110.674
84.8863
66.928
63.0743
98.9834
133.466
141.3
130.681
114.769
94.7368
73.8879
58.1241
102.289
120.296
129.523
120.356
105.979
87.2262
65.4002
36.2371
275.696
151.089
152.244
115.127
86.1913
60.0537
39.6323
23.2284
382.145
197.799
185.154
131.006
87.7938
51.0634
26.1063
15.4387
364.088
213.73
184.802
131.862
87.3591
51.2376
27.0658
16.5524
365.211
207.015
180.949
128.766
84.606
48.7981
24.6817
12.203
366.216
202.494
177.391
125.705
81.882
46.1899
21.8398
9.47915
365.969
199.952
174.991
123.459
79.8219
44.1167
19.4503
7.86071
365.144
198.455
173.465
121.974
78.4124
42.6713
17.7381
6.94545
364.323
197.577
172.55
121.076
77.543
41.7745
16.6633
6.39383
363.841
197.162
172.118
120.653
77.1289
41.3475
16.1505
6.12035
63.8288
61.2003
60.2571
60.4721
61.3679
62.2829
62.9614
63.2849
49.8297
45.0325
45.7003
47.4792
49.1092
50.3089
51.0742
51.4467
13.1519
11.6754
12.9659
15.0154
16.5922
17.5376
18.0358
18.2466
18.562
15.3846
11.6233
9.88547
9.53478
9.4347
9.3238
9.23212
)
;
    }
    symmetry
    {
        type            symmetryPlane;
    }
    bottom
    {
        type            calculated;
        value           nonuniform List<scalar> 
32
(
227.313
197.278
194.235
195.116
195.956
196.386
196.556
196.604
73.967
80.9725
82.073
81.4285
80.5208
79.765
79.2608
79.0123
79.5862
80.0242
78.0601
75.5549
73.5433
72.1404
71.2719
70.8587
229.888
187.322
176.159
172.512
170.792
169.695
168.97
168.601
)
;
    }
}


// ************************************************************************* //
