/*--------------------------------*- C++ -*----------------------------------*\
| =========                 |                                                 |
| \\      /  F ield         | foam-extend: Open Source CFD                    |
|  \\    /   O peration     | Version:     3.1                                |
|   \\  /    A nd           | Web:         http://www.extend-project.de       |
|    \\/     M anipulation  |                                                 |
\*---------------------------------------------------------------------------*/
FoamFile
{
    version     2.0;
    format      ascii;
    class       volVectorField;
    location    "4";
    object      U;
}
// * * * * * * * * * * * * * * * * * * * * * * * * * * * * * * * * * * * * * //

dimensions      [0 1 -1 0 0 0 0];

internalField   nonuniform List<vector> 
256
(
(1.33599e-05 1.37081e-05 2.46665e-05)
(1.51209e-06 3.12707e-06 6.18566e-06)
(1.49312e-06 -4.64272e-06 -1.20905e-05)
(1.37959e-05 -1.67187e-05 -3.31651e-05)
(6.85677e-05 5.62607e-05 3.03519e-05)
(5.55412e-05 1.43325e-05 8.44036e-06)
(5.43292e-05 -2.22148e-05 -1.82428e-05)
(6.43498e-05 -6.65395e-05 -4.08515e-05)
(0.000149043 8.74619e-05 3.16378e-05)
(0.00013599 2.21705e-05 7.95793e-06)
(0.000133609 -3.81071e-05 -1.81367e-05)
(0.000141119 -0.000106011 -4.26355e-05)
(0.000253085 0.00011068 2.79179e-05)
(0.000240788 2.60182e-05 6.36952e-06)
(0.000236996 -5.34635e-05 -1.70313e-05)
(0.000240636 -0.000140449 -3.96039e-05)
(0.000373809 0.000125175 2.15926e-05)
(0.000361761 2.62916e-05 3.57628e-06)
(0.00035642 -6.73739e-05 -1.58373e-05)
(0.000356533 -0.000167854 -3.52397e-05)
(0.000503927 0.000132475 1.4099e-05)
(0.000491835 2.39968e-05 -7.21112e-08)
(0.000484927 -7.94245e-05 -1.53296e-05)
(0.000481922 -0.000188526 -3.11951e-05)
(0.000636624 0.000134315 6.87135e-06)
(0.000624246 2.0155e-05 -4.26964e-06)
(0.000615824 -8.91896e-05 -1.58619e-05)
(0.00061034 -0.000202867 -2.86089e-05)
(0.000767229 0.000132535 4.82038e-07)
(0.000753541 1.58219e-05 -8.92089e-06)
(0.000743322 -9.64268e-05 -1.74971e-05)
(0.000736242 -0.000212126 -2.83398e-05)
(1.8654e-05 1.34136e-05 1.43844e-05)
(7.88863e-06 3.0068e-06 3.68655e-06)
(7.96493e-06 -3.90535e-06 -7.54921e-06)
(1.89581e-05 -1.5177e-05 -2.02716e-05)
(8.2975e-05 5.50407e-05 2.02387e-05)
(6.78722e-05 1.37511e-05 5.39789e-06)
(6.71312e-05 -2.11451e-05 -1.25694e-05)
(8.00593e-05 -6.48791e-05 -2.82218e-05)
(0.000167042 8.756e-05 2.2563e-05)
(0.000153409 2.1939e-05 5.47089e-06)
(0.0001513 -3.81459e-05 -1.35435e-05)
(0.000159765 -0.000106364 -3.13811e-05)
(0.000271975 0.000111682 2.11946e-05)
(0.000259244 2.64124e-05 4.57413e-06)
(0.000255638 -5.35956e-05 -1.33839e-05)
(0.000259938 -0.000141215 -3.08557e-05)
(0.000391591 0.000127169 1.75959e-05)
(0.00037944 2.74862e-05 2.70326e-06)
(0.000374297 -6.71893e-05 -1.30886e-05)
(0.000374755 -0.000168476 -2.89904e-05)
(0.000519671 0.000135295 1.28831e-05)
(0.000507729 2.59405e-05 8.92088e-08)
(0.000501116 -7.8681e-05 -1.32536e-05)
(0.000498359 -0.000188619 -2.7207e-05)
(0.000650201 0.000137815 8.07189e-06)
(0.0006382 2.26784e-05 -3.01234e-06)
(0.000630217 -8.7936e-05 -1.41683e-05)
(0.000624955 -0.000202448 -2.63753e-05)
(0.000779483 0.000136659 3.52141e-06)
(0.000766262 1.87394e-05 -6.4501e-06)
(0.000756597 -9.50078e-05 -1.58744e-05)
(0.000749815 -0.00021162 -2.69035e-05)
(2.15826e-05 1.4317e-05 8.85676e-06)
(1.02518e-05 3.21125e-06 2.2658e-06)
(1.03187e-05 -3.99515e-06 -4.89708e-06)
(2.18004e-05 -1.59917e-05 -1.282e-05)
(9.17604e-05 5.57567e-05 1.33452e-05)
(7.52277e-05 1.3844e-05 3.41969e-06)
(7.46558e-05 -2.08272e-05 -8.54588e-06)
(8.92275e-05 -6.53616e-05 -1.9113e-05)
(0.000179402 8.80588e-05 1.56629e-05)
(0.000164653 2.21269e-05 3.59238e-06)
(0.000162665 -3.78517e-05 -9.84176e-06)
(0.000172409 -0.000106573 -2.24692e-05)
(0.000286116 0.000112018 1.5555e-05)
(0.000272667 2.67581e-05 3.07147e-06)
(0.000269112 -5.31689e-05 -1.032e-05)
(0.000274206 -0.000140952 -2.33862e-05)
(0.000406189 0.000127649 1.38463e-05)
(0.000393647 2.81347e-05 1.84868e-06)
(0.000388513 -6.6535e-05 -1.06714e-05)
(0.000389399 -0.000167817 -2.32948e-05)
(0.000533931 0.000136231 1.12038e-05)
(0.000521859 2.6986e-05 4.80453e-08)
(0.00051525 -7.77807e-05 -1.13003e-05)
(0.000512646 -0.000187697 -2.31275e-05)
(0.000663894 0.000139528 8.26114e-06)
(0.000651961 2.41557e-05 -2.15836e-06)
(0.000644018 -8.68838e-05 -1.23974e-05)
(0.000638734 -0.000201542 -2.34501e-05)
(0.000793039 0.00013938 5.19152e-06)
(0.000780044 2.06161e-05 -4.65531e-06)
(0.000770444 -9.39779e-05 -1.39501e-05)
(0.00076351 -0.000211028 -2.43894e-05)
(2.32578e-05 1.50034e-05 5.62006e-06)
(1.1312e-05 3.37983e-06 1.4244e-06)
(1.13468e-05 -4.09395e-06 -3.20961e-06)
(2.33921e-05 -1.6699e-05 -8.21158e-06)
(9.73068e-05 5.68406e-05 8.85298e-06)
(7.97647e-05 1.41337e-05 2.18731e-06)
(7.92214e-05 -2.07458e-05 -5.8238e-06)
(9.48121e-05 -6.62211e-05 -1.29275e-05)
(0.000187795 8.89411e-05 1.07904e-05)
(0.000172236 2.24905e-05 2.3331e-06)
(0.000170275 -3.76241e-05 -7.07571e-06)
(0.000180858 -0.000106974 -1.59166e-05)
(0.000296426 0.000112627 1.1208e-05)
(0.000282431 2.71617e-05 2.01163e-06)
(0.000278877 -5.2772e-05 -7.81909e-06)
(0.00028454 -0.000140848 -1.74085e-05)
(0.00041757 0.000128148 1.05636e-05)
(0.000404725 2.86364e-05 1.20947e-06)
(0.000399575 -6.59766e-05 -8.47746e-06)
(0.000400782 -0.00016734 -1.82405e-05)
(0.000545791 0.000136901 9.21186e-06)
(0.000533617 2.76776e-05 -1.12189e-08)
(0.000526986 -7.71044e-05 -9.29838e-06)
(0.000524503 -0.000187067 -1.89456e-05)
(0.000675987 0.000140669 7.50144e-06)
(0.000664101 2.51145e-05 -1.54963e-06)
(0.000656143 -8.61661e-05 -1.03829e-05)
(0.000650831 -0.000201023 -1.98355e-05)
(0.000805507 0.000141184 5.48623e-06)
(0.000792674 2.18797e-05 -3.33484e-06)
(0.000783053 -9.32938e-05 -1.16762e-05)
(0.00077597 -0.000210817 -2.08772e-05)
(2.42895e-05 1.54789e-05 3.59947e-06)
(1.18782e-05 3.50391e-06 9.04391e-07)
(1.18806e-05 -4.16482e-06 -2.08711e-06)
(2.43455e-05 -1.71916e-05 -5.24927e-06)
(0.000100899 5.78324e-05 5.84307e-06)
(8.26499e-05 1.44404e-05 1.39915e-06)
(8.20914e-05 -2.07397e-05 -3.92624e-06)
(9.83452e-05 -6.70041e-05 -8.65237e-06)
(0.000193514 8.9924e-05 7.32031e-06)
(0.000177399 2.28913e-05 1.49662e-06)
(0.000175428 -3.75071e-05 -4.97871e-06)
(0.000186536 -0.000107521 -1.10608e-05)
(0.000303821 0.000113433 7.86871e-06)
(0.000289447 2.75834e-05 1.28829e-06)
(0.000285882 -5.2528e-05 -5.73569e-06)
(0.000291908 -0.000141052 -1.25862e-05)
(0.000426137 0.000128813 7.74432e-06)
(0.000413082 2.90841e-05 7.62911e-07)
(0.000407918 -6.56299e-05 -6.4469e-06)
(0.000409335 -0.000167274 -1.37116e-05)
(0.000555122 0.000137593 7.12275e-06)
(0.000542878 2.82033e-05 -4.98667e-08)
(0.000536238 -7.67003e-05 -7.25115e-06)
(0.000533839 -0.000186894 -1.47172e-05)
(0.000685861 0.000141591 6.17611e-06)
(0.00067401 2.57806e-05 -1.09421e-06)
(0.00066605 -8.57561e-05 -8.18798e-06)
(0.000660732 -0.000200927 -1.57444e-05)
(0.000815906 0.000142485 4.89395e-06)
(0.000803189 2.2734e-05 -2.33021e-06)
(0.000793573 -9.29099e-05 -9.18127e-06)
(0.000786428 -0.000210924 -1.66815e-05)
(2.493e-05 1.57989e-05 2.23881e-06)
(1.22044e-05 3.59097e-06 5.5987e-07)
(1.21839e-05 -4.21202e-06 -1.30286e-06)
(2.49321e-05 -1.7517e-05 -3.24128e-06)
(0.000103209 5.86096e-05 3.70645e-06)
(8.44859e-05 1.46955e-05 8.66387e-07)
(8.39062e-05 -2.07609e-05 -2.52771e-06)
(0.000100587 -6.76174e-05 -5.54092e-06)
(0.000197328 9.07896e-05 4.73157e-06)
(0.000180841 2.32404e-05 9.22597e-07)
(0.000178851 -3.74693e-05 -3.31076e-06)
(0.000190286 -0.000108063 -7.28858e-06)
(0.000308932 0.000114223 5.21134e-06)
(0.000294303 2.79546e-05 7.8802e-07)
(0.000290724 -5.24157e-05 -3.93196e-06)
(0.000296972 -0.000141413 -8.53804e-06)
(0.000432255 0.000129501 5.28772e-06)
(0.00041906 2.94592e-05 4.55753e-07)
(0.000413887 -6.54601e-05 -4.5323e-06)
(0.000415431 -0.00016747 -9.56007e-06)
(0.000561986 0.000138255 5.04089e-06)
(0.000549695 2.86043e-05 -6.06005e-08)
(0.000543054 -7.6504e-05 -5.18351e-06)
(0.000540708 -0.000187019 -1.04908e-05)
(0.000693296 0.000142346 4.54682e-06)
(0.00068147 2.62475e-05 -7.3144e-07)
(0.000673519 -8.55637e-05 -5.89245e-06)
(0.000668206 -0.000201091 -1.13785e-05)
(0.00082384 0.000143438 3.76969e-06)
(0.000811201 2.33079e-05 -1.53716e-06)
(0.00080161 -9.27332e-05 -6.58613e-06)
(0.000794454 -0.000211203 -1.20977e-05)
(2.53058e-05 1.59981e-05 1.23066e-06)
(1.23879e-05 3.64665e-06 3.07511e-07)
(1.23538e-05 -4.24083e-06 -7.14623e-07)
(2.52756e-05 -1.7715e-05 -1.76749e-06)
(0.000104587 5.91357e-05 2.06157e-06)
(8.55793e-05 1.48726e-05 4.74562e-07)
(8.49853e-05 -2.07866e-05 -1.41793e-06)
(0.000101923 -6.80354e-05 -3.09864e-06)
(0.000199673 9.14146e-05 2.66143e-06)
(0.000182957 2.34896e-05 5.01786e-07)
(0.000180952 -3.74706e-05 -1.89809e-06)
(0.000192578 -0.000108484 -4.15468e-06)
(0.000312151 0.000114829 2.9764e-06)
(0.000297366 2.82241e-05 4.24472e-07)
(0.000293773 -5.23804e-05 -2.29921e-06)
(0.000300148 -0.000141755 -4.9593e-06)
(0.000436193 0.000130048 3.07864e-06)
(0.000422911 2.97279e-05 2.39621e-07)
(0.00041773 -6.53969e-05 -2.69233e-06)
(0.000419345 -0.000167727 -5.64919e-06)
(0.000566487 0.00013877 3.00003e-06)
(0.000554168 2.88784e-05 -4.71035e-08)
(0.000547526 -7.64299e-05 -3.1102e-06)
(0.000545209 -0.000187233 -6.28306e-06)
(0.000698242 0.000142891 2.76945e-06)
(0.000686432 2.65495e-05 -4.21431e-07)
(0.000678491 -8.54945e-05 -3.54848e-06)
(0.000673184 -0.000201322 -6.86963e-06)
(0.000829161 0.000144073 2.35464e-06)
(0.000816572 2.3665e-05 -8.75017e-07)
(0.000807007 -9.26726e-05 -3.95594e-06)
(0.000799858 -0.000211493 -7.31591e-06)
(2.5477e-05 1.60946e-05 3.93426e-07)
(1.24695e-05 3.67399e-06 9.83996e-08)
(1.24298e-05 -4.25447e-06 -2.27761e-07)
(2.54341e-05 -1.7809e-05 -5.62027e-07)
(0.000105221 5.94005e-05 6.62687e-07)
(8.60859e-05 1.49626e-05 1.51521e-07)
(8.54879e-05 -2.08029e-05 -4.57271e-07)
(0.000102547 -6.82468e-05 -9.98036e-07)
(0.000200787 9.17385e-05 8.59739e-07)
(0.000183965 2.36176e-05 1.59374e-07)
(0.000181952 -3.74796e-05 -6.18883e-07)
(0.000193667 -0.000108712 -1.35101e-06)
(0.000313706 0.000115153 9.68426e-07)
(0.000298847 2.83642e-05 1.33909e-07)
(0.000295247 -5.23753e-05 -7.57001e-07)
(0.000301679 -0.000141956 -1.62755e-06)
(0.000438119 0.000130346 1.01099e-06)
(0.000424796 2.98673e-05 7.44342e-08)
(0.000419612 -6.5381e-05 -8.93142e-07)
(0.000421256 -0.000167893 -1.86926e-06)
(0.000568713 0.000139048 9.95408e-07)
(0.00055638 2.90177e-05 -1.75617e-08)
(0.000549739 -7.64103e-05 -1.0366e-06)
(0.000547434 -0.00018738 -2.09215e-06)
(0.000700707 0.000143173 9.28749e-07)
(0.000688905 2.66986e-05 -1.37828e-07)
(0.00068097 -8.54773e-05 -1.18453e-06)
(0.000675667 -0.000201475 -2.29589e-06)
(0.000831821 0.000144385 7.98641e-07)
(0.000819259 2.38376e-05 -2.84104e-07)
(0.000809711 -9.26582e-05 -1.31865e-06)
(0.00080257 -0.000211669 -2.44658e-06)
)
;

boundaryField
{
    interface
    {
        type            calculated;
        value           nonuniform List<vector> 
192
(
(3.62885e-05 3.87239e-05 2.76314e-05)
(8.04176e-05 8.53422e-05 3.80238e-05)
(0.000162235 0.000130086 4.08724e-05)
(0.000264341 0.000162817 3.69313e-05)
(0.000383819 0.000184335 2.94283e-05)
(0.00051274 0.000195425 2.03123e-05)
(0.000644714 0.000198437 1.16326e-05)
(0.000775068 0.000196949 4.58181e-06)
(4.22157e-05 4.35227e-05 1.62852e-05)
(9.65876e-05 8.66366e-05 2.54684e-05)
(0.000180282 0.000130779 2.94217e-05)
(0.000283308 0.000163427 2.85708e-05)
(0.000401487 0.000185234 2.48035e-05)
(0.000528412 0.00019698 1.95331e-05)
(0.000658307 0.000200939 1.41761e-05)
(0.000787385 0.000200911 9.54367e-06)
(4.72746e-05 4.77249e-05 1.00419e-05)
(0.000106225 8.93321e-05 1.67079e-05)
(0.000193296 0.00013223 2.03975e-05)
(0.000297751 0.000164025 2.11326e-05)
(0.000416072 0.000185479 1.97534e-05)
(0.000542444 0.000197494 1.71426e-05)
(0.000671656 0.000202313 1.41645e-05)
(0.00080043 0.000203766 1.12723e-05)
(5.0542e-05 5.0556e-05 6.35611e-06)
(0.000112477 9.17876e-05 1.10312e-05)
(0.000202273 0.000134105 1.40275e-05)
(0.000308395 0.000165153 1.52713e-05)
(0.000427564 0.000186161 1.51506e-05)
(0.00055424 0.000198172 1.41126e-05)
(0.000683581 0.000203455 1.26286e-05)
(0.000812626 0.000205777 1.09148e-05)
(5.26638e-05 5.24357e-05 4.06146e-06)
(0.000116595 9.37503e-05 7.25892e-06)
(0.000208433 0.000135913 9.50961e-06)
(0.00031606 0.000166526 1.07425e-05)
(0.000436249 0.000187176 1.11363e-05)
(0.000563564 0.000199072 1.0895e-05)
(0.000693367 0.000204541 1.02497e-05)
(0.00082286 0.00020731 9.28012e-06)
(5.40141e-05 5.36622e-05 2.52222e-06)
(0.000119265 9.5191e-05 4.59603e-06)
(0.000212554 0.000137397 6.14574e-06)
(0.000321364 0.000167801 7.12613e-06)
(0.000442463 0.000188218 7.61555e-06)
(0.000570439 0.000199987 7.69727e-06)
(0.000700759 0.000205498 7.4742e-06)
(0.00083071 0.000208469 6.95837e-06)
(5.4818e-05 5.44058e-05 1.38409e-06)
(0.000120862 9.61323e-05 2.55284e-06)
(0.00021509 0.000138432 3.45539e-06)
(0.000324707 0.000168751 4.07436e-06)
(0.000446464 0.000189035 4.43868e-06)
(0.000574953 0.00020071 4.57527e-06)
(0.000705683 0.000206208 4.52595e-06)
(0.000835988 0.000209258 4.28144e-06)
(5.51896e-05 5.47592e-05 4.41786e-07)
(0.000121592 9.65973e-05 8.19771e-07)
(0.000216296 0.00013896 1.11543e-06)
(0.000326323 0.000169252 1.32631e-06)
(0.00044842 0.000189478 1.45863e-06)
(0.000577188 0.000201102 1.51719e-06)
(0.000708139 0.000206584 1.51359e-06)
(0.000838626 0.000209649 1.44238e-06)
(8.96751e-06 2.86925e-05 3.78652e-05)
(5.79544e-05 5.72385e-05 3.34893e-05)
(0.00013746 8.74476e-05 3.60204e-05)
(0.000241923 0.000108032 3.06938e-05)
(0.000364529 0.000121196 2.31892e-05)
(0.00049702 0.000127947 1.44127e-05)
(0.000631925 0.000130014 6.16907e-06)
(0.000764179 0.000129093 -1.17999e-06)
(-5.33754e-06 7.68841e-06 8.88894e-06)
(4.13904e-05 1.48539e-05 9.38639e-06)
(0.000121839 2.26419e-05 8.74991e-06)
(0.00022778 2.55305e-05 6.67897e-06)
(0.000351008 2.49834e-05 3.4359e-06)
(0.000483612 2.2039e-05 -6.98274e-07)
(0.000618415 1.77659e-05 -5.36215e-06)
(0.000749793 1.33756e-05 -1.07235e-05)
(-5.71395e-06 -1.38777e-05 -1.73064e-05)
(4.01468e-05 -2.17636e-05 -1.93757e-05)
(0.000119445 -3.7165e-05 -1.99264e-05)
(0.000223963 -5.19198e-05 -1.86484e-05)
(0.000345484 -6.62567e-05 -1.73769e-05)
(0.000476316 -7.90353e-05 -1.67563e-05)
(0.000609438 -8.96727e-05 -1.72377e-05)
(0.000738832 -9.76779e-05 -1.86984e-05)
(8.2602e-06 -3.91422e-05 -4.79152e-05)
(5.36123e-05 -6.71197e-05 -4.40836e-05)
(0.000129177 -0.000105386 -4.80793e-05)
(0.000229061 -0.000137555 -4.36324e-05)
(0.000346278 -0.000164925 -3.84095e-05)
(0.00047326 -0.000186267 -3.33797e-05)
(0.000603126 -0.000201832 -2.99748e-05)
(0.000730064 -0.000212465 -2.91196e-05)
(3.4439e-05 -4.68271e-05 -3.63381e-05)
(7.33072e-05 -9.75369e-05 -4.9017e-05)
(0.000149666 -0.000151892 -5.29142e-05)
(0.000245278 -0.000195068 -4.99151e-05)
(0.000358071 -0.000228595 -4.48095e-05)
(0.000480762 -0.000251923 -3.96368e-05)
(0.000607297 -0.000266252 -3.60247e-05)
(0.000732589 -0.000273681 -3.52967e-05)
(3.91081e-05 -5.12633e-05 -2.23854e-05)
(9.08453e-05 -9.93137e-05 -3.39196e-05)
(0.000168369 -0.000152865 -3.88622e-05)
(0.000264766 -0.000195657 -3.87919e-05)
(0.000376344 -0.000228382 -3.67855e-05)
(0.000497276 -0.000251061 -3.45425e-05)
(0.000621969 -0.000265094 -3.3314e-05)
(0.000746164 -0.000273014 -3.38617e-05)
(4.35061e-05 -5.62262e-05 -1.41286e-05)
(0.000100678 -0.000102202 -2.27232e-05)
(0.000181675 -0.000154071 -2.75548e-05)
(0.000279518 -0.000195703 -2.92779e-05)
(0.000391277 -0.000227553 -2.95003e-05)
(0.00051169 -0.000249804 -2.93967e-05)
(0.000635754 -0.000263942 -2.97523e-05)
(0.000759696 -0.000272509 -3.09328e-05)
(4.63636e-05 -5.9595e-05 -9.0046e-06)
(0.000106841 -0.000104672 -1.52329e-05)
(0.000190659 -0.000155574 -1.93632e-05)
(0.00029023 -0.000196179 -2.16804e-05)
(0.000402869 -0.00022732 -2.30331e-05)
(0.000523611 -0.000249263 -2.40676e-05)
(0.000647808 -0.000263524 -2.52223e-05)
(0.000771992 -0.000272543 -2.66174e-05)
(4.81986e-05 -6.17799e-05 -5.73906e-06)
(0.000110813 -0.00010657 -1.0142e-05)
(0.000196716 -0.000157042 -1.33929e-05)
(0.00029785 -0.000197019 -1.56229e-05)
(0.000411557 -0.000227671 -1.7279e-05)
(0.000532981 -0.000249378 -1.86823e-05)
(0.000657668 -0.000263686 -2.00416e-05)
(0.00078235 -0.000272962 -2.13401e-05)
(4.9367e-05 -6.31713e-05 -3.54106e-06)
(0.000113355 -0.000107937 -6.48035e-06)
(0.000200714 -0.000158277 -8.80613e-06)
(0.000303069 -0.000197927 -1.05796e-05)
(0.000417728 -0.000228284 -1.20318e-05)
(0.000539861 -0.000249827 -1.33085e-05)
(0.000665111 -0.000264134 -1.44901e-05)
(0.000790322 -0.000273538 -1.55083e-05)
(5.00638e-05 -6.39997e-05 -1.93167e-06)
(0.000114876 -0.000108822 -3.62155e-06)
(0.000203156 -0.000159157 -5.01541e-06)
(0.000306333 -0.000198659 -6.13998e-06)
(0.00042168 -0.000228857 -7.10412e-06)
(0.000544364 -0.0002503 -7.96611e-06)
(0.00067007 -0.000264593 -8.74866e-06)
(0.0007957 -0.000274055 -9.38946e-06)
(5.03892e-05 -6.43873e-05 -6.14502e-07)
(0.000115589 -0.000109258 -1.16626e-06)
(0.000204315 -0.000159612 -1.63035e-06)
(0.000307904 -0.00019906 -2.01423e-06)
(0.000423608 -0.000229192 -2.34966e-06)
(0.000546588 -0.000250587 -2.65161e-06)
(0.000672544 -0.000264868 -2.92373e-06)
(0.000798402 -0.00027435 -3.14134e-06)
(0.000832097 0.000131178 -2.27465e-06)
(0.000844845 0.000135438 1.40073e-06)
(0.000858877 0.000138671 3.50232e-06)
(0.000871745 0.000140791 4.22671e-06)
(0.000882468 0.000142305 3.9616e-06)
(0.000890657 0.000143374 3.12266e-06)
(0.000896153 0.000144067 1.97238e-06)
(0.000898899 0.000144398 6.72345e-07)
(0.000813663 1.49469e-05 -1.10396e-05)
(0.000827238 1.78176e-05 -8.06057e-06)
(0.000841699 1.98282e-05 -5.93042e-06)
(0.000854825 2.1226e-05 -4.28438e-06)
(0.000865708 2.21886e-05 -3.01546e-06)
(0.000873997 2.28301e-05 -1.99906e-06)
(0.000879558 2.32247e-05 -1.14202e-06)
(0.000882345 2.34138e-05 -3.7153e-07)
(0.000802167 -9.90012e-05 -1.87873e-05)
(0.000816176 -9.77633e-05 -1.68885e-05)
(0.000830574 -9.67561e-05 -1.47893e-05)
(0.000843606 -9.60825e-05 -1.22895e-05)
(0.000854479 -9.56936e-05 -9.59658e-06)
(0.000862797 -9.55114e-05 -6.84267e-06)
(0.000868393 -9.54464e-05 -4.09265e-06)
(0.000871202 -9.54288e-05 -1.36129e-06)
(0.000796609 -0.000215687 -2.91407e-05)
(0.000810503 -0.000215404 -2.76008e-05)
(0.000824492 -0.000214988 -2.49405e-05)
(0.00083728 -0.000214945 -2.12086e-05)
(0.00084808 -0.000215143 -1.68414e-05)
(0.000856407 -0.000215469 -1.21492e-05)
(0.000862034 -0.000215781 -7.31998e-06)
(0.000864864 -0.000215964 -2.44342e-06)
)
;
    }
    symmetry
    {
        type            symmetryPlane;
    }
    bottom
    {
        type            calculated;
        value           uniform (0 0 0);
    }
}


// ************************************************************************* //
