/*--------------------------------*- C++ -*----------------------------------*\
| =========                 |                                                 |
| \\      /  F ield         | foam-extend: Open Source CFD                    |
|  \\    /   O peration     | Version:     3.1                                |
|   \\  /    A nd           | Web:         http://www.extend-project.de       |
|    \\/     M anipulation  |                                                 |
\*---------------------------------------------------------------------------*/
FoamFile
{
    version     2.0;
    format      ascii;
    class       volSymmTensorField;
    location    "0.0013";
    object      epsilon;
}
// * * * * * * * * * * * * * * * * * * * * * * * * * * * * * * * * * * * * * //

dimensions      [0 0 0 0 0 0 0];

internalField   nonuniform List<symmTensor> 
6400
(
(-0.00429639 -0.000277784 0.00837774 0.00186618 0.000193352 0.0154136)
(-0.00232833 -0.000177335 0.00905053 0.00163833 0.000257161 0.00541801)
(-0.000710374 -9.43794e-05 0.00854658 0.00150366 0.000239492 -0.00290973)
(0.000966952 -1.06023e-05 0.00696356 0.00144819 0.000148578 -0.0124749)
(-0.00418853 -0.000720171 0.00833081 0.00183315 0.000968449 0.0152464)
(-0.00225215 -0.000464549 0.00898192 0.00161489 0.00105075 0.00529082)
(-0.000653838 -0.000259084 0.00846918 0.0014986 0.000992286 -0.00304079)
(0.00101228 -5.46107e-05 0.00687656 0.00146663 0.000804868 -0.0126542)
(-0.0040351 -0.0011815 0.00822408 0.00167623 0.00162553 0.0152397)
(-0.00215287 -0.000758589 0.0088676 0.00151736 0.00175572 0.00528668)
(-0.000596686 -0.000421622 0.00836227 0.00144339 0.00165728 -0.00304367)
(0.00102869 -8.73542e-05 0.00679146 0.00145199 0.00134658 -0.0126558)
(-0.00381405 -0.00161259 0.00806879 0.00145398 0.00226944 0.0152362)
(-0.00201107 -0.00103563 0.00870055 0.00137478 0.00244899 0.00528459)
(-0.000517711 -0.000575165 0.00820483 0.0013639 0.00231088 -0.00304464)
(0.0010453 -0.000118597 0.00666369 0.00143448 0.00187789 -0.0126556)
(-0.0035291 -0.00200398 0.00786434 0.00116788 0.00289764 0.0152351)
(-0.00182804 -0.0012873 0.00848031 0.00119078 0.00312599 0.00528434)
(-0.000416116 -0.000714951 0.00799717 0.0012614 0.0029492 -0.00304406)
(0.00106613 -0.000147352 0.00649497 0.00141267 0.00239649 -0.012654)
(-0.00318678 -0.00234613 0.00761159 0.000824594 0.00350674 0.0152355)
(-0.00160807 -0.00150733 0.00820789 0.000969896 0.00378273 0.00528526)
(-0.000294005 -0.000837241 0.00774026 0.00113837 0.00356848 -0.00304252)
(0.00109106 -0.000172577 0.00628619 0.00138673 0.00289952 -0.0126516)
(-0.00279532 -0.00263071 0.00731192 0.000432375 0.00409334 0.0152369)
(-0.00135644 -0.00169031 0.00788483 0.000717513 0.00441534 0.00528688)
(-0.000154289 -0.000938928 0.00743558 0.00099782 0.004165 -0.00304047)
(0.00111961 -0.000193544 0.00603862 0.00135721 0.00338398 -0.0126488)
(-0.00236419 -0.00285077 0.00696706 7.3343e-07 0.00465407 0.015239)
(-0.00107926 -0.00183173 0.00751307 0.000439774 0.00502009 0.00528887)
(-3.47411e-07 -0.00101747 0.00708504 0.00084319 0.00473521 -0.00303827)
(0.00115109 -0.000209678 0.00575388 0.00132482 0.00384694 -0.012646)
(-0.00190383 -0.00300098 0.00657908 -0.000459829 0.00518569 0.0152415)
(-0.000783195 -0.0019281 0.00709499 0.000143476 0.00559342 0.00529087)
(0.000164057 -0.00107087 0.00669096 0.000678327 0.00527571 -0.00303632)
(0.00118475 -0.000220548 0.00543396 0.00129042 0.00428565 -0.0126437)
(-0.00142407 -0.00307806 0.00615073 -0.000938157 0.00568534 0.0152435)
(-0.000475463 -0.001977 0.00663358 -0.00016402 0.00613213 0.00529224)
(0.000334745 -0.00109785 0.00625615 0.000507475 0.00578354 -0.00303511)
(0.00121966 -0.000225953 0.00508114 0.00125507 0.00469771 -0.0126423)
(-0.000938157 -0.00307806 0.00568534 -0.00142407 0.00615073 0.0152435)
(-0.00016402 -0.001977 0.00613213 -0.000475463 0.00663358 0.00529224)
(0.000507475 -0.00109785 0.00578354 0.000334745 0.00625615 -0.00303511)
(0.00125507 -0.000225953 0.00469771 0.00121966 0.00508114 -0.0126423)
(-0.000459829 -0.00300098 0.00518569 -0.00190383 0.00657908 0.0152415)
(0.000143476 -0.0019281 0.00559342 -0.000783195 0.00709499 0.00529087)
(0.000678327 -0.00107087 0.00527571 0.000164057 0.00669096 -0.00303632)
(0.00129042 -0.000220548 0.00428564 0.00118475 0.00543396 -0.0126437)
(7.33358e-07 -0.00285077 0.00465407 -0.00236419 0.00696706 0.015239)
(0.000439774 -0.00183173 0.00502009 -0.00107926 0.00751307 0.00528887)
(0.00084319 -0.00101747 0.0047352 -3.47457e-07 0.00708503 -0.00303828)
(0.00132482 -0.000209678 0.00384694 0.00115109 0.00575388 -0.012646)
(0.000432374 -0.00263071 0.00409334 -0.00279532 0.00731192 0.0152369)
(0.000717512 -0.00169031 0.00441534 -0.00135644 0.00788482 0.00528688)
(0.000997819 -0.000938928 0.004165 -0.000154289 0.00743558 -0.00304047)
(0.00135721 -0.000193543 0.00338398 0.00111961 0.00603862 -0.0126488)
(0.000824594 -0.00234613 0.00350674 -0.00318678 0.00761159 0.0152355)
(0.000969895 -0.00150733 0.00378273 -0.00160807 0.00820789 0.00528525)
(0.00113837 -0.000837241 0.00356848 -0.000294005 0.00774026 -0.00304252)
(0.00138673 -0.000172577 0.00289952 0.00109106 0.00628619 -0.0126516)
(0.00116788 -0.00200398 0.00289764 -0.0035291 0.00786433 0.0152351)
(0.00119078 -0.0012873 0.00312599 -0.00182804 0.0084803 0.00528433)
(0.00126139 -0.000714951 0.0029492 -0.000416116 0.00799717 -0.00304406)
(0.00141267 -0.000147351 0.00239649 0.00106613 0.00649497 -0.012654)
(0.00145398 -0.00161259 0.00226944 -0.00381405 0.00806878 0.0152362)
(0.00137478 -0.00103563 0.00244899 -0.00201107 0.00870054 0.00528459)
(0.0013639 -0.000575165 0.00231088 -0.000517711 0.00820482 -0.00304465)
(0.00143448 -0.000118596 0.00187789 0.0010453 0.00666369 -0.0126556)
(0.00167623 -0.0011815 0.00162553 -0.0040351 0.00822407 0.0152397)
(0.00151736 -0.000758589 0.00175572 -0.00215287 0.0088676 0.00528667)
(0.00144339 -0.000421621 0.00165728 -0.000596686 0.00836226 -0.00304367)
(0.00145198 -8.73539e-05 0.00134658 0.00102869 0.00679145 -0.0126558)
(0.00183315 -0.000720171 0.000968449 -0.00418853 0.00833081 0.0152464)
(0.00161489 -0.000464548 0.00105075 -0.00225215 0.00898191 0.00529081)
(0.0014986 -0.000259084 0.000992285 -0.000653837 0.00846917 -0.00304079)
(0.00146663 -5.46105e-05 0.000804867 0.00101228 0.00687656 -0.0126542)
(0.00186618 -0.000277784 0.000193352 -0.00429639 0.00837774 0.0154136)
(0.00163833 -0.000177335 0.000257161 -0.00232833 0.00905052 0.005418)
(0.00150366 -9.43793e-05 0.000239492 -0.000710374 0.00854657 -0.00290973)
(0.00144819 -1.06023e-05 0.000148578 0.000966952 0.00696356 -0.0124749)
(-0.0078489 -0.000612946 0.00366772 0.00612107 -0.000126852 0.00517721)
(-0.0050866 -0.000465333 0.00681828 0.00556052 4.79842e-05 0.00232593)
(-0.00255462 -0.000327298 0.00668747 0.005156 4.452e-05 -0.00125833)
(-0.000199498 -0.000201193 0.00349693 0.00488728 -0.00012378 -0.00426441)
(-0.00764197 -0.00163347 0.00369443 0.00601851 0.000435881 0.00514064)
(-0.00491413 -0.00124671 0.00677581 0.0054629 0.000802266 0.00226337)
(-0.00241486 -0.000901233 0.00660215 0.0050856 0.000784302 -0.00132469)
(-8.82606e-05 -0.000591192 0.00337631 0.00484556 0.00040778 -0.00431238)
(-0.00729856 -0.00268251 0.00364946 0.00566651 0.000725605 0.00513527)
(-0.0046509 -0.00203798 0.00669101 0.00520411 0.00133213 0.00225596)
(-0.00222198 -0.00147244 0.00651891 0.00489768 0.0013002 -0.00133204)
(4.14204e-05 -0.000967776 0.00333399 0.00471994 0.00066986 -0.00431808)
(-0.0067974 -0.00366179 0.00358073 0.00516389 0.00101032 0.00513363)
(-0.00427071 -0.00278265 0.00656516 0.00482322 0.00185327 0.00225414)
(-0.00194708 -0.00200998 0.00639622 0.00462278 0.00180751 -0.00133344)
(0.000222077 -0.00132087 0.00327106 0.00453875 0.000928619 -0.00431871)
(-0.00615059 -0.00455096 0.00348974 0.00451531 0.00128833 0.00513359)
(-0.00377923 -0.00345909 0.0063989 0.00433036 0.00236256 0.00225442)
(-0.00159222 -0.00249877 0.00623429 0.00426673 0.00230344 -0.00133264)
(0.000455025 -0.00164212 0.00318809 0.0043046 0.00118176 -0.00431731)
(-0.0053732 -0.00532828 0.00337704 0.00373636 0.00155804 0.00513443)
(-0.0031882 -0.00405052 0.00619318 0.00373786 0.00285705 0.00225569)
(-0.00116538 -0.00292624 0.006034 0.00383841 0.00278504 -0.00133087)
(0.000735175 -0.00192307 0.0030856 0.00402287 0.00142768 -0.00431501)
(-0.00448403 -0.00597481 0.0032433 0.00284598 0.00181783 0.00513579)
(-0.00251197 -0.00454237 0.00594919 0.00306035 0.0033337 0.00225742)
(-0.000676892 -0.00328168 0.00579654 0.00334848 0.00324933 -0.00132871)
(0.00105583 -0.0021566 0.0029642 0.00370052 0.00166477 -0.00431245)
(-0.00350468 -0.00647478 0.00308928 0.00186592 0.00206605 0.00513736)
(-0.001767 -0.00492251 0.00566844 0.00231448 0.0037895 0.00225924)
(-0.000138683 -0.00355623 0.00552339 0.00280905 0.00369337 -0.0013266)
(0.00140914 -0.00233682 0.0028247 0.00334558 0.00189146 -0.00431008)
(-0.00245885 -0.00681607 0.00291603 0.000820079 0.00230101 0.00513876)
(-0.000971296 -0.00518154 0.0053528 0.00151857 0.00422158 0.00226078)
(0.000436031 -0.00374302 0.00521638 0.00223356 0.00411436 -0.0013249)
(0.00178638 -0.00245922 0.00266806 0.00296699 0.00210627 -0.00430824)
(-0.00136941 -0.00699101 0.00272585 -0.000266197 0.00252096 0.00513959)
(-0.000144422 -0.00531294 0.00500488 0.000692379 0.00462728 0.00226167)
(0.00103274 -0.00383745 0.00487776 0.00163663 0.00450981 -0.00132394)
(0.002178 -0.00252096 0.00249545 0.00257455 0.00230791 -0.00430724)
(-0.000266197 -0.00699101 0.00252096 -0.00136941 0.00272585 0.00513959)
(0.000692379 -0.00531294 0.00462728 -0.000144423 0.00500488 0.00226167)
(0.00163663 -0.00383745 0.00450981 0.00103274 0.00487776 -0.00132394)
(0.00257455 -0.00252096 0.00230791 0.002178 0.00249545 -0.00430724)
(0.00082008 -0.00681607 0.00230101 -0.00245885 0.00291603 0.00513876)
(0.00151857 -0.00518154 0.00422158 -0.000971297 0.0053528 0.00226078)
(0.00223356 -0.00374302 0.00411436 0.00043603 0.00521638 -0.0013249)
(0.00296699 -0.00245922 0.00210627 0.00178638 0.00266806 -0.00430825)
(0.00186592 -0.00647478 0.00206605 -0.00350468 0.00308928 0.00513735)
(0.00231448 -0.00492251 0.0037895 -0.001767 0.00566844 0.00225924)
(0.00280905 -0.00355623 0.00369337 -0.000138683 0.00552339 -0.0013266)
(0.00334558 -0.00233682 0.00189146 0.00140914 0.0028247 -0.00431008)
(0.00284598 -0.00597481 0.00181783 -0.00448403 0.00324329 0.00513579)
(0.00306035 -0.00454237 0.0033337 -0.00251197 0.00594919 0.00225742)
(0.00334848 -0.00328168 0.00324933 -0.000676892 0.00579654 -0.00132871)
(0.00370052 -0.0021566 0.00166477 0.00105583 0.0029642 -0.00431245)
(0.00373636 -0.00532828 0.00155804 -0.0053732 0.00337704 0.00513443)
(0.00373786 -0.00405052 0.00285705 -0.0031882 0.00619317 0.00225568)
(0.00383841 -0.00292624 0.00278504 -0.00116538 0.006034 -0.00133087)
(0.00402286 -0.00192307 0.00142768 0.000735175 0.0030856 -0.00431501)
(0.00451531 -0.00455095 0.00128833 -0.00615059 0.00348973 0.00513359)
(0.00433035 -0.00345909 0.00236256 -0.00377923 0.00639889 0.00225441)
(0.00426672 -0.00249877 0.00230343 -0.00159222 0.00623428 -0.00133265)
(0.00430459 -0.00164211 0.00118176 0.000455026 0.00318809 -0.00431731)
(0.00516389 -0.00366179 0.00101032 -0.0067974 0.00358073 0.00513363)
(0.00482322 -0.00278265 0.00185327 -0.00427071 0.00656516 0.00225414)
(0.00462278 -0.00200998 0.00180751 -0.00194708 0.00639622 -0.00133345)
(0.00453875 -0.00132087 0.000928618 0.000222077 0.00327106 -0.00431871)
(0.00566651 -0.00268251 0.000725605 -0.00729856 0.00364946 0.00513527)
(0.00520411 -0.00203798 0.00133213 -0.0046509 0.00669101 0.00225596)
(0.00489767 -0.00147244 0.0013002 -0.00222198 0.0065189 -0.00133204)
(0.00471994 -0.000967775 0.000669859 4.14215e-05 0.00333398 -0.00431808)
(0.0060185 -0.00163347 0.000435881 -0.00764197 0.00369442 0.00514064)
(0.0054629 -0.00124671 0.000802266 -0.00491413 0.00677581 0.00226337)
(0.0050856 -0.000901232 0.000784302 -0.00241486 0.00660215 -0.00132469)
(0.00484555 -0.000591192 0.000407779 -8.82593e-05 0.00337631 -0.00431238)
(0.00612106 -0.000612945 -0.000126852 -0.0078489 0.00366771 0.00517721)
(0.00556052 -0.000465333 4.79842e-05 -0.0050866 0.00681827 0.00232593)
(0.005156 -0.000327298 4.45199e-05 -0.00255462 0.00668746 -0.00125833)
(0.00488728 -0.000201193 -0.00012378 -0.000199496 0.00349693 -0.00426441)
(-0.00677424 -0.000744126 0.00231731 0.0107963 -0.00019199 -0.00190124)
(-0.00579649 -0.000674738 0.00404011 0.0100243 -9.82917e-05 -0.00102505)
(-0.00463358 -0.000592292 0.00394201 0.00936093 -0.000101733 -0.000537022)
(-0.00386447 -0.000528564 0.00208707 0.00879834 -0.000196749 0.000293505)
(-0.00656255 -0.002055 0.00231639 0.010622 0.000269118 -0.00188324)
(-0.00558856 -0.00185214 0.00400544 0.00983629 0.000469213 -0.00101699)
(-0.00444612 -0.00163593 0.00387953 0.00918195 0.000456737 -0.000528805)
(-0.00370255 -0.00147429 0.00201027 0.0086167 0.000241364 0.000313146)
(-0.00613723 -0.00337744 0.0022873 0.0101852 0.000453635 -0.00188317)
(-0.00520374 -0.003032 0.00395513 0.00945346 0.000786996 -0.00101686)
(-0.00410465 -0.00267845 0.00383048 0.00884302 0.000764801 -0.000528558)
(-0.00339417 -0.00242192 0.00198596 0.0083123 0.000401423 0.000313276)
(-0.00550778 -0.00461161 0.00224404 0.00955509 0.000633306 -0.00188342)
(-0.00463953 -0.00414076 0.00388054 0.00888876 0.00109675 -0.00101694)
(-0.00360596 -0.00365786 0.00375833 0.00834478 0.00106471 -0.000528374)
(-0.00294365 -0.00330805 0.00194833 0.00786202 0.000557119 0.000313711)
(-0.0046937 -0.00573236 0.00218682 0.00874 0.000808008 -0.00188331)
(-0.00390866 -0.00514788 0.00378203 0.00815717 0.00139832 -0.00101646)
(-0.00296045 -0.00454783 0.00366294 0.00769875 0.00135661 -0.000527465)
(-0.00236008 -0.00411302 0.00189862 0.00727806 0.000708289 0.000315019)
(-0.00371455 -0.00671222 0.00211588 0.00776002 0.000977203 -0.0018828)
(-0.00302918 -0.00602846 0.00366013 0.00727688 0.00169065 -0.00101549)
(-0.00218354 -0.00532599 0.00354502 0.00692098 0.00163952 -0.000526015)
(-0.0016577 -0.00481675 0.00183735 0.00657474 0.00085456 0.00031694)
(-0.00259423 -0.00752726 0.00203163 0.00663921 0.00114003 -0.00188203)
(-0.00202264 -0.0067608 0.0035156 0.00626964 0.00197219 -0.00101428)
(-0.00129428 -0.00597302 0.00340531 0.00603077 0.00191198 -0.000524345)
(-0.000853733 -0.00540171 0.00176496 0.00576957 0.000995269 0.000319057)
(-0.00136007 -0.00815756 0.00193459 0.00540505 0.00129544 -0.00188118)
(-0.000913672 -0.00732682 0.00334937 0.0051603 0.00224124 -0.00101308)
(-0.000314509 -0.00647284 0.00324477 0.0050502 0.00217237 -0.000522765)
(3.20129e-05 -0.00585335 0.00168198 0.0048826 0.00112961 0.00032099)
(-4.20806e-05 -0.00858776 0.00182557 0.00408772 0.00144219 -0.00188045)
(0.000270722 -0.00771248 0.0031627 0.00397618 0.00249601 -0.00101212)
(0.000731639 -0.00681301 0.00306454 0.00400362 0.00241906 -0.000521545)
(0.000977612 -0.00616047 0.00158904 0.00393592 0.00125675 0.000322442)
(0.00133002 -0.00880782 0.00170652 0.00271922 0.00157904 -0.00188004)
(0.00150129 -0.00790805 0.00295736 0.00274665 0.00273496 -0.00101159)
(0.00181792 -0.00698509 0.00286605 0.00291734 0.00265061 -0.000520885)
(0.00195943 -0.00631568 0.00148684 0.00295343 0.00137597 0.000323215)
(0.00271922 -0.00880782 0.00157904 0.00133002 0.00170652 -0.00188004)
(0.00274665 -0.00790805 0.00273496 0.00150129 0.00295736 -0.00101159)
(0.00291734 -0.00698509 0.00265061 0.00181792 0.00286605 -0.000520885)
(0.00295343 -0.00631568 0.00137597 0.00195943 0.00148685 0.000323214)
(0.00408772 -0.00858776 0.00144219 -4.20828e-05 0.00182557 -0.00188045)
(0.00397618 -0.00771248 0.00249601 0.00027072 0.0031627 -0.00101212)
(0.00400362 -0.00681301 0.00241906 0.000731638 0.00306454 -0.000521546)
(0.00393592 -0.00616047 0.00125675 0.000977611 0.00158904 0.000322442)
(0.00540505 -0.00815755 0.00129544 -0.00136008 0.00193459 -0.00188117)
(0.0051603 -0.00732682 0.00224123 -0.000913674 0.00334937 -0.00101308)
(0.0050502 -0.00647284 0.00217237 -0.00031451 0.00324477 -0.000522766)
(0.0048826 -0.00585335 0.00112961 3.2012e-05 0.00168198 0.000320989)
(0.00663921 -0.00752726 0.00114003 -0.00259424 0.00203163 -0.00188203)
(0.00626964 -0.00676079 0.00197219 -0.00202264 0.0035156 -0.00101428)
(0.00603077 -0.00597302 0.00191198 -0.00129428 0.00340531 -0.000524346)
(0.00576957 -0.00540171 0.000995267 -0.000853734 0.00176496 0.000319055)
(0.00776002 -0.00671222 0.000977203 -0.00371455 0.00211588 -0.0018828)
(0.00727687 -0.00602846 0.00169064 -0.00302918 0.00366013 -0.00101549)
(0.00692098 -0.00532599 0.00163951 -0.00218355 0.00354501 -0.000526016)
(0.00657474 -0.00481675 0.000854558 -0.0016577 0.00183735 0.000316938)
(0.00874 -0.00573236 0.000808008 -0.0046937 0.00218681 -0.00188331)
(0.00815717 -0.00514788 0.00139832 -0.00390866 0.00378203 -0.00101646)
(0.00769875 -0.00454782 0.00135661 -0.00296045 0.00366294 -0.000527467)
(0.00727805 -0.00411301 0.000708287 -0.00236008 0.00189862 0.000315017)
(0.00955509 -0.00461161 0.000633306 -0.00550779 0.00224404 -0.00188342)
(0.00888876 -0.00414076 0.00109675 -0.00463953 0.00388054 -0.00101694)
(0.00834477 -0.00365786 0.00106471 -0.00360596 0.00375832 -0.000528376)
(0.00786202 -0.00330805 0.000557118 -0.00294365 0.00194833 0.000313709)
(0.0101852 -0.00337744 0.000453635 -0.00613724 0.0022873 -0.00188317)
(0.00945345 -0.003032 0.000786995 -0.00520374 0.00395513 -0.00101686)
(0.00884301 -0.00267845 0.0007648 -0.00410465 0.00383048 -0.00052856)
(0.00831229 -0.00242192 0.000401422 -0.00339417 0.00198595 0.000313273)
(0.010622 -0.002055 0.000269117 -0.00656256 0.00231639 -0.00188324)
(0.00983629 -0.00185214 0.000469213 -0.00558856 0.00400544 -0.00101699)
(0.00918194 -0.00163593 0.000456737 -0.00444612 0.00387953 -0.000528806)
(0.00861669 -0.00147428 0.000241364 -0.00370255 0.00201027 0.000313143)
(0.0107963 -0.000744126 -0.00019199 -0.00677424 0.00231731 -0.00190123)
(0.0100243 -0.000674738 -9.82917e-05 -0.00579649 0.00404011 -0.00102505)
(0.00936092 -0.000592292 -0.000101733 -0.00463358 0.003942 -0.000537024)
(0.00879834 -0.000528563 -0.00019675 -0.00386447 0.00208707 0.000293502)
(-0.00641379 -0.000887106 0.0012428 0.0148805 -0.000185571 -0.00645509)
(-0.00637238 -0.000854844 0.00211204 0.0139117 -0.000137976 -0.00335257)
(-0.00623041 -0.00081346 0.0020394 0.0130285 -0.000140545 -0.00051455)
(-0.00635701 -0.000780379 0.00106923 0.0122304 -0.000188943 0.00252997)
(-0.00617267 -0.00249036 0.00123479 0.0146445 0.000139332 -0.00640444)
(-0.00613277 -0.00237484 0.00208562 0.0136555 0.000240938 -0.00330581)
(-0.00600297 -0.0022525 0.00199947 0.0127682 0.000233125 -0.000465479)
(-0.00614095 -0.00216272 0.00102286 0.0119466 0.000122317 0.00258782)
(-0.00566022 -0.00409256 0.00121908 0.0141185 0.000238592 -0.00640102)
(-0.00564384 -0.00389058 0.00205897 0.0131634 0.000407868 -0.00330157)
(-0.00553793 -0.00368994 0.00197412 0.0123004 0.000393894 -0.000460898)
(-0.0056916 -0.00355635 0.00101059 0.0115004 0.000205775 0.00259215)
(-0.00489877 -0.00558883 0.00119577 0.013356 0.000335221 -0.00639969)
(-0.00492077 -0.00531384 0.00201976 0.0124386 0.000570358 -0.00329959)
(-0.00485164 -0.00504003 0.00193665 0.0116133 0.000549953 -0.00045846)
(-0.00503081 -0.00485852 0.0009911 0.0108387 0.000286572 0.0025949)
(-0.00391261 -0.00694787 0.001165 0.0123692 0.000428954 -0.00639921)
(-0.00398313 -0.00660666 0.00196809 0.0115003 0.000728026 -0.00329842)
(-0.00396234 -0.00626652 0.00188707 0.0107234 0.000701135 -0.000456702)
(-0.00417379 -0.00604092 0.000965313 0.00998107 0.000364286 0.00259722)
(-0.00272592 -0.00813626 0.00112679 0.0111824 0.000519559 -0.006399)
(-0.00285452 -0.00773712 0.00190421 0.0103713 0.000880483 -0.00329751)
(-0.00289183 -0.00733887 0.00182588 0.00965228 0.000847132 -0.000455139)
(-0.00314205 -0.0070745 0.000933736 0.00894852 0.000438837 0.00259943)
(-0.00136781 -0.00912485 0.00108133 0.00982451 0.000606619 -0.00639885)
(-0.00156268 -0.00867732 0.00182853 0.00907935 0.00102705 -0.00329671)
(-0.00166645 -0.00823051 0.00175356 0.00842637 0.00098736 -0.000453703)
(-0.00196104 -0.00793369 0.000896713 0.00776659 0.000510067 0.0026015)
(0.000128482 -0.00988936 0.00102891 0.0083289 0.000689498 -0.00639871)
(-0.000139306 -0.00940402 0.00174161 0.00765615 0.00116685 -0.00329602)
(-0.000316333 -0.00891935 0.00167068 0.00707588 0.00112107 -0.000452479)
(-0.000659927 -0.00859718 0.000854572 0.00646453 0.000577709 0.00260326)
(0.00172645 -0.0104111 0.000970111 0.00673209 0.000767372 -0.00639859)
(0.00138083 -0.00989917 0.00164422 0.00613669 0.00129894 -0.00329551)
(0.00112522 -0.00938825 0.00157792 0.00563423 0.00124748 -0.000451588)
(0.000729112 -0.00904854 0.000807687 0.00507466 0.00064145 0.00260453)
(0.00338935 -0.0106775 0.000906546 0.00507296 0.000839418 -0.00639854)
(0.00296015 -0.0101502 0.00153755 0.0045586 0.00142251 -0.00329524)
(0.0026222 -0.00962554 0.00147612 0.00413742 0.00136591 -0.000451122)
(0.00217148 -0.00927678 0.00075644 0.00363175 0.00070104 0.00260519)
(0.00507296 -0.0106775 0.000839418 0.00338935 0.000906546 -0.00639854)
(0.0045586 -0.0101502 0.00142251 0.00296015 0.00153755 -0.00329524)
(0.00413742 -0.00962554 0.00136591 0.0026222 0.00147612 -0.000451122)
(0.00363175 -0.00927678 0.000701039 0.00217148 0.000756442 0.00260519)
(0.00673209 -0.0104111 0.000767372 0.00172644 0.000970111 -0.00639859)
(0.00613669 -0.00989917 0.00129894 0.00138082 0.00164422 -0.00329551)
(0.00563423 -0.00938825 0.00124748 0.00112522 0.00157792 -0.000451589)
(0.00507466 -0.00904853 0.000641449 0.00072911 0.000807688 0.00260453)
(0.0083289 -0.00988936 0.000689498 0.000128478 0.00102891 -0.00639871)
(0.00765614 -0.00940402 0.00116685 -0.000139309 0.00174161 -0.00329602)
(0.00707588 -0.00891935 0.00112107 -0.000316335 0.00167068 -0.00045248)
(0.00646453 -0.00859718 0.000577707 -0.000659928 0.000854573 0.00260326)
(0.00982451 -0.00912485 0.000606619 -0.00136782 0.00108133 -0.00639885)
(0.00907935 -0.00867732 0.00102705 -0.00156268 0.00182853 -0.00329671)
(0.00842637 -0.00823051 0.000987359 -0.00166645 0.00175356 -0.000453703)
(0.00776658 -0.00793369 0.000510065 -0.00196104 0.000896713 0.0026015)
(0.0111823 -0.00813626 0.000519559 -0.00272592 0.00112679 -0.006399)
(0.0103713 -0.00773712 0.000880482 -0.00285452 0.00190421 -0.00329751)
(0.00965228 -0.00733886 0.000847131 -0.00289183 0.00182588 -0.00045514)
(0.00894852 -0.0070745 0.000438835 -0.00314205 0.000933736 0.00259943)
(0.0123692 -0.00694787 0.000428954 -0.00391261 0.001165 -0.00639921)
(0.0115003 -0.00660666 0.000728026 -0.00398313 0.00196809 -0.00329842)
(0.0107234 -0.00626651 0.000701134 -0.00396234 0.00188707 -0.000456703)
(0.00998107 -0.00604091 0.000364285 -0.00417379 0.000965312 0.00259722)
(0.013356 -0.00558883 0.000335221 -0.00489877 0.00119577 -0.00639969)
(0.0124386 -0.00531384 0.000570358 -0.00492077 0.00201976 -0.00329959)
(0.0116133 -0.00504002 0.000549952 -0.00485164 0.00193665 -0.000458461)
(0.0108387 -0.00485851 0.000286571 -0.00503081 0.000991099 0.0025949)
(0.0141185 -0.00409256 0.000238592 -0.00566022 0.00121908 -0.00640101)
(0.0131633 -0.00389058 0.000407867 -0.00564385 0.00205897 -0.00330157)
(0.0123004 -0.00368993 0.000393893 -0.00553793 0.00197412 -0.000460899)
(0.0115004 -0.00355635 0.000205774 -0.0056916 0.00101059 0.00259215)
(0.0146445 -0.00249036 0.000139332 -0.00617268 0.00123478 -0.00640444)
(0.0136555 -0.00237484 0.000240937 -0.00613278 0.00208562 -0.00330581)
(0.0127682 -0.0022525 0.000233125 -0.00600297 0.00199947 -0.00046548)
(0.0119466 -0.00216272 0.000122316 -0.00614095 0.00102285 0.00258782)
(0.0148805 -0.000887106 -0.000185571 -0.0064138 0.0012428 -0.00645508)
(0.0139117 -0.000854843 -0.000137976 -0.00637238 0.00211204 -0.00335257)
(0.0130285 -0.00081346 -0.000140545 -0.00623041 0.0020394 -0.000514551)
(0.0122303 -0.000780379 -0.000188943 -0.00635701 0.00106923 0.00252997)
(-0.00646498 -0.00100383 0.000470335 0.0177902 -0.000133098 -0.00888429)
(-0.00687648 -0.000987815 0.000791333 0.0166735 -0.000114859 -0.00472331)
(-0.00723732 -0.000964543 0.000755386 0.015636 -0.000115761 -0.000762929)
(-0.00779301 -0.000943992 0.000382458 0.0146806 -0.000133332 0.00331331)
(-0.00619567 -0.00283711 0.00046234 0.0175125 4.78766e-05 -0.00881922)
(-0.00660857 -0.002758 0.000775634 0.0163725 8.70467e-05 -0.00465936)
(-0.00697798 -0.00267585 0.000734605 0.0153245 8.47053e-05 -0.000695884)
(-0.00753773 -0.00261447 0.000359968 0.0143345 4.40274e-05 0.00338751)
(-0.00561292 -0.00466175 0.000456612 0.0169153 8.46488e-05 -0.00881473)
(-0.00604229 -0.00451903 0.000765342 0.0158006 0.000149371 -0.00465403)
(-0.00642701 -0.00438429 0.000724839 0.0147681 0.000144726 -0.000690102)
(-0.00699507 -0.00430033 0.000355308 0.0137948 7.49074e-05 0.00339329)
(-0.00474618 -0.00636629 0.000447848 0.0160474 0.000120971 -0.00881264)
(-0.0052026 -0.00617206 0.000750288 0.0149586 0.00021025 -0.0046511)
(-0.00561149 -0.00598862 0.000710451 0.013951 0.00020291 -0.000686544)
(-0.00619602 -0.00587516 0.000347775 0.0129938 0.000104624 0.00339741)
(-0.00362312 -0.00791482 0.000436069 0.014924 0.000156438 -0.00881197)
(-0.00411361 -0.0076737 0.000730473 0.0138689 0.000269215 -0.00464951)
(-0.00455472 -0.00744586 0.000691492 0.0128933 0.000258907 -0.000684167)
(-0.00515955 -0.00730479 0.000337939 0.0119561 0.000132656 0.0034006)
(-0.00227137 -0.00926914 0.000421226 0.0135727 0.00019085 -0.00881205)
(-0.00280278 -0.00898684 0.00070602 0.012558 0.000326065 -0.00464862)
(-0.00328273 -0.00871988 0.000668289 0.0116207 0.000312575 -0.000682427)
(-0.00391185 -0.00855437 0.000326192 0.0107074 0.000158922 0.00340324)
(-0.000724158 -0.0103959 0.000403355 0.0120265 0.000223951 -0.00881244)
(-0.00130234 -0.010079 0.000677134 0.0110579 0.000380529 -0.0046481)
(-0.00182678 -0.00977921 0.000641137 0.0101644 0.000363741 -0.000681089)
(-0.00248374 -0.00959309 0.000312803 0.00927828 0.000183446 0.00340544)
(0.000980627 -0.0112673 0.000382615 0.010323 0.000255324 -0.00881291)
(0.000350886 -0.0109233 0.000644109 0.00940522 0.000432235 -0.0046478)
(-0.00022269 -0.0105976 0.000610349 0.00856022 0.000412176 -0.000680081)
(-0.000910447 -0.0103953 0.000297999 0.00770412 0.000206252 0.00340719)
(0.00280129 -0.0118619 0.000359386 0.00850386 0.000284393 -0.00881332)
(0.00211647 -0.0114985 0.0006074 0.00764059 0.000480751 -0.00464764)
(0.00149003 -0.0111548 0.000576301 0.0068476 0.000457634 -0.000679402)
(0.000769145 -0.0109411 0.000281995 0.0060238 0.000227358 0.0034084)
(0.00469553 -0.0121652 0.000335064 0.00661343 0.000310592 -0.00881355)
(0.00395083 -0.0117902 0.000567806 0.00580756 0.000525787 -0.00464757)
(0.00326872 -0.0114369 0.000539445 0.00506919 0.000499983 -0.000679063)
(0.00251332 -0.0112172 0.000264957 0.00427917 0.000246843 0.00340902)
(0.00661343 -0.0121652 0.000310592 0.00469552 0.000335064 -0.00881355)
(0.00580756 -0.0117902 0.000525787 0.00395083 0.000567806 -0.00464757)
(0.00506919 -0.0114369 0.000499982 0.00326872 0.000539445 -0.000679063)
(0.00427917 -0.0112172 0.000246842 0.00251332 0.000264957 0.00340902)
(0.00850386 -0.0118619 0.000284393 0.00280128 0.000359387 -0.00881331)
(0.00764059 -0.0114985 0.00048075 0.00211647 0.0006074 -0.00464764)
(0.0068476 -0.0111548 0.000457633 0.00149003 0.000576301 -0.000679402)
(0.0060238 -0.0109411 0.000227357 0.000769143 0.000281996 0.0034084)
(0.010323 -0.0112673 0.000255324 0.000980622 0.000382615 -0.00881291)
(0.00940522 -0.0109233 0.000432235 0.000350882 0.000644109 -0.0046478)
(0.00856021 -0.0105976 0.000412175 -0.000222692 0.00061035 -0.000680081)
(0.00770412 -0.0103953 0.000206251 -0.000910449 0.000298 0.00340719)
(0.0120265 -0.0103959 0.000223951 -0.000724164 0.000403355 -0.00881244)
(0.0110579 -0.010079 0.000380529 -0.00130234 0.000677134 -0.0046481)
(0.0101644 -0.0097792 0.00036374 -0.00182678 0.000641137 -0.000681089)
(0.00927827 -0.00959309 0.000183445 -0.00248374 0.000312803 0.00340544)
(0.0135727 -0.00926914 0.00019085 -0.00227138 0.000421226 -0.00881204)
(0.012558 -0.00898684 0.000326064 -0.00280278 0.00070602 -0.00464862)
(0.0116207 -0.00871987 0.000312574 -0.00328273 0.000668289 -0.000682427)
(0.0107074 -0.00855436 0.000158921 -0.00391185 0.000326192 0.00340324)
(0.014924 -0.00791482 0.000156438 -0.00362313 0.000436069 -0.00881197)
(0.0138689 -0.0076737 0.000269214 -0.00411361 0.000730473 -0.00464951)
(0.0128933 -0.00744585 0.000258906 -0.00455473 0.000691492 -0.000684167)
(0.0119561 -0.00730479 0.000132655 -0.00515955 0.000337939 0.0034006)
(0.0160474 -0.00636629 0.00012097 -0.00474619 0.000447848 -0.00881264)
(0.0149586 -0.00617206 0.00021025 -0.00520261 0.000750288 -0.0046511)
(0.013951 -0.00598862 0.000202909 -0.00561149 0.00071045 -0.000686544)
(0.0129938 -0.00587516 0.000104623 -0.00619601 0.000347774 0.00339741)
(0.0169153 -0.00466175 8.46486e-05 -0.00561292 0.000456611 -0.00881472)
(0.0158006 -0.00451903 0.000149371 -0.0060423 0.000765341 -0.00465403)
(0.0147681 -0.00438428 0.000144726 -0.00642701 0.000724838 -0.000690102)
(0.0137948 -0.00430032 7.49069e-05 -0.00699507 0.000355308 0.00339329)
(0.0175125 -0.00283711 4.78764e-05 -0.00619568 0.000462339 -0.00881922)
(0.0163725 -0.002758 8.70465e-05 -0.00660857 0.000775634 -0.00465936)
(0.0153245 -0.00267585 8.47051e-05 -0.00697798 0.000734605 -0.000695884)
(0.0143345 -0.00261447 4.40271e-05 -0.00753773 0.000359967 0.0033875)
(0.0177901 -0.00100383 -0.000133098 -0.00646498 0.000470334 -0.00888429)
(0.0166734 -0.000987815 -0.000114859 -0.00687649 0.000791333 -0.0047233)
(0.015636 -0.000964543 -0.000115761 -0.00723732 0.000755386 -0.000762929)
(0.0146806 -0.000943991 -0.000133332 -0.00779301 0.000382457 0.0033133)
(-0.006607 -0.00106871 -7.89396e-05 0.019267 -5.88224e-05 -0.00968277)
(-0.00714406 -0.00105616 -0.000125336 0.0180744 -6.04873e-05 -0.00528076)
(-0.00766317 -0.00103751 -0.000127771 0.0169617 -5.9882e-05 -0.00104029)
(-0.00833628 -0.00101882 -8.7022e-05 0.0159332 -5.64014e-05 0.00326328)
(-0.00632006 -0.00302711 -8.35968e-05 0.0189704 -1.59955e-05 -0.0096154)
(-0.00685946 -0.00295448 -0.000130078 0.0177531 -1.84804e-05 -0.00521329)
(-0.00738621 -0.00288167 -0.000132063 0.0166277 -1.60184e-05 -0.00096966)
(-0.00806057 -0.00282369 -9.02352e-05 0.0155608 -8.16817e-06 0.00333982)
(-0.00569844 -0.00497371 -8.22608e-05 0.0183347 -2.42949e-05 -0.00961111)
(-0.00625301 -0.00484093 -0.000129132 0.0171409 -2.91794e-05 -0.00520832)