/*--------------------------------*- C++ -*----------------------------------*\
| =========                 |                                                 |
| \\      /  F ield         | foam-extend: Open Source CFD                    |
|  \\    /   O peration     | Version:     3.1                                |
|   \\  /    A nd           | Web:         http://www.extend-project.de       |
|    \\/     M anipulation  |                                                 |
\*---------------------------------------------------------------------------*/
FoamFile
{
    version     2.0;
    format      ascii;
    class       pointVectorField;
    location    "0.0013";
    object      pointD;
}
// * * * * * * * * * * * * * * * * * * * * * * * * * * * * * * * * * * * * * //

dimensions      [0 1 0 0 0 0 0];

internalField   nonuniform List<vector> 
8505
(
(0 0 0)
(0 0 0)
(0 0 0)
(0 0 0)
(0 0 0)
(0 0 0)
(0 0 0)
(0 0 0)
(0 0 0)
(0 0 0)
(0 0 0)
(0 0 0)
(0 0 0)
(0 0 0)
(0 0 0)
(0 0 0)
(0 0 0)
(0 0 0)
(0 0 0)
(0 0 0)
(0 0 0)
(0 0 0)
(0 0 0)
(0 0 0)
(0 0 0)
(0 0 0)
(0 0 0)
(0 0 0)
(0 0 0)
(0 0 0)
(0 0 0)
(0 0 0)
(0 0 0)
(0 0 0)
(0 0 0)
(0 0 0)
(0 0 0)
(0 0 0)
(0 0 0)
(0 0 0)
(0 0 0)
(0 0 0)
(0 0 0)
(0 0 0)
(0 0 0)
(0 0 0)
(0 0 0)
(0 0 0)
(0 0 0)
(0 0 0)
(0 0 0)
(0 0 0)
(0 0 0)
(0 0 0)
(0 0 0)
(0 0 0)
(0 0 0)
(0 0 0)
(0 0 0)
(0 0 0)
(0 0 0)
(0 0 0)
(0 0 0)
(0 0 0)
(0 0 0)
(0 0 0)
(0 0 0)
(0 0 0)
(0 0 0)
(0 0 0)
(0 0 0)
(0 0 0)
(0 0 0)
(0 0 0)
(0 0 0)
(0 0 0)
(0 0 0)
(0 0 0)
(0 0 0)
(0 0 0)
(0 0 0)
(0 0 0)
(0 0 0)
(0 0 0)
(0 0 0)
(0 0 0)
(0 0 0)
(0 0 0)
(0 0 0)
(0 0 0)
(0 0 0)
(0 0 0)
(0 0 0)
(0 0 0)
(0 0 0)
(0 0 0)
(0 0 0)
(0 0 0)
(0 0 0)
(0 0 0)
(0 0 0)
(0 0 0)
(0 0 0)
(0 0 0)
(0 0 0)
(2.06928e-05 0 1.34123e-05)
(1.8523e-05 0 6.11776e-06)
(1.73422e-05 0 8.51365e-07)
(1.69718e-05 0 -4.28905e-06)
(1.74381e-05 0 -1.10342e-05)
(2.05464e-05 1.58586e-06 1.31689e-05)
(1.84137e-05 1.43038e-06 5.95298e-06)
(1.72618e-05 1.34347e-06 7.04406e-07)
(1.69188e-05 1.31709e-06 -4.46471e-06)
(1.74179e-05 1.35464e-06 -1.13031e-05)
(2.03441e-05 3.20562e-06 1.31621e-05)
(1.82346e-05 2.87472e-06 5.94926e-06)
(1.70963e-05 2.69732e-06 7.01749e-07)
(1.67597e-05 2.64574e-06 -4.46685e-06)
(1.72588e-05 2.72565e-06 -1.1304e-05)
(2.00244e-05 4.79649e-06 1.31584e-05)
(1.79487e-05 4.29996e-06 5.94682e-06)
(1.68286e-05 4.03317e-06 7.00194e-07)
(1.64978e-05 3.95547e-06 -4.46771e-06)
(1.69894e-05 4.07469e-06 -1.13039e-05)
(1.95834e-05 6.35533e-06 1.31567e-05)
(1.75536e-05 5.69727e-06 5.94591e-06)
(1.64582e-05 5.34314e-06 6.99878e-07)
(1.61347e-05 5.23958e-06 -4.46742e-06)
(1.66156e-05 5.39692e-06 -1.13029e-05)
(1.90226e-05 7.87347e-06 1.31564e-05)
(1.70508e-05 7.0583e-06 5.946e-06)
(1.59868e-05 6.61922e-06 7.00379e-07)
(1.56724e-05 6.49046e-06 -4.46644e-06)
(1.61394e-05 6.68495e-06 -1.13012e-05)
(1.83449e-05 9.34205e-06 1.31569e-05)
(1.64431e-05 8.37489e-06 5.94672e-06)
(1.54168e-05 7.85363e-06 7.01365e-07)
(1.51135e-05 7.7005e-06 -4.46507e-06)
(1.55636e-05 7.93095e-06 -1.12993e-05)
(1.75542e-05 1.07524e-05 1.31581e-05)
(1.5734e-05 9.63914e-06 5.94784e-06)
(1.47518e-05 9.0389e-06 7.02602e-07)
(1.44614e-05 8.8623e-06 -4.46355e-06)
(1.48919e-05 9.12725e-06 -1.12972e-05)
(1.66554e-05 1.20961e-05 1.31597e-05)
(1.49279e-05 1.08435e-05 5.94917e-06)
(1.39958e-05 1.01679e-05 7.03882e-07)
(1.37202e-05 9.96885e-06 -4.4621e-06)
(1.41285e-05 1.02666e-05 -1.12953e-05)
(1.56538e-05 1.33655e-05 1.31617e-05)
(1.40298e-05 1.1981e-05 5.95048e-06)
(1.31537e-05 1.1234e-05 7.0495e-07)
(1.28948e-05 1.10136e-05 -4.46101e-06)
(1.32787e-05 1.13422e-05 -1.12939e-05)
(1.45543e-05 1.45543e-05 1.31627e-05)
(1.30452e-05 1.30452e-05 5.95109e-06)
(1.22312e-05 1.22312e-05 7.05394e-07)
(1.19907e-05 1.19907e-05 -4.46059e-06)
(1.2348e-05 1.2348e-05 -1.12934e-05)
(1.33655e-05 1.56538e-05 1.31617e-05)
(1.1981e-05 1.40298e-05 5.95048e-06)
(1.1234e-05 1.31537e-05 7.0495e-07)
(1.10136e-05 1.28948e-05 -4.46101e-06)
(1.13421e-05 1.32787e-05 -1.12939e-05)
(1.20961e-05 1.66554e-05 1.31597e-05)
(1.08435e-05 1.49279e-05 5.94917e-06)
(1.01679e-05 1.39958e-05 7.03882e-07)
(9.96885e-06 1.37202e-05 -4.4621e-06)
(1.02666e-05 1.41285e-05 -1.12953e-05)
(1.07524e-05 1.75542e-05 1.31581e-05)
(9.63914e-06 1.5734e-05 5.94783e-06)
(9.0389e-06 1.47518e-05 7.02601e-07)
(8.8623e-06 1.44613e-05 -4.46355e-06)
(9.12725e-06 1.48919e-05 -1.12972e-05)
(9.34204e-06 1.83449e-05 1.31569e-05)
(8.37489e-06 1.64431e-05 5.94671e-06)
(7.85363e-06 1.54168e-05 7.01364e-07)
(7.70049e-06 1.51135e-05 -4.46507e-06)
(7.93094e-06 1.55636e-05 -1.12993e-05)
(7.87347e-06 1.90226e-05 1.31564e-05)
(7.0583e-06 1.70508e-05 5.94599e-06)
(6.61921e-06 1.59868e-05 7.00377e-07)
(6.49046e-06 1.56724e-05 -4.46644e-06)
(6.68495e-06 1.61394e-05 -1.13012e-05)
(6.35533e-06 1.95834e-05 1.31567e-05)
(5.69727e-06 1.75536e-05 5.94591e-06)
(5.34314e-06 1.64582e-05 6.99876e-07)
(5.23958e-06 1.61347e-05 -4.46742e-06)
(5.39692e-06 1.66156e-05 -1.13029e-05)
(4.79649e-06 2.00244e-05 1.31584e-05)
(4.29995e-06 1.79487e-05 5.94682e-06)
(4.03316e-06 1.68286e-05 7.00192e-07)
(3.95547e-06 1.64978e-05 -4.46771e-06)
(4.07469e-06 1.69894e-05 -1.13039e-05)
(3.20562e-06 2.03441e-05 1.31621e-05)
(2.87472e-06 1.82345e-05 5.94926e-06)
(2.69732e-06 1.70963e-05 7.01747e-07)
(2.64574e-06 1.67597e-05 -4.46685e-06)
(2.72565e-06 1.72588e-05 -1.1304e-05)
(1.58585e-06 2.05464e-05 1.31689e-05)
(1.43038e-06 1.84137e-05 5.95298e-06)
(1.34347e-06 1.72618e-05 7.04404e-07)
(1.31709e-06 1.69188e-05 -4.46471e-06)
(1.35464e-06 1.74179e-05 -1.13031e-05)
(0 2.06928e-05 1.34122e-05)
(0 1.8523e-05 6.11776e-06)
(0 1.73421e-05 8.51363e-07)
(0 1.69718e-05 -4.28905e-06)
(0 1.74381e-05 -1.10342e-05)
(4.49004e-05 0 1.73254e-05)
(4.31144e-05 0 8.72742e-06)
(4.17224e-05 0 1.23732e-06)
(4.07883e-05 0 -6.15564e-06)
(4.01969e-05 0 -1.44331e-05)
(4.47034e-05 3.49425e-06 1.70657e-05)
(4.29276e-05 3.3684e-06 8.49806e-06)
(4.15531e-05 3.26534e-06 1.0131e-06)
(4.06359e-05 3.19732e-06 -6.40525e-06)
(4.00546e-05 3.15673e-06 -1.47365e-05)
(4.42795e-05 6.99868e-06 1.70557e-05)
(4.25196e-05 6.7246e-06 8.48745e-06)
(4.11596e-05 6.51372e-06 1.00289e-06)
(4.02531e-05 6.3741e-06 -6.41456e-06)
(3.96785e-05 6.28661e-06 -1.47421e-05)
(4.35871e-05 1.04525e-05 1.70506e-05)
(4.18551e-05 1.00399e-05 8.483e-06)
(4.05164e-05 9.72215e-06 9.9927e-07)
(3.96242e-05 9.5114e-06 -6.41702e-06)
(3.90586e-05 9.37869e-06 -1.47429e-05)
(4.26283e-05 1.38405e-05 1.70486e-05)
(4.09345e-05 1.32929e-05 8.48172e-06)
(3.96251e-05 1.28707e-05 9.98837e-07)
(3.87523e-05 1.25902e-05 -6.41646e-06)
(3.8199e-05 1.2413e-05 -1.47412e-05)
(4.14078e-05 1.71422e-05 1.70485e-05)
(3.97623e-05 1.64634e-05 8.48224e-06)
(3.84902e-05 1.59395e-05 1.00008e-06)
(3.76422e-05 1.55911e-05 -6.41437e-06)
(3.71044e-05 1.53708e-05 -1.47381e-05)
(3.99325e-05 2.03376e-05 1.70496e-05)
(3.83453e-05 1.95318e-05 8.48382e-06)
(3.71183e-05 1.89096e-05 1.00221e-06)
(3.63002e-05 1.84955e-05 -6.41155e-06)
(3.57813e-05 1.82335e-05 -1.47344e-05)
(3.82112e-05 2.34071e-05 1.70516e-05)
(3.6692e-05 2.24793e-05 8.48599e-06)
(3.55176e-05 2.17625e-05 1.00471e-06)
(3.47345e-05 2.12852e-05 -6.40851e-06)
(3.42377e-05 2.09831e-05 -1.47306e-05)
(3.62544e-05 2.63322e-05 1.70542e-05)
(3.48125e-05 2.5288e-05 8.48838e-06)
(3.3698e-05 2.44809e-05 1.00717e-06)
(3.2955e-05 2.39433e-05 -6.40575e-06)
(3.24836e-05 2.36028e-05 -1.47273e-05)
(3.40739e-05 2.90957e-05 1.70569e-05)
(3.27184e-05 2.79411e-05 8.49047e-06)
(3.16711e-05 2.70484e-05 1.00908e-06)
(3.0973e-05 2.64535e-05 -6.40374e-06)
(3.05302e-05 2.60766e-05 -1.4725e-05)
(3.16821e-05 3.16821e-05 1.70582e-05)
(3.04229e-05 3.04229e-05 8.49137e-06)
(2.94499e-05 2.94499e-05 1.00983e-06)
(2.88014e-05 2.88014e-05 -6.40299e-06)
(2.83902e-05 2.83902e-05 -1.47241e-05)
(2.90957e-05 3.40739e-05 1.70569e-05)
(2.79411e-05 3.27184e-05 8.49047e-06)
(2.70484e-05 3.16711e-05 1.00908e-06)
(2.64535e-05 3.0973e-05 -6.40374e-06)
(2.60766e-05 3.05302e-05 -1.4725e-05)
(2.63322e-05 3.62544e-05 1.70542e-05)
(2.5288e-05 3.48125e-05 8.48838e-06)
(2.44809e-05 3.3698e-05 1.00717e-06)
(2.39432e-05 3.2955e-05 -6.40575e-06)
(2.36028e-05 3.24836e-05 -1.47273e-05)
(2.34071e-05 3.82112e-05 1.70516e-05)
(2.24793e-05 3.6692e-05 8.48599e-06)
(2.17625e-05 3.55175e-05 1.00471e-06)
(2.12852e-05 3.47345e-05 -6.40851e-06)
(2.09831e-05 3.42377e-05 -1.47306e-05)
(2.03376e-05 3.99325e-05 1.70496e-05)
(1.95318e-05 3.83453e-05 8.48381e-06)
(1.89096e-05 3.71182e-05 1.0022e-06)
(1.84954e-05 3.63002e-05 -6.41155e-06)
(1.82335e-05 3.57813e-05 -1.47344e-05)
(1.71422e-05 4.14078e-05 1.70485e-05)
(1.64634e-05 3.97623e-05 8.48224e-06)
(1.59395e-05 3.84902e-05 1.00008e-06)
(1.55911e-05 3.76422e-05 -6.41437e-06)
(1.53708e-05 3.71044e-05 -1.47381e-05)
(1.38405e-05 4.26283e-05 1.70486e-05)
(1.32929e-05 4.09344e-05 8.48172e-06)
(1.28707e-05 3.96251e-05 9.98835e-07)
(1.25901e-05 3.87523e-05 -6.41646e-06)
(1.2413e-05 3.8199e-05 -1.47412e-05)
(1.04525e-05 4.35871e-05 1.70506e-05)
(1.00399e-05 4.18551e-05 8.48299e-06)
(9.72215e-06 4.05164e-05 9.99267e-07)
(9.5114e-06 3.96242e-05 -6.41702e-06)
(9.37868e-06 3.90586e-05 -1.47429e-05)
(6.99868e-06 4.42795e-05 1.70557e-05)
(6.7246e-06 4.25195e-05 8.48744e-06)
(6.51372e-06 4.11596e-05 1.00289e-06)
(6.37409e-06 4.0253e-05 -6.41456e-06)
(6.28661e-06 3.96784e-05 -1.4742e-05)
(3.49425e-06 4.47034e-05 1.70657e-05)
(3.36839e-06 4.29276e-05 8.49806e-06)
(3.26534e-06 4.15531e-05 1.0131e-06)
(3.19732e-06 4.06359e-05 -6.40525e-06)
(3.15672e-06 4.00546e-05 -1.47365e-05)
(0 4.49004e-05 1.73254e-05)
(0 4.31144e-05 8.72742e-06)
(0 4.17224e-05 1.23732e-06)
(0 4.07883e-05 -6.15564e-06)
(0 4.01969e-05 -1.44331e-05)
(6.82048e-05 0 1.57249e-05)
(6.65871e-05 0 7.92269e-06)
(6.50593e-05 0 7.48596e-07)
(6.36565e-05 0 -6.35022e-06)
(6.23014e-05 0 -1.39012e-05)
(6.79465e-05 5.33006e-06 1.54963e-05)
(6.63299e-05 5.21547e-06 7.70674e-06)
(6.48077e-05 5.10211e-06 5.3042e-07)
(6.34102e-05 4.99879e-06 -6.58624e-06)
(6.2057e-05 4.90514e-06 -1.41696e-05)
(6.73099e-05 1.06485e-05 1.54865e-05)
(6.57057e-05 1.04e-05 7.6966e-06)
(6.41968e-05 1.01672e-05 5.20501e-07)
(6.28118e-05 9.95401e-06 -6.59498e-06)
(6.14712e-05 9.74812e-06 -1.41753e-05)
(6.626e-05 1.5895e-05 1.54812e-05)
(6.46805e-05 1.55207e-05 7.69191e-06)
(6.31945e-05 1.51693e-05 5.16667e-07)
(6.18306e-05 1.48473e-05 -6.59747e-06)
(6.05102e-05 1.45356e-05 -1.41762e-05)
(6.48031e-05 2.10428e-05 1.5479e-05)
(6.3258e-05 2.05453e-05 7.69065e-06)
(6.18042e-05 2.00778e-05 5.16462e-07)
(6.04698e-05 1.96492e-05 -6.59645e-06)
(5.91779e-05 1.92341e-05 -1.41738e-05)
(6.29475e-05 2.60603e-05 1.54789e-05)
(6.14463e-05 2.54429e-05 7.6915e-06)
(6.00337e-05 2.48624e-05 5.18337e-07)
(5.87371e-05 2.433e-05 -6.59342e-06)
(5.74817e-05 2.38143e-05 -1.41695e-05)
(6.07044e-05 3.09168e-05 1.54804e-05)
(5.92562e-05 3.01834e-05 7.69364e-06)
(5.78935e-05 2.94936e-05 5.21334e-07)
(5.66428e-05 2.88606e-05 -6.58941e-06)
(5.54317e-05 2.82476e-05 -1.41643e-05)
(5.80873e-05 3.55827e-05 1.54828e-05)
(5.67011e-05 3.47377e-05 7.69648e-06)
(5.53968e-05 3.39427e-05 5.24768e-07)
(5.41996e-05 3.3213e-05 -6.58518e-06)
(5.30405e-05 3.25064e-05 -1.41591e-05)
(5.51122e-05 4.00297e-05 1.54858e-05)
(5.37965e-05 3.90781e-05 7.69948e-06)
(5.25589e-05 3.81825e-05 5.28035e-07)
(5.1423e-05 3.73604e-05 -6.58141e-06)
(5.03232e-05 3.65645e-05 -1.41546e-05)
(5.17973e-05 4.42309e-05 1.54889e-05)
(5.05605e-05 4.31782e-05 7.702e-06)
(4.93976e-05 4.21873e-05 5.30495e-07)
(4.83305e-05 4.12778e-05 -6.57873e-06)
(4.72972e-05 4.03972e-05 -1.41515e-05)
(4.8162e-05 4.8162e-05 1.54903e-05)
(4.70135e-05 4.70135e-05 7.70304e-06)
(4.59332e-05 4.59332e-05 5.31439e-07)
(4.49418e-05 4.49418e-05 -6.57774e-06)
(4.39818e-05 4.39818e-05 -1.41504e-05)
(4.42309e-05 5.17973e-05 1.54889e-05)
(4.31782e-05 5.05605e-05 7.70199e-06)
(4.21873e-05 4.93976e-05 5.30494e-07)
(4.12778e-05 4.83305e-05 -6.57873e-06)
(4.03972e-05 4.72972e-05 -1.41515e-05)
(4.00297e-05 5.51122e-05 1.54858e-05)
(3.90781e-05 5.37965e-05 7.69947e-06)
(3.81825e-05 5.25589e-05 5.28033e-07)
(3.73604e-05 5.1423e-05 -6.58141e-06)
(3.65645e-05 5.03232e-05 -1.41546e-05)
(3.55827e-05 5.80873e-05 1.54828e-05)
(3.47377e-05 5.67011e-05 7.69648e-06)
(3.39426e-05 5.53967e-05 5.24767e-07)
(3.3213e-05 5.41996e-05 -6.58519e-06)
(3.25064e-05 5.30405e-05 -1.41591e-05)
(3.09168e-05 6.07044e-05 1.54804e-05)
(3.01834e-05 5.92562e-05 7.69364e-06)
(2.94936e-05 5.78935e-05 5.21332e-07)
(2.88606e-05 5.66427e-05 -6.58941e-06)
(2.82476e-05 5.54316e-05 -1.41643e-05)
(2.60603e-05 6.29475e-05 1.54789e-05)
(2.54429e-05 6.14463e-05 7.6915e-06)
(2.48624e-05 6.00337e-05 5.18334e-07)
(2.433e-05 5.87371e-05 -6.59342e-06)
(2.38143e-05 5.74817e-05 -1.41695e-05)
(2.10428e-05 6.4803e-05 1.5479e-05)
(2.05453e-05 6.3258e-05 7.69064e-06)
(2.00778e-05 6.18041e-05 5.16459e-07)
(1.96492e-05 6.04698e-05 -6.59645e-06)
(1.92341e-05 5.91779e-05 -1.41738e-05)
(1.5895e-05 6.62599e-05 1.54812e-05)
(1.55207e-05 6.46805e-05 7.6919e-06)
(1.51693e-05 6.31944e-05 5.16663e-07)
(1.48473e-05 6.18306e-05 -6.59748e-06)
(1.45356e-05 6.05101e-05 -1.41762e-05)
(1.06485e-05 6.73099e-05 1.54865e-05)
(1.04e-05 6.57057e-05 7.6966e-06)
(1.01672e-05 6.41968e-05 5.20497e-07)
(9.954e-06 6.28118e-05 -6.59498e-06)
(9.74811e-06 6.14712e-05 -1.41753e-05)
(5.33005e-06 6.79464e-05 1.54963e-05)
(5.21547e-06 6.63299e-05 7.70673e-06)
(5.10211e-06 6.48077e-05 5.30416e-07)
(4.99879e-06 6.34102e-05 -6.58624e-06)
(4.90514e-06 6.20569e-05 -1.41696e-05)
(0 6.82048e-05 1.57249e-05)
(0 6.65871e-05 7.92269e-06)
(0 6.50593e-05 7.48592e-07)
(0 6.36565e-05 -6.35022e-06)
(0 6.23013e-05 -1.39012e-05)
(8.66329e-05 0 1.06e-05)
(8.50311e-05 0 4.90145e-06)
(8.33571e-05 0 -4.8948e-07)
(8.16301e-05 0 -5.82585e-06)
(7.97949e-05 0 -1.13463e-05)
(8.6321e-05 6.77779e-06 1.04363e-05)
(8.47155e-05 6.66388e-06 4.74114e-06)
(8.30408e-05 6.5394e-06 -6.53714e-07)
(8.13127e-05 6.41232e-06 -6.00092e-06)
(7.94755e-05 6.28596e-06 -1.15381e-05)
(8.55148e-05 1.35304e-05 1.04291e-05)
(8.39204e-05 1.32847e-05 4.73447e-06)
(8.22587e-05 1.30293e-05 -6.59772e-07)
(8.05448e-05 1.27662e-05 -6.00579e-06)
(7.87241e-05 1.2487e-05 -1.15408e-05)
(8.41811e-05 2.01938e-05 1.04247e-05)
(8.26107e-05 1.98236e-05 4.73124e-06)
(8.09739e-05 1.9438e-05 -6.61816e-07)
(7.92859e-05 1.90404e-05 -6.00636e-06)
(7.74923e-05 1.86174e-05 -1.15397e-05)
(8.23295e-05 2.67321e-05 1.04228e-05)
(8.07929e-05 2.62395e-05 4.73065e-06)
(7.91912e-05 2.57262e-05 -6.60988e-07)
(7.75396e-05 2.51968e-05 -6.00399e-06)
(7.57846e-05 2.46336e-05 -1.15357e-05)
(7.9971e-05 3.31052e-05 1.04227e-05)
(7.84777e-05 3.24933e-05 4.7319e-06)
(7.69213e-05 3.18555e-05 -6.58303e-07)
(7.53162e-05 3.11975e-05 -5.99976e-06)
(7.36108e-05 3.04977e-05 -1.15297e-05)
(7.712e-05 3.92743e-05 1.04239e-05)
(7.56792e-05 3.85467e-05 4.73436e-06)
(7.41777e-05 3.77881e-05 -6.54566e-07)
(7.26293e-05 3.70056e-05 -5.9946e-06)
(7.09841e-05 3.61735e-05 -1.1523e-05)
(7.37939e-05 4.52016e-05 1.04263e-05)
(7.24147e-05 4.43627e-05 4.73748e-06)
(7.09775e-05 4.34879e-05 -6.50468e-07)
(6.94956e-05 4.25854e-05 -5.98934e-06)
(6.79211e-05 4.16261e-05 -1.15164e-05)
(7.00133e-05 5.08512e-05 1.04292e-05)
(6.87044e-05 4.99058e-05 4.74072e-06)
(6.73407e-05 4.89199e-05 -6.46669e-07)
(6.59348e-05 4.79029e-05 -5.98474e-06)
(6.44409e-05 4.6822e-05 -1.15108e-05)
(6.58013e-05 5.61888e-05 1.04322e-05)
(6.45711e-05 5.51423e-05 4.74339e-06)
(6.329e-05 5.40511e-05 -6.43868e-07)
(6.19692e-05 5.29257e-05 -5.98153e-06)
(6.05658e-05 5.17297e-05 -1.1507e-05)
(6.1183e-05 6.1183e-05 1.04336e-05)
(6.00409e-05 6.00409e-05 4.74449e-06)
(5.88508e-05 5.88509e-05 -6.42808e-07)
(5.76238e-05 5.76239e-05 -5.98037e-06)
(5.632e-05 5.632e-05 -1.15056e-05)
(5.61888e-05 6.58013e-05 1.04322e-05)
(5.51423e-05 6.45711e-05 4.74339e-06)
(5.40511e-05 6.329e-05 -6.43868e-07)
(5.29257e-05 6.19692e-05 -5.98153e-06)
(5.17297e-05 6.05658e-05 -1.1507e-05)
(5.08512e-05 7.00133e-05 1.04292e-05)
(4.99058e-05 6.87044e-05 4.74072e-06)
(4.89199e-05 6.73407e-05 -6.46671e-07)
(4.79029e-05 6.59348e-05 -5.98474e-06)
(4.6822e-05 6.44409e-05 -1.15108e-05)
(4.52016e-05 7.37939e-05 1.04263e-05)
(4.43627e-05 7.24147e-05 4.73748e-06)
(4.34879e-05 7.09775e-05 -6.5047e-07)
(4.25854e-05 6.94956e-05 -5.98934e-06)
(4.16261e-05 6.79211e-05 -1.15164e-05)
(3.92743e-05 7.71199e-05 1.04239e-05)
(3.85467e-05 7.56792e-05 4.73436e-06)
(3.77881e-05 7.41777e-05 -6.54568e-07)
(3.70056e-05 7.26293e-05 -5.9946e-06)
(3.61735e-05 7.09841e-05 -1.1523e-05)
(3.31052e-05 7.99709e-05 1.04227e-05)
(3.24933e-05 7.84777e-05 4.7319e-06)
(3.18554e-05 7.69212e-05 -6.58306e-07)
(3.11975e-05 7.53162e-05 -5.99976e-06)
(3.04977e-05 7.36108e-05 -1.15297e-05)
(2.67321e-05 8.23294e-05 1.04228e-05)
(2.62395e-05 8.07928e-05 4.73064e-06)
(2.57262e-05 7.91912e-05 -6.60991e-07)
(2.51967e-05 7.75396e-05 -6.00399e-06)
(2.46335e-05 7.57846e-05 -1.15357e-05)
(2.01938e-05 8.41811e-05 1.04247e-05)
(1.98236e-05 8.26107e-05 4.73124e-06)
(1.9438e-05 8.09738e-05 -6.61819e-07)
(1.90404e-05 7.92858e-05 -6.00636e-06)
(1.86174e-05 7.74922e-05 -1.15397e-05)
(1.35304e-05 8.55148e-05 1.04291e-05)
(1.32847e-05 8.39203e-05 4.73447e-06)
(1.30293e-05 8.22587e-05 -6.59776e-07)
(1.27662e-05 8.05448e-05 -6.0058e-06)
(1.24869e-05 7.8724e-05 -1.15408e-05)
(6.77778e-06 8.6321e-05 1.04363e-05)
(6.66388e-06 8.47155e-05 4.74113e-06)
(6.53939e-06 8.30407e-05 -6.53718e-07)
(6.41231e-06 8.13127e-05 -6.00093e-06)
(6.28595e-06 7.94754e-05 -1.15381e-05)
(0 8.66329e-05 1.06e-05)
(0 8.50311e-05 4.90145e-06)
(0 8.3357e-05 -4.89484e-07)
(0 8.163e-05 -5.82586e-06)
(0 7.97948e-05 -1.13463e-05)
(9.80995e-05 0 3.63826e-06)
(9.64573e-05 0 6.58102e-07)
(9.46796e-05 0 -2.24519e-06)
(9.27754e-05 0 -5.12131e-06)
(9.07024e-05 0 -8.01631e-06)
(9.77517e-05 7.67477e-06 3.55455e-06)
(9.61039e-05 7.55844e-06 5.73042e-07)
(9.43229e-05 7.42664e-06 -2.33339e-06)
(9.2415e-05 7.28711e-06 -5.21389e-06)
(9.03387e-05 7.14521e-06 -8.11375e-06)
(9.68382e-05 1.53183e-05 3.55077e-06)
(9.52012e-05 1.50677e-05 5.70454e-07)
(9.34335e-05 1.47973e-05 -2.33496e-06)
(9.15408e-05 1.45081e-05 -5.21421e-06)
(8.94829e-05 1.41937e-05 -8.11237e-06)
(9.53262e-05 2.28616e-05 3.548e-06)
(9.37135e-05 2.24838e-05 5.69393e-07)
(9.19718e-05 2.20755e-05 -2.33442e-06)
(9.01075e-05 2.16381e-05 -5.21195e-06)
(8.80802e-05 2.11617e-05 -8.10823e-06)
(9.32269e-05 3.02634e-05 3.54644e-06)
(9.16485e-05 2.97601e-05 5.6984e-07)
(8.99441e-05 2.92162e-05 -2.33207e-06)
(8.81198e-05 2.86334e-05 -5.20763e-06)
(8.6136e-05 2.79988e-05 -8.10176e-06)
(9.05534e-05 3.74783e-05 3.54609e-06)
(8.90192e-05 3.68525e-05 5.71525e-07)
(8.73627e-05 3.6176e-05 -2.32841e-06)
(8.55897e-05 3.54513e-05 -5.20191e-06)
(8.36618e-05 3.46623e-05 -8.09376e-06)
(8.73222e-05 4.44625e-05 3.54686e-06)
(8.58419e-05 4.37175e-05 5.74115e-07)
(8.42436e-05 4.29123e-05 -2.324e-06)
(8.25332e-05 4.20499e-05 -5.19555e-06)
(8.06734e-05 4.11113e-05 -8.08521e-06)
(8.35535e-05 5.11734e-05 3.5486e-06)
(8.21363e-05 5.03135e-05 5.77229e-07)
(8.06066e-05 4.93842e-05 -2.31941e-06)
(7.89696e-05 4.83891e-05 -5.18932e-06)
(7.71897e-05 4.73063e-05 -8.07709e-06)
(7.92705e-05 5.75703e-05 3.55103e-06)
(7.79257e-05 5.66004e-05 5.80404e-07)
(7.64743e-05 5.55524e-05 -2.31528e-06)
(7.49214e-05 5.44304e-05 -5.18399e-06)
(7.32329e-05 5.32098e-05 -8.07034e-06)
(7.44998e-05 6.36143e-05 3.55365e-06)
(7.32361e-05 6.25401e-05 5.8301e-07)
(7.18727e-05 6.13796e-05 -2.31228e-06)
(7.0414e-05 6.01373e-05 -5.18034e-06)
(6.8828e-05 5.87863e-05 -8.06581e-06)
(6.92697e-05 6.92697e-05 3.55492e-06)
(6.80967e-05 6.80967e-05 5.84077e-07)
(6.68307e-05 6.68307e-05 -2.31116e-06)
(6.54759e-05 6.54759e-05 -5.17903e-06)
(6.40027e-05 6.40027e-05 -8.06421e-06)
(6.36143e-05 7.44998e-05 3.55365e-06)
(6.25401e-05 7.32361e-05 5.8301e-07)
(6.13796e-05 7.18727e-05 -2.31228e-06)
(6.01373e-05 7.0414e-05 -5.18034e-06)
(5.87863e-05 6.8828e-05 -8.06581e-06)
(5.75702e-05 7.92705e-05 3.55103e-06)
(5.66004e-05 7.79257e-05 5.80403e-07)
(5.55524e-05 7.64743e-05 -2.31528e-06)
(5.44304e-05 7.49214e-05 -5.18399e-06)
(5.32098e-05 7.32329e-05 -8.07034e-06)
(5.11734e-05 8.35535e-05 3.5486e-06)
(5.03135e-05 8.21363e-05 5.77227e-07)
(4.93842e-05 8.06065e-05 -2.31941e-06)
(4.83891e-05 7.89696e-05 -5.18932e-06)
(4.73063e-05 7.71897e-05 -8.07709e-06)
(4.44625e-05 8.73222e-05 3.54686e-06)
(4.37175e-05 8.58419e-05 5.74113e-07)
(4.29123e-05 8.42436e-05 -2.324e-06)
(4.20499e-05 8.25332e-05 -5.19555e-06)
(4.11113e-05 8.06734e-05 -8.08522e-06)
(3.74783e-05 9.05533e-05 3.54609e-06)
(3.68524e-05 8.90192e-05 5.71523e-07)
(3.61759e-05 8.73627e-05 -2.32841e-06)
(3.54512e-05 8.55897e-05 -5.20191e-06)
(3.46623e-05 8.36618e-05 -8.09377e-06)
(3.02634e-05 9.32268e-05 3.54643e-06)
(2.97601e-05 9.16485e-05 5.69837e-07)
(2.92162e-05 8.99441e-05 -2.33207e-06)
(2.86334e-05 8.81198e-05 -5.20763e-06)
(2.79988e-05 8.6136e-05 -8.10176e-06)
(2.28616e-05 9.53261e-05 3.54799e-06)
(2.24838e-05 9.37134e-05 5.69391e-07)
(2.20754e-05 9.19718e-05 -2.33442e-06)
(2.16381e-05 9.01075e-05 -5.21195e-06)
(2.11616e-05 8.80802e-05 -8.10823e-06)
(1.53183e-05 9.68382e-05 3.55077e-06)
(1.50677e-05 9.52012e-05 5.70451e-07)
(1.47973e-05 9.34335e-05 -2.33496e-06)
(1.45081e-05 9.15407e-05 -5.21421e-06)
(1.41937e-05 8.94828e-05 -8.11238e-06)
(7.67477e-06 9.77516e-05 3.55455e-06)
(7.55844e-06 9.61039e-05 5.73038e-07)
(7.42664e-06 9.43228e-05 -2.33339e-06)
(7.28711e-06 9.2415e-05 -5.2139e-06)
(7.14521e-06 9.03386e-05 -8.11376e-06)
(0 9.80994e-05 3.63826e-06)
(0 9.64572e-05 6.58099e-07)
(0 9.46795e-05 -2.24519e-06)
(0 9.27753e-05 -5.12132e-06)
(0 9.07023e-05 -8.01631e-06)
(0.000101923 0 -3.88571e-06)
(0.00010025 0 -4.02524e-06)
(9.84427e-05 0 -4.26393e-06)
(9.65029e-05 0 -4.50668e-06)
(9.43953e-05 0 -4.66303e-06)
(0.000101562 7.96921e-06 -3.88748e-06)
(9.98832e-05 7.85195e-06 -4.03071e-06)
(9.8072e-05 7.71896e-06 -4.27078e-06)
(9.61284e-05 7.57788e-06 -4.51218e-06)
(9.40178e-05 7.43491e-06 -4.66408e-06)
(0.00010061 1.59066e-05 -3.88802e-06)
(9.89424e-05 1.56535e-05 -4.0296e-06)
(9.71445e-05 1.53805e-05 -4.26833e-06)
(9.5216e-05 1.50879e-05 -4.50841e-06)
(9.31242e-05 1.47706e-05 -4.65898e-06)
(9.90356e-05 2.37401e-05 -3.88918e-06)
(9.7392e-05 2.33581e-05 -4.02849e-06)
(9.56203e-05 2.29455e-05 -4.26525e-06)
(9.37207e-05 2.25026e-05 -4.50335e-06)
(9.16597e-05 2.20212e-05 -4.65174e-06)
(9.685e-05 3.14267e-05 -3.89033e-06)
(9.5241e-05 3.09172e-05 -4.02699e-06)
(9.35069e-05 3.0367e-05 -4.26136e-06)
(9.16477e-05 2.97763e-05 -4.49706e-06)
(8.96308e-05 2.91346e-05 -4.64273e-06)
(9.40675e-05 3.89192e-05 -3.89105e-06)
(9.25032e-05 3.82847e-05 -4.02495e-06)
(9.08175e-05 3.75997e-05 -4.2568e-06)
(8.90105e-05 3.68645e-05 -4.4899e-06)
(8.70503e-05 3.6066e-05 -4.63264e-06)
(9.07059e-05 4.61723e-05 -3.89108e-06)
(8.91961e-05 4.5416e-05 -4.02241e-06)
(8.75696e-05 4.45999e-05 -4.25187e-06)
(8.58262e-05 4.37241e-05 -4.48246e-06)
(8.39352e-05 4.27733e-05 -4.62234e-06)
(8.67863e-05 5.3142e-05 -3.89027e-06)
(8.53409e-05 5.2268e-05 -4.01954e-06)
(8.3784e-05 5.13251e-05 -4.247e-06)
(8.21156e-05 5.03137e-05 -4.47543e-06)
(8.0306e-05 4.92159e-05 -4.61279e-06)
(8.23333e-05 5.97862e-05 -3.88869e-06)
(8.09619e-05 5.87993e-05 -4.01665e-06)
(7.9485e-05 5.77351e-05 -4.24271e-06)
(7.79025e-05 5.65938e-05 -4.46954e-06)
(7.6186e-05 5.53553e-05 -4.60496e-06)
(7.73747e-05 6.60646e-05 -3.88669e-06)
(7.60864e-05 6.49706e-05 -4.01428e-06)
(7.46995e-05 6.37912e-05 -4.23966e-06)
(7.32134e-05 6.25268e-05 -4.46556e-06)
(7.16015e-05 6.1155e-05 -4.59978e-06)
(7.19401e-05 7.19401e-05 -3.88565e-06)
(7.07448e-05 7.07448e-05 -4.0133e-06)
(6.94574e-05 6.94574e-05 -4.23853e-06)
(6.80777e-05 6.80777e-05 -4.46414e-06)
(6.65811e-05 6.65811e-05 -4.59795e-06)
(6.60646e-05 7.73747e-05 -3.88669e-06)
(6.49706e-05 7.60864e-05 -4.01428e-06)
(6.37912e-05 7.46995e-05 -4.23966e-06)
(6.25268e-05 7.32134e-05 -4.46556e-06)
(6.1155e-05 7.16016e-05 -4.59978e-06)
(5.97862e-05 8.23333e-05 -3.88869e-06)
(5.87993e-05 8.09619e-05 -4.01665e-06)
(5.7735e-05 7.9485e-05 -4.24272e-06)
(5.65937e-05 7.79025e-05 -4.46955e-06)
(5.53553e-05 7.6186e-05 -4.60497e-06)
(5.3142e-05 8.67863e-05 -3.89027e-06)
(5.2268e-05 8.53409e-05 -4.01954e-06)
(5.13251e-05 8.3784e-05 -4.247e-06)
(5.03137e-05 8.21156e-05 -4.47543e-06)
(4.92159e-05 8.0306e-05 -4.61279e-06)
(4.61723e-05 9.07059e-05 -3.89108e-06)
(4.5416e-05 8.91961e-05 -4.02241e-06)
(4.45999e-05 8.75696e-05 -4.25187e-06)
(4.37241e-05 8.58262e-05 -4.48247e-06)
(4.27733e-05 8.39352e-05 -4.62234e-06)
(3.89192e-05 9.40675e-05 -3.89105e-06)
(3.82847e-05 9.25031e-05 -4.02495e-06)
(3.75997e-05 9.08175e-05 -4.2568e-06)
(3.68645e-05 8.90105e-05 -4.4899e-06)
(3.6066e-05 8.70502e-05 -4.63264e-06)
(3.14266e-05 9.685e-05 -3.89033e-06)
(3.09172e-05 9.5241e-05 -4.02699e-06)
(3.0367e-05 9.35068e-05 -4.26136e-06)
(2.97763e-05 9.16477e-05 -4.49706e-06)
(2.91345e-05 8.96308e-05 -4.64273e-06)
(2.37401e-05 9.90356e-05 -3.88918e-06)
(2.33581e-05 9.7392e-05 -4.02849e-06)
(2.29455e-05 9.56203e-05 -4.26525e-06)
(2.25026e-05 9.37207e-05 -4.50336e-06)
(2.20212e-05 9.16597e-05 -4.65174e-06)
(1.59066e-05 0.00010061 -3.88802e-06)
(1.56535e-05 9.89424e-05 -4.0296e-06)
(1.53805e-05 9.71445e-05 -4.26833e-06)
(1.50879e-05 9.5216e-05 -4.50841e-06)
(1.47705e-05 9.31241e-05 -4.65899e-06)
(7.9692e-06 0.000101562 -3.88748e-06)
(7.85194e-06 9.98832e-05 -4.03071e-06)
(7.71895e-06 9.8072e-05 -4.27078e-06)
(7.57787e-06 9.61283e-05 -4.51218e-06)
(7.4349e-06 9.40178e-05 -4.66408e-06)
(0 0.000101923 -3.88571e-06)
(0 0.00010025 -4.02524e-06)
(0 9.84426e-05 -4.26394e-06)
(0 9.65029e-05 -4.50668e-06)
(0 9.43953e-05 -4.66304e-06)
(9.83874e-05 0 -1.09916e-05)
(9.67231e-05 0 -8.52145e-06)
(9.49696e-05 0 -6.2968e-06)
(9.31246e-05 0 -4.10732e-06)
(9.11553e-05 0 -1.7544e-06)
(9.80347e-05 7.68448e-06 -1.09185e-05)
(9.63664e-05 7.56977e-06 -8.45372e-06)
(9.46106e-05 7.44232e-06 -6.22866e-06)
(9.27629e-05 7.30965e-06 -4.03294e-06)
(9.07921e-05 7.17793e-06 -1.66792e-06)
(9.71119e-05 1.53407e-05 -1.09162e-05)
(9.54541e-05 1.50922e-05 -8.44959e-06)
(9.37111e-05 1.48302e-05 -6.22305e-06)
(9.18778e-05 1.45549e-05 -4.02604e-06)
(8.99245e-05 1.42619e-05 -1.66009e-06)
(9.5586e-05 2.28966e-05 -1.09159e-05)
(9.3952e-05 2.25208e-05 -8.44666e-06)
(9.2234e-05 2.21244e-05 -6.21798e-06)
(9.04279e-05 2.17071e-05 -4.01893e-06)
(8.85032e-05 2.1262e-05 -1.65063e-06)
(9.34694e-05 3.03105e-05 -1.09166e-05)
(9.18691e-05 2.98085e-05 -8.44428e-06)
(9.01872e-05 2.92791e-05 -6.21297e-06)
(8.84193e-05 2.8722e-05 -4.01128e-06)
(8.65355e-05 2.81278e-05 -1.63991e-06)
(9.07762e-05 3.75373e-05 -1.09177e-05)
(8.92198e-05 3.6911e-05 -8.44202e-06)
(8.75845e-05 3.62511e-05 -6.20786e-06)
(8.5866e-05 3.55566e-05 -4.00326e-06)
(8.40349e-05 3.48163e-05 -1.62851e-06)
(8.75242e-05 4.45332e-05 -1.09184e-05)
(8.60218e-05 4.37854e-05 -8.43966e-06)
(8.44437e-05 4.2998e-05 -6.20273e-06)
(8.27856e-05 4.21698e-05 -3.99528e-06)
(8.10191e-05 4.1287e-05 -1.61717e-06)
(8.37346e-05 5.12562e-05 -1.09186e-05)
(8.22962e-05 5.03906e-05 -8.43717e-06)
(8.07857e-05 4.94798e-05 -6.19786e-06)
(7.91989e-05 4.8522e-05 -3.98791e-06)
(7.75087e-05 4.75014e-05 -1.6068e-06)
(7.94315e-05 5.7666e-05 -1.0918e-05)
(7.80669e-05 5.66872e-05 -8.4347e-06)
(7.66342e-05 5.56578e-05 -6.19368e-06)
(7.51295e-05 5.45758e-05 -3.98182e-06)
(7.35268e-05 5.3423e-05 -1.59835e-06)
(7.46421e-05 6.37243e-05 -1.09167e-05)
(7.33607e-05 6.26378e-05 -8.43265e-06)
(7.20158e-05 6.14958e-05 -6.19072e-06)
(7.06034e-05 6.02958e-05 -3.97773e-06)
(6.90991e-05 5.90176e-05 -1.59278e-06)
(6.9395e-05 6.93951e-05 -1.09159e-05)
(6.82069e-05 6.82069e-05 -8.43181e-06)
(6.69593e-05 6.69593e-05 -6.18963e-06)
(6.56488e-05 6.56488e-05 -3.97627e-06)
(6.4253e-05 6.4253e-05 -1.59082e-06)
(6.37243e-05 7.46421e-05 -1.09167e-05)
(6.26378e-05 7.33607e-05 -8.43265e-06)
(6.14958e-05 7.20158e-05 -6.19072e-06)
(6.02958e-05 7.06034e-05 -3.97773e-06)
(5.90176e-05 6.90991e-05 -1.59278e-06)
(5.7666e-05 7.94315e-05 -1.0918e-05)
(5.66872e-05 7.80669e-05 -8.4347e-06)
(5.56578e-05 7.66342e-05 -6.19368e-06)
(5.45758e-05 7.51295e-05 -3.98182e-06)
(5.3423e-05 7.35268e-05 -1.59835e-06)
(5.12562e-05 8.37346e-05 -1.09186e-05)
(5.03906e-05 8.22961e-05 -8.43717e-06)
(4.94798e-05 8.07857e-05 -6.19786e-06)
(4.8522e-05 7.91989e-05 -3.98791e-06)
(4.75014e-05 7.75087e-05 -1.6068e-06)
(4.45332e-05 8.75242e-05 -1.09184e-05)
(4.37854e-05 8.60218e-05 -8.43966e-06)
(4.2998e-05 8.44437e-05 -6.20273e-06)
(4.21698e-05 8.27856e-05 -3.99528e-06)
(4.1287e-05 8.10191e-05 -1.61718e-06)
(3.75373e-05 9.07762e-05 -1.09176e-05)
(3.6911e-05 8.92198e-05 -8.44202e-06)
(3.6251e-05 8.75845e-05 -6.20786e-06)
(3.55566e-05 8.5866e-05 -4.00326e-06)
(3.48163e-05 8.40349e-05 -1.62851e-06)
(3.03105e-05 9.34694e-05 -1.09166e-05)
(2.98085e-05 9.18691e-05 -8.44428e-06)
(2.92791e-05 9.01872e-05 -6.21297e-06)
(2.87219e-05 8.84193e-05 -4.01128e-06)
(2.81278e-05 8.65354e-05 -1.63992e-06)
(2.28966e-05 9.5586e-05 -1.09159e-05)
(2.25208e-05 9.39519e-05 -8.44665e-06)
(2.21243e-05 9.2234e-05 -6.21798e-06)
(2.17071e-05 9.04278e-05 -4.01893e-06)
(2.1262e-05 8.85031e-05 -1.65063e-06)
(1.53407e-05 9.71119e-05 -1.09162e-05)
(1.50922e-05 9.54541e-05 -8.44959e-06)
(1.48302e-05 9.37111e-05 -6.22305e-06)
(1.45549e-05 9.18778e-05 -4.02604e-06)
(1.42619e-05 8.99245e-05 -1.66009e-06)
(7.68447e-06 9.80347e-05 -1.09185e-05)
(7.56976e-06 9.63664e-05 -8.45371e-06)
(7.44231e-06 9.46106e-05 -6.22866e-06)
(7.30965e-06 9.27629e-05 -4.03294e-06)
(7.17792e-06 9.0792e-05 -1.66793e-06)
(0 9.83874e-05 -1.09916e-05)
(0 9.67231e-05 -8.52145e-06)
(0 9.49696e-05 -6.2968e-06)
(0 9.31245e-05 -4.10732e-06)
(0 9.11553e-05 -1.75441e-06)
(8.8507e-05 0 -1.6864e-05)
(8.68968e-05 0 -1.23082e-05)
(8.52769e-05 0 -8.12116e-06)
(8.36392e-05 0 -3.99657e-06)
(8.19543e-05 0 3.5398e-07)
(8.81831e-05 6.90134e-06 -1.6731e-05)
(8.65716e-05 6.79274e-06 -1.21822e-05)
(8.49518e-05 6.67698e-06 -7.99357e-06)
(8.33139e-05 6.56119e-06 -3.85896e-06)
(8.16297e-05 6.45097e-06 5.09815e-07)
(8.7347e-05 1.37815e-05 -1.67263e-05)
(8.57457e-05 1.35449e-05 -1.21758e-05)
(8.41377e-05 1.33065e-05 -7.98589e-06)
(8.25127e-05 1.3066e-05 -3.85027e-06)
(8.08436e-05 1.28201e-05 5.18869e-07)
(8.59666e-05 2.05707e-05 -1.67244e-05)
(8.43876e-05 2.02121e-05 -1.21715e-05)
(8.28024e-05 1.98507e-05 -7.97971e-06)
(8.1201e-05 1.94857e-05 -3.84236e-06)
(7.95562e-05 1.91114e-05 5.28819e-07)
(8.40533e-05 2.72321e-05 -1.67243e-05)
(8.25063e-05 2.67521e-05 -1.21684e-05)
(8.09539e-05 2.62688e-05 -7.97427e-06)