/*--------------------------------*- C++ -*----------------------------------*\
| =========                 |                                                 |
| \\      /  F ield         | foam-extend: Open Source CFD                    |
|  \\    /   O peration     | Version:     3.1                                |
|   \\  /    A nd           | Web:         http://www.extend-project.de       |
|    \\/     M anipulation  |                                                 |
\*---------------------------------------------------------------------------*/
FoamFile
{
    version     2.0;
    format      ascii;
    class       volScalarField;
    location    "0.0013";
    object      sigmaEq;
}
// * * * * * * * * * * * * * * * * * * * * * * * * * * * * * * * * * * * * * //

dimensions      [1 -1 -2 0 0 0 0];

internalField   nonuniform List<scalar> 
6400
(
5241.56
3936.91
3529.63
4210.66
5209.07
3920.81
3528.62
4236.38
5206.77
3918.93
3527.81
4236.81
5205.76
3918.31
3527.46
4236.57
5205.38
3918.06
3527.22
4236.14
5205.3
3917.95
3526.94
4235.55
5205.36
3917.82
3526.56
4234.84
5205.46
3917.61
3526.08
4234.08
5205.55
3917.32
3525.56
4233.39
5205.53
3917.06
3525.18
4232.96
5205.53
3917.06
3525.18
4232.96
5205.55
3917.32
3525.56
4233.39
5205.46
3917.61
3526.08
4234.08
5205.36
3917.82
3526.56
4234.84
5205.3
3917.95
3526.94
4235.54
5205.38
3918.06
3527.22
4236.13
5205.76
3918.3
3527.46
4236.57
5206.77
3918.93
3527.8
4236.8
5209.06
3920.8
3528.61
4236.38
5241.56
3936.91
3529.63
4210.66
3456.9
3496.04
3144.16
2306.88
3460.83
3492.53
3132.99
2293.49
3458.54
3491.04
3132.09
2293.71
3457.42
3490.45
3131.7
2293.51
3456.81
3490.03
3131.34
2293.07
3456.47
3489.7
3130.98
2292.51
3456.32
3489.42
3130.6
2291.91
3456.3
3489.15
3130.21
2291.32
3456.41
3488.86
3129.83
2290.81
3456.79
3488.66
3129.56
2290.48
3456.79
3488.66
3129.56
2290.48
3456.4
3488.86
3129.83
2290.81
3456.3
3489.15
3130.21
2291.32
3456.32
3489.42
3130.6
2291.91
3456.47
3489.7
3130.98
2292.51
3456.81
3490.02
3131.34
2293.07
3457.42
3490.45
3131.7
2293.5
3458.54
3491.04
3132.09
2293.71
3460.83
3492.53
3132.99
2293.48
3456.9
3496.04
3144.16
2306.87
3754.73
3633.7
3287.96
2720.79
3762.15
3629.7
3275.71
2703.43
3761.02
3629.48
3275.16
2704.02
3760.51
3629.41
3275.2
2704.27
3760.15
3629.25
3275.18
2704.4
3759.91
3629.08
3275.08
2704.41
3759.83
3628.95
3274.94
2704.32
3759.93
3628.86
3274.79
2704.14
3760.29
3628.84
3274.63
2703.91
3761.21
3628.91
3274.52
2703.71
3761.21
3628.91
3274.52
2703.71
3760.29
3628.84
3274.63
2703.91
3759.93
3628.86
3274.78
2704.14
3759.83
3628.94
3274.94
2704.32
3759.91
3629.08
3275.08
2704.41
3760.15
3629.25
3275.18
2704.4
3760.51
3629.41
3275.2
2704.27
3761.02
3629.48
3275.16
2704.02
3762.15
3629.7
3275.71
2703.43
3754.73
3633.7
3287.96
2720.78
4957.11
4468.47
4050.11
3754.15
4957.35
4461.49
4039.81
3740.21
4956.3
4461.51
4039.58
3741.77
4956.01
4461.42
4039.62
3742.35
4955.95
4461.42
4039.73
3742.7
4956.08
4461.5
4039.83
3742.93
4956.38
4461.65
4039.91
3743.05
4956.85
4461.87
4039.97
3743.05
4957.53
4462.14
4040
3742.95
4958.69
4462.43
4040.01
3742.83
4958.69
4462.43
4040.01
3742.83
4957.53
4462.14
4040
3742.95
4956.85
4461.87
4039.97
3743.05
4956.38
4461.65
4039.9
3743.04
4956.07
4461.5
4039.83
3742.93
4955.95
4461.42
4039.73
3742.7
4956.01
4461.42
4039.62
3742.35
4956.3
4461.5
4039.58
3741.77
4957.35
4461.49
4039.81
3740.21
4957.1
4468.47
4050.11
3754.14
5913.21
5228.71
4738.12
4510.22
5910.37
5220.59
4728.68
4496.72
5909.42
5220.73
4728.56
4498.75
5909.22
5220.51
4728.4
4499.33
5909.38
5220.54
4728.45
4499.62
5909.85
5220.79
4728.59
4499.81
5910.55
5221.17
4728.76
4499.91
5911.39
5221.64
4728.93
4499.93
5912.35
5222.13
4729.07
4499.86
5913.65
5222.55
4729.15
4499.77
5913.65
5222.55
4729.15
4499.77
5912.35
5222.13
4729.07
4499.86
5911.39
5221.64
4728.93
4499.93
5910.54
5221.17
4728.75
4499.91
5909.85
5220.79
4728.59
4499.81
5909.38
5220.54
4728.45
4499.62
5909.22
5220.51
4728.4
4499.33
5909.42
5220.72
4728.55
4498.75
5910.37
5220.59
4728.68
4496.72
5913.21
5228.71
4738.12
4510.21
6370.08
5633.13
5110.63
4869.11
6367.4
5625.33
5101.62
4854.89
6366.77
5625.67
5101.52
4856.89
6366.81
5625.47
5101.2
4857.22
6367.27
5625.59
5101.15
4857.23
6368.1
5625.99
5101.24
4857.18
6369.18
5626.57
5101.4
4857.09
6370.37
5627.23
5101.61
4856.97
6371.59
5627.89
5101.79
4856.83
6373
5628.4
5101.91
4856.71
6373
5628.4
5101.91
4856.71
6371.59
5627.89
5101.79
4856.83
6370.37
5627.23
5101.61
4856.97
6369.18
5626.57
5101.4
4857.09
6368.1
5625.99
5101.24
4857.18
6367.27
5625.59
5101.14
4857.23
6366.81
5625.47
5101.2
4857.21
6366.76
5625.67
5101.52
4856.88
6367.39
5625.33
5101.62
4854.88
6370.08
5633.13
5110.63
4869.11
6317.09
5626.15
5116.93
4842.44
6316.3
5619.58
5108.36
4827.51
6316.09
5620.14
5108.21
4829.08
6316.53
5620.13
5107.82
4828.99
6317.37
5620.41
5107.66
4828.58
6318.59
5620.98
5107.66
4828.11
6320.04
5621.73
5107.76
4827.65
6321.55
5622.54
5107.92
4827.24
6323.01
5623.32
5108.08
4826.9
6324.51
5623.9
5108.2
4826.69
6324.51
5623.9
5108.2
4826.69
6323.01
5623.32
5108.08
4826.9
6321.55
5622.54
5107.92
4827.24
6320.04
5621.73
5107.76
4827.65
6318.59
5620.98
5107.66
4828.11
6317.37
5620.41
5107.66
4828.58
6316.53
5620.12
5107.82
4828.99
6316.09
5620.14
5108.21
4829.08
6316.29
5619.58
5108.35
4827.51
6317.09
5626.15
5116.92
4842.43
5810.58
5238.71
4783.57
4477.57
5812.69
5233.98
4775.68
4462.42
5812.91
5234.73
4775.44
4463.28
5813.78
5234.97
4775.02
4462.67
5815.01
5235.45
4774.78
4461.73
5816.58
5236.17
4774.67
4460.74
5818.33
5237.04
4774.65
4459.79
5820.1
5237.95
4774.7
4458.95
5821.74
5238.8
4774.79
4458.3
5823.28
5239.4
4774.86
4457.93
5823.28
5239.4
4774.86
4457.93
5821.74
5238.8
4774.79
4458.3
5820.1
5237.95
4774.7
4458.95
5818.33
5237.04
4774.65
4459.79
5816.57
5236.17
4774.67
4460.74
5815.01
5235.45
4774.78
4461.73
5813.78
5234.97
4775.02
4462.66
5812.91
5234.73
4775.43
4463.27
5812.69
5233.98
4775.68
4462.42
5810.58
5238.71
4783.56
4477.57
4956.75
4550.54
4180.7
3856.88
4962.35
4548.08
4173.92
3842.37
4962.94
4548.94
4173.55
3842.38
4964.15
4549.39
4173.13
3841.31
4965.67
4549.99
4172.8
3839.93
4967.44
4550.76
4172.55
3838.47
4969.35
4551.63
4172.36
3837.05
4971.25
4552.53
4172.25
3835.78
4972.97
4553.34
4172.21
3834.79
4974.47
4553.91
4172.21
3834.24
4974.47
4553.91
4172.2
3834.24
4972.97
4553.34
4172.21
3834.79
4971.25
4552.52
4172.25
3835.78
4969.35
4551.63
4172.36
3837.04
4967.44
4550.76
4172.55
3838.47
4965.66
4549.99
4172.8
3839.93
4964.15
4549.39
4173.13
3841.31
4962.94
4548.93
4173.55
3842.38
4962.35
4548.08
4173.92
3842.37
4956.75
4550.54
4180.7
3856.87
3933.93
3677.12
3403.42
3106.3
3942.28
3676.81
3398.39
3094.36
3943.11
3677.61
3397.88
3093.71
3944.51
3678.11
3397.41
3092.45
3946.14
3678.62
3396.93
3090.94
3947.94
3679.21
3396.46
3089.32
3949.84
3679.86
3396.03
3087.7
3951.68
3680.53
3395.67
3086.23
3953.32
3681.13
3395.43
3085.06
3954.66
3681.56
3395.3
3084.4
3954.66
3681.56
3395.3
3084.4
3953.32
3681.13
3395.43
3085.06
3951.68
3680.53
3395.67
3086.23
3949.84
3679.86
3396.03
3087.7
3947.94
3679.21
3396.46
3089.32
3946.14
3678.62
3396.93
3090.94
3944.51
3678.11
3397.41
3092.45
3943.11
3677.61
3397.88
3093.71
3942.28
3676.81
3398.39
3094.36
3933.93
3677.12
3403.42
3106.3
2985.37
2758.75
2558.68
2376.16
2993.19
2759.44
2556.11
2370.08
2994
2759.97
2555.48
2369.23
2995.36
2760.31
2554.92
2368.22
2996.9
2760.51
2554.24
2367.03
2998.54
2760.7
2553.5
2365.72
3000.22
2760.91
2552.76
2364.36
3001.82
2761.14
2552.1
2363.08
3003.19
2761.36
2551.58
2362.03
3004.23
2761.52
2551.3
2361.41
3004.23
2761.52
2551.3
2361.41
3003.19
2761.36
2551.58
2362.03
3001.82
2761.14
2552.1
2363.08
3000.22
2760.91
2552.76
2364.36
2998.54
2760.7
2553.5
2365.71
2996.9
2760.51
2554.24
2367.03
2995.36
2760.31
2554.92
2368.22
2994
2759.97
2555.48
2369.23
2993.19
2759.44
2556.11
2370.08
2985.37
2758.75
2558.68
2376.16
2311.75
1954.87
1772.55
1776.38
2314.67
1954.74
1772.75
1778.28
2315.11
1954.9
1772.1
1777.65
2316.12
1955.05
1771.57
1777.13
2317.32
1955.01
1770.85
1776.48
2318.58
1954.9
1770.02
1775.7
2319.85
1954.77
1769.15
1774.85
2321.01
1954.65
1768.35
1774
2321.96
1954.55
1767.71
1773.27
2322.63
1954.5
1767.34
1772.83
2322.63
1954.5
1767.34
1772.83
2321.97
1954.55
1767.71
1773.27
2321.01
1954.65
1768.35
1774
2319.85
1954.77
1769.15
1774.85
2318.58
1954.9
1770.02
1775.7
2317.32
1955.01
1770.85
1776.48
2316.12
1955.05
1771.57
1777.13
2315.11
1954.9
1772.1
1777.65
2314.67
1954.74
1772.75
1778.28
2311.75
1954.87
1772.55
1776.38
1901.74
1413.19
1192.85
1316.02
1899.72
1411.34
1194.68
1322.9
1899.7
1411.3
1194.21
1322.46
1900.18
1411.53
1194.01
1322.18
1900.84
1411.65
1193.69
1321.81
1901.56
1411.73
1193.27
1321.31
1902.29
1411.78
1192.82
1320.74
1902.96
1411.82
1192.37
1320.15
1903.49
1411.82
1191.99
1319.63
1903.86
1411.81
1191.76
1319.32
1903.86
1411.81
1191.76
1319.32
1903.49
1411.82
1191.99
1319.63
1902.96
1411.82
1192.37
1320.15
1902.29
1411.78
1192.82
1320.74
1901.56
1411.73
1193.28
1321.31
1900.84
1411.65
1193.69
1321.81
1900.18
1411.53
1194.02
1322.18
1899.7
1411.3
1194.21
1322.46
1899.72
1411.34
1194.68
1322.9
1901.74
1413.2
1192.85
1316.02
1585.08
1148.46
903.084
949.238
1582.4
1146.13
903.891
954.694
1582.18
1146.14
903.642
954.102
1582.25
1146.56
903.854
953.72
1582.45
1146.99
904.087
953.288
1582.68
1147.43
904.311
952.771
1582.94
1147.87
904.515
952.204
1583.21
1148.27
904.683
951.649
1583.45
1148.58
904.794
951.183
1583.65
1148.75
904.845
950.906
1583.65
1148.75
904.846
950.906
1583.45
1148.58
904.795
951.183
1583.21
1148.27
904.684
951.65
1582.94
1147.87
904.517
952.206
1582.68
1147.43
904.312
952.772
1582.45
1146.99
904.089
953.29
1582.25
1146.56
903.856
953.722
1582.18
1146.15
903.644
954.104
1582.4
1146.14
903.893
954.696
1585.08
1148.46
903.087
949.24
1279.11
1006.42
796.435
687.708
1278.67
1004.93
795.312
687.932
1278.49
1004.99
795.105
687.209
1278.42
1005.38
795.384
686.825
1278.38
1005.77
795.746
686.504
1278.34
1006.19
796.138
686.173
1278.33
1006.61
796.532
685.833
1278.37
1007.02
796.887
685.508
1278.45
1007.35
797.158
685.238
1278.59
1007.54
797.306
685.078
1278.59
1007.54
797.306
685.079
1278.45
1007.35
797.159
685.239
1278.37
1007.02
796.889
685.509
1278.33
1006.61
796.534
685.835
1278.34
1006.19
796.14
686.175
1278.38
1005.77
795.748
686.506
1278.42
1005.38
795.386
686.828
1278.49
1005
795.108
687.212
1278.67
1004.93
795.315
687.935
1279.11
1006.42
796.438
687.711
1023.25
879.107
730.953
587.787
1024.78
878.39
729.241
585
1024.72
878.441
729.047
584.627
1024.67
878.67
729.236
584.626
1024.61
878.876
729.498
584.781
1024.53
879.077
729.785
585.001
1024.45
879.279
730.074
585.232
1024.41
879.479
730.337
585.434
1024.46
879.655
730.54
585.578
1024.58
879.772
730.653
585.649
1024.58
879.772
730.653
585.649
1024.46
879.655
730.541
585.579
1024.41
879.48
730.338
585.436
1024.45
879.28
730.076
585.234
1024.53
879.078
729.787
585.004
1024.61
878.877
729.5
584.784
1024.67
878.671
729.238
584.629
1024.72
878.443
729.05
584.631
1024.78
878.391
729.244
585.004
1023.25
879.109
730.956
587.791
853.279
767.677
674.668
590.552
855.326
767.33
673.384
588.247
855.332
767.395
673.272
588.267
855.338
767.539
673.425
588.524
855.331
767.653
673.636
588.911
855.296
767.755
673.865
589.362
855.26
767.853
674.093
589.817
855.254
767.953
674.297
590.219
855.31
768.049
674.454
590.515
855.453
768.123
674.54
590.67
855.453
768.123
674.54
590.67
855.31
768.049
674.454
590.516
855.254
767.953
674.299
590.22
855.26
767.854
674.095
589.819
855.295
767.756
673.868
589.364
855.331
767.655
673.639
588.914
855.338
767.541
673.427
588.527
855.332
767.397
673.275
588.27
855.326
767.332
673.387
588.251
853.279
767.679
674.671
590.556
743.831
682.389
622.829
579.906
745.703
682.238
622.002
578.245
745.744
682.333
621.946
578.33
745.771
682.451
622.062
578.527
745.795
682.546
622.222
578.785
745.805
682.634
622.395
579.072
745.818
682.721
622.562
579.35
745.853
682.807
622.709
579.587
745.93
682.888
622.818
579.752
746.074
682.949
622.877
579.834
746.074
682.949
622.877
579.834
745.93
682.888
622.819
579.753
745.853
682.808
622.71
579.588
745.818
682.722
622.564
579.352
745.805
682.636
622.397
579.074
745.795
682.547
622.225
578.788
745.771
682.452
622.064
578.531
745.744
682.335
621.949
578.333
745.703
682.24
622.005
578.248
743.83
682.391
622.833
579.91
660.968
609.102
561.103
523.251
662.519
609.02
560.415
521.64
662.593
609.111
560.339
521.615
662.634
609.192
560.373
521.65
662.68
609.251
560.434
521.696
662.723
609.305
560.494
521.739
662.772
609.357
560.547
521.767
662.836
609.406
560.588
521.773
662.925
609.451
560.611
521.759
663.049
609.485
560.62
521.742
663.049
609.486
560.62
521.742
662.925
609.451
560.612
521.76
662.836
609.407
560.589
521.775
662.772
609.358
560.549
521.769
662.723
609.306
560.496
521.741
662.68
609.253
560.436
521.698
662.633
609.194
560.376
521.653
662.593
609.113
560.342
521.619
662.519
609.021
560.418
521.643
660.967
609.104
561.106
523.255
594.684
539.286
489.158
442.878
595.734
539.094
488.424
441.181
595.825
539.147
488.298
441.042
595.878
539.188
488.257
440.964
595.944
539.205
488.227
440.876
596.012
539.214
488.19
440.773
596.087
539.219
488.143
440.652
596.168
539.223
488.091
440.524
596.256
539.225
488.041
440.405
596.354
539.23
488.009
440.331
596.354
539.23
488.009
440.331
596.256
539.225
488.042
440.406
596.168
539.223
488.092
440.525
596.086
539.22
488.145
440.654
596.012
539.215
488.192
440.775
595.943
539.206
488.229
440.878
595.877
539.189
488.259
440.966
595.825
539.149
488.3
441.045
595.734
539.095
488.426
441.185
594.684
539.288
489.161
442.882
540.546
477.225
421.288
367.833
541.04
476.834
420.475
366.169
541.122
476.848
420.324
365.98
541.166
476.866
420.257
365.873
541.229
476.866
420.2
365.761
541.297
476.86
420.134
365.633
541.371
476.85
420.061
365.491
541.447
476.838
419.985
365.345
541.522
476.826
419.918
365.215
541.594
476.82
419.876
365.135
541.594
476.82
419.876
365.136
541.521
476.827
419.919
365.216
541.446
476.839
419.986
365.346
541.37
476.851
420.062
365.493
541.296
476.861
420.136
365.635
541.228
476.867
420.201
365.763
541.165
476.867
420.259
365.875
541.121
476.849
420.326
365.982
541.039
476.835
420.477
366.172
540.545
477.226
421.29
367.835
490.384
425.787
368.371
313.597
490.507
425.264
367.538
312.09
490.568
425.256
367.398
311.914
490.585
425.269
367.346
311.839
490.622
425.27
367.31
311.769
490.664
425.269
367.27
311.692
490.711
425.267
367.225
311.603
490.762
425.264
367.177
311.509
490.814
425.259
367.134
311.424
490.863
425.256
367.106
311.37
490.863
425.256
367.106
311.37
490.814
425.259
367.134
311.424
490.762
425.264
367.178
311.51
490.711
425.268
367.225
311.604
490.663
425.27
367.271
311.693
490.621
425.271
367.311
311.77
490.585
425.269
367.347
311.84
490.567
425.256
367.399
311.915
490.506
425.265
367.54
312.092
490.384
425.788
368.372
313.599
439.31
381.995
329.811
280.168
439.296
381.469
329.05
278.903
439.342
381.456
328.941
278.773
439.335
381.468
328.915
278.746
439.341
381.472
328.908
278.732
439.351
381.477
328.901
278.717
439.368
381.481
328.891
278.695
439.391
381.485
328.878
278.664
439.419
381.488
328.863
278.631
439.45
381.489
328.852
278.607
439.45
381.489
328.852
278.608
439.419
381.488
328.863
278.631
439.39
381.485
328.878
278.664
439.367
381.481
328.892
278.695
439.351
381.477
328.902
278.718
439.341
381.473
328.908
278.732
439.334
381.468
328.916
278.747
439.342
381.457
328.942
278.774
439.296
381.47
329.051
278.904
439.31
381.996
329.812
280.169
388.375
342.278
299.365
258.971
388.362
341.834
298.739
257.984
388.403
341.827
298.663
257.902
388.384
341.838
298.656
257.911
388.371
341.843
298.666
257.933
388.362
341.846
298.678
257.957
388.357
341.851
298.687
257.975
388.361
341.855
298.692
257.982
388.373
341.858
298.692
257.981
388.393
341.86
298.689
257.976
388.393
341.86
298.689
257.976
388.373
341.859
298.692
257.981
388.361
341.855
298.692
257.982
388.357
341.851
298.687
257.975
388.361
341.847
298.678
257.957
388.371
341.843
298.667
257.933
388.383
341.839
298.657
257.911
388.403
341.827
298.663
257.902
388.362
341.835
298.739
257.984
388.375
342.279
299.365
258.971
340.75
305.328
272.024
241.282
340.77
304.988
271.545
240.546
340.814
304.988
271.495
240.496
340.793
305
271.498
240.52
340.775
305.003
271.514
240.554
340.759
305.005
271.53
240.588
340.747
305.006
271.543
240.617
340.742
305.008
271.551
240.635
340.747
305.009
271.554
240.643
340.76
305.009
271.554
240.644
340.76
305.009
271.554
240.644
340.747
305.009
271.554
240.643
340.742
305.008
271.551
240.635
340.747
305.006
271.543
240.616
340.759
305.005
271.53
240.588
340.776
305.003
271.514
240.553
340.793
305
271.498
240.52
340.814
304.988
271.495
240.495
340.771
304.988
271.545
240.545
340.75
305.329
272.025
241.281
298.34
271.098
245.577
222.456
298.379
270.843
245.217
221.906
298.424
270.848
245.183
221.872
298.407
270.86
245.189
221.898
298.392
270.863
245.203
221.928
298.377
270.863
245.216
221.957
298.365
270.862
245.226
221.979
298.359
270.861
245.231
221.992
298.361
270.859
245.232
221.997
298.37
270.857
245.23
221.997
298.37
270.857
245.23
221.997
298.361
270.859
245.232
221.997
298.36
270.861
245.231
221.992
298.366
270.862
245.226
221.979
298.377
270.863
245.216
221.957
298.393
270.863
245.203
221.928
298.408
270.861
245.188
221.897
298.425
270.849
245.183
221.871
298.38
270.844
245.217
221.905
298.341
271.099
245.577
222.455
261.205
239.603
219.606
201.655
261.239
239.405
219.329
201.228
261.283
239.413
219.303
201.201
261.27
239.423
219.308
201.222
261.259
239.425
219.319
201.244
261.248
239.424
219.327
201.263
261.239
239.422
219.332
201.275
261.234
239.418
219.332
201.279
261.234
239.414
219.329
201.278
261.24
239.411
219.326
201.275
261.24
239.411
219.326
201.275
261.234
239.415
219.329
201.278
261.234
239.419
219.332
201.279
261.239
239.422
219.332
201.274
261.249
239.425
219.327
201.262
261.26
239.426
219.319
201.243
261.272
239.424
219.308
201.221
261.285
239.413
219.303
201.2
261.241
239.406
219.329
201.227
261.206
239.604
219.606
201.654
228.443
210.69
194.473
179.915
228.46
210.527
194.25
179.571
228.5
210.534
194.228
179.546
228.49
210.542
194.231
179.562
228.481
210.543
194.239
179.577
228.473
210.542
194.243
179.588
228.466
210.538
194.244
179.592
228.461
210.534
194.241
179.591
228.461
210.529
194.236
179.585
228.465
210.525
194.231
179.581
228.465
210.525
194.231
179.581
228.461
210.529
194.236
179.585
228.462
210.534
194.241
179.59
228.466
210.539
194.244
179.592
228.474
210.542
194.243
179.587
228.483
210.544
194.238
179.576
228.491
210.543
194.231
179.561
228.502
210.534
194.228
179.545
228.462
210.528
194.25
179.57
228.444
210.691
194.473
179.914
199.09
184.179
170.698
158.564
199.089
184.04
170.513
158.282
199.124
184.044
170.494
158.259
199.115
184.051
170.496
158.271
199.108
184.051
170.501
158.282
199.1
184.049
170.503
158.288
199.094
184.045
170.502
158.289
199.089
184.04
170.497
158.285
199.088
184.034
170.491
158.278
199.09
184.03
170.487
158.273
199.09
184.03
170.487
158.273
199.088
184.035
170.491
158.278
199.09
184.04
170.497
158.285
199.094
184.046
170.502
158.288
199.101
184.05
170.503
158.287
199.109
184.052
170.501
158.281
199.117
184.052
170.496
158.27
199.126
184.045
170.494
158.258
199.091
184.041
170.513
158.281
199.092
184.18
170.698
158.563
172.526
159.955
148.665
138.502
172.512
159.835
148.51
138.27
172.542
159.838
148.494
138.25
172.533
159.843
148.495
138.26
172.526
159.842
148.498
138.268
172.519
159.84
148.499
138.273
172.513
159.836
148.498
138.273
172.508
159.83
148.493
138.269
172.505
159.825
148.488
138.263
172.506
159.821
148.483
138.258
172.506
159.821
148.483
138.258
172.506
159.825
148.488
138.263
172.508
159.831
148.493
138.268
172.513
159.836
148.498
138.272
172.52
159.84
148.499
138.272
172.528
159.843
148.498
138.267
172.535
159.844
148.495
138.259
172.544
159.839
148.494
138.249
172.514
159.836
148.511
138.269
172.528
159.957
148.666
138.501
148.482
137.963
128.558
120.123
148.462
137.86
128.429
119.935
148.488
137.862
128.416
119.917
148.479
137.866
128.416
119.926
148.472
137.865
128.419
119.933
148.465
137.862
128.419
119.937
148.458
137.858
128.417
119.937
148.453
137.853
128.413
119.934
148.45
137.848
128.409
119.929
148.45
137.844
128.405
119.925
148.45
137.844
128.405
119.925
148.45
137.848
128.409
119.929
148.454
137.853
128.414
119.934
148.459
137.859
128.418
119.937
148.466
137.863
128.42
119.937
148.474
137.866
128.419
119.933
148.481
137.867
128.416
119.926
148.49
137.864
128.416
119.917
148.464
137.862
128.43
119.934
148.485
137.965
128.558
120.122
126.886
118.173
110.414
103.504
126.864
118.087
110.309
103.353
126.886
118.088
110.298
103.339
126.878
118.091
110.298
103.347
126.871
118.09
110.301
103.353
126.864
118.087
110.301
103.356
126.857
118.083
110.299
103.357
126.852
118.078
110.296
103.354
126.849
118.074
110.292
103.35
126.848
118.07
110.289
103.347
126.848
118.07
110.289
103.347
126.849
118.074
110.292
103.35
126.853
118.079
110.296
103.354
126.858
118.084
110.3
103.357
126.865
118.088
110.301
103.356
126.872
118.091
110.301
103.353
126.879
118.092
110.299
103.347
126.888
118.09
110.299
103.339
126.866
118.088
110.31
103.353
126.888
118.175
110.415
103.504
107.703
100.545
94.1987
88.5951
107.683
100.473
94.1138
88.4753
107.701
100.474
94.105
88.4636
107.694
100.476
94.1052
88.4705
107.688
100.475
94.107
88.4757
107.681
100.472
94.1072
88.4786
107.675
100.469
94.1056
88.4789
107.67
100.464
94.1026
88.4769
107.667
100.46
94.0989
88.4738
107.665
100.457
94.0962
88.4714
107.665
100.457
94.0963
88.4715
107.667
100.46
94.0991
88.4739
107.671
100.465
94.1029
88.4771
107.676
100.469
94.106
88.4791
107.682
100.473
94.1077
88.4788
107.689
100.476
94.1076
88.4759
107.696
100.478
94.1059
88.4707
107.703
100.476
94.1058
88.4639
107.685
100.475
94.1147
88.4756
107.706
100.546
94.1997
88.5954
90.8623
85.0033
79.8389
75.3186
90.8439
84.9448
79.7707
75.2236
90.8594
84.946
79.7636
75.2141
90.8531
84.9475
79.7638
75.22
90.8475
84.9462
79.7652
75.2243
90.8417
84.9438
79.7653
75.2266
90.8364
84.9404
79.7638
75.2267
90.8317
84.9365
79.7611
75.225
90.8283
84.9327
79.7579
75.2223
90.8269
84.93
79.7556
75.2203
90.827
84.9301
79.7556
75.2204
90.8286
84.933
79.7581
75.2225
90.8321
84.937
79.7614
75.2253
90.8371
84.9411
79.7643
75.2271
90.8428
84.9447
79.7659
75.227
90.8489
84.9474
79.766
75.2247
90.8548
84.9488
79.7647
75.2205
90.8614
84.9475
79.7646
75.2146
90.846
84.9464
79.7718
75.2242
90.8644
85.0051
79.8401
75.3192
76.2282
71.4374
67.2409
63.598
76.212
71.3896
67.1861
63.5226
76.2251
71.3906
67.1805
63.5148
76.2197
71.3918
67.1807
63.5198
76.2149
71.3907
67.1817
63.5232
76.2099
71.3885
67.1816
63.525
76.2052
71.3855
67.1802
63.5249
76.2011
71.3821
67.1778
63.5233
76.1981
71.3787
67.175
63.521
76.1967
71.3763
67.173
63.5193
76.1967
71.3764
67.1731
63.5194
76.1983
71.379
67.1753
63.5212
76.2016
71.3826
67.1782
63.5237
76.206
71.3863
67.1808
63.5254
76.2111
71.3895
67.1824
63.5256
76.2164
71.3919
67.1826
63.5239
76.2215
71.3933
67.1817
63.5205
76.2271
71.3923
67.1816
63.5156
76.2142
71.3914
67.1874
63.5235
76.2305
71.4393
67.2423
63.5989
63.6231
59.7035
56.2919
53.3523
63.609
59.6645
56.2479
53.2922
63.62
59.6654
56.2433
53.2858
63.6154
59.6664
56.2434
53.29
63.6114
59.6653
56.2443
53.2927
63.6072
59.6634
56.2441
53.294
63.6032
59.6608
56.2427
53.2937
63.5997
59.6579
56.2406
53.2922
63.597
59.6549
56.2382
53.2902
63.5957
59.6529
56.2365
53.2888
63.5958
59.653
56.2366
53.2889
63.5973
59.6553
56.2385
53.2905
63.6003
59.6585
56.2411
53.2927
63.6042
59.6617
56.2434
53.2943
63.6085
59.6645
56.2449
53.2947
63.6131
59.6667
56.2453
53.2935
63.6175
59.6679
56.2446
53.2908
63.6222
59.6672
56.2446
53.2868
63.6114
59.6664
56.2493
53.2932
63.6256
59.7055
56.2934
53.3534
52.8478
49.6388
46.8624
44.4862
52.8355
49.6068
46.8269
44.4381
52.8447
49.6076
46.8232
44.4329
52.8409
49.6084
46.8233
44.4363
52.8376
49.6076
46.824
44.4385
52.8341
49.6059
46.8237
44.4394
52.8308
49.6037
46.8226
44.439
52.8278
49.6012
46.8207
44.4377
52.8256
49.5987
46.8186
44.4359
52.8245
49.597
46.8172
44.4347
52.8246
49.5972
46.8173
44.4348
52.826
49.5991
46.819
44.4362
52.8286
49.6019
46.8212
44.4382
52.832
49.6047
46.8233
44.4397
52.8357
49.6072
46.8247
44.4401
52.8396
49.6091
46.8251
44.4393
52.8433
49.6102
46.8246
44.4372
52.8473
49.6096
46.8246
44.4339
52.8384
49.609
46.8284
44.4392
52.8507
49.641
46.864
44.4873
43.6994
41.0718
38.8109
36.8877
43.6889
41.0457
38.7822
36.8491
43.6965
41.0464
38.7793
36.8449
43.6934
41.0471
38.7793
36.8477
43.6907
41.0464
38.7798
36.8494
43.6879
41.045
38.7796
36.85
43.6852
41.0432
38.7786
36.8496
43.6827
41.0411
38.777
36.8484
43.6808
41.039
38.7753
36.847
43.6799
41.0376
38.7741
36.8459
43.6801
41.0378
38.7742
36.846
43.6814
41.0395
38.7756
36.8472
43.6837
41.0419
38.7776
36.8489
43.6866
41.0443
38.7794
36.8502
43.6898
41.0464
38.7806
36.8507
43.6931
41.0481
38.781
36.8501
43.6962
41.049
38.7807
36.8485
43.6996
41.0486
38.7807
36.8458
43.6922
41.0481
38.7838
36.8502
43.7029
41.0743
38.8126
36.8888
35.9818
33.8314
31.99
30.4325
35.9729
33.8101
31.9668
30.4016
35.9792
33.8107
31.9644
30.3981
35.9767
33.8113
31.9645
30.4004
35.9745
33.8107
31.9649
30.4017
35.9723
33.8096
31.9647
30.4022
35.9701
33.8081
31.9638
30.4018
35.9681
33.8064
31.9625
30.4008
35.9666
33.8047
31.961
30.3995
35.9659
33.8036
31.9601
30.3987
35.9661
33.8037
31.9602
30.3988
35.9673
33.8052
31.9614
30.3998
35.9693
33.8073
31.9631
30.4012
35.9718
33.8093
31.9646
30.4024
35.9746
33.8112
31.9657
30.4028
35.9774
33.8126
31.9661
30.4024
35.98
33.8135
31.9659
30.4011
35.9829
33.8132
31.9659
30.3989
35.9769
33.8128
31.9685
30.4025
35.9859
33.8342
31.9918
30.4335
29.5108
27.7524
26.253
24.9915
29.5033
27.7349
26.2342
24.9665
29.5085
27.7355
26.2322
24.9637
29.5065
27.736
26.2323
24.9656
29.5047
27.7355
26.2327
24.9667
29.5029
27.7347
26.2325
24.967
29.5012
27.7335
26.2318
24.9667
29.4996
27.7321
26.2307
24.9658
29.4985
27.7307
26.2295
24.9648
29.4979
27.7298
26.2287
24.9641
29.4982
27.73
26.2288
24.9641
29.4993
27.7313
26.2299
24.965
29.5011
27.7331
26.2313
24.9662
29.5033
27.7348
26.2326
24.9671
29.5056
27.7364
26.2335
24.9676
29.508
27.7376
26.2339
24.9672
29.5103
27.7384
26.2337
24.9662
29.5128
27.7382
26.2338
24.9644
29.5079
27.7379
26.2359
24.9673
29.5155
27.7554
26.2547
24.9923
24.116
22.6794
21.4589
20.437
24.1097
22.6652
21.4437
20.4169
24.114
22.6656
21.4421
20.4146
24.1124
22.6661
21.4422
20.4162
24.111
22.6657
21.4425
20.417
24.1096
22.6651
21.4424
20.4173
24.1083
22.6641
21.4418
20.417
24.107
22.663
21.4409
20.4163
24.1061
22.6619
21.44
20.4154
24.1058
22.6612
21.4393
20.4148
24.1061
22.6614
21.4394
20.4149
24.1071
22.6626
21.4403
20.4156
24.1087
22.6641
21.4415
20.4166
24.1107
22.6656
21.4426
20.4174
24.1127
22.667
21.4434
20.4177
24.1148
22.668
21.4437
20.4175
24.1167
22.6687
21.4436
20.4166
24.1188
22.6686
21.4437
20.4151
24.1149
22.6683
21.4454
20.4175
24.1213
22.6827
21.4607
20.4376
19.6425
18.4697
17.4765
16.6484
19.6373
18.4581
17.4641
16.6322
19.6408
18.4585
17.4629
16.6303
19.6395
18.4589
17.463
16.6316
19.6384
18.4586
17.4633
16.6324
19.6373
18.4581
17.4632
16.6326
19.6363
18.4574
17.4627
16.6323
19.6353
18.4565
17.462
16.6317
19.6346
18.4556
17.4612
16.631
19.6344
18.4551
17.4607
16.6305
19.6348
18.4553
17.4608
16.6305
19.6357
18.4563
17.4616
16.6311
19.6372
18.4576
17.4626
16.6319
19.6389
18.4589
17.4635
16.6325
19.6407
18.4601
17.4642
16.6328
19.6425
18.461
17.4645
16.6326
19.6442
18.4616
17.4644
16.6319
19.646
18.4616
17.4645
16.6307
19.6429
18.4614
17.4658
16.6325
19.6482
18.4731
17.4782
16.6488
15.9511
14.9942
14.1861
13.5147
15.9468
14.9848
14.1761
13.5015
15.9497
14.9851
14.1751
13.5001
15.9486
14.9855
14.1752
13.5012
15.9478
14.9853
14.1754
13.5018
15.9469
14.9849
14.1754
13.5019
15.9461
14.9843
14.175
13.5017
15.9454
14.9836
14.1744
13.5012
15.9449
14.983
14.1738
13.5006
15.9447
14.9826
14.1734
13.5002
15.9451
14.9828
14.1735
13.5003
15.946
14.9837
14.1741
13.5007
15.9473
14.9848
14.175
13.5013
15.9488
14.9859
14.1758
13.5018
15.9504
14.987
14.1763
13.5021
15.952
14.9878
14.1766
13.5019
15.9535
14.9883
14.1765
13.5013
15.9551
14.9883
14.1766
13.5003
15.9526
14.9882
14.1777
13.5018
15.9571
14.9978
14.1878
13.5149
12.9187
12.1384
11.4808
10.936
12.9152
12.1307
11.4726
10.9253
12.9175
12.131
11.4719
10.9242
12.9167
12.1313
11.472
10.9251
12.916
12.1312
11.4722
10.9255
12.9153
12.1309
11.4721
10.9257
12.9147
12.1304
11.4718
10.9255
12.9141
12.1299
11.4714
10.9251
12.9137
12.1293
11.4709
10.9246
12.9137
12.129
11.4705
10.9243
12.9141
12.1293
11.4706
10.9243
12.9149
12.13
11.4712
10.9246
12.916
12.131
11.4719
10.9251
12.9174
12.132
11.4725
10.9255
12.9188
12.1329
11.473
10.9257
12.9202
12.1336
11.4732
10.9255
12.9216
12.1341
11.4732
10.925
12.9229
12.1341
11.4732
10.9242
12.921
12.134
11.4741
10.9254
12.9247
12.1419
11.4824
10.9361
10.4376
9.8015
9.26633
8.82391
10.4348
9.79525
9.25971
8.81527
10.4366
9.7955
9.2591
8.81436
10.436
9.79575
9.2592
8.81508
10.4354
9.79568
9.25936
8.81547
10.4349
9.79544
9.25933
8.81558
10.4344
9.79507
9.25909
8.81542
10.4339
9.79464
9.25872
8.81508
10.4337
9.79424
9.25832
8.81467
10.4336
9.79402
9.25807
8.81439
10.434
9.79422
9.25816
8.81439
10.4347
9.79486
9.2586
8.81467
10.4357
9.79569
9.25918
8.81507
10.4369
9.79654
9.25972
8.81539
10.4382
9.79732
9.26013
8.81551
10.4394
9.79796
9.26033
8.81537
10.4406
9.7984
9.26032
8.81495
10.4418
9.79846
9.26037
8.81425
10.4403
9.79843
9.2611
8.81519
10.4434
9.80484
9.26781
8.82388
8.4149
7.89655
7.46097
7.10143
8.41257
7.89145
7.45558
7.09439
8.41405
7.89166
7.4551
7.09367
8.41352
7.89188
7.45519
7.09425
8.4131
7.89183
7.45532
7.09457
8.41267
7.89164
7.45529
7.09464
8.41227
7.89135
7.4551
7.0945
8.41191
7.89101
7.4548
7.09421
8.41169
7.89068
7.45447
7.09387
8.4117
7.89052
7.45427
7.09363
8.41201
7.8907
7.45435
7.09363
8.41263
7.89124
7.45471
7.09385
8.41351
7.89195
7.4552
7.09417
8.41454
7.89267
7.45565
7.09443
8.41562
7.89334
7.45599
7.09452
8.4167
7.89389
7.45617
7.0944
8.41771
7.89429
7.45618
7.09406
8.41872
7.89436
7.45622
7.09348
8.41757
7.89436
7.45682
7.09423
8.42009
7.89959
7.46229
7.10131
6.77104
6.34888
5.9944
5.70205
6.76915
6.34474
5.99001
5.69632
6.77033
6.34491
5.98962
5.69575
6.76991