/*--------------------------------*- C++ -*----------------------------------*\
| =========                 |                                                 |
| \\      /  F ield         | foam-extend: Open Source CFD                    |
|  \\    /   O peration     | Version:     3.1                                |
|   \\  /    A nd           | Web:         http://www.extend-project.de       |
|    \\/     M anipulation  |                                                 |
\*---------------------------------------------------------------------------*/
FoamFile
{
    version     2.0;
    format      ascii;
    class       volSymmTensorField;
    location    "0.0013";
    object      sigma;
}
// * * * * * * * * * * * * * * * * * * * * * * * * * * * * * * * * * * * * * //

dimensions      [1 -1 -2 0 0 0 0];

internalField   nonuniform List<symmTensor> 
6400
(
(1255.65 -64.104 1933.33 2677.78 44.6198 5804.11)
(281.002 -40.9235 2088.58 1196.38 59.3449 2068.62)
(-530.24 -21.7799 1972.29 -19.308 55.2673 -1037.78)
(-1517.97 -2.44669 1606.98 -1406.91 34.2872 -4619.94)
(1264.56 -166.193 1922.5 2654.17 223.488 5749.54)
(285.696 -107.204 2072.75 1178.09 242.48 2026.38)
(-530.967 -59.7886 1954.43 -34.2505 228.989 -1081.8)
(-1527.51 -12.6025 1586.9 -1422.66 185.739 -4681.32)
(1298.2 -272.653 1897.86 2616.2 375.121 5746.24)
(308.192 -175.059 2046.37 1155.17 405.166 2025.01)
(-517.941 -97.2973 1929.75 -47.1547 382.449 -1082.63)
(-1523.68 -20.1587 1567.26 -1426 310.749 -4681.64)
(1348.4 -372.136 1862.03 2564.1 523.718 5744.62)
(340.422 -238.991 2007.82 1121.77 565.153 2024.04)
(-499.974 -132.73 1893.42 -65.7555 533.28 -1083.11)
(-1519.97 -27.3685 1537.78 -1430.16 433.359 -4681.71)
(1413.76 -462.457 1814.85 2497.68 668.685 5743.97)
(382.446 -297.07 1956.99 1079.1 721.383 2023.76)
(-476.584 -164.989 1845.5 -89.4663 680.586 -1083.03)
(-1515.06 -34.0043 1498.84 -1435.08 553.036 -4681.23)
(1492.67 -541.415 1756.52 2418.37 809.248 5743.96)
(433.211 -347.846 1894.13 1028.13 872.938 2023.98)
(-448.297 -193.209 1786.21 -117.749 823.495 -1082.57)
(-1509.06 -39.8255 1450.66 -1440.83 669.12 -4680.44)
(1583.12 -607.086 1687.37 2327.97 944.618 5744.4)
(491.428 -390.072 1819.58 970.033 1018.92 2024.5)
(-415.844 -216.676 1715.9 -149.973 961.155 -1081.89)
(-1502.17 -44.664 1393.53 -1447.34 780.918 -4679.49)
(1682.88 -657.87 1607.78 2228.63 1074.02 5745.16)
(555.64 -422.707 1733.78 906.188 1158.48 2025.21)
(-380.059 -234.8 1635.01 -185.396 1092.74 -1081.12)
(-1494.58 -48.3873 1327.82 -1454.49 887.755 -4678.53)
(1789.52 -692.534 1518.25 2122.75 1196.7 5746.13)
(624.27 -444.945 1637.3 838.117 1290.79 2025.98)
(-341.861 -247.124 1544.07 -223.183 1217.47 -1080.41)
(-1486.53 -50.8957 1253.99 -1462.15 988.995 -4677.71)
(1900.82 -710.321 1419.4 2012.95 1312 5747.17)
(695.563 -456.232 1530.83 767.435 1415.11 2026.57)
(-302.29 -253.35 1443.73 -262.429 1334.66 -1079.95)
(-1478.31 -52.143 1172.57 -1470.14 1084.09 -4677.23)
(2012.95 -710.321 1312 1900.82 1419.4 5747.17)
(767.435 -456.232 1415.11 695.563 1530.83 2026.57)
(-262.429 -253.35 1334.66 -302.29 1443.73 -1079.95)
(-1470.14 -52.143 1084.09 -1478.31 1172.57 -4677.23)
(2122.75 -692.534 1196.7 1789.52 1518.25 5746.13)
(838.117 -444.945 1290.79 624.269 1637.3 2025.98)
(-223.183 -247.124 1217.47 -341.861 1544.07 -1080.41)
(-1462.15 -50.8957 988.995 -1486.53 1253.99 -4677.71)
(2228.63 -657.87 1074.02 1682.88 1607.78 5745.16)
(906.187 -422.707 1158.48 555.64 1733.78 2025.21)
(-185.396 -234.8 1092.74 -380.059 1635.01 -1081.12)
(-1454.48 -48.3873 887.754 -1494.58 1327.82 -4678.53)
(2327.97 -607.086 944.617 1583.12 1687.37 5744.4)
(970.033 -390.071 1018.92 491.427 1819.57 2024.5)
(-149.973 -216.676 961.154 -415.844 1715.9 -1081.89)
(-1447.34 -44.6639 780.918 -1502.17 1393.53 -4679.49)
(2418.37 -541.415 809.248 1492.67 1756.52 5743.96)
(1028.12 -347.846 872.937 433.211 1894.13 2023.98)
(-117.749 -193.209 823.494 -448.297 1786.21 -1082.57)
(-1440.83 -39.8254 669.12 -1509.06 1450.66 -4680.44)
(2497.68 -462.457 668.685 1413.76 1814.85 5743.96)
(1079.1 -297.07 721.383 382.445 1956.99 2023.76)
(-89.4667 -164.989 680.585 -476.585 1845.5 -1083.03)
(-1435.08 -34.0042 553.036 -1515.06 1498.84 -4681.23)
(2564.1 -372.136 523.718 1348.4 1862.03 5744.62)
(1121.77 -238.991 565.152 340.422 2007.82 2024.03)
(-65.7559 -132.73 533.279 -499.974 1893.42 -1083.11)
(-1430.16 -27.3684 433.359 -1519.97 1537.77 -4681.71)
(2616.2 -272.653 375.121 1298.2 1897.86 5746.23)
(1155.17 -175.059 405.166 308.192 2046.37 2025.01)
(-47.1552 -97.2972 382.448 -517.942 1929.75 -1082.63)
(-1426 -20.1586 310.748 -1523.68 1567.26 -4681.64)
(2654.17 -166.193 223.488 1264.55 1922.49 5749.54)
(1178.09 -107.203 242.48 285.695 2072.75 2026.38)
(-34.2511 -59.7886 228.989 -530.967 1954.42 -1081.8)
(-1422.66 -12.6024 185.739 -1527.51 1586.9 -4681.32)
(2677.78 -64.104 44.6197 1255.65 1933.32 5804.11)
(1196.38 -40.9235 59.3448 281.001 2088.58 2068.62)
(-19.3086 -21.7798 55.2673 -530.24 1972.29 -1037.78)
(-1406.91 -2.44668 34.2872 -1517.97 1606.97 -4619.94)
(-1214.28 -141.449 846.396 2009.56 -29.2736 1791.75)
(-689.241 -107.385 1573.45 1767.79 11.0733 1021.34)
(-357.078 -75.5304 1543.26 1422.3 10.2739 -57.9338)
(27.2382 -46.4292 806.985 1201.11 -28.5646 -910.819)
(-1154.79 -376.955 852.56 1997.63 100.588 1795.04)
(-647.313 -287.702 1563.65 1747.39 185.138 1009.03)
(-324.303 -207.977 1523.57 1406.57 180.993 -72.7259)
(56.637 -136.429 779.148 1195.21 94.103 -918.16)
(-1077.96 -619.041 842.184 1913.98 167.447 1791.39)
(-587.082 -470.304 1544.08 1687.15 307.415 1006.81)
(-280.21 -339.793 1504.36 1362.79 300.047 -74.8384)
(86.2808 -223.333 769.382 1165.94 154.583 -919.757)
(-962.84 -845.028 826.323 1797.46 233.151 1790.47)
(-499.784 -642.149 1515.04 1598.82 427.677 1005.95)
(-217.012 -463.842 1476.05 1299.11 417.118 -75.404)
(127.769 -304.816 754.861 1123.93 214.297 -920.105)
(-813.89 -1050.22 805.324 1647.47 297.306 1790.15)
(-386.556 -798.253 1476.67 1484.89 545.206 1005.82)
(-135.19 -576.639 1438.68 1216.87 531.562 -75.2882)
(181.559 -378.95 735.713 1069.92 272.714 -919.75)
(-634.616 -1229.6 779.318 1467.59 359.548 1790.22)
(-250.198 -934.736 1429.19 1348.12 659.319 1006.08)
(-36.6359 -675.287 1392.46 1118.09 642.702 -74.8253)
(246.334 -443.786 712.061 1005.03 329.464 -919.094)
(-429.399 -1378.8 748.453 1262.14 419.5 1790.56)
(-94.067 -1048.24 1372.89 1191.85 769.315 1006.56)
(76.2145 -757.312 1337.66 1005.15 749.845 -74.2059)
(320.48 -497.677 684.047 930.793 384.178 -918.354)
(-203.245 -1494.18 712.911 1036.12 476.781 1791.07)
(78.0108 -1135.96 1308.1 1019.89 874.501 1007.14)
(200.572 -820.669 1274.63 880.818 852.315 -73.5631)
(402.146 -539.266 651.853 849.017 436.492 -917.674)
(38.3416 -1572.94 672.93 795.017 531.001 1791.64)
(261.863 -1195.74 1235.26 836.447 974.21 1007.73)
(333.359 -863.773 1203.78 748.174 949.467 -73.0093)
(489.282 -567.513 615.707 761.731 486.063 -917.17)
(290.443 -1613.31 629.043 545.029 581.76 1792.52)
(452.953 -1226.06 1154.97 646.061 1067.83 1008.2)
(471.19 -885.566 1125.64 610.548 1040.72 -72.66)
(579.689 -581.759 575.872 671.201 532.595 -916.906)
(545.029 -1613.31 581.76 290.443 629.043 1792.52)
(646.061 -1226.06 1067.83 452.953 1154.97 1008.2)
(610.548 -885.566 1040.72 471.19 1125.64 -72.6601)
(671.201 -581.759 532.595 579.689 575.873 -916.906)
(795.017 -1572.94 531.002 38.3411 672.93 1791.64)
(836.447 -1195.74 974.21 261.863 1235.26 1007.73)
(748.174 -863.773 949.467 333.358 1203.78 -73.0096)
(761.73 -567.513 486.063 489.282 615.707 -917.17)
(1036.12 -1494.18 476.781 -203.245 712.911 1791.07)
(1019.89 -1135.96 874.501 78.0103 1308.1 1007.14)
(880.818 -820.669 852.315 200.571 1274.63 -73.5635)
(849.017 -539.266 436.491 402.146 651.853 -917.674)
(1262.14 -1378.8 419.5 -429.4 748.453 1790.56)
(1191.85 -1048.24 769.314 -94.0677 1372.89 1006.56)
(1005.15 -757.312 749.845 76.214 1337.66 -74.2065)
(930.793 -497.677 384.177 320.48 684.046 -918.354)
(1467.59 -1229.6 359.548 -634.617 779.317 1790.22)
(1348.12 -934.736 659.319 -250.199 1429.19 1006.08)
(1118.08 -675.287 642.701 -36.6364 1392.46 -74.8261)
(1005.03 -443.786 329.464 246.333 712.06 -919.095)
(1647.47 -1050.22 297.306 -813.891 805.323 1790.15)
(1484.89 -798.252 545.206 -386.557 1476.67 1005.82)
(1216.87 -576.639 531.562 -135.191 1438.68 -75.2891)
(1069.92 -378.949 272.713 181.559 735.713 -919.75)
(1797.46 -845.028 233.151 -962.841 826.322 1790.47)
(1598.82 -642.149 427.677 -499.785 1515.04 1005.95)
(1299.11 -463.842 417.117 -217.013 1476.05 -75.405)
(1123.92 -304.816 214.296 127.769 754.86 -920.106)
(1913.98 -619.041 167.447 -1077.96 842.183 1791.39)
(1687.15 -470.304 307.415 -587.083 1544.08 1006.81)
(1362.79 -339.793 300.046 -280.211 1504.36 -74.8394)
(1165.94 -223.333 154.583 86.2805 769.381 -919.758)
(1997.63 -376.955 100.588 -1154.79 852.559 1795.04)
(1747.38 -287.702 185.138 -647.314 1563.65 1009.03)
(1406.57 -207.977 180.993 -324.304 1523.57 -72.7271)
(1195.21 -136.429 94.1028 56.6367 779.148 -918.16)
(2009.56 -141.449 -29.2736 -1214.28 846.396 1791.75)
(1767.79 -107.385 11.0733 -689.242 1573.45 1021.34)
(1422.3 -75.5303 10.2738 -357.079 1543.26 -57.935)
(1201.11 -46.4291 -28.5647 27.2379 806.984 -910.82)
(-1196.23 -171.721 534.764 2858.5 -44.3055 -71.6868)
(-783.326 -155.709 932.333 2867.62 -22.6827 317.775)
(-344.038 -136.683 909.694 2885.46 -23.4768 601.321)
(12.9373 -121.976 481.633 2935.13 -45.4037 972.47)
(-1137.79 -474.232 534.552 2827.88 62.104 -57.9434)
(-730.5 -427.418 924.333 2829.08 108.28 324.479)
(-297.891 -377.523 895.277 2847.05 105.401 606.106)
(50.29 -340.22 463.909 2893.19 55.6994 976.989)
(-1041.61 -779.41 527.839 2725.12 104.685 -59.899)
(-641.33 -699.692 912.723 2741.1 181.614 324.873)
(-218.605 -618.104 883.957 2769.32 176.492 606.647)
(122.165 -558.905 458.298 2823.66 92.636 977.729)
(-896.508 -1064.22 517.856 2579.54 146.148 -60.1183)
(-511.228 -955.56 895.51 2610.69 253.097 324.754)
(-103.416 -844.123 867.306 2654.45 245.703 606.797)
(226.25 -763.396 449.615 2719.87 128.566 977.948)
(-708.797 -1322.85 504.65 2391.29 186.463 -60.2455)
(-342.602 -1187.97 872.776 2441.82 322.69 324.829)
(45.6181 -1049.5 845.295 2505.43 313.063 607.076)
(361.077 -949.158 438.143 2585.26 163.451 978.408)
(-482.894 -1548.97 488.28 2165.08 225.508 -60.183)
(-139.62 -1391.18 844.646 2238.7 390.149 325.076)
(225.005 -1229.08 818.081 2326.05 378.35 607.512)
(523.335 -1111.56 424.003 2423.13 197.206 979.021)
(-224.314 -1737.06 468.838 1906.48 263.085 -59.9589)
(92.7451 -1560.18 811.293 2006.35 455.121 325.443)
(430.344 -1378.39 785.841 2120.74 441.226 608.022)
(709.025 -1246.55 407.299 2237.48 229.678 979.668)
(60.6403 -1882.51 446.445 1621.82 298.947 -59.6139)
(348.806 -1690.8 772.933 1750.49 517.208 325.866)
(656.581 -1493.73 748.792 1894.59 501.317 608.522)
(913.55 -1350.77 388.15 2032.92 260.679 980.237)
(365.033 -1981.79 421.286 1318.06 332.812 -59.2055)
(622.342 -1779.8 729.853 1477.45 576.003 326.302)
(898.137 -1572.23 707.201 1653.21 558.245 608.94)
(1131.83 -1421.65 366.701 1814.51 290.019 980.636)
(682.365 -2032.57 393.812 1002.95 364.394 -58.418)
(906.588 -1824.93 682.469 1193.98 631.145 326.694)
(1148.93 -1611.94 661.396 1402.64 611.679 609.207)
(1358.42 -1457.46 343.118 1587.8 317.532 980.831)
(1002.95 -2032.57 364.394 682.364 393.811 -58.4181)
(1193.98 -1824.93 631.145 906.588 682.469 326.694)
(1402.64 -1611.94 611.679 1148.93 661.396 609.207)
(1587.8 -1457.46 317.531 1358.42 343.118 980.831)
(1318.06 -1981.79 332.812 365.033 421.286 -59.2058)
(1477.45 -1779.8 576.003 622.341 729.853 326.302)
(1653.21 -1572.23 558.245 898.136 707.201 608.94)
(1814.51 -1421.65 290.018 1131.83 366.701 980.635)
(1621.82 -1882.51 298.947 60.6391 446.445 -59.6144)
(1750.49 -1690.8 517.208 348.805 772.932 325.865)
(1894.59 -1493.73 501.317 656.58 748.792 608.521)
(2032.92 -1350.77 260.678 913.549 388.15 980.236)
(1906.48 -1737.06 263.085 -224.315 468.837 -59.9596)
(2006.35 -1560.18 455.121 92.744 811.292 325.442)
(2120.74 -1378.39 441.226 430.343 785.841 608.021)
(2237.48 -1246.55 229.677 709.024 407.299 979.668)
(2165.08 -1548.97 225.508 -482.896 488.28 -60.1837)
(2238.7 -1391.18 390.149 -139.621 844.646 325.075)
(2326.05 -1229.07 378.35 225.004 818.08 607.511)
(2423.13 -1111.56 197.206 523.334 424.003 979.02)
(2391.29 -1322.85 186.463 -708.799 504.649 -60.2463)
(2441.82 -1187.97 322.69 -342.604 872.775 324.828)
(2505.43 -1049.5 313.063 45.6172 845.295 607.075)
(2585.26 -949.157 163.451 361.077 438.142 978.406)
(2579.54 -1064.22 146.147 -896.51 517.856 -60.1193)
(2610.68 -955.56 253.097 -511.229 895.51 324.753)
(2654.44 -844.122 245.702 -103.417 867.305 606.796)
(2719.86 -763.395 128.566 226.249 449.614 977.947)
(2725.11 -779.41 104.685 -1041.61 527.839 -59.9001)
(2741.1 -699.692 181.614 -641.331 912.722 324.872)
(2769.32 -618.104 176.492 -218.606 883.956 606.645)
(2823.66 -558.904 92.6358 122.164 458.297 977.728)
(2827.88 -474.232 62.104 -1137.79 534.551 -57.9446)
(2829.08 -427.418 108.28 -730.501 924.333 324.478)
(2847.05 -377.523 105.401 -297.891 895.276 606.105)
(2893.19 -340.22 55.6993 50.2896 463.908 976.987)
(2858.5 -171.721 -44.3055 -1196.23 534.763 -71.6881)
(2867.62 -155.709 -22.6827 -783.327 932.332 317.773)
(2885.46 -136.683 -23.4768 -344.039 909.693 601.32)
(2935.12 -121.976 -45.4037 12.937 481.632 972.469)
(-1131.95 -204.717 286.799 3782.12 -42.8241 -1141.47)
(-745.92 -197.272 487.394 3935.02 -31.8406 -49.0421)
(-350.244 -187.722 470.631 4094.13 -32.4334 968.801)
(-12.583 -180.088 246.746 4276.81 -43.6023 2038.26)
(-1066.65 -574.699 284.95 3737.31 32.1536 -1120.14)
(-685.404 -548.04 481.298 3881.12 55.601 -33.0275)
(-294.953 -519.808 461.416 4036.86 53.7982 982.93)
(35.5784 -499.09 236.044 4209.64 28.2269 2049.91)
(-950.138 -944.437 281.325 3614.18 55.0598 -1121.09)
(-572.398 -897.827 475.146 3767.73 94.1233 -31.8729)
(-187.331 -851.524 455.567 3929.2 90.8986 984.291)
(140.566 -820.697 233.212 4107.95 47.4865 2052.2)
(-774.371 -1289.73 275.947 3438.27 77.3587 -1120.74)
(-405.48 -1226.27 466.099 3600.53 131.621 -31.361)
(-28.6694 -1163.08 446.92 3770.93 126.912 985.14)
(293.378 -1121.2 228.715 3955.58 66.1321 2053.16)
(-546.826 -1603.35 268.846 3210.51 98.9894 -1120.66)
(-189.016 -1524.61 454.174 3384.08 168.006 -31.0065)
(176.749 -1446.12 435.478 3565.76 161.8 985.741)
(491.444 -1394.06 222.764 3757.95 84.066 2053.98)
(-272.964 -1877.6 260.03 2936.64 119.898 -1120.6)
(71.5266 -1785.49 439.433 3123.64 203.188 -30.7032)
(423.959 -1693.58 421.356 3318.75 195.492 986.272)
(729.781 -1632.58 215.478 3519.91 101.27 2054.74)
(40.5158 -2105.73 249.537 2623.36 139.989 -1120.49)
(369.759 -2002.46 421.969 2825.61 237.011 -30.4004)
(706.897 -1899.35 404.668 3036.01 227.852 986.761)
(1002.52 -1830.85 206.934 3247.36 117.708 2055.41)
(385.958 -2282.16 237.441 2278.36 159.115 -1120.32)
(698.38 -2170.16 401.911 2497.33 269.274 -30.0917)
(1018.61 -2058.31 385.542 2724.5 258.709 987.19)
(1302.92 -1983.97 197.209 2947.02 133.317 2055.96)
(754.94 -2402.55 223.872 1910.09 177.086 -1120.07)
(1049.38 -2284.42 379.435 2146.89 299.755 -29.7692)
(1351.41 -2166.52 364.136 2391.95 287.88 987.532)
(1623.54 -2088.12 186.389 2626.36 148.027 2056.33)
(1139.35 -2464.03 209.203 1527.88 193.712 -1119.39)
(1414.1 -2342.36 354.819 1782.98 328.271 -29.4495)
(1696.98 -2221.28 340.643 2046.65 315.211 987.751)
(1956.42 -2140.8 174.563 2293.4 161.779 2056.5)
(1527.88 -2464.03 193.712 1139.35 209.203 -1119.39)
(1782.98 -2342.36 328.271 1414.1 354.819 -29.4496)
(2046.65 -2221.28 315.211 1696.98 340.643 987.751)
(2293.4 -2140.79 161.778 1956.41 174.563 2056.5)
(1910.09 -2402.55 177.086 754.939 223.872 -1120.07)
(2146.89 -2284.42 299.755 1049.38 379.435 -29.7695)
(2391.95 -2166.52 287.879 1351.41 364.136 987.532)
(2626.36 -2088.12 148.027 1623.54 186.39 2056.33)
(2278.36 -2282.16 159.115 385.957 237.441 -1120.32)
(2497.33 -2170.16 269.274 698.378 401.911 -30.0923)
(2724.5 -2058.31 258.709 1018.61 385.542 987.189)
(2947.02 -1983.96 133.317 1302.92 197.209 2055.96)
(2623.36 -2105.73 139.989 40.5139 249.537 -1120.49)
(2825.61 -2002.46 237.011 369.758 421.969 -30.4011)
(3036.01 -1899.35 227.852 706.896 404.668 986.76)
(3247.35 -1830.85 117.707 1002.52 206.934 2055.41)
(2936.64 -1877.6 119.898 -272.966 260.029 -1120.6)
(3123.64 -1785.49 203.188 71.525 439.433 -30.704)
(3318.75 -1693.58 195.492 423.957 421.356 986.271)
(3519.91 -1632.58 101.27 729.78 215.478 2054.74)
(3210.51 -1603.35 98.9894 -546.828 268.846 -1120.66)
(3384.08 -1524.61 168.006 -189.018 454.174 -31.0074)
(3565.76 -1446.12 161.8 176.747 435.477 985.74)
(3757.95 -1394.06 84.0657 491.443 222.764 2053.98)
(3438.27 -1289.73 77.3587 -774.373 275.947 -1120.74)
(3600.53 -1226.27 131.621 -405.482 466.098 -31.3621)
(3770.93 -1163.08 126.912 -28.6705 446.92 985.139)
(3955.58 -1121.2 66.1318 293.377 228.715 2053.16)
(3614.18 -944.437 55.0597 -950.141 281.325 -1121.09)
(3767.72 -897.826 94.1232 -572.399 475.146 -31.8741)
(3929.2 -851.523 90.8985 -187.332 455.567 984.29)
(4107.95 -820.697 47.4863 140.566 233.212 2052.2)
(3737.3 -574.699 32.1536 -1066.65 284.95 -1120.14)
(3881.12 -548.04 55.6009 -685.406 481.298 -33.0287)
(4036.86 -519.808 53.7981 -294.954 461.415 982.928)
(4209.63 -499.09 28.2268 35.5779 236.043 2049.91)
(3782.11 -204.717 -42.8241 -1131.95 286.799 -1141.48)
(3935.01 -197.272 -31.8407 -745.922 487.394 -49.0434)
(4094.13 -187.721 -32.4334 -350.245 470.631 968.8)
(4276.8 -180.087 -43.6023 -12.5835 246.745 2038.26)
(-1069.46 -231.653 108.539 4527.88 -30.7149 -1627.76)
(-708.746 -227.957 182.615 4725.86 -26.5059 -211.858)
(-348.584 -222.587 174.32 4929.86 -26.714 1145.51)
(-32.8539 -217.844 88.2595 5153.36 -30.7688 2530.14)
(-997.5 -654.718 106.694 4473.61 11.0484 -1602.93)
(-641.577 -636.461 178.993 4661.74 20.0877 -191.76)
(-286.159 -617.503 169.524 4860.56 19.5474 1163.55)
(23.1804 -603.34 83.0695 5070.61 10.1602 2544.39)
(-864.739 -1075.79 105.372 4334.07 19.5343 -1603.62)
(-510.934 -1042.85 176.617 4529.75 34.4702 -190.565)
(-158.941 -1011.76 167.27 4732.25 33.3984 1164.96)
(149.934 -992.383 81.9942 4947.6 17.2863 2547.25)
(-664.559 -1469.14 103.349 4133.96 27.9163 -1602.97)
(-317.06 -1424.32 173.143 4335.53 48.5193 -189.79)
(29.5862 -1381.99 163.95 4544 46.8254 1166.11)
(334.712 -1355.81 80.2557 4763.14 24.1439 2548.58)
(-405.332 -1826.5 100.631 3874.77 36.101 -1602.76)
(-65.5997 -1770.85 168.571 4084.21 62.1265 -189.268)
(273.705 -1718.27 159.575 4300.16 59.7478 1166.91)
(574.235 -1685.72 77.986 4524.01 30.6129 2549.66)
(-93.3199 -2139.03 97.2059 3563.01 44.0424 -1602.71)
(237.042 -2073.89 162.928 3781.84 75.2457 -188.922)
(567.448 -2012.28 154.221 4006.7 72.1326 1167.52)
(862.435 -1974.08 75.275 4236.1 36.6742 2550.53)
(263.83 -2399.05 93.0819 3206.29 51.681 -1602.7)
(583.437 -2325.93 156.262 3435.79 87.8144 -188.663)
(903.611 -2256.74 147.955 3670.81 83.9402 1168)
(1192.21 -2213.79 72.1852 3906.52 42.3337 2551.25)
(657.384 -2600.15 88.2957 2813.32 58.9209 -1602.66)
(965.103 -2520.75 148.641 3054.56 99.7465 -188.44)
(1273.94 -2445.61 140.85 3300.76 95.1175 1168.39)
(1555.43 -2398.91 68.7691 3543.41 47.5966 2551.81)
(1077.73 -2737.36 82.9353 2393.71 65.6291 -1602.56)
(1372.74 -2653.5 140.169 2647.54 110.942 -188.209)
(1669.31 -2574.19 132.993 2905.68 105.608 1168.68)
(1943.11 -2524.87 65.0758 3155.72 52.4673 2552.17)
(1515.48 -2807.35 77.3224 1958.07 71.6751 -1602)
(1796.29 -2720.81 131.032 2224.77 121.335 -187.952)
(2079.89 -2639.28 124.487 2495.38 115.381 1168.86)
(2345.64 -2588.59 61.1438 2753.15 56.9637 2552.34)
(1958.07 -2807.35 71.6751 1515.48 77.3225 -1602)
(2224.77 -2720.81 121.335 1796.29 131.032 -187.952)
(2495.38 -2639.28 115.38 2079.89 124.487 1168.86)
(2753.15 -2588.59 56.9635 2345.64 61.144 2552.34)
(2393.71 -2737.36 65.629 1077.73 82.9354 -1602.56)
(2647.53 -2653.5 110.942 1372.74 140.169 -188.209)
(2905.68 -2574.19 105.608 1669.31 132.993 1168.68)
(3155.72 -2524.87 52.4671 1943.11 65.0759 2552.17)
(2813.32 -2600.15 58.9208 657.382 88.2958 -1602.66)
(3054.56 -2520.75 99.7464 965.102 148.641 -188.441)
(3300.76 -2445.61 95.1173 1273.94 140.85 1168.38)
(3543.41 -2398.91 47.5963 1555.43 68.7692 2551.81)
(3206.29 -2399.05 51.6809 263.828 93.0819 -1602.7)
(3435.79 -2325.93 87.8143 583.435 156.262 -188.663)
(3670.81 -2256.74 83.94 903.61 147.955 1168)
(3906.52 -2213.79 42.3335 1192.21 72.1853 2551.25)
(3563.01 -2139.03 44.0423 -93.3222 97.2059 -1602.71)
(3781.84 -2073.89 75.2456 237.04 162.928 -188.923)
(4006.7 -2012.28 72.1325 567.446 154.221 1167.52)
(4236.1 -1974.08 36.674 862.434 75.275 2550.53)
(3874.77 -1826.5 36.101 -405.335 100.631 -1602.76)
(4084.21 -1770.85 62.1264 -65.6016 168.571 -189.269)
(4300.16 -1718.27 59.7476 273.703 159.575 1166.91)
(4524.01 -1685.72 30.6127 574.234 77.9859 2549.65)
(4133.96 -1469.14 27.9163 -664.562 103.349 -1602.97)
(4335.52 -1424.32 48.5193 -317.062 173.143 -189.791)
(4543.99 -1381.99 46.8252 29.5848 163.95 1166.11)
(4763.14 -1355.81 24.1438 334.711 80.2556 2548.58)
(4334.07 -1075.79 19.5343 -864.742 105.372 -1603.62)
(4529.74 -1042.85 34.4702 -510.936 176.617 -190.566)
(4732.25 -1011.76 33.3983 -158.942 167.27 1164.96)
(4947.6 -992.382 17.2862 149.933 81.9941 2547.25)
(4473.6 -654.718 11.0484 -997.503 106.694 -1602.94)
(4661.73 -636.461 20.0877 -641.579 178.992 -191.761)
(4860.56 -617.503 19.5473 -286.161 169.524 1163.55)
(5070.61 -603.339 10.1601 23.1798 83.0694 2544.39)
(4527.88 -231.652 -30.7149 -1069.46 108.539 -1627.76)
(4725.85 -227.957 -26.506 -708.748 182.615 -211.86)
(4929.86 -222.587 -26.714 -348.586 174.32 1145.5)
(5153.35 -217.844 -30.7688 -32.8544 88.2594 2530.14)
(-1009.4 -246.625 -18.2168 4961.53 -13.5744 -1719.19)
(-670.813 -243.729 -28.9237 5148.84 -13.9586 -240.822)
(-339.114 -239.426 -29.4857 5343.55 -13.8189 1189.24)
(-44.1069 -235.112 -20.082 5556.54 -13.0157 2632.72)
(-933.192 -698.565 -19.2916 4903.08 -3.69126 -1693.65)
(-599.811 -681.803 -30.0181 5080.01 -4.26471 -219.928)
(-272.841 -665 -30.4761 5268.84 -3.69654 1207.9)
(16.0385 -651.622 -20.8235 5467.13 -1.88496 2646.9)
(-791.441 -1147.78 -18.9833 4754.67 -5.60652 -1694.36)
(-460.002 -1117.14 -29.7998 4938.59 -6.7337 -218.922)
(-136.002 -1089.56 -30.3164 5130.47 -5.90858 1209.05)
(152.91 -1071.77 -20.7667 5334.05 -3.06693 2649.68)
(-577.832 -1567.49 -18.6158 4541.45 -7.26062 -1693.61)
(-252.278 -1525.71 -29.4522 4730.57 -9.07636 -218.133)
(67.053 -1488.19 -30.0435 4927.57 -8.11208 1210.16)
(352.471 -1464.19 -20.6703 5134.54 -4.32505 2650.94)
(-301.199 -1948.84 -18.2234 4265.2 -8.71266 -1693.32)
(17.1256 -1896.85 -28.9824 4461.45 -11.3501 -217.585)
(329.956 -1850.21 -29.6301 4664.9 -10.3599 1210.94)
(611.132 -1820.34 -20.4704 4876.03 -5.73037 2651.95)
(31.7672 -2282.4 -17.8387 3932.83 -10.0003 -1693.25)
(341.32 -2221.41 -28.3827 4137.67 -13.5684 -217.25)
(646.247 -2166.69 -29.0335 4348.86 -12.6561 1211.49)
(922.318 -2131.6 -20.1046 4564.93 -7.29423 2652.74)
(412.895 -2559.96 -17.4795 3552.43 -11.1704 -1693.27)
(712.343 -2491.36 -27.637 3767.14 -15.7403 -217.041)
(1008.17 -2429.81 -28.2142 3987.21 -14.9869 1211.89)
(1278.36 -2390.3 -19.5209 4208.93 -8.99364 2653.36)
(832.855 -2774.63 -17.1378 3133.25 -12.2963 -1693.31)
(1121.11 -2700.03 -26.7156 3358.9 -17.8825 -216.893)
(1406.83 -2633.1 -27.1333 3588.81 -17.3326 1212.19)
(1670.48 -2590.09 -18.6779 3816.81 -10.7888 2653.83)
(1281.37 -2921.09 -16.7555 2685.54 -13.4821 -1693.31)
(1557.65 -2842.22 -25.56 2922.99 -20.0166 -216.739)
(1832.44 -2771.5 -25.7469 3163.48 -19.667 1212.4)
(2089.02 -2726.04 -17.5456 3398.22 -12.6277 2654.13)
(1748.35 -2995.76 -16.0466 2220.59 -14.8271 -1692.84)
(2011.25 -2914.32 -24.0444 2470.17 -22.1295 -216.539)
(2274.43 -2841.57 -24.0072 2721.76 -21.9352 1212.55)
(2523.6 -2794.82 -16.1163 2963.58 -14.4395 2654.27)
(2220.59 -2995.76 -14.8273 1748.34 -16.0464 -1692.84)
(2470.17 -2914.32 -22.1297 2011.24 -24.0442 -216.539)
(2721.76 -2841.57 -21.9353 2274.43 -24.0071 1212.55)
(2963.58 -2794.82 -14.4396 2523.6 -16.1162 2654.27)
(2685.54 -2921.09 -13.4822 1281.37 -16.7554 -1693.31)
(2922.99 -2842.22 -20.0168 1557.65 -25.5598 -216.74)
(3163.48 -2771.5 -19.6671 1832.44 -25.7468 1212.4)
(3398.22 -2726.04 -12.6278 2089.02 -17.5455 2654.13)
(3133.25 -2774.63 -12.2965 832.853 -17.1376 -1693.31)
(3358.9 -2700.03 -17.8826 1121.11 -26.7155 -216.893)
(3588.81 -2633.1 -17.3326 1406.83 -27.1332 1212.19)
(3816.81 -2590.09 -10.7888 1670.48 -18.6778 2653.83)
(3552.43 -2559.96 -11.1705 412.893 -17.4793 -1693.27)
(3767.14 -2491.36 -15.7404 712.341 -27.6368 -217.042)
(3987.21 -2429.81 -14.9869 1008.16 -28.2141 1211.89)
(4208.93 -2390.3 -8.99367 1278.36 -19.5208 2653.36)
(3932.83 -2282.4 -10.0004 31.7648 -17.8385 -1693.25)
(4137.67 -2221.41 -13.5685 341.318 -28.3826 -217.251)
(4348.86 -2166.69 -12.6562 646.246 -29.0333 1211.49)
(4564.93 -2131.6 -7.29426 922.317 -20.1045 2652.74)
(4265.2 -1948.84 -8.71273 -301.201 -18.2232 -1693.33)
(4461.45 -1896.85 -11.3501 17.1235 -28.9822 -217.586)
(4664.9 -1850.21 -10.3599 329.954 -29.63 1210.93)
(4876.03 -1820.34 -5.73039 611.131 -20.4703 2651.95)
(4541.45 -1567.49 -7.26068 -577.835 -18.6156 -1693.61)
(4730.56 -1525.71 -9.0764 -252.28 -29.452 -218.134)
(4927.57 -1488.19 -8.11211 67.0516 -30.0434 1210.16)
(5134.54 -1464.18 -4.32506 352.47 -20.6702 2650.94)
(4754.67 -1147.78 -5.60657 -791.444 -18.9831 -1694.36)
(4938.58 -1117.14 -6.73373 -460.005 -29.7996 -218.922)
(5130.47 -1089.56 -5.90859 -136.003 -30.3163 1209.05)
(5334.05 -1071.76 -3.06692 152.909 -20.7666 2649.68)
(4903.07 -698.565 -3.6913 -933.195 -19.2914 -1693.65)
(5080.01 -681.802 -4.26472 -599.814 -30.0179 -219.929)
(5268.84 -664.999 -3.69654 -272.842 -30.476 1207.9)
(5467.13 -651.621 -1.88495 16.0379 -20.8234 2646.9)
(4961.53 -246.625 -13.5744 -1009.4 -18.2167 -1719.19)
(5148.83 -243.729 -13.9586 -670.816 -28.9235 -240.823)
(5343.55 -239.425 -13.8189 -339.115 -29.4855 1189.24)
(5556.54 -235.112 -13.0157 -44.1075 -20.0819 2632.71)
(-941.662 -247.274 -114.662 5042.09 4.33641 -1531.51)
(-625.164 -243.461 -187.253 5186.78 0.532102 -176.126)
(-320.021 -238.428 -181.442 5340.14 0.931395 1136.91)
(-47.0584 -233.181 -101.14 5512.29 5.29174 2457.85)
(-864.778 -700.27 -114.733 4984.44 -14.7563 -1507.28)
(-554.006 -681.251 -185.998 5118.55 -22.3693 -156.724)
(-253.76 -662.685 -179.154 5266.1 -20.926 1153.91)
(13.1709 -646.998 -98.1769 5424.03 -10.8239 2470.24)
(-722.515 -1150.59 -113.223 4836.06 -24.6157 -1508.02)
(-414.188 -1116.12 -183.88 4977.37 -37.4537 -155.932)
(-117.316 -1085.62 -177.234 5128.1 -35.1093 1154.69)
(149.121 -1063.96 -97.3085 5291.52 -18.198 2472.49)
(-508.261 -1571.37 -111.066 4622.73 -33.9677 -1507.19)
(-206.556 -1524.21 -180.73 4769.65 -52.1114 -155.261)
(85.0549 -1482.63 -174.342 4925.78 -48.9999 1155.49)
(347.235 -1453.34 -95.8776 5093.06 -25.5431 2473.27)
(-230.813 -1953.73 -108.336 4346.22 -42.8135 -1506.76)
(62.6664 -1894.89 -176.552 4500.92 -66.326 -154.78)
(347.004 -1843.11 -170.427 4663.95 -62.6017 1155.99)
(603.953 -1806.64 -93.873 4836.06 -32.8622 2473.81)
(103.115 -2288.21 -105.084 4013.43 -51.1679 -1506.54)
(386.578 -2219.01 -171.353 4177.63 -80.0727 -154.497)
(662.07 -2158.17 -165.47 4349.03 -75.8837 1156.29)
(912.733 -2115.3 -91.2545 4526.96 -40.1469 2474.17)
(485.323 -2566.57 -101.351 3632.43 -59.0619 -1506.45)
(757.21 -2488.57 -165.138 3807.67 -93.3156 -154.34)
(1022.51 -2420.06 -159.45 3988.76 -88.7893 1156.47)
(1265.96 -2371.78 -87.976 4173.42 -47.3606 2474.4)
(906.44 -2781.88 -97.1533 3212.47 -66.5494 -1506.43)
(1165.48 -2696.93 -157.9 3400.07 -106.018 -154.247)
(1419.47 -2622.36 -152.343 3591.99 -101.245 1156.58)
(1654.92 -2569.82 -83.9984 3784.18 -54.4421 2474.56)
(1356.14 -2928.79 -92.4564 2763.77 -73.7114 -1506.41)
(1601.43 -2838.91 -149.608 2964.82 -118.14 -154.15)
(1843.21 -2760.09 -144.13 3168.46 -113.16 1156.66)
(2070.06 -2704.55 -79.2985 3368.81 -61.3059 2474.65)
(1824.24 -3003.67 -87.0013 2297.65 -80.6251 -1505.99)
(2054.36 -2910.9 -140.173 2512.64 -129.602 -153.996)
(2283.26 -2829.81 -134.796 2728.64 -124.409 1156.73)
(2501.13 -2772.72 -73.8853 2937.59 -67.8377 2474.68)
(2297.65 -3003.67 -80.6254 1824.24 -87.0011 -1505.99)
(2512.64 -2910.9 -129.602 2054.36 -140.173 -153.996)
(2728.64 -2829.81 -124.409 2283.26 -134.796 1156.73)
(2937.59 -2772.72 -67.8376 2501.13 -73.8853 2474.68)
(2763.77 -2928.79 -73.7116 1356.14 -92.4561 -1506.41)
(2964.82 -2838.91 -118.14 1601.42 -149.608 -154.15)
(3168.46 -2760.09 -113.16 1843.21 -144.13 1156.66)
(3368.81 -2704.55 -61.3057 2070.06 -79.2985 2474.65)
(3212.47 -2781.88 -66.5496 906.438 -97.153 -1506.43)
(3400.07 -2696.93 -106.018 1165.47 -157.9 -154.247)
(3591.98 -2622.36 -101.245 1419.47 -152.343 1156.58)
(3784.18 -2569.82 -54.4419 1654.92 -83.9984 2474.56)
(3632.43 -2566.57 -59.0621 485.321 -101.35 -1506.45)
(3807.67 -2488.57 -93.3156 757.208 -165.138 -154.34)
(3988.76 -2420.06 -88.7892 1022.51 -159.449 1156.47)
(4173.42 -2371.78 -47.3605 1265.96 -87.9758 2474.4)
(4013.43 -2288.21 -51.168 103.113 -105.083 -1506.54)
(4177.63 -2219.01 -80.0727 386.576 -171.353 -154.497)
(4349.03 -2158.17 -75.8837 662.068 -165.47 1156.29)
(4526.96 -2115.3 -40.1467 912.732 -91.2543 2474.17)
(4346.22 -1953.73 -42.8136 -230.815 -108.335 -1506.76)
(4500.92 -1894.89 -66.3261 62.6644 -176.552 -154.78)
(4663.94 -1843.11 -62.6016 347.002 -170.427 1155.99)
(4836.06 -1806.63 -32.8621 603.952 -93.8728 2473.81)
(4622.73 -1571.37 -33.9678 -508.264 -111.066 -1507.19)
(4769.65 -1524.21 -52.1114 -206.558 -180.73 -155.262)
(4925.78 -1482.63 -48.9999 85.0536 -174.342 1155.49)
(5093.06 -1453.33 -25.5429 347.234 -95.8773 2473.27)
(4836.06 -1150.59 -24.6157 -722.518 -113.222 -1508.02)
(4977.37 -1116.12 -37.4537 -414.19 -183.879 -155.932)
(5128.1 -1085.62 -35.1093 -117.317 -177.234 1154.69)
(5291.52 -1063.95 -18.1979 149.12 -97.3082 2472.49)
(4984.44 -700.27 -14.7563 -864.781 -114.732 -1507.28)
(5118.54 -681.251 -22.3693 -554.008 -185.997 -156.724)
(5266.1 -662.685 -20.926 -253.761 -179.154 1153.91)
(5424.03 -646.997 -10.8238 13.1704 -98.1766 2470.24)
(5042.09 -247.274 4.33638 -941.665 -114.662 -1531.52)
(5186.78 -243.461 0.532088 -625.167 -187.253 -176.127)
(5340.14 -238.428 0.931395 -320.022 -181.442 1136.9)
(5512.29 -233.181 5.29176 -47.0589 -101.14 2457.85)
(-852.003 -234.01 -197.397 4797.57 19.8104 -1116.27)