/*--------------------------------*- C++ -*----------------------------------*\
| =========                 |                                                 |
| \\      /  F ield         | foam-extend: Open Source CFD                    |
|  \\    /   O peration     | Version:     3.1                                |
|   \\  /    A nd           | Web:         http://www.extend-project.de       |
|    \\/     M anipulation  |                                                 |
\*---------------------------------------------------------------------------*/
FoamFile
{
    version     2.0;
    format      ascii;
    class       volVectorField;
    location    "0.0011";
    object      cellMotionU;
}
// * * * * * * * * * * * * * * * * * * * * * * * * * * * * * * * * * * * * * //

dimensions      [0 1 -1 0 0 0 0];

internalField   nonuniform List<vector> 
16000
(
(-4.9303e-10 6.51948e-10 -3.34972e-09)
(-1.42582e-09 5.80281e-10 -3.42656e-09)
(-2.19544e-09 4.66932e-10 -3.58033e-09)
(-2.73343e-09 3.27863e-10 -3.8167e-09)
(-2.96778e-09 1.75492e-10 -4.1471e-09)
(-2.82084e-09 2.73891e-11 -4.58726e-09)
(-2.21692e-09 -9.67121e-11 -5.15412e-09)
(-1.10044e-09 -1.74205e-10 -5.86076e-09)
(5.3339e-10 -1.8152e-10 -6.70336e-09)
(2.59849e-09 -9.35284e-11 -7.63854e-09)
(-4.81313e-10 2.01146e-09 -3.39357e-09)
(-1.41111e-09 1.82215e-09 -3.47464e-09)
(-2.20564e-09 1.48419e-09 -3.63785e-09)
(-2.7799e-09 1.05639e-09 -3.88829e-09)
(-3.05838e-09 5.84269e-10 -4.23779e-09)
(-2.95958e-09 1.17641e-10 -4.7023e-09)
(-2.39916e-09 -2.81602e-10 -5.30023e-09)
(-1.30511e-09 -5.46198e-10 -6.05056e-09)
(3.54586e-10 -6.02656e-10 -6.95763e-09)
(2.54073e-09 -3.78531e-10 -8.00412e-09)
(-4.74762e-10 3.54181e-09 -3.48481e-09)
(-1.401e-09 3.25652e-09 -3.57412e-09)
(-2.22566e-09 2.71489e-09 -3.75584e-09)
(-2.86696e-09 1.98138e-09 -4.03465e-09)
(-3.23513e-09 1.15433e-09 -4.42122e-09)
(-3.23923e-09 3.20196e-10 -4.93304e-09)
(-2.77687e-09 -4.22805e-10 -5.59245e-09)
(-1.74949e-09 -9.58326e-10 -6.4197e-09)
(-8.02912e-11 -1.16254e-09 -7.42861e-09)
(2.27294e-09 -9.15395e-10 -8.62238e-09)
(-4.64436e-10 5.41008e-09 -3.63036e-09)
(-1.38746e-09 5.02199e-09 -3.73346e-09)
(-2.24492e-09 4.28078e-09 -3.94225e-09)
(-2.96885e-09 3.24067e-09 -4.26289e-09)
(-3.47025e-09 2.00929e-09 -4.70573e-09)
(-3.63874e-09 7.29844e-10 -5.28647e-09)
(-3.35136e-09 -4.55105e-10 -6.02946e-09)
(-2.46972e-09 -1.38796e-09 -6.95873e-09)
(-8.63703e-10 -1.89296e-09 -8.08757e-09)
(1.58847e-09 -1.80165e-09 -9.41978e-09)
(-4.43042e-10 7.77462e-09 -3.84046e-09)
(-1.34212e-09 7.2842e-09 -3.96324e-09)
(-2.22615e-09 6.32052e-09 -4.21012e-09)
(-3.04226e-09 4.95771e-09 -4.58629e-09)
(-3.70979e-09 3.29386e-09 -5.10187e-09)
(-4.10743e-09 1.4815e-09 -5.77218e-09)
(-4.08442e-09 -2.73896e-10 -6.62107e-09)
(-3.46796e-09 -1.76038e-09 -7.67248e-09)
(-2.06415e-09 -2.7561e-09 -8.93667e-09)
(3.15976e-10 -3.04749e-09 -1.04039e-08)
(-3.98089e-10 1.07927e-08 -4.12507e-09)
(-1.22698e-09 1.0198e-08 -4.27414e-09)
(-2.10493e-09 9.006e-09 -4.57212e-09)
(-3.00942e-09 7.28561e-09 -5.02148e-09)
(-3.86853e-09 5.15148e-09 -5.62794e-09)
(-4.5593e-09 2.74885e-09 -6.40963e-09)
(-4.90236e-09 2.86959e-10 -7.38729e-09)
(-4.68328e-09 -1.93279e-09 -8.57935e-09)
(-3.67272e-09 -3.62484e-09 -1.00016e-08)
(-1.60719e-09 -4.53983e-09 -1.16222e-08)
(-3.11276e-10 1.46137e-08 -4.4875e-09)
(-9.91141e-10 1.39138e-08 -4.67284e-09)
(-1.80069e-09 1.25039e-08 -5.04088e-09)
(-2.76305e-09 1.041e-08 -5.58478e-09)
(-3.82622e-09 7.75008e-09 -6.30693e-09)
(-4.86282e-09 4.69456e-09 -7.21894e-09)
(-5.67469e-09 1.45096e-09 -8.34689e-09)
(-5.99852e-09 -1.68411e-09 -9.70879e-09)
(-5.56653e-09 -4.27657e-09 -1.13063e-08)
(-4.07604e-09 -6.02107e-09 -1.31028e-08)
(-1.60027e-10 1.93664e-08 -4.91373e-09)
(-5.69132e-10 1.85755e-08 -5.1539e-09)
(-1.20953e-09 1.69626e-08 -5.61726e-09)
(-2.1643e-09 1.45154e-08 -6.28369e-09)
(-3.41777e-09 1.13042e-08 -7.1471e-09)
(-4.84041e-09 7.50074e-09 -8.21797e-09)
(-6.20185e-09 3.3803e-09 -9.51443e-09)
(-7.20198e-09 -7.52922e-10 -1.10647e-08)
(-7.49279e-09 -4.39472e-09 -1.28276e-08)
(-6.77044e-09 -7.09712e-09 -1.48043e-08)
(8.35974e-11 2.51228e-08 -5.35118e-09)
(1.22344e-10 2.42699e-08 -5.68009e-09)
(-2.04734e-10 2.24959e-08 -6.28255e-09)
(-1.0526e-09 1.97518e-08 -7.10667e-09)
(-2.4489e-09 1.60271e-08 -8.139e-09)
(-4.27116e-09 1.14413e-08 -9.39543e-09)
(-6.24965e-09 6.28867e-09 -1.08915e-08)
(-8.00107e-09 1.04756e-09 -1.26222e-08)
(-9.09111e-09 -3.68651e-09 -1.45233e-08)
(-9.20718e-09 -7.35665e-09 -1.66242e-08)
(4.59469e-10 3.18675e-08 -5.67087e-09)
(1.18285e-09 3.09884e-08 -6.16805e-09)
(1.36375e-09 2.91752e-08 -6.98898e-09)
(7.56717e-10 2.62609e-08 -8.01657e-09)
(-7.15085e-10 2.21065e-08 -9.23976e-09)
(-2.9311e-09 1.6747e-08 -1.06999e-08)
(-5.57018e-09 1.04787e-08 -1.24237e-08)
(-8.13132e-09 3.91451e-09 -1.43696e-08)
(-1.00374e-08 -2.0903e-09 -1.64124e-08)
(-1.08584e-08 -6.63763e-09 -1.84194e-08)
(-1.54631e-09 1.7702e-09 -9.54611e-09)
(-4.4881e-09 1.56505e-09 -9.72298e-09)
(-6.96668e-09 1.23774e-09 -1.00771e-08)
(-8.79627e-09 8.33425e-10 -1.06222e-08)
(-9.77861e-09 3.88005e-10 -1.13868e-08)
(-9.69475e-09 -4.87372e-11 -1.24117e-08)
(-8.32585e-09 -4.20607e-10 -1.37453e-08)
(-5.50435e-09 -6.63817e-10 -1.5436e-08)
(-1.19991e-09 -7.13334e-10 -1.75093e-08)
(4.3693e-09 -5.01528e-10 -1.99247e-08)
(-1.51006e-09 5.46397e-09 -9.62991e-09)
(-4.44288e-09 4.91804e-09 -9.81691e-09)
(-6.99855e-09 3.94048e-09 -1.01937e-08)
(-8.9395e-09 2.69656e-09 -1.07728e-08)
(-1.00579e-08 1.31577e-09 -1.15838e-08)
(-1.0126e-08 -5.97006e-11 -1.26688e-08)
(-8.90403e-09 -1.2547e-09 -1.40809e-08)
(-6.18734e-09 -2.08057e-09 -1.58855e-08)
(-1.88692e-09 -2.33184e-09 -1.81347e-08)
(3.86346e-09 -1.8121e-09 -2.0868e-08)
(-1.49125e-09 9.62814e-09 -9.80935e-09)
(-4.41471e-09 8.80077e-09 -1.00159e-08)
(-7.06346e-09 7.22854e-09 -1.0437e-08)
(-9.21043e-09 5.09466e-09 -1.10844e-08)
(-1.06042e-08 2.67616e-09 -1.19853e-08)
(-1.09935e-08 2.18075e-10 -1.31864e-08)
(-1.00951e-08 -2.00209e-09 -1.47524e-08)
(-7.63918e-09 -3.65751e-09 -1.67557e-08)
(-3.43334e-09 -4.40311e-09 -1.92793e-08)
(2.57283e-09 -3.91152e-09 -2.24293e-08)
(-1.4634e-09 1.47199e-08 -1.01062e-08)
(-4.38395e-09 1.3592e-08 -1.03458e-08)
(-7.13642e-09 1.14356e-08 -1.08315e-08)
(-9.53702e-09 8.40529e-09 -1.15794e-08)
(-1.13402e-08 4.80506e-09 -1.26165e-08)
(-1.22387e-08 1.03823e-09 -1.39861e-08)
(-1.18975e-08 -2.49492e-09 -1.57598e-08)
(-9.94682e-09 -5.35267e-09 -1.80235e-08)
(-6.05999e-09 -7.04627e-09 -2.08651e-08)
(1.22383e-11 -7.11805e-09 -2.44032e-08)
(-1.40653e-09 2.11699e-08 -1.05538e-08)
(-4.26984e-09 1.97426e-08 -1.08407e-08)
(-7.11524e-09 1.69377e-08 -1.14182e-08)
(-9.80257e-09 1.29633e-08 -1.22996e-08)
(-1.21147e-08 8.09602e-09 -1.35125e-08)
(-1.3719e-08 2.76484e-09 -1.51006e-08)
(-1.42049e-08 -2.45673e-09 -1.71361e-08)
(-1.3114e-08 -6.97929e-09 -1.97083e-08)
(-9.95328e-09 -1.01882e-08 -2.29039e-08)
(-4.29548e-09 -1.15066e-08 -2.68144e-08)
(-1.28566e-09 2.94014e-08 -1.1191e-08)
(-3.96589e-09 2.76695e-08 -1.15418e-08)
(-6.81816e-09 2.4199e-08 -1.22432e-08)
(-9.79184e-09 1.91804e-08 -1.33017e-08)
(-1.26957e-08 1.29337e-08 -1.47349e-08)
(-1.52001e-08 5.86303e-09 -1.65946e-08)
(-1.68204e-08 -1.44792e-09 -1.8948e-08)
(-1.69832e-08 -8.16374e-09 -2.18742e-08)
(-1.5111e-08 -1.35081e-08 -2.54791e-08)
(-1.05738e-08 -1.68077e-08 -2.9807e-08)
(-1.04929e-09 3.98083e-08 -1.20528e-08)
(-3.33027e-09 3.77694e-08 -1.24928e-08)
(-6.02225e-09 3.36605e-08 -1.33654e-08)
(-9.20841e-09 2.75495e-08 -1.46545e-08)
(-1.27578e-08 1.97587e-08 -1.63697e-08)
(-1.63293e-08 1.07595e-08 -1.85486e-08)
(-1.93952e-08 1.12312e-09 -2.12741e-08)
(-2.12565e-08 -8.33199e-09 -2.46283e-08)
(-2.12254e-08 -1.64225e-08 -2.86871e-08)
(-1.85799e-08 -2.23414e-08 -3.3493e-08)
(-6.34581e-10 5.27138e-08 -1.31552e-08)
(-2.18213e-09 5.04061e-08 -1.37312e-08)
(-4.44079e-09 4.56992e-08 -1.48391e-08)
(-7.67076e-09 3.85463e-08 -1.64299e-08)
(-1.18504e-08 2.91293e-08 -1.84924e-08)
(-1.66364e-08 1.79145e-08 -2.1063e-08)
(-2.14075e-08 5.66115e-09 -2.42079e-08)
(-2.53772e-08 -6.80406e-09 -2.80396e-08)
(-2.76153e-08 -1.80798e-08 -3.25306e-08)
(-2.74373e-08 -2.70218e-08 -3.78315e-08)
(3.46045e-11 6.82621e-08 -1.44614e-08)
(-2.91904e-10 6.57628e-08 -1.52592e-08)
(-1.72696e-09 6.05702e-08 -1.67133e-08)
(-4.74318e-09 5.25259e-08 -1.86961e-08)
(-9.45144e-09 4.15712e-08 -2.11789e-08)
(-1.55353e-08 2.80155e-08 -2.42118e-08)
(-2.22621e-08 1.26697e-08 -2.78566e-08)
(-2.85858e-08 -3.13343e-09 -3.21471e-08)
(-3.33229e-08 -1.77236e-08 -3.70027e-08)
(-3.5793e-08 -2.97015e-08 -4.26577e-08)
(1.06589e-09 8.63243e-08 -1.5819e-08)
(2.60862e-09 8.3719e-08 -1.70374e-08)
(2.52368e-09 7.83657e-08 -1.90399e-08)
(6.62046e-11 6.97703e-08 -2.15344e-08)
(-5.02694e-09 5.74913e-08 -2.4497e-08)
(-1.24549e-08 4.15796e-08 -2.8043e-08)
(-2.1341e-08 2.28491e-08 -3.22634e-08)
(-3.02804e-08 3.04246e-09 -3.7102e-08)
(-3.76254e-08 -1.5383e-08 -4.23243e-08)
(-4.21785e-08 -2.99175e-08 -4.77258e-08)
(-2.77329e-09 2.45027e-09 -1.47916e-08)
(-8.09465e-09 2.13561e-09 -1.49454e-08)
(-1.27188e-08 1.62592e-09 -1.52529e-08)
(-1.63928e-08 9.89131e-10 -1.57264e-08)
(-1.8836e-08 2.81682e-10 -1.63924e-08)
(-1.97192e-08 -4.20699e-10 -1.72885e-08)
(-1.86863e-08 -1.0314e-09 -1.84599e-08)
(-1.54187e-08 -1.45259e-09 -1.99526e-08)
(-9.74004e-09 -1.58641e-09 -2.17918e-08)
(-1.74417e-09 -1.3311e-09 -2.3937e-08)
(-2.7081e-09 7.56879e-09 -1.47995e-08)
(-8.01109e-09 6.7211e-09 -1.49634e-08)
(-1.27669e-08 5.19498e-09 -1.5294e-08)
(-1.66287e-08 3.23611e-09 -1.58017e-08)
(-1.93011e-08 1.04235e-09 -1.6514e-08)
(-2.04455e-08 -1.16719e-09 -1.7471e-08)
(-1.96809e-08 -3.12505e-09 -1.87245e-08)
(-1.66524e-08 -4.5447e-09 -2.03409e-08)
(-1.11332e-08 -5.11033e-09 -2.23824e-08)
(-3.19162e-09 -4.52359e-09 -2.49137e-08)
(-2.67579e-09 1.33548e-08 -1.48356e-08)
(-7.96003e-09 1.20586e-08 -1.50185e-08)
(-1.28704e-08 9.59142e-09 -1.53919e-08)
(-1.70787e-08 6.23133e-09 -1.59672e-08)
(-2.0212e-08 2.39319e-09 -1.67688e-08)
(-2.19008e-08 -1.54945e-09 -1.78423e-08)
(-2.17147e-08 -5.17312e-09 -1.92532e-08)
(-1.92191e-08 -7.98001e-09 -2.10813e-08)
(-1.40796e-08 -9.44219e-09 -2.34299e-08)
(-6.18529e-09 -9.05906e-09 -2.6452e-08)
(-2.6332e-09 2.0451e-08 -1.49335e-08)
(-7.92056e-09 1.86802e-08 -1.51484e-08)
(-1.30058e-08 1.52879e-08 -1.55838e-08)
(-1.76353e-08 1.05107e-08 -1.62561e-08)
(-2.14525e-08 4.80679e-09 -1.71912e-08)
(-2.39965e-08 -1.21669e-09 -1.84315e-08)
(-2.47685e-08 -6.95469e-09 -2.00514e-08)
(-2.3209e-08 -1.17338e-08 -2.2148e-08)
(-1.8814e-08 -1.48086e-08 -2.48369e-08)
(-1.12282e-08 -1.5483e-08 -2.82933e-08)
(-2.55174e-09 2.94584e-08 -1.51413e-08)
(-7.76909e-09 2.72169e-08 -1.54019e-08)
(-1.30271e-08 2.28092e-08 -1.59264e-08)
(-1.81372e-08 1.65451e-08 -1.67272e-08)
(-2.27959e-08 8.8412e-09 -1.78324e-08)
(-2.65142e-08 3.44763e-10 -1.9287e-08)
(-2.86799e-08 -8.08645e-09 -2.11657e-08)
(-2.86117e-08 -1.55635e-08 -2.35706e-08)
(-2.55812e-08 -2.11487e-08 -2.66205e-08)
(-1.89888e-08 -2.39704e-08 -3.04662e-08)
(-2.37926e-09 4.09607e-08 -1.55186e-08)
(-7.34594e-09 3.82461e-08 -1.5842e-08)
(-1.26579e-08 3.28045e-08 -1.64877e-08)
(-1.82681e-08 2.491e-08 -1.74606e-08)
(-2.39094e-08 1.50369e-08 -1.87785e-08)
(-2.91119e-08 3.78839e-09 -2.04955e-08)
(-3.31628e-08 -7.95641e-09 -2.26845e-08)
(-3.52037e-08 -1.8947e-08 -2.54374e-08)
(-3.43998e-08 -2.80282e-08 -2.88902e-08)
(-2.98572e-08 -3.41719e-08 -3.31502e-08)
(-2.03753e-09 5.54899e-08 -1.61322e-08)
(-6.43946e-09 5.23068e-08 -1.65448e-08)
(-1.15693e-08 4.58793e-08 -1.73594e-08)
(-1.75892e-08 3.62911e-08 -1.85579e-08)
(-2.43271e-08 2.40026e-08 -2.01493e-08)
(-3.12897e-08 9.7116e-09 -2.21737e-08)
(-3.7716e-08 -5.72975e-09 -2.47213e-08)
(-4.25786e-08 -2.10894e-08 -2.78893e-08)
(-4.48572e-08 -3.46161e-08 -3.17824e-08)
(-4.35387e-08 -4.51013e-08 -3.6507e-08)
(-1.43224e-09 7.34623e-08 -1.70483e-08)
(-4.78133e-09 6.98762e-08 -1.75988e-08)
(-9.3356e-09 6.25409e-08 -1.8649e-08)
(-1.55364e-08 5.13443e-08 -2.01451e-08)
(-2.33853e-08 3.65201e-08 -2.20739e-08)
(-3.23857e-08 1.87446e-08 -2.44751e-08)
(-4.16181e-08 -8.47799e-10 -2.74234e-08)
(-4.9948e-08 -2.10232e-08 -3.1048e-08)
(-5.59574e-08 -3.96482e-08 -3.53563e-08)
(-5.87376e-08 -5.51059e-08 -4.05571e-08)
(-4.51415e-10 9.50193e-08 -1.83127e-08)
(-2.02732e-09 9.11602e-08 -1.90905e-08)
(-5.44131e-09 8.31061e-08 -2.04912e-08)
(-1.14687e-08 7.05408e-08 -2.23761e-08)
(-2.03231e-08 5.33089e-08 -2.47129e-08)
(-3.15522e-08 3.18385e-08 -2.75551e-08)
(-4.40559e-08 7.35059e-09 -3.09751e-08)
(-5.62512e-08 -1.81256e-08 -3.50283e-08)
(-6.63224e-08 -4.20187e-08 -3.96748e-08)
(-7.34116e-08 -6.24029e-08 -4.52066e-08)
(1.06384e-09 1.19891e-07 -1.99025e-08)
(2.21891e-09 1.15904e-07 -2.1114e-08)
(7.12997e-10 1.07634e-07 -2.3074e-08)
(-4.66646e-09 9.42188e-08 -2.54681e-08)
(-1.43759e-08 7.48882e-08 -2.82656e-08)
(-2.79885e-08 4.96634e-08 -3.15869e-08)
(-4.41734e-08 1.97849e-08 -3.55358e-08)
(-6.07477e-08 -1.20349e-08 -4.00824e-08)
(-7.5104e-08 -4.19598e-08 -4.50409e-08)
(-8.53534e-08 -6.61853e-08 -5.02795e-08)
(-4.15085e-09 2.621e-09 -1.94514e-08)
(-1.21893e-08 2.23031e-09 -1.9473e-08)
(-1.94016e-08 1.58524e-09 -1.95142e-08)
(-2.55432e-08 7.68037e-10 -1.95766e-08)
(-3.03242e-08 -1.48937e-10 -1.96645e-08)
(-3.33693e-08 -1.07248e-09 -1.97816e-08)
(-3.42286e-08 -1.89379e-09 -1.99286e-08)
(-3.24308e-08 -2.49022e-09 -2.00957e-08)
(-2.75582e-08 -2.74055e-09 -2.0248e-08)
(-1.93299e-08 -2.51559e-09 -2.0293e-08)
(-4.04999e-09 8.10279e-09 -1.92722e-08)
(-1.20508e-08 7.03429e-09 -1.92973e-08)
(-1.94426e-08 5.09783e-09 -1.93485e-08)
(-2.58367e-08 2.58604e-09 -1.94242e-08)
(-3.09225e-08 -2.56592e-10 -1.95288e-08)
(-3.43168e-08 -3.15547e-09 -1.96694e-08)
(-3.55432e-08 -5.77856e-09 -1.98513e-08)
(-3.41047e-08 -7.77049e-09 -2.00761e-08)
(-2.95548e-08 -8.72975e-09 -2.03372e-08)
(-2.16701e-08 -8.27373e-09 -2.06154e-08)
(-3.9978e-09 1.43165e-08 -1.89398e-08)
(-1.19543e-08 1.26665e-08 -1.89704e-08)
(-1.95422e-08 9.51984e-09 -1.90341e-08)
(-2.63986e-08 5.21689e-09 -1.9134e-08)
(-3.20926e-08 2.56836e-10 -1.92706e-08)
(-3.6205e-08 -4.8984e-09 -1.94534e-08)
(-3.82162e-08 -9.72246e-09 -1.9696e-08)
(-3.75415e-08 -1.35947e-08 -2.00128e-08)
(-3.36451e-08 -1.58466e-08 -2.04236e-08)
(-2.61812e-08 -1.58311e-08 -2.09659e-08)
(-3.93603e-09 2.19603e-08 -1.8489e-08)
(-1.18896e-08 1.97045e-08 -1.85289e-08)
(-1.96967e-08 1.53727e-08 -1.86095e-08)
(-2.70984e-08 9.25759e-09 -1.8738e-08)
(-3.36927e-08 1.91537e-09 -1.89194e-08)
(-3.8927e-08 -5.91578e-09 -1.91604e-08)
(-4.22009e-08 -1.3491e-08 -1.94779e-08)
(-4.28022e-08 -1.99666e-08 -1.98967e-08)
(-4.00134e-08 -2.43993e-08 -2.04464e-08)
(-3.32435e-08 -2.5892e-08 -2.11753e-08)
(-3.83243e-09 3.16797e-08 -1.79607e-08)
(-1.17022e-08 2.8831e-08 -1.8014e-08)
(-1.97419e-08 2.3225e-08 -1.81224e-08)
(-2.77651e-08 1.52286e-08 -1.82884e-08)
(-3.54456e-08 5.34816e-09 -1.8522e-08)
(-4.22072e-08 -5.62558e-09 -1.88353e-08)
(-4.72966e-08 -1.66499e-08 -1.92411e-08)
(-4.98518e-08 -2.66214e-08 -1.97632e-08)
(-4.89063e-08 -3.43452e-08 -2.04328e-08)
(-4.35902e-08 -3.86983e-08 -2.12818e-08)
(-3.62389e-09 4.40919e-08 -1.74014e-08)
(-1.11978e-08 4.06641e-08 -1.74758e-08)
(-1.93343e-08 3.37864e-08 -1.76247e-08)
(-2.8023e-08 2.37664e-08 -1.78461e-08)
(-3.697e-08 1.11657e-08 -1.8146e-08)
(-4.56371e-08 -3.28574e-09 -1.85412e-08)
(-5.31578e-08 -1.85034e-08 -1.90504e-08)
(-5.84274e-08 -3.2948e-08 -1.96872e-08)
(-6.0353e-08 -4.51785e-08 -2.04748e-08)
(-5.77155e-08 -5.38391e-08 -2.14289e-08)
(-3.2131e-09 5.97451e-08 -1.68622e-08)
(-1.01186e-08 5.57703e-08 -1.69709e-08)
(-1.8078e-08 4.77144e-08 -1.71794e-08)
(-2.73404e-08 3.56377e-08 -1.74791e-08)
(-3.77253e-08 2.00544e-08 -1.78692e-08)
(-4.8644e-08 1.80013e-09 -1.83625e-08)
(-5.91835e-08 -1.8074e-08 -1.89857e-08)
(-6.8056e-08 -3.80259e-08 -1.97589e-08)
(-7.38852e-08 -5.58951e-08 -2.06813e-08)
(-7.53034e-08 -7.00968e-08 -2.176e-08)
(-2.48332e-09 7.9046e-08 -1.6396e-08)
(-8.13734e-09 7.46423e-08 -1.65616e-08)
(-1.5453e-08 6.55703e-08 -1.68626e-08)
(-2.50297e-08 5.16e-08 -1.72706e-08)
(-3.69012e-08 3.29393e-08 -1.77768e-08)
(-5.04611e-08 1.0381e-08 -1.83951e-08)
(-6.45627e-08 -1.46738e-08 -1.91483e-08)
(-7.78054e-08 -4.06717e-08 -2.00671e-08)
(-8.82929e-08 -6.49035e-08 -2.11322e-08)
(-9.47871e-08 -8.53654e-08 -2.23546e-08)
(-1.29768e-09 1.02087e-07 -1.60501e-08)
(-4.82316e-09 9.74853e-08 -1.63174e-08)
(-1.082e-08 8.77296e-08 -1.67666e-08)
(-2.03028e-08 7.22439e-08 -1.73213e-08)
(-3.35659e-08 5.07147e-08 -1.79663e-08)
(-5.00471e-08 2.36266e-08 -1.8727e-08)
(-6.83483e-08 -7.48562e-09 -1.96329e-08)
(-8.64379e-08 -4.0051e-08 -2.06944e-08)
(-1.01925e-07 -7.07737e-08 -2.18824e-08)
(-1.13668e-07 -9.73252e-08 -2.32191e-08)
(5.43117e-10 1.285e-07 -1.58403e-08)
(3.22745e-10 1.2402e-07 -1.63144e-08)
(-3.42196e-09 1.14341e-07 -1.70078e-08)
(-1.22596e-08 9.80764e-08 -1.77549e-08)
(-2.67759e-08 7.41066e-08 -1.8545e-08)
(-4.64189e-08 4.24323e-08 -1.94433e-08)
(-6.94726e-08 4.66553e-09 -2.0504e-08)
(-9.31031e-08 -3.56999e-08 -2.17177e-08)
(-1.13883e-07 -7.37628e-08 -2.30083e-08)
(-1.29259e-07 -1.04767e-07 -2.42975e-08)
(-5.50657e-09 2.41848e-09 -2.46433e-08)
(-1.62623e-08 1.98645e-09 -2.45141e-08)
(-2.61944e-08 1.25903e-09 -2.42523e-08)
(-3.51544e-08 3.24119e-10 -2.38469e-08)
(-4.2944e-08 -7.36822e-10 -2.32784e-08)
(-4.92617e-08 -1.82344e-09 -2.25153e-08)
(-5.37075e-08 -2.81673e-09 -2.15158e-08)
(-5.58267e-08 -3.58384e-09 -2.02266e-08)
(-5.51506e-08 -3.99785e-09 -1.8589e-08)
(-5.12377e-08 -3.9237e-09 -1.65457e-08)
(-5.36502e-09 7.474e-09 -2.42505e-08)
(-1.60509e-08 6.27502e-09 -2.41145e-08)
(-2.61917e-08 4.08757e-09 -2.38416e-08)
(-3.54432e-08 1.2187e-09 -2.34175e-08)
(-4.35786e-08 -2.0662e-09 -2.28212e-08)
(-5.02889e-08 -5.46592e-09 -2.20248e-08)
(-5.51421e-08 -8.62135e-09 -2.09869e-08)
(-5.76663e-08 -1.11523e-08 -1.96512e-08)
(-5.73669e-08 -1.26227e-08 -1.79669e-08)
(-5.38841e-08 -1.26245e-08 -1.58854e-08)
(-5.28347e-09 1.3193e-08 -2.34938e-08)
(-1.58751e-08 1.13265e-08 -2.33418e-08)
(-2.62166e-08 7.75923e-09 -2.30356e-08)
(-3.59941e-08 2.85879e-09 -2.25702e-08)
(-4.48124e-08 -2.84801e-09 -2.19197e-08)
(-5.23183e-08 -8.86145e-09 -2.10543e-08)
(-5.80464e-08 -1.46115e-08 -1.99325e-08)
(-6.14162e-08 -1.94277e-08 -1.85044e-08)
(-6.18465e-08 -2.2584e-08 -1.67172e-08)
(-5.88935e-08 -2.33779e-08 -1.45205e-08)
(-5.19198e-09 2.0207e-08 -2.24013e-08)
(-1.57455e-08 1.76593e-08 -2.22246e-08)
(-2.63001e-08 1.27541e-08 -2.18676e-08)
(-3.66679e-08 5.80844e-09 -2.13295e-08)
(-4.64937e-08 -2.58657e-09 -2.05937e-08)
(-5.52418e-08 -1.16455e-08 -1.96278e-08)
(-6.23475e-08 -2.05685e-08 -1.83851e-08)
(-6.71065e-08 -2.84372e-08 -1.68148e-08)
(-6.87387e-08 -3.42222e-08 -1.48654e-08)
(-6.65561e-08 -3.6944e-08 -1.24758e-08)
(-5.05959e-09 2.90809e-08 -2.09936e-08)
(-1.5492e-08 2.58812e-08 -2.07824e-08)
(-2.62863e-08 1.9578e-08 -2.0363e-08)
(-3.73189e-08 1.0547e-08 -1.973e-08)
(-4.83259e-08 -6.76957e-10 -1.88773e-08)
(-5.87556e-08 -1.32499e-08 -1.77823e-08)
(-6.78432e-08 -2.60644e-08 -1.63888e-08)
(-7.46978e-08 -3.79256e-08 -1.46369e-08)
(-7.8284e-08 -4.75138e-08 -1.24756e-08)
(-7.76106e-08 -5.35927e-08 -9.83934e-09)
(-4.8195e-09 4.03265e-08 -1.92844e-08)
(-1.49072e-08 3.65186e-08 -1.90333e-08)
(-2.57991e-08 2.88669e-08 -1.85377e-08)
(-3.75606e-08 1.76576e-08 -1.77943e-08)
(-4.99396e-08 3.46142e-09 -1.68025e-08)
(-6.24369e-08 -1.29539e-08 -1.5542e-08)
(-7.41733e-08 -3.04178e-08 -1.39754e-08)
(-8.39404e-08 -4.72705e-08 -1.20331e-08)
(-9.05415e-08 -6.19445e-08 -9.62792e-09)
(-9.26153e-08 -7.29007e-08 -6.72187e-09)
(-4.36525e-09 5.43538e-08 -1.72837e-08)
(-1.37167e-08 5.00201e-08 -1.6988e-08)
(-2.44234e-08 4.11876e-08 -1.63972e-08)
(-3.68309e-08 2.78483e-08 -1.55272e-08)
(-5.07976e-08 1.04749e-08 -1.43775e-08)
(-6.57321e-08 -1.0067e-08 -1.29392e-08)
(-8.07114e-08 -3.2642e-08 -1.11745e-08)
(-9.43606e-08 -5.55539e-08 -9.02807e-09)
(-1.0507e-07 -7.64633e-08 -6.4011e-09)
(-1.11295e-07 -9.3565e-08 -3.25014e-09)
(-3.57044e-09 7.13873e-08 -1.50005e-08)
(-1.15719e-08 6.67287e-08 -1.46476e-08)
(-2.16055e-08 5.70152e-08 -1.39506e-08)
(-3.43989e-08 4.18386e-08 -1.2933e-08)
(-5.00375e-08 2.12906e-08 -1.16111e-08)
(-6.78858e-08 -3.83479e-09 -9.98408e-09)
(-8.67054e-08 -3.2016e-08 -8.02618e-09)
(-1.05014e-07 -6.15261e-08 -5.67284e-09)
(-1.20608e-07 -8.93344e-08 -2.91101e-09)
(-1.32033e-07 -1.13266e-07 4.10429e-10)
(-2.28918e-09 9.12877e-08 -1.24563e-08)
(-8.00162e-09 8.66978e-08 -1.20317e-08)
(-1.66544e-08 7.66641e-08 -1.12077e-08)
(-2.94229e-08 6.02313e-08 -1.00195e-08)
(-4.66687e-08 3.68506e-08 -8.50226e-09)
(-6.77836e-08 6.97738e-09 -6.67025e-09)
(-9.12176e-08 -2.76811e-08 -4.5209e-09)
(-1.14696e-07 -6.4241e-08 -2.03352e-09)
(-1.35477e-07 -9.89744e-08 7.66952e-10)
(-1.52229e-07 -1.29411e-07 4.10526e-09)
(-3.02841e-10 1.13384e-07 -9.69955e-09)
(-2.45912e-09 1.09514e-07 -9.17496e-09)
(-8.7388e-09 1.003e-07 -8.17492e-09)
(-2.09282e-08 8.36324e-08 -6.77616e-09)
(-3.96859e-08 5.80058e-08 -5.03656e-09)
(-6.43837e-08 2.33847e-08 -2.98334e-09)
(-9.30865e-08 -1.8354e-08 -6.35306e-10)
(-1.22583e-07 -6.3217e-08 1.9676e-09)
(-1.48942e-07 -1.0568e-07 4.74605e-09)
(-1.69139e-07 -1.40519e-07 7.68743e-09)
(-6.54388e-09 2.13067e-09 -3.16178e-08)
(-1.94173e-08 1.68579e-09 -3.14311e-08)
(-3.15855e-08 9.25903e-10 -3.10527e-08)
(-4.30572e-08 -6.21778e-11 -3.04651e-08)
(-5.38077e-08 -1.19602e-09 -2.96382e-08)
(-6.37269e-08 -2.37815e-09 -2.85261e-08)
(-7.26321e-08 -3.4926e-09 -2.70732e-08)
(-8.0323e-08 -4.41313e-09 -2.52201e-08)
(-8.66106e-08 -5.02773e-09 -2.29271e-08)
(-9.13515e-08 -5.2248e-09 -2.02163e-08)
(-6.36367e-09 6.55722e-09 -3.11042e-08)
(-1.91261e-08 5.311e-09 -3.08992e-08)
(-3.15061e-08 3.02638e-09 -3.04888e-08)
(-4.32746e-08 2.13551e-12 -2.98516e-08)
(-5.43714e-08 -3.50017e-09 -2.89549e-08)
(-6.46775e-08 -7.18351e-09 -2.77569e-08)
(-7.39704e-08 -1.0701e-08 -2.61978e-08)
(-8.20361e-08 -1.36959e-08 -2.42028e-08)
(-8.86425e-08 -1.57624e-08 -2.17199e-08)
(-9.36884e-08 -1.65472e-08 -1.8719e-08)
(-6.24594e-09 1.14817e-08 -3.01069e-08)
(-1.88441e-08 9.53576e-09 -2.98639e-08)
(-3.13876e-08 5.80975e-09 -2.93754e-08)
(-4.36806e-08 6.68335e-10 -2.86343e-08)
(-5.54509e-08 -5.38e-09 -2.76026e-08)
(-6.65263e-08 -1.18482e-08 -2.62332e-08)
(-7.66601e-08 -1.81856e-08 -2.44597e-08)
(-8.54982e-08 -2.37528e-08 -2.22054e-08)
(-9.27042e-08 -2.78686e-08 -1.93898e-08)
(-9.81004e-08 -2.99017e-08 -1.59322e-08)
(-6.11422e-09 1.73928e-08 -2.86479e-08)
(-1.86062e-08 1.475e-08 -2.8347e-08)
(-3.12997e-08 9.64959e-09 -2.77424e-08)
(-4.41377e-08 2.40225e-09 -2.68338e-08)
(-5.68961e-08 -6.42137e-09 -2.5598e-08)
(-6.91734e-08 -1.60643e-08 -2.39842e-08)
(-8.06e-08 -2.57575e-08 -2.19149e-08)
(-9.0703e-08 -3.46165e-08 -1.93036e-08)
(-9.89182e-08 -4.16619e-08 -1.60622e-08)
(-1.04813e-07 -4.59951e-08 -1.20825e-08)
(-5.94255e-09 2.46907e-08 -2.67319e-08)
(-1.82418e-08 2.14012e-08 -2.63517e-08)
(-3.11148e-08 1.49136e-08 -2.56e-08)
(-4.45491e-08 5.57216e-09 -2.44746e-08)
(-5.84188e-08 -6.11667e-09 -2.29689e-08)
(-7.23139e-08 -1.93412e-08 -2.10484e-08)
(-8.56167e-08 -3.30424e-08 -1.86212e-08)
(-9.76222e-08 -4.60676e-08 -1.55848e-08)
(-1.07514e-07 -5.71388e-08 -1.18538e-08)
(-1.14525e-07 -6.50963e-08 -7.32521e-09)
(-5.66727e-09 3.36806e-08 -2.43482e-08)
(-1.75517e-08 2.98251e-08 -2.3872e-08)
(-3.04601e-08 2.20615e-08 -2.29372e-08)
(-4.45618e-08 1.06143e-08 -2.15524e-08)
(-5.97116e-08 -4.00407e-09 -1.97263e-08)
(-7.55595e-08 -2.1074e-08 -1.7428e-08)
(-9.13805e-08 -3.94605e-08 -1.45959e-08)
(-1.06075e-07 -5.75548e-08 -1.11178e-08)
(-1.18611e-07 -7.385e-08 -6.85194e-09)
(-1.27848e-07 -8.68419e-08 -1.7596e-09)
(-5.18377e-09 4.45068e-08 -2.14759e-08)
(-1.62752e-08 4.02278e-08 -2.08834e-08)
(-2.89488e-08 3.14442e-08 -1.97168e-08)
(-4.36461e-08 1.80517e-08 -1.80263e-08)
(-6.03141e-08 4.07096e-10 -1.58311e-08)
(-7.84618e-08 -2.06941e-08 -1.31242e-08)
(-9.73216e-08 -4.41536e-08 -9.8398e-09)
(-1.15665e-07 -6.82967e-08 -5.89014e-09)
(-1.31897e-07 -9.08511e-08 -1.12574e-09)
(-1.44644e-07 -1.10031e-07 4.49355e-09)
(-4.37026e-09 5.70464e-08 -1.80923e-08)
(-1.4083e-08 5.26403e-08 -1.73424e-08)
(-2.6059e-08 4.32975e-08 -1.58969e-08)
(-4.11172e-08 2.84055e-08 -1.38423e-08)
(-5.94192e-08 7.8789e-09 -1.12383e-08)
(-8.03987e-08 -1.75916e-08 -8.09337e-09)
(-1.02896e-07 -4.65166e-08 -4.36366e-09)
(-1.25589e-07 -7.71723e-08 6.12358e-11)
(-1.46255e-07 -1.06503e-07 5.17221e-09)
(-1.63514e-07 -1.3244e-07 1.11975e-08)
(-3.09025e-09 7.07152e-08 -1.42025e-08)
(-1.05211e-08 6.67643e-08 -1.32316e-08)
(-2.11368e-08 5.76873e-08 -1.1425e-08)
(-3.61932e-08 4.21056e-08 -8.93938e-09)
(-5.61136e-08 1.91967e-08 -5.87882e-09)
(-8.03356e-08 -1.06934e-08 -2.27027e-09)
(-1.07348e-07 -4.58468e-08 1.89819e-09)
(-1.34911e-07 -8.33302e-08 6.65655e-09)
(-1.60274e-07 -1.19336e-07 1.19271e-08)
(-1.8215e-07 -1.5156e-07 1.80737e-08)
(-1.13377e-09 8.42537e-08 -9.88868e-09)
(-5.069e-09 8.18178e-08 -8.55905e-09)
(-1.33919e-08 7.45705e-08 -6.22906e-09)
(-2.79668e-08 5.96267e-08 -3.21398e-09)
(-4.9489e-08 3.50998e-08 3.39305e-10)
(-7.7346e-08 8.85977e-10 4.41316e-09)
(-1.09609e-07 -4.10282e-08 9.00757e-09)
(-1.43047e-07 -8.64876e-08 1.40439e-08)
(-1.7365e-07 -1.29836e-07 1.93333e-08)
(-1.98223e-07 -1.65892e-07 2.48012e-08)
(-6.93028e-09 2.08314e-09 -4.09825e-08)
(-2.06351e-08 1.64346e-09 -4.09008e-08)
(-3.38022e-08 8.92149e-10 -4.07325e-08)
(-4.65851e-08 -8.89164e-11 -4.04593e-08)
(-5.9131e-08 -1.22369e-09 -4.00586e-08)
(-7.15336e-08 -2.42384e-09 -3.94971e-08)
(-8.38614e-08 -3.58602e-09 -3.87353e-08)
(-9.62265e-08 -4.60161e-09 -3.7735e-08)
(-1.08809e-07 -5.38443e-09 -3.64826e-08)
(-1.21884e-07 -5.86176e-09 -3.50401e-08)
(-6.72385e-09 6.34973e-09 -4.05275e-08)
(-2.02794e-08 5.12102e-09 -4.0415e-08)
(-3.36341e-08 2.86956e-09 -4.02023e-08)
(-4.6686e-08 -1.22515e-10 -3.98583e-08)
(-5.95447e-08 -3.61448e-09 -3.9361e-08)
(-7.22956e-08 -7.33631e-09 -3.86802e-08)
(-8.49641e-08 -1.09789e-08 -3.77693e-08)
(-9.76561e-08 -1.42384e-08 -3.65689e-08)
(-1.10504e-07 -1.678e-08 -3.50378e-08)
(-1.23803e-07 -1.83504e-08 -3.31463e-08)
(-6.57154e-09 1.09172e-08 -3.96504e-08)
(-1.98892e-08 9.01169e-09 -3.94833e-08)
(-3.33383e-08 5.36064e-09 -3.91595e-08)
(-4.68525e-08 3.08204e-10 -3.86694e-08)
(-6.03071e-08 -5.67781e-09 -3.79842e-08)
(-7.37303e-08 -1.21567e-08 -3.70678e-08)
(-8.71352e-08 -1.86384e-08 -3.58658e-08)
(-1.00472e-07 -2.45652e-08 -3.43065e-08)
(-1.13765e-07 -2.93643e-08 -3.23052e-08)
(-1.27261e-07 -3.25507e-08 -2.97585e-08)
(-6.39621e-09 1.61311e-08 -3.83727e-08)
(-1.95168e-08 1.35689e-08 -3.81263e-08)
(-3.30103e-08 8.61723e-09 -3.76386e-08)
(-4.69514e-08 1.55935e-09 -3.69184e-08)
(-6.12669e-08 -7.08554e-09 -3.59551e-08)
(-7.57312e-08 -1.66313e-08 -3.47077e-08)
(-9.02199e-08 -2.63907e-08 -3.31068e-08)
(-1.04576e-07 -3.55833e-08 -3.10699e-08)
(-1.18585e-07 -4.33642e-08 -2.84981e-08)
(-1.32242e-07 -4.90099e-08 -2.52566e-08)
(-6.17713e-09 2.2226e-08 -3.67007e-08)
(-1.90026e-08 1.9078e-08 -3.63458e-08)
(-3.25539e-08 1.28624e-08 -3.56536e-08)
(-4.69297e-08 3.87414e-09 -3.46384e-08)
(-6.2153e-08 -7.44309e-09 -3.33115e-08)
(-7.79967e-08 -2.036e-08 -3.16534e-08)
(-9.40576e-08 -3.39244e-08 -2.95792e-08)
(-1.09912e-07 -4.71045e-08 -2.69865e-08)
(-1.25105e-07 -5.87718e-08 -2.37844e-08)
(-1.3927e-07 -6.79517e-08 -1.98513e-08)
(-5.85791e-09 2.93018e-08 -3.46274e-08)
(-1.81686e-08 2.56814e-08 -3.41395e-08)
(-3.1625e-08 1.83724e-08 -3.3195e-08)
(-4.64872e-08 7.5277e-09 -3.18279e-08)
(-6.27313e-08 -6.4305e-09 -3.00722e-08)
(-8.0187e-08 -2.28762e-08 -2.79174e-08)
(-9.83559e-08 -4.07815e-08 -2.53143e-08)
(-1.16365e-07 -5.86822e-08 -2.21485e-08)
(-1.33478e-07 -7.52313e-08 -1.82704e-08)
(-1.48965e-07 -8.91034e-08 -1.36385e-08)
(-5.34381e-09 3.72404e-08 -3.21359e-08)
(-1.67858e-08 3.33408e-08 -3.1484e-08)
(-2.98904e-08 2.52717e-08 -3.02231e-08)
(-4.51632e-08 1.28377e-08 -2.84419e-08)
(-6.26452e-08 -3.73727e-09 -2.61972e-08)
(-8.19873e-08 -2.3775e-08 -2.35062e-08)
(-1.02642e-07 -4.62828e-08 -2.0317e-08)
(-1.23646e-07 -6.97144e-08 -1.65463e-08)
(-1.43576e-07 -9.19876e-08 -1.20296e-08)
(-1.61403e-07 -1.11488e-07 -6.72538e-09)
(-4.52739e-09 4.558e-08 -2.92077e-08)
(-1.45689e-08 4.17751e-08 -2.83329e-08)
(-2.69012e-08 3.35372e-08 -2.66838e-08)
(-4.23729e-08 2.00895e-08 -2.44113e-08)
(-6.12094e-08 1.17876e-09 -2.1628e-08)
(-8.29593e-08 -2.2645e-08 -1.83709e-08)
(-1.06636e-07 -5.00123e-08 -1.46048e-08)
(-1.31182e-07 -7.93096e-08 -1.02207e-08)
(-1.54575e-07 -1.07664e-07 -5.22071e-09)
(-1.75624e-07 -1.33213e-07 6.4176e-10)
(-3.29194e-09 5.33091e-08 -2.58546e-08)
(-1.11202e-08 5.03303e-08 -2.46583e-08)
(-2.20969e-08 4.2957e-08 -2.2497e-08)
(-3.74626e-08 2.94834e-08 -1.96422e-08)
(-5.76689e-08 8.87002e-09 -1.62686e-08)
(-8.22427e-08 -1.86635e-08 -1.24276e-08)
(-1.09835e-07 -5.14965e-08 -8.10583e-09)
(-1.38426e-07 -8.68364e-08 -3.26457e-09)
(-1.6551e-07 -1.2107e-07 2.02296e-09)
(-1.89919e-07 -1.52141e-07 8.14966e-09)
(-1.45351e-09 5.86147e-08 -2.21784e-08)
(-5.99192e-09 5.78522e-08 -2.04436e-08)
(-1.48014e-08 5.32291e-08 -1.75371e-08)
(-2.96781e-08 4.12809e-08 -1.3974e-08)
(-5.12994e-08 1.98671e-08 -9.98334e-09)
(-7.91173e-08 -1.11766e-08 -5.58207e-09)
(-1.1137e-07 -4.98886e-08 -7.41971e-10)
(-1.45087e-07 -9.22471e-08 4.47621e-09)
(-1.76548e-07 -1.32881e-07 9.8853e-09)
(-2.02673e-07 -1.66999e-07 1.54226e-08)
(-6.43462e-09 2.49707e-09 -5.21792e-08)
(-1.92035e-08 2.0661e-09 -5.23592e-08)
(-3.15707e-08 1.35534e-09 -5.27095e-08)
(-4.3737e-08 4.31185e-10 -5.32214e-08)
(-5.59241e-08 -6.40121e-10 -5.38968e-08)
(-6.83061e-08 -1.78043e-09 -5.47381e-08)
(-8.1046e-08 -2.90249e-09 -5.57482e-08)
(-9.43571e-08 -3.91744e-09 -5.69342e-08)
(-1.08503e-07 -4.76189e-09 -5.83168e-08)
(-1.23782e-07 -5.39677e-09 -5.997e-08)
(-6.21462e-09 7.538e-09 -5.19713e-08)
(-1.88238e-08 6.36433e-09 -5.21142e-08)
(-3.13468e-08 4.23939e-09 -5.24117e-08)
(-4.37218e-08 1.43356e-09 -5.28429e-08)
(-5.61707e-08 -1.84537e-09 -5.34124e-08)
(-6.88576e-08 -5.3634e-09 -5.41241e-08)
(-8.19134e-08 -8.85544e-09 -5.49712e-08)
(-9.55689e-08 -1.20715e-08 -5.59405e-08)
(-1.10088e-07 -1.47524e-08 -5.70133e-08)
(-1.25887e-07 -1.67355e-08 -5.81488e-08)
(-6.04586e-09 1.27135e-08 -5.1589e-08)
(-1.83607e-08 1.09401e-08 -5.16653e-08)
(-3.0897e-08 7.53542e-09 -5.18378e-08)
(-4.36389e-08 2.83666e-09 -5.21066e-08)
(-5.65762e-08 -2.73615e-09 -5.247e-08)
(-6.98286e-08 -8.79914e-09 -5.29276e-08)
(-8.35347e-08 -1.49333e-08 -5.3469e-08)