/*--------------------------------*- C++ -*----------------------------------*\
| =========                 |                                                 |
| \\      /  F ield         | foam-extend: Open Source CFD                    |
|  \\    /   O peration     | Version:     3.1                                |
|   \\  /    A nd           | Web:         http://www.extend-project.de       |
|    \\/     M anipulation  |                                                 |
\*---------------------------------------------------------------------------*/
FoamFile
{
    version     2.0;
    format      ascii;
    class       volScalarField;
    location    "0.0011";
    object      p;
}
// * * * * * * * * * * * * * * * * * * * * * * * * * * * * * * * * * * * * * //

dimensions      [0 2 -2 0 0 0 0];

internalField   nonuniform List<scalar> 
16000
(
1.29964
1.29974
1.29995
1.30027
1.30069
1.30124
1.30191
1.30272
1.30365
1.3047
1.29974
1.29984
1.30004
1.30034
1.30076
1.30129
1.30194
1.30272
1.30362
1.30464
1.29995
1.30004
1.30023
1.30052
1.30092
1.30143
1.30205
1.3028
1.30367
1.30466
1.30027
1.30034
1.30052
1.30079
1.30117
1.30166
1.30225
1.30297
1.30381
1.30475
1.30069
1.30076
1.30092
1.30117
1.30152
1.30198
1.30255
1.30323
1.30402
1.30492
1.30124
1.30129
1.30143
1.30166
1.30198
1.30241
1.30294
1.30358
1.30433
1.30518
1.30191
1.30194
1.30205
1.30225
1.30255
1.30294
1.30343
1.30402
1.30472
1.3055
1.30272
1.30272
1.3028
1.30297
1.30323
1.30358
1.30402
1.30456
1.30519
1.30589
1.30365
1.30362
1.30367
1.30381
1.30402
1.30433
1.30472
1.30519
1.30573
1.30635
1.3047
1.30464
1.30466
1.30475
1.30492
1.30517
1.3055
1.30589
1.30635
1.30684
1.23206
1.23236
1.23299
1.23394
1.23523
1.2369
1.23895
1.24143
1.24433
1.24765
1.23236
1.23265
1.23325
1.23416
1.2354
1.237
1.23898
1.24136
1.24414
1.24734
1.23299
1.23325
1.2338
1.23467
1.23586
1.2374
1.2393
1.24157
1.24425
1.24731
1.23394
1.23416
1.23467
1.23549
1.23662
1.23809
1.2399
1.24208
1.24463
1.24756
1.23523
1.2354
1.23586
1.23662
1.23769
1.23908
1.2408
1.24288
1.2453
1.24809
1.2369
1.237
1.2374
1.23809
1.23908
1.24038
1.24201
1.24397
1.24626
1.24889
1.23895
1.23898
1.2393
1.2399
1.2408
1.24201
1.24352
1.24535
1.2475
1.24997
1.24142
1.24136
1.24157
1.24208
1.24288
1.24397
1.24535
1.24704
1.24904
1.25132
1.24432
1.24414
1.24425
1.24463
1.2453
1.24626
1.2475
1.24904
1.25086
1.25294
1.24765
1.24734
1.24731
1.24756
1.24809
1.24889
1.24997
1.25132
1.25294
1.25483
1.16247
1.16295
1.16393
1.16543
1.16749
1.17017
1.17351
1.17759
1.18248
1.18823
1.16295
1.16341
1.16434
1.16578
1.16777
1.17034
1.17356
1.17748
1.18217
1.18769
1.16393
1.16434
1.16522
1.1666
1.16851
1.17098
1.17408
1.17785
1.18235
1.18764
1.16543
1.16578
1.1666
1.16791
1.16973
1.1721
1.17507
1.17869
1.18301
1.18808
1.16749
1.16777
1.16851
1.16973
1.17146
1.17372
1.17657
1.18004
1.18417
1.18902
1.17017
1.17034
1.17098
1.1721
1.17372
1.17587
1.17858
1.18189
1.18583
1.19045
1.17351
1.17356
1.17407
1.17507
1.17657
1.17858
1.18114
1.18427
1.18802
1.1924
1.17759
1.17748
1.17784
1.17869
1.18003
1.18189
1.18427
1.18722
1.19075
1.19488
1.18248
1.18217
1.18235
1.18301
1.18417
1.18583
1.18802
1.19075
1.19404
1.1979
1.18823
1.18769
1.18764
1.18808
1.18902
1.19045
1.1924
1.19488
1.1979
1.20149
1.08955
1.09015
1.09135
1.09321
1.0958
1.09919
1.1035
1.10886
1.11542
1.12335
1.09015
1.0907
1.09186
1.09365
1.09614
1.09941
1.10356
1.10871
1.115
1.1226
1.09135
1.09186
1.09295
1.09468
1.09708
1.10023
1.10423
1.1092
1.11525
1.12253
1.09321
1.09365
1.09468
1.09632
1.09863
1.10167
1.10554
1.11032
1.11615
1.12315
1.0958
1.09614
1.09708
1.09863
1.10084
1.10377
1.1075
1.11212
1.11773
1.12446
1.09919
1.09941
1.10023
1.10167
1.10377
1.10658
1.11017
1.11462
1.12003
1.12649
1.1035
1.10356
1.10423
1.10554
1.1075
1.11017
1.11361
1.11788
1.12307
1.12926
1.10885
1.10871
1.10919
1.11032
1.11212
1.11462
1.11788
1.12196
1.12692
1.13284
1.11541
1.115
1.11524
1.11615
1.11773
1.12003
1.12307
1.12692
1.13164
1.13727
1.12334
1.1226
1.12253
1.12315
1.12446
1.12648
1.12926
1.13284
1.13727
1.1426
1.01254
1.01314
1.01437
1.01629
1.01898
1.02257
1.02721
1.0331
1.0405
1.04971
1.01314
1.01371
1.0149
1.01675
1.01935
1.02281
1.02727
1.03294
1.04004
1.04884
1.01437
1.01489
1.01602
1.01781
1.02033
1.02368
1.02801
1.03348
1.04031
1.04876
1.01629
1.01675
1.01781
1.01953
1.02197
1.02523
1.02943
1.03473
1.04134
1.04947
1.01898
1.01934
1.02033
1.02197
1.02433
1.0275
1.03159
1.03675
1.04315
1.05101
1.02257
1.0228
1.02368
1.02523
1.0275
1.03057
1.03456
1.03958
1.0458
1.05341
1.0272
1.02727
1.02801
1.02943
1.03159
1.03455
1.03842
1.04331
1.04936
1.05673
1.0331
1.03294
1.03348
1.03473
1.03675
1.03958
1.04331
1.04805
1.05392
1.06106
1.0405
1.04003
1.04031
1.04134
1.04315
1.0458
1.04936
1.05392
1.0596
1.0665
1.04971
1.04883
1.04875
1.04947
1.05101
1.0534
1.05673
1.06106
1.0665
1.07317
0.931326
0.931806
0.932795
0.934356
0.936583
0.939615
0.943635
0.948892
0.955707
0.964494
0.931806
0.932262
0.933217
0.934728
0.936886
0.939817
0.943693
0.948744
0.955267
0.963642
0.932795
0.933216
0.934135
0.935604
0.937708
0.940563
0.94433
0.949221
0.955512
0.963549
0.934355
0.934728
0.935604
0.937034
0.939093
0.941891
0.945578
0.950349
0.956458
0.964222
0.936582
0.936885
0.937707
0.939092
0.941112
0.943865
0.947492
0.952174
0.958143
0.965688
0.939613
0.939815
0.940561
0.94189
0.943865
0.946579
0.950159
0.954773
0.960635
0.968003
0.943633
0.943691
0.944328
0.945576
0.947491
0.950158
0.953694
0.958253
0.96403
0.971254
0.948889
0.948741
0.949219
0.950346
0.952172
0.954771
0.958252
0.962755
0.968458
0.975559
0.955704
0.955263
0.955508
0.956455
0.958141
0.960633
0.964028
0.968458
0.974084
0.981077
0.964489
0.963637
0.963545
0.964218
0.965685
0.968
0.971251
0.975558
0.981076
0.98798
0.846638
0.84686
0.847326
0.848087
0.849224
0.850852
0.853135
0.856297
0.860648
0.866607
0.84686
0.847074
0.847528
0.848272
0.84938
0.85096
0.853163
0.856198
0.86035
0.866005
0.847325
0.847528
0.847974
0.848711
0.849807
0.851364
0.853522
0.856476
0.860489
0.865916
0.848086
0.848271
0.848711
0.849447
0.850545
0.852099
0.854241
0.857153
0.861079
0.866345
0.849223
0.849379
0.849807
0.850545
0.851653
0.85322
0.85537
0.858272
0.862156
0.867319
0.850851
0.850958
0.851362
0.852098
0.853219
0.85481
0.856986
0.859906
0.863784
0.868892
0.853133
0.853161
0.85352
0.854239
0.855369
0.856985
0.859199
0.862158
0.866059
0.871152
0.856294
0.856196
0.856473
0.85715
0.858271
0.859905
0.862157
0.865165
0.869113
0.874225
0.860644
0.860347
0.860486
0.861076
0.862153
0.863781
0.866057
0.869112
0.873121
0.878285
0.866603
0.866
0.865912
0.866341
0.867315
0.868889
0.87115
0.874224
0.878284
0.883546
0.760116
0.759971
0.75969
0.759296
0.758826
0.758332
0.757893
0.757624
0.757692
0.758345
0.759971
0.75984
0.759577
0.759208
0.758764
0.758296
0.757877
0.757614
0.75766
0.758241
0.759689
0.759577
0.759343
0.759008
0.758604
0.758179
0.7578
0.757569
0.757627
0.758183
0.759295
0.759207
0.759008
0.758717
0.758366
0.757997
0.757678
0.757502
0.757603
0.758175
0.758825
0.758763
0.758603
0.758365
0.758076
0.757779
0.757536
0.757436
0.757607
0.758231
0.75833
0.758295
0.758178
0.757997
0.757778
0.757564
0.757412
0.75741
0.757675
0.758382
0.757891
0.757876
0.757799
0.757677
0.757535
0.757412
0.757366
0.757478
0.757861
0.75868
0.757622
0.757611
0.757566
0.7575
0.757435
0.757408
0.757477
0.757719
0.758243
0.759201
0.757689
0.757657
0.757624
0.7576
0.757605
0.757673
0.75786
0.758242
0.758928
0.760061
0.758341
0.758237
0.758179
0.758171
0.758228
0.758379
0.758678
0.759199
0.76006
0.761425
0.674127
0.673575
0.672457
0.670762
0.668466
0.66553
0.661909
0.657541
0.652354
0.646262
0.673575
0.673058
0.671992
0.670367
0.668158
0.665332
0.661847
0.657645
0.65266
0.646815
0.672457
0.671992
0.670991
0.669444
0.667329
0.664616
0.661265
0.657224
0.652432
0.64682
0.670762
0.670366
0.669444
0.667986
0.665973
0.663377
0.66016
0.656277
0.651671
0.646282
0.668465
0.668157
0.667329
0.665973
0.66407
0.661597
0.658518
0.654793
0.650368
0.645197
0.665529
0.665331
0.664616
0.663376
0.661596
0.659255
0.656321
0.652755
0.648512
0.643553
0.661907
0.661845
0.661264
0.660159
0.658517
0.65632
0.65354
0.650141
0.646082
0.641336
0.657539
0.657643
0.657223
0.656275
0.654791
0.652754
0.65014
0.64692
0.643054
0.638525
0.652351
0.652657
0.65243
0.651668
0.650367
0.64851
0.646081
0.643054
0.639399
0.635106
0.646259
0.646811
0.646817
0.646279
0.645194
0.643551
0.641334
0.638523
0.635105
0.631095
0.591373
0.590454
0.588586
0.585724
0.581786
0.576655
0.570166
0.562093
0.552127
0.539854
0.590454
0.589592
0.587806
0.585053
0.581259
0.576315
0.570068
0.562308
0.552753
0.541023
0.588586
0.587805
0.586118
0.583484
0.579835
0.575068
0.569041
0.561561
0.552366
0.541108
0.585723
0.585052
0.583484
0.580982
0.577481
0.572885
0.567064
0.559837
0.550959
0.540116
0.581785
0.581259
0.579834
0.57748
0.574136
0.569714
0.564089
0.557093
0.5485
0.538025
0.576654
0.576314
0.575067
0.572885
0.569713
0.56547
0.56004
0.553264
0.544931
0.534786
0.570165
0.570067
0.56904
0.567063
0.564088
0.560039
0.554808
0.548248
0.54016
0.530315
0.562091
0.562307
0.56156
0.559835
0.557092
0.553262
0.548247
0.541909
0.534062
0.5245
0.552125
0.552751
0.552364
0.550957
0.548499
0.544929
0.540159
0.534061
0.526464
0.517187
0.539851
0.54102
0.541106
0.540114
0.538023
0.534784
0.530314
0.524499
0.517186
0.508223
0.514336
0.513166
0.510785
0.507132
0.502098
0.495525
0.487191
0.476791
0.463907
0.447972
0.513166
0.512067
0.50979
0.506278
0.501429
0.495096
0.487075
0.477082
0.464733
0.449511
0.510785
0.50979
0.50764
0.50428
0.499616
0.493512
0.485776
0.476146
0.464267
0.449664
0.507132
0.506277
0.504279
0.501087
0.496614
0.490732
0.483262
0.473961
0.462497
0.448438
0.502098
0.501428
0.499615
0.496613
0.492343
0.486684
0.47947
0.470472
0.459383
0.445805
0.495525
0.495096
0.493511
0.490731
0.486683
0.481258
0.474298
0.465589
0.454842
0.441699
0.48719
0.487074
0.485775
0.483261
0.479469
0.474297
0.467599
0.459175
0.448754
0.436009
0.476789
0.477081
0.476145
0.47396
0.470471
0.465587
0.459174
0.451045
0.440944
0.428578
0.463905
0.464732
0.464265
0.462496
0.459381
0.454841
0.448753
0.440943
0.431177
0.419191
0.447969
0.449508
0.449661
0.448436
0.445803
0.441697
0.436008
0.428577
0.41919
0.407607
0.444779
0.443507
0.440926
0.436977
0.431559
0.424529
0.415687
0.404766
0.391405
0.375133
0.443507
0.442315
0.43985
0.436057
0.430844
0.424077
0.415571
0.405078
0.392268
0.376705
0.440926
0.439849
0.437528
0.433909
0.428908
0.422401
0.414215
0.404121
0.391812
0.376889
0.436976
0.436056
0.433909
0.430487
0.425711
0.419465
0.41159
0.401873
0.390027
0.37569
0.431559
0.430843
0.428908
0.42571
0.421178
0.415204
0.40764
0.398287
0.386879
0.373086
0.424528
0.424076
0.4224
0.419464
0.415204
0.40952
0.402275
0.393284
0.3823
0.369022
0.415686
0.41557
0.414214
0.41159
0.407639
0.402274
0.395368
0.386748
0.376185
0.363407
0.404764
0.405077
0.40412
0.401872
0.398286
0.393283
0.386748
0.378522
0.368391
0.356112
0.391403
0.392266
0.39181
0.390026
0.386878
0.382298
0.376184
0.368391
0.358722
0.34696
0.37513
0.376702
0.376886
0.375688
0.373084
0.36902
0.363406
0.356111
0.346959
0.335754
0.383478
0.382244
0.379748
0.375951
0.370789
0.364172
0.355979
0.346059
0.334225
0.320253
0.382244
0.381089
0.37871
0.375072
0.370114
0.363752
0.355876
0.346345
0.334985
0.321589
0.379747
0.37871
0.376481
0.373025
0.36829
0.362196
0.354642
0.345498
0.334602
0.321763
0.375951
0.375072
0.373025
0.369782
0.36529
0.35948
0.352258
0.343504
0.333068
0.320778
0.370789
0.370113
0.368289
0.36529
0.361071
0.355567
0.348693
0.340339
0.330367
0.318622
0.364171
0.363751
0.362195
0.35948
0.355567
0.350398
0.343895
0.335958
0.326463
0.315269
0.355978
0.355875
0.354641
0.352257
0.348692
0.343894
0.337795
0.330303
0.321305
0.310679
0.346058
0.346344
0.345496
0.343503
0.340338
0.335957
0.330302
0.323292
0.314825
0.304793
0.334223
0.334983
0.3346
0.333067
0.330366
0.326462
0.321304
0.314824
0.306931
0.297534
0.32025
0.321586
0.321761
0.320776
0.31862
0.315268
0.310678
0.304792
0.297534
0.288827
0.330272
0.329168
0.326944
0.323589
0.319079
0.313388
0.306487
0.298353
0.288979
0.27839
0.329168
0.328137
0.326024
0.322816
0.318493
0.313031
0.306402
0.298585
0.289571
0.279382
0.326944
0.326024
0.324055
0.321026
0.316919
0.311711
0.30538
0.297906
0.28928
0.279521
0.323588
0.322816
0.321026
0.318208
0.314347
0.309423
0.303417
0.296313
0.288102
0.278805
0.319078
0.318493
0.316918
0.314347
0.310765
0.306157
0.300507
0.293801
0.286037
0.277235
0.313387
0.31303
0.311711
0.309423
0.306156
0.301899
0.29664
0.290368
0.283085
0.274813
0.306486
0.306401
0.305379
0.303417
0.300506
0.296639
0.291809
0.28601
0.279247
0.271545
0.298352
0.298584
0.297905
0.296311
0.2938
0.290367
0.286009
0.280727
0.274528
0.267443
0.288977
0.28957
0.289279
0.288101
0.286036
0.283084
0.279246
0.274528
0.268944
0.262527
0.278388
0.27938
0.279519
0.278803
0.277233
0.274812
0.271544
0.267442
0.262526
0.256836
0.284361
0.283421
0.281539
0.278721
0.274978
0.270329
0.264811
0.258485
0.251455
0.243885
0.283421
0.282548
0.280764
0.278076
0.274495
0.27004
0.264743
0.258662
0.251889
0.244575
0.281539
0.280763
0.279111
0.276587
0.273203
0.268975
0.263938
0.258142
0.251675
0.244674
0.278721
0.278076
0.276587
0.27426
0.271106
0.267142
0.262399
0.256929
0.250813
0.244177
0.274977
0.274495
0.273202
0.271105
0.268215
0.264549
0.260139
0.255034
0.249312
0.243091
0.270328
0.270039
0.268975
0.267141
0.264549
0.261217
0.257177
0.252478
0.247192
0.241435
0.26481
0.264742
0.263937
0.262398
0.260138
0.257177
0.253545
0.249291
0.244487
0.239239
0.258484
0.25866
0.258141
0.256928
0.255033
0.252477
0.249291
0.245522
0.241243
0.236552
0.251453
0.251887
0.251674
0.250811
0.249311
0.247192
0.244486
0.241242
0.23753
0.233443
0.243883
0.244573
0.244672
0.244175
0.243089
0.241433
0.239238
0.236551
0.233443
0.230008
0.244685
0.243901
0.242336
0.240008
0.23694
0.233174
0.228768
0.223809
0.218424
0.212789
0.243901
0.243174
0.241694
0.239476
0.236546
0.23294
0.228712
0.223944
0.21875
0.213293
0.242336
0.241693
0.240328
0.238254
0.235494
0.232083
0.228073
0.223538
0.218584
0.213361
0.240007
0.239476
0.238254
0.236353
0.233795
0.230614
0.226857
0.222595
0.217926
0.21299
0.23694
0.236546
0.235493
0.233795
0.23147
0.228551
0.225083
0.221132
0.21679
0.212186
0.233173
0.232939
0.232082
0.230613
0.228551
0.225924
0.222778
0.219173
0.215198
0.21097
0.228767
0.228711
0.228072
0.226856
0.225082
0.222777
0.219984
0.21676
0.213187
0.209375
0.223808
0.223943
0.223536
0.222594
0.221131
0.219173
0.216759
0.213946
0.210809
0.207449
0.218422
0.218748
0.218582
0.217925
0.216789
0.215197
0.213186
0.210809
0.208136
0.20526
0.212787
0.213291
0.21336
0.212988
0.212185
0.210969
0.209374
0.207448
0.20526
0.202898
0.210234
0.209575
0.208259
0.206305
0.203738
0.200594
0.196926
0.192801
0.188309
0.183567
0.209574
0.208963
0.207719
0.205859
0.203408
0.200398
0.196878
0.192911
0.18858
0.183991
0.208259
0.207719
0.206573
0.204835
0.202527
0.199682
0.196343
0.192568
0.188436
0.184043
0.206305
0.205859
0.204835
0.203244
0.201108
0.198455
0.195327
0.191778
0.187878
0.183718
0.203737
0.203407
0.202527
0.201108
0.199168
0.196734
0.193845
0.190551
0.186916
0.183023
0.200593
0.200397
0.199681
0.198455
0.196734
0.194544
0.19192
0.188906
0.185564
0.18197
0.196925
0.196877
0.196342
0.195326
0.193845
0.191919
0.189582
0.186874
0.18385
0.180579
0.192799
0.192909
0.192567
0.191777
0.19055
0.188906
0.186873
0.18449
0.181805
0.17888
0.188308
0.188578
0.188434
0.187877
0.186915
0.185564
0.183849
0.181805
0.179474
0.176913
0.183565
0.183989
0.184041
0.183717
0.183022
0.181968
0.180578
0.178879
0.176913
0.17473
0.180202
0.179633
0.178496
0.176805
0.174576
0.171833
0.168606
0.16493
0.160846
0.156392
0.179633
0.179104
0.178029
0.176418
0.174288
0.171661
0.168563
0.165029
0.161094
0.156797
0.178496
0.178029
0.177036
0.175529
0.173521
0.171032
0.168088
0.164719
0.160958
0.156843
0.176804
0.176418
0.175528
0.174145
0.17228
0.169952
0.167183
0.164002
0.160439
0.156527
0.174575
0.174288
0.17352
0.17228
0.170578
0.168431
0.165858
0.162886
0.15954
0.155851
0.171832
0.17166
0.171031
0.169951
0.16843
0.166482
0.164124
0.161378
0.158268
0.154821
0.168605
0.168562
0.168087
0.167183
0.165858
0.164124
0.161996
0.159492
0.156633
0.153443
0.164929
0.165027
0.164717
0.164001
0.162885
0.161377
0.159492
0.157243
0.154647
0.151725
0.160844
0.161092
0.160957
0.160438
0.159539
0.158267
0.156632
0.154647
0.152324
0.149679
0.15639
0.156795
0.156841
0.156525
0.15585
0.15482
0.153442
0.151724
0.149679
0.14732
0.154002
0.153498
0.152491
0.150987
0.148994
0.146523
0.143585
0.140187
0.136334
0.132017
0.153498
0.15303
0.152076
0.150642
0.148736
0.146367
0.143545
0.140279
0.13657
0.132416
0.152491
0.152076
0.151193
0.149847
0.148046
0.145797
0.143109
0.139989
0.136441
0.132459
0.150986
0.150642
0.149847
0.148607
0.146927
0.144814
0.142275
0.139318
0.135943
0.132148
0.148994
0.148736
0.148045
0.146926
0.145383
0.143422
0.141048
0.138267
0.135079
0.131481
0.146523
0.146367
0.145796
0.144813
0.143422
0.141626
0.13943
0.136838
0.133848
0.130458
0.143584
0.143544
0.143108
0.142275
0.141048
0.13943
0.137424
0.135032
0.132251
0.129077
0.140185
0.140277
0.139988
0.139317
0.138266
0.136837
0.135032
0.132849
0.130285
0.127335
0.136332
0.136569
0.136439
0.135942
0.135078
0.133847
0.13225
0.130284
0.127945
0.125226
0.132015
0.132413
0.132457
0.132146
0.131479
0.130457
0.129076
0.127334
0.125226
0.122746
0.131204
0.130753
0.12985
0.128497
0.126697
0.124453
0.121764
0.118626
0.115029
0.110953
0.130753
0.130334
0.129477
0.128186
0.126463
0.124311
0.121728
0.118711
0.115252
0.111331
0.12985
0.129477
0.128683
0.127469
0.125838
0.12379
0.121326
0.118443
0.115131
0.111374
0.128497
0.128186
0.127469
0.126346
0.12482
0.122891
0.120559
0.11782
0.114665
0.111079
0.126697
0.126463
0.125837
0.12482
0.123413
0.121615
0.119426
0.116842
0.113853
0.110447
0.124452
0.12431
0.123789
0.122891
0.121615
0.11996
0.117926
0.115506
0.112694
0.109475
0.121762
0.121727
0.121325
0.120558
0.119425
0.117925
0.116056
0.113811
0.111183
0.108159
0.118624
0.11871
0.118442
0.117819
0.116841
0.115506
0.113811
0.11175
0.109315
0.106493
0.115027
0.11525
0.115129
0.114663
0.113852
0.112692
0.111182
0.109314
0.10708
0.104469
0.11095
0.111329
0.111371
0.111077
0.110445
0.109473
0.108158
0.106493
0.104468
0.102077
0.111461
0.111058
0.110249
0.109037
0.107422
0.105403
0.102978
0.100143
0.0968894
0.093203
0.111058
0.110682
0.109916
0.108759
0.107212
0.105275
0.102946
0.100221
0.0970913
0.0935454
0.110249
0.109915
0.109204
0.108115
0.106649
0.104806
0.102584
0.0999785
0.0969824
0.0935846
0.109037
0.108758
0.108115
0.107107
0.105734
0.103997
0.101892
0.0994159
0.0965618
0.09332
0.107421
0.107211
0.106649
0.105734
0.104467
0.102846
0.100869
0.0985321
0.095829
0.0927511
0.105402
0.105274
0.104806
0.103996
0.102845
0.101352
0.0995131
0.0973256
0.0947824
0.0918766
0.102977
0.102945
0.102583
0.101891
0.100868
0.0995127
0.0978227
0.0957938
0.0934195
0.0906938
0.100141
0.100219
0.099977
0.0994146
0.098531
0.0973248
0.0957934
0.0939326
0.0917363
0.0891993
0.0968871
0.0970891
0.0969804
0.0965601
0.0958275
0.0947812
0.0934186
0.0917358
0.0897269
0.0873878
0.0932001
0.0935427
0.093582
0.0933177
0.0927491
0.0918749
0.0906925
0.0891983
0.0873874
0.0852571
0.094454
0.094097
0.0933813
0.0923082
0.0908784
0.0890926
0.0869512
0.084454
0.0816003
0.0783893
0.0940969
0.0937646
0.0930858
0.0920616
0.0906927
0.0889797
0.086923
0.0845223
0.081777
0.0786866
0.0933811
0.0930857
0.0924557
0.091492
0.0901952
0.0885658
0.0866041
0.0843098
0.0816823
0.0787213
0.0923078
0.0920613
0.0914918
0.0906
0.0893863
0.087851
0.0859943
0.083816
0.0813154
0.0784927
0.0908777
0.0906921
0.0901948
0.089386
0.0882661
0.0868353
0.0850937
0.083041
0.0806765
0.078001
0.0890915
0.0889787
0.088565
0.0878504
0.086835
0.085519
0.0839024
0.0819848
0.0797656
0.0772461
0.0869497
0.0869216
0.0866029
0.0859933
0.085093
0.083902
0.0824202
0.0806472
0.0785825
0.0762279
0.084452
0.0845204
0.0843081
0.0838145
0.0830398
0.0819839
0.0806468
0.0790281
0.0771272
0.0749466
0.0815977
0.0817746
0.0816801
0.0813134
0.0806749
0.0797643
0.0785816
0.0771267
0.0753993
0.0734023
0.0783862
0.0786836
0.0787185
0.0784902
0.0779988
0.0772442
0.0762264
0.0749455
0.0734017
0.071599
0.079873
0.0795607
0.0789348
0.0779972
0.0767498
0.0751951
0.0733366
0.0711788
0.0687277
0.0659925
0.0795606
0.0792699
0.0786766
0.077782
0.076588
0.075097
0.0733122
0.0712377
0.0688791
0.0662446
0.0789346
0.0786764
0.0781261
0.077285
0.0761547
0.0747374
0.0730362
0.0710547
0.0687982
0.0662744
0.0779968
0.0777816
0.0772847
0.0765073
0.0754506
0.0741169
0.0725088
0.0706298
0.0684847
0.0660809
0.076749
0.0765873
0.0761541
0.0754504
0.0744772
0.0732366
0.071731
0.0699638
0.0679393
0.0656648
0.075194
0.075096
0.0747366
0.0741163
0.0732363
0.0720982
0.0707045
0.0690581
0.0671631
0.0650269
0.073335
0.0733107
0.0730349
0.0725077
0.0717303
0.070704
0.0694312
0.0679146
0.0661582
0.064169
0.0711766
0.0712357
0.0710529
0.0706282
0.0699625
0.0690572
0.0679142
0.0665363
0.0649271
0.0630937
0.068725
0.0688765
0.0687958
0.0684826
0.0679374
0.0671617
0.0661572
0.0649265
0.0634733
0.0618045
0.065989
0.0662414
0.0662713
0.0660782
0.0656624
0.0650249
0.0641674
0.0630925
0.0618039
0.060309
0.0674166
0.067146
0.0666043
0.0657935
0.0647165
0.0633774
0.0617813
0.0599355
0.0578492
0.055535
0.067146
0.0668943
0.0663808
0.0656075
0.064577
0.0632929
0.0617603
0.0599857
0.0579776
0.0557477
0.066604
0.0663806
0.0659048
0.0651783
0.0642034
0.0629838
0.0615238
0.0598296
0.057909
0.0557729
0.065793
0.0656071
0.065178
0.0645073
0.0635972
0.0624507
0.0610722
0.0594672
0.0576429
0.0556097
0.0647157
0.0645762
0.0642029
0.0635968
0.0627601
0.0616955
0.060407
0.0588998
0.0571805
0.0552589
0.0633761
0.0632918
0.0629828
0.06245
0.0616952
0.0607209
0.0595307
0.0581295
0.0565234
0.0547218
0.0617796
0.0617588
0.0615224
0.061071
0.0604062
0.0595303
0.0584465
0.0571594
0.0556745
0.0540008
0.0599332
0.0599836
0.0598276
0.0594655
0.0588984
0.0581286
0.0571589
0.0559934
0.0546373
0.0530991
0.0578462
0.0579748
0.0579064
0.0576406
0.0571785
0.0565219
0.0556734
0.0546368
0.0534168
0.0520216
0.0555313
0.0557442
0.0557696
0.0556067
0.0552563
0.0547196
0.053999
0.0530979
0.052021
0.0507762
0.0568019
0.0565691
0.056103
0.0554062
0.0544817
0.0533339
0.0519688
0.0503937
0.0486182
0.046654
0.056569
0.0563525
0.0559109
0.0552464
0.0543619
0.0532616
0.0519509
0.0504365
0.0487273
0.0468343
0.0561028
0.0559107
0.0555017
0.0548778
0.0540416
0.0529969
0.0517487
0.0503034
0.0486689
0.0468555
0.0554057
0.055246
0.0548776
0.0543021
0.0535221
0.0525408
0.051363
0.0499945
0.0484426
0.0467171
0.0544808
0.0543612
0.054041
0.0535217
0.0528054
0.0518952
0.0507954
0.0495113
0.0480496
0.0464195
0.0533327
0.0532605
0.0529959
0.0525401
0.0518948
0.051063
0.0500484
0.0488558
0.0474916
0.0459641
0.051967
0.0519492
0.0517472
0.0513618
0.0507945
0.0500479
0.0491253
0.0480312
0.0467711
0.0453532
0.0503913
0.0504342
0.0503013
0.0499927
0.0495099
0.0488548
0.0480307
0.0470414
0.0458919
0.0445898
0.048615
0.0487243
0.0486661
0.0484402
0.0480475
0.0474899
0.04677
0.0458913
0.0448583
0.043678
0.0466501
0.0468306
0.0468521
0.0467139
0.0464167
0.0459618
0.0453514
0.0445885
0.0436773
0.0426247
0.0477734
0.0475736
0.047174
0.0465766
0.0457846
0.0448021
0.0436344
0.0422882
0.0407715
0.0390938
0.0475736
0.0473878
0.0470092
0.0464396
0.045682
0.0447401
0.043619
0.0423247
0.0408647
0.0392478
0.0471737
0.047009
0.0466584
0.0461238
0.0454077
0.0445136
0.0434461
0.0422109
0.0408147
0.0392658
0.046576
0.0464392
0.0461235
0.0456307
0.0449629
0.0441234
0.0431163
0.0419469
0.0406213
0.0391473
0.0457837
0.0456812
0.0454071
0.0449625
0.0443496
0.0435712
0.0426311
0.0415339
0.0402854
0.0388928
0.0448007
0.0447389
0.0445126
0.0441226
0.0435708
0.0428597
0.0419926
0.0409739
0.0398085
0.0385034
0.0436325
0.0436173
0.0434446
0.0431151
0.0426302
0.0419921
0.0412039
0.0402693
0.0391928
0.0379808
0.0422857
0.0423224
0.0422087
0.041945
0.0415324
0.0409728
0.0402687
0.0394235
0.038441
0.0373274
0.0407682
0.0408616
0.0408118
0.0406188
0.0402833
0.0398068
0.0391915
0.0384404
0.0375568
0.0365463
0.0390897
0.0392439
0.0392622
0.039144
0.0388899
0.038501
0.0379789
0.037326
0.0365456
0.0356429
0.0401064
0.0399353
0.0395928
0.0390811
0.0384027
0.0375613
0.0365614
0.0354083
0.0341084
0.0326688
0.0399352
0.039776
0.0394516
0.0389638
0.0383149
0.0375083
0.0365482
0.0354396
0.0341882
0.032801
0.0395925
0.0394514
0.0391511
0.0386932
0.0380799
0.0373143
0.0364001
0.035342
0.0341453
0.0328164
0.0390805
0.0389633
0.0386929
0.0382708
0.0376989
0.03698
0.0361175
0.0351157
0.0339794
0.0327145
0.0384018
0.0383141
0.0380793
0.0376986
0.0371737
0.036507
0.0357017
0.0347616
0.0336911
0.0324958
0.0375599
0.037507
0.0373132
0.0369792
0.0365066
0.0358975
0.0351546
0.0342814
0.0332818
0.032161
0.0365594
0.0365464
0.0363985
0.0361162
0.0357008
0.0351541
0.0344785
0.0336769
0.032753
0.0317114
0.0354057
0.0354371
0.0353397
0.0351137
0.0347601
0.0342803
0.0336764
0.0329509
0.0321069
0.0311489
0.034105
0.0341851
0.0341424
0.0339767
0.0336889
0.03328
0.0327517
0.0321063
0.0313462
0.0304758
0.0326646
0.032797
0.0328126
0.0327111
0.0324928
0.0321584
0.0317094
0.0311475
0.0304751
0.029696
0.0336066
0.03346
0.0331668
0.0327286
0.0321476
0.0314269
0.0305702
0.0295817
0.0284665
0.0272301
0.0334599
0.0333237
0.0330459
0.0326281
0.0320724
0.0313815
0.0305588
0.0296085
0.028535
0.0273437
0.0331665
0.0330457
0.0327885
0.0323964
0.0318711
0.0312152
0.0304319
0.0295248
0.0284981
0.0273568
0.032728
0.0326276
0.0323961
0.0320346
0.0315447
0.0309288
0.0301896
0.0293306
0.0283556
0.0272692
0.0321467
0.0320715
0.0318705
0.0315443
0.0310946
0.0305234
0.0298331
0.0290268
0.028108
0.0270811
0.0314255
0.0313802
0.0312141
0.030928
0.0305229
0.0300008
0.0293638
0.0286146
0.0277563
0.0267931
0.0305682
0.030557
0.0304302
0.0301883
0.0298321
0.0293633
0.0287837
0.0280956
0.0273019
0.0264062
0.029579
0.029606
0.0295225
0.0293286
0.0290252
0.0286135
0.028095
0.0274719
0.0267463
0.0259219
0.028463
0.0285318
0.0284951
0.0283529
0.0281057
0.0277545
0.0273006
0.0267456
0.0260916
0.0253419
0.0272258
0.0273396
0.027353
0.0272657
0.027078
0.0267905
0.0264042
0.0259205
0.0253412
0.0246694
0.0281067
0.0279813
0.0277305
0.0273555
0.0268584
0.0262416
0.0255081
0.0246617
0.0237063
0.0226465
0.0279812
0.0278646
0.027627
0.0272695
0.0267939
0.0262026
0.0254984
0.0246846
0.023765
0.0227439
0.0277302
0.0276268
0.0274067
0.0270712
0.0266217
0.0260603
0.0253896
0.0246128
0.0237333
0.0227551
0.0273549
0.027269
0.0270709
0.0267615
0.0263423
0.025815
0.0251822
0.0244465
0.0236111
0.0226799
0.0268574
0.0267931
0.026621
0.0263419
0.025957
0.0254679
0.0248768
0.0241862
0.0233989
0.0225185
0.0262401
0.0262013
0.0260592
0.0258142
0.0254674
0.0250203
0.0244747
0.0238329
0.0230973
0.0222714
0.0255061
0.0254965
0.025388
0.0251808
0.0248758
0.0244742
0.0239776
0.023388
0.0227076
0.0219396
0.0246589
0.024682
0.0246105
0.0244445
0.0241845
0.0238318
0.0233874
0.0228532
0.0222311
0.0215241
0.0237028
0.0237617
0.0237302
0.0236084
0.0233965
0.0230955
0.0227063
0.0222304
0.0216695
0.0210263
0.0226421
0.0227397
0.0227512
0.0226764
0.0225154
0.0222688
0.0219375
0.0215226
0.0210256
0.020449
0.0234627
0.0233555
0.0231412
0.0228209
0.0223962
0.0218693
0.0212427
0.0205196
0.0197035
0.0187984
0.0233554
0.0232558
0.0230528
0.0227474
0.0223412
0.021836
0.0212344
0.0205392
0.0197536
0.0188815
0.0231409
0.0230526
0.0228646
0.022578
0.022194
0.0217144
0.0211415
0.0204779
0.0197265
0.018891
0.0228203
0.022747
0.0225777
0.0223134
0.0219552
0.0215048
0.0209642
0.0203357
0.0196221
0.0188268
0.0223953
0.0223403
0.0221933
0.0219549
0.021626
0.0212082
0.0207032
0.0201132
0.0194407
0.0186888
0.0218679
0.0218347
0.0217133
0.021504
0.0212078
0.0208258
0.0203597
0.0198114
0.0191831
0.0184778
0.0212407
0.0212325
0.0211398
0.0209628
0.0207022
0.0203592
0.019935
0.0194313
0.0188502
0.0181943
0.0205169
0.0205366
0.0204755
0.0203337
0.0201116
0.0198103
0.0194307
0.0189744
0.0184431
0.0178395
0.0197
0.0197503
0.0197235
0.0196194
0.0194384
0.0191813
0.0188489
0.0184425
0.0179635
0.0174145
0.0187939
0.0188773
0.0188871
0.0188232
0.0186857
0.0184752
0.0181922
0.017838
0.0174137
0.0169218
0.0195499
0.0194585
0.0192759
0.0190029
0.0186409
0.0181919
0.0176581
0.0170423
0.0163475
0.0155773
0.0194584
0.0193735
0.0192005
0.0189402
0.018594
0.0181636
0.017651
0.0170589
0.0163901
0.015648
0.0192756
0.0192003
0.0190401
0.0187958
0.0184685
0.0180599
0.0175718
0.0170066
0.016367
0.0156561
0.0190023
0.0189397
0.0187955
0.0185703
0.0182651
0.0178813
0.0174207
0.0168855
0.0162781
0.0156013
0.01864
0.0185932
0.0184679
0.0182647
0.0179845
0.0176286
0.0171984
0.0166961
0.0161236
0.015484
0.0181905
0.0181622
0.0180588
0.0178805
0.0176281
0.0173028
0.0169058
0.016439
0.0159043
0.0153044
0.0176561
0.0176491
0.0175702
0.0174194
0.0171975
0.0169053
0.0165441
0.0161155
0.015621
0.0150633
0.0170395
0.0170564
0.0170043
0.0168835
0.0166945
0.0164379
0.0161148
0.0157266
0.0152747
0.0147616
0.0163439
0.0163868
0.0163639
0.0162753
0.0161213
0.0159025
0.0156197
0.015274
0.0148669
0.0144004
0.0155729
0.0156438
0.0156522
0.0155978
0.0154809
0.0153018
0.0150612
0.0147601
0.0143996
0.0139818
0.0162606
0.0161829
0.0160276
0.0157955
0.0154879
0.0151064
0.014653
0.0141301
0.0135405
0.0128875
0.0161828
0.0161107
0.0159635
0.0157423
0.015448
0.0150823
0.0146469
0.0141442
0.0135766
0.0129473
0.0160273
0.0159633
0.0158272
0.0156195
0.0153414
0.0149942
0.0145796
0.0140998
0.013557
0.0129542
0.015795
0.0157418
0.0156192
0.0154278
0.0151684
0.0148424
0.0144513
0.0139969
0.0134815
0.0129077
0.015487
0.0154472
0.0153407
0.0151681
0.01493
0.0146277
0.0142625
0.0138361
0.0133505
0.0128082
0.015105
0.015081
0.0149931
0.0148416
0.0146273
0.014351
0.0140141
0.0136179
0.0131644
0.0126559
0.014651
0.0146451
0.014578
0.01445
0.0142615
0.0140135
0.013707
0.0133434
0.0129241
0.0124516
0.0141274
0.0141417
0.0140975
0.013995
0.0138345
0.0136168
0.0133428
0.0130136
0.0126306
0.0121959
0.013537
0.0135734
0.013554
0.0134788
0.0133482
0.0131626
0.0129229
0.0126299
0.012285
0.0118901
0.0128831
0.0129432
0.0129503
0.0129042
0.0128051
0.0126533
0.0124495
0.0121945
0.0118893
0.0115358
0.0135016
0.0134358
0.0133041
0.0131073
0.0128466
0.0125233
0.0121392