/*--------------------------------*- C++ -*----------------------------------*\
| =========                 |                                                 |
| \\      /  F ield         | foam-extend: Open Source CFD                    |
|  \\    /   O peration     | Version:     3.1                                |
|   \\  /    A nd           | Web:         http://www.extend-project.de       |
|    \\/     M anipulation  |                                                 |
\*---------------------------------------------------------------------------*/
FoamFile
{
    version     2.0;
    format      ascii;
    class       pointVectorField;
    location    "0.0011";
    object      pointMotionU;
}
// * * * * * * * * * * * * * * * * * * * * * * * * * * * * * * * * * * * * * //

dimensions      [0 1 -1 0 0 0 0];

internalField   nonuniform List<vector> 
18306
(
(0 0 0)
(0 0 0)
(0 0 0)
(0 0 0)
(0 0 0)
(0 0 0)
(0 0 0)
(0 0 0)
(0 0 0)
(0 0 0)
(0 0 0)
(0 0 0)
(0 0 0)
(0 0 0)
(0 0 0)
(0 0 0)
(0 0 0)
(0 0 0)
(0 0 0)
(0 0 0)
(0 0 0)
(0 0 0)
(0 0 0)
(0 0 0)
(0 0 0)
(0 0 0)
(0 0 0)
(0 0 0)
(0 0 0)
(0 0 0)
(0 0 0)
(0 0 0)
(0 0 0)
(0 0 0)
(0 0 0)
(0 0 0)
(0 0 0)
(0 0 0)
(0 0 0)
(0 0 0)
(0 0 0)
(0 0 0)
(0 0 0)
(0 0 0)
(0 0 0)
(0 0 0)
(0 0 0)
(0 0 0)
(0 0 0)
(0 0 0)
(0 0 0)
(0 0 0)
(0 0 0)
(0 0 0)
(0 0 0)
(0 0 0)
(0 0 0)
(0 0 0)
(0 0 0)
(0 0 0)
(0 0 0)
(0 0 0)
(0 0 0)
(0 0 0)
(0 0 0)
(0 0 0)
(0 0 0)
(0 0 0)
(0 0 0)
(0 0 0)
(0 0 0)
(0 0 0)
(0 0 0)
(0 0 0)
(0 0 0)
(0 0 0)
(0 0 0)
(0 0 0)
(0 0 0)
(0 0 0)
(0 0 0)
(0 0 0)
(0 0 0)
(0 0 0)
(0 0 0)
(0 0 0)
(0 0 0)
(0 0 0)
(0 0 0)
(0 0 0)
(0 0 0)
(0 0 0)
(0 0 0)
(0 0 0)
(0 0 0)
(0 0 0)
(0 0 0)
(0 0 0)
(0 0 0)
(0 0 0)
(0 0 0)
(0 0 0)
(0 0 0)
(0 0 0)
(0 0 0)
(0 0 0)
(0 0 0)
(0 0 0)
(0 0 0)
(0 0 0)
(0 0 0)
(0 0 0)
(0 0 0)
(0 0 0)
(0 0 0)
(0 0 0)
(0 0 0)
(0 0 0)
(0 0 0)
(0 0 0)
(0 0 0)
(0 0 -6.44912e-09)
(-1.988e-09 -0 -6.50941e-09)
(-3.76838e-09 -0 -6.70001e-09)
(-5.17209e-09 -0 -7.02261e-09)
(-6.06802e-09 -0 -7.49204e-09)
(-6.31444e-09 -0 -8.13247e-09)
(-5.7635e-09 -0 -8.97446e-09)
(-4.28568e-09 -0 -1.00498e-08)
(-1.81625e-09 0 -1.13795e-08)
(1.57775e-09 0 -1.2948e-08)
(5.65889e-09 0 -1.46736e-08)
(0 2.47413e-09 -6.47789e-09)
(-1.97632e-09 2.34972e-09 -6.5403e-09)
(-3.76673e-09 2.00304e-09 -6.73687e-09)
(-5.20041e-09 1.50597e-09 -7.06967e-09)
(-6.13613e-09 9.22065e-10 -7.5535e-09)
(-6.42893e-09 3.11703e-10 -8.2129e-09)
(-5.92572e-09 -2.53479e-10 -9.07937e-09)
(-4.48661e-09 -6.91439e-10 -1.01884e-08)
(-2.02952e-09 -9.1328e-10 -1.1568e-08)
(1.40554e-09 -8.27686e-10 -1.32207e-08)
(5.58284e-09 -3.34815e-10 -1.50761e-08)
(0 5.16084e-09 -6.57768e-09)
(-1.95493e-09 4.93111e-09 -6.64547e-09)
(-3.77049e-09 4.27065e-09 -6.85912e-09)
(-5.28505e-09 3.27382e-09 -7.22188e-09)
(-6.34165e-09 2.06847e-09 -7.74792e-09)
(-6.78078e-09 7.88833e-10 -8.46243e-09)
(-6.43222e-09 -4.23017e-10 -9.40061e-09)
(-5.1265e-09 -1.40297e-09 -1.06045e-08)
(-2.73406e-09 -1.96997e-09 -1.21157e-08)
(7.84116e-10 -1.9409e-09 -1.39701e-08)
(5.33564e-09 -1.09894e-09 -1.61371e-08)
(0 8.32442e-09 -6.75621e-09)
(-1.93676e-09 7.99652e-09 -6.83349e-09)
(-3.78255e-09 7.04053e-09 -7.07578e-09)
(-5.4059e-09 5.54594e-09 -7.48773e-09)
(-6.65232e-09 3.66826e-09 -8.08361e-09)
(-7.34234e-09 1.61568e-09 -8.88827e-09)
(-7.27543e-09 -3.87209e-10 -9.94002e-09)
(-6.2364e-09 -2.0952e-09 -1.12872e-08)
(-4.02468e-09 -3.23613e-09 -1.29802e-08)
(-4.91253e-10 -3.53416e-09 -1.5073e-08)
(4.50048e-09 -2.60262e-09 -1.75111e-08)
(0 1.22683e-08 -7.03153e-09)
(-1.89678e-09 1.18394e-08 -7.12325e-09)
(-3.76381e-09 1.05757e-08 -7.40752e-09)
(-5.50877e-09 8.5653e-09 -7.88864e-09)
(-6.99708e-09 5.96795e-09 -8.58113e-09)
(-8.0407e-09 3.02294e-09 -9.5092e-09)
(-8.40316e-09 3.66305e-11 -1.07117e-08)
(-7.81446e-09 -2.65065e-09 -1.22407e-08)
(-5.98884e-09 -4.67608e-09 -1.41489e-08)
(-2.65977e-09 -5.67521e-09 -1.64874e-08)
(2.61508e-09 -5.03755e-09 -1.91144e-08)
(0 1.72852e-08 -7.42679e-09)
(-1.79383e-09 1.67547e-08 -7.53839e-09)
(-3.63424e-09 1.51687e-08 -7.8805e-09)
(-5.48871e-09 1.26038e-08 -8.45476e-09)
(-7.25389e-09 9.22885e-09 -9.27227e-09)
(-8.74632e-09 5.28639e-09 -1.03568e-08)
(-9.69935e-09 1.11423e-09 -1.17478e-08)
(-9.78224e-09 -2.84866e-09 -1.34945e-08)
(-8.63062e-09 -6.12266e-09 -1.56509e-08)
(-5.86913e-09 -8.25694e-09 -1.82568e-08)
(-6.8882e-10 -8.41002e-09 -2.10482e-08)
(0 2.36563e-08 -7.96384e-09)
(-1.57098e-09 2.30229e-08 -8.10263e-09)
(-3.28281e-09 2.11151e-08 -8.52386e-09)
(-5.18975e-09 1.79725e-08 -9.22225e-09)
(-7.24019e-09 1.37486e-08 -1.02005e-08)
(-9.26316e-09 8.70179e-09 -1.1478e-08)
(-1.09697e-08 3.17712e-09 -1.30944e-08)
(-1.19669e-08 -2.34741e-09 -1.50992e-08)
(-1.18157e-08 -7.25501e-09 -1.75423e-08)
(-1.00564e-08 -1.09572e-08 -2.04517e-08)
(-5.52637e-09 -1.24555e-08 -2.34448e-08)
(0 3.16311e-08 -8.65282e-09)
(-1.15376e-09 3.09008e-08 -8.83136e-09)
(-2.56768e-09 2.8689e-08 -9.36383e-09)
(-4.40938e-09 2.49811e-08 -1.02276e-08)
(-6.70758e-09 1.98679e-08 -1.14106e-08)
(-9.31692e-09 1.35961e-08 -1.29242e-08)
(-1.19223e-08 6.55219e-09 -1.48048e-08)
(-1.40704e-08 -7.56664e-10 -1.7107e-08)
(-1.52255e-08 -7.60877e-09 -1.9862e-08)
(-1.48575e-08 -1.32262e-08 -2.30919e-08)
(-1.16055e-08 -1.6573e-08 -2.63484e-08)
(0 4.13775e-08 -9.47194e-09)
(-4.48334e-10 4.05699e-08 -9.71336e-09)
(-1.31061e-09 3.81e-08 -1.04108e-08)
(-2.89968e-09 3.38876e-08 -1.14987e-08)
(-5.34961e-09 2.79221e-08 -1.29385e-08)
(-8.55894e-09 2.03596e-08 -1.47371e-08)
(-1.21816e-08 1.16008e-08 -1.6929e-08)
(-1.5671e-08 2.28122e-09 -1.95559e-08)
(-1.83503e-08 -6.7094e-09 -2.26122e-08)
(-1.96109e-08 -1.44063e-08 -2.61249e-08)
(-1.81396e-08 -1.98512e-08 -2.96419e-08)
(0 5.29145e-08 -1.03286e-08)
(6.62245e-10 5.20579e-08 -1.06827e-08)
(7.02439e-10 4.94336e-08 -1.16498e-08)
(-3.72726e-10 4.4876e-08 -1.30528e-08)
(-2.82537e-09 3.81948e-08 -1.48087e-08)
(-6.60748e-09 2.93727e-08 -1.69361e-08)
(-1.13359e-08 1.87511e-08 -1.94874e-08)
(-1.6318e-08 7.12881e-09 -2.24785e-08)
(-2.06557e-08 -4.27498e-09 -2.58377e-08)
(-2.35418e-08 -1.40912e-08 -2.94934e-08)
(-2.39083e-08 -2.12753e-08 -3.29673e-08)
(0 6.62049e-08 -1.09923e-08)
(2.2816e-09 6.52072e-08 -1.15521e-08)
(3.677e-09 6.27134e-08 -1.296e-08)
(3.55289e-09 5.836e-08 -1.47547e-08)
(1.51036e-09 5.16356e-08 -1.67978e-08)
(-2.5074e-09 4.21883e-08 -1.91729e-08)
(-8.16052e-09 3.01264e-08 -2.20058e-08)
(-1.46849e-08 1.62053e-08 -2.5332e-08)
(-2.09362e-08 1.88699e-09 -2.90135e-08)
(-2.56011e-08 -1.0807e-08 -3.26741e-08)
(-2.77012e-08 -2.01094e-08 -3.59045e-08)
(0 0 -1.21705e-08)
(-4.22651e-09 -0 -1.22507e-08)
(-8.06844e-09 -0 -1.24991e-08)
(-1.12201e-08 -0 -1.29196e-08)
(-1.34523e-08 -0 -1.35325e-08)
(-1.4508e-08 -0 -1.43711e-08)
(-1.41065e-08 -0 -1.54784e-08)
(-1.19822e-08 -0 -1.69016e-08)
(-7.96184e-09 -0 -1.86769e-08)
(-2.07199e-09 0 -2.07964e-08)
(5.42462e-09 0 -2.31638e-08)
(0 4.31452e-09 -1.2191e-08)
(-4.20271e-09 4.08012e-09 -1.22742e-08)
(-8.06592e-09 3.42126e-09 -1.25312e-08)
(-1.12794e-08 2.47098e-09 -1.29663e-08)
(-1.35926e-08 1.34735e-09 -1.35998e-08)
(-1.47434e-08 1.63805e-10 -1.44658e-08)
(-1.44428e-08 -9.4534e-10 -1.56092e-08)
(-1.24104e-08 -1.82696e-09 -1.70831e-08)
(-8.45043e-09 -2.31551e-09 -1.89366e-08)
(-2.56214e-09 -2.24219e-09 -2.11932e-08)
(4.94574e-09 -1.40619e-09 -2.37885e-08)
(0 9.00631e-09 -1.2268e-08)
(-4.15749e-09 8.57141e-09 -1.23588e-08)
(-8.07114e-09 7.31097e-09 -1.26397e-08)
(-1.14487e-08 5.40262e-09 -1.31171e-08)
(-1.40066e-08 3.08338e-09 -1.38102e-08)
(-1.54555e-08 6.03374e-10 -1.47545e-08)
(-1.54799e-08 -1.77169e-09 -1.60013e-08)
(-1.37548e-08 -3.73591e-09 -1.76156e-08)
(-1.00167e-08 -4.95195e-09 -1.96706e-08)
(-4.16569e-09 -5.08005e-09 -2.22497e-08)
(3.67616e-09 -3.67819e-09 -2.53721e-08)
(0 1.45424e-08 -1.24209e-08)
(-4.12366e-09 1.39201e-08 -1.2525e-08)
(-8.09988e-09 1.20902e-08 -1.28456e-08)
(-1.16973e-08 9.22457e-09 -1.33914e-08)
(-1.46382e-08 5.61203e-09 -1.41825e-08)
(-1.65954e-08 1.63872e-09 -1.52542e-08)
(-1.72017e-08 -2.27803e-09 -1.66633e-08)
(-1.60588e-08 -5.68198e-09 -1.84864e-08)
(-1.27926e-08 -8.06654e-09 -2.08143e-08)
(-7.13807e-09 -8.92086e-09 -2.37653e-08)
(1.17274e-09 -7.45359e-09 -2.73439e-08)
(0 2.14564e-08 -1.26839e-08)
(-4.05553e-09 2.06422e-08 -1.28081e-08)
(-8.08421e-09 1.82217e-08 -1.31871e-08)
(-1.19305e-08 1.43652e-08 -1.3829e-08)
(-1.53583e-08 9.36867e-09 -1.47546e-08)
(-1.8028e-08 3.67552e-09 -1.59995e-08)
(-1.95082e-08 -2.14785e-09 -1.76222e-08)
(-1.93079e-08 -7.4721e-09 -1.97061e-08)
(-1.69113e-08 -1.1624e-08 -2.23493e-08)
(-1.18586e-08 -1.39308e-08 -2.56705e-08)
(-3.30757e-09 -1.31411e-08 -2.95629e-08)
(0 3.02581e-08 -1.31019e-08)
(-3.87703e-09 2.92525e-08 -1.32542e-08)
(-7.8766e-09 2.62172e-08 -1.37141e-08)
(-1.19587e-08 2.13007e-08 -1.44858e-08)
(-1.59475e-08 1.48123e-08 -1.55856e-08)
(-1.95177e-08 7.19867e-09 -1.7049e-08)
(-2.21883e-08 -9.17162e-10 -1.89365e-08)
(-2.33596e-08 -8.72639e-09 -2.13293e-08)
(-2.23803e-08 -1.53472e-08 -2.43287e-08)
(-1.86042e-08 -1.99523e-08 -2.80406e-08)
(-1.04804e-08 -2.08067e-08 -3.21924e-08)
(0 4.14315e-08 -1.3725e-08)
(-3.48329e-09 4.02344e-08 -1.39162e-08)
(-7.27286e-09 3.65885e-08 -1.44877e-08)
(-1.14966e-08 3.05724e-08 -1.54336e-08)
(-1.60776e-08 2.24607e-08 -1.6758e-08)
(-2.0716e-08 1.27231e-08 -1.84905e-08)
(-2.48962e-08 1.99282e-09 -2.06933e-08)
(-2.79114e-08 -8.8512e-09 -2.34496e-08)
(-2.89762e-08 -1.86814e-08 -2.6856e-08)
(-2.7296e-08 -2.6427e-08 -3.10037e-08)
(-2.06357e-08 -3.00086e-08 -3.5455e-08)
(0 5.53932e-08 -1.45994e-08)
(-2.73769e-09 5.40184e-08 -1.4848e-08)
(-6.01408e-09 4.97997e-08 -1.55778e-08)
(-1.01753e-08 4.27113e-08 -1.67575e-08)
(-1.52994e-08 3.29022e-08 -1.83693e-08)
(-2.11361e-08 2.08119e-08 -2.04317e-08)
(-2.71213e-08 7.14505e-09 -2.30033e-08)
(-3.24448e-08 -7.16971e-09 -2.61762e-08)
(-3.61417e-08 -2.08064e-08 -3.00227e-08)
(-3.7293e-08 -3.236e-08 -3.46278e-08)
(-3.3285e-08 -3.9658e-08 -3.94559e-08)
(0 7.24001e-08 -1.57477e-08)
(-1.46863e-09 7.0887e-08 -1.60878e-08)
(-3.7748e-09 6.61868e-08 -1.70545e-08)
(-7.54438e-09 5.81446e-08 -1.85534e-08)
(-1.30595e-08 4.67058e-08 -2.05273e-08)
(-2.01566e-08 3.21307e-08 -2.29884e-08)
(-2.82111e-08 1.51465e-08 -2.59935e-08)
(-3.62313e-08 -3.07644e-09 -2.96185e-08)
(-4.29773e-08 -2.08841e-08 -3.38862e-08)
(-4.73938e-08 -3.65434e-08 -3.88921e-08)
(-4.69605e-08 -4.80379e-08 -4.40808e-08)
(0 9.24234e-08 -1.71283e-08)
(5.36283e-10 9.08272e-08 -1.76328e-08)
(-1.66172e-10 8.58417e-08 -1.89893e-08)
(-3.08441e-09 7.71427e-08 -2.09399e-08)
(-8.75031e-09 6.43212e-08 -2.3361e-08)
(-1.71064e-08 4.72997e-08 -2.62809e-08)
(-2.74581e-08 2.66923e-08 -2.97833e-08)
(-3.85196e-08 3.99189e-09 -3.39094e-08)
(-4.8603e-08 -1.85009e-08 -3.85908e-08)
(-5.62254e-08 -3.82587e-08 -4.37841e-08)
(-5.92724e-08 -5.31118e-08 -4.88737e-08)
(0 1.15301e-07 -1.85648e-08)
(3.47887e-09 1.13471e-07 -1.9362e-08)
(5.22302e-09 1.0873e-07 -2.13598e-08)
(3.97536e-09 1.00407e-07 -2.38782e-08)
(-1.06692e-09 8.7477e-08 -2.67089e-08)
(-1.00542e-08 6.92114e-08 -2.99725e-08)
(-2.23789e-08 4.57762e-08 -3.38567e-08)
(-3.66148e-08 1.85963e-08 -3.8429e-08)
(-5.05736e-08 -9.52324e-09 -4.35241e-08)
(-6.16424e-08 -3.46444e-08 -4.86517e-08)
(-6.78092e-08 -5.33089e-08 -5.32862e-08)
(0 0 -1.7123e-08)
(-6.80479e-09 -0 -1.71651e-08)
(-1.31056e-08 -0 -1.72964e-08)
(-1.85193e-08 -0 -1.75179e-08)
(-2.27793e-08 -0 -1.78407e-08)
(-2.55668e-08 -0 -1.82829e-08)
(-2.65036e-08 -0 -1.88662e-08)
(-2.51906e-08 -0 -1.96111e-08)
(-2.12815e-08 -0 -2.05241e-08)
(-1.45812e-08 0 -2.1569e-08)
(-5.01922e-09 0 -2.26127e-08)
(0 5.1881e-09 -1.70784e-08)
(-6.76515e-09 4.86647e-09 -1.71223e-08)
(-1.30966e-08 3.95806e-09 -1.72597e-08)
(-1.86026e-08 2.63654e-09 -1.74916e-08)
(-2.29821e-08 1.05959e-09 -1.78287e-08)
(-2.59097e-08 -6.18379e-10 -1.82899e-08)
(-2.69987e-08 -2.21468e-09 -1.88992e-08)
(-2.58355e-08 -3.52157e-09 -1.96823e-08)
(-2.20563e-08 -4.31353e-09 -2.0658e-08)
(-1.54604e-08 -4.35922e-09 -2.1821e-08)
(-6.10292e-09 -3.34666e-09 -2.3091e-08)
(0 1.08404e-08 -1.69616e-08)
(-6.68709e-09 1.02392e-08 -1.70103e-08)
(-1.30869e-08 8.49177e-09 -1.71634e-08)
(-1.88329e-08 5.83437e-09 -1.74239e-08)
(-2.35701e-08 2.58231e-09 -1.78016e-08)
(-2.69332e-08 -9.28228e-10 -1.83163e-08)
(-2.85072e-08 -4.33691e-09 -1.8998e-08)
(-2.78315e-08 -7.22916e-09 -1.9884e-08)
(-2.4479e-08 -9.14464e-09 -2.10168e-08)
(-1.81809e-08 -9.61553e-09 -2.24486e-08)
(-8.85323e-09 -7.95255e-09 -2.41994e-08)
(0 1.75281e-08 -1.67994e-08)
(-6.6319e-09 1.66647e-08 -1.68565e-08)
(-1.31174e-08 1.41197e-08 -1.70347e-08)
(-1.91795e-08 1.01247e-08 -1.73391e-08)
(-2.4472e-08 5.06569e-09 -1.77815e-08)
(-2.85735e-08 -5.42344e-10 -1.83819e-08)
(-3.10022e-08 -6.13848e-09 -1.91745e-08)
(-3.12147e-08 -1.11048e-08 -2.02078e-08)
(-2.86624e-08 -1.47499e-08 -2.15424e-08)
(-2.29094e-08 -1.63712e-08 -2.32637e-08)
(-1.34078e-08 -1.47453e-08 -2.54129e-08)
(0 2.58991e-08 -1.66311e-08)
(-6.54013e-09 2.47703e-08 -1.67011e-08)
(-1.31068e-08 2.14058e-08 -1.69164e-08)
(-1.95285e-08 1.60342e-08 -1.72819e-08)
(-2.55205e-08 9.04907e-09 -1.7811e-08)
(-3.06486e-08 1.04198e-09 -1.85256e-08)
(-3.43437e-08 -7.23092e-09 -1.94613e-08)
(-3.59449e-08 -1.49234e-08 -2.06715e-08)
(-3.47345e-08 -2.11176e-08 -2.22241e-08)
(-3.0048e-08 -2.48893e-08 -2.4207e-08)
(-2.05743e-08 -2.43212e-08 -2.66054e-08)
(0 3.65658e-08 -1.65057e-08)
(-6.31028e-09 3.51762e-08 -1.65941e-08)
(-1.28591e-08 3.09713e-08 -1.68622e-08)
(-1.9635e-08 2.41451e-08 -1.73118e-08)
(-2.64348e-08 1.51005e-08 -1.7953e-08)
(-3.28498e-08 4.4297e-09 -1.88093e-08)
(-3.82513e-08 -7.03626e-09 -1.99192e-08)
(-4.18311e-08 -1.82136e-08 -2.13341e-08)
(-4.2697e-08 -2.79117e-08 -2.31214e-08)
(-3.99519e-08 -3.49959e-08 -2.53582e-08)
(-3.13184e-08 -3.6813e-08 -2.79321e-08)
(0 5.00989e-08 -1.64789e-08)
(-5.80253e-09 4.84556e-08 -1.6594e-08)
(-1.21025e-08 4.34323e-08 -1.6937e-08)
(-1.91222e-08 3.51191e-08 -1.75021e-08)
(-2.67913e-08 2.38591e-08 -1.82903e-08)
(-3.47335e-08 1.02631e-08 -1.93209e-08)
(-4.22795e-08 -4.82633e-09 -2.06356e-08)
(-4.84855e-08 -2.02279e-08 -2.22883e-08)
(-5.22747e-08 -3.44282e-08 -2.43396e-08)
(-5.25503e-08 -4.59707e-08 -2.68521e-08)
(-4.61026e-08 -5.16595e-08 -2.96093e-08)
(0 6.69745e-08 -1.66101e-08)
(-4.8348e-09 6.51062e-08 -1.6766e-08)
(-1.04942e-08 5.93402e-08 -1.72187e-08)
(-1.75021e-08 4.96073e-08 -1.79425e-08)
(-2.60007e-08 3.60597e-08 -1.89218e-08)
(-3.56759e-08 1.92515e-08 -2.01683e-08)
(-4.57849e-08 1.15109e-10 -2.17221e-08)
(-5.52525e-08 -2.0099e-08 -2.36446e-08)
(-6.27546e-08 -3.95942e-08 -2.59817e-08)
(-6.70181e-08 -5.64761e-08 -2.8787e-08)
(-6.43269e-08 -6.73917e-08 -3.17708e-08)
(0 8.7457e-08 -1.69523e-08)
(-3.17732e-09 8.54328e-08 -1.71749e-08)
(-7.59889e-09 7.90878e-08 -1.7797e-08)
(-1.41757e-08 6.81393e-08 -1.87423e-08)
(-2.33302e-08 5.24284e-08 -1.99648e-08)
(-3.48647e-08 3.22495e-08 -2.14722e-08)
(-4.79406e-08 8.56537e-09 -2.33063e-08)
(-6.12156e-08 -1.70354e-08 -2.552e-08)
(-7.29749e-08 -4.22818e-08 -2.81306e-08)
(-8.17681e-08 -6.48503e-08 -3.11957e-08)
(-8.40153e-08 -8.16213e-08 -3.43947e-08)
(0 1.11443e-07 -1.75266e-08)
(-5.44301e-10 1.09368e-07 -1.78723e-08)
(-2.89283e-09 1.02771e-07 -1.87796e-08)
(-8.44798e-09 9.10635e-08 -2.00431e-08)
(-1.79765e-08 7.35546e-08 -2.15647e-08)
(-3.14211e-08 5.00657e-08 -2.33666e-08)
(-4.78345e-08 2.14189e-08 -2.55145e-08)
(-6.5437e-08 -1.03235e-08 -2.80438e-08)
(-8.18605e-08 -4.19708e-08 -3.09151e-08)
(-9.50213e-08 -7.00844e-08 -3.40997e-08)
(-1.01846e-07 -9.13862e-08 -3.72251e-08)
(0 1.38639e-07 -1.82695e-08)
(3.37037e-09 1.36405e-07 -1.88425e-08)
(4.25904e-09 1.30367e-07 -2.02321e-08)
(8.62166e-10 1.19378e-07 -2.19071e-08)
(-7.96461e-09 1.01855e-07 -2.37041e-08)
(-2.24478e-08 7.67282e-08 -2.57162e-08)
(-4.17513e-08 4.42273e-08 -2.80887e-08)
(-6.38855e-08 6.36248e-09 -3.08804e-08)
(-8.576e-08 -3.29248e-08 -3.39908e-08)
(-1.03595e-07 -6.80976e-08 -3.71129e-08)
(-1.14445e-07 -9.43232e-08 -3.99299e-08)
(0 0 -2.20487e-08)
(-9.53215e-09 -0 -2.20204e-08)
(-1.852e-08 -0 -2.19384e-08)
(-2.65831e-08 -0 -2.17975e-08)
(-3.35019e-08 -0 -2.15916e-08)
(-3.89851e-08 -0 -2.13098e-08)
(-4.26504e-08 -0 -2.09348e-08)
(-4.40535e-08 -0 -2.04405e-08)
(-4.27405e-08 -0 -1.97875e-08)
(-3.8309e-08 0 -1.89148e-08)
(-3.03348e-08 0 -1.76993e-08)
(0 5.15694e-09 -2.19042e-08)
(-9.47136e-09 4.77651e-09 -2.1875e-08)
(-1.84939e-08 3.69856e-09 -2.17924e-08)
(-2.66724e-08 2.11494e-09 -2.16508e-08)
(-3.37387e-08 2.05157e-10 -2.14428e-08)
(-3.93933e-08 -1.85142e-09 -2.11584e-08)
(-4.32446e-08 -3.8431e-09 -2.07818e-08)
(-4.48354e-08 -5.5304e-09 -2.02885e-08)
(-4.36997e-08 -6.65285e-09 -1.96447e-08)
(-3.94457e-08 -6.94278e-09 -1.88042e-08)
(-3.17991e-08 -5.98654e-09 -1.77014e-08)
(0 1.07771e-08 -2.14887e-08)
(-9.34543e-09 1.00607e-08 -2.14574e-08)
(-1.84359e-08 7.97615e-09 -2.13703e-08)
(-2.69059e-08 4.79011e-09 -2.12231e-08)
(-3.44082e-08 8.59544e-10 -2.10081e-08)
(-4.05889e-08 -3.43074e-09 -2.07149e-08)
(-4.50279e-08 -7.66439e-09 -2.03303e-08)
(-4.72209e-08 -1.13635e-08 -1.9835e-08)
(-4.66429e-08 -1.39942e-08 -1.92062e-08)
(-4.28656e-08 -1.50104e-08 -1.84224e-08)
(-3.55273e-08 -1.3496e-08 -1.74964e-08)
(0 1.7428e-08 -2.08302e-08)
(-9.25084e-09 1.63964e-08 -2.07954e-08)
(-1.84228e-08 1.33541e-08 -2.06982e-08)
(-2.72635e-08 8.56591e-09 -2.05364e-08)
(-3.54335e-08 2.46983e-09 -2.03058e-08)
(-4.25015e-08 -4.34987e-09 -1.99961e-08)
(-4.79652e-08 -1.12513e-08 -1.95941e-08)
(-5.12322e-08 -1.75213e-08 -1.90849e-08)
(-5.16515e-08 -2.23552e-08 -1.84539e-08)
(-4.8639e-08 -2.49307e-08 -1.76905e-08)
(-4.13531e-08 -2.36382e-08 -1.68696e-08)
(0 2.57458e-08 -1.996e-08)
(-9.12235e-09 2.44004e-08 -1.99204e-08)
(-1.83772e-08 2.03905e-08 -1.981e-08)
(-2.7635e-08 1.39721e-08 -1.96267e-08)
(-3.66324e-08 5.58898e-09 -1.93702e-08)
(-4.49225e-08 -4.08854e-09 -1.90349e-08)
(-5.18915e-08 -1.42012e-08 -1.86068e-08)
(-5.68065e-08 -2.3778e-08 -1.8069e-08)
(-5.88316e-08 -3.1748e-08 -1.74084e-08)
(-5.71395e-08 -3.70245e-08 -1.66133e-08)
(-5.00383e-08 -3.71126e-08 -1.58054e-08)
(0 3.63158e-08 -1.89083e-08)
(-8.84437e-09 3.46705e-08 -1.88636e-08)
(-1.8077e-08 2.96931e-08 -1.87393e-08)
(-2.77549e-08 2.1589e-08 -1.85332e-08)
(-3.77034e-08 1.0798e-08 -1.82452e-08)
(-4.75092e-08 -2.01534e-09 -1.78749e-08)
(-5.64915e-08 -1.59066e-08 -1.74127e-08)
(-6.37314e-08 -2.96338e-08 -1.68389e-08)
(-6.81825e-08 -4.1817e-08 -1.61314e-08)
(-6.87574e-08 -5.1115e-08 -1.52718e-08)
(-6.26702e-08 -5.4091e-08 -1.4422e-08)
(0 4.96602e-08 -1.77054e-08)
(-8.2578e-09 4.77377e-08 -1.76571e-08)
(-1.72133e-08 4.18541e-08 -1.75202e-08)
(-2.71985e-08 3.20758e-08 -1.72921e-08)
(-3.81855e-08 1.87495e-08 -1.69735e-08)
(-4.97873e-08 2.54192e-09 -1.6565e-08)
(-6.12773e-08 -1.55909e-08 -1.60629e-08)
(-7.15827e-08 -3.42854e-08 -1.54517e-08)
(-7.94191e-08 -5.17923e-08 -1.46993e-08)
(-8.3447e-08 -6.63941e-08 -1.37768e-08)
(-7.98288e-08 -7.39442e-08 -1.28714e-08)
(0 6.61768e-08 -1.63821e-08)
(-7.15495e-09 6.40326e-08 -1.63326e-08)
(-1.53982e-08 5.73881e-08 -1.61881e-08)
(-2.54144e-08 4.60857e-08 -1.59428e-08)
(-3.74186e-08 3.02125e-08 -1.55977e-08)
(-5.10809e-08 1.03426e-08 -1.51556e-08)
(-6.55679e-08 -1.24713e-08 -1.46168e-08)
(-7.96569e-08 -3.67747e-08 -1.39708e-08)
(-9.17626e-08 -6.04627e-08 -1.31921e-08)
(-1.00307e-07 -8.13124e-08 -1.2241e-08)
(-1.00884e-07 -9.49644e-08 -1.12943e-08)
(0 8.60112e-08 -1.49709e-08)
(-5.27161e-09 8.37647e-08 -1.49254e-08)
(-1.21322e-08 7.66478e-08 -1.47856e-08)
(-2.17191e-08 6.41689e-08 -1.45332e-08)
(-3.45699e-08 4.5984e-08 -1.41659e-08)
(-5.04784e-08 2.2339e-08 -1.36937e-08)
(-6.84718e-08 -5.67481e-09 -1.31261e-08)
(-8.69801e-08 -3.61893e-08 -1.24605e-08)
(-1.03941e-07 -6.6504e-08 -1.16868e-08)
(-1.17566e-07 -9.39021e-08 -1.07558e-08)
(-1.23602e-07 -1.14318e-07 -9.80818e-09)
(0 1.0889e-07 -1.35052e-08)
(-2.27545e-09 1.06742e-07 -1.34771e-08)
(-6.80585e-09 9.97028e-08 -1.33656e-08)
(-1.53105e-08 8.67359e-08 -1.31189e-08)
(-2.87222e-08 6.67708e-08 -1.27292e-08)
(-4.69821e-08 3.94837e-08 -1.22215e-08)
(-6.8964e-08 5.8362e-09 -1.16249e-08)
(-9.25376e-08 -3.16975e-08 -1.09543e-08)
(-1.14834e-07 -6.92976e-08 -1.02121e-08)
(-1.33286e-07 -1.0292e-07 -9.36344e-09)
(-1.44155e-07 -1.28388e-07 -8.52106e-09)
(0 1.34238e-07 -1.19875e-08)
(2.23811e-09 1.32295e-07 -1.20289e-08)
(1.42758e-09 1.26565e-07 -1.20046e-08)
(-4.63474e-09 1.15042e-07 -1.17967e-08)
(-1.73178e-08 9.55045e-08 -1.13956e-08)
(-3.68785e-08 6.66041e-08 -1.08543e-08)
(-6.22994e-08 2.86742e-08 -1.02304e-08)
(-9.11803e-08 -1.57955e-08 -9.56017e-09)
(-1.19783e-07 -6.20356e-08 -8.86064e-09)
(-1.43478e-07 -1.03421e-07 -8.16015e-09)
(-1.58658e-07 -1.34247e-07 -7.4871e-09)
(0 0 -2.81315e-08)
(-1.19392e-08 -0 -2.80515e-08)
(-2.3376e-08 -0 -2.78123e-08)
(-3.40115e-08 -0 -2.74038e-08)
(-4.37563e-08 -0 -2.68064e-08)
(-5.24517e-08 -0 -2.59881e-08)
(-5.98488e-08 -0 -2.49053e-08)
(-6.56377e-08 -0 -2.35053e-08)
(-6.94898e-08 -0 -2.17352e-08)
(-7.10938e-08 -0 -1.95617e-08)
(-7.01377e-08 0 -1.69717e-08)
(0 4.64786e-09 -2.79037e-08)
(-1.18534e-08 4.23741e-09 -2.78196e-08)
(-2.33208e-08 3.07209e-09 -2.75717e-08)
(-3.40824e-08 1.34457e-09 -2.71489e-08)
(-4.39865e-08 -7.60907e-10 -2.65303e-08)
(-5.28645e-08 -3.05821e-09 -2.56844e-08)
(-6.04565e-08 -5.32949e-09 -2.45679e-08)
(-6.64395e-08 -7.33195e-09 -2.31255e-08)
(-7.04723e-08 -8.80508e-09 -2.13012e-08)
(-7.22512e-08 -9.48815e-09 -1.90555e-08)
(-7.1525e-08 -8.9161e-09 -1.64163e-08)
(0 9.68178e-09 -2.72381e-08)
(-1.16664e-08 8.90473e-09 -2.71433e-08)
(-2.31775e-08 6.64421e-09 -2.68661e-08)
(-3.42444e-08 3.17229e-09 -2.63972e-08)
(-4.46114e-08 -1.14684e-09 -2.57158e-08)
(-5.40403e-08 -5.91908e-09 -2.47889e-08)
(-6.22408e-08 -1.07172e-08 -2.35717e-08)
(-6.88387e-08 -1.50558e-08 -2.20059e-08)
(-7.34252e-08 -1.83965e-08 -2.00294e-08)
(-7.566e-08 -2.01973e-08 -1.75859e-08)
(-7.52086e-08 -1.94157e-08 -1.47446e-08)
(0 1.55769e-08 -2.6161e-08)
(-1.15097e-08 1.4458e-08 -2.60484e-08)
(-2.30615e-08 1.11608e-08 -2.57191e-08)
(-3.4494e-08 5.95633e-09 -2.51669e-08)
(-4.55562e-08 -7.09061e-10 -2.43772e-08)
(-5.59082e-08 -8.24246e-09 -2.33169e-08)
(-6.51608e-08 -1.59903e-08 -2.19367e-08)
(-7.28434e-08 -2.3226e-08 -2.01744e-08)
(-7.84078e-08 -2.91312e-08 -1.79628e-08)
(-8.13549e-08 -3.28804e-08 -1.52289e-08)
(-8.08861e-08 -3.26449e-08 -1.21374e-08)
(0 2.28557e-08 -2.46913e-08)
(-1.13199e-08 2.14043e-08 -2.45533e-08)
(-2.29126e-08 1.70834e-08 -2.41521e-08)
(-3.47438e-08 1.01473e-08 -2.34835e-08)
(-4.66443e-08 1.0411e-09 -2.25398e-08)
(-5.82545e-08 -9.55801e-09 -2.12969e-08)
(-6.90454e-08 -2.07806e-08 -1.97028e-08)
(-7.83795e-08 -3.16391e-08 -1.76859e-08)
(-8.55087e-08 -4.10365e-08 -1.51739e-08)
(-8.96761e-08 -4.78679e-08 -1.20881e-08)
(-8.92394e-08 -4.93122e-08 -8.7385e-09)
(0 3.19639e-08 -2.28359e-08)
(-1.09794e-08 3.02065e-08 -2.26659e-08)
(-2.25071e-08 2.48985e-08 -2.21746e-08)
(-3.47411e-08 1.6225e-08 -2.13617e-08)
(-4.75949e-08 4.60681e-09 -2.02265e-08)
(-6.07428e-08 -9.29662e-09 -1.87547e-08)
(-7.35833e-08 -2.45308e-08 -1.69018e-08)
(-8.52517e-08 -3.98303e-08 -1.45934e-08)
(-9.47478e-08 -5.37817e-08 -1.17404e-08)
(-1.01034e-07 -6.50038e-08 -8.26414e-09)
(-1.01376e-07 -6.96164e-08 -4.64712e-09)
(0 4.32445e-08 -2.05929e-08)
(-1.03272e-08 4.12259e-08 -2.03849e-08)
(-2.15322e-08 3.50482e-08 -1.97827e-08)
(-3.40618e-08 2.47236e-08 -1.87958e-08)
(-4.7969e-08 1.05419e-08 -1.74363e-08)
(-6.29369e-08 -6.86239e-09 -1.56993e-08)
(-7.83107e-08 -2.65271e-08 -1.35508e-08)
(-9.30612e-08 -4.70508e-08 -1.09247e-08)
(-1.05891e-07 -6.66364e-08 -7.71972e-09)
(-1.1545e-07 -8.35025e-08 -3.85388e-09)
(-1.17961e-07 -9.29545e-08 4.18488e-11)
(0 5.68616e-08 -1.79559e-08)
(-9.15331e-09 5.4673e-08 -1.77e-08)
(-1.96005e-08 4.78651e-08 -1.69614e-08)
(-3.21558e-08 3.6157e-08 -1.57667e-08)
(-4.71177e-08 1.95106e-08 -1.415e-08)
(-6.42051e-08 -1.57422e-09 -1.21222e-08)
(-8.2618e-08 -2.60451e-08 -9.66015e-09)
(-1.01168e-07 -5.23926e-08 -6.70217e-09)
(-1.18216e-07 -7.84156e-08 -3.1769e-09)
(-1.32098e-07 -1.01802e-07 1.00831e-09)
(-1.38456e-07 -1.17602e-07 5.17528e-09)
(0 7.26587e-08 -1.49283e-08)
(-7.18982e-09 7.04853e-08 -1.46078e-08)
(-1.6207e-08 6.35017e-08 -1.36958e-08)
(-2.83385e-08 5.09467e-08 -1.22521e-08)
(-4.42117e-08 3.22267e-08 -1.03413e-08)
(-6.36572e-08 7.45714e-09 -7.99655e-09)
(-8.56906e-08 -2.22662e-08 -5.2133e-09)
(-1.08709e-07 -5.49736e-08 -1.95253e-09)
(-1.30547e-07 -8.77887e-08 1.80065e-09)
(-1.49293e-07 -1.17885e-07 6.15967e-09)
(-1.60695e-07 -1.40625e-07 1.04946e-08)
(0 8.99691e-08 -1.15495e-08)
(-4.09762e-09 8.81486e-08 -1.11334e-08)
(-1.07313e-08 8.18393e-08 -9.97769e-09)
(-2.18032e-08 6.94164e-08 -8.21625e-09)
(-3.83428e-08 4.93601e-08 -5.96556e-09)
(-6.0313e-08 2.1157e-08 -3.27932e-09)
(-8.65384e-08 -1.41905e-08 -1.68775e-10)
(-1.1477e-07 -5.40078e-08 3.35677e-09)
(-1.41943e-07 -9.41855e-08 7.24114e-09)
(-1.65272e-07 -1.30471e-07 1.1503e-08)
(-1.8085e-07 -1.58156e-07 1.55485e-08)
(0 1.07574e-07 -7.89704e-09)
(5.83625e-10 1.0658e-07 -7.38212e-09)
(-2.20076e-09 1.02709e-07 -5.90173e-09)
(-1.07727e-08 9.2799e-08 -3.79779e-09)
(-2.66071e-08 7.3939e-08 -1.25976e-09)
(-4.99758e-08 4.45642e-08 1.6685e-09)
(-7.97933e-08 5.10719e-09 4.99661e-09)
(-1.13505e-07 -4.16385e-08 8.69803e-09)
(-1.47116e-07 -9.0474e-08 1.26376e-08)
(-1.75602e-07 -1.3428e-07 1.64876e-08)
(-1.95031e-07 -1.67019e-07 1.99322e-08)
(0 0 -3.63001e-08)
(-1.33889e-08 -0 -3.62329e-08)
(-2.63723e-08 -0 -3.60289e-08)
(-3.87727e-08 -0 -3.56768e-08)
(-5.06631e-08 -0 -3.51544e-08)
(-6.20703e-08 -0 -3.44285e-08)
(-7.29613e-08 -0 -3.34556e-08)
(-8.32857e-08 -0 -3.21873e-08)
(-9.30189e-08 -0 -3.05859e-08)
(-1.02192e-07 -0 -2.86593e-08)
(-1.10984e-07 0 -2.65009e-08)
(0 4.28268e-09 -3.60576e-08)
(-1.32795e-08 3.86686e-09 -3.59833e-08)
(-2.62816e-08 2.68589e-09 -3.57635e-08)
(-3.88037e-08 9.26199e-10 -3.53864e-08)
(-5.08477e-08 -1.23564e-09 -3.48276e-08)
(-6.24294e-08 -3.62268e-09 -3.40546e-08)
(-7.35036e-08 -6.03079e-09 -3.30234e-08)
(-8.40068e-08 -8.23805e-09 -3.16794e-08)
(-9.39009e-08 -1.00145e-08 -2.99755e-08)
(-1.03214e-07 -1.11448e-08 -2.7896e-08)
(-1.12045e-07 -1.11807e-08 -2.5542e-08)
(0 8.83104e-09 -3.53463e-08)
(-1.30302e-08 8.04431e-09 -3.52534e-08)
(-2.60321e-08 5.75679e-09 -3.49825e-08)
(-3.88328e-08 2.23208e-09 -3.45257e-08)
(-5.1314e-08 -2.18222e-09 -3.38591e-08)
(-6.34105e-08 -7.11382e-09 -3.2948e-08)
(-7.50466e-08 -1.21631e-08 -3.17446e-08)
(-8.61041e-08 -1.68849e-08 -3.01848e-08)
(-9.64673e-08 -2.07964e-08 -2.82009e-08)
(-1.06119e-07 -2.3435e-08 -2.57289e-08)
(-1.15073e-07 -2.37737e-08 -2.28769e-08)
(0 1.39876e-08 -3.41927e-08)
(-1.27966e-08 1.28602e-08 -3.40701e-08)
(-2.57667e-08 9.54025e-09 -3.37115e-08)
(-3.88701e-08 4.2867e-09 -3.31147e-08)
(-5.19888e-08 -2.47759e-09 -3.2266e-08)
(-6.49385e-08 -1.01961e-08 -3.1131e-08)
(-7.75318e-08 -1.82592e-08 -2.9654e-08)
(-8.95482e-08 -2.59961e-08 -2.77616e-08)
(-1.00721e-07 -3.26623e-08 -2.53699e-08)
(-1.10871e-07 -3.75347e-08 -2.23797e-08)
(-1.19604e-07 -3.88014e-08 -1.90091e-08)
(0 2.01204e-08 -3.26106e-08)
(-1.25222e-08 1.86709e-08 -3.24463e-08)
(-2.54476e-08 1.43602e-08 -3.19677e-08)
(-3.88563e-08 7.42116e-09 -3.11776e-08)
(-5.27113e-08 -1.736e-09 -3.00752e-08)
(-6.68034e-08 -1.24813e-08 -2.86384e-08)
(-8.07836e-08 -2.40058e-08 -2.68082e-08)
(-9.4242e-08 -3.53934e-08 -2.44971e-08)
(-1.06701e-07 -4.5632e-08 -2.16127e-08)
(-1.1771e-07 -5.37295e-08 -1.80484e-08)
(-1.2613e-07 -5.68883e-08 -1.42218e-08)
(0 2.74894e-08 -3.0598e-08)
(-1.20971e-08 2.57579e-08 -3.03805e-08)
(-2.48674e-08 2.05343e-08 -2.97509e-08)
(-3.85728e-08 1.19666e-08 -2.87215e-08)
(-5.32432e-08 4.18632e-10 -2.7305e-08)
(-6.86996e-08 -1.35122e-08 -2.54955e-08)
(-8.45152e-08 -2.89411e-08 -2.32448e-08)
(-1.00019e-07 -4.4685e-08 -2.04627e-08)
(-1.1444e-07 -5.94271e-08 -1.7036e-08)
(-1.27029e-07 -7.18981e-08 -1.28652e-08)
(-1.35673e-07 -7.82449e-08 -8.61188e-09)
(0 3.62025e-08 -2.81411e-08)
(-1.13722e-08 3.42556e-08 -2.78588e-08)
(-2.3737e-08 2.8295e-08 -2.7042e-08)
(-3.76331e-08 1.82693e-08 -2.57224e-08)
(-5.32092e-08 4.37799e-09 -2.39377e-08)
(-7.02711e-08 -1.28354e-08 -2.16989e-08)
(-8.83307e-08 -3.24855e-08 -1.89732e-08)
(-1.06547e-07 -5.32502e-08 -1.56821e-08)
(-1.23797e-07 -7.3436e-08 -1.16992e-08)
(-1.38952e-07 -9.13721e-08 -6.92526e-09)
(-1.48972e-07 -1.0238e-07 -2.23469e-09)
(0 4.61194e-08 -2.52201e-08)
(-1.01553e-08 4.40832e-08 -2.48538e-08)
(-2.17062e-08 3.77181e-08 -2.38016e-08)
(-3.55419e-08 2.66221e-08 -2.21322e-08)
(-5.20361e-08 1.06128e-08 -1.99239e-08)
(-7.10012e-08 -9.93846e-09 -1.72148e-08)
(-9.17693e-08 -3.40701e-08 -1.3987e-08)
(-1.13335e-07 -6.03425e-08 -1.01664e-08)
(-1.34212e-07 -8.66401e-08 -5.66647e-09)
(-1.52874e-07 -1.10767e-07 -3.75444e-10)
(-1.65727e-07 -1.27767e-07 4.75892e-09)
(0 5.66935e-08 -2.18287e-08)
(-8.20158e-09 5.48163e-08 -2.13454e-08)
(-1.83169e-08 4.86612e-08 -1.99842e-08)
(-3.16862e-08 3.72135e-08 -1.78874e-08)
(-4.89884e-08 1.96349e-08 -1.51952e-08)
(-7.01229e-08 -4.12399e-09 -1.19793e-08)
(-9.42019e-08 -3.30571e-08 -8.24202e-09)
(-1.19765e-07 -6.52503e-08 -3.93383e-09)
(-1.44783e-07 -9.78878e-08 9.59752e-10)
(-1.67449e-07 -1.28269e-07 6.57853e-09)
(-1.84161e-07 -1.51719e-07 1.20385e-08)
(0 6.67543e-08 -1.80178e-08)
(-5.20197e-09 6.55073e-08 -1.73519e-08)
(-1.30065e-08 6.07003e-08 -1.55407e-08)
(-2.53467e-08 5.01503e-08 -1.28926e-08)
(-4.32748e-08 3.19327e-08 -9.64773e-09)
(-6.6794e-08 5.34843e-09 -5.90172e-09)
(-9.48027e-08 -2.86455e-08 -1.66179e-09)
(-1.25162e-07 -6.73829e-08 3.06966e-09)
(-1.54925e-07 -1.06797e-07 8.21621e-09)
(-1.81374e-07 -1.42779e-07 1.37925e-08)
(-2.00953e-07 -1.70574e-07 1.89775e-08)
(0 7.42636e-08 -1.39267e-08)
(-7.02901e-10 7.45116e-08 -1.30166e-08)
(-4.80675e-09 7.33002e-08 -1.05641e-08)
(-1.47451e-08 6.63635e-08 -7.29057e-09)
(-3.19818e-08 5.02141e-08 -3.56622e-09)
(-5.67937e-08 2.31537e-08 5.5233e-10)
(-8.81424e-08 -1.43185e-08 5.12107e-09)
(-1.23578e-07 -5.93151e-08 1.01365e-08)
(-1.59251e-07 -1.06624e-07 1.54206e-08)
(-1.90242e-07 -1.49228e-07 2.05183e-08)
(-2.12685e-07 -1.81275e-07 2.49886e-08)
(0 0 -4.65794e-08)
(-1.33074e-08 -0 -4.66052e-08)
(-2.63138e-08 -0 -4.66753e-08)
(-3.89373e-08 -0 -4.67804e-08)
(-5.13605e-08 -0 -4.69087e-08)
(-6.37427e-08 -0 -4.70471e-08)
(-7.6209e-08 -0 -4.71789e-08)
(-8.88988e-08 -0 -4.72868e-08)
(-1.02004e-07 -0 -4.73649e-08)
(-1.1578e-07 -0 -4.74491e-08)
(-1.30672e-07 -0 -4.76886e-08)
(0 4.61935e-09 -4.64148e-08)
(-1.31816e-08 4.21506e-09 -4.64317e-08)