/*--------------------------------*- C++ -*----------------------------------*\
| =========                 |                                                 |
| \\      /  F ield         | foam-extend: Open Source CFD                    |
|  \\    /   O peration     | Version:     3.1                                |
|   \\  /    A nd           | Web:         http://www.extend-project.de       |
|    \\/     M anipulation  |                                                 |
\*---------------------------------------------------------------------------*/
FoamFile
{
    version     2.0;
    format      ascii;
    class       volVectorField;
    location    "0.0011";
    object      U;
}
// * * * * * * * * * * * * * * * * * * * * * * * * * * * * * * * * * * * * * //

dimensions      [0 1 -1 0 0 0 0];

internalField   nonuniform List<vector> 
16000
(
(0.000255765 0.000255925 0.226849)
(0.000766774 0.000254303 0.227346)
(0.00127508 0.000252926 0.228348)
(0.00178164 0.000253277 0.229859)
(0.00228937 0.000255532 0.231887)
(0.00280063 0.000259704 0.234444)
(0.00331742 0.00026584 0.237545)
(0.00384177 0.000273928 0.241208)
(0.00437725 0.000283627 0.245458)
(0.00492636 0.000280212 0.250325)
(0.000254148 0.000767019 0.227346)
(0.000762124 0.000762422 0.227811)
(0.00126745 0.000758117 0.228762)
(0.00177139 0.000758169 0.230206)
(0.0022764 0.000763243 0.23215)
(0.00278468 0.00077366 0.234605)
(0.00329815 0.000789644 0.237584)
(0.00381846 0.000811212 0.241106)
(0.00435012 0.000837618 0.245192)
(0.00488617 0.000826006 0.24987)
(0.000252855 0.00127507 0.228348)
(0.000757902 0.0012676 0.228762)
(0.00125949 0.00125974 0.229648)
(0.0017599 0.00125739 0.231011)
(0.00226121 0.00126158 0.232857)
(0.00276513 0.00127316 0.235197)
(0.00327316 0.00129271 0.238043)
(0.00378619 0.0013202 0.24141)
(0.00430961 0.00135437 0.245319)
(0.00482419 0.00132188 0.249798)
(0.000253298 0.00178139 0.229859)
(0.000758145 0.00177128 0.230206)
(0.00125723 0.00176 0.231011)
(0.00175487 0.00175509 0.232279)
(0.00225334 0.00175752 0.234015)
(0.00275391 0.0017686 0.236229)
(0.00325738 0.00178949 0.238932)
(0.00376357 0.00182032 0.242137)
(0.00427875 0.00185925 0.245864)
(0.0047685 0.00180084 0.250139)
(0.000255577 0.00228905 0.231887)
(0.000763342 0.00227613 0.23215)
(0.00126161 0.00226109 0.232857)
(0.00175738 0.00225344 0.234015)
(0.00225366 0.00225389 0.235629)
(0.00275175 0.00226392 0.237705)
(0.00325171 0.00228528 0.240254)
(0.00375197 0.00231871 0.243288)
(0.00425949 0.00236202 0.246824)
(0.00472198 0.00227631 0.250893)
(0.000259743 0.00280031 0.234444)
(0.000773779 0.00278439 0.234605)
(0.00127332 0.00276489 0.235197)
(0.00176867 0.00275384 0.236229)
(0.00226378 0.00275192 0.237705)
(0.00276041 0.00276074 0.23963)
(0.00325832 0.00278262 0.242014)
(0.00375439 0.00281928 0.244868)
(0.00425569 0.00286895 0.248205)
(0.00468857 0.00275798 0.252061)
(0.000265874 0.00331713 0.237545)
(0.000789751 0.00329788 0.237584)
(0.00129289 0.00327291 0.238043)
(0.00178972 0.00325719 0.238932)
(0.00228541 0.00325168 0.240254)
(0.00278239 0.00325856 0.242014)
(0.00328073 0.00328115 0.24422)
(0.00377597 0.00332287 0.246882)
(0.00427444 0.00338368 0.250012)
(0.00467587 0.00325509 0.253651)
(0.000273957 0.00384154 0.241208)
(0.000811305 0.00381824 0.241106)
(0.00132036 0.00378597 0.24141)
(0.00182056 0.00376334 0.242137)
(0.00231898 0.00375173 0.243288)
(0.00281929 0.00375424 0.244867)
(0.0033225 0.00377606 0.246882)
(0.00382374 0.00382405 0.24934)
(0.00432809 0.00390381 0.252254)
(0.0047005 0.00377639 0.255673)
(0.000283652 0.0043771 0.245458)
(0.000837695 0.00434997 0.245192)
(0.00135449 0.00430944 0.245319)
(0.00185942 0.00427855 0.245864)
(0.00236223 0.0042592 0.246824)
(0.00286902 0.0042553 0.248205)
(0.00338348 0.00427413 0.250012)
(0.00390351 0.00432806 0.252254)
(0.00443565 0.00443581 0.254944)
(0.00480215 0.00434074 0.258143)
(0.000280233 0.00492628 0.250325)
(0.000826069 0.00488609 0.24987)
(0.00132198 0.0048241 0.249798)
(0.00180097 0.00476837 0.250139)
(0.00227644 0.00472179 0.250893)
(0.00275808 0.00468828 0.252061)
(0.0032551 0.00467555 0.253651)
(0.00377631 0.00470031 0.255673)
(0.00434057 0.00480211 0.258143)
(0.00489378 0.00489387 0.261127)
(0.000588288 0.000588306 0.224153)
(0.00176915 0.000581178 0.22465)
(0.00295467 0.000571854 0.225652)
(0.00414687 0.000562948 0.227163)
(0.00535013 0.000554463 0.229192)
(0.00656711 0.000546323 0.231753)
(0.00780034 0.000538513 0.23486)
(0.00905303 0.000531139 0.23853)
(0.0103296 0.000524905 0.242782)
(0.0116363 0.000525904 0.247631)
(0.00058116 0.00176917 0.22465)
(0.00174819 0.00174822 0.225117)
(0.00291964 0.00172084 0.226071)
(0.00409743 0.00169489 0.227519)
(0.00528574 0.0016704 0.22947)
(0.00648719 0.00164717 0.231935)
(0.00770438 0.00162514 0.234929)
(0.0089405 0.00160453 0.238467)
(0.0101998 0.00158721 0.242568)
(0.0114881 0.00158905 0.247244)
(0.00057185 0.00295466 0.225652)
(0.00172082 0.00291965 0.226071)
(0.00287378 0.00287381 0.226962)
(0.0040326 0.0028302 0.228332)
(0.00520111 0.00278895 0.230188)
(0.00638185 0.0027498 0.232541)
(0.00757747 0.00271263 0.235406)
(0.00879119 0.00267778 0.238796)
(0.010027 0.00264812 0.242729)
(0.0112906 0.00264943 0.247217)
(0.000562955 0.00414684 0.227163)
(0.00169489 0.00409741 0.227519)
(0.00283018 0.00403261 0.228332)
(0.00397078 0.00397081 0.229608)
(0.00512014 0.00391221 0.231356)
(0.00628069 0.00385654 0.233585)
(0.00745516 0.00380372 0.236309)
(0.00864686 0.00375418 0.23954)
(0.00985939 0.00371174 0.243295)
(0.0110985 0.00371118 0.247586)
(0.000554468 0.0053501 0.229192)
(0.00167041 0.0052857 0.22947)
(0.00278896 0.00520109 0.230188)
(0.0039122 0.00512014 0.231356)
(0.00504316 0.00504319 0.232982)
(0.00618426 0.00496992 0.235074)
(0.00733834 0.00490033 0.237644)
(0.00850884 0.00483508 0.240704)
(0.00969892 0.00477897 0.244271)
(0.0109148 0.00477545 0.248357)
(0.000546328 0.00656708 0.231753)
(0.00164719 0.00648715 0.231935)
(0.00274982 0.00638181 0.232541)
(0.00385655 0.00628067 0.233585)
(0.0049699 0.00618428 0.235074)
(0.00609228 0.00609232 0.237015)
(0.00722675 0.00600483 0.239418)
(0.008377 0.00592267 0.242295)
(0.00954569 0.0058518 0.245661)
(0.01074 0.00584435 0.249532)
(0.000538517 0.00780031 0.23486)
(0.00162515 0.00770435 0.234928)
(0.00271265 0.00757744 0.235406)
(0.00380375 0.00745513 0.236309)
(0.00490035 0.00733832 0.237644)
(0.0060048 0.00722678 0.239417)
(0.00712041 0.00712048 0.241638)
(0.00825127 0.00702029 0.244317)
(0.00939977 0.00693313 0.247468)
(0.0105745 0.00692016 0.251111)
(0.000531143 0.009053 0.23853)
(0.00160454 0.00894047 0.238467)
(0.00267779 0.00879116 0.238796)
(0.0037542 0.00864683 0.23954)
(0.00483512 0.0085088 0.240704)
(0.00592268 0.00837696 0.242295)
(0.00702022 0.00825127 0.244317)
(0.00813206 0.00813211 0.246781)
(0.00926086 0.0080262 0.249698)
(0.0104181 0.00800354 0.253095)
(0.000524908 0.0103296 0.242782)
(0.00158722 0.0101997 0.242568)
(0.00264813 0.0100269 0.242729)
(0.00371175 0.00985936 0.243295)
(0.00477899 0.00969887 0.244271)
(0.0058518 0.00954562 0.245661)
(0.00693309 0.0093997 0.247468)
(0.00802615 0.00926085 0.249698)
(0.00913391 0.00913393 0.252358)
(0.0102762 0.00909217 0.255483)
(0.000525907 0.0116363 0.247631)
(0.00158905 0.011488 0.247244)
(0.00264944 0.0112906 0.247217)
(0.00371119 0.0110985 0.247586)
(0.00477546 0.0109148 0.248357)
(0.00584435 0.01074 0.249532)
(0.00692016 0.0105745 0.251111)
(0.00800352 0.0104181 0.253095)
(0.00909213 0.0102762 0.255483)
(0.0102086 0.0102086 0.258303)
(0.00103787 0.00103792 0.2181)
(0.00312263 0.00102606 0.218585)
(0.00522077 0.00101087 0.219561)
(0.00733951 0.000996935 0.221035)
(0.00948954 0.00098421 0.22302)
(0.0116777 0.000972467 0.225531)
(0.0139086 0.000961493 0.228584)
(0.016184 0.000951125 0.232202)
(0.0184998 0.000942031 0.236402)
(0.0208402 0.000944669 0.2412)
(0.00102602 0.00312268 0.218584)
(0.00308757 0.00308765 0.219039)
(0.00516166 0.00304268 0.219969)
(0.00725529 0.00300159 0.221381)
(0.00937861 0.00296429 0.223288)
(0.0115383 0.00293017 0.225703)
(0.0137393 0.00289861 0.228643)
(0.0159836 0.00286918 0.232127)
(0.0182672 0.00284376 0.236173)
(0.0205767 0.00285072 0.240794)
(0.00101086 0.00522074 0.219561)
(0.00304263 0.00516169 0.219968)
(0.00508547 0.00508554 0.220838)
(0.00714646 0.00501521 0.222175)
(0.00923495 0.00495068 0.22399)
(0.0113573 0.0048911 0.226297)
(0.0135184 0.00483552 0.229111)
(0.0157207 0.00478325 0.232448)
(0.0179595 0.0047375 0.236327)
(0.0202233 0.00474622 0.240759)
(0.00099695 0.00733942 0.221035)
(0.0030016 0.00725523 0.221381)
(0.00501518 0.00714647 0.222175)
(0.00704523 0.00704528 0.223423)
(0.00910034 0.00695159 0.225135)
(0.0111865 0.00686435 0.227323)
(0.0133084 0.00678241 0.230001)
(0.0154687 0.00670484 0.233184)
(0.0176619 0.00663615 0.236887)
(0.019877 0.00664268 0.241123)
(0.000984224 0.00948944 0.22302)
(0.00296433 0.00937851 0.223288)
(0.00495071 0.00923489 0.22399)
(0.00695157 0.00910035 0.225135)
(0.00897468 0.00897473 0.226731)
(0.0110257 0.00885665 0.228788)
(0.0131093 0.00874471 0.231318)
(0.0152283 0.00863796 0.234336)
(0.0173757 0.00854236 0.237855)
(0.0195415 0.00854219 0.241887)
(0.000972477 0.0116776 0.225531)
(0.0029302 0.0115382 0.225703)
(0.00489115 0.0113572 0.226297)
(0.0068644 0.0111864 0.227323)
(0.00885663 0.0110257 0.228788)
(0.0108732 0.0108733 0.2307)
(0.0129189 0.0107272 0.233071)
(0.014997 0.0105865 0.235911)
(0.0170986 0.0104586 0.239235)
(0.0192153 0.0104462 0.243054)
(0.000961503 0.0139085 0.228584)
(0.00289864 0.0137392 0.228643)
(0.00483557 0.0135183 0.229111)
(0.00678248 0.0133083 0.230001)
(0.00874478 0.0131092 0.231318)
(0.0107272 0.0129189 0.233071)
(0.0127346 0.0127347 0.235267)
(0.014771 0.0125545 0.237917)
(0.0168265 0.0123872 0.241031)
(0.0188945 0.012354 0.244626)
(0.000951135 0.0161839 0.232202)
(0.00286921 0.0159835 0.232127)
(0.00478329 0.0157206 0.232448)
(0.0067049 0.0154686 0.233183)
(0.00863806 0.0152282 0.234336)
(0.0105865 0.0149969 0.235911)
(0.0125544 0.014771 0.237916)
(0.0145463 0.0145464 0.240359)
(0.0165525 0.0143299 0.243248)
(0.0185721 0.0142605 0.246605)
(0.000942039 0.0184997 0.236402)
(0.00284378 0.0182672 0.236173)
(0.00473754 0.0179595 0.236327)
(0.0066362 0.0176618 0.236887)
(0.00854242 0.0173756 0.237855)
(0.0104587 0.0170985 0.239235)
(0.0123872 0.0168264 0.241031)
(0.0143299 0.0165525 0.243248)
(0.016277 0.0162771 0.245892)
(0.0182463 0.0161461 0.248991)
(0.000944677 0.0208402 0.2412)
(0.00285074 0.0205767 0.240794)
(0.00474625 0.0202233 0.240759)
(0.00664271 0.019877 0.241123)
(0.00854223 0.0195415 0.241887)
(0.0104462 0.0192152 0.243054)
(0.012354 0.0188944 0.244626)
(0.0142605 0.018572 0.246605)
(0.0161461 0.0182463 0.248991)
(0.0180288 0.0180288 0.251814)
(0.00147496 0.00147504 0.208821)
(0.00443907 0.00145893 0.209273)
(0.00742806 0.00143877 0.210183)
(0.010457 0.00142119 0.211562)
(0.0135454 0.00140608 0.213425)
(0.0167075 0.0013931 0.215792)
(0.0199539 0.00138191 0.218691)
(0.0232895 0.00137215 0.222151)
(0.0267085 0.00136453 0.226209)
(0.0301844 0.00137391 0.230903)
(0.00145885 0.00443917 0.209273)
(0.00439136 0.00439151 0.209696)
(0.00734727 0.00433178 0.210564)
(0.0103411 0.00427972 0.211886)
(0.0133913 0.0042352 0.213676)
(0.0165118 0.00419727 0.215954)
(0.019713 0.0041649 0.218744)
(0.0230004 0.00413709 0.222075)
(0.0263684 0.00411584 0.225981)
(0.0297938 0.00414137 0.230495)
(0.00143875 0.007428 0.210183)
(0.00433169 0.00734731 0.210564)
(0.00724549 0.00724561 0.211377)
(0.0101947 0.00715553 0.21263)
(0.0131963 0.007077 0.214337)
(0.0162634 0.00700873 0.216516)
(0.0194062 0.00694911 0.21919)
(0.0226303 0.00689655 0.222384)
(0.0259289 0.00685467 0.22613)
(0.0292819 0.00689169 0.230459)
(0.00142122 0.0104568 0.211562)
(0.00427975 0.010341 0.211886)
(0.00715548 0.0101947 0.21263)
(0.0100636 0.0100637 0.213803)
(0.0130198 0.00994761 0.215418)
(0.0160362 0.00984495 0.21749)
(0.0191225 0.00975369 0.22004)
(0.0222842 0.00967179 0.223093)
(0.0255127 0.00960447 0.226676)
(0.0287893 0.00964638 0.230818)
(0.0014061 0.0135452 0.213425)
(0.00423528 0.0133911 0.213676)
(0.00707707 0.0131962 0.214337)
(0.00994759 0.0130198 0.215418)
(0.0128613 0.0128613 0.216929)
(0.0158294 0.0127187 0.218884)
(0.0188614 0.0125894 0.221303)
(0.0219624 0.0124713 0.224207)
(0.0251211 0.0123716 0.227621)
(0.0283207 0.0124107 0.231574)
(0.00139313 0.0167073 0.215792)
(0.00419734 0.0165116 0.215954)
(0.00700884 0.0162632 0.216516)
(0.00984505 0.016036 0.21749)
(0.0127187 0.0158295 0.218884)
(0.0156403 0.0156405 0.220712)
(0.0186192 0.0154659 0.222989)
(0.0216607 0.0153032 0.225735)
(0.0247503 0.0151619 0.228974)
(0.0278735 0.0151888 0.232732)
(0.00138194 0.0199537 0.218691)
(0.00416496 0.0197128 0.218744)
(0.00694922 0.019406 0.21919)
(0.00975385 0.0191223 0.22004)
(0.0125895 0.0188612 0.221303)
(0.0154658 0.0186193 0.222989)
(0.0183916 0.0183918 0.225112)
(0.021373 0.018175 0.227691)
(0.0243936 0.0179799 0.230744)
(0.027442 0.0179808 0.2343)
(0.00137217 0.0232893 0.222151)
(0.00413715 0.0230003 0.222075)
(0.00689665 0.0226301 0.222384)
(0.00967194 0.022284 0.223093)
(0.0124715 0.0219622 0.224207)
(0.0153033 0.0216605 0.225735)
(0.0181749 0.021373 0.227691)
(0.0210926 0.0210928 0.230087)
(0.0240402 0.020828 0.232943)
(0.027015 0.0207785 0.236287)
(0.00136455 0.0267083 0.226209)
(0.0041159 0.0263682 0.225981)
(0.00685476 0.0259287 0.22613)
(0.00960458 0.0255125 0.226676)
(0.0123717 0.0251209 0.227621)
(0.015162 0.02475 0.228974)
(0.0179799 0.0243933 0.230744)
(0.0208279 0.0240401 0.232943)
(0.023689 0.0236891 0.235584)
(0.0265888 0.0235514 0.238701)
(0.00137393 0.0301843 0.230902)
(0.00414141 0.0297937 0.230495)
(0.00689176 0.0292818 0.230459)
(0.00964647 0.0287891 0.230818)
(0.0124108 0.0283205 0.231573)
(0.0151889 0.0278733 0.232732)
(0.0179808 0.0274418 0.2343)
(0.0207786 0.0270149 0.236287)
(0.0235514 0.0265887 0.238701)
(0.0263216 0.0263216 0.241577)
(0.00186983 0.00186995 0.196528)
(0.0056295 0.00185036 0.19692)
(0.00942876 0.00182655 0.197713)
(0.0132932 0.00180699 0.198919)
(0.0172547 0.00179162 0.200555)
(0.0213396 0.00178013 0.20265)
(0.0255711 0.00177218 0.205236)
(0.0299674 0.00176751 0.208359)
(0.0345348 0.0017672 0.212074)
(0.0392567 0.00179265 0.216449)
(0.00185025 0.00562963 0.19692)
(0.00557147 0.00557168 0.197289)
(0.00933005 0.00550107 0.198046)
(0.0131506 0.00544308 0.199202)
(0.0170633 0.00539769 0.200776)
(0.0210933 0.00536395 0.202792)
(0.0252633 0.00534083 0.205282)
(0.0295915 0.00532743 0.208287)
(0.0340832 0.0053265 0.211858)
(0.038726 0.00539477 0.216058)
(0.00182653 0.00942865 0.197713)
(0.00550095 0.0093301 0.198045)
(0.00920914 0.0092093 0.198756)
(0.0129756 0.0091079 0.199855)
(0.016828 0.00902602 0.201359)
(0.0207902 0.00896243 0.203291)
(0.024884 0.00891552 0.205681)
(0.0291267 0.00888371 0.208567)
(0.0335214 0.00887176 0.211996)
(0.038059 0.00897461 0.216023)
(0.00180703 0.013293 0.198919)
(0.00544313 0.0131504 0.199202)
(0.00910785 0.0129755 0.199855)
(0.0128263 0.0128264 0.200888)
(0.0166244 0.012703 0.202316)
(0.0205244 0.0126037 0.204159)
(0.0245466 0.0125266 0.206446)
(0.0287076 0.0124696 0.209211)
(0.0330067 0.0124394 0.212498)
(0.0374378 0.0125672 0.216359)
(0.00179167 0.0172544 0.200555)
(0.00539781 0.0170629 0.200776)
(0.00902614 0.0168277 0.201359)
(0.012703 0.0166244 0.202316)
(0.0164523 0.0164524 0.203658)
(0.020295 0.0163093 0.205406)
(0.0242504 0.016193 0.207585)
(0.0283339 0.0161012 0.210228)
(0.0325403 0.0160429 0.213373)
(0.0368678 0.0161849 0.217069)
(0.00178016 0.0213393 0.202649)
(0.00536406 0.0210929 0.202792)
(0.00896262 0.0207899 0.203291)
(0.0126039 0.0205241 0.204159)
(0.0163094 0.020295 0.205406)
(0.020099 0.0200992 0.207051)
(0.0239914 0.0199333 0.209116)
(0.0280011 0.019795 0.21163)
(0.0321178 0.019696 0.214632)
(0.0363462 0.0198393 0.218162)
(0.00177222 0.0255707 0.205236)
(0.00534094 0.025263 0.205281)
(0.0089157 0.0248836 0.205681)
(0.0125269 0.0245462 0.206446)
(0.0161933 0.0242502 0.207585)
(0.0199333 0.0239915 0.209116)
(0.0237648 0.023765 0.211058)
(0.0277025 0.0235668 0.213438)
(0.0317319 0.0234106 0.216289)
(0.0358668 0.0235372 0.219653)
(0.00176755 0.0299671 0.208359)
(0.00532753 0.0295912 0.208286)
(0.00888387 0.0291264 0.208567)
(0.0124699 0.0287072 0.209211)
(0.0161016 0.0283336 0.210227)
(0.0197952 0.0280008 0.21163)
(0.0235667 0.0277024 0.213438)
(0.0274304 0.0274306 0.215674)
(0.0313705 0.0271957 0.218367)
(0.0354171 0.0272748 0.221558)
(0.00176723 0.0345346 0.212074)
(0.00532659 0.0340829 0.211858)
(0.0088719 0.0335211 0.211995)
(0.0124396 0.0330063 0.212498)
(0.0160432 0.0325399 0.213373)
(0.0196962 0.0321173 0.214631)
(0.0234106 0.0317315 0.216289)
(0.0271957 0.0313703 0.218367)
(0.0310331 0.0310331 0.220891)
(0.0349947 0.0310177 0.223899)
(0.00179268 0.0392565 0.216448)
(0.00539485 0.0387257 0.216058)
(0.00897472 0.0380587 0.216023)
(0.0125673 0.0374375 0.216359)
(0.0161851 0.0368674 0.217068)
(0.0198395 0.0363458 0.218162)
(0.0235373 0.0358664 0.219653)
(0.0272749 0.0354169 0.221558)
(0.0310177 0.0349946 0.223899)
(0.0348227 0.0348227 0.226715)
(0.00219602 0.00219616 0.181641)
(0.00661397 0.00217405 0.181947)
(0.0110879 0.00214798 0.182564)
(0.0156558 0.00212801 0.183507)
(0.0203639 0.00211423 0.184794)
(0.025255 0.00210647 0.186453)
(0.0303717 0.00210471 0.188521)
(0.0357559 0.00210906 0.191049)
(0.0414415 0.00212135 0.194104)
(0.0474445 0.00217178 0.197774)
(0.00217392 0.00661412 0.181947)
(0.00654839 0.00654864 0.182234)
(0.0109759 0.00647131 0.182824)
(0.0154927 0.00641208 0.183729)
(0.0201427 0.0063713 0.184968)
(0.0249667 0.00634843 0.186565)
(0.0300059 0.00634306 0.188555)
(0.0353002 0.00635516 0.190986)
(0.0408812 0.00638904 0.19392)
(0.0467685 0.00652278 0.197435)
(0.00214795 0.0110878 0.182564)
(0.00647116 0.0109759 0.182824)
(0.0108428 0.010843 0.18338)
(0.0152987 0.0107382 0.184242)
(0.0198797 0.0106624 0.185428)
(0.0246242 0.0106149 0.186962)
(0.0295713 0.010595 0.188875)
(0.0347592 0.0106023 0.191213)
(0.0402142 0.0106437 0.194031)
(0.0459599 0.0108473 0.197403)
(0.00212807 0.0156554 0.183507)
(0.00641216 0.0154925 0.183729)
(0.0107382 0.0152987 0.184242)
(0.0151428 0.0151429 0.185056)
(0.0196642 0.0150256 0.186185)
(0.0243384 0.014946 0.187653)
(0.0292023 0.0149035 0.18949)
(0.0342918 0.0148973 0.191736)
(0.0396269 0.0149365 0.194445)
(0.0452365 0.0151972 0.197682)
(0.00211429 0.0203635 0.184794)
(0.00637146 0.0201423 0.184968)
(0.0106625 0.0198794 0.185428)
(0.0150256 0.0196641 0.186185)
(0.0194963 0.0194964 0.187252)
(0.0241091 0.0193749 0.188651)
(0.0288985 0.0192986 0.19041)
(0.0338981 0.019267 0.192566)
(0.0391206 0.0192916 0.195168)
(0.0446041 0.019596 0.198278)
(0.00210652 0.0252545 0.186453)
(0.00634858 0.0249662 0.186565)
(0.0106151 0.0246237 0.186961)
(0.0149463 0.0243381 0.187653)
(0.0193749 0.024109 0.188651)
(0.0239339 0.0239341 0.189976)
(0.0286565 0.0238113 0.191653)
(0.033574 0.0237401 0.193718)
(0.0386914 0.0237351 0.196216)
(0.0440606 0.0240677 0.199202)
(0.00210475 0.0303712 0.188521)
(0.0063432 0.0300054 0.188555)
(0.0105952 0.0295708 0.188875)
(0.0149039 0.0292019 0.189489)
(0.019299 0.0288982 0.190409)
(0.0238113 0.0286565 0.191653)
(0.0284729 0.0284732 0.193244)
(0.0333144 0.0283461 0.195215)
(0.0383334 0.0282919 0.197607)
(0.043601 0.0286323 0.200471)
(0.0021091 0.0357554 0.191049)
(0.0063553 0.0352997 0.190986)
(0.0106025 0.0347587 0.191213)
(0.0148977 0.0342913 0.191736)
(0.0192675 0.0338976 0.192565)
(0.0237405 0.0335736 0.193717)
(0.028346 0.0333143 0.195214)
(0.0331136 0.0331137 0.197086)
(0.0380363 0.0329851 0.199369)
(0.0432152 0.033299 0.202111)
(0.00212139 0.0414411 0.194104)
(0.00638916 0.0408807 0.19392)
(0.0106439 0.0402137 0.194031)
(0.0149368 0.0396264 0.194445)
(0.019292 0.03912 0.195168)
(0.0237354 0.0386907 0.196216)
(0.0282921 0.0383328 0.197607)
(0.0329851 0.0380361 0.199369)
(0.0378027 0.0378027 0.201537)
(0.0429054 0.0380394 0.20415)
(0.00217182 0.0474442 0.197774)
(0.00652289 0.0467682 0.197435)
(0.0108475 0.0459595 0.197403)
(0.0151974 0.045236 0.197682)
(0.0195962 0.0446036 0.198278)
(0.024068 0.04406 0.199201)
(0.0286325 0.0436005 0.200471)
(0.0332992 0.0432148 0.20211)
(0.0380395 0.0429052 0.20415)
(0.042979 0.0429789 0.206632)
(0.0024267 0.00242685 0.164759)
(0.00731079 0.00240311 0.16495)
(0.0122652 0.00237582 0.165339)
(0.017339 0.00235621 0.165934)
(0.0225918 0.00234454 0.166749)
(0.0280832 0.00234095 0.167806)
(0.0338775 0.00234585 0.169134)
(0.0400449 0.00236003 0.170775)
(0.0466569 0.00238633 0.172789)
(0.0537789 0.00246471 0.175257)
(0.00240296 0.00731095 0.16495)
(0.00724028 0.00724056 0.165131)
(0.0121442 0.00715959 0.165502)
(0.0171619 0.00710144 0.166074)
(0.0223497 0.00706692 0.166858)
(0.0277644 0.00705622 0.167876)
(0.0334673 0.00707002 0.169153)
(0.0395255 0.00710983 0.17073)
(0.0460048 0.00718203 0.172661)
(0.0529738 0.00738799 0.175019)
(0.00237579 0.012265 0.165338)
(0.00715944 0.0121443 0.165502)
(0.0120044 0.0120046 0.165853)
(0.016957 0.0119007 0.166398)
(0.02207 0.0118342 0.16715)
(0.027397 0.0118056 0.168128)
(0.0329962 0.0118157 0.169358)
(0.0389309 0.0118665 0.170875)
(0.0452592 0.0119672 0.172731)
(0.0520532 0.0122816 0.174993)
(0.00235627 0.0173385 0.165933)
(0.00710152 0.0171616 0.166074)
(0.0119007 0.0169569 0.166398)
(0.016801 0.016801 0.166913)
(0.021852 0.0166953 0.167631)
(0.0271044 0.0166404 0.168568)
(0.0326131 0.0166377 0.169751)
(0.0384376 0.0166892 0.171213)
(0.0446269 0.0168067 0.173)
(0.0512609 0.0172138 0.175174)
(0.00234461 0.0225913 0.166749)
(0.0070671 0.0223492 0.166858)
(0.0118344 0.0220696 0.16715)
(0.0166953 0.0218519 0.16763)
(0.0216968 0.0216968 0.168311)
(0.0268871 0.0216047 0.169207)
(0.0323182 0.0215769 0.170343)
(0.0380459 0.0216159 0.171751)
(0.0441089 0.0217362 0.173473)
(0.0506026 0.0222209 0.175568)
(0.00234101 0.0280826 0.167806)
(0.0070564 0.0277638 0.167875)
(0.0118059 0.0273964 0.168128)
(0.0166407 0.027104 0.168568)
(0.0216048 0.026887 0.169207)
(0.0267446 0.0267447 0.17006)
(0.0321099 0.0266777 0.171149)
(0.0377534 0.026689 0.172503)
(0.0437028 0.0267959 0.174164)
(0.0500772 0.027342 0.176184)
(0.0023459 0.0338769 0.169134)
(0.00707019 0.0334667 0.169153)
(0.011816 0.0329956 0.169358)
(0.0166381 0.0326125 0.169751)
(0.0215773 0.0323178 0.170343)
(0.0266778 0.0321099 0.171148)
(0.0319878 0.0319881 0.172188)
(0.037558 0.0319539 0.173489)
(0.0434059 0.032027 0.175091)
(0.0496828 0.0326137 0.17704)
(0.00236008 0.0400443 0.170775)
(0.00710998 0.0395249 0.17073)
(0.0118667 0.0389303 0.170875)
(0.0166896 0.038437 0.171213)
(0.0216164 0.0380452 0.17175)
(0.0266894 0.0377529 0.172503)
(0.0319538 0.0375578 0.173489)
(0.0374582 0.0374583 0.174735)
(0.0432126 0.0374711 0.176277)
(0.0494144 0.0380649 0.178157)
(0.00238637 0.0466563 0.172789)
(0.00718217 0.0460042 0.172661)
(0.0119674 0.0452586 0.172731)
(0.016807 0.0446263 0.173)
(0.0217366 0.0441082 0.173473)
(0.0267964 0.043702 0.174164)
(0.0320272 0.0434052 0.175091)
(0.0374712 0.0432123 0.176277)
(0.04313 0.0431299 0.177758)
(0.0492817 0.0436825 0.179567)
(0.00246475 0.0537784 0.175257)
(0.00738811 0.0529734 0.175019)
(0.0122818 0.0520527 0.174993)
(0.0172141 0.0512604 0.175174)
(0.0222212 0.050602 0.175567)
(0.0273423 0.0500765 0.176184)
(0.032614 0.0496822 0.177039)
(0.0380651 0.0494139 0.178157)
(0.0436826 0.0492815 0.179567)
(0.0496859 0.0496858 0.181306)
(0.00254057 0.00254073 0.146637)
(0.00765452 0.00251603 0.146698)
(0.0128461 0.00248792 0.146821)
(0.0181701 0.00246821 0.14701)
(0.023694 0.00245734 0.147269)
(0.029488 0.0024557 0.147603)
(0.0356317 0.00246413 0.148022)
(0.0422173 0.00248407 0.148542)
(0.0493483 0.00251921 0.149188)
(0.0571362 0.00261752 0.15)
(0.00251588 0.00765468 0.146698)
(0.00758113 0.00758141 0.146756)
(0.0127199 0.00749803 0.146874)
(0.017985 0.00743967 0.147055)
(0.0234401 0.00740758 0.147303)
(0.029152 0.00740264 0.147623)
(0.0351964 0.00742655 0.148025)
(0.0416609 0.00748239 0.148523)
(0.048641 0.00757831 0.14914)
(0.0562504 0.00783427 0.149911)
(0.00248789 0.0128459 0.146821)
(0.00749788 0.01272 0.146874)
(0.0125758 0.0125759 0.146985)
(0.0177736 0.0124715 0.147157)
(0.023151 0.0124088 0.147394)
(0.0287712 0.0123894 0.1477)
(0.034706 0.0124157 0.148086)
(0.0410381 0.0124918 0.148564)
(0.0478529 0.0126291 0.149156)
(0.0552674 0.0130191 0.149895)
(0.00246828 0.0181697 0.14701)
(0.00743975 0.0179847 0.147055)
(0.0124715 0.0177735 0.147157)
(0.0176164 0.0176165 0.147318)
(0.022931 0.0175158 0.147542)
(0.0284749 0.0174735 0.147835)
(0.0343163 0.0174928 0.148204)
(0.040533 0.0175785 0.148663)
(0.0471993 0.0177446 0.149233)
(0.0544424 0.0182514 0.149943)
(0.00245741 0.0236934 0.147269)
(0.00740776 0.0234396 0.147303)
(0.012409 0.0231506 0.147393)
(0.0175159 0.0229308 0.147542)
(0.0227819 0.0227819 0.147753)
(0.0282644 0.0227056 0.14803)
(0.034028 0.0227057 0.148383)
(0.0401461 0.0227877 0.148824)
(0.0466808 0.0229683 0.149373)
(0.0537803 0.0235764 0.150057)
(0.00245576 0.0294874 0.147603)
(0.00740282 0.0291514 0.147623)
(0.0123897 0.0287707 0.1477)
(0.0174738 0.0284745 0.147834)
(0.0227057 0.0282643 0.14803)
(0.028141 0.0281411 0.148292)
(0.0338416 0.028108 0.148628)
(0.0398771 0.0281714 0.149051)
(0.0462968 0.0283508 0.14958)
(0.0532813 0.0290447 0.150241)
(0.00246418 0.0356311 0.148022)
(0.00742672 0.0351958 0.148025)
(0.012416 0.0347054 0.148086)
(0.0174932 0.0343157 0.148204)
(0.0227061 0.0340277 0.148382)
(0.0281081 0.0338416 0.148627)
(0.0337594 0.0337597 0.148947)
(0.0397268 0.0337873 0.149354)
(0.0460477 0.0339459 0.149864)
(0.0529468 0.0347067 0.150503)
(0.00248412 0.0422167 0.148542)
(0.00748254 0.0416603 0.148523)
(0.012492 0.0410375 0.148564)
(0.0175789 0.0405324 0.148663)
(0.0227883 0.0401455 0.148823)
(0.0281718 0.0398766 0.14905)
(0.0337872 0.0397267 0.149353)
(0.0396986 0.0396987 0.149743)
(0.0459335 0.039812 0.150236)
(0.0527773 0.0406102 0.150855)
(0.00251926 0.0493477 0.149188)
(0.00757844 0.0486404 0.14914)
(0.0126294 0.0478523 0.149156)
(0.0177449 0.0471987 0.149233)
(0.0229687 0.0466801 0.149373)
(0.0283512 0.046296 0.14958)
(0.0339461 0.046047 0.149864)
(0.039812 0.0459333 0.150236)
(0.0459657 0.0459656 0.150714)
(0.05279 0.0467605 0.151312)
(0.00261756 0.0571357 0.15)
(0.00783438 0.0562499 0.149911)
(0.0130193 0.0552669 0.149895)
(0.0182516 0.0544418 0.149943)
(0.0235767 0.0537797 0.150057)
(0.029045 0.0532807 0.150241)
(0.034707 0.0529462 0.150503)
(0.0406105 0.0527769 0.150855)
(0.0467606 0.0527898 0.151312)
(0.0534615 0.0534614 0.151891)
(0.00252892 0.00252906 0.128139)
(0.00761784 0.00250387 0.128068)
(0.0127806 0.00247478 0.127924)
(0.0180697 0.00245354 0.127702)
(0.02355 0.00244063 0.127391)
(0.0292905 0.00243656 0.126978)
(0.0353712 0.0024423 0.126445)
(0.0418872 0.00245956 0.12577)
(0.0489496 0.0024922 0.124927)
(0.0566847 0.00259094 0.123888)
(0.00250374 0.00761799 0.128068)
(0.00754299 0.00754324 0.128003)
(0.0126522 0.00745701 0.127864)
(0.0178819 0.00739424 0.127649)
(0.0232932 0.00735628 0.127347)
(0.0289519 0.0073443 0.126947)
(0.034934 0.00736041 0.126432)
(0.0413295 0.0074083 0.125781)
(0.048241 0.00749639 0.12497)
(0.0557971 0.00775041 0.123972)
(0.00247475 0.0127805 0.127924)
(0.00745686 0.0126522 0.127864)
(0.0125036 0.0125038 0.127733)
(0.0176649 0.0123926 0.127525)
(0.0229982 0.0123208 0.127232)
(0.0285656 0.0122905 0.126843)
(0.0344391 0.0123045 0.126343)
(0.0407042 0.0123681 0.125713)
(0.0474529 0.0124926 0.124932)
(0.054817 0.0128771 0.123973)
(0.00245359 0.0180693 0.127702)
(0.00739429 0.0178816 0.127649)
(0.0123925 0.0176649 0.127525)
(0.0174991 0.0174992 0.127324)
(0.0227684 0.017387 0.127039)
(0.0282595 0.0173307 0.126659)
(0.0340405 0.0173342 0.126172)
(0.0401922 0.0174036 0.125559)
(0.0467956 0.0175523 0.124801)
(0.0539937 0.0180506 0.123876)
(0.00244069 0.0235495 0.127391)
(0.00735643 0.0232928 0.127347)
(0.0123209 0.0229978 0.127232)
(0.017387 0.0227684 0.127039)
(0.0226062 0.0226063 0.126762)
(0.0280353 0.0225139 0.126391)
(0.0337392 0.0224958 0.125914)
(0.0397943 0.0225588 0.125315)
(0.0462695 0.0227186 0.124577)
(0.0533314 0.0233163 0.12368)
(0.0024366 0.02929 0.126978)
(0.00734445 0.0289515 0.126947)
(0.0122907 0.0285651 0.126843)
(0.0173309 0.0282591 0.126659)
(0.0225139 0.0280352 0.12639)
(0.0278949 0.027895 0.126028)
(0.0335363 0.0278428 0.125561)
(0.0395106 0.027886 0.124975)
(0.0458745 0.0280428 0.124254)
(0.0528305 0.028726 0.12338)
(0.00244235 0.0353707 0.126445)
(0.00736055 0.0349335 0.126432)
(0.0123048 0.0344387 0.126343)
(0.0173346 0.0340401 0.126172)
(0.0224961 0.0337389 0.125913)
(0.0278428 0.0335363 0.125561)
(0.0334354 0.0334357 0.125104)
(0.0393439 0.033444 0.124531)
(0.0456127 0.0335808 0.123826)
(0.0524937 0.0343335 0.122972)
(0.00245961 0.0418867 0.12577)
(0.00740843 0.0413289 0.125781)
(0.0123683 0.0407036 0.125713)
(0.0174039 0.0401917 0.125559)
(0.0225592 0.0397938 0.125315)
(0.0278863 0.0395103 0.124975)
(0.0334439 0.0393438 0.12453)
(0.0392995 0.0392996 0.12397)
(0.0454874 0.0393956 0.123281)
(0.0523247 0.0401935 0.122447)
(0.00249224 0.0489491 0.124928)
(0.0074965 0.0482405 0.12497)
(0.0124927 0.0474524 0.124932)
(0.0175525 0.0467951 0.124802)
(0.022719 0.046269 0.124577)
(0.0280431 0.0458739 0.124254)
(0.033581 0.0456123 0.123825)
(0.0393956 0.0454872 0.123281)
(0.0455103 0.0455102 0.122609)
(0.0523426 0.0463217 0.121794)
(0.00259097 0.0566843 0.123888)
(0.00775051 0.0557967 0.123972)
(0.0128772 0.0548166 0.123973)
(0.0180508 0.0539933 0.123876)
(0.0233166 0.0533309 0.12368)
(0.0287263 0.05283 0.123381)
(0.0343337 0.0524933 0.122972)
(0.0401937 0.0523244 0.122447)
(0.0463217 0.0523425 0.121794)
(0.0530452 0.0530452 0.120995)
(0.00240045 0.00240057 0.110134)
(0.00722673 0.00237524 0.109951)
(0.0121115 0.00234486 0.109576)
(0.0170959 0.00232047 0.108997)
(0.0222311 0.00230247 0.108194)
(0.0275713 0.0022912 0.107134)
(0.0331784 0.00228744 0.105774)
(0.0391258 0.00229251 0.104059)
(0.0454983 0.00230946 0.101913)
(0.0523905 0.00238465 0.0992399)
(0.00237512 0.00722687 0.10995)
(0.00715157 0.00715179 0.109778)
(0.0119833 0.00706181 0.109418)
(0.0169099 0.00698988 0.108861)
(0.0219799 0.00693706 0.108084)
(0.0272445 0.00690418 0.10706)
(0.0327627 0.0068928 0.105749)
(0.0386042 0.00690584 0.104098)
(0.0448475 0.00694979 0.102039)
(0.0515899 0.00713896 0.0994818)
(0.00234482 0.0121114 0.109575)
(0.00706167 0.0119834 0.109418)