/*--------------------------------*- C++ -*----------------------------------*\
| =========                 |                                                 |
| \\      /  F ield         | foam-extend: Open Source CFD                    |
|  \\    /   O peration     | Version:     3.1                                |
|   \\  /    A nd           | Web:         http://www.extend-project.de       |
|    \\/     M anipulation  |                                                 |
\*---------------------------------------------------------------------------*/
FoamFile
{
    version     2.0;
    format      ascii;
    class       volScalarField::DimensionedInternalField;
    location    "0.0011";
    object      V0;
}
// * * * * * * * * * * * * * * * * * * * * * * * * * * * * * * * * * * * * * //

dimensions      [0 3 0 0 0 0 0];

value           nonuniform List<scalar> 
16000
(
7.20721e-11
7.08134e-11
6.95559e-11
6.83057e-11
6.70641e-11
6.58311e-11
6.46072e-11
6.33928e-11
6.21885e-11
6.09938e-11
7.08126e-11
6.95583e-11
6.83052e-11
6.70564e-11
6.58148e-11
6.45815e-11
6.33569e-11
6.21412e-11
6.09345e-11
5.97344e-11
6.95552e-11
6.83044e-11
6.70558e-11
6.58099e-11
6.45688e-11
6.33348e-11
6.2109e-11
6.08913e-11
5.96817e-11
5.84774e-11
6.83056e-11
6.70558e-11
6.58092e-11
6.45657e-11
6.33256e-11
6.20906e-11
6.08627e-11
5.96425e-11
5.84297e-11
5.72218e-11
6.70642e-11
6.58148e-11
6.45683e-11
6.33249e-11
6.20853e-11
6.08497e-11
5.96194e-11
5.83957e-11
5.71794e-11
5.59682e-11
6.58313e-11
6.45817e-11
6.33348e-11
6.20901e-11
6.08491e-11
5.96126e-11
5.83803e-11
5.71527e-11
5.59317e-11
5.47168e-11
6.46074e-11
6.3357e-11
6.21092e-11
6.08627e-11
5.96188e-11
5.83791e-11
5.71445e-11
5.59133e-11
5.46864e-11
5.34668e-11
6.33931e-11
6.21414e-11
6.08915e-11
5.96426e-11
5.83955e-11
5.71515e-11
5.5912e-11
5.46756e-11
5.34421e-11
5.22164e-11
6.21887e-11
6.09347e-11
5.96819e-11
5.84299e-11
5.71795e-11
5.59313e-11
5.46857e-11
5.34416e-11
5.2199e-11
5.09625e-11
6.0994e-11
5.97346e-11
5.84775e-11
5.72219e-11
5.59683e-11
5.47168e-11
5.34667e-11
5.22162e-11
5.09621e-11
4.97088e-11
7.27903e-11
7.15046e-11
7.02086e-11
6.89204e-11
6.76429e-11
6.63745e-11
6.51143e-11
6.38609e-11
6.26122e-11
6.13633e-11
7.15023e-11
7.02305e-11
6.89484e-11
6.76658e-11
6.63901e-11
6.5123e-11
6.38636e-11
6.261e-11
6.13596e-11
6.01029e-11
7.02067e-11
6.89461e-11
6.7679e-11
6.64069e-11
6.5135e-11
6.3869e-11
6.26099e-11
6.1355e-11
6.01022e-11
5.8842e-11
6.89202e-11
6.76642e-11
6.64049e-11
6.51422e-11
6.38763e-11
6.26109e-11
6.135e-11
6.00928e-11
5.88372e-11
5.7575e-11
6.76432e-11
6.63901e-11
6.51336e-11
6.38744e-11
6.26135e-11
6.13505e-11
6.00869e-11
5.8825e-11
5.75655e-11
5.63018e-11
6.6375e-11
6.51234e-11
6.38689e-11
6.26096e-11
6.13486e-11
6.00874e-11
5.88232e-11
5.75555e-11
5.62883e-11
5.50219e-11
6.51149e-11
6.38641e-11
6.26103e-11
6.135e-11
6.00852e-11
5.882e-11
5.75544e-11
5.62824e-11
5.50049e-11
5.37331e-11
6.38616e-11
6.26107e-11
6.13555e-11
6.00932e-11
5.88247e-11
5.75524e-11
5.62789e-11
5.4999e-11
5.37107e-11
5.24314e-11
6.26129e-11
6.13603e-11
6.01028e-11
5.88377e-11
5.75659e-11
5.62876e-11
5.50032e-11
5.37096e-11
5.24059e-11
5.11092e-11
6.13639e-11
6.01035e-11
5.88425e-11
5.75754e-11
5.63022e-11
5.50222e-11
5.37334e-11
5.2431e-11
5.11082e-11
4.97822e-11
7.33873e-11
7.20769e-11
7.07447e-11
6.94195e-11
6.81059e-11
6.68015e-11
6.55042e-11
6.42118e-11
6.2921e-11
6.16244e-11
7.20732e-11
7.07852e-11
6.94753e-11
6.81597e-11
6.68499e-11
6.55484e-11
6.42536e-11
6.29625e-11
6.16709e-11
6.03644e-11
7.07416e-11
6.94718e-11
6.81866e-11
6.68885e-11
6.55857e-11
6.42874e-11
6.29947e-11
6.17034e-11
6.04104e-11
5.91014e-11
6.94192e-11
6.81572e-11
6.68853e-11
6.56033e-11
6.43116e-11
6.30158e-11
6.17222e-11
6.04296e-11
5.91348e-11
5.78257e-11
6.81065e-11
6.68499e-11
6.55836e-11
6.43086e-11
6.30264e-11
6.17365e-11
6.04409e-11
5.91434e-11
5.78452e-11
5.65369e-11
6.68022e-11
6.55492e-11
6.42873e-11
6.30138e-11
6.17335e-11
6.04486e-11
5.91546e-11
5.78506e-11
5.65435e-11
5.52341e-11
6.55052e-11
6.42545e-11
6.29954e-11
6.17222e-11
6.04383e-11
5.91495e-11
5.78562e-11
5.65484e-11
5.52282e-11
5.39138e-11
6.42129e-11
6.29635e-11
6.17043e-11
6.04303e-11
5.9143e-11
5.78457e-11
5.6543e-11
5.5226e-11
5.38925e-11
5.25702e-11
6.29222e-11
6.1672e-11
6.04114e-11
5.91356e-11
5.7846e-11
5.65425e-11
5.52257e-11
5.38907e-11
5.25367e-11
5.11903e-11
6.16255e-11
6.03654e-11
5.91022e-11
5.78264e-11
5.65376e-11
5.52347e-11
5.39144e-11
5.25696e-11
5.11888e-11
4.97999e-11
7.38355e-11
7.25049e-11
7.11426e-11
6.97864e-11
6.84424e-11
6.71081e-11
6.57814e-11
6.446e-11
6.31412e-11
6.18172e-11
7.25002e-11
7.11987e-11
6.98657e-11
6.85223e-11
6.71838e-11
6.5854e-11
6.45312e-11
6.32124e-11
6.18935e-11
6.05576e-11
7.11387e-11
6.98611e-11
6.85606e-11
6.72405e-11
6.59121e-11
6.45874e-11
6.32685e-11
6.19509e-11
6.06315e-11
5.92935e-11
6.97861e-11
6.85192e-11
6.72365e-11
6.59383e-11
6.46252e-11
6.33052e-11
6.19866e-11
6.06689e-11
5.9349e-11
5.80123e-11
6.84433e-11
6.71839e-11
6.59094e-11
6.46215e-11
6.33222e-11
6.20113e-11
6.0692e-11
5.93698e-11
5.80476e-11
5.67137e-11
6.71092e-11
6.5855e-11
6.45874e-11
6.33027e-11
6.20074e-11
6.07048e-11
5.93897e-11
5.80614e-11
5.67298e-11
5.53966e-11
6.57827e-11
6.45324e-11
6.32695e-11
6.19868e-11
6.06886e-11
5.93831e-11
5.8071e-11
5.67402e-11
5.53942e-11
5.40568e-11
6.44615e-11
6.32138e-11
6.19521e-11
6.06699e-11
5.93694e-11
5.80551e-11
5.67332e-11
5.53929e-11
5.40322e-11
5.26867e-11
6.31428e-11
6.1895e-11
6.06328e-11
5.93501e-11
5.80486e-11
5.67287e-11
5.53911e-11
5.403e-11
5.26449e-11
5.12693e-11
6.18186e-11
6.0559e-11
5.92946e-11
5.80134e-11
5.67147e-11
5.53976e-11
5.40578e-11
5.26861e-11
5.12673e-11
4.98367e-11
7.41209e-11
7.2776e-11
7.13921e-11
7.00131e-11
6.86466e-11
6.72904e-11
6.59428e-11
6.46023e-11
6.32668e-11
6.19285e-11
7.27706e-11
7.14594e-11
7.01094e-11
6.87455e-11
6.73858e-11
6.60353e-11
6.46927e-11
6.33556e-11
6.20205e-11
6.06692e-11
7.13876e-11
7.01042e-11
6.8792e-11
6.74556e-11
6.61083e-11
6.47644e-11
6.34272e-11
6.20924e-11
6.07575e-11
5.94045e-11
7.00128e-11
6.8742e-11
6.74511e-11
6.61405e-11
6.48119e-11
6.34746e-11
6.2139e-11
6.08052e-11
5.94709e-11
5.81204e-11
6.86478e-11
6.7386e-11
6.61052e-11
6.48076e-11
6.3496e-11
6.21706e-11
6.08356e-11
5.94982e-11
5.81626e-11
5.68164e-11
6.72917e-11
6.60365e-11
6.47644e-11
6.34718e-11
6.21662e-11
6.08518e-11
5.95232e-11
5.81805e-11
5.68358e-11
5.54917e-11
6.59444e-11
6.46941e-11
6.34284e-11
6.21392e-11
6.08318e-11
5.95157e-11
5.81925e-11
5.68487e-11
5.54892e-11
5.41418e-11
6.46041e-11
6.33573e-11
6.20938e-11
6.08064e-11
5.94978e-11
5.81735e-11
5.68408e-11
5.54881e-11
5.41135e-11
5.27583e-11
6.32687e-11
6.20223e-11
6.07591e-11
5.94722e-11
5.81638e-11
5.68346e-11
5.54857e-11
5.41111e-11
5.27102e-11
5.13217e-11
6.19303e-11
6.06709e-11
5.9406e-11
5.81218e-11
5.68178e-11
5.5493e-11
5.4143e-11
5.27576e-11
5.13195e-11
4.98685e-11
7.42429e-11
7.28899e-11
7.14933e-11
7.01e-11
6.87187e-11
6.73477e-11
6.59858e-11
6.46322e-11
6.32854e-11
6.19383e-11
7.28843e-11
7.15671e-11
7.02065e-11
6.88295e-11
6.74558e-11
6.6091e-11
6.47347e-11
6.3385e-11
6.2039e-11
6.06792e-11
7.14886e-11
7.0201e-11
6.8881e-11
6.75335e-11
6.61735e-11
6.48166e-11
6.34666e-11
6.212e-11
6.07751e-11
5.94142e-11
7.00997e-11
6.88258e-11
6.75288e-11
6.62096e-11
6.48702e-11
6.35212e-11
6.21742e-11
6.08297e-11
5.94862e-11
5.8129e-11
6.872e-11
6.7456e-11
6.61704e-11
6.48658e-11
6.35455e-11
6.22104e-11
6.08652e-11
5.95183e-11
5.81745e-11
5.68232e-11
6.73492e-11
6.60924e-11
6.48167e-11
6.35184e-11
6.22057e-11
6.08836e-11
5.95466e-11
5.81957e-11
5.68438e-11
5.5496e-11
6.59876e-11
6.47363e-11
6.3468e-11
6.21744e-11
6.08613e-11
5.95389e-11
5.82091e-11
5.68587e-11
5.54931e-11
5.41434e-11
6.46342e-11
6.33869e-11
6.21217e-11
6.0831e-11
5.95179e-11
5.81884e-11
5.68505e-11
5.54927e-11
5.41135e-11
5.27573e-11
6.32875e-11
6.2041e-11
6.07768e-11
5.94877e-11
5.81759e-11
5.68426e-11
5.54895e-11
5.4111e-11
5.27069e-11
5.13188e-11
6.19402e-11
6.0681e-11
5.94159e-11
5.81306e-11
5.68246e-11
5.54974e-11
5.41447e-11
5.27566e-11
5.13166e-11
4.98662e-11
7.42148e-11
7.28597e-11
7.14587e-11
7.00589e-11
6.86696e-11
6.72894e-11
6.59179e-11
6.45548e-11
6.31995e-11
6.18454e-11
7.28541e-11
7.15344e-11
7.01693e-11
6.87859e-11
6.74042e-11
6.60305e-11
6.46647e-11
6.33057e-11
6.19515e-11
6.05864e-11
7.14541e-11
7.01639e-11
6.88392e-11
6.74856e-11
6.61182e-11
6.47529e-11
6.3394e-11
6.20388e-11
6.06863e-11
5.93216e-11
7.00587e-11
6.87822e-11
6.74809e-11
6.6156e-11
6.48099e-11
6.34536e-11
6.20987e-11
6.07466e-11
5.93966e-11
5.80368e-11
6.86709e-11
6.74045e-11
6.61151e-11
6.48056e-11
6.34795e-11
6.2138e-11
6.07865e-11
5.94334e-11
5.80844e-11
5.67319e-11
6.72909e-11
6.60319e-11
6.4753e-11
6.34507e-11
6.21335e-11
6.08063e-11
5.94643e-11
5.81089e-11
5.67536e-11
5.54066e-11
6.59197e-11
6.46663e-11
6.33954e-11
6.20989e-11
6.07827e-11
5.94569e-11
5.81235e-11
5.67707e-11
5.54042e-11
5.40576e-11
6.45568e-11
6.33076e-11
6.20404e-11
6.0748e-11
5.94332e-11
5.81021e-11
5.67629e-11
5.54056e-11
5.40288e-11
5.26784e-11
6.32016e-11
6.19535e-11
6.06881e-11
5.93981e-11
5.80857e-11
5.67525e-11
5.54008e-11
5.40263e-11
5.26293e-11
5.12532e-11
6.18473e-11
6.05882e-11
5.93233e-11
5.80384e-11
5.67333e-11
5.54079e-11
5.40587e-11
5.26777e-11
5.12511e-11
4.98199e-11
7.40633e-11
7.2711e-11
7.13129e-11
6.99135e-11
6.8522e-11
6.71379e-11
6.5761e-11
6.43918e-11
6.30305e-11
6.16715e-11
7.27058e-11
7.13867e-11
7.00222e-11
6.86384e-11
6.72544e-11
6.58764e-11
6.4505e-11
6.31399e-11
6.17799e-11
6.04128e-11
7.13085e-11
7.00172e-11
6.86908e-11
6.73354e-11
6.59654e-11
6.4596e-11
6.32318e-11
6.1871e-11
6.05136e-11
5.91484e-11
6.99132e-11
6.86349e-11
6.73311e-11
6.60032e-11
6.46541e-11
6.32942e-11
6.19349e-11
6.05783e-11
5.92243e-11
5.78654e-11
6.85231e-11
6.72545e-11
6.59625e-11
6.46501e-11
6.33208e-11
6.19761e-11
6.06216e-11
5.92656e-11
5.79139e-11
5.65638e-11
6.71392e-11
6.58777e-11
6.45961e-11
6.32916e-11
6.19721e-11
6.06421e-11
5.92981e-11
5.79419e-11
5.65865e-11
5.52437e-11
6.57626e-11
6.45065e-11
6.32331e-11
6.19352e-11
6.06182e-11
5.92915e-11
5.79574e-11
5.66058e-11
5.52429e-11
5.39034e-11
6.43936e-11
6.31416e-11
6.18725e-11
6.05795e-11
5.92654e-11
5.79359e-11
5.65989e-11
5.52465e-11
5.38779e-11
5.25383e-11
6.30324e-11
6.17817e-11
6.05152e-11
5.92257e-11
5.79152e-11
5.65855e-11
5.52397e-11
5.38755e-11
5.24936e-11
5.11375e-11
6.16733e-11
6.04144e-11
5.91499e-11
5.78668e-11
5.6565e-11
5.52448e-11
5.39042e-11
5.25376e-11
5.11357e-11
4.97368e-11
7.38244e-11
7.24789e-11
7.10895e-11
6.96963e-11
6.83082e-11
6.69252e-11
6.55478e-11
6.41769e-11
6.28135e-11
6.14534e-11
7.24743e-11
7.11584e-11
6.9799e-11
6.84199e-11
6.70387e-11
6.56615e-11
6.4289e-11
6.29219e-11
6.15602e-11
6.01951e-11
7.10855e-11
6.97945e-11
6.84694e-11
6.71162e-11
6.57482e-11
6.43793e-11
6.3014e-11
6.16516e-11
6.02932e-11
5.89315e-11
6.96959e-11
6.84168e-11
6.71123e-11
6.57844e-11
6.4436e-11
6.30768e-11
6.17172e-11
6.03598e-11
5.90057e-11
5.76514e-11
6.83091e-11
6.70387e-11
6.57456e-11
6.44325e-11
6.31029e-11
6.17586e-11
6.04049e-11
5.90499e-11
5.76993e-11
5.63549e-11
6.69263e-11
6.56624e-11
6.43793e-11
6.30745e-11
6.17551e-11
6.04254e-11
5.90829e-11
5.77297e-11
5.63779e-11
5.50427e-11
6.55491e-11
6.42902e-11
6.3015e-11
6.17174e-11
6.0402e-11
5.90773e-11
5.77454e-11
5.63989e-11
5.50437e-11
5.37143e-11
6.41784e-11
6.29233e-11
6.16529e-11
6.03609e-11
5.90497e-11
5.77248e-11
5.6393e-11
5.50494e-11
5.36932e-11
5.23675e-11
6.2815e-11
6.15617e-11
6.02945e-11
5.90068e-11
5.77003e-11
5.63771e-11
5.50408e-11
5.3691e-11
5.23291e-11
5.09965e-11
6.14549e-11
6.01965e-11
5.89327e-11
5.76525e-11
5.63559e-11
5.50435e-11
5.37147e-11
5.23668e-11
5.0995e-11
4.96335e-11
7.35379e-11
7.22019e-11
7.08253e-11
6.94431e-11
6.80634e-11
6.66867e-11
6.5314e-11
6.39467e-11
6.25865e-11
6.12306e-11
7.2198e-11
7.08873e-11
6.95365e-11
6.81665e-11
6.67929e-11
6.54214e-11
6.40531e-11
6.26893e-11
6.13311e-11
5.99729e-11
7.08219e-11
6.95326e-11
6.82115e-11
6.68642e-11
6.55026e-11
6.41389e-11
6.27775e-11
6.14186e-11
6.00641e-11
5.87104e-11
6.94427e-11
6.81638e-11
6.68609e-11
6.55359e-11
6.41921e-11
6.28379e-11
6.14827e-11
6.01293e-11
5.87797e-11
5.74341e-11
6.8064e-11
6.67928e-11
6.55003e-11
6.41891e-11
6.28625e-11
6.15224e-11
6.01739e-11
5.88243e-11
5.74791e-11
5.61438e-11
6.66874e-11
6.54221e-11
6.41388e-11
6.28359e-11
6.15195e-11
6.01934e-11
5.88561e-11
5.751e-11
5.6166e-11
5.48409e-11
6.53149e-11
6.4054e-11
6.27783e-11
6.14827e-11
6.01715e-11
5.88516e-11
5.75252e-11
5.61871e-11
5.48432e-11
5.35258e-11
6.39478e-11
6.26903e-11
6.14195e-11
6.01301e-11
5.88241e-11
5.75062e-11
5.61825e-11
5.48502e-11
5.35092e-11
5.21982e-11
6.25876e-11
6.13322e-11
6.00651e-11
5.87805e-11
5.74799e-11
5.61654e-11
5.48407e-11
5.35073e-11
5.21667e-11
5.08565e-11
6.12317e-11
5.99739e-11
5.87113e-11
5.74348e-11
5.61445e-11
5.48413e-11
5.35258e-11
5.21975e-11
5.08554e-11
4.95284e-11
7.32403e-11
7.19153e-11
7.05541e-11
6.91862e-11
6.78188e-11
6.6453e-11
6.50901e-11
6.37318e-11
6.23803e-11
6.10339e-11
7.1912e-11
7.06079e-11
6.92682e-11
6.79106e-11
6.65486e-11
6.51873e-11
6.38282e-11
6.24731e-11
6.11237e-11
5.97769e-11
7.05513e-11
6.9265e-11
6.79501e-11
6.66117e-11
6.52603e-11
6.39062e-11
6.25535e-11
6.12032e-11
5.98577e-11
5.85159e-11
6.91857e-11
6.79083e-11
6.6609e-11
6.52899e-11
6.3954e-11
6.26088e-11
6.12624e-11
5.99179e-11
5.85774e-11
5.72436e-11
6.78191e-11
6.65484e-11
6.52584e-11
6.39516e-11
6.26311e-11
6.12987e-11
5.99593e-11
5.86193e-11
5.72838e-11
5.59601e-11
6.64534e-11
6.51877e-11
6.3906e-11
6.26072e-11
6.12964e-11
5.9977e-11
5.86483e-11
5.7313e-11
5.59802e-11
5.46666e-11
6.50906e-11
6.38288e-11
6.2554e-11
6.12623e-11
5.99573e-11
5.86449e-11
5.73268e-11
5.59999e-11
5.46696e-11
5.33644e-11
6.37325e-11
6.24738e-11
6.12038e-11
5.99184e-11
5.86191e-11
5.731e-11
5.59964e-11
5.46769e-11
5.33519e-11
5.20544e-11
6.2381e-11
6.11243e-11
5.98583e-11
5.85779e-11
5.72843e-11
5.59797e-11
5.46675e-11
5.33503e-11
5.20294e-11
5.07372e-11
6.10345e-11
5.97775e-11
5.85164e-11
5.7244e-11
5.59604e-11
5.46668e-11
5.33642e-11
5.20537e-11
5.07364e-11
4.94356e-11
7.29596e-11
7.16459e-11
7.0301e-11
6.89492e-11
6.75968e-11
6.62451e-11
6.48957e-11
6.35506e-11
6.2212e-11
6.0879e-11
7.16432e-11
7.03464e-11
6.9019e-11
6.76758e-11
6.63279e-11
6.49801e-11
6.36341e-11
6.22918e-11
6.09552e-11
5.96228e-11
7.02987e-11
6.90164e-11
6.77093e-11
6.6382e-11
6.50432e-11
6.37019e-11
6.23616e-11
6.10238e-11
5.9691e-11
5.83634e-11
6.89487e-11
6.76738e-11
6.63798e-11
6.50686e-11
6.37431e-11
6.24099e-11
6.10756e-11
5.97433e-11
5.84153e-11
5.70951e-11
6.75969e-11
6.63276e-11
6.50416e-11
6.37412e-11
6.24291e-11
6.11071e-11
5.97796e-11
5.84521e-11
5.71291e-11
5.5818e-11
6.62453e-11
6.49803e-11
6.37016e-11
6.24085e-11
6.11053e-11
5.97949e-11
5.84771e-11
5.71547e-11
5.58351e-11
5.45333e-11
6.4896e-11
6.36344e-11
6.23618e-11
6.10754e-11
5.9778e-11
5.84745e-11
5.71665e-11
5.58522e-11
5.45363e-11
5.32424e-11
6.3551e-11
6.22921e-11
6.10241e-11
5.97436e-11
5.84519e-11
5.71524e-11
5.58495e-11
5.45429e-11
5.3233e-11
5.19467e-11
6.22124e-11
6.09555e-11
5.96913e-11
5.84156e-11
5.71294e-11
5.58347e-11
5.45346e-11
5.32317e-11
5.19272e-11
5.06474e-11
6.08793e-11
5.96232e-11
5.83637e-11
5.70953e-11
5.58181e-11
5.45333e-11
5.32421e-11
5.1946e-11
5.06468e-11
4.93624e-11
7.27126e-11
7.14097e-11
7.00807e-11
6.87452e-11
6.74086e-11
6.60726e-11
6.47387e-11
6.34088e-11
6.20851e-11
6.0767e-11
7.14076e-11
7.01182e-11
6.88031e-11
6.74746e-11
6.61419e-11
6.48092e-11
6.34781e-11
6.21507e-11
6.08288e-11
5.95117e-11
7.00788e-11
6.8801e-11
6.75024e-11
6.61869e-11
6.48619e-11
6.35347e-11
6.22087e-11
6.08852e-11
5.95667e-11
5.82538e-11
6.87447e-11
6.7473e-11
6.61851e-11
6.48829e-11
6.35691e-11
6.2249e-11
6.09283e-11
5.96098e-11
5.82957e-11
5.6989e-11
6.74086e-11
6.61416e-11
6.48606e-11
6.35676e-11
6.22649e-11
6.09546e-11
5.964e-11
5.83261e-11
5.70165e-11
5.57174e-11
6.60727e-11
6.48092e-11
6.35344e-11
6.22479e-11
6.09531e-11
5.96526e-11
5.83466e-11
5.70374e-11
5.57313e-11
5.44402e-11
6.47388e-11
6.34782e-11
6.22088e-11
6.09281e-11
5.96388e-11
5.83446e-11
5.70471e-11
5.57451e-11
5.44427e-11
5.31584e-11
6.3409e-11
6.21508e-11
6.08854e-11
5.961e-11
5.83259e-11
5.70357e-11
5.57431e-11
5.4448e-11
5.31511e-11
5.18732e-11
6.20852e-11
6.08289e-11
5.95669e-11
5.82958e-11
5.70167e-11
5.5731e-11
5.44414e-11
5.31501e-11
5.18581e-11
5.05856e-11
6.07671e-11
5.95118e-11
5.82539e-11
5.6989e-11
5.57174e-11
5.44401e-11
5.31581e-11
5.18726e-11
5.05851e-11
4.93091e-11
7.2506e-11
7.12127e-11
6.9898e-11
6.85777e-11
6.72565e-11
6.59358e-11
6.46172e-11
6.33024e-11
6.19932e-11
6.06893e-11
7.1211e-11
6.99284e-11
6.86249e-11
6.73103e-11
6.59923e-11
6.46744e-11
6.33582e-11
6.20455e-11
6.07379e-11
5.94348e-11
6.98965e-11
6.86232e-11
6.73329e-11
6.60289e-11
6.47172e-11
6.3404e-11
6.2092e-11
6.07827e-11
5.9478e-11
5.81783e-11
6.85773e-11
6.7309e-11
6.60275e-11
6.47343e-11
6.34318e-11
6.21246e-11
6.08172e-11
5.95121e-11
5.82111e-11
5.69164e-11
6.72565e-11
6.5992e-11
6.47162e-11
6.34306e-11
6.21374e-11
6.08383e-11
5.95361e-11
5.8235e-11
5.69378e-11
5.56493e-11
6.59358e-11
6.46744e-11
6.34037e-11
6.21236e-11
6.08371e-11
5.95462e-11
5.82512e-11
5.69542e-11
5.56601e-11
5.43778e-11
6.46172e-11
6.33582e-11
6.2092e-11
6.0817e-11
5.95351e-11
5.82496e-11
5.69617e-11
5.56707e-11
5.43797e-11
5.31028e-11
6.33024e-11
6.20455e-11
6.07827e-11
5.95122e-11
5.82348e-11
5.69528e-11
5.56691e-11
5.43836e-11
5.3097e-11
5.18249e-11
6.19932e-11
6.07379e-11
5.9478e-11
5.82111e-11
5.69379e-11
5.56597e-11
5.43786e-11
5.30962e-11
5.18131e-11
5.05446e-11
6.06894e-11
5.94348e-11
5.81783e-11
5.69163e-11
5.56492e-11
5.43777e-11
5.31025e-11
5.18245e-11
5.05442e-11
4.92719e-11
7.23385e-11
7.10533e-11
6.97509e-11
6.8444e-11
6.71364e-11
6.58294e-11
6.45244e-11
6.32229e-11
6.19263e-11
6.06344e-11
7.1052e-11
6.97754e-11
6.84819e-11
6.71796e-11
6.58746e-11
6.45699e-11
6.3267e-11
6.19672e-11
6.06719e-11
5.93805e-11
6.97497e-11
6.84806e-11
6.71977e-11
6.59039e-11
6.46042e-11
6.33033e-11
6.20039e-11
6.07069e-11
5.94139e-11
5.81251e-11
6.84437e-11
6.71786e-11
6.59028e-11
6.46178e-11
6.33255e-11
6.20296e-11
6.07339e-11
5.94404e-11
5.81504e-11
5.68654e-11
6.71363e-11
6.58744e-11
6.46033e-11
6.33245e-11
6.20398e-11
6.07505e-11
5.94591e-11
5.81688e-11
5.68819e-11
5.56017e-11
6.58293e-11
6.45699e-11
6.33031e-11
6.20288e-11
6.07495e-11
5.94669e-11
5.81813e-11
5.68944e-11
5.56099e-11
5.43345e-11
6.45244e-11
6.3267e-11
6.20039e-11
6.07337e-11
5.94583e-11
5.818e-11
5.69001e-11
5.56179e-11
5.43358e-11
5.30644e-11
6.32229e-11
6.19672e-11
6.07069e-11
5.94404e-11
5.81686e-11
5.68932e-11
5.56166e-11
5.43386e-11
5.30596e-11
5.17916e-11
6.19263e-11
6.06719e-11
5.94139e-11
5.81504e-11
5.6882e-11
5.56096e-11
5.43349e-11
5.30589e-11
5.17822e-11
5.0516e-11
6.06343e-11
5.93805e-11
5.8125e-11
5.68653e-11
5.56016e-11
5.43344e-11
5.30642e-11
5.17912e-11
5.05157e-11
4.92451e-11
7.22046e-11
7.09261e-11
6.96338e-11
6.83379e-11
6.70416e-11
6.5746e-11
6.44523e-11
6.31615e-11
6.18749e-11
6.05921e-11
7.0925e-11
6.96534e-11
6.83683e-11
6.70762e-11
6.5782e-11
6.44884e-11
6.31963e-11
6.1907e-11
6.06214e-11
5.93388e-11
6.96328e-11
6.83672e-11
6.70907e-11
6.58054e-11
6.45155e-11
6.3225e-11
6.19357e-11
6.06486e-11
5.93649e-11
5.80842e-11
6.83376e-11
6.70754e-11
6.58045e-11
6.45264e-11
6.32425e-11
6.19559e-11
6.06697e-11
5.93854e-11
5.81039e-11
5.68262e-11
6.70416e-11
6.57819e-11
6.45149e-11
6.32418e-11
6.1964e-11
6.06827e-11
5.93999e-11
5.8118e-11
5.68391e-11
5.5565e-11
6.5746e-11
6.44884e-11
6.32248e-11
6.19553e-11
6.06819e-11
5.9406e-11
5.81278e-11
5.68486e-11
5.55714e-11
5.43009e-11
6.44523e-11
6.31963e-11
6.19357e-11
6.06696e-11
5.93992e-11
5.81267e-11
5.6853e-11
5.55774e-11
5.43018e-11
5.30343e-11
6.31615e-11
6.1907e-11
6.06486e-11
5.93854e-11
5.81179e-11
5.68476e-11
5.55763e-11
5.43038e-11
5.30304e-11
5.17653e-11
6.18749e-11
6.06214e-11
5.93649e-11
5.81039e-11
5.68391e-11
5.55711e-11
5.43012e-11
5.30299e-11
5.17576e-11
5.04933e-11
6.05921e-11
5.93388e-11
5.80842e-11
5.68262e-11
5.55649e-11
5.43009e-11
5.30342e-11
5.1765e-11
5.0493e-11
4.92243e-11
7.20974e-11
7.08242e-11
6.954e-11
6.8253e-11
6.69658e-11
6.56793e-11
6.43943e-11
6.31118e-11
6.18327e-11
6.05565e-11
7.08234e-11
6.95558e-11
6.82774e-11
6.69935e-11
6.5708e-11
6.4423e-11
6.31394e-11
6.18581e-11
6.05797e-11
5.93036e-11
6.95392e-11
6.82766e-11
6.70051e-11
6.57268e-11
6.44447e-11
6.31622e-11
6.18809e-11
6.06013e-11
5.93243e-11
5.80496e-11
6.82529e-11
6.69928e-11
6.5726e-11
6.44534e-11
6.31762e-11
6.18969e-11
6.06179e-11
5.93405e-11
5.80653e-11
5.67929e-11
6.69658e-11
6.57079e-11
6.44442e-11
6.31756e-11
6.19033e-11
6.06282e-11
5.93519e-11
5.80764e-11
5.68032e-11
5.55336e-11
6.56793e-11
6.4423e-11
6.31621e-11
6.18964e-11
6.06276e-11
5.93567e-11
5.80841e-11
5.68106e-11
5.55386e-11
5.42718e-11
6.43943e-11
6.31394e-11
6.18809e-11
6.06178e-11
5.93513e-11
5.80832e-11
5.68141e-11
5.55434e-11
5.42725e-11
5.3008e-11
6.31118e-11
6.18581e-11
6.06013e-11
5.93405e-11
5.80763e-11
5.68098e-11
5.55425e-11
5.4274e-11
5.30047e-11
5.17419e-11
6.18327e-11
6.05797e-11
5.93243e-11
5.80654e-11
5.68032e-11
5.55384e-11
5.4272e-11
5.30043e-11
5.17356e-11
5.04731e-11
6.05565e-11
5.93035e-11
5.80496e-11
5.67929e-11
5.55336e-11
5.42718e-11
5.30079e-11
5.17417e-11
5.04728e-11
4.92065e-11
7.20108e-11
7.07419e-11
6.9464e-11
6.8184e-11
6.69039e-11
6.56244e-11
6.43461e-11
6.30698e-11
6.17961e-11
6.05247e-11
7.07411e-11
6.94768e-11
6.82037e-11
6.69262e-11
6.56475e-11
6.43692e-11
6.3092e-11
6.18167e-11
6.05436e-11
5.92722e-11
6.94634e-11
6.8203e-11
6.69356e-11
6.56626e-11
6.43866e-11
6.31104e-11
6.1835e-11
6.0561e-11
5.92891e-11
5.80188e-11
6.81839e-11
6.69257e-11
6.5662e-11
6.43937e-11
6.31216e-11
6.18479e-11
6.05744e-11
5.93021e-11
5.80316e-11
5.67631e-11
6.6904e-11
6.56474e-11
6.43862e-11
6.31211e-11
6.1853e-11
6.05826e-11
5.93113e-11
5.80405e-11
5.67714e-11
5.55052e-11
6.56244e-11
6.43692e-11
6.31103e-11
6.18475e-11
6.05821e-11
5.93152e-11
5.80467e-11
5.67774e-11
5.55093e-11
5.42453e-11
6.43461e-11
6.30921e-11
6.1835e-11
6.05743e-11
5.93108e-11
5.80459e-11
5.67803e-11
5.55132e-11
5.42459e-11
5.29836e-11
6.30698e-11
6.18167e-11
6.0561e-11
5.93021e-11
5.80404e-11
5.67768e-11
5.55124e-11
5.42471e-11
5.29809e-11
5.17201e-11
6.17961e-11
6.05436e-11
5.92891e-11
5.80316e-11
5.67714e-11
5.55092e-11
5.42454e-11
5.29806e-11
5.17149e-11
5.04543e-11
6.05247e-11
5.92722e-11
5.80188e-11
5.67631e-11
5.55052e-11
5.42453e-11
5.29836e-11
5.17199e-11
5.04541e-11
4.91903e-11
7.19398e-11
7.06743e-11
6.94015e-11
6.8127e-11
6.68525e-11
6.55783e-11
6.43052e-11
6.30336e-11
6.1764e-11
6.04962e-11
7.06737e-11
6.94119e-11
6.8143e-11
6.68705e-11
6.55971e-11
6.4324e-11
6.30517e-11
6.17809e-11
6.05118e-11
5.9244e-11
6.9401e-11
6.81425e-11
6.68782e-11
6.56094e-11
6.43381e-11
6.30666e-11
6.17958e-11
6.05261e-11
5.92579e-11
5.7991e-11
6.81269e-11
6.68701e-11
6.56089e-11
6.43438e-11
6.30758e-11
6.18063e-11
6.0537e-11
5.92686e-11
5.80016e-11
5.67362e-11
6.68525e-11
6.5597e-11
6.43378e-11
6.30754e-11
6.18105e-11
6.05438e-11
5.92761e-11
5.80089e-11
5.67431e-11
5.54795e-11
6.55784e-11
6.4324e-11
6.30666e-11
6.1806e-11
6.05433e-11
5.92793e-11
5.80141e-11
5.67481e-11
5.54829e-11
5.42212e-11
6.43052e-11
6.30518e-11
6.17959e-11
6.0537e-11
5.92758e-11
5.80135e-11
5.67504e-11
5.54862e-11
5.42217e-11
5.29614e-11
6.30336e-11
6.17809e-11
6.05261e-11
5.92687e-11
5.80089e-11
5.67475e-11
5.54856e-11
5.42227e-11
5.29592e-11
5.17001e-11
6.17641e-11
6.05118e-11
5.9258e-11
5.80016e-11
5.67431e-11
5.54828e-11
5.42213e-11
5.29589e-11
5.16958e-11
5.0437e-11
6.04962e-11
5.9244e-11
5.7991e-11
5.67362e-11
5.54795e-11
5.42212e-11
5.29613e-11
5.16999e-11
5.04368e-11
4.91756e-11
7.1881e-11
7.06182e-11
6.93495e-11
6.80794e-11
6.68092e-11
6.55394e-11
6.42703e-11
6.30024e-11
6.17361e-11
6.04712e-11
7.06177e-11
6.9358e-11
6.80924e-11
6.6824e-11
6.55547e-11
6.42857e-11
6.30173e-11
6.175e-11
6.04841e-11
5.92192e-11
6.93491e-11
6.8092e-11
6.68302e-11
6.55647e-11
6.42973e-11
6.30295e-11
6.17623e-11
6.04959e-11
5.92308e-11
5.79666e-11
6.80794e-11
6.68236e-11
6.55643e-11
6.43019e-11
6.3037e-11
6.17709e-11
6.05049e-11
5.92396e-11
5.79754e-11
5.67125e-11
6.68093e-11
6.55547e-11
6.4297e-11
6.30367e-11
6.17744e-11
6.05105e-11
5.92459e-11
5.79815e-11
5.67182e-11
5.54569e-11
6.55394e-11
6.42857e-11
6.30295e-11
6.17707e-11
6.05101e-11
5.92485e-11
5.79857e-11
5.67224e-11
5.54597e-11
5.41999e-11
6.42703e-11
6.30173e-11
6.17623e-11
6.05049e-11
5.92456e-11
5.79853e-11
5.67243e-11
5.54624e-11
5.42003e-11
5.29417e-11
6.30024e-11
6.175e-11
6.04959e-11
5.92397e-11
5.79815e-11
5.6722e-11
5.54619e-11
5.42012e-11
5.29399e-11
5.16823e-11
6.17361e-11
6.04841e-11
5.92308e-11
5.79754e-11
5.67183e-11
5.54596e-11
5.42e-11
5.29397e-11
5.16788e-11
5.04216e-11
6.04712e-11
5.92192e-11
5.79666e-11
5.67125e-11
5.54569e-11
5.41999e-11
5.29416e-11
5.16822e-11
5.04214e-11
4.91624e-11
7.1832e-11
7.05714e-11
6.93061e-11
6.80395e-11
6.67728e-11
6.55064e-11
6.42406e-11
6.29757e-11
6.17121e-11
6.04497e-11
7.0571e-11
6.93129e-11
6.80501e-11
6.67849e-11
6.5519e-11
6.42532e-11
6.2988e-11
6.17236e-11
6.04604e-11
5.91979e-11
6.93057e-11
6.80498e-11
6.679e-11
6.55272e-11
6.42627e-11
6.29981e-11
6.17338e-11
6.04701e-11
5.92075e-11
5.79457e-11
6.80394e-11
6.67846e-11
6.55269e-11
6.42666e-11
6.30042e-11
6.17409e-11
6.04776e-11
5.92148e-11
5.79529e-11
5.66922e-11
6.67729e-11
6.5519e-11
6.42625e-11
6.30039e-11
6.17437e-11
6.04822e-11
5.922e-11
5.7958e-11
5.66969e-11
5.54374e-11
6.55065e-11
6.42533e-11
6.2998e-11
6.17407e-11
6.04819e-11
5.92222e-11
5.79615e-11
5.67004e-11
5.54398e-11
5.41816e-11
6.42406e-11
6.2988e-11
6.17338e-11
6.04775e-11
5.92197e-11
5.79611e-11
5.6702e-11
5.54421e-11
5.4182e-11
5.29248e-11
6.29758e-11
6.17236e-11
6.04701e-11
5.92149e-11
5.7958e-11
5.67001e-11
5.54417e-11
5.41828e-11
5.29234e-11
5.1667e-11
6.17122e-11
6.04604e-11
5.92075e-11
5.7953e-11
5.6697e-11
5.54398e-11
5.41817e-11
5.29232e-11
5.16642e-11
5.04082e-11
6.04497e-11
5.91979e-11
5.79457e-11
5.66922e-11
5.54374e-11
5.41816e-11
5.29247e-11
5.16669e-11
5.04081e-11
4.91508e-11
7.17911e-11
7.05324e-11
6.92697e-11
6.8006e-11
6.67423e-11
6.54787e-11
6.42156e-11
6.29532e-11
6.16919e-11
6.04315e-11
7.0532e-11
6.92753e-11
6.80147e-11
6.67521e-11
6.5489e-11
6.4226e-11
6.29633e-11
6.17013e-11
6.04403e-11
5.918e-11
6.92694e-11
6.80144e-11
6.67563e-11
6.54957e-11
6.42337e-11
6.29716e-11
6.17097e-11
6.04484e-11
5.91878e-11
5.7928e-11
6.8006e-11
6.67519e-11
6.54954e-11
6.42369e-11
6.29766e-11
6.17155e-11
6.04545e-11
5.91939e-11
5.7934e-11
5.6675e-11
6.67423e-11
6.5489e-11
6.42336e-11
6.29764e-11
6.17179e-11
6.04583e-11
5.91982e-11
5.79382e-11
5.6679e-11
5.54211e-11
6.54787e-11
6.4226e-11
6.29715e-11
6.17154e-11
6.04581e-11
5.92e-11
5.79411e-11
5.66819e-11
5.54231e-11
5.41662e-11
6.42156e-11
6.29633e-11
6.17097e-11
6.04545e-11
5.9198e-11
5.79408e-11
5.66832e-11
5.54249e-11
5.41665e-11
5.29105e-11
6.29532e-11
6.17014e-11
6.04484e-11
5.91939e-11
5.79382e-11
5.66816e-11
5.54246e-11
5.41672e-11
5.29094e-11
5.16541e-11
6.16919e-11
6.04403e-11
5.91878e-11
5.7934e-11
5.6679e-11
5.5423e-11
5.41664e-11
5.29093e-11
5.16519e-11
5.03969e-11
6.04315e-11
5.918e-11
5.7928e-11
5.6675e-11
5.54211e-11
5.41662e-11
5.29105e-11
5.16541e-11
5.03968e-11
4.91408e-11
7.1757e-11
7.04998e-11
6.92393e-11
6.79781e-11
6.67167e-11
6.54555e-11
6.41946e-11
6.29344e-11
6.1675e-11
6.04163e-11
7.04995e-11
6.92439e-11
6.79851e-11
6.67248e-11
6.54639e-11
6.42031e-11
6.29426e-11
6.16827e-11
6.04236e-11
5.9165e-11
6.92391e-11
6.79849e-11
6.67282e-11
6.54694e-11
6.42095e-11
6.29494e-11
6.16896e-11
6.04302e-11
5.91714e-11
5.79133e-11
6.7978e-11
6.67246e-11
6.54692e-11
6.4212e-11
6.29535e-11
6.16944e-11
6.04352e-11
5.91764e-11
5.79182e-11
5.66607e-11
6.67167e-11
6.54639e-11
6.42093e-11
6.29533e-11
6.16963e-11
6.04383e-11
5.91799e-11
5.79217e-11
5.6664e-11
5.54074e-11
6.54555e-11
6.42031e-11
6.29494e-11
6.16942e-11
6.04381e-11
5.91814e-11
5.7924e-11
5.66663e-11
5.54091e-11
5.41533e-11
6.41946e-11
6.29426e-11
6.16896e-11
6.04352e-11
5.91797e-11
5.79238e-11
5.66674e-11
5.54106e-11
5.41537e-11
5.28986e-11
6.29344e-11
6.16827e-11
6.04302e-11
5.91764e-11
5.79216e-11
5.66661e-11
5.54103e-11
5.41542e-11
5.28978e-11
5.16433e-11
6.1675e-11
6.04236e-11
5.91714e-11
5.79182e-11
5.6664e-11
5.5409e-11
5.41535e-11
5.28976e-11
5.16415e-11
5.03874e-11
6.04163e-11
5.9165e-11
5.79133e-11
5.66607e-11
5.54074e-11
5.41533e-11
5.28986e-11
5.16433e-11
5.03873e-11
4.91323e-11
7.17286e-11
7.04726e-11
6.9214e-11
6.79547e-11
6.66954e-11
6.54361e-11
6.41771e-11
6.29186e-11
6.16608e-11
6.04037e-11
7.04724e-11
6.92178e-11
6.79605e-11
6.67019e-11
6.5443e-11
6.4184e-11
6.29254e-11
6.16672e-11
6.04096e-11
5.91525e-11
6.92139e-11
6.79603e-11
6.67047e-11
6.54474e-11
6.41893e-11
6.29309e-11
6.16728e-11
6.0415e-11
5.91577e-11
5.7901e-11
6.79547e-11
6.67018e-11
6.54473e-11
6.41913e-11
6.29343e-11
6.16767e-11
6.04191e-11
5.91618e-11
5.7905e-11
5.66488e-11
6.66954e-11
6.54429e-11
6.41891e-11
6.29341e-11
6.16782e-11
6.04216e-11
5.91647e-11
5.79079e-11
5.66515e-11
5.5396e-11
6.54361e-11
6.41841e-11
6.29309e-11
6.16766e-11
6.04215e-11
5.91659e-11
5.79098e-11
5.66534e-11
5.53974e-11
5.41426e-11
6.41771e-11
6.29254e-11
6.16728e-11
6.04191e-11
5.91646e-11
5.79096e-11
5.66543e-11
5.53986e-11
5.41429e-11
5.28887e-11
6.29186e-11
6.16672e-11
6.0415e-11
5.91618e-11
5.79078e-11
5.66532e-11
5.53984e-11
5.41433e-11
5.2888e-11
5.16343e-11
6.16608e-11
6.04096e-11
5.91577e-11
5.7905e-11
5.66515e-11
5.53973e-11
5.41428e-11
5.28879e-11
5.16328e-11
5.03794e-11
6.04037e-11
5.91525e-11
5.7901e-11
5.66488e-11
5.5396e-11
5.41426e-11
5.28887e-11
5.16343e-11
5.03793e-11
4.91251e-11
7.17051e-11
7.04501e-11
6.9193e-11
6.79354e-11
6.66776e-11
6.54199e-11
6.41625e-11
6.29055e-11
6.1649e-11
6.03931e-11
7.045e-11
6.91961e-11
6.79401e-11
6.6683e-11
6.54256e-11
6.41682e-11
6.2911e-11
6.16542e-11
6.03979e-11
5.9142e-11
6.91929e-11
6.79399e-11
6.66852e-11
6.54292e-11
6.41724e-11
6.29155e-11
6.16588e-11
6.04023e-11
5.91463e-11
5.78907e-11
6.79353e-11
6.66829e-11
6.54291e-11
6.41741e-11
6.29183e-11
6.1662e-11
6.04057e-11
5.91497e-11
5.7894e-11
5.66389e-11
6.66776e-11
6.54255e-11
6.41723e-11
6.29182e-11
6.16633e-11
6.04078e-11
5.9152e-11
5.78964e-11
5.66411e-11
5.53865e-11
6.542e-11