/*--------------------------------*- C++ -*----------------------------------*\
| =========                 |                                                 |
| \\      /  F ield         | foam-extend: Open Source CFD                    |
|  \\    /   O peration     | Version:     3.1                                |
|   \\  /    A nd           | Web:         http://www.extend-project.de       |
|    \\/     M anipulation  |                                                 |
\*---------------------------------------------------------------------------*/
FoamFile
{
    version     2.0;
    format      ascii;
    class       volScalarField;
    location    "2.4";
    object      p;
}
// * * * * * * * * * * * * * * * * * * * * * * * * * * * * * * * * * * * * * //

dimensions      [0 2 -2 0 0 0 0];

internalField   nonuniform List<scalar> 
14592
(
0.0261651
0.0259697
0.0257866
0.0256506
0.0255774
0.025567
0.0256082
0.0256784
0.0257517
0.0258026
0.0258066
0.0257368
0.0255503
0.0251666
0.0244674
0.0235352
0.0261864
0.0259697
0.0257778
0.0256331
0.0255511
0.0255352
0.0255751
0.0256512
0.025736
0.0258019
0.0258246
0.0257761
0.025619
0.0252725
0.0245716
0.0234321
0.0261706
0.0259361
0.025728
0.0255666
0.0254697
0.025447
0.0254915
0.0255811
0.0256869
0.0257794
0.025835
0.025831
0.0257355
0.0254684
0.0247696
0.0233661
0.0261298
0.0258807
0.025658
0.0254793
0.0253656
0.0253323
0.0253748
0.0254726
0.0255956
0.0257108
0.0257974
0.0258356
0.025801
0.0256155
0.0249757
0.0234132
0.0260665
0.0258087
0.0255764
0.0253841
0.0252534
0.0252026
0.0252336
0.0253266
0.0254516
0.0255783
0.0256809
0.0257444
0.0257538
0.0256471
0.0251073
0.0235102
0.0259839
0.0257199
0.0254812
0.0252787
0.0251318
0.0250602
0.0250692
0.0251449
0.0252566
0.0253709
0.0254636
0.0255208
0.0255387
0.0254809
0.0250592
0.0235292
0.0258842
0.0256149
0.0253708
0.025159
0.0249961
0.0249017
0.0248832
0.0249281
0.0250073
0.0250847
0.0251344
0.0251389
0.0251037
0.0250187
0.0246948
0.0232174
0.0257707
0.0254975
0.0252474
0.0250251
0.0248453
0.0247265
0.0246763
0.0246823
0.0247146
0.0247335
0.0247065
0.0246015
0.0244158
0.0241054
0.0237177
0.0214825
0.0263776
0.0261735
0.0259884
0.0258582
0.0258007
0.025818
0.0259012
0.0260304
0.0261818
0.0263336
0.0264682
0.0265708
0.026621
0.0265762
0.0264077
0.0263111
0.0264008
0.0261745
0.0259796
0.0258404
0.025774
0.0257824
0.0258646
0.0260008
0.0261658
0.026336
0.0264928
0.0266215
0.0267044
0.0266955
0.0265575
0.0265836
0.0263879
0.0261434
0.0259328
0.0257769
0.0256937
0.0256974
0.0257836
0.0259347
0.0261241
0.0263267
0.0265256
0.0267108
0.0268734
0.0269619
0.0268974
0.0270407
0.0263478
0.0260894
0.0258654
0.0256941
0.0255949
0.0255889
0.0256736
0.0258336
0.0260423
0.0262732
0.0265115
0.0267533
0.0269997
0.0272046
0.0272474
0.0275096
0.0262825
0.0260159
0.0257835
0.0256013
0.0254882
0.0254655
0.0255394
0.0256933
0.0259043
0.0261469
0.0264059
0.0266824
0.0269902
0.0272987
0.0274499
0.0278193
0.0261956
0.0259219
0.0256838
0.0254935
0.0253664
0.0253225
0.0253704
0.0255053
0.0257002
0.0259272
0.0261731
0.026442
0.0267596
0.0271212
0.0273425
0.027778
0.0260873
0.0258083
0.0255647
0.0253657
0.0252232
0.0251558
0.025174
0.0252714
0.0254244
0.0256035
0.0257923
0.0259908
0.0262312
0.0265357
0.026714
0.0269448
0.0259624
0.025679
0.0254288
0.0252183
0.0250573
0.0249625
0.0249435
0.0249928
0.025086
0.0251887
0.0252755
0.0253273
0.0253575
0.0253539
0.0252084
0.0237316
0.0265848
0.0263743
0.0261896
0.0260677
0.0260275
0.0260741
0.0262004
0.026388
0.0266148
0.0268607
0.0271118
0.0273584
0.027589
0.0277753
0.0279041
0.0280481
0.0266105
0.0263765
0.0261811
0.0260495
0.0259985
0.0260363
0.0261615
0.026357
0.0265996
0.0268672
0.0271436
0.0274189
0.027682
0.0279007
0.0280741
0.028363
0.0266002
0.0263481
0.0261373
0.02599
0.0259241
0.0259555
0.0260849
0.0262973
0.026568
0.0268736
0.0271998
0.0275405
0.0278904
0.0282089
0.02848
0.0289373
0.0265607
0.0262957
0.0260726
0.0259121
0.025833
0.0258547
0.0259834
0.0262065
0.0264992
0.0268382
0.0272106
0.0276163
0.0280596
0.0285001
0.0288954
0.0295207
0.0264952
0.0262209
0.0259903
0.025821
0.0257289
0.0257377
0.0258557
0.0260746
0.0263694
0.0267211
0.0271176
0.0275633
0.0280742
0.0286172
0.0291124
0.0298544
0.0264033
0.0261222
0.0258863
0.0257103
0.0256065
0.0255948
0.0256878
0.0258813
0.026159
0.0264922
0.0268723
0.0273072
0.0278235
0.0284034
0.0289211
0.029689
0.0262869
0.0260002
0.0257586
0.0255743
0.0254557
0.0254198
0.0254797
0.0256322
0.0258591
0.0261342
0.0264446
0.0267935
0.0272113
0.0276952
0.0280584
0.0284732
0.0261509
0.0258596
0.0256106
0.0254137
0.0252747
0.0252084
0.0252257
0.0253221
0.0254769
0.0256591
0.0258456
0.0260181
0.0261838
0.0262999
0.0261671
0.0244772
0.0267765
0.0265615
0.0263788
0.0262664
0.0262439
0.0263188
0.0264857
0.0267273
0.027022
0.0273498
0.0276974
0.0280554
0.0284139
0.0287469
0.0290366
0.0292627
0.0268042
0.026565
0.0263707
0.0262483
0.0262137
0.0262794
0.0264451
0.0266956
0.027008
0.0273603
0.0277361
0.0281231
0.0285143
0.0288736
0.0292107
0.0295663
0.0267972
0.0265392
0.0263297
0.026192
0.0261441
0.0262031
0.0263738
0.026643
0.0269871
0.0273824
0.0278135
0.0282745
0.0287512
0.0292104
0.029636
0.0301559
0.0267594
0.0264883
0.0262674
0.0261185
0.0260602
0.02611
0.026281
0.0265629
0.0269321
0.0273651
0.027847
0.0283756
0.0289477
0.0295194
0.0300647
0.0307478
0.0266924
0.0264124
0.0261847
0.0260288
0.0259581
0.0259994
0.02616
0.0264376
0.0268109
0.0272575
0.0277657
0.0283357
0.0289747
0.0296379
0.0302651
0.0310539
0.0265962
0.0263095
0.0260766
0.0259153
0.0258353
0.0258561
0.0259939
0.0262459
0.0265966
0.0270218
0.0275101
0.0280647
0.028702
0.0293831
0.0299937
0.0307739
0.0264725
0.0261801
0.0259412
0.0257717
0.025677
0.0256733
0.025775
0.025981
0.0262756
0.0266339
0.0270418
0.0274976
0.0280193
0.0285734
0.0289567
0.0292994
0.0263265
0.0260291
0.025782
0.0255986
0.025482
0.025445
0.0254993
0.0256418
0.025854
0.0261053
0.0263715
0.0266288
0.0268703
0.0270183
0.0268083
0.0248336
0.0269434
0.026725
0.026545
0.0264419
0.0264356
0.0265358
0.0267383
0.0270264
0.027378
0.0277725
0.028195
0.0286342
0.029078
0.0294983
0.0298689
0.0301236
0.0269732
0.0267298
0.0265373
0.0264244
0.0264048
0.0264953
0.0266965
0.0269941
0.0273651
0.0277863
0.0282393
0.0287082
0.0291844
0.0296276
0.0300422
0.0304138
0.0269687
0.0267062
0.0264986
0.0263698
0.0263389
0.0264232
0.0266301
0.0269483
0.0273541
0.027822
0.0283341
0.0288808
0.0294392
0.0299751
0.0304679
0.0309937
0.0269319
0.0266566
0.0264384
0.0263003
0.0262596
0.0263369
0.0265455
0.0268781
0.0273117
0.0278204
0.0283865
0.0290013
0.0296527
0.0302902
0.0308899
0.0315675
0.026864
0.02658
0.0263554
0.0262122
0.0261629
0.0262324
0.0264309
0.0267599
0.0271986
0.0277219
0.0283148
0.0289703
0.0296847
0.0304016
0.0310649
0.031836
0.0267642
0.0264735
0.0262439
0.0260961
0.0260378
0.0260876
0.0262656
0.0265683
0.0269812
0.0274807
0.0280505
0.0286863
0.0293919
0.0301104
0.0307283
0.0314667
0.0266343
0.0263379
0.0261019
0.0259455
0.0258727
0.0258983
0.0260377
0.0262907
0.0266427
0.0270682
0.0275492
0.0280763
0.0286537
0.0292233
0.0295678
0.0298164
0.0264796
0.0261779
0.025933
0.0257616
0.0256653
0.0256553
0.0257433
0.0259269
0.026188
0.0264953
0.0268211
0.0271339
0.0274128
0.0275525
0.0272473
0.0250382
0.0270768
0.0268562
0.0266788
0.0265838
0.0265909
0.0267117
0.0269427
0.0272674
0.027663
0.0281076
0.0285843
0.0290794
0.0295765
0.0300461
0.0304544
0.0307176
0.0271084
0.0268622
0.0266715
0.026567
0.0265599
0.0266705
0.0269
0.0272347
0.0276511
0.0281241
0.028633
0.0291598
0.0296879
0.03018
0.030626
0.0309981
0.0271058
0.0268403
0.0266347
0.0265134
0.0264969
0.0266019
0.0268379
0.0271947
0.0276482
0.0281707
0.0287404
0.0293429
0.0299524
0.0305256
0.031048
0.0315652
0.0270699
0.0267918
0.0265761
0.0264471
0.0264217
0.0265213
0.0267601
0.0271329
0.0276163
0.0281816
0.0288077
0.0294791
0.0301767
0.0308437
0.0314581
0.0321183
0.0270012
0.0267145
0.0264929
0.0263603
0.0263283
0.026422
0.0266507
0.0270206
0.0275109
0.0280904
0.028743
0.0294541
0.0302103
0.0309465
0.0316096
0.0323541
0.0268987
0.0266054
0.0263787
0.0262419
0.0262014
0.0262745
0.0264856
0.0268284
0.0272887
0.0278447
0.0284719
0.0291598
0.0299011
0.0306271
0.0312251
0.0319207
0.0267638
0.0264647
0.0262313
0.0260858
0.0260308
0.0260803
0.0262507
0.0265413
0.0269377
0.0274135
0.0279458
0.0285177
0.0291222
0.0296848
0.0299806
0.0301532
0.0266022
0.0262976
0.0260547
0.0258932
0.0258135
0.0258258
0.0259415
0.0261582
0.0264576
0.0268068
0.0271742
0.0275211
0.0278155
0.0279335
0.0275457
0.0251657
0.02717
0.026948
0.026773
0.0266839
0.0267011
0.0268366
0.0270876
0.0274377
0.0278634
0.0283415
0.0288533
0.029383
0.0299108
0.0304057
0.0308295
0.031094
0.0272029
0.0269553
0.0267664
0.0266673
0.0266706
0.0267961
0.0270458
0.0274065
0.027854
0.0283617
0.0289071
0.0294699
0.030028
0.030545
0.031
0.0313699
0.0272014
0.0269345
0.026731
0.0266169
0.0266102
0.0267303
0.0269872
0.0273713
0.0278577
0.0284169
0.029024
0.029661
0.0302997
0.0308908
0.0314261
0.0319287
0.027166
0.0268865
0.0266732
0.0265514
0.0265374
0.0266534
0.0269141
0.0273154
0.0278336
0.0284369
0.0291019
0.0298076
0.0305306
0.0312096
0.0318244
0.0324663
0.0270968
0.0268088
0.0265896
0.0264649
0.0264457
0.0265567
0.0268079
0.0272072
0.0277342
0.0283506
0.0290417
0.0297864
0.0305644
0.0313055
0.0319586
0.0326791
0.0269923
0.0266977
0.0264734
0.0263447
0.0263174
0.0264081
0.0266424
0.0270137
0.0275061
0.0281014
0.0287658
0.0294848
0.0302438
0.0309669
0.0315426
0.0322047
0.0268541
0.0265536
0.0263223
0.0261846
0.0261425
0.0262096
0.0264022
0.0267197
0.0271472
0.0276574
0.0282228
0.0288213
0.0294379
0.0299889
0.0302452
0.0303639
0.0266877
0.0263815
0.0261402
0.0259859
0.0259182
0.0259467
0.0260826
0.0263233
0.0266498
0.0270277
0.027422
0.0277888
0.0280883
0.0281857
0.0277379
0.0252459
0.0272164
0.0269934
0.026819
0.0267322
0.0267538
0.0268961
0.0271564
0.0275186
0.0279586
0.0284525
0.0289807
0.0295259
0.0300668
0.0305721
0.0310015
0.0312689
0.0272496
0.0270009
0.0268118
0.0267143
0.0267219
0.0268537
0.0271126
0.0274853
0.0279474
0.0284714
0.0290335
0.029612
0.0301828
0.0307098
0.031168
0.0315412
0.0272488
0.0269808
0.0267772
0.0266656
0.0266624
0.0267886
0.0270546
0.0274509
0.0279524
0.0285283
0.0291526
0.0298045
0.0304549
0.0310533
0.0315964
0.0320933
0.027214
0.0269334
0.0267201
0.0266007
0.0265912
0.0267138
0.0269838
0.0273977
0.0279314
0.0285518
0.029234
0.0299547
0.0306875
0.0313703
0.0319868
0.0326217
0.0271446
0.0268556
0.0266367
0.026515
0.0265009
0.0266191
0.0268799
0.0272918
0.0278346
0.0284679
0.0291759
0.0299348
0.0307208
0.0314618
0.0321123
0.0328231
0.0270392
0.0267438
0.0265198
0.0263943
0.0263725
0.0264707
0.0267149
0.0270984
0.0276052
0.0282173
0.0288979
0.0296297
0.0303946
0.0311136
0.0316814
0.0323296
0.0268993
0.026598
0.026367
0.0262324
0.0261959
0.0262706
0.0264726
0.0268016
0.0272425
0.0277676
0.028347
0.028956
0.0295757
0.0301178
0.0303562
0.0304462
0.0267305
0.0264234
0.0261824
0.0260309
0.0259684
0.0260038
0.0261483
0.0263991
0.0267371
0.0271272
0.0275327
0.0279073
0.0282065
0.02829
0.0277995
0.0252514
0.0252203
0.0251737
0.0251159
0.0250581
0.024998
0.0249238
0.0248181
0.0246599
0.0244263
0.0240939
0.0236392
0.0230386
0.0222692
0.0213136
0.0201598
0.0188283
0.025226
0.0251781
0.0251235
0.0250687
0.0250124
0.024943
0.0248421
0.0246883
0.0244584
0.0241293
0.0236774
0.0230797
0.022313
0.0213608
0.0202077
0.0188771
0.0252151
0.0251608
0.0251055
0.0250557
0.0250087
0.0249508
0.0248622
0.0247199
0.0244999
0.024179
0.0237344
0.0231444
0.0223868
0.0214476
0.020307
0.0189929
0.0251877
0.0251227
0.0250604
0.0250101
0.0249691
0.0249224
0.0248476
0.024719
0.0245112
0.0242002
0.0237638
0.0231818
0.0224335
0.021508
0.0203824
0.0190882
0.0251472
0.0250704
0.0249967
0.0249398
0.0248988
0.0248583
0.0247936
0.0246767
0.0244797
0.0241777
0.0237485
0.0231733
0.0224327
0.0215191
0.0204083
0.0191346
0.0250966
0.0250096
0.0249238
0.0248572
0.0248114
0.0247715
0.0247118
0.0246018
0.0244119
0.0241159
0.0236916
0.0231214
0.0223872
0.0214842
0.0203896
0.0191384
0.0250389
0.0249445
0.0248485
0.0247722
0.0247195
0.0246763
0.0246163
0.0245079
0.0243202
0.0240259
0.0236033
0.0230357
0.0223069
0.0214144
0.020339
0.0191144
0.0249773
0.0248785
0.0247757
0.024692
0.0246326
0.0245838
0.0245196
0.0244079
0.0242171
0.0239202
0.0234957
0.0229284
0.0222044
0.0213229
0.0202699
0.0190767
0.0252346
0.0251697
0.025098
0.025029
0.0249629
0.024886
0.0247802
0.0246234
0.0243919
0.0240612
0.023607
0.023005
0.0222313
0.0212679
0.0201003
0.0187534
0.0252398
0.0251692
0.0250963
0.0250272
0.0249598
0.024884
0.0247804
0.0246264
0.0243974
0.0240688
0.023616
0.0230153
0.0222424
0.0212817
0.0201148
0.0187731
0.0252277
0.025147
0.0250685
0.0249981
0.0249353
0.0248677
0.0247744
0.024631
0.0244117
0.0240912
0.0236455
0.023052
0.0222869
0.0213383
0.0201818
0.018857
0.0252012
0.0251079
0.0250192
0.0249437
0.0248825
0.0248224
0.0247409
0.0246105
0.0244033
0.0240933
0.0236563
0.0230711
0.0223148
0.0213797
0.0202371
0.0189319
0.025163
0.0250578
0.0249565
0.0248716
0.024807
0.0247499
0.0246765
0.0245567
0.0243605
0.0240601
0.0236311
0.0230538
0.0223058
0.0213831
0.0202546
0.0189692
0.0251146
0.0250001
0.0248868
0.024791
0.0247193
0.0246606
0.0245903
0.0244768
0.0242877
0.023994
0.023571
0.0229999
0.0222597
0.021349
0.0202381
0.0189766
0.0250582
0.0249373
0.0248147
0.024709
0.0246293
0.0245659
0.0244943
0.0243819
0.0241951
0.0239039
0.0234838
0.0229167
0.0221837
0.0212856
0.0201965
0.018964
0.0249969
0.0248726
0.0247441
0.0246313
0.0245446
0.0244753
0.0243992
0.0242834
0.024094
0.0238008
0.0233799
0.0228146
0.0220884
0.0212035
0.0201404
0.0189422
0.0252767
0.0251881
0.0250958
0.0250121
0.0249368
0.0248593
0.0247585
0.0246109
0.0243912
0.024073
0.0236294
0.0230326
0.0222524
0.0212631
0.0200374
0.0186003
0.0252822
0.0251853
0.0250896
0.0250028
0.0249264
0.0248479
0.0247487
0.0246042
0.0243877
0.0240724
0.0236311
0.0230362
0.0222573
0.0212721
0.0200471
0.0186196
0.0252668
0.0251569
0.0250519
0.0249599
0.0248841
0.0248126
0.0247237
0.0245907
0.0243852
0.0240797
0.0236468
0.0230606
0.0222905
0.0213182
0.0201015
0.0186913
0.0252374
0.025113
0.0249942
0.0248926
0.0248144
0.0247482
0.0246703
0.0245508
0.0243588
0.0240649
0.0236418
0.0230648
0.0223034
0.0213443
0.0201372
0.0187443
0.0251976
0.0250609
0.0249271
0.0248124
0.0247266
0.0246604
0.024589
0.0244801
0.0242998
0.0240166
0.0236027
0.0230341
0.0222813
0.0213346
0.0201403
0.018768
0.0251483
0.0250023
0.0248557
0.0247273
0.0246311
0.0245601
0.0244901
0.0243867
0.0242137
0.0239379
0.0235306
0.0229688
0.0222242
0.0212908
0.0201156
0.0187711
0.0250908
0.0249389
0.0247827
0.024643
0.0245364
0.0244583
0.0243853
0.0242822
0.0241112
0.023838
0.0234336
0.0228761
0.0221393
0.0212204
0.0200718
0.0187638
0.0250275
0.0248726
0.0247108
0.0245635
0.0244489
0.0243636
0.0242848
0.0241775
0.0240033
0.0237277
0.0233223
0.0227664
0.0220372
0.021134
0.0200189
0.0187554
0.0253513
0.0252384
0.0251238
0.0250242
0.0249416
0.0248643
0.0247738
0.0246433
0.0244456
0.0241519
0.0237317
0.0231506
0.0223675
0.0213388
0.0200115
0.0183966
0.0253584
0.0252353
0.0251165
0.0250127
0.0249275
0.024851
0.0247615
0.0246344
0.0244411
0.0241519
0.0237357
0.0231587
0.0223792
0.0213573
0.0200309
0.0184286
0.0253398
0.0252019
0.025071
0.024959
0.024872
0.0248003
0.0247217
0.0246074
0.0244267
0.0241493
0.0237436
0.0231768
0.0224076
0.0213995
0.0200768
0.0184852
0.0253059
0.0251525
0.0250052
0.0248796
0.0247866
0.0247174
0.0246484
0.0245481
0.0243823
0.0241179
0.0237233
0.0231666
0.0224064
0.0214096
0.0200896
0.0185084
0.025262
0.025096
0.0249324
0.0247902
0.0246855
0.0246129
0.0245485
0.024458
0.024304
0.0240508
0.0236657
0.0231176
0.0223653
0.0213798
0.0200693
0.0185085
0.0252087
0.025034
0.024857
0.0246988
0.02458
0.0244991
0.0244332
0.0243466
0.0241992
0.0239529
0.0235741
0.023032
0.0222873
0.0213155
0.0200259
0.0185008
0.0251472
0.0249669
0.0247805
0.0246095
0.0244777
0.0243866
0.0243149
0.0242264
0.0240795
0.0238346
0.0234572
0.022918
0.0221805
0.0212252
0.0199691
0.0184963
0.0250797
0.0248964
0.0247045
0.0245252
0.0243838
0.0242833
0.0242038
0.0241091
0.023957
0.0237076
0.0233269
0.0227871
0.0220561
0.0211192
0.0199078
0.0185018
0.025459
0.0253234
0.0251874
0.0250725
0.0249836
0.0249106
0.0248333
0.0247272
0.0245615
0.0243052
0.0239234
0.0233737
0.0225998
0.0215282
0.0200627
0.0181661
0.0254684
0.0253206
0.0251795
0.0250595
0.0249667
0.0248929
0.0248188
0.0247158
0.0245553
0.024305
0.0239293
0.0233856
0.0226175
0.0215546
0.0200913
0.0182055
0.025448
0.0252839
0.0251288
0.0249974
0.0248997
0.0248286
0.0247634
0.024674
0.0245277
0.0242906
0.0239271
0.0233952
0.022638
0.0215849
0.0201143
0.018212
0.0254102
0.0252304
0.0250573
0.0249092
0.0248013
0.0247293
0.0246714
0.0245952
0.024464
0.0242409
0.0238896
0.0233677
0.0226183
0.0215699
0.0200908
0.0181785
0.0253613
0.0251696
0.0249803
0.0248133
0.02469
0.0246103
0.0245534
0.0244848
0.0243644
0.0241522
0.02381
0.0232955
0.0225523
0.0215108
0.0200361
0.0181401
0.0253025
0.0251028
0.0249009
0.0247169
0.0245765
0.0244844
0.0244219
0.0243539
0.0242377
0.0240306
0.023693
0.0231824
0.0224451
0.0214165
0.0199657
0.018119
0.025235
0.0250301
0.0248197
0.0246224
0.0244668
0.0243609
0.0242887
0.0242151
0.0240961
0.0238872
0.0235478
0.0230368
0.0223048
0.021295
0.0198884
0.0181248
0.0251611
0.0249533
0.0247376
0.0245314
0.0243646
0.0242468
0.0241635
0.0240801
0.0239522
0.0237346
0.0233873
0.0228711
0.0221426
0.021155
0.0198091
0.0181578
0.0255989
0.0254435
0.0252891
0.0251617
0.0250694
0.0250043
0.0249468
0.0248713
0.0247483
0.0245447
0.0242212
0.0237277
0.0229892
0.0218891
0.0202556
0.0179453
0.0256109
0.0254411
0.0252808
0.0251474
0.0250497
0.0249825
0.0249282
0.0248577
0.0247409
0.0245437
0.0242279
0.023742
0.02301
0.0219118
0.0202636
0.0179069
0.0255902
0.0254033
0.0252275
0.02508
0.0249742
0.0249067
0.0248589
0.0248017
0.0247
0.0245181
0.0242169
0.0237439
0.0230207
0.0219155
0.0202231
0.0177539
0.0255498
0.0253474
0.0251535
0.0249872
0.0248676
0.0247952
0.0247516
0.0247057
0.024619
0.024452
0.0241639
0.0237009
0.0229824
0.0218653
0.0201357
0.0175806
0.0254964
0.0252829
0.025074
0.0248884
0.0247506
0.0246662
0.0246195
0.0245778
0.0244999
0.0243426
0.024063
0.0236058
0.0228912
0.0217705
0.020034
0.0174595
0.0254316
0.0252107
0.0249909
0.0247888
0.0246321
0.0245316
0.0244746
0.0244288
0.0243513
0.0241958
0.0239178
0.0234611
0.0227502
0.0216389
0.0199323
0.0174137
0.0253567
0.025131
0.0249039
0.024689
0.0245158
0.0243982
0.0243267
0.0242701
0.0241845
0.0240217
0.0237364
0.0232731
0.0225641
0.0214738
0.0198332
0.0174506
0.0252745
0.025046
0.0248137
0.0245897
0.0244037
0.0242713
0.0241845
0.0241128
0.0240123
0.023834
0.0235325
0.0230546
0.0223425
0.0212798
0.019737
0.0175749
0.0257673
0.0255956
0.0254272
0.0252919
0.0252007
0.0251485
0.0251171
0.0250818
0.0250139
0.0248795
0.02464
0.0242417
0.023595
0.0225321
0.0207505
0.0178615
0.0257825
0.0255939
0.0254187
0.0252763
0.0251784
0.025123
0.0250936
0.0250641
0.0250032
0.0248773
0.0246478
0.0242595
0.0236191
0.0225422
0.0206648
0.0174921
0.0257626
0.0255565
0.0253651
0.025207
0.0250979
0.0250391
0.0250152
0.0249983
0.0249537
0.0248455
0.0246343
0.0242635
0.0236338
0.0225295
0.0205204
0.0169534
0.025721
0.0254998
0.0252911
0.0251136
0.0249884
0.0249211
0.0248987
0.024891
0.0248611
0.0247694
0.0245744
0.0242176
0.0235956
0.0224653
0.0203636
0.0164972
0.025664
0.0254323
0.0252104
0.0250146
0.02487
0.0247876
0.0247573
0.0247506
0.0247275
0.0246445
0.0244586
0.0241091
0.0234935
0.0223537
0.0202276
0.0162169
0.0255932
0.0253545
0.0251236
0.0249129
0.0247493
0.024648
0.024603
0.0245871
0.0245594
0.0244738
0.0242858
0.0239335
0.0233208
0.0221885
0.0201048
0.0161068
0.0255099
0.0252668
0.0250296
0.0248073
0.0246268
0.0245059
0.0244415
0.0244084
0.0243655
0.0242648
0.0240606
0.0236911
0.0230725
0.0219579
0.0199811
0.0161648
0.025418
0.025172
0.0249296
0.0246979
0.0245033
0.0243644
0.0242797
0.0242247
0.0241584
0.0240313
0.0237969
0.0233933
0.0227513
0.02165
0.0198471
0.0164493
0.0259584
0.0257737
0.025596
0.0254579
0.0253732
0.0253396
0.0253407
0.0253554
0.0253533
0.0253058
0.0251787
0.0249261
0.0244682
0.0236328
0.0220316
0.0188669
0.0259773
0.0257729
0.0255872
0.0254412
0.0253485
0.0253114
0.0253133
0.0253325
0.0253404
0.0253038
0.0251904
0.0249534
0.0245102
0.0236712
0.0219165
0.0180946
0.0259589
0.0257371
0.0255351
0.0253724
0.0252664
0.0252216
0.0252296
0.0252621
0.0252881
0.0252729
0.0251843
0.0249766
0.0245642
0.0237245
0.0217977
0.0172428
0.0259173
0.0256807
0.0254627
0.0252813
0.0251582
0.025104
0.0251103
0.0251512
0.0251911
0.0251959
0.0251299
0.0249483
0.0245648
0.0237326
0.0217123
0.0166289
0.0258576
0.0256107
0.0253814
0.0251839
0.0250419
0.0249703
0.0249661
0.0250042
0.0250499
0.0250635
0.025009
0.0248422
0.0244802
0.0236686
0.0216477
0.0162904
0.0257797
0.0255272
0.0252905
0.0250804
0.0249205
0.0248289
0.0248058
0.0248303
0.0248662
0.0248723
0.0248118
0.0246402
0.0242838
0.0234941
0.0215481
0.0161432
0.0256879
0.025431
0.0251887
0.0249682
0.0247917
0.0246785
0.0246317
0.0246322
0.0246444
0.0246252
0.0245362
0.0243313
0.0239507
0.0231614
0.0213523
0.0161016
0.0255861
0.0253253
0.0250775
0.0248472
0.0246551
0.0245209
0.024448
0.0244185
0.0243965
0.0243361
0.024196
0.0239232
0.0234678
0.0226015
0.0209686
0.0160932
0.0256501
0.025374
0.0251173
0.0248827
0.0246852
0.0245425
0.0244605
0.0244253
0.0244046
0.0243533
0.0242301
0.0239797
0.0235579
0.0227348
0.0212011
0.0164446
0.0255308
0.0252533
0.0249897
0.0247425
0.0245287
0.0243655
0.0242564
0.024184
0.0241128
0.0239938
0.0237789
0.023401
0.022792
0.0217241
0.0199442
0.0165663
0.0254219
0.0251451
0.024876
0.0246187
0.0243936
0.0242169
0.0240887
0.0239875
0.0238748
0.0237007
0.0234157
0.0229603
0.0222693
0.0212254
0.0196642
0.0175246
0.0253317
0.0250588
0.0247878
0.0245269
0.0242988
0.024118
0.0239796
0.0238584
0.0237139
0.0234988
0.0231662
0.0226718
0.0219609
0.0209928
0.0196362
0.0180036
0.0252664
0.0250013
0.0247351
0.0244801
0.0242589
0.0240818
0.0239393
0.0238035
0.0236339
0.0233875
0.0230224
0.0225068
0.0217964
0.0208845
0.0196794
0.0182895
0.0252276
0.0249749
0.0247218
0.0244823
0.0242753
0.0241059
0.0239613
0.0238126
0.0236219
0.0233506
0.0229624
0.0224329
0.0217286
0.0208542
0.0197573
0.0185119
0.0252072
0.0249733
0.0247383
0.0245193
0.0243305
0.0241722
0.0240288
0.0238723
0.0236677
0.0233805
0.0229791
0.0224423
0.0217446
0.0208908
0.0198518
0.0186741
0.0251843
0.0249733
0.0247534
0.0245513
0.0243802
0.0242368
0.0241032
0.0239509
0.0237467
0.0234579
0.0230559
0.0225199
0.0218277
0.0209793
0.0199527
0.0187809
0.0258282
0.0255415
0.0252834
0.0250583
0.0248757
0.0247514
0.024693
0.0246904
0.0247154
0.0247265
0.0246854
0.0245403
0.0242432
0.0235452
0.0219297
0.0166501
0.0256945
0.0254059
0.0251393
0.0248978
0.0246933
0.0245415
0.0244474
0.0243969
0.0243573
0.0242805
0.0241179
0.0237977
0.0232387
0.0221675
0.0202182
0.0163076
0.025572
0.0252831
0.025009
0.0247528
0.0245306
0.0243581
0.0242372
0.0241492
0.0240571
0.0239103
0.0236564
0.0232289
0.0225509
0.0214752
0.0197949
0.0173968
0.0254687
0.0251836
0.0249055
0.0246409
0.0244098
0.0242271
0.0240906
0.0239773
0.0238469
0.0236503
0.0233368
0.0228565
0.0221456
0.0211519
0.0197158
0.0179572
0.0253934
0.0251153
0.0248398
0.0245772
0.0243486
0.0241663
0.0240235
0.0238934
0.0237351
0.0235029
0.0231509
0.0226435
0.021929
0.0209978
0.0197357
0.0182691
0.0253467
0.0250811
0.024817
0.0245675
0.0243516
0.0241766
0.0240318
0.0238889
0.0237086
0.0234495
0.0230715
0.0225476
0.021838
0.0209481
0.0198105
0.0185127
0.0253206
0.025074
0.0248279
0.0245992
0.0244025
0.0242404
0.0240986
0.023949
0.0237549
0.0234791
0.0230868
0.0225546
0.0218522
0.0209853
0.0199155
0.0186967
0.0252954
0.0250733
0.0248434
0.0246323
0.024455
0.0243099
0.02418
0.0240361
0.0238432
0.0235662
0.0231737
0.0226426
0.0219472
0.0210872
0.020033
0.0188221
0.0260036
0.0257085
0.0254503
0.0252363
0.025072
0.0249709
0.0249412
0.0249751
0.0250473
0.0251178
0.0251488
0.0250847
0.0248642
0.0241981
0.022458
0.0167079
0.0258557
0.0255579
0.0252898
0.0250561
0.0248646
0.0247289
0.0246548
0.0246299
0.0246232
0.0245869
0.0244704
0.0241948
0.023664
0.0225641
0.0204631
0.0161721
0.0257193
0.0254205
0.0251432
0.0248908
0.0246754
0.0245116
0.0244023
0.0243307
0.0242603
0.0241396
0.023913
0.0235067
0.0228327
0.0217179
0.0199271
0.017317
0.025603
0.0253078
0.0250248
0.0247597
0.0245295
0.0243491
0.024218
0.0241147
0.023999
0.0238198
0.023523
0.0230532
0.0223381
0.021315
0.0198036
0.0179307
0.025517
0.0252288
0.0249466
0.0246796
0.0244475
0.0242634
0.0241226
0.0239996
0.0238527
0.0236338
0.0232933
0.022792
0.0220715
0.0211193
0.0198039
0.0182667
0.0254633
0.0251868
0.0249144
0.0246583
0.0244366
0.0242587
0.0241154
0.0239791
0.023809
0.0235613
0.0231925
0.0226729
0.0219573
0.0210513
0.0198755
0.0185287
0.0254317
0.0251746
0.0249201
0.0246843
0.0244825
0.0243186
0.0241797
0.0240374
0.0238536
0.0235886
0.0232046
0.0226762
0.0219687
0.0210886
0.0199894
0.0187315
0.0254041
0.0251732
0.0249355
0.0247184
0.0245375
0.0243926
0.0242673
0.0241322
0.0239504
0.0236847
0.0233009
0.022774
0.0220747
0.0212029
0.0201223
0.0188742
0.0261669
0.0258653
0.0256079
0.0254051
0.0252598
0.0251831
0.0251834
0.0252539
0.0253705
0.0254933
0.0255821
0.0255742
0.0253931
0.0247131
0.0228315
0.0166813
0.0260058
0.0257008
0.0254321
0.0252067
0.0250294
0.0249118
0.0248595
0.024861
0.0248859
0.0248854
0.024806
0.0245607
0.02404
0.0228979
0.0206593
0.0160762
0.0258562
0.0255496
0.0252703
0.0250227
0.0248161
0.0246633
0.024568
0.0245138
0.0244645
0.0243671
0.0241625
0.02377
0.0230917
0.0219351
0.0200455
0.0172668
0.0257277
0.0254244
0.025138
0.0248742
0.0246473
0.0244718
0.0243483
0.0242561
0.0241547
0.0239911
0.0237078
0.0232443
0.0225215
0.021468
0.0198889
0.0179196
0.0256317
0.0253353
0.0250483
0.0247793
0.0245462
0.0243628
0.0242259
0.0241107
0.0239747
0.0237677
0.0234368
0.0229394
0.0222114
0.021238
0.0198749
0.0182762
0.0255711
0.0252859
0.0250076
0.0247472
0.0245224
0.0243435
0.024203
0.0240735
0.0239132
0.0236759
0.0233149
0.0227983
0.0220763
0.0211546
0.0199445
0.0185542
0.0255348
0.0252692
0.0250085
0.024768
0.0245631
0.0243989
0.0242637
0.0241289
0.0239549
0.0236998
0.0233231
0.0227975
0.0220847
0.0211918
0.0200659
0.0187729
0.0255051
0.0252671
0.0250239
0.0248029
0.0246202
0.0244767
0.0243567
0.0242304
0.0240592
0.0238038
0.0234276
0.022904
0.0222005
0.021317
0.0202122
0.0189304
0.0263094
0.026003
0.0257468
0.0255542
0.0254262
0.0253723
0.0254005
0.0255041
0.0256591
0.0258243
0.0259562
0.0259844
0.0258185
0.0251046
0.0230917
0.0166218
0.0261367
0.0258263
0.0255577
0.02534
0.025176
0.0250757
0.0250443
0.0250702
0.0251228
0.0251517
0.0250999
0.024873
0.0243502
0.0231618
0.0208057
0.0159988
0.0259756
0.025663
0.0253825
0.0251399
0.024942
0.0248006
0.0247191
0.0246815
0.024651
0.0245728
0.0243846
0.0239995
0.0233119
0.0221149
0.0201422
0.017234
0.0258364
0.0255268
0.0252381
0.0249763
0.0247537
0.0245841
0.0244687
0.0243873
0.0242988
0.0241483
0.0238751
0.0234145
0.022682
0.0215999
0.0199638
0.0179177
0.0257315
0.0254287
0.0251383
0.0248687
0.0246362
0.0244549
0.0243225
0.0242149
0.0240888
0.0238918
0.0235683
0.0230729
0.0223368
0.0213438
0.0199407
0.0182914
0.0256647
0.0253728
0.0250903
0.0248274
0.0246011
0.0244226
0.0242854
0.0241624
0.0240109
0.0237825
0.0234278
0.0229132
0.0221848
0.0212488
0.0200097
0.0185827
0.0256245
0.0253524
0.0250871
0.0248437
0.0246372
0.0244738
0.0243424
0.0242145
0.0240492
0.0238027
0.0234321
0.0229085
0.0221906
0.0212861
0.0201375
0.0188144
0.025593
0.0253495
0.0251026
0.0248792
0.024696
0.0245547
0.02444
0.0243216
0.0241598
0.0239134
0.0235437
0.0230223
0.0223147
0.0214206
0.0202948
0.0189842
0.0264236
0.0261138
0.0258589
0.0256747
0.0255609
0.025526
0.0255773
0.025708
0.0258933
0.0260905
0.0262524
0.026302
0.0261382
0.0253877
0.0232699
0.0165651
0.0262415
0.0259274
0.0256591
0.0254479
0.0252951
0.0252095
0.0251957
0.0252419
0.0253167
0.0253679
0.0253352
0.0251181
0.0245877
0.0233573
0.0209101
0.0159415
0.0260712
0.0257543
0.0254733
0.025235
0.0250448
0.0249134
0.024844
0.0248204
0.0248052
0.0247417
0.0245648
0.0241826
0.0234841
0.0222526
0.0202158
0.0172144
0.0259234
0.0256093
0.0253191
0.0250595
0.024841
0.0246771
0.0245692
0.0244971
0.0244192
0.0242787
0.0240126
0.0235527
0.0228104
0.0217044
0.0200243
0.0179214
0.0258114
0.0255039
0.0252114
0.0249419
0.0247107
0.0245318
0.0244039
0.0243029
0.0241848
0.0239958
0.0236777
0.0231828
0.0224394
0.0214301
0.0199957
0.0183079
0.0257395
0.0254428
0.0251574
0.0248933
0.0246666
0.0244891
0.0243551
0.0242378
0.0240933
0.023872
0.0235222
0.0230085
0.0222746
0.0213267
0.0200649
0.0186094
0.0256962
0.0254194
0.0251511
0.0249059
0.0246988
0.0245366
0.0244089
0.0242868
0.0241286
0.023889
0.0235231
0.0230007
0.0222785
0.0213644
0.0201977
0.018851
0.0256633
0.025416
0.0251665
0.0249419
0.0247589
0.0246198
0.0245098
0.0243982
0.0242441
0.0240048
0.0236401
0.0231203
0.0224089
0.0215059
0.0203634
0.01903
0.0265031
0.0261915
0.0259377
0.0257596
0.0256563
0.0256352
0.0257037
0.0258542
0.0260613
0.0262807
0.0264622
0.026524
0.0263582
0.0255795
0.0233907
0.0165348
0.0263146
0.0259983
0.0257305
0.025524
0.0253796
0.025305
0.0253045
0.025366
0.0254571
0.025524
0.025504
0.0252922
0.024754
0.0234922
0.0209824
0.0159088
0.0261378
0.0258184
0.0255372
0.0253023
0.0251181
0.0249945
0.0249346
0.0249219
0.0249182
0.0248653
0.024696
0.0243148
0.023607
0.0223498
0.020269
0.0172079
0.025984
0.0256672
0.0253763
0.0251186
0.0249039
0.0247449
0.0246432
0.0245786
0.0245088
0.0243757
0.0241143
0.0236542
0.0229043
0.0217808
0.0200709
0.0179313
0.0258671
0.0255568
0.0252631
0.0249943
0.0247648
0.0245887
0.0244648
0.0243692
0.0242574
0.0240742
0.0237597
0.0232649
0.0225159
0.0214947
0.0200393
0.0183256
0.0257917
0.0254921
0.0252053
0.0249409
0.0247147
0.0245387
0.0244077
0.0242949
0.0241559
0.0239397
0.0235932
0.02308
0.022342
0.0213854
0.020108
0.0186328
0.0257463
0.0254666
0.0251967
0.0249509
0.0247441
0.0245834
0.0244586
0.0243411
0.0241881
0.0239534
0.0235907
0.0230691
0.0223436
0.0214224
0.0202432
0.0188799
0.0257124
0.0254627
0.0252119
0.0249868
0.0248045
0.0246674
0.0245609
0.0244542
0.0243056
0.0240714
0.02371
0.023191
0.0224769
0.0215674
0.0204132
0.019064
0.026543