/*--------------------------------*- C++ -*----------------------------------*\
| =========                 |                                                 |
| \\      /  F ield         | foam-extend: Open Source CFD                    |
|  \\    /   O peration     | Version:     3.1                                |
|   \\  /    A nd           | Web:         http://www.extend-project.de       |
|    \\/     M anipulation  |                                                 |
\*---------------------------------------------------------------------------*/
FoamFile
{
    version     2.0;
    format      ascii;
    class       pointVectorField;
    location    "2.4";
    object      pointMotionU;
}
// * * * * * * * * * * * * * * * * * * * * * * * * * * * * * * * * * * * * * //

dimensions      [0 1 -1 0 0 0 0];

internalField   nonuniform List<vector> 
16859
(
(0 0 0)
(0 0 0)
(0 0 0)
(0 0 0)
(0 0 0)
(0 0 0)
(0 0 0)
(0 0 0)
(0 0 0)
(0 0 0)
(0 0 0)
(0 0 0)
(0 0 0)
(0 0 0)
(0 0 0)
(0 0 0)
(0 0 0)
(0 0 0)
(1.87537e-10 2.8174e-11 -1.41737e-11)
(3.61416e-10 5.52576e-11 -2.81137e-11)
(5.20546e-10 8.19373e-11 -4.24348e-11)
(6.69411e-10 1.0968e-10 -5.80932e-11)
(8.11876e-10 1.39911e-10 -7.59669e-11)
(9.51266e-10 1.74129e-10 -9.68768e-11)
(1.09036e-09 2.14042e-10 -1.21558e-10)
(1.23126e-09 2.61687e-10 -1.50563e-10)
(1.37499e-09 3.19611e-10 -1.84056e-10)
(1.52094e-09 3.9106e-10 -2.21439e-10)
(1.66595e-09 4.80232e-10 -2.60752e-10)
(1.80341e-09 5.92551e-10 -2.97749e-10)
(1.92287e-09 7.3441e-10 -3.24672e-10)
(2.01164e-09 9.09309e-10 -3.29188e-10)
(2.0561e-09 1.09028e-09 -2.96305e-10)
(2.21157e-09 2.113e-09 2.11149e-10)
(0 0 0)
(3.71827e-10 5.50591e-11 -2.79054e-11)
(7.16486e-10 1.07949e-10 -5.53382e-11)
(1.03179e-09 1.59979e-10 -8.35022e-11)
(1.32664e-09 2.1397e-10 -1.14276e-10)
(1.60871e-09 2.72632e-10 -1.4939e-10)
(1.88466e-09 3.38799e-10 -1.90481e-10)
(2.16021e-09 4.15627e-10 -2.3905e-10)
(2.43987e-09 5.06831e-10 -2.9631e-10)
(2.72638e-09 6.16912e-10 -3.62842e-10)
(3.01953e-09 7.51325e-10 -4.37983e-10)
(3.31455e-09 9.16531e-10 -5.18869e-10)
(3.59999e-09 1.11948e-09 -5.9915e-10)
(3.85652e-09 1.3652e-09 -6.67796e-10)
(4.05933e-09 1.64728e-09 -7.09429e-10)
(4.18325e-09 1.90558e-09 -7.06836e-10)
(4.444e-09 2.74722e-09 -7.88977e-10)
(0 0 0)
(5.50064e-10 7.95135e-11 -4.08096e-11)
(1.05973e-09 1.5581e-10 -8.08973e-11)
(1.52571e-09 2.30702e-10 -1.22002e-10)
(1.96113e-09 3.08155e-10 -1.66859e-10)
(2.37739e-09 3.91932e-10 -2.17999e-10)
(2.78451e-09 4.85894e-10 -2.77848e-10)
(3.19136e-09 5.94238e-10 -3.48705e-10)
(3.60544e-09 7.21767e-10 -4.32585e-10)
(4.03223e-09 8.7406e-10 -5.3084e-10)
(4.47384e-09 1.05743e-09 -6.43464e-10)
(4.92661e-09 1.27839e-09 -7.68005e-10)
(5.37777e-09 1.5418e-09 -8.98142e-10)
(5.80238e-09 1.84586e-09 -1.0225e-09)
(6.1644e-09 2.16909e-09 -1.12516e-09)
(6.42416e-09 2.42817e-09 -1.18392e-09)
(7.11052e-09 3.30808e-09 -1.51037e-09)
(0 0 0)
(7.19505e-10 1.00545e-10 -5.25437e-11)
(1.38585e-09 1.96888e-10 -1.04101e-10)
(1.99455e-09 2.91185e-10 -1.56868e-10)
(2.56272e-09 3.88282e-10 -2.1433e-10)
(3.10529e-09 4.92702e-10 -2.79734e-10)
(3.63557e-09 6.08946e-10 -3.56223e-10)
(4.16573e-09 7.4179e-10 -4.46878e-10)
(4.7068e-09 8.96495e-10 -5.54595e-10)
(5.26824e-09 1.0789e-09 -6.81767e-10)
(5.85665e-09 1.29516e-09 -8.29636e-10)
(6.47314e-09 1.55074e-09 -9.97195e-10)
(7.10873e-09 1.84756e-09 -1.17951e-09)
(7.73768e-09 2.17754e-09 -1.36551e-09)
(8.31201e-09 2.50856e-09 -1.53549e-09)
(8.76253e-09 2.74667e-09 -1.65192e-09)
(9.79445e-09 3.55543e-09 -2.14982e-09)
(0 0 0)
(8.77665e-10 1.17372e-10 -6.28334e-11)
(1.69002e-09 2.29657e-10 -1.24397e-10)
(2.43129e-09 3.39193e-10 -1.87238e-10)
(3.12218e-09 4.51408e-10 -2.55458e-10)
(3.78078e-09 5.71252e-10 -3.32879e-10)
(4.4235e-09 7.03505e-10 -4.23243e-10)
(5.06574e-09 8.53041e-10 -5.30296e-10)
(5.72228e-09 1.02502e-09 -6.57753e-10)
(6.40737e-09 1.22493e-09 -8.09088e-10)
(7.13397e-09 1.45823e-09 -9.87041e-10)
(7.91164e-09 1.72929e-09 -1.19266e-09)
(8.74147e-09 2.03852e-09 -1.42351e-09)
(9.60563e-09 2.37583e-09 -1.67015e-09)
(1.04492e-08 2.70621e-09 -1.90913e-09)
(1.11582e-08 2.93087e-09 -2.08414e-09)
(1.25436e-08 3.71716e-09 -2.65623e-09)
(0 0 0)
(1.02237e-09 1.29441e-10 -7.14861e-11)
(1.96804e-09 2.53065e-10 -1.41396e-10)
(2.82981e-09 3.73225e-10 -2.12505e-10)
(3.63141e-09 4.95644e-10 -2.89363e-10)
(4.39363e-09 6.25384e-10 -3.76196e-10)
(5.13549e-09 7.6715e-10 -4.77147e-10)
(5.87517e-09 9.2552e-10 -5.96412e-10)
(6.63091e-09 1.10509e-09 -7.38275e-10)
(7.42159e-09 1.31047e-09 -9.07022e-10)
(8.26705e-09 1.5461e-09 -1.10665e-09)
(9.18724e-09 1.81543e-09 -1.34023e-09)
(1.01988e-08 2.11898e-09 -1.60851e-09)
(1.13042e-08 2.44957e-09 -1.90637e-09)
(1.24631e-08 2.77909e-09 -2.21315e-09)
(1.35293e-08 3.0126e-09 -2.46208e-09)
(1.54952e-08 3.85701e-09 -3.14615e-09)
(0 0 0)
(1.15182e-09 1.36442e-10 -7.84023e-11)
(2.21647e-09 2.66533e-10 -1.54898e-10)
(3.18512e-09 3.92521e-10 -2.32361e-10)
(4.08389e-09 5.20142e-10 -3.15598e-10)
(4.9356e-09 6.54306e-10 -4.09041e-10)
(5.76114e-09 7.99361e-10 -5.16996e-10)
(6.5807e-09 9.59267e-10 -6.43801e-10)
(7.4149e-09 1.13768e-09 -7.93907e-10)
(8.28594e-09 1.33794e-09 -9.7184e-10)
(9.21872e-09 1.5629e-09 -1.18206e-09)
(1.02416e-08 1.8145e-09 -1.42858e-09)
(1.13858e-08 2.09296e-09 -1.71428e-09)
(1.26791e-08 2.39484e-09 -2.03895e-09)
(1.4121e-08 2.70566e-09 -2.39274e-09)
(1.55942e-08 2.95623e-09 -2.72367e-09)
(1.89256e-08 3.97721e-09 -3.77572e-09)
(0 0 0)
(1.26456e-09 1.38278e-10 -8.35724e-11)
(2.43253e-09 2.69922e-10 -1.64892e-10)
(3.4933e-09 3.96985e-10 -2.46797e-10)
(4.4746e-09 5.24978e-10 -3.34168e-10)
(5.40051e-09 6.58458e-10 -4.3143e-10)
(6.29295e-09 8.01223e-10 -5.42801e-10)
(7.17298e-09 9.56407e-10 -6.72434e-10)
(8.06208e-09 1.1265e-09 -8.2447e-10)
(8.9834e-09 1.31321e-09 -1.00298e-09)
(9.96315e-09 1.5172e-09 -1.21172e-09)
(1.10317e-08 1.73752e-09 -1.4537e-09)
(1.22233e-08 1.97058e-09 -1.73016e-09)
(1.35715e-08 2.20764e-09 -2.03835e-09)
(1.50894e-08 2.42658e-09 -2.36501e-09)
(1.67204e-08 2.55293e-09 -2.662e-09)
(2.26051e-08 3.96292e-09 -4.42844e-09)
(0 0 0)
(0 0 0)
(0 0 0)
(0 0 0)
(0 0 0)
(0 0 0)
(0 0 0)
(0 0 0)
(0 0 0)
(0 0 0)
(0 0 0)
(0 0 0)
(0 0 0)
(0 0 0)
(0 0 0)
(0 0 0)
(0 0 0)
(0 0 0)
(1.87295e-10 2.95517e-11 -1.3949e-11)
(3.60772e-10 5.80027e-11 -2.76843e-11)
(5.19224e-10 8.61236e-11 -4.18331e-11)
(6.6703e-10 1.15508e-10 -5.73672e-11)
(8.07926e-10 1.47717e-10 -7.51962e-11)
(9.4507e-10 1.84413e-10 -9.61942e-11)
(1.08102e-09 2.27514e-10 -1.21179e-10)
(1.21757e-09 2.79366e-10 -1.5082e-10)
(1.3554e-09 3.42988e-10 -1.85432e-10)
(1.49347e-09 4.22412e-10 -2.24597e-10)
(1.6283e-09 5.23246e-10 -2.66518e-10)
(1.75323e-09 6.53596e-10 -3.07058e-10)
(1.85874e-09 8.25192e-10 -3.38486e-10)
(1.93515e-09 1.05146e-09 -3.48751e-10)
(1.97564e-09 1.31583e-09 -3.26883e-10)
(2.04402e-09 2.24626e-09 -5.44081e-11)
(0 0 0)
(3.71358e-10 5.77481e-11 -2.74602e-11)
(7.15233e-10 1.13305e-10 -5.44872e-11)
(1.02921e-09 1.6814e-10 -8.23084e-11)
(1.32199e-09 2.25319e-10 -1.12833e-10)
(1.60099e-09 2.87815e-10 -1.47855e-10)
(1.87257e-09 3.5876e-10 -1.89116e-10)
(2.142e-09 4.41712e-10 -2.38284e-10)
(2.41323e-09 5.40942e-10 -2.96811e-10)
(2.68827e-09 6.61792e-10 -3.65598e-10)
(2.9661e-09 8.11073e-10 -4.44374e-10)
(3.24103e-09 9.97539e-10 -5.30678e-10)
(3.50103e-09 1.23223e-09 -6.18499e-10)
(3.72712e-09 1.5277e-09 -6.9709e-10)
(3.89689e-09 1.89036e-09 -7.5189e-10)
(3.99053e-09 2.2742e-09 -7.71293e-10)
(3.92701e-09 3.05061e-09 -7.57242e-10)
(0 0 0)
(5.49394e-10 8.33895e-11 -4.01519e-11)
(1.05794e-09 1.63524e-10 -7.9639e-11)
(1.52199e-09 2.42441e-10 -1.20235e-10)
(1.95442e-09 3.24457e-10 -1.64717e-10)
(2.36626e-09 4.13693e-10 -2.15711e-10)
(2.76711e-09 5.14423e-10 -2.75798e-10)
(3.1652e-09 6.31376e-10 -3.47527e-10)
(3.56725e-09 7.70089e-10 -4.33282e-10)
(3.97774e-09 9.37213e-10 -5.34928e-10)
(4.39749e-09 1.14071e-09 -6.53116e-10)
(4.82132e-09 1.38975e-09 -7.8615e-10)
(5.23478e-09 1.69354e-09 -9.2847e-10)
(5.61145e-09 2.05768e-09 -1.06947e-09)
(5.91461e-09 2.47258e-09 -1.19463e-09)
(6.10365e-09 2.87109e-09 -1.28743e-09)
(6.21035e-09 3.55447e-09 -1.40606e-09)
(0 0 0)
(7.18667e-10 1.05432e-10 -5.16848e-11)
(1.38358e-09 2.06606e-10 -1.02456e-10)
(1.98985e-09 3.05956e-10 -1.54552e-10)
(2.55423e-09 4.08752e-10 -2.11515e-10)
(3.09122e-09 5.19949e-10 -2.76707e-10)
(3.61362e-09 6.4454e-10 -3.53476e-10)
(4.13285e-09 7.87913e-10 -4.45229e-10)
(4.65902e-09 9.56166e-10 -5.55363e-10)
(5.20036e-09 1.15633e-09 -6.86986e-10)
(5.76193e-09 1.39636e-09 -8.42316e-10)
(6.34281e-09 1.68448e-09 -1.02157e-09)
(6.93125e-09 2.02702e-09 -1.22121e-09)
(7.49769e-09 2.42301e-09 -1.4317e-09)
(7.98876e-09 2.8518e-09 -1.63529e-09)
(8.32451e-09 3.23893e-09 -1.7998e-09)
(8.57098e-09 3.79622e-09 -1.99808e-09)
(0 0 0)
(8.76697e-10 1.23058e-10 -6.17879e-11)
(1.68738e-09 2.40954e-10 -1.22392e-10)
(2.42579e-09 3.56336e-10 -1.84407e-10)
(3.11223e-09 4.7511e-10 -2.52001e-10)
(3.76433e-09 6.027e-10 -3.2913e-10)
(4.39791e-09 7.44416e-10 -4.19774e-10)
(5.02758e-09 9.05793e-10 -5.28073e-10)
(5.66716e-09 1.09287e-09 -6.58353e-10)
(6.32965e-09 1.31236e-09 -8.14996e-10)
(7.02643e-09 1.57162e-09 -1.00204e-09)
(7.76502e-09 1.87797e-09 -1.22229e-09)
(8.5434e-09 2.23665e-09 -1.47555e-09)
(9.3383e-09 2.64553e-09 -1.75505e-09)
(1.00838e-08 3.08271e-09 -2.04023e-09)
(1.06379e-08 3.47216e-09 -2.27885e-09)
(1.10492e-08 3.98735e-09 -2.52378e-09)
(0 0 0)
(1.02131e-09 1.35692e-10 -7.02719e-11)
(1.96512e-09 2.65471e-10 -1.39063e-10)
(2.82369e-09 3.9202e-10 -2.09202e-10)
(3.62033e-09 5.21561e-10 -2.85305e-10)
(4.37536e-09 6.59649e-10 -3.71743e-10)
(5.10717e-09 8.11537e-10 -4.72923e-10)
(5.8332e-09 9.82455e-10 -5.93471e-10)
(6.57073e-09 1.17787e-09 -7.38359e-10)
(7.33755e-09 1.40363e-09 -9.12913e-10)
(8.15225e-09 1.66609e-09 -1.12267e-09)
(9.03337e-09 1.97186e-09 -1.37292e-09)
(9.99555e-09 2.32709e-09 -1.66752e-09)
(1.10371e-08 2.73474e-09 -2.00553e-09)
(1.21048e-08 3.18435e-09 -2.37108e-09)
(1.30006e-08 3.6081e-09 -2.69933e-09)
(1.38109e-08 4.23143e-09 -3.04275e-09)
(0 0 0)
(1.15071e-09 1.4301e-10 -7.70393e-11)
(2.21336e-09 2.79558e-10 -1.52275e-10)
(3.17856e-09 4.12219e-10 -2.28633e-10)
(4.07201e-09 5.47234e-10 -3.10987e-10)
(4.91604e-09 6.90003e-10 -4.03914e-10)
(5.73097e-09 8.454e-10 -5.11985e-10)
(6.53626e-09 1.01801e-09 -6.39985e-10)
(7.35169e-09 1.2123e-09 -7.93064e-10)
(8.19861e-09 1.43275e-09 -9.7683e-10)
(9.10118e-09 1.68403e-09 -1.19735e-09)
(1.00874e-08 1.97124e-09 -1.46102e-09)
(1.11887e-08 2.30052e-09 -1.77422e-09)
(1.24334e-08 2.6803e-09 -2.14206e-09)
(1.3816e-08 3.11958e-09 -2.56231e-09)
(1.51534e-08 3.5864e-09 -2.98561e-09)
(1.71486e-08 4.47157e-09 -3.63126e-09)
(0 0 0)
(1.26341e-09 1.44915e-10 -8.20828e-11)
(2.42929e-09 2.83074e-10 -1.62021e-10)
(3.48645e-09 4.16844e-10 -2.42701e-10)
(4.4622e-09 5.52231e-10 -3.29063e-10)
(5.38015e-09 6.94253e-10 -4.25671e-10)
(6.26168e-09 8.47199e-10 -5.36995e-10)
(7.1272e-09 1.01477e-09 -6.67611e-10)
(7.99748e-09 1.20014e-09 -8.22323e-10)
(8.89505e-09 1.40601e-09 -1.0062e-09)
(9.84578e-09 1.63452e-09 -1.22447e-09)
(1.08805e-08 1.88728e-09 -1.48221e-09)
(1.20354e-08 2.16531e-09 -1.78351e-09)
(1.33483e-08 2.46849e-09 -2.12938e-09)
(1.48366e-08 2.78997e-09 -2.51067e-09)
(1.64161e-08 3.07536e-09 -2.87738e-09)
(2.0808e-08 4.48514e-09 -4.11499e-09)
(0 0 0)
(0 0 0)
(0 0 0)
(0 0 0)
(0 0 0)
(0 0 0)
(0 0 0)
(0 0 0)
(0 0 0)
(0 0 0)
(0 0 0)
(0 0 0)
(0 0 0)
(0 0 0)
(0 0 0)
(0 0 0)
(0 0 0)
(0 0 0)
(1.86595e-10 3.07831e-11 -1.31967e-11)
(3.59217e-10 6.04473e-11 -2.62088e-11)
(5.16487e-10 8.9823e-11 -3.96503e-11)
(6.62593e-10 1.20596e-10 -5.44697e-11)
(8.01044e-10 1.54416e-10 -7.15697e-11)
(9.34704e-10 1.93034e-10 -9.18389e-11)
(1.06575e-09 2.38464e-10 -1.16138e-10)
(1.19547e-09 2.93167e-10 -1.45219e-10)
(1.32396e-09 3.6029e-10 -1.79526e-10)
(1.44953e-09 4.44017e-10 -2.18822e-10)
(1.56813e-09 5.50077e-10 -2.61563e-10)
(1.67296e-09 6.86406e-10 -3.0397e-10)
(1.75523e-09 8.63307e-10 -3.39016e-10)
(1.80735e-09 1.08884e-09 -3.56466e-10)
(1.82709e-09 1.33707e-09 -3.48698e-10)
(1.88934e-09 2.15715e-09 -2.22843e-10)
(0 0 0)
(3.69993e-10 6.01536e-11 -2.59771e-11)
(7.12198e-10 1.18078e-10 -5.15783e-11)
(1.02387e-09 1.75359e-10 -7.80058e-11)
(1.31332e-09 2.3524e-10 -1.07123e-10)
(1.58754e-09 3.00862e-10 -1.40709e-10)
(1.85231e-09 3.75524e-10 -1.80535e-10)
(2.11214e-09 4.62962e-10 -2.28353e-10)
(2.37e-09 5.67646e-10 -2.85775e-10)
(2.62667e-09 6.95134e-10 -3.53951e-10)
(2.8797e-09 8.52453e-10 -4.32945e-10)
(3.12198e-09 1.04843e-09 -5.2068e-10)
(3.34039e-09 1.29347e-09 -6.11428e-10)
(3.51596e-09 1.59706e-09 -6.94297e-10)
(3.62808e-09 1.95601e-09 -7.53527e-10)
(3.66491e-09 2.31027e-09 -7.75311e-10)
(3.50726e-09 2.9206e-09 -7.32068e-10)
(0 0 0)
(5.47421e-10 8.68603e-11 -3.79775e-11)
(1.05354e-09 1.70407e-10 -7.53748e-11)
(1.51425e-09 2.5284e-10 -1.13929e-10)
(1.94186e-09 3.38727e-10 -1.5635e-10)
(2.34679e-09 4.32427e-10 -2.05242e-10)
(2.73779e-09 5.38438e-10 -2.63228e-10)
(3.12199e-09 6.61725e-10 -3.3298e-10)
(3.50466e-09 8.08074e-10 -4.17113e-10)
(3.88838e-09 9.84382e-10 -5.1785e-10)
(4.27166e-09 1.19881e-09 -6.36313e-10)
(4.64657e-09 1.4604e-09 -7.71263e-10)
(4.99579e-09 1.77717e-09 -9.1715e-10)
(5.29042e-09 2.15019e-09 -1.0618e-09)
(5.4932e-09 2.55756e-09 -1.18516e-09)
(5.57545e-09 2.9166e-09 -1.26217e-09)
(5.47018e-09 3.42556e-09 -1.28446e-09)
(0 0 0)
(7.16157e-10 1.09814e-10 -4.88748e-11)
(1.37799e-09 2.15288e-10 -9.69467e-11)
(1.97999e-09 3.19057e-10 -1.46407e-10)
(2.53824e-09 4.26703e-10 -2.0071e-10)
(3.06646e-09 5.4346e-10 -2.63192e-10)
(3.57637e-09 6.74593e-10 -3.37251e-10)
(4.07801e-09 8.25756e-10 -4.2645e-10)
(4.5796e-09 1.00332e-09 -5.3448e-10)
(5.08688e-09 1.21456e-09 -6.64914e-10)
(5.60161e-09 1.4676e-09 -8.20577e-10)
(6.11865e-09 1.77042e-09 -1.00227e-09)
(6.62092e-09 2.12781e-09 -1.20641e-09)
(7.07268e-09 2.5335e-09 -1.4211e-09)
(7.41605e-09 2.95326e-09 -1.62075e-09)
(7.58807e-09 3.29616e-09 -1.76193e-09)
(7.49905e-09 3.67976e-09 -1.85097e-09)
(0 0 0)
(8.73734e-10 1.28163e-10 -5.84118e-11)
(1.68077e-09 2.51062e-10 -1.15774e-10)
(2.41414e-09 3.71568e-10 -1.74629e-10)
(3.09337e-09 4.95939e-10 -2.39035e-10)
(3.73517e-09 6.29912e-10 -3.12917e-10)
(4.35413e-09 7.79089e-10 -4.00313e-10)
(4.96325e-09 9.49287e-10 -5.0554e-10)
(5.57415e-09 1.14682e-09 -6.33273e-10)
(6.19681e-09 1.37868e-09 -7.88445e-10)
(6.83859e-09 1.65238e-09 -9.75846e-10)
(7.50139e-09 1.97507e-09 -1.19906e-09)
(8.1754e-09 2.35058e-09 -1.45804e-09)
(8.82677e-09 2.77174e-09 -1.74363e-09)
(9.37934e-09 3.20292e-09 -2.02677e-09)
(9.71132e-09 3.55018e-09 -2.24287e-09)
(9.65116e-09 3.90035e-09 -2.41082e-09)
(0 0 0)
(1.01799e-09 1.41311e-10 -6.64095e-11)
(1.95771e-09 2.76587e-10 -1.31495e-10)
(2.81064e-09 4.08749e-10 -1.98025e-10)
(3.59924e-09 5.44392e-10 -2.70494e-10)
(4.3428e-09 6.89399e-10 -3.53233e-10)
(5.05843e-09 8.49319e-10 -4.50706e-10)
(5.7618e-09 1.02968e-09 -5.67734e-10)
(6.4678e-09 1.23621e-09 -7.09664e-10)
(7.19098e-09 1.47505e-09 -8.82434e-10)
(7.94539e-09 1.75277e-09 -1.09243e-09)
(8.74319e-09 2.07605e-09 -1.34589e-09)
(9.58949e-09 2.45024e-09 -1.64703e-09)
(1.04682e-08 2.87438e-09 -1.99274e-09)
(1.13087e-08 3.32549e-09 -2.35827e-09)
(1.19301e-08 3.71583e-09 -2.66503e-09)
(1.21403e-08 4.18792e-09 -2.97071e-09)
(0 0 0)
(1.14712e-09 1.48922e-10 -7.27764e-11)
(2.20537e-09 2.91245e-10 -1.43927e-10)
(3.16449e-09 4.29787e-10 -2.16312e-10)
(4.04931e-09 5.71165e-10 -2.94674e-10)
(4.88111e-09 7.21106e-10 -3.8354e-10)
(5.67888e-09 8.84785e-10 -4.87537e-10)
(6.46028e-09 1.06706e-09 -6.11642e-10)
(7.24269e-09 1.27267e-09 -7.61387e-10)
(8.04417e-09 1.50635e-09 -9.42995e-10)
(8.88435e-09 1.77308e-09 -1.1634e-09)
(9.78483e-09 2.0782e-09 -1.42995e-09)
(1.07672e-08 2.42772e-09 -1.74942e-09)
(1.1844e-08 2.82772e-09 -2.12458e-09)
(1.29857e-08 3.27723e-09 -2.54307e-09)
(1.40133e-08 3.7233e-09 -2.93715e-09)
(1.53025e-08 4.48644e-09 -3.52672e-09)
(0 0 0)
(1.25965e-09 1.50898e-10 -7.75072e-11)
(2.42092e-09 2.94894e-10 -1.53065e-10)
(3.47174e-09 4.34593e-10 -2.29496e-10)
(4.43851e-09 5.76371e-10 -3.11598e-10)
(5.34385e-09 7.25563e-10 -4.0388e-10)
(6.2078e-09 8.86739e-10 -5.10858e-10)
(7.04906e-09 1.06386e-09 -6.3729e-10)
(7.88609e-09 1.26034e-09 -7.8834e-10)
(8.73835e-09 1.4791e-09 -9.69647e-10)
(9.6276e-09 1.72255e-09 -1.18723e-09)
(1.0579e-08 1.99258e-09 -1.44697e-09)
(1.16204e-08 2.29029e-09 -1.75316e-09)
(1.27769e-08 2.61411e-09 -2.10434e-09)
(1.4046e-08 2.95044e-09 -2.48168e-09)
(1.5334e-08 3.22894e-09 -2.81549e-09)
(1.88705e-08 4.52643e-09 -3.78941e-09)
(0 0 0)
(0 0 0)
(0 0 0)
(0 0 0)
(0 0 0)
(0 0 0)
(0 0 0)
(0 0 0)
(0 0 0)
(0 0 0)
(0 0 0)
(0 0 0)
(0 0 0)
(0 0 0)
(0 0 0)
(0 0 0)
(0 0 0)
(0 0 0)
(1.85587e-10 3.18394e-11 -1.19329e-11)
(3.57044e-10 6.25331e-11 -2.37143e-11)
(5.12783e-10 9.29476e-11 -3.59178e-11)
(6.56748e-10 1.24826e-10 -4.94252e-11)
(7.92149e-10 1.59855e-10 -6.50887e-11)
(9.21471e-10 1.99805e-10 -8.37643e-11)
(1.04639e-09 2.46669e-10 -1.06305e-10)
(1.16759e-09 3.02829e-10 -1.33493e-10)
(1.28442e-09 3.71253e-10 -1.6586e-10)
(1.39449e-09 4.55746e-10 -2.03354e-10)
(1.49326e-09 5.61287e-10 -2.44764e-10)
(1.57422e-09 6.94346e-10 -2.86936e-10)
(1.63047e-09 8.62532e-10 -3.24044e-10)
(1.65893e-09 1.07009e-09 -3.48077e-10)
(1.6647e-09 1.29153e-09 -3.53263e-10)
(1.75019e-09 2.03565e-09 -3.16483e-10)
(0 0 0)
(3.6802e-10 6.22178e-11 -2.34872e-11)
(7.07942e-10 1.22153e-10 -4.6665e-11)
(1.01662e-09 1.81461e-10 -7.06557e-11)
(1.30188e-09 2.43494e-10 -9.71916e-11)
(1.57012e-09 3.11468e-10 -1.27953e-10)
(1.82638e-09 3.88713e-10 -1.64644e-10)
(2.07419e-09 4.78922e-10 -2.08997e-10)
(2.31525e-09 5.86413e-10 -2.62672e-10)
(2.54884e-09 7.1638e-10 -3.26968e-10)
(2.77088e-09 8.75109e-10 -4.02239e-10)
(2.97291e-09 1.06997e-09 -4.86881e-10)
(3.14164e-09 1.30863e-09 -5.75867e-10)
(3.26068e-09 1.59574e-09 -6.59241e-10)
(3.31717e-09 1.92194e-09 -7.22321e-10)
(3.31463e-09 2.22957e-09 -7.51599e-10)
(3.17082e-09 2.72272e-09 -7.33331e-10)
(0 0 0)
(5.44559e-10 8.98407e-11 -3.43325e-11)
(1.04737e-09 1.76287e-10 -6.81841e-11)
(1.50372e-09 2.61638e-10 -1.03176e-10)
(1.92525e-09 3.50617e-10 -1.41828e-10)
(2.32151e-09 4.47688e-10 -1.86598e-10)
(2.70016e-09 5.57384e-10 -2.40008e-10)
(3.06687e-09 6.84612e-10 -3.04692e-10)
(3.42501e-09 8.34926e-10 -3.83316e-10)
(3.77476e-09 1.0147e-09 -4.78274e-10)
(4.11185e-09 1.23104e-09 -5.91007e-10)
(4.42558e-09 1.49097e-09 -7.20724e-10)
(4.69696e-09 1.79878e-09 -8.62301e-10)
(4.89877e-09 2.1494e-09 -1.00356e-09)
(5.00342e-09 2.51396e-09 -1.12354e-09)
(5.00728e-09 2.81486e-09 -1.19638e-09)
(4.8701e-09 3.19582e-09 -1.22059e-09)
(0 0 0)
(7.12506e-10 1.13581e-10 -4.41748e-11)
(1.37011e-09 2.22717e-10 -8.76786e-11)
(1.96656e-09 3.30161e-10 -1.32556e-10)
(2.51706e-09 4.41691e-10 -1.82019e-10)
(3.03424e-09 5.62667e-10 -2.39212e-10)
(3.52843e-09 6.98398e-10 -3.07401e-10)
(4.00777e-09 8.54456e-10 -3.9009e-10)
(4.47795e-09 1.03692e-09 -4.91009e-10)
(4.9414e-09 1.25243e-09 -6.13897e-10)
(5.3958e-09 1.50783e-09 -7.61893e-10)
(5.83132e-09 1.80872e-09 -9.36182e-10)
(6.22669e-09 2.15561e-09 -1.13339e-09)
(6.54547e-09 2.53544e-09 -1.34114e-09)
(6.74005e-09 2.90684e-09 -1.53244e-09)
(6.78392e-09 3.18593e-09 -1.66422e-09)
(6.59295e-09 3.43786e-09 -1.75649e-09)
(0 0 0)
(8.69415e-10 1.32558e-10 -5.27808e-11)
(1.67145e-09 2.59723e-10 -1.04676e-10)
(2.39827e-09 3.84502e-10 -1.58058e-10)
(3.06836e-09 5.13377e-10 -2.16696e-10)
(3.69716e-09 6.52225e-10 -2.84291e-10)
(4.29763e-09 8.06696e-10 -3.64716e-10)
(4.88052e-09 9.82515e-10 -4.62209e-10)
(5.45436e-09 1.18568e-09 -5.81463e-10)
(6.02504e-09 1.42246e-09 -7.27566e-10)
(6.59448e-09 1.69904e-09 -9.05592e-10)
(7.15787e-09 2.02004e-09 -1.11946e-09)
(7.69809e-09 2.38488e-09 -1.36925e-09)
(8.17678e-09 2.77939e-09 -1.64534e-09)
(8.52661e-09 3.16067e-09 -1.91788e-09)
(8.67373e-09 3.44223e-09 -2.12479e-09)
(8.42064e-09 3.6584e-09 -2.31935e-09)
(0 0 0)
(1.01313e-09 1.46156e-10 -5.99884e-11)
(1.94724e-09 2.8613e-10 -1.18849e-10)
(2.79283e-09 4.22987e-10 -1.79164e-10)
(3.57122e-09 5.63564e-10 -2.45106e-10)
(4.30032e-09 7.13897e-10 -3.20752e-10)
(4.9954e-09 8.79588e-10 -4.10382e-10)
(5.66966e-09 1.06606e-09 -5.18717e-10)
(6.33455e-09 1.27874e-09 -6.51108e-10)
(6.99988e-09 1.52306e-09 -8.1362e-10)
(7.6733e-09 1.80428e-09 -1.01289e-09)
(8.35848e-09 2.12668e-09 -1.25542e-09)
(9.05023e-09 2.49141e-09 -1.54543e-09)
(9.72324e-09 2.89073e-09 -1.8792e-09)
(1.03112e-08 3.29401e-09 -2.23144e-09)
(1.06894e-08 3.61971e-09 -2.52791e-09)
(1.0606e-08 3.95395e-09 -2.88748e-09)
(0 0 0)
(1.14187e-09 1.54028e-10 -6.57157e-11)
(2.19405e-09 3.01297e-10 -1.30034e-10)
(3.14528e-09 4.44775e-10 -1.95621e-10)
(4.01915e-09 5.91328e-10 -2.66875e-10)
(4.83553e-09 7.46844e-10 -3.48054e-10)
(5.61147e-09 9.16554e-10 -4.43587e-10)
(6.36207e-09 1.10523e-09 -5.58342e-10)
(7.1011e-09 1.31731e-09 -6.97841e-10)
(7.84163e-09 1.55692e-09 -8.68415e-10)
(8.59643e-09 1.82782e-09 -1.07719e-09)
(9.3777e-09 2.1333e-09 -1.33171e-09)
(1.01949e-08 2.47571e-09 -1.63847e-09)
(1.10471e-08 2.85501e-09 -1.999e-09)
(1.19022e-08 3.26239e-09 -2.39886e-09)
(1.26342e-08 3.64753e-09 -2.773e-09)
(1.35169e-08 4.2719e-09 -3.40634e-09)
(0 0 0)
(1.25414e-09 1.56073e-10 -6.99596e-11)
(2.40906e-09 3.0508e-10 -1.38229e-10)
(3.45164e-09 4.49775e-10 -2.0744e-10)
(4.40708e-09 5.96783e-10 -2.82034e-10)
(5.29652e-09 7.51603e-10 -3.66247e-10)
(6.13815e-09 9.18869e-10 -4.64397e-10)
(6.9481e-09 1.10247e-09 -5.81132e-10)
(7.74131e-09 1.30557e-09 -7.21605e-10)
(8.53241e-09 1.53055e-09 -8.91557e-10)
(9.33653e-09 1.77884e-09 -1.09718e-09)
(1.01698e-08 2.0507e-09 -1.34447e-09)
(1.10484e-08 2.34443e-09 -1.63734e-09)
(1.19842e-08 2.65405e-09 -1.97282e-09)
(1.29693e-08 2.96063e-09 -2.32908e-09)
(1.39424e-08 3.19585e-09 -2.63573e-09)
(1.68776e-08 4.34118e-09 -3.53332e-09)
(0 0 0)
(0 0 0)
(0 0 0)
(0 0 0)
(0 0 0)
(0 0 0)
(0 0 0)
(0 0 0)
(0 0 0)
(0 0 0)
(0 0 0)
(0 0 0)
(0 0 0)
(0 0 0)
(0 0 0)
(0 0 0)
(0 0 0)
(0 0 0)
(1.84437e-10 3.27032e-11 -1.01947e-11)
(3.54588e-10 6.42273e-11 -2.02722e-11)
(5.0865e-10 9.54551e-11 -3.07362e-11)
(6.50296e-10 1.28154e-10 -4.23587e-11)
(7.82408e-10 1.64011e-10 -5.5895e-11)
(9.07055e-10 2.04753e-10 -7.21163e-11)
(1.02538e-09 2.52267e-10 -9.18096e-11)
(1.13742e-09 3.08721e-10 -1.15724e-10)
(1.2418e-09 3.76697e-10 -1.44426e-10)
(1.33547e-09 4.59341e-10 -1.78023e-10)
(1.41367e-09 5.6056e-10 -2.15695e-10)
(1.47071e-09 6.85209e-10 -2.55087e-10)
(1.50245e-09 8.38864e-10 -2.91833e-10)
(1.5112e-09 1.02456e-09 -3.20059e-10)
(1.50844e-09 1.22102e-09 -3.34849e-10)
(1.61343e-09 1.91137e-09 -3.4878e-10)
(0 0 0)
(3.65765e-10 6.39065e-11 -2.00646e-11)
(7.03127e-10 1.25465e-10 -3.98884e-11)
(1.00851e-09 1.86361e-10 -6.04574e-11)
(1.28922e-09 2.49996e-10 -8.32876e-11)
(1.55102e-09 3.19585e-10 -1.09868e-10)
(1.7981e-09 3.98375e-10 -1.41733e-10)
(2.03293e-09 4.89852e-10 -1.80477e-10)
(2.25589e-09 5.97923e-10 -2.27679e-10)
(2.46471e-09 7.27045e-10 -2.84662e-10)
(2.65382e-09 8.82248e-10 -3.52009e-10)
(2.81392e-09 1.06889e-09 -4.28696e-10)
(2.93273e-09 1.29169e-09 -5.10855e-10)
(2.99856e-09 1.55182e-09 -5.90526e-10)
(3.00881e-09 1.83849e-09 -6.55707e-10)
(2.98107e-09 2.1026e-09 -6.93883e-10)
(2.86038e-09 2.51781e-09 -7.11209e-10)
(0 0 0)
(5.41281e-10 9.22811e-11 -2.93257e-11)
(1.04037e-09 1.81072e-10 -5.82746e-11)
(1.49195e-09 2.68714e-10 -8.82704e-11)
(1.90687e-09 3.60002e-10 -1.21519e-10)
(2.29375e-09 4.59398e-10 -1.60195e-10)
(2.65903e-09 5.71318e-10 -2.0657e-10)
(3.00681e-09 7.00379e-10 -2.63059e-10)
(3.33837e-09 8.51557e-10 -3.32175e-10)
(3.65146e-09 1.03019e-09 -4.16275e-10)
(3.93915e-09 1.24165e-09 -5.16982e-10)
(4.18869e-09 1.49022e-09 -6.34055e-10)
(4.38127e-09 1.77631e-09 -7.6352e-10)
(4.49511e-09 2.0906e-09 -8.95194e-10)
(4.51712e-09 2.40337e-09 -1.01092e-09)
(4.46756e-09 2.64943e-09 -1.0868e-09)
(4.32951e-09 2.94138e-09 -1.14247e-09)
(0 0 0)
(7.08319e-10 1.1667e-10 -3.77259e-11)
(1.36117e-09 2.28769e-10 -7.49212e-11)
(1.95152e-09 3.39106e-10 -1.13382e-10)
(2.4936e-09 4.53551e-10 -1.55917e-10)
(2.99882e-09 5.77459e-10 -2.05309e-10)
(3.47595e-09 7.15998e-10 -2.64496e-10)
(3.93104e-09 8.74389e-10 -3.36682e-10)
(4.36701e-09 1.05801e-09 -4.25354e-10)
(4.78282e-09 1.27225e-09 -5.34114e-10)
(5.17209e-09 1.52189e-09 -6.66152e-10)
(5.52113e-09 1.80927e-09 -8.23048e-10)
(5.80696e-09 2.13041e-09 -1.00242e-09)
(5.9978e-09 2.4676e-09 -1.19395e-09)
(6.06396e-09 2.77917e-09 -1.37427e-09)
(6.01493e-09 2.99633e-09 -1.50443e-09)
(5.7807e-09 3.15193e-09 -1.62872e-09)
(0 0 0)
(8.64458e-10 1.36168e-10 -4.50652e-11)
(1.66088e-09 2.66793e-10 -8.94235e-11)
(2.38049e-09 3.94948e-10 -1.35157e-10)
(3.04063e-09 5.27219e-10 -1.85562e-10)
(3.65534e-09 6.69486e-10 -2.43911e-10)
(4.2357e-09 8.27246e-10 -3.13683e-10)
(4.78994e-09 1.00583e-09 -3.98746e-10)
(5.32319e-09 1.21047e-09 -5.03463e-10)
(5.83687e-09 1.44608e-09 -6.32667e-10)
(6.32738e-09 1.71656e-09 -7.91319e-10)
(6.78383e-09 2.02305e-09 -9.8351e-10)
(7.18457e-09 2.36006e-09 -1.21007e-09)
(7.4934e-09 2.70833e-09 -1.46349e-09)
(7.6625e-09 3.02456e-09 -1.71863e-09)
(7.66732e-09 3.23867e-09 -1.92029e-09)
(7.30156e-09 3.34885e-09 -2.15273e-09)
(0 0 0)
(1.00756e-09 1.50142e-10 -5.1205e-11)
(1.93536e-09 2.93935e-10 -1.01501e-10)
(2.77287e-09 4.34516e-10 -1.53154e-10)
(3.54015e-09 5.7884e-10 -2.09808e-10)
(4.25354e-09 7.32952e-10 -2.7507e-10)
(4.92624e-09 9.02298e-10 -3.52775e-10)
(5.56859e-09 1.09191e-09 -4.47225e-10)
(6.18818e-09 1.30642e-09 -5.63376e-10)
(6.78957e-09 1.5499e-09 -7.06943e-10)
(7.37357e-09 1.82533e-09 -8.84294e-10)
(7.9357e-09 2.13345e-09 -1.10184e-09)
(8.46293e-09 2.47034e-09 -1.36421e-09)
(8.92792e-09 2.82262e-09 -1.66939e-09)
(9.28194e-09 3.15815e-09 -1.99712e-09)
(9.4607e-09 3.41128e-09 -2.2824e-09)
(9.16763e-09 3.62566e-09 -2.68534e-09)
(0 0 0)
(1.13585e-09 1.58236e-10 -5.60759e-11)
(2.18121e-09 3.09537e-10 -1.11014e-10)
(3.12376e-09 4.56946e-10 -1.67156e-10)
(3.98573e-09 6.07458e-10 -2.28338e-10)
(4.78533e-09 7.6698e-10 -2.9832e-10)
(5.53747e-09 9.40598e-10 -3.8107e-10)
(6.25422e-09 1.13272e-09 -4.81016e-10)
(6.94523e-09 1.34703e-09 -6.0326e-10)
(7.6179e-09 1.58637e-09 -7.53739e-10)
(8.27742e-09 1.8524e-09 -9.39225e-10)
(8.92643e-09 2.14509e-09 -1.16698e-09)
(9.56386e-09 2.462e-09 -1.44352e-09)
(1.01821e-08 2.79724e-09 -1.77126e-09)
(1.07599e-08 3.13856e-09 -2.13936e-09)
(1.12336e-08 3.44747e-09 -2.4915e-09)
(1.17786e-08 3.93044e-09 -3.15192e-09)
(0 0 0)
(1.24782e-09 1.60345e-10 -5.96765e-11)
(2.39561e-09 3.13449e-10 -1.17966e-10)
(3.42915e-09 4.6214e-10 -1.77176e-10)
(4.37227e-09 6.13182e-10 -2.41182e-10)
(5.24446e-09 7.72102e-10 -3.13715e-10)
(6.06172e-09 9.43413e-10 -3.98642e-10)
(6.83723e-09 1.13068e-09 -5.00184e-10)
(7.58182e-09 1.33641e-09 -6.231e-10)
(8.30449e-09 1.56188e-09 -7.72762e-10)
(9.01281e-09 1.80672e-09 -9.55036e-10)
(9.71323e-09 2.06845e-09 -1.17567e-09)
(1.04111e-08 2.34154e-09 -1.43853e-09)
(1.11097e-08 2.6156e-09 -1.74128e-09)
(1.1807e-08 2.86972e-09 -2.06495e-09)
(1.24854e-08 3.04591e-09 -2.34677e-09)
(1.48516e-08 3.99797e-09 -3.18628e-09)
(0 0 0)
(0 0 0)
(0 0 0)
(0 0 0)
(0 0 0)
(0 0 0)
(0 0 0)
(0 0 0)
(0 0 0)
(0 0 0)
(0 0 0)
(0 0 0)
(0 0 0)
(0 0 0)
(0 0 0)
(0 0 0)
(0 0 0)
(0 0 0)
(1.83314e-10 3.33681e-11 -8.0425e-12)
(3.52204e-10 6.55224e-11 -1.60004e-11)
(5.04661e-10 9.73465e-11 -2.42803e-11)
(6.44099e-10 1.30612e-10 -3.35033e-11)
(7.7309e-10 1.66978e-10 -4.42831e-11)
(8.93306e-10 2.08096e-10 -5.72546e-11)
(1.00539e-09 2.55701e-10 -7.30779e-11)
(1.10878e-09 3.11691e-10 -9.24008e-11)
(1.20148e-09 3.78196e-10 -1.15755e-10)
(1.27992e-09 4.57659e-10 -1.43347e-10)
(1.33933e-09 5.52968e-10 -1.74724e-10)
(1.37504e-09 6.67701e-10 -2.0834e-10)
(1.38565e-09 8.06291e-10 -2.41248e-10)
(1.37805e-09 9.71969e-10 -2.69393e-10)
(1.36817e-09 1.14793e-09 -2.88415e-10)
(1.47996e-09 1.79447e-09 -3.24881e-10)
(0 0 0)
(3.63562e-10 6.52072e-11 -1.58276e-11)
(6.98449e-10 1.27998e-10 -3.14808e-11)
(1.00068e-09 1.9006e-10 -4.7755e-11)
(1.27706e-09 2.54803e-10 -6.58701e-11)
(1.53273e-09 3.25389e-10 -8.70354e-11)
(1.7711e-09 4.04919e-10 -1.12513e-10)
(1.99363e-09 4.96591e-10 -1.43639e-10)
(2.19947e-09 6.03791e-10 -1.81768e-10)
(2.385e-09 7.30114e-10 -2.28108e-10)
(2.54346e-09 8.79254e-10 -2.83345e-10)
(2.66517e-09 1.05467e-09 -3.4701e-10)
(2.7394e-09 1.25876e-09 -4.16548e-10)
(2.75939e-09 1.49089e-09 -4.86366e-10)
(2.7316e-09 1.74132e-09 -5.47603e-10)
(2.68364e-09 1.96987e-09 -5.89172e-10)
(2.56749e-09 2.32813e-09 -6.30076e-10)
(0 0 0)
(5.38077e-10 9.41623e-11 -2.31306e-11)
(1.03357e-09 1.84734e-10 -4.59862e-11)
(1.48056e-09 2.74063e-10 -6.97155e-11)
(1.88918e-09 3.66954e-10 -9.60926e-11)
(2.26715e-09 4.67796e-10 -1.26884e-10)
(2.61973e-09 5.80803e-10 -1.63956e-10)
(2.94951e-09 7.10184e-10 -2.09326e-10)
(3.25589e-09 8.60187e-10 -2.65136e-10)
(3.53438e-09 1.03496e-09 -3.33479e-10)
(3.77589e-09 1.238e-09 -4.15957e-10)
(3.96641e-09 1.47102e-09 -5.12831e-10)
(4.08835e-09 1.7314e-09 -6.21583e-10)
(4.12621e-09 2.00772e-09 -7.34949e-10)
(4.08018e-09 2.27257e-09 -8.3912e-10)
(3.9882e-09 2.47341e-09 -9.13471e-10)
(3.83082e-09 2.70095e-09 -9.93468e-10)
(0 0 0)
(7.04226e-10 1.19054e-10 -2.97519e-11)
(1.35248e-09 2.3341e-10 -5.91131e-11)
(1.93698e-09 3.45884e-10 -8.95324e-11)
(2.47102e-09 4.62361e-10 -1.23269e-10)
(2.96486e-09 5.88112e-10 -1.62581e-10)
(3.42574e-09 7.2806e-10 -2.0988e-10)
(3.85774e-09 8.86928e-10 -2.67835e-10)
(4.26116e-09 1.06922e-09 -3.39404e-10)
(4.63182e-09 1.27887e-09 -4.27721e-10)
(4.95988e-09 1.51843e-09 -5.35718e-10)
(5.2289e-09 1.78716e-09 -6.6522e-10)
(5.41584e-09 2.07748e-09 -8.15149e-10)
(5.49532e-09 2.3694e-09 -9.78378e-10)
(5.45482e-09 2.62446e-09 -1.13722e-09)
(5.33167e-09 2.78929e-09 -1.25879e-09)
(5.04605e-09 2.87508e-09 -1.40454e-09)
(0 0 0)
(8.59611e-10 1.38958e-10 -3.55332e-11)
(1.65059e-09 2.72225e-10 -7.05413e-11)
(2.36328e-09 4.02881e-10 -1.06703e-10)
(3.01394e-09 5.37538e-10 -1.46669e-10)
(3.61521e-09 6.81983e-10 -1.93092e-10)
(4.17639e-09 8.41444e-10 -2.48826e-10)
(4.70327e-09 1.02071e-09 -3.17086e-10)
(5.19776e-09 1.22403e-09 -4.01555e-10)
(5.65714e-09 1.45475e-09 -5.0639e-10)
(6.07298e-09 1.71429e-09 -6.36e-10)
(6.42966e-09 2.00033e-09 -7.94332e-10)
(6.70322e-09 2.30334e-09 -9.83085e-10)
(6.86235e-09 2.60123e-09 -1.19779e-09)
(6.87896e-09 2.85389e-09 -1.41997e-09)
(6.76834e-09 3.00847e-09 -1.60363e-09)
(6.30327e-09 3.03779e-09 -1.84874e-09)
(0 0 0)
(1.00211e-09 1.53228e-10 -4.03652e-11)
(1.9238e-09 2.99944e-10 -8.00489e-11)