/*--------------------------------*- C++ -*----------------------------------*\
| =========                 |                                                 |
| \\      /  F ield         | foam-extend: Open Source CFD                    |
|  \\    /   O peration     | Version:     3.1                                |
|   \\  /    A nd           | Web:         http://www.extend-project.de       |
|    \\/     M anipulation  |                                                 |
\*---------------------------------------------------------------------------*/
FoamFile
{
    version     2.0;
    format      ascii;
    class       surfaceVectorField;
    location    "2.4";
    object      Sf;
}
// * * * * * * * * * * * * * * * * * * * * * * * * * * * * * * * * * * * * * //

dimensions      [0 2 0 0 0 0 0];

internalField   nonuniform List<vector> 
41600
(
(0.000625504 -2.76505e-06 -1.92921e-08)
(-5.03638e-07 0.00070589 -1.25452e-08)
(6.86327e-09 7.72118e-09 0.000704807)
(-7.02199e-09 -7.89974e-09 -0.000704775)
(0.000625986 -5.32751e-06 -3.71785e-08)
(-4.8227e-07 0.000705688 -3.75397e-08)
(6.77382e-09 2.30609e-08 0.000705272)
(-6.92993e-09 -2.35936e-08 -0.000705216)
(0.000626457 -7.66327e-06 -5.3643e-08)
(-4.70955e-07 0.000705462 -6.3025e-08)
(7.10389e-09 3.86643e-08 0.000705707)
(-7.25871e-09 -3.95468e-08 -0.000705627)
(0.00062694 -9.8279e-06 -6.91786e-08)
(-4.83001e-07 0.000705291 -9.07384e-08)
(7.98934e-09 5.56236e-08 0.000706171)
(-8.1405e-09 -5.68504e-08 -0.000706064)
(0.000627457 -1.18664e-05 -8.43184e-08)
(-5.166e-07 0.000705165 -1.22841e-07)
(9.31922e-09 7.50601e-08 0.000706685)
(-9.45378e-09 -7.6609e-08 -0.000706547)
(0.000628029 -1.38182e-05 -9.95438e-08)
(-5.71626e-07 0.000705079 -1.61732e-07)
(1.08297e-08 9.76791e-08 0.000707273)
(-1.09258e-08 -9.94888e-08 -0.000707096)
(0.000628677 -1.57115e-05 -1.14548e-07)
(-6.48397e-07 0.00070502 -2.10177e-07)
(1.20527e-08 1.23373e-07 0.000707953)
(-1.20862e-08 -1.25331e-07 -0.000707728)
(0.000629426 -1.75583e-05 -1.28481e-07)
(-7.48488e-07 0.000704974 -2.71496e-07)
(1.22407e-08 1.50687e-07 0.000708744)
(-1.21638e-08 -1.52599e-07 -0.000708459)
(0.0006303 -1.93517e-05 -1.40117e-07)
(-8.74588e-07 0.00070492 -3.50157e-07)
(9.87139e-09 1.75664e-07 0.000709667)
(-9.58544e-09 -1.7717e-07 -0.000709305)
(0.000631328 -2.10511e-05 -1.46759e-07)
(-1.02899e-06 0.000704825 -4.52424e-07)
(1.93811e-09 1.89362e-07 0.000710736)
(-1.35033e-09 -1.89882e-07 -0.000710277)
(0.000632544 -2.25781e-05 -1.44955e-07)
(-1.21642e-06 0.000704651 -5.87827e-07)
(-1.72475e-08 1.73295e-07 0.000711973)
(1.81467e-08 -1.72113e-07 -0.000711387)
(0.000633985 -2.38027e-05 -1.32137e-07)
(-1.44214e-06 0.000704346 -7.72737e-07)
(-5.77785e-08 9.16995e-08 0.000713398)
(5.87806e-08 -8.82694e-08 -0.000712638)
(0.000635692 -2.45456e-05 -1.11439e-07)
(-1.70763e-06 0.000703862 -1.03749e-06)
(-1.37554e-07 -1.2173e-07 0.000715049)
(1.37984e-07 1.27089e-07 -0.000714032)
(0.000637679 -2.46494e-05 -1.06414e-07)
(-1.98597e-06 0.000703223 -1.43836e-06)
(-2.78545e-07 -5.76876e-07 0.000717005)
(2.78062e-07 5.8288e-07 -0.000715572)
(0.000639681 -2.41598e-05 -2.04769e-07)
(-2.02169e-06 0.000702609 -2.05057e-06)
(-4.52127e-07 -1.37774e-06 0.000719317)
(4.71174e-07 1.40455e-06 -0.000717168)
(-8.00703e-06 0.000699764 -4.99988e-07)
(-1.9851e-06 -4.00629e-06 0.000724106)
(4.04812e-06 6.26185e-06 -0.000722923)
(0.000625483 -2.72637e-06 -5.76843e-08)
(-9.86308e-07 0.000708617 -2.45839e-08)
(2.01812e-08 7.26002e-09 0.00070756)
(-2.06583e-08 -7.43964e-09 -0.00070749)
(0.000625945 -5.25474e-06 -1.11309e-07)
(-9.43969e-07 0.000708217 -7.35215e-08)
(1.98432e-08 2.15957e-08 0.000707799)
(-2.03207e-08 -2.21408e-08 -0.000707709)
(0.000626396 -7.5597e-06 -1.60898e-07)
(-9.20834e-07 0.000707768 -1.23333e-07)
(2.07529e-08 3.60147e-08 0.000707983)
(-2.12396e-08 -3.6945e-08 -0.000707873)
(0.000626856 -9.69568e-06 -2.07771e-07)
(-9.43106e-07 0.000707428 -1.77368e-07)
(2.33463e-08 5.16107e-08 0.00070825)
(-2.38303e-08 -5.29452e-08 -0.000708117)
(0.000627348 -1.17118e-05 -2.53758e-07)
(-1.00739e-06 0.000707183 -2.39849e-07)
(2.72438e-08 6.949e-08 0.000708612)
(-2.76895e-08 -7.12293e-08 -0.000708449)
(0.000627889 -1.36472e-05 -3.00247e-07)
(-1.11242e-06 0.000707016 -3.15432e-07)
(3.1724e-08 9.03748e-08 0.000709082)
(-3.20925e-08 -9.25144e-08 -0.000708882)
(0.000628499 -1.55292e-05 -3.46238e-07)
(-1.25891e-06 0.000706905 -4.09348e-07)
(3.57446e-08 1.14666e-07 0.000709664)
(-3.59326e-08 -1.17146e-07 -0.000709419)
(0.0006292 -1.73741e-05 -3.89565e-07)
(-1.44957e-06 0.000706821 -5.28041e-07)
(3.74038e-08 1.42222e-07 0.00071036)
(-3.72115e-08 -1.44809e-07 -0.00071006)
(0.000630012 -1.91836e-05 -4.26209e-07)
(-1.68764e-06 0.000706732 -6.79839e-07)
(3.26164e-08 1.71369e-07 0.000711168)
(-3.17752e-08 -1.73628e-07 -0.000710802)
(0.000630958 -2.09383e-05 -4.48769e-07)
(-1.97635e-06 0.000706581 -8.75964e-07)
(1.37369e-08 1.976e-07 0.000712069)
(-1.19623e-08 -1.98903e-07 -0.000711623)
(0.000632057 -2.25808e-05 -4.47456e-07)
(-2.31851e-06 0.000706293 -1.13317e-06)
(-3.30635e-08 2.12161e-07 0.000713031)
(3.58831e-08 -2.11643e-07 -0.000712487)
(0.000633323 -2.40087e-05 -4.12493e-07)
(-2.71094e-06 0.000705771 -1.47841e-06)
(-1.3154e-07 2.0014e-07 0.000714002)
(1.35053e-07 -1.96702e-07 -0.000713331)
(0.000634743 -2.50628e-05 -3.46193e-07)
(-3.1305e-06 0.000704909 -1.95868e-06)
(-3.1986e-07 1.40887e-07 0.000714917)
(3.22769e-07 -1.33177e-07 -0.000714062)
(0.000636226 -2.55584e-05 -2.97177e-07)
(-3.47123e-06 0.000703704 -2.65609e-06)
(-6.3538e-07 1.87374e-08 0.000715764)
(6.37603e-07 -4.57072e-09 -0.000714596)
(0.000637392 -2.54319e-05 -4.68392e-07)
(-3.23417e-06 0.000702455 -3.68394e-06)
(-9.85043e-07 -1.40764e-07 0.000716687)
(1.0316e-06 1.67328e-07 -0.000714882)
(-7.53838e-06 0.000697696 -2.68119e-06)
(-3.28009e-06 6.18927e-07 0.000715609)
(6.34675e-06 -1.87553e-06 -0.00071217)
(0.000625443 -2.64701e-06 -9.53506e-08)
(-1.42823e-06 0.000711264 -3.55781e-08)
(3.24718e-08 6.56015e-09 0.000710242)
(-3.32654e-08 -6.73688e-09 -0.000710135)
(0.000625865 -5.10155e-06 -1.84256e-07)
(-1.36578e-06 0.000710672 -1.06364e-07)
(3.17695e-08 1.94429e-08 0.000710238)
(-3.25727e-08 -1.99768e-08 -0.000710116)
(0.000626275 -7.33754e-06 -2.66552e-07)
(-1.33016e-06 0.000710004 -1.78289e-07)
(3.31333e-08 3.22987e-08 0.000710153)
(-3.39539e-08 -3.31894e-08 -0.000710016)
(0.000626693 -9.41138e-06 -3.44661e-07)
(-1.35986e-06 0.000709503 -2.56101e-07)
(3.73254e-08 4.62154e-08 0.000710205)
(-3.81483e-08 -4.74599e-08 -0.000710048)
(0.000627136 -1.13735e-05 -4.22403e-07)
(-1.44918e-06 0.000709147 -3.45862e-07)
(4.36506e-08 6.22958e-08 0.000710397)
(-4.4457e-08 -6.39253e-08 -0.000710213)
(0.000627619 -1.32597e-05 -5.01509e-07)
(-1.59484e-06 0.000708904 -4.5413e-07)
(5.12307e-08 8.15182e-08 0.000710725)
(-5.19608e-08 -8.35663e-08 -0.000710507)
(0.000628158 -1.51003e-05 -5.80457e-07)
(-1.79743e-06 0.000708748 -5.88102e-07)
(5.89648e-08 1.04973e-07 0.00071118)
(-5.94134e-08 -1.07394e-07 -0.000710922)
(0.000628768 -1.69229e-05 -6.56777e-07)
(-2.05969e-06 0.000708646 -7.56588e-07)
(6.44918e-08 1.33787e-07 0.00071175)
(-6.43215e-08 -1.3645e-07 -0.000711446)
(0.000629463 -1.87427e-05 -7.23857e-07)
(-2.38422e-06 0.000708554 -9.70744e-07)
(6.28557e-08 1.69321e-07 0.000712413)
(-6.16493e-08 -1.71972e-07 -0.000712055)
(0.000630257 -2.05693e-05 -7.71025e-07)
(-2.77317e-06 0.00070841 -1.24533e-06)
(4.50709e-08 2.13635e-07 0.000713124)
(-4.23201e-08 -2.15793e-07 -0.000712708)
(0.000631156 -2.23878e-05 -7.82746e-07)
(-3.22196e-06 0.000708112 -1.60143e-06)
(-4.15837e-09 2.70534e-07 0.000713807)
(8.9075e-09 -2.71288e-07 -0.000713327)
(0.000632147 -2.41493e-05 -7.39568e-07)
(-3.70871e-06 0.00070753 -2.07089e-06)
(-1.09367e-07 3.48538e-07 0.000714341)
(1.16146e-07 -3.46304e-07 -0.000713792)
(0.00063318 -2.57525e-05 -6.30214e-07)
(-4.1722e-06 0.000706504 -2.70618e-06)
(-3.03762e-07 4.67924e-07 0.000714566)
(3.11834e-07 -4.60138e-07 -0.000713928)
(0.000634129 -2.70263e-05 -4.88365e-07)
(-4.43038e-06 0.000704961 -3.59636e-06)
(-6.04588e-07 6.7129e-07 0.000714374)
(6.14969e-07 -6.54297e-07 -0.000713576)
(0.000634689 -2.77979e-05 -5.23665e-07)
(-3.84742e-06 0.000703207 -4.88257e-06)
(-8.84151e-07 1.00764e-06 0.000714004)
(9.38139e-07 -9.87379e-07 -0.00071277)
(-8.93271e-06 0.000699327 -3.42276e-06)
(-2.00645e-06 1.89446e-06 0.000711557)
(3.69914e-06 -2.27904e-06 -0.000710196)
(0.000625385 -2.52598e-06 -1.31083e-07)
(-1.81172e-06 0.00071379 -4.50446e-08)
(4.33943e-08 5.71137e-09 0.000712812)
(-4.44857e-08 -5.86978e-09 -0.000712671)
(0.000625751 -4.86494e-06 -2.53778e-07)
(-1.73081e-06 0.000713011 -1.34637e-07)
(4.23515e-08 1.69761e-08 0.000712551)
(-4.34535e-08 -1.74483e-08 -0.0007124)
(0.000626104 -6.99433e-06 -3.67176e-07)
(-1.68274e-06 0.000712135 -2.25502e-07)
(4.41687e-08 2.83392e-08 0.000712185)
(-4.52824e-08 -2.91199e-08 -0.000712024)
(0.000626462 -8.96811e-06 -4.75872e-07)
(-1.71604e-06 0.000711478 -3.23558e-07)
(4.98888e-08 4.07772e-08 0.000712009)
(-5.10277e-08 -4.18898e-08 -0.000711833)
(0.000626836 -1.08291e-05 -5.85587e-07)
(-1.82187e-06 0.000711009 -4.36329e-07)
(5.86399e-08 5.53931e-08 0.000712014)
(-5.98184e-08 -5.68968e-08 -0.000711813)
(0.000627237 -1.26163e-05 -6.97598e-07)
(-1.99559e-06 0.000710694 -5.71646e-07)
(6.96993e-08 7.34114e-08 0.000712179)
(-7.08092e-08 -7.53496e-08 -0.000711949)
(0.000627677 -1.43699e-05 -8.10934e-07)
(-2.23654e-06 0.000710504 -7.38073e-07)
(8.21222e-08 9.63269e-08 0.000712488)
(-8.29085e-08 -9.87178e-08 -0.000712224)
(0.000628164 -1.61275e-05 -9.24041e-07)
(-2.54595e-06 0.000710407 -9.45961e-07)
(9.39247e-08 1.26277e-07 0.00071292)
(-9.4016e-08 -1.2914e-07 -0.000712617)
(0.000628703 -1.79239e-05 -1.02934e-06)
(-2.92498e-06 0.000710354 -1.20821e-06)
(1.01375e-07 1.67141e-07 0.000713434)
(-1.002e-07 -1.70414e-07 -0.000713091)
(0.000629299 -1.97907e-05 -1.11453e-06)
(-3.37247e-06 0.00071028 -1.54166e-06)
(9.75409e-08 2.26103e-07 0.000713972)
(-9.43197e-08 -2.29478e-07 -0.000713591)
(0.000629949 -2.17625e-05 -1.1601e-06)
(-3.87787e-06 0.000710087 -1.96975e-06)
(7.12177e-08 3.16015e-07 0.000714434)
(-6.49618e-08 -3.1871e-07 -0.00071402)
(0.000630635 -2.3862e-05 -1.1374e-06)
(-4.4044e-06 0.00070963 -2.5269e-06)
(6.65046e-09 4.60152e-07 0.000714665)
(3.47869e-09 -4.60517e-07 -0.000714232)
(0.000631306 -2.60724e-05 -1.01354e-06)
(-4.85832e-06 0.00070871 -3.26757e-06)
(-1.15431e-07 6.9592e-07 0.00071445)
(1.29805e-07 -6.91095e-07 -0.000714013)
(0.000631871 -2.82615e-05 -7.80929e-07)
(-5.01454e-06 0.000707137 -4.28422e-06)
(-2.97676e-07 1.06799e-06 0.000713598)
(3.1766e-07 -1.05471e-06 -0.000713143)
(0.000632158 -3.00897e-05 -5.7131e-07)
(-4.18437e-06 0.000705022 -5.74685e-06)
(-4.52644e-07 1.57357e-06 0.000712319)
(5.0197e-07 -1.56036e-06 -0.000711664)
(-9.43462e-06 0.000702442 -4.01828e-06)
(-8.83411e-07 2.46794e-06 0.000709453)
(1.80281e-06 -3.03573e-06 -0.000709435)
(0.000625312 -2.36117e-06 -1.64072e-07)
(-2.12284e-06 0.000716151 -5.26768e-08)
(5.30152e-08 5.08804e-09 0.00071523)
(-5.43774e-08 -5.23431e-09 -0.000715058)
(0.000625609 -4.54349e-06 -3.17957e-07)
(-2.02571e-06 0.000715194 -1.5733e-07)
(5.17623e-08 1.51767e-08 0.000714702)
(-5.31322e-08 -1.56147e-08 -0.000714526)
(0.000625893 -6.52629e-06 -4.60553e-07)
(-1.96545e-06 0.000714118 -2.6321e-07)
(5.4093e-08 2.54504e-08 0.000714049)
(-5.54905e-08 -2.62e-08 -0.000713869)
(0.000626176 -8.35562e-06 -5.98774e-07)
(-1.99772e-06 0.000713309 -3.77156e-07)
(6.1302e-08 3.67971e-08 0.000713635)
(-6.2776e-08 -3.79115e-08 -0.000713443)
(0.000626467 -1.0072e-05 -7.38582e-07)
(-2.11111e-06 0.000712727 -5.07584e-07)
(7.25312e-08 5.03071e-08 0.000713435)
(-7.40998e-08 -5.1848e-08 -0.000713224)
(0.000626772 -1.17187e-05 -8.81682e-07)
(-2.29934e-06 0.000712342 -6.63038e-07)
(8.72782e-08 6.72288e-08 0.000713423)
(-8.88217e-08 -6.92697e-08 -0.000713189)
(0.000627096 -1.33362e-05 -1.0294e-06)
(-2.55934e-06 0.000712124 -8.52879e-07)
(1.04957e-07 8.92176e-08 0.000713577)
(-1.06226e-07 -9.18583e-08 -0.000713314)
(0.00062744 -1.49651e-05 -1.18159e-06)
(-2.88947e-06 0.000712039 -1.0882e-06)
(1.24711e-07 1.19017e-07 0.000713866)
(-1.25331e-07 -1.22367e-07 -0.000713571)
(0.000627802 -1.66537e-05 -1.33192e-06)
(-3.28783e-06 0.000712047 -1.38252e-06)
(1.45143e-07 1.61626e-07 0.000714243)
(-1.44424e-07 -1.65758e-07 -0.000713918)
(0.000628177 -1.84597e-05 -1.46896e-06)
(-3.75039e-06 0.000712091 -1.7534e-06)
(1.63303e-07 2.2605e-07 0.000714642)
(-1.60231e-07 -2.30905e-07 -0.000714293)
(0.000628558 -2.04619e-05 -1.57363e-06)
(-4.26557e-06 0.000712094 -2.22572e-06)
(1.74683e-07 3.27899e-07 0.000714967)
(-1.67735e-07 -3.33062e-07 -0.000714606)
(0.000628935 -2.27606e-05 -1.61106e-06)
(-4.79411e-06 0.000711933 -2.83637e-06)
(1.75407e-07 4.93368e-07 0.000715069)
(-1.62619e-07 -4.97481e-07 -0.000714722)
(0.000629289 -2.5434e-05 -1.52794e-06)
(-5.2322e-06 0.000711384 -3.6432e-06)
(1.58281e-07 7.61217e-07 0.00071472)
(-1.38089e-07 -7.61617e-07 -0.000714427)
(0.000629582 -2.84128e-05 -1.26433e-06)
(-5.33657e-06 0.000710109 -4.74467e-06)
(1.15486e-07 1.16851e-06 0.000713632)
(-8.65993e-08 -1.16196e-06 -0.000713435)
(0.000629724 -3.11899e-05 -7.95084e-07)
(-4.36971e-06 0.000707791 -6.32922e-06)
(4.67292e-08 1.68941e-06 0.000711703)
(-3.18055e-09 -1.682e-06 -0.00071159)
(-9.62479e-06 0.000706744 -4.3158e-06)
(1.05043e-07 2.45442e-06 0.000708919)
(-3.20835e-08 -2.86878e-06 -0.000710627)
(0.00062523 -2.15598e-06 -1.94172e-07)
(-2.35085e-06 0.000718308 -5.81989e-08)
(6.17249e-08 4.68685e-09 0.000717455)
(-6.33432e-08 -4.82886e-09 -0.000717256)
(0.000625446 -4.14462e-06 -3.76012e-07)
(-2.24055e-06 0.000717183 -1.73673e-07)
(6.03211e-08 1.39709e-08 0.000716659)
(-6.19518e-08 -1.44021e-08 -0.00071646)
(0.000625651 -5.94303e-06 -5.45265e-07)
(-2.16882e-06 0.000715917 -2.90159e-07)
(6.31465e-08 2.33975e-08 0.000715717)
(-6.4837e-08 -2.41394e-08 -0.000715521)
(0.000625852 -7.59344e-06 -7.09757e-07)
(-2.19645e-06 0.00071496 -4.14999e-07)
(7.17577e-08 3.37745e-08 0.000715058)
(-7.3574e-08 -3.4866e-08 -0.000714856)
(0.000626052 -9.13524e-06 -8.74908e-07)
(-2.30963e-06 0.00071427 -5.57017e-07)
(8.53567e-08 4.60998e-08 0.000714645)
(-8.73358e-08 -4.76121e-08 -0.000714431)
(0.000626254 -1.06025e-05 -1.04549e-06)
(-2.49907e-06 0.000713812 -7.2509e-07)
(1.03675e-07 6.15564e-08 0.000714448)
(-1.0572e-07 -6.36007e-08 -0.000714216)
(0.000626455 -1.20265e-05 -1.22555e-06)
(-2.75853e-06 0.000713551 -9.28765e-07)
(1.26644e-07 8.17847e-08 0.000714435)
(-1.28522e-07 -8.44981e-08 -0.000714179)
(0.00062665 -1.34446e-05 -1.41598e-06)
(-3.08296e-06 0.000713461 -1.17894e-06)
(1.54696e-07 1.09391e-07 0.000714569)
(-1.56067e-07 -1.12967e-07 -0.000714288)
(0.000626829 -1.49064e-05 -1.6139e-06)
(-3.46668e-06 0.000713513 -1.48871e-06)
(1.88778e-07 1.48848e-07 0.000714806)
(-1.88926e-07 -1.53546e-07 -0.000714502)
(0.000626979 -1.64853e-05 -1.81132e-06)
(-3.90258e-06 0.000713676 -1.87511e-06)
(2.29927e-07 2.07808e-07 0.000715087)
(-2.27686e-07 -2.13856e-07 -0.000714768)
(0.000627088 -1.82908e-05 -1.99391e-06)
(-4.38144e-06 0.000713907 -2.36317e-06)
(2.79802e-07 2.98768e-07 0.000715339)
(-2.73257e-07 -3.06205e-07 -0.000715019)
(0.000627155 -2.04763e-05 -2.12974e-06)
(-4.87476e-06 0.000714126 -2.99206e-06)
(3.44549e-07 4.4154e-07 0.000715447)
(-3.30693e-07 -4.4987e-07 -0.000715155)
(0.000627203 -2.32226e-05 -2.16051e-06)
(-5.30456e-06 0.000714137 -3.82773e-06)
(4.27875e-07 6.66393e-07 0.000715212)
(-4.03737e-07 -6.73886e-07 -0.000714997)
(0.000627289 -2.66354e-05 -1.98205e-06)
(-5.45986e-06 0.000713525 -4.9864e-06)
(5.11851e-07 1.00521e-06 0.000714303)
(-4.74853e-07 -1.00812e-06 -0.00071424)
(0.000627434 -3.02583e-05 -1.33995e-06)
(-4.55616e-06 0.000711414 -6.67385e-06)
(5.09594e-07 1.44442e-06 0.000712132)
(-4.67485e-07 -1.44415e-06 -0.000712429)
(-9.81728e-06 0.00071282 -4.45352e-06)
(9.37568e-07 2.09005e-06 0.000710263)
(-1.51741e-06 -2.38769e-06 -0.000713819)
(0.00062514 -1.91768e-06 -2.2032e-07)
(-2.48862e-06 0.000720225 -6.14019e-08)
(6.97982e-08 4.38134e-09 0.000719453)
(-7.16607e-08 -4.51422e-09 -0.000719229)
(0.00062527 -3.682e-06 -4.26167e-07)
(-2.36923e-06 0.000718948 -1.8308e-07)
(6.82084e-08 1.30156e-08 0.000718392)
(-7.00899e-08 -1.34157e-08 -0.000718177)
(0.000625391 -5.26954e-06 -6.18168e-07)
(-2.28812e-06 0.000717506 -3.05486e-07)
(7.14241e-08 2.16753e-08 0.000717168)
(-7.33945e-08 -2.23604e-08 -0.00071696)
(0.000625506 -6.7158e-06 -8.03652e-07)
(-2.30891e-06 0.000716407 -4.3607e-07)
(8.12501e-08 3.10774e-08 0.000716264)
(-8.33911e-08 -3.20914e-08 -0.000716057)
(0.000625614 -8.04859e-06 -9.89001e-07)
(-2.41508e-06 0.000715605 -5.83613e-07)
(9.69201e-08 4.20929e-08 0.000715635)
(-9.93094e-08 -4.3511e-08 -0.000715423)
(0.000625712 -9.28933e-06 -1.18282e-06)
(-2.59413e-06 0.000715054 -7.56963e-07)
(1.18397e-07 5.57135e-08 0.000715241)
(-1.20963e-07 -5.76493e-08 -0.000715016)
(0.000625792 -1.04603e-05 -1.39035e-06)
(-2.83628e-06 0.000714724 -9.6518e-07)
(1.46068e-07 7.32559e-08 0.000715042)
(-1.4861e-07 -7.58683e-08 -0.000714798)
(0.000625844 -1.15886e-05 -1.61391e-06)
(-3.13255e-06 0.000714593 -1.2181e-06)
(1.81279e-07 9.66039e-08 0.000714999)
(-1.83532e-07 -1.00126e-07 -0.000714736)
(0.000625851 -1.27113e-05 -1.85425e-06)
(-3.47253e-06 0.00071464 -1.52736e-06)
(2.26574e-07 1.28581e-07 0.000715074)
(-2.2787e-07 -1.33342e-07 -0.000714795)
(0.000625791 -1.3884e-05 -2.10807e-06)
(-3.84406e-06 0.000714855 -1.90786e-06)
(2.85515e-07 1.73436e-07 0.000715221)
(-2.84638e-07 -1.79832e-07 -0.000714934)
(0.000625642 -1.52006e-05 -2.36923e-06)
(-4.23675e-06 0.000715232 -2.38197e-06)
(3.63292e-07 2.37267e-07 0.000715391)
(-3.58252e-07 -2.45822e-07 -0.000715111)
(0.000625389 -1.68011e-05 -2.62052e-06)
(-4.63468e-06 0.000715738 -2.98772e-06)
(4.71242e-07 3.28143e-07 0.000715506)
(-4.58675e-07 -3.39609e-07 -0.000715259)
(0.00062507 -1.89123e-05 -2.82412e-06)
(-5.00954e-06 0.000716263 -3.79745e-06)
(6.20911e-07 4.5764e-07 0.000715425)
(-5.96525e-07 -4.72427e-07 -0.000715252)
(0.000624843 -2.18711e-05 -2.87895e-06)
(-5.27521e-06 0.0007165 -4.95964e-06)
(7.93504e-07 6.43504e-07 0.000714899)
(-7.51987e-07 -6.60126e-07 -0.00071487)
(0.000625028 -2.57424e-05 -2.32356e-06)
(-4.78513e-06 0.000715301 -6.74744e-06)
(8.62135e-07 9.07299e-07 0.00071306)
(-8.17451e-07 -9.23383e-07 -0.000713541)
(-1.10108e-05 0.000723391 -4.44246e-06)
(1.71891e-06 1.46607e-06 0.000715108)
(-2.79804e-06 -1.68092e-06 -0.000720743)
(0.000625046 -1.65118e-06 -2.41615e-07)
(7.73497e-08 4.11577e-09 0.000721193)
(-7.94404e-08 -4.2398e-09 -0.000720951)
(-2.53264e-06 0.000721877 -6.22703e-08)
(0.000625088 -3.16997e-06 -4.66746e-07)
(7.55133e-08 1.21864e-08 0.000719882)
(-7.76198e-08 -1.25524e-08 -0.000719655)
(-2.40935e-06 0.000720467 -1.85512e-07)
(0.000625125 -4.53028e-06 -6.76375e-07)
(7.89511e-08 2.01391e-08 0.000718389)
(-8.11743e-08 -2.07554e-08 -0.000718175)
(-2.32253e-06 0.000718866 -3.09117e-07)
(0.000625154 -5.75222e-06 -8.77748e-07)
(8.97277e-08 2.85579e-08 0.000717245)
(-9.21741e-08 -2.94704e-08 -0.000717039)
(-2.33561e-06 0.00071763 -4.40421e-07)
(0.000625172 -6.8494e-06 -1.07936e-06)
(1.07032e-07 3.81423e-08 0.000716395)
(-1.09799e-07 -3.94154e-08 -0.000716189)
(-2.43001e-06 0.000716703 -5.87942e-07)
(0.000625171 -7.83386e-06 -1.29095e-06)
(1.30936e-07 4.95475e-08 0.00071579)
(-1.33988e-07 -5.12745e-08 -0.000715576)
(-2.59063e-06 0.00071604 -7.59922e-07)
(0.000625142 -8.71732e-06 -1.51802e-06)
(1.62109e-07 6.35495e-08 0.000715385)
(-1.65302e-07 -6.58871e-08 -0.000715159)
(-2.80419e-06 0.00071561 -9.64358e-07)
(0.00062507 -9.51024e-06 -1.76485e-06)
(2.02289e-07 8.10971e-08 0.000715141)
(-2.05398e-07 -8.42424e-08 -0.000714903)
(-3.05678e-06 0.000715389 -1.2095e-06)
(0.000624932 -1.02249e-05 -2.03387e-06)
(2.54502e-07 1.03139e-07 0.000715018)
(-2.56931e-07 -1.07338e-07 -0.000714772)
(-3.33185e-06 0.000715359 -1.50457e-06)
(0.000624697 -1.08782e-05 -2.32624e-06)
(3.22936e-07 1.30381e-07 0.000714976)
(-3.23573e-07 -1.36045e-07 -0.000714731)
(-3.60913e-06 0.000715514 -1.86062e-06)
(0.000624322 -1.14926e-05 -2.64345e-06)
(4.13267e-07 1.62798e-07 0.00071497)
(-4.10357e-07 -1.70659e-07 -0.000714742)
(-3.86462e-06 0.000715854 -2.29314e-06)
(0.000623743 -1.20978e-05 -2.98329e-06)
(5.35477e-07 1.96958e-07 0.000714906)
(-5.26058e-07 -2.08385e-07 -0.000714727)
(-4.06509e-06 0.000716355 -2.82688e-06)
(0.000622867 -1.27606e-05 -3.33731e-06)
(6.98948e-07 2.21393e-07 0.000714593)
(-6.78785e-07 -2.38865e-07 -0.000714531)
(-4.1532e-06 0.000716944 -3.50618e-06)
(0.000621543 -1.36542e-05 -3.65859e-06)
(8.84229e-07 2.15804e-07 0.000713603)
(-8.47792e-07 -2.44002e-07 -0.000713826)
(-3.9879e-06 0.000717422 -4.4156e-06)
(0.000619607 -1.54945e-05 -3.56914e-06)
(9.81927e-07 1.80447e-07 0.000710653)
(-9.40347e-07 -2.21456e-07 -0.000711807)
(-2.89081e-06 0.000717183 -5.68316e-06)
(2.51404e-06 5.589e-07 0.000725584)
(-3.94488e-06 -7.12338e-07 -0.000733801)
(-1.68499e-05 0.000744228 -3.70884e-06)
(0.000625525 -2.80081e-06 -1.63983e-08)
(-5.24903e-07 0.000705926 -1.14432e-08)
(6.45462e-09 7.26145e-09 0.000704835)
(0.000626029 -5.3967e-06 -3.17519e-08)
(-5.0337e-07 0.000705722 -3.42237e-08)
(6.37335e-09 2.1691e-08 0.000705321)
(0.000626522 -7.76321e-06 -4.57281e-08)
(-4.92962e-07 0.000705494 -5.73242e-08)
(6.69495e-09 3.63841e-08 0.000705778)
(0.000627031 -9.95667e-06 -5.85673e-08)
(-5.07631e-07 0.000705322 -8.2157e-08)
(7.56174e-09 5.24028e-08 0.000706266)
(0.000627577 -1.20232e-05 -7.08275e-08)
(-5.45615e-07 0.000705196 -1.10485e-07)
(8.86178e-09 7.08443e-08 0.000706808)
(0.000628184 -1.40027e-05 -8.24769e-08)
(-6.06937e-07 0.00070511 -1.44052e-07)
(1.03686e-08 9.24298e-08 0.000707429)
(0.000628877 -1.59228e-05 -9.29685e-08)
(-6.92213e-07 0.000705051 -1.84732e-07)
(1.16856e-08 1.17189e-07 0.000708148)
(0.00062968 -1.77938e-05 -1.01575e-07)
(-8.03333e-07 0.000705003 -2.34535e-07)
(1.21302e-08 1.43956e-07 0.000708987)
(0.000630623 -1.96067e-05 -1.07084e-07)
(-9.43626e-07 0.000704944 -2.9539e-07)
(1.03761e-08 1.69351e-07 0.000709968)
(0.000631737 -2.13165e-05 -1.07574e-07)
(-1.11623e-06 0.000704838 -3.69078e-07)
(3.98313e-09 1.85848e-07 0.000711106)
(0.000633059 -2.28404e-05 -1.01899e-07)
(-1.32739e-06 0.000704644 -4.56748e-07)
(-1.16037e-08 1.7825e-07 0.000712424)
(0.000634629 -2.40472e-05 -9.12959e-08)
(-1.58414e-06 0.000704305 -5.56321e-07)
(-4.36606e-08 1.18405e-07 0.000713944)
(0.000636483 -2.47692e-05 -8.49769e-08)
(-1.88893e-06 0.000703766 -6.54672e-07)
(-1.02577e-07 -4.11329e-08 0.000715697)
(0.000638608 -2.48947e-05 -1.07309e-07)
(-2.20967e-06 0.000703038 -7.07803e-07)
(-1.934e-07 -3.64816e-07 0.000717736)
(0.000640707 -2.45775e-05 -1.83368e-07)
(-2.27489e-06 0.00070231 -6.28818e-07)
(-2.76458e-07 -8.80384e-07 0.000720022)
(-6.1817e-06 0.000701233 -3.77315e-07)
(-9.23574e-07 -2.17928e-06 0.000724912)
(0.000625504 -2.76196e-06 -4.9222e-08)
(-1.02789e-06 0.000708689 -2.24477e-08)
(1.89679e-08 6.81447e-09 0.00070762)
(0.000625987 -5.32383e-06 -9.5396e-08)
(-9.85151e-07 0.000708285 -6.70594e-08)
(1.86409e-08 2.02532e-08 0.000707878)
(0.000626459 -7.66e-06 -1.37599e-07)
(-9.63717e-07 0.000707832 -1.12167e-07)
(1.95144e-08 3.37481e-08 0.00070808)
(0.000626944 -9.82562e-06 -1.76691e-07)
(-9.90993e-07 0.000707491 -1.60555e-07)
(2.20305e-08 4.83538e-08 0.000708368)
(0.000627463 -1.18709e-05 -2.14065e-07)
(-1.06374e-06 0.000707245 -2.15657e-07)
(2.5836e-08 6.51613e-08 0.000708755)
(0.000628039 -1.38356e-05 -2.49757e-07)
(-1.181e-06 0.00070708 -2.80979e-07)
(3.03112e-08 8.49383e-08 0.000709255)
(0.000628692 -1.57462e-05 -2.82284e-07)
(-1.34375e-06 0.000706968 -3.60081e-07)
(3.45531e-08 1.08155e-07 0.000709872)
(0.000629444 -1.76181e-05 -3.09409e-07)
(-1.55556e-06 0.000706882 -4.56567e-07)
(3.68702e-08 1.34823e-07 0.000710609)
(0.00063032 -1.94499e-05 -3.2705e-07)
(-1.8206e-06 0.000706784 -5.74172e-07)
(3.38092e-08 1.63765e-07 0.000711465)
(0.000631342 -2.12181e-05 -3.29317e-07)
(-2.14336e-06 0.000706613 -7.16149e-07)
(1.90221e-08 1.91401e-07 0.000712418)
(0.000632529 -2.28617e-05 -3.12851e-07)
(-2.52849e-06 0.000706289 -8.83552e-07)
(-1.8754e-08 2.10361e-07 0.000713441)
(0.000633883 -2.42709e-05 -2.77588e-07)
(-2.97372e-06 0.000705706 -1.07006e-06)
(-9.6601e-08 2.08431e-07 0.00071448)
(0.000635365 -2.52828e-05 -2.43047e-07)
(-3.45388e-06 0.000704749 -1.24755e-06)
(-2.36455e-07 1.69708e-07 0.000715475)
(0.000636809 -2.57211e-05 -2.67879e-07)
(-3.84687e-06 0.000703412 -1.33172e-06)
(-4.42075e-07 8.34635e-08 0.000716413)
(0.000637796 -2.55607e-05 -4.14487e-07)
(-3.63867e-06 0.000702039 -1.17234e-06)
(-6.08075e-07 -3.01079e-08 0.000717377)
(-5.56183e-06 0.000698201 -3.59999e-07)
(-1.53315e-06 2.92019e-07 0.000716448)
(0.000625462 -2.68176e-06 -8.17729e-08)
(-1.48827e-06 0.000711371 -3.25064e-08)
(3.04884e-08 6.13951e-09 0.000710333)
(0.000625904 -5.16875e-06 -1.58269e-07)
(-1.4252e-06 0.000710774 -9.70507e-08)
(2.98056e-08 1.81972e-08 0.000710344)
(0.000626335 -7.43479e-06 -2.28467e-07)
(-1.39197e-06 0.0007101 -1.62247e-07)
(3.11139e-08 3.02447e-08 0.000710273)
(0.000626775 -9.5377e-06 -2.94228e-07)
(-1.42874e-06 0.000709596 -2.32119e-07)
(3.51594e-08 4.3321e-08 0.000710342)
(0.000627243 -1.15296e-05 -3.57667e-07)
(-1.53009e-06 0.000709241 -3.11536e-07)
(4.13112e-08 5.84733e-08 0.000710556)
(0.000627758 -1.34463e-05 -4.18867e-07)
(-1.69295e-06 0.000709001 -4.05412e-07)
(4.88335e-08 7.66483e-08 0.000710911)
(0.000628334 -1.53174e-05 -4.75534e-07)
(-1.91822e-06 0.000708846 -5.18574e-07)
(5.67755e-08 9.89335e-08 0.000711395)
(0.00062899 -1.71702e-05 -5.23907e-07)
(-2.20975e-06 0.000708742 -6.55862e-07)
(6.31201e-08 1.26526e-07 0.000711998)
(0.00062974 -1.90177e-05 -5.56983e-07)
(-2.5712e-06 0.00070864 -8.222e-07)
(6.37592e-08 1.60867e-07 0.000712694)
(0.000630596 -2.0867e-05 -5.65455e-07)
(-3.00609e-06 0.000708472 -1.02154e-06)
(5.10306e-08 2.03895e-07 0.000713438)
(0.000631562 -2.26968e-05 -5.41072e-07)
(-3.51073e-06 0.000708131 -1.25388e-06)
(1.24212e-08 2.58976e-07 0.000714153)
(0.000632611 -2.44476e-05 -4.76056e-07)
(-4.06183e-06 0.000707473 -1.50739e-06)
(-6.9923e-08 3.32768e-07 0.000714714)
(0.000633659 -2.60003e-05 -3.83214e-07)
(-4.59092e-06 0.000706332 -1.73905e-06)
(-2.15164e-07 4.38384e-07 0.000714965)
(0.000634513 -2.71573e-05 -3.22965e-07)
(-4.89e-06 0.000704643 -1.83088e-06)
(-4.1546e-07 5.97786e-07 0.000714813)
(0.000634866 -2.77322e-05 -3.7691e-07)
(-4.32801e-06 0.000702799 -1.59032e-06)
(-5.48212e-07 8.23261e-07 0.000714476)
(-6.21087e-06 0.000699287 -4.88855e-07)
(-9.39151e-07 1.27353e-06 0.000712328)
(0.000625402 -2.55811e-06 -1.1281e-07)
(-1.88758e-06 0.000713929 -4.11938e-08)
(4.07209e-08 5.35635e-09 0.000712934)
(0.000625785 -4.92761e-06 -2.18217e-07)
(-1.80591e-06 0.000713144 -1.22993e-07)
(3.97168e-08 1.59176e-08 0.000712682)
(0.000626157 -7.08532e-06 -3.15197e-07)
(-1.76071e-06 0.00071226 -2.0555e-07)
(4.14732e-08 2.65784e-08 0.000712325)
(0.000626534 -9.08748e-06 -4.07138e-07)
(-1.80274e-06 0.000711601 -2.93833e-07)
(4.6982e-08 3.82698e-08 0.000712162)
(0.00062693 -1.09782e-05 -4.97159e-07)
(-1.92339e-06 0.000711135 -3.93905e-07)
(5.54405e-08 5.20206e-08 0.000712186)
(0.000627359 -1.27956e-05 -5.84838e-07)
(-2.1179e-06 0.000710823 -5.11604e-07)
(6.6286e-08 6.89784e-08 0.000712373)
(0.00062783 -1.45806e-05 -6.67309e-07)
(-2.38618e-06 0.000710636 -6.52571e-07)
(7.87618e-08 9.05893e-08 0.000712704)
(0.000628353 -1.6371e-05 -7.39708e-07)
(-2.73051e-06 0.00071054 -8.22479e-07)
(9.12379e-08 1.18914e-07 0.000713159)
(0.000628936 -1.82014e-05 -7.93096e-07)
(-3.15306e-06 0.00071048 -1.02674e-06)
(1.00631e-07 1.57496e-07 0.000713692)
(0.00062958 -2.01015e-05 -8.15342e-07)
(-3.65393e-06 0.000710385 -1.26937e-06)
(1.00998e-07 2.12746e-07 0.000714242)
(0.00063028 -2.21007e-05 -7.90096e-07)
(-4.2227e-06 0.00071015 -1.54917e-06)
(8.33836e-08 2.95966e-07 0.000714704)
(0.000631008 -2.42115e-05 -6.98418e-07)
(-4.81912e-06 0.000709617 -1.84974e-06)
(3.57354e-08 4.26098e-07 0.000714916)
(0.000631694 -2.63897e-05 -5.29605e-07)
(-5.33723e-06 0.000708577 -2.11593e-06)
(-5.47033e-08 6.29254e-07 0.000714658)
(0.000632208 -2.84567e-05 -3.15145e-07)
(-5.52135e-06 0.000706851 -2.20492e-06)
(-1.80703e-07 9.26345e-07 0.000713758)
(0.000632404 -3.00234e-05 -1.49482e-07)
(-4.71226e-06 0.000704651 -1.8958e-06)
(-2.6446e-07 1.28787e-06 0.000712459)
(-6.25971e-06 0.000701669 -6.22621e-07)
(-4.00429e-07 1.7657e-06 0.000709768)
(0.000625327 -2.39062e-06 -1.41317e-07)
(-2.21138e-06 0.00071632 -4.81985e-08)
(4.97398e-08 4.76693e-09 0.000715378)
(0.000625638 -4.60106e-06 -2.73963e-07)
(-2.11327e-06 0.000715356 -1.43882e-07)
(4.85238e-08 1.42055e-08 0.000714856)
(0.000625936 -6.61056e-06 -3.96398e-07)
(-2.05615e-06 0.000714271 -2.40285e-07)
(5.07682e-08 2.37988e-08 0.000714206)
(0.000626236 -8.46681e-06 -5.13605e-07)
(-2.0983e-06 0.00071346 -3.43056e-07)
(5.76813e-08 3.43881e-08 0.000713801)
(0.000626544 -1.02098e-05 -6.29097e-07)
(-2.22819e-06 0.000712881 -4.59015e-07)
(6.84675e-08 4.69961e-08 0.000713616)
(0.00062687 -1.18832e-05 -7.41873e-07)
(-2.43939e-06 0.000712501 -5.94527e-07)
(8.27783e-08 6.27873e-08 0.000713619)
(0.000627218 -1.35305e-05 -8.49873e-07)
(-2.72948e-06 0.000712289 -7.55695e-07)
(1.00242e-07 8.3323e-08 0.000713788)
(0.00062759 -1.5193e-05 -9.48314e-07)
(-3.09759e-06 0.00071221 -9.48507e-07)
(1.20215e-07 1.11141e-07 0.00071409)
(0.000627983 -1.69202e-05 -1.02736e-06)
(-3.54268e-06 0.000712218 -1.17841e-06)
(1.41629e-07 1.50757e-07 0.000714474)
(0.000628392 -1.87697e-05 -1.07206e-06)
(-4.06197e-06 0.00071225 -1.4492e-06)
(1.6207e-07 2.10226e-07 0.000714866)
(0.000628811 -2.08194e-05 -1.05938e-06)
(-4.64422e-06 0.000712225 -1.75906e-06)
(1.78099e-07 3.03063e-07 0.000715164)
(0.000629226 -2.31592e-05 -9.55522e-07)
(-5.24551e-06 0.000712 -2.08914e-06)
(1.86124e-07 4.50892e-07 0.000715205)
(0.000629617 -2.5841e-05 -7.15908e-07)
(-5.7476e-06 0.000711337 -2.37712e-06)
(1.77613e-07 6.82118e-07 0.000714741)
(0.000629944 -2.87409e-05 -3.23165e-07)
(-5.8747e-06 0.000709906 -2.46499e-06)
(1.42349e-07 1.01351e-06 0.000713499)
(0.00063013 -3.1249e-05 1.27528e-07)
(-4.93068e-06 0.000707449 -2.11257e-06)
(7.87983e-08 1.39951e-06 0.000711469)
(-6.07175e-06 0.000705095 -7.51551e-07)
(8.20369e-08 1.83641e-06 0.00070871)
(0.000625241 -2.18265e-06 -1.6728e-07)
(-2.44848e-06 0.000718503 -5.32788e-08)