/*--------------------------------*- C++ -*----------------------------------*\
| =========                 |                                                 |
| \\      /  F ield         | foam-extend: Open Source CFD                    |
|  \\    /   O peration     | Version:     3.1                                |
|   \\  /    A nd           | Web:         http://www.extend-project.de       |
|    \\/     M anipulation  |                                                 |
\*---------------------------------------------------------------------------*/
FoamFile
{
    version     2.0;
    format      ascii;
    class       volVectorField;
    location    "2.4";
    object      U;
}
// * * * * * * * * * * * * * * * * * * * * * * * * * * * * * * * * * * * * * //

dimensions      [0 1 -1 0 0 0 0];

internalField   nonuniform List<vector> 
14592
(
(0.0189944 -4.90769e-05 -0.001554)
(0.0188336 0.000160602 -0.00303719)
(0.0184173 0.000301101 -0.00421577)
(0.0178779 0.000346257 -0.00536054)
(0.0174163 0.000324038 -0.00648241)
(0.0171586 0.00026195 -0.00756188)
(0.0171402 0.000186948 -0.00861333)
(0.0173173 0.000113916 -0.00969308)
(0.017597 4.90543e-05 -0.0109105)
(0.0178848 -1.98095e-05 -0.0124251)
(0.0181263 -0.00013156 -0.0144625)
(0.0183371 -0.000343684 -0.0173346)
(0.0186005 -0.000731618 -0.0214512)
(0.0188165 -0.00125239 -0.0271423)
(0.0177029 -0.00133575 -0.0333173)
(0.0120262 0.000223244 -0.0300652)
(0.052958 6.75151e-05 -0.00182827)
(0.0526447 0.000471464 -0.00471539)
(0.0520115 0.000723342 -0.00755183)
(0.0511909 0.000717059 -0.0105217)
(0.0504385 0.000509511 -0.0134997)
(0.0499554 0.000223209 -0.0163116)
(0.0498102 -1.47666e-05 -0.0188827)
(0.0499267 -0.000122392 -0.0212606)
(0.0501196 -8.22369e-05 -0.0236377)
(0.0501543 5.68891e-05 -0.0263512)
(0.0498139 0.000179586 -0.0298796)
(0.0489129 0.000119081 -0.0348741)
(0.0472716 -0.000333905 -0.0421762)
(0.0442979 -0.00127339 -0.0524173)
(0.0373003 -0.00198404 -0.0627798)
(0.0209322 -0.000296646 -0.0515633)
(0.082243 0.000209222 -0.00143503)
(0.0820319 0.000772759 -0.00419689)
(0.0815081 0.00112744 -0.00735423)
(0.08066 0.00109779 -0.0110806)
(0.0796323 0.000723168 -0.0151828)
(0.0786329 0.000198019 -0.0193214)
(0.0778169 -0.000232437 -0.0232053)
(0.0772031 -0.000378561 -0.026715)
(0.0766552 -0.000165526 -0.0299491)
(0.0759096 0.000359308 -0.0332502)
(0.0746327 0.00103108 -0.0371946)
(0.0724281 0.00161113 -0.0426232)
(0.0688261 0.00179334 -0.0506964)
(0.0629069 0.0012637 -0.0626155)
(0.0509526 0.000142877 -0.0753879)
(0.0260155 0.00028588 -0.0612071)
(0.106651 0.000277735 -0.00112646)
(0.106558 0.000933019 -0.00331773)
(0.106211 0.00138935 -0.00599032)
(0.105441 0.00143015 -0.00951543)
(0.104194 0.0010484 -0.0138567)
(0.102583 0.000447216 -0.0186754)
(0.10081 -6.3223e-05 -0.0235221)
(0.0990364 -0.000195983 -0.0280456)
(0.0972859 0.00021655 -0.032132)
(0.0953919 0.00117748 -0.0359846)
(0.0930259 0.0025499 -0.0401569)
(0.0896814 0.00410296 -0.0455651)
(0.0846854 0.00552225 -0.0535732)
(0.0768948 0.00636876 -0.066019)
(0.0617169 0.00563716 -0.080585)
(0.0301829 0.00277936 -0.0662242)
(0.126157 0.000319781 -0.000952702)
(0.126117 0.00102137 -0.0027014)
(0.125906 0.00157835 -0.00477446)
(0.125269 0.00178398 -0.00770554)
(0.123958 0.00159087 -0.0117086)
(0.121922 0.00115879 -0.0166005)
(0.119318 0.000786456 -0.0219224)
(0.116396 0.00079992 -0.0271587)
(0.113348 0.00143777 -0.0319681)
(0.110187 0.00280144 -0.0363561)
(0.106711 0.00484051 -0.040759)
(0.10241 0.00741775 -0.0460831)
(0.0965105 0.0103099 -0.0537706)
(0.0877638 0.0131851 -0.0661841)
(0.0708781 0.0139556 -0.0819817)
(0.0341695 0.00757655 -0.0684604)
(0.140777 0.000356711 -0.000849067)
(0.140747 0.00109739 -0.00233798)
(0.140614 0.00175084 -0.00398082)
(0.140115 0.00216685 -0.00634925)
(0.138883 0.00229164 -0.0098399)
(0.1367 0.00222992 -0.0144651)
(0.133617 0.00222014 -0.0198538)
(0.129889 0.00255885 -0.0254337)
(0.125838 0.00350685 -0.0306964)
(0.121654 0.00525198 -0.0354544)
(0.117304 0.00785352 -0.0399904)
(0.112371 0.0113508 -0.0451378)
(0.106092 0.015707 -0.0522975)
(0.0971916 0.0210424 -0.0641758)
(0.0800408 0.0246793 -0.0806298)
(0.0389752 0.0153936 -0.0683544)
(0.150522 0.000391796 -0.000773654)
(0.15049 0.0011713 -0.00210608)
(0.150406 0.0019096 -0.00348815)
(0.150033 0.00253926 -0.0054624)
(0.148952 0.00303267 -0.00851022)
(0.146836 0.00345338 -0.0127845)
(0.143634 0.00396023 -0.0180164)
(0.139571 0.00477358 -0.0236367)
(0.135035 0.00612477 -0.0290449)
(0.130341 0.00822988 -0.0339088)
(0.125649 0.0112569 -0.0383629)
(0.120664 0.0154738 -0.0431229)
(0.114804 0.0211063 -0.0494365)
(0.106687 0.0291792 -0.0600607)
(0.0916395 0.0377757 -0.0764564)
(0.0468264 0.0288478 -0.0653841)
(0.155394 0.000420809 -0.000713575)
(0.155369 0.00122838 -0.00193358)
(0.155336 0.00203104 -0.00315731)
(0.155082 0.00285254 -0.00489404)
(0.154179 0.0037107 -0.00764631)
(0.152252 0.004643 -0.0116285)
(0.149202 0.00572449 -0.0166296)
(0.145232 0.00707251 -0.022095)
(0.140766 0.00883977 -0.0273842)
(0.136199 0.0112311 -0.0320777)
(0.131874 0.0144813 -0.0361924)
(0.127623 0.0190549 -0.0402897)
(0.123425 0.0254403 -0.0453717)
(0.117361 0.0356463 -0.0536573)
(0.110231 0.0527619 -0.0687703)
(0.0639726 0.0504836 -0.0575615)
(0.0202993 -7.12285e-05 -0.00152901)
(0.0200777 0.0001254 -0.00298092)
(0.019544 0.000265541 -0.00412534)
(0.0188334 0.000310971 -0.00524329)
(0.0181499 0.000286902 -0.00635484)
(0.0176236 0.000225256 -0.00744259)
(0.0172914 0.000141944 -0.00851069)
(0.0171037 5.88428e-05 -0.00960518)
(0.0169491 -1.61724e-05 -0.0108164)
(0.0166979 -9.67149e-05 -0.012281)
(0.0162402 -0.000221776 -0.0141826)
(0.0155033 -0.000453581 -0.0167446)
(0.014428 -0.000858612 -0.0201644)
(0.0126849 -0.00140179 -0.0242589)
(0.00928499 -0.00183095 -0.027124)
(0.00429434 -0.00161936 -0.0207711)
(0.0566469 3.36982e-05 -0.00175372)
(0.0562314 0.000395735 -0.0045193)
(0.0553935 0.000626615 -0.00720834)
(0.0542548 0.000598215 -0.0100318)
(0.0530728 0.000358423 -0.0129016)
(0.0520431 3.12377e-05 -0.0156673)
(0.051237 -0.000246531 -0.0182387)
(0.0505759 -0.00038081 -0.0206356)
(0.0498429 -0.000347386 -0.0230104)
(0.048747 -0.000200544 -0.0256475)
(0.0469764 -6.88025e-05 -0.0289495)
(0.0442068 -0.000140214 -0.0334163)
(0.0400526 -0.00063617 -0.0394857)
(0.0335482 -0.00164418 -0.0466933)
(0.022701 -0.0027631 -0.0506434)
(0.00917267 -0.00258769 -0.0358173)
(0.0879887 0.000177331 -0.0013588)
(0.0876823 0.000689817 -0.00396516)
(0.0869613 0.00101368 -0.00689548)
(0.085794 0.000946878 -0.0103529)
(0.0843019 0.000509561 -0.0142133)
(0.0826652 -0.000107433 -0.0181905)
(0.0810299 -0.000629278 -0.0220098)
(0.0794085 -0.000836676 -0.0255213)
(0.0776455 -0.000632013 -0.0287678)
(0.075429 -6.15319e-05 -0.032017)
(0.0723241 0.000686992 -0.035751)
(0.0677688 0.00133335 -0.040637)
(0.06105 0.0015187 -0.0473871)
(0.0506969 0.000891978 -0.0557539)
(0.0336466 -0.000594459 -0.0604384)
(0.0128793 -0.00172785 -0.0424726)
(0.114107 0.000256147 -0.00106493)
(0.113925 0.000868618 -0.00313418)
(0.113408 0.00130351 -0.00557941)
(0.112376 0.00131714 -0.00876996)
(0.110731 0.000871254 -0.0127533)
(0.108524 0.000161664 -0.0172784)
(0.105907 -0.000476091 -0.0219591)
(0.103018 -0.00070343 -0.0264384)
(0.0998715 -0.000309029 -0.0305417)
(0.096276 0.000738605 -0.0343838)
(0.0918198 0.00228691 -0.0383934)
(0.0858257 0.00406007 -0.0433035)
(0.0773465 0.00567724 -0.0500506)
(0.0645187 0.0065705 -0.0588486)
(0.0430163 0.00562008 -0.0643237)
(0.0162781 0.00189419 -0.0457343)
(0.13498 0.000308152 -0.000904413)
(0.134852 0.000983672 -0.00257813)
(0.134481 0.0015353 -0.00447678)
(0.133628 0.00173766 -0.00708)
(0.132015 0.00150914 -0.0106582)
(0.129494 0.000994038 -0.0151476)
(0.126124 0.000508734 -0.0201932)
(0.122088 0.000426872 -0.0253178)
(0.11756 0.00105364 -0.0301352)
(0.112547 0.00254079 -0.0345433)
(0.106792 0.00485471 -0.0388408)
(0.0996432 0.00783798 -0.0437283)
(0.0900472 0.0112327 -0.050257)
(0.0759584 0.0144995 -0.0591178)
(0.0516615 0.0152682 -0.0652364)
(0.0198691 0.00834715 -0.0468703)
(0.150629 0.000354705 -0.000805407)
(0.15051 0.00108757 -0.00225354)
(0.150215 0.00174954 -0.00378266)
(0.14952 0.00218374 -0.00586839)
(0.148058 0.00231014 -0.00892388)
(0.145513 0.00221482 -0.0130788)
(0.141792 0.00214568 -0.0181008)
(0.137038 0.00243711 -0.0234956)
(0.131521 0.00341826 -0.0287397)
(0.125428 0.0053388 -0.0335424)
(0.118708 0.00831185 -0.0380323)
(0.11084 0.0124021 -0.0428191)
(0.100799 0.0176195 -0.0489514)
(0.0866037 0.0238841 -0.057538)
(0.0611296 0.0279192 -0.0640654)
(0.024591 0.0184793 -0.0461655)
(0.16106 0.00039984 -0.000731588)
(0.160942 0.00118923 -0.00204161)
(0.160694 0.001947 -0.00335387)
(0.16013 0.00260718 -0.00509319)
(0.158863 0.00313021 -0.00772319)
(0.15648 0.00356906 -0.0114983)
(0.152771 0.00408678 -0.016304)
(0.14781 0.00493633 -0.0216838)
(0.1419 0.00639804 -0.0270484)
(0.135346 0.00875495 -0.0319744)
(0.128314 0.0122492 -0.0364404)
(0.120468 0.0172284 -0.0409376)
(0.110966 0.0240749 -0.0464008)
(0.0981071 0.0338171 -0.0542463)
(0.0742026 0.0435746 -0.0609245)
(0.0327704 0.0354327 -0.0433279)
(0.166274 0.000436019 -0.000673988)
(0.166168 0.00127137 -0.00188073)
(0.165974 0.00210321 -0.00305816)
(0.165538 0.00296072 -0.00459049)
(0.164478 0.00386559 -0.00694434)
(0.16235 0.00485931 -0.010423)
(0.158894 0.00602533 -0.0149733)
(0.154148 0.00750139 -0.0201703)
(0.148434 0.0094725 -0.0254033)
(0.142138 0.0121985 -0.0301754)
(0.135634 0.0159912 -0.0343571)
(0.128789 0.021446 -0.0383125)
(0.121331 0.0292744 -0.0427739)
(0.111684 0.0420376 -0.0491795)
(0.0967577 0.061769 -0.0559086)
(0.0502809 0.0605411 -0.0376343)
(0.0214128 -9.25572e-05 -0.00143356)
(0.0211319 9.08589e-05 -0.00278999)
(0.0204885 0.000228835 -0.00384981)
(0.0196239 0.000271901 -0.00488809)
(0.0187435 0.000247246 -0.0059319)
(0.0179798 0.000177609 -0.00696609)
(0.017372 8.35532e-05 -0.00798817)
(0.0168658 -1.20438e-05 -0.00902871)
(0.0163379 -0.000100003 -0.0101546)
(0.0156388 -0.000192212 -0.0114679)
(0.0146334 -0.000324456 -0.0130965)
(0.013225 -0.000553056 -0.0151669)
(0.011343 -0.000927174 -0.0177082)
(0.00877304 -0.00141983 -0.0203124)
(0.00524368 -0.00194674 -0.0211288)
(0.00160271 -0.00196247 -0.0144256)
(0.0598053 3.717e-06 -0.00161133)
(0.0592931 0.000324961 -0.00415116)
(0.0582676 0.000532803 -0.00659571)
(0.0568506 0.000479054 -0.00916241)
(0.0552922 0.000202275 -0.0117973)
(0.0537896 -0.00016989 -0.0143774)
(0.0524154 -0.000494051 -0.0168048)
(0.0510809 -0.000663749 -0.0190762)
(0.0495495 -0.000646204 -0.0212981)
(0.0474965 -0.000495618 -0.0236855)
(0.0445664 -0.000347169 -0.0265396)
(0.0404018 -0.000388998 -0.0301839)
(0.0346229 -0.000824152 -0.034747)
(0.0265137 -0.0017372 -0.0393249)
(0.0155592 -0.00294695 -0.0397536)
(0.00473376 -0.00306806 -0.024897)
(0.0929112 0.000151296 -0.00123592)
(0.0925154 0.000614998 -0.00360267)
(0.0916133 0.000907403 -0.00622428)
(0.0901643 0.000803432 -0.00930705)
(0.0882729 0.000298077 -0.0127828)
(0.0860989 -0.000407342 -0.016421)
(0.0837677 -0.00102626 -0.0199765)
(0.0812837 -0.00130858 -0.0232868)
(0.0784768 -0.00112919 -0.0263445)
(0.0750049 -0.000527208 -0.0293314)
(0.0703903 0.000299134 -0.0326073)
(0.0640285 0.0010477 -0.0366414)
(0.0551924 0.00135142 -0.041761)
(0.0426186 0.000853037 -0.0471121)
(0.0251957 -0.000701561 -0.0475032)
(0.00767605 -0.00217223 -0.0291599)
(0.120495 0.000237571 -0.000967748)
(0.120231 0.000811697 -0.0028485)
(0.119554 0.00122572 -0.00501673)
(0.118281 0.00121528 -0.00780946)
(0.116296 0.000711852 -0.0113208)
(0.113596 -0.000101296 -0.015378)
(0.110277 -0.000865937 -0.0196681)
(0.10645 -0.00120239 -0.0238551)
(0.102114 -0.00084697 -0.0277276)
(0.0970695 0.000261644 -0.0313087)
(0.0908754 0.00196895 -0.0348881)
(0.0828116 0.00396988 -0.0389864)
(0.0718991 0.00584616 -0.0441385)
(0.0563366 0.00697093 -0.0497974)
(0.0339809 0.00601592 -0.0504893)
(0.0106298 0.00194713 -0.0309799)
(0.142543 0.00029889 -0.000822794)
(0.142335 0.000952211 -0.00235964)
(0.141811 0.00149856 -0.00405141)
(0.140747 0.00170066 -0.00630142)
(0.138863 0.00144842 -0.00938991)
(0.135944 0.000858723 -0.0133373)
(0.131953 0.000261717 -0.0178863)
(0.127004 7.8885e-05 -0.0226263)
(0.121238 0.000671408 -0.027162)
(0.114657 0.00224698 -0.0313043)
(0.107004 0.00479486 -0.0352049)
(0.0976104 0.00814844 -0.0393363)
(0.0854012 0.0120145 -0.0443517)
(0.0682343 0.0157256 -0.0500812)
(0.0425491 0.0166192 -0.051138)
(0.0140606 0.00934053 -0.0313987)
(0.159073 0.00035655 -0.000730391)
(0.158878 0.00108378 -0.00207374)
(0.158428 0.0017535 -0.00345836)
(0.157531 0.00220739 -0.00525806)
(0.155844 0.00234282 -0.007855)
(0.152994 0.00222402 -0.0114419)
(0.148774 0.00209873 -0.0159041)
(0.143206 0.00233888 -0.0208403)
(0.136488 0.00332802 -0.0257514)
(0.128799 0.00538085 -0.0302841)
(0.120108 0.00866326 -0.0344158)
(0.109912 0.0132633 -0.0385188)
(0.0972048 0.019201 -0.0432644)
(0.0798105 0.0262372 -0.0488538)
(0.0523963 0.0306561 -0.0502413)
(0.0188967 0.020889 -0.0306479)
(0.170092 0.000409996 -0.000661974)
(0.169903 0.00121207 -0.00188338)
(0.169499 0.00198981 -0.00309101)
(0.168735 0.00268179 -0.00460024)
(0.16727 0.00323857 -0.00681522)
(0.164653 0.00370087 -0.0100292)
(0.160556 0.00423272 -0.0142436)
(0.154906 0.00510626 -0.0191204)
(0.147899 0.00665143 -0.024124)
(0.139813 0.00921144 -0.0287858)
(0.130844 0.0130935 -0.0329457)
(0.120707 0.018705 -0.0368622)
(0.108631 0.026512 -0.0411358)
(0.0927783 0.0374461 -0.0463085)
(0.0664114 0.0479955 -0.0480336)
(0.0275209 0.039769 -0.0286618)
(0.175599 0.000452308 -0.000609336)
(0.175427 0.00131805 -0.00173741)
(0.175083 0.00218173 -0.0028318)
(0.174453 0.00307782 -0.00416761)
(0.173215 0.00403077 -0.00613935)
(0.170904 0.00508439 -0.00907427)
(0.167147 0.00632817 -0.0130306)
(0.161825 0.00791526 -0.0177127)
(0.155141 0.0100598 -0.0225814)
(0.147441 0.0130687 -0.0271123)
(0.139137 0.0173167 -0.0310565)
(0.130187 0.0234884 -0.0345716)
(0.120398 0.0324317 -0.0381237)
(0.108368 0.0468752 -0.0424711)
(0.0908648 0.0680105 -0.0448759)
(0.0454336 0.0660884 -0.0252608)
(0.0223367 -0.000110924 -0.00127309)
(0.0220008 5.92168e-05 -0.00247396)
(0.0212586 0.000194702 -0.00340473)
(0.0202585 0.000235467 -0.0043175)
(0.0192088 0.000206711 -0.00524274)
(0.0182438 0.000127998 -0.00616708)
(0.0174044 2.24819e-05 -0.00708399)
(0.0166353 -8.66378e-05 -0.00801034)
(0.015808 -0.000188202 -0.00899024)
(0.0147656 -0.000291151 -0.0100918)
(0.0133703 -0.000426356 -0.0113938)
(0.0115334 -0.000637581 -0.0129523)
(0.00922294 -0.000966239 -0.0147115)
(0.00638403 -0.00138146 -0.0162368)
(0.00319365 -0.00188013 -0.0160517)
(0.000524873 -0.0018919 -0.0102965)
(0.0624332 -2.22645e-05 -0.0014079)
(0.061834 0.000262492 -0.00362746)
(0.0606431 0.000448642 -0.00574461)
(0.0589826 0.000370558 -0.00796413)
(0.0571057 5.83825e-05 -0.0102598)
(0.0552081 -0.000358586 -0.01253)
(0.0533616 -0.000730309 -0.0146856)
(0.0514717 -0.000938817 -0.0167055)
(0.0492908 -0.000941749 -0.018654)
(0.04648 -0.000789367 -0.0206797)
(0.0426794 -0.000616185 -0.022989)
(0.0375502 -0.000605053 -0.0257684)
(0.0308099 -0.000928279 -0.0289797)
(0.0220838 -0.0016772 -0.0316695)
(0.0117642 -0.00279035 -0.0304858)
(0.00286396 -0.00295483 -0.0178664)
(0.0970114 0.000128204 -0.00107151)
(0.0965362 0.000550628 -0.00312218)
(0.0954731 0.00081483 -0.00536572)
(0.0937776 0.000675997 -0.00799114)
(0.091551 0.000111645 -0.0109693)
(0.0889315 -0.000676147 -0.0141245)
(0.086028 -0.00138937 -0.0172478)
(0.0828359 -0.00174948 -0.0201813)
(0.0791765 -0.00160481 -0.0228825)
(0.0746975 -0.000980514 -0.0254585)
(0.0689136 -7.66806e-05 -0.0281534)
(0.0612497 0.000793541 -0.0312742)
(0.0510728 0.00127802 -0.0349169)
(0.0375027 0.00100841 -0.038093)
(0.0206671 -0.000409581 -0.0365249)
(0.00547261 -0.00199501 -0.0208115)
(0.125819 0.00022284 -0.000838799)
(0.125483 0.000764087 -0.00246943)
(0.124661 0.00115991 -0.00431511)
(0.123173 0.00112991 -0.0066619)
(0.120899 0.000579261 -0.00961706)
(0.117793 -0.000325328 -0.01308)
(0.113905 -0.00120747 -0.0168011)
(0.109315 -0.00165068 -0.0204861)
(0.104014 -0.00134748 -0.0239157)
(0.0978021 -0.000197252 -0.0270453)
(0.0902466 0.00164835 -0.0300462)
(0.0806579 0.00387212 -0.0332594)
(0.0681409 0.00602959 -0.0369555)
(0.0512228 0.00745757 -0.0403444)
(0.0292059 0.00666256 -0.0388035)
(0.00828382 0.00240084 -0.0219129)
(0.148846 0.000293639 -0.000711595)
(0.14857 0.000927787 -0.00205453)
(0.147907 0.00146917 -0.00350386)
(0.14665 0.00167452 -0.00538088)
(0.144524 0.00140652 -0.00794327)
(0.141273 0.000756446 -0.0112553)
(0.136789 5.97971e-05 -0.015146)
(0.13111 -0.000224551 -0.019279)
(0.124351 0.000323826 -0.0232885)
(0.116514 0.00195832 -0.0269363)
(0.107369 0.00469748 -0.0302604)
(0.0963019 0.00837316 -0.0335471)
(0.0823276 0.0126594 -0.0371717)
(0.0635316 0.0167939 -0.0406342)
(0.0378525 0.0179039 -0.0392826)
(0.0117182 0.0103507 -0.0220502)
(0.166111 0.000360126 -0.000630284)
(0.165852 0.00108427 -0.00181061)
(0.165264 0.00176075 -0.0030129)
(0.164177 0.00223425 -0.00451775)
(0.162279 0.00238309 -0.00664894)
(0.159165 0.0022514 -0.00961406)
(0.154548 0.00207901 -0.0133815)
(0.14835 0.00226521 -0.0176491)
(0.14069 0.00324834 -0.0219699)
(0.131732 0.00539433 -0.0259771)
(0.121493 0.00892098 -0.029543)
(0.109547 0.0139363 -0.0328567)
(0.0950096 0.0204501 -0.0363176)
(0.0758339 0.0280932 -0.0397378)
(0.0480547 0.0328591 -0.0386531)
(0.0167129 0.0227659 -0.0214407)
(0.177618 0.000420456 -0.000570521)
(0.177371 0.00123636 -0.00164582)
(0.176834 0.00203288 -0.0027067)
(0.17588 0.00275521 -0.00397825)
(0.174217 0.00334644 -0.00578693)
(0.171388 0.00383526 -0.00841583)
(0.166984 0.00438279 -0.0119359)
(0.160812 0.0052758 -0.0161162)
(0.152963 0.00687845 -0.0205021)
(0.143676 0.00959205 -0.0246321)
(0.13319 0.0137766 -0.0282609)
(0.121319 0.0198821 -0.0314755)
(0.10745 0.0284098 -0.0346317)
(0.0898439 0.0401753 -0.0378628)
(0.0627117 0.0512621 -0.0371866)
(0.025659 0.042777 -0.020129)
(0.18337 0.000468057 -0.000524893)
(0.183144 0.00136353 -0.00151893)
(0.182673 0.00225821 -0.00248682)
(0.18186 0.00319175 -0.00361851)
(0.180439 0.00419084 -0.00522451)
(0.177953 0.0053003 -0.00760883)
(0.173959 0.00661344 -0.0108897)
(0.168213 0.00829432 -0.014881)
(0.160801 0.0105788 -0.0191387)
(0.152014 0.0138128 -0.0231629)
(0.142303 0.018418 -0.0266404)
(0.131738 0.025137 -0.0295801)
(0.120292 0.0348887 -0.0322522)
(0.106764 0.0504206 -0.0350585)
(0.0882483 0.0723745 -0.0352602)
(0.0437489 0.0696361 -0.0180115)
(0.0230735 -0.000126834 -0.00105536)
(0.0226896 3.16922e-05 -0.002048)
(0.0218628 0.000164775 -0.00281235)
(0.0207493 0.000202311 -0.00356199)
(0.0195605 0.000169472 -0.00432566)
(0.0184322 8.29098e-05 -0.00509328)
(0.0174082 -3.34334e-05 -0.00585603)
(0.0164345 -0.000155349 -0.00662086)
(0.0153818 -0.000269367 -0.00741344)
(0.0140939 -0.000381079 -0.00827476)
(0.0124403 -0.00051608 -0.00924821)
(0.0103527 -0.000707857 -0.0103497)
(0.00784305 -0.000990509 -0.0114958)
(0.00497299 -0.00133233 -0.0123202)
(0.00213096 -0.00176623 -0.0117535)
(6.74571e-05 -0.00175893 -0.00727643)
(0.0645338 -4.35729e-05 -0.00115293)
(0.06386 0.000210578 -0.00296999)
(0.0625293 0.000378618 -0.00469055)
(0.0606669 0.000280121 -0.00649154)
(0.0585307 -6.31363e-05 -0.00836144)
(0.0563156 -0.000520592 -0.0102242)
(0.0540943 -0.000936099 -0.0120044)
(0.0517695 -0.0011817 -0.0136723)
(0.0490896 -0.00120545 -0.0152604)
(0.0457144 -0.00105175 -0.0168629)
(0.0412967 -0.00085088 -0.0186113)
(0.0355395 -0.000777403 -0.0206057)
(0.0282675 -0.000979196 -0.0227367)
(0.0193728 -0.00155426 -0.0242001)
(0.00969124 -0.00252803 -0.0225189)
(0.00202697 -0.00270919 -0.0127108)
(0.100291 0.000109956 -0.00087171)
(0.0997489 0.000498495 -0.00254034)
(0.0985507 0.000739728 -0.00434832)
(0.09665 0.000573392 -0.00645318)
(0.0941486 -3.87116e-05 -0.00884954)
(0.0911731 -0.000899213 -0.01141)
(0.0878186 -0.00169643 -0.013968)
(0.0840725 -0.0021289 -0.0163849)
(0.0797531 -0.00202038 -0.018602)
(0.0745098 -0.00138058 -0.0206713)
(0.0678705 -0.000406095 -0.0227466)
(0.0593139 0.000587515 -0.0250137)
(0.0483273 0.00126207 -0.0274654)
(0.0343502 0.00123841 -0.029214)
(0.0181624 8.85096e-06 -0.027074)
(0.00448921 -0.00164862 -0.0147925)
(0.130078 0.000211878 -0.000681336)
(0.129683 0.000726334 -0.00200938)
(0.128738 0.00110707 -0.00349223)
(0.127069 0.00106212 -0.00535559)
(0.124555 0.000473313 -0.00770166)
(0.121123 -0.000504713 -0.0104773)
(0.11679 -0.00148695 -0.0134946)
(0.111609 -0.00202691 -0.0165149)
(0.105562 -0.0017767 -0.0193362)
(0.0984588 -0.000599235 -0.0218803)
(0.0898916 0.00136032 -0.0242347)
(0.0792295 0.0037807 -0.0266057)
(0.0656935 0.0062007 -0.0291168)
(0.048124 0.00792521 -0.0310136)
(0.0266084 0.00733869 -0.028787)
(0.00727255 0.00293428 -0.0155107)
(0.153888 0.000290596 -0.000577117)
(0.153557 0.000909705 -0.00167615)
(0.152778 0.00144657 -0.0028477)
(0.151352 0.00165603 -0.00433294)
(0.14902 0.0013775 -0.00634685)
(0.145504 0.000684174 -0.00896605)
(0.140635 -9.42266e-05 -0.0120851)
(0.134397 -0.000467966 -0.0154483)
(0.126878 3.19874e-05 -0.0187408)
(0.118085 0.00170232 -0.0217274)
(0.107823 0.00458998 -0.0243733)
(0.0955615 0.00852795 -0.0268366)
(0.0804323 0.0131632 -0.0293216)
(0.0607803 0.017662 -0.0312891)
(0.035379 0.0190014 -0.0291581)
(0.0107642 0.0112295 -0.0155529)
(0.17174 0.000364101 -0.000510441)
(0.171431 0.00108719 -0.00147908)
(0.17073 0.00176922 -0.00246083)
(0.169478 0.00226025 -0.00365647)
(0.167392 0.002426 -0.00531934)
(0.164058 0.00228855 -0.00763691)
(0.159131 0.00207966 -0.0106265)
(0.152458 0.00221854 -0.0140714)
(0.144089 0.00318559 -0.0176099)
(0.134172 0.00539195 -0.0209007)
(0.122776 0.00910113 -0.0237708)
(0.10957 0.0144359 -0.0262926)
(0.0938078 0.0213896 -0.0286914)
(0.0736381 0.0294941 -0.0306729)
(0.045876 0.0345528 -0.028751)
(0.0159043 0.0241848 -0.0151168)
(0.183639 0.000430043 -0.000461699)
(0.183346 0.00125923 -0.00134462)
(0.1827 0.00207212 -0.00221765)
(0.181583 0.002821 -0.00323538)
(0.179741 0.00344432 -0.00464367)
(0.176725 0.00395886 -0.00668325)
(0.17208 0.00452248 -0.00945223)
(0.165521 0.00542954 -0.0128044)
(0.15705 0.00707113 -0.0163829)
(0.146867 0.00989467 -0.0197793)
(0.13525 0.0143019 -0.0227265)
(0.122119 0.020773 -0.0252106)
(0.107024 0.0298196 -0.027429)
(0.0883875 0.0421597 -0.0293539)
(0.0609825 0.0536295 -0.0278136)
(0.0250829 0.0449113 -0.0142733)
(0.189587 0.000482038 -0.000424669)
(0.189319 0.00140411 -0.00124099)
(0.188746 0.00232635 -0.00204087)
(0.187775 0.00329308 -0.00295124)
(0.186186 0.00433308 -0.00420095)
(0.183541 0.00549126 -0.00604202)
(0.179357 0.00686304 -0.00860817)
(0.173303 0.00861927 -0.0117945)
(0.165362 0.0110117 -0.0152607)
(0.155774 0.0144151 -0.0185762)
(0.145017 0.0192846 -0.0214246)
(0.133265 0.0264005 -0.0237338)
(0.120661 0.0367141 -0.0256461)
(0.106192 0.0529507 -0.0273797)
(0.0872113 0.0754324 -0.0266555)
(0.0432733 0.0720794 -0.0129084)
(0.0236247 -0.000139685 -0.000789556)
(0.023202 9.1142e-06 -0.00153084)
(0.0223083 0.000140628 -0.00209886)
(0.0211066 0.000174684 -0.00265542)
(0.0198112 0.000138258 -0.00322473)
(0.0185597 4.49208e-05 -0.00379901)
(0.0173989 -8.07976e-05 -0.00436995)
(0.0162767 -0.000213644 -0.00493876)
(0.015066 -0.000337991 -0.00551846)
(0.0136144 -0.00045631 -0.00613109)
(0.0118013 -0.000590001 -0.00679786)
(0.00957878 -0.000767062 -0.00751696)
(0.00699171 -0.00100982 -0.00821223)
(0.00417069 -0.00129593 -0.00861936)
(0.00158828 -0.00166671 -0.00802933)
(-0.000123754 -0.00164747 -0.00486839)
(0.0661079 -5.98314e-05 -0.000854784)
(0.065375 0.000170222 -0.00220277)
(0.0639342 0.000324022 -0.00347139)
(0.0619159 0.000209711 -0.00479654)
(0.0595822 -0.000158487 -0.00617765)
(0.0571285 -0.000648936 -0.00755961)
(0.0546293 -0.00110081 -0.0088856)
(0.0519867 -0.00137802 -0.0101269)
(0.0489494 -0.00142009 -0.0112962)
(0.0451809 -0.00126521 -0.0124479)
(0.0403509 -0.0010389 -0.0136592)
(0.0342092 -0.00090666 -0.0149799)
(0.0266603 -0.00100421 -0.0162967)
(0.0177719 -0.00143019 -0.0170251)
(0.00857539 -0.00228368 -0.0154899)
(0.00165612 -0.00248266 -0.00855184)
(0.10275 9.66542e-05 -0.00064305)
(0.102155 0.000459408 -0.00187567)
(0.100851 0.000683041 -0.00320213)
(0.0987917 0.00049654 -0.00474009)
(0.09608 -0.00015264 -0.00649225)
(0.0928375 -0.00107022 -0.00837553)
(0.0891491 -0.00193501 -0.0102693)
(0.0849977 -0.00242774 -0.0120657)
(0.080201 -0.00235127 -0.0137078)
(0.0744149 -0.00170068 -0.0152142)
(0.0671883 -0.000669339 -0.0166743)
(0.0580506 0.00043237 -0.0181929)
(0.0465944 0.00126995 -0.0197304)
(0.0324734 0.00145988 -0.0206157)
(0.016791 0.000397111 -0.0186866)
(0.00405652 -0.00131969 -0.0099618)
(0.133272 0.000204255 -0.000501766)
(0.13283 0.000698629 -0.00148331)
(0.131791 0.00106816 -0.00256917)
(0.12998 0.00101297 -0.0039212)
(0.127279 0.000397063 -0.00562203)
(0.123602 -0.000637172 -0.00764458)
(0.118941 -0.00169753 -0.00986176)
(0.113329 -0.00231646 -0.0120981)
(0.106742 -0.00211282 -0.0141922)
(0.0990011 -0.000920881 -0.016062)
(0.089727 0.0011259 -0.0177457)
(0.0783482 0.00370179 -0.0193579)
(0.064188 0.00633776 -0.0209484)
(0.0463119 0.00830759 -0.0219323)
(0.0252131 0.00791166 -0.0198955)
(0.00685055 0.00339624 -0.0104309)
(0.15767 0.000288965 -0.000424467)
(0.157297 0.000897277 -0.001239)
(0.156427 0.00143059 -0.00210094)
(0.154868 0.00164428 -0.00317654)
(0.152373 0.00136116 -0.00462488)
(0.148653 0.000638234 -0.0065161)
(0.143502 -0.000202647 -0.00878933)
(0.13686 -0.000648039 -0.0112661)
(0.128794 -0.00019285 -0.0137079)
(0.119317 0.00149572 -0.0159161)
(0.108273 0.00449186 -0.0178301)
(0.0952006 0.00862704 -0.0195291)
(0.0793408 0.0135292 -0.0211187)
(0.0592368 0.0183121 -0.0221618)
(0.0341024 0.0198485 -0.0201724)
(0.0104052 0.0119096 -0.0104465)
(0.175962 0.00036772 -0.000375036)
(0.175614 0.00109101 -0.00109387)
(0.174828 0.0017774 -0.00182115)
(0.173446 0.00228256 -0.00269051)
(0.171209 0.00246374 -0.00388174)
(0.167701 0.00232655 -0.00554174)
(0.162543 0.00209163 -0.0077031)
(0.155529 0.00219297 -0.0102245)
(0.146656 0.00314076 -0.0128403)
(0.136061 0.00538443 -0.01528)
(0.123853 0.00922048 -0.0173756)
(0.109783 0.0147844 -0.0191391)
(0.0932285 0.0220544 -0.0206913)
(0.072498 0.0304926 -0.0217689)
(0.0448236 0.0357797 -0.0199308)
(0.0156597 0.0252028 -0.0101635)
(0.188154 0.000437934 -0.000339064)
(0.187826 0.00127844 -0.000994273)
(0.1871 0.00210442 -0.00164418)
(0.185854 0.00287443 -0.00238853)
(0.183866 0.00352424 -0.00339699)
(0.180698 0.00406095 -0.00485)
(0.17587 0.00463958 -0.00683915)
(0.169037 0.00555675 -0.00928009)
(0.160131 0.0072235 -0.0119187)
(0.149319 0.0101208 -0.0144384)
(0.13691 0.0146811 -0.0166051)
(0.12291 0.0214062 -0.018365)
(0.107005 0.0308085 -0.0198198)
(0.0877578 0.0435366 -0.0209013)
(0.060242 0.0552808 -0.01936)
(0.0250035 0.0463899 -0.00964048)
(0.194248 0.000493313 -0.000311831)
(0.193949 0.00143697 -0.000917548)
(0.1933 0.00238144 -0.00151451)
(0.192208 0.00337486 -0.00218292)
(0.19048 0.00444782 -0.00307808)
(0.187701 0.00564499 -0.00438543)
(0.183372 0.00706284 -0.00622129)
(0.177101 0.00887577 -0.00853362)
(0.168797 0.0113463 -0.0110852)
(0.158651 0.014869 -0.0135478)
(0.147162 0.0199219 -0.0156552)
(0.134587 0.0273089 -0.0173131)
(0.121201 0.0379952 -0.0185869)
(0.106145 0.0546802 -0.0195971)
(0.0869281 0.0775164 -0.0186775)
(0.0432615 0.073748 -0.00877137)
(0.0239907 -0.000148574 -0.000484949)
(0.0235406 -7.6073e-06 -0.000940266)
(0.0226012 0.000123238 -0.0012874)
(0.0213392 0.000155355 -0.0016266)
(0.0199716 0.000113746 -0.00197474)
(0.018638 1.41538e-05 -0.00232661)
(0.0173871 -0.00011939 -0.00267652)
(0.0161691 -0.000260983 -0.00302372)
(0.0148593 -0.000393344 -0.00337368)
(0.0133093 -0.000516579 -0.00373646)
(0.0114066 -0.000649123 -0.00412073)
(0.00911828 -0.000815643 -0.00452053)
(0.00650914 -0.00103175 -0.00488615)
(0.00374504 -0.00127997 -0.00506145)
(0.00132601 -0.0016058 -0.00464759)
(-0.00019722 -0.00157801 -0.00278554)
(0.0671549 -7.06476e-05 -0.000521347)
(0.0663811 0.000142384 -0.00134616)
(0.064866 0.000286037 -0.00211794)
(0.0627401 0.000159357 -0.00292189)
(0.0602726 -0.000225556 -0.00376308)
(0.0576608 -0.000739693 -0.00460675)
(0.0549786 -0.00121827 -0.0054181)
(0.0521293 -0.00151909 -0.00617713)
(0.0488632 -0.00157533 -0.00688696)
(0.0448488 -0.00142021 -0.00757437)
(0.0397702 -0.00117557 -0.00827872)
(0.0334111 -0.00100063 -0.00902091)
(0.0257293 -0.00102354 -0.00972484)
(0.0168917 -0.00134571 -0.0100406)
(0.00800785 -0.00211527 -0.00901356)
(0.00150429 -0.00232623 -0.00491399)
(0.104387 8.81521e-05 -0.000390797)
(0.103755 0.000433836 -0.00114281)
(0.102378 0.000645516 -0.00194751)
(0.100211 0.000444714 -0.00287806)
(0.0973592 -0.000228427 -0.00393706)
(0.0939376 -0.00118479 -0.00507998)
(0.090029 -0.00209718 -0.00623412)
(0.0856129 -0.00263348 -0.00733156)
(0.080508 -0.0025817 -0.00833242)
(0.0743765 -0.00192503 -0.00923993)
(0.0667849 -0.000854346 -0.0100992)
(0.057302 0.000324589 -0.0109624)
(0.0455915 0.00127945 -0.0117926)
(0.0314324 0.0016206 -0.0121871)
(0.0160847 0.00067625 -0.0109044)
(0.00388569 -0.00108226 -0.00572907)
(0.135399 0.000199603 -0.000304587)
(0.134926 0.000680969 -0.000903498)
(0.133822 0.00104367 -0.00156142)
(0.131913 0.000983842 -0.00237508)
(0.129085 0.000350162 -0.00339757)
(0.125245 -0.000721102 -0.00461731)
(0.120368 -0.00183553 -0.00596189)
(0.114474 -0.00251059 -0.00732479)
(0.107539 -0.00234316 -0.00860319)
(0.0993889 -0.00114373 -0.00973747)
(0.0896697 0.000961372 -0.0107394)
(0.0778548 0.00364465 -0.0116661)
(0.0633383 0.00643121 -0.0125329)
(0.045324 0.00857398 -0.0129827)
(0.0245079 0.00831526 -0.0116224)
(0.00669828 0.00372228 -0.00599576)
(0.160189 0.000288234 -0.000257493)
(0.159788 0.000889802 -0.00075534)
(0.158858 0.001421 -0.00127905)
(0.157207 0.00163877 -0.00192522)
(0.154599 0.00135447 -0.00279142)
(0.15074 0.000612682 -0.00392446)
(0.145402 -0.000269067 -0.00529564)
(0.138497 -0.000763957 -0.00679959)
(0.130081 -0.000341019 -0.00828954)
(0.120167 0.00135386 -0.0096338)
(0.108627 0.00441918 -0.0107829)
(0.0950551 0.00868499 -0.0117702)
(0.0787665 0.0137663 -0.0126442)
(0.0584303 0.018743 -0.0131324)
(0.0334852 0.0204193 -0.0117955)
(0.0103018 0.0123671 -0.00600343)
(0.178775 0.000370444 -0.000227374)
(0.178402 0.0010944 -0.00066716)
(0.177558 0.00178389 -0.00111099)