/*--------------------------------*- C++ -*----------------------------------*\
| =========                 |                                                 |
| \\      /  F ield         | foam-extend: Open Source CFD                    |
|  \\    /   O peration     | Version:     3.1                                |
|   \\  /    A nd           | Web:         http://www.extend-project.de       |
|    \\/     M anipulation  |                                                 |
\*---------------------------------------------------------------------------*/
FoamFile
{
    version     2.0;
    format      ascii;
    class       volVectorField;
    location    "2.1";
    object      cellMotionU;
}
// * * * * * * * * * * * * * * * * * * * * * * * * * * * * * * * * * * * * * //

dimensions      [0 1 -1 0 0 0 0];

internalField   nonuniform List<vector> 
14592
(
(-6.67051e-12 -1.67441e-11 1.11569e-11)
(-1.89351e-11 -4.84421e-11 3.29154e-11)
(-2.89067e-11 -7.69957e-11 5.44489e-11)
(-3.61208e-11 -1.02789e-10 7.7326e-11)
(-3.98456e-11 -1.25595e-10 1.03019e-10)
(-3.89147e-11 -1.44316e-10 1.33014e-10)
(-3.15278e-11 -1.56551e-10 1.68909e-10)
(-1.50681e-11 -1.5807e-10 2.12504e-10)
(1.4038e-11 -1.41791e-10 2.65919e-10)
(6.00413e-11 -9.66307e-11 3.31743e-10)
(1.26527e-10 -5.94478e-12 4.13347e-10)
(2.12308e-10 1.53911e-10 5.15608e-10)
(3.0114e-10 4.13494e-10 6.46793e-10)
(3.40347e-10 8.05977e-10 8.23143e-10)
(2.13366e-10 1.34663e-09 1.07478e-09)
(-1.77389e-10 1.92208e-09 1.40074e-09)
(-2.00757e-11 -4.98797e-11 3.31015e-11)
(-5.70405e-11 -1.44414e-10 9.76483e-11)
(-8.72296e-11 -2.29791e-10 1.615e-10)
(-1.09354e-10 -3.07388e-10 2.29278e-10)
(-1.21335e-10 -3.76807e-10 3.05316e-10)
(-1.19821e-10 -4.35175e-10 3.93974e-10)
(-9.96205e-11 -4.76142e-10 4.99919e-10)
(-5.30477e-11 -4.88237e-10 6.28391e-10)
(3.06708e-11 -4.52278e-10 7.85494e-10)
(1.65188e-10 -3.38266e-10 9.78531e-10)
(3.64761e-10 -1.00786e-10 1.21656e-09)
(6.36066e-10 3.24247e-10 1.51136e-09)
(9.57637e-10 1.01941e-09 1.87941e-09)
(1.23754e-09 2.0706e-09 2.34502e-09)
(1.2606e-09 3.50301e-09 2.93554e-09)
(8.18066e-10 4.977e-09 3.57416e-09)
(-3.37219e-11 -8.21151e-11 5.40913e-11)
(-9.5938e-11 -2.37938e-10 1.59528e-10)
(-1.47189e-10 -3.79416e-10 2.637e-10)
(-1.85612e-10 -5.09376e-10 3.74078e-10)
(-2.08124e-10 -6.28016e-10 4.97631e-10)
(-2.09652e-10 -7.31957e-10 6.41336e-10)
(-1.82254e-10 -8.13081e-10 8.12604e-10)
(-1.13809e-10 -8.55873e-10 1.0197e-09)
(1.31812e-11 -8.34819e-10 1.27208e-09)
(2.22877e-10 -7.0911e-10 1.58076e-09)
(5.45609e-10 -4.17615e-10 1.95851e-09)
(1.0133e-09 1.26749e-10 2.41942e-09)
(1.64434e-09 1.03542e-09 2.97655e-09)
(2.40844e-09 2.42063e-09 3.63244e-09)
(3.16488e-09 4.29721e-09 4.34607e-09)
(3.61537e-09 6.17445e-09 4.92081e-09)
(-4.7671e-11 -1.12663e-10 7.35721e-11)
(-1.35883e-10 -3.26888e-10 2.16898e-10)
(-2.09368e-10 -5.22733e-10 3.58251e-10)
(-2.66082e-10 -7.05133e-10 5.07621e-10)
(-3.02444e-10 -8.75864e-10 6.74277e-10)
(-3.12436e-10 -1.03284e-09 8.67421e-10)
(-2.86373e-10 -1.16868e-09 1.09676e-09)
(-2.09284e-10 -1.26874e-09 1.37298e-09)
(-5.87316e-11 -1.30801e-09 1.70821e-09)
(1.97934e-10 -1.24674e-09 2.11626e-09)
(6.0657e-10 -1.02471e-09 2.61262e-09)
(1.22787e-09 -5.55988e-10 3.21295e-09)
(2.13318e-09 2.71434e-10 3.92767e-09)
(3.37955e-09 1.57237e-09 4.74512e-09)
(4.91848e-09 3.36077e-09 5.58461e-09)
(6.29425e-09 5.13852e-09 6.18681e-09)
(-6.18827e-11 -1.40584e-10 9.10885e-11)
(-1.76781e-10 -4.08534e-10 2.68409e-10)
(-2.73696e-10 -6.55374e-10 4.42882e-10)
(-3.5086e-10 -8.88762e-10 6.26603e-10)
(-4.04799e-10 -1.11302e-09 8.30712e-10)
(-4.29472e-10 -1.32897e-09 1.06616e-09)
(-4.14828e-10 -1.53251e-09 1.34439e-09)
(-3.45305e-10 -1.71422e-09 1.67787e-09)
(-1.97045e-10 -1.85643e-09 2.08063e-09)
(6.53826e-11 -1.93136e-09 2.56868e-09)
(4.93908e-10 -1.89701e-09 3.16014e-09)
(1.16249e-09 -1.6932e-09 3.87442e-09)
(2.16963e-09 -1.2385e-09 4.72834e-09)
(3.61929e-09 -4.38417e-10 5.72283e-09)
(5.50671e-09 7.49776e-10 6.79982e-09)
(7.27379e-09 2.00017e-09 7.69229e-09)
(-7.61862e-11 -1.64753e-10 1.06306e-10)
(-2.18121e-10 -4.79506e-10 3.13066e-10)
(-3.39364e-10 -7.71775e-10 5.15933e-10)
(-4.38807e-10 -1.05221e-09 7.28632e-10)
(-5.13709e-10 -1.32841e-09 9.63688e-10)
(-5.58787e-10 -1.60482e-09 1.23328e-09)
(-5.65205e-10 -1.88288e-09 1.54995e-09)
(-5.18973e-10 -2.16039e-09 1.92724e-09)
(-3.99103e-10 -2.43201e-09 2.38027e-09)
(-1.74686e-10 -2.68868e-09 2.92639e-09)
(1.98526e-10 -2.91855e-09 3.58589e-09)
(7.82056e-10 -3.10749e-09 4.38275e-09)
(1.65607e-09 -3.2378e-09 5.34458e-09)
(2.90405e-09 -3.27978e-09 6.49761e-09)
(4.52055e-09 -3.17241e-09 7.83243e-09)
(6.03079e-09 -2.87251e-09 9.0945e-09)
(-9.0295e-11 -1.83939e-10 1.19015e-10)
(-2.5906e-10 -5.36164e-10 3.50263e-10)
(-4.04897e-10 -8.65672e-10 5.76414e-10)
(-5.27685e-10 -1.18609e-09 8.12321e-10)
(-6.25836e-10 -1.50839e-09 1.07139e-09)
(-6.95491e-10 -1.84094e-09 1.36647e-09)
(-7.29953e-10 -2.19065e-09 1.71057e-09)
(-7.18671e-10 -2.56353e-09 2.1175e-09)
(-6.46326e-10 -2.96632e-09 2.60252e-09)
(-4.92025e-10 -3.40934e-09 3.18309e-09)
(-2.2959e-10 -3.91185e-09 3.87995e-09)
(1.69345e-10 -4.51055e-09 4.71895e-09)
(7.24535e-10 -5.27306e-09 5.73331e-09)
(1.42174e-09 -6.30686e-09 6.96304e-09)
(2.17015e-09 -7.70709e-09 8.42357e-09)
(2.77645e-09 -9.16461e-09 9.86696e-09)
(-1.0384e-10 -1.96929e-10 1.29143e-10)
(-2.98502e-10 -5.74912e-10 3.79789e-10)
(-4.68371e-10 -9.30818e-10 6.24017e-10)
(-6.14531e-10 -1.281e-09 8.77299e-10)
(-7.3664e-10 -1.63903e-09 1.15344e-09)
(-8.32647e-10 -2.01691e-09 1.46539e-09)
(-8.98313e-10 -2.4259e-09 1.82603e-09)
(-9.26999e-10 -2.87816e-09 2.24866e-09)
(-9.09716e-10 -3.38909e-09 2.74763e-09)
(-8.3625e-10 -3.98135e-09 3.339e-09)
(-6.98916e-10 -4.69187e-09 4.04156e-09)
(-5.03351e-10 -5.58507e-09 4.8784e-09)
(-2.9673e-10 -6.77807e-09 5.87877e-09)
(-2.39543e-10 -8.49216e-09 7.07634e-09)
(-7.5526e-10 -1.11223e-08 8.47586e-09)
(-2.43494e-09 -1.47888e-08 9.82682e-09)
(-8.165e-12 -1.75476e-11 1.05561e-11)
(-2.33638e-11 -5.07855e-11 3.11209e-11)
(-3.6296e-11 -8.07638e-11 5.14104e-11)
(-4.6759e-11 -1.07922e-10 7.28629e-11)
(-5.42764e-11 -1.32016e-10 9.68098e-11)
(-5.79564e-11 -1.5185e-10 1.24565e-10)
(-5.63159e-11 -1.64842e-10 1.57499e-10)
(-4.70841e-11 -1.66331e-10 1.9711e-10)
(-2.70948e-11 -1.48611e-10 2.45097e-10)
(7.48564e-12 -9.95456e-11 3.03486e-10)
(5.98653e-11 -1.01263e-12 3.74891e-10)
(1.28715e-10 1.72091e-10 4.63152e-10)
(1.98748e-10 4.50112e-10 5.74823e-10)
(2.22839e-10 8.57539e-10 7.21789e-10)
(1.06583e-10 1.37442e-09 9.20099e-10)
(-2.02339e-10 1.82596e-09 1.14475e-09)
(-2.45085e-11 -5.22899e-11 3.13198e-11)
(-7.01632e-11 -1.51409e-10 9.23291e-11)
(-1.0913e-10 -2.41098e-10 1.52493e-10)
(-1.40871e-10 -3.2284e-10 2.16054e-10)
(-1.64062e-10 -3.96227e-10 2.86928e-10)
(-1.76171e-10 -4.58198e-10 3.68963e-10)
(-1.72914e-10 -5.01849e-10 4.66162e-10)
(-1.4762e-10 -5.14616e-10 5.82862e-10)
(-9.06701e-11 -4.7563e-10 7.23919e-10)
(1.0497e-11 -3.51863e-10 8.94951e-10)
(1.69242e-10 -9.40224e-11 1.10275e-09)
(3.92473e-10 3.66617e-10 1.35615e-09)
(6.62477e-10 1.1132e-09 1.66754e-09)
(9.03243e-10 2.21288e-09 2.05398e-09)
(9.51783e-10 3.61228e-09 2.52555e-09)
(6.87896e-10 4.84473e-09 2.9913e-09)
(-4.09506e-11 -8.6096e-11 5.11847e-11)
(-1.17351e-10 -2.49577e-10 1.50849e-10)
(-1.82895e-10 -3.9827e-10 2.49015e-10)
(-2.36948e-10 -5.35291e-10 3.52535e-10)
(-2.77643e-10 -6.60913e-10 4.67706e-10)
(-3.01224e-10 -7.71603e-10 6.00678e-10)
(-3.01147e-10 -8.58394e-10 7.57794e-10)
(-2.66972e-10 -9.04688e-10 9.45828e-10)
(-1.82849e-10 -8.82279e-10 1.17221e-09)
(-2.62866e-11 -7.46748e-10 1.44513e-09)
(2.32209e-10 -4.30964e-10 1.77353e-09)
(6.25729e-10 1.58929e-10 2.16667e-09)
(1.17944e-09 1.13787e-09 2.63196e-09)
(1.88406e-09 2.59981e-09 3.16735e-09)
(2.65161e-09 4.47406e-09 3.7355e-09)
(3.25349e-09 6.13287e-09 4.18547e-09)
(-5.74851e-11 -1.18191e-10 6.96259e-11)
(-1.64933e-10 -3.43059e-10 2.05122e-10)
(-2.57758e-10 -5.49037e-10 3.38344e-10)
(-3.35559e-10 -7.4156e-10 4.78457e-10)
(-3.96385e-10 -9.22715e-10 6.33829e-10)
(-4.35916e-10 -1.09029e-09 8.12569e-10)
(-4.46379e-10 -1.23647e-09 1.02294e-09)
(-4.14882e-10 -1.34535e-09 1.27364e-09)
(-3.21204e-10 -1.38977e-09 1.57401e-09)
(-1.34611e-10 -1.32605e-09 1.93394e-09)
(1.89793e-10 -1.08829e-09 2.36341e-09)
(7.14599e-10 -5.8252e-10 2.87074e-09)
(1.51903e-09 3.09663e-10 3.45757e-09)
(2.67989e-09 1.69284e-09 4.1052e-09)
(4.18822e-09 3.51109e-09 4.74241e-09)
(5.63946e-09 5.13732e-09 5.18612e-09)
(-7.3997e-11 -1.47562e-10 8.62167e-11)
(-2.12607e-10 -4.28966e-10 2.5388e-10)
(-3.33313e-10 -6.88811e-10 4.18351e-10)
(-4.36305e-10 -9.35469e-10 5.90729e-10)
(-5.20083e-10 -1.17389e-09 7.81069e-10)
(-5.8059e-10 -1.40497e-09 9.99018e-10)
(-6.10113e-10 -1.62485e-09 1.25427e-09)
(-5.95461e-10 -1.82321e-09 1.55691e-09)
(-5.15442e-10 -1.98138e-09 1.91754e-09)
(-3.36899e-10 -2.06906e-09 2.34722e-09)
(-9.03659e-12 -2.04016e-09 2.85689e-09)
(5.43923e-10 -1.82808e-09 3.45556e-09)
(1.42856e-09 -1.34272e-09 4.14549e-09)
(2.76829e-09 -4.84646e-10 4.90914e-09)
(4.5978e-09 7.65736e-10 5.6757e-09)
(6.42554e-09 2.00533e-09 6.24098e-09)
(-9.02637e-11 -1.73011e-10 1.00641e-10)
(-2.59743e-10 -5.03808e-10 2.96185e-10)
(-4.08501e-10 -8.11703e-10 4.87479e-10)
(-5.37688e-10 -1.10847e-09 6.87117e-10)
(-6.46718e-10 -1.40253e-09 9.06419e-10)
(-7.32605e-10 -1.6991e-09 1.15609e-09)
(-7.8894e-10 -2.00001e-09 1.44676e-09)
(-8.04533e-10 -2.30372e-09 1.78929e-09)
(-7.6118e-10 -2.60492e-09 2.19495e-09)
(-6.30621e-10 -2.89463e-09 2.67542e-09)
(-3.70023e-10 -3.16044e-09 3.24244e-09)
(8.40212e-11 -3.38607e-09 3.90682e-09)
(8.21493e-10 -3.54687e-09 4.67526e-09)
(1.95453e-09 -3.59144e-09 5.54033e-09)
(3.54763e-09 -3.40607e-09 6.44524e-09)
(5.23352e-09 -2.90679e-09 7.16508e-09)
(-1.05981e-10 -1.93267e-10 1.12703e-10)
(-3.0539e-10 -5.63663e-10 3.3147e-10)
(-4.81714e-10 -9.11068e-10 5.44799e-10)
(-6.3726e-10 -1.25055e-09 7.66329e-10)
(-7.72684e-10 -1.59407e-09 1.00819e-09)
(-8.86601e-10 -1.95143e-09 1.28168e-09)
(-9.74828e-10 -2.33059e-09 1.59781e-09)
(-1.02964e-09 -2.73902e-09 1.96764e-09)
(-1.03864e-09 -3.18535e-09 2.40242e-09)
(-9.83624e-10 -3.68248e-09 2.91371e-09)
(-8.39802e-10 -4.2532e-09 3.51319e-09)
(-5.76485e-10 -4.93893e-09 4.21225e-09)
(-1.60135e-10 -5.80791e-09 5.01978e-09)
(4.4306e-10 -6.94194e-09 5.93253e-09)
(1.28204e-09 -8.31279e-09 6.89505e-09)
(2.37316e-09 -9.37492e-09 7.66248e-09)
(-1.20771e-10 -2.07038e-10 1.22332e-10)
(-3.48421e-10 -6.04687e-10 3.59537e-10)
(-5.50987e-10 -9.80237e-10 5.90021e-10)
(-7.31962e-10 -1.35147e-09 8.28023e-10)
(-8.93426e-10 -1.73363e-09 1.08603e-09)
(-1.03563e-09 -2.14007e-09 1.37548e-09)
(-1.15691e-09 -2.58392e-09 1.70726e-09)
(-1.2533e-09 -3.07956e-09 2.09202e-09)
(-1.31855e-09 -3.64542e-09 2.54033e-09)
(-1.34479e-09 -4.3085e-09 3.06267e-09)
(-1.32537e-09 -5.11248e-09 3.66944e-09)
(-1.26262e-09 -6.13106e-09 4.3705e-09)
(-1.1876e-09 -7.49045e-09 5.17305e-09)
(-1.20239e-09 -9.39748e-09 6.07163e-09)
(-1.53933e-09 -1.21105e-08 7.00584e-09)
(-2.41093e-09 -1.53476e-08 7.7243e-09)
(-9.68408e-12 -1.83012e-11 9.58175e-12)
(-2.78829e-11 -5.2983e-11 2.82283e-11)
(-4.39053e-11 -8.43268e-11 4.65643e-11)
(-5.7855e-11 -1.12808e-10 6.58481e-11)
(-6.95913e-11 -1.38199e-10 8.72173e-11)
(-7.86189e-11 -1.59265e-10 1.11753e-10)
(-8.39503e-11 -1.73297e-10 1.40521e-10)
(-8.39686e-11 -1.75448e-10 1.7459e-10)
(-7.63468e-11 -1.57696e-10 2.15043e-10)
(-5.83212e-11 -1.07568e-10 2.62976e-10)
(-2.79239e-11 -6.84831e-12 3.19578e-10)
(1.2425e-11 1.6873e-10 3.86366e-10)
(4.74882e-11 4.45919e-10 4.65785e-10)
(3.37454e-11 8.40131e-10 5.61916e-10)
(-1.13098e-10 1.3179e-09 6.77852e-10)
(-4.35901e-10 1.71561e-09 7.91958e-10)
(-2.9007e-11 -5.45378e-11 2.84304e-11)
(-8.35541e-11 -1.58e-10 8.375e-11)
(-1.31661e-10 -2.51774e-10 1.38126e-10)
(-1.73709e-10 -3.37525e-10 1.95265e-10)
(-2.09355e-10 -4.14898e-10 2.58514e-10)
(-2.37218e-10 -4.80719e-10 3.31039e-10)
(-2.54476e-10 -5.27798e-10 4.15941e-10)
(-2.56355e-10 -5.43055e-10 5.163e-10)
(-2.35682e-10 -5.04735e-10 6.35152e-10)
(-1.83033e-10 -3.78945e-10 7.75405e-10)
(-8.86547e-11 -1.1581e-10 9.3976e-10)
(5.10196e-11 3.51429e-10 1.13071e-09)
(2.18017e-10 1.09734e-09 1.35061e-09)
(3.45887e-10 2.16671e-09 1.60064e-09)
(3.01311e-10 3.47237e-09 1.87168e-09)
(3.31105e-12 4.57033e-09 2.10064e-09)
(-4.82856e-11 -8.98359e-11 4.64659e-11)
(-1.39156e-10 -2.60496e-10 1.36846e-10)
(-2.19559e-10 -4.16031e-10 2.25577e-10)
(-2.90322e-10 -5.5985e-10 3.18652e-10)
(-3.51146e-10 -6.92375e-10 4.21449e-10)
(-4.00106e-10 -8.09976e-10 5.39023e-10)
(-4.32999e-10 -9.03462e-10 6.76261e-10)
(-4.42322e-10 -9.55367e-10 8.37929e-10)
(-4.16161e-10 -9.36583e-10 1.02851e-09)
(-3.36901e-10 -8.01074e-10 1.25185e-09)
(-1.80995e-10 -4.80873e-10 1.51043e-09)
(7.8726e-11 1.16481e-10 1.80402e-09)
(4.64502e-10 1.09659e-09 2.12693e-09)
(9.75308e-10 2.52784e-09 2.46199e-09)
(1.5579e-09 4.29896e-09 2.76781e-09)
(2.05321e-09 5.80204e-09 2.95897e-09)
(-6.7414e-11 -1.23353e-10 6.3216e-11)
(-1.94439e-10 -3.58187e-10 1.86107e-10)
(-3.07315e-10 -5.73749e-10 3.06547e-10)
(-4.07575e-10 -7.75959e-10 4.32551e-10)
(-4.95326e-10 -9.67195e-10 5.71269e-10)
(-5.6867e-10 -1.14539e-09 7.29349e-10)
(-6.22813e-10 -1.30247e-09 9.13136e-10)
(-6.48748e-10 -1.42205e-09 1.12865e-09)
(-6.31228e-10 -1.47584e-09 1.38129e-09)
(-5.45979e-10 -1.41886e-09 1.6751e-09)
(-3.55995e-10 -1.18359e-09 2.0113e-09)
(-7.81487e-12 -6.76254e-10 2.38542e-09)
(5.69338e-10 2.15753e-10 2.78183e-09)
(1.44989e-09 1.57768e-09 3.16411e-09)
(2.64424e-09 3.31951e-09 3.46315e-09)
(3.83331e-09 4.82443e-09 3.58939e-09)
(-8.62165e-11 -1.54058e-10 7.82941e-11)
(-2.48906e-10 -4.48082e-10 2.30389e-10)
(-3.94165e-10 -7.20141e-10 3.7912e-10)
(-5.24526e-10 -9.79387e-10 5.34192e-10)
(-6.40913e-10 -1.23127e-09 7.04204e-10)
(-7.42131e-10 -1.47714e-09 8.9705e-10)
(-8.23894e-10 -1.71313e-09 1.12015e-09)
(-8.7752e-10 -1.92894e-09 1.38037e-09)
(-8.87509e-10 -2.10529e-09 1.68358e-09)
(-8.28074e-10 -2.21094e-09 2.03366e-09)
(-6.57746e-10 -2.19848e-09 2.43051e-09)
(-3.12172e-10 -1.99985e-09 2.86636e-09)
(3.01685e-10 -1.52505e-09 3.31905e-09)
(1.29312e-09 -6.79845e-10 3.74119e-09)
(2.69338e-09 5.40674e-10 4.04956e-09)
(4.09166e-09 1.72902e-09 4.15114e-09)
(-1.04429e-10 -1.80716e-10 9.14136e-11)
(-3.01754e-10 -5.26455e-10 2.6885e-10)
(-4.78805e-10 -8.49027e-10 4.41894e-10)
(-6.39301e-10 -1.16112e-09 6.21578e-10)
(-7.85374e-10 -1.47205e-09 8.17577e-10)
(-9.17093e-10 -1.78767e-09 1.03867e-09)
(-1.03183e-09 -2.11052e-09 1.29295e-09)
(-1.12303e-09 -2.4394e-09 1.58773e-09)
(-1.17852e-09 -2.76946e-09 1.92902e-09)
(-1.17756e-09 -3.0918e-09 2.32039e-09)
(-1.08663e-09 -3.39359e-09 2.76075e-09)
(-8.53537e-10 -3.65687e-09 3.24035e-09)
(-4.01184e-10 -3.85189e-09 3.73358e-09)
(3.67943e-10 -3.91591e-09 4.18708e-09)
(1.50429e-09 -3.72102e-09 4.50754e-09)
(2.68584e-09 -3.19807e-09 4.59318e-09)
(-1.21702e-10 -2.01939e-10 1.024e-10)
(-3.51975e-10 -5.89238e-10 3.00975e-10)
(-5.59483e-10 -9.53371e-10 4.94037e-10)
(-7.49266e-10 -1.31058e-09 6.93549e-10)
(-9.24855e-10 -1.6741e-09 9.0989e-10)
(-1.08793e-09 -2.05456e-09 1.15235e-09)
(-1.23814e-09 -2.46116e-09 1.42931e-09)
(-1.37234e-09 -2.9025e-09 1.74816e-09)
(-1.48385e-09 -3.38849e-09 2.11476e-09)
(-1.56132e-09 -3.9335e-09 2.53222e-09)
(-1.58781e-09 -4.56165e-09 2.99877e-09)
(-1.54028e-09 -5.31391e-09 3.50357e-09)
(-1.38983e-09 -6.25256e-09 4.01885e-09)
(-1.09905e-09 -7.43856e-09 4.48533e-09)
(-6.05969e-10 -8.80503e-09 4.79371e-09)
(1.24555e-10 -9.81674e-09 4.82458e-09)
(-1.3766e-10 -2.16388e-10 1.11188e-10)
(-3.98432e-10 -6.3237e-10 3.2658e-10)
(-6.34234e-10 -1.02614e-09 5.35282e-10)
(-8.51419e-10 -1.41707e-09 7.49785e-10)
(-1.0548e-09 -1.82153e-09 9.80822e-10)
(-1.24779e-09 -2.25444e-09 1.23781e-09)
(-1.43224e-09 -2.7303e-09 1.52908e-09)
(-1.60845e-09 -3.26525e-09 1.86175e-09)
(-1.77514e-09 -3.87977e-09 2.24123e-09)
(-1.93004e-09 -4.60341e-09 2.67011e-09)
(-2.0718e-09 -5.48242e-09 3.14619e-09)
(-2.20553e-09 -6.59233e-09 3.65877e-09)
(-2.35631e-09 -8.05579e-09 4.18117e-09)
(-2.59966e-09 -1.00612e-08 4.65537e-09)
(-3.11296e-09 -1.28271e-08 4.9659e-09)
(-4.0841e-09 -1.60732e-08 4.96464e-09)
(-1.11458e-11 -1.89814e-11 8.28311e-12)
(-3.22484e-11 -5.49747e-11 2.43849e-11)
(-5.13032e-11 -8.75566e-11 4.01659e-11)
(-6.87552e-11 -1.17266e-10 5.66686e-11)
(-8.48426e-11 -1.43899e-10 7.48089e-11)
(-9.95435e-11 -1.66212e-10 9.54108e-11)
(-1.12508e-10 -1.81478e-10 1.19211e-10)
(-1.22979e-10 -1.84784e-10 1.46833e-10)
(-1.29826e-10 -1.68098e-10 1.78712e-10)
(-1.31882e-10 -1.19099e-10 2.14994e-10)
(-1.29225e-10 -2.02012e-11 2.55415e-10)
(-1.2664e-10 1.51072e-10 2.99233e-10)
(-1.41563e-10 4.17659e-10 3.45323e-10)
(-2.18752e-10 7.88817e-10 3.92392e-10)
(-4.42002e-10 1.22677e-09 4.38282e-10)
(-8.44687e-10 1.58169e-09 4.74165e-10)
(-3.33362e-11 -5.65735e-11 2.45778e-11)
(-9.64689e-11 -1.63934e-10 7.23511e-11)
(-1.53548e-10 -2.61437e-10 1.19152e-10)
(-2.05937e-10 -3.50896e-10 1.68055e-10)
(-2.54406e-10 -4.32042e-10 2.21753e-10)
(-2.98971e-10 -5.01729e-10 2.82655e-10)
(-3.38654e-10 -5.52693e-10 3.52901e-10)
(-3.71205e-10 -5.7169e-10 4.3426e-10)
(-3.92946e-10 -5.36953e-10 5.27886e-10)
(-3.99142e-10 -4.14864e-10 6.33932e-10)
(-3.8615e-10 -1.57209e-10 7.50992e-10)
(-3.57526e-10 2.98383e-10 8.75486e-10)
(-3.3794e-10 1.01689e-09 1.00111e-09)
(-3.96439e-10 2.028e-09 1.11839e-09)
(-6.57703e-10 3.23535e-09 1.21363e-09)
(-1.15754e-09 4.23279e-09 1.26632e-09)
(-5.53247e-11 -9.3187e-11 4.0174e-11)
(-1.60164e-10 -2.70331e-10 1.18232e-10)
(-2.55122e-10 -4.32072e-10 1.94613e-10)
(-3.42613e-10 -5.82129e-10 2.74286e-10)
(-4.24112e-10 -7.21114e-10 3.61579e-10)
(-4.99912e-10 -8.4551e-10 4.60331e-10)
(-5.68702e-10 -9.45974e-10 5.73899e-10)
(-6.27021e-10 -1.00504e-09 7.04943e-10)
(-6.68419e-10 -9.9332e-10 8.54968e-10)
(-6.82863e-10 -8.65267e-10 1.02347e-09)
(-6.56723e-10 -5.54549e-10 1.20665e-09)
(-5.75097e-10 2.61307e-11 1.39551e-09)
(-4.28398e-10 9.71237e-10 1.57357e-09)
(-2.24517e-10 2.33157e-09 1.71494e-09)
(-5.23499e-13 3.98604e-09 1.78676e-09)
(1.77257e-10 5.3736e-09 1.77433e-09)
(-7.69322e-11 -1.27989e-10 5.46633e-11)
(-2.2282e-10 -3.71796e-10 1.60817e-10)
(-3.55282e-10 -5.96006e-10 2.64515e-10)
(-4.77952e-10 -8.07026e-10 3.72406e-10)
(-5.9327e-10 -1.0076e-09 4.90242e-10)
(-7.02195e-10 -1.19583e-09 6.23072e-10)
(-8.03721e-10 -1.36373e-09 7.7521e-10)
(-8.93978e-10 -1.49484e-09 9.4992e-10)
(-9.64846e-10 -1.56079e-09 1.14867e-09)
(-1.00184e-09 -1.51672e-09 1.36978e-09)
(-9.81337e-10 -1.29638e-09 1.60624e-09)
(-8.67292e-10 -8.0971e-10 1.84239e-09)
(-6.09753e-10 4.71366e-11 2.04977e-09)
(-1.52357e-10 1.34505e-09 2.18452e-09)
(5.25151e-10 2.98485e-09 2.19691e-09)
(1.23685e-09 4.38724e-09 2.0918e-09)
(-9.7909e-11 -1.59894e-10 6.77141e-11)
(-2.83722e-10 -4.652e-10 1.99124e-10)
(-4.52907e-10 -7.48267e-10 3.27217e-10)
(-6.10471e-10 -1.01888e-09 4.60052e-10)
(-7.601e-10 -1.28308e-09 6.04546e-10)
(-9.03893e-10 -1.54251e-09 7.66697e-10)
(-1.04198e-09 -1.79375e-09 9.51509e-10)
(-1.1715e-09 -2.02648e-09 1.16258e-09)
(-1.2851e-09 -2.22156e-09 1.40111e-09)
(-1.36818e-09 -2.34778e-09 1.6641e-09)
(-1.39474e-09 -2.35806e-09 1.94139e-09)
(-1.32163e-09 -2.18567e-09 2.21124e-09)
(-1.08373e-09 -1.74407e-09 2.43473e-09)
(-6.03092e-10 -9.45715e-10 2.55337e-09)
(1.44566e-10 2.08013e-10 2.50619e-09)
(9.03483e-10 1.32657e-09 2.32036e-09)
(-1.17935e-10 -1.8759e-10 7.90814e-11)
(-3.41949e-10 -5.46723e-10 2.32428e-10)
(-5.46449e-10 -8.82414e-10 3.81519e-10)
(-7.37943e-10 -1.20831e-09 5.35517e-10)
(-9.21541e-10 -1.53441e-09 7.02226e-10)
(-1.10092e-09 -1.86729e-09 8.88308e-10)
(-1.27804e-09 -2.20995e-09 1.09921e-09)
(-1.45256e-09 -2.56181e-09 1.33866e-09)
(-1.62059e-09 -2.91822e-09 1.6075e-09)
(-1.77278e-09 -3.27049e-09 1.90163e-09)
(-1.89121e-09 -3.60552e-09 2.20849e-09)
(-1.94494e-09 -3.90426e-09 2.50172e-09)
(-1.88587e-09 -4.13479e-09 2.73434e-09)
(-1.65267e-09 -4.23156e-09 2.83541e-09)
(-1.21608e-09 -4.06731e-09 2.73216e-09)
(-7.54396e-10 -3.5779e-09 2.46939e-09)
(-1.36654e-10 -2.09678e-10 8.86121e-11)
(-3.96408e-10 -6.12071e-10 2.60286e-10)
(-6.34058e-10 -9.91129e-10 4.26703e-10)
(-8.57582e-10 -1.36425e-09 5.97812e-10)
(-1.07355e-09 -1.74549e-09 7.8201e-10)
(-1.28738e-09 -2.14657e-09 9.86354e-10)
(-1.50322e-09 -2.57744e-09 1.2165e-09)
(-1.72394e-09 -3.04758e-09 1.47616e-09)
(-1.95067e-09 -3.56763e-09 1.76587e-09)
(-2.18245e-09 -4.15244e-09 2.08088e-09)
(-2.41574e-09 -4.82571e-09 2.40738e-09)
(-2.64474e-09 -5.62637e-09 2.71666e-09)
(-2.86202e-09 -6.61106e-09 2.95679e-09)
(-3.0551e-09 -7.83165e-09 3.04583e-09)
(-3.17554e-09 -9.21757e-09 2.89134e-09)
(-3.07381e-09 -1.02534e-08 2.53746e-09)
(-1.53687e-10 -2.24744e-10 9.62491e-11)
(-4.45957e-10 -6.57004e-10 2.8254e-10)
(-7.13779e-10 -1.06706e-09 4.62537e-10)
(-9.66388e-10 -1.47541e-09 6.46663e-10)
(-1.21173e-09 -1.89974e-09 8.4361e-10)
(-1.45667e-09 -2.35594e-09 1.06059e-09)
(-1.70739e-09 -2.85972e-09 1.30325e-09)
(-1.96956e-09 -3.42836e-09 1.57516e-09)
(-2.24876e-09 -4.08345e-09 1.87671e-09)
(-2.55117e-09 -4.85535e-09 2.20302e-09)
(-2.88547e-09 -5.79035e-09 2.54061e-09)
(-3.26767e-09 -6.96195e-09 2.86191e-09)
(-3.73293e-09 -8.48723e-09 3.11702e-09)
(-4.36328e-09 -1.05458e-08 3.22384e-09)
(-5.33192e-09 -1.33547e-08 3.07275e-09)
(-6.74823e-09 -1.66588e-08 2.65489e-09)
(-1.24603e-11 -1.95607e-11 6.71702e-12)
(-3.61819e-11 -5.66669e-11 1.97615e-11)
(-5.80095e-11 -9.03191e-11 3.25051e-11)
(-7.87161e-11 -1.21099e-10 4.57584e-11)
(-9.89262e-11 -1.48841e-10 6.0209e-11)
(-1.19117e-10 -1.72333e-10 7.64335e-11)
(-1.39611e-10 -1.88857e-10 9.48778e-11)
(-1.6061e-10 -1.93556e-10 1.15794e-10)
(-1.8231e-10 -1.78537e-10 1.39124e-10)
(-2.0537e-10 -1.31861e-10 1.64332e-10)
(-2.32248e-10 -3.68721e-11 1.902e-10)
(-2.70555e-10 1.27033e-10 2.14667e-10)
(-3.40572e-10 3.79496e-10 2.34888e-10)
(-4.88889e-10 7.25367e-10 2.47784e-10)
(-7.9764e-10 1.12419e-09 2.51428e-10)
(-1.28284e-09 1.43536e-09 2.47811e-10)
(-3.72228e-11 -5.82962e-11 1.9932e-11)
(-1.0811e-10 -1.69e-10 5.86351e-11)
(-1.73377e-10 -2.69696e-10 9.6431e-11)
(-2.35368e-10 -3.62373e-10 1.35708e-10)
(-2.95983e-10 -4.46886e-10 1.78488e-10)
(-3.56683e-10 -5.20156e-10 2.26457e-10)
(-4.1847e-10 -5.74977e-10 2.80901e-10)
(-4.81883e-10 -5.9827e-10 3.42508e-10)
(-5.47127e-10 -5.68584e-10 4.11006e-10)
(-6.14853e-10 -4.5335e-10 4.84598e-10)
(-6.88442e-10 -2.06648e-10 5.59254e-10)
(-7.79895e-10 2.29072e-10 6.28008e-10)
(-9.22112e-10 9.10581e-10 6.80831e-10)
(-1.18775e-09 1.8573e-09 7.06177e-10)
(-1.68911e-09 2.96964e-09 6.96628e-10)
(-2.39814e-09 3.87144e-09 6.64271e-10)
(-6.16477e-11 -9.60447e-11 3.25824e-11)
(-1.79075e-10 -2.787e-10 9.58274e-11)
(-2.87304e-10 -4.45752e-10 1.5752e-10)
(-3.90306e-10 -6.01206e-10 2.21523e-10)
(-4.91352e-10 -7.45894e-10 2.91084e-10)
(-5.93021e-10 -8.76416e-10 3.68887e-10)
(-6.97158e-10 -9.83636e-10 4.56927e-10)
(-8.04649e-10 -1.05016e-09 5.56164e-10)
(-9.15258e-10 -1.04717e-09 6.65861e-10)
(-1.02748e-09 -9.30209e-10 7.82542e-10)
(-1.13913e-09 -6.35827e-10 8.9855e-10)
(-1.24932e-09 -8.23982e-11 1.00047e-09)
(-1.36261e-09 8.14848e-10 1.06838e-09)
(-1.49279e-09 2.0953e-09 1.07855e-09)
(-1.65168e-09 3.63722e-09 1.01631e-09)
(-1.78981e-09 4.92104e-09 9.15451e-10)
(-8.54652e-11 -1.31924e-10 4.434e-11)
(-2.48324e-10 -3.83342e-10 1.30363e-10)
(-3.98617e-10 -6.14939e-10 2.14137e-10)
(-5.42028e-10 -8.33546e-10 3.00832e-10)
(-6.83331e-10 -1.04223e-09 3.9477e-10)
(-8.26472e-10 -1.23936e-09 4.9947e-10)
(-9.74477e-10 -1.41717e-09 6.17469e-10)
(-1.12912e-09 -1.5594e-09 7.49814e-10)
(-1.29022e-09 -1.63812e-09 8.95081e-10)
(-1.45443e-09 -1.60944e-09 1.0478e-09)
(-1.6132e-09 -1.40929e-09 1.19621e-09)
(-1.74986e-09 -9.52215e-10 1.3196e-09)
(-1.83563e-09 -1.42179e-10 1.38693e-09)
(-1.82688e-09 1.08223e-09 1.36121e-09)
(-1.67478e-09 2.62115e-09 1.22186e-09)
(-1.40576e-09 3.93053e-09 1.03235e-09)
(-1.08367e-10 -1.64822e-10 5.49368e-11)
(-3.14962e-10 -4.79725e-10 1.61448e-10)
(-5.05868e-10 -7.72135e-10 2.6496e-10)
(-6.88537e-10 -1.05247e-09 3.71744e-10)
(-8.6938e-10 -1.3272e-09 4.87001e-10)
(-1.05399e-09 -1.59847e-09 6.14906e-10)
(-1.24707e-09 -1.86302e-09 7.58377e-10)
(-1.45225e-09 -2.11098e-09 9.18406e-10)
(-1.67115e-09 -2.32343e-09 1.09282e-09)
(-1.90183e-09 -2.46964e-09 1.27418e-09)
(-2.13568e-09 -2.50348e-09 1.44683e-09)
(-2.35249e-09 -2.36011e-09 1.5832e-09)
(-2.5143e-09 -1.95646e-09 1.64181e-09)
(-2.56448e-09 -1.20973e-09 1.57368e-09)
(-2.45564e-09 -1.22697e-10 1.35506e-09)
(-2.25539e-09 9.32837e-10 1.08248e-09)
(-1.30001e-10 -1.93414e-10 6.41735e-11)
(-3.77927e-10 -5.63859e-10 1.885e-10)
(-6.07296e-10 -9.10691e-10 3.09025e-10)
(-8.27282e-10 -1.24827e-09 4.32892e-10)
(-1.046e-09 -1.58728e-09 5.65973e-10)
(-1.27081e-09 -1.93481e-09 7.12919e-10)
(-1.5086e-09 -2.2944e-09 8.76878e-10)
(-1.76567e-09 -2.66575e-09 1.05874e-09)
(-2.04743e-09 -3.04452e-09 1.2557e-09)
(-2.35735e-09 -3.42195e-09 1.45879e-09)
(-2.69502e-09 -3.78444e-09 1.64934e-09)
(-3.05266e-09 -4.11174e-09 1.79437e-09)
(-3.41017e-09 -4.3698e-09 1.84359e-09)
(-3.73077e-09 -4.49075e-09 1.7365e-09)
(-3.96897e-09 -4.34677e-09 1.44408e-09)
(-4.11466e-09 -3.87382e-09 1.09323e-09)
(-1.49977e-10 -2.16212e-10 7.19285e-11)
(-4.36078e-10 -6.3134e-10 2.1116e-10)
(-7.00951e-10 -1.02302e-09 3.45755e-10)
(-9.55354e-10 -1.40951e-09 4.83482e-10)
(-1.20898e-09 -1.80578e-09 6.30672e-10)
(-1.47092e-09 -2.22412e-09 7.92281e-10)
(-1.7502e-09 -2.6752e-09 9.7158e-10)
(-2.0561e-09 -3.16899e-09 1.16938e-09)
(-2.39852e-09 -3.71637e-09 1.3825e-09)
(-2.78819e-09 -4.3318e-09 1.60123e-09)
(-3.23703e-09 -5.03751e-09 1.80542e-09)
(-3.75868e-09 -5.86872e-09 1.95927e-09)
(-4.36779e-09 -6.87537e-09 2.00671e-09)
(-5.06866e-09 -8.0999e-09 1.87592e-09)
(-5.79226e-09 -9.4651e-09 1.52219e-09)
(-6.22145e-09 -1.04663e-08 1.08476e-09)
(-1.67918e-10 -2.31764e-10 7.81548e-11)
(-4.88294e-10 -6.77793e-10 2.29297e-10)
(-7.84908e-10 -1.10153e-09 3.74956e-10)
(-1.06986e-09 -1.52459e-09 5.23279e-10)
(-1.35407e-09 -1.9655e-09 6.80862e-10)
(-1.64801e-09 -2.44107e-09 8.52788e-10)
(-1.96235e-09 -2.96779e-09 1.04237e-09)
(-2.30861e-09 -3.56355e-09 1.25038e-09)
(-2.69997e-09 -4.25027e-09 1.47366e-09)
(-3.15238e-09 -5.05787e-09 1.70268e-09)
(-3.68656e-09 -6.03073e-09 1.91791e-09)
(-4.33228e-09 -7.23782e-09 2.08487e-09)
(-5.13776e-09 -8.78784e-09 2.14887e-09)
(-6.1898e-09 -1.08481e-08 2.03477e-09)
(-7.63242e-09 -1.36233e-08 1.67317e-09)
(-9.429e-09 -1.68608e-08 1.14715e-09)
(-1.35394e-11 -2.0017e-11 4.94376e-12)
(-3.94209e-11 -5.80079e-11 1.45362e-11)
(-6.35511e-11 -9.25053e-11 2.3882e-11)
(-8.69965e-11 -1.24144e-10 3.35547e-11)
(-1.10724e-10 -1.52795e-10 4.40246e-11)
(-1.3566e-10 -1.77276e-10 5.5657e-11)
(-1.62754e-10 -1.94921e-10 6.86801e-11)
(-1.93085e-10 -2.00958e-10 8.31151e-11)
(-2.28088e-10 -1.87689e-10 9.86564e-11)
(-2.70106e-10 -1.43612e-10 1.14503e-10)
(-3.23733e-10 -5.29382e-11 1.29174e-10)
(-3.9898e-10 1.03313e-10 1.40387e-10)
(-5.18089e-10 3.42211e-10 1.45235e-10)
(-7.27581e-10 6.65321e-10 1.41018e-10)
(-1.10413e-09 1.03005e-09 1.2732e-10)
(-1.64476e-09 1.30284e-09 1.10507e-10)
(-4.04166e-11 -5.96618e-11 1.46703e-11)
(-1.17683e-10 -1.72992e-10 4.31328e-11)
(-1.89754e-10 -2.76222e-10 7.08523e-11)
(-2.59821e-10 -3.71478e-10 9.95206e-11)
(-3.30788e-10 -4.58724e-10 1.3052e-10)
(-4.05431e-10 -5.34989e-10 1.64916e-10)
(-4.86578e-10 -5.9321e-10 2.03363e-10)
(-5.77329e-10 -6.2051e-10 2.45883e-10)
(-6.81524e-10 -5.95991e-10 2.91502e-10)
(-8.04733e-10 -4.88162e-10 3.37713e-10)
(-9.56672e-10 -2.53391e-10 3.79864e-10)
(-1.15641e-09 1.61778e-10 4.10722e-10)
(-1.44245e-09 8.07737e-10 4.20937e-10)
(-1.88586e-09 1.69656e-09 4.01809e-10)
(-2.57812e-09 2.72664e-09 3.52863e-10)
(-3.42888e-09 3.5452e-09 2.98212e-10)
(-6.68326e-11 -9.82902e-11 2.39834e-11)
(-1.94618e-10 -2.85291e-10 7.04978e-11)
(-3.1386e-10 -4.56546e-10 1.15749e-10)
(-4.29893e-10 -6.16299e-10 1.62472e-10)
(-5.47578e-10 -7.65576e-10 2.12889e-10)
(-6.71587e-10 -9.01182e-10 2.68693e-10)
(-8.06617e-10 -1.01412e-09 3.30883e-10)
(-9.57637e-10 -1.08738e-09 3.99385e-10)
(-1.13011e-09 -1.09274e-09 4.72414e-10)
(-1.3304e-09 -9.87138e-10 5.45524e-10)
(-1.56648e-09 -7.09821e-10 6.10444e-10)
(-1.84905e-09 -1.84089e-10 6.54188e-10)
(-2.19205e-09 6.67405e-10 6.59723e-10)
(-2.60653e-09 1.87625e-09 6.11105e-10)
(-3.06809e-09 3.32157e-09 5.08393e-10)
(-3.4228e-09 4.51635e-09 4.0011e-10)
(-9.24568e-11 -1.35014e-10 3.26418e-11)
(-2.69267e-10 -3.92431e-10 9.59167e-11)
(-4.34335e-10 -6.29846e-10 1.57376e-10)
(-5.95135e-10 -8.54453e-10 2.20682e-10)
(-7.58526e-10 -1.06962e-09 2.88793e-10)
(-9.31147e-10 -1.27397e-09 3.63925e-10)
(-1.11972e-09 -1.45996e-09 4.47321e-10)
(-1.33122e-09 -1.61171e-09 5.38717e-10)
(-1.57284e-09 -1.70179e-09 6.35412e-10)
(-1.85135e-09 -1.68746e-09 7.30876e-10)
(-2.17155e-09 -1.5068e-09 8.12986e-10)
(-2.53243e-09 -1.07822e-09 8.62564e-10)
(-2.91897e-09 -3.116e-10 8.54242e-10)
(-3.28688e-09 8.48266e-10 7.64295e-10)
(-3.54324e-09 2.30233e-09 5.93955e-10)
(-3.57635e-09 3.53387e-09 4.19471e-10)
(-1.16929e-10 -1.68699e-10 4.0449e-11)
(-3.40572e-10 -4.91118e-10 1.1881e-10)
(-5.4945e-10 -7.90879e-10 1.94769e-10)
(-7.53124e-10 -1.07885e-09 2.72774e-10)
(-9.60454e-10 -1.36195e-09 3.56387e-10)
(-1.18012e-09 -1.64259e-09 4.48239e-10)
(-1.4211e-09 -1.91789e-09 5.49728e-10)
(-1.69291e-09 -2.17819e-09 6.60354e-10)
(-2.00552e-09 -2.40494e-09 7.76528e-10)
(-2.36847e-09 -2.56789e-09 8.89769e-10)
(-2.78836e-09 -2.62172e-09 9.84354e-10)
(-3.26327e-09 -2.50293e-09 1.03526e-09)
(-3.77249e-09 -2.13057e-09 1.0091e-09)
(-4.26221e-09 -1.42434e-09 8.74838e-10)
(-4.63986e-09 -3.87381e-10 6.363e-10)
(-4.81289e-09 6.20761e-10 3.99885e-10)
(-1.39858e-10 -1.97971e-10 4.72601e-11)
(-4.07376e-10 -5.77287e-10 1.38748e-10)
(-6.57269e-10 -9.32834e-10 2.27222e-10)
(-9.0105e-10 -1.27958e-09 3.17751e-10)
(-1.14946e-09 -1.62871e-09 4.14365e-10)
(-1.41321e-09 -1.98774e-09 5.2e-10)
(-1.70362e-09 -2.36055e-09 6.3615e-10)
(-2.03319e-09 -2.7471e-09 7.62106e-10)
(-2.41584e-09 -3.14311e-09 8.93593e-10)
(-2.86672e-09 -3.53954e-09 1.02065e-09)
(-3.40064e-09 -3.92192e-09 1.12477e-09)
(-4.02807e-09 -4.26807e-09 1.17624e-09)
(-4.74602e-09 -4.5407e-09 1.13462e-09)
(-5.52079e-09 -4.66787e-09 9.61184e-10)
(-6.26277e-09 -4.52012e-09 6.603e-10)
(-6.8014e-09 -4.04087e-09 3.67681e-10)
(-1.60842e-10 -2.2132e-10 5.29841e-11)
(-4.68493e-10 -6.4642e-10 1.5547e-10)
(-7.5578e-10 -1.04795e-09 2.54312e-10)
(-1.03591e-09 -1.44492e-09 3.55031e-10)