/*--------------------------------*- C++ -*----------------------------------*\
| =========                 |                                                 |
| \\      /  F ield         | foam-extend: Open Source CFD                    |
|  \\    /   O peration     | Version:     3.1                                |
|   \\  /    A nd           | Web:         http://www.extend-project.de       |
|    \\/     M anipulation  |                                                 |
\*---------------------------------------------------------------------------*/
FoamFile
{
    version     2.0;
    format      ascii;
    class       surfaceScalarField;
    location    "2.1";
    object      meshPhi;
}
// * * * * * * * * * * * * * * * * * * * * * * * * * * * * * * * * * * * * * //

dimensions      [0 3 -1 0 0 0 0];

internalField   nonuniform List<scalar> 
41600
(
3.05517e-08
5.70068e-09
3.00606e-10
-3.06462e-10
5.88237e-08
1.68666e-08
9.0184e-10
-9.19178e-10
8.45659e-08
2.76834e-08
1.52081e-09
-1.54922e-09
1.08422e-07
3.85474e-08
2.20287e-09
-2.24201e-09
1.30909e-07
4.99904e-08
3.00487e-09
-3.05427e-09
1.52411e-07
6.25263e-08
3.99173e-09
-4.05018e-09
1.73164e-07
7.66848e-08
5.24376e-09
-5.30851e-09
1.93204e-07
9.30414e-08
6.86664e-09
-6.93215e-09
2.12292e-07
1.12244e-07
9.00607e-09
-9.06203e-09
2.29793e-07
1.35027e-07
1.18712e-08
-1.18994e-08
2.44534e-07
1.62213e-07
1.57748e-08
-1.57434e-08
2.54697e-07
1.94673e-07
2.12016e-08
-2.10532e-08
2.57942e-07
2.33187e-07
2.891e-08
-2.85363e-08
2.52265e-07
2.77889e-07
3.99623e-08
-3.91673e-08
2.38346e-07
3.25205e-07
5.47125e-08
-5.34006e-08
4.30877e-07
8.98484e-08
-1.17435e-07
9.1144e-08
1.11469e-08
8.92793e-10
-9.10189e-10
1.75476e-07
3.29734e-08
2.6769e-09
-2.7284e-09
2.52248e-07
5.40951e-08
4.51035e-09
-4.59471e-09
3.23387e-07
7.52706e-08
6.52646e-09
-6.64268e-09
3.90436e-07
9.75195e-08
8.89132e-09
-9.03791e-09
4.54566e-07
1.21818e-07
1.17925e-08
-1.19659e-08
5.16517e-07
1.49159e-07
1.54597e-08
-1.56515e-08
5.76477e-07
1.80609e-07
2.01905e-08
-2.03843e-08
6.33857e-07
2.17346e-07
2.63873e-08
-2.65524e-08
6.86965e-07
2.60668e-07
3.4612e-08
-3.46954e-08
7.32589e-07
3.11956e-07
4.56741e-08
-4.55846e-08
7.65657e-07
3.72498e-07
6.07636e-08
-6.03425e-08
7.79491e-07
4.4302e-07
8.16068e-08
-8.0565e-08
7.68038e-07
5.22338e-07
1.10329e-07
-1.08155e-07
7.32432e-07
6.0223e-07
1.46835e-07
-1.43151e-07
7.21926e-07
2.16701e-07
-2.62727e-07
1.50249e-07
1.61123e-08
1.45355e-09
-1.48195e-09
2.89233e-07
4.76464e-08
4.35422e-09
-4.43831e-09
4.15715e-07
7.81144e-08
7.32564e-09
-7.46337e-09
5.32872e-07
1.08579e-07
1.05797e-08
-1.07694e-08
6.43277e-07
1.4047e-07
1.43778e-08
-1.46168e-08
7.48915e-07
1.75135e-07
1.90098e-08
-1.92922e-08
8.51126e-07
2.13923e-07
2.4824e-08
-2.51361e-08
9.50443e-07
2.58248e-07
3.22598e-08
-3.25743e-08
1.04628e-06
3.09627e-07
4.1891e-08
-4.21586e-08
1.13647e-06
3.69681e-07
5.44827e-08
-5.46184e-08
1.21662e-06
4.40014e-07
7.10648e-08
-7.09261e-08
1.27953e-06
5.21898e-07
9.3008e-08
-9.23566e-08
1.3153e-06
6.15459e-07
1.22013e-07
-1.20436e-07
1.31425e-06
7.17773e-07
1.59568e-07
-1.56362e-07
1.27602e-06
8.17108e-07
2.0371e-07
-1.98109e-07
9.62059e-07
2.69105e-07
-3.03534e-07
2.06951e-07
2.03978e-08
1.96189e-09
-2.00045e-09
3.98316e-07
6.02952e-08
5.86995e-09
-5.98409e-09
5.72371e-07
9.8769e-08
9.85587e-09
-1.00427e-08
7.33498e-07
1.37109e-07
1.41951e-08
-1.44522e-08
8.85275e-07
1.77056e-07
1.92231e-08
-1.9547e-08
1.03053e-06
2.20218e-07
2.53039e-08
-2.56861e-08
1.17132e-06
2.68161e-07
3.28621e-08
-3.32839e-08
1.30877e-06
3.22481e-07
4.2416e-08
-4.28404e-08
1.44274e-06
3.84833e-07
5.46126e-08
-5.49729e-08
1.57137e-06
4.56904e-07
7.02637e-08
-7.04454e-08
1.6903e-06
5.40265e-07
9.03672e-08
-9.01808e-08
1.79186e-06
6.3596e-07
1.16075e-07
-1.15211e-07
1.86477e-06
7.43548e-07
1.48466e-07
-1.46409e-07
1.89646e-06
8.58942e-07
1.8773e-07
-1.83625e-07
1.88206e-06
9.68721e-07
2.30231e-07
-2.22918e-07
1.12284e-06
2.85378e-07
-3.13098e-07
2.60384e-07
2.38439e-08
2.4016e-09
-2.4492e-09
5.01049e-07
7.04501e-08
7.17541e-09
-7.31625e-09
7.19779e-07
1.15295e-07
1.20182e-08
-1.22487e-08
9.22074e-07
1.59811e-07
1.72504e-08
-1.75674e-08
1.11246e-06
2.05938e-07
2.32576e-08
-2.36564e-08
1.29462e-06
2.55424e-07
3.04463e-08
-3.09164e-08
1.47139e-06
3.09916e-07
3.92747e-08
-3.9793e-08
1.64467e-06
3.71023e-07
5.028e-08
-5.08012e-08
1.81522e-06
4.40341e-07
6.41005e-08
-6.45422e-08
1.98218e-06
5.19414e-07
8.1482e-08
-8.17026e-08
2.14244e-06
6.09589e-07
1.0325e-07
-1.03014e-07
2.28966e-06
7.11644e-07
1.30199e-07
-1.29121e-07
2.41332e-06
8.24889e-07
1.62727e-07
-1.60181e-07
2.49898e-06
9.44959e-07
1.99955e-07
-1.94916e-07
2.53303e-06
1.05808e-06
2.37322e-07
-2.28308e-07
1.21183e-06
2.81378e-07
-3.00734e-07
3.09773e-07
2.63356e-08
2.76238e-09
-2.81769e-09
5.95931e-07
7.77759e-08
8.24021e-09
-8.40385e-09
8.55749e-07
1.27157e-07
1.37626e-08
-1.40302e-08
1.09572e-06
1.75975e-07
1.96759e-08
-2.00436e-08
1.32123e-06
2.26255e-07
2.63913e-08
-2.68536e-08
1.53672e-06
2.79774e-07
3.43285e-08
-3.48732e-08
1.74581e-06
3.38128e-07
4.39421e-08
-4.45425e-08
1.95128e-06
4.02793e-07
5.57413e-08
-5.63456e-08
2.15493e-06
4.75135e-07
7.02987e-08
-7.08124e-08
2.35737e-06
5.56373e-07
8.82352e-08
-8.84946e-08
2.55752e-06
6.47466e-07
1.10165e-07
-1.09895e-07
2.75181e-06
7.48887e-07
1.36564e-07
-1.35307e-07
2.9327e-06
8.6002e-07
1.67409e-07
-1.64413e-07
3.08621e-06
9.77396e-07
2.0133e-07
-1.95372e-07
3.18848e-06
1.08892e-06
2.33455e-07
-2.22807e-07
1.2383e-06
2.69768e-07
-2.82663e-07
3.54453e-07
2.78038e-08
3.04002e-09
-3.10162e-09
6.81681e-07
8.20755e-08
9.05271e-09
-9.23493e-09
9.78421e-07
1.34057e-07
1.50724e-08
-1.53703e-08
1.25199e-06
1.85231e-07
2.14534e-08
-2.18623e-08
1.50848e-06
2.37617e-07
2.86109e-08
-2.91247e-08
1.75298e-06
2.92915e-07
3.69531e-08
-3.75583e-08
1.98975e-06
3.52575e-07
4.69025e-08
-4.75703e-08
2.22231e-06
4.17822e-07
5.8908e-08
-5.95832e-08
2.45343e-06
4.89657e-07
7.34432e-08
-7.40246e-08
2.68509e-06
5.68807e-07
9.09791e-08
-9.12909e-08
2.91829e-06
6.55642e-07
1.11924e-07
-1.11669e-07
3.15253e-06
7.50079e-07
1.36516e-07
-1.35194e-07
3.38458e-06
8.51425e-07
1.64575e-07
-1.61343e-07
3.6047e-06
9.57815e-07
1.94878e-07
-1.88322e-07
3.78492e-06
1.06241e-06
2.23228e-07
-2.11349e-07
1.21281e-06
2.59027e-07
-2.67991e-07
3.93882e-07
3.23591e-09
-3.30238e-09
2.82227e-08
7.57266e-07
9.61856e-09
-9.81508e-09
8.32809e-08
1.08632e-06
1.59613e-08
-1.62823e-08
1.35911e-07
1.38898e-06
2.2611e-08
-2.30514e-08
1.87524e-07
1.67185e-06
2.99689e-08
-3.0522e-08
2.40048e-07
1.94046e-06
3.84135e-08
-3.90651e-08
2.9504e-07
2.1995e-06
4.83161e-08
-4.90373e-08
3.53734e-07
2.45294e-06
6.00467e-08
-6.0782e-08
4.17043e-07
2.70414e-06
7.39632e-08
-7.46117e-08
4.85521e-07
2.95587e-06
9.0377e-08
-9.07654e-08
5.59285e-07
3.21028e-06
1.09492e-07
-1.09331e-07
6.37897e-07
3.46858e-06
1.31306e-07
-1.30118e-07
7.20179e-07
3.72999e-06
1.55422e-07
-1.52423e-07
8.03979e-07
3.98798e-06
1.80564e-07
-1.74486e-07
8.85458e-07
4.21881e-06
2.02986e-07
-1.92161e-07
9.55902e-07
2.49847e-07
-2.5898e-07
1.10919e-06
3.10945e-08
5.96492e-09
2.83347e-10
5.98802e-08
1.76578e-08
8.50257e-10
8.61167e-08
2.90134e-08
1.43446e-09
1.10474e-07
4.04659e-08
2.07919e-09
1.33491e-07
5.2593e-08
2.83865e-09
1.55568e-07
6.59578e-08
3.77471e-09
1.7695e-07
8.11463e-08
4.96364e-09
1.97676e-07
9.88014e-08
6.50454e-09
2.17495e-07
1.19653e-07
8.53101e-09
2.35751e-07
1.44538e-07
1.12276e-08
2.51254e-07
1.74404e-07
1.48526e-08
2.62225e-07
2.10264e-07
1.97655e-08
2.66543e-07
2.53019e-07
2.64266e-08
2.62847e-07
3.02764e-07
3.52278e-08
2.5322e-07
3.55524e-07
4.55637e-08
4.39542e-07
6.41429e-08
9.27583e-08
1.16621e-08
8.41541e-10
1.78617e-07
3.45155e-08
2.52378e-09
2.5686e-07
5.66856e-08
4.25423e-09
3.29487e-07
7.9003e-08
6.15999e-09
3.98112e-07
1.02575e-07
8.39946e-09
4.63955e-07
1.2847e-07
1.11517e-08
5.27787e-07
1.57789e-07
1.46349e-08
5.89801e-07
1.91719e-07
1.91291e-08
6.49382e-07
2.31588e-07
2.50041e-08
7.04774e-07
2.78872e-07
3.2757e-08
7.52698e-07
3.35156e-07
4.3057e-08
7.8813e-07
4.0193e-07
5.67777e-08
8.04856e-07
4.80022e-07
7.49195e-08
7.98302e-07
5.67993e-07
9.80497e-08
7.73075e-07
6.56943e-07
1.24014e-07
7.54117e-07
1.60795e-07
1.52894e-07
1.68538e-08
1.37006e-09
2.94379e-07
4.98646e-08
4.10498e-09
4.23266e-07
8.18366e-08
6.9093e-09
5.42861e-07
1.13933e-07
9.98513e-09
6.55847e-07
1.47705e-07
1.35819e-08
7.64295e-07
1.84631e-07
1.79769e-08
8.69606e-07
2.26199e-07
2.35018e-08
9.72331e-07
2.73987e-07
3.05717e-08
1.07185e-06
3.29705e-07
3.97173e-08
1.16591e-06
3.95191e-07
5.16196e-08
1.24996e-06
4.72283e-07
6.71318e-08
1.31674e-06
5.62445e-07
8.72411e-08
1.35673e-06
6.65807e-07
1.12808e-07
1.36172e-06
7.7897e-07
1.43643e-07
1.33549e-06
8.89474e-07
1.7585e-07
1.00598e-06
2.10866e-07
2.1056e-07
2.13314e-08
1.84906e-09
4.05336e-07
6.30864e-08
5.53347e-09
5.82668e-07
1.03446e-07
9.29481e-09
7.47115e-07
1.43823e-07
1.33959e-08
9.02409e-07
1.86105e-07
1.81575e-08
1.05151e-06
2.32052e-07
2.3928e-08
1.19655e-06
2.83395e-07
3.11139e-08
1.33871e-06
3.41915e-07
4.02075e-08
1.47784e-06
4.09475e-07
5.18129e-08
1.61197e-06
4.87993e-07
6.66605e-08
1.73654e-06
5.79271e-07
8.55843e-08
1.84364e-06
6.8452e-07
1.09388e-07
1.92201e-06
8.03233e-07
1.38417e-07
1.95996e-06
9.30755e-07
1.71461e-07
1.95606e-06
1.05301e-06
2.03476e-07
1.17686e-06
2.34219e-07
2.6487e-07
2.49285e-08
2.26322e-09
5.09771e-07
7.36901e-08
6.76321e-09
7.32563e-07
1.20716e-07
1.13324e-08
9.3897e-07
1.67575e-07
1.62768e-08
1.13372e-06
2.1637e-07
2.19652e-08
1.32064e-06
2.69013e-07
2.87878e-08
1.50271e-06
3.27325e-07
3.71856e-08
1.68192e-06
3.93102e-07
4.76731e-08
1.85904e-06
4.68147e-07
6.08536e-08
2.03315e-06
5.54224e-07
7.74108e-08
2.20092e-06
6.52896e-07
9.80487e-08
2.35566e-06
7.65101e-07
1.23302e-07
2.48642e-06
8.90089e-07
1.5302e-07
2.57866e-06
1.02297e-06
1.85282e-07
2.62034e-06
1.14932e-06
2.14557e-07
1.27286e-06
2.40791e-07
3.15032e-07
2.75254e-08
2.6028e-09
6.06147e-07
8.13276e-08
7.76551e-09
8.70709e-07
1.3309e-07
1.29748e-08
1.11547e-06
1.8445e-07
1.85616e-08
1.34605e-06
2.37607e-07
2.49196e-08
1.56709e-06
2.94499e-07
3.24529e-08
1.78238e-06
3.56894e-07
4.16015e-08
1.99482e-06
4.26443e-07
5.28579e-08
2.20629e-06
5.04698e-07
6.67723e-08
2.4174e-06
5.93074e-07
8.39296e-08
2.62692e-06
6.92719e-07
1.04873e-07
2.83092e-06
8.04272e-07
1.2992e-07
3.02117e-06
9.27157e-07
1.58677e-07
3.18263e-06
1.0576e-06
1.89036e-07
3.29003e-06
1.18294e-06
2.15442e-07
1.30427e-06
2.39347e-07
3.60366e-07
2.90513e-08
2.86386e-09
6.93156e-07
8.57963e-08
8.52944e-09
9.95206e-07
1.40263e-07
1.42064e-08
1.27413e-06
1.94075e-07
2.02333e-08
1.53625e-06
2.49422e-07
2.70081e-08
1.78691e-06
3.08164e-07
3.49253e-08
2.03056e-06
3.71903e-07
4.43959e-08
2.27088e-06
4.42019e-07
5.5859e-08
2.51079e-06
5.19664e-07
6.97788e-08
2.75233e-06
6.05718e-07
8.66149e-08
2.99643e-06
7.00698e-07
1.06749e-07
3.24236e-06
8.04659e-07
1.30344e-07
3.48629e-06
9.17041e-07
1.56992e-07
3.71704e-06
1.03606e-06
1.84937e-07
3.90249e-06
1.15496e-06
2.09389e-07
1.28173e-06
2.36043e-07
4.00323e-07
3.04772e-09
2.94804e-08
7.69753e-07
9.06041e-09
8.70298e-08
1.10455e-06
1.50402e-08
1.42154e-07
1.41298e-06
2.13187e-08
1.96402e-07
1.70189e-06
2.82808e-08
2.51861e-07
1.97708e-06
3.62931e-08
3.10236e-07
2.24344e-06
4.57192e-08
3.72894e-07
2.50514e-06
5.69254e-08
4.4087e-07
2.76569e-06
7.02709e-08
5.14829e-07
3.02798e-06
8.60736e-08
5.94984e-07
3.29416e-06
1.04542e-07
6.80962e-07
3.56531e-06
1.25651e-07
7.71608e-07
3.84012e-06
1.4888e-07
8.64727e-07
4.11066e-06
1.72586e-07
9.56257e-07
4.34833e-06
1.92511e-07
1.03688e-06
2.30081e-07
1.16898e-06
3.15821e-08
6.20478e-09
2.55227e-10
6.08317e-08
1.83755e-08
7.66005e-10
8.75174e-08
3.02177e-08
1.29272e-09
1.12332e-07
4.2197e-08
1.8745e-09
1.35834e-07
5.49286e-08
2.56027e-09
1.58441e-07
6.90134e-08
3.4055e-09
1.8041e-07
8.50762e-08
4.47755e-09
2.01788e-07
1.038e-07
5.86169e-09
2.22329e-07
1.25954e-07
7.66783e-09
2.41391e-07
1.52403e-07
1.00373e-08
2.57824e-07
1.84088e-07
1.31463e-08
2.69969e-07
2.21934e-07
1.71956e-08
2.7599e-07
2.6656e-07
2.23549e-08
2.74997e-07
3.17398e-07
2.85811e-08
2.69147e-07
3.69581e-07
3.51034e-08
4.5875e-07
4.52357e-08
9.42082e-08
1.21298e-08
7.58032e-10
1.81446e-07
3.59144e-08
2.27372e-09
2.61024e-07
5.90313e-08
3.83387e-09
3.35011e-07
8.23712e-08
5.55363e-09
4.05079e-07
1.07113e-07
7.57607e-09
4.72498e-07
1.34397e-07
1.00619e-08
5.38077e-07
1.65394e-07
1.32042e-08
6.02034e-07
2.01368e-07
1.72443e-08
6.63773e-07
2.4371e-07
2.24879e-08
7.21565e-07
2.93939e-07
2.93166e-08
7.72225e-07
3.53604e-07
3.81844e-08
8.11013e-07
4.23979e-07
4.95624e-08
8.32406e-07
5.0526e-07
6.37423e-08
8.32972e-07
5.94631e-07
8.03027e-08
8.17489e-07
6.81404e-07
9.68794e-08
7.7274e-07
1.16359e-07
1.55269e-07
1.75269e-08
1.23408e-09
2.99011e-07
5.18769e-08
3.69817e-09
4.30082e-07
8.52075e-08
6.22648e-09
5.51901e-07
1.18766e-07
9.00225e-09
6.67248e-07
1.54203e-07
1.2251e-08
7.78277e-07
1.93094e-07
1.62221e-08
8.86455e-07
2.37026e-07
2.12102e-08
9.92377e-07
2.87669e-07
2.75749e-08
1.09545e-06
3.46814e-07
3.57578e-08
1.19345e-06
4.1633e-07
4.62846e-08
1.28191e-06
4.97972e-07
5.97304e-08
1.35386e-06
5.92834e-07
7.65864e-08
1.40051e-06
7.00071e-07
9.68979e-08
1.41492e-06
8.14278e-07
1.19474e-07
1.401e-06
9.20516e-07
1.40559e-07
1.02401e-06
1.58935e-07
2.138e-07
2.21789e-08
1.66547e-09
4.11652e-07
6.56185e-08
4.98484e-09
5.91958e-07
1.07682e-07
8.37586e-09
7.59431e-07
1.49885e-07
1.2077e-08
9.17937e-07
1.94234e-07
1.63786e-08
1.07055e-06
2.42605e-07
2.15951e-08
1.2195e-06
2.96842e-07
2.80891e-08
1.36604e-06
3.58828e-07
3.62906e-08
1.51006e-06
4.30502e-07
4.67072e-08
1.64959e-06
5.138e-07
5.99088e-08
1.7801e-06
6.10379e-07
7.64555e-08
1.89385e-06
7.20963e-07
9.66889e-08
1.97999e-06
8.43824e-07
1.20248e-07
2.02776e-06
9.71901e-07
1.45199e-07
2.03577e-06
1.08825e-06
1.67002e-07
1.19462e-06
1.8401e-07
2.68895e-07
2.59129e-08
2.03836e-09
5.17614e-07
7.66295e-08
6.09215e-09
7.44091e-07
1.25626e-07
1.02111e-08
9.54241e-07
1.74586e-07
1.46733e-08
1.15296e-06
2.25745e-07
1.98131e-08
1.34423e-06
2.81139e-07
2.59836e-08
1.53114e-06
3.42707e-07
3.35808e-08
1.7158e-06
4.12344e-07
4.30584e-08
1.89901e-06
4.9192e-07
5.49299e-08
2.07987e-06
5.83191e-07
6.97386e-08
2.25501e-06
6.87539e-07
8.79599e-08
2.41767e-06
8.05349e-07
1.09762e-07
2.55689e-06
9.3456e-07
1.34477e-07
2.65827e-06
1.06772e-06
1.59755e-07
2.70966e-06
1.18736e-06
1.80786e-07
1.29131e-06
1.96913e-07
3.19746e-07
2.86056e-08
2.34395e-09
6.15329e-07
8.45503e-08
6.9942e-09
8.84192e-07
1.38466e-07
1.16897e-08
1.13332e-06
1.92108e-07
1.67313e-08
1.36851e-06
2.47815e-07
2.24767e-08
1.5946e-06
3.0765e-07
2.92929e-08
1.81552e-06
3.73496e-07
3.75776e-08
2.0343e-06
4.47092e-07
4.77699e-08
2.2529e-06
5.30042e-07
6.0346e-08
2.47193e-06
6.23725e-07
7.57814e-08
2.69008e-06
7.29092e-07
9.44508e-08
2.90318e-06
8.46232e-07
1.16413e-07
3.10253e-06
9.73311e-07
1.40924e-07
3.27227e-06
1.10407e-06
1.65656e-07
3.38655e-06
1.22277e-06
1.85862e-07
1.32453e-06
2.02779e-07
3.65665e-07
3.01841e-08
2.57868e-09
7.03467e-07
8.91734e-08
7.68113e-09
1.01033e-06
1.45887e-07
1.27974e-08
1.29411e-06
2.0207e-07
1.82356e-08
1.56136e-06
2.60046e-07
2.43577e-08
1.81761e-06
3.21797e-07
3.15233e-08
2.0675e-06
3.89028e-07
4.01068e-08
2.31484e-06
4.63193e-07
5.05042e-08
2.56264e-06
5.45474e-07
6.31242e-08
2.81299e-06
6.36697e-07
7.83503e-08
3.06671e-06
7.37172e-07
9.64535e-08
3.32275e-06
8.4644e-07
1.17427e-07
3.57646e-06
9.62844e-07
1.40627e-07
3.81513e-06
1.08243e-06
1.64171e-07
4.00519e-06
1.19551e-06
1.83987e-07
1.3043e-06
2.0534e-07
4.06093e-07
2.74377e-09
3.06228e-08
7.8097e-07
8.15784e-09
9.04334e-08
1.12098e-06
1.35459e-08
1.47815e-07
1.43464e-06
1.92101e-08
2.04431e-07
1.72905e-06
2.5501e-08
2.625e-07
2.01021e-06
3.27538e-08
3.23838e-07
2.28319e-06
4.1302e-08
3.89899e-07
2.55232e-06
5.14795e-08
4.61774e-07
2.82123e-06
6.36088e-08
5.40138e-07
3.09283e-06
7.79618e-08
6.2513e-07
3.36918e-06
9.46825e-08
7.16163e-07
3.65101e-06
1.13648e-07
8.11605e-07
3.93611e-06
1.34195e-07
9.08333e-07
4.21476e-06
1.54623e-07
1.00056e-06
4.45634e-06
1.71235e-07
1.07645e-06
2.02726e-07
1.19247e-06
3.20057e-08
6.41377e-09
2.1724e-10
6.16595e-08
1.90001e-08
6.52067e-10
8.87383e-08
3.12634e-08
1.10062e-09
1.13955e-07
4.36942e-08
1.59622e-09
1.37885e-07
5.69366e-08
2.18032e-09
1.60962e-07
7.16177e-08
2.89934e-09
1.83456e-07
8.83857e-08
3.80855e-09
2.05427e-07
1.07942e-07
4.97545e-09
2.26645e-07
1.31061e-07
6.4822e-09
2.46491e-07
1.5859e-07
8.4248e-09
2.63868e-07
1.91414e-07
1.09045e-08
2.77219e-07
2.30334e-07
1.40021e-08
2.84872e-07
2.75777e-07
1.77183e-08
2.86058e-07
3.27033e-07
2.18587e-08
2.82567e-07
3.7948e-07
2.58224e-08
4.74823e-07
3.16038e-08
9.54673e-08
1.25373e-08
6.45221e-10
1.83907e-07
3.71321e-08
1.93555e-09
2.64652e-07
6.10682e-08
3.26423e-09
3.39833e-07
8.52847e-08
4.72935e-09
4.11173e-07
1.11015e-07
6.4522e-09
4.79988e-07
1.39449e-07
8.56748e-09
5.47128e-07
1.71802e-07
1.1234e-08
6.12849e-07
2.09367e-07
1.46433e-08
6.76596e-07
2.53542e-07
1.90246e-08
7.36706e-07
3.05802e-07
2.46377e-08
7.90122e-07
3.67564e-07
3.17398e-08
8.32357e-07
4.39819e-07
4.04986e-08
8.58286e-07
5.22294e-07
5.08039e-08
8.64741e-07
6.11666e-07
6.1936e-08
8.55477e-07
6.97349e-07
7.20907e-08
7.89129e-07
8.27854e-08
1.5733e-07
1.81134e-08
1.05043e-09
3.03038e-07
5.36286e-08
3.14814e-09
4.36018e-07
8.8135e-08
5.30139e-09
5.59788e-07
1.22947e-07
7.66642e-09
6.77214e-07
1.59793e-07
1.04347e-08
7.90525e-07
2.00314e-07
1.38156e-08
9.01255e-07
2.46155e-07
1.80524e-08
1.01006e-06
2.99023e-07
2.34323e-08
1.11641e-06
3.60705e-07
3.02888e-08
1.21815e-06
4.32992e-07
3.89812e-08
1.31097e-06
5.17417e-07
4.98281e-08
1.38819e-06
6.14615e-07
6.295e-08
1.44144e-06
7.22956e-07
7.7955e-08
1.46398e-06
8.36112e-07
9.346e-08
1.45834e-06
9.39034e-07
1.06662e-07
1.03829e-06
1.16497e-07
2.16611e-07
2.29174e-08
1.41759e-09
4.17142e-07
6.78228e-08
4.24338e-09
6.00046e-07
1.11362e-07
7.1314e-09
7.70171e-07
1.55131e-07
1.02853e-08
9.31501e-07
2.01231e-07
1.39517e-08
1.08721e-06
2.51615e-07
1.83959e-08
1.23963e-06
3.08193e-07
2.39186e-08
1.39009e-06
3.72881e-07
3.0866e-08
1.53854e-06
4.47602e-07
3.96255e-08
1.68309e-06
5.34174e-07
5.05906e-08
1.81933e-06
6.33951e-07
6.40644e-08
1.93969e-06
7.47049e-07
8.00468e-08
2.03361e-06
8.70715e-07
9.78377e-08
2.09036e-06
9.96663e-07
1.15517e-07
2.1071e-06
1.10779e-06
1.29729e-07
1.20646e-06
1.39306e-07
2.72387e-07
2.67709e-08
1.73491e-09
5.24428e-07
7.91888e-08
5.18578e-09
7.54123e-07
1.29893e-07
8.69377e-09
9.67552e-07
1.80657e-07
1.24965e-08
1.16975e-06
2.33819e-07
1.68787e-08
1.36485e-06
2.91502e-07
2.21394e-08
1.55604e-06
3.55706e-07
2.8609e-08
1.74551e-06
4.28359e-07
3.66563e-08
1.93417e-06
5.11295e-07
4.6679e-08
2.12116e-06
6.06118e-07
5.90587e-08
2.30315e-06
7.13853e-07
7.40499e-08
2.47342e-06
8.34194e-07
9.15521e-08
2.62099e-06
9.6393e-07
1.10687e-07
2.73124e-06
1.09424e-06
1.29293e-07
2.79073e-06
1.20747e-06
1.43801e-07
1.30186e-06
1.53967e-07
3.23836e-07
2.95471e-08
1.99488e-09
6.23303e-07
8.7357e-08
5.95324e-09
8.95922e-07
1.43138e-07
9.95208e-09
1.14886e-06
1.98742e-07
1.42489e-08
1.3881e-06
2.56612e-07
1.91489e-08
1.61862e-06
3.189e-07
2.49639e-08
1.84449e-06
3.87546e-07
3.20282e-08
2.06883e-06
4.64314e-07
4.07029e-08
2.29372e-06
5.50754e-07
5.13625e-08
2.51978e-06
6.48074e-07
6.43486e-08
2.74568e-06
7.56844e-07
7.98648e-08
2.96712e-06
8.76449e-07
9.77756e-08
3.17509e-06
1.0039e-06
1.17224e-07
3.3532e-06
1.13158e-06
1.36151e-07
3.4745e-06
1.24353e-06
1.51005e-07
1.33528e-06
1.63181e-07
3.7026e-07
3.11717e-08
2.19445e-09
7.1242e-07
9.21157e-08
6.53733e-09
1.02348e-06
1.50779e-07
1.08942e-08
1.31151e-06
2.09e-07
1.55291e-08
1.58326e-06
2.6921e-07
2.07515e-08
1.84441e-06
3.33472e-07
2.6868e-08
2.09974e-06
4.03547e-07
3.41956e-08
2.35321e-06
4.80897e-07
4.30637e-08
2.60791e-06
5.66644e-07
5.37991e-08
2.86594e-06
6.61434e-07
6.66834e-08
3.12806e-06
7.65201e-07
8.18646e-08
3.39295e-06
8.76816e-07
9.92041e-08
3.65546e-06
9.93572e-07
1.17994e-07
3.90204e-06
1.11025e-06
1.36592e-07
4.09814e-06
1.21693e-06
1.51945e-07
1.31625e-06
1.68852e-07
4.11097e-07
2.33467e-09
3.16192e-08
7.90709e-07
6.94223e-09
9.33999e-08
1.13527e-06
1.15301e-08
1.52741e-07
1.45351e-06
1.63573e-08
2.11396e-07
1.75273e-06
2.17242e-08
2.71686e-07
2.0391e-06
2.79176e-08
3.35502e-07
2.31787e-06
3.5222e-08
4.04344e-07
2.59348e-06
4.39179e-08
4.79305e-07
2.86964e-06
5.42669e-08
5.60988e-07
3.14927e-06
6.64711e-08
6.49357e-07
3.43435e-06
8.05962e-08
7.43477e-07
3.72528e-06
9.64434e-08
8.41112e-07
4.01924e-06
1.13331e-07
9.38245e-07
4.30554e-06
1.2978e-07
1.02802e-06
4.55257e-06
1.42945e-07
1.09821e-06
1.68479e-07
1.2053e-06
3.23565e-08
6.58656e-09
1.70815e-10
6.23456e-08
1.9516e-08
5.12743e-10
8.97514e-08
3.21249e-08
8.65512e-10
1.15304e-07
4.49227e-08
1.25525e-09
1.39592e-07
5.85742e-08
1.71427e-09
1.63064e-07
7.37231e-08
2.2783e-09
1.86003e-07
9.10293e-08
2.98891e-09
2.08482e-07
1.11197e-07
3.89503e-09
2.30287e-07
1.3499e-07
5.0526e-09
2.50824e-07
1.63224e-07
6.52011e-09
2.69031e-07
1.96724e-07
8.34648e-09
2.83406e-07
2.36213e-07
1.05459e-08
2.9232e-07
2.82074e-07
1.30556e-08
2.94943e-07
3.33714e-07
1.56826e-08
2.92715e-07
3.86884e-07
1.80397e-08
4.87114e-07
2.14325e-08
9.65099e-08
1.28742e-08
5.07342e-10
1.85946e-07
3.81376e-08
1.52201e-09
2.67662e-07
6.27464e-08
2.56699e-09
3.43839e-07
8.76756e-08
3.71925e-09
4.16244e-07
1.14198e-07
5.0734e-09
4.86232e-07
1.43535e-07
6.73325e-09
5.54693e-07
1.76923e-07
8.81847e-09
6.21921e-07
2.15658e-07
1.14683e-08
6.87405e-07
2.61113e-07
1.48394e-08
7.49547e-07
3.14692e-07
1.90899e-08
8.05385e-07
3.77678e-07
2.43405e-08
8.50559e-07
4.50873e-07
3.05945e-08
8.8004e-07
5.33822e-07
3.76084e-08
8.90455e-07
6.2323e-07
4.47339e-08
8.84576e-07
7.08982e-07
5.08021e-08
8.02954e-07
5.68453e-08
1.59036e-07
1.85983e-08
8.25965e-10
3.06374e-07
5.50753e-08
2.47556e-09
4.40942e-07
9.05473e-08
4.16913e-09
5.66339e-07
1.26379e-07
6.02937e-09
6.85501e-07
1.64354e-07
8.2058e-09
8.00728e-07
2.06156e-07
1.08603e-08
9.13611e-07
2.53456e-07
1.41767e-08
1.02487e-06
3.07961e-07
1.83648e-08
1.13403e-06
3.71413e-07
2.36543e-08
1.23903e-06
4.45487e-07
3.02648e-08
1.33568e-06
5.31498e-07
3.83371e-08
1.41741e-06
6.29754e-07
4.78008e-08
1.47594e-06
7.38247e-07
5.81616e-08
1.50417e-06
8.5049e-07
6.82707e-08
1.50323e-06
9.51939e-07
7.62989e-08
1.05084e-06
8.16853e-08
2.18937e-07
2.35281e-08
1.11467e-09
4.21688e-07
6.96437e-08
3.33682e-09
6.06752e-07
1.14395e-07
5.6084e-09
7.79087e-07
1.59439e-07
8.08947e-09
9.42773e-07
2.06943e-07
1.09731e-08
1.10108e-06
2.58911e-07
1.44647e-08
1.25642e-06
3.1728e-07
1.8793e-08
1.41018e-06
3.83958e-07
2.42128e-08
1.56241e-06
4.60802e-07
3.09936e-08
1.7113e-06
5.49471e-07
3.93779e-08
1.85251e-06
6.51025e-07
4.94909e-08
1.97856e-06
7.65121e-07
6.11697e-08
2.07887e-06
8.88461e-07
7.36963e-08
2.14223e-06
1.01246e-06
8.55482e-08
2.16433e-06
1.12061e-06
9.4506e-08
1.2167e-06
9.99933e-08
2.75275e-07
2.74805e-08
1.36416e-09
5.3007e-07
8.13035e-08
4.07784e-09
7.62438e-07
1.33411e-07
6.83716e-09
9.78597e-07
1.85644e-07
9.8291e-09
1.18371e-06
2.40416e-07
1.3277e-08
1.38199e-06
2.99901e-07
1.74133e-08
1.57676e-06
3.66126e-07
2.24906e-08
1.77029e-06
4.41004e-07
2.87831e-08
1.96356e-06
5.2628e-07
3.6571e-08
2.15577e-06
6.23368e-07
4.60936e-08
2.34363e-06
7.32942e-07
5.74516e-08
2.52042e-06
8.54157e-07
7.04271e-08
2.67501e-06
9.83154e-07
8.42013e-08
2.7922e-06
1.11074e-06
9.71016e-08
2.85723e-06
1.21994e-06
1.06723e-07
1.3103e-06
1.13162e-07
3.27218e-07
3.0326e-08
1.56853e-09
6.29905e-07
8.96768e-08
4.6812e-09
9.05641e-07
1.46992e-07
7.82666e-09
1.16175e-06
2.04196e-07
1.12078e-08
1.40437e-06
2.63806e-07
1.50645e-08
1.63858e-06
3.28028e-07
1.964e-08
1.86857e-06
3.98827e-07
2.51915e-08
2.09758e-06
4.7794e-07
3.19903e-08
2.32772e-06
5.66818e-07
4.03044e-08
2.5597e-06
6.66455e-07
5.03529e-08
2.79215e-06
7.77048e-07
6.22164e-08
3.02067e-06
8.97414e-07
7.56809e-08
3.23596e-06
1.0239e-06
8.99818e-08
3.42104e-06
1.14846e-06
1.0355e-07
3.54779e-06
1.25592e-06
1.13946e-07
1.34305e-06
1.22489e-07
3.7406e-07
3.1989e-08
1.72535e-09
7.19831e-07
9.45484e-08
5.14023e-09
1.03438e-06
1.54815e-07
8.56728e-09
1.32594e-06
2.147e-07
1.22148e-08
1.60143e-06
2.76709e-07
1.63265e-08
1.86665e-06
3.42957e-07
2.11422e-08
2.12653e-06
4.15224e-07
2.69078e-08
2.3851e-06
4.94941e-07
3.3873e-08
2.64554e-06
5.83122e-07
4.22752e-08
2.90996e-06
6.80196e-07
5.22987e-08
3.17906e-06
7.85724e-07
6.39998e-08
3.45138e-06
8.98031e-07
7.71903e-08
3.72134e-06
1.01377e-06
9.1249e-08
3.97481e-06
1.12735e-06
1.04931e-07
4.17628e-06
1.22953e-06
1.16124e-07
1.32427e-06
1.28771e-07
4.15235e-07
1.83547e-09
3.2444e-08
7.98771e-07
5.45822e-09
9.58535e-08
1.1471e-06
9.06683e-09
1.56807e-07
1.46915e-06
1.28659e-08
2.17128e-07
1.77238e-06
1.70921e-08
2.79209e-07
2.0631e-06
2.19709e-08
3.4499e-07
2.34667e-06
2.77241e-08
4.15985e-07
2.62765e-06
3.45665e-08
4.9325e-07
2.90981e-06
4.26903e-08
5.77284e-07
3.19608e-06
5.22278e-08
6.67841e-07
3.48835e-06
6.31871e-08
7.6364e-07
3.7868e-06
7.53531e-08
8.61948e-07
4.08818e-06
8.81413e-08
9.58184e-07
4.38121e-06
1.00418e-07
1.04513e-06
4.6335e-06
1.10161e-07
1.11101e-06
1.29501e-07
1.2136e-06
3.26268e-08
6.7192e-09
1.1773e-10
6.28746e-08
1.99117e-08
3.53399e-10
9.05332e-08
3.27842e-08
5.96534e-10
1.16345e-07
4.58594e-08
8.65083e-10
1.40912e-07
5.98158e-08
1.18111e-09
1.64692e-07
7.53069e-08
1.56876e-09
1.87979e-07
9.29967e-08
2.05552e-09
2.10858e-07
1.13586e-07
2.6727e-09
2.33128e-07
1.37822e-07
3.45413e-09
2.5421e-07
1.66492e-07
4.43142e-09
2.73064e-07
2.00381e-07
5.62378e-09
2.882e-07
2.40182e-07
7.02046e-09
2.97975e-07
2.86315e-07
8.55705e-09
3.01458e-07
3.38356e-07
1.0097e-08
2.99865e-07
3.92313e-07
1.14222e-08
4.96035e-07
1.33477e-08
9.73131e-08
1.31328e-08
3.49679e-10
1.87518e-07
3.89088e-08
1.04904e-09
2.69985e-07
6.40308e-08
1.76928e-09
3.46932e-07
8.94986e-08
2.56331e-09
4.20164e-07
1.16612e-07
3.49577e-09
4.91066e-07
1.4661e-07
4.63686e-09
5.6056e-07
1.80736e-07
6.06587e-09
6.28972e-07
2.20277e-07
7.87212e-09
6.95829e-07
2.66573e-07
1.01506e-08
7.59577e-07
3.20962e-07
1.29866e-08
8.17301e-07
3.8464e-07
1.64246e-08
8.64675e-07
4.58317e-07
2.04134e-08
8.96609e-07
5.41534e-07
2.4733e-08
9.09434e-07
6.31197e-07
2.8937e-08
9.05287e-07
7.17551e-07
3.23575e-08
8.13762e-07
3.56851e-08
1.60351e-07
1.89706e-08
5.69291e-10
3.08946e-07
5.6185e-08
1.70628e-09
4.4474e-07
9.23937e-08
2.87362e-09
5.71395e-07
1.28997e-07
4.15568e-09
6.91906e-07
1.67814e-07
5.65474e-09
8.08622e-07
2.10554e-07
7.48046e-09
9.23185e-07
2.58896e-07
9.75501e-09
1.03636e-06
3.14528e-07
1.26136e-08
1.14775e-06
3.79141e-07
1.61964e-08
1.25532e-06
4.54304e-07
2.06219e-08
1.35495e-06
5.41181e-07
2.59352e-08
1.44009e-06
6.39904e-07
3.20183e-08
1.50234e-06
7.48368e-07
3.84703e-08
1.53415e-06
8.60232e-07
4.45186e-08
1.53573e-06
9.61391e-07
4.91013e-08
1.06125e-06
5.19841e-08
2.20729e-07
2.3997e-08
7.68285e-10
4.25191e-07
7.10406e-08
2.29993e-09
6.11923e-07
1.16717e-07
3.86576e-09
7.85967e-07
1.62726e-07
5.57595e-09
9.51481e-07
2.11278e-07
7.56278e-09
1.1118e-06
2.64408e-07
9.96571e-09
1.26941e-06
3.24056e-07
1.29373e-08
1.42576e-06
3.92106e-07
1.66429e-08
1.58096e-06
4.70339e-07
2.12484e-08
1.73325e-06
5.60274e-07
2.68859e-08
1.87834e-06
6.62758e-07
3.35872e-08
2.00874e-06
7.77187e-07
4.11708e-08
2.11369e-06
9.00069e-07
4.90903e-08
2.18142e-06
1.02292e-06
5.63353e-08
2.20661e-06
1.12979e-06
6.15928e-08
1.22551e-06
6.46349e-08
2.775e-07
2.80255e-08
9.40245e-10
5.34416e-07
8.29262e-08
2.8107e-09
7.68848e-07
1.36105e-07
4.71283e-09
9.87118e-07
1.89451e-07
6.77549e-09
1.19448e-06
2.45425e-07
9.15192e-09
1.39524e-06
3.06233e-07
1.20004e-08
1.59279e-06
3.73906e-07
1.54902e-08
1.78947e-06
4.50319e-07
1.98007e-08
1.98634e-06
5.37126e-07
2.51065e-08
2.18263e-06
6.3557e-07
3.154e-08
2.37508e-06
7.46067e-07
3.91215e-08
2.55688e-06
8.6745e-07
4.76419e-08
2.71669e-06
9.95599e-07
5.64993e-08
2.83876e-06
1.12139e-06
6.45913e-08
2.90728e-06
1.22855e-06
7.04618e-08
1.31757e-06
7.43106e-08
3.29823e-07
3.09244e-08
1.08109e-09
6.3499e-07
9.14575e-08
3.22656e-09
9.13134e-07
1.49945e-07
5.39497e-09
1.1717e-06
2.0836e-07
7.72629e-09
1.41692e-06
2.69273e-07
1.03853e-08
1.65399e-06
3.34918e-07
1.35382e-08
1.88718e-06
4.0726e-07
1.73584e-08
2.1198e-06
4.87996e-07
2.20246e-08
2.35403e-06
5.7847e-07
2.77062e-08
2.5906e-06
6.7949e-07
3.45271e-08
2.82815e-06
7.90969e-07
4.25026e-08
3.06214e-06
9.11375e-07
5.14389e-08
3.28302e-06
1.03676e-06
6.07843e-08
3.47326e-06
1.15917e-06
6.9509e-08
3.60381e-06
1.26413e-06
7.61046e-08
1.34942e-06
8.15729e-08
3.76986e-07
3.26171e-08
1.18915e-09
7.25539e-07
9.64163e-08
3.54289e-09
1.04278e-06
1.57909e-07
5.90548e-09
1.33707e-06
2.19055e-07
8.42074e-09
1.61545e-06
2.82412e-07
1.12563e-08
1.88383e-06
3.50124e-07
1.45767e-08
2.14721e-06
4.23967e-07
1.85483e-08
2.40973e-06
5.05327e-07
2.33373e-08
2.6746e-06
5.95109e-07
2.90954e-08
2.94396e-06
6.93548e-07
3.59284e-08
3.21847e-06
7.99922e-07
4.38441e-08
3.49652e-06
9.12206e-07
5.26775e-08
3.77226e-06
1.02677e-06
6.19832e-08
4.03106e-06
1.13808e-06
7.09459e-08
4.23662e-06
1.23763e-06
7.82463e-08
1.3304e-06
8.66613e-08
4.18421e-07
1.26499e-09
3.30779e-08
8.04981e-07
3.76193e-09
9.7738e-08
1.15623e-06
6.24968e-09
1.59925e-07
1.48122e-06
8.86957e-09
2.2151e-07
1.78754e-06
1.17848e-08
2.84936e-07
2.08162e-06
1.51502e-08
3.52168e-07
2.3689e-06
1.91169e-08
4.24716e-07
2.65403e-06
2.38288e-08
5.03589e-07
2.94081e-06
2.94096e-08
5.8918e-07
3.23219e-06
3.59349e-08
6.81057e-07
3.52999e-06
4.33869e-08
7.77672e-07
3.83423e-06
5.15904e-08
8.75965e-07
4.14139e-06
6.01282e-08
9.71087e-07
4.43975e-06
6.82482e-08
1.05584e-06
4.69628e-06
7.46586e-08
1.119e-06
8.76055e-08
1.21953e-06
3.28106e-08
6.80902e-09
6.0044e-11
6.32343e-08
2.01793e-08
1.80235e-10
9.1065e-08
3.32294e-08
3.04223e-10
1.17054e-07
4.649e-08
4.41138e-10
1.41811e-07
6.06479e-08
6.02167e-10
1.65802e-07
7.63618e-08
7.99434e-10
1.89329e-07
9.42965e-08
1.04656e-09
2.12483e-07
1.15147e-07
1.35872e-09
2.35072e-07
1.39648e-07
1.75165e-09
2.56528e-07
1.68567e-07
2.23879e-09
2.75816e-07
2.02668e-07
2.82575e-09
2.91445e-07
2.42644e-07
3.50168e-09
3.0174e-07
2.88965e-07
4.22919e-09
3.05694e-07
3.41342e-07
4.94015e-09
3.04407e-07
3.95918e-07
5.5382e-09
5.01869e-07
6.41826e-09
9.78591e-08
1.3308e-08
1.78341e-10
1.88586e-07
3.94306e-08
5.35015e-10