/*--------------------------------*- C++ -*----------------------------------*\
| =========                 |                                                 |
| \\      /  F ield         | foam-extend: Open Source CFD                    |
|  \\    /   O peration     | Version:     3.1                                |
|   \\  /    A nd           | Web:         http://www.extend-project.de       |
|    \\/     M anipulation  |                                                 |
\*---------------------------------------------------------------------------*/
FoamFile
{
    version     2.0;
    format      ascii;
    class       volScalarField;
    location    "2.1";
    object      p;
}
// * * * * * * * * * * * * * * * * * * * * * * * * * * * * * * * * * * * * * //

dimensions      [0 2 -2 0 0 0 0];

internalField   nonuniform List<scalar> 
14592
(
0.0250874
0.0248899
0.0247279
0.0246371
0.024621
0.0246587
0.0247195
0.0247721
0.0247918
0.0247622
0.0246742
0.0245111
0.0242422
0.0237958
0.0230628
0.0221159
0.0251034
0.0248798
0.0246995
0.0245935
0.0245665
0.0246037
0.0246734
0.0247408
0.0247782
0.0247682
0.0246994
0.0245596
0.024322
0.0239174
0.0231778
0.0219899
0.0250775
0.0248311
0.0246247
0.0244973
0.0244612
0.0245029
0.0245889
0.0246792
0.0247417
0.0247574
0.0247189
0.0246191
0.0244375
0.0240992
0.0233591
0.021858
0.025031
0.0247698
0.0245433
0.0243938
0.0243428
0.024382
0.0244775
0.0245851
0.0246676
0.0247038
0.02469
0.0246236
0.0244916
0.0242185
0.0235104
0.0218089
0.0249719
0.024703
0.0244652
0.0242972
0.0242272
0.0242537
0.0243458
0.0244576
0.0245474
0.0245925
0.0245884
0.0245367
0.0244343
0.0242168
0.0235813
0.0218092
0.0248993
0.0246266
0.0243833
0.024202
0.0241133
0.0241208
0.0241975
0.024299
0.0243812
0.0244165
0.0244001
0.0243352
0.0242307
0.0240422
0.0235012
0.0217712
0.024811
0.0245371
0.0242906
0.024099
0.0239921
0.0239765
0.024031
0.0241107
0.0241692
0.0241745
0.024119
0.0240029
0.023847
0.0236261
0.0231756
0.0215079
0.0247107
0.0244351
0.0241844
0.023983
0.0238595
0.023822
0.0238499
0.0238991
0.023921
0.0238782
0.023757
0.0235436
0.0232566
0.0228346
0.0223584
0.0200579
0.0252806
0.0250745
0.0249084
0.0248212
0.0248184
0.024882
0.0249818
0.0250864
0.0251725
0.0252278
0.0252484
0.0252322
0.0251667
0.0250154
0.0247561
0.0245888
0.0253005
0.025066
0.0248805
0.0247747
0.0247598
0.0248221
0.0249311
0.0250525
0.0251592
0.0252365
0.0252813
0.0252914
0.0252591
0.0251416
0.0248984
0.024808
0.0252783
0.0250212
0.0248083
0.0246824
0.0246567
0.0247222
0.0248479
0.0249943
0.0251298
0.0252386
0.0253199
0.0253794
0.0254162
0.0253807
0.0251823
0.0251333
0.025235
0.0249642
0.0247337
0.0245869
0.0245462
0.0246082
0.0247426
0.0249066
0.0250639
0.0251969
0.0253089
0.025412
0.0255148
0.025567
0.0254312
0.0254102
0.025177
0.0248993
0.0246606
0.0244982
0.02444
0.0244884
0.0246172
0.0247833
0.0249472
0.0250886
0.0252123
0.0253355
0.0254781
0.025601
0.025529
0.025529
0.0251002
0.024821
0.0245794
0.0244071
0.0243318
0.0243603
0.0244706
0.0246213
0.0247721
0.0248994
0.0250063
0.0251125
0.0252499
0.0253994
0.0253634
0.0253651
0.0250069
0.0247259
0.024482
0.0243013
0.0242084
0.0242115
0.0242941
0.0244169
0.0245357
0.0246226
0.0246776
0.0247163
0.0247793
0.0248677
0.0247857
0.0245916
0.0248975
0.0246142
0.024366
0.0241752
0.0240645
0.0240422
0.0240923
0.0241755
0.0242461
0.0242696
0.0242377
0.0241478
0.0240297
0.0238491
0.0235117
0.0218299
0.0254723
0.0252595
0.025092
0.0250108
0.0250239
0.0251149
0.025254
0.0254097
0.025559
0.0256915
0.025807
0.0259081
0.0259902
0.0260297
0.0260215
0.0260588
0.0254957
0.0252527
0.0250648
0.0249627
0.0249622
0.0250509
0.0251997
0.025374
0.0255469
0.0257049
0.0258471
0.025977
0.0260909
0.0261569
0.0261719
0.0263012
0.0254771
0.025212
0.0249954
0.024875
0.0248627
0.0249541
0.0251203
0.0253221
0.0255275
0.0257214
0.025906
0.02609
0.0262755
0.0264207
0.0264979
0.0267088
0.0254372
0.0251592
0.0249281
0.0247878
0.0247614
0.0248492
0.0250241
0.0252444
0.0254738
0.0256951
0.0259145
0.0261473
0.0264032
0.0266351
0.0267793
0.0270484
0.025379
0.025096
0.0248591
0.0247066
0.0246648
0.0247392
0.0249076
0.0251286
0.0253639
0.0255934
0.0258252
0.0260797
0.0263768
0.0266726
0.0268635
0.0271521
0.0253002
0.0250161
0.024778
0.0246187
0.0245622
0.0246163
0.024765
0.0249655
0.0251826
0.0253941
0.0256046
0.0258369
0.0261216
0.0264253
0.026601
0.0268455
0.0252022
0.0249154
0.0246757
0.0245096
0.0244363
0.0244641
0.0245781
0.0247467
0.0249242
0.0250855
0.0252327
0.0253834
0.0255743
0.0257812
0.0258058
0.0257179
0.0250844
0.0247944
0.02455
0.0243733
0.0242809
0.02428
0.024357
0.0244766
0.0245949
0.0246787
0.0247208
0.0247189
0.0246951
0.0245859
0.0242022
0.0222839
0.0256525
0.0254341
0.0252665
0.0251931
0.0252226
0.0253402
0.0255164
0.025719
0.0259245
0.0261227
0.0263141
0.0265024
0.0266835
0.0268367
0.0269542
0.0270508
0.025678
0.0254286
0.0252382
0.0251438
0.0251585
0.025273
0.0254594
0.0256824
0.0259142
0.0261409
0.0263615
0.02658
0.0267909
0.0269651
0.0270996
0.0272711
0.025663
0.0253922
0.0251763
0.0250611
0.0250633
0.0251805
0.0253852
0.0256381
0.0259059
0.0261725
0.0264396
0.0267136
0.0269932
0.0272373
0.0274358
0.0276727
0.0256264
0.0253432
0.0251136
0.0249814
0.024971
0.025085
0.0252991
0.0255717
0.0258657
0.0261621
0.0264661
0.0267902
0.0271381
0.0274583
0.0277087
0.0279993
0.0255675
0.0252813
0.0250477
0.0249068
0.0248834
0.0249848
0.0251918
0.0254646
0.0257652
0.026068
0.026384
0.0267287
0.0271139
0.027485
0.0277597
0.028055
0.0254884
0.0252
0.0249664
0.0248213
0.0247855
0.024867
0.0250517
0.0253016
0.0255774
0.025861
0.0261513
0.0264682
0.0268326
0.027192
0.0274124
0.02763
0.0253854
0.0250943
0.0248593
0.0247086
0.024657
0.0247119
0.0248606
0.0250709
0.0253011
0.0255251
0.0257423
0.0259662
0.0262217
0.0264564
0.0264585
0.0262697
0.0252593
0.0249646
0.0247245
0.0245626
0.0244907
0.0245139
0.0246198
0.0247747
0.0249361
0.0250704
0.0251681
0.0252221
0.0252414
0.0251306
0.0246389
0.0224393
0.0258107
0.0255879
0.0254213
0.0253557
0.0254004
0.0255419
0.0257506
0.0259932
0.0262454
0.0264959
0.0267442
0.0269931
0.0272357
0.0274508
0.0276256
0.0277355
0.0258378
0.0255837
0.0253929
0.0253055
0.0253344
0.0254722
0.0256914
0.025956
0.0262368
0.0265182
0.0267973
0.0270776
0.0273487
0.0275811
0.0277701
0.0279368
0.0258258
0.0255509
0.025336
0.0252272
0.0252434
0.0253839
0.0256224
0.0259191
0.0262389
0.0265636
0.0268925
0.0272272
0.0275619
0.0278528
0.0280893
0.0283156
0.0257911
0.025505
0.0252779
0.0251541
0.0251591
0.0252972
0.0255458
0.0258636
0.0262111
0.0265674
0.0269339
0.0273181
0.0277162
0.0280716
0.0283477
0.0286134
0.0257333
0.0254445
0.0252142
0.0250848
0.0250792
0.0252058
0.0254474
0.0257648
0.0261174
0.0264806
0.0268579
0.0272604
0.0276901
0.0280832
0.0283647
0.0286212
0.0256534
0.0253619
0.0251326
0.025001
0.0249851
0.0250925
0.0253105
0.0256033
0.0259304
0.0262683
0.0266156
0.0269851
0.0273863
0.0277517
0.027951
0.0281073
0.0255461
0.0252518
0.0250213
0.0248849
0.024854
0.0249346
0.0251148
0.0253625
0.0256371
0.0259098
0.0261766
0.0264444
0.0267259
0.0269472
0.0268862
0.026591
0.0254127
0.0251146
0.0248785
0.0247304
0.0246781
0.0247246
0.0248576
0.0250441
0.0252419
0.0254154
0.0255519
0.0256378
0.0256697
0.025528
0.0249234
0.0224987
0.0259375
0.0257119
0.0255468
0.025488
0.0255455
0.0257065
0.0259411
0.0262153
0.0265032
0.0267922
0.0270801
0.0273684
0.0276467
0.0278928
0.0280902
0.0281988
0.0259668
0.025709
0.0255187
0.0254374
0.0254782
0.0256349
0.0258804
0.0261778
0.026496
0.0268177
0.0271371
0.0274581
0.027764
0.0280247
0.0282332
0.028387
0.0259566
0.0256789
0.0254653
0.0253627
0.0253908
0.0255503
0.025816
0.0261472
0.0265069
0.0268746
0.0272473
0.0276196
0.0279842
0.028294
0.0285379
0.028746
0.0259226
0.0256355
0.0254105
0.0252947
0.0253128
0.025471
0.0257475
0.0261008
0.0264896
0.02689
0.0272995
0.0277206
0.0281435
0.0285077
0.0287799
0.0290165
0.0258671
0.025576
0.0253493
0.0252295
0.025239
0.0253867
0.0256565
0.0260092
0.0264024
0.0268092
0.0272282
0.0276651
0.0281143
0.0285054
0.0287687
0.0289862
0.025786
0.0254924
0.0252669
0.0251467
0.0251477
0.0252769
0.0255226
0.0258493
0.0262151
0.026593
0.0269788
0.0273785
0.0277928
0.0281448
0.0283071
0.02841
0.0256753
0.0253789
0.0251522
0.0250276
0.0250142
0.0251165
0.0253227
0.0256008
0.0259095
0.0262175
0.0265172
0.0268091
0.0270963
0.0272916
0.0271675
0.0267903
0.0255362
0.0252357
0.0250029
0.0248662
0.0248305
0.0248969
0.0250528
0.0252651
0.0254909
0.0256927
0.0258544
0.0259565
0.0259861
0.0258077
0.0251103
0.0225233
0.0260261
0.0257991
0.0256358
0.0255823
0.0256492
0.025824
0.0260769
0.0263729
0.0266849
0.0269992
0.0273119
0.0276236
0.0279212
0.0281811
0.0283855
0.028489
0.0260569
0.0257977
0.0256084
0.0255321
0.0255821
0.0257526
0.0260168
0.0263369
0.0266806
0.027029
0.0273732
0.0277192
0.0280439
0.0283168
0.0285296
0.0286703
0.0260481
0.0257692
0.0255572
0.0254599
0.0254974
0.0256712
0.0259565
0.0263119
0.0266989
0.0270951
0.027496
0.0278899
0.0282696
0.0285855
0.0288263
0.0290177
0.026015
0.0257272
0.0255045
0.0253951
0.0254237
0.0255968
0.0258938
0.0262723
0.0266894
0.027119
0.0275557
0.0279979
0.028432
0.0287952
0.0290561
0.0292685
0.0259603
0.0256684
0.0254445
0.0253323
0.0253535
0.0255172
0.0258077
0.0261857
0.0266071
0.0270427
0.0274877
0.0279437
0.0284001
0.0287829
0.0290255
0.0292126
0.0258784
0.0255841
0.0253615
0.0252498
0.0252636
0.0254094
0.0256756
0.0260267
0.0264192
0.026824
0.0272334
0.0276494
0.0280666
0.0284028
0.0285331
0.0285969
0.0257655
0.0254681
0.0252443
0.0251284
0.0251282
0.0252469
0.0254726
0.0257727
0.0261054
0.0264368
0.0267566
0.0270608
0.0273462
0.027518
0.0273464
0.0269128
0.0256224
0.0253207
0.0250905
0.024962
0.0249388
0.0250205
0.0251936
0.0254249
0.0256706
0.0258913
0.0260683
0.0261778
0.0262007
0.0259926
0.0252295
0.0225372
0.0260701
0.025842
0.0256789
0.0256272
0.0256981
0.0258793
0.0261407
0.0264471
0.0267708
0.027097
0.027421
0.0277429
0.028048
0.0283128
0.0285194
0.028622
0.0261013
0.025841
0.0256508
0.0255758
0.0256292
0.0258057
0.0260784
0.0264092
0.0267649
0.0271256
0.0274812
0.0278375
0.0281693
0.0284465
0.028661
0.0287973
0.0260935
0.0258133
0.0256009
0.0255047
0.0255454
0.0257248
0.0260185
0.0263849
0.0267846
0.0271938
0.0276071
0.02801
0.0283946
0.0287117
0.0289518
0.0291388
0.0260611
0.0257724
0.0255497
0.025442
0.0254741
0.025653
0.0259585
0.0263481
0.0267781
0.027221
0.0276696
0.0281202
0.0285573
0.0289179
0.0291745
0.0293779
0.026007
0.0257143
0.0254907
0.0253809
0.0254064
0.0255763
0.0258752
0.0262642
0.0266982
0.0271467
0.0276029
0.0280664
0.0285237
0.0289003
0.0291346
0.0293096
0.0259247
0.0256297
0.0254078
0.025299
0.0253177
0.0254701
0.0257446
0.0261061
0.0265102
0.0269267
0.0273463
0.0277684
0.0281846
0.0285107
0.0286276
0.0286758
0.0258106
0.0255127
0.0252894
0.0251768
0.0251818
0.0253071
0.0255406
0.0258498
0.0261926
0.0265342
0.0268623
0.0271707
0.0274528
0.0276106
0.0274166
0.0269541
0.0256656
0.0253632
0.0251335
0.0250081
0.0249899
0.0250776
0.0252575
0.0254965
0.0257504
0.0259791
0.0261622
0.026274
0.0262912
0.0260655
0.0252572
0.0225151
0.0243277
0.0242972
0.0242788
0.0242686
0.0242514
0.0242068
0.0241126
0.023948
0.0236949
0.0233372
0.0228596
0.0222473
0.0214844
0.0205595
0.0194638
0.0182199
0.0243303
0.0242984
0.0242844
0.0242804
0.02427
0.0242318
0.024143
0.0239826
0.0237326
0.0233773
0.0229022
0.0222929
0.0215337
0.020614
0.0195208
0.0182808
0.0243142
0.0242761
0.0242654
0.024272
0.0242763
0.0242537
0.0241786
0.0240285
0.0237855
0.0234349
0.0229639
0.0223601
0.0216086
0.0207018
0.0196215
0.018399
0.0242824
0.0242324
0.0242171
0.0242292
0.0242475
0.0242422
0.0241834
0.0240464
0.0238123
0.0234674
0.0230002
0.0224009
0.021656
0.0207612
0.0196948
0.0184917
0.0242396
0.0241761
0.0241504
0.0241613
0.024187
0.0241945
0.0241502
0.0240255
0.0238002
0.0234605
0.0229965
0.0224002
0.02166
0.0207747
0.0197211
0.0185364
0.0241895
0.0241142
0.0240768
0.0240821
0.0241094
0.0241242
0.0240895
0.0239737
0.0237547
0.0234185
0.0229562
0.0223616
0.021625
0.0207477
0.0197078
0.0185428
0.0241352
0.0240514
0.0240039
0.0240024
0.0240278
0.0240448
0.0240142
0.0239025
0.0236861
0.0233507
0.0228882
0.0222939
0.0215603
0.0206909
0.0196672
0.0185251
0.0240796
0.023991
0.023937
0.02393
0.0239518
0.0239671
0.0239356
0.0238229
0.0236048
0.0232671
0.0228023
0.0222074
0.021477
0.0206162
0.0196119
0.0184969
0.0243331
0.0242825
0.024249
0.0242293
0.0242079
0.0241629
0.0240707
0.0239087
0.0236577
0.0233009
0.0228225
0.0222071
0.0214384
0.0205048
0.019395
0.0181381
0.0243341
0.0242758
0.0242406
0.0242207
0.0242018
0.0241612
0.0240737
0.023916
0.0236684
0.023314
0.0228374
0.0222239
0.021457
0.0205279
0.0194204
0.0181709
0.0243151
0.0242448
0.0242055
0.0241898
0.0241816
0.0241549
0.0240811
0.0239347
0.0236951
0.0233462
0.022874
0.0222658
0.0215055
0.0205887
0.0194924
0.0182604
0.0242837
0.0241982
0.024149
0.0241341
0.0241352
0.0241234
0.0240657
0.0239332
0.0237038
0.0233617
0.022894
0.0222907
0.0215367
0.0206315
0.0195471
0.0183342
0.0242437
0.0241434
0.0240807
0.0240595
0.0240653
0.0240645
0.0240204
0.0239006
0.0236812
0.0233458
0.0228826
0.0222835
0.0215348
0.0206396
0.0195677
0.0183727
0.0241967
0.0240846
0.0240086
0.0239796
0.023984
0.0239887
0.0239537
0.0238432
0.0236312
0.0233006
0.0228405
0.0222445
0.0215006
0.0206149
0.0195581
0.0183838
0.0241446
0.0240243
0.023938
0.023901
0.0239018
0.0239076
0.0238765
0.0237705
0.0235619
0.0232332
0.0227743
0.0221802
0.0214412
0.0205653
0.0195274
0.0183781
0.0240894
0.0239653
0.0238729
0.02383
0.0238268
0.0238304
0.0237985
0.023692
0.0234824
0.0231524
0.0226926
0.0220994
0.0213657
0.0205007
0.0194857
0.018366
0.0243548
0.0242784
0.0242235
0.0241908
0.0241654
0.0241236
0.0240392
0.0238877
0.0236478
0.0233013
0.0228305
0.0222168
0.0214386
0.0204772
0.019309
0.0179657
0.0243545
0.0242664
0.0242065
0.0241707
0.0241463
0.0241087
0.0240299
0.0238841
0.0236492
0.0233065
0.0228385
0.0222275
0.0214519
0.020496
0.0193291
0.0179994
0.0243296
0.0242249
0.024155
0.0241192
0.0241038
0.0240805
0.0240172
0.0238849
0.0236602
0.0233249
0.022863
0.0222591
0.0214908
0.0205494
0.0193931
0.0180791
0.0242933
0.0241704
0.0240851
0.0240446
0.0240358
0.0240272
0.0239813
0.0238651
0.0236523
0.0233256
0.0228695
0.0222714
0.0215095
0.0205791
0.0194302
0.0181342
0.0242507
0.0241119
0.0240088
0.0239577
0.0239494
0.0239502
0.0239183
0.0238159
0.0236153
0.0232968
0.0228463
0.0222531
0.0214967
0.0205764
0.0194383
0.0181611
0.0242021
0.0240515
0.0239327
0.0238693
0.0238561
0.0238606
0.0238378
0.0237459
0.0235538
0.0232411
0.0227945
0.0222049
0.0214537
0.0205439
0.0194225
0.0181697
0.0241483
0.0239904
0.02386
0.023786
0.0237668
0.0237706
0.0237512
0.0236641
0.0234759
0.0231658
0.0227206
0.0221331
0.0213875
0.0204894
0.0193916
0.0181706
0.0240926
0.0239301
0.0237932
0.0237123
0.0236877
0.0236885
0.0236677
0.02358
0.0233909
0.0230793
0.0226331
0.0220465
0.021307
0.0204222
0.0193548
0.0181729
0.0244032
0.0242998
0.0242211
0.0241733
0.024145
0.0241091
0.0240377
0.0239039
0.0236846
0.0233593
0.0229073
0.0223047
0.0215195
0.0205164
0.0192471
0.0177325
0.0244038
0.0242861
0.0242002
0.0241495
0.0241198
0.0240882
0.0240235
0.023897
0.0236844
0.0233648
0.0229179
0.0223205
0.0215401
0.020546
0.0192796
0.0177822
0.0243738
0.0242364
0.0241361
0.0240806
0.0240589
0.024042
0.0239944
0.0238838
0.0236839
0.0233741
0.0229354
0.0223465
0.0215755
0.0205957
0.0193333
0.0178492
0.0243311
0.0241739
0.0240538
0.0239886
0.0239705
0.0239672
0.0239379
0.0238451
0.0236594
0.02336
0.0229288
0.0223471
0.0215829
0.0206133
0.0193529
0.0178799
0.0242833
0.0241101
0.0239693
0.0238887
0.0238673
0.0238712
0.0238552
0.0237773
0.0236047
0.0233147
0.0228897
0.022313
0.021554
0.0205936
0.0193413
0.0178873
0.0242306
0.0240463
0.023888
0.0237911
0.0237595
0.0237642
0.0237571
0.0236899
0.0235264
0.0232425
0.0228211
0.0222474
0.0214932
0.0205438
0.01931
0.0178881
0.0241731
0.023982
0.0238116
0.0237015
0.0236613
0.0236627
0.023657
0.0235937
0.0234336
0.0231514
0.0227304
0.0221575
0.0214081
0.0204725
0.0192692
0.0178939
0.0241121
0.0239181
0.0237411
0.0236228
0.0235754
0.0235719
0.0235633
0.0234982
0.0233361
0.0230509
0.0226268
0.0220528
0.0213086
0.020389
0.019227
0.0179116
0.0244827
0.0243534
0.0242509
0.0241888
0.0241564
0.0241282
0.0240737
0.0239641
0.0237741
0.0234812
0.0230612
0.0224833
0.0217014
0.0206511
0.019244
0.0174546
0.0244855
0.0243393
0.0242271
0.0241597
0.024125
0.0241006
0.0240536
0.0239528
0.0237713
0.0234863
0.0230742
0.0225039
0.021729
0.02069
0.0192886
0.0175171
0.0244525
0.0242845
0.0241536
0.0240761
0.0240471
0.0240364
0.0240073
0.0239241
0.0237577
0.0234848
0.0230829
0.0225229
0.0217589
0.0207305
0.0193238
0.0175424
0.0244047
0.024217
0.0240634
0.0239715
0.0239408
0.0239412
0.02393
0.0238654
0.0237146
0.0234537
0.023061
0.0225084
0.0217508
0.0207267
0.0193122
0.0175242
0.0243516
0.0241493
0.0239742
0.0238629
0.0238233
0.0238269
0.0238281
0.0237774
0.0236401
0.0233889
0.0230025
0.0224541
0.0217005
0.0206817
0.019271
0.0174999
0.0242938
0.0240821
0.02389
0.0237597
0.0237067
0.0237065
0.0237109
0.0236707
0.0235417
0.0232957
0.0229117
0.0223644
0.0216143
0.020606
0.0192175
0.0174929
0.0242312
0.0240138
0.0238104
0.0236653
0.0235997
0.0235926
0.0235962
0.0235569
0.0234294
0.0231829
0.0227965
0.0222471
0.0215002
0.0205084
0.0191607
0.0175132
0.0241649
0.0239447
0.023735
0.0235807
0.0235057
0.0234911
0.0234894
0.0234456
0.0233133
0.0230606
0.0226672
0.0221125
0.021368
0.0203964
0.0191053
0.0175612
0.0245942
0.0244421
0.0243182
0.0242433
0.0242087
0.0241908
0.0241576
0.0240786
0.0239271
0.023679
0.0233091
0.0227779
0.0220213
0.0209336
0.0193566
0.017153
0.0245998
0.0244284
0.0242924
0.0242102
0.024171
0.0241559
0.0241307
0.0240618
0.0239208
0.0236833
0.0233225
0.0228004
0.0220536
0.0209712
0.0193863
0.0171426
0.0245662
0.024372
0.0242136
0.0241148
0.0240791
0.0240759
0.0240684
0.0240185
0.0238948
0.0236712
0.0233236
0.0228136
0.0220761
0.0209879
0.0193652
0.0170171
0.0245158
0.0243027
0.0241205
0.0240039
0.0239607
0.0239646
0.0239731
0.0239418
0.0238342
0.0236246
0.0232876
0.0227851
0.0220517
0.0209518
0.0192967
0.0168709
0.0244588
0.0242332
0.0240307
0.0238924
0.0238352
0.0238372
0.0238541
0.0238357
0.0237409
0.0235404
0.0232095
0.0227097
0.0219786
0.0208742
0.0192152
0.0167769
0.0243962
0.0241632
0.023946
0.0237878
0.0237136
0.0237069
0.0237236
0.0237105
0.0236218
0.0234243
0.0230933
0.0225914
0.021862
0.0207655
0.0191366
0.0167574
0.0243278
0.0240903
0.0238636
0.0236904
0.0236006
0.0235826
0.0235932
0.0235776
0.0234867
0.0232845
0.0229464
0.0224368
0.0217078
0.0206308
0.0190648
0.0168198
0.0242545
0.0240146
0.0237823
0.0235993
0.023498
0.0234691
0.0234704
0.0234463
0.023346
0.0231319
0.0227799
0.0222567
0.0215244
0.0204741
0.0189997
0.0169676
0.0247358
0.0245649
0.0244236
0.024339
0.0243061
0.0243023
0.0242954
0.0242539
0.0241508
0.0239629
0.023665
0.0232153
0.0225354
0.0214702
0.0197358
0.0169425
0.0247446
0.0245521
0.0243963
0.0243014
0.0242622
0.0242601
0.0242614
0.0242315
0.0241411
0.0239657
0.0236797
0.0232418
0.0225731
0.0214981
0.0196796
0.0166011
0.0247125
0.0244967
0.0243166
0.0242025
0.0241614
0.0241685
0.024187
0.0241771
0.0241059
0.0239476
0.0236787
0.0232574
0.0226002
0.0214994
0.0195624
0.0160964
0.0246618
0.0244285
0.0242249
0.0240898
0.0240375
0.0240476
0.0240796
0.0240878
0.0240339
0.0238908
0.0236351
0.0232248
0.0225743
0.021447
0.0194299
0.0156846
0.0246027
0.024359
0.0241375
0.0239802
0.0239104
0.0239138
0.0239499
0.0239685
0.0239252
0.0237911
0.0235418
0.0231347
0.0224882
0.0213495
0.019318
0.0154549
0.0245362
0.0242866
0.0240535
0.0238772
0.0237883
0.0237784
0.023809
0.0238273
0.023787
0.0236524
0.0233996
0.0229866
0.0223405
0.021207
0.0192232
0.0153964
0.0244617
0.0242086
0.0239684
0.023778
0.0236717
0.023646
0.023665
0.0236755
0.023627
0.0234812
0.0232136
0.0227829
0.0221304
0.0210133
0.0191352
0.0155028
0.02438
0.0241249
0.0238799
0.0236796
0.0235598
0.0235195
0.0235242
0.0235203
0.0234554
0.0232888
0.0229953
0.0225337
0.0218606
0.0207583
0.0190461
0.0158255
0.0249027
0.0247168
0.0245628
0.0244729
0.0244463
0.024461
0.0244857
0.0244886
0.0244436
0.0243301
0.0241292
0.023807
0.0232949
0.022433
0.0208525
0.017772
0.024915
0.0247052
0.0245347
0.0244317
0.0243965
0.024412
0.0244452
0.0244612
0.0244312
0.0243334
0.0241479
0.023843
0.0233497
0.0224895
0.0207689
0.0170258
0.0248856
0.0246527
0.0244569
0.0243332
0.0242917
0.0243136
0.0243633
0.0244006
0.0243925
0.0243157
0.0241533
0.0238756
0.0234122
0.0225498
0.0206692
0.0161996
0.0248364
0.0245875
0.0243695
0.0242235
0.0241682
0.0241899
0.0242508
0.0243056
0.0243168
0.0242566
0.0241124
0.0238556
0.0234161
0.0225546
0.0205889
0.0156237
0.0247768
0.0245191
0.0242864
0.0241197
0.0240451
0.0240563
0.024117
0.0241787
0.024197
0.0241476
0.0240112
0.0237625
0.0233374
0.0224864
0.0205254
0.0153332
0.0247072
0.0244446
0.0242035
0.0240196
0.023926
0.0239203
0.0239704
0.024027
0.0240438
0.0239886
0.0238446
0.0235863
0.0231612
0.0223229
0.0204379
0.0152423
0.0246265
0.024361
0.0241149
0.0239191
0.023807
0.0237816
0.0238145
0.0238563
0.0238579
0.0237826
0.0236127
0.0233215
0.0228727
0.0220314
0.0202816
0.0152689
0.0245347
0.0242683
0.0240181
0.0238124
0.0236851
0.0236414
0.0236541
0.023674
0.0236499
0.0235414
0.0233276
0.0229755
0.0224616
0.0215527
0.0199815
0.0153441
0.0246025
0.0243247
0.0240683
0.0238565
0.0237184
0.0236615
0.0236637
0.0236799
0.023659
0.0235584
0.0233565
0.023017
0.0225246
0.0216393
0.0201443
0.0156177
0.0244942
0.0242141
0.0239509
0.0237297
0.0235811
0.0235102
0.0234917
0.0234775
0.0234148
0.0232584
0.02298
0.0225336
0.021881
0.0207955
0.0191011
0.0159042
0.0243957
0.0241142
0.0238454
0.0236192
0.0234672
0.0233902
0.0233576
0.0233185
0.0232195
0.0230166
0.0226798
0.0221715
0.0214507
0.0204087
0.0189141
0.0168982
0.0243166
0.0240368
0.0237675
0.0235451
0.0233989
0.0233233
0.023282
0.0232224
0.0230927
0.0228531
0.0224758
0.0219377
0.0212022
0.0202419
0.0189343
0.0174021
0.0242683
0.0239928
0.0237326
0.0235248
0.023392
0.0233212
0.0232719
0.0231926
0.0230352
0.0227656
0.0223598
0.0218057
0.0210737
0.0201713
0.0190073
0.0177006
0.0242491
0.0239859
0.0237475
0.023563
0.0234456
0.0233769
0.0233162
0.0232156
0.0230329
0.0227385
0.0223128
0.0217492
0.0210266
0.020163
0.0191052
0.0179339
0.0242465
0.0240106
0.0237986
0.0236409
0.0235393
0.0234718
0.0234
0.0232813
0.0230791
0.0227681
0.0223316
0.0217644
0.0210523
0.0202114
0.0192127
0.0181068
0.0242287
0.0240221
0.0238373
0.0237041
0.0236207
0.023562
0.0234905
0.0233668
0.0231583
0.0228425
0.0224048
0.0218392
0.0211346
0.0203006
0.0193156
0.0182165
0.0247768
0.0244909
0.0242357
0.0240321
0.0239032
0.0238564
0.023874
0.0239148
0.02393
0.0238783
0.0237397
0.0234809
0.0230822
0.022284
0.0206739
0.0156702
0.0246541
0.0243653
0.0241011
0.0238838
0.0237389
0.0236724
0.0236628
0.0236651
0.0236275
0.0235039
0.0232652
0.0228607
0.0222425
0.0211383
0.0192793
0.0155845
0.0245408
0.0242497
0.0239768
0.0237489
0.0235946
0.0235168
0.0234884
0.0234603
0.0233787
0.0231972
0.0228834
0.0223934
0.0216783
0.0205989
0.018992
0.0167304
0.0244482
0.0241574
0.0238804
0.0236506
0.0234971
0.0234174
0.0233782
0.0233272
0.0232107
0.0229859
0.0226219
0.0220915
0.0213513
0.020363
0.0189789
0.0173296
0.0243874
0.0241004
0.0238289
0.0236096
0.0234669
0.0233914
0.0233446
0.0232736
0.0231277
0.0228693
0.0224717
0.0219206
0.0211802
0.020257
0.0190373
0.01766
0.0243597
0.0240843
0.0238316
0.023634
0.0235072
0.0234355
0.0233787
0.023287
0.0231147
0.0228296
0.0224092
0.0218461
0.0211142
0.0202338
0.019136
0.0179163
0.024351
0.0241007
0.0238763
0.0237073
0.0235989
0.023531
0.0234647
0.0233552
0.0231629
0.0228599
0.0224276
0.02186
0.0211394
0.0202844
0.0192555
0.018112
0.0243299
0.0241117
0.0239155
0.0237734
0.0236859
0.0236292
0.0235646
0.0234506
0.0232518
0.0229436
0.0225102
0.0219448
0.0212333
0.0203867
0.0193749
0.0182404
0.0249509
0.0246584
0.0244058
0.024214
0.0240998
0.0240693
0.0241071
0.0241749
0.0242256
0.0242179
0.0241315
0.0239295
0.0235794
0.0227853
0.0210322
0.0156048
0.0248139
0.024518
0.0242545
0.0240449
0.0239094
0.0238531
0.0238567
0.0238774
0.0238643
0.02377
0.0235635
0.0231877
0.022583
0.0214383
0.0194325
0.0153861
0.0246859
0.0243869
0.0241122
0.0238868
0.0237357
0.0236621
0.0236413
0.0236256
0.0235606
0.0233977
0.0231021
0.0226235
0.0219051
0.0207821
0.0190712
0.0166101
0.0245801
0.02428
0.0239981
0.0237653
0.0236095
0.0235298
0.023495
0.0234531
0.0233489
0.0231366
0.0227829
0.0222563
0.0215073
0.0204876
0.0190314
0.0172768
0.0245062
0.0242102
0.0239308
0.0237043
0.0235558
0.0234785
0.0234355
0.0233728
0.0232373
0.0229886
0.0225971
0.0220466
0.0212961
0.0203505
0.019079
0.0176372
0.0244698
0.0241846
0.0239216
0.0237149
0.0235817
0.0235087
0.0234565
0.0233734
0.0232108
0.0229337
0.0225173
0.0219533
0.0212113
0.0203137
0.0191785
0.0179138
0.0244551
0.024194
0.0239599
0.0237827
0.0236698
0.0236027
0.0235424
0.0234419
0.0232587
0.0229628
0.0225336
0.0219647
0.0212351
0.0203658
0.0193083
0.0181292
0.0244322
0.0242045
0.0239995
0.0238511
0.0237617
0.023708
0.0236507
0.0235461
0.0233564
0.0230552
0.022625
0.0220587
0.0213397
0.0204803
0.0194429
0.0182747
0.0251148
0.0248169
0.0245674
0.0243883
0.0242912
0.0242802
0.0243404
0.0244351
0.0245181
0.0245471
0.0244993
0.0243319
0.0239988
0.0231715
0.0212692
0.0154823
0.0249643
0.0246627
0.0244007
0.0242003
0.0240769
0.0240341
0.0240533
0.024093
0.0241022
0.024032
0.0238489
0.0234889
0.022882
0.0216869
0.0195491
0.0152347
0.0248223
0.0245171
0.0242419
0.0240212
0.0238764
0.0238104
0.0237993
0.0237964
0.0237465
0.0235989
0.0233159
0.0228419
0.022113
0.0209451
0.0191413
0.0165229
0.0247034
0.0243965
0.0241116
0.0238788
0.0237239
0.023647
0.0236183
0.0235858
0.0234926
0.0232906
0.0229437
0.022417
0.021656
0.0206045
0.019084
0.0172411
0.0246186
0.024315
0.0240302
0.0237995
0.0236483
0.0235715
0.0235332
0.0234787
0.0233526
0.0231117
0.0227242
0.0221723
0.0214104
0.0204427
0.0191251
0.0176277
0.0245735
0.0242804
0.0240101
0.0237972
0.0236601
0.0235875
0.0235403
0.0234654
0.0233114
0.0230411
0.0226274
0.0220614
0.0213092
0.0203947
0.0192262
0.0179219
0.0245536
0.0242841
0.0240425
0.0238596
0.0237441
0.0236788
0.0236246
0.0235325
0.0233577
0.0230678
0.0226408
0.0220699
0.0213313
0.0204481
0.0193649
0.0181537
0.0245288
0.0242933
0.0240823
0.0239299
0.0238399
0.0237901
0.0237402
0.0236445
0.0234631
0.0231677
0.0227399
0.022172
0.0214453
0.0205732
0.0195125
0.0183138
0.0252587
0.0249567
0.0247103
0.024543
0.0244627
0.0244709
0.0245527
0.024672
0.0247823
0.0248396
0.0248183
0.0246689
0.0243338
0.0234596
0.0214231
0.0153491
0.0250964
0.0247905
0.0245302
0.0243387
0.0242279
0.0241991
0.024234
0.0242912
0.0243194
0.0242678
0.0241
0.0237461
0.0231274
0.0218806
0.0196307
0.0151116
0.0249423
0.0246322
0.0243571
0.0241417
0.0240044
0.0239471
0.0239464
0.0239555
0.0239184
0.0237823
0.0235072
0.0230325
0.0222891
0.0210788
0.0191972
0.0164588
0.0248117
0.0244995
0.024213
0.0239816
0.0238293
0.0237568
0.0237347
0.023711
0.023627
0.0234328
0.0230899
0.0225604
0.0217862
0.0207051
0.0191307
0.0172177
0.0247176
0.0244079
0.0241194
0.0238867
0.0237348
0.0236597
0.0236264
0.0235795
0.0234612
0.0232265
0.0228414
0.0222866
0.0215134
0.0205252
0.0191692
0.017626
0.0246642
0.0243655
0.0240901
0.0238733
0.0237341
0.0236627
0.0236205
0.0235529
0.0234064
0.0231414
0.0227294
0.0221608
0.0213989
0.0204692
0.0192726
0.0179351
0.0246406
0.0243644
0.0241174
0.0239307
0.0238139
0.0237511
0.0237026
0.023618
0.0234503
0.0231655
0.02274
0.0221667
0.0214198
0.020524
0.0194187
0.0181803
0.0246137
0.0243727
0.0241573
0.0240025
0.023913
0.0238672
0.0238241
0.0237364
0.0235622
0.0232718
0.0228456
0.0222755
0.0215416
0.0206579
0.0195769
0.0183522
0.0253743
0.0250696
0.0248258
0.0246684
0.0246025
0.0246274
0.0247278
0.0248673
0.0249988
0.0250765
0.0250719
0.0249298
0.0245845
0.023665
0.021523
0.015238
0.0252027
0.0248937
0.024635
0.0244512
0.0243514
0.0243353
0.0243839
0.0244559
0.0244989
0.0244605
0.0243019
0.0239481
0.0233146
0.0220224
0.019686
0.0150192
0.0250387
0.0247253
0.0244506
0.0242401
0.02411
0.0240609
0.0240695
0.0240888
0.0240618
0.0239338
0.023663
0.0231848
0.0224266
0.0211806
0.019239
0.0164145
0.0248989
0.024583
0.0242956
0.0240661
0.0239171
0.0238491
0.0238332
0.0238169
0.0237403
0.0235516
0.0232105
0.0226771
0.0218904
0.0207848
0.0191687
0.0172042
0.0247973
0.0244833
0.0241925
0.023959
0.0238075
0.0237347
0.023706
0.0236654
0.0235534
0.0233231
0.0229391
0.0223809
0.0215978
0.0205927
0.0192067
0.0176289
0.0247378
0.0244347
0.0241559
0.0239367
0.0237967
0.023727
0.0236891
0.0236276
0.023487
0.0232261
0.022815
0.0222437
0.0214736
0.0205312
0.0193127
0.0179493
0.0247106
0.0244298
0.0241792
0.0239901
0.023873
0.0238125
0.0237689
0.0236906
0.0235286
0.0232477
0.022823
0.0222473
0.0214935
0.0205873
0.0194646
0.0182047
0.0246821
0.0244372
0.024219
0.0240629
0.0239745
0.0239323
0.023895
0.0238139
0.0236455
0.0233589
0.0229336
0.0223615
0.0216213
0.0207279
0.0196308
0.0183853
0.0254551
0.0251489
0.024907
0.0247569
0.0247019
0.0247399
0.0248547
0.0250094
0.0251562
0.0252477
0.025253
0.0251133
0.0247575
0.0238045
0.0215914
0.015171
0.0252769
0.0249663
0.0247089
0.0245308
0.0244397
0.0244338
0.0244934
0.0245768
0.0246308
0.0246013
0.024448
0.0240925
0.0234461
0.0221205
0.0197247
0.0149626
0.025106
0.0247908
0.0245167
0.0243101
0.024186
0.024144
0.0241605
0.024188
0.0241686
0.0240463
0.0237776
0.0232955
0.0225252
0.0212527
0.01927
0.0163907
0.0249596
0.0246417
0.0243542
0.0241267
0.0239811
0.0239175
0.0239072
0.023897
0.023826
0.023641
0.0233007
0.0227635
0.0219671
0.0208435
0.0191994
0.0172017
0.0248533
0.0245365
0.0242446
0.0240115
0.0238614
0.0237913
0.0237668
0.0237312
0.0236239
0.0233967
0.0230131
0.0224519
0.0216613
0.0206438
0.0192377
0.0176366
0.0247899
0.0244838
0.0242033
0.0239834
0.0238437
0.023776
0.0237419
0.023685
0.0235487
0.0232907
0.0228799
0.0223062
0.02153
0.0205784
0.0193449
0.0179636
0.0247593
0.0244762
0.0242238
0.0240339
0.0239172
0.023859
0.0238193
0.0237455
0.0235877
0.0233093
0.022885
0.0223074
0.0215484
0.0206345
0.0194997
0.0182248
0.0247301
0.0244829
0.0242633
0.0241068
0.0240196
0.0239803
0.0239473
0.0238709
0.0237065
0.0234225
0.0229977
0.0224238
0.0216789
0.0207785
0.0196701
0.0184102
0.0254955
0.0251886
0.024947
0.0247994