/*--------------------------------*- C++ -*----------------------------------*\
| =========                 |                                                 |
| \\      /  F ield         | foam-extend: Open Source CFD                    |
|  \\    /   O peration     | Version:     3.1                                |
|   \\  /    A nd           | Web:         http://www.extend-project.de       |
|    \\/     M anipulation  |                                                 |
\*---------------------------------------------------------------------------*/
FoamFile
{
    version     2.0;
    format      ascii;
    class       surfaceScalarField;
    location    "2.1";
    object      phi;
}
// * * * * * * * * * * * * * * * * * * * * * * * * * * * * * * * * * * * * * //

dimensions      [0 3 -1 0 0 0 0];

internalField   nonuniform List<scalar> 
41600
(
1.17974e-05
2.89733e-08
-1.08362e-06
1.06801e-06
1.15832e-05
2.21285e-07
-2.30771e-06
2.30067e-06
1.1332e-05
2.43829e-07
-3.33762e-06
3.345e-06
1.12076e-05
1.18787e-07
-4.26565e-06
4.2712e-06
1.12869e-05
-6.4758e-08
-5.06506e-06
5.05056e-06
1.15457e-05
-2.09811e-07
-5.73281e-06
5.68376e-06
1.19021e-05
-2.69145e-07
-6.30803e-06
6.2208e-06
1.22577e-05
-2.36123e-07
-6.86895e-06
6.74947e-06
1.2535e-05
-1.38767e-07
-7.52419e-06
7.38569e-06
1.26951e-05
-2.21324e-08
-8.40721e-06
8.26922e-06
1.27554e-05
4.10226e-08
-9.67484e-06
9.57351e-06
1.27628e-05
-9.78941e-09
-1.15231e-05
1.15255e-05
1.27423e-05
-2.63539e-07
-1.41701e-05
1.44541e-05
1.23696e-05
-7.16278e-07
-1.76756e-05
1.87646e-05
9.88276e-06
-9.29249e-07
-2.09049e-05
2.43209e-05
8.15055e-08
-1.71432e-05
2.67454e-05
3.30242e-05
1.28925e-07
-1.25653e-06
1.27874e-06
3.27201e-05
4.14346e-07
-3.64485e-06
3.75593e-06
3.2392e-05
3.56112e-07
-6.15646e-06
6.37222e-06
3.22332e-05
-6.62775e-09
-8.64188e-06
8.92617e-06
3.23647e-05
-4.82674e-07
-1.08651e-05
1.11515e-05
3.27689e-05
-8.47302e-07
-1.26832e-05
1.29165e-05
3.33096e-05
-9.61898e-07
-1.41047e-05
1.42568e-05
3.38e-05
-7.99061e-07
-1.52708e-05
1.53433e-05
3.40642e-05
-4.21131e-07
-1.64225e-05
1.64408e-05
3.39759e-05
5.71546e-08
-1.78699e-05
1.78789e-05
3.3449e-05
5.0402e-07
-1.9978e-05
2.00418e-05
3.24039e-05
7.87521e-07
-2.31601e-05
2.34079e-05
3.06082e-05
7.71207e-07
-2.78726e-05
2.86335e-05
2.71345e-05
3.873e-07
-3.41914e-05
3.65616e-05
1.91331e-05
-7.62597e-08
-3.94782e-05
4.66266e-05
3.64919e-07
-3.0009e-05
4.82552e-05
5.14038e-05
1.31636e-07
-9.34033e-07
9.61563e-07
5.11686e-05
4.81898e-07
-3.16395e-06
3.33163e-06
5.07547e-05
3.97463e-07
-6.00566e-06
6.3782e-06
5.03143e-05
-1.14959e-07
-9.26845e-06
9.81712e-06
5.00151e-05
-8.14179e-07
-1.25274e-05
1.31582e-05
4.99352e-05
-1.37472e-06
-1.54059e-05
1.60132e-05
5.00185e-05
-1.55533e-06
-1.77166e-05
1.82267e-05
5.01026e-05
-1.27197e-06
-1.94983e-05
1.98871e-05
4.99776e-05
-5.84547e-07
-2.09907e-05
2.12792e-05
4.94349e-05
3.56412e-07
-2.25838e-05
2.28271e-05
4.82733e-05
1.38054e-06
-2.47618e-05
2.50469e-05
4.6251e-05
2.32868e-06
-2.80929e-05
2.8574e-05
4.29219e-05
3.05146e-06
-3.32211e-05
3.42699e-05
3.69427e-05
3.40615e-06
-4.04744e-05
4.34348e-05
2.49453e-05
3.01251e-06
-4.68579e-05
5.57665e-05
1.50766e-06
-3.55103e-05
5.82049e-05
6.67135e-05
8.03703e-08
-7.03727e-07
7.15238e-07
6.65713e-05
4.89875e-07
-2.38927e-06
2.52346e-06
6.61012e-05
4.82068e-07
-4.82934e-06
5.21484e-06
6.53165e-05
6.98513e-09
-8.08116e-06
8.74398e-06
6.43697e-05
-7.19078e-07
-1.17761e-05
1.26278e-05
6.34412e-05
-1.34244e-06
-1.53944e-05
1.62906e-05
6.26239e-05
-1.55086e-06
-1.85154e-05
1.93282e-05
6.18773e-05
-1.18788e-06
-2.09688e-05
2.16314e-05
6.10465e-05
-2.68037e-07
-2.2876e-05
2.33902e-05
5.99007e-05
1.07755e-06
-2.46119e-05
2.50366e-05
5.81659e-05
2.68048e-06
-2.67185e-05
2.71534e-05
5.5476e-05
4.40032e-06
-2.98639e-05
3.04821e-05
5.12396e-05
6.11434e-06
-3.48342e-05
3.60077e-05
4.37895e-05
7.7079e-06
-4.22899e-05
4.54383e-05
2.91986e-05
8.04077e-06
-4.94265e-05
5.89891e-05
4.03081e-06
-3.79409e-05
6.28675e-05
7.8922e-05
2.39943e-08
-5.94428e-07
5.94344e-07
7.88502e-05
4.88907e-07
-1.86461e-06
1.93739e-06
7.83909e-05
6.27718e-07
-3.76709e-06
4.08075e-06
7.73934e-05
3.5613e-07
-6.6261e-06
7.27441e-06
7.59152e-05
-1.74569e-07
-1.02844e-05
1.1218e-05
7.41664e-05
-6.55852e-07
-1.42394e-05
1.53016e-05
7.2369e-05
-7.6992e-07
-1.79209e-05
1.89374e-05
7.06409e-05
-3.15391e-07
-2.09469e-05
2.18025e-05
6.89494e-05
7.54329e-07
-2.32698e-05
2.39389e-05
6.7119e-05
2.37627e-06
-2.51795e-05
2.57111e-05
6.48641e-05
4.43198e-06
-2.72247e-05
2.77281e-05
6.17444e-05
6.85683e-06
-3.01293e-05
3.07925e-05
5.70737e-05
9.59924e-06
-3.47617e-05
3.59475e-05
4.89128e-05
1.27478e-05
-4.2087e-05
4.5208e-05
3.2664e-05
1.46189e-05
-4.96711e-05
5.93417e-05
8.18768e-06
-3.85886e-05
6.46253e-05
8.80517e-05
-1.65667e-08
-5.34743e-07
5.32953e-07
8.80161e-05
4.99384e-07
-1.57716e-06
1.60228e-06
8.76073e-05
8.07274e-07
-3.07663e-06
3.30589e-06
8.65503e-05
8.32498e-07
-5.50857e-06
6.08925e-06
8.47824e-05
6.62908e-07
-8.92243e-06
9.85286e-06
8.24761e-05
5.15555e-07
-1.29213e-05
1.40561e-05
7.99172e-05
6.53046e-07
-1.68869e-05
1.80228e-05
7.73582e-05
1.26362e-06
-2.02853e-05
2.12653e-05
7.49037e-05
2.44431e-06
-2.29085e-05
2.36731e-05
7.24807e-05
4.21278e-06
-2.49425e-05
2.5529e-05
6.98496e-05
6.54551e-06
-2.68982e-05
2.74158e-05
6.65514e-05
9.51213e-06
-2.95137e-05
3.01566e-05
6.18578e-05
1.31747e-05
-3.36746e-05
3.47928e-05
5.36251e-05
1.8048e-05
-4.05868e-05
4.35193e-05
3.62917e-05
2.25577e-05
-4.83345e-05
5.77292e-05
1.47462e-05
-3.78145e-05
6.43166e-05
9.41249e-05
-3.15827e-08
-4.94138e-07
4.89497e-07
9.4104e-05
5.24072e-07
-1.4124e-06
1.40863e-06
9.3754e-05
9.9096e-07
-2.66453e-06
2.83079e-06
9.27321e-05
1.34227e-06
-4.77664e-06
5.28882e-06
9.08805e-05
1.61784e-06
-7.92951e-06
8.82614e-06
8.83126e-05
1.93006e-06
-1.18301e-05
1.29835e-05
8.53367e-05
2.43194e-06
-1.58675e-05
1.70645e-05
8.2285e-05
3.26346e-06
-1.943e-05
2.04819e-05
7.93768e-05
4.53265e-06
-2.21886e-05
2.30084e-05
7.66487e-05
6.3317e-06
-2.42324e-05
2.48416e-05
7.39448e-05
8.7479e-06
-2.60133e-05
2.65149e-05
7.08572e-05
1.2022e-05
-2.82416e-05
2.88193e-05
6.66781e-05
1.63712e-05
-3.17469e-05
3.27295e-05
5.92544e-05
2.29232e-05
-3.78532e-05
4.04016e-05
4.16664e-05
3.15074e-05
-4.5436e-05
5.40743e-05
2.60207e-05
-3.53971e-05
6.17939e-05
9.71554e-05
-4.59497e-07
4.54454e-07
-2.87432e-08
9.71465e-05
-1.29786e-06
1.27986e-06
5.50949e-07
9.68512e-05
-2.41064e-06
2.54255e-06
1.15439e-06
9.59027e-05
-4.33075e-06
4.79988e-06
1.82159e-06
9.40981e-05
-7.29251e-06
8.15854e-06
2.55639e-06
9.15164e-05
-1.10596e-05
1.22087e-05
3.36272e-06
8.84652e-05
-1.50382e-05
1.62542e-05
4.26712e-06
8.53195e-05
-1.85836e-05
1.96645e-05
5.32823e-06
8.23701e-05
-2.13057e-05
2.21474e-05
6.64044e-06
7.97452e-05
-2.32232e-05
2.38327e-05
8.347e-06
7.73922e-05
-2.47227e-05
2.51922e-05
1.06314e-05
7.50689e-05
-2.64389e-05
2.69217e-05
1.38625e-05
7.22397e-05
-2.90757e-05
2.98589e-05
1.84172e-05
6.72235e-05
-3.37818e-05
3.565e-05
2.60712e-05
5.25848e-05
-4.07185e-05
4.75366e-05
3.9328e-05
-3.05987e-05
5.45195e-05
4.99474e-05
1.25987e-05
4.63278e-09
-1.04839e-06
1.23239e-05
1.7762e-07
-2.21053e-06
1.19753e-05
1.9155e-07
-3.18054e-06
1.17227e-05
5.13994e-08
-4.06444e-06
1.16485e-05
-1.4845e-07
-4.8424e-06
1.17335e-05
-3.12308e-07
-5.50551e-06
1.18903e-05
-3.8254e-07
-6.08233e-06
1.20075e-05
-3.48944e-07
-6.63717e-06
1.1987e-05
-2.41238e-07
-7.26245e-06
1.17634e-05
-1.13487e-07
-8.07011e-06
1.13071e-05
-3.48264e-08
-9.18379e-06
1.05986e-05
-8.47487e-08
-1.07298e-05
9.55343e-06
-3.35951e-07
-1.2789e-05
7.82323e-06
-7.83841e-07
-1.51616e-05
4.59978e-06
-1.22166e-06
-1.64597e-05
-1.13921e-06
-1.16427e-05
3.53096e-05
9.25158e-08
-1.1845e-06
3.48986e-05
3.44528e-07
-3.4007e-06
3.43928e-05
2.56347e-07
-5.71548e-06
3.39783e-05
-1.45493e-07
-8.03054e-06
3.37905e-05
-6.835e-07
-1.01422e-05
3.3816e-05
-1.1094e-06
-1.19116e-05
3.39148e-05
-1.26099e-06
-1.33251e-05
3.38814e-05
-1.09637e-06
-1.449e-05
3.35067e-05
-6.79635e-07
-1.56095e-05
3.26118e-05
-1.37809e-07
-1.69506e-05
3.10439e-05
3.69735e-07
-1.88147e-05
2.86096e-05
6.9431e-07
-2.15048e-05
2.49429e-05
6.82191e-07
-2.52241e-05
1.92502e-05
2.42731e-07
-2.95252e-05
1.03889e-05
-5.69387e-07
-3.12692e-05
-1.12513e-06
-2.03381e-05
5.49789e-05
9.13835e-08
-8.72846e-07
5.46506e-05
4.12933e-07
-2.9041e-06
5.40629e-05
3.01951e-07
-5.46352e-06
5.33469e-05
-2.62957e-07
-8.43505e-06
5.266e-05
-1.05633e-06
-1.14676e-05
5.20856e-05
-1.72281e-06
-1.42181e-05
5.15731e-05
-1.97857e-06
-1.64865e-05
5.09528e-05
-1.70563e-06
-1.82688e-05
4.99869e-05
-9.55319e-07
-1.97491e-05
4.84154e-05
1.06358e-07
-2.12565e-05
4.5948e-05
1.27715e-06
-2.32018e-05
4.22118e-05
2.363e-06
-2.60253e-05
3.65845e-05
3.18029e-06
-3.00919e-05
2.78953e-05
3.50165e-06
-3.50442e-05
1.4767e-05
2.79272e-06
-3.70917e-05
6.55621e-07
-2.37597e-05
7.13586e-05
3.90432e-08
-6.63214e-07
7.11442e-05
4.31263e-07
-2.19323e-06
7.05444e-05
4.1595e-07
-4.34347e-06
6.9529e-05
-9.81611e-08
-7.23056e-06
6.82062e-05
-9.16135e-07
-1.05935e-05
6.67393e-05
-1.66148e-06
-1.39888e-05
6.52277e-05
-1.9708e-06
-1.70116e-05
6.36423e-05
-1.63575e-06
-1.94532e-05
6.18205e-05
-6.42074e-07
-2.13675e-05
5.94947e-05
8.69967e-07
-2.30496e-05
5.62989e-05
2.71082e-06
-2.49564e-05
5.17182e-05
4.70163e-06
-2.76217e-05
4.49316e-05
6.69116e-06
-3.15585e-05
3.43814e-05
8.41508e-06
-3.66531e-05
1.82687e-05
8.49869e-06
-3.90198e-05
4.14862e-06
-2.50495e-05
8.44189e-05
-1.82597e-08
-5.63018e-07
8.42795e-05
4.42033e-07
-1.73592e-06
8.37292e-05
5.89361e-07
-3.39025e-06
8.25685e-05
3.04986e-07
-5.86856e-06
8.07793e-05
-2.87217e-07
-9.12401e-06
7.85155e-05
-8.68147e-07
-1.2769e-05
7.59863e-05
-1.07431e-06
-1.62882e-05
7.33275e-05
-6.4594e-07
-1.92779e-05
7.05293e-05
5.04188e-07
-2.16178e-05
6.7399e-05
2.3268e-06
-2.35061e-05
6.35777e-05
4.69697e-06
-2.53895e-05
5.847e-05
7.53063e-06
-2.78507e-05
5.11216e-05
1.07814e-05
-3.15034e-05
3.95908e-05
1.43619e-05
-3.6503e-05
2.14086e-05
1.61286e-05
-3.91187e-05
9.5323e-06
-2.51681e-05
9.4185e-05
-5.21793e-08
-5.08123e-07
9.40769e-05
4.65958e-07
-1.49299e-06
9.35946e-05
7.91237e-07
-2.79616e-06
9.24306e-05
8.25424e-07
-4.86499e-06
9.04304e-05
6.33112e-07
-7.84259e-06
8.76744e-05
4.33857e-07
-1.14673e-05
8.44046e-05
5.22756e-07
-1.52141e-05
8.08816e-05
1.13956e-06
-1.85478e-05
7.72496e-05
2.42176e-06
-2.11941e-05
7.34513e-05
4.41905e-06
-2.32365e-05
6.9199e-05
7.12423e-06
-2.50731e-05
6.38894e-05
1.0621e-05
-2.72944e-05
5.65183e-05
1.50342e-05
-3.05563e-05
4.47825e-05
2.07811e-05
-3.52703e-05
2.50591e-05
2.5559e-05
-3.80415e-05
1.77782e-05
-2.43611e-05
0.000100685
-6.08798e-08
-4.69593e-07
0.000100584
5.07626e-07
-1.35266e-06
0.000100164
9.94415e-07
-2.44828e-06
9.90701e-05
1.36658e-06
-4.2237e-06
9.70522e-05
1.65356e-06
-6.93207e-06
9.41081e-05
1.97102e-06
-1.04231e-05
9.04719e-05
2.48952e-06
-1.41982e-05
8.64752e-05
3.38212e-06
-1.76758e-05
8.23804e-05
4.7909e-06
-2.0463e-05
7.82658e-05
6.84504e-06
-2.25438e-05
7.39618e-05
9.66985e-06
-2.42549e-05
6.89366e-05
1.35648e-05
-2.61603e-05
6.2251e-05
1.88639e-05
-2.8891e-05
5.14072e-05
2.68441e-05
-3.30723e-05
3.09455e-05
3.65164e-05
-3.59317e-05
3.18057e-05
-2.25984e-05
0.000103929
-4.37059e-07
-5.02516e-08
0.000103837
-1.25143e-06
5.53902e-07
0.000103474
-2.22983e-06
1.17626e-06
0.000102474
-3.83243e-06
1.86806e-06
0.000100546
-6.35295e-06
2.64219e-06
9.76453e-05
-9.69696e-06
3.50907e-06
9.39922e-05
-1.33965e-05
4.50093e-06
8.99503e-05
-1.68468e-05
5.68729e-06
8.58595e-05
-1.96051e-05
7.18104e-06
8.19095e-05
-2.15879e-05
9.15973e-06
7.80719e-05
-2.30711e-05
1.18559e-05
7.40182e-05
-2.45623e-05
1.57419e-05
6.90782e-05
-2.66046e-05
2.13328e-05
6.11049e-05
-2.98872e-05
3.09228e-05
4.34112e-05
-3.28927e-05
4.63843e-05
-1.97965e-05
5.95544e-05
1.32812e-05
-1.76944e-08
-9.63793e-07
1.29497e-05
1.35389e-07
-2.01438e-06
1.25143e-05
1.39031e-07
-2.88422e-06
1.2149e-05
-1.46426e-08
-3.68446e-06
1.19417e-05
-2.35386e-07
-4.39972e-06
1.18754e-05
-4.20422e-07
-5.01886e-06
1.18588e-05
-5.05264e-07
-5.56044e-06
1.17704e-05
-4.75372e-07
-6.07336e-06
1.14989e-05
-3.60727e-07
-6.6302e-06
1.0965e-05
-2.19544e-07
-7.31671e-06
1.01249e-05
-1.2377e-07
-8.2199e-06
8.95018e-06
-1.48241e-07
-9.40687e-06
7.37979e-06
-3.49774e-07
-1.08688e-05
5.2551e-06
-7.22717e-07
-1.23142e-05
2.51699e-06
-1.19464e-06
-1.2527e-05
-1.278e-06
-8.11267e-06
3.72646e-05
5.95093e-08
-1.06553e-06
3.67567e-05
2.77564e-07
-3.03493e-06
3.6096e-05
1.58776e-07
-5.07449e-06
3.54641e-05
-2.79621e-07
-7.13373e-06
3.50044e-05
-8.79337e-07
-9.03856e-06
3.47058e-05
-1.36942e-06
-1.0664e-05
3.44234e-05
-1.56523e-06
-1.19827e-05
3.39365e-05
-1.40878e-06
-1.30696e-05
3.30133e-05
-9.62645e-07
-1.40844e-05
3.14477e-05
-3.64112e-07
-1.52404e-05
2.90652e-05
2.12227e-07
-1.67682e-05
2.56672e-05
6.10201e-07
-1.88653e-05
2.09704e-05
6.85695e-07
-2.15627e-05
1.46065e-05
3.42713e-07
-2.42268e-05
6.74677e-06
-5.1137e-07
-2.40927e-05
-1.32194e-06
-1.43203e-05
5.80404e-05
5.52452e-08
-7.80169e-07
5.76269e-05
3.49422e-07
-2.56248e-06
5.68888e-05
2.15267e-07
-4.78188e-06
5.59435e-05
-3.9955e-07
-7.36976e-06
5.49343e-05
-1.28058e-06
-1.00572e-05
5.39444e-05
-2.05167e-06
-1.2546e-05
5.29235e-05
-2.38955e-06
-1.46412e-05
5.16952e-05
-2.14105e-06
-1.63083e-05
5.00041e-05
-1.34384e-06
-1.76768e-05
4.75633e-05
-1.74516e-07
-1.90054e-05
4.40515e-05
1.14067e-06
-2.06184e-05
3.90818e-05
2.38512e-06
-2.28305e-05
3.2111e-05
3.36478e-06
-2.58003e-05
2.24763e-05
3.82336e-06
-2.88901e-05
1.04644e-05
3.07179e-06
-2.8663e-05
6.90094e-07
-1.6637e-05
7.53375e-05
2.17359e-09
-5.95482e-07
7.50526e-05
3.77307e-07
-1.9362e-06
7.43385e-05
3.55639e-07
-3.76973e-06
7.31335e-05
-1.90037e-07
-6.23508e-06
7.15074e-05
-1.08824e-06
-9.1598e-06
6.95998e-05
-1.9482e-06
-1.21846e-05
6.7506e-05
-2.36188e-06
-1.49456e-05
6.52024e-05
-2.06925e-06
-1.72213e-05
6.25275e-05
-1.02561e-06
-1.90109e-05
5.91988e-05
6.33911e-07
-2.05293e-05
5.48209e-05
2.69567e-06
-2.21336e-05
4.88536e-05
4.95404e-06
-2.42233e-05
4.05171e-05
7.2361e-06
-2.70933e-05
2.876e-05
9.20101e-06
-3.02737e-05
1.36537e-05
9.27993e-06
-3.01216e-05
4.66593e-06
-1.73631e-05
8.91278e-05
-5.15466e-08
-5.0622e-07
8.89203e-05
3.99047e-07
-1.55018e-06
8.82811e-05
5.54971e-07
-2.9504e-06
8.69847e-05
2.64889e-07
-5.02704e-06
8.49528e-05
-3.76054e-07
-7.80429e-06
8.2282e-05
-1.04575e-06
-1.10006e-05
7.9155e-05
-1.34534e-06
-1.41778e-05
7.57121e-05
-9.55345e-07
-1.69488e-05
7.19649e-05
2.50876e-07
-1.91471e-05
6.77286e-05
2.24541e-06
-2.08813e-05
6.26308e-05
4.89775e-06
-2.24938e-05
5.60517e-05
8.10699e-06
-2.44245e-05
4.70386e-05
1.18167e-05
-2.70709e-05
3.40947e-05
1.58245e-05
-3.01827e-05
1.67217e-05
1.76882e-05
-3.01539e-05
1.0784e-05
-1.72817e-05
9.9442e-05
-7.81561e-08
-4.58658e-07
9.926e-05
4.36833e-07
-1.34873e-06
9.86961e-05
7.79234e-07
-2.45657e-06
9.74357e-05
8.27066e-07
-4.1667e-06
9.52598e-05
6.21437e-07
-6.66426e-06
9.21615e-05
3.82307e-07
-9.7971e-06
8.83315e-05
4.11241e-07
-1.31407e-05
8.40116e-05
1.03051e-06
-1.62137e-05
7.9379e-05
2.38944e-06
-1.87002e-05
7.44112e-05
4.58165e-06
-2.06049e-05
6.88299e-05
7.61345e-06
-2.22076e-05
6.20221e-05
1.15752e-05
-2.39548e-05
5.29639e-05
1.66188e-05
-2.63003e-05
3.96854e-05
2.3061e-05
-2.92282e-05
2.05068e-05
2.81636e-05
-2.93382e-05
2.00674e-05
-1.66114e-05
0.00010631
-8.18254e-08
-4.21747e-07
0.000106128
4.96329e-07
-1.23007e-06
0.000105626
1.00394e-06
-2.17062e-06
0.000104457
1.39959e-06
-3.62745e-06
0.000102315
1.70227e-06
-5.87084e-06
9.91006e-05
2.02742e-06
-8.85404e-06
9.49573e-05
2.55721e-06
-1.22008e-05
9.01974e-05
3.49884e-06
-1.53843e-05
8.51057e-05
5.02373e-06
-1.80057e-05
7.98136e-05
7.29724e-06
-1.99672e-05
7.41878e-05
1.04759e-05
-2.14915e-05
6.77077e-05
1.48955e-05
-2.30004e-05
5.94275e-05
2.09573e-05
-2.49493e-05
4.70271e-05
2.99459e-05
-2.75569e-05
2.67855e-05
4.03487e-05
-2.78752e-05
3.54343e-05
-1.54137e-05
0.000109739
-3.91259e-07
-6.77099e-08
0.000109563
-1.14214e-06
5.62682e-07
0.000109118
-1.98745e-06
1.20709e-06
0.000108057
-3.2969e-06
1.92472e-06
0.000106039
-5.36885e-06
2.73587e-06
0.000102919
-8.20609e-06
3.65705e-06
9.88192e-05
-1.14655e-05
4.726e-06
9.40663e-05
-1.46178e-05
6.02275e-06
8.9026e-05
-1.72177e-05
7.67661e-06
8.39509e-05
-1.91097e-05
9.8942e-06
7.8873e-05
-2.04641e-05
1.29468e-05
7.34937e-05
-2.1661e-05
1.73735e-05
6.71821e-05
-2.31069e-05
2.37712e-05
5.78146e-05
-2.51829e-05
3.4609e-05
3.99868e-05
-2.59623e-05
5.12462e-05
-1.36653e-05
6.43133e-05
1.38475e-05
-3.90141e-08
-8.32855e-07
1.34641e-05
9.80829e-08
-1.7291e-06
1.29522e-05
9.36113e-08
-2.46594e-06
1.24909e-05
-7.58546e-08
-3.1473e-06
1.21717e-05
-3.16849e-07
-3.76363e-06
1.19794e-05
-5.2332e-07
-4.30323e-06
1.18199e-05
-6.24433e-07
-4.77657e-06
1.15656e-05
-6.00962e-07
-5.21808e-06
1.10983e-05
-4.82178e-07
-5.68074e-06
1.0335e-05
-3.27547e-07
-6.22587e-06
9.23575e-06
-2.11953e-07
-6.90867e-06
7.78848e-06
-1.99977e-07
-7.75963e-06
5.98478e-06
-3.35606e-07
-8.72949e-06
3.8243e-06
-6.14458e-07
-9.53924e-06
1.59064e-06
-1.02883e-06
-9.26451e-06
-1.12375e-06
-5.68089e-06
3.88909e-05
3.04174e-08
-9.05685e-07
3.82989e-05
2.19435e-07
-2.56424e-06
3.75012e-05
8.69552e-08
-4.27016e-06
3.66895e-05
-3.99842e-07
-5.998e-06
3.60046e-05
-1.0554e-06
-7.61511e-06
3.54385e-05
-1.60705e-06
-9.01424e-06
3.4842e-05
-1.84906e-06
-1.01616e-05
3.39838e-05
-1.70715e-06
-1.11052e-05
3.26196e-05
-1.23981e-06
-1.19625e-05
3.05347e-05
-5.89285e-07
-1.28938e-05
2.75612e-05
5.68572e-08
-1.40635e-05
2.35437e-05
5.44382e-07
-1.55921e-05
1.83278e-05
7.44317e-07
-1.74267e-05
1.18911e-05
5.53307e-07
-1.89578e-05
5.01441e-06
-1.89517e-07
-1.80554e-05
-1.10375e-06
-1.01456e-05
6.0589e-05
2.43535e-08
-6.59341e-07
6.00982e-05
2.92977e-07
-2.14526e-06
5.92356e-05
1.42367e-07
-3.97465e-06
5.80988e-05
-5.16429e-07
-6.11638e-06
5.68267e-05
-1.47418e-06
-8.36638e-06
5.54978e-05
-2.34131e-06
-1.04828e-05
5.40599e-05
-2.76022e-06
-1.22922e-05
5.23324e-05
-2.54406e-06
-1.37439e-05
5.0051e-05
-1.71418e-06
-1.4921e-05
4.69217e-05
-4.51215e-07
-1.60141e-05
4.26279e-05
9.98867e-07
-1.72666e-05
3.68244e-05
2.40647e-06
-1.88891e-05
2.91186e-05
3.57504e-06
-2.09252e-05
1.92723e-05
4.22786e-06
-2.27183e-05
8.40071e-06
3.56651e-06
-2.15475e-05
1.03645e-06
-1.17741e-05
7.86519e-05
-2.9202e-08
-5.03811e-07
7.83015e-05
3.30473e-07
-1.62325e-06
7.74879e-05
3.04287e-07
-3.11806e-06
7.6126e-05
-2.65e-07
-5.12465e-06
7.4257e-05
-1.22934e-06
-7.53565e-06
7.19967e-05
-2.19026e-06
-1.00753e-05
6.94317e-05
-2.70252e-06
-1.24382e-05
6.6541e-05
-2.45956e-06
-1.44152e-05
6.31697e-05
-1.38364e-06
-1.59701e-05
5.90391e-05
3.98953e-07
-1.72489e-05
5.37612e-05
2.65658e-06
-1.85134e-05
4.68319e-05
5.16198e-06
-2.00495e-05
3.76044e-05
7.72311e-06
-2.20139e-05
2.54778e-05
9.94353e-06
-2.38627e-05
1.14724e-05
1.0116e-05
-2.26657e-05
5.29015e-06
-1.22187e-05
9.30505e-05
-7.64915e-08
-4.30301e-07
9.27806e-05
3.6149e-07
-1.31129e-06
9.20572e-05
5.25888e-07
-2.44865e-06
9.06449e-05
2.35427e-07
-4.11511e-06
8.84217e-05
-4.41583e-07
-6.36888e-06
8.5434e-05
-1.18586e-06
-9.01738e-06
8.18328e-05
-1.56849e-06
-1.17105e-05
7.77557e-05
-1.22537e-06
-1.4106e-05
7.32391e-05
5.72381e-09
-1.60199e-05
6.81133e-05
2.15127e-06
-1.75078e-05
6.20346e-05
5.04374e-06
-1.88023e-05
5.44187e-05
8.57756e-06
-2.02242e-05
4.44187e-05
1.26753e-05
-2.20231e-05
3.09615e-05
1.70442e-05
-2.38261e-05
1.45657e-05
1.90454e-05
-2.26875e-05
1.18575e-05
-1.20926e-05
0.000103825
-1.00397e-07
-3.88654e-07
0.000103574
4.12773e-07
-1.14916e-06
0.000102928
7.70622e-07
-2.05561e-06
0.000101578
8.34342e-07
-3.41516e-06
9.92633e-05
6.23336e-07
-5.41469e-06
9.59087e-05
3.50999e-07
-7.97937e-06
9.16421e-05
3.46166e-07
-1.07887e-05
8.66934e-05
9.41037e-07
-1.34314e-05
8.12511e-05
2.35423e-06
-1.56064e-05
7.53444e-05
4.70495e-06
-1.72519e-05
6.87343e-05
8.00727e-06
-1.85609e-05
6.08576e-05
1.23526e-05
-1.98533e-05
5.07745e-05
1.78921e-05
-2.14339e-05
3.6873e-05
2.48442e-05
-2.31268e-05
1.84916e-05
3.01946e-05
-2.2106e-05
2.17562e-05
-1.15903e-05
0.000111
-1.00129e-07
-3.56135e-07
0.000110745
4.89108e-07
-1.05186e-06
0.000110157
1.01635e-06
-1.82889e-06
0.000108912
1.43539e-06
-2.98277e-06
0.000106669
1.75644e-06
-4.76141e-06
0.000103255
2.09122e-06
-7.18005e-06
9.87371e-05
2.63304e-06
-9.96974e-06
9.33818e-05
3.60923e-06
-1.26971e-05
8.74928e-05
5.22554e-06
-1.4988e-05
8.1255e-05
7.67704e-06
-1.67015e-05
7.45975e-05
1.11433e-05
-1.79702e-05
6.70649e-05
1.598e-05
-1.90952e-05
5.77904e-05
2.26139e-05
-2.03966e-05
4.47101e-05
3.22786e-05
-2.1911e-05
2.50334e-05
4.31176e-05
-2.11216e-05
3.78328e-05
-1.07931e-05
0.000114582
-3.29701e-07
-8.11317e-08
0.000114334
-9.78425e-07
5.73852e-07
0.000113803
-1.68103e-06
1.24077e-06
0.000112674
-2.71617e-06
1.98355e-06
0.000110582
-4.34921e-06
2.82855e-06
0.000107306
-6.63603e-06
3.79717e-06
0.000102883
-9.34112e-06
4.93231e-06
9.7586e-05
-1.2034e-05
6.32192e-06
9.17931e-05
-1.43087e-05
8.1094e-06
8.58137e-05
-1.59775e-05
1.05242e-05
7.97566e-05
-1.71286e-05
1.38649e-05
7.33979e-05
-1.80326e-05
1.87102e-05
6.6196e-05
-1.8986e-05
2.56949e-05
5.61648e-05
-2.02021e-05
3.73291e-05
3.86191e-05
-1.99214e-05
5.46224e-05
-9.65708e-06
6.73609e-05
1.42988e-05
-5.76498e-08
-6.61587e-07
1.38704e-05
6.67561e-08
-1.36751e-06
1.32948e-05
5.39396e-08
-1.94423e-06
1.27548e-05
-1.28022e-07
-2.47927e-06
1.23453e-05
-3.86835e-07
-2.96732e-06
1.2053e-05
-6.12898e-07
-3.39802e-06
1.17824e-05
-7.29775e-07
-3.77624e-06
1.14024e-05
-7.13686e-07
-4.12437e-06
1.07923e-05
-5.92415e-07
-4.47823e-06
9.87164e-06
-4.26793e-07
-4.87838e-06
8.6092e-06
-2.88169e-07
-5.35807e-06
7.0168e-06
-2.40258e-07
-5.92697e-06
5.12925e-06
-3.12055e-07
-6.52989e-06
3.03912e-06
-5.02925e-07
-6.94619e-06
1.15838e-06
-8.50389e-07
-6.53338e-06
-9.4081e-07
-3.87622e-06
4.01899e-05
6.10902e-09
-7.11636e-07
3.95266e-05
1.70582e-07
-2.00481e-06
3.86173e-05
2.00976e-08
-3.32692e-06
3.76593e-05
-4.99252e-07
-4.66886e-06
3.67949e-05
-1.20248e-06
-5.93503e-06
3.60176e-05
-1.80842e-06
-7.04143e-06
3.51753e-05
-2.09357e-06
-7.95548e-06
3.40299e-05
-1.9686e-06
-8.70492e-06
3.23314e-05
-1.48635e-06
-9.37011e-06
2.98685e-05
-7.9485e-07
-1.00629e-05
2.64898e-05
-7.96882e-08
-1.08932e-05
2.20958e-05
4.95394e-07
-1.19338e-05
1.66405e-05
8.21578e-07
-1.31051e-05
1.03111e-05
7.87714e-07
-1.3919e-05
4.14589e-06
1.24997e-07
-1.28655e-05
-8.03741e-07
-6.98869e-06
6.26267e-05
-8.3318e-10
-5.15384e-07
6.20711e-05
2.46865e-07
-1.66597e-06
6.11047e-05
8.13565e-08
-3.06949e-06
5.98147e-05
-6.1044e-07
-4.71518e-06
5.8335e-05
-1.63089e-06
-6.4583e-06
5.67404e-05
-2.57996e-06
-8.11662e-06
5.49765e-05
-3.07174e-06
-9.55016e-06
5.286e-05
-2.88948e-06
-1.07065e-05
5.0125e-05
-2.03813e-06
-1.16341e-05
4.64786e-05
-6.9779e-07
-1.24648e-05
4.16304e-05
8.6953e-07
-1.33676e-05
3.52877e-05
2.42594e-06
-1.4477e-05
2.71979e-05
3.774e-06
-1.57878e-05
1.74052e-05
4.61829e-06
-1.67562e-05
7.33517e-06
4.07338e-06
-1.54258e-05
1.43518e-06
-8.12394e-06
8.13022e-05
-5.32954e-08
-3.93198e-07
8.08959e-05
2.92359e-07
-1.2625e-06
7.99984e-05
2.60816e-07
-2.40001e-06
7.85099e-05
-3.23007e-07
-3.92353e-06
7.64512e-05
-1.33863e-06
-5.76921e-06
7.39182e-05
-2.3828e-06
-7.73947e-06
7.09879e-05
-2.98109e-06
-9.59864e-06
6.7641e-05
-2.78675e-06
-1.1171e-05
6.37303e-05
-1.69045e-06
-1.24071e-05
5.89923e-05
1.88282e-07
-1.33969e-05
5.30623e-05
2.60856e-06
-1.43226e-05
4.54913e-05
5.32437e-06
-1.53769e-05
3.57654e-05
8.12606e-06
-1.664e-05
2.3587e-05
1.0575e-05
-1.76411e-05
1.03744e-05
1.0866e-05
-1.62458e-05
5.86438e-06
-8.40979e-06
9.61891e-05
-9.70811e-08
-3.37974e-07
9.58657e-05
3.30754e-07
-1.02629e-06
9.50672e-05
5.02967e-07
-1.89231e-06
9.35581e-05
2.14751e-07
-3.1437e-06
9.11858e-05
-4.87136e-07
-4.84814e-06
8.79577e-05
-1.29042e-06
-6.88158e-06
8.39952e-05
-1.74458e-06
-8.98464e-06
7.94325e-05
-1.44715e-06
-1.08828e-05
7.4316e-05
-1.84018e-07
-1.24098e-05
6.85152e-05
2.05817e-06
-1.35769e-05
6.17173e-05
5.14449e-06
-1.45403e-05
5.33963e-05
8.94084e-06
-1.55197e-05
4.2821e-05
1.33468e-05
-1.66686e-05
2.92098e-05
1.80016e-05
-1.76414e-05
1.35205e-05
2.01389e-05
-1.62713e-05
1.27114e-05
-8.30045e-06
0.000107332
-1.18326e-07
-3.03735e-07
0.000107023
3.93909e-07
-9.03186e-07
0.000106303
7.64758e-07
-1.59763e-06
0.000104872
8.44044e-07
-2.61345e-06
0.000102447
6.33175e-07
-4.11041e-06
9.89017e-05
3.36843e-07
-6.06083e-06
9.43105e-05
2.9669e-07
-8.23886e-06
8.88817e-05
8.74223e-07
-1.03239e-05
8.28234e-05
2.32642e-06
-1.20586e-05
7.61983e-05
4.79481e-06
-1.33634e-05
6.88269e-05
8.30827e-06
-1.43534e-05
6.02112e-05
1.29517e-05
-1.52484e-05
4.95114e-05
1.88618e-05
-1.62491e-05
3.53685e-05
2.61782e-05
-1.71605e-05
1.75658e-05
3.17175e-05
-1.58819e-05
2.2988e-05
-7.95225e-06
0.000114752
-1.14656e-07
-2.77606e-07
0.000114438
4.84799e-07
-8.2835e-07
0.000113773
1.02911e-06
-1.42847e-06
0.000112454
1.46947e-06
-2.28936e-06
0.000110129
1.80883e-06
-3.61157e-06
0.000106569
2.15398e-06
-5.43709e-06
0.000101777
2.70519e-06
-7.58668e-06
9.5978e-05
3.70743e-06
-9.73134e-06
8.94835e-05
5.39266e-06
-1.15597e-05
8.25239e-05
7.98012e-06
-1.29272e-05
7.5097e-05
1.16669e-05
-1.39019e-05
6.6824e-05
1.68173e-05
-1.46878e-05
5.69317e-05
2.38607e-05
-1.55031e-05
4.35471e-05
3.3974e-05
-1.63222e-05
2.42909e-05
4.50958e-05
-1.52437e-05
3.95014e-05
-7.43668e-06
0.000118458
-2.56624e-07
-9.16876e-08
0.00011815
-7.71168e-07
5.85173e-07
0.000117542
-1.31648e-06
1.27269e-06
0.000116345
-2.08837e-06
2.03806e-06
0.00011419
-3.29718e-06
2.91234e-06
0.000110803
-5.01528e-06
3.92061e-06
0.000106149
-7.0921e-06
5.10974e-06
0.000100454
-9.20516e-06
6.57385e-06
9.40926e-05
-1.10221e-05
8.46711e-06
8.74229e-05
-1.23632e-05
1.10355e-05
8.06278e-05
-1.32622e-05
1.45956e-05
7.35652e-05
-1.39017e-05
1.9749e-05
6.57864e-05
-1.44887e-05
2.71422e-05
5.54203e-05
-1.51487e-05
3.92868e-05
3.81184e-05
-1.45013e-05
5.69775e-05
-6.69775e-06
6.94881e-05
1.46358e-05
-7.16951e-08
-4.58472e-07
1.41717e-05
4.22646e-08
-9.4571e-07
1.35466e-05
2.27213e-08
-1.34185e-06
1.29464e-05
-1.69344e-07
-1.70979e-06
1.24691e-05
-4.42668e-07
-2.04728e-06
1.21028e-05
-6.85076e-07
-2.34666e-06
1.17518e-05
-8.15591e-07
-2.60964e-06
1.12832e-05
-8.06506e-07
-2.84926e-06
1.05762e-05
-6.84031e-07
-3.08722e-06
9.55438e-06
-5.0885e-07
-3.34773e-06
8.19641e-06
-3.51232e-07
-3.64887e-06
6.53371e-06
-2.72008e-07
-3.99226e-06
4.62917e-06
-2.9129e-07
-4.33405e-06
2.62174e-06
-4.12162e-07
-4.52659e-06
9.59098e-07
-7.00506e-07
-4.17023e-06
-7.93419e-07
-2.42615e-06
4.11626e-05
-1.35765e-08
-4.89044e-07
4.04434e-05
1.32308e-07
-1.37563e-06
3.94482e-05
-3.12848e-08
-2.2777e-06
3.83793e-05
-5.75348e-07
-3.19397e-06
3.73807e-05
-1.31605e-06
-4.06302e-06
3.64474e-05
-1.96578e-06
-4.82742e-06
3.54254e-05
-2.28717e-06
-5.46191e-06
3.40729e-05
-2.17828e-06
-5.98068e-06
3.21384e-05
-1.6865e-06
-6.43307e-06
2.9418e-05
-9.62479e-07
-6.88885e-06
2.57756e-05
-1.86586e-07
-7.41545e-06
2.11649e-05
4.58018e-07
-8.05321e-06
1.56116e-05
8.90883e-07
-8.7339e-06
9.41939e-06
9.87348e-07
-9.12636e-06
3.70861e-06
4.19543e-07
-8.27478e-06
-5.42559e-07
-4.40467e-06
6.41539e-05
-2.09442e-08
-3.53274e-07
6.35472e-05
2.11744e-07
-1.13873e-06
6.25003e-05
3.55815e-08
-2.08939e-06
6.10947e-05
-6.80377e-07
-3.20455e-06
5.94608e-05
-1.74833e-06
-4.39213e-06
5.76706e-05
-2.76167e-06
-5.53055e-06
5.56681e-05
-3.31288e-06
-6.52194e-06
5.32687e-05
-3.16108e-06
-7.32433e-06
5.02071e-05
-2.29631e-06
-7.96275e-06
4.61978e-05
-8.99179e-07
-8.51882e-06
4.09792e-05
7.63518e-07
-9.09909e-06
3.4302e-05
2.43974e-06
-9.78155e-06
2.6019e-05
3.93527e-06
-1.05492e-05
1.63371e-05
4.93868e-06
-1.10256e-05
6.78822e-06
4.50223e-06
-9.95955e-06
1.77614e-06
-5.13413e-06
8.3288e-05
-6.89033e-08
-2.70231e-07
8.2839e-05
2.61982e-07
-8.63699e-07
8.18745e-05
2.30808e-07
-1.6307e-06
8.02897e-05
-3.64816e-07
-2.65436e-06
7.80907e-05
-1.41724e-06
-3.90124e-06
7.53587e-05
-2.52481e-06
-5.24432e-06
7.21627e-05
-3.19161e-06
-6.52389e-06
6.84838e-05
-3.03928e-06
-7.61399e-06
6.41834e-05
-1.93278e-06
-8.47019e-06
5.90135e-05
1.69087e-08
-9.14311e-06
5.26376e-05
2.5622e-06
-9.74537e-06
4.46559e-05
5.44132e-06
-1.03967e-05
3.46564e-05
8.43063e-06
-1.11358e-05
2.25229e-05
1.10612e-05
-1.16302e-05
9.82363e-06
1.14591e-05
-1.05034e-05
6.31954e-06
-5.31016e-06
9.85438e-05
-1.12398e-07
-2.31704e-07
9.8177e-05
3.07248e-07
-7.04719e-07
9.73186e-05
4.85687e-07
-1.28878e-06
9.57327e-05
2.01494e-07
-2.12411e-06
9.32495e-05
-5.16346e-07
-3.26583e-06
8.98478e-05
-1.36292e-06
-4.64176e-06
8.56259e-05
-1.87301e-06
-6.0814e-06
8.0712e-05
-1.61431e-06
-7.39394e-06
7.51631e-05
-3.39617e-07
-8.45404e-06
6.88798e-05
1.97892e-06
-9.25561e-06
6.15836e-05
5.20945e-06
-9.89131e-06
5.2802e-05
9.20206e-06
-1.04989e-05
4.18954e-05
1.38359e-05
-1.11673e-05
2.82583e-05
1.87026e-05
-1.16458e-05
1.30208e-05
2.09538e-05
-1.05284e-05
1.33413e-05
-5.23577e-06
0.000109963
-1.31795e-07
-2.0773e-07
0.000109608
3.80109e-07
-6.2164e-07
0.000108828
7.60991e-07
-1.09255e-06
0.00010733
8.53828e-07
-1.76844e-06
0.000104822
6.45987e-07
-2.76417e-06
0.000101139
3.3371e-07
-4.07495e-06
9.63192e-05
2.66498e-07
-5.55814e-06
9.05483e-05
8.2815e-07
-6.99544e-06
8.40467e-05
2.30413e-06
-8.20076e-06
7.69081e-05
4.85666e-06
-9.1026e-06
6.90048e-05
8.52363e-06
-9.76418e-06
5.98981e-05
1.33829e-05
-1.03225e-05
4.88302e-05
1.95548e-05
-1.09001e-05
3.45968e-05
2.71225e-05
-1.1347e-05
1.71573e-05
3.28028e-05
-1.02914e-05
2.38536e-05
-5.01805e-06
0.000117567
-1.2571e-07
-1.89544e-07
0.000117207
4.82481e-07
-5.70715e-07
0.000116479
1.04033e-06
-9.80093e-07
0.000115098
1.4983e-06
-1.55268e-06
0.000112707
1.85362e-06
-2.42796e-06
0.000109043
2.2085e-06
-3.64824e-06
0.000104061
2.76713e-06
-5.10564e-06
9.79508e-05
3.78767e-06
-6.58027e-06
9.10245e-05
5.52124e-06
-7.85054e-06
8.35488e-05
8.20573e-06
-8.80062e-06
7.55801e-05
1.20503e-05
-9.4598e-06
6.68072e-05
1.7422e-05
-9.95402e-06
5.65339e-05
2.47445e-05
-1.04195e-05
4.30067e-05
3.51498e-05
-1.08222e-05
2.401e-05
4.64626e-05
-9.9067e-06
4.06458e-05
-4.70516e-06
0.000121365
-1.75035e-07
-9.99485e-08
0.000121012
-5.31541e-07
5.95041e-07
0.000120342
-9.04805e-07
1.29946e-06
0.000119086
-1.41823e-06
2.08325e-06
0.000116878
-2.21621e-06
2.98088e-06
0.000113412
-3.36093e-06
4.02002e-06
0.000108602
-4.76524e-06
5.2503e-06
0.00010263
-6.21587e-06
6.77023e-06
9.5867e-05
-7.47878e-06
8.74143e-06