/*--------------------------------*- C++ -*----------------------------------*\
| =========                 |                                                 |
| \\      /  F ield         | foam-extend: Open Source CFD                    |
|  \\    /   O peration     | Version:     3.1                                |
|   \\  /    A nd           | Web:         http://www.extend-project.de       |
|    \\/     M anipulation  |                                                 |
\*---------------------------------------------------------------------------*/
FoamFile
{
    version     2.0;
    format      ascii;
    class       pointVectorField;
    location    "2.1";
    object      pointMotionU;
}
// * * * * * * * * * * * * * * * * * * * * * * * * * * * * * * * * * * * * * //

dimensions      [0 1 -1 0 0 0 0];

internalField   nonuniform List<vector> 
16859
(
(0 0 0)
(0 0 0)
(0 0 0)
(0 0 0)
(0 0 0)
(0 0 0)
(0 0 0)
(0 0 0)
(0 0 0)
(0 0 0)
(0 0 0)
(0 0 0)
(0 0 0)
(0 0 0)
(0 0 0)
(0 0 0)
(0 0 0)
(0 0 0)
(-2.29292e-11 -6.32461e-11 4.40786e-11)
(-4.25812e-11 -1.21765e-10 8.74142e-11)
(-5.7202e-11 -1.74677e-10 1.3193e-10)
(-6.54723e-11 -2.22258e-10 1.80692e-10)
(-6.54046e-11 -2.63427e-10 2.36693e-10)
(-5.39957e-11 -2.95201e-10 3.0306e-10)
(-2.68386e-11 -3.11855e-10 3.83237e-10)
(2.22343e-11 -3.03634e-10 4.81169e-10)
(1.01174e-10 -2.55e-10 6.01484e-10)
(2.18683e-10 -1.42423e-10 7.49723e-10)
(3.80416e-10 6.76143e-11 9.3269e-10)
(5.79079e-10 4.1831e-10 1.15909e-09)
(7.7376e-10 9.54389e-10 1.44055e-09)
(8.60826e-10 1.6911e-09 1.79073e-09)
(6.9139e-10 2.51317e-09 2.20097e-09)
(-2.67373e-09 6.06989e-09 4.47757e-09)
(0 0 0)
(-4.62806e-11 -1.25368e-10 8.68418e-11)
(-8.61304e-11 -2.41634e-10 1.72165e-10)
(-1.16207e-10 -3.47368e-10 2.5971e-10)
(-1.34083e-10 -4.43531e-10 3.55462e-10)
(-1.36059e-10 -5.2861e-10 4.65237e-10)
(-1.16494e-10 -5.97731e-10 5.95086e-10)
(-6.69988e-11 -6.41187e-10 7.51643e-10)
(2.44338e-11 -6.42294e-10 9.42442e-10)
(1.74016e-10 -5.74381e-10 1.17619e-09)
(4.01587e-10 -3.9698e-10 1.46296e-09)
(7.26679e-10 -5.24193e-11 1.81407e-09)
(1.15698e-09 5.33534e-10 2.24116e-09)
(1.66292e-09 1.43636e-09 2.75252e-09)
(2.13863e-09 2.67523e-09 3.34064e-09)
(2.39992e-09 4.03905e-09 3.94207e-09)
(9.82822e-10 8.4208e-09 5.22928e-09)
(0 0 0)
(-7.03835e-11 -1.85118e-10 1.27128e-10)
(-1.31413e-10 -3.57405e-10 2.51903e-10)
(-1.78457e-10 -5.15443e-10 3.7968e-10)
(-2.08369e-10 -6.61558e-10 5.19085e-10)
(-2.16264e-10 -7.9493e-10 6.78452e-10)
(-1.94598e-10 -9.10609e-10 8.66393e-10)
(-1.31965e-10 -9.97878e-10 1.09228e-09)
(-1.16439e-11 -1.03791e-09 1.36666e-09)
(1.90006e-10 -1.00038e-09 1.70156e-09)
(5.04777e-10 -8.39163e-10 2.11046e-09)
(9.71942e-10 -4.88331e-10 2.60745e-09)
(1.63223e-09 1.37535e-10 3.20387e-09)
(2.5093e-09 1.12595e-09 3.8984e-09)
(3.56725e-09 2.49854e-09 4.65225e-09)
(4.64601e-09 4.01472e-09 5.34425e-09)
(6.06122e-09 8.53529e-09 5.85103e-09)
(0 0 0)
(-9.5348e-11 -2.40884e-10 1.63923e-10)
(-1.78726e-10 -4.66049e-10 3.24585e-10)
(-2.44601e-10 -6.74729e-10 4.8868e-10)
(-2.89614e-10 -8.71384e-10 6.67089e-10)
(-3.0841e-10 -1.05713e-09 8.70246e-10)
(-2.92567e-10 -1.22893e-09 1.10884e-09)
(-2.29204e-10 -1.37836e-09 1.39442e-09)
(-9.91264e-11 -1.48976e-09 1.73986e-09)
(1.2559e-10 -1.5375e-09 2.15975e-09)
(4.84507e-10 -1.48262e-09 2.67039e-09)
(1.03163e-09 -1.2693e-09 3.28879e-09)
(1.83567e-09 -8.23946e-10 4.02869e-09)
(2.96929e-09 -6.64673e-11 4.88908e-09)
(4.4621e-09 1.03723e-09 5.82569e-09)
(6.17577e-09 2.3152e-09 6.70065e-09)
(8.93054e-09 5.82033e-09 7.67961e-09)
(0 0 0)
(-1.21022e-10 -2.90678e-10 1.96431e-10)
(-2.27804e-10 -5.63668e-10 3.88621e-10)
(-3.14322e-10 -8.19434e-10 5.84266e-10)
(-3.77544e-10 -1.06517e-09 7.96045e-10)
(-4.124e-10 -1.30489e-09 1.036e-09)
(-4.10753e-10 -1.53911e-09 1.31633e-09)
(-3.60077e-10 -1.76433e-09 1.65009e-09)
(-2.41677e-10 -1.97219e-09 2.05173e-09)
(-2.83218e-11 -2.14849e-09 2.53763e-09)
(3.18808e-10 -2.272e-09 3.12635e-09)
(8.53617e-10 -2.31326e-09 3.83835e-09)
(1.6474e-09 -2.23363e-09 4.69353e-09)
(2.78259e-09 -1.98589e-09 5.70288e-09)
(4.31137e-09 -1.52544e-09 6.84296e-09)
(6.13231e-09 -8.62687e-10 7.9918e-09)
(8.32995e-09 8.79419e-10 1.06254e-08)
(0 0 0)
(-1.46991e-10 -3.32228e-10 2.24109e-10)
(-2.77814e-10 -6.45702e-10 4.42931e-10)
(-3.86325e-10 -9.42491e-10 6.64807e-10)
(-4.70283e-10 -1.23277e-09 9.03704e-10)
(-5.25552e-10 -1.5239e-09 1.17273e-09)
(-5.45287e-10 -1.8207e-09 1.48501e-09)
(-5.18934e-10 -2.12574e-09 1.85435e-09)
(-4.31025e-10 -2.43982e-09 2.29593e-09)
(-2.59798e-10 -2.76287e-09 2.82687e-09)
(2.41037e-11 -3.09584e-09 3.46686e-09)
(4.58103e-10 -3.44375e-09 4.23869e-09)
(1.0855e-09 -3.81927e-09 5.16782e-09)
(1.94621e-09 -4.24145e-09 6.27769e-09)
(3.05191e-09 -4.7092e-09 7.56772e-09)
(4.35683e-09 -5.08183e-09 8.93557e-09)
(4.70237e-09 -5.94561e-09 1.28247e-08)
(0 0 0)
(-1.72626e-10 -3.6319e-10 2.46677e-10)
(-3.27465e-10 -7.07379e-10 4.8698e-10)
(-4.58524e-10 -1.03635e-09 7.29525e-10)
(-5.64661e-10 -1.36305e-09 9.89057e-10)
(-6.43088e-10 -1.698e-09 1.27922e-09)
(-6.88855e-10 -2.05009e-09 1.6134e-09)
(-6.9431e-10 -2.42744e-09 2.00546e-09)
(-6.48663e-10 -2.83888e-09 2.47033e-09)
(-5.38e-10 -3.29621e-09 3.02461e-09)
(-3.46526e-10 -3.81825e-09 3.6873e-09)
(-6.09207e-11 -4.43747e-09 4.4806e-09)
(3.18205e-10 -5.21023e-09 5.43023e-09)
(7.50747e-10 -6.22747e-09 6.5621e-09)
(1.11472e-09 -7.59993e-09 7.88176e-09)
(1.24377e-09 -9.2405e-09 9.29283e-09)
(-9.06314e-10 -1.6686e-08 1.34544e-08)
(0 0 0)
(-1.97147e-10 -3.81378e-10 2.64105e-10)
(-3.7515e-10 -7.44233e-10 5.20742e-10)
(-5.28328e-10 -1.0939e-09 7.7846e-10)
(-6.56734e-10 -1.44548e-09 1.05229e-09)
(-7.59056e-10 -1.81193e-09 1.35587e-09)
(-8.32357e-10 -2.2051e-09 1.70231e-09)
(-8.71937e-10 -2.63687e-09 2.10481e-09)
(-8.71535e-10 -3.12081e-09 2.57713e-09)
(-8.24292e-10 -3.67453e-09 3.13406e-09)
(-7.25487e-10 -4.32325e-09 3.79191e-09)
(-5.79156e-10 -5.10515e-09 4.56876e-09)
(-4.12547e-10 -6.07775e-09 5.48387e-09)
(-3.04421e-10 -7.32006e-09 6.55257e-09)
(-4.2539e-10 -8.90289e-09 7.7656e-09)
(-1.00376e-09 -1.06891e-08 9.03746e-09)
(-1.85704e-08 -2.73502e-08 1.16538e-08)
(0 0 0)
(0 0 0)
(0 0 0)
(0 0 0)
(0 0 0)
(0 0 0)
(0 0 0)
(0 0 0)
(0 0 0)
(0 0 0)
(0 0 0)
(0 0 0)
(0 0 0)
(0 0 0)
(0 0 0)
(0 0 0)
(0 0 0)
(0 0 0)
(-2.86093e-11 -6.64252e-11 4.25098e-11)
(-5.38731e-11 -1.27939e-10 8.4218e-11)
(-7.43202e-11 -1.83667e-10 1.269e-10)
(-8.90629e-11 -2.3391e-10 1.73422e-10)
(-9.65321e-11 -2.7748e-10 2.2654e-10)
(-9.41404e-11 -3.1107e-10 2.89085e-10)
(-7.78877e-11 -3.28285e-10 3.64122e-10)
(-4.19773e-11 -3.18156e-10 4.55108e-10)
(2.127e-11 -2.6305e-10 5.66086e-10)
(1.20446e-10 -1.36003e-10 7.01986e-10)
(2.61244e-10 1.01872e-10 8.69216e-10)
(4.36235e-10 5.01635e-10 1.07694e-09)
(6.0318e-10 1.11808e-09 1.3394e-09)
(6.55147e-10 1.97393e-09 1.676e-09)
(4.57715e-10 2.92637e-09 2.07143e-09)
(-1.73542e-09 4.67732e-09 3.58141e-09)
(0 0 0)
(-5.74672e-11 -1.31712e-10 8.37549e-11)
(-1.08363e-10 -2.53981e-10 1.65878e-10)
(-1.49895e-10 -3.65416e-10 2.49822e-10)
(-1.80482e-10 -4.67083e-10 3.41177e-10)
(-1.9724e-10 -5.57332e-10 4.45299e-10)
(-1.95335e-10 -6.30766e-10 5.67659e-10)
(-1.67156e-10 -6.76574e-10 7.14138e-10)
(-1.01371e-10 -6.76018e-10 8.91296e-10)
(1.78487e-11 -5.98843e-10 1.10664e-09)
(2.10548e-10 -3.98645e-10 1.36888e-09)
(4.97496e-10 -8.32591e-12 1.68823e-09)
(8.89105e-10 6.60364e-10 2.07641e-09)
(1.36012e-09 1.70138e-09 2.54489e-09)
(1.80929e-09 3.14928e-09 3.09397e-09)
(2.05182e-09 4.75272e-09 3.65271e-09)
(1.79176e-09 8.02245e-09 4.98091e-09)
(0 0 0)
(-8.67485e-11 -1.94583e-10 1.2262e-10)
(-1.6392e-10 -3.75882e-10 2.42726e-10)
(-2.27676e-10 -5.42609e-10 3.65259e-10)
(-2.76094e-10 -6.97357e-10 4.98274e-10)
(-3.05467e-10 -8.39268e-10 6.4944e-10)
(-3.09407e-10 -9.62904e-10 8.26526e-10)
(-2.77614e-10 -1.0564e-09 1.03781e-09)
(-1.94283e-10 -1.09867e-09 1.29238e-09)
(-3.61539e-11 -1.05542e-09 1.60041e-09)
(2.29362e-10 -8.73744e-10 1.97317e-09)
(6.44647e-10 -4.76752e-10 2.4225e-09)
(1.25755e-09 2.37745e-10 2.95843e-09)
(2.10427e-09 1.37992e-09 3.58135e-09)
(3.16127e-09 2.99022e-09 4.25888e-09)
(4.21756e-09 4.77804e-09 4.86199e-09)
(6.57384e-09 8.33956e-09 5.83946e-09)
(0 0 0)
(-1.16424e-10 -2.5335e-10 1.5813e-10)
(-2.20562e-10 -4.90477e-10 3.12803e-10)
(-3.07879e-10 -7.10901e-10 4.70189e-10)
(-3.76569e-10 -9.19585e-10 6.40448e-10)
(-4.22763e-10 -1.11785e-09 8.33175e-10)
(-4.39501e-10 -1.30248e-09 1.058e-09)
(-4.15302e-10 -1.46428e-09 1.32505e-09)
(-3.32121e-10 -1.58591e-09 1.64534e-09)
(-1.62488e-10 -1.63862e-09 2.03099e-09)
(1.34295e-10 -1.57795e-09 2.49518e-09)
(6.1657e-10 -1.33879e-09 3.05129e-09)
(1.36298e-09 -8.32622e-10 3.70983e-09)
(2.46321e-09 4.21892e-11 4.46888e-09)
(3.95901e-09 1.33882e-09 5.28767e-09)
(5.607e-09 2.83204e-09 6.01492e-09)
(9.70209e-09 5.7881e-09 7.27557e-09)
(0 0 0)
(-1.46233e-10 -3.05918e-10 1.89523e-10)
(-2.77805e-10 -5.93653e-10 3.74586e-10)
(-3.89845e-10 -8.64154e-10 5.62278e-10)
(-4.8114e-10 -1.12542e-09 7.64439e-10)
(-5.48355e-10 -1.38204e-09 9.92135e-10)
(-5.85065e-10 -1.63484e-09 1.25634e-09)
(-5.80401e-10 -1.88031e-09 1.56847e-09)
(-5.17084e-10 -2.10964e-09 1.94078e-09)
(-3.68602e-10 -2.30745e-09 2.38667e-09)
(-9.52402e-11 -2.45018e-09 2.92081e-09)
(3.61094e-10 -2.50419e-09 3.55877e-09)
(1.08169e-09 -2.42321e-09 4.31519e-09)
(2.16635e-09 -2.14648e-09 5.19713e-09)
(3.67867e-09 -1.61135e-09 6.18073e-09)
(5.39274e-09 -8.57596e-10 7.11996e-09)
(9.99956e-09 1.34196e-09 9.21072e-09)
(0 0 0)
(-1.75685e-10 -3.49877e-10 2.16277e-10)
(-3.3466e-10 -6.80558e-10 4.27042e-10)
(-4.72038e-10 -9.94819e-10 6.39969e-10)
(-5.87586e-10 -1.30396e-09 8.6811e-10)
(-6.79081e-10 -1.61634e-09 1.12352e-09)
(-7.41567e-10 -1.9377e-09 1.41797e-09)
(-7.66343e-10 -2.27152e-09 1.76354e-09)
(-7.39608e-10 -2.61963e-09 2.17299e-09)
(-6.40706e-10 -2.98328e-09 2.66023e-09)
(-4.40081e-10 -3.36537e-09 3.24057e-09)
(-9.74554e-11 -3.77417e-09 3.93114e-09)
(4.38118e-10 -4.22755e-09 4.75056e-09)
(1.22139e-09 -4.75127e-09 5.71553e-09)
(2.28066e-09 -5.34715e-09 6.82003e-09)
(3.49141e-09 -5.86965e-09 7.92503e-09)
(7.77404e-09 -4.6243e-09 1.05931e-08)
(0 0 0)
(-2.04109e-10 -3.82723e-10 2.38124e-10)
(-3.89754e-10 -7.46083e-10 4.69656e-10)
(-5.52247e-10 -1.09478e-09 7.0252e-10)
(-6.92562e-10 -1.4432e-09 9.50504e-10)
(-8.09919e-10 -1.80324e-09 1.22616e-09)
(-9.01337e-10 -2.18526e-09 1.54152e-09)
(-9.61105e-10 -2.59918e-09 1.90867e-09)
(-9.80244e-10 -3.05615e-09 2.34016e-09)
(-9.4623e-10 -3.57147e-09 2.84937e-09)
(-8.43749e-10 -4.16963e-09 3.45097e-09)
(-6.5826e-10 -4.89313e-09 4.16149e-09)
(-3.86565e-10 -5.81673e-09 4.99966e-09)
(-6.25393e-11 -7.06597e-09 5.98365e-09)
(1.94119e-10 -8.81122e-09 7.11009e-09)
(1.79036e-10 -1.09978e-08 8.23594e-09)
(4.11851e-09 -1.4488e-08 1.08472e-08)
(0 0 0)
(-2.3072e-10 -4.02113e-10 2.55033e-10)
(-4.41477e-10 -7.85435e-10 5.02402e-10)
(-6.27879e-10 -1.15639e-09 7.49966e-10)
(-7.92134e-10 -1.53175e-09 1.01179e-09)
(-9.34934e-10 -1.92613e-09 1.30045e-09)
(-1.05529e-09 -2.35328e-09 1.62775e-09)
(-1.15039e-09 -2.82742e-09 2.00519e-09)
(-1.21573e-09 -3.36527e-09 2.44433e-09)
(-1.24581e-09 -3.98903e-09 2.95708e-09)
(-1.23649e-09 -4.73118e-09 3.55595e-09)
(-1.191e-09 -5.64197e-09 4.25434e-09)
(-1.13378e-09 -6.79979e-09 5.06625e-09)
(-1.13934e-09 -8.32002e-09 6.0026e-09)
(-1.37683e-09 -1.03311e-08 7.05234e-09)
(-2.07501e-09 -1.27308e-08 8.11605e-09)
(-1.22635e-08 -2.5032e-08 9.83905e-09)
(0 0 0)
(0 0 0)
(0 0 0)
(0 0 0)
(0 0 0)
(0 0 0)
(0 0 0)
(0 0 0)
(0 0 0)
(0 0 0)
(0 0 0)
(0 0 0)
(0 0 0)
(0 0 0)
(0 0 0)
(0 0 0)
(0 0 0)
(0 0 0)
(-3.45337e-11 -6.94671e-11 3.94063e-11)
(-6.57322e-11 -1.33868e-10 7.79884e-11)
(-9.25068e-11 -1.92348e-10 1.17308e-10)
(-1.1454e-10 -2.45264e-10 1.59912e-10)
(-1.30885e-10 -2.91376e-10 2.08192e-10)
(-1.39681e-10 -3.27179e-10 2.64517e-10)
(-1.37815e-10 -3.45857e-10 3.31329e-10)
(-1.20586e-10 -3.35724e-10 4.1121e-10)
(-8.16352e-11 -2.78047e-10 5.06953e-10)
(-1.38519e-11 -1.44448e-10 6.21684e-10)
(8.71465e-11 1.05127e-10 7.59161e-10)
(2.13942e-10 5.20675e-10 9.24469e-10)
(3.29161e-10 1.14814e-09 1.12491e-09)
(3.44377e-10 1.98264e-09 1.3674e-09)
(1.62693e-10 2.84207e-09 1.62827e-09)
(-1.82431e-09 4.39838e-09 2.41224e-09)
(0 0 0)
(-6.91201e-11 -1.37777e-10 7.76453e-11)
(-1.31678e-10 -2.65823e-10 1.53619e-10)
(-1.85627e-10 -3.82816e-10 2.30956e-10)
(-2.30493e-10 -4.89964e-10 3.14625e-10)
(-2.64599e-10 -5.85582e-10 4.09271e-10)
(-2.84513e-10 -6.63964e-10 5.19464e-10)
(-2.84331e-10 -7.13616e-10 6.49866e-10)
(-2.54809e-10 -7.14583e-10 8.05324e-10)
(-1.82615e-10 -6.34702e-10 9.9089e-10)
(-5.04643e-11 -4.25014e-10 1.21176e-09)
(1.60014e-10 -1.60063e-11 1.4731e-09)
(4.59158e-10 6.79849e-10 1.77955e-09)
(8.29428e-10 1.74414e-09 2.13309e-09)
(1.19737e-09 3.17093e-09 2.52392e-09)
(1.43345e-09 4.65149e-09 2.89263e-09)
(1.67397e-09 7.47779e-09 3.58754e-09)
(0 0 0)
(-1.0376e-10 -2.03617e-10 1.13687e-10)
(-1.97933e-10 -3.93569e-10 2.24813e-10)
(-2.79742e-10 -5.68726e-10 3.37718e-10)
(-3.48858e-10 -7.31981e-10 4.59563e-10)
(-4.03293e-10 -8.8255e-10 5.96992e-10)
(-4.38644e-10 -1.01475e-09 7.56481e-10)
(-4.47015e-10 -1.11602e-09 9.44544e-10)
(-4.15521e-10 -1.16397e-09 1.1678e-09)
(-3.24365e-10 -1.12213e-09 1.43282e-09)
(-1.44782e-10 -9.3453e-10 1.74571e-09)
(1.62152e-10 -5.20854e-10 2.11091e-09)
(6.4319e-10 2.22077e-10 2.52853e-09)
(1.34071e-09 1.3946e-09 2.98775e-09)
(2.25504e-09 2.99936e-09 3.45188e-09)
(3.2288e-09 4.68736e-09 3.82913e-09)
(5.79163e-09 7.83329e-09 4.25496e-09)
(0 0 0)
(-1.38273e-10 -2.65229e-10 1.46633e-10)
(-2.64205e-10 -5.13809e-10 2.89766e-10)
(-3.74582e-10 -7.45557e-10 4.34818e-10)
(-4.69594e-10 -9.65966e-10 5.90821e-10)
(-5.47507e-10 -1.17664e-09 7.66084e-10)
(-6.03812e-10 -1.37437e-09 9.68612e-10)
(-6.29967e-10 -1.54959e-09 1.20633e-09)
(-6.11476e-10 -1.68401e-09 1.4871e-09)
(-5.25071e-10 -1.74718e-09 1.81845e-09)
(-3.34722e-10 -1.69197e-09 2.20674e-09)
(1.33842e-11 -1.44973e-09 2.65539e-09)
(5.95015e-10 -9.28823e-10 3.16081e-09)
(1.5019e-09 -3.01561e-11 3.70378e-09)
(2.79035e-09 1.27835e-09 4.23248e-09)
(4.26516e-09 2.7282e-09 4.63793e-09)
(8.05939e-09 5.47689e-09 4.96026e-09)
(0 0 0)
(-1.72282e-10 -3.20414e-10 1.75779e-10)
(-3.29773e-10 -6.22223e-10 3.47077e-10)
(-4.69114e-10 -9.06854e-10 5.20116e-10)
(-5.91394e-10 -1.18311e-09 7.05424e-10)
(-6.95712e-10 -1.45616e-09 9.12587e-10)
(-7.78416e-10 -1.72726e-09 1.15071e-09)
(-8.31923e-10 -1.99307e-09 1.42868e-09)
(-8.42894e-10 -2.24467e-09 1.75509e-09)
(-7.89442e-10 -2.4661e-09 2.13796e-09)
(-6.36984e-10 -2.63262e-09 2.58376e-09)
(-3.32454e-10 -2.70831e-09 3.09548e-09)
(2.01991e-10 -2.64287e-09 3.66857e-09)
(1.06749e-09 -2.36875e-09 4.28248e-09)
(2.34168e-09 -1.81494e-09 4.88349e-09)
(3.84821e-09 -1.02562e-09 5.35432e-09)
(7.5478e-09 1.19252e-09 5.74515e-09)
(0 0 0)
(-2.0522e-10 -3.66632e-10 2.00646e-10)
(-3.93496e-10 -7.13688e-10 3.95796e-10)
(-5.61565e-10 -1.04462e-09 5.92183e-10)
(-7.11698e-10 -1.37182e-09 8.01423e-10)
(-8.44281e-10 -1.70458e-09 1.03397e-09)
(-9.57288e-10 -2.04954e-09 1.29958e-09)
(-1.04545e-09 -2.41106e-09 1.60763e-09)
(-1.099e-09 -2.79186e-09 1.96698e-09)
(-1.10193e-09 -3.19418e-09 2.38569e-09)
(-1.02965e-09 -3.62195e-09 2.87007e-09)
(-8.46234e-10 -4.08396e-09 3.42293e-09)
(-5.01801e-10 -4.59595e-09 4.03978e-09)
(6.74177e-11 -5.1714e-09 4.70049e-09)
(9.24517e-10 -5.77257e-09 5.35032e-09)
(2.01862e-09 -6.19558e-09 5.86164e-09)
(5.10489e-09 -4.74847e-09 6.20023e-09)
(0 0 0)
(-2.36382e-10 -4.01231e-10 2.20985e-10)
(-4.53934e-10 -7.82788e-10 4.35448e-10)
(-6.4963e-10 -1.15024e-09 6.50338e-10)
(-8.27039e-10 -1.51931e-09 8.77945e-10)
(-9.8804e-10 -1.90318e-09 1.12917e-09)
(-1.13258e-09 -2.31354e-09 1.41401e-09)
(-1.25831e-09 -2.76182e-09 1.74184e-09)
(-1.36007e-09 -3.26105e-09 2.12132e-09)
(-1.42958e-09 -3.82891e-09 2.56006e-09)
(-1.45567e-09 -4.49304e-09 3.06382e-09)
(-1.42634e-09 -5.29964e-09 3.63484e-09)
(-1.33509e-09 -6.3254e-09 4.26834e-09)
(-1.19469e-09 -7.68576e-09 4.94385e-09)
(-1.05692e-09 -9.49781e-09 5.60311e-09)
(-9.98627e-10 -1.1588e-08 6.10488e-09)
(2.64337e-09 -1.4966e-08 6.16759e-09)
(0 0 0)
(-2.64989e-10 -4.21727e-10 2.36765e-10)
(-5.09498e-10 -8.24435e-10 4.66003e-10)
(-7.30764e-10 -1.21557e-09 6.94605e-10)
(-9.33579e-10 -1.61343e-09 9.35131e-10)
(-1.12123e-09 -2.03418e-09 1.19854e-09)
(-1.29551e-09 -2.49321e-09 1.49466e-09)
(-1.4567e-09 -3.00672e-09 1.83246e-09)
(-1.60365e-09 -3.59387e-09 2.21991e-09)
(-1.73433e-09 -4.28006e-09 2.66371e-09)
(-1.84744e-09 -5.10202e-09 3.16851e-09)
(-1.94646e-09 -6.11516e-09 3.73559e-09)
(-2.04829e-09 -7.40197e-09 4.35994e-09)
(-2.1983e-09 -9.07205e-09 5.02378e-09)
(-2.48277e-09 -1.12116e-08 5.6814e-09)
(-2.9613e-09 -1.36151e-08 6.24306e-09)
(-1.24453e-08 -2.62917e-08 6.32475e-09)
(0 0 0)
(0 0 0)
(0 0 0)
(0 0 0)
(0 0 0)
(0 0 0)
(0 0 0)
(0 0 0)
(0 0 0)
(0 0 0)
(0 0 0)
(0 0 0)
(0 0 0)
(0 0 0)
(0 0 0)
(0 0 0)
(0 0 0)
(0 0 0)
(-4.04072e-11 -7.22702e-11 3.4941e-11)
(-7.75567e-11 -1.39347e-10 6.90774e-11)
(-1.10814e-10 -2.00413e-10 1.03712e-10)
(-1.40533e-10 -2.55899e-10 1.40993e-10)
(-1.66542e-10 -3.04572e-10 1.82866e-10)
(-1.87964e-10 -3.42848e-10 2.31146e-10)
(-2.02983e-10 -3.6373e-10 2.87531e-10)
(-2.08636e-10 -3.55264e-10 3.53554e-10)
(-2.00875e-10 -2.98467e-10 4.3047e-10)
(-1.75527e-10 -1.65065e-10 5.19098e-10)
(-1.3158e-10 8.36709e-11 6.19687e-10)
(-7.934e-11 4.93415e-10 7.3189e-10)
(-5.61787e-11 1.10032e-09 8.54723e-10)
(-1.43306e-10 1.88526e-09 9.84843e-10)
(-4.18157e-10 2.66932e-09 1.10447e-09)
(-2.79623e-09 4.08375e-09 1.37475e-09)
(0 0 0)
(-8.06599e-11 -1.43358e-10 6.88519e-11)
(-1.54898e-10 -2.7675e-10 1.36077e-10)
(-2.21547e-10 -3.98945e-10 2.04208e-10)
(-2.81434e-10 -5.11326e-10 2.77432e-10)
(-3.34384e-10 -6.12261e-10 3.59528e-10)
(-3.78858e-10 -6.95945e-10 4.53989e-10)
(-4.11444e-10 -7.50595e-10 5.64037e-10)
(-4.26243e-10 -7.55806e-10 6.9248e-10)
(-4.14376e-10 -6.78939e-10 8.41395e-10)
(-3.64294e-10 -4.71057e-10 1.01159e-09)
(-2.64413e-10 -6.44947e-11 1.20177e-09)
(-1.10806e-10 6.21826e-10 1.40742e-09)
(7.71833e-11 1.65458e-09 1.61886e-09)
(2.3821e-10 3.00608e-09 1.81758e-09)
(2.85231e-10 4.37187e-09 1.96783e-09)
(5.6586e-11 6.99557e-09 2.09373e-09)
(0 0 0)
(-1.20577e-10 -2.11915e-10 1.00824e-10)
(-2.31742e-10 -4.09852e-10 1.99168e-10)
(-3.3197e-10 -5.9286e-10 2.98651e-10)
(-4.22787e-10 -7.64154e-10 4.0531e-10)
(-5.04336e-10 -9.23116e-10 5.24546e-10)
(-5.74881e-10 -1.06403e-09 6.61295e-10)
(-6.30028e-10 -1.1741e-09 8.20011e-10)
(-6.61579e-10 -1.23046e-09 1.00439e-09)
(-6.56017e-10 -1.19604e-09 1.21676e-09)
(-5.92811e-10 -1.01465e-09 1.45695e-09)
(-4.4328e-10 -6.07336e-10 1.72041e-09)
(-1.71884e-10 1.23388e-10 1.9952e-09)
(2.55735e-10 1.26388e-09 2.25763e-09)
(8.47488e-10 2.79552e-09 2.46812e-09)
(1.50412e-09 4.37181e-09 2.57893e-09)
(3.27197e-09 7.30255e-09 2.4359e-09)
(0 0 0)
(-1.59822e-10 -2.76119e-10 1.30064e-10)
(-3.07476e-10 -5.35236e-10 2.5676e-10)
(-4.41297e-10 -7.77472e-10 3.84603e-10)
(-5.63784e-10 -1.00884e-09 5.21212e-10)
(-6.75826e-10 -1.23129e-09 6.73338e-10)
(-7.76174e-10 -1.44178e-09 8.47066e-10)
(-8.60531e-10 -1.63071e-09 1.04775e-09)
(-9.20063e-10 -1.77951e-09 1.27961e-09)
(-9.39099e-10 -1.85727e-09 1.54478e-09)
(-8.91727e-10 -1.81641e-09 1.84169e-09)
(-7.37298e-10 -1.58861e-09 2.16212e-09)
(-4.16302e-10 -1.08497e-09 2.48672e-09)
(1.45889e-10 -2.14332e-10 2.77907e-09)
(9.99686e-10 1.04177e-09 2.983e-09)
(2.00952e-09 2.41403e-09 3.04634e-09)
(4.5444e-09 4.99301e-09 2.68545e-09)
(0 0 0)
(-1.97902e-10 -3.33675e-10 1.55953e-10)
(-3.8114e-10 -6.48393e-10 3.0762e-10)
(-5.48119e-10 -9.46035e-10 4.60187e-10)
(-7.02564e-10 -1.23615e-09 6.22542e-10)
(-8.46536e-10 -1.52452e-09 8.02475e-10)
(-9.80013e-10 -1.81284e-09 1.0069e-09)
(-1.10009e-09 -2.09811e-09 1.24175e-09)
(-1.19959e-09 -2.37153e-09 1.51146e-09)
(-1.26483e-09 -2.61712e-09 1.81781e-09)
(-1.27215e-09 -2.80985e-09 2.15788e-09)
(-1.18284e-09 -2.91321e-09 2.52046e-09)
(-9.37631e-10 -2.87607e-09 2.88064e-09)
(-4.57853e-10 -2.63012e-09 3.19292e-09)
(3.16445e-10 -2.10479e-09 3.38972e-09)
(1.25677e-09 -1.3467e-09 3.41642e-09)
(3.22184e-09 7.40289e-10 2.91093e-09)
(0 0 0)
(-2.34176e-10 -3.81927e-10 1.78065e-10)
(-4.51449e-10 -7.43957e-10 3.50912e-10)
(-6.50439e-10 -1.09017e-09 5.24152e-10)
(-8.36248e-10 -1.43393e-09 7.07601e-10)
(-1.0124e-09 -1.78542e-09 9.09766e-10)
(-1.18064e-09 -2.15207e-09 1.13807e-09)
(-1.34047e-09 -2.539e-09 1.39873e-09)
(-1.48828e-09 -2.94966e-09 1.69617e-09)
(-1.61608e-09 -3.38689e-09 2.03179e-09)
(-1.70958e-09 -3.85492e-09 2.40166e-09)
(-1.74579e-09 -4.36193e-09 2.79266e-09)
(-1.69053e-09 -4.92061e-09 3.17631e-09)
(-1.49755e-09 -5.53651e-09 3.50032e-09)
(-1.11713e-09 -6.15918e-09 3.68547e-09)
(-5.63896e-10 -6.58481e-09 3.66875e-09)
(6.28074e-10 -5.26431e-09 2.96214e-09)
(0 0 0)
(-2.67913e-10 -4.18094e-10 1.96182e-10)
(-5.16912e-10 -8.1625e-10 3.86216e-10)
(-7.45885e-10 -1.20082e-09 5.75894e-10)
(-9.61302e-10 -1.58872e-09 7.75622e-10)
(-1.16819e-09 -1.99426e-09 9.94297e-10)
(-1.37021e-09 -2.43026e-09 1.23955e-09)
(-1.56954e-09 -2.90935e-09 1.5176e-09)
(-1.76674e-09 -3.4458e-09 1.8327e-09)
(-1.96062e-09 -4.0586e-09 2.1859e-09)
(-2.14849e-09 -4.7765e-09 2.57279e-09)
(-2.32777e-09 -5.64581e-09 2.97975e-09)
(-2.50056e-09 -6.74027e-09 3.3775e-09)
(-2.68353e-09 -8.16549e-09 3.71129e-09)
(-2.92106e-09 -1.00207e-08 3.89249e-09)
(-3.25272e-09 -1.21299e-08 3.83814e-09)
(-9.22544e-10 -1.58482e-08 2.82023e-09)
(0 0 0)
(-2.98351e-10 -4.39569e-10 2.10272e-10)
(-5.75985e-10 -8.59924e-10 4.135e-10)
(-8.32e-10 -1.26941e-09 6.15426e-10)
(-1.07405e-09 -1.6877e-09 8.26715e-10)
(-1.30845e-09 -2.13228e-09 1.05635e-09)
(-1.54044e-09 -2.6199e-09 1.31187e-09)
(-1.7744e-09 -3.16825e-09 1.59929e-09)
(-2.01412e-09 -3.79814e-09 1.92251e-09)
(-2.26326e-09 -4.53673e-09 2.28227e-09)
(-2.52666e-09 -5.42241e-09 2.67425e-09)
(-2.81297e-09 -6.5114e-09 3.08595e-09)
(-3.14004e-09 -7.88436e-09 3.49192e-09)
(-3.54324e-09 -9.6434e-09 3.84735e-09)
(-4.07881e-09 -1.18622e-08 4.08576e-09)
(-4.75209e-09 -1.43424e-08 4.15966e-09)
(-1.49899e-08 -2.77209e-08 3.05309e-09)
(0 0 0)
(0 0 0)
(0 0 0)
(0 0 0)
(0 0 0)
(0 0 0)
(0 0 0)
(0 0 0)
(0 0 0)
(0 0 0)
(0 0 0)
(0 0 0)
(0 0 0)
(0 0 0)
(0 0 0)
(0 0 0)
(0 0 0)
(0 0 0)
(-4.58868e-11 -7.47322e-11 2.9324e-11)
(-8.86388e-11 -1.44171e-10 5.79124e-11)
(-1.28104e-10 -2.07543e-10 8.67903e-11)
(-1.65339e-10 -2.65368e-10 1.17662e-10)
(-2.01027e-10 -3.16462e-10 1.52003e-10)
(-2.35409e-10 -3.57251e-10 1.91078e-10)
(-2.68202e-10 -3.80735e-10 2.35879e-10)
(-2.98572e-10 -3.75014e-10 2.86981e-10)
(-3.25397e-10 -3.21389e-10 3.44289e-10)
(-3.48388e-10 -1.92509e-10 4.06689e-10)
(-3.71326e-10 4.80547e-11 4.71653e-10)
(-4.09621e-10 4.41251e-10 5.34988e-10)
(-5.04325e-10 1.01562e-09 5.90999e-10)
(-7.34976e-10 1.74507e-09 6.33403e-10)
(-1.15863e-09 2.45976e-09 6.56644e-10)
(-4.01567e-09 3.65279e-09 6.75724e-10)
(0 0 0)
(-9.14162e-11 -1.48254e-10 5.77877e-11)
(-1.7664e-10 -2.86355e-10 1.14092e-10)
(-2.55434e-10 -4.13175e-10 1.70904e-10)
(-3.29992e-10 -5.30288e-10 2.31549e-10)
(-4.01783e-10 -6.36183e-10 2.98891e-10)
(-4.71422e-10 -7.25097e-10 3.75355e-10)
(-5.38442e-10 -7.85263e-10 4.62798e-10)
(-6.01041e-10 -7.9636e-10 5.62188e-10)
(-6.55996e-10 -7.26187e-10 6.73032e-10)
(-6.99347e-10 -5.27228e-10 7.92516e-10)
(-7.29059e-10 -1.35386e-10 9.1442e-10)
(-7.51665e-10 5.23082e-10 1.02804e-09)
(-7.94121e-10 1.50323e-09 1.11797e-09)
(-9.12406e-10 2.76769e-09 1.16681e-09)
(-1.14563e-09 4.02873e-09 1.16688e-09)
(-1.97201e-09 6.45111e-09 1.05054e-09)
(0 0 0)
(-1.36231e-10 -2.19183e-10 8.46325e-11)
(-2.6335e-10 -4.24137e-10 1.67012e-10)
(-3.81157e-10 -6.14092e-10 2.49985e-10)
(-4.9312e-10 -7.92591e-10 3.38345e-10)
(-6.01704e-10 -9.59236e-10 4.36184e-10)
(-7.08203e-10 -1.10844e-09 5.46916e-10)
(-8.12351e-10 -1.22748e-09 6.73057e-10)
(-9.11692e-10 -1.29359e-09 8.15701e-10)
(-1.00068e-09 -1.27012e-09 9.73563e-10)
(-1.06966e-09 -1.10221e-09 1.14147e-09)
(-1.10405e-09 -7.14297e-10 1.30831e-09)
(-1.08482e-09 -1.59687e-11 1.45475e-09)
(-9.91677e-10 1.06786e-09 1.55249e-09)
(-8.12187e-10 2.50948e-09 1.57048e-09)
(-5.7262e-10 3.97989e-09 1.5046e-09)
(3.25995e-10 6.70398e-09 1.15098e-09)
(0 0 0)
(-1.79844e-10 -2.85637e-10 1.09196e-10)
(-3.47849e-10 -5.53986e-10 2.15348e-10)
(-5.03986e-10 -8.05455e-10 3.22006e-10)
(-6.53157e-10 -1.04654e-09 4.35223e-10)
(-7.99102e-10 -1.27957e-09 5.60116e-10)
(-9.44251e-10 -1.50177e-09 7.00874e-10)
(-1.08929e-09 -1.70371e-09 8.60458e-10)
(-1.23231e-09 -1.867e-09 1.03986e-09)
(-1.36726e-09 -1.96099e-09 1.23678e-09)
(-1.48149e-09 -1.93893e-09 1.44344e-09)
(-1.55214e-09 -1.73451e-09 1.64355e-09)
(-1.54198e-09 -1.26321e-09 1.80892e-09)
(-1.39896e-09 -4.41218e-10 1.8985e-09)
(-1.07622e-09 7.43437e-10 1.86938e-09)
(-6.22723e-10 2.03258e-09 1.72594e-09)
(7.11426e-10 4.43271e-09 1.15702e-09)
(0 0 0)
(-2.21653e-10 -3.45242e-10 1.3096e-10)
(-4.28952e-10 -6.71235e-10 2.58072e-10)
(-6.22152e-10 -9.80275e-10 3.85409e-10)
(-8.07711e-10 -1.28258e-09 5.2004e-10)
(-9.90885e-10 -1.58447e-09 6.67875e-10)
(-1.17573e-09 -1.88813e-09 8.33665e-10)
(-1.36478e-09 -2.19089e-09 1.02063e-09)
(-1.55838e-09 -2.48424e-09 1.22955e-09)
(-1.75318e-09 -2.7524e-09 1.45712e-09)
(-1.93977e-09 -2.97046e-09 1.69327e-09)
(-2.09879e-09 -3.10212e-09 1.91729e-09)
(-2.19605e-09 -3.09667e-09 2.09336e-09)
(-2.18109e-09 -2.88688e-09 2.16939e-09)
(-2.00666e-09 -2.40386e-09 2.0922e-09)
(-1.715e-09 -1.69172e-09 1.87532e-09)
(-1.256e-09 2.78441e-10 1.13853e-09)
(0 0 0)
(-2.60951e-10 -3.95241e-10 1.49571e-10)
(-5.05241e-10 -7.70317e-10 2.94486e-10)
(-7.33456e-10 -1.12985e-09 4.39151e-10)
(-9.53618e-10 -1.48806e-09 5.91391e-10)
(-1.17261e-09 -1.85588e-09 7.5767e-10)
(-1.39637e-09 -2.24141e-09 9.43096e-10)
(-1.62992e-09 -2.65036e-09 1.151e-09)
(-1.8771e-09 -3.08665e-09 1.38196e-09)
(-2.13997e-09 -3.55334e-09 1.63195e-09)
(-2.41778e-09 -4.05434e-09 1.88938e-09)
(-2.70545e-09 -4.59651e-09 2.1306e-09)
(-2.99153e-09 -5.18943e-09 2.31445e-09)
(-3.25515e-09 -5.83356e-09 2.37955e-09)
(-3.45908e-09 -6.47409e-09 2.26035e-09)
(-3.54022e-09 -6.91093e-09 1.97158e-09)
(-3.9262e-09 -5.61104e-09 1.04736e-09)
(0 0 0)
(-2.96987e-10 -4.32747e-10 1.64844e-10)
(-5.75192e-10 -8.45328e-10 3.24237e-10)
(-8.35486e-10 -1.24476e-09 4.8273e-10)
(-1.08731e-09 -1.64899e-09 6.48636e-10)
(-1.33904e-09 -2.07325e-09 8.28744e-10)
(-1.59841e-09 -2.53124e-09 1.02833e-09)
(-1.87285e-09 -3.03641e-09 1.25074e-09)
(-2.16975e-09 -3.60372e-09 1.4964e-09)
(-2.49683e-09 -4.25252e-09 1.76104e-09)
(-2.86282e-09 -5.01116e-09 2.03266e-09)
(-3.27919e-09 -5.92391e-09 2.28706e-09)
(-3.76407e-09 -7.05967e-09 2.48181e-09)
(-4.3491e-09 -8.51575e-09 2.55138e-09)
(-5.08013e-09 -1.03833e-08 2.41722e-09)
(-5.92721e-09 -1.2491e-08 2.07278e-09)
(-4.74424e-09 -1.61831e-08 8.87751e-10)
(0 0 0)
(-3.29023e-10 -4.55051e-10 1.76752e-10)
(-6.37316e-10 -8.90713e-10 3.47295e-10)
(-9.25898e-10 -1.3161e-09 5.16148e-10)
(-1.20533e-09 -1.75203e-09 6.91853e-10)
(-1.48511e-09 -2.21705e-09 8.81306e-10)
(-1.77426e-09 -2.72897e-09 1.08978e-09)
(-2.08186e-09 -3.30646e-09 1.32054e-09)
(-2.41755e-09 -3.97122e-09 1.57398e-09)
(-2.7923e-09 -4.75093e-09 1.846e-09)
(-3.21956e-09 -5.6837e-09 2.12548e-09)
(-3.71735e-09 -6.82382e-09 2.39057e-09)
(-4.31176e-09 -8.24735e-09 2.60429e-09)
(-5.04142e-09 -1.00492e-08 2.71215e-09)
(-5.95184e-09 -1.22985e-08 2.65418e-09)
(-6.99858e-09 -1.48107e-08 2.43485e-09)
(-1.77844e-08 -2.81953e-08 8.85839e-10)
(0 0 0)
(0 0 0)
(0 0 0)
(0 0 0)
(0 0 0)
(0 0 0)
(0 0 0)
(0 0 0)
(0 0 0)
(0 0 0)
(0 0 0)
(0 0 0)
(0 0 0)
(0 0 0)
(0 0 0)
(0 0 0)
(0 0 0)
(0 0 0)
(-5.06183e-11 -7.67584e-11 2.27861e-11)
(-9.8242e-11 -1.48148e-10 4.49585e-11)
(-1.43173e-10 -2.13441e-10 6.72646e-11)
(-1.87134e-10 -2.73246e-10 9.09579e-11)
(-2.31627e-10 -3.26448e-10 1.1707e-10)
(-2.77996e-10 -3.69534e-10 1.46389e-10)
(-3.27494e-10 -3.95602e-10 1.79366e-10)
(-3.81446e-10 -3.92964e-10 2.15922e-10)
(-4.41717e-10 -3.43443e-10 2.55154e-10)
(-5.11982e-10 -2.2085e-10 2.94937e-10)
(-6.00853e-10 8.89372e-12 3.31532e-10)
(-7.2867e-10 3.82625e-10 3.59489e-10)
(-9.39311e-10 9.23151e-10 3.72421e-10)
(-1.30781e-09 1.59993e-09 3.65811e-10)
(-1.86539e-09 2.2507e-09 3.43671e-10)
(-5.02245e-09 3.22242e-09 2.74316e-10)
(0 0 0)
(-1.00698e-10 -1.5228e-10 4.49066e-11)
(-1.95466e-10 -2.94264e-10 8.85781e-11)
(-2.84946e-10 -4.24925e-10 1.32466e-10)
(-3.72617e-10 -5.46024e-10 1.79018e-10)
(-4.61529e-10 -6.56191e-10 2.30232e-10)
(-5.54416e-10 -7.49795e-10 2.87617e-10)
(-6.53763e-10 -8.15241e-10 3.5199e-10)
(-7.61915e-10 -8.32562e-10 4.23081e-10)
(-8.81423e-10 -7.70391e-10 4.98893e-10)
(-1.01603e-09 -5.8306e-10 5.74823e-10)
(-1.17323e-09 -2.1018e-10 6.42724e-10)
(-1.36936e-09 4.15585e-10 6.90484e-10)
(-1.63673e-09 1.34072e-09 7.03577e-10)
(-2.02017e-09 2.52262e-09 6.71705e-10)
(-2.50329e-09 3.68891e-09 6.06611e-10)
(-3.69914e-09 5.91348e-09 4.45927e-10)
(0 0 0)
(-1.49723e-10 -2.25149e-10 6.5775e-11)
(-2.90688e-10 -4.35876e-10 1.2968e-10)
(-4.23941e-10 -6.31582e-10 1.93791e-10)
(-5.5477e-10 -8.16101e-10 2.61634e-10)
(-6.87876e-10 -9.89273e-10 3.36067e-10)
(-8.27525e-10 -1.14572e-09 4.19202e-10)
(-9.77581e-10 -1.27293e-09 5.12094e-10)
(-1.1414e-09 -1.34855e-09 6.14122e-10)
(-1.32155e-09 -1.33675e-09 7.21967e-10)
(-1.51933e-09 -1.18451e-09 8.28161e-10)
(-1.73402e-09 -8.19869e-10 9.19446e-10)
(-1.96146e-09 -1.58665e-10 9.75864e-10)
(-2.1906e-09 8.65982e-10 9.73192e-10)
(-2.39414e-09 2.22208e-09 8.94645e-10)
(-2.51658e-09 3.59768e-09 7.6353e-10)
(-2.182e-09 6.12999e-09 4.26027e-10)
(0 0 0)
(-1.97077e-10 -2.93436e-10 8.48787e-11)
(-3.82715e-10 -5.69364e-10 1.67242e-10)
(-5.5842e-10 -8.28439e-10 2.49677e-10)
(-7.31344e-10 -1.07758e-09 3.36641e-10)
(-9.07958e-10 -1.31946e-09 4.31707e-10)
(-1.0943e-09 -1.55159e-09 5.37455e-10)
(-1.29603e-09 -1.76483e-09 6.55057e-10)
(-1.51823e-09 -1.94112e-09 7.83436e-10)
(-1.76459e-09 -2.0504e-09 9.17868e-10)
(-2.03578e-09 -2.04706e-09 1.04795e-09)
(-2.32611e-09 -1.86701e-09 1.15522e-09)
(-2.61781e-09 -1.42962e-09 1.21169e-09)
(-2.87327e-09 -6.56328e-10 1.18336e-09)
(-3.03251e-09 4.61818e-10 1.04774e-09)
(-3.04586e-09 1.67799e-09 8.42647e-10)
(-2.48593e-09 3.92471e-09 3.41651e-10)
(0 0 0)
(-2.42061e-10 -3.54704e-10 1.01818e-10)
(-4.70165e-10 -6.89928e-10 2.0047e-10)
(-6.86301e-10 -1.00831e-09 2.98925e-10)
(-8.99476e-10 -1.32063e-09 4.02396e-10)
(-1.118e-09 -1.63369e-09 5.15014e-10)
(-1.3499e-09 -1.95004e-09 6.39698e-10)
(-1.60316e-09 -2.26736e-09 7.77653e-10)