/*--------------------------------*- C++ -*----------------------------------*\
| =========                 |                                                 |
| \\      /  F ield         | foam-extend: Open Source CFD                    |
|  \\    /   O peration     | Version:     3.1                                |
|   \\  /    A nd           | Web:         http://www.extend-project.de       |
|    \\/     M anipulation  |                                                 |
\*---------------------------------------------------------------------------*/
FoamFile
{
    version     2.0;
    format      ascii;
    class       surfaceVectorField;
    location    "2.1";
    object      Sf;
}
// * * * * * * * * * * * * * * * * * * * * * * * * * * * * * * * * * * * * * //

dimensions      [0 2 0 0 0 0 0];

internalField   nonuniform List<vector> 
41600
(
(0.000625387 -2.06421e-06 -1.31504e-08)
(-3.87198e-07 0.000705189 -9.37356e-09)
(1.08893e-08 1.22504e-08 0.000704386)
(-1.11249e-08 -1.25155e-08 -0.000704364)
(0.000625758 -3.97832e-06 -2.52928e-08)
(-3.70624e-07 0.00070504 -2.80438e-08)
(1.0815e-08 3.6665e-08 0.000704746)
(-1.10452e-08 -3.74541e-08 -0.000704706)
(0.00062612 -5.72381e-06 -3.6307e-08)
(-3.61572e-07 0.000704872 -4.70543e-08)
(1.14261e-08 6.16747e-08 0.000705083)
(-1.16529e-08 -6.2978e-08 -0.000705025)
(0.000626491 -7.34134e-06 -4.63971e-08)
(-3.70232e-07 0.000704744 -6.76683e-08)
(1.2989e-08 8.9115e-08 0.00070544)
(-1.3211e-08 -9.09233e-08 -0.000705362)
(0.000626886 -8.8639e-06 -5.58694e-08)
(-3.95169e-07 0.00070465 -9.1468e-08)
(1.54401e-08 1.21049e-07 0.000705834)
(-1.5642e-08 -1.23335e-07 -0.000705733)
(0.000627322 -1.03219e-05 -6.50599e-08)
(-4.36268e-07 0.000704586 -1.20221e-07)
(1.86208e-08 1.59292e-07 0.000706284)
(-1.87744e-08 -1.6198e-07 -0.000706154)
(0.000627816 -1.17382e-05 -7.36271e-08)
(-4.93551e-07 0.000704544 -1.5595e-07)
(2.22444e-08 2.05164e-07 0.000706803)
(-2.23123e-08 -2.08104e-07 -0.000706638)
(0.000628384 -1.31235e-05 -8.08428e-08)
(-5.67985e-07 0.000704513 -2.01051e-07)
(2.58586e-08 2.59159e-07 0.000707405)
(-2.57706e-08 -2.62082e-07 -0.000707197)
(0.000629045 -1.44765e-05 -8.58256e-08)
(-6.61473e-07 0.00070448 -2.58793e-07)
(2.84201e-08 3.20117e-07 0.000708107)
(-2.80389e-08 -3.22521e-07 -0.000707844)
(0.00062982 -1.57707e-05 -8.64956e-08)
(-7.75444e-07 0.00070442 -3.33803e-07)
(2.77135e-08 3.83269e-07 0.00070892)
(-2.68797e-08 -3.84318e-07 -0.000708586)
(0.000630732 -1.69545e-05 -8.02358e-08)
(-9.13893e-07 0.000704307 -4.33257e-07)
(1.93877e-08 4.36598e-07 0.000709859)
(-1.79689e-08 -4.35117e-07 -0.000709432)
(0.000631812 -1.79392e-05 -6.50877e-08)
(-1.08206e-06 0.000704104 -5.69878e-07)
(-4.38494e-09 4.54659e-07 0.000710943)
(6.43087e-09 -4.49251e-07 -0.000710388)
(0.000633093 -1.8598e-05 -4.30656e-08)
(-1.28363e-06 0.000703773 -7.67873e-07)
(-5.79506e-08 3.87642e-07 0.000712202)
(6.04793e-08 -3.76948e-07 -0.000711456)
(0.000634593 -1.88176e-05 -3.06141e-08)
(-1.50328e-06 0.000703327 -1.07315e-06)
(-1.60147e-07 1.49259e-07 0.000713702)
(1.63574e-07 -1.31492e-07 -0.000712641)
(0.000636125 -1.86282e-05 -8.8088e-08)
(-1.55272e-06 0.00070289 -1.54851e-06)
(-2.98275e-07 -3.54193e-07 0.000715486)
(3.19377e-07 3.99562e-07 -0.00071388)
(-6.30336e-06 0.000701181 -5.19689e-07)
(-1.45747e-06 -2.26199e-06 0.000719434)
(2.9311e-06 3.92575e-06 -0.000718605)
(0.000625372 -2.03734e-06 -3.94166e-08)
(-7.58569e-07 0.000707227 -1.83697e-08)
(3.20701e-08 1.15764e-08 0.000706441)
(-3.27748e-08 -1.18392e-08 -0.000706393)
(0.000625728 -3.9285e-06 -7.59587e-08)
(-7.25734e-07 0.000706932 -5.49289e-08)
(3.17636e-08 3.45446e-08 0.000706634)
(-3.24605e-08 -3.53362e-08 -0.00070657)
(0.000626074 -5.65362e-06 -1.09341e-07)
(-7.07268e-07 0.000706598 -9.20933e-08)
(3.34756e-08 5.78631e-08 0.000706784)
(-3.41756e-08 -5.9198e-08 -0.000706705)
(0.000626428 -7.25238e-06 -1.40016e-07)
(-7.23305e-07 0.000706345 -1.32297e-07)
(3.80211e-08 8.32924e-08 0.000706994)
(-3.87145e-08 -8.51859e-08 -0.000706898)
(0.000626805 -8.7619e-06 -1.69129e-07)
(-7.71244e-07 0.000706162 -1.78649e-07)
(4.51475e-08 1.12772e-07 0.000707274)
(-4.57923e-08 -1.15219e-07 -0.000707157)
(0.000627219 -1.02121e-05 -1.97612e-07)
(-8.49961e-07 0.000706039 -2.346e-07)
(5.44199e-08 1.47971e-07 0.000707636)
(-5.49577e-08 -1.50954e-07 -0.000707493)
(0.000627685 -1.16238e-05 -2.24324e-07)
(-9.59694e-07 0.000705959 -3.0397e-07)
(6.52876e-08 1.9046e-07 0.000708084)
(-6.55768e-08 -1.93882e-07 -0.000707909)
(0.000628219 -1.30106e-05 -2.47397e-07)
(-1.1022e-06 0.000705904 -3.91486e-07)
(7.66366e-08 2.41609e-07 0.00070862)
(-7.6411e-08 -2.45165e-07 -0.000708407)
(0.000628836 -1.43762e-05 -2.63747e-07)
(-1.27948e-06 0.000705849 -5.03262e-07)
(8.56308e-08 3.01763e-07 0.000709246)
(-8.45098e-08 -3.04888e-07 -0.000708985)
(0.000629552 -1.57104e-05 -2.67725e-07)
(-1.49362e-06 0.000705756 -6.47577e-07)
(8.662e-08 3.69143e-07 0.000709947)
(-8.41302e-08 -3.70981e-07 -0.00070963)
(0.000630381 -1.69753e-05 -2.52065e-07)
(-1.74717e-06 0.000705572 -8.37095e-07)
(6.89845e-08 4.38636e-07 0.000710704)
(-6.46782e-08 -4.37947e-07 -0.000710316)
(0.000631332 -1.81004e-05 -2.09336e-07)
(-2.03934e-06 0.000705224 -1.09276e-06)
(1.40146e-08 4.99892e-07 0.000711479)
(-7.58999e-09 -4.94964e-07 -0.000710999)
(0.000632396 -1.89708e-05 -1.40488e-07)
(-2.35657e-06 0.000704632 -1.45204e-06)
(-1.09565e-07 5.36815e-07 0.000712223)
(1.18137e-07 -5.25278e-07 -0.000711608)
(0.000633505 -1.94472e-05 -7.87817e-08)
(-2.62448e-06 0.000703781 -1.98167e-06)
(-3.36315e-07 5.34252e-07 0.000712922)
(3.48849e-07 -5.12215e-07 -0.000712075)
(0.000634365 -1.94719e-05 -1.61078e-07)
(-2.46705e-06 0.000702874 -2.77389e-06)
(-6.18095e-07 5.03157e-07 0.000713657)
(6.72422e-07 -4.6166e-07 -0.000712349)
(-5.77839e-06 0.000699932 -2.19324e-06)
(-2.31017e-06 1.20004e-06 0.000712971)
(4.37431e-06 -2.19135e-06 -0.0007109)
(0.000625342 -1.98023e-06 -6.54108e-08)
(-1.09895e-06 0.000709208 -2.65918e-08)
(5.16845e-08 1.04822e-08 0.000708445)
(-5.28482e-08 -1.07359e-08 -0.000708371)
(0.000625668 -3.81859e-06 -1.26328e-07)
(-1.05053e-06 0.000708771 -7.9498e-08)
(5.09916e-08 3.11801e-08 0.000708457)
(-5.21514e-08 -3.19422e-08 -0.000708372)
(0.000625984 -5.49448e-06 -1.82076e-07)
(-1.02223e-06 0.000708275 -1.33206e-07)
(5.35649e-08 5.20059e-08 0.000708407)
(-5.47318e-08 -5.32709e-08 -0.00070831)
(0.000626305 -7.04993e-06 -2.33639e-07)
(-1.04381e-06 0.000707902 -1.91172e-07)
(6.0761e-08 7.45801e-08 0.000708456)
(-6.19234e-08 -7.63408e-08 -0.000708345)
(0.000626646 -8.5235e-06 -2.8368e-07)
(-1.11087e-06 0.000707638 -2.57891e-07)
(7.20515e-08 1.00652e-07 0.00070861)
(-7.31795e-08 -1.02934e-07 -0.000708481)
(0.000627018 -9.94122e-06 -3.33118e-07)
(-1.22057e-06 0.000707459 -3.3824e-07)
(8.69505e-08 1.31879e-07 0.000708868)
(-8.79525e-08 -1.34701e-07 -0.000708714)
(0.000627432 -1.13255e-05 -3.80074e-07)
(-1.3731e-06 0.000707347 -4.37491e-07)
(1.05025e-07 1.70107e-07 0.000709223)
(-1.05634e-07 -1.73389e-07 -0.000709042)
(0.0006279 -1.26983e-05 -4.22369e-07)
(-1.57025e-06 0.00070728 -5.62134e-07)
(1.24952e-07 2.17306e-07 0.000709669)
(-1.24723e-07 -2.20849e-07 -0.000709456)
(0.000628432 -1.40717e-05 -4.54635e-07)
(-1.81344e-06 0.000707226 -7.20401e-07)
(1.43349e-07 2.75725e-07 0.000710193)
(-1.41687e-07 -2.79155e-07 -0.000709944)
(0.000629038 -1.54557e-05 -4.6875e-07)
(-2.10407e-06 0.000707143 -9.23253e-07)
(1.53576e-07 3.48198e-07 0.000710765)
(-1.49683e-07 -3.50835e-07 -0.000710475)
(0.000629723 -1.68419e-05 -4.53232e-07)
(-2.4387e-06 0.000706958 -1.18666e-06)
(1.43748e-07 4.38722e-07 0.000711332)
(-1.36677e-07 -4.39343e-07 -0.000710998)
(0.000630474 -1.81958e-05 -3.93468e-07)
(-2.80157e-06 0.000706575 -1.53528e-06)
(9.3865e-08 5.54287e-07 0.000711806)
(-8.26926e-08 -5.50861e-07 -0.000711423)
(0.000631251 -1.94428e-05 -2.80153e-07)
(-3.14955e-06 0.000705868 -2.01061e-06)
(-2.51254e-08 7.09558e-07 0.00071206)
(4.13661e-08 -6.98894e-07 -0.000711615)
(0.00063195 -2.04492e-05 -1.34104e-07)
(-3.34879e-06 0.000704765 -2.68378e-06)
(-2.35942e-07 9.34006e-07 0.000711996)
(2.60814e-07 -9.11422e-07 -0.000711439)
(0.000632328 -2.10775e-05 -9.05749e-08)
(-2.91538e-06 0.000703469 -3.66612e-06)
(-4.70993e-07 1.25979e-06 0.000711749)
(5.41035e-07 -1.2268e-06 -0.0007109)
(-6.73896e-06 0.000701278 -2.72036e-06)
(-1.21529e-06 2.00917e-06 0.000710031)
(2.12423e-06 -2.29395e-06 -0.000709835)
(0.000625297 -1.89171e-06 -9.01998e-08)
(-1.39473e-06 0.0007111 -3.36757e-08)
(6.91053e-08 9.09661e-09 0.000710367)
(-7.06961e-08 -9.32353e-09 -0.00071027)
(0.00062558 -3.64508e-06 -1.74693e-07)
(-1.33206e-06 0.000710525 -1.00679e-07)
(6.79954e-08 2.70689e-08 0.000710188)
(-6.95784e-08 -2.77439e-08 -0.000710083)
(0.000625854 -5.24307e-06 -2.51872e-07)
(-1.29417e-06 0.000709875 -1.68614e-07)
(7.12652e-08 4.5157e-08 0.000709928)
(-7.28452e-08 -4.62698e-08 -0.000709815)
(0.00062613 -6.72603e-06 -3.24338e-07)
(-1.31864e-06 0.000709387 -2.41804e-07)
(8.07214e-08 6.47031e-08 0.000709807)
(-8.23157e-08 -6.62721e-08 -0.000709684)
(0.00062642 -8.12524e-06 -3.96172e-07)
(-1.39857e-06 0.000709039 -3.25856e-07)
(9.56471e-08 8.72304e-08 0.000709822)
(-9.72549e-08 -8.93079e-08 -0.000709682)
(0.000626731 -9.46969e-06 -4.67422e-07)
(-1.53017e-06 0.000708807 -4.26586e-07)
(1.15725e-07 1.14336e-07 0.000709958)
(-1.17194e-07 -1.1695e-07 -0.000709799)
(0.000627071 -1.07904e-05 -5.36416e-07)
(-1.71275e-06 0.000708671 -5.50296e-07)
(1.40692e-07 1.47819e-07 0.000710206)
(-1.41684e-07 -1.50955e-07 -0.000710024)
(0.000627448 -1.21161e-05 -6.01625e-07)
(-1.94698e-06 0.000708609 -7.0465e-07)
(1.69584e-07 1.89978e-07 0.000710552)
(-1.69583e-07 -1.93593e-07 -0.000710344)
(0.000627866 -1.34732e-05 -6.56599e-07)
(-2.23329e-06 0.000708587 -8.99234e-07)
(2.00102e-07 2.44541e-07 0.000710969)
(-1.983e-07 -2.48461e-07 -0.000710736)
(0.000628328 -1.48838e-05 -6.91777e-07)
(-2.57053e-06 0.000708557 -1.14664e-06)
(2.27228e-07 3.17862e-07 0.000711419)
(-2.22464e-07 -3.21593e-07 -0.000711161)
(0.000628831 -1.63735e-05 -6.92573e-07)
(-2.95064e-06 0.000708451 -1.46465e-06)
(2.42073e-07 4.20607e-07 0.00071183)
(-2.32734e-07 -4.23065e-07 -0.000711551)
(0.000629359 -1.79581e-05 -6.37513e-07)
(-3.34565e-06 0.000708158 -1.87983e-06)
(2.30964e-07 5.71331e-07 0.00071209)
(-2.1514e-07 -5.70409e-07 -0.000711801)
(0.00062987 -1.96244e-05 -5.00958e-07)
(-3.68496e-06 0.000707527 -2.43452e-06)
(1.74001e-07 7.98664e-07 0.00071203)
(-1.49371e-07 -7.90825e-07 -0.000711743)
(0.000630283 -2.12699e-05 -2.72576e-07)
(-3.79994e-06 0.000706391 -3.20063e-06)
(5.63938e-08 1.13472e-06 0.000711481)
(-1.84411e-08 -1.11551e-06 -0.000711193)
(0.000630457 -2.264e-05 -2.76057e-08)
(-3.16464e-06 0.000704812 -4.30957e-06)
(-9.0115e-08 1.57241e-06 0.000710555)
(1.64968e-07 -1.54595e-06 -0.000710157)
(-7.05625e-06 0.000703618 -3.13442e-06)
(-2.90848e-07 2.29833e-06 0.000708514)
(5.63728e-07 -2.70325e-06 -0.000709475)
(0.000625242 -1.76876e-06 -1.13218e-07)
(-1.63524e-06 0.000712868 -3.9409e-08)
(8.41931e-08 7.8445e-09 0.000712177)
(-8.61674e-08 -8.04901e-09 -0.000712058)
(0.000625472 -3.40483e-06 -2.19614e-07)
(-1.56005e-06 0.000712162 -1.17742e-07)
(8.27386e-08 2.33509e-08 0.000711799)
(-8.46975e-08 -2.39612e-08 -0.000711676)
(0.000625693 -4.89319e-06 -3.17224e-07)
(-1.51293e-06 0.000711364 -1.97009e-07)
(8.65803e-08 3.89221e-08 0.000711324)
(-8.85472e-08 -3.99526e-08 -0.000711198)
(0.000625913 -6.26749e-06 -4.1045e-07)
(-1.53689e-06 0.000710763 -2.82246e-07)
(9.78962e-08 5.56365e-08 0.000711026)
(-9.99238e-08 -5.71347e-08 -0.000710892)
(0.00062614 -7.55761e-06 -5.03141e-07)
(-1.62311e-06 0.000710331 -3.7972e-07)
(1.15925e-07 7.47796e-08 0.000710887)
(-1.18011e-07 -7.67994e-08 -0.00071074)
(0.000626379 -8.79689e-06 -5.95325e-07)
(-1.76674e-06 0.000710048 -4.95771e-07)
(1.40498e-07 9.76846e-08 0.000710891)
(-1.4247e-07 -1.00284e-07 -0.000710729)
(0.000626633 -1.00165e-05 -6.87158e-07)
(-1.96535e-06 0.000709894 -6.37346e-07)
(1.71594e-07 1.25923e-07 0.000711023)
(-1.731e-07 -1.29173e-07 -0.000710844)
(0.000626904 -1.12463e-05 -7.78014e-07)
(-2.21738e-06 0.000709843 -8.12743e-07)
(2.09149e-07 1.61871e-07 0.000711265)
(-2.09636e-07 -1.65826e-07 -0.000711066)
(0.00062719 -1.25219e-05 -8.6212e-07)
(-2.52103e-06 0.000709867 -1.03206e-06)
(2.52764e-07 2.0967e-07 0.000711582)
(-2.51252e-07 -2.14304e-07 -0.000711365)
(0.000627487 -1.38844e-05 -9.3021e-07)
(-2.87303e-06 0.000709925 -1.30848e-06)
(3.00577e-07 2.76622e-07 0.000711929)
(-2.95582e-07 -2.81703e-07 -0.000711699)
(0.000627791 -1.53902e-05 -9.67814e-07)
(-3.26496e-06 0.000709961 -1.66104e-06)
(3.48895e-07 3.75256e-07 0.000712239)
(-3.38129e-07 -3.80072e-07 -0.000712005)
(0.000628092 -1.71124e-05 -9.48188e-07)
(-3.66655e-06 0.000709883 -2.11807e-06)
(3.93411e-07 5.26663e-07 0.000712404)
(-3.73629e-07 -5.29352e-07 -0.000712185)
(0.000628371 -1.91063e-05 -8.29943e-07)
(-3.99696e-06 0.000709518 -2.72379e-06)
(4.22878e-07 7.62147e-07 0.000712247)
(-3.9025e-07 -7.59226e-07 -0.000712076)
(0.000628592 -2.13184e-05 -5.64777e-07)
(-4.0708e-06 0.00070859 -3.55301e-06)
(4.15734e-07 1.11097e-06 0.000711529)
(-3.6516e-07 -1.09783e-06 -0.000711441)
(0.00062867 -2.33747e-05 -1.12497e-07)
(-3.3207e-06 0.000706848 -4.74966e-06)
(3.30202e-07 1.55011e-06 0.000710133)
(-2.51976e-07 -1.52928e-06 -0.000710146)
(-7.19651e-06 0.000706788 -3.32708e-06)
(5.00993e-07 2.16713e-06 0.000708157)
(-8.83746e-07 -2.44539e-06 -0.000710494)
(0.000625179 -1.61368e-06 -1.34521e-07)
(-1.81209e-06 0.000714482 -4.35817e-08)
(9.7226e-08 6.77622e-09 0.000713842)
(-9.955e-08 -6.96522e-09 -0.000713703)
(0.000625348 -3.10309e-06 -2.60706e-07)
(-1.72676e-06 0.000713652 -1.30104e-07)
(9.54341e-08 2.01188e-08 0.000713263)
(-9.77428e-08 -2.06887e-08 -0.000713124)
(0.000625509 -4.45132e-06 -3.77312e-07)
(-1.67101e-06 0.000712713 -2.17433e-07)
(9.96512e-08 3.33653e-08 0.000712572)
(-1.01995e-07 -3.43321e-08 -0.000712435)
(0.000625666 -5.68988e-06 -4.89203e-07)
(-1.69187e-06 0.000712002 -3.10992e-07)
(1.12391e-07 4.73536e-08 0.000712089)
(-1.14839e-07 -4.87501e-08 -0.000711949)
(0.000625824 -6.84891e-06 -5.99262e-07)
(-1.77875e-06 0.000711492 -4.17344e-07)
(1.32862e-07 6.30814e-08 0.000711791)
(-1.35427e-07 -6.49706e-08 -0.000711644)
(0.000625985 -7.95391e-06 -7.10135e-07)
(-1.92453e-06 0.000711156 -5.43123e-07)
(1.61003e-07 8.15879e-08 0.000711657)
(-1.63528e-07 -8.40676e-08 -0.000711499)
(0.000626146 -9.02746e-06 -8.24202e-07)
(-2.12442e-06 0.00071097 -6.95487e-07)
(1.97111e-07 1.04155e-07 0.000711665)
(-1.99245e-07 -1.07339e-07 -0.000711493)
(0.000626304 -1.00966e-05 -9.41219e-07)
(-2.37442e-06 0.000710916 -8.82638e-07)
(2.42089e-07 1.32706e-07 0.00071179)
(-2.43287e-07 -1.36746e-07 -0.000711603)
(0.000626452 -1.11977e-05 -1.05799e-06)
(-2.66998e-06 0.000710973 -1.11443e-06)
(2.97355e-07 1.70528e-07 0.000712001)
(-2.96565e-07 -1.75613e-07 -0.000711802)
(0.00062658 -1.23852e-05 -1.16743e-06)
(-3.00568e-06 0.000711119 -1.40376e-06)
(3.64198e-07 2.23361e-07 0.000712258)
(-3.59707e-07 -2.29586e-07 -0.000712053)
(0.00062668 -1.37404e-05 -1.25826e-06)
(-3.37549e-06 0.000711324 -1.76984e-06)
(4.43855e-07 3.00808e-07 0.000712509)
(-4.32849e-07 -3.07974e-07 -0.000712309)
(0.000626749 -1.53766e-05 -1.30518e-06)
(-3.75767e-06 0.000711527 -2.24283e-06)
(5.40475e-07 4.18764e-07 0.000712673)
(-5.18432e-07 -4.25942e-07 -0.000712501)
(0.000626804 -1.74251e-05 -1.2628e-06)
(-4.09049e-06 0.000711571 -2.8729e-06)
(6.52497e-07 6.03162e-07 0.000712599)
(-6.13792e-07 -6.07828e-07 -0.000712492)
(0.000626881 -1.99655e-05 -1.05095e-06)
(-4.2103e-06 0.000711128 -3.7475e-06)
(7.50013e-07 8.83555e-07 0.00071202)
(-6.87596e-07 -8.80549e-07 -0.000712038)
(0.00062698 -2.26594e-05 -4.60883e-07)
(-3.50409e-06 0.00070953 -5.02232e-06)
(7.18274e-07 1.25301e-06 0.000710468)
(-6.33719e-07 -1.24098e-06 -0.000710786)
(-7.40204e-06 0.000711289 -3.41192e-06)
(1.17758e-06 1.7943e-06 0.000709189)
(-2.04759e-06 -1.98465e-06 -0.00071296)
(0.00062511 -1.43233e-06 -1.53197e-07)
(-1.91961e-06 0.000715915 -4.60169e-08)
(1.08458e-07 5.81568e-09 0.000715334)
(-1.111e-07 -5.9843e-09 -0.000715179)
(0.000625213 -2.75079e-06 -2.96492e-07)
(-1.82731e-06 0.000714971 -1.37268e-07)
(1.06255e-07 1.71838e-08 0.000714556)
(-1.08884e-07 -1.76888e-08 -0.000714406)
(0.00062531 -3.93831e-06 -4.29451e-07)
(-1.76461e-06 0.000713901 -2.2915e-07)
(1.10594e-07 2.82526e-08 0.000713654)
(-1.13282e-07 -2.91064e-08 -0.000713509)
(0.000625401 -5.02186e-06 -5.56088e-07)
(-1.78081e-06 0.000713087 -3.27168e-07)
(1.24274e-07 3.96381e-08 0.000712988)
(-1.27104e-07 -4.08782e-08 -0.000712845)
(0.000625489 -6.02206e-06 -6.79904e-07)
(-1.86322e-06 0.000712494 -4.37851e-07)
(1.46431e-07 5.20606e-08 0.000712528)
(-1.49455e-07 -5.37549e-08 -0.000712384)
(0.00062557 -6.9538e-06 -8.07004e-07)
(-2.00224e-06 0.00071209 -5.67872e-07)
(1.77086e-07 6.62144e-08 0.000712246)
(-1.80165e-07 -6.84666e-08 -0.000712094)
(0.000625639 -7.83277e-06 -9.40525e-07)
(-2.19047e-06 0.000711852 -7.24078e-07)
(2.16767e-07 8.29054e-08 0.000712112)
(-2.19577e-07 -8.58608e-08 -0.00071195)
(0.000625687 -8.67858e-06 -1.08104e-06)
(-2.42118e-06 0.000711766 -9.13894e-07)
(2.66968e-07 1.03209e-07 0.000712102)
(-2.69023e-07 -1.0708e-07 -0.00071193)
(0.000625704 -9.51821e-06 -1.22808e-06)
(-2.68642e-06 0.000711818 -1.14616e-06)
(3.30233e-07 1.28733e-07 0.000712187)
(-3.30503e-07 -1.33817e-07 -0.000712008)
(0.000625672 -1.03932e-05 -1.37786e-06)
(-2.97713e-06 0.000712 -1.43222e-06)
(4.09742e-07 1.62e-07 0.000712337)
(-4.06419e-07 -1.68645e-07 -0.000712159)
(0.000625574 -1.1375e-05 -1.52495e-06)
(-3.28672e-06 0.000712314 -1.78939e-06)
(5.09531e-07 2.06853e-07 0.000712521)
(-4.9965e-07 -2.15504e-07 -0.000712354)
(0.000625398 -1.25686e-05 -1.65515e-06)
(-3.60402e-06 0.000712732 -2.24717e-06)
(6.38431e-07 2.68906e-07 0.000712682)
(-6.16958e-07 -2.80172e-07 -0.000712547)
(0.000625175 -1.41453e-05 -1.73879e-06)
(-3.90692e-06 0.000713162 -2.86111e-06)
(8.03351e-07 3.58182e-07 0.000712715)
(-7.63029e-07 -3.72162e-07 -0.000712643)
(0.000625022 -1.63662e-05 -1.69837e-06)
(-4.1271e-06 0.000713363 -3.74404e-06)
(9.77483e-07 4.94582e-07 0.00071243)
(-9.07803e-07 -5.08892e-07 -0.000712474)
(0.000625166 -1.92843e-05 -1.17247e-06)
(-3.74196e-06 0.000712458 -5.10243e-06)
(1.01738e-06 7.10611e-07 0.000711155)
(-9.24317e-07 -7.20461e-07 -0.000711601)
(-8.46266e-06 0.000719263 -3.38943e-06)
(1.86795e-06 1.22666e-06 0.000712859)
(-3.10626e-06 -1.3738e-06 -0.00071826)
(0.000625038 -1.22842e-06 -1.6844e-07)
(1.18062e-07 4.94805e-09 0.00071663)
(-1.20986e-07 -5.09693e-09 -0.000716461)
(-1.95481e-06 0.000717143 -4.67044e-08)
(0.000625073 -2.35967e-06 -3.2548e-07)
(1.15368e-07 1.45455e-08 0.000715664)
(-1.18272e-07 -1.4984e-08 -0.000715505)
(-1.85966e-06 0.000716102 -1.39201e-07)
(0.000625105 -3.37449e-06 -4.71034e-07)
(1.19555e-07 2.36527e-08 0.00071456)
(-1.22539e-07 -2.43841e-08 -0.000714412)
(-1.79293e-06 0.000714917 -2.3207e-07)
(0.000625131 -4.28705e-06 -6.08797e-07)
(1.33689e-07 3.26571e-08 0.000713714)
(-1.36862e-07 -3.37213e-08 -0.000713573)
(-1.80377e-06 0.000714001 -3.30763e-07)
(0.000625149 -5.10623e-06 -7.44147e-07)
(1.56763e-07 4.20064e-08 0.000713088)
(-1.60196e-07 -4.34623e-08 -0.000712949)
(-1.87792e-06 0.000713315 -4.41638e-07)
(0.000625154 -5.84016e-06 -8.8409e-07)
(1.8876e-07 5.19749e-08 0.000712645)
(-1.9235e-07 -5.3911e-08 -0.000712502)
(-2.00384e-06 0.000712826 -5.70926e-07)
(0.000625139 -6.4971e-06 -1.03175e-06)
(2.30293e-07 6.27774e-08 0.000712354)
(-2.33767e-07 -6.53474e-08 -0.000712205)
(-2.17154e-06 0.000712512 -7.24682e-07)
(0.000625091 -7.08409e-06 -1.18928e-06)
(2.8297e-07 7.4567e-08 0.000712187)
(-2.85884e-07 -7.79713e-08 -0.000712034)
(-2.37064e-06 0.000712356 -9.09161e-07)
(0.000624995 -7.60972e-06 -1.3573e-06)
(3.49469e-07 8.72094e-08 0.000712117)
(-3.50867e-07 -9.17137e-08 -0.000711964)
(-2.58867e-06 0.000712348 -1.13141e-06)
(0.000624826 -8.08621e-06 -1.53551e-06)
(4.33197e-07 1.00017e-07 0.000712116)
(-4.31391e-07 -1.0609e-07 -0.00071197)
(-2.81051e-06 0.000712483 -1.39992e-06)
(0.000624551 -8.52995e-06 -1.72439e-06)
(5.38336e-07 1.1131e-07 0.000712157)
(-5.30638e-07 -1.19834e-07 -0.00071203)
(-3.0188e-06 0.000712766 -1.72677e-06)
(0.000624118 -8.96226e-06 -1.92152e-06)
(6.72337e-07 1.15948e-07 0.000712167)
(-6.5424e-07 -1.2869e-07 -0.000712086)
(-3.18895e-06 0.000713177 -2.13126e-06)
(0.000623452 -9.43583e-06 -2.12016e-06)
(8.40811e-07 1.01057e-07 0.000712001)
(-8.05422e-07 -1.21536e-07 -0.000712016)
(-3.27635e-06 0.000713656 -2.64754e-06)
(0.00062243 -1.0089e-05 -2.2846e-06)
(1.01901e-06 4.54302e-08 0.000711331)
(-9.56295e-07 -8.10258e-08 -0.000711571)
(-3.16873e-06 0.000714052 -3.34001e-06)
(0.000620917 -1.14649e-05 -2.12086e-06)
(1.08637e-06 -5.16006e-08 0.000709168)
(-1.00091e-06 -7.78344e-09 -0.000710131)
(-2.31354e-06 0.000713893 -4.30317e-06)
(2.68029e-06 3.47893e-07 0.000720807)
(-4.17837e-06 -4.93906e-07 -0.000728257)
(-1.318e-05 0.000735357 -2.81277e-06)
(0.000625404 -2.08826e-06 -1.0857e-08)
(-4.03066e-07 0.000705214 -8.51563e-09)
(1.02504e-08 1.15317e-08 0.000704406)
(0.000625791 -4.02476e-06 -2.09955e-08)
(-3.86358e-07 0.000705064 -2.54639e-08)
(1.01858e-08 3.45199e-08 0.000704782)
(0.000626169 -5.79044e-06 -2.99938e-08)
(-3.77937e-07 0.000704894 -4.26159e-08)
(1.07773e-08 5.80922e-08 0.000705134)
(0.000626558 -7.42618e-06 -3.78491e-08)
(-3.88476e-07 0.000704766 -6.09816e-08)
(1.22908e-08 8.40177e-08 0.000705509)
(0.000626976 -8.96566e-06 -4.49235e-08)
(-4.16582e-07 0.000704671 -8.18421e-08)
(1.46596e-08 1.14289e-07 0.000705923)
(0.000627439 -1.04395e-05 -5.10512e-08)
(-4.62239e-07 0.000704607 -1.06448e-07)
(1.77551e-08 1.50682e-07 0.000706396)
(0.000627965 -1.18697e-05 -5.56272e-08)
(-5.25671e-07 0.000704566 -1.36136e-07)
(2.13464e-08 1.94569e-07 0.000706943)
(0.000628574 -1.32656e-05 -5.79573e-08)
(-6.08055e-07 0.000704533 -1.7233e-07)
(2.50106e-08 2.46597e-07 0.00070758)
(0.000629287 -1.46239e-05 -5.69533e-08)
(-7.11758e-07 0.000704497 -2.16338e-07)
(2.78239e-08 3.05919e-07 0.000708323)
(0.000630125 -1.59146e-05 -5.08291e-08)
(-8.38855e-07 0.00070443 -2.6935e-07)
(2.79627e-08 3.68649e-07 0.000709183)
(0.000631118 -1.70823e-05 -3.83044e-08)
(-9.94666e-07 0.000704304 -3.32208e-07)
(2.17989e-08 4.24883e-07 0.000710179)
(0.000632296 -1.80365e-05 -1.94381e-08)
(-1.18611e-06 0.00070408 -4.03544e-07)
(3.32653e-09 4.54097e-07 0.000711328)
(0.000633693 -1.86577e-05 3.7984e-10)
(-1.41838e-06 0.000703715 -4.74014e-07)
(-3.66969e-08 4.18998e-07 0.000712656)
(0.000635312 -1.88642e-05 4.95526e-09)
(-1.67368e-06 0.000703216 -5.11351e-07)
(-1.05136e-07 2.64523e-07 0.000714208)
(0.000636944 -1.87627e-05 -2.42829e-08)
(-1.75172e-06 0.000702717 -4.49915e-07)
(-1.79006e-07 -4.72456e-08 0.000715966)
(-4.97375e-06 0.000702103 -1.89994e-07)
(-6.76318e-07 -9.77593e-07 0.000719892)
(0.000625388 -2.06151e-06 -3.27362e-08)
(-7.89622e-07 0.000707276 -1.67096e-08)
(3.01767e-08 1.08837e-08 0.000706482)
(0.00062576 -3.97543e-06 -6.33972e-08)
(-7.56458e-07 0.00070698 -4.99011e-08)
(2.98861e-08 3.2463e-08 0.000706689)
(0.000626124 -5.72149e-06 -9.07944e-08)
(-7.39169e-07 0.000706644 -8.3386e-08)
(3.15305e-08 5.43577e-08 0.000706852)
(0.000626496 -7.33955e-06 -1.15058e-07)
(-7.58791e-07 0.000706389 -1.19167e-07)
(3.5911e-08 7.82574e-08 0.000707076)
(0.000626895 -8.86739e-06 -1.36993e-07)
(-8.1288e-07 0.000706206 -1.59754e-07)
(4.27954e-08 1.06046e-07 0.000707374)
(0.000627336 -1.03352e-05 -1.56222e-07)
(-9.00504e-07 0.000706084 -2.07708e-07)
(5.18322e-08 1.39395e-07 0.000707756)
(0.000627835 -1.17629e-05 -1.71067e-07)
(-1.02203e-06 0.000706004 -2.65578e-07)
(6.25672e-08 1.79879e-07 0.000708228)
(0.000628409 -1.31629e-05 -1.79361e-07)
(-1.17987e-06 0.000705946 -3.35884e-07)
(7.40037e-08 2.28927e-07 0.000708792)
(0.000629076 -1.45363e-05 -1.77378e-07)
(-1.37669e-06 0.000705885 -4.21241e-07)
(8.37361e-08 2.87211e-07 0.000709449)
(0.000629852 -1.58696e-05 -1.59697e-07)
(-1.61554e-06 0.000705779 -5.23924e-07)
(8.69623e-08 3.53555e-07 0.000710184)
(0.000630753 -1.71221e-05 -1.22858e-07)
(-1.90064e-06 0.000705572 -6.44709e-07)
(7.45943e-08 4.23593e-07 0.00071098)
(0.000631781 -1.8217e-05 -6.42319e-08)
(-2.23243e-06 0.000705186 -7.79226e-07)
(3.2167e-08 4.884e-07 0.000711796)
(0.000632911 -1.90358e-05 5.73268e-09)
(-2.59725e-06 0.000704536 -9.07573e-07)
(-6.09647e-08 5.34216e-07 0.000712587)
(0.000634028 -1.94443e-05 4.83004e-08)
(-2.9104e-06 0.000703612 -9.68415e-07)
(-2.16414e-07 5.47109e-07 0.000713336)
(0.000634814 -1.94089e-05 1.75949e-08)
(-2.78349e-06 0.000702654 -8.49175e-07)
(-3.72286e-07 5.30767e-07 0.000714087)
(-4.38182e-06 0.000699999 -1.95133e-07)
(-1.08948e-06 8.27986e-07 0.000713458)
(0.000625357 -2.00414e-06 -5.47508e-08)
(-1.14383e-06 0.000709281 -2.42063e-08)
(4.8601e-08 9.83612e-09 0.000708507)
(0.000625699 -3.86475e-06 -1.05828e-07)
(-1.09491e-06 0.000708842 -7.22507e-08)
(4.79377e-08 2.92617e-08 0.000708531)
(0.000626031 -5.56096e-06 -1.51773e-07)
(-1.06829e-06 0.000708343 -1.207e-07)
(5.04094e-08 4.88295e-08 0.00070849)
(0.000626371 -7.1357e-06 -1.93238e-07)
(-1.09496e-06 0.000707968 -1.72472e-07)
(5.73259e-08 7.00868e-08 0.00070855)
(0.000626732 -8.62875e-06 -2.31351e-07)
(-1.17083e-06 0.000707705 -2.31137e-07)
(6.82167e-08 9.46982e-08 0.000708719)
(0.000627129 -1.00657e-05 -2.65475e-07)
(-1.29312e-06 0.000707528 -3.00293e-07)
(8.27153e-08 1.24263e-07 0.000708994)
(0.000627574 -1.14682e-05 -2.92929e-07)
(-1.46218e-06 0.000707416 -3.83391e-07)
(1.00482e-07 1.60593e-07 0.000709368)
(0.000628079 -1.28575e-05 -3.09984e-07)
(-1.68066e-06 0.000707347 -4.83834e-07)
(1.2042e-07 2.05694e-07 0.000709834)
(0.000628657 -1.42438e-05 -3.10155e-07)
(-1.95075e-06 0.000707286 -6.05108e-07)
(1.39737e-07 2.61859e-07 0.000710377)
(0.000629317 -1.5635e-05 -2.85032e-07)
(-2.27495e-06 0.000707187 -7.50054e-07)
(1.52562e-07 3.31762e-07 0.000710966)
(0.000630063 -1.70171e-05 -2.26941e-07)
(-2.65076e-06 0.000706974 -9.18705e-07)
(1.48557e-07 4.1897e-07 0.000711548)
(0.000630874 -1.8348e-05 -1.26236e-07)
(-3.06196e-06 0.000706542 -1.10271e-06)
(1.11648e-07 5.28854e-07 0.000712028)
(0.000631693 -1.95392e-05 1.34173e-08)
(-3.46147e-06 0.000705767 -1.27143e-06)
(2.09112e-08 6.7e-07 0.000712284)
(0.000632375 -2.04367e-05 1.53817e-07)
(-3.69733e-06 0.000704589 -1.33905e-06)
(-1.31197e-07 8.54757e-07 0.000712226)
(0.000632684 -2.08908e-05 2.35006e-07)
(-3.28817e-06 0.000703283 -1.16204e-06)
(-2.75926e-07 1.0848e-06 0.00071198)
(-4.78386e-06 0.000700859 -3.16941e-07)
(-5.87276e-07 1.47987e-06 0.000710373)
(0.000625312 -1.91383e-06 -7.59171e-08)
(-1.45149e-06 0.000711195 -3.06922e-08)
(6.4957e-08 8.54565e-09 0.00071045)
(0.000625609 -3.68835e-06 -1.4664e-07)
(-1.38824e-06 0.000710618 -9.16429e-08)
(6.39037e-08 2.54277e-08 0.000710279)
(0.000625898 -5.30572e-06 -2.10546e-07)
(-1.35239e-06 0.000709963 -1.5311e-07)
(6.70601e-08 4.24311e-08 0.000710024)
(0.00062619 -6.80808e-06 -2.69353e-07)
(-1.38323e-06 0.000709474 -2.18703e-07)
(7.61434e-08 6.08365e-08 0.000709912)
(0.000626499 -8.22753e-06 -3.24791e-07)
(-1.47408e-06 0.000709129 -2.9289e-07)
(9.05033e-08 8.20777e-08 0.000709939)
(0.000626832 -9.59184e-06 -3.75384e-07)
(-1.62095e-06 0.000708899 -3.79937e-07)
(1.09961e-07 1.07666e-07 0.000710089)
(0.0006272 -1.09322e-05 -4.17617e-07)
(-1.82355e-06 0.000708765 -4.83875e-07)
(1.34392e-07 1.39354e-07 0.000710348)
(0.000627609 -1.22777e-05 -4.46502e-07)
(-2.08336e-06 0.000708703 -6.08732e-07)
(1.63071e-07 1.79393e-07 0.000710706)
(0.000628066 -1.36536e-05 -4.53649e-07)
(-2.40157e-06 0.000708675 -7.58368e-07)
(1.94113e-07 2.31246e-07 0.00071113)
(0.000628573 -1.50807e-05 -4.28208e-07)
(-2.77808e-06 0.000708631 -9.35698e-07)
(2.22996e-07 3.00692e-07 0.000711579)
(0.000629128 -1.658e-05 -3.5552e-07)
(-3.20519e-06 0.000708497 -1.13995e-06)
(2.4201e-07 3.97316e-07 0.000711979)
(0.000629711 -1.81598e-05 -2.17269e-07)
(-3.65277e-06 0.000708157 -1.35934e-06)
(2.38916e-07 5.3647e-07 0.000712209)
(0.00063027 -1.97856e-05 1.72733e-09)
(-4.04204e-06 0.000707453 -1.55402e-06)
(1.95719e-07 7.38091e-07 0.000712094)
(0.00063071 -2.13211e-05 2.85934e-07)
(-4.18222e-06 0.000706243 -1.61935e-06)
(1.00506e-07 1.01576e-06 0.000711477)
(0.000630919 -2.24764e-05 5.64105e-07)
(-3.57005e-06 0.00070467 -1.39136e-06)
(-1.72746e-08 1.34072e-06 0.000710506)
(-4.75451e-06 0.000702606 -4.3461e-07)
(-1.29727e-07 1.74988e-06 0.000708434)
(0.000625255 -1.78924e-06 -9.5445e-08)
(-1.70157e-06 0.000712985 -3.59422e-08)
(7.9125e-08 7.36222e-09 0.000712278)
(0.000625498 -3.44504e-06 -1.84993e-07)
(-1.62567e-06 0.000712276 -1.07329e-07)
(7.77356e-08 2.19028e-08 0.000711904)
(0.000625731 -4.95217e-06 -2.66372e-07)
(-1.58081e-06 0.000711473 -1.79246e-07)
(8.14408e-08 3.64884e-08 0.000711432)
(0.000625966 -6.34546e-06 -3.42469e-07)
(-1.61205e-06 0.000710871 -2.55801e-07)
(9.22892e-08 5.21444e-08 0.000711139)
(0.000626208 -7.65377e-06 -4.1502e-07)
(-1.71047e-06 0.000710442 -3.42035e-07)
(1.09586e-07 7.0085e-08 0.000711009)
(0.000626466 -8.91073e-06 -4.81623e-07)
(-1.87104e-06 0.000710163 -4.42585e-07)
(1.33305e-07 9.15668e-08 0.00071102)
(0.000626742 -1.01496e-05 -5.39246e-07)
(-2.09182e-06 0.000710012 -5.61848e-07)
(1.63603e-07 1.18095e-07 0.000711159)
(0.000627039 -1.14009e-05 -5.82697e-07)
(-2.37187e-06 0.000709964 -7.04124e-07)
(2.00552e-07 1.51908e-07 0.000711404)
(0.000627356 -1.27008e-05 -6.02515e-07)
(-2.71e-06 0.000709988 -8.73329e-07)
(2.43919e-07 1.96808e-07 0.000711717)
(0.000627691 -1.40897e-05 -5.85193e-07)
(-3.10405e-06 0.000710037 -1.07227e-06)
(2.92042e-07 2.5946e-07 0.000712048)
(0.000628039 -1.56231e-05 -5.10389e-07)
(-3.54614e-06 0.000710054 -1.29977e-06)
(3.41584e-07 3.50962e-07 0.000712324)
(0.000628395 -1.73652e-05 -3.48072e-07)
(-4.00258e-06 0.000709937 -1.54201e-06)
(3.87049e-07 4.89226e-07 0.000712424)
(0.000628745 -1.9351e-05 -5.66118e-08)
(-4.38201e-06 0.000709503 -1.753e-06)
(4.12878e-07 6.98005e-07 0.000712154)
(0.000629063 -2.14883e-05 3.84682e-07)
(-4.47502e-06 0.0007085 -1.81576e-06)
(3.90598e-07 9.91176e-07 0.000711284)
(0.000629289 -2.33296e-05 9.00771e-07)
(-3.7476e-06 0.000706731 -1.55252e-06)
(2.82204e-07 1.32984e-06 0.000709779)
(-4.59114e-06 0.000705091 -5.36226e-07)
(2.80374e-07 1.70751e-06 0.000707624)
(0.00062519 -1.63258e-06 -1.13494e-07)
(-1.88535e-06 0.000714618 -3.97734e-08)