/*--------------------------------*- C++ -*----------------------------------*\
| =========                 |                                                 |
| \\      /  F ield         | foam-extend: Open Source CFD                    |
|  \\    /   O peration     | Version:     3.1                                |
|   \\  /    A nd           | Web:         http://www.extend-project.de       |
|    \\/     M anipulation  |                                                 |
\*---------------------------------------------------------------------------*/
FoamFile
{
    version     2.0;
    format      ascii;
    class       volVectorField;
    location    "2.1";
    object      U;
}
// * * * * * * * * * * * * * * * * * * * * * * * * * * * * * * * * * * * * * //

dimensions      [0 1 -1 0 0 0 0];

internalField   nonuniform List<vector> 
14592
(
(0.0189381 2.00901e-05 -0.00153766)
(0.0186996 0.000250505 -0.00329763)
(0.0182794 0.000345222 -0.00478334)
(0.0179401 0.000314912 -0.00611123)
(0.0178962 0.000224253 -0.00724105)
(0.0181791 0.000122023 -0.00817033)
(0.0186887 4.37835e-05 -0.00896248)
(0.019269 7.94084e-07 -0.00973651)
(0.0197719 -1.97532e-05 -0.0106538)
(0.0201024 -5.00117e-05 -0.0119112)
(0.0202453 -0.000131122 -0.0137487)
(0.0202592 -0.00033236 -0.0164779)
(0.0202579 -0.000720032 -0.0205139)
(0.0201611 -0.00124764 -0.0262293)
(0.0186822 -0.00129974 -0.0325466)
(0.0123981 0.00040473 -0.0293091)
(0.0529218 0.000160337 -0.00180642)
(0.0525566 0.000496885 -0.00527751)
(0.0519879 0.000459647 -0.0089394)
(0.0515147 0.00010113 -0.012541)
(0.0514523 -0.000349648 -0.0157223)
(0.0518816 -0.000680218 -0.0182835)
(0.0526583 -0.000774169 -0.0202537)
(0.0535053 -0.000623249 -0.0218556)
(0.0541166 -0.000301997 -0.0234516)
(0.054248 7.1738e-05 -0.0255016)
(0.0537399 0.00035968 -0.0285474)
(0.0524833 0.000401999 -0.0332428)
(0.0503591 2.51997e-05 -0.040433)
(0.046825 -0.000836582 -0.0508762)
(0.0391712 -0.00155184 -0.0618548)
(0.0214672 4.82937e-05 -0.0508474)
(0.082253 0.000301229 -0.00134838)
(0.0820285 0.000741873 -0.00461384)
(0.0814767 0.000595089 -0.0088022)
(0.0807004 -9.28873e-05 -0.0135793)
(0.0800185 -0.000972322 -0.0182915)
(0.0796603 -0.00163705 -0.022388)
(0.079646 -0.0018215 -0.0256189)
(0.079791 -0.00146302 -0.028072)
(0.0797815 -0.000670112 -0.0301218)
(0.0792766 0.000361142 -0.0323527)
(0.0779589 0.00139691 -0.035486)
(0.0755042 0.00221357 -0.0403998)
(0.0715259 0.00257712 -0.048232)
(0.0651667 0.00226882 -0.0603143)
(0.052821 0.0012178 -0.0738584)
(0.0264961 0.000891564 -0.0600789)
(0.106681 0.000334086 -0.00101252)
(0.10661 0.000866738 -0.00348052)
(0.106147 0.000763541 -0.00711307)
(0.105089 -1.01165e-05 -0.01193)
(0.10359 -0.00110233 -0.0173301)
(0.101974 -0.00199997 -0.022528)
(0.100498 -0.00229026 -0.0269273)
(0.0992198 -0.00180206 -0.0303225)
(0.0979807 -0.000605422 -0.0329343)
(0.0964642 0.00108602 -0.0353408)
(0.0942747 0.00300174 -0.038353)
(0.0909256 0.00490486 -0.0429954)
(0.0858232 0.00656683 -0.0505974)
(0.0779123 0.00770953 -0.0630696)
(0.0629014 0.00714287 -0.0782911)
(0.0303659 0.00351102 -0.0643694)
(0.126188 0.000329857 -0.000854045)
(0.126199 0.000933315 -0.0026939)
(0.125856 0.00101244 -0.00554297)
(0.124705 0.000441878 -0.00982578)
(0.122634 -0.000515953 -0.0152298)
(0.11991 -0.00136777 -0.0209625)
(0.11694 -0.00163956 -0.0261894)
(0.11404 -0.0010618 -0.0303984)
(0.111304 0.000389841 -0.0335818)
(0.108564 0.00256333 -0.0362086)
(0.105462 0.00523046 -0.0391116)
(0.101433 0.00821489 -0.0433985)
(0.0957472 0.011355 -0.0504925)
(0.0872038 0.0145174 -0.0627643)
(0.0710584 0.0154631 -0.0789945)
(0.0339008 0.00814723 -0.0658458)
(0.1408 0.000335179 -0.000772693)
(0.140832 0.000995863 -0.00225791)
(0.140594 0.00130865 -0.00450313)
(0.139503 0.00112371 -0.00817876)
(0.137205 0.000595179 -0.0132693)
(0.133815 0.000104745 -0.0191125)
(0.129765 7.54066e-05 -0.0247784)
(0.125548 0.000810967 -0.0295272)
(0.121505 0.00242504 -0.0331251)
(0.117669 0.00487822 -0.0359071)
(0.113815 0.00805612 -0.0386593)
(0.109382 0.0119351 -0.0425123)
(0.103609 0.0164899 -0.0488877)
(0.0951501 0.0220324 -0.0604477)
(0.0791943 0.0257793 -0.0770999)
(0.0381703 0.0154875 -0.0651096)
(0.150535 0.000353844 -0.000716756)
(0.150563 0.00106597 -0.002009)
(0.150404 0.00160702 -0.00387726)
(0.14944 0.00187446 -0.0070874)
(0.147157 0.00194284 -0.0118228)
(0.143522 0.00204515 -0.0175587)
(0.138929 0.00247432 -0.0233581)
(0.133963 0.00348458 -0.0283542)
(0.129135 0.00523025 -0.0321413)
(0.124662 0.00779125 -0.034922)
(0.120505 0.0112091 -0.0374036)
(0.116152 0.0156938 -0.0406718)
(0.111016 0.021433 -0.0460458)
(0.103425 0.0296025 -0.0561927)
(0.0898511 0.0381691 -0.072594)
(0.0453858 0.0281483 -0.0617864)
(0.155401 0.000374655 -0.000670047)
(0.155433 0.001129 -0.00183991)
(0.15534 0.00187445 -0.0034955)
(0.154509 0.00259709 -0.00642318)
(0.152361 0.00331926 -0.0108913)
(0.148781 0.00411911 -0.0164537)
(0.14413 0.00512149 -0.0221883)
(0.139023 0.00647034 -0.0271734)
(0.134071 0.00831253 -0.0309118)
(0.129614 0.0108195 -0.0335063)
(0.125805 0.0141842 -0.0355718)
(0.122209 0.0188442 -0.038072)
(0.118857 0.0252346 -0.0421327)
(0.113172 0.0354452 -0.0498355)
(0.107627 0.0524924 -0.0648413)
(0.0617027 0.0486307 -0.054055)
(0.0202445 -1.09041e-05 -0.00152328)
(0.0199423 0.000207997 -0.0032319)
(0.0193958 0.000303765 -0.00466303)
(0.0188725 0.000276115 -0.00595921)
(0.0186009 0.000180676 -0.00708725)
(0.0186224 7.2458e-05 -0.00803769)
(0.018836 -1.20267e-05 -0.0088582)
(0.0190712 -5.99725e-05 -0.00965023)
(0.0191532 -8.38248e-05 -0.0105572)
(0.0189511 -0.00011689 -0.0117542)
(0.0183944 -0.000209355 -0.0134404)
(0.0174592 -0.000420871 -0.015842)
(0.0161175 -0.000811709 -0.0191573)
(0.0140395 -0.00132562 -0.0232267)
(0.0101782 -0.00165975 -0.0261282)
(0.00465893 -0.00133471 -0.0198341)
(0.0566175 0.000117238 -0.00173849)
(0.0561441 0.000409935 -0.0050211)
(0.0553513 0.000341736 -0.00846346)
(0.0545258 -6.09714e-05 -0.01189)
(0.0539975 -0.000567603 -0.0149861)
(0.0538656 -0.000947423 -0.0175483)
(0.0539882 -0.00106575 -0.01957)
(0.0540706 -0.000905899 -0.0212268)
(0.0537667 -0.000547725 -0.0228351)
(0.0527662 -0.000125952 -0.0248068)
(0.0508189 0.000201658 -0.0276167)
(0.0476823 0.000260292 -0.0317733)
(0.0430304 -0.000126886 -0.0377261)
(0.0359215 -0.00101307 -0.0450843)
(0.0242309 -0.00206449 -0.0494138)
(0.0096699 -0.00203996 -0.0348308)
(0.0880036 0.000259262 -0.00128514)
(0.0876875 0.000652515 -0.00430846)
(0.0869316 0.000462925 -0.00814475)
(0.0857968 -0.000307639 -0.0125802)
(0.0845802 -0.0013073 -0.0170645)
(0.0835098 -0.00209452 -0.021081)
(0.0826186 -0.00235482 -0.0243483)
(0.0817262 -0.0019936 -0.0268871)
(0.0804943 -0.0011186 -0.0289974)
(0.0785224 4.5677e-05 -0.0311918)
(0.0753869 0.00122958 -0.0341099)
(0.0705965 0.00216434 -0.0384724)
(0.0635215 0.00258317 -0.0449922)
(0.0527497 0.00221854 -0.0535111)
(0.0351053 0.000834394 -0.0587153)
(0.0133644 -0.000792339 -0.0412052)
(0.114137 0.000297829 -0.000975577)
(0.113988 0.00079768 -0.00324745)
(0.113374 0.000672388 -0.00649241)
(0.112041 -0.000173245 -0.0108433)
(0.110064 -0.00140827 -0.0158605)
(0.107714 -0.00247968 -0.0208578)
(0.105242 -0.00290224 -0.025241)
(0.10273 -0.00244066 -0.0287328)
(0.100032 -0.00114151 -0.0314538)
(0.0968071 0.000765808 -0.033881)
(0.092561 0.00296368 -0.0367282)
(0.0866256 0.00516087 -0.0408574)
(0.0781245 0.00708362 -0.0472032)
(0.0653179 0.00830856 -0.0560335)
(0.0438358 0.00748956 -0.0619716)
(0.0165421 0.00299165 -0.0439439)
(0.135007 0.000305477 -0.000831324)
(0.134935 0.000887473 -0.00255397)
(0.134471 0.000971341 -0.00505704)
(0.133137 0.000367878 -0.0088239)
(0.130711 -0.000700184 -0.0137245)
(0.127336 -0.001717 -0.0191308)
(0.123362 -0.00213593 -0.0242654)
(0.119118 -0.00160325 -0.0285596)
(0.114746 -4.38799e-05 -0.0318871)
(0.110102 0.00239898 -0.0345932)
(0.104762 0.00546903 -0.0373899)
(0.0979966 0.00894737 -0.0412135)
(0.0887638 0.0126546 -0.0471381)
(0.0751512 0.0162332 -0.0558653)
(0.0515482 0.0170782 -0.0623056)
(0.0197488 0.00920655 -0.0445397)
(0.150642 0.00032309 -0.000754194)
(0.150579 0.000973428 -0.00218329)
(0.150223 0.00130704 -0.00414937)
(0.149008 0.00112677 -0.00731337)
(0.146475 0.00054509 -0.0118311)
(0.142567 -5.15341e-05 -0.0172457)
(0.137593 -0.000184275 -0.0227421)
(0.132022 0.000527429 -0.0275503)
(0.126251 0.00226675 -0.031317)
(0.120381 0.00502658 -0.0342306)
(0.114177 0.00870034 -0.0369392)
(0.106952 0.0132591 -0.0403946)
(0.0976173 0.0187295 -0.0457143)
(0.0842525 0.0252119 -0.0539867)
(0.0600315 0.0291937 -0.0606771)
(0.0239729 0.018666 -0.043392)
(0.161062 0.00035264 -0.000701294)
(0.160989 0.00106987 -0.00197165)
(0.160703 0.00163774 -0.0036156)
(0.15964 0.00193158 -0.00634004)
(0.15721 0.00200013 -0.0104735)
(0.153182 0.00207531 -0.015717)
(0.147778 0.00248445 -0.0212834)
(0.141517 0.00353721 -0.0263145)
(0.134964 0.00545068 -0.0302861)
(0.128432 0.00835453 -0.0332433)
(0.121916 0.0123327 -0.0357471)
(0.114851 0.0176479 -0.0387097)
(0.106298 0.0246331 -0.043187)
(0.0944296 0.0344673 -0.0505518)
(0.0721249 0.0439579 -0.0572484)
(0.0314829 0.0344874 -0.040308)
(0.166272 0.000386032 -0.000656326)
(0.166201 0.00116154 -0.00182167)
(0.165978 0.00193394 -0.00328402)
(0.165064 0.00269123 -0.00574782)
(0.162821 0.00345513 -0.00960859)
(0.158936 0.00430734 -0.0146499)
(0.153575 0.00538782 -0.0201213)
(0.147263 0.00687073 -0.0251261)
(0.140659 0.00894088 -0.0290594)
(0.134217 0.0118221 -0.0318672)
(0.128171 0.0157725 -0.0340189)
(0.122112 0.0213496 -0.0363346)
(0.115724 0.0291855 -0.0397135)
(0.10691 0.0419593 -0.0455241)
(0.0937203 0.0613462 -0.0521532)
(0.0480288 0.0579403 -0.0346614)
(0.0213591 -3.97134e-05 -0.00143734)
(0.0209961 0.000165632 -0.00302114)
(0.0203348 0.000259599 -0.00433663)
(0.0196489 0.000230477 -0.0055403)
(0.0191793 0.000128817 -0.00660722)
(0.0189739 1.19897e-05 -0.00752233)
(0.0189301 -8.16836e-05 -0.00831828)
(0.0188661 -0.000137452 -0.00907494)
(0.0185883 -0.000166828 -0.00990902)
(0.0179441 -0.000202958 -0.0109598)
(0.0168412 -0.000295842 -0.0123735)
(0.0152354 -0.000495367 -0.0142792)
(0.0130859 -0.000839993 -0.0167073)
(0.010163 -0.00127308 -0.0192662)
(0.00613256 -0.00166221 -0.0200834)
(0.00200091 -0.00156882 -0.0134537)
(0.0597808 7.84391e-05 -0.00160191)
(0.0592076 0.000327261 -0.00458468)
(0.0582159 0.000226525 -0.00768779)
(0.0570873 -0.000222323 -0.0108063)
(0.0561636 -0.000787069 -0.0136718)
(0.0555537 -0.00122173 -0.016094)
(0.0551143 -0.00137338 -0.0180406)
(0.0545352 -0.00121512 -0.0196391)
(0.0534402 -0.000829322 -0.021146)
(0.0514786 -0.000362887 -0.0229013)
(0.0483606 1.54164e-05 -0.0252787)
(0.0438155 0.00013202 -0.0286225)
(0.0375222 -0.000165064 -0.033066)
(0.0287662 -0.000920728 -0.0377567)
(0.0169277 -0.00203081 -0.0384491)
(0.00521381 -0.00232776 -0.0237894)
(0.0929294 0.000222128 -0.00117553)
(0.0925277 0.000568723 -0.00388062)
(0.0915898 0.000337723 -0.00727196)
(0.0901514 -0.000509407 -0.011222)
(0.0884915 -0.00162528 -0.0152928)
(0.0868276 -0.00253764 -0.0190261)
(0.0851943 -0.00288568 -0.0221363)
(0.0834106 -0.0025403 -0.0245909)
(0.0811213 -0.00160303 -0.0266098)
(0.0778913 -0.000318716 -0.0286087)
(0.0732496 0.00101359 -0.0311076)
(0.0666602 0.00210213 -0.0346357)
(0.0574802 0.00268049 -0.0395382)
(0.0444707 0.0024712 -0.0450115)
(0.0264337 0.00102622 -0.0458153)
(0.00814272 -0.000970365 -0.0278404)
(0.120525 0.000267711 -0.000898276)
(0.120299 0.000732657 -0.00292736)
(0.119545 0.000587396 -0.00574203)
(0.117977 -0.000318716 -0.00952963)
(0.115614 -0.00168235 -0.013991)
(0.11267 -0.00292105 -0.0185575)
(0.109374 -0.00348436 -0.0226781)
(0.105815 -0.00307147 -0.0260397)
(0.101863 -0.00169847 -0.0286744)
(0.0971681 0.000396969 -0.0309414)
(0.091203 0.00285897 -0.0334173)
(0.0832472 0.00535513 -0.036762)
(0.072385 0.00758476 -0.0415319)
(0.056905 0.00905511 -0.0472138)
(0.034592 0.00820788 -0.048301)
(0.0109155 0.00331758 -0.0293006)
(0.142564 0.000285928 -0.000767842)
(0.142411 0.000844664 -0.0023325)
(0.141823 0.000933684 -0.00448297)
(0.14032 0.000308552 -0.00769295)
(0.137612 -0.000850977 -0.0119597)
(0.133733 -0.00201825 -0.016816)
(0.128955 -0.00258695 -0.0215826)
(0.123595 -0.00211971 -0.02569)
(0.117829 -0.000486187 -0.0289258)
(0.111548 0.00218512 -0.0315031)
(0.104329 0.00561687 -0.0339806)
(0.0954061 0.00955259 -0.037082)
(0.0836933 0.0137829 -0.0415148)
(0.0671559 0.0178082 -0.0471153)
(0.0422384 0.0187143 -0.0484788)
(0.013999 0.0104094 -0.0293533)
(0.159078 0.000313138 -0.000698728)
(0.158927 0.000953711 -0.00202212)
(0.158442 0.00130694 -0.00371639)
(0.157092 0.00113925 -0.0063701)
(0.15437 0.000520706 -0.0102311)
(0.150077 -0.000167877 -0.0150188)
(0.144393 -0.000401447 -0.0200614)
(0.13773 0.000267896 -0.0246305)
(0.130506 0.00209617 -0.0282966)
(0.122898 0.00511328 -0.0311145)
(0.114714 0.00922036 -0.0335631)
(0.105267 0.0143773 -0.0363754)
(0.0934469 0.0206168 -0.0403315)
(0.0771216 0.027863 -0.045621)
(0.051085 0.0321247 -0.0472021)
(0.018359 0.0211564 -0.0283094)
(0.170088 0.000353027 -0.000648322)
(0.169923 0.00107704 -0.00184217)
(0.169498 0.00167155 -0.00327217)
(0.168311 0.00199606 -0.00553635)
(0.165752 0.00207405 -0.00902012)
(0.161449 0.00212961 -0.0136003)
(0.155448 0.00251813 -0.0186626)
(0.148172 0.00359527 -0.023415)
(0.140194 0.00564064 -0.0272843)
(0.13191 0.00883418 -0.0301802)
(0.123403 0.0132941 -0.0324946)
(0.114152 0.0193129 -0.034924)
(0.103226 0.0272946 -0.0382337)
(0.0886682 0.0383036 -0.0429438)
(0.0640496 0.0484332 -0.0447411)
(0.0262905 0.0386956 -0.0261603)
(0.175593 0.000398792 -0.000606139)
(0.175432 0.0011982 -0.00171047)
(0.175066 0.00200018 -0.00299061)
(0.174036 0.00279432 -0.00502728)
(0.171703 0.00360059 -0.00825372)
(0.167617 0.0045025 -0.0126232)
(0.161755 0.00565029 -0.0175696)
(0.154524 0.00724758 -0.0222843)
(0.146575 0.0095125 -0.0261255)
(0.138453 0.0127157 -0.0289125)
(0.130509 0.0171678 -0.030956)
(0.122428 0.0235014 -0.0328844)
(0.113902 0.0324659 -0.035371)
(0.103036 0.0469149 -0.0391379)
(0.0874014 0.0675084 -0.0414773)
(0.043148 0.063063 -0.0227717)
(0.0222856 -6.32144e-05 -0.00128312)
(0.0218665 0.000127591 -0.00267623)
(0.0211022 0.000220888 -0.00382425)
(0.0202758 0.000185834 -0.00488226)
(0.0196387 7.64567e-05 -0.00583288)
(0.0192434 -5.03394e-05 -0.00665913)
(0.0189864 -0.000154723 -0.00738067)
(0.018678 -0.000219774 -0.00805573)
(0.0181139 -0.000255501 -0.00877237)
(0.0171321 -0.000293715 -0.00963311)
(0.0156401 -0.000380508 -0.010735)
(0.0136061 -0.000557447 -0.0121394)
(0.0110255 -0.000842327 -0.0137913)
(0.00781958 -0.00118119 -0.0152693)
(0.00410897 -0.00151375 -0.0150789)
(0.000965753 -0.00141756 -0.00941016)
(0.0624139 4.60213e-05 -0.00140307)
(0.0617526 0.000253349 -0.0039878)
(0.0605854 0.000120202 -0.00665541)
(0.0591992 -0.000369369 -0.00935281)
(0.057948 -0.000988954 -0.0118629)
(0.0569434 -0.00147849 -0.0140186)
(0.0560406 -0.00166755 -0.0157738)
(0.0549175 -0.00151814 -0.0172132)
(0.0531787 -0.00111246 -0.0185312)
(0.0504546 -0.000605309 -0.0199906)
(0.0464516 -0.000170599 -0.021866)
(0.0409285 2.70122e-05 -0.0243718)
(0.0336574 -0.000137033 -0.0274689)
(0.02426 -0.000705893 -0.0302412)
(0.0130587 -0.00170846 -0.0292578)
(0.00335487 -0.00206784 -0.0168177)
(0.0970315 0.000190995 -0.00102355)
(0.0965512 0.000495542 -0.00334156)
(0.0954556 0.000225997 -0.00621351)
(0.0937644 -0.000685504 -0.00957071)
(0.0917397 -0.00190531 -0.0130803)
(0.0895921 -0.00293561 -0.0163578)
(0.0873523 -0.00337359 -0.0191377)
(0.0848362 -0.00305599 -0.0213546)
(0.0816801 -0.00207388 -0.0231557)
(0.0774347 -0.00068528 -0.0248566)
(0.0716234 0.000789134 -0.0268558)
(0.0637347 0.00204767 -0.0295175)
(0.0532187 0.00283479 -0.0329643)
(0.0392055 0.0028672 -0.0362341)
(0.0217805 0.00154926 -0.0349793)
(0.00594646 -0.000603772 -0.0195993)
(0.125848 0.000243861 -0.000784477)
(0.125551 0.000676492 -0.00252403)
(0.124668 0.000516811 -0.00487528)
(0.1229 -0.000438775 -0.00803671)
(0.120225 -0.00191197 -0.0118173)
(0.116807 -0.00330134 -0.0157695)
(0.112849 -0.00400067 -0.0194153)
(0.108438 -0.00364893 -0.0224427)
(0.103457 -0.00222789 -0.0248194)
(0.097569 2.55808e-05 -0.0267965)
(0.0902513 0.00272453 -0.0288097)
(0.0808062 0.00550545 -0.0313397)
(0.0683922 0.00805068 -0.0346904)
(0.0516033 0.00982141 -0.0380933)
(0.0296837 0.0091064 -0.0368751)
(0.00858322 0.00396256 -0.0204517)
(0.14886 0.00026966 -0.000672477)
(0.148634 0.000806844 -0.00203189)
(0.147929 0.000901801 -0.00381984)
(0.146272 0.00026452 -0.00645572)
(0.143334 -0.0009665 -0.0100086)
(0.139062 -0.00226319 -0.0141505)
(0.133655 -0.00296959 -0.0183228)
(0.127402 -0.00257896 -0.0220022)
(0.120503 -0.000899873 -0.0249319)
(0.112891 0.00195561 -0.0272213)
(0.104183 0.00569687 -0.0292744)
(0.0936493 0.0100339 -0.0316258)
(0.0802738 0.0147235 -0.0347209)
(0.0622161 0.0191628 -0.0380663)
(0.0374001 0.0202288 -0.0369841)
(0.0116849 0.0115729 -0.020328)
(0.16611 0.000305251 -0.00061226)
(0.165882 0.00093749 -0.00177786)
(0.165273 0.00130802 -0.00319586)
(0.163786 0.00115743 -0.00535126)
(0.1609 0.000516288 -0.00851772)
(0.156317 -0.000246761 -0.0125467)
(0.150095 -0.000575086 -0.0169152)
(0.142578 4.52098e-05 -0.0209857)
(0.134189 0.0019326 -0.0243121)
(0.125169 0.00515338 -0.0268447)
(0.115409 0.00961906 -0.0289127)
(0.104287 0.0152739 -0.0310539)
(0.0907764 0.0221305 -0.0337945)
(0.072836 0.0299692 -0.036946)
(0.0465697 0.0344958 -0.0360498)
(0.0162045 0.0230975 -0.0195103)
(0.177611 0.000356227 -0.00056589)
(0.17737 0.00108656 -0.00162739)
(0.176811 0.00170503 -0.00283678)
(0.17549 0.00206093 -0.00466671)
(0.172808 0.00215446 -0.00749257)
(0.168298 0.00219839 -0.0113063)
(0.161865 0.00256476 -0.0156596)
(0.153818 0.00365516 -0.0198705)
(0.144713 0.00579817 -0.0233811)
(0.135015 0.00922302 -0.0260118)
(0.124915 0.014073 -0.0280064)
(0.113993 0.0206547 -0.0298709)
(0.101432 0.029392 -0.0321449)
(0.0853327 0.0412143 -0.0349582)
(0.0601056 0.0517696 -0.0343699)
(0.0244327 0.0416302 -0.0180773)
(0.183362 0.000411405 -0.000527845)
(0.183127 0.00123466 -0.00151482)
(0.182627 0.00206559 -0.00260474)
(0.181467 0.00289576 -0.00424636)
(0.179037 0.00374275 -0.00684611)
(0.174804 0.00469006 -0.0104608)
(0.168593 0.00589717 -0.0146916)
(0.160679 0.00758602 -0.0188583)
(0.151682 0.0100078 -0.0223486)
(0.142212 0.0134717 -0.0249076)
(0.132741 0.018326 -0.0267096)
(0.123085 0.0252471 -0.0282105)
(0.113055 0.0350395 -0.0299035)
(0.100924 0.05057 -0.032178)
(0.0844243 0.0718436 -0.0323313)
(0.0414061 0.0663405 -0.0159494)
(0.0230253 -8.1831e-05 -0.00106729)
(0.0225572 9.4898e-05 -0.00221379)
(0.0217055 0.000186218 -0.00315212)
(0.0207628 0.000146171 -0.0040203)
(0.0199897 2.93585e-05 -0.00480823)
(0.0194427 -0.000107214 -0.00549966)
(0.019018 -0.000222193 -0.00610454)
(0.0185217 -0.000296461 -0.00666218)
(0.0177439 -0.000338208 -0.00723438)
(0.0165221 -0.000377471 -0.00789161)
(0.0147719 -0.000455586 -0.00869332)
(0.0124854 -0.000607514 -0.00966259)
(0.00970132 -0.000835656 -0.0107178)
(0.0064513 -0.00109089 -0.011501)
(0.00307792 -0.00135638 -0.0109327)
(0.000549147 -0.00123295 -0.00654366)
(0.0645185 2.05706e-05 -0.0011511)
(0.063782 0.000192454 -0.00325408)
(0.0624693 3.21474e-05 -0.00541028)
(0.0608725 -0.000492835 -0.00759587)
(0.0593581 -0.0011605 -0.00964939)
(0.0580406 -0.00169989 -0.0114339)
(0.0567734 -0.0019254 -0.0129)
(0.0552264 -0.00178831 -0.0140988)
(0.0529932 -0.00136874 -0.0151685)
(0.0497006 -0.000825942 -0.0162992)
(0.0450665 -0.000337464 -0.0176808)
(0.0389022 -5.48095e-05 -0.0194418)
(0.0310852 -8.26334e-05 -0.0214749)
(0.0214975 -0.000465923 -0.0229929)
(0.0109511 -0.0013163 -0.0214704)
(0.00255094 -0.00171914 -0.0118241)
(0.100312 0.00016705 -0.000835295)
(0.0997655 0.00043622 -0.00270571)
(0.0985377 0.000135725 -0.00499866)
(0.0966396 -0.000828513 -0.00768568)
(0.0943252 -0.00213554 -0.0105221)
(0.0917978 -0.00326861 -0.0132065)
(0.0890833 -0.00378967 -0.0155136)
(0.0859948 -0.00350434 -0.0173661)
(0.082166 -0.00249108 -0.0188537)
(0.0771458 -0.0010167 -0.0202016)
(0.0704744 0.000583282 -0.0216979)
(0.0616931 0.00200416 -0.0235807)
(0.0503691 0.00300001 -0.025865)
(0.0359584 0.00328045 -0.0276845)
(0.0192054 0.00214767 -0.0257698)
(0.00496661 -0.000123788 -0.0137843)
(0.130104 0.000224707 -0.000640225)
(0.129748 0.000629969 -0.00204692)
(0.128756 0.000459592 -0.00390712)
(0.126821 -0.000532529 -0.00640182)
(0.123898 -0.00209314 -0.00941555)
(0.120114 -0.00360916 -0.0126158)
(0.115643 -0.00442948 -0.0156174)
(0.110571 -0.00414018 -0.0181424)
(0.104789 -0.00268772 -0.0201244)
(0.097982 -0.000310873 -0.0217261)
(0.0896546 0.00258753 -0.0232581)
(0.0791604 0.00561734 -0.025055)
(0.0657654 0.00844851 -0.0272745)
(0.0483669 0.0105067 -0.0291771)
(0.0270003 0.00996306 -0.0271992)
(0.0075844 0.00462819 -0.0143264)
(0.153897 0.000256484 -0.000551605)
(0.153612 0.000775435 -0.00166058)
(0.152804 0.000875778 -0.0030735)
(0.15101 0.000233503 -0.00512824)
(0.147885 -0.00105012 -0.00792135)
(0.143314 -0.00245143 -0.0112357)
(0.137431 -0.0032773 -0.0146412)
(0.130496 -0.00296172 -0.0176967)
(0.122718 -0.00126148 -0.0201468)
(0.114078 0.00173798 -0.0220319)
(0.104248 0.00573024 -0.0236235)
(0.0925632 0.0103976 -0.0252999)
(0.0781077 0.0154652 -0.0273374)
(0.0592781 0.0202553 -0.0292037)
(0.0348244 0.0215008 -0.0272895)
(0.0107497 0.0125604 -0.0141829)
(0.171736 0.000300389 -0.000500479)
(0.171447 0.000925369 -0.00146089)
(0.170728 0.00130953 -0.00258979)
(0.169114 0.00117707 -0.00425877)
(0.166087 0.000524137 -0.00671921)
(0.161284 -0.000295466 -0.00990842)
(0.154665 -0.000703238 -0.0134452)
(0.146505 -0.000133481 -0.0168092)
(0.137226 0.00178518 -0.0195973)
(0.127123 0.00516142 -0.0217013)
(0.116167 0.0099087 -0.0233322)
(0.10383 0.0159553 -0.0248674)
(0.0891975 0.0232847 -0.0266564)
(0.0703871 0.0315699 -0.0284107)
(0.0442546 0.036325 -0.0266462)
(0.0154096 0.0245656 -0.0135963)
(0.183629 0.000360433 -0.00046126)
(0.183328 0.00109662 -0.00134071)
(0.182655 0.00173522 -0.00231243)
(0.181207 0.00211988 -0.00372649)
(0.17841 0.00223138 -0.00590438)
(0.173742 0.0022701 -0.00889744)
(0.166998 0.00261865 -0.0123971)
(0.158385 0.00371314 -0.015864)
(0.14843 0.00592634 -0.0188058)
(0.13765 0.00952318 -0.0210104)
(0.126336 0.0146712 -0.0226114)
(0.114188 0.02168 -0.0239606)
(0.100517 0.0309671 -0.0254307)
(0.0835423 0.0433488 -0.027002)
(0.0581786 0.0542049 -0.025537)
(0.023848 0.0437222 -0.0126596)
(0.189577 0.000422734 -0.000429631)
(0.189285 0.0012676 -0.00124949)
(0.188672 0.00212434 -0.00213015)
(0.187387 0.00298677 -0.0033976)
(0.18486 0.00387016 -0.00539141)
(0.180514 0.00485674 -0.00821342)
(0.174059 0.00611177 -0.0116007)
(0.165656 0.00787219 -0.0150226)
(0.155877 0.0104146 -0.0179498)
(0.145377 0.0140771 -0.0201118)
(0.134738 0.0192356 -0.0215856)
(0.123906 0.0265909 -0.0226865)
(0.112829 0.0369655 -0.0237663)
(0.099931 0.0531957 -0.0250464)
(0.0830984 0.0748986 -0.0242761)
(0.0408789 0.0686067 -0.0112743)
(0.0235783 -9.71064e-05 -0.000799868)
(0.023071 6.81592e-05 -0.00165383)
(0.022151 0.000157416 -0.00234883)
(0.0211187 0.000113337 -0.00299325)
(0.0202425 -1.00918e-05 -0.00358215)
(0.0195822 -0.000155341 -0.00410227)
(0.0190348 -0.000279674 -0.00455752)
(0.018404 -0.000362019 -0.00497217)
(0.017478 -0.000408803 -0.00538599)
(0.0160969 -0.00044812 -0.00584353)
(0.0141867 -0.000516156 -0.00637892)
(0.0117623 -0.000647746 -0.00699707)
(0.00889596 -0.000830701 -0.00762415)
(0.00568433 -0.00102069 -0.00800017)
(0.00256197 -0.00122716 -0.00741088)
(0.000389265 -0.00108806 -0.00432528)
(0.0660956 1.59964e-06 -0.000854376)
(0.0652993 0.000145822 -0.00240752)
(0.0638737 -3.56478e-05 -0.00399138)
(0.062116 -0.000588911 -0.00559888)
(0.0604033 -0.00129534 -0.00711929)
(0.0588534 -0.00187597 -0.00845137)
(0.0573185 -0.00213308 -0.00955231)
(0.0554634 -0.00200866 -0.0104498)
(0.0528766 -0.00158015 -0.0112339)
(0.0491876 -0.00100959 -0.0120312)
(0.0441305 -0.00047593 -0.012964)
(0.0375673 -0.000118506 -0.0141069)
(0.0294637 -3.12743e-05 -0.015349)
(0.019868 -0.000262947 -0.0161104)
(0.00981785 -0.000984009 -0.0146878)
(0.00220881 -0.00142525 -0.00788327)
(0.102771 0.000150672 -0.000617503)
(0.102172 0.000391887 -0.00199118)
(0.100841 6.85009e-05 -0.00366104)
(0.0987843 -0.000935923 -0.00561948)
(0.096253 -0.00231056 -0.00770063)
(0.0934451 -0.00352566 -0.00968887)
(0.0903823 -0.00411589 -0.0114135)
(0.0868758 -0.00386124 -0.0128044)
(0.082559 -0.00282827 -0.0139106)
(0.0769859 -0.00128855 -0.0148807)
(0.0697212 0.000411238 -0.0159069)
(0.0603584 0.00196859 -0.0171352)
(0.0485636 0.00314083 -0.018544)
(0.0340199 0.00362949 -0.0194787)
(0.0177957 0.00265995 -0.0177056)
(0.00454219 0.000294267 -0.00921245)
(0.133294 0.000209952 -0.000473356)
(0.132892 0.000594325 -0.0015082)
(0.131813 0.00041621 -0.00285465)
(0.129749 -0.000600525 -0.00465454)
(0.126639 -0.00222572 -0.00684331)
(0.122586 -0.00383982 -0.00919348)
(0.117744 -0.00475797 -0.0114241)
(0.11219 -0.00452398 -0.0133177)
(0.105826 -0.00305469 -0.0148033)
(0.0983569 -0.000585982 -0.0159768)
(0.0893208 0.00246742 -0.0170433)
(0.0781247 0.00569394 -0.0182216)
(0.0641307 0.00875554 -0.0195903)
(0.0464589 0.0110509 -0.0205745)
(0.0255513 0.0106654 -0.0187145)
(0.00717521 0.00518048 -0.00956101)
(0.157676 0.000246197 -0.000408868)
(0.157344 0.000751625 -0.0012296)
(0.156452 0.000856121 -0.00225303)
(0.154549 0.00021342 -0.00372284)
(0.15128 -0.00110621 -0.00573056)
(0.146491 -0.00258587 -0.0081428)
(0.140267 -0.00350627 -0.0106571)
(0.132839 -0.00325513 -0.0129413)
(0.124426 -0.00154694 -0.0147832)
(0.115044 0.00155527 -0.0161812)
(0.104419 0.00573603 -0.0173073)
(0.0919516 0.0106542 -0.0184118)
(0.0768176 0.0160096 -0.0196613)
(0.0575981 0.0210717 -0.0206246)
(0.0334771 0.0224751 -0.018792)
(0.0104049 0.0133154 -0.00945021)
(0.175956 0.000298089 -0.000369655)
(0.17562 0.000917169 -0.00108504)
(0.174814 0.00131187 -0.00190771)
(0.173095 0.00119531 -0.00309702)
(0.169954 0.00053755 -0.00485079)
(0.164989 -0.000322002 -0.00715309)
(0.15809 -0.000791027 -0.009748)
(0.149474 -0.000265679 -0.0122533)
(0.139557 0.00166839 -0.0143498)
(0.128674 0.00515339 -0.0159234)
(0.116866 0.0101062 -0.0170948)
(0.103692 0.0164402 -0.0181129)
(0.0883383 0.0241116 -0.0192011)
(0.0690569 0.0327183 -0.0201043)
(0.0431023 0.0376544 -0.0183807)
(0.0151728 0.0256197 -0.00906308)
(0.188143 0.000364486 -0.000340057)
(0.187797 0.00110565 -0.000997134)
(0.187035 0.00175984 -0.00171028)
(0.18548 0.00216821 -0.00271737)
(0.182584 0.00229675 -0.00426079)
(0.177799 0.0023345 -0.00640763)
(0.170839 0.00266993 -0.00896167)
(0.161832 0.00376352 -0.0115359)
(0.151275 0.00602224 -0.0137484)
(0.139718 0.00974001 -0.0154069)
(0.127537 0.0151012 -0.0165732)
(0.114534 0.0224141 -0.0174761)
(0.100133 0.0320824 -0.018361)
(0.0826583 0.0448411 -0.019172)
(0.0572902 0.0559135 -0.0176832)
(0.0237593 0.0451763 -0.00847214)
(0.194238 0.000432073 -0.000316443)
(0.193904 0.00129454 -0.000929835)
(0.193204 0.00217206 -0.00157885)
(0.191813 0.00306067 -0.00248156)
(0.1892 0.00397378 -0.00388971)
(0.184767 0.00499178 -0.00590591)
(0.178147 0.00628321 -0.00837013)
(0.16941 0.00809589 -0.0109061)
(0.159082 0.0107246 -0.0131089)
(0.147845 0.0145286 -0.0147447)
(0.136369 0.0199025 -0.0158339)
(0.124707 0.0275601 -0.0165803)
(0.112923 0.0383257 -0.017219)
(0.0995618 0.0550015 -0.0178817)
(0.0825995 0.0769909 -0.0169188)
(0.0408281 0.0701601 -0.00758356)
(0.023945 -0.000107332 -0.000491266)
(0.0234103 4.90223e-05 -0.00101508)
(0.0224438 0.000135958 -0.0014388)
(0.021351 8.77816e-05 -0.00183146)
(0.0204056 -4.18334e-05 -0.00219186)
(0.0196703 -0.000194603 -0.00251158)
(0.019043 -0.000326635 -0.00279163)
(0.0183264 -0.000415413 -0.00304481)
(0.0173083 -0.000466033 -0.00329279)
(0.015832 -0.000505088 -0.00355954)
(0.0138314 -0.000565329 -0.00386217)
(0.0113381 -0.000683363 -0.00419956)
(0.00844565 -0.00083611 -0.00452313)
(0.0052834 -0.00098266 -0.00467957)
(0.00231911 -0.00114736 -0.00426715)
(0.000337602 -0.000997245 -0.00245382)
(0.0671439 -1.10148e-05 -0.000520637)
(0.0663057 0.000113929 -0.0014683)
(0.0648041 -8.21711e-05 -0.00242976)
(0.0629379 -0.000655565 -0.00340557)
(0.0610927 -0.00139004 -0.00433247)
(0.0593893 -0.002001 -0.00514883)
(0.0576794 -0.00228205 -0.00582607)
(0.0556249 -0.00216833 -0.00637698)
(0.0528123 -0.00173494 -0.0068513)
(0.0488753 -0.00114569 -0.00732041)
(0.0435608 -0.000580282 -0.00785246)
(0.03677 -0.000168398 -0.00848491)
(0.0285271 -9.10551e-08 -0.00914137)
(0.0189735 -0.000127542 -0.00947527)
(0.00924422 -0.000759965 -0.00851461)
(0.00207952 -0.00122917 -0.00449954)
(0.104408 0.000139576 -0.000375406)
(0.103772 0.00036253 -0.00121042)
(0.102371 2.43954e-05 -0.00221857)
(0.100207 -0.00100642 -0.00340026)
(0.0975307 -0.00242709 -0.00466143)
(0.094538 -0.00369966 -0.00587369)
(0.0912474 -0.00433998 -0.00693147)
(0.087469 -0.00410965 -0.00778696)
(0.0828367 -0.00306589 -0.00846288)
(0.07691 -0.001483 -0.00904222)
(0.0692764 0.000285642 -0.009634)
(0.0595674 0.00194035 -0.010317)
(0.0475162 0.00323785 -0.011067)
(0.0329428 0.0038728 -0.0114884)
(0.0170677 0.00301803 -0.0102967)
(0.00437667 0.000585542 -0.00527122)
(0.13542 0.000200357 -0.000288237)
(0.134984 0.000571097 -0.000917298)
(0.133846 0.00038865 -0.00172703)
(0.131693 -0.00064268 -0.00280545)
(0.128458 -0.00230991 -0.00412254)
(0.124229 -0.00399078 -0.00554727)
(0.119144 -0.00497795 -0.0069102)
(0.113277 -0.00478568 -0.00807427)
(0.106535 -0.00330911 -0.0089872)
(0.0986407 -0.000780488 -0.00969751)
(0.0891575 0.00237834 -0.0103199)
(0.0775332 0.00573988 -0.0109776)
(0.0631985 0.00896133 -0.0117063)
(0.0454111 0.0114231 -0.0121533)
(0.0248138 0.0111528 -0.0108964)
(0.00703141 0.005564 -0.00546684)
(0.160194 0.000240057 -0.000248726)
(0.15983 0.000736223 -0.000749886)
(0.158881 0.000844016 -0.00136553)
(0.1569 0.000203111 -0.00224124)
(0.153533 -0.00113811 -0.0034408)
(0.1486 -0.00266947 -0.00489422)
(0.142155 -0.00365522 -0.00642375)
(0.134411 -0.00345146 -0.00782497)
(0.125586 -0.00174306 -0.00895927)
(0.115726 0.00142461 -0.00981272)
(0.104595 0.00573037 -0.0104781)
(0.091644 0.0108164 -0.0110975)
(0.0761137 0.016365 -0.0117598)
(0.0567034 0.0216123 -0.0121961)
(0.0328149 0.0231297 -0.0109502)
(0.0103095 0.0138209 -0.0054007)
(0.178768 0.000297022 -0.000224518)
(0.178401 0.000912163 -0.000663145)