/*--------------------------------*- C++ -*----------------------------------*\
| =========                 |                                                 |
| \\      /  F ield         | foam-extend: Open Source CFD                    |
|  \\    /   O peration     | Version:     3.1                                |
|   \\  /    A nd           | Web:         http://www.extend-project.de       |
|    \\/     M anipulation  |                                                 |
\*---------------------------------------------------------------------------*/
FoamFile
{
    version     2.0;
    format      ascii;
    class       volVectorField;
    location    "0.002";
    object      D;
}
// * * * * * * * * * * * * * * * * * * * * * * * * * * * * * * * * * * * * * //

dimensions      [0 1 0 0 0 0 0];

internalField   nonuniform List<vector> 
6400
(
(7.39417e-06 2.54294e-07 6.08967e-06)
(5.77101e-06 1.99373e-07 1.99446e-06)
(5.23228e-06 1.78022e-07 -1.06411e-06)
(5.66961e-06 1.87966e-07 -4.86238e-06)
(7.33398e-06 8.45968e-07 6.09504e-06)
(5.7272e-06 6.60375e-07 2.00279e-06)
(5.19537e-06 5.99048e-07 -1.05497e-06)
(5.63713e-06 6.50642e-07 -4.85307e-06)
(7.24018e-06 1.42648e-06 6.09281e-06)
(5.65399e-06 1.1134e-06 2.00267e-06)
(5.12925e-06 1.01077e-06 -1.05439e-06)
(5.5661e-06 1.09849e-06 -4.85221e-06)
(7.10336e-06 1.99461e-06 6.09114e-06)
(5.54724e-06 1.55742e-06 2.00189e-06)
(5.03243e-06 1.41377e-06 -1.05462e-06)
(5.46114e-06 1.53573e-06 -4.85194e-06)
(6.92333e-06 2.54835e-06 6.09025e-06)
(5.40664e-06 1.99024e-06 2.0015e-06)
(4.90487e-06 1.80647e-06 -1.05462e-06)
(5.32271e-06 1.96162e-06 -4.85147e-06)
(6.70091e-06 3.08505e-06 6.08993e-06)
(5.23283e-06 2.40965e-06 2.00147e-06)
(4.7471e-06 2.18696e-06 -1.05437e-06)
(5.15144e-06 2.37429e-06 -4.85083e-06)
(6.43733e-06 3.60188e-06 6.09003e-06)
(5.02678e-06 2.8134e-06 2.00171e-06)
(4.56005e-06 2.55317e-06 -1.05396e-06)
(4.94838e-06 2.77152e-06 -4.85008e-06)
(6.13411e-06 4.09598e-06 6.09044e-06)
(4.78973e-06 3.19924e-06 2.00212e-06)
(4.34487e-06 2.90305e-06 -1.05345e-06)
(4.71484e-06 3.15105e-06 -4.8493e-06)
(5.79304e-06 4.56459e-06 6.09113e-06)
(4.52314e-06 3.56499e-06 2.00264e-06)
(4.10299e-06 3.23462e-06 -1.05295e-06)
(4.4524e-06 3.51069e-06 -4.8486e-06)
(5.41601e-06 5.00518e-06 6.09206e-06)
(4.22873e-06 3.90866e-06 2.00315e-06)
(3.83607e-06 3.54608e-06 -1.05257e-06)
(4.16294e-06 3.84848e-06 -4.84816e-06)
(5.00518e-06 5.41601e-06 6.09206e-06)
(3.90866e-06 4.22873e-06 2.00315e-06)
(3.54608e-06 3.83607e-06 -1.05257e-06)
(3.84848e-06 4.16294e-06 -4.84816e-06)
(4.56459e-06 5.79304e-06 6.09113e-06)
(3.56499e-06 4.52314e-06 2.00264e-06)
(3.23462e-06 4.10299e-06 -1.05295e-06)
(3.51068e-06 4.45241e-06 -4.8486e-06)
(4.09598e-06 6.13411e-06 6.09044e-06)
(3.19924e-06 4.78973e-06 2.00212e-06)
(2.90305e-06 4.34488e-06 -1.05345e-06)
(3.15105e-06 4.71484e-06 -4.8493e-06)
(3.60188e-06 6.43733e-06 6.09002e-06)
(2.8134e-06 5.02678e-06 2.0017e-06)
(2.55317e-06 4.56005e-06 -1.05396e-06)
(2.77152e-06 4.94839e-06 -4.85008e-06)
(3.08505e-06 6.70091e-06 6.08993e-06)
(2.40965e-06 5.23283e-06 2.00147e-06)
(2.18696e-06 4.74711e-06 -1.05438e-06)
(2.37429e-06 5.15145e-06 -4.85083e-06)
(2.54835e-06 6.92334e-06 6.09025e-06)
(1.99024e-06 5.40665e-06 2.0015e-06)
(1.80647e-06 4.90487e-06 -1.05462e-06)
(1.96162e-06 5.32271e-06 -4.85147e-06)
(1.99461e-06 7.10337e-06 6.09114e-06)
(1.55742e-06 5.54724e-06 2.00189e-06)
(1.41377e-06 5.03244e-06 -1.05462e-06)
(1.53573e-06 5.46115e-06 -4.85194e-06)
(1.42648e-06 7.24019e-06 6.09281e-06)
(1.1134e-06 5.654e-06 2.00267e-06)
(1.01077e-06 5.12926e-06 -1.05439e-06)
(1.09849e-06 5.56611e-06 -4.85222e-06)
(8.45968e-07 7.33398e-06 6.09504e-06)
(6.60375e-07 5.7272e-06 2.00279e-06)
(5.99048e-07 5.19538e-06 -1.05497e-06)
(6.50642e-07 5.63714e-06 -4.85307e-06)
(2.54294e-07 7.39417e-06 6.08967e-06)
(1.99373e-07 5.77101e-06 1.99446e-06)
(1.78022e-07 5.23228e-06 -1.06412e-06)
(1.87966e-07 5.66962e-06 -4.86239e-06)
(3.25538e-05 1.25873e-06 1.342e-05)
(3.07235e-05 1.19401e-06 5.12508e-06)
(2.96903e-05 1.15589e-06 -2.3816e-06)
(2.94082e-05 1.14735e-06 -1.04307e-05)
(3.23306e-05 3.80681e-06 1.34062e-05)
(3.05176e-05 3.59834e-06 5.1126e-06)
(2.94986e-05 3.48174e-06 -2.3938e-06)
(2.92254e-05 3.45252e-06 -1.04425e-05)
(3.19226e-05 6.33369e-06 1.33998e-05)
(3.01328e-05 5.98172e-06 5.10779e-06)
(2.91275e-05 5.78546e-06 -2.39746e-06)
(2.88589e-05 5.73519e-06 -1.04447e-05)
(3.1321e-05 8.82037e-06 1.33969e-05)
(2.9565e-05 8.32836e-06 5.10598e-06)
(2.85787e-05 8.0534e-06 -2.39816e-06)
(2.83154e-05 7.98195e-06 -1.04441e-05)
(3.0528e-05 1.12516e-05 1.33957e-05)
(2.88164e-05 1.06231e-05 5.10573e-06)
(2.7855e-05 1.02712e-05 -2.39751e-06)
(2.75982e-05 1.0179e-05 -1.04423e-05)
(2.95476e-05 1.36125e-05 1.33957e-05)
(2.78908e-05 1.28515e-05 5.1064e-06)
(2.69602e-05 1.24251e-05 -2.39616e-06)
(2.67115e-05 1.23127e-05 -1.04401e-05)
(2.83856e-05 1.58888e-05 1.33965e-05)
(2.67937e-05 1.5e-05 5.10761e-06)
(2.58995e-05 1.45017e-05 -2.39447e-06)
(2.56604e-05 1.43699e-05 -1.04377e-05)
(2.70488e-05 1.80665e-05 1.33979e-05)
(2.55316e-05 1.70555e-05 5.10911e-06)
(2.46793e-05 1.64882e-05 -2.39269e-06)
(2.44514e-05 1.63379e-05 -1.04355e-05)
(2.55453e-05 2.01328e-05 1.33995e-05)
(2.41122e-05 1.90056e-05 5.11062e-06)
(2.33072e-05 1.83728e-05 -2.39112e-06)
(2.30921e-05 1.82046e-05 -1.04336e-05)
(2.3884e-05 2.20755e-05 1.3401e-05)
(2.25443e-05 2.08386e-05 5.11172e-06)
(2.17921e-05 2.0144e-05 -2.39012e-06)
(2.15914e-05 1.9959e-05 -1.04325e-05)
(2.20755e-05 2.3884e-05 1.3401e-05)
(2.08386e-05 2.25443e-05 5.11172e-06)
(2.0144e-05 2.17921e-05 -2.39012e-06)
(1.9959e-05 2.15914e-05 -1.04325e-05)
(2.01328e-05 2.55453e-05 1.33995e-05)
(1.90055e-05 2.41122e-05 5.11062e-06)
(1.83728e-05 2.33072e-05 -2.39112e-06)
(1.82046e-05 2.30921e-05 -1.04336e-05)
(1.80665e-05 2.70488e-05 1.33979e-05)
(1.70555e-05 2.55316e-05 5.1091e-06)
(1.64882e-05 2.46793e-05 -2.3927e-06)
(1.63379e-05 2.44514e-05 -1.04355e-05)
(1.58888e-05 2.83856e-05 1.33965e-05)
(1.5e-05 2.67937e-05 5.1076e-06)
(1.45017e-05 2.58995e-05 -2.39447e-06)
(1.43699e-05 2.56604e-05 -1.04378e-05)
(1.36125e-05 2.95476e-05 1.33957e-05)
(1.28515e-05 2.78908e-05 5.10639e-06)
(1.24251e-05 2.69602e-05 -2.39617e-06)
(1.23127e-05 2.67115e-05 -1.04401e-05)
(1.12516e-05 3.0528e-05 1.33957e-05)
(1.06231e-05 2.88164e-05 5.10573e-06)
(1.02712e-05 2.7855e-05 -2.39752e-06)
(1.0179e-05 2.75982e-05 -1.04423e-05)
(8.82037e-06 3.1321e-05 1.33969e-05)
(8.32836e-06 2.9565e-05 5.10597e-06)
(8.05339e-06 2.85787e-05 -2.39816e-06)
(7.98195e-06 2.83154e-05 -1.04441e-05)
(6.33369e-06 3.19226e-05 1.33998e-05)
(5.98172e-06 3.01328e-05 5.10778e-06)
(5.78546e-06 2.91275e-05 -2.39747e-06)
(5.73519e-06 2.88589e-05 -1.04447e-05)
(3.80681e-06 3.23306e-05 1.34061e-05)
(3.59834e-06 3.05177e-05 5.11259e-06)
(3.48174e-06 2.94986e-05 -2.39381e-06)
(3.45252e-06 2.92254e-05 -1.04425e-05)
(1.25873e-06 3.25538e-05 1.342e-05)
(1.19401e-06 3.07235e-05 5.12506e-06)
(1.15589e-06 2.96903e-05 -2.38161e-06)
(1.14735e-06 2.94083e-05 -1.04307e-05)
(6.02437e-05 2.35279e-06 1.51382e-05)
(5.84511e-05 2.29212e-06 5.79242e-06)
(5.70428e-05 2.24133e-06 -3.09909e-06)
(5.59862e-05 2.20605e-06 -1.22416e-05)
(5.98539e-05 7.06797e-06 1.51233e-05)
(5.80732e-05 6.86572e-06 5.77688e-06)
(5.66763e-05 6.70668e-06 -3.11457e-06)
(5.56283e-05 6.58865e-06 -1.2255e-05)
(5.91046e-05 1.17413e-05 1.51154e-05)
(5.73452e-05 1.13974e-05 5.76939e-06)
(5.59653e-05 1.11288e-05 -3.12097e-06)
(5.49305e-05 1.09285e-05 -1.22593e-05)
(5.7993e-05 1.63411e-05 1.51116e-05)
(5.62663e-05 1.58593e-05 5.76653e-06)
(5.4912e-05 1.54824e-05 -3.12267e-06)
(5.38963e-05 1.52009e-05 -1.22595e-05)
(5.65254e-05 2.08397e-05 1.51104e-05)
(5.48421e-05 2.02233e-05 5.76622e-06)
(5.35218e-05 1.97407e-05 -3.12199e-06)
(5.25316e-05 1.93797e-05 -1.22577e-05)
(5.47104e-05 2.52091e-05 1.51108e-05)
(5.3081e-05 2.44622e-05 5.76737e-06)
(5.18028e-05 2.3877e-05 -3.12005e-06)
(5.08442e-05 2.3439e-05 -1.22548e-05)
(5.2559e-05 2.94227e-05 1.51123e-05)
(5.09933e-05 2.855e-05 5.76934e-06)
(4.97652e-05 2.78659e-05 -3.11751e-06)
(4.88441e-05 2.73535e-05 -1.22515e-05)
(5.00839e-05 3.34547e-05 1.51145e-05)
(4.85917e-05 3.24615e-05 5.77166e-06)
(4.74213e-05 3.16827e-05 -3.11487e-06)
(4.65435e-05 3.10991e-05 -1.22483e-05)
(4.73004e-05 3.72807e-05 1.51168e-05)
(4.58909e-05 3.61728e-05 5.77386e-06)
(4.47857e-05 3.5304e-05 -3.11259e-06)
(4.39568e-05 3.46528e-05 -1.22458e-05)
(4.42251e-05 4.08777e-05 1.51187e-05)
(4.29078e-05 3.96617e-05 5.77534e-06)
(4.1875e-05 3.8708e-05 -3.1112e-06)
(4.11006e-05 3.7993e-05 -1.22443e-05)
(4.08777e-05 4.42251e-05 1.51187e-05)
(3.96617e-05 4.29078e-05 5.77534e-06)
(3.8708e-05 4.1875e-05 -3.1112e-06)
(3.7993e-05 4.11006e-05 -1.22443e-05)
(3.72807e-05 4.73004e-05 1.51168e-05)
(3.61728e-05 4.58909e-05 5.77385e-06)
(3.5304e-05 4.47857e-05 -3.11259e-06)
(3.46528e-05 4.39569e-05 -1.22458e-05)
(3.34547e-05 5.0084e-05 1.51145e-05)
(3.24615e-05 4.85917e-05 5.77166e-06)
(3.16827e-05 4.74213e-05 -3.11487e-06)
(3.10991e-05 4.65435e-05 -1.22484e-05)
(2.94227e-05 5.2559e-05 1.51123e-05)
(2.855e-05 5.09933e-05 5.76933e-06)
(2.78659e-05 4.97652e-05 -3.11752e-06)
(2.73535e-05 4.88441e-05 -1.22515e-05)
(2.52091e-05 5.47104e-05 1.51108e-05)
(2.44622e-05 5.3081e-05 5.76736e-06)
(2.3877e-05 5.18028e-05 -3.12005e-06)
(2.3439e-05 5.08442e-05 -1.22548e-05)
(2.08396e-05 5.65254e-05 1.51103e-05)
(2.02233e-05 5.48421e-05 5.76621e-06)
(1.97407e-05 5.35218e-05 -3.122e-06)
(1.93797e-05 5.25317e-05 -1.22577e-05)
(1.63411e-05 5.7993e-05 1.51116e-05)
(1.58593e-05 5.62663e-05 5.76652e-06)
(1.54824e-05 5.4912e-05 -3.12268e-06)
(1.52009e-05 5.38963e-05 -1.22595e-05)
(1.17413e-05 5.91047e-05 1.51153e-05)
(1.13974e-05 5.73452e-05 5.76937e-06)
(1.11288e-05 5.59654e-05 -3.12098e-06)
(1.09285e-05 5.49305e-05 -1.22593e-05)
(7.06797e-06 5.98539e-05 1.51233e-05)
(6.86571e-06 5.80732e-05 5.77687e-06)
(6.70667e-06 5.66763e-05 -3.11458e-06)
(6.58865e-06 5.56283e-05 -1.2255e-05)
(2.35279e-06 6.02437e-05 1.51382e-05)
(2.29212e-06 5.84511e-05 5.7924e-06)
(2.24133e-06 5.70428e-05 -3.0991e-06)
(2.20605e-06 5.59862e-05 -1.22416e-05)
(8.59078e-05 3.36412e-06 1.32025e-05)
(8.39928e-05 3.29895e-06 4.56946e-06)
(8.22407e-05 3.23602e-06 -3.79929e-06)
(8.06218e-05 3.18301e-06 -1.22485e-05)
(8.53613e-05 1.00883e-05 1.31912e-05)
(8.3456e-05 9.8722e-06 4.55795e-06)
(8.17139e-05 9.67423e-06 -3.81057e-06)
(8.0104e-05 9.49307e-06 -1.2258e-05)
(8.42952e-05 1.67518e-05 1.31842e-05)
(8.24119e-05 1.63849e-05 4.55151e-06)
(8.06904e-05 1.60503e-05 -3.81598e-06)
(7.91004e-05 1.5742e-05 -1.22617e-05)
(8.27109e-05 2.33108e-05 1.31807e-05)
(8.08623e-05 2.27963e-05 4.54894e-06)
(7.91725e-05 2.23267e-05 -3.81749e-06)
(7.76118e-05 2.18935e-05 -1.22619e-05)
(8.06183e-05 2.97256e-05 1.31799e-05)
(7.8816e-05 2.90669e-05 4.54893e-06)
(7.71685e-05 2.84653e-05 -3.81657e-06)
(7.56469e-05 2.791e-05 -1.226e-05)
(7.80301e-05 3.59568e-05 1.31809e-05)
(7.62853e-05 3.51581e-05 4.55055e-06)
(7.46903e-05 3.44283e-05 -3.81422e-06)
(7.32172e-05 3.37545e-05 -1.22568e-05)
(7.49619e-05 4.1966e-05 1.31831e-05)
(7.32853e-05 4.10324e-05 4.5531e-06)
(7.17528e-05 4.0179e-05 -3.81116e-06)
(7.03375e-05 3.93911e-05 -1.2253e-05)
(7.14322e-05 4.77166e-05 1.31859e-05)
(6.98343e-05 4.66536e-05 4.55601e-06)
(6.83739e-05 4.5682e-05 -3.80798e-06)
(6.70251e-05 4.47847e-05 -1.22494e-05)
(6.74626e-05 5.31735e-05 1.31888e-05)
(6.59534e-05 5.19876e-05 4.55868e-06)
(6.45744e-05 5.09035e-05 -3.80527e-06)
(6.33008e-05 4.99023e-05 -1.22465e-05)
(6.30772e-05 5.83037e-05 1.31909e-05)
(6.16668e-05 5.70019e-05 4.56042e-06)
(6.03781e-05 5.58119e-05 -3.80364e-06)
(5.91881e-05 5.47129e-05 -1.22448e-05)
(5.83037e-05 6.30772e-05 1.31909e-05)
(5.70019e-05 6.16668e-05 4.56042e-06)
(5.58119e-05 6.03781e-05 -3.80365e-06)
(5.47129e-05 5.91881e-05 -1.22448e-05)
(5.31735e-05 6.74626e-05 1.31888e-05)
(5.19876e-05 6.59534e-05 4.55867e-06)
(5.09035e-05 6.45744e-05 -3.80527e-06)
(4.99023e-05 6.33008e-05 -1.22465e-05)
(4.77166e-05 7.14322e-05 1.31859e-05)
(4.66536e-05 6.98343e-05 4.556e-06)
(4.5682e-05 6.83739e-05 -3.80798e-06)
(4.47847e-05 6.70251e-05 -1.22494e-05)
(4.1966e-05 7.49619e-05 1.3183e-05)
(4.10323e-05 7.32853e-05 4.55309e-06)
(4.0179e-05 7.17528e-05 -3.81116e-06)
(3.9391e-05 7.03375e-05 -1.2253e-05)
(3.59568e-05 7.80301e-05 1.31809e-05)
(3.51581e-05 7.62853e-05 4.55054e-06)
(3.44283e-05 7.46903e-05 -3.81423e-06)
(3.37545e-05 7.32172e-05 -1.22568e-05)
(2.97256e-05 8.06183e-05 1.31799e-05)
(2.90669e-05 7.8816e-05 4.54892e-06)
(2.84653e-05 7.71685e-05 -3.81659e-06)
(2.791e-05 7.56469e-05 -1.226e-05)
(2.33108e-05 8.27109e-05 1.31807e-05)
(2.27963e-05 8.08623e-05 4.54893e-06)
(2.23267e-05 7.91725e-05 -3.8175e-06)
(2.18935e-05 7.76118e-05 -1.22619e-05)
(1.67518e-05 8.42952e-05 1.31841e-05)
(1.63849e-05 8.24119e-05 4.55149e-06)
(1.60503e-05 8.06904e-05 -3.816e-06)
(1.5742e-05 7.91004e-05 -1.22617e-05)
(1.00883e-05 8.53614e-05 1.31912e-05)
(9.8722e-06 8.3456e-05 4.55794e-06)
(9.67423e-06 8.17139e-05 -3.81058e-06)
(9.49306e-06 8.0104e-05 -1.2258e-05)
(3.36412e-06 8.59078e-05 1.32025e-05)
(3.29895e-06 8.39928e-05 4.56944e-06)
(3.23602e-06 8.22407e-05 -3.79931e-06)
(3.18301e-06 8.06218e-05 -1.22485e-05)
(0.00010701 4.19276e-06 9.09657e-06)
(0.000104905 4.1209e-06 2.0825e-06)
(0.000102866 4.04777e-06 -4.78951e-06)
(0.000100866 3.9827e-06 -1.16503e-05)
(0.000106332 1.25687e-05 9.08971e-06)
(0.000104237 1.23312e-05 2.07591e-06)
(0.000102208 1.2101e-05 -4.7957e-06)
(0.000100218 1.18773e-05 -1.16552e-05)
(0.000105005 2.0869e-05 9.08489e-06)
(0.000102933 2.04662e-05 2.07193e-06)
(0.000100929 2.00771e-05 -4.79869e-06)
(9.89626e-05 1.96959e-05 -1.16568e-05)
(0.000103032 2.90394e-05 9.08268e-06)
(0.000100998 2.84743e-05 2.07062e-06)
(9.90305e-05 2.7928e-05 -4.79903e-06)
(9.71005e-05 2.73923e-05 -1.16561e-05)
(0.000100425 3.703e-05 9.08269e-06)
(9.84423e-05 3.63062e-05 2.07139e-06)
(9.6524e-05 3.56061e-05 -4.7974e-06)
(9.46423e-05 3.49195e-05 -1.16535e-05)
(9.72013e-05 4.4792e-05 9.08438e-06)
(9.52815e-05 4.3914e-05 2.07363e-06)
(9.34244e-05 4.30646e-05 -4.79449e-06)
(9.16028e-05 4.22315e-05 -1.16498e-05)
(9.33794e-05 5.22778e-05 9.08723e-06)
(9.15348e-05 5.1251e-05 2.07676e-06)
(8.97504e-05 5.02576e-05 -4.79092e-06)
(8.80002e-05 4.92832e-05 -1.16457e-05)
(8.89829e-05 5.94415e-05 9.09065e-06)
(8.72248e-05 5.82723e-05 2.08016e-06)
(8.55244e-05 5.7141e-05 -4.7873e-06)
(8.38566e-05 5.60313e-05 -1.16417e-05)
(8.40384e-05 6.62393e-05 9.094e-06)
(8.2378e-05 6.49348e-05 2.08321e-06)
(8.07723e-05 6.36725e-05 -4.78427e-06)
(7.91975e-05 6.24343e-05 -1.16385e-05)
(7.85761e-05 7.26302e-05 9.09641e-06)
(7.70244e-05 7.1198e-05 2.08516e-06)
(7.55239e-05 6.98124e-05 -4.78246e-06)
(7.40523e-05 6.84533e-05 -1.16367e-05)
(7.26302e-05 7.85761e-05 9.09641e-06)
(7.1198e-05 7.70244e-05 2.08516e-06)
(6.98124e-05 7.5524e-05 -4.78246e-06)
(6.84533e-05 7.40523e-05 -1.16367e-05)
(6.62393e-05 8.40384e-05 9.09399e-06)
(6.49348e-05 8.2378e-05 2.08321e-06)
(6.36725e-05 8.07724e-05 -4.78427e-06)
(6.24343e-05 7.91976e-05 -1.16385e-05)
(5.94415e-05 8.89829e-05 9.09064e-06)
(5.82723e-05 8.72248e-05 2.08016e-06)
(5.7141e-05 8.55244e-05 -4.78731e-06)
(5.60313e-05 8.38566e-05 -1.16417e-05)
(5.22778e-05 9.33794e-05 9.08722e-06)
(5.1251e-05 9.15348e-05 2.07675e-06)
(5.02576e-05 8.97504e-05 -4.79093e-06)
(4.92832e-05 8.80002e-05 -1.16457e-05)
(4.4792e-05 9.72013e-05 9.08437e-06)
(4.3914e-05 9.52816e-05 2.07362e-06)
(4.30646e-05 9.34244e-05 -4.7945e-06)
(4.22315e-05 9.16028e-05 -1.16498e-05)
(3.703e-05 0.000100425 9.08267e-06)
(3.63062e-05 9.84423e-05 2.07137e-06)
(3.56061e-05 9.6524e-05 -4.79742e-06)
(3.49195e-05 9.46424e-05 -1.16535e-05)
(2.90394e-05 0.000103032 9.08267e-06)
(2.84743e-05 0.000100998 2.0706e-06)
(2.79279e-05 9.90305e-05 -4.79904e-06)
(2.73923e-05 9.71005e-05 -1.16561e-05)
(2.0869e-05 0.000105005 9.08488e-06)
(2.04662e-05 0.000102933 2.07192e-06)
(2.00771e-05 0.000100929 -4.7987e-06)
(1.96959e-05 9.89626e-05 -1.16568e-05)
(1.25687e-05 0.000106332 9.08969e-06)
(1.23312e-05 0.000104237 2.0759e-06)
(1.2101e-05 0.000102208 -4.79571e-06)
(1.18773e-05 0.000100218 -1.16552e-05)
(4.19276e-06 0.00010701 9.09655e-06)
(4.1209e-06 0.000104905 2.08249e-06)
(4.04776e-06 0.000102866 -4.78952e-06)
(3.98269e-06 0.000100866 -1.16503e-05)
(0.000122625 4.80412e-06 3.84291e-06)
(0.000120333 4.7259e-06 -1.19439e-06)
(0.000118082 4.64523e-06 -6.16715e-06)
(0.000115842 4.5726e-06 -1.10916e-05)
(0.00012185 1.44019e-05 3.83968e-06)
(0.000119567 1.41436e-05 -1.19708e-06)
(0.000117327 1.38896e-05 -6.16934e-06)
(0.000115098 1.36396e-05 -1.10928e-05)
(0.000120329 2.39133e-05 3.8373e-06)
(0.000118072 2.34752e-05 -1.19851e-06)
(0.000115858 2.30459e-05 -6.16981e-06)
(0.000113656 2.26197e-05 -1.10921e-05)
(0.000118067 3.3276e-05 3.83667e-06)
(0.000115852 3.26611e-05 -1.19821e-06)
(0.000113678 3.20583e-05 -6.16855e-06)
(0.000111518 3.14591e-05 -1.10898e-05)
(0.00011508 4.24327e-05 3.83775e-06)
(0.00011292 4.16449e-05 -1.19635e-06)
(0.000110801 4.08723e-05 -6.16583e-06)
(0.000108694 4.0104e-05 -1.10862e-05)
(0.000111385 5.13276e-05 3.84025e-06)
(0.000109294 5.03716e-05 -1.19329e-06)
(0.000107243 4.94339e-05 -6.16209e-06)
(0.000105203 4.85015e-05 -1.10817e-05)
(0.000107006 5.9906e-05 3.84373e-06)
(0.000104996 5.87879e-05 -1.18953e-06)
(0.000103025 5.76909e-05 -6.15786e-06)
(0.000101066 5.66002e-05 -1.10769e-05)
(0.000101968 6.81154e-05 3.84766e-06)
(0.000100053 6.6842e-05 -1.18562e-06)
(9.81743e-05 6.55926e-05 -6.15373e-06)
(9.6307e-05 6.43503e-05 -1.10724e-05)
(9.63019e-05 7.59057e-05 3.85138e-06)
(9.44933e-05 7.44847e-05 -1.1822e-06)
(9.27197e-05 7.30905e-05 -6.15033e-06)
(9.09566e-05 7.17042e-05 -1.10689e-05)
(9.00428e-05 8.32294e-05 3.85401e-06)
(8.83526e-05 8.16693e-05 -1.18006e-06)
(8.66952e-05 8.01388e-05 -6.14834e-06)
(8.50476e-05 7.86171e-05 -1.10668e-05)
(8.32294e-05 9.00428e-05 3.85401e-06)
(8.16693e-05 8.83526e-05 -1.18006e-06)
(8.01388e-05 8.66952e-05 -6.14834e-06)
(7.86171e-05 8.50476e-05 -1.10668e-05)
(7.59057e-05 9.63019e-05 3.85138e-06)
(7.44847e-05 9.44933e-05 -1.18221e-06)
(7.30905e-05 9.27197e-05 -6.15033e-06)
(7.17042e-05 9.09566e-05 -1.10689e-05)
(6.81154e-05 0.000101968 3.84765e-06)
(6.6842e-05 0.000100053 -1.18562e-06)
(6.55926e-05 9.81743e-05 -6.15373e-06)
(6.43503e-05 9.6307e-05 -1.10724e-05)
(5.9906e-05 0.000107006 3.84372e-06)
(5.87879e-05 0.000104996 -1.18953e-06)
(5.76909e-05 0.000103025 -6.15786e-06)
(5.66002e-05 0.000101066 -1.10769e-05)
(5.13276e-05 0.000111385 3.84023e-06)
(5.03716e-05 0.000109294 -1.1933e-06)
(4.94339e-05 0.000107243 -6.16209e-06)
(4.85015e-05 0.000105203 -1.10817e-05)
(4.24327e-05 0.00011508 3.83774e-06)
(4.16449e-05 0.00011292 -1.19636e-06)
(4.08723e-05 0.000110801 -6.16584e-06)
(4.0104e-05 0.000108694 -1.10862e-05)
(3.3276e-05 0.000118067 3.83666e-06)
(3.26611e-05 0.000115852 -1.19822e-06)
(3.20583e-05 0.000113678 -6.16856e-06)
(3.14591e-05 0.000111518 -1.10899e-05)
(2.39133e-05 0.000120329 3.83728e-06)
(2.34752e-05 0.000118072 -1.19852e-06)
(2.30459e-05 0.000115858 -6.16982e-06)
(2.26197e-05 0.000113656 -1.10921e-05)
(1.44019e-05 0.00012185 3.83967e-06)
(1.41436e-05 0.000119567 -1.19709e-06)
(1.38896e-05 0.000117327 -6.16935e-06)
(1.36396e-05 0.000115098 -1.10928e-05)
(4.80412e-06 0.000122625 3.84289e-06)
(4.7259e-06 0.000120333 -1.1944e-06)
(4.64523e-06 0.000118082 -6.16716e-06)
(4.5726e-06 0.000115842 -1.10916e-05)
(0.000132702 5.19739e-06 -1.91711e-06)
(0.000130265 5.11447e-06 -4.91823e-06)
(0.000127878 5.02906e-06 -7.90238e-06)
(0.000125508 4.95241e-06 -1.08349e-05)
(0.000131862 1.55828e-05 -1.91782e-06)
(0.000129436 1.53088e-05 -4.91828e-06)
(0.00012706 1.504e-05 -7.90187e-06)
(0.000124701 1.47761e-05 -1.08336e-05)
(0.000130215 2.58752e-05 -1.91814e-06)
(0.000127816 2.54102e-05 -4.91758e-06)
(0.000125468 2.49557e-05 -7.90022e-06)
(0.000123139 2.45056e-05 -1.0831e-05)
(0.000127767 3.60067e-05 -1.91728e-06)
(0.000125412 3.5354e-05 -4.9157e-06)
(0.000123107 3.47156e-05 -7.8973e-06)
(0.000120821 3.40825e-05 -1.0827e-05)
(0.000124533 4.59155e-05 -1.91516e-06)
(0.000122237 4.50789e-05 -4.91265e-06)
(0.00011999 4.42603e-05 -7.89327e-06)
(0.00011776 4.34483e-05 -1.08219e-05)
(0.000120534 5.5541e-05 -1.91193e-06)
(0.000118311 5.45255e-05 -4.9087e-06)
(0.000116135 5.35318e-05 -7.88846e-06)
(0.000113977 5.2546e-05 -1.08161e-05)
(0.000115794 6.48243e-05 -1.90792e-06)
(0.000113658 6.36362e-05 -4.90424e-06)
(0.000111568 6.24734e-05 -7.88338e-06)
(0.000109494 6.13199e-05 -1.08103e-05)
(0.000110342 7.37084e-05 -1.90361e-06)
(0.000108307 7.2355e-05 -4.89982e-06)
(0.000106314 7.10303e-05 -7.8786e-06)
(0.000104339 6.97163e-05 -1.0805e-05)
(0.000104211 8.2139e-05 -1.89961e-06)
(0.000102288 8.06285e-05 -4.89605e-06)
(0.000100407 7.91501e-05 -7.87475e-06)
(9.85419e-05 7.76836e-05 -1.08009e-05)
(9.74378e-05 9.00646e-05 -1.89683e-06)
(9.56411e-05 8.84062e-05 -4.89372e-06)
(9.38834e-05 8.67831e-05 -7.87252e-06)
(9.21401e-05 8.51732e-05 -1.07986e-05)
(9.00646e-05 9.74378e-05 -1.89683e-06)
(8.84062e-05 9.56411e-05 -4.89372e-06)
(8.67831e-05 9.38834e-05 -7.87253e-06)
(8.51732e-05 9.21401e-05 -1.07986e-05)
(8.2139e-05 0.000104211 -1.89962e-06)
(8.06285e-05 0.000102288 -4.89605e-06)
(7.91501e-05 0.000100407 -7.87475e-06)
(7.76836e-05 9.85419e-05 -1.08009e-05)
(7.37084e-05 0.000110342 -1.90361e-06)
(7.2355e-05 0.000108307 -4.89982e-06)
(7.10303e-05 0.000106314 -7.8786e-06)
(6.97163e-05 0.000104339 -1.0805e-05)
(6.48243e-05 0.000115794 -1.90793e-06)
(6.36362e-05 0.000113658 -4.90425e-06)
(6.24734e-05 0.000111568 -7.88339e-06)
(6.13199e-05 0.000109494 -1.08103e-05)
(5.5541e-05 0.000120534 -1.91194e-06)
(5.45255e-05 0.000118311 -4.90871e-06)
(5.35318e-05 0.000116135 -7.88847e-06)
(5.2546e-05 0.000113977 -1.08162e-05)
(4.59155e-05 0.000124533 -1.91517e-06)
(4.50789e-05 0.000122237 -4.91266e-06)
(4.42603e-05 0.00011999 -7.89327e-06)
(4.34483e-05 0.00011776 -1.08219e-05)
(3.60067e-05 0.000127767 -1.91729e-06)
(3.5354e-05 0.000125412 -4.91571e-06)
(3.47156e-05 0.000123107 -7.89731e-06)
(3.40825e-05 0.000120821 -1.0827e-05)
(2.58752e-05 0.000130215 -1.91815e-06)
(2.54102e-05 0.000127816 -4.91759e-06)
(2.49557e-05 0.000125468 -7.90023e-06)
(2.45056e-05 0.000123139 -1.0831e-05)
(1.55828e-05 0.000131862 -1.91784e-06)
(1.53088e-05 0.000129436 -4.91829e-06)
(1.504e-05 0.00012706 -7.90188e-06)
(1.47761e-05 0.000124701 -1.08336e-05)
(5.19739e-06 0.000132702 -1.91713e-06)
(5.11447e-06 0.000130265 -4.91824e-06)
(5.02906e-06 0.000127878 -7.90239e-06)
(4.95241e-06 0.000125508 -1.08349e-05)
(0.000137537 5.38493e-06 -7.80596e-06)
(0.00013502 5.2996e-06 -8.84347e-06)
(0.000132571 5.21221e-06 -9.89514e-06)
(0.000130156 5.13434e-06 -1.09088e-05)
(0.000136666 1.6147e-05 -7.80502e-06)
(0.000134159 1.58647e-05 -8.84182e-06)
(0.000131721 1.55897e-05 -9.89287e-06)
(0.000129318 1.53217e-05 -1.09059e-05)
(0.000134958 2.68129e-05 -7.80378e-06)
(0.000132479 2.63337e-05 -8.83948e-06)
(0.00013007 2.58685e-05 -9.88953e-06)
(0.000127696 2.5411e-05 -1.09015e-05)
(0.000132418 3.73122e-05 -7.80176e-06)
(0.000129985 3.66392e-05 -8.83623e-06)
(0.00012762 3.59855e-05 -9.88506e-06)
(0.000125289 3.53417e-05 -1.08958e-05)
(0.000129065 4.75809e-05 -7.79885e-06)
(0.000126692 4.67178e-05 -8.8321e-06)
(0.000124386 4.58793e-05 -9.87965e-06)
(0.000122114 4.50532e-05 -1.0889e-05)
(0.000124919 5.75562e-05 -7.79513e-06)
(0.000122621 5.65081e-05 -8.82729e-06)
(0.000120389 5.54897e-05 -9.87366e-06)
(0.000118189 5.44864e-05 -1.08818e-05)
(0.000120005 6.71769e-05 -7.79083e-06)
(0.000117798 6.59503e-05 -8.82218e-06)
(0.000115652 6.47582e-05 -9.86759e-06)
(0.000113539 6.35837e-05 -1.08746e-05)
(0.000114353 7.63842e-05 -7.78634e-06)
(0.00011225 7.49866e-05 -8.81727e-06)
(0.000110205 7.3628e-05 -9.86202e-06)
(0.000108191 7.22896e-05 -1.08682e-05)
(0.000107998 8.51218e-05 -7.78224e-06)
(0.000106012 8.35616e-05 -8.81318e-06)
(0.000104081 8.2045e-05 -9.85763e-06)
(0.00010218 8.05509e-05 -1.08633e-05)
(0.000100978 9.33361e-05 -7.77939e-06)
(9.91217e-05 9.16228e-05 -8.81068e-06)
(9.73181e-05 8.99576e-05 -9.85512e-06)
(9.55414e-05 8.83171e-05 -1.08606e-05)
(9.33361e-05 0.000100978 -7.7794e-06)
(9.16228e-05 9.91217e-05 -8.81068e-06)
(8.99576e-05 9.73181e-05 -9.85512e-06)
(8.8317e-05 9.55414e-05 -1.08606e-05)
(8.51218e-05 0.000107998 -7.78224e-06)
(8.35616e-05 0.000106012 -8.81318e-06)
(8.2045e-05 0.000104081 -9.85763e-06)
(8.05509e-05 0.00010218 -1.08633e-05)
(7.63842e-05 0.000114353 -7.78634e-06)
(7.49866e-05 0.00011225 -8.81728e-06)
(7.3628e-05 0.000110205 -9.86203e-06)
(7.22896e-05 0.000108191 -1.08682e-05)
(6.71769e-05 0.000120005 -7.79084e-06)
(6.59503e-05 0.000117798 -8.82219e-06)
(6.47582e-05 0.000115652 -9.86759e-06)
(6.35837e-05 0.000113539 -1.08746e-05)
(5.75562e-05 0.000124919 -7.79514e-06)
(5.65081e-05 0.000122621 -8.8273e-06)
(5.54897e-05 0.000120389 -9.87367e-06)
(5.44863e-05 0.000118189 -1.08818e-05)
(4.75809e-05 0.000129065 -7.79887e-06)
(4.67178e-05 0.000126692 -8.83211e-06)
(4.58792e-05 0.000124386 -9.87966e-06)
(4.50532e-05 0.000122114 -1.08891e-05)
(3.73122e-05 0.000132418 -7.80178e-06)
(3.66392e-05 0.000129985 -8.83625e-06)
(3.59855e-05 0.00012762 -9.88507e-06)
(3.53417e-05 0.000125289 -1.08958e-05)
(2.68129e-05 0.000134958 -7.8038e-06)
(2.63337e-05 0.000132479 -8.83949e-06)
(2.58685e-05 0.00013007 -9.88954e-06)
(2.5411e-05 0.000127696 -1.09016e-05)
(1.6147e-05 0.000136666 -7.80504e-06)
(1.58647e-05 0.000134159 -8.84183e-06)
(1.55897e-05 0.000131721 -9.89289e-06)
(1.53217e-05 0.000129318 -1.09059e-05)
(5.38493e-06 0.000137537 -7.80598e-06)
(5.2996e-06 0.00013502 -8.84349e-06)
(5.21221e-06 0.000132571 -9.89516e-06)
(5.13434e-06 0.000130156 -1.09088e-05)
(0.000137489 5.38095e-06 -1.35936e-05)
(0.000134962 5.29576e-06 -1.27847e-05)
(0.000132521 5.20905e-06 -1.2016e-05)
(0.000130131 5.13239e-06 -1.12271e-05)
(0.000136617 1.61365e-05 -1.35915e-05)
(0.0001341 1.58543e-05 -1.27818e-05)
(0.000131671 1.55814e-05 -1.20124e-05)
(0.000129293 1.53175e-05 -1.1223e-05)
(0.000134906 2.67959e-05 -1.35892e-05)
(0.000132418 2.63166e-05 -1.27782e-05)
(0.000130017 2.58548e-05 -1.20077e-05)
(0.000127668 2.5404e-05 -1.12171e-05)
(0.000132365 3.7289e-05 -1.35864e-05)
(0.000129922 3.66154e-05 -1.27739e-05)
(0.000127564 3.5966e-05 -1.20018e-05)
(0.000125258 3.53313e-05 -1.12097e-05)
(0.000129009 4.75516e-05 -1.35831e-05)
(0.000126627 4.66873e-05 -1.27689e-05)
(0.000124328 4.58537e-05 -1.19951e-05)
(0.000122079 4.50388e-05 -1.12011e-05)
(0.000124862 5.75212e-05 -1.35792e-05)
(0.000122555 5.6471e-05 -1.27634e-05)
(0.000120329 5.5458e-05 -1.19879e-05)
(0.000118152 5.44674e-05 -1.11921e-05)
(0.000119947 6.71366e-05 -1.3575e-05)
(0.00011773 6.59068e-05 -1.27578e-05)
(0.000115591 6.47204e-05 -1.19808e-05)
(0.0001135 6.35602e-05 -1.11834e-05)
(0.000114295 7.63392e-05 -1.35706e-05)
(0.000112183 7.49373e-05 -1.27525e-05)
(0.000110145 7.35846e-05 -1.19744e-05)
(0.000108152 7.22617e-05 -1.11756e-05)
(0.000107941 8.50727e-05 -1.35666e-05)
(0.000105947 8.35071e-05 -1.27481e-05)
(0.000104022 8.19965e-05 -1.19694e-05)
(0.000102141 8.05191e-05 -1.11698e-05)
(0.000100923 9.32838e-05 -1.35639e-05)
(9.90593e-05 9.1564e-05 -1.27455e-05)
(9.72617e-05 8.99047e-05 -1.19666e-05)
(9.55039e-05 8.8282e-05 -1.11666e-05)
(9.32838e-05 0.000100923 -1.35639e-05)
(9.1564e-05 9.90593e-05 -1.27455e-05)
(8.99047e-05 9.72617e-05 -1.19666e-05)
(8.8282e-05 9.55039e-05 -1.11666e-05)
(8.50727e-05 0.000107941 -1.35666e-05)
(8.35071e-05 0.000105947 -1.27481e-05)
(8.19965e-05 0.000104022 -1.19695e-05)
(8.05191e-05 0.000102141 -1.11698e-05)
(7.63392e-05 0.000114295 -1.35706e-05)
(7.49373e-05 0.000112183 -1.27525e-05)
(7.35846e-05 0.000110145 -1.19744e-05)
(7.22617e-05 0.000108152 -1.11756e-05)
(6.71366e-05 0.000119947 -1.3575e-05)
(6.59068e-05 0.00011773 -1.27578e-05)
(6.47204e-05 0.000115591 -1.19808e-05)
(6.35602e-05 0.0001135 -1.11834e-05)
(5.75212e-05 0.000124862 -1.35792e-05)
(5.6471e-05 0.000122555 -1.27634e-05)
(5.5458e-05 0.000120329 -1.19879e-05)
(5.44674e-05 0.000118152 -1.11921e-05)
(4.75516e-05 0.000129009 -1.35831e-05)
(4.66873e-05 0.000126627 -1.27689e-05)
(4.58537e-05 0.000124328 -1.19951e-05)
(4.50388e-05 0.000122079 -1.12012e-05)
(3.7289e-05 0.000132365 -1.35864e-05)
(3.66154e-05 0.000129922 -1.27739e-05)
(3.5966e-05 0.000127564 -1.20018e-05)
(3.53313e-05 0.000125258 -1.12097e-05)
(2.67959e-05 0.000134906 -1.35892e-05)
(2.63166e-05 0.000132418 -1.27782e-05)
(2.58548e-05 0.000130017 -1.20077e-05)
(2.5404e-05 0.000127668 -1.12171e-05)
(1.61365e-05 0.000136617 -1.35915e-05)
(1.58543e-05 0.0001341 -1.27818e-05)
(1.55814e-05 0.000131671 -1.20124e-05)
(1.53175e-05 0.000129293 -1.1223e-05)
(5.38095e-06 0.000137489 -1.35936e-05)
(5.29576e-06 0.000134962 -1.27847e-05)
(5.20905e-06 0.000132521 -1.2016e-05)
(5.13239e-06 0.000130131 -1.12271e-05)
(0.000132874 5.19773e-06 -1.90994e-05)
(0.000130407 5.11521e-06 -1.65821e-05)
(0.000128042 5.03176e-06 -1.41341e-05)
(0.000125745 4.95862e-06 -1.16795e-05)
(0.000132028 1.55881e-05 -1.90963e-05)
(0.000129572 1.53144e-05 -1.65781e-05)
(0.000127218 1.50517e-05 -1.41294e-05)
(0.000124932 1.47997e-05 -1.16742e-05)
(0.000130371 2.58857e-05 -1.90932e-05)
(0.000127942 2.54203e-05 -1.65736e-05)
(0.000125616 2.49753e-05 -1.41235e-05)
(0.000123357 2.45446e-05 -1.16671e-05)
(0.000127911 3.60223e-05 -1.909e-05)
(0.000125525 3.53678e-05 -1.65685e-05)
(0.000123241 3.47416e-05 -1.41165e-05)
(0.000121023 3.41347e-05 -1.1658e-05)
(0.000124663 4.59363e-05 -1.90867e-05)
(0.000122336 4.50958e-05 -1.65629e-05)
(0.000120108 4.42914e-05 -1.41086e-05)
(0.000117945 4.35113e-05 -1.16478e-05)
(0.000120649 5.55672e-05 -1.90832e-05)
(0.000118396 5.45451e-05 -1.6557e-05)
(0.000116239 5.35668e-05 -1.41004e-05)
(0.000114145 5.26177e-05 -1.16371e-05)
(0.000115895 6.48563e-05 -1.90794e-05)
(0.00011373 6.36584e-05 -1.65511e-05)
(0.000111657 6.25117e-05 -1.40924e-05)
(0.000109645 6.13991e-05 -1.16267e-05)
(0.00011043 7.37471e-05 -1.90755e-05)
(0.000108367 7.23804e-05 -1.65457e-05)
(0.000106391 7.1072e-05 -1.40853e-05)
(0.000104474 6.98024e-05 -1.16176e-05)
(0.000104286 8.21853e-05 -1.90719e-05)
(0.000102339 8.06582e-05 -1.65412e-05)
(0.000100474 7.91959e-05 -1.40798e-05)
(9.86642e-05 7.7777e-05 -1.16108e-05)
(9.75025e-05 9.01197e-05 -1.90693e-05)
(9.5683e-05 8.84413e-05 -1.65386e-05)
(9.39412e-05 8.68342e-05 -1.40767e-05)
(9.22513e-05 8.52749e-05 -1.16071e-05)