/*--------------------------------*- C++ -*----------------------------------*\
| =========                 |                                                 |
| \\      /  F ield         | foam-extend: Open Source CFD                    |
|  \\    /   O peration     | Version:     3.1                                |
|   \\  /    A nd           | Web:         http://www.extend-project.de       |
|    \\/     M anipulation  |                                                 |
\*---------------------------------------------------------------------------*/
FoamFile
{
    version     2.0;
    format      ascii;
    class       volVectorField;
    location    "0.002";
    object      D_0_0_0;
}
// * * * * * * * * * * * * * * * * * * * * * * * * * * * * * * * * * * * * * //

dimensions      [0 1 0 0 0 0 0];

internalField   nonuniform List<vector> 
6400
(
(7.41876e-06 2.55579e-07 6.05305e-06)
(5.81037e-06 2.01158e-07 1.97924e-06)
(5.27364e-06 1.79854e-07 -1.056e-06)
(5.70127e-06 1.89424e-07 -4.8355e-06)
(7.35865e-06 8.49206e-07 6.0582e-06)
(5.76646e-06 6.65218e-07 1.98727e-06)
(5.23651e-06 6.04024e-07 -1.0472e-06)
(5.66854e-06 6.54414e-07 -4.82651e-06)
(7.26458e-06 1.43173e-06 6.05599e-06)
(5.69282e-06 1.12139e-06 1.98708e-06)
(5.16995e-06 1.01902e-06 -1.04673e-06)
(5.59723e-06 1.10473e-06 -4.8258e-06)
(7.12733e-06 2.00187e-06 6.0544e-06)
(5.58538e-06 1.56854e-06 1.98631e-06)
(5.07243e-06 1.42527e-06 -1.047e-06)
(5.49178e-06 1.54446e-06 -4.82562e-06)
(6.94673e-06 2.55757e-06 6.05362e-06)
(5.44386e-06 2.0044e-06 1.98596e-06)
(4.94391e-06 1.82115e-06 -1.04701e-06)
(5.35265e-06 1.9728e-06 -4.82524e-06)
(6.72361e-06 3.09615e-06 6.05344e-06)
(5.2689e-06 2.42675e-06 1.98599e-06)
(4.78496e-06 2.2047e-06 -1.04677e-06)
(5.18051e-06 2.38783e-06 -4.82467e-06)
(6.4592e-06 3.61477e-06 6.05369e-06)
(5.0615e-06 2.83331e-06 1.98628e-06)
(4.59649e-06 2.57387e-06 -1.04635e-06)
(4.9764e-06 2.78735e-06 -4.82399e-06)
(6.15504e-06 4.11053e-06 6.05426e-06)
(4.8229e-06 3.22181e-06 1.98676e-06)
(4.37968e-06 2.92657e-06 -1.04584e-06)
(4.74162e-06 3.16906e-06 -4.82328e-06)
(5.8129e-06 4.58067e-06 6.0551e-06)
(4.55455e-06 3.59005e-06 1.98735e-06)
(4.13594e-06 3.26078e-06 -1.04532e-06)
(4.47776e-06 3.53075e-06 -4.82263e-06)
(5.43472e-06 5.02264e-06 6.05615e-06)
(4.25821e-06 3.93602e-06 1.98791e-06)
(3.86696e-06 3.5747e-06 -1.04493e-06)
(4.1867e-06 3.87047e-06 -4.8222e-06)
(5.02264e-06 5.43472e-06 6.05615e-06)
(3.93602e-06 4.25821e-06 1.98791e-06)
(3.5747e-06 3.86696e-06 -1.04493e-06)
(3.87048e-06 4.1867e-06 -4.8222e-06)
(4.58067e-06 5.8129e-06 6.0551e-06)
(3.59006e-06 4.55455e-06 1.98735e-06)
(3.26078e-06 4.13594e-06 -1.04532e-06)
(3.53076e-06 4.47776e-06 -4.82262e-06)
(4.11053e-06 6.15504e-06 6.05426e-06)
(3.22181e-06 4.8229e-06 1.98676e-06)
(2.92657e-06 4.37968e-06 -1.04583e-06)
(3.16906e-06 4.74162e-06 -4.82328e-06)
(3.61477e-06 6.4592e-06 6.05369e-06)
(2.83331e-06 5.0615e-06 1.98629e-06)
(2.57387e-06 4.59649e-06 -1.04635e-06)
(2.78735e-06 4.97639e-06 -4.82399e-06)
(3.09616e-06 6.72361e-06 6.05344e-06)
(2.42675e-06 5.2689e-06 1.98599e-06)
(2.20471e-06 4.78496e-06 -1.04677e-06)
(2.38783e-06 5.18051e-06 -4.82467e-06)
(2.55757e-06 6.94673e-06 6.05362e-06)
(2.0044e-06 5.44386e-06 1.98596e-06)
(1.82115e-06 4.94391e-06 -1.04701e-06)
(1.9728e-06 5.35265e-06 -4.82524e-06)
(2.00187e-06 7.12733e-06 6.0544e-06)
(1.56854e-06 5.58538e-06 1.98632e-06)
(1.42527e-06 5.07243e-06 -1.04699e-06)
(1.54446e-06 5.49178e-06 -4.82562e-06)
(1.43173e-06 7.26458e-06 6.05599e-06)
(1.12139e-06 5.69282e-06 1.98708e-06)
(1.01902e-06 5.16995e-06 -1.04673e-06)
(1.10473e-06 5.59723e-06 -4.8258e-06)
(8.49206e-07 7.35865e-06 6.0582e-06)
(6.65218e-07 5.76646e-06 1.98727e-06)
(6.04024e-07 5.23651e-06 -1.0472e-06)
(6.54414e-07 5.66854e-06 -4.82651e-06)
(2.55579e-07 7.41876e-06 6.05306e-06)
(2.01158e-07 5.81037e-06 1.97925e-06)
(1.79854e-07 5.27364e-06 -1.056e-06)
(1.89424e-07 5.70127e-06 -4.8355e-06)
(3.25027e-05 1.2575e-06 1.32383e-05)
(3.07017e-05 1.19368e-06 5.05003e-06)
(2.96753e-05 1.15576e-06 -2.3442e-06)
(2.9379e-05 1.14674e-06 -1.02914e-05)
(3.22805e-05 3.80186e-06 1.32241e-05)
(3.04964e-05 3.59652e-06 5.03711e-06)
(2.9484e-05 3.48052e-06 -2.35692e-06)
(2.91964e-05 3.44948e-06 -1.03038e-05)
(3.18734e-05 6.3251e-06 1.32178e-05)
(3.01122e-05 5.97855e-06 5.03214e-06)
(2.91134e-05 5.78333e-06 -2.36083e-06)
(2.88306e-05 5.73001e-06 -1.03063e-05)
(3.12731e-05 8.80826e-06 1.3215e-05)
(2.95452e-05 8.32388e-06 5.03037e-06)
(2.85653e-05 8.05043e-06 -2.36161e-06)
(2.82881e-05 7.97478e-06 -1.03059e-05)
(3.04817e-05 1.12361e-05 1.32141e-05)
(2.87975e-05 1.06173e-05 5.03025e-06)
(2.78424e-05 1.02675e-05 -2.36096e-06)
(2.75721e-05 1.017e-05 -1.03043e-05)
(2.95033e-05 1.35937e-05 1.32145e-05)
(2.7873e-05 1.28446e-05 5.0311e-06)
(2.69485e-05 1.24206e-05 -2.35955e-06)
(2.66868e-05 1.23019e-05 -1.03022e-05)
(2.83435e-05 1.58668e-05 1.32156e-05)
(2.67771e-05 1.4992e-05 5.03252e-06)
(2.58888e-05 1.44966e-05 -2.35778e-06)
(2.56372e-05 1.43575e-05 -1.02999e-05)
(2.70093e-05 1.80415e-05 1.32174e-05)
(2.55163e-05 1.70464e-05 5.03423e-06)
(2.46697e-05 1.64825e-05 -2.35592e-06)
(2.44298e-05 1.63239e-05 -1.02977e-05)
(2.55085e-05 2.01048e-05 1.32194e-05)
(2.40983e-05 1.89953e-05 5.03593e-06)
(2.32986e-05 1.83665e-05 -2.35427e-06)
(2.30722e-05 1.81891e-05 -1.02958e-05)
(2.38501e-05 2.20445e-05 1.32211e-05)
(2.25318e-05 2.08272e-05 5.03717e-06)
(2.17844e-05 2.01371e-05 -2.35321e-06)
(2.1573e-05 1.99421e-05 -1.02947e-05)
(2.20445e-05 2.38501e-05 1.32211e-05)
(2.08272e-05 2.25318e-05 5.03717e-06)
(2.01371e-05 2.17844e-05 -2.35321e-06)
(1.99421e-05 2.1573e-05 -1.02947e-05)
(2.01048e-05 2.55085e-05 1.32194e-05)
(1.89953e-05 2.40983e-05 5.03594e-06)
(1.83665e-05 2.32986e-05 -2.35427e-06)
(1.81891e-05 2.30722e-05 -1.02958e-05)
(1.80415e-05 2.70093e-05 1.32174e-05)
(1.70464e-05 2.55163e-05 5.03424e-06)
(1.64825e-05 2.46697e-05 -2.35592e-06)
(1.63239e-05 2.44298e-05 -1.02977e-05)
(1.58668e-05 2.83435e-05 1.32157e-05)
(1.4992e-05 2.67771e-05 5.03253e-06)
(1.44966e-05 2.58888e-05 -2.35778e-06)
(1.43575e-05 2.56372e-05 -1.02999e-05)
(1.35937e-05 2.95033e-05 1.32145e-05)
(1.28446e-05 2.7873e-05 5.03111e-06)
(1.24206e-05 2.69485e-05 -2.35955e-06)
(1.23019e-05 2.66868e-05 -1.03022e-05)
(1.12361e-05 3.04817e-05 1.32141e-05)
(1.06173e-05 2.87975e-05 5.03026e-06)
(1.02675e-05 2.78424e-05 -2.36095e-06)
(1.017e-05 2.75722e-05 -1.03043e-05)
(8.80827e-06 3.12731e-05 1.3215e-05)
(8.32388e-06 2.95452e-05 5.03038e-06)
(8.05044e-06 2.85653e-05 -2.3616e-06)
(7.97479e-06 2.82881e-05 -1.03059e-05)
(6.3251e-06 3.18734e-05 1.32178e-05)
(5.97855e-06 3.01122e-05 5.03215e-06)
(5.78334e-06 2.91134e-05 -2.36082e-06)
(5.73001e-06 2.88307e-05 -1.03063e-05)
(3.80186e-06 3.22805e-05 1.32241e-05)
(3.59653e-06 3.04964e-05 5.03712e-06)
(3.48052e-06 2.9484e-05 -2.35692e-06)
(3.44949e-06 2.91964e-05 -1.03038e-05)
(1.2575e-06 3.25027e-05 1.32383e-05)
(1.19368e-06 3.07017e-05 5.05004e-06)
(1.15576e-06 2.96753e-05 -2.34419e-06)
(1.14674e-06 2.9379e-05 -1.02914e-05)
(5.98694e-05 2.3394e-06 1.47351e-05)
(5.81249e-05 2.2802e-06 5.6323e-06)
(5.67308e-05 2.22985e-06 -3.00892e-06)
(5.56566e-05 2.19399e-06 -1.19158e-05)
(5.94831e-05 7.02579e-06 1.47198e-05)
(5.77499e-05 6.82869e-06 5.61627e-06)
(5.63667e-05 6.67099e-06 -3.02498e-06)
(5.5301e-05 6.55066e-06 -1.19298e-05)
(5.87391e-05 1.16706e-05 1.47118e-05)
(5.70266e-05 1.13356e-05 5.60863e-06)
(5.56604e-05 1.10693e-05 -3.03163e-06)
(5.4608e-05 1.08652e-05 -1.19345e-05)
(5.7635e-05 1.62425e-05 1.47083e-05)
(5.59544e-05 1.57732e-05 5.60585e-06)
(5.46136e-05 1.53997e-05 -3.03335e-06)
(5.35808e-05 1.51128e-05 -1.19349e-05)
(5.61773e-05 2.07137e-05 1.47074e-05)
(5.4539e-05 2.01134e-05 5.60577e-06)
(5.32319e-05 1.96352e-05 -3.03255e-06)
(5.2225e-05 1.92675e-05 -1.19331e-05)
(5.43745e-05 2.50568e-05 1.47083e-05)
(5.27886e-05 2.43294e-05 5.60722e-06)
(5.15232e-05 2.37496e-05 -3.03041e-06)
(5.05484e-05 2.33035e-05 -1.19301e-05)
(5.22372e-05 2.9245e-05 1.47103e-05)
(5.07134e-05 2.83951e-05 5.60953e-06)
(4.94976e-05 2.77174e-05 -3.02765e-06)
(4.85609e-05 2.71958e-05 -1.19267e-05)
(4.97784e-05 3.32527e-05 1.47129e-05)
(4.8326e-05 3.22855e-05 5.61217e-06)
(4.71673e-05 3.15141e-05 -3.02479e-06)
(4.62747e-05 3.09201e-05 -1.19234e-05)
(4.70128e-05 3.70554e-05 1.47157e-05)
(4.56409e-05 3.59769e-05 5.61465e-06)
(4.45467e-05 3.51163e-05 -3.02233e-06)
(4.37037e-05 3.44536e-05 -1.19207e-05)
(4.3957e-05 4.06304e-05 1.47178e-05)
(4.26748e-05 3.94467e-05 5.61631e-06)
(4.16521e-05 3.85023e-05 -3.02082e-06)
(4.08644e-05 3.77749e-05 -1.19192e-05)
(4.06304e-05 4.3957e-05 1.47178e-05)
(3.94467e-05 4.26748e-05 5.61631e-06)
(3.85023e-05 4.16521e-05 -3.02082e-06)
(3.77749e-05 4.08644e-05 -1.19192e-05)
(3.70554e-05 4.70128e-05 1.47157e-05)
(3.59769e-05 4.56409e-05 5.61465e-06)
(3.51163e-05 4.45467e-05 -3.02232e-06)
(3.44536e-05 4.37037e-05 -1.19207e-05)
(3.32527e-05 4.97784e-05 1.47129e-05)
(3.22855e-05 4.8326e-05 5.61218e-06)
(3.15141e-05 4.71673e-05 -3.02478e-06)
(3.09201e-05 4.62747e-05 -1.19234e-05)
(2.9245e-05 5.22372e-05 1.47103e-05)
(2.83951e-05 5.07134e-05 5.60953e-06)
(2.77174e-05 4.94976e-05 -3.02764e-06)
(2.71958e-05 4.85609e-05 -1.19267e-05)
(2.50568e-05 5.43745e-05 1.47083e-05)
(2.43294e-05 5.27886e-05 5.60723e-06)
(2.37496e-05 5.15232e-05 -3.03041e-06)
(2.33035e-05 5.05484e-05 -1.19301e-05)
(2.07137e-05 5.61773e-05 1.47074e-05)
(2.01134e-05 5.4539e-05 5.60578e-06)
(1.96352e-05 5.32319e-05 -3.03254e-06)
(1.92675e-05 5.2225e-05 -1.1933e-05)
(1.62425e-05 5.7635e-05 1.47083e-05)
(1.57732e-05 5.59544e-05 5.60587e-06)
(1.53997e-05 5.46136e-05 -3.03334e-06)
(1.51128e-05 5.35808e-05 -1.19349e-05)
(1.16706e-05 5.87391e-05 1.47119e-05)
(1.13357e-05 5.70266e-05 5.60864e-06)
(1.10694e-05 5.56605e-05 -3.03162e-06)
(1.08652e-05 5.46081e-05 -1.19345e-05)
(7.0258e-06 5.94831e-05 1.47198e-05)
(6.82869e-06 5.77499e-05 5.61628e-06)
(6.671e-06 5.63668e-05 -3.02497e-06)
(6.55067e-06 5.5301e-05 -1.19298e-05)
(2.33941e-06 5.98694e-05 1.47351e-05)
(2.2802e-06 5.81249e-05 5.63231e-06)
(2.22985e-06 5.67308e-05 -3.00891e-06)
(2.19399e-06 5.56566e-05 -1.19158e-05)
(8.48077e-05 3.32281e-06 1.24919e-05)
(8.29669e-05 3.25994e-06 4.30243e-06)
(8.1242e-05 3.19792e-06 -3.61658e-06)
(7.96058e-05 3.14435e-06 -1.1634e-05)
(8.42695e-05 9.96142e-06 1.24802e-05)
(8.24377e-05 9.75341e-06 4.29049e-06)
(8.07221e-05 9.55819e-06 -3.62836e-06)
(7.90947e-05 9.37469e-06 -1.16441e-05)
(8.32179e-05 1.65402e-05 1.24732e-05)
(8.14073e-05 1.61872e-05 4.28399e-06)
(7.97121e-05 1.58573e-05 -3.63389e-06)
(7.81047e-05 1.55451e-05 -1.16479e-05)
(8.16548e-05 2.30159e-05 1.247e-05)
(7.98775e-05 2.25209e-05 4.28161e-06)
(7.82136e-05 2.2058e-05 -3.63525e-06)
(7.66358e-05 2.16195e-05 -1.16481e-05)
(7.95901e-05 2.93493e-05 1.24695e-05)
(7.78573e-05 2.87156e-05 4.28193e-06)
(7.6235e-05 2.81227e-05 -3.63401e-06)
(7.46968e-05 2.75607e-05 -1.16458e-05)
(7.70361e-05 3.55015e-05 1.24709e-05)
(7.53586e-05 3.47332e-05 4.28395e-06)
(7.3788e-05 3.40141e-05 -3.63124e-06)
(7.22989e-05 3.33323e-05 -1.16422e-05)
(7.40082e-05 4.14348e-05 1.24736e-05)
(7.23964e-05 4.05367e-05 4.28693e-06)
(7.08873e-05 3.96959e-05 -3.62773e-06)
(6.94565e-05 3.88987e-05 -1.1638e-05)
(7.05248e-05 4.71127e-05 1.24768e-05)
(6.89885e-05 4.60903e-05 4.29024e-06)
(6.75504e-05 4.51331e-05 -3.62414e-06)
(6.61869e-05 4.42253e-05 -1.1634e-05)
(6.66068e-05 5.25005e-05 1.24801e-05)
(6.51558e-05 5.13601e-05 4.29325e-06)
(6.37977e-05 5.02921e-05 -3.62111e-06)
(6.25102e-05 4.92795e-05 -1.16307e-05)
(6.2278e-05 5.75656e-05 1.24825e-05)
(6.09219e-05 5.63138e-05 4.2952e-06)
(5.96527e-05 5.51416e-05 -3.6193e-06)
(5.84494e-05 5.40302e-05 -1.16288e-05)
(5.75656e-05 6.2278e-05 1.24825e-05)
(5.63138e-05 6.09219e-05 4.2952e-06)
(5.51417e-05 5.96527e-05 -3.6193e-06)
(5.40302e-05 5.84494e-05 -1.16288e-05)
(5.25005e-05 6.66068e-05 1.24801e-05)
(5.13601e-05 6.51558e-05 4.29325e-06)
(5.02921e-05 6.37977e-05 -3.62111e-06)
(4.92795e-05 6.25102e-05 -1.16307e-05)
(4.71127e-05 7.05248e-05 1.24768e-05)
(4.60903e-05 6.89885e-05 4.29025e-06)
(4.51331e-05 6.75504e-05 -3.62414e-06)
(4.42254e-05 6.61869e-05 -1.1634e-05)
(4.14348e-05 7.40082e-05 1.24736e-05)
(4.05367e-05 7.23964e-05 4.28694e-06)
(3.96959e-05 7.08873e-05 -3.62772e-06)
(3.88987e-05 6.94565e-05 -1.1638e-05)
(3.55015e-05 7.70361e-05 1.24709e-05)
(3.47332e-05 7.53586e-05 4.28396e-06)
(3.40141e-05 7.37881e-05 -3.63123e-06)
(3.33324e-05 7.22989e-05 -1.16422e-05)
(2.93493e-05 7.95901e-05 1.24695e-05)
(2.87156e-05 7.78573e-05 4.28194e-06)
(2.81227e-05 7.6235e-05 -3.634e-06)
(2.75608e-05 7.46968e-05 -1.16458e-05)
(2.30159e-05 8.16549e-05 1.247e-05)
(2.25209e-05 7.98776e-05 4.28162e-06)
(2.20581e-05 7.82136e-05 -3.63523e-06)
(2.16195e-05 7.66359e-05 -1.16481e-05)
(1.65402e-05 8.3218e-05 1.24732e-05)
(1.61872e-05 8.14073e-05 4.284e-06)
(1.58573e-05 7.97121e-05 -3.63388e-06)
(1.55451e-05 7.81047e-05 -1.16479e-05)
(9.96143e-06 8.42696e-05 1.24802e-05)
(9.75342e-06 8.24377e-05 4.29051e-06)
(9.5582e-06 8.07221e-05 -3.62834e-06)
(9.37469e-06 7.90947e-05 -1.16441e-05)
(3.32281e-06 8.48077e-05 1.24919e-05)
(3.25994e-06 8.29669e-05 4.30245e-06)
(3.19792e-06 8.1242e-05 -3.61657e-06)
(3.14435e-06 7.96058e-05 -1.1634e-05)
(0.000104584 4.09997e-06 7.99921e-06)
(0.000102589 4.03159e-06 1.69951e-06)
(0.0001006 3.96017e-06 -4.45704e-06)
(9.85907e-05 3.89487e-06 -1.06219e-05)
(0.000103924 1.22865e-05 7.99219e-06)
(0.000101937 1.20611e-05 1.69269e-06)
(9.99569e-05 1.18361e-05 -4.46347e-06)
(9.79572e-05 1.16111e-05 -1.0627e-05)
(0.000102628 2.0399e-05 7.98752e-06)
(0.000100664 2.0017e-05 1.68884e-06)
(9.87066e-05 1.96368e-05 -4.46632e-06)
(9.67314e-05 1.92534e-05 -1.06285e-05)
(0.0001007 2.83846e-05 7.98555e-06)
(9.8772e-05 2.78487e-05 1.68785e-06)
(9.6851e-05 2.73151e-05 -4.46622e-06)
(9.49122e-05 2.67765e-05 -1.06272e-05)
(9.81537e-05 3.61947e-05 7.98583e-06)
(9.62736e-05 3.55082e-05 1.68906e-06)
(9.44006e-05 3.48245e-05 -4.464e-06)
(9.25103e-05 3.41343e-05 -1.06239e-05)
(9.50038e-05 4.37814e-05 7.9878e-06)
(9.31835e-05 4.29488e-05 1.69178e-06)
(9.13702e-05 4.21192e-05 -4.46039e-06)
(8.95402e-05 4.12818e-05 -1.06193e-05)
(9.12694e-05 5.10984e-05 7.99092e-06)
(8.95204e-05 5.01247e-05 1.69539e-06)
(8.77781e-05 4.91545e-05 -4.45611e-06)
(8.60197e-05 4.81751e-05 -1.06142e-05)
(8.69734e-05 5.81006e-05 7.99461e-06)
(8.53064e-05 5.69919e-05 1.69924e-06)
(8.3646e-05 5.5887e-05 -4.45186e-06)
(8.19704e-05 5.47717e-05 -1.06094e-05)
(8.21416e-05 6.47453e-05 7.99821e-06)
(8.05672e-05 6.35082e-05 1.70264e-06)
(7.89993e-05 6.22754e-05 -4.44834e-06)
(7.7417e-05 6.10311e-05 -1.06055e-05)
(7.68034e-05 7.0992e-05 8.00081e-06)
(7.5332e-05 6.96339e-05 1.7048e-06)
(7.38667e-05 6.82807e-05 -4.44626e-06)
(7.2388e-05 6.69149e-05 -1.06034e-05)
(7.0992e-05 7.68033e-05 8.00081e-06)
(6.96339e-05 7.5332e-05 1.7048e-06)
(6.82807e-05 7.38667e-05 -4.44626e-06)
(6.69149e-05 7.2388e-05 -1.06034e-05)
(6.47454e-05 8.21416e-05 7.99821e-06)
(6.35082e-05 8.05672e-05 1.70264e-06)
(6.22754e-05 7.89993e-05 -4.44834e-06)
(6.10311e-05 7.7417e-05 -1.06055e-05)
(5.81007e-05 8.69734e-05 7.99462e-06)
(5.69919e-05 8.53064e-05 1.69924e-06)
(5.5887e-05 8.3646e-05 -4.45186e-06)
(5.47717e-05 8.19704e-05 -1.06094e-05)
(5.10984e-05 9.12694e-05 7.99093e-06)
(5.01247e-05 8.95204e-05 1.69539e-06)
(4.91545e-05 8.77781e-05 -4.45611e-06)
(4.81751e-05 8.60197e-05 -1.06142e-05)
(4.37814e-05 9.50038e-05 7.98781e-06)
(4.29488e-05 9.31835e-05 1.69179e-06)
(4.21192e-05 9.13702e-05 -4.46038e-06)
(4.12818e-05 8.95402e-05 -1.06193e-05)
(3.61947e-05 9.81537e-05 7.98584e-06)
(3.55083e-05 9.62736e-05 1.68907e-06)
(3.48245e-05 9.44006e-05 -4.46399e-06)
(3.41343e-05 9.25103e-05 -1.06239e-05)
(2.83846e-05 0.0001007 7.98556e-06)
(2.78487e-05 9.8772e-05 1.68786e-06)
(2.73151e-05 9.6851e-05 -4.46621e-06)
(2.67765e-05 9.49122e-05 -1.06272e-05)
(2.0399e-05 0.000102628 7.98754e-06)
(2.0017e-05 0.000100664 1.68886e-06)
(1.96368e-05 9.87066e-05 -4.4663e-06)
(1.92535e-05 9.67314e-05 -1.06285e-05)
(1.22865e-05 0.000103924 7.9922e-06)
(1.20611e-05 0.000101937 1.69271e-06)
(1.18361e-05 9.99569e-05 -4.46346e-06)
(1.16111e-05 9.79572e-05 -1.0627e-05)
(4.09997e-06 0.000104584 7.99923e-06)
(4.03159e-06 0.000102589 1.69952e-06)
(3.96017e-06 0.0001006 -4.45703e-06)
(3.89487e-06 9.85907e-05 -1.06219e-05)
(0.000118068 4.62801e-06 2.31573e-06)
(0.000115931 4.55487e-06 -1.67553e-06)
(0.000113763 4.4772e-06 -5.61089e-06)
(0.000111538 4.40517e-06 -9.51595e-06)
(0.000117324 1.38689e-05 2.31267e-06)
(0.000115195 1.3628e-05 -1.67804e-06)
(0.000113036 1.33833e-05 -5.61284e-06)
(0.000110821 1.31347e-05 -9.51689e-06)
(0.00011586 2.30266e-05 2.31057e-06)
(0.000113755 2.26183e-05 -1.67907e-06)
(0.000111621 2.22047e-05 -5.61277e-06)
(0.000109433 2.17809e-05 -9.51554e-06)
(0.000113682 3.2041e-05 2.31013e-06)
(0.000111616 3.14681e-05 -1.67829e-06)
(0.000109522 3.08874e-05 -5.61074e-06)
(0.000107374 3.02918e-05 -9.51219e-06)
(0.000110806 4.08572e-05 2.31129e-06)
(0.000108792 4.01231e-05 -1.67592e-06)
(0.00010675 3.93788e-05 -5.6071e-06)
(0.000104655 3.86152e-05 -9.50721e-06)
(0.000107249 4.94215e-05 2.31378e-06)
(0.000105299 4.85305e-05 -1.67237e-06)
(0.000103322 4.76271e-05 -5.60237e-06)
(0.000101294 4.67004e-05 -9.5012e-06)
(0.000103033 5.76813e-05 2.31721e-06)
(0.000101158 5.6639e-05 -1.66815e-06)
(9.92585e-05 5.55821e-05 -5.59718e-06)
(9.73103e-05 5.44979e-05 -9.49491e-06)
(9.81819e-05 6.55861e-05 2.3211e-06)
(9.63957e-05 6.43988e-05 -1.66383e-06)
(9.45852e-05 6.31948e-05 -5.59221e-06)
(9.27287e-05 6.19598e-05 -9.4891e-06)
(9.27268e-05 7.30875e-05 2.32483e-06)
(9.10398e-05 7.17623e-05 -1.6601e-06)
(8.93302e-05 7.04186e-05 -5.58817e-06)
(8.75773e-05 6.90405e-05 -9.48455e-06)
(8.67002e-05 8.01396e-05 2.3275e-06)
(8.51237e-05 7.86846e-05 -1.65777e-06)
(8.35262e-05 7.72094e-05 -5.58583e-06)
(8.1888e-05 7.56965e-05 -9.482e-06)
(8.01396e-05 8.67002e-05 2.3275e-06)
(7.86846e-05 8.51237e-05 -1.65777e-06)
(7.72094e-05 8.35261e-05 -5.58583e-06)
(7.56965e-05 8.1888e-05 -9.482e-06)
(7.30875e-05 9.27268e-05 2.32483e-06)
(7.17623e-05 9.10398e-05 -1.6601e-06)
(7.04186e-05 8.93302e-05 -5.58817e-06)
(6.90405e-05 8.75772e-05 -9.48455e-06)
(6.55861e-05 9.81819e-05 2.32111e-06)
(6.43988e-05 9.63957e-05 -1.66382e-06)
(6.31948e-05 9.45852e-05 -5.5922e-06)
(6.19598e-05 9.27287e-05 -9.4891e-06)
(5.76813e-05 0.000103033 2.31722e-06)
(5.6639e-05 0.000101158 -1.66814e-06)
(5.55821e-05 9.92585e-05 -5.59718e-06)
(5.44979e-05 9.73103e-05 -9.49491e-06)
(4.94215e-05 0.000107249 2.31379e-06)
(4.85305e-05 0.000105299 -1.67236e-06)
(4.76272e-05 0.000103322 -5.60237e-06)
(4.67004e-05 0.000101294 -9.5012e-06)
(4.08572e-05 0.000110806 2.3113e-06)
(4.01231e-05 0.000108792 -1.67591e-06)
(3.93788e-05 0.00010675 -5.60709e-06)
(3.86152e-05 0.000104655 -9.5072e-06)
(3.2041e-05 0.000113682 2.31014e-06)
(3.14681e-05 0.000111616 -1.67828e-06)
(3.08874e-05 0.000109522 -5.61073e-06)
(3.02918e-05 0.000107374 -9.51218e-06)
(2.30266e-05 0.00011586 2.31058e-06)
(2.26183e-05 0.000113755 -1.67906e-06)
(2.22047e-05 0.000111622 -5.61276e-06)
(2.17809e-05 0.000109433 -9.51553e-06)
(1.38689e-05 0.000117324 2.31268e-06)
(1.3628e-05 0.000115195 -1.67803e-06)
(1.33833e-05 0.000113036 -5.61283e-06)
(1.31347e-05 0.000110821 -9.51688e-06)
(4.62802e-06 0.000118068 2.31574e-06)
(4.55488e-06 0.000115931 -1.67552e-06)
(4.4772e-06 0.000113763 -5.61088e-06)
(4.40517e-06 0.000111538 -9.51594e-06)
(0.000125038 4.89936e-06 -3.84389e-06)
(0.000122812 4.82352e-06 -5.43613e-06)
(0.000120557 4.74299e-06 -7.03494e-06)
(0.000118244 4.66847e-06 -8.59462e-06)
(0.000124249 1.46837e-05 -3.84394e-06)
(0.000122032 1.44337e-05 -5.43541e-06)
(0.000119785 1.418e-05 -7.03352e-06)
(0.000117483 1.39227e-05 -8.59238e-06)
(0.000122697 2.438e-05 -3.84381e-06)
(0.000120504 2.39562e-05 -5.43397e-06)
(0.000118284 2.35273e-05 -7.03085e-06)
(0.00011601 2.30883e-05 -8.58841e-06)
(0.000120389 3.39248e-05 -3.84287e-06)
(0.000118236 3.33297e-05 -5.43147e-06)
(0.000116057 3.27273e-05 -7.02681e-06)
(0.000113825 3.211e-05 -8.58277e-06)
(0.000117341 4.32597e-05 -3.84098e-06)
(0.000115242 4.24967e-05 -5.42793e-06)
(0.000113116 4.17241e-05 -7.02159e-06)
(0.00011094 4.09325e-05 -8.57578e-06)
(0.000113571 5.23279e-05 -3.83818e-06)
(0.000111539 5.14014e-05 -5.42357e-06)
(0.000109481 5.04632e-05 -7.01559e-06)
(0.000107373 4.95019e-05 -8.56801e-06)
(0.000109103 6.10739e-05 -3.8347e-06)
(0.00010715 5.99894e-05 -5.41879e-06)
(0.000105173 5.88912e-05 -7.00938e-06)
(0.000103148 5.7766e-05 -8.56019e-06)
(0.000103965 6.94442e-05 -3.83088e-06)
(0.000102104 6.82083e-05 -5.41409e-06)
(0.000100219 6.69567e-05 -7.0036e-06)
(9.82896e-05 6.56745e-05 -8.55314e-06)
(9.81865e-05 7.73876e-05 -3.82724e-06)
(9.64289e-05 7.60078e-05 -5.41012e-06)
(9.46498e-05 7.46104e-05 -6.99902e-06)
(9.28279e-05 7.3179e-05 -8.54771e-06)
(9.18037e-05 8.48558e-05 -3.82463e-06)
(9.01613e-05 8.33402e-05 -5.40768e-06)
(8.84991e-05 8.18056e-05 -6.9964e-06)
(8.67968e-05 8.02338e-05 -8.5447e-06)
(8.48558e-05 9.18037e-05 -3.82463e-06)
(8.33402e-05 9.01613e-05 -5.40768e-06)
(8.18056e-05 8.84991e-05 -6.9964e-06)
(8.02339e-05 8.67968e-05 -8.5447e-06)
(7.73877e-05 9.81865e-05 -3.82724e-06)
(7.60078e-05 9.64289e-05 -5.41012e-06)
(7.46104e-05 9.46497e-05 -6.99902e-06)
(7.3179e-05 9.28278e-05 -8.54771e-06)
(6.94442e-05 0.000103965 -3.83087e-06)
(6.82083e-05 0.000102104 -5.41409e-06)
(6.69567e-05 0.000100219 -7.0036e-06)
(6.56745e-05 9.82896e-05 -8.55314e-06)
(6.10739e-05 0.000109103 -3.8347e-06)
(5.99894e-05 0.00010715 -5.41878e-06)
(5.88912e-05 0.000105173 -7.00937e-06)
(5.77661e-05 0.000103148 -8.56019e-06)
(5.23279e-05 0.000113571 -3.83818e-06)
(5.14014e-05 0.000111539 -5.42357e-06)
(5.04632e-05 0.000109481 -7.01559e-06)
(4.95019e-05 0.000107373 -8.56801e-06)
(4.32597e-05 0.000117341 -3.84097e-06)
(4.24968e-05 0.000115242 -5.42792e-06)
(4.17242e-05 0.000113116 -7.02159e-06)
(4.09325e-05 0.00011094 -8.57578e-06)
(3.39248e-05 0.000120389 -3.84286e-06)
(3.33297e-05 0.000118236 -5.43147e-06)
(3.27273e-05 0.000116057 -7.02681e-06)
(3.211e-05 0.000113825 -8.58277e-06)
(2.438e-05 0.000122697 -3.8438e-06)
(2.39562e-05 0.000120504 -5.43396e-06)
(2.35273e-05 0.000118284 -7.03084e-06)
(2.30883e-05 0.00011601 -8.58841e-06)
(1.46837e-05 0.000124249 -3.84394e-06)
(1.44337e-05 0.000122032 -5.4354e-06)
(1.418e-05 0.000119785 -7.03351e-06)
(1.39227e-05 0.000117483 -8.59237e-06)
(4.89936e-06 0.000125038 -3.84388e-06)
(4.82352e-06 0.000122813 -5.43612e-06)
(4.74299e-06 0.000120557 -7.03494e-06)
(4.66848e-06 0.000118244 -8.59461e-06)
(0.000125724 4.92353e-06 -9.98728e-06)
(0.00012348 4.84765e-06 -9.2766e-06)
(0.000121227 4.76767e-06 -8.62297e-06)
(0.000118937 4.69433e-06 -7.9339e-06)
(0.000124928 1.47581e-05 -9.98508e-06)
(0.000122693 1.45076e-05 -9.27345e-06)
(0.000120449 1.42556e-05 -8.61898e-06)
(0.000118169 1.40022e-05 -7.92921e-06)
(0.000123364 2.45043e-05 -9.98322e-06)
(0.000121154 2.40792e-05 -9.27005e-06)
(0.000118937 2.36529e-05 -8.61415e-06)
(0.000116684 2.32204e-05 -7.92299e-06)
(0.00012104 3.4098e-05 -9.98128e-06)
(0.00011887 3.35008e-05 -9.26613e-06)
(0.000116693 3.29016e-05 -8.60833e-06)
(0.000114481 3.22931e-05 -7.91517e-06)
(0.000117971 4.34808e-05 -9.97899e-06)
(0.000115855 4.27145e-05 -9.26161e-06)
(0.000113731 4.19456e-05 -8.60163e-06)
(0.000111575 4.11645e-05 -7.90614e-06)
(0.000114177 5.25955e-05 -9.97623e-06)
(0.000112127 5.16642e-05 -9.25663e-06)
(0.000110071 5.07298e-05 -8.59442e-06)
(0.000107983 4.97807e-05 -7.89652e-06)
(0.000109681 6.13865e-05 -9.97303e-06)
(0.000107711 6.02956e-05 -9.25147e-06)
(0.000105735 5.9201e-05 -8.58722e-06)
(0.000103729 5.80893e-05 -7.88706e-06)
(0.000104511 6.98003e-05 -9.96958e-06)
(0.000102634 6.85561e-05 -9.24656e-06)
(0.000100751 6.73078e-05 -8.58069e-06)
(9.88391e-05 6.604e-05 -7.87868e-06)
(9.86988e-05 7.77856e-05 -9.96628e-06)
(9.69263e-05 7.63956e-05 -9.24248e-06)
(9.51488e-05 7.5001e-05 -8.5756e-06)
(9.33442e-05 7.35848e-05 -7.8723e-06)
(9.22798e-05 8.52938e-05 -9.96386e-06)
(9.06241e-05 8.37664e-05 -9.23999e-06)
(8.89637e-05 8.22341e-05 -8.57272e-06)
(8.7278e-05 8.06783e-05 -7.8688e-06)
(8.52938e-05 9.22798e-05 -9.96386e-06)
(8.37664e-05 9.06241e-05 -9.23999e-06)
(8.22341e-05 8.89637e-05 -8.57271e-06)
(8.06783e-05 8.7278e-05 -7.8688e-06)
(7.77856e-05 9.86987e-05 -9.96628e-06)
(7.63956e-05 9.69263e-05 -9.24248e-06)
(7.50011e-05 9.51488e-05 -8.57559e-06)
(7.35849e-05 9.33441e-05 -7.8723e-06)
(6.98003e-05 0.000104511 -9.96958e-06)
(6.85561e-05 0.000102634 -9.24655e-06)
(6.73078e-05 0.000100751 -8.58069e-06)
(6.604e-05 9.88391e-05 -7.87868e-06)
(6.13865e-05 0.000109681 -9.97302e-06)
(6.02956e-05 0.000107711 -9.25147e-06)
(5.9201e-05 0.000105735 -8.58722e-06)
(5.80893e-05 0.000103729 -7.88706e-06)
(5.25955e-05 0.000114177 -9.97622e-06)
(5.16642e-05 0.000112127 -9.25663e-06)
(5.07298e-05 0.000110071 -8.59442e-06)
(4.97807e-05 0.000107983 -7.89651e-06)
(4.34809e-05 0.000117971 -9.97898e-06)
(4.27145e-05 0.000115855 -9.26161e-06)
(4.19456e-05 0.000113731 -8.60163e-06)
(4.11646e-05 0.000111575 -7.90614e-06)
(3.4098e-05 0.00012104 -9.98127e-06)
(3.35008e-05 0.00011887 -9.26612e-06)
(3.29016e-05 0.000116693 -8.60833e-06)
(3.22931e-05 0.000114482 -7.91517e-06)
(2.45043e-05 0.000123364 -9.98321e-06)
(2.40792e-05 0.000121154 -9.27004e-06)
(2.36529e-05 0.000118937 -8.61415e-06)
(2.32204e-05 0.000116684 -7.92298e-06)
(1.47581e-05 0.000124928 -9.98507e-06)
(1.45076e-05 0.000122693 -9.27345e-06)
(1.42556e-05 0.000120449 -8.61898e-06)
(1.40022e-05 0.000118169 -7.92921e-06)
(4.92354e-06 0.000125724 -9.98727e-06)
(4.84765e-06 0.00012348 -9.27659e-06)
(4.76767e-06 0.000121227 -8.62297e-06)
(4.69433e-06 0.000118937 -7.9339e-06)
(0.000120595 4.71915e-06 -1.57336e-05)
(0.000118408 4.64597e-06 -1.29396e-05)
(0.000116244 4.56977e-06 -1.025e-05)
(0.000114073 4.50091e-06 -7.52946e-06)
(0.000119829 1.41476e-05 -1.57296e-05)
(0.000117651 1.39055e-05 -1.29345e-05)
(0.000115495 1.36653e-05 -1.02439e-05)
(0.000113334 1.34273e-05 -7.52277e-06)
(0.000118325 2.34912e-05 -1.57265e-05)
(0.00011617 2.30799e-05 -1.29296e-05)
(0.000114039 2.26733e-05 -1.02374e-05)
(0.000111904 2.22667e-05 -7.51474e-06)
(0.00011609 3.26885e-05 -1.5724e-05)
(0.000113973 3.211e-05 -1.29247e-05)
(0.000111881 3.1538e-05 -1.02302e-05)
(0.000109785 3.09653e-05 -7.50516e-06)
(0.000113139 4.16833e-05 -1.57217e-05)
(0.000111075 4.09402e-05 -1.29196e-05)
(0.000109034 4.02054e-05 -1.02224e-05)
(0.000106989 3.94695e-05 -7.49445e-06)
(0.000109493 5.0421e-05 -1.57193e-05)
(0.000107494 4.9517e-05 -1.29143e-05)
(0.000105517 4.8623e-05 -1.02143e-05)
(0.000103537 4.77278e-05 -7.48327e-06)
(0.000105174 5.88484e-05 -1.57167e-05)
(0.000103252 5.77883e-05 -1.29091e-05)
(0.000101353 5.67401e-05 -1.02064e-05)
(9.94502e-05 5.56903e-05 -7.47244e-06)
(0.00010021 6.69148e-05 -1.57139e-05)
(9.83787e-05 6.57045e-05 -1.29042e-05)
(9.65685e-05 6.45078e-05 -1.01994e-05)
(9.47559e-05 6.33095e-05 -7.46293e-06)
(9.46315e-05 7.45712e-05 -1.57112e-05)
(9.29027e-05 7.32178e-05 -1.29002e-05)
(9.11941e-05 7.18797e-05 -1.01939e-05)
(8.94835e-05 7.05398e-05 -7.45574e-06)
(8.84726e-05 8.17716e-05 -1.57091e-05)
(8.68583e-05 8.02832e-05 -1.28977e-05)
(8.52629e-05 7.88118e-05 -1.01909e-05)
(8.36657e-05 7.73386e-05 -7.45182e-06)
(8.17716e-05 8.84726e-05 -1.57091e-05)
(8.02832e-05 8.68583e-05 -1.28977e-05)
(7.88118e-05 8.52629e-05 -1.01909e-05)
(7.73386e-05 8.36657e-05 -7.45182e-06)
(7.45712e-05 9.46315e-05 -1.57112e-05)
(7.32178e-05 9.29027e-05 -1.29002e-05)
(7.18797e-05 9.11941e-05 -1.01939e-05)
(7.05399e-05 8.94835e-05 -7.45574e-06)
(6.69148e-05 0.00010021 -1.57139e-05)
(6.57045e-05 9.83787e-05 -1.29042e-05)
(6.45078e-05 9.65685e-05 -1.01994e-05)
(6.33095e-05 9.47559e-05 -7.46292e-06)
(5.88484e-05 0.000105174 -1.57167e-05)
(5.77883e-05 0.000103253 -1.29091e-05)
(5.67401e-05 0.000101353 -1.02064e-05)
(5.56903e-05 9.94502e-05 -7.47244e-06)
(5.0421e-05 0.000109493 -1.57193e-05)
(4.9517e-05 0.000107494 -1.29143e-05)
(4.8623e-05 0.000105517 -1.02143e-05)
(4.77278e-05 0.000103537 -7.48327e-06)
(4.16833e-05 0.000113139 -1.57217e-05)
(4.09402e-05 0.000111075 -1.29196e-05)
(4.02054e-05 0.000109034 -1.02224e-05)
(3.94696e-05 0.000106989 -7.49445e-06)
(3.26885e-05 0.00011609 -1.5724e-05)
(3.211e-05 0.000113974 -1.29247e-05)
(3.1538e-05 0.000111881 -1.02302e-05)
(3.09653e-05 0.000109785 -7.50515e-06)
(2.34912e-05 0.000118325 -1.57265e-05)
(2.30799e-05 0.00011617 -1.29296e-05)
(2.26733e-05 0.000114039 -1.02374e-05)
(2.22667e-05 0.000111904 -7.51474e-06)
(1.41476e-05 0.000119829 -1.57296e-05)
(1.39055e-05 0.000117651 -1.29345e-05)
(1.36653e-05 0.000115495 -1.02439e-05)
(1.34273e-05 0.000113334 -7.52277e-06)
(4.71915e-06 0.000120595 -1.57336e-05)
(4.64597e-06 0.000118408 -1.29396e-05)
(4.56977e-06 0.000116244 -1.025e-05)
(4.50091e-06 0.000114073 -7.52946e-06)
(0.000110336 4.31295e-06 -2.07371e-05)
(0.000108273 4.24494e-06 -1.61937e-05)
(0.000106274 4.17545e-06 -1.18028e-05)
(0.000104312 4.11409e-06 -7.37983e-06)
(0.000109631 1.29326e-05 -2.07315e-05)
(0.000107576 1.27069e-05 -1.6187e-05)
(0.000105585 1.24878e-05 -1.17951e-05)
(0.000103632 1.22756e-05 -7.37154e-06)
(0.000108248 2.14745e-05 -2.07275e-05)
(0.000106215 2.10904e-05 -1.6181e-05)
(0.000104247 2.0719e-05 -1.17874e-05)
(0.000102317 2.03559e-05 -7.36235e-06)
(0.000106195 2.98821e-05 -2.07247e-05)
(0.000104197 2.93412e-05 -1.61755e-05)
(0.000102264 2.88179e-05 -1.17795e-05)
(0.000100369 2.83058e-05 -7.35178e-06)
(0.000103486 3.81042e-05 -2.07227e-05)
(0.000101537 3.74083e-05 -1.61703e-05)
(9.96508e-05 3.67352e-05 -1.17712e-05)
(9.78018e-05 3.60762e-05 -7.34023e-06)
(0.00010014 4.60908e-05 -2.07209e-05)
(9.82517e-05 4.5243e-05 -1.61651e-05)
(9.64249e-05 4.4423e-05 -1.17628e-05)
(9.46341e-05 4.36199e-05 -7.3283e-06)
(9.61798e-05 5.3794e-05 -2.07191e-05)
(9.43645e-05 5.27983e-05 -1.61601e-05)
(9.26088e-05 5.18353e-05 -1.17548e-05)
(9.0888e-05 5.0892e-05 -7.31683e-06)
(9.16305e-05 6.11676e-05 -2.07172e-05)
(8.99006e-05 6.00292e-05 -1.61555e-05)
(8.82279e-05 5.89282e-05 -1.17476e-05)
(8.65887e-05 5.78498e-05 -7.30679e-06)
(8.65213e-05 6.81679e-05 -2.07151e-05)
(8.48887e-05 6.68931e-05 -1.61518e-05)
(8.33105e-05 6.56603e-05 -1.17422e-05)
(8.17642e-05 6.44527e-05 -7.29924e-06)
(8.08838e-05 7.47529e-05 -2.07134e-05)
(7.93602e-05 7.33494e-05 -1.61496e-05)
(7.78874e-05 7.19923e-05 -1.17391e-05)