/*--------------------------------*- C++ -*----------------------------------*\
| =========                 |                                                 |
| \\      /  F ield         | foam-extend: Open Source CFD                    |
|  \\    /   O peration     | Version:     3.1                                |
|   \\  /    A nd           | Web:         http://www.extend-project.de       |
|    \\/     M anipulation  |                                                 |
\*---------------------------------------------------------------------------*/
FoamFile
{
    version     2.0;
    format      ascii;
    class       volVectorField;
    location    "0.002";
    object      D_0_0;
}
// * * * * * * * * * * * * * * * * * * * * * * * * * * * * * * * * * * * * * //

dimensions      [0 1 0 0 0 0 0];

internalField   nonuniform List<vector> 
6400
(
(7.41554e-06 2.55251e-07 6.07909e-06)
(5.79899e-06 2.00556e-07 1.98928e-06)
(5.26118e-06 1.79221e-07 -1.06151e-06)
(5.69428e-06 1.8899e-07 -4.85571e-06)
(7.35531e-06 8.48636e-07 6.08434e-06)
(5.75507e-06 6.63753e-07 1.99745e-06)
(5.2241e-06 6.02478e-07 -1.05254e-06)
(5.66162e-06 6.53538e-07 -4.84657e-06)
(7.26126e-06 1.43088e-06 6.08212e-06)
(5.68153e-06 1.11902e-06 1.99728e-06)
(5.15766e-06 1.01649e-06 -1.05203e-06)
(5.59034e-06 1.10332e-06 -4.8458e-06)
(7.12404e-06 2.00074e-06 6.0805e-06)
(5.57427e-06 1.56525e-06 1.99651e-06)
(5.06033e-06 1.42175e-06 -1.05229e-06)
(5.48498e-06 1.54249e-06 -4.84558e-06)
(6.9435e-06 2.55616e-06 6.07968e-06)
(5.43301e-06 2.00023e-06 1.99615e-06)
(4.93209e-06 1.81667e-06 -1.0523e-06)
(5.34599e-06 1.97027e-06 -4.84517e-06)
(6.72046e-06 3.09448e-06 6.07945e-06)
(5.25838e-06 2.42173e-06 1.99615e-06)
(4.7735e-06 2.1993e-06 -1.05206e-06)
(5.17404e-06 2.38477e-06 -4.84459e-06)
(6.45615e-06 3.61285e-06 6.07965e-06)
(5.05137e-06 2.82748e-06 1.99643e-06)
(4.58546e-06 2.56758e-06 -1.05164e-06)
(4.97016e-06 2.78377e-06 -4.84389e-06)
(6.15211e-06 4.1084e-06 6.08018e-06)
(4.81323e-06 3.21521e-06 1.99688e-06)
(4.36916e-06 2.91943e-06 -1.05114e-06)
(4.73566e-06 3.165e-06 -4.84317e-06)
(5.81011e-06 4.57835e-06 6.08097e-06)
(4.5454e-06 3.58274e-06 1.99745e-06)
(4.12598e-06 3.25286e-06 -1.05063e-06)
(4.47212e-06 3.52626e-06 -4.84251e-06)
(5.43208e-06 5.02014e-06 6.08199e-06)
(4.24962e-06 3.92805e-06 1.99799e-06)
(3.85762e-06 3.56604e-06 -1.05025e-06)
(4.18141e-06 3.86557e-06 -4.84209e-06)
(5.02014e-06 5.43208e-06 6.08199e-06)
(3.92804e-06 4.24962e-06 1.99799e-06)
(3.56604e-06 3.85762e-06 -1.05025e-06)
(3.86556e-06 4.18141e-06 -4.84209e-06)
(4.57834e-06 5.81011e-06 6.08097e-06)
(3.58274e-06 4.5454e-06 1.99745e-06)
(3.25285e-06 4.12598e-06 -1.05063e-06)
(3.52625e-06 4.47212e-06 -4.84251e-06)
(4.1084e-06 6.15211e-06 6.08018e-06)
(3.21521e-06 4.81322e-06 1.99688e-06)
(2.91943e-06 4.36915e-06 -1.05114e-06)
(3.165e-06 4.73566e-06 -4.84317e-06)
(3.61285e-06 6.45615e-06 6.07965e-06)
(2.82747e-06 5.05137e-06 1.99643e-06)
(2.56757e-06 4.58546e-06 -1.05164e-06)
(2.78377e-06 4.97016e-06 -4.84389e-06)
(3.09448e-06 6.72046e-06 6.07945e-06)
(2.42173e-06 5.25838e-06 1.99615e-06)
(2.1993e-06 4.7735e-06 -1.05205e-06)
(2.38476e-06 5.17404e-06 -4.84458e-06)
(2.55616e-06 6.9435e-06 6.07968e-06)
(2.00023e-06 5.433e-06 1.99615e-06)
(1.81667e-06 4.93209e-06 -1.0523e-06)
(1.97027e-06 5.34598e-06 -4.84517e-06)
(2.00074e-06 7.12404e-06 6.0805e-06)
(1.56525e-06 5.57426e-06 1.99652e-06)
(1.42175e-06 5.06033e-06 -1.05228e-06)
(1.54249e-06 5.48497e-06 -4.84558e-06)
(1.43088e-06 7.26125e-06 6.08212e-06)
(1.11901e-06 5.68152e-06 1.99729e-06)
(1.01649e-06 5.15765e-06 -1.05203e-06)
(1.10332e-06 5.59033e-06 -4.8458e-06)
(8.48635e-07 7.3553e-06 6.08434e-06)
(6.63751e-07 5.75506e-06 1.99745e-06)
(6.02476e-07 5.2241e-06 -1.05254e-06)
(6.53536e-07 5.66161e-06 -4.84657e-06)
(2.55251e-07 7.41553e-06 6.07909e-06)
(2.00555e-07 5.79898e-06 1.98928e-06)
(1.7922e-07 5.26118e-06 -1.06151e-06)
(1.88989e-07 5.69428e-06 -4.85571e-06)
(3.25756e-05 1.25999e-06 1.33407e-05)
(3.07602e-05 1.19572e-06 5.0907e-06)
(2.97301e-05 1.15769e-06 -2.3662e-06)
(2.94401e-05 1.14888e-06 -1.03728e-05)
(3.23526e-05 3.80995e-06 1.33266e-05)
(3.05543e-05 3.60307e-06 5.07793e-06)
(2.95383e-05 3.48672e-06 -2.37874e-06)
(2.9257e-05 3.45648e-06 -1.03849e-05)
(3.19444e-05 6.33873e-06 1.33202e-05)
(3.01692e-05 5.9895e-06 5.07301e-06)
(2.91669e-05 5.79368e-06 -2.38256e-06)
(2.88904e-05 5.7417e-06 -1.03873e-05)
(3.13426e-05 8.82733e-06 1.33174e-05)
(2.9601e-05 8.33917e-06 5.07122e-06)
(2.86176e-05 8.06485e-06 -2.38331e-06)
(2.83465e-05 7.99104e-06 -1.03868e-05)
(3.05493e-05 1.12605e-05 1.33164e-05)
(2.88517e-05 1.06369e-05 5.07105e-06)
(2.78932e-05 1.02859e-05 -2.38267e-06)
(2.76289e-05 1.01907e-05 -1.03852e-05)
(2.95686e-05 1.36233e-05 1.33166e-05)
(2.79253e-05 1.28683e-05 5.07183e-06)
(2.69975e-05 1.24429e-05 -2.3813e-06)
(2.67416e-05 1.23269e-05 -1.03831e-05)
(2.84061e-05 1.59013e-05 1.33177e-05)
(2.68272e-05 1.50196e-05 5.07318e-06)
(2.59357e-05 1.45225e-05 -2.37957e-06)
(2.56897e-05 1.43866e-05 -1.03808e-05)
(2.70688e-05 1.80808e-05 1.33193e-05)
(2.55639e-05 1.70778e-05 5.07482e-06)
(2.47142e-05 1.65121e-05 -2.37776e-06)
(2.44797e-05 1.6357e-05 -1.03786e-05)
(2.55646e-05 2.01487e-05 1.33212e-05)
(2.41431e-05 1.90304e-05 5.07645e-06)
(2.33406e-05 1.83994e-05 -2.37615e-06)
(2.31192e-05 1.82261e-05 -1.03767e-05)
(2.39024e-05 2.20927e-05 1.33229e-05)
(2.25736e-05 2.08658e-05 5.07764e-06)
(2.18236e-05 2.01732e-05 -2.37511e-06)
(2.16169e-05 1.99826e-05 -1.03756e-05)
(2.20927e-05 2.39024e-05 1.33229e-05)
(2.08658e-05 2.25736e-05 5.07764e-06)
(2.01732e-05 2.18236e-05 -2.37511e-06)
(1.99826e-05 2.16169e-05 -1.03756e-05)
(2.01487e-05 2.55646e-05 1.33212e-05)
(1.90304e-05 2.41431e-05 5.07645e-06)
(1.83994e-05 2.33406e-05 -2.37614e-06)
(1.82261e-05 2.31192e-05 -1.03767e-05)
(1.80808e-05 2.70688e-05 1.33193e-05)
(1.70778e-05 2.55639e-05 5.07482e-06)
(1.65121e-05 2.47142e-05 -2.37775e-06)
(1.6357e-05 2.44797e-05 -1.03786e-05)
(1.59013e-05 2.84061e-05 1.33177e-05)
(1.50196e-05 2.68272e-05 5.07319e-06)
(1.45225e-05 2.59357e-05 -2.37957e-06)
(1.43866e-05 2.56897e-05 -1.03808e-05)
(1.36233e-05 2.95686e-05 1.33166e-05)
(1.28682e-05 2.79253e-05 5.07184e-06)
(1.24429e-05 2.69975e-05 -2.38129e-06)
(1.23269e-05 2.67416e-05 -1.03831e-05)
(1.12605e-05 3.05493e-05 1.33164e-05)
(1.06369e-05 2.88517e-05 5.07106e-06)
(1.02859e-05 2.78932e-05 -2.38266e-06)
(1.01906e-05 2.76289e-05 -1.03852e-05)
(8.82732e-06 3.13426e-05 1.33174e-05)
(8.33917e-06 2.96009e-05 5.07122e-06)
(8.06484e-06 2.86176e-05 -2.38331e-06)
(7.99103e-06 2.83465e-05 -1.03868e-05)
(6.33873e-06 3.19444e-05 1.33202e-05)
(5.9895e-06 3.01692e-05 5.07302e-06)
(5.79368e-06 2.91668e-05 -2.38255e-06)
(5.74169e-06 2.88903e-05 -1.03873e-05)
(3.80995e-06 3.23526e-05 1.33266e-05)
(3.60306e-06 3.05543e-05 5.07794e-06)
(3.48671e-06 2.95383e-05 -2.37873e-06)
(3.45648e-06 2.9257e-05 -1.03849e-05)
(1.25999e-06 3.25756e-05 1.33407e-05)
(1.19572e-06 3.07602e-05 5.09071e-06)
(1.15769e-06 2.97301e-05 -2.36619e-06)
(1.14888e-06 2.944e-05 -1.03728e-05)
(6.01403e-05 2.34948e-06 1.49343e-05)
(5.83738e-05 2.2896e-06 5.70907e-06)
(5.6972e-05 2.239e-06 -3.05615e-06)
(5.59036e-05 2.20334e-06 -1.20821e-05)
(5.97517e-05 7.05687e-06 1.49192e-05)
(5.79968e-05 6.85741e-06 5.69318e-06)
(5.66062e-05 6.69895e-06 -3.07203e-06)
(5.55463e-05 6.57941e-06 -1.20958e-05)
(5.90041e-05 1.17225e-05 1.49112e-05)
(5.72702e-05 1.13835e-05 5.68557e-06)
(5.58966e-05 1.11159e-05 -3.07861e-06)
(5.485e-05 1.0913e-05 -1.21004e-05)
(5.78947e-05 1.63149e-05 1.49075e-05)
(5.61931e-05 1.58398e-05 5.68276e-06)
(5.4845e-05 1.54644e-05 -3.08034e-06)
(5.38178e-05 1.51793e-05 -1.21008e-05)
(5.64301e-05 2.08062e-05 1.49065e-05)
(5.47713e-05 2.01984e-05 5.68259e-06)
(5.34571e-05 1.97177e-05 -3.0796e-06)
(5.24557e-05 1.93523e-05 -1.20989e-05)
(5.46189e-05 2.51687e-05 1.49073e-05)
(5.30131e-05 2.44323e-05 5.68393e-06)
(5.17409e-05 2.38494e-05 -3.07755e-06)
(5.07714e-05 2.34059e-05 -1.2096e-05)
(5.24717e-05 2.93756e-05 1.49091e-05)
(5.09289e-05 2.85152e-05 5.68611e-06)
(4.97065e-05 2.78339e-05 -3.07489e-06)
(4.8775e-05 2.73153e-05 -1.20927e-05)
(5.00016e-05 3.34013e-05 1.49116e-05)
(4.85311e-05 3.24221e-05 5.68864e-06)
(4.73661e-05 3.16465e-05 -3.07213e-06)
(4.64784e-05 3.1056e-05 -1.20895e-05)
(4.72234e-05 3.72211e-05 1.49143e-05)
(4.58344e-05 3.61291e-05 5.69102e-06)
(4.47343e-05 3.52639e-05 -3.06975e-06)
(4.3896e-05 3.4605e-05 -1.20869e-05)
(4.41538e-05 4.08121e-05 1.49163e-05)
(4.28555e-05 3.96137e-05 5.69262e-06)
(4.18274e-05 3.86642e-05 -3.0683e-06)
(4.10441e-05 3.79409e-05 -1.20854e-05)
(4.08121e-05 4.41538e-05 1.49163e-05)
(3.96137e-05 4.28555e-05 5.69262e-06)
(3.86642e-05 4.18274e-05 -3.0683e-06)
(3.79409e-05 4.10441e-05 -1.20854e-05)
(3.72211e-05 4.72234e-05 1.49143e-05)
(3.61291e-05 4.58344e-05 5.69103e-06)
(3.52639e-05 4.47343e-05 -3.06975e-06)
(3.4605e-05 4.3896e-05 -1.20869e-05)
(3.34012e-05 5.00016e-05 1.49116e-05)
(3.24221e-05 4.85311e-05 5.68865e-06)
(3.16465e-05 4.73661e-05 -3.07212e-06)
(3.1056e-05 4.64784e-05 -1.20895e-05)
(2.93756e-05 5.24717e-05 1.49091e-05)
(2.85152e-05 5.09288e-05 5.68612e-06)
(2.78339e-05 4.97065e-05 -3.07488e-06)
(2.73153e-05 4.8775e-05 -1.20927e-05)
(2.51687e-05 5.46189e-05 1.49073e-05)
(2.44322e-05 5.30131e-05 5.68394e-06)
(2.38494e-05 5.17409e-05 -3.07754e-06)
(2.34059e-05 5.07714e-05 -1.2096e-05)
(2.08061e-05 5.64301e-05 1.49066e-05)
(2.01984e-05 5.47713e-05 5.6826e-06)
(1.97177e-05 5.34571e-05 -3.07959e-06)
(1.93522e-05 5.24557e-05 -1.20989e-05)
(1.63149e-05 5.78947e-05 1.49075e-05)
(1.58398e-05 5.61931e-05 5.68277e-06)
(1.54644e-05 5.4845e-05 -3.08033e-06)
(1.51793e-05 5.38178e-05 -1.21007e-05)
(1.17225e-05 5.90041e-05 1.49112e-05)
(1.13835e-05 5.72701e-05 5.68558e-06)
(1.11158e-05 5.58966e-05 -3.0786e-06)
(1.0913e-05 5.48499e-05 -1.21004e-05)
(7.05687e-06 5.97517e-05 1.49192e-05)
(6.85741e-06 5.79968e-05 5.6932e-06)
(6.69895e-06 5.66062e-05 -3.07202e-06)
(6.57941e-06 5.55463e-05 -1.20958e-05)
(2.34948e-06 6.01402e-05 1.49344e-05)
(2.2896e-06 5.83737e-05 5.70908e-06)
(2.239e-06 5.6972e-05 -3.05613e-06)
(2.20333e-06 5.59036e-05 -1.2082e-05)
(8.5448e-05 3.34719e-06 1.28109e-05)
(8.35747e-05 3.28331e-06 4.41844e-06)
(8.18359e-05 3.22081e-06 -3.70446e-06)
(8.02032e-05 3.16736e-06 -1.19196e-05)
(8.49053e-05 1.00357e-05 1.27993e-05)
(8.30412e-05 9.82418e-06 4.4066e-06)
(8.13119e-05 9.62751e-06 -3.71611e-06)
(7.96881e-05 9.44456e-06 -1.19296e-05)
(8.38453e-05 1.6664e-05 1.27923e-05)
(8.20028e-05 1.63049e-05 4.40008e-06)
(8.0294e-05 1.59725e-05 -3.72163e-06)
(7.86902e-05 1.56612e-05 -1.19334e-05)
(8.227e-05 2.31884e-05 1.2789e-05)
(8.04615e-05 2.26848e-05 4.39762e-06)
(7.87842e-05 2.22184e-05 -3.72307e-06)
(7.721e-05 2.1781e-05 -1.19336e-05)
(8.01893e-05 2.95694e-05 1.27884e-05)
(7.84261e-05 2.89247e-05 4.39782e-06)
(7.67908e-05 2.83272e-05 -3.72197e-06)
(7.5256e-05 2.77666e-05 -1.19315e-05)
(7.76157e-05 3.57679e-05 1.27897e-05)
(7.59088e-05 3.49862e-05 4.39969e-06)
(7.43257e-05 3.42614e-05 -3.71937e-06)
(7.28399e-05 3.35813e-05 -1.19281e-05)
(7.45648e-05 4.17458e-05 1.27922e-05)
(7.29246e-05 4.08319e-05 4.40253e-06)
(7.14036e-05 3.99845e-05 -3.71604e-06)
(6.9976e-05 3.91892e-05 -1.19241e-05)
(7.10548e-05 4.74663e-05 1.27953e-05)
(6.94917e-05 4.64261e-05 4.4057e-06)
(6.80421e-05 4.54612e-05 -3.71263e-06)
(6.66817e-05 4.45557e-05 -1.19203e-05)
(6.71072e-05 5.28946e-05 1.27985e-05)
(6.56308e-05 5.17342e-05 4.40859e-06)
(6.42619e-05 5.06578e-05 -3.70974e-06)
(6.29774e-05 4.96476e-05 -1.19172e-05)
(6.27457e-05 5.79978e-05 1.28009e-05)
(6.13659e-05 5.67241e-05 4.41047e-06)
(6.00866e-05 5.55427e-05 -3.708e-06)
(5.88861e-05 5.44339e-05 -1.19154e-05)
(5.79978e-05 6.27457e-05 1.28009e-05)
(5.67241e-05 6.13659e-05 4.41047e-06)
(5.55426e-05 6.00866e-05 -3.708e-06)
(5.44339e-05 5.88861e-05 -1.19154e-05)
(5.28946e-05 6.71072e-05 1.27985e-05)
(5.17342e-05 6.56308e-05 4.4086e-06)
(5.06578e-05 6.42619e-05 -3.70973e-06)
(4.96476e-05 6.29774e-05 -1.19172e-05)
(4.74663e-05 7.10548e-05 1.27953e-05)
(4.64261e-05 6.94917e-05 4.40571e-06)
(4.54612e-05 6.80421e-05 -3.71262e-06)
(4.45557e-05 6.66817e-05 -1.19203e-05)
(4.17458e-05 7.45647e-05 1.27922e-05)
(4.08319e-05 7.29246e-05 4.40253e-06)
(3.99845e-05 7.14035e-05 -3.71604e-06)
(3.91892e-05 6.9976e-05 -1.19241e-05)
(3.57679e-05 7.76157e-05 1.27897e-05)
(3.49862e-05 7.59087e-05 4.3997e-06)
(3.42614e-05 7.43257e-05 -3.71936e-06)
(3.35813e-05 7.28399e-05 -1.1928e-05)
(2.95694e-05 8.01893e-05 1.27884e-05)
(2.89247e-05 7.84261e-05 4.39783e-06)
(2.83272e-05 7.67908e-05 -3.72195e-06)
(2.77666e-05 7.5256e-05 -1.19315e-05)
(2.31884e-05 8.227e-05 1.2789e-05)
(2.26848e-05 8.04614e-05 4.39763e-06)
(2.22184e-05 7.87842e-05 -3.72305e-06)
(2.1781e-05 7.721e-05 -1.19336e-05)
(1.6664e-05 8.38453e-05 1.27923e-05)
(1.63049e-05 8.20028e-05 4.4001e-06)
(1.59725e-05 8.0294e-05 -3.72162e-06)
(1.56612e-05 7.86902e-05 -1.19334e-05)
(1.00357e-05 8.49052e-05 1.27994e-05)
(9.82418e-06 8.30412e-05 4.40661e-06)
(9.6275e-06 8.13119e-05 -3.71609e-06)
(9.44456e-06 7.96881e-05 -1.19296e-05)
(3.34719e-06 8.5448e-05 1.28109e-05)
(3.28331e-06 8.35747e-05 4.41846e-06)
(3.22081e-06 8.18358e-05 -3.70444e-06)
(3.16736e-06 8.02031e-05 -1.19196e-05)
(0.000105829 4.1479e-06 8.45618e-06)
(0.000103787 4.07803e-06 1.85208e-06)
(0.000101774 4.00578e-06 -4.60752e-06)
(9.97627e-05 3.9404e-06 -1.1069e-05)
(0.00010516 1.24317e-05 8.44915e-06)
(0.000103127 1.22012e-05 1.84528e-06)
(0.000101123 1.19736e-05 -4.61394e-06)
(9.91216e-05 1.17485e-05 -1.10741e-05)
(0.000103848 2.06407e-05 8.44439e-06)
(0.000101838 2.02499e-05 1.84134e-06)
(9.9858e-05 1.98653e-05 -4.61689e-06)
(9.78808e-05 1.94817e-05 -1.10757e-05)
(0.000101897 2.87213e-05 8.44233e-06)
(9.9924e-05 2.81729e-05 1.84021e-06)
(9.79804e-05 2.76331e-05 -4.61698e-06)
(9.60397e-05 2.70941e-05 -1.10747e-05)
(9.93199e-05 3.66242e-05 8.44253e-06)
(9.73962e-05 3.59218e-05 1.84126e-06)
(9.55012e-05 3.523e-05 -4.61499e-06)
(9.3609e-05 3.45392e-05 -1.10716e-05)
(9.61322e-05 4.43012e-05 8.44444e-06)
(9.42699e-05 4.34492e-05 1.84382e-06)
(9.24353e-05 4.26098e-05 -4.61164e-06)
(9.06035e-05 4.17716e-05 -1.10674e-05)
(9.23534e-05 5.17051e-05 8.44752e-06)
(9.05639e-05 5.07088e-05 1.84727e-06)
(8.88012e-05 4.97271e-05 -4.60764e-06)
(8.70412e-05 4.87467e-05 -1.10627e-05)
(8.80062e-05 5.87906e-05 8.45117e-06)
(8.63007e-05 5.76561e-05 1.85098e-06)
(8.46209e-05 5.65382e-05 -4.60364e-06)
(8.29438e-05 5.54218e-05 -1.10583e-05)
(8.3117e-05 6.55142e-05 8.45473e-06)
(8.15063e-05 6.42484e-05 1.85427e-06)
(7.992e-05 6.30011e-05 -4.6003e-06)
(7.83363e-05 6.17556e-05 -1.10547e-05)
(7.77154e-05 7.1835e-05 8.45729e-06)
(7.621e-05 7.04454e-05 1.85637e-06)
(7.47276e-05 6.90764e-05 -4.59833e-06)
(7.32475e-05 6.77094e-05 -1.10527e-05)
(7.1835e-05 7.77154e-05 8.45729e-06)
(7.04454e-05 7.621e-05 1.85637e-06)
(6.90764e-05 7.47276e-05 -4.59833e-06)
(6.77094e-05 7.32475e-05 -1.10527e-05)
(6.55142e-05 8.3117e-05 8.45473e-06)
(6.42484e-05 8.15063e-05 1.85427e-06)
(6.30011e-05 7.992e-05 -4.6003e-06)
(6.17556e-05 7.83363e-05 -1.10547e-05)
(5.87906e-05 8.80062e-05 8.45117e-06)
(5.76561e-05 8.63007e-05 1.85098e-06)
(5.65382e-05 8.46209e-05 -4.60363e-06)
(5.54218e-05 8.29438e-05 -1.10583e-05)
(5.17051e-05 9.23534e-05 8.44753e-06)
(5.07088e-05 9.05639e-05 1.84728e-06)
(4.97271e-05 8.88012e-05 -4.60763e-06)
(4.87467e-05 8.70412e-05 -1.10627e-05)
(4.43012e-05 9.61322e-05 8.44445e-06)
(4.34491e-05 9.42698e-05 1.84383e-06)
(4.26098e-05 9.24352e-05 -4.61163e-06)
(4.17716e-05 9.06035e-05 -1.10674e-05)
(3.66242e-05 9.93198e-05 8.44254e-06)
(3.59218e-05 9.73962e-05 1.84127e-06)
(3.523e-05 9.55011e-05 -4.61497e-06)
(3.45392e-05 9.3609e-05 -1.10716e-05)
(2.87213e-05 0.000101897 8.44234e-06)
(2.81729e-05 9.9924e-05 1.84022e-06)
(2.76331e-05 9.79804e-05 -4.61696e-06)
(2.70941e-05 9.60397e-05 -1.10746e-05)
(2.06407e-05 0.000103848 8.4444e-06)
(2.02499e-05 0.000101838 1.84135e-06)
(1.98653e-05 9.9858e-05 -4.61687e-06)
(1.94817e-05 9.78808e-05 -1.10757e-05)
(1.24317e-05 0.00010516 8.44916e-06)
(1.22012e-05 0.000103127 1.84529e-06)
(1.19736e-05 0.000101123 -4.61393e-06)
(1.17485e-05 9.91215e-05 -1.10741e-05)
(4.1479e-06 0.000105829 8.45619e-06)
(4.07803e-06 0.000103787 1.8521e-06)
(4.00578e-06 0.000101774 -4.6075e-06)
(3.94039e-06 9.97627e-05 -1.1069e-05)
(0.000120214 4.71122e-06 2.91258e-06)
(0.000118013 4.63599e-06 -1.50008e-06)
(0.000115807 4.55694e-06 -5.85156e-06)
(0.000113568 4.48443e-06 -1.01674e-05)
(0.000119455 1.41202e-05 2.90938e-06)
(0.000117263 1.38721e-05 -1.50275e-06)
(0.000115066 1.36232e-05 -5.8537e-06)
(0.000112838 1.33731e-05 -1.01685e-05)
(0.000117964 2.34445e-05 2.90714e-06)
(0.000115797 2.30239e-05 -1.50396e-06)
(0.000113626 2.26031e-05 -5.85388e-06)
(0.000111425 2.21768e-05 -1.01674e-05)
(0.000115747 3.2623e-05 2.90665e-06)
(0.00011362 3.20328e-05 -1.50337e-06)
(0.000111489 3.14419e-05 -5.85215e-06)
(0.000109328 3.08426e-05 -1.01645e-05)
(0.000112819 4.15997e-05 2.90781e-06)
(0.000110744 4.08434e-05 -1.50117e-06)
(0.000108667 4.0086e-05 -5.84884e-06)
(0.00010656 3.93177e-05 -1.016e-05)
(0.000109197 5.03199e-05 2.91037e-06)
(0.000107189 4.9402e-05 -1.49777e-06)
(0.000105178 4.84828e-05 -5.84447e-06)
(0.000103138 4.75503e-05 -1.01546e-05)
(0.000104904 5.87301e-05 2.91389e-06)
(0.000102974 5.76564e-05 -1.49367e-06)
(0.000101042 5.65809e-05 -5.83962e-06)
(9.90824e-05 5.549e-05 -1.01489e-05)
(9.99657e-05 6.67787e-05 2.91787e-06)
(9.81266e-05 6.55557e-05 -1.48947e-06)
(9.6285e-05 6.43307e-05 -5.83495e-06)
(9.44178e-05 6.30882e-05 -1.01436e-05)
(9.44118e-05 7.44164e-05 2.92165e-06)
(9.26749e-05 7.30516e-05 -1.48583e-06)
(9.0936e-05 7.16846e-05 -5.83114e-06)
(8.91728e-05 7.02982e-05 -1.01394e-05)
(8.8276e-05 8.15965e-05 2.92435e-06)
(8.66528e-05 8.00982e-05 -1.48355e-06)
(8.50278e-05 7.85975e-05 -5.82892e-06)
(8.33801e-05 7.70757e-05 -1.01371e-05)
(8.15965e-05 8.8276e-05 2.92435e-06)
(8.00982e-05 8.66528e-05 -1.48355e-06)
(7.85975e-05 8.50278e-05 -5.82892e-06)
(7.70757e-05 8.33801e-05 -1.01371e-05)
(7.44164e-05 9.44118e-05 2.92166e-06)
(7.30516e-05 9.26749e-05 -1.48582e-06)
(7.16846e-05 9.0936e-05 -5.83114e-06)
(7.02982e-05 8.91728e-05 -1.01394e-05)
(6.67787e-05 9.99657e-05 2.91787e-06)
(6.55557e-05 9.81266e-05 -1.48946e-06)
(6.43307e-05 9.6285e-05 -5.83494e-06)
(6.30882e-05 9.44178e-05 -1.01436e-05)
(5.87301e-05 0.000104904 2.91389e-06)
(5.76563e-05 0.000102974 -1.49367e-06)
(5.65809e-05 0.000101042 -5.83962e-06)
(5.549e-05 9.90824e-05 -1.01489e-05)
(5.03199e-05 0.000109197 2.91037e-06)
(4.9402e-05 0.000107189 -1.49776e-06)
(4.84827e-05 0.000105178 -5.84446e-06)
(4.75503e-05 0.000103138 -1.01546e-05)
(4.15997e-05 0.000112819 2.90782e-06)
(4.08434e-05 0.000110744 -1.50116e-06)
(4.0086e-05 0.000108667 -5.84883e-06)
(3.93177e-05 0.00010656 -1.016e-05)
(3.2623e-05 0.000115747 2.90665e-06)
(3.20328e-05 0.00011362 -1.50336e-06)
(3.14419e-05 0.000111489 -5.85214e-06)
(3.08426e-05 0.000109328 -1.01645e-05)
(2.34445e-05 0.000117964 2.90715e-06)
(2.30239e-05 0.000115797 -1.50395e-06)
(2.26031e-05 0.000113626 -5.85387e-06)
(2.21768e-05 0.000111425 -1.01674e-05)
(1.41202e-05 0.000119455 2.90939e-06)
(1.38721e-05 0.000117263 -1.50274e-06)
(1.36232e-05 0.000115066 -5.85369e-06)
(1.33731e-05 0.000112838 -1.01685e-05)
(4.71122e-06 0.000120214 2.91259e-06)
(4.63598e-06 0.000118013 -1.50007e-06)
(4.55694e-06 0.000115807 -5.85155e-06)
(4.48442e-06 0.000113568 -1.01673e-05)
(0.000128425 5.03133e-06 -3.13521e-06)
(0.000126114 4.95265e-06 -5.26839e-06)
(0.000123802 4.87e-06 -7.39708e-06)
(0.000121457 4.79433e-06 -9.48385e-06)
(0.000127613 1.50812e-05 -3.13559e-06)
(0.000125312 1.48217e-05 -5.26805e-06)
(0.000123009 1.45614e-05 -7.3961e-06)
(0.000120675 1.43004e-05 -9.48206e-06)
(0.000126019 2.5041e-05 -3.13565e-06)
(0.000123744 2.46007e-05 -5.26692e-06)
(0.000121468 2.41607e-05 -7.39384e-06)
(0.000119163 2.37154e-05 -9.47861e-06)
(0.000123649 3.48451e-05 -3.13472e-06)
(0.000121416 3.4227e-05 -5.26464e-06)
(0.000119181 3.36088e-05 -7.39021e-06)
(0.000116918 3.29826e-05 -9.47357e-06)
(0.000120519 4.44338e-05 -3.13269e-06)
(0.000118341 4.36412e-05 -5.26124e-06)
(0.000116163 4.28485e-05 -7.38539e-06)
(0.000113956 4.20453e-05 -9.46726e-06)
(0.000116648 5.37485e-05 -3.12966e-06)
(0.00011454 5.27862e-05 -5.25697e-06)
(0.00011243 5.18236e-05 -7.37979e-06)
(0.000110294 5.08484e-05 -9.4602e-06)
(0.000112061 6.27321e-05 -3.1259e-06)
(0.000110035 6.1606e-05 -5.25225e-06)
(0.000108008 6.04795e-05 -7.37393e-06)
(0.000105955 5.93381e-05 -9.45309e-06)
(0.000106784 7.13298e-05 -3.12182e-06)
(0.000104853 7.00468e-05 -5.24759e-06)
(0.000102922 6.87631e-05 -7.36848e-06)
(0.000100966 6.74627e-05 -9.44665e-06)
(0.00010085 7.94888e-05 -3.11798e-06)
(9.90266e-05 7.80566e-05 -5.24365e-06)
(9.7203e-05 7.66237e-05 -7.36413e-06)
(9.53562e-05 7.51722e-05 -9.44168e-06)
(9.4295e-05 8.71593e-05 -3.11527e-06)
(9.2591e-05 8.55865e-05 -5.24122e-06)
(9.0887e-05 8.40132e-05 -7.36163e-06)
(8.91613e-05 8.24196e-05 -9.43892e-06)
(8.71593e-05 9.4295e-05 -3.11527e-06)
(8.55865e-05 9.2591e-05 -5.24122e-06)
(8.40132e-05 9.0887e-05 -7.36163e-06)
(8.24196e-05 8.91613e-05 -9.43892e-06)
(7.94888e-05 0.00010085 -3.11798e-06)
(7.80566e-05 9.90266e-05 -5.24364e-06)
(7.66237e-05 9.7203e-05 -7.36413e-06)
(7.51722e-05 9.53562e-05 -9.44168e-06)
(7.13298e-05 0.000106784 -3.12182e-06)
(7.00467e-05 0.000104853 -5.24759e-06)
(6.87631e-05 0.000102922 -7.36848e-06)
(6.74627e-05 0.000100966 -9.44665e-06)
(6.27321e-05 0.000112061 -3.1259e-06)
(6.1606e-05 0.000110035 -5.25224e-06)
(6.04795e-05 0.000108008 -7.37393e-06)
(5.93381e-05 0.000105955 -9.45308e-06)
(5.37484e-05 0.000116648 -3.12966e-06)
(5.27862e-05 0.00011454 -5.25697e-06)
(5.18236e-05 0.00011243 -7.37978e-06)
(5.08484e-05 0.000110294 -9.4602e-06)
(4.44338e-05 0.000120519 -3.13269e-06)
(4.36412e-05 0.000118341 -5.26123e-06)
(4.28485e-05 0.000116162 -7.38539e-06)
(4.20453e-05 0.000113956 -9.46725e-06)
(3.48451e-05 0.000123649 -3.13472e-06)
(3.42269e-05 0.000121416 -5.26464e-06)
(3.36087e-05 0.000119181 -7.3902e-06)
(3.29826e-05 0.000116918 -9.47357e-06)
(2.5041e-05 0.000126019 -3.13565e-06)
(2.46007e-05 0.000123744 -5.26692e-06)
(2.41607e-05 0.000121468 -7.39383e-06)
(2.37154e-05 0.000119163 -9.4786e-06)
(1.50812e-05 0.000127613 -3.13559e-06)
(1.48217e-05 0.000125312 -5.26805e-06)
(1.45614e-05 0.000123009 -7.39609e-06)
(1.43004e-05 0.000120675 -9.48206e-06)
(5.03132e-06 0.000128425 -3.1352e-06)
(4.95264e-06 0.000126114 -5.26839e-06)
(4.87e-06 0.000123802 -7.39708e-06)
(4.79433e-06 0.000121457 -9.48384e-06)
(0.00013069 5.11776e-06 -9.23992e-06)
(0.00012834 5.0382e-06 -9.16961e-06)
(0.000126005 4.95514e-06 -9.13817e-06)
(0.000123655 4.87969e-06 -9.07265e-06)
(0.000129863 1.53422e-05 -9.23826e-06)
(0.000127522 1.50793e-05 -9.1671e-06)
(0.000125197 1.48178e-05 -9.13491e-06)
(0.000122858 1.45574e-05 -9.06871e-06)
(0.000128238 2.5475e-05 -9.23665e-06)
(0.000125924 2.50289e-05 -9.1641e-06)
(0.000123626 2.45864e-05 -9.13063e-06)
(0.000121315 2.4142e-05 -9.06317e-06)
(0.000125823 3.54494e-05 -9.23465e-06)
(0.000123551 3.48227e-05 -9.16039e-06)
(0.000121295 3.42008e-05 -9.12526e-06)
(0.000119027 3.35755e-05 -9.05606e-06)
(0.000122635 4.52048e-05 -9.23207e-06)
(0.000120419 4.44007e-05 -9.15596e-06)
(0.000118219 4.36026e-05 -9.11896e-06)
(0.000116007 4.28001e-05 -9.04777e-06)
(0.000118693 5.46814e-05 -9.22889e-06)
(0.000116547 5.37046e-05 -9.15095e-06)
(0.000114417 5.27349e-05 -9.11209e-06)
(0.000112275 5.17598e-05 -9.03887e-06)
(0.000114021 6.38215e-05 -9.22521e-06)
(0.000111959 6.26776e-05 -9.14572e-06)
(0.000109913 6.15421e-05 -9.10519e-06)
(0.000107855 6.04002e-05 -9.03013e-06)
(0.000108649 7.25692e-05 -9.22131e-06)
(0.000106684 7.12652e-05 -9.14072e-06)
(0.000104734 6.99706e-05 -9.09891e-06)
(0.000102773 6.86688e-05 -9.02235e-06)
(0.000102609 8.0871e-05 -9.21765e-06)
(0.000100754 7.94147e-05 -9.13657e-06)
(9.89123e-05 7.7969e-05 -9.09399e-06)
(9.70611e-05 7.65153e-05 -9.01643e-06)
(9.59379e-05 8.86762e-05 -9.21504e-06)
(9.42042e-05 8.70765e-05 -9.13404e-06)
(9.24838e-05 8.54885e-05 -9.0912e-06)
(9.07544e-05 8.38919e-05 -9.01317e-06)
(8.86762e-05 9.59379e-05 -9.21504e-06)
(8.70765e-05 9.42042e-05 -9.13404e-06)
(8.54885e-05 9.24838e-05 -9.0912e-06)
(8.38919e-05 9.07544e-05 -9.01317e-06)
(8.0871e-05 0.000102609 -9.21765e-06)
(7.94147e-05 0.000100754 -9.13657e-06)
(7.7969e-05 9.89123e-05 -9.09399e-06)
(7.65153e-05 9.70611e-05 -9.01643e-06)
(7.25692e-05 0.000108649 -9.22131e-06)
(7.12651e-05 0.000106684 -9.14072e-06)
(6.99706e-05 0.000104734 -9.09891e-06)
(6.86688e-05 0.000102773 -9.02235e-06)
(6.38215e-05 0.000114021 -9.22521e-06)
(6.26776e-05 0.000111959 -9.14572e-06)
(6.15421e-05 0.000109913 -9.10519e-06)
(6.04002e-05 0.000107855 -9.03012e-06)
(5.46814e-05 0.000118693 -9.22889e-06)
(5.37046e-05 0.000116547 -9.15095e-06)
(5.27349e-05 0.000114417 -9.11209e-06)
(5.17598e-05 0.000112275 -9.03887e-06)
(4.52048e-05 0.000122635 -9.23207e-06)
(4.44007e-05 0.000120419 -9.15595e-06)
(4.36026e-05 0.000118219 -9.11896e-06)
(4.28001e-05 0.000116007 -9.04776e-06)
(3.54494e-05 0.000125823 -9.23465e-06)
(3.48227e-05 0.000123551 -9.16039e-06)
(3.42008e-05 0.000121295 -9.12526e-06)
(3.35755e-05 0.000119027 -9.05606e-06)
(2.5475e-05 0.000128238 -9.23664e-06)
(2.50289e-05 0.000125924 -9.1641e-06)
(2.45864e-05 0.000123626 -9.13063e-06)
(2.4142e-05 0.000121315 -9.06316e-06)
(1.53422e-05 0.000129863 -9.23826e-06)
(1.50793e-05 0.000127522 -9.1671e-06)
(1.48178e-05 0.000125197 -9.13491e-06)
(1.45574e-05 0.000122858 -9.0687e-06)
(5.11776e-06 0.00013069 -9.23992e-06)
(5.03819e-06 0.00012834 -9.16961e-06)
(4.95513e-06 0.000126005 -9.13817e-06)
(4.87969e-06 0.000123655 -9.07265e-06)
(0.000127403 4.98607e-06 -1.50764e-05)
(0.000125088 4.90834e-06 -1.29716e-05)
(0.000122812 4.82794e-06 -1.09459e-05)
(0.000120545 4.75573e-06 -8.89563e-06)
(0.000126594 1.49492e-05 -1.50731e-05)
(0.000124288 1.46919e-05 -1.29674e-05)
(0.000122022 1.44387e-05 -1.09408e-05)
(0.000119766 1.41894e-05 -8.88992e-06)
(0.000125007 2.48229e-05 -1.50703e-05)
(0.000122726 2.4386e-05 -1.2963e-05)
(0.000120486 2.39572e-05 -1.09349e-05)
(0.000118257 2.35313e-05 -8.88263e-06)
(0.000122648 3.45423e-05 -1.50677e-05)
(0.000120408 3.39279e-05 -1.29582e-05)
(0.000118209 3.33248e-05 -1.09281e-05)
(0.000116021 3.2725e-05 -8.87368e-06)
(0.000119534 4.4048e-05 -1.5065e-05)
(0.00011735 4.32591e-05 -1.2953e-05)
(0.000115205 4.24845e-05 -1.09205e-05)
(0.00011307 4.17141e-05 -8.86356e-06)
(0.000115686 5.32822e-05 -1.5062e-05)
(0.00011357 5.23228e-05 -1.29476e-05)
(0.000111493 5.1381e-05 -1.09126e-05)
(0.000109427 5.0444e-05 -8.85291e-06)
(0.000111127 6.21885e-05 -1.50588e-05)
(0.000109094 6.10641e-05 -1.29421e-05)
(0.000107098 5.99602e-05 -1.09048e-05)
(0.000105112 5.88621e-05 -8.84258e-06)
(0.000105886 7.0713e-05 -1.50554e-05)
(0.000103949 6.94301e-05 -1.2937e-05)
(0.000102047 6.81706e-05 -1.08978e-05)
(0.000100155 6.69176e-05 -8.83348e-06)
(9.99956e-05 7.88037e-05 -1.50522e-05)
(9.81663e-05 7.737e-05 -1.29328e-05)
(9.63709e-05 7.59623e-05 -1.08924e-05)
(9.45851e-05 7.4562e-05 -8.8266e-06)
(9.34905e-05 8.64114e-05 -1.50498e-05)
(9.17819e-05 8.48355e-05 -1.29302e-05)
(9.01051e-05 8.32884e-05 -1.08894e-05)
(8.84373e-05 8.17495e-05 -8.82284e-06)
(8.64114e-05 9.34905e-05 -1.50498e-05)
(8.48355e-05 9.17819e-05 -1.29302e-05)
(8.32884e-05 9.01051e-05 -1.08894e-05)
(8.17495e-05 8.84373e-05 -8.82284e-06)
(7.88037e-05 9.99956e-05 -1.50522e-05)
(7.737e-05 9.81663e-05 -1.29328e-05)
(7.59623e-05 9.63709e-05 -1.08924e-05)
(7.4562e-05 9.45851e-05 -8.8266e-06)
(7.0713e-05 0.000105886 -1.50554e-05)
(6.94301e-05 0.000103949 -1.2937e-05)
(6.81706e-05 0.000102047 -1.08978e-05)
(6.69175e-05 0.000100155 -8.83348e-06)
(6.21885e-05 0.000111127 -1.50588e-05)
(6.10641e-05 0.000109094 -1.29421e-05)
(5.99602e-05 0.000107098 -1.09048e-05)
(5.88621e-05 0.000105112 -8.84258e-06)
(5.32821e-05 0.000115686 -1.5062e-05)
(5.23228e-05 0.00011357 -1.29476e-05)
(5.13809e-05 0.000111493 -1.09126e-05)
(5.0444e-05 0.000109427 -8.85292e-06)
(4.4048e-05 0.000119534 -1.5065e-05)
(4.3259e-05 0.00011735 -1.29531e-05)
(4.24845e-05 0.000115205 -1.09205e-05)
(4.17141e-05 0.00011307 -8.86356e-06)
(3.45423e-05 0.000122648 -1.50677e-05)
(3.39279e-05 0.000120408 -1.29582e-05)
(3.33248e-05 0.000118209 -1.09281e-05)
(3.2725e-05 0.00011602 -8.87369e-06)
(2.48229e-05 0.000125007 -1.50703e-05)
(2.43859e-05 0.000122726 -1.2963e-05)
(2.39572e-05 0.000120486 -1.09349e-05)
(2.35313e-05 0.000118257 -8.88263e-06)
(1.49492e-05 0.000126594 -1.50731e-05)
(1.46919e-05 0.000124288 -1.29674e-05)
(1.44387e-05 0.000122022 -1.09408e-05)
(1.41894e-05 0.000119766 -8.88993e-06)
(4.98607e-06 0.000127403 -1.50764e-05)
(4.90834e-06 0.000125088 -1.29716e-05)
(4.82794e-06 0.000122812 -1.09459e-05)
(4.75573e-06 0.000120545 -8.89563e-06)
(0.000119074 4.65618e-06 -2.03544e-05)
(0.000116863 4.58285e-06 -1.64656e-05)
(0.000114722 4.50798e-06 -1.26982e-05)
(0.000112621 4.44183e-06 -8.91022e-06)
(0.000118314 1.39621e-05 -2.03498e-05)
(0.000116112 1.37188e-05 -1.64599e-05)
(0.00011398 1.34829e-05 -1.26915e-05)
(0.00011189 1.32544e-05 -8.90298e-06)
(0.000116825 2.31845e-05 -2.03461e-05)
(0.000114647 2.27706e-05 -1.64544e-05)
(0.00011254 2.23708e-05 -1.26844e-05)
(0.000110474 2.198e-05 -8.89434e-06)
(0.000114614 3.22622e-05 -2.03432e-05)
(0.000112474 3.16797e-05 -1.6449e-05)
(0.000110404 3.11166e-05 -1.26766e-05)
(0.000108376 3.05656e-05 -8.88405e-06)
(0.000111696 4.11401e-05 -2.03407e-05)
(0.000109608 4.03912e-05 -1.64435e-05)
(0.000107589 3.96673e-05 -1.26682e-05)
(0.00010561 3.89585e-05 -8.87262e-06)
(0.000108091 4.97642e-05 -2.03384e-05)
(0.000106069 4.88524e-05 -1.6438e-05)
(0.000104113 4.7971e-05 -1.26596e-05)
(0.000102197 4.71079e-05 -8.86071e-06)
(0.000103823 5.80823e-05 -2.03359e-05)
(0.000101879 5.70123e-05 -1.64326e-05)
(0.0001 5.5978e-05 -1.26513e-05)
(9.81589e-05 5.4965e-05 -8.84922e-06)
(9.89187e-05 6.60443e-05 -2.03333e-05)
(9.70665e-05 6.4822e-05 -1.64276e-05)
(9.52759e-05 6.36404e-05 -1.2644e-05)
(9.35218e-05 6.24831e-05 -8.83915e-06)
(9.34087e-05 7.36022e-05 -2.03307e-05)
(9.16603e-05 7.22347e-05 -1.64235e-05)
(8.99706e-05 7.09127e-05 -1.26383e-05)
(8.83155e-05 6.96178e-05 -8.83156e-06)
(8.73267e-05 8.07105e-05 -2.03287e-05)
(8.56944e-05 7.9206e-05 -1.64211e-05)
(8.41171e-05 7.77517e-05 -1.26352e-05)