/*--------------------------------*- C++ -*----------------------------------*\
| =========                 |                                                 |
| \\      /  F ield         | foam-extend: Open Source CFD                    |
|  \\    /   O peration     | Version:     3.1                                |
|   \\  /    A nd           | Web:         http://www.extend-project.de       |
|    \\/     M anipulation  |                                                 |
\*---------------------------------------------------------------------------*/
FoamFile
{
    version     2.0;
    format      ascii;
    class       volSymmTensorField;
    location    "0.002";
    object      epsilon;
}
// * * * * * * * * * * * * * * * * * * * * * * * * * * * * * * * * * * * * * //

dimensions      [0 0 0 0 0 0 0];

internalField   nonuniform List<symmTensor> 
6400
(
(-0.00464082 -0.000296539 0.00841774 0.00192668 0.000185259 0.0166602)
(-0.00247593 -0.000186482 0.00901605 0.00168624 0.000247094 0.00588977)
(-0.000674877 -9.45586e-05 0.00849948 0.00154775 0.000229218 -0.00318628)
(0.00117468 -2.71818e-06 0.00696428 0.00149579 0.00014007 -0.0134931)
(-0.00452498 -0.000767524 0.00836783 0.00189342 0.00097057 0.0164824)
(-0.0023939 -0.000487537 0.00894554 0.00166317 0.00104517 0.00575246)
(-0.000614521 -0.000260185 0.00842145 0.00154506 0.000985821 -0.00332763)
(0.00122181 -3.61089e-05 0.00687753 0.00151935 0.000804306 -0.0136832)
(-0.00436137 -0.00125925 0.00826012 0.00172601 0.0016304 0.0164756)
(-0.00228947 -0.000795863 0.008831 0.0015607 0.00174688 0.00574884)
(-0.000556701 -0.00042299 0.00831451 0.00148928 0.00164677 -0.00332966)
(0.0012348 -5.63808e-05 0.00679196 0.0015078 0.00134616 -0.0136836)
(-0.0041257 -0.00171877 0.00810377 0.0014892 0.00227703 0.0164715)
(-0.00214068 -0.00108647 0.00866411 0.00141116 0.00243708 0.0057466)
(-0.000477456 -0.000576842 0.0081574 0.00140948 0.00229639 -0.00333045)
(0.00124567 -7.6062e-05 0.00666372 0.00149586 0.0018773 -0.0136828)
(-0.0038219 -0.00213596 0.00789812 0.00118436 0.00290795 0.0164695)
(-0.00194863 -0.00135046 0.00844435 0.00121819 0.00311112 0.00574596)
(-0.000375539 -0.000716951 0.00795051 0.00130668 0.00293083 -0.00332998)
(0.00125902 -9.43902e-05 0.00649469 0.00148152 0.00239566 -0.013681)
(-0.00345693 -0.00250062 0.00764403 0.000818549 0.00351977 0.0164691)
(-0.00171781 -0.00158124 0.00817276 0.000986552 0.00376504 0.00574639)
(-0.00025304 -0.000839535 0.00769479 0.00118335 0.00354637 -0.0033287)
(0.00127495 -0.000110529 0.00628572 0.00146466 0.00289849 -0.0136786)
(-0.0030396 -0.00280389 0.0073429 0.000400558 0.00410904 0.0164698)
(-0.0014538 -0.00177315 0.00785084 0.000721869 0.004395 0.00574752)
(-0.000112892 -0.000941479 0.00739169 0.00104247 0.00413937 -0.00332699)
(0.00129318 -0.00012396 0.00603806 0.00144556 0.00338284 -0.0136759)
(-0.00258003 -0.00303838 0.00699647 -5.94618e-05 0.00467238 0.0164712)
(-0.00116299 -0.00192148 0.00748053 0.000430582 0.00499728 0.00574903)
(4.15189e-05 -0.00102023 0.00704306 0.000887473 0.00470628 -0.00332515)
(0.00131332 -0.000134291 0.00575327 0.00142465 0.0038458 -0.0136734)
(-0.00208931 -0.00319845 0.0066068 -0.000550316 0.00520656 0.016473)
(-0.000852372 -0.00202257 0.00706412 0.000119799 0.00556834 0.00575062)
(0.000206427 -0.0010738 0.00665118 0.00072219 0.00524375 -0.00332349)
(0.00133485 -0.00014122 0.00543329 0.00140248 0.0042846 -0.0136713)
(-0.00157798 -0.00328055 0.00617648 -0.00106012 0.00570874 0.0164745)
(-0.000529512 -0.00207389 0.00660452 -0.000202771 0.00610498 0.00575173)
(0.000377635 -0.00110086 0.00621878 0.00055087 0.00574876 -0.00332246)
(0.00135717 -0.000144631 0.00508036 0.00137979 0.0046968 -0.01367)
(-0.00106012 -0.00328055 0.00570874 -0.00157798 0.00617648 0.0164745)
(-0.000202771 -0.00207389 0.00610498 -0.000529511 0.00660452 0.00575173)
(0.000550869 -0.00110086 0.00574876 0.000377636 0.00621878 -0.00332246)
(0.00137979 -0.000144631 0.00469679 0.00135717 0.00508036 -0.01367)
(-0.000550316 -0.00319845 0.00520656 -0.00208931 0.00660681 0.016473)
(0.000119798 -0.00202257 0.00556833 -0.000852371 0.00706412 0.00575061)
(0.00072219 -0.0010738 0.00524375 0.000206428 0.00665119 -0.0033235)
(0.00140248 -0.00014122 0.0042846 0.00133485 0.00543329 -0.0136713)
(-5.94618e-05 -0.00303838 0.00467238 -0.00258003 0.00699647 0.0164712)
(0.000430581 -0.00192148 0.00499728 -0.00116299 0.00748053 0.00574902)
(0.000887473 -0.00102023 0.00470628 4.152e-05 0.00704307 -0.00332515)
(0.00142465 -0.000134291 0.0038458 0.00131332 0.00575327 -0.0136734)
(0.000400558 -0.00280389 0.00410904 -0.0030396 0.0073429 0.0164698)
(0.000721869 -0.00177315 0.004395 -0.0014538 0.00785085 0.00574751)
(0.00104247 -0.000941479 0.00413937 -0.000112891 0.00739169 -0.003327)
(0.00144556 -0.00012396 0.00338284 0.00129318 0.00603806 -0.0136759)
(0.00081855 -0.00250062 0.00351977 -0.00345693 0.00764403 0.0164691)
(0.000986552 -0.00158124 0.00376504 -0.00171781 0.00817276 0.00574639)
(0.00118335 -0.000839535 0.00354637 -0.000253039 0.00769479 -0.00332871)
(0.00146466 -0.000110528 0.00289849 0.00127495 0.00628573 -0.0136786)
(0.00118436 -0.00213596 0.00290795 -0.0038219 0.00789812 0.0164695)
(0.00121819 -0.00135046 0.00311112 -0.00194863 0.00844436 0.00574595)
(0.00130668 -0.00071695 0.00293083 -0.000375537 0.00795051 -0.00332998)
(0.00148152 -9.43899e-05 0.00239566 0.00125902 0.00649469 -0.013681)
(0.0014892 -0.00171877 0.00227703 -0.0041257 0.00810378 0.0164715)
(0.00141116 -0.00108647 0.00243708 -0.00214068 0.00866411 0.00574659)
(0.00140948 -0.000576842 0.00229639 -0.000477454 0.0081574 -0.00333046)
(0.00149586 -7.60617e-05 0.0018773 0.00124567 0.00666373 -0.0136828)
(0.00172601 -0.00125925 0.00163039 -0.00436137 0.00826012 0.0164756)
(0.0015607 -0.000795862 0.00174688 -0.00228947 0.00883101 0.00574883)
(0.00148928 -0.00042299 0.00164677 -0.000556699 0.00831451 -0.00332967)
(0.0015078 -5.63806e-05 0.00134616 0.0012348 0.00679196 -0.0136836)
(0.00189342 -0.000767523 0.00097057 -0.00452498 0.00836784 0.0164824)
(0.00166317 -0.000487537 0.00104517 -0.0023939 0.00894555 0.00575245)
(0.00154506 -0.000260185 0.000985821 -0.000614519 0.00842146 -0.00332764)
(0.00151935 -3.61087e-05 0.000804306 0.00122181 0.00687754 -0.0136832)
(0.00192668 -0.000296539 0.000185258 -0.00464081 0.00841774 0.0166602)
(0.00168624 -0.000186482 0.000247094 -0.00247593 0.00901605 0.00588976)
(0.00154775 -9.45585e-05 0.000229218 -0.000674875 0.00849948 -0.00318629)
(0.00149579 -2.71811e-06 0.00014007 0.00117468 0.00696428 -0.0134931)
(-0.00867196 -0.00066366 0.00361253 0.00641723 -0.000155097 0.00654026)
(-0.00547781 -0.000494826 0.00673648 0.00581894 1.93156e-05 0.00283492)
(-0.00253667 -0.000336417 0.00660079 0.00539665 1.59785e-05 -0.00162089)
(0.000199166 -0.000192143 0.00342899 0.0051272 -0.00015113 -0.00546577)
(-0.00844509 -0.00176454 0.00363702 0.00631232 0.000428113 0.00649188)
(-0.0052896 -0.00132332 0.00669146 0.00571947 0.000792269 0.00275909)
(-0.00238576 -0.000927841 0.00651333 0.00532875 0.000774232 -0.00170109)
(0.000316725 -0.00057339 0.00330667 0.00509411 0.000400319 -0.00552717)
(-0.00807377 -0.00289794 0.00359278 0.00593174 0.000712706 0.00648623)
(-0.00500958 -0.0021625 0.00660724 0.0054447 0.0013146 0.0027513)
(-0.00218627 -0.00151485 0.00643062 0.00513479 0.00128228 -0.00170879)
(0.000443774 -0.000936906 0.00326482 0.00497068 0.000656268 -0.00553309)
(-0.00753223 -0.00395594 0.00352494 0.00538894 0.00099281 0.00648436)
(-0.0046061 -0.0029524 0.00648249 0.00504068 0.00182879 0.00274918)
(-0.00190335 -0.00206729 0.00630909 0.00485197 0.0017822 -0.00171051)
(0.000618969 -0.00127804 0.00320293 0.00479483 0.00090916 -0.00553407)
(-0.00683333 -0.00491648 0.00343515 0.00468847 0.00126651 0.00648405)
(-0.00408456 -0.00366986 0.00631787 0.00451791 0.00233147 0.00274909)
(-0.00153828 -0.00256966 0.00614892 0.00448583 0.00227105 -0.00171015)
(0.000844551 -0.00158856 0.00312148 0.00456817 0.00115666 -0.00553321)
(-0.00599336 -0.00575609 0.00332402 0.00384706 0.00153214 0.00648462)
(-0.00345743 -0.00429707 0.00611438 0.00388947 0.00281961 0.00274996)
(-0.00109922 -0.003009 0.00595102 0.00404551 0.00274587 -0.00170888)
(0.00111573 -0.00186017 0.00302097 0.00429568 0.0013972 -0.00553155)
(-0.00503269 -0.00645434 0.00319223 0.00288523 0.001788 0.00648572)
(-0.00273997 -0.00481864 0.0058732 0.00317088 0.00329017 0.00275129)
(-0.000596814 -0.00337432 0.00571654 0.0035419 0.00320367 -0.00170725)
(0.00142604 -0.00208597 0.00290198 0.00398401 0.00162919 -0.00552965)
(-0.00397466 -0.00699422 0.00304058 0.00182652 0.00203246 0.00648703)
(-0.00194964 -0.00522174 0.00559583 0.00237976 0.00374018 0.00275276)
(-4.33212e-05 -0.00365651 0.00544692 0.00298741 0.00364155 -0.00170561)
(0.00176792 -0.00226024 0.00276527 0.00364085 0.0018511 -0.00552785)
(-0.00284488 -0.00736272 0.0028701 0.000696771 0.00226393 0.00648823)
(-0.00110553 -0.00549641 0.00528409 0.00153556 0.00416681 0.00275401)
(0.000547681 -0.00384851 0.00514396 0.00239581 0.00405676 -0.00170427)
(0.0021329 -0.0023786 0.00261178 0.00327475 0.00206144 -0.00552646)
(-0.00166815 -0.00755152 0.00268284 -0.000476608 0.0024808 0.00648893)
(-0.000228396 -0.00563575 0.00494046 0.00065922 0.00456749 0.00275474)
(0.00116125 -0.00394558 0.00480985 0.00178213 0.00444684 -0.00170351)
(0.00251173 -0.00243827 0.00244264 0.00289524 0.00225893 -0.00552569)
(-0.000476608 -0.00755151 0.0024808 -0.00166815 0.00268284 0.00648893)
(0.000659219 -0.00563575 0.00456749 -0.000228395 0.00494046 0.00275474)
(0.00178213 -0.00394558 0.00444684 0.00116126 0.00480985 -0.00170351)
(0.00289524 -0.00243827 0.00225893 0.00251173 0.00244265 -0.00552569)
(0.000696771 -0.00736272 0.00226393 -0.00284488 0.0028701 0.00648823)
(0.00153556 -0.00549641 0.00416681 -0.00110553 0.00528409 0.00275401)
(0.00239581 -0.00384851 0.00405676 0.000547683 0.00514397 -0.00170427)
(0.00327475 -0.0023786 0.00206144 0.00213291 0.00261178 -0.00552646)
(0.00182652 -0.00699422 0.00203246 -0.00397466 0.00304058 0.00648703)
(0.00237976 -0.00522174 0.00374018 -0.00194964 0.00559583 0.00275275)
(0.00298741 -0.00365651 0.00364155 -4.3319e-05 0.00544693 -0.00170562)
(0.00364085 -0.00226024 0.0018511 0.00176792 0.00276527 -0.00552786)
(0.00288523 -0.00645434 0.001788 -0.00503269 0.00319223 0.00648571)
(0.00317087 -0.00481864 0.00329017 -0.00273997 0.00587321 0.00275129)
(0.0035419 -0.00337432 0.00320367 -0.000596812 0.00571654 -0.00170726)
(0.00398401 -0.00208597 0.00162919 0.00142604 0.00290199 -0.00552965)
(0.00384706 -0.00575609 0.00153213 -0.00599336 0.00332402 0.00648462)
(0.00388947 -0.00429707 0.00281961 -0.00345743 0.00611438 0.00274995)
(0.00404551 -0.003009 0.00274587 -0.00109922 0.00595102 -0.00170889)
(0.00429568 -0.00186017 0.0013972 0.00111573 0.00302097 -0.00553156)
(0.00468846 -0.00491648 0.00126651 -0.00683333 0.00343515 0.00648405)
(0.00451791 -0.00366986 0.00233147 -0.00408456 0.00631788 0.00274909)
(0.00448583 -0.00256966 0.00227105 -0.00153828 0.00614892 -0.00171015)
(0.00456817 -0.00158856 0.00115666 0.000844554 0.00312148 -0.00553321)
(0.00538894 -0.00395594 0.000992809 -0.00753222 0.00352494 0.00648435)
(0.00504067 -0.0029524 0.00182879 -0.0046061 0.00648249 0.00274917)
(0.00485196 -0.00206729 0.0017822 -0.00190335 0.00630909 -0.00171051)
(0.00479483 -0.00127804 0.000909158 0.000618972 0.00320293 -0.00553407)
(0.00593174 -0.00289794 0.000712705 -0.00807376 0.00359278 0.00648622)
(0.00544469 -0.0021625 0.0013146 -0.00500957 0.00660724 0.00275129)
(0.00513479 -0.00151485 0.00128227 -0.00218626 0.00643063 -0.00170879)
(0.00497068 -0.000936905 0.000656267 0.000443777 0.00326482 -0.0055331)
(0.00631232 -0.00176454 0.000428113 -0.00844508 0.00363702 0.00649187)
(0.00571947 -0.00132332 0.000792269 -0.0052896 0.00669146 0.00275908)
(0.00532875 -0.00092784 0.000774231 -0.00238576 0.00651333 -0.0017011)
(0.00509411 -0.000573389 0.000400318 0.000316728 0.00330667 -0.00552717)
(0.00641723 -0.000663659 -0.000155098 -0.00867195 0.00361253 0.00654025)
(0.00581894 -0.000494826 1.93155e-05 -0.0054778 0.00673648 0.00283491)
(0.00539665 -0.000336417 1.59783e-05 -0.00253666 0.0066008 -0.0016209)
(0.0051272 -0.000192143 -0.00015113 0.000199169 0.00342899 -0.00546577)
(-0.00791005 -0.000828776 0.00224774 0.0115797 -0.000240121 -0.000448358)
(-0.00641256 -0.000733244 0.0038999 0.0107366 -0.000149384 -0.000558035)
(-0.00475798 -0.000625438 0.00379538 0.0100279 -0.000152821 -0.0010511)
(-0.00352983 -0.000538779 0.00199396 0.00944265 -0.000244492 -0.00118577)
(-0.00766787 -0.00227997 0.00224199 0.0113972 0.000259749 -0.000444401)
(-0.00617914 -0.00200889 0.00386104 0.0105398 0.000452271 -0.00056495)
(-0.00455075 -0.00172978 0.00372964 0.00984515 0.000439489 -0.00105866)
(-0.00335406 -0.00151164 0.00191514 0.00926441 0.000230971 -0.00118241)
(-0.00719518 -0.00374737 0.00221377 0.0109122 0.000438245 -0.000444649)
(-0.00576074 -0.00328745 0.00381212 0.0101247 0.000758221 -0.000565408)
(-0.00418839 -0.00283046 0.00368202 0.00948645 0.000735204 -0.00105922)
(-0.00303636 -0.00248093 0.0018918 0.00895066 0.000382918 -0.00118332)
(-0.00649659 -0.00511666 0.00217168 0.0102133 0.000612253 -0.000444934)
(-0.00514885 -0.00448903 0.00373985 0.00951268 0.00105663 -0.00056593)
(-0.00366116 -0.00386444 0.00361231 0.00896 0.00102314 -0.00105983)
(-0.00257423 -0.00338763 0.0018558 0.00848899 0.000530732 -0.00118405)
(-0.00559326 -0.00635988 0.00211601 0.00930898 0.000781512 -0.00044466)
(-0.0043564 -0.00558025 0.00364453 0.00871969 0.0013472 -0.000565771)
(-0.002979 -0.00480394 0.00352031 0.00827759 0.00130345 -0.00105969)
(-0.00197617 -0.00421139 0.00180834 0.00789095 0.000674336 -0.001184)
(-0.00450686 -0.00744659 0.0020471 0.00822161 0.000945378 -0.000443882)
(-0.00340299 -0.0065342 0.00352673 0.00776553 0.00162885 -0.000565057)
(-0.00215818 -0.00562536 0.0034067 0.00745619 0.00157517 -0.00105898)
(-0.00125664 -0.00493155 0.00174988 0.00717099 0.000813396 -0.00118333)
(-0.00326396 -0.00835029 0.0019654 0.00697795 0.00110296 -0.0004428)
(-0.00231199 -0.00732743 0.0033872 0.00667385 0.00190007 -0.000564035)
(-0.00121883 -0.00630831 0.00327222 0.00651614 0.00183689 -0.00105796)
(-0.000433229 -0.00553019 0.00168085 0.00634691 0.000947276 -0.00118235)
(-0.00189489 -0.00904896 0.00187147 0.00560863 0.00125323 -0.000441653)
(-0.00111011 -0.00794043 0.00322687 0.0054716 0.0021592 -0.00056296)
(-0.000183989 -0.00683586 0.00311775 0.00548073 0.00208703 -0.0010569)
(0.000473799 -0.00599239 0.0016017 0.00543912 0.00107518 -0.00118136)
(-0.000432952 -0.0095257 0.00176612 0.00414723 0.00139512 -0.000440695)
(0.00017341 -0.00835804 0.00304694 0.0041884 0.00240457 -0.000562078)
(0.00092084 -0.00719485 0.00294442 0.00437565 0.00232402 -0.00105606)
(0.00144199 -0.00630666 0.00151305 0.00447016 0.00119629 -0.00118058)
(0.00108875 -0.00976943 0.00165103 0.00262934 0.00152759 -0.000440155)
(0.00150681 -0.00856976 0.00284907 0.00285614 0.00263476 -0.000561587)
(0.00206789 -0.00737643 0.00275358 0.0032287 0.00254651 -0.00105559)
(0.00244709 -0.00646545 0.00141559 0.00346453 0.0013099 -0.00118016)
(0.00262934 -0.00976943 0.00152759 0.00108875 0.00165103 -0.000440156)
(0.00285614 -0.00856976 0.00263476 0.00150681 0.00284907 -0.000561587)
(0.0032287 -0.00737643 0.00254651 0.0020679 0.00275358 -0.00105559)
(0.00346453 -0.00646545 0.0013099 0.00244709 0.00141559 -0.00118016)
(0.00414723 -0.0095257 0.00139512 -0.00043295 0.00176612 -0.000440696)
(0.0041884 -0.00835804 0.00240457 0.000173412 0.00304694 -0.000562079)
(0.00437564 -0.00719485 0.00232402 0.000920842 0.00294442 -0.00105606)
(0.00447016 -0.00630666 0.00119629 0.00144199 0.00151305 -0.00118059)
(0.00560863 -0.00904896 0.00125323 -0.00189489 0.00187147 -0.000441655)
(0.00547159 -0.00794043 0.0021592 -0.0011101 0.00322687 -0.000562962)
(0.00548073 -0.00683586 0.00208703 -0.000183987 0.00311775 -0.00105691)
(0.00543911 -0.00599239 0.00107518 0.0004738 0.0016017 -0.00118137)
(0.00697794 -0.00835028 0.00110296 -0.00326396 0.0019654 -0.000442803)
(0.00667385 -0.00732743 0.00190007 -0.00231199 0.0033872 -0.000564037)
(0.00651614 -0.00630831 0.00183689 -0.00121883 0.00327222 -0.00105796)
(0.00634691 -0.00553019 0.000947275 -0.000433228 0.00168085 -0.00118235)
(0.00822161 -0.00744658 0.000945378 -0.00450685 0.0020471 -0.000443885)
(0.00776553 -0.0065342 0.00162885 -0.00340298 0.00352673 -0.00056506)
(0.00745618 -0.00562536 0.00157517 -0.00215818 0.0034067 -0.00105898)
(0.00717099 -0.00493155 0.000813395 -0.00125664 0.00174989 -0.00118333)
(0.00930898 -0.00635988 0.000781513 -0.00559326 0.00211601 -0.000444664)
(0.00871969 -0.00558025 0.0013472 -0.0043564 0.00364453 -0.000565775)
(0.00827759 -0.00480394 0.00130345 -0.002979 0.00352032 -0.0010597)
(0.00789095 -0.00421139 0.000674335 -0.00197617 0.00180834 -0.001184)
(0.0102133 -0.00511665 0.000612253 -0.00649659 0.00217168 -0.000444939)
(0.00951268 -0.00448903 0.00105663 -0.00514885 0.00373985 -0.000565934)
(0.00895999 -0.00386444 0.00102314 -0.00366116 0.00361231 -0.00105983)
(0.00848899 -0.00338763 0.000530731 -0.00257423 0.0018558 -0.00118406)
(0.0109122 -0.00374737 0.000438244 -0.00719517 0.00221377 -0.000444654)
(0.0101247 -0.00328745 0.000758221 -0.00576074 0.00381212 -0.000565412)
(0.00948644 -0.00283046 0.000735204 -0.00418839 0.00368202 -0.00105923)
(0.00895065 -0.00248093 0.000382917 -0.00303636 0.0018918 -0.00118332)
(0.0113972 -0.00227996 0.000259749 -0.00766786 0.00224199 -0.000444406)
(0.0105398 -0.00200889 0.000452271 -0.00617914 0.00386104 -0.000564954)
(0.00984514 -0.00172978 0.000439489 -0.00455075 0.00372964 -0.00105866)
(0.00926441 -0.00151164 0.000230971 -0.00335405 0.00191514 -0.00118242)
(0.0115797 -0.000828776 -0.000240121 -0.00791004 0.00224774 -0.000448363)
(0.0107366 -0.000733244 -0.000149384 -0.00641255 0.00389991 -0.00055804)
(0.0100279 -0.000625438 -0.000152821 -0.00475798 0.00379538 -0.0010511)
(0.00944265 -0.000538779 -0.000244492 -0.00352983 0.00199396 -0.00118577)
(-0.00795673 -0.00102205 0.00119149 0.0164533 -0.000255649 -0.00496941)
(-0.00729439 -0.000957375 0.00199053 0.0153615 -0.000210994 -0.00299641)
(-0.00658112 -0.000885132 0.00190678 0.0143891 -0.000213865 -0.00126495)
(-0.00616452 -0.00082331 0.000980555 0.0135316 -0.000259331 0.000676381)
(-0.00766941 -0.0028555 0.00117668 0.0161989 0.0001325 -0.00493518)
(-0.00701544 -0.00265432 0.00195775 0.0150856 0.000226175 -0.00296674)
(-0.00632138 -0.00245455 0.00186147 0.0141147 0.000217191 -0.00123394)
(-0.00592276 -0.00229352 0.000930236 0.0132416 0.000111886 0.000715036)
(-0.0070805 -0.00469285 0.00116153 0.0155952 0.000227834 -0.00493211)
(-0.00646748 -0.00434681 0.00193233 0.014536 0.000383107 -0.00296331)
(-0.00581287 -0.00401875 0.00183759 0.0136047 0.000366851 -0.00123058)
(-0.00544422 -0.0037684 0.000919122 0.0127666 0.000187404 0.000717742)
(-0.006207 -0.00640836 0.00113896 0.0147209 0.000320658 -0.00493061)
(-0.00565936 -0.00593608 0.00189526 0.0137265 0.000535976 -0.00296181)
(-0.00506505 -0.00548779 0.00180256 0.0128566 0.000512128 -0.00122922)
(-0.00474315 -0.00514693 0.00090141 0.0120651 0.000260552 0.000718763)
(-0.00507608 -0.00796611 0.00110925 0.0135891 0.000410517 -0.00492954)
(-0.00461178 -0.00737936 0.00184651 0.0126783 0.000684216 -0.00296086)
(-0.00409649 -0.00682225 0.00175629 0.0118877 0.000652859 -0.00122841)
(-0.00383464 -0.00639878 0.000877987 0.0111565 0.00033098 0.000719351)
(-0.0037154 -0.00932783 0.00107252 0.0122277 0.000497066 -0.00492849)
(-0.0033511 -0.00864111 0.00178638 0.0114171 0.000827402 -0.00295997)
(-0.00293086 -0.0079889 0.00169927 0.0107217 0.000788745 -0.00122764)
(-0.00274133 -0.00749309 0.000849304 0.0100631 0.00039864 0.00071993)
(-0.00215842 -0.0104602 0.00102906 0.0106702 0.000579869 -0.00492743)
(-0.00190833 -0.00969028 0.00171528 0.00997402 0.000964873 -0.00295907)
(-0.00159682 -0.00895887 0.00163193 0.00938735 0.000919231 -0.00122685)
(-0.00149009 -0.00840278 0.00081564 0.00881161 0.000463392 0.000720552)
(-0.000443251 -0.0113356 0.000979242 0.00895511 0.00065838 -0.00492642)
(-0.000318847 -0.010501 0.00163375 0.00838451 0.00109583 -0.00295822)
(-0.000127164 -0.00970816 0.00155478 0.00791748 0.00104361 -0.00122612)
(-0.000111785 -0.00910526 0.000777269 0.00743292 0.000524966 0.000721136)
(0.00138824 -0.0119327 0.000923619 0.00712445 0.000731969 -0.00492563)
(0.00137848 -0.0110533 0.00154252 0.00668779 0.00121943 -0.00295756)
(0.00144185 -0.0102181 0.00146846 0.0063485 0.00116116 -0.00122555)
(0.00135948 -0.00958308 0.000734534 0.00596117 0.000583028 0.000721585)
(0.00329379 -0.0122374 0.000863571 0.00522292 0.000800077 -0.00492518)
(0.00314161 -0.0113332 0.00144268 0.00492596 0.00133504 -0.0029572)
(0.00307093 -0.0104761 0.00137376 0.00471968 0.00127127 -0.00122524)
(0.00288699 -0.00982465 0.000687813 0.00443327 0.000637322 0.000721826)
(0.00522292 -0.0122374 0.000800079 0.00329379 0.00086357 -0.00492518)
(0.00492595 -0.0113332 0.00133504 0.00314162 0.00144268 -0.0029572)
(0.00471968 -0.0104761 0.00127127 0.00307093 0.00137375 -0.00122524)
(0.00443327 -0.00982465 0.000637323 0.00288699 0.000687813 0.000721826)
(0.00712445 -0.0119327 0.000731971 0.00138825 0.000923618 -0.00492563)
(0.00668778 -0.0110533 0.00121944 0.00137848 0.00154252 -0.00295756)
(0.00634849 -0.0102181 0.00116116 0.00144185 0.00146846 -0.00122555)
(0.00596117 -0.00958308 0.000583029 0.00135948 0.000734534 0.000721585)
(0.00895511 -0.0113356 0.000658382 -0.000443248 0.000979241 -0.00492642)
(0.0083845 -0.010501 0.00109583 -0.000318845 0.00163375 -0.00295822)
(0.00791748 -0.00970816 0.00104361 -0.000127162 0.00155478 -0.00122612)
(0.00743292 -0.00910526 0.000524967 -0.000111784 0.000777269 0.000721137)
(0.0106702 -0.0104602 0.000579871 -0.00215841 0.00102906 -0.00492743)
(0.00997401 -0.00969028 0.000964876 -0.00190832 0.00171528 -0.00295907)
(0.00938735 -0.00895887 0.000919233 -0.00159682 0.00163193 -0.00122685)
(0.00881161 -0.00840278 0.000463393 -0.00149009 0.00081564 0.000720552)
(0.0122277 -0.00932783 0.000497068 -0.0037154 0.00107252 -0.0049285)
(0.0114171 -0.00864111 0.000827404 -0.00335109 0.00178638 -0.00295997)
(0.0107217 -0.0079889 0.000788747 -0.00293086 0.00169927 -0.00122764)
(0.0100631 -0.00749309 0.000398641 -0.00274133 0.000849305 0.00071993)
(0.0135891 -0.00796611 0.000410519 -0.00507608 0.00110925 -0.00492954)
(0.0126783 -0.00737936 0.000684218 -0.00461178 0.00184651 -0.00296086)
(0.0118877 -0.00682225 0.000652861 -0.00409649 0.0017563 -0.00122841)
(0.0111565 -0.00639877 0.000330981 -0.00383464 0.000877988 0.000719351)
(0.0147209 -0.00640836 0.000320659 -0.00620699 0.00113896 -0.00493061)
(0.0137265 -0.00593608 0.000535977 -0.00565935 0.00189526 -0.00296181)
(0.0128566 -0.00548779 0.000512129 -0.00506505 0.00180256 -0.00122922)
(0.0120651 -0.00514693 0.000260553 -0.00474315 0.000901412 0.000718763)
(0.0155952 -0.00469285 0.000227835 -0.00708049 0.00116153 -0.00493211)
(0.014536 -0.00434681 0.000383108 -0.00646748 0.00193234 -0.00296331)
(0.0136047 -0.00401875 0.000366852 -0.00581287 0.00183759 -0.00123058)
(0.0127666 -0.0037684 0.000187404 -0.00544422 0.000919124 0.000717742)
(0.0161989 -0.0028555 0.0001325 -0.0076694 0.00117668 -0.00493519)
(0.0150856 -0.00265432 0.000226176 -0.00701544 0.00195775 -0.00296674)
(0.0141147 -0.00245455 0.000217192 -0.00632138 0.00186148 -0.00123394)
(0.0132416 -0.00229352 0.000111887 -0.00592276 0.000930237 0.000715035)
(0.0164533 -0.00102205 -0.000255649 -0.00795672 0.00119149 -0.00496941)
(0.0153615 -0.000957375 -0.000210994 -0.00729438 0.00199053 -0.00299641)
(0.0143891 -0.000885132 -0.000213865 -0.00658112 0.00190678 -0.00126496)
(0.0135316 -0.00082331 -0.000259331 -0.00616452 0.000980557 0.00067638)
(-0.00850305 -0.00120731 0.000504622 0.0205121 -0.000225332 -0.00753848)
(-0.00820457 -0.00115241 0.000803667 0.019199 -0.000207449 -0.00459748)
(-0.0079287 -0.00109266 0.000749922 0.0180081 -0.000209061 -0.00181352)
(-0.00787123 -0.00103738 0.000362315 0.0169382 -0.00022673 0.00107314)
(-0.00816678 -0.00339464 0.000488219 0.0202005 5.18326e-05 -0.00749163)
(-0.00787864 -0.00321129 0.000778945 0.018862 8.80795e-05 -0.00455202)
(-0.00761985 -0.00303643 0.000720429 0.0176668 8.32492e-05 -0.00176602)
(-0.00757361 -0.00288838 0.000332273 0.0165699 4.07892e-05 0.00112604)
(-0.00746769 -0.00557812 0.000481916 0.019485 9.23828e-05 -0.0074876)
(-0.00721743 -0.00525978 0.00076839 0.0181969 0.000151449 -0.00454774)
(-0.00699257 -0.00497252 0.000710816 0.0170356 0.000142308 -0.00176179)
(-0.00697173 -0.00474723 0.00032825 0.0159719 6.88067e-05 0.0011298)
(-0.00643002 -0.0076173 0.000472189 0.0184462 0.000132224 -0.00748514)
(-0.0062398 -0.0071827 0.000753239 0.0172171 0.000213467 -0.00454525)
(-0.00606728 -0.00679055 0.000696914 0.0161091 0.000199666 -0.00175938)
(-0.00608871 -0.00648434 0.000321563 0.0150876 9.59793e-05 0.00113202)
(-0.00508599 -0.00946918 0.000459303 0.017101 0.000170651 -0.0074835)
(-0.00497235 -0.0089291 0.00073338 0.0159487 0.000273365 -0.00454365)
(-0.00486882 -0.00844185 0.000678601 0.0149099 0.000254905 -0.00175784)
(-0.00494422 -0.00806152 0.000312769 0.0139426 0.000121779 0.00113344)
(-0.00346864 -0.0110881 0.000443374 0.015483 0.00020731 -0.00748225)
(-0.00344701 -0.0104559 0.000708978 0.0144228 0.000330851 -0.00454246)
(-0.00342655 -0.00988548 0.000656171 0.0134672 0.000307839 -0.0017567)
(-0.00356689 -0.00944019 0.000302193 0.0125649 0.000146113 0.00113449)
(-0.00161779 -0.0124344 0.000424593 0.0136317 0.000241923 -0.00748119)
(-0.0017013 -0.0117256 0.000680263 0.0126768 0.000385626 -0.00454148)
(-0.00177589 -0.0110858 0.000629874 0.0118163 0.000358271 -0.00175577)
(-0.00199058 -0.0105864 0.000290023 0.0109884 0.000168992 0.00113532)
(0.000421167 -0.0134751 0.000403227 0.0115929 0.000274181 -0.0074803)
(0.000221987 -0.0127067 0.000647533 0.0107535 0.000437345 -0.00454068)
(4.26128e-05 -0.0120131 0.000599974 0.00999764 0.000405952 -0.00175503)
(-0.000254129 -0.0114716 0.000276416 0.00925164 0.000190392 0.00113598)
(0.0025984 -0.0141848 0.000379677 0.00941656 0.000303733 -0.00747963)
(0.00227576 -0.013375 0.000611215 0.00870045 0.000485654 -0.0045401)
(0.00198411 -0.0126443 0.000566805 0.00805627 0.000450623 -0.0017545)
(0.00159953 -0.0120738 0.000261553 0.00739761 0.000210259 0.00113645)
(0.00486311 -0.0145465 0.000355132 0.0071559 0.000330315 -0.00747925)
(0.00440916 -0.0137137 0.000572033 0.00656841 0.000530376 -0.00453978)
(0.00400011 -0.0129637 0.000530801 0.00604061 0.000492162 -0.00175422)
(0.00352421 -0.0123784 0.000245614 0.00547261 0.000228598 0.00113669)
(0.0071559 -0.0145465 0.000330319 0.00486311 0.000355129 -0.00747925)
(0.0065684 -0.0137137 0.00053038 0.00440917 0.00057203 -0.00453978)
(0.0060406 -0.0129637 0.000492164 0.00400011 0.000530799 -0.00175422)
(0.00547261 -0.0123784 0.0002286 0.00352421 0.000245612 0.00113669)
(0.00941655 -0.0141848 0.000303737 0.00259841 0.000379675 -0.00747963)
(0.00870045 -0.013375 0.000485657 0.00227576 0.000611213 -0.0045401)
(0.00805627 -0.0126443 0.000450627 0.00198412 0.000566804 -0.0017545)
(0.00739761 -0.0120738 0.000210261 0.00159953 0.000261551 0.00113645)
(0.0115929 -0.0134751 0.000274185 0.00042117 0.000403225 -0.0074803)
(0.0107535 -0.0127067 0.000437348 0.00022199 0.000647532 -0.00454068)
(0.00999764 -0.0120131 0.000405955 4.2615e-05 0.000599973 -0.00175503)
(0.00925164 -0.0114716 0.000190395 -0.000254128 0.000276415 0.00113599)
(0.0136317 -0.0124344 0.000241927 -0.00161779 0.000424592 -0.00748119)
(0.0126768 -0.0117256 0.000385629 -0.0017013 0.000680263 -0.00454148)
(0.0118163 -0.0110858 0.000358274 -0.00177589 0.000629874 -0.00175577)
(0.0109884 -0.0105864 0.000168994 -0.00199058 0.000290022 0.00113533)
(0.015483 -0.0110881 0.000207313 -0.00346863 0.000443373 -0.00748225)
(0.0144228 -0.0104559 0.000330854 -0.00344701 0.000708978 -0.00454246)
(0.0134672 -0.00988548 0.000307843 -0.00342655 0.000656171 -0.0017567)
(0.0125649 -0.00944019 0.000146115 -0.00356689 0.000302193 0.00113449)
(0.017101 -0.00946918 0.000170654 -0.00508598 0.000459302 -0.00748351)
(0.0159487 -0.0089291 0.000273368 -0.00497235 0.000733381 -0.00454365)
(0.0149099 -0.00844185 0.000254908 -0.00486882 0.000678602 -0.00175784)
(0.0139426 -0.00806152 0.00012178 -0.00494422 0.00031277 0.00113344)
(0.0184462 -0.00761729 0.000132227 -0.00643001 0.000472189 -0.00748514)
(0.0172171 -0.0071827 0.00021347 -0.00623979 0.000753241 -0.00454525)
(0.0161091 -0.00679055 0.000199668 -0.00606728 0.000696916 -0.00175937)
(0.0150876 -0.00648434 9.5981e-05 -0.00608871 0.000321564 0.00113202)
(0.019485 -0.00557811 9.23845e-05 -0.00746768 0.000481916 -0.0074876)
(0.0181969 -0.00525978 0.00015145 -0.00721743 0.000768392 -0.00454774)
(0.0170356 -0.00497252 0.00014231 -0.00699257 0.000710818 -0.00176179)
(0.0159719 -0.00474723 6.8808e-05 -0.00697173 0.000328251 0.00112981)
(0.0202005 -0.00339464 5.18335e-05 -0.00816677 0.000488219 -0.00749163)
(0.018862 -0.00321129 8.80806e-05 -0.00787863 0.000778947 -0.00455202)
(0.0176668 -0.00303643 8.32502e-05 -0.00761985 0.000720431 -0.00176602)
(0.0165699 -0.00288838 4.07901e-05 -0.00757361 0.000332274 0.00112604)
(0.0205121 -0.00120731 -0.000225331 -0.00850304 0.000504623 -0.00753848)
(0.019199 -0.00115241 -0.000207449 -0.00820456 0.00080367 -0.00459748)
(0.0180081 -0.00109266 -0.00020906 -0.00792869 0.000749924 -0.00181352)
(0.0169382 -0.00103738 -0.00022673 -0.00787123 0.000362317 0.00107315)
(-0.00919418 -0.00135905 0.000117129 0.0235422 -0.000171001 -0.00880902)
(-0.00898014 -0.00130256 0.000151332 0.0220568 -0.000167525 -0.00556573)
(-0.00884465 -0.00124321 0.000122697 0.0207037 -0.00016808 -0.00242079)
(-0.00888152 -0.00118498 3.53529e-05 0.0194826 -0.000170597 0.000755569)
(-0.00881497 -0.00383037 0.000103129 0.02319 7.86287e-06 -0.00875957)
(-0.00861422 -0.00363773 0.000134585 0.0216767 1.36735e-05 -0.00551587)
(-0.00849615 -0.00345978 0.000105219 0.0203169 1.20447e-05 -0.00236872)
(-0.00854157 -0.00330236 1.92757e-05 0.0190639 4.36103e-06 0.000811317)
(-0.00802622 -0.00629373 0.000101828 0.0223842 1.72347e-05 -0.00875591)
(-0.00786558 -0.00595836 0.000132242 0.0209237 2.54629e-05 -0.00551208)
(-0.00778176 -0.00566597 0.000103273 0.019598 2.18474e-05 -0.00236494)