/*--------------------------------*- C++ -*----------------------------------*\
| =========                 |                                                 |
| \\      /  F ield         | foam-extend: Open Source CFD                    |
|  \\    /   O peration     | Version:     3.1                                |
|   \\  /    A nd           | Web:         http://www.extend-project.de       |
|    \\/     M anipulation  |                                                 |
\*---------------------------------------------------------------------------*/
FoamFile
{
    version     2.0;
    format      ascii;
    class       pointVectorField;
    location    "0.002";
    object      pointD;
}
// * * * * * * * * * * * * * * * * * * * * * * * * * * * * * * * * * * * * * //

dimensions      [0 1 0 0 0 0 0];

internalField   nonuniform List<vector> 
8505
(
(0 0 0)
(0 0 0)
(0 0 0)
(0 0 0)
(0 0 0)
(0 0 0)
(0 0 0)
(0 0 0)
(0 0 0)
(0 0 0)
(0 0 0)
(0 0 0)
(0 0 0)
(0 0 0)
(0 0 0)
(0 0 0)
(0 0 0)
(0 0 0)
(0 0 0)
(0 0 0)
(0 0 0)
(0 0 0)
(0 0 0)
(0 0 0)
(0 0 0)
(0 0 0)
(0 0 0)
(0 0 0)
(0 0 0)
(0 0 0)
(0 0 0)
(0 0 0)
(0 0 0)
(0 0 0)
(0 0 0)
(0 0 0)
(0 0 0)
(0 0 0)
(0 0 0)
(0 0 0)
(0 0 0)
(0 0 0)
(0 0 0)
(0 0 0)
(0 0 0)
(0 0 0)
(0 0 0)
(0 0 0)
(0 0 0)
(0 0 0)
(0 0 0)
(0 0 0)
(0 0 0)
(0 0 0)
(0 0 0)
(0 0 0)
(0 0 0)
(0 0 0)
(0 0 0)
(0 0 0)
(0 0 0)
(0 0 0)
(0 0 0)
(0 0 0)
(0 0 0)
(0 0 0)
(0 0 0)
(0 0 0)
(0 0 0)
(0 0 0)
(0 0 0)
(0 0 0)
(0 0 0)
(0 0 0)
(0 0 0)
(0 0 0)
(0 0 0)
(0 0 0)
(0 0 0)
(0 0 0)
(0 0 0)
(0 0 0)
(0 0 0)
(0 0 0)
(0 0 0)
(0 0 0)
(0 0 0)
(0 0 0)
(0 0 0)
(0 0 0)
(0 0 0)
(0 0 0)
(0 0 0)
(0 0 0)
(0 0 0)
(0 0 0)
(0 0 0)
(0 0 0)
(0 0 0)
(0 0 0)
(0 0 0)
(0 0 0)
(0 0 0)
(0 0 0)
(0 0 0)
(2.14545e-05 0 1.44485e-05)
(1.91106e-05 0 6.65732e-06)
(1.78543e-05 0 9.18467e-07)
(1.75001e-05 0 -4.68469e-06)
(1.80689e-05 0 -1.18934e-05)
(2.12985e-05 1.64086e-06 1.41914e-05)
(1.89951e-05 1.47358e-06 6.47939e-06)
(1.77709e-05 1.38156e-06 7.58072e-07)
(1.74472e-05 1.35684e-06 -4.87435e-06)
(1.80516e-05 1.40223e-06 -1.21773e-05)
(2.10875e-05 3.32013e-06 1.41844e-05)
(1.8809e-05 2.96331e-06 6.47618e-06)
(1.75995e-05 2.77526e-06 7.56187e-07)
(1.72825e-05 2.72721e-06 -4.87557e-06)
(1.78862e-05 2.82407e-06 -1.21772e-05)
(2.07551e-05 4.96893e-06 1.41801e-05)
(1.85132e-05 4.43316e-06 6.47363e-06)
(1.7323e-05 4.15012e-06 7.54768e-07)
(1.70113e-05 4.07754e-06 -4.87611e-06)
(1.76061e-05 4.22203e-06 -1.21765e-05)
(2.02972e-05 6.5845e-06 1.41778e-05)
(1.81048e-05 5.87419e-06 6.47241e-06)
(1.69409e-05 5.49829e-06 7.54349e-07)
(1.66362e-05 5.4013e-06 -4.87574e-06)
(1.72179e-05 5.59186e-06 -1.21751e-05)
(1.97152e-05 8.15793e-06 1.41768e-05)
(1.75856e-05 7.27783e-06 6.47213e-06)
(1.6455e-05 6.81158e-06 7.54642e-07)
(1.61589e-05 6.69077e-06 -4.87481e-06)
(1.67239e-05 6.9262e-06 -1.21733e-05)
(1.90123e-05 9.68003e-06 1.41767e-05)
(1.69583e-05 8.63569e-06 6.47247e-06)
(1.58679e-05 8.08206e-06 7.55375e-07)
(1.55823e-05 7.93821e-06 -4.87358e-06)
(1.61269e-05 8.21708e-06 -1.21713e-05)
(1.81924e-05 1.11418e-05 1.41773e-05)
(1.62267e-05 9.93965e-06 6.47322e-06)
(1.51831e-05 9.30204e-06 7.56349e-07)
(1.49097e-05 9.13603e-06 -4.87225e-06)
(1.54307e-05 9.45662e-06 -1.21693e-05)
(1.72606e-05 1.25346e-05 1.41784e-05)
(1.53951e-05 1.11819e-05 6.47423e-06)
(1.44048e-05 1.04642e-05 7.57389e-07)
(1.41453e-05 1.0277e-05 -4.87099e-06)
(1.46397e-05 1.06373e-05 -1.21675e-05)
(1.62223e-05 1.38504e-05 1.41799e-05)
(1.44686e-05 1.23552e-05 6.47527e-06)
(1.3538e-05 1.15617e-05 7.58275e-07)
(1.32942e-05 1.13543e-05 -4.87004e-06)
(1.37589e-05 1.1752e-05 -1.21662e-05)
(1.50827e-05 1.50827e-05 1.41807e-05)
(1.3453e-05 1.3453e-05 6.47576e-06)
(1.25882e-05 1.25882e-05 7.58647e-07)
(1.2362e-05 1.2362e-05 -4.86967e-06)
(1.27944e-05 1.27944e-05 -1.21657e-05)
(1.38504e-05 1.62223e-05 1.41799e-05)
(1.23552e-05 1.44686e-05 6.47527e-06)
(1.15617e-05 1.3538e-05 7.58274e-07)
(1.13543e-05 1.32942e-05 -4.87004e-06)
(1.1752e-05 1.37589e-05 -1.21662e-05)
(1.25346e-05 1.72606e-05 1.41784e-05)
(1.11819e-05 1.53951e-05 6.47423e-06)
(1.04642e-05 1.44048e-05 7.57387e-07)
(1.0277e-05 1.41454e-05 -4.87099e-06)
(1.06373e-05 1.46397e-05 -1.21675e-05)
(1.11418e-05 1.81925e-05 1.41773e-05)
(9.93965e-06 1.62267e-05 6.47322e-06)
(9.30204e-06 1.51831e-05 7.56346e-07)
(9.13603e-06 1.49097e-05 -4.87225e-06)
(9.45661e-06 1.54307e-05 -1.21693e-05)
(9.68003e-06 1.90123e-05 1.41767e-05)
(8.63569e-06 1.69583e-05 6.47246e-06)
(8.08206e-06 1.58679e-05 7.55371e-07)
(7.93821e-06 1.55823e-05 -4.87359e-06)
(8.21708e-06 1.6127e-05 -1.21713e-05)
(8.15792e-06 1.97152e-05 1.41768e-05)
(7.27783e-06 1.75856e-05 6.47212e-06)
(6.81158e-06 1.6455e-05 7.54638e-07)
(6.69077e-06 1.61589e-05 -4.87481e-06)
(6.9262e-06 1.67239e-05 -1.21733e-05)
(6.5845e-06 2.02972e-05 1.41778e-05)
(5.87419e-06 1.81048e-05 6.4724e-06)
(5.49829e-06 1.69409e-05 7.54344e-07)
(5.4013e-06 1.66362e-05 -4.87574e-06)
(5.59186e-06 1.72179e-05 -1.21751e-05)
(4.96893e-06 2.07551e-05 1.41801e-05)
(4.43316e-06 1.85132e-05 6.47362e-06)
(4.15012e-06 1.7323e-05 7.54762e-07)
(4.07754e-06 1.70113e-05 -4.87611e-06)
(4.22203e-06 1.76061e-05 -1.21765e-05)
(3.32013e-06 2.10875e-05 1.41844e-05)
(2.96331e-06 1.8809e-05 6.47617e-06)
(2.77526e-06 1.75995e-05 7.56181e-07)
(2.72721e-06 1.72825e-05 -4.87558e-06)
(2.82407e-06 1.78862e-05 -1.21772e-05)
(1.64086e-06 2.12985e-05 1.41914e-05)
(1.47358e-06 1.89951e-05 6.47939e-06)
(1.38156e-06 1.77709e-05 7.58065e-07)
(1.35684e-06 1.74472e-05 -4.87435e-06)
(1.40223e-06 1.80516e-05 -1.21773e-05)
(0 2.14545e-05 1.44485e-05)
(0 1.91106e-05 6.65732e-06)
(0 1.78543e-05 9.18461e-07)
(0 1.75001e-05 -4.6847e-06)
(0 1.80689e-05 -1.18934e-05)
(4.75206e-05 0 1.94822e-05)
(4.5493e-05 0 9.86896e-06)
(4.39769e-05 0 1.35922e-06)
(4.30319e-05 0 -7.03824e-06)
(4.25342e-05 0 -1.62868e-05)
(4.73057e-05 3.69258e-06 1.91954e-05)
(4.52921e-05 3.55074e-06 9.61074e-06)
(4.37975e-05 3.43922e-06 1.1047e-06)
(4.28733e-05 3.371e-06 -7.31903e-06)
(4.23891e-05 3.33769e-06 -1.66214e-05)
(4.68547e-05 7.40116e-06 1.91851e-05)
(4.48592e-05 7.09124e-06 9.60033e-06)
(4.33808e-05 6.86264e-06 1.09495e-06)
(4.24679e-05 6.72277e-06 -7.32766e-06)
(4.19899e-05 6.65138e-06 -1.66259e-05)
(4.61201e-05 1.10555e-05 1.91794e-05)
(4.41563e-05 1.05885e-05 9.5956e-06)
(4.27009e-05 1.02437e-05 1.0913e-06)
(4.18025e-05 1.00323e-05 -7.32995e-06)
(4.13321e-05 9.92335e-06 -1.66263e-05)
(4.51038e-05 1.46403e-05 1.91765e-05)
(4.31832e-05 1.402e-05 9.59383e-06)
(4.17598e-05 1.35615e-05 1.09054e-06)
(4.0881e-05 1.32797e-05 -7.32956e-06)
(4.04209e-05 1.31337e-05 -1.66245e-05)
(4.38109e-05 1.81338e-05 1.91756e-05)
(4.19452e-05 1.73645e-05 9.59376e-06)
(4.05624e-05 1.67953e-05 1.09129e-06)
(3.97086e-05 1.6445e-05 -7.32787e-06)
(3.92616e-05 1.6263e-05 -1.66217e-05)
(4.22488e-05 2.15147e-05 1.9176e-05)
(4.04493e-05 2.06013e-05 9.59475e-06)
(3.91156e-05 1.99251e-05 1.09287e-06)
(3.82921e-05 1.95086e-05 -7.32556e-06)
(3.78608e-05 1.92916e-05 -1.66184e-05)
(4.04268e-05 2.47624e-05 1.91774e-05)
(3.87046e-05 2.37107e-05 9.59636e-06)
(3.74281e-05 2.29316e-05 1.09484e-06)
(3.664e-05 2.24514e-05 -7.32308e-06)
(3.62272e-05 2.2201e-05 -1.66152e-05)
(3.83559e-05 2.78574e-05 1.91793e-05)
(3.67214e-05 2.66736e-05 9.59823e-06)
(3.55103e-05 2.57964e-05 1.09682e-06)
(3.47625e-05 2.52554e-05 -7.32079e-06)
(3.43709e-05 2.4973e-05 -1.66123e-05)
(3.60486e-05 3.07813e-05 1.91814e-05)
(3.45121e-05 2.94723e-05 9.59992e-06)
(3.3374e-05 2.85022e-05 1.09838e-06)
(3.26715e-05 2.79036e-05 -7.31912e-06)
(3.23037e-05 2.75908e-05 -1.66103e-05)
(3.35178e-05 3.35178e-05 1.91824e-05)
(3.20905e-05 3.20905e-05 9.60066e-06)
(3.1033e-05 3.1033e-05 1.099e-06)
(3.03804e-05 3.03804e-05 -7.3185e-06)
(3.00391e-05 3.00391e-05 -1.66096e-05)
(3.07813e-05 3.60486e-05 1.91814e-05)
(2.94723e-05 3.45121e-05 9.59992e-06)
(2.85022e-05 3.3374e-05 1.09838e-06)
(2.79036e-05 3.26715e-05 -7.31912e-06)
(2.75908e-05 3.23037e-05 -1.66103e-05)
(2.78574e-05 3.83559e-05 1.91793e-05)
(2.66736e-05 3.67215e-05 9.59823e-06)
(2.57964e-05 3.55103e-05 1.09681e-06)
(2.52554e-05 3.47625e-05 -7.3208e-06)
(2.4973e-05 3.43709e-05 -1.66123e-05)
(2.47624e-05 4.04268e-05 1.91774e-05)
(2.37107e-05 3.87046e-05 9.59635e-06)
(2.29316e-05 3.74281e-05 1.09483e-06)
(2.24514e-05 3.664e-05 -7.32308e-06)
(2.2201e-05 3.62272e-05 -1.66152e-05)
(2.15147e-05 4.22488e-05 1.9176e-05)
(2.06013e-05 4.04493e-05 9.59474e-06)
(1.99251e-05 3.91156e-05 1.09287e-06)
(1.95086e-05 3.82921e-05 -7.32557e-06)
(1.92916e-05 3.78608e-05 -1.66184e-05)
(1.81338e-05 4.38109e-05 1.91756e-05)
(1.73645e-05 4.19452e-05 9.59376e-06)
(1.67953e-05 4.05624e-05 1.09129e-06)
(1.6445e-05 3.97086e-05 -7.32788e-06)
(1.62629e-05 3.92616e-05 -1.66217e-05)
(1.46403e-05 4.51038e-05 1.91765e-05)
(1.402e-05 4.31832e-05 9.59382e-06)
(1.35615e-05 4.17598e-05 1.09053e-06)
(1.32797e-05 4.0881e-05 -7.32957e-06)
(1.31337e-05 4.04209e-05 -1.66245e-05)
(1.10555e-05 4.61201e-05 1.91794e-05)
(1.05885e-05 4.41563e-05 9.59559e-06)
(1.02437e-05 4.27009e-05 1.09129e-06)
(1.00323e-05 4.18025e-05 -7.32996e-06)
(9.92335e-06 4.13322e-05 -1.66263e-05)
(7.40116e-06 4.68547e-05 1.91851e-05)
(7.09124e-06 4.48592e-05 9.60032e-06)
(6.86264e-06 4.33808e-05 1.09494e-06)
(6.72277e-06 4.24679e-05 -7.32767e-06)
(6.65138e-06 4.19899e-05 -1.66259e-05)
(3.69258e-06 4.73057e-05 1.91954e-05)
(3.55074e-06 4.52921e-05 9.61073e-06)
(3.43922e-06 4.37975e-05 1.10468e-06)
(3.371e-06 4.28733e-05 -7.31905e-06)
(3.33769e-06 4.23891e-05 -1.66214e-05)
(0 4.75206e-05 1.94822e-05)
(0 4.5493e-05 9.86894e-06)
(0 4.39769e-05 1.35921e-06)
(0 4.30319e-05 -7.03825e-06)
(0 4.25342e-05 -1.62869e-05)
(7.40981e-05 0 1.91086e-05)
(7.21488e-05 0 9.67568e-06)
(7.04319e-05 0 8.65891e-07)
(6.89729e-05 0 -7.8471e-06)
(6.76871e-05 0 -1.69657e-05)
(7.38084e-05 5.78306e-06 1.88362e-05)
(7.18649e-05 5.64639e-06 9.41308e-06)
(7.01583e-05 5.51985e-06 5.9859e-07)
(6.87092e-05 5.41304e-06 -8.13387e-06)
(6.74297e-05 5.32518e-06 -1.72852e-05)
(7.31136e-05 1.1561e-05 1.88258e-05)
(7.11855e-05 1.12632e-05 9.4028e-06)
(6.94944e-05 1.10028e-05 5.88658e-07)
(6.8059e-05 1.07826e-05 -8.14249e-06)
(6.6792e-05 1.05895e-05 -1.72906e-05)
(7.19706e-05 1.72601e-05 1.88199e-05)
(7.00723e-05 1.68107e-05 9.39761e-06)
(6.84069e-05 1.64173e-05 5.84385e-07)
(6.69934e-05 1.60844e-05 -8.14539e-06)
(6.57457e-05 1.57912e-05 -1.72918e-05)
(7.03859e-05 2.28519e-05 1.88171e-05)
(6.8529e-05 2.22542e-05 9.39575e-06)
(6.68998e-05 2.17305e-05 5.83492e-07)
(6.55171e-05 2.12869e-05 -8.14515e-06)
(6.42965e-05 2.08958e-05 -1.72903e-05)
(6.83688e-05 2.83022e-05 1.88166e-05)
(6.65647e-05 2.75601e-05 9.39599e-06)
(6.49819e-05 2.69096e-05 5.84555e-07)
(6.36385e-05 2.63581e-05 -8.14315e-06)
(6.24526e-05 2.58717e-05 -1.72872e-05)
(6.59313e-05 3.35774e-05 1.88177e-05)
(6.41912e-05 3.26958e-05 9.39756e-06)
(6.26645e-05 3.19226e-05 5.86719e-07)
(6.13687e-05 3.12668e-05 -8.14025e-06)
(6.02249e-05 3.06883e-05 -1.72834e-05)
(6.30881e-05 3.86455e-05 1.88198e-05)
(6.14226e-05 3.76297e-05 9.39987e-06)
(5.99615e-05 3.67386e-05 5.89375e-07)
(5.87215e-05 3.59826e-05 -8.13708e-06)
(5.76269e-05 3.53155e-05 -1.72795e-05)
(5.98564e-05 4.34754e-05 1.88225e-05)
(5.82759e-05 4.23317e-05 9.4024e-06)
(5.68896e-05 4.1328e-05 5.9199e-07)
(5.57132e-05 4.04764e-05 -8.13418e-06)
(5.46747e-05 3.97249e-05 -1.72761e-05)
(5.6256e-05 4.80383e-05 1.88251e-05)
(5.47703e-05 4.67732e-05 9.40456e-06)
(5.34677e-05 4.5663e-05 5.93999e-07)
(5.23625e-05 4.47209e-05 -8.13209e-06)
(5.13869e-05 4.38895e-05 -1.72737e-05)
(5.23078e-05 5.23078e-05 1.88263e-05)
(5.09279e-05 5.09279e-05 9.40546e-06)
(4.97177e-05 4.97177e-05 5.94776e-07)
(4.86908e-05 4.86908e-05 -8.13131e-06)
(4.77845e-05 4.77845e-05 -1.72729e-05)
(4.80382e-05 5.6256e-05 1.88251e-05)
(4.67732e-05 5.47703e-05 9.40456e-06)
(4.5663e-05 5.34677e-05 5.93996e-07)
(4.47209e-05 5.23625e-05 -8.13209e-06)
(4.38895e-05 5.13869e-05 -1.72737e-05)
(4.34754e-05 5.98564e-05 1.88225e-05)
(4.23317e-05 5.82759e-05 9.4024e-06)
(4.1328e-05 5.68896e-05 5.91985e-07)
(4.04764e-05 5.57132e-05 -8.13419e-06)
(3.97249e-05 5.46747e-05 -1.72761e-05)
(3.86455e-05 6.30881e-05 1.88198e-05)
(3.76297e-05 6.14226e-05 9.39986e-06)
(3.67386e-05 5.99615e-05 5.89368e-07)
(3.59826e-05 5.87215e-05 -8.13709e-06)
(3.53155e-05 5.76269e-05 -1.72795e-05)
(3.35774e-05 6.59313e-05 1.88177e-05)
(3.26958e-05 6.41912e-05 9.39755e-06)
(3.19226e-05 6.26645e-05 5.8671e-07)
(3.12668e-05 6.13688e-05 -8.14026e-06)
(3.06882e-05 6.02249e-05 -1.72834e-05)
(2.83022e-05 6.83688e-05 1.88166e-05)
(2.75601e-05 6.65648e-05 9.39598e-06)
(2.69096e-05 6.49819e-05 5.84545e-07)
(2.63581e-05 6.36385e-05 -8.14316e-06)
(2.58717e-05 6.24526e-05 -1.72872e-05)
(2.28519e-05 7.03859e-05 1.88171e-05)
(2.22542e-05 6.8529e-05 9.39574e-06)
(2.17305e-05 6.68998e-05 5.8348e-07)
(2.12869e-05 6.55171e-05 -8.14516e-06)
(2.08958e-05 6.42965e-05 -1.72903e-05)
(1.72601e-05 7.19706e-05 1.88199e-05)
(1.68107e-05 7.00723e-05 9.39759e-06)
(1.64173e-05 6.84069e-05 5.84372e-07)
(1.60844e-05 6.69934e-05 -8.1454e-06)
(1.57912e-05 6.57457e-05 -1.72918e-05)
(1.1561e-05 7.31136e-05 1.88258e-05)
(1.12632e-05 7.11855e-05 9.40278e-06)
(1.10028e-05 6.94944e-05 5.88644e-07)
(1.07826e-05 6.8059e-05 -8.14251e-06)
(1.05895e-05 6.6792e-05 -1.72906e-05)
(5.78305e-06 7.38084e-05 1.88362e-05)
(5.64639e-06 7.18649e-05 9.41306e-06)
(5.51985e-06 7.01583e-05 5.98575e-07)
(5.41304e-06 6.87092e-05 -8.13388e-06)
(5.32518e-06 6.74297e-05 -1.72852e-05)
(0 7.40981e-05 1.91086e-05)
(0 7.21489e-05 9.67566e-06)
(0 7.04319e-05 8.65876e-07)
(0 6.89729e-05 -7.84711e-06)
(0 6.76871e-05 -1.69657e-05)
(9.75023e-05 0 1.52834e-05)
(9.54537e-05 0 7.23779e-06)
(9.35011e-05 0 -4.84193e-07)
(9.16487e-05 0 -8.12188e-06)
(8.98345e-05 0 -1.59008e-05)
(9.71398e-05 7.61956e-06 1.50559e-05)
(9.5093e-05 7.47542e-06 7.01051e-06)
(9.31453e-05 7.33102e-06 -7.18725e-07)
(9.12972e-05 7.19521e-06 -8.37004e-06)
(8.94864e-05 7.07134e-06 -1.61673e-05)
(9.6229e-05 1.52208e-05 1.50479e-05)
(9.41973e-05 1.49078e-05 7.00319e-06)
(9.22658e-05 1.46109e-05 -7.25511e-07)
(9.04337e-05 1.43301e-05 -8.37569e-06)
(8.86398e-05 1.40562e-05 -1.61707e-05)
(9.47259e-05 2.27207e-05 1.50431e-05)
(9.27253e-05 2.22484e-05 6.99923e-06)
(9.08227e-05 2.17998e-05 -7.28556e-07)
(8.90185e-05 2.1375e-05 -8.37754e-06)
(8.72517e-05 2.09593e-05 -1.61712e-05)
(9.26408e-05 3.00798e-05 1.50411e-05)
(9.06835e-05 2.94512e-05 6.99805e-06)
(8.88222e-05 2.88537e-05 -7.28835e-07)
(8.70571e-05 2.82875e-05 -8.3768e-06)
(8.53287e-05 2.77332e-05 -1.61694e-05)
(8.99861e-05 3.72529e-05 1.50413e-05)
(8.80845e-05 3.64719e-05 6.99887e-06)
(8.62761e-05 3.57294e-05 -7.27262e-07)
(8.45611e-05 3.50256e-05 -8.37438e-06)
(8.28819e-05 3.43363e-05 -1.6166e-05)
(8.67781e-05 4.4196e-05 1.5043e-05)
(8.49438e-05 4.32676e-05 7.00104e-06)
(8.31995e-05 4.23848e-05 -7.24568e-07)
(8.15454e-05 4.15477e-05 -8.37103e-06)
(7.99257e-05 4.07279e-05 -1.61619e-05)
(8.30361e-05 5.08666e-05 1.50459e-05)
(8.12805e-05 4.97966e-05 7.00395e-06)
(7.96112e-05 4.87788e-05 -7.21382e-07)
(7.80283e-05 4.78137e-05 -8.3674e-06)
(7.64783e-05 4.68686e-05 -1.61577e-05)
(7.87829e-05 5.7224e-05 1.50492e-05)
(7.71169e-05 5.60188e-05 7.00701e-06)
(7.5533e-05 5.48723e-05 -7.18309e-07)
(7.40313e-05 5.37851e-05 -8.36411e-06)
(7.25609e-05 5.27205e-05 -1.6154e-05)
(7.40444e-05 6.32297e-05 1.50523e-05)
(7.24785e-05 6.18964e-05 7.00952e-06)
(7.09903e-05 6.06282e-05 -7.15989e-07)
(6.95795e-05 5.94254e-05 -8.36175e-06)
(6.8198e-05 5.82478e-05 -1.61515e-05)
(6.88486e-05 6.88486e-05 1.50537e-05)
(6.73942e-05 6.73942e-05 7.01055e-06)
(6.60117e-05 6.60117e-05 -7.15102e-07)
(6.47008e-05 6.47008e-05 -8.36088e-06)
(6.34172e-05 6.34172e-05 -1.61505e-05)
(6.32297e-05 7.40444e-05 1.50523e-05)
(6.18964e-05 7.24785e-05 7.00952e-06)
(6.06282e-05 7.09903e-05 -7.15992e-07)
(5.94254e-05 6.95795e-05 -8.36175e-06)
(5.82478e-05 6.81981e-05 -1.61515e-05)
(5.7224e-05 7.87829e-05 1.50492e-05)
(5.60188e-05 7.71169e-05 7.007e-06)
(5.48723e-05 7.5533e-05 -7.18314e-07)
(5.37851e-05 7.40314e-05 -8.36411e-06)
(5.27205e-05 7.25609e-05 -1.6154e-05)
(5.08666e-05 8.30361e-05 1.50459e-05)
(4.97965e-05 8.12805e-05 7.00394e-06)
(4.87788e-05 7.96112e-05 -7.21389e-07)
(4.78137e-05 7.80283e-05 -8.36741e-06)
(4.68686e-05 7.64784e-05 -1.61577e-05)
(4.4196e-05 8.67781e-05 1.5043e-05)
(4.32676e-05 8.49438e-05 7.00103e-06)
(4.23848e-05 8.31995e-05 -7.24577e-07)
(4.15476e-05 8.15454e-05 -8.37104e-06)
(4.07279e-05 7.99258e-05 -1.61619e-05)
(3.72529e-05 8.99862e-05 1.50412e-05)
(3.64719e-05 8.80845e-05 6.99886e-06)
(3.57294e-05 8.62761e-05 -7.27273e-07)
(3.50256e-05 8.45612e-05 -8.37439e-06)
(3.43363e-05 8.28819e-05 -1.6166e-05)
(3.00798e-05 9.26408e-05 1.50411e-05)
(2.94512e-05 9.06835e-05 6.99803e-06)
(2.88537e-05 8.88222e-05 -7.28848e-07)
(2.82875e-05 8.70572e-05 -8.37681e-06)
(2.77332e-05 8.53287e-05 -1.61694e-05)
(2.27207e-05 9.47259e-05 1.50431e-05)
(2.22484e-05 9.27253e-05 6.99921e-06)
(2.17998e-05 9.08227e-05 -7.28569e-07)
(2.1375e-05 8.90185e-05 -8.37755e-06)
(2.09593e-05 8.72517e-05 -1.61712e-05)
(1.52208e-05 9.6229e-05 1.50479e-05)
(1.49078e-05 9.41973e-05 7.00317e-06)
(1.46109e-05 9.22658e-05 -7.25525e-07)
(1.43301e-05 9.04337e-05 -8.37571e-06)
(1.40562e-05 8.86398e-05 -1.61707e-05)
(7.61956e-06 9.71398e-05 1.50559e-05)
(7.47542e-06 9.50931e-05 7.01049e-06)
(7.33102e-06 9.31453e-05 -7.1874e-07)
(7.19521e-06 9.12972e-05 -8.37006e-06)
(7.07134e-06 8.94864e-05 -1.61674e-05)
(0 9.75023e-05 1.52834e-05)
(0 9.54537e-05 7.23777e-06)
(0 9.35011e-05 -4.84209e-07)
(0 9.16487e-05 -8.12189e-06)
(0 8.98345e-05 -1.59008e-05)
(0.000115941 0 9.57004e-06)
(0.000113718 0 3.45691e-06)
(0.000111546 0 -2.51712e-06)
(0.000109414 0 -8.42464e-06)
(0.000107273 0 -1.4333e-05)
(0.000115517 9.06293e-06 9.4001e-06)
(0.000113295 8.90652e-06 3.28294e-06)
(0.000111126 8.74582e-06 -2.69814e-06)
(0.000108996 8.5896e-06 -8.61441e-06)
(0.000106858 8.44377e-06 -1.45318e-05)
(0.000114435 1.81009e-05 9.3951e-06)
(0.000112229 1.77616e-05 3.27896e-06)
(0.000110077 1.74314e-05 -2.70144e-06)
(0.000107965 1.7108e-05 -8.61673e-06)
(0.000105847 1.67849e-05 -1.45324e-05)
(0.000112648 2.70195e-05 9.39212e-06)
(0.000110475 2.65074e-05 3.27692e-06)
(0.000108356 2.60084e-05 -2.70254e-06)
(0.000106276 2.5519e-05 -8.61675e-06)
(0.00010419 2.50284e-05 -1.45313e-05)
(0.000110168 3.57709e-05 9.39129e-06)
(0.000108042 3.50889e-05 3.27692e-06)
(0.000105969 3.44241e-05 -2.70166e-06)
(0.000103934 3.37718e-05 -8.61492e-06)
(0.000101893 3.31176e-05 -1.45285e-05)
(0.000107011 4.43012e-05 9.39235e-06)
(0.000104946 4.34536e-05 3.27859e-06)
(0.000102931 4.26271e-05 -2.69927e-06)
(0.000100954 4.1816e-05 -8.61172e-06)
(9.89714e-05 4.10024e-05 -1.45244e-05)
(0.000103196 5.25581e-05 9.39488e-06)
(0.000101204 5.15502e-05 3.28144e-06)
(9.92608e-05 5.05672e-05 -2.69593e-06)
(9.73539e-05 4.96024e-05 -8.60776e-06)
(9.54415e-05 4.86346e-05 -1.45198e-05)
(9.87464e-05 6.04911e-05 9.39837e-06)
(9.68394e-05 5.93291e-05 3.28492e-06)
(9.498e-05 5.81957e-05 -2.6922e-06)
(9.31552e-05 5.70832e-05 -8.60363e-06)
(9.13252e-05 5.59673e-05 -1.45152e-05)
(9.36887e-05 6.80517e-05 9.40223e-06)
(9.18791e-05 6.67427e-05 3.28844e-06)
(9.01149e-05 6.54658e-05 -2.6887e-06)
(8.83837e-05 6.42124e-05 -8.59994e-06)
(8.66476e-05 6.29554e-05 -1.45112e-05)
(8.80539e-05 7.51939e-05 9.4057e-06)
(8.63532e-05 7.37457e-05 3.29126e-06)
(8.46956e-05 7.2333e-05 -2.68611e-06)
(8.30691e-05 7.09465e-05 -8.59734e-06)
(8.14381e-05 6.95559e-05 -1.45084e-05)
(8.18756e-05 8.18756e-05 9.40723e-06)
(8.0296e-05 8.0296e-05 3.2924e-06)
(7.8756e-05 7.8756e-05 -2.68513e-06)
(7.72447e-05 7.72447e-05 -8.59638e-06)
(7.57292e-05 7.57292e-05 -1.45074e-05)
(7.51939e-05 8.80539e-05 9.4057e-06)
(7.37457e-05 8.63532e-05 3.29126e-06)
(7.2333e-05 8.46956e-05 -2.68611e-06)
(7.09465e-05 8.30692e-05 -8.59734e-06)
(6.95559e-05 8.14381e-05 -1.45084e-05)
(6.80517e-05 9.36887e-05 9.40223e-06)
(6.67427e-05 9.18791e-05 3.28844e-06)
(6.54658e-05 9.01149e-05 -2.68871e-06)
(6.42124e-05 8.83837e-05 -8.59995e-06)
(6.29554e-05 8.66477e-05 -1.45112e-05)
(6.04911e-05 9.87464e-05 9.39836e-06)
(5.93291e-05 9.68394e-05 3.28492e-06)
(5.81957e-05 9.498e-05 -2.69221e-06)
(5.70832e-05 9.31552e-05 -8.60363e-06)
(5.59673e-05 9.13252e-05 -1.45152e-05)
(5.25581e-05 0.000103196 9.39486e-06)
(5.15502e-05 0.000101204 3.28143e-06)
(5.05672e-05 9.92608e-05 -2.69593e-06)
(4.96024e-05 9.73539e-05 -8.60777e-06)
(4.86346e-05 9.54415e-05 -1.45198e-05)
(4.43012e-05 0.000107011 9.39233e-06)
(4.34536e-05 0.000104946 3.27858e-06)
(4.26271e-05 0.000102931 -2.69928e-06)
(4.1816e-05 0.000100954 -8.61173e-06)
(4.10024e-05 9.89714e-05 -1.45245e-05)
(3.57709e-05 0.000110168 9.39127e-06)
(3.50889e-05 0.000108042 3.27691e-06)
(3.44241e-05 0.000105969 -2.70167e-06)
(3.37718e-05 0.000103934 -8.61493e-06)
(3.31176e-05 0.000101893 -1.45285e-05)
(2.70195e-05 0.000112648 9.3921e-06)
(2.65074e-05 0.000110475 3.27691e-06)
(2.60084e-05 0.000108356 -2.70255e-06)
(2.5519e-05 0.000106276 -8.61676e-06)
(2.50284e-05 0.00010419 -1.45313e-05)
(1.81009e-05 0.000114435 9.39508e-06)
(1.77616e-05 0.000112229 3.27894e-06)
(1.74314e-05 0.000110077 -2.70146e-06)
(1.7108e-05 0.000107965 -8.61674e-06)
(1.67849e-05 0.000105847 -1.45325e-05)
(9.06293e-06 0.000115517 9.40008e-06)
(8.90652e-06 0.000113295 3.28292e-06)
(8.74582e-06 0.000111126 -2.69816e-06)
(8.5896e-06 0.000108996 -8.61442e-06)
(8.44377e-06 0.000106858 -1.45318e-05)
(0 0.000115941 9.57002e-06)
(0 0.000113718 3.4569e-06)
(0 0.000111546 -2.51714e-06)
(0 0.000109414 -8.42465e-06)
(0 0.000107273 -1.4333e-05)
(0.000128877 0 2.98634e-06)
(0.000126481 0 -1.0467e-06)
(0.000124139 0 -5.04553e-06)
(0.000121828 0 -8.99901e-06)
(0.000119506 0 -1.28956e-05)
(0.000128408 1.00731e-05 2.87593e-06)
(0.000126013 9.90491e-06 -1.16195e-06)
(0.000123673 9.73187e-06 -5.1662e-06)
(0.000121364 9.56279e-06 -9.12452e-06)
(0.000119045 9.40514e-06 -1.30243e-05)
(0.000127205 2.01186e-05 2.87357e-06)
(0.000124827 1.97536e-05 -1.1632e-06)
(0.000122506 1.9398e-05 -5.16667e-06)
(0.000120216 1.90479e-05 -9.12412e-06)
(0.000117919 1.86981e-05 -1.30227e-05)
(0.000125218 3.00321e-05 2.87245e-06)
(0.000122875 2.9481e-05 -1.1633e-06)
(0.00012059 2.89435e-05 -5.1658e-06)
(0.000118334 2.84135e-05 -9.12221e-06)
(0.000116072 2.78822e-05 -1.30197e-05)
(0.000122461 3.97599e-05 2.87287e-06)
(0.000120169 3.90256e-05 -1.16196e-06)
(0.000117933 3.83093e-05 -5.16352e-06)
(0.000115726 3.76026e-05 -9.11895e-06)
(0.000113513 3.68939e-05 -1.30154e-05)
(0.000118951 4.92421e-05 2.8748e-06)
(0.000116724 4.83291e-05 -1.15934e-06)
(0.000114551 4.74383e-05 -5.16009e-06)
(0.000112407 4.65594e-05 -9.11464e-06)
(0.000110257 4.56778e-05 -1.30102e-05)
(0.00011471 5.84205e-05 2.87797e-06)
(0.000112562 5.73346e-05 -1.15577e-06)
(0.000110466 5.62748e-05 -5.15594e-06)
(0.000108398 5.5229e-05 -9.10978e-06)
(0.000106325 5.41801e-05 -1.30045e-05)
(0.000109763 6.7239e-05 2.88195e-06)
(0.000107708 6.59868e-05 -1.15173e-06)
(0.000105702 6.47645e-05 -5.15158e-06)
(0.000103723 6.35584e-05 -9.10493e-06)
(0.000101739 6.23488e-05 -1.29991e-05)
(0.000104141 7.56436e-05 2.8862e-06)
(0.000102191 7.42328e-05 -1.1478e-06)
(0.000100288 7.28556e-05 -5.14762e-06)
(9.84104e-05 7.14966e-05 -9.10072e-06)
(9.65279e-05 7.01337e-05 -1.29946e-05)
(9.78777e-05 8.3583e-05 2.88993e-06)
(9.60447e-05 8.20221e-05 -1.14471e-06)
(9.42568e-05 8.04984e-05 -5.14473e-06)
(9.2493e-05 7.89949e-05 -9.09779e-06)
(9.07244e-05 7.74871e-05 -1.29915e-05)
(9.10102e-05 9.10102e-05 2.89156e-06)
(8.93077e-05 8.93077e-05 -1.14348e-06)
(8.76466e-05 8.76466e-05 -5.14365e-06)
(8.60078e-05 8.60078e-05 -9.09672e-06)
(8.43644e-05 8.43644e-05 -1.29903e-05)
(8.3583e-05 9.78777e-05 2.88993e-06)
(8.20221e-05 9.60447e-05 -1.14471e-06)
(8.04984e-05 9.42568e-05 -5.14473e-06)
(7.89949e-05 9.2493e-05 -9.09779e-06)
(7.74871e-05 9.07244e-05 -1.29915e-05)
(7.56435e-05 0.000104141 2.88619e-06)
(7.42328e-05 0.000102191 -1.1478e-06)
(7.28556e-05 0.000100288 -5.14762e-06)
(7.14966e-05 9.84104e-05 -9.10073e-06)
(7.01337e-05 9.65279e-05 -1.29946e-05)
(6.7239e-05 0.000109763 2.88195e-06)
(6.59868e-05 0.000107708 -1.15174e-06)
(6.47645e-05 0.000105702 -5.15159e-06)
(6.35584e-05 0.000103723 -9.10494e-06)
(6.23488e-05 0.000101739 -1.29991e-05)
(5.84205e-05 0.00011471 2.87796e-06)
(5.73346e-05 0.000112562 -1.15578e-06)
(5.62748e-05 0.000110466 -5.15595e-06)
(5.5229e-05 0.000108398 -9.10978e-06)
(5.41801e-05 0.000106325 -1.30046e-05)
(4.92421e-05 0.000118951 2.87479e-06)
(4.83291e-05 0.000116724 -1.15935e-06)
(4.74383e-05 0.000114551 -5.1601e-06)
(4.65594e-05 0.000112407 -9.11465e-06)
(4.56778e-05 0.000110257 -1.30102e-05)
(3.97599e-05 0.000122461 2.87286e-06)
(3.90256e-05 0.000120169 -1.16197e-06)
(3.83093e-05 0.000117933 -5.16353e-06)
(3.76026e-05 0.000115726 -9.11895e-06)
(3.68939e-05 0.000113513 -1.30154e-05)
(3.00321e-05 0.000125218 2.87243e-06)
(2.9481e-05 0.000122875 -1.16331e-06)
(2.89435e-05 0.00012059 -5.16581e-06)
(2.84135e-05 0.000118334 -9.12222e-06)
(2.78822e-05 0.000116072 -1.30197e-05)
(2.01186e-05 0.000127205 2.87355e-06)
(1.97536e-05 0.000124827 -1.16321e-06)
(1.9398e-05 0.000122506 -5.16669e-06)
(1.90479e-05 0.000120216 -9.12413e-06)
(1.86981e-05 0.000117919 -1.30227e-05)
(1.00731e-05 0.000128408 2.87592e-06)
(9.90491e-06 0.000126013 -1.16197e-06)
(9.73187e-06 0.000123673 -5.16621e-06)
(9.56279e-06 0.000121364 -9.12453e-06)
(9.40514e-06 0.000119045 -1.30243e-05)
(0 0.000128877 2.98632e-06)
(0 0.000126481 -1.04671e-06)
(0 0.000124139 -5.04554e-06)
(0 0.000121828 -8.99902e-06)
(0 0.000119506 -1.28956e-05)
(0.000136403 0 -3.87471e-06)
(0.000133881 0 -5.87119e-06)
(0.000131433 0 -7.8898e-06)
(0.000129028 0 -9.88531e-06)
(0.000126629 0 -1.18143e-05)
(0.000135906 1.06587e-05 -3.92817e-06)
(0.000133386 1.04823e-05 -5.92844e-06)
(0.000130941 1.03019e-05 -7.95017e-06)
(0.000128538 1.01265e-05 -9.94738e-06)
(0.000126143 9.9642e-06 -1.1876e-05)
(0.000134631 2.12893e-05 -3.92852e-06)
(0.000132129 2.09062e-05 -5.92769e-06)
(0.000129704 2.05354e-05 -7.9486e-06)
(0.000127321 2.01721e-05 -9.94497e-06)
(0.000124949 1.98117e-05 -1.18726e-05)
(0.000132527 3.17807e-05 -3.92814e-06)
(0.000130062 3.12018e-05 -5.92617e-06)
(0.000127673 3.06411e-05 -7.946e-06)
(0.000125327 3.00908e-05 -9.94129e-06)
(0.00012299 2.95431e-05 -1.18678e-05)
(0.000129608 4.20757e-05 -3.92669e-06)
(0.000127196 4.13041e-05 -5.92361e-06)
(0.000124859 4.05565e-05 -7.94233e-06)
(0.000122563 3.98226e-05 -9.93646e-06)
(0.000120277 3.90916e-05 -1.18618e-05)
(0.000125892 5.2111e-05 -3.92413e-06)
(0.000123549 5.11512e-05 -5.92009e-06)
(0.000121277 5.02212e-05 -7.93777e-06)
(0.000119047 4.93079e-05 -9.93078e-06)
(0.000116825 4.83983e-05 -1.18549e-05)
(0.000121402 6.1825e-05 -3.92059e-06)
(0.000119142 6.06829e-05 -5.91587e-06)
(0.000116951 5.95762e-05 -7.93271e-06)
(0.0001148 5.84892e-05 -9.92476e-06)
(0.000112657 5.74065e-05 -1.18478e-05)
(0.000116166 7.11582e-05 -3.91639e-06)
(0.000114003 6.9841e-05 -5.91136e-06)
(0.000111906 6.85642e-05 -7.92764e-06)
(0.000109848 6.73102e-05 -9.91896e-06)
(0.000107797 6.60611e-05 -1.18412e-05)
(0.000110215 8.00535e-05 -3.91202e-06)
(0.000108163 7.85692e-05 -5.9071e-06)
(0.000106174 7.71303e-05 -7.92316e-06)
(0.000104221 7.5717e-05 -9.91403e-06)
(0.000102276 7.43093e-05 -1.18357e-05)
(0.000103586 8.84566e-05 -3.90818e-06)
(0.000101657 8.68142e-05 -5.9038e-06)
(9.97885e-05 8.52219e-05 -7.91995e-06)
(9.79536e-05 8.3658e-05 -9.91065e-06)
(9.61263e-05 8.21005e-05 -1.1832e-05)
(9.63175e-05 9.63175e-05 -3.90651e-06)
(9.4526e-05 9.4526e-05 -5.9025e-06)
(9.279e-05 9.27901e-05 -7.91876e-06)
(9.10852e-05 9.10853e-05 -9.90943e-06)
(8.93875e-05 8.93875e-05 -1.18307e-05)
(8.84566e-05 0.000103586 -3.90819e-06)
(8.68142e-05 0.000101657 -5.90381e-06)
(8.52219e-05 9.97885e-05 -7.91995e-06)
(8.3658e-05 9.79536e-05 -9.91065e-06)
(8.21005e-05 9.61263e-05 -1.1832e-05)
(8.00535e-05 0.000110215 -3.91202e-06)
(7.85692e-05 0.000108163 -5.9071e-06)
(7.71303e-05 0.000106174 -7.92316e-06)
(7.5717e-05 0.000104221 -9.91404e-06)
(7.43093e-05 0.000102276 -1.18357e-05)
(7.11582e-05 0.000116166 -3.9164e-06)
(6.9841e-05 0.000114003 -5.91137e-06)
(6.85642e-05 0.000111906 -7.92765e-06)
(6.73102e-05 0.000109848 -9.91896e-06)
(6.60611e-05 0.000107797 -1.18412e-05)
(6.1825e-05 0.000121402 -3.92061e-06)
(6.06829e-05 0.000119142 -5.91588e-06)
(5.95762e-05 0.000116951 -7.93272e-06)
(5.84892e-05 0.0001148 -9.92476e-06)
(5.74065e-05 0.000112657 -1.18478e-05)
(5.2111e-05 0.000125892 -3.92415e-06)
(5.11512e-05 0.000123549 -5.9201e-06)
(5.02212e-05 0.000121277 -7.93778e-06)
(4.93079e-05 0.000119047 -9.93079e-06)
(4.83983e-05 0.000116825 -1.18549e-05)
(4.20757e-05 0.000129608 -3.92671e-06)
(4.13041e-05 0.000127196 -5.92362e-06)
(4.05565e-05 0.000124859 -7.94234e-06)
(3.98225e-05 0.000122563 -9.93646e-06)
(3.90916e-05 0.000120277 -1.18618e-05)
(3.17807e-05 0.000132527 -3.92816e-06)
(3.12018e-05 0.000130062 -5.92618e-06)
(3.06411e-05 0.000127673 -7.94601e-06)
(3.00908e-05 0.000125327 -9.9413e-06)
(2.95431e-05 0.00012299 -1.18678e-05)
(2.12893e-05 0.000134631 -3.92854e-06)
(2.09062e-05 0.000132129 -5.92771e-06)
(2.05354e-05 0.000129704 -7.94861e-06)
(2.01721e-05 0.000127321 -9.94498e-06)
(1.98117e-05 0.000124949 -1.18726e-05)
(1.06587e-05 0.000135906 -3.92818e-06)
(1.04823e-05 0.000133386 -5.92846e-06)
(1.03019e-05 0.000130941 -7.95019e-06)
(1.01265e-05 0.000128538 -9.94739e-06)
(9.9642e-06 0.000126143 -1.1876e-05)
(0 0.000136403 -3.87473e-06)
(0 0.000133881 -5.87121e-06)
(0 0.000131433 -7.88982e-06)
(0 0.000129028 -9.88532e-06)
(0 0.000126629 -1.18143e-05)
(0.000138831 0 -1.06859e-05)
(0.000136252 0 -1.07569e-05)
(0.000133768 0 -1.08848e-05)
(0.000131345 0 -1.10117e-05)
(0.000128945 0 -1.10827e-05)
(0.000138324 1.08447e-05 -1.06862e-05)
(0.000135747 1.06652e-05 -1.07592e-05)
(0.000133267 1.04829e-05 -1.08878e-05)
(0.000130846 1.03068e-05 -1.10137e-05)
(0.000128451 1.01454e-05 -1.10819e-05)
(0.000137025 2.16622e-05 -1.06851e-05)
(0.000134467 2.12719e-05 -1.07571e-05)
(0.000132006 2.08968e-05 -1.08847e-05)
(0.000129606 2.05321e-05 -1.10098e-05)
(0.000127234 2.01732e-05 -1.10772e-05)
(0.000134881 3.23381e-05 -1.06837e-05)
(0.000132361 3.17479e-05 -1.07543e-05)
(0.000129937 3.11806e-05 -1.08807e-05)
(0.000127573 3.06279e-05 -1.10045e-05)
(0.000125236 3.00821e-05 -1.10706e-05)
(0.000131907 4.28144e-05 -1.06816e-05)
(0.000129442 4.20273e-05 -1.07508e-05)