/*--------------------------------*- C++ -*----------------------------------*\
| =========                 |                                                 |
| \\      /  F ield         | foam-extend: Open Source CFD                    |
|  \\    /   O peration     | Version:     3.1                                |
|   \\  /    A nd           | Web:         http://www.extend-project.de       |
|    \\/     M anipulation  |                                                 |
\*---------------------------------------------------------------------------*/
FoamFile
{
    version     2.0;
    format      ascii;
    class       volSymmTensorField;
    location    "0.002";
    object      sigma;
}
// * * * * * * * * * * * * * * * * * * * * * * * * * * * * * * * * * * * * * //

dimensions      [1 -1 -2 0 0 0 0];

internalField   nonuniform List<symmTensor> 
6400
(
(1342.79 -68.432 1942.55 2858.36 42.752 6258.41)
(311.338 -43.0344 2080.63 1271.84 57.0217 2241.89)
(-556.139 -21.8212 1961.42 -43.2252 52.8965 -1135.69)
(-1602.06 -0.627271 1607.14 -1527.96 32.3239 -4986.92)
(1353.03 -177.121 1931.04 2834.2 223.978 6200.89)
(316.708 -112.509 2064.36 1252.96 241.194 2196.64)
(-556.695 -60.0427 1943.41 -58.3315 227.497 -1182.8)
(-1611.86 -8.33282 1587.12 -1543.19 185.609 -5051.47)
(1388.95 -290.596 1906.18 2793.73 376.245 6197.49)
(340.518 -183.661 2037.92 1229.02 403.127 2195.51)
(-543.349 -97.6131 1918.73 -71.1995 380.025 -1183.26)
(-1608.68 -13.011 1567.37 -1545.68 310.652 -5051.38)
(1442.43 -396.64 1870.1 2738.17 525.469 6195.62)
(374.336 -250.724 1999.41 1193.99 562.403 2194.48)
(-525.295 -133.117 1882.48 -89.8486 529.936 -1183.68)
(-1606.22 -17.5528 1537.78 -1548.48 433.224 -5051.25)
(1512.02 -492.913 1822.64 2667.32 671.066 6194.67)
(418.386 -311.644 1948.7 1149.19 717.952 2194.06)
(-501.846 -165.45 1834.73 -113.642 676.346 -1183.64)
(-1602.99 -21.7824 1498.77 -1551.64 552.845 -5050.68)
(1596.03 -577.066 1764.01 2582.68 812.254 6194.36)
(471.586 -364.901 1886.02 1095.67 868.856 2194.09)
(-473.501 -193.739 1775.72 -142.027 818.394 -1183.27)
(-1599.06 -25.5066 1450.55 -1555.28 668.883 -5049.87)
(1692.34 -647.051 1694.51 2486.22 948.24 6194.5)
(532.589 -409.188 1811.73 1034.67 1014.23 2194.43)
(-440.989 -217.264 1705.77 -174.367 955.24 -1182.7)
(-1594.55 -28.6062 1393.4 -1559.39 780.656 -5048.96)
(1798.55 -701.166 1614.57 2380.22 1078.24 6194.98)
(599.877 -443.419 1726.28 967.625 1153.22 2194.96)
(-405.138 -235.438 1625.32 -209.918 1086.07 -1182.06)
(-1589.6 -30.9902 1327.68 -1563.9 887.493 -5048.07)
(1912.09 -738.103 1524.65 2267.24 1201.51 6195.71)
(671.806 -466.748 1630.18 896.153 1285 2195.57)
(-366.861 -247.799 1534.89 -247.838 1210.1 -1181.46)
(-1584.37 -32.5892 1253.84 -1568.76 988.753 -5047.32)
(2030.62 -757.05 1425.34 2150.12 1317.4 6196.58)
(746.556 -478.589 1524.12 821.958 1408.84 2196.07)
(-327.192 -254.045 1435.1 -287.215 1326.64 -1181.06)
(-1579.07 -33.3765 1172.39 -1573.85 1083.88 -5046.88)
(2150.12 -757.05 1317.4 2030.62 1425.34 6196.58)
(821.957 -478.589 1408.84 746.556 1524.12 2196.07)
(-287.215 -254.045 1326.64 -327.192 1435.1 -1181.06)
(-1573.85 -33.3765 1083.88 -1579.07 1172.39 -5046.88)
(2267.24 -738.103 1201.51 1912.09 1524.65 6195.7)
(896.153 -466.748 1285 671.806 1630.18 2195.57)
(-247.839 -247.799 1210.1 -366.861 1534.89 -1181.46)
(-1568.76 -32.5892 988.753 -1584.37 1253.84 -5047.32)
(2380.22 -701.166 1078.24 1798.55 1614.57 6194.98)
(967.625 -443.419 1153.22 599.877 1726.28 2194.96)
(-209.919 -235.438 1086.07 -405.139 1625.32 -1182.06)
(-1563.9 -30.9902 887.492 -1589.6 1327.68 -5048.07)
(2486.22 -647.051 948.24 1692.33 1694.51 6194.5)
(1034.67 -409.188 1014.23 532.588 1811.73 2194.43)
(-174.368 -217.264 955.24 -440.99 1705.77 -1182.71)
(-1559.39 -28.6061 780.656 -1594.55 1393.4 -5048.97)
(2582.68 -577.066 812.254 1596.03 1764.01 6194.35)
(1095.67 -364.901 868.856 471.585 1886.02 2194.09)
(-142.028 -193.739 818.394 -473.501 1775.72 -1183.27)
(-1555.28 -25.5065 668.882 -1599.06 1450.55 -5049.88)
(2667.32 -492.913 671.066 1512.02 1822.64 6194.66)
(1149.19 -311.644 717.952 418.385 1948.7 2194.06)
(-113.643 -165.45 676.345 -501.847 1834.73 -1183.64)
(-1551.65 -21.7823 552.845 -1602.99 1498.78 -5050.68)
(2738.17 -396.64 525.469 1442.43 1870.1 6195.62)
(1193.99 -250.724 562.403 374.336 1999.41 2194.48)
(-89.85 -133.117 529.936 -525.296 1882.48 -1183.68)
(-1548.48 -17.5527 433.223 -1606.22 1537.78 -5051.25)
(2793.73 -290.596 376.245 1388.95 1906.18 6197.48)
(1229.02 -183.661 403.127 340.518 2037.93 2195.51)
(-71.2009 -97.613 380.025 -543.349 1918.73 -1183.26)
(-1545.68 -13.0109 310.652 -1608.68 1567.38 -5051.39)
(2834.2 -177.121 223.978 1353.03 1931.04 6200.89)
(1252.95 -112.508 241.194 316.707 2064.36 2196.63)
(-58.333 -60.0427 227.497 -556.696 1943.41 -1182.8)
(-1543.19 -8.33278 185.609 -1611.86 1587.12 -5051.48)
(2858.36 -68.432 42.7519 1342.79 1942.56 6258.41)
(1271.84 -43.0344 57.0217 311.338 2080.63 2241.88)
(-43.2267 -21.8212 52.8965 -556.14 1961.42 -1135.7)
(-1527.96 -0.627257 32.3239 -1602.06 1607.14 -4986.92)
(-1259.49 -153.152 833.661 2222.63 -35.7917 2251.02)
(-714.408 -114.191 1554.57 1892.53 4.45745 1203.91)
(-370.926 -77.6348 1523.26 1459.84 3.68734 -159.593)
(21.8349 -44.3407 791.305 1159.07 -34.8762 -1285.46)
(-1194.41 -407.202 839.313 2211.15 98.7954 2252.59)
(-668.742 -305.381 1544.18 1871.81 182.831 1188.65)
(-335.617 -214.117 1503.08 1444.65 178.669 -177.616)
(52.9558 -132.321 763.078 1155.43 92.3813 -1295.63)
(-1111.3 -668.756 829.104 2120.74 164.471 2248.7)
(-604.561 -499.039 1524.75 1807.96 303.369 1186.41)
(-289.953 -349.581 1483.99 1399.52 295.91 -179.766)
(81.8763 -216.209 753.419 1126.55 151.447 -1297.4)
(-986.868 -912.909 813.448 1994.94 229.11 2247.73)
(-511.913 -681.323 1495.96 1714.27 422.028 1185.46)
(-224.948 -477.068 1455.94 1333.97 411.277 -180.445)
(122.024 -294.932 739.137 1085.68 209.806 -1297.91)
(-825.91 -1134.57 792.726 1832.97 292.273 2247.33)
(-391.784 -846.891 1457.97 1593.4 538.032 1185.21)
(-140.821 -592.999 1418.98 1249.36 524.089 -180.482)
(174.043 -366.59 720.342 1033.34 266.922 -1297.75)
(-632.22 -1328.33 767.081 1638.65 353.57 2247.32)
(-247.137 -991.632 1411.01 1448.3 650.68 1185.34)
(-39.499 -694.386 1373.31 1147.75 633.662 -180.191)
(236.682 -429.271 697.147 970.518 322.43 -1297.31)
(-410.539 -1489.46 736.668 1416.68 412.615 2247.56)
(-81.5366 -1111.99 1355.35 1282.51 759.27 1185.68)
(76.5132 -778.689 1319.2 1031.6 739.308 -179.742)
(308.387 -481.377 669.689 898.689 375.968 -1296.77)
(-166.268 -1614.05 701.672 1172.47 469.03 2247.97)
(100.967 -1205.02 1291.34 1100.06 863.119 1186.13)
(204.355 -843.81 1256.98 903.754 840.358 -179.251)
(387.37 -521.594 638.139 819.584 427.177 -1296.27)
(94.6643 -1699.09 662.33 911.968 522.445 2248.46)
(295.962 -1268.4 1219.4 905.443 961.571 1186.63)
(340.869 -888.117 1187.07 767.361 936.175 -178.811)
(471.647 -548.907 602.718 735.15 475.716 -1295.9)
(366.92 -1742.66 619.117 641.891 572.493 2249.32)
(498.641 -1300.56 1140.11 703.475 1054.04 1187.06)
(482.576 -910.518 1109.97 625.855 1026.19 -178.522)
(559.083 -562.678 563.687 647.586 521.291 -1295.71)
(641.891 -1742.66 572.492 366.92 619.117 2249.32)
(703.475 -1300.56 1054.04 498.641 1140.11 1187.06)
(625.855 -910.518 1026.19 482.576 1109.97 -178.523)
(647.586 -562.678 521.29 559.083 563.688 -1295.71)
(911.968 -1699.09 522.445 94.6646 662.331 2248.46)
(905.443 -1268.4 961.571 295.962 1219.4 1186.62)
(767.361 -888.117 936.174 340.869 1187.07 -178.812)
(735.15 -548.907 475.716 471.647 602.719 -1295.9)
(1172.47 -1614.05 469.03 -166.268 701.673 2247.97)
(1100.06 -1205.02 863.119 100.967 1291.35 1186.13)
(903.753 -843.81 840.357 204.355 1256.98 -179.252)
(819.584 -521.594 427.177 387.37 638.14 -1296.27)
(1416.67 -1489.46 412.615 -410.539 736.668 2247.55)
(1282.5 -1111.99 759.27 -81.5365 1355.36 1185.68)
(1031.6 -778.689 739.308 76.5132 1319.2 -179.744)
(898.688 -481.377 375.968 308.387 669.689 -1296.77)
(1638.65 -1328.33 353.57 -632.22 767.081 2247.31)
(1448.3 -991.632 650.68 -247.137 1411.01 1185.34)
(1147.75 -694.386 633.662 -39.499 1373.31 -180.193)
(970.517 -429.271 322.43 236.682 697.148 -1297.31)
(1832.97 -1134.57 292.272 -825.909 792.727 2247.33)
(1593.4 -846.891 538.032 -391.784 1457.97 1185.21)
(1249.36 -592.999 524.089 -140.821 1418.98 -180.484)
(1033.34 -366.59 266.922 174.043 720.342 -1297.75)
(1994.94 -912.909 229.11 -986.867 813.448 2247.73)
(1714.27 -681.323 422.028 -511.912 1495.96 1185.46)
(1333.97 -477.067 411.277 -224.948 1455.94 -180.447)
(1085.68 -294.932 209.806 122.024 739.137 -1297.91)
(2120.74 -668.756 164.47 -1111.3 829.104 2248.7)
(1807.96 -499.038 303.369 -604.561 1524.75 1186.41)
(1399.52 -349.581 295.91 -289.953 1483.99 -179.768)
(1126.55 -216.209 151.446 81.8764 753.419 -1297.4)
(2211.15 -407.202 98.7953 -1194.4 839.313 2252.58)
(1871.81 -305.38 182.831 -668.741 1544.18 1188.64)
(1444.65 -214.117 178.669 -335.617 1503.08 -177.619)
(1155.43 -132.321 92.3812 52.9559 763.078 -1295.64)
(2222.63 -153.152 -35.7918 -1259.49 833.661 2251.02)
(1892.53 -114.191 4.45742 -714.407 1554.57 1203.91)
(1459.84 -77.6348 3.68731 -370.926 1523.26 -159.596)
(1159.07 -44.3407 -34.8762 21.835 791.305 -1285.46)
(-1267.86 -191.256 518.709 3229.78 -55.4125 454.07)
(-828.017 -169.21 899.978 3129.47 -34.4733 523.027)
(-367.818 -144.332 875.856 3044.31 -35.2665 487.616)
(3.56802 -124.334 460.144 2997.22 -56.4212 544.505)
(-1200.96 -526.146 517.383 3198.68 59.9421 465.998)
(-769.005 -463.59 891.009 3089.21 104.37 526.578)
(-317.064 -399.18 860.687 3005.07 101.421 488.804)
(44.2843 -348.841 441.955 2956.24 53.301 545.433)
(-1094.05 -864.778 510.87 3084.59 101.133 463.766)
(-671.955 -758.641 879.72 2993.93 174.974 526.969)
(-232.907 -653.182 849.697 2922.82 169.663 489.209)
(118.123 -572.522 436.57 2884.36 88.3656 545.75)
(-932.952 -1180.77 501.156 2923.17 141.289 463.585)
(-530.868 -1035.93 863.043 2852.56 243.837 526.729)
(-111.21 -891.794 833.61 2801.37 236.108 489.098)
(224.725 -781.762 428.262 2777.78 122.477 545.534)
(-724.609 -1467.66 488.309 2714.37 180.349 463.531)
(-348.062 -1287.75 841.045 2669.5 310.892 526.699)
(46.1939 -1108.6 812.38 2643.87 300.795 489.111)
(362.748 -971.859 417.308 2639.78 155.616 545.557)
(-473.933 -1718.44 472.407 2463.41 218.164 463.678)
(-128.048 -1507.89 813.861 2449.3 375.889 526.859)
(235.635 -1298.16 786.162 2454.34 363.501 489.299)
(528.837 -1138.05 403.819 2473.67 187.707 545.755)
(-187.054 -1926.99 453.553 2176.46 254.528 463.982)
(123.778 -1690.94 781.662 2197.43 438.478 527.153)
(452.467 -1455.76 755.127 2237.46 423.897 489.592)
(718.908 -1276.2 387.888 2283.56 218.602 546.033)
(129.038 -2088.22 431.879 1860.62 289.207 464.402)
(401.259 -1832.41 744.662 1920.11 498.276 527.524)
(691.359 -1577.51 719.481 1998.6 481.621 489.917)
(928.261 -1382.86 369.623 2074.1 248.119 546.3)
(466.67 -2198.24 407.566 1523.64 321.951 464.884)
(697.664 -1928.78 703.139 1624.2 554.902 527.936)
(946.422 -1660.35 679.481 1743.69 536.312 490.216)
(1151.69 -1455.38 349.164 1850.5 276.067 546.482)
(818.586 -2254.48 381.006 1174.11 352.521 465.761)
(1005.65 -1977.64 657.478 1317.04 608.022 528.331)
(1211.23 -1702.25 635.442 1479.11 587.656 490.424)
(1383.62 -1492.03 326.674 1618.42 302.284 546.563)
(1174.11 -2254.48 352.521 818.586 381.006 465.761)
(1317.04 -1977.64 608.022 1005.65 657.478 528.33)
(1479.11 -1702.25 587.656 1211.23 635.442 490.424)
(1618.42 -1492.03 302.284 1383.62 326.675 546.562)
(1523.64 -2198.24 321.951 466.671 407.566 464.883)
(1624.2 -1928.78 554.902 697.664 703.139 527.935)
(1743.68 -1660.35 536.312 946.423 679.481 490.215)
(1850.5 -1455.38 276.067 1151.69 349.165 546.482)
(1860.62 -2088.22 289.207 129.039 431.879 464.401)
(1920.11 -1832.41 498.276 401.26 744.662 527.523)
(1998.6 -1577.51 481.621 691.359 719.482 489.916)
(2074.1 -1382.86 248.119 928.261 369.623 546.299)
(2176.46 -1926.99 254.528 -187.054 453.553 463.982)
(2197.43 -1690.94 438.478 123.778 781.662 527.152)
(2237.46 -1455.76 423.897 452.467 755.128 489.591)
(2283.55 -1276.2 218.602 718.908 387.888 546.032)
(2463.41 -1718.44 218.164 -473.931 472.407 463.677)
(2449.3 -1507.89 375.889 -128.048 813.861 526.858)
(2454.33 -1298.16 363.501 235.635 786.163 489.298)
(2473.67 -1138.05 187.707 528.837 403.82 545.754)
(2714.37 -1467.66 180.349 -724.607 488.309 463.53)
(2669.5 -1287.75 310.892 -348.061 841.045 526.698)
(2643.87 -1108.6 300.795 46.1939 812.381 489.11)
(2639.77 -971.858 155.616 362.748 417.308 545.556)
(2923.17 -1180.77 141.289 -932.95 501.156 463.584)
(2852.56 -1035.93 243.837 -530.868 863.043 526.728)
(2801.36 -891.794 236.108 -111.21 833.61 489.096)
(2777.78 -781.762 122.476 224.724 428.262 545.533)
(3084.59 -864.777 101.133 -1094.05 510.87 463.766)
(2993.92 -758.641 174.974 -671.954 879.72 526.968)
(2922.82 -653.182 169.663 -232.907 849.697 489.207)
(2884.36 -572.522 88.3655 118.123 436.57 545.748)
(3198.68 -526.146 59.9421 -1200.95 517.383 465.998)
(3089.21 -463.59 104.37 -769.004 891.009 526.577)
(3005.06 -399.18 101.421 -317.064 860.687 488.802)
(2956.24 -348.841 53.3009 44.2842 441.955 545.432)
(3229.78 -191.256 -55.4125 -1267.86 518.709 454.07)
(3129.47 -169.21 -34.4733 -828.016 899.978 523.026)
(3044.3 -144.332 -35.2665 -367.817 875.857 487.615)
(2997.22 -124.334 -56.4212 3.56796 460.144 544.504)
(-1225.69 -235.858 274.96 4407.41 -58.9959 -536.308)
(-805.695 -220.933 459.352 4422.59 -48.691 186.147)
(-386.277 -204.261 440.025 4453 -49.3535 840.531)
(-30.4348 -189.995 226.282 4514.83 -59.8456 1548.23)
(-1147.78 -658.962 271.54 4360.29 30.5769 -516.801)
(-735.663 -612.536 451.787 4364.58 52.1943 198.654)
(-323.507 -566.435 429.571 4392.51 50.1211 850.519)
(23.6875 -529.274 214.67 4446.23 25.8199 1555.49)
(-1013.9 -1082.97 268.046 4218.95 52.5771 -518.119)
(-608.901 -1003.11 445.923 4238.06 88.4094 199.754)
(-205.83 -927.405 424.058 4275.15 84.6579 851.622)
(135.194 -869.632 212.105 4337.69 43.247 1557.19)
(-812.204 -1478.85 262.837 4017.31 73.998 -517.651)
(-422.384 -1369.87 437.367 4051.28 123.687 200.127)
(-33.0768 -1266.41 415.975 4102.68 118.183 852.115)
(297.084 -1187.75 208.018 4175.9 60.1274 1557.52)
(-551.192 -1838.33 255.98 3756.15 94.7346 -517.374)
(-180.579 -1702.93 426.117 3809.45 157.896 200.403)
(190.523 -1574.37 405.299 3879.18 150.66 852.388)
(506.837 -1476.64 202.612 3966.34 76.3801 1557.76)
(-237.133 -2152.58 247.505 3442.04 114.707 -517.077)
(110.414 -1994.1 412.241 3518.47 190.939 200.674)
(459.59 -1843.59 392.139 3610.18 182.018 852.64)
(759.22 -1729.17 195.993 3714.09 91.9938 1557.97)
(122.277 -2413.9 237.476 3082.73 133.816 -516.725)
(443.456 -2236.22 395.833 3185.53 222.663 200.978)
(767.525 -2067.43 376.599 3302.33 212.13 852.902)
(1048.03 -1939.1 188.225 3425.34 106.937 1558.18)
(518.268 -2615.91 225.979 2687.12 151.934 -516.31)
(810.4 -2423.32 377.019 2818.87 252.884 201.314)
(1106.77 -2240.34 358.795 2963.22 240.834 853.161)
(1366.14 -2101.21 179.37 3107.22 121.146 1558.35)
(941.203 -2753.7 213.143 2264.94 168.916 -515.844)
(1202.31 -2550.76 355.967 2427.53 281.408 201.685)
(1468.95 -2358.03 338.875 2601.25 267.959 853.396)
(1705.65 -2211.48 169.508 2767.58 134.545 1558.44)
(1381.72 -2824.02 199.286 1826.9 184.633 -514.97)
(1609.48 -2615.35 332.927 2021.25 308.085 202.058)
(1844.99 -2417.56 317.02 2225.47 293.37 853.568)
(2058.13 -2267.23 158.726 2414.96 147.074 1558.48)
(1826.9 -2824.02 184.634 1381.72 199.285 -514.97)
(2021.25 -2615.35 308.085 1609.48 332.927 202.058)
(2225.47 -2417.56 293.37 1844.99 317.02 853.568)
(2414.96 -2267.23 147.074 2058.13 158.726 1558.48)
(2264.94 -2753.7 168.916 941.204 213.143 -515.844)
(2427.53 -2550.76 281.409 1202.31 355.967 201.685)
(2601.25 -2358.03 267.959 1468.95 338.875 853.396)
(2767.58 -2211.48 134.545 1705.65 169.508 1558.44)
(2687.12 -2615.91 151.934 518.269 225.979 -516.31)
(2818.86 -2423.32 252.884 810.4 377.019 201.313)
(2963.22 -2240.35 240.834 1106.77 358.795 853.161)
(3107.22 -2101.21 121.146 1366.14 179.37 1558.35)
(3082.73 -2413.9 133.816 122.278 237.476 -516.725)
(3185.53 -2236.22 222.664 443.456 395.833 200.977)
(3302.33 -2067.43 212.131 767.526 376.599 852.902)
(3425.34 -1939.1 106.937 1048.03 188.225 1558.18)
(3442.04 -2152.58 114.708 -237.131 247.505 -517.077)
(3518.47 -1994.1 190.939 110.415 412.241 200.673)
(3610.18 -1843.59 182.018 459.59 392.139 852.639)
(3714.09 -1729.17 91.994 759.22 195.994 1557.97)
(3756.15 -1838.33 94.735 -551.19 255.98 -517.373)
(3809.45 -1702.93 157.896 -180.579 426.118 200.402)
(3879.18 -1574.37 150.66 190.523 405.299 852.388)
(3966.34 -1476.64 76.3803 506.837 202.613 1557.76)
(4017.31 -1478.85 73.9983 -812.201 262.837 -517.651)
(4051.28 -1369.86 123.687 -422.383 437.367 200.127)
(4102.68 -1266.41 118.184 -33.0769 415.976 852.114)
(4175.9 -1187.75 60.1276 297.083 208.018 1557.52)
(4218.95 -1082.96 52.5773 -1013.9 268.046 -518.118)
(4238.06 -1003.11 88.4096 -608.9 445.924 199.754)
(4275.15 -927.405 84.6581 -205.83 424.059 851.621)
(4337.68 -869.631 43.2471 135.194 212.105 1557.19)
(4360.29 -658.961 30.577 -1147.77 271.541 -516.8)
(4364.58 -612.536 52.1944 -735.662 451.788 198.654)
(4392.51 -566.435 50.1212 -323.507 429.572 850.518)
(4446.23 -529.274 25.82 23.6874 214.67 1555.49)
(4407.41 -235.858 -58.9959 -1225.68 274.96 -536.307)
(4422.59 -220.933 -48.6909 -805.693 459.353 186.147)
(4453 -204.261 -49.3534 -386.277 440.026 840.53)
(4514.83 -189.995 -59.8455 -30.4348 226.282 1548.23)
(-1188.49 -278.609 116.451 5507.31 -51.9996 -965.898)
(-786.19 -265.942 185.462 5537.72 -47.8729 46.2149)
(-399.058 -252.153 173.059 5586.37 -48.2448 1012.14)
(-61.4228 -239.395 83.6112 5663.82 -52.3223 2002.66)
(-1098.51 -783.378 112.666 5447.78 11.9614 -942.707)
(-705.027 -741.068 179.757 5465.89 20.326 62.6532)
(-325.197 -700.716 166.253 5510.18 19.2113 1025.69)
(4.18776 -666.549 76.6783 5575.77 9.4129 2011.8)
(-939.325 -1287.26 111.211 5280.53 21.3191 -943.918)
(-552.372 -1213.8 177.321 5312.48 34.9497 63.7088)
(-180.379 -1147.5 164.034 5364.58 32.8403 1026.72)
(144.408 -1095.51 75.75 5439.1 15.8785 2013.99)
(-699.637 -1757.84 108.967 5041.02 30.5133 -943.128)
(-326.715 -1657.55 173.824 5086.41 49.2616 64.3334)
(33.3617 -1567.05 160.826 5150.99 46.0767 1027.49)
(348.336 -1496.39 74.2069 5235.17 22.1491 2014.66)
(-389.381 -2185.19 105.993 4730.7 39.3809 -942.655)
(-34.1141 -2060.56 169.242 4793.82 63.0843 64.8164)
(310.07 -1948.12 156.6 4874.4 58.8243 1027.99)
(612.604 -1860.35 72.1775 4971.09 28.1027 2015.14)
(-16.0554 -2558.8 102.317 4357.39 47.8407 -942.272)
(317.993 -2412.9 163.61 4441.79 76.3502 65.1984)
(643.019 -2281.27 151.424 4541.58 71.0399 1028.37)
(930.576 -2178.51 69.7369 4653.3 33.7183 2015.51)
(411.179 -2869.48 97.9831 3930.3 55.8283 -941.912)
(720.967 -2705.9 156.984 4038.98 88.9905 65.5406)
(1024.05 -2558.26 145.356 4160.7 82.6779 1028.69)
(1294.44 -2443 66.9283 4289.59 38.9981 2015.81)
(881.885 -3109.64 93.0524 3459.98 63.2726 -941.53)
(1164.95 -2932.32 149.431 3595.31 100.926 65.8737)
(1443.82 -2772.26 138.455 3741.13 93.6812 1028.97)
(1695.23 -2647.28 63.7883 3888.87 43.9366 2016.02)
(1384.59 -3273.41 87.6178 2958.01 70.0922 -941.106)
(1639.12 -3086.54 141.05 3121.74 112.074 66.2287)
(1891.97 -2917.91 130.801 3293.24 103.99 1029.21)
(2123.01 -2786.26 60.3583 3461.03 48.5213 2016.15)
(1907.98 -3356.89 81.9535 2437.09 76.2266 -940.255)
(2131.73 -3164.69 132.008 2630.02 122.395 66.5901)
(2357.3 -2991.62 122.492 2828.19 113.576 1029.38)
(2567.16 -2856.55 56.6801 3016.79 52.7533 2016.19)
(2437.09 -3356.89 76.2274 1907.98 81.9527 -940.255)
(2630.02 -3164.69 122.395 2131.73 132.007 66.5901)
(2828.19 -2991.62 113.576 2357.31 122.492 1029.38)
(3016.79 -2856.55 52.7538 2567.16 56.6796 2016.19)
(2958.01 -3273.41 70.0931 1384.59 87.6172 -941.106)
(3121.74 -3086.54 112.075 1639.12 141.049 66.2287)
(3293.24 -2917.91 103.991 1891.97 130.801 1029.21)
(3461.03 -2786.26 48.5218 2123.01 60.358 2016.15)
(3459.98 -3109.64 63.2735 881.886 93.0519 -941.53)
(3595.31 -2932.32 100.927 1164.95 149.431 65.8736)
(3741.13 -2772.26 93.6819 1443.82 138.455 1028.97)
(3888.87 -2647.28 43.9372 1695.23 63.7881 2016.03)
(3930.3 -2869.48 55.8292 411.18 97.9827 -941.912)
(4038.98 -2705.9 88.9914 720.968 156.984 65.5405)
(4160.7 -2558.26 82.6787 1024.05 145.356 1028.69)
(4289.59 -2443 38.9986 1294.44 66.9282 2015.81)
(4357.39 -2558.8 47.8415 -16.0535 102.317 -942.272)
(4441.79 -2412.9 76.351 317.993 163.61 65.1984)
(4541.58 -2281.27 71.0406 643.018 151.424 1028.37)
(4653.3 -2178.51 33.7188 930.576 69.7369 2015.51)
(4730.7 -2185.19 39.3817 -389.379 105.993 -942.654)
(4793.82 -2060.56 63.085 -34.1137 169.242 64.8165)
(4874.39 -1948.12 58.8249 310.07 156.6 1027.99)
(4971.09 -1860.35 28.1032 612.604 72.1776 2015.14)
(5041.02 -1757.84 30.5139 -699.634 108.967 -943.127)
(5086.41 -1657.55 49.2622 -326.714 173.825 64.3335)
(5150.99 -1567.05 46.0772 33.3616 160.827 1027.49)
(5235.17 -1496.39 22.1495 348.336 74.2071 2014.66)
(5280.53 -1287.26 21.3195 -939.321 111.211 -943.916)
(5312.48 -1213.8 34.9501 -552.371 177.321 63.709)
(5364.58 -1147.5 32.8407 -180.379 164.035 1026.72)
(5439.1 -1095.51 15.8788 144.408 75.7502 2013.99)
(5447.79 -783.378 11.9616 -1098.51 112.666 -942.706)
(5465.89 -741.067 20.3263 -705.026 179.757 62.6535)
(5510.18 -700.716 19.2116 -325.197 166.253 1025.69)
(5575.77 -666.549 9.4131 4.18775 76.6786 2011.8)
(5507.32 -278.609 -51.9996 -1188.49 116.451 -965.896)
(5537.72 -265.942 -47.8728 -786.189 185.462 46.2153)
(5586.37 -252.153 -48.2447 -399.058 173.059 1012.14)
(5663.82 -239.395 -52.3222 -61.4228 83.6115 2002.66)
(-1163.06 -313.626 27.0297 6391.48 -39.4617 -1074.18)
(-772.376 -300.59 34.9227 6389.99 -38.6596 15.5646)
(-407.537 -286.894 28.3148 6411.3 -38.7878 1074.89)
(-84.0058 -273.458 8.15836 6461.56 -39.3685 2139.94)
(-1062.31 -883.932 23.799 6323.46 1.81451 -1049.53)
(-681.76 -839.477 31.0581 6308.44 3.15543 33.2424)
(-324.716 -798.411 24.2813 6324.46 2.77955 1089.31)
(-9.53396 -762.084 4.44823 6360.97 1.00639 2148.83)
(-882.613 -1452.4 23.4987 6135.17 3.97724 -1051)
(-509.093 -1375.01 30.5175 6134.58 5.87606 34.0217)
(-159.988 -1307.53 23.8323 6158.42 5.04171 1090.05)
(150.719 -1252.55 4.34375 6204.64 1.6776 2151.06)
(-612.214 -1983.35 22.9372 5865.03 6.21574 -1050.16)
(-253.486 -1877.64 29.799 5878.46 8.62231 34.6645)
(83.5484 -1785.57 23.2476 5914.92 7.24375 1090.87)
(383.866 -1710.9 4.12659 5971.35 2.31972 2151.82)
(-262.18 -2465.56 22.1551 5514.93 8.3761 -1049.65)
(77.952 -2334.14 28.8687 5547.02 11.2393 35.229)
(398.838 -2219.75 22.5012 5599.71 9.29744 1091.49)
(686.007 -2127.01 3.86837 5669.33 2.83485 2152.48)
(159.015 -2887.13 21.1734 5093.72 10.3721 -1049.27)
(476.78 -2733.27 27.7486 5148.26 13.671 35.6725)
(778.193 -2599.34 21.6318 5220.48 11.1683 1091.99)
(1049.55 -2490.76 3.61885 5305.97 3.1964 2153.04)
(641.029 -3237.71 20.0254 4611.79 12.1439 -1048.96)
(933.22 -3065.19 26.4679 4691.96 15.8801 36.042)
(1212.33 -2914.97 20.6708 4786.52 12.8417 1092.41)
(1465.57 -2793.18 3.40909 4890.14 3.41261 2153.5)
(1172.08 -3508.7 18.758 4081.03 13.6371 -1048.65)
(1436.12 -3321.69 25.0647 4189.35 17.8326 36.3756)
(1690.61 -3158.83 19.6484 4308.46 14.3067 1092.76)
(1923.82 -3026.77 3.26215 4432.04 3.49869 2153.86)
(1739.24 -3693.46 17.4452 3514.52 14.796 -1048.3)
(1973.2 -3496.41 23.5997 3652.84 19.4993 36.719)
(2201.26 -3324.84 18.6048 3798.1 15.5566 1093.04)
(2412.97 -3185.73 3.2005 3942.92 3.47063 2154.08)
(2329.6 -3787.57 16.3428 2926.56 15.5903 -1047.49)
(2531.2 -3584.95 22.1965 3095.71 20.8944 37.0706)
(2731.52 -3408.85 17.5953 3268.14 16.6169 1093.23)
(2920.84 -3266.14 3.24205 3434.99 3.35985 2154.17)
(2926.56 -3787.57 15.5915 2329.6 16.3417 -1047.49)
(3095.71 -3584.95 20.8954 2531.2 22.1956 37.0706)
(3268.14 -3408.85 16.6178 2731.52 17.5945 1093.23)
(3434.99 -3266.14 3.36058 2920.84 3.2414 2154.17)
(3514.52 -3693.46 14.7972 1739.24 17.4443 -1048.3)
(3652.83 -3496.41 19.5004 1973.2 23.599 36.719)
(3798.1 -3324.84 15.5575 2201.26 18.6041 1093.04)
(3942.92 -3185.73 3.47139 2412.97 3.19995 2154.08)
(4081.03 -3508.7 13.6383 1172.09 18.7572 -1048.65)
(4189.35 -3321.69 17.8337 1436.12 25.0641 36.3756)
(4308.46 -3158.83 14.3076 1690.61 19.6479 1092.76)
(4432.04 -3026.77 3.49944 1923.82 3.2617 2153.86)
(4611.79 -3237.71 12.1451 641.031 20.0248 -1048.96)
(4691.96 -3065.19 15.8812 933.221 26.4674 36.0419)
(4786.52 -2914.97 12.8426 1212.33 20.6704 1092.41)
(4890.14 -2793.18 3.41333 1465.57 3.40875 2153.5)
(5093.72 -2887.13 10.3732 159.017 21.1729 -1049.27)
(5148.26 -2733.27 13.672 476.78 27.7482 35.6726)
(5220.48 -2599.34 11.1691 778.192 21.6316 1091.99)
(5305.97 -2490.76 3.19706 1049.55 3.61861 2153.04)
(5514.93 -2465.56 8.37702 -262.177 22.1547 -1049.65)
(5547.01 -2334.14 11.2402 77.9523 28.8685 35.2292)
(5599.7 -2219.75 9.29818 398.838 22.5011 1091.49)
(5669.33 -2127.01 2.83544 686.007 3.86822 2152.48)
(5865.03 -1983.35 6.21647 -612.211 22.9369 -1050.16)
(5878.46 -1877.64 8.623 -253.485 29.7989 34.6647)
(5914.92 -1785.57 7.24436 83.5482 23.2476 1090.87)
(5971.35 -1710.9 2.32022 383.866 4.12651 2151.82)
(6135.18 -1452.4 3.97774 -882.609 23.4985 -1051)
(6134.58 -1375.01 5.87656 -509.092 30.5175 34.0221)
(6158.42 -1307.53 5.04216 -159.988 23.8324 1090.05)
(6204.64 -1252.55 1.67799 150.719 4.34374 2151.06)
(6323.46 -883.932 1.8148 -1062.31 23.7989 -1049.53)
(6308.44 -839.477 3.15574 -681.758 31.0582 33.2429)
(6324.46 -798.411 2.77983 -324.716 24.2814 1089.31)
(6360.97 -762.084 1.00664 -9.534 4.44827 2148.83)
(6391.48 -313.626 -39.4616 -1163.06 27.0296 -1074.18)
(6389.99 -300.59 -38.6594 -772.374 34.9228 15.5652)
(6411.3 -286.894 -38.7876 -407.536 28.315 1074.89)
(6461.56 -273.458 -39.3684 -84.0058 8.15843 2139.94)
(-1145.25 -337.952 -16.3834 7000.37 -24.7311 -1030.23)
(-761.425 -323.594 -34.9039 6955.1 -25.432 35.4802)
(-410.971 -308.89 -37.2295 6936.55 -25.3851 1080.67)
(-97.5712 -294.075 -24.0652 6948.28 -24.357 2121.03)
(-1036.55 -953.161 -18.5822 6927.33 -2.86144 -1005.25)
(-664.069 -904.563 -37.0788 6867.57 -4.56283 53.1117)
(-321.981 -860.44 -39.1675 6843.34 -4.4172 1094.74)
(-17.1915 -820.419 -25.5835 6840.56 -2.37227 2128.93)
(-842.694 -1566.12 -18.3289 6724.59 -4.22509 -1007.06)
(-478.066 -1481.58 -36.737 6680.31 -7.34816 53.6207)
(-144.522 -1409.06 -38.8269 6664.38 -7.26431 1095.2)
(155.323 -1348.33 -25.3764 6672.16 -4.0936 2131.04)
(-551.138 -2138.67 -18.0676 6433.42 -5.41113 -1006.3)
(-202.663 -2023.11 -36.1802 6404.38 -9.98066 54.1787)
(117.911 -1924.17 -38.251 6401.94 -10.046 1095.97)
(406.29 -1841.68 -25.0588 6420.92 -5.81293 2131.8)
(-173.718 -2658.67 -17.783 6055.97 -6.52853 -1005.86)
(154.426 -2514.97 -35.4361 6047.28 -12.5611 54.7332)
(457.653 -2392.01 -37.4516 6062.23 -12.818 1096.63)
(731.512 -2289.56 -24.5906 6095.74 -7.58657 2132.57)
(280.425 -3113.29 -17.4653 5601.8 -7.65411 -1005.56)
(584.108 -2945.01 -34.4921 5617.65 -15.1312 55.1795)
(866.416 -2801.04 -36.4056 5653.58 -15.6031 1097.22)
(1122.82 -2681.07 -23.9362 5704.59 -9.43367 2133.29)
(800.142 -3491.36 -17.0923 5082.09 -8.84955 -1005.35)
(1075.86 -3302.66 -33.3317 5126.02 -17.7164 55.5432)
(1334.21 -3141.17 -35.0937 5185.96 -18.4035 1097.72)
(1570.63 -3006.6 -23.0694 5257.01 -11.3446 2133.93)
(1372.74 -3783.6 -16.6273 4509.67 -10.1711 -1005.16)
(1617.67 -3579.06 -31.9313 4584.44 -20.3361 55.8594)
(1849.59 -3403.98 -33.4979 4670.82 -21.2137 1098.14)
(2063.91 -3258.08 -21.9706 4763.94 -13.2978 2134.46)
(1984.26 -3982.84 -16.0049 3898.65 -11.6746 -1004.92)
(2196.34 -3767.35 -30.2458 4006.29 -23.002 56.1802)
(2399.87 -3582.91 -31.5934 4120.83 -24.0195 1098.47)
(2590.47 -3429.23 -20.624 4237.47 -15.2658 2134.8)
(2620.74 -4084.27 -14.9699 3264.46 -13.3879 -1004.18)
(2797.57 -3862.77 -28.1685 3405.89 -25.6805 56.5152)
(2971.33 -3673.48 -29.3434 3549.68 -26.7732 1098.68)
(3137.22 -3515.82 -19.0217 3690.72 -17.2036 2134.97)
(3264.46 -4084.27 -13.3866 2620.74 -14.9712 -1004.18)
(3405.89 -3862.77 -25.6793 2797.57 -28.1695 56.5152)
(3549.68 -3673.48 -26.7722 2971.33 -29.3444 1098.68)
(3690.72 -3515.82 -17.2027 3137.22 -19.0225 2134.97)
(3898.65 -3982.84 -11.6733 1984.26 -16.006 -1004.92)
(4006.29 -3767.35 -23.0008 2196.34 -30.2468 56.1802)
(4120.83 -3582.91 -24.0185 2399.87 -31.5942 1098.47)
(4237.47 -3429.23 -15.2649 2590.47 -20.6247 2134.8)
(4509.67 -3783.6 -10.1698 1372.74 -16.6283 -1005.16)
(4584.44 -3579.06 -20.3349 1617.67 -31.9321 55.8593)
(4670.82 -3403.98 -21.2127 1849.59 -33.4986 1098.14)
(4763.94 -3258.08 -13.2969 2063.91 -21.9712 2134.46)
(5082.09 -3491.36 -8.84827 800.143 -17.0932 -1005.35)
(5126.01 -3302.66 -17.7152 1075.86 -33.3324 55.5431)
(5185.96 -3141.17 -18.4026 1334.21 -35.0943 1097.72)
(5257.01 -3006.6 -11.3438 1570.63 -23.0699 2133.93)
(5601.8 -3113.29 -7.65293 280.427 -17.466 -1005.56)
(5617.65 -2945.01 -15.1301 584.108 -34.4927 55.1795)
(5653.58 -2801.04 -15.6022 866.416 -36.4061 1097.22)
(5704.59 -2681.07 -9.43293 1122.82 -23.9367 2133.29)
(6055.97 -2658.66 -6.52751 -173.715 -17.7836 -1005.86)
(6047.28 -2514.97 -12.5602 154.427 -35.4365 54.7333)
(6062.23 -2392.01 -12.8172 457.653 -37.452 1096.63)
(6095.74 -2289.56 -7.58592 731.512 -24.5909 2132.57)
(6433.42 -2138.67 -5.41032 -551.134 -18.068 -1006.3)
(6404.38 -2023.11 -9.97992 -202.662 -36.1806 54.1789)
(6401.94 -1924.17 -10.0454 117.911 -38.2513 1095.97)
(6420.92 -1841.68 -5.81238 406.289 -25.0591 2131.8)
(6724.59 -1566.12 -4.22452 -842.69 -18.3293 -1007.06)
(6680.31 -1481.58 -7.34763 -478.065 -36.7372 53.6209)
(6664.38 -1409.06 -7.26383 -144.522 -38.8271 1095.2)
(6672.16 -1348.33 -4.09318 155.323 -25.3766 2131.04)
(6927.33 -953.16 -2.86111 -1036.55 -18.5825 -1005.25)
(6867.57 -904.563 -4.56251 -664.068 -37.079 53.1121)
(6843.34 -860.44 -4.4169 -321.982 -39.1676 1094.74)
(6840.56 -820.419 -2.37201 -17.1917 -25.5836 2128.93)
(7000.37 -337.952 -24.7309 -1145.24 -16.3837 -1030.22)
(6955.1 -323.594 -25.4319 -761.424 -34.904 35.4808)
(6936.55 -308.89 -25.385 -410.971 -37.2296 1080.67)
(6948.28 -294.075 -24.3568 -97.5713 -24.0653 2121.03)
(-1129.16 -350.536 -35.4413 7319.36 -9.71886 -933.474)
(-750.147 -334.913 -61.9253 7237.64 -10.9487 71.8726)
(-408.727 -319.102 -60.9982 7184.94 -10.7703 1061.14)
(-102.697 -303.066 -33.9696 7163.95 -9.14227 2041.48)
(-1016.09 -988.672 -36.4168 7244.26 -4.76118 -908.758)