/*--------------------------------*- C++ -*----------------------------------*\
| =========                 |                                                 |
| \\      /  F ield         | foam-extend: Open Source CFD                    |
|  \\    /   O peration     | Version:     3.1                                |
|   \\  /    A nd           | Web:         http://www.extend-project.de       |
|    \\/     M anipulation  |                                                 |
\*---------------------------------------------------------------------------*/
FoamFile
{
    version     2.0;
    format      ascii;
    class       volVectorField;
    location    "0.002";
    object      U;
}
// * * * * * * * * * * * * * * * * * * * * * * * * * * * * * * * * * * * * * //

dimensions      [0 1 -1 0 0 0 0];

internalField   nonuniform List<vector> 
6400
(
(-0.000146704 -5.529e-06 -6.70149e-05)
(-0.000151347 -5.70679e-06 -1.71324e-05)
(-0.000152525 -5.66026e-06 1.16497e-05)
(-0.000151206 -5.44364e-06 6.44736e-05)
(-0.000145824 -1.73822e-05 -6.669e-05)
(-0.000150429 -1.77633e-05 -1.66872e-05)
(-0.000151494 -1.77118e-05 1.21476e-05)
(-0.000150207 -1.74202e-05 6.49488e-05)
(-0.000143888 -2.92293e-05 -6.66813e-05)
(-0.000148491 -2.99016e-05 -1.65429e-05)
(-0.00014963 -2.98512e-05 1.23827e-05)
(-0.000148476 -2.9381e-05 6.52566e-05)
(-0.000141098 -4.09243e-05 -6.6857e-05)
(-0.000145658 -4.18477e-05 -1.65574e-05)
(-0.000146862 -4.17853e-05 1.2499e-05)
(-0.000145841 -4.11393e-05 6.55261e-05)
(-0.000137522 -5.23424e-05 -6.71893e-05)
(-0.000142007 -5.34922e-05 -1.66626e-05)
(-0.000143264 -5.34158e-05 1.25684e-05)
(-0.000142383 -5.26031e-05 6.58094e-05)
(-0.000133216 -6.33773e-05 -6.76468e-05)
(-0.000137598 -6.47628e-05 -1.68229e-05)
(-0.000138898 -6.46998e-05 1.26233e-05)
(-0.00013816 -6.3754e-05 6.61327e-05)
(-0.000128214 -7.39193e-05 -6.81903e-05)
(-0.000132455 -7.5585e-05 -1.70148e-05)
(-0.00013377 -7.55954e-05 1.26731e-05)
(-0.000133157 -7.45828e-05 6.64862e-05)
(-0.000122523 -8.38502e-05 -6.8773e-05)
(-0.000126563 -8.58634e-05 -1.7221e-05)
(-0.000127841 -8.60287e-05 1.27114e-05)
(-0.000127306 -8.50358e-05 6.68257e-05)
(-0.000116149 -9.3059e-05 -6.93401e-05)
(-0.000119905 -9.54895e-05 -1.74222e-05)
(-0.00012107 -9.58901e-05 1.27266e-05)
(-0.000120538 -9.49984e-05 6.70899e-05)
(-0.000109135 -0.00010148 -6.97965e-05)
(-0.000112502 -0.000104381 -1.75769e-05)
(-0.000113458 -0.000105069 1.2719e-05)
(-0.000112844 -0.000104326 6.7228e-05)
(-0.000101473 -0.000109141 -6.97928e-05)
(-0.000104362 -0.000112516 -1.75759e-05)
(-0.000105034 -0.000113482 1.27168e-05)
(-0.000104277 -0.00011288 6.72218e-05)
(-9.30508e-05 -0.000116152 -6.93291e-05)
(-9.54651e-05 -0.000119911 -1.74195e-05)
(-9.58477e-05 -0.000121082 1.272e-05)
(-9.4939e-05 -0.000120557 6.70715e-05)
(-8.3841e-05 -0.000122524 -6.87553e-05)
(-8.5836e-05 -0.00012656 -1.72166e-05)
(-8.59816e-05 -0.00012784 1.27007e-05)
(-8.49704e-05 -0.000127307 6.67957e-05)
(-7.39098e-05 -0.000128213 -6.81664e-05)
(-7.55565e-05 -0.000132445 -1.7009e-05)
(-7.5547e-05 -0.000133755 1.26586e-05)
(-7.45158e-05 -0.00013314 6.64456e-05)
(-6.33686e-05 -0.000133213 -6.76174e-05)
(-6.47357e-05 -0.00013758 -1.68156e-05)
(-6.46533e-05 -0.000138871 1.26055e-05)
(-6.36896e-05 -0.000138125 6.60828e-05)
(-5.23356e-05 -0.000137517 -6.7155e-05)
(-5.34684e-05 -0.000141982 -1.66539e-05)
(-5.33742e-05 -0.000143226 1.2548e-05)
(-5.25451e-05 -0.000142333 6.57516e-05)
(-4.092e-05 -0.000141094 -6.68184e-05)
(-4.18288e-05 -0.000145629 -1.65471e-05)
(-4.17509e-05 -0.000146815 1.24766e-05)
(-4.1091e-05 -0.000145778 6.5462e-05)
(-2.92273e-05 -0.000143885 -6.66392e-05)
(-2.98884e-05 -0.000148459 -1.65312e-05)
(-2.98259e-05 -0.000149576 1.23591e-05)
(-2.93448e-05 -0.000148403 6.51877e-05)
(-1.73817e-05 -0.000145824 -6.66451e-05)
(-1.77557e-05 -0.000150395 -1.6674e-05)
(-1.76965e-05 -0.000151436 1.21235e-05)
(-1.73979e-05 -0.000150127 6.48769e-05)
(-5.5291e-06 -0.000146705 -6.69687e-05)
(-5.70465e-06 -0.000151313 -1.71183e-05)
(-5.65547e-06 -0.000152464 1.16256e-05)
(-5.43659e-06 -0.000151123 6.44003e-05)
(-0.000585408 -2.40236e-05 2.91899e-05)
(-0.000618999 -2.49564e-05 3.42435e-05)
(-0.000622069 -2.49622e-05 7.82091e-06)
(-0.00059634 -2.41296e-05 1.82486e-05)
(-0.000582505 -7.05968e-05 3.03854e-05)
(-0.00061568 -7.40314e-05 3.56717e-05)
(-0.000618448 -7.40018e-05 9.4258e-06)
(-0.000592667 -7.07603e-05 1.99531e-05)
(-0.000575615 -0.000117045 3.05779e-05)
(-0.000608453 -0.00012299 3.61917e-05)
(-0.000611287 -0.000122968 1.01861e-05)
(-0.000585954 -0.000117406 2.09005e-05)
(-0.000565385 -0.000163037 3.01682e-05)
(-0.000597715 -0.000171323 3.61609e-05)
(-0.000600642 -0.000171296 1.048e-05)
(-0.000575936 -0.000163512 2.15241e-05)
(-0.000552096 -0.000208244 2.93138e-05)
(-0.00058375 -0.000218774 3.58042e-05)
(-0.000586756 -0.000218735 1.05496e-05)
(-0.000562842 -0.000208784 2.20506e-05)
(-0.00053592 -0.000252349 2.81446e-05)
(-0.000566721 -0.000265107 3.52632e-05)
(-0.000569786 -0.000265109 1.0533e-05)
(-0.000546806 -0.000253101 2.26075e-05)
(-0.000516884 -0.000294974 2.67874e-05)
(-0.000546613 -0.000310019 3.46341e-05)
(-0.000549673 -0.000310189 1.04947e-05)
(-0.000527716 -0.00029632 2.32192e-05)
(-0.000494862 -0.000335655 2.53784e-05)
(-0.000523237 -0.000353087 3.39871e-05)
(-0.000526172 -0.000353595 1.04444e-05)
(-0.000505259 -0.000338128 2.38169e-05)
(-0.000469663 -0.000373883 2.40775e-05)
(-0.000496347 -0.000393774 3.3393e-05)
(-0.000498983 -0.000394781 1.03708e-05)
(-0.000479081 -0.000377986 2.42832e-05)
(-0.000441131 -0.000409178 2.31364e-05)
(-0.000465768 -0.000431511 3.29769e-05)
(-0.000467924 -0.000433106 1.02919e-05)
(-0.000448993 -0.000415196 2.45216e-05)
(-0.000409166 -0.000441129 2.31384e-05)
(-0.00043147 -0.000465781 3.29734e-05)
(-0.000433033 -0.000467959 1.02826e-05)
(-0.000415092 -0.000449053 2.45061e-05)
(-0.000373859 -0.000469645 2.40834e-05)
(-0.00039371 -0.000496327 3.33826e-05)
(-0.000394678 -0.000498974 1.03431e-05)
(-0.000377848 -0.000479089 2.42372e-05)
(-0.000335622 -0.000494828 2.53877e-05)
(-0.000353007 -0.000523183 3.39699e-05)
(-0.000353472 -0.000526115 1.03993e-05)
(-0.000337968 -0.000505211 2.37422e-05)
(-0.000294935 -0.000516832 2.67999e-05)
(-0.000309931 -0.000546524 3.46107e-05)
(-0.000310056 -0.00054957 1.04336e-05)
(-0.000296151 -0.000527613 2.31181e-05)
(-0.00025231 -0.000535853 2.816e-05)
(-0.000265019 -0.000566599 3.52346e-05)
(-0.000264978 -0.000569638 1.04579e-05)
(-0.000252935 -0.000546649 2.24832e-05)
(-0.00020821 -0.000552017 2.93322e-05)
(-0.000218694 -0.0005836 3.57715e-05)
(-0.000218615 -0.000586568 1.04628e-05)
(-0.000208633 -0.000562638 2.19065e-05)
(-0.000163011 -0.0005653 3.01898e-05)
(-0.000171257 -0.000597543 3.61256e-05)
(-0.000171195 -0.00060042 1.0384e-05)
(-0.000163384 -0.000575692 2.13638e-05)
(-0.000117027 -0.000575528 3.06027e-05)
(-0.000122942 -0.000608265 3.61552e-05)
(-0.000122893 -0.000611041 1.00836e-05)
(-0.00011731 -0.000585678 2.07281e-05)
(-7.05874e-05 -0.00058242 3.04138e-05)
(-7.40027e-05 -0.000615483 3.56356e-05)
(-7.39552e-05 -0.000618185 9.31981e-06)
(-7.07002e-05 -0.000592369 1.9773e-05)
(-2.40208e-05 -0.000585326 2.92194e-05)
(-2.49472e-05 -0.000618799 3.4207e-05)
(-2.49468e-05 -0.000621798 7.71305e-06)
(-2.41096e-05 -0.000596033 1.80649e-05)
(-0.000749605 -3.20064e-05 0.000438988)
(-0.000826379 -3.42676e-05 0.000207424)
(-0.000833764 -3.4383e-05 -6.00967e-05)
(-0.000775346 -3.24649e-05 -0.000281486)
(-0.000746771 -9.20784e-05 0.000440594)
(-0.000822549 -0.00010015 0.000209352)
(-0.000829231 -0.000100359 -5.79525e-05)
(-0.000770584 -9.31192e-05 -0.000279245)
(-0.000738569 -0.000151925 0.000440901)
(-0.00081349 -0.000165809 0.000210059)
(-0.000820175 -0.000166204 -5.69665e-05)
(-0.000762354 -0.000153854 -0.00027806)
(-0.00072623 -0.000211318 0.000440381)
(-0.00079991 -0.000230693 0.000209952)
(-0.000806648 -0.000231245 -5.67254e-05)
(-0.000750074 -0.000213959 -0.000277478)
(-0.000710221 -0.000269937 0.000439254)
(-0.000782277 -0.000294596 0.000209347)
(-0.000789049 -0.000295279 -5.68853e-05)
(-0.0007341 -0.000273158 -0.000277174)
(-0.000690785 -0.000327421 0.000437717)
(-0.000760816 -0.000357286 0.000208466)
(-0.000767584 -0.000358167 -5.72158e-05)
(-0.000714599 -0.000331405 -0.000276917)
(-0.000667866 -0.000383246 0.000435956)
(-0.000735397 -0.000418363 0.000207471)
(-0.000742055 -0.000419627 -5.75822e-05)
(-0.000691282 -0.000388578 -0.000276607)
(-0.000641095 -0.000436681 0.000434159)
(-0.000705541 -0.000477156 0.000206481)
(-0.000711886 -0.000479069 -5.79271e-05)
(-0.00066346 -0.000444214 -0.000276266)
(-0.000609946 -0.000486844 0.000432541)
(-0.000670627 -0.000532738 0.000205613)
(-0.000676381 -0.000535554 -5.82286e-05)
(-0.000630347 -0.000497406 -0.000275989)
(-0.000573955 -0.000532851 0.000431413)
(-0.000630168 -0.000584063 0.000205035)
(-0.000635043 -0.000587929 -5.8438e-05)
(-0.000591435 -0.000546924 -0.000275855)
(-0.000532855 -0.000573934 0.000431409)
(-0.000584025 -0.000630168 0.000205026)
(-0.000587843 -0.000635075 -5.8453e-05)
(-0.000546794 -0.000591504 -0.000275875)
(-0.000486834 -0.000609909 0.00043253)
(-0.000532667 -0.000670583 0.000205585)
(-0.000535427 -0.000676352 -5.8273e-05)
(-0.000497229 -0.000630345 -0.000276049)
(-0.00043666 -0.000641039 0.000434141)
(-0.000477063 -0.00070545 0.000206436)
(-0.000478913 -0.000711793 -5.79995e-05)
(-0.000444007 -0.000663383 -0.000276365)
(-0.000383217 -0.000667791 0.000435931)
(-0.000418258 -0.00073526 0.00020741)
(-0.000419457 -0.000741897 -5.76803e-05)
(-0.000388358 -0.000691128 -0.00027674)
(-0.00032739 -0.000690694 0.000437687)
(-0.00035718 -0.000760637 0.000208391)
(-0.000357998 -0.000767366 -5.73366e-05)
(-0.000331189 -0.000714374 -0.00027708)
(-0.00026991 -0.000710119 0.000439218)
(-0.0002945 -0.000782061 0.00020926)
(-0.000295125 -0.000788777 -5.70252e-05)
(-0.00027296 -0.000733812 -0.000277363)
(-0.000211299 -0.000726126 0.000440343)
(-0.000230614 -0.000799667 0.000209856)
(-0.000231115 -0.000806332 -5.68803e-05)
(-0.000213792 -0.000749733 -0.000277688)
(-0.000151915 -0.000738469 0.000440862)
(-0.000165752 -0.000813228 0.000209958)
(-0.000166107 -0.000819826 -5.71324e-05)
(-0.000153727 -0.000761971 -0.000278286)
(-9.20748e-05 -0.000746679 0.000440557)
(-0.000100117 -0.000822277 0.000209249)
(-0.000100299 -0.00082886 -5.81246e-05)
(-9.30409e-05 -0.000770172 -0.000279482)
(-3.20057e-05 -0.000749522 0.000438951)
(-3.42573e-05 -0.000826105 0.000207319)
(-3.43635e-05 -0.000833382 -6.02723e-05)
(-3.24388e-05 -0.00077492 -0.000281727)
(-0.000106257 -8.54717e-06 0.00120726)
(-0.000243827 -1.27029e-05 0.000507406)
(-0.000266468 -1.33509e-05 -0.000228258)
(-0.000180333 -1.05906e-05 -0.000907195)
(-0.000108637 -1.86718e-05 0.00120896)
(-0.000244496 -3.34141e-05 0.00050942)
(-0.000265926 -3.51694e-05 -0.000226059)
(-0.000179315 -2.4565e-05 -0.00090491)
(-0.00010901 -2.90065e-05 0.00120924)
(-0.000243267 -5.43263e-05 0.000510027)
(-0.00026449 -5.73522e-05 -0.000225257)
(-0.000179009 -3.92765e-05 -0.000903996)
(-0.00010924 -3.98399e-05 0.00120866)
(-0.000241169 -7.52016e-05 0.000509694)
(-0.000262177 -7.94303e-05 -0.000225403)
(-0.000178445 -5.41336e-05 -0.000903974)
(-0.000109911 -5.12621e-05 0.00120746)
(-0.0002388 -9.6287e-05 0.000508787)
(-0.000259499 -0.000101626 -0.000226088)
(-0.000178079 -6.92216e-05 -0.000904431)
(-0.000111253 -6.32697e-05 0.00120585)
(-0.000236381 -0.000117745 0.000507573)
(-0.000256659 -0.000124222 -0.000227007)
(-0.000178066 -8.49498e-05 -0.000905032)
(-0.000113016 -7.5579e-05 0.00120403)
(-0.000233566 -0.00013946 0.000506254)
(-0.000253226 -0.000147269 -0.000227951)
(-0.000177854 -0.0001016 -0.000905569)
(-0.000114449 -8.75523e-05 0.00120219)
(-0.000229452 -0.000160885 0.000504987)
(-0.00024817 -0.000170334 -0.000228797)
(-0.000176255 -0.000118937 -0.000905964)
(-0.000114505 -9.82702e-05 0.00120055)
(-0.000222865 -0.000181037 0.000503917)
(-0.000240209 -0.000192433 -0.000229466)
(-0.000171863 -0.000136043 -0.000906227)
(-0.000112183 -0.000106748 0.00119941)
(-0.00021278 -0.000198706 0.000503234)
(-0.000228314 -0.000212213 -0.00022987)
(-0.000163628 -0.000151472 -0.00090638)
(-0.000106778 -0.00011214 0.0011994)
(-0.000198681 -0.000212761 0.000503221)
(-0.000212129 -0.000228336 -0.000229888)
(-0.000151333 -0.000163696 -0.000906402)
(-9.82855e-05 -0.000114447 0.00120052)
(-0.000180975 -0.000222798 0.000503878)
(-0.0001923 -0.000240161 -0.000229519)
(-0.000135848 -0.000171848 -0.000906294)
(-8.75549e-05 -0.000114376 0.00120215)
(-0.000160797 -0.000229333 0.000504923)
(-0.000170167 -0.000248047 -0.000228884)
(-0.000118707 -0.000176153 -0.000906073)
(-7.55727e-05 -0.000112927 0.00120398)
(-0.000139358 -0.000233396 0.000506167)
(-0.000147085 -0.00025303 -0.00022807)
(-0.000101355 -0.000177666 -0.000905717)
(-6.32604e-05 -0.000111152 0.00120579)
(-0.000117641 -0.000236165 0.000507466)
(-0.00012404 -0.000256395 -0.000227153)
(-8.47091e-05 -0.000177797 -0.000905214)
(-5.1256e-05 -0.000109805 0.00120738)
(-9.6193e-05 -0.000238547 0.000508663)
(-0.000101459 -0.000259176 -0.000226258)
(-6.90019e-05 -0.000177739 -0.000904642)
(-3.98405e-05 -0.00010914 0.00120858)
(-7.51262e-05 -0.000240889 0.000509558)
(-7.92911e-05 -0.000261806 -0.000225592)
(-5.39489e-05 -0.000178046 -0.000904209)
(-2.9013e-05 -0.000108924 0.00120915)
(-5.42735e-05 -0.000242971 0.000509881)
(-5.72488e-05 -0.000264083 -0.000225458)
(-3.91371e-05 -0.000178563 -0.000904248)
(-1.86794e-05 -0.000108569 0.00120888)
(-3.3384e-05 -0.000244193 0.00050927)
(-3.51064e-05 -0.000265497 -0.000226269)
(-2.44788e-05 -0.000178838 -0.000905173)
(-8.55051e-06 -0.000106203 0.00120717)
(-1.2694e-05 -0.000243524 0.000507253)
(-1.33305e-05 -0.000266028 -0.000228473)
(-1.0562e-05 -0.000179841 -0.000907464)
(0.00201628 7.29442e-05 0.00234354)
(0.0017921 6.59516e-05 0.000913239)
(0.00173267 6.39138e-05 -0.000543527)
(0.00182876 6.68483e-05 -0.00193539)
(0.00199954 0.00022918 0.00234497)
(0.00177795 0.000204627 0.000914881)
(0.00172038 0.000198667 -0.000541804)
(0.00181732 0.000210437 -0.00193363)
(0.00197272 0.000383795 0.00234504)
(0.00175383 0.000341726 0.000915072)
(0.00169698 0.000331595 -0.000541626)
(0.00179276 0.000351653 -0.00193354)
(0.00193336 0.000535233 0.00234443)
(0.00171842 0.000476468 0.000914345)
(0.0016625 0.000462316 -0.000542519)
(0.00175641 0.000490388 -0.00193463)
(0.00188085 0.000682286 0.00234335)
(0.00167108 0.00060747 0.000913074)
(0.0016164 0.000589537 -0.000544033)
(0.00170779 0.000625573 -0.0019364)
(0.00181513 0.000823884 0.00234198)
(0.00161171 0.000733484 0.000911535)
(0.00155856 0.000711888 -0.000545809)
(0.00164684 0.0007557 -0.00193842)
(0.0017368 0.000959356 0.00234045)
(0.001541 0.000853643 0.00090994)
(0.00148977 0.000828303 -0.000547569)
(0.00157446 0.00087941 -0.00194034)
(0.00164721 0.00108854 0.00233891)
(0.00146047 0.00096767 0.000908458)
(0.00141169 0.000938351 -0.000549112)
(0.00149252 0.00099601 -0.00194194)
(0.00154821 0.00121171 0.00233751)
(0.00137213 0.00107591 0.000907247)
(0.00132643 0.00104237 -0.000550288)
(0.00140326 0.00110572 -0.00194309)
(0.0014417 0.00132933 0.00233653)
(0.00127789 0.00117909 0.000906501)
(0.00123592 0.00114124 -0.000550956)
(0.00130865 0.00120953 -0.00194371)
(0.00132928 0.00144176 0.00233652)
(0.0011791 0.00127792 0.000906487)
(0.00114132 0.00123591 -0.000550974)
(0.00120967 0.00130859 -0.00194374)
(0.00121168 0.00154829 0.00233748)
(0.00107597 0.00137222 0.000907205)
(0.00104251 0.0013265 -0.000550342)
(0.00110593 0.00140329 -0.00194316)
(0.00108852 0.00164731 0.00233886)
(0.000967757 0.00146062 0.000908389)
(0.00093853 0.00141184 -0.000549201)
(0.000996261 0.00149265 -0.00194205)
(0.000959349 0.00173692 0.00234039)
(0.000853749 0.00154121 0.000909845)
(0.000828502 0.00149001 -0.00054769)
(0.000879679 0.00157469 -0.00194048)
(0.000823882 0.00181526 0.0023419)
(0.000733593 0.00161197 0.000911418)
(0.000712087 0.00155888 -0.000545958)
(0.000755965 0.00164716 -0.0019386)
(0.000682282 0.00188098 0.00234326)
(0.000607568 0.00167139 0.000912938)
(0.000589719 0.00161678 -0.000544207)
(0.000625815 0.00170819 -0.00193661)
(0.000535223 0.00193348 0.00234433)
(0.000476546 0.00171876 0.000914195)
(0.000462468 0.00166294 -0.000542712)
(0.000490591 0.00175688 -0.00193486)
(0.00038378 0.00197283 0.00234493)
(0.00034178 0.00175418 0.000914912)
(0.000331707 0.00169745 -0.000541833)
(0.000351805 0.00179327 -0.00193379)
(0.000229166 0.00199961 0.00234486)
(0.000204657 0.00177831 0.000914715)
(0.000198735 0.00172088 -0.000542019)
(0.000210532 0.00181787 -0.00193389)
(7.29386e-05 0.00201634 0.00234343)
(6.59603e-05 0.00179246 0.00091307)
(6.39358e-05 0.00173318 -0.000543747)
(6.68796e-05 0.00182933 -0.00193565)
(0.00637971 0.000242698 0.00378708)
(0.00603641 0.000231619 0.00136547)
(0.0059067 0.000226856 -0.00106022)
(0.00597787 0.000228701 -0.00341921)
(0.00633495 0.000741741 0.00378777)
(0.00599528 0.00070331 0.00136618)
(0.00586822 0.000688975 -0.0010596)
(0.0059408 0.000697623 -0.00341865)
(0.00625474 0.00123628 0.00378745)
(0.00591931 0.00117061 0.00136563)
(0.00579395 0.00114636 -0.0010605)
(0.00586583 0.00116112 -0.00341993)
(0.00613611 0.00172235 0.00378687)
(0.00580697 0.00163064 0.00136437)
(0.00568397 0.00159678 -0.00106245)
(0.00575458 0.00161745 -0.00342263)
(0.00597868 0.00219657 0.00378615)
(0.00565774 0.00207985 0.00136272)
(0.00553781 0.0020369 -0.00106503)
(0.00560664 0.00206362 -0.0034262)
(0.00578273 0.00265575 0.00378536)
(0.00547181 0.0025149 0.00136093)
(0.00535562 0.00246327 -0.00106786)
(0.00542216 0.00249607 -0.0034301)
(0.00554948 0.00309716 0.00378453)
(0.00525044 0.00293288 0.00135916)
(0.00513871 0.00287279 -0.0010706)
(0.00520256 0.00291138 -0.00343386)
(0.00528117 0.00351876 0.00378366)
(0.00499604 0.00333161 0.00135758)
(0.00488959 0.00326311 -0.00107298)
(0.00495055 0.00330686 -0.00343707)
(0.00498082 0.00391911 0.00378282)
(0.00471176 0.00370971 0.00135632)
(0.00461156 0.00363279 -0.00107477)
(0.00466958 0.00368093 -0.00343942)
(0.00465174 0.00429714 0.00378217)
(0.00440093 0.00406639 0.00135556)
(0.00430791 0.0039812 -0.00107575)
(0.00436297 0.00403301 -0.00344068)
(0.00429708 0.00465182 0.00378216)
(0.0040664 0.00440098 0.00135555)
(0.00398128 0.00430791 -0.00107577)
(0.00403317 0.00436291 -0.0034407)
(0.00391907 0.00498092 0.0037828)
(0.00370977 0.00471187 0.00135628)
(0.00363294 0.00461165 -0.00107481)
(0.00368116 0.00466962 -0.00343948)
(0.00351874 0.00528129 0.00378362)
(0.00333171 0.00499622 0.00135751)
(0.0032633 0.00488978 -0.00107306)
(0.00330713 0.00495071 -0.00343716)
(0.00309715 0.00554962 0.00378446)
(0.002933 0.00525069 0.00135908)
(0.00287302 0.00513899 -0.00107071)
(0.00291167 0.00520283 -0.00343398)
(0.00265575 0.00578289 0.00378528)
(0.00251502 0.00547212 0.00136082)
(0.00246349 0.00535599 -0.00106799)
(0.00249637 0.00542253 -0.00343025)
(0.00219657 0.00597885 0.00378605)
(0.00207996 0.0056581 0.0013626)
(0.0020371 0.00553826 -0.00106519)
(0.00206389 0.0056071 -0.00342637)
(0.00172234 0.00613627 0.00378676)
(0.00163072 0.00580737 0.00136423)
(0.00159695 0.00568448 -0.00106262)
(0.00161767 0.00575512 -0.00342283)
(0.00123626 0.00625488 0.00378734)
(0.00117067 0.00591972 0.00136548)
(0.00114649 0.0057945 -0.00106068)
(0.00116129 0.00586642 -0.00342014)
(0.000741727 0.00633506 0.00378765)
(0.000703344 0.0059957 0.00136602)
(0.00068905 0.00586879 -0.0010598)
(0.000697727 0.00594143 -0.00341887)
(0.000242692 0.0063798 0.00378696)
(0.000231629 0.00603683 0.00136531)
(0.00022688 0.00590729 -0.00106041)
(0.000228736 0.00597852 -0.00341944)
(0.0137181 0.000529951 0.00537396)
(0.0132198 0.000513345 0.00175419)
(0.0129747 0.00050406 -0.00183202)
(0.0129665 0.00050289 -0.00535937)
(0.0136274 0.00160609 0.00537337)
(0.0131338 0.00154917 0.00175337)
(0.0128924 0.00152083 -0.00183321)
(0.0128864 0.00151971 -0.00536072)
(0.0134581 0.00267285 0.00537251)
(0.0129708 0.00257587 0.00175179)
(0.0127327 0.00252804 -0.00183555)
(0.0127272 0.00252622 -0.00536383)
(0.013207 0.00372242 0.00537208)
(0.0127292 0.003587 0.00174994)
(0.0124957 0.00352026 -0.00183876)
(0.0124907 0.00351776 -0.00536848)
(0.0128743 0.00474784 0.00537203)
(0.0124087 0.00457556 0.00174803)
(0.0121814 0.00449083 -0.00184249)
(0.0121767 0.00448817 -0.00537411)
(0.0124608 0.00574238 0.00537226)
(0.0120101 0.00553474 0.00174617)
(0.0117902 0.00543295 -0.00184639)
(0.0117858 0.0054306 -0.00538016)
(0.0119688 0.00669984 0.0053726)
(0.0115356 0.00645821 0.00174445)
(0.0113243 0.00634012 -0.00185012)
(0.0113201 0.00633824 -0.00538601)
(0.0114017 0.00761483 0.00537287)
(0.0109887 0.00734043 0.00174296)
(0.0107874 0.00720663 -0.00185335)
(0.0107834 0.00720503 -0.00539107)
(0.0107642 0.00848275 0.00537294)
(0.0103743 0.00817683 0.00174181)
(0.0101843 0.00802783 -0.00185575)
(0.0101807 0.00802612 -0.00539482)
(0.0100616 0.00929958 0.00537282)
(0.00969748 0.00896364 0.00174114)
(0.00952017 0.00880005 -0.00185705)
(0.00951731 0.00879784 -0.00539682)
(0.00929952 0.0100617 0.00537281)
(0.00896365 0.00969753 0.00174113)
(0.00880015 0.00952016 -0.00185706)
(0.00879802 0.00951724 -0.00539683)
(0.00848271 0.0107643 0.00537291)
(0.0081769 0.0103744 0.00174178)
(0.008028 0.0101843 -0.00185578)
(0.00802637 0.0101807 -0.00539485)
(0.00761481 0.0114018 0.00537282)
(0.00734054 0.0109889 0.00174291)
(0.00720685 0.0107876 -0.00185341)
(0.00720533 0.0107836 -0.00539114)
(0.00669984 0.0119689 0.00537254)
(0.00645834 0.0115359 0.00174438)
(0.00634036 0.0113246 -0.0018502)
(0.00633856 0.0113204 -0.00538609)
(0.00574239 0.012461 0.00537219)
(0.00553488 0.0120105 0.00174608)
(0.00543319 0.0117906 -0.00184649)
(0.00543092 0.0117862 -0.00538026)
(0.00474785 0.0128745 0.00537194)
(0.00457569 0.0124091 0.00174793)
(0.00449105 0.0121818 -0.0018426)
(0.00448846 0.0121772 -0.00537424)
(0.00372242 0.0132072 0.00537198)
(0.00358711 0.0127296 0.00174983)
(0.00352044 0.0124963 -0.00183889)
(0.003518 0.0124912 -0.00536862)
(0.00267284 0.0134583 0.00537241)
(0.00257594 0.0129713 0.00175166)
(0.00252818 0.0127332 -0.00183569)
(0.0025264 0.0127278 -0.00536398)
(0.00160608 0.0136275 0.00537326)
(0.00154921 0.0131343 0.00175324)
(0.00152091 0.012893 -0.00183335)
(0.00151983 0.012887 -0.00536087)
(0.000529946 0.0137182 0.00537385)
(0.000513357 0.0132202 0.00175406)
(0.000504087 0.0129754 -0.00183217)
(0.000502927 0.0129672 -0.00535953)
(0.0245624 0.000956011 0.00681979)
(0.0238746 0.000932425 0.00191525)
(0.0234602 0.000916482 -0.0029021)
(0.0232993 0.000909737 -0.00768105)
(0.0244048 0.00288535 0.00681743)
(0.0237229 0.0028054 0.00191231)
(0.0233131 0.00275631 -0.00290568)
(0.0231554 0.00273653 -0.00768493)
(0.0241045 0.0047981 0.00681594)
(0.0234315 0.00466222 0.00190955)
(0.0230273 0.0045795 -0.00290969)
(0.0228722 0.00454599 -0.0076901)
(0.0236584 0.00668088 0.00681584)
(0.0229987 0.00649122 0.00190723)
(0.0226027 0.0063758 -0.0029141)
(0.0224513 0.00632903 -0.0076967)
(0.0230675 0.00852158 0.00681684)
(0.0224252 0.00828038 0.00190531)
(0.0220399 0.00813378 -0.00291877)
(0.0218928 0.00807485 -0.00770429)
(0.0223339 0.0103083 0.00681856)
(0.0217126 0.0100179 0.00190373)
(0.0213401 0.00984176 -0.00292349)
(0.0211981 0.00977185 -0.00771233)
(0.0214609 0.0120296 0.00682057)
(0.0208641 0.0116923 0.00190241)
(0.0205064 0.0114883 -0.00292796)
(0.0203701 0.0114083 -0.00772014)
(0.0204538 0.0136751 0.00682244)
(0.0198849 0.013293 0.00190135)
(0.0195439 0.0130626 -0.00293181)
(0.0194139 0.0129733 -0.00772697)
(0.0193193 0.0152352 0.0068238)
(0.0187818 0.0148105 0.00190055)
(0.0184595 0.014555 -0.00293467)
(0.0183366 0.0144567 -0.00773205)
(0.0180655 0.0167012 0.00682443)
(0.0175627 0.0162363 0.0019001)
(0.0172611 0.015957 -0.0029362)
(0.0171459 0.01585 -0.00773477)
(0.0167012 0.0180656 0.00682443)
(0.0162363 0.0175628 0.00190009)
(0.0159571 0.0172611 -0.00293621)
(0.0158502 0.0171458 -0.00773478)
(0.0152352 0.0193194 0.00682377)
(0.0148106 0.0187819 0.00190053)
(0.0145552 0.0184596 -0.00293469)
(0.0144569 0.0183366 -0.00773207)
(0.0136751 0.0204539 0.0068224)
(0.0132932 0.0198851 0.00190131)
(0.0130628 0.0195441 -0.00293184)
(0.0129736 0.0194141 -0.007727)
(0.0120296 0.021461 0.00682052)
(0.0116924 0.0208644 0.00190236)
(0.0114885 0.0205067 -0.002928)
(0.0114087 0.0203704 -0.00772019)
(0.0103083 0.022334 0.0068185)
(0.010018 0.0217129 0.00190367)
(0.00984203 0.0213405 -0.00292355)
(0.00977219 0.0211985 -0.00771238)
(0.0085216 0.0230677 0.00681676)
(0.00828053 0.0224256 0.00190524)
(0.00813402 0.0220404 -0.00291884)
(0.00807516 0.0218933 -0.00770435)
(0.00668089 0.0236586 0.00681575)
(0.00649134 0.0229992 0.00190715)
(0.006376 0.0226033 -0.00291417)
(0.00632929 0.0224518 -0.00769677)
(0.0047981 0.0241046 0.00681585)
(0.0046623 0.0234319 0.00190946)
(0.00457965 0.0230279 -0.00290977)
(0.00454618 0.0228729 -0.00769018)
(0.00288535 0.0244049 0.00681734)
(0.00280544 0.0237234 0.00191222)
(0.0027564 0.0233137 -0.00290577)
(0.00273665 0.023156 -0.00768501)
(0.000956007 0.0245625 0.00681969)
(0.000932439 0.0238751 0.00191515)
(0.000916511 0.0234609 -0.00290219)
(0.000909777 0.0233 -0.00768113)
(0.0390668 0.00152738 0.00771204)
(0.0381627 0.00149558 0.00163391)
(0.0375214 0.00147072 -0.00429003)
(0.03712 0.00145542 -0.01021)
(0.0388208 0.00459808 0.00770754)
(0.0379236 0.00449137 0.00162853)
(0.0372878 0.0044144 -0.00429635)
(0.0368908 0.00436544 -0.0102167)
(0.0383458 0.00764251 0.00770543)
(0.0374604 0.00746158 0.00162463)
(0.0368332 0.00733198 -0.00430187)
(0.0364423 0.00724892 -0.0102237)
(0.0376395 0.01064 0.00770585)
(0.036772 0.0103876 0.00162213)
(0.0361577 0.0102067 -0.00430705)
(0.0357752 0.0100907 -0.0102317)
(0.0367043 0.0135717 0.00770819)
(0.0358601 0.0132508 0.00162065)
(0.0352624 0.013021 -0.00431207)
(0.0348905 0.0128739 -0.0102405)
(0.0355435 0.0164188 0.00771176)
(0.0347274 0.0160327 0.00161983)
(0.0341498 0.0157566 -0.00431695)
(0.0337904 0.0155806 -0.0102497)
(0.0341623 0.019163 0.00771582)
(0.0333788 0.0187152 0.00161941)
(0.0328242 0.0183955 -0.0043215)
(0.0324792 0.0181928 -0.0102587)
(0.032568 0.0217869 0.00771963)
(0.0318211 0.0212807 0.00161919)
(0.0312924 0.0209201 -0.00432543)
(0.0309633 0.0206926 -0.0102666)
(0.0307699 0.024274 0.00772254)
(0.0300637 0.0237129 0.00161908)
(0.0295637 0.0233138 -0.00432833)
(0.0292519 0.0230631 -0.0102726)
(0.0287793 0.0266093 0.0077241)
(0.0281179 0.0259965 0.00161903)
(0.0276491 0.0255613 -0.00432988)
(0.0273563 0.0252888 -0.0102757)
(0.0266093 0.0287793 0.0077241)
(0.0259965 0.0281179 0.00161902)
(0.0255615 0.027649 -0.00432988)
(0.0252891 0.0273561 -0.0102757)
(0.024274 0.0307699 0.00772253)
(0.023713 0.0300638 0.00161906)
(0.023314 0.0295637 -0.00432834)
(0.0230634 0.0292519 -0.0102726)
(0.0217869 0.0325681 0.0077196)
(0.0212809 0.0318213 0.00161917)
(0.0209203 0.0312926 -0.00432544)
(0.0206929 0.0309634 -0.0102666)
(0.0191631 0.0341625 0.00771578)
(0.0187153 0.033379 0.00161938)
(0.0183958 0.0328245 -0.00432152)
(0.0181932 0.0324794 -0.0102587)
(0.0164189 0.0355437 0.00771171)
(0.0160329 0.0347277 0.0016198)
(0.0157568 0.0341502 -0.00431696)
(0.015581 0.0337908 -0.0102497)
(0.0135718 0.0367045 0.00770813)
(0.0132509 0.0358604 0.00162061)
(0.0130212 0.0352629 -0.00431209)
(0.0128742 0.034891 -0.0102405)
(0.0106401 0.0376397 0.00770579)
(0.0103877 0.0367724 0.00162209)
(0.010207 0.0361583 -0.00430707)
(0.010091 0.0357757 -0.0102317)
(0.00764252 0.038346 0.00770536)
(0.00746168 0.0374608 0.00162458)
(0.00733214 0.0368338 -0.00430189)
(0.00724912 0.0364429 -0.0102237)
(0.00459808 0.0388209 0.00770748)
(0.00449143 0.037924 0.00162848)
(0.0044145 0.0372884 -0.00429637)
(0.00436556 0.0368914 -0.0102167)
(0.00152738 0.0390669 0.00771197)
(0.00149559 0.0381632 0.00163386)
(0.00147075 0.037522 -0.00429006)
(0.00145546 0.0371207 -0.01021)
(0.056743 0.00222504 0.00752769)
(0.0556106 0.00218432 0.000661995)
(0.0546911 0.00214862 -0.00597965)
(0.05396 0.00212181 -0.0126611)
(0.05639 0.00668644 0.00752104)
(0.0552652 0.00655114 0.000654246)
(0.0543521 0.00644006 -0.00598847)
(0.0536266 0.00635137 -0.0126703)
(0.0557024 0.0111097 0.00751841)
(0.0545924 0.0108808 0.000649562)
(0.0536917 0.0106938 -0.0059949)
(0.0529767 0.0105433 -0.0126783)
(0.0546793 0.0154655 0.00751946)
(0.0535922 0.0151462 0.000647385)
(0.0527099 0.0148853 -0.00599995)
(0.0520097 0.014675 -0.0126863)
(0.0533248 0.0197269 0.00752321)
(0.0522673 0.0193209 0.000646902)
(0.0514089 0.0189892 -0.00600425)
(0.0507278 0.018722 -0.0126948)
(0.0516441 0.0238666 0.00752866)
(0.0506222 0.0233785 0.000647434)
(0.0497927 0.0229797 -0.00600815)
(0.0491343 0.022659 -0.0127034)
(0.0496443 0.0278581 0.00753476)
(0.0486636 0.0272925 0.000648449)
(0.0478672 0.0268308 -0.0060117)
(0.0472349 0.0264602 -0.0127119)
(0.0473352 0.0316752 0.00754051)
(0.0464004 0.0310371 0.000649552)
(0.045641 0.0305165 -0.00601474)
(0.0450378 0.0300996 -0.0127195)
(0.0447289 0.0352931 0.007545)
(0.0438446 0.034587 0.000650474)
(0.043126 0.0340116 -0.00601699)
(0.0425545 0.0335517 -0.0127252)
(0.0418406 0.0386885 0.00754752)
(0.0410114 0.0379189 0.000651025)
(0.0403371 0.0372922 -0.00601817)
(0.0398001 0.0367924 -0.0127282)
(0.0386885 0.0418406 0.00754751)
(0.037919 0.0410114 0.000651025)
(0.0372924 0.040337 -0.00601816)
(0.0367926 0.0397999 -0.0127282)
(0.0352931 0.044729 0.007545)
(0.0345872 0.0438447 0.000650474)
(0.0340118 0.043126 -0.00601698)
(0.033552 0.0425545 -0.0127251)
(0.0316752 0.0473353 0.0075405)
(0.0310372 0.0464005 0.000649552)
(0.0305168 0.0456412 -0.00601473)
(0.0301 0.0450379 -0.0127194)
(0.0278581 0.0496445 0.00753474)
(0.0272927 0.0486638 0.000648447)
(0.0268311 0.0478674 -0.00601168)
(0.0264606 0.0472351 -0.0127119)
(0.0238667 0.0516442 0.00752864)
(0.0233787 0.0506225 0.000647432)
(0.02298 0.049793 -0.00600813)
(0.0226594 0.0491347 -0.0127034)
(0.0197269 0.053325 0.00752319)
(0.0193211 0.0522676 0.000646899)
(0.0189895 0.0514094 -0.00600423)
(0.0187223 0.0507282 -0.0126947)
(0.0154656 0.0546795 0.00751943)
(0.0151464 0.0535926 0.000647381)
(0.0148855 0.0527104 -0.00599992)
(0.0146753 0.0520102 -0.0126863)
(0.0111097 0.0557025 0.00751838)
(0.0108809 0.0545928 0.000649557)
(0.010694 0.0536923 -0.00599487)
(0.0105435 0.0529772 -0.0126782)
(0.00668645 0.0563901 0.007521)
(0.0065512 0.0552656 0.000654238)
(0.00644016 0.0543526 -0.00598845)