/*--------------------------------*- C++ -*----------------------------------*\
| =========                 |                                                 |
| \\      /  F ield         | foam-extend: Open Source CFD                    |
|  \\    /   O peration     | Version:     3.1                                |
|   \\  /    A nd           | Web:         http://www.extend-project.de       |
|    \\/     M anipulation  |                                                 |
\*---------------------------------------------------------------------------*/
FoamFile
{
    version     2.0;
    format      ascii;
    class       volVectorField;
    location    "3";
    object      D;
}
// * * * * * * * * * * * * * * * * * * * * * * * * * * * * * * * * * * * * * //

dimensions      [0 1 0 0 0 0 0];

internalField   nonuniform List<vector> 
256
(
(0.000275415 0.000182722 0.000311923)
(0.000117882 3.54818e-05 9.32978e-05)
(0.000104562 -5.38716e-05 -0.000112007)
(0.000233043 -0.000202473 -0.000344755)
(0.00115178 0.000750829 0.000256375)
(0.000956338 0.000201094 9.09458e-05)
(0.000919461 -0.000236806 -0.00015435)
(0.00103442 -0.000785051 -0.000345465)
(0.00226131 0.00115902 0.00017859)
(0.00206522 0.000336978 4.30126e-05)
(0.00201481 -0.000386703 -0.000144799)
(0.00210485 -0.00121327 -0.00030768)
(0.0035815 0.00147322 6.56211e-05)
(0.00340447 0.000434517 -7.2751e-06)
(0.00334509 -0.000515774 -0.000127776)
(0.00339699 -0.00156104 -0.000229778)
(0.00503817 0.00168455 -4.9168e-05)
(0.00487878 0.000492778 -5.75002e-05)
(0.00481334 -0.000621451 -0.000107464)
(0.00483416 -0.00181817 -0.000145217)
(0.00656272 0.00181284 -0.000153561)
(0.00641938 0.000519191 -0.000103856)
(0.00635016 -0.000706736 -9.03569e-05)
(0.00634674 -0.00200031 -6.79205e-05)
(0.00810086 0.00187783 -0.000239321)
(0.00796837 0.000521635 -0.000146649)
(0.00789606 -0.000773667 -8.07261e-05)
(0.00787736 -0.00212148 -8.86278e-06)
(0.00962492 0.00189959 -0.000306843)
(0.00948512 0.000510546 -0.000187929)
(0.00940506 -0.00082392 -8.08424e-05)
(0.00938391 -0.00219919 2.1395e-05)
(0.000309238 0.000180809 0.000155103)
(0.000156049 3.66915e-05 4.81973e-05)
(0.000142692 -4.88289e-05 -6.51606e-05)
(0.000261989 -0.000190694 -0.000185491)
(0.00122572 0.000745608 0.000143693)
(0.00100617 0.000203495 4.51264e-05)
(0.000971685 -0.000226757 -0.000101483)
(0.00111283 -0.000768474 -0.000218126)
(0.00231608 0.00117178 9.59683e-05)
(0.0021202 0.00034687 1.41709e-05)
(0.00207238 -0.000384056 -0.000104827)
(0.00216447 -0.00121398 -0.000205284)
(0.00360338 0.00149147 1.96064e-05)
(0.00342868 0.000448248 -2.28228e-05)
(0.00337185 -0.000513016 -9.77652e-05)
(0.00342312 -0.00156313 -0.000159744)
(0.00501782 0.00170689 -6.3317e-05)
(0.00486361 0.000509973 -6.10454e-05)
(0.00480037 -0.000616214 -8.69733e-05)
(0.00481701 -0.00181762 -0.000104018)
(0.00649989 0.00183653 -0.00014113)
(0.00636281 0.000538735 -9.74835e-05)
(0.00629552 -0.000696774 -7.78518e-05)
(0.00628617 -0.00199292 -5.17213e-05)
(0.00799994 0.00190098 -0.000206637)
(0.00787516 0.000542148 -0.000131505)
(0.00780499 -0.000758025 -7.48202e-05)
(0.00777878 -0.0021051 -1.29699e-05)
(0.00949588 0.001921 -0.00025741)
(0.00936412 0.000530541 -0.000163033)
(0.00928654 -0.000803353 -8.16986e-05)
(0.00925817 -0.00217426 1.63498e-06)
(0.000324466 0.000186447 7.51405e-05)
(0.000162075 3.91683e-05 2.2528e-05)
(0.000146868 -4.93497e-05 -3.82714e-05)
(0.000270972 -0.000194968 -9.94049e-05)
(0.00125833 0.000739427 7.01448e-05)
(0.00101986 0.000203525 1.62851e-05)
(0.00098334 -0.000219568 -6.52174e-05)
(0.00113884 -0.000756799 -0.000130204)
(0.00234339 0.00116331 3.89345e-05)
(0.00213323 0.000348889 -5.53136e-06)
(0.00208324 -0.000374189 -7.30933e-05)
(0.00218532 -0.00119517 -0.000128298)
(0.0036126 0.00148266 -1.20889e-05)
(0.00342828 0.000452489 -3.24829e-05)
(0.00336907 -0.000499916 -7.25652e-05)
(0.00342536 -0.00153761 -0.000103672)
(0.00500245 0.00170082 -6.96055e-05)
(0.00484167 0.000517266 -6.08981e-05)
(0.00477583 -0.000599796 -6.87117e-05)
(0.00479403 -0.00178729 -7.01282e-05)
(0.00645754 0.00183503 -0.000125353)
(0.00631625 0.000549394 -8.87301e-05)
(0.00624631 -0.00067697 -6.5664e-05)
(0.00623584 -0.00195873 -3.76869e-05)
(0.00793212 0.00190548 -0.000173557)
(0.00780523 0.00055599 -0.000115252)
(0.00773255 -0.000735149 -6.73995e-05)
(0.00770296 -0.00206819 -1.48628e-05)
(0.00940857 0.0019325 -0.000210901)
(0.00927653 0.000547158 -0.0001399)
(0.00919592 -0.000778088 -7.80668e-05)
(0.00916109 -0.00213573 -1.17373e-05)
(0.000329706 0.000189632 3.42482e-05)
(0.000160658 4.04163e-05 9.12252e-06)
(0.000143861 -4.9586e-05 -2.2331e-05)
(0.00027149 -0.000197249 -5.21513e-05)
(0.00126893 0.000735285 2.83546e-05)
(0.00101874 0.000203561 1.39465e-06)
(0.000979674 -0.000213982 -4.16882e-05)
(0.00114222 -0.000747269 -7.53788e-05)
(0.00234986 0.00115406 6.00469e-06)
(0.00212908 0.000349547 -1.48707e-05)
(0.00207637 -0.000363901 -5.00535e-05)
(0.00218448 -0.00117529 -7.70297e-05)
(0.00360845 0.00147142 -2.87827e-05)
(0.00341585 0.00045467 -3.46086e-05)
(0.00335386 -0.000485403 -5.2581e-05)
(0.00341392 -0.00150959 -6.41381e-05)
(0.00498349 0.0016907 -6.8469e-05)
(0.00481652 0.00052189 -5.55827e-05)
(0.0047479 -0.000581601 -5.26309e-05)
(0.00476777 -0.0017536 -4.48477e-05)
(0.00642165 0.00182846 -0.00010787)
(0.00627597 0.000557112 -7.65607e-05)
(0.00620329 -0.000655698 -5.3202e-05)
(0.00619264 -0.00192144 -2.58581e-05)
(0.00787941 0.0019042 -0.000142869)
(0.0077497 0.000567003 -9.70366e-05)
(0.00767429 -0.000711463 -5.74937e-05)
(0.00764275 -0.00202896 -1.36818e-05)
(0.00934199 0.0019372 -0.000170222)
(0.00920797 0.00056145 -0.000116383)
(0.00912375 -0.000752558 -6.91288e-05)
(0.00908463 -0.00209564 -1.68436e-05)
(0.000331092 0.000191045 1.40238e-05)
(0.000158026 4.10868e-05 2.71236e-06)
(0.000140099 -4.95417e-05 -1.27968e-05)
(0.000269475 -0.000197847 -2.64844e-05)
(0.0012701 0.000732484 7.22899e-06)
(0.00101278 0.000203947 -4.81915e-06)
(0.000971651 -0.000209552 -2.62515e-05)
(0.00113757 -0.000739325 -4.23455e-05)
(0.00234674 0.00114765 -9.2526e-06)
(0.00211902 0.000350504 -1.69662e-05)
(0.00206409 -0.000355166 -3.34427e-05)
(0.00217532 -0.00115904 -4.46336e-05)
(0.00359815 0.00146326 -3.31505e-05)
(0.00339966 0.000456841 -3.12475e-05)
(0.00333549 -0.000472737 -3.68488e-05)
(0.00339774 -0.00148629 -3.80172e-05)
(0.00496371 0.00168292 -6.03345e-05)
(0.00479208 0.000525953 -4.64289e-05)
(0.00472135 -0.00056557 -3.86098e-05)
(0.00474232 -0.00172508 -2.72514e-05)
(0.00639092 0.00182295 -8.77309e-05)
(0.00624174 0.000563565 -6.18476e-05)
(0.00616705 -0.000636953 -4.08124e-05)
(0.00615641 -0.00188946 -1.66676e-05)
(0.00783727 0.00190223 -0.000112599)
(0.00770507 0.000576013 -7.71984e-05)
(0.00762761 -0.000690662 -4.5831e-05)
(0.00759495 -0.00199495 -1.09026e-05)
(0.00928936 0.00193928 -0.000132162)
(0.0091534 0.000573025 -9.1893e-05)
(0.00906642 -0.00073016 -5.64341e-05)
(0.00902458 -0.00206059 -1.64994e-05)
(0.00033118 0.000191609 4.72257e-06)
(0.000155798 4.14656e-05 9.94683e-08)
(0.000137108 -4.93788e-05 -7.05305e-06)
(0.0002672 -0.000197703 -1.27923e-05)
(0.00126808 0.000730673 -1.50747e-06)
(0.00100653 0.0002045 -6.02373e-06)
(0.000963924 -0.000206221 -1.58382e-05)
(0.00113135 -0.000733188 -2.27224e-05)
(0.00234078 0.00114376 -1.31117e-05)
(0.00210873 0.000351694 -1.45713e-05)
(0.00205222 -0.00034851 -2.11925e-05)
(0.00216497 -0.00114704 -2.46071e-05)
(0.00358704 0.00145831 -2.89204e-05)
(0.0033847 0.000459039 -2.43437e-05)
(0.003319 -0.000462991 -2.42533e-05)
(0.0033824 -0.0014691 -2.13134e-05)
(0.00494632 0.00167818 -4.67579e-05)
(0.00477152 0.000529555 -3.47101e-05)
(0.00469935 -0.000553159 -2.63202e-05)
(0.00472093 -0.00170382 -1.55375e-05)
(0.00636634 0.00181954 -6.48888e-05)
(0.00621466 0.000568855 -4.53467e-05)
(0.00613862 -0.000622389 -2.87586e-05)
(0.00612801 -0.00186532 -9.95946e-06)
(0.00780489 0.00190095 -8.15966e-05)
(0.00767082 0.000583067 -5.60823e-05)
(0.007592 -0.000674466 -3.31786e-05)
(0.00755871 -0.00196894 -7.63545e-06)
(0.00924926 0.00194042 -9.48095e-05)
(0.0091117 0.000581851 -6.6448e-05)
(0.00902289 -0.000712679 -4.14663e-05)
(0.00897949 -0.00203346 -1.30884e-05)
(0.000330958 0.000191794 1.07322e-06)
(0.000154319 4.1675e-05 -5.46884e-07)
(0.000135154 -4.92142e-05 -3.48911e-06)
(0.000265476 -0.000197375 -5.57722e-06)
(0.00126575 0.000729585 -3.23155e-06)
(0.00100184 0.000204992 -4.49386e-06)
(0.000958302 -0.000203994 -8.43833e-06)
(0.00112633 -0.00072903 -1.09391e-05)
(0.0023355 0.00114162 -1.01927e-05)
(0.00210094 0.000352734 -9.60117e-06)
(0.00204341 -0.000344059 -1.17051e-05)
(0.00215687 -0.00113917 -1.21081e-05)
(0.00357831 0.00145566 -1.92815e-05)
(0.00337367 0.000460824 -1.53314e-05)
(0.00330701 -0.000456458 -1.37577e-05)
(0.00337097 -0.00145791 -1.06079e-05)
(0.00493363 0.00167567 -2.94609e-05)
(0.00475689 0.000532282 -2.13972e-05)
(0.00468383 -0.000544817 -1.5291e-05)
(0.00470571 -0.00168991 -7.8115e-06)
(0.00634916 0.00181777 -3.98531e-05)
(0.00619592 0.000572653 -2.76589e-05)
(0.00611905 -0.000612573 -1.70765e-05)
(0.00610845 -0.00184939 -5.17969e-06)
(0.00778274 0.00190033 -4.95176e-05)
(0.00764746 0.000587953 -3.40296e-05)
(0.00756782 -0.000663526 -2.00407e-05)
(0.0075342 -0.00195163 -4.44216e-06)
(0.009222 0.00194114 -5.71842e-05)
(0.00908333 0.000587825 -4.02069e-05)
(0.00899342 -0.000700844 -2.52642e-05)
(0.00894921 -0.00201525 -8.2291e-06)
(0.000330781 0.000191838 9.68721e-08)
(0.000153595 4.1769e-05 -2.71539e-07)
(0.000134204 -4.91163e-05 -1.04777e-06)
(0.000264575 -0.000197151 -1.5413e-06)
(0.00126436 0.000729074 -1.43188e-06)
(0.000999391 0.000205273 -1.62993e-06)
(0.000955404 -0.000202879 -2.64455e-06)
(0.00112363 -0.000726937 -3.2269e-06)
(0.00233253 0.00114068 -3.75722e-06)
(0.00209682 0.000353328 -3.33123e-06)
(0.00203881 -0.000341834 -3.73972e-06)
(0.00215253 -0.00113529 -3.61774e-06)
(0.00357359 0.00145453 -6.73047e-06)
(0.00336789 0.000461814 -5.22265e-06)
(0.00330077 -0.000453192 -4.4568e-06)
(0.00336494 -0.0014524 -3.18843e-06)
(0.00492697 0.00167462 -1.00468e-05)
(0.00474931 0.000533747 -7.22252e-06)
(0.00467583 -0.000540641 -5.01388e-06)
(0.00469784 -0.00168306 -2.35873e-06)
(0.00634032 0.00181705 -1.34387e-05)
(0.00618633 0.00057464 -9.2927e-06)
(0.00610908 -0.000607651 -5.66036e-06)
(0.00609848 -0.00184152 -1.59283e-06)
(0.00777145 0.00190009 -1.6607e-05)
(0.00763558 0.000590459 -1.14064e-05)
(0.00755557 -0.000658031 -6.69795e-06)
(0.00752181 -0.00194302 -1.44998e-06)
(0.00920812 0.00194144 -1.91235e-05)
(0.00906892 0.000590855 -1.34588e-05)
(0.00897851 -0.000694882 -8.47726e-06)
(0.00893395 -0.00200614 -2.79129e-06)
)
;

boundaryField
{
    interface
    {
        type            tractionDisplacement;
        gradient        nonuniform List<vector> 
192
(
(0.0260041 0.0357732 0.000757384)
(0.012446 0.0356081 0.00176437)
(0.0138234 0.0469371 0.000619444)
(0.0113639 0.0534204 -0.001371)
(0.00966582 0.0580308 -0.00345422)
(0.00807708 0.06026 -0.00542251)
(0.00716285 0.0609864 -0.00700179)
(0.00668725 0.0618472 -0.00787311)
(0.0264818 0.0380549 0.000520139)
(0.0143787 0.0355822 0.00133569)
(0.0139925 0.0455079 0.00080772)
(0.0117266 0.0517967 -0.000368133)
(0.00990601 0.0562828 -0.0017105)
(0.00837222 0.0587089 -0.00307663)
(0.00748181 0.0598059 -0.00426082)
(0.00697666 0.0613885 -0.00501275)
(0.0275289 0.039426 0.000133677)
(0.0150085 0.0356845 0.000418191)
(0.0144504 0.0447672 0.00013277)
(0.0119496 0.050799 -0.000503365)
(0.00993439 0.0551459 -0.00134473)
(0.00828538 0.0576328 -0.00223855)
(0.00733783 0.0589219 -0.00306077)
(0.00667783 0.0609394 -0.00364473)
(0.0281843 0.0400486 -5.24432e-05)
(0.0155063 0.0356714 -4.2208e-05)
(0.0149278 0.0443945 -0.000267804)
(0.0122979 0.0501809 -0.000661152)
(0.010149 0.0544208 -0.00118181)
(0.00839598 0.056908 -0.00175718)
(0.00738064 0.0582891 -0.00231672)
(0.00662601 0.0605426 -0.00275827)
(0.0285237 0.0402895 -0.000114911)
(0.0158323 0.035597 -0.000218383)
(0.0152682 0.0441479 -0.000413241)
(0.0125807 0.049797 -0.000682163)
(0.0103567 0.0539613 -0.00101828)
(0.00853361 0.0564289 -0.00139464)
(0.00746749 0.0578425 -0.00177956)
(0.00663988 0.0602139 -0.00211202)
(0.0286868 0.0403584 -0.000110466)
(0.0160305 0.0355037 -0.0002303)
(0.0154891 0.0439695 -0.000383482)
(0.0127788 0.049549 -0.000567868)
(0.0105161 0.0536678 -0.000784943)
(0.00865283 0.0561142 -0.0010274)
(0.0075558 0.0575318 -0.00128289)
(0.00668887 0.0599588 -0.0015151)
(0.0287586 0.0403638 -7.45407e-05)
(0.0161396 0.0354253 -0.000161191)
(0.0156174 0.0438489 -0.000258816)
(0.0128995 0.0493952 -0.000368841)
(0.0106182 0.0534895 -0.000493351)
(0.00873385 0.0559201 -0.000631636)
(0.00761988 0.0573334 -0.000779509)
(0.00673228 0.0597855 -0.000917486)
(0.0287843 0.0403565 -2.5823e-05)
(0.0161867 0.0353819 -5.68146e-05)
(0.0156748 0.0437876 -9.02493e-05)
(0.012955 0.0493206 -0.000127009)
(0.0106663 0.0534044 -0.000167867)
(0.00877305 0.0558271 -0.000213116)
(0.00765101 0.0572369 -0.000261733)
(0.00675361 0.0596959 -0.000307518)
(-0.00202605 0.0127413 0.0139413)
(-0.00389078 -0.00388825 0.00211053)
(-0.00183591 -0.00341428 0.00345569)
(0.000373175 -0.00469728 0.00162718)
(0.0029837 -0.00456652 0.000586356)
(0.00535454 -0.00408734 -0.000421029)
(0.00725283 -0.0033925 -0.00106394)
(0.00864157 -0.00225328 -0.00186097)
(-0.00493247 0.0047268 0.00307199)
(-0.00878185 -0.00152962 0.000644945)
(-0.00617138 -0.0012952 0.000438166)
(-0.00344705 -0.00172658 -0.000138869)
(-0.000402609 -0.00178768 -0.000511514)
(0.002335 -0.00178784 -0.000834624)
(0.00463335 -0.00178839 -0.00107713)
(0.00651363 -0.00151805 -0.00160407)
(-0.00529443 -0.00645253 -0.00386512)
(-0.00925127 0.00095291 -0.000899129)
(-0.00677756 0.000921146 -0.0012181)
(-0.0040414 0.00134405 -0.00095382)
(-0.00101357 0.00110635 -0.000778237)
(0.00175351 0.000677266 -0.000565506)
(0.00412885 0.000109924 -0.000377295)
(0.00599059 -0.000504467 4.27053e-05)
(-0.00334812 -0.0161705 -0.0137957)
(-0.00547701 0.00263585 -0.00248343)
(-0.00396468 0.00264243 -0.00416836)
(-0.00184401 0.00400901 -0.00262665)
(0.00066634 0.00370126 -0.0017655)
(0.003043 0.00297625 -0.000861737)
(0.00506215 0.00186783 -0.000169857)
(0.00650136 0.000280737 0.000599185)
(0.0215688 -0.0344274 -0.00160422)
(0.00876443 -0.0351418 -0.00349975)
(0.00857353 -0.0475818 -0.00302317)
(0.00523239 -0.054209 -0.00125926)
(0.00288409 -0.0587002 0.000771823)
(0.000975439 -0.0605897 0.00285105)
(-0.000145234 -0.0607142 0.00467799)
(-0.000364904 -0.059915 0.0059544)
(0.0211939 -0.0371371 -0.00090979)
(0.0103973 -0.035831 -0.00199246)
(0.00848376 -0.0463295 -0.0017011)
(0.00530792 -0.0526772 -0.000567459)
(0.0028265 -0.0569276 0.000809106)
(0.000919783 -0.0589133 0.00226656)
(-0.000246549 -0.0593065 0.00358663)
(-0.000422249 -0.0590025 0.00465276)
(0.0218958 -0.0384518 -0.000371515)
(0.0109647 -0.0361254 -0.00074234)
(0.00898193 -0.0456474 -0.000538747)
(0.00562727 -0.0516846 9.33561e-05)
(0.00296412 -0.0557365 0.000970709)
(0.000916019 -0.0577275 0.00193042)
(-0.000372201 -0.0582391 0.00286269)
(-0.00073693 -0.0580883 0.00370554)
(0.0223018 -0.0388846 -9.76998e-05)
(0.0113709 -0.0361339 -0.000129361)
(0.00937803 -0.0452942 7.49599e-05)
(0.00592212 -0.051066 0.000480694)
(0.0031301 -0.0549766 0.00103138)
(0.000964337 -0.0569232 0.00165444)
(-0.000434658 -0.0574486 0.0022947)
(-0.000917021 -0.0573168 0.00292144)
(0.0224629 -0.0389122 1.60591e-05)
(0.0116172 -0.0360284 0.000115607)
(0.00962597 -0.0450382 0.00030755)
(0.00611984 -0.0506739 0.000590724)
(0.00325403 -0.0544901 0.000949056)
(0.0010091 -0.0563844 0.00135728)
(-0.000469794 -0.056883 0.00179308)
(-0.00102589 -0.0567161 0.00224667)
(0.022502 -0.0388004 4.76292e-05)
(0.0117526 -0.0358959 0.000168436)
(0.00976805 -0.0448415 0.000323436)
(0.0062383 -0.0504144 0.000519137)
(0.00333226 -0.0541755 0.00075107)
(0.00104097 -0.0560278 0.00101271)
(-0.000486895 -0.0564921 0.00129737)
(-0.00107932 -0.0562797 0.00160388)
(0.0224957 -0.0386795 3.99728e-05)
(0.0118201 -0.0357868 0.000128217)
(0.00984257 -0.0447045 0.000227888)
(0.00630298 -0.0502502 0.000344795)
(0.0033764 -0.0539823 0.0004776)
(0.00106035 -0.0558074 0.000625647)
(-0.000494279 -0.0562452 0.000788106)
(-0.00110326 -0.0559968 0.000965598)
(0.0224842 -0.0386079 1.49656e-05)
(0.0118474 -0.0357269 4.66477e-05)
(0.00987415 -0.044634 8.09077e-05)
(0.00633122 -0.0501697 0.000119942)
(0.00339601 -0.0538895 0.000163416)
(0.00106937 -0.0557014 0.000211561)
(-0.000496652 -0.0561255 0.000264596)
(-0.00111218 -0.0558576 0.000322762)
(0.0617354 0.000413009 -0.00155892)
(0.0614669 0.000231144 -0.000834279)
(0.0611914 0.000607356 -0.000615645)
(0.060887 0.000837427 -0.000382601)
(0.0605924 0.00101373 -0.000253983)
(0.0603523 0.0011199 -0.000165459)
(0.060185 0.00117934 -9.5906e-05)
(0.0600976 0.00120192 -3.15192e-05)
(0.0570982 0.000458234 -0.000964031)
(0.0569144 0.000332522 -0.000704685)
(0.0566323 0.000457872 -0.000659139)
(0.0562876 0.000597467 -0.000544998)
(0.0559283 0.000722337 -0.000428887)
(0.055628 0.000812036 -0.000307975)
(0.0554186 0.000869002 -0.000185297)
(0.0553137 0.000897265 -6.16506e-05)
(0.0563262 -0.0017363 -0.000434755)
(0.0560485 -0.00153043 -0.000776454)
(0.05559 -0.00145308 -0.000900362)
(0.0551102 -0.00137706 -0.000873379)
(0.0546672 -0.0013063 -0.000734302)
(0.0543137 -0.00124675 -0.000542871)
(0.0540729 -0.00120417 -0.000329942)
(0.0539519 -0.00118113 -0.000110329)
(0.0589012 -0.00245802 -0.000171134)
(0.0582663 -0.0021076 -0.00115139)
(0.0575092 -0.00217752 -0.00139105)
(0.056826 -0.00219491 -0.00135971)
(0.0562619 -0.0021899 -0.00113941)
(0.0558398 -0.00216383 -0.000839219)
(0.0555614 -0.00213707 -0.00050858)
(0.0554229 -0.00212071 -0.000169965)
)
;
        traction        nonuniform List<vector> 
192
(
(22.6065 -0.766945 -2.33112)
(22.7776 -0.840115 -4.00497)
(22.7502 -1.1289 -4.76651)
(22.955 -1.16491 -5.16944)
(23.3921 -0.948276 -5.36812)
(23.9519 -0.390445 -5.37504)
(24.3997 0.708042 -5.12771)
(23.2999 2.50395 -4.44081)
(25.4468 -1.10565 -1.66536)
(25.9444 -1.19188 -2.8761)
(26.6509 -1.52618 -3.42396)
(27.5301 -1.55247 -3.70201)
(28.4345 -1.25682 -3.81736)
(29.1229 -0.525199 -3.7771)
(29.036 0.907137 -3.54553)
(25.7184 3.12288 -3.03709)
(27.2829 -1.26369 -1.18545)
(27.736 -1.33423 -2.03846)
(28.5807 -1.683 -2.39683)
(29.6223 -1.69371 -2.56122)
(30.6246 -1.33711 -2.61361)
(31.2382 -0.487946 -2.56574)
(30.7287 1.13387 -2.40493)
(26.2849 3.51619 -2.09242)
(28.6024 -1.34326 -0.861348)
(28.9893 -1.39507 -1.48281)
(29.8453 -1.75116 -1.73205)
(30.9204 -1.74686 -1.83717)
(31.923 -1.34759 -1.86398)
(32.4428 -0.421637 -1.82647)
(31.6478 1.31492 -1.72252)
(26.5302 3.78126 -1.52222)
(29.5531 -1.38771 -0.617009)
(29.8993 -1.42296 -1.06539)
(30.7413 -1.78079 -1.24127)
(31.8139 -1.76548 -1.3116)
(32.794 -1.33775 -1.32755)
(33.2386 -0.362217 -1.30252)
(32.2541 1.44857 -1.23766)
(26.6868 3.96735 -1.10599)
(30.223 -1.41339 -0.417138)
(30.5412 -1.4357 -0.722105)
(31.3671 -1.79314 -0.840689)
(32.4291 -1.77034 -0.886949)
(33.3871 -1.32432 -0.897198)
(33.7787 -0.317114 -0.882069)
(32.6706 1.5423 -0.84298)
(26.8015 4.09528 -0.758273)
(30.6502 -1.42837 -0.240226)
(30.9556 -1.44185 -0.417097)
(31.7701 -1.79815 -0.485266)
(32.8237 -1.77069 -0.511596)
(33.7658 -1.31363 -0.517522)
(34.1242 -0.287024 -0.509449)
(32.9402 1.60261 -0.48696)
(26.8847 4.17403 -0.43618)
(30.8501 -1.43447 -0.0776866)
(31.1492 -1.44305 -0.135238)
(31.9543 -1.79838 -0.157151)
(33.0013 -1.76905 -0.165557)
(33.9356 -1.30683 -0.16748)
(34.2785 -0.269394 -0.164902)
(33.0467 1.63753 -0.156888)
(26.8841 4.20852 -0.138616)
(2.7907 0.513779 10.5052)
(4.82983 0.966071 7.20436)
(5.81159 0.933669 4.09421)
(6.45755 0.771456 1.79366)
(6.97167 0.671537 0.308838)
(7.43625 0.733194 -0.418674)
(7.97498 0.97273 -0.408699)
(8.99959 1.24382 0.404457)
(1.84701 0.476619 9.3473)
(3.35884 0.933269 7.98038)
(3.9607 1.05781 6.15494)
(4.27505 0.919311 4.66204)
(4.51709 0.707705 3.68256)
(4.79636 0.548625 3.20448)
(5.27242 0.483061 3.14793)
(6.52982 0.385143 3.19954)
(1.45151 0.39953 8.52199)
(2.8309 0.733983 8.04623)
(3.41227 0.936269 6.91805)
(3.68022 0.844536 5.87993)
(3.85684 0.621795 5.19954)
(4.07681 0.393809 4.88518)
(4.51011 0.212841 4.87982)
(5.73098 0.0164789 4.93173)
(1.36892 0.401331 7.45142)
(2.8076 0.645707 7.25615)
(3.49809 0.860111 6.34123)
(3.82307 0.780268 5.45265)
(4.01662 0.55507 4.8584)
(4.23385 0.296626 4.54922)
(4.64568 0.0288436 4.45548)
(5.77785 -0.322123 4.52726)
(-4.427 0.439838 0.335741)
(-3.38829 0.730686 0.595732)
(-2.25868 0.917075 0.628515)
(-1.36787 0.868606 0.616944)
(-0.691831 0.696985 0.665022)
(-0.0464002 0.481368 0.809687)
(1.03408 0.126015 1.06009)
(3.93854 -1.21988 1.37928)
(-5.15807 0.317859 -0.0671319)
(-4.94392 0.502869 -0.100695)
(-4.50856 0.688646 -0.165787)
(-4.04082 0.730501 -0.209113)
(-3.58164 0.68438 -0.185781)
(-3.02622 0.601434 -0.0887619)
(-1.97626 0.406967 0.0623642)
(1.23193 -0.813236 0.268403)
(-5.5812 0.269712 -0.140266)
(-5.57347 0.390965 -0.212153)
(-5.34162 0.569179 -0.244077)
(-4.99972 0.660985 -0.244762)
(-4.58186 0.693307 -0.199446)
(-4.00341 0.694266 -0.111393)
(-2.90767 0.59 -0.00560117)
(0.241264 -0.474025 0.0816068)
(-5.88341 0.256185 -0.132791)
(-5.93101 0.343739 -0.198344)
(-5.7793 0.518906 -0.206425)
(-5.4866 0.644957 -0.182901)
(-5.06424 0.734362 -0.128532)
(-4.43014 0.796862 -0.0521518)
(-3.23638 0.738167 0.0216714)
(-0.206549 -0.224726 0.0492427)
(-6.10415 0.254327 -0.102827)
(-6.16829 0.32766 -0.151669)
(-6.0488 0.50583 -0.146868)
(-5.77148 0.657088 -0.115506)
(-5.33254 0.785432 -0.0654437)
(-4.65506 0.886499 -0.0082687)
(-3.41565 0.854985 0.0339942)
(-0.467456 -0.0446604 0.0340783)
(-6.25209 0.256458 -0.0686014)
(-6.31851 0.326116 -0.0993567)
(-6.20837 0.510063 -0.0897854)
(-5.93128 0.678796 -0.0611989)
(-5.47579 0.831175 -0.0226796)
(-4.771 0.953898 0.0150533)
(-3.51537 0.936742 0.0361046)
(-0.628247 0.0761857 0.0235617)
(-6.34067 0.259149 -0.0379388)
(-6.4054 0.32942 -0.0538527)
(-6.29606 0.518859 -0.0458002)
(-6.0149 0.698518 -0.0266913)
(-5.54747 0.864155 -0.00315603)
(-4.82797 0.997826 0.0177429)
(-3.56819 0.98651 0.0268493)
(-0.725425 0.148961 0.0127504)
(-6.38067 0.260923 -0.0119495)
(-6.4432 0.332114 -0.0167116)
(-6.33339 0.524461 -0.0137145)
(-6.04986 0.709223 -0.007161)
(-5.57752 0.880847 0.000571452)
(-4.85211 1.0194 0.00718685)
(-3.58919 1.00889 0.00971691)
(-0.780561 0.183064 0.00347432)
(9.56112 -0.796642 -2.14798)
(9.13328 1.01709 -1.7841)
(9.18193 2.45473 -1.39116)
(9.32611 3.57923 -1.07865)
(9.47066 4.41483 -0.817626)
(9.5898 5.00543 -0.581578)
(9.67369 5.36917 -0.358079)
(9.71075 5.47474 -0.124196)
(6.82879 -2.83254 -0.629123)
(5.88302 -1.92568 -0.562419)
(5.67388 -0.933303 -0.424515)
(5.63702 -0.112298 -0.329857)
(5.64478 0.494696 -0.258257)
(5.66382 0.921664 -0.189102)
(5.68575 1.19987 -0.115718)
(5.70847 1.35926 -0.038707)
(5.77212 -4.39395 0.0198577)
(4.67239 -3.76537 -0.0391039)
(4.32502 -3.03368 -0.0300592)
(4.17727 -2.44841 -0.0357811)
(4.0997 -2.02495 -0.0421927)
(4.05481 -1.73283 -0.0389628)
(4.02982 -1.54721 -0.0246235)
(4.01856 -1.44156 -0.00733365)
(5.63854 -4.12118 0.430553)
(4.55218 -3.60817 0.20151)
(4.14734 -3.16274 0.103724)
(3.94242 -2.79791 0.0505917)
(3.81649 -2.53679 0.0169098)
(3.73522 -2.35925 -0.000400245)
(3.68487 -2.25274 -0.00456621)
(3.65755 -2.20275 -0.00192273)
)
;
        pressure        uniform 0;
        value           nonuniform List<vector> 
192
(
(0.000600466 0.000629887 0.000321391)
(0.00130735 0.00119593 0.000278429)
(0.0024341 0.00174573 0.000186333)
(0.00372355 0.00214098 4.84835e-05)
(0.005159 0.00240994 -9.23457e-05)
(0.00666369 0.00256609 -0.000221343)
(0.00819039 0.00264016 -0.000326844)
(0.00970851 0.00267268 -0.000405257)
(0.000640261 0.000656496 0.000161604)
(0.00140545 0.00119039 0.000160389)
(0.00249099 0.00174063 0.000106065)
(0.00374996 0.00213893 1.50047e-05)
(0.00514165 0.00241042 -8.46982e-05)
(0.00660454 0.00257039 -0.000179588)
(0.00809347 0.00264855 -0.000259897)
(0.00958308 0.00268836 -0.000320069)
(0.000668577 0.000679272 7.68115e-05)
(0.00144594 0.00118548 7.53722e-05)
(0.00252402 0.0017229 4.05942e-05)
(0.00376197 0.00211764 -1.8381e-05)
(0.00512663 0.00239015 -8.64146e-05)
(0.00656111 0.00255544 -0.000153335)
(0.00802384 0.00264201 -0.000211816)
(0.00949204 0.00269425 -0.000256461)
(0.000682009 0.000690239 3.35926e-05)
(0.00146276 0.00118118 2.7827e-05)
(0.00253645 0.00170899 2.65714e-06)
(0.00376218 0.00209868 -3.70471e-05)
(0.00511035 0.00237096 -8.32416e-05)
(0.0065266 0.00253981 -0.000129835)
(0.00797167 0.00263281 -0.000171828)
(0.00942481 0.00269398 -0.000204701)
(0.000687638 0.000694664 1.25875e-05)
(0.00146801 0.00117745 4.49919e-06)
(0.00253759 0.0016995 -1.44181e-05)
(0.00375541 0.00208572 -4.16776e-05)
(0.00509317 0.00235744 -7.30629e-05)
(0.00649759 0.00252831 -0.000105164)
(0.00793061 0.00262526 -0.000134843)
(0.00937236 0.00269195 -0.000158562)
(0.000689765 0.000696089 3.34174e-06)
(0.00146846 0.00117447 -4.38622e-06)
(0.0025344 0.00169338 -1.79052e-05)
(0.00374677 0.00207768 -3.60187e-05)
(0.00507777 0.00234902 -5.65697e-05)
(0.0064745 0.00252097 -7.77313e-05)
(0.00789933 0.00262009 -9.76327e-05)
(0.00933288 0.00268991 -0.000113748)
(0.00069044 0.000696341 1.4146e-07)
(0.0014675 0.0011724 -5.24645e-06)
(0.00253072 0.00168973 -1.34279e-05)
(0.00373955 0.0020731 -2.3892e-05)
(0.00506636 0.00234429 -3.56278e-05)
(0.00645834 0.00251677 -4.77485e-05)
(0.00787799 0.002617 -5.92614e-05)
(0.00930616 0.00268846 -6.86528e-05)
(0.000690584 0.000696294 -2.25915e-07)
(0.00146669 0.00117135 -2.14207e-06)
(0.00252846 0.00168803 -4.88534e-06)
(0.00373552 0.00207103 -8.31808e-06)
(0.0050603 0.00234217 -1.21452e-05)
(0.00644998 0.00251488 -1.61027e-05)
(0.00786708 0.00261555 -1.98786e-05)
(0.00929254 0.00268763 -2.29675e-05)
(0.000250089 0.000341989 0.00048619)
(0.00110314 0.000702226 0.000282756)
(0.00223836 0.00111634 0.000221786)
(0.00358616 0.00141451 8.59608e-05)
(0.00507547 0.00162747 -4.18385e-05)
(0.00662965 0.00176175 -0.000158824)
(0.00819152 0.00183542 -0.000252621)
(0.00973294 0.00187143 -0.000330105)
(5.62265e-05 9.45668e-05 0.000131698)
(0.000846564 0.000181974 9.90076e-05)
(0.00198808 0.000320788 4.84897e-05)
(0.00336138 0.000412935 -9.01096e-06)
(0.00487374 0.000470432 -6.38941e-05)
(0.00644857 0.000496843 -0.000114289)
(0.00802629 0.00049928 -0.000160113)
(0.00956654 0.000491571 -0.00020798)
(3.83818e-05 -0.000134528 -0.000160321)
(0.00080382 -0.000224895 -0.000165589)
(0.00193009 -0.000375189 -0.000160025)
(0.00329457 -0.000498974 -0.000139699)
(0.00480067 -0.000607622 -0.000117192)
(0.00637207 -0.00069827 -9.74257e-05)
(0.00794767 -0.000772293 -8.54423e-05)
(0.00947995 -0.000830226 -8.03085e-05)
(0.000191191 -0.000404605 -0.000517201)
(0.000965954 -0.000752103 -0.000376508)
(0.00205529 -0.00118024 -0.000359784)
(0.00337394 -0.00151092 -0.000262612)
(0.00484249 -0.0017719 -0.000167286)
(0.00638478 -0.00196311 -7.86922e-05)
(0.00794063 -0.00209813 -1.0986e-05)
(0.00946518 -0.00219568 2.88848e-05)
(0.000502654 -0.000632816 -0.000364807)
(0.00114397 -0.00122432 -0.000389212)
(0.00221202 -0.00180804 -0.000345469)
(0.0034624 -0.00223865 -0.000245519)
(0.00487021 -0.00255192 -0.000135569)
(0.00635893 -0.00275768 -3.22824e-05)
(0.00787554 -0.0028804 4.9612e-05)
(0.00937935 -0.00294813 9.5825e-05)
(0.000526913 -0.000654908 -0.000196864)
(0.00124279 -0.00121636 -0.000243032)
(0.00227052 -0.0017931 -0.000226548)
(0.00348947 -0.0022216 -0.000166837)
(0.00485234 -0.00252921 -9.39039e-05)
(0.00629767 -0.00272934 -2.33893e-05)
(0.0077757 -0.00284643 3.18629e-05)
(0.0092529 -0.00291179 5.97944e-05)
(0.00054467 -0.000675616 -0.000104049)
(0.00127589 -0.00120837 -0.000139483)
(0.00229759 -0.00176577 -0.000135032)
(0.0034957 -0.00218366 -0.000102505)
(0.00483108 -0.00248399 -5.79943e-05)
(0.00624729 -0.00268033 -1.35566e-05)
(0.0076983 -0.00279618 2.09208e-05)
(0.00915188 -0.00286183 3.45819e-05)
(0.000550263 -0.000683307 -5.33725e-05)
(0.00128436 -0.00119894 -7.69959e-05)
(0.00230171 -0.00174147 -7.60927e-05)
(0.00348795 -0.00214791 -5.81295e-05)
(0.00480689 -0.00244081 -3.19554e-05)
(0.0062047 -0.00263298 -5.17763e-06)
(0.00763732 -0.00274706 1.5002e-05)
(0.00907316 -0.0028121 1.96745e-05)
(0.000550262 -0.00068425 -2.62837e-05)
(0.00128279 -0.00118968 -4.09004e-05)
(0.00229564 -0.00172202 -4.07892e-05)
(0.00347423 -0.00211972 -3.06331e-05)
(0.00478299 -0.0024062 -1.53882e-05)
(0.00616902 -0.00259427 2.98372e-07)
(0.00758908 -0.00270599 1.1511e-05)
(0.00901175 -0.00276954 1.1584e-05)
(0.000548475 -0.000682708 -1.2197e-05)
(0.00127826 -0.00118189 -2.06169e-05)
(0.00228707 -0.00170755 -2.05641e-05)
(0.00346038 -0.00209928 -1.48242e-05)
(0.00476259 -0.00238101 -6.14908e-06)
(0.00614102 -0.00256566 2.69944e-06)
(0.00755263 -0.00267509 8.58172e-06)
(0.008966 -0.00273695 6.96004e-06)
(0.000546672 -0.000680868 -5.07756e-06)
(0.00127409 -0.00117636 -9.33644e-06)
(0.0022799 -0.00169798 -9.25945e-06)
(0.00344975 -0.00208604 -6.29801e-06)
(0.00474792 -0.00236469 -1.8415e-06)
(0.0061217 -0.00254699 2.64089e-06)
(0.00752803 -0.0026547 5.40917e-06)
(0.00893542 -0.0027152 3.84087e-06)
(0.000545627 -0.00067975 -1.35423e-06)
(0.00127173 -0.00117352 -2.6438e-06)
(0.00227596 -0.00169321 -2.60639e-06)
(0.00344408 -0.00207952 -1.68915e-06)
(0.00474029 -0.00235668 -3.16029e-07)
(0.00611184 -0.00253779 1.05168e-06)
(0.0075156 -0.00264459 1.85747e-06)
(0.00892004 -0.00270436 1.24324e-06)
(0.0103966 0.00190476 -0.00032633)
(0.0102642 0.00192389 -0.000267838)
(0.0101735 0.0019401 -0.000218597)
(0.0101031 0.00194767 -0.000175005)
(0.0100468 0.00195195 -0.000135336)
(0.0100037 0.00195442 -9.68778e-05)
(0.00997431 0.00195588 -5.83831e-05)
(0.00995934 0.00195646 -1.95175e-05)
(0.0101988 0.000516274 -0.00019998)
(0.0100756 0.000534698 -0.000171842)
(0.00998443 0.000552881 -0.000148139)
(0.00991157 0.000568918 -0.000123195)
(0.00985251 0.000582054 -9.72541e-05)
(0.00980705 0.000592001 -7.02977e-05)
(0.00977606 0.000598688 -4.25231e-05)
(0.00976035 0.000602071 -1.42294e-05)
(0.0101091 -0.000845624 -8.62768e-05)
(0.00998715 -0.000822483 -9.14042e-05)
(0.00989079 -0.000796252 -8.93213e-05)
(0.00981263 -0.000769772 -8.0046e-05)
(0.00974976 -0.000746489 -6.56129e-05)
(0.00970181 -0.000728263 -4.82522e-05)