/*--------------------------------*- C++ -*----------------------------------*\
| =========                 |                                                 |
| \\      /  F ield         | foam-extend: Open Source CFD                    |
|  \\    /   O peration     | Version:     3.1                                |
|   \\  /    A nd           | Web:         http://www.extend-project.de       |
|    \\/     M anipulation  |                                                 |
\*---------------------------------------------------------------------------*/
FoamFile
{
    version     2.0;
    format      ascii;
    class       volVectorField;
    location    "3";
    object      D_0;
}
// * * * * * * * * * * * * * * * * * * * * * * * * * * * * * * * * * * * * * //

dimensions      [0 1 0 0 0 0 0];

internalField   nonuniform List<vector> 
256
(
(0.000280148 0.00018591 0.000318203)
(0.000119661 3.60838e-05 9.50867e-05)
(0.000106161 -5.50325e-05 -0.000114544)
(0.00023726 -0.000206631 -0.000352401)
(0.00117218 0.000764063 0.000263992)
(0.000973477 0.000204314 9.38293e-05)
(0.000936172 -0.000241982 -0.000157349)
(0.00105334 -0.000800889 -0.000353265)
(0.00230209 0.00117897 0.000186948)
(0.0021029 0.000341875 4.64461e-05)
(0.00205189 -0.00039548 -0.000146742)
(0.00214362 -0.00123785 -0.00031445)
(0.0036465 0.0014977 7.40056e-05)
(0.00346688 0.000440059 -3.25578e-06)
(0.00340678 -0.000527975 -0.000128336)
(0.00345958 -0.00159291 -0.000234462)
(0.00512943 0.00171126 -4.0828e-05)
(0.00496797 0.000498023 -5.28665e-05)
(0.00490176 -0.000636726 -0.000106518)
(0.00492285 -0.00185559 -0.000147604)
(0.00668076 0.00183997 -0.000145085)
(0.00653586 0.000523449 -9.84995e-05)
(0.00646587 -0.000724712 -8.79352e-05)
(0.00646227 -0.0020418 -6.81461e-05)
(0.00824502 0.00190408 -0.000230336)
(0.00811143 0.00052447 -0.000140371)
(0.00803845 -0.000793956 -7.68777e-05)
(0.00801933 -0.00216587 -7.22889e-06)
(0.00979379 0.00192428 -0.000296733)
(0.00965331 0.000511714 -0.000180412)
(0.00957285 -0.000846218 -7.55309e-05)
(0.00955129 -0.00224573 2.46277e-05)
(0.00031482 0.00018381 0.000158553)
(0.000158995 3.71452e-05 4.91827e-05)
(0.000145552 -4.99668e-05 -6.67647e-05)
(0.000267309 -0.000194632 -0.000190041)
(0.00124864 0.00075809 0.000148755)
(0.00102542 0.000206129 4.70081e-05)
(0.00099063 -0.000232182 -0.000103494)
(0.00113466 -0.000784413 -0.000223417)
(0.00235981 0.00119104 0.000102035)
(0.00216081 0.000351009 1.67283e-05)
(0.00211245 -0.000393558 -0.000106159)
(0.00220637 -0.00123933 -0.000210109)
(0.00367134 0.00151517 2.61558e-05)
(0.00349405 0.000452918 -1.95948e-05)
(0.00343651 -0.000526144 -9.80396e-05)
(0.00348874 -0.00159601 -0.000163215)
(0.0051118 0.00173277 -5.64243e-05)
(0.00495556 0.00051429 -5.71292e-05)
(0.00489152 -0.000632517 -8.60447e-05)
(0.0049084 -0.00185615 -0.000105839)
(0.00662035 0.00186277 -0.000133818)
(0.00648177 0.00054202 -9.28099e-05)
(0.00641367 -0.000715816 -7.57007e-05)
(0.00640408 -0.00203555 -5.19061e-05)
(0.00814633 0.00192627 -0.000198683)
(0.0080205 0.000543966 -0.000125939)
(0.00794961 -0.00077941 -7.14567e-05)
(0.00792292 -0.00215065 -1.16659e-05)
(0.00966693 0.00194469 -0.000248429)
(0.00953454 0.000530681 -0.00015637)
(0.0094565 -0.000826773 -7.7111e-05)
(0.0094277 -0.002222 4.27192e-06)
(0.000330428 0.000189572 7.71398e-05)
(0.000165347 3.96142e-05 2.31022e-05)
(0.000150116 -5.05594e-05 -3.92839e-05)
(0.000276864 -0.000199108 -0.000102168)
(0.00128252 0.000751698 7.3485e-05)
(0.00104017 0.000205888 1.75463e-05)
(0.00100347 -0.000225173 -6.6486e-05)
(0.0011623 -0.000772994 -0.000133643)
(0.00238887 0.00118212 4.32436e-05)
(0.00217547 0.000352569 -3.63109e-06)
(0.00212506 -0.000384076 -7.38962e-05)
(0.00222931 -0.00122091 -0.00013154)
(0.00368249 0.00150573 -7.12259e-06)
(0.00349556 0.000456552 -2.99241e-05)
(0.00343574 -0.000513577 -7.25788e-05)
(0.0034932 -0.00157097 -0.000106054)
(0.00509834 0.00172596 -6.40897e-05)
(0.00493558 0.000520882 -5.76543e-05)
(0.00486903 -0.000616734 -6.77897e-05)
(0.00488761 -0.00182638 -7.13709e-05)
(0.00657983 0.00186047 -0.000119268)
(0.00643712 0.000551922 -8.47532e-05)
(0.00636646 -0.000696717 -6.37569e-05)
(0.00635584 -0.00200201 -3.77278e-05)
(0.00808024 0.00192993 -0.000166791)
(0.00795244 0.000557024 -0.000110462)
(0.00787912 -0.000757285 -6.44988e-05)
(0.00784909 -0.00211447 -1.3756e-05)
(0.00958132 0.00195532 -0.00020324)
(0.00944878 0.000546503 -0.000134188)
(0.00936779 -0.000802288 -7.41886e-05)
(0.00933258 -0.00218429 -9.58836e-06)
(0.000335826 0.000192844 3.54473e-05)
(0.000164015 4.08642e-05 9.47275e-06)
(0.000147234 -5.08464e-05 -2.29618e-05)
(0.000277669 -0.000201551 -5.38342e-05)
(0.00129377 0.000747518 3.05789e-05)
(0.00103958 0.000205797 2.26479e-06)
(0.00100043 -0.000219709 -4.24613e-05)
(0.0011666 -0.000763706 -7.75691e-05)
(0.00239635 0.00117264 9.04463e-06)
(0.00217226 0.000352965 -1.34598e-05)
(0.00211923 -0.000374018 -5.04882e-05)
(0.00222977 -0.0012013 -7.91259e-05)
(0.00367957 0.00149409 -2.50921e-05)
(0.00348434 0.00045835 -3.2618e-05)
(0.00342185 -0.000499388 -5.24284e-05)
(0.00348328 -0.00154325 -6.56759e-05)
(0.00508071 0.00171532 -6.41887e-05)
(0.0049118 0.00052503 -5.29783e-05)
(0.00484256 -0.000598942 -5.17631e-05)
(0.00486296 -0.00179304 -4.56009e-05)
(0.00654529 0.0018533 -0.000102998)
(0.00639828 0.000559103 -7.33061e-05)
(0.00632497 -0.000675909 -5.15633e-05)
(0.00631428 -0.00196511 -2.57432e-05)
(0.00802888 0.001928 -0.000137358)
(0.00789836 0.000567462 -9.30868e-05)
(0.00782239 -0.000734107 -5.5071e-05)
(0.0077905 -0.00207569 -1.27079e-05)
(0.00951607 0.00195933 -0.000163961)
(0.00938167 0.00056019 -0.000111691)
(0.00929716 -0.000777302 -6.59524e-05)
(0.0092577 -0.00214471 -1.50876e-05)
(0.000337276 0.00019431 1.47558e-05)
(0.000161396 4.15367e-05 2.93255e-06)
(0.000143511 -5.0836e-05 -1.31807e-05)
(0.000275808 -0.000202255 -2.75002e-05)
(0.00129528 0.00074473 8.70499e-06)
(0.00103388 0.000206123 -4.21613e-06)
(0.00099273 -0.000215362 -2.67045e-05)
(0.00116247 -0.000755946 -4.37068e-05)
(0.00239382 0.00116614 -7.14513e-06)
(0.00216275 0.00035378 -1.59395e-05)
(0.00210757 -0.000365428 -3.36473e-05)
(0.00222141 -0.00118525 -4.59393e-05)
(0.00367005 0.00148571 -3.04914e-05)
(0.00346892 0.000460292 -2.97537e-05)
(0.00340432 -0.000486926 -3.66247e-05)
(0.00346809 -0.00152017 -3.8953e-05)
(0.00506184 0.00170722 -5.71512e-05)
(0.00488829 0.000528789 -4.44337e-05)
(0.00481702 -0.000583168 -3.78564e-05)
(0.00483864 -0.00176475 -2.76509e-05)
(0.00651555 0.00184739 -8.4025e-05)
(0.00636508 0.000565198 -5.93228e-05)
(0.00628983 -0.000657464 -3.94808e-05)
(0.00627924 -0.00193339 -1.64549e-05)
(0.00798775 0.00192559 -0.000108354)
(0.0078548 0.000576078 -7.41207e-05)
(0.00777686 -0.000713637 -4.391e-05)
(0.00774392 -0.00204197 -1.00706e-05)
(0.00946443 0.00196091 -0.000127326)
(0.00932817 0.000571338 -8.82497e-05)
(0.00924098 -0.000755263 -5.39581e-05)
(0.00919886 -0.00210995 -1.5106e-05)
(0.000337391 0.000194904 5.16119e-06)
(0.000159162 4.19167e-05 2.36323e-07)
(0.00014053 -5.06952e-05 -7.2761e-06)
(0.00027362 -0.00020218 -1.33842e-05)
(0.00129343 0.000742943 -5.66299e-07)
(0.00102776 0.000206648 -5.62294e-06)
(0.000985176 -0.000212084 -1.60885e-05)
(0.00115655 -0.000749939 -2.35293e-05)
(0.0023882 0.00116222 -1.17254e-05)
(0.00215277 0.000354894 -1.38682e-05)
(0.00209606 -0.000358864 -2.12694e-05)
(0.00221155 -0.0011734 -2.53762e-05)
(0.00365943 0.00148067 -2.71239e-05)
(0.00345445 0.00046236 -2.33014e-05)
(0.00338837 -0.000477309 -2.40358e-05)
(0.0034534 -0.00150313 -2.18436e-05)
(0.00504505 0.0017023 -4.45606e-05)
(0.00486834 0.000532212 -3.33001e-05)
(0.00479569 -0.000570919 -2.57372e-05)
(0.00481801 -0.00174365 -1.57164e-05)
(0.00649163 0.00184375 -6.22915e-05)
(0.0063387 0.000570268 -4.3549e-05)
(0.00626216 -0.000643087 -2.77737e-05)
(0.00625167 -0.00190941 -9.73066e-06)
(0.00795607 0.00192402 -7.85965e-05)
(0.00782129 0.000582881 -5.38858e-05)
(0.00774205 -0.000697647 -3.17845e-05)
(0.00770853 -0.00201613 -6.98938e-06)
(0.00942503 0.00196173 -9.13867e-05)
(0.00928721 0.000579884 -6.38556e-05)
(0.00919824 -0.000738006 -3.96927e-05)
(0.00915462 -0.00208301 -1.20659e-05)
(0.000337178 0.000195107 1.30836e-06)
(0.000157674 4.21267e-05 -4.71046e-07)
(0.000138578 -5.05439e-05 -3.60401e-06)
(0.000271946 -0.000201892 -5.88467e-06)
(0.00129119 0.000741877 -2.70618e-06)
(0.00102313 0.000207128 -4.26287e-06)
(0.000979644 -0.00020989 -8.56066e-06)
(0.0011517 -0.000745864 -1.1362e-05)
(0.00238311 0.00116008 -9.40354e-06)
(0.00214514 0.000355897 -9.18928e-06)
(0.00208746 -0.000354468 -1.17242e-05)
(0.00220372 -0.00116563 -1.25072e-05)
(0.00365098 0.00147797 -1.82417e-05)
(0.0034437 0.000464076 -1.47145e-05)
(0.00337669 -0.000470852 -1.36041e-05)
(0.00344234 -0.00149204 -1.08715e-05)
(0.00503273 0.00169971 -2.81724e-05)
(0.00485408 0.000534839 -2.05568e-05)
(0.00478057 -0.00056267 -1.49225e-05)
(0.00480326 -0.00172985 -7.87501e-06)
(0.00647487 0.00184185 -3.83158e-05)
(0.00632039 0.000573941 -2.65831e-05)
(0.00624305 -0.000633379 -1.64713e-05)
(0.00623262 -0.00189359 -5.00922e-06)
(0.00793437 0.00192324 -4.77329e-05)
(0.0077984 0.000587621 -3.27138e-05)
(0.00771836 -0.000686825 -1.91948e-05)
(0.00768456 -0.00199892 -4.03097e-06)
(0.0093982 0.00196224 -5.51465e-05)
(0.0092593 0.000585693 -3.86574e-05)
(0.00916927 -0.000726298 -2.41975e-05)
(0.00912487 -0.00206489 -7.60173e-06)
(0.000337004 0.00019516 1.71071e-07)
(0.000156944 4.22209e-05 -2.47137e-07)
(0.000137628 -5.04524e-05 -1.08307e-06)
(0.000271067 -0.000201687 -1.63639e-06)
(0.00128983 0.000741379 -1.26278e-06)
(0.00102071 0.000207404 -1.55429e-06)
(0.000976784 -0.000208791 -2.68084e-06)
(0.00114908 -0.000743809 -3.35807e-06)
(0.00238021 0.00115914 -3.50079e-06)
(0.0021411 0.000356476 -3.1954e-06)
(0.00208294 -0.000352269 -3.74164e-06)
(0.00219951 -0.00116179 -3.7407e-06)
(0.00364638 0.00147682 -6.38996e-06)
(0.00343804 0.000465038 -5.0183e-06)
(0.00337059 -0.000467621 -4.40175e-06)
(0.0034365 -0.00148658 -3.26731e-06)
(0.00502624 0.00169862 -9.62222e-06)
(0.00484667 0.000536262 -6.9433e-06)
(0.00477276 -0.000558537 -4.88793e-06)
(0.0047956 -0.00172305 -2.37256e-06)
(0.00646622 0.00184107 -1.293e-05)
(0.006311 0.000575873 -8.93465e-06)
(0.0062333 -0.000628507 -5.45619e-06)
(0.00622289 -0.00188577 -1.5303e-06)
(0.00792328 0.00192293 -1.60149e-05)
(0.00778674 0.000590061 -1.09683e-05)
(0.00770634 -0.000681384 -6.41438e-06)
(0.00767242 -0.00199036 -1.3088e-06)
(0.00938453 0.00196245 -1.84474e-05)
(0.00924511 0.000588646 -1.29435e-05)
(0.00915459 -0.000720395 -8.12129e-06)
(0.00910987 -0.00205583 -2.57968e-06)
)
;

boundaryField
{
    interface
    {
        type            tractionDisplacement;
        gradient        nonuniform List<vector> 
192
(
(0.0012504 8.90088e-08 -6.27537e-06)
(0.00125106 2.32615e-07 -7.48491e-06)
(0.0012496 5.25483e-07 -7.47543e-06)
(0.00124673 8.45864e-07 -7.27339e-06)
(0.00124237 1.23213e-06 -6.95727e-06)
(0.00123606 1.75972e-06 -6.48764e-06)
(0.00122701 2.65546e-06 -5.77696e-06)
(0.00121237 4.4017e-06 -4.57372e-06)
(0.00127836 1.58951e-07 -4.18175e-06)
(0.00127813 3.40733e-07 -4.98588e-06)
(0.00127606 6.81215e-07 -4.94782e-06)
(0.00127234 1.07974e-06 -4.77587e-06)
(0.0012667 1.57845e-06 -4.5173e-06)
(0.00125852 2.26978e-06 -4.14438e-06)
(0.00124668 3.43378e-06 -3.60938e-06)
(0.00122774 5.61186e-06 -2.83028e-06)
(0.0012969 2.0556e-07 -2.92788e-06)
(0.00129628 4.22773e-07 -3.50022e-06)
(0.00129375 8.10625e-07 -3.4639e-06)
(0.00128935 1.27314e-06 -3.32432e-06)
(0.00128271 1.85533e-06 -3.11929e-06)
(0.00127309 2.65704e-06 -2.83373e-06)
(0.00125927 3.97152e-06 -2.44508e-06)
(0.00123752 6.33252e-06 -1.9299e-06)
(0.00131022 2.36666e-07 -2.12187e-06)
(0.00130939 4.82114e-07 -2.53952e-06)
(0.00130652 9.12912e-07 -2.50899e-06)
(0.00130157 1.426e-06 -2.39958e-06)
(0.00129415 2.06871e-06 -2.2415e-06)
(0.00128345 2.94405e-06 -2.02736e-06)
(0.00126819 4.35007e-06 -1.74696e-06)
(0.00124452 6.81512e-06 -1.39307e-06)
(0.00131978 2.59652e-07 -1.51365e-06)
(0.00131882 5.26652e-07 -1.81147e-06)
(0.00131569 9.91037e-07 -1.78752e-06)
(0.00131032 1.54199e-06 -1.7059e-06)
(0.0013023 2.22756e-06 -1.58946e-06)
(0.00129082 3.15197e-06 -1.43486e-06)
(0.00127453 4.6157e-06 -1.23756e-06)
(0.00124954 7.14639e-06 -9.95544e-07)
(0.00132642 2.76131e-07 -1.01788e-06)
(0.00132536 5.58719e-07 -1.21811e-06)
(0.00132204 1.04754e-06 -1.20117e-06)
(0.00131638 1.62535e-06 -1.14496e-06)
(0.00130794 2.34023e-06 -1.06545e-06)
(0.0012959 3.29691e-06 -9.61283e-07)
(0.00127891 4.79762e-06 -8.30326e-07)
(0.00125304 7.37104e-06 -6.71486e-07)
(0.00133063 2.87035e-07 -5.86262e-07)
(0.00132951 5.79709e-07 -7.01327e-07)
(0.00132607 1.08477e-06 -6.91544e-07)
(0.00132021 1.68017e-06 -6.58841e-07)
(0.00131151 2.41383e-06 -6.12817e-07)
(0.00129912 3.39091e-06 -5.5309e-07)
(0.00128169 4.9157e-06 -4.77739e-07)
(0.00125526 7.51474e-06 -3.82182e-07)
(0.00133265 2.92824e-07 -1.90632e-07)
(0.00133149 5.90077e-07 -2.27698e-07)
(0.001328 1.10224e-06 -2.24725e-07)
(0.00132205 1.70638e-06 -2.14081e-07)
(0.00131322 2.44881e-06 -1.99112e-07)
(0.00130067 3.43614e-06 -1.79825e-07)
(0.00128303 4.97701e-06 -1.55001e-07)
(0.00125626 7.58408e-06 -1.20792e-07)
(1.09308e-05 7.23725e-08 0.00114973)
(1.30776e-05 1.27851e-07 0.00114889)
(1.31548e-05 1.98457e-07 0.00114824)
(1.29808e-05 2.92527e-07 0.0011473)
(1.2715e-05 4.04896e-07 0.00114595)
(1.23458e-05 5.36693e-07 0.00114413)
(1.18492e-05 6.86119e-07 0.00114175)
(1.13079e-05 8.03277e-07 0.00113874)
(1.00547e-05 2.11513e-08 0.0010997)
(1.20342e-05 3.77271e-08 0.00109949)
(1.21003e-05 5.67502e-08 0.0010993)
(1.19489e-05 8.24212e-08 0.00109902)
(1.17254e-05 1.12105e-07 0.00109863)
(1.14243e-05 1.44074e-07 0.00109811)
(1.10382e-05 1.71046e-07 0.00109746)
(1.0708e-05 1.6209e-07 0.00109671)
(1.00418e-05 -2.70428e-08 0.00105277)
(1.20188e-05 -4.56996e-08 0.00105298)
(1.20844e-05 -6.9588e-08 0.00105321)
(1.1933e-05 -1.00411e-07 0.00105354)
(1.171e-05 -1.3707e-07 0.001054)
(1.141e-05 -1.80176e-07 0.00105463)
(1.10258e-05 -2.2871e-07 0.00105544)
(1.06983e-05 -2.6355e-07 0.00105648)
(1.09054e-05 -8.04064e-08 0.00100291)
(1.30452e-05 -1.36982e-07 0.00100376)
(1.312e-05 -2.11694e-07 0.00100444)
(1.29457e-05 -3.09713e-07 0.00100544)
(1.26804e-05 -4.27843e-07 0.00100685)
(1.23126e-05 -5.69225e-07 0.00100876)
(1.18188e-05 -7.38586e-07 0.00101129)
(1.12818e-05 -8.99354e-07 0.00101456)
(-0.000903606 -9.63547e-08 6.85177e-06)
(-0.000902881 -2.51564e-07 8.12936e-06)
(-0.000904348 -5.72774e-07 8.11249e-06)
(-0.00090722 -9.20022e-07 7.89131e-06)
(-0.000911576 -1.33875e-06 7.54482e-06)
(-0.000917854 -1.91504e-06 7.02877e-06)
(-0.00092686 -2.91625e-06 6.2435e-06)
(-0.00094155 -4.95238e-06 4.89368e-06)
(-0.000876477 -1.72336e-07 4.42126e-06)
(-0.000876696 -3.68407e-07 5.23941e-06)
(-0.000878763 -7.40343e-07 5.19106e-06)
(-0.000882477 -1.17274e-06 5.00456e-06)
(-0.000888098 -1.71422e-06 4.72407e-06)
(-0.000896245 -2.4707e-06 4.31857e-06)
(-0.000908024 -3.77243e-06 3.7342e-06)
(-0.000927051 -6.30466e-06 2.87503e-06)
(-0.000858904 -2.23527e-07 3.02815e-06)
(-0.000859518 -4.57468e-07 3.59773e-06)
(-0.000862036 -8.80012e-07 3.55226e-06)
(-0.00086643 -1.38156e-06 3.40144e-06)
(-0.000873045 -2.0136e-06 3.18024e-06)
(-0.000882602 -2.89053e-06 2.87178e-06)
(-0.000896351 -4.35875e-06 2.45083e-06)
(-0.000918167 -7.09737e-06 1.88924e-06)
(-0.00084644 -2.57774e-07 2.16159e-06)
(-0.000847264 -5.21851e-07 2.57079e-06)
(-0.000850126 -9.90306e-07 2.53274e-06)
(-0.00085506 -1.54618e-06 2.41474e-06)
(-0.000862449 -2.24345e-06 2.24466e-06)
(-0.000873069 -3.20009e-06 2.01421e-06)
(-0.000888236 -4.76849e-06 1.71208e-06)
(-0.000911949 -7.62329e-06 1.32891e-06)
(-0.000837595 -2.83051e-07 1.52365e-06)
(-0.00083856 -5.70096e-07 1.81175e-06)
(-0.000841682 -1.07445e-06 1.78199e-06)
(-0.000847026 -1.67087e-06 1.69407e-06)
(-0.000854997 -2.41412e-06 1.56902e-06)
(-0.000866396 -3.42352e-06 1.40308e-06)
(-0.00088257 -5.05455e-06 1.19126e-06)
(-0.000907581 -7.98206e-06 9.30362e-07)
(-0.000831511 -3.01135e-07 1.01526e-06)
(-0.000832571 -6.04765e-07 1.20705e-06)
(-0.000835879 -1.13523e-06 1.18601e-06)
(-0.000841519 -1.76034e-06 1.1255e-06)
(-0.000849902 -2.53489e-06 1.04024e-06)
(-0.000861845 -3.57878e-06 9.28656e-07)
(-0.000878708 -5.24964e-06 7.88457e-07)
(-0.000904589 -8.22417e-06 6.17775e-07)
(-0.000827684 -3.13066e-07 5.81157e-07)
(-0.000828802 -6.27424e-07 6.90621e-07)
(-0.00083223 -1.17521e-06 6.7841e-07)
(-0.000838059 -1.81904e-06 6.43226e-07)
(-0.000846706 -2.61357e-06 5.93914e-07)
(-0.000858993 -3.67914e-06 5.30029e-07)
(-0.000876286 -5.37574e-06 4.49542e-07)
(-0.000902707 -8.37837e-06 3.46949e-07)
(-0.000825854 -3.19376e-07 1.88378e-07)
(-0.000827006 -6.38536e-07 2.23531e-07)
(-0.000830489 -1.19398e-06 2.19753e-07)
(-0.000836409 -1.8471e-06 2.083e-07)
(-0.000845182 -2.65092e-06 1.92268e-07)
(-0.000857629 -3.72725e-06 1.71653e-07)
(-0.000875121 -5.44102e-06 1.45178e-07)
(-0.000901879 -8.45211e-06 1.08378e-07)
(1.13077e-05 -0.00113956 -9.86196e-07)
(1.18661e-05 -0.00114323 -8.3836e-07)
(1.23873e-05 -0.00114616 -6.69958e-07)
(1.27835e-05 -0.00114847 -5.21832e-07)
(1.30767e-05 -0.00115024 -3.91006e-07)
(1.32868e-05 -0.00115152 -2.72808e-07)
(1.34306e-05 -0.00115236 -1.66012e-07)
(1.35055e-05 -0.00115283 -5.78898e-08)
(1.07333e-05 -0.00109747 -3.23353e-07)
(1.10861e-05 -0.00109878 -2.9851e-07)
(1.14951e-05 -0.00109989 -2.50886e-07)
(1.18192e-05 -0.0011008 -2.02547e-07)
(1.20647e-05 -0.00110151 -1.55909e-07)
(1.22434e-05 -0.00110204 -1.10734e-07)
(1.23687e-05 -0.0011024 -6.67961e-08)
(1.24387e-05 -0.00110257 -2.25708e-08)
(1.07338e-05 -0.00105712 1.29308e-07)
(1.10872e-05 -0.00105654 1.24779e-07)
(1.1494e-05 -0.00105609 9.54584e-08)
(1.18153e-05 -0.00105577 6.74789e-08)
(1.20582e-05 -0.00105555 4.5425e-08)
(1.22347e-05 -0.00105541 2.87838e-08)
(1.23586e-05 -0.00105532 1.65634e-08)
(1.24277e-05 -0.00105528 5.73912e-09)
(1.13263e-05 -0.00101504 7.95589e-07)
(1.18919e-05 -0.00101212 6.58727e-07)
(1.24086e-05 -0.00100987 5.05786e-07)
(1.27978e-05 -0.00100817 3.78169e-07)
(1.3084e-05 -0.00100692 2.73189e-07)
(1.32882e-05 -0.00100604 1.85436e-07)
(1.34278e-05 -0.00100548 1.12584e-07)
(1.35008e-05 -0.00100515 4.00141e-08)
)
;
        traction        nonuniform List<vector> 
192
(
(26.7942 0.00190733 -0.134472)
(26.8085 0.00498462 -0.160391)
(26.7772 0.0112604 -0.160188)
(26.7157 0.0181257 -0.155858)
(26.6222 0.0264028 -0.149084)
(26.487 0.0377082 -0.139021)
(26.293 0.0569026 -0.123792)
(25.9793 0.0943222 -0.0980083)
(27.3935 0.0034061 -0.0896089)
(27.3884 0.00730142 -0.10684)
(27.3441 0.0145975 -0.106025)
(27.2645 0.0231373 -0.10234)
(27.1437 0.033824 -0.0967993)
(26.9683 0.0486382 -0.0888082)
(26.7147 0.0735809 -0.077344)
(26.3087 0.120254 -0.0606489)
(27.7907 0.00440487 -0.0627403)
(27.7773 0.00905942 -0.0750048)
(27.7233 0.0173705 -0.0742265)
(27.6289 0.0272816 -0.0712353)
(27.4865 0.039757 -0.066842)
(27.2806 0.0569365 -0.0607228)
(26.9843 0.085104 -0.0523946)
(26.5182 0.135697 -0.0413549)
(28.0762 0.00507141 -0.0454687)
(28.0584 0.010331 -0.0544183)
(27.997 0.0195624 -0.0537641)
(27.8909 0.0305572 -0.0514196)
(27.7317 0.0443295 -0.0480322)
(27.5026 0.0630869 -0.0434433)
(27.1755 0.0932158 -0.0374349)
(26.6683 0.146038 -0.0298516)
(28.2811 0.00556398 -0.0324353)
(28.2603 0.0112854 -0.0388172)
(28.1933 0.0212365 -0.038304)
(28.0783 0.0330426 -0.0365551)
(27.9065 0.0477333 -0.0340599)
(27.6604 0.0675421 -0.0307469)
(27.3113 0.0989078 -0.0265191)
(26.7759 0.153137 -0.0213331)
(28.4234 0.00591708 -0.0218117)
(28.4006 0.0119725 -0.0261023)
(28.3295 0.0224473 -0.0257394)
(28.2081 0.034829 -0.0245348)
(28.0273 0.0501478 -0.0228311)
(27.7694 0.0706481 -0.0205989)
(27.4052 0.102806 -0.0177927)
(26.8508 0.157951 -0.014389)
(28.5135 0.00615074 -0.0125628)
(28.4894 0.0124223 -0.0150284)
(28.4158 0.023245 -0.0148188)
(28.2903 0.0360036 -0.014118)
(28.1037 0.0517248 -0.0131318)
(27.8383 0.0726623 -0.0118519)
(27.4647 0.105336 -0.0102373)
(26.8984 0.16103 -0.00818961)
(28.5567 0.00627479 -0.00408497)
(28.532 0.0126445 -0.00487923)
(28.4571 0.0236193 -0.00481554)
(28.3296 0.0365652 -0.00458744)
(28.1404 0.0524745 -0.00426669)
(27.8714 0.0736316 -0.00385339)
(27.4935 0.10665 -0.00332146)
(26.9199 0.162516 -0.00258841)
(0.234232 0.00155084 24.637)
(0.280235 0.00273965 24.6191)
(0.281888 0.00425265 24.6052)
(0.278159 0.00626843 24.5849)
(0.272465 0.00867633 24.5561)
(0.264553 0.0115006 24.5171)
(0.253912 0.0147025 24.4661)
(0.242312 0.0172131 24.4015)
(0.215458 0.000453242 23.565)
(0.257875 0.000808438 23.5605)
(0.259292 0.00121608 23.5564)
(0.256048 0.00176617 23.5504)
(0.251258 0.00240225 23.542)
(0.244806 0.00308729 23.5309)
(0.236532 0.00366528 23.517)
(0.229457 0.00347336 23.5009)
(0.215181 -0.00057949 22.5593)
(0.257546 -0.000979277 22.564)
(0.258951 -0.00149117 22.5688)
(0.255708 -0.00215167 22.5758)
(0.250929 -0.00293722 22.5858)
(0.244501 -0.00386092 22.5992)
(0.236268 -0.00490093 22.6167)
(0.22925 -0.00564749 22.6389)
(0.233687 -0.00172299 21.4909)
(0.279539 -0.00293532 21.5091)
(0.281144 -0.00453631 21.5238)
(0.277407 -0.00663671 21.5451)
(0.271722 -0.00916805 21.5754)
(0.263841 -0.0121977 21.6164)
(0.253261 -0.0158268 21.6704)
(0.241752 -0.0192719 21.7405)
(-19.363 -0.00206474 0.146824)
(-19.3475 -0.00539066 0.174201)
(-19.3789 -0.0122737 0.173839)
(-19.4404 -0.0197148 0.1691)
(-19.5338 -0.0286875 0.161675)
(-19.6683 -0.0410367 0.150616)
(-19.8613 -0.0624911 0.133789)
(-20.1761 -0.106122 0.104865)
(-18.7816 -0.00369291 0.0947413)
(-18.7863 -0.00789443 0.112273)
(-18.8306 -0.0158645 0.111237)
(-18.9102 -0.0251302 0.107241)
(-19.0307 -0.0367334 0.10123)
(-19.2052 -0.0529437 0.0925409)
(-19.4577 -0.0808377 0.0800185)
(-19.8654 -0.1351 0.0616077)
(-18.4051 -0.00478987 0.064889)
(-18.4182 -0.00980289 0.0770943)
(-18.4722 -0.0188574 0.0761199)
(-18.5664 -0.0296049 0.0728881)
(-18.7081 -0.0431486 0.0681481)
(-18.9129 -0.06194 0.0615382)
(-19.2075 -0.0934018 0.0525179)
(-19.675 -0.152086 0.0404836)
(-18.138 -0.00552373 0.0463197)
(-18.1556 -0.0111825 0.0550883)
(-18.217 -0.0212208 0.054273)
(-18.3227 -0.0331325 0.0517444)
(-18.481 -0.048074 0.0480998)
(-18.7086 -0.0685733 0.0431617)
(-19.0336 -0.102182 0.0366875)
(-19.5418 -0.163356 0.0284766)
(-17.9485 -0.00606538 0.0326497)
(-17.9691 -0.0122163 0.0388231)
(-18.036 -0.023024 0.0381856)
(-18.1506 -0.0358044 0.0363015)
(-18.3214 -0.0517312 0.0336219)
(-18.5656 -0.0733611 0.0300661)
(-18.9122 -0.108312 0.0255271)
(-19.4482 -0.171044 0.0199363)
(-17.8181 -0.00645288 0.0217555)
(-17.8408 -0.0129593 0.0258653)
(-17.9117 -0.0243264 0.0254145)
(-18.0325 -0.0377215 0.0241178)
(-18.2122 -0.0543192 0.0222908)
(-18.4681 -0.0766882 0.0198998)
(-18.8294 -0.112492 0.0168955)
(-19.3841 -0.176232 0.013238)
(-17.7361 -0.00670857 0.0124534)
(-17.7601 -0.0134448 0.014799)
(-17.8335 -0.0251831 0.0145374)
(-17.9584 -0.0389794 0.0137834)
(-18.1437 -0.0560052 0.0127267)
(-18.407 -0.0788387 0.0113578)
(-18.7775 -0.115194 0.00963305)
(-19.3437 -0.179537 0.00743463)
(-17.6969 -0.00684377 0.00403667)
(-17.7216 -0.0136829 0.00478996)
(-17.7962 -0.0255853 0.00470898)
(-17.9231 -0.0395806 0.00446357)
(-18.111 -0.0568055 0.00412003)
(-18.3778 -0.0798697 0.00367828)
(-18.7526 -0.116593 0.00311095)
(-19.326 -0.181117 0.00232238)
(0.242309 -24.4191 -0.0211328)
(0.254273 -24.4977 -0.0179648)
(0.265441 -24.5605 -0.0143563)
(0.273931 -24.61 -0.0111821)
(0.280215 -24.6479 -0.00837869)
(0.284717 -24.6755 -0.00584588)
(0.287799 -24.6935 -0.0035574)
(0.289404 -24.7035 -0.0012405)
(0.229999 -23.5171 -0.006929)
(0.237559 -23.5453 -0.00639663)
(0.246324 -23.5691 -0.00537612)
(0.253268 -23.5885 -0.00434029)
(0.25853 -23.6038 -0.00334091)
(0.262358 -23.6152 -0.00237288)
(0.265043 -23.6228 -0.00143135)
(0.266544 -23.6265 -0.00048366)
(0.23001 -22.6525 0.00277088)
(0.237582 -22.6402 0.00267384)
(0.2463 -22.6305 0.00204554)
(0.253185 -22.6237 0.00144598)
(0.25839 -22.6189 0.000973392)
(0.262173 -22.6158 0.000616796)
(0.264827 -22.614 0.00035493)
(0.266308 -22.6131 0.000122981)
(0.242706 -21.7508 0.0170483)
(0.254825 -21.6882 0.0141156)
(0.265899 -21.64 0.0108383)
(0.274239 -21.6037 0.00810362)
(0.280372 -21.5769 0.00585405)
(0.284748 -21.558 0.00397363)
(0.287739 -21.5459 0.00241252)
(0.289303 -21.5389 0.000857445)
)
;
        pressure        uniform 0;
        value           nonuniform List<vector> 
192
(
(0.000611325 0.000640375 0.000328313)
(0.00133053 0.00121685 0.000287639)
(0.00247786 0.00177609 0.000196561)
(0.00379076 0.00217735 5.87287e-05)
(0.00525186 0.0024494 -8.22257e-05)
(0.00678272 0.00260611 -0.000211179)
(0.00833507 0.00267892 -0.000316214)
(0.0098777 0.00270921 -0.000393522)
(0.000651969 0.000667715 0.000165447)
(0.00143154 0.00121098 0.00016647)
(0.00253759 0.00177036 0.000113429)
(0.00382005 0.00217449 2.29191e-05)
(0.00523708 0.00244896 -7.64567e-05)
(0.00672583 0.00260943 -0.000170985)
(0.00824017 0.00268631 -0.0002507)
(0.00975429 0.00272384 -0.000309899)
(0.000681001 0.000691111 7.90481e-05)
(0.00147345 0.00120618 7.93221e-05)
(0.00257248 0.0017523 4.57357e-05)
(0.00383403 0.0021526 -1.24591e-05)
(0.00522396 0.00242791 -7.98975e-05)
(0.00668418 0.00259363 -0.000146245)
(0.00817223 0.0026789 -0.000204057)
(0.00966491 0.00272881 -0.000247849)
(0.000694817 0.000702433 3.49353e-05)
(0.00149104 0.00120203 3.042e-05)
(0.00258602 0.00173829 6.2256e-06)
(0.00383551 0.0021333 -3.27106e-05)
(0.00520902 0.00240822 -7.82443e-05)
(0.006651 0.0025774 -0.00012421)
(0.00812135 0.00266905 -0.000165554)
(0.00959895 0.00272783 -0.000197707)
(0.000700643 0.000707056 1.34082e-05)
(0.00149671 0.00119843 6.20143e-06)
(0.00258782 0.00172881 -1.19757e-05)
(0.00382956 0.0021202 -3.85904e-05)
(0.00519276 0.00239442 -6.9383e-05)
(0.00662297 0.00256552 -0.000100917)
(0.00808128 0.00266106 -0.000130038)
(0.00954746 0.00272527 -0.000153186)
(0.000702875 0.000708589 3.83468e-06)
(0.00149739 0.00119555 -3.30863e-06)
(0.002585 0.00172274 -1.6313e-05)
(0.00382144 0.00211211 -3.39518e-05)
(0.00517797 0.00238587 -5.40489e-05)
(0.00660054 0.00255797 -7.4773e-05)
(0.00805069 0.0026556 -9.42526e-05)
(0.00950865 0.00272287 -0.000109957)
(0.000703601 0.0007089 4.05777e-07)
(0.00149655 0.00119355 -4.64803e-06)
(0.00258154 0.00171914 -1.25269e-05)
(0.00381452 0.00210753 -2.2703e-05)
(0.00516693 0.00238108 -3.41572e-05)
(0.00658479 0.00255366 -4.60051e-05)
(0.00802978 0.00265235 -5.72576e-05)
(0.00948236 0.0027212 -6.6402e-05)
(0.000703766 0.000708878 -1.42513e-07)
(0.00149579 0.00119252 -1.94998e-06)
(0.00257938 0.00171745 -4.59351e-06)
(0.00381063 0.00210547 -7.92994e-06)
(0.00516105 0.00237895 -1.16619e-05)
(0.00657663 0.00255173 -1.5527e-05)
(0.00801908 0.00265083 -1.92152e-05)
(0.00946895 0.00272029 -2.22218e-05)
(0.000253926 0.000348999 0.000496079)
(0.00112143 0.000715722 0.000291214)
(0.00227699 0.00113667 0.000231381)
(0.00364907 0.00143909 9.52487e-05)
(0.00516483 0.00165433 -3.27487e-05)
(0.00674596 0.00178913 -0.000149732)
(0.00833404 0.00186214 -0.000243085)
(0.00990015 0.00189686 -0.000319456)
(5.6539e-05 9.66751e-05 0.000134443)
(0.000860795 0.000185563 0.000102318)
(0.0020231 0.000326196 5.23751e-05)
(0.00342148 0.000418926 -4.58085e-06)
(0.00496107 0.000476131 -5.88452e-05)
(0.00656356 0.000501592 -0.000108495)
(0.00816809 0.000502713 -0.000153349)
(0.0097335 0.000493511 -0.000199948)
(3.84359e-05 -0.000137314 -0.000163749)
(0.000817642 -0.000229444 -0.000168615)
(0.00196458 -0.000383217 -0.000162072)
(0.00335408 -0.000510259 -0.000140246)
(0.00488738 -0.000622022 -0.000116135)
(0.00648648 -0.000715438 -9.47824e-05)
(0.008089 -0.000791814 -8.12639e-05)
(0.00964671 -0.000851729 -7.45638e-05)
(0.000194279 -0.000413344 -0.000528159)
(0.000982889 -0.000767244 -0.000384755)
(0.00209211 -0.00120395 -0.000367449)
(0.00343485 -0.0015415 -0.000267776)
(0.00492986 -0.00180809 -0.000169906)
(0.00649929 -0.00200352 -7.88991e-05)
(0.00808175 -0.00214162 -9.14724e-06)
(0.0096317 -0.00224141 3.24338e-05)
(0.000511895 -0.000645372 -0.000373089)
(0.00116481 -0.00124848 -0.000398551)
(0.00225256 -0.00184394 -0.00035401)
(0.00352584 -0.0022832 -0.000251806)
(0.00495914 -0.00260274 -0.000139313)
(0.00647425 -0.00281261 -3.36219e-05)
(0.00801708 -0.00293789 5.02847e-05)
(0.00954629 -0.00300737 9.81448e-05)
(0.000537228 -0.000668433 -0.000201875)
(0.00126697 -0.00124116 -0.000249451)
(0.00231418 -0.00182972 -0.000232721)
(0.00355599 -0.00226701 -0.000171629)
(0.00494397 -0.00258095 -9.69481e-05)
(0.00641537 -0.00278526 -2.46775e-05)
(0.00791941 -0.00290502 3.2149e-05)
(0.00942201 -0.00297228 6.14567e-05)
(0.000555884 -0.000690152 -0.000107094)
(0.00130187 -0.00123379 -0.000143624)
(0.00234351 -0.00180287 -0.000139171)
(0.00356454 -0.00222955 -0.000105852)
(0.00492496 -0.00253622 -6.01928e-05)
(0.00636711 -0.00273682 -1.45137e-05)
(0.00784402 -0.00285545 2.11559e-05)
(0.00932292 -0.00292315 3.59027e-05)
(0.000562022 -0.000698493 -5.52234e-05)
(0.0013114 -0.00122485 -7.96129e-05)
(0.00234907 -0.00177898 -7.87618e-05)
(0.00355842 -0.00219415 -6.03234e-05)
(0.00490246 -0.00249338 -3.33987e-05)
(0.0063262 -0.00268984 -5.7559e-06)
(0.00778467 -0.00280676 1.52991e-05)
(0.00924582 -0.00287392 2.07857e-05)
(0.000562349 -0.000699832 -2.73981e-05)
(0.00131046 -0.00121593 -4.25185e-05)
(0.00234392 -0.00175985 -4.24514e-05)
(0.0035458 -0.00216623 -3.19963e-05)
(0.00487977 -0.00245904 -1.62577e-05)
(0.00629177 -0.00265139 2.23317e-08)
(0.0077377 -0.00276595 1.18578e-05)
(0.00918565 -0.00283165 1.2514e-05)
(0.000560763 -0.000698529 -1.28451e-05)
(0.00130632 -0.00120837 -2.15738e-05)
(0.00233592 -0.00174562 -2.15461e-05)
(0.00353266 -0.00214601 -1.56179e-05)
(0.00486018 -0.00243404 -6.62688e-06)
(0.00626465 -0.00262297 2.60994e-06)
(0.00770214 -0.00273523 8.90767e-06)
(0.00914077 -0.00279924 7.67642e-06)
(0.000559077 -0.000696825 -5.41394e-06)
(0.00130237 -0.00120299 -9.83758e-06)
(0.00232908 -0.00173619 -9.7714e-06)
(0.00352246 -0.00213291 -6.70409e-06)
(0.00484601 -0.00241785 -2.06983e-06)
(0.00624588 -0.00260441 2.63342e-06)
(0.0076781 -0.00271494 5.64008e-06)
(0.00911075 -0.00277759 4.29492e-06)
(0.000558085 -0.000695768 -1.45822e-06)
(0.00130011 -0.00120021 -2.79931e-06)
(0.0023253 -0.0017315 -2.76466e-06)
(0.003517 -0.00212647 -1.813e-06)
(0.00483862 -0.00240991 -3.82374e-07)