/*--------------------------------*- C++ -*----------------------------------*\
| =========                 |                                                 |
| \\      /  F ield         | foam-extend: Open Source CFD                    |
|  \\    /   O peration     | Version:     3.1                                |
|   \\  /    A nd           | Web:         http://www.extend-project.de       |
|    \\/     M anipulation  |                                                 |
\*---------------------------------------------------------------------------*/
FoamFile
{
    version     2.0;
    format      ascii;
    class       volSymmTensorField;
    location    "3";
    object      epsilon;
}
// * * * * * * * * * * * * * * * * * * * * * * * * * * * * * * * * * * * * * //

dimensions      [0 0 0 0 0 0 0];

internalField   nonuniform List<symmTensor> 
256
(
(-0.0068082 0.00899647 -0.000398682 0.0259405 0.00467691 -0.00276066)
(-0.00227369 0.00766144 -0.0011981 0.00616859 0.00162495 -0.00102209)
(0.00117594 0.00714446 -0.00122482 -0.00699336 -0.00230693 0.00118737)
(0.0053443 0.00759221 -0.000497457 -0.0255852 -0.00564812 0.00295034)
(-0.0120139 0.00375587 -0.000462873 0.0166486 -0.00149895 -0.00414108)
(-0.00482402 0.00986168 -0.0018925 0.00639334 -0.000668717 -0.00150507)
(0.00216319 0.00965416 -0.00195769 -0.00527892 0.000352333 0.00192833)
(0.00922013 0.00361768 -0.000688244 -0.0156175 0.00106347 0.00471824)
(-0.0100995 0.00459077 -0.000187944 0.0154994 -0.00082491 -0.00236802)
(-0.00496088 0.00953928 -0.00129739 0.00579814 -0.00033977 -0.000777149)
(0.00155928 0.00954285 -0.00134534 -0.00426521 4.03034e-05 0.00141475)
(0.00686133 0.00463578 -0.000416957 -0.0140471 0.000487973 0.00326932)
(-0.00870192 0.00402436 -0.000185701 0.0115579 -0.00117872 -0.0013343)
(-0.00448771 0.008706 -0.00106716 0.00457825 -0.000410328 -0.000326091)
(0.000868435 0.00876104 -0.00110208 -0.00296657 0.000170071 0.00118402)
(0.00520037 0.00413916 -0.000433402 -0.00995394 0.000925596 0.00247609)
(-0.00710265 0.00349496 -0.000131359 0.00826412 -0.00108414 -0.000196196)
(-0.00393359 0.00750472 -0.000855226 0.00344002 -0.000355798 0.000133715)
(0.000303012 0.00759507 -0.000885113 -0.00190477 0.000165716 0.000873629)
(0.0035036 0.00366629 -0.000381564 -0.00663264 0.00090749 0.00149857)
(-0.00584187 0.00270291 -0.000140474 0.00543582 -0.000948108 0.000713502)
(-0.00344446 0.00602872 -0.000740944 0.00243525 -0.000311861 0.0004998)
(-0.000109561 0.00616958 -0.000753819 -0.00105532 0.000149018 0.000607402)
(0.00221549 0.00297635 -0.000367929 -0.00383339 0.000837507 0.000673451)
(-0.00503464 0.00175543 -0.000214915 0.00354143 -0.000784976 0.00146078)
(-0.00316784 0.0043981 -0.000705286 0.00169732 -0.000303308 0.000817663)
(-0.000389662 0.00454784 -0.000687147 -0.000431956 9.42655e-05 0.000371194)
(0.00141224 0.00215848 -0.000381563 -0.00186268 0.000661317 -3.66129e-05)
(-0.00528179 0.000988694 -0.000300098 0.00254427 -0.00043757 0.00205076)
(-0.00380585 0.00250302 -0.000668102 0.00149065 -0.000198115 0.00108353)
(-0.00031135 0.00244854 -0.000660211 6.39089e-05 -1.04171e-05 0.000160143)
(0.00142531 0.00106709 -0.00044739 -0.000804099 0.000239275 -0.000622119)
(-0.00685402 0.0102205 -0.000248817 0.0251767 0.00287845 -0.00182761)
(-0.00209756 0.00920537 -0.000960544 0.00596939 0.0009154 -0.000688342)
(0.00108013 0.00875885 -0.00104754 -0.00609778 -0.00164382 0.000801638)
(0.00534743 0.00888046 -0.000454823 -0.0241359 -0.00386006 0.00205796)
(-0.012042 0.00385772 -0.000356272 0.0181615 -0.000576661 -0.00325602)
(-0.00443673 0.0101702 -0.00176763 0.00712933 -0.000379284 -0.00120147)
(0.00198528 0.010054 -0.00195215 -0.00608563 -0.000142501 0.00154461)
(0.00924302 0.00386614 -0.000792651 -0.0172569 -4.9729e-05 0.00390939)
(-0.00990929 0.00402935 -0.000139488 0.0155865 -0.00129928 -0.00232484)
(-0.00445306 0.00874511 -0.00139542 0.00588486 -0.000536618 -0.000810675)
(0.00140921 0.00877152 -0.00159158 -0.00439226 0.000201609 0.00135004)
(0.00676836 0.00407816 -0.000639041 -0.0141628 0.000912412 0.00327551)
(-0.00836004 0.00334694 2.31219e-05 0.0116654 -0.00160967 -0.00120529)
(-0.00392331 0.00755842 -0.000990731 0.00464178 -0.000574985 -0.000373974)
(0.000718931 0.00761322 -0.00119447 -0.00301239 0.000367961 0.00105832)
(0.00496814 0.00344631 -0.000524294 -0.010031 0.00139077 0.00234771)
(-0.00675592 0.00275454 0.000171145 0.00819544 -0.00160107 -0.000101308)
(-0.00337963 0.00627293 -0.000668299 0.00343496 -0.000538587 4.1979e-05)
(0.000176181 0.00635282 -0.00087459 -0.00182424 0.000421298 0.00075629)
(0.00325881 0.0029041 -0.00039287 -0.00647703 0.00151153 0.00137383)
(-0.00550416 0.00203795 0.000244279 0.00533114 -0.00140958 0.000844869)
(-0.00291896 0.00491987 -0.000455705 0.00241145 -0.000468385 0.000401965)
(-0.000227935 0.00504529 -0.000646523 -0.000904622 0.000386836 0.00049091)
(0.00195452 0.00229408 -0.000297591 -0.0035822 0.00140744 0.000507698)
(-0.00471996 0.00121208 0.000232659 0.0034072 -0.00109805 0.0016008)
(-0.00268739 0.0035348 -0.00035922 0.00163845 -0.000397515 0.000707773)
(-0.000500212 0.00367914 -0.000520987 -0.000240727 0.000268624 0.00027977)
(0.00115094 0.00163759 -0.00024382 -0.00153112 0.00110024 -0.000194138)
(-0.00497665 0.000730327 0.000157608 0.00245914 -0.000604907 0.00217379)
(-0.00337495 0.00207083 -0.000358275 0.00144843 -0.000248407 0.000950687)
(-0.000454799 0.00201125 -0.000547864 0.000202766 8.50318e-05 9.29955e-05)
(0.00114132 0.000831224 -0.000325876 -0.0005593 0.000522403 -0.000753913)
(-0.00718446 0.0107288 -0.00016579 0.025369 0.00141813 -0.00104957)
(-0.00222977 0.0095968 -0.000613972 0.00604209 0.000373724 -0.000373898)
(0.00114786 0.00911724 -0.000686372 -0.00592656 -0.00102563 0.000498291)
(0.00557656 0.00926845 -0.000317938 -0.0241163 -0.00221064 0.00124801)
(-0.0126753 0.00392973 -0.000288344 0.0177933 -0.000390453 -0.00198546)
(-0.00472843 0.0103334 -0.00119853 0.00715734 -0.000304169 -0.000669059)
(0.00214542 0.0102228 -0.00135501 -0.0059289 -0.000196742 0.00103295)
(0.00972501 0.00393805 -0.000615401 -0.016739 -0.000139871 0.00252373)
(-0.0103937 0.00396963 -0.00017946 0.0154874 -0.00100169 -0.00154872)
(-0.00470845 0.00866818 -0.00103886 0.00595173 -0.000452706 -0.000445296)
(0.00153729 0.00869313 -0.00120888 -0.00431587 0.000127756 0.00101349)
(0.00712857 0.00398819 -0.000547741 -0.013905 0.00066503 0.00232893)
(-0.00865547 0.00322255 -4.82389e-05 0.0116455 -0.00130597 -0.000813515)
(-0.00408963 0.00726605 -0.000760147 0.00469698 -0.000499857 -0.000133341)
(0.000749554 0.00731793 -0.000934286 -0.00292475 0.00031966 0.000863665)
(0.00512153 0.00330292 -0.000436824 -0.00985118 0.00113315 0.00177442)
(-0.00694342 0.00257564 7.21587e-05 0.00824748 -0.00134817 -4.82605e-06)
(-0.00349544 0.00589398 -0.000491349 0.00350051 -0.0004747 0.000191989)
(0.000141685 0.0059774 -0.000664236 -0.001741 0.00040228 0.000672154)
(0.0032815 0.00272503 -0.000317588 -0.00635165 0.00130815 0.00110196)
(-0.00560958 0.00184423 0.000146204 0.00544585 -0.0012127 0.00073279)
(-0.00299544 0.00453694 -0.000300686 0.00248061 -0.000410639 0.000488722)
(-0.000313634 0.00467977 -0.000460064 -0.000823396 0.000392318 0.00049451)
(0.00186831 0.00213199 -0.00022098 -0.00350173 0.00126211 0.000470677)
(-0.00475486 0.00101896 0.000153855 0.00358916 -0.000947108 0.00133756)
(-0.00273262 0.00322081 -0.00021885 0.0017084 -0.000331127 0.000744548)
(-0.00063115 0.0033986 -0.000360666 -0.000169913 0.000290851 0.000361633)
(0.000972434 0.00152212 -0.00017226 -0.00148968 0.0010157 -3.68825e-05)
(-0.00494888 0.000635191 8.21477e-05 0.00264505 -0.000492158 0.00176365)
(-0.00341966 0.00191387 -0.000275393 0.00152962 -0.000184037 0.000937942)
(-0.00067622 0.00187371 -0.000456415 0.000263284 9.89591e-05 0.000283673)
(0.000857872 0.000787011 -0.000281903 -0.000535014 0.000473384 -0.000359641)
(-0.00742219 0.0109141 -9.12115e-05 0.0254666 0.000594639 -0.000543779)
(-0.00234461 0.00966475 -0.000365345 0.00608257 9.26816e-05 -0.000176774)
(0.00118455 0.00914547 -0.000414069 -0.00582901 -0.000626312 0.000310977)
(0.00573796 0.00935101 -0.000197415 -0.024056 -0.00120304 0.000722657)
(-0.0131421 0.00394911 -0.00017247 0.0174672 -0.000328334 -0.00103764)
(-0.00498593 0.010408 -0.000749897 0.0071449 -0.000249106 -0.000298696)
(0.00222455 0.0102895 -0.000857787 -0.00572747 -0.000169321 0.000681462)
(0.0100558 0.00395341 -0.000405599 -0.0162613 -8.96689e-05 0.00151833)
(-0.0108196 0.00398948 -0.000127319 0.0153172 -0.000717439 -0.000788997)
(-0.00497624 0.00870814 -0.000703045 0.00597741 -0.000341925 -0.000139762)
(0.00159725 0.00873214 -0.000821382 -0.00415348 6.95723e-05 0.000732987)
(0.00741899 0.00399962 -0.000388752 -0.0135487 0.000452842 0.00149226)
(-0.00899091 0.00321637 -4.85002e-05 0.0115911 -0.000936745 -0.000314886)
(-0.00432005 0.00724732 -0.00054084 0.00474811 -0.000373419 8.911e-05)
(0.00075635 0.00730111 -0.000658826 -0.00279236 0.000229698 0.000682749)
(0.00530836 0.00329621 -0.0003176 -0.00960532 0.000807366 0.00120166)
(-0.00718096 0.00254513 3.38604e-05 0.0082955 -0.000989322 0.000244549)
(-0.00368803 0.00582969 -0.000359216 0.00357643 -0.000356459 0.000338038)
(9.88942e-05 0.00592171 -0.000473084 -0.00163899 0.000311461 0.000589769)
(0.00335557 0.00270779 -0.000229914 -0.00620247 0.000972586 0.000795461)
(-0.00576497 0.00179343 8.90797e-05 0.005576 -0.000913231 0.000782605)
(-0.00315377 0.0044488 -0.000223753 0.00257261 -0.000311572 0.000575577)
(-0.000397254 0.00461076 -0.000326662 -0.00074771 0.000317763 0.000499068)
(0.00184191 0.00211567 -0.000155669 -0.00342948 0.000970454 0.00039237)
(-0.00483761 0.000952779 9.45001e-05 0.00378767 -0.000734472 0.00123919)
(-0.00286432 0.00313713 -0.00017825 0.00180903 -0.000252871 0.000789735)
(-0.000757407 0.00334195 -0.000270957 -0.000115873 0.000243508 0.000445702)
(0.000850334 0.00151455 -0.000123899 -0.00146816 0.000802781 7.57654e-05)
(-0.00497904 0.00060427 1.96527e-05 0.0028631 -0.000401726 0.00157086)
(-0.00355933 0.00186831 -0.000273517 0.00164532 -0.000145296 0.000969229)
(-0.000883195 0.00183785 -0.000400489 0.000304411 8.54574e-05 0.000460222)
(0.000634445 0.000785562 -0.000235186 -0.000550779 0.00038188 -6.71432e-05)
(-0.00756882 0.0109648 -4.37389e-05 0.0254862 0.000184793 -0.000250915)
(-0.00241975 0.00962926 -0.000205792 0.00610707 -2.9984e-05 -6.39237e-05)
(0.00119701 0.00907974 -0.000236665 -0.00574874 -0.000375598 0.000197312)
(0.00582332 0.00932563 -0.000114949 -0.0239364 -0.000629625 0.000410404)
(-0.0134472 0.00394178 -8.85626e-05 0.0172703 -0.000277253 -0.000452901)
(-0.00515824 0.0104161 -0.000442289 0.00714453 -0.000196654 -7.45341e-05)
(0.00224919 0.0102913 -0.000512569 -0.00556224 -0.000127154 0.000456668)
(0.0102401 0.00394625 -0.000247792 -0.0159295 -3.87783e-05 0.000890278)
(-0.0111288 0.00400403 -7.30879e-05 0.0151919 -0.000503587 -0.000261689)
(-0.00516694 0.008744 -0.000443682 0.00599942 -0.000245438 6.32744e-05)
(0.00161026 0.00876992 -0.000521732 -0.00400025 3.58484e-05 0.000534755)
(0.00759716 0.00401486 -0.000251436 -0.0132566 0.000306394 0.00091778)
(-0.00926229 0.00323276 -3.04851e-05 0.0115427 -0.000639645 7.55673e-05)
(-0.00449684 0.00728542 -0.000358136 0.00479273 -0.000260542 0.000247158)
(0.000743574 0.00734373 -0.000434282 -0.00266354 0.00015309 0.000541397)
(0.00543493 0.00331906 -0.000210866 -0.00938145 0.000546403 0.000769675)
(-0.00739618 0.00255455 1.92117e-05 0.00832408 -0.000680846 0.000478472)
(-0.00384358 0.00585587 -0.00024821 0.00364122 -0.000248395 0.000448143)
(5.85976e-05 0.0059565 -0.000319915 -0.0015386 0.000218946 0.000514941)
(0.00341508 0.00273241 -0.000154566 -0.0060542 0.000673184 0.000536461)
(-0.00592545 0.00178984 5.32435e-05 0.00566629 -0.000642353 0.0008802)
(-0.00328731 0.00445883 -0.000164814 0.00265007 -0.000220347 0.000647192)
(-0.000463073 0.00463527 -0.000228336 -0.000674824 0.000229786 0.000489208)
(0.00183388 0.00214002 -0.00010637 -0.00334585 0.000687741 0.000297675)
(-0.00494827 0.000934053 5.08291e-05 0.00392431 -0.000532472 0.00123548)
(-0.00298217 0.0031356 -0.000149979 0.00189159 -0.000183117 0.000836375)
(-0.000853087 0.00335731 -0.000207284 -6.51799e-05 0.00017825 0.000497093)
(0.000775301 0.00153694 -9.19062e-05 -0.00142862 0.000579905 0.000123554)
(-0.00505977 0.00059711 -2.15153e-05 0.00301213 -0.000300171 0.00149604)
(-0.00369012 0.00186661 -0.000255599 0.00173733 -0.000108196 0.00100478)
(-0.00103426 0.00183713 -0.000338296 0.000345812 6.07309e-05 0.000575211)
(0.00049213 0.000795232 -0.000191881 -0.000543351 0.000277101 0.000106508)
(-0.00765214 0.0109655 -1.72497e-05 0.0254736 1.14763e-05 -8.84064e-05)
(-0.00246598 0.00957292 -0.000108923 0.00612418 -6.46829e-05 -2.69562e-06)
(0.00119846 0.00900242 -0.000127558 -0.00568401 -0.000216559 0.000129539)
(0.0058616 0.00927372 -6.27527e-05 -0.023811 -0.000312931 0.00023125)
(-0.0136304 0.00392467 -3.76898e-05 0.0171616 -0.000212778 -0.000114925)
(-0.00526638 0.0103944 -0.000244238 0.00715446 -0.000142716 5.17372e-05)
(0.00225058 0.0102653 -0.000287731 -0.00544067 -8.61154e-05 0.000318017)
(0.0103306 0.00393162 -0.000140929 -0.015711 -8.66577e-06 0.000518486)
(-0.0113289 0.00400777 -3.39717e-05 0.0151193 -0.000336485 6.57085e-05)
(-0.00529122 0.0087589 -0.00025975 0.00602247 -0.000165136 0.000184891)
(0.0016049 0.00878726 -0.000308639 -0.003882 1.77932e-05 0.000404679)
(0.00769422 0.00402213 -0.000149704 -0.0130507 0.000199889 0.000558001)
(-0.00944889 0.0032458 -1.27591e-05 0.0115133 -0.00041343 0.000337511)
(-0.00461658 0.00731943 -0.000218657 0.00482952 -0.000170079 0.000346903)
(0.000725974 0.00738205 -0.00026564 -0.00256039 9.56391e-05 0.000442166)
(0.00550754 0.00333958 -0.000128578 -0.00921242 0.000350038 0.000482304)
(-0.00755394 0.002568 1.45672e-05 0.00834024 -0.000439846 0.000655159)
(-0.00395217 0.00589283 -0.000157994 0.00368998 -0.000161418 0.000522007)
(2.68335e-05 0.00600024 -0.000201459 -0.00145591 0.000141566 0.000456557)
(0.00345122 0.00275864 -9.58767e-05 -0.00593187 0.000435018 0.000349042)
(-0.00605154 0.00179634 3.28478e-05 0.00571949 -0.000421414 0.00097831)
(-0.00338304 0.00448791 -0.000112569 0.00270534 -0.000145144 0.000699988)
(-0.000509253 0.00467448 -0.000150486 -0.000613751 0.000150861 0.000473956)
(0.00182977 0.00216685 -6.81506e-05 -0.00326757 0.000450334 0.00021294)
(-0.00504443 0.000928806 2.63463e-05 0.00400484 -0.000357713 0.00127416)
(-0.00306917 0.00315247 -0.000114937 0.00194821 -0.000123468 0.000875986)
(-0.000917635 0.00338506 -0.000149148 -2.24215e-05 0.00011712 0.000523331)
(0.000730081 0.00155993 -6.44633e-05 -0.00138264 0.000383952 0.00013107)
(-0.00514108 0.000594651 -3.18325e-05 0.0031042 -0.000207526 0.00149551)
(-0.00378921 0.00187367 -0.00020535 0.00180112 -7.52048e-05 0.00103908)
(-0.00113291 0.00184336 -0.000256927 0.00038199 3.82595e-05 0.000639175)
(0.000406934 0.000803423 -0.000142006 -0.000522681 0.000183992 0.000188246)
(-0.0076961 0.0109538 -5.16008e-06 0.0254552 -3.40027e-05 -3.96768e-06)
(-0.00249241 0.00952692 -5.13535e-05 0.00613579 -5.32087e-05 2.83694e-05)
(0.00119636 0.00894325 -6.13002e-05 -0.00563854 -0.000111329 9.14648e-05)
(0.00587617 0.00922894 -3.04409e-05 -0.0237136 -0.000140043 0.000134483)
(-0.0137317 0.00390874 -1.27068e-05 0.0171057 -0.000133928 6.55277e-05)
(-0.00532915 0.0103685 -0.00011935 0.00716628 -8.66841e-05 0.000117564)
(0.00224504 0.0102368 -0.000143002 -0.00536111 -4.93545e-05 0.000238267)
(0.0103703 0.00391832 -7.06177e-05 -0.0155776 2.65175e-06 0.000313282)
(-0.0114461 0.00400604 -1.26583e-05 0.0150829 -0.000194403 0.000248719)
(-0.00536514 0.00876074 -0.00013296 0.00604191 -9.54889e-05 0.000251134)
(0.00159581 0.00879103 -0.000159796 -0.00380345 8.09194e-06 0.000326827)
(0.00774234 0.00402382 -7.76292e-05 -0.0129217 0.000113862 0.000352046)
(-0.00956254 0.00325251 -3.31316e-06 0.0114993 -0.000232702 0.000491542)
(-0.00468944 0.00733911 -0.000115658 0.00485608 -9.61095e-05 0.000403559)
(0.000711356 0.00740481 -0.000141215 -0.00249051 5.21578e-05 0.000380269)
(0.0055449 0.00335211 -6.79378e-05 -0.0091027 0.000195524 0.000311276)
(-0.0076539 0.00257695 9.82295e-06 0.00834946 -0.000246835 0.000767332)
(-0.00401947 0.00591872 -8.64282e-05 0.00372224 -9.08127e-05 0.000566348)
(5.34948e-06 0.0060306 -0.000109822 -0.00139874 7.8774e-05 0.000417744)
(0.0034701 0.00277641 -5.14749e-05 -0.00584778 0.000243424 0.000231044)
(-0.0061349 0.00180186 1.81285e-05 0.0057475 -0.000238748 0.00105037)
(-0.00344334 0.00451065 -6.52406e-05 0.00273987 -8.24726e-05 0.000734345)
(-0.000538181 0.00470356 -8.54552e-05 -0.00057081 8.45507e-05 0.000460742)
(0.00182699 0.00218548 -3.78092e-05 -0.00320944 0.000253549 0.00015243)
(-0.00511184 0.000926934 1.18977e-05 0.00404698 -0.000205975 0.00131527)
(-0.00312492 0.00316673 -7.21684e-05 0.00198228 -7.13749e-05 0.000904361)
(-0.000956609 0.00340573 -9.04115e-05 8.00324e-06 6.54387e-05 0.000534872)
(0.000704991 0.00157552 -3.85171e-05 -0.00134481 0.000217332 0.000123487)
(-0.00520224 0.000593883 -2.56615e-05 0.00315371 -0.000122274 0.00151659)
(-0.00385374 0.0018801 -0.00013175 0.00183958 -4.43759e-05 0.00106503)
(-0.00119114 0.0018483 -0.000160098 0.000408596 2.0676e-05 0.000670852)
(0.000360572 0.000808282 -8.73585e-05 -0.000501084 0.000104207 0.000220324)
(-0.0077148 0.0109452 -9.28369e-07 0.0254434 -1.74647e-05 3.17274e-05)
(-0.0025044 0.00950225 -1.49203e-05 0.00614174 -1.98672e-05 4.12479e-05)
(0.00119451 0.00891225 -1.80375e-05 -0.00561514 -3.42027e-05 7.43358e-05)
(0.00588049 0.00920436 -9.00229e-06 -0.0236615 -3.93739e-05 9.2165e-05)
(-0.0137764 0.00389961 -2.69947e-06 0.0170822 -4.56916e-05 0.000143079)
(-0.0053579 0.0103526 -3.54418e-05 0.00717372 -2.90815e-05 0.000145325)
(0.00224063 0.0102198 -4.29276e-05 -0.00532178 -1.60328e-05 0.000201859)
(0.0103845 0.00391078 -2.12816e-05 -0.0155141 2.19645e-06 0.000222327)
(-0.0114996 0.00400385 -2.99867e-06 0.0150683 -6.37244e-05 0.000329517)
(-0.00539949 0.00875901 -4.05656e-05 0.00605291 -3.12883e-05 0.000279852)
(0.00158989 0.00879033 -4.90998e-05 -0.00376445 2.317e-06 0.00029046)
(0.00776175 0.00402361 -2.3848e-05 -0.0128598 3.70798e-05 0.000258789)
(-0.00961563 0.00325498 -4.26262e-07 0.0114942 -7.52427e-05 0.000561606)
(-0.00472372 0.0073473 -3.59587e-05 0.00487002 -3.11166e-05 0.000428824)
(0.000703356 0.00741457 -4.40497e-05 -0.00245553 1.65511e-05 0.000350704)
(0.00556037 0.00335766 -2.11006e-05 -0.00904918 6.29341e-05 0.000232118)
(-0.00770161 0.00258099 3.41246e-06 0.00835378 -7.96488e-05 0.000820694)
(-0.00405144 0.00593101 -2.74031e-05 0.00373826 -2.93294e-05 0.000586897)
(-5.41279e-06 0.00604508 -3.47713e-05 -0.00136982 2.52299e-05 0.000398566)
(0.00347792 0.00278487 -1.6152e-05 -0.00580549 7.8331e-05 0.000174649)
(-0.00617554 0.00180447 5.70559e-06 0.00575929 -7.74007e-05 0.00108736)
(-0.00347222 0.00452198 -2.13863e-05 0.00275632 -2.67774e-05 0.000751114)
(-0.000552047 0.00471787 -2.77193e-05 -0.000548858 2.7156e-05 0.000453378)
(0.00182548 0.0021945 -1.21136e-05 -0.003179 8.17746e-05 0.00012146)
(-0.0051455 0.000926075 3.1615e-06 0.00406431 -6.73925e-05 0.00133947)
(-0.00315182 0.00317397 -2.46555e-05 0.00199805 -2.3389e-05 0.00091893)
(-0.000974828 0.00341581 -3.03626e-05 2.37251e-05 2.09759e-05 0.000538903)
(0.000693851 0.00158291 -1.28646e-05 -0.00132401 7.02415e-05 0.000116194)
(-0.00523341 0.000593841 -9.86624e-06 0.00317432 -4.07414e-05 0.00153273)
(-0.00388499 0.00188371 -4.53503e-05 0.00185747 -1.47167e-05 0.00107865)
(-0.00121809 0.00185056 -5.43756e-05 0.000422722 6.56315e-06 0.000683364)
(0.000340245 0.000810224 -2.95501e-05 -0.000488034 3.37144e-05 0.00022981)
)
;

boundaryField
{
    interface
    {
        type            calculated;
        value           nonuniform List<symmTensor> 
192
(
(-0.0250259 -8.52549e-06 0.000336454 0.0392456 0.00579314 -0.00338832)
(-0.011733 2.64099e-06 0.000566552 0.0210247 -0.00181653 -0.00506574)
(-0.0126261 5.14096e-06 0.000678625 0.0201794 -0.00112527 -0.00288336)
(-0.00987157 -1.20871e-05 0.000738784 0.0147675 -0.00165759 -0.00160636)
(-0.00792936 -6.06671e-05 0.000770516 0.0104016 -0.00155319 -0.000175327)
(-0.00621413 -0.000150363 0.0007752 0.00665885 -0.00135986 0.000965287)
(-0.00525301 -0.000310055 0.000743864 0.00428651 -0.00107578 0.00187368)
(-0.00472136 -0.00055472 0.000647895 0.00289055 -0.000573596 0.00255979)
(-0.0254069 1.54299e-05 0.000239859 0.0384506 0.00360407 -0.00223512)
(-0.0136414 3.55287e-05 0.000406653 0.0225566 -0.000648401 -0.00397187)
(-0.0128588 4.1449e-05 0.00048593 0.0201637 -0.00169217 -0.00280139)
(-0.0103163 1.55123e-05 0.000527442 0.0148642 -0.00217369 -0.00136642)
(-0.00827161 -5.00429e-05 0.000546652 0.0103127 -0.00218901 6.53035e-05)
(-0.00660908 -0.000167613 0.000544352 0.00655951 -0.00193638 0.00128775)
(-0.00565637 -0.000372041 0.000514818 0.00419347 -0.00148384 0.00224211)
(-0.00505548 -0.000660511 0.000443301 0.00284293 -0.0007981 0.00293794)
(-0.0263727 2.19921e-05 0.000171664 0.0388244 0.00179126 -0.00130189)
(-0.0142591 4.59842e-05 0.000289907 0.021858 -0.000419211 -0.00247913)
(-0.0133439 5.38824e-05 0.000341727 0.0199033 -0.00126095 -0.00195475)
(-0.0105879 2.41156e-05 0.00036604 0.0147833 -0.00170434 -0.00102944)
(-0.00836361 -5.12407e-05 0.000375409 0.0103559 -0.00178888 3.5603e-06)
(-0.00658778 -0.000185457 0.000371043 0.00671862 -0.00162489 0.000946975)
(-0.00557032 -0.00041393 0.000350569 0.00447716 -0.00126768 0.00171068)
(-0.00479209 -0.000718245 0.000306361 0.00311359 -0.000661068 0.00223449)
(-0.0269851 2.29969e-05 0.000125396 0.0390148 0.000753259 -0.000675235)
(-0.0147499 4.81843e-05 0.000212182 0.0213259 -0.000366653 -0.00130398)
(-0.0138309 5.68433e-05 0.000248431 0.0196055 -0.000889516 -0.00102033)
(-0.010963 2.47446e-05 0.000263931 0.0146625 -0.00120137 -0.000440979)
(-0.00861594 -5.68024e-05 0.000268931 0.0103858 -0.00129317 0.000258351)
(-0.00673992 -0.000201337 0.000265173 0.0068731 -0.0012087 0.00093471)
(-0.00565191 -0.000444066 0.000251943 0.00474238 -0.000978142 0.00150296)
(-0.00476755 -0.000755734 0.000223395 0.00339174 -0.000541526 0.00190309)
(-0.0273052 2.26631e-05 9.01893e-05 0.0390592 0.000235516 -0.00031227)
(-0.0150734 4.77698e-05 0.000153231 0.0210156 -0.000322859 -0.000576022)
(-0.014177 5.63367e-05 0.000179012 0.0193992 -0.000623573 -0.000361437)
(-0.0112614 2.25976e-05 0.000189428 0.0145626 -0.000814532 4.09648e-05)
(-0.00884665 -6.29059e-05 0.000192465 0.0103941 -0.000883381 0.000532828)
(-0.00690412 -0.000213931 0.000189922 0.00697045 -0.000845177 0.00102651)
(-0.00576514 -0.000465789 0.000181703 0.00491273 -0.000707784 0.00145936)
(-0.00480275 -0.000781814 0.000162785 0.00357137 -0.000405845 0.00176559)
(-0.0274609 2.20461e-05 6.1135e-05 0.0390406 1.62371e-05 -0.000110952)
(-0.0152717 4.66904e-05 0.000104222 0.0208442 -0.000254472 -0.000154719)
(-0.0144024 5.48854e-05 0.000121723 0.0192793 -0.00041834 5.01311e-05)
(-0.0114694 1.99933e-05 0.000128626 0.0145001 -0.000525867 0.000370133)
(-0.00902039 -6.80292e-05 0.000130592 0.0103935 -0.000569346 0.000750817)
(-0.00704047 -0.000223149 0.000129089 0.00702231 -0.000553469 0.00114022)
(-0.00587147 -0.000480954 0.000124162 0.0050077 -0.000475714 0.00149412)
(-0.00486782 -0.000799759 0.000111892 0.00367783 -0.000281352 0.00174868)
(-0.0275305 2.16238e-05 3.52625e-05 0.0390083 -4.17193e-05 -6.61737e-06)
(-0.0153819 4.57921e-05 6.03302e-05 0.0207544 -0.000162467 6.97075e-05)
(-0.014534 5.35849e-05 7.04428e-05 0.019217 -0.000242744 0.000279975)
(-0.0115963 1.7942e-05 7.44024e-05 0.0144672 -0.00029633 0.000564422)
(-0.00913117 -7.16098e-05 7.5547e-05 0.0103916 -0.000319525 0.00089136)
(-0.00713198 -0.000229229 7.4771e-05 0.00704679 -0.000313578 0.00122806)
(-0.00594698 -0.000490726 7.19293e-05 0.00505477 -0.00027425 0.00154099)
(-0.00492205 -0.000810875 6.45453e-05 0.00373284 -0.000166243 0.00176911)
(-0.0275557 2.13435e-05 1.14122e-05 0.0389871 -2.16063e-05 3.73656e-05)
(-0.0154298 4.5171e-05 1.95827e-05 0.0207158 -5.57621e-05 0.000165888)
(-0.0145933 5.27338e-05 2.28441e-05 0.019191 -7.97655e-05 0.0003812)
(-0.0116548 1.67971e-05 2.41162e-05 0.0144535 -9.5921e-05 0.00065275)
(-0.00918341 -7.34647e-05 2.44917e-05 0.0103904 -0.000103156 0.000958504)
(-0.00717621 -0.000232497 2.42484e-05 0.00705614 -0.000101699 0.0012739)
(-0.00598367 -0.000496058 2.32256e-05 0.00507314 -8.98202e-05 0.00157001)
(-0.00494896 -0.000815388 2.05701e-05 0.00375474 -5.55257e-05 0.00178756)
(-0.00694763 0.00813908 -0.000395084 0.0268289 -9.52459e-05 -0.0137609)
(-0.0123408 0.00370836 -0.000676764 0.014972 -0.000149554 -0.00209317)
(-0.0105335 0.00508278 -0.000817604 0.0154063 -0.000158505 -0.00344221)
(-0.0091616 0.00459125 -0.000906995 0.0114568 -0.000147539 -0.00161475)
(-0.00752051 0.00408838 -0.000976807 0.00835609 -0.000143377 -0.000571307)
(-0.00621667 0.00321806 -0.00103814 0.00558171 -0.000159402 0.000443806)
(-0.00535804 0.0021569 -0.00110964 0.00374426 -0.00019916 0.00109657)
(-0.00556615 0.00117743 -0.00125081 0.0026877 -0.000246097 0.00190258)
(-0.00251228 0.00643379 -0.00025221 0.00641885 -7.45211e-05 -0.00304393)
(-0.00534857 0.00965846 -0.000457678 0.00569468 -0.000137024 -0.000605007)
(-0.00556931 0.0102398 -0.000544287 0.00576348 -0.000162079 -0.000418188)
(-0.00509072 0.00959673 -0.000590656 0.0045437 -0.000149349 0.00014631)
(-0.00449984 0.00842704 -0.00062715 0.00347189 -0.000125571 0.000513324)
(-0.00396366 0.00683747 -0.0006681 0.0024812 -0.000108444 0.000839297)
(-0.00362763 0.00502116 -0.000735891 0.00177397 -0.000104916 0.00109004)
(-0.00421405 0.00281873 -0.000913669 0.00155154 -0.000102313 0.00162772)
(0.00131407 0.00583676 -0.000194441 -0.00776624 -4.97304e-05 0.00390742)
(0.00244468 0.00936726 -0.000379974 -0.00442224 -0.000111532 0.00094278)
(0.00179185 0.0102215 -0.000462081 -0.00413938 -0.000145956 0.00124223)
(0.00103871 0.00965004 -0.000502772 -0.00289531 -0.000138811 0.000963345)
(0.000416849 0.00852809 -0.00053177 -0.00194994 -0.000111718 0.000779665)
(-3.09108e-05 0.00700089 -0.000566671 -0.00116137 -8.34382e-05 0.000567432)
(-0.000339812 0.00519324 -0.000630784 -0.000579251 -6.26186e-05 0.000385896)
(-0.000272332 0.00278039 -0.0008049 -3.40784e-05 -4.52321e-05 -2.46336e-05)
(0.00546725 0.0066105 -0.000181981 -0.0270119 -4.21301e-05 0.0140272)
(0.00947125 0.0034242 -0.000378566 -0.0137342 -0.000105416 0.00250499)
(0.00713841 0.00510202 -0.000472958 -0.013861 -0.000142409 0.0041884)
(0.00547864 0.0047061 -0.000521503 -0.00981793 -0.000137771 0.00263984)
(0.00373324 0.00427655 -0.00055314 -0.00673286 -0.000109708 0.00177413)
(0.00241102 0.00352227 -0.000588441 -0.0040348 -7.62668e-05 0.000871168)
(0.00157069 0.00258091 -0.000650569 -0.00215774 -4.22225e-05 0.000184429)
(0.00156131 0.00126498 -0.000813415 -0.00100985 -1.63488e-06 -0.000577832)
(0.0223954 4.07372e-05 4.48948e-05 -0.0375013 -0.00699342 0.00361481)
(0.00942643 8.61156e-05 7.99653e-05 -0.0201594 0.00126625 0.00578647)
(0.00974686 0.000113893 8.50912e-05 -0.0187854 0.000740604 0.00400796)
(0.00671619 0.000111566 8.45252e-05 -0.0131661 0.00139048 0.00299455)
(0.0046114 9.20392e-05 9.19865e-05 -0.00870227 0.00138727 0.00173458)
(0.00281553 6.70375e-05 0.000112587 -0.00489845 0.0012898 0.000670055)
(0.00170882 2.64484e-05 0.000147339 -0.00226331 0.00102174 -0.000228184)
(0.00144779 -0.000137376 0.000189681 -0.000952526 0.000404552 -0.000939274)
(0.0221085 1.82728e-05 -9.502e-06 -0.0360605 -0.0047547 0.00255608)
(0.0110953 4.60538e-05 -1.51076e-05 -0.0218472 -6.77023e-05 0.00486697)
(0.00959441 6.76372e-05 -2.39321e-05 -0.0187794 0.00125497 0.00407808)
(0.00670961 7.27693e-05 -2.94039e-05 -0.0132198 0.00194153 0.00287509)
(0.0044512 6.73798e-05 -2.5581e-05 -0.00851387 0.00211667 0.00158691)
(0.00265816 5.92029e-05 -1.1559e-05 -0.0046351 0.00198749 0.000435362)
(0.00151854 4.04568e-05 9.64363e-06 -0.00192505 0.00158069 -0.000491983)
(0.00132931 -0.000103423 3.67286e-05 -0.000702422 0.000789708 -0.00120232)
(0.0228748 8.36492e-06 -1.91417e-05 -0.0362301 -0.00266795 0.00154889)
(0.0116776 2.69293e-05 -2.96162e-05 -0.021031 -0.00013278 0.00313527)
(0.0100643 4.5972e-05 -3.39699e-05 -0.0183452 0.000911554 0.00288302)
(0.00697875 5.66588e-05 -3.38487e-05 -0.0129662 0.0015349 0.00215244)
(0.00452227 6.14438e-05 -2.71841e-05 -0.0083594 0.00176986 0.0012568)
(0.00258453 6.48165e-05 -1.45476e-05 -0.00456864 0.00171889 0.000411156)
(0.00132786 5.87666e-05 3.30338e-07 -0.00192428 0.0014141 -0.000272391)
(0.000957331 -6.42667e-05 1.12542e-05 -0.000713675 0.000704128 -0.000703563)
(0.0233065 4.53817e-06 -1.79673e-05 -0.0362303 -0.00140456 0.000882132)
(0.0120883 1.84899e-05 -2.7292e-05 -0.0203833 -4.88432e-05 0.00184764)
(0.0104478 3.63927e-05 -2.83349e-05 -0.0178634 0.000628024 0.00179668)
(0.00724364 5.13365e-05 -2.49655e-05 -0.0126491 0.00108063 0.00140483)
(0.00464675 6.39382e-05 -1.71924e-05 -0.00817936 0.00129485 0.000856707)
(0.0025863 7.61998e-05 -6.31693e-06 -0.00449737 0.00130006 0.000307255)
(0.00121824 7.71573e-05 4.0342e-06 -0.00191994 0.00110371 -0.000135809)
(0.000730274 -3.30667e-05 6.94965e-06 -0.000754026 0.000564264 -0.000354885)
(0.0234723 3.08349e-06 -1.38489e-05 -0.0360991 -0.000702478 0.000487896)
(0.0123337 1.51305e-05 -2.07041e-05 -0.0199674 1.51014e-05 0.00104793)
(0.0106866 3.30553e-05 -1.99522e-05 -0.0174975 0.000433787 0.00105453)
(0.00742266 5.12891e-05 -1.55276e-05 -0.0123728 0.000730313 0.000840698)
(0.00474436 6.93553e-05 -8.43037e-06 -0.00800288 0.000890025 0.000515205)
(0.00260013 8.72778e-05 -3.16601e-07 -0.00440421 0.000914788 0.000177425)
(0.00114976 9.23188e-05 5.5919e-06 -0.00188009 0.000794318 -8.59134e-05)
(0.000585514 -9.95776e-06 4.90762e-06 -0.000756396 0.000410913 -0.000154313)
(0.023508 2.6896e-06 -9.21134e-06 -0.0359383 -0.000329103 0.000263891)
(0.012466 1.42749e-05 -1.34861e-05 -0.0197075 4.0549e-05 0.00057954)
(0.0108212 3.28037e-05 -1.20813e-05 -0.0172508 0.000288526 0.000595135)
(0.00752869 5.33911e-05 -8.05488e-06 -0.0121713 0.000469642 0.000469189)
(0.00480558 7.48838e-05 -2.60584e-06 -0.00785898 0.000574437 0.00026948)
(0.00261159 9.60142e-05 2.74599e-06 -0.0043138 0.000598048 6.15454e-05)
(0.00110975 0.000103148 5.67974e-06 -0.00182652 0.000526502 -8.67409e-05)