/*--------------------------------*- C++ -*----------------------------------*\
| =========                 |                                                 |
| \\      /  F ield         | foam-extend: Open Source CFD                    |
|  \\    /   O peration     | Version:     3.1                                |
|   \\  /    A nd           | Web:         http://www.extend-project.de       |
|    \\/     M anipulation  |                                                 |
\*---------------------------------------------------------------------------*/
FoamFile
{
    version     2.0;
    format      ascii;
    class       pointVectorField;
    location    "3";
    object      pointD;
}
// * * * * * * * * * * * * * * * * * * * * * * * * * * * * * * * * * * * * * //

dimensions      [0 1 0 0 0 0 0];

internalField   nonuniform List<vector> 
405
(
(0 0 0)
(0 0 0)
(0 0 0)
(0 0 0)
(0 0 0)
(0.00091693 0.00096824 0.000400234)
(0.000564006 0.000330189 0.000249913)
(0.000436248 -2.07205e-05 -2.38011e-05)
(0.000499837 -0.000379033 -0.000304905)
(0.000768156 -0.00101316 -0.000478754)
(0.00183494 0.00142519 0.00026717)
(0.00154404 0.000580331 0.00016301)
(0.00139214 -2.43304e-05 -4.45291e-05)
(0.00143879 -0.000633106 -0.000265476)
(0.00161898 -0.00148319 -0.000408914)
(0.00306968 0.00189266 0.000149176)
(0.0027935 0.000816142 8.68065e-05)
(0.00264353 -3.51099e-05 -6.50612e-05)
(0.00266347 -0.000891331 -0.00023053)
(0.0028009 -0.00198177 -0.000337963)
(0.00446225 0.00221756 -8.0965e-06)
(0.00422419 0.000981337 -7.19571e-06)
(0.00408259 -5.58071e-05 -8.2449e-05)
(0.00407792 -0.00109736 -0.000171697)
(0.00415894 -0.0023471 -0.000217995)
(0.00596345 0.00243393 -0.000155811)
(0.00575686 0.00108912 -9.47114e-05)
(0.00562376 -8.46542e-05 -9.82003e-05)
(0.0056 -0.00126023 -0.000115149)
(0.00563776 -0.00261307 -0.000100346)
(0.00750583 0.00255638 -0.000283374)
(0.00732401 0.00114832 -0.000171462)
(0.00719865 -0.00011861 -0.000114318)
(0.00716129 -0.00138295 -6.81365e-05)
(0.00716789 -0.00278877 2.21736e-06)
(0.00904879 0.00262113 -0.000384331)
(0.00887932 0.00117442 -0.000237705)
(0.00875511 -0.000152917 -0.000133461)
(0.00870836 -0.00147408 -3.6963e-05)
(0.00869972 -0.00290084 7.54018e-05)
(0.0105882 0.00264968 -0.000448006)
(0.0103924 0.00118694 -0.000284811)
(0.0102321 -0.000177315 -0.000152887)
(0.0101927 -0.00153917 -2.94987e-05)
(0.0101969 -0.00297535 0.000101176)
(0 0 0)
(0 0 0)
(0 0 0)
(0 0 0)
(0 0 0)
(0.000988383 0.000918175 0.000230453)
(0.000649824 0.000292091 0.000143083)
(0.000546855 -1.11876e-05 -1.94291e-05)
(0.000597585 -0.000314119 -0.000190855)
(0.000854083 -0.000932102 -0.000298479)
(0.00190947 0.00146817 0.000182804)
(0.00163785 0.000614459 0.000108485)
(0.00151578 -1.82357e-05 -3.90253e-05)
(0.00154936 -0.000651887 -0.000197752)
(0.00171733 -0.00151046 -0.000301065)
(0.00309965 0.00194157 8.89716e-05)
(0.0028476 0.000857763 4.8359e-05)
(0.00272784 -2.91172e-05 -5.60101e-05)
(0.0027367 -0.000918871 -0.000172207)
(0.0028586 -0.00201535 -0.000246093)
(0.00444354 0.00227507 -2.83889e-05)
(0.00422705 0.00103021 -2.19876e-05)
(0.00411327 -4.76174e-05 -7.10778e-05)
(0.00410024 -0.0011283 -0.000132342)
(0.0041686 -0.00238534 -0.000160457)
(0.00589222 0.00248921 -0.000144494)
(0.0057054 0.00113769 -9.08827e-05)
(0.005598 -7.25622e-05 -8.53164e-05)
(0.00556793 -0.00128377 -9.14404e-05)
(0.00559479 -0.00264204 -7.12862e-05)
(0.00738802 0.0026063 -0.000246918)
(0.00722364 0.00119374 -0.000152518)
(0.00712156 -0.000101687 -0.000100406)
(0.00707947 -0.00139438 -5.81537e-05)
(0.00707696 -0.00280346 6.45083e-06)
(0.00889386 0.00266244 -0.000328017)
(0.0087393 0.00121303 -0.000204916)
(0.00863568 -0.000131762 -0.0001184)
(0.00858636 -0.00146987 -3.96112e-05)
(0.00857087 -0.00289669 5.92736e-05)
(0.0104158 0.00268455 -0.000377621)
(0.0102338 0.0012199 -0.000241497)
(0.0100927 -0.000154284 -0.000137376)
(0.0100507 -0.00152466 -4.27956e-05)
(0.0100484 -0.00295849 6.9544e-05)
(0 0 0)
(0 0 0)
(0 0 0)
(0 0 0)
(0 0 0)
(0.00104006 0.000927909 0.000118544)
(0.000682739 0.000291896 7.20273e-05)
(0.000573593 -7.70299e-06 -1.72494e-05)
(0.000628651 -0.00030693 -0.00011292)
(0.000897568 -0.000938813 -0.000170857)
(0.0019666 0.00145985 9.56051e-05)
(0.00167787 0.000615364 5.2349e-05)
(0.00154876 -1.27239e-05 -3.43212e-05)
(0.00158901 -0.000642375 -0.000128317)
(0.0017717 -0.0014959 -0.000186024)
(0.00313173 0.00193003 3.58207e-05)
(0.00287323 0.000863215 1.19693e-05)
(0.00275087 -2.18353e-05 -4.93646e-05)
(0.00276185 -0.000910134 -0.000118156)
(0.00288832 -0.00199103 -0.000157731)
(0.00444505 0.00226428 -4.36222e-05)
(0.00422481 0.00103873 -3.78318e-05)
(0.00410992 -3.76209e-05 -6.29081e-05)
(0.00409708 -0.00111682 -9.54471e-05)
(0.00416715 -0.00235462 -0.00010531)
(0.00585848 0.0024816 -0.000126009)
(0.00567026 0.00114933 -8.84454e-05)
(0.0055628 -5.92982e-05 -7.59197e-05)
(0.00553139 -0.00126829 -7.03444e-05)
(0.00555709 -0.00260572 -4.7211e-05)
(0.00732074 0.0026041 -0.000201159)
(0.00715612 0.00120804 -0.000134956)
(0.00705485 -8.50813e-05 -8.98383e-05)
(0.00701039 -0.00137398 -5.03721e-05)
(0.00700474 -0.00276307 3.95945e-06)
(0.00879811 0.00266829 -0.000262061)
(0.00864469 0.00122948 -0.000174774)
(0.00854263 -0.000112347 -0.000106459)
(0.00849013 -0.00144474 -4.249e-05)
(0.00846969 -0.00285406 3.679e-05)
(0.0103042 0.00269654 -0.000297327)
(0.0101244 0.00123789 -0.000201604)
(0.00998448 -0.000132789 -0.000125177)
(0.0099361 -0.00149557 -5.56521e-05)
(0.00992599 -0.00291359 3.12979e-05)
(0 0 0)
(0 0 0)
(0 0 0)
(0 0 0)
(0 0 0)
(0.00106482 0.000934043 5.34008e-05)
(0.000692847 0.000292183 3.21523e-05)
(0.000576885 -5.72691e-06 -1.47722e-05)
(0.000634658 -0.000303596 -6.55809e-05)
(0.000913797 -0.000941558 -9.34751e-05)
(0.00199229 0.00144964 3.66126e-05)
(0.00169018 0.000612201 1.75895e-05)
(0.00155294 -8.26478e-06 -2.90968e-05)
(0.00159669 -0.000630772 -8.01203e-05)
(0.00178989 -0.00147864 -0.000106901)
(0.00314616 0.00191206 -3.04418e-06)
(0.00287759 0.000859631 -1.04282e-05)
(0.00274862 -1.47268e-05 -4.19733e-05)
(0.00276145 -0.000892634 -7.76788e-05)
(0.00289574 -0.0019597 -9.29398e-05)
(0.00444028 0.00224436 -5.62711e-05)
(0.00421366 0.00103649 -4.53148e-05)
(0.00409362 -2.75502e-05 -5.37576e-05)
(0.00408097 -0.00109435 -6.61593e-05)
(0.00415541 -0.00231409 -6.2646e-05)
(0.00583117 0.00246409 -0.000113207)
(0.00563944 0.00115008 -8.16337e-05)
(0.00552797 -4.60503e-05 -6.52475e-05)
(0.00549545 -0.00124189 -5.23412e-05)
(0.00552249 -0.00255953 -2.7171e-05)
(0.0072708 0.00259252 -0.000166703)
(0.00710473 0.00121283 -0.000115904)
(0.00700045 -6.87226e-05 -7.76674e-05)
(0.00695383 -0.00134457 -4.19811e-05)
(0.0069469 -0.00271414 4.29713e-06)
(0.00872809 0.00266576 -0.000211201)
(0.00857519 0.00123887 -0.000145765)
(0.00847074 -9.32073e-05 -9.25825e-05)
(0.00841474 -0.00141322 -4.11518e-05)
(0.00839017 -0.00280429 2.25448e-05)
(0.0102214 0.00270315 -0.00023682)
(0.0100431 0.00125239 -0.000166234)
(0.00989986 -0.000111056 -0.000110175)
(0.00984458 -0.00146301 -5.80832e-05)
(0.00982712 -0.0028643 9.93594e-06)
(0 0 0)
(0 0 0)
(0 0 0)
(0 0 0)
(0 0 0)
(0.0010751 0.000935882 1.96266e-05)
(0.000693756 0.000292182 1.15332e-05)
(0.000573187 -4.20626e-06 -1.18321e-05)
(0.000632006 -0.000300544 -3.74284e-05)
(0.000916918 -0.000939045 -4.93881e-05)
(0.0020012 0.00144178 5.1413e-06)
(0.00168941 0.00060963 -3.65717e-07)
(0.00154643 -4.38021e-06 -2.33372e-05)
(0.00159142 -0.000620441 -4.88529e-05)
(0.00179112 -0.00146303 -5.86945e-05)
(0.00314791 0.00189822 -2.26214e-05)
(0.00287085 0.000855994 -2.03593e-05)
(0.00273668 -8.20556e-06 -3.38274e-05)
(0.00275016 -0.000875928 -4.95931e-05)
(0.00288988 -0.00193278 -5.14111e-05)
(0.00443027 0.0022282 -5.87573e-05)
(0.00419724 0.00103346 -4.48255e-05)
(0.00407284 -1.82446e-05 -4.35673e-05)
(0.00406004 -0.00107248 -4.43656e-05)
(0.00413802 -0.00227866 -3.40266e-05)
(0.00580693 0.00244913 -9.78258e-05)
(0.00561076 0.00114919 -7.0603e-05)
(0.00549574 -3.39128e-05 -5.32094e-05)
(0.00546234 -0.00121618 -3.7485e-05)
(0.0054909 -0.00251856 -1.30557e-05)
(0.00723162 0.00258155 -0.000135417)
(0.00706272 0.00121519 -9.5464e-05)
(0.00695559 -5.38855e-05 -6.37478e-05)
(0.00690737 -0.0013162 -3.30561e-05)
(0.00690003 -0.00267007 5.40843e-06)
(0.00867486 0.002661 -0.000167483)
(0.00852052 0.00124505 -0.000117545)
(0.00841353 -7.59192e-05 -7.64248e-05)
(0.00835487 -0.00138312 -3.58519e-05)
(0.00832783 -0.00275867 1.44429e-05)
(0.0101578 0.00270454 -0.00018561)
(0.00997848 0.00126265 -0.000132698)
(0.00983162 -9.13221e-05 -9.1527e-05)
(0.0097713 -0.00143182 -5.25602e-05)
(0.00974926 -0.00281822 9.75347e-09)
(0 0 0)
(0 0 0)
(0 0 0)
(0 0 0)
(0 0 0)
(0.00107847 0.000935668 4.01054e-06)
(0.000691698 0.000292101 2.05461e-06)
(0.000568239 -2.96167e-06 -8.74633e-06)
(0.000627297 -0.000297844 -2.07855e-05)
(0.000914946 -0.000934631 -2.49995e-05)
(0.00200211 0.0014362 -8.05258e-06)
(0.0016841 0.000608152 -7.37789e-06)
(0.00153737 -1.10033e-06 -1.73882e-05)
(0.00158264 -0.000612255 -2.88792e-05)
(0.00178594 -0.00145028 -3.07177e-05)
(0.00314354 0.00188907 -2.75049e-05)
(0.0028606 0.000853883 -2.14455e-05)
(0.00272287 -2.66551e-06 -2.53582e-05)
(0.0027364 -0.00086261 -3.05386e-05)
(0.00287933 -0.00191214 -2.67027e-05)
(0.00441828 0.00221746 -5.18322e-05)
(0.0041804 0.00103176 -3.82367e-05)
(0.0040529 -1.03836e-05 -3.28453e-05)
(0.00403982 -0.00105484 -2.85189e-05)
(0.00412005 -0.00225155 -1.67487e-05)
(0.00578576 0.00243894 -7.8132e-05)
(0.00558591 0.00114894 -5.60057e-05)
(0.0054683 -2.37679e-05 -4.03543e-05)
(0.00543426 -0.00119522 -2.54896e-05)
(0.0054639 -0.00248679 -4.63488e-06)
(0.00720051 0.00257366 -0.000103843)
(0.00702896 0.00121715 -7.34112e-05)
(0.0069197 -4.16212e-05 -4.86319e-05)
(0.00687042 -0.00129289 -2.42182e-05)
(0.00686294 -0.00263525 5.77263e-06)
(0.0086338 0.00265681 -0.000126196)
(0.00847772 0.0012496 -8.90985e-05)
(0.00836874 -6.17515e-05 -5.85665e-05)
(0.00830833 -0.00135824 -2.81295e-05)
(0.00827987 -0.00272189 9.65917e-06)
(0.0101085 0.00270427 -0.000138777)
(0.0099275 0.00127011 -9.99415e-05)
(0.00977778 -7.51742e-05 -7.03542e-05)
(0.00971423 -0.0014058 -4.20464e-05)
(0.00968951 -0.00278046 -3.09442e-06)
(0 0 0)
(0 0 0)
(0 0 0)
(0 0 0)
(0 0 0)
(0.00107904 0.000934825 -1.53737e-06)
(0.000689306 0.000292037 -1.23853e-06)
(0.000564121 -2.02184e-06 -5.72297e-06)
(0.000623106 -0.000295763 -1.08562e-05)
(0.000911873 -0.000930457 -1.1807e-05)
(0.00200027 0.0014325 -1.02415e-05)
(0.00167852 0.000607446 -7.84169e-06)
(0.00152949 1.39215e-06 -1.1483e-05)
(0.00157467 -0.000606401 -1.59439e-05)
(0.00177983 -0.00144095 -1.49442e-05)
(0.00313786 0.00188347 -2.2811e-05)
(0.00285121 0.000852956 -1.69192e-05)
(0.00271121 1.53416e-06 -1.68445e-05)
(0.00272461 -0.000853155 -1.74431e-05)
(0.00286928 -0.00189771 -1.27364e-05)
(0.00440761 0.00221102 -3.80271e-05)
(0.00416651 0.00103119 -2.75254e-05)
(0.004037 -4.4657e-06 -2.19256e-05)
(0.00402365 -0.00104227 -1.68615e-05)
(0.00410516 -0.00223276 -7.2782e-06)
(0.00576924 0.00243276 -5.44193e-05)
(0.00556681 0.00114931 -3.87592e-05)
(0.00544748 -1.6199e-05 -2.70699e-05)
(0.005413 -0.00118017 -1.57418e-05)
(0.00544331 -0.00246459 -6.62563e-07)
(0.00717754 0.00256871 -7.05935e-05)
(0.007004 0.00121889 -4.98717e-05)
(0.0068933 -3.25531e-05 -3.27715e-05)
(0.00684336 -0.00127603 -1.57839e-05)
(0.00683584 -0.00261061 4.8328e-06)
(0.00860409 0.00265386 -8.48238e-05)
(0.00844653 0.00125294 -5.99843e-05)
(0.00833618 -5.13523e-05 -3.95896e-05)
(0.00827472 -0.0013401 -1.91681e-05)
(0.00824552 -0.00269549 6.19795e-06)
(0.0100729 0.00270355 -9.28341e-05)
(0.00989027 0.00127525 -6.70204e-05)
(0.00973856 -6.33675e-05 -4.76154e-05)
(0.00967309 -0.00138666 -2.89514e-05)
(0.00964697 -0.00275296 -3.02329e-06)
(0 0 0)
(0 0 0)
(0 0 0)
(0 0 0)
(0 0 0)
(0.0010788 0.000934096 -1.86824e-06)
(0.000687624 0.000292 -1.30444e-06)
(0.000561526 -1.43672e-06 -2.82025e-06)
(0.000620386 -0.000294462 -4.61304e-06)
(0.000909528 -0.000927626 -4.60301e-06)
(0.00199834 0.00143038 -6.42545e-06)
(0.00167464 0.000607161 -4.7087e-06)
(0.00152436 2.94522e-06 -5.69799e-06)
(0.00156941 -0.000602899 -7.05244e-06)
(0.00177542 -0.00143527 -5.96152e-06)
(0.00313356 0.00188047 -1.26309e-05)
(0.0028449 0.000852649 -9.18105e-06)
(0.00270366 4.14459e-06 -8.39322e-06)
(0.00271691 -0.000847539 -7.89768e-06)
(0.00286243 -0.00188919 -4.96325e-06)
(0.00440043 0.00220765 -1.99958e-05)
(0.00415753 0.00103114 -1.43367e-05)
(0.0040269 -8.05106e-07 -1.09616e-05)
(0.00401336 -0.0010348 -7.81074e-06)
(0.00409551 -0.00222173 -2.53617e-06)
(0.00575874 0.00242953 -2.7906e-05)
(0.00555482 0.0011498 -1.97963e-05)
(0.00543453 -1.15449e-05 -1.35766e-05)
(0.00539978 -0.0011712 -7.49806e-06)
(0.00543044 -0.00245154 3.83761e-07)
(0.00716335 0.00256605 -3.57478e-05)
(0.00698862 0.00122012 -2.52255e-05)
(0.0068771 -2.70095e-05 -1.64829e-05)
(0.00682681 -0.00126592 -7.76753e-06)
(0.00681929 -0.00259602 2.7398e-06)
(0.00858594 0.00265216 -4.26901e-05)
(0.00842745 0.00125501 -3.01917e-05)
(0.00831633 -4.50239e-05 -1.99477e-05)
(0.00825431 -0.00132917 -9.67408e-06)
(0.00822477 -0.00267971 3.08769e-06)
(0.0100511 0.00270293 -4.66066e-05)
(0.00986752 0.00127827 -3.36633e-05)
(0.00971466 -5.61959e-05 -2.39993e-05)
(0.00964818 -0.00137504 -1.46868e-05)
(0.00962138 -0.00273639 -1.69885e-06)
(0 0 0)
(0 0 0)
(0 0 0)
(0 0 0)
(0 0 0)
(0.00107864 0.000933821 -0)
(0.000687031 0.000291989 -0)
(0.000560648 -1.23823e-06 0)
(0.000619454 -0.000294021 0)
(0.000908677 -0.000926636 0)
(0.00199758 0.00142969 -0)
(0.00167327 0.000607089 0)
(0.00152261 3.47204e-06 -0)
(0.0015676 -0.000601734 0)
(0.00177384 -0.00143337 0)
(0.00313199 0.00187953 -0)
(0.0028427 0.000852587 0)
(0.00270107 5.02903e-06 0)
(0.00271426 -0.000845678 0)
(0.00286002 -0.00188637 0)
(0.00439791 0.0022066 -0)
(0.00415444 0.00103118 0)
(0.00402345 4.32248e-07 0)
(0.00400984 -0.00103232 0)
(0.00409219 -0.0022181 0)
(0.00575514 0.00242853 -0)
(0.00555073 0.00115001 0)
(0.00543014 -9.97613e-06 0)
(0.00539531 -0.00116822 0)
(0.00542607 -0.00244724 0)
(0.00715853 0.00256522 -0)
(0.00698342 0.00122056 0)
(0.00687164 -2.51458e-05 0)
(0.00682123 -0.00126256 0)
(0.00681372 -0.00259119 0)
(0.00857981 0.00265159 -0)
(0.00842102 0.00125571 0)
(0.00830965 -4.28999e-05 0)
(0.00824746 -0.00132552 0)
(0.00821782 -0.00267448 0)
(0.0100438 0.00270266 -0)
(0.00985984 0.00127927 -0)
(0.00970663 -5.37878e-05 0)
(0.00963982 -0.00137115 0)
(0.00961283 -0.00273087 0)
)
;

boundaryField
{
    interface
    {
        type            calculated;
    }
    symmetry
    {
        type            symmetryPlane;
    }
    bottom
    {
        type            fixedValue;
        value           uniform (0 0 0);
    }
}


// ************************************************************************* //
