/*--------------------------------*- C++ -*----------------------------------*\
| =========                 |                                                 |
| \\      /  F ield         | foam-extend: Open Source CFD                    |
|  \\    /   O peration     | Version:     3.1                                |
|   \\  /    A nd           | Web:         http://www.extend-project.de       |
|    \\/     M anipulation  |                                                 |
\*---------------------------------------------------------------------------*/
FoamFile
{
    version     2.0;
    format      ascii;
    class       volSymmTensorField;
    location    "3";
    object      sigma;
}
// * * * * * * * * * * * * * * * * * * * * * * * * * * * * * * * * * * * * * //

dimensions      [1 -1 -2 0 0 0 0];

internalField   nonuniform List<symmTensor> 
256
(
(185.25 64.2605 -2.84773 419.17 33.4065 214.161)
(24.7995 54.7246 -8.55786 85.1015 11.6068 33.7395)
(-57.7441 51.0319 -8.74873 -116.096 -16.4781 -57.6625)
(-208.835 54.23 -3.55326 -429.76 -40.3437 -225.935)
(-78.7618 26.8276 -3.30624 125.97 -10.7068 -22.5274)
(-33.5394 70.4406 -13.5179 46.5846 -4.77655 -9.83262)
(-1.51144 68.9583 -13.9835 -54.6694 2.51666 -3.18906)
(41.8701 25.8406 -4.91603 -135.542 7.59621 9.71378)
(-28.8271 32.7912 -1.34246 154.023 -5.89221 26.398)
(-34.576 68.1377 -9.2671 42.2741 -2.42693 -4.69227)
(-7.30769 68.1632 -9.6096 -48.9112 0.287882 -8.34007)
(-6.94001 33.1127 -2.97827 -156.286 3.48552 -32.5972)
(-40.4185 28.7454 -1.32643 104.294 -8.41944 12.2073)
(-35.4201 62.1857 -7.62254 29.3368 -2.93092 -5.69425)
(-6.85573 62.5788 -7.872 -34.2486 1.21479 -4.60157)
(4.61005 29.5654 -3.09573 -103.635 6.6114 -14.8491)
(-36.9435 24.964 -0.938277 72.8191 -7.74385 12.3883)
(-33.2378 53.6052 -6.10876 19.4308 -2.54141 -4.18563)
(-8.23753 54.2505 -6.32224 -24.0074 1.18369 -4.1617)
(1.73328 26.1878 -2.72546 -70.6685 6.48207 -12.5884)
(-37.3356 19.3065 -1.00339 43.2193 -6.7722 9.48853)
(-31.8805 43.0623 -5.29246 10.1175 -2.22758 -3.70721)
(-8.7465 44.0685 -5.38442 -15.5019 1.06442 -3.62534)
(2.3328 21.2596 -2.62806 -40.8735 5.98219 -8.68176)
(-36.4252 12.5388 -1.53511 24.8325 -5.60697 9.97072)
(-31.9539 31.415 -5.03776 2.79722 -2.16649 -3.48605)
(-9.21794 32.4846 -4.90819 -9.52004 0.673325 -3.78326)
(3.12943 15.4177 -2.72545 -20.2628 4.72369 -7.21948)
(-47.5379 7.0621 -2.14356 8.36251 -3.1255 4.8375)
(-44.7801 17.8787 -4.77215 -6.94791 -1.41511 -9.85592)
(-3.47104 17.4896 -4.71579 -0.790622 -0.0744082 -0.103233)
(10.1678 7.62206 -3.19564 -5.75655 1.70911 -4.45669)
(186.687 73.0033 -1.77727 415.478 20.5604 222.59)
(30.496 65.7526 -6.86103 88.117 6.53857 40.5618)
(-52.5134 62.5632 -7.48246 -103.784 -11.7415 -54.5027)
(-200.811 63.4319 -3.24873 -411.406 -27.5719 -224.307)
(-45.1075 27.5551 -2.5448 170.632 -4.119 17.6495)
(-10.3892 72.6441 -12.626 72.2256 -2.70917 12.7199)
(-22.3301 71.814 -13.9439 -79.9795 -1.01787 -25.4777)
(7.38541 27.6153 -5.66179 -181.9 -0.355207 -30.712)
(-22.8897 28.7811 -0.996346 159.223 -9.28055 31.285)
(-22.9344 62.4651 -9.96732 50.9079 -3.83298 3.08262)
(-13.2629 62.6537 -11.3684 -54.7019 1.44006 -13.6855)
(-10.4971 29.1297 -4.56458 -160.006 6.51723 -35.4459)
(-29.7137 23.9067 0.165157 113.325 -11.4976 21.3916)
(-23.1022 53.9887 -7.07665 38.077 -4.10703 2.25016)
(-12.5096 54.3802 -8.53196 -39.1619 2.62829 -10.0854)
(-3.30069 24.6165 -3.74496 -110.437 9.93405 -22.018)
(-29.1393 19.6753 1.22246 77.6561 -11.4362 18.3936)
(-22.75 44.8066 -4.77357 25.9256 -3.84705 1.69002)
(-11.4812 45.3773 -6.24707 -25.7699 3.00927 -7.33754)
(-3.07133 20.7436 -2.80622 -72.613 10.7966 -16.5355)
(-29.7176 14.5568 1.74485 47.6774 -10.0684 15.6326)
(-22.3575 35.1419 -3.25504 15.7169 -3.34561 1.3634)
(-10.7945 36.0378 -4.61802 -15.628 2.76312 -5.6599)
(-2.03887 16.3863 -2.12565 -41.5869 10.0532 -12.3733)
(-29.5993 8.6577 1.66185 28.4518 -7.8432 15.549)
(-24.0694 25.2486 -2.56586 6.82946 -2.83939 0.181738)
(-10.1611 26.2796 -3.72134 -8.3076 1.91874 -4.58977)
(0.0164311 11.6971 -1.74157 -19.1412 7.85888 -9.59128)
(-40.4579 5.21662 1.12577 12.6549 -4.32076 10.6166)
(-38.0472 14.7916 -2.5591 -3.59452 -1.77433 -7.14982)
(-5.52052 14.366 -3.91332 -0.823627 0.60737 -1.60771)
(5.69668 5.93732 -2.32769 -6.45061 3.73145 -7.8407)
(193.467 76.6344 -1.18421 425.992 10.1295 237.288)
(33.1933 68.5486 -4.38552 92.278 2.66946 46.4495)
(-52.9498 65.1231 -4.90266 -103.481 -7.32594 -57.5895)
(-207.191 66.2032 -2.27098 -419.283 -15.7903 -238.11)
(-45.7887 28.0695 -2.0596 171.844 -2.78895 30.5676)
(-8.63382 73.8102 -8.56092 76.2646 -2.17263 20.3617)
(-23.969 73.0199 -9.67862 -81.6427 -1.4053 -31.9153)
(5.31838 28.1289 -4.39572 -183.71 -0.999076 -46.1193)
(-23.5984 28.3545 -1.28186 161.267 -7.15491 39.5802)
(-22.232 61.9156 -7.42044 53.9121 -3.23361 8.21908)
(-14.235 62.0938 -8.63487 -56.0433 0.91254 -17.9764)
(-12.617 28.4871 -3.91243 -162.857 4.75021 -46.9001)
(-30.7322 23.0182 -0.344564 114.274 -9.32835 25.2818)
(-22.4401 51.9003 -5.42962 40.3214 -3.57041 5.81909)
(-13.3821 52.2709 -6.67347 -39.6271 2.28329 -12.5671)
(-5.63527 23.5923 -3.12017 -112.583 8.09394 -29.5432)
(-31.0354 18.3974 0.515419 77.4711 -9.6298 18.526)
(-22.1523 42.0999 -3.50963 27.8188 -3.39071 4.18649)
(-12.2331 42.6957 -4.74454 -25.6808 2.87343 -8.44402)
(-4.67758 19.4645 -2.26848 -73.4858 9.3439 -20.2458)
(-31.9391 13.1731 1.04431 47.0283 -8.66213 13.3636)
(-21.769 32.4067 -2.14775 17.3457 -2.93314 3.11793)
(-11.4191 33.4269 -3.28617 -15.0603 2.80227 -5.64666)
(-3.26549 15.2285 -1.57843 -41.6229 9.01504 -13.2486)
(-31.508 7.27831 1.09896 28.0921 -6.76506 12.0092)
(-23.5141 23.0058 -1.56322 8.20742 -2.36519 1.3228)
(-10.7858 24.2757 -2.57619 -7.49123 2.07751 -3.69447)
(-0.970169 10.8723 -1.23043 -18.5567 7.25497 -8.17958)
(-43.066 4.53708 0.586769 11.1763 -3.51541 4.88066)
(-38.0274 13.6705 -1.96709 -2.6754 -1.31455 -6.9017)
(-6.67677 13.3837 -3.2601 0.0339721 0.706851 0.179608)
(5.6022 5.62151 -2.01359 -4.34698 3.38132 -3.09432)
(196.993 77.9577 -0.651511 431.913 4.24742 246.125)
(34.1269 69.0339 -2.60961 94.321 0.662011 49.6114)
(-53.4458 65.3248 -2.95764 -103.543 -4.47366 -59.6856)
(-210.377 66.7929 -1.4101 -423.192 -8.59315 -246.201)
(-46.909 28.208 -1.23193 171.729 -2.34525 39.5515)
(-9.03845 74.3429 -5.3564 77.6104 -1.77933 24.4418)
(-24.4169 73.4966 -6.12705 -81.2171 -1.20944 -35.439)
(4.86745 28.2387 -2.89713 -183.111 -0.640492 -56.1142)
(-24.3024 28.4963 -0.909421 162.388 -5.12456 47.3445)
(-23.2388 62.201 -5.02175 55.0016 -2.44232 11.3075)
(-14.6375 62.3725 -5.86701 -55.7141 0.496945 -20.8108)
(-13.2564 28.5687 -2.7768 -163.026 3.23459 -55.5903)
(-31.5738 22.9741 -0.34643 115.44 -6.69103 30.3978)
(-23.4694 51.7666 -3.86314 41.3032 -2.66728 8.02464)
(-13.9299 52.1508 -4.7059 -39.2778 1.6407 -14.4556)
(-6.30169 23.5443 -2.26857 -112.828 5.7669 -35.6353)
(-31.8771 18.1795 0.24186 78.6691 -7.06659 21.1623)
(-23.1082 41.6407 -2.56583 28.7808 -2.54613 5.64941)
(-12.8697 42.2979 -3.37917 -25.2831 2.22472 -9.36342)
(-5.33784 19.3413 -1.64224 -73.6096 6.94704 -23.6244)
(-32.6979 12.8102 0.636284 48.3091 -6.52308 14.0705)
(-22.6067 31.7771 -1.59824 18.296 -2.22551 4.03147)
(-12.0646 32.934 -2.3333 -14.5679 2.26974 -5.66231)
(-3.91787 15.1119 -1.11192 -41.5707 6.93181 -14.2717)
(-31.8508 6.80557 0.675001 29.7584 -5.24623 11.5549)
(-24.2531 22.4081 -1.27321 9.128 -1.80622 1.84732)
(-11.5183 23.8711 -1.9354 -6.93593 1.73934 -2.92468)
(-1.66996 10.8182 -0.884992 -18.2307 5.73415 -7.20259)
(-43.3515 4.31622 0.140376 12.6638 -2.86947 3.43358)
(-38.9206 13.3451 -1.95369 -1.74455 -1.03783 -6.57377)
(-8.00228 13.1275 -2.86063 0.480618 0.61041 1.59355)
(4.76779 5.61116 -1.6799 -3.69809 2.72771 -0.243552)
(198.315 78.3199 -0.312421 434.422 1.31995 250.586)
(34.4788 68.7804 -1.46994 95.3847 -0.214172 51.3062)
(-53.6558 64.8553 -1.69046 -103.268 -2.68284 -60.7966)
(-211.301 66.6116 -0.821061 -423.87 -4.49732 -249.964)
(-47.906 28.1555 -0.63259 171.505 -1.98038 44.9105)
(-9.53372 74.4011 -3.15921 78.3432 -1.40467 26.7784)
(-24.7398 73.509 -3.6612 -80.5358 -0.908243 -37.5436)
(4.58534 28.1875 -1.76995 -182.341 -0.276988 -62.1994)
(-25.1856 28.6002 -0.522057 162.819 -3.59705 52.4367)
(-24.1103 62.4571 -3.16916 55.6494 -1.75313 13.2484)
(-15.0016 62.6423 -3.72666 -55.0766 0.25606 -22.6837)
(-13.4729 28.6776 -1.79597 -162.429 2.18853 -61.1828)
(-32.5027 23.0911 -0.21775 116.104 -4.56889 34.1962)
(-24.3624 52.0387 -2.55812 41.9916 -1.86101 9.52326)
(-14.3826 52.4552 -3.10202 -38.7192 1.0935 -15.8267)
(-6.56243 23.7076 -1.50618 -112.394 3.90288 -39.8857)
(-32.7389 18.2468 0.137226 79.5487 -4.86318 23.5086)
(-23.9429 41.8277 -1.77293 29.5199 -1.77425 6.71222)
(-13.368 42.5465 -2.28511 -24.7765 1.5639 -10.1084)
(-5.64456 19.5172 -1.10404 -73.2822 4.80846 -26.2061)
(-33.4527 12.7846 0.38031 49.3455 -4.58824 15.1592)
(-23.3386 31.8488 -1.17724 19.0712 -1.5739 4.76498)
(-12.5747 33.1091 -1.63097 -14.0872 1.64133 -5.77265)
(-4.24798 15.2858 -0.759785 -41.246 4.91243 -15.2209)
(-32.3231 6.67181 0.363065 31.0524 -3.80337 11.8465)
(-24.9327 22.3971 -1.07128 9.87987 -1.30798 2.34263)
(-12.1102 23.9808 -1.4806 -6.48233 1.27321 -2.4661)
(-2.03022 10.9782 -0.656473 -17.7725 4.14218 -6.68555)
(-44.0212 4.26507 -0.153681 13.6353 -2.14408 2.8061)
(-39.901 13.3329 -1.82571 -1.13349 -0.772826 -6.36597)
(-9.00513 13.1223 -2.4164 0.852492 0.433792 2.49106)
(4.30503 5.68023 -1.37058 -3.09127 1.97929 1.55058)
(198.671 78.3252 -0.123212 435.284 0.0819736 252.698)
(34.6072 68.378 -0.778018 95.9655 -0.46202 52.2021)
(-53.6681 64.303 -0.911126 -102.829 -1.54685 -61.3033)
(-211.248 66.2409 -0.448234 -423.195 -2.23522 -251.465)
(-48.5555 28.0334 -0.269213 171.387 -1.51984 47.9834)
(-9.90528 74.2456 -1.74456 78.815 -1.0194 28.0813)
(-24.9542 73.3233 -2.05522 -79.8917 -0.61511 -38.7582)
(4.33548 28.083 -1.00663 -181.676 -0.0618984 -65.7513)
(-25.8335 28.6269 -0.242655 163.083 -2.40346 55.5568)
(-24.7067 62.5636 -1.85535 56.1054 -1.17954 14.4084)
(-15.2853 62.7661 -2.20456 -54.4775 0.127095 -23.8584)
(-13.5907 28.7295 -1.06932 -161.769 1.42778 -64.5637)
(-33.1784 23.1843 -0.0911365 116.552 -2.95307 36.7245)
(-24.9779 52.2817 -1.56183 42.4943 -1.21485 10.4756)
(-14.7038 52.7289 -1.89743 -38.1778 0.683136 -16.731)
(-6.69709 23.8541 -0.918416 -111.84 2.50027 -42.5917)
(-33.3645 18.3429 0.104052 80.1654 -3.14176 25.272)
(-24.5181 42.0917 -1.12853 30.0687 -1.15298 7.44032)
(-13.7015 42.8589 -1.43899 -24.2925 1.01118 -10.632)
(-5.80002 19.7046 -0.684834 -72.8221 3.10727 -27.9584)
(-33.9929 12.831 0.234627 50.0859 -3.0101 16.2203)
(-23.8462 32.0565 -0.804061 19.6422 -1.03675 5.31827)
(-12.9096 33.3892 -1.0749 -13.656 1.07758 -5.88669)
(-4.42818 15.4775 -0.48679 -40.8378 3.21667 -15.977)
(-32.6806 6.63433 0.188188 31.957 -2.5551 12.4521)
(-25.4223 22.5176 -0.820975 10.4162 -0.881911 2.75744)
(-12.5078 24.179 -1.06534 -6.11339 0.836569 -2.21516)
(-2.23492 11.1423 -0.460452 -17.3258 2.74251 -6.51357)
(-44.4559 4.2475 -0.227375 14.4389 -1.48233 2.94833)
(-40.6232 13.3834 -1.46679 -0.692263 -0.537177 -6.13542)
(-9.68857 13.1668 -1.83519 1.13215 0.273282 2.96918)
(3.94236 5.73874 -1.01433 -2.69774 1.31423 2.38031)
(198.672 78.2417 -0.0368577 435.467 -0.242876 253.616)
(34.6506 68.0494 -0.366811 96.2805 -0.380062 52.6561)
(-53.6077 63.8804 -0.437858 -102.428 -0.795209 -61.4998)
(-210.927 65.921 -0.217435 -422.283 -1.00031 -251.939)
(-48.9484 27.9196 -0.090763 171.319 -0.956627 49.6035)
(-10.1411 74.0606 -0.852503 79.112 -0.619172 28.764)
(-25.0755 73.1203 -1.02144 -79.4052 -0.352532 -39.4096)
(4.15911 27.988 -0.504412 -181.183 0.0189411 -67.6767)
(-26.2508 28.6146 -0.0904167 163.242 -1.38859 57.2837)
(-25.0667 62.5767 -0.949717 56.4122 -0.682064 15.0495)
(-15.4702 62.793 -1.1414 -54.0362 0.0577996 -24.5343)
(-13.6592 28.7415 -0.554494 -161.26 0.813301 -66.4471)
(-33.6133 23.2322 -0.0236654 116.829 -1.66216 38.2016)
(-25.3504 52.4222 -0.826127 42.832 -0.686497 11.0282)
(-14.9029 52.8915 -1.00868 -37.7734 0.372556 -17.2678)
(-6.77258 23.9436 -0.48527 -111.398 1.3966 -44.1556)
(-33.7723 18.4068 0.070164 80.5374 -1.76311 26.3794)
(-24.8658 42.2765 -0.617344 30.4321 -0.648662 7.88997)
(-13.8996 43.0757 -0.784439 -23.9288 0.562671 -10.9539)
(-5.87981 19.8315 -0.367678 -72.4361 1.73874 -29.0159)
(-34.3496 12.8704 0.129489 50.5246 -1.70534 16.9737)
(-24.1542 32.2189 -0.466004 20.0115 -0.58909 5.6864)
(-13.1049 33.5968 -0.610394 -13.3379 0.603934 -5.96969)
(-4.52172 15.6106 -0.270066 -40.4962 1.81107 -16.4829)
(-32.9359 6.62096 0.0849833 32.4842 -1.47125 12.972)
(-25.725 22.6195 -0.515488 10.755 -0.50982 3.05564)
(-12.7434 24.3267 -0.645796 -5.85332 0.467419 -2.08997)
(-2.34048 11.2537 -0.275122 -16.9819 1.55237 -6.49407)
(-44.7581 4.24202 -0.183296 14.9273 -0.873384 3.23358)
(-41.0857 13.4293 -0.941074 -0.419164 -0.31697 -5.9517)
(-10.1036 13.2022 -1.14355 1.32301 0.147685 3.19627)
(3.71567 5.77345 -0.623989 -2.43901 0.744333 2.7139)
(198.614 78.1799 -0.0066312 435.458 -0.124748 253.946)
(34.6627 67.8732 -0.106573 96.4209 -0.141908 52.8459)
(-53.5578 63.6589 -0.12884 -102.198 -0.244305 -61.559)
(-210.694 65.7454 -0.0643021 -421.709 -0.281242 -252.04)
(-49.133 27.8543 -0.0192819 171.285 -0.326369 50.2917)
(-10.2544 73.9469 -0.253156 79.2572 -0.207725 29.0544)
(-25.1283 72.9983 -0.306625 -79.1455 -0.11452 -39.6909)
(4.07005 27.9341 -0.152012 -180.92 0.015689 -68.5166)
(-26.4525 28.5989 -0.0214191 163.318 -0.455174 58.0415)
(-25.2352 62.5644 -0.289754 56.5677 -0.223488 15.3315)
(-15.5594 62.7881 -0.350713 -53.8047 0.01655 -24.8411)
(-13.6911 28.74 -0.170343 -160.988 0.264856 -67.2837)
(-33.823 23.2498 -0.00304473 116.962 -0.537448 38.8715)
(-25.5248 52.4807 -0.256848 43.002 -0.222261 11.2791)
(-14.9971 52.9612 -0.314641 -37.5606 0.118222 -17.516)
(-6.80724 23.9833 -0.150719 -111.161 0.449529 -44.8662)
(-33.9705 18.4357 0.0243747 80.7109 -0.56892 26.9031)
(-25.0286 42.3644 -0.195736 30.6121 -0.209496 8.10238)
(-13.991 43.1792 -0.248367 -23.7367 0.180213 -11.1054)
(-5.91386 19.892 -0.115371 -72.2239 0.559507 -29.5086)
(-34.5236 12.8891 0.0407542 50.7251 -0.552862 17.3542)
(-24.2985 32.2999 -0.152759 20.1911 -0.191267 5.86818)
(-13.1936 33.6991 -0.197995 -13.1708 0.193972 -6.01196)
(-4.56165 15.675 -0.0865254 -40.3079 0.584104 -16.7332)
(-33.0637 6.61482 0.0225821 32.7207 -0.481375 13.2575)
(-25.8678 22.6712 -0.176111 10.917 -0.167065 3.209)
(-12.8516 24.3986 -0.216876 -5.71909 0.149828 -2.03925)
(-2.38622 11.3065 -0.09189 -16.7995 0.501725 -6.51234)
(-44.9009 4.24172 -0.0704732 15.1542 -0.29101 3.42861)
(-41.3054 13.4551 -0.323931 -0.287793 -0.10512 -5.85081)
(-10.3007 13.2183 -0.388397 1.4194 0.0468796 3.28113)
(3.60205 5.78732 -0.211072 -2.31423 0.240817 2.81323)
)
;

boundaryField
{
    interface
    {
        type            calculated;
        value           nonuniform List<symmTensor> 
192
(
(-24.0216 -0.0608963 2.40324 435.06 41.3796 130.532)
(-23.4375 0.0188642 4.0468 210.546 -12.9752 24.186)
(-23.4741 0.0367212 4.84732 210.851 -8.03766 46.1171)
(-23.5176 -0.0863365 5.27703 152.475 -11.8399 35.5196)
(-23.8247 -0.433337 5.50369 107.111 -11.0942 31.5612)
(-24.2437 -1.07402 5.53714 67.7062 -9.71331 27.0379)
(-24.5618 -2.21468 5.31332 43.5777 -7.68412 26.3431)
(-23.3099 -3.96228 4.62782 31.0609 -4.09712 28.6983)
(-27.0705 0.110214 1.71328 429.054 25.7434 138.442)
(-26.8189 0.253777 2.90466 231.738 -4.63144 42.2491)
(-27.5117 0.296065 3.47093 208.363 -12.0869 44.3268)
(-28.2374 0.110802 3.76744 151.623 -15.5264 35.6901)
(-28.9921 -0.357449 3.90466 103.753 -15.6358 30.5573)
(-29.5193 -1.19724 3.88823 64.542 -13.8313 26.8866)
(-29.2711 -2.65743 3.67727 41.0848 -10.5989 27.1466)
(-25.7478 -4.71793 3.16644 30.6694 -5.70072 31.3481)
(-29.0934 0.157086 1.22617 436.601 12.7947 149.984)
(-28.7106 0.328459 2.07077 229.269 -2.99437 55.432)
(-29.5335 0.384874 2.4409 207.947 -9.00678 51.8178)
(-30.3986 0.172254 2.61457 150.824 -12.1738 37.8758)
(-31.228 -0.366005 2.68149 102.483 -12.7777 28.5375)
(-31.6583 -1.32469 2.65031 63.3874 -11.6064 22.1614)
(-30.9663 -2.95665 2.50406 40.8014 -9.05488 21.0408)
(-26.2866 -5.13032 2.18829 30.1826 -4.72191 23.9033)
(-30.5453 0.164264 0.895683 440.883 5.38042 157.383)
(-30.0416 0.344174 1.51559 227.643 -2.61895 66.0006)
(-30.8737 0.406023 1.7745 207.957 -6.35369 60.6302)
(-31.7559 0.176747 1.88522 151.283 -8.58124 43.4012)
(-32.5678 -0.405731 1.92093 103.159 -9.23692 30.82)
(-32.8868 -1.43812 1.8941 64.3492 -8.63355 21.9321)
(-31.8933 -3.1719 1.79959 42.3516 -6.98673 19.213)
(-26.5213 -5.3981 1.59568 31.7593 -3.86805 21.1261)
(-31.5841 0.161879 0.644209 442.448 1.68226 161.223)
(-31.0072 0.341213 1.0945 226.772 -2.30614 72.5455)
(-31.8249 0.402405 1.27866 208.005 -4.45409 66.8576)
(-32.6943 0.161412 1.35306 151.763 -5.81809 48.0371)
(-33.4718 -0.449328 1.37475 103.962 -6.30987 33.5244)
(-33.7032 -1.52808 1.35659 65.4008 -6.03698 22.9441)
(-32.5089 -3.32706 1.29788 43.7616 -5.0556 19.0947)
(-26.6738 -5.58439 1.16275 33.1413 -2.89889 20.243)
(-32.3109 0.157472 0.436679 442.7 0.115979 163.046)
(-31.6867 0.333503 0.74444 226.284 -1.81766 76.2916)
(-32.4887 0.392038 0.869452 208.095 -2.98814 70.7438)
(-33.3412 0.142809 0.918756 152.155 -3.7562 51.227)
(-34.089 -0.485923 0.932798 104.582 -4.06676 35.7053)
(-34.2596 -1.59392 0.922065 66.1889 -3.95335 24.174)
(-32.9342 -3.43538 0.886869 44.7741 -3.39796 19.6771)
(-26.7887 -5.71256 0.799226 34.2517 -2.00966 20.472)
(-32.7723 0.154456 0.251875 442.504 -0.297995 163.827)
(-32.1243 0.327087 0.43093 225.992 -1.16048 78.244)
(-32.9153 0.382749 0.503163 208.164 -1.73388 72.8991)
(-33.7557 0.128157 0.531446 152.412 -2.11664 53.1068)
(-34.4834 -0.511498 0.539621 104.965 -2.28232 37.1061)
(-34.616 -1.63735 0.534079 66.6609 -2.23984 25.0986)
(-33.2103 -3.50518 0.513781 45.3736 -1.95893 20.2752)
(-26.8733 -5.79197 0.461038 34.9473 -1.18745 20.9207)
(-32.9875 0.152454 0.081516 442.318 -0.154331 164.106)
(-32.3283 0.32265 0.139877 225.855 -0.398301 79.0694)
(-33.1103 0.37667 0.163172 208.206 -0.569754 73.8503)
(-33.9425 0.119979 0.172259 152.546 -0.68515 53.9688)
(-34.6604 -0.524748 0.174941 105.152 -0.73683 37.7818)
(-34.7753 -1.66069 0.173203 66.8843 -0.726421 25.5826)
(-33.3194 -3.54327 0.165897 45.6579 -0.641573 20.6355)
(-26.8733 -5.8242 0.14693 35.296 -0.396612 21.2447)
(37.8084 58.1363 -2.82203 279.07 -0.680328 -10.8578)
(-80.4625 26.4883 -4.83403 114.629 -1.06824 -7.26507)
(-54.8031 36.3055 -5.84003 130.481 -1.13218 -4.15077)
(-55.7196 32.7946 -6.47853 91.5545 -1.05385 -1.81354)
(-49.9426 29.2027 -6.9772 63.4618 -1.02412 -0.305394)
(-47.1357 22.9861 -7.4153 37.1385 -1.13859 0.439191)
(-45.6606 15.4064 -7.92602 19.3559 -1.42257 0.443772)
(-53.6992 8.41025 -8.93433 5.25684 -1.75784 -0.351159)
(-5.62158 45.9557 -1.8015 58.1722 -0.532293 -9.41906)
(-41.9025 68.989 -3.26913 36.9779 -0.978745 -8.01991)
(-42.9811 73.1416 -3.88777 37.9674 -1.15771 -6.18735)
(-42.0867 68.5481 -4.21897 26.7306 -1.06678 -4.6793)
(-39.4935 60.1931 -4.47965 17.4475 -0.896934 -3.68516)
(-37.4998 48.839 -4.77214 8.53486 -0.774598 -3.19302)
(-36.8205 35.8654 -5.25636 1.76235 -0.749401 -3.12284)
(-44.883 20.1338 -6.52621 -3.70015 -0.730806 -3.156)
(-26.9675 41.6911 -1.38886 -91.8269 -0.355217 -8.44357)
(2.67939 66.909 -2.7141 -46.37 -0.796655 -8.04843)
(-2.99117 73.0106 -3.30058 -45.3571 -1.04255 -6.91702)
(-5.34139 68.9289 -3.59123 -33.4416 -0.991508 -5.87973)
(-7.78572 60.9149 -3.79836 -24.6913 -0.797984 -5.19417)
(-9.14726 50.0064 -4.04765 -17.222 -0.595987 -4.87338)
(-10.0439 37.0946 -4.5056 -11.7542 -0.447275 -4.86027)
(-6.67442 19.8599 -5.74929 -4.97261 -0.323086 -4.90515)
(-68.339 47.2179 -1.29986 -300.333 -0.300929 -7.19616)
(42.5384 24.4586 -2.70404 -123.215 -0.752968 -7.22067)
(14.786 36.443 -3.37827 -135.21 -1.01721 -6.28546)
(14.8553 33.615 -3.72502 -94.4058 -0.984081 -5.4218)
(9.15906 30.5468 -3.951 -65.5988 -0.783625 -4.8346)
(6.47003 25.159 -4.20315 -39.5715 -0.544763 -4.52893)
(5.46744 18.4351 -4.64692 -21.1642 -0.301589 -4.43441)
(10.7754 9.03558 -5.81011 -7.59002 -0.0116777 -4.50418)
(-4.19223 0.29098 0.320677 -432.026 -49.953 -138.339)
(-3.33241 0.615111 0.571181 -214.66 9.04465 -29.3321)
(-2.24515 0.81352 0.607794 -206.047 5.29003 -43.2373)
(-1.38984 0.796898 0.603751 -143.406 9.93202 -27.9729)
(-0.722644 0.657423 0.657047 -95.8203 9.90907 -21.2714)
(-0.0728265 0.478839 0.804191 -55.1727 9.21285 -15.3977)
(1.02484 0.188917 1.05242 -27.3476 7.29812 -12.8109)
(3.99844 -0.981257 1.35486 -13.1467 2.88966 -13.052)
(-4.88208 0.13052 -0.0678715 -420.375 -33.9621 -144.542)
(-4.81929 0.328956 -0.107912 -240.123 -0.483588 -49.3071)
(-4.42505 0.483123 -0.170943 -207.095 8.96409 -43.8274)
(-4.004 0.519781 -0.210028 -146.357 13.8681 -31.3934)
(-3.57376 0.481284 -0.182721 -96.1814 15.1191 -24.033)
(-3.03562 0.422878 -0.082564 -55.1303 14.1963 -18.9128)
(-1.98883 0.288977 0.0688831 -26.5859 11.2906 -16.3497)
(1.27464 -0.738735 0.262347 -13.2377 5.64077 -16.8085)
(-5.27016 0.0597495 -0.136727 -427.448 -19.0568 -157.598)
(-5.41924 0.192352 -0.211544 -239.052 -0.94843 -66.436)
(-5.22533 0.328371 -0.242642 -208.15 6.5111 -56.5199)
(-4.93783 0.404706 -0.241776 -147.402 10.9636 -39.4115)
(-4.55994 0.438884 -0.194172 -96.5718 12.6419 -27.8847)
(-4.0098 0.462975 -0.103912 -55.1039 12.2778 -19.5339)
(-2.92676 0.419761 0.00235956 -26.1563 10.1007 -14.3571)
(0.267968 -0.459048 0.0803872 -11.6678 5.02948 -11.5956)
(-5.54865 0.0324155 -0.128338 -430.812 -10.0326 -165.723)
(-5.75871 0.132071 -0.194943 -237.699 -0.34888 -78.9066)
(-5.64386 0.259948 -0.202392 -207.867 4.48588 -67.4375)
(-5.41078 0.366689 -0.178325 -147.501 7.7188 -47.1166)
(-5.03613 0.456701 -0.122803 -96.6512 9.2489 -32.1078)
(-4.43815 0.544284 -0.0451209 -55.0358 9.28616 -20.717)
(-3.26271 0.551123 0.0288157 -25.6783 7.88365 -12.9345)
(-0.192856 -0.236191 0.0496404 -10.795 4.03046 -7.94399)
(-5.75409 0.0220249 -0.0989204 -431.264 -5.0177 -169.928)
(-5.98448 0.108075 -0.147886 -236.707 0.107867 -86.5971)
(-5.90187 0.236109 -0.142516 -207.217 3.09848 -74.7021)
(-5.68789 0.366351 -0.110911 -147.084 5.21652 -52.7019)
(-5.30193 0.495395 -0.0602169 -96.3536 6.35732 -35.5102)
(-4.66563 0.623413 -0.00226144 -54.6966 6.5342 -21.9707)
(-3.448 0.65942 0.0399421 -25.0898 5.6737 -12.2743)
(-0.463404 -0.0711268 0.0350544 -10.0485 2.9351 -5.74788)
(-5.8929 0.0192114 -0.0657953 -430.509 -2.35074 -171.922)
(-6.12787 0.101964 -0.0963295 -235.938 0.289636 -91.031)
(-6.05507 0.234312 -0.0862951 -206.569 2.0609 -79.0983)
(-5.84385 0.381365 -0.0575349 -146.558 3.35458 -56.2689)
(-5.44461 0.534885 -0.0186132 -95.9057 4.10312 -37.8453)
(-4.78396 0.685816 0.0196142 -54.251 4.27177 -22.9985)
(-3.55197 0.736772 0.0405696 -24.5253 3.76073 -12.0983)
(-0.630674 0.0406939 0.0245736 -9.51463 1.96287 -4.71848)
(-5.97655 0.0192837 -0.0363099 -429.579 -0.983745 -172.781)
(-6.21109 0.102848 -0.0519839 -235.385 0.257329 -93.4005)
(-6.13956 0.239997 -0.043627 -206.073 1.19007 -81.5327)
(-5.92581 0.397772 -0.024388 -146.132 1.88281 -58.3185)
(-5.51647 0.564943 -0.000604942 -95.5186 2.2988 -39.2541)
(-4.84265 0.727517 0.0205829 -53.8729 2.40706 -23.6923)
(-3.60738 0.784375 0.0296178 -24.0982 2.13409 -12.1182)
(-0.731727 0.108109 0.0134781 -9.16197 1.11887 -4.30825)
(-6.01448 0.0199845 -0.0114227 -429.005 -0.262916 -173.087)
(-6.24736 0.104573 -0.0160885 -235.092 0.0993838 -94.4225)
(-6.17561 0.244356 -0.0129843 -205.806 0.390194 -82.6075)
(-5.96017 0.407167 -0.0063797 -145.901 0.607851 -59.2442)
(-5.54673 0.58048 0.00143948 -95.3034 0.740635 -39.9093)
(-4.86768 0.748213 0.00815113 -53.6642 0.777077 -24.0371)
(-3.62956 0.805979 0.0106547 -23.8719 0.690928 -12.1655)
(-0.788641 0.139188 0.00373978 -8.99451 0.363111 -4.19031)
(-58.1949 9.59951 -2.32335 -0.228735 -2.19324 -0.375404)
(-52.8121 9.06756 0.801537 1.5448 -1.81495 3.65889)
(-53.5781 9.02771 0.180935 2.97014 -1.41173 -0.994646)
(-54.0685 9.10423 -0.306423 4.08924 -1.09364 -2.99493)
(-54.9037 9.19963 -0.57776 4.92166 -0.828703 -4.04201)
(-55.5479 9.28503 -0.560326 5.51059 -0.589385 -4.21913)
(-55.9841 9.34865 -0.39379 5.87366 -0.362716 -4.11062)
(-56.2309 9.3803 -0.142536 5.97931 -0.125722 -4.03333)
(-49.5 6.98352 -4.50427 -2.4388 -0.661576 -8.81963)
(-44.7659 5.98668 -2.69922 -1.59016 -0.582833 -8.02073)
(-44.9839 5.7219 -2.45213 -0.616876 -0.438305 -8.10328)
(-46.1566 5.63943 -2.60158 0.194649 -0.339283 -7.90525)
(-47.3648 5.61389 -2.47386 0.795633 -0.264699 -7.81299)
(-48.2732 5.6099 -1.98883 1.21867 -0.193353 -7.67137)
(-48.8515 5.61702 -1.27281 1.49466 -0.118165 -7.53705)
(-49.1103 5.63126 -0.437083 1.65339 -0.0395108 -7.44306)
(-3.89039 6.01086 -4.64848 -4.07227 -0.00811767 -2.58098)
(-5.98085 4.87584 -4.36373 -3.50298 -0.0578157 -3.82061)
(-7.70365 4.48798 -4.07722 -2.79299 -0.0434694 -1.61635)
(-9.36461 4.30782 -3.77399 -2.21854 -0.045529 0.247425)
(-10.6271 4.20683 -3.25462 -1.80169 -0.0491277 1.39596)
(-11.4946 4.14583 -2.48476 -1.51385 -0.0436307 1.98079)
(-12.0307 4.11066 -1.54873 -1.33084 -0.0273301 2.23987)
(-12.2791 4.09364 -0.525587 -1.22645 -0.00822141 2.3386)
(13.4603 5.8689 -3.53357 -3.79723 0.402089 -4.94576)
(9.4618 4.75087 -3.0109 -3.34586 0.178979 -7.64555)
(8.24088 4.3208 -2.85731 -2.92744 0.0863606 -2.5462)
(7.02509 4.09493 -2.48245 -2.57724 0.0372491 0.956169)
(6.2163 3.95388 -2.04945 -2.32544 0.00703421 3.0738)
(5.62659 3.86222 -1.5185 -2.15395 -0.00721807 4.04099)
(5.24686 3.8056 -0.932458 -2.05118 -0.00857222 4.40327)
(5.05703 3.77532 -0.314896 -2.00315 -0.00324426 4.49996)
)
;
    }
    symmetry
    {
        type            symmetryPlane;
    }
    bottom
    {
        type            calculated;
        value           nonuniform List<symmTensor> 
32
(
(218.267 78.6899 0 327.401 89.1209 218.267)
(213.605 88.3538 0 320.407 44.3151 213.605)
(219.742 92.7047 0 329.613 21.4687 219.742)
(223.389 94.2017 0 335.083 9.7852 223.389)
(225.026 94.5978 0 337.539 4.00681 225.026)
(225.675 94.6229 0 338.512 1.34931 225.675)
(225.882 94.5593 0 338.823 0.306634 225.882)
(225.928 94.5087 0 338.892 0.0276777 225.928)
(41.6413 33.6807 0 62.462 26.6565 41.6413)
(43.214 44.5855 0 64.8211 13.7706 43.214)
(46.0579 46.3072 0 69.0869 6.43658 46.0579)
(47.4485 45.9022 0 71.1727 2.60644 47.4485)
(48.1754 45.1502 0 72.2631 0.774961 48.1754)
(48.5775 44.5137 0 72.8663 0.0284195 48.5775)
(48.7966 44.091 0 73.1949 -0.156252 48.7966)
(48.8942 43.8842 0 73.3413 -0.0775827 48.8942)
(-60.3616 29.8749 0 -90.5424 -32.002 -60.3616)
(-54.5706 40.7692 0 -81.8559 -18.6173 -54.5706)
(-55.2353 41.9622 0 -82.8529 -10.9347 -55.2353)
(-55.5884 41.103 0 -83.3826 -6.3803 -55.5884)
(-55.6021 40.0284 0 -83.4031 -3.65622 -55.6021)
(-55.4598 39.1737 0 -83.1897 -2.01516 -55.4598)
(-55.2984 38.6156 0 -82.9476 -0.996888 -55.2984)
(-55.1993 38.3441 0 -82.7989 -0.299363 -55.1993)
(-221.608 66.5837 0 -332.412 -98.5013 -221.608)
(-211.563 74.8541 0 -317.344 -52.9975 -211.563)
(-217.275 77.4206 0 -325.912 -28.4014 -217.275)
(-220.155 77.5687 0 -330.233 -14.9004 -220.155)
(-220.969 76.9929 0 -331.454 -7.56698 -220.969)
(-220.888 76.3427 0 -331.332 -3.65496 -220.888)
(-220.567 75.8503 0 -330.851 -1.59349 -220.567)
(-220.338 75.593 0 -330.508 -0.440371 -220.338)
)
;
    }
}


// ************************************************************************* //
