/*--------------------------------*- C++ -*----------------------------------*\
| =========                 |                                                 |
| \\      /  F ield         | foam-extend: Open Source CFD                    |
|  \\    /   O peration     | Version:     3.1                                |
|   \\  /    A nd           | Web:         http://www.extend-project.de       |
|    \\/     M anipulation  |                                                 |
\*---------------------------------------------------------------------------*/
FoamFile
{
    version     2.0;
    format      ascii;
    class       volScalarField;
    location    "3";
    object      sigmaEq;
}
// * * * * * * * * * * * * * * * * * * * * * * * * * * * * * * * * * * * * * //

dimensions      [1 -1 -2 0 0 0 0];

internalField   nonuniform List<scalar> 
256
(
254.07
113.072
110.755
243.035
190.001
143.474
132.705
170.449
172.399
136.77
126.115
149.944
137.086
122.284
112.942
113.011
105.446
104.114
96.3486
81.3385
78.5399
83.8829
77.6075
54.7376
60.2994
63.8725
57.1895
34.8505
55.9727
48.6105
31.526
21.1722
250.372
126.812
121.88
233.104
198.22
147.587
138.6
180.148
170.237
127.5
117.772
148.259
133.69
108.535
99.4562
109.45
100.73
88.9531
81.2532
75.7972
74.0655
69.8528
63.6993
48.8305
56.6135
52.4399
46.3528
29.6666
53.4632
41.9834
26.1761
18.1702
252.446
130.611
123.68
230.854
197.425
148.878
138.614
176.321
170.463
126.9
115.752
145.412
133.765
105.696
95.1674
106.527
100.731
85.2251
76.2052
72.9362
73.8898
66.0765
58.9545
46.2064
56.1439
49.4689
42.8785
27.4142
52.3472
41.1783
24.8351
15.1446
253.667
131.339
122.981
229.261
196.933
149.68
138
173.235
170.67
127.72
115.095
142.778
134.391
106.08
94.144
104.22
101.547
85.2543
75.009
70.8669
74.7129
65.9161
57.8707
44.3628
56.8194
49.4499
42.2525
25.7941
52.7875
42.1284
25.006
13.4016
254.057
131.022
121.684
227.675
196.932
149.974
137.172
171.205
171.089
128.529
114.766
140.885
135.215
107.036
94.0548
102.58
102.597
86.1779
75.0438
69.4455
75.813
66.7171
57.996
43.109
57.84
50.1976
42.5098
24.7089
53.7178
43.2729
25.5084
12.4941
254.019
130.476
120.474
226.262
197.044
149.979
136.356
169.837
171.505
129.061
114.485
139.598
135.933
107.839
94.1316
101.477
103.486
87.0603
75.3261
68.5057
76.7463
67.5389
58.3659
42.2961
58.732
50.9319
42.8997
24.0235
54.6331
44.1749
25.8992
11.9677
253.861
130.022
119.604
225.222
197.139
149.885
135.726
168.963
171.81
129.349
114.249
138.788
136.432
108.349
94.1837
100.793
104.09
87.6573
75.5524
67.9301
77.3784
68.1103
58.6607
41.8099
59.3469
51.4364
43.1837
23.6263
55.2948
44.7592
26.1221
11.6424
253.748
129.777
119.157
224.677
197.186
149.812
135.388
168.533
171.965
129.469
114.111
138.393
136.682
108.588
94.2
100.463
104.388
87.9465
75.6639
67.6551
77.6881
68.3906
58.8092
41.5815
59.6489
51.6829
43.3214
23.4432
55.6253
45.0408
26.2159
11.478
)
;

boundaryField
{
    interface
    {
        type            calculated;
        value           nonuniform List<scalar> 
192
(
410.907
215.47
209.066
156.758
115.847
82.1446
63.5784
54.7268
402.426
232.065
210.541
160.326
118.499
85.7153
67.5453
58.4466
407.48
227.961
209.66
159.986
118.199
85.1198
66.4374
55.0802
411.164
225.62
209.022
160.084
118.76
85.8496
67.2021
55.0448
412.909
224.72
208.937
160.492
119.561
86.8241
68.2585
55.6375
413.526
224.421
209.119
160.992
120.314
87.7033
69.2142
56.4502
413.643
224.326
209.324
161.39
120.851
88.3124
69.8727
57.0693
413.62
224.294
209.438
161.596
121.118
88.61
70.1877
57.369
287.196
176.966
177.683
141.465
111.368
84.3214
65.2826
60.3123
103.309
137.88
145.005
133.095
115.835
94.566
72.578
55.3553
104.747
124.295
132.934
122.76
107.301
87.5792
65.0245
35.8573
280.068
153.364
154.284
116.482
87.1
60.7225
40.3509
25.2257
388.755
200.221
186.945
131.905
88.3676
51.8045
27.6963
18.0496
370.907
216.517
186.773
133.017
88.2419
52.3831
28.9951
19.2997
371.777
209.893
183.107
130.132
85.6984
50.1131
26.6711
14.7697
372.412
205.381
179.659
127.21
83.0862
47.5504
23.8028
11.799
371.793
202.81
177.312
125.051
81.0828
45.4536
21.287
9.74733
370.652
201.271
175.807
123.62
79.7081
43.9761
19.4354
8.41929
369.604
200.354
174.895
122.752
78.8604
43.0586
18.2599
7.58293
369.004
199.916
174.461
122.342
78.4565
42.6223
17.6977
7.1727
60.4869
57.7281
56.9193
57.2105
58.1388
59.0707
59.7622
60.0962
46.5153
41.9315
42.5343
44.2116
45.7391
46.8496
47.5516
47.8919
13.2364
11.572
11.8987
13.1596
14.1849
14.7241
14.9443
15.0126
21.4532
18.2372
14.1824
11.8135
10.7468
10.1184
9.6888
9.44881
)
;
    }
    symmetry
    {
        type            symmetryPlane;
    }
    bottom
    {
        type            calculated;
        value           nonuniform List<scalar> 
32
(
233.054
201.786
198.083
198.456
198.881
198.993
198.948
198.888
77.2553
83.6621
84.1884
83.0918
81.8392
80.8354
80.1711
79.8446
81.6137
82.2841
80.0244
77.2206
74.9654
73.3817
72.3944
71.9224
233.849
190.854
179.454
175.596
173.673
172.402
171.551
171.116
)
;
    }
}


// ************************************************************************* //
