/*--------------------------------*- C++ -*----------------------------------*\
| =========                 |                                                 |
| \\      /  F ield         | foam-extend: Open Source CFD                    |
|  \\    /   O peration     | Version:     3.1                                |
|   \\  /    A nd           | Web:         http://www.extend-project.de       |
|    \\/     M anipulation  |                                                 |
\*---------------------------------------------------------------------------*/
FoamFile
{
    version     2.0;
    format      ascii;
    class       volVectorField;
    location    "1.3";
    object      D;
}
// * * * * * * * * * * * * * * * * * * * * * * * * * * * * * * * * * * * * * //

dimensions      [0 1 0 0 0 0 0];

internalField   nonuniform List<vector> 
256
(
(0.000428109 0.000279692 0.000478006)
(0.000179112 5.35684e-05 0.000137646)
(0.000158488 -8.80479e-05 -0.000188742)
(0.000363602 -0.000328509 -0.000563572)
(0.00179907 0.0011557 0.000420637)
(0.00148882 0.000299162 0.000146566)
(0.00143185 -0.000394345 -0.000248553)
(0.00161345 -0.00127016 -0.000551205)
(0.00354057 0.00177705 0.000332046)
(0.00322754 0.000488818 9.59021e-05)
(0.00314811 -0.000658902 -0.000214036)
(0.00328838 -0.00197775 -0.00047388)
(0.00561937 0.00224153 0.000189772)
(0.00533386 0.000606977 4.43054e-05)
(0.00523741 -0.000902452 -0.000164849)
(0.00531314 -0.00256995 -0.000332228)
(0.00791716 0.00253616 4.30175e-05)
(0.00765768 0.000655481 -7.47344e-06)
(0.00754846 -0.00111653 -0.000110567)
(0.00757066 -0.00302608 -0.00018162)
(0.0103244 0.00269341 -8.98176e-05)
(0.0100898 0.000648961 -5.42248e-05)
(0.0099722 -0.00130233 -6.20211e-05)
(0.0099525 -0.00336759 -4.43471e-05)
(0.0127519 0.00274635 -0.000194851)
(0.0125365 0.000602606 -9.50515e-05)
(0.0124148 -0.00146023 -2.45287e-05)
(0.0123697 -0.00361412 6.39885e-05)
(0.0151484 0.00272943 -0.000268786)
(0.0149302 0.000533349 -0.000131521)
(0.0148039 -0.0015927 -6.37135e-07)
(0.0147584 -0.00379171 0.000130734)
(0.000478876 0.000275588 0.000236736)
(0.000238936 5.33134e-05 6.99172e-05)
(0.0002189 -8.1559e-05 -0.000111313)
(0.000409351 -0.000308354 -0.000306722)
(0.00191585 0.00113697 0.000240515)
(0.00156793 0.000293259 7.55523e-05)
(0.00151372 -0.000386534 -0.000162646)
(0.00173541 -0.00125061 -0.000348356)
(0.00363416 0.00178149 0.000192568)
(0.00331876 0.000489343 4.73152e-05)
(0.0032392 -0.000667366 -0.000151576)
(0.00337862 -0.00198948 -0.000312803)
(0.00566734 0.00225334 0.000102289)
(0.00538134 0.000612614 1.27912e-05)
(0.00528291 -0.000911099 -0.000121008)
(0.00535247 -0.00258423 -0.000224382)
(0.00790489 0.00255543 1.41776e-06)
(0.00764864 0.00066762 -2.33185e-05)
(0.0075361 -0.00112002 -8.42612e-05)
(0.0075462 -0.00303521 -0.000120933)
(0.0102517 0.00271692 -9.27938e-05)
(0.010022 0.000666788 -5.71506e-05)
(0.00990082 -0.00129663 -5.0426e-05)
(0.00986688 -0.0033649 -2.42308e-05)
(0.0126267 0.00277141 -0.000169177)
(0.0124189 0.000624151 -8.73326e-05)
(0.0122946 -0.00144416 -2.56779e-05)
(0.0122342 -0.00359695 5.11617e-05)
(0.014987 0.00275436 -0.000222789)
(0.0147774 0.000556542 -0.000113816)
(0.0146506 -0.00156773 -1.5767e-05)
(0.0145926 -0.00376152 9.13297e-05)
(0.000499664 0.000284024 0.000115316)
(0.000246763 5.63582e-05 3.29155e-05)
(0.000224955 -8.32567e-05 -6.51256e-05)
(0.000423872 -0.000315331 -0.000165247)
(0.00196218 0.0011249 0.000124047)
(0.0015864 0.00028995 3.26646e-05)
(0.00153067 -0.00037867 -0.000101446)
(0.00177629 -0.00123534 -0.000205723)
(0.0036741 0.00176402 9.59187e-05)
(0.00333726 0.000486895 1.49804e-05)
(0.00325509 -0.000657605 -0.00010031)
(0.0034109 -0.00196573 -0.000190087)
(0.00568205 0.00223461 3.95918e-05)
(0.00538142 0.000612726 -7.82501e-06)
(0.00527941 -0.000897229 -8.31704e-05)
(0.0053571 -0.00255141 -0.000137233)
(0.00788513 0.00254117 -2.62815e-05)
(0.00761895 0.00067272 -3.21619e-05)
(0.00750224 -0.00110087 -6.01964e-05)
(0.00751495 -0.0029956 -7.08179e-05)
(0.0101949 0.00271062 -8.99886e-05)
(0.00995914 0.000678111 -5.57848e-05)
(0.00983375 -0.00127145 -3.85363e-05)
(0.00979841 -0.0033196 -7.02336e-06)
(0.0125365 0.00277532 -0.000143389)
(0.0123261 0.000641773 -7.78996e-05)
(0.0121982 -0.00141316 -2.42185e-05)
(0.0121334 -0.0035477 4.15642e-05)
(0.0148733 0.00276924 -0.000181752)
(0.0146638 0.000579595 -9.8622e-05)
(0.0145335 -0.00153238 -2.40093e-05)
(0.0144683 -0.0037106 6.11402e-05)
(0.000505215 0.000288736 5.3638e-05)
(0.000242666 5.80634e-05 1.40948e-05)
(0.000219213 -8.40531e-05 -3.71692e-05)
(0.000424605 -0.000319417 -8.63346e-05)
(0.00197328 0.00111823 5.74454e-05)
(0.00158053 0.000289304 1.05487e-05)
(0.00152259 -0.000371116 -6.15443e-05)
(0.0017811 -0.00122189 -0.000115922)
(0.00367872 0.00174944 3.83448e-05)
(0.00332646 0.0004866 -1.73557e-06)
(0.00324187 -0.000643644 -6.36669e-05)
(0.00340908 -0.00193744 -0.000108231)
(0.00567168 0.00221704 2.23315e-06)
(0.00535915 0.000614474 -1.71336e-05)
(0.00525449 -0.00087732 -5.44401e-05)
(0.00534005 -0.00251173 -7.64917e-05)
(0.00785459 0.00252569 -4.05832e-05)
(0.00757976 0.000678371 -3.36168e-05)
(0.00746034 -0.00107542 -4.06608e-05)
(0.00747763 -0.00294814 -3.48727e-05)
(0.0101422 0.00270125 -8.31356e-05)
(0.00990067 0.000689056 -5.01493e-05)
(0.00977267 -0.00124098 -2.76551e-05)
(0.00973907 -0.00326725 5.69417e-06)
(0.0124628 0.0027746 -0.000120173)
(0.0122492 0.000658472 -6.66034e-05)
(0.0121189 -0.00137848 -2.05469e-05)
(0.0120534 -0.00349287 3.53752e-05)
(0.0147832 0.00277759 -0.000147703)
(0.0145721 0.000601582 -8.32737e-05)
(0.0144391 -0.00149477 -2.54979e-05)
(0.0143709 -0.00365526 4.22378e-05)
(0.000505234 0.000290812 2.30774e-05)
(0.00023686 5.90711e-05 5.16562e-06)
(0.00021218 -8.41988e-05 -2.04455e-05)
(0.000421092 -0.000320732 -4.30993e-05)
(0.00197014 0.00111429 2.25212e-05)
(0.00156719 0.000290164 5.82965e-07)
(0.00150735 -0.000364411 -3.61129e-05)
(0.00177273 -0.00121008 -6.21662e-05)
(0.00366821 0.00174063 8.56816e-06)
(0.00330603 0.000488494 -8.28444e-06)
(0.00321954 -0.000630439 -3.87767e-05)
(0.00339356 -0.00191331 -5.76792e-05)
(0.00565078 0.00220615 -1.512e-05)
(0.00532996 0.00061838 -1.8816e-05)
(0.00522353 -0.000858246 -3.39482e-05)
(0.00531457 -0.00247749 -3.83874e-05)
(0.00782105 0.00251601 -4.30235e-05)
(0.00753987 0.000685436 -3.00196e-05)
(0.00741879 -0.00105124 -2.5976e-05)
(0.00743991 -0.00290661 -1.2648e-05)
(0.0100949 0.00269563 -7.12549e-05)
(0.00984886 0.000700184 -4.15831e-05)
(0.00971937 -0.00121249 -1.86387e-05)
(0.0096879 -0.003221 1.24166e-05)
(0.0124019 0.0027748 -9.66789e-05)
(0.0121854 0.00067393 -5.37444e-05)
(0.0120538 -0.00134656 -1.58999e-05)
(0.0119888 -0.00344395 2.96897e-05)
(0.0147099 0.00278381 -0.000116169)
(0.0144971 0.000620992 -6.68305e-05)
(0.0143625 -0.00146044 -2.26597e-05)
(0.0142934 -0.0036053 2.98415e-05)
(0.000503737 0.00029163 8.74006e-06)
(0.000232032 5.96896e-05 1.35936e-06)
(0.000206502 -8.40515e-05 -1.06447e-05)
(0.000417106 -0.00032073 -2.01412e-05)
(0.001963 0.00111198 6.24188e-06)
(0.00155405 0.000291519 -2.75757e-06)
(0.00149282 -0.000359076 -2.01047e-05)
(0.00176174 -0.00120066 -3.12424e-05)
(0.00365418 0.00173595 -3.66895e-06)
(0.00328584 0.000491243 -8.91174e-06)
(0.003198 -0.000619821 -2.22847e-05)
(0.0033759 -0.00189502 -2.83414e-05)
(0.00562914 0.00220061 -1.88843e-05)
(0.00530291 0.000623033 -1.58819e-05)
(0.00519529 -0.000842822 -1.98601e-05)
(0.00528976 -0.00245163 -1.68121e-05)
(0.00779111 0.00251147 -3.65581e-05)
(0.0075056 0.000692583 -2.32416e-05)
(0.0073835 -0.00103167 -1.54726e-05)
(0.00740724 -0.00287498 -1.42301e-06)
(0.0100561 0.0026937 -5.46309e-05)
(0.00980688 0.00071027 -3.10068e-05)
(0.00967652 -0.00118948 -1.16282e-05)
(0.00964676 -0.00318534 1.33956e-05)
(0.012354 0.00277642 -7.13406e-05)
(0.0121354 0.000687014 -3.95111e-05)
(0.012003 -0.00132084 -1.1101e-05)
(0.0119388 -0.00340571 2.28922e-05)
(0.014653 0.00278903 -8.44865e-05)
(0.0144387 0.000636771 -4.90324e-05)
(0.0143031 -0.00143279 -1.73501e-05)
(0.014234 -0.00356568 2.05165e-05)
(0.000502293 0.000291894 2.69068e-06)
(0.000228798 6.00537e-05 7.5957e-08)
(0.000202732 -8.38439e-05 -4.95345e-06)
(0.000414062 -0.000320325 -8.39054e-06)
(0.00195663 0.00111069 3.44528e-07)
(0.00154436 0.000292714 -2.68938e-06)
(0.00148221 -0.000355403 -9.94716e-06)
(0.00175284 -0.00119416 -1.39749e-05)
(0.00364259 0.0017337 -5.66663e-06)
(0.00327069 0.000493674 -6.34908e-06)
(0.00318197 -0.00061251 -1.13068e-05)
(0.00336194 -0.00188284 -1.22472e-05)
(0.00561238 0.00219823 -1.4276e-05)
(0.00528293 0.00062696 -1.03675e-05)
(0.00517456 -0.00083218 -1.02037e-05)
(0.00527098 -0.00243453 -6.07111e-06)
(0.00776913 0.00250988 -2.41507e-05)
(0.00748094 0.000698269 -1.45885e-05)
(0.00735822 -0.00101815 -8.04898e-06)
(0.00738355 -0.00285398 2.11602e-06)
(0.0100286 0.00269369 -3.43054e-05)
(0.0097774 0.000717884 -1.91061e-05)
(0.00964654 -0.00117357 -6.27092e-06)
(0.0096179 -0.00316146 9.89123e-06)
(0.0123208 0.00277842 -4.38583e-05)
(0.0121008 0.00069651 -2.41781e-05)
(0.0119679 -0.00130304 -6.50168e-06)
(0.0119044 -0.00337984 1.454e-05)
(0.0146139 0.002793 -5.15103e-05)
(0.0143984 0.000647932 -2.99842e-05)
(0.0142623 -0.00141362 -1.07791e-05)
(0.0141935 -0.00353859 1.22078e-05)
(0.000501472 0.000291955 5.20379e-07)
(0.000227202 6.02239e-05 -8.04833e-08)
(0.000200876 -8.37097e-05 -1.42643e-06)
(0.000412457 -0.000320016 -2.23297e-06)
(0.00195307 0.0011101 -4.00622e-07)
(0.00153932 0.000293389 -1.04694e-06)
(0.00147672 -0.000353538 -2.97834e-06)
(0.00174803 -0.00119085 -3.91061e-06)
(0.00363624 0.00173281 -2.42184e-06)
(0.00326271 0.000495058 -2.26447e-06)
(0.00317356 -0.000608799 -3.43509e-06)
(0.00335442 -0.00187677 -3.3278e-06)
(0.0056034 0.00219741 -5.21971e-06)
(0.00527243 0.000629163 -3.58205e-06)
(0.0051637 -0.000826774 -3.12082e-06)
(0.00526099 -0.00242604 -1.37852e-06)
(0.00775759 0.00250952 -8.40627e-06)
(0.00746812 0.000701386 -4.96259e-06)
(0.00734509 -0.00101127 -2.47793e-06)
(0.00737116 -0.00284355 1.19057e-06)
(0.0100144 0.00269408 -1.1691e-05)
(0.00976221 0.000721964 -6.45023e-06)
(0.00963112 -0.00116546 -1.97009e-06)
(0.00960302 -0.00314953 3.60819e-06)
(0.0123037 0.00277969 -1.48079e-05)
(0.0120831 0.000701505 -8.13967e-06)
(0.01195 -0.00129397 -2.13522e-06)
(0.0118868 -0.00336685 4.99223e-06)
(0.0145938 0.00279508 -1.73276e-05)
(0.0143778 0.000653736 -1.00922e-05)
(0.0142415 -0.00140381 -3.6449e-06)
(0.0141729 -0.00352489 4.07226e-06)
)
;

boundaryField
{
    interface
    {
        type            tractionDisplacement;
        gradient        nonuniform List<vector> 
192
(
(0.041539 0.0541365 0.00143948)
(0.0201369 0.0547538 0.00357141)
(0.0224788 0.0726149 0.00228425)
(0.0186939 0.0832327 -0.000350096)
(0.0159964 0.0908302 -0.00320541)
(0.013326 0.0945388 -0.00593018)
(0.0115578 0.0955619 -0.00806466)
(0.0105786 0.0963024 -0.00917445)
(0.0422073 0.0576861 0.000870633)
(0.0231167 0.0549168 0.00234248)
(0.0226595 0.0707347 0.0018066)
(0.0191396 0.0810189 0.000254152)
(0.0162173 0.0884077 -0.00158032)
(0.013601 0.0924034 -0.00345914)
(0.0118336 0.0940039 -0.0050473)
(0.0108224 0.0957244 -0.00600352)
(0.0438585 0.0596159 0.000232314)
(0.0241688 0.0551385 0.000739572)
(0.0234528 0.0697222 0.000434605)
(0.0195809 0.0796335 -0.000383645)
(0.0163573 0.0868284 -0.00150508)
(0.0135583 0.0909396 -0.00269131)
(0.011687 0.092858 -0.00375082)
(0.0104799 0.0951743 -0.00447004)
(0.0448456 0.0603973 -7.29513e-05)
(0.0249756 0.0550972 -5.05411e-05)
(0.0242356 0.0691938 -0.000336311)
(0.0201707 0.0787723 -0.000845115)
(0.0167394 0.0858376 -0.00152012)
(0.0137711 0.0899796 -0.00225375)
(0.0117775 0.092057 -0.00294753)
(0.010426 0.094682 -0.00348074)
(0.0453218 0.0606208 -0.000175732)
(0.0254979 0.0549377 -0.000349775)
(0.0247874 0.0688223 -0.000622451)
(0.0206396 0.0782365 -0.000978292)
(0.0170923 0.0852227 -0.00140669)
(0.0140082 0.0893632 -0.0018708)
(0.0119207 0.0915042 -0.00233242)
(0.0104601 0.0942719 -0.00272695)
(0.0455249 0.0606153 -0.000170952)
(0.0258115 0.0547502 -0.000373716)
(0.025143 0.0685423 -0.000598341)
(0.0209651 0.0778883 -0.000848037)
(0.0173582 0.0848362 -0.00112357)
(0.0142053 0.0889677 -0.00141673)
(0.0120574 0.0911262 -0.00171703)
(0.0105352 0.0939534 -0.00199039)
(0.045599 0.0605492 -0.000115906)
(0.0259827 0.054597 -0.00026266)
(0.0253494 0.068349 -0.000408995)
(0.0211637 0.0776707 -0.00056037)
(0.0175283 0.0846031 -0.000718801)
(0.0143378 0.088727 -0.000884739)
(0.0121552 0.0908873 -0.00105697)
(0.0106001 0.0937366 -0.00121903)
(0.0456194 0.0605009 -4.02829e-05)
(0.0260568 0.0545131 -9.28109e-05)
(0.0254423 0.0682498 -0.000143371)
(0.0212563 0.0775644 -0.000194346)
(0.0176098 0.0844918 -0.000246478)
(0.0144028 0.0886122 -0.000300722)
(0.0122032 0.0907717 -0.00035721)
(0.0106329 0.0936244 -0.000411026)
(-0.00323148 0.0199072 0.0221316)
(-0.00695134 -0.00465781 0.00381835)
(-0.00424676 -0.00380621 0.00599223)
(-0.00131765 -0.00579309 0.0032976)
(0.00235181 -0.00574693 0.00179249)
(0.00572196 -0.00517678 0.000323207)
(0.00839289 -0.00416084 -0.00060246)
(0.010215 -0.00238713 -0.00168083)
(-0.00777051 0.0074325 0.00491512)
(-0.0141845 -0.0013153 0.00144595)
(-0.0103949 -0.00080304 0.00116888)
(-0.00639181 -0.00147852 0.000413315)
(-0.00185227 -0.00170746 -4.33662e-05)
(0.00222535 -0.0018341 -0.000428166)
(0.00558466 -0.00186212 -0.000684618)
(0.00809388 -0.00143342 -0.00132561)
(-0.00836263 -0.0104417 -0.00609681)
(-0.0145565 0.00235395 -0.00103726)
(-0.0107779 0.00241043 -0.0015591)
(-0.00662068 0.00304267 -0.00103978)
(-0.00205958 0.00252318 -0.000677769)
(0.00203606 0.00173548 -0.000263127)
(0.00543999 0.00083306 0.000110052)
(0.00787748 -0.00013956 0.00086247)
(-0.00525166 -0.0263792 -0.0216392)
(-0.00799386 0.004885 -0.00365822)
(-0.00560173 0.00483411 -0.00643939)
(-0.00229451 0.00687055 -0.00394136)
(0.00145756 0.00616477 -0.00252932)
(0.00485541 0.00486201 -0.00104641)
(0.00754791 0.00311798 7.72544e-05)
(0.00922767 0.000742467 0.00136313)
(0.0333211 -0.0555917 -0.00219371)
(0.0134796 -0.056003 -0.00484972)
(0.0129733 -0.0759105 -0.00406645)
(0.00750401 -0.0863396 -0.00133645)
(0.00362631 -0.0934404 0.00168024)
(0.000535075 -0.0964743 0.00463718)
(-0.00119511 -0.0968764 0.00706016)
(-0.00156401 -0.0961268 0.00857035)
(0.0326292 -0.0598428 -0.00130576)
(0.0160308 -0.0571296 -0.00283652)
(0.0128134 -0.0738708 -0.00230816)
(0.00761676 -0.083964 -0.000564903)
(0.00353797 -0.0907858 0.00143811)
(0.000461807 -0.0941065 0.0034562)
(-0.00131594 -0.0950759 0.00515586)
(-0.00157904 -0.0952191 0.00638235)
(0.0336741 -0.0620155 -0.000487526)
(0.0169029 -0.0576015 -0.000940401)
(0.0136015 -0.0728086 -0.000576076)
(0.00813443 -0.0824894 0.000373426)
(0.00378117 -0.0890829 0.00161474)
(0.000494026 -0.0925081 0.00289909)
(-0.00145341 -0.0937742 0.0040615)
(-0.00197691 -0.0943097 0.00502033)
(0.034328 -0.0627423 -6.04301e-05)
(0.0175978 -0.0576172 2.75311e-06)
(0.0143086 -0.0722805 0.000358409)
(0.00869675 -0.0816048 0.000955572)
(0.0041473 -0.0880486 0.00170937)
(0.000680465 -0.0914823 0.00251138)
(-0.00142516 -0.092858 0.00327878)
(-0.00210744 -0.0935603 0.00397728)
(0.034617 -0.0627898 0.000108859)
(0.0180578 -0.0574453 0.000362181)
(0.0147974 -0.0719019 0.0006938)
(0.00911917 -0.0810625 0.00110704)
(0.00445785 -0.0874159 0.00158483)
(0.000868566 -0.0908278 0.00209342)
(-0.00135185 -0.0922287 0.00260214)
(-0.00213735 -0.0929807 0.00310471)
(0.0347115 -0.0625966 0.000139814)
(0.0183337 -0.0572254 0.000404104)
(0.0151039 -0.071609 0.000671846)
(0.00939779 -0.0807105 0.00095768)
(0.00467567 -0.0870204 0.00126276)
(0.00101436 -0.0904102 0.0015823)
(-0.00127521 -0.0918044 0.0019098)
(-0.00211047 -0.0925585 0.00224924)
(0.0347243 -0.062385 0.000103382)
(0.0184834 -0.0570418 0.000288692)
(0.0152781 -0.0714028 0.000461023)
(0.00956238 -0.0804893 0.000632425)
(0.00480931 -0.0867823 0.000806417)
(0.00110953 -0.0901576 0.000985782)
(-0.00121712 -0.09154 0.00117173)
(-0.00207451 -0.0922835 0.00136814)
(0.0347171 -0.0622589 3.71764e-05)
(0.0185479 -0.0569405 0.000102777)
(0.0153558 -0.0712959 0.000162039)
(0.00963763 -0.0803807 0.000219444)
(0.00487168 -0.0866685 0.000276409)
(0.0011556 -0.0900371 0.000334653)
(-0.0011867 -0.0914131 0.000395311)
(-0.00205313 -0.0921479 0.000459399)
(0.0962472 -0.00149641 -0.00102493)
(0.0959579 -0.0015842 -0.000482529)
(0.0956409 -0.00110742 -0.000373166)
(0.0952676 -0.000794389 -0.000221095)
(0.0949002 -0.000564813 -0.000157872)
(0.0945973 -0.000429462 -0.000116177)
(0.0943845 -0.000356056 -7.54248e-05)
(0.0942727 -0.000329537 -2.64645e-05)
(0.0902846 -0.00160869 -0.000418629)
(0.0901287 -0.00165615 -0.000470716)
(0.0898002 -0.00149969 -0.000574415)
(0.0893693 -0.00132186 -0.000548862)
(0.0889118 -0.00116764 -0.000477248)
(0.0885258 -0.00105779 -0.000367739)
(0.0882554 -0.000988485 -0.00023189)
(0.0881199 -0.000954182 -7.91742e-05)
(0.0895144 -0.00496256 0.00015383)
(0.0893272 -0.00461251 -0.000634206)
(0.0888548 -0.00456315 -0.000945596)
(0.0883161 -0.00451255 -0.00102328)
(0.0877932 -0.00446116 -0.000912276)
(0.0873674 -0.00441125 -0.000700395)
(0.0870747 -0.0043723 -0.000435865)
(0.0869281 -0.00434952 -0.000147515)
(0.0940037 -0.00609734 0.000493142)
(0.0935067 -0.00556018 -0.00103581)
(0.0928151 -0.0057387 -0.00149131)
(0.0921642 -0.00581961 -0.00158686)
(0.0916052 -0.00585619 -0.00139002)
(0.0911786 -0.00584673 -0.00105324)
(0.0908938 -0.00582449 -0.000649181)
(0.0907506 -0.00580807 -0.000218673)
)
;
        traction        nonuniform List<vector> 
192
(
(34.2247 -1.8207 -3.10512)
(34.5501 -1.67227 -4.95271)
(34.6632 -2.03226 -5.58535)
(34.9641 -2.03317 -5.78605)
(35.4473 -1.8315 -5.77492)
(36.0326 -1.28593 -5.56001)
(36.34 -0.11639 -5.05652)
(34.12 1.89039 -4.02599)
(38.1273 -2.39681 -2.13804)
(39.0705 -2.15373 -3.43786)
(40.023 -2.52551 -3.8589)
(40.9234 -2.51098 -3.95866)
(41.6836 -2.21659 -3.8879)
(42.1042 -1.46288 -3.65233)
(41.3771 0.130471 -3.20992)
(35.9803 2.67912 -2.45485)
(40.415 -2.66407 -1.45517)
(41.307 -2.33714 -2.32433)
(42.3773 -2.69445 -2.57074)
(43.3833 -2.64534 -2.59852)
(44.1262 -2.26471 -2.50799)
(44.2862 -1.35866 -2.30926)
(42.8518 0.482551 -1.99145)
(35.8756 3.23872 -1.50651)
(41.9387 -2.79351 -1.01654)
(42.7285 -2.40893 -1.6239)
(43.7802 -2.75772 -1.77819)
(44.7705 -2.67428 -1.77528)
(45.4354 -2.22913 -1.69205)
(45.365 -1.21897 -1.53796)
(43.4602 0.774267 -1.31621)
(35.5405 3.62974 -0.99291)
(42.9786 -2.85978 -0.705192)
(43.6984 -2.43704 -1.12952)
(44.7165 -2.77786 -1.23016)
(45.6688 -2.66979 -1.21728)
(46.2607 -2.17955 -1.15023)
(46.0087 -1.09873 -1.03671)
(43.7808 0.994648 -0.884257)
(35.2239 3.91009 -0.665456)
(43.6736 -2.894 -0.465087)
(44.3503 -2.44666 -0.74683)
(45.3483 -2.78127 -0.811756)
(46.268 -2.65633 -0.798602)
(46.8064 -2.13586 -0.750303)
(46.4156 -1.00727 -0.671943)
(43.9662 1.15242 -0.571313)
(34.9777 4.1057 -0.42837)
(44.1056 -2.91144 -0.263622)
(44.7556 -2.4495 -0.424385)
(45.7516 -2.78038 -0.460776)
(46.6493 -2.64447 -0.451936)
(47.1543 -2.10506 -0.423203)
(46.6647 -0.945559 -0.376707)
(44.0723 1.25547 -0.31682)
(34.8175 4.22795 -0.232333)
(44.3044 -2.91803 -0.0846241)
(44.9438 -2.44894 -0.136571)
(45.9354 -2.77795 -0.147991)
(46.8292 -2.63783 -0.145034)
(47.3225 -2.089 -0.135637)
(46.7769 -0.911357 -0.120107)
(44.0906 1.31399 -0.0992702)
(34.6925 4.28303 -0.0698567)
(4.30703 0.386792 17.1419)
(7.22936 1.03718 12.5774)
(8.44437 0.909439 9.07678)
(9.13994 0.780539 6.93681)
(9.64718 0.732655 5.80589)
(10.0829 0.82245 5.55426)
(10.5429 1.10209 6.23311)
(11.3739 1.5055 7.85099)
(3.26119 0.487291 15.3351)
(5.75082 0.861103 13.1721)
(6.64607 0.76928 10.988)
(7.09977 0.525987 9.52003)
(7.43168 0.296492 8.72827)
(7.75793 0.145364 8.54012)
(8.19058 0.119524 8.9317)
(9.24262 0.157272 9.64459)
(2.90599 0.52909 13.8664)
(5.40645 0.518161 12.8563)
(6.34524 0.430233 11.4268)
(6.78548 0.138806 10.3909)
(7.07316 -0.159402 9.84088)
(7.34532 -0.406077 9.73451)
(7.72625 -0.571734 10.0623)
(8.75034 -0.658313 10.7937)
(2.9217 0.653964 11.7523)
(5.58186 0.35473 10.7044)
(6.61404 0.167752 9.1323)
(7.0724 -0.220452 8.02241)
(7.34317 -0.585438 7.43329)
(7.57132 -0.89193 7.26572)
(7.88584 -1.18012 7.47208)
(8.83464 -1.49784 8.44288)
(-5.39667 0.906255 1.32566)
(-2.47159 0.944957 2.30861)
(-0.0605137 0.662504 2.56173)
(1.44854 0.119726 2.63152)
(2.40292 -0.417682 2.71065)
(3.19028 -0.917461 2.849)
(4.74452 -1.74995 3.0826)
(8.94671 -4.22563 3.30841)
(-7.43245 0.688999 0.385811)
(-6.62975 0.737755 0.826376)
(-5.6199 0.696438 0.875705)
(-4.83516 0.43077 0.834833)
(-4.14896 0.106463 0.841861)
(-3.2165 -0.241434 0.931567)
(-0.913619 -0.993822 1.126)
(5.821 -3.88866 1.46623)
(-8.64701 0.587995 0.173765)
(-8.48911 0.574384 0.503264)
(-7.95714 0.631631 0.586499)
(-7.32382 0.505518 0.588946)
(-6.54303 0.297223 0.611345)
(-5.32254 0.0384429 0.685973)
(-2.4831 -0.663089 0.818399)
(5.33431 -3.69429 1.03262)
(-9.33143 0.57632 0.146551)
(-9.30308 0.519607 0.433455)
(-8.88969 0.606232 0.541105)
(-8.26056 0.539943 0.572491)
(-7.3589 0.390459 0.602388)
(-5.88893 0.174384 0.656449)
(-2.66254 -0.515289 0.733336)
(5.77525 -3.65175 0.851896)
(-9.7548 0.586047 0.128084)
(-9.75262 0.512033 0.356416)
(-9.36268 0.611699 0.454026)
(-8.70313 0.572681 0.48969)
(-7.70121 0.45165 0.515488)
(-6.05168 0.25395 0.549978)
(-2.58131 -0.434001 0.591315)
(6.2783 -3.65093 0.658481)
(-10.0114 0.596121 0.100395)
(-10.009 0.517473 0.264309)
(-9.61556 0.625233 0.337799)
(-8.92053 0.598571 0.366631)
(-7.84489 0.490392 0.385143)
(-6.07642 0.300294 0.405698)
(-2.44705 -0.390074 0.427525)
(6.69127 -3.66316 0.463228)
(-10.1543 0.603203 0.0632324)
(-10.1477 0.524115 0.161241)
(-9.74396 0.636365 0.205481)
(-9.02074 0.615154 0.223251)
(-7.89784 0.512731 0.234103)
(-6.05528 0.325405 0.245424)
(-2.32533 -0.370018 0.256053)
(6.97961 -3.67773 0.267872)
(-10.2208 0.606504 0.0211737)
(-10.2118 0.527433 0.0534895)
(-9.80331 0.641915 0.0679389)
(-9.06714 0.623353 0.0737887)
(-7.92205 0.523765 0.0773028)
(-6.043 0.337377 0.0810951)
(-2.25908 -0.366458 0.0842852)
(7.09995 -3.68691 0.0845697)
(11.5865 -4.91698 -1.1081)
(11.4222 -1.46287 -0.859954)
(11.7561 1.24236 -0.582211)
(12.1364 3.3971 -0.390006)
(12.4583 5.02984 -0.264818)
(12.7024 6.20185 -0.177805)
(12.8654 6.9466 -0.116375)
(12.9358 7.21533 -0.0456467)
(8.67515 -8.06883 0.321189)
(7.87637 -6.33548 0.234738)
(7.92539 -4.45188 0.255499)
(8.1131 -2.83665 0.233931)
(8.29393 -1.58517 0.184907)
(8.43825 -0.670966 0.130575)
(8.54339 -0.0590757 0.0764652)
(8.61341 0.281358 0.0248182)
(7.8333 -10.5553 0.783317)
(6.99282 -9.3235 0.652918)
(6.95691 -7.99393 0.567568)
(7.06654 -6.83026 0.465941)
(7.18721 -5.90454 0.355441)
(7.28652 -5.21682 0.249686)
(7.35657 -4.75495 0.151816)
(7.39652 -4.49388 0.0524319)
(7.9726 -8.98285 1.14884)
(7.29316 -7.57998 0.871615)
(7.2885 -6.51406 0.682024)
(7.40491 -5.5686 0.539596)
(7.52299 -4.7942 0.407889)
(7.61584 -4.21305 0.284839)
(7.67698 -3.8271 0.170226)
(7.70076 -3.63117 0.0573958)
)
;
        pressure        uniform 0;
        value           nonuniform List<vector> 
192
(
(0.000947346 0.000956398 0.000496)
(0.00205078 0.00184012 0.000465279)
(0.00382155 0.00268474 0.000360599)
(0.00585304 0.00328193 0.000185396)
(0.00811712 0.00367154 2.94992e-06)
(0.010491 0.00387515 -0.000163945)
(0.0128963 0.00394087 -0.000295659)
(0.0152807 0.00393321 -0.000383467)
(0.00100647 0.000996665 0.000247618)
(0.00220481 0.00182343 0.000269796)
(0.0039174 0.00266567 0.00021515)
(0.00590658 0.00326608 0.000105466)
(0.0081076 0.00366052 -1.83363e-05)
(0.0104217 0.00387196 -0.000136033)
(0.0127746 0.00394646 -0.000232269)
(0.0151223 0.00395092 -0.000297833)
(0.0010479 0.00102922 0.00011822)
(0.00226429 0.00181413 0.000133291)
(0.00396726 0.00263555 0.000101351)
(0.00592681 0.00323002 3.47962e-05)
(0.0080896 0.00362653 -4.5095e-05)
(0.0103644 0.00384736 -0.00012363)
(0.0126826 0.00393604 -0.000190274)
(0.0150043 0.00395892 -0.000237627)
(0.00106578 0.0010437 5.27261e-05)
(0.00228548 0.00180695 5.68137e-05)
(0.00398166 0.00261436 3.41409e-05)
(0.00592382 0.00320169 -8.33079e-06)
(0.00806383 0.00359867 -5.95846e-05)
(0.0103143 0.00382599 -0.000111307)
(0.0126101 0.00392531 -0.000157018)
(0.0149135 0.00396111 -0.000191212)
(0.00107176 0.00104857 2.08807e-05)
(0.00228886 0.00180102 1.8149e-05)
(0.00397805 0.00260091 7.87524e-07)
(0.00590878 0.0031841 -2.73487e-05)
(0.00803471 0.0035813 -6.06071e-05)
(0.01027 0.00381267 -9.46399e-05)
(0.0125509 0.0039186 -0.000125834)
(0.0148407 0.0039622 -0.000150256)
(0.0010728 0.00104932 6.60315e-06)
(0.00228565 0.00179636 1.57043e-06)
(0.00396846 0.00259273 -1.11482e-05)
(0.0058912 0.00317422 -2.94847e-05)
(0.00800809 0.00357192 -5.06028e-05)
(0.0102336 0.00380579 -7.234e-05)
(0.0125047 0.0039155 -9.28034e-05)
(0.0147847 0.00396345 -0.000109366)
(0.00107228 0.00104876 1.24186e-06)
(0.00228142 0.00179315 -2.93873e-06)
(0.00395946 0.00258806 -1.07791e-05)
(0.00587693 0.00316911 -2.12806e-05)
(0.00798824 0.00356742 -3.31357e-05)
(0.0102078 0.00380278 -4.53646e-05)
(0.0124727 0.00391451 -5.70704e-05)
(0.0147464 0.00396471 -6.67482e-05)
(0.00107172 0.00104822 1.68427e-08)
(0.00227878 0.00179152 -1.56076e-06)
(0.00395427 0.00258593 -4.21397e-06)
(0.00586911 0.00316697 -7.64905e-06)
(0.00797771 0.00356566 -1.14872e-05)
(0.0101945 0.00380174 -1.545e-05)
(0.0124562 0.00391434 -1.92731e-05)
(0.0147267 0.00396538 -2.24654e-05)
(0.000387715 0.000528533 0.000754652)
(0.00171218 0.00109748 0.000468366)
(0.00348748 0.00172947 0.000406949)
(0.0056029 0.00216911 0.000230992)
(0.00794656 0.00246433 6.54237e-05)
(0.010396 0.0026287 -8.57775e-05)
(0.0128568 0.00269434 -0.000202382)
(0.0152761 0.0026996 -0.000289797)
(8.19801e-05 0.000146475 0.000199085)
(0.00131151 0.000282721 0.000164641)
(0.00309761 0.00047878 0.000110513)
(0.00525397 0.000588496 4.94718e-05)
(0.00763453 0.000634137 -8.01552e-06)
(0.0101176 0.000626035 -5.95768e-05)
(0.0126063 0.000579329 -0.000103609)
(0.0150313 0.000515431 -0.000148092)
(5.39549e-05 -0.000218569 -0.000264952)
(0.00124989 -0.000364921 -0.000261519)
(0.00301339 -0.000628771 -0.000233525)
(0.00515466 -0.000864419 -0.000177846)
(0.00752272 -0.00108499 -0.000119039)
(0.00999765 -0.00128063 -6.53102e-05)
(0.0124828 -0.00144982 -2.3153e-05)
(0.0149023 -0.00159445 1.01437e-05)
(0.000297957 -0.000658249 -0.000834062)
(0.00151352 -0.00120909 -0.000596933)
(0.00321836 -0.00191732 -0.000554372)
(0.00528446 -0.00248407 -0.000381495)
(0.00758887 -0.00294902 -0.000213237)
(0.0100132 -0.00330681 -5.74272e-05)
(0.0124641 -0.00357515 6.49541e-05)
(0.0148738 -0.00378243 0.000147773)
(0.000780116 -0.00102341 -0.000590993)
(0.00178194 -0.00197019 -0.000611827)
(0.00345055 -0.00292663 -0.00052471)
(0.00540694 -0.00364919 -0.000348933)
(0.00761598 -0.00419409 -0.000160617)
(0.00995919 -0.00457351 1.36176e-05)
(0.0123548 -0.00482508 0.000152241)
(0.0147389 -0.00499329 0.000237863)
(0.000817217 -0.00105639 -0.000323044)
(0.0019358 -0.00196473 -0.000383812)
(0.00353879 -0.00291286 -0.000341654)
(0.00544768 -0.00363377 -0.000231443)
(0.00759042 -0.00417003 -0.000102957)
(0.00987265 -0.00454123 1.89717e-05)
(0.0122178 -0.0047854 0.00011561)
(0.0145729 -0.00495176 0.000171109)
(0.000844798 -0.00109052 -0.000171341)
(0.00198758 -0.00195536 -0.000217478)
(0.00358092 -0.00287584 -0.000197288)
(0.00545878 -0.00358253 -0.000132565)
(0.00756221 -0.00410914 -5.06336e-05)
(0.00980459 -0.00447596 2.92153e-05)
(0.0121153 -0.00471988 9.23329e-05)
(0.0144436 -0.00488947 0.000123894)
(0.000853704 -0.0011037 -8.70899e-05)
(0.00200107 -0.0019421 -0.000115887)
(0.00358794 -0.00284095 -0.000103751)
(0.00544876 -0.00353179 -6.4547e-05)
(0.00752948 -0.00404875 -1.35056e-05)
(0.00974757 -0.00441078 3.70864e-05)
(0.0120356 -0.00465359 7.63599e-05)
(0.0143446 -0.00482476 9.19538e-05)
(0.000853804 -0.0011056 -4.17386e-05)
(0.00199845 -0.00192814 -5.76389e-05)
(0.00357853 -0.00281208 -4.90067e-05)
(0.00542856 -0.00349077 -2.45494e-05)
(0.00749563 -0.00399931 7.16235e-06)
(0.00969876 -0.00435635 3.85844e-05)
(0.0119719 -0.00459681 6.22164e-05)
(0.0142666 -0.00476756 6.86503e-05)
(0.000851 -0.00110319 -1.83935e-05)
(0.00199091 -0.00191598 -2.61911e-05)
(0.0035647 -0.00279013 -1.99434e-05)
(0.00540724 -0.00346051 -4.84109e-06)
(0.00746569 -0.00396274 1.43614e-05)
(0.00965944 -0.00431547 3.31743e-05)
(0.0119228 -0.00455327 4.67647e-05)
(0.0142076 -0.00472266 4.86321e-05)
(0.000848115 -0.00110014 -7.09827e-06)
(0.00198389 -0.00190718 -1.03663e-05)
(0.00355292 -0.00277538 -6.48436e-06)
(0.00539051 -0.00344064 1.8342e-06)
(0.00744367 -0.00393876 1.21962e-05)
(0.00963177 -0.00428843 2.22135e-05)
(0.0118892 -0.00452409 2.91866e-05)
(0.0141676 -0.00469213 2.93096e-05)
(0.000846422 -0.00109825 -1.76826e-06)
(0.00197988 -0.0019026 -2.62589e-06)
(0.00354637 -0.00276797 -1.30231e-06)
(0.00538146 -0.0034308 1.36453e-06)
(0.00743206 -0.0039269 4.64569e-06)
(0.00961746 -0.00427499 7.79135e-06)
(0.011872 -0.00450951 9.93362e-06)
(0.0141472 -0.00467674 9.81476e-06)
(0.0163515 0.00271073 -0.000281598)
(0.0161865 0.00273456 -0.000228821)
(0.0160688 0.00275539 -0.000186416)
(0.015974 0.00276766 -0.000150466)
(0.0158962 0.00277675 -0.000118142)
(0.0158355 0.00278366 -8.59387e-05)
(0.0157937 0.00278855 -5.24531e-05)
(0.0157722 0.00279096 -1.76584e-05)
(0.0160587 0.00051324 -0.000136754)
(0.0159041 0.00053584 -0.000119699)
(0.0157863 0.000560849 -0.000105802)
(0.0156892 0.000585059 -9.01344e-05)
(0.0156085 0.000606396 -7.27961e-05)
(0.0155453 0.000623549 -5.36292e-05)
(0.0155016 0.000635576 -3.28828e-05)
(0.0154793 0.000641808 -1.10818e-05)
(0.0159228 -0.00165473 1.28575e-06)
(0.0157672 -0.00162539 -2.36946e-05)
(0.0156442 -0.00158942 -3.58292e-05)
(0.015543 -0.00155118 -3.82888e-05)
(0.0154599 -0.00151621 -3.40632e-05)
(0.0153952 -0.00148793 -2.6105e-05)
(0.0153508 -0.00146827 -1.62274e-05)
(0.0153281 -0.00145818 -5.48883e-06)
(0.0159335 -0.00386792 0.000136898)
(0.0157614 -0.00383103 7.8382e-05)
(0.0156285 -0.00378233 4.24988e-05)
(0.015523 -0.003728 2.2402e-05)
(0.0154384 -0.0036785 1.24662e-05)
(0.0153737 -0.00363876 7.351e-06)
(0.0153297 -0.00361139 4.09304e-06)
(0.0153073 -0.00359749 1.33885e-06)
)
;
    }
    symmetry
    {
        type            symmetryPlane;
    }
    bottom
    {
        type            fixedDisplacement;