/*--------------------------------*- C++ -*----------------------------------*\
| =========                 |                                                 |
| \\      /  F ield         | foam-extend: Open Source CFD                    |
|  \\    /   O peration     | Version:     3.1                                |
|   \\  /    A nd           | Web:         http://www.extend-project.de       |
|    \\/     M anipulation  |                                                 |
\*---------------------------------------------------------------------------*/
FoamFile
{
    version     2.0;
    format      ascii;
    class       volVectorField;
    location    "1.3";
    object      D_0;
}
// * * * * * * * * * * * * * * * * * * * * * * * * * * * * * * * * * * * * * //

dimensions      [0 1 0 0 0 0 0];

internalField   nonuniform List<vector> 
256
(
(0.000507241 0.000338212 0.00058194)
(0.000202504 6.36482e-05 0.00015731)
(0.000180372 -0.000113931 -0.000255738)
(0.000441319 -0.000417232 -0.000736569)
(0.00217568 0.0013975 0.000541533)
(0.00179788 0.000348326 0.00017165)
(0.00173026 -0.000513014 -0.000343064)
(0.00195213 -0.00160322 -0.000744258)
(0.00431322 0.00214048 0.000460349)
(0.00393096 0.000557438 0.000123379)
(0.00383339 -0.000864355 -0.000298059)
(0.00399932 -0.00250157 -0.000659148)
(0.00687521 0.00268027 0.000310305)
(0.00652457 0.000669238 7.44649e-05)
(0.00640259 -0.00119764 -0.000231445)
(0.00648346 -0.00326333 -0.000487792)
(0.00970837 0.00300271 0.000150593)
(0.00938772 0.000689205 2.37194e-05)
(0.00924659 -0.0014988 -0.000158305)
(0.009257 -0.00385876 -0.000303469)
(0.0126716 0.00315044 4.22503e-06)
(0.01238 0.000638752 -2.29539e-05)
(0.0122255 -0.00176599 -9.33663e-05)
(0.0121807 -0.00431175 -0.000135843)
(0.0156495 0.00316784 -0.000110812)
(0.0153811 0.000540297 -6.33403e-05)
(0.0152193 -0.00199637 -4.26857e-05)
(0.0151402 -0.00464432 -4.20866e-06)
(0.0185735 0.00310189 -0.000188302)
(0.0183045 0.000416983 -9.79436e-05)
(0.0181371 -0.00219115 -7.7919e-06)
(0.0180541 -0.00488841 7.86104e-05)
(0.000578114 0.000333024 0.00029277)
(0.000287494 6.25717e-05 7.92146e-05)
(0.000267102 -0.000104269 -0.000154873)
(0.000507962 -0.000387804 -0.000413819)
(0.00234547 0.00136863 0.000317657)
(0.00192252 0.00033542 8.81818e-05)
(0.00186118 -0.0005054 -0.000230264)
(0.00213734 -0.00158104 -0.000484754)
(0.00447253 0.00213565 0.000281549)
(0.00408688 0.00054698 6.37347e-05)
(0.00399044 -0.000883354 -0.000216604)
(0.00415851 -0.00252505 -0.000452023)
(0.0069921 0.00268279 0.000192596)
(0.0066397 0.000662977 3.34348e-05)
(0.0065156 -0.00121999 -0.000175063)
(0.00659134 -0.00329369 -0.000348241)
(0.00976219 0.0030143 8.80863e-05)
(0.00944389 0.000690514 4.72167e-07)
(0.00929838 -0.00151624 -0.000125226)
(0.00929582 -0.00388473 -0.000223814)
(0.0126601 0.00316815 -1.11866e-05)
(0.0123727 0.00064759 -3.11006e-05)
(0.0122132 -0.00177279 -7.93657e-05)
(0.0121527 -0.00432455 -0.000107213)
(0.0155813 0.00318894 -9.1282e-05)
(0.01532 0.0005546 -5.91232e-05)
(0.0151544 -0.00199133 -4.46031e-05)
(0.0150586 -0.00464142 -1.59171e-05)
(0.0184683 0.00312462 -0.000145794)
(0.0182073 0.000434385 -8.28972e-05)
(0.0180383 -0.00217679 -2.63105e-05)
(0.017942 -0.00487276 3.61638e-05)
(0.000608979 0.000344491 0.000147333)
(0.000303496 6.59538e-05 3.70871e-05)
(0.000281965 -0.000106794 -9.41416e-05)
(0.000534207 -0.000398037 -0.000233291)
(0.00242213 0.00135561 0.000172883)
(0.0019665 0.000329413 3.87309e-05)
(0.00190601 -0.000498776 -0.00014846)
(0.00221489 -0.00156946 -0.000299331)
(0.00455552 0.00211391 0.000156299)
(0.00414508 0.000539286 2.44964e-05)
(0.00404795 -0.000878061 -0.000148307)
(0.00423906 -0.00250716 -0.000291001)
(0.00705654 0.00265721 0.000105335)
(0.00668766 0.000656003 5.98585e-06)
(0.00656108 -0.00121263 -0.000125215)
(0.00664886 -0.00326763 -0.000232169)
(0.00979477 0.00299238 4.14652e-05)
(0.00946572 0.000687933 -1.44066e-05)
(0.00931651 -0.00150462 -9.39521e-05)
(0.00931846 -0.00385267 -0.000154594)
(0.0126561 0.00315479 -2.17513e-05)
(0.0123626 0.000651521 -3.46676e-05)
(0.012199 -0.00175552 -6.40785e-05)
(0.0121377 -0.00428761 -7.91592e-05)
(0.0155445 0.00318741 -7.46826e-05)
(0.0152809 0.000565564 -5.37613e-05)
(0.0151115 -0.00196858 -4.2557e-05)
(0.0150113 -0.00460199 -2.06568e-05)
(0.0184096 0.00313605 -0.000112222)
(0.0181492 0.000451492 -7.17055e-05)
(0.0179767 -0.00215038 -3.61818e-05)
(0.0178727 -0.0048339 7.10826e-06)
(0.00061983 0.000351368 7.27184e-05)
(0.000302545 6.80016e-05 1.5861e-05)
(0.000279682 -0.000108308 -5.65231e-05)
(0.000541335 -0.000405293 -0.000129903)
(0.00245162 0.00135076 8.87571e-05)
(0.00197567 0.000328112 1.33472e-05)
(0.00191426 -0.000492293 -9.40051e-05)
(0.00224147 -0.00156048 -0.000179633)
(0.00458867 0.0020989 7.92563e-05)
(0.00416033 0.000536899 3.76153e-06)
(0.00406212 -0.000866372 -9.83367e-05)
(0.00426932 -0.00248321 -0.00018003)
(0.00708207 0.0026369 4.9452e-05)
(0.0066998 0.000654148 -7.92567e-06)
(0.00657163 -0.00119619 -8.6208e-05)
(0.00667058 -0.00323235 -0.000147299)
(0.00980499 0.00297268 1.10185e-05)
(0.00946666 0.000688943 -2.05978e-05)
(0.00931545 -0.00148365 -6.74451e-05)
(0.009324 -0.00381014 -0.000100634)
(0.0126474 0.00314086 -2.83477e-05)
(0.0123481 0.000657389 -3.36174e-05)
(0.0121824 -0.00173038 -4.90806e-05)
(0.0121237 -0.00424123 -5.394e-05)
(0.0155174 0.00318278 -6.28447e-05)
(0.0152509 0.000577202 -4.69715e-05)
(0.0150795 -0.00194003 -3.70146e-05)
(0.0149786 -0.0045547 -1.85499e-05)
(0.0183689 0.00314157 -8.87564e-05)
(0.0181074 0.000468556 -6.12122e-05)
(0.0179324 -0.00211983 -3.76057e-05)
(0.0178251 -0.00478805 -6.38621e-06)
(0.000622926 0.000354904 3.47396e-05)
(0.000298209 6.92799e-05 5.87226e-06)
(0.00027426 -0.000108958 -3.31604e-05)
(0.000541547 -0.00040888 -7.08317e-05)
(0.00246013 0.00134919 4.26645e-05)
(0.00197162 0.000329152 1.82079e-06)
(0.00190898 -0.00048634 -5.81238e-05)
(0.00224658 -0.00155242 -0.000104837)
(0.00459745 0.00209158 3.60341e-05)
(0.00415744 0.000538316 -5.09782e-06)
(0.00405814 -0.00085451 -6.31169e-05)
(0.00427517 -0.00246284 -0.000107506)
(0.00708698 0.00262602 1.80451e-05)
(0.00669534 0.000656569 -1.27275e-05)
(0.00656611 -0.0011792 -5.7055e-05)
(0.00667282 -0.00320187 -8.93821e-05)
(0.00980241 0.00296172 -5.14227e-06)
(0.00945721 0.000693589 -2.07392e-05)
(0.00930492 -0.00146235 -4.62167e-05)
(0.00931877 -0.00377272 -6.19108e-05)
(0.0126351 0.00313328 -2.94804e-05)
(0.0123312 0.000665469 -2.92301e-05)
(0.0121643 -0.00170557 -3.5526e-05)
(0.0121086 -0.00419985 -3.40088e-05)
(0.0154948 0.00318101 -5.18092e-05)
(0.0152256 0.00058931 -3.87061e-05)
(0.015053 -0.00191256 -2.9529e-05)
(0.0149529 -0.00451178 -1.37218e-05)
(0.0183369 0.00314619 -6.95861e-05)
(0.0180739 0.000484468 -4.99068e-05)
(0.0178973 -0.00209076 -3.33523e-05)
(0.017789 -0.00474545 -1.03304e-05)
(0.000623322 0.000356698 1.57742e-05)
(0.000294182 7.00943e-05 1.62962e-06)
(0.000269447 -0.00010915 -1.86182e-05)
(0.000539836 -0.000410395 -3.71533e-05)
(0.00246046 0.001349 1.88006e-05)
(0.00196435 0.000330933 -2.23183e-06)
(0.00190066 -0.000481518 -3.42837e-05)
(0.00224406 -0.00154583 -5.84874e-05)
(0.00459631 0.0020889 1.39892e-05)
(0.00414895 0.000541272 -7.08894e-06)
(0.00404872 -0.000844754 -3.83752e-05)
(0.00427155 -0.00244762 -6.10243e-05)
(0.00708331 0.00262172 3.13836e-06)
(0.00668551 0.00066084 -1.20095e-05)
(0.00655551 -0.00116511 -3.55378e-05)
(0.00666712 -0.00317919 -5.11851e-05)
(0.00979481 0.00295752 -1.0621e-05)
(0.0094449 0.000699678 -1.70168e-05)
(0.00929194 -0.00144469 -2.95913e-05)
(0.00930941 -0.00374452 -3.55766e-05)
(0.0126223 0.00313105 -2.52949e-05)
(0.0123151 0.000673941 -2.24611e-05)
(0.0121476 -0.00168507 -2.37663e-05)
(0.0120941 -0.0041681 -1.96651e-05)
(0.0154759 0.00318206 -3.92992e-05)
(0.0152046 0.000600419 -2.89526e-05)
(0.0150314 -0.00188995 -2.12336e-05)
(0.0149322 -0.00447816 -8.73539e-06)
(0.0183116 0.00315087 -5.10468e-05)
(0.0180471 0.000498039 -3.71723e-05)
(0.0178696 -0.00206681 -2.56364e-05)
(0.0177613 -0.0047113 -9.25853e-06)
(0.000623001 0.000357569 6.48972e-06)
(0.000291397 7.05856e-05 1.7453e-07)
(0.000266158 -0.000109151 -9.3319e-06)
(0.000538134 -0.000410917 -1.76083e-05)
(0.00245861 0.00134926 7.25712e-06)
(0.00195819 0.000332517 -2.48013e-06)
(0.00189376 -0.000478174 -1.78868e-05)
(0.00224021 -0.00154119 -2.91495e-05)
(0.00459271 0.00208834 4.24428e-06)
(0.00414103 0.000544067 -5.40122e-06)
(0.00404016 -0.00083798 -2.04739e-05)
(0.0042662 -0.0024376 -3.07842e-05)
(0.00707798 0.0026207 -1.65941e-06)
(0.00667645 0.000664825 -8.20594e-06)
(0.00654593 -0.00115529 -1.92894e-05)
(0.00666036 -0.00316439 -2.59177e-05)
(0.00978735 0.00295677 -9.00699e-06)
(0.00943449 0.000705006 -1.09989e-05)
(0.00928112 -0.00143235 -1.63791e-05)
(0.00930075 -0.00372601 -1.79619e-05)
(0.012612 0.00313142 -1.69148e-05)
(0.0123027 0.000680809 -1.40891e-05)
(0.0121349 -0.00167073 -1.35713e-05)
(0.0120828 -0.00414699 -9.87415e-06)
(0.0154622 0.00318416 -2.4678e-05)
(0.0151894 0.000608886 -1.79308e-05)
(0.0150158 -0.00187411 -1.27274e-05)
(0.0149174 -0.00445545 -4.6387e-06)
(0.0182937 0.00315484 -3.14425e-05)
(0.018028 0.000507966 -2.29864e-05)
(0.0178501 -0.00204998 -1.60001e-05)
(0.0177421 -0.00468786 -6.04026e-06)
(0.000622704 0.000357924 1.72512e-06)
(0.000290006 7.08187e-05 -5.54687e-08)
(0.000264524 -0.000109116 -2.8219e-06)
(0.000537159 -0.000411046 -5.1527e-06)
(0.00245718 0.00134948 1.81e-06)
(0.00195481 0.000333412 -9.91362e-07)
(0.00189001 -0.000476471 -5.53486e-06)
(0.00223777 -0.00153882 -8.78492e-06)
(0.00459019 0.0020884 7.77388e-07)
(0.00413653 0.000545691 -1.9693e-06)
(0.00403532 -0.000834531 -6.41257e-06)
(0.00426278 -0.00243264 -9.3369e-06)
(0.00707454 0.00262071 -1.10667e-06)
(0.00667126 0.000667145 -2.88547e-06)
(0.00654049 -0.00115028 -6.09691e-06)
(0.00665619 -0.00315712 -7.86903e-06)
(0.00978293 0.002957 -3.42477e-06)
(0.00942867 0.000708046 -3.78834e-06)
(0.00927509 -0.00142604 -5.23056e-06)
(0.00929573 -0.00371687 -5.43329e-06)
(0.0126064 0.00313217 -5.92983e-06)
(0.012296 0.000684616 -4.79591e-06)
(0.012128 -0.00166339 -4.40512e-06)
(0.0120766 -0.00413649 -2.96555e-06)
(0.0154548 0.00318564 -8.42573e-06)
(0.0151814 0.000613456 -6.07307e-06)
(0.0150076 -0.00186599 -4.23345e-06)
(0.0149096 -0.00444407 -1.42988e-06)
(0.0182843 0.00315703 -1.06437e-05)
(0.0180181 0.00051323 -7.78187e-06)
(0.01784 -0.0020413 -5.42584e-06)
(0.0177321 -0.004676 -2.0698e-06)
)
;

boundaryField
{
    interface
    {
        type            tractionDisplacement;
        gradient        nonuniform List<vector> 
192
(
(0.0012504 8.90088e-08 -6.27537e-06)
(0.00125106 2.32615e-07 -7.48491e-06)
(0.0012496 5.25483e-07 -7.47543e-06)
(0.00124673 8.45864e-07 -7.27339e-06)
(0.00124237 1.23213e-06 -6.95727e-06)
(0.00123606 1.75972e-06 -6.48764e-06)
(0.00122701 2.65546e-06 -5.77696e-06)
(0.00121237 4.4017e-06 -4.57372e-06)
(0.00127836 1.58951e-07 -4.18175e-06)
(0.00127813 3.40733e-07 -4.98588e-06)
(0.00127606 6.81215e-07 -4.94782e-06)
(0.00127234 1.07974e-06 -4.77587e-06)
(0.0012667 1.57845e-06 -4.5173e-06)
(0.00125852 2.26978e-06 -4.14438e-06)
(0.00124668 3.43378e-06 -3.60938e-06)
(0.00122774 5.61186e-06 -2.83028e-06)
(0.0012969 2.0556e-07 -2.92788e-06)
(0.00129628 4.22773e-07 -3.50022e-06)
(0.00129375 8.10625e-07 -3.4639e-06)
(0.00128935 1.27314e-06 -3.32432e-06)
(0.00128271 1.85533e-06 -3.11929e-06)
(0.00127309 2.65704e-06 -2.83373e-06)
(0.00125927 3.97152e-06 -2.44508e-06)
(0.00123752 6.33252e-06 -1.9299e-06)
(0.00131022 2.36666e-07 -2.12187e-06)
(0.00130939 4.82114e-07 -2.53952e-06)
(0.00130652 9.12912e-07 -2.50899e-06)
(0.00130157 1.426e-06 -2.39958e-06)
(0.00129415 2.06871e-06 -2.2415e-06)
(0.00128345 2.94405e-06 -2.02736e-06)
(0.00126819 4.35007e-06 -1.74696e-06)
(0.00124452 6.81512e-06 -1.39307e-06)
(0.00131978 2.59652e-07 -1.51365e-06)
(0.00131882 5.26652e-07 -1.81147e-06)
(0.00131569 9.91037e-07 -1.78752e-06)
(0.00131032 1.54199e-06 -1.7059e-06)
(0.0013023 2.22756e-06 -1.58946e-06)
(0.00129082 3.15197e-06 -1.43486e-06)
(0.00127453 4.6157e-06 -1.23756e-06)
(0.00124954 7.14639e-06 -9.95544e-07)
(0.00132642 2.76131e-07 -1.01788e-06)
(0.00132536 5.58719e-07 -1.21811e-06)
(0.00132204 1.04754e-06 -1.20117e-06)
(0.00131638 1.62535e-06 -1.14496e-06)
(0.00130794 2.34023e-06 -1.06545e-06)
(0.0012959 3.29691e-06 -9.61283e-07)
(0.00127891 4.79762e-06 -8.30326e-07)
(0.00125304 7.37104e-06 -6.71486e-07)
(0.00133063 2.87035e-07 -5.86262e-07)
(0.00132951 5.79709e-07 -7.01327e-07)
(0.00132607 1.08477e-06 -6.91544e-07)
(0.00132021 1.68017e-06 -6.58841e-07)
(0.00131151 2.41383e-06 -6.12817e-07)
(0.00129912 3.39091e-06 -5.5309e-07)
(0.00128169 4.9157e-06 -4.77739e-07)
(0.00125526 7.51474e-06 -3.82182e-07)
(0.00133265 2.92824e-07 -1.90632e-07)
(0.00133149 5.90077e-07 -2.27698e-07)
(0.001328 1.10224e-06 -2.24725e-07)
(0.00132205 1.70638e-06 -2.14081e-07)
(0.00131322 2.44881e-06 -1.99112e-07)
(0.00130067 3.43614e-06 -1.79825e-07)
(0.00128303 4.97701e-06 -1.55001e-07)
(0.00125626 7.58408e-06 -1.20792e-07)
(1.09308e-05 7.23725e-08 0.00114973)
(1.30776e-05 1.27851e-07 0.00114889)
(1.31548e-05 1.98457e-07 0.00114824)
(1.29808e-05 2.92527e-07 0.0011473)
(1.2715e-05 4.04896e-07 0.00114595)
(1.23458e-05 5.36693e-07 0.00114413)
(1.18492e-05 6.86119e-07 0.00114175)
(1.13079e-05 8.03277e-07 0.00113874)
(1.00547e-05 2.11513e-08 0.0010997)
(1.20342e-05 3.77271e-08 0.00109949)
(1.21003e-05 5.67502e-08 0.0010993)
(1.19489e-05 8.24212e-08 0.00109902)
(1.17254e-05 1.12105e-07 0.00109863)
(1.14243e-05 1.44074e-07 0.00109811)
(1.10382e-05 1.71046e-07 0.00109746)
(1.0708e-05 1.6209e-07 0.00109671)
(1.00418e-05 -2.70428e-08 0.00105277)
(1.20188e-05 -4.56996e-08 0.00105298)
(1.20844e-05 -6.9588e-08 0.00105321)
(1.1933e-05 -1.00411e-07 0.00105354)
(1.171e-05 -1.3707e-07 0.001054)
(1.141e-05 -1.80176e-07 0.00105463)
(1.10258e-05 -2.2871e-07 0.00105544)
(1.06983e-05 -2.6355e-07 0.00105648)
(1.09054e-05 -8.04064e-08 0.00100291)
(1.30452e-05 -1.36982e-07 0.00100376)
(1.312e-05 -2.11694e-07 0.00100444)
(1.29457e-05 -3.09713e-07 0.00100544)
(1.26804e-05 -4.27843e-07 0.00100685)
(1.23126e-05 -5.69225e-07 0.00100876)
(1.18188e-05 -7.38586e-07 0.00101129)
(1.12818e-05 -8.99354e-07 0.00101456)
(-0.000903606 -9.63547e-08 6.85177e-06)
(-0.000902881 -2.51564e-07 8.12936e-06)
(-0.000904348 -5.72774e-07 8.11249e-06)
(-0.00090722 -9.20022e-07 7.89131e-06)
(-0.000911576 -1.33875e-06 7.54482e-06)
(-0.000917854 -1.91504e-06 7.02877e-06)
(-0.00092686 -2.91625e-06 6.2435e-06)
(-0.00094155 -4.95238e-06 4.89368e-06)
(-0.000876477 -1.72336e-07 4.42126e-06)
(-0.000876696 -3.68407e-07 5.23941e-06)
(-0.000878763 -7.40343e-07 5.19106e-06)
(-0.000882477 -1.17274e-06 5.00456e-06)
(-0.000888098 -1.71422e-06 4.72407e-06)
(-0.000896245 -2.4707e-06 4.31857e-06)
(-0.000908024 -3.77243e-06 3.7342e-06)
(-0.000927051 -6.30466e-06 2.87503e-06)
(-0.000858904 -2.23527e-07 3.02815e-06)
(-0.000859518 -4.57468e-07 3.59773e-06)
(-0.000862036 -8.80012e-07 3.55226e-06)
(-0.00086643 -1.38156e-06 3.40144e-06)
(-0.000873045 -2.0136e-06 3.18024e-06)
(-0.000882602 -2.89053e-06 2.87178e-06)
(-0.000896351 -4.35875e-06 2.45083e-06)
(-0.000918167 -7.09737e-06 1.88924e-06)
(-0.00084644 -2.57774e-07 2.16159e-06)
(-0.000847264 -5.21851e-07 2.57079e-06)
(-0.000850126 -9.90306e-07 2.53274e-06)
(-0.00085506 -1.54618e-06 2.41474e-06)
(-0.000862449 -2.24345e-06 2.24466e-06)
(-0.000873069 -3.20009e-06 2.01421e-06)
(-0.000888236 -4.76849e-06 1.71208e-06)
(-0.000911949 -7.62329e-06 1.32891e-06)
(-0.000837595 -2.83051e-07 1.52365e-06)
(-0.00083856 -5.70096e-07 1.81175e-06)
(-0.000841682 -1.07445e-06 1.78199e-06)
(-0.000847026 -1.67087e-06 1.69407e-06)
(-0.000854997 -2.41412e-06 1.56902e-06)
(-0.000866396 -3.42352e-06 1.40308e-06)
(-0.00088257 -5.05455e-06 1.19126e-06)
(-0.000907581 -7.98206e-06 9.30362e-07)
(-0.000831511 -3.01135e-07 1.01526e-06)
(-0.000832571 -6.04765e-07 1.20705e-06)
(-0.000835879 -1.13523e-06 1.18601e-06)
(-0.000841519 -1.76034e-06 1.1255e-06)
(-0.000849902 -2.53489e-06 1.04024e-06)
(-0.000861845 -3.57878e-06 9.28656e-07)
(-0.000878708 -5.24964e-06 7.88457e-07)
(-0.000904589 -8.22417e-06 6.17775e-07)
(-0.000827684 -3.13066e-07 5.81157e-07)
(-0.000828802 -6.27424e-07 6.90621e-07)
(-0.00083223 -1.17521e-06 6.7841e-07)
(-0.000838059 -1.81904e-06 6.43226e-07)
(-0.000846706 -2.61357e-06 5.93914e-07)
(-0.000858993 -3.67914e-06 5.30029e-07)
(-0.000876286 -5.37574e-06 4.49542e-07)
(-0.000902707 -8.37837e-06 3.46949e-07)
(-0.000825854 -3.19376e-07 1.88378e-07)
(-0.000827006 -6.38536e-07 2.23531e-07)
(-0.000830489 -1.19398e-06 2.19753e-07)
(-0.000836409 -1.8471e-06 2.083e-07)
(-0.000845182 -2.65092e-06 1.92268e-07)
(-0.000857629 -3.72725e-06 1.71653e-07)
(-0.000875121 -5.44102e-06 1.45178e-07)
(-0.000901879 -8.45211e-06 1.08378e-07)
(1.13077e-05 -0.00113956 -9.86196e-07)
(1.18661e-05 -0.00114323 -8.3836e-07)
(1.23873e-05 -0.00114616 -6.69958e-07)
(1.27835e-05 -0.00114847 -5.21832e-07)
(1.30767e-05 -0.00115024 -3.91006e-07)
(1.32868e-05 -0.00115152 -2.72808e-07)
(1.34306e-05 -0.00115236 -1.66012e-07)
(1.35055e-05 -0.00115283 -5.78898e-08)
(1.07333e-05 -0.00109747 -3.23353e-07)
(1.10861e-05 -0.00109878 -2.9851e-07)
(1.14951e-05 -0.00109989 -2.50886e-07)
(1.18192e-05 -0.0011008 -2.02547e-07)
(1.20647e-05 -0.00110151 -1.55909e-07)
(1.22434e-05 -0.00110204 -1.10734e-07)
(1.23687e-05 -0.0011024 -6.67961e-08)
(1.24387e-05 -0.00110257 -2.25708e-08)
(1.07338e-05 -0.00105712 1.29308e-07)
(1.10872e-05 -0.00105654 1.24779e-07)
(1.1494e-05 -0.00105609 9.54584e-08)
(1.18153e-05 -0.00105577 6.74789e-08)
(1.20582e-05 -0.00105555 4.5425e-08)
(1.22347e-05 -0.00105541 2.87838e-08)
(1.23586e-05 -0.00105532 1.65634e-08)
(1.24277e-05 -0.00105528 5.73912e-09)
(1.13263e-05 -0.00101504 7.95589e-07)
(1.18919e-05 -0.00101212 6.58727e-07)
(1.24086e-05 -0.00100987 5.05786e-07)
(1.27978e-05 -0.00100817 3.78169e-07)
(1.3084e-05 -0.00100692 2.73189e-07)
(1.32882e-05 -0.00100604 1.85436e-07)
(1.34278e-05 -0.00100548 1.12584e-07)
(1.35008e-05 -0.00100515 4.00141e-08)
)
;
        traction        nonuniform List<vector> 
192
(
(26.7942 0.00190733 -0.134472)
(26.8085 0.00498462 -0.160391)
(26.7772 0.0112604 -0.160188)
(26.7157 0.0181257 -0.155858)
(26.6222 0.0264028 -0.149084)
(26.487 0.0377082 -0.139021)
(26.293 0.0569026 -0.123792)
(25.9793 0.0943222 -0.0980083)
(27.3935 0.0034061 -0.0896089)
(27.3884 0.00730142 -0.10684)
(27.3441 0.0145975 -0.106025)
(27.2645 0.0231373 -0.10234)
(27.1437 0.033824 -0.0967993)
(26.9683 0.0486382 -0.0888082)
(26.7147 0.0735809 -0.077344)
(26.3087 0.120254 -0.0606489)
(27.7907 0.00440487 -0.0627403)
(27.7773 0.00905942 -0.0750048)
(27.7233 0.0173705 -0.0742265)
(27.6289 0.0272816 -0.0712353)
(27.4865 0.039757 -0.066842)
(27.2806 0.0569365 -0.0607228)
(26.9843 0.085104 -0.0523946)
(26.5182 0.135697 -0.0413549)
(28.0762 0.00507141 -0.0454687)
(28.0584 0.010331 -0.0544183)
(27.997 0.0195624 -0.0537641)
(27.8909 0.0305572 -0.0514196)
(27.7317 0.0443295 -0.0480322)
(27.5026 0.0630869 -0.0434433)
(27.1755 0.0932158 -0.0374349)
(26.6683 0.146038 -0.0298516)
(28.2811 0.00556398 -0.0324353)
(28.2603 0.0112854 -0.0388172)
(28.1933 0.0212365 -0.038304)
(28.0783 0.0330426 -0.0365551)
(27.9065 0.0477333 -0.0340599)
(27.6604 0.0675421 -0.0307469)
(27.3113 0.0989078 -0.0265191)
(26.7759 0.153137 -0.0213331)
(28.4234 0.00591708 -0.0218117)
(28.4006 0.0119725 -0.0261023)
(28.3295 0.0224473 -0.0257394)
(28.2081 0.034829 -0.0245348)
(28.0273 0.0501478 -0.0228311)
(27.7694 0.0706481 -0.0205989)
(27.4052 0.102806 -0.0177927)
(26.8508 0.157951 -0.014389)
(28.5135 0.00615074 -0.0125628)
(28.4894 0.0124223 -0.0150284)
(28.4158 0.023245 -0.0148188)
(28.2903 0.0360036 -0.014118)
(28.1037 0.0517248 -0.0131318)
(27.8383 0.0726623 -0.0118519)
(27.4647 0.105336 -0.0102373)
(26.8984 0.16103 -0.00818961)
(28.5567 0.00627479 -0.00408497)
(28.532 0.0126445 -0.00487923)
(28.4571 0.0236193 -0.00481554)
(28.3296 0.0365652 -0.00458744)
(28.1404 0.0524745 -0.00426669)
(27.8714 0.0736316 -0.00385339)
(27.4935 0.10665 -0.00332146)
(26.9199 0.162516 -0.00258841)
(0.234232 0.00155084 24.637)
(0.280235 0.00273965 24.6191)
(0.281888 0.00425265 24.6052)
(0.278159 0.00626843 24.5849)
(0.272465 0.00867633 24.5561)
(0.264553 0.0115006 24.5171)
(0.253912 0.0147025 24.4661)
(0.242312 0.0172131 24.4015)
(0.215458 0.000453242 23.565)
(0.257875 0.000808438 23.5605)
(0.259292 0.00121608 23.5564)
(0.256048 0.00176617 23.5504)
(0.251258 0.00240225 23.542)
(0.244806 0.00308729 23.5309)
(0.236532 0.00366528 23.517)
(0.229457 0.00347336 23.5009)
(0.215181 -0.00057949 22.5593)
(0.257546 -0.000979277 22.564)
(0.258951 -0.00149117 22.5688)
(0.255708 -0.00215167 22.5758)
(0.250929 -0.00293722 22.5858)
(0.244501 -0.00386092 22.5992)
(0.236268 -0.00490093 22.6167)
(0.22925 -0.00564749 22.6389)
(0.233687 -0.00172299 21.4909)
(0.279539 -0.00293532 21.5091)
(0.281144 -0.00453631 21.5238)
(0.277407 -0.00663671 21.5451)
(0.271722 -0.00916805 21.5754)
(0.263841 -0.0121977 21.6164)
(0.253261 -0.0158268 21.6704)
(0.241752 -0.0192719 21.7405)
(-19.363 -0.00206474 0.146824)
(-19.3475 -0.00539066 0.174201)
(-19.3789 -0.0122737 0.173839)
(-19.4404 -0.0197148 0.1691)
(-19.5338 -0.0286875 0.161675)
(-19.6683 -0.0410367 0.150616)
(-19.8613 -0.0624911 0.133789)
(-20.1761 -0.106122 0.104865)
(-18.7816 -0.00369291 0.0947413)
(-18.7863 -0.00789443 0.112273)
(-18.8306 -0.0158645 0.111237)
(-18.9102 -0.0251302 0.107241)
(-19.0307 -0.0367334 0.10123)
(-19.2052 -0.0529437 0.0925409)
(-19.4577 -0.0808377 0.0800185)
(-19.8654 -0.1351 0.0616077)
(-18.4051 -0.00478987 0.064889)
(-18.4182 -0.00980289 0.0770943)
(-18.4722 -0.0188574 0.0761199)
(-18.5664 -0.0296049 0.0728881)
(-18.7081 -0.0431486 0.0681481)
(-18.9129 -0.06194 0.0615382)
(-19.2075 -0.0934018 0.0525179)
(-19.675 -0.152086 0.0404836)
(-18.138 -0.00552373 0.0463197)
(-18.1556 -0.0111825 0.0550883)
(-18.217 -0.0212208 0.054273)
(-18.3227 -0.0331325 0.0517444)
(-18.481 -0.048074 0.0480998)
(-18.7086 -0.0685733 0.0431617)
(-19.0336 -0.102182 0.0366875)
(-19.5418 -0.163356 0.0284766)
(-17.9485 -0.00606538 0.0326497)
(-17.9691 -0.0122163 0.0388231)
(-18.036 -0.023024 0.0381856)
(-18.1506 -0.0358044 0.0363015)
(-18.3214 -0.0517312 0.0336219)
(-18.5656 -0.0733611 0.0300661)
(-18.9122 -0.108312 0.0255271)
(-19.4482 -0.171044 0.0199363)
(-17.8181 -0.00645288 0.0217555)
(-17.8408 -0.0129593 0.0258653)
(-17.9117 -0.0243264 0.0254145)
(-18.0325 -0.0377215 0.0241178)
(-18.2122 -0.0543192 0.0222908)
(-18.4681 -0.0766882 0.0198998)
(-18.8294 -0.112492 0.0168955)
(-19.3841 -0.176232 0.013238)
(-17.7361 -0.00670857 0.0124534)
(-17.7601 -0.0134448 0.014799)
(-17.8335 -0.0251831 0.0145374)
(-17.9584 -0.0389794 0.0137834)
(-18.1437 -0.0560052 0.0127267)
(-18.407 -0.0788387 0.0113578)
(-18.7775 -0.115194 0.00963305)
(-19.3437 -0.179537 0.00743463)
(-17.6969 -0.00684377 0.00403667)
(-17.7216 -0.0136829 0.00478996)
(-17.7962 -0.0255853 0.00470898)
(-17.9231 -0.0395806 0.00446357)
(-18.111 -0.0568055 0.00412003)
(-18.3778 -0.0798697 0.00367828)
(-18.7526 -0.116593 0.00311095)
(-19.326 -0.181117 0.00232238)
(0.242309 -24.4191 -0.0211328)
(0.254273 -24.4977 -0.0179648)
(0.265441 -24.5605 -0.0143563)
(0.273931 -24.61 -0.0111821)
(0.280215 -24.6479 -0.00837869)
(0.284717 -24.6755 -0.00584588)
(0.287799 -24.6935 -0.0035574)
(0.289404 -24.7035 -0.0012405)
(0.229999 -23.5171 -0.006929)
(0.237559 -23.5453 -0.00639663)
(0.246324 -23.5691 -0.00537612)
(0.253268 -23.5885 -0.00434029)
(0.25853 -23.6038 -0.00334091)
(0.262358 -23.6152 -0.00237288)
(0.265043 -23.6228 -0.00143135)
(0.266544 -23.6265 -0.00048366)
(0.23001 -22.6525 0.00277088)
(0.237582 -22.6402 0.00267384)
(0.2463 -22.6305 0.00204554)
(0.253185 -22.6237 0.00144598)
(0.25839 -22.6189 0.000973392)
(0.262173 -22.6158 0.000616796)
(0.264827 -22.614 0.00035493)
(0.266308 -22.6131 0.000122981)
(0.242706 -21.7508 0.0170483)
(0.254825 -21.6882 0.0141156)
(0.265899 -21.64 0.0108383)
(0.274239 -21.6037 0.00810362)
(0.280372 -21.5769 0.00585405)
(0.284748 -21.558 0.00397363)
(0.287739 -21.5459 0.00241252)
(0.289303 -21.5389 0.000857445)
)
;
        pressure        uniform 0;
        value           nonuniform List<vector> 
192
(
(0.0011453 0.00113899 0.00061202)
(0.00248749 0.00222393 0.000617522)
(0.004661 0.00324474 0.000526042)
(0.00716518 0.00395275 0.000343162)
(0.00995633 0.00439367 0.000145323)
(0.0128771 0.00459707 -3.83827e-05)
(0.0158252 0.00462544 -0.000182615)
(0.0187338 0.00456036 -0.00027495)
(0.00122783 0.00119654 0.000311104)
(0.00270213 0.00220533 0.000367426)
(0.00482187 0.00321873 0.000330886)
(0.00728702 0.00392722 0.000224955)
(0.0100114 0.00437288 9.7778e-05)
(0.0128675 0.00458584 -2.58438e-05)
(0.0157593 0.00462574 -0.000126538)
(0.0186311 0.00457613 -0.00019285)
(0.00128806 0.00124274 0.000154806)
(0.00279571 0.00220173 0.00019501)
(0.00491748 0.00318765 0.000179879)
(0.00735823 0.00388567 0.000122227)
(0.0100458 0.00433123 4.62054e-05)
(0.0128626 0.00455386 -3.09212e-05)
(0.0157199 0.00460998 -9.64461e-05)
(0.0185673 0.00458178 -0.000142108)
(0.0013174 0.00126594 7.46394e-05)
(0.00283827 0.00220092 9.63992e-05)
(0.00496286 0.00316956 8.73748e-05)
(0.00739257 0.00385678 5.45796e-05)
(0.0100614 0.00430042 1.01405e-05)
(0.0128564 0.00452878 -3.66588e-05)
(0.0156936 0.00459621 -7.84669e-05)
(0.0185253 0.00458235 -0.000109815)
(0.00133048 0.00127646 3.43389e-05)
(0.00285547 0.00220056 4.36835e-05)
(0.00498037 0.00316054 3.66038e-05)
(0.00740454 0.00384149 1.69219e-05)
(0.0100639 0.0042835 -9.33633e-06)
(0.0128472 0.00451486 -3.76377e-05)
(0.0156725 0.00458871 -6.42328e-05)
(0.0184934 0.00458305 -8.56794e-05)
(0.00133599 0.00128088 1.47564e-05)
(0.00286119 0.00220023 1.75483e-05)
(0.00498494 0.00315658 1.19414e-05)
(0.00740579 0.00383478 -3.62784e-08)
(0.0100601 0.0042761 -1.54602e-05)
(0.0128371 0.00450904 -3.22791e-05)
(0.0156554 0.0045862 -4.87599e-05)
(0.018469 0.00458477 -6.28714e-05)
(0.00133814 0.00128257 5.65919e-06)
(0.00286237 0.00219995 5.88192e-06)
(0.00498471 0.00315507 2.20765e-06)
(0.00740348 0.0038324 -4.39117e-06)
(0.0100551 0.00427365 -1.26072e-05)
(0.0128287 0.00450745 -2.16093e-05)
(0.0156429 0.0045862 -3.06885e-05)
(0.0184519 0.00458679 -3.87905e-05)
(0.00133882 0.0012831 1.4197e-06)
(0.0028623 0.00219979 1.26427e-06)
(0.00498373 0.00315462 -1.79518e-08)
(0.00740147 0.00383178 -2.14099e-06)
(0.0100518 0.00427313 -4.73424e-06)
(0.0128239 0.00450732 -7.58051e-06)
(0.0156362 0.0045867 -1.04929e-05)
(0.018443 0.00458798 -1.31453e-05)
(0.000450264 0.000646208 0.00092148)
(0.00204551 0.0013437 0.000605001)
(0.00421492 0.00209884 0.0005568)
(0.0068142 0.00260719 0.000366154)
(0.00969812 0.00292786 0.000183347)
(0.0127089 0.00308187 1.44432e-05)
(0.0157246 0.00311333 -0.000115197)
(0.018674 0.00307195 -0.000207848)
(7.6168e-05 0.000172472 0.000229572)
(0.00156108 0.000337816 0.000196709)
(0.00374486 0.000556713 0.000144089)
(0.00639466 0.00065846 8.43335e-05)
(0.00932353 0.000673402 2.69337e-05)
(0.0123752 0.000619318 -2.53068e-05)
(0.0154249 0.000519499 -6.93463e-05)
(0.0183837 0.000401573 -0.000112726)
(4.37998e-05 -0.000292373 -0.000357092)
(0.00148937 -0.000474221 -0.000357529)
(0.00364398 -0.00082102 -0.000322271)
(0.00627237 -0.00114275 -0.00024747)
(0.00918263 -0.00145258 -0.000168694)
(0.012221 -0.00173302 -9.72071e-05)
(0.0152634 -0.00197793 -4.0679e-05)
(0.0182152 -0.00218707 5.15575e-06)
(0.00035034 -0.000860846 -0.00107609)
(0.00181178 -0.00153395 -0.000799748)
(0.00388765 -0.00242786 -0.000760532)
(0.00641778 -0.00315438 -0.000550183)
(0.0092445 -0.00376048 -0.000343879)
(0.0122161 -0.00423411 -0.000153)
(0.0152124 -0.00459373 -3.77359e-06)
(0.0181478 -0.0048712 9.74324e-05)
(0.000951272 -0.00128054 -0.000776136)
(0.00215415 -0.00246342 -0.000835661)
(0.00418979 -0.00367539 -0.000747692)
(0.00658538 -0.00459714 -0.000540163)
(0.00929616 -0.00529903 -0.000314225)
(0.0121707 -0.00579309 -0.000105442)
(0.0151028 -0.00612513 5.91169e-05)
(0.0180113 -0.00635159 0.00016111)
(0.00100533 -0.00132956 -0.000439168)
(0.00237986 -0.00246957 -0.000543339)
(0.00434711 -0.00367364 -0.000509893)
(0.00669577 -0.00459617 -0.00038473)
(0.00933432 -0.00528864 -0.000234191)
(0.0121421 -0.00577393 -9.08711e-05)
(0.0150199 -0.0060991 2.23599e-05)
(0.017899 -0.00632614 8.88718e-05)
(0.00105003 -0.00138542 -0.000245086)
(0.00247108 -0.00247347 -0.00032592)
(0.00444051 -0.00364556 -0.000318276)
(0.00676182 -0.0045526 -0.000250015)
(0.00936102 -0.00523487 -0.000157801)
(0.0121277 -0.00571661 -6.66924e-05)
(0.0149705 -0.00604377 5.76946e-06)
(0.0178236 -0.00627755 4.4215e-05)
(0.00107004 -0.00141354 -0.000134159)
(0.00250889 -0.00247111 -0.000189083)
(0.00448215 -0.00361914 -0.000189197)
(0.00679245 -0.0045085 -0.000151838)
(0.0093722 -0.00518066 -9.75902e-05)
(0.0121164 -0.00565834 -4.22054e-05)
(0.0149381 -0.00598613 1.56267e-06)
(0.0177737 -0.006224 2.10115e-05)
(0.00107723 -0.00142509 -7.16396e-05)
(0.00252172 -0.00246534 -0.000106404)
(0.00449596 -0.00359764 -0.00010802)
(0.00680132 -0.00447381 -8.72445e-05)
(0.00937165 -0.00513719 -5.57513e-05)
(0.0121039 -0.00561023 -2.30514e-05)
(0.0149131 -0.0059367 2.25065e-06)
(0.0177368 -0.00617568 1.05795e-05)
(0.00107897 -0.00142875 -3.67287e-05)
(0.00252403 -0.00245898 -5.72527e-05)
(0.00449744 -0.0035815 -5.85611e-05)
(0.00679999 -0.00444895 -4.70397e-05)
(0.00936553 -0.00510582 -2.9215e-05)
(0.0120914 -0.0055747 -1.06486e-05)
(0.0148933 -0.00589903 3.22908e-06)
(0.0177092 -0.00613751 5.87446e-06)
(0.00107882 -0.00142931 -1.70373e-05)
(0.00252293 -0.00245389 -2.76547e-05)
(0.00449504 -0.00357071 -2.83686e-05)
(0.00679582 -0.00443297 -2.25164e-05)
(0.00935885 -0.00508566 -1.34071e-05)
(0.0120814 -0.00555153 -3.9563e-06)
(0.0148792 -0.00587396 2.85186e-06)
(0.0176904 -0.00611154 3.21658e-06)
(0.00107843 -0.00142911 -4.91795e-06)
(0.00252171 -0.00245112 -8.17883e-06)
(0.00449296 -0.00356531 -8.39477e-06)
(0.00679285 -0.00442514 -6.59747e-06)
(0.00935475 -0.0050758 -3.799e-06)
(0.0120758 -0.00554012 -9.07601e-07)
(0.0148718 -0.00586149 1.12653e-06)
(0.0176806 -0.00609843 1.05046e-06)
(0.0200285 0.00305772 -0.000200657)
(0.0199214 0.00308004 -0.000151853)
(0.0198604 0.00309809 -0.00011718)
(0.0198165 0.00310795 -9.21275e-05)
(0.0197811 0.00311559 -7.2372e-05)
(0.019753 0.00312194 -5.33042e-05)