/*--------------------------------*- C++ -*----------------------------------*\
| =========                 |                                                 |
| \\      /  F ield         | foam-extend: Open Source CFD                    |
|  \\    /   O peration     | Version:     3.1                                |
|   \\  /    A nd           | Web:         http://www.extend-project.de       |
|    \\/     M anipulation  |                                                 |
\*---------------------------------------------------------------------------*/
FoamFile
{
    version     2.0;
    format      ascii;
    class       volSymmTensorField;
    location    "1.3";
    object      epsilon;
}
// * * * * * * * * * * * * * * * * * * * * * * * * * * * * * * * * * * * * * //

dimensions      [0 0 0 0 0 0 0];

internalField   nonuniform List<symmTensor> 
256
(
(-0.0107667 0.0139889 -0.000662144 0.0406134 0.00737056 -0.00442702)
(-0.00353013 0.0117853 -0.00191734 0.00950789 0.00246263 -0.00164849)
(0.00193743 0.011011 -0.00199163 -0.0113293 -0.00380665 0.0018548)
(0.00842055 0.0117849 -0.000797039 -0.0405978 -0.00908442 0.00463047)
(-0.0187596 0.00574242 -0.000826269 0.0264047 -0.00201857 -0.00680543)
(-0.00734362 0.0152108 -0.00307275 0.0100133 -0.000859929 -0.00253094)
(0.00373179 0.0149155 -0.00322071 -0.00849849 0.000718127 0.00294822)
(0.0148291 0.00552496 -0.0011054 -0.0247965 0.00189186 0.00735447)
(-0.0155472 0.00700316 -0.000442906 0.0245102 -0.00101058 -0.00424894)
(-0.00734203 0.0146931 -0.0021763 0.00899452 -0.000351121 -0.00154136)
(0.00298342 0.014725 -0.00226448 -0.00703583 0.000229318 0.00203375)
(0.0113298 0.00711533 -0.000649681 -0.0225764 0.000934931 0.00499849)
(-0.0131091 0.00612214 -0.00045276 0.0182732 -0.00158865 -0.00282153)
(-0.00639046 0.0133999 -0.00181612 0.00705366 -0.000468008 -0.000973111)
(0.00205829 0.0134806 -0.00189005 -0.00501402 0.000436195 0.00157236)
(0.00885913 0.00628331 -0.000674895 -0.0161744 0.00160764 0.00368427)
(-0.0103441 0.00532059 -0.000372841 0.0129789 -0.00148089 -0.00120473)
(-0.00533662 0.0115419 -0.00147042 0.00523282 -0.000406437 -0.000382473)
(0.00127874 0.0116409 -0.0015432 -0.00333728 0.000408411 0.00098361)
(0.00626497 0.00550603 -0.000590167 -0.0109477 0.00152871 0.00207224)
(-0.00809226 0.0041252 -0.000374954 0.00836717 -0.00129208 8.67988e-05)
(-0.00439376 0.00924982 -0.00125283 0.00361409 -0.000350448 7.85634e-05)
(0.000716975 0.00939614 -0.00131087 -0.00198625 0.000368751 0.000477476)
(0.00429193 0.0043913 -0.000562068 -0.0065319 0.00137184 0.000718166)
(-0.00652871 0.00267436 -0.000448971 0.00516848 -0.00102539 0.00111554)
(-0.0037196 0.00666803 -0.00112096 0.00236797 -0.000321475 0.000451009)
(0.000423253 0.00685018 -0.00114101 -0.00104215 0.000292839 1.25428e-05)
(0.00309849 0.00308256 -0.000554771 -0.0034697 0.00108207 -0.000451956)
(-0.00651598 0.00139524 -0.000539926 0.00346718 -0.00047198 0.00183729)
(-0.00423101 0.00364451 -0.0010064 0.00182108 -0.000156995 0.000696083)
(0.000864663 0.00366566 -0.0010192 -0.000442223 0.000111234 -0.000432231)
(0.00325673 0.00148188 -0.000591993 -0.00184142 0.000436292 -0.00142887)
(-0.0108389 0.0159402 -0.000463433 0.0391355 0.00457799 -0.00286686)
(-0.00327578 0.0142479 -0.00157048 0.00898191 0.00139297 -0.00103133)
(0.00174637 0.0135598 -0.00170117 -0.010055 -0.00272302 0.00133458)
(0.00839068 0.0137738 -0.000707805 -0.0384218 -0.0062393 0.0033093)
(-0.0188409 0.00598945 -0.000761399 0.0284974 -0.000501126 -0.00524152)
(-0.00685287 0.015802 -0.00295417 0.0108706 -0.000356558 -0.00185534)
(0.00329823 0.0156083 -0.00319338 -0.0100554 -5.42382e-05 0.0025337)
(0.0147673 0.00593624 -0.00121469 -0.02766 0.000119315 0.00624302)
(-0.0153439 0.00622634 -0.00050091 0.0245311 -0.0015915 -0.00404977)
(-0.0067529 0.0135902 -0.00244476 0.00900887 -0.000548378 -0.00139525)
(0.00251398 0.0136034 -0.00265266 -0.00734492 0.000543285 0.0021199)
(0.0110427 0.00627147 -0.000961786 -0.0228587 0.00164025 0.00513521)
(-0.0127099 0.00515516 -0.000290882 0.0183977 -0.00208618 -0.00253678)
(-0.00578363 0.0117536 -0.00183721 0.00710844 -0.000611096 -0.000871822)
(0.00153879 0.0118012 -0.00204354 -0.00512739 0.000796013 0.00153852)
(0.00832483 0.00526388 -0.000785215 -0.0163491 0.0023423 0.00357243)
(-0.00996068 0.00425435 -8.45988e-05 0.0128766 -0.00210156 -0.0010052)
(-0.00478524 0.00977377 -0.0013311 0.00522251 -0.000572361 -0.000361048)
(0.000782829 0.00984222 -0.00153511 -0.00322105 0.000855915 0.000954323)
(0.00571134 0.00440159 -0.000577307 -0.0107383 0.00246178 0.00195765)
(-0.00773001 0.00318257 2.94657e-05 0.00822107 -0.0018242 0.000312071)
(-0.00390041 0.00768796 -0.000962736 0.00358295 -0.000471823 7.61779e-05)
(0.000253868 0.00781172 -0.00114468 -0.00176133 0.000790229 0.000438671)
(0.00373679 0.00343715 -0.000419062 -0.00618809 0.00224081 0.000534383)
(-0.00619715 0.00194645 4.05141e-05 0.00496675 -0.00134339 0.00132109)
(-0.00328847 0.00551211 -0.000739852 0.00228781 -0.000351017 0.000411205)
(1.6095e-05 0.00569292 -0.000878029 -0.000755432 0.00061785 -2.89773e-06)
(0.0025898 0.00239947 -0.000304915 -0.00301757 0.0017402 -0.000629264)
(-0.00619232 0.00107713 -3.86773e-05 0.00336861 -0.000614756 0.00196486)
(-0.00384972 0.00311134 -0.000669922 0.00179015 -0.000145677 0.000583375)
(0.000481251 0.00313861 -0.000808747 -0.000222863 0.000309142 -0.000439373)
(0.00278069 0.00120769 -0.000332403 -0.00149994 0.000853176 -0.00158262)
(-0.0113404 0.0166779 -0.000322256 0.0393508 0.0023134 -0.00162699)
(-0.00346166 0.0148232 -0.00102927 0.00900766 0.000610745 -0.000540558)
(0.00186746 0.0141076 -0.00112923 -0.00987032 -0.00166533 0.000853481)
(0.00875466 0.0143778 -0.000497293 -0.0384691 -0.00356036 0.00204693)
(-0.019814 0.00609922 -0.000624219 0.0278529 -0.000270902 -0.00317204)
(-0.00728597 0.0160585 -0.00206433 0.010806 -0.000239102 -0.00101063)
(0.0035627 0.01588 -0.0022506 -0.00992193 -0.000137251 0.00173088)
(0.0155351 0.00604676 -0.000951856 -0.026962 -4.69288e-05 0.00410058)
(-0.0161193 0.00613685 -0.000523861 0.0243145 -0.0011512 -0.00269862)
(-0.00716246 0.0135036 -0.00189029 0.00903921 -0.00040383 -0.000792349)
(0.00269875 0.0135141 -0.00205526 -0.00730788 0.000432737 0.00160567)
(0.0116021 0.00614385 -0.000838711 -0.0225617 0.00123976 0.00370026)
(-0.0132116 0.00497108 -0.000356438 0.0183339 -0.0016018 -0.00176719)
(-0.00608203 0.0113516 -0.00148699 0.00715853 -0.000463098 -0.000462414)
(0.00154443 0.011397 -0.00164367 -0.00503659 0.00073459 0.0012468)
(0.00854306 0.00507111 -0.000669108 -0.0161532 0.00193567 0.00272157)
(-0.0103 0.00399751 -0.000185983 0.0129516 -0.00167137 -0.000700296)
(-0.00501595 0.00925875 -0.00106972 0.00531598 -0.000431401 -0.000105195)
(0.000677475 0.00933443 -0.00121798 -0.00311323 0.000845526 0.000826224)
(0.00572355 0.00416149 -0.00048331 -0.0106113 0.00214985 0.00157171)
(-0.0079334 0.00292033 -6.66374e-05 0.00841117 -0.00147488 0.000274614)
(-0.00406728 0.00719118 -0.000742019 0.00370128 -0.000341866 0.00021477)
(7.55165e-05 0.00733881 -0.000870191 -0.00163953 0.000816407 0.000432763)
(0.00359263 0.00322878 -0.000325546 -0.00612159 0.0020262 0.00050191)
(-0.00627874 0.0017095 -2.83984e-05 0.00525316 -0.00108964 0.00103762)
(-0.00339278 0.00514141 -0.000551242 0.00241627 -0.000230778 0.000460954)
(-0.000203982 0.00536562 -0.00065152 -0.000641815 0.00065503 0.000100425)
(0.00233822 0.002265 -0.000223927 -0.00301199 0.00161455 -0.00037449)
(-0.00617133 0.000977956 -0.000105825 0.00364502 -0.00048011 0.0015024)
(-0.0039207 0.00295707 -0.000569721 0.00191962 -7.53663e-05 0.000593551)
(0.000202366 0.00301697 -0.000687464 -0.000143133 0.000309951 -0.000157643)
(0.00243766 0.00117944 -0.000297679 -0.00151617 0.000769776 -0.000977066)
(-0.0117 0.0169026 -0.00019443 0.0394622 0.0010388 -0.000847834)
(-0.00361855 0.0148715 -0.000630054 0.00903981 0.00021252 -0.000254231)
(0.00194941 0.0141192 -0.000693876 -0.00975869 -0.000973268 0.000532526)
(0.00902803 0.0144978 -0.000307157 -0.0384242 -0.00189893 0.00119397)
(-0.0205278 0.00611159 -0.000408936 0.0273527 -0.000242556 -0.00169129)
(-0.0076422 0.0161446 -0.00133362 0.010754 -0.000178149 -0.000469992)
(0.00373896 0.0159667 -0.00145564 -0.00965336 -0.000105194 0.00112605)
(0.0161049 0.00606093 -0.000626916 -0.0262695 1.31444e-05 0.00247023)
(-0.0167907 0.00615866 -0.000393881 0.0240424 -0.000777319 -0.00147053)
(-0.00753969 0.0135623 -0.0013258 0.00904919 -0.000263732 -0.000340434)
(0.00284434 0.0135777 -0.00143398 -0.00710118 0.000319527 0.00111704)
(0.0121139 0.00616342 -0.000598594 -0.0220802 0.000883368 0.0023454)
(-0.0137568 0.00496213 -0.000300924 0.0182452 -0.00107826 -0.000920925)
(-0.00641178 0.0113403 -0.00110229 0.00721906 -0.000289878 -0.000131406)
(0.0015981 0.0113935 -0.00119873 -0.00486629 0.000577669 0.000918241)
(0.00888986 0.00507252 -0.000492675 -0.0158443 0.00141285 0.00178634)
(-0.0106984 0.00396218 -0.00018546 0.0130309 -0.001146 -0.000236944)
(-0.00529147 0.00919774 -0.000822248 0.00542839 -0.00026143 0.000105095)
(0.000649194 0.0092878 -0.00090809 -0.00297639 0.000694791 0.000648573)
(0.00589355 0.00415174 -0.000358481 -0.0104438 0.00162674 0.00105086)
(-0.00819921 0.00286784 -9.56566e-05 0.00862226 -0.00103399 0.000422046)
(-0.00428723 0.00711476 -0.000586571 0.00384972 -0.000199973 0.00032647)
(-1.33804e-05 0.00728639 -0.000656645 -0.00152987 0.000692199 0.000383969)
(0.00361296 0.00322232 -0.000238477 -0.00606268 0.00158164 0.000329772)
(-0.0064228 0.00164868 -6.70294e-05 0.00555194 -0.000789905 0.000957167)
(-0.00356019 0.00508705 -0.000462871 0.00257667 -0.000131284 0.000509484)
(-0.000339392 0.00534333 -0.000515659 -0.000562795 0.000564648 0.000173051)
(0.00223301 0.00227186 -0.000167808 -0.00303408 0.00129331 -0.00025617)
(-0.00622804 0.000959349 -0.000154745 0.00393901 -0.000372303 0.00129945)
(-0.00407161 0.00294423 -0.000547114 0.00206946 -4.19736e-05 0.000638498)
(9.22867e-06 0.00302177 -0.00061702 -0.000113952 0.000268991 6.32637e-05)
(0.00223038 0.00119885 -0.000259046 -0.00160127 0.00063176 -0.000587378)
(-0.011917 0.016924 -0.000108364 0.0394664 0.000394742 -0.000406011)
(-0.00371949 0.0147597 -0.000367459 0.00906948 3.47849e-05 -0.000100258)
(0.0019898 0.0139783 -0.000405476 -0.00965171 -0.000545675 0.000326021)
(0.0091862 0.0144446 -0.0001773 -0.0382644 -0.000952016 0.000669765)
(-0.0209877 0.00608197 -0.000244052 0.0270758 -0.000225805 -0.000799204)
(-0.00787346 0.0161219 -0.000816863 0.0107508 -0.000133568 -0.000164354)
(0.00382726 0.0159428 -0.000892245 -0.00941227 -6.19846e-05 0.000713529)
(0.0164543 0.00603712 -0.000382566 -0.0257806 7.0587e-05 0.00141368)
(-0.0172708 0.00617078 -0.000261374 0.0238683 -0.000521049 -0.000645531)
(-0.00779649 0.0136044 -0.000870968 0.00907877 -0.000164512 -6.26782e-05)
(0.00292288 0.0136267 -0.000938831 -0.00688508 0.000230032 0.000744843)
(0.0124672 0.00618325 -0.000390234 -0.0216732 0.000623617 0.00137268)
(-0.0141862 0.00498595 -0.000217615 0.0181869 -0.000691394 -0.000289256)
(-0.0066507 0.011404 -0.000761947 0.00728498 -0.000164621 8.42469e-05)
(0.00163548 0.0114663 -0.000819454 -0.00468755 0.000422608 0.000638408)
(0.00916622 0.00511076 -0.000332925 -0.0155501 0.000981715 0.00103995)
(-0.0110435 0.00398416 -0.000149679 0.0130908 -0.000734477 0.000161)
(-0.00549978 0.00926022 -0.0005938 0.00553018 -0.000138632 0.000249516)
(0.000641735 0.00936257 -0.000642029 -0.00283545 0.00052071 0.000473351)
(0.00606572 0.00419633 -0.000248699 -0.0102631 0.00114903 0.000575034)
(-0.00845495 0.00287975 -9.37666e-05 0.00877353 -0.000675263 0.000611501)
(-0.00445994 0.00716876 -0.000445154 0.00397488 -0.00010034 0.000411966)
(-5.93817e-05 0.00735736 -0.000481878 -0.00142357 0.000528324 0.000309236)
(0.00368321 0.00326802 -0.000170951 -0.00597432 0.00114103 0.000107898)
(-0.00659301 0.00164676 -8.21568e-05 0.0057549 -0.000535004 0.000997129)
(-0.00369971 0.00513417 -0.00038062 0.00270353 -6.53667e-05 0.000562363)
(-0.00041849 0.00541024 -0.000406275 -0.000491379 0.000434562 0.000196718)
(0.00221311 0.00231539 -0.000131808 -0.00301617 0.000950468 -0.000256859)
(-0.0063447 0.000965343 -0.000170385 0.0041342 -0.000262909 0.0012544)
(-0.0042083 0.00297819 -0.000491374 0.00218257 -1.94143e-05 0.000693742)
(-0.000106412 0.00306308 -0.00052983 -8.28198e-05 0.000205906 0.000196945)
(0.00214444 0.0012275 -0.000224145 -0.00163912 0.000468883 -0.000388082)
(-0.0120371 0.0168793 -5.53443e-05 0.0394287 0.000105015 -0.000165457)
(-0.0037808 0.0146254 -0.000202533 0.00909591 -2.75185e-05 -2.20267e-05)
(0.00200712 0.0138229 -0.000223985 -0.00955802 -0.000289103 0.00019735)
(0.00926642 0.014349 -9.57613e-05 -0.0380812 -0.000440709 0.000360558)
(-0.0212606 0.00604046 -0.000133016 0.0269369 -0.000184971 -0.000294214)
(-0.00801623 0.0160568 -0.000470532 0.0107735 -9.41208e-05 -3.76205e-06)
(0.00386659 0.0158761 -0.000514776 -0.00922683 -3.00206e-05 0.000446983)
(0.016646 0.00600166 -0.000217379 -0.0254559 8.78753e-05 0.000769461)
(-0.0175802 0.00616776 -0.000155982 0.0237835 -0.00033739 -0.000146185)
(-0.0079606 0.013613 -0.00053218 0.00912101 -9.83542e-05 9.16597e-05)
(0.00296038 0.0136407 -0.000572909 -0.00671009 0.000156854 0.00048808)
(0.0126828 0.00618832 -0.000234589 -0.0213825 0.000420765 0.000742668)
(-0.0144794 0.00500423 -0.000138786 0.0181658 -0.000423705 0.000121137)
(-0.00680908 0.0114562 -0.000486114 0.00734753 -8.70563e-05 0.000210125)
(0.00165536 0.0115254 -0.00051944 -0.00453769 0.000286491 0.000431751)
(0.0093486 0.00514112 -0.00020716 -0.0153229 0.000643981 0.000523796)
(-0.0112933 0.00400949 -0.000102917 0.0131359 -0.000445068 0.000448002)
(-0.00564207 0.00932996 -0.00039428 0.00561189 -6.5666e-05 0.000339612)
(0.00063882 0.00944099 -0.000420897 -0.00271477 0.000356798 0.00033227)
(0.00619223 0.00423839 -0.000159521 -0.0101066 0.000756826 0.000215467)
(-0.00865203 0.00290121 -7.26367e-05 0.00886849 -0.000414342 0.000782561)
(-0.00458124 0.00723837 -0.000310483 0.00406649 -4.31404e-05 0.000473121)
(-8.42583e-05 0.00743829 -0.000329379 -0.00133225 0.000365277 0.000237155)
(0.00374877 0.0033128 -0.000114587 -0.00588092 0.00076019 -9.1923e-05)
(-0.00673739 0.00165673 -7.218e-05 0.00587431 -0.000338484 0.0010848)
(-0.00380119 0.00519305 -0.000284583 0.00279016 -2.78978e-05 0.000610718)
(-0.000463416 0.00548163 -0.000296559 -0.000430187 0.00030131 0.00019446)
(0.00222304 0.00235552 -9.66283e-05 -0.00297434 0.000640251 -0.000311441)
(-0.00646046 0.00097274 -0.000144908 0.00424948 -0.000172961 0.00129992)
(-0.00431252 0.00301336 -0.000385799 0.0022576 -7.38812e-06 0.000750239)
(-0.00017103 0.0031019 -0.000406475 -5.24075e-05 0.000142391 0.00026575)
(0.00211739 0.00124905 -0.000172599 -0.00164262 0.000318529 -0.000319134)
(-0.0120988 0.0168296 -2.49437e-05 0.0393882 3.63996e-06 -4.25302e-05)
(-0.00381551 0.014521 -9.93599e-05 0.00911598 -3.30567e-05 1.50344e-05)
(0.00201332 0.013705 -0.000110171 -0.00948945 -0.000136557 0.000122763)
(0.00930288 0.0142674 -4.60148e-05 -0.037934 -0.000179738 0.000189981)
(-0.0214101 0.0060053 -6.36746e-05 0.0268726 -0.000120755 -2.9302e-05)
(-0.00809837 0.0159939 -0.000239227 0.0108 -5.62294e-05 7.41909e-05)
(0.0038817 0.0158118 -0.000262296 -0.00910244 -1.16081e-05 0.000288661)
(0.0167417 0.00597106 -0.000108979 -0.0252569 6.83508e-05 0.000406012)
(-0.0177613 0.00615893 -8.04856e-05 0.0237504 -0.000191385 0.000127529)
(-0.00805751 0.0136046 -0.000282999 0.00915964 -5.23369e-05 0.000169728)
(0.00297615 0.0136356 -0.000304697 -0.00659048 9.18742e-05 0.000329219)
(0.0128016 0.00618525 -0.000122889 -0.0211993 0.00024514 0.000373299)
(-0.0146581 0.0050131 -7.52466e-05 0.0181658 -0.000229761 0.000357312)
(-0.00690494 0.0114849 -0.000266994 0.00739632 -4.11935e-05 0.000276599)
(0.00166407 0.0115583 -0.000284408 -0.00443302 0.000165933 0.000298614)
(0.00945463 0.00515803 -0.000111592 -0.0151735 0.000366092 0.000208416)
(-0.0114514 0.00402584 -5.87812e-05 0.0131677 -0.000238226 0.000625709)
(-0.00572992 0.00937681 -0.000223238 0.00566894 -2.71149e-05 0.000390518)
(0.000636598 0.00949315 -0.000236709 -0.00262881 0.00020744 0.000236719)
(0.0062704 0.00426548 -8.81998e-05 -0.00999597 0.000429799 -1.70077e-05)
(-0.00878172 0.00291659 -4.49543e-05 0.00892278 -0.00022337 0.000903474)
(-0.00465748 0.00728831 -0.000182613 0.00412565 -1.53095e-05 0.000512261)
(-9.7857e-05 0.00749502 -0.000191642 -0.00126642 0.000213185 0.000183603)
(0.0037942 0.00334282 -6.58494e-05 -0.00580726 0.000433907 -0.000234614)
(-0.00683798 0.00166502 -4.84709e-05 0.00593735 -0.00018663 0.00116506)
(-0.00386637 0.00523537 -0.000175741 0.00284283 -9.75977e-06 0.000646969)
(-0.00048763 0.00553111 -0.000180928 -0.000385536 0.000175985 0.000184213)
(0.00223851 0.00238202 -5.94729e-05 -0.00293311 0.000367415 -0.000369681)
(-0.00654751 0.00097826 -9.60367e-05 0.00430879 -9.87373e-05 0.00136239)
(-0.00438122 0.00303826 -0.000244485 0.0023016 -1.99516e-06 0.000794827)
(-0.000204794 0.00312793 -0.000254702 -2.77228e-05 8.32364e-05 0.000297029)
(0.00211485 0.00126201 -0.000108992 -0.00163128 0.00018368 -0.000308007)
(-0.0121245 0.0168002 -7.02689e-06 0.0393642 -7.62577e-06 8.83461e-06)
(-0.00383117 0.0144659 -2.96239e-05 0.00912677 -1.33747e-05 2.95411e-05)
(0.00201497 0.0136433 -3.29056e-05 -0.00945345 -3.9688e-05 8.85804e-05)
(0.00931634 0.0142225 -1.35436e-05 -0.037854 -4.68325e-05 0.000114422)
(-0.0214756 0.0059858 -1.86622e-05 0.026848 -4.18707e-05 8.31897e-05)
(-0.00813585 0.0159573 -7.28237e-05 0.0108165 -1.87213e-05 0.00010519)
(0.00388622 0.0157745 -7.99662e-05 -0.00904015 -2.7476e-06 0.000215036)
(0.0167803 0.00595396 -3.29021e-05 -0.025162 2.54114e-05 0.000242808)
(-0.0178444 0.00615245 -2.46745e-05 0.0237408 -6.22296e-05 0.000246878)
(-0.00810252 0.0135958 -8.83272e-05 0.00918209 -1.64404e-05 0.000201643)
(0.00298144 0.0136285 -9.51328e-05 -0.00653017 3.03249e-05 0.000253629)
(0.0128535 0.00618162 -3.80453e-05 -0.0211109 8.07274e-05 0.000203729)
(-0.0147421 0.00501614 -2.3707e-05 0.0181702 -7.29159e-05 0.000463437)
(-0.00695015 0.0114964 -8.48118e-05 0.00742293 -1.20353e-05 0.000304671)
(0.00166698 0.0115717 -9.02332e-05 -0.00437967 5.43583e-05 0.000233889)
(0.00950257 0.00516496 -3.51157e-05 -0.0151 0.00011894 6.02593e-05)
(-0.0115273 0.00403319 -1.90392e-05 0.0131845 -7.49982e-05 0.00070927)
(-0.00577183 0.00939881 -7.20982e-05 0.00569828 -7.13094e-06 0.000413171)
(0.000635138 0.00951762 -7.62323e-05 -0.0025845 6.80239e-05 0.00018904)
(0.00630697 0.00427803 -2.81913e-05 -0.00993943 0.000139424 -0.000129714)
(-0.00884519 0.00292379 -1.52193e-05 0.00894738 -7.05622e-05 0.00096474)
(-0.00469417 0.00731274 -6.02286e-05 0.00415463 -3.45575e-06 0.00053122)
(-0.000104048 0.00752256 -6.2905e-05 -0.00123216 7.00061e-05 0.000155616)
(0.00381673 0.00335712 -2.15319e-05 -0.00576755 0.000141001 -0.000307551)
(-0.00688841 0.00166909 -1.71486e-05 0.00596369 -5.97588e-05 0.00121062)
(-0.00389801 0.00525628 -5.94581e-05 0.00286758 -2.17217e-06 0.000666092)
(-0.000498269 0.00555504 -6.08888e-05 -0.000362006 5.78169e-05 0.000176723)
(0.00224819 0.00239442 -2.0195e-05 -0.00290881 0.000119635 -0.00040438)
(-0.00659228 0.00098138 -3.37373e-05 0.00433242 -3.25871e-05 0.00140246)
(-0.00441478 0.00305104 -8.36276e-05 0.00232174 -3.23659e-07 0.000819011)
(-0.000219394 0.00314032 -8.671e-05 -1.37821e-05 2.74681e-05 0.000308446)
(0.00211719 0.00126754 -3.74225e-05 -0.00162151 6e-05 -0.00031205)
)
;

boundaryField
{
    interface
    {
        type            calculated;
        value           nonuniform List<symmTensor> 
192
(
(-0.0392098 -1.49191e-05 0.000453337 0.0616242 0.0091936 -0.00544381)
(-0.0184287 -3.53837e-05 0.000697841 0.0334603 -0.00241297 -0.00834597)
(-0.019587 -7.70653e-05 0.000794525 0.0320301 -0.00139363 -0.00519529)
(-0.0150552 -0.000131612 0.000829682 0.0234655 -0.00226085 -0.00342068)
(-0.0117382 -0.000202577 0.000836638 0.0164268 -0.00214914 -0.00136848)
(-0.00875083 -0.000303685 0.000815029 0.0102878 -0.00187844 0.000271676)
(-0.00689247 -0.000475202 0.000751609 0.0062246 -0.00142981 0.00154612)
(-0.00584348 -0.000728467 0.000608046 0.00396326 -0.000644971 0.00241034)
(-0.0396523 1.38939e-05 0.000311488 0.0600805 0.00577277 -0.00354128)
(-0.0213389 -5.94639e-06 0.000484561 0.035607 -0.000514965 -0.00647818)
(-0.0198995 -5.12062e-05 0.000546348 0.0318969 -0.00210454 -0.00498831)
(-0.0156743 -0.000120429 0.000565014 0.0235733 -0.00286935 -0.00303646)
(-0.0121766 -0.000212525 0.000561534 0.0162949 -0.00292821 -0.00103083)
(-0.00923336 -0.000345706 0.000535741 0.0101537 -0.00256131 0.000693282)
(-0.00733247 -0.000567684 0.000479733 0.00607685 -0.00187095 0.00199522)
(-0.00616429 -0.000860903 0.000373811 0.00391148 -0.000862086 0.00281398)
(-0.0411197 2.00635e-05 0.000214142 0.0605893 0.00292298 -0.00203704)
(-0.0223563 4.69726e-07 0.000331909 0.0344832 -0.000265684 -0.00400027)
(-0.0207471 -4.57823e-05 0.000368226 0.0314383 -0.0014927 -0.003437)
(-0.0162184 -0.000121862 0.000374259 0.0234166 -0.00215225 -0.00224596)
(-0.0124528 -0.000226725 0.000365636 0.0163576 -0.00228379 -0.000856392)
(-0.00932772 -0.000379551 0.000342494 0.0104132 -0.00204232 0.000419977)
(-0.00730039 -0.000629134 0.000301825 0.00650604 -0.00152138 0.00141552)
(-0.00588589 -0.000934025 0.000233127 0.00430145 -0.00069551 0.00201845)
(-0.0420161 1.97561e-05 0.000151149 0.0608335 0.00129728 -0.00106181)
(-0.0231459 -7.37243e-07 0.000235201 0.0336948 -0.00027977 -0.00213854)
(-0.0215479 -4.81824e-05 0.000258653 0.0309833 -0.00100903 -0.00189007)
(-0.0168644 -0.000128697 0.000259514 0.0232346 -0.00144116 -0.00120066)
(-0.0129141 -0.000241989 0.000250181 0.0164157 -0.00156069 -0.00031986)
(-0.00962559 -0.000407126 0.000231354 0.0106649 -0.00143143 0.000536665)
(-0.0074666 -0.000672985 0.000202514 0.00689765 -0.00111071 0.00123042)
(-0.00588329 -0.000981346 0.000156109 0.00467549 -0.000547127 0.0016662)
(-0.0424573 1.82533e-05 0.000105718 0.0608561 0.000477259 -0.000506702)
(-0.0236637 -3.66507e-06 0.000165575 0.0332662 -0.000287832 -0.00100897)
(-0.0221118 -5.26459e-05 0.000181495 0.0307 -0.000687211 -0.000834403)
(-0.0173656 -0.000136393 0.000180659 0.0231094 -0.000930298 -0.00039264)
(-0.0133138 -0.000255386 0.00017269 0.0164536 -0.00100629 0.000179661)
(-0.00991543 -0.000428446 0.000158404 0.0108316 -0.000942247 0.000757314)
(-0.00766041 -0.000704686 0.000138294 0.00714655 -0.000761172 0.00124921)
(-0.00595812 -0.00101419 0.000106429 0.00491093 -0.000393022 0.00156632)
(-0.0426515 1.68275e-05 7.01123e-05 0.0607889 0.00011272 -0.000203611)
(-0.0239795 -6.39101e-06 0.000110413 0.0330471 -0.000246939 -0.000366814)
(-0.0224777 -5.68183e-05 0.000121043 0.0305558 -0.000453349 -0.000190644)
(-0.0177117 -0.000142966 0.000119965 0.0230491 -0.000577271 0.000140462)
(-0.0136083 -0.000265838 0.000114113 0.0164816 -0.000616806 0.000552054)
(-0.0101458 -0.000444035 0.000104092 0.0109289 -0.000585319 0.000975195)
(-0.00783126 -0.000726968 9.06763e-05 0.00728472 -0.000488365 0.00135369)
(-0.00606409 -0.00103677 6.95717e-05 0.00504414 -0.00026274 0.00160978)
(-0.0427262 1.58281e-05 3.98777e-05 0.0607119 -8.96121e-06 -4.85851e-05)
(-0.0241547 -8.26877e-06 6.30823e-05 0.0329412 -0.000164569 -2.95574e-05)
(-0.0226922 -5.97746e-05 6.91913e-05 0.0304924 -0.000260882 0.000162928)
(-0.0179232 -0.000147589 6.84615e-05 0.0230286 -0.000316808 0.000448814)
(-0.0137955 -0.000272963 6.49751e-05 0.0165027 -0.000333997 0.000785285)
(-0.0102984 -0.000454379 5.89845e-05 0.0109812 -0.000319292 0.00113308)
(-0.00795049 -0.000741394 5.09367e-05 0.00735356 -0.000272561 0.00145579)
(-0.00614986 -0.00105079 3.83653e-05 0.00510951 -0.000151899 0.00168446)
(-0.0427487 1.52918e-05 1.28231e-05 0.0606652 -1.43894e-05 1.62043e-05)
(-0.0242315 -9.31374e-06 2.03572e-05 0.0328986 -5.75192e-05 0.000113675)
(-0.0227896 -6.13228e-05 2.2307e-05 0.03047 -8.54594e-05 0.000317133)
(-0.0180222 -0.00014988 2.20739e-05 0.0230244 -0.000101249 0.000587562)
(-0.0138853 -0.000276567 2.09396e-05 0.0165145 -0.000105893 0.000895374)
(-0.010373 -0.000459891 1.89336e-05 0.0110039 -0.000101576 0.00121375)
(-0.00800892 -0.000749163 1.61179e-05 0.00738078 -8.78826e-05 0.00151478)
(-0.00619354 -0.00105636 1.17363e-05 0.00513408 -5.0452e-05 0.00173424)
(-0.0109742 0.0125859 -0.000614317 0.0422355 -0.000113545 -0.0216833)
(-0.0192223 0.00558697 -0.00101369 0.0239944 -0.000179962 -0.00377606)
(-0.0161427 0.00767877 -0.00119215 0.0244316 -0.000190683 -0.00595801)
(-0.0137154 0.00692527 -0.00128713 0.0181353 -0.000194509 -0.00327451)
(-0.0108642 0.00617197 -0.00135468 0.0131131 -0.000206249 -0.00177161)
(-0.00853257 0.00485782 -0.00141051 0.0085855 -0.000232515 -0.000293385)
(-0.00688633 0.00321911 -0.0014697 0.00548481 -0.000282286 0.000646518)
(-0.00681636 0.00163459 -0.00158212 0.00366885 -0.000352451 0.00173726)
(-0.00387302 0.0098078 -0.000441377 0.0100541 -8.88096e-05 -0.00484523)
(-0.00804842 0.0147985 -0.000777368 0.00913349 -0.000140584 -0.00134344)
(-0.00811638 0.0156809 -0.000911457 0.00901123 -0.000147591 -0.00111385)
(-0.00710574 0.0146857 -0.000981867 0.00702285 -0.000130016 -0.000391709)
(-0.0059636 0.0128778 -0.00103497 0.00528142 -0.00011197 4.65403e-05)
(-0.00493282 0.0104064 -0.00108564 0.00368754 -0.000102461 0.000432416)
(-0.00416633 0.00752196 -0.00114955 0.00249126 -0.000109432 0.00070218)
(-0.00460778 0.0040503 -0.00129963 0.00189855 -0.000131577 0.00136027)
(0.00219832 0.00894303 -0.000384052 -0.0124623 -5.84892e-05 0.00620488)
(0.00431844 0.0144107 -0.000719724 -0.00694017 -9.96894e-05 0.00114652)
(0.00354675 0.0157296 -0.000857526 -0.00677964 -0.000105016 0.0016213)
(0.00255571 0.0147961 -0.00092978 -0.00488452 -8.09001e-05 0.00106687)
(0.00169343 0.0130087 -0.000981237 -0.00340735 -5.11497e-05 0.000683303)
(0.00106162 0.0105862 -0.00102923 -0.00214213 -2.60669e-05 0.00026674)
(0.000696016 0.00772939 -0.00109044 -0.00125588 -1.14294e-05 -9.49017e-05)
(0.00108901 0.00408539 -0.0012394 -0.000595628 -1.39968e-05 -0.000831061)
(0.00864546 0.0102768 -0.000380784 -0.0427763 -5.75735e-05 0.0222351)
(0.0153136 0.0052003 -0.000748252 -0.0216215 -9.43595e-05 0.0037088)
(0.0118821 0.00782706 -0.000893261 -0.0222447 -8.68962e-05 0.00648749)
(0.00942877 0.00712849 -0.000969903 -0.0159494 -5.04836e-05 0.00397536)
(0.00675707 0.00640067 -0.00102055 -0.0111031 -9.73193e-06 0.00255258)
(0.00471576 0.00516397 -0.00106419 -0.00682739 2.62045e-05 0.00107057)
(0.0034393 0.00364495 -0.001118 -0.00389357 6.11058e-05 -4.39051e-05)
(0.00353406 0.00172418 -0.0012592 -0.00214355 9.42104e-05 -0.00131935)
(0.0354238 8.60984e-05 0.000174825 -0.0591478 -0.0111785 0.00566457)
(0.0151503 0.000113461 0.000310769 -0.031912 0.0022521 0.00901595)
(0.015947 9.3176e-05 0.000347191 -0.0300785 0.00133678 0.00614987)
(0.0112603 3.5127e-05 0.000360488 -0.0212937 0.00232358 0.00450039)
(0.00799985 -2.61037e-05 0.000373649 -0.0142863 0.00224062 0.0024535)
(0.00519961 -8.42044e-05 0.000393947 -0.00830977 0.00201123 0.000736639)
(0.00352305 -0.000179031 0.000425715 -0.00423182 0.00155657 -0.000711966)
(0.00309412 -0.00046772 0.000451895 -0.00212712 0.000634977 -0.0018654)
(0.034953 3.62571e-05 5.01378e-05 -0.0569858 -0.00762995 0.00407923)
(0.0177952 5.13839e-05 0.00010908 -0.0348512 0.000122191 0.00771294)
(0.0156266 4.01347e-05 0.000116966 -0.030172 0.00217565 0.00635161)
(0.0111709 3.74387e-06 0.000113949 -0.0214481 0.00317353 0.00436149)
(0.00766629 -3.77557e-05 0.000117198 -0.0140478 0.00334217 0.00226417)
(0.0048959 -7.60666e-05 0.000131228 -0.00797629 0.00304488 0.000412831)
(0.00321793 -0.00015072 0.000158088 -0.00380572 0.00235872 -0.00107743)
(0.00297591 -0.000463855 0.000199769 -0.00179938 0.00116421 -0.00223564)
(0.0361642 9.70202e-06 2.24334e-05 -0.0573216 -0.00427292 0.00252271)
(0.0187052 1.31127e-05 6.69856e-05 -0.0336873 -2.10933e-05 0.00506193)
(0.0163447 8.31475e-06 7.90102e-05 -0.0296175 0.00161594 0.00456475)
(0.0115698 -1.3283e-05 8.10991e-05 -0.0211667 0.00252726 0.00331318)
(0.0077575 -3.97922e-05 8.59686e-05 -0.01391 0.00280483 0.0018248)
(0.00477723 -6.34999e-05 9.75787e-05 -0.00797099 0.00264337 0.00043859)
(0.00295269 -0.000125102 0.000115733 -0.00390865 0.00211549 -0.000687628)
(0.0024848 -0.000444301 0.000140319 -0.00189522 0.00103373 -0.00143806)
(0.0368855 1.43926e-06 1.92386e-05 -0.0573716 -0.00220728 0.00144826)
(0.0194125 -1.03076e-06 5.86668e-05 -0.0327317 8.58458e-05 0.00299241)
(0.0170233 -3.90597e-06 7.39589e-05 -0.0289588 0.00114571 0.00282683)
(0.0120647 -1.80839e-05 7.9571e-05 -0.0207733 0.00180595 0.00211457)
(0.00803364 -3.57484e-05 8.49684e-05 -0.0137242 0.00207239 0.00116879)
(0.00486836 -5.09571e-05 9.33054e-05 -0.00794601 0.00201553 0.000237123)
(0.00289253 -0.00010651 0.000103566 -0.00399617 0.00166396 -0.000523371)
(0.00227946 -0.000433361 0.000115467 -0.00203808 0.000839155 -0.000956958)
(0.0371874 -8.33517e-07 1.70083e-05 -0.057195 -0.00105596 0.000792288)
(0.0198709 -5.38185e-06 4.8738e-05 -0.032117 0.000161801 0.00166102)
(0.017492 -7.28664e-06 6.26034e-05 -0.0284529 0.000812933 0.00158696)
(0.0124469 -1.77538e-05 6.84703e-05 -0.020419 0.00124145 0.00115744)
(0.00828981 -3.06142e-05 7.28997e-05 -0.0135231 0.00144207 0.000560055)
(0.00499598 -4.12935e-05 7.81863e-05 -0.00786752 0.00143304 -4.44277e-05)
(0.00290552 -9.38324e-05 8.34277e-05 -0.00400655 0.00120999 -0.00052746)
(0.00219246 -0.000427222 8.89167e-05 -0.00210474 0.000619986 -0.000725014)
(0.0372731 -1.3325e-06 1.34074e-05 -0.0569571 -0.000456036 0.000409663)
(0.0201392 -6.30652e-06 3.63475e-05 -0.0317341 0.00017053 0.000859043)
(0.0177821 -7.44838e-06 4.68116e-05 -0.0281118 0.000552469 0.000794215)
(0.0126995 -1.60605e-05 5.14541e-05 -0.0201575 0.000810998 0.000502526)
(0.00847368 -2.64346e-05 5.45752e-05 -0.0133503 0.000942072 0.000101668)
(0.00510312 -3.47086e-05 5.77073e-05 -0.00777274 0.000946938 -0.000301835)
(0.00294145 -8.57628e-05 6.02817e-05 -0.0039727 0.000810744 -0.000606255)
(0.00217782 -0.000423932 6.23217e-05 -0.00211987 0.000420728 -0.000659335)
(0.0372731 -1.25869e-06 8.46817e-06 -0.0567575 -0.000169008 0.00020098)
(0.0202811 -6.18843e-06 2.22406e-05 -0.0315091 0.000124373 0.00041213)
(0.0179441 -6.84163e-06 2.85564e-05 -0.0279045 0.000323701 0.000335484)