/*--------------------------------*- C++ -*----------------------------------*\
| =========                 |                                                 |
| \\      /  F ield         | foam-extend: Open Source CFD                    |
|  \\    /   O peration     | Version:     3.1                                |
|   \\  /    A nd           | Web:         http://www.extend-project.de       |
|    \\/     M anipulation  |                                                 |
\*---------------------------------------------------------------------------*/
FoamFile
{
    version     2.0;
    format      ascii;
    class       pointVectorField;
    location    "1.3";
    object      pointD;
}
// * * * * * * * * * * * * * * * * * * * * * * * * * * * * * * * * * * * * * //

dimensions      [0 1 0 0 0 0 0];

internalField   nonuniform List<vector> 
405
(
(0 0 0)
(0 0 0)
(0 0 0)
(0 0 0)
(0 0 0)
(0.00143542 0.00149357 0.000642827)
(0.000873345 0.000513801 0.000396686)
(0.000674334 -3.85735e-05 -4.06863e-05)
(0.000778831 -0.000612708 -0.000489366)
(0.00119824 -0.00163114 -0.000759519)
(0.00286618 0.00220953 0.000474255)
(0.00240219 0.000897112 0.000287617)
(0.0021681 -5.80478e-05 -5.49724e-05)
(0.00224879 -0.00103003 -0.000411587)
(0.00253127 -0.00238767 -0.000631379)
(0.00480252 0.00292334 0.000331059)
(0.00436049 0.00124146 0.000199481)
(0.0041299 -0.000106479 -6.28465e-05)
(0.00416772 -0.00147364 -0.000336809)
(0.0043794 -0.00321476 -0.000501702)
(0.00699154 0.00340461 0.000125986)
(0.00660949 0.00146402 8.44679e-05)
(0.00639147 -0.000181693 -6.38573e-05)
(0.00638768 -0.00184562 -0.000222904)
(0.00650623 -0.00384017 -0.000295217)
(0.00935453 0.00370507 -6.72743e-05)
(0.00902367 0.0015883 -2.19865e-05)
(0.00881813 -0.000276362 -6.29854e-05)
(0.00878061 -0.00215536 -0.000113753)
(0.00882704 -0.00431488 -9.58481e-05)
(0.0117819 0.00384965 -0.000231547)
(0.0114942 0.0016321 -0.000112836)
(0.0113011 -0.000381272 -6.29123e-05)
(0.0112394 -0.0024031 -2.02341e-05)
(0.0112345 -0.00464942 7.68718e-05)
(0.0142048 0.00389612 -0.000353834)
(0.0139426 0.00162217 -0.00018597)
(0.0137557 -0.000487376 -6.61775e-05)
(0.0136807 -0.00260046 4.99295e-05)
(0.0136517 -0.00488506 0.000204054)
(0.0166114 0.00388467 -0.000417289)
(0.0163196 0.00158811 -0.000227966)
(0.0160906 -0.000580578 -7.06289e-05)
(0.016035 -0.00275756 8.3002e-05)
(0.0160293 -0.00506023 0.000261067)
(0 0 0)
(0 0 0)
(0 0 0)
(0 0 0)
(0 0 0)
(0.00155235 0.00140415 0.000369673)
(0.00101209 0.000443407 0.000225697)
(0.000849719 -3.13979e-05 -3.51965e-05)
(0.000930596 -0.000513514 -0.000310139)
(0.00132877 -0.00150368 -0.000477419)
(0.00299863 0.00225349 0.000327706)
(0.00256159 0.000927724 0.000193888)
(0.00236699 -6.70706e-05 -5.14343e-05)
(0.00241859 -0.00107439 -0.000307882)
(0.00267677 -0.0024436 -0.000465501)
(0.00487464 0.00297461 0.000216653)
(0.00446537 0.00128139 0.000127124)
(0.00427114 -0.000117758 -5.63943e-05)
(0.00428003 -0.00153265 -0.000249345)
(0.00446099 -0.00328062 -0.000361685)
(0.00699609 0.00347002 6.88688e-05)
(0.00664129 0.00151614 4.53501e-05)
(0.0064533 -0.000188426 -5.67975e-05)
(0.00642342 -0.0019082 -0.000167481)
(0.00651526 -0.00391177 -0.000210988)
(0.00928437 0.00376979 -7.88411e-05)
(0.00897705 0.0016426 -3.50429e-05)
(0.00879697 -0.000274583 -5.61803e-05)
(0.00873673 -0.00220366 -8.48008e-05)
(0.00875956 -0.00436972 -5.77462e-05)
(0.0116459 0.00390861 -0.000206976)
(0.0113777 0.00168382 -0.00010505)
(0.0112062 -0.000370105 -5.70517e-05)
(0.0111257 -0.00243086 -1.45102e-05)
(0.0111011 -0.00468131 7.51099e-05)
(0.0140185 0.00394287 -0.000302307)
(0.0137721 0.00166478 -0.000160416)
(0.0136033 -0.000468522 -6.17915e-05)
(0.0135148 -0.00260364 3.38254e-05)
(0.0134711 -0.00488888 0.000169206)
(0.0164028 0.00392281 -0.000350072)
(0.0161252 0.00162359 -0.000191718)
(0.0159132 -0.00055776 -6.97157e-05)
(0.0158462 -0.00274477 4.82179e-05)
(0.0158278 -0.00504539 0.000201095)
(0 0 0)
(0 0 0)
(0 0 0)
(0 0 0)
(0 0 0)
(0.00163087 0.00141586 0.000192232)
(0.00106208 0.000439295 0.000115958)
(0.000891034 -2.96425e-05 -2.86851e-05)
(0.000979146 -0.000504957 -0.000183322)
(0.00139635 -0.00151675 -0.000273919)
(0.00308844 0.0022347 0.000179897)
(0.00262458 0.000920853 0.000102945)
(0.00241863 -6.63412e-05 -4.3183e-05)
(0.00247999 -0.00106642 -0.000196618)
(0.00276077 -0.0024272 -0.000285058)
(0.00492951 0.00294933 0.000114191)
(0.00450955 0.00127938 6.22037e-05)
(0.00430942 -0.000116465 -4.86002e-05)
(0.00431946 -0.00152802 -0.000165071)
(0.00450654 -0.00325125 -0.000225738)
(0.00700765 0.00344579 1.92077e-05)
(0.00664622 0.00151878 8.31286e-06)
(0.00645388 -0.000182942 -4.98937e-05)
(0.00642142 -0.00189946 -0.00011275)
(0.00651477 -0.00387387 -0.0001294)
(0.00924584 0.00375159 -8.07736e-05)
(0.00893568 0.00165117 -4.70077e-05)
(0.00875271 -0.000262966 -5.02295e-05)
(0.00868742 -0.00218804 -5.70532e-05)
(0.00870747 -0.00432409 -2.63509e-05)
(0.0115608 0.00390046 -0.000170552)
(0.011292 0.00169814 -9.66896e-05)
(0.0111192 -0.000351822 -5.21283e-05)
(0.0110325 -0.00240682 -9.67338e-06)
(0.0110026 -0.00463062 6.40324e-05)
(0.0138959 0.00394808 -0.000239501)
(0.0136512 0.00168405 -0.000136847)
(0.0134829 -0.000444421 -5.84178e-05)
(0.0133882 -0.00257178 1.94404e-05)
(0.0133374 -0.00483663 0.000125737)
(0.0162608 0.00393809 -0.000273078)
(0.0159864 0.00164666 -0.000160185)
(0.0157754 -0.00052953 -7.12564e-05)
(0.0157003 -0.00270704 1.53393e-05)
(0.0156728 -0.00499124 0.000131707)
(0 0 0)
(0 0 0)
(0 0 0)
(0 0 0)
(0 0 0)
(0.00166586 0.0014235 9.02628e-05)
(0.00107459 0.000438695 5.50838e-05)
(0.000894224 -2.79276e-05 -2.18826e-05)
(0.000987912 -0.000501135 -0.000104814)
(0.00142179 -0.00152292 -0.000147949)
(0.00312467 0.00221775 8.13993e-05)
(0.00263987 0.000913668 4.65267e-05)
(0.00242261 -6.22859e-05 -3.38135e-05)
(0.00249095 -0.00105143 -0.000118366)
(0.00278938 -0.00240356 -0.000158601)
(0.00494989 0.00292041 4.04894e-05)
(0.00451385 0.00127073 2.05468e-05)
(0.00430439 -0.000109388 -3.91626e-05)
(0.0043185 -0.00150526 -0.000101704)
(0.0045191 -0.00320778 -0.000124538)
(0.00700101 0.00341423 -1.95535e-05)
(0.00662909 0.0015121 -1.44721e-05)
(0.00642947 -0.000171568 -4.11506e-05)
(0.00639828 -0.00186971 -6.97353e-05)
(0.00649981 -0.00381805 -6.53128e-05)
(0.00920804 0.00372464 -8.49043e-05)
(0.00889192 0.00164962 -5.14627e-05)
(0.00870344 -0.000246307 -4.23452e-05)
(0.00863738 -0.00215241 -3.42585e-05)
(0.00866096 -0.00426116 5.40614e-07)
(0.0114928 0.00388368 -0.000145557)
(0.0112214 0.00170365 -8.58905e-05)
(0.0110448 -0.000329583 -4.51742e-05)
(0.010956 -0.00236644 -4.41833e-06)
(0.0109258 -0.00456505 5.87486e-05)
(0.0138026 0.00394534 -0.000194033)
(0.0135584 0.00169727 -0.000114927)
(0.0133876 -0.000417171 -5.25839e-05)
(0.0132895 -0.00252815 1.07556e-05)
(0.0132348 -0.00477193 9.61352e-05)
(0.016152 0.00394813 -0.000218134)
(0.0158796 0.00166724 -0.000133205)
(0.0156657 -0.000498672 -6.75137e-05)
(0.0155847 -0.00266273 -2.30429e-06)
(0.0155502 -0.00492936 8.86855e-05)
(0 0 0)
(0 0 0)
(0 0 0)
(0 0 0)
(0 0 0)
(0.00167797 0.00142506 3.71424e-05)
(0.00107264 0.000438585 2.33843e-05)
(0.000886073 -2.58972e-05 -1.561e-05)
(0.000982609 -0.000496987 -5.78492e-05)
(0.00142676 -0.00151989 -7.55887e-05)
(0.00313351 0.00220581 2.74728e-05)
(0.00263382 0.000909645 1.59989e-05)
(0.00240895 -5.68812e-05 -2.48736e-05)
(0.00248098 -0.00103654 -6.80124e-05)
(0.0027915 -0.00238082 -8.1571e-05)
(0.00494808 0.00290027 -1.87754e-07)
(0.00449887 0.00126515 -1.49294e-06)
(0.00428263 -0.000100213 -2.96002e-05)
(0.00429959 -0.0014812 -5.89526e-05)
(0.00451095 -0.0031689 -6.04634e-05)
(0.00698278 0.00339144 -3.89678e-05)
(0.00660086 0.00150769 -2.45099e-05)
(0.00639574 -0.000158195 -3.18264e-05)
(0.00636616 -0.00183827 -3.96781e-05)
(0.0064756 -0.00376765 -2.38599e-05)
(0.0091707 0.00370466 -8.15348e-05)
(0.00884773 0.00164895 -4.91708e-05)
(0.00865504 -0.000228386 -3.35374e-05)
(0.00858946 -0.00211539 -1.77925e-05)
(0.00861786 -0.0042038 1.73319e-05)
(0.0114363 0.00387064 -0.0001222)
(0.0111607 0.00170849 -7.29154e-05)
(0.0109811 -0.000307109 -3.68526e-05)
(0.0108917 -0.00232545 5.43893e-08)
(0.0108635 -0.00450438 5.35618e-05)
(0.0137288 0.00394181 -0.00015608)
(0.0134827 0.00170822 -9.3897e-05)
(0.0133098 -0.000390659 -4.4382e-05)
(0.0132101 -0.0024847 6.56746e-06)
(0.0131547 -0.00471068 7.47951e-05)
(0.0160656 0.00395316 -0.000173102)
(0.015792 0.00168397 -0.000107885)
(0.0155752 -0.000468981 -5.88206e-05)
(0.0154911 -0.00261847 -9.37094e-06)
(0.0154542 -0.00486913 6.16966e-05)
(0 0 0)
(0 0 0)
(0 0 0)
(0 0 0)
(0 0 0)
(0.00167977 0.00142382 1.18008e-05)
(0.00106653 0.000438645 8.11637e-06)
(0.000876124 -2.39117e-05 -1.03697e-05)
(0.00097394 -0.000492992 -3.04946e-05)
(0.00142354 -0.00151323 -3.59905e-05)
(0.00313026 0.00219775 2.3397e-06)
(0.00262108 0.000908035 1.78644e-06)
(0.00239135 -5.1541e-05 -1.70812e-05)
(0.00246521 -0.0010241 -3.70885e-05)
(0.00278315 -0.00236158 -3.8195e-05)
(0.00493662 0.00288799 -1.67985e-05)
(0.00447838 0.00126306 -1.01249e-05)
(0.00425764 -9.12723e-05 -2.08455e-05)
(0.00427627 -0.0014611 -3.20112e-05)
(0.00449475 -0.00313837 -2.45851e-05)
(0.00696069 0.00337788 -4.20108e-05)
(0.0065713 0.00150671 -2.51931e-05)
(0.00636243 -0.000145568 -2.2902e-05)
(0.00633407 -0.00181184 -2.05659e-05)
(0.00644928 -0.00372833 -1.96667e-06)
(0.0091366 0.00369292 -6.95475e-05)
(0.00880804 0.00165066 -4.14148e-05)
(0.00861243 -0.000212052 -2.46958e-05)
(0.0085475 -0.0020841 -7.49679e-06)
(0.00857988 -0.00415847 2.33206e-05)
(0.0113898 0.00386314 -9.64044e-05)
(0.0111104 0.00171399 -5.74688e-05)
(0.0109287 -0.000287248 -2.78891e-05)
(0.0108394 -0.00229067 2.64078e-06)
(0.0108132 -0.00445547 4.5185e-05)
(0.0136702 0.00393994 -0.000119565)
(0.0134219 0.00171785 -7.22242e-05)
(0.0132474 -0.00036774 -3.45162e-05)
(0.0131472 -0.00244766 4.49114e-06)
(0.0130923 -0.00466007 5.65659e-05)
(0.0159971 0.00395661 -0.000131524)
(0.0157214 0.00169759 -8.26265e-05)
(0.0155022 -0.000443547 -4.66484e-05)
(0.0154168 -0.00258035 -1.00877e-05)
(0.0153795 -0.00481825 4.33708e-05)
(0 0 0)
(0 0 0)
(0 0 0)
(0 0 0)
(0 0 0)
(0.00167804 0.0014219 1.61918e-06)
(0.00106061 0.000438771 1.75069e-06)
(0.000867939 -2.22997e-05 -6.2077e-06)
(0.000966252 -0.000489781 -1.49249e-05)
(0.00141848 -0.00150662 -1.55123e-05)
(0.00312375 0.00219257 -5.8239e-06)
(0.00260892 0.000907683 -2.93212e-06)
(0.00237624 -4.72073e-05 -1.05439e-05)
(0.00245093 -0.00101494 -1.86812e-05)
(0.0027731 -0.00234717 -1.57463e-05)
(0.00492401 0.00288103 -1.81732e-05)
(0.00446008 0.00126293 -1.05008e-05)
(0.00423652 -8.40528e-05 -1.31457e-05)
(0.00425605 -0.00144642 -1.58909e-05)
(0.00447884 -0.00311667 -7.35865e-06)
(0.00694111 0.00337067 -3.3626e-05)
(0.00654677 0.00150763 -1.97436e-05)
(0.0063355 -0.000135497 -1.47081e-05)
(0.00630789 -0.00179249 -9.47195e-06)
(0.00642678 -0.00370066 5.8877e-06)
(0.00910945 0.00368698 -5.03608e-05)
(0.00877697 0.00165347 -2.96985e-05)
(0.00857945 -0.000199233 -1.61705e-05)
(0.00851503 -0.00206108 -2.18012e-06)
(0.00855014 -0.00412635 2.04864e-05)
(0.0113547 0.00385965 -6.68946e-05)
(0.0110725 0.00171924 -3.97422e-05)
(0.0108893 -0.000271908 -1.8663e-05)
(0.0108002 -0.00226491 3.15214e-06)
(0.0107758 -0.00442031 3.28348e-05)
(0.0136271 0.00393954 -8.14971e-05)
(0.0133769 0.00172564 -4.92377e-05)
(0.0132012 -0.000350258 -2.35547e-05)
(0.0131009 -0.00242001 3.05308e-06)
(0.0130468 -0.00462304 3.84732e-05)
(0.0159467 0.00395917 -8.92548e-05)
(0.015669 0.00170783 -5.62259e-05)
(0.0154482 -0.000424269 -3.22111e-05)
(0.0153623 -0.00255159 -7.72208e-06)
(0.0153256 -0.00478034 2.83307e-05)
(0 0 0)
(0 0 0)
(0 0 0)
(0 0 0)
(0 0 0)
(0.00167605 0.00142041 -8.10197e-07)
(0.00105664 0.000438877 -7.32353e-08)
(0.000862778 -2.12642e-05 -2.88078e-06)
(0.000961242 -0.00048773 -5.9768e-06)
(0.00141458 -0.00150204 -5.46468e-06)
(0.00311848 0.00218966 -4.87313e-06)
(0.0026007 0.000907767 -2.5618e-06)
(0.00236644 -4.44268e-05 -5.00215e-06)
(0.00244146 -0.00100936 -7.64098e-06)
(0.00276576 -0.00233828 -5.19471e-06)
(0.00491494 0.00287752 -1.09807e-05)
(0.00444792 0.00126338 -6.26841e-06)
(0.00422282 -7.94259e-05 -6.32868e-06)
(0.00424277 -0.00143755 -6.38636e-06)
(0.00446782 -0.0031037 -1.14698e-06)
(0.006928 0.00336729 -1.83881e-05)
(0.00653087 0.00150885 -1.06942e-05)
(0.00631825 -0.000129074 -7.16901e-06)
(0.00629103 -0.00178081 -3.4993e-06)
(0.00641192 -0.00368428 5.01016e-06)
(0.00909206 0.0036844 -2.63594e-05)
(0.0087573 0.00165583 -1.54576e-05)
(0.00855871 -0.000191118 -7.98441e-06)
(0.00849458 -0.00204712 -2.45239e-07)
(0.00853124 -0.00410727 1.17117e-05)
(0.0113328 0.00385834 -3.42895e-05)
(0.0110489 0.00172297 -2.03171e-05)
(0.0108649 -0.000262273 -9.344e-06)
(0.010776 -0.00224921 2.01922e-06)
(0.0107526 -0.00439926 1.72813e-05)
(0.0136005 0.00393974 -4.13893e-05)
(0.013349 0.00173073 -2.49873e-05)
(0.0131727 -0.000339345 -1.19319e-05)
(0.0130724 -0.00240308 1.59393e-06)
(0.013019 -0.00460062 1.95611e-05)
(0.0159156 0.00396076 -4.52436e-05)
(0.0156367 0.00171422 -2.8519e-05)
(0.015415 -0.000412267 -1.64202e-05)
(0.015329 -0.00253383 -4.07108e-06)
(0.0152927 -0.00475714 1.41381e-05)
(0 0 0)
(0 0 0)
(0 0 0)
(0 0 0)
(0 0 0)
(0.00167525 0.00141987 -0)
(0.00105527 0.000438918 -0)
(0.000861031 -2.09087e-05 0)
(0.000959522 -0.000487028 0)
(0.00141315 -0.00150043 0)
(0.00311653 0.00218873 -0)
(0.00259784 0.00090784 0)
(0.00236308 -4.34726e-05 0)
(0.00243818 -0.00100749 0)
(0.00276313 -0.00233528 0)
(0.00491169 0.00287645 -0)
(0.0044437 0.00126361 0)
(0.0042181 -7.78381e-05 0)
(0.00423817 -0.0014346 0)
(0.00446392 -0.00309938 0)
(0.00692341 0.00336632 -0)
(0.00652539 0.00150937 0)
(0.00631234 -0.000126873 0)
(0.00628524 -0.00177691 0)
(0.00640676 -0.00367885 0)
(0.00908608 0.0036837 -0)
(0.00875058 0.00165674 0)
(0.00855164 -0.000188345 0)
(0.0084876 -0.00204245 0)
(0.00852476 -0.00410095 0)
(0.0113253 0.00385804 -0)
(0.0110408 0.00172431 0)
(0.0108566 -0.000258991 0)
(0.0107677 -0.00224395 0)
(0.0107447 -0.00439225 0)
(0.0135915 0.00393986 -0)
(0.0133396 0.0017325 0)
(0.0131631 -0.000335635 0)
(0.0130628 -0.00239738 0)
(0.0130096 -0.00459313 0)
(0.0159051 0.00396126 -0)
(0.0156258 0.00171638 -0)
(0.0154037 -0.000408186 0)
(0.0153177 -0.00252784 0)
(0.0152816 -0.00474934 0)
)
;

boundaryField
{
    interface
    {
        type            calculated;
    }
    symmetry
    {
        type            symmetryPlane;
    }
    bottom
    {
        type            fixedValue;
        value           uniform (0 0 0);
    }
}


// ************************************************************************* //
