/*--------------------------------*- C++ -*----------------------------------*\
| =========                 |                                                 |
| \\      /  F ield         | foam-extend: Open Source CFD                    |
|  \\    /   O peration     | Version:     3.1                                |
|   \\  /    A nd           | Web:         http://www.extend-project.de       |
|    \\/     M anipulation  |                                                 |
\*---------------------------------------------------------------------------*/
FoamFile
{
    version     2.0;
    format      ascii;
    class       volScalarField;
    location    "1.3";
    object      sigmaCauchyEq;
}
// * * * * * * * * * * * * * * * * * * * * * * * * * * * * * * * * * * * * * //

dimensions      [1 -1 -2 0 0 0 0];

internalField   nonuniform List<scalar> 
256
(
454.537
178.722
166.945
324.669
306.701
223.878
203.612
262.102
280.337
211.634
193.552
229.393
217.481
187.492
173.433
177.087
162.644
158.045
147.597
129.25
115.386
125.323
118.25
88.1718
81.4647
91.638
86.2109
57.5237
68.3088
60.7922
48.0535
40.6974
444.687
200.965
183.95
313.959
322.868
232.736
211.836
273.305
276.992
199.438
181.352
226.973
213.185
168.851
153.582
171.413
156.193
137.356
125.715
121.016
109.107
106.502
98.5891
79.7528
76.1032
77.0494
71.5661
50.4068
65.1079
53.3798
40.7131
36.1464
448.025
206.61
186.204
310.083
319.994
234.223
211.937
268.642
276.406
198.371
178.689
223.546
212.89
164.711
147.658
167.721
156.26
132.188
118.806
117.416
109.357
101.541
92.2929
76.4905
76.2572
73.4516
67.2056
47.5314
64.6852
52.6567
38.5393
31.9866
449.744
207.017
184.71
307.641
318.279
234.691
210.903
265.029
276.154
199.096
177.783
220.537
213.658
165.069
146.335
165.102
157.698
132.308
117.341
115.076
111.119
101.623
91.0834
74.4307
77.9435
73.7948
66.6345
45.6938
65.9586
53.8539
38.2915
29.9449
449.846
205.791
182.366
305.593
317.795
234.499
209.447
262.788
276.524
199.877
177.225
218.542
214.869
166.297
146.251
163.428
159.476
133.708
117.539
113.639
113.129
103.012
91.4831
73.1639
79.8339
75.0984
67.1976
44.5754
67.5738
55.232
38.5723
29.0339
449.234
204.35
180.223
303.879
317.756
234.032
208
261.297
277.093
200.371
176.695
217.246
216.019
167.357
146.35
162.381
160.99
135.038
118.022
112.764
114.763
104.363
92.1512
72.4007
81.3502
76.2972
67.8793
43.9069
68.9725
56.2858
38.8204
28.605
448.556
203.24
178.682
302.641
317.824
233.582
206.88
260.334
277.579
200.615
176.242
216.44
216.866
168.04
146.395
161.752
162.038
135.941
118.382
112.25
115.857
105.292
92.6536
71.9648
82.359
77.1058
68.3608
43.5362
69.9403
56.9547
38.9459
28.3908
448.148
202.655
177.889
301.995
317.876
233.321
206.278
259.852
277.847
200.707
175.979
216.045
217.306
168.362
146.398
161.451
162.564
136.381
118.555
112.008
116.394
105.747
92.9027
71.7641
82.8505
77.4994
68.5934
43.369
70.4188
57.2752
38.9875
28.2942
)
;

boundaryField
{
    interface
    {
        type            calculated;
        value           nonuniform List<scalar> 
192
(
718.308
361.465
347.882
255.349
182.574
121.768
84.9511
66.5511
695.519
387.468
348.28
259.464
185.153
125.381
88.6388
69.9694
701.973
378.977
345.776
258.689
185.275
125.89
88.8715
67.574
706.754
374.28
344.09
258.73
186.55
127.861
91.0349
68.6144
708.485
372.486
343.727
259.457
188.167
129.936
93.1888
70.0824
708.554
371.923
344.027
260.422
189.642
131.65
94.9071
71.5083
708.082
371.789
344.441
261.225
190.703
132.808
96.042
72.5168
707.706
371.769
344.695
261.662
191.246
133.38
96.5852
73.0046
488.973
284.762
286.478
222.472
170.279
122.987
88.2058
73.7892
162.413
213.07
222.283
201.866
173.813
139.46
102.617
68.3197
159.085
190.388
203.807
188.031
163.672
132.564
97.0454
54.4198
404.62
236.911
238.192
183.342
138.392
97.1107
65.3272
46.4426
545.037
298.545
283.374
205.861
142.311
87.4746
51.7009
38.0519
524.522
322.522
283.199
207.295
141.646
87.6294
52.1996
38.9413
527.394
314.511
279.062
203.999
138.723
85.0841
49.4478
32.8376
529.58
309.431
275.521
201.01
136.109
82.6492
46.9337
30.1154
529.696
306.859
273.407
199.058
134.321
80.8199
44.9572
28.663
528.78
305.454
272.194
197.908
133.208
79.619
43.6272
27.9939
527.731
304.645
271.504
197.265
132.566
78.9123
42.8441
27.6844
527.085
304.258
271.179
196.97
132.268
78.585
42.4884
27.5605
71.9312
69.0496
69.1271
70.1716
71.7114
73.0651
74.0245
74.4797
51.6728
47.6949
48.628
50.4614
52.0114
53.0756
53.7227
54.0348
24.9091
20.6522
18.3817
17.4277
16.7872
16.0326
15.314
14.873
43.3471
38.4649
33.616
31.1794
30.3268
29.9945
29.8499
29.7784
)
;
    }
    symmetry
    {
        type            symmetryPlane;
    }
    bottom
    {
        type            calculated;
        value           nonuniform List<scalar> 
32
(
405.749
349.537
343.129
343.148
343.074
342.546
341.953
341.587
118.999
130.321
130.941
128.406
125.597
123.341
121.838
121.096
126.61
125.296
120.49
115.413
111.444
108.658
106.904
106.059
326.392
265.917
247.567
241.201
238.238
236.419
235.243
234.647
)
;
    }
}


// ************************************************************************* //
