/*--------------------------------*- C++ -*----------------------------------*\
| =========                 |                                                 |
| \\      /  F ield         | foam-extend: Open Source CFD                    |
|  \\    /   O peration     | Version:     3.1                                |
|   \\  /    A nd           | Web:         http://www.extend-project.de       |
|    \\/     M anipulation  |                                                 |
\*---------------------------------------------------------------------------*/
FoamFile
{
    version     2.0;
    format      ascii;
    class       volScalarField;
    location    "1.3";
    object      sigmaEq;
}
// * * * * * * * * * * * * * * * * * * * * * * * * * * * * * * * * * * * * * //

dimensions      [1 -1 -2 0 0 0 0];

internalField   nonuniform List<scalar> 
256
(
398.065
174.218
174.088
384.49
299.32
221.951
207.105
270.661
270.152
210.443
196.629
240.198
212.908
187.149
175.442
182.314
160.715
158.198
148.841
131.841
115.102
125.777
118.911
89.1254
81.7719
92.1764
86.5
57.7509
69.0428
61.4637
48.0006
40.5752
390.472
195.616
191.279
368.865
310.71
228.817
217.846
287.607
266.485
197.64
184.973
238.273
207.972
167.924
155.948
177.218
153.993
137.085
127.099
123.767
108.61
106.622
99.3193
80.8146
76.2678
77.3654
71.8796
50.7046
65.6908
53.8847
40.7185
36.1229
392.687
200.9
193.796
365.422
308.784
230.322
218.093
282.412
266.319
196.671
182.32
234.696
207.915
163.872
149.973
173.464
154.194
131.958
120.15
120.112
108.91
101.66
93.0019
77.5269
76.4232
73.7423
67.5172
47.8259
65.2753
53.1395
38.5561
31.9507
393.867
201.243
192.306
363.023
307.905
230.936
216.934
278.032
266.548
197.546
181.301
231.236
208.951
164.338
148.565
170.6
155.743
132.136
118.635
117.647
110.697
101.762
91.7699
75.409
78.091
74.0852
66.943
45.9669
66.5278
54.3428
38.3175
29.9106
393.898
200.042
189.856
360.607
307.943
230.851
215.316
275.214
267.274
198.421
180.623
228.817
210.37
165.628
148.401
168.678
157.613
133.568
118.786
116.078
112.733
103.161
92.1473
74.0778
79.9787
75.3909
67.4999
44.8213
68.1436
55.7322
38.5993
28.9947
393.406
198.639
187.589
358.407
308.194
230.445
213.726
273.342
268.052
198.963
179.992
227.211
211.647
166.718
148.432
167.44
159.186
134.911
119.229
115.097
114.389
104.515
92.7945
73.2602
81.4987
76.5916
68.1733
44.1281
69.5483
56.7948
38.8449
28.5599
392.873
197.559
185.95
356.763
308.41
230.027
212.503
272.149
268.648
199.229
179.469
226.209
212.561
167.412
148.431
166.687
160.267
135.818
119.56
114.512
115.497
105.444
93.2809
72.7864
82.513
77.4013
68.6472
43.7394
70.5234
57.4693
38.9673
28.3404
392.553
196.99
185.104
355.89
308.523
229.779
211.848
271.558
268.961
199.329
179.171
225.721
213.03
167.738
148.41
166.325
160.808
136.259
119.718
114.234
116.042
105.899
93.5214
72.5665
83.008
77.7953
68.8753
43.5629
71.0061
57.7924
39.0068
28.2408
)
;

boundaryField
{
    interface
    {
        type            calculated;
        value           nonuniform List<scalar> 
192
(
645.118
341.805
330.146
246.246
178.545
120.576
84.8417
66.7404
628.793
365.538
330.974
250.488
181.311
124.304
88.6107
70.1819
635.79
358.915
329.403
250.176
181.634
124.865
88.8284
67.751
640.802
355.604
328.616
250.679
183.105
126.891
90.9772
68.7459
642.864
354.623
328.854
251.736
184.865
129.009
93.1283
70.1867
643.292
354.509
329.5
252.899
186.431
130.755
94.8527
71.6013
643.108
354.606
330.093
253.807
187.543
131.936
95.9957
72.6069
642.888
354.685
330.421
254.288
188.109
132.519
96.5434
73.0939
451.312
279.901
278.299
218.983
168.953
123.056
88.7574
74.6813
159.341
212.352
221.623
202.004
174.343
140.207
103.35
69.051
164.458
192.419
206.398
189.775
164.823
133.197
97.3343
54.3844
442.912
242.551
247.007
187.719
140.626
97.8999
65.4575
46.2561
614.037
317.784
300.438
214.523
146.264
88.8565
52.0694
38.0935
586.502
345.716
300.764
216.477
145.851
89.2049
52.7056
39.0633
588.196
336.27
296.038
212.941
142.814
86.6125
49.9313
32.9256
589.647
329.847
291.641
209.518
139.984
84.0709
47.3609
30.1849
589.055
326.369
288.835
207.17
137.989
82.1343
45.329
28.7184
587.507
324.394
287.15
205.731
136.714
80.8474
43.9545
28.0381
585.988
323.251
286.173
204.906
135.967
80.0829
43.1412
27.7203
585.093
322.71
285.713
204.524
135.618
79.727
42.7704
27.5921
72.9749
69.9491
69.9892
71.0134
72.5565
73.9218
74.8929
75.3559
52.2702
48.1866
49.1132
50.9617
52.5259
53.5993
54.2511
54.5647
24.8926
20.6526
18.386
17.4352
16.7967
16.0442
15.3277
14.8881
43.1302
38.3186
33.4731
31.0519
30.2079
29.8783
29.7335
29.6614
)
;
    }
    symmetry
    {
        type            symmetryPlane;
    }
    bottom
    {
        type            calculated;
        value           nonuniform List<scalar> 
32
(
360.68
312.017
305.534
305.076
304.803
304.26
303.716
303.39
116.234
127.276
127.722
125.17
122.389
120.167
118.689
117.96
131.346
129.619
124.751
119.546
115.45
112.56
110.736
109.855
375.2
303.837
284.043
277.342
274.132
272.053
270.656
269.934
)
;
    }
}


// ************************************************************************* //
