/*--------------------------------*- C++ -*----------------------------------*\
| =========                 |                                                 |
| \\      /  F ield         | foam-extend: Open Source CFD                    |
|  \\    /   O peration     | Version:     3.1                                |
|   \\  /    A nd           | Web:         http://www.extend-project.de       |
|    \\/     M anipulation  |                                                 |
\*---------------------------------------------------------------------------*/
FoamFile
{
    version     2.0;
    format      ascii;
    class       volSymmTensorField;
    location    "1.3";
    object      sigma;
}
// * * * * * * * * * * * * * * * * * * * * * * * * * * * * * * * * * * * * * //

dimensions      [1 -1 -2 0 0 0 0];

internalField   nonuniform List<symmTensor> 
256
(
(286.232 99.9209 -4.7296 653.233 52.6469 331.516)
(36.6315 84.1806 -13.6953 129.76 17.5902 50.0718)
(-93.8338 78.6497 -14.2259 -188.596 -27.1903 -94.424)
(-333.379 84.1776 -5.69313 -683.511 -64.8887 -360.451)
(-122.001 41.0173 -5.90192 200.601 -14.4183 -36.6143)
(-50.4723 108.648 -21.9482 73.5058 -6.14235 -16.096)
(0.677584 106.539 -23.005 -86.6816 5.12948 -4.91935)
(68.5946 39.464 -7.89569 -214.445 13.5133 15.2045)
(-43.7088 50.0226 -3.16362 242.416 -7.21841 36.9934)
(-50.8556 104.951 -15.545 65.8341 -2.50801 -9.42221)
(-7.52778 105.179 -16.1749 -79.0938 1.63799 -14.3112)
(-8.33113 50.8238 -4.64058 -250.519 6.67808 -53.5551)
(-60.1717 43.7296 -3.234 163.987 -11.3475 13.311)
(-50.0736 95.7135 -12.9723 45.9559 -3.34291 -11.3782)
(-5.0604 96.2899 -13.5004 -55.5769 3.11568 -8.53136)
(11.4078 44.8808 -4.82068 -167.403 11.4832 -25.5554)
(-53.4564 38.0042 -2.66315 113.137 -10.5778 11.8248)
(-45.0655 82.4419 -10.503 30.4305 -2.90312 -9.67873)
(-6.22242 83.1494 -11.0229 -39.194 2.91722 -8.33046)
(7.45766 39.3288 -4.21548 -115.49 10.9193 -22.4904)
(-52.6345 29.4657 -2.67825 64.9329 -9.22914 5.78735)
(-41.3997 66.0701 -8.94877 15.7992 -2.5032 -9.45456)
(-6.19013 67.1153 -9.36337 -25.4989 2.63394 -7.90084)
(8.91651 31.3664 -4.01477 -68.3966 9.79886 -16.6104)
(-50.1291 19.1026 -3.20694 33.4223 -7.32425 4.47268)
(-39.4346 47.6288 -8.00688 4.04809 -2.29625 -9.64451)
(-5.639 48.9298 -8.15007 -16.1062 2.09171 -8.57265)
(10.3725 22.0183 -3.96265 -36.5431 7.7291 -14.9878)
(-63.8501 9.96602 -3.85661 7.45818 -3.37128 -4.18386)
(-54.7051 26.0322 -7.18856 -11.4758 -1.12139 -19.5115)
(6.03631 26.1833 -7.27997 -3.29859 0.794529 -3.22722)
(23.0688 10.5849 -4.22852 -13.3466 3.11637 -10.3998)
(285.86 113.858 -3.31024 642.821 32.6999 342.804)
(43.3845 101.77 -11.2177 130.939 9.94978 59.4163)
(-87.1554 96.8558 -12.1512 -171.451 -19.4501 -90.0968)
(-321.807 98.3842 -5.05575 -656.182 -44.5665 -358.103)
(-71.5077 42.7818 -5.43856 266.623 -3.57947 25.6309)
(-18.0579 112.872 -21.1012 108.538 -2.54684 17.6388)
(-36.7758 111.488 -22.8098 -132.159 -0.387416 -42.2368)
(10.4851 42.4017 -8.67637 -292.567 0.85225 -50.4027)
(-36.2083 44.4738 -3.57793 248.613 -11.3678 44.4643)
(-35.939 97.0727 -17.4626 76.6451 -3.91699 2.32996)
(-20.7722 97.1668 -18.9476 -91.193 3.8806 -23.5871)
(-16.5642 44.7962 -6.8699 -258.717 11.7161 -58.7603)
(-45.7707 36.8225 -2.07773 176.426 -14.9013 26.8943)
(-34.8403 83.954 -13.1229 57.246 -4.36497 0.244059)
(-18.2955 84.2943 -14.5967 -65.9111 5.6858 -18.2974)
(-4.13514 37.5991 -5.60868 -180.378 16.7307 -38.0808)
(-43.8518 30.3882 -0.604277 119.272 -15.0111 20.1159)
(-33.0915 69.8126 -9.50786 38.3925 -4.08829 -1.49006)
(-15.607 70.3016 -10.9651 -44.2061 6.11368 -14.382)
(-3.05148 31.4399 -4.12362 -120.549 17.5841 -29.8636)
(-43.7411 22.7327 0.210469 70.1951 -13.03 13.7023)
(-31.3069 54.914 -6.87669 22.1456 -3.37016 -2.90274)
(-13.4551 55.798 -8.17628 -27.8494 5.64449 -12.1351)
(-0.693173 24.551 -2.9933 -71.5852 16.0058 -23.5675)
(-42.9698 13.9032 0.289386 36.7724 -9.59565 10.7319)
(-31.91 39.3722 -5.28465 7.9206 -2.50726 -5.4837)
(-10.4884 40.6637 -6.27163 -15.9993 4.41321 -10.624)
(3.3982 17.1391 -2.17797 -36.6544 12.43 -19.5951)
(-56.5002 7.69375 -0.276267 11.7922 -4.39112 1.76538)
(-48.5866 22.2239 -4.78516 -8.30176 -1.04055 -16.9216)
(0.852015 22.4187 -5.77676 -4.17737 2.20816 -5.72387)
(15.5496 8.62633 -2.37431 -15.0263 6.09411 -15.6168)
(295.904 119.128 -2.30183 657.984 16.5243 365.285)
(46.7802 105.88 -7.35189 135.847 4.36247 67.6452)
(-88.7949 100.768 -8.06594 -172.636 -11.8952 -96.0377)
(-332.717 102.699 -3.55209 -670.03 -25.4311 -380.629)
(-72.0011 43.5659 -4.45871 268.477 -1.93502 46.87)
(-16.1942 114.704 -14.7452 113.034 -1.70787 28.6296)
(-40.6714 113.428 -16.0757 -136.99 -0.980362 -53.7558)
(6.30369 43.1911 -6.79897 -297.247 -0.335205 -75.3714)
(-36.6161 43.8346 -3.74186 252.197 -8.22282 59.2462)
(-35.6688 96.4542 -13.5021 80.0574 -2.8845 9.83194)
(-23.6297 96.5294 -14.6804 -95.1056 3.09098 -31.4374)
(-20.8333 43.8846 -5.99079 -264.86 8.85546 -77.2749)
(-46.4384 35.5077 -2.54599 178.886 -11.4414 35.3072)
(-34.6703 81.0829 -10.6214 59.9052 -3.30784 5.46981)
(-21.0448 81.4074 -11.7405 -68.0521 5.24707 -23.1707)
(-8.81425 36.2222 -4.77935 -185.216 13.8262 -50.3964)
(-45.696 28.5537 -1.32845 120.387 -11.9384 22.8734)
(-33.0448 66.134 -7.64086 40.7547 -3.08143 2.03198)
(-18.1542 66.6745 -8.69985 -45.2307 6.03947 -17.0917)
(-6.48995 29.725 -3.45221 -123.168 15.3561 -36.1459)
(-45.9189 20.8595 -0.475981 70.8281 -10.5349 12.7098)
(-31.2125 51.3656 -5.30013 24.2773 -2.4419 -0.626381)
(-15.6213 52.4201 -6.21565 -27.8716 5.83148 -13.0695)
(-3.29621 23.0627 -2.32533 -72.6835 14.4728 -25.3728)
(-44.6761 12.2107 -0.202846 37.6946 -7.78313 7.58361)
(-31.5991 36.7243 -3.93744 9.8941 -1.64841 -4.07247)
(-12.1052 38.3259 -4.65371 -15.2326 4.67879 -9.93085)
(1.72645 16.1786 -1.59948 -36.4893 11.5325 -17.6501)
(-58.7082 6.9854 -0.75589 11.4086 -3.42936 -3.89587)
(-48.1125 21.1219 -4.06944 -6.39591 -0.538331 -15.8679)
(0.039609 21.5498 -4.91046 -2.42824 2.21394 -2.53188)
(16.6178 8.42457 -2.12628 -11.6238 5.4984 -7.77304)
(300.919 120.733 -1.38878 666.363 7.41998 378.434)
(47.968 106.225 -4.50039 138.385 1.518 71.9988)
(-90.0292 100.851 -4.95626 -173.659 -6.95191 -100.15)
(-338.403 103.555 -2.19398 -677.347 -13.5638 -394.36)
(-73.2898 43.6542 -2.92097 268.714 -1.73254 61.2567)
(-16.8476 115.319 -9.52589 114.554 -1.27249 34.3825)
(-41.6983 114.048 -10.3975 -137.358 -0.751382 -60.3619)
(5.11444 43.2924 -4.47797 -297.56 0.0938887 -92.2758)
(-37.3456 43.9904 -2.81343 254.319 -5.55228 72.084)
(-37.154 96.8735 -9.47 81.3379 -1.8838 14.2692)
(-24.5374 96.9836 -10.2427 -95.5768 2.28233 -36.8753)
(-22.3426 44.0245 -4.27567 -266.586 6.30977 -92.1173)
(-47.2985 35.4438 -2.14946 181.288 -7.70189 44.3864)
(-36.143 81.002 -7.87351 61.2202 -2.07056 8.71681)
(-22.1558 81.3822 -8.56237 -68.33 4.12621 -27.0119)
(-10.3314 36.2323 -3.51911 -187.004 10.0918 -61.0708)
(-46.4817 28.3013 -1.32472 123.013 -8.18575 28.2431)
(-34.3387 65.6982 -5.8732 42.2317 -1.86736 4.20816)
(-19.3432 66.3415 -6.48636 -45.2402 4.96279 -19.3476)
(-7.89414 29.6553 -2.56058 -124.589 11.6196 -42.4848)
(-46.4929 20.4846 -0.683261 73.6604 -7.38561 15.0875)
(-32.2094 50.8197 -4.18979 25.9118 -1.42838 0.745668)
(-16.6568 52.0457 -4.69032 -27.4889 4.94428 -13.8186)
(-4.47826 23.0166 -1.70341 -73.59 11.2974 -27.9296)
(-44.6442 11.7763 -0.478782 40.8897 -5.64218 8.06984)
(-32.2019 36.3361 -3.30622 11.6328 -0.937741 -3.1328)
(-12.8405 38.1667 -3.68328 -14.4362 4.0332 -9.18015)
(0.846493 16.2275 -1.19863 -36.7756 9.23796 -16.9333)
(-58.6228 6.85249 -1.10532 13.999 -2.65931 -4.85501)
(-48.5637 21.0302 -3.90796 -4.6989 -0.299812 -14.92)
(-0.526363 21.5841 -4.40729 -1.40623 1.92137 -0.140398)
(16.5274 8.56323 -1.85033 -10.8415 4.51257 -3.59942)
(302.64 120.886 -0.77403 669.665 2.81959 384.862)
(48.4283 105.427 -2.62471 139.778 0.248464 74.28)
(-90.5855 99.8447 -2.89625 -173.739 -3.89768 -102.47)
(-340.219 103.176 -1.26643 -679.151 -6.80011 -401.05)
(-74.357 43.4427 -1.74323 268.954 -1.61289 69.8467)
(-17.4823 115.157 -5.83473 115.548 -0.954059 37.5827)
(-42.2551 113.877 -6.37318 -136.823 -0.442747 -64.496)
(4.49308 43.1223 -2.73262 -297.185 0.504193 -102.94)
(-38.3364 44.077 -1.86696 255.514 -3.72178 80.4159)
(-38.2664 97.1741 -6.2212 82.2712 -1.17508 16.9751)
(-25.0846 97.3337 -6.70593 -95.1415 1.64308 -40.642)
(-22.8523 44.166 -2.78739 -266.712 4.45441 -102.099)
(-48.3091 35.6139 -1.55439 182.927 -4.93853 50.9547)
(-37.2404 81.457 -5.44248 62.3002 -1.17587 10.8664)
(-22.7989 81.9018 -5.85324 -67.9634 3.01863 -29.9209)
(-10.869 36.5054 -2.37803 -187.414 7.01225 -68.9138)
(-47.3337 28.4583 -1.06914 125.054 -5.24627 32.6982)
(-35.2853 66.1444 -4.24143 43.5001 -0.990226 5.78108)
(-19.9928 66.8755 -4.58592 -44.8298 3.71936 -21.1955)
(-8.4207 29.9738 -1.77642 -125.055 8.20736 -47.6399)
(-47.1056 20.5696 -0.669761 75.955 -4.82331 17.6548)
(-32.901 51.2054 -3.17967 27.3478 -0.716714 1.89839)
(-17.1915 52.5526 -3.44198 -26.9357 3.77374 -14.5585)
(-4.88004 23.343 -1.22108 -73.8624 8.15018 -30.418)
(-44.8211 11.7626 -0.586834 43.3783 -3.82146 9.39415)
(-32.6239 36.6727 -2.71872 13.1135 -0.466905 -2.18054)
(-13.1771 38.6446 -2.90196 -13.6977 3.10402 -8.78275)
(0.666125 16.5385 -0.941487 -36.6858 6.78906 -16.9765)
(-58.978 6.89531 -1.21704 15.8713 -1.87792 -4.69869)
(-49.0877 21.2728 -3.50981 -3.43863 -0.138674 -14.0731)
(-0.649904 21.8791 -3.7845 -0.481385 1.47076 1.51694)
(16.9922 8.76789 -1.60103 -10.0332 3.34916 -1.09723)
(302.964 120.567 -0.395316 670.577 0.750111 387.762)
(48.6098 104.467 -1.44666 140.586 -0.19656 75.4582)
(-90.7141 98.7348 -1.59989 -173.322 -2.06502 -103.641)
(-340.3 102.493 -0.684009 -678.498 -3.14792 -403.914)
(-74.974 43.1461 -0.950112 269.293 -1.32122 74.7856)
(-17.9226 114.692 -3.36094 116.29 -0.672292 39.3094)
(-42.5709 113.4 -3.67697 -136.095 -0.214433 -66.9966)
(4.03642 42.869 -1.5527 -296.692 0.627681 -109.368)
(-39.0425 44.0554 -1.11416 256.412 -2.40993 85.4859)
(-38.9746 97.2357 -3.80129 83.0369 -0.70253 18.5416)
(-25.4491 97.4336 -4.09221 -94.524 1.12039 -43.1084)
(-23.0819 44.2023 -1.67564 -266.406 3.00547 -108.368)
(-49.0299 35.7445 -0.991332 184.15 -3.02647 55.2595)
(-37.9423 81.8303 -3.47224 63.1763 -0.621831 12.1948)
(-23.1842 82.324 -3.71028 -67.4203 2.04637 -31.9243)
(-11.0889 36.7223 -1.47971 -187.314 4.59986 -74.1232)
(-47.9432 28.6392 -0.735121 126.551 -3.17906 35.9231)
(-35.8799 66.6426 -2.81628 44.5055 -0.469043 6.84633)
(-20.3466 67.4356 -3.00641 -44.3008 2.54856 -22.5363)
(-8.6117 30.2742 -1.13944 -125.032 5.4059 -51.3028)
(-47.5285 20.7229 -0.518833 77.618 -2.95958 19.8614)
(-33.318 51.7027 -2.21774 28.4516 -0.308146 2.78465)
(-17.4497 53.1306 -2.35271 -26.364 2.60912 -15.1539)
(-4.99558 23.6629 -0.818479 -73.7791 5.42993 -32.4291)
(-44.9568 11.8338 -0.515571 45.1267 -2.41774 10.9159)
(-32.8702 37.0932 -2.03274 14.2108 -0.19927 -1.35658)
(-13.2979 39.1545 -2.11828 -13.0605 2.15221 -8.59876)
(0.69684 16.8251 -0.690202 -36.4273 4.57322 -17.4066)
(-59.1612 6.94815 -1.03505 17.3384 -1.23543 -3.72992)
(-49.442 21.524 -2.7557 -2.51264 -0.0527723 -13.2795)
(-0.617176 22.1564 -2.90339 0.230126 1.01708 2.50268)
(17.3476 8.92178 -1.23285 -9.50964 2.27521 -0.0561627)
(302.822 120.212 -0.178169 670.587 0.0259997 388.938)
(48.6822 103.722 -0.709713 141.05 -0.236119 76.0432)
(-90.6671 97.893 -0.786934 -172.83 -0.975405 -104.171)
(-339.853 101.91 -0.328677 -677.26 -1.28384 -404.946)
(-75.312 42.895 -0.454819 269.565 -0.862536 77.4081)
(-18.1902 114.242 -1.70877 116.799 -0.401639 40.1853)
(-42.7318 112.941 -1.87354 -135.476 -0.0829149 -68.3964)
(3.73745 42.6504 -0.778423 -296.253 0.48822 -112.946)
(-39.4867 43.9924 -0.574897 257.026 -1.36704 88.2909)
(-39.3843 97.1754 -2.02142 83.5953 -0.373835 19.3817)
(-25.672 97.3973 -2.1764 -94.0051 0.656244 -44.5787)
(-23.1942 44.1803 -0.877776 -266.057 1.751 -111.968)
(-49.487 35.8078 -0.537476 184.969 -1.64115 57.766)
(-38.3499 82.0352 -1.9071 63.8019 -0.294239 12.9468)
(-23.4042 82.5594 -2.03149 -66.9549 1.18524 -33.1575)
(-11.1872 36.8431 -0.797084 -187.102 2.61494 -77.2316)
(-48.338 28.756 -0.419866 127.513 -1.70162 37.9271)
(-36.2203 66.9772 -1.59456 45.2001 -0.193678 7.49713)
(-20.5314 67.8082 -1.69078 -43.8558 1.48172 -23.3877)
(-8.67679 30.4677 -0.629999 -124.865 3.06999 -53.5869)
(-47.8046 20.8328 -0.321102 78.6561 -1.5955 21.3753)
(-33.5473 52.0593 -1.30438 29.1894 -0.109354 3.37945)
(-17.5657 53.5358 -1.36887 -25.9126 1.52275 -15.5553)
(-5.0082 23.8773 -0.470353 -73.59 3.09933 -33.7854)
(-45.065 11.893 -0.346221 46.1873 -1.33307 12.0996)
(-32.9965 37.3955 -1.25529 14.9263 -0.0697126 -0.758385)
(-13.3252 39.5079 -1.29234 -12.596 1.25704 -8.52637)
(0.78528 17.0144 -0.424806 -36.1549 2.62439 -17.8446)
(-59.2869 6.98757 -0.685976 18.2581 -0.705266 -2.78759)
(-49.6486 21.7019 -1.74632 -1.91425 -0.0142511 -12.6769)
(-0.54121 22.3424 -1.8193 0.723584 0.594546 3.04324)
(17.6142 9.01437 -0.778511 -9.14385 1.312 0.308074)
(302.662 120.002 -0.0501921 670.439 -0.0544698 389.329)
(48.7079 103.328 -0.211599 141.265 -0.0955337 76.2844)
(-90.6059 97.4518 -0.23504 -172.523 -0.283485 -104.366)
(-339.5 101.589 -0.0967401 -676.431 -0.334518 -405.228)
(-75.4607 42.7557 -0.133302 269.708 -0.299077 78.5309)
(-18.3159 113.981 -0.520169 117.058 -0.133724 40.5487)
(-42.7969 112.675 -0.571187 -135.128 -0.0196257 -69.0197)
(3.59083 42.5283 -0.235015 -295.997 0.18151 -114.534)
(-39.6986 43.9461 -0.176247 257.338 -0.444497 89.5245)
(-39.5721 97.1131 -0.630908 83.8894 -0.117431 19.7434)
(-25.777 97.3462 -0.67952 -93.717 0.216606 -45.2613)
(-23.2413 44.1545 -0.271752 -265.844 0.576624 -113.597)
(-49.707 35.8296 -0.169335 185.381 -0.520828 58.9039)
(-38.5374 82.1168 -0.605799 64.1274 -0.0859664 13.2827)
(-23.5046 82.6552 -0.644523 -66.6949 0.388274 -33.7409)
(-11.2265 36.8926 -0.250827 -186.959 0.849573 -78.6716)
(-48.5308 28.8085 -0.135994 127.982 -0.535702 38.8734)
(-36.3756 67.1343 -0.514987 45.5538 -0.0509353 7.80297)
(-20.6108 67.983 -0.544517 -43.6082 0.485885 -23.7972)
(-8.69558 30.5573 -0.201367 -124.741 0.995888 -54.6719)
(-47.938 20.8842 -0.108709 79.1518 -0.504016 22.1329)
(-33.6487 52.2338 -0.430204 29.557 -0.0246839 3.67551)
(-17.6088 53.7326 -0.449321 -25.6668 0.500043 -15.7541)
(-5.00007 23.9794 -0.153799 -73.4592 1.00715 -34.4592)
(-45.1187 11.9221 -0.12249 46.682 -0.426849 12.7315)
(-33.0478 37.5448 -0.424701 15.2778 -0.0155155 -0.447063)
(-13.3241 39.6789 -0.43492 -12.3508 0.412978 -8.50273)
(0.844343 17.103 -0.14425 -35.9914 0.854535 -18.1026)
(-59.3362 7.00985 -0.240981 18.6973 -0.232765 -2.23102)
(-49.7347 21.7931 -0.59734 -1.61665 -0.00231185 -12.3504)
(-0.491821 22.4309 -0.619357 0.976838 0.196201 3.27847)
(17.7462 9.05382 -0.267304 -8.95886 0.428572 0.394417)
)
;

boundaryField
{
    interface
    {
        type            calculated;
        value           nonuniform List<symmTensor> 
192
(
(-37.6334 -0.106565 3.23812 682.61 65.6686 203.552)
(-36.1257 -0.252741 4.98458 334.51 -17.2355 35.8942)
(-36.3686 -0.550466 5.67518 332.325 -9.95452 66.4296)
(-36.258 -0.940089 5.9263 238.89 -16.1489 46.846)
(-36.4153 -1.44698 5.97598 164.763 -15.351 37.6544)
(-36.6679 -2.16918 5.82164 99.3223 -13.4174 27.7785)
(-36.6857 -3.3943 5.36863 57.0077 -10.2129 23.59)
(-34.166 -5.20334 4.34319 35.8822 -4.60694 24.7899)
(-41.9895 0.0992424 2.22492 670.388 41.2341 215.947)
(-41.135 -0.0424742 3.46115 365.621 -3.67832 65.0127)
(-42.0091 -0.365759 3.90249 327.965 -15.0324 64.4993)
(-42.4955 -0.860207 4.03581 237.845 -20.4954 47.7751)
(-42.8686 -1.51804 4.01095 160.5 -20.9158 36.744)
(-42.9016 -2.46933 3.82672 95.5771 -18.2951 28.003)
(-41.8092 -4.05489 3.42666 53.9716 -13.364 24.8171)
(-36.0138 -6.1493 2.67008 35.956 -6.15775 28.1167)
(-44.6757 0.143311 1.52958 681.817 20.8784 234.486)
(-43.5936 0.00335519 2.37078 362.403 -1.89775 87.521)
(-44.5628 -0.327017 2.63019 328.19 -10.6622 79.081)
(-45.0993 -0.870446 2.67328 238.008 -15.3732 54.704)
(-45.3996 -1.61946 2.61169 160.389 -16.3128 37.432)
(-45.1205 -2.71108 2.44639 95.8858 -14.588 24.5059)
(-43.2718 -4.49381 2.15589 55.3456 -10.867 18.9847)
(-35.842 -6.6716 1.66519 36.9247 -4.96793 20.6176)
(-46.4628 0.141115 1.07964 688.177 9.26629 246.068)
(-45.179 -0.00526602 1.68001 360.826 -1.99836 104.873)
(-46.1239 -0.34416 1.84752 329.099 -7.20735 94.2895)
(-46.6079 -0.919264 1.85367 239.813 -10.294 65.2756)
(-46.7896 -1.7285 1.78701 162.709 -11.1478 43.1691)
(-46.2397 -2.90804 1.65253 98.6927 -10.2245 26.3479)
(-43.8833 -4.80704 1.44653 58.7184 -7.93363 18.2382)
(-35.475 -7.00962 1.11506 39.9448 -3.90805 18.4499)
(-47.6649 0.13038 0.755128 690.288 3.40899 251.982)
(-46.2611 -0.0261791 1.18268 360.381 -2.05594 115.558)
(-47.172 -0.376042 1.29639 330.055 -4.90865 104.809)
(-47.5963 -0.974237 1.29042 241.511 -6.64499 73.6395)
(-47.6784 -1.82419 1.2335 164.946 -7.18777 48.7036)
(-46.9183 -3.06033 1.13146 101.274 -6.73033 29.3156)
(-44.2122 -5.03347 0.987811 61.5519 -5.43694 19.428)
(-35.1418 -7.24421 0.760205 42.4943 -2.8073 18.6042)
(-48.457 0.120197 0.500802 690.403 0.805143 254.742)
(-46.9857 -0.0456501 0.788666 360.347 -1.76385 121.677)
(-47.8787 -0.405845 0.86459 330.932 -3.23821 111.315)
(-48.2577 -1.02118 0.85689 242.891 -4.12337 79.2578)
(-48.2699 -1.89884 0.815093 166.658 -4.40576 52.8757)
(-47.3522 -3.17168 0.743516 103.181 -4.18085 32.0836)
(-44.4068 -5.19263 0.647688 63.5644 -3.48832 21.1999)
(-34.8887 -7.40553 0.496941 44.4558 -1.87671 19.9246)
(-48.9437 0.113058 0.28484 689.9 -0.0640087 255.897)
(-47.434 -0.0590626 0.450588 360.394 -1.17549 124.888)
(-48.328 -0.426961 0.494224 331.562 -1.86344 114.923)
(-48.6779 -1.05421 0.489011 243.835 -2.26291 82.5509)
(-48.6473 -1.94973 0.464108 167.769 -2.38569 55.5014)
(-47.619 -3.24556 0.421318 104.378 -2.28066 34.0345)
(-44.5197 -5.29567 0.363834 64.7949 -1.94687 22.6679)
(-34.7259 -7.50562 0.274038 45.6981 -1.08499 21.2335)
(-49.1662 0.109227 0.0915933 689.504 -0.102781 256.297)
(-47.6417 -0.0665267 0.145408 360.43 -0.410852 126.252)
(-48.5327 -0.43802 0.159336 331.894 -0.610424 116.516)
(-48.8761 -1.07057 0.157671 244.314 -0.723209 84.0509)
(-48.8296 -1.97548 0.149569 168.312 -0.756379 56.7466)
(-47.7394 -3.28493 0.13524 104.953 -0.725542 35.0229)
(-44.5403 -5.35116 0.115128 65.3861 -0.627733 23.4861)
(-34.5999 -7.5454 0.0838308 46.3116 -0.360372 22.027)
(58.4408 89.8993 -4.38798 438.51 -0.811039 -18.0532)
(-123.074 39.9069 -7.24061 185.617 -1.28544 -12.7434)
(-82.0074 54.8484 -8.51536 207.809 -1.36202 -9.25951)
(-81.6053 49.4662 -9.19379 145.9 -1.38935 -7.02719)
(-70.7823 44.0855 -9.67629 100.484 -1.4732 -5.83539)
(-64.382 34.6987 -10.075 57.8899 -1.66082 -5.53069)
(-59.9739 22.9937 -10.4979 28.3915 -2.01633 -6.16776)
(-68.8346 11.6756 -11.3008 6.05966 -2.51751 -7.73738)
(-8.58044 70.0557 -3.15269 90.8992 -0.634355 -15.5248)
(-61.1797 105.704 -5.55263 61.5482 -1.00417 -13.287)
(-61.1026 112.007 -6.51041 61.2374 -1.05422 -11.0846)
(-57.5352 104.898 -7.01333 43.3832 -0.928682 -9.5779)
(-51.6777 91.9844 -7.39264 28.6438 -0.799788 -8.74816)
(-46.8467 74.3317 -7.75457 14.7273 -0.731864 -8.52361)
(-43.6578 53.7283 -8.2111 3.89637 -0.78166 -8.88277)
(-52.1836 28.9307 -9.28305 -5.70984 -0.939839 -9.55469)
(-42.2844 63.8788 -2.74323 -147.003 -0.41778 -13.6661)
(9.77162 102.934 -5.14088 -70.647 -0.712067 -12.885)
(2.31128 112.354 -6.12518 -71.4487 -0.750117 -11.442)
(0.227373 105.687 -6.64129 -52.9172 -0.577858 -10.4072)
(-2.62732 92.9195 -7.00883 -39.0615 -0.365355 -9.84249)
(-4.04237 75.6158 -7.35165 -26.9263 -0.186192 -9.72004)
(-4.3823 55.2099 -7.78883 -18.3244 -0.0816387 -10.0317)
(2.9547 29.1814 -8.85283 -9.07845 -0.0999773 -10.7601)
(-108.186 73.4058 -2.71989 -475.483 -0.411239 -11.1169)
(72.2517 37.145 -5.34466 -191.571 -0.673997 -10.6396)
(29.5134 55.9076 -6.38044 -214.25 -0.620687 -9.01963)
(30.9871 50.9178 -6.92788 -150.286 -0.360597 -7.96584)
(22.644 45.7191 -7.28963 -104.929 -0.0695138 -7.388)
(18.8116 36.8855 -7.60139 -63.6395 0.187175 -7.22546)
(17.4496 26.0354 -7.98574 -34.9281 0.43647 -7.43046)
(26.2598 12.3156 -8.99425 -14.2946 0.672931 -8.40736)
(-4.96359 0.614988 1.24875 -680.475 -79.8466 -217.53)
(-2.43573 0.810436 2.21978 -338.595 16.0864 -46.2529)
(-0.117118 0.665543 2.47994 -328.87 9.5484 -70.0963)
(1.38765 0.250907 2.57492 -231.141 16.597 -46.8976)
(2.38562 -0.186455 2.66892 -156.801 16.0044 -37.2312)
(3.23267 -0.60146 2.81391 -93.2629 14.3659 -28.6457)
(4.86837 -1.27879 3.04082 -50.5236 11.1184 -25.3817)
(9.26647 -3.34086 3.22782 -28.0281 4.53555 -26.1587)
(-6.81588 0.258979 0.358127 -663.522 -54.4996 -227.343)
(-6.36391 0.367028 0.779141 -382.41 0.872789 -78.38)
(-5.43491 0.286676 0.835468 -332.568 15.5404 -71.6849)
(-4.71777 0.0267419 0.813922 -237.711 22.6681 -53.3564)
(-4.06023 -0.269684 0.837126 -159.161 23.8726 -42.6468)
(-3.13733 -0.543333 0.937344 -95.0816 21.7492 -35.1593)
(-0.803652 -1.07657 1.1292 -50.9726 16.848 -31.4848)
(6.12634 -3.31325 1.42692 -27.9829 8.31581 -31.0991)
(-7.89459 0.0693001 0.160239 -675.65 -30.5209 -248.191)
(-8.10814 0.0936618 0.478469 -382.34 -0.150667 -105.56)
(-7.65347 0.0593911 0.564359 -335.955 11.5424 -91.7959)
(-7.12518 -0.0948788 0.579279 -240.957 18.0519 -66.1013)
(-6.41327 -0.28423 0.614062 -161.181 20.0345 -48.7897)
(-5.23651 -0.453571 0.696991 -96.2952 18.8812 -36.2268)
(-2.38916 -0.893585 0.826668 -51.3987 15.1106 -28.3914)
(5.62736 -3.17358 1.00228 -25.6585 7.38379 -22.3931)
(-8.50116 0.0102804 0.137418 -681.766 -15.7663 -261.624)
(-8.86397 -0.00736256 0.419048 -381.323 0.613184 -126.151)
(-8.52873 -0.0278998 0.528278 -336.972 8.18362 -109.932)
(-8.02383 -0.129171 0.568365 -242.581 12.8996 -79.0962)
(-7.2129 -0.255346 0.606917 -162.626 14.8028 -56.2476)
(-5.80509 -0.36398 0.666467 -97.3363 14.3966 -38.8853)
(-2.58204 -0.760787 0.739758 -51.787 11.8855 -26.9813)
(6.05933 -3.09544 0.824762 -24.7803 5.99396 -17.058)
(-8.87948 -0.0059537 0.121488 -683.04 -7.54257 -268.845)
(-9.28011 -0.0384418 0.348129 -380.622 1.15572 -139.351)
(-8.97026 -0.0520474 0.447167 -337.149 5.80666 -122.578)
(-8.44602 -0.126813 0.489073 -243.203 8.86749 -89.0852)
(-7.54757 -0.218673 0.520712 -163.354 10.3005 -62.7601)
(-5.97098 -0.294953 0.558474 -97.8531 10.236 -41.9739)
(-2.51037 -0.670231 0.595912 -51.8823 8.64279 -27.0316)
(6.55622 -3.05159 0.635119 -24.1381 4.42847 -14.2829)
(-9.11101 -0.00951785 0.0957675 -682.184 -3.2574 -272.421)
(-9.51749 -0.0450466 0.259625 -380.041 1.21807 -147.233)
(-9.2059 -0.0532027 0.334368 -337.02 3.94621 -130.548)
(-8.65269 -0.114718 0.367529 -243.345 5.79284 -95.7739)
(-7.6878 -0.188818 0.389823 -163.574 6.72909 -67.4878)
(-5.99841 -0.247919 0.412195 -97.9689 6.76385 -44.6053)
(-2.3824 -0.612592 0.430584 -51.7692 5.79103 -27.7232)
(6.96478 -3.02808 0.445155 -23.733 3.0052 -13.3007)
(-9.24118 -0.00899066 0.0604869 -680.889 -1.2072 -274.042)
(-9.64612 -0.0442031 0.158861 -379.576 0.888381 -151.568)
(-9.32546 -0.0488688 0.203975 -336.815 2.31215 -135.101)
(-8.74766 -0.103821 0.224315 -243.306 3.2903 -99.7517)
(-7.73943 -0.168849 0.2373 -163.569 3.80682 -70.4489)
(-5.97924 -0.219083 0.249504 -97.9067 3.84492 -46.4121)
(-2.26438 -0.580483 0.257792 -51.5898 3.3148 -28.4234)
(7.25036 -3.0176 0.25644 -23.4532 1.73214 -13.0883)
(-9.30207 -0.00845075 0.0202831 -680.053 -0.287672 -274.649)
(-9.70565 -0.043376 0.05278 -379.314 0.322049 -153.476)
(-9.38081 -0.0463268 0.0675464 -336.679 0.763632 -137.155)
(-8.79171 -0.0981804 0.0742462 -243.254 1.0691 -101.591)
(-7.76312 -0.158845 0.0784459 -163.53 1.23319 -71.8605)
(-5.96795 -0.205137 0.0824934 -97.8415 1.24738 -47.3199)
(-2.19946 -0.570407 0.0848515 -51.4719 1.07812 -28.8333)
(7.36964 -3.01645 0.0806767 -23.325 0.565339 -13.1184)
(-76.7407 12.0206 -4.05842 -3.79135 -1.18756 -11.1626)
(-70.1804 11.5299 -0.670524 -0.39746 -0.916748 -6.34153)
(-70.2391 11.6007 -1.2759 2.29984 -0.623271 -10.6825)
(-70.2753 11.7744 -1.69447 4.45419 -0.421699 -12.1868)
(-70.78 11.9423 -1.77943 6.08721 -0.289262 -12.4615)
(-71.1737 12.0778 -1.47934 7.25985 -0.195485 -11.8008)
(-71.4331 12.1728 -0.967683 8.00546 -0.127045 -11.009)
(-71.601 12.2192 -0.337484 8.2751 -0.0491849 -10.566)
(-60.4371 9.37595 -6.71426 -7.23094 0.264228 -19.349)
(-55.7583 8.42045 -4.83177 -5.58562 0.195529 -18.3789)
(-55.283 8.2985 -4.6077 -3.71888 0.226523 -17.3552)
(-55.7952 8.34015 -4.69577 -2.10738 0.212515 -16.2884)
(-56.4135 8.40863 -4.32326 -0.857392 0.169285 -15.3752)
(-56.8635 8.47173 -3.42119 0.0559603 0.119773 -14.5277)
(-57.1241 8.52294 -2.17246 0.667744 0.0700732 -13.8699)
(-57.2103 8.56307 -0.743082 1.00915 0.0226982 -13.4875)
(6.72425 8.74738 -6.93193 -9.84882 0.738395 -7.75095)
(2.6928 7.79655 -6.01526 -8.68668 0.616146 -9.10942)
(1.65104 7.64055 -5.67586 -7.36803 0.537777 -4.95367)
(1.15728 7.64447 -5.3738 -6.20259 0.44227 -1.61411)
(1.07697 7.68093 -4.72312 -5.27313 0.337529 0.66431)
(1.14811 7.71781 -3.65132 -4.58196 0.237114 2.01575)
(1.24611 7.74608 -2.29232 -4.11749 0.144345 2.75123)
(1.32133 7.76255 -0.780393 -3.85477 0.0499558 3.08694)
(30.5888 8.77539 -4.45091 -8.24284 1.09909 -9.68878)
(25.04 7.95978 -2.88519 -6.89954 0.824396 -12.9781)
(25.0429 7.85621 -2.88835 -5.84502 0.642671 -4.31053)
(25.2065 7.88407 -2.63418 -4.89692 0.507689 1.4088)
(25.8276 7.92939 -2.30075 -4.11757 0.38345 4.93644)
(26.3523 7.96742 -1.7677 -3.53181 0.267567 6.62603)
(26.7202 7.99209 -1.11152 -3.14268 0.159937 7.33504)
(26.8996 7.99737 -0.380482 -2.94571 0.0539822 7.56974)
)
;
    }
    symmetry
    {
        type            symmetryPlane;
    }
    bottom
    {
        type            calculated;
        value           nonuniform List<symmTensor> 
32
(
(342.048 122.317 0 513.072 136.573 342.048)
(331.475 136.822 0 497.213 67.6387 331.475)
(340.308 142.761 0 510.462 32.9475 340.308)
(345.595 144.347 0 518.392 15.3251 345.595)
(347.916 144.352 0 521.874 6.59354 347.916)
(348.783 143.925 0 523.174 2.49716 348.783)
(349.023 143.512 0 523.534 0.768766 349.023)
(349.056 143.278 0 523.584 0.14868 349.056)
(63.6849 51.1747 0 95.5274 39.3273 63.6849)
(63.8929 68.2676 0 95.8393 19.9764 63.8929)
(67.3878 70.5037 0 101.082 9.40442 67.3878)
(69.2133 69.3332 0 103.82 4.02709 69.2133)
(70.2352 67.6742 0 105.353 1.47589 70.2352)
(70.8409 66.2949 0 106.261 0.388389 70.8409)
(71.1908 65.3709 0 106.786 0.021702 71.1908)
(71.3529 64.9147 0 107.029 -0.0229952 71.3529)
(-97.4951 45.2822 0 -146.243 -53.9263 -97.4951)
(-90.1493 62.5429 0 -135.224 -31.8038 -90.1493)
(-92.3263 64.273 0 -138.489 -18.6073 -92.3263)
(-93.4778 62.6322 0 -140.217 -10.6198 -93.4778)
(-93.8259 60.6229 0 -140.739 -5.84157 -93.8259)
(-93.7813 59.0007 0 -140.672 -3.04135 -93.7813)
(-93.6202 57.9233 0 -140.43 -1.41527 -93.6202)
(-93.5031 57.393 0 -140.255 -0.407552 -93.5031)
(-349.942 103.886 0 -524.913 -161.021 -349.942)
(-336.097 116.957 0 -504.145 -87.6348 -336.097)
(-346.371 121.106 0 -519.556 -47.2135 -346.371)
(-351.801 121.316 0 -527.702 -24.667 -351.801)
(-353.658 120.312 0 -530.487 -12.3141 -353.658)
(-353.874 119.173 0 -530.811 -5.75463 -353.874)
(-353.555 118.303 0 -530.332 -2.3973 -353.555)
(-353.274 117.845 0 -529.911 -0.63799 -353.274)
)
;
    }
}


// ************************************************************************* //
