/*--------------------------------*- C++ -*----------------------------------*\
| =========                 |                                                 |
| \\      /  F ield         | foam-extend: Open Source CFD                    |
|  \\    /   O peration     | Version:     3.1                                |
|   \\  /    A nd           | Web:         http://www.extend-project.de       |
|    \\/     M anipulation  |                                                 |
\*---------------------------------------------------------------------------*/
FoamFile
{
    version     2.0;
    format      ascii;
    class       volVectorField;
    location    "1.3";
    object      U;
}
// * * * * * * * * * * * * * * * * * * * * * * * * * * * * * * * * * * * * * //

dimensions      [0 1 -1 0 0 0 0];

internalField   nonuniform List<vector> 
256
(
(-0.000791324 -0.000585193 -0.00103934)
(-0.000233921 -0.000100797 -0.000196643)
(-0.000218838 0.000258826 0.000669956)
(-0.000777164 0.000887232 0.00172997)
(-0.00376616 -0.00241798 -0.00120896)
(-0.0030907 -0.000491641 -0.000250835)
(-0.00298417 0.00118669 0.000945107)
(-0.00338687 0.00333067 0.00193053)
(-0.00772652 -0.00363434 -0.00128303)
(-0.00703415 -0.000686199 -0.000274768)
(-0.00685284 0.00205453 0.000840231)
(-0.00710941 0.00523826 0.00185268)
(-0.0125585 -0.00438747 -0.00120533)
(-0.0119071 -0.000622602 -0.000301596)
(-0.0116517 0.0029519 0.000665961)
(-0.0117032 0.0069338 0.00155565)
(-0.0179121 -0.00466544 -0.00107576)
(-0.0173003 -0.000337242 -0.000311929)
(-0.0169812 0.00382269 0.000477385)
(-0.0168634 0.0083268 0.00121849)
(-0.0234717 -0.00457024 -0.000940426)
(-0.0229021 0.000102093 -0.000312709)
(-0.0225329 0.00463666 0.000313451)
(-0.0222822 0.00944162 0.000914955)
(-0.0289759 -0.00421494 -0.000840395)
(-0.0284463 0.00062309 -0.000317112)
(-0.0280454 0.00536143 0.00018157)
(-0.0277047 0.010302 0.000681971)
(-0.0342504 -0.00372461 -0.000804848)
(-0.0337429 0.00116365 -0.000335779)
(-0.0333325 0.00598449 7.15477e-05)
(-0.0329564 0.010967 0.000521236)
(-0.000992374 -0.00057436 -0.00056035)
(-0.000485578 -9.25823e-05 -9.2974e-05)
(-0.00048202 0.0002271 0.0004356)
(-0.000986106 0.000794499 0.00107097)
(-0.00429622 -0.00231659 -0.000771421)
(-0.0035459 -0.000421614 -0.000126295)
(-0.00347456 0.00118865 0.00067618)
(-0.00401929 0.00330427 0.00136398)
(-0.00838377 -0.00354159 -0.00088981)
(-0.00768124 -0.000576372 -0.000164195)
(-0.00751246 0.00215987 0.000650289)
(-0.00779889 0.00535575 0.00139221)
(-0.0132476 -0.00429451 -0.000903069)
(-0.0125836 -0.000503623 -0.000206436)
(-0.0123268 0.00308889 0.000540548)
(-0.0123887 0.00709463 0.00123859)
(-0.018573 -0.00458872 -0.000866685)
(-0.0179525 -0.000228935 -0.000237907)
(-0.0176228 0.0039622 0.000409646)
(-0.0174962 0.00849528 0.00102881)
(-0.0240834 -0.00451229 -0.000816072)
(-0.0235069 0.000191972 -0.0002605)
(-0.0231239 0.00476151 0.000289398)
(-0.0228586 0.00959651 0.000829823)
(-0.0295467 -0.00417527 -0.000778954)
(-0.0290116 0.000695506 -0.000282094)
(-0.028598 0.00547171 0.000189251)
(-0.0282441 0.0104447 0.000670788)
(-0.0348126 -0.00370257 -0.00076995)
(-0.0342984 0.00122157 -0.000309183)
(-0.0338772 0.00609057 0.000105434)
(-0.033494 0.0111123 0.000551658)
(-0.00109315 -0.000604668 -0.000320166)
(-0.000567326 -9.59559e-05 -4.17166e-05)
(-0.000570095 0.000235378 0.00029016)
(-0.00110335 0.000827066 0.000680433)
(-0.00459949 -0.00230714 -0.000488363)
(-0.00380102 -0.000394636 -6.06626e-05)
(-0.00375346 0.00120106 0.000470142)
(-0.00438593 0.00334117 0.000936079)
(-0.00881424 -0.00349887 -0.000603806)
(-0.00807825 -0.000523912 -9.51602e-05)
(-0.00792861 0.00220455 0.000479973)
(-0.00828157 0.00541433 0.00100914)
(-0.0137449 -0.004226 -0.000657433)
(-0.0130623 -0.000432776 -0.000138109)
(-0.0128167 0.00315405 0.000420445)
(-0.0129176 0.00716216 0.000949364)
(-0.0190964 -0.00451205 -0.000677467)
(-0.0184677 -0.000152131 -0.000177553)
(-0.0181427 0.00403753 0.000337558)
(-0.0180351 0.00857065 0.00083776)
(-0.0246121 -0.0044417 -0.000682373)
(-0.0240348 0.000265896 -0.000211172)
(-0.0236529 0.0048407 0.000255421)
(-0.023393 0.00968004 0.000721358)
(-0.0300796 -0.00412097 -0.000687065)
(-0.0295479 0.000762091 -0.000241383)
(-0.0291339 0.00555418 0.000183385)
(-0.0287783 0.0105429 0.00062221)
(-0.0353636 -0.00366812 -0.000695296)
(-0.0348544 0.00128103 -0.000269165)
(-0.0344321 0.00618004 0.000121726)
(-0.0340432 0.011233 0.000540319)
(-0.00114616 -0.000626321 -0.000190804)
(-0.000598789 -9.93828e-05 -1.76621e-05)
(-0.00060469 0.000242551 0.000193539)
(-0.0011673 0.000858759 0.000435686)
(-0.00478336 -0.00232528 -0.000313117)
(-0.00395136 -0.000388083 -2.79851e-05)
(-0.00391666 0.00121177 0.000324608)
(-0.00460368 0.00338588 0.000637107)
(-0.00909947 -0.00349458 -0.000409114)
(-0.00833874 -0.000502983 -5.4971e-05)
(-0.00820258 0.00222727 0.000346698)
(-0.0086024 0.00545765 0.000717997)
(-0.0141038 -0.00419858 -0.000472189)
(-0.0134065 -0.000396742 -9.20789e-05)
(-0.0131714 0.00318875 0.000317679)
(-0.0133053 0.00720615 0.000708071)
(-0.019504 -0.00446989 -0.000516016)
(-0.0188689 -0.000105723 -0.00013019)
(-0.0185512 0.00408232 0.000267844)
(-0.0184636 0.00862002 0.000657612)
(-0.0250522 -0.00439616 -0.000547879)
(-0.0244744 0.000316672 -0.000165319)
(-0.0240971 0.00489394 0.000214256)
(-0.0238466 0.00973974 0.000596342)
(-0.0305461 -0.00408187 -0.000573287)
(-0.0300174 0.000812699 -0.000196319)
(-0.0296058 0.00561547 0.000164678)
(-0.029252 0.0106183 0.00053925)
(-0.0358578 -0.00363982 -0.000589463)
(-0.0353533 0.00133026 -0.000220615)
(-0.0349327 0.00625061 0.000121078)
(-0.0345413 0.0113279 0.00048624)
(-0.00117692 -0.000640926 -0.000116622)
(-0.000613499 -0.000102089 -7.06646e-06)
(-0.000620797 0.000247596 0.000127149)
(-0.00120455 0.00088148 0.000277324)
(-0.00489987 -0.00234894 -0.000201433)
(-0.00404431 -0.000389879 -1.23782e-05)
(-0.00401629 0.00121928 0.000220109)
(-0.0047385 0.00342346 0.000426709)
(-0.00929235 -0.00350945 -0.000274659)
(-0.00851417 -0.00049822 -3.18662e-05)
(-0.00838594 0.00224071 0.000243402)
(-0.00881605 0.00549532 0.000498266)
(-0.014362 -0.0041987 -0.000331652)
(-0.0136538 -0.000381891 -6.08854e-05)
(-0.0134258 0.00320952 0.000231068)
(-0.0135825 0.00724379 0.000509947)
(-0.0198135 -0.00445705 -0.000378812)
(-0.0191733 -8.15302e-05 -9.28042e-05)
(-0.0188613 0.00411112 0.000202407)
(-0.0187887 0.0086611 0.000492628)
(-0.025402 -0.00437652 -0.000417745)
(-0.0248231 0.000347147 -0.00012353)
(-0.0244497 0.00493075 0.000168874)
(-0.024207 0.00978847 0.000464255)
(-0.0309289 -0.00406211 -0.000448697)
(-0.0304014 0.000846199 -0.000150382)
(-0.0299921 0.00566005 0.000136291)
(-0.0296406 0.0106783 0.000434115)
(-0.0362696 -0.00362389 -0.000465827)
(-0.0357673 0.00136524 -0.000169237)
(-0.0353483 0.00630321 0.000106925)
(-0.0349562 0.0114016 0.000401719)
(-0.00119585 -0.000650678 -7.03418e-05)
(-0.000621494 -0.000104047 -2.70258e-06)
(-0.000629441 0.000250982 7.97344e-05)
(-0.00122729 0.000896654 0.00017012)
(-0.00497457 -0.00237023 -0.000125587)
(-0.004103 -0.000394135 -5.25741e-06)
(-0.00407846 0.00122442 0.00014179)
(-0.00482317 0.00345167 0.00027245)
(-0.0094213 -0.00352947 -0.000176581)
(-0.00863111 -0.000500293 -1.8228e-05)
(-0.00850727 0.00224934 0.000160904)
(-0.00895655 0.00552601 0.000326829)
(-0.0145418 -0.00421105 -0.000220226)
(-0.0138259 -0.00037807 -3.87237e-05)
(-0.0136022 0.00322284 0.000156777)
(-0.0137735 0.00727556 0.00034373)
(-0.020037 -0.00446049 -0.000259371)
(-0.0193929 -7.09509e-05 -6.22477e-05)
(-0.0190844 0.00413015 0.000141187)
(-0.0190217 0.00869536 0.000341535)
(-0.0256621 -0.00437349 -0.000293361)
(-0.0250819 0.000363292 -8.54567e-05)
(-0.0247109 0.00495585 0.000121381)
(-0.0244736 0.00982761 0.000330607)
(-0.0312194 -0.00405639 -0.000320414)
(-0.0306919 0.000865946 -0.000105585)
(-0.030284 0.00569108 0.000101326)
(-0.0299343 0.0107245 0.000316276)
(-0.0365854 -0.00361835 -0.000334397)
(-0.0360834 0.00138732 -0.000118602)
(-0.0356652 0.00634019 8.28631e-05)
(-0.0352731 0.0114563 0.000297751)
(-0.00120707 -0.000656748 -3.79904e-05)
(-0.000625984 -0.000105319 -9.85733e-07)
(-0.000634266 0.000253067 4.37845e-05)
(-0.00124072 0.000905915 9.21772e-05)
(-0.00501975 -0.00238571 -6.9126e-05)
(-0.00413824 -0.000398026 -2.09249e-06)
(-0.00411548 0.00122771 7.93965e-05)
(-0.00487366 0.00347037 0.000151746)
(-0.00950117 -0.00354641 -9.91091e-05)
(-0.00870343 -0.000503921 -9.47863e-06)
(-0.00858192 0.00225471 9.16713e-05)
(-0.00904257 0.00554763 0.000185371)
(-0.0146559 -0.00422466 -0.000126166)
(-0.0139352 -0.000378658 -2.1616e-05)
(-0.0137138 0.00323108 9.08578e-05)
(-0.0138938 0.00729866 0.000198466)
(-0.0201821 -0.00446889 -0.000151437)
(-0.0195354 -6.7373e-05 -3.58963e-05)
(-0.019229 0.004142 8.33014e-05)
(-0.019172 0.00872022 0.000200779)
(-0.0258342 -0.00437727 -0.000173906)
(-0.0252528 0.000370745 -5.01701e-05)
(-0.0248832 0.00497161 7.30041e-05)
(-0.024649 0.0098553 0.000197654)
(-0.031414 -0.00405743 -0.000191803)
(-0.0308861 0.000876244 -6.24735e-05)
(-0.0304789 0.00571069 6.22572e-05)
(-0.0301302 0.0107561 0.000191787)
(-0.0367983 -0.00361836 -0.000200678)
(-0.0362958 0.00139966 -6.99778e-05)
(-0.035878 0.00636363 5.221e-05)
(-0.0354859 0.0114928 0.000182481)
(-0.00121232 -0.000659685 -1.20474e-05)
(-0.000628043 -0.000105948 -2.50146e-07)
(-0.000636481 0.000254059 1.39547e-05)
(-0.00124702 0.000910304 2.91973e-05)
(-0.00504113 -0.00239378 -2.21062e-05)
(-0.00415488 -0.000400235 -5.55823e-07)
(-0.00413291 0.00122933 2.55652e-05)
(-0.00489741 0.00347969 4.87431e-05)
(-0.00953947 -0.00355584 -3.19923e-05)
(-0.00873812 -0.000506331 -2.95161e-06)
(-0.00861761 0.00225732 2.97749e-05)
(-0.00908357 0.00555876 6.0091e-05)
(-0.0147114 -0.00423297 -4.11304e-05)
(-0.0139883 -0.000379827 -6.96574e-06)
(-0.0137679 0.00323506 2.97609e-05)
(-0.0139519 0.00731078 6.49052e-05)
(-0.0202535 -0.00447486 -4.9815e-05)
(-0.0196055 -6.6593e-05 -1.17426e-05)
(-0.0193 0.00414772 2.75263e-05)
(-0.0192457 0.00873328 6.62386e-05)
(-0.0259197 -0.00438091 -5.76113e-05)
(-0.0253376 0.000373473 -1.65432e-05)
(-0.0249687 0.00497923 2.43503e-05)
(-0.024736 0.00986964 6.57374e-05)
(-0.0315115 -0.00405946 -6.3822e-05)
(-0.0309831 0.000880497 -2.0666e-05)
(-0.0305762 0.00572018 2.09824e-05)
(-0.030228 0.0107722 6.42211e-05)
(-0.0369053 -0.00361957 -6.6839e-05)
(-0.0364024 0.00140506 -2.31029e-05)
(-0.0359846 0.00637493 1.78094e-05)
(-0.0355925 0.011511 6.14206e-05)
)
;

boundaryField
{
    interface
    {
        type            calculated;
        value           nonuniform List<vector> 
192
(
(-0.00197958 -0.00182595 -0.0011602)
(-0.00436717 -0.00383807 -0.00152243)
(-0.00839449 -0.00560005 -0.00165443)
(-0.0131214 -0.00670811 -0.00157766)
(-0.0183921 -0.00722133 -0.00142373)
(-0.0238608 -0.00721921 -0.00125562)
(-0.0292883 -0.00684569 -0.00113044)
(-0.0345315 -0.00627149 -0.00108517)
(-0.00221363 -0.00199879 -0.000634853)
(-0.00497319 -0.00381895 -0.000976301)
(-0.00904475 -0.00553056 -0.00115736)
(-0.0138043 -0.00661141 -0.00119489)
(-0.0190377 -0.00712359 -0.00116114)
(-0.0244577 -0.00713877 -0.00110189)
(-0.029847 -0.00679277 -0.00105731)
(-0.0350875 -0.00625211 -0.00104984)
(-0.00240159 -0.00213516 -0.000365863)
(-0.00531416 -0.003876 -0.000617182)
(-0.0095022 -0.005521 -0.000785277)
(-0.0143143 -0.00655648 -0.000874308)
(-0.0195625 -0.00704702 -0.000913004)
(-0.0249814 -0.00706494 -0.000927088)
(-0.0303725 -0.00673943 -0.000938283)
(-0.0356299 -0.00622861 -0.000955191)
(-0.00251616 -0.00222237 -0.000219133)
(-0.00552792 -0.00393968 -0.000395855)
(-0.00981196 -0.005552 -0.000532338)
(-0.0146876 -0.00655083 -0.000629104)
(-0.0199759 -0.00701756 -0.000697251)
(-0.0254213 -0.00702788 -0.000746487)
(-0.0308353 -0.00670897 -0.000785507)
(-0.0361183 -0.00621241 -0.000813972)
(-0.0025872 -0.00227885 -0.000134582)
(-0.00566607 -0.00399544 -0.000255344)
(-0.0100232 -0.00559633 -0.000358162)
(-0.0149576 -0.00657387 -0.000442706)
(-0.0202915 -0.00702203 -0.000512707)
(-0.0257726 -0.00702186 -0.000570022)
(-0.0312167 -0.00670114 -0.000616014)
(-0.0365274 -0.00620842 -0.000645762)
(-0.00263194 -0.00231561 -8.15327e-05)
(-0.00575538 -0.00403872 -0.000159779)
(-0.0101648 -0.0056385 -0.000230896)
(-0.0151459 -0.0066056 -0.000294484)
(-0.0205198 -0.00704176 -0.000351427)
(-0.0260346 -0.00703241 -0.000400609)
(-0.0315071 -0.00670702 -0.000440435)
(-0.0368424 -0.00621319 -0.00046495)
(-0.00265858 -0.00233808 -4.41733e-05)
(-0.00580955 -0.00406802 -8.82064e-05)
(-0.0102525 -0.0056701 -0.000129867)
(-0.0152655 -0.00663283 -0.000168894)
(-0.0206682 -0.00706229 -0.000205285)
(-0.0262082 -0.00704665 -0.000237553)
(-0.0317021 -0.00671692 -0.00026382)
(-0.0370554 -0.00622076 -0.000279577)
(-0.00267105 -0.00234881 -1.40286e-05)
(-0.00583518 -0.00408277 -2.82503e-05)
(-0.0102945 -0.00568681 -4.19602e-05)
(-0.0153236 -0.00664813 -5.50805e-05)
(-0.0207411 -0.00707466 -6.753e-05)
(-0.0262945 -0.00705588 -7.86947e-05)
(-0.0317998 -0.00672368 -8.78017e-05)
(-0.0371626 -0.00622599 -9.3201e-05)
(-0.000625493 -0.00117676 -0.00166828)
(-0.00333338 -0.00246229 -0.00136635)
(-0.00727435 -0.00369371 -0.00149851)
(-0.0121131 -0.00438081 -0.00135162)
(-0.0175156 -0.00463533 -0.00117923)
(-0.0231292 -0.00453172 -0.00100221)
(-0.028678 -0.00418988 -0.00087185)
(-0.033979 -0.00372353 -0.000819487)
(5.81218e-05 -0.000259976 -0.000304873)
(-0.00249573 -0.000550949 -0.00032068)
(-0.00647256 -0.000779327 -0.000335756)
(-0.011407 -0.000699645 -0.000348618)
(-0.01689 -0.00039265 -0.000349492)
(-0.0225756 6.71674e-05 -0.0003427)
(-0.0281859 0.000598305 -0.00034263)
(-0.0335237 0.00113858 -0.000353657)
(0.000101551 0.00073804 0.0009214)
(-0.00239482 0.001093 0.000960106)
(-0.00630596 0.00192248 0.000887459)
(-0.0111772 0.00278332 0.000696235)
(-0.0165991 0.00367594 0.000496553)
(-0.0222331 0.00452387 0.000318969)
(-0.0278068 0.00528117 0.00017526)
(-0.0331284 0.00592626 4.98799e-05)
(-0.000523834 0.00202597 0.00242032)
(-0.00298254 0.00324857 0.00202815)
(-0.00669293 0.00510542 0.0020616)
(-0.0113332 0.00670318 0.00168688)
(-0.0165562 0.00811452 0.00130642)
(-0.0220289 0.00927298 0.000955729)
(-0.0274831 0.0101858 0.000687277)
(-0.0327406 0.0108877 0.000503407)
(-0.00171157 0.00257134 0.00185143)
(-0.00372205 0.00493229 0.00223835)
(-0.00739245 0.00748763 0.00222982)
(-0.0117843 0.00947946 0.0019123)
(-0.0168018 0.0110494 0.00153608)
(-0.0221149 0.0121957 0.00119059)
(-0.02748 0.0130005 0.000931236)
(-0.032724 0.013583 0.000767533)
(-0.00188114 0.00273176 0.00116124)
(-0.00444067 0.00504839 0.00159527)
(-0.00808322 0.00760777 0.00168239)
(-0.0124809 0.00962393 0.00153287)
(-0.017439 0.0111861 0.00131234)
(-0.0226947 0.012327 0.00109843)
(-0.0280216 0.013137 0.0009325)
(-0.0332615 0.0137438 0.000822373)
(-0.0020523 0.00294891 0.000737448)
(-0.00483497 0.00518106 0.00108442)
(-0.00859591 0.00769724 0.00120988)
(-0.0130304 0.00970069 0.0011745)
(-0.0179881 0.0112573 0.00107168)
(-0.0232312 0.0124066 0.000959076)
(-0.0285524 0.0132389 0.000865634)
(-0.0337997 0.0138808 0.000796793)
(-0.00216334 0.00309843 0.000470694)
(-0.00507817 0.00529004 0.000731952)
(-0.00894214 0.00778192 0.000854467)
(-0.0134369 0.00976711 0.000872907)
(-0.0184272 0.0113192 0.000840846)
(-0.0236883 0.0124756 0.000792918)
(-0.0290242 0.0133253 0.000747972)
(-0.0342909 0.0139924 0.000709424)
(-0.00223428 0.00319481 0.00029901)
(-0.00523272 0.00537201 0.00048765)
(-0.00917431 0.00785563 0.00059013)
(-0.0137277 0.00983043 0.000626951)
(-0.0187603 0.0113788 0.000629137)
(-0.0240515 0.0125388 0.000616357)
(-0.0294117 0.0133989 0.000599658)
(-0.0347014 0.0140812 0.000580708)
(-0.0022797 0.00325567 0.000183352)
(-0.00533124 0.00542999 0.000310616)
(-0.00932741 0.00791368 0.000386177)
(-0.0139275 0.00988443 0.000421986)
(-0.0189984 0.0114308 0.000435764)
(-0.0243199 0.0125924 0.000438229)
(-0.0297048 0.0134577 0.000435356)
(-0.035016 0.0141486 0.000427576)
(-0.0023071 0.00329174 9.93908e-05)
(-0.00539042 0.00546706 0.000172885)
(-0.00942121 0.00795337 0.000218842)
(-0.0140531 0.00992328 0.000243506)
(-0.0191518 0.0114689 0.000256033)
(-0.0244964 0.012631 0.000261698)
(-0.0299003 0.0134987 0.000263347)
(-0.0352278 0.014194 0.00026093)
(-0.00232005 0.00330859 3.14969e-05)
(-0.00541834 0.00548514 5.55294e-05)
(-0.00946592 0.00797344 7.09246e-05)
(-0.0141138 0.00994346 7.96201e-05)
(-0.0192269 0.0114889 8.44469e-05)
(-0.0245839 0.0126513 8.69895e-05)
(-0.0299981 0.0135198 8.80709e-05)
(-0.0353338 0.0142169 8.7643e-05)
(-0.0367698 -0.00346993 -0.000809415)
(-0.0373488 -0.00345482 -0.000769681)
(-0.037916 -0.00342694 -0.00069236)
(-0.0384247 -0.00340287 -0.000583389)
(-0.0388493 -0.00338846 -0.000457703)
(-0.0391754 -0.0033828 -0.000326345)
(-0.0393957 -0.00338214 -0.000194867)
(-0.0395065 -0.00338283 -6.47373e-05)
(-0.0361998 0.00140356 -0.000357486)
(-0.0367857 0.00145878 -0.000323069)
(-0.0373629 0.00151914 -0.000278672)
(-0.0378777 0.00156928 -0.000225649)
(-0.0383041 0.00160553 -0.000170859)
(-0.0386298 0.00162897 -0.000118298)
(-0.0388491 0.00164244 -6.91523e-05)
(-0.0389591 0.00164848 -2.27133e-05)
(-0.0357894 0.0062607 2.46723e-05)
(-0.0363661 0.00637117 7.15355e-05)
(-0.0369435 0.00646719 9.70163e-05)
(-0.0374606 0.00654387 0.000104021)
(-0.0378888 0.0066014 9.54789e-05)
(-0.0382154 0.0066419 7.5608e-05)
(-0.038435 0.00666758 4.82214e-05)
(-0.0385452 0.00667997 1.65472e-05)
(-0.0354981 0.0112639 0.000454587)
(-0.0360605 0.011415 0.000497638)
(-0.0366298 0.0115495 0.000498614)
(-0.0371453 0.0116552 0.000455475)
(-0.0375745 0.0117366 0.0003791)
(-0.0379029 0.0117963 0.000282007)
(-0.038124 0.0118357 0.000173129)
(-0.0382348 0.0118552 5.8321e-05)
)
;
    }
    symmetry
    {
        type            symmetryPlane;
    }
    bottom
    {
        type            calculated;
        value           uniform (0 0 0);
    }
}


// ************************************************************************* //
