/*--------------------------------*- C++ -*----------------------------------*\
| =========                 |                                                 |
| \\      /  F ield         | foam-extend: Open Source CFD                    |
|  \\    /   O peration     | Version:     3.1                                |
|   \\  /    A nd           | Web:         http://www.extend-project.de       |
|    \\/     M anipulation  |                                                 |
\*---------------------------------------------------------------------------*/
FoamFile
{
    version     2.0;
    format      ascii;
    class       volScalarField;
    location    "0.0019";
    object      sigmaEq;
}
// * * * * * * * * * * * * * * * * * * * * * * * * * * * * * * * * * * * * * //

dimensions      [1 -1 -2 0 0 0 0];

internalField   nonuniform List<scalar> 
6400
(
5510.22
3983.56
3538.69
4415.59
5473.53
3964.76
3538.86
4445.62
5471.03
3962.57
3537.73
4445.74
5469.76
3961.68
3537.12
4445.28
5469.14
3961.21
3536.69
4444.71
5468.87
3960.92
3536.29
4444.07
5468.78
3960.69
3535.84
4443.37
5468.8
3960.44
3535.34
4442.66
5468.85
3960.14
3534.83
4442.03
5468.82
3959.89
3534.47
4441.63
5468.82
3959.89
3534.47
4441.63
5468.85
3960.14
3534.83
4442.02
5468.8
3960.44
3535.34
4442.66
5468.78
3960.69
3535.84
4443.37
5468.87
3960.92
3536.28
4444.06
5469.14
3961.21
3536.69
4444.71
5469.76
3961.68
3537.12
4445.28
5471.03
3962.57
3537.73
4445.74
5473.53
3964.76
3538.86
4445.62
5510.22
3983.56
3538.69
4415.59
3783.48
3581.4
3172.93
2522.73
3783.33
3575.24
3162.63
2516.12
3780.76
3573.27
3161.41
2516.27
3779.51
3572.45
3160.8
2515.99
3778.83
3571.83
3160.25
2515.53
3778.41
3571.35
3159.74
2514.99
3778.21
3570.97
3159.26
2514.43
3778.16
3570.64
3158.82
2513.9
3778.27
3570.33
3158.4
2513.44
3778.67
3570.14
3158.13
2513.14
3778.67
3570.14
3158.13
2513.14
3778.27
3570.33
3158.4
2513.44
3778.16
3570.64
3158.82
2513.9
3778.21
3570.97
3159.26
2514.43
3778.42
3571.35
3159.74
2514.99
3778.83
3571.83
3160.25
2515.53
3779.52
3572.45
3160.8
2515.99
3780.76
3573.27
3161.41
2516.27
3783.33
3575.24
3162.63
2516.12
3783.49
3581.4
3172.93
2522.73
4041.12
3833.42
3445.82
2886.63
4049.85
3828.95
3433.64
2869.82
4048.58
3828.49
3432.72
2869.81
4048.02
3828.36
3432.63
2869.82
4047.6
3828.11
3432.49
2869.82
4047.23
3827.82
3432.29
2869.76
4046.99
3827.56
3432.07
2869.62
4046.95
3827.39
3431.86
2869.43
4047.22
3827.31
3431.66
2869.18
4048.13
3827.36
3431.54
2868.97
4048.13
3827.37
3431.54
2868.97
4047.22
3827.31
3431.66
2869.17
4046.95
3827.39
3431.86
2869.43
4046.99
3827.56
3432.07
2869.62
4047.23
3827.82
3432.29
2869.75
4047.6
3828.11
3432.49
2869.82
4048.03
3828.36
3432.63
2869.82
4048.59
3828.49
3432.72
2869.81
4049.86
3828.95
3433.64
2869.82
4041.13
3833.43
3445.82
2886.63
5355.84
4886.19
4434.72
4030.68
5361.12
4880.61
4424.05
4013.64
5360.06
4880.61
4423.41
4014.32
5359.76
4880.56
4423.34
4014.52
5359.53
4880.47
4423.36
4014.67
5359.34
4880.38
4423.36
4014.79
5359.25
4880.34
4423.36
4014.86
5359.36
4880.38
4423.36
4014.84
5359.78
4880.51
4423.33
4014.71
5360.88
4880.72
4423.3
4014.57
5360.88
4880.72
4423.3
4014.57
5359.78
4880.51
4423.33
4014.71
5359.36
4880.38
4423.36
4014.84
5359.25
4880.34
4423.36
4014.86
5359.34
4880.39
4423.36
4014.79
5359.53
4880.47
4423.36
4014.66
5359.76
4880.57
4423.34
4014.51
5360.06
4880.61
4423.41
4014.32
5361.13
4880.61
4424.05
4013.64
5355.85
4886.19
4434.72
4030.68
6593.88
5956.79
5424.03
5029.87
6598.03
5951.09
5414.11
5011.71
6597.07
5951.33
5413.6
5012.84
6596.78
5951.13
5413.33
5013.02
6596.58
5950.99
5413.28
5013.14
6596.48
5950.96
5413.32
5013.28
6596.5
5951.02
5413.4
5013.42
6596.72
5951.17
5413.49
5013.49
6597.24
5951.42
5413.56
5013.44
6598.4
5951.71
5413.59
5013.34
6598.4
5951.71
5413.59
5013.34
6597.24
5951.42
5413.56
5013.44
6596.72
5951.17
5413.49
5013.49
6596.5
5951.02
5413.4
5013.42
6596.48
5950.96
5413.32
5013.28
6596.59
5951
5413.28
5013.13
6596.78
5951.13
5413.33
5013.02
6597.07
5951.33
5413.6
5012.84
6598.03
5951.09
5414.11
5011.71
6593.88
5956.79
5424.03
5029.87
7488.17
6771.87
6181.13
5747.07
7493.37
6766.87
6171.67
5727.51
7492.65
6767.37
6171.24
5728.81
7492.45
6767.11
6170.82
5728.88
7492.31
6766.93
6170.67
5728.88
7492.28
6766.91
6170.67
5728.97
7492.4
6767.02
6170.76
5729.11
7492.71
6767.24
6170.89
5729.22
7493.3
6767.55
6171.01
5729.22
7494.5
6767.88
6171.07
5729.15
7494.5
6767.88
6171.07
5729.15
7493.3
6767.55
6171.01
5729.22
7492.71
6767.24
6170.89
5729.22
7492.41
6767.02
6170.76
5729.11
7492.29
6766.91
6170.67
5728.97
7492.31
6766.93
6170.67
5728.88
7492.45
6767.11
6170.82
5728.88
7492.66
6767.38
6171.24
5728.81
7493.38
6766.88
6171.67
5727.51
7488.18
6771.87
6181.13
5747.06
8019.18
7274.66
6653.6
6181.81
8026.07
7270.6
6644.55
6161.33
8025.65
7271.35
6644.19
6162.61
8025.66
7271.14
6643.69
6162.54
8025.69
7271
6643.46
6162.4
8025.82
7271.03
6643.42
6162.38
8026.08
7271.2
6643.5
6162.47
8026.51
7271.48
6643.66
6162.57
8027.18
7271.85
6643.8
6162.59
8028.42
7272.22
6643.88
6162.54
8028.42
7272.22
6643.88
6162.54
8027.18
7271.85
6643.8
6162.59
8026.51
7271.49
6643.66
6162.57
8026.09
7271.2
6643.5
6162.46
8025.83
7271.03
6643.42
6162.38
8025.69
7271
6643.46
6162.4
8025.67
7271.15
6643.69
6162.54
8025.66
7271.35
6644.19
6162.61
8026.08
7270.6
6644.55
6161.33
8019.18
7274.66
6653.6
6181.8
8211.69
7469.62
6842.46
6351.14
8220.04
7466.37
6833.8
6330.38
8219.95
7467.33
6833.45
6331.51
8220.28
7467.26
6832.93
6331.27
8220.6
7467.24
6832.66
6330.95
8221.01
7467.38
6832.6
6330.79
8221.51
7467.66
6832.67
6330.76
8222.14
7468.05
6832.83
6330.8
8222.94
7468.49
6832.98
6330.79
8224.23
7468.9
6833.08
6330.74
8224.23
7468.9
6833.08
6330.74
8222.94
7468.49
6832.98
6330.79
8222.14
7468.05
6832.83
6330.8
8221.52
7467.66
6832.67
6330.76
8221.01
7467.38
6832.6
6330.78
8220.61
7467.24
6832.66
6330.95
8220.29
7467.27
6832.93
6331.27
8219.96
7467.33
6833.45
6331.51
8220.05
7466.38
6833.8
6330.38
8211.7
7469.62
6842.46
6351.14
8091.35
7375.43
6763.67
6272.99
8100.66
7372.8
6755.39
6252.52
8100.89
7373.88
6754.99
6253.38
8101.61
7374.01
6754.47
6252.92
8102.34
7374.18
6754.19
6252.38
8103.15
7374.5
6754.1
6252
8104.02
7374.94
6754.15
6251.78
8104.94
7375.47
6754.3
6251.67
8105.95
7376.01
6754.46
6251.58
8107.33
7376.48
6754.57
6251.49
8107.33
7376.48
6754.57
6251.49
8105.95
7376.01
6754.46
6251.58
8104.94
7375.47
6754.3
6251.67
8104.02
7374.94
6754.15
6251.78
8103.16
7374.5
6754.1
6251.99
8102.35
7374.18
6754.19
6252.38
8101.61
7374.01
6754.47
6252.91
8100.89
7373.88
6754.99
6253.37
8100.67
7372.8
6755.39
6252.52
8091.36
7375.43
6763.67
6272.98
7680.08
7014
6438.31
5966.17
7689.93
7011.87
6430.45
5946.53
7690.46
7013.01
6429.97
5946.99
7691.62
7013.36
6429.45
5946.25
7692.86
7013.76
6429.15
5945.42
7694.17
7014.31
6429.02
5944.74
7695.51
7014.95
6429.03
5944.23
7696.82
7015.65
6429.14
5943.87
7698.11
7016.32
6429.28
5943.61
7699.6
7016.84
6429.38
5943.43
7699.6
7016.84
6429.38
5943.43
7698.12
7016.32
6429.28
5943.61
7696.82
7015.65
6429.14
5943.87
7695.51
7014.95
6429.03
5944.23
7694.17
7014.31
6429.02
5944.74
7692.86
7013.76
6429.15
5945.42
7691.63
7013.36
6429.45
5946.25
7690.47
7013.02
6429.97
5946.99
7689.93
7011.87
6430.45
5946.52
7680.08
7014
6438.31
5966.17
7004.36
6413.52
5894.21
5455.14
7014.59
6411.92
5886.9
5436.83
7015.43
6413.09
5886.31
5436.79
7017.04
6413.66
5885.78
5435.7
7018.8
6414.3
5885.43
5434.51
7020.66
6415.07
5885.23
5433.42
7022.52
6415.93
5885.16
5432.5
7024.29
6416.8
5885.19
5431.78
7025.9
6417.59
5885.27
5431.24
7027.51
6418.18
5885.34
5430.92
7027.51
6418.18
5885.34
5430.92
7025.91
6417.59
5885.27
5431.24
7024.29
6416.8
5885.19
5431.77
7022.52
6415.93
5885.16
5432.5
7020.66
6415.08
5885.23
5433.42
7018.8
6414.3
5885.43
5434.51
7017.04
6413.66
5885.78
5435.7
7015.44
6413.09
5886.31
5436.79
7014.6
6411.93
5886.9
5436.83
7004.36
6413.52
5894.21
5455.14
6108.96
5616.5
5171.61
4777.38
6119.64
5615.63
5165.14
4761.01
6120.75
5616.77
5164.42
4760.38
6122.75
5617.54
5163.87
4758.91
6124.99
5618.38
5163.45
4757.31
6127.35
5619.34
5163.15
4755.77
6129.7
5620.35
5162.94
4754.36
6131.9
5621.35
5162.84
4753.18
6133.83
5622.23
5162.81
4752.29
6135.53
5622.85
5162.82
4751.79
6135.53
5622.85
5162.82
4751.79
6133.83
5622.23
5162.81
4752.29
6131.9
5621.35
5162.84
4753.18
6129.71
5620.36
5162.94
4754.36
6127.36
5619.34
5163.14
4755.76
6125
5618.38
5163.45
4757.31
6122.76
5617.54
5163.87
4758.91
6120.76
5616.77
5164.42
4760.37
6119.65
5615.63
5165.14
4761
6108.96
5616.5
5171.61
4777.38
5074.13
4687.53
4327.87
3992.58
5085.22
4687.56
4322.61
3978.97
5086.54
4688.62
4321.78
3977.77
5088.82
4689.51
4321.2
3976.01
5091.39
4690.45
4320.69
3974.1
5094.11
4691.48
4320.24
3972.17
5096.8
4692.54
4319.85
3970.33
5099.31
4693.56
4319.57
3968.73
5101.46
4694.44
4319.38
3967.5
5103.18
4695.03
4319.3
3966.81
5103.18
4695.03
4319.3
3966.81
5101.46
4694.44
4319.38
3967.5
5099.31
4693.56
4319.57
3968.73
5096.81
4692.54
4319.85
3970.33
5094.11
4691.48
4320.23
3972.16
5091.4
4690.45
4320.69
3974.1
5088.82
4689.52
4321.2
3976.01
5086.55
4688.62
4321.78
3977.77
5085.23
4687.56
4322.61
3978.97
5074.13
4687.53
4327.87
3992.58
4030.01
3715.29
3435.81
3186.79
4040.63
3716.04
3432.23
3177.34
4042.03
3716.93
3431.31
3175.78
4044.4
3717.8
3430.68
3174
4047.09
3718.64
3430.04
3172.05
4049.93
3719.53
3429.38
3170.02
4052.75
3720.43
3428.76
3168.04
4055.36
3721.29
3428.24
3166.25
4057.54
3722.01
3427.85
3164.85
4059.17
3722.49
3427.65
3164.06
4059.17
3722.49
3427.65
3164.06
4057.55
3722.01
3427.85
3164.85
4055.36
3721.29
3428.24
3166.25
4052.76
3720.43
3428.76
3168.04
4049.93
3719.53
3429.38
3170.02
4047.1
3718.64
3430.03
3172.05
4044.4
3717.8
3430.68
3173.99
4042.04
3716.93
3431.31
3175.78
4040.63
3716.05
3432.23
3177.34
4030.01
3715.29
3435.81
3186.78
3140.97
2805.36
2576.74
2457.22
3148.76
2806.03
2575.25
2453.78
3150.03
2806.59
2574.26
2452.27
3152.23
2807.24
2573.55
2450.83
3154.77
2807.79
2572.72
2449.25
3157.45
2808.32
2571.82
2447.57
3160.11
2808.84
2570.93
2445.86
3162.54
2809.33
2570.13
2444.28
3164.52
2809.73
2569.51
2443.01
3165.89
2809.99
2569.17
2442.27
3165.89
2809.99
2569.17
2442.27
3164.52
2809.73
2569.51
2443.01
3162.54
2809.33
2570.13
2444.28
3160.11
2808.84
2570.93
2445.86
3157.45
2808.32
2571.82
2447.56
3154.77
2807.79
2572.72
2449.25
3152.23
2807.24
2573.55
2450.82
3150.04
2806.6
2574.25
2452.27
3148.77
2806.04
2575.25
2453.78
3140.97
2805.36
2576.74
2457.22
2518.74
2068.31
1840.92
1868.8
2521.41
2067.77
1841.49
1871.86
2522.3
2067.95
1840.5
1870.72
2524.02
2068.33
1839.78
1869.8
2526.11
2068.58
1838.89
1868.79
2528.32
2068.78
1837.87
1867.67
2530.51
2068.95
1836.84
1866.48
2532.48
2069.09
1835.89
1865.34
2534.04
2069.18
1835.14
1864.39
2535.05
2069.25
1834.71
1863.83
2535.05
2069.25
1834.71
1863.83
2534.04
2069.19
1835.14
1864.39
2532.48
2069.09
1835.89
1865.34
2530.51
2068.95
1836.84
1866.48
2528.32
2068.78
1837.87
1867.66
2526.11
2068.59
1838.89
1868.79
2524.03
2068.34
1839.78
1869.8
2522.3
2067.95
1840.5
1870.72
2521.42
2067.78
1841.49
1871.86
2518.75
2068.32
1840.92
1868.8
2115.13
1591.87
1331.85
1418.73
2113.91
1590
1333.26
1424.96
2114.36
1590.03
1332.47
1424.06
2115.49
1590.44
1332.05
1423.4
2116.94
1590.78
1331.51
1422.68
2118.49
1591.09
1330.88
1421.85
2120.04
1591.38
1330.23
1420.95
2121.43
1591.61
1329.61
1420.08
2122.51
1591.76
1329.1
1419.34
2123.2
1591.83
1328.8
1418.9
2123.2
1591.83
1328.8
1418.9
2122.52
1591.76
1329.1
1419.34
2121.43
1591.61
1329.61
1420.08
2120.05
1591.38
1330.23
1420.95
2118.5
1591.1
1330.88
1421.84
2116.94
1590.79
1331.51
1422.67
2115.5
1590.45
1332.05
1423.4
2114.37
1590.04
1332.47
1424.05
2113.92
1590.01
1333.26
1424.95
2115.13
1591.87
1331.85
1418.73
1791.96
1363.13
1101.96
1080.9
1790.93
1361.41
1102.13
1084.42
1791.13
1361.62
1101.71
1083.41
1791.79
1362.29
1101.82
1082.68
1792.67
1363
1101.97
1081.9
1793.63
1363.73
1102.1
1081.05
1794.59
1364.45
1102.23
1080.17
1795.49
1365.1
1102.33
1079.34
1796.21
1365.58
1102.38
1078.66
1796.69
1365.85
1102.4
1078.26
1796.69
1365.85
1102.4
1078.26
1796.21
1365.58
1102.38
1078.66
1795.49
1365.1
1102.33
1079.34
1794.6
1364.45
1102.23
1080.17
1793.63
1363.73
1102.1
1081.05
1792.68
1363
1101.97
1081.9
1791.8
1362.3
1101.82
1082.67
1791.14
1361.63
1101.71
1083.41
1790.94
1361.42
1102.13
1084.41
1791.97
1363.14
1101.96
1080.89
1500.45
1252.48
1044.2
888.373
1502.05
1251.82
1042.78
886.405
1502.21
1252.15
1042.59
885.495
1502.6
1252.86
1042.94
884.923
1503.12
1253.62
1043.41
884.42
1503.66
1254.43
1043.93
883.914
1504.23
1255.24
1044.46
883.409
1504.78
1255.98
1044.92
882.94
1505.27
1256.56
1045.28
882.558
1505.66
1256.9
1045.47
882.334
1505.66
1256.9
1045.47
882.334
1505.27
1256.57
1045.28
882.558
1504.78
1255.98
1044.92
882.94
1504.23
1255.24
1044.46
883.408
1503.67
1254.43
1043.94
883.912
1503.12
1253.62
1043.42
884.418
1502.61
1252.86
1042.94
884.921
1502.21
1252.16
1042.59
885.493
1502.06
1251.82
1042.78
886.403
1500.46
1252.48
1044.21
888.371
1285.73
1159.52
1018.1
868.153
1289.04
1159.44
1016.35
864.316
1289.17
1159.72
1016.23
864.082
1289.43
1160.18
1016.55
864.172
1289.74
1160.68
1016.98
864.419
1290.06
1161.2
1017.46
864.735
1290.4
1161.72
1017.94
865.059
1290.75
1162.21
1018.38
865.342
1291.1
1162.61
1018.72
865.544
1291.44
1162.86
1018.9
865.644
1291.45
1162.86
1018.9
865.645
1291.1
1162.61
1018.72
865.544
1290.75
1162.21
1018.38
865.342
1290.4
1161.72
1017.94
865.059
1290.07
1161.2
1017.46
864.735
1289.75
1160.68
1016.98
864.418
1289.44
1160.19
1016.55
864.171
1289.17
1159.72
1016.23
864.081
1289.05
1159.45
1016.35
864.315
1285.74
1159.53
1018.1
868.153
1156.34
1069.59
980.749
910.253
1159.51
1069.57
979.501
907.597
1159.58
1069.76
979.469
907.907
1159.73
1070.02
979.728
908.414
1159.92
1070.28
980.089
909.067
1160.11
1070.56
980.487
909.795
1160.32
1070.84
980.886
910.517
1160.55
1071.12
981.246
911.151
1160.8
1071.37
981.524
911.62
1161.12
1071.54
981.68
911.866
1161.12
1071.54
981.68
911.867
1160.81
1071.37
981.525
911.62
1160.55
1071.12
981.247
911.152
1160.32
1070.85
980.887
910.518
1160.12
1070.56
980.489
909.796
1159.92
1070.28
980.091
909.067
1159.73
1070.02
979.731
908.414
1159.58
1069.76
979.472
907.907
1159.52
1069.57
979.504
907.598
1156.35
1069.6
980.752
910.254
1054.55
984.235
924.975
895.563
1057.29
984.278
924.155
893.606
1057.33
984.466
924.174
893.96
1057.4
984.649
924.385
894.393
1057.5
984.838
924.681
894.905
1057.61
985.045
925.008
895.458
1057.75
985.262
925.333
895.993
1057.91
985.478
925.623
896.451
1058.11
985.672
925.845
896.781
1058.38
985.81
925.968
896.95
1058.39
985.811
925.968
896.95
1058.12
985.674
925.846
896.781
1057.91
985.48
925.625
896.452
1057.75
985.265
925.334
895.994
1057.62
985.048
925.01
895.459
1057.51
984.842
924.684
894.906
1057.4
984.653
924.388
894.394
1057.33
984.471
924.176
893.96
1057.3
984.284
924.159
893.607
1054.56
984.241
924.978
895.564
949.108
890.687
838.354
800.462
951.611
890.815
837.57
798.269
951.696
890.997
837.529
798.363
951.764
891.138
837.621
798.484
951.855
891.272
837.766
798.618
951.96
891.419
837.925
798.753
952.085
891.573
838.079
798.866
952.235
891.724
838.21
798.942
952.414
891.856
838.305
798.975
952.634
891.949
838.353
798.98
952.635
891.949
838.354
798.98
952.417
891.858
838.306
798.975
952.239
891.727
838.212
798.943
952.09
891.577
838.081
798.867
951.966
891.424
837.927
798.754
951.862
891.277
837.768
798.619
951.772
891.143
837.624
798.485
951.705
891.002
837.532
798.363
951.62
890.822
837.573
798.27
949.118
890.693
838.358
800.464
858.525
789.674
725.985
663.653
860.374
789.602
725.001
661.089
860.523
789.711
724.828
660.885
860.64
789.784
724.757
660.72
860.787
789.833
724.706
660.529
860.947
789.88
724.649
660.315
861.119
789.925
724.584
660.081
861.295
789.967
724.514
659.846
861.47
790.002
724.448
659.641
861.643
790.028
724.406
659.514
861.644
790.029
724.407
659.515
861.473
790.004
724.45
659.641
861.3
789.97
724.516
659.847
861.125
789.929
724.586
660.082
860.954
789.884
724.651
660.315
860.795
789.838
724.709
660.53
860.65
789.789
724.76
660.72
860.533
789.718
724.831
660.886
860.385
789.609
725.005
661.09
858.537
789.681
725.988
663.654
797.155
702.007
618.806
536.887
797.939
701.467
617.57
534.24
798.102
701.484
617.292
533.856
798.244
701.504
617.12
533.555
798.429
701.499
616.956
533.227
798.629
701.487
616.78
532.872
798.832
701.47
616.597
532.505
799.022
701.45
616.422
532.156
799.187
701.429
616.275
531.867
799.32
701.418
616.187
531.697
799.321
701.418
616.188
531.697
799.19
701.431
616.276
531.868
799.027
701.454
616.423
532.157
798.839
701.475
616.599
532.506
798.637
701.492
616.782
532.872
798.439
701.504
616.959
533.227
798.254
701.51
617.124
533.555
798.113
701.491
617.295
533.856
797.951
701.474
617.574
534.24
797.167
702.015
618.81
536.888
750.008
641.474
546.714
455.53
750.004
640.564
545.321
453.024
750.14
640.53
545.032
452.616
750.249
640.539
544.869
452.34
750.403
640.536
544.725
452.058
750.571
640.533
544.578
451.764
750.74
640.528
544.431
451.467
750.896
640.521
544.293
451.19
751.026
640.51
544.179
450.964
751.123
640.503
544.111
450.832
751.124
640.503
544.112
450.832
751.03
640.512
544.18
450.964
750.901
640.524
544.295
451.191
750.747
640.533
544.433
451.468
750.58
640.538
544.581
451.764
750.413
640.542
544.728
452.058
750.259
640.545
544.872
452.34
750.152
640.537
545.035
452.617
750.016
640.572
545.325
453.025
750.021
641.482
546.718
455.531
699.475
601.204
512.259
426.369
699.247
600.251
510.935
424.206
699.358
600.215
510.709
423.893
699.409
600.232
510.613
423.734
699.494
600.246
510.549
423.592
699.588
600.265
510.492
423.458
699.684
600.286
510.441
423.328
699.775
600.306
510.394
423.209
699.856
600.321
510.355
423.11
699.921
600.328
510.33
423.052
699.922
600.329
510.331
423.052
699.86
600.323
510.356
423.111
699.78
600.309
510.396
423.209
699.691
600.29
510.443
423.329
699.596
600.27
510.495
423.458
699.504
600.251
510.552
423.593
699.42
600.238
510.616
423.734
699.37
600.222
510.712
423.894
699.26
600.259
510.939
424.207
699.488
601.211
512.263
426.369
644.517
569.081
498.207
430.511
644.414
568.324
497.154
428.88
644.519
568.309
497.008
428.694
644.528
568.332
496.973
428.653
644.554
568.351
496.97
428.639
644.582
568.374
496.979
428.641
644.613
568.4
496.993
428.65
644.648
568.427
497.008
428.658
644.687
568.449
497.017
428.661
644.727
568.462
497.021
428.66
644.728
568.463
497.021
428.66
644.691
568.451
497.018
428.661
644.653
568.43
497.009
428.659
644.62
568.404
496.995
428.65
644.591
568.378
496.981
428.641
644.564
568.356
496.973
428.639
644.539
568.338
496.975
428.653
644.531
568.315
497.011
428.694
644.427
568.331
497.157
428.88
644.53
569.088
498.211
430.512
593.481
540.394
489.56
442.941
593.564
539.888
488.831
441.838
593.678
539.897
488.748
441.742
593.672
539.925
488.747
441.77
593.671
539.942
488.773
441.82
593.667
539.96
488.809
441.886
593.664
539.98
488.847
441.955
593.668
540.001
488.882
442.017
593.684
540.018
488.908
442.062
593.709
540.029
488.92
442.084
593.71
540.03
488.92
442.084
593.687
540.02
488.908
442.062
593.673
540.003
488.883
442.018
593.671
539.983
488.848
441.955
593.675
539.964
488.81
441.886
593.681
539.947
488.775
441.82
593.683
539.93
488.749
441.77
593.69
539.903
488.75
441.742
593.577
539.894
488.834
441.838
593.494
540.401
489.563
442.941
552.554
515.195
479.619
448.53
552.736
514.878
479.141
447.793
552.862
514.904
479.092
447.736
552.859
514.934
479.104
447.782
552.855
514.95
479.135
447.842
552.845
514.964
479.172
447.911
552.836
514.978
479.209
447.98
552.833
514.992
479.241
448.04
552.84
515.003
479.264
448.083
552.857
515.009
479.274
448.104
552.858
515.01
479.275
448.104
552.843
515.005
479.264
448.083
552.838
514.994
479.242
448.041
552.843
514.981
479.21
447.98
552.853
514.968
479.173
447.911
552.864
514.954
479.137
447.842
552.869
514.939
479.106
447.782
552.873
514.909
479.094
447.735
552.748
514.884
479.143
447.792
552.566
515.201
479.621
448.53
521.985
493.287
466.561
443.581
522.159
493.065
466.221
443.033
522.29
493.095
466.184
442.978
522.294
493.124
466.193
443.016
522.298
493.139
466.218
443.058
522.295
493.15
466.244
443.103
522.291
493.16
466.269
443.147
522.29
493.168
466.289
443.183
522.297
493.173
466.301
443.207
522.309
493.175
466.306
443.217
522.31
493.176
466.306
443.217
522.3
493.175
466.302
443.207
522.295
493.17
466.29
443.183
522.297
493.163
466.27
443.147
522.303
493.154
466.246
443.103
522.306
493.143
466.219
443.057
522.304
493.129
466.195
443.016
522.301
493.1
466.186
442.978
522.171
493.071
466.223
443.032
521.997
493.293
466.563
443.581
498.17
473.332
450.72
430.813
498.27
473.136
450.434
430.345
498.398
473.16
450.396
430.28
498.405
473.184
450.397
430.301
498.414
473.196
450.412
430.322
498.418
473.205
450.426
430.344
498.42
473.21
450.438
430.363
498.422
473.214
450.446
430.376
498.428
473.215
450.449
430.382
498.438
473.213
450.448
430.383
498.439
473.214
450.449
430.383
498.431
473.216
450.45
430.382
498.427
473.216
450.447
430.376
498.426
473.213
450.439
430.363
498.425
473.208
450.427
430.344
498.423
473.2
450.413
430.322
498.415
473.189
450.399
430.301
498.408
473.165
450.397
430.28
498.281
473.141
450.436
430.345
498.181
473.338
450.722
430.812
476.801
453.795
433.099
414.314
476.814
453.593
432.831
413.892
476.933
453.61
432.79
413.818
476.939
453.627
432.784
413.827
476.948
453.635
432.791
413.835
476.953
453.64
432.797
413.843
476.955
453.643
432.801
413.848
476.958
453.643
432.802
413.849
476.962
453.641
432.8
413.847
476.968
453.637
432.796
413.844
476.969
453.638
432.796
413.844
476.965
453.642
432.8
413.847
476.962
453.645
432.803
413.849
476.961
453.646
432.802
413.848
476.96
453.644
432.799
413.843
476.956
453.639
432.792
413.835
476.948
453.631
432.786
413.827
476.943
453.614
432.791
413.817
476.824
453.598
432.833
413.891
476.811
453.8
433.1
414.314
454.828
433.533
414.408
396.758
454.778
433.328
414.157
396.383
454.886
433.337
414.115
396.307
454.887
433.349
414.106
396.312
454.892
433.353
414.109
396.316
454.893
433.356
414.111
396.32
454.892
433.355
414.112
396.321
454.891
433.353
414.11
396.32
454.892
433.349
414.106
396.316
454.894
433.345
414.102
396.312
454.895
433.345
414.102
396.312
454.895
433.35
414.107
396.316
454.895
433.355
414.111
396.32
454.898
433.358
414.113
396.321
454.899
433.358
414.112
396.32
454.899
433.357
414.11
396.315
454.895
433.353
414.107
396.311
454.894
433.341
414.116
396.307
454.787
433.332
414.158
396.382
454.837
433.538
414.409
396.757
430.975
411.939
394.785
378.914
430.893
411.743
394.561
378.599
430.991
411.748
394.522
378.527
430.987
411.756
394.513
378.532
430.986
411.758
394.514
378.536
430.982
411.757
394.516
378.541
430.977
411.755
394.516
378.544
430.972
411.751
394.514
378.544
430.969
411.746
394.51
378.541
430.968
411.741
394.506
378.539
430.969
411.742
394.506
378.539
430.971
411.747
394.511
378.541
430.975
411.753
394.515
378.544
430.982
411.758
394.517
378.544
430.988
411.76
394.517
378.541
430.993
411.761
394.515
378.536
430.994
411.76
394.514
378.531
430.999
411.752
394.523
378.527
430.901
411.747
394.562
378.598
430.983
411.942
394.786
378.914
405.287
388.889
374.064
360.434
405.197
388.717
373.876
360.183
405.287
388.72
373.842
360.118
405.279
388.725
373.833
360.124
405.274
388.725
373.834
360.13
405.266
388.722
373.836
360.136
405.257
388.718
373.836
360.14
405.248
388.713
373.834
360.142
405.242
388.707
373.83
360.141
405.239
388.702
373.827
360.139
405.239
388.702
373.827
360.139
405.244
388.708
373.831
360.141
405.251
388.715
373.835
360.142
405.261
388.72
373.837
360.14
405.271
388.725
373.837
360.136
405.28
388.727
373.835
360.13
405.286
388.728
373.834
360.124
405.294
388.723
373.843
360.118
405.204
388.72
373.877
360.183
405.295
388.893
374.065
360.434
378.391
364.597
352.123
340.774
378.304
364.451
351.972
340.582
378.388
364.453
351.943
340.524
378.378
364.458
351.935
340.531
378.37
364.456
351.936
340.537
378.359
364.452
351.937
340.543
378.347
364.446
351.936
340.548
378.336
364.44
351.934
340.549
378.328
364.433
351.93
340.548
378.323
364.427
351.926
340.547
378.324
364.427
351.926
340.547
378.33
364.434
351.93
340.548
378.339
364.441
351.934
340.549
378.351
364.448
351.937
340.548
378.364
364.454
351.938
340.543
378.375
364.458
351.937
340.537
378.384
364.461
351.936
340.531
378.394
364.456
351.944
340.524
378.311
364.454
351.973
340.582
378.397
364.6
352.124
340.774
350.946
339.423
329.044
319.706
350.866
339.302
328.926
319.562
350.943
339.305
328.901
319.51
350.933
339.308
328.894
319.517
350.924
339.305
328.895
319.523
350.912
339.3
328.895
319.527
350.899
339.294
328.893
319.53
350.887
339.286
328.889
319.53
350.878
339.278
328.884
319.528
350.872
339.272
328.88
319.526
350.873
339.273
328.881
319.526
350.88
339.279
328.885
319.528
350.89
339.288
328.89
319.53
350.903
339.295
328.893
319.53
350.916
339.302
328.895
319.527
350.929
339.308
328.896
319.522
350.938
339.311
328.895
319.517
350.949
339.307
328.902
319.51
350.872
339.305
328.927
319.562
350.952
339.426
329.045
319.706
323.437
313.758
305.108
297.401
323.363
313.658
305.015
297.293
323.434
313.661
304.994
297.246
323.424
313.663
304.988
297.253
323.415
313.66
304.987
297.257
323.403
313.654
304.986
297.26
323.39
313.647
304.983
297.26
323.378
313.638
304.978
297.258
323.368
313.63
304.972
297.255
323.361
313.624
304.968
297.253
323.362
313.624
304.968
297.253
323.369
313.631
304.973
297.255
323.38
313.64
304.979
297.258
323.393
313.648
304.984
297.26
323.406
313.656
304.987
297.259
323.419
313.662
304.988
297.256
323.429
313.666
304.988
297.252
323.439
313.663
304.995
297.246
323.368
313.66
305.016
297.293
323.442
313.761
305.109
297.401
296.187
287.974
280.707
274.289
296.117
287.889
280.634
274.208
296.182
287.892
280.615
274.165
296.173
287.894
280.609
274.17
296.163
287.89
280.608
274.173
296.152
287.884
280.606
274.174
296.139
287.876
280.602
274.173
296.127
287.868
280.596
274.169
296.117
287.859
280.59
274.165
296.11
287.853
280.585
274.162
296.11
287.853
280.585
274.162
296.118
287.86
280.59
274.165
296.129
287.869
280.597
274.169
296.142
287.878
280.602
274.173
296.155
287.886
280.607
274.174
296.167
287.892
280.609
274.173
296.176
287.896
280.61
274.17
296.186
287.894
280.616
274.164
296.121
287.892
280.635
274.207
296.191
287.977
280.708
274.288
269.444
262.417
256.267
250.882
269.378
262.345
256.209
250.822
269.436
262.347
256.192
250.783
269.427
262.348
256.187
250.787
269.418
262.344
256.185
250.789
269.407
262.338
256.182
250.789
269.395
262.33
256.177
250.786
269.383
262.321
256.171
250.782
269.373
262.313
256.164
250.777
269.366
262.306
256.16
250.773
269.366
262.306
256.16
250.773
269.374
262.313
256.165
250.777
269.384
262.322
256.171
250.782
269.397
262.331
256.178
250.786
269.409
262.339
256.183
250.788
269.421
262.346
256.186
250.788
269.43
262.35
256.187
250.787
269.439
262.349
256.193
250.782
269.381
262.347
256.209
250.821
269.447
262.419
256.268
250.882
243.444
237.411
232.19
227.664
243.383
237.349
232.143
227.619
243.435
237.351
232.128
227.583
243.426
237.351
232.123
227.587
243.418
237.347
232.121
227.588
243.407
237.341
232.118
227.587
243.395
237.333
232.112
227.584
243.384
237.325
232.106
227.579
243.374
237.316
232.099
227.574
243.367
237.31
232.095
227.57
243.367
237.31
232.095
227.57
243.375
237.317
232.1
227.574
243.385
237.325
232.106
227.579
243.397
237.334
232.113
227.583
243.408
237.342
232.118
227.586
243.419
237.349
232.121
227.587
243.428
237.353
232.123
227.587
243.437
237.352
232.129
227.582
243.384
237.35
232.143
227.618
243.446
237.412
232.19
227.663
218.432
213.253
208.825
205.033
218.374
213.2
208.787
205.001
218.421
213.202
208.775
204.969
218.413
213.202
208.77
204.972
218.405
213.198
208.768
204.972
218.395
213.192
208.764
204.971
218.383
213.185
208.759
204.967
218.372
213.176
208.752
204.962
218.363
213.168
208.746
204.957
218.356
213.162
208.741
204.953
218.356
213.162
208.741
204.953
218.363
213.168
208.746
204.957
218.373
213.177
208.752
204.962
218.384
213.185
208.759
204.966
218.395
213.193
208.764
204.97
218.405
213.199
208.767
204.971
218.413
213.203
208.77
204.971
218.422
213.203
208.774
204.967
218.375
213.201
208.787
204.999
218.432
213.254
208.824
205.032
194.639
190.206
186.462
183.304
194.586
190.161
186.433
183.282
194.628
190.162
186.422
183.254
194.62
190.163
186.417
183.257
194.612
190.159
186.415
183.257
194.603
190.153
186.412
183.255
194.592
190.146
186.406
183.251
194.582
190.137
186.4
183.246
194.573
190.13
186.394
183.241
194.566
190.124
186.39
183.237
194.566
190.124
186.39
183.237
194.573
190.13
186.394
183.24
194.582
190.138
186.4
183.245
194.592
190.146
186.406
183.25
194.602
190.153
186.411
183.254
194.612
190.159
186.415
183.255
194.619
190.162
186.417
183.255
194.627
190.162
186.421
183.252
194.585
190.161
186.432
183.28
194.638
190.206
186.462
183.303
172.266
168.483
165.331
162.718
172.219
168.445
165.308
162.703
172.255
168.446
165.299
162.678
172.248
168.446
165.295
162.681
172.241
168.443
165.292
162.681
172.232
168.437
165.289
162.678
172.222
168.43
165.284
162.675
172.212
168.422
165.278
162.67
172.204
168.415
165.272
162.665
172.197
168.41
165.268
162.662
172.197
168.41
165.268
162.662
172.203
168.415
165.272
162.664
172.211
168.422
165.278
162.669
172.221
168.43
165.283
162.674
172.23
168.436
165.288
162.677
172.239
168.442
165.291
162.679
172.245
168.445
165.293
162.679
172.252
168.445
165.297
162.676
172.216
168.444
165.307
162.701
172.263
168.482
165.33
162.716
151.464
148.245
145.601
143.45
151.422
148.213
145.583
143.441
151.454
148.214
145.575
143.42
151.447
148.214
145.571
143.422
151.44
148.21
145.569
143.421
151.432
148.205
145.566
143.419
151.423
148.198
145.561
143.416
151.414
148.191
145.555
143.411
151.406
148.184
145.55
143.406
151.4
148.179
145.546
143.403
151.399
148.179
145.546
143.403
151.405
148.184
145.549
143.406
151.412
148.19
145.555
143.41
151.421
148.197
145.56
143.414
151.429
148.203
145.564
143.418
151.437
148.208
145.567
143.42
151.443
148.211
145.569
143.42
151.449
148.211
145.573
143.417
151.417
148.21
145.581
143.439
151.459
148.242
145.598
143.448
132.329
129.596
127.384
125.623
132.292
129.568
127.37
125.618
132.32
129.569
127.364
125.599
132.314
129.569
127.36