/*--------------------------------*- C++ -*----------------------------------*\
| =========                 |                                                 |
| \\      /  F ield         | foam-extend: Open Source CFD                    |
|  \\    /   O peration     | Version:     3.1                                |
|   \\  /    A nd           | Web:         http://www.extend-project.de       |
|    \\/     M anipulation  |                                                 |
\*---------------------------------------------------------------------------*/
FoamFile
{
    version     2.0;
    format      ascii;
    class       volSymmTensorField;
    location    "0.0019";
    object      sigma;
}
// * * * * * * * * * * * * * * * * * * * * * * * * * * * * * * * * * * * * * //

dimensions      [1 -1 -2 0 0 0 0];

internalField   nonuniform List<symmTensor> 
6400
(
(1344.74 -68.3524 1947.03 2858.7 42.9372 6255.17)
(312.149 -43.0121 2086.93 1272.28 57.2936 2239.99)
(-556.083 -21.8629 1967.74 -42.209 53.1647 -1134.83)
(-1603.09 -0.712798 1611.73 -1527.08 32.5004 -4985.16)
(1354.92 -176.936 1935.53 2834.51 224.529 6197.6)
(317.472 -112.47 2070.64 1253.38 241.946 2194.74)
(-556.674 -60.1586 1949.69 -57.3547 228.24 -1181.95)
(-1612.93 -8.55457 1591.65 -1542.4 186.142 -5049.78)
(1390.8 -290.291 1910.61 2794.09 377.163 6194.19)
(341.263 -183.599 2044.14 1229.44 404.387 2193.59)
(-543.319 -97.805 1924.94 -70.2583 381.271 -1182.45)
(-1609.72 -13.3795 1571.85 -1544.94 311.544 -5049.74)
(1444.22 -396.223 1874.45 2738.59 526.75 6192.35)
(375.07 -250.638 2005.51 1194.43 564.16 2192.55)
(-525.234 -133.379 1888.57 -88.9505 531.676 -1182.89)
(-1607.2 -18.0565 1542.18 -1547.82 434.47 -5049.64)
(1513.76 -492.393 1826.88 2667.82 672.698 6191.43)
(419.108 -311.535 1954.64 1149.65 720.194 2192.15)
(-501.742 -165.773 1840.68 -112.795 678.567 -1182.85)
(-1603.89 -22.407 1503.07 -1551.09 554.438 -5049.09)
(1597.69 -576.454 1768.1 2583.29 814.225 6191.17)
(472.294 -364.771 1891.78 1096.15 871.568 2192.2)
(-473.345 -194.115 1781.48 -141.237 821.082 -1182.49)
(-1599.87 -26.2366 1454.72 -1554.85 670.811 -5048.32)
(1693.91 -646.362 1698.46 2486.94 950.533 6191.37)
(533.28 -409.04 1817.28 1035.17 1017.39 2192.56)
(-440.773 -217.685 1711.32 -173.642 958.379 -1181.92)
(-1595.25 -29.4244 1397.41 -1559.08 782.909 -5047.44)
(1800.03 -700.416 1618.33 2381.07 1080.84 6191.91)
(600.549 -443.256 1731.58 968.159 1156.81 2193.11)
(-404.856 -235.892 1630.63 -209.262 1089.64 -1181.28)
(-1590.17 -31.8776 1331.51 -1563.74 890.059 -5046.57)
(1913.46 -737.31 1528.21 2268.23 1204.38 6192.69)
(672.456 -466.574 1635.2 896.718 1289 2193.75)
(-366.506 -248.277 1539.91 -247.256 1214.07 -1180.67)
(-1584.8 -33.5245 1257.47 -1568.75 991.619 -5045.84)
(2031.87 -756.233 1428.69 2151.24 1320.52 6193.6)
(747.181 -478.41 1528.83 822.554 1413.21 2194.27)
(-326.762 -254.535 1439.81 -286.708 1331 -1180.27)
(-1579.36 -34.3363 1175.79 -1573.99 1087.02 -5045.41)
(2151.24 -756.234 1320.52 2031.87 1428.69 6193.6)
(822.553 -478.41 1413.21 747.181 1528.83 2194.27)
(-286.708 -254.535 1331 -326.762 1439.81 -1180.27)
(-1573.99 -34.3363 1087.02 -1579.36 1175.79 -5045.41)
(2268.23 -737.31 1204.38 1913.46 1528.21 6192.69)
(896.717 -466.574 1289 672.456 1635.2 2193.75)
(-247.256 -248.277 1214.07 -366.506 1539.91 -1180.67)
(-1568.75 -33.5245 991.618 -1584.8 1257.47 -5045.84)
(2381.07 -700.416 1080.84 1800.02 1618.33 6191.91)
(968.158 -443.256 1156.81 600.548 1731.58 2193.11)
(-209.263 -235.892 1089.64 -404.856 1630.63 -1181.28)
(-1563.74 -31.8776 890.058 -1590.17 1331.52 -5046.57)
(2486.94 -646.363 950.532 1693.9 1698.46 6191.37)
(1035.17 -409.04 1017.39 533.279 1817.28 2192.56)
(-173.643 -217.685 958.378 -440.774 1711.33 -1181.92)
(-1559.08 -29.4244 782.908 -1595.24 1397.41 -5047.44)
(2583.28 -576.455 814.225 1597.69 1768.1 6191.17)
(1096.14 -364.771 871.567 472.292 1891.78 2192.2)
(-141.238 -194.115 821.081 -473.345 1781.48 -1182.49)
(-1554.85 -26.2365 670.809 -1599.87 1454.72 -5048.32)
(2667.82 -492.393 672.698 1513.75 1826.88 6191.43)
(1149.64 -311.536 720.193 419.106 1954.64 2192.15)
(-112.796 -165.773 678.566 -501.743 1840.68 -1182.85)
(-1551.09 -22.407 554.437 -1603.89 1503.07 -5049.09)
(2738.59 -396.223 526.749 1444.22 1874.45 6192.34)
(1194.43 -250.639 564.16 375.068 2005.51 2192.55)
(-88.9515 -133.379 531.675 -525.235 1888.57 -1182.89)
(-1547.82 -18.0564 434.469 -1607.2 1542.18 -5049.63)
(2794.08 -290.291 377.163 1390.8 1910.61 6194.19)
(1229.44 -183.6 404.386 341.261 2044.14 2193.58)
(-70.2593 -97.8051 381.27 -543.32 1924.94 -1182.45)
(-1544.94 -13.3795 311.544 -1609.72 1571.85 -5049.74)
(2834.5 -176.936 224.528 1354.91 1935.53 6197.6)
(1253.38 -112.47 241.946 317.47 2070.64 2194.73)
(-57.3557 -60.1587 228.24 -556.675 1949.69 -1181.95)
(-1542.4 -8.55457 186.141 -1612.93 1591.65 -5049.78)
(2858.7 -68.3524 42.9372 1344.73 1947.03 6255.16)
(1272.28 -43.0121 57.2935 312.147 2086.93 2239.99)
(-42.21 -21.8629 53.1646 -556.084 1967.74 -1134.84)
(-1527.08 -0.712802 32.5002 -1603.09 1611.73 -4985.15)
(-1255.94 -152.858 838.471 2220.11 -35.5125 2234.09)
(-712.175 -114.093 1562.95 1892.99 4.91559 1197.62)
(-370.099 -77.7376 1531.53 1463.07 4.13528 -155.06)
(21.8726 -44.6054 795.952 1164.97 -34.6235 -1270.44)
(-1191.02 -406.498 844.175 2208.58 99.3919 2235.72)
(-666.623 -305.178 1552.55 1872.24 183.825 1182.44)
(-334.856 -214.402 1511.29 1447.81 179.635 -172.986)
(52.9789 -132.998 767.623 1161.18 92.9106 -1280.53)
(-1108.06 -667.596 833.901 2118.35 165.473 2231.84)
(-602.499 -498.714 1533.01 1808.43 305.042 1180.19)
(-289.15 -350.056 1492.1 1402.61 297.539 -175.158)
(82.0364 -217.338 757.912 1132.17 152.343 -1282.32)
(-983.842 -911.323 818.15 1992.77 230.507 2230.88)
(-509.91 -680.876 1504.07 1714.79 424.363 1179.24)
(-224.057 -477.717 1463.91 1336.97 413.552 -175.841)
(122.393 -296.477 743.549 1091.09 211.06 -1282.83)
(-823.165 -1132.6 797.305 1831.08 294.051 2230.5)
(-389.862 -846.33 1465.88 1594.01 541.01 1179.01)
(-139.817 -593.802 1426.76 1252.24 526.992 -175.873)
(174.682 -368.508 724.648 1038.47 268.521 -1282.67)
(-629.818 -1326.01 771.509 1637.09 355.713 2230.5)
(-245.316 -990.97 1418.68 1449 654.28 1179.15)
(-38.3622 -695.324 1380.85 1150.5 637.174 -175.572)
(237.647 -431.517 701.324 975.325 324.363 -1282.22)
(-408.533 -1486.86 740.92 1415.5 415.103 2230.76)
(-79.8335 -1111.25 1362.73 1283.31 763.468 1179.5)
(77.802 -779.741 1326.46 1034.2 743.407 -175.112)
(309.727 -483.9 673.712 903.13 378.224 -1281.68)
(-164.702 -1611.22 705.726 1171.69 471.839 2231.19)
(102.541 -1204.21 1298.39 1100.98 867.886 1179.98)
(205.814 -844.953 1263.91 906.181 845.02 -174.609)
(389.127 -524.335 641.985 823.623 429.746 -1281.17)
(95.7608 -1696.1 666.163 911.635 525.547 2231.69)
(297.401 -1267.55 1226.07 906.489 966.874 1180.48)
(342.515 -889.325 1193.63 769.603 941.37 -174.16)
(473.853 -551.801 606.358 738.754 478.584 -1280.79)
(367.528 -1739.58 622.717 642.018 575.854 2232.56)
(499.943 -1299.68 1146.36 704.647 1059.83 1180.91)
(484.418 -911.759 1116.11 627.9 1031.88 -173.866)
(561.757 -565.651 567.094 650.732 524.44 -1280.6)
(642.017 -1739.58 575.854 367.528 622.717 2232.56)
(704.646 -1299.68 1059.83 499.943 1146.36 1180.91)
(627.899 -911.759 1031.88 484.419 1116.11 -173.866)
(650.731 -565.651 524.439 561.757 567.095 -1280.6)
(911.633 -1696.1 525.546 95.7593 666.164 2231.69)
(906.488 -1267.55 966.873 297.4 1226.07 1180.48)
(769.602 -889.325 941.369 342.514 1193.63 -174.16)
(738.754 -551.801 478.583 473.853 606.359 -1280.79)
(1171.69 -1611.22 471.839 -164.704 705.726 2231.19)
(1100.98 -1204.21 867.886 102.54 1298.39 1179.97)
(906.18 -844.953 845.019 205.813 1263.91 -174.61)
(823.622 -524.335 429.745 389.126 641.985 -1281.17)
(1415.49 -1486.86 415.103 -408.537 740.92 2230.76)
(1283.31 -1111.25 763.468 -79.8358 1362.73 1179.5)
(1034.2 -779.741 743.406 77.8007 1326.46 -175.112)
(903.129 -483.899 378.223 309.727 673.713 -1281.68)
(1637.09 -1326.01 355.713 -629.822 771.509 2230.5)
(1449 -990.971 654.28 -245.32 1418.68 1179.14)
(1150.49 -695.324 637.173 -38.3639 1380.85 -175.573)
(975.323 -431.516 324.362 237.646 701.325 -1282.22)
(1831.08 -1132.6 294.051 -823.171 797.305 2230.5)
(1594 -846.33 541.01 -389.866 1465.88 1179)
(1252.24 -593.803 526.992 -139.819 1426.76 -175.874)
(1038.47 -368.508 268.52 174.681 724.648 -1282.67)
(1992.77 -911.324 230.507 -983.849 818.151 2230.87)
(1714.79 -680.877 424.363 -509.915 1504.07 1179.24)
(1336.97 -477.717 413.552 -224.059 1463.91 -175.842)
(1091.09 -296.476 211.059 122.392 743.549 -1282.83)
(2118.35 -667.597 165.473 -1108.06 833.902 2231.83)
(1808.42 -498.714 305.042 -602.504 1533.01 1180.19)
(1402.61 -350.056 297.539 -289.153 1492.1 -175.159)
(1132.16 -217.338 152.343 82.0354 757.912 -1282.32)
(2208.58 -406.499 99.3918 -1191.03 844.176 2235.72)
(1872.23 -305.179 183.824 -666.628 1552.55 1182.44)
(1447.81 -214.402 179.635 -334.859 1511.29 -172.987)
(1161.17 -132.998 92.9103 52.9779 767.623 -1280.53)
(2220.1 -152.858 -35.5124 -1255.95 838.472 2234.09)
(1892.99 -114.093 4.91559 -712.18 1562.95 1197.61)
(1463.07 -77.7377 4.13524 -370.103 1531.53 -155.061)
(1164.97 -44.6054 -34.6236 21.8715 795.952 -1270.44)
(-1262.51 -190.585 524.524 3220.85 -54.8542 420.664)
(-824.686 -168.918 910.202 3126.85 -33.693 510.955)
(-366.186 -144.407 885.966 3047.67 -34.4973 496.966)
(3.942 -124.732 465.868 3006.17 -55.8892 574.761)
(-1195.96 -524.48 523.281 3189.67 60.6564 432.73)
(-765.905 -462.891 901.242 3086.55 105.577 514.718)
(-315.575 -399.377 870.74 3008.31 102.597 498.383)
(44.5847 -349.826 447.575 2964.92 53.9498 575.896)
(-1089.4 -862.033 516.689 3075.97 102.338 430.515)
(-669.024 -757.51 889.827 2991.4 177.012 515.101)
(-231.403 -653.524 859.63 2926.03 171.652 498.782)
(118.62 -574.172 442.125 2892.87 89.4731 576.223)
(-928.813 -1177.02 506.86 2915.08 142.97 430.342)
(-528.149 -1034.38 872.961 2850.26 246.683 514.871)
(-109.644 -892.265 843.36 2804.51 238.89 498.684)
(225.526 -784.023 433.716 2785.98 124.029 576.026)
(-721.138 -1463 493.863 2706.94 182.489 430.295)
(-345.622 -1285.82 850.716 2667.47 314.523 514.855)
(47.839 -1109.19 821.891 2646.93 304.344 498.718)
(363.947 -974.671 422.628 2647.59 157.596 576.077)
(-471.273 -1712.97 477.779 2456.76 220.745 430.442)
(-125.952 -1505.63 823.229 2447.61 380.278 515.028)
(237.371 -1298.84 795.378 2457.31 367.792 498.93)
(530.514 -1141.35 408.977 2481.02 190.099 576.311)
(-185.331 -1920.84 458.711 2170.71 257.528 430.74)
(125.48 -1688.41 790.673 2196.11 443.595 515.332)
(454.31 -1456.54 763.996 2240.34 428.904 499.248)
(721.138 -1279.91 392.853 2290.38 221.392 576.63)
(129.728 -2081.55 436.795 1855.83 292.598 431.148)
(402.532 -1829.66 753.263 1919.19 504.088 515.709)
(693.328 -1578.36 727.948 2001.36 487.313 499.596)
(931.11 -1386.9 374.366 2080.34 251.292 576.935)
(466.259 -2191.21 412.214 1519.88 325.699 431.616)
(698.488 -1925.89 711.276 1623.7 561.365 516.124)
(948.537 -1661.26 687.492 1746.3 542.653 499.912)
(1155.21 -1459.66 353.652 1856.11 279.606 577.149)
(817.039 -2247.27 385.37 1171.43 356.59 432.481)
(1006.02 -1974.68 665.103 1316.97 615.09 516.518)
(1213.51 -1703.2 642.946 1481.56 594.602 500.13)
(1387.84 -1496.43 330.875 1623.34 306.167 577.247)
(1171.43 -2247.27 356.59 817.038 385.37 432.48)
(1316.97 -1974.68 615.09 1006.02 665.103 516.518)
(1481.55 -1703.2 594.601 1213.51 642.946 500.129)
(1623.34 -1496.43 306.167 1387.84 330.876 577.247)
(1519.88 -2191.21 325.7 466.257 412.214 431.615)
(1623.7 -1925.89 561.365 698.487 711.277 516.123)
(1746.29 -1661.26 542.652 948.537 687.493 499.912)
(1856.1 -1459.66 279.606 1155.21 353.653 577.149)
(1855.83 -2081.55 292.598 129.724 436.796 431.146)
(1919.19 -1829.66 504.088 402.529 753.263 515.708)
(2001.35 -1578.36 487.313 693.326 727.949 499.596)
(2080.34 -1386.9 251.292 931.109 374.366 576.935)
(2170.7 -1920.85 257.528 -185.337 458.712 430.737)
(2196.11 -1688.41 443.595 125.476 790.674 515.33)
(2240.33 -1456.54 428.904 454.308 763.996 499.247)
(2290.38 -1279.91 221.392 721.137 392.854 576.629)
(2456.76 -1712.97 220.746 -471.281 477.779 430.438)
(2447.6 -1505.63 380.278 -125.957 823.23 515.025)
(2457.31 -1298.84 367.792 237.368 795.379 498.929)
(2481.02 -1141.35 190.099 530.513 408.978 576.311)
(2706.94 -1463 182.49 -721.147 493.864 430.29)
(2667.47 -1285.82 314.523 -345.628 850.717 514.852)
(2646.93 -1109.19 304.344 47.8355 821.891 498.716)
(2647.59 -974.67 157.596 363.946 422.629 576.076)
(2915.07 -1177.02 142.97 -928.824 506.861 430.337)
(2850.25 -1034.38 246.683 -528.156 872.962 514.868)
(2804.5 -892.265 238.89 -109.648 843.361 498.682)
(2785.98 -784.022 124.029 225.525 433.716 576.025)
(3075.96 -862.034 102.338 -1089.41 516.69 430.51)
(2991.4 -757.511 177.012 -669.033 889.828 515.098)
(2926.02 -653.525 171.652 -231.408 859.63 498.78)
(2892.86 -574.172 89.4729 118.618 442.125 576.222)
(3189.66 -524.481 60.6565 -1195.98 523.282 432.724)
(3086.55 -462.892 105.577 -765.914 901.243 514.714)
(3008.31 -399.377 102.597 -315.58 870.741 498.381)
(2964.92 -349.826 53.9497 44.583 447.576 575.895)
(3220.84 -190.585 -54.8541 -1262.52 524.525 420.658)
(3126.84 -168.918 -33.693 -824.695 910.203 510.951)
(3047.66 -144.407 -34.4972 -366.191 885.967 496.964)
(3006.17 -124.732 -55.8892 3.94026 465.869 574.76)
(-1218.75 -234.528 281.323 4385.09 -57.9946 -589.431)
(-801.337 -220.201 470.659 4410.98 -47.4414 167.188)
(-383.842 -204.102 451.273 4451.48 -48.1115 855.446)
(-29.4166 -190.351 232.751 4522.81 -58.8637 1596.55)
(-1141.49 -655.542 278.031 4337.9 31.3517 -569.693)
(-731.738 -610.656 463.141 4352.98 53.5264 180.042)
(-321.363 -565.958 440.793 4390.89 51.432 865.815)
(24.5191 -530.06 221.055 4453.88 26.5591 1604.17)
(-1008.31 -1077.34 274.451 4197.35 53.881 -570.977)
(-605.402 -1000.05 457.138 4226.84 90.6586 181.144)
(-203.824 -926.653 435.145 4273.63 86.8757 866.929)
(136.174 -870.972 218.414 4345.21 44.511 1605.91)
(-807.668 -1471.16 269.119 3996.78 75.8165 -570.502)
(-419.455 -1365.69 448.372 4040.65 126.827 181.536)
(-31.2109 -1265.4 426.856 4101.31 121.283 867.453)
(298.31 -1189.6 214.208 4183.19 61.9 1606.29)
(-548.024 -1828.77 262.1 3736.99 97.0526 -570.228)
(-178.399 -1697.73 436.847 3799.56 161.902 181.829)
(192.202 -1573.1 415.909 3878 154.615 867.764)
(508.386 -1478.94 208.648 3973.32 78.641 1606.58)
(-235.622 -2141.38 253.426 3424.5 117.508 -569.948)
(111.686 -1988.02 422.632 3509.48 195.783 182.112)
(461.04 -1842.12 402.416 3609.24 186.8 868.056)
(761.16 -1731.87 201.84 3720.71 94.723 1606.86)
(121.884 -2401.33 243.163 3067.03 137.078 -569.626)
(443.687 -2229.4 405.825 3177.56 228.314 182.422)
(768.719 -2065.79 386.483 3301.66 217.708 868.356)
(1050.42 -1942.15 193.85 3431.55 110.115 1607.14)
(515.774 -2602.28 231.398 2673.42 155.631 -569.249)
(809.492 -2415.94 386.551 2811.99 259.304 182.757)
(1107.69 -2238.59 368.228 2962.83 247.173 868.65)
(1369.05 -2104.55 184.74 3112.97 124.755 1607.38)
(936.473 -2739.35 218.262 2253.38 173.016 -568.821)
(1200.21 -2543.01 364.98 2421.81 288.554 183.124)
(1469.61 -2356.21 347.797 2601.13 275.019 868.909)
(1709.13 -2215.03 174.589 2772.82 138.563 1607.53)
(1374.68 -2809.29 204.085 1817.57 189.097 -567.976)
(1606.15 -2607.41 341.368 2016.71 315.905 183.492)
(1845.39 -2415.72 325.374 2225.62 301.103 869.094)
(2062.2 -2270.89 163.484 2419.64 151.477 1607.59)
(1817.56 -2809.29 189.097 1374.68 204.084 -567.976)
(2016.71 -2607.41 315.905 1606.15 341.368 183.491)
(2225.61 -2415.72 301.103 1845.39 325.375 869.093)
(2419.64 -2270.89 151.477 2062.2 163.484 1607.59)
(2253.37 -2739.35 173.016 936.469 218.262 -568.823)
(2421.81 -2543.01 288.554 1200.2 364.981 183.123)
(2601.13 -2356.21 275.019 1469.6 347.797 868.909)
(2772.81 -2215.03 138.563 1709.13 174.589 1607.53)
(2673.41 -2602.28 155.631 515.768 231.398 -569.252)
(2811.98 -2415.94 259.305 809.489 386.551 182.755)
(2962.83 -2238.59 247.173 1107.69 368.228 868.648)
(3112.97 -2104.55 124.755 1369.05 184.74 1607.38)
(3067.02 -2401.33 137.078 121.875 243.163 -569.631)
(3177.55 -2229.4 228.314 443.681 405.825 182.419)
(3301.66 -2065.79 217.708 768.716 386.484 868.355)
(3431.55 -1942.15 110.115 1050.42 193.85 1607.14)
(3424.49 -2141.38 117.508 -235.632 253.427 -569.954)
(3509.47 -1988.02 195.784 111.679 422.633 182.109)
(3609.24 -1842.12 186.8 461.036 402.417 868.053)
(3720.71 -1731.87 94.7228 761.159 201.84 1606.86)
(3736.98 -1828.78 97.0532 -548.037 262.1 -570.234)
(3799.56 -1697.73 161.903 -178.407 436.848 181.825)
(3877.99 -1573.1 154.615 192.198 415.909 867.762)
(3973.32 -1478.93 78.6409 508.385 208.648 1606.58)
(3996.77 -1471.17 75.817 -807.683 269.12 -570.509)
(4040.64 -1365.69 126.828 -419.465 448.373 181.531)
(4101.3 -1265.4 121.284 -31.2163 426.857 867.451)
(4183.19 -1189.59 61.9 298.309 214.209 1606.29)
(4197.34 -1077.34 53.8814 -1008.33 274.452 -570.985)
(4226.83 -1000.05 90.6589 -605.413 457.139 181.139)
(4273.62 -926.654 86.8759 -203.83 435.146 866.926)
(4345.21 -870.971 44.5109 136.172 218.415 1605.9)
(4337.89 -655.544 31.3519 -1141.5 278.032 -569.701)
(4352.97 -610.657 53.5266 -731.75 463.143 180.036)
(4390.88 -565.958 51.4321 -321.369 440.794 865.812)
(4453.88 -530.06 26.5591 24.5171 221.056 1604.17)
(4385.08 -234.528 -57.9945 -1218.77 281.325 -589.44)
(4410.98 -220.202 -47.4413 -801.349 470.661 167.182)
(4451.48 -204.102 -48.1114 -383.849 451.274 855.443)
(4522.81 -190.351 -58.8637 -29.4187 232.752 1596.55)
(-1179.77 -276.195 122.232 5461.56 -50.3973 -1039.9)
(-780.65 -264.38 196.038 5507.87 -46.0324 19.9338)
(-395.584 -251.395 183.699 5571.45 -46.4047 1032.72)
(-59.4664 -239.376 89.8529 5663.01 -50.7249 2069.87)
(-1090.88 -777.007 118.627 5402.05 12.6574 -1016.39)
(-700.241 -736.904 190.441 5436.21 21.5709 36.8551)
(-322.268 -698.538 176.93 5495.28 20.4578 1046.81)
(5.74572 -666.19 82.8947 5574.69 10.1378 2079.54)
(-932.997 -1276.78 117.098 5236.23 22.4831 -1017.55)
(-548.492 -1207.01 187.877 5283.65 37.0488 37.9249)
(-177.949 -1143.98 174.582 5350.13 34.9481 1047.88)
(145.869 -1094.99 81.8886 5438.15 17.1211 2081.8)
(-695.267 -1743.52 114.745 4998.71 32.1346 -1016.75)
(-324.099 -1648.28 184.183 5058.86 52.191 38.578)
(35.1351 -1562.25 171.176 5137.21 49.0218 1048.7)
(349.696 -1495.69 80.226 5234.33 23.8918 2082.54)
(-387.552 -2167.4 111.628 4690.94 41.4507 -1016.29)
(-33.1484 -2049.04 179.34 4767.93 66.8217 39.0817)
(310.988 -1942.16 166.688 4861.48 62.5808 1049.25)
(613.839 -1859.49 78.0403 4970.39 30.3238 2083.11)
(-17.2952 -2537.97 107.773 4320.67 50.3495 -1015.94)
(316.963 -2399.41 173.388 4417.89 80.8721 39.4742)
(642.902 -2274.29 161.19 4529.72 75.5801 1049.68)
(931.663 -2177.51 75.4105 4652.79 36.3952 2083.57)
(406.416 -2846.12 103.224 3897.02 58.7638 -1015.63)
(717.654 -2690.78 166.382 4017.33 94.2699 39.817)
(1022.76 -2550.46 154.743 4150.03 87.9719 1050.05)
(1295.37 -2441.92 72.3819 4289.29 42.1089 2083.96)
(873.24 -3084.32 98.0433 3430.46 66.6168 -1015.31)
(1159.13 -2915.95 158.391 3576.12 106.93 40.1426)
(1441.24 -2763.84 147.408 3731.76 99.6954 1050.37)
(1696 -2646.15 68.9919 3888.8 47.4598 2084.28)
(1371.81 -3246.75 92.3248 2932.51 73.8198 -1014.95)
(1630.65 -3069.34 149.515 3105.15 118.764 40.4859)
(1888.06 -2909.09 139.265 3285.21 110.686 1050.64)
(2123.64 -2785.12 65.282 3461.18 52.434 2084.47)
(1890.93 -3329.55 86.3534 2415.76 80.304 -1014.14)
(2120.55 -3147.07 139.928 2616.11 129.724 40.8369)
(2352.02 -2982.59 130.416 2821.54 120.909 1050.83)
(2567.64 -2855.4 61.2946 3017.12 57.0308 2084.55)
(2415.76 -3329.55 80.3046 1890.93 86.3529 -1014.14)
(2616.11 -3147.07 129.724 2120.55 139.928 40.8363)
(2821.53 -2982.59 120.909 2352.02 130.415 1050.83)
(3017.12 -2855.4 57.0307 2567.64 61.2947 2084.55)
(2932.5 -3246.76 73.8206 1371.81 92.3246 -1014.95)
(3105.15 -3069.34 118.765 1630.65 149.515 40.4841)
(3285.21 -2909.09 110.686 1888.06 139.265 1050.64)
(3461.18 -2785.12 52.434 2123.64 65.2822 2084.47)
(3430.46 -3084.32 66.6176 873.233 98.0432 -1015.31)
(3576.11 -2915.95 106.931 1159.13 158.391 40.1398)
(3731.75 -2763.84 99.6956 1441.24 147.408 1050.37)
(3888.8 -2646.15 47.4597 1696 68.9921 2084.28)
(3897.01 -2846.12 58.7646 406.406 103.224 -1015.64)
(4017.33 -2690.78 94.2705 717.647 166.382 39.8132)
(4150.03 -2550.46 87.9722 1022.75 154.743 1050.05)
(4289.28 -2441.92 42.1089 1295.37 72.3821 2083.96)
(4320.66 -2537.97 50.3503 -17.3081 107.773 -1015.94)
(4417.88 -2399.42 80.8727 316.955 173.389 39.4696)
(4529.71 -2274.29 75.5803 642.897 161.191 1049.68)
(4652.78 -2177.51 36.3952 931.662 75.4107 2083.57)
(4690.93 -2167.41 41.4514 -387.567 111.628 -1016.29)
(4767.92 -2049.04 66.8222 -33.1583 179.341 39.0763)
(4861.48 -1942.16 62.581 310.982 166.688 1049.24)
(4970.39 -1859.49 30.3238 613.837 78.0405 2083.11)
(4998.7 -1743.53 32.1352 -695.285 114.746 -1016.76)
(5058.86 -1648.28 52.1914 -324.111 184.184 38.572)
(5137.2 -1562.25 49.022 35.1288 171.176 1048.69)
(5234.32 -1495.69 23.8919 349.695 80.2262 2082.54)
(5236.22 -1276.78 22.4835 -933.017 117.099 -1017.56)
(5283.64 -1207.01 37.0491 -548.505 187.877 37.9183)
(5350.13 -1143.98 34.9483 -177.956 174.583 1047.88)
(5438.14 -1094.99 17.1211 145.867 81.8889 2081.8)
(5402.04 -777.008 12.6576 -1090.9 118.628 -1016.4)
(5436.2 -736.906 21.5711 -700.255 190.442 36.848)
(5495.27 -698.539 20.4579 -322.275 176.931 1046.81)
(5574.69 -666.19 10.1379 5.74341 82.895 2079.54)
(5461.55 -276.195 -50.3972 -1179.8 122.233 -1039.91)
(5507.87 -264.38 -46.0323 -780.666 196.038 19.9264)
(5571.45 -251.395 -46.4047 -395.593 183.699 1032.72)
(5663.01 -239.376 -50.7248 -59.4688 89.8532 2069.87)
(-1151.87 -309.57 30.5226 6309.34 -37.1311 -1166.39)
(-765.16 -297.652 41.995 6329.21 -36.1579 -17.1865)
(-402.631 -284.997 35.6571 6370.46 -36.2748 1100.07)
(-80.8517 -272.538 12.655 6439.58 -37.0196 2223.16)
(-1052.81 -873.015 27.5297 6241.58 2.22304 -1141.36)
(-675.773 -831.486 38.3264 6248.13 3.98676 1.0823)
(-320.754 -793.021 31.7658 6283.91 3.65102 1115.15)
(-7.12797 -759.109 9.02777 6338.96 1.54801 2232.75)
(-875.345 -1434.45 27.1879 6055.72 4.64714 -1142.76)
(-504.808 -1361.96 37.7014 6075.91 7.27442 1.88885)
(-157.195 -1298.76 31.2254 6118.98 6.5151 1115.94)
(152.474 -1247.75 8.86025 6183.3 2.61312 2235.07)
(-608.295 -1958.84 26.568 5788.96 7.14488 -1141.91)
(-251.628 -1859.82 36.8496 5822.24 10.5708 2.56735)
(84.7095 -1773.61 30.4969 5877.13 9.30105 1116.82)
(384.725 -1704.36 8.5479 5950.91 3.63252 2235.92)
(-262.601 -2435.1 25.7053 5443.24 9.56814 -1141.42)
(76.6527 -2312 35.7414 5493.97 13.7265 3.15293)
(397.88 -2204.89 29.5605 5564.05 11.9196 1117.5)
(685.709 -2118.89 8.16626 5650.07 4.50472 2236.69)
(153.359 -2851.47 24.6173 5027.25 11.8329 -1141.09)
(471.669 -2707.35 34.3993 5099.03 16.6853 3.60275)
(774.678 -2581.94 28.4577 5187.41 14.3353 1118.06)
(1047.86 -2481.25 7.76907 5288.13 5.20203 2237.35)
(629.372 -3197.73 23.3344 4551.25 13.8776 -1140.84)
(923.747 -3036.13 32.8534 4647.08 19.4079 3.96575)
(1205.9 -2895.48 27.2228 4756.38 16.5317 1118.53)
(1462.3 -2782.54 7.39092 4873.95 5.73234 2237.93)
(1153.82 -3465.38 21.9018 4026.99 15.6428 -1140.62)
(1421.85 -3290.23 31.1429 4149.22 21.856 4.28379)
(1680.98 -3137.75 25.8887 4281.54 18.4954 1118.92)
(1918.83 -3015.3 7.05754 4417.64 6.11132 2238.39)
(1713.92 -3647.87 20.3944 3467.39 17.064 -1140.34)
(1953.85 -3463.33 29.3309 3617.74 23.9949 4.60757)
(2188.24 -3302.69 24.4979 3774.58 20.2171 1119.23)
(2406.16 -3173.7 6.793 3930.41 6.35596 2238.69)
(2296.99 -3740.83 19.0778 2886.62 18.1009 -1139.59)
(2506.59 -3551.05 27.5461 3065.82 25.8327 4.94323)
(2715.01 -3386.17 23.1084 3248.12 21.7194 1119.44)
(2912.16 -3253.83 6.61569 3424.4 6.49867 2238.83)
(2886.62 -3740.83 18.1017 2296.99 19.0772 -1139.6)
(3065.82 -3551.05 25.8332 2506.59 27.5457 4.94251)
(3248.11 -3386.17 21.7197 2715.01 23.1081 1119.44)
(3424.4 -3253.83 6.49873 2912.16 6.61564 2238.83)
(3467.39 -3647.88 17.0648 1713.92 20.3939 -1140.35)
(3617.74 -3463.33 23.9954 1953.84 29.3305 4.60544)
(3774.58 -3302.69 20.2174 2188.24 24.4977 1119.23)
(3930.41 -3173.7 6.35603 2406.16 6.79297 2238.69)
(4026.98 -3465.39 15.6436 1153.81 21.9015 -1140.62)
(4149.21 -3290.24 21.8566 1421.85 31.1426 4.28035)
(4281.54 -3137.75 18.4957 1680.97 25.8886 1118.92)
(4417.64 -3015.3 6.11137 1918.83 7.05752 2238.39)
(4551.24 -3197.74 13.8784 629.361 23.3342 -1140.85)
(4647.07 -3036.13 19.4084 923.74 32.8533 3.96114)
(4756.38 -2895.48 16.532 1205.89 27.2227 1118.53)
(4873.95 -2782.54 5.73239 1462.3 7.39091 2237.92)
(5027.24 -2851.48 11.8337 153.344 24.6173 -1141.09)
(5099.02 -2707.35 16.6858 471.66 34.3992 3.59716)
(5187.4 -2581.94 14.3356 774.673 28.4577 1118.06)
(5288.13 -2481.25 5.20208 1047.86 7.76905 2237.35)
(5443.23 -2435.1 9.56882 -262.619 25.7054 -1141.43)
(5493.97 -2312 13.7269 76.6415 35.7413 3.14646)
(5564.05 -2204.89 11.9199 397.874 29.5604 1117.5)
(5650.06 -2118.88 4.50479 685.707 8.16623 2236.68)
(5788.95 -1958.84 7.14543 -608.316 26.5683 -1141.92)
(5822.23 -1859.82 10.5712 -251.641 36.8496 2.56006)
(5877.12 -1773.61 9.30126 84.7024 30.4969 1116.82)
(5950.91 -1704.36 3.63261 384.722 8.54788 2235.92)
(6055.7 -1434.45 4.64754 -875.369 27.1883 -1142.77)
(6075.9 -1361.96 7.27471 -504.823 37.7016 1.88086)
(6118.98 -1298.76 6.51528 -157.203 31.2255 1115.93)
(6183.3 -1247.75 2.61321 152.471 8.86024 2235.07)
(6241.57 -873.017 2.22329 -1052.83 27.5301 -1141.38)
(6248.12 -831.488 3.98695 -675.789 38.3266 1.07377)
(6283.9 -793.022 3.65114 -320.763 31.7659 1115.15)
(6338.95 -759.109 1.54808 -7.13061 9.02777 2232.75)
(6309.33 -309.571 -37.131 -1151.9 30.523 -1166.4)
(6329.2 -297.652 -36.1578 -765.178 41.9953 -17.1954)
(6370.45 -284.997 -36.2747 -402.64 35.6573 1100.06)
(6439.57 -272.538 -37.0195 -80.8545 12.655 2223.16)
(-1130.33 -331.598 -17.208 6866.9 -21.6111 -1132.74)
(-751.663 -318.599 -34.7271 6847.77 -22.2809 -1.11755)
(-404.093 -305.151 -36.495 6853.46 -22.2071 1107.73)
(-93.0198 -291.533 -23.1749 6888.12 -21.1883 2212.39)
(-1024.11 -935.806 -19.1167 6794.53 -2.98719 -1107.41)
(-656.191 -890.818 -36.598 6761.21 -4.54453 17.144)
(-316.621 -849.871 -38.1453 6761.06 -4.30555 1122.54)
(-13.9078 -812.828 -24.4482 6780.89 -2.22552 2221.11)
(-833.807 -1537.6 -18.8446 6595.61 -4.46679 -1109.11)
(-473.075 -1459.11 -36.2549 6576.78 -7.32393 17.6921)
(-141.401 -1391.81 -37.8192 6584.28 -7.07383 1123.06)
(156.984 -1335.96 -24.2693 6614.11 -3.82217 2223.32)
(-547.565 -2099.72 -18.5528 6309.82 -5.7569 -1108.34)
(-201.844 -1992.44 -35.707 6305.07 -9.95308 18.2886)
(117.827 -1900.63 -37.2744 6325.06 -9.7823 1123.89)
(405.647 -1824.79 -23.9908 6365.18 -5.4291 2224.17)
(-177.029 -2610.27 -18.2355 5939.33 -6.95581 -1107.92)
(149.824 -2476.84 -34.9787 5953.43 -12.5232 18.8595)
(453.411 -2362.76 -36.5166 5989.53 -12.4858 1124.61)
(727.888 -2268.56 -23.5711 6042.98 -7.10442 2225.03)
(268.821 -3056.64 -17.8898 5493.47 -8.13469 -1107.68)
(572.969 -2900.38 -34.0592 5530.37 -15.0736 19.3039)
(857.162 -2766.78 -35.5212 5585.92 -15.2069 1125.24)
(1115.61 -2656.49 -22.9712 5655.44 -8.86893 2225.85)
(779.041 -3427.86 -17.5003 4983.24 -9.3544 -1107.55)
(1057.24 -3252.62 -32.9327 5046.21 -17.6294 19.6515)
(1319.22 -3102.77 -34.2658 5124.05 -17.9485 1125.79)
(1559.31 -2979.05 -22.1595 5212 -10.7141 2226.6)
(1341.17 -3714.81 -17.0346 4421.2 -10.6753 -1107.46)
(1590.81 -3524.87 -31.5747 4512.85 -20.2116 19.9426)
(1828.3 -3362.4 -32.7288 4615.23 -20.7045 1126.24)
(2048.09 -3228.25 -21.1118 4723.49 -12.6175 2227.22)
(1941.53 -3910.45 -16.4281 3821.24 -12.1623 -1107.3)
(2160.71 -3710.35 -29.9374 3943.42 -22.8346 20.2352)
(2371.87 -3539.18 -30.8818 4071.96 -23.4597 1126.59)
(2569.87 -3397.87 -19.8088 4201.88 -14.5478 2227.65)
(2566.44 -4010.06 -15.4167 3198.51 -13.8552 -1106.63)
(2752.87 -3804.34 -27.9095 3352.05 -25.4679 20.5483)
(2936.4 -3628.67 -28.6854 3507.75 -26.1646 1126.82)
(3111.66 -3483.7 -18.2423 3660.12 -16.4543 2227.86)
(3198.5 -4010.06 -13.8545 2566.44 -15.4173 -1106.63)
(3352.05 -3804.34 -25.4674 2752.87 -27.91 20.5475)
(3507.74 -3628.67 -26.1642 2936.4 -28.6858 1126.82)
(3660.12 -3483.69 -16.4541 3111.66 -18.2425 2227.86)
(3821.23 -3910.45 -12.1615 1941.53 -16.4286 -1107.3)
(3943.41 -3710.35 -22.8341 2160.71 -29.9379 20.2328)
(4071.96 -3539.18 -23.4594 2371.87 -30.8821 1126.59)
(4201.88 -3397.87 -14.5476 2569.87 -19.809 2227.65)
(4421.19 -3714.81 -10.6746 1341.16 -17.0351 -1107.46)
(4512.84 -3524.88 -20.2111 1590.81 -31.5751 19.9387)
(4615.23 -3362.4 -20.7042 1828.29 -32.7291 1126.24)
(4723.49 -3228.25 -12.6173 2048.09 -21.112 2227.22)
(4983.23 -3427.87 -9.35365 779.029 -17.5006 -1107.56)
(5046.21 -3252.63 -17.6289 1057.23 -32.9331 19.6464)
(5124.05 -3102.77 -17.9482 1319.22 -34.2661 1125.78)
(5212 -2979.05 -10.714 1559.31 -22.1597 2226.6)
(5493.46 -3056.64 -8.134 268.806 -17.89 -1107.69)
(5530.36 -2900.38 -15.0732 572.959 -34.0595 19.2976)
(5585.91 -2766.78 -15.2067 857.156 -35.5214 1125.24)
(5655.43 -2656.49 -8.8688 1115.61 -22.9713 2225.85)
(5939.32 -2610.27 -6.95522 -177.048 -18.2356 -1107.93)
(5953.42 -2476.84 -12.5228 149.812 -34.9789 18.8523)
(5989.52 -2362.76 -12.4856 453.405 -36.5169 1124.61)
(6042.98 -2268.56 -7.10428 727.886 -23.5713 2225.03)
(6309.81 -2099.72 -5.75643 -547.587 -18.5529 -1108.35)
(6305.06 -1992.44 -9.95276 -201.858 -35.7072 18.2804)
(6325.05 -1900.63 -9.7821 117.819 -37.2746 1123.88)
(6365.17 -1824.79 -5.42897 405.645 -23.991 2224.16)
(6595.6 -1537.6 -4.46645 -833.832 -18.8446 -1109.12)
(6576.77 -1459.11 -7.32369 -473.091 -36.2551 17.6832)
(6584.27 -1391.82 -7.07367 -141.41 -37.8194 1123.05)
(6614.11 -1335.96 -3.82205 156.981 -24.2694 2223.31)
(6794.52 -935.808 -2.98699 -1024.14 -19.1167 -1107.42)
(6761.2 -890.819 -4.54438 -656.208 -36.5981 17.1345)
(6761.05 -849.871 -4.30545 -316.631 -38.1455 1122.53)
(6780.89 -812.828 -2.22544 -13.9107 -24.4483 2221.1)
(6866.89 -331.599 -21.611 -1130.36 -17.2079 -1132.75)
(6847.76 -318.6 -22.2808 -751.681 -34.7271 -1.12747)
(6853.45 -305.152 -22.207 -404.103 -36.4952 1107.72)
(6888.11 -291.533 -21.1883 -93.0229 -23.1751 2212.38)
(-1108.64 -341.203 -42.7665 7119.4 -5.86537 -1032.14)
(-736.544 -327.11 -72.3104 7066.72 -7.28332 36.1784)
(-399.22 -312.705 -70.4808 7040.73 -7.06058 1085.54)
(-96.6916 -298.028 -38.7817 7044.91 -5.2082 2127.22)
(-999.013 -962.888 -43.4165 7045.61 -5.68305 -1007.2)
(-638.326 -914.848 -72.5272 6978.27 -8.59562 53.7964)