/*--------------------------------*- C++ -*----------------------------------*\
| =========                 |                                                 |
| \\      /  F ield         | foam-extend: Open Source CFD                    |
|  \\    /   O peration     | Version:     3.1                                |
|   \\  /    A nd           | Web:         http://www.extend-project.de       |
|    \\/     M anipulation  |                                                 |
\*---------------------------------------------------------------------------*/
FoamFile
{
    version     2.0;
    format      ascii;
    class       volVectorField;
    location    "0.0019";
    object      U;
}
// * * * * * * * * * * * * * * * * * * * * * * * * * * * * * * * * * * * * * //

dimensions      [0 1 -1 0 0 0 0];

internalField   nonuniform List<vector> 
6400
(
(-0.000114246 -4.97971e-06 3.90424e-05)
(-0.000144339 -6.01305e-06 2.09616e-05)
(-0.000148494 -6.07862e-06 -1.04926e-05)
(-0.000129205 -5.26289e-06 -2.23263e-05)
(-0.000113967 -1.41261e-05 3.96289e-05)
(-0.000143708 -1.73503e-05 2.17561e-05)
(-0.000147586 -1.75698e-05 -9.61705e-06)
(-0.000128256 -1.51304e-05 -2.14816e-05)
(-0.000112528 -2.33865e-05 3.96152e-05)
(-0.00014196 -2.89094e-05 2.19479e-05)
(-0.000145877 -2.93479e-05 -9.31165e-06)
(-0.000126906 -2.52872e-05 -2.1091e-05)
(-0.000110383 -3.25666e-05 3.93987e-05)
(-0.000139308 -4.03106e-05 2.19249e-05)
(-0.000143241 -4.09766e-05 -9.18731e-06)
(-0.000124737 -3.53658e-05 -2.07903e-05)
(-0.000107608 -4.15299e-05 3.90383e-05)
(-0.000135839 -5.14254e-05 2.18026e-05)
(-0.000139749 -5.23183e-05 -9.12891e-06)
(-0.000121815 -4.52099e-05 -2.05073e-05)
(-0.00010426 -5.01806e-05 3.85696e-05)
(-0.00013162 -6.21755e-05 2.1625e-05)
(-0.000135476 -6.33109e-05 -9.09628e-06)
(-0.000118217 -5.47719e-05 -2.02112e-05)
(-0.000100377 -5.8427e-05 3.80286e-05)
(-0.00012669 -7.24881e-05 2.14175e-05)
(-0.000130452 -7.39063e-05 -9.07481e-06)
(-0.000113953 -6.4036e-05 -1.9902e-05)
(-9.59733e-05 -6.61692e-05 3.74563e-05)
(-0.00012105 -8.22757e-05 2.11988e-05)
(-0.000124658 -8.40361e-05 -9.06465e-06)
(-0.000108977 -7.29614e-05 -1.96099e-05)
(-9.10551e-05 -7.33105e-05 3.69013e-05)
(-0.000114693 -9.1438e-05 2.0989e-05)
(-0.000118065 -9.36025e-05 -9.07158e-06)
(-0.00010323 -8.14582e-05 -1.93833e-05)
(-8.56611e-05 -7.97954e-05 3.64523e-05)
(-0.000107636 -9.98981e-05 2.08288e-05)
(-0.000110671 -0.000102504 -9.09155e-06)
(-9.66934e-05 -8.94057e-05 -1.92647e-05)
(-7.97777e-05 -8.5662e-05 3.64479e-05)
(-9.98838e-05 -0.000107636 2.08236e-05)
(-0.000102497 -0.000110665 -9.09628e-06)
(-8.94023e-05 -9.66833e-05 -1.92696e-05)
(-7.32795e-05 -9.10371e-05 3.6888e-05)
(-9.1412e-05 -0.000114676 2.09734e-05)
(-9.3584e-05 -0.000118044 -9.08559e-06)
(-8.14439e-05 -0.000103205 -1.93977e-05)
(-6.61289e-05 -9.59355e-05 3.74347e-05)
(-8.22416e-05 -0.000121015 2.11735e-05)
(-8.40099e-05 -0.000124621 -9.08745e-06)
(-7.29392e-05 -0.000108936 -1.96333e-05)
(-5.83817e-05 -0.00010032 3.79994e-05)
(-7.24496e-05 -0.000126638 2.13832e-05)
(-7.38754e-05 -0.000130399 -9.10564e-06)
(-6.40088e-05 -0.000113896 -1.99335e-05)
(-5.01345e-05 -0.000104184 3.85336e-05)
(-6.21358e-05 -0.000131551 2.15827e-05)
(-6.32783e-05 -0.000135408 -9.13429e-06)
(-5.47424e-05 -0.000118145 -2.02501e-05)
(-4.14864e-05 -0.000107514 3.89966e-05)
(-5.13876e-05 -0.000135754 2.17534e-05)
(-5.22866e-05 -0.000139666 -9.17318e-06)
(-4.51805e-05 -0.000121729 -2.05527e-05)
(-3.25288e-05 -0.000110272 3.93524e-05)
(-4.02772e-05 -0.000139209 2.18699e-05)
(-4.09482e-05 -0.000143145 -9.23686e-06)
(-3.53389e-05 -0.000124638 -2.08414e-05)
(-2.33571e-05 -0.000112402 3.95655e-05)
(-2.8883e-05 -0.000141848 2.18882e-05)
(-2.93252e-05 -0.000145769 -9.36549e-06)
(-2.52652e-05 -0.000126796 -2.11469e-05)
(-1.41075e-05 -0.000113829 3.95766e-05)
(-1.73332e-05 -0.000143586 2.16928e-05)
(-1.7555e-05 -0.000147469 -9.67431e-06)
(-1.51159e-05 -0.000128137 -2.15412e-05)
(-4.97331e-06 -0.000114101 3.89896e-05)
(-6.00704e-06 -0.000144211 2.08969e-05)
(-6.07338e-06 -0.000148372 -1.05515e-05)
(-5.25768e-06 -0.000129081 -2.23878e-05)
(-0.000170458 -8.62867e-06 0.000359126)
(-0.000241187 -1.07605e-05 0.000157717)
(-0.000255313 -1.11472e-05 -6.91364e-05)
(-0.000216015 -9.85791e-06 -0.000259017)
(-0.000170889 -2.28046e-05 0.000360341)
(-0.000240778 -3.03344e-05 0.000159233)
(-0.000254287 -3.14422e-05 -6.74077e-05)
(-0.000214777 -2.64985e-05 -0.000257145)
(-0.000169484 -3.70845e-05 0.000360465)
(-0.000238586 -5.00788e-05 0.000159764)
(-0.00025201 -5.20413e-05 -6.65897e-05)
(-0.000213092 -4.36626e-05 -0.000256087)
(-0.000167092 -5.13731e-05 0.000359987)
(-0.000235016 -6.96168e-05 0.000159706)
(-0.000248331 -7.24563e-05 -6.62969e-05)
(-0.000210278 -6.08433e-05 -0.000255427)
(-0.000163939 -6.55195e-05 0.000359089)
(-0.000230284 -8.88564e-05 0.000159307)
(-0.000243402 -9.25632e-05 -6.62752e-05)
(-0.000206448 -7.78195e-05 -0.000254946)
(-0.000160148 -7.94048e-05 0.000357909)
(-0.000224519 -0.000107724 0.000158718)
(-0.000237351 -0.000112316 -6.63775e-05)
(-0.000201717 -9.45663e-05 -0.00025451)
(-0.000155725 -9.28615e-05 0.000356569)
(-0.000217704 -0.000126095 0.000158042)
(-0.000230134 -0.00013164 -6.65238e-05)
(-0.000195997 -0.000111084 -0.000254068)
(-0.000150528 -0.000105638 0.000355193)
(-0.00020965 -0.000143741 0.000157355)
(-0.000221518 -0.000150343 -6.66817e-05)
(-0.000188993 -0.000127248 -0.000253648)
(-0.000144317 -0.000117422 0.000353927)
(-0.000200077 -0.000160318 0.000156734)
(-0.000211176 -0.000168077 -6.68392e-05)
(-0.000180325 -0.000142734 -0.000253322)
(-0.000136849 -0.000127907 0.000353007)
(-0.000188722 -0.000175428 0.000156303)
(-0.000198834 -0.000184383 -6.69632e-05)
(-0.000169701 -0.00015705 -0.000253158)
(-0.00012789 -0.000136829 0.000352991)
(-0.00017542 -0.000188703 0.000156288)
(-0.000184391 -0.000198807 -6.69752e-05)
(-0.000157069 -0.000169666 -0.000253167)
(-0.000117376 -0.000144256 0.000353879)
(-0.000160288 -0.000200029 0.00015669)
(-0.000168068 -0.000211127 -6.68746e-05)
(-0.000142739 -0.000180272 -0.00025335)
(-0.000105571 -0.000150425 0.000355115)
(-0.000143697 -0.000209573 0.000157285)
(-0.000150324 -0.000221448 -6.67392e-05)
(-0.000127243 -0.000188922 -0.000253692)
(-9.27825e-05 -0.000155582 0.000356463)
(-0.000126043 -0.000217597 0.000157947)
(-0.000131613 -0.000230043 -6.66015e-05)
(-0.000111072 -0.000195909 -0.000254128)
(-7.93223e-05 -0.000159966 0.000357778)
(-0.000107668 -0.000224386 0.000158601)
(-0.000112285 -0.000237241 -6.64732e-05)
(-9.45498e-05 -0.000201614 -0.000254583)
(-6.54405e-05 -0.000163719 0.000358936)
(-8.88021e-05 -0.000230124 0.00015917)
(-9.25312e-05 -0.000243273 -6.63865e-05)
(-7.77998e-05 -0.00020633 -0.000255031)
(-5.13034e-05 -0.000166837 0.000359817)
(-6.95677e-05 -0.00023483 0.000159553)
(-7.24259e-05 -0.000248183 -6.64215e-05)
(-6.08224e-05 -0.000210144 -0.000255523)
(-3.70295e-05 -0.000169195 0.000360281)
(-5.0039e-05 -0.000238376 0.000159598)
(-5.20155e-05 -0.000251844 -6.67251e-05)
(-4.36435e-05 -0.000212943 -0.000256192)
(-2.2769e-05 -0.000170573 0.000360147)
(-3.03082e-05 -0.000240548 0.000159057)
(-3.14247e-05 -0.000254105 -6.75515e-05)
(-2.64849e-05 -0.000214615 -0.000257256)
(-8.61619e-06 -0.000170127 0.000358929)
(-1.0751e-05 -0.000240945 0.000157539)
(-1.11407e-05 -0.000255122 -6.92831e-05)
(-9.85256e-06 -0.000215845 -0.000259132)
(0.000371392 1.09366e-05 0.000968017)
(0.000245323 7.11885e-06 0.000398221)
(0.000215168 6.21243e-06 -0.000201895)
(0.000275776 8.19619e-06 -0.000752891)
(0.000366323 3.84568e-05 0.000969495)
(0.000241706 2.49708e-05 0.000400064)
(0.000212615 2.23181e-05 -0.000199805)
(0.000273664 3.00048e-05 -0.000750637)
(0.000360164 6.55434e-05 0.000969655)
(0.000236971 4.2292e-05 0.000400679)
(0.000208156 3.76681e-05 -0.00019887)
(0.000268376 5.06775e-05 -0.00074944)
(0.000351581 9.18429e-05 0.000969039)
(0.000230516 5.91911e-05 0.000400488)
(0.000202069 5.25744e-05 -0.000198708)
(0.000261031 7.06062e-05 -0.000748921)
(0.000340314 0.000117168 0.000967875)
(0.000222082 7.53917e-05 0.000399803)
(0.00019418 6.68229e-05 -0.000198994)
(0.000251514 8.97353e-05 -0.000748784)
(0.000326282 0.000141341 0.00096636)
(0.000211583 9.06532e-05 0.000398844)
(0.000184406 8.01373e-05 -0.000199502)
(0.000239761 0.000107755 -0.000748804)
(0.000309654 0.000164328 0.000964664)
(0.000199228 0.000104875 0.000397773)
(0.000172993 9.23414e-05 -0.000200079)
(0.000226086 0.000124369 -0.000748844)
(0.000290894 0.000186298 0.000962953)
(0.000185558 0.000118191 0.000396718)
(0.000160553 0.000103511 -0.000200632)
(0.000211196 0.000139534 -0.000748862)
(0.000270682 0.000207598 0.000961417)
(0.000171323 0.000130999 0.000395804)
(0.000147899 0.000114048 -0.000201097)
(0.000195988 0.0001536 -0.000748872)
(0.000249727 0.000228634 0.000960339)
(0.000157255 0.000143852 0.000395204)
(0.000135773 0.000124594 -0.000201394)
(0.000181221 0.000167255 -0.000748893)
(0.000228643 0.000249769 0.000960317)
(0.000143846 0.000157292 0.000395185)
(0.000124564 0.000135823 -0.00020141)
(0.000167205 0.000181285 -0.000748905)
(0.000207648 0.000270779 0.000961352)
(0.000131019 0.000171395 0.000395747)
(0.000114033 0.00014797 -0.000201143)
(0.000153561 0.000196064 -0.000748908)
(0.000186377 0.000291046 0.000962847)
(0.000118229 0.000185663 0.000396625)
(0.000103508 0.000160641 -0.000200707)
(0.000139503 0.000211285 -0.00074892)
(0.000164424 0.000309858 0.000964519)
(0.000104922 0.000199365 0.000397647)
(9.23455e-05 0.000173098 -0.000200181)
(0.000124344 0.000226183 -0.000748923)
(0.000141442 0.000326536 0.000966182)
(9.07055e-05 0.000211748 0.000398689)
(8.01465e-05 0.000184525 -0.000199627)
(0.000107737 0.000239864 -0.0007489)
(0.000117265 0.000340617 0.000967668)
(7.54442e-05 0.000222274 0.000399623)
(6.6836e-05 0.000194314 -0.00019914)
(8.97248e-05 0.000251624 -0.000748896)
(9.19293e-05 0.000351932 0.000968807)
(5.92399e-05 0.000230738 0.000400286)
(5.25901e-05 0.000202219 -0.000198871)
(7.06033e-05 0.000261152 -0.000749047)
(6.5612e-05 0.00036056 0.000969404)
(4.23327e-05 0.000237222 0.00040046)
(3.76838e-05 0.000208324 -0.000199047)
(5.06799e-05 0.000268509 -0.000749578)
(3.85016e-05 0.000366756 0.00096923)
(2.49984e-05 0.000241983 0.000399832)
(2.23301e-05 0.0002128 -0.000199994)
(3.00089e-05 0.00027381 -0.000750783)
(1.09522e-05 0.000371845 0.000967745)
(7.12903e-06 0.000245614 0.000397984)
(6.21731e-06 0.000215363 -0.000202088)
(8.19849e-06 0.000275929 -0.000753041)
(0.0020509 7.49426e-05 0.00190498)
(0.001847 6.86596e-05 0.000738367)
(0.00178535 6.66375e-05 -0.000456324)
(0.00185797 6.8959e-05 -0.00159068)
(0.00203401 0.000233567 0.00190641)
(0.00183233 0.00021149 0.000740135)
(0.00177232 0.000205447 -0.000454352)
(0.00184571 0.000214757 -0.00158855)
(0.00200635 0.000390661 0.00190645)
(0.00180703 0.000352673 0.000740532)
(0.0017477 0.000342268 -0.000453738)
(0.00182017 0.000357986 -0.00158778)
(0.0019661 0.00054485 0.00190574)
(0.00177032 0.000491517 0.000740046)
(0.00171194 0.000476751 -0.000454073)
(0.00178296 0.000498491 -0.00158797)
(0.00191309 0.000695059 0.00190453)
(0.00172199 0.000626843 0.00073902)
(0.00166493 0.000607837 -0.000454987)
(0.00173406 0.00063546 -0.00158876)
(0.00184741 0.000840266 0.00190302)
(0.00166215 0.000757569 0.000737706)
(0.00160675 0.000734419 -0.000456191)
(0.00167356 0.000767752 -0.00158984)
(0.00176959 0.000979696 0.00190136)
(0.00159133 0.000882843 0.000736297)
(0.00153799 0.000855556 -0.000457461)
(0.00160212 0.000894267 -0.00159095)
(0.0016806 0.00111291 0.0018997)
(0.0015106 0.00100219 0.000734953)
(0.0014598 0.000970691 -0.000458629)
(0.00152101 0.00101428 -0.00159193)
(0.00158179 0.00123978 0.00189823)
(0.0014214 0.00111554 0.000733831)
(0.00137368 0.00107976 -0.000459554)
(0.00143183 0.00112766 -0.00159267)
(0.00147459 0.00136035 0.0018972)
(0.00132518 0.00122313 0.000733124)
(0.00128109 0.00118311 -0.000460097)
(0.00133609 0.00123476 -0.00159309)
(0.00136035 0.00147465 0.00189718)
(0.00122312 0.00132524 0.000733104)
(0.00118306 0.00128116 -0.000460114)
(0.00123469 0.00133618 -0.0015931)
(0.00123984 0.00158192 0.00189816)
(0.00111556 0.0014215 0.000733772)
(0.00107974 0.00137377 -0.000459603)
(0.00112759 0.00143194 -0.00159271)
(0.00111301 0.00168081 0.0018996)
(0.00100223 0.00151074 0.000734859)
(0.000970679 0.00145992 -0.000458708)
(0.00101423 0.00152112 -0.001592)
(0.00097982 0.00176987 0.00190121)
(0.0008829 0.00159151 0.000736168)
(0.000855553 0.00153813 -0.000457568)
(0.000894222 0.00160224 -0.00159104)
(0.000840397 0.00184775 0.00190284)
(0.000757631 0.00166236 0.000737547)
(0.000734422 0.0016069 -0.000456322)
(0.000767715 0.00167368 -0.00158995)
(0.000695184 0.00191349 0.00190432)
(0.000626906 0.00172224 0.000738835)
(0.000607845 0.00166509 -0.00045514)
(0.000635434 0.00173419 -0.00158889)
(0.000544961 0.00196657 0.0019055)
(0.000491576 0.0017706 0.000739839)
(0.000476763 0.00171212 -0.000454245)
(0.000498477 0.0017831 -0.00158811)
(0.000390749 0.00200687 0.00190619)
(0.000352722 0.00180735 0.000740307)
(0.000342283 0.0017479 -0.000453924)
(0.000357981 0.00182032 -0.00158793)
(0.000233625 0.00203458 0.00190614)
(0.000211523 0.00183269 0.000739897)
(0.000205459 0.00177254 -0.000454549)
(0.000214758 0.00184588 -0.00158871)
(7.49627e-05 0.0020515 0.0019047)
(6.86721e-05 0.00184737 0.000738123)
(6.66427e-05 0.00178558 -0.000456526)
(6.89604e-05 0.00185815 -0.00159085)
(0.00554803 0.000210346 0.00316186)
(0.00523679 0.000200512 0.00114443)
(0.00511717 0.000196329 -0.000887303)
(0.00517782 0.000198111 -0.00285219)
(0.00550807 0.000643121 0.00316282)
(0.00520002 0.000608862 0.00114561)
(0.00508275 0.000596178 -0.00088604)
(0.00514465 0.00060418 -0.00285082)
(0.00543688 0.00107206 0.00316255)
(0.00513252 0.00101327 0.00114546)
(0.00501671 0.000991605 -0.000886211)
(0.00507795 0.00100504 -0.00285105)
(0.00533222 0.00149386 0.0031618)
(0.00503343 0.00141136 0.00114452)
(0.00491971 0.00138079 -0.000887406)
(0.00497983 0.00139924 -0.00285251)
(0.00519419 0.00190569 0.00316078)
(0.00490276 0.00180023 0.00114311)
(0.00479186 0.00176104 -0.00088924)
(0.00485047 0.00178446 -0.00285479)
(0.00502329 0.00230483 0.00315962)
(0.00474098 0.00217714 0.00114148)
(0.00463356 0.00212964 -0.000891388)
(0.00469027 0.00215796 -0.00285748)
(0.00482061 0.0026889 0.00315841)
(0.00454915 0.00253964 0.00113982)
(0.00444589 0.00248405 -0.000893569)
(0.00450038 0.00251706 -0.0028602)
(0.00458788 0.00305595 0.00315721)
(0.00432908 0.00288577 0.00113829)
(0.00423073 0.00282225 -0.000895529)
(0.0042828 0.00285951 -0.00286261)
(0.00432742 0.00340454 0.00315612)
(0.00408315 0.00321414 0.00113705)
(0.00399052 0.00314281 -0.00089704)
(0.00404006 0.00318379 -0.00286443)
(0.00404177 0.00373351 0.00315532)
(0.00381394 0.0035238 0.00113629)
(0.00372784 0.0034449 -0.000897892)
(0.00377477 0.00348906 -0.00286542)
(0.00373352 0.00404184 0.0031553)
(0.0035238 0.003814 0.00113627)
(0.00344485 0.00372792 -0.000897907)
(0.00348898 0.00377487 -0.00286543)
(0.00340463 0.00432758 0.00315606)
(0.00321418 0.00408327 0.00113699)
(0.00314279 0.00399064 -0.000897084)
(0.00318372 0.00404018 -0.00286446)
(0.00305609 0.00458814 0.00315711)
(0.00288583 0.00432925 0.0011382)
(0.00282224 0.00423087 -0.0008956)
(0.00285946 0.00428293 -0.00286267)
(0.00268906 0.00482095 0.00315828)
(0.00253972 0.00454937 0.00113971)
(0.00248406 0.00444605 -0.000893665)
(0.00251702 0.00450053 -0.00286028)
(0.002305 0.00502371 0.00315946)
(0.00217722 0.00474124 0.00114134)
(0.00212965 0.00463374 -0.000891507)
(0.00215793 0.00469042 -0.00285757)
(0.00190585 0.00519468 0.00316059)
(0.00180032 0.00490307 0.00114295)
(0.00176106 0.00479206 -0.000889378)
(0.00178444 0.00485063 -0.0028549)
(0.001494 0.0053328 0.00316159)
(0.00141144 0.00503378 0.00114433)
(0.00138081 0.00491994 -0.000887561)
(0.00139923 0.00498 -0.00285264)
(0.00107218 0.00543753 0.00316232)
(0.00101333 0.00513292 0.00114526)
(0.000991627 0.00501697 -0.000886379)
(0.00100504 0.00507814 -0.00285119)
(0.000643194 0.00550878 0.00316258)
(0.000608906 0.00520046 0.0011454)
(0.000596195 0.00508303 -0.000886218)
(0.000604184 0.00514486 -0.00285097)
(0.000210371 0.00554878 0.00316161)
(0.000200529 0.00523726 0.00114421)
(0.000196336 0.00511747 -0.000887486)
(0.000198113 0.00517804 -0.00285234)
(0.0116136 0.000447023 0.00464154)
(0.0111607 0.000432305 0.0015377)
(0.0109447 0.000424436 -0.00155178)
(0.0109506 0.000424154 -0.00457643)
(0.0115349 0.00135618 0.00464152)
(0.0110863 0.00130543 0.00153769)
(0.0108735 0.00128134 -0.00155192)
(0.0108814 0.00128281 -0.00457656)
(0.0113892 0.00225751 0.00464078)
(0.0109461 0.00217065 0.00153667)
(0.0107361 0.00212971 -0.00155333)
(0.0107442 0.00213199 -0.00457835)
(0.011174 0.00314445 0.0046401)
(0.0107393 0.00302267 0.00153516)
(0.0105334 0.00296509 -0.00155567)
(0.0105415 0.00296786 -0.00458156)
(0.0108901 0.00401126 0.00463957)
(0.0104663 0.00385569 0.00153343)
(0.0102658 0.00378208 -0.0015586)
(0.0102739 0.00378549 -0.00458574)
(0.0105385 0.0048523 0.00463919)
(0.0101283 0.00466417 0.00153163)
(0.00993427 0.00457521 -0.00156182)
(0.00994231 0.00457952 -0.00459044)
(0.0101212 0.00566233 0.00463889)
(0.00972705 0.00544288 0.00152989)
(0.0095407 0.00533924 -0.001565)
(0.00954854 0.00534454 -0.00459514)
(0.00964108 0.00643668 0.00463859)
(0.0092654 0.00618714 0.00152834)
(0.00908789 0.00606941 -0.00156782)
(0.00909548 0.00607561 -0.00459931)
(0.00910177 0.0071713 0.00463823)
(0.00874703 0.00689296 0.00152712)
(0.00857953 0.00676169 -0.00156996)
(0.00858692 0.00676853 -0.00460245)
(0.00850746 0.00786262 0.00463787)
(0.00817612 0.00755694 0.00152639)
(0.00801978 0.00741278 -0.00157114)
(0.00802707 0.00741996 -0.00460416)
(0.00786265 0.00850752 0.00463785)
(0.00755695 0.00817617 0.00152637)
(0.00741274 0.00801986 -0.00157115)
(0.00741988 0.00802717 -0.00460417)
(0.00717141 0.00910195 0.00463818)
(0.00689301 0.00874715 0.00152707)
(0.00676168 0.00857964 -0.00156999)
(0.00676847 0.00858705 -0.00460248)
(0.00643685 0.00964136 0.00463851)
(0.00618723 0.00926559 0.00152827)
(0.00606942 0.00908804 -0.00156787)
(0.00607556 0.00909562 -0.00459935)
(0.00566253 0.0101216 0.00463878)
(0.00544299 0.0097273 0.0015298)
(0.00533926 0.00954088 -0.00156507)
(0.0053445 0.00954869 -0.0045952)
(0.00485251 0.0105389 0.00463905)
(0.00466428 0.0101286 0.00153151)
(0.00457524 0.00993447 -0.00156191)
(0.00457949 0.00994247 -0.00459051)
(0.00401146 0.0108906 0.00463941)
(0.0038558 0.0104667 0.00153329)
(0.00378211 0.010266 -0.00155871)
(0.00378547 0.0102741 -0.00458583)
(0.00314462 0.0111747 0.00463992)
(0.00302276 0.0107397 0.00153501)
(0.00296513 0.0105336 -0.00155579)
(0.00296785 0.0105417 -0.00458166)
(0.00225764 0.0113899 0.00464058)
(0.00217073 0.0109466 0.0015365)
(0.00212974 0.0107364 -0.00155346)
(0.00213199 0.0107444 -0.00457846)
(0.00135627 0.0115357 0.00464131)
(0.00130548 0.0110868 0.00153751)
(0.00128136 0.0108739 -0.00155206)
(0.00128282 0.0108816 -0.00457667)
(0.000447054 0.0116144 0.00464133)
(0.000432325 0.0111612 0.00153752)
(0.000424446 0.010945 -0.00155192)
(0.000424159 0.0109509 -0.00457655)
(0.0208961 0.000810922 0.00612971)
(0.0202667 0.000789885 0.00178505)
(0.0199055 0.000776387 -0.0024999)
(0.0197936 0.000771829 -0.00673391)
(0.0207594 0.00244985 0.00612816)
(0.0201354 0.00237806 0.0017832)
(0.0197784 0.00233645 -0.00250216)
(0.0196694 0.00232374 -0.00673628)
(0.0205007 0.00407479 0.00612684)
(0.0198845 0.00395228 0.00178106)
(0.0195322 0.0038818 -0.00250514)
(0.0194251 0.00385991 -0.00674006)
(0.0201175 0.00567439 0.00612641)
(0.0195133 0.00550275 0.00177902)
(0.019168 0.00540386 -0.00250873)
(0.0190634 0.00537276 -0.00674525)
(0.0196115 0.00723848 0.00612676)
(0.019023 0.0070194 0.00177716)
(0.0186869 0.00689316 -0.00251272)
(0.0185855 0.00685341 -0.00675148)
(0.0189849 0.008757 0.00612767)
(0.0184156 0.00849241 0.00177548)
(0.0180907 0.0083401 -0.00251688)
(0.017993 0.0082925 -0.00675826)
(0.0182409 0.0102203 0.00612883)
(0.0176941 0.00991226 0.00177398)
(0.0173822 0.00973527 -0.00252092)
(0.0172886 0.00968055 -0.006765)
(0.0173837 0.0116194 0.00612993)
(0.0168626 0.01127 0.00177271)
(0.0165655 0.0110697 -0.00252447)
(0.0164763 0.0110084 -0.00677099)
(0.0164189 0.0129461 0.00613069)
(0.0159266 0.0125574 0.00177173)
(0.0156458 0.012335 -0.00252715)
(0.0155615 0.0122676 -0.0067755)
(0.0153528 0.0141927 0.00613099)
(0.0148924 0.013767 0.00177117)
(0.0146296 0.0135238 -0.0025286)
(0.0145506 0.0134505 -0.00677794)
(0.0141928 0.0153528 0.00613098)
(0.0137671 0.0148924 0.00177115)
(0.0135238 0.0146297 -0.00252861)
(0.0134505 0.0145507 -0.00677794)
(0.0129462 0.016419 0.00613066)
(0.0125575 0.0159267 0.0017717)
(0.012335 0.0156459 -0.00252717)
(0.0122675 0.0155616 -0.00677552)
(0.0116196 0.017384 0.00612987)
(0.0112701 0.0168628 0.00177265)
(0.0110697 0.0165656 -0.00252451)
(0.0110084 0.0164765 -0.00677102)
(0.0102206 0.0182413 0.00612875)
(0.0099124 0.0176944 0.00177391)
(0.00973531 0.0173824 -0.00252098)
(0.00968052 0.0172888 -0.00676504)
(0.00875725 0.0189854 0.00612756)
(0.00849254 0.0184159 0.00177539)
(0.00834014 0.0180909 -0.00251695)
(0.00829247 0.0179932 -0.00675831)
(0.00723871 0.0196121 0.00612664)
(0.00701953 0.0190233 0.00177706)
(0.0068932 0.0186871 -0.0025128)
(0.00685339 0.0185857 -0.00675153)
(0.00567459 0.0201182 0.00612627)
(0.00550287 0.0195137 0.00177891)
(0.00540391 0.0191682 -0.00250881)
(0.00537275 0.0190636 -0.00674531)
(0.00407495 0.0205015 0.00612669)
(0.00395237 0.019885 0.00178094)
(0.00388184 0.0195325 -0.00250524)
(0.00385992 0.0194253 -0.00674012)
(0.00244995 0.0207603 0.006128)
(0.00237812 0.0201359 0.00178307)
(0.00233647 0.0197787 -0.00250226)
(0.00232375 0.0196696 -0.00673635)
(0.000810956 0.020897 0.00612955)
(0.000789908 0.0202672 0.00178492)
(0.000776399 0.0199058 -0.0025)
(0.000771835 0.0197939 -0.00673398)
(0.0337754 0.00131747 0.00728038)
(0.0329393 0.00128878 0.00169766)
(0.0323768 0.00126744 -0.00376332)
(0.0320659 0.0012558 -0.00920227)
(0.0335594 0.00396946 0.00727683)
(0.0327298 0.00387252 0.00169346)
(0.0321725 0.0038064 -0.00376824)
(0.0318655 0.00376967 -0.00920743)
(0.0331447 0.00659888 0.00727489)
(0.0323257 0.00643391 0.00169012)
(0.0317758 0.00632217 -0.00377289)
(0.0314736 0.00625944 -0.00921326)
(0.0325295 0.00918789 0.00727494)
(0.0317268 0.00895696 0.00168775)
(0.031188 0.0088004 -0.0037775)
(0.0308923 0.00871212 -0.00922023)
(0.0317168 0.0117203 0.00727656)
(0.0309353 0.0114257 0.00168613)
(0.0304112 0.011226 -0.00378215)
(0.0301238 0.0111134 -0.00922809)
(0.0307101 0.0141798 0.00727922)
(0.0299546 0.0138245 0.00168502)
(0.0294481 0.0135839 -0.00378679)
(0.0291707 0.0134485 -0.00923647)
(0.0295141 0.0165509 0.00728232)
(0.0287889 0.0161379 0.00168423)
(0.0283027 0.0158586 -0.00379119)
(0.0280366 0.0157023 -0.00924474)
(0.0281352 0.0188182 0.00728525)
(0.0274441 0.0183508 0.00168365)
(0.0269808 0.0180353 -0.00379503)
(0.026727 0.0178597 -0.00925209)
(0.026581 0.0209675 0.00728749)
(0.0259277 0.0204489 0.00168324)
(0.0254895 0.0200995 -0.0037979)
(0.0252493 0.019906 -0.00925763)
(0.0248608 0.0229856 0.00728865)
(0.024249 0.0224189 0.00168302)
(0.0238383 0.0220378 -0.00379944)
(0.0236125 0.0218277 -0.00926062)
(0.0229857 0.0248608 0.00728865)
(0.022419 0.024249 0.00168301)
(0.0220378 0.0238383 -0.00379944)
(0.0218276 0.0236126 -0.00926062)
(0.0209677 0.0265811 0.00728746)
(0.020449 0.0259278 0.00168322)
(0.0200995 0.0254896 -0.00379791)
(0.019906 0.0252494 -0.00925764)
(0.0188185 0.0281355 0.00728521)
(0.0183509 0.0274443 0.00168362)
(0.0180353 0.0269809 -0.00379505)
(0.0178596 0.0267271 -0.0092521)
(0.0165511 0.0295145 0.00728226)
(0.016138 0.0287891 0.00168418)
(0.0158587 0.0283029 -0.00379122)
(0.0157023 0.0280367 -0.00924476)
(0.0141801 0.0307105 0.00727915)
(0.0138247 0.0299549 0.00168496)
(0.0135839 0.0294482 -0.00378683)
(0.0134485 0.0291708 -0.00923649)
(0.0117205 0.0317174 0.00727648)
(0.0114259 0.0309356 0.00168607)
(0.0112261 0.0304113 -0.0037822)
(0.0111134 0.0301239 -0.00922811)
(0.0091881 0.0325302 0.00727485)
(0.00895708 0.0317271 0.00168768)
(0.00880045 0.0311882 -0.00377755)
(0.00871212 0.0308924 -0.00922026)
(0.00659905 0.0331455 0.00727479)
(0.00643401 0.0323261 0.00169004)
(0.00632221 0.0317761 -0.00377295)
(0.00625945 0.0314737 -0.0092133)
(0.00396957 0.0335603 0.00727673)
(0.00387259 0.0327303 0.00169337)
(0.00380643 0.0321728 -0.0037683)
(0.00376969 0.0318657 -0.00920747)
(0.00131751 0.0337763 0.00728027)
(0.0012888 0.0329398 0.00169757)
(0.00126745 0.0323771 -0.00376338)
(0.0012558 0.0320661 -0.0092023)
(0.0501289 0.00196224 0.00761081)
(0.0490676 0.00192492 0.00103818)
(0.0482487 0.00189359 -0.00534127)
(0.0476476 0.0018718 -0.0117405)
(0.0498134 0.00590071 0.00760505)
(0.0487594 0.00577588 0.00103144)
(0.0479465 0.00567841 -0.00534897)
(0.0473507 0.00560677 -0.0117485)
(0.0492014 0.00980565 0.00760255)
(0.0481611 0.00959377 0.00102709)
(0.0473591 0.00942928 -0.00535493)
(0.0467718 0.00930724 -0.0117559)
(0.0482925 0.0136512 0.00760325)
(0.0472732 0.0133548 0.0010248)
(0.0464875 0.0131246 -0.00535991)
(0.0459125 0.0129533 -0.0117637)
(0.0470912 0.0174134 0.00760634)
(0.0460994 0.0170356 0.00102394)
(0.045335 0.0167422 -0.00536437)
(0.0447759 0.0165238 -0.011772)
(0.0456029 0.0210686 0.00761095)
(0.0446445 0.0206133 0.00102397)
(0.0439059 0.0202597 -0.00536852)
(0.0433657 0.019997 -0.0117806)
(0.0438343 0.0245932 0.00761617)
(0.0429146 0.0240647 0.00102445)
(0.0422056 0.0236547 -0.00537233)
(0.0416871 0.0233506 -0.0117891)
(0.0417937 0.027964 0.00762111)
(0.0409173 0.027367 0.00102506)
(0.0402415 0.0269042 -0.00537561)
(0.0397469 0.026562 -0.0117966)
(0.0394917 0.031159 0.00762494)
(0.0386629 0.0304979 0.0010256)
(0.0380234 0.0299861 -0.00537804)
(0.0375549 0.0296087 -0.0118022)
(0.0369411 0.0341575 0.00762707)
(0.036164 0.0334365 0.00102593)
(0.035564 0.0328791 -0.00537933)
(0.0351237 0.0324691 -0.0118053)
(0.0341576 0.0369411 0.00762706)
(0.0334366 0.036164 0.00102592)
(0.0328791 0.035564 -0.00537933)
(0.032469 0.0351237 -0.0118053)
(0.0311593 0.0394918 0.00762493)
(0.030498 0.0386629 0.00102559)
(0.0299862 0.0380235 -0.00537805)
(0.0296086 0.037555 -0.0118022)
(0.0279643 0.041794 0.00762108)
(0.0273671 0.0409174 0.00102504)
(0.0269043 0.0402416 -0.00537563)
(0.026562 0.039747 -0.0117966)
(0.0245934 0.0438346 0.00761614)
(0.0240648 0.0429147 0.00102443)
(0.0236547 0.0422057 -0.00537235)
(0.0233506 0.0416871 -0.0117891)
(0.0210689 0.0456034 0.00761091)
(0.0206134 0.0446448 0.00102394)
(0.0202598 0.043906 -0.00536854)
(0.019997 0.0433658 -0.0117806)
(0.0174137 0.0470918 0.00760629)
(0.0170358 0.0460997 0.00102391)
(0.0167422 0.0453351 -0.00536439)
(0.0165238 0.0447759 -0.011772)
(0.0136514 0.0482932 0.0076032)
(0.0133549 0.0472735 0.00102476)
(0.0131246 0.0464876 -0.00535994)
(0.0129533 0.0459126 -0.0117637)
(0.00980582 0.0492021 0.0076025)
(0.00959388 0.0481614 0.00102705)
(0.00942933 0.0473592 -0.00535496)
(0.00930725 0.0467719 -0.0117559)
(0.00590082 0.0498142 0.00760499)
(0.00577595 0.0487598 0.0010314)
(0.00567844 0.0479467 -0.005349)
(0.00560678 0.0473508 -0.0117485)
(0.00196228 0.0501298 0.00761076)
(0.00192494 0.0490681 0.00103813)
(0.0018936 0.0482489 -0.0053413)
(0.0018718 0.0476477 -0.0117405)
(0.0689983 0.0027075 0.00656037)
(0.067714 0.00266138 -0.000446715)
(0.0665971 0.00261853 -0.00719293)
(0.0656227 0.00258389 -0.0140066)
(0.0685689 0.00812994 0.00655256)
(0.0672923 0.0079771 -0.000455632)
(0.0661822 0.00784333 -0.00720286)
(0.0652142 0.00772705 -0.0140168)
(0.0677299 0.0135061 0.00654967)
(0.0664699 0.0132473 -0.000460464)
(0.0653746 0.0130218 -0.00720922)
(0.06442 0.0128239 -0.0140244)
(0.0664826 0.018801 0.00655102)
(0.0652483 0.0184392 -0.000462098)
(0.0641752 0.0181237 -0.00721339)
(0.0632401 0.0178464 -0.0140313)
(0.0648334 0.0239821 0.00655543)
(0.0636328 0.0235211 -0.000461608)
(0.0625887 0.0231191 -0.00721632)
(0.0616789 0.0227654 -0.0140379)
(0.0627896 0.0290168 0.00656171)
(0.0616299 0.0284616 -0.000459877)
(0.0606209 0.0279772 -0.00721856)
(0.0597415 0.0275513 -0.0140445)
(0.0603603 0.0338726 0.00656873)
(0.0592476 0.0332288 -0.000457611)
(0.0582791 0.0326671 -0.00722043)
(0.0574346 0.0321736 -0.0140509)
(0.0575564 0.0385172 0.00657536)
(0.0564961 0.0377909 -0.000455362)
(0.0555726 0.0371571 -0.00722195)
(0.054767 0.0366009 -0.0140566)
(0.0543914 0.0429195 0.00658058)
(0.0533882 0.0421164 -0.000453544)
(0.0525141 0.0414158 -0.00722305)
(0.0517509 0.0408016 -0.0140609)
(0.0508821 0.0470498 0.00658356)
(0.0499408 0.0461754 -0.000452481)
(0.0491204 0.0454127 -0.0072236)
(0.0484031 0.044745 -0.0140632)
(0.04705 0.0508821 0.00658356)
(0.0461755 0.0499408 -0.000452482)
(0.0454127 0.0491204 -0.0072236)
(0.044745 0.0484031 -0.0140632)
(0.0429197 0.0543914 0.00658058)
(0.0421166 0.0533882 -0.000453546)
(0.0414158 0.0525142 -0.00722305)
(0.0408016 0.051751 -0.0140609)
(0.0385175 0.0575566 0.00657536)
(0.0377911 0.0564961 -0.000455366)
(0.0371572 0.0555727 -0.00722196)
(0.0366009 0.054767 -0.0140566)
(0.0338729 0.0603606 0.00656873)
(0.033229 0.0592478 -0.000457618)
(0.0326672 0.0582791 -0.00722043)
(0.0321736 0.0574346 -0.0140509)
(0.0290171 0.06279 0.00656171)
(0.0284618 0.0616301 -0.000459886)
(0.0279773 0.060621 -0.00721857)
(0.0275513 0.0597415 -0.0140445)
(0.0239824 0.0648339 0.00655542)
(0.0235213 0.063633 -0.000461619)
(0.0231191 0.0625888 -0.00721633)
(0.0227654 0.0616789 -0.014038)
(0.0188012 0.0664832 0.00655101)
(0.0184393 0.0652486 -0.000462111)
(0.0181238 0.0641753 -0.00721341)
(0.0178464 0.0632401 -0.0140313)
(0.0135063 0.0677306 0.00654966)
(0.0132474 0.0664702 -0.000460477)
(0.0130218 0.0653747 -0.00720923)
(0.0128239 0.0644201 -0.0140244)
(0.00813005 0.0685696 0.00655255)
(0.00797717 0.0672927 -0.000455646)
(0.00784337 0.0661824 -0.00720288)
(0.00772707 0.0652143 -0.0140168)
(0.00270754 0.0689991 0.00656036)
(0.00266141 0.0677144 -0.000446729)
(0.00261854 0.0665973 -0.00719294)
(0.00258389 0.0656227 -0.0140066)
(0.0885078 0.003479 0.00360708)
(0.0870285 0.00342505 -0.00297007)
(0.0855988 0.00337033 -0.00923412)
(0.084195 0.00332123 -0.0156142)
(0.0879617 0.0104344 0.00359781)
(0.0864899 0.0102571 -0.00298013)
(0.0850673 0.0100857 -0.00924483)
(0.083671 0.00991876 -0.0156248)
(0.0868883 0.0173304 0.00359463)
(0.0854356 0.0170306 -0.00298457)