/*--------------------------------*- C++ -*----------------------------------*\
| =========                 |                                                 |
| \\      /  F ield         | foam-extend: Open Source CFD                    |
|  \\    /   O peration     | Version:     3.1                                |
|   \\  /    A nd           | Web:         http://www.extend-project.de       |
|    \\/     M anipulation  |                                                 |
\*---------------------------------------------------------------------------*/
FoamFile
{
    version     2.0;
    format      ascii;
    class       volVectorField;
    location    "0.0012";
    object      cellMotionU;
}
// * * * * * * * * * * * * * * * * * * * * * * * * * * * * * * * * * * * * * //

dimensions      [0 1 -1 0 0 0 0];

internalField   nonuniform List<vector> 
16000
(
(-6.47216e-10 8.42849e-10 -6.78685e-09)
(-1.96666e-09 7.60865e-10 -6.8575e-09)
(-3.3463e-09 6.33861e-10 -6.98898e-09)
(-4.85827e-09 4.76475e-10 -7.16683e-09)
(-6.55311e-09 2.92196e-10 -7.37025e-09)
(-8.43678e-09 8.28865e-11 -7.56662e-09)
(-1.04404e-08 -1.57087e-10 -7.70355e-09)
(-1.23707e-08 -4.39089e-10 -7.6963e-09)
(-1.382e-08 -7.81662e-10 -7.40578e-09)
(-1.40166e-08 -1.21058e-09 -6.59872e-09)
(-6.18867e-10 2.51713e-09 -6.78778e-09)
(-1.90543e-09 2.30341e-09 -6.85189e-09)
(-3.28555e-09 1.92812e-09 -6.97283e-09)
(-4.81283e-09 1.45044e-09 -7.13628e-09)
(-6.54654e-09 8.9431e-10 -7.32237e-09)
(-8.51729e-09 2.63097e-10 -7.50152e-09)
(-1.0697e-08 -4.56356e-10 -7.62668e-09)
(-1.29801e-08 -1.30084e-09 -7.62593e-09)
(-1.51232e-08 -2.3199e-09 -7.39307e-09)
(-1.67334e-08 -3.57398e-09 -6.77959e-09)
(-5.88913e-10 4.16951e-09 -6.7802e-09)
(-1.81888e-09 3.84799e-09 -6.83243e-09)
(-3.17174e-09 3.24811e-09 -6.93235e-09)
(-4.71551e-09 2.44542e-09 -7.06896e-09)
(-6.50641e-09 1.51538e-09 -7.22283e-09)
(-8.61177e-09 4.74795e-10 -7.36823e-09)
(-1.10822e-08 -7.00527e-10 -7.46814e-09)
(-1.3923e-08 -2.06529e-09 -7.46965e-09)
(-1.71052e-08 -3.70065e-09 -7.3063e-09)
(-2.0626e-08 -5.70412e-09 -6.91318e-09)
(-5.55775e-10 5.8702e-09 -6.74212e-09)
(-1.72824e-09 5.41814e-09 -6.78035e-09)
(-3.03337e-09 4.58248e-09 -6.8531e-09)
(-4.56056e-09 3.45314e-09 -6.95223e-09)
(-6.39821e-09 2.13762e-09 -7.06298e-09)
(-8.63373e-09 7.01937e-10 -7.16233e-09)
(-1.13834e-08 -8.74182e-10 -7.22153e-09)
(-1.47781e-08 -2.67324e-09 -7.20731e-09)
(-1.89546e-08 -4.80831e-09 -7.08678e-09)
(-2.41518e-08 -7.42023e-09 -6.84863e-09)
(-5.27025e-10 7.69824e-09 -6.63643e-09)
(-1.64497e-09 7.07849e-09 -6.66117e-09)
(-2.90147e-09 5.93048e-09 -6.70812e-09)
(-4.38147e-09 4.42215e-09 -6.76785e-09)
(-6.2024e-09 2.70623e-09 -6.82832e-09)
(-8.50113e-09 8.85134e-10 -6.87324e-09)
(-1.14333e-08 -1.03172e-09 -6.87963e-09)
(-1.51985e-08 -3.14167e-09 -6.82642e-09)
(-2.00537e-08 -5.60717e-09 -6.70594e-09)
(-2.63395e-08 -8.61592e-09 -6.53773e-09)
(-5.12124e-10 9.76973e-09 -6.40374e-09)
(-1.5954e-09 8.9013e-09 -6.42139e-09)
(-2.80728e-09 7.31165e-09 -6.4523e-09)
(-4.22761e-09 5.28251e-09 -6.48268e-09)
(-5.9683e-09 3.09005e-09 -6.49735e-09)
(-8.20518e-09 8.86986e-10 -6.48277e-09)
(-1.11543e-08 -1.30633e-09 -6.42744e-09)
(-1.50305e-08 -3.587e-09 -6.31815e-09)
(-2.01198e-08 -6.1722e-09 -6.15444e-09)
(-2.68008e-08 -9.30526e-09 -5.97935e-09)
(-5.22826e-10 1.2275e-08 -5.95056e-09)
(-1.6186e-09 1.10003e-08 -5.97895e-09)
(-2.81643e-09 8.72838e-09 -6.01986e-09)
(-4.17712e-09 5.93511e-09 -6.04806e-09)
(-5.8035e-09 3.08735e-09 -6.03721e-09)
(-7.85841e-09 4.58534e-10 -5.97206e-09)
(-1.05964e-08 -1.93169e-09 -5.84726e-09)
(-1.43132e-08 -4.23635e-09 -5.66648e-09)
(-1.92108e-08 -6.70752e-09 -5.43195e-09)
(-2.56274e-08 -9.65789e-09 -5.19144e-09)
(-5.75637e-10 1.5545e-08 -5.12965e-09)
(-1.76749e-09 1.35664e-08 -5.20982e-09)
(-3.0143e-09 1.01691e-08 -5.32319e-09)
(-4.34665e-09 6.20355e-09 -5.40534e-09)
(-5.84744e-09 2.42303e-09 -5.41059e-09)
(-7.66905e-09 -7.52822e-10 -5.31943e-09)
(-1.00379e-08 -3.28279e-09 -5.13354e-09)
(-1.32902e-08 -5.42401e-09 -4.86775e-09)
(-1.76365e-08 -7.51264e-09 -4.55513e-09)
(-2.33018e-08 -9.99187e-09 -4.21658e-09)
(-6.92687e-10 2.01598e-08 -3.70737e-09)
(-2.10026e-09 1.68962e-08 -3.93898e-09)
(-3.50102e-09 1.15761e-08 -4.25633e-09)
(-4.87846e-09 5.78241e-09 -4.50073e-09)
(-6.28444e-09 6.79442e-10 -4.59056e-09)
(-7.85481e-09 -3.18311e-09 -4.50943e-09)
(-9.81122e-09 -5.8008e-09 -4.28016e-09)
(-1.24358e-08 -7.5557e-09 -3.94285e-09)
(-1.59791e-08 -8.98213e-09 -3.5565e-09)
(-2.06122e-08 -1.0729e-08 -3.12613e-09)
(-8.98819e-10 2.71829e-08 -1.29804e-09)
(-2.68362e-09 2.13767e-08 -1.93238e-09)
(-4.38157e-09 1.27381e-08 -2.71957e-09)
(-5.92414e-09 4.13667e-09 -3.31117e-09)
(-7.31393e-09 -2.76117e-09 -3.58678e-09)
(-8.65922e-09 -7.39295e-09 -3.5593e-09)
(-1.01892e-08 -9.94957e-09 -3.29928e-09)
(-1.22106e-08 -1.10528e-08 -2.8988e-09)
(-1.49917e-08 -1.15329e-08 -2.45789e-09)
(-1.85563e-08 -1.22212e-08 -2.03652e-09)
(-1.73691e-09 2.5548e-09 -1.99516e-08)
(-5.2832e-09 2.32329e-09 -2.01892e-08)
(-9.01163e-09 1.9694e-09 -2.06407e-08)
(-1.31296e-08 1.53555e-09 -2.12744e-08)
(-1.77911e-08 1.03006e-09 -2.20495e-08)
(-2.30359e-08 4.57867e-10 -2.29036e-08)
(-2.87102e-08 -1.97936e-10 -2.37366e-08)
(-3.4337e-08 -9.70375e-10 -2.43875e-08)
(-3.88765e-08 -1.91167e-09 -2.45964e-08)
(-4.03321e-08 -3.09469e-09 -2.39447e-08)
(-1.64977e-09 7.63196e-09 -2.00141e-08)
(-5.08557e-09 7.03548e-09 -2.023e-08)
(-8.79117e-09 5.9951e-09 -2.06454e-08)
(-1.2923e-08 4.68147e-09 -2.12295e-08)
(-1.76555e-08 3.16078e-09 -2.19426e-08)
(-2.30911e-08 1.43954e-09 -2.27263e-08)
(-2.91786e-08 -5.21309e-10 -2.34854e-08)
(-3.56614e-08 -2.82656e-09 -2.40737e-08)
(-4.19102e-08 -5.61976e-09 -2.42705e-08)
(-4.6866e-08 -9.07332e-09 -2.37588e-08)
(-1.54962e-09 1.26419e-08 -2.01175e-08)
(-4.79097e-09 1.17573e-08 -2.02936e-08)
(-8.3763e-09 1.01101e-08 -2.06382e-08)
(-1.24984e-08 7.91395e-09 -2.11291e-08)
(-1.73196e-08 5.38238e-09 -2.17261e-08)
(-2.30344e-08 2.56003e-09 -2.23753e-08)
(-2.97946e-08 -6.24746e-10 -2.2996e-08)
(-3.76238e-08 -4.32884e-09 -2.34631e-08)
(-4.6435e-08 -8.78635e-09 -2.36048e-08)
(-5.61644e-08 -1.42788e-08 -2.3217e-08)
(-1.43369e-09 1.77949e-08 -2.02126e-08)
(-4.46344e-09 1.6561e-08 -2.03401e-08)
(-7.85374e-09 1.42872e-08 -2.05906e-08)
(-1.18529e-08 1.12208e-08 -2.09507e-08)
(-1.67071e-08 7.66188e-09 -2.13919e-08)
(-2.2659e-08 3.79496e-09 -2.18624e-08)
(-3.00273e-08 -4.38662e-10 -2.22906e-08)
(-3.91648e-08 -5.27677e-09 -2.25817e-08)
(-5.04176e-08 -1.10438e-08 -2.26125e-08)
(-6.43629e-08 -1.81454e-08 -2.22604e-08)
(-1.32506e-09 2.3316e-08 -2.02209e-08)
(-4.13959e-09 2.16358e-08 -2.02966e-08)
(-7.3192e-09 1.853e-08 -2.04472e-08)
(-1.10943e-08 1.44648e-08 -2.06607e-08)
(-1.57865e-08 9.86017e-09 -2.09172e-08)
(-2.17704e-08 4.99792e-09 -2.11804e-08)
(-2.94652e-08 -9.31225e-11 -2.13866e-08)
(-3.94028e-08 -5.68739e-09 -2.14571e-08)
(-5.22616e-08 -1.22516e-08 -2.13158e-08)
(-6.89116e-08 -2.0322e-08 -2.08989e-08)
(-1.25075e-09 2.95294e-08 -2.00193e-08)
(-3.89757e-09 2.71846e-08 -2.00504e-08)
(-6.86754e-09 2.29019e-08 -2.01113e-08)
(-1.03712e-08 1.74609e-08 -2.01879e-08)
(-1.4711e-08 1.16223e-08 -2.02587e-08)
(-2.03636e-08 5.80684e-09 -2.02965e-08)
(-2.79167e-08 6.70329e-11 -2.02629e-08)
(-3.79446e-08 -5.86413e-09 -2.00924e-08)
(-5.12019e-08 -1.2589e-08 -1.97181e-08)
(-6.86981e-08 -2.08104e-08 -1.91348e-08)
(-1.24524e-09 3.69557e-08 -1.94169e-08)
(-3.84963e-09 3.35204e-08 -1.94301e-08)
(-6.68643e-09 2.74146e-08 -1.94405e-08)
(-9.90779e-09 1.99459e-08 -1.94206e-08)
(-1.37859e-08 1.24027e-08 -1.93366e-08)
(-1.8762e-08 5.5403e-09 -1.91621e-08)
(-2.5527e-08 -5.87413e-10 -1.88722e-08)
(-3.48861e-08 -6.40979e-09 -1.8439e-08)
(-4.73713e-08 -1.26104e-08 -1.77998e-08)
(-6.38959e-08 -2.00764e-08 -1.69617e-08)
(-1.35573e-09 4.64991e-08 -1.81206e-08)
(-4.14544e-09 4.1169e-08 -1.81811e-08)
(-7.01875e-09 3.20402e-08 -1.8241e-08)
(-1.00351e-08 2.14438e-08 -1.82154e-08)
(-1.34053e-08 1.14547e-08 -1.80456e-08)
(-1.75419e-08 3.23562e-09 -1.77025e-08)
(-2.30654e-08 -3.0951e-09 -1.71754e-08)
(-3.08913e-08 -8.24635e-09 -1.64564e-08)
(-4.16175e-08 -1.31698e-08 -1.55572e-08)
(-5.58137e-08 -1.90526e-08 -1.44174e-08)
(-1.64417e-09 5.97469e-08 -1.56802e-08)
(-4.95183e-09 5.09478e-08 -1.59494e-08)
(-8.14898e-09 3.66336e-08 -1.6273e-08)
(-1.11548e-08 2.11313e-08 -1.64214e-08)
(-1.40863e-08 7.64558e-09 -1.6282e-08)
(-1.73064e-08 -2.28986e-09 -1.58334e-08)
(-2.14339e-08 -8.65516e-09 -1.51048e-08)
(-2.72697e-08 -1.25169e-08 -1.41393e-08)
(-3.55486e-08 -1.53939e-08 -1.30054e-08)
(-4.66696e-08 -1.90031e-08 -1.16025e-08)
(-2.18014e-09 7.96235e-08 -1.13869e-08)
(-6.45653e-09 6.39456e-08 -1.22715e-08)
(-1.03749e-08 4.06584e-08 -1.32925e-08)
(-1.36943e-08 1.75814e-08 -1.39226e-08)
(-1.63835e-08 -6.87504e-10 -1.3988e-08)
(-1.87267e-08 -1.25513e-08 -1.35126e-08)
(-2.13753e-08 -1.85159e-08 -1.2606e-08)
(-2.52394e-08 -2.03352e-08 -1.14145e-08)
(-3.11669e-08 -2.03966e-08 -1.00991e-08)
(-3.92944e-08 -2.10416e-08 -8.71791e-09)
(-2.32944e-09 4.33115e-09 -3.20021e-08)
(-7.10424e-09 3.98387e-09 -3.24576e-08)
(-1.21823e-08 3.46753e-09 -3.33423e-08)
(-1.78858e-08 2.84739e-09 -3.46344e-08)
(-2.44788e-08 2.13144e-09 -3.63196e-08)
(-3.20919e-08 1.32641e-09 -3.83807e-08)
(-4.06299e-08 4.03882e-10 -4.07885e-08)
(-4.96188e-08 -6.87486e-10 -4.34982e-08)
(-5.79255e-08 -2.02474e-09 -4.64445e-08)
(-6.33292e-08 -3.71621e-09 -4.95708e-08)
(-2.17999e-09 1.29391e-08 -3.22566e-08)
(-6.73915e-09 1.20673e-08 -3.26727e-08)
(-1.17154e-08 1.05642e-08 -3.349e-08)
(-1.7357e-08 8.69569e-09 -3.46882e-08)
(-2.39469e-08 6.55592e-09 -3.62522e-08)
(-3.16897e-08 4.1459e-09 -3.81604e-08)
(-4.06028e-08 1.40265e-09 -4.03696e-08)
(-5.04559e-08 -1.83227e-09 -4.28119e-08)
(-6.0547e-08 -5.78214e-09 -4.53678e-08)
(-6.95908e-08 -1.0708e-08 -4.78456e-08)
(-1.98579e-09 2.14328e-08 -3.27442e-08)
(-6.1578e-09 2.01746e-08 -3.30875e-08)
(-1.08322e-08 1.7841e-08 -3.37749e-08)
(-1.63024e-08 1.47479e-08 -3.47959e-08)
(-2.28212e-08 1.12184e-08 -3.61314e-08)
(-3.06971e-08 7.30962e-09 -3.77534e-08)
(-4.01918e-08 2.90569e-09 -3.96118e-08)
(-5.13875e-08 -2.23448e-09 -4.16007e-08)
(-6.41827e-08 -8.47168e-09 -4.35438e-08)
(-7.83947e-08 -1.62417e-08 -4.5168e-08)
(-1.74987e-09 3.0153e-08 -3.34237e-08)
(-5.4662e-09 2.84278e-08 -3.36748e-08)
(-9.68257e-09 2.52647e-08 -3.41839e-08)
(-1.47573e-08 2.10148e-08 -3.49559e-08)
(-2.10503e-08 1.61151e-08 -3.5985e-08)
(-2.8916e-08 1.0836e-08 -3.72352e-08)
(-3.88104e-08 5.08434e-09 -3.8642e-08)
(-5.12265e-08 -1.50687e-09 -4.00939e-08)
(-6.659e-08 -9.43643e-09 -4.1394e-08)
(-8.5519e-08 -1.93294e-08 -4.2258e-08)
(-1.51028e-09 3.94385e-08 -3.42411e-08)
(-4.73463e-09 3.71224e-08 -3.43848e-08)
(-8.43256e-09 3.28552e-08 -3.46856e-08)
(-1.29227e-08 2.73081e-08 -3.51626e-08)
(-1.86577e-08 2.10763e-08 -3.58249e-08)
(-2.61679e-08 1.45584e-08 -3.66538e-08)
(-3.60278e-08 7.80295e-09 -3.75799e-08)
(-4.89517e-08 4.01029e-10 -3.84822e-08)
(-6.58328e-08 -8.36711e-09 -3.91905e-08)
(-8.77359e-08 -1.93218e-08 -3.94633e-08)
(-1.31046e-09 4.97472e-08 -3.51166e-08)
(-4.092e-09 4.6545e-08 -3.51402e-08)
(-7.24767e-09 4.07164e-08 -3.5211e-08)
(-1.10514e-08 3.33756e-08 -3.53679e-08)
(-1.59192e-08 2.56044e-08 -3.56355e-08)
(-2.25109e-08 1.79988e-08 -3.60135e-08)
(-3.16453e-08 1.0623e-08 -3.64564e-08)
(-4.41011e-08 3.09578e-09 -3.68471e-08)
(-6.08697e-08 -5.45517e-09 -3.70195e-08)
(-8.33208e-08 -1.61339e-08 -3.68135e-08)
(-1.20573e-09 6.17838e-08 -3.59324e-08)
(-3.71404e-09 5.71162e-08 -3.58257e-08)
(-6.41858e-09 4.88597e-08 -3.56536e-08)
(-9.49407e-09 3.88556e-08 -3.54759e-08)
(-1.33006e-08 2.89384e-08 -3.53436e-08)
(-1.84495e-08 2.01868e-08 -3.52702e-08)
(-2.59012e-08 1.26753e-08 -3.52265e-08)
(-3.67847e-08 5.76912e-09 -3.51338e-08)
(-5.18121e-08 -1.48629e-09 -3.48306e-08)
(-7.22664e-08 -1.04418e-08 -3.41873e-08)
(-1.26913e-09 7.67505e-08 -3.65221e-08)
(-3.82711e-09 6.95327e-08 -3.62779e-08)
(-6.31664e-09 5.72204e-08 -3.58545e-08)
(-8.75551e-09 4.30711e-08 -3.53416e-08)
(-1.14007e-08 3.00246e-08 -3.48176e-08)
(-1.48233e-08 1.97547e-08 -3.43156e-08)
(-1.99082e-08 1.24446e-08 -3.38149e-08)
(-2.79419e-08 7.07924e-09 -3.32497e-08)
(-3.98512e-08 2.22207e-09 -3.25312e-08)
(-5.63627e-08 -3.75541e-09 -3.14754e-08)
(-1.59213e-09 9.67414e-08 -3.66578e-08)
(-4.68837e-09 8.48586e-08 -3.62741e-08)
(-7.37514e-09 6.55668e-08 -3.56019e-08)
(-9.4427e-09 4.4859e-08 -3.47728e-08)
(-1.09918e-08 2.72702e-08 -3.38876e-08)
(-1.25179e-08 1.50401e-08 -3.29905e-08)
(-1.49362e-08 8.23074e-09 -3.20772e-08)
(-1.94655e-08 5.29179e-09 -3.11059e-08)
(-2.73066e-08 3.91624e-09 -3.00329e-08)
(-3.88906e-08 1.8151e-09 -2.86393e-08)
(-2.27761e-09 1.25606e-07 -3.60502e-08)
(-6.58016e-09 1.04515e-07 -3.55354e-08)
(-1.00487e-08 7.31584e-08 -3.46415e-08)
(-1.21998e-08 4.22624e-08 -3.3546e-08)
(-1.28953e-08 1.83686e-08 -3.23635e-08)
(-1.25145e-08 3.91699e-09 -3.11311e-08)
(-1.20516e-08 -1.71431e-09 -2.98489e-08)
(-1.30002e-08 -1.11895e-09 -2.85254e-08)
(-1.68819e-08 2.03538e-09 -2.71838e-08)
(-2.41179e-08 4.25839e-09 -2.57598e-08)
(-2.31335e-09 6.0509e-09 -4.15401e-08)
(-7.09072e-09 5.63175e-09 -4.22317e-08)
(-1.2278e-08 5.03254e-09 -4.35964e-08)
(-1.82755e-08 4.33405e-09 -4.5642e-08)
(-2.54498e-08 3.53856e-09 -4.84129e-08)
(-3.40707e-08 2.65249e-09 -5.19863e-08)
(-4.42465e-08 1.6367e-09 -5.64767e-08)
(-5.58183e-08 4.26137e-10 -6.20614e-08)
(-6.81732e-08 -1.06955e-09 -6.90238e-08)
(-8.00431e-08 -2.97835e-09 -7.78942e-08)
(-2.10459e-09 1.80786e-08 -4.20937e-08)
(-6.54282e-09 1.70645e-08 -4.27302e-08)
(-1.14982e-08 1.53447e-08 -4.39984e-08)
(-1.72876e-08 1.32554e-08 -4.59092e-08)
(-2.42816e-08 1.09009e-08 -4.85035e-08)
(-3.28064e-08 8.26743e-09 -5.18422e-08)
(-4.30376e-08 5.2711e-09 -5.59996e-08)
(-5.49622e-08 1.71852e-09 -6.1081e-08)
(-6.81683e-08 -2.67145e-09 -6.71897e-08)
(-8.1693e-08 -8.21506e-09 -7.44107e-08)
(-1.80099e-09 2.99527e-08 -4.31869e-08)
(-5.62193e-09 2.85465e-08 -4.37213e-08)
(-1.00194e-08 2.59531e-08 -4.48071e-08)
(-1.53506e-08 2.2545e-08 -4.64635e-08)
(-2.19323e-08 1.87148e-08 -4.87238e-08)
(-3.01599e-08 1.45139e-08 -5.16284e-08)
(-4.04037e-08 9.78718e-09 -5.52144e-08)
(-5.28469e-08 4.23413e-09 -5.94683e-08)
(-6.74369e-08 -2.59618e-09 -6.42968e-08)
(-8.38555e-08 -1.12483e-08 -6.94492e-08)
(-1.4191e-09 4.21278e-08 -4.48096e-08)
(-4.47223e-09 4.02492e-08 -4.52118e-08)
(-8.05646e-09 3.68314e-08 -4.6043e-08)
(-1.25771e-08 3.22628e-08 -4.73435e-08)
(-1.84496e-08 2.70473e-08 -4.91587e-08)
(-2.60857e-08 2.1498e-08 -5.15082e-08)
(-3.59991e-08 1.54924e-08 -5.43846e-08)
(-4.873e-08 8.56793e-09 -5.77179e-08)
(-6.46547e-08 1.01855e-10 -6.12997e-08)
(-8.41397e-08 -1.06849e-08 -6.47478e-08)
(-1.01046e-09 5.50159e-08 -4.69737e-08)
(-3.20586e-09 5.25486e-08 -4.72149e-08)
(-5.84796e-09 4.80257e-08 -4.77326e-08)
(-9.27609e-09 4.22078e-08 -4.85996e-08)
(-1.39854e-08 3.57523e-08 -4.9882e-08)
(-2.0565e-08 2.90981e-08 -5.16142e-08)
(-2.96224e-08 2.23087e-08 -5.37695e-08)
(-4.18937e-08 1.48896e-08 -5.62357e-08)
(-5.82676e-08 5.93665e-09 -5.88002e-08)
(-7.96643e-08 -5.56883e-09 -6.11009e-08)
(-6.3311e-10 6.912e-08 -4.97076e-08)
(-1.99924e-09 6.57585e-08 -4.97474e-08)
(-3.63589e-09 5.96718e-08 -4.98866e-08)
(-5.80624e-09 5.21102e-08 -5.0249e-08)
(-8.95266e-09 4.42776e-08 -5.09406e-08)
(-1.37841e-08 3.68317e-08 -5.20258e-08)
(-2.11928e-08 2.982e-08 -5.34912e-08)
(-3.19992e-08 2.28079e-08 -5.52184e-08)
(-4.7199e-08 1.47812e-08 -5.70042e-08)
(-6.82408e-08 4.31978e-09 -5.85853e-08)
(-3.60303e-10 8.51526e-08 -5.30611e-08)
(-1.07851e-09 8.02936e-08 -5.28339e-08)
(-1.78937e-09 7.17609e-08 -5.2506e-08)
(-2.62032e-09 6.15746e-08 -5.22698e-08)
(-3.93306e-09 5.1783e-08 -5.23152e-08)
(-6.39146e-09 4.35937e-08 -5.27385e-08)
(-1.10406e-08 3.70786e-08 -5.35442e-08)
(-1.91335e-08 3.1478e-08 -5.46432e-08)
(-3.14322e-08 2.57385e-08 -5.58408e-08)
(-4.93895e-08 1.81789e-08 -5.69348e-08)
(-2.84522e-10 1.04281e-07 -5.71272e-08)
(-7.22225e-10 9.68139e-08 -5.6518e-08)
(-7.71941e-10 8.4151e-08 -5.55507e-08)
(-3.47254e-10 6.98194e-08 -5.45797e-08)
(3.28665e-10 5.70778e-08 -5.38984e-08)
(6.31695e-10 4.78273e-08 -5.36531e-08)
(-4.47167e-10 4.22932e-08 -5.38451e-08)
(-4.34484e-09 3.93147e-08 -5.43867e-08)
(-1.22619e-08 3.71352e-08 -5.51086e-08)
(-2.49461e-08 3.3992e-08 -5.58265e-08)
(-5.14758e-10 1.28486e-07 -6.20799e-08)
(-1.25457e-09 1.16276e-07 -6.08449e-08)
(-1.12256e-09 9.64882e-08 -5.89263e-08)
(2.65094e-10 7.55132e-08 -5.70011e-08)
(2.89382e-09 5.83703e-08 -5.55009e-08)
(6.22787e-09 4.76617e-08 -5.45856e-08)
(9.16683e-09 4.35179e-08 -5.42242e-08)
(1.01905e-08 4.41475e-08 -5.42885e-08)
(7.66497e-09 4.67161e-08 -5.46091e-08)
(1.24693e-09 4.88617e-08 -5.50066e-08)
(-1.17414e-09 1.61373e-07 -6.82911e-08)
(-3.0215e-09 1.39926e-07 -6.5865e-08)
(-3.40946e-09 1.07898e-07 -6.24393e-08)
(-1.57631e-09 7.65245e-08 -5.92415e-08)
(2.77054e-09 5.31149e-08 -5.68353e-08)
(9.22893e-09 4.07005e-08 -5.52968e-08)
(1.65539e-08 3.87722e-08 -5.4473e-08)
(2.27271e-08 4.42816e-08 -5.41647e-08)
(2.5513e-08 5.26888e-08 -5.41828e-08)
(2.40366e-08 5.98135e-08 -5.43457e-08)
(-1.78729e-09 7.44092e-09 -4.67617e-08)
(-5.53071e-09 6.99478e-09 -4.76275e-08)
(-9.74963e-09 6.38593e-09 -4.93506e-08)
(-1.48674e-08 5.7026e-09 -5.19687e-08)
(-2.13106e-08 4.93783e-09 -5.55798e-08)
(-2.94731e-08 4.09618e-09 -6.03438e-08)
(-3.96968e-08 3.1299e-09 -6.64923e-08)
(-5.22472e-08 1.96626e-09 -7.43713e-08)
(-6.72841e-08 5.13669e-10 -8.45017e-08)
(-8.50094e-08 -1.35739e-09 -9.77693e-08)
(-1.53394e-09 2.22402e-08 -4.76217e-08)
(-4.82506e-09 2.12066e-08 -4.84244e-08)
(-8.66702e-09 1.9489e-08 -5.00357e-08)
(-1.34043e-08 1.74632e-08 -5.24985e-08)
(-1.94471e-08 1.52281e-08 -5.5906e-08)
(-2.721e-08 1.27496e-08 -6.03925e-08)
(-3.70276e-08 9.92849e-09 -6.61332e-08)
(-4.91464e-08 6.55672e-09 -7.33711e-08)
(-6.35676e-08 2.32448e-09 -8.23677e-08)
(-7.98556e-08 -3.09723e-09 -9.33755e-08)
(-1.13103e-09 3.68773e-08 -4.93315e-08)
(-3.59217e-09 3.55142e-08 -5.00184e-08)
(-6.61368e-09 3.30184e-08 -5.14236e-08)
(-1.05668e-08 2.97742e-08 -5.35944e-08)
(-1.57875e-08 2.62025e-08 -5.66164e-08)
(-2.27007e-08 2.2335e-08 -6.05946e-08)
(-3.17316e-08 1.79864e-08 -6.56473e-08)
(-4.31281e-08 1.28253e-08 -7.18453e-08)
(-5.68525e-08 6.35714e-09 -7.9168e-08)
(-7.23587e-08 -2.00829e-09 -8.73821e-08)
(-6.13195e-10 5.19034e-08 -5.19083e-08)
(-2.00577e-09 5.01427e-08 -5.24441e-08)
(-3.86079e-09 4.69725e-08 -5.35603e-08)
(-6.56497e-09 4.27633e-08 -5.53275e-08)
(-1.05248e-08 3.80217e-08 -5.78403e-08)
(-1.61427e-08 3.30643e-08 -6.11763e-08)
(-2.38961e-08 2.77452e-08 -6.53911e-08)
(-3.42572e-08 2.15465e-08 -7.04677e-08)
(-4.74163e-08 1.37826e-08 -7.62109e-08)
(-6.32476e-08 3.60576e-09 -8.21901e-08)
(-4.24609e-11 6.7778e-08 -5.54223e-08)
(-2.20962e-10 6.55307e-08 -5.57714e-08)
(-7.11108e-10 6.14389e-08 -5.65218e-08)
(-1.81214e-09 5.62541e-08 -5.77924e-08)
(-3.97904e-09 5.06031e-08 -5.96999e-08)
(-7.76541e-09 4.49006e-08 -6.23325e-08)
(-1.37025e-08 3.9217e-08 -6.57211e-08)
(-2.24033e-08 3.30186e-08 -6.97888e-08)
(-3.45592e-08 2.5299e-08 -7.43179e-08)
(-5.06821e-08 1.49461e-08 -7.8889e-08)
(5.11984e-10 8.49987e-08 -5.99959e-08)
(1.54716e-09 8.19922e-08 -6.00989e-08)
(2.52181e-09 7.65871e-08 -6.0391e-08)
(3.24103e-09 7.00073e-08 -6.10646e-08)
(3.3094e-09 6.34161e-08 -6.22942e-08)
(2.08336e-09 5.74381e-08 -6.42062e-08)
(-1.26539e-09 5.20826e-08 -6.68315e-08)
(-7.46797e-09 4.69101e-08 -7.00843e-08)
(-1.73435e-08 4.08773e-08 -7.37739e-08)
(-3.21772e-08 3.23675e-08 -7.75831e-08)
(9.63595e-10 1.04189e-07 -6.5816e-08)
(3.03913e-09 9.98816e-08 -6.55681e-08)
(5.42036e-09 9.23972e-08 -6.52633e-08)
(8.07194e-09 8.3657e-08 -6.51929e-08)
(1.06941e-08 7.5655e-08 -6.56584e-08)
(1.26657e-08 6.95668e-08 -6.68292e-08)
(1.30076e-08 6.54391e-08 -6.8756e-08)
(1.05113e-08 6.24578e-08 -7.13677e-08)
(4.45437e-09 5.96055e-08 -7.44899e-08)
(-6.6079e-09 5.50187e-08 -7.78897e-08)
(1.20826e-09 1.26297e-07 -7.31731e-08)
(3.95067e-09 1.1972e-07 -7.23855e-08)
(7.47016e-09 1.08658e-07 -7.11969e-08)
(1.19837e-08 9.64158e-08 -7.01553e-08)
(1.73506e-08 8.61398e-08 -6.97175e-08)
(2.29738e-08 7.97209e-08 -7.01239e-08)
(2.78362e-08 7.73977e-08 -7.14086e-08)
(3.05301e-08 7.79892e-08 -7.34952e-08)
(2.96591e-08 7.95865e-08 -7.61656e-08)
(2.45287e-08 8.05194e-08 -7.92946e-08)
(1.13169e-09 1.52853e-07 -8.25159e-08)
(3.91973e-09 1.42184e-07 -8.07806e-08)
(8.07757e-09 1.24924e-07 -7.81821e-08)
(1.41604e-08 1.06948e-07 -7.57906e-08)
(2.22677e-08 9.30994e-08 -7.42812e-08)
(3.18876e-08 8.60419e-08 -7.39053e-08)
(4.18362e-08 8.59738e-08 -7.462e-08)
(5.04189e-08 9.10676e-08 -7.62429e-08)
(5.56636e-08 9.82327e-08 -7.85054e-08)
(5.7348e-08 1.05377e-07 -8.13399e-08)
(6.04414e-10 1.86579e-07 -9.46195e-08)
(2.5737e-09 1.68103e-07 -9.09917e-08)
(6.61619e-09 1.40296e-07 -8.60484e-08)
(1.37396e-08 1.13238e-07 -8.17541e-08)
(2.43871e-08 9.40723e-08 -7.89981e-08)
(3.8176e-08 8.61376e-08 -7.78913e-08)
(5.37102e-08 8.9167e-08 -7.81661e-08)
(6.85783e-08 1.00003e-07 -7.9454e-08)
(7.99386e-08 1.13684e-07 -8.13795e-08)
(8.64234e-08 1.25795e-07 -8.36759e-08)
(-1.00836e-09 8.14186e-09 -4.60739e-08)
(-3.19058e-09 7.71045e-09 -4.69641e-08)
(-5.85105e-09 7.14901e-09 -4.87429e-08)
(-9.37556e-09 6.54462e-09 -5.14627e-08)
(-1.41831e-08 5.88134e-09 -5.52419e-08)
(-2.07148e-08 5.16078e-09 -6.02682e-08)
(-2.94536e-08 4.33011e-09 -6.68072e-08)
(-4.09672e-08 3.31518e-09 -7.52414e-08)
(-5.60209e-08 2.03208e-09 -8.61219e-08)
(-7.60269e-08 3.64496e-10 -1.00339e-07)
(-7.35935e-10 2.43554e-08 -4.71289e-08)
(-2.39541e-09 2.3399e-08 -4.79606e-08)
(-4.56625e-09 2.18427e-08 -4.96339e-08)
(-7.57056e-09 2.00674e-08 -5.22088e-08)
(-1.17924e-08 1.81562e-08 -5.57998e-08)
(-1.76583e-08 1.60562e-08 -6.05666e-08)
(-2.55723e-08 1.36591e-08 -6.67174e-08)
(-3.59241e-08 1.07595e-08 -7.4533e-08)
(-4.89881e-08 7.04811e-09 -8.43009e-08)
(-6.46901e-08 2.22027e-09 -9.62788e-08)
(-2.72631e-10 4.04555e-08 -4.92225e-08)
(-9.69764e-10 3.926e-08 -4.9948e-08)
(-2.13423e-09 3.70878e-08 -5.14343e-08)
(-4.09908e-09 3.42993e-08 -5.37398e-08)
(-7.16605e-09 3.13051e-08 -5.69748e-08)
(-1.17156e-08 2.81115e-08 -6.12705e-08)
(-1.81342e-08 2.45155e-08 -6.6777e-08)
(-2.66333e-08 2.01804e-08 -7.35984e-08)
(-3.70768e-08 1.46118e-08 -8.17405e-08)
(-4.8577e-08 7.2352e-09 -9.0979e-08)
(3.2959e-10 5.70678e-08 -5.23761e-08)
(8.96731e-10 5.55783e-08 -5.2964e-08)
(1.13759e-09 5.29298e-08 -5.41893e-08)
(7.38142e-10 4.94422e-08 -5.61307e-08)
(-6.41358e-10 4.55797e-08 -5.89019e-08)
(-3.33163e-09 4.16322e-08 -6.26095e-08)
(-7.68906e-09 3.74368e-08 -6.7343e-08)
(-1.4012e-08 3.24583e-08 -7.3117e-08)
(-2.22048e-08 2.60047e-08 -7.97614e-08)
(-3.15508e-08 1.72388e-08 -8.68601e-08)
(1.003e-09 7.46917e-08 -5.66768e-08)
(3.01503e-09 7.28462e-08 -5.7095e-08)
(4.90413e-09 6.95137e-08 -5.79854e-08)
(6.45317e-09 6.53767e-08 -5.94792e-08)
(7.30574e-09 6.09789e-08 -6.17073e-08)
(7.01386e-09 5.66729e-08 -6.47811e-08)
(5.19346e-09 5.25217e-08 -6.87712e-08)
(1.44469e-09 4.79871e-08 -7.36373e-08)
(-4.61501e-09 4.2036e-08 -7.91845e-08)
(-1.2989e-08 3.35572e-08 -8.50113e-08)
(1.67212e-09 9.38198e-08 -6.22746e-08)
(5.14714e-09 9.13888e-08 -6.24632e-08)
(8.80104e-09 8.70581e-08 -6.29278e-08)
(1.2536e-08 8.19331e-08 -6.38756e-08)
(1.6049e-08 7.70478e-08 -6.5497e-08)
(1.88308e-08 7.294e-08 -6.79409e-08)
(2.02029e-08 6.95701e-08 -7.12655e-08)
(1.95918e-08 6.65132e-08 -7.54282e-08)
(1.64335e-08 6.2765e-08 -8.0283e-08)
(9.7352e-09 5.66363e-08 -8.55149e-08)
(2.2439e-09 1.14997e-07 -6.93943e-08)
(7.02073e-09 1.11524e-07 -6.92433e-08)
(1.23951e-08 1.05572e-07 -6.91427e-08)
(1.84352e-08 9.88288e-08 -6.93952e-08)
(2.4932e-08 9.30911e-08 -7.03256e-08)
(3.13606e-08 8.94102e-08 -7.21243e-08)
(3.68914e-08 8.77891e-08 -7.48679e-08)
(4.0459e-08 8.7403e-08 -7.85147e-08)
(4.14053e-08 8.73257e-08 -8.29465e-08)
(3.83962e-08 8.56379e-08 -8.79386e-08)
(2.61123e-09 1.38973e-07 -7.83705e-08)
(8.33134e-09 1.3367e-07 -7.76837e-08)
(1.51648e-08 1.24843e-07 -7.67151e-08)
(2.34444e-08 1.15362e-07 -7.60379e-08)
(3.31208e-08 1.08044e-07 -7.61334e-08)
(4.36636e-08 1.04629e-07 -7.72631e-08)
(5.41169e-08 1.05333e-07 -7.94805e-08)
(6.32008e-08 1.09017e-07 -8.27384e-08)
(6.94064e-08 1.13745e-07 -8.68177e-08)
(7.20764e-08 1.1802e-07 -9.16736e-08)
(2.6648e-09 1.66854e-07 -8.96914e-08)
(8.71109e-09 1.58278e-07 -8.80398e-08)
(1.65144e-08 1.4443e-07 -8.56503e-08)
(2.67522e-08 1.30323e-07 -8.36473e-08)
(3.96196e-08 1.203e-07 -8.27368e-08)
(5.46526e-08 1.16886e-07 -8.31835e-08)
(7.06575e-08 1.2031e-07 -8.49429e-08)
(8.5878e-08 1.28823e-07 -8.78308e-08)
(9.81439e-08 1.39297e-07 -9.15468e-08)
(1.07276e-07 1.5e-07 -9.61499e-08)
(2.28074e-09 2.00515e-07 -1.04153e-07)
(7.79599e-09 1.85847e-07 -1.00547e-07)
(1.58174e-08 1.63546e-07 -9.57659e-08)
(2.75054e-08 1.41982e-07 -9.18658e-08)
(4.33988e-08 1.27659e-07 -8.97738e-08)
(6.31387e-08 1.23953e-07 -8.95979e-08)
(8.52647e-08 1.30821e-07 -9.10377e-08)
(1.07154e-07 1.45214e-07 -9.36679e-08)
(1.25596e-07 1.62139e-07 -9.70396e-08)
(1.38833e-07 1.77298e-07 -1.00877e-07)
(-2.95562e-10 7.80372e-09 -3.87687e-08)
(-1.02834e-09 7.42584e-09 -3.94828e-08)
(-2.17907e-09 6.95443e-09 -4.09098e-08)
(-4.0542e-09 6.46627e-09 -4.30982e-08)
(-7.00758e-09 5.94064e-09 -4.61464e-08)
(-1.14451e-08 5.37547e-09 -5.02079e-08)
(-1.78636e-08 4.71725e-09 -5.54959e-08)
(-2.69291e-08 3.89495e-09 -6.23093e-08)
(-3.96746e-08 2.83574e-09 -7.10633e-08)
(-5.8125e-08 1.44365e-09 -8.24048e-08)
(-3.47899e-11 2.33822e-08 -3.98285e-08)
(-2.40246e-10 2.25764e-08 -4.05054e-08)
(-8.59019e-10 2.12853e-08 -4.18518e-08)
(-2.15214e-09 1.98613e-08 -4.39366e-08)
(-4.42766e-09 1.83666e-08 -4.68534e-08)
(-8.05122e-09 1.67363e-08 -5.0732e-08)
(-1.33941e-08 1.48586e-08 -5.57425e-08)
(-2.0837e-08 1.25402e-08 -6.21094e-08)
(-3.071e-08 9.49379e-09 -7.00479e-08)
(-4.30278e-08 5.45912e-09 -7.97333e-08)
(4.29671e-10 3.89652e-08 -4.19128e-08)
(1.19473e-09 3.80026e-08 -4.25162e-08)
(1.62979e-09 3.62613e-08 -4.37388e-08)
(1.4776e-09 3.40582e-08 -4.56371e-08)
(5.08783e-10 3.17579e-08 -4.83073e-08)
(-1.56013e-09 2.9343e-08 -5.18592e-08)
(-5.00494e-09 2.66047e-08 -5.64189e-08)
(-9.91548e-09 2.32172e-08 -6.20764e-08)
(-1.59752e-08 1.87162e-08 -6.88391e-08)
(-2.19345e-08 1.25836e-08 -7.65263e-08)
(1.03494e-09 5.52133e-08 -4.50216e-08)
(3.0866e-09 5.40442e-08 -4.55309e-08)
(4.97129e-09 5.19922e-08 -4.65857e-08)
(6.47686e-09 4.93225e-08 -4.82451e-08)
(7.3627e-09 4.64312e-08 -5.06024e-08)
(7.40278e-09 4.35589e-08 -5.37538e-08)
(6.3994e-09 4.05299e-08 -5.7784e-08)
(4.27006e-09 3.68196e-08 -6.27163e-08)
(1.40507e-09 3.17662e-08 -6.84285e-08)
(-9.6673e-10 2.45961e-08 -7.46052e-08)
(1.71336e-09 7.26591e-08 -4.921e-08)
(5.2314e-09 7.12341e-08 -4.96092e-08)
(8.81037e-09 6.86875e-08 -5.04435e-08)
(1.23318e-08 6.56122e-08 -5.18139e-08)
(1.55612e-08 6.24606e-08 -5.38185e-08)
(1.81838e-08 5.95098e-08 -5.65497e-08)
(1.99756e-08 5.67938e-08 -6.00871e-08)
(2.0758e-08 5.37826e-08 -6.44217e-08)
(2.04597e-08 4.94735e-08 -6.94133e-08)
(1.95153e-08 4.28156e-08 -7.47654e-08)
(2.38971e-09 9.18116e-08 -5.45818e-08)
(7.38963e-09 8.99312e-08 -5.48292e-08)
(1.27665e-08 8.66209e-08 -5.53825e-08)
(1.85217e-08 8.28471e-08 -5.63978e-08)
(2.44575e-08 7.94966e-08 -5.80157e-08)
(3.02147e-08 7.70097e-08 -6.03537e-08)
(3.52851e-08 7.5294e-08 -6.34695e-08)
(3.9251e-08 7.39258e-08 -6.73643e-08)
(4.17772e-08 7.19539e-08 -7.19624e-08)
(4.2172e-08 6.7724e-08 -7.70188e-08)
(2.97238e-09 1.13202e-07 -6.12948e-08)
(9.29826e-09 1.10472e-07 -6.13106e-08)
(1.64252e-08 1.05871e-07 -6.14899e-08)
(2.45118e-08 1.00851e-07 -6.2047e-08)
(3.34395e-08 9.69852e-08 -6.32244e-08)
(4.27907e-08 9.51737e-08 -6.5167e-08)
(5.18984e-08 9.53664e-08 -6.79452e-08)
(5.98632e-08 9.67402e-08 -7.15483e-08)
(6.60658e-08 9.84298e-08 -7.5943e-08)
(6.93127e-08 9.85552e-08 -8.09618e-08)
(3.35988e-09 1.37508e-07 -6.95835e-08)
(1.06743e-08 1.33272e-07 -6.9228e-08)
(1.92979e-08 1.26305e-07 -6.88122e-08)
(2.96424e-08 1.19067e-07 -6.87479e-08)
(4.17317e-08 1.14029e-07 -6.93844e-08)
(5.51097e-08 1.12725e-07 -7.09163e-08)
(6.89048e-08 1.15319e-07 -7.33954e-08)
(8.19844e-08 1.2071e-07 -7.68104e-08)
(9.28105e-08 1.27005e-07 -8.10041e-08)
(1.00698e-07 1.32839e-07 -8.60197e-08)
(3.45431e-09 1.65646e-07 -7.97779e-08)
(1.11734e-08 1.58729e-07 -7.87387e-08)
(2.08335e-08 1.4759e-07 -7.73253e-08)
(3.31692e-08 1.3649e-07 -7.63563e-08)
(4.84293e-08 1.29251e-07 -7.63371e-08)
(6.61955e-08 1.28166e-07 -7.74554e-08)
(8.53115e-08 1.33432e-07 -7.96768e-08)
(1.04049e-07 1.43397e-07 -8.28728e-08)
(1.20197e-07 1.55034e-07 -8.68043e-08)
(1.33498e-07 1.6686e-07 -9.16413e-08)
(3.145e-09 1.9906e-07 -9.24057e-08)
(1.04665e-08 1.8725e-07 -8.99595e-08)
(2.0455e-08 1.69142e-07 -8.68522e-08)
(3.43135e-08 1.51717e-07 -8.4575e-08)
(5.26055e-08 1.4077e-07 -8.3785e-08)
(7.49833e-08 1.39503e-07 -8.45436e-08)
(9.99948e-08 1.4797e-07 -8.66104e-08)
(1.24999e-07 1.63307e-07 -8.96439e-08)
(1.46715e-07 1.80751e-07 -9.32748e-08)
(1.63193e-07 1.96309e-07 -9.73205e-08)
(8.88977e-11 6.19456e-09 -2.54372e-08)
(1.61524e-10 5.8986e-09 -2.57845e-08)
(-8.00748e-11 5.56442e-09 -2.64759e-08)
(-8.5887e-10 5.21911e-09 -2.75357e-08)
(-2.44668e-09 4.85105e-09 -2.90106e-08)
(-5.18002e-09 4.4554e-09 -3.09739e-08)
(-9.50191e-09 3.98209e-09 -3.35261e-08)
(-1.60489e-08 3.36589e-09 -3.68064e-08)
(-2.58788e-08 2.54283e-09 -4.1001e-08)
(-4.11477e-08 1.43729e-09 -4.63872e-08)
(3.08721e-10 1.86314e-08 -2.6301e-08)
(8.43186e-10 1.8029e-08 -2.6638e-08)
(1.08825e-09 1.70911e-08 -2.72937e-08)
(8.56857e-10 1.60812e-08 -2.8314e-08)
(-7.33319e-11 1.50437e-08 -2.97439e-08)
(-1.98571e-09 1.39131e-08 -3.16417e-08)
(-5.17835e-09 1.25783e-08 -3.40894e-08)
(-9.95601e-09 1.08588e-08 -3.71958e-08)
(-1.65874e-08 8.49999e-09 -4.10557e-08)
(-2.50308e-08 5.2882e-09 -4.57398e-08)
(7.0966e-10 3.12556e-08 -2.79677e-08)
(2.08848e-09 3.05689e-08 -2.82852e-08)
(3.27463e-09 2.93001e-08 -2.89074e-08)
(4.10127e-09 2.77376e-08 -2.98666e-08)
(4.41725e-09 2.61578e-08 -3.12152e-08)
(4.03478e-09 2.45252e-08 -3.30042e-08)
(2.79111e-09 2.26348e-08 -3.52945e-08)
(7.17351e-10 2.01756e-08 -3.81339e-08)
(-1.71427e-09 1.67265e-08 -4.15303e-08)
(-3.01305e-09 1.18417e-08 -4.53972e-08)
(1.22831e-09 4.46873e-08 -3.03958e-08)
(3.7193e-09 4.38439e-08 -3.06882e-08)
(6.18131e-09 4.23609e-08 -3.12781e-08)
(8.5067e-09 4.04857e-08 -3.21834e-08)
(1.05506e-08 3.85295e-08 -3.34426e-08)
(1.21799e-08 3.66638e-08 -3.51081e-08)