/*--------------------------------*- C++ -*----------------------------------*\
| =========                 |                                                 |
| \\      /  F ield         | foam-extend: Open Source CFD                    |
|  \\    /   O peration     | Version:     3.1                                |
|   \\  /    A nd           | Web:         http://www.extend-project.de       |
|    \\/     M anipulation  |                                                 |
\*---------------------------------------------------------------------------*/
FoamFile
{
    version     2.0;
    format      ascii;
    class       surfaceScalarField;
    location    "0.0012";
    object      phi;
}
// * * * * * * * * * * * * * * * * * * * * * * * * * * * * * * * * * * * * * //

dimensions      [0 3 -1 0 0 0 0];

internalField   nonuniform List<scalar> 
45800
(
-1.02944e-10
-1.03356e-10
2.73696e-08
-1.9836e-10
-1.01326e-10
2.69361e-08
-2.84355e-10
-9.64225e-11
2.65481e-08
-3.62684e-10
-9.05842e-11
2.62084e-08
-4.35283e-10
-8.44688e-11
2.59157e-08
-5.0341e-10
-7.82145e-11
2.56676e-08
-5.67575e-10
-7.20146e-11
2.5462e-08
-6.27246e-10
-6.61863e-11
2.52971e-08
-6.80259e-10
-6.12539e-11
2.51709e-08
-5.69872e-11
2.50812e-08
-7.21969e-10
-1.00915e-10
-1.98477e-10
2.69354e-08
-1.96606e-10
-1.96983e-10
2.65011e-08
-2.845e-10
-1.90511e-10
2.611e-08
-3.64805e-10
-1.81451e-10
2.57624e-08
-4.38872e-10
-1.71534e-10
2.54584e-08
-5.07933e-10
-1.61445e-10
2.51967e-08
-5.72533e-10
-1.51601e-10
2.49752e-08
-6.32207e-10
-1.42587e-10
2.47919e-08
-6.85128e-10
-1.35156e-10
2.46449e-08
-1.29094e-10
2.45304e-08
-7.25481e-10
-9.6264e-11
-2.84018e-10
2.65475e-08
-1.90112e-10
-2.84419e-10
2.61093e-08
-2.7872e-10
-2.78993e-10
2.5713e-08
-3.60869e-10
-2.6933e-10
2.53567e-08
-4.36647e-10
-2.57571e-10
2.504e-08
-5.06925e-10
-2.45325e-10
2.47626e-08
-5.72289e-10
-2.33471e-10
2.45232e-08
-6.32321e-10
-2.22752e-10
2.43194e-08
-6.85627e-10
-2.14154e-10
2.41496e-08
-2.07729e-10
2.40101e-08
-7.26606e-10
-9.06623e-11
-3.62175e-10
2.62083e-08
-1.81359e-10
-3.64384e-10
2.57618e-08
-2.69016e-10
-3.60748e-10
2.53561e-08
-3.51885e-10
-3.52124e-10
2.49889e-08
-4.29029e-10
-3.40144e-10
2.46583e-08
-5.00387e-10
-3.26708e-10
2.43636e-08
-5.66298e-10
-3.135e-10
2.41042e-08
-6.26519e-10
-3.01682e-10
2.38785e-08
-6.80227e-10
-2.92335e-10
2.36848e-08
-2.86094e-10
2.35202e-08
-7.22534e-10
-8.45881e-11
-4.34738e-10
2.59157e-08
-1.71692e-10
-4.3837e-10
2.54584e-08
-2.57545e-10
-4.36269e-10
2.50395e-08
-3.39856e-10
-4.2895e-10
2.46577e-08
-4.17377e-10
-4.17673e-10
2.43113e-08
-4.89409e-10
-4.0384e-10
2.39983e-08
-5.55559e-10
-3.89289e-10
2.37175e-08
-6.15542e-10
-3.7597e-10
2.3468e-08
-6.69257e-10
-3.65384e-10
2.32491e-08
-3.59164e-10
2.3059e-08
-7.128e-10
-7.8322e-11
-5.02864e-10
2.56677e-08
-1.61651e-10
-5.07431e-10
2.51968e-08
-2.45533e-10
-5.06491e-10
2.47626e-08
-3.2672e-10
-5.00097e-10
2.43632e-08
-4.03493e-10
-4.8946e-10
2.39977e-08
-4.75132e-10
-4.7564e-10
2.36648e-08
-5.40884e-10
-4.59762e-10
2.33618e-08
-5.99967e-10
-4.43858e-10
2.30871e-08
-6.52748e-10
-4.30174e-10
2.2841e-08
-4.22589e-10
2.26242e-08
-6.96794e-10
-7.2115e-11
-5.67067e-10
2.54622e-08
-1.51793e-10
-5.72066e-10
2.49754e-08
-2.33744e-10
-5.71882e-10
2.45233e-08
-3.13806e-10
-5.6596e-10
2.41042e-08
-3.89338e-10
-5.55335e-10
2.37169e-08
-4.59209e-10
-5.41008e-10
2.33608e-08
-5.22988e-10
-5.23559e-10
2.30341e-08
-5.79709e-10
-5.03942e-10
2.27335e-08
-6.29848e-10
-4.84036e-10
2.24583e-08
-4.71554e-10
2.22135e-08
-6.73118e-10
-6.62786e-11
-6.26817e-10
2.52973e-08
-1.42764e-10
-6.31813e-10
2.47921e-08
-2.23012e-10
-6.31971e-10
2.43195e-08
-3.02042e-10
-6.26202e-10
2.38787e-08
-3.7635e-10
-6.15222e-10
2.34679e-08
-4.43731e-10
-5.9967e-10
2.30862e-08
-5.03366e-10
-5.79668e-10
2.27325e-08
-5.54462e-10
-5.5475e-10
2.24037e-08
-5.98363e-10
-5.2476e-10
2.20984e-08
-5.00265e-10
2.1824e-08
-6.38662e-10
-6.13324e-11
-6.79942e-10
2.51711e-08
-1.35304e-10
-6.84839e-10
2.46451e-08
-2.14365e-10
-6.8537e-10
2.41497e-08
-2.92605e-10
-6.7999e-10
2.3685e-08
-3.6571e-10
-6.69011e-10
2.32493e-08
-4.30302e-10
-6.52456e-10
2.28408e-08
-4.83843e-10
-6.296e-10
2.24578e-08
-5.24497e-10
-5.98338e-10
2.2098e-08
-5.54416e-10
-5.54579e-10
2.17599e-08
-5.03764e-10
2.14522e-08
-5.85846e-10
-5.70473e-11
2.50814e-08
-7.21764e-10
-1.29206e-10
2.45305e-08
-7.25298e-10
-2.07881e-10
2.40102e-08
-7.26448e-10
-2.86272e-10
2.35204e-08
-7.22391e-10
-3.59343e-10
2.30591e-08
-7.1266e-10
-4.22713e-10
2.26243e-08
-6.9665e-10
-4.71623e-10
2.22136e-08
-6.72987e-10
-5.00241e-10
2.18239e-08
-6.38578e-10
-5.03617e-10
2.14519e-08
-5.85833e-10
2.11056e-08
-5.00479e-10
-5.00539e-10
6.22461e-11
6.18749e-11
2.72455e-08
1.25809e-10
6.32043e-11
2.68093e-08
1.9279e-10
6.62254e-11
2.64149e-08
2.6166e-10
6.94223e-11
2.60701e-08
3.30609e-10
7.22524e-11
2.57745e-08
3.98375e-10
7.45749e-11
2.55253e-08
4.64345e-10
7.62089e-11
2.53199e-08
5.28893e-10
7.6948e-11
2.51556e-08
5.93844e-10
7.67424e-11
2.50293e-08
7.70469e-11
2.49354e-08
6.62652e-10
6.35661e-11
1.25722e-10
2.6808e-08
1.26688e-10
1.26365e-10
2.63748e-08
1.91815e-10
1.30057e-10
2.5981e-08
2.58725e-10
1.35084e-10
2.56298e-08
3.26107e-10
1.39944e-10
2.53233e-08
3.92703e-10
1.43982e-10
2.50607e-08
4.57884e-10
1.4679e-10
2.48395e-08
5.22033e-10
1.4796e-10
2.46568e-08
5.8687e-10
1.47576e-10
2.45092e-08
1.49271e-10
2.43891e-08
6.5594e-10
6.63452e-11
1.93138e-10
2.64137e-08
1.30384e-10
1.91923e-10
2.59797e-08
1.94323e-10
1.94112e-10
2.5585e-08
2.59032e-10
1.98954e-10
2.52281e-08
3.24292e-10
2.04564e-10
2.49101e-08
3.89196e-10
2.09417e-10
2.46323e-08
4.53145e-10
2.12681e-10
2.43933e-08
5.16654e-10
2.13844e-10
2.419e-08
5.81424e-10
2.13057e-10
2.40193e-08
2.16028e-10
2.38739e-08
6.50862e-10
6.93273e-11
2.62179e-10
2.60699e-08
1.35118e-10
2.59162e-10
2.56288e-08
1.99179e-10
2.5919e-10
2.52269e-08
2.62584e-10
2.62422e-10
2.4862e-08
3.25918e-10
2.67461e-10
2.45321e-08
3.89147e-10
2.7245e-10
2.42373e-08
4.52034e-10
2.75789e-10
2.39782e-08
5.15176e-10
2.76648e-10
2.37526e-08
5.80197e-10
2.75344e-10
2.35575e-08
2.7956e-10
2.33869e-08
6.50008e-10
7.21225e-11
3.31166e-10
2.57746e-08
1.39752e-10
3.26627e-10
2.53233e-08
2.04512e-10
3.24703e-10
2.49092e-08
2.6764e-10
3.26055e-10
2.4531e-08
3.29858e-10
3.29661e-10
2.41869e-08
3.91668e-10
3.34076e-10
2.38749e-08
4.53648e-10
3.37445e-10
2.35938e-08
5.16786e-10
3.38191e-10
2.33433e-08
5.82578e-10
3.36517e-10
2.31222e-08
3.4204e-10
2.29259e-08
6.53214e-10
7.44569e-11
3.98936e-10
2.55255e-08
1.43751e-10
3.93228e-10
2.50609e-08
2.09155e-10
3.89671e-10
2.46322e-08
2.72334e-10
3.895e-10
2.42366e-08
3.3428e-10
3.91703e-10
2.38738e-08
3.95466e-10
3.95088e-10
2.35426e-08
4.56864e-10
3.98314e-10
2.32395e-08
5.20325e-10
3.99484e-10
2.29623e-08
5.87699e-10
3.98209e-10
2.27119e-08
4.05418e-10
2.24884e-08
6.6016e-10
7.60988e-11
4.64873e-10
2.53202e-08
1.46573e-10
4.58381e-10
2.48397e-08
2.12364e-10
4.53604e-10
2.43935e-08
2.75408e-10
4.52453e-10
2.39782e-08
3.37258e-10
4.53975e-10
2.35928e-08
3.9868e-10
4.56855e-10
2.32376e-08
4.60389e-10
4.59989e-10
2.29107e-08
5.24802e-10
4.61965e-10
2.26066e-08
5.94834e-10
4.62222e-10
2.23243e-08
4.7177e-10
2.20712e-08
6.70765e-10
7.68461e-11
5.29349e-10
2.51559e-08
1.47759e-10
5.22467e-10
2.46571e-08
2.13545e-10
5.17068e-10
2.41903e-08
2.76232e-10
5.15586e-10
2.37528e-08
3.37725e-10
5.1723e-10
2.33432e-08
3.99452e-10
5.20761e-10
2.29605e-08
4.62334e-10
5.24996e-10
2.26046e-08
5.28932e-10
5.28821e-10
2.22703e-08
6.0303e-10
5.31607e-10
2.19549e-08
5.43479e-10
2.16702e-08
6.85141e-10
7.66523e-11
5.94201e-10
2.50296e-08
1.47401e-10
5.87211e-10
2.45096e-08
2.12805e-10
5.81757e-10
2.40196e-08
2.7502e-10
5.8054e-10
2.35578e-08
3.36131e-10
5.82956e-10
2.31224e-08
3.97995e-10
5.88144e-10
2.27115e-08
4.62266e-10
5.95242e-10
2.23233e-08
5.31709e-10
6.03203e-10
2.19542e-08
6.10682e-10
6.10651e-10
2.16019e-08
6.23662e-10
2.12788e-08
7.03827e-10
7.69723e-11
2.49357e-08
6.62906e-10
1.4913e-10
2.43894e-08
6.56185e-10
2.15832e-10
2.38742e-08
6.51103e-10
2.79324e-10
2.33871e-08
6.50258e-10
3.41794e-10
2.29261e-08
6.53481e-10
4.05223e-10
2.24886e-08
6.60441e-10
4.71616e-10
2.20714e-08
6.71037e-10
5.43405e-10
2.16699e-08
6.85361e-10
6.23714e-10
2.12783e-08
7.03959e-10
2.0908e-08
7.2248e-10
7.2251e-10
2.70015e-10
2.69722e-10
2.67058e-08
5.33805e-10
2.71635e-10
2.62739e-08
7.9426e-10
2.74775e-10
2.58796e-08
1.05071e-09
2.78258e-10
2.55354e-08
1.30185e-09
2.81644e-10
2.52417e-08
1.54642e-09
2.84711e-10
2.4996e-08
1.78301e-09
2.87154e-10
2.47961e-08
2.01015e-09
2.88597e-10
2.46398e-08
2.22602e-09
2.88865e-10
2.45245e-08
2.90296e-10
2.44446e-08
2.42647e-09
2.71896e-10
5.33767e-10
2.6272e-08
5.36067e-10
5.35839e-10
2.58465e-08
7.95624e-10
5.40076e-10
2.54561e-08
1.05096e-09
5.45709e-10
2.5107e-08
1.30125e-09
5.51484e-10
2.48032e-08
1.54525e-09
5.56739e-10
2.45447e-08
1.78163e-09
5.60841e-10
2.43294e-08
2.00905e-09
5.63101e-10
2.41548e-08
2.22579e-09
5.6348e-10
2.40179e-08
5.68076e-10
2.39095e-08
2.42757e-09
2.74809e-10
7.9462e-10
2.5878e-08
5.40255e-10
7.95758e-10
2.54543e-08
7.99246e-10
7.99132e-10
2.50669e-08
1.05294e-09
8.05122e-10
2.4715e-08
1.30142e-09
8.12007e-10
2.44011e-08
1.54381e-09
8.18344e-10
2.41283e-08
1.77885e-09
8.23129e-10
2.3896e-08
2.00542e-09
8.25457e-10
2.37011e-08
2.22207e-09
8.25355e-10
2.35408e-08
8.3272e-10
2.34064e-08
2.42487e-09
2.78129e-10
1.05123e-09
2.55352e-08
5.45618e-10
1.05141e-09
2.51057e-08
8.05171e-10
1.05313e-09
2.47134e-08
1.05807e-09
1.05802e-09
2.43562e-08
1.30489e-09
1.06472e-09
2.40325e-08
1.54549e-09
1.07127e-09
2.37438e-08
1.77908e-09
1.07594e-09
2.34918e-08
2.0047e-09
1.07757e-09
2.32749e-08
2.22101e-09
1.07637e-09
2.30902e-08
1.08598e-09
2.29305e-08
2.42414e-09
2.81497e-10
1.30242e-09
2.5242e-08
5.51232e-10
1.3018e-09
2.48032e-08
8.11797e-10
1.30186e-09
2.43999e-08
1.06469e-09
1.30508e-09
2.4031e-08
1.31055e-09
1.31048e-09
2.36953e-08
1.54947e-09
1.31636e-09
2.33909e-08
1.7814e-09
1.32046e-09
2.31174e-08
2.00598e-09
1.32084e-09
2.28755e-08
2.22196e-09
1.3179e-09
2.26647e-08
1.32908e-09
2.24794e-08
2.42527e-09
2.84574e-10
1.54699e-09
2.49963e-08
5.5647e-10
1.5458e-09
2.4545e-08
8.17989e-10
1.54434e-09
2.41282e-08
1.07095e-09
1.54592e-09
2.37427e-08
1.31631e-09
1.54957e-09
2.33893e-08
1.55412e-09
1.55387e-09
2.30673e-08
1.78439e-09
1.55686e-09
2.27729e-08
2.00768e-09
1.55581e-09
2.25041e-08
2.22353e-09
1.55072e-09
2.22632e-08
1.56264e-09
2.20508e-08
2.42754e-09
2.87025e-10
1.78357e-09
2.47966e-08
5.60585e-10
1.78217e-09
2.43298e-08
8.22751e-10
1.77938e-09
2.38963e-08
1.07544e-09
1.77962e-09
2.34918e-08
1.32e-09
1.78185e-09
2.3116e-08
1.55688e-09
1.78442e-09
2.27702e-08
1.78589e-09
1.78566e-09
2.24529e-08
2.00793e-09
1.78295e-09
2.21575e-08
2.22401e-09
1.77555e-09
2.18834e-08
1.78689e-09
2.16409e-08
2.43008e-09
2.88477e-10
2.01065e-09
2.46404e-08
5.62864e-10
2.00954e-09
2.41553e-08
8.25105e-10
2.00592e-09
2.37015e-08
1.07709e-09
2.00524e-09
2.32752e-08
1.32025e-09
2.0066e-09
2.28753e-08
1.55544e-09
2.00823e-09
2.25015e-08
1.78293e-09
2.00818e-09
2.21546e-08
2.0039e-09
2.00397e-09
2.18283e-08
2.22073e-09
1.99389e-09
2.15197e-08
2.00158e-09
2.12445e-08
2.43174e-09
2.88757e-10
2.22643e-09
2.45251e-08
5.6327e-10
2.22621e-09
2.40184e-08
8.25053e-10
2.2225e-09
2.35413e-08
1.07599e-09
2.22148e-09
2.30906e-08
1.31747e-09
2.2225e-09
2.2665e-08
1.55038e-09
2.22414e-09
2.22627e-08
1.77529e-09
2.22454e-09
2.1882e-08
1.99371e-09
2.221e-09
2.15187e-08
2.20952e-09
2.20961e-09
2.11704e-08
2.20627e-09
2.08526e-08
2.4311e-09
2.90203e-10
2.44452e-08
2.4268e-09
5.679e-10
2.391e-08
2.4279e-09
8.32475e-10
2.34069e-08
2.42522e-09
1.08569e-09
2.29309e-08
2.42452e-09
1.32877e-09
2.24798e-08
2.42568e-09
1.56237e-09
2.20512e-08
2.42797e-09
1.78662e-09
2.16412e-08
2.43049e-09
2.00133e-09
2.12441e-08
2.43207e-09
2.20616e-09
2.08518e-08
2.4313e-09
2.04789e-08
2.42071e-09
2.42081e-09
4.88503e-10
4.88303e-10
2.57289e-08
9.62987e-10
4.90916e-10
2.53085e-08
1.42753e-09
4.94359e-10
2.49207e-08
1.88299e-09
4.98524e-10
2.45814e-08
2.3293e-09
5.03146e-10
2.42922e-08
2.76585e-09
5.07947e-10
2.40515e-08
3.19132e-09
5.12528e-10
2.38581e-08
3.60341e-09
5.16395e-10
2.37114e-08
3.99824e-09
5.19311e-10
2.36104e-08
5.24202e-10
2.35516e-08
4.36708e-09
4.91052e-10
9.62983e-10
2.53063e-08
9.67012e-10
9.66881e-10
2.48945e-08
1.43195e-09
9.72269e-10
2.45133e-08
1.88743e-09
9.79448e-10
2.41706e-08
2.3338e-09
9.8756e-10
2.38724e-08
2.77053e-09
9.96051e-10
2.36199e-08
3.19641e-09
1.00412e-09
2.34119e-08
3.60936e-09
1.01089e-09
2.32474e-08
4.0056e-09
1.01632e-09
2.31246e-08
1.02829e-09
2.30355e-08
4.37554e-09
4.94291e-10
1.42786e-09
2.49189e-08
9.72276e-10
1.43206e-09
2.45111e-08
1.43781e-09
1.43777e-09
2.41359e-08
1.89272e-09
1.44653e-09
2.3793e-08
2.33802e-09
1.45689e-09
2.34865e-08
2.77356e-09
1.46771e-09
2.32211e-08
3.1982e-09
1.47798e-09
2.29975e-08
3.61008e-09
1.48653e-09
2.28135e-08
4.00586e-09
1.49342e-09
2.26679e-08
1.5117e-09
2.25524e-08
4.37647e-09
4.98375e-10
1.88347e-09
2.45812e-08
9.79224e-10
1.88782e-09
2.41691e-08
1.44639e-09
1.89288e-09
2.37911e-08
1.90173e-09
1.90174e-09
2.34457e-08
2.34624e-09
1.91316e-09
2.31318e-08
2.78035e-09
1.92524e-09
2.28522e-08
3.20349e-09
1.9364e-09
2.26103e-08
3.61396e-09
1.94541e-09
2.24055e-08
4.00862e-09
1.95262e-09
2.22364e-08
1.97617e-09
2.20958e-08
4.37881e-09
5.03007e-10
2.32982e-09
2.42926e-08
9.87279e-10
2.33431e-09
2.38724e-08
1.45653e-09
2.33843e-09
2.34851e-08
1.91293e-09
2.34639e-09
2.313e-08
2.35745e-09
2.35744e-09
2.28065e-08
2.79031e-09
2.3698e-09
2.25135e-08
3.2115e-09
2.38097e-09
2.22516e-08
3.62023e-09
2.38906e-09
2.20231e-08
4.01353e-09
2.39513e-09
2.18289e-08
2.42257e-09
2.16636e-08
4.38294e-09
5.07817e-10
2.76639e-09
2.40519e-08
9.95794e-10
2.77106e-09
2.36203e-08
1.46732e-09
2.77409e-09
2.3221e-08
1.92474e-09
2.78078e-09
2.28509e-08
2.3695e-09
2.79037e-09
2.25116e-08
2.80173e-09
2.80151e-09
2.22034e-08
3.22098e-09
2.8119e-09
2.19227e-08
3.62734e-09
2.81822e-09
2.16685e-08
4.01913e-09
2.82153e-09
2.1445e-08
2.85086e-09
2.12535e-08
4.38814e-09
5.12404e-10
3.19186e-09
2.38587e-08
1.00387e-09
3.19694e-09
2.34125e-08
1.47761e-09
3.19874e-09
2.29979e-08
1.93585e-09
3.20407e-09
2.26103e-08
2.38024e-09
3.21197e-09
2.225e-08
2.81154e-09
3.22088e-09
2.19195e-08
3.22921e-09
3.22903e-09
2.16181e-08
3.63308e-09
3.23286e-09
2.13389e-08
4.02323e-09
3.23205e-09
2.10827e-08
3.25999e-09
2.08617e-08
4.39327e-09
5.16282e-10
3.60391e-09
2.3712e-08
1.01067e-09
3.60986e-09
2.3248e-08
1.4862e-09
3.61061e-09
2.28141e-08
1.94497e-09
3.61455e-09
2.2406e-08
2.38842e-09
3.62092e-09
2.20229e-08
2.81747e-09
3.62783e-09
2.16655e-08
3.23239e-09
3.63316e-09
2.13355e-08
3.63342e-09
3.63357e-09
2.10266e-08
4.02203e-09
3.62695e-09
2.07362e-08
3.64746e-09
2.04827e-08
4.39635e-09
5.1921e-10
3.99868e-09
2.36111e-08
1.01612e-09
4.00605e-09
2.31253e-08
1.49314e-09
4.00634e-09
2.26685e-08
1.95228e-09
4.00915e-09
2.22369e-08
2.39478e-09
4.01413e-09
2.18293e-08
2.82112e-09
4.01975e-09
2.14444e-08
3.23147e-09
4.02371e-09
2.10811e-08
3.62649e-09
4.02222e-09
2.0735e-08
4.00974e-09
4.00985e-09
2.04042e-08
4.00929e-09
2.01061e-08
4.39437e-09
5.24117e-10
2.35523e-08
4.36744e-09
1.02813e-09
2.30362e-08
4.37591e-09
1.51148e-09
2.2553e-08
4.37687e-09
1.97591e-09
2.20964e-08
4.37925e-09
2.4223e-09
2.16641e-08
4.3834e-09
2.85062e-09
2.1254e-08
4.3886e-09
3.25969e-09
2.08621e-08
4.3937e-09
3.64706e-09
2.04823e-08
4.39666e-09
4.00904e-09
2.01051e-08
4.3945e-09
1.97474e-08
4.37484e-09
4.37494e-09
7.00645e-10
7.00531e-10
2.43278e-08
1.38025e-09
7.03943e-10
2.39249e-08
2.0446e-09
7.07994e-10
2.35484e-08
2.6969e-09
7.13395e-10
2.32157e-08
3.33927e-09
7.20124e-10
2.29297e-08
3.97301e-09
7.27915e-10
2.26898e-08
4.5984e-09
7.36367e-10
2.24964e-08
5.21437e-09
7.45006e-10
2.23504e-08
5.8176e-09
7.53696e-10
2.22535e-08
7.66202e-10
2.22049e-08
6.39813e-09
7.03956e-10
1.38025e-09
2.39226e-08
1.38629e-09
1.38623e-09
2.35299e-08
2.0525e-09
1.39348e-09
2.31616e-08
2.70605e-09
1.40335e-09
2.28271e-08
3.34943e-09
1.41552e-09
2.25336e-08
3.98396e-09
1.42972e-09
2.22835e-08
4.61004e-09
1.44514e-09
2.20771e-08
5.2268e-09
1.46095e-09
2.19147e-08
5.8309e-09
1.47735e-09
2.17968e-08
1.50428e-09
2.17178e-08
6.41057e-09
7.07832e-10
2.04486e-09
2.35464e-08
1.39333e-09
2.05254e-09
2.31593e-08
2.06174e-09
2.06173e-09
2.27993e-08
2.71625e-09
2.07506e-09
2.24668e-08
3.35963e-09
2.09152e-09
2.21671e-08
3.99365e-09
2.11048e-09
2.19063e-08
4.61868e-09
2.13122e-09
2.16864e-08
5.23396e-09
2.15258e-09
2.15066e-08
5.8366e-09
2.17499e-09
2.13676e-08
2.21494e-09
2.12632e-08
6.41519e-09
7.13247e-10
2.69728e-09
2.32155e-08
1.40302e-09
2.70634e-09
2.28255e-08
2.07478e-09
2.71629e-09
2.24648e-08
2.73159e-09
2.7316e-09
2.21323e-08
3.37571e-09
2.75128e-09
2.18279e-08
4.00918e-09
2.77374e-09
2.15554e-08
4.63302e-09
2.79791e-09
2.13197e-08
5.24656e-09
2.82291e-09
2.11216e-08
5.84702e-09
2.84952e-09
2.09614e-08
2.90074e-09
2.08336e-08
6.42345e-09
7.20022e-10
3.33969e-09
2.29302e-08
1.41526e-09
3.34984e-09
2.25337e-08
2.09105e-09
3.35993e-09
2.21657e-08
2.7509e-09
3.37571e-09
2.1826e-08
3.39692e-09
3.39686e-09
2.15149e-08
4.03038e-09
3.42175e-09
2.1232e-08
4.65265e-09
3.44806e-09
2.09792e-08
5.26415e-09
3.47437e-09
2.07601e-08
5.86231e-09
3.50283e-09
2.05774e-08
3.56315e-09
2.04272e-08
6.43638e-09
7.27819e-10
3.97345e-09
2.26904e-08
1.42953e-09
3.9844e-09
2.2284e-08
2.11012e-09
3.99409e-09
2.19063e-08
2.77311e-09
4.00949e-09
2.15542e-08
3.42129e-09
4.03024e-09
2.123e-08
4.0558e-09
4.05546e-09
2.09351e-08
4.67687e-09
4.08286e-09
2.06668e-08
5.28567e-09
4.10896e-09
2.04252e-08
5.88128e-09
4.13629e-09
2.0216e-08
4.20243e-09
2.0042e-08
6.45358e-09
7.36279e-10
4.59885e-09
2.2497e-08
1.44496e-09
4.6105e-09
2.20777e-08
2.13094e-09
4.61916e-09
2.16869e-08
2.7974e-09
4.63354e-09
2.13198e-08
3.44713e-09
4.653e-09
2.09775e-08
4.08221e-09
4.67643e-09
2.06635e-08
4.70281e-09
4.70253e-09
2.03778e-08
5.30902e-09
4.72717e-09
2.01145e-08
5.90175e-09
4.75075e-09
1.98755e-08
4.81729e-09
1.96747e-08
6.47396e-09
7.44931e-10
5.2148e-09
2.23512e-08
1.4608e-09
5.22724e-09
2.19154e-08
2.15236e-09
5.23443e-09
2.15073e-08
2.82262e-09
5.24708e-09
2.11222e-08
3.4738e-09
5.26477e-09
2.07599e-08
4.10788e-09
5.2859e-09
2.0422e-08
4.72631e-09
5.3087e-09
2.01109e-08
5.32945e-09
5.32952e-09
1.98211e-08
5.91927e-09
5.34615e-09
1.9551e-08
5.40406e-09
1.93202e-08
6.49501e-09
7.53633e-10
5.81799e-09
2.22543e-08
1.47723e-09
5.83131e-09
2.17976e-08
2.17483e-09
5.83703e-09
2.13683e-08
2.84933e-09
5.8475e-09
2.0962e-08
3.5027e-09
5.8628e-09
2.05779e-08
4.13594e-09
5.88173e-09
2.02154e-08
4.74991e-09
5.90198e-09
1.98738e-08
5.34551e-09
5.91919e-09
1.95498e-08
5.92698e-09
5.92697e-09
1.92419e-08
5.95621e-09
1.89685e-08
6.51248e-09
7.66156e-10
2.22057e-08
6.39848e-09
1.5042e-09
2.17185e-08
6.41092e-09
2.21482e-09
2.12638e-08
6.41556e-09
2.90062e-09
2.08342e-08
6.42384e-09
3.56306e-09
2.04277e-08
6.43677e-09
4.20235e-09
2.00425e-08
6.45394e-09
4.81708e-09
1.96751e-08
6.47426e-09
5.40359e-09
1.93198e-08
6.49516e-09
5.95587e-09
1.89674e-08
6.51238e-09
1.86355e-08
6.51199e-09
6.51197e-09
8.90026e-10
8.89983e-10
2.25478e-08
1.75343e-09
8.94242e-10
2.21673e-08
2.59814e-09
8.99218e-10
2.18045e-08
3.43032e-09
9.06379e-10
2.14771e-08
4.25515e-09
9.15995e-10
2.11889e-08
5.07701e-09
9.27893e-10
2.09401e-08
5.89939e-09
9.4179e-10
2.07322e-08
6.72454e-09
9.57387e-10
2.05679e-08
7.55254e-09
9.74819e-10
2.04506e-08
9.98825e-10
2.03828e-08
8.37577e-09
8.94152e-10
1.7534e-09
2.2165e-08
1.76155e-09
1.76153e-09
2.17952e-08
2.60955e-09
1.77122e-09
2.14416e-08
3.44415e-09
1.7848e-09
2.11141e-08
4.27078e-09
1.80257e-09
2.08204e-08
5.09373e-09
1.82465e-09
2.05638e-08
5.91654e-09
1.85046e-09
2.03456e-08
6.7415e-09
1.87947e-09
2.01677e-08
7.56844e-09
1.91238e-09
2.00323e-08
1.96113e-09
1.99369e-08
8.38701e-09
8.98985e-10
2.59827e-09
2.18026e-08
1.77096e-09
2.60947e-09
2.14394e-08
2.62302e-09
2.62298e-09
2.10954e-08
3.46033e-09
2.64239e-09
2.07719e-08
4.28825e-09
2.66718e-09
2.04745e-08
5.11149e-09
2.69751e-09
2.02102e-08
5.93339e-09
2.73316e-09
1.99818e-08
6.75615e-09
2.77337e-09
1.979e-08
7.57988e-09
2.81915e-09
1.96371e-08
2.89025e-09
1.95198e-08
8.39414e-09
9.06256e-10
3.43054e-09
2.1477e-08
1.78441e-09
3.44427e-09
2.11125e-08
2.64202e-09
3.4602e-09
2.077e-08
3.48398e-09
3.48391e-09
2.04488e-08
4.31459e-09
3.51481e-09
2.01496e-08
5.13858e-09
3.55192e-09
1.9877e-08
5.95991e-09
3.59495e-09
1.96366e-08
6.78067e-09
3.64378e-09
1.94305e-08
7.60086e-09
3.69986e-09
1.92605e-08
3.79074e-09
1.91238e-08
8.41017e-09
9.15951e-10
4.2554e-09
2.11894e-08
1.80237e-09
4.27103e-09
2.08205e-08
2.66668e-09
4.28835e-09
2.04733e-08
3.51438e-09
4.31438e-09
2.01478e-08
4.34951e-09
4.34932e-09
1.98453e-08
5.17545e-09
4.39204e-09
1.95659e-08
5.99622e-09
4.44076e-09
1.93126e-08
6.81511e-09
4.49497e-09
1.909e-08
7.6321e-09
4.55808e-09
1.89022e-08
4.6657e-09
1.87474e-08
8.43684e-09
9.27854e-10
5.07729e-09
2.09406e-08
1.82458e-09
5.09401e-09
2.05643e-08
2.69724e-09
5.11176e-09
2.02102e-08
3.55126e-09
5.13869e-09
1.98758e-08
4.39152e-09
5.17503e-09
1.95641e-08
5.22122e-09
5.22067e-09
1.92768e-08
6.04254e-09
5.27378e-09
1.90125e-08
6.85921e-09
5.3312e-09
1.87723e-08
7.67306e-09
5.39705e-09
1.85631e-08
5.51691e-09
1.83895e-08
8.47434e-09
9.41759e-10
5.89968e-09
2.07329e-08
1.8504e-09
5.91684e-09
2.03462e-08
2.73304e-09
5.9337e-09
1.99823e-08
3.59457e-09
5.96026e-09
1.96367e-08
4.43975e-09
5.99633e-09
1.9311e-08
5.27295e-09
6.04165e-09
1.90093e-08
6.0963e-09
6.0958e-09
1.87325e-08
6.91152e-09
6.15465e-09
1.84759e-08
7.72202e-09
6.21942e-09
1.82426e-08
6.34418e-09
1.80474e-08
8.52197e-09
9.57371e-10
6.72483e-09
2.05686e-08
1.87944e-09
6.7418e-09
2.01684e-08
2.77332e-09
6.75646e-09
1.97906e-08
3.64372e-09
6.78102e-09
1.9431e-08
4.49457e-09
6.81553e-09
1.90899e-08
5.32991e-09
6.85904e-09
1.87693e-08
6.15353e-09
6.91067e-09
1.84724e-08
6.96718e-09
6.96702e-09
1.81951e-08
7.77464e-09
7.0261e-09
1.79368e-08
7.14425e-09
1.77175e-08
8.57731e-09
9.74815e-10
7.55283e-09
2.04515e-08
1.91238e-09
7.56873e-09
2.00331e-08
2.81916e-09
7.58018e-09
1.96378e-08
3.69991e-09
7.60116e-09
1.92611e-08
4.55826e-09
7.63238e-09
1.89027e-08
5.39686e-09
7.67321e-09
1.85626e-08
6.21845e-09
7.72187e-09
1.82411e-08
7.02539e-09
7.77416e-09
1.79357e-08
7.8236e-09
7.82336e-09
1.76465e-08
7.90952e-09
1.73912e-08
8.63559e-09
9.98841e-10
2.03836e-08
8.37603e-09
1.96116e-09
1.99376e-08
8.38727e-09
2.89032e-09
1.95205e-08
8.3944e-09
3.79084e-09
1.91244e-08
8.41042e-09
4.66586e-09
1.8748e-08
8.43705e-09
5.51708e-09
1.839e-08
8.47447e-09
6.34415e-09
1.80479e-08
8.52203e-09
7.14381e-09
1.77171e-08
8.57719e-09
7.90919e-09
1.73902e-08
8.63518e-09
1.70843e-08
8.68507e-09
8.68487e-09
1.03937e-09
1.03938e-09
2.0469e-08
2.04825e-09
1.04438e-09
2.0114e-08
3.03675e-09
1.05034e-09
1.97656e-08
4.01407e-09
1.05936e-09
1.94405e-08
4.98867e-09
1.07199e-09
1.91423e-08
5.96861e-09
1.08822e-09
1.88719e-08
6.96165e-09
1.10799e-09
1.86312e-08
7.97501e-09
1.13134e-09
1.84231e-08
9.01465e-09
1.15883e-09
1.82522e-08
1.19617e-09
1.81221e-08
1.00792e-08
1.04421e-09
2.04818e-09
2.0112e-08
2.05812e-09
2.05811e-09
1.97676e-08
3.05107e-09
2.07027e-09
1.94287e-08
4.03171e-09
2.08771e-09
1.91051e-08
5.00858e-09
2.11134e-09
1.88042e-08
5.98956e-09
2.14176e-09
1.85293e-08
6.98222e-09
2.17881e-09
1.82821e-08
7.99362e-09
2.22251e-09
1.80651e-08
9.02913e-09
2.27428e-09
1.78814e-08
2.3477e-09
1.77305e-08
1.0084e-08
1.05008e-09
3.03673e-09
1.97639e-08
2.06994e-09
3.05086e-09
1.94268e-08
3.06868e-09
3.06858e-09
1.90984e-08
4.05364e-09
3.09415e-09
1.87805e-08
5.03303e-09
3.12768e-09
1.84788e-08
6.015e-09
3.1701e-09
1.81999e-08
7.00679e-09
3.22196e-09
1.79468e-08
8.01505e-09
3.2832e-09
1.7721e-08
9.04515e-09
3.35567e-09
1.75256e-08
3.46161e-09
1.73595e-08
1.00915e-08
1.05928e-09
4.0141e-09
1.94403e-08
2.08731e-09
4.03162e-09
1.91038e-08
3.09377e-09
4.05331e-09
1.87788e-08
4.08567e-09
4.08548e-09
1.84656e-08
5.06976e-09
4.12808e-09
1.81652e-08
6.05392e-09
4.18088e-09
1.78821e-08
7.04593e-09
4.24465e-09
1.76219e-08
8.05204e-09
4.32027e-09
1.73873e-08
9.07719e-09
4.41014e-09
1.71808e-08
4.54519e-09
1.7002e-08
1.01154e-08
1.07201e-09
4.98871e-09
1.91427e-08
2.11123e-09
5.00862e-09
1.88042e-08
3.12722e-09
5.0329e-09
1.84777e-08
4.12769e-09
5.06929e-09
1.81636e-08
5.11905e-09
5.11868e-09
1.78633e-08
6.10745e-09
5.18064e-09
1.75778e-08
7.10037e-09
5.25429e-09
1.73101e-08
8.10522e-09
5.34039e-09
1.70651e-08
9.1266e-09
5.44365e-09
1.68473e-08
5.60409e-09
1.66572e-08
1.01579e-08
1.08825e-09
5.96868e-09
1.88724e-08
2.14182e-09
5.98962e-09
1.85298e-08
3.16998e-09
6.01505e-09
1.81999e-08
4.1803e-09
6.05378e-09
1.7881e-08
5.18018e-09
6.10673e-09
1.75761e-08
6.1755e-09
6.17471e-09
1.72874e-08
7.17139e-09
6.25678e-09
1.70141e-08
8.17532e-09
6.35069e-09
1.6758e-08
9.19367e-09
6.46212e-09
1.65263e-08
6.6426e-09
1.63245e-08
1.02201e-08
1.10803e-09
6.96174e-09
1.86318e-08
2.17887e-09
6.98232e-09
1.82827e-08
3.22203e-09
7.00689e-09
1.79473e-08
4.24445e-09
7.04605e-09
1.7622e-08
5.25333e-09
7.1002e-09
1.73087e-08
6.25592e-09
7.17008e-09
1.70113e-08
7.25724e-09
7.25648e-09
1.67315e-08
8.26198e-09
7.35606e-09
1.64658e-08
9.27766e-09
7.47101e-09
1.62181e-08
7.66305e-09
1.60027e-08
1.0302e-08
1.13139e-09
7.97513e-09
1.84238e-08
2.22261e-09
7.99373e-09
1.80657e-08
3.28334e-09
8.01516e-09
1.77216e-08
4.32046e-09
8.05216e-09
1.73878e-08
5.34022e-09
8.10538e-09
1.70649e-08
6.34936e-09
8.17475e-09
1.67554e-08
7.35484e-09
8.26064e-09
1.64628e-08
8.36111e-09
8.36071e-09
1.61841e-08
9.3752e-09
8.47362e-09
1.59202e-08
8.66446e-09
1.56892e-08
1.0402e-08
1.15889e-09
9.01479e-09
1.82529e-08
2.27441e-09
9.02925e-09
1.78821e-08
3.35587e-09
9.04525e-09
1.75263e-08
4.41044e-09
9.07727e-09
1.71814e-08
5.44414e-09
9.12661e-09
1.68478e-08
6.46213e-09
9.19349e-09
1.65259e-08
7.47002e-09
9.27712e-09
1.62167e-08
8.47292e-09
9.37435e-09
1.59192e-08
9.47962e-09
9.47915e-09
1.56342e-08
9.64052e-09
1.53785e-08
1.05162e-08
1.19625e-09
1.81228e-08
1.00793e-08
2.34787e-09
1.77312e-08
1.00841e-08
3.46186e-09
1.73601e-08
1.00916e-08
4.54552e-09
1.70026e-08
1.01155e-08
5.60451e-09
1.66577e-08
1.01579e-08
6.64303e-09
1.6325e-08
1.022e-08
7.66321e-09
1.60031e-08
1.03018e-08
8.66409e-09
1.56889e-08
1.04017e-08
9.64023e-09
1.53777e-08
1.05156e-08
1.50848e-08
1.06403e-08
1.06399e-08
1.13394e-09
1.13398e-09
1.82011e-08
2.23515e-09
1.13935e-09
1.78735e-08
3.31529e-09
1.14595e-09
1.75395e-08
4.38574e-09
1.15622e-09
1.72138e-08
5.45764e-09
1.17094e-09
1.68995e-08
6.54226e-09
1.1903e-09
1.6597e-08
7.65138e-09
1.21451e-09
1.63075e-08
8.79746e-09
1.24399e-09
1.60331e-08
9.99325e-09
1.27984e-09
1.57765e-08
1.32847e-09
1.55406e-08
1.12463e-08
1.13916e-09
2.23504e-09
1.78718e-08
2.24597e-09
2.24597e-09
1.75542e-08
3.3312e-09
2.25969e-09
1.72298e-08
4.40544e-09
2.27973e-09
1.69073e-08
5.47973e-09
2.30748e-09
1.65934e-08
6.56501e-09
2.34397e-09
1.62904e-08
7.67272e-09
2.38952e-09
1.59994e-08
8.8148e-09
2.44485e-09
1.57221e-08
1.00032e-08
2.51216e-09
1.54607e-08
2.6059e-09
1.52146e-08
1.12416e-08
1.14569e-09
3.31514e-09
1.75382e-08
2.25936e-09
3.33088e-09
1.72282e-08
3.35147e-09
3.35131e-09
1.69146e-08
4.43111e-09
3.38105e-09
1.65995e-08
5.50875e-09
3.42075e-09
1.62879e-08
6.5955e-09
3.47206e-09
1.5985e-08
7.70227e-09
3.53627e-09
1.56933e-08
8.84036e-09
3.61419e-09
1.54136e-08
1.00213e-08
3.70863e-09
1.51482e-08
3.84285e-09
1.48963e-08
1.12475e-08
1.15618e-09
4.3856e-09
1.72137e-08
2.27938e-09
4.40519e-09
1.69063e-08
3.38071e-09
4.43063e-09
1.65981e-08
4.46887e-09
4.46858e-09
1.62899e-08
5.55268e-09
4.5195e-09
1.59826e-08
6.6428e-09
4.58397e-09
1.568e-08
7.7505e-09
4.66373e-09
1.53868e-08
8.88648e-09
4.7608e-09
1.51047e-08
1.00615e-08
4.87858e-09
1.48359e-08
5.04931e-09
1.45803e-08
1.12768e-08
1.17102e-09
5.45751e-09
1.68998e-08
2.30746e-09
5.47959e-09
1.65934e-08
3.42037e-09
5.50844e-09
1.6287e-08
4.51918e-09
5.55205e-09
1.59813e-08
5.61237e-09
5.61187e-09
1.56777e-08
6.70862e-09
5.68828e-09
1.53772e-08
7.81872e-09
5.78146e-09
1.50822e-08
8.95431e-09
5.89352e-09
1.47968e-08
1.01255e-08
6.03029e-09
1.45244e-08
6.23352e-09
1.42662e-08
1.13324e-08
1.19038e-09
6.54214e-09
1.65974e-08
2.34412e-09
6.56489e-09
1.62907e-08
3.47206e-09
6.59536e-09
1.5985e-08
4.58349e-09
6.64246e-09
1.56792e-08
5.6879e-09
6.7077e-09
1.53759e-08
6.79373e-09
6.7928e-09
1.50771e-08
7.90914e-09
6.89789e-09
1.47822e-08
9.04554e-09
7.02211e-09
1.4493e-08
1.02146e-08
7.17238e-09
1.42152e-08
7.40259e-09
1.39542e-08
1.14159e-08
1.2146e-09
7.6513e-09
1.6308e-08
2.38968e-09
7.67263e-09
1.59999e-08
3.53647e-09
7.70217e-09
1.56937e-08
4.66369e-09
7.75042e-09
1.53868e-08
5.78062e-09
7.81833e-09
1.50811e-08
6.89709e-09
7.9076e-09
1.47801e-08
8.02118e-09
8.02028e-09
1.4485e-08
9.1611e-09
8.15442e-09
1.41935e-08
1.03291e-08
8.31335e-09
1.3909e-08
8.56203e-09
1.36438e-08
1.15285e-08
1.24409e-09
8.79741e-09
1.60336e-08
2.44505e-09
8.81475e-09
1.57227e-08
3.61447e-09
8.84028e-09
1.54141e-08
4.76117e-09
8.8864e-09
1.51051e-08
5.89353e-09
8.95424e-09
1.47967e-08
7.02086e-09
9.04471e-09
1.4491e-08
8.15324e-09
9.15949e-09
1.41912e-08
9.29844e-09
9.29789e-09
1.38955e-08
1.04676e-08
9.45975e-09
1.36046e-08
9.71459e-09
1.33341e-08
1.16702e-08
1.27995e-09
9.99324e-09
1.57772e-08
2.51238e-09
1.00032e-08
1.54613e-08
3.70895e-09
1.00213e-08
1.51487e-08
4.87903e-09
1.00614e-08
1.48363e-08
6.03098e-09
1.01253e-08
1.45248e-08
7.17254e-09
1.02141e-08
1.42149e-08
8.31242e-09
1.03283e-08
1.3908e-08
9.45912e-09
1.04665e-08
1.36038e-08
1.0625e-08
1.06244e-08
1.33037e-08
1.08576e-08
1.30216e-08
1.18389e-08
1.32859e-09
1.55412e-08
1.12463e-08
2.60615e-09
1.52151e-08
1.12416e-08
3.84321e-09
1.48968e-08
1.12475e-08
5.04978e-09
1.45807e-08
1.12767e-08
6.23409e-09
1.42666e-08
1.13322e-08
7.40316e-09
1.39545e-08
1.14156e-08
8.5623e-09
1.36441e-08
1.15282e-08
9.7143e-09
1.33338e-08
1.16697e-08
1.08574e-08
1.3021e-08
1.18381e-08
1.27184e-08
1.20409e-08
1.20405e-08
1.16535e-09
1.16538e-09
1.58704e-08
2.29706e-09
1.17058e-09
1.55712e-08
3.40687e-09
1.17703e-09
1.52527e-08
4.50681e-09
1.18727e-09
1.49266e-08
5.609e-09
1.20215e-09
1.45951e-08
6.72618e-09
1.222e-09
1.42578e-08
7.87228e-09
1.24725e-09
1.39142e-08
9.06288e-09
1.27861e-09
1.35639e-08
1.03154e-08
1.31758e-09
1.32064e-08
1.37066e-09
1.28405e-08
1.16448e-08
1.17041e-09
2.29691e-09
1.55699e-08
2.30767e-09