/*--------------------------------*- C++ -*----------------------------------*\
| =========                 |                                                 |
| \\      /  F ield         | foam-extend: Open Source CFD                    |
|  \\    /   O peration     | Version:     3.1                                |
|   \\  /    A nd           | Web:         http://www.extend-project.de       |
|    \\/     M anipulation  |                                                 |
\*---------------------------------------------------------------------------*/
FoamFile
{
    version     2.0;
    format      ascii;
    class       surfaceScalarField;
    location    "0.0012";
    object      phi_0;
}
// * * * * * * * * * * * * * * * * * * * * * * * * * * * * * * * * * * * * * //

dimensions      [0 3 -1 0 0 0 0];

internalField   nonuniform List<scalar> 
45800
(
-7.52327e-11
-7.5598e-11
2.61693e-08
-1.44571e-10
-7.38603e-11
2.57614e-08
-2.06524e-10
-6.96109e-11
2.54035e-08
-2.62828e-10
-6.45763e-11
2.50975e-08
-3.1539e-10
-5.93381e-11
2.48421e-08
-3.65538e-10
-5.40199e-11
2.46349e-08
-4.13969e-10
-4.87977e-11
2.44737e-08
-4.60475e-10
-4.39606e-11
2.43567e-08
-5.03432e-10
-3.99674e-11
2.4282e-08
-3.64846e-11
2.4247e-08
-5.39132e-10
-7.34963e-11
-1.44672e-10
2.57608e-08
-1.43151e-10
-1.43483e-10
2.53513e-08
-2.06868e-10
-1.37956e-10
2.49891e-08
-2.65007e-10
-1.30228e-10
2.46743e-08
-3.18949e-10
-1.21838e-10
2.44066e-08
-3.69993e-10
-1.13405e-10
2.41845e-08
-4.18847e-10
-1.05313e-10
2.40059e-08
-4.65335e-10
-9.81058e-11
2.38689e-08
-5.0807e-10
-9.24472e-11
2.37714e-08
-8.78932e-11
2.37096e-08
-5.42131e-10
-6.94738e-11
-2.0622e-10
2.54029e-08
-1.37607e-10
-2.0679e-10
2.49885e-08
-2.02072e-10
-2.02308e-10
2.462e-08
-2.61958e-10
-1.94208e-10
2.42952e-08
-3.17517e-10
-1.84402e-10
2.40135e-08
-3.69715e-10
-1.74347e-10
2.37744e-08
-4.19283e-10
-1.64854e-10
2.35764e-08
-4.66057e-10
-1.56622e-10
2.34172e-08
-5.09004e-10
-1.5053e-10
2.3295e-08
-1.46234e-10
2.3206e-08
-5.43331e-10
-6.4651e-11
-2.6237e-10
2.50974e-08
-1.30155e-10
-2.64625e-10
2.46738e-08
-1.93938e-10
-2.61841e-10
2.42947e-08
-2.54613e-10
-2.54815e-10
2.39576e-08
-3.11517e-10
-2.45019e-10
2.36606e-08
-3.64776e-10
-2.34177e-10
2.34028e-08
-4.14883e-10
-2.23844e-10
2.31833e-08
-4.6181e-10
-2.15112e-10
2.30004e-08
-5.05026e-10
-2.08948e-10
2.28524e-08
-2.05377e-10
2.27359e-08
-5.40347e-10
-5.94503e-11
-3.149e-10
2.48422e-08
-1.2199e-10
-3.18496e-10
2.44065e-08
-1.84393e-10
-3.17169e-10
2.40131e-08
-2.44774e-10
-3.11434e-10
2.36601e-08
-3.02191e-10
-3.02443e-10
2.33458e-08
-3.56193e-10
-2.91488e-10
2.3068e-08
-4.06606e-10
-2.80283e-10
2.28254e-08
-4.53349e-10
-2.70651e-10
2.26169e-08
-4.96536e-10
-2.63942e-10
2.24417e-08
-2.60915e-10
2.22972e-08
-5.32839e-10
-5.41219e-11
-3.65048e-10
2.46349e-08
-1.136e-10
-3.69539e-10
2.41846e-08
-1.74549e-10
-3.69317e-10
2.37744e-08
-2.34205e-10
-3.64501e-10
2.34024e-08
-2.91193e-10
-3.56223e-10
2.30675e-08
-3.45043e-10
-3.45486e-10
2.2768e-08
-3.95253e-10
-3.33374e-10
2.25014e-08
-4.41278e-10
-3.2181e-10
2.22658e-08
-4.83647e-10
-3.12831e-10
2.20612e-08
-3.09062e-10
2.18878e-08
-5.20321e-10
-4.88934e-11
-4.13512e-10
2.44738e-08
-1.05496e-10
-4.18424e-10
2.40061e-08
-1.65115e-10
-4.18908e-10
2.35765e-08
-2.24138e-10
-4.14562e-10
2.31832e-08
-2.80348e-10
-4.06382e-10
2.28249e-08
-3.32889e-10
-3.95342e-10
2.25005e-08
-3.8155e-10
-3.82047e-10
2.22081e-08
-4.25606e-10
-3.67461e-10
2.19446e-08
-4.65664e-10
-3.53297e-10
2.17088e-08
-3.45544e-10
2.15048e-08
-5.01586e-10
-4.40489e-11
-4.6009e-10
2.43569e-08
-9.82755e-11
-4.64978e-10
2.38691e-08
-1.56871e-10
-4.65732e-10
2.34174e-08
-2.15455e-10
-4.61507e-10
2.30005e-08
-2.71013e-10
-4.53033e-10
2.26169e-08
-3.21708e-10
-4.40974e-10
2.22649e-08
-3.66954e-10
-4.25533e-10
2.19436e-08
-4.0614e-10
-4.06376e-10
2.16497e-08
-4.40658e-10
-3.83368e-10
2.13815e-08
-3.65048e-10
2.11452e-08
-4.73864e-10
-4.00432e-11
-5.03147e-10
2.42822e-08
-9.25905e-11
-5.07808e-10
2.37716e-08
-1.50733e-10
-5.08764e-10
2.32952e-08
-2.09207e-10
-5.04795e-10
2.28525e-08
-2.64252e-10
-4.96288e-10
2.24418e-08
-3.12956e-10
-4.83348e-10
2.2061e-08
-3.53132e-10
-4.65402e-10
2.17083e-08
-3.83144e-10
-4.40609e-10
2.13811e-08
-4.05049e-10
-4.05181e-10
2.10777e-08
-3.62786e-10
2.08052e-08
-4.30113e-10
-3.65435e-11
2.42471e-08
-5.38949e-10
-8.80025e-11
2.37097e-08
-5.41964e-10
-1.46382e-10
2.32061e-08
-5.43181e-10
-2.0555e-10
2.2736e-08
-5.40205e-10
-2.61088e-10
2.22973e-08
-5.32692e-10
-3.09182e-10
2.18879e-08
-5.20165e-10
-3.45616e-10
2.15048e-08
-5.01441e-10
-3.65036e-10
2.11451e-08
-4.73764e-10
-3.62658e-10
2.08049e-08
-4.30081e-10
2.04912e-08
-3.55546e-10
-3.55588e-10
1.07508e-10
1.07181e-10
2.59546e-08
2.14442e-10
1.08454e-10
2.5546e-08
3.22864e-10
1.1125e-10
2.51838e-08
4.31554e-10
1.14258e-10
2.48745e-08
5.3894e-10
1.16986e-10
2.46177e-08
6.43797e-10
1.19276e-10
2.44107e-08
7.45293e-10
1.20918e-10
2.42513e-08
8.43249e-10
1.21669e-10
2.41371e-08
9.38502e-10
1.21426e-10
2.40653e-08
1.21566e-10
2.40311e-08
1.03287e-09
1.0877e-10
2.14364e-10
2.55448e-08
2.15402e-10
2.15119e-10
2.5138e-08
3.2224e-10
2.18621e-10
2.47749e-08
4.29201e-10
2.234e-10
2.44582e-08
5.35161e-10
2.28102e-10
2.41895e-08
6.38909e-10
2.32094e-10
2.39679e-08
7.39629e-10
2.34926e-10
2.37912e-08
8.37208e-10
2.36125e-10
2.36569e-08
9.32482e-10
2.35667e-10
2.35619e-08
2.37058e-10
2.34991e-08
1.02744e-09
1.1135e-10
3.23172e-10
2.51827e-08
2.18902e-10
3.22334e-10
2.47737e-08
3.24764e-10
3.24579e-10
2.44082e-08
4.29785e-10
3.293e-10
2.40843e-08
5.33802e-10
3.34781e-10
2.38028e-08
6.35931e-10
3.39594e-10
2.35648e-08
7.35403e-10
3.42889e-10
2.3369e-08
8.32275e-10
3.44062e-10
2.32124e-08
9.27462e-10
3.4311e-10
2.30924e-08
3.45609e-10
2.30019e-08
1.02297e-09
1.1417e-10
4.32012e-10
2.48744e-08
2.23419e-10
4.29587e-10
2.44573e-08
3.29489e-10
4.29924e-10
2.40833e-08
4.33393e-10
4.33252e-10
2.37498e-08
5.35649e-10
4.38265e-10
2.34549e-08
6.36152e-10
4.43204e-10
2.31986e-08
7.34489e-10
4.46511e-10
2.29813e-08
8.30833e-10
4.47275e-10
2.28009e-08
9.26105e-10
4.4562e-10
2.26546e-08
4.4913e-10
2.25365e-08
1.02199e-09
1.16868e-10
5.39431e-10
2.46179e-08
2.27923e-10
5.35622e-10
2.41895e-08
3.3472e-10
5.34168e-10
2.38021e-08
4.3841e-10
5.3577e-10
2.34539e-08
5.39621e-10
5.39449e-10
2.31434e-08
6.38699e-10
5.43789e-10
2.28683e-08
7.35978e-10
5.46957e-10
2.26276e-08
8.32038e-10
5.47345e-10
2.24208e-08
9.2776e-10
5.44978e-10
2.22466e-08
5.49448e-10
2.21004e-08
1.02431e-09
1.19167e-10
6.44292e-10
2.44109e-08
2.31882e-10
6.39374e-10
2.39681e-08
3.39348e-10
6.36356e-10
2.35647e-08
4.43081e-10
6.36471e-10
2.3198e-08
5.43955e-10
6.3873e-10
2.28673e-08
6.42283e-10
6.41943e-10
2.25715e-08
7.38732e-10
6.44714e-10
2.23071e-08
8.34703e-10
6.45084e-10
2.20721e-08
9.31502e-10
6.42532e-10
2.18669e-08
6.48143e-10
2.1691e-08
1.02953e-09
1.20816e-10
7.45758e-10
2.42516e-08
2.34726e-10
7.4007e-10
2.37915e-08
3.42596e-10
7.35815e-10
2.33692e-08
4.46154e-10
7.34871e-10
2.29813e-08
5.46762e-10
7.36281e-10
2.26267e-08
6.4502e-10
7.38721e-10
2.23054e-08
7.41372e-10
7.41016e-10
2.20155e-08
8.37732e-10
7.4161e-10
2.17517e-08
9.36474e-10
7.39754e-10
2.15129e-08
7.46858e-10
2.13051e-08
1.03742e-09
1.21574e-10
8.43651e-10
2.41374e-08
2.3594e-10
8.37593e-10
2.36572e-08
3.43786e-10
8.32648e-10
2.32127e-08
4.46894e-10
8.31209e-10
2.28011e-08
5.46912e-10
8.32454e-10
2.24207e-08
6.45029e-10
8.3511e-10
2.20704e-08
7.41917e-10
8.37914e-10
2.17498e-08
8.3967e-10
8.39582e-10
2.1454e-08
9.41524e-10
8.39208e-10
2.11801e-08
8.47472e-10
2.09383e-08
1.0478e-09
1.21342e-10
9.38815e-10
2.40657e-08
2.35506e-10
9.32783e-10
2.35622e-08
3.42877e-10
9.27761e-10
2.30927e-08
4.45323e-10
9.2642e-10
2.26548e-08
5.44629e-10
9.28114e-10
2.22468e-08
6.42335e-10
9.31922e-10
2.18665e-08
7.39774e-10
9.36859e-10
2.1512e-08
8.3928e-10
9.41688e-10
2.11795e-08
9.44723e-10
9.447e-10
2.08667e-08
9.52502e-10
2.05841e-08
1.06079e-09
1.21497e-10
2.40314e-08
1.03309e-09
2.36927e-10
2.34994e-08
1.02766e-09
3.45427e-10
2.30022e-08
1.02319e-09
4.48914e-10
2.25367e-08
1.02222e-09
5.49224e-10
2.21006e-08
1.02456e-09
6.47966e-10
2.16912e-08
1.0298e-09
7.46714e-10
2.13053e-08
1.03768e-09
8.47394e-10
2.09381e-08
1.04801e-09
9.52541e-10
2.05836e-08
1.06091e-09
2.02519e-08
1.07219e-09
1.07222e-09
3.27069e-10
3.26814e-10
2.53007e-08
6.46129e-10
3.28836e-10
2.48981e-08
9.60498e-10
3.32126e-10
2.45373e-08
1.27026e-09
3.35988e-10
2.42288e-08
1.57481e-09
3.40034e-10
2.39731e-08
1.8733e-09
3.44034e-10
2.37682e-08
2.16452e-09
3.47661e-10
2.36124e-08
2.44681e-09
3.50509e-10
2.35043e-08
2.71768e-09
3.52341e-10
2.34421e-08
3.55283e-10
2.34217e-08
2.97178e-09
3.29057e-10
6.4609e-10
2.48965e-08
6.4877e-10
6.48569e-10
2.44985e-08
9.62601e-10
6.53319e-10
2.41399e-08
1.27153e-09
6.59771e-10
2.38255e-08
1.57534e-09
6.66823e-10
2.35589e-08
1.87323e-09
6.73849e-10
2.33402e-08
2.16408e-09
6.80186e-10
2.31678e-08
2.44641e-09
6.85086e-10
2.304e-08
2.71791e-09
6.88378e-10
2.29544e-08
6.95756e-10
2.29034e-08
2.97311e-09
3.32146e-10
9.60804e-10
2.45359e-08
6.53463e-10
9.62705e-10
2.41383e-08
9.67208e-10
9.67103e-10
2.37806e-08
1.27495e-09
9.74466e-10
2.34619e-08
1.57724e-09
9.83234e-10
2.31841e-08
1.87363e-09
9.92083e-10
2.29502e-08
2.16305e-09
1.00001e-09
2.27597e-08
2.44425e-09
1.00603e-09
2.26103e-08
2.71526e-09
1.00996e-09
2.24998e-08
1.02117e-09
2.24207e-08
2.97107e-09
3.35873e-10
1.27071e-09
2.42286e-08
6.59676e-10
1.27191e-09
2.38243e-08
9.74494e-10
1.2751e-09
2.34604e-08
1.28197e-09
1.28192e-09
2.31348e-08
1.58301e-09
1.29109e-09
2.2846e-08
1.87779e-09
1.30076e-09
2.25952e-08
2.16569e-09
1.30928e-09
2.23841e-08
2.44563e-09
1.31542e-09
2.22115e-08
2.71581e-09
1.31912e-09
2.20752e-08
1.3334e-09
2.19687e-08
2.97136e-09
3.39907e-10
1.5753e-09
2.39734e-08
6.66597e-10
1.5758e-09
2.35589e-08
9.83031e-10
1.57762e-09
2.31831e-08
1.29105e-09
1.58315e-09
2.28447e-08
1.59157e-09
1.59149e-09
2.25424e-08
1.8849e-09
1.60098e-09
2.22748e-08
2.17108e-09
1.60939e-09
2.20413e-08
2.44964e-09
1.61477e-09
2.18429e-08
2.7189e-09
1.61729e-09
2.16792e-08
1.6337e-09
2.15451e-08
2.97393e-09
3.43914e-10
1.87379e-09
2.37685e-08
6.73614e-10
1.87371e-09
2.33405e-08
9.91766e-10
1.87409e-09
2.29501e-08
1.30046e-09
1.87816e-09
2.25943e-08
1.60092e-09
1.88497e-09
2.22734e-08
1.89338e-09
1.89314e-09
2.19869e-08
2.17786e-09
1.90068e-09
2.17314e-08
2.45472e-09
1.9048e-09
2.15052e-08
2.72314e-09
1.90528e-09
2.13105e-08
1.92263e-09
2.11472e-08
2.97801e-09
3.47548e-10
2.165e-09
2.36128e-08
6.79961e-10
2.16455e-09
2.31682e-08
9.99682e-10
2.16351e-09
2.276e-08
1.30883e-09
2.16616e-09
2.23841e-08
1.60894e-09
2.17148e-09
2.20401e-08
1.90066e-09
2.17785e-09
2.1729e-08
2.1838e-09
2.18357e-09
2.14495e-08
2.45895e-09
2.18588e-09
2.11955e-08
2.72672e-09
2.18375e-09
2.09666e-08
2.20024e-09
2.07716e-08
2.98265e-09
3.50404e-10
2.44723e-09
2.35048e-08
6.84879e-10
2.44683e-09
2.30404e-08
1.00573e-09
2.44468e-09
2.26107e-08
1.315e-09
2.44611e-09
2.22119e-08
1.61424e-09
2.45019e-09
2.18427e-08
1.90442e-09
2.45519e-09
2.15029e-08
2.18581e-09
2.45913e-09
2.11929e-08
2.45932e-09
2.45938e-09
2.0907e-08
2.7268e-09
2.45384e-09
2.06426e-08
2.46591e-09
2.0413e-08
2.98638e-09
3.52246e-10
2.71804e-09
2.34426e-08
6.88195e-10
2.71827e-09
2.29548e-08
1.0097e-09
2.71564e-09
2.25002e-08
1.31879e-09
2.71623e-09
2.20756e-08
1.61692e-09
2.71938e-09
2.16795e-08
1.90498e-09
2.72367e-09
2.131e-08
2.18348e-09
2.72718e-09
2.09654e-08
2.45366e-09
2.72701e-09
2.06417e-08
2.71884e-09
2.71891e-09
2.03365e-08
2.71864e-09
2.0063e-08
2.98727e-09
3.55203e-10
2.34222e-08
2.97205e-09
6.95604e-10
2.29039e-08
2.97339e-09
1.02096e-09
2.24211e-08
2.97137e-09
1.33315e-09
2.19691e-08
2.97169e-09
1.63344e-09
2.15454e-08
2.97429e-09
1.92241e-09
2.11475e-08
2.97839e-09
2.2e-09
2.07719e-08
2.98301e-09
2.46568e-09
2.04127e-08
2.98667e-09
2.71854e-09
2.00622e-08
2.98743e-09
1.97331e-08
2.97792e-09
2.978e-09
5.50986e-10
5.50815e-10
2.41989e-08
1.08664e-09
5.53704e-10
2.38088e-08
1.612e-09
5.57717e-10
2.34542e-08
2.12925e-09
5.62896e-10
2.31486e-08
2.63957e-09
5.6904e-10
2.28938e-08
3.14346e-09
5.75887e-10
2.26884e-08
3.64052e-09
5.83052e-10
2.25323e-08
4.12909e-09
5.90056e-10
2.24257e-08
4.60559e-09
5.96643e-10
2.2369e-08
6.0556e-10
2.23606e-08
5.06112e-09
5.53809e-10
1.08662e-09
2.38069e-08
1.09133e-09
1.09121e-09
2.34235e-08
1.61751e-09
1.09788e-09
2.30736e-08
2.13505e-09
1.10707e-09
2.27638e-08
2.64549e-09
1.11809e-09
2.24994e-08
3.14936e-09
1.13047e-09
2.22818e-08
3.64637e-09
1.14343e-09
2.21105e-08
4.13509e-09
1.15611e-09
2.19852e-08
4.61209e-09
1.1684e-09
2.19056e-08
1.18778e-09
2.18657e-08
5.06759e-09
5.57643e-10
1.61227e-09
2.34526e-08
1.09786e-09
1.61758e-09
2.30717e-08
1.6254e-09
1.62535e-09
2.27256e-08
2.14304e-09
1.63715e-09
2.24141e-08
2.65283e-09
1.65171e-09
2.21407e-08
3.15564e-09
1.66805e-09
2.19098e-08
3.6512e-09
1.68526e-09
2.17223e-08
4.13829e-09
1.70214e-09
2.15772e-08
4.61392e-09
1.71864e-09
2.14739e-08
1.74726e-09
2.14063e-08
5.06882e-09
5.62766e-10
2.12965e-09
2.31485e-08
1.10685e-09
2.13537e-09
2.27625e-08
1.63701e-09
2.14314e-09
2.24125e-08
2.15599e-09
2.15598e-09
2.2097e-08
2.6657e-09
2.17276e-09
2.18152e-08
3.16746e-09
2.19177e-09
2.15697e-08
3.66151e-09
2.21157e-09
2.13638e-08
4.14676e-09
2.23098e-09
2.11974e-08
4.6204e-09
2.25011e-09
2.10701e-08
2.2865e-09
2.09763e-08
5.07357e-09
5.68926e-10
2.64e-09
2.28941e-08
1.11785e-09
2.64592e-09
2.24994e-08
1.65137e-09
2.65315e-09
2.21396e-08
2.17254e-09
2.66578e-09
2.18137e-08
2.68319e-09
2.68315e-09
2.15214e-08
3.18429e-09
2.70358e-09
2.12619e-08
3.67657e-09
2.72474e-09
2.10359e-08
4.15976e-09
2.74482e-09
2.08458e-08
4.63124e-09
2.76465e-09
2.06931e-08
2.80702e-09
2.05735e-08
5.08232e-09
5.75779e-10
3.14391e-09
2.26888e-08
1.13026e-09
3.1498e-09
2.22821e-08
1.66771e-09
3.15607e-09
2.19097e-08
2.1913e-09
3.1678e-09
2.15686e-08
2.7033e-09
3.18428e-09
2.12602e-08
3.20457e-09
3.20432e-09
2.09849e-08
3.69526e-09
3.2257e-09
2.07397e-08
4.17589e-09
3.24512e-09
2.05243e-08
4.64506e-09
3.26345e-09
2.03425e-08
3.30927e-09
2.01956e-08
5.09443e-09
5.82951e-10
3.64096e-09
2.25328e-08
1.14323e-09
3.64681e-09
2.21109e-08
1.68495e-09
3.65166e-09
2.17227e-08
2.21109e-09
3.662e-09
2.13638e-08
2.72405e-09
3.67695e-09
2.10345e-08
3.22533e-09
3.69508e-09
2.0737e-08
3.71494e-09
3.71474e-09
2.04708e-08
4.19299e-09
3.73232e-09
2.02302e-08
4.65973e-09
3.74718e-09
2.00162e-08
3.79256e-09
1.98393e-08
5.10876e-09
5.89964e-10
4.1295e-09
2.24263e-08
1.15593e-09
4.1355e-09
2.19858e-08
1.70187e-09
4.13874e-09
2.15776e-08
2.23062e-09
4.14726e-09
2.11978e-08
2.74426e-09
4.16035e-09
2.08457e-08
3.24438e-09
4.17626e-09
2.05216e-08
3.73182e-09
4.19297e-09
2.02272e-08
4.20701e-09
4.20711e-09
1.9957e-08
4.67139e-09
4.21621e-09
1.97092e-08
4.2545e-09
1.94993e-08
5.12314e-09
5.96561e-10
4.60595e-09
2.23696e-08
1.16824e-09
4.61246e-09
2.19062e-08
1.71842e-09
4.61432e-09
2.14744e-08
2.24984e-09
4.62086e-09
2.10706e-08
2.76439e-09
4.63174e-09
2.06936e-08
3.2631e-09
4.64557e-09
2.0342e-08
3.74661e-09
4.66011e-09
2.00148e-08
4.21576e-09
4.67149e-09
1.97082e-08
4.67397e-09
4.67403e-09
1.94204e-08
4.69093e-09
1.91664e-08
5.13414e-09
6.05492e-10
2.23612e-08
5.06142e-09
1.18765e-09
2.18663e-08
5.06789e-09
1.74708e-09
2.14068e-08
5.06915e-09
2.2863e-09
2.09768e-08
5.07394e-09
2.80682e-09
2.05739e-08
5.08271e-09
3.3091e-09
2.0196e-08
5.09481e-09
3.79231e-09
1.98396e-08
5.10911e-09
4.25413e-09
1.9499e-08
5.12338e-09
4.69068e-09
1.91655e-08
5.13419e-09
1.88535e-08
5.13057e-09
5.13062e-09
7.60579e-10
7.60484e-10
2.26778e-08
1.49952e-09
7.64306e-10
2.23055e-08
2.22409e-09
7.69308e-10
2.19603e-08
2.93927e-09
7.76296e-10
2.16572e-08
3.64905e-09
7.85327e-10
2.13987e-08
4.35658e-09
7.96191e-10
2.11847e-08
5.064e-09
8.08566e-10
2.10163e-08
5.77209e-09
8.22068e-10
2.08955e-08
6.47934e-09
8.36637e-10
2.08251e-08
8.55921e-10
2.08065e-08
7.17747e-09
7.64302e-10
1.49951e-09
2.23035e-08
1.50644e-09
1.50638e-09
2.19393e-08
2.23328e-09
1.51557e-09
2.16005e-08
2.94996e-09
1.52852e-09
2.12949e-08
3.6607e-09
1.54509e-09
2.10289e-08
4.36861e-09
1.56513e-09
2.08049e-08
5.07591e-09
1.58799e-09
2.06237e-08
5.78351e-09
1.61298e-09
2.04867e-08
6.48988e-09
1.64036e-09
2.03955e-08
1.67969e-09
2.03469e-08
7.18488e-09
7.69151e-10
2.22428e-09
2.19587e-08
1.51542e-09
2.23328e-09
2.15985e-08
2.24543e-09
2.2454e-09
2.12658e-08
2.96388e-09
2.26324e-09
2.0961e-08
3.67515e-09
2.286e-09
2.06885e-08
4.3827e-09
2.3133e-09
2.0454e-08
5.08865e-09
2.34462e-09
2.02597e-08
5.79393e-09
2.37899e-09
2.01059e-08
6.49737e-09
2.41683e-09
1.9994e-08
2.4741e-09
1.99203e-08
7.18904e-09
7.76173e-10
2.93957e-09
2.1657e-08
1.52821e-09
2.95017e-09
2.12935e-08
2.26298e-09
2.96387e-09
2.09593e-08
2.98498e-09
2.98496e-09
2.06533e-08
3.69797e-09
3.01264e-09
2.03756e-08
4.40557e-09
3.04563e-09
2.01298e-08
5.11044e-09
3.08312e-09
1.99204e-08
5.81349e-09
3.12447e-09
1.97489e-08
6.51357e-09
3.1704e-09
1.96165e-08
3.24328e-09
1.95197e-08
7.20102e-09
7.85252e-10
3.64938e-09
2.1399e-08
1.54487e-09
3.66102e-09
2.10289e-08
2.28558e-09
3.67536e-09
2.06874e-08
3.0123e-09
3.69791e-09
2.0374e-08
3.72859e-09
3.72849e-09
2.00893e-08
4.4372e-09
3.76576e-09
1.98331e-08
5.14099e-09
3.8077e-09
1.96075e-08
5.84187e-09
3.85319e-09
1.94162e-08
6.53876e-09
3.90428e-09
1.92624e-08
3.99007e-09
1.91434e-08
7.22201e-09
7.96121e-10
4.35692e-09
2.11852e-08
1.56499e-09
4.36895e-09
2.08053e-08
2.313e-09
4.38304e-09
2.0454e-08
3.04506e-09
4.40579e-09
2.01287e-08
3.76534e-09
4.437e-09
1.98314e-08
4.47642e-09
4.47605e-09
1.95635e-08
5.17993e-09
4.52096e-09
1.9323e-08
5.8783e-09
4.56852e-09
1.91106e-08
6.57201e-09
4.62115e-09
1.89319e-08
4.71598e-09
1.87898e-08
7.25186e-09
8.08503e-10
5.06435e-09
2.10169e-08
1.58786e-09
5.07627e-09
2.06242e-08
2.34442e-09
5.08902e-09
2.02602e-08
3.08269e-09
5.11085e-09
1.99205e-08
3.80684e-09
5.14124e-09
1.96061e-08
4.52032e-09
5.1794e-09
1.93201e-08
5.22465e-09
5.22432e-09
1.90631e-08
5.92101e-09
5.27213e-09
1.88302e-08
6.61141e-09
5.32302e-09
1.86239e-08
5.42089e-09
1.84561e-08
7.28965e-09
8.22016e-10
5.77243e-09
2.08962e-08
1.61287e-09
5.78386e-09
2.04873e-08
2.37883e-09
5.7943e-09
2.01064e-08
3.12427e-09
5.81391e-09
1.97494e-08
3.85272e-09
5.84238e-09
1.94161e-08
4.56748e-09
5.8784e-09
1.91078e-08
5.27128e-09
5.92057e-09
1.88271e-08
5.96548e-09
5.96547e-09
1.85695e-08
6.65279e-09
6.01072e-09
1.83342e-08
6.10207e-09
1.8138e-08
7.33298e-09
8.36595e-10
6.47966e-09
2.08258e-08
1.64028e-09
6.4902e-09
2.03962e-08
2.41673e-09
6.49771e-09
1.99946e-08
3.17029e-09
6.51395e-09
1.9617e-08
3.90424e-09
6.53915e-09
1.92628e-08
4.62087e-09
6.57234e-09
1.89314e-08
5.32221e-09
6.61152e-09
1.86225e-08
6.0101e-09
6.65261e-09
1.83331e-08
6.68928e-09
6.68921e-09
1.80628e-08
6.7535e-09
1.78267e-08
7.37751e-09
8.55895e-10
2.08072e-08
7.17774e-09
1.67965e-09
2.03476e-08
7.18515e-09
2.47404e-09
1.99208e-08
7.18933e-09
3.24323e-09
1.95202e-08
7.20133e-09
3.99004e-09
1.91439e-08
7.22232e-09
4.71597e-09
1.87903e-08
7.25212e-09
5.42073e-09
1.84565e-08
7.28986e-09
6.10165e-09
1.81377e-08
7.33305e-09
6.75319e-09
1.78258e-08
7.37733e-09
1.7536e-08
7.41215e-09
7.41208e-09
9.37755e-10
9.3772e-10
2.08024e-08
1.84911e-09
9.4242e-10
2.04517e-08
2.7437e-09
9.48543e-10
2.01172e-08
3.6297e-09
9.57577e-10
1.98136e-08
4.51449e-09
9.69868e-10
1.9544e-08
5.40485e-09
9.85352e-10
1.9309e-08
6.30701e-09
1.0039e-09
1.91103e-08
7.22631e-09
1.0254e-09
1.89508e-08
8.16641e-09
1.05019e-09
1.88348e-08
1.08298e-09
1.8766e-08
9.12399e-09
9.42329e-10
1.84907e-09
2.04499e-08
1.8581e-09
1.85807e-09
2.01079e-08
2.75631e-09
1.87e-09
1.97808e-08
3.64487e-09
1.88717e-09
1.94767e-08
4.53126e-09
1.91005e-09
1.92023e-08
5.42213e-09
1.93896e-09
1.89604e-08
6.32359e-09
1.9736e-09
1.87526e-08
7.24091e-09
2.01375e-09
1.8581e-08
8.17744e-09
2.06037e-09
1.84488e-08
2.12506e-09
1.83552e-08
9.12708e-09
9.48329e-10
2.74377e-09
2.01156e-08
1.86976e-09
2.75621e-09
1.9779e-08
2.77302e-09
2.77297e-09
1.94596e-08
3.6651e-09
2.79751e-09
1.91585e-08
4.55333e-09
2.82963e-09
1.88807e-08
5.44461e-09
2.86974e-09
1.8632e-08
6.34478e-09
2.918e-09
1.84152e-08
7.25889e-09
2.97404e-09
1.82315e-08
8.19035e-09
3.03914e-09
1.80838e-08
3.13242e-09
1.79706e-08
9.13266e-09
9.5748e-10
3.62985e-09
1.98135e-08
1.88682e-09
3.64492e-09
1.94755e-08
2.79718e-09
3.66493e-09
1.91569e-08
3.69528e-09
3.69518e-09
1.88575e-08
4.58731e-09
3.73535e-09
1.85778e-08
5.48009e-09
3.78488e-09
1.83219e-08
6.37993e-09
3.84392e-09
1.80946e-08
7.29161e-09
3.91279e-09
1.78985e-08
8.21824e-09
3.99319e-09
1.77358e-08
4.11185e-09
1.76054e-08
9.15308e-09
9.69847e-10
4.51466e-09
1.95444e-08
1.90989e-09
4.53143e-09
1.92024e-08
2.82919e-09
4.55336e-09
1.88796e-08
3.73497e-09
4.58705e-09
1.85764e-08
4.63318e-09
4.63296e-09
1.82935e-08
5.52925e-09
4.69039e-09
1.80315e-08
6.42938e-09
4.75809e-09
1.77932e-08
7.33933e-09
4.83613e-09
1.75829e-08
8.26204e-09
4.92802e-09
1.74048e-08
5.06852e-09
1.72585e-08
9.19029e-09
9.85336e-10
5.40505e-09
1.93094e-08
1.93893e-09
5.42232e-09
1.89608e-08
2.86953e-09
5.44479e-09
1.8632e-08
3.78429e-09
5.48013e-09
1.83209e-08
4.68993e-09
5.52879e-09
1.803e-08
5.59164e-09
5.59107e-09
1.77611e-08
6.49375e-09
5.66572e-09
1.75132e-08
7.40225e-09
5.75024e-09
1.7288e-08
8.32163e-09
5.84883e-09
1.70917e-08
6.00625e-09
1.69289e-08
9.24488e-09
1.00389e-09
6.30722e-09
1.91108e-08
1.97357e-09
6.3238e-09
1.87531e-08
2.91793e-09
6.34501e-09
1.84156e-08
3.84361e-09
6.38019e-09
1.80947e-08
4.75718e-09
6.42941e-09
1.77919e-08
5.66494e-09
6.49282e-09
1.75106e-08
6.57112e-09
6.57058e-09
1.72521e-08
7.47953e-09
6.65928e-09
1.70128e-08
8.39589e-09
6.76023e-09
1.67961e-08
6.92691e-09
1.66147e-08
9.3166e-09
1.0254e-09
7.22653e-09
1.89515e-08
2.01375e-09
7.24113e-09
1.85816e-08
2.97404e-09
7.25912e-09
1.8232e-08
3.9128e-09
7.29186e-09
1.78989e-08
4.83582e-09
7.33964e-09
1.75828e-08
5.74903e-09
7.40198e-09
1.72855e-08
6.65822e-09
7.4786e-09
1.70099e-08
7.56707e-09
7.56686e-09
1.67531e-08
8.48126e-09
7.66496e-09
1.65152e-08
7.82936e-09
1.63132e-08
9.40361e-09
1.0502e-09
8.16663e-09
1.88355e-08
2.0604e-09
8.17765e-09
1.84495e-08
3.0392e-09
8.19056e-09
1.80843e-08
3.99329e-09
8.21846e-09
1.77363e-08
4.92826e-09
8.26222e-09
1.74053e-08
5.84871e-09
8.32167e-09
1.70913e-08
6.75931e-09
8.39564e-09
1.67948e-08
7.6643e-09
8.48071e-09
1.65143e-08
8.57106e-09
8.57077e-09
1.62502e-08
8.70776e-09
1.60176e-08
9.50176e-09
1.08301e-09
1.87666e-08
9.12419e-09
2.12512e-09
1.83559e-08
9.12727e-09
3.13252e-09
1.79712e-08
9.13284e-09
4.112e-09
1.76059e-08
9.15325e-09
5.06873e-09
1.7259e-08
9.19042e-09
6.00647e-09
1.69293e-08
9.24492e-09
6.92692e-09
1.66151e-08
9.31658e-09
7.82897e-09
1.63129e-08
9.40342e-09
8.70746e-09
1.60168e-08
9.50129e-09
1.57412e-08
9.60512e-09
9.60487e-09
1.06533e-09
1.06534e-09
1.86717e-08
2.10113e-09
1.07064e-09
1.83453e-08
3.11894e-09
1.07764e-09
1.80217e-08
4.12969e-09
1.08833e-09
1.77145e-08
5.1439e-09
1.10331e-09
1.74265e-08
6.17201e-09
1.12271e-09
1.71582e-08
7.22471e-09
1.14668e-09
1.69109e-08
8.31295e-09
1.17551e-09
1.66871e-08
9.4474e-09
1.21009e-09
1.64903e-08
1.25608e-09
1.63239e-08
1.06334e-08
1.07049e-09
2.10104e-09
1.83437e-08
2.11156e-09
2.11154e-09
1.80259e-08
3.13395e-09
2.1256e-09
1.77104e-08
4.14797e-09
2.14618e-09
1.74049e-08
5.16412e-09
2.1743e-09
1.71152e-08
6.19254e-09
2.21079e-09
1.68439e-08
7.24362e-09
2.25581e-09
1.65924e-08
8.32791e-09
2.30987e-09
1.63624e-08
9.45545e-09
2.37478e-09
1.61566e-08
2.46366e-09
1.5975e-08
1.06281e-08
1.07741e-09
3.11889e-09
1.80204e-08
2.12532e-09
3.13373e-09
1.77089e-08
3.15423e-09
3.15412e-09
1.74021e-08
4.17318e-09
3.18409e-09
1.71017e-08
5.19224e-09
3.22405e-09
1.68119e-08
6.22171e-09
3.27519e-09
1.65381e-08
7.27152e-09
3.33848e-09
1.62827e-08
8.35168e-09
3.41446e-09
1.60467e-08
9.47196e-09
3.50545e-09
1.58328e-08
3.63273e-09
1.56404e-08
1.0633e-08
1.08827e-09
4.12968e-09
1.77144e-08
2.14584e-09
4.14786e-09
1.74038e-08
3.18377e-09
4.17285e-09
1.71003e-08
4.21077e-09
4.21057e-09
1.68041e-08
5.23547e-09
4.26127e-09
1.65159e-08
6.26783e-09
4.32519e-09
1.62395e-08
7.31814e-09
4.40359e-09
1.59792e-08
8.39587e-09
4.49799e-09
1.57372e-08
9.51012e-09
4.61127e-09
1.55157e-08
4.773e-09
1.53146e-08
1.06606e-08
1.10335e-09
5.1439e-09
1.74268e-08
2.17424e-09
5.16412e-09
1.71152e-08
3.22366e-09
5.19208e-09
1.6811e-08
4.26093e-09
5.23501e-09
1.65146e-08
5.29437e-09
5.29401e-09
1.62273e-08
6.33225e-09
5.36919e-09
1.59497e-08
7.38445e-09
5.46038e-09
1.56842e-08
8.46134e-09
5.56907e-09
1.5435e-08
9.57146e-09
5.70028e-09
1.52057e-08
5.89244e-09
1.49971e-08
1.07134e-08
1.12275e-09
6.17203e-09
1.71585e-08
2.21087e-09
6.19256e-09
1.68443e-08
3.27511e-09
6.22171e-09
1.65381e-08
4.32469e-09
6.26766e-09
1.62386e-08
5.36879e-09
6.33155e-09
1.59483e-08
6.41542e-09
6.41467e-09
1.5669e-08
7.4722e-09
6.51684e-09
1.54e-08
8.54935e-09
6.63685e-09
1.5143e-08
9.65682e-09
6.7806e-09
1.49039e-08
6.99775e-09
1.46875e-08
1.07929e-08
1.14673e-09
7.22475e-09
1.69114e-08
2.2559e-09
7.24366e-09
1.65928e-08
3.33858e-09
7.27156e-09
1.62831e-08
4.40346e-09
7.3182e-09
1.59793e-08
5.45953e-09
7.38424e-09
1.56831e-08
6.51606e-09
7.47094e-09
1.53978e-08
7.58052e-09
7.57979e-09
1.51246e-08
8.66037e-09
7.70861e-09
1.48612e-08
9.7663e-09
7.86005e-09
1.46107e-08
8.09395e-09
1.4385e-08
1.08998e-08
1.17557e-09
8.31301e-09
1.66876e-08
2.30999e-09
8.32797e-09
1.63629e-08
3.41463e-09
8.35173e-09
1.60472e-08
4.49822e-09
8.39592e-09
1.57376e-08
5.56896e-09
8.46142e-09
1.54349e-08
6.63564e-09
8.54875e-09
1.5141e-08
7.7075e-09
8.65905e-09
1.48588e-08
8.7916e-09
8.79119e-09
1.45864e-08
9.89784e-09
8.94455e-09
1.43245e-08
9.1832e-09
1.40881e-08
1.10336e-08
1.21016e-09
9.44748e-09
1.64909e-08
2.37492e-09
9.45552e-09
1.61572e-08
3.50567e-09
9.47201e-09
1.58333e-08
4.61158e-09
9.51015e-09
1.55162e-08
5.70078e-09
9.57141e-09
1.52061e-08
6.78064e-09
9.65658e-09
1.49036e-08
7.85914e-09
9.76573e-09
1.46097e-08
8.94392e-09
9.89699e-09
1.43237e-08
1.00461e-08
1.00457e-08
1.40469e-08
1.02625e-08
1.37927e-08
1.11918e-08
1.25617e-09
1.63245e-08
1.06334e-08
2.46383e-09
1.59755e-08
1.06282e-08
3.63298e-09
1.56409e-08
1.06331e-08
4.77334e-09
1.53151e-08
1.06606e-08
5.89287e-09
1.49975e-08
1.07134e-08
6.99818e-09
1.46879e-08
1.07927e-08
8.09412e-09
1.43854e-08
1.08996e-08
9.18288e-09
1.40879e-08
1.10332e-08
1.02622e-08
1.3792e-08
1.11911e-08
1.35103e-08
1.1378e-08
1.13776e-08
1.13111e-09
1.13113e-09
1.64095e-08
2.23088e-09
1.13654e-09
1.6109e-08
3.31166e-09
1.14371e-09
1.57973e-08
4.38573e-09
1.1549e-09
1.54855e-08
5.46537e-09
1.17087e-09
1.5176e-08
6.56336e-09
1.19193e-09
1.48682e-08
7.69352e-09
1.21846e-09
1.45623e-08
8.87109e-09
1.25112e-09
1.42584e-08
1.01128e-08
1.29129e-09
1.39572e-08
1.34518e-09
1.36589e-08
1.14327e-08
1.13637e-09
2.23077e-09
1.61077e-08
2.24167e-09
2.24164e-09
1.58155e-08
3.32736e-09
2.2563e-09
1.55122e-08
4.40494e-09
2.27801e-09
1.52042e-08
5.48653e-09
2.30815e-09
1.48963e-08
6.58449e-09
2.34789e-09
1.459e-08
7.71215e-09
2.39787e-09
1.42853e-08
8.88415e-09
2.45921e-09
1.39823e-08
1.01163e-08
2.53446e-09
1.36813e-08
2.63716e-09
1.33802e-08
1.14191e-08
1.14349e-09
3.31151e-09
1.57961e-08
2.25603e-09
3.32706e-09
1.55109e-08
3.34882e-09
3.34867e-09
1.5217e-08
4.43196e-09
3.3806e-09
1.49159e-08
5.51698e-09
3.42369e-09
1.46114e-08
6.6163e-09
3.47971e-09
1.4307e-08
7.74267e-09
3.55029e-09
1.40039e-08
8.90996e-09
3.63676e-09
1.37019e-08
1.01335e-08
3.74236e-09
1.34014e-08
3.8886e-09
1.31006e-08
1.14218e-08
1.15487e-09
4.38559e-09
1.54854e-08
2.27771e-09
4.4047e-09
1.52033e-08
3.38031e-09
4.43152e-09
1.49148e-08
4.4724e-09
4.47213e-09
1.46204e-08
5.564e-09
4.52723e-09
1.43208e-08
6.66703e-09
4.59772e-09
1.40185e-08
7.79447e-09
4.68572e-09
1.37164e-08
8.9595e-09
4.79378e-09
1.34152e-08
1.01765e-08
4.92568e-09
1.31154e-08
5.11122e-09
1.2816e-08
1.14525e-08
1.17095e-09
5.46523e-09
1.51762e-08
2.30815e-09
5.48638e-09
1.48963e-08
3.42337e-09
5.51668e-09
1.46106e-08
4.52696e-09
5.56342e-09
1.43198e-08
5.6286e-09
5.62815e-09
1.40247e-08
6.73848e-09
5.7117e-09
1.37258e-08
7.869e-09
5.81486e-09
1.34246e-08
9.03404e-09
5.94037e-09
1.31234e-08
1.02472e-08
6.0942e-09
1.28241e-08
6.31499e-09
1.25266e-08
1.15138e-08
1.19201e-09
6.56324e-09
1.48685e-08
2.34805e-09
6.58435e-09
1.45903e-08
3.47973e-09
6.61615e-09
1.4307e-08
4.59732e-09
6.6667e-09
1.40178e-08
5.71138e-09
6.73765e-09
1.37248e-08
6.83183e-09
6.83101e-09
1.34292e-08
7.96876e-09
6.94761e-09
1.31303e-08
9.13565e-09
7.08768e-09
1.28288e-08
1.03472e-08
7.25811e-09
1.25285e-08
7.50893e-09
1.22327e-08
1.1608e-08
1.21854e-09
7.69342e-09
1.45626e-08
2.39802e-09
7.71205e-09
1.42856e-08
3.55048e-09
7.74256e-09
1.40042e-08
4.68572e-09
7.79437e-09
1.37164e-08
5.81414e-09
7.86863e-09
1.34237e-08
6.94692e-09
7.96739e-09
1.31287e-08
8.094e-09
8.0932e-09
1.2832e-08
9.26596e-09
8.24541e-09
1.25315e-08
1.04778e-08
8.4278e-09
1.22292e-08
8.70092e-09
1.1934e-08
1.17368e-08
1.25121e-09
8.87102e-09
1.42588e-08
2.45939e-09
8.88408e-09
1.39827e-08
3.63703e-09
8.90986e-09
1.37022e-08
4.79413e-09
8.95939e-09
1.34155e-08
5.94041e-09
9.03394e-09
1.31233e-08
7.08659e-09
9.13487e-09
1.28273e-08
8.24438e-09
9.26451e-09
1.25297e-08
9.42387e-09
9.42337e-09
1.22289e-08
1.06388e-08
9.61223e-09
1.19252e-08
9.89686e-09
1.16298e-08
1.19012e-08
1.2914e-09
1.01128e-08
1.39577e-08
2.53466e-09
1.01163e-08
1.36817e-08
3.74266e-09
1.01334e-08
1.34018e-08
4.9261e-09
1.01763e-08
1.31158e-08
6.09482e-09
1.02469e-08
1.28244e-08
7.25827e-09
1.03468e-08
1.25282e-08
8.42698e-09
1.04771e-08
1.22284e-08
9.61168e-09
1.06378e-08
1.19246e-08
1.08269e-08
1.08264e-08
1.16175e-08
1.10979e-08
1.13177e-08
1.21009e-08
1.3453e-09
1.36593e-08
1.14327e-08
2.63738e-09
1.33807e-08
1.14191e-08
3.88892e-09
1.3101e-08
1.14218e-08
5.11165e-09
1.28163e-08
1.14524e-08
6.31551e-09
1.25269e-08
1.15137e-08
7.50944e-09
1.2233e-08
1.16077e-08
8.70117e-09
1.19342e-08
1.17365e-08
9.89661e-09
1.16296e-08
1.19007e-08
1.10977e-08
1.13172e-08
1.21001e-08
1.10065e-08
1.235e-08
1.23495e-08
1.13145e-09
1.13148e-09
1.41465e-08
2.23077e-09
1.13635e-09
1.38733e-08
3.30935e-09
1.1427e-09
1.3576e-08
4.37883e-09
1.15273e-09
1.32633e-08
5.45109e-09
1.16726e-09
1.29365e-08
6.53869e-09
1.18661e-09
1.2594e-08
7.65556e-09
1.21129e-09
1.22341e-08
8.81756e-09
1.24209e-09
1.18543e-08
1.00429e-08
1.28058e-09
1.14513e-08
1.33259e-09
1.10201e-08
1.13491e-08
1.1362e-09
2.23064e-09
1.38723e-08
2.24061e-09