/*--------------------------------*- C++ -*----------------------------------*\
| =========                 |                                                 |
| \\      /  F ield         | foam-extend: Open Source CFD                    |
|  \\    /   O peration     | Version:     3.1                                |
|   \\  /    A nd           | Web:         http://www.extend-project.de       |
|    \\/     M anipulation  |                                                 |
\*---------------------------------------------------------------------------*/
FoamFile
{
    version     2.0;
    format      ascii;
    class       pointVectorField;
    location    "0.0012";
    object      pointMotionU;
}
// * * * * * * * * * * * * * * * * * * * * * * * * * * * * * * * * * * * * * //

dimensions      [0 1 -1 0 0 0 0];

internalField   nonuniform List<vector> 
18306
(
(0 0 0)
(0 0 0)
(0 0 0)
(0 0 0)
(0 0 0)
(0 0 0)
(0 0 0)
(0 0 0)
(0 0 0)
(0 0 0)
(0 0 0)
(0 0 0)
(0 0 0)
(0 0 0)
(0 0 0)
(0 0 0)
(0 0 0)
(0 0 0)
(0 0 0)
(0 0 0)
(0 0 0)
(0 0 0)
(0 0 0)
(0 0 0)
(0 0 0)
(0 0 0)
(0 0 0)
(0 0 0)
(0 0 0)
(0 0 0)
(0 0 0)
(0 0 0)
(0 0 0)
(0 0 0)
(0 0 0)
(0 0 0)
(0 0 0)
(0 0 0)
(0 0 0)
(0 0 0)
(0 0 0)
(0 0 0)
(0 0 0)
(0 0 0)
(0 0 0)
(0 0 0)
(0 0 0)
(0 0 0)
(0 0 0)
(0 0 0)
(0 0 0)
(0 0 0)
(0 0 0)
(0 0 0)
(0 0 0)
(0 0 0)
(0 0 0)
(0 0 0)
(0 0 0)
(0 0 0)
(0 0 0)
(0 0 0)
(0 0 0)
(0 0 0)
(0 0 0)
(0 0 0)
(0 0 0)
(0 0 0)
(0 0 0)
(0 0 0)
(0 0 0)
(0 0 0)
(0 0 0)
(0 0 0)
(0 0 0)
(0 0 0)
(0 0 0)
(0 0 0)
(0 0 0)
(0 0 0)
(0 0 0)
(0 0 0)
(0 0 0)
(0 0 0)
(0 0 0)
(0 0 0)
(0 0 0)
(0 0 0)
(0 0 0)
(0 0 0)
(0 0 0)
(0 0 0)
(0 0 0)
(0 0 0)
(0 0 0)
(0 0 0)
(0 0 0)
(0 0 0)
(0 0 0)
(0 0 0)
(0 0 0)
(0 0 0)
(0 0 0)
(0 0 0)
(0 0 0)
(0 0 0)
(0 0 0)
(0 0 0)
(0 0 0)
(0 0 0)
(0 0 0)
(0 0 0)
(0 0 0)
(0 0 0)
(0 0 0)
(0 0 0)
(0 0 0)
(0 0 0)
(0 0 0)
(0 0 0)
(0 0 0)
(0 0 -1.3372e-08)
(-2.40817e-09 -0 -1.34419e-08)
(-4.90134e-09 -0 -1.36651e-08)
(-7.5857e-09 -0 -1.40143e-08)
(-1.05824e-08 -0 -1.44624e-08)
(-1.3954e-08 -0 -1.49705e-08)
(-1.76566e-08 -0 -1.54765e-08)
(-2.14669e-08 -0 -1.58813e-08)
(-2.48557e-08 -0 -1.60236e-08)
(-2.67687e-08 -0 -1.56407e-08)
(-2.51895e-08 -0 -1.42705e-08)
(0 3.38614e-09 -1.33806e-08)
(-2.36364e-09 3.24831e-09 -1.34473e-08)
(-4.83519e-09 2.87011e-09 -1.36613e-08)
(-7.51968e-09 2.33458e-09 -1.39967e-08)
(-1.05331e-08 1.69024e-09 -1.44269e-08)
(-1.39527e-08 9.51793e-10 -1.49139e-08)
(-1.77631e-08 1.1188e-10 -1.5398e-08)
(-2.17977e-08 -8.6225e-10 -1.57845e-08)
(-2.56374e-08 -2.02705e-09 -1.59248e-08)
(-2.84653e-08 -3.45738e-09 -1.55884e-08)
(-2.8722e-08 -5.12595e-09 -1.44213e-08)
(0 6.73906e-09 -1.34209e-08)
(-2.25281e-09 6.4877e-09 -1.34775e-08)
(-4.65387e-09 5.77705e-09 -1.3664e-08)
(-7.32172e-09 4.71978e-09 -1.39589e-08)
(-1.03718e-08 3.42814e-09 -1.43375e-08)
(-1.39101e-08 1.95826e-09 -1.4764e-08)
(-1.80017e-08 3.0032e-10 -1.51849e-08)
(-2.26207e-08 -1.60859e-09 -1.55184e-08)
(-2.76025e-08 -3.87647e-09 -1.56442e-08)
(-3.26357e-08 -6.64406e-09 -1.54004e-08)
(-3.69181e-08 -9.84553e-09 -1.45996e-08)
(0 1.01177e-08 -1.34597e-08)
(-2.11797e-09 9.75513e-09 -1.3502e-08)
(-4.40532e-09 8.72307e-09 -1.36473e-08)
(-7.00786e-09 7.1534e-09 -1.38794e-08)
(-1.00697e-08 5.21152e-09 -1.41784e-08)
(-1.37341e-08 3.02338e-09 -1.45123e-08)
(-1.81552e-08 6.05802e-10 -1.48344e-08)
(-2.34773e-08 -2.12996e-09 -1.50794e-08)
(-2.98115e-08 -5.34492e-09 -1.51598e-08)
(-3.72998e-08 -9.24973e-09 -1.49762e-08)
(-4.56798e-08 -1.38032e-08 -1.44816e-08)
(0 1.36685e-08 -1.34502e-08)
(-1.97904e-09 1.31675e-08 -1.34764e-08)
(-4.13643e-09 1.17474e-08 -1.35748e-08)
(-6.62495e-09 9.60475e-09 -1.37316e-08)
(-9.62312e-09 6.98363e-09 -1.3932e-08)
(-1.33332e-08 4.08576e-09 -1.41508e-08)
(-1.79869e-08 9.85043e-10 -1.43485e-08)
(-2.38632e-08 -2.41064e-09 -1.44736e-08)
(-3.12924e-08 -6.32173e-09 -1.44676e-08)
(-4.07076e-08 -1.10413e-08 -1.42784e-08)
(-5.2245e-08 -1.66448e-08 -1.39694e-08)
(0 1.75777e-08 -1.33179e-08)
(-1.8635e-09 1.68841e-08 -1.33293e-08)
(-3.89788e-09 1.49269e-08 -1.33841e-08)
(-6.24703e-09 1.20289e-08 -1.34679e-08)
(-9.09347e-09 8.60378e-09 -1.35659e-08)
(-1.26898e-08 4.97206e-09 -1.3658e-08)
(-1.73543e-08 1.26691e-09 -1.37154e-08)
(-2.34502e-08 -2.59035e-09 -1.36988e-08)
(-3.14154e-08 -6.87356e-09 -1.35671e-08)
(-4.18238e-08 -1.19736e-08 -1.33009e-08)
(-5.52431e-08 -1.81729e-08 -1.30611e-08)
(0 2.21333e-08 -1.29462e-08)
(-1.81376e-09 2.11366e-08 -1.29499e-08)
(-3.76918e-09 1.83612e-08 -1.29791e-08)
(-5.98415e-09 1.43606e-08 -1.30115e-08)
(-8.62041e-09 9.84016e-09 -1.30249e-08)
(-1.19339e-08 5.34892e-09 -1.2997e-08)
(-1.63011e-08 1.10476e-09 -1.29075e-08)
(-2.21777e-08 -2.9932e-09 -1.27335e-08)
(-3.00225e-08 -7.28355e-09 -1.24464e-08)
(-4.03884e-08 -1.22548e-08 -1.20418e-08)
(-5.43189e-08 -1.84442e-08 -1.1767e-08)
(0 2.78226e-08 -1.21539e-08)
(-1.88795e-09 2.63118e-08 -1.21685e-08)
(-3.86743e-09 2.21901e-08 -1.22195e-08)
(-6.00296e-09 1.64693e-08 -1.22559e-08)
(-8.41612e-09 1.03442e-08 -1.22318e-08)
(-1.13369e-08 4.71384e-09 -1.21155e-08)
(-1.51359e-08 -6.7327e-11 -1.18907e-08)
(-2.03322e-08 -4.16504e-09 -1.15505e-08)
(-2.74134e-08 -8.0518e-09 -1.1091e-08)
(-3.68283e-08 -1.23604e-08 -1.0512e-08)
(-4.99436e-08 -1.78459e-08 -1.01107e-08)
(0 3.54973e-08 -1.06598e-08)
(-2.15818e-09 3.30644e-08 -1.07311e-08)
(-4.33542e-09 2.66117e-08 -1.09136e-08)
(-6.51677e-09 1.81012e-08 -1.1072e-08)
(-8.75923e-09 9.57088e-09 -1.11017e-08)
(-1.12539e-08 2.3778e-09 -1.09548e-08)
(-1.43451e-08 -2.99849e-09 -1.06258e-08)
(-1.85363e-08 -6.83878e-09 -1.01315e-08)
(-2.43442e-08 -9.86386e-09 -9.50499e-09)
(-3.21637e-08 -1.29927e-08 -8.75053e-09)
(-4.33379e-08 -1.71052e-08 -8.16983e-09)
(0 4.66983e-08 -8.01924e-09)
(-2.70703e-09 4.24882e-08 -8.26197e-09)
(-5.33202e-09 3.18291e-08 -8.82195e-09)
(-7.76504e-09 1.87484e-08 -9.33084e-09)
(-9.9728e-09 6.65209e-09 -9.56953e-09)
(-1.20846e-08 -2.60205e-09 -9.47706e-09)
(-1.44276e-08 -8.57094e-09 -9.08259e-09)
(-1.75052e-08 -1.18197e-08 -8.45557e-09)
(-2.18685e-08 -1.34876e-08 -7.68498e-09)
(-2.78708e-08 -1.49279e-08 -6.82199e-09)
(-3.63011e-08 -1.71058e-08 -6.1397e-09)
(0 6.45767e-08 -3.42735e-09)
(-3.54149e-09 5.67446e-08 -4.17693e-09)
(-6.86249e-09 3.87588e-08 -5.64144e-09)
(-9.78315e-09 1.86933e-08 -6.91654e-09)
(-1.21616e-08 1.63071e-09 -7.62573e-09)
(-1.4019e-08 -1.03846e-08 -7.74149e-09)
(-1.56135e-08 -1.71986e-08 -7.36666e-09)
(-1.74653e-08 -1.9758e-08 -6.64669e-09)
(-2.0271e-08 -1.96594e-08 -5.75572e-09)
(-2.45907e-08 -1.87447e-08 -4.90428e-09)
(-3.06772e-08 -1.86311e-08 -4.26542e-09)
(0 0 -2.59809e-08)
(-4.11457e-09 -0 -2.61482e-08)
(-8.39747e-09 -0 -2.66562e-08)
(-1.30555e-08 -0 -2.74726e-08)
(-1.83261e-08 -0 -2.85702e-08)
(-2.43563e-08 -0 -2.99156e-08)
(-3.11265e-08 -0 -3.14564e-08)
(-3.83366e-08 -0 -3.31093e-08)
(-4.5205e-08 -0 -3.47417e-08)
(-5.01323e-08 -0 -3.61539e-08)
(-5.00807e-08 -0 -3.70715e-08)
(0 6.86592e-09 -2.60541e-08)
(-4.01982e-09 6.6173e-09 -2.62145e-08)
(-8.24642e-09 5.93247e-09 -2.67022e-08)
(-1.28833e-08 4.97409e-09 -2.74879e-08)
(-1.81571e-08 3.83217e-09 -2.85449e-08)
(-2.42368e-08 2.5309e-09 -2.98393e-08)
(-3.11467e-08 1.05407e-09 -3.13177e-08)
(-3.86715e-08 -6.6052e-10 -3.28945e-08)
(-4.61925e-08 -2.71874e-09 -3.44339e-08)
(-5.24507e-08 -5.26031e-09 -3.57299e-08)
(-5.50287e-08 -8.26386e-09 -3.65187e-08)
(0 1.36643e-08 -2.62817e-08)
(-3.77282e-09 1.32183e-08 -2.64203e-08)
(-7.81744e-09 1.19485e-08 -2.68479e-08)
(-1.23576e-08 1.0071e-08 -2.75437e-08)
(-1.76137e-08 7.79393e-09 -2.84826e-08)
(-2.37963e-08 5.21794e-09 -2.96303e-08)
(-3.10546e-08 2.31996e-09 -3.09327e-08)
(-3.93886e-08 -1.01934e-09 -3.23008e-08)
(-4.85611e-08 -5.00346e-09 -3.35927e-08)
(-5.80603e-08 -9.89776e-09 -3.45993e-08)
(-6.65735e-08 -1.56533e-08 -3.51166e-08)
(0 2.05097e-08 -2.66237e-08)
(-3.45455e-09 1.98757e-08 -2.67306e-08)
(-7.20838e-09 1.80574e-08 -2.70672e-08)
(-1.15266e-08 1.53006e-08 -2.76221e-08)
(-1.66736e-08 1.19061e-08 -2.83787e-08)
(-2.29149e-08 8.10298e-09 -2.93038e-08)
(-3.0537e-08 3.91783e-09 -3.03429e-08)
(-3.98085e-08 -8.18007e-10 -3.14079e-08)
(-5.09224e-08 -6.40797e-09 -3.23607e-08)
(-6.40737e-08 -1.32494e-08 -3.30072e-08)
(-7.88312e-08 -2.14017e-08 -3.32476e-08)
(0 2.76817e-08 -2.70247e-08)
(-3.10722e-09 2.68145e-08 -2.70937e-08)
(-6.51635e-09 2.43392e-08 -2.732e-08)
(-1.04955e-08 2.06169e-08 -2.76994e-08)
(-1.53623e-08 1.60844e-08 -2.82262e-08)
(-2.14775e-08 1.11028e-08 -2.88769e-08)
(-2.92506e-08 5.80455e-09 -2.96e-08)
(-3.91653e-08 1.82251e-11 -3.0311e-08)
(-5.17777e-08 -6.66971e-09 -3.08884e-08)
(-6.77751e-08 -1.48102e-08 -3.11723e-08)
(-8.74935e-08 -2.47622e-08 -3.1188e-08)
(0 3.5517e-08 -2.74006e-08)
(-2.78662e-09 3.43249e-08 -2.74286e-08)
(-5.84586e-09 3.09397e-08 -2.75357e-08)
(-9.4188e-09 2.5948e-08 -2.77241e-08)
(-1.38215e-08 2.00874e-08 -2.79968e-08)
(-1.94968e-08 1.39276e-08 -2.83427e-08)
(-2.70009e-08 7.70444e-09 -2.87242e-08)
(-3.69595e-08 1.27481e-09 -2.90665e-08)
(-5.01135e-08 -5.86189e-09 -2.92618e-08)
(-6.74185e-08 -1.44349e-08 -2.91912e-08)
(-9.00958e-08 -2.52888e-08 -2.90095e-08)
(0 4.45182e-08 -2.76236e-08)
(-2.57488e-09 4.28112e-08 -2.76116e-08)
(-5.35142e-09 3.80355e-08 -2.76028e-08)
(-8.511e-09 3.11842e-08 -2.76033e-08)
(-1.23241e-08 2.35111e-08 -2.7623e-08)
(-1.72337e-08 1.59944e-08 -2.76593e-08)
(-2.38971e-08 9.01989e-09 -2.76898e-08)
(-3.31091e-08 2.40242e-09 -2.76614e-08)
(-4.56543e-08 -4.46266e-09 -2.74807e-08)
(-6.24767e-08 -1.24705e-08 -2.70542e-08)
(-8.5761e-08 -2.30349e-08 -2.66518e-08)
(0 5.55196e-08 -2.75019e-08)
(-2.58157e-09 5.29357e-08 -2.74586e-08)
(-5.25309e-09 4.58622e-08 -2.73579e-08)
(-8.0856e-09 3.60934e-08 -2.72001e-08)
(-1.12672e-08 2.57435e-08 -2.69941e-08)
(-1.51903e-08 1.64151e-08 -2.67437e-08)
(-2.05051e-08 8.74445e-09 -2.64368e-08)
(-2.8125e-08 2.4337e-09 -2.60405e-08)
(-3.89133e-08 -3.37127e-09 -2.54948e-08)
(-5.3648e-08 -9.80609e-09 -2.47156e-08)
(-7.51455e-08 -1.8729e-08 -2.40358e-08)
(0 6.99704e-08 -2.67512e-08)
(-2.94127e-09 6.58113e-08 -2.6703e-08)
(-5.81786e-09 5.47482e-08 -2.65765e-08)
(-8.54031e-09 4.02222e-08 -2.63349e-08)
(-1.11675e-08 2.58238e-08 -2.59675e-08)
(-1.40158e-08 1.39752e-08 -2.54787e-08)
(-1.76963e-08 5.54795e-09 -2.4871e-08)
(-2.31179e-08 4.27937e-11 -2.41348e-08)
(-3.12414e-08 -3.86352e-09 -2.32548e-08)
(-4.27597e-08 -7.80293e-09 -2.21533e-08)
(-6.04344e-08 -1.38341e-08 -2.11654e-08)
(0 9.04876e-08 -2.49527e-08)
(-3.8072e-09 8.32949e-08 -2.49706e-08)
(-7.34228e-09 6.50304e-08 -2.49751e-08)
(-1.03202e-08 4.26842e-08 -2.48042e-08)
(-1.26195e-08 2.22358e-08 -2.4393e-08)
(-1.4437e-08 7.02148e-09 -2.37432e-08)
(-1.63618e-08 -2.11946e-09 -2.28825e-08)
(-1.93461e-08 -6.19653e-09 -2.18474e-08)
(-2.44824e-08 -7.32296e-09 -2.06841e-08)
(-3.24763e-08 -7.9685e-09 -1.93777e-08)
(-4.50931e-08 -1.02871e-08 -1.82315e-08)
(0 1.22443e-07 -2.14262e-08)
(-5.2228e-09 1.0907e-07 -2.17412e-08)
(-9.91179e-09 7.82896e-08 -2.22395e-08)
(-1.3628e-08 4.39648e-08 -2.24517e-08)
(-1.60317e-08 1.49908e-08 -2.2225e-08)
(-1.71059e-08 -4.88271e-09 -2.15739e-08)
(-1.73074e-08 -1.52371e-08 -2.05636e-08)
(-1.76391e-08 -1.77271e-08 -1.92886e-08)
(-1.953e-08 -1.53389e-08 -1.78889e-08)
(-2.43089e-08 -1.1667e-08 -1.65723e-08)
(-3.27421e-08 -9.89396e-09 -1.55139e-08)
(0 0 -3.67746e-08)
(-4.71159e-09 -0 -3.70576e-08)
(-9.66788e-09 -0 -3.79077e-08)
(-1.51614e-08 -0 -3.93058e-08)
(-2.15312e-08 -0 -4.12559e-08)
(-2.90351e-08 -0 -4.37809e-08)
(-3.77765e-08 -0 -4.69172e-08)
(-4.76001e-08 -0 -5.07196e-08)
(-5.79103e-08 -0 -5.52764e-08)
(-6.7396e-08 -0 -6.07613e-08)
(-7.36686e-08 -0 -6.76713e-08)
(0 1.03546e-08 -3.69728e-08)
(-4.55907e-09 1.00355e-08 -3.72453e-08)
(-9.40515e-09 9.15777e-09 -3.80637e-08)
(-1.48246e-08 7.95244e-09 -3.94133e-08)
(-2.11395e-08 6.53892e-09 -4.12981e-08)
(-2.86269e-08 4.94281e-09 -4.37378e-08)
(-3.74289e-08 3.137e-09 -4.67593e-08)
(-4.74613e-08 1.03573e-09 -5.03987e-08)
(-5.82557e-08 -1.50419e-09 -5.47027e-08)
(-6.87354e-08 -4.66967e-09 -5.97428e-08)
(-7.68229e-08 -8.4902e-09 -6.57542e-08)
(0 2.06087e-08 -3.75708e-08)
(-4.14843e-09 2.00512e-08 -3.78099e-08)
(-8.64976e-09 1.84589e-08 -3.85346e-08)
(-1.38076e-08 1.61275e-08 -3.97417e-08)
(-1.99268e-08 1.33336e-08 -4.1436e-08)
(-2.7315e-08 1.02029e-08 -4.3629e-08)
(-3.623e-08 6.6945e-09 -4.63296e-08)
(-4.6778e-08 2.64356e-09 -4.95295e-08)
(-5.8803e-08 -2.22711e-09 -5.31829e-08)
(-7.18038e-08 -8.27853e-09 -5.71741e-08)
(-8.44811e-08 -1.55906e-08 -6.147e-08)
(0 3.09275e-08 -3.85425e-08)
(-3.58948e-09 3.01542e-08 -3.87319e-08)
(-7.54498e-09 2.7927e-08 -3.93131e-08)
(-1.22062e-08 2.45671e-08 -4.02969e-08)
(-1.79185e-08 2.04613e-08 -4.16968e-08)
(-2.50338e-08 1.59039e-08 -4.35191e-08)
(-3.39369e-08 1.09198e-08 -4.57524e-08)
(-4.49915e-08 5.27511e-09 -4.83484e-08)
(-5.84419e-08 -1.44456e-09 -5.11848e-08)
(-7.44321e-08 -9.78073e-09 -5.40269e-08)
(-9.25397e-08 -2.00821e-08 -5.67634e-08)
(0 4.16988e-08 -3.98648e-08)
(-2.94988e-09 4.06597e-08 -3.99926e-08)
(-6.24147e-09 3.76831e-08 -4.03925e-08)
(-1.01996e-08 3.32311e-08 -4.10897e-08)
(-1.52182e-08 2.78504e-08 -4.21158e-08)
(-2.17491e-08 2.19936e-08 -4.34853e-08)
(-3.02978e-08 1.58253e-08 -4.51769e-08)
(-4.1445e-08 9.11431e-09 -4.71174e-08)
(-5.58261e-08 1.29841e-09 -4.91561e-08)
(-7.41376e-08 -8.37194e-09 -5.10344e-08)
(-9.70044e-08 -2.08064e-08 -5.26913e-08)
(0 5.3351e-08 -4.15144e-08)
(-2.31464e-09 5.19412e-08 -4.15682e-08)
(-4.90181e-09 4.79249e-08 -4.17525e-08)
(-8.03004e-09 4.20429e-08 -4.21137e-08)
(-1.2075e-08 3.52146e-08 -4.27095e-08)
(-1.75747e-08 2.81443e-08 -4.35756e-08)
(-2.52038e-08 2.11209e-08 -4.47027e-08)
(-3.57058e-08 1.39562e-08 -4.60125e-08)
(-4.99343e-08 5.99413e-09 -4.73519e-08)
(-6.89608e-08 -3.74964e-09 -4.84978e-08)
(-9.47407e-08 -1.70272e-08 -4.94754e-08)
(0 6.64797e-08 -4.34614e-08)
(-1.80129e-09 6.44761e-08 -4.34249e-08)
(-3.74833e-09 5.88622e-08 -4.3354e-08)
(-6.00829e-09 5.08722e-08 -4.333e-08)
(-8.88382e-09 4.20603e-08 -4.34515e-08)
(-1.29038e-08 3.36424e-08 -4.37867e-08)
(-1.88656e-08 2.60916e-08 -4.4347e-08)
(-2.77339e-08 1.91613e-08 -4.50714e-08)
(-4.04382e-08 1.20864e-08 -4.58184e-08)
(-5.80998e-08 3.68723e-09 -4.64022e-08)
(-8.41011e-08 -8.73145e-09 -4.69232e-08)
(0 8.20332e-08 -4.5671e-08)
(-1.56042e-09 7.90132e-08 -4.55188e-08)
(-3.08201e-09 7.07427e-08 -4.51324e-08)
(-4.56432e-09 5.94144e-08 -4.46571e-08)
(-6.18674e-09 4.76274e-08 -4.4257e-08)
(-8.40909e-09 3.73784e-08 -4.4045e-08)
(-1.2029e-08 2.94677e-08 -4.40516e-08)
(-1.8175e-08 2.35138e-08 -4.42311e-08)
(-2.79361e-08 1.84162e-08 -4.44663e-08)
(-4.22771e-08 1.2724e-08 -4.45923e-08)
(-6.54814e-08 3.07444e-09 -4.47423e-08)
(0 1.01626e-07 -4.81118e-08)
(-1.77416e-09 9.67828e-08 -4.77972e-08)
(-3.26542e-09 8.38882e-08 -4.69875e-08)
(-4.23637e-09 6.70722e-08 -4.59571e-08)
(-4.67811e-09 5.07137e-08 -4.49764e-08)
(-4.94404e-09 3.78382e-08 -4.42065e-08)
(-5.80285e-09 2.95699e-08 -4.36882e-08)
(-8.42818e-09 2.52869e-08 -4.33742e-08)
(-1.41252e-08 2.32502e-08 -4.31648e-08)
(-2.37813e-08 2.14125e-08 -4.2905e-08)
(-4.15911e-08 1.62064e-08 -4.27167e-08)
(0 1.28145e-07 -5.07916e-08)
(-2.648e-09 1.19814e-07 -5.02132e-08)
(-4.70046e-09 9.86011e-08 -4.8774e-08)
(-5.62414e-09 7.2734e-08 -4.70245e-08)
(-5.14843e-09 4.9453e-08 -4.5394e-08)
(-3.46111e-09 3.2976e-08 -4.40732e-08)
(-1.32344e-09 2.44664e-08 -4.30778e-08)
(-5.30083e-11 2.26699e-08 -4.23387e-08)
(-1.2591e-09 2.47798e-08 -4.17635e-08)
(-6.01238e-09 2.75805e-08 -4.12242e-08)
(-1.72391e-08 2.75092e-08 -4.08059e-08)
(0 1.67542e-07 -5.38951e-08)
(-4.30322e-09 1.52159e-07 -5.28215e-08)
(-7.65571e-09 1.1663e-07 -5.04076e-08)
(-9.27547e-09 7.69e-08 -4.77413e-08)
(-8.57152e-09 4.36796e-08 -4.54252e-08)
(-5.42467e-09 2.18974e-08 -4.36026e-08)
(-4.14673e-10 1.24129e-08 -4.21985e-08)
(5.03486e-09 1.32552e-08 -4.10944e-08)
(8.74776e-09 2.04289e-08 -4.02127e-08)
(8.40124e-09 2.88356e-08 -3.95433e-08)
(2.42606e-09 3.39211e-08 -3.90881e-08)
(0 0 -4.41525e-08)
(-4.18286e-09 -0 -4.45406e-08)
(-8.66678e-09 -0 -4.57032e-08)
(-1.37995e-08 -0 -4.76427e-08)
(-1.9986e-08 -0 -5.04064e-08)
(-2.7591e-08 -0 -5.40895e-08)
(-3.68931e-08 -0 -5.88381e-08)
(-4.80315e-08 -0 -6.487e-08)
(-6.09195e-08 -0 -7.25183e-08)
(-7.51761e-08 -0 -8.23394e-08)
(-9.03669e-08 -0 -9.55672e-08)
(0 1.34603e-08 -4.45047e-08)
(-3.97395e-09 1.31138e-08 -4.48802e-08)
(-8.28389e-09 1.21639e-08 -4.60029e-08)
(-1.32687e-08 1.08918e-08 -4.78812e-08)
(-1.93112e-08 9.43218e-09 -5.05622e-08)
(-2.67845e-08 7.8045e-09 -5.41349e-08)
(-3.59842e-08 5.96984e-09 -5.87279e-08)
(-4.70728e-08 3.82651e-09 -6.45253e-08)
(-5.99841e-08 1.20962e-09 -7.17828e-08)
(-7.42998e-08 -2.09151e-09 -8.08663e-08)
(-8.92267e-08 -6.18457e-09 -9.24871e-08)
(0 2.68002e-08 -4.556e-08)
(-3.39933e-09 2.62158e-08 -4.58942e-08)
(-7.17972e-09 2.45418e-08 -4.68996e-08)
(-1.16867e-08 2.21234e-08 -4.85982e-08)
(-1.7273e-08 1.92727e-08 -5.10366e-08)
(-2.43135e-08 1.61208e-08 -5.42891e-08)
(-3.31672e-08 1.26054e-08 -5.84491e-08)
(-4.40807e-08 8.53073e-09 -6.36179e-08)
(-5.70736e-08 3.57426e-09 -6.98774e-08)
(-7.17986e-08 -2.68026e-09 -7.72387e-08)
(-8.73701e-08 -1.05124e-08 -8.58369e-08)
(0 4.02328e-08 -4.73121e-08)
(-2.58475e-09 3.94496e-08 -4.75845e-08)
(-5.5331e-09 3.71829e-08 -4.84102e-08)
(-9.20574e-09 3.37868e-08 -4.98282e-08)
(-1.39776e-08 2.96805e-08 -5.18932e-08)
(-2.02373e-08 2.51823e-08 -5.46681e-08)
(-2.84134e-08 2.03039e-08 -5.82084e-08)
(-3.89106e-08 1.47656e-08 -6.25356e-08)
(-5.19693e-08 8.08215e-09 -6.75805e-08)
(-6.75697e-08 -3.74405e-10 -7.31135e-08)
(-8.53944e-08 -1.1353e-08 -7.90063e-08)
(0 5.42296e-08 -4.97836e-08)
(-1.62393e-09 5.32033e-08 -4.99779e-08)
(-3.54629e-09 5.02514e-08 -5.05713e-08)
(-6.0863e-09 4.587e-08 -5.16244e-08)
(-9.64523e-09 4.06313e-08 -5.32157e-08)
(-1.46903e-08 3.50085e-08 -5.54132e-08)
(-2.17328e-08 2.91703e-08 -5.82507e-08)
(-3.13354e-08 2.28468e-08 -6.16999e-08)
(-4.40636e-08 1.53812e-08 -6.56211e-08)
(-6.03932e-08 5.90213e-09 -6.97084e-08)
(-8.12138e-08 -7.18968e-09 -7.37836e-08)
(0 6.92591e-08 -5.30329e-08)
(-6.29596e-10 6.78921e-08 -5.31286e-08)
(-1.439e-09 6.39833e-08 -5.34323e-08)
(-2.65778e-09 5.83159e-08 -5.4041e-08)
(-4.64708e-09 5.18479e-08 -5.50765e-08)
(-7.94389e-09 4.53036e-08 -5.66361e-08)
(-1.32196e-08 3.89732e-08 -5.87618e-08)
(-2.11951e-08 3.26413e-08 -6.14066e-08)
(-3.26584e-08 2.55713e-08 -6.44175e-08)
(-4.8551e-08 1.66239e-08 -6.75197e-08)
(-7.14602e-08 2.98758e-09 -7.05395e-08)
(0 8.59065e-08 -5.71572e-08)
(2.5225e-10 8.39831e-08 -5.71204e-08)
(5.10633e-10 7.85876e-08 -5.70523e-08)
(6.88269e-10 7.09993e-08 -5.71167e-08)
(5.19837e-10 6.28277e-08 -5.75109e-08)
(-5.12855e-10 5.53349e-08 -5.83886e-08)
(-3.21017e-09 4.89995e-08 -5.98159e-08)
(-8.54534e-09 4.35337e-08 -6.17562e-08)
(-1.74311e-08 3.81139e-08 -6.40679e-08)
(-3.09737e-08 3.1407e-08 -6.6528e-08)
(-5.35595e-08 1.92907e-08 -6.89577e-08)
(0 1.05036e-07 -6.23122e-08)
(8.42888e-10 1.02153e-07 -6.20834e-08)
(1.94744e-09 9.42596e-08 -6.14978e-08)
(3.44229e-09 8.35789e-08 -6.08561e-08)
(5.21691e-09 7.27741e-08 -6.04879e-08)
(6.82883e-09 6.39282e-08 -6.06304e-08)
(7.45655e-09 5.78844e-08 -6.13763e-08)
(5.92692e-09 5.42203e-08 -6.2696e-08)
(1.06463e-09 5.17242e-08 -6.4454e-08)
(-8.16507e-09 4.88144e-08 -6.64625e-08)
(-2.7249e-08 4.05139e-08 -6.85249e-08)
(0 1.28059e-07 -6.87501e-08)
(9.30405e-10 1.2346e-07 -6.82096e-08)
(2.44772e-09 1.11205e-07 -6.68234e-08)
(4.97745e-09 9.53757e-08 -6.51922e-08)
(8.64088e-09 8.04102e-08 -6.38812e-08)
(1.31187e-08 6.94808e-08 -6.32226e-08)
(1.75858e-08 6.38158e-08 -6.33107e-08)
(2.07429e-08 6.27604e-08 -6.40806e-08)
(2.10519e-08 6.43595e-08 -6.5369e-08)
(1.75088e-08 6.64345e-08 -6.7004e-08)
(4.73518e-09 6.3859e-08 -6.87647e-08)
(0 1.57439e-07 -7.69146e-08)
(2.78851e-10 1.49599e-07 -7.57912e-08)
(1.54398e-09 1.29556e-07 -7.30399e-08)
(4.60008e-09 1.052e-07 -6.99427e-08)
(9.89028e-09 8.37966e-08 -6.74398e-08)
(1.72872e-08 6.98458e-08 -6.59255e-08)
(2.59415e-08 6.47376e-08 -6.5411e-08)
(3.42745e-08 6.71697e-08 -6.57231e-08)
(4.02368e-08 7.39637e-08 -6.66255e-08)
(4.24079e-08 8.15537e-08 -6.79064e-08)
(3.67599e-08 8.50014e-08 -6.92994e-08)
(0 1.98287e-07 -8.78179e-08)
(-1.33529e-09 1.83996e-07 -8.54166e-08)
(-1.27735e-09 1.50797e-07 -8.02695e-08)
(1.31474e-09 1.13409e-07 -7.50101e-08)
(7.28347e-09 8.24952e-08 -7.10132e-08)
(1.68767e-08 6.35905e-08 -6.85703e-08)
(2.94558e-08 5.8092e-08 -6.74716e-08)
(4.32717e-08 6.40821e-08 -6.73709e-08)
(5.54878e-08 7.70123e-08 -6.79346e-08)
(6.27587e-08 9.07132e-08 -6.8856e-08)
(6.2626e-08 9.96415e-08 -6.99002e-08)
(0 0 -4.64177e-08)
(-2.88101e-09 -0 -4.68573e-08)
(-6.08408e-09 -0 -4.81731e-08)
(-9.96669e-09 -0 -5.03849e-08)
(-1.49433e-08 -0 -5.35695e-08)
(-2.14347e-08 -0 -5.78684e-08)
(-2.98562e-08 -0 -6.3493e-08)
(-4.06231e-08 -0 -7.07507e-08)
(-5.41761e-08 -0 -8.00927e-08)
(-7.11514e-08 -0 -9.22327e-08)
(-9.32563e-08 -0 -1.08672e-07)
(0 1.55543e-08 -4.68971e-08)
(-2.6309e-09 1.52175e-08 -4.73243e-08)
(-5.60441e-09 1.42977e-08 -4.85989e-08)
(-9.26748e-09 1.31016e-08 -5.07474e-08)
(-1.40101e-08 1.17651e-08 -5.38471e-08)
(-2.02476e-08 1.0297e-08 -5.80316e-08)
(-2.83853e-08 8.64798e-09 -6.34916e-08)
(-3.88027e-08 6.709e-09 -7.04945e-08)
(-5.1834e-08 4.30974e-09 -7.94002e-08)
(-6.77659e-08 1.24015e-09 -9.0698e-08)
(-8.72349e-08 -2.67932e-09 -1.05254e-07)
(0 3.09985e-08 -4.83282e-08)
(-1.93384e-09 3.0453e-08 -4.87137e-08)
(-4.22285e-09 2.88853e-08 -4.98683e-08)
(-7.2074e-09 2.66563e-08 -5.18322e-08)
(-1.12378e-08 2.40824e-08 -5.46819e-08)
(-1.66991e-08 2.12834e-08 -5.85342e-08)
(-2.39919e-08 1.81771e-08 -6.35372e-08)
(-3.34469e-08 1.45529e-08 -6.986e-08)
(-4.52126e-08 1.0073e-08 -7.76562e-08)
(-5.90532e-08 4.31068e-09 -8.69971e-08)
(-7.45168e-08 -3.20251e-09 -9.80446e-08)
(0 4.65979e-08 -5.07135e-08)
(-9.18322e-10 4.58962e-08 -5.10367e-08)
(-2.13938e-09 4.38535e-08 -5.2009e-08)
(-3.99161e-09 4.08191e-08 -5.3688e-08)
(-6.82419e-09 3.71994e-08 -5.61562e-08)
(-1.10024e-08 3.33015e-08 -5.9517e-08)
(-1.69247e-08 2.91178e-08 -6.38744e-08)
(-2.49512e-08 2.43434e-08 -6.93015e-08)
(-3.52249e-08 1.84651e-08 -7.57714e-08)
(-4.74443e-08 1.08317e-08 -8.30701e-08)
(-6.13055e-08 3.29178e-10 -9.10015e-08)
(0 6.2889e-08 -5.41025e-08)
(3.00046e-10 6.19969e-08 -5.43466e-08)
(4.03395e-10 5.94171e-08 -5.50813e-08)
(4.83589e-11 5.56269e-08 -5.63891e-08)
(-1.11281e-09 5.11609e-08 -5.83771e-08)
(-3.49273e-09 4.64593e-08 -6.11506e-08)
(-7.5271e-09 4.16725e-08 -6.47884e-08)
(-1.36579e-08 3.65106e-08 -6.93057e-08)
(-2.22555e-08 3.0277e-08 -7.45893e-08)
(-3.34181e-08 2.20595e-08 -8.03311e-08)
(-4.80959e-08 9.65882e-09 -8.62074e-08)
(0 8.03596e-08 -5.86029e-08)
(1.58694e-09 7.91957e-08 -5.87446e-08)
(3.13966e-09 7.58506e-08 -5.91764e-08)
(4.51297e-09 7.1068e-08 -6.00242e-08)
(5.41643e-09 6.57425e-08 -6.14462e-08)
(5.39047e-09 6.05369e-08 -6.35786e-08)
(3.86105e-09 5.57047e-08 -6.65048e-08)
(2.35127e-10 5.10157e-08 -7.02175e-08)
(-6.08461e-09 4.5714e-08 -7.45912e-08)
(-1.57468e-08 3.86037e-08 -7.93497e-08)
(-3.16249e-08 2.59874e-08 -8.4091e-08)
(0 9.95503e-08 -6.43859e-08)
(2.77816e-09 9.79268e-08 -6.43838e-08)
(5.75439e-09 9.3365e-08 -6.44129e-08)
(8.95604e-09 8.70566e-08 -6.46808e-08)
(1.21993e-08 8.04983e-08 -6.54365e-08)
(1.50447e-08 7.48653e-08 -6.68837e-08)
(1.6788e-08 7.05818e-08 -6.91287e-08)
(1.65639e-08 6.73336e-08 -7.21685e-08)
(1.35808e-08 6.43081e-08 -7.58935e-08)
(6.87434e-09 6.01304e-08 -8.00889e-08)
(-8.44563e-09 4.95188e-08 -8.42686e-08)
(0 1.21179e-07 -7.17116e-08)
(3.68163e-09 1.18751e-07 -7.14908e-08)
(7.86814e-09 1.12107e-07 -7.0933e-08)
(1.28306e-08 1.03269e-07 -7.04171e-08)
(1.85545e-08 9.46897e-08 -7.03546e-08)
(2.46671e-08 8.83266e-08 -7.10496e-08)
(3.04093e-08 8.49735e-08 -7.26364e-08)
(3.46846e-08 8.41925e-08 -7.51118e-08)
(3.63337e-08 8.47593e-08 -7.83544e-08)
(3.43258e-08 8.50959e-08 -8.21958e-08)
(2.25558e-08 7.8947e-08 -8.60925e-08)
(0 1.46333e-07 -8.09716e-08)
(4.07482e-09 1.42471e-07 -8.03792e-08)
(9.03399e-09 1.32168e-07 -7.88711e-08)
(1.54777e-08 1.19031e-07 -7.7207e-08)
(2.36428e-08 1.07104e-07 -7.60937e-08)
(3.32783e-08 9.93899e-08 -7.59491e-08)
(4.35743e-08 9.70996e-08 -7.68996e-08)
(5.32155e-08 9.95972e-08 -7.88829e-08)
(6.05459e-08 1.04874e-07 -8.17103e-08)
(6.44918e-08 1.10812e-07 -8.52366e-08)
(5.90391e-08 1.11085e-07 -8.88989e-08)
(0 1.76824e-07 -9.2794e-08)
(3.71436e-09 1.70299e-07 -9.1483e-08)
(8.76327e-09 1.53526e-07 -8.83009e-08)
(1.61756e-08 1.33221e-07 -8.48757e-08)
(2.65382e-08 1.15934e-07 -8.23881e-08)
(3.97946e-08 1.06017e-07 -8.13291e-08)
(5.50701e-08 1.04964e-07 -8.17059e-08)
(7.06396e-08 1.11548e-07 -8.32893e-08)
(8.41558e-08 1.22498e-07 -8.57577e-08)
(9.392e-08 1.34223e-07 -8.88693e-08)
(9.51798e-08 1.40781e-07 -9.2028e-08)
(0 2.16433e-07 -1.0852e-07)
(2.28531e-09 2.04708e-07 -1.05574e-07)
(6.31954e-09 1.7728e-07 -9.93841e-08)
(1.3526e-08 1.46041e-07 -9.32775e-08)
(2.49333e-08 1.20519e-07 -8.89838e-08)
(4.08929e-08 1.06356e-07 -8.68664e-08)
(6.07461e-08 1.05404e-07 -8.6647e-08)
(8.25427e-08 1.16e-07 -8.78504e-08)
(1.02995e-07 1.33452e-07 -8.99761e-08)
(1.17984e-07 1.51074e-07 -9.24942e-08)
(1.24364e-07 1.6285e-07 -9.49913e-08)
(0 0 -4.24211e-08)
(-1.38159e-09 -0 -4.28229e-08)
(-3.06427e-09 -0 -4.40266e-08)
(-5.36863e-09 -0 -4.60567e-08)
(-8.66152e-09 -0 -4.89929e-08)
(-1.33484e-08 -0 -5.2975e-08)
(-1.98867e-08 -0 -5.82083e-08)
(-2.88309e-08 -0 -6.49837e-08)
(-4.09407e-08 -0 -7.37141e-08)
(-5.75286e-08 -0 -8.50266e-08)
(-8.17639e-08 -0 -1.00214e-07)
(0 1.59308e-08 -4.29507e-08)
(-1.11763e-09 1.56321e-08 -4.33433e-08)
(-2.54132e-09 1.48201e-08 -4.45129e-08)
(-4.58085e-09 1.37945e-08 -4.649e-08)
(-7.57909e-09 1.26807e-08 -4.93568e-08)
(-1.19247e-08 1.14763e-08 -5.32453e-08)
(-1.80426e-08 1.01251e-08 -5.83422e-08)
(-2.64033e-08 8.51781e-09 -6.49035e-08)
(-3.75585e-08 6.49147e-09 -7.32619e-08)
(-5.22299e-08 3.85451e-09 -8.38479e-08)
(-7.20199e-08 3.9086e-10 -9.73838e-08)
(0 3.18064e-08 -4.45254e-08)
(-3.7637e-10 3.13414e-08 -4.48852e-08)
(-1.03983e-09 3.00003e-08 -4.59575e-08)
(-2.28197e-09 2.81251e-08 -4.77839e-08)
(-4.40227e-09 2.60089e-08 -5.04468e-08)
(-7.73582e-09 2.375e-08 -5.40643e-08)
(-1.26449e-08 2.12518e-08 -5.8785e-08)
(-1.94429e-08 1.83016e-08 -6.47782e-08)
(-2.82812e-08 1.45708e-08 -7.21954e-08)
(-3.88954e-08 9.65824e-09 -8.11031e-08)
(-5.1036e-08 2.99028e-09 -9.1588e-08)
(0 4.79477e-08 -4.71374e-08)
(7.21398e-10 4.73729e-08 -4.74476e-08)
(1.23546e-09 4.56893e-08 -4.83757e-08)
(1.28632e-09 4.32127e-08 -4.99765e-08)
(5.95015e-10 4.03071e-08 -5.23338e-08)
(-1.12983e-09 3.72432e-08 -5.55548e-08)
(-4.19281e-09 3.39908e-08 -5.97513e-08)
(-8.83125e-09 3.02385e-08 -6.50083e-08)
(-1.50112e-08 2.54799e-08 -7.13193e-08)
(-2.20936e-08 1.90903e-08 -7.85046e-08)
(-2.96098e-08 9.75761e-09 -8.63002e-08)
(0 6.49371e-08 -5.08281e-08)
(2.04757e-09 6.42254e-08 -5.10762e-08)
(4.02159e-09 6.21568e-08 -5.18168e-08)
(5.74919e-09 5.91576e-08 -5.31266e-08)
(6.97551e-09 5.56933e-08 -5.51066e-08)
(7.38833e-09 5.2142e-08 -5.78623e-08)
(6.67762e-09 4.86189e-08 -6.14852e-08)
(4.57846e-09 4.48259e-08 -6.60141e-08)
(9.74607e-10 4.00694e-08 -7.13681e-08)
(-3.82202e-09 3.34598e-08 -7.72887e-08)
(-1.05442e-08 2.24873e-08 -8.33455e-08)
(0 8.32835e-08 -5.56966e-08)
(3.45717e-09 8.23678e-08 -5.58641e-08)
(7.02859e-09 7.97234e-08 -5.63637e-08)
(1.06709e-08 7.60129e-08 -5.73103e-08)
(1.4193e-08 7.2022e-08 -5.88487e-08)
(1.72534e-08 6.83168e-08 -6.11079e-08)
(1.94223e-08 6.50931e-08 -6.41803e-08)
(2.02789e-08 6.21062e-08 -6.80874e-08)
(1.94577e-08 5.86152e-08 -7.27477e-08)
(1.66429e-08 5.34412e-08 -7.79342e-08)
(9.13515e-09 4.24505e-08 -8.30815e-08)
(0 1.03507e-07 -6.19023e-08)
(4.7811e-09 1.02227e-07 -6.1953e-08)
(9.92994e-09 9.8629e-08 -6.21269e-08)
(1.55869e-08 9.37623e-08 -6.26099e-08)
(2.16642e-08 8.89456e-08 -6.36252e-08)
(2.78309e-08 8.52087e-08 -6.53605e-08)
(3.35231e-08 8.28937e-08 -6.79241e-08)
(3.80328e-08 8.16625e-08 -7.13369e-08)
(4.07191e-08 8.07348e-08 -7.55405e-08)
(4.07967e-08 7.8762e-08 -8.03702e-08)
(3.35173e-08 6.99137e-08 -8.51273e-08)
(0 1.26235e-07 -6.96838e-08)
(5.82929e-09 1.24304e-07 -6.95523e-08)
(1.23522e-08 1.19026e-07 -6.92395e-08)
(1.99573e-08 1.12157e-07 -6.90826e-08)
(2.87217e-08 1.05845e-07 -6.94453e-08)
(3.83588e-08 1.01831e-07 -7.0602e-08)
(4.82098e-08 1.00809e-07 -7.26828e-08)
(5.73091e-08 1.02329e-07 -7.57054e-08)
(6.45645e-08 1.05197e-07 -7.95892e-08)
(6.89715e-08 1.07894e-07 -8.42216e-08)
(6.45387e-08 1.03583e-07 -8.88352e-08)
(0 1.52332e-07 -7.93889e-08)
(6.38649e-09 1.4924e-07 -7.89404e-08)
(1.3862e-08 1.40984e-07 -7.78197e-08)
(2.31453e-08 1.30618e-07 -7.67022e-08)
(3.45592e-08 1.21663e-07 -7.62112e-08)
(4.79211e-08 1.1682e-07 -7.67161e-08)
(6.24717e-08 1.17199e-07 -7.83331e-08)
(7.69475e-08 1.22187e-07 -8.10181e-08)
(8.96736e-08 1.29818e-07 -8.46086e-08)
(9.95243e-08 1.38103e-07 -8.9023e-08)
(1.00534e-07 1.40186e-07 -9.35e-08)
(0 1.83135e-07 -9.1554e-08)
(6.22193e-09 1.77925e-07 -9.04813e-08)
(1.39907e-08 1.64447e-07 -8.79145e-08)
(2.44619e-08 1.48197e-07 -8.52998e-08)
(3.83025e-08 1.34836e-07 -8.36766e-08)
(5.55056e-08 1.28356e-07 -8.34713e-08)
(7.52084e-08 1.30229e-07 -8.46818e-08)
(9.56486e-08 1.39328e-07 -8.70935e-08)
(1.1436e-07 1.52475e-07 -9.03993e-08)
(1.29479e-07 1.66243e-07 -9.44031e-08)
(1.36101e-07 1.74301e-07 -9.83491e-08)
(0 2.21417e-07 -1.0733e-07)
(4.97331e-09 2.12125e-07 -1.04797e-07)
(1.18814e-08 1.9027e-07 -9.95984e-08)
(2.22895e-08 1.65046e-07 -9.46635e-08)
(3.73072e-08 1.44631e-07 -9.15084e-08)
(5.73292e-08 1.34428e-07 -9.04425e-08)
(8.16926e-08 1.36512e-07 -9.12026e-08)
(1.08377e-07 1.49477e-07 -9.33358e-08)
(1.33925e-07 1.68779e-07 -9.63392e-08)
(1.53893e-07 1.87749e-07 -9.96385e-08)
(1.64855e-07 2.00431e-07 -1.02782e-07)
(0 0 -3.21044e-08)
(-2.68563e-10 -0 -3.23688e-08)
(-7.82193e-10 -0 -3.31645e-08)
(-1.79474e-09 -0 -3.45073e-08)
(-3.5953e-09 -0 -3.64516e-08)
(-6.5263e-09 -0 -3.90907e-08)
(-1.10089e-08 -0 -4.25599e-08)
(-1.76046e-08 -0 -4.70477e-08)
(-2.71637e-08 -0 -5.28146e-08)
(-4.12577e-08 -0 -6.02426e-08)
(-6.3654e-08 -0 -7.01117e-08)
(0 1.40111e-08 -3.25846e-08)
(-2.36609e-11 1.37708e-08 -3.28453e-08)
(-2.85867e-10 1.31268e-08 -3.36212e-08)
(-1.02998e-09 1.23359e-08 -3.49323e-08)
(-2.5228e-09 1.14971e-08 -3.68376e-08)
(-5.08323e-09 1.06015e-08 -3.94246e-08)
(-9.0868e-09 9.59064e-09 -4.28162e-08)
(-1.49837e-08 8.35947e-09 -4.71799e-08)
(-2.33592e-08 6.75873e-09 -5.27265e-08)
(-3.50675e-08 4.623e-09 -5.97167e-08)