/*--------------------------------*- C++ -*----------------------------------*\
| =========                 |                                                 |
| \\      /  F ield         | foam-extend: Open Source CFD                    |
|  \\    /   O peration     | Version:     3.1                                |
|   \\  /    A nd           | Web:         http://www.extend-project.de       |
|    \\/     M anipulation  |                                                 |
\*---------------------------------------------------------------------------*/
FoamFile
{
    version     2.0;
    format      ascii;
    class       surfaceVectorField;
    location    "0.0012";
    object      Sf;
}
// * * * * * * * * * * * * * * * * * * * * * * * * * * * * * * * * * * * * * //

dimensions      [0 2 0 0 0 0 0];

internalField   nonuniform List<vector> 
45800
(
(2.10741e-07 3.67851e-09 -7.47972e-10)
(3.67797e-09 2.10739e-07 -7.49719e-10)
(-1.15113e-11 -1.14531e-11 1.16051e-07)
(2.07081e-07 7.35229e-09 -1.44821e-09)
(3.69331e-09 2.10744e-07 -7.44249e-10)
(-3.37891e-11 -1.20511e-11 1.13997e-07)
(2.03439e-07 1.10242e-08 -2.0902e-09)
(3.69762e-09 2.1076e-07 -7.28456e-10)
(-5.52624e-11 -1.32716e-11 1.11923e-07)
(1.99818e-07 1.46997e-08 -2.67872e-09)
(3.69792e-09 2.10799e-07 -7.10763e-10)
(-7.71518e-11 -1.52854e-11 1.09851e-07)
(1.96221e-07 1.83805e-08 -3.21964e-09)
(3.69817e-09 2.10867e-07 -6.93873e-10)
(-1.00599e-10 -1.82693e-11 1.07786e-07)
(1.92649e-07 2.20686e-08 -3.71647e-09)
(3.69841e-09 2.10966e-07 -6.78367e-10)
(-1.26535e-10 -2.24021e-11 1.05726e-07)
(1.89106e-07 2.57663e-08 -4.17031e-09)
(3.69831e-09 2.11096e-07 -6.65005e-10)
(-1.55823e-10 -2.79388e-11 1.03669e-07)
(1.85597e-07 2.94761e-08 -4.57949e-09)
(3.69783e-09 2.1126e-07 -6.54783e-10)
(-1.88912e-10 -3.50979e-11 1.01613e-07)
(1.82126e-07 3.32016e-08 -4.93887e-09)
(3.69687e-09 2.11459e-07 -6.48791e-10)
(-2.25748e-10 -4.37214e-11 9.95567e-08)
(3.70701e-09 2.11697e-07 -6.42361e-10)
(-2.67761e-10 -5.12813e-11 9.74938e-08)
(1.78687e-07 3.69509e-08 -5.24235e-09)
(2.10743e-07 3.69276e-09 -7.42504e-10)
(7.35125e-09 2.0708e-07 -1.4487e-09)
(-1.20871e-11 -3.37091e-11 1.13994e-07)
(2.07095e-07 7.37626e-09 -1.44589e-09)
(7.37516e-09 2.07094e-07 -1.44748e-09)
(-3.39791e-11 -3.38825e-11 1.11959e-07)
(2.0346e-07 1.10518e-08 -2.09786e-09)
(7.38845e-09 2.07119e-07 -1.42747e-09)
(-5.52721e-11 -3.44444e-11 1.09903e-07)
(1.99842e-07 1.47277e-08 -2.69715e-09)
(7.393e-09 2.07159e-07 -1.39933e-09)
(-7.70119e-11 -3.56168e-11 1.07839e-07)
(1.96246e-07 1.84093e-08 -3.24751e-09)
(7.39417e-09 2.07223e-07 -1.37026e-09)
(-1.00284e-10 -3.7564e-11 1.05777e-07)
(1.92675e-07 2.20985e-08 -3.7525e-09)
(7.39514e-09 2.07317e-07 -1.3432e-09)
(-1.25981e-10 -4.04956e-11 1.0372e-07)
(1.89133e-07 2.57976e-08 -4.21338e-09)
(7.39521e-09 2.07441e-07 -1.31983e-09)
(-1.5489e-10 -4.4572e-11 1.01665e-07)
(1.85623e-07 2.95099e-08 -4.62837e-09)
(7.39481e-09 2.07597e-07 -1.30201e-09)
(-1.87176e-10 -4.96202e-11 9.96107e-08)
(1.82148e-07 3.32385e-08 -4.99241e-09)
(7.39448e-09 2.07786e-07 -1.29118e-09)
(-2.22416e-10 -5.50218e-11 9.75543e-08)
(7.41795e-09 2.0801e-07 -1.2767e-09)
(-2.59159e-10 -5.88114e-11 9.54856e-08)
(1.78696e-07 3.69842e-08 -5.29636e-09)
(2.10757e-07 3.69611e-09 -7.27773e-10)
(1.10238e-08 2.03439e-07 -2.08879e-09)
(-1.32652e-11 -5.52542e-11 1.1192e-07)
(2.07117e-07 7.38746e-09 -1.42578e-09)
(1.10501e-08 2.03458e-07 -2.09751e-09)
(-3.44986e-11 -5.52017e-11 1.099e-07)
(2.0349e-07 1.10718e-08 -2.08248e-09)
(1.10706e-08 2.03489e-07 -2.08362e-09)
(-5.54173e-11 -5.53116e-11 1.07864e-07)
(1.99877e-07 1.47521e-08 -2.69136e-09)
(1.10832e-08 2.03534e-07 -2.05486e-09)
(-7.68371e-11 -5.58473e-11 1.05815e-07)
(1.96282e-07 1.84353e-08 -3.25122e-09)
(1.10883e-08 2.03597e-07 -2.02009e-09)
(-9.97511e-11 -5.69894e-11 1.03759e-07)
(1.92713e-07 2.21264e-08 -3.76422e-09)
(1.10902e-08 2.03685e-07 -1.98615e-09)
(-1.2506e-10 -5.89412e-11 1.01705e-07)
(1.8917e-07 2.58275e-08 -4.23159e-09)
(1.10912e-08 2.03802e-07 -1.95669e-09)
(-1.5336e-10 -6.1871e-11 9.96528e-08)
(1.85657e-07 2.95419e-08 -4.65114e-09)
(1.10918e-08 2.03948e-07 -1.934e-09)
(-1.84443e-10 -6.56024e-11 9.75995e-08)
(1.82177e-07 3.32721e-08 -5.01812e-09)
(1.10925e-08 2.04125e-07 -1.9199e-09)
(-2.17788e-10 -6.97337e-11 9.5543e-08)
(1.11305e-08 2.04338e-07 -1.898e-09)
(-2.50228e-10 -7.23156e-11 9.34741e-08)
(1.78715e-07 3.70156e-08 -5.32426e-09)
(2.10798e-07 3.69753e-09 -7.11075e-10)
(1.46996e-08 1.99819e-07 -2.67659e-09)
(-1.526e-11 -7.7207e-11 1.0985e-07)
(2.07157e-07 7.39141e-09 -1.39892e-09)
(1.4727e-08 1.99841e-07 -2.6954e-09)
(-3.56102e-11 -7.70425e-11 1.07837e-07)
(2.03533e-07 1.10822e-08 -2.05353e-09)
(1.47503e-08 1.99875e-07 -2.69085e-09)
(-5.59031e-11 -7.67961e-11 1.05812e-07)
(1.99924e-07 1.47701e-08 -2.6673e-09)
(1.47689e-08 1.99923e-07 -2.66828e-09)
(-7.6865e-11 -7.67794e-11 1.03777e-07)
(1.96331e-07 1.84575e-08 -3.23514e-09)
(1.47811e-08 1.99987e-07 -2.63442e-09)
(-9.92907e-11 -7.72554e-11 1.01731e-07)
(1.92758e-07 2.21504e-08 -3.75546e-09)
(1.47864e-08 2.0007e-07 -2.59734e-09)
(-1.2407e-10 -7.84253e-11 9.968e-08)
(1.89213e-07 2.5854e-08 -4.22822e-09)
(1.47881e-08 2.00179e-07 -2.5641e-09)
(-1.51724e-10 -8.05191e-11 9.76281e-08)
(1.85697e-07 2.95707e-08 -4.65113e-09)
(1.47898e-08 2.00315e-07 -2.53861e-09)
(-1.81819e-10 -8.36243e-11 9.55748e-08)
(1.82211e-07 3.33024e-08 -5.01998e-09)
(1.47923e-08 2.00481e-07 -2.52261e-09)
(-2.13824e-10 -8.76589e-11 9.35183e-08)
(1.48445e-08 2.00685e-07 -2.49442e-09)
(-2.42338e-10 -9.00366e-11 9.14514e-08)
(1.7874e-07 3.70457e-08 -5.32882e-09)
(2.10867e-07 3.69823e-09 -6.94356e-10)
(1.83804e-08 1.96221e-07 -3.21738e-09)
(-1.82533e-11 -1.00675e-10 1.07786e-07)
(2.07223e-07 7.39371e-09 -1.3709e-09)
(1.84091e-08 1.96246e-07 -3.24545e-09)
(-3.75313e-11 -1.00358e-10 1.05777e-07)
(2.03595e-07 1.10868e-08 -2.01995e-09)
(1.84345e-08 1.96282e-07 -3.24967e-09)
(-5.69586e-11 -9.97781e-11 1.03758e-07)
(1.99986e-07 1.47802e-08 -2.63321e-09)
(1.84556e-08 1.96329e-07 -3.23481e-09)
(-7.72932e-11 -9.92351e-11 1.01729e-07)
(1.96393e-07 1.84745e-08 -3.20497e-09)
(1.8473e-08 1.96392e-07 -3.20618e-09)
(-9.91761e-11 -9.90824e-11 9.9692e-08)
(1.92818e-07 2.2171e-08 -3.73108e-09)
(1.84849e-08 1.96474e-07 -3.16997e-09)
(-1.23437e-10 -9.96776e-11 9.76466e-08)
(1.89267e-07 2.58761e-08 -4.2082e-09)
(1.84899e-08 1.96575e-07 -3.13412e-09)
(-1.50461e-10 -1.01222e-10 9.55945e-08)
(1.85745e-07 2.95952e-08 -4.63293e-09)
(1.84914e-08 1.967e-07 -3.10584e-09)
(-1.79955e-10 -1.03929e-10 9.35387e-08)
(1.82254e-07 3.33301e-08 -5.00189e-09)
(1.84952e-08 1.96854e-07 -3.08834e-09)
(-2.11268e-10 -1.08048e-10 9.14808e-08)
(1.85599e-08 1.9705e-07 -3.05522e-09)
(-2.35821e-10 -1.10149e-10 8.94168e-08)
(1.78774e-07 3.70753e-08 -5.31242e-09)
(2.10966e-07 3.69845e-09 -6.78795e-10)
(2.20686e-08 1.92649e-07 -3.71423e-09)
(-2.23928e-11 -1.26601e-10 1.05726e-07)
(2.07317e-07 7.39522e-09 -1.34403e-09)
(2.20983e-08 1.92676e-07 -3.75045e-09)
(-4.04569e-11 -1.26046e-10 1.0372e-07)
(2.03684e-07 1.10897e-08 -1.98698e-09)
(2.2126e-08 1.92713e-07 -3.76246e-09)
(-5.88722e-11 -1.2512e-10 1.01705e-07)
(2.00069e-07 1.47847e-08 -2.59735e-09)
(2.21495e-08 1.92758e-07 -3.75429e-09)
(-7.84066e-11 -1.2411e-10 9.96784e-08)
(1.96473e-07 1.84837e-08 -3.16855e-09)
(2.21688e-08 1.92816e-07 -3.73127e-09)
(-9.97052e-11 -1.23396e-10 9.76442e-08)
(1.92896e-07 2.21873e-08 -3.69667e-09)
(2.21853e-08 1.92893e-07 -3.69867e-09)
(-1.23466e-10 -1.2337e-10 9.56041e-08)
(1.89338e-07 2.58961e-08 -4.17658e-09)
(2.21973e-08 1.92991e-07 -3.66224e-09)
(-1.4993e-10 -1.2434e-10 9.35547e-08)
(1.85807e-07 2.96168e-08 -4.60167e-09)
(2.22012e-08 1.93106e-07 -3.63014e-09)
(-1.79001e-10 -1.26597e-10 9.14955e-08)
(1.82307e-07 3.33554e-08 -4.96786e-09)
(2.2205e-08 1.93246e-07 -3.60895e-09)
(-2.09848e-10 -1.30253e-10 8.94323e-08)
(2.22776e-08 1.93432e-07 -3.57115e-09)
(-2.3034e-10 -1.3125e-10 8.73702e-08)
(1.7882e-07 3.71052e-08 -5.27719e-09)
(2.11096e-07 3.69834e-09 -6.65398e-10)
(2.57663e-08 1.89107e-07 -4.16826e-09)
(-2.793e-11 -1.55884e-10 1.03669e-07)
(2.07442e-07 7.39526e-09 -1.32059e-09)
(2.57974e-08 1.89134e-07 -4.2115e-09)
(-4.45299e-11 -1.54946e-10 1.01665e-07)
(2.03802e-07 1.10912e-08 -1.95778e-09)
(2.58273e-08 1.8917e-07 -4.22996e-09)
(-6.18e-11 -1.5341e-10 9.96532e-08)
(2.00178e-07 1.47874e-08 -2.56531e-09)
(2.58538e-08 1.89214e-07 -4.22688e-09)
(-8.04664e-11 -1.51758e-10 9.7628e-08)
(1.96573e-07 1.84874e-08 -3.13427e-09)
(2.58753e-08 1.89267e-07 -4.20731e-09)
(-1.01136e-10 -1.50427e-10 9.55923e-08)
(1.92989e-07 2.21956e-08 -3.66002e-09)
(2.58934e-08 1.89335e-07 -4.17701e-09)
(-1.24267e-10 -1.49706e-10 9.35508e-08)
(1.89427e-07 2.59115e-08 -4.13879e-09)
(2.59099e-08 1.89425e-07 -4.14096e-09)
(-1.50241e-10 -1.49927e-10 9.15036e-08)
(1.85886e-07 2.96367e-08 -4.56183e-09)
(2.59204e-08 1.89532e-07 -4.1051e-09)
(-1.78402e-10 -1.50951e-10 8.94435e-08)
(1.82373e-07 3.33792e-08 -4.92162e-09)
(2.59261e-08 1.89656e-07 -4.07677e-09)
(-2.08245e-10 -1.5258e-10 8.73725e-08)
(2.59981e-08 1.89827e-07 -4.03302e-09)
(-2.25023e-10 -1.51209e-10 8.53096e-08)
(1.78878e-07 3.71352e-08 -5.2251e-09)
(2.1126e-07 3.69788e-09 -6.55137e-10)
(2.94761e-08 1.85598e-07 -4.57779e-09)
(-3.50872e-11 -1.88974e-10 1.01614e-07)
(2.07598e-07 7.39492e-09 -1.3027e-09)
(2.95098e-08 1.85624e-07 -4.62681e-09)
(-4.95692e-11 -1.87228e-10 9.96114e-08)
(2.03949e-07 1.1092e-08 -1.93502e-09)
(2.95418e-08 1.85658e-07 -4.64976e-09)
(-6.55143e-11 -1.84473e-10 9.76e-08)
(2.00315e-07 1.47901e-08 -2.54002e-09)
(2.95706e-08 1.85697e-07 -4.64989e-09)
(-8.35116e-11 -1.81798e-10 9.55753e-08)
(1.96699e-07 1.8491e-08 -3.1073e-09)
(2.95954e-08 1.85745e-07 -4.63168e-09)
(-1.0375e-10 -1.79855e-10 9.35384e-08)
(1.93103e-07 2.21989e-08 -3.62955e-09)
(2.96162e-08 1.85806e-07 -4.60046e-09)
(-1.2621e-10 -1.78689e-10 9.14918e-08)
(1.89529e-07 2.59187e-08 -4.10279e-09)
(2.96345e-08 1.85883e-07 -4.56155e-09)
(-1.51106e-10 -1.77893e-10 8.94393e-08)
(1.85976e-07 2.96514e-08 -4.51852e-09)
(2.96504e-08 1.85975e-07 -4.51959e-09)
(-1.76811e-10 -1.7626e-10 8.73751e-08)
(1.82448e-07 3.33994e-08 -4.86717e-09)
(2.96589e-08 1.86082e-07 -4.48117e-09)
(-2.04532e-10 -1.73842e-10 8.52973e-08)
(2.97215e-08 1.8623e-07 -4.43055e-09)
(-2.17864e-10 -1.67839e-10 8.32323e-08)
(1.78942e-07 3.71638e-08 -5.15827e-09)
(2.1146e-07 3.69695e-09 -6.49089e-10)
(3.32016e-08 1.82127e-07 -4.93764e-09)
(-4.37082e-11 -2.25804e-10 9.95575e-08)
(2.07786e-07 7.39463e-09 -1.29174e-09)
(3.32384e-08 1.82149e-07 -4.99129e-09)
(-5.49625e-11 -2.22467e-10 9.75551e-08)
(2.04126e-07 1.10928e-08 -1.92071e-09)
(3.3272e-08 1.82177e-07 -5.01714e-09)
(-6.96259e-11 -2.17827e-10 9.55437e-08)
(2.00481e-07 1.47927e-08 -2.52364e-09)
(3.33024e-08 1.82211e-07 -5.01907e-09)
(-8.75035e-11 -2.13839e-10 9.35188e-08)
(1.96855e-07 1.84961e-08 -3.08958e-09)
(3.33301e-08 1.82253e-07 -5.00095e-09)
(-1.07829e-10 -2.11251e-10 9.14813e-08)
(1.93245e-07 2.22049e-08 -3.60937e-09)
(3.33556e-08 1.82307e-07 -4.96671e-09)
(-1.29821e-10 -2.0984e-10 8.94315e-08)
(1.89654e-07 2.59242e-08 -4.0759e-09)
(3.33784e-08 1.82372e-07 -4.92059e-09)
(-1.52717e-10 -2.08351e-10 8.73705e-08)
(1.86081e-07 2.96576e-08 -4.48009e-09)
(3.33979e-08 1.82446e-07 -4.86699e-09)
(-1.74302e-10 -2.04526e-10 8.52959e-08)
(1.82528e-07 3.34082e-08 -4.81237e-09)
(3.34077e-08 1.82528e-07 -4.81296e-09)
(-1.96468e-10 -1.96268e-10 8.32078e-08)
(3.34494e-08 1.82631e-07 -4.75195e-09)
(-2.01768e-10 -1.77853e-10 8.11323e-08)
(1.79002e-07 3.71857e-08 -5.08018e-09)
(2.11697e-07 3.70709e-09 -6.42587e-10)
(-5.12618e-11 -2.6777e-10 9.74945e-08)
(3.6951e-08 1.78687e-07 -5.24159e-09)
(2.0801e-07 7.41812e-09 -1.27713e-09)
(-5.87471e-11 -2.59171e-10 9.54862e-08)
(3.69842e-08 1.78697e-07 -5.29568e-09)
(2.04339e-07 1.11308e-08 -1.89857e-09)
(-7.22062e-11 -2.50248e-10 9.34747e-08)
(3.70156e-08 1.78715e-07 -5.32367e-09)
(2.00686e-07 1.48448e-08 -2.49508e-09)
(-8.98947e-11 -2.42378e-10 9.14518e-08)
(3.70456e-08 1.7874e-07 -5.32829e-09)
(1.9705e-07 1.85602e-08 -3.05588e-09)
(-1.09982e-10 -2.35915e-10 8.94172e-08)
(3.70753e-08 1.78774e-07 -5.31189e-09)
(1.93432e-07 2.22776e-08 -3.57158e-09)
(-1.31048e-10 -2.30581e-10 8.73705e-08)
(3.71052e-08 1.7882e-07 -5.27663e-09)
(1.89827e-07 2.59976e-08 -4.0332e-09)
(-1.51331e-10 -2.25351e-10 8.53099e-08)
(3.71351e-08 1.78877e-07 -5.22456e-09)
(1.86229e-07 2.97205e-08 -4.43037e-09)
(-1.67964e-10 -2.17953e-10 8.32318e-08)
(3.71634e-08 1.78942e-07 -5.15789e-09)
(1.82629e-07 3.34488e-08 -4.75134e-09)
(-1.77848e-10 -2.01482e-10 8.11312e-08)
(3.71851e-08 1.79001e-07 -5.08007e-09)
(-1.72655e-10 -1.72272e-10 7.90328e-08)
(1.79054e-07 3.71981e-08 -4.99671e-09)
(3.71978e-08 1.79053e-07 -4.99693e-09)
(2.11897e-07 3.69468e-09 -7.03509e-10)
(3.6931e-09 2.11892e-07 -7.0508e-10)
(-1.96057e-11 -1.95096e-11 1.1746e-07)
(2.08183e-07 7.37281e-09 -1.36232e-09)
(3.73729e-09 2.11857e-07 -7.00157e-10)
(-5.70018e-11 -2.04885e-11 1.15356e-07)
(2.04473e-07 1.10403e-08 -1.96703e-09)
(3.74797e-09 2.11802e-07 -6.85485e-10)
(-9.28812e-11 -2.24752e-11 1.13213e-07)
(2.00779e-07 1.47097e-08 -2.52289e-09)
(3.74596e-09 2.11765e-07 -6.69176e-10)
(-1.28934e-10 -2.57286e-11 1.11076e-07)
(1.97102e-07 1.83832e-08 -3.03641e-09)
(3.74273e-09 2.11756e-07 -6.53877e-10)
(-1.66805e-10 -3.04951e-11 1.08953e-07)
(1.93445e-07 2.20624e-08 -3.51231e-09)
(3.73823e-09 2.11771e-07 -6.40214e-10)
(-2.07657e-10 -3.69879e-11 1.06842e-07)
(1.89811e-07 2.57483e-08 -3.95368e-09)
(3.73123e-09 2.11804e-07 -6.29025e-10)
(-2.52351e-10 -4.5494e-11 1.04739e-07)
(1.86201e-07 2.9442e-08 -4.36184e-09)
(3.72131e-09 2.11849e-07 -6.21454e-10)
(-3.00801e-10 -5.61706e-11 1.02643e-07)
(1.82619e-07 3.3146e-08 -4.73591e-09)
(3.70776e-09 2.11893e-07 -6.1885e-10)
(-3.51766e-10 -6.84883e-11 1.0055e-07)
(3.72432e-09 2.11931e-07 -6.17772e-10)
(-4.05778e-10 -7.82621e-11 9.84506e-08)
(1.79033e-07 3.68754e-08 -5.07499e-09)
(2.11854e-07 3.73565e-09 -6.98573e-10)
(7.36977e-09 2.08179e-07 -1.36265e-09)
(-2.05468e-11 -5.68698e-11 1.1535e-07)
(2.08176e-07 7.44152e-09 -1.36066e-09)
(7.4383e-09 2.08174e-07 -1.36201e-09)
(-5.72407e-11 -5.70819e-11 1.13283e-07)
(2.04488e-07 1.11188e-08 -1.97505e-09)
(7.4735e-09 2.08148e-07 -1.3437e-09)
(-9.27794e-11 -5.78478e-11 1.11175e-07)
(2.00805e-07 1.47888e-08 -2.54132e-09)
(7.48112e-09 2.08119e-07 -1.31799e-09)
(-1.28547e-10 -5.95241e-11 1.09054e-07)
(1.97137e-07 1.84641e-08 -3.06406e-09)
(7.47673e-09 2.08106e-07 -1.29183e-09)
(-1.66092e-10 -6.23428e-11 1.06938e-07)
(1.93486e-07 2.21457e-08 -3.54804e-09)
(7.46926e-09 2.08115e-07 -1.26824e-09)
(-2.06524e-10 -6.6575e-11 1.04832e-07)
(1.89857e-07 2.58354e-08 -3.9965e-09)
(7.45623e-09 2.08142e-07 -1.24904e-09)
(-2.50593e-10 -7.23702e-11 1.02733e-07)
(1.8625e-07 2.95368e-08 -4.4106e-09)
(7.43823e-09 2.08177e-07 -1.23639e-09)
(-2.97801e-10 -7.92978e-11 1.0064e-07)
(1.82666e-07 3.32514e-08 -4.78927e-09)
(7.41624e-09 2.0821e-07 -1.23226e-09)
(-3.46419e-10 -8.61976e-11 9.85464e-08)
(7.4598e-09 2.08239e-07 -1.22842e-09)
(-3.92816e-10 -8.98888e-11 9.64347e-08)
(1.79064e-07 3.69743e-08 -5.12774e-09)
(2.11796e-07 3.74355e-09 -6.84889e-10)
(1.10389e-08 2.04473e-07 -1.96555e-09)
(-2.24622e-11 -9.28703e-11 1.13208e-07)
(2.08143e-07 7.47057e-09 -1.34222e-09)
(1.11138e-08 2.04485e-07 -1.97451e-09)
(-5.79341e-11 -9.26641e-11 1.11169e-07)
(2.04486e-07 1.1172e-08 -1.96152e-09)
(1.11683e-08 2.04484e-07 -1.96236e-09)
(-9.27583e-11 -9.2586e-11 1.09102e-07)
(2.00821e-07 1.48533e-08 -2.53725e-09)
(1.1197e-08 2.04475e-07 -1.93667e-09)
(-1.27912e-10 -9.30606e-11 1.07009e-07)
(1.97163e-07 1.85317e-08 -3.06937e-09)
(1.12003e-08 2.04465e-07 -1.90587e-09)
(-1.64782e-10 -9.43479e-11 1.04906e-07)
(1.93521e-07 2.22175e-08 -3.56142e-09)
(1.11906e-08 2.04467e-07 -1.87678e-09)
(-2.04498e-10 -9.67131e-11 1.02806e-07)
(1.89897e-07 2.59125e-08 -4.01658e-09)
(1.1174e-08 2.04486e-07 -1.85332e-09)
(-2.47523e-10 -1.00321e-10 1.00712e-07)
(1.86293e-07 2.96197e-08 -4.43546e-09)
(1.11511e-08 2.04509e-07 -1.83821e-09)
(-2.92812e-10 -1.04737e-10 9.86202e-08)
(1.82707e-07 3.33396e-08 -4.8171e-09)
(1.11225e-08 2.04529e-07 -1.83404e-09)
(-3.38596e-10 -1.0914e-10 9.65265e-08)
(1.11976e-08 2.04557e-07 -1.82792e-09)
(-3.78854e-10 -1.10379e-10 9.44133e-08)
(1.79098e-07 3.70596e-08 -5.15675e-09)
(2.11762e-07 3.74483e-09 -6.69548e-10)
(1.47097e-08 2.0078e-07 -2.52072e-09)
(-2.56847e-11 -1.29032e-10 1.11075e-07)
(2.08113e-07 7.47646e-09 -1.31772e-09)
(1.47867e-08 2.00805e-07 -2.53946e-09)
(-5.95092e-11 -1.28602e-10 1.0905e-07)
(2.04471e-07 1.1194e-08 -1.9356e-09)
(1.48478e-08 2.00818e-07 -2.53647e-09)
(-9.31482e-11 -1.27847e-10 1.07004e-07)
(2.00827e-07 1.48953e-08 -2.51664e-09)
(1.48917e-08 2.00824e-07 -2.51724e-09)
(-1.27407e-10 -1.27271e-10 1.04939e-07)
(1.97178e-07 1.85835e-08 -3.05697e-09)
(1.49124e-08 2.00826e-07 -2.48822e-09)
(-1.63335e-10 -1.2726e-10 1.02854e-07)
(1.93539e-07 2.2273e-08 -3.55659e-09)
(1.49083e-08 2.00827e-07 -2.45732e-09)
(-2.02039e-10 -1.28071e-10 1.0076e-07)
(1.89917e-07 2.59735e-08 -4.01758e-09)
(1.48877e-08 2.00834e-07 -2.43181e-09)
(-2.43877e-10 -1.29958e-10 9.86676e-08)
(1.86314e-07 2.96862e-08 -4.44036e-09)
(1.48603e-08 2.00846e-07 -2.41627e-09)
(-2.8748e-10 -1.32887e-10 9.65757e-08)
(1.82726e-07 3.34106e-08 -4.8243e-09)
(1.48274e-08 2.00854e-07 -2.41346e-09)
(-3.31139e-10 -1.36492e-10 9.44816e-08)
(1.49337e-08 2.00883e-07 -2.40607e-09)
(-3.65656e-10 -1.36633e-10 9.23714e-08)
(1.79113e-07 3.71317e-08 -5.16619e-09)
(2.11756e-07 3.74291e-09 -6.54427e-10)
(1.83831e-08 1.97104e-07 -3.03411e-09)
(-3.04676e-11 -1.66938e-10 1.08954e-07)
(2.08104e-07 7.4754e-09 -1.2926e-09)
(1.84635e-08 1.97138e-07 -3.06191e-09)
(-6.22855e-11 -1.66222e-10 1.06938e-07)
(2.04459e-07 1.11959e-08 -1.90593e-09)
(1.85294e-08 1.97162e-07 -3.06762e-09)
(-9.42925e-11 -1.64831e-10 1.04902e-07)
(2.00823e-07 1.49098e-08 -2.48736e-09)
(1.85781e-08 1.97174e-07 -3.05624e-09)
(-1.27316e-10 -1.63247e-10 1.02849e-07)
(1.97187e-07 1.86153e-08 -3.03243e-09)
(1.86111e-08 1.97184e-07 -3.03311e-09)
(-1.62144e-10 -1.61997e-10 1.00782e-07)
(1.9355e-07 2.23125e-08 -3.53854e-09)
(1.86217e-08 1.97192e-07 -3.00444e-09)
(-1.99779e-10 -1.61573e-10 9.86999e-08)
(1.89923e-07 2.60148e-08 -4.00461e-09)
(1.86052e-08 1.97193e-07 -2.97821e-09)
(-2.40354e-10 -1.62167e-10 9.66069e-08)
(1.86316e-07 2.97327e-08 -4.43021e-09)
(1.85702e-08 1.97188e-07 -2.96228e-09)
(-2.82732e-10 -1.63911e-10 9.45103e-08)
(1.82725e-07 3.34647e-08 -4.81535e-09)
(1.85321e-08 1.97181e-07 -2.96129e-09)
(-3.25059e-10 -1.66904e-10 9.24138e-08)
(1.86653e-08 1.97211e-07 -2.95392e-09)
(-3.53583e-10 -1.65746e-10 9.03085e-08)
(1.79111e-07 3.71923e-08 -5.15921e-09)
(2.11771e-07 3.73835e-09 -6.4071e-10)
(2.20622e-08 1.93447e-07 -3.51002e-09)
(-3.69719e-11 -2.07772e-10 1.06843e-07)
(2.08115e-07 7.46951e-09 -1.26921e-09)
(2.21452e-08 1.93487e-07 -3.5459e-09)
(-6.65081e-11 -2.06637e-10 1.04832e-07)
(2.04466e-07 1.11892e-08 -1.87781e-09)
(2.22166e-08 1.93522e-07 -3.55949e-09)
(-9.65955e-11 -2.04601e-10 1.02805e-07)
(2.00823e-07 1.49032e-08 -2.4576e-09)
(2.22704e-08 1.93538e-07 -3.55509e-09)
(-1.28035e-10 -2.02108e-10 1.00757e-07)
(1.9719e-07 1.86184e-08 -3.00346e-09)
(2.23061e-08 1.93545e-07 -3.53815e-09)
(-1.61612e-10 -1.99716e-10 9.86951e-08)
(1.9356e-07 2.23324e-08 -3.51304e-09)
(2.23265e-08 1.93553e-07 -3.51431e-09)
(-1.98114e-10 -1.97968e-10 9.66236e-08)
(1.89927e-07 2.6042e-08 -3.98325e-09)
(2.23253e-08 1.93556e-07 -3.48962e-09)
(-2.37428e-10 -1.97194e-10 9.45364e-08)
(1.86307e-07 2.97613e-08 -4.41065e-09)
(2.22902e-08 1.93539e-07 -3.47257e-09)
(-2.78715e-10 -1.97629e-10 9.24332e-08)
(1.82705e-07 3.35016e-08 -4.79477e-09)
(2.22433e-08 1.93509e-07 -3.47133e-09)
(-3.19828e-10 -1.99112e-10 9.03265e-08)
(2.23908e-08 1.93534e-07 -3.464e-09)
(-3.42043e-10 -1.95369e-10 8.8224e-08)
(1.79092e-07 3.72419e-08 -5.13856e-09)
(2.11805e-07 3.73132e-09 -6.29485e-10)
(2.57481e-08 1.89812e-07 -3.95157e-09)
(-4.54787e-11 -2.52454e-10 1.0474e-07)
(2.08142e-07 7.45637e-09 -1.24994e-09)
(2.5835e-08 1.89858e-07 -3.99451e-09)
(-7.22978e-11 -2.5069e-10 1.02734e-07)
(2.04486e-07 1.1174e-08 -1.85462e-09)
(2.59119e-08 1.89898e-07 -4.01475e-09)
(-1.00201e-10 -2.4761e-10 1.00713e-07)
(2.00833e-07 1.48856e-08 -2.43328e-09)
(2.59729e-08 1.89919e-07 -4.01592e-09)
(-1.29869e-10 -2.43937e-10 9.86675e-08)
(1.97187e-07 1.85981e-08 -2.97865e-09)
(2.60128e-08 1.89922e-07 -4.00324e-09)
(-1.62027e-10 -2.40302e-10 9.66028e-08)
(1.93552e-07 2.23203e-08 -3.48788e-09)
(2.60342e-08 1.89918e-07 -3.98288e-09)
(-1.97074e-10 -2.37079e-10 9.45286e-08)
(1.89921e-07 2.6046e-08 -3.95925e-09)
(2.60413e-08 1.89915e-07 -3.96061e-09)
(-2.3512e-10 -2.34644e-10 9.2446e-08)
(1.86287e-07 2.97748e-08 -4.38673e-09)
(2.60198e-08 1.89892e-07 -3.94276e-09)
(-2.74464e-10 -2.32563e-10 9.03412e-08)
(1.82665e-07 3.35232e-08 -4.76665e-09)
(2.59707e-08 1.89839e-07 -3.9379e-09)
(-3.13373e-10 -2.30184e-10 8.8219e-08)
(2.61082e-08 1.89848e-07 -3.92876e-09)
(-3.297e-10 -2.22052e-10 8.61143e-08)
(1.79052e-07 3.72808e-08 -5.10651e-09)
(2.1185e-07 3.72146e-09 -6.2188e-10)
(2.94419e-08 1.86202e-07 -4.36006e-09)
(-5.6152e-11 -3.00903e-10 1.02644e-07)
(2.08178e-07 7.43856e-09 -1.23723e-09)
(2.95365e-08 1.86252e-07 -4.4089e-09)
(-7.92109e-11 -2.97888e-10 1.00641e-07)
(2.04509e-07 1.11516e-08 -1.83944e-09)
(2.96194e-08 1.86294e-07 -4.43384e-09)
(-1.0459e-10 -2.92864e-10 9.86213e-08)
(2.00845e-07 1.48613e-08 -2.41798e-09)
(2.96862e-08 1.86315e-07 -4.43876e-09)
(-1.32702e-10 -2.87451e-10 9.65767e-08)
(1.97185e-07 1.85691e-08 -2.96405e-09)
(2.97334e-08 1.86317e-07 -4.42849e-09)
(-1.63627e-10 -2.82577e-10 9.45097e-08)
(1.9353e-07 2.22835e-08 -3.47226e-09)
(2.97599e-08 1.86303e-07 -4.40876e-09)
(-1.97029e-10 -2.78224e-10 9.24259e-08)
(1.89884e-07 2.60148e-08 -3.94091e-09)
(2.97684e-08 1.8628e-07 -4.38557e-09)
(-2.32788e-10 -2.73671e-10 9.0333e-08)
(1.86237e-07 2.97611e-08 -4.36388e-09)
(2.97581e-08 1.86236e-07 -4.36423e-09)
(-2.67785e-10 -2.66945e-10 8.82196e-08)
(1.82594e-07 3.35229e-08 -4.73522e-09)
(2.97118e-08 1.86161e-07 -4.35239e-09)
(-3.02819e-10 -2.57865e-10 8.60832e-08)
(2.9816e-08 1.8614e-07 -4.33917e-09)
(-3.13766e-10 -2.42399e-10 8.39724e-08)
(1.78982e-07 3.73048e-08 -5.06493e-09)
(2.11895e-07 3.70797e-09 -6.19226e-10)
(3.31459e-08 1.8262e-07 -4.73456e-09)
(-6.8465e-11 -3.51856e-10 1.00551e-07)
(2.08211e-07 7.41669e-09 -1.23298e-09)
(3.32512e-08 1.82667e-07 -4.78798e-09)
(-8.60976e-11 -3.46502e-10 9.85479e-08)
(2.04531e-07 1.11232e-08 -1.83509e-09)
(3.33395e-08 1.82708e-07 -4.81582e-09)
(-1.08961e-10 -3.38659e-10 9.65278e-08)
(2.00855e-07 1.48288e-08 -2.4148e-09)
(3.34107e-08 1.82727e-07 -4.82298e-09)
(-1.3624e-10 -3.31165e-10 9.44828e-08)
(1.97182e-07 1.85347e-08 -2.96292e-09)
(3.34651e-08 1.82725e-07 -4.81388e-09)
(-1.66558e-10 -3.25033e-10 9.24148e-08)
(1.93508e-07 2.22432e-08 -3.4721e-09)
(3.35024e-08 1.82704e-07 -4.79299e-09)
(-1.98446e-10 -3.1981e-10 9.0325e-08)
(1.89833e-07 2.59652e-08 -3.93737e-09)
(3.35209e-08 1.82663e-07 -4.76494e-09)
(-2.30388e-10 -3.13522e-10 8.82151e-08)
(1.86157e-07 2.97081e-08 -4.35173e-09)
(3.35186e-08 1.82592e-07 -4.73435e-09)
(-2.58575e-10 -3.02812e-10 8.60804e-08)
(1.82482e-07 3.34766e-08 -4.70858e-09)
(3.34752e-08 1.82481e-07 -4.70864e-09)
(-2.85075e-10 -2.84784e-10 8.39209e-08)
(3.35202e-08 1.82387e-07 -4.68363e-09)
(-2.84783e-10 -2.51837e-10 8.17838e-08)
(1.78861e-07 3.73039e-08 -5.0156e-09)
(2.11932e-07 3.72456e-09 -6.18083e-10)
(-7.82282e-11 -4.05788e-10 9.8452e-08)
(3.68754e-08 1.79034e-07 -5.07406e-09)
(2.0824e-07 7.46027e-09 -1.22901e-09)
(-8.97798e-11 -3.92831e-10 9.6436e-08)
(3.69742e-08 1.79065e-07 -5.12685e-09)
(2.04558e-07 1.11983e-08 -1.82873e-09)
(-1.10198e-10 -3.78881e-10 9.44145e-08)
(3.70595e-08 1.79099e-07 -5.15587e-09)
(2.00884e-07 1.49347e-08 -2.40704e-09)
(-1.36402e-10 -3.65717e-10 9.23724e-08)
(3.71317e-08 1.79114e-07 -5.16526e-09)
(1.97212e-07 1.86664e-08 -2.95493e-09)
(-1.6548e-10 -3.53729e-10 9.03095e-08)
(3.71924e-08 1.79111e-07 -5.1582e-09)
(1.93537e-07 2.23911e-08 -3.46479e-09)
(-1.95057e-10 -3.42415e-10 8.82249e-08)
(3.7242e-08 1.79091e-07 -5.13748e-09)
(1.89848e-07 2.61071e-08 -3.9293e-09)
(-2.22242e-10 -3.30208e-10 8.61149e-08)
(3.72804e-08 1.79052e-07 -5.10546e-09)
(1.86138e-07 2.98134e-08 -4.33925e-09)
(-2.42621e-10 -3.13916e-10 8.39714e-08)
(3.73038e-08 1.78981e-07 -5.06403e-09)
(1.82384e-07 3.35187e-08 -4.68326e-09)
(-2.51839e-10 -2.84382e-10 8.17815e-08)
(3.73023e-08 1.78858e-07 -5.01496e-09)
(-2.38792e-10 -2.38258e-10 7.95902e-08)
(1.78698e-07 3.72739e-08 -4.96222e-09)
(3.72727e-08 1.78698e-07 -4.96207e-09)
(2.12808e-07 3.70663e-09 -6.12399e-10)
(3.70412e-09 2.128e-07 -6.13644e-10)
(-2.19921e-11 -2.18856e-11 1.18686e-07)
(2.09041e-07 7.38582e-09 -1.18599e-09)
(3.77418e-09 2.12724e-07 -6.0945e-10)
(-6.35554e-11 -2.29279e-11 1.16539e-07)
(2.05261e-07 1.10459e-08 -1.71298e-09)
(3.79012e-09 2.12599e-07 -5.96794e-10)
(-1.03021e-10 -2.50259e-11 1.14337e-07)
(2.01488e-07 1.47059e-08 -2.19861e-09)
(3.7854e-09 2.12482e-07 -5.82837e-10)
(-1.4188e-10 -2.84268e-11 1.12144e-07)
(1.97725e-07 1.8368e-08 -2.64956e-09)
(3.77823e-09 2.1239e-07 -5.69991e-10)
(-1.81583e-10 -3.33318e-11 1.09974e-07)
(1.93972e-07 2.20328e-08 -3.07128e-09)
(3.76837e-09 2.12314e-07 -5.58887e-10)
(-2.2292e-10 -3.98622e-11 1.07822e-07)
(1.90232e-07 2.57005e-08 -3.46838e-09)
(3.7537e-09 2.12245e-07 -5.50379e-10)
(-2.66173e-10 -4.8161e-11 1.05686e-07)
(1.86508e-07 2.93704e-08 -3.84443e-09)
(3.73338e-09 2.12167e-07 -5.45637e-10)
(-3.10411e-10 -5.81679e-11 1.03564e-07)
(1.82804e-07 3.30449e-08 -4.20165e-09)
(3.70597e-09 2.12063e-07 -5.46069e-10)
(-3.53291e-10 -6.90505e-11 1.01453e-07)
(3.72546e-09 2.11921e-07 -5.49382e-10)
(-3.93988e-10 -7.64249e-11 9.93406e-08)
(1.79066e-07 3.67481e-08 -4.54222e-09)
(2.1272e-07 3.77154e-09 -6.08186e-10)
(7.38101e-09 2.09035e-07 -1.18605e-09)
(-2.29919e-11 -6.34094e-11 1.16531e-07)
(2.09011e-07 7.49451e-09 -1.1848e-09)
(7.48944e-09 2.09008e-07 -1.18573e-09)
(-6.36911e-11 -6.35164e-11 1.14436e-07)
(2.05268e-07 1.11698e-08 -1.72041e-09)
(7.54343e-09 2.0893e-07 -1.17017e-09)
(-1.02715e-10 -6.40933e-11 1.12284e-07)
(2.01513e-07 1.48303e-08 -2.21532e-09)
(7.55257e-09 2.08828e-07 -1.14836e-09)
(-1.41202e-10 -6.55116e-11 1.10114e-07)
(1.97764e-07 1.84946e-08 -2.67456e-09)
(7.54152e-09 2.08732e-07 -1.12657e-09)
(-1.80498e-10 -6.79709e-11 1.07954e-07)
(1.94023e-07 2.21629e-08 -3.10366e-09)
(7.52426e-09 2.08651e-07 -1.10765e-09)
(-2.21345e-10 -7.16717e-11 1.05809e-07)
(1.90294e-07 2.58363e-08 -3.50732e-09)
(7.49652e-09 2.08575e-07 -1.09343e-09)
(-2.63932e-10 -7.66428e-11 1.0368e-07)
(1.86577e-07 2.95188e-08 -3.88893e-09)
(7.45892e-09 2.08488e-07 -1.08613e-09)
(-3.06944e-10 -8.2272e-11 1.01562e-07)
(1.82872e-07 3.32114e-08 -4.25033e-09)
(7.41253e-09 2.08372e-07 -1.08792e-09)
(-3.47645e-10 -8.72064e-11 9.94497e-08)
(7.46903e-09 2.08225e-07 -1.09294e-09)
(-3.81384e-10 -8.82128e-11 9.73175e-08)
(1.79117e-07 3.69061e-08 -4.58952e-09)
(2.12588e-07 3.78304e-09 -5.96391e-10)
(1.10438e-08 2.05262e-07 -1.71139e-09)
(-2.50104e-11 -1.03012e-10 1.1433e-07)
(2.08922e-07 7.53869e-09 -1.16912e-09)
(1.1162e-08 2.05262e-07 -1.71959e-09)
(-6.41864e-11 -1.02589e-10 1.12276e-07)
(2.05229e-07 1.12514e-08 -1.70937e-09)
(1.12456e-08 2.05226e-07 -1.70972e-09)
(-1.02284e-10 -1.02097e-10 1.10182e-07)
(2.01507e-07 1.49288e-08 -2.21293e-09)
(1.1287e-08 2.05159e-07 -1.68844e-09)
(-1.39977e-10 -1.01981e-10 1.08053e-07)
(1.97776e-07 1.85971e-08 -2.68076e-09)
(1.12861e-08 2.05071e-07 -1.66324e-09)
(-1.78428e-10 -1.02481e-10 1.0591e-07)
(1.94051e-07 2.22712e-08 -3.1174e-09)
(1.12628e-08 2.04984e-07 -1.64043e-09)
(-2.18412e-10 -1.03802e-10 1.03775e-07)
(1.90334e-07 2.59524e-08 -3.52743e-09)
(1.1226e-08 2.049e-07 -1.62384e-09)
(-2.59846e-10 -1.06001e-10 1.01653e-07)
(1.86625e-07 2.96438e-08 -3.91363e-09)
(1.11763e-08 2.048e-07 -1.61632e-09)
(-3.0091e-10 -1.08477e-10 9.95365e-08)
(1.82924e-07 3.33447e-08 -4.27774e-09)
(1.11141e-08 2.04672e-07 -1.62076e-09)
(-3.38955e-10 -1.10236e-10 9.74234e-08)
(1.12157e-08 2.04532e-07 -1.62778e-09)
(-3.67225e-10 -1.08104e-10 9.52876e-08)
(1.79166e-07 3.7035e-08 -4.61721e-09)
(2.12478e-07 3.7836e-09 -5.8331e-10)
(1.4706e-08 2.01491e-07 -2.19639e-09)
(-2.83775e-11 -1.41994e-10 1.12143e-07)
(2.08818e-07 7.54509e-09 -1.14838e-09)
(1.48271e-08 2.01513e-07 -2.21331e-09)
(-6.54929e-11 -1.41267e-10 1.10109e-07)
(2.05153e-07 1.12821e-08 -1.6879e-09)
(1.49203e-08 2.01501e-07 -2.21176e-09)
(-1.02074e-10 -1.39909e-10 1.08046e-07)
(2.01466e-07 1.49899e-08 -2.19671e-09)
(1.49844e-08 2.01463e-07 -2.19669e-09)
(-1.38596e-10 -1.38452e-10 1.05956e-07)
(1.97755e-07 1.86726e-08 -2.67235e-09)
(1.50095e-08 2.01399e-07 -2.17389e-09)
(-1.75846e-10 -1.37267e-10 1.0384e-07)
(1.94038e-07 2.23514e-08 -3.11623e-09)
(1.49924e-08 2.01314e-07 -2.15054e-09)
(-2.14577e-10 -1.36548e-10 1.01714e-07)
(1.90329e-07 2.60401e-08 -3.53204e-09)
(1.4946e-08 2.01218e-07 -2.13356e-09)
(-2.54621e-10 -1.36449e-10 9.95931e-08)
(1.86627e-07 2.97392e-08 -3.92226e-09)
(1.4885e-08 2.01105e-07 -2.12765e-09)
(-2.93871e-10 -1.36769e-10 9.74772e-08)
(1.82929e-07 3.34462e-08 -4.28875e-09)
(1.4811e-08 2.00965e-07 -2.13598e-09)
(-3.29835e-10 -1.36948e-10 9.53633e-08)
(1.4958e-08 2.00836e-07 -2.14576e-09)
(-3.5289e-10 -1.32853e-10 9.32304e-08)
(1.79173e-07 3.7138e-08 -4.62975e-09)
(2.1239e-07 3.77851e-09 -5.70637e-10)
(1.83678e-08 1.97727e-07 -2.64719e-09)
(-3.33008e-11 -1.81738e-10 1.09975e-07)
(2.08729e-07 7.53937e-09 -1.12754e-09)
(1.84937e-08 1.97767e-07 -2.67228e-09)
(-6.79056e-11 -1.80648e-10 1.07953e-07)
(2.05063e-07 1.12791e-08 -1.6637e-09)
(1.85937e-08 1.97775e-07 -2.67873e-09)
(-1.02418e-10 -1.78486e-10 1.05905e-07)
(2.01394e-07 1.50052e-08 -2.17366e-09)
(1.86642e-08 1.97749e-07 -2.67108e-09)
(-1.37321e-10 -1.75754e-10 1.03834e-07)
(1.97707e-07 1.87136e-08 -2.65442e-09)
(1.87069e-08 1.97701e-07 -2.6543e-09)
(-1.73117e-10 -1.72965e-10 1.01743e-07)
(1.93999e-07 2.24029e-08 -3.10491e-09)
(1.87111e-08 1.97634e-07 -2.63418e-09)
(-2.1045e-10 -1.70555e-10 9.9634e-08)
(1.90286e-07 2.60929e-08 -3.52602e-09)
(1.86681e-08 1.97534e-07 -2.61813e-09)
(-2.48918e-10 -1.68601e-10 9.75126e-08)
(1.86584e-07 2.97988e-08 -3.91958e-09)
(1.8591e-08 1.97402e-07 -2.61382e-09)
(-2.86684e-10 -1.67055e-10 9.539e-08)
(1.82887e-07 3.35164e-08 -4.28787e-09)
(1.85037e-08 1.97247e-07 -2.62647e-09)