/*--------------------------------*- C++ -*----------------------------------*\
| =========                 |                                                 |
| \\      /  F ield         | foam-extend: Open Source CFD                    |
|  \\    /   O peration     | Version:     3.1                                |
|   \\  /    A nd           | Web:         http://www.extend-project.de       |
|    \\/     M anipulation  |                                                 |
\*---------------------------------------------------------------------------*/
FoamFile
{
    version     2.0;
    format      ascii;
    class       volVectorField;
    location    "0.0012";
    object      U;
}
// * * * * * * * * * * * * * * * * * * * * * * * * * * * * * * * * * * * * * //

dimensions      [0 1 -1 0 0 0 0];

internalField   nonuniform List<vector> 
16000
(
(0.000243261 0.00024344 0.236922)
(0.000728552 0.000242027 0.237386)
(0.00120921 0.000240924 0.238319)
(0.00168552 0.000241609 0.239725)
(0.00215995 0.000244276 0.241611)
(0.00263465 0.000248931 0.243986)
(0.00311161 0.000255615 0.246864)
(0.00359332 0.000264291 0.250261)
(0.00408468 0.000274495 0.254201)
(0.00459062 0.000269624 0.258715)
(0.000241854 0.000728825 0.237386)
(0.000724566 0.000724897 0.237818)
(0.00120282 0.000721417 0.238704)
(0.00167725 0.000722381 0.240047)
(0.00214985 0.00072854 0.241854)
(0.00262255 0.000740241 0.244134)
(0.00309725 0.000757715 0.246899)
(0.00357592 0.000780924 0.250164)
(0.00406437 0.000808818 0.253951)
(0.00455697 0.00079326 0.258291)
(0.000240845 0.0012092 0.238319)
(0.000721177 0.00120298 0.238704)
(0.00119631 0.00119659 0.239528)
(0.00166802 0.00119571 0.240795)
(0.00213791 0.00120149 0.24251)
(0.00260738 0.00121494 0.244682)
(0.00307782 0.00123667 0.247322)
(0.00355032 0.00126662 0.250443)
(0.00403165 0.00130313 0.254066)
(0.00450268 0.0012641 0.258219)
(0.000241632 0.00168522 0.239725)
(0.000722354 0.00167712 0.240047)
(0.00119552 0.00166813 0.240795)
(0.00166517 0.00166542 0.241973)
(0.00213315 0.0016701 0.243585)
(0.00260041 0.00168371 0.245639)
(0.00306753 0.00170755 0.248145)
(0.00353437 0.00174179 0.251115)
(0.00400872 0.00178408 0.254567)
(0.00445489 0.00171673 0.258532)
(0.000244325 0.00215958 0.241611)
(0.000728647 0.00214954 0.241854)
(0.00120152 0.00213777 0.24251)
(0.00166995 0.00213326 0.243585)
(0.00213663 0.00213689 0.245082)
(0.00260255 0.00215038 0.247007)
(0.00306751 0.00217575 0.249369)
(0.00352977 0.00221388 0.25218)
(0.00399796 0.00226203 0.255456)
(0.00441695 0.00216557 0.259229)
(0.000248973 0.00263428 0.243986)
(0.000740371 0.00262221 0.244134)
(0.00121511 0.00260711 0.244682)
(0.00168378 0.00260033 0.245639)
(0.00215022 0.00260275 0.247007)
(0.00261593 0.0026163 0.248791)
(0.00308037 0.00264367 0.251)
(0.00354011 0.00268692 0.253643)
(0.00400393 0.00274367 0.256735)
(0.00439355 0.00262125 0.260314)
(0.000255651 0.00311127 0.246864)
(0.000757831 0.00309694 0.246899)
(0.00123687 0.00307754 0.247322)
(0.0017078 0.00306732 0.248145)
(0.00217589 0.00306748 0.249369)
(0.00264342 0.00308064 0.251)
(0.00311022 0.00311069 0.253043)
(0.00357137 0.0031616 0.25551)
(0.00403487 0.0032329 0.258411)
(0.00439365 0.003094 0.261793)
(0.000264321 0.00359305 0.250261)
(0.000781024 0.00357566 0.250164)
(0.0012668 0.00355007 0.250443)
(0.00174205 0.00353411 0.251115)
(0.00221418 0.00352952 0.25218)
(0.00268693 0.00353996 0.253643)
(0.00316119 0.00357148 0.25551)
(0.00363162 0.00363197 0.257789)
(0.00410488 0.00372713 0.260494)
(0.00443631 0.00359352 0.263678)
(0.00027452 0.0040845 0.254201)
(0.000808899 0.0040642 0.253951)
(0.00130326 0.00403146 0.254066)
(0.00178425 0.0040085 0.254567)
(0.00226225 0.00399766 0.255456)
(0.00274376 0.00400352 0.256735)
(0.00323269 0.00403455 0.258411)
(0.00372682 0.00410486 0.260494)
(0.00423431 0.00423449 0.262995)
(0.00456454 0.00414071 0.265985)
(0.000269646 0.00459053 0.258715)
(0.000793327 0.00455689 0.258291)
(0.00126421 0.00450258 0.258219)
(0.00171686 0.00445476 0.258532)
(0.00216572 0.00441675 0.259229)
(0.00262136 0.00439325 0.260314)
(0.00309401 0.00439332 0.261793)
(0.00359344 0.00443612 0.263678)
(0.00414052 0.00456451 0.265985)
(0.00467733 0.00467744 0.268788)
(0.000527964 0.000527986 0.234544)
(0.00158735 0.000521314 0.235011)
(0.0026484 0.000512402 0.23595)
(0.00371117 0.00050365 0.237365)
(0.00477866 0.000495121 0.239263)
(0.00585265 0.000486815 0.241653)
(0.00693566 0.000478813 0.244546)
(0.00803225 0.00047135 0.247955)
(0.00915031 0.000465283 0.251893)
(0.0103023 0.000465669 0.256373)
(0.000521293 0.00158738 0.235011)
(0.00156781 0.00156786 0.235449)
(0.00261603 0.00154178 0.236344)
(0.00366594 0.00151635 0.2377)
(0.0047204 0.00149179 0.239524)
(0.00578117 0.00146812 0.241825)
(0.00685078 0.00144553 0.244613)
(0.00793354 0.00142461 0.247901)
(0.00903682 0.00140764 0.251702)
(0.010172 0.00140781 0.256026)
(0.000512397 0.0026484 0.23595)
(0.00154175 0.00261605 0.236343)
(0.00257272 0.00257276 0.237178)
(0.00360534 0.00253047 0.23846)
(0.00464219 0.0024896 0.240195)
(0.005685 0.00245023 0.24239)
(0.00673632 0.00241267 0.245057)
(0.00780033 0.0023778 0.248207)
(0.00888397 0.00234917 0.251853)
(0.00999776 0.00234811 0.256002)
(0.000503656 0.00371114 0.237365)
(0.00151635 0.00366592 0.2377)
(0.00253045 0.00360536 0.23846)
(0.00354612 0.00354616 0.239653)
(0.00456572 0.00348893 0.241285)
(0.00559092 0.00343386 0.243363)
(0.00662434 0.00338143 0.245897)
(0.00767014 0.00333279 0.248897)
(0.00873486 0.00329263 0.252377)
(0.00982815 0.00328954 0.256344)
(0.000495126 0.00477863 0.239263)
(0.0014918 0.00472037 0.239524)
(0.0024896 0.00464218 0.240194)
(0.00348891 0.00456574 0.241285)
(0.0044918 0.00449185 0.2428)
(0.00550002 0.00442076 0.244748)
(0.00651633 0.00435318 0.247136)
(0.00754493 0.00429061 0.249976)
(0.00859192 0.00423892 0.253279)
(0.00966661 0.00423361 0.257056)
(0.000486819 0.00585262 0.241653)
(0.00146813 0.00578115 0.241825)
(0.00245024 0.00568498 0.24239)
(0.00343386 0.00559091 0.243363)
(0.00442073 0.00550005 0.244748)
(0.00541268 0.00541275 0.246552)
(0.00641277 0.00532983 0.248782)
(0.00742536 0.00525318 0.251448)
(0.00845609 0.00518995 0.254562)
(0.00951442 0.00518267 0.258138)
(0.000478816 0.00693564 0.244546)
(0.00144553 0.00685077 0.244613)
(0.00241268 0.0067363 0.245057)
(0.00338145 0.00662432 0.245897)
(0.00435319 0.00651633 0.247136)
(0.00532979 0.00641282 0.248782)
(0.00631463 0.00631471 0.250839)
(0.0073124 0.00622397 0.253317)
(0.00832854 0.00614893 0.256229)
(0.00937312 0.00613963 0.259592)
(0.000471353 0.00803224 0.247955)
(0.00142462 0.00793353 0.247901)
(0.00237781 0.00780032 0.248207)
(0.0033328 0.00767013 0.248897)
(0.00429064 0.00754491 0.249976)
(0.00525317 0.00742535 0.251448)
(0.00622389 0.00731242 0.253317)
(0.00720771 0.00720778 0.255592)
(0.00821042 0.00711974 0.258282)
(0.0092444 0.0071061 0.261416)
(0.000465286 0.00915032 0.251893)
(0.00140764 0.00903683 0.251702)
(0.00234917 0.00888398 0.251853)
(0.00329264 0.00873485 0.252377)
(0.00423893 0.0085919 0.253279)
(0.00518994 0.00845604 0.254562)
(0.00614887 0.0083285 0.256229)
(0.00711967 0.00821044 0.258282)
(0.00810859 0.00810864 0.26073)
(0.00913611 0.00808283 0.263606)
(0.000465671 0.0103023 0.256373)
(0.00140782 0.010172 0.256026)
(0.00234812 0.00999778 0.256002)
(0.00328955 0.00982817 0.256344)
(0.00423361 0.00966661 0.257056)
(0.00518266 0.0095144 0.258138)
(0.0061396 0.00937309 0.259592)
(0.00710607 0.00924439 0.261416)
(0.00808278 0.00913613 0.263606)
(0.00909834 0.00909838 0.266194)
(0.00094887 0.000948916 0.229049)
(0.00285408 0.000937561 0.229511)
(0.00476695 0.00092261 0.23044)
(0.00669066 0.000908332 0.231842)
(0.00863258 0.000894741 0.233724)
(0.0105966 0.000881682 0.236097)
(0.012585 0.000869034 0.238973)
(0.0145989 0.000856762 0.242363)
(0.0166351 0.000845724 0.246277)
(0.0186816 0.000844667 0.250718)
(0.000937515 0.00285414 0.229511)
(0.00282062 0.00282071 0.229943)
(0.00471099 0.0027766 0.230828)
(0.00661169 0.00273461 0.232171)
(0.00852973 0.00269486 0.233979)
(0.0104689 0.00265699 0.236261)
(0.012432 0.00262064 0.23903)
(0.0144201 0.00258577 0.242296)
(0.0164301 0.00255481 0.246069)
(0.0184514 0.00255205 0.25035)
(0.000922598 0.00476693 0.23044)
(0.00277655 0.00471102 0.230828)
(0.00463687 0.00463695 0.231654)
(0.00650686 0.00456588 0.232924)
(0.00839292 0.00449817 0.234643)
(0.0102987 0.00443332 0.236822)
(0.0122269 0.00437086 0.23947)
(0.0141792 0.00431067 0.242597)
(0.0161518 0.00425695 0.246213)
(0.0181353 0.00425118 0.250318)
(0.000908346 0.00669058 0.231842)
(0.00273461 0.00661164 0.232171)
(0.00456584 0.00650689 0.232924)
(0.00640586 0.00640594 0.234106)
(0.00826054 0.0063092 0.235725)
(0.0101332 0.00621613 0.237788)
(0.0120268 0.00612618 0.240305)
(0.013943 0.00603925 0.243284)
(0.0158773 0.00596114 0.246733)
(0.0178203 0.00594942 0.250654)
(0.000894753 0.00863251 0.233724)
(0.0026949 0.00852965 0.233979)
(0.00449819 0.00839288 0.234643)
(0.00630917 0.00826057 0.235725)
(0.0081331 0.00813318 0.237231)
(0.00997326 0.00800991 0.239166)
(0.0118326 0.00789014 0.241539)
(0.0137131 0.00777389 0.244358)
(0.015609 0.00766872 0.24763)
(0.0175106 0.00764792 0.251358)
(0.00088169 0.0105965 0.236097)
(0.00265701 0.0104689 0.236261)
(0.00443336 0.0102986 0.236822)
(0.00621616 0.0101332 0.237788)
(0.00800987 0.00997331 0.239166)
(0.00981765 0.00981776 0.24096)
(0.0116427 0.00966553 0.243177)
(0.0134876 0.00951666 0.245824)
(0.015345 0.00938065 0.248906)
(0.0172055 0.00934685 0.252431)
(0.000869042 0.012585 0.238973)
(0.00262067 0.0124319 0.23903)
(0.00437089 0.0122269 0.23947)
(0.00612624 0.0120268 0.240305)
(0.00789019 0.0118326 0.241539)
(0.00966547 0.0116428 0.243177)
(0.0114556 0.0114557 0.245223)
(0.0132639 0.0112706 0.247684)
(0.0150825 0.0110982 0.250563)
(0.0169024 0.011045 0.253873)
(0.00085677 0.0145989 0.242363)
(0.00258579 0.01442 0.242296)
(0.0043107 0.0141791 0.242597)
(0.0060393 0.013943 0.243284)
(0.00777397 0.0137131 0.244358)
(0.00951668 0.0134876 0.245824)
(0.0112704 0.0132639 0.247684)
(0.0130392 0.0130394 0.249942)
(0.0148158 0.0128229 0.252602)
(0.0165958 0.0127368 0.255682)
(0.00084573 0.0166351 0.246277)
(0.00255483 0.01643 0.246069)
(0.00425697 0.0161517 0.246213)
(0.00596117 0.0158773 0.246733)
(0.00766877 0.0156089 0.24763)
(0.00938068 0.0153449 0.248906)
(0.0110982 0.0150824 0.250563)
(0.0128228 0.0148158 0.252602)
(0.0145475 0.0145476 0.255023)
(0.0162868 0.014405 0.257854)
(0.000844673 0.0186816 0.250718)
(0.00255207 0.0184514 0.25035)
(0.0042512 0.0181353 0.250318)
(0.00594944 0.0178203 0.250654)
(0.00764793 0.0175106 0.251358)
(0.00934685 0.0172055 0.252431)
(0.011045 0.0169023 0.253873)
(0.0127367 0.0165958 0.255682)
(0.014405 0.0162869 0.257854)
(0.0160719 0.016072 0.260417)
(0.00136935 0.00136944 0.220498)
(0.00411977 0.0013537 0.22094)
(0.00688595 0.00133338 0.22183)
(0.00967641 0.00131467 0.223175)
(0.0125048 0.00129754 0.224987)
(0.015379 0.00128167 0.227281)
(0.0183035 0.00126674 0.230076)
(0.0212776 0.00125245 0.233392)
(0.0242908 0.00123961 0.237252)
(0.0273136 0.00124003 0.241675)
(0.00135362 0.00411987 0.22094)
(0.00407335 0.00407351 0.221354)
(0.006808 0.00401345 0.222202)
(0.00956576 0.00395823 0.223491)
(0.0123595 0.00390787 0.225232)
(0.0151969 0.00386157 0.227439)
(0.0180828 0.00381844 0.230129)
(0.0210172 0.00377771 0.233322)
(0.0239899 0.00374182 0.237039)
(0.026974 0.00374375 0.241298)
(0.00133336 0.0068859 0.22183)
(0.00401335 0.00680806 0.222202)
(0.00670657 0.00670671 0.222995)
(0.00942138 0.00661238 0.224215)
(0.0121695 0.00652528 0.225873)
(0.0149582 0.00644439 0.227982)
(0.0177922 0.00636837 0.230558)
(0.020672 0.00629601 0.233618)
(0.0235869 0.00623185 0.237182)
(0.0265121 0.00623293 0.241265)
(0.0013147 0.00967625 0.223175)
(0.00395825 0.00956566 0.223491)
(0.00661231 0.00942141 0.224215)
(0.00928602 0.00928613 0.225355)
(0.0119901 0.00915997 0.22692)
(0.0147312 0.00904167 0.228922)
(0.0175139 0.00892967 0.231375)
(0.0203389 0.0088225 0.234295)
(0.0231942 0.00872668 0.237699)
(0.0260552 0.00872188 0.241603)
(0.00129757 0.0125046 0.224987)
(0.00390794 0.0123593 0.225232)
(0.00652534 0.0121694 0.225873)
(0.00915992 0.0119901 0.22692)
(0.0118214 0.0118215 0.22838)
(0.014516 0.0116617 0.230264)
(0.0172482 0.011509 0.232585)
(0.0200189 0.0113619 0.235356)
(0.022814 0.0112292 0.238593)
(0.0256089 0.0112127 0.242312)
(0.00128169 0.0153789 0.227281)
(0.00386163 0.0151968 0.227438)
(0.00644449 0.014958 0.227982)
(0.00904175 0.0147311 0.228922)
(0.0116617 0.014516 0.230264)
(0.0143103 0.0143104 0.232018)
(0.016992 0.0141116 0.234195)
(0.0197084 0.013918 0.236808)
(0.0224432 0.0137412 0.239869)
(0.0251711 0.0137056 0.243396)
(0.00126676 0.0183033 0.230076)
(0.0038185 0.0180827 0.230129)
(0.00636846 0.017792 0.230558)
(0.00892982 0.0175137 0.231374)
(0.0115092 0.0172481 0.232584)
(0.0141115 0.0169922 0.234195)
(0.0167417 0.016742 0.236216)
(0.0194023 0.0164946 0.238658)
(0.0220757 0.0162636 0.241532)
(0.0247371 0.0161975 0.244858)
(0.00125246 0.0212775 0.233392)
(0.00377777 0.0210171 0.233322)
(0.0062961 0.0206719 0.233618)
(0.00882263 0.0203388 0.234294)
(0.0113621 0.0200187 0.235356)
(0.0139181 0.0197083 0.236808)
(0.0164945 0.0194023 0.238658)
(0.0190944 0.0190946 0.240915)
(0.0217017 0.0187959 0.243589)
(0.0242971 0.0186772 0.246703)
(0.00123962 0.0242908 0.237252)
(0.00374187 0.0239898 0.237039)
(0.00623192 0.0235868 0.237182)
(0.00872677 0.0231941 0.237699)
(0.0112293 0.0228139 0.238593)
(0.0137413 0.022443 0.239869)
(0.0162636 0.0220755 0.241532)
(0.0187958 0.0217017 0.243589)
(0.021322 0.0213221 0.246045)
(0.0238493 0.0211142 0.248931)
(0.00124004 0.0273136 0.241675)
(0.00374379 0.026974 0.241298)
(0.00623298 0.026512 0.241265)
(0.00872195 0.0260551 0.241602)
(0.0112128 0.0256088 0.242312)
(0.0137057 0.025171 0.243396)
(0.0161975 0.024737 0.244858)
(0.0186772 0.0242971 0.246703)
(0.0211142 0.0238493 0.248931)
(0.0235247 0.0235248 0.251574)
(0.00176232 0.00176245 0.209004)
(0.00530366 0.00174299 0.209405)
(0.00887239 0.00171844 0.210214)
(0.0124852 0.00169687 0.211442)
(0.0161653 0.00167823 0.213104)
(0.0199288 0.00166212 0.215222)
(0.0237883 0.00164817 0.217824)
(0.0277497 0.001636 0.220947)
(0.0318066 0.00162663 0.224632)
(0.0359282 0.00163684 0.228927)
(0.00174286 0.00530381 0.209405)
(0.0052462 0.00524644 0.209781)
(0.00877552 0.00517387 0.210553)
(0.0123468 0.00511009 0.211731)
(0.0159818 0.00505514 0.213328)
(0.0196963 0.00500803 0.215366)
(0.0235026 0.00496762 0.217872)
(0.0274073 0.00493287 0.220877)
(0.0314038 0.00490666 0.224422)
(0.0354649 0.00493486 0.22855)
(0.00171841 0.00887229 0.210214)
(0.00517373 0.00877559 0.210553)
(0.00865241 0.0086526 0.211277)
(0.0121705 0.00854272 0.212394)
(0.0157478 0.00844626 0.213919)
(0.0193993 0.00836194 0.215871)
(0.0231367 0.00828804 0.218274)
(0.0269668 0.0082229 0.221158)
(0.0308814 0.00817181 0.224559)
(0.0348566 0.00821317 0.228518)
(0.00169692 0.012485 0.211442)
(0.00511013 0.0123466 0.21173)
(0.00854265 0.0121705 0.212394)
(0.0120114 0.0120115 0.213442)
(0.0155347 0.0118698 0.214887)
(0.0191261 0.0117438 0.216745)
(0.0227969 0.0116315 0.219041)
(0.0265536 0.0115309 0.2218)
(0.0303856 0.0114495 0.225057)
(0.0342702 0.0114965 0.228848)
(0.00167827 0.016165 0.213104)
(0.00505526 0.0159815 0.213328)
(0.00844637 0.0157476 0.213919)
(0.0118698 0.0155347 0.214887)
(0.0153422 0.0153423 0.216241)
(0.0188765 0.0151683 0.218)
(0.0224833 0.0150105 0.220181)
(0.0261686 0.0148665 0.222812)
(0.0299187 0.014747 0.225921)
(0.0337121 0.0147911 0.229544)
(0.00166215 0.0199285 0.215222)
(0.00500814 0.019696 0.215366)
(0.00836212 0.019399 0.215871)
(0.0117439 0.0191259 0.216745)
(0.0151683 0.0188765 0.217999)
(0.0186475 0.0186477 0.219648)
(0.0221917 0.0184359 0.221708)
(0.0258071 0.0182391 0.224203)
(0.0294763 0.0180709 0.22716)
(0.0331799 0.0181015 0.230612)
(0.00164821 0.023788 0.217824)
(0.00496772 0.0235023 0.217872)
(0.00828821 0.0231364 0.218273)
(0.0116318 0.0227967 0.21904)
(0.0150107 0.0224831 0.220181)
(0.0184359 0.0221918 0.221708)
(0.0219175 0.0219178 0.223636)
(0.0254626 0.0216572 0.225988)
(0.0290513 0.021426 0.228786)
(0.0326677 0.0214273 0.232062)
(0.00163604 0.0277494 0.220947)
(0.00493296 0.0274071 0.220877)
(0.00822306 0.0269665 0.221157)
(0.0115311 0.0265533 0.2218)
(0.0148669 0.0261683 0.222812)
(0.0182393 0.0258069 0.224203)
(0.0216571 0.0254627 0.225988)
(0.0251275 0.0251277 0.228184)
(0.0286312 0.0248147 0.230813)
(0.0321634 0.0247578 0.233906)
(0.00162666 0.0318063 0.224632)
(0.00490674 0.0314036 0.224422)
(0.00817194 0.0308812 0.224559)
(0.0114496 0.0303854 0.225057)
(0.0147472 0.0299183 0.225921)
(0.0180711 0.0294759 0.22716)
(0.0214261 0.029051 0.228786)
(0.0248146 0.0286312 0.230813)
(0.028217 0.0282171 0.23326)
(0.0316653 0.0280554 0.236158)
(0.00163687 0.0359281 0.228927)
(0.00493493 0.0354647 0.228549)
(0.00821328 0.0348564 0.228517)
(0.0114966 0.03427 0.228848)
(0.0147913 0.0337118 0.229543)
(0.0181016 0.0331796 0.230612)
(0.0214274 0.0326674 0.232062)
(0.0247579 0.0321633 0.233906)
(0.0280554 0.0316653 0.236158)
(0.0313549 0.0313549 0.238851)
(0.00210524 0.00210539 0.194871)
(0.00633799 0.00208311 0.195206)
(0.0106131 0.0020558 0.195883)
(0.0149584 0.00203319 0.196914)
(0.0194096 0.0020153 0.198319)
(0.023997 0.00200183 0.200125)
(0.028748 0.00199253 0.202366)
(0.0336862 0.00198725 0.205091)
(0.0388237 0.00198749 0.20836)
(0.0441495 0.00201744 0.21225)
(0.00208296 0.00633816 0.195206)
(0.00627211 0.0062724 0.19552)
(0.0105015 0.00619163 0.196167)
(0.0147977 0.00612472 0.197157)
(0.0191944 0.00607193 0.198509)
(0.0237205 0.00603242 0.200247)
(0.0284029 0.00600535 0.202405)
(0.0332645 0.0059901 0.205026)
(0.0383159 0.00599052 0.208167)
(0.04355 0.00607066 0.211897)
(0.00205577 0.010613 0.195883)
(0.00619147 0.0105016 0.196167)
(0.0103638 0.010364 0.196775)
(0.0145991 0.0102476 0.197718)
(0.0189286 0.0101531 0.199011)
(0.0233792 0.0100793 0.200679)
(0.0279767 0.0100252 0.202752)
(0.0327429 0.00998935 0.205272)
(0.0376854 0.00997853 0.208289)
(0.0428006 0.0100998 0.211866)
(0.00203326 0.014958 0.196914)
(0.00612479 0.0147974 0.197157)
(0.0102476 0.0145991 0.197718)
(0.0144289 0.014429 0.198605)
(0.0186976 0.0142875 0.199836)
(0.023079 0.0141734 0.20143)
(0.0275971 0.0140855 0.203418)
(0.0322727 0.014022 0.205836)
(0.0371088 0.0139922 0.208733)
(0.0421047 0.0141441 0.212165)
(0.00201536 0.0194092 0.198319)
(0.0060721 0.019194 0.198509)
(0.0101532 0.0189283 0.199011)
(0.0142875 0.0186976 0.199836)
(0.0185017 0.0185018 0.200996)
(0.0228197 0.0183391 0.202513)
(0.0272642 0.0182078 0.204412)
(0.0318544 0.0181064 0.206729)
(0.0365879 0.0180472 0.209507)
(0.0414694 0.0182184 0.212798)
(0.00200188 0.0239965 0.200124)
(0.00603258 0.0237201 0.200247)
(0.0100796 0.0233788 0.200679)
(0.0141737 0.0230787 0.20143)
(0.0183391 0.0228197 0.202513)
(0.0225987 0.0225989 0.203945)
(0.0269741 0.0224133 0.205752)
(0.0314837 0.0222617 0.207965)
(0.0361189 0.0221596 0.210624)
(0.0408924 0.0223367 0.213776)
(0.00199258 0.0287475 0.202366)
(0.0060055 0.0284025 0.202404)
(0.0100254 0.0279762 0.202752)
(0.0140858 0.0275967 0.203418)
(0.0182082 0.027264 0.204412)
(0.0224134 0.0269742 0.205752)
(0.0267225 0.0267228 0.20746)
(0.0311541 0.0265067 0.209564)
(0.0356946 0.026344 0.212102)
(0.040368 0.0265079 0.215115)
(0.00198729 0.0336858 0.205091)
(0.00599024 0.033264 0.205026)
(0.00998958 0.0327424 0.205271)
(0.0140223 0.0322722 0.205836)
(0.0181069 0.0318539 0.206729)
(0.022262 0.0314833 0.207965)
(0.0265066 0.0311541 0.209564)
(0.0308586 0.0308588 0.211552)
(0.0353029 0.0306122 0.213962)
(0.0398849 0.0307294 0.216834)
(0.00198753 0.0388233 0.20836)
(0.00599064 0.0383155 0.208167)
(0.00997873 0.037685 0.208288)
(0.0139924 0.0371083 0.208732)
(0.0180475 0.0365874 0.209507)
(0.0221599 0.0361183 0.210624)
(0.0263441 0.0356941 0.212101)
(0.0306121 0.0353028 0.213962)
(0.0349461 0.0349462 0.216236)
(0.0394435 0.0349643 0.218958)
(0.00201748 0.0441493 0.212249)
(0.00607077 0.0435498 0.211896)
(0.0101 0.0428003 0.211866)
(0.0141443 0.0421044 0.212164)
(0.0182186 0.041469 0.212798)
(0.022337 0.0408919 0.213776)
(0.0265081 0.0403676 0.215115)
(0.0307295 0.0398846 0.216834)
(0.0349643 0.0394435 0.218958)
(0.0392964 0.0392964 0.221526)
(0.00237247 0.00237264 0.178556)
(0.00714508 0.00234848 0.178797)
(0.0119759 0.00231975 0.179286)
(0.0169048 0.00229749 0.180034)
(0.0219818 0.00228188 0.18106)
(0.0272539 0.00227285 0.182388)
(0.0327694 0.0022705 0.184056)
(0.0385779 0.0022752 0.186111)
(0.0447235 0.00228926 0.188621)
(0.0512353 0.00234615 0.191673)
(0.00234831 0.00714526 0.178797)
(0.00707355 0.00707386 0.179024)
(0.0118541 0.00698884 0.179492)
(0.0167281 0.00692295 0.180211)
(0.0217427 0.00687686 0.181198)
(0.0269428 0.00685029 0.182477)
(0.0323748 0.00684322 0.184082)
(0.038086 0.00685616 0.186058)
(0.0441171 0.0068946 0.188466)
(0.0505004 0.0070448 0.191385)
(0.00231972 0.0119757 0.179286)
(0.00698867 0.0118541 0.179492)
(0.0117084 0.0117086 0.179933)
(0.0165166 0.0115928 0.180619)
(0.0214571 0.011508 0.181566)
(0.0265721 0.0114541 0.182796)
(0.0319057 0.0114309 0.184341)
(0.0375027 0.011439 0.186243)
(0.043398 0.0114868 0.188557)
(0.0496274 0.0117157 0.191357)
(0.00229757 0.0169043 0.180034)
(0.00692304 0.0167277 0.180211)
(0.0115928 0.0165166 0.180619)
(0.0163454 0.0163455 0.181268)
(0.0212219 0.0162156 0.182172)
(0.026262 0.016127 0.183352)
(0.0315071 0.0160796 0.184838)
(0.0369993 0.0160738 0.186669)
(0.0427664 0.016121 0.188897)
(0.0488499 0.016415 0.191588)
(0.00228195 0.0219812 0.18106)
(0.00687706 0.0217421 0.181198)
(0.0115082 0.0214568 0.181566)
(0.0162156 0.0212218 0.182172)
(0.0210379 0.021038 0.183029)
(0.0260127 0.0209046 0.184158)
(0.0311792 0.0208218 0.185585)
(0.0365766 0.0207902 0.187347)
(0.0422242 0.0208241 0.189493)
(0.0481748 0.0211695 0.192082)
(0.00227291 0.0272533 0.182388)
(0.00685048 0.0269422 0.182477)
(0.0114544 0.0265716 0.182796)
(0.0161273 0.0262616 0.183352)
(0.0209047 0.0260127 0.184157)
(0.0258229 0.0258231 0.185231)
(0.0309193 0.0256919 0.186598)
(0.0362311 0.0256201 0.188292)
(0.0417684 0.0256254 0.190359)
(0.0476006 0.026007 0.192852)
(0.00227056 0.0327688 0.184056)
(0.00684339 0.0323742 0.184082)
(0.0114312 0.0319051 0.184341)
(0.01608 0.0315065 0.184838)
(0.0208222 0.0311788 0.185584)
(0.0256919 0.0309194 0.186598)
(0.0307254 0.0307257 0.187901)
(0.0359587 0.0305971 0.189527)
(0.0413939 0.030554 0.191515)
(0.0471239 0.0309512 0.193916)
(0.00227526 0.0385773 0.186111)
(0.00685633 0.0380854 0.186058)
(0.0114393 0.0375021 0.186242)
(0.0160743 0.0369987 0.186669)
(0.0207908 0.0365759 0.187347)
(0.0256205 0.0362306 0.188292)
(0.0305971 0.0359586 0.189526)
(0.0357552 0.0357553 0.191079)
(0.0410919 0.0356377 0.192988)
(0.0467362 0.0360153 0.195297)
(0.00228931 0.044723 0.188621)
(0.00689474 0.0441166 0.188466)
(0.0114871 0.0433974 0.188557)
(0.0161213 0.0427658 0.188897)
(0.0208245 0.0422235 0.189493)
(0.0256258 0.0417676 0.190359)
(0.0305542 0.0413933 0.191515)
(0.0356377 0.0410917 0.192988)
(0.0408676 0.0408676 0.194813)
(0.0464438 0.0411728 0.197026)
(0.00234619 0.0512349 0.191673)
(0.00704493 0.0505 0.191385)
(0.0117159 0.0496269 0.191357)
(0.0164153 0.0488494 0.191588)
(0.0211699 0.0481742 0.192082)
(0.0260074 0.0476 0.192852)
(0.0309514 0.0471233 0.193916)
(0.0360156 0.0467358 0.195297)
(0.0411729 0.0464436 0.197026)
(0.0465863 0.0465863 0.199143)
(0.00253939 0.00253956 0.160683)
(0.00764965 0.00251432 0.160807)
(0.0128304 0.00248499 0.16106)
(0.018131 0.00246344 0.161448)
(0.0236134 0.00245002 0.161984)
(0.0293395 0.00244498 0.162683)
(0.035378 0.00244887 0.163569)
(0.0418053 0.00246274 0.164677)
(0.0487027 0.00248982 0.166057)
(0.056149 0.00257299 0.167778)
(0.00251415 0.00764983 0.160807)
(0.00757484 0.00757514 0.160925)
(0.0127025 0.00748831 0.161167)
(0.0179445 0.00742452 0.16154)
(0.0233591 0.00738495 0.162055)
(0.0290054 0.00737006 0.162728)
(0.0349489 0.00738092 0.16358)
(0.0412623 0.00741965 0.164644)
(0.0480204 0.00749358 0.165964)
(0.0553049 0.00771109 0.167605)
(0.00248496 0.0128302 0.16106)
(0.00748814 0.0127025 0.161167)
(0.0125531 0.0125533 0.161396)
(0.0177267 0.0124404 0.161753)
(0.0230633 0.0123656 0.162247)
(0.0286186 0.0123301 0.162895)
(0.0344546 0.0123354 0.163716)
(0.0406402 0.0123841 0.16474)
(0.0472415 0.012487 0.16601)
(0.0543435 0.0128187 0.167583)
(0.00246351 0.0181305 0.161448)
(0.00742462 0.0179441 0.16154)
(0.0124403 0.0177267 0.161752)
(0.0175584 0.0175585 0.162091)
(0.02283 0.0174416 0.162564)
(0.0283079 0.0173775 0.163186)
(0.0340505 0.0173682 0.163978)
(0.0401225 0.0174169 0.164966)
(0.0465803 0.017537 0.166191)
(0.0535176 0.0179669 0.167705)
(0.0024501 0.0236128 0.161984)
(0.00738516 0.0233585 0.162055)
(0.0123658 0.0230628 0.162247)
(0.0174417 0.0228299 0.162564)
(0.0226611 0.0226612 0.163014)
(0.0280746 0.0225577 0.163611)
(0.0337374 0.0225219 0.164374)
(0.0397103 0.0225576 0.165329)
(0.0460386 0.0226812 0.166513)
(0.0528334 0.0231943 0.167975)
(0.00244504 0.0293389 0.162683)
(0.00737026 0.0290048 0.162728)
(0.0123304 0.028618 0.162895)
(0.0173778 0.0283075 0.163186)
(0.0225578 0.0280745 0.163611)
(0.0279191 0.0279192 0.164182)
(0.0335147 0.0278433 0.164916)
(0.039402 0.0278511 0.165839)
(0.0456148 0.0279623 0.166986)
(0.0522908 0.0285431 0.1684)
(0.00244893 0.0353773 0.163569)
(0.00738111 0.0349483 0.16358)
(0.0123357 0.034454 0.163716)
(0.0173687 0.0340498 0.163978)
(0.0225224 0.033737 0.164373)
(0.0278433 0.0335147 0.164916)
(0.033383 0.0333833 0.165621)
(0.0391966 0.033346 0.166514)
(0.0453072 0.0334248 0.167625)
(0.0518891 0.0340532 0.168996)
(0.0024628 0.0418046 0.164677)
(0.00741983 0.0412616 0.164644)
(0.0123844 0.0406395 0.16474)
(0.0174173 0.0401218 0.164966)
(0.0225582 0.0397096 0.165329)
(0.0278515 0.0394015 0.165839)
(0.0333459 0.0391965 0.166513)
(0.0390945 0.0390946 0.167375)
(0.0451122 0.0391151 0.168453)
(0.0516256 0.0397584 0.169782)
(0.00248987 0.0487021 0.166057)
(0.00749373 0.0480198 0.165964)
(0.0124873 0.0472408 0.16601)
(0.0175373 0.0465797 0.166191)
(0.0226817 0.0460379 0.166513)
(0.0279628 0.045614 0.166986)
(0.033425 0.0453065 0.167625)
(0.0391151 0.0451119 0.168452)
(0.0450389 0.0450389 0.169496)
(0.0515135 0.0456492 0.170784)
(0.00257303 0.0561485 0.167778)
(0.00771122 0.0553043 0.167605)
(0.0128189 0.0543429 0.167583)
(0.0179671 0.053517 0.167705)
(0.0231947 0.0528328 0.167974)
(0.0285434 0.0522901 0.1684)
(0.0340535 0.0518885 0.168996)
(0.0397586 0.0516252 0.169781)
(0.0456493 0.0515134 0.170784)
(0.0519812 0.0519812 0.172032)
(0.00258904 0.0025892 0.142021)
(0.00779935 0.00256346 0.142017)
(0.013084 0.00253367 0.142009)
(0.0184956 0.00251197 0.141997)
(0.0241003 0.00249882 0.14198)
(0.0299674 0.0024947 0.141959)
(0.036176 0.00250052 0.141933)
(0.0428193 0.00251787 0.141908)
(0.0500034 0.00255058 0.141892)
(0.0578448 0.00264796 0.141904)
(0.0025633 0.00779951 0.142017)
(0.00772297 0.00772325 0.142014)
(0.0129532 0.00763507 0.142006)
(0.0183046 0.00757091 0.141994)
(0.0238395 0.00753224 0.141977)
(0.0296237 0.00752012 0.141954)
(0.0357327 0.00753648 0.141928)
(0.0422545 0.00758474 0.141902)
(0.0492872 0.00767343 0.141882)
(0.0569495 0.00792557 0.141887)
(0.00253364 0.0130838 0.142009)
(0.00763491 0.0129532 0.142006)
(0.0128015 0.0128017 0.141999)
(0.0180833 0.0126881 0.141986)
(0.0235388 0.0126149 0.141969)
(0.0292302 0.0125841 0.141946)
(0.0352288 0.0125983 0.14192)
(0.0416181 0.0126622 0.141893)
(0.0484858 0.0127878 0.141874)
(0.0559538 0.013171 0.141877)
(0.00251203 0.0184951 0.141997)
(0.00757099 0.0183043 0.141994)
(0.012688 0.0180833 0.141986)
(0.0179142 0.0179143 0.141973)
(0.0233046 0.0177999 0.141955)
(0.0289181 0.0177425 0.141932)
(0.0348224 0.0177458 0.141905)
(0.0410962 0.0178154 0.141878)
(0.0478158 0.0179656 0.14186)
(0.055114 0.0184631 0.141862)
(0.00249889 0.0240998 0.14198)
(0.00753242 0.023839 0.141977)
(0.0126151 0.0235385 0.141968)
(0.0177999 0.0233045 0.141955)
(0.0231391 0.0231392 0.141936)
(0.0286894 0.0230449 0.141911)
(0.0345149 0.0230258 0.141884)
(0.0406898 0.0230884 0.141857)
(0.0472783 0.0232498 0.141839)
(0.0544354 0.0238467 0.141843)
(0.00249476 0.0299668 0.141959)
(0.00752029 0.0296232 0.141954)
(0.0125843 0.0292296 0.141946)
(0.0177427 0.0289177 0.141931)
(0.023045 0.0286894 0.141911)
(0.0285458 0.028546 0.141886)
(0.0343071 0.0284915 0.141859)
(0.040399 0.028533 0.141832)
(0.0468733 0.0286906 0.141816)
(0.0539188 0.0293725 0.14182)
(0.00250058 0.0361754 0.141933)
(0.00753665 0.0357321 0.141928)
(0.0125986 0.0352282 0.14192)
(0.0177462 0.0348219 0.141905)
(0.0230262 0.0345146 0.141884)
(0.0284915 0.0343071 0.141858)
(0.0342021 0.0342024 0.141831)
(0.0402257 0.0342068 0.141807)
(0.0466018 0.0343423 0.141792)
(0.0535663 0.0350915 0.141799)
(0.00251792 0.0428187 0.141908)
(0.0075849 0.0422539 0.141902)
(0.0126625 0.0416175 0.141894)
(0.0178158 0.0410956 0.141878)
(0.023089 0.0406892 0.141857)
(0.0285334 0.0403986 0.141832)
(0.0342067 0.0402256 0.141806)
(0.0401741 0.0401743 0.141784)
(0.0464653 0.0402644 0.141774)
(0.05338 0.0410532 0.141783)
(0.00255062 0.0500028 0.141892)
(0.00767356 0.0492866 0.141883)
(0.0127881 0.0484852 0.141874)
(0.0179659 0.0478152 0.14186)
(0.0232502 0.0472777 0.141839)
(0.028691 0.0468726 0.141815)
(0.0343425 0.0466012 0.141792)
(0.0402644 0.0464651 0.141774)
(0.0464758 0.0464758 0.141769)
(0.0533787 0.0472654 0.141782)
(0.002648 0.0578443 0.141904)
(0.00792569 0.056949 0.141887)
(0.0131712 0.0559533 0.141877)
(0.0184633 0.0551135 0.141862)
(0.023847 0.0544349 0.141843)
(0.0293728 0.0539183 0.14182)
(0.0350917 0.0535658 0.141799)
(0.0410534 0.0533796 0.141783)
(0.0472655 0.0533786 0.141782)
(0.0540495 0.0540495 0.1418)
(0.00251871 0.00251885 0.123415)
(0.00758515 0.00249296 0.123288)
(0.0127183 0.00246241 0.12303)
(0.0179653 0.00243892 0.122632)
(0.0233861 0.00242298 0.122081)
(0.0290439 0.00241507 0.121357)
(0.0350123 0.00241614 0.120433)
(0.0413792 0.00242784 0.119276)
(0.0482479 0.00245383 0.117843)
(0.0557353 0.00254381 0.116081)
(0.00249282 0.0075853 0.123288)
(0.00750836 0.00750862 0.123169)
(0.0125871 0.0074182 0.122922)
(0.0177746 0.00734888 0.122538)
(0.023127 0.00730209 0.122005)
(0.0287047 0.00727898 0.121305)
(0.0345775 0.00728158 0.120414)
(0.0408288 0.0073135 0.119299)
(0.0475538 0.00738273 0.117921)
(0.0548717 0.0076123 0.116232)