/*--------------------------------*- C++ -*----------------------------------*\
| =========                 |                                                 |
| \\      /  F ield         | foam-extend: Open Source CFD                    |
|  \\    /   O peration     | Version:     3.1                                |
|   \\  /    A nd           | Web:         http://www.extend-project.de       |
|    \\/     M anipulation  |                                                 |
\*---------------------------------------------------------------------------*/
FoamFile
{
    version     2.0;
    format      ascii;
    class       volScalarField::DimensionedInternalField;
    location    "0.0012";
    object      V0;
}
// * * * * * * * * * * * * * * * * * * * * * * * * * * * * * * * * * * * * * //

dimensions      [0 3 0 0 0 0 0];

value           nonuniform List<scalar> 
16000
(
7.21275e-11
7.08674e-11
6.96083e-11
6.83568e-11
6.71142e-11
6.58806e-11
6.46562e-11
6.34417e-11
6.22372e-11
6.10424e-11
7.08665e-11
6.96114e-11
6.8357e-11
6.7107e-11
6.58645e-11
6.46305e-11
6.34054e-11
6.21895e-11
6.09826e-11
5.97822e-11
6.96075e-11
6.83561e-11
6.71067e-11
6.586e-11
6.4618e-11
6.33833e-11
6.21571e-11
6.0939e-11
5.97291e-11
5.85244e-11
6.83566e-11
6.71064e-11
6.58592e-11
6.4615e-11
6.33742e-11
6.21385e-11
6.09101e-11
5.96894e-11
5.84762e-11
5.72679e-11
6.71143e-11
6.58644e-11
6.46174e-11
6.33735e-11
6.21333e-11
6.08971e-11
5.9666e-11
5.84417e-11
5.72249e-11
5.60133e-11
6.58807e-11
6.46307e-11
6.33833e-11
6.2138e-11
6.08963e-11
5.96592e-11
5.84262e-11
5.71978e-11
5.59761e-11
5.47608e-11
6.46565e-11
6.34056e-11
6.21572e-11
6.09101e-11
5.96654e-11
5.8425e-11
5.71896e-11
5.59575e-11
5.47296e-11
5.35096e-11
6.34419e-11
6.21897e-11
6.09392e-11
5.96895e-11
5.84416e-11
5.71966e-11
5.59561e-11
5.47187e-11
5.34841e-11
5.2258e-11
6.22375e-11
6.09828e-11
5.97293e-11
5.84764e-11
5.7225e-11
5.59757e-11
5.47288e-11
5.34835e-11
5.22397e-11
5.10028e-11
6.10426e-11
5.97825e-11
5.85246e-11
5.72681e-11
5.60134e-11
5.47608e-11
5.35095e-11
5.22577e-11
5.10024e-11
4.97484e-11
7.29157e-11
7.16252e-11
7.03224e-11
6.90273e-11
6.77429e-11
6.64679e-11
6.52012e-11
6.39411e-11
6.26858e-11
6.143e-11
7.16227e-11
7.03475e-11
6.90599e-11
6.7771e-11
6.64888e-11
6.52153e-11
6.39494e-11
6.26894e-11
6.14324e-11
6.01688e-11
7.03202e-11
6.90574e-11
6.77865e-11
6.65092e-11
6.52314e-11
6.39593e-11
6.2694e-11
6.14328e-11
6.01736e-11
5.89068e-11
6.90269e-11
6.77692e-11
6.6507e-11
6.52403e-11
6.39693e-11
6.26982e-11
6.14313e-11
6.0168e-11
5.89062e-11
5.76379e-11
6.77433e-11
6.64887e-11
6.52298e-11
6.39673e-11
6.27021e-11
6.1434e-11
6.01647e-11
5.88968e-11
5.76311e-11
5.63619e-11
6.64684e-11
6.52157e-11
6.39591e-11
6.26968e-11
6.14319e-11
6.01662e-11
5.88968e-11
5.76231e-11
5.63499e-11
5.50786e-11
6.52017e-11
6.39499e-11
6.26944e-11
6.14313e-11
6.01628e-11
5.88933e-11
5.7623e-11
5.63454e-11
5.50618e-11
5.37856e-11
6.39418e-11
6.269e-11
6.14333e-11
6.01684e-11
5.88965e-11
5.76198e-11
5.63417e-11
5.50566e-11
5.37625e-11
5.24793e-11
6.26866e-11
6.14331e-11
6.01742e-11
5.89067e-11
5.76316e-11
5.63492e-11
5.506e-11
5.37612e-11
5.24521e-11
5.11522e-11
6.14306e-11
6.01694e-11
5.89073e-11
5.76383e-11
5.63623e-11
5.50789e-11
5.37859e-11
5.24788e-11
5.11511e-11
4.98219e-11
7.35799e-11
7.22614e-11
7.09176e-11
6.95804e-11
6.82549e-11
6.69388e-11
6.56299e-11
6.43259e-11
6.30236e-11
6.17154e-11
7.22574e-11
7.09637e-11
6.96446e-11
6.83181e-11
6.6997e-11
6.56842e-11
6.4378e-11
6.30756e-11
6.17727e-11
6.04545e-11
7.09141e-11
6.96407e-11
6.8349e-11
6.7042e-11
6.5729e-11
6.442e-11
6.31165e-11
6.18144e-11
6.05104e-11
5.919e-11
6.95799e-11
6.83153e-11
6.70386e-11
6.57497e-11
6.44492e-11
6.31435e-11
6.18396e-11
6.05365e-11
5.92312e-11
5.79116e-11
6.82555e-11
6.69969e-11
6.57266e-11
6.44459e-11
6.31565e-11
6.18579e-11
6.05525e-11
5.92447e-11
5.79363e-11
5.66186e-11
6.69395e-11
6.56849e-11
6.44198e-11
6.31413e-11
6.18545e-11
6.05621e-11
5.92592e-11
5.79453e-11
5.6628e-11
5.53102e-11
6.56308e-11
6.43789e-11
6.31173e-11
6.18396e-11
6.05496e-11
5.92537e-11
5.79525e-11
5.66354e-11
5.53051e-11
5.39832e-11
6.4327e-11
6.30767e-11
6.18153e-11
6.05373e-11
5.92443e-11
5.794e-11
5.66295e-11
5.53039e-11
5.39607e-11
5.26317e-11
6.30248e-11
6.17738e-11
6.05114e-11
5.92321e-11
5.79371e-11
5.6627e-11
5.53023e-11
5.39587e-11
5.25954e-11
5.12431e-11
6.17164e-11
6.04555e-11
5.91909e-11
5.79124e-11
5.66193e-11
5.53109e-11
5.39838e-11
5.2631e-11
5.12414e-11
4.98457e-11
7.4092e-11
7.27505e-11
7.13723e-11
6.99998e-11
6.864e-11
6.72901e-11
6.59483e-11
6.46121e-11
6.32789e-11
6.19405e-11
7.27453e-11
7.14363e-11
7.00908e-11
6.87327e-11
6.73791e-11
6.60344e-11
6.46969e-11
6.33638e-11
6.20307e-11
6.068e-11
7.13679e-11
7.00857e-11
6.87766e-11
6.74447e-11
6.61027e-11
6.4764e-11
6.34312e-11
6.20997e-11
6.07666e-11
5.94142e-11
6.99994e-11
6.87291e-11
6.74403e-11
6.6133e-11
6.48085e-11
6.34755e-11
6.21438e-11
6.08127e-11
5.94796e-11
5.81295e-11
6.86409e-11
6.73791e-11
6.60996e-11
6.48043e-11
6.34957e-11
6.21736e-11
6.08416e-11
5.95064e-11
5.81713e-11
5.68254e-11
6.72913e-11
6.60354e-11
6.47639e-11
6.34727e-11
6.21692e-11
6.0857e-11
5.95305e-11
5.81894e-11
5.6845e-11
5.55009e-11
6.59496e-11
6.46982e-11
6.34323e-11
6.21439e-11
6.08379e-11
5.95233e-11
5.82011e-11
5.68584e-11
5.54992e-11
5.41519e-11
6.46137e-11
6.33653e-11
6.2101e-11
6.08138e-11
5.95059e-11
5.81826e-11
5.68507e-11
5.5499e-11
5.41253e-11
5.27707e-11
6.32806e-11
6.20323e-11
6.0768e-11
5.94808e-11
5.81724e-11
5.68437e-11
5.54958e-11
5.41229e-11
5.27247e-11
5.134e-11
6.1942e-11
6.06814e-11
5.94155e-11
5.81307e-11
5.68265e-11
5.5502e-11
5.41529e-11
5.277e-11
5.13378e-11
4.98958e-11
7.44356e-11
7.30774e-11
7.16741e-11
7.02755e-11
6.88903e-11
6.75161e-11
6.61513e-11
6.47943e-11
6.34431e-11
6.20893e-11
7.30713e-11
7.17511e-11
7.03861e-11
6.90046e-11
6.76272e-11
6.62594e-11
6.49003e-11
6.35473e-11
6.21967e-11
6.0829e-11
7.1669e-11
7.03802e-11
6.9058e-11
6.77077e-11
6.63444e-11
6.49845e-11
6.36317e-11
6.22815e-11
6.09316e-11
5.95625e-11
7.0275e-11
6.90006e-11
6.77025e-11
6.63817e-11
6.50398e-11
6.36877e-11
6.23372e-11
6.09887e-11
5.96398e-11
5.82742e-11
6.88915e-11
6.76272e-11
6.63409e-11
6.5035e-11
6.37127e-11
6.23746e-11
6.10253e-11
5.96734e-11
5.83235e-11
5.69636e-11
6.75175e-11
6.62607e-11
6.49845e-11
6.36845e-11
6.23696e-11
6.10444e-11
5.9703e-11
5.83458e-11
5.69866e-11
5.56299e-11
6.6153e-11
6.49019e-11
6.3633e-11
6.23374e-11
6.1021e-11
5.96947e-11
5.836e-11
5.70025e-11
5.56277e-11
5.42684e-11
6.47963e-11
6.35491e-11
6.22831e-11
6.099e-11
5.96729e-11
5.8338e-11
5.69937e-11
5.56274e-11
5.42372e-11
5.28704e-11
6.34451e-11
6.21986e-11
6.09333e-11
5.96413e-11
5.83249e-11
5.69852e-11
5.56238e-11
5.42344e-11
5.28168e-11
5.14155e-11
6.20912e-11
6.08308e-11
5.95641e-11
5.82757e-11
5.69651e-11
5.56313e-11
5.42697e-11
5.28696e-11
5.1413e-11
4.99448e-11
7.46058e-11
7.32377e-11
7.18191e-11
7.04039e-11
6.9002e-11
6.76116e-11
6.62316e-11
6.48609e-11
6.34983e-11
6.21357e-11
7.32312e-11
7.1904e-11
7.05266e-11
6.91301e-11
6.77368e-11
6.63537e-11
6.49799e-11
6.36139e-11
6.22523e-11
6.08755e-11
7.18137e-11
7.05203e-11
6.91893e-11
6.78266e-11
6.64492e-11
6.50752e-11
6.37089e-11
6.23465e-11
6.09863e-11
5.96087e-11
7.04035e-11
6.91257e-11
6.78211e-11
6.64909e-11
6.51373e-11
6.37726e-11
6.24099e-11
6.10502e-11
5.96918e-11
5.83187e-11
6.90034e-11
6.7737e-11
6.64456e-11
6.51322e-11
6.38007e-11
6.2452e-11
6.10919e-11
5.97298e-11
5.83714e-11
5.70054e-11
6.76132e-11
6.63551e-11
6.50752e-11
6.37692e-11
6.24468e-11
6.11133e-11
5.97629e-11
5.83966e-11
5.70294e-11
5.56679e-11
6.62334e-11
6.49817e-11
6.37104e-11
6.24101e-11
6.10874e-11
5.97541e-11
5.84122e-11
5.70471e-11
5.56648e-11
5.43017e-11
6.48631e-11
6.36159e-11
6.23483e-11
6.10517e-11
5.97294e-11
5.83883e-11
5.70378e-11
5.56649e-11
5.4268e-11
5.28982e-11
6.35006e-11
6.22544e-11
6.09882e-11
5.96935e-11
5.8373e-11
5.7028e-11
5.56608e-11
5.42651e-11
5.28409e-11
5.14363e-11
6.21378e-11
6.08775e-11
5.96105e-11
5.83205e-11
5.7007e-11
5.56694e-11
5.43031e-11
5.28974e-11
5.14338e-11
4.99599e-11
7.46113e-11
7.32398e-11
7.18151e-11
7.0392e-11
6.8981e-11
6.75808e-11
6.61908e-11
6.48108e-11
6.34401e-11
6.20709e-11
7.32333e-11
7.19029e-11
7.05198e-11
6.91156e-11
6.77136e-11
6.63209e-11
6.49375e-11
6.35623e-11
6.21928e-11
6.08109e-11
7.18097e-11
7.05135e-11
6.91773e-11
6.78077e-11
6.64222e-11
6.50393e-11
6.3664e-11
6.22932e-11
6.09257e-11
5.95441e-11
7.03916e-11
6.91113e-11
6.78022e-11
6.64659e-11
6.51051e-11
6.37326e-11
6.2362e-11
6.09949e-11
5.96302e-11
5.82543e-11
6.89824e-11
6.77137e-11
6.64186e-11
6.51001e-11
6.37626e-11
6.24074e-11
6.10406e-11
5.96724e-11
5.83089e-11
5.69413e-11
6.75824e-11
6.63224e-11
6.50393e-11
6.37293e-11
6.24022e-11
6.10634e-11
5.97078e-11
5.83369e-11
5.69661e-11
5.56048e-11
6.61928e-11
6.49393e-11
6.36656e-11
6.23623e-11
6.10362e-11
5.96992e-11
5.83537e-11
5.69857e-11
5.5602e-11
5.42409e-11
6.48131e-11
6.35644e-11
6.2295e-11
6.09964e-11
5.96721e-11
5.8329e-11
5.69766e-11
5.56033e-11
5.42075e-11
5.2842e-11
6.34424e-11
6.2195e-11
6.09277e-11
5.9632e-11
5.83104e-11
5.69648e-11
5.55979e-11
5.42046e-11
5.27852e-11
5.13895e-11
6.20732e-11
6.0813e-11
5.9546e-11
5.82561e-11
5.6943e-11
5.56063e-11
5.42422e-11
5.28412e-11
5.13871e-11
4.99272e-11
7.44747e-11
7.31056e-11
7.1683e-11
7.02595e-11
6.88459e-11
6.74414e-11
6.60459e-11
6.46599e-11
6.32834e-11
6.19098e-11
7.30994e-11
7.17694e-11
7.03863e-11
6.8981e-11
6.75762e-11
6.6179e-11
6.47899e-11
6.34087e-11
6.20338e-11
6.06499e-11
7.16778e-11
7.03804e-11
6.90422e-11
6.76703e-11
6.62818e-11
6.48947e-11
6.3514e-11
6.21377e-11
6.07656e-11
5.93836e-11
7.02591e-11
6.8977e-11
6.76652e-11
6.63256e-11
6.49616e-11
6.35855e-11
6.22105e-11
6.08388e-11
5.94705e-11
5.80955e-11
6.88471e-11
6.75763e-11
6.62784e-11
6.49569e-11
6.36161e-11
6.22576e-11
6.08879e-11
5.95167e-11
5.81508e-11
5.67856e-11
6.74428e-11
6.61804e-11
6.48947e-11
6.35824e-11
6.22528e-11
6.09114e-11
5.95538e-11
5.8182e-11
5.68111e-11
5.5454e-11
6.60477e-11
6.47916e-11
6.35155e-11
6.22107e-11
6.08838e-11
5.95459e-11
5.81996e-11
5.68327e-11
5.54524e-11
5.40982e-11
6.4662e-11
6.34106e-11
6.21394e-11
6.08403e-11
5.95165e-11
5.81748e-11
5.68245e-11
5.54559e-11
5.40677e-11
5.27124e-11
6.32855e-11
6.20358e-11
6.07674e-11
5.94721e-11
5.81523e-11
5.681e-11
5.54486e-11
5.40649e-11
5.26596e-11
5.12824e-11
6.19118e-11
6.06519e-11
5.93854e-11
5.80971e-11
5.67871e-11
5.54553e-11
5.40992e-11
5.27116e-11
5.12803e-11
4.985e-11
7.42307e-11
7.28685e-11
7.14546e-11
7.00372e-11
6.86269e-11
6.72232e-11
6.58269e-11
6.44389e-11
6.30599e-11
6.16849e-11
7.2863e-11
7.15362e-11
7.01581e-11
6.87573e-11
6.73551e-11
6.59584e-11
6.4568e-11
6.31844e-11
6.18074e-11
6.04255e-11
7.14499e-11
7.01528e-11
6.88157e-11
6.74457e-11
6.60591e-11
6.46721e-11
6.32901e-11
6.19119e-11
6.05385e-11
5.916e-11
7.00367e-11
6.87537e-11
6.74411e-11
6.61013e-11
6.47378e-11
6.33621e-11
6.19865e-11
6.06139e-11
5.92451e-11
5.78748e-11
6.86278e-11
6.73551e-11
6.6056e-11
6.47336e-11
6.33923e-11
6.2034e-11
6.06649e-11
5.92945e-11
5.79295e-11
5.65701e-11
6.72244e-11
6.59595e-11
6.46721e-11
6.33593e-11
6.20297e-11
6.06884e-11
5.93321e-11
5.79633e-11
5.6596e-11
5.52466e-11
6.58284e-11
6.45694e-11
6.32913e-11
6.19867e-11
6.06613e-11
5.93253e-11
5.79811e-11
5.66193e-11
5.52468e-11
5.3903e-11
6.44406e-11
6.31861e-11
6.19134e-11
6.06151e-11
5.92943e-11
5.79572e-11
5.66122e-11
5.52524e-11
5.38771e-11
5.25361e-11
6.30617e-11
6.18092e-11
6.054e-11
5.92465e-11
5.79308e-11
5.65951e-11
5.52434e-11
5.38745e-11
5.24897e-11
5.11368e-11
6.16867e-11
6.04272e-11
5.91614e-11
5.78762e-11
5.65714e-11
5.52476e-11
5.39036e-11
5.25352e-11
5.11351e-11
4.97433e-11
7.39205e-11
7.25685e-11
7.11682e-11
6.97624e-11
6.83604e-11
6.69629e-11
6.55708e-11
6.41857e-11
6.28091e-11
6.14374e-11
7.25637e-11
7.12424e-11
6.98733e-11
6.8482e-11
6.70875e-11
6.56962e-11
6.43094e-11
6.29284e-11
6.1554e-11
6.01785e-11
7.11642e-11
6.98688e-11
6.85356e-11
6.71715e-11
6.57913e-11
6.44093e-11
6.30306e-11
6.16551e-11
6.02849e-11
5.89141e-11
6.97618e-11
6.84788e-11
6.71676e-11
6.58306e-11
6.44714e-11
6.31005e-11
6.17287e-11
6.03595e-11
5.89946e-11
5.76328e-11
6.83611e-11
6.70873e-11
6.57885e-11
6.44678e-11
6.31292e-11
6.17747e-11
6.04104e-11
5.9045e-11
5.7685e-11
5.63349e-11
6.69638e-11
6.5697e-11
6.44091e-11
6.3098e-11
6.17711e-11
6.04331e-11
5.90817e-11
5.77198e-11
5.63602e-11
5.50212e-11
6.55719e-11
6.43104e-11
6.30314e-11
6.17288e-11
6.04074e-11
5.90762e-11
5.77373e-11
5.6384e-11
5.50231e-11
5.36921e-11
6.4187e-11
6.29296e-11
6.16562e-11
6.03605e-11
5.90448e-11
5.77149e-11
5.63782e-11
5.50305e-11
5.36713e-11
5.23464e-11
6.28104e-11
6.15553e-11
6.0286e-11
5.89957e-11
5.7686e-11
5.63594e-11
5.50201e-11
5.3669e-11
5.23076e-11
5.09801e-11
6.14387e-11
6.01798e-11
5.89152e-11
5.76338e-11
5.63357e-11
5.50218e-11
5.36923e-11
5.23456e-11
5.09787e-11
4.96265e-11
7.35851e-11
7.22452e-11
7.08619e-11
6.94714e-11
6.80824e-11
6.66958e-11
6.53132e-11
6.39364e-11
6.25676e-11
6.12044e-11
7.22411e-11
7.09269e-11
6.95698e-11
6.81919e-11
6.68093e-11
6.54282e-11
6.40502e-11
6.26772e-11
6.13107e-11
5.99463e-11
7.08584e-11
6.9566e-11
6.82393e-11
6.68847e-11
6.55148e-11
6.41423e-11
6.27719e-11
6.14044e-11
6.00423e-11
5.86834e-11
6.94708e-11
6.81891e-11
6.68814e-11
6.55501e-11
6.4199e-11
6.28369e-11
6.14736e-11
6.01126e-11
5.87563e-11
5.74065e-11
6.80828e-11
6.6809e-11
6.55125e-11
6.4196e-11
6.28632e-11
6.15164e-11
6.0161e-11
5.88049e-11
5.74541e-11
5.61159e-11
6.66964e-11
6.54287e-11
6.4142e-11
6.28348e-11
6.15134e-11
6.01819e-11
5.8839e-11
5.74878e-11
5.61395e-11
5.48129e-11
6.53139e-11
6.40509e-11
6.27724e-11
6.14735e-11
6.01585e-11
5.88346e-11
5.75041e-11
5.61624e-11
5.48159e-11
5.34985e-11
6.39372e-11
6.2678e-11
6.14051e-11
6.01133e-11
5.88047e-11
5.74841e-11
5.61579e-11
5.4824e-11
5.34825e-11
5.21733e-11
6.25685e-11
6.13115e-11
6.00431e-11
5.8757e-11
5.74548e-11
5.61388e-11
5.48134e-11
5.34806e-11
5.21421e-11
5.08369e-11
6.12053e-11
5.99471e-11
5.86841e-11
5.74072e-11
5.61164e-11
5.48132e-11
5.34984e-11
5.21725e-11
5.08358e-11
4.9517e-11
7.32588e-11
7.19317e-11
7.05669e-11
6.91941e-11
6.78212e-11
6.64495e-11
6.50807e-11
6.37171e-11
6.2361e-11
6.10111e-11
7.19284e-11
7.06221e-11
6.92788e-11
6.79166e-11
6.65492e-11
6.51822e-11
6.38175e-11
6.24572e-11
6.11034e-11
5.97539e-11
7.05639e-11
6.92756e-11
6.79573e-11
6.66146e-11
6.52582e-11
6.38989e-11
6.2541e-11
6.1186e-11
5.98366e-11
5.84926e-11
6.91935e-11
6.79142e-11
6.66118e-11
6.52888e-11
6.39486e-11
6.25989e-11
6.1248e-11
5.98993e-11
5.85555e-11
5.72202e-11
6.78213e-11
6.65488e-11
6.52562e-11
6.39462e-11
6.2622e-11
6.12859e-11
5.99428e-11
5.85995e-11
5.72615e-11
5.59369e-11
6.64497e-11
6.51824e-11
6.38985e-11
6.25972e-11
6.12835e-11
5.99612e-11
5.86296e-11
5.7292e-11
5.59576e-11
5.4644e-11
6.50811e-11
6.38178e-11
6.25413e-11
6.12478e-11
5.99408e-11
5.86263e-11
5.73063e-11
5.59781e-11
5.46474e-11
5.33431e-11
6.37175e-11
6.24576e-11
6.11864e-11
5.98997e-11
5.85993e-11
5.72892e-11
5.59747e-11
5.46552e-11
5.33311e-11
5.20354e-11
6.23615e-11
6.11038e-11
5.9837e-11
5.8556e-11
5.72619e-11
5.59571e-11
5.46453e-11
5.33294e-11
5.2011e-11
5.07224e-11
6.10116e-11
5.97543e-11
5.8493e-11
5.72205e-11
5.59371e-11
5.4644e-11
5.33428e-11
5.20346e-11
5.07216e-11
4.94261e-11
7.2965e-11
7.16504e-11
7.03038e-11
6.89496e-11
6.75944e-11
6.62398e-11
6.48877e-11
6.35404e-11
6.22001e-11
6.08662e-11
7.16477e-11
7.03498e-11
6.90205e-11
6.7675e-11
6.63245e-11
6.49739e-11
6.36253e-11
6.22808e-11
6.09428e-11
5.961e-11
7.03014e-11
6.9018e-11
6.7709e-11
6.63795e-11
6.50383e-11
6.36945e-11
6.23519e-11
6.10122e-11
5.96782e-11
5.83505e-11
6.8949e-11
6.7673e-11
6.63773e-11
6.50641e-11
6.37365e-11
6.24012e-11
6.1065e-11
5.97312e-11
5.84023e-11
5.70822e-11
6.75943e-11
6.63241e-11
6.50367e-11
6.37346e-11
6.24207e-11
6.10971e-11
5.97682e-11
5.84397e-11
5.71163e-11
5.58055e-11
6.62399e-11
6.4974e-11
6.36941e-11
6.23998e-11
6.10953e-11
5.97837e-11
5.8465e-11
5.71421e-11
5.58227e-11
5.45215e-11
6.48879e-11
6.36254e-11
6.2352e-11
6.10647e-11
5.97666e-11
5.84624e-11
5.7154e-11
5.58398e-11
5.45246e-11
5.32318e-11
6.35405e-11
6.2281e-11
6.10124e-11
5.97314e-11
5.84395e-11
5.714e-11
5.58372e-11
5.45313e-11
5.32226e-11
5.19376e-11
6.22003e-11
6.09429e-11
5.96783e-11
5.84025e-11
5.71165e-11
5.58222e-11
5.45229e-11
5.32213e-11
5.19187e-11
5.06406e-11
6.08664e-11
5.96101e-11
5.83506e-11
5.70823e-11
5.58055e-11
5.45214e-11
5.32314e-11
5.19369e-11
5.064e-11
4.93579e-11
7.27153e-11
7.1412e-11
7.00824e-11
6.87459e-11
6.74084e-11
6.60714e-11
6.47367e-11
6.34065e-11
6.20828e-11
6.07654e-11
7.14099e-11
7.012e-11
6.88042e-11
6.74748e-11
6.61412e-11
6.48075e-11
6.34758e-11
6.21481e-11
6.08264e-11
5.951e-11
7.00804e-11
6.88021e-11
6.75027e-11
6.61863e-11
6.48605e-11
6.35326e-11
6.2206e-11
6.08824e-11
5.95642e-11
5.8252e-11
6.87454e-11
6.74732e-11
6.61846e-11
6.48816e-11
6.35671e-11
6.22464e-11
6.09254e-11
5.9607e-11
5.82932e-11
5.69873e-11
6.74083e-11
6.61408e-11
6.48592e-11
6.35655e-11
6.22624e-11
6.09516e-11
5.9637e-11
5.83233e-11
5.70143e-11
5.5716e-11
6.60713e-11
6.48075e-11
6.35322e-11
6.22453e-11
6.09502e-11
5.96495e-11
5.83437e-11
5.7035e-11
5.57297e-11
5.44393e-11
6.47367e-11
6.34758e-11
6.2206e-11
6.09252e-11
5.96358e-11
5.83417e-11
5.70445e-11
5.57432e-11
5.44417e-11
5.31582e-11
6.34065e-11
6.21481e-11
6.08825e-11
5.96071e-11
5.83231e-11
5.70333e-11
5.57412e-11
5.44469e-11
5.3151e-11
5.18737e-11
6.20828e-11
6.08264e-11
5.95642e-11
5.82933e-11
5.70144e-11
5.57293e-11
5.44404e-11
5.31499e-11
5.18589e-11
5.05867e-11
6.07654e-11
5.951e-11
5.8252e-11
5.69872e-11
5.5716e-11
5.44391e-11
5.31578e-11
5.18731e-11
5.05862e-11
4.93102e-11
7.25113e-11
7.12178e-11
6.9903e-11
6.85825e-11
6.72611e-11
6.59404e-11
6.4622e-11
6.33077e-11
6.19993e-11
6.06965e-11
7.12161e-11
6.99333e-11
6.86296e-11
6.73149e-11
6.59967e-11
6.46789e-11
6.33629e-11
6.20507e-11
6.07439e-11
5.94418e-11
6.99014e-11
6.8628e-11
6.73374e-11
6.60332e-11
6.47215e-11
6.34084e-11
6.20967e-11
6.0788e-11
5.9484e-11
5.81852e-11
6.85821e-11
6.73136e-11
6.60318e-11
6.47385e-11
6.3436e-11
6.21289e-11
6.08219e-11
5.95175e-11
5.82172e-11
5.69233e-11
6.7261e-11
6.59964e-11
6.47204e-11
6.34348e-11
6.21416e-11
6.08427e-11
5.95411e-11
5.82406e-11
5.69442e-11
5.56563e-11
6.59404e-11
6.46788e-11
6.3408e-11
6.2128e-11
6.08415e-11
5.95509e-11
5.82564e-11
5.69601e-11
5.56668e-11
5.4385e-11
6.4622e-11
6.33629e-11
6.20967e-11
6.08217e-11
5.954e-11
5.82548e-11
5.69674e-11
5.5677e-11
5.43867e-11
5.31102e-11
6.33077e-11
6.20507e-11
6.07879e-11
5.95175e-11
5.82403e-11
5.69587e-11
5.56754e-11
5.43905e-11
5.31043e-11
5.18323e-11
6.19993e-11
6.07439e-11
5.9484e-11
5.82172e-11
5.69443e-11
5.56664e-11
5.43857e-11
5.31035e-11
5.18206e-11
5.05515e-11
6.06964e-11
5.94418e-11
5.81852e-11
5.69232e-11
5.56562e-11
5.43849e-11
5.31099e-11
5.18318e-11
5.0551e-11
4.92773e-11
7.23482e-11
7.10629e-11
6.97604e-11
6.84534e-11
6.71459e-11
6.58392e-11
6.45346e-11
6.32337e-11
6.19379e-11
6.06468e-11
7.10615e-11
6.97848e-11
6.84913e-11
6.71889e-11
6.58841e-11
6.45797e-11
6.32772e-11
6.19781e-11
6.06836e-11
5.93928e-11
6.97591e-11
6.84899e-11
6.7207e-11
6.59133e-11
6.46136e-11
6.33131e-11
6.20142e-11
6.07178e-11
5.94255e-11
5.81372e-11
6.84531e-11
6.71879e-11
6.59121e-11
6.46272e-11
6.33351e-11
6.20395e-11
6.07443e-11
5.94513e-11
5.8162e-11
5.68774e-11
6.71458e-11
6.58838e-11
6.46128e-11
6.33341e-11
6.20495e-11
6.07606e-11
5.94696e-11
5.81798e-11
5.68936e-11
5.56136e-11
6.58391e-11
6.45797e-11
6.33129e-11
6.20387e-11
6.07596e-11
5.94773e-11
5.81921e-11
5.69056e-11
5.56216e-11
5.43463e-11
6.45346e-11
6.32772e-11
6.20141e-11
6.07441e-11
5.94688e-11
5.81908e-11
5.69112e-11
5.56293e-11
5.43474e-11
5.30759e-11
6.32337e-11
6.19781e-11
6.07178e-11
5.94513e-11
5.81796e-11
5.69044e-11
5.5628e-11
5.435e-11
5.3071e-11
5.18027e-11
6.19378e-11
6.06835e-11
5.94255e-11
5.8162e-11
5.68936e-11
5.56213e-11
5.43466e-11
5.30704e-11
5.17932e-11
5.0526e-11
6.06467e-11
5.93927e-11
5.81372e-11
5.68774e-11
5.56136e-11
5.43462e-11
5.30757e-11
5.18023e-11
5.05256e-11
4.92534e-11
7.22183e-11
7.09396e-11
6.9647e-11
6.8351e-11
6.70548e-11
6.57594e-11
6.44659e-11
6.31755e-11
6.18892e-11
6.06068e-11
7.09385e-11
6.96667e-11
6.83815e-11
6.70893e-11
6.57952e-11
6.45017e-11
6.32099e-11
6.19209e-11
6.06357e-11
5.93533e-11
6.9646e-11
6.83804e-11
6.71038e-11
6.58185e-11
6.45287e-11
6.32383e-11
6.19493e-11
6.06626e-11
5.93791e-11
5.80985e-11
6.83508e-11
6.70884e-11
6.58176e-11
6.45395e-11
6.32557e-11
6.19693e-11
6.06833e-11
5.93992e-11
5.8118e-11
5.68403e-11
6.70548e-11
6.5795e-11
6.4528e-11
6.32549e-11
6.19772e-11
6.06961e-11
5.94134e-11
5.81318e-11
5.6853e-11
5.55788e-11
6.57593e-11
6.45016e-11
6.32381e-11
6.19687e-11
6.06953e-11
5.94195e-11
5.81414e-11
5.68622e-11
5.55851e-11
5.43144e-11
6.44658e-11
6.32098e-11
6.19493e-11
6.06831e-11
5.94128e-11
5.81403e-11
5.68666e-11
5.5591e-11
5.43152e-11
5.30474e-11
6.31755e-11
6.19209e-11
6.06625e-11
5.93992e-11
5.81316e-11
5.68613e-11
5.55899e-11
5.43171e-11
5.30433e-11
5.17776e-11
6.18892e-11
6.06357e-11
5.93791e-11
5.8118e-11
5.6853e-11
5.55848e-11
5.43146e-11
5.30427e-11
5.17698e-11
5.05044e-11
6.06067e-11
5.93532e-11
5.80985e-11
5.68403e-11
5.55788e-11
5.43144e-11
5.30473e-11
5.17773e-11
5.05041e-11
4.92339e-11
7.21139e-11
7.08404e-11
6.95558e-11
6.82685e-11
6.69811e-11
6.56944e-11
6.44094e-11
6.31269e-11
6.18477e-11
6.05714e-11
7.08395e-11
6.95717e-11
6.8293e-11
6.70088e-11
6.57232e-11
6.44381e-11
6.31544e-11
6.18731e-11
6.05946e-11
5.93183e-11
6.9555e-11
6.82922e-11
6.70206e-11
6.5742e-11
6.44598e-11
6.31772e-11
6.18958e-11
6.06162e-11
5.93391e-11
5.80642e-11
6.82683e-11
6.70082e-11
6.57412e-11
6.44685e-11
6.31912e-11
6.19117e-11
6.06327e-11
5.93552e-11
5.80799e-11
5.68072e-11
6.69811e-11
6.5723e-11
6.44592e-11
6.31905e-11
6.19181e-11
6.06429e-11
5.93665e-11
5.80908e-11
5.68174e-11
5.55475e-11
6.56944e-11
6.44381e-11
6.3177e-11
6.19112e-11
6.06423e-11
5.93713e-11
5.80985e-11
5.68247e-11
5.55525e-11
5.42853e-11
6.44094e-11
6.31544e-11
6.18958e-11
6.06326e-11
5.93659e-11
5.80976e-11
5.68282e-11
5.55572e-11
5.42859e-11
5.30208e-11
6.31269e-11
6.18731e-11
6.06162e-11
5.93552e-11
5.80907e-11
5.68239e-11
5.55562e-11
5.42874e-11
5.30174e-11
5.1754e-11
6.18477e-11
6.05946e-11
5.93391e-11
5.80799e-11
5.68174e-11
5.55523e-11
5.42853e-11
5.3017e-11
5.17475e-11
5.04841e-11
6.05713e-11
5.93183e-11
5.80641e-11
5.68072e-11
5.55475e-11
5.42853e-11
5.30208e-11
5.17538e-11
5.04839e-11
4.92163e-11
7.20287e-11
7.07593e-11
6.94809e-11
6.82005e-11
6.69199e-11
6.564e-11
6.43614e-11
6.30847e-11
6.18107e-11
6.05389e-11
7.07586e-11
6.94939e-11
6.82204e-11
6.69424e-11
6.56633e-11
6.43847e-11
6.31072e-11
6.18315e-11
6.0558e-11
5.92861e-11
6.94803e-11
6.82197e-11
6.6952e-11
6.56786e-11
6.44023e-11
6.31257e-11
6.185e-11
6.05756e-11
5.93033e-11
5.80325e-11
6.82003e-11
6.69419e-11
6.5678e-11
6.44094e-11
6.3137e-11
6.18629e-11
6.05891e-11
5.93164e-11
5.80455e-11
5.67765e-11
6.69199e-11
6.56632e-11
6.44019e-11
6.31365e-11
6.18681e-11
6.05974e-11
5.93257e-11
5.80545e-11
5.6785e-11
5.55182e-11
6.564e-11
6.43847e-11
6.31256e-11
6.18625e-11
6.05969e-11
5.93296e-11
5.80607e-11
5.6791e-11
5.55224e-11
5.42579e-11
6.43614e-11
6.31072e-11
6.185e-11
6.0589e-11
5.93252e-11
5.806e-11
5.67939e-11
5.55263e-11
5.42584e-11
5.29956e-11
6.30848e-11
6.18315e-11
6.05757e-11
5.93165e-11
5.80544e-11
5.67903e-11
5.55255e-11
5.42596e-11
5.29928e-11
5.17314e-11
6.18107e-11
6.05581e-11
5.93033e-11
5.80455e-11
5.6785e-11
5.55222e-11
5.4258e-11
5.29925e-11
5.1726e-11
5.04647e-11
6.05389e-11
5.92861e-11
5.80325e-11
5.67765e-11
5.55182e-11
5.42579e-11
5.29956e-11
5.17312e-11
5.04645e-11
4.91999e-11
7.19579e-11
7.06919e-11
6.94185e-11
6.81434e-11
6.68683e-11
6.55936e-11
6.432e-11
6.30478e-11
6.17777e-11
6.05094e-11
7.06913e-11
6.94291e-11
6.81598e-11
6.68867e-11
6.56128e-11
6.43391e-11
6.30663e-11
6.17949e-11
6.05253e-11
5.92569e-11
6.9418e-11
6.81592e-11
6.68945e-11
6.56253e-11
6.43535e-11
6.30815e-11
6.18102e-11
6.05399e-11
5.92712e-11
5.80037e-11
6.81433e-11
6.68863e-11
6.56248e-11
6.43593e-11
6.30909e-11
6.18209e-11
6.05511e-11
5.92822e-11
5.80146e-11
5.67486e-11
6.68683e-11
6.56127e-11
6.43532e-11
6.30904e-11
6.18252e-11
6.0558e-11
5.92898e-11
5.80221e-11
5.67557e-11
5.54915e-11
6.55937e-11
6.43391e-11
6.30814e-11
6.18206e-11
6.05575e-11
5.92931e-11
5.80273e-11
5.67607e-11
5.5495e-11
5.42328e-11
6.432e-11
6.30664e-11
6.18102e-11
6.0551e-11
5.92894e-11
5.80267e-11
5.67631e-11
5.54983e-11
5.42332e-11
5.29724e-11
6.30479e-11
6.1795e-11
6.054e-11
5.92822e-11
5.8022e-11
5.67602e-11
5.54977e-11
5.42343e-11
5.29701e-11
5.17105e-11
6.17778e-11
6.05254e-11
5.92713e-11
5.80146e-11
5.67557e-11
5.54949e-11
5.42329e-11
5.29699e-11
5.17061e-11
5.04467e-11
6.05094e-11
5.92569e-11
5.80038e-11
5.67486e-11
5.54916e-11
5.42328e-11
5.29724e-11
5.17104e-11
5.04466e-11
4.91848e-11
7.18987e-11
7.06354e-11
6.9366e-11
6.80953e-11
6.68244e-11
6.55539e-11
6.42842e-11
6.30157e-11
6.17488e-11
6.04833e-11
7.06349e-11
6.93747e-11
6.81086e-11
6.68396e-11
6.55697e-11
6.43e-11
6.3031e-11
6.17632e-11
6.04967e-11
5.92312e-11
6.93656e-11
6.81082e-11
6.6846e-11
6.558e-11
6.43119e-11
6.30436e-11
6.17758e-11
6.05088e-11
5.92431e-11
5.79784e-11
6.80952e-11
6.68392e-11
6.55796e-11
6.43167e-11
6.30513e-11
6.17847e-11
6.05181e-11
5.92522e-11
5.79874e-11
5.6724e-11
6.68244e-11
6.55696e-11
6.43116e-11
6.30509e-11
6.17882e-11
6.05238e-11
5.92586e-11
5.79937e-11
5.67299e-11
5.5468e-11
6.5554e-11
6.43e-11
6.30435e-11
6.17844e-11
6.05235e-11
5.92613e-11
5.79981e-11
5.67342e-11
5.54709e-11
5.42106e-11
6.42843e-11
6.30311e-11
6.17758e-11
6.05181e-11
5.92583e-11
5.79976e-11
5.67362e-11
5.54737e-11
5.4211e-11
5.29519e-11
6.30158e-11
6.17632e-11
6.05089e-11
5.92523e-11
5.79937e-11
5.67337e-11
5.54732e-11
5.4212e-11
5.29501e-11
5.1692e-11
6.17489e-11
6.04967e-11
5.92431e-11
5.79875e-11
5.67299e-11
5.54708e-11
5.42107e-11
5.29498e-11
5.16884e-11
5.04307e-11
6.04834e-11
5.92312e-11
5.79784e-11
5.6724e-11
5.5468e-11
5.42106e-11
5.29519e-11
5.16919e-11
5.04306e-11
4.9171e-11
7.18487e-11
7.05877e-11
6.93217e-11
6.80544e-11
6.67871e-11
6.55201e-11
6.42537e-11
6.29882e-11
6.1724e-11
6.0461e-11
7.05873e-11
6.93288e-11
6.80654e-11
6.67996e-11
6.55331e-11
6.42667e-11
6.30009e-11
6.17359e-11
6.04721e-11
5.9209e-11
6.93213e-11
6.80651e-11
6.68049e-11
6.55415e-11
6.42765e-11
6.30112e-11
6.17464e-11
6.04822e-11
5.92189e-11
5.79566e-11
6.80544e-11
6.67993e-11
6.55412e-11
6.42805e-11
6.30176e-11
6.17537e-11
6.04898e-11
5.92265e-11
5.79641e-11
5.67028e-11
6.67872e-11
6.5533e-11
6.42763e-11
6.30173e-11
6.17566e-11
6.04946e-11
5.92319e-11
5.79694e-11
5.67078e-11
5.54478e-11
6.55201e-11
6.42667e-11
6.30112e-11
6.17535e-11
6.04943e-11
5.92341e-11
5.7973e-11
5.67113e-11
5.54502e-11
5.41916e-11
6.42537e-11
6.30009e-11
6.17464e-11
6.04898e-11
5.92316e-11
5.79726e-11
5.6713e-11
5.54526e-11
5.4192e-11
5.29343e-11
6.29882e-11
6.17359e-11
6.04822e-11
5.92266e-11
5.79693e-11
5.6711e-11
5.54522e-11
5.41928e-11
5.29328e-11
5.16761e-11
6.1724e-11
6.04721e-11
5.9219e-11
5.79641e-11
5.67078e-11
5.54502e-11
5.41917e-11
5.29327e-11
5.16732e-11
5.04168e-11
6.0461e-11
5.9209e-11
5.79566e-11
5.67028e-11
5.54478e-11
5.41916e-11
5.29343e-11
5.1676e-11
5.04167e-11
4.9159e-11
7.18067e-11
7.05475e-11
6.92842e-11
6.802e-11
6.67556e-11
6.54914e-11
6.42277e-11
6.29648e-11
6.17029e-11
6.04421e-11
7.05472e-11
6.92901e-11
6.8029e-11
6.67658e-11
6.55021e-11
6.42385e-11
6.29753e-11
6.17127e-11
6.04512e-11
5.91903e-11
6.92839e-11
6.80287e-11
6.67702e-11
6.5509e-11
6.42465e-11
6.29838e-11
6.17214e-11
6.04595e-11
5.91985e-11
5.79382e-11
6.80199e-11
6.67656e-11
6.55088e-11
6.42498e-11
6.29891e-11
6.17275e-11
6.04659e-11
5.92048e-11
5.79444e-11
5.6685e-11
6.67556e-11
6.5502e-11
6.42463e-11
6.29888e-11
6.17299e-11
6.04698e-11
5.92092e-11
5.79488e-11
5.6689e-11
5.54307e-11
6.54914e-11
6.42385e-11
6.29838e-11
6.17273e-11
6.04696e-11
5.92111e-11
5.79518e-11
5.6692e-11
5.54328e-11
5.41755e-11
6.42277e-11
6.29753e-11
6.17214e-11
6.04659e-11
5.9209e-11
5.79514e-11
5.66934e-11
5.54347e-11
5.41759e-11
5.29195e-11
6.29648e-11
6.17128e-11
6.04596e-11
5.92048e-11
5.79487e-11
5.66917e-11
5.54344e-11
5.41765e-11
5.29183e-11
5.16627e-11
6.1703e-11
6.04512e-11
5.91985e-11
5.79444e-11
5.66891e-11
5.54327e-11
5.41757e-11
5.29181e-11
5.16603e-11
5.0405e-11
6.04421e-11
5.91903e-11
5.79382e-11
5.6685e-11
5.54307e-11
5.41755e-11
5.29195e-11
5.16626e-11
5.04049e-11
4.91485e-11
7.17714e-11
7.05138e-11
6.92528e-11
6.79909e-11
6.6729e-11
6.54672e-11
6.42058e-11
6.29451e-11
6.16852e-11
6.04261e-11
7.05135e-11
6.92575e-11
6.79983e-11
6.67374e-11
6.5476e-11
6.42147e-11
6.29537e-11
6.16932e-11
6.04336e-11
5.91746e-11
6.92525e-11
6.79981e-11
6.67409e-11
6.54817e-11
6.42213e-11
6.29607e-11
6.17004e-11
6.04405e-11
5.91813e-11
5.79227e-11
6.79909e-11
6.67372e-11
6.54815e-11
6.4224e-11
6.2965e-11
6.17054e-11
6.04457e-11
5.91865e-11
5.79278e-11
5.667e-11
6.6729e-11
6.54759e-11
6.42211e-11
6.29648e-11
6.17073e-11
6.04489e-11
5.91901e-11
5.79314e-11
5.66733e-11
5.54164e-11
6.54672e-11
6.42147e-11
6.29607e-11
6.17052e-11
6.04488e-11
5.91916e-11
5.79339e-11
5.66758e-11
5.54181e-11
5.4162e-11
6.42058e-11
6.29537e-11
6.17004e-11
6.04457e-11
5.91899e-11
5.79336e-11
5.66769e-11
5.54197e-11
5.41623e-11
5.2907e-11
6.29451e-11
6.16933e-11
6.04405e-11
5.91865e-11
5.79314e-11
5.66755e-11
5.54194e-11
5.41629e-11
5.2906e-11
5.16513e-11
6.16852e-11
6.04336e-11
5.91813e-11
5.79278e-11
5.66733e-11
5.5418e-11
5.41621e-11
5.29059e-11
5.16494e-11
5.03949e-11
6.04261e-11
5.91746e-11
5.79227e-11
5.667e-11
5.54164e-11
5.4162e-11
5.29069e-11
5.16512e-11
5.03949e-11
4.91395e-11
7.17418e-11
7.04855e-11
6.92263e-11
6.79665e-11
6.67066e-11
6.54468e-11
6.41874e-11
6.29284e-11
6.16702e-11
6.04127e-11
7.04852e-11
6.92302e-11
6.79726e-11
6.67135e-11
6.5454e-11
6.41946e-11
6.29355e-11
6.16768e-11
6.04188e-11
5.91613e-11
6.92261e-11
6.79724e-11
6.67164e-11
6.54587e-11
6.42001e-11
6.29413e-11
6.16827e-11
6.04245e-11
5.91668e-11
5.79097e-11
6.79665e-11
6.67134e-11
6.54585e-11
6.42023e-11
6.29448e-11
6.16868e-11
6.04288e-11
5.91711e-11
5.79139e-11
5.66573e-11
6.67066e-11
6.5454e-11
6.41999e-11
6.29446e-11
6.16884e-11
6.04314e-11
5.9174e-11
5.79168e-11
5.66601e-11
5.54043e-11
6.54468e-11
6.41946e-11