/*--------------------------------*- C++ -*----------------------------------*\
| =========                 |                                                 |
| \\      /  F ield         | foam-extend: Open Source CFD                    |
|  \\    /   O peration     | Version:     3.1                                |
|   \\  /    A nd           | Web:         http://www.extend-project.de       |
|    \\/     M anipulation  |                                                 |
\*---------------------------------------------------------------------------*/
FoamFile
{
    version     2.0;
    format      ascii;
    class       volVectorField;
    location    "0.3";
    object      cellMotionU;
}
// * * * * * * * * * * * * * * * * * * * * * * * * * * * * * * * * * * * * * //

dimensions      [0 1 -1 0 0 0 0];

internalField   nonuniform List<vector> 
14592
(
(-8.78716e-11 -8.90081e-11 -1.55488e-11)
(-2.5173e-10 -2.59941e-10 -4.62465e-11)
(-3.91977e-10 -4.21191e-10 -7.77339e-11)
(-5.07463e-10 -5.80146e-10 -1.13028e-10)
(-5.95203e-10 -7.42879e-10 -1.55329e-10)
(-6.49343e-10 -9.14254e-10 -2.08421e-10)
(-6.59788e-10 -1.09771e-09 -2.77094e-10)
(-6.10217e-10 -1.2949e-09 -3.67756e-10)
(-4.75439e-10 -1.5043e-09 -4.89137e-10)
(-2.17994e-10 -1.71918e-09 -6.53224e-10)
(2.15243e-10 -1.92381e-09 -8.76166e-10)
(8.94136e-10 -2.08749e-09 -1.17846e-09)
(1.89793e-09 -2.157e-09 -1.58254e-09)
(3.28335e-09 -2.05008e-09 -2.10201e-09)
(4.98442e-09 -1.67177e-09 -2.70685e-09)
(6.50063e-09 -1.07637e-09 -3.21525e-09)
(-2.64055e-10 -2.63573e-10 -4.5876e-11)
(-7.56815e-10 -7.69832e-10 -1.36422e-10)
(-1.17972e-09 -1.24744e-09 -2.2916e-10)
(-1.53008e-09 -1.71841e-09 -3.32881e-10)
(-1.80003e-09 -2.20085e-09 -4.56881e-10)
(-1.97363e-09 -2.7093e-09 -6.12052e-10)
(-2.02306e-09 -3.25465e-09 -8.12168e-10)
(-1.90321e-09 -3.8428e-09 -1.07558e-09)
(-1.54428e-09 -4.4714e-09 -1.42724e-09)
(-8.4212e-10 -5.12488e-09 -1.9016e-09)
(3.51554e-10 -5.76404e-09 -2.54545e-09)
(2.23383e-09 -6.31274e-09 -3.42008e-09)
(5.03271e-09 -6.63995e-09 -4.59832e-09)
(8.9239e-09 -6.55302e-09 -6.14548e-09)
(1.37587e-08 -5.85659e-09 -8.04432e-09)
(1.81682e-08 -4.72182e-09 -9.85336e-09)
(-4.41707e-10 -4.28422e-10 -7.40715e-11)
(-1.26707e-09 -1.25128e-09 -2.2012e-10)
(-1.97881e-09 -2.02771e-09 -3.6925e-10)
(-2.57496e-09 -2.79366e-09 -5.35313e-10)
(-3.04574e-09 -3.57885e-09 -7.32801e-10)
(-3.3696e-09 -4.40765e-09 -9.78488e-10)
(-3.50781e-09 -5.29957e-09 -1.29349e-09)
(-3.39706e-09 -6.26682e-09 -1.70553e-09)
(-2.93872e-09 -7.31239e-09 -2.25241e-09)
(-1.98523e-09 -8.42178e-09 -2.98611e-09)
(-3.24477e-10 -9.55313e-09 -3.97834e-09)
(2.32995e-09 -1.06198e-08 -5.32602e-09)
(6.32103e-09 -1.14738e-08 -7.15388e-09)
(1.19403e-08 -1.19071e-08 -9.60245e-09)
(1.90412e-08 -1.17398e-08 -1.27408e-08)
(2.56718e-08 -1.11524e-08 -1.59744e-08)
(-6.20853e-10 -5.77352e-10 -9.89385e-11)
(-1.78296e-09 -1.68628e-09 -2.93718e-10)
(-2.79138e-09 -2.73282e-09 -4.91734e-10)
(-3.64798e-09 -3.76561e-09 -7.10788e-10)
(-4.34529e-09 -4.82519e-09 -9.6922e-10)
(-4.8623e-09 -5.94577e-09 -1.28797e-09)
(-5.15896e-09 -7.15571e-09 -1.69289e-09)
(-5.16836e-09 -8.47696e-09 -2.21751e-09)
(-4.78562e-09 -9.92277e-09 -2.90698e-09)
(-3.85301e-09 -1.14925e-08 -3.82317e-09)
(-2.14196e-09 -1.31622e-08 -5.05171e-09)
(6.62752e-10 -1.48717e-08 -6.71052e-09)
(4.95566e-09 -1.65095e-08 -8.95778e-09)
(1.11129e-08 -1.7914e-08 -1.19863e-08)
(1.90714e-08 -1.89349e-08 -1.59232e-08)
(2.66961e-08 -1.95424e-08 -2.00506e-08)
(-8.00455e-10 -7.04825e-10 -1.19596e-10)
(-2.30163e-09 -2.05866e-09 -3.5461e-10)
(-3.61338e-09 -3.33638e-09 -5.92143e-10)
(-4.74471e-09 -4.59766e-09 -8.52645e-10)
(-5.69485e-09 -5.89245e-09 -1.15675e-09)
(-6.44976e-09 -7.26395e-09 -1.52753e-09)
(-6.97794e-09 -8.74895e-09 -1.99262e-09)
(-7.224e-09 -1.03804e-08 -2.58724e-09)
(-7.10035e-09 -1.21849e-08 -3.35758e-09)
(-6.47506e-09 -1.41827e-08 -4.36608e-09)
(-5.15652e-09 -1.63826e-08 -5.69813e-09)
(-2.87586e-09 -1.87746e-08 -7.47131e-09)
(7.2194e-10 -2.13185e-08 -9.84506e-09)
(6.02921e-09 -2.39294e-08 -1.30185e-08)
(1.31513e-08 -2.64625e-08 -1.71294e-08)
(2.03411e-08 -2.85076e-08 -2.14375e-08)
(-9.78263e-10 -8.06101e-10 -1.35572e-10)
(-2.8165e-09 -2.35442e-09 -4.01331e-10)
(-4.43391e-09 -3.81573e-09 -6.68084e-10)
(-5.84944e-09 -5.25825e-09 -9.57525e-10)
(-7.07258e-09 -6.73957e-09 -1.29107e-09)
(-8.10148e-09 -8.30931e-09 -1.69181e-09)
(-8.92066e-09 -1.00122e-08 -2.1866e-09)
(-9.49824e-09 -1.18889e-08 -2.80821e-09)
(-9.7819e-09 -1.39794e-08 -3.59826e-09)
(-9.69419e-09 -1.63235e-08 -4.61084e-09)
(-9.12592e-09 -1.89636e-08 -5.91767e-09)
(-7.92686e-09 -2.19459e-08 -7.61483e-09)
(-5.89147e-09 -2.5316e-08 -9.83042e-09)
(-2.7476e-09 -2.9094e-08 -1.27242e-08)
(1.7438e-09 -3.31632e-08 -1.64075e-08)
(6.80027e-09 -3.6674e-08 -2.02444e-08)
(-1.15101e-09 -8.7739e-10 -1.46731e-10)
(-3.31776e-09 -2.56262e-09 -4.33616e-10)
(-5.23626e-09 -4.15305e-09 -7.19258e-10)
(-6.93705e-09 -5.72266e-09 -1.02537e-09)
(-8.44186e-09 -7.33401e-09 -1.37277e-09)
(-9.76371e-09 -9.04075e-09 -1.78296e-09)
(-1.0907e-08 -1.08914e-08 -2.27974e-09)
(-1.18683e-08 -1.29315e-08 -2.89063e-09)
(-1.26382e-08 -1.5207e-08 -3.64844e-09)
(-1.32051e-08 -1.77682e-08 -4.59301e-09)
(-1.35615e-08 -2.06769e-08 -5.77334e-09)
(-1.37142e-08 -2.40155e-08 -7.24999e-09)
(-1.36919e-08 -2.79003e-08 -9.09809e-09)
(-1.3528e-08 -3.24814e-08 -1.14067e-08)
(-1.31554e-08 -3.78072e-08 -1.42302e-08)
(-1.22497e-08 -4.27952e-08 -1.70985e-08)
(-1.31468e-09 -9.16042e-10 -1.53333e-10)
(-3.79342e-09 -2.67566e-09 -4.52251e-10)
(-5.99989e-09 -4.33605e-09 -7.47229e-10)
(-7.97642e-09 -5.97428e-09 -1.05901e-09)
(-9.75724e-09 -7.6544e-09 -1.40671e-09)
(-1.13699e-08 -9.43139e-09 -1.80914e-09)
(-1.28378e-08 -1.13536e-08 -2.28575e-09)
(-1.41839e-08 -1.34653e-08 -2.85729e-09)
(-1.54362e-08 -1.58097e-08 -3.54601e-09)
(-1.66381e-08 -1.84323e-08 -4.37555e-09)
(-1.7864e-08 -2.13866e-08 -5.36984e-09)
(-1.92456e-08 -2.47445e-08 -6.55109e-09)
(-2.10099e-08 -2.86174e-08 -7.93725e-09)
(-2.35277e-08 -3.32069e-08 -9.54223e-09)
(-2.72908e-08 -3.88575e-08 -1.1374e-08)
(-3.20583e-08 -4.51468e-08 -1.31866e-08)
(-9.15676e-11 -9.29262e-11 -1.4825e-11)
(-2.62538e-10 -2.71498e-10 -4.40861e-11)
(-4.09562e-10 -4.40263e-10 -7.40609e-11)
(-5.31871e-10 -6.07181e-10 -1.07605e-10)
(-6.26822e-10 -7.78775e-10 -1.47742e-10)
(-6.88886e-10 -9.60269e-10 -1.98002e-10)
(-7.0829e-10 -1.15542e-09 -2.62859e-10)
(-6.69144e-10 -1.36588e-09 -3.48219e-10)
(-5.46947e-10 -1.58984e-09 -4.62079e-10)
(-3.05709e-10 -1.81933e-09 -6.15258e-10)
(1.0426e-10 -2.03563e-09 -8.21965e-10)
(7.44652e-10 -2.20173e-09 -1.09931e-09)
(1.67536e-09 -2.251e-09 -1.46287e-09)
(2.91026e-09 -2.07513e-09 -1.91068e-09)
(4.30735e-09 -1.53612e-09 -2.37875e-09)
(5.3644e-09 -6.70692e-10 -2.66723e-09)
(-2.75107e-10 -2.75194e-10 -4.37454e-11)
(-7.89159e-10 -8.04035e-10 -1.30046e-10)
(-1.23237e-09 -1.30397e-09 -2.18324e-10)
(-1.60323e-09 -1.79857e-09 -3.16906e-10)
(-1.89492e-09 -2.3073e-09 -4.34539e-10)
(-2.09252e-09 -2.84596e-09 -5.8142e-10)
(-2.16926e-09 -3.42631e-09 -7.7038e-10)
(-2.08142e-09 -4.05451e-09 -1.01832e-09)
(-1.76138e-09 -4.72779e-09 -1.34809e-09)
(-1.10948e-09 -5.42743e-09 -1.79071e-09)
(1.26277e-11 -6.10758e-09 -2.38741e-09)
(1.77853e-09 -6.6764e-09 -3.18949e-09)
(4.36119e-09 -6.97134e-09 -4.24939e-09)
(7.81291e-09 -6.73979e-09 -5.58422e-09)
(1.17583e-08 -5.69489e-09 -7.06472e-09)
(1.4793e-08 -3.99268e-09 -8.16678e-09)
(-4.60035e-10 -4.47295e-10 -7.06271e-11)
(-1.32071e-09 -1.30695e-09 -2.09812e-10)
(-2.06622e-09 -2.11971e-09 -3.5177e-10)
(-2.69659e-09 -2.92416e-09 -5.09588e-10)
(-3.2039e-09 -3.75236e-09 -6.96892e-10)
(-3.5684e-09 -4.63084e-09 -9.29417e-10)
(-3.75342e-09 -5.58045e-09 -1.22672e-09)
(-3.69817e-09 -6.6151e-09 -1.61437e-09)
(-3.30814e-09 -7.73717e-09 -2.1268e-09)
(-2.44325e-09 -8.9304e-09 -2.81077e-09)
(-9.07348e-10 -1.01454e-08 -3.72931e-09)
(1.55033e-09 -1.12795e-08 -4.96373e-09)
(5.19055e-09 -1.21495e-08 -6.60626e-09)
(1.01203e-08 -1.24802e-08 -8.71798e-09)
(1.58455e-08 -1.1982e-08 -1.11749e-08)
(2.03344e-08 -1.08033e-08 -1.32146e-08)
(-6.46275e-10 -6.0282e-10 -9.43256e-11)
(-1.85741e-09 -1.76139e-09 -2.79942e-10)
(-2.91284e-09 -2.85695e-09 -4.68414e-10)
(-3.8173e-09 -3.94179e-09 -6.7655e-10)
(-4.56608e-09 -5.05978e-09 -9.21607e-10)
(-5.14097e-09 -6.24795e-09 -1.22315e-09)
(-5.50515e-09 -7.53747e-09 -1.60509e-09)
(-5.59585e-09 -8.95263e-09 -2.09825e-09)
(-5.31452e-09 -1.05085e-08 -2.74358e-09)
(-4.51439e-09 -1.22045e-08 -3.59645e-09)
(-2.98785e-09 -1.40142e-08 -4.73174e-09)
(-4.63595e-10 -1.58673e-08 -6.24807e-09)
(3.35686e-09 -1.76258e-08 -8.26321e-09)
(8.63778e-09 -1.90636e-08 -1.08703e-08)
(1.49161e-08 -1.98877e-08 -1.39509e-08)
(1.99623e-08 -1.9934e-08 -1.65685e-08)
(-8.3267e-10 -7.35941e-10 -1.14015e-10)
(-2.39604e-09 -2.15038e-09 -3.37947e-10)
(-3.76757e-09 -3.48808e-09 -5.64002e-10)
(-4.96008e-09 -4.81312e-09 -8.11469e-10)
(-5.97647e-09 -6.17969e-09 -1.09975e-09)
(-6.80669e-09 -7.63446e-09 -1.45032e-09)
(-7.42375e-09 -9.21862e-09 -1.88873e-09)
(-7.77841e-09 -1.09684e-08 -2.44711e-09)
(-7.792e-09 -1.29151e-08 -3.16717e-09)
(-7.34719e-09 -1.50831e-08 -4.10422e-09)
(-6.27811e-09 -1.74853e-08 -5.33226e-09)
(-4.36438e-09 -2.01132e-08 -6.94855e-09)
(-1.34815e-09 -2.29157e-08 -9.07045e-09)
(2.9619e-09 -2.57512e-08 -1.17933e-08)
(8.30046e-09 -2.82859e-08 -1.49982e-08)
(1.28407e-08 -2.9833e-08 -1.77162e-08)
(-1.01685e-09 -8.41679e-10 -1.29228e-10)
(-2.9296e-09 -2.45942e-09 -3.82436e-10)
(-4.61881e-09 -3.98937e-09 -6.36265e-10)
(-6.10809e-09 -5.50506e-09 -9.11171e-10)
(-7.4116e-09 -7.06868e-09 -1.22725e-09)
(-8.5325e-09 -8.73465e-09 -1.60596e-09)
(-9.46141e-09 -1.05521e-08 -2.072e-09)
(-1.01744e-08 -1.25677e-08 -2.6551e-09)
(-1.06309e-08 -1.48276e-08 -3.39244e-09)
(-1.07718e-08 -1.73802e-08 -4.33133e-09)
(-1.05181e-08 -2.02798e-08 -5.53281e-09)
(-9.77141e-09 -2.35868e-08 -7.07459e-09)
(-8.41746e-09 -2.73559e-08 -9.04766e-09)
(-6.34693e-09 -3.15668e-08 -1.15201e-08)
(-3.58205e-09 -3.58759e-08 -1.43725e-08)
(-9.00691e-10 -3.89987e-08 -1.67526e-08)
(-1.19537e-09 -9.16138e-10 -1.39857e-10)
(-3.44784e-09 -2.67696e-09 -4.1317e-10)
(-5.44902e-09 -4.34218e-09 -6.84937e-10)
(-7.23491e-09 -5.99159e-09 -9.75639e-10)
(-8.83283e-09 -7.69264e-09 -1.30474e-09)
(-1.02617e-08 -9.50449e-09 -1.69219e-09)
(-1.15332e-08 -1.14809e-08 -2.15977e-09)
(-1.26537e-08 -1.36738e-08 -2.73223e-09)
(-1.36275e-08 -1.61374e-08 -3.43841e-09)
(-1.44645e-08 -1.89335e-08 -4.31242e-09)
(-1.51912e-08 -2.21406e-08 -5.39455e-09)
(-1.58692e-08 -2.58666e-08 -6.73154e-09)
(-1.66138e-08 -3.02566e-08 -8.37209e-09)
(-1.75829e-08 -3.54501e-08 -1.03404e-08)
(-1.88286e-08 -4.12761e-08 -1.25189e-08)
(-1.98333e-08 -4.60896e-08 -1.42561e-08)
(-1.36408e-09 -9.5654e-10 -1.46143e-10)
(-3.93832e-09 -2.79503e-09 -4.30907e-10)
(-6.23688e-09 -4.53365e-09 -7.11547e-10)
(-8.30828e-09 -6.25508e-09 -1.00759e-09)
(-1.01928e-08 -8.02909e-09 -1.33689e-09)
(-1.19248e-08 -9.9157e-09 -1.71687e-09)
(-1.35356e-08 -1.19691e-08 -2.16521e-09)
(-1.50587e-08 -1.42402e-08 -2.70033e-09)
(-1.65372e-08 -1.67807e-08 -3.34132e-09)
(-1.80367e-08 -1.96478e-08 -4.10746e-09)
(-1.96667e-08 -2.29128e-08 -5.01674e-09)
(-2.16129e-08 -2.66749e-08 -6.08321e-09)
(-2.41848e-08 -3.10825e-08 -7.31177e-09)
(-2.78582e-08 -3.63552e-08 -8.68653e-09)
(-3.31685e-08 -4.26914e-08 -1.01295e-08)
(-3.95167e-08 -4.91199e-08 -1.12904e-08)
(-9.51474e-11 -9.64582e-11 -1.35497e-11)
(-2.73055e-10 -2.819e-10 -4.02739e-11)
(-4.26818e-10 -4.57425e-10 -6.76002e-11)
(-5.5613e-10 -6.3142e-10 -9.80961e-11)
(-6.58816e-10 -8.10782e-10 -1.34435e-10)
(-7.29882e-10 -1.00102e-09 -1.79704e-10)
(-7.60259e-10 -1.20602e-09 -2.37703e-10)
(-7.35105e-10 -1.42742e-09 -3.13299e-10)
(-6.31687e-10 -1.66297e-09 -4.1281e-10)
(-4.17219e-10 -1.90376e-09 -5.44239e-10)
(-4.80584e-11 -2.12925e-09 -7.17085e-10)
(5.26089e-10 -2.29943e-09 -9.40557e-10)
(1.34508e-09 -2.34444e-09 -1.21776e-09)
(2.39414e-09 -2.15744e-09 -1.53097e-09)
(3.51729e-09 -1.62385e-09 -1.8144e-09)
(4.3102e-09 -8.42314e-10 -1.94555e-09)
(-2.85806e-10 -2.85651e-10 -3.99787e-11)
(-8.20586e-10 -8.34889e-10 -1.18795e-10)
(-1.28395e-09 -1.35484e-09 -1.99281e-10)
(-1.67578e-09 -1.87044e-09 -2.88897e-10)
(-1.99066e-09 -2.40228e-09 -3.95403e-10)
(-2.21527e-09 -2.96697e-09 -5.27695e-10)
(-2.32497e-09 -3.57676e-09 -6.96651e-10)
(-2.27913e-09 -4.23787e-09 -9.16189e-10)
(-2.01534e-09 -4.94647e-09 -1.20428e-09)
(-1.44321e-09 -5.68154e-09 -1.58379e-09)
(-4.41801e-10 -6.39223e-09 -2.08216e-09)
(1.12992e-09 -6.97889e-09 -2.72717e-09)
(3.38748e-09 -7.26961e-09 -3.53257e-09)
(6.29998e-09 -7.01237e-09 -4.46075e-09)
(9.44659e-09 -5.96805e-09 -5.34968e-09)
(1.1696e-08 -4.42003e-09 -5.85765e-09)
(-4.77729e-10 -4.64334e-10 -6.4541e-11)
(-1.37272e-09 -1.35714e-09 -1.91666e-10)
(-2.15161e-09 -2.20251e-09 -3.21085e-10)
(-2.81677e-09 -3.04122e-09 -4.64543e-10)
(-3.36261e-09 -3.90716e-09 -6.34135e-10)
(-3.7721e-09 -4.82829e-09 -8.43527e-10)
(-4.01204e-09 -5.82661e-09 -1.10928e-09)
(-4.0268e-09 -6.91608e-09 -1.45238e-09)
(-3.73009e-09 -8.09849e-09 -1.89968e-09)
(-2.99639e-09 -9.3543e-09 -2.48536e-09)
(-1.65612e-09 -1.06282e-08 -3.25077e-09)
(4.92318e-10 -1.18065e-08 -4.23976e-09)
(3.62334e-09 -1.26913e-08 -5.48064e-09)
(7.71757e-09 -1.29977e-08 -6.93679e-09)
(1.22066e-08 -1.24682e-08 -8.39966e-09)
(1.54655e-08 -1.13702e-08 -9.35405e-09)
(-6.70744e-10 -6.25785e-10 -8.61999e-11)
(-1.92934e-09 -1.82909e-09 -2.55723e-10)
(-3.03099e-09 -2.96869e-09 -4.27543e-10)
(-3.9837e-09 -4.09987e-09 -6.1674e-10)
(-4.78603e-09 -5.269e-09 -8.38605e-10)
(-5.42358e-09 -6.51533e-09 -1.11009e-09)
(-5.86436e-09 -7.87156e-09 -1.45143e-09)
(-6.05255e-09 -9.36304e-09 -1.88762e-09)
(-5.90052e-09 -1.10045e-08 -2.45032e-09)
(-5.27994e-09 -1.27932e-08 -3.1792e-09)
(-4.01598e-09 -1.46968e-08 -4.12218e-09)
(-1.8962e-09 -1.66332e-08 -5.33066e-09)
(1.27603e-09 -1.84439e-08 -6.84077e-09)
(5.5167e-09 -1.98747e-08 -8.61825e-09)
(1.02743e-08 -2.06227e-08 -1.04293e-08)
(1.38052e-08 -2.06164e-08 -1.1649e-08)
(-8.6357e-10 -7.63993e-10 -1.0419e-10)
(-2.48688e-09 -2.23313e-09 -3.08695e-10)
(-3.91686e-09 -3.62468e-09 -5.14779e-10)
(-5.17042e-09 -5.00647e-09 -7.39729e-10)
(-6.25472e-09 -6.43582e-09 -1.00071e-09)
(-7.16447e-09 -7.96233e-09 -1.31629e-09)
(-7.87882e-09 -9.62929e-09 -1.70795e-09)
(-8.35702e-09 -1.1475e-08 -2.2015e-09)
(-8.53335e-09 -1.35314e-08 -2.82857e-09)
(-8.31153e-09 -1.58221e-08 -3.62762e-09)
(-7.56123e-09 -1.83559e-08 -4.64358e-09)
(-6.12335e-09 -2.11133e-08 -5.92295e-09)
(-3.84194e-09 -2.40176e-08 -7.49516e-09)
(-6.69814e-10 -2.68775e-08 -9.31844e-09)
(3.04711e-09 -2.9298e-08 -1.11517e-08)
(5.98e-09 -3.06549e-08 -1.23683e-08)
(-1.0537e-09 -8.73811e-10 -1.18085e-10)
(-3.03796e-09 -2.55412e-09 -3.49336e-10)
(-4.7969e-09 -4.14579e-09 -5.80734e-10)
(-6.35907e-09 -5.72652e-09 -8.30635e-10)
(-7.74365e-09 -7.36233e-09 -1.11676e-09)
(-8.95953e-09 -9.11089e-09 -1.45766e-09)
(-1.00044e-08 -1.10245e-08 -1.87388e-09)
(-1.08641e-08 -1.31521e-08 -2.38903e-09)
(-1.15124e-08 -1.5542e-08 -3.03042e-09)
(-1.19122e-08 -1.82437e-08 -3.82923e-09)
(-1.20202e-08 -2.13092e-08 -4.81892e-09)
(-1.17954e-08 -2.47902e-08 -6.02944e-09)
(-1.12129e-08 -2.87137e-08 -7.46957e-09)
(-1.02792e-08 -3.29928e-08 -9.07974e-09)
(-9.06268e-09 -3.71759e-08 -1.06272e-08)
(-7.88182e-09 -4.00053e-08 -1.15833e-08)
(-1.23757e-09 -9.51119e-10 -1.27802e-10)
(-3.57193e-09 -2.78012e-09 -3.7741e-10)
(-5.65291e-09 -4.51257e-09 -6.25184e-10)
(-7.52215e-09 -6.2329e-09 -8.89453e-10)
(-9.21261e-09 -8.01285e-09 -1.18738e-09)
(-1.07497e-08 -9.915e-09 -1.53616e-09)
(-1.21528e-08 -1.19967e-08 -1.95376e-09)
(-1.34386e-08 -1.43132e-08 -2.45936e-09)
(-1.46266e-08 -1.69212e-08 -3.07322e-09)
(-1.5748e-08 -1.98848e-08 -3.81551e-09)
(-1.6863e-08 -2.32826e-08 -4.70345e-09)
(-1.80831e-08 -2.72157e-08 -5.74463e-09)
(-1.95944e-08 -3.18042e-08 -6.92176e-09)
(-2.16311e-08 -3.71172e-08 -8.15798e-09)
(-2.4239e-08 -4.28519e-08 -9.24676e-09)
(-2.64922e-08 -4.73509e-08 -9.79891e-09)
(-1.41092e-09 -9.9306e-10 -1.3355e-10)
(-4.07598e-09 -2.90283e-09 -3.93627e-10)
(-6.46295e-09 -4.71166e-09 -6.49512e-10)
(-8.62641e-09 -6.50735e-09 -9.1866e-10)
(-1.06129e-08 -8.3637e-09 -1.21686e-09)
(-1.24633e-08 -1.03448e-08 -1.55899e-09)
(-1.42172e-08 -1.25084e-08 -1.9595e-09)
(-1.59185e-08 -1.49088e-08 -2.43222e-09)
(-1.76245e-08 -1.76006e-08 -2.9894e-09)
(-1.94211e-08 -2.06435e-08 -3.63963e-09)
(-2.14467e-08 -2.41094e-08 -4.38403e-09)
(-2.39278e-08 -2.80925e-08 -5.20951e-09)
(-2.72256e-08 -3.27208e-08 -6.07818e-09)
(-3.18609e-08 -3.81542e-08 -6.9129e-09)
(-3.83327e-08 -4.44719e-08 -7.58837e-09)
(-4.56984e-08 -5.06636e-08 -7.94641e-09)
(-9.8457e-11 -9.95191e-11 -1.17783e-11)
(-2.82805e-10 -2.90911e-10 -3.49942e-11)
(-4.42913e-10 -4.72238e-10 -5.86806e-11)
(-5.7896e-10 -6.52252e-10 -8.50079e-11)
(-6.89288e-10 -8.38114e-10 -1.16208e-10)
(-7.69527e-10 -1.0355e-09 -1.54769e-10)
(-8.11442e-10 -1.24836e-09 -2.03631e-10)
(-8.01436e-10 -1.47816e-09 -2.66359e-10)
(-7.18724e-10 -1.7223e-09 -3.47174e-10)
(-5.33713e-10 -1.97118e-09 -4.5077e-10)
(-2.07952e-10 -2.20339e-09 -5.81412e-10)
(3.00946e-10 -2.37864e-09 -7.40603e-10)
(1.02285e-09 -2.4295e-09 -9.21963e-10)
(1.93714e-09 -2.25955e-09 -1.10232e-09)
(2.90527e-09 -1.77882e-09 -1.23362e-09)
(3.59084e-09 -1.09995e-09 -1.2654e-09)
(-2.95681e-10 -2.94724e-10 -3.47541e-11)
(-8.49692e-10 -8.61566e-10 -1.03232e-10)
(-1.332e-09 -1.39874e-09 -1.72987e-10)
(-1.74394e-09 -1.93221e-09 -2.50362e-10)
(-2.08164e-09 -2.48334e-09 -3.4181e-10)
(-2.3336e-09 -3.0693e-09 -4.54487e-10)
(-2.47767e-09 -3.70253e-09 -5.96827e-10)
(-2.47683e-09 -4.38883e-09 -7.78941e-10)
(-2.2743e-09 -5.12335e-09 -1.0128e-09)
(-1.78885e-09 -5.88305e-09 -1.31164e-09)
(-9.14322e-10 -6.61451e-09 -1.68755e-09)
(4.67815e-10 -7.21647e-09 -2.14529e-09)
(2.44473e-09 -7.52184e-09 -2.66865e-09)
(4.96913e-09 -7.30234e-09 -3.19694e-09)
(7.67255e-09 -6.37565e-09 -3.6024e-09)
(9.62873e-09 -5.05562e-09 -3.73886e-09)
(-4.94037e-10 -4.79073e-10 -5.61147e-11)
(-1.42077e-09 -1.40055e-09 -1.66549e-10)
(-2.23095e-09 -2.27397e-09 -2.78728e-10)
(-2.9293e-09 -3.14178e-09 -4.02602e-10)
(-3.51277e-09 -4.03923e-09 -5.4821e-10)
(-3.96733e-09 -4.99523e-09 -7.26558e-10)
(-4.26373e-09 -6.03203e-09 -9.5044e-10)
(-4.352e-09 -7.16329e-09 -1.23491e-09)
(-4.15463e-09 -8.38905e-09 -1.59768e-09)
(-3.56e-09 -9.68681e-09 -2.05788e-09)
(-2.42071e-09 -1.09966e-08 -2.63296e-09)
(-5.68664e-10 -1.22003e-08 -3.32974e-09)
(2.12838e-09 -1.31013e-08 -4.12599e-09)
(5.62655e-09 -1.34361e-08 -4.93806e-09)
(9.43672e-09 -1.30053e-08 -5.5876e-09)
(1.225e-08 -1.21146e-08 -5.85341e-09)
(-6.93234e-10 -6.45679e-10 -7.49387e-11)
(-1.99561e-09 -1.88767e-09 -2.22215e-10)
(-3.1404e-09 -3.06512e-09 -3.71157e-10)
(-4.13885e-09 -4.23564e-09 -5.3454e-10)
(-4.99298e-09 -5.44747e-09 -7.25032e-10)
(-5.6924e-09 -6.74116e-09 -9.56302e-10)
(-6.21034e-09 -8.15002e-09 -1.24375e-09)
(-6.49832e-09 -9.69903e-09 -1.60526e-09)
(-6.47962e-09 -1.1401e-08 -2.061e-09)
(-6.04288e-09 -1.32491e-08 -2.63217e-09)
(-5.03961e-09 -1.52042e-08 -3.33667e-09)
(-3.29639e-09 -1.7175e-08 -4.17909e-09)
(-6.65211e-10 -1.89951e-08 -5.12971e-09)
(2.8417e-09 -2.04148e-08 -6.08884e-09)
(6.76481e-09 -2.1171e-08 -6.85032e-09)
(9.73428e-09 -2.12497e-08 -7.16123e-09)
(-8.9188e-10 -7.88313e-10 -9.0581e-11)
(-2.57031e-09 -2.30472e-09 -2.68262e-10)
(-4.05453e-09 -3.74256e-09 -4.46918e-10)
(-5.36557e-09 -5.17252e-09 -6.41188e-10)
(-6.51479e-09 -6.65431e-09 -8.65299e-10)
(-7.50184e-09 -8.23908e-09 -1.13415e-09)
(-8.312e-09 -9.97123e-09 -1.46397e-09)
(-8.91301e-09 -1.18886e-08 -1.87284e-09)
(-9.25122e-09 -1.40212e-08 -2.38003e-09)
(-9.24833e-09 -1.63878e-08 -3.00411e-09)
(-8.80083e-09 -1.8988e-08 -3.75781e-09)
(-7.78773e-09 -2.17871e-08 -4.63682e-09)
(-6.09858e-09 -2.46872e-08 -5.59846e-09)
(-3.70954e-09 -2.74772e-08 -6.52754e-09)
(-8.715e-10 -2.97743e-08 -7.20971e-09)
(1.46208e-09 -3.10444e-08 -7.42468e-09)
(-1.08736e-09 -9.01632e-10 -1.02671e-10)
(-3.13712e-09 -2.6361e-09 -3.03588e-10)
(-4.96046e-09 -4.28078e-09 -5.04221e-10)
(-6.59069e-09 -5.91678e-09 -7.20069e-10)
(-8.05192e-09 -7.61281e-09 -9.65853e-10)
(-9.35857e-09 -9.42856e-09 -1.25631e-09)
(-1.05152e-08 -1.14174e-08 -1.60691e-09)
(-1.15165e-08 -1.36285e-08 -2.03355e-09)
(-1.23486e-08 -1.61078e-08 -2.55177e-09)
(-1.29915e-08 -1.88992e-08 -3.17369e-09)
(-1.34259e-08 -2.20438e-08 -3.90212e-09)
(-1.3642e-08 -2.55719e-08 -4.71873e-09)
(-1.36475e-08 -2.94759e-08 -5.56346e-09)
(-1.34556e-08 -3.36223e-08 -6.30552e-09)
(-1.30366e-08 -3.75384e-08 -6.73428e-09)
(-1.23854e-08 -4.00886e-08 -6.70766e-09)
(-1.27599e-09 -9.81435e-10 -1.11121e-10)
(-3.68506e-09 -2.86943e-09 -3.28018e-10)
(-5.83937e-09 -4.65968e-09 -5.42871e-10)
(-7.78585e-09 -6.44035e-09 -7.71194e-10)
(-9.56289e-09 -8.28601e-09 -1.02722e-09)
(-1.12018e-08 -1.02617e-08 -1.32454e-09)
(-1.27291e-08 -1.24261e-08 -1.67645e-09)
(-1.41705e-08 -1.48344e-08 -2.09534e-09)
(-1.55567e-08 -1.75413e-08 -2.59111e-09)
(-1.69343e-08 -2.06049e-08 -3.16769e-09)
(-1.8382e-08 -2.4091e-08 -3.81644e-09)
(-2.00323e-08 -2.80762e-08 -4.50473e-09)
(-2.20848e-08 -3.26357e-08 -5.15825e-09)
(-2.47537e-08 -3.77697e-08 -5.64016e-09)
(-2.79721e-08 -4.31198e-08 -5.75791e-09)
(-3.05618e-08 -4.71589e-08 -5.44325e-09)
(-1.45341e-09 -1.02475e-09 -1.16128e-10)
(-4.20106e-09 -2.99614e-09 -3.42157e-10)
(-6.66885e-09 -4.86546e-09 -5.64088e-10)
(-8.91711e-09 -6.7242e-09 -7.96732e-10)
(-1.09979e-08 -8.64947e-09 -1.05309e-09)
(-1.29585e-08 -1.07077e-08 -1.34497e-09)
(-1.48452e-08 -1.2958e-08 -1.6828e-09)
(-1.67105e-08 -1.54548e-08 -2.07486e-09)
(-1.86217e-08 -1.82507e-08 -2.52521e-09)
(-2.06769e-08 -2.13993e-08 -3.03006e-09)
(-2.30274e-08 -2.49598e-08 -3.5714e-09)
(-2.591e-08 -2.90011e-08 -4.1077e-09)
(-2.96823e-08 -3.36046e-08 -4.56216e-09)
(-3.48211e-08 -3.88553e-08 -4.81776e-09)
(-4.16952e-08 -4.47519e-08 -4.75429e-09)
(-4.91477e-08 -5.03714e-08 -4.42617e-09)
(-1.01336e-10 -1.02034e-10 -9.59452e-12)
(-2.91307e-10 -2.98299e-10 -2.84921e-11)
(-4.57004e-10 -4.84361e-10 -4.77192e-11)
(-5.99063e-10 -6.69221e-10 -6.90024e-11)
(-7.16317e-10 -8.60226e-10 -9.40598e-11)
(-8.04982e-10 -1.06314e-09 -1.24739e-10)
(-8.57602e-10 -1.28187e-09 -1.63113e-10)
(-8.61648e-10 -1.5177e-09 -2.11452e-10)
(-7.97875e-10 -1.76766e-09 -2.72099e-10)
(-6.38844e-10 -2.02166e-09 -3.4692e-10)
(-3.48908e-10 -2.25798e-09 -4.36204e-10)
(1.11455e-10 -2.43699e-09 -5.36538e-10)
(7.7145e-10 -2.49445e-09 -6.3744e-10)
(1.61734e-09 -2.34157e-09 -7.18069e-10)
(2.53182e-09 -1.89796e-09 -7.5027e-10)
(3.2048e-09 -1.26636e-09 -7.2688e-10)
(-3.04269e-10 -3.02168e-10 -2.83132e-11)
(-8.75045e-10 -8.83471e-10 -8.40391e-11)
(-1.37402e-09 -1.43467e-09 -1.40679e-10)
(-1.80388e-09 -1.98251e-09 -2.03229e-10)
(-2.16219e-09 -2.54892e-09 -2.76668e-10)
(-2.4392e-09 -3.1513e-09 -3.66332e-10)
(-2.61499e-09 -3.802e-09 -4.78109e-10)
(-2.65566e-09 -4.50627e-09 -6.1843e-10)
(-2.50879e-09 -5.25809e-09 -7.93817e-10)
(-2.09928e-09 -6.03285e-09 -1.00932e-09)
(-1.32881e-09 -6.77584e-09 -1.26546e-09)
(-8.67813e-11 -7.38674e-09 -1.55219e-09)
(1.71247e-09 -7.70598e-09 -1.8399e-09)
(4.04222e-09 -7.52472e-09 -2.07076e-09)
(6.59794e-09 -6.68729e-09 -2.16791e-09)
(8.53556e-09 -5.48865e-09 -2.11161e-09)
(-5.08191e-10 -4.91197e-10 -4.57046e-11)
(-1.46256e-09 -1.43619e-09 -1.35597e-10)
(-2.30019e-09 -2.33244e-09 -2.26681e-10)
(-3.02801e-09 -3.22368e-09 -3.26825e-10)
(-3.64532e-09 -4.14604e-09 -4.43777e-10)
(-4.14084e-09 -5.12886e-09 -5.85721e-10)
(-4.48886e-09 -6.19428e-09 -7.61478e-10)
(-4.64421e-09 -7.35496e-09 -9.80614e-10)
(-4.53597e-09 -8.609e-09 -1.25231e-09)
(-4.06153e-09 -9.93088e-09 -1.58329e-09)
(-3.08485e-09 -1.12573e-08 -1.97278e-09)
(-1.44886e-09 -1.24689e-08 -2.40391e-09)
(9.77506e-10 -1.33755e-08 -2.83081e-09)
(4.18231e-09 -1.37358e-08 -3.1676e-09)
(7.77406e-09 -1.33872e-08 -3.30431e-09)
(1.057e-08 -1.26279e-08 -3.21845e-09)
(-7.12715e-10 -6.62028e-10 -6.10465e-11)
(-2.05311e-09 -1.93575e-09 -1.80928e-10)
(-3.23562e-09 -3.14403e-09 -3.01873e-10)
(-4.27449e-09 -4.34621e-09 -4.33968e-10)
(-5.17486e-09 -5.59175e-09 -5.87014e-10)
(-5.92998e-09 -6.9218e-09 -7.71064e-10)
(-6.51762e-09 -8.36955e-09 -9.96772e-10)
(-6.89524e-09 -9.95857e-09 -1.27507e-09)
(-6.99407e-09 -1.16988e-08 -1.6159e-09)
(-6.71309e-09 -1.35786e-08 -2.02505e-09)
(-5.91626e-09 -1.55522e-08 -2.498e-09)
(-4.44124e-09 -1.75216e-08 -3.00925e-09)
(-2.13878e-09 -1.93192e-08 -3.49757e-09)
(1.0183e-09 -2.07102e-08 -3.85545e-09)
(4.68319e-09 -2.14699e-08 -3.95503e-09)
(7.6279e-09 -2.16095e-08 -3.79489e-09)
(-9.16343e-10 -8.08286e-10 -7.37926e-11)
(-2.64249e-09 -2.36349e-09 -2.18427e-10)
(-4.17399e-09 -3.83903e-09 -3.6352e-10)
(-5.53551e-09 -5.30776e-09 -5.20628e-10)
(-6.74225e-09 -6.83087e-09 -7.0074e-10)
(-7.79811e-09 -8.46035e-09 -9.14738e-10)
(-8.6936e-09 -1.02403e-08 -1.17376e-09)
(-9.40295e-09 -1.2207e-08 -1.48837e-09)
(-9.88075e-09 -1.43865e-08 -1.86705e-09)
(-1.00587e-08 -1.67906e-08 -2.31206e-09)
(-9.84389e-09 -1.9408e-08 -2.8122e-09)
(-9.12252e-09 -2.21894e-08 -3.3309e-09)
(-7.7764e-09 -2.50223e-08 -3.79064e-09)
(-5.7356e-09 -2.76939e-08 -4.06527e-09)
(-3.13909e-09 -2.98559e-08 -4.02107e-09)
(-8.15977e-10 -3.1053e-08 -3.71059e-09)
(-1.11636e-09 -9.24513e-10 -8.36407e-11)
(-3.22266e-09 -2.70339e-09 -2.47222e-10)
(-5.10188e-09 -4.39129e-09 -4.1018e-10)
(-6.79157e-09 -6.07175e-09 -5.84806e-10)
(-8.32012e-09 -7.81525e-09 -7.82377e-10)
(-9.7067e-09 -9.68243e-09 -1.01374e-09)
(-1.09613e-08 -1.17265e-08 -1.28912e-09)
(-1.20853e-08 -1.39944e-08 -1.61745e-09)
(-1.30722e-08 -1.65275e-08 -2.00385e-09)
(-1.39101e-08 -1.93607e-08 -2.44522e-09)
(-1.4586e-08 -2.25195e-08 -2.92207e-09)
(-1.50892e-08 -2.60108e-08 -3.38586e-09)
(-1.54075e-08 -2.9796e-08 -3.74352e-09)
(-1.54964e-08 -3.37161e-08 -3.85261e-09)
(-1.52203e-08 -3.7319e-08 -3.57632e-09)
(-1.45033e-08 -3.96081e-08 -3.0328e-09)
(-1.309e-09 -1.00636e-09 -9.05401e-11)
(-3.78238e-09 -2.94277e-09 -2.67146e-10)
(-6.00005e-09 -4.78015e-09 -4.41706e-10)
(-8.01363e-09 -6.60933e-09 -6.26493e-10)
(-9.86611e-09 -8.50693e-09 -8.32405e-10)
(-1.15937e-08 -1.05389e-08 -1.06939e-09)
(-1.32285e-08 -1.27638e-08 -1.34606e-09)
(-1.48022e-08 -1.52345e-08 -1.66861e-09)
(-1.63518e-08 -1.80004e-08 -2.03815e-09)
(-1.79289e-08 -2.11091e-08 -2.44586e-09)
(-1.96129e-08 -2.46075e-08 -2.86481e-09)
(-2.1525e-08 -2.85414e-08 -3.23783e-09)
(-2.38284e-08 -3.29404e-08 -3.4637e-09)
(-2.66589e-08 -3.77531e-08 -3.39497e-09)
(-2.98359e-08 -4.2611e-08 -2.89684e-09)
(-3.21755e-08 -4.61635e-08 -2.12124e-09)
(-1.48983e-09 -1.0508e-09 -9.46374e-11)
(-4.30835e-09 -3.07282e-09 -2.78702e-10)
(-6.84575e-09 -4.99142e-09 -4.59075e-10)
(-9.16725e-09 -6.90103e-09 -6.47421e-10)
(-1.13298e-08 -8.88069e-09 -8.53793e-10)
(-1.33854e-08 -1.0998e-08 -1.08667e-09)
(-1.53858e-08 -1.33119e-08 -1.35264e-09)
(-1.73885e-08 -1.58746e-08 -1.65498e-09)
(-1.94659e-08 -1.87331e-08 -1.99107e-09)
(-2.17179e-08 -2.19299e-08 -2.34768e-09)
(-2.42912e-08 -2.55045e-08 -2.69388e-09)
(-2.7403e-08 -2.94927e-08 -2.97137e-09)
(-3.13609e-08 -3.3925e-08 -3.08575e-09)
(-3.65434e-08 -3.88197e-08 -2.91247e-09)
(-4.3177e-08 -4.41276e-08 -2.36163e-09)
(-5.00964e-08 -4.90636e-08 -1.62537e-09)
(-1.0364e-10 -1.03954e-10 -7.08425e-12)
(-2.98117e-10 -3.0394e-10 -2.10239e-11)
(-4.68319e-10 -4.93584e-10 -3.51794e-11)
(-6.15262e-10 -6.82074e-10 -5.07807e-11)
(-7.38182e-10 -8.76863e-10 -6.90325e-11)
(-8.3377e-10 -1.08374e-09 -9.11816e-11)
(-8.95159e-10 -1.30655e-09 -1.18519e-10)
(-9.1057e-10 -1.54635e-09 -1.52308e-10)
(-8.61674e-10 -1.79985e-09 -1.93526e-10)
(-7.22013e-10 -2.05658e-09 -2.42304e-10)
(-4.56591e-10 -2.29467e-09 -2.96938e-10)
(-2.51866e-11 -2.47505e-09 -3.52341e-10)
(6.05464e-10 -2.53543e-09 -3.98393e-10)
(1.43155e-09 -2.38998e-09 -4.19909e-10)
(2.35021e-09 -1.9581e-09 -4.03256e-10)
(3.05143e-09 -1.33075e-09 -3.5966e-10)
(-3.11133e-10 -3.07862e-10 -2.09006e-11)
(-8.95339e-10 -9.00177e-10 -6.20228e-11)
(-1.40773e-09 -1.462e-09 -1.03714e-10)
(-1.85213e-09 -2.02061e-09 -1.49568e-10)
(-2.22727e-09 -2.59825e-09 -2.03074e-10)
(-2.52481e-09 -3.21241e-09 -2.67803e-10)
(-2.72651e-09 -3.87519e-09 -3.47425e-10)
(-2.80063e-09 -4.5912e-09 -4.4549e-10)
(-2.69731e-09 -5.35336e-09 -5.64598e-10)
(-2.34414e-09 -6.13578e-09 -7.04872e-10)
(-1.64447e-09 -6.88283e-09 -8.60975e-10)
(-4.85357e-10 -7.49525e-09 -1.01787e-09)
(1.23089e-09 -7.81841e-09 -1.14624e-09)
(3.50664e-09 -7.65272e-09 -1.20306e-09)
(6.08048e-09 -6.84761e-09 -1.15155e-09)
(8.11088e-09 -5.67646e-09 -1.02765e-09)
(-5.19494e-10 -5.00453e-10 -3.37495e-11)
(-1.49597e-09 -1.46337e-09 -1.00073e-10)
(-2.35566e-09 -2.37691e-09 -1.67127e-10)
(-3.10732e-09 -3.28569e-09 -2.40552e-10)
(-3.75217e-09 -4.22635e-09 -3.25771e-10)
(-4.28109e-09 -5.22836e-09 -4.28231e-10)
(-4.67105e-09 -6.31345e-09 -5.53457e-10)
(-4.88007e-09 -7.49314e-09 -7.06503e-10)
(-4.841e-09 -8.76355e-09 -8.90812e-10)
(-4.45489e-09 -1.00964e-08 -1.1055e-09)
(-3.58746e-09 -1.14259e-08 -1.34098e-09)
(-2.07704e-09 -1.26319e-08 -1.57235e-09)
(2.26904e-10 -1.35295e-08 -1.75301e-09)
(3.35725e-09 -1.3891e-08 -1.81704e-09)
(6.98762e-09 -1.35701e-08 -1.71246e-09)
(9.93723e-09 -1.2854e-08 -1.50543e-09)
(-7.28243e-10 -6.74514e-10 -4.50746e-11)
(-2.099e-09 -1.97243e-09 -1.33534e-10)
(-3.31176e-09 -3.20405e-09 -2.22583e-10)
(-4.38321e-09 -4.42991e-09 -3.19455e-10)
(-5.32103e-09 -5.70018e-09 -4.30984e-10)
(-6.1213e-09 -7.0562e-09 -5.63883e-10)
(-6.7651e-09 -8.53049e-09 -7.24669e-10)
(-7.21375e-09 -1.0145e-08 -9.18964e-10)
(-7.4027e-09 -1.19065e-08 -1.14974e-09)
(-7.23451e-09 -1.37986e-08 -1.41388e-09)
(-6.57357e-09 -1.57697e-08 -1.69632e-09)
(-5.24941e-09 -1.77168e-08 -1.96189e-09)
(-3.08644e-09 -1.94727e-08 -2.14793e-09)
(-2.56652e-12 -2.08155e-08 -2.16958e-09)
(3.72873e-09 -2.15474e-08 -1.96737e-09)
(6.86936e-09 -2.16975e-08 -1.64917e-09)
(-9.35808e-10 -8.23551e-10 -5.44875e-11)
(-2.69998e-09 -2.40833e-09 -1.61231e-10)
(-4.26927e-09 -3.91242e-09 -2.68071e-10)
(-5.67134e-09 -5.41013e-09 -3.83315e-10)
(-6.9244e-09 -6.96355e-09 -5.14591e-10)
(-8.03564e-09 -8.62484e-09 -6.69187e-10)
(-8.99923e-09 -1.04373e-08 -8.53713e-10)
(-9.79343e-09 -1.24349e-08 -1.0733e-09)
(-1.03767e-08 -1.46393e-08 -1.32922e-09)
(-1.0683e-08 -1.7055e-08 -1.61482e-09)
(-1.06168e-08 -1.96606e-08 -1.90853e-09)
(-1.00506e-08 -2.23943e-08 -2.16449e-09)
(-8.83203e-09 -2.51345e-08 -2.30461e-09)
(-6.82951e-09 -2.7673e-08 -2.22705e-09)
(-4.11304e-09 -2.96964e-08 -1.86959e-09)