/*--------------------------------*- C++ -*----------------------------------*\
| =========                 |                                                 |
| \\      /  F ield         | foam-extend: Open Source CFD                    |
|  \\    /   O peration     | Version:     3.1                                |
|   \\  /    A nd           | Web:         http://www.extend-project.de       |
|    \\/     M anipulation  |                                                 |
\*---------------------------------------------------------------------------*/
FoamFile
{
    version     2.0;
    format      ascii;
    class       volScalarField;
    location    "0.3";
    object      p;
}
// * * * * * * * * * * * * * * * * * * * * * * * * * * * * * * * * * * * * * //

dimensions      [0 2 -2 0 0 0 0];

internalField   nonuniform List<scalar> 
14592
(
0.160539
0.158987
0.156746
0.154173
0.151445
0.148636
0.14579
0.142934
0.140088
0.137269
0.134493
0.131781
0.129161
0.126679
0.124465
0.122888
0.161276
0.15929
0.156883
0.154238
0.15147
0.148637
0.145775
0.142906
0.14005
0.137221
0.134436
0.131713
0.12908
0.126581
0.124339
0.122711
0.162544
0.159974
0.157264
0.154452
0.151583
0.148686
0.145781
0.142881
0.139999
0.137145
0.134333
0.131578
0.128904
0.126347
0.124013
0.12222
0.163966
0.160819
0.157766
0.154747
0.151746
0.148762
0.145797
0.142853
0.139933
0.137043
0.134191
0.131388
0.12865
0.126005
0.123534
0.121497
0.165296
0.161651
0.158278
0.155055
0.151918
0.148842
0.145811
0.142816
0.139853
0.13692
0.13402
0.131157
0.128341
0.12559
0.12296
0.120649
0.166391
0.162358
0.158722
0.155322
0.152064
0.148904
0.145811
0.142766
0.139758
0.136779
0.133827
0.1309
0.128001
0.125134
0.122335
0.119737
0.167156
0.162857
0.159034
0.155506
0.152157
0.14893
0.145786
0.142698
0.139649
0.136627
0.133624
0.130633
0.12765
0.12467
0.121702
0.118817
0.167531
0.163097
0.159176
0.155578
0.152177
0.148909
0.145731
0.142611
0.139529
0.136469
0.133421
0.130372
0.127314
0.12423
0.121108
0.117947
0.161526
0.159882
0.157528
0.154846
0.152023
0.149137
0.146234
0.143341
0.140481
0.137671
0.134935
0.132302
0.129817
0.127553
0.125677
0.124547
0.162316
0.160206
0.157674
0.154915
0.15205
0.149139
0.146218
0.143313
0.140441
0.137621
0.134874
0.132228
0.129727
0.127441
0.125519
0.124297
0.163676
0.16094
0.158083
0.155144
0.152171
0.149191
0.146225
0.143285
0.140384
0.137537
0.134759
0.132075
0.129523
0.127162
0.12512
0.123688
0.165201
0.161846
0.158621
0.15546
0.152345
0.149273
0.146241
0.143253
0.140311
0.137423
0.134598
0.131856
0.129225
0.12675
0.124535
0.122809
0.166629
0.16274
0.159171
0.15579
0.152529
0.149357
0.146255
0.143212
0.140221
0.137284
0.134403
0.131589
0.128861
0.126251
0.123831
0.121774
0.167805
0.163498
0.159646
0.156077
0.152685
0.149422
0.146253
0.143155
0.140115
0.137125
0.134183
0.131291
0.128458
0.1257
0.123063
0.120659
0.168626
0.164035
0.159981
0.156274
0.152784
0.14945
0.146225
0.143079
0.139993
0.136953
0.133951
0.130981
0.128043
0.125137
0.122282
0.119532
0.16903
0.164293
0.160134
0.156351
0.152805
0.149427
0.146165
0.142984
0.13986
0.136776
0.133719
0.130678
0.127643
0.124603
0.121543
0.118455
0.162418
0.160695
0.158242
0.155464
0.152557
0.149603
0.146648
0.143722
0.140848
0.138047
0.135344
0.132774
0.130389
0.12827
0.126573
0.125585
0.163254
0.161038
0.158397
0.155537
0.152586
0.149605
0.146632
0.143692
0.140807
0.137994
0.135279
0.132695
0.130292
0.128145
0.126394
0.125295
0.164693
0.161815
0.158829
0.15578
0.152714
0.14966
0.146638
0.143662
0.140746
0.137903
0.135153
0.132526
0.130064
0.12783
0.125944
0.124619
0.166308
0.162774
0.159399
0.156114
0.152898
0.149745
0.146655
0.143627
0.140666
0.137777
0.134976
0.132282
0.129729
0.127367
0.125286
0.12365
0.167821
0.163721
0.159981
0.156463
0.153092
0.149834
0.146668
0.143581
0.140567
0.137624
0.134759
0.131984
0.12932
0.126802
0.124493
0.122508
0.169067
0.164525
0.160484
0.156766
0.153257
0.149902
0.146664
0.143518
0.140449
0.137449
0.134514
0.13165
0.128865
0.126178
0.123625
0.121275
0.169937
0.165093
0.160839
0.156974
0.153361
0.14993
0.146633
0.143436
0.140316
0.137259
0.134256
0.131302
0.128396
0.125539
0.12274
0.120024
0.170365
0.165367
0.161001
0.157056
0.153383
0.149905
0.146567
0.143331
0.140169
0.137063
0.133997
0.130962
0.127943
0.124929
0.121898
0.118819
0.163195
0.161405
0.158868
0.156008
0.153029
0.150016
0.147017
0.144062
0.141176
0.13838
0.135702
0.133179
0.130864
0.128836
0.127238
0.126313
0.164069
0.161764
0.15903
0.156085
0.153059
0.150018
0.147
0.144031
0.141132
0.138325
0.135633
0.133095
0.13076
0.128702
0.127046
0.126
0.165574
0.162576
0.159483
0.156338
0.153193
0.150076
0.147006
0.143999
0.141068
0.138227
0.135499
0.132913
0.130513
0.128361
0.126561
0.12528
0.167264
0.16358
0.160079
0.156688
0.153385
0.150164
0.147023
0.143961
0.140981
0.138092
0.135307
0.132649
0.13015
0.127858
0.125851
0.12425
0.168847
0.164572
0.160688
0.157053
0.153588
0.150256
0.147035
0.14391
0.140874
0.137926
0.135072
0.132324
0.129705
0.127245
0.124995
0.123036
0.170152
0.165414
0.161215
0.15737
0.15376
0.150327
0.14703
0.143842
0.140748
0.137737
0.134807
0.131961
0.129209
0.126566
0.124057
0.121722
0.171065
0.166009
0.161587
0.157588
0.153868
0.150355
0.146995
0.143753
0.140604
0.137531
0.134526
0.131582
0.128697
0.125869
0.123098
0.120387
0.171513
0.166297
0.161756
0.157674
0.153891
0.150328
0.146925
0.143641
0.140446
0.137319
0.134245
0.131211
0.128202
0.125202
0.122182
0.119095
0.163836
0.161993
0.159389
0.156462
0.153424
0.150363
0.147327
0.144349
0.141452
0.138658
0.135998
0.133507
0.131238
0.129267
0.127724
0.126826
0.164742
0.162365
0.159557
0.156542
0.153456
0.150365
0.14731
0.144317
0.141407
0.138601
0.135927
0.133419
0.131129
0.129126
0.127522
0.126498
0.166299
0.163206
0.160025
0.156805
0.153594
0.150425
0.147316
0.144283
0.141338
0.138498
0.135784
0.133227
0.130869
0.128767
0.127013
0.125749
0.16805
0.164246
0.160643
0.157167
0.153793
0.150516
0.147333
0.144242
0.141247
0.138356
0.135582
0.132947
0.130484
0.128235
0.126267
0.124678
0.16969
0.165274
0.161274
0.157545
0.154003
0.150611
0.147345
0.144188
0.141134
0.13818
0.135332
0.132603
0.130012
0.127586
0.125367
0.123415
0.171043
0.166147
0.16182
0.157873
0.15418
0.150683
0.147337
0.144115
0.140999
0.137978
0.13505
0.132217
0.129485
0.126867
0.124379
0.122046
0.171989
0.166764
0.162205
0.158098
0.154292
0.150711
0.1473
0.14402
0.140846
0.13776
0.134752
0.131813
0.12894
0.126128
0.123369
0.120652
0.172454
0.167062
0.162381
0.158187
0.154315
0.150682
0.147226
0.143902
0.140679
0.137535
0.134453
0.131418
0.128414
0.125419
0.1224
0.119299
0.16433
0.162447
0.159792
0.156814
0.153731
0.150633
0.147569
0.144572
0.141666
0.138874
0.136224
0.133754
0.131514
0.129576
0.128063
0.127178
0.165258
0.162828
0.159964
0.156896
0.153764
0.150635
0.147551
0.144539
0.14162
0.138815
0.136151
0.133664
0.131402
0.129431
0.127855
0.126841
0.166856
0.163691
0.160444
0.157165
0.153905
0.150696
0.147557
0.144504
0.141549
0.138708
0.136003
0.133464
0.131131
0.129059
0.12733
0.126072
0.168652
0.164758
0.161078
0.157537
0.154109
0.15079
0.147574
0.144461
0.141454
0.13856
0.135792
0.133173
0.130732
0.128508
0.12656
0.124974
0.170335
0.165813
0.161726
0.157925
0.154324
0.150886
0.147585
0.144404
0.141335
0.138376
0.135532
0.132814
0.13024
0.127834
0.125631
0.123677
0.171724
0.166709
0.162286
0.158261
0.154506
0.15096
0.147577
0.144328
0.141195
0.138166
0.135238
0.132411
0.129692
0.127087
0.124609
0.122272
0.172694
0.167343
0.162681
0.158492
0.154621
0.150988
0.147537
0.144229
0.141035
0.137938
0.134926
0.13199
0.129124
0.126319
0.123563
0.120839
0.173172
0.167649
0.162861
0.158583
0.154644
0.150958
0.14746
0.144105
0.140861
0.137703
0.134614
0.131577
0.128574
0.125581
0.122558
0.119445
0.164665
0.162755
0.160066
0.157054
0.153941
0.150817
0.147735
0.144725
0.141812
0.13902
0.136377
0.133919
0.131696
0.129777
0.128279
0.127399
0.16561
0.163143
0.160241
0.157138
0.153974
0.15082
0.147717
0.144692
0.141765
0.13896
0.136303
0.133827
0.131582
0.129628
0.128068
0.127057
0.167233
0.164021
0.16073
0.157411
0.154118
0.150882
0.147723
0.144656
0.141693
0.138851
0.136152
0.133623
0.131305
0.129248
0.127532
0.126276
0.169059
0.165106
0.161374
0.157789
0.154326
0.150977
0.147739
0.144611
0.141595
0.138699
0.135935
0.133324
0.130895
0.128685
0.126748
0.125161
0.170771
0.166179
0.162033
0.158184
0.154544
0.151075
0.14775
0.144553
0.141474
0.13851
0.135668
0.132956
0.130391
0.127996
0.1258
0.123844
0.172184
0.16709
0.162603
0.158526
0.154729
0.151149
0.147741
0.144474
0.141329
0.138294
0.135365
0.132542
0.129829
0.127232
0.124757
0.122416
0.173171
0.167735
0.163005
0.158761
0.154845
0.151177
0.1477
0.144372
0.141165
0.13806
0.135045
0.13211
0.129246
0.126444
0.123689
0.120959
0.173657
0.168047
0.163188
0.158853
0.154868
0.151146
0.147621
0.144245
0.140986
0.137819
0.134724
0.131685
0.128681
0.125688
0.122662
0.119539
0.164832
0.162905
0.160202
0.157174
0.154045
0.15091
0.147817
0.144801
0.141885
0.139093
0.136453
0.134
0.131785
0.129874
0.128384
0.127504
0.165787
0.1633
0.16038
0.157258
0.154079
0.150913
0.1478
0.144768
0.141838
0.139033
0.136377
0.133907
0.131669
0.129723
0.12817
0.127158
0.167421
0.164184
0.160871
0.157534
0.154224
0.150975
0.147805
0.144731
0.141765
0.138922
0.136225
0.133701
0.131389
0.129339
0.12763
0.126373
0.169261
0.165279
0.161521
0.157914
0.154433
0.15107
0.147822
0.144686
0.141666
0.138768
0.136005
0.133398
0.130975
0.128771
0.126838
0.12525
0.170987
0.166361
0.162185
0.158312
0.154653
0.151168
0.147832
0.144627
0.141542
0.138577
0.135735
0.133026
0.130465
0.128074
0.125881
0.123924
0.172411
0.167281
0.162759
0.158657
0.154839
0.151243
0.147823
0.144547
0.141396
0.138358
0.135428
0.132607
0.129896
0.127302
0.124829
0.122485
0.173406
0.167931
0.163165
0.158894
0.154956
0.151271
0.147781
0.144443
0.141229
0.138121
0.135104
0.132168
0.129306
0.126506
0.12375
0.121016
0.173896
0.168245
0.16335
0.158986
0.154979
0.151239
0.1477
0.144315
0.141048
0.137876
0.134778
0.131738
0.128734
0.12574
0.122712
0.119584
0.153649
0.15302
0.151753
0.150035
0.148001
0.145731
0.14328
0.140687
0.137979
0.135175
0.132284
0.129311
0.126258
0.123122
0.119904
0.116608
0.153817
0.153135
0.151823
0.150075
0.148021
0.145736
0.143274
0.140672
0.137958
0.135147
0.132251
0.129274
0.126218
0.12308
0.11986
0.116563
0.154143
0.153368
0.151977
0.150171
0.148076
0.145762
0.143278
0.14066
0.137933
0.135113
0.132209
0.129226
0.126164
0.123024
0.119803
0.116508
0.154539
0.153663
0.152179
0.150301
0.148152
0.145799
0.143287
0.140648
0.137905
0.135072
0.132157
0.129167
0.1261
0.122956
0.119737
0.116445
0.154928
0.15396
0.152387
0.150435
0.148231
0.145837
0.143294
0.140632
0.137871
0.135024
0.132099
0.129099
0.126027
0.122881
0.119663
0.116378
0.155257
0.154216
0.152567
0.150551
0.148297
0.145865
0.143294
0.14061
0.137831
0.13497
0.132034
0.129026
0.125948
0.122801
0.119586
0.116309
0.155487
0.154396
0.152692
0.150629
0.148337
0.145875
0.14328
0.140578
0.137784
0.134911
0.131965
0.12895
0.125868
0.12272
0.119509
0.116242
0.155595
0.154477
0.152743
0.150653
0.148339
0.145859
0.14325
0.140534
0.13773
0.134847
0.131893
0.128872
0.125788
0.122641
0.119436
0.116179
0.153908
0.153214
0.151895
0.150143
0.148086
0.1458
0.143338
0.140737
0.138025
0.135218
0.132327
0.129356
0.126304
0.123169
0.119949
0.116645
0.154114
0.153324
0.151954
0.150174
0.148098
0.145799
0.143326
0.140718
0.138
0.135188
0.132292
0.129316
0.126261
0.123123
0.119901
0.116597
0.154511
0.153576
0.152113
0.15027
0.148152
0.145822
0.143328
0.140704
0.137973
0.135151
0.132247
0.129265
0.126204
0.123064
0.119842
0.116539
0.15498
0.153895
0.152324
0.150403
0.148229
0.14586
0.143337
0.140691
0.137943
0.135108
0.132193
0.129203
0.126137
0.122993
0.119771
0.116473
0.155432
0.154217
0.152542
0.150543
0.148311
0.145899
0.143344
0.140675
0.137909
0.135059
0.132133
0.129133
0.126061
0.122915
0.119694
0.116403
0.15581
0.154492
0.152731
0.150663
0.148379
0.145928
0.143344
0.140652
0.137868
0.135004
0.132066
0.129057
0.125979
0.122831
0.119613
0.11633
0.156075
0.154686
0.152862
0.150743
0.14842
0.145938
0.14333
0.140619
0.13782
0.134943
0.131995
0.128978
0.125895
0.122746
0.119533
0.11626
0.156199
0.154774
0.152916
0.150769
0.148423
0.145922
0.143299
0.140575
0.137764
0.134878
0.131921
0.128898
0.125812
0.122664
0.119456
0.116194
0.154485
0.153678
0.15226
0.150431
0.148316
0.145988
0.143496
0.140875
0.13815
0.135338
0.132446
0.129478
0.12643
0.123297
0.120071
0.116747
0.154767
0.153809
0.152324
0.150462
0.148328
0.145986
0.143483
0.140855
0.138124
0.135306
0.132409
0.129436
0.126385
0.123249
0.120021
0.116696
0.155283
0.15411
0.152504
0.150568
0.148385
0.14601
0.143485
0.140839
0.138095
0.135266
0.132361
0.12938
0.126323
0.123184
0.119954
0.116632
0.155877
0.154488
0.152744
0.150715
0.14847
0.146051
0.143494
0.140825
0.138063
0.13522
0.132303
0.129313
0.126249
0.123105
0.119875
0.116558
0.15644
0.154865
0.15299
0.15087
0.148559
0.146093
0.143502
0.140808
0.138026
0.135167
0.132236
0.129236
0.126164
0.123016
0.119787
0.116477
0.156906
0.155187
0.153204
0.151003
0.148634
0.146125
0.143502
0.140784
0.137982
0.135107
0.132164
0.129152
0.126072
0.122921
0.119694
0.116394
0.157232
0.155412
0.153352
0.151093
0.148679
0.146137
0.143488
0.140749
0.137931
0.135042
0.132086
0.129065
0.125979
0.122825
0.119602
0.116313
0.157386
0.155516
0.153415
0.151124
0.148684
0.146121
0.143456
0.140703
0.137872
0.134972
0.132007
0.128978
0.125886
0.122732
0.119514
0.116238
0.155293
0.154353
0.152806
0.15087
0.148673
0.146282
0.143744
0.141093
0.13835
0.13553
0.132639
0.129678
0.126642
0.123516
0.120284
0.116927
0.155661
0.154513
0.152882
0.150906
0.148686
0.14628
0.143732
0.141072
0.138322
0.135496
0.132599
0.129634
0.126593
0.123463
0.120229
0.116872
0.156314
0.154878
0.153092
0.151027
0.148751
0.146308
0.143734
0.141055
0.138291
0.135453
0.132546
0.129572
0.126523
0.123388
0.120152
0.116798
0.157053
0.155332
0.153372
0.151196
0.148846
0.146353
0.143744
0.14104
0.138256
0.135401
0.132481
0.129495
0.126436
0.123295
0.120057
0.116709
0.157748
0.155782
0.153658
0.151372
0.148946
0.1464
0.143754
0.141021
0.138215
0.135342
0.132406
0.129406
0.126336
0.123188
0.11995
0.11661
0.158321
0.156163
0.153906
0.151525
0.149031
0.146437
0.143754
0.140995
0.138167
0.135275
0.132323
0.129309
0.126229
0.123074
0.119836
0.116507
0.15872
0.156432
0.154079
0.151628
0.149084
0.146451
0.14374
0.140958
0.13811
0.135202
0.132236
0.129209
0.126118
0.122958
0.119722
0.116407
0.158912
0.156557
0.154154
0.151665
0.149091
0.146436
0.143706
0.140907
0.138046
0.135125
0.132146
0.129108
0.12601
0.122847
0.119615
0.116314
0.156251
0.155175
0.153485
0.151425
0.149129
0.146662
0.144069
0.14138
0.138615
0.135787
0.132901
0.129957
0.126943
0.123839
0.12061
0.117214
0.156704
0.155366
0.153573
0.151467
0.149144
0.14666
0.144055
0.141357
0.138585
0.13575
0.132859
0.129909
0.126889
0.123781
0.12055
0.117154
0.157495
0.155799
0.153819
0.151607
0.149218
0.146692
0.144059
0.14134
0.138551
0.135703
0.132799
0.129837
0.126808
0.123691
0.120456
0.117063
0.158385
0.156335
0.154144
0.1518
0.149326
0.146743
0.14407
0.141323
0.138512
0.135645
0.132724
0.129747
0.126703
0.123575
0.120336
0.116949
0.159217
0.156865
0.154476
0.152002
0.149441
0.146797
0.144081
0.141302
0.138465
0.135577
0.132636
0.129641
0.126581
0.123441
0.120197
0.11682
0.159903
0.157314
0.154762
0.152177
0.149538
0.146839
0.144083
0.141272
0.138411
0.1355
0.13254
0.129525
0.126449
0.123297
0.120049
0.116684
0.160379
0.15763
0.154963
0.152297
0.149598
0.146856
0.144068
0.141231
0.138347
0.135416
0.132437
0.129405
0.126313
0.12315
0.119901
0.116551
0.16061
0.157779
0.155052
0.152341
0.149609
0.146841
0.144031
0.141176
0.138275
0.135328
0.132333
0.129286
0.126181
0.12301
0.119763
0.116429
0.157301
0.156093
0.154256
0.152064
0.14966
0.147109
0.144453
0.141722
0.138935
0.136102
0.133229
0.130314
0.127344
0.124289
0.121093
0.117661
0.157835
0.156314
0.154357
0.152112
0.149678
0.147108
0.14444
0.141699
0.138903
0.136063
0.133183
0.130261
0.127284
0.124223
0.121023
0.117594
0.158759
0.156816
0.154639
0.152271
0.149762
0.147144
0.144444
0.14168
0.138865
0.136009
0.133114
0.130178
0.127187
0.124112
0.120904
0.117477
0.159796
0.157435
0.155011
0.152491
0.149884
0.147202
0.144457
0.141661
0.138821
0.135942
0.133026
0.130069
0.127057
0.123964
0.120745
0.117323
0.160765
0.158046
0.15539
0.152721
0.150013
0.147263
0.144469
0.141637
0.138768
0.135863
0.132923
0.129941
0.126905
0.12379
0.120558
0.117143
0.161561
0.158564
0.155718
0.15292
0.150123
0.14731
0.144471
0.141603
0.138705
0.135774
0.132808
0.1298
0.126738
0.123601
0.120357
0.116953
0.162116
0.158928
0.155948
0.153056
0.150192
0.14733
0.144454
0.141557
0.138632
0.135677
0.132686
0.129653
0.126567
0.123409
0.120155
0.116765
0.162387
0.159102
0.156051
0.153108
0.150206
0.147314
0.144414
0.141495
0.13855
0.135575
0.132563
0.129508
0.126401
0.123227
0.119967
0.116595
0.158393
0.15706
0.15508
0.152756
0.15024
0.147601
0.144881
0.142107
0.139297
0.136464
0.133614
0.130747
0.127853
0.124897
0.1218
0.118369
0.159001
0.157311
0.155194
0.152809
0.150261
0.147601
0.144867
0.142082
0.139263
0.136422
0.133564
0.130689
0.127786
0.124821
0.121715
0.118286
0.160051
0.157878
0.155511
0.152988
0.150355
0.147642
0.144872
0.142061
0.139221
0.136362
0.133485
0.130591
0.127667
0.124679
0.121555
0.118125
0.161227
0.158578
0.155929
0.153234
0.150491
0.147706
0.144886
0.142039
0.13917
0.136284
0.133381
0.130459
0.127504
0.124485
0.121335
0.117903
0.162326
0.159268
0.156355
0.153491
0.150635
0.147773
0.1449
0.142012
0.139109
0.136192
0.133258
0.130302
0.12731
0.124254
0.121074
0.117643
0.16323
0.159853
0.156724
0.153714
0.150758
0.147826
0.144901
0.141974
0.139037
0.136087
0.13312
0.130128
0.127097
0.124001
0.120791
0.117363
0.16386
0.160265
0.156983
0.153867
0.150835
0.147849
0.144882
0.141921
0.138954
0.135974
0.132975
0.129947
0.126878
0.123744
0.120506
0.117084
0.164168
0.160463
0.1571
0.153926
0.150852
0.147832
0.144838
0.141851
0.13886
0.135855
0.132828
0.12977
0.126667
0.123501
0.120241
0.116831
0.159485
0.158036
0.15592
0.153468
0.150843
0.148117
0.145332
0.142516
0.139687
0.136859
0.134043
0.131246
0.128471
0.125702
0.122883
0.119714
0.160161
0.158314
0.156046
0.153527
0.150866
0.148118
0.145318
0.14249
0.139651
0.136814
0.133989
0.131182
0.128396
0.125612
0.122773
0.119586
0.161325
0.158943
0.156397
0.153724
0.15097
0.148163
0.145324
0.142467
0.139605
0.136746
0.133898
0.131067
0.128249
0.125428
0.122546
0.11933
0.16263
0.159718
0.156858
0.153996
0.15112
0.148233
0.145339
0.142442
0.139547
0.136657
0.133776
0.130907
0.128044
0.125169
0.122225
0.118969
0.163851
0.160483
0.15733
0.154279
0.151279
0.148307
0.145353
0.142411
0.139476
0.13655
0.13363
0.130715
0.127797
0.124856
0.121842
0.118543
0.164855
0.161131
0.157737
0.154525
0.151414
0.148365
0.145354
0.142367
0.139393
0.136428
0.133466
0.130501
0.127525
0.124514
0.121425
0.118082
0.165555
0.161589
0.158024
0.154694
0.151499
0.148389
0.145333
0.142306
0.139297
0.136295
0.133292
0.13028
0.127245
0.124167
0.121004
0.117618
0.165898
0.161809
0.158154
0.15476
0.151517
0.148371
0.145283
0.142229
0.139191
0.136158
0.133118
0.130062
0.126976
0.123838
0.120611
0.11719
0.16749
0.163054
0.159129
0.155525
0.152116
0.148837
0.145645
0.142507
0.139401
0.136312
0.133226
0.130131
0.127012
0.123847
0.120609
0.117229
0.167035
0.16273
0.158896
0.15535
0.151976
0.148717
0.14553
0.142388
0.13927
0.136162
0.133049
0.129919
0.126758
0.123546
0.120257
0.116847
0.166196
0.162153
0.158498
0.155069
0.151771
0.148557
0.145395
0.142262
0.139142
0.136022
0.132892
0.129739
0.126553
0.123316
0.120012
0.116618
0.165037
0.161379
0.15798
0.154716
0.151524
0.148375
0.145251
0.142137
0.139022
0.135899
0.132759
0.129593
0.126392
0.123145
0.119842
0.116472
0.163656
0.160492
0.157405
0.154335
0.151266
0.148193
0.145112
0.142022
0.138918
0.135797
0.132652
0.129479
0.126271
0.123021
0.119724
0.116377
0.162198
0.159608
0.156856
0.153984
0.151035
0.148034
0.144996
0.141929
0.138837
0.135719
0.132573
0.129397
0.126186
0.122936
0.119646
0.116316
0.160911
0.1589
0.156444
0.153731
0.150874
0.147926
0.144918
0.141868
0.138784
0.135669
0.132524
0.129346
0.126134
0.122886
0.1196
0.116281
0.160173
0.158589
0.156291
0.153644
0.15082
0.14789
0.144893
0.141848
0.138766
0.135652
0.132507
0.129329
0.126116
0.122867
0.119583
0.116267
0.168986
0.164247
0.160084
0.156295
0.15274
0.149349
0.146071
0.142869
0.139718
0.136599
0.133498
0.130398
0.127285
0.124135
0.120913
0.117524
0.168498
0.1639
0.159835
0.156108
0.152591
0.14922
0.145947
0.14274
0.139574
0.136431
0.133296
0.130154
0.126987
0.123772
0.120475
0.117038
0.167599
0.163282
0.159409
0.155808
0.152372
0.149049
0.145802
0.142603
0.139434
0.136277
0.13312
0.129949
0.126748
0.123499
0.120178
0.116755
0.166355
0.162452
0.158854
0.15543
0.152108
0.148855
0.145647
0.142468
0.139303
0.136141
0.132971
0.129782
0.126562
0.123298
0.119974
0.116576
0.164873
0.1615
0.158239
0.155023
0.151832
0.14866
0.145499
0.142345
0.13919
0.136029
0.132853
0.129654
0.126424
0.123154
0.119835
0.116463
0.16331
0.160553
0.157651
0.154647
0.151585
0.14849
0.145375
0.142245
0.139102
0.135943
0.132765
0.129562
0.126328
0.123056
0.119744
0.116391
0.161932
0.159795
0.15721
0.154376
0.151413
0.148375
0.145292
0.14218
0.139045
0.13589
0.132711
0.129506
0.12627
0.122999
0.119692
0.11635
0.16114
0.159461
0.157046
0.154283
0.151356
0.148337
0.145264
0.142158
0.139026
0.135871
0.132692
0.129486
0.126249
0.122978
0.119672
0.116334
0.17032
0.165319
0.160949
0.156997
0.153314
0.149822
0.146467
0.143207
0.140015
0.136869
0.133752
0.130648
0.127537
0.124394
0.121174
0.117756
0.169803
0.164952
0.160685
0.156799
0.153156
0.149685
0.146335
0.143068
0.139859
0.136685
0.133529
0.130374
0.1272
0.123979
0.12067
0.117203
0.16885
0.164297
0.160235
0.156482
0.152924
0.149504
0.14618
0.142922
0.139707
0.136516
0.133334
0.130145
0.126931
0.123668
0.12033
0.116878
0.167533
0.163418
0.159648
0.156082
0.152644
0.149298
0.146015
0.142777
0.139566
0.136369
0.133171
0.129961
0.126723
0.123441
0.120097
0.116673
0.165964
0.162411
0.158996
0.155652
0.152353
0.149091
0.145858
0.142646
0.139445
0.136246
0.133041
0.129819
0.126569
0.123279
0.119939
0.116543
0.164309
0.161408
0.158375
0.155254
0.152092
0.148912
0.145726
0.142539
0.13935
0.136154
0.132946
0.129718
0.126461
0.12317
0.119837
0.116462
0.162851
0.160606
0.157908
0.154968
0.15191
0.14879
0.145639
0.14247
0.139289
0.136096
0.132887
0.129656
0.126397
0.123106
0.119778
0.116416
0.162014
0.160253
0.157735
0.15487
0.15185
0.14875
0.14561
0.142447
0.139269
0.136076
0.132866
0.129634
0.126375
0.123083
0.119756
0.116398
0.171466
0.166247
0.161702
0.157611
0.153818
0.15024
0.146818
0.143509
0.14028
0.13711
0.133979
0.130868
0.127757
0.124615
0.121388
0.117939
0.170924
0.165862
0.161425
0.157404
0.153652
0.150096
0.146679
0.143361
0.140113
0.136911
0.133737
0.13057
0.127388
0.124158
0.120836
0.117338
0.169927
0.165176
0.160954
0.157072
0.153409
0.149906
0.146515
0.143205
0.139951
0.13673
0.133527
0.130321
0.127093
0.123818
0.120462
0.116983
0.168547
0.164255
0.160339
0.156654
0.153117
0.14969
0.146343
0.143053
0.139801
0.136572
0.13335
0.130121
0.126866
0.123568
0.120206
0.116758
0.166904
0.163201
0.159658
0.156203
0.152812
0.149474
0.146178
0.142914
0.139672
0.136442
0.133211
0.129967
0.126698
0.123391
0.120033
0.116615
0.165174
0.162152
0.159007
0.155787
0.152539
0.149286
0.146039
0.142802
0.139572
0.136343
0.133108
0.129857
0.126582
0.123272
0.119921
0.116526
0.163649
0.161313
0.158519
0.155488
0.152349
0.149158
0.145947
0.142729
0.139508
0.136282
0.133045
0.129791
0.126512
0.123202
0.119856
0.116475
0.162773
0.160944
0.158339
0.155386
0.152286
0.149116
0.145917
0.142705
0.139486
0.13626
0.133023
0.129768
0.126488
0.123177
0.119832
0.116455
0.172404
0.16701
0.162324
0.158122
0.154239
0.150591
0.147114
0.143763
0.140504
0.137313
0.134169
0.131053
0.127939
0.124793
0.121557
0.118079
0.171843
0.166611
0.162038
0.157907
0.154067
0.15044
0.146968
0.143607
0.140327
0.137103
0.133912
0.130735
0.127544
0.124306
0.120969
0.117445
0.170809
0.1659
0.161549
0.157563
0.153815
0.150243
0.146798
0.143445
0.140157
0.136911
0.133689
0.130469
0.127229
0.123942
0.12057
0.117069
0.16938
0.164946
0.160912
0.157129
0.153512
0.150018
0.146618
0.143285
0.14
0.136744
0.133502
0.130256
0.126987
0.123675
0.120296
0.116829
0.167678
0.163854
0.160206
0.156663
0.153196
0.149794
0.146446
0.143141
0.139865
0.136607
0.133354
0.130093
0.126808
0.123486
0.120112
0.116675
0.165886
0.162767
0.159532
0.156232
0.152913
0.1496
0.146302
0.143024
0.13976
0.136503
0.133246
0.129976
0.126684
0.123359
0.119992
0.11658
0.164307
0.161898
0.159027
0.155922
0.152716
0.149467
0.146207
0.142948
0.139693
0.136438
0.133179
0.129906
0.12661
0.123284
0.119923
0.116526
0.1634
0.161516
0.15884
0.155816
0.15265
0.149424
0.146175
0.142922
0.13967
0.136416
0.133156
0.129881
0.126584
0.123257
0.119897
0.116505
0.173121
0.167595
0.162803
0.158516
0.154565
0.150863
0.147344
0.143961
0.140679
0.137472
0.134318
0.131195
0.128077
0.124927
0.121682
0.118181
0.172545
0.167186
0.162509
0.158295
0.154388
0.150708
0.147193
0.1438
0.140495
0.137252
0.134049
0.130862
0.127664
0.124418
0.12107
0.117525
0.171483
0.166456
0.162007
0.157942
0.154129
0.150504
0.147017
0.143631
0.140318
0.137053
0.133816
0.130585
0.127335
0.124037
0.120653
0.117133
0.170016
0.165476
0.161354
0.157497
0.153818
0.150274
0.146832
0.143466
0.140155
0.136879
0.133621
0.130362
0.127082
0.123758
0.120367
0.116883
0.16827
0.164355
0.160629
0.157018
0.153493
0.150043
0.146656
0.143317
0.140015
0.136736
0.133466
0.130191
0.126894
0.12356
0.120173
0.116722
0.166431
0.16324
0.159938
0.156576
0.153203
0.149843
0.146508
0.143197
0.139906
0.136629
0.133353
0.130069
0.126764
0.123426
0.120047
0.116622
0.164812
0.162349
0.15942
0.156258
0.153
0.149707
0.146409
0.143118
0.139837
0.136561
0.133284
0.129995
0.126686
0.123348
0.119975
0.116566
0.163883
0.161957
0.159228
0.156149
0.152933
0.149663
0.146377
0.143092
0.139814
0.136538
0.13326
0.12997
0.126659
0.12332
0.119948
0.116543
0.173605
0.167992
0.163128
0.158785
0.154788
0.151049
0.147501
0.144096
0.140799
0.13758
0.134419
0.131292
0.128171
0.125017
0.121764
0.118248
0.173019
0.167575
0.162829
0.15856
0.154608
0.150891
0.147347
0.143932
0.14061
0.137355
0.134143
0.130949
0.127746
0.124494
0.121137
0.117578
0.171939
0.166833
0.162319
0.1582
0.154344
0.150683
0.147168
0.14376
0.140428
0.13715
0.133903
0.130664
0.127407
0.124102
0.120709
0.117177
0.170447
0.165836
0.161654
0.157747
0.154027
0.150449
0.146979
0.143591
0.140262
0.136972
0.133702
0.130434
0.127146
0.123815
0.120414
0.11692
0.168671
0.164695
0.160917
0.15726
0.153697
0.150214
0.146799
0.143439
0.140119
0.136825
0.133544
0.130258
0.126953
0.12361
0.120215
0.116755
0.166801
0.163561
0.160213
0.15681
0.153401
0.15001
0.146648
0.143315
0.140007
0.136715
0.133428
0.130133
0.126819
0.123473
0.120085
0.116651
0.165156
0.162655
0.159687
0.156487
0.153195
0.149872
0.146548
0.143235
0.139936
0.136646
0.133356
0.130057
0.126739
0.123392
0.12001
0.116593
0.16421
0.162256
0.159491
0.156376
0.153127
0.149826
0.146515
0.143209
0.139912
0.136622
0.133331
0.130031
0.126711
0.123363
0.119983
0.11657
0.173844
0.16819
0.163289
0.158917
0.154898
0.151141
0.14758
0.144164
0.140858
0.137635
0.134469
0.13134
0.128217
0.125062
0.121805
0.11828
0.173253
0.16777
0.162987
0.15869
0.154716
0.150981
0.147424
0.143997
0.140667
0.137406
0.13419
0.130993
0.127786
0.124531
0.12117
0.117603
0.172164
0.167021
0.162473
0.158328
0.15445
0.150772
0.147243
0.143823
0.140484
0.137199
0.133946
0.130703
0.127443
0.124134
0.120736
0.117198
0.170659
0.166015
0.161802
0.157871
0.15413
0.150535
0.147052
0.143653
0.140315
0.137018
0.133743
0.13047
0.127178
0.123843
0.120438
0.116938
0.168869
0.164864
0.161059
0.15738
0.153797
0.150299
0.14687
0.143499
0.14017
0.13687
0.133582
0.130292
0.126982
0.123635
0.120235
0.116771
0.166985
0.16372
0.16035
0.156927
0.1535
0.150093
0.146718
0.143375
0.140058
0.136758
0.133465
0.130165
0.126846
0.123496
0.120104
0.116666
0.165329
0.162808
0.15982
0.156602
0.153292
0.149954
0.146617
0.143294
0.139986
0.136688
0.133392
0.130088
0.126766
0.123414
0.120028
0.116607
0.164373
0.162402
0.159622
0.156489
0.153223
0.149908
0.146584
0.143267
0.139961
0.136664
0.133367
0.130061
0.126737
0.123385
0.12
0.116583
0.155568
0.154449
0.152712
0.150619
0.148301
0.145816
0.143201
0.14048
0.137669
0.134781
0.131822
0.128797
0.125711
0.122567
0.119368
0.116122
0.155408
0.154312
0.1526
0.150527
0.148223
0.145746
0.143135
0.140415
0.137604
0.134713
0.131752
0.128726
0.12564
0.122499
0.119307
0.116073
0.155128
0.154081
0.152419
0.150386
0.148112
0.145656
0.143058
0.140345
0.137537
0.134647
0.131686
0.12866
0.125576
0.122439
0.119255
0.11603
0.154756
0.153779
0.152188
0.150214
0.147981
0.145554
0.142975
0.140274
0.137472
0.134586
0.131627
0.128603
0.125521
0.122388
0.11921
0.115995
0.154331
0.153443
0.151938
0.15003
0.147847
0.145453
0.142895
0.140208
0.137415
0.134533
0.131577
0.128555
0.125476
0.122347
0.119175
0.115967
0.153909
0.15312
0.151703
0.149863
0.147726
0.145364
0.142827
0.140153
0.137367
0.134491
0.131537
0.128518
0.125442
0.122316
0.119148
0.115947
0.153566
0.152868
0.151526
0.14974
0.147639
0.1453
0.142779
0.140114
0.137335
0.134462
0.131511
0.128494
0.125419
0.122295
0.119131
0.115933
0.153392
0.152746
0.151445
0.149684
0.1476
0.145271
0.142757
0.140097
0.13732
0.134449
0.131499
0.128483
0.125409
0.122286
0.119123
0.115926
0.156172
0.154745
0.152885
0.150735
0.148384
0.145879
0.14325
0.140519
0.137703
0.134809
0.131847
0.128821
0.125733
0.122586
0.119385
0.116135
0.155994
0.154601
0.152769
0.150641
0.148305
0.145808
0.143184
0.140454
0.137636
0.134741
0.131776
0.128747
0.12566
0.122516
0.119322
0.116083
0.155679
0.154355
0.152581
0.150496
0.148192
0.145716
0.143105
0.140383
0.137568
0.134674
0.131709
0.12868
0.125594
0.122454
0.119267
0.116039
0.155256
0.154033
0.152341
0.150318
0.148058
0.145613
0.143021
0.140311
0.137503
0.134611
0.131648
0.128621
0.125537
0.122402
0.119221
0.116003
0.154768
0.153673
0.15208
0.15013
0.147921
0.14551
0.14294
0.140244
0.137444
0.134558
0.131597
0.128572
0.125491
0.122359
0.119185