/*--------------------------------*- C++ -*----------------------------------*\
| =========                 |                                                 |
| \\      /  F ield         | foam-extend: Open Source CFD                    |
|  \\    /   O peration     | Version:     3.1                                |
|   \\  /    A nd           | Web:         http://www.extend-project.de       |
|    \\/     M anipulation  |                                                 |
\*---------------------------------------------------------------------------*/
FoamFile
{
    version     2.0;
    format      ascii;
    class       surfaceScalarField;
    location    "0.3";
    object      phi;
}
// * * * * * * * * * * * * * * * * * * * * * * * * * * * * * * * * * * * * * //

dimensions      [0 3 -1 0 0 0 0];

internalField   nonuniform List<scalar> 
41600
(
4.79125e-06
-2.54878e-06
-2.7332e-06
2.92502e-06
6.42772e-06
-1.83457e-06
-3.1172e-06
3.3153e-06
7.32265e-06
-1.05316e-06
-2.80402e-06
2.96226e-06
7.80443e-06
-6.01218e-07
-2.41975e-06
2.53918e-06
8.05849e-06
-3.42481e-07
-2.07326e-06
2.16168e-06
8.18105e-06
-1.87637e-07
-1.7879e-06
1.85298e-06
8.22196e-06
-8.90152e-08
-1.57015e-06
1.61826e-06
8.20625e-06
-2.04327e-08
-1.42295e-06
1.45909e-06
8.14447e-06
3.35661e-08
-1.35025e-06
1.37846e-06
8.03706e-06
8.33253e-08
-1.36037e-06
1.38445e-06
7.87453e-06
1.37391e-07
-1.46998e-06
1.49512e-06
7.632e-06
2.04922e-07
-1.71028e-06
1.74789e-06
7.25015e-06
2.99001e-07
-2.13711e-06
2.21997e-06
6.56864e-06
4.46236e-07
-2.8404e-06
3.07568e-06
5.05478e-06
7.0262e-07
-3.86944e-06
4.68067e-06
1.03282e-06
-4.255e-06
7.32595e-06
8.19468e-06
-4.18511e-06
-3.63942e-06
3.91278e-06
9.47598e-06
-3.39906e-06
-4.30088e-06
4.58407e-06
1.03108e-05
-2.11183e-06
-3.87297e-06
4.09686e-06
1.08016e-05
-1.25959e-06
-3.32888e-06
3.49644e-06
1.10695e-05
-7.33744e-07
-2.84022e-06
2.96351e-06
1.1197e-05
-4.05505e-07
-2.43956e-06
2.52993e-06
1.12325e-05
-1.91031e-07
-2.13362e-06
2.20022e-06
1.12014e-05
-3.93214e-08
-1.92459e-06
1.97448e-06
1.11146e-05
8.15833e-08
-1.81638e-06
1.85518e-06
1.0971e-05
1.94138e-07
-1.81887e-06
1.85169e-06
1.07575e-05
3.1713e-07
-1.95268e-06
1.9864e-06
1.04423e-05
4.7087e-07
-2.25688e-06
2.30619e-06
9.95131e-06
6.83153e-07
-2.80033e-06
2.90714e-06
9.09846e-06
1.0002e-06
-3.68615e-06
3.98504e-06
7.29868e-06
1.50168e-06
-4.9181e-06
5.91882e-06
2.11905e-06
-5.04285e-06
8.63817e-06
1.07719e-05
-4.67891e-06
-3.9826e-06
4.30544e-06
1.11718e-05
-4.12505e-06
-4.70793e-06
5.03398e-06
1.15056e-05
-2.69733e-06
-4.1937e-06
4.44545e-06
1.17194e-05
-1.6585e-06
-3.56711e-06
3.75217e-06
1.18328e-05
-9.81486e-07
-3.0177e-06
3.15204e-06
1.18725e-05
-5.42573e-07
-2.57389e-06
2.67133e-06
1.18577e-05
-2.47438e-07
-2.23688e-06
2.3081e-06
1.1799e-05
-3.36606e-08
-2.00481e-06
2.05777e-06
1.16995e-05
1.40302e-07
-1.87866e-06
1.9195e-06
1.15547e-05
3.04817e-07
-1.86584e-06
1.89998e-06
1.13515e-05
4.8591e-07
-1.98438e-06
2.01873e-06
1.10619e-05
7.11544e-07
-2.26945e-06
2.31839e-06
1.06228e-05
1.01837e-06
-2.78293e-06
2.8868e-06
9.8752e-06
1.46126e-06
-3.61306e-06
3.89962e-06
8.31167e-06
2.12211e-06
-4.73225e-06
5.67536e-06
2.85296e-06
-4.68735e-06
8.03132e-06
1.30929e-05
-4.39955e-06
-4.28047e-06
4.65019e-06
1.26969e-05
-4.09485e-06
-5.03063e-06
5.39644e-06
1.24928e-05
-2.76965e-06
-4.42172e-06
4.69808e-06
1.23716e-05
-1.73675e-06
-3.71363e-06
3.91306e-06
1.22821e-05
-1.03449e-06
-3.10802e-06
3.25059e-06
1.2201e-05
-5.63659e-07
-2.62641e-06
2.72853e-06
1.21172e-05
-2.37429e-07
-2.26272e-06
2.33653e-06
1.20234e-05
5.8244e-09
-2.00954e-06
2.06384e-06
1.19129e-05
2.09509e-07
-1.86351e-06
1.90487e-06
1.17773e-05
4.0644e-07
-1.828e-06
1.86188e-06
1.16048e-05
6.25617e-07
-1.91605e-06
1.94892e-06
1.13737e-05
8.98092e-07
-2.15553e-06
2.20007e-06
1.10377e-05
1.26331e-06
-2.59627e-06
2.6873e-06
1.04758e-05
1.77635e-06
-3.30709e-06
3.55389e-06
9.28499e-06
2.50902e-06
-4.24297e-06
5.0469e-06
3.25e-06
-4.08128e-06
6.93613e-06
1.5066e-05
-3.62303e-06
-4.55575e-06
4.96798e-06
1.40583e-05
-3.49023e-06
-5.33057e-06
5.73365e-06
1.33979e-05
-2.40903e-06
-4.63261e-06
4.93244e-06
1.29709e-05
-1.52297e-06
-3.8455e-06
4.05873e-06
1.26857e-05
-8.99793e-07
-3.18423e-06
3.33467e-06
1.24844e-05
-4.68783e-07
-2.66437e-06
2.77086e-06
1.23309e-05
-1.60142e-07
-2.27277e-06
2.34891e-06
1.22028e-05
7.85499e-08
-1.9963e-06
2.05169e-06
1.20845e-05
2.8627e-07
-1.82698e-06
1.86856e-06
1.19644e-05
4.93328e-07
-1.76331e-06
1.79649e-06
1.18319e-05
7.27577e-07
-1.81249e-06
1.84306e-06
1.16726e-05
1.01903e-06
-1.9938e-06
2.03216e-06
1.14566e-05
1.40541e-06
-2.34362e-06
2.41747e-06
1.10995e-05
1.93754e-06
-2.91086e-06
3.10677e-06
1.02958e-05
2.67639e-06
-3.63925e-06
4.27556e-06
3.38108e-06
-3.38116e-06
5.67539e-06
1.6601e-05
-2.53156e-06
-4.78464e-06
5.23155e-06
1.51599e-05
-2.48349e-06
-5.58453e-06
6.01889e-06
1.41551e-05
-1.72412e-06
-4.81303e-06
5.13296e-06
1.34861e-05
-1.07918e-06
-3.95798e-06
4.18318e-06
1.30408e-05
-6.11838e-07
-3.24733e-06
3.40465e-06
1.2739e-05
-2.7733e-07
-2.69232e-06
2.80263e-06
1.25279e-05
-2.71432e-08
-2.2739e-06
2.35205e-06
1.23731e-05
1.77052e-07
-1.97386e-06
2.03018e-06
1.22528e-05
3.64903e-07
-1.77961e-06
1.82123e-06
1.21531e-05
5.60698e-07
-1.68499e-06
1.7173e-06
1.20652e-05
7.87476e-07
-1.69113e-06
1.71917e-06
1.19818e-05
1.07075e-06
-1.80849e-06
1.84017e-06
1.18888e-05
1.44292e-06
-2.05976e-06
2.11522e-06
1.17364e-05
1.94783e-06
-2.47427e-06
2.6164e-06
1.13129e-05
2.63796e-06
-2.98765e-06
3.44958e-06
3.28216e-06
-2.64268e-06
4.36015e-06
1.76462e-05
-1.25333e-06
-4.94739e-06
5.41873e-06
1.59301e-05
-1.22414e-06
-5.76682e-06
6.22358e-06
1.46989e-05
-8.27367e-07
-4.94258e-06
5.27705e-06
1.38667e-05
-4.80909e-07
-4.03732e-06
4.27125e-06
1.33119e-05
-2.1937e-07
-3.28901e-06
3.45136e-06
1.29417e-05
-2.0286e-08
-2.70596e-06
2.81906e-06
1.2693e-05
1.42046e-07
-2.26477e-06
2.34434e-06
1.25242e-05
2.89006e-07
-1.94322e-06
2.00006e-06
1.24095e-05
4.38097e-07
-1.72491e-06
1.76642e-06
1.23339e-05
6.04806e-07
-1.59939e-06
1.6308e-06
1.22911e-05
8.04698e-07
-1.56213e-06
1.58779e-06
1.22806e-05
1.05573e-06
-1.61516e-06
1.64068e-06
1.23038e-05
1.38129e-06
-1.76796e-06
1.80633e-06
1.23464e-05
1.81386e-06
-2.03093e-06
2.12237e-06
1.22938e-05
2.39562e-06
-2.33349e-06
2.62841e-06
2.95184e-06
-1.91071e-06
3.07162e-06
1.8175e-05
-5.03181e-06
5.51584e-06
1.11642e-07
1.63274e-05
-5.86016e-06
6.32859e-06
1.54994e-07
1.49873e-05
-5.00665e-06
5.34866e-06
1.70738e-07
1.4077e-05
-4.0731e-06
4.31152e-06
1.91015e-07
1.3471e-05
-3.30256e-06
3.46747e-06
2.21638e-07
1.30714e-05
-2.70156e-06
2.81602e-06
2.64911e-07
1.28101e-05
-2.24404e-06
2.32422e-06
3.23175e-07
1.26426e-05
-1.90513e-06
1.9621e-06
3.99504e-07
1.25415e-05
-1.66567e-06
1.7069e-06
4.97914e-07
1.24922e-05
-1.5118e-06
1.54241e-06
6.23516e-07
1.24904e-05
-1.43422e-06
1.458e-06
7.82745e-07
1.25416e-05
-1.42753e-06
1.4483e-06
9.83726e-07
1.2661e-05
-1.48911e-06
1.51409e-06
1.23699e-06
1.2869e-05
-1.61156e-06
1.66165e-06
1.55571e-06
1.31677e-05
-1.72123e-06
1.87241e-06
1.94572e-06
-1.25591e-06
1.91387e-06
2.29085e-06
5.06914e-06
-2.7282e-06
-2.46923e-06
6.74901e-06
-1.96712e-06
-2.82996e-06
7.63384e-06
-1.12948e-06
-2.55937e-06
8.07903e-06
-6.44184e-07
-2.22076e-06
8.28478e-06
-3.66151e-07
-1.91286e-06
8.3542e-06
-1.99591e-07
-1.65772e-06
8.33937e-06
-9.31489e-08
-1.46218e-06
8.26447e-06
-1.84606e-08
-1.32958e-06
8.13647e-06
4.14225e-08
-1.26367e-06
7.94893e-06
9.81753e-08
-1.27101e-06
7.68015e-06
1.62006e-07
-1.36321e-06
7.28412e-06
2.44772e-07
-1.55902e-06
6.66718e-06
3.64684e-07
-1.88486e-06
5.6325e-06
5.58483e-07
-2.36421e-06
3.79071e-06
8.95255e-07
-2.9229e-06
1.31252e-06
-2.78439e-06
8.6927e-06
-4.47411e-06
-3.27568e-06
9.96664e-06
-3.64418e-06
-3.89776e-06
1.07605e-05
-2.26497e-06
-3.53131e-06
1.11899e-05
-1.34973e-06
-3.05278e-06
1.13869e-05
-7.84492e-07
-2.61887e-06
1.14397e-05
-4.31205e-07
-2.26076e-06
1.13985e-05
-1.99502e-07
-1.98601e-06
1.12871e-05
-3.40654e-08
-1.79765e-06
1.11114e-05
1.00258e-07
-1.69952e-06
1.08612e-05
2.28867e-07
-1.69936e-06
1.05078e-05
3.7422e-07
-1.81145e-06
9.99242e-06
5.62248e-07
-2.059e-06
9.20048e-06
8.3017e-07
-2.47387e-06
7.91217e-06
1.23873e-06
-3.07809e-06
5.75345e-06
1.87443e-06
-3.73855e-06
2.57291e-06
-3.31278e-06
1.1453e-05
-4.99725e-06
-3.56856e-06
1.17783e-05
-4.42167e-06
-4.25568e-06
1.20296e-05
-2.89279e-06
-3.81724e-06
1.21572e-05
-1.77709e-06
-3.26731e-06
1.21842e-05
-1.04916e-06
-2.78008e-06
1.21393e-05
-5.76497e-07
-2.38369e-06
1.20414e-05
-2.57335e-07
-2.08112e-06
1.18983e-05
-2.38455e-08
-1.87197e-06
1.17076e-05
1.69829e-07
-1.75752e-06
1.14559e-05
3.58164e-07
-1.74345e-06
1.11153e-05
5.72368e-07
-1.84183e-06
1.06329e-05
8.48078e-07
-2.07289e-06
9.90971e-06
1.23406e-06
-2.46366e-06
8.76097e-06
1.80185e-06
-3.02744e-06
6.88362e-06
2.63467e-06
-3.61514e-06
3.45215e-06
-3.07879e-06
1.3943e-05
-4.69551e-06
-3.82012e-06
1.34148e-05
-4.38863e-06
-4.53546e-06
1.30877e-05
-2.97028e-06
-4.01717e-06
1.28545e-05
-1.86081e-06
-3.39667e-06
1.2663e-05
-1.10546e-06
-2.8602e-06
1.24885e-05
-5.98062e-07
-2.43036e-06
1.23171e-05
-2.44781e-07
-2.10391e-06
1.21379e-05
2.15039e-08
-1.87568e-06
1.19384e-05
2.48948e-07
-1.74316e-06
1.17023e-05
4.75016e-07
-1.70866e-06
1.14042e-05
7.34731e-07
-1.78032e-06
1.1002e-05
1.06793e-06
-1.97319e-06
1.04195e-05
1.52754e-06
-2.30723e-06
9.51531e-06
2.18632e-06
-2.78742e-06
8.05937e-06
3.11464e-06
-3.267e-06
3.94484e-06
-2.68944e-06
1.60608e-05
-3.86493e-06
-4.05312e-06
1.48773e-05
-3.74048e-06
-4.79524e-06
1.40597e-05
-2.58371e-06
-4.20152e-06
1.34976e-05
-1.63175e-06
-3.51246e-06
1.30961e-05
-9.61101e-07
-2.92713e-06
1.27931e-05
-4.96097e-07
-2.46336e-06
1.25486e-05
-1.61164e-07
-2.11186e-06
1.23352e-05
1.01084e-07
-1.86245e-06
1.21319e-05
3.34026e-07
-1.70882e-06
1.19199e-05
5.72748e-07
-1.64903e-06
1.16776e-05
8.51228e-07
-1.68669e-06
1.13742e-05
1.20857e-06
-1.83101e-06
1.09562e-05
1.69637e-06
-2.09443e-06
1.03228e-05
2.3835e-06
-2.47466e-06
9.30475e-06
3.32837e-06
-2.8349e-06
4.12329e-06
-2.2446e-06
1.77086e-05
-2.70019e-06
-4.24727e-06
1.6061e-05
-2.66208e-06
-5.01531e-06
1.48732e-05
-1.84973e-06
-4.3592e-06
1.4051e-05
-1.15649e-06
-3.61105e-06
1.34779e-05
-6.53034e-07
-2.98228e-06
1.30681e-05
-2.91393e-07
-2.48722e-06
1.27634e-05
-1.88536e-08
-2.11156e-06
1.25246e-05
2.06808e-07
-1.84073e-06
1.23244e-05
4.18944e-07
-1.66437e-06
1.21428e-05
6.4612e-07
-1.57673e-06
1.19625e-05
9.17111e-07
-1.57672e-06
1.1764e-05
1.26609e-06
-1.66757e-06
1.1516e-05
1.73895e-06
-1.85428e-06
1.11557e-05
2.3976e-06
-2.12808e-06
1.05686e-05
3.29326e-06
-2.36543e-06
4.03102e-06
-1.7746e-06
1.88308e-05
-1.33774e-06
-4.38547e-06
1.68888e-05
-1.31357e-06
-5.17329e-06
1.54576e-05
-8.88867e-07
-4.47232e-06
1.44602e-05
-5.1596e-07
-3.68038e-06
1.37699e-05
-2.3343e-07
-3.01833e-06
1.32878e-05
-1.70689e-08
-2.4982e-06
1.29448e-05
1.61319e-07
-2.10191e-06
1.26942e-05
3.25608e-07
-1.81143e-06
1.25053e-05
4.95993e-07
-1.61306e-06
1.23582e-05
6.91341e-07
-1.49753e-06
1.22405e-05
9.32028e-07
-1.4594e-06
1.21441e-05
1.24354e-06
-1.4962e-06
1.20595e-05
1.66148e-06
-1.60582e-06
1.19635e-05
2.23601e-06
-1.77339e-06
1.18003e-05
3.01291e-06
-1.88995e-06
3.67742e-06
-1.30531e-06
1.93985e-05
-4.4571e-06
1.16485e-07
1.73158e-05
-5.25402e-06
1.63022e-07
1.57677e-05
-4.52798e-06
1.80542e-07
1.46865e-05
-3.71122e-06
2.03351e-07
1.3942e-05
-3.02939e-06
2.37899e-07
1.34294e-05
-2.49303e-06
2.86985e-07
1.30749e-05
-2.08179e-06
3.5361e-07
1.28289e-05
-1.7753e-06
4.41815e-07
1.26596e-05
-1.5575e-06
5.57067e-07
1.25487e-05
-1.41625e-06
7.06676e-07
1.24885e-05
-1.34247e-06
9.00511e-07
1.24809e-05
-1.32867e-06
1.15226e-06
1.25375e-05
-1.36609e-06
1.48186e-06
1.26784e-05
-1.43395e-06
1.91748e-06
1.29342e-05
-1.43972e-06
2.47562e-06
-8.88237e-07
2.99236e-06
5.3096e-06
-2.88229e-06
-2.1454e-06
7.02977e-06
-2.08189e-06
-2.46823e-06
7.90811e-06
-1.19595e-06
-2.24177e-06
8.32285e-06
-6.8176e-07
-1.95374e-06
8.4869e-06
-3.8688e-07
-1.69003e-06
8.50953e-06
-2.09997e-07
-1.47035e-06
8.44503e-06
-9.65751e-08
-1.30111e-06
8.31729e-06
-1.63604e-08
-1.18548e-06
8.13107e-06
4.89067e-08
-1.12635e-06
7.87602e-06
1.12041e-07
-1.128e-06
7.5251e-06
1.84609e-07
-1.19691e-06
7.02716e-06
2.80452e-07
-1.34153e-06
6.29072e-06
4.20908e-07
-1.56932e-06
5.1537e-06
6.46585e-07
-1.87378e-06
3.37242e-06
1.02551e-06
-2.16713e-06
1.46205e-06
-1.91954e-06
9.12286e-06
-4.72231e-06
-2.83757e-06
1.03946e-05
-3.85659e-06
-3.39483e-06
1.11563e-05
-2.39842e-06
-3.09047e-06
1.15343e-05
-1.42858e-06
-2.68404e-06
1.16702e-05
-8.28921e-07
-2.31265e-06
1.16573e-05
-4.53543e-07
-2.00438e-06
1.15478e-05
-2.0646e-07
-1.76663e-06
1.13649e-05
-2.86186e-08
-1.60242e-06
1.1111e-05
1.17916e-07
-1.51471e-06
1.07711e-05
2.60995e-07
-1.5084e-06
1.03096e-05
4.25941e-07
-1.59129e-06
9.6621e-06
6.42507e-07
-1.77351e-06
8.71907e-06
9.53055e-07
-2.06299e-06
7.31022e-06
1.42298e-06
-2.44563e-06
5.24991e-06
2.12942e-06
-2.78216e-06
2.82424e-06
-2.28773e-06
1.20407e-05
-5.27064e-06
-3.08019e-06
1.23063e-05
-4.67891e-06
-3.69897e-06
1.24901e-05
-3.06325e-06
-3.33617e-06
1.25449e-05
-1.88085e-06
-2.86987e-06
1.24976e-05
-1.10837e-06
-2.45326e-06
1.23785e-05
-6.0589e-07
-2.11226e-06
1.22067e-05
-2.65244e-07
-1.85056e-06
1.19884e-05
-1.39489e-08
-1.66833e-06
1.17175e-05
1.97662e-07
-1.56642e-06
1.13758e-05
4.0739e-07
-1.54806e-06
1.09287e-05
6.50434e-07
-1.61931e-06
1.0319e-05
9.67502e-07
-1.78815e-06
9.45423e-06
1.41361e-06
-2.05944e-06
8.1991e-06
2.06464e-06
-2.41399e-06
6.42921e-06
2.98691e-06
-2.70274e-06
3.77991e-06
-2.12703e-06
1.46762e-05
-4.94967e-06
-3.28668e-06
1.40393e-05
-4.64358e-06
-3.93388e-06
1.36098e-05
-3.14533e-06
-3.50556e-06
1.32816e-05
-1.96934e-06
-2.98005e-06
1.30023e-05
-1.16746e-06
-2.52175e-06
1.27459e-05
-6.27676e-07
-2.15222e-06
1.24969e-05
-2.5013e-07
-1.86998e-06
1.22417e-05
3.69493e-08
-1.67134e-06
1.19639e-05
2.86084e-07
-1.55381e-06
1.16425e-05
5.38303e-07
-1.51816e-06
1.12468e-05
8.33323e-07
-1.56751e-06
1.0731e-05
1.2167e-06
-1.70657e-06
1.00256e-05
1.74816e-06
-1.93644e-06
9.03338e-06
2.50451e-06
-2.23506e-06
7.67733e-06
3.53478e-06
-2.45881e-06
4.32946e-06
-1.86013e-06
1.69186e-05
-4.07259e-06
-3.4783e-06
1.55893e-05
-3.9577e-06
-4.15175e-06
1.46399e-05
-2.73612e-06
-3.66134e-06
1.39631e-05
-1.72682e-06
-3.07821e-06
1.34615e-05
-1.01446e-06
-2.57848e-06
1.30696e-05
-5.19258e-07
-2.17994e-06
1.27444e-05
-1.60665e-07
-1.87613e-06
1.2455e-05
1.22983e-07
-1.65903e-06
1.21768e-05
3.78944e-07
-1.5235e-06
1.18864e-05
6.46154e-07
-1.46653e-06
1.1558e-05
9.6326e-07
-1.48814e-06
1.11578e-05
1.37528e-06
-1.58944e-06
1.06386e-05
1.94078e-06
-1.7679e-06
9.93586e-06
2.73268e-06
-2.00003e-06
9.00333e-06
3.78641e-06
-2.154e-06
4.54189e-06
-1.55786e-06
1.86637e-05
-2.84486e-06
-3.63827e-06
1.68441e-05
-2.81699e-06
-4.3364e-06
1.55025e-05
-1.95917e-06
-3.79453e-06
1.45501e-05
-1.22383e-06
-3.16166e-06
1.38669e-05
-6.88526e-07
-2.62499e-06
1.33627e-05
-3.02666e-07
-2.19966e-06
1.29754e-05
-9.89774e-09
-1.875e-06
1.26617e-05
2.35389e-07
-1.63942e-06
1.23908e-05
4.69754e-07
-1.48427e-06
1.21387e-05
7.25268e-07
-1.40379e-06
1.18848e-05
1.03505e-06
-1.39464e-06
1.16079e-05
1.43893e-06
-1.45428e-06
1.12815e-05
1.98968e-06
-1.57682e-06
1.08705e-05
2.75372e-06
-1.73813e-06
1.03519e-05
3.76066e-06
-1.82101e-06
4.46285e-06
-1.23959e-06
1.98522e-05
-1.40996e-06
-3.75223e-06
1.77218e-05
-1.39086e-06
-4.46894e-06
1.61224e-05
-9.42106e-07
-3.88999e-06
1.49844e-05
-5.46028e-07
-3.22016e-06
1.41775e-05
-2.44856e-07
-2.65514e-06
1.35978e-05
-1.29164e-08
-2.20825e-06
1.31715e-05
1.80164e-07
-1.8657e-06
1.28481e-05
3.60433e-07
-1.61306e-06
1.25933e-05
5.5042e-07
-1.43892e-06
1.23841e-05
7.71767e-07
-1.33486e-06
1.22058e-05
1.04849e-06
-1.29448e-06
1.20493e-05
1.41104e-06
-1.31186e-06
1.19097e-05
1.90143e-06
-1.37791e-06
1.1783e-05
2.57522e-06
-1.46821e-06
1.16729e-05
3.46213e-06
-1.48132e-06
4.10845e-06
-9.21636e-07
2.04535e-05
-3.81126e-06
1.21055e-07
1.81746e-05
-4.53654e-06
1.70615e-07
1.64514e-05
-3.93676e-06
1.89838e-07
1.52249e-05
-3.24588e-06
2.15057e-07
1.43613e-05
-2.66388e-06
2.53331e-07
1.37503e-05
-2.20292e-06
3.07915e-07
1.33136e-05
-1.84732e-06
3.82425e-07
1.29977e-05
-1.58071e-06
4.81767e-07
1.27677e-05
-1.38974e-06
6.12664e-07
1.26028e-05
-1.26385e-06
7.84232e-07
1.2494e-05
-1.19414e-06
1.00892e-06
1.2444e-05
-1.17169e-06
1.30409e-06
1.24691e-05
-1.1844e-06
1.69467e-06
1.26037e-05
-1.20742e-06
2.21403e-06
1.29117e-05
-1.15688e-06
2.8713e-06
-6.4262e-07
3.43031e-06
5.51139e-06
-3.0108e-06
-1.77298e-06
7.2671e-06
-2.17824e-06
-2.0457e-06
8.14151e-06
-1.252e-06
-1.86418e-06
8.53155e-06
-7.13524e-07
-1.63025e-06
8.66082e-06
-4.0441e-07
-1.4149e-06
8.64387e-06
-2.18744e-07
-1.23465e-06
8.53716e-06
-9.93341e-08
-1.09507e-06
8.36478e-06
-1.43433e-08
-9.98751e-07
8.13051e-06
5.55759e-08
-9.47663e-07
7.82248e-06
1.24133e-07
-9.44101e-07
7.41252e-06
2.03859e-07
-9.90812e-07
6.85117e-06
3.09786e-07
-1.08997e-06
6.05704e-06
4.6468e-07
-1.23987e-06
4.89873e-06
7.09889e-07
-1.42536e-06
3.19767e-06
1.11012e-06
-1.57619e-06
1.55113e-06
-1.34259e-06
9.48338e-06
-4.92925e-06
-2.33953e-06
1.0756e-05
-4.03494e-06
-2.81072e-06
1.14927e-05
-2.51094e-06
-2.56828e-06
1.18289e-05
-1.49522e-06
-2.23856e-06
1.19137e-05
-8.66471e-07
-1.9354e-06
1.18455e-05
-4.72294e-07
-1.68254e-06
1.1678e-05
-2.12021e-07
-1.48649e-06
1.14345e-05
-2.34843e-08
-1.3498e-06
1.11162e-05
1.33558e-07
-1.27441e-06
1.07059e-05
2.88846e-07
-1.26278e-06
1.01667e-05
4.69726e-07
-1.31798e-06
9.43697e-06
7.08235e-07
-1.4422e-06
8.42155e-06
1.04906e-06
-1.63195e-06
6.99129e-06
1.55811e-06
-1.86358e-06
5.04421e-06
2.30316e-06
-2.02813e-06
2.98429e-06
-1.602e-06
1.25329e-05
-5.49851e-06
-2.53236e-06
1.27516e-05
-4.89501e-06
-3.05762e-06
1.2881e-05
-3.20703e-06
-2.7695e-06
1.28762e-05
-1.96855e-06
-2.3917e-06
1.27668e-05
-1.15838e-06
-2.05191e-06
1.25851e-05
-6.30497e-07
-1.77237e-06
1.23506e-05
-2.71411e-07
-1.55667e-06
1.20687e-05
-4.81733e-09
-1.40513e-06
1.17316e-05
2.22269e-07
-1.31804e-06
1.13189e-05
4.50014e-07
-1.29652e-06
1.07952e-05
7.1648e-07
-1.34237e-06
1.01062e-05
1.06538e-06
-1.45625e-06
9.17411e-06
1.55445e-06
-1.63276e-06
7.90411e-06
2.25925e-06
-1.84514e-06
6.25127e-06
3.23081e-06
-1.97754e-06
3.99125e-06
-1.49042e-06
1.52901e-05
-5.16144e-06
-2.69522e-06
1.45655e-05
-4.85781e-06
-3.24645e-06
1.40525e-05
-3.29302e-06
-2.90663e-06
1.36462e-05
-2.06105e-06
-2.48126e-06
1.32936e-05
-1.21975e-06
-2.10773e-06
1.29682e-05
-6.52326e-07
-1.80498e-06
1.26532e-05
-2.53892e-07
-1.57249e-06
1.23337e-05
5.06666e-08
-1.40739e-06
1.1991e-05
3.1893e-07
-1.30772e-06
1.16021e-05
5.93162e-07
-1.27243e-06
1.11355e-05
9.1689e-07
-1.30138e-06
1.05486e-05
1.33901e-06
-1.39326e-06
9.78534e-06
1.92208e-06
-1.5408e-06
8.78416e-06
2.7419e-06
-1.71652e-06
7.53671e-06
3.8281e-06
-1.80865e-06
4.57734e-06
-1.30392e-06
1.76367e-05
-4.24557e-06
-2.84661e-06
1.61888e-05
-4.14023e-06
-3.42145e-06
1.51316e-05
-2.86468e-06
-3.03248e-06
1.43602e-05
-1.80707e-06
-2.56073e-06
1.37749e-05
-1.05931e-06
-2.15363e-06
1.33082e-05
-5.38272e-07
-1.82726e-06
1.29146e-05
-1.59281e-07
-1.57716e-06
1.25606e-05
1.42869e-07
-1.39727e-06
1.22201e-05
4.18675e-07
-1.28271e-06
1.18672e-05
7.09929e-07
-1.23046e-06
1.14755e-05
1.05853e-06
-1.23807e-06
1.10143e-05
1.51296e-06
-1.30213e-06
1.04476e-05
2.13464e-06
-1.41383e-06
9.74049e-06
2.99522e-06
-1.5462e-06
8.90177e-06
4.10896e-06
-1.59615e-06
4.81335e-06
-1.09329e-06
1.94632e-05
-2.96527e-06
-2.97319e-06
1.75034e-05
-2.94708e-06
-3.56979e-06
1.60356e-05
-2.05136e-06
-3.14005e-06
1.49756e-05
-1.28048e-06
-2.6282e-06
1.42005e-05
-7.18082e-07
-2.19113e-06
1.36169e-05
-3.11424e-07
-1.84289e-06
1.31594e-05
-1.13888e-09
-1.57569e-06
1.27822e-05
2.61204e-07
-1.38052e-06
1.2452e-05
5.14752e-07
-1.25021e-06
1.21432e-05
7.94248e-07
-1.1793e-06
1.18346e-05
1.13579e-06
-1.16325e-06
1.15074e-05
1.58249e-06
-1.1966e-06
1.11444e-05
2.19003e-06
-1.26924e-06
1.07331e-05
3.0239e-06
-1.35547e-06
1.02907e-05
4.09328e-06
-1.36299e-06
4.74629e-06
-8.72336e-07
2.07072e-05
-1.46991e-06
-3.06343e-06
1.8423e-05
-1.45555e-06
-3.67626e-06
1.66854e-05
-9.86687e-07
-3.21707e-06
1.54312e-05
-5.70977e-07
-2.67538e-06
1.4527e-05
-2.53843e-07
-2.21525e-06
1.38651e-05
-8.42212e-09
-1.84936e-06
1.33683e-05
1.97486e-07
-1.56747e-06
1.2983e-05
3.91721e-07
-1.35829e-06
1.26727e-05
5.98693e-07
-1.21259e-06
1.24129e-05
8.42132e-07
-1.12294e-06
1.21885e-05
1.14853e-06
-1.08282e-06
1.19928e-05
1.5512e-06
-1.0849e-06
1.18279e-05
2.09495e-06
-1.11794e-06
1.17059e-05
2.83547e-06
-1.15774e-06
1.16556e-05
3.78609e-06
-1.12386e-06
4.3965e-06
-6.5216e-07
2.13366e-05
-3.11015e-06
1.25173e-07
1.88975e-05
-3.73047e-06
1.77468e-07
1.70305e-05
-3.25467e-06
1.98241e-07
1.56839e-05
-2.69591e-06
2.25642e-07
1.47208e-05
-2.22189e-06
2.67269e-07
1.40271e-05
-1.84443e-06
3.26786e-07
1.35207e-05
-1.55176e-06
4.08325e-07
1.31453e-05
-1.33109e-06
5.17508e-07
1.28639e-05
-1.1717e-06
6.62047e-07
1.26545e-05
-1.06467e-06
8.5238e-07
1.25081e-05
-1.00185e-06
1.10267e-06
1.24296e-05
-9.7432e-07
1.43231e-06
1.24415e-05
-9.6973e-07
1.86839e-06
1.25898e-05
-9.65239e-07
2.44498e-06
1.29516e-05
-8.94139e-07
3.16155e-06
-4.62022e-07
3.73052e-06
5.67369e-06
-3.11367e-06
-1.3625e-06
7.45897e-06
-2.25577e-06
-1.57521e-06
8.33114e-06
-1.29723e-06
-1.43913e-06
8.70191e-06
-7.39199e-07
-1.26182e-06
8.80343e-06
-4.18575e-07
-1.09784e-06
8.75463e-06
-2.25773e-07
-9.60077e-07
8.6139e-06
-1.01471e-07
-8.52868e-07
8.40587e-06
-1.25651e-08
-7.78159e-07
8.1342e-06
6.11333e-08
-7.37124e-07
7.78683e-06
1.34002e-07
-7.3073e-07
7.33639e-06
2.19206e-07
-7.5958e-07
6.73689e-06
3.32424e-07
-8.22888e-07
5.91605e-06
4.96993e-07
-9.1602e-07
4.76115e-06
7.54148e-07
-1.02461e-06
3.1188e-06
1.16635e-06
-1.10019e-06
1.60851e-06
-9.17286e-07
9.77304e-06
-5.09474e-06
-1.79492e-06
1.10478e-05
-4.17838e-06
-2.16289e-06
1.17659e-05
-2.60168e-06
-1.98189e-06
1.20693e-05
-1.54903e-06
-1.73211e-06
1.21134e-05
-8.9678e-07
-1.50132e-06
1.20005e-05
-4.87341e-07
-1.30807e-06
1.17863e-05
-2.16302e-07
-1.15751e-06
1.14945e-05
-1.90125e-08
-1.05156e-06
1.1126e-05
1.4653e-07
-9.91297e-07
1.06633e-05
3.11488e-07
-9.77576e-07
1.00708e-05
5.04541e-07
-1.01081e-06
9.2916e-06
7.58984e-07
-1.08951e-06
8.24296e-06
1.12041e-06
-1.20674e-06
6.82055e-06
1.65406e-06
-1.34108e-06
4.95493e-06
2.42133e-06
-1.41749e-06
3.09074e-06
-1.09527e-06
1.29281e-05
-5.68066e-06
-1.93851e-06
1.3111e-05
-5.06883e-06
-2.35002e-06
1.31982e-05
-3.323e-06
-2.13537e-06
1.31463e-05
-2.03937e-06
-1.84945e-06
1.29873e-05
-1.19873e-06
-1.59097e-06
1.27552e-05
-6.502e-07
-1.37745e-06
1.24702e-05
-2.76052e-07
-1.21191e-06
1.21375e-05
3.15782e-09
-1.09459e-06
1.17487e-05
2.42654e-07
-1.02537e-06
1.12831e-05
4.84658e-07
-1.00411e-06
1.07066e-05
7.69033e-07
-1.03033e-06
9.9697e-06
1.14114e-06
-1.10153e-06
9.00722e-06
1.65967e-06
-1.20955e-06
7.74848e-06
2.39869e-06
-1.33103e-06
6.17962e-06
3.3986e-06
-1.38595e-06
4.1332e-06
-1.01961e-06
1.57828e-05
-5.33067e-06
-2.05905e-06
1.49898e-05
-5.03018e-06
-2.4921e-06
1.44114e-05
-3.41218e-06
-2.23905e-06
1.39432e-05
-2.1351e-06
-1.91734e-06
1.3532e-05
-1.26188e-06
-1.63336e-06
1.3151e-05
-6.71977e-07
-1.40224e-06
1.27829e-05
-2.56512e-07
-1.22393e-06
1.24119e-05
6.31363e-08
-1.09629e-06
1.20183e-05
3.46098e-07
-1.01761e-06
1.15789e-05
6.37814e-07
-9.86156e-07
1.10632e-05
9.83538e-07
-1.0002e-06
1.04332e-05
1.43401e-06
-1.05609e-06
9.64413e-06
2.05269e-06
-1.1448e-06
8.65606e-06
2.91313e-06
-1.24289e-06
7.48739e-06
4.03127e-06
-1.27264e-06
4.74384e-06
-8.92213e-07
1.82131e-05
-4.38374e-06
-2.17133e-06
1.66722e-05
-4.28707e-06
-2.62371e-06
1.553e-05
-2.96838e-06
-2.33408e-06
1.46834e-05
-1.87181e-06
-1.9774e-06
1.40313e-05
-1.09534e-06
-1.66803e-06
1.35043e-05
-5.53247e-07
-1.41898e-06
1.30554e-05
-1.57538e-07
-1.22729e-06
1.26499e-05
1.59816e-07
-1.08846e-06
1.22602e-05
4.51653e-07
-9.98541e-07
1.18601e-05
7.61977e-07
-9.54558e-07
1.14241e-05
1.13477e-06
-9.53287e-07
1.09255e-05
1.62036e-06
-9.89887e-07
1.03381e-05
2.28103e-06
-1.05475e-06
9.6445e-06
3.18585e-06
-1.12532e-06
8.87503e-06
4.33379e-06
-1.1292e-06
4.9958e-06
-7.48211e-07
2.01048e-05
-3.06139e-06
-2.26535e-06
1.80349e-05
-3.05166e-06
-2.7353e-06
1.64674e-05
-2.12563e-06
-2.41528e-06
1.53218e-05
-1.32605e-06
-2.02835e-06
1.44732e-05
-7.41638e-07
-1.69627e-06
1.38257e-05
-3.17977e-07
-1.4306e-06
1.33116e-05
6.69636e-09
-1.22588e-06
1.28833e-05
2.83044e-07
-1.07545e-06
1.25063e-05
5.52164e-07
-9.73684e-07
1.21542e-05
8.50728e-07
-9.15953e-07
1.18067e-05
1.21674e-06
-8.97687e-07
1.14483e-05
1.69508e-06
-9.1297e-07
1.10697e-05
2.34227e-06
-9.51831e-07
1.06717e-05
3.22151e-06
-9.93126e-07
1.02868e-05
4.32689e-06
-9.71258e-07
4.93775e-06
-5.97428e-07
2.13934e-05
-1.51766e-06
-2.33241e-06
1.89883e-05
-1.5074e-06
-2.81537e-06
1.71414e-05
-1.02242e-06
-2.47339e-06
1.57947e-05
-5.90803e-07
-2.06392e-06
1.48128e-05
-2.60639e-07
-1.71433e-06
1.40848e-05
-4.13441e-09
-1.43522e-06
1.35309e-05
2.12368e-07
-1.21928e-06
1.30958e-05
4.1811e-07
-1.05819e-06
1.27413e-05
6.38908e-07
-9.44865e-07
1.24424e-05
8.99967e-07
-8.73302e-07
1.21847e-05
1.22933e-06
-8.37723e-07
1.19644e-05
1.66182e-06
-8.31261e-07
1.17892e-05
2.24314e-06
-8.43687e-07
1.1681e-05
3.02749e-06
-8.55457e-07
1.16769e-05
4.0158e-06
-8.08676e-07
4.59313e-06
-4.4763e-07
2.20454e-05
-2.36712e-06
1.28677e-07
1.94803e-05
-2.85609e-06
1.83307e-07
1.74995e-05
-2.50167e-06
2.05408e-07
1.60574e-05
-2.07926e-06
2.34665e-07
1.50148e-05
-1.7191e-06
2.79136e-07
1.42546e-05
-1.43113e-06
3.42811e-07
1.36919e-05
-1.20695e-06
4.30239e-07
1.32684e-05
-1.0371e-06
5.47584e-07
1.29458e-05
-9.13475e-07
7.03274e-07
1.27016e-05
-8.29064e-07
9.08639e-07
1.25273e-05
-7.77123e-07
1.17885e-06
1.24305e-05
-7.4999e-07
1.53432e-06
1.24383e-05
-7.37183e-07
2.00273e-06
1.2604e-05
-7.20692e-07
2.61733e-06
1.30077e-05
-6.52013e-07
3.36991e-06
-3.20313e-07
3.93883e-06
5.79601e-06
-3.19101e-06
-9.23882e-07
7.60392e-06
-2.31444e-06
-1.06867e-06
8.47496e-06
-1.33155e-06
-9.78615e-07
8.83161e-06
-7.58699e-07
-8.5977e-07
8.91242e-06
-4.2934e-07
-7.49316e-07
8.83969e-06
-2.31106e-07
-6.56248e-07
8.67344e-06
-1.03067e-07
-5.83545e-07
8.43892e-06
-1.11724e-08
-5.32472e-07
8.14006e-06
6.53806e-08
-5.03645e-07
7.76522e-06
1.41436e-07
-4.97325e-07
7.28833e-06
2.30554e-07
-5.13245e-07
6.66657e-06
3.48745e-07
-5.49873e-07
5.83393e-06
5.19554e-07
-6.02929e-07
4.68765e-06
7.83999e-07
-6.62329e-07
3.0828e-06
1.20329e-06
-6.98632e-07
1.64567e-06
-5.75023e-07
9.99111e-06
-5.2187e-06
-1.21656e-06
1.12683e-05
-4.28643e-06
-1.46806e-06
1.1973e-05
-2.67014e-06
-1.34803e-06
1.22522e-05
-1.58965e-06
-1.18033e-06
1.22659e-05
-9.19646e-07
-1.02475e-06
1.21195e-05
-4.98645e-07
-8.94112e-07
1.18703e-05
-2.19428e-07
-7.91962e-07
1.15426e-05
-1.54931e-08
-7.19533e-07
1.11376e-05
1.56433e-07
-6.77309e-07
1.06383e-05
3.28506e-07
-6.65367e-07
1.00109e-05
5.30237e-07
-6.831e-07
9.20273e-06
7.95578e-07
-7.28188e-07
8.13961e-06
1.17041e-06
-7.94468e-07
6.73032e-06
1.71926e-06
-8.67051e-07
4.9166e-06
2.49963e-06
-9.00117e-07
3.16087e-06
-6.86261e-07
1.32253e-05
-5.81703e-06
-1.31103e-06
1.33822e-05
-5.19971e-06
-1.59359e-06
1.34384e-05
-3.41046e-06
-1.45128e-06
1.33516e-05
-2.09279e-06
-1.25951e-06
1.31556e-05
-1.22913e-06
-1.08546e-06
1.28857e-05
-6.6496e-07
-9.41256e-07
1.25628e-05
-2.79369e-07
-8.29036e-07
1.21922e-05
9.41656e-09
-7.48942e-07
1.17658e-05
2.58221e-07
-7.00679e-07
1.12631e-05
5.10715e-07
-6.83677e-07
1.06519e-05
8.07875e-07
-6.96754e-07
9.88701e-06
1.19591e-06
-7.36983e-07
8.91158e-06
1.73376e-06
-7.97471e-07
7.66788e-06
2.49407e-06
-8.62128e-07
6.15272e-06
3.51066e-06
-8.81817e-07
4.22748e-06
-6.39331e-07
1.61532e-05
-5.45737e-06
-1.39015e-06
1.53099e-05
-5.15999e-06
-1.68858e-06
1.46831e-05
-3.50206e-06
-1.52065e-06
1.41689e-05
-2.19096e-06
-1.30493e-06
1.37139e-05
-1.2936e-06
-1.11386e-06
1.32912e-05
-6.86644e-07
-9.57874e-07
1.28832e-05
-2.58241e-07
-8.37096e-07
1.24736e-05
7.28302e-08
-7.5011e-07
1.20429e-05
3.66857e-07
-6.95534e-07
1.15679e-05
6.71457e-07
-6.7184e-07
1.10197e-05
1.03292e-06
-6.77091e-07
1.03643e-05
1.50292e-06
-7.07729e-07
9.56469e-06
2.14507e-06
-7.56464e-07
8.59219e-06
3.03093e-06
-8.07242e-07
7.47448e-06
4.1677e-06
-8.11976e-07
4.85464e-06
-5.59674e-07
1.86462e-05
-4.48717e-06
-1.46419e-06
1.70368e-05
-4.39766e-06
-1.77669e-06
1.58316e-05
-3.04659e-06
-1.58429e-06
1.4929e-05
-1.92061e-06
-1.34511e-06
1.42268e-05
-1.12241e-06
-1.13702e-06
1.36545e-05
-5.64317e-07
-9.69007e-07
1.3164e-05
-1.5588e-07
-8.3924e-07
1.27201e-05
1.73062e-07
-7.44728e-07
1.22942e-05
4.76909e-07
-6.82718e-07
1.18606e-05
8.0129e-07
-6.50818e-07
1.13951e-05
1.19143e-06
-6.46238e-07
1.08743e-05
1.69858e-06
-6.64803e-07
1.02786e-05
2.38505e-06
-6.99036e-07
9.60009e-06
3.31768e-06
-7.33529e-07
8.87613e-06
4.48549e-06
-7.23031e-07
5.11722e-06
-4.69314e-07
2.0587e-05
-3.13329e-06
-1.5263e-06
1.84358e-05
-3.13038e-06
-1.85139e-06
1.67942e-05
-2.1816e-06
-1.6387e-06
1.55848e-05
-1.36033e-06
-1.37919e-06
1.46812e-05
-7.59219e-07
-1.15586e-06
1.39855e-05
-3.22614e-07
-9.76675e-07
1.34289e-05
1.30364e-08
-8.38155e-07
1.29623e-05
3.00046e-07
-7.35879e-07
1.25507e-05
5.80874e-07
-6.65985e-07
1.21676e-05
8.93515e-07
-6.25082e-07
1.17938e-05
1.27713e-06
-6.09594e-07
1.14168e-05
1.77743e-06
-6.14807e-07
1.10322e-05
2.45101e-06
-6.33214e-07
1.06482e-05
3.35893e-06
-6.50383e-07
1.03019e-05
4.48535e-06
-6.24841e-07
5.06538e-06
-3.74705e-07
2.1909e-05
-1.55332e-06
-1.57063e-06
1.94146e-05
-1.54633e-06
-1.90498e-06
1.74865e-05
-1.04923e-06
-1.67762e-06
1.60707e-05
-6.0557e-07
-1.40296e-06
1.50306e-05
-2.65488e-07
-1.16786e-06
1.42529e-05
-5.11243e-10
-9.79628e-07
1.36561e-05
2.24105e-07
-8.33557e-07
1.31834e-05
4.38619e-07
-7.24134e-07
1.27962e-05
6.69837e-07
-6.46554e-07
1.2469e-05
9.43933e-07
-5.96591e-07
1.21885e-05
1.28987e-06
-5.69981e-07
1.19531e-05
1.74314e-06
-5.61554e-07
1.17747e-05
2.3496e-06
-5.63842e-07
1.16798e-05
3.16186e-06
-5.63526e-07
1.17074e-05
4.1726e-06
-5.23524e-07
4.72486e-06
-2.80859e-07
2.2578e-05
-1.59358e-06
1.3143e-07
1.99198e-05
-1.9322e-06
1.87901e-07
1.78544e-05
-1.69652e-06
2.11048e-07
1.6341e-05
-1.41316e-06
2.41762e-07
1.52389e-05
-1.17093e-06
2.88454e-07
1.44286e-05
-9.76721e-07
3.55365e-07
1.38235e-05
-8.25087e-07
4.47344e-07
1.33638e-05
-7.09781e-07
5.70938e-07