/*--------------------------------*- C++ -*----------------------------------*\
| =========                 |                                                 |
| \\      /  F ield         | foam-extend: Open Source CFD                    |
|  \\    /   O peration     | Version:     3.1                                |
|   \\  /    A nd           | Web:         http://www.extend-project.de       |
|    \\/     M anipulation  |                                                 |
\*---------------------------------------------------------------------------*/
FoamFile
{
    version     2.0;
    format      ascii;
    class       pointVectorField;
    location    "0.3";
    object      pointMotionU;
}
// * * * * * * * * * * * * * * * * * * * * * * * * * * * * * * * * * * * * * //

dimensions      [0 1 -1 0 0 0 0];

internalField   nonuniform List<vector> 
16859
(
(0 0 0)
(0 0 0)
(0 0 0)
(0 0 0)
(0 0 0)
(0 0 0)
(0 0 0)
(0 0 0)
(0 0 0)
(0 0 0)
(0 0 0)
(0 0 0)
(0 0 0)
(0 0 0)
(0 0 0)
(0 0 0)
(0 0 0)
(0 0 0)
(-3.32893e-10 -3.37348e-10 -6.12778e-11)
(-6.31035e-10 -6.58278e-10 -1.22917e-10)
(-8.81847e-10 -9.67178e-10 -1.89036e-10)
(-1.08142e-09 -1.27685e-09 -2.65726e-10)
(-1.22149e-09 -1.59767e-09 -3.59777e-10)
(-1.28719e-09 -1.93761e-09 -4.79462e-10)
(-1.25399e-09 -2.30181e-09 -6.355e-10)
(-1.08352e-09 -2.69113e-09 -8.42217e-10)
(-7.17909e-10 -3.09951e-09 -1.11899e-09)
(-7.35233e-11 -3.50942e-09 -1.49171e-09)
(9.63516e-10 -3.88493e-09 -1.9933e-09)
(2.5323e-09 -4.16349e-09 -2.66055e-09)
(4.76303e-09 -4.25252e-09 -3.51969e-09)
(7.66924e-09 -4.05423e-09 -4.54209e-09)
(1.09012e-08 -3.59097e-09 -5.52159e-09)
(1.86428e-08 -3.13185e-09 -8.30987e-09)
(0 0 0)
(-6.68057e-10 -6.62165e-10 -1.19636e-10)
(-1.26768e-09 -1.29212e-09 -2.39796e-10)
(-1.77506e-09 -1.89858e-09 -3.68326e-10)
(-2.18411e-09 -2.50683e-09 -5.16865e-10)
(-2.48074e-09 -3.13748e-09 -6.98279e-10)
(-2.63896e-09 -3.80691e-09 -9.28148e-10)
(-2.61545e-09 -4.52645e-09 -1.22651e-09)
(-2.34207e-09 -5.30031e-09 -1.62004e-09)
(-1.71586e-09 -6.12146e-09 -2.14482e-09)
(-5.87335e-10 -6.96417e-09 -2.84928e-09)
(1.24887e-09 -7.77309e-09 -3.79623e-09)
(4.04793e-09 -8.45037e-09 -5.05957e-09)
(8.05887e-09 -8.85101e-09 -6.70374e-09)
(1.33353e-08 -8.82036e-09 -8.71205e-09)
(1.92915e-08 -8.34891e-09 -1.07533e-08)
(3.51141e-08 -8.15556e-09 -1.84456e-08)
(0 0 0)
(-1.00676e-09 -9.62464e-10 -1.72472e-10)
(-1.91336e-09 -1.87815e-09 -3.45267e-10)
(-2.68712e-09 -2.75987e-09 -5.29239e-10)
(-3.32287e-09 -3.64464e-09 -7.40563e-10)
(-3.80504e-09 -4.56307e-09 -9.96892e-10)
(-4.10301e-09 -5.5402e-09 -1.31933e-09)
(-4.16472e-09 -6.59509e-09 -1.73466e-09)
(-3.90758e-09 -7.73902e-09 -2.27826e-09)
(-3.20635e-09 -8.97137e-09 -2.99768e-09)
(-1.87816e-09 -1.02721e-08 -3.95692e-09)
(3.31214e-10 -1.15902e-08 -5.24011e-09)
(3.74573e-09 -1.28294e-08 -6.95028e-09)
(8.7005e-09 -1.38392e-08 -9.18857e-09)
(1.5316e-08 -1.44369e-08 -1.19672e-08)
(2.29315e-08 -1.44794e-08 -1.48857e-08)
(4.34358e-08 -1.6304e-08 -2.64127e-08)
(0 0 0)
(-1.34823e-09 -1.22703e-09 -2.17701e-10)
(-2.56715e-09 -2.39445e-09 -4.35068e-10)
(-3.61815e-09 -3.51875e-09 -6.65011e-10)
(-4.50063e-09 -4.64744e-09 -9.26916e-10)
(-5.20271e-09 -5.82033e-09 -1.24156e-09)
(-5.69694e-09 -7.07093e-09 -1.63326e-09)
(-5.93438e-09 -8.42693e-09 -2.1323e-09)
(-5.83629e-09 -9.90946e-09 -2.77796e-09)
(-5.28282e-09 -1.15305e-08 -3.6223e-09)
(-4.09845e-09 -1.32875e-08 -4.7348e-09)
(-2.03664e-09 -1.51545e-08 -6.2068e-09)
(1.22616e-09 -1.70671e-08 -8.15151e-09)
(6.05022e-09 -1.89017e-08 -1.0684e-08)
(1.26331e-08 -2.04509e-08 -1.3827e-08)
(2.04402e-08 -2.13332e-08 -1.71401e-08)
(4.27348e-08 -2.5585e-08 -3.02053e-08)
(0 0 0)
(-1.6894e-09 -1.44599e-09 -2.53957e-10)
(-3.22322e-09 -2.8217e-09 -5.06449e-10)
(-4.55977e-09 -4.14666e-09 -7.71395e-10)
(-5.70652e-09 -5.47711e-09 -1.06995e-09)
(-6.66009e-09 -6.86052e-09 -1.42421e-09)
(-7.40324e-09 -8.33773e-09 -1.85932e-09)
(-7.90095e-09 -9.94439e-09 -2.40564e-09)
(-8.09489e-09 -1.17117e-08 -3.10141e-09)
(-7.89614e-09 -1.36659e-08 -3.9959e-09)
(-7.17557e-09 -1.58271e-08 -5.15314e-09)
(-5.75255e-09 -1.82036e-08 -6.65543e-09)
(-3.38543e-09 -2.07796e-08 -8.60255e-09)
(2.17844e-10 -2.34809e-08 -1.10925e-08)
(5.29301e-09 -2.6085e-08 -1.41316e-08)
(1.16279e-08 -2.79248e-08 -1.72806e-08)
(3.20918e-08 -3.4595e-08 -2.98544e-08)
(0 0 0)
(-2.02497e-09 -1.61116e-09 -2.80649e-10)
(-3.87087e-09 -3.14394e-09 -5.5829e-10)
(-5.4954e-09 -4.62004e-09 -8.46839e-10)
(-6.91658e-09 -6.1021e-09 -1.16783e-09)
(-8.14281e-09 -7.64303e-09 -1.54305e-09)
(-9.17185e-09 -9.28874e-09 -1.9963e-09)
(-9.98954e-09 -1.10803e-08 -2.55513e-09)
(-1.05684e-08 -1.30558e-08 -3.2526e-09)
(-1.08662e-08 -1.52521e-08 -4.12918e-09)
(-1.08254e-08 -1.77063e-08 -5.23463e-09)
(-1.03722e-08 -2.04555e-08 -6.62885e-09)
(-9.41608e-09 -2.35303e-08 -8.37858e-09)
(-7.84566e-09 -2.69191e-08 -1.05385e-08)
(-5.52584e-09 -3.04345e-08 -1.30763e-08)
(-2.32549e-09 -3.32036e-08 -1.55834e-08)
(1.23352e-08 -4.20154e-08 -2.60532e-08)
(0 0 0)
(-2.34782e-09 -1.71646e-09 -2.97932e-10)
(-4.49571e-09 -3.34931e-09 -5.91028e-10)
(-6.40227e-09 -4.92148e-09 -8.92338e-10)
(-8.09716e-09 -6.49928e-09 -1.2226e-09)
(-9.60179e-09 -8.13834e-09 -1.60197e-09)
(-1.09303e-08 -9.8866e-09 -2.05136e-09)
(-1.20911e-08 -1.17866e-08 -2.59352e-09)
(-1.30888e-08 -1.38777e-08 -3.25379e-09)
(-1.39293e-08 -1.61982e-08 -4.06051e-09)
(-1.46267e-08 -1.87878e-08 -5.04458e-09)
(-1.52159e-08 -2.16899e-08 -6.23724e-09)
(-1.57685e-08 -2.49502e-08 -7.6635e-09)
(-1.64054e-08 -2.85974e-08 -9.32423e-09)
(-1.72637e-08 -3.25389e-08 -1.11435e-08)
(-1.8219e-08 -3.59917e-08 -1.2766e-08)
(-1.54965e-08 -4.74122e-08 -1.95048e-08)
(0 0 0)
(-2.6499e-09 -1.75799e-09 -3.06603e-10)
(-5.08149e-09 -3.43042e-09 -6.06421e-10)
(-7.25488e-09 -5.04045e-09 -9.10993e-10)
(-9.21087e-09 -6.65514e-09 -1.23938e-09)
(-1.0983e-08 -8.33006e-09 -1.60923e-09)
(-1.26001e-08 -1.01119e-08 -2.0377e-09)
(-1.40895e-08 -1.20406e-08 -2.54188e-09)
(-1.54815e-08 -1.41501e-08 -3.13863e-09)
(-1.68173e-08 -1.647e-08 -3.84373e-09)
(-1.81591e-08 -1.90244e-08 -4.66944e-09)
(-1.96073e-08 -2.18298e-08 -5.61954e-09)
(-2.13204e-08 -2.48843e-08 -6.67885e-09)
(-2.35312e-08 -2.81329e-08 -7.79097e-09)
(-2.65195e-08 -3.13492e-08 -8.80708e-09)
(-3.04398e-08 -3.3633e-08 -9.32078e-09)
(-5.24524e-08 -4.98818e-08 -1.17727e-08)
(0 0 0)
(0 0 0)
(0 0 0)
(0 0 0)
(0 0 0)
(0 0 0)
(0 0 0)
(0 0 0)
(0 0 0)
(0 0 0)
(0 0 0)
(0 0 0)
(0 0 0)
(0 0 0)
(0 0 0)
(0 0 0)
(0 0 0)
(0 0 0)
(-3.47322e-10 -3.53217e-10 -5.95938e-11)
(-6.5917e-10 -6.89706e-10 -1.19499e-10)
(-9.23196e-10 -1.01455e-09 -1.83696e-10)
(-1.1361e-09 -1.34165e-09 -2.58092e-10)
(-1.29005e-09 -1.68231e-09 -3.4927e-10)
(-1.37048e-09 -2.04532e-09 -4.65264e-10)
(-1.35293e-09 -2.43633e-09 -6.16501e-10)
(-1.1989e-09 -2.85622e-09 -8.16996e-10)
(-8.50332e-10 -3.2978e-09 -1.08585e-09)
(-2.23899e-10 -3.74003e-09 -1.44891e-09)
(7.91891e-10 -4.13857e-09 -1.93976e-09)
(2.32744e-09 -4.41235e-09 -2.59767e-09)
(4.48799e-09 -4.43039e-09 -3.45502e-09)
(7.22069e-09 -4.0241e-09 -4.49423e-09)
(9.95591e-09 -3.15318e-09 -5.51306e-09)
(1.40058e-08 2.56304e-09 -6.22009e-09)
(0 0 0)
(-6.96835e-10 -6.93328e-10 -1.16341e-10)
(-1.32384e-09 -1.35385e-09 -2.33111e-10)
(-1.85769e-09 -1.99166e-09 -3.57893e-10)
(-2.29361e-09 -2.63421e-09 -5.01966e-10)
(-2.6185e-09 -3.30406e-09 -6.778e-10)
(-2.8071e-09 -4.01925e-09 -9.00504e-10)
(-2.81655e-09 -4.79243e-09 -1.18956e-09)
(-2.57891e-09 -5.62841e-09 -1.57104e-09)
(-1.99141e-09 -6.51909e-09 -2.08048e-09)
(-9.0576e-10 -7.43435e-09 -2.76627e-09)
(8.78446e-10 -8.30753e-09 -3.69266e-09)
(3.60039e-09 -9.01601e-09 -4.93886e-09)
(7.4643e-09 -9.36592e-09 -6.58342e-09)
(1.24037e-08 -9.12296e-09 -8.63733e-09)
(1.7425e-08 -8.24483e-09 -1.07817e-08)
(2.56426e-08 -3.32399e-09 -1.48948e-08)
(0 0 0)
(-1.04969e-09 -1.00779e-09 -1.67706e-10)
(-1.99722e-09 -1.96795e-09 -3.35608e-10)
(-2.81077e-09 -2.89534e-09 -5.14186e-10)
(-3.4872e-09 -3.8302e-09 -7.19105e-10)
(-4.01273e-09 -4.80606e-09 -9.67457e-10)
(-4.35825e-09 -5.8507e-09 -1.27967e-09)
(-4.47299e-09 -6.98563e-09 -1.68177e-09)
(-4.27565e-09 -8.22413e-09 -2.20824e-09)
(-3.64263e-09 -9.56641e-09 -2.9059e-09)
(-2.39434e-09 -1.09908e-08 -3.83867e-09)
(-2.84694e-10 -1.24398e-08 -5.09284e-09)
(2.9889e-09 -1.38008e-08 -6.77947e-09)
(7.70591e-09 -1.48928e-08 -9.02128e-09)
(1.38374e-08 -1.54938e-08 -1.18737e-08)
(2.01943e-08 -1.55004e-08 -1.49521e-08)
(3.06149e-08 -1.30997e-08 -2.1238e-08)
(0 0 0)
(-1.40493e-09 -1.28485e-09 -2.11661e-10)
(-2.67804e-09 -2.50903e-09 -4.22843e-10)
(-3.78199e-09 -3.69169e-09 -6.45997e-10)
(-4.71914e-09 -4.88454e-09 -8.99881e-10)
(-5.48031e-09 -6.13129e-09 -1.20458e-09)
(-6.04067e-09 -7.46927e-09 -1.5836e-09)
(-6.35399e-09 -8.93009e-09 -2.06626e-09)
(-6.34477e-09 -1.0539e-08 -2.69081e-09)
(-5.89755e-09 -1.23122e-08 -3.50837e-09)
(-4.84388e-09 -1.42515e-08 -4.58833e-09)
(-2.95006e-09 -1.6335e-08 -6.02465e-09)
(8.16213e-11 -1.85013e-08 -7.94041e-09)
(4.5546e-09 -2.06317e-08 -1.04773e-08)
(1.05222e-08 -2.25349e-08 -1.37113e-08)
(1.69099e-08 -2.39277e-08 -1.72237e-08)
(2.79671e-08 -2.4695e-08 -2.43587e-08)
(0 0 0)
(-1.75925e-09 -1.51416e-09 -2.4688e-10)
(-3.35995e-09 -2.95682e-09 -4.9215e-10)
(-4.7622e-09 -4.3507e-09 -7.49211e-10)
(-5.97737e-09 -5.75705e-09 -1.03851e-09)
(-7.00585e-09 -7.2281e-09 -1.38137e-09)
(-7.83434e-09 -8.80958e-09 -1.80204e-09)
(-8.43238e-09 -1.05425e-08 -2.32983e-09)
(-8.74751e-09 -1.24645e-08 -3.00183e-09)
(-8.69908e-09 -1.46103e-08 -3.86628e-09)
(-8.17066e-09 -1.70111e-08 -4.98713e-09)
(-7.0018e-09 -1.96931e-08 -6.44951e-09)
(-4.98374e-09 -2.26684e-08 -8.36406e-09)
(-1.87969e-09 -2.59102e-08 -1.08581e-08)
(2.43627e-09 -2.92735e-08 -1.39979e-08)
(7.33504e-09 -3.223e-08 -1.73838e-08)
(1.70366e-08 -3.60673e-08 -2.41732e-08)
(0 0 0)
(-2.10702e-09 -1.68715e-09 -2.72794e-10)
(-4.03162e-09 -3.29459e-09 -5.42452e-10)
(-5.73376e-09 -4.84758e-09 -8.22347e-10)
(-7.23631e-09 -6.4144e-09 -1.13326e-09)
(-8.55251e-09 -8.05339e-09 -1.49618e-09)
(-9.6854e-09 -9.81616e-09 -1.93399e-09)
(-1.06273e-08 -1.17504e-08 -2.47319e-09)
(-1.13593e-08 -1.39024e-08 -3.14569e-09)
(-1.18519e-08 -1.63206e-08 -3.99097e-09)
(-1.20667e-08 -1.90597e-08 -5.05874e-09)
(-1.19601e-08 -2.21865e-08 -6.41193e-09)
(-1.14877e-08 -2.57837e-08 -8.1286e-09)
(-1.06043e-08 -2.9933e-08 -1.02943e-08)
(-9.259e-09 -3.45984e-08 -1.29424e-08)
(-7.50432e-09 -3.90907e-08 -1.57364e-08)
(-1.83464e-09 -4.58393e-08 -2.12639e-08)
(0 0 0)
(-2.44081e-09 -1.79743e-09 -2.89563e-10)
(-4.67798e-09 -3.50986e-09 -5.74193e-10)
(-6.6728e-09 -5.164e-09 -8.66401e-10)
(-8.46058e-09 -6.83216e-09 -1.18618e-09)
(-1.00685e-08 -8.57578e-09 -1.55289e-09)
(-1.15171e-08 -1.04489e-08 -1.98658e-09)
(-1.28226e-08 -1.25014e-08 -2.50904e-09)
(-1.40008e-08 -1.47815e-08 -3.14456e-09)
(-1.50734e-08 -1.73407e-08 -3.92065e-09)
(-1.60792e-08 -2.02389e-08 -4.86832e-09)
(-1.70918e-08 -2.35546e-08 -6.02195e-09)
(-1.82449e-08 -2.73984e-08 -7.41786e-09)
(-1.97543e-08 -3.19248e-08 -9.08832e-09)
(-2.18792e-08 -3.72765e-08 -1.10303e-08)
(-2.452e-08 -4.29786e-08 -1.30109e-08)
(-2.83331e-08 -5.34915e-08 -1.63604e-08)
(0 0 0)
(-2.75229e-09 -1.84093e-09 -2.97968e-10)
(-5.28221e-09 -3.59488e-09 -5.89095e-10)
(-7.55285e-09 -5.28886e-09 -8.84411e-10)
(-9.61126e-09 -6.99606e-09 -1.20226e-09)
(-1.14973e-08 -8.77788e-09 -1.55959e-09)
(-1.3247e-08 -1.06872e-08 -1.97277e-09)
(-1.48964e-08 -1.27709e-08 -2.45807e-09)
(-1.64878e-08 -1.50719e-08 -3.03151e-09)
(-1.80793e-08 -1.76317e-08 -3.70827e-09)
(-1.97593e-08 -2.04927e-08 -4.5009e-09)
(-2.16685e-08 -2.37014e-08 -5.41607e-09)
(-2.40294e-08 -2.73081e-08 -6.44785e-09)
(-2.71739e-08 -3.13511e-08 -7.56345e-09)
(-3.15205e-08 -3.57604e-08 -8.6643e-09)
(-3.7331e-08 -3.98038e-08 -9.42308e-09)
(-6.47408e-08 -5.72016e-08 -1.08667e-08)
(0 0 0)
(0 0 0)
(0 0 0)
(0 0 0)
(0 0 0)
(0 0 0)
(0 0 0)
(0 0 0)
(0 0 0)
(0 0 0)
(0 0 0)
(0 0 0)
(0 0 0)
(0 0 0)
(0 0 0)
(0 0 0)
(0 0 0)
(0 0 0)
(-3.61585e-10 -3.67784e-10 -5.56571e-11)
(-6.87188e-10 -7.18534e-10 -1.11548e-10)
(-9.64873e-10 -1.05792e-09 -1.71331e-10)
(-1.19217e-09 -1.40072e-09 -2.40432e-10)
(-1.3621e-09 -1.75902e-09 -3.24841e-10)
(-1.46104e-09 -2.14217e-09 -4.31768e-10)
(-1.46582e-09 -2.55608e-09 -5.7041e-10)
(-1.3399e-09 -3.00137e-09 -7.5286e-10)
(-1.02878e-09 -3.46966e-09 -9.95099e-10)
(-4.56012e-10 -3.9369e-09 -1.31777e-09)
(4.75821e-10 -4.35256e-09 -1.74562e-09)
(1.86867e-09 -4.62429e-09 -2.30249e-09)
(3.77394e-09 -4.60338e-09 -2.99412e-09)
(6.05827e-09 -4.10268e-09 -3.76323e-09)
(8.15005e-09 -3.09415e-09 -4.40611e-09)
(1.09283e-08 1.57473e-09 -4.58845e-09)
(0 0 0)
(-7.25234e-10 -7.21942e-10 -1.08652e-10)
(-1.37964e-09 -1.41049e-09 -2.17596e-10)
(-1.94076e-09 -2.07689e-09 -3.33794e-10)
(-2.40548e-09 -2.75037e-09 -4.67605e-10)
(-2.76245e-09 -3.45506e-09 -6.30368e-10)
(-2.98838e-09 -4.21018e-09 -8.35625e-10)
(-3.04303e-09 -5.02911e-09 -1.10053e-09)
(-2.86242e-09 -5.91659e-09 -1.44751e-09)
(-2.35075e-09 -6.86289e-09 -1.9062e-09)
(-1.37293e-09 -7.83343e-09 -2.51509e-09)
(2.45092e-10 -8.75209e-09 -3.32138e-09)
(2.68973e-09 -9.47856e-09 -4.37401e-09)
(6.06527e-09 -9.79052e-09 -5.69694e-09)
(1.01533e-08 -9.42116e-09 -7.21294e-09)
(1.3945e-08 -8.33927e-09 -8.57402e-09)
(1.92111e-08 -4.14886e-09 -1.02387e-08)
(0 0 0)
(-1.09194e-09 -1.04942e-09 -1.56616e-10)
(-2.08028e-09 -2.05037e-09 -3.13256e-10)
(-2.93451e-09 -3.01941e-09 -4.79539e-10)
(-3.6541e-09 -3.99944e-09 -6.69842e-10)
(-4.22791e-09 -5.02636e-09 -8.99691e-10)
(-4.62993e-09 -6.12984e-09 -1.18736e-09)
(-4.81344e-09 -7.33292e-09 -1.55567e-09)
(-4.70319e-09 -8.64954e-09 -2.03418e-09)
(-4.1857e-09 -1.00791e-08 -2.66163e-09)
(-3.09985e-09 -1.15962e-08 -3.48841e-09)
(-1.23507e-09 -1.31345e-08 -4.57738e-09)
(1.64195e-09 -1.45633e-08 -5.99726e-09)
(5.68089e-09 -1.56681e-08 -7.79282e-09)
(1.06551e-08 -1.61764e-08 -9.88879e-09)
(1.53516e-08 -1.59633e-08 -1.18435e-08)
(2.18122e-08 -1.37956e-08 -1.45479e-08)
(0 0 0)
(-1.46052e-09 -1.33797e-09 -1.97653e-10)
(-2.78739e-09 -2.61422e-09 -3.94659e-10)
(-3.94507e-09 -3.8501e-09 -6.02431e-10)
(-4.9394e-09 -5.10083e-09 -8.38176e-10)
(-5.7649e-09 -6.41319e-09 -1.1201e-09)
(-6.40096e-09 -7.8273e-09 -1.46918e-09)
(-6.80694e-09 -9.37722e-09 -1.91104e-09)
(-6.91543e-09 -1.10901e-08 -2.47814e-09)
(-6.62401e-09 -1.29833e-08 -3.21234e-09)
(-5.78674e-09 -1.50576e-08 -4.16747e-09)
(-4.21087e-09 -1.72861e-08 -5.41051e-09)
(-1.67495e-09 -1.95931e-08 -7.01578e-09)
(1.98667e-09 -2.18243e-08 -9.03487e-09)
(6.62215e-09 -2.37127e-08 -1.13925e-08)
(1.11397e-08 -2.48946e-08 -1.36044e-08)
(1.76453e-08 -2.5443e-08 -1.66928e-08)
(0 0 0)
(-1.82743e-09 -1.5768e-09 -2.30528e-10)
(-3.49411e-09 -3.08091e-09 -4.5932e-10)
(-4.96244e-09 -4.53764e-09 -6.98644e-10)
(-6.24817e-09 -6.01247e-09 -9.67236e-10)
(-7.35633e-09 -7.56138e-09 -1.2844e-09)
(-8.27904e-09 -9.23368e-09 -1.67168e-09)
(-8.99286e-09 -1.10739e-08 -2.15453e-09)
(-9.45536e-09 -1.3123e-08 -2.76409e-09)
(-9.60142e-09 -1.54189e-08 -3.53914e-09)
(-9.33998e-09 -1.79961e-08 -4.52789e-09)
(-8.55391e-09 -2.08809e-08 -5.7885e-09)
(-7.10934e-09 -2.40784e-08 -7.38319e-09)
(-4.89482e-09 -2.75279e-08 -9.35048e-09)
(-1.95642e-09 -3.09839e-08 -1.16087e-08)
(1.09057e-09 -3.37692e-08 -1.36964e-08)
(6.23102e-09 -3.7038e-08 -1.65325e-08)
(0 0 0)
(-2.18675e-09 -1.757e-09 -2.54714e-10)
(-4.18855e-09 -3.43296e-09 -5.06245e-10)
(-5.96808e-09 -5.05612e-09 -7.66814e-10)
(-7.55341e-09 -6.69944e-09 -1.05545e-09)
(-8.96327e-09 -8.4256e-09 -1.3911e-09)
(-1.02071e-08 -1.02904e-08 -1.79403e-09)
(-1.12856e-08 -1.23457e-08 -2.28704e-09)
(-1.21913e-08 -1.46427e-08 -2.89648e-09)
(-1.2912e-08 -1.72349e-08 -3.65317e-09)
(-1.34365e-08 -2.01833e-08 -4.5927e-09)
(-1.37646e-08 -2.35612e-08 -5.75436e-09)
(-1.39209e-08 -2.74521e-08 -7.17479e-09)
(-1.39623e-08 -3.19124e-08 -8.8648e-09)
(-1.39492e-08 -3.6796e-08 -1.0734e-08)
(-1.38555e-08 -4.12069e-08 -1.23946e-08)
(-1.23016e-08 -4.73017e-08 -1.44432e-08)
(0 0 0)
(-2.53078e-09 -1.87188e-09 -2.70368e-10)
(-4.85507e-09 -3.65737e-09 -5.35861e-10)
(-6.93719e-09 -5.38633e-09 -8.0789e-10)
(-8.81829e-09 -7.13612e-09 -1.10473e-09)
(-1.05317e-08 -8.9728e-09 -1.44386e-09)
(-1.21052e-08 -1.0955e-08 -1.84293e-09)
(-1.3564e-08 -1.31371e-08 -2.32045e-09)
(-1.49361e-08 -1.55729e-08 -2.89602e-09)
(-1.62614e-08 -1.83199e-08 -3.58996e-09)
(-1.76057e-08 -2.14461e-08 -4.42212e-09)
(-1.90841e-08 -2.50394e-08 -5.40899e-09)
(-2.08916e-08 -2.9218e-08 -6.5573e-09)
(-2.33243e-08 -3.41237e-08 -7.84855e-09)
(-2.66991e-08 -3.98058e-08 -9.19831e-09)
(-3.07694e-08 -4.55682e-08 -1.03465e-08)
(-3.79626e-08 -5.58159e-08 -1.11651e-08)
(0 0 0)
(-2.85097e-09 -1.91721e-09 -2.78219e-10)
(-5.47636e-09 -3.74602e-09 -5.49781e-10)
(-7.84251e-09 -5.5167e-09 -8.24715e-10)
(-1.00028e-08 -7.30754e-09 -1.11979e-09)
(-1.20035e-08 -9.18466e-09 -1.45025e-09)
(-1.38882e-08 -1.12055e-08 -1.83045e-09)
(-1.57021e-08 -1.34216e-08 -2.27399e-09)
(-1.74997e-08 -1.58811e-08 -2.79324e-09)
(-1.93561e-08 -1.86312e-08 -3.39805e-09)
(-2.13845e-08 -2.17216e-08 -4.09331e-09)
(-2.37615e-08 -2.52071e-08 -4.87445e-09)
(-2.67586e-08 -2.91445e-08 -5.7196e-09)
(-3.07643e-08 -3.35624e-08 -6.57452e-09)
(-3.62174e-08 -3.83224e-08 -7.32021e-09)
(-4.32462e-08 -4.25252e-08 -7.67657e-09)
(-7.38384e-08 -6.04142e-08 -8.76503e-09)
(0 0 0)
(0 0 0)
(0 0 0)
(0 0 0)
(0 0 0)
(0 0 0)
(0 0 0)
(0 0 0)
(0 0 0)
(0 0 0)
(0 0 0)
(0 0 0)
(0 0 0)
(0 0 0)
(0 0 0)
(0 0 0)
(0 0 0)
(0 0 0)
(-3.75117e-10 -3.80666e-10 -4.96647e-11)
(-7.13908e-10 -7.43993e-10 -9.94712e-11)
(-1.00497e-09 -1.09609e-09 -1.526e-10)
(-1.24679e-09 -1.45248e-09 -2.13759e-10)
(-1.43346e-09 -1.82576e-09 -2.88041e-10)
(-1.55269e-09 -2.22563e-09 -3.81404e-10)
(-1.58322e-09 -2.65804e-09 -5.01164e-10)
(-1.49144e-09 -3.1232e-09 -6.56437e-10)
(-1.22778e-09 -3.6116e-09 -8.58389e-10)
(-7.24319e-10 -4.09717e-09 -1.11978e-09)
(1.01628e-10 -4.52653e-09 -1.45271e-09)
(1.32823e-09 -4.80505e-09 -1.8619e-09)
(2.97559e-09 -4.78788e-09 -2.32934e-09)
(4.89472e-09 -4.31149e-09 -2.78741e-09)
(6.59642e-09 -3.396e-09 -3.10116e-09)
(8.84577e-09 3.78081e-10 -3.06619e-09)
(0 0 0)
(-7.52131e-10 -7.47247e-10 -9.69547e-11)
(-1.43276e-09 -1.46051e-09 -1.94039e-10)
(-2.02048e-09 -2.15192e-09 -2.97306e-10)
(-2.5141e-09 -2.85214e-09 -4.15738e-10)
(-2.9044e-09 -3.58639e-09 -5.58969e-10)
(-3.17072e-09 -4.37462e-09 -7.38174e-10)
(-3.27652e-09 -5.2304e-09 -9.66945e-10)
(-3.1635e-09 -6.15784e-09 -1.2621e-09)
(-2.7452e-09 -7.14534e-09 -1.64415e-09)
(-1.9025e-09 -8.15472e-09 -2.13656e-09)
(-4.88698e-10 -9.1045e-09 -2.76205e-09)
(1.6386e-09 -9.84899e-09 -3.53151e-09)
(4.52552e-09 -1.01681e-08 -4.41815e-09)
(7.92379e-09 -9.82385e-09 -5.31019e-09)
(1.09766e-08 -8.84904e-09 -5.96858e-09)
(1.54326e-08 -5.6439e-09 -6.34929e-09)
(0 0 0)
(-1.13184e-09 -1.08624e-09 -1.39753e-10)
(-2.1591e-09 -2.12317e-09 -2.79344e-10)
(-3.05283e-09 -3.12865e-09 -4.27126e-10)
(-3.81535e-09 -4.1477e-09 -5.9556e-10)
(-4.43868e-09 -5.21788e-09 -7.97819e-10)
(-4.90066e-09 -6.37006e-09 -1.04894e-09)
(-5.15992e-09 -7.62777e-09 -1.36691e-09)
(-5.14919e-09 -9.00442e-09 -1.77366e-09)
(-4.76783e-09 -1.04973e-08 -2.2955e-09)
(-3.87619e-09 -1.20765e-08 -2.9623e-09)
(-2.29978e-09 -1.36683e-08 -3.80299e-09)
(1.3727e-10 -1.51321e-08 -4.83248e-09)
(3.50883e-09 -1.62466e-08 -6.02053e-09)
(7.54853e-09 -1.67528e-08 -7.23194e-09)
(1.12422e-08 -1.65799e-08 -8.1609e-09)
(1.65099e-08 -1.50358e-08 -8.84356e-09)
(0 0 0)
(-1.51286e-09 -1.38496e-09 -1.76372e-10)
(-2.89078e-09 -2.70714e-09 -3.51937e-10)
(-4.10027e-09 -3.9896e-09 -5.36599e-10)
(-5.15095e-09 -5.29028e-09 -7.45258e-10)
(-6.04138e-09 -6.65822e-09 -9.93345e-10)
(-6.75598e-09 -8.13519e-09 -1.29804e-09)
(-7.26078e-09 -9.75621e-09 -1.67936e-09)
(-7.49814e-09 -1.15483e-08 -2.161e-09)
(-7.38081e-09 -1.35268e-08 -2.77054e-09)
(-6.78734e-09 -1.56879e-08 -3.53816e-09)
(-5.56485e-09 -1.79954e-08 -4.49159e-09)
(-3.55379e-09 -2.03584e-08 -5.64223e-09)
(-6.68686e-10 -2.26014e-08 -6.95277e-09)
(2.89818e-09 -2.44433e-08 -8.27472e-09)
(6.27337e-09 -2.55567e-08 -9.28045e-09)
(1.13439e-08 -2.62706e-08 -1.00084e-08)
(0 0 0)
(-1.89138e-09 -1.63223e-09 -2.05709e-10)
(-3.62043e-09 -3.19053e-09 -4.09608e-10)
(-5.15204e-09 -4.70228e-09 -6.22325e-10)
(-6.50653e-09 -6.23622e-09 -8.60076e-10)
(-7.69383e-09 -7.85106e-09 -1.13919e-09)
(-8.71197e-09 -9.59826e-09 -1.47721e-09)
(-9.54524e-09 -1.15238e-08 -1.89381e-09)
(-1.01621e-08 -1.36689e-08 -2.41111e-09)
(-1.05137e-08 -1.60702e-08 -3.05339e-09)
(-1.0534e-08 -1.87574e-08 -3.84494e-09)
(-1.01447e-08 -2.17467e-08 -4.80423e-09)
(-9.26895e-09 -2.50223e-08 -5.92988e-09)
(-7.86528e-09 -2.84868e-08 -7.1703e-09)
(-6.00722e-09 -3.18497e-08 -8.36946e-09)
(-4.09549e-09 -3.44502e-08 -9.2255e-09)
(-4.38951e-10 -3.73906e-08 -9.64538e-09)
(0 0 0)
(-2.26125e-09 -1.81882e-09 -2.27298e-10)
(-4.33567e-09 -3.55524e-09 -4.51476e-10)
(-6.1888e-09 -5.23981e-09 -6.83101e-10)
(-7.85392e-09 -6.94921e-09 -9.38633e-10)
(-9.35536e-09 -8.7492e-09 -1.23406e-09)
(-1.07091e-08 -1.06981e-08 -1.5858e-09)
(-1.19242e-08 -1.28497e-08 -2.01116e-09)
(-1.30046e-08 -1.52559e-08 -2.52815e-09)
(-1.39542e-08 -1.79692e-08 -3.15432e-09)
(-1.47852e-08 -2.10465e-08 -3.90371e-09)
(-1.55313e-08 -2.45499e-08 -4.78024e-09)
(-1.62631e-08 -2.85389e-08 -5.76434e-09)
(-1.70852e-08 -3.30214e-08 -6.78752e-09)
(-1.80588e-08 -3.77802e-08 -7.69372e-09)
(-1.89564e-08 -4.19142e-08 -8.23695e-09)
(-1.86823e-08 -4.72103e-08 -7.99154e-09)
(0 0 0)
(-2.61455e-09 -1.93779e-09 -2.41281e-10)
(-5.02039e-09 -3.78775e-09 -4.77926e-10)
(-7.18498e-09 -5.58226e-09 -7.19779e-10)
(-9.15519e-09 -7.4026e-09 -9.82649e-10)
(-1.09704e-08 -9.3182e-09 -1.28124e-09)
(-1.26651e-08 -1.13904e-08 -1.62975e-09)
(-1.42733e-08 -1.36758e-08 -2.04192e-09)
(-1.5834e-08 -1.62291e-08 -2.53027e-09)
(-1.7402e-08 -1.91071e-08 -3.10421e-09)
(-1.90635e-08 -2.23737e-08 -3.76633e-09)
(-2.09608e-08 -2.61061e-08 -4.5056e-09)
(-2.33206e-08 -3.03977e-08 -5.28625e-09)
(-2.64624e-08 -3.53385e-08 -6.0314e-09)
(-3.06744e-08 -4.08954e-08 -6.60919e-09)
(-3.5522e-08 -4.63455e-08 -6.86967e-09)
(-4.34325e-08 -5.54527e-08 -5.77594e-09)
(0 0 0)
(-2.94252e-09 -1.98475e-09 -2.4831e-10)
(-5.65692e-09 -3.87967e-09 -4.90399e-10)
(-8.11277e-09 -5.71757e-09 -7.34896e-10)
(-1.03694e-08 -7.58081e-09 -9.96298e-10)
(-1.24795e-08 -9.5389e-09 -1.28742e-09)
(-1.44934e-08 -1.16521e-08 -1.6197e-09)
(-1.64644e-08 -1.39741e-08 -2.00289e-09)
(-1.84573e-08 -1.6554e-08 -2.44391e-09)
(-2.05603e-08 -1.94383e-08 -2.94457e-09)
(-2.29029e-08 -2.26727e-08 -3.49765e-09)
(-2.56809e-08 -2.63018e-08 -4.08061e-09)
(-2.91844e-08 -3.03601e-08 -4.64672e-09)
(-3.38056e-08 -3.48327e-08 -5.11458e-09)
(-3.9937e-08 -3.9515e-08 -5.36354e-09)
(-4.75547e-08 -4.34833e-08 -5.24247e-09)
(-7.81634e-08 -6.02179e-08 -5.36904e-09)
(0 0 0)
(0 0 0)
(0 0 0)
(0 0 0)
(0 0 0)
(0 0 0)
(0 0 0)
(0 0 0)
(0 0 0)
(0 0 0)
(0 0 0)
(0 0 0)
(0 0 0)
(0 0 0)
(0 0 0)
(0 0 0)
(0 0 0)
(0 0 0)
(-3.87286e-10 -3.91548e-10 -4.18956e-11)
(-7.38026e-10 -7.65458e-10 -8.3845e-11)
(-1.04137e-09 -1.12817e-09 -1.28447e-10)
(-1.29679e-09 -1.49572e-09 -1.79528e-10)
(-1.49946e-09 -1.88107e-09 -2.41115e-10)
(-1.63849e-09 -2.29407e-09 -3.17727e-10)
(-1.69452e-09 -2.74051e-09 -4.14578e-10)
(-1.63677e-09 -3.22007e-09 -5.37598e-10)
(-1.41993e-09 -3.72229e-09 -6.93027e-10)
(-9.82505e-10 -4.21986e-09 -8.86122e-10)
(-2.50767e-10 -4.65875e-09 -1.11814e-09)
(8.43216e-10 -4.94652e-09 -1.38038e-09)
(2.3151e-09 -4.94824e-09 -1.64474e-09)
(4.03582e-09 -4.52273e-09 -1.85594e-09)
(5.58371e-09 -3.70664e-09 -1.94971e-09)
(7.77589e-09 -2.88082e-10 -1.76731e-09)
(0 0 0)
(-7.76285e-10 -7.68624e-10 -8.17888e-11)
(-1.48063e-09 -1.50268e-09 -1.6356e-10)
(-2.09273e-09 -2.21495e-09 -2.50258e-10)
(-2.6133e-09 -2.93715e-09 -3.49179e-10)
(-3.03526e-09 -3.69519e-09 -4.67938e-10)
(-3.34066e-09 -4.50935e-09 -6.14986e-10)
(-3.49662e-09 -5.39293e-09 -7.99962e-10)
(-3.45016e-09 -6.34902e-09 -1.03368e-09)
(-3.12277e-09 -7.36409e-09 -1.32735e-09)
(-2.40713e-09 -8.3973e-09 -1.69014e-09)
(-1.17293e-09 -9.36486e-09 -2.12382e-09)
(7.03685e-10 -1.01228e-08 -2.61224e-09)
(3.26113e-09 -1.04645e-08 -3.10521e-09)
(6.28922e-09 -1.01849e-08 -3.50515e-09)
(9.05927e-09 -9.3445e-09 -3.69839e-09)
(1.35961e-08 -6.66885e-09 -3.48949e-09)
(0 0 0)
(-1.1676e-09 -1.11735e-09 -1.17895e-10)
(-2.22996e-09 -2.18454e-09 -2.35475e-10)
(-3.15974e-09 -3.2204e-09 -3.59554e-10)
(-3.96205e-09 -4.27151e-09 -5.00254e-10)
(-4.63202e-09 -5.37647e-09 -6.6797e-10)
(-5.15132e-09 -6.56665e-09 -8.74025e-10)
(-5.4837e-09 -7.86528e-09 -1.13106e-09)
(-5.56914e-09 -9.28433e-09 -1.45288e-09)
(-5.31757e-09 -1.08181e-08 -1.85322e-09)
(-4.60465e-09 -1.24324e-08 -2.34246e-09)
(-3.27675e-09 -1.40477e-08 -2.92047e-09)
(-1.1812e-09 -1.55208e-08 -3.56351e-09)
(1.74689e-09 -1.66381e-08 -4.20459e-09)
(5.29125e-09 -1.717e-08 -4.71876e-09)
(8.60513e-09 -1.70818e-08 -4.96572e-09)
(1.39221e-08 -1.59562e-08 -4.6793e-09)
(0 0 0)
(-1.55964e-09 -1.42466e-09 -1.48792e-10)
(-2.98343e-09 -2.78549e-09 -2.96684e-10)
(-4.23998e-09 -4.10677e-09 -4.51745e-10)
(-5.34249e-09 -5.44847e-09 -6.26075e-10)
(-6.29344e-09 -6.86101e-09 -8.31822e-10)
(-7.08201e-09 -8.38689e-09 -1.08185e-09)
(-7.68038e-09 -1.00608e-08 -1.39003e-09)
(-8.03936e-09 -1.1908e-08 -1.77077e-09)
(-8.08351e-09 -1.39398e-08 -2.23729e-09)
(-7.70782e-09 -1.61456e-08 -2.79743e-09)
(-6.78086e-09 -1.84794e-08 -3.44533e-09)
(-5.16563e-09 -2.08389e-08 -4.14684e-09)
(-2.783e-09 -2.30427e-08 -4.81942e-09)
(2.30614e-10 -2.4825e-08 -5.32165e-09)
(3.1798e-09 -2.59059e-08 -5.51569e-09)
(8.24941e-09 -2.67725e-08 -5.05302e-09)
(0 0 0)
(-1.94836e-09 -1.67907e-09 -1.73551e-10)
(-3.73324e-09 -3.28298e-09 -3.45327e-10)
(-5.32202e-09 -4.84059e-09 -5.23976e-10)
(-6.73925e-09 -6.42304e-09 -7.22659e-10)
(-7.99945e-09 -8.09077e-09 -9.54199e-10)
(-9.10606e-09 -9.89611e-09 -1.23165e-09)
(-1.00501e-08 -1.18847e-08 -1.56833e-09)
(-1.0809e-08 -1.40958e-08 -1.97698e-09)
(-1.13453e-08 -1.65611e-08 -2.46738e-09)
(-1.16083e-08 -1.93009e-08 -3.04138e-09)
(-1.15375e-08 -2.23166e-08 -3.68358e-09)
(-1.10719e-08 -2.55701e-08 -4.34632e-09)
(-1.01669e-08 -2.89399e-08 -4.93099e-09)
(-8.83521e-09 -3.21292e-08 -5.28622e-09)
(-7.31515e-09 -3.45375e-08 -5.30164e-09)
(-3.66188e-09 -3.72555e-08 -4.45569e-09)
(0 0 0)
(-2.32742e-09 -1.87107e-09 -1.91781e-10)
(-4.4666e-09 -3.65838e-09 -3.80666e-10)
(-6.38583e-09 -5.39417e-09 -5.7524e-10)
(-8.12319e-09 -7.15781e-09 -7.88855e-10)
(-9.70804e-09 -9.01703e-09 -1.03404e-09)
(-1.11622e-08 -1.10312e-08 -1.32289e-09)
(-1.25014e-08 -1.32539e-08 -1.66679e-09)
(-1.37383e-08 -1.57345e-08 -2.07511e-09)
(-1.48872e-08 -1.852e-08 -2.55235e-09)
(-1.59721e-08 -2.16561e-08 -3.09246e-09)
(-1.70379e-08 -2.51851e-08 -3.66933e-09)
(-1.81588e-08 -2.91343e-08 -4.22222e-09)
(-1.94194e-08 -3.34683e-08 -4.64025e-09)
(-2.08081e-08 -3.79371e-08 -4.76922e-09)
(-2.19631e-08 -4.17033e-08 -4.53314e-09)
(-2.15334e-08 -4.62814e-08 -3.0494e-09)
(0 0 0)
(-2.68872e-09 -1.99351e-09 -2.03603e-10)
(-5.16701e-09 -3.89777e-09 -4.03028e-10)
(-7.40529e-09 -5.74696e-09 -6.06255e-10)
(-9.45556e-09 -7.62527e-09 -8.26106e-10)
(-1.13625e-08 -9.60424e-09 -1.07408e-09)
(-1.31665e-08 -1.17464e-08 -1.36053e-09)
(-1.49081e-08 -1.41081e-08 -1.69408e-09)
(-1.66341e-08 -1.67415e-08 -2.08005e-09)
(-1.84076e-08 -1.96974e-08 -2.51728e-09)
(-2.03227e-08 -2.30276e-08 -2.99243e-09)
(-2.25249e-08 -2.67868e-08 -3.47122e-09)
(-2.52315e-08 -3.10308e-08 -3.88655e-09)
(-2.87223e-08 -3.57933e-08 -4.12921e-09)
(-3.31924e-08 -4.09839e-08 -4.06607e-09)
(-3.80863e-08 -4.59234e-08 -3.67273e-09)
(-4.5318e-08 -5.37167e-08 -1.50138e-09)
(0 0 0)
(-3.02335e-09 -2.04188e-09 -2.09565e-10)
(-5.81655e-09 -3.99249e-09 -4.13624e-10)
(-8.35218e-09 -5.88653e-09 -6.1915e-10)
(-1.06949e-08 -7.80932e-09 -8.37908e-10)
(-1.29027e-08 -9.83259e-09 -1.0799e-09)
(-1.50316e-08 -1.20178e-08 -1.35335e-09)
(-1.71411e-08 -1.44184e-08 -1.66396e-09)
(-1.93025e-08 -1.70811e-08 -2.01319e-09)
(-2.16102e-08 -2.00465e-08 -2.39521e-09)
(-2.41975e-08 -2.33484e-08 -2.79185e-09)
(-2.72576e-08 -2.701e-08 -3.16561e-09)
(-3.10623e-08 -3.10304e-08 -3.45179e-09)
(-3.59541e-08 -3.53439e-08 -3.55597e-09)
(-4.22284e-08 -3.9697e-08 -3.37623e-09)
(-4.97394e-08 -4.31985e-08 -2.88376e-09)
(-7.8555e-08 -5.80926e-08 -2.08327e-09)
(0 0 0)
(0 0 0)
(0 0 0)
(0 0 0)
(0 0 0)
(0 0 0)
(0 0 0)
(0 0 0)
(0 0 0)
(0 0 0)
(0 0 0)
(0 0 0)
(0 0 0)
(0 0 0)
(0 0 0)
(0 0 0)
(0 0 0)
(0 0 0)
(-3.97483e-10 -4.00199e-10 -3.26806e-11)
(-7.58286e-10 -7.82487e-10 -6.53524e-11)
(-1.07207e-09 -1.15352e-09 -9.99748e-11)
(-1.33916e-09 -1.5297e-09 -1.39415e-10)
(-1.5557e-09 -1.92419e-09 -1.86596e-10)
(-1.71198e-09 -2.34684e-09 -2.44634e-10)
(-1.7902e-09 -2.80318e-09 -3.16833e-10)
(-1.76163e-09 -3.29233e-09 -4.06438e-10)
(-1.58362e-09 -3.803e-09 -5.15902e-10)
(-1.19779e-09 -4.30708e-09 -6.45346e-10)
(-5.33023e-10 -4.75059e-09 -7.89803e-10)
(4.79388e-10 -5.04373e-09 -9.35149e-10)
(1.86512e-09 -5.05864e-09 -1.05436e-09)
(3.52124e-09 -4.66426e-09 -1.11098e-09)
(5.05807e-09 -3.89442e-09 -1.08739e-09)
(7.38975e-09 -4.96111e-10 -8.4891e-10)
(0 0 0)
(-7.96504e-10 -7.85618e-10 -6.38007e-11)
(-1.52079e-09 -1.53614e-09 -1.27491e-10)
(-2.15356e-09 -2.26477e-09 -1.94794e-10)
(-2.6972e-09 -3.00394e-09 -2.71178e-10)
(-3.14651e-09 -3.77997e-09 -3.62166e-10)
(-3.4858e-09 -4.61313e-09 -4.73563e-10)
(-3.68512e-09 -5.51621e-09 -6.11432e-10)
(-3.69532e-09 -6.49111e-09 -7.81568e-10)
(-3.44272e-09 -7.52246e-09 -9.88069e-10)
(-2.82552e-09 -8.5673e-09 -1.23042e-09)
(-1.71775e-09 -9.54087e-09 -1.49836e-09)
(6.53663e-12 -1.03022e-08 -1.76464e-09)
(2.40516e-09 -1.06557e-08 -1.97875e-09)
(5.31746e-09 -1.04151e-08 -2.07469e-09)
(8.07526e-09 -9.64405e-09 -2.02505e-09)
(1.29885e-08 -7.13927e-09 -1.62653e-09)
(0 0 0)
(-1.19749e-09 -1.14207e-09 -9.19702e-11)
(-2.28929e-09 -2.23322e-09 -1.83557e-10)
(-3.24955e-09 -3.29291e-09 -2.79889e-10)
(-4.08578e-09 -4.36876e-09 -3.88549e-10)
(-4.79578e-09 -5.49997e-09 -5.17063e-10)
(-5.36442e-09 -6.71791e-09 -6.7317e-10)
(-5.75941e-09 -8.045e-09 -8.64708e-10)
(-5.92577e-09 -9.49131e-09 -1.09877e-09)
(-5.77958e-09 -1.1048e-08 -1.3796e-09)
(-5.20308e-09 -1.26766e-08 -1.70454e-09)
(-4.04706e-09 -1.42937e-08 -2.05703e-09)
(-2.15427e-09 -1.57557e-08 -2.39722e-09)
(5.67308e-10 -1.68582e-08 -2.655e-09)
(3.96643e-09 -1.73944e-08 -2.74368e-09)
(7.27238e-09 -1.73477e-08 -2.63833e-09)
(1.30771e-08 -1.63912e-08 -2.0198e-09)
(0 0 0)
(-1.59864e-09 -1.45622e-09 -1.16079e-10)
(-3.06083e-09 -2.84764e-09 -2.31288e-10)