/*--------------------------------*- C++ -*----------------------------------*\
| =========                 |                                                 |
| \\      /  F ield         | foam-extend: Open Source CFD                    |
|  \\    /   O peration     | Version:     3.1                                |
|   \\  /    A nd           | Web:         http://www.extend-project.de       |
|    \\/     M anipulation  |                                                 |
\*---------------------------------------------------------------------------*/
FoamFile
{
    version     2.0;
    format      ascii;
    class       surfaceVectorField;
    location    "0.3";
    object      Sf;
}
// * * * * * * * * * * * * * * * * * * * * * * * * * * * * * * * * * * * * * //

dimensions      [0 2 0 0 0 0 0];

internalField   nonuniform List<vector> 
41600
(
(0.000625059 -1.10793e-06 -9.39511e-09)
(-6.02119e-08 0.000704232 -2.35994e-09)
(-2.8432e-08 -3.1986e-08 0.000703719)
(2.92352e-08 3.28896e-08 -0.000703707)
(0.000625118 -2.13593e-06 -1.82531e-08)
(-5.8948e-08 0.00070415 -7.11104e-09)
(-2.79548e-08 -9.54182e-08 0.000703748)
(2.87632e-08 9.8135e-08 -0.000703732)
(0.000625177 -3.07674e-06 -2.67456e-08)
(-6.01894e-08 0.000704061 -1.21015e-08)
(-2.87088e-08 -1.59154e-07 0.000703774)
(2.95685e-08 1.63747e-07 -0.000703753)
(0.000625242 -3.95557e-06 -3.53503e-08)
(-6.58072e-08 0.000703997 -1.77706e-08)
(-3.14445e-08 -2.26805e-07 0.000703816)
(3.24195e-08 2.33461e-07 -0.00070379)
(0.000625317 -4.79381e-06 -4.44873e-08)
(-7.62028e-08 0.000703954 -2.46803e-08)
(-3.61374e-08 -3.02797e-07 0.00070388)
(3.72918e-08 3.11847e-07 -0.000703846)
(0.000625408 -5.60948e-06 -5.45119e-08)
(-9.23388e-08 0.000703929 -3.35136e-08)
(-4.29148e-08 -3.91674e-07 0.000703968)
(4.43186e-08 4.036e-07 -0.000703924)
(0.000625522 -6.41731e-06 -6.57009e-08)
(-1.15824e-07 0.000703917 -4.51803e-08)
(-5.20614e-08 -4.9844e-07 0.000704087)
(5.37958e-08 5.13893e-07 -0.000704031)
(0.000625669 -7.2281e-06 -7.82346e-08)
(-1.49168e-07 0.000703916 -6.09458e-08)
(-6.40544e-08 -6.28957e-07 0.000704246)
(6.62198e-08 6.48791e-07 -0.000704173)
(0.000625862 -8.04745e-06 -9.21776e-08)
(-1.96004e-07 0.000703919 -8.26619e-08)
(-7.96579e-08 -7.90477e-07 0.000704456)
(8.23873e-08 8.15808e-07 -0.00070436)
(0.00062612 -8.87353e-06 -1.07513e-07)
(-2.61627e-07 0.000703919 -1.13171e-07)
(-1.00126e-07 -9.92516e-07 0.000704733)
(1.03609e-07 1.02482e-06 -0.000704604)
(0.000626469 -9.69446e-06 -1.24372e-07)
(-3.53744e-07 0.000703905 -1.57029e-07)
(-1.27622e-07 -1.24842e-06 0.000705098)
(1.32152e-07 1.28972e-06 -0.000704924)
(0.000626947 -1.0486e-05 -1.43832e-07)
(-4.83325e-07 0.000703863 -2.21966e-07)
(-1.65992e-07 -1.57828e-06 0.000705587)
(1.72057e-07 1.63143e-06 -0.000705346)
(0.000627602 -1.1213e-05 -1.70165e-07)
(-6.64017e-07 0.000703783 -3.21693e-07)
(-2.21576e-07 -2.01356e-06 0.000706252)
(2.30137e-07 2.08305e-06 -0.000705904)
(0.000628485 -1.18371e-05 -2.15486e-07)
(-8.97375e-07 0.000703654 -4.79271e-07)
(-2.99823e-07 -2.59902e-06 0.000707166)
(3.13927e-07 2.69369e-06 -0.000706641)
(0.000629507 -1.23051e-05 -3.02502e-07)
(-1.06242e-06 0.000703438 -7.1308e-07)
(-3.662e-07 -3.34733e-06 0.000708327)
(4.06797e-07 3.50237e-06 -0.000707527)
(-5.22394e-06 0.000703205 9.01794e-07)
(-1.23609e-06 -5.13672e-06 0.000711806)
(2.7354e-06 6.99748e-06 -0.00071257)
(0.000625054 -1.08836e-06 -2.79334e-08)
(-1.16931e-07 0.00070532 -4.58767e-09)
(-8.44407e-08 -3.10234e-08 0.000704824)
(8.68271e-08 3.19007e-08 -0.000704794)
(0.000625107 -2.09778e-06 -5.42621e-08)
(-1.14309e-07 0.000705157 -1.38148e-08)
(-8.29825e-08 -9.24954e-08 0.000704769)
(8.53832e-08 9.51316e-08 -0.000704736)
(0.000625161 -3.02082e-06 -7.9491e-08)
(-1.16362e-07 0.00070498 -2.34846e-08)
(-8.51387e-08 -1.54108e-07 0.000704703)
(8.76897e-08 1.5856e-07 -0.000704667)
(0.000625219 -3.88199e-06 -1.05037e-07)
(-1.26675e-07 0.000704852 -3.44306e-08)
(-9.31261e-08 -2.19247e-07 0.000704679)
(9.60161e-08 2.25691e-07 -0.000704637)
(0.000625285 -4.70214e-06 -1.32148e-07)
(-1.45929e-07 0.000704766 -4.77081e-08)
(-1.06845e-07 -2.92048e-07 0.000704695)
(1.10263e-07 3.00793e-07 -0.000704645)
(0.000625364 -5.49897e-06 -1.61878e-07)
(-1.75756e-07 0.000704714 -6.46013e-08)
(-1.26626e-07 -3.76671e-07 0.000704752)
(1.30776e-07 3.88168e-07 -0.000704691)
(0.000625463 -6.28714e-06 -1.9505e-07)
(-2.18989e-07 0.000704691 -8.67881e-08)
(-1.53224e-07 -4.77567e-07 0.000704852)
(1.58341e-07 4.9242e-07 -0.000704777)
(0.000625587 -7.07789e-06 -2.32185e-07)
(-2.79869e-07 0.000704688 -1.16562e-07)
(-1.87882e-07 -5.99713e-07 0.000704996)
(1.94257e-07 6.18709e-07 -0.000704903)
(0.000625747 -7.8777e-06 -2.73417e-07)
(-3.64359e-07 0.000704695 -1.57217e-07)
(-2.32515e-07 -7.48831e-07 0.000705188)
(2.40528e-07 7.72983e-07 -0.000705073)
(0.000625956 -8.68607e-06 -3.1848e-07)
(-4.80618e-07 0.000704697 -2.13643e-07)
(-2.90083e-07 -9.31563e-07 0.000705431)
(3.00273e-07 9.6219e-07 -0.000705286)
(0.000626228 -9.4917e-06 -3.67077e-07)
(-6.39051e-07 0.000704671 -2.93348e-07)
(-3.65297e-07 -1.15544e-06 0.000705726)
(3.78493e-07 1.19431e-06 -0.000705542)
(0.000626578 -1.02669e-05 -4.20401e-07)
(-8.51046e-07 0.000704589 -4.08272e-07)
(-4.65609e-07 -1.42809e-06 0.000706074)
(4.8319e-07 1.47767e-06 -0.000705835)
(0.000627011 -1.096e-05 -4.85567e-07)
(-1.12133e-06 0.000704412 -5.7782e-07)
(-6.00884e-07 -1.75361e-06 0.00070647)
(6.25475e-07 1.81757e-06 -0.000706149)
(0.000627488 -1.14869e-05 -5.84684e-07)
(-1.41336e-06 0.000704097 -8.31391e-07)
(-7.70514e-07 -2.12013e-06 0.000706892)
(8.0972e-07 2.20447e-06 -0.000706441)
(0.000627819 -1.17385e-05 -7.62648e-07)
(-1.49434e-06 0.000703572 -1.19321e-06)
(-8.7328e-07 -2.46858e-06 0.000707235)
(9.74078e-07 2.58583e-06 -0.000706577)
(-3.73292e-06 0.000702095 -2.296e-07)
(-2.17269e-06 -2.27078e-06 0.000707442)
(4.43347e-06 1.54117e-06 -0.00070603)
(0.000625046 -1.04985e-06 -4.57266e-08)
(-1.67009e-07 0.000706369 -6.5593e-09)
(-1.37948e-07 -2.91686e-08 0.000705898)
(1.41848e-07 2.9995e-08 -0.000705851)
(0.000625091 -2.02273e-06 -8.88002e-08)
(-1.62864e-07 0.000706127 -1.97354e-08)
(-1.35434e-07 -8.68734e-08 0.000705757)
(1.39355e-07 8.93543e-08 -0.000705708)
(0.000625135 -2.91078e-06 -1.30029e-07)
(-1.6496e-07 0.000705864 -3.34928e-08)
(-1.3869e-07 -1.44432e-07 0.000705597)
(1.4285e-07 1.48615e-07 -0.000705546)
(0.000625182 -3.73714e-06 -1.71723e-07)
(-1.78324e-07 0.000705672 -4.89719e-08)
(-1.51301e-07 -2.0482e-07 0.000705501)
(1.56004e-07 2.10856e-07 -0.000705445)
(0.000625234 -4.52156e-06 -2.15916e-07)
(-2.0365e-07 0.000705542 -6.76161e-08)
(-1.73027e-07 -2.71644e-07 0.000705464)
(1.78574e-07 2.79806e-07 -0.0007054)
(0.000625295 -5.281e-06 -2.64332e-07)
(-2.42845e-07 0.000705463 -9.11538e-08)
(-2.04265e-07 -3.48398e-07 0.000705481)
(2.10981e-07 3.59079e-07 -0.000705406)
(0.000625367 -6.02997e-06 -3.18322e-07)
(-2.99272e-07 0.000705426 -1.2179e-07)
(-2.45991e-07 -4.386e-07 0.000705548)
(2.54243e-07 4.52319e-07 -0.000705459)
(0.000625454 -6.78037e-06 -3.78726e-07)
(-3.77776e-07 0.000705421 -1.62474e-07)
(-2.9976e-07 -5.45822e-07 0.000705663)
(3.09993e-07 5.63239e-07 -0.000705557)
(0.000625562 -7.54066e-06 -4.45651e-07)
(-4.84887e-07 0.000705433 -2.17319e-07)
(-3.67766e-07 -6.73525e-07 0.000705818)
(3.80554e-07 6.95462e-07 -0.000705691)
(0.000625694 -8.31389e-06 -5.18223e-07)
(-6.28685e-07 0.000705442 -2.92212e-07)
(-4.52936e-07 -8.24472e-07 0.000706001)
(4.69081e-07 8.51953e-07 -0.00070585)
(0.000625852 -9.0938e-06 -5.94495e-07)
(-8.17456e-07 0.000705417 -3.95752e-07)
(-5.58952e-07 -9.99246e-07 0.000706192)
(5.79672e-07 1.03357e-06 -0.000706013)
(0.000626029 -9.8577e-06 -6.72204e-07)
(-1.05546e-06 0.00070531 -5.40784e-07)
(-6.89488e-07 -1.19279e-06 0.000706352)
(7.16775e-07 1.23564e-06 -0.000706142)
(0.0006262 -1.05553e-05 -7.51885e-07)
(-1.32953e-06 0.000705056 -7.46828e-07)
(-8.43653e-07 -1.38715e-06 0.00070642)
(8.8112e-07 1.44071e-06 -0.000706171)
(0.000626298 -1.10984e-05 -8.44224e-07)
(-1.56837e-06 0.000704573 -1.04247e-06)
(-9.94876e-07 -1.53959e-06 0.0007063)
(1.05167e-06 1.60628e-06 -0.000705997)
(0.000626183 -1.1384e-05 -9.82905e-07)
(-1.50368e-06 0.000703781 -1.46111e-06)
(-1.00193e-06 -1.58459e-06 0.000705886)
(1.12603e-06 1.66149e-06 -0.000705479)
(-3.82486e-06 0.00070244 -4.15731e-07)
(-1.67078e-06 -1.32869e-06 0.000705336)
(3.12877e-06 1.31502e-06 -0.000705022)
(0.000625036 -9.93602e-07 -6.23132e-08)
(-2.07929e-07 0.000707361 -8.18081e-09)
(-1.87479e-07 -2.6544e-08 0.000706923)
(1.92785e-07 2.72982e-08 -0.000706859)
(0.00062507 -1.91312e-06 -1.20956e-07)
(-2.0209e-07 0.000707045 -2.45844e-08)
(-1.83803e-07 -7.89312e-08 0.000706695)
(1.8913e-07 8.11922e-08 -0.000706631)
(0.000625102 -2.7501e-06 -1.76992e-07)
(-2.03304e-07 0.000706697 -4.16199e-08)
(-1.87703e-07 -1.30808e-07 0.000706439)
(1.93342e-07 1.34609e-07 -0.000706375)
(0.000625135 -3.52562e-06 -2.3354e-07)
(-2.17647e-07 0.000706442 -6.06375e-08)
(-2.0399e-07 -1.846e-07 0.000706269)
(2.10345e-07 1.90063e-07 -0.0007062)
(0.00062517 -4.25767e-06 -2.9336e-07)
(-2.45553e-07 0.000706267 -8.33399e-08)
(-2.32198e-07 -2.43233e-07 0.000706172)
(2.39667e-07 2.50578e-07 -0.000706097)
(0.000625207 -4.96196e-06 -3.588e-07)
(-2.8881e-07 0.000706158 -1.11703e-07)
(-2.72624e-07 -3.0937e-07 0.000706142)
(2.81627e-07 3.18913e-07 -0.000706056)
(0.000625247 -5.65242e-06 -4.31721e-07)
(-3.50513e-07 0.000706104 -1.48182e-07)
(-3.26176e-07 -3.85449e-07 0.000706169)
(3.37179e-07 3.97596e-07 -0.00070607)
(0.000625291 -6.34151e-06 -5.13296e-07)
(-4.35106e-07 0.000706095 -1.95978e-07)
(-3.94231e-07 -4.73558e-07 0.000706244)
(4.07784e-07 4.88801e-07 -0.000706129)
(0.000625337 -7.04021e-06 -6.03653e-07)
(-5.48251e-07 0.000706113 -2.59424e-07)
(-4.78426e-07 -5.75035e-07 0.000706351)
(4.95215e-07 5.93947e-07 -0.000706219)
(0.000625384 -7.75718e-06 -7.01279e-07)
(-6.96084e-07 0.000706136 -3.44532e-07)
(-5.80221e-07 -6.89583e-07 0.00070647)
(6.01178e-07 7.12804e-07 -0.00070632)
(0.000625423 -8.49649e-06 -8.02215e-07)
(-8.8311e-07 0.000706128 -4.59806e-07)
(-6.99832e-07 -8.13459e-07 0.00070656)
(7.26339e-07 8.41676e-07 -0.000706395)
(0.00062544 -9.25204e-06 -8.99326e-07)
(-1.10657e-06 0.000706032 -6.17601e-07)
(-8.33438e-07 -9.36151e-07 0.000706559)
(8.67708e-07 9.70066e-07 -0.000706385)
(0.000625407 -9.99665e-06 -9.82827e-07)
(-1.34291e-06 0.00070576 -8.3665e-07)
(-9.65651e-07 -1.03543e-06 0.000706372)
(1.01153e-06 1.07566e-06 -0.000706199)
(0.000625286 -1.06668e-05 -1.04472e-06)
(-1.51373e-06 0.000705197 -1.1465e-06)
(-1.04874e-06 -1.07475e-06 0.00070588)
(1.11494e-06 1.12119e-06 -0.000705714)
(0.000625031 -1.11609e-05 -1.09333e-06)
(-1.37445e-06 0.000704228 -1.59554e-06)
(-9.44387e-07 -1.02423e-06 0.000705012)
(1.07076e-06 1.07108e-06 -0.000704829)
(-3.47791e-06 0.000703075 -6.10703e-07)
(-1.2826e-06 -7.586e-07 0.000704128)
(2.5113e-06 5.95378e-07 -0.000704127)
(0.000625024 -9.2154e-07 -7.72881e-08)
(-2.38014e-07 0.000708282 -9.38559e-09)
(-2.31824e-07 -2.33224e-08 0.000707882)
(2.38392e-07 2.39872e-08 -0.000707803)
(0.000625045 -1.77278e-06 -1.49931e-07)
(-2.30376e-07 0.000707894 -2.81624e-08)
(-2.26869e-07 -6.92008e-08 0.000707568)
(2.33452e-07 7.119e-08 -0.000707492)
(0.000625065 -2.5445e-06 -2.19176e-07)
(-2.29807e-07 0.000707465 -4.75392e-08)
(-2.30865e-07 -1.14176e-07 0.000707218)
(2.37814e-07 1.17507e-07 -0.000707143)
(0.000625082 -3.25499e-06 -2.88845e-07)
(-2.43002e-07 0.000707148 -6.89759e-08)
(-2.49679e-07 -1.6005e-07 0.000706971)
(2.57479e-07 1.6481e-07 -0.000706893)
(0.000625098 -3.91987e-06 -3.62326e-07)
(-2.69965e-07 0.000706925 -9.42865e-08)
(-2.82543e-07 -2.08987e-07 0.000706812)
(2.91667e-07 2.15337e-07 -0.000706727)
(0.00062511 -4.55282e-06 -4.42528e-07)
(-3.11908e-07 0.000706782 -1.2551e-07)
(-3.29504e-07 -2.62782e-07 0.000706728)
(3.40439e-07 2.70949e-07 -0.000706634)
(0.000625117 -5.1664e-06 -5.31797e-07)
(-3.71141e-07 0.000706708 -1.65087e-07)
(-3.91169e-07 -3.2283e-07 0.000706708)
(4.04442e-07 3.33093e-07 -0.000706602)
(0.000625117 -5.77278e-06 -6.31706e-07)
(-4.50945e-07 0.000706688 -2.16108e-07)
(-4.68402e-07 -3.89941e-07 0.000706737)
(4.84609e-07 4.02609e-07 -0.000706617)
(0.000625104 -6.38462e-06 -7.4261e-07)
(-5.5527e-07 0.000706709 -2.82665e-07)
(-5.61845e-07 -4.63949e-07 0.000706796)
(5.81694e-07 4.79328e-07 -0.000706662)
(0.000625071 -7.01599e-06 -8.62834e-07)
(-6.87839e-07 0.000706749 -3.7034e-07)
(-6.71016e-07 -5.42985e-07 0.000706856)
(6.95421e-07 5.61313e-07 -0.00070671)
(0.000625008 -7.68294e-06 -9.87318e-07)
(-8.50064e-07 0.000706774 -4.87016e-07)
(-7.92457e-07 -6.22264e-07 0.000706872)
(8.22717e-07 6.43611e-07 -0.00070672)
(0.000624899 -8.40167e-06 -1.10559e-06)
(-1.03625e-06 0.000706726 -6.44401e-07)
(-9.15868e-07 -6.92362e-07 0.000706774)
(9.54031e-07 7.16483e-07 -0.000706629)
(0.00062473 -9.17912e-06 -1.19961e-06)
(-1.22269e-06 0.000706511 -8.61228e-07)
(-1.01614e-06 -7.37613e-07 0.000706455)
(1.06576e-06 7.63777e-07 -0.000706337)
(0.000624487 -9.98308e-06 -1.24354e-06)
(-1.3403e-06 0.000705974 -1.16964e-06)
(-1.03744e-06 -7.37811e-07 0.000705777)
(1.1065e-06 7.64612e-07 -0.00070571)
(0.000624166 -1.06806e-05 -1.20695e-06)
(-1.17612e-06 0.000704902 -1.63051e-06)
(-8.62403e-07 -6.84199e-07 0.00070462)
(9.8511e-07 7.07625e-07 -0.000704622)
(-3.10747e-06 0.000703967 -6.59302e-07)
(-9.92311e-07 -5.19726e-07 0.000703627)
(1.97494e-06 4.3714e-07 -0.000704059)
(0.000625011 -8.36064e-07 -9.03253e-08)
(-2.56493e-07 0.000709118 -1.01389e-08)
(-2.70101e-07 -1.97015e-08 0.00070876)
(2.77761e-07 2.02651e-08 -0.000708669)
(0.00062502 -1.60648e-06 -1.75081e-07)
(-2.47077e-07 0.000708663 -3.03748e-08)
(-2.63762e-07 -5.82874e-08 0.000708365)
(2.71427e-07 5.99691e-08 -0.000708278)
(0.000625026 -2.30113e-06 -2.55615e-07)
(-2.44039e-07 0.000708157 -5.1114e-08)
(-2.67282e-07 -9.55973e-08 0.000707922)
(2.75343e-07 9.83984e-08 -0.000707838)
(0.000625028 -2.93493e-06 -3.36312e-07)
(-2.54283e-07 0.000707778 -7.38285e-08)
(-2.87394e-07 -1.32789e-07 0.000707599)
(2.964e-07 1.36759e-07 -0.000707513)
(0.000625025 -3.52039e-06 -4.21064e-07)
(-2.77267e-07 0.000707505 -1.00316e-07)
(-3.22982e-07 -1.71255e-07 0.000707375)
(3.33456e-07 1.76495e-07 -0.000707284)
(0.000625014 -4.06836e-06 -5.13237e-07)
(-3.13361e-07 0.000707324 -1.32503e-07)
(-3.73742e-07 -2.11964e-07 0.000707234)
(3.86212e-07 2.1861e-07 -0.000707135)
(0.000624992 -4.58885e-06 -6.1561e-07)
(-3.63724e-07 0.00070722 -1.7261e-07)
(-4.39842e-07 -2.55394e-07 0.000707162)
(4.54856e-07 2.63597e-07 -0.000707052)
(0.000624953 -5.09202e-06 -7.3019e-07)
(-4.30075e-07 0.000707182 -2.23355e-07)
(-5.21501e-07 -3.01374e-07 0.000707141)
(5.39647e-07 3.11271e-07 -0.000707019)
(0.00062489 -5.58967e-06 -8.57803e-07)
(-5.14317e-07 0.000707195 -2.88262e-07)
(-6.18351e-07 -3.48832e-07 0.000707151)
(6.40277e-07 3.60485e-07 -0.000707018)
(0.000624793 -6.0976e-06 -9.97314e-07)
(-6.17909e-07 0.000707244 -3.72146e-07)
(-7.28323e-07 -3.9546e-07 0.000707163)
(7.54794e-07 4.08765e-07 -0.000707021)
(0.000624652 -6.63908e-06 -1.1442e-06)
(-7.40631e-07 0.000707301 -4.82005e-07)
(-8.45608e-07 -4.37432e-07 0.000707134)
(8.77626e-07 4.51944e-07 -0.000706992)
(0.000624455 -7.24903e-06 -1.28813e-06)
(-8.78209e-07 0.000707322 -6.29011e-07)
(-9.56837e-07 -4.69525e-07 0.000707001)
(9.95945e-07 4.84203e-07 -0.000706872)
(0.000624199 -7.97332e-06 -1.40889e-06)
(-1.01612e-06 0.000707223 -8.32978e-07)
(-1.03406e-06 -4.86424e-07 0.000706666)
(1.08314e-06 4.99326e-07 -0.000706574)
(0.0006239 -8.84046e-06 -1.46883e-06)
(-1.10799e-06 0.000706833 -1.13091e-06)
(-1.02214e-06 -4.85993e-07 0.000705982)
(1.08867e-06 4.94337e-07 -0.00070596)
(0.000623578 -9.74173e-06 -1.38214e-06)
(-9.71245e-07 0.000705802 -1.59469e-06)
(-8.17431e-07 -4.73651e-07 0.000704716)
(9.35184e-07 4.75244e-07 -0.000704838)
(-2.73184e-06 0.000705304 -6.52417e-07)
(-8.57062e-07 -4.29131e-07 0.000703854)
(1.72431e-06 3.73718e-07 -0.000704661)
(0.000624998 -7.39891e-07 -1.01192e-07)
(-2.63444e-07 0.000709857 -1.04435e-08)
(-3.01785e-07 -1.58865e-08 0.000709547)
(3.10353e-07 1.63423e-08 -0.000709445)
(0.000624995 -1.4197e-06 -1.95952e-07)
(-2.52452e-07 0.000709341 -3.12363e-08)
(-2.93992e-07 -4.68168e-08 0.000709075)
(3.02546e-07 4.81722e-08 -0.000708979)
(0.000624989 -2.02838e-06 -2.85634e-07)
(-2.46617e-07 0.000708764 -5.23956e-08)
(-2.96494e-07 -7.61608e-08 0.000708545)
(3.05454e-07 7.84018e-08 -0.000708454)
(0.000624977 -2.57696e-06 -3.75019e-07)
(-2.52718e-07 0.000708323 -7.5317e-08)
(-3.16707e-07 -1.04452e-07 0.000708146)
(3.26663e-07 1.07593e-07 -0.000708056)
(0.000624958 -3.07423e-06 -4.68348e-07)
(-2.69601e-07 0.000707998 -1.01673e-07)
(-3.53145e-07 -1.32354e-07 0.000707856)
(3.6465e-07 1.36435e-07 -0.000707762)
(0.000624928 -3.52741e-06 -5.693e-07)
(-2.96725e-07 0.000707772 -1.33171e-07)
(-4.05103e-07 -1.60088e-07 0.000707656)
(4.18696e-07 1.6516e-07 -0.000707554)
(0.000624882 -3.94275e-06 -6.80959e-07)
(-3.33947e-07 0.000707629 -1.71668e-07)
(-4.72256e-07 -1.87362e-07 0.000707527)
(4.88477e-07 1.93464e-07 -0.000707417)
(0.000624814 -4.32633e-06 -8.05691e-07)
(-3.81291e-07 0.000707558 -2.19343e-07)
(-5.54188e-07 -2.13256e-07 0.000707453)
(5.73576e-07 2.20378e-07 -0.000707332)
(0.000624715 -4.68541e-06 -9.44851e-07)
(-4.38568e-07 0.000707546 -2.78949e-07)
(-6.49718e-07 -2.36122e-07 0.000707412)
(6.72807e-07 2.44144e-07 -0.000707282)
(0.000624575 -5.03082e-06 -1.09823e-06)
(-5.05061e-07 0.000707581 -3.54243e-07)
(-7.55845e-07 -2.53581e-07 0.000707377)
(7.83171e-07 2.62167e-07 -0.000707241)
(0.000624381 -5.38133e-06 -1.26312e-06)
(-5.79393e-07 0.000707643 -4.50915e-07)
(-8.66018e-07 -2.62909e-07 0.000707313)
(8.98152e-07 2.7132e-07 -0.000707179)
(0.000624125 -5.7717e-06 -1.4326e-06)
(-6.59899e-07 0.000707705 -5.78945e-07)
(-9.67215e-07 -2.62413e-07 0.000707171)
(1.00494e-06 2.69159e-07 -0.000707052)
(0.00062381 -6.26575e-06 -1.59239e-06)
(-7.45864e-07 0.000707715 -7.58612e-07)
(-1.03478e-06 -2.54852e-07 0.000706878)
(1.07976e-06 2.57086e-07 -0.000706793)
(0.000623475 -6.96514e-06 -1.70923e-06)
(-8.31033e-07 0.00070754 -1.03393e-06)
(-1.0218e-06 -2.53521e-07 0.00070631)
(1.08019e-06 2.46245e-07 -0.00070629)
(0.000623194 -7.92136e-06 -1.6496e-06)
(-7.98204e-07 0.00070678 -1.49693e-06)
(-8.30709e-07 -2.8233e-07 0.000705166)
(9.38771e-07 2.6043e-07 -0.000705323)
(-2.51035e-06 0.000707939 -6.07518e-07)
(-8.9859e-07 -3.83913e-07 0.000705263)
(1.73557e-06 3.51162e-07 -0.000706454)
(0.000624987 -6.36271e-07 -1.09765e-07)
(-3.26711e-07 -1.20772e-08 0.000710233)
(3.35995e-07 1.24245e-08 -0.000710123)
(-2.59644e-07 0.000710493 -1.0328e-08)
(0.000624973 -1.21925e-06 -2.12314e-07)
(-3.17446e-07 -3.5402e-08 0.000709692)
(3.26693e-07 3.64295e-08 -0.000709589)
(-2.47482e-07 0.000709923 -3.08423e-08)
(0.000624955 -1.73704e-06 -3.08907e-07)
(-3.18475e-07 -5.69321e-08 0.000709081)
(3.28117e-07 5.8613e-08 -0.000708985)
(-2.38957e-07 0.00070928 -5.15717e-08)
(0.000624932 -2.19633e-06 -4.04541e-07)
(-3.3771e-07 -7.663e-08 0.000708611)
(3.48359e-07 7.89457e-08 -0.000708517)
(-2.40459e-07 0.00070878 -7.37693e-08)
(0.000624901 -2.6019e-06 -5.0363e-07)
(-3.73304e-07 -9.44977e-08 0.000708255)
(3.85521e-07 9.74353e-08 -0.000708158)
(-2.50263e-07 0.000708401 -9.89123e-08)
(0.000624857 -2.95693e-06 -6.09983e-07)
(-4.24138e-07 -1.10113e-07 0.000707992)
(4.38454e-07 1.13649e-07 -0.000707891)
(-2.66955e-07 0.000708123 -1.28425e-07)
(0.000624795 -3.26323e-06 -7.26794e-07)
(-4.89389e-07 -1.22545e-07 0.000707804)
(5.06312e-07 1.26625e-07 -0.000707695)
(-2.89192e-07 0.000707931 -1.63738e-07)
(0.000624709 -3.5215e-06 -8.56564e-07)
(-5.68055e-07 -1.30276e-07 0.00070767)
(5.88055e-07 1.34778e-07 -0.000707554)
(-3.15354e-07 0.000707812 -2.0642e-07)
(0.00062459 -3.73179e-06 -1.00092e-06)
(-6.58324e-07 -1.31152e-07 0.000707571)
(6.81807e-07 1.35843e-07 -0.000707448)
(-3.43241e-07 0.000707752 -2.58348e-07)
(0.000624428 -3.89425e-06 -1.1603e-06)
(-7.5669e-07 -1.22486e-07 0.000707481)
(7.83955e-07 1.2694e-07 -0.000707354)
(-3.69803e-07 0.000707739 -3.21975e-07)
(0.000624208 -4.01073e-06 -1.33353e-06)
(-8.56664e-07 -1.01463e-07 0.000707369)
(8.87872e-07 1.04936e-07 -0.000707246)
(-3.90921e-07 0.000707756 -4.00943e-07)
(0.000623915 -4.08767e-06 -1.51724e-06)
(-9.46832e-07 -6.62019e-08 0.000707188)
(9.82035e-07 6.74168e-08 -0.000707082)
(-4.01442e-07 0.000707781 -5.01577e-07)
(0.000623524 -4.14379e-06 -1.70507e-06)
(-1.00749e-06 -1.79587e-08 0.000706866)
(1.04707e-06 1.4703e-08 -0.0007068)
(-3.94516e-07 0.000707774 -6.36333e-07)
(0.000622995 -4.23744e-06 -1.88025e-06)
(-1.00262e-06 3.41508e-08 0.000706245)
(1.05032e-06 -4.62057e-08 -0.000706273)
(-3.50047e-07 0.000707645 -8.30393e-07)
(0.000622231 -4.61239e-06 -1.93829e-06)
(-8.5433e-07 5.56945e-08 0.000704916)
(9.40146e-07 -9.11567e-08 -0.000705228)
(-1.20199e-07 0.000707191 -1.12664e-06)
(-1.22415e-06 -2.30197e-07 0.000708546)
(2.09233e-06 1.95385e-07 -0.000710243)
(-3.32845e-06 0.000713513 -3.67037e-07)
(0.000625062 -1.12565e-06 -8.32307e-09)
(-6.4211e-08 0.000704249 -2.14447e-09)
(-2.65846e-08 -2.99077e-08 0.000703729)
(0.000625124 -2.1704e-06 -1.62047e-08)
(-6.29881e-08 0.000704164 -6.44734e-09)
(-2.61241e-08 -8.92024e-08 0.000703762)
(0.000625186 -3.12729e-06 -2.37726e-08)
(-6.45528e-08 0.000704071 -1.09194e-08)
(-2.68024e-08 -1.48735e-07 0.000703792)
(0.000625255 -4.02238e-06 -3.13997e-08)
(-7.09106e-08 0.000704005 -1.59087e-08)
(-2.93195e-08 -2.11852e-07 0.00070384)
(0.000625335 -4.8778e-06 -3.94082e-08)
(-8.25097e-08 0.00070396 -2.18446e-08)
(-3.36447e-08 -2.82652e-07 0.000703909)
(0.000625432 -5.71221e-06 -4.80565e-08)
(-1.00418e-07 0.000703933 -2.92064e-08)
(-3.98796e-08 -3.65314e-07 0.000704006)
(0.000625555 -6.54078e-06 -5.75238e-08)
(-1.26426e-07 0.00070392 -3.85691e-08)
(-4.82547e-08 -4.64391e-07 0.000704135)
(0.000625713 -7.3746e-06 -6.78948e-08)
(-1.63281e-07 0.000703915 -5.06243e-08)
(-5.91432e-08 -5.85111e-07 0.000704307)
(0.000625922 -8.21932e-06 -7.91523e-08)
(-2.15007e-07 0.000703913 -6.61824e-08)
(-7.31023e-08 -7.3375e-07 0.000704534)
(0.0006262 -9.07306e-06 -9.12254e-08)
(-2.87426e-07 0.000703904 -8.60946e-08)
(-9.09575e-08 -9.18135e-07 0.000704831)
(0.000626575 -9.92413e-06 -1.0418e-07)
(-3.88891e-07 0.000703876 -1.10816e-07)
(-1.13932e-07 -1.14839e-06 0.000705222)
(0.000627084 -1.07501e-05 -1.18692e-07)
(-5.30901e-07 0.000703811 -1.38936e-07)
(-1.43691e-07 -1.43791e-06 0.000705741)
(0.00062777 -1.15217e-05 -1.36769e-07)
(-7.26142e-07 0.000703686 -1.62555e-07)
(-1.81489e-07 -1.80335e-06 0.000706433)
(0.000628662 -1.22153e-05 -1.6146e-07)
(-9.692e-07 0.000703477 -1.55449e-07)
(-2.22626e-07 -2.25767e-06 0.000707346)
(0.000629647 -1.27987e-05 -1.91564e-07)
(-1.11939e-06 0.000703131 -6.5995e-08)
(-2.32169e-07 -2.76977e-06 0.000708423)
(-3.58488e-06 0.000703818 1.11563e-07)
(-5.6521e-07 -3.66734e-06 0.000711802)
(0.000625055 -1.10561e-06 -2.47488e-08)
(-1.24698e-07 0.000705352 -4.17064e-09)
(-7.89543e-08 -2.90077e-08 0.000704851)
(0.000625109 -2.13131e-06 -4.81793e-08)
(-1.22143e-07 0.000705183 -1.25315e-08)
(-7.75485e-08 -8.64704e-08 0.000704799)
(0.000625163 -3.06994e-06 -7.06659e-08)
(-1.24801e-07 0.000705 -2.12005e-08)
(-7.94855e-08 -1.4402e-07 0.000704736)
(0.000625223 -3.94685e-06 -9.33145e-08)
(-1.36507e-07 0.000704868 -3.08399e-08)
(-8.68339e-08 -2.04796e-07 0.000704717)
(0.000625291 -4.78359e-06 -1.1708e-07)
(-1.58016e-07 0.000704778 -4.22551e-08)
(-9.94781e-08 -2.72627e-07 0.000704739)
(0.000625373 -5.59845e-06 -1.42725e-07)
(-1.91172e-07 0.000704723 -5.63435e-08)
(-1.17677e-07 -3.51345e-07 0.000704805)
(0.000625474 -6.40656e-06 -1.70775e-07)
(-2.39086e-07 0.000704695 -7.41574e-08)
(-1.42038e-07 -4.45002e-07 0.000704915)
(0.000625603 -7.21933e-06 -2.01451e-07)
(-3.06422e-07 0.000704686 -9.69248e-08)
(-1.7352e-07 -5.58051e-07 0.000705073)
(0.000625769 -8.04318e-06 -2.34619e-07)
(-3.9976e-07 0.000704683 -1.26041e-07)
(-2.13485e-07 -6.9545e-07 0.000705281)
(0.000625983 -8.87705e-06 -2.69829e-07)
(-5.28005e-07 0.000704669 -1.6283e-07)
(-2.63782e-07 -8.62648e-07 0.000705543)
(0.000626258 -9.7085e-06 -3.06664e-07)
(-7.02297e-07 0.000704617 -2.07654e-07)
(-3.26768e-07 -1.06519e-06 0.00070586)
(0.0006266 -1.0508e-05 -3.45698e-07)
(-9.33943e-07 0.000704489 -2.57147e-07)
(-4.04734e-07 -1.30733e-06 0.000706231)
(0.000626993 -1.12211e-05 -3.90061e-07)
(-1.22414e-06 0.000704234 -2.96345e-07)
(-4.96362e-07 -1.5879e-06 0.000706648)
(0.000627358 -1.17605e-05 -4.4523e-07)
(-1.52297e-06 0.000703786 -2.81144e-07)
(-5.81433e-07 -1.88959e-06 0.000707073)
(0.000627512 -1.20185e-05 -5.10096e-07)
(-1.57809e-06 0.00070308 -1.35547e-07)
(-5.68369e-07 -2.15981e-06 0.000707369)
(-2.38048e-06 0.00070202 3.3883e-07)
(-1.02404e-06 -2.14991e-06 0.000707535)
(0.000625044 -1.06617e-06 -4.05191e-08)
(-1.78103e-07 0.000706416 -5.96656e-09)
(-1.28985e-07 -2.72733e-08 0.000705941)
(0.000625087 -2.05441e-06 -7.88596e-08)
(-1.74029e-07 0.000706166 -1.79124e-08)
(-1.26565e-07 -8.12142e-08 0.000705801)
(0.00062513 -2.95711e-06 -1.15618e-07)
(-1.76935e-07 0.000705893 -3.02555e-08)
(-1.29482e-07 -1.34978e-07 0.000705643)
(0.000625176 -3.7982e-06 -1.52593e-07)
(-1.9218e-07 0.000705695 -4.39029e-08)
(-1.41081e-07 -1.91323e-07 0.000705551)
(0.000625226 -4.59806e-06 -1.91337e-07)
(-2.20565e-07 0.000705559 -5.99493e-08)
(-1.61104e-07 -2.53592e-07 0.00070552)
(0.000625285 -5.37423e-06 -2.33088e-07)
(-2.64242e-07 0.000705475 -7.95985e-08)
(-1.89849e-07 -3.25007e-07 0.000705546)
(0.000625355 -6.14161e-06 -2.78684e-07)
(-3.26895e-07 0.000705433 -1.04213e-07)
(-2.28083e-07 -4.08783e-07 0.000705624)
(0.00062544 -6.91228e-06 -3.28421e-07)
(-4.1386e-07 0.000705419 -1.35326e-07)
(-2.76968e-07 -5.08132e-07 0.000705751)
(0.000625542 -7.69446e-06 -3.81876e-07)
(-5.3231e-07 0.000705418 -1.7458e-07)
(-3.37962e-07 -6.26069e-07 0.00070592)
(0.000625665 -8.49024e-06 -4.37745e-07)
(-6.90991e-07 0.000705405 -2.23308e-07)
(-4.12579e-07 -7.64823e-07 0.000706118)
(0.000625804 -9.29104e-06 -4.93874e-07)
(-8.98543e-07 0.000705343 -2.81255e-07)
(-5.01701e-07 -9.24443e-07 0.000706322)
(0.000625942 -1.00692e-05 -5.47796e-07)
(-1.15806e-06 0.000705175 -3.4295e-07)
(-6.03415e-07 -1.09986e-06 0.000706492)
(0.000626031 -1.07653e-05 -5.98036e-07)
(-1.45059e-06 0.000704818 -3.88338e-07)
(-7.0629e-07 -1.27548e-06 0.000706562)
(0.000625973 -1.1277e-05 -6.4522e-07)
(-1.68937e-06 0.000704177 -3.64232e-07)
(-7.69898e-07 -1.41861e-06 0.000706431)
(0.000625672 -1.14937e-05 -6.91791e-07)
(-1.59984e-06 0.000703199 -1.88281e-07)
(-6.79932e-07 -1.48633e-06 0.000705985)
(-2.2998e-06 0.000702141 3.85612e-07)
(-8.42042e-07 -1.40535e-06 0.000705614)
(0.000625031 -1.00857e-06 -5.52232e-08)
(-2.21753e-07 0.000707423 -7.44483e-09)
(-1.75297e-07 -2.48186e-08 0.00070698)
(0.000625061 -1.94212e-06 -1.07434e-07)
(-2.15958e-07 0.000707094 -2.23259e-08)
(-1.71767e-07 -7.3788e-08 0.000706752)
(0.00062509 -2.79243e-06 -1.5741e-07)
(-2.18082e-07 0.000706735 -3.76282e-08)
(-1.75242e-07 -1.22244e-07 0.000706496)
(0.000625119 -3.5812e-06 -2.07577e-07)
(-2.34602e-07 0.000706472 -5.4418e-08)
(-1.90215e-07 -1.72437e-07 0.000706329)
(0.000625148 -4.32706e-06 -2.60031e-07)
(-2.66067e-07 0.000706289 -7.39842e-08)
(-2.16211e-07 -2.2708e-07 0.000706239)
(0.000625179 -5.04619e-06 -3.16442e-07)
(-3.14461e-07 0.000706174 -9.76918e-08)
(-2.53418e-07 -2.88636e-07 0.000706217)
(0.000625212 -5.7529e-06 -3.77926e-07)
(-3.83214e-07 0.000706113 -1.27025e-07)
(-3.02518e-07 -3.59347e-07 0.000706253)
(0.000625245 -6.45986e-06 -4.44821e-07)
(-4.7721e-07 0.000706094 -1.63589e-07)
(-3.64467e-07 -4.41112e-07 0.000706339)
(0.000625278 -7.17785e-06 -5.16329e-07)
(-6.02646e-07 0.000706096 -2.08955e-07)
(-4.40147e-07 -5.35126e-07 0.000706457)
(0.000625302 -7.91466e-06 -5.9001e-07)
(-7.66144e-07 0.000706094 -2.64154e-07)
(-5.29649e-07 -6.41093e-07 0.000706584)
(0.000625307 -8.67199e-06 -6.6115e-07)
(-9.72153e-07 0.000706043 -3.28187e-07)
(-6.30689e-07 -7.55702e-07 0.000706678)
(0.000625266 -9.43838e-06 -7.22224e-07)
(-1.21617e-06 0.000705875 -3.94113e-07)
(-7.34974e-07 -8.70055e-07 0.000706671)
(0.000625138 -1.01763e-05 -7.63108e-07)
(-1.46841e-06 0.000705487 -4.39538e-07)
(-8.20022e-07 -9.66468e-07 0.000706464)
(0.00062487 -1.08066e-05 -7.74162e-07)
(-1.6369e-06 0.000704751 -4.08763e-07)
(-8.32562e-07 -1.01862e-06 0.000705936)
(0.000624477 -1.12161e-05 -7.62127e-07)
(-1.48378e-06 0.000703593 -2.19654e-07)
(-6.67398e-07 -1.00901e-06 0.000705032)
(-1.98359e-06 0.000702574 3.64888e-07)
(-6.8809e-07 -8.97587e-07 0.000704308)
(0.000625017 -9.34812e-07 -6.85035e-08)
(-2.53862e-07 0.000708357 -8.54588e-09)
(-2.16759e-07 -2.18059e-08 0.000707951)
(0.000625032 -1.79844e-06 -1.33197e-07)
(-2.46209e-07 0.000707953 -2.55942e-08)
(-2.12012e-07 -6.46903e-08 0.000707636)
(0.000625046 -2.58178e-06 -1.94982e-07)
(-2.46552e-07 0.000707511 -4.30223e-08)
(-2.1554e-07 -1.067e-07 0.000707285)
(0.000625056 -3.30371e-06 -2.56826e-07)
(-2.6203e-07 0.000707183 -6.19778e-08)
(-2.32824e-07 -1.49507e-07 0.00070704)
(0.000625063 -3.98031e-06 -3.2129e-07)
(-2.92717e-07 0.000706952 -8.3828e-08)
(-2.63105e-07 -1.95119e-07 0.000706886)
(0.000625066 -4.62572e-06 -3.90424e-07)
(-3.3998e-07 0.000706802 -1.09965e-07)
(-3.06336e-07 -2.45207e-07 0.00070681)
(0.000625061 -5.25283e-06 -4.656e-07)
(-4.06374e-07 0.000706719 -1.4183e-07)
(-3.62912e-07 -3.01068e-07 0.000706798)
(0.000625044 -5.87405e-06 -5.47218e-07)
(-4.95531e-07 0.000706688 -1.80882e-07)
(-4.33315e-07 -3.63473e-07 0.000706836)
(0.000625009 -6.50211e-06 -6.34196e-07)
(-6.11798e-07 0.000706693 -2.28423e-07)
(-5.17525e-07 -4.32327e-07 0.000706902)
(0.000624945 -7.15073e-06 -7.2311e-07)
(-7.59209e-07 0.000706705 -2.85052e-07)
(-6.13923e-07 -5.06075e-07 0.000706966)
(0.000624836 -7.83467e-06 -8.06851e-07)
(-9.39024e-07 0.000706685 -3.49226e-07)
(-7.1712e-07 -5.80761e-07 0.000706977)
(0.000624662 -8.56668e-06 -8.7275e-07)
(-1.14396e-06 0.000706563 -4.1357e-07)
(-8.13693e-07 -6.48842e-07 0.000706859)
(0.000624397 -9.34571e-06 -9.01047e-07)
(-1.34514e-06 0.000706227 -4.55954e-07)
(-8.74341e-07 -6.98518e-07 0.0007065)
(0.000624027 -1.01239e-05 -8.69007e-07)
(-1.46273e-06 0.000705507 -4.22649e-07)
(-8.42322e-07 -7.16222e-07 0.000705758)
(0.00062361 -1.0745e-05 -7.85458e-07)
(-1.2978e-06 0.000704228 -2.34891e-07)
(-6.30674e-07 -6.98475e-07 0.000704552)
(-1.62961e-06 0.000703276 3.30965e-07)