/*--------------------------------*- C++ -*----------------------------------*\
| =========                 |                                                 |
| \\      /  F ield         | foam-extend: Open Source CFD                    |
|  \\    /   O peration     | Version:     3.1                                |
|   \\  /    A nd           | Web:         http://www.extend-project.de       |
|    \\/     M anipulation  |                                                 |
\*---------------------------------------------------------------------------*/
FoamFile
{
    version     2.0;
    format      ascii;
    class       volVectorField;
    location    "0.3";
    object      U;
}
// * * * * * * * * * * * * * * * * * * * * * * * * * * * * * * * * * * * * * //

dimensions      [0 1 -1 0 0 0 0];

internalField   nonuniform List<vector> 
14592
(
(0.00707374 -0.00301047 -0.00403129)
(0.00908273 -0.00196891 -0.0045869)
(0.0110619 -0.00106964 -0.00411321)
(0.0121566 -0.000593648 -0.00353793)
(0.0127183 -0.00033273 -0.00302164)
(0.0130044 -0.000179914 -0.00259775)
(0.013127 -8.34802e-05 -0.00227472)
(0.0131421 -1.64659e-05 -0.00205587)
(0.0130767 3.65166e-05 -0.00194628)
(0.012939 8.57312e-05 -0.0019579)
(0.0127219 0.000139482 -0.00211606)
(0.0124001 0.000206721 -0.0024711)
(0.0119132 0.000300479 -0.00312179)
(0.0110675 0.000449381 -0.0042593)
(0.00943974 0.000718069 -0.00618683)
(0.00744157 0.00112114 -0.00802994)
(0.0126071 -0.00496658 -0.00537457)
(0.0141831 -0.00384429 -0.00633075)
(0.0158837 -0.00230649 -0.00568172)
(0.0169435 -0.00134741 -0.00486706)
(0.017527 -0.000775745 -0.00413891)
(0.0178281 -0.000426006 -0.00354365)
(0.0179497 -0.00020021 -0.00308962)
(0.0179479 -4.15921e-05 -0.00277867)
(0.0178505 8.44212e-05 -0.0026156)
(0.0176648 0.000201557 -0.00261455)
(0.0173801 0.000329596 -0.00280716)
(0.0169637 0.000489825 -0.0032572)
(0.0163418 0.000711801 -0.00408891)
(0.0152878 0.00104835 -0.0055318)
(0.0133152 0.00159899 -0.00787013)
(0.0108337 0.00238349 -0.00951865)
(0.0171064 -0.00640372 -0.00588792)
(0.0175302 -0.00547806 -0.00693161)
(0.0181424 -0.00350572 -0.00615138)
(0.0185909 -0.00212559 -0.00521336)
(0.0188488 -0.00124795 -0.00439491)
(0.0189669 -0.000688884 -0.00373571)
(0.0189839 -0.00031792 -0.00323569)
(0.0189237 -5.2001e-05 -0.00289057)
(0.018797 0.000162711 -0.00270075)
(0.0186028 0.000364576 -0.00267679)
(0.0183282 0.000586339 -0.00284651)
(0.0179436 0.000862993 -0.00326822)
(0.0173863 0.00124084 -0.00405599)
(0.016463 0.00179115 -0.00541557)
(0.0147503 0.00262374 -0.00756649)
(0.0126006 0.00363878 -0.00887152)
(0.0211538 -0.00652472 -0.00633319)
(0.0205715 -0.00595672 -0.00740812)
(0.0201083 -0.00397475 -0.00648511)
(0.0198602 -0.00247145 -0.00542566)
(0.0197042 -0.001468 -0.00452397)
(0.0195742 -0.00080544 -0.00380906)
(0.0194462 -0.000352669 -0.00326982)
(0.0193073 -1.94561e-05 -0.00289374)
(0.0191469 0.000256051 -0.00267481)
(0.0189541 0.000519826 -0.00261757)
(0.0187136 0.000811944 -0.00274249)
(0.0184018 0.00117507 -0.00309652)
(0.0179729 0.00166364 -0.00377365)
(0.0172805 0.00235483 -0.00494142)
(0.0159932 0.00335231 -0.00675385)
(0.0143747 0.00445846 -0.00769159)
(0.02456 -0.00572935 -0.00674273)
(0.0232263 -0.00545976 -0.00784984)
(0.0218948 -0.00374256 -0.00679327)
(0.0210323 -0.00236079 -0.00561659)
(0.0204857 -0.00140259 -0.00463278)
(0.020111 -0.000749099 -0.00386172)
(0.0198366 -0.000288353 -0.00328173)
(0.0196184 6.19451e-05 -0.00287178)
(0.0194272 0.000360896 -0.00261903)
(0.0192425 0.000654568 -0.00252085)
(0.0190478 0.000983969 -0.00258885)
(0.0188257 0.00139299 -0.00285643)
(0.0185475 0.00193658 -0.00339405)
(0.0181132 0.00268892 -0.00432723)
(0.0172795 0.00373902 -0.00574817)
(0.0162021 0.00482009 -0.00631664)
(0.0271896 -0.00437662 -0.00708115)
(0.0253331 -0.00428054 -0.00822214)
(0.0233681 -0.00297424 -0.00705593)
(0.0220302 -0.00187731 -0.00577897)
(0.0211676 -0.00109239 -0.00472267)
(0.0205898 -0.00053978 -0.00390029)
(0.0201926 -0.000135579 -0.00328137)
(0.0199096 0.000185267 -0.0028374)
(0.0196974 0.000471653 -0.00254866)
(0.0195287 0.00076328 -0.00240568)
(0.0193864 0.00109667 -0.00241086)
(0.0192597 0.00151162 -0.0025833)
(0.0191362 0.00205811 -0.00296912)
(0.018961 0.00280296 -0.00365112)
(0.0185741 0.00382313 -0.00466309)
(0.0180207 0.0048312 -0.00486111)
(0.028972 -0.0026823 -0.00731951)
(0.026787 -0.00264782 -0.00848727)
(0.0244138 -0.00183003 -0.0072431)
(0.022759 -0.00112197 -0.0058926)
(0.021681 -0.000598885 -0.00478145)
(0.0209637 -0.00021475 -0.00391848)
(0.0204838 8.27799e-05 -0.00326678)
(0.0201611 0.0003362 -0.00279194)
(0.0199431 0.000579236 -0.00246871)
(0.0197985 0.000840439 -0.00228123)
(0.0197111 0.00114747 -0.00222327)
(0.0196766 0.0015315 -0.00230026)
(0.0196986 0.00203257 -0.00253457)
(0.019767 0.00270574 -0.00296745)
(0.0198063 0.00361721 -0.00357743)
(0.0197662 0.00451612 -0.00341357)
(0.0298718 -0.000802698 -0.00744017)
(0.0275302 -0.000758511 -0.00862004)
(0.0249616 -0.000467532 -0.00733347)
(0.0231544 -0.000206299 -0.00594229)
(0.021974 2.81892e-06 -0.00479936)
(0.0211932 0.000176761 -0.00391082)
(0.0206805 0.000335233 -0.00323594)
(0.0203491 0.000495543 -0.00273648)
(0.0201432 0.000673033 -0.00238317)
(0.0200301 0.000882341 -0.00215513)
(0.0199955 0.00113911 -0.00203885)
(0.0200408 0.00146194 -0.00202786)
(0.0201836 0.00187526 -0.0021232)
(0.0204554 0.00241229 -0.00232825)
(0.0208701 0.00310664 -0.00257528)
(0.0213661 0.00379301 -0.00210335)
(0.0074994 -0.00322516 -0.00370554)
(0.00957118 -0.00211104 -0.00423937)
(0.0115726 -0.00114664 -0.00382446)
(0.0126283 -0.000635708 -0.00330959)
(0.0131201 -0.00035548 -0.00284315)
(0.0133241 -0.000191188 -0.00245767)
(0.0133593 -8.71457e-05 -0.00216273)
(0.0132828 -1.41738e-05 -0.00196289)
(0.0131179 4.45833e-05 -0.00186371)
(0.0128648 0.000100684 -0.00187585)
(0.0125018 0.000164071 -0.00201947)
(0.0119781 0.000246429 -0.00232998)
(0.0111909 0.000366293 -0.00286485)
(0.00988809 0.000564395 -0.00369907)
(0.00765129 0.000925547 -0.0047961)
(0.00534094 0.00139985 -0.0049327)
(0.0134043 -0.00531289 -0.00491933)
(0.0149801 -0.00412194 -0.0058392)
(0.0166403 -0.00247366 -0.00527614)
(0.0176166 -0.00144367 -0.00454864)
(0.0180924 -0.000829244 -0.00389145)
(0.0182763 -0.000452899 -0.00335036)
(0.0182768 -0.000209053 -0.0029358)
(0.0181502 -3.61777e-05 -0.00265166)
(0.0179191 0.000103691 -0.00250361)
(0.01758 0.000237357 -0.00250433)
(0.0171034 0.000388434 -0.00267885)
(0.0164243 0.00058423 -0.00307151)
(0.0154167 0.000865011 -0.00375296)
(0.0137891 0.00130246 -0.00480533)
(0.0110814 0.00201416 -0.00611082)
(0.00828508 0.0028849 -0.00584753)
(0.0182257 -0.00684166 -0.00536212)
(0.0185616 -0.00587227 -0.00637475)
(0.0190476 -0.00375969 -0.00570122)
(0.0193599 -0.00227745 -0.00486558)
(0.0194794 -0.00133389 -0.00412798)
(0.0194609 -0.000731973 -0.00352927)
(0.0193445 -0.000330989 -0.00307282)
(0.0191515 -4.07673e-05 -0.00275726)
(0.0188864 0.000197974 -0.0025844)
(0.0185373 0.000428738 -0.0025638)
(0.0180728 0.00069067 -0.00271715)
(0.0174336 0.00102842 -0.00308421)
(0.0165097 0.00150405 -0.00372795)
(0.0150523 0.00221214 -0.00471536)
(0.0126724 0.00327149 -0.00589717)
(0.0102565 0.00437619 -0.00543705)
(0.0225673 -0.00696435 -0.00574176)
(0.0218252 -0.00638366 -0.00679285)
(0.0211568 -0.00426224 -0.00599766)
(0.0207191 -0.00264769 -0.00505557)
(0.0203928 -0.00156859 -0.00424402)
(0.0201075 -0.000854833 -0.00359521)
(0.0198359 -0.000364861 -0.00310304)
(0.0195603 -4.70021e-07 -0.0027589)
(0.0192628 0.000306589 -0.00255887)
(0.0189218 0.000608826 -0.00250731)
(0.0185059 0.000954386 -0.00261971)
(0.0179657 0.00139788 -0.00292723)
(0.0172159 0.00201247 -0.0034799)
(0.0160654 0.00290097 -0.00432679)
(0.0142138 0.00417003 -0.00531155)
(0.0123661 0.00536657 -0.00474702)
(0.026222 -0.00611134 -0.00609171)
(0.0246762 -0.00585013 -0.00717996)
(0.0230766 -0.00401308 -0.00627049)
(0.0219778 -0.00252887 -0.0052254)
(0.0212316 -0.00149802 -0.00434074)
(0.0206843 -0.000793422 -0.00364134)
(0.0202574 -0.000293987 -0.00311191)
(0.0198999 9.01286e-05 -0.0027363)
(0.0195749 0.000424572 -0.00250472)
(0.0192521 0.00076227 -0.00241506)
(0.0189011 0.001153 -0.00247552)
(0.0184837 0.00165358 -0.00270718)
(0.0179398 0.0023389 -0.00314554)
(0.017135 0.0033097 -0.0038217)
(0.0158496 0.004655 -0.00458282)
(0.0145802 0.00582793 -0.00394825)
(0.0290439 -0.00466658 -0.0063815)
(0.0269393 -0.00458655 -0.00750642)
(0.0246603 -0.00318953 -0.00650297)
(0.0230501 -0.00201094 -0.00536954)
(0.0219647 -0.00116591 -0.00442018)
(0.0212002 -0.000569198 -0.00367437)
(0.0206437 -0.000129829 -0.0031092)
(0.0202206 0.000223532 -0.00270191)
(0.0198796 0.000545731 -0.00243658)
(0.0195845 0.000882878 -0.00230513)
(0.0193071 0.00128008 -0.00230815)
(0.0190209 0.00178998 -0.00245614)
(0.0186906 0.00248246 -0.0027697)
(0.0182363 0.00345104 -0.0032624)
(0.0175127 0.00477244 -0.00378973)
(0.0168062 0.00587318 -0.00309885)
(0.0309568 -0.00286007 -0.00658573)
(0.0285012 -0.00283812 -0.00773884)
(0.0257846 -0.00196347 -0.0066684)
(0.0238337 -0.00120215 -0.00547002)
(0.0225173 -0.000638123 -0.0044715)
(0.0216042 -0.000222032 -0.00368878)
(0.0209614 0.000103184 -0.00309331)
(0.0204998 0.000384562 -0.00265713)
(0.0201592 0.00066043 -0.00235928)
(0.0199006 0.000964841 -0.00218615)
(0.0196996 0.00133306 -0.00213118)
(0.0195415 0.00180799 -0.00219473)
(0.0194154 0.00244844 -0.00238282)
(0.0192965 0.00333604 -0.00269187)
(0.0191159 0.00454104 -0.00298754)
(0.0189685 0.00554507 -0.0022469)
(0.0319226 -0.000857667 -0.00668888)
(0.0292997 -0.000815483 -0.00785483)
(0.0263739 -0.000503712 -0.00674772)
(0.0242592 -0.000221901 -0.00551319)
(0.0228335 5.02604e-06 -0.00448593)
(0.0218537 0.000195537 -0.0036797)
(0.021178 0.000371538 -0.00306256)
(0.0207111 0.000552815 -0.00260307)
(0.0203897 0.000757669 -0.00227667)
(0.020175 0.00100474 -0.00206532)
(0.0200469 0.0013156 -0.00195642)
(0.0200017 0.00171837 -0.00194139)
(0.0200514 0.00225337 -0.00201285)
(0.0202256 0.00297831 -0.0021511)
(0.0205474 0.00393912 -0.00223481)
(0.0210147 0.00477242 -0.00147625)
(0.00786693 -0.00340969 -0.00328619)
(0.00999594 -0.00223404 -0.0037758)
(0.0120207 -0.00121365 -0.0034226)
(0.0130456 -0.000672458 -0.0029764)
(0.0134779 -0.000375387 -0.00256911)
(0.0136102 -0.000200993 -0.00223057)
(0.0135681 -9.01691e-05 -0.0019703)
(0.0134098 -1.18159e-05 -0.00179297)
(0.0131566 5.22072e-05 -0.00170329)
(0.0128039 0.000114569 -0.00170889)
(0.0123226 0.000186552 -0.00182229)
(0.0116532 0.000281855 -0.00206193)
(0.0106879 0.000422371 -0.00244952)
(0.00920115 0.000653498 -0.00299113)
(0.00689833 0.00106195 -0.00356109)
(0.00472831 0.00156812 -0.00324195)
(0.0140914 -0.00561033 -0.00434766)
(0.0156718 -0.00436246 -0.00519218)
(0.0173033 -0.00261929 -0.00471689)
(0.0182115 -0.00152785 -0.00408757)
(0.0185957 -0.000876081 -0.00351415)
(0.0186774 -0.000476291 -0.00303913)
(0.0185707 -0.000216357 -0.00267334)
(0.0183328 -3.06294e-05 -0.00242121)
(0.0179831 0.000121806 -0.0022876)
(0.0175115 0.000270323 -0.0022814)
(0.0168791 0.000441532 -0.00241792)
(0.0160101 0.000666876 -0.00271979)
(0.0147737 0.000992571 -0.00321225)
(0.0129162 0.00149662 -0.00389344)
(0.0101435 0.00229012 -0.00455713)
(0.00756976 0.00316872 -0.00386123)
(0.0191898 -0.00721767 -0.00471974)
(0.0194555 -0.00621399 -0.00565511)
(0.0198394 -0.00398108 -0.00508895)
(0.0200386 -0.00241029 -0.00436748)
(0.0200401 -0.00140911 -0.00372465)
(0.0199028 -0.000769376 -0.00319942)
(0.0196684 -0.000341607 -0.00279684)
(0.0193571 -2.94901e-05 -0.00251692)
(0.0189692 0.000231003 -0.00236125)
(0.018486 0.000487571 -0.00233615)
(0.0178671 0.000784243 -0.00245425)
(0.0170434 0.001172 -0.00273483)
(0.015902 0.00172099 -0.00319823)
(0.0142333 0.00253211 -0.00383421)
(0.0118089 0.00370539 -0.00441987)
(0.00962455 0.00478039 -0.00359193)
(0.0237843 -0.0073417 -0.00503544)
(0.0229109 -0.00675397 -0.00601161)
(0.022073 -0.00451298 -0.00534427)
(0.0214761 -0.00280186 -0.00453205)
(0.0210044 -0.00165654 -0.00382551)
(0.0205842 -0.00089751 -0.00325673)
(0.020186 -0.000374267 -0.00282281)
(0.0197886 1.83153e-05 -0.00251768)
(0.0193694 0.000353883 -0.00233796)
(0.0188998 0.00069042 -0.0022859)
(0.0183404 0.00108213 -0.00236946)
(0.0176335 0.00159131 -0.00260227)
(0.0166927 0.00230038 -0.00299782)
(0.0153626 0.00331806 -0.00353947)
(0.0134821 0.00472364 -0.0040115)
(0.0118422 0.00586692 -0.00314369)
(0.027653 -0.00643912 -0.00532701)
(0.0259312 -0.00618883 -0.00634128)
(0.0241083 -0.00424906 -0.00557854)
(0.0228104 -0.00267583 -0.00467834)
(0.0218937 -0.00158124 -0.00390871)
(0.0211965 -0.000831342 -0.00329588)
(0.0206353 -0.000297201 -0.00282919)
(0.020154 0.00011758 -0.00249608)
(0.01971 0.000484148 -0.00228863)
(0.0192668 0.000861169 -0.00220349)
(0.0187868 0.00130497 -0.00224336)
(0.0182252 0.00188067 -0.00241544)
(0.0175218 0.00267291 -0.00272598)
(0.0165725 0.0037881 -0.0031535)
(0.0152696 0.00528369 -0.00349975)
(0.0141729 0.00639331 -0.0026304)
(0.0306404 -0.00491525 -0.00556888)
(0.0283293 -0.004852 -0.00661938)
(0.0257881 -0.00337721 -0.00577805)
(0.0239479 -0.00212753 -0.00480227)
(0.0226719 -0.00122963 -0.00397668)
(0.0217455 -0.000593684 -0.00332333)
(0.0210489 -0.000122638 -0.00282513)
(0.0205015 0.000260269 -0.00246395)
(0.0200458 0.000615044 -0.0022266)
(0.0196398 0.000992987 -0.00210512)
(0.0192495 0.00144565 -0.00209657)
(0.0188436 0.00203393 -0.00220153)
(0.0183874 0.00283754 -0.00241897)
(0.0178248 0.00395596 -0.00272352)
(0.0170934 0.00543406 -0.00293915)
(0.0165208 0.00647146 -0.00208545)
(0.0326657 -0.00301227 -0.00573941)
(0.0299847 -0.00300289 -0.00681729)
(0.0269809 -0.00207942 -0.00591982)
(0.0247795 -0.00127161 -0.00488833)
(0.0232591 -0.000671414 -0.0040201)
(0.0221766 -0.000226713 -0.00333437)
(0.0213907 0.000123623 -0.00280933)
(0.0208058 0.000430573 -0.00242243)
(0.0203559 0.000736442 -0.00215622)
(0.0199968 0.00107975 -0.00199838)
(0.0196995 0.00150148 -0.00194078)
(0.0194464 0.0020521 -0.00197766)
(0.0192282 0.00279995 -0.00210091)
(0.0190381 0.0038337 -0.00228151)
(0.0188623 0.00519662 -0.00236732)
(0.0188129 0.00615232 -0.00153668)
(0.0336883 -0.000904268 -0.00582533)
(0.0308311 -0.00086417 -0.00691572)
(0.0276063 -0.000534388 -0.00598736)
(0.0252316 -0.000234426 -0.0049247)
(0.023596 8.47109e-06 -0.00403136)
(0.0224441 0.000214081 -0.00332483)
(0.0216255 0.00040624 -0.00278041)
(0.0210385 0.000606913 -0.0023726)
(0.0206141 0.000836945 -0.00208093)
(0.0203091 0.00111823 -0.0018896)
(0.0201005 0.0014768 -0.00178613)
(0.0199836 0.00194693 -0.00175914)
(0.019974 0.00257727 -0.00179396)
(0.0201161 0.00343344 -0.00185798)
(0.020469 0.00454484 -0.00182531)
(0.0210221 0.00537222 -0.00104486)
(0.00817486 -0.00356372 -0.00278995)
(0.0103537 -0.00233726 -0.00321629)
(0.0124008 -0.00127011 -0.00292641)
(0.0134019 -0.000703504 -0.00255482)
(0.0137851 -0.000392213 -0.00221354)
(0.0138571 -0.000209233 -0.00192845)
(0.0137493 -9.25986e-05 -0.00170812)
(0.0135216 -9.60529e-06 -0.00155665)
(0.0131946 5.89515e-05 -0.00147745)
(0.0127616 0.000126608 -0.00147501)
(0.012191 0.000205592 -0.0015555)
(0.0114234 0.000310801 -0.0017256)
(0.0103585 0.000465673 -0.00198765)
(0.00880289 0.000716729 -0.00232332)
(0.0065392 0.0011491 -0.00261877)
(0.00449328 0.00166924 -0.0022601)
(0.0146663 -0.00585838 -0.00368107)
(0.0162536 -0.0045644 -0.00441712)
(0.0178649 -0.00274207 -0.0040298)
(0.0187188 -0.001599 -0.00350644)
(0.0190274 -0.000915675 -0.00302625)
(0.0190232 -0.000495951 -0.00262636)
(0.0188257 -0.000222239 -0.00231678)
(0.0184934 -2.54568e-05 -0.00210154)
(0.0180443 0.000137758 -0.00198407)
(0.0174657 0.000298753 -0.00196942)
(0.0167155 0.000486252 -0.0020648)
(0.015718 0.000734157 -0.0022779)
(0.0143532 0.00109141 -0.00260976)
(0.0124107 0.00163716 -0.00303014)
(0.00969997 0.00247427 -0.00336219)
(0.00731037 0.00334742 -0.00270109)
(0.019996 -0.00753104 -0.00398315)
(0.0202065 -0.00650096 -0.00480203)
(0.0205094 -0.00416776 -0.00434228)
(0.0206167 -0.00252255 -0.00374319)
(0.0205207 -0.00147266 -0.00320539)
(0.0202836 -0.000800754 -0.00276351)
(0.0199492 -0.000350039 -0.00242296)
(0.0195375 -1.91255e-05 -0.00218421)
(0.0190467 0.000260008 -0.00204806)
(0.0184548 0.000538186 -0.00201749)
(0.0177188 0.000862874 -0.0020977)
(0.0167698 0.0012888 -0.00229406)
(0.0155063 0.00188968 -0.00260456)
(0.0137619 0.0027667 -0.00299413)
(0.0114083 0.00400257 -0.00327458)
(0.00941265 0.0050411 -0.00251459)
(0.024802 -0.00765604 -0.00423714)
(0.0238225 -0.00706504 -0.00509506)
(0.0228474 -0.00472446 -0.00455383)
(0.0221204 -0.00293214 -0.00388015)
(0.0215281 -0.00173077 -0.00328953)
(0.0209946 -0.000933174 -0.00281133)
(0.0204891 -0.000381374 -0.00244447)
(0.0199885 3.55323e-05 -0.00218446)
(0.0194671 0.000395428 -0.00202824)
(0.0188927 0.000760669 -0.00197556)
(0.0182236 0.00118961 -0.00202837)
(0.0174029 0.00174905 -0.0021886)
(0.0163545 0.00252535 -0.00245091)
(0.0149625 0.00362639 -0.00277841)
(0.0131523 0.00510699 -0.00298949)
(0.0116847 0.00619021 -0.00220152)
(0.0288495 -0.00671206 -0.00447212)
(0.0269847 -0.00647338 -0.00536574)
(0.02498 -0.00444811 -0.00474744)
(0.0235185 -0.00279993 -0.00400131)
(0.0224603 -0.00165133 -0.00335833)
(0.0216373 -0.000862758 -0.00284334)
(0.0209625 -0.000298766 -0.00244897)
(0.020376 0.000142511 -0.00216554)
(0.0198317 0.000536536 -0.00198606)
(0.0192899 0.000946511 -0.00190631)
(0.0187103 0.00143325 -0.00192456)
(0.0180492 0.00206667 -0.00203896)
(0.0172555 0.00293546 -0.00224094)
(0.0162582 0.00414451 -0.00249359)
(0.0150194 0.00572276 -0.00262982)
(0.0140693 0.00675939 -0.00184523)
(0.0319754 -0.00512218 -0.00466734)
(0.029496 -0.00507492 -0.0055941)
(0.0267407 -0.0035354 -0.00491223)
(0.0247111 -0.0022258 -0.00410377)
(0.0232768 -0.00128299 -0.00341428)
(0.0222147 -0.000613466 -0.00286536)
(0.0213997 -0.000115102 -0.00244447)
(0.0207465 0.000293312 -0.00213733)
(0.0201938 0.000676076 -0.00193292)
(0.0196962 0.00108831 -0.00182345)
(0.0192177 0.00158601 -0.00180337)
(0.0187279 0.00223485 -0.001867)
(0.0181997 0.00311864 -0.00200273)
(0.017603 0.00433542 -0.00217461)
(0.0169274 0.00590077 -0.00223393)
(0.0164716 0.00686259 -0.00146848)
(0.0340946 -0.00313871 -0.00480502)
(0.0312297 -0.00314103 -0.00575654)
(0.0279913 -0.00217687 -0.00502918)
(0.0255834 -0.00132979 -0.00417469)
(0.0238936 -0.000698759 -0.00344965)
(0.022669 -0.000229445 -0.00287355)
(0.0217622 0.000142667 -0.00242998)
(0.0210726 0.000471811 -0.00210111)
(0.02053 0.000803509 -0.00187256)
(0.020087 0.00117963 -0.00173329)
(0.0197132 0.00164502 -0.00167427)
(0.019392 0.00225454 -0.0016862)
(0.0191206 0.00308061 -0.00175457)
(0.0189113 0.00421158 -0.00184461)
(0.0187847 0.00566477 -0.00182762)
(0.0188236 0.00655566 -0.0010894)
(0.0351647 -0.000942636 -0.00487423)
(0.0321163 -0.0009045 -0.00583708)
(0.0286471 -0.000559591 -0.00508456)
(0.0260581 -0.000244165 -0.00420421)
(0.0242483 1.25057e-05 -0.00345813)
(0.0229522 0.000231278 -0.00286444)
(0.0220129 0.0004376 -0.00240441)
(0.0213238 0.000655234 -0.0020578)
(0.0208117 0.000907039 -0.00180789)
(0.0204309 0.00121732 -0.00164108)
(0.0201571 0.00161507 -0.00154547)
(0.0199872 0.00213812 -0.00150861)
(0.0199429 0.00283873 -0.00151327)
(0.0200834 0.00378363 -0.00152578)
(0.0204902 0.00498418 -0.00144008)
(0.0211195 0.00577912 -0.000754123)
(0.00842224 -0.00368712 -0.00223233)
(0.0106422 -0.00242033 -0.00257978)
(0.0127088 -0.00131569 -0.0023541)
(0.013692 -0.000728601 -0.00206134)
(0.0140363 -0.000405811 -0.00179113)
(0.0140601 -0.000215857 -0.00156445)
(0.0138994 -9.44806e-05 -0.00138836)
(0.0136159 -7.69222e-06 -0.00126609)
(0.0132306 6.45368e-05 -0.0011998)
(0.0127363 0.000136387 -0.00119163)
(0.0121019 0.000220704 -0.00124364)
(0.0112707 0.000333039 -0.00135618)
(0.0101518 0.000497473 -0.00152375)
(0.00857486 0.00076066 -0.00172413)
(0.00636013 0.00120656 -0.00187386)
(0.00439405 0.00173398 -0.00157155)
(0.0151277 -0.00605683 -0.0029393)
(0.0167223 -0.00472684 -0.00353971)
(0.0183197 -0.00284111 -0.00323981)
(0.0191317 -0.00165647 -0.00282788)
(0.0193805 -0.000947653 -0.00244784)
(0.0193074 -0.000511752 -0.00212995)
(0.0190368 -0.000226806 -0.0018826)
(0.0186285 -2.09886e-05 -0.00170899)
(0.0181009 0.000150915 -0.00161117)
(0.0174406 0.000321759 -0.00159134)
(0.0166057 0.000521649 -0.00165154)
(0.0155248 0.000785854 -0.00179151)
(0.0140903 0.00116444 -0.00200269)
(0.0121225 0.00173622 -0.00225186)
(0.00948249 0.00259837 -0.00241052)
(0.00721008 0.0034656 -0.00188135)
(0.0206428 -0.00778153 -0.00317241)
(0.0208109 -0.00673175 -0.00384266)
(0.0210515 -0.00431831 -0.00348766)
(0.0210869 -0.0026132 -0.00301667)
(0.0209134 -0.00152395 -0.00259136)
(0.0205963 -0.000825932 -0.00224031)
(0.0201814 -0.000356506 -0.00196837)
(0.019689 -1.01906e-05 -0.00177601)
(0.0191167 0.000283891 -0.00166333)
(0.0184415 0.00057909 -0.00163089)
(0.0176209 0.000925086 -0.00167932)
(0.0165902 0.00137868 -0.00180678)
(0.0152605 0.00201498 -0.00200284)
(0.0134959 0.00293382 -0.00223124)
(0.0112178 0.00420594 -0.00235514)
(0.009343 0.0052167 -0.00175238)
(0.0256182 -0.00790719 -0.00336696)
(0.0245559 -0.00731525 -0.00407121)
(0.0234736 -0.00489507 -0.00365365)
(0.0226439 -0.00303734 -0.00312446)
(0.0219558 -0.00179064 -0.00265771)
(0.0213315 -0.000961709 -0.00227802)
(0.0207396 -0.000386644 -0.00198526)
(0.0201558 4.9964e-05 -0.001776)
(0.0195531 0.000429601 -0.00164765)
(0.0188981 0.000817501 -0.00159822)
(0.0181494 0.00127481 -0.0016262)
(0.0172539 0.00187083 -0.00172777)
(0.0161472 0.0026933 -0.00189094)
(0.0147409 0.00384761 -0.00207924)
(0.0130037 0.00537139 -0.00215981)
(0.0116483 0.00640825 -0.00153422)
(0.029809 -0.00693004 -0.00354724)
(0.0278321 -0.00670227 -0.00428215)
(0.0256846 -0.00460867 -0.00380526)
(0.0240936 -0.0029001 -0.00321946)
(0.0229227 -0.00170776 -0.00271157)
(0.0219989 -0.000887716 -0.00230285)
(0.0212324 -0.000299366 -0.00198836)
(0.0205611 0.000163419 -0.00176081)
(0.0199371 0.00057971 -0.00161404)
(0.0193187 0.00101572 -0.00154381)
(0.018666 0.00153525 -0.00154607)
(0.0179389 0.00221084 -0.00161486)
(0.017096 0.00313249 -0.00173692)
(0.0160897 0.00440187 -0.00187704)
(0.014917 0.00602742 -0.00191188)
(0.0140643 0.00700585 -0.00128628)
(0.0330459 -0.00528733 -0.00369721)
(0.0304343 -0.00525416 -0.00446013)
(0.0275104 -0.00366291 -0.00393425)
(0.0253308 -0.00230499 -0.00329969)
(0.0237704 -0.00132575 -0.00275519)
(0.0225994 -0.000628843 -0.00231967)
(0.0216888 -0.000108103 -0.00198415)
(0.0209503 0.00032125 -0.00173776)
(0.0203201 0.00072654 -0.00157157)
(0.0197509 0.00116587 -0.00147856)
(0.0192069 0.00169807 -0.00145228)
(0.0186605 0.00239136 -0.00148468)
(0.0180928 0.00333085 -0.0015615)
(0.017492 0.0046113 -0.00164958)
(0.0168734 0.00622688 -0.00163796)
(0.0164973 0.00712654 -0.0010249)
(0.0352405 -0.00323949 -0.003803)
(0.032231 -0.00325193 -0.00458666)
(0.0288077 -0.00225523 -0.00402568)
(0.0262361 -0.00137641 -0.00335506)
(0.0244113 -0.000720305 -0.00278255)
(0.0230727 -0.00023085 -0.00232549)
(0.0220683 0.00015915 -0.00197195)
(0.0212941 0.000506489 -0.00170833)
(0.020677 0.000859087 -0.00152325)
(0.020168 0.00126122 -0.00140736)
(0.0197365 0.00176018 -0.00135203)
(0.0193685 0.00241317 -0.00134727)
(0.0190677 0.00329398 -0.00137792)
(0.0188599 0.00448853 -0.00141309)
(0.0187824 0.00599476 -0.00135563)
(0.0188835 0.00683006 -0.000762624)
(0.0363487 -0.000972976 -0.00385609)
(0.03315 -0.000936544 -0.00464924)
(0.0294882 -0.00057946 -0.00406878)
(0.0267292 -0.000251453 -0.00337783)
(0.0247806 1.65185e-05 -0.00278866)
(0.0233688 0.000246164 -0.0023176)
(0.0223322 0.000464202 -0.00195093)
(0.0215604 0.000695792 -0.00167322)
(0.0209776 0.000965278 -0.00147139)
(0.0205364 0.00129863 -0.00133431)
(0.0202127 0.00172666 -0.00125159)
(0.0200054 0.00228902 -0.00121162)
(0.019942 0.00303925 -0.00119837)
(0.0200919 0.00404287 -0.00118321)
(0.0205478 0.00529731 -0.0010854)
(0.0212327 0.00605949 -0.000534099)
(0.00860858 -0.00378007 -0.00162771)
(0.0108599 -0.00248335 -0.00188346)
(0.0129419 -0.00135037 -0.00172293)
(0.0139124 -0.000747734 -0.0015121)
(0.014228 -0.000416197 -0.00131662)
(0.0142156 -0.00022092 -0.00115208)
(0.0140151 -9.59129e-05 -0.0010237)
(0.0136899 -6.22386e-06 -0.000933742)
(0.0132617 6.87797e-05 -0.000883425)
(0.0127237 0.000143727 -0.000873489)
(0.012046 0.000231851 -0.000903939)
(0.0111753 0.000349046 -0.000972746)
(0.0100279 0.000519653 -0.00107304)
(0.00844729 0.000790266 -0.00118699)
(0.00627047 0.00124427 -0.00126032)
(0.0043519 0.00177574 -0.0010393)
(0.0154748 -0.00620573 -0.00214095)
(0.0170757 -0.00484944 -0.00258404)
(0.0186639 -0.00291599 -0.00237093)
(0.0194454 -0.00169995 -0.00207415)
(0.0196497 -0.000971852 -0.00179914)
(0.0195251 -0.00052368 -0.00156834)
(0.0191994 -0.000230195 -0.00138797)
(0.0187344 -1.75178e-05 -0.00126029)
(0.018149 0.000160906 -0.00118634)
(0.0174301 0.000338986 -0.00116664)
(0.0165378 0.000547696 -0.00120076)
(0.0154049 0.000823031 -0.00128555)
(0.0139334 0.00121548 -0.00141113)
(0.0119625 0.00180334 -0.00155141)
(0.0093762 0.00268037 -0.00162255)
(0.00717346 0.00354325 -0.00124474)
(0.0211288 -0.00796904 -0.00230557)
(0.0212662 -0.0069055 -0.00280215)
(0.0214614 -0.00443183 -0.0025502)
(0.0214438 -0.00268158 -0.00221125)
(0.0212126 -0.00156261 -0.00190377)
(0.0208356 -0.000844828 -0.00164908)
(0.0203602 -0.000361211 -0.00145093)
(0.0198074 -3.22588e-06 -0.00130965)
(0.0191748 0.000302032 -0.00122492)
(0.01844 0.00060971 -0.00119614)
(0.0175618 0.000970867 -0.00122191)
(0.0164799 0.00144341 -0.00129808)
(0.0151151 0.00210289 -0.00141362)
(0.0133502 0.00304778 -0.0015405)
(0.011129 0.00434136 -0.00158897)
(0.00932651 0.00533346 -0.00116013)
(0.0262313 -0.00809517 -0.0024424)
(0.025108 -0.00750365 -0.00296578)
(0.023947 -0.00502373 -0.00266937)
(0.0230411 -0.0031167 -0.00228873)
(0.0222815 -0.00183574 -0.00195152)
(0.0215891 -0.000983076 -0.00167622)
(0.0209323 -0.000390363 -0.00146306)
(0.0202861 6.11348e-05 -0.00130961)
(0.0196232 0.000455577 -0.00121369)
(0.0189102 0.000860109 -0.00117296)
(0.0181068 0.00133764 -0.00118471)
(0.0171642 0.0019588 -0.00124367)
(0.0160267 0.00281164 -0.00133812)
(0.0146226 0.00399932 -0.00144016)
(0.0129404 0.00554852 -0.00146196)
(0.0116533 0.00655374 -0.00101581)
(0.0305297 -0.00709317 -0.00256958)
(0.0284699 -0.00687462 -0.00311683)
(0.026217 -0.00472979 -0.00277816)
(0.0245298 -0.00297565 -0.00235688)
(0.0232747 -0.00175021 -0.0019901)
(0.0222752 -0.000906305 -0.00169387)
(0.0214397 -0.000299458 -0.00146504)
(0.0207049 0.000179591 -0.00129844)
(0.0200216 0.00061259 -0.00118938)
(0.0193477 0.00106774 -0.00113405)
(0.0186445 0.00161069 -0.0011282)
(0.0178752 0.00231536 -0.00116538)
(0.0170064 0.00327195 -0.00123348)
(0.0160043 0.00457926 -0.00130575)
(0.0148815 0.00623249 -0.00129982)
(0.0140893 0.00717021 -0.00085148)
(0.0338498 -0.00541087 -0.00267552)
(0.0311405 -0.00538909 -0.00324426)
(0.0280921 -0.00375905 -0.00287071)
(0.0258007 -0.00236463 -0.0024144)
(0.024146 -0.00135781 -0.00202126)
(0.0228933 -0.000640098 -0.00170569)
(0.0219108 -0.000102331 -0.00146166)
(0.0211082 0.00034291 -0.0012815)
(0.0204201 0.000765074 -0.00115858)
(0.0197987 0.00122434 -0.00108729)
(0.0192088 0.00178123 -0.00106189)
(0.0186258 0.00250529 -0.00107487)
(0.0180372 0.00348177 -0.00111393)
(0.0174422 0.00480246 -0.00115404)
(0.016867 0.00644744 -0.00112019)
(0.0165416 0.00730258 -0.000678454)
(0.036101 -0.0033148 -0.00275028)
(0.0329846 -0.00333532 -0.00333481)
(0.0294245 -0.00231419 -0.00293626)
(0.026731 -0.00141138 -0.00245402)
(0.0248051 -0.000736244 -0.00204068)
(0.023381 -0.000231448 -0.00170954)
(0.0223032 0.000172193 -0.00145248)
(0.0214652 0.000533353 -0.00125989)
(0.0207923 0.000901632 -0.0011235)
(0.0202348 0.00132292 -0.00103616)
(0.0197624 0.001846 -0.000990829)
(0.0193636 0.00252919 -0.000979054)
(0.0190471 0.00344654 -0.000988386)
(0.018847 0.00468154 -0.000995734)
(0.0188073 0.00621925 -0.000934533)
(0.0189491 0.00701367 -0.000505241)
(0.0372378 -0.000995504 -0.00278774)
(0.0339279 -0.000960435 -0.00337951)
(0.0301238 -0.000594173 -0.00296705)
(0.0272381 -0.00025661 -0.00247016)
(0.0251855 1.99922e-05 -0.00204476)
(0.0236869 0.000257971 -0.00170347)
(0.022577 0.000484983 -0.00143688)
(0.0217429 0.000727197 -0.00123413)
(0.021107 0.00100998 -0.00108577)
(0.0206211 0.00136036 -0.000983551)
(0.0202614 0.00181022 -0.000919401)
(0.020029 0.00240002 -0.000884094)
(0.0199554 0.00318356 -0.000865091)
(0.0201167 0.00422481 -0.000841269)
(0.0206099 0.00551175 -0.000756683)
(0.0213325 0.0062481 -0.000356375)
(0.0087345 -0.00384411 -0.000986823)
(0.0110059 -0.00252826 -0.00113887)
(0.0130976 -0.00137524 -0.00104583)
(0.0140605 -0.000761583 -0.000919744)
(0.0143573 -0.000423853 -0.000801919)
(0.0143207 -0.000224778 -0.000702541)
(0.0140938 -9.7171e-05 -0.000624771)
(0.013741 -5.41826e-06 -0.000569923)
(0.0132847 7.15272e-05 -0.00053858)
(0.0127187 0.000148588 -0.000530867)
(0.0120144 0.000239234 -0.000546238)
(0.0111208 0.000359545 -0.000582683)
(0.00995896 0.000533989 -0.000635214)
(0.00837944 0.000809175 -0.000693285)
(0.00622741 0.00126823 -0.000727822)
(0.00433587 0.00180183 -0.000592273)
(0.015708 -0.00630535 -0.00130067)
(0.0173128 -0.00493299 -0.00156792)
(0.0188945 -0.00296689 -0.00144162)
(0.0196565 -0.00172952 -0.00126287)
(0.0198314 -0.000988392 -0.00109652)
(0.0196725 -0.000531902 -0.000956716)
(0.0193101 -0.000232615 -0.000847177)
(0.0188075 -1.52917e-05 -0.000769153)
(0.0181841 0.000167508 -0.000723039)
(0.0174278 0.000350353 -0.0007087)
(0.0165 0.000564727 -0.000725139)
(0.015337 0.000847 -0.000769403)
(0.0138468 0.00124781 -0.000834422)
(0.0118784 0.00184516 -0.000904662)
(0.00932689 0.002731 -0.000934499)
(0.00716353 0.00359094 -0.00070693)
(0.0214532 -0.00809279 -0.00139489)
(0.0215706 -0.00702169 -0.00169821)
(0.0217361 -0.00450749 -0.00154834)
(0.0216838 -0.00272707 -0.0013447)
(0.0214144 -0.00158833 -0.00115933)
(0.0209975 -0.000857369 -0.0010054)
(0.0204818 -0.000364276 -0.000885297)
(0.0198889 1.47909e-06 -0.000799164)
(0.0192168 0.000314135 -0.000746618)
(0.0184436 0.000629935 -0.000726887)
(0.0175296 0.00100074 -0.000738432)
(0.0164181 0.00148501 -0.000777764)
(0.0150356 0.0021584 -0.000837208)
(0.0132748 0.00311848 -0.000900067)
(0.0110901 0.00442441 -0.000916944)
(0.00932868 0.00540493 -0.000660068)
(0.0266393 -0.00821974 -0.00147435)