/*--------------------------------*- C++ -*----------------------------------*\
| =========                 |                                                 |
| \\      /  F ield         | foam-extend: Open Source CFD                    |
|  \\    /   O peration     | Version:     3.1                                |
|   \\  /    A nd           | Web:         http://www.extend-project.de       |
|    \\/     M anipulation  |                                                 |
\*---------------------------------------------------------------------------*/
FoamFile
{
    version     2.0;
    format      ascii;
    class       volVectorField;
    location    "0.8";
    object      cellMotionU;
}
// * * * * * * * * * * * * * * * * * * * * * * * * * * * * * * * * * * * * * //

dimensions      [0 1 -1 0 0 0 0];

internalField   nonuniform List<vector> 
14592
(
(4.50973e-11 -2.36625e-10 4.27397e-11)
(1.29551e-10 -6.91691e-10 1.26527e-10)
(2.03381e-10 -1.12471e-09 2.10956e-10)
(2.67298e-10 -1.55924e-09 3.03234e-10)
(3.2106e-10 -2.01474e-09 4.10239e-10)
(3.63597e-10 -2.51045e-09 5.39667e-10)
(3.91996e-10 -3.06462e-09 7.0024e-10)
(4.00341e-10 -3.6926e-09 9.01879e-10)
(3.77976e-10 -4.41004e-09 1.15666e-09)
(3.06426e-10 -5.23085e-09 1.47899e-09)
(1.54424e-10 -6.15861e-09 1.88428e-09)
(-1.27766e-10 -7.18238e-09 2.38896e-09)
(-6.16162e-10 -8.23535e-09 3.00241e-09)
(-1.41215e-09 -9.14641e-09 3.72346e-09)
(-2.59795e-09 -9.53547e-09 4.52923e-09)
(-3.92472e-09 -8.90363e-09 5.29015e-09)
(1.34737e-10 -6.96855e-10 1.26026e-10)
(3.87236e-10 -2.03691e-09 3.73049e-10)
(6.0841e-10 -3.31227e-09 6.21829e-10)
(8.00895e-10 -4.59242e-09 8.93586e-10)
(9.63897e-10 -5.93116e-09 1.20775e-09)
(1.09525e-09 -7.38599e-09 1.58689e-09)
(1.18754e-09 -9.00824e-09 2.05584e-09)
(1.22626e-09 -1.08461e-08 2.644e-09)
(1.18442e-09 -1.29469e-08 3.38654e-09)
(1.01444e-09 -1.53484e-08 4.32345e-09)
(6.36783e-10 -1.80671e-08 5.49845e-09)
(-7.14273e-11 -2.11106e-08 6.96262e-09)
(-1.29566e-09 -2.43538e-08 8.73676e-09)
(-3.26507e-09 -2.75017e-08 1.07897e-08)
(-6.12002e-09 -2.99363e-08 1.29448e-08)
(-9.14785e-09 -3.07701e-08 1.46219e-08)
(2.24276e-10 -1.12762e-09 2.04585e-10)
(6.44789e-10 -3.29527e-09 6.05242e-10)
(1.01405e-09 -5.35569e-09 1.00784e-09)
(1.33611e-09 -7.41311e-09 1.44474e-09)
(1.61308e-09 -9.56213e-09 1.94831e-09)
(1.84357e-09 -1.1893e-08 2.55391e-09)
(2.01935e-09 -1.44831e-08 3.2998e-09)
(2.12341e-09 -1.74119e-08 4.23165e-09)
(2.12429e-09 -2.07523e-08 5.40319e-09)
(1.96688e-09 -2.45675e-08 6.87574e-09)
(1.55934e-09 -2.8918e-08 8.72433e-09)
(7.55914e-10 -3.38162e-08 1.10175e-08)
(-6.5253e-10 -3.91874e-08 1.37937e-08)
(-2.91249e-09 -4.48655e-08 1.70145e-08)
(-6.16533e-09 -5.03772e-08 2.0371e-08)
(-9.56941e-09 -5.45599e-08 2.28819e-08)
(3.12865e-10 -1.50999e-09 2.75544e-10)
(8.99899e-10 -4.4105e-09 8.14449e-10)
(1.41661e-09 -7.16008e-09 1.35353e-09)
(1.87073e-09 -9.89896e-09 1.93572e-09)
(2.26878e-09 -1.27565e-08 2.60411e-09)
(2.6118e-09 -1.58422e-08 3.40261e-09)
(2.89537e-09 -1.92568e-08 4.37991e-09)
(3.10764e-09 -2.30973e-08 5.59277e-09)
(3.22554e-09 -2.74567e-08 7.10785e-09)
(3.20898e-09 -3.24225e-08 9.00352e-09)
(2.99234e-09 -3.80785e-08 1.13712e-08)
(2.46624e-09 -4.44458e-08 1.4296e-08)
(1.46798e-09 -5.15466e-08 1.78662e-08)
(-2.13828e-10 -5.92888e-08 2.20859e-08)
(-2.79856e-09 -6.7205e-08 2.66875e-08)
(-5.81437e-09 -7.35964e-08 3.05303e-08)
(3.99821e-10 -1.82985e-09 3.37146e-10)
(1.15083e-09 -5.34285e-09 9.95597e-10)
(1.81453e-09 -8.66827e-09 1.6517e-09)
(2.40386e-09 -1.19767e-08 2.35689e-09)
(2.92909e-09 -1.54155e-08 3.1605e-09)
(3.39688e-09 -1.91105e-08 4.11279e-09)
(3.80985e-09 -2.31765e-08 5.26853e-09)
(4.16731e-09 -2.77168e-08 6.69002e-09)
(4.46365e-09 -3.28302e-08 8.44935e-09)
(4.68864e-09 -3.86054e-08 1.06302e-08)
(4.82579e-09 -4.512e-08 1.33285e-08)
(4.84857e-09 -5.24224e-08 1.66469e-08)
(4.70917e-09 -6.05654e-08 2.07099e-08)
(4.28088e-09 -6.94449e-08 2.5574e-08)
(3.30705e-09 -7.86095e-08 3.10937e-08)
(1.59101e-09 -8.61655e-08 3.60946e-08)
(4.84571e-10 -2.07815e-09 3.88651e-10)
(1.39586e-09 -6.06675e-09 1.14667e-09)
(2.20446e-09 -9.83694e-09 1.89856e-09)
(2.92863e-09 -1.35799e-08 2.70133e-09)
(3.58398e-09 -1.74555e-08 3.60835e-09)
(4.18346e-09 -2.15994e-08 4.67294e-09)
(4.73886e-09 -2.61277e-08 5.95172e-09)
(5.26211e-09 -3.11431e-08 7.50712e-09)
(5.76861e-09 -3.6732e-08 9.40935e-09)
(6.28116e-09 -4.29653e-08 1.17373e-08)
(6.83733e-09 -4.98916e-08 1.45787e-08)
(7.49859e-09 -5.753e-08 1.80296e-08)
(8.35522e-09 -6.58718e-08 2.2198e-08)
(9.47026e-09 -7.47847e-08 2.71651e-08)
(1.0737e-08 -8.38314e-08 3.28563e-08)
(1.14468e-08 -9.12832e-08 3.82256e-08)
(5.65823e-10 -2.24728e-09 4.29743e-10)
(1.63113e-09 -6.55931e-09 1.26658e-09)
(2.57975e-09 -1.06302e-08 2.09242e-09)
(3.43531e-09 -1.46627e-08 2.9673e-09)
(4.21908e-09 -1.88229e-08 3.94623e-09)
(4.95038e-09 -2.32482e-08 5.08266e-09)
(5.64937e-09 -2.80507e-08 6.4315e-09)
(6.33989e-09 -3.33205e-08 8.05089e-09)
(7.05443e-09 -3.91227e-08 1.0003e-08)
(7.84137e-09 -4.54924e-08 1.23536e-08)
(8.77616e-09 -5.24238e-08 1.51692e-08)
(9.97554e-09 -5.98589e-08 1.85126e-08)
(1.16128e-08 -6.76754e-08 2.24373e-08)
(1.39018e-08 -7.56507e-08 2.69564e-08)
(1.69474e-08 -8.33225e-08 3.18979e-08)
(2.01287e-08 -8.94626e-08 3.6339e-08)
(6.42085e-10 -2.33232e-09 4.60599e-10)
(1.85229e-09 -6.80684e-09 1.35607e-09)
(2.93296e-09 -1.10273e-08 2.23486e-09)
(3.91302e-09 -1.51995e-08 3.15782e-09)
(4.81857e-09 -1.94907e-08 4.17944e-09)
(5.67468e-09 -2.40334e-08 5.3511e-09)
(6.5079e-09 -2.89309e-08 6.72323e-09)
(7.35031e-09 -3.4256e-08 8.34661e-09)
(8.2447e-09 -4.00466e-08 1.02718e-08)
(9.25192e-09 -4.62949e-08 1.25465e-08)
(1.04596e-08 -5.29317e-08 1.521e-08)
(1.19904e-08 -5.98024e-08 1.82819e-08)
(1.39964e-08 -6.66437e-08 2.17445e-08)
(1.65881e-08 -7.30659e-08 2.55025e-08)
(1.95297e-08 -7.85547e-08 2.9257e-08)
(2.16129e-08 -8.25531e-08 3.22276e-08)
(4.23979e-11 -2.44912e-10 4.09102e-11)
(1.21476e-10 -7.1615e-10 1.21102e-10)
(1.89647e-10 -1.16552e-09 2.01913e-10)
(2.47013e-10 -1.61786e-09 2.90268e-10)
(2.92739e-10 -2.09449e-09 3.92873e-10)
(3.24909e-10 -2.61586e-09 5.17192e-10)
(3.39926e-10 -3.20474e-09 6.72337e-10)
(3.29339e-10 -3.87039e-09 8.66307e-10)
(2.80187e-10 -4.62761e-09 1.11031e-09)
(1.71159e-10 -5.50005e-09 1.42047e-09)
(-3.54704e-11 -6.48772e-09 1.81075e-09)
(-3.99471e-10 -7.5749e-09 2.29586e-09)
(-1.01212e-09 -8.68698e-09 2.88203e-09)
(-1.99437e-09 -9.6488e-09 3.55911e-09)
(-3.4374e-09 -1.01283e-08 4.27702e-09)
(-5.04995e-09 -9.83352e-09 4.8679e-09)
(1.268e-10 -7.21109e-10 1.2062e-10)
(3.63467e-10 -2.10882e-09 3.57026e-10)
(5.68017e-10 -3.43194e-09 5.95111e-10)
(7.4119e-10 -4.76363e-09 8.55166e-10)
(8.80444e-10 -6.16261e-09 1.15601e-09)
(9.81427e-10 -7.69059e-09 1.51976e-09)
(1.03361e-09 -9.40077e-09 1.96995e-09)
(1.01803e-09 -1.13448e-08 2.53442e-09)
(9.01309e-10 -1.35774e-08 3.24846e-09)
(6.26336e-10 -1.61378e-08 4.15122e-09)
(9.79228e-11 -1.90381e-08 5.28263e-09)
(-8.30692e-10 -2.228e-08 6.68925e-09)
(-2.37487e-09 -2.57195e-08 8.38338e-09)
(-4.78276e-09 -2.90371e-08 1.03136e-08)
(-8.12763e-09 -3.16271e-08 1.2261e-08)
(-1.14684e-08 -3.27736e-08 1.36465e-08)
(2.11425e-10 -1.16673e-09 1.95785e-10)
(6.06389e-10 -3.41078e-09 5.79191e-10)
(9.4871e-10 -5.54718e-09 9.64234e-10)
(1.24e-09 -7.68653e-09 1.38227e-09)
(1.47933e-09 -9.93054e-09 1.86436e-09)
(1.66185e-09 -1.23751e-08 2.44459e-09)
(1.77422e-09 -1.51009e-08 3.15918e-09)
(1.79455e-09 -1.82004e-08 4.05399e-09)
(1.68236e-09 -2.17577e-08 5.18175e-09)
(1.36889e-09 -2.58284e-08 6.59913e-09)
(7.42908e-10 -3.04775e-08 8.37674e-09)
(-3.66535e-10 -3.57102e-08 1.05752e-08)
(-2.19243e-09 -4.14293e-08 1.32164e-08)
(-4.9633e-09 -4.74065e-08 1.62245e-08)
(-8.62769e-09 -5.30267e-08 1.92261e-08)
(-1.19335e-08 -5.70088e-08 2.12798e-08)
(2.95643e-10 -1.56178e-09 2.6365e-10)
(8.48447e-10 -4.5633e-09 7.7922e-10)
(1.32941e-09 -7.4134e-09 1.29481e-09)
(1.74296e-09 -1.02616e-08 1.85182e-09)
(2.09178e-09 -1.32449e-08 2.49162e-09)
(2.37261e-09 -1.64811e-08 3.25655e-09)
(2.57564e-09 -2.00782e-08 4.19368e-09)
(2.6821e-09 -2.41435e-08 5.35808e-09)
(2.65938e-09 -2.87784e-08 6.81422e-09)
(2.45399e-09 -3.4077e-08 8.63637e-09)
(1.98268e-09 -4.01263e-08 1.09094e-08)
(1.11533e-09 -4.69434e-08 1.37061e-08)
(-3.24879e-10 -5.45221e-08 1.70841e-08)
(-2.50266e-09 -6.26634e-08 2.09761e-08)
(-5.38719e-09 -7.05974e-08 2.49639e-08)
(-8.02315e-09 -7.62976e-08 2.78593e-08)
(3.78873e-10 -1.89199e-09 3.2253e-10)
(1.08832e-09 -5.52645e-09 9.52389e-10)
(1.70895e-09 -8.97268e-09 1.57988e-09)
(2.24962e-09 -1.24119e-08 2.25442e-09)
(2.71644e-09 -1.60005e-08 3.02344e-09)
(3.11117e-09 -1.98744e-08 3.93538e-09)
(3.43101e-09 -2.4156e-08 5.04325e-09)
(3.6678e-09 -2.896e-08 6.40717e-09)
(3.80711e-09 -3.43933e-08 8.0966e-09)
(3.82709e-09 -4.05535e-08 1.01909e-08)
(3.69733e-09 -4.75238e-08 1.2778e-08)
(3.37723e-09 -5.53492e-08 1.59445e-08)
(2.81271e-09 -6.40518e-08 1.97722e-08)
(1.93911e-09 -7.33733e-08 2.42092e-08)
(7.45124e-10 -8.24402e-08 2.8864e-08)
(-4.64285e-10 -8.88658e-08 3.24141e-08)
(4.60573e-10 -2.14819e-09 3.71758e-10)
(1.32439e-09 -6.27322e-09 1.09676e-09)
(2.08402e-09 -1.01793e-08 1.81573e-09)
(2.75332e-09 -1.40685e-08 2.58341e-09)
(3.34337e-09 -1.81113e-08 3.45107e-09)
(3.86234e-09 -2.24524e-08 4.47018e-09)
(4.31616e-09 -2.72184e-08 5.69533e-09)
(4.71023e-09 -3.25201e-08 7.18698e-09)
(5.05163e-09 -3.8454e-08 9.01258e-09)
(5.35384e-09 -4.50981e-08 1.1247e-08)
(5.64451e-09 -5.25049e-08 1.39705e-08)
(5.9775e-09 -6.06877e-08 1.72622e-08)
(6.44845e-09 -6.95998e-08 2.11886e-08)
(7.17405e-09 -7.89414e-08 2.56979e-08)
(8.27865e-09 -8.77796e-08 3.04208e-08)
(9.50584e-09 -9.37924e-08 3.40583e-08)
(5.39466e-10 -2.32225e-09 4.11002e-10)
(1.55273e-09 -6.78045e-09 1.21127e-09)
(2.44795e-09 -1.09966e-08 2.00082e-09)
(3.2442e-09 -1.51845e-08 2.83722e-09)
(3.95801e-09 -1.95219e-08 3.77332e-09)
(4.60411e-09 -2.41546e-08 4.86076e-09)
(5.19706e-09 -2.92046e-08 6.15249e-09)
(5.75448e-09 -3.47701e-08 7.70483e-09)
(6.30171e-09 -4.09235e-08 9.5779e-09)
(6.87936e-09 -4.77047e-08 1.18344e-08)
(7.55513e-09 -5.51083e-08 1.45355e-08)
(8.4416e-09 -6.30633e-08 1.77324e-08)
(9.7195e-09 -7.14024e-08 2.14462e-08)
(1.16504e-08 -7.97322e-08 2.55868e-08)
(1.45424e-08 -8.71188e-08 2.97359e-08)
(1.81732e-08 -9.16984e-08 3.27015e-08)
(6.1403e-10 -2.40932e-09 4.4046e-10)
(1.76884e-09 -7.03427e-09 1.29664e-09)
(2.7931e-09 -1.14035e-08 2.13667e-09)
(3.71087e-09 -1.5735e-08 3.01879e-09)
(4.54398e-09 -2.02057e-08 3.9955e-09)
(5.31259e-09 -2.49583e-08 5.11619e-09)
(6.03831e-09 -3.01035e-08 6.42976e-09)
(6.74746e-09 -3.57213e-08 7.98552e-09)
(7.47648e-09 -4.18543e-08 9.83279e-09)
(8.27922e-09 -4.84962e-08 1.2018e-08)
(9.23674e-09 -5.55711e-08 1.45783e-08)
(1.04664e-08 -6.29045e-08 1.75291e-08)
(1.21212e-08 -7.01787e-08 2.08406e-08)
(1.4334e-08 -7.68533e-08 2.4377e-08)
(1.6997e-08 -8.20475e-08 2.77502e-08)
(1.92575e-08 -8.46711e-08 3.01055e-08)
(3.97025e-11 -2.52458e-10 3.75629e-11)
(1.13422e-10 -7.38559e-10 1.112e-10)
(1.75992e-10 -1.20305e-09 1.85439e-10)
(2.26839e-10 -1.67193e-09 2.66615e-10)
(2.64857e-10 -2.16998e-09 3.61337e-10)
(2.86664e-10 -2.71385e-09 4.75591e-10)
(2.87572e-10 -3.32614e-09 6.17434e-10)
(2.58706e-10 -4.02428e-09 7.95367e-10)
(1.85348e-10 -4.8235e-09 1.01931e-09)
(4.30844e-11 -5.73003e-09 1.29981e-09)
(-2.07725e-10 -6.75639e-09 1.65159e-09)
(-6.30676e-10 -7.87539e-09 2.08387e-09)
(-1.32078e-09 -8.9944e-09 2.59689e-09)
(-2.40419e-09 -9.91111e-09 3.17472e-09)
(-3.98398e-09 -1.0258e-08 3.76947e-09)
(-5.78139e-09 -9.72411e-09 4.25403e-09)
(1.18865e-10 -7.43311e-10 1.10747e-10)
(3.39801e-10 -2.17461e-09 3.27853e-10)
(5.2795e-10 -3.54265e-09 5.46611e-10)
(6.81495e-10 -4.91974e-09 7.85e-10)
(7.97031e-10 -6.37183e-09 1.06113e-09)
(8.67568e-10 -7.96159e-09 1.39452e-09)
(8.80128e-10 -9.74844e-09 1.80754e-09)
(8.11723e-10 -1.1787e-08 2.32515e-09)
(6.24387e-10 -1.41273e-08 2.97661e-09)
(2.55517e-10 -1.68081e-08 3.79626e-09)
(-3.96846e-10 -1.98352e-08 4.81717e-09)
(-1.48643e-09 -2.31854e-08 6.06912e-09)
(-3.22871e-09 -2.66724e-08 7.54711e-09)
(-5.85762e-09 -2.99073e-08 9.18401e-09)
(-9.41058e-09 -3.2203e-08 1.07779e-08)
(-1.29138e-08 -3.28626e-08 1.18851e-08)
(1.98603e-10 -1.20237e-09 1.79759e-10)
(5.68168e-10 -3.51713e-09 5.31884e-10)
(8.83354e-10 -5.72065e-09 8.8488e-10)
(1.14341e-09 -7.93166e-09 1.26802e-09)
(1.34463e-09 -1.02588e-08 1.70998e-09)
(1.47891e-09 -1.28041e-08 2.24207e-09)
(1.52911e-09 -1.56556e-08 2.89797e-09)
(1.46666e-09 -1.89027e-08 3.71724e-09)
(1.24464e-09 -2.26286e-08 4.74575e-09)
(7.87858e-10 -2.69062e-08 6.03455e-09)
(-2.44568e-11 -3.17722e-08 7.63546e-09)
(-1.36621e-09 -3.72061e-08 9.58592e-09)
(-3.45631e-09 -4.3056e-08 1.1874e-08)
(-6.46961e-09 -4.89988e-08 1.43871e-08)
(-1.02411e-08 -5.4317e-08 1.67697e-08)
(-1.34577e-08 -5.78306e-08 1.83087e-08)
(2.78384e-10 -1.60883e-09 2.4198e-10)
(7.96878e-10 -4.70208e-09 7.15111e-10)
(1.24168e-09 -7.64147e-09 1.18785e-09)
(1.61458e-09 -1.05893e-08 1.69906e-09)
(1.91358e-09 -1.36857e-08 2.28601e-09)
(2.13136e-09 -1.70559e-08 2.98771e-09)
(2.25288e-09 -2.08152e-08 3.84697e-09)
(2.25273e-09 -2.50744e-08 4.91305e-09)
(2.09038e-09 -2.99395e-08 6.24214e-09)
(1.70388e-09 -3.55062e-08 7.89667e-09)
(1.00168e-09 -4.18516e-08 9.94021e-09)
(-1.45956e-10 -4.89633e-08 1.2412e-08)
(-1.89344e-09 -5.67742e-08 1.53122e-08)
(-4.33014e-09 -6.49696e-08 1.84984e-08)
(-7.28891e-09 -7.264e-08 2.15271e-08)
(-9.78521e-09 -7.78786e-08 2.35119e-08)
(3.57855e-10 -1.94849e-09 2.95978e-10)
(1.02564e-09 -5.69298e-09 8.73959e-10)
(1.60291e-09 -9.2487e-09 1.44959e-09)
(2.09444e-09 -1.28065e-08 2.06844e-09)
(2.50173e-09 -1.65305e-08 2.77389e-09)
(2.82172e-09 -2.05639e-08 3.61041e-09)
(3.04554e-09 -2.50371e-08 4.62601e-09)
(3.15798e-09 -3.00705e-08 5.87473e-09)
(3.13601e-09 -3.57763e-08 7.4169e-09)
(2.94841e-09 -4.22544e-08 9.318e-09)
(2.55668e-09 -4.95806e-08 1.16422e-08)
(1.91896e-09 -5.77763e-08 1.44342e-08)
(9.9906e-10 -6.68011e-08 1.76981e-08)
(-1.8912e-10 -7.62794e-08 2.12671e-08)
(-1.54654e-09 -8.5158e-08 2.46557e-08)
(-2.74482e-09 -9.1172e-08 2.68805e-08)
(4.36493e-10 -2.2117e-09 3.41135e-10)
(1.25261e-09 -6.46082e-09 1.00633e-09)
(1.96293e-09 -1.04903e-08 1.66591e-09)
(2.57654e-09 -1.45123e-08 2.37007e-09)
(3.09975e-09 -1.87059e-08 3.16594e-09)
(3.53532e-09 -2.32244e-08 4.10055e-09)
(3.88303e-09 -2.82014e-08 5.22371e-09)
(4.14057e-09 -3.37553e-08 6.58942e-09)
(4.30616e-09 -3.99875e-08 8.25654e-09)
(4.38315e-09 -4.69785e-08 1.02862e-08)
(4.38934e-09 -5.47757e-08 1.27353e-08)
(4.37312e-09 -6.33685e-08 1.56393e-08)
(4.43803e-09 -7.26765e-08 1.89907e-08)
(4.74619e-09 -8.22657e-08 2.25927e-08)
(5.5019e-09 -9.10352e-08 2.59343e-08)
(6.49079e-09 -9.67973e-08 2.80229e-08)
(5.12975e-10 -2.39034e-09 3.77095e-10)
(1.47388e-09 -6.98143e-09 1.11129e-09)
(2.31523e-09 -1.13295e-08 1.83552e-09)
(3.05104e-09 -1.56591e-08 2.60261e-09)
(3.69297e-09 -2.01561e-08 3.46119e-09)
(4.25002e-09 -2.49759e-08 4.45838e-09)
(4.73051e-09 -3.02471e-08 5.64258e-09)
(5.14432e-09 -3.60747e-08 7.06437e-09)
(5.50745e-09 -4.25361e-08 8.77626e-09)
(5.8495e-09 -4.96728e-08 1.08296e-08)
(6.22606e-09 -5.74743e-08 1.32668e-08)
(6.73795e-09 -6.58525e-08 1.61054e-08)
(7.56077e-09 -7.46031e-08 1.93073e-08)
(8.95001e-09 -8.32328e-08 2.26613e-08)
(1.12615e-08 -9.07022e-08 2.56476e-08)
(1.43433e-08 -9.52931e-08 2.73058e-08)
(5.85766e-10 -2.47941e-09 4.04071e-10)
(1.68487e-09 -7.24083e-09 1.18952e-09)
(2.65205e-09 -1.17456e-08 1.95994e-09)
(3.50637e-09 -1.62216e-08 2.76894e-09)
(4.26441e-09 -2.08555e-08 3.66455e-09)
(4.94107e-09 -2.57972e-08 4.69226e-09)
(5.55149e-09 -3.11648e-08 5.89665e-09)
(6.11439e-09 -3.70438e-08 7.32233e-09)
(6.65679e-09 -4.34805e-08 9.01275e-09)
(7.22103e-09 -5.04683e-08 1.10063e-08)
(7.87387e-09 -5.79255e-08 1.3328e-08)
(8.71572e-09 -6.56587e-08 1.59736e-08)
(9.8787e-09 -7.33143e-08 1.88813e-08)
(1.14653e-08 -8.0284e-08 2.18662e-08)
(1.33431e-08 -8.56496e-08 2.45399e-08)
(1.46539e-08 -8.85334e-08 2.62852e-08)
(3.71616e-11 -2.59047e-10 3.28264e-11)
(1.05832e-10 -7.58065e-10 9.71852e-11)
(1.63125e-10 -1.23592e-09 1.62103e-10)
(2.08068e-10 -1.72086e-09 2.33285e-10)
(2.38199e-10 -2.23275e-09 3.15713e-10)
(2.50234e-10 -2.79519e-09 4.15329e-10)
(2.38403e-10 -3.42927e-09 5.38725e-10)
(1.9303e-10 -4.15378e-09 6.93182e-10)
(9.84765e-11 -4.98383e-09 8.86788e-10)
(-7.04006e-11 -5.92582e-09 1.12771e-09)
(-3.53507e-10 -6.96831e-09 1.42313e-09)
(-8.13557e-10 -8.09524e-09 1.78164e-09)
(-1.54259e-09 -9.18714e-09 2.19743e-09)
(-2.66418e-09 -1.00049e-08 2.65305e-09)
(-4.28541e-09 -1.01286e-08 3.11071e-09)
(-6.13652e-09 -9.24609e-09 3.48224e-09)
(1.11383e-10 -7.62566e-10 9.67775e-11)
(3.17414e-10 -2.2318e-09 2.86478e-10)
(4.89972e-10 -3.63844e-09 4.7772e-10)
(6.25169e-10 -5.05442e-09 6.85608e-10)
(7.18358e-10 -6.55117e-09 9.2646e-10)
(7.60516e-10 -8.19579e-09 1.21722e-09)
(7.36092e-10 -1.00476e-08 1.57661e-09)
(6.19643e-10 -1.21627e-08 2.02574e-09)
(3.70488e-10 -1.45895e-08 2.58816e-09)
(-7.58529e-11 -1.73588e-08 3.28798e-09)
(-8.20903e-10 -2.04654e-08 4.14908e-09)
(-2.015e-09 -2.3859e-08 5.18618e-09)
(-3.85851e-09 -2.7303e-08 6.37864e-09)
(-6.56293e-09 -3.0331e-08 7.65668e-09)
(-1.01479e-08 -3.21726e-08 8.85776e-09)
(-1.36592e-08 -3.22064e-08 9.67037e-09)
(1.86464e-10 -1.23337e-09 1.57047e-10)
(5.31894e-10 -3.60863e-09 4.64692e-10)
(8.21677e-10 -5.87127e-09 7.72898e-10)
(1.05205e-09 -8.14346e-09 1.10681e-09)
(1.21783e-09 -1.05461e-08 1.49267e-09)
(1.30675e-09 -1.31785e-08 1.95656e-09)
(1.29825e-09 -1.61343e-08 2.52731e-09)
(1.15955e-09 -1.95025e-08 3.23784e-09)
(8.39359e-10 -2.33657e-08 4.12436e-09)
(2.59517e-10 -2.77875e-08 5.22438e-09)
(-6.99645e-10 -3.28095e-08 6.57387e-09)
(-2.20159e-09 -3.83517e-08 8.18449e-09)
(-4.43826e-09 -4.42147e-08 1.00155e-08)
(-7.53305e-09 -4.99957e-08 1.19443e-08)
(-1.12652e-08 -5.49284e-08 1.36798e-08)
(-1.43538e-08 -5.79876e-08 1.47385e-08)
(2.62083e-10 -1.64986e-09 2.11384e-10)
(7.48176e-10 -4.82298e-09 6.24636e-10)
(1.15905e-09 -7.84139e-09 1.03735e-09)
(1.49308e-09 -1.08746e-08 1.48352e-09)
(1.74477e-09 -1.4069e-08 1.9957e-09)
(1.90256e-09 -1.75544e-08 2.60738e-09)
(1.94672e-09 -2.14505e-08 3.35513e-09)
(1.84638e-09 -2.5871e-08 4.2797e-09)
(1.55536e-09 -3.09219e-08 5.42582e-09)
(1.00711e-09 -3.66955e-08 6.8391e-09)
(1.10187e-10 -4.32569e-08 8.55902e-09)
(-1.25314e-09 -5.05629e-08 1.05912e-08)
(-3.20411e-09 -5.84909e-08 1.28898e-08)
(-5.76762e-09 -6.66585e-08 1.52842e-08)
(-8.70368e-09 -7.41258e-08 1.73982e-08)
(-1.10596e-08 -7.91275e-08 1.86654e-08)
(3.37995e-10 -1.99771e-09 2.58534e-10)
(9.66337e-10 -5.83842e-09 7.6331e-10)
(1.50254e-09 -9.48965e-09 1.26593e-09)
(1.9472e-09 -1.31505e-08 1.80613e-09)
(2.2976e-09 -1.69915e-08 2.4217e-09)
(2.54571e-09 -2.11625e-08 3.15089e-09)
(2.67725e-09 -2.57982e-08 4.03484e-09)
(2.67028e-09 -3.10242e-08 5.11811e-09)
(2.49467e-09 -3.69545e-08 6.44865e-09)
(2.1125e-09 -4.36871e-08 8.07359e-09)
(1.48179e-09 -5.12894e-08 1.00295e-08)
(5.66663e-10 -5.97613e-08 1.23202e-08)
(-6.44888e-10 -6.90221e-08 1.48897e-08)
(-2.08159e-09 -7.86427e-08 1.75228e-08)
(-3.57975e-09 -8.75496e-08 1.97848e-08)
(-4.80274e-09 -9.35754e-08 2.10756e-08)
(4.13687e-10 -2.26722e-09 2.97943e-10)
(1.18463e-09 -6.62454e-09 8.78905e-10)
(1.84807e-09 -1.07618e-08 1.45479e-09)
(2.40848e-09 -1.48994e-08 2.06949e-09)
(2.86735e-09 -1.92239e-08 2.76391e-09)
(3.22215e-09 -2.38952e-08 3.5788e-09)
(3.46629e-09 -2.90531e-08 4.55648e-09)
(3.59006e-09 -3.48206e-08 5.74205e-09)
(3.58278e-09 -4.13028e-08 7.18183e-09)
(3.43818e-09 -4.85804e-08 8.91936e-09)
(3.16496e-09 -5.6696e-08 1.09846e-08)
(2.80577e-09 -6.5627e-08 1.3372e-08)
(2.46457e-09 -7.52759e-08 1.60121e-08)
(2.34009e-09 -8.51709e-08 1.86543e-08)
(2.66812e-09 -9.42163e-08 2.0816e-08)
(3.3258e-09 -1.00277e-07 2.18905e-08)
(4.8788e-10 -2.4498e-09 3.2934e-10)
(1.39913e-09 -7.15693e-09 9.70514e-10)
(2.18919e-09 -1.16204e-08 1.60285e-09)
(2.86712e-09 -1.60731e-08 2.27249e-09)
(3.43939e-09 -2.07095e-08 3.02159e-09)
(3.90953e-09 -2.56909e-08 3.89118e-09)
(4.279e-09 -3.11526e-08 4.92249e-09)
(4.54944e-09 -3.72045e-08 6.15775e-09)
(4.72662e-09 -4.39278e-08 7.63861e-09)
(4.8276e-09 -5.13652e-08 9.40127e-09)
(4.8927e-09 -5.95038e-08 1.14659e-08)
(5.00471e-09 -6.8246e-08 1.38165e-08)
(5.31765e-09 -7.73994e-08 1.63737e-08)
(6.06719e-09 -8.64536e-08 1.88786e-08)
(7.60724e-09 -9.44054e-08 2.08545e-08)
(9.9488e-09 -9.95852e-08 2.16784e-08)
(5.58999e-10 -2.54051e-09 3.52894e-10)
(1.60516e-09 -7.42146e-09 1.03874e-09)
(2.51797e-09 -1.20446e-08 1.71142e-09)
(3.31123e-09 -1.6647e-08 2.41754e-09)
(3.99648e-09 -2.14226e-08 3.19915e-09)
(4.5827e-09 -2.65285e-08 4.09549e-09)
(5.07821e-09 -3.20884e-08 5.14494e-09)
(5.49304e-09 -3.81927e-08 6.38494e-09)
(5.84315e-09 -4.48908e-08 7.85024e-09)
(6.15637e-09 -5.21774e-08 9.56797e-09)
(6.48037e-09 -5.99679e-08 1.15481e-08)
(6.88949e-09 -6.8064e-08 1.37663e-08)
(7.4795e-09 -7.61138e-08 1.61408e-08)
(8.2856e-09 -8.35246e-08 1.84676e-08)
(9.12352e-09 -8.94433e-08 2.0431e-08)
(9.21931e-09 -9.30893e-08 2.16555e-08)
(3.49178e-11 -2.64491e-10 2.68737e-11)
(9.91174e-11 -7.74198e-10 7.95526e-11)
(1.51719e-10 -1.26278e-09 1.327e-10)
(1.91233e-10 -1.75945e-09 1.90963e-10)
(2.14615e-10 -2.28399e-09 2.58274e-10)
(2.18135e-10 -2.86151e-09 3.3956e-10)
(1.9537e-10 -3.51326e-09 4.39975e-10)
(1.36115e-10 -4.25809e-09 5.65193e-10)
(2.4389e-11 -5.11043e-09 7.21142e-10)
(-1.64621e-10 -6.07426e-09 9.13297e-10)
(-4.69273e-10 -7.13016e-09 1.14503e-09)
(-9.49041e-10 -8.25231e-09 1.42078e-09)
(-1.68962e-09 -9.30548e-09 1.73304e-09)
(-2.80705e-09 -1.00175e-08 2.06565e-09)
(-4.40506e-09 -9.92618e-09 2.39095e-09)
(-6.22468e-09 -8.73674e-09 2.65113e-09)
(1.04764e-10 -7.78553e-10 7.92118e-11)
(2.97632e-10 -2.27893e-09 2.34506e-10)
(4.56322e-10 -3.7168e-09 3.91005e-10)
(5.75518e-10 -5.16559e-09 5.61025e-10)
(6.49029e-10 -6.69989e-09 7.57746e-10)
(6.66281e-10 -8.38876e-09 9.94982e-10)
(6.09889e-10 -1.02924e-08 1.28743e-09)
(4.52751e-10 -1.24669e-08 1.65145e-09)
(1.53076e-10 -1.4959e-08 2.10424e-09)
(-3.52695e-10 -1.77935e-08 2.66217e-09)
(-1.16229e-09 -2.09587e-08 3.33862e-09)
(-2.41499e-09 -2.43502e-08 4.13391e-09)
(-4.29136e-09 -2.772e-08 5.02548e-09)
(-6.97571e-09 -3.05294e-08 5.94969e-09)
(-1.04716e-08 -3.19513e-08 6.7869e-09)
(-1.38659e-08 -3.1462e-08 7.33369e-09)
(1.75747e-10 -1.25899e-09 1.28557e-10)
(4.99826e-10 -3.68427e-09 3.80332e-10)
(7.67211e-10 -5.99635e-09 6.32471e-10)
(9.71762e-10 -8.32101e-09 9.05424e-10)
(1.10605e-09 -1.07844e-08 1.22073e-09)
(1.155e-09 -1.34878e-08 1.59918e-09)
(1.09526e-09 -1.65264e-08 2.06373e-09)
(8.91049e-10 -1.99906e-08 2.63941e-09)
(4.88976e-10 -2.39602e-08 3.35292e-09)
(-1.89298e-10 -2.8495e-08 4.22921e-09)
(-1.25553e-09 -3.36141e-08 5.28595e-09)
(-2.85754e-09 -3.92106e-08 6.51923e-09)
(-5.15703e-09 -4.50497e-08 7.8788e-09)
(-8.22804e-09 -5.06681e-08 9.2525e-09)
(-1.18152e-08 -5.52876e-08 1.04272e-08)
(-1.47006e-08 -5.80233e-08 1.1103e-08)
(2.47681e-10 -1.68387e-09 1.73008e-10)
(7.0514e-10 -4.92338e-09 5.1119e-10)
(1.08606e-09 -8.00752e-09 8.48823e-10)
(1.38571e-09 -1.11114e-08 1.21366e-09)
(1.59539e-09 -1.43863e-08 1.63216e-09)
(1.7e-09 -1.79656e-08 2.13127e-09)
(1.67591e-09 -2.19719e-08 2.73986e-09)
(1.48808e-09 -2.65204e-08 3.48918e-09)
(1.08669e-09 -3.17165e-08 4.41161e-09)
(4.03966e-10 -3.76463e-08 5.53674e-09)
(-6.46988e-10 -4.43567e-08 6.88209e-09)
(-2.16532e-09 -5.18064e-08 8.43522e-09)
(-4.238e-09 -5.98152e-08 1.01274e-08)
(-6.83232e-09 -6.79774e-08 1.18018e-08)
(-9.65476e-09 -7.53628e-08 1.31817e-08)
(-1.18014e-08 -8.02946e-08 1.39433e-08)
(3.20424e-10 -2.03866e-09 2.11583e-10)
(9.13907e-10 -5.95904e-09 6.24683e-10)
(1.41371e-09 -9.68968e-09 1.03586e-09)
(1.81674e-09 -1.34357e-08 1.47763e-09)
(2.11635e-09 -1.73732e-08 1.98061e-09)
(2.30033e-09 -2.16563e-08 2.57577e-09)
(2.34939e-09 -2.64243e-08 3.29535e-09)
(2.23623e-09 -3.18047e-08 4.17379e-09)
(1.92512e-09 -3.79129e-08 5.24547e-09)
(1.37386e-09 -4.48446e-08 6.54018e-09)
(5.40524e-10 -5.26602e-08 8.07212e-09)
(-6.00941e-10 -6.13523e-08 9.81978e-09)
(-2.03655e-09 -7.08208e-08 1.17013e-08)
(-3.64373e-09 -8.06297e-08 1.35138e-08)
(-5.19598e-09 -8.97238e-08 1.49317e-08)
(-6.34559e-09 -9.59449e-08 1.56368e-08)
(3.93517e-10 -2.31328e-09 2.43849e-10)
(1.12444e-09 -6.76052e-09 7.19244e-10)
(1.74629e-09 -1.09871e-08 1.19041e-09)
(2.25923e-09 -1.52205e-08 1.6931e-09)
(2.66044e-09 -1.9653e-08 2.26063e-09)
(2.9425e-09 -2.44498e-08 2.92576e-09)
(3.09312e-09 -2.97552e-08 3.72218e-09)
(3.09574e-09 -3.56961e-08 4.68425e-09)
(2.93193e-09 -4.23798e-08 5.8455e-09)
(2.58709e-09 -4.9888e-08 7.2327e-09)
(2.06245e-09 -5.82628e-08 8.85464e-09)
(1.39695e-09 -6.74815e-08 1.06813e-08)
(6.98145e-10 -7.74512e-08 1.26184e-08)
(1.93891e-10 -8.77111e-08 1.44311e-08)
(1.77182e-10 -9.71931e-08 1.57484e-08)
(6.38492e-10 -1.03694e-07 1.62519e-08)
(4.65655e-10 -2.4992e-09 2.69525e-10)
(1.33288e-09 -7.30277e-09 7.9419e-10)
(2.07733e-09 -1.18619e-08 1.31154e-09)
(2.70346e-09 -1.6417e-08 1.85916e-09)
(3.21313e-09 -2.11682e-08 2.47155e-09)
(3.60445e-09 -2.6283e-08 3.18154e-09)
(3.87259e-09 -3.1901e-08 4.02209e-09)
(4.01126e-09 -3.81365e-08 5.02569e-09)
(4.01637e-09 -4.5074e-08 6.22236e-09)
(3.89265e-09 -5.27588e-08 7.63407e-09)
(3.6653e-09 -6.11807e-08 9.26383e-09)
(3.39834e-09 -7.02484e-08 1.10763e-08)
(3.22082e-09 -7.97943e-08 1.29764e-08)
(3.36618e-09 -8.9325e-08 1.47322e-08)
(4.20816e-09 -9.78862e-08 1.5975e-08)
(5.96897e-09 -1.03699e-07 1.63505e-08)
(5.35252e-10 -2.5914e-09 2.88765e-10)
(1.5345e-09 -7.57146e-09 8.50031e-10)
(2.39885e-09 -1.2293e-08 1.40035e-09)
(3.13746e-09 -1.70001e-08 1.97795e-09)
(3.7569e-09 -2.18934e-08 2.61687e-09)
(4.26073e-09 -2.71349e-08 3.34902e-09)
(4.6505e-09 -3.28535e-08 4.20497e-09)
(4.92768e-09 -3.91434e-08 5.21379e-09)
(5.09698e-09 -4.60577e-08 6.40071e-09)
(5.17129e-09 -5.35935e-08 7.78211e-09)
(5.17785e-09 -6.16693e-08 9.35584e-09)
(5.16272e-09 -7.00898e-08 1.10862e-08)
(5.18135e-09 -7.85383e-08 1.28914e-08)
(5.22261e-09 -8.64445e-08 1.45912e-08)
(5.07807e-09 -9.2997e-08 1.59606e-08)
(4.14545e-09 -9.73636e-08 1.68104e-08)
(3.31054e-11 -2.68694e-10 1.99302e-11)
(9.36988e-11 -7.86584e-10 5.90027e-11)
(1.42497e-10 -1.28337e-09 9.83986e-11)
(1.776e-10 -1.78881e-09 1.4158e-10)
(1.95585e-10 -2.32318e-09 1.91404e-10)
(1.92299e-10 -2.91214e-09 2.51472e-10)
(1.60913e-10 -3.57707e-09 3.25486e-10)
(9.09183e-11 -4.33673e-09 4.17389e-10)
(-3.36193e-11 -5.20466e-09 5.31118e-10)
(-2.36703e-10 -6.18258e-09 6.6991e-10)
(-5.5444e-10 -7.24592e-09 8.34875e-10)
(-1.04224e-09 -8.3609e-09 1.0276e-09)
(-1.77844e-09 -9.37875e-09 1.24104e-09)
(-2.86968e-09 -1.0003e-08 1.46249e-09)
(-4.4124e-09 -9.74131e-09 1.67348e-09)
(-6.15906e-09 -8.31589e-09 1.83924e-09)
(9.94248e-11 -7.90816e-10 5.87552e-11)
(2.81644e-10 -2.31519e-09 1.73898e-10)
(4.29118e-10 -3.7769e-09 2.89904e-10)
(5.35402e-10 -5.25107e-09 4.15893e-10)
(5.93104e-10 -6.8142e-09 5.61491e-10)
(5.90405e-10 -8.53653e-09 7.36806e-10)
(5.08692e-10 -1.04788e-08 9.52377e-10)
(3.1989e-10 -1.26969e-08 1.21951e-09)
(-1.78336e-11 -1.52355e-08 1.5497e-09)
(-5.66025e-10 -1.81142e-08 1.95258e-09)
(-1.41654e-09 -2.13106e-08 2.43424e-09)
(-2.69633e-09 -2.46965e-08 2.98906e-09)
(-4.56502e-09 -2.79978e-08 3.5963e-09)
(-7.17978e-09 -3.06304e-08 4.20708e-09)
(-1.05271e-08 -3.17309e-08 4.74175e-09)
(-1.37398e-08 -3.08544e-08 5.07849e-09)
(1.67083e-10 -1.27871e-09 9.53353e-11)
(4.73909e-10 -3.74248e-09 2.82039e-10)
(7.23199e-10 -6.09262e-09 4.68931e-10)
(9.06963e-10 -8.458e-09 6.71143e-10)
(1.01579e-09 -1.09678e-08 9.04524e-10)
(1.03261e-09 -1.37248e-08 1.18425e-09)
(9.31929e-10 -1.68257e-08 1.52662e-09)
(6.76231e-10 -2.03606e-08 1.94916e-09)
(2.11365e-10 -2.44077e-08 2.46934e-09)
(-5.38789e-10 -2.90206e-08 3.10202e-09)
(-1.67763e-09 -3.42054e-08 3.85417e-09)
(-3.33649e-09 -3.9836e-08 4.71236e-09)
(-5.64478e-09 -4.5648e-08 5.63308e-09)
(-8.63527e-09 -5.11473e-08 6.53029e-09)
(-1.20256e-08 -5.5554e-08 7.26398e-09)
(-1.46687e-08 -5.80808e-08 7.66397e-09)
(2.3604e-10 -1.71011e-09 1.28306e-10)
(6.70359e-10 -5.00063e-09 3.79077e-10)
(1.02706e-09 -8.1355e-09 6.29338e-10)
(1.29886e-09 -1.12938e-08 8.99627e-10)
(1.4745e-09 -1.46303e-08 1.20943e-09)
(1.53609e-09 -1.82808e-08 1.57835e-09)
(1.45702e-09 -2.23702e-08 2.02701e-09)
(1.19939e-09 -2.70143e-08 2.5771e-09)
(7.11407e-10 -3.23174e-08 3.24979e-09)
(-7.39705e-11 -3.83614e-08 4.0619e-09)
(-1.2368e-09 -4.51839e-08 5.01817e-09)
(-2.85857e-09 -5.27345e-08 6.09784e-09)
(-4.99202e-09 -6.08112e-08 7.23697e-09)
(-7.55504e-09 -6.90005e-08 8.3155e-09)
(-1.02114e-08 -7.63853e-08 9.15354e-09)
(-1.21148e-08 -8.13272e-08 9.58427e-09)
(3.06223e-10 -2.07019e-09 1.56921e-10)
(8.71481e-10 -6.05201e-09 4.6321e-10)
(1.34181e-09 -9.8438e-09 7.68021e-10)
(1.711e-09 -1.36553e-08 1.09532e-09)
(1.96932e-09 -1.76667e-08 1.46775e-09)
(2.10104e-09 -2.20354e-08 1.90768e-09)
(2.08306e-09 -2.69033e-08 2.43842e-09)
(1.88388e-09 -3.24002e-08 3.0836e-09)
(1.46388e-09 -3.86416e-08 3.86571e-09)
(7.78619e-10 -4.57224e-08 4.8011e-09)
(-2.1176e-10 -5.36999e-08 5.89084e-09)
(-1.52231e-09 -6.25647e-08 7.10536e-09)
(-3.11324e-09 -7.22155e-08 8.36772e-09)
(-4.81492e-09 -8.2225e-08 9.52176e-09)
(-6.34288e-09 -9.15521e-08 1.03546e-08)
(-7.35315e-09 -9.80002e-08 1.07187e-08)
(3.77187e-10 -2.34878e-09 1.80827e-10)
(1.07571e-09 -6.86536e-09 5.33346e-10)
(1.66377e-09 -1.11609e-08 8.82605e-10)
(2.13808e-09 -1.54679e-08 1.2551e-09)
(2.49219e-09 -1.99833e-08 1.67535e-09)
(2.71466e-09 -2.48761e-08 2.16722e-09)
(2.78848e-09 -3.02939e-08 2.75481e-09)
(2.69162e-09 -3.63663e-08 3.46209e-09)
(2.3994e-09 -4.3203e-08 4.31068e-09)
(1.89089e-09 -5.08875e-08 5.31483e-09)
(1.16222e-09 -5.94643e-08 6.47167e-09)
(2.51202e-10 -6.89174e-08 7.74503e-09)
(-7.2726e-10 -7.91687e-08 9.04861e-09)
(-1.51454e-09 -8.9779e-08 1.02021e-08)
(-1.75276e-09 -9.96912e-08 1.0959e-08)
(-1.36378e-09 -1.06594e-07 1.11734e-08)
(4.47654e-10 -2.53732e-09 1.99869e-10)
(1.2792e-09 -7.41521e-09 5.88921e-10)
(1.98657e-09 -1.20482e-08 9.7243e-10)
(2.57046e-09 -1.6682e-08 1.3783e-09)
(3.02874e-09 -2.15218e-08 1.83176e-09)
(3.35516e-09 -2.67386e-08 2.357e-09)
(3.53943e-09 -3.24763e-08 2.97758e-09)
(3.56861e-09 -3.88523e-08 3.71619e-09)
(3.43022e-09 -4.59542e-08 4.59231e-09)
(3.11861e-09 -5.38311e-08 5.61728e-09)
(2.64634e-09 -6.24785e-08 6.78505e-09)
(2.063e-09 -7.18169e-08 8.05776e-09)
(1.48173e-09 -8.17035e-08 9.35146e-09)