/*--------------------------------*- C++ -*----------------------------------*\
| =========                 |                                                 |
| \\      /  F ield         | foam-extend: Open Source CFD                    |
|  \\    /   O peration     | Version:     3.1                                |
|   \\  /    A nd           | Web:         http://www.extend-project.de       |
|    \\/     M anipulation  |                                                 |
\*---------------------------------------------------------------------------*/
FoamFile
{
    version     2.0;
    format      ascii;
    class       surfaceScalarField;
    location    "0.8";
    object      meshPhi;
}
// * * * * * * * * * * * * * * * * * * * * * * * * * * * * * * * * * * * * * //

dimensions      [0 3 -1 0 0 0 0];

internalField   nonuniform List<scalar> 
41600
(
1.16516e-07
1.91834e-08
-7.3631e-10
7.58046e-10
2.24138e-07
5.6793e-08
-2.19514e-09
2.26022e-09
3.21971e-07
9.33696e-08
-3.65027e-09
3.76027e-09
4.12635e-07
1.304e-07
-5.17246e-09
5.33187e-09
4.98275e-07
1.69853e-07
-6.8426e-09
7.05778e-09
5.80488e-07
2.13668e-07
-8.72719e-09
9.00734e-09
6.60242e-07
2.63877e-07
-1.08714e-08
1.12295e-08
7.37676e-07
3.22712e-07
-1.32833e-08
1.37354e-08
8.11795e-07
3.92699e-07
-1.58988e-08
1.64653e-08
8.79959e-07
4.76672e-07
-1.85184e-08
1.92238e-08
9.37288e-07
5.77702e-07
-2.06992e-08
2.15775e-08
9.76476e-07
6.98764e-07
-2.15422e-08
2.26608e-08
9.88066e-07
8.41768e-07
-1.93455e-08
2.08588e-08
9.64053e-07
1.00514e-06
-1.12756e-08
1.35442e-08
9.06108e-07
1.17206e-06
5.48797e-09
-1.82524e-09
1.45535e-06
5.834e-08
-1.13244e-07
3.47574e-07
3.75211e-08
-2.23255e-09
2.29775e-09
6.68576e-07
1.11024e-07
-6.64787e-09
6.84354e-09
9.6029e-07
1.8235e-07
-1.10435e-08
1.13748e-08
1.23052e-06
2.54323e-07
-1.56452e-08
1.61254e-08
1.48575e-06
3.30706e-07
-2.07083e-08
2.13576e-08
1.73079e-06
4.15157e-07
-2.6449e-08
2.72968e-08
1.96865e-06
5.1143e-07
-3.30302e-08
3.41152e-08
2.20004e-06
6.23589e-07
-4.05204e-08
4.189e-08
2.42249e-06
7.56134e-07
-4.88056e-08
5.05179e-08
2.62893e-06
9.13985e-07
-5.74291e-08
5.95551e-08
2.80594e-06
1.10225e-06
-6.53116e-08
6.79579e-08
2.93368e-06
1.32551e-06
-7.02339e-08
7.36016e-08
2.98541e-06
1.58569e-06
-6.80413e-08
7.25727e-08
2.93674e-06
1.87728e-06
-5.18859e-08
5.8616e-08
2.79013e-06
2.17013e-06
-1.43793e-08
2.55066e-08
2.53588e-06
8.25887e-08
-1.6366e-07
5.73151e-07
5.42339e-08
-3.73368e-09
3.84186e-09
1.1021e-06
1.60343e-07
-1.11013e-08
1.14265e-08
1.58224e-06
2.62957e-07
-1.84165e-08
1.89669e-08
2.02674e-06
3.66044e-07
-2.60777e-08
2.6874e-08
2.44648e-06
4.74904e-07
-3.45315e-08
3.56085e-08
2.8495e-06
5.94542e-07
-4.41659e-08
4.55743e-08
3.24119e-06
7.29964e-07
-5.53012e-08
5.71049e-08
3.62367e-06
8.86482e-07
-6.81407e-08
7.0418e-08
3.99443e-06
1.06983e-06
-8.26632e-08
8.55081e-08
4.34438e-06
1.28609e-06
-9.8422e-08
1.01955e-07
4.65546e-06
1.54141e-06
-1.14167e-07
1.18571e-07
4.90007e-06
1.84084e-06
-1.27218e-07
1.3282e-07
5.03927e-06
2.18515e-06
-1.32623e-07
1.40093e-07
5.03398e-06
2.56467e-06
-1.22349e-07
1.33197e-07
4.88031e-06
2.94172e-06
-8.72651e-08
1.04984e-07
3.37052e-06
-2.14212e-08
-1.8975e-09
7.89555e-07
6.856e-08
-5.19783e-09
5.34755e-09
1.51727e-06
2.02504e-07
-1.54306e-08
1.58803e-08
2.1769e-06
3.31575e-07
-2.55619e-08
2.63209e-08
2.7871e-06
4.60636e-07
-3.61728e-08
3.72683e-08
3.36292e-06
5.96105e-07
-4.79072e-08
4.93877e-08
3.91572e-06
7.43869e-07
-6.13352e-08
6.32706e-08
4.45379e-06
9.09688e-07
-7.69584e-08
7.94374e-08
4.98169e-06
1.09949e-06
-9.51737e-08
9.83053e-08
5.49901e-06
1.31953e-06
-1.16172e-07
1.2009e-07
5.99821e-06
1.57625e-06
-1.39748e-07
1.44622e-07
6.46236e-06
1.87605e-06
-1.64897e-07
1.70983e-07
6.86189e-06
2.22396e-06
-1.8922e-07
1.96945e-07
7.15286e-06
2.61967e-06
-2.08128e-07
2.18312e-07
7.28545e-06
3.05068e-06
-2.13949e-07
2.28354e-07
7.23493e-06
3.47564e-06
-1.96881e-07
2.19671e-07
3.91692e-06
-1.6533e-07
1.81872e-07
9.92962e-07
7.99493e-08
-6.58641e-09
6.77469e-09
1.90711e-06
2.35954e-07
-1.95232e-08
2.00877e-08
2.73493e-06
3.8581e-07
-3.22942e-08
3.3245e-08
3.49987e-06
5.34925e-07
-4.5659e-08
4.70305e-08
4.22069e-06
6.90361e-07
-6.04487e-08
6.23018e-08
4.9122e-06
8.58454e-07
-7.74095e-08
7.98311e-08
5.58594e-06
1.04522e-06
-9.72291e-08
1.00331e-07
6.24987e-06
1.25663e-06
-1.20519e-07
1.24439e-07
6.90751e-06
1.49875e-06
-1.47739e-07
1.52645e-07
7.55634e-06
1.77769e-06
-1.79043e-07
1.85148e-07
8.18586e-06
2.09935e-06
-2.13951e-07
2.21559e-07
8.77197e-06
2.46841e-06
-2.5082e-07
2.60413e-07
9.27459e-06
2.88466e-06
-2.86029e-07
2.98499e-07
9.63681e-06
3.3353e-06
-3.12736e-07
3.29962e-07
9.79427e-06
3.778e-06
-3.1995e-07
3.46522e-07
4.19704e-06
-3.24508e-07
3.78774e-07
1.18103e-06
8.81055e-08
-7.86714e-09
8.09019e-09
2.26747e-06
2.59832e-07
-2.32841e-08
2.39522e-08
3.25037e-06
4.24262e-07
-3.84511e-08
3.95754e-08
4.15716e-06
5.87027e-07
-5.42901e-08
5.59111e-08
5.00996e-06
7.55466e-07
-7.17969e-08
7.39866e-08
5.82685e-06
9.35973e-07
-9.18727e-08
9.4733e-08
6.62256e-06
1.13436e-06
-1.1537e-07
1.19032e-07
7.40872e-06
1.35613e-06
-1.43092e-07
1.47717e-07
8.19359e-06
1.60653e-06
-1.75753e-07
1.81535e-07
8.98133e-06
1.89059e-06
-2.13876e-07
2.21057e-07
9.77075e-06
2.21292e-06
-2.57584e-07
2.66482e-07
1.05511e-05
2.57734e-06
-3.06167e-07
3.17262e-07
1.12962e-05
2.98438e-06
-3.57326e-07
3.71476e-07
1.19518e-05
3.42453e-06
-4.05537e-07
4.24567e-07
1.2409e-05
3.86137e-06
-4.38524e-07
4.67441e-07
4.25804e-06
-4.79969e-07
5.62833e-07
1.35237e-06
9.2844e-08
-9.01134e-09
9.26503e-09
2.59518e-06
2.73583e-07
-2.66287e-08
2.7388e-08
3.71801e-06
4.46068e-07
-4.38891e-08
4.51659e-08
4.75192e-06
6.15938e-07
-6.18512e-08
6.36906e-08
5.72186e-06
7.9048e-07
-8.16445e-08
8.41267e-08
6.64855e-06
9.75802e-07
-1.04288e-07
1.07527e-07
7.54946e-06
1.17717e-06
-1.3075e-07
1.34893e-07
8.43939e-06
1.3992e-06
-1.61972e-07
1.67195e-07
9.33082e-06
1.64584e-06
-1.98843e-07
2.05358e-07
1.0234e-05
1.92038e-06
-2.42165e-07
2.50225e-07
1.11568e-05
2.22519e-06
-2.92522e-07
3.02441e-07
1.21038e-05
2.56177e-06
-3.49997e-07
3.62204e-07
1.30679e-05
2.92964e-06
-4.13621e-07
4.28823e-07
1.40155e-05
3.32292e-06
-4.79723e-07
4.99417e-07
1.48271e-05
3.72136e-06
-5.36062e-07
5.65421e-07
4.14536e-06
-6.20551e-07
7.25469e-07
1.50489e-06
-9.99509e-09
1.02748e-08
9.4038e-08
2.8865e-06
-2.9489e-08
3.03257e-08
2.76939e-07
4.13281e-06
-4.84997e-08
4.9905e-08
4.51012e-07
5.27779e-06
-6.81877e-08
7.02095e-08
6.21638e-07
6.3485e-06
-8.97762e-08
9.25004e-08
7.95768e-07
7.36758e-06
-1.14353e-07
1.17902e-07
9.7899e-07
8.35438e-06
-1.42945e-07
1.47474e-07
1.17581e-06
9.32578e-06
-1.76544e-07
1.82239e-07
1.38972e-06
1.02969e-05
-2.16107e-07
2.23188e-07
1.62313e-06
1.12816e-05
-2.6253e-07
2.71252e-07
1.87714e-06
1.22929e-05
-3.16559e-07
3.27221e-07
2.15118e-06
1.33427e-05
-3.78556e-07
3.91537e-07
2.44253e-06
1.44325e-05
-4.47986e-07
4.63871e-07
2.7454e-06
1.55362e-05
-5.21755e-07
5.41815e-07
3.04802e-06
1.65329e-05
-5.88318e-07
6.17399e-07
3.33107e-06
-7.44265e-07
8.6697e-07
3.62983e-06
1.18136e-07
2.01194e-08
-6.87926e-10
2.27256e-07
5.95978e-08
-2.05091e-09
3.265e-07
9.80952e-08
-3.40966e-09
4.18558e-07
1.37244e-07
-4.82947e-09
5.05615e-07
1.79187e-07
-6.38642e-09
5.89293e-07
2.26054e-07
-8.14348e-09
6.7054e-07
2.80086e-07
-1.01438e-08
7.49417e-07
3.43768e-07
-1.23979e-08
8.24783e-07
4.19921e-07
-1.48545e-08
8.93769e-07
5.11736e-07
-1.7352e-08
9.51261e-07
6.22687e-07
-1.9542e-08
9.89821e-07
7.56145e-07
-2.07615e-08
1.00044e-06
9.14264e-07
-1.98996e-08
9.7718e-07
1.09524e-06
-1.55059e-08
9.27632e-07
1.28195e-06
-6.98039e-09
1.54435e-06
1.16e-08
3.524e-07
3.93483e-08
-2.08636e-09
6.77871e-07
1.16493e-07
-6.21185e-09
9.73796e-07
1.91547e-07
-1.03151e-08
1.24817e-06
2.67612e-07
-1.46058e-08
1.50762e-06
3.48781e-07
-1.93247e-08
1.75702e-06
4.39063e-07
-2.46751e-08
1.99933e-06
5.42608e-07
-3.08108e-08
2.23505e-06
6.63932e-07
-3.78028e-08
2.46126e-06
8.0806e-07
-4.55645e-08
2.67018e-06
9.80511e-07
-5.37245e-08
2.84767e-06
1.18703e-06
-6.14148e-08
2.97324e-06
1.43272e-06
-6.69438e-08
3.02067e-06
1.71949e-06
-6.7468e-08
2.97002e-06
2.04058e-06
-5.91913e-08
2.8391e-06
2.36468e-06
-3.99013e-08
2.69675e-06
-6.3819e-09
5.81092e-07
5.68658e-08
-3.48977e-09
1.11738e-06
1.68208e-07
-1.03737e-08
1.6044e-06
2.76151e-07
-1.72014e-08
2.05564e-06
3.85052e-07
-2.43452e-08
2.48227e-06
5.00675e-07
-3.22245e-08
2.89244e-06
6.285e-07
-4.12019e-08
3.29148e-06
7.7406e-07
-5.15773e-08
3.6812e-06
9.43254e-07
-6.35473e-08
4.05841e-06
1.14248e-06
-7.71111e-08
4.4129e-06
1.37857e-06
-9.18998e-08
4.72524e-06
1.6584e-06
-1.06871e-07
4.96661e-06
1.98754e-06
-1.19879e-07
5.09735e-06
2.36635e-06
-1.27275e-07
5.08224e-06
2.78289e-06
-1.24037e-07
4.93709e-06
3.19741e-06
-1.06457e-07
3.59497e-06
-8.667e-08
8.00483e-07
7.18777e-08
-4.85896e-09
1.53816e-06
2.12392e-07
-1.44209e-08
2.20704e-06
3.48106e-07
-2.38795e-08
2.82635e-06
4.84376e-07
-3.37779e-08
3.4115e-06
6.28178e-07
-4.47175e-08
3.97403e-06
7.85959e-07
-5.72293e-08
4.52219e-06
9.64076e-07
-7.17813e-08
5.06023e-06
1.16913e-06
-8.87451e-08
5.58698e-06
1.40809e-06
-1.08305e-07
6.09357e-06
1.68821e-06
-1.30282e-07
6.56114e-06
2.0167e-06
-1.53787e-07
6.9582e-06
2.39915e-06
-1.76758e-07
7.23818e-06
2.83462e-06
-1.95462e-07
7.35224e-06
3.30772e-06
-2.0428e-07
7.29445e-06
3.77411e-06
-1.97724e-07
4.20269e-06
-1.91537e-07
1.00657e-06
8.37919e-08
-6.15825e-09
1.93299e-06
2.47393e-07
-1.82497e-08
2.77216e-06
4.04899e-07
-3.01758e-08
3.54833e-06
5.62263e-07
-4.26461e-08
4.28066e-06
7.27165e-07
-5.64351e-08
4.98421e-06
9.06543e-07
-7.22372e-08
5.67057e-06
1.10704e-06
-9.06907e-08
6.34746e-06
1.33532e-06
-1.12361e-07
7.01772e-06
1.59819e-06
-1.37664e-07
7.67756e-06
1.90255e-06
-1.66717e-07
8.31453e-06
2.25519e-06
-1.99021e-07
8.9016e-06
2.66143e-06
-2.32988e-07
9.39401e-06
3.12049e-06
-2.65247e-07
9.73184e-06
3.61674e-06
-2.89805e-07
9.86258e-06
4.10344e-06
-2.98662e-07
4.5411e-06
-3.07552e-07
1.19684e-06
9.23006e-08
-7.35716e-09
2.29761e-06
2.72321e-07
-2.17694e-08
3.29377e-06
4.4508e-07
-3.59352e-08
4.21362e-06
6.1677e-07
-5.07144e-08
5.07978e-06
7.95369e-07
-6.70357e-08
5.91068e-06
9.87885e-07
-8.57363e-08
6.72123e-06
1.20076e-06
-1.07604e-07
7.52292e-06
1.44013e-06
-1.33378e-07
8.32354e-06
1.71197e-06
-1.63697e-07
9.12623e-06
2.02207e-06
-1.98989e-07
9.92824e-06
2.37587e-06
-2.39229e-07
1.07153e-05
2.77793e-06
-2.83502e-07
1.14554e-05
3.22865e-06
-3.29165e-07
1.20868e-05
3.71641e-06
-3.70345e-07
1.25e-05
4.19925e-06
-3.96347e-07
4.65096e-06
-4.2351e-07
1.37008e-06
9.72387e-08
-8.42865e-09
2.62895e-06
2.86645e-07
-2.49e-08
3.76661e-06
4.6779e-07
-4.10221e-08
4.81506e-06
6.46887e-07
-5.77822e-08
5.79985e-06
8.31862e-07
-7.62331e-08
6.74214e-06
1.02941e-06
-9.73202e-08
7.65966e-06
1.2454e-06
-1.21939e-07
8.56725e-06
1.485e-06
-1.5095e-07
9.47711e-06
1.7528e-06
-1.85148e-07
1.03988e-05
2.05271e-06
-2.25196e-07
1.1339e-05
2.38781e-06
-2.71456e-07
1.22993e-05
2.76032e-06
-3.23619e-07
1.32668e-05
3.16994e-06
-3.79938e-07
1.41981e-05
3.60964e-06
-4.35444e-07
1.49597e-05
4.05439e-06
-4.78004e-07
4.57053e-06
-5.32473e-07
1.52422e-06
-9.35022e-09
9.84598e-08
2.92326e-06
-2.7578e-08
2.90072e-07
4.18561e-06
-4.53355e-08
4.72818e-07
5.34627e-06
-6.37053e-08
6.52637e-07
6.43292e-06
-8.38273e-08
8.37088e-07
7.46873e-06
-1.06711e-07
1.03232e-06
8.4734e-06
-1.33303e-07
1.24335e-06
9.46395e-06
-1.64511e-07
1.47418e-06
1.04554e-05
-2.01187e-07
1.7277e-06
1.14612e-05
-2.44075e-07
2.00549e-06
1.24934e-05
-2.93679e-07
2.30738e-06
1.35616e-05
-3.4991e-07
2.63108e-06
1.46615e-05
-4.11342e-07
2.97062e-06
1.57555e-05
-4.7332e-07
3.31288e-06
1.66962e-05
-5.2348e-07
3.63503e-06
-6.35017e-07
4.01198e-06
1.19534e-07
2.0967e-08
-6.15023e-10
2.29951e-07
6.21352e-08
-1.83357e-09
3.30415e-07
1.0236e-07
-3.04784e-09
4.23673e-07
1.43395e-07
-4.3158e-09
5.11933e-07
1.87525e-07
-5.70578e-09
5.96818e-07
2.37014e-07
-7.27571e-09
6.79247e-07
2.94247e-07
-9.06783e-09
7.59215e-07
3.6184e-07
-1.10989e-08
8.35456e-07
4.42725e-07
-1.33401e-08
9.04988e-07
5.4013e-07
-1.56862e-08
9.62703e-07
6.57399e-07
-1.79191e-08
1.00131e-06
7.97357e-07
-1.96666e-08
1.01255e-06
9.60791e-07
-2.04034e-08
9.92282e-07
1.14323e-06
-1.96445e-08
9.49689e-07
1.32463e-06
-1.74851e-08
1.58294e-06
-1.44685e-08
3.56583e-07
4.10048e-08
-1.86532e-09
6.8594e-07
1.21446e-07
-5.5531e-09
9.85517e-07
1.99856e-07
-9.21869e-09
1.26346e-06
2.79565e-07
-1.30494e-08
1.52645e-06
3.64938e-07
-1.72623e-08
1.77943e-06
4.60244e-07
-2.20427e-08
2.02527e-06
5.69894e-07
-2.75348e-08
2.26427e-06
6.98644e-07
-3.3818e-08
2.49315e-06
8.5171e-07
-4.08533e-08
2.70364e-06
1.03465e-06
-4.84007e-08
2.88161e-06
1.25291e-06
-5.58994e-08
3.00688e-06
1.51053e-06
-6.23366e-08
3.05481e-06
1.8067e-06
-6.62369e-08
3.01002e-06
2.12949e-06
-6.6089e-08
2.89524e-06
2.44167e-06
-6.1596e-08
2.7451e-06
-5.78312e-08
5.88013e-07
5.92557e-08
-3.12011e-09
1.1307e-06
1.7534e-07
-9.27321e-09
1.62369e-06
2.88083e-07
-1.5372e-08
2.08073e-06
4.02171e-07
-2.17497e-08
2.51314e-06
5.23746e-07
-2.87841e-08
2.92916e-06
6.58646e-07
-3.68021e-08
3.33403e-06
8.12747e-07
-4.60766e-08
3.72923e-06
9.92264e-07
-5.67984e-08
4.111e-06
1.20382e-06
-6.90052e-08
4.46829e-06
1.45427e-06
-8.24611e-08
4.78127e-06
1.75006e-06
-9.64569e-08
5.02125e-06
2.09522e-06
-1.0959e-07
5.14989e-06
2.4863e-06
-1.19703e-07
5.13724e-06
2.90421e-06
-1.2431e-07
5.00704e-06
3.30068e-06
-1.22133e-07
3.65446e-06
-1.26123e-07
8.10102e-07
7.49005e-08
-4.34493e-09
1.55643e-06
2.21377e-07
-1.28931e-08
2.23331e-06
3.63075e-07
-2.13437e-08
2.86045e-06
5.05783e-07
-3.01825e-08
3.45347e-06
6.56938e-07
-3.99482e-08
4.02399e-06
8.23398e-07
-5.11159e-08
4.58016e-06
1.01192e-06
-6.41057e-08
5.12585e-06
1.22945e-06
-7.92566e-08
5.65916e-06
1.48321e-06
-9.67548e-08
6.17025e-06
1.78047e-06
-1.16491e-07
6.63897e-06
2.12791e-06
-1.37805e-07
7.03338e-06
2.52931e-06
-1.59197e-07
7.30711e-06
2.97926e-06
-1.78106e-07
7.41524e-06
3.45411e-06
-1.91035e-07
7.3626e-06
3.89905e-06
-1.95049e-07
4.27581e-06
-2.04316e-07
1.01862e-06
8.72942e-08
-5.50798e-09
1.95568e-06
2.57794e-07
-1.63197e-08
2.80466e-06
4.22197e-07
-2.6977e-08
3.59048e-06
5.86942e-07
-3.81134e-08
4.33252e-06
7.60212e-07
-5.04203e-08
5.04599e-06
9.49397e-07
-6.45165e-08
5.74237e-06
1.16156e-06
-8.09694e-08
6.42899e-06
1.40373e-06
-1.00279e-07
7.10794e-06
1.68295e-06
-1.22812e-07
7.7743e-06
2.00613e-06
-1.48666e-07
8.41377e-06
2.37952e-06
-1.77394e-07
8.99778e-06
2.80665e-06
-2.07662e-07
9.47977e-06
3.28217e-06
-2.36764e-07
9.80109e-06
3.78169e-06
-2.60173e-07
9.92171e-06
4.2468e-06
-2.72494e-07
4.63183e-06
-2.87032e-07
1.21078e-06
9.61175e-08
-6.58138e-09
2.32402e-06
2.83669e-07
-1.94703e-08
3.33167e-06
4.63955e-07
-3.213e-08
4.26276e-06
6.43646e-07
-4.53279e-08
5.14023e-06
8.31246e-07
-5.98918e-08
5.9827e-06
1.03423e-06
-7.65656e-08
6.80501e-06
1.25946e-06
-9.60441e-08
7.61836e-06
1.51342e-06
-1.18971e-07
8.42977e-06
1.80231e-06
-1.45886e-07
9.24112e-06
2.13187e-06
-1.77109e-07
1.00478e-05
2.50712e-06
-2.12492e-07
1.08329e-05
2.93102e-06
-2.51053e-07
1.156e-05
3.39973e-06
-2.90255e-07
1.21652e-05
3.89326e-06
-3.2494e-07
1.25507e-05
4.35734e-06
-3.46946e-07
4.76109e-06
-3.69717e-07
1.38564e-06
1.01239e-07
-7.54087e-09
2.65851e-06
2.98521e-07
-2.22727e-08
3.80906e-06
4.875e-07
-3.66814e-08
4.87007e-06
6.74881e-07
-5.16472e-08
5.86746e-06
8.69118e-07
-6.81083e-08
6.82265e-06
1.07736e-06
-8.69025e-08
7.75339e-06
1.30587e-06
-1.08816e-07
8.67427e-06
1.56014e-06
-1.34593e-07
9.5968e-06
1.84494e-06
-1.64894e-07
1.05293e-05
2.16409e-06
-2.00207e-07
1.14768e-05
2.5203e-06
-2.40652e-07
1.24374e-05
2.91443e-06
-2.85602e-07
1.3392e-05
3.3426e-06
-3.32944e-07
1.42915e-05
3.79055e-06
-3.77697e-07
1.50099e-05
4.2214e-06
-4.09931e-07
4.69863e-06
-4.50182e-07
1.54119e-06
-8.36631e-09
1.02487e-07
2.95544e-06
-2.46704e-08
3.02018e-07
4.23176e-06
-4.0541e-08
4.92618e-07
5.40598e-06
-5.69434e-08
6.80702e-07
6.50622e-06
-7.48922e-08
8.74339e-07
7.55592e-06
-9.52815e-08
1.0801e-06
8.57487e-06
-1.18941e-07
1.30337e-06
9.57994e-06
-1.46652e-07
1.54843e-06
1.05856e-05
-1.79116e-07
1.8183e-06
1.1604e-05
-2.16878e-07
2.11443e-06
1.26462e-05
-2.60154e-07
2.43622e-06
1.37174e-05
-3.08435e-07
2.78018e-06
1.48069e-05
-3.59731e-07
3.13744e-06
1.58702e-05
-4.09064e-07
3.48915e-06
1.6761e-05
-4.45773e-07
3.80298e-06
-5.31418e-07
4.15172e-06
1.2071e-07
2.17049e-08
-5.20389e-10
2.32225e-07
6.43416e-08
-1.55127e-09
3.33724e-07
1.06059e-07
-2.57789e-09
4.27978e-07
1.48703e-07
-3.64959e-09
5.17213e-07
1.94665e-07
-4.8252e-09
6.03057e-07
2.46303e-07
-6.15505e-09
6.86398e-07
3.06079e-07
-7.67812e-09
7.67174e-07
3.7665e-07
-9.41644e-09
8.44029e-07
4.60917e-07
-1.13627e-08
9.13916e-07
5.6195e-07
-1.34648e-08
9.71791e-07
6.82711e-07
-1.56166e-08
1.01057e-06
8.25285e-07
-1.76604e-08
1.02254e-06
9.89295e-07
-1.94207e-08
1.00445e-06
1.16908e-06
-2.0817e-08
9.65455e-07
1.34491e-06
-2.19179e-08
1.60079e-06
-2.4544e-08
3.60104e-07
4.24472e-08
-1.57819e-09
6.92757e-07
1.25753e-07
-4.69736e-09
9.95404e-07
2.0706e-07
-7.79605e-09
1.27628e-06
2.8988e-07
-1.10343e-08
1.54216e-06
3.78783e-07
-1.45974e-08
1.79797e-06
4.78221e-07
-1.86446e-08
2.04653e-06
5.92739e-07
-2.33054e-08
2.28794e-06
7.27166e-07
-2.86651e-08
2.51866e-06
8.86653e-07
-3.473e-08
2.73014e-06
1.07645e-06
-4.1384e-08
2.9084e-06
1.3013e-06
-4.83358e-08
3.03377e-06
1.56378e-06
-5.5095e-08
3.0829e-06
1.8608e-06
-6.10521e-08
3.04279e-06
2.17782e-06
-6.5738e-08
2.93633e-06
2.47754e-06
-6.90082e-08
2.76519e-06
-7.59154e-08
5.93849e-07
6.13369e-08
-2.63949e-09
1.14195e-06
1.81543e-07
-7.84323e-09
1.63992e-06
2.98432e-07
-1.2999e-08
2.10174e-06
4.16954e-07
-1.83909e-08
2.53886e-06
5.43542e-07
-2.43388e-08
2.95953e-06
6.84275e-07
-3.11215e-08
3.36887e-06
8.45216e-07
-3.89778e-08
3.76806e-06
1.03266e-06
-4.80868e-08
4.1529e-06
1.25314e-06
-5.85216e-08
4.51179e-06
1.51309e-06
-7.01752e-08
4.82488e-06
1.81797e-06
-8.26435e-08
5.06391e-06
2.16976e-06
-9.51365e-08
5.19197e-06
2.56172e-06
-1.06538e-07
5.18218e-06
2.97091e-06
-1.15683e-07
5.05968e-06
3.34805e-06
-1.21783e-07
3.67652e-06
-1.33911e-07
8.18192e-07
7.75304e-08
-3.67576e-09
1.57184e-06
2.29191e-07
-1.09061e-08
2.25542e-06
3.76067e-07
-1.80515e-08
2.88904e-06
5.24291e-07
-2.55236e-08
3.48847e-06
6.8165e-07
-3.37775e-08
4.06534e-06
8.55289e-07
-4.32164e-08
4.62762e-06
1.05217e-06
-5.41996e-08
5.17883e-06
1.27935e-06
-6.70233e-08
5.71645e-06
1.54392e-06
-8.18704e-08
6.22992e-06
1.85266e-06
-9.87076e-08
6.69833e-06
2.21108e-06
-1.17108e-07
7.08995e-06
2.62052e-06
-1.36095e-07
7.35945e-06
3.07165e-06
-1.54061e-07
7.46482e-06
3.53589e-06
-1.68876e-07
7.41488e-06
3.95646e-06
-1.78583e-07
4.30104e-06
-1.9299e-07
1.02873e-06
9.0343e-08
-4.66051e-09
1.9748e-06
2.66845e-07
-1.38072e-08
2.83202e-06
4.37224e-07
-2.28195e-08
3.62585e-06
6.08301e-07
-3.22326e-08
4.37583e-06
7.8865e-07
-4.26302e-08
5.09716e-06
9.8597e-07
-5.45347e-08
5.80117e-06
1.20756e-06
-6.84237e-08
6.49476e-06
1.46053e-06
-8.47176e-08
7.17929e-06
1.75181e-06
-1.03727e-07
7.84889e-06
2.08775e-06
-1.2554e-07
8.48778e-06
2.4734e-06
-1.49806e-07
9.06729e-06
2.90985e-06
-1.75516e-07
9.54058e-06
3.38737e-06
-2.00689e-07
9.85116e-06
3.87597e-06
-2.22105e-07
9.96624e-06
4.31415e-06
-2.35967e-07
4.66387e-06
-2.519e-07
1.2225e-06
9.94452e-08
-5.56967e-09
2.34629e-06
2.93555e-07
-1.6475e-08
3.36361e-06
4.80367e-07
-2.71809e-08
4.30405e-06
6.66933e-07
-3.83351e-08
5.19076e-06
8.62164e-07
-5.06356e-08
6.04241e-06
1.07386e-06
-6.47074e-08
6.87369e-06
1.30912e-06
-8.11303e-08
7.69537e-06
1.57452e-06
-1.00434e-07
8.51365e-06
1.87611e-06
-1.23048e-07
9.32916e-06
2.21908e-06
-1.49196e-07
1.01359e-05
2.60733e-06
-1.78681e-07
1.09156e-05
3.04155e-06
-2.10604e-07
1.16296e-05
3.51351e-06
-2.42855e-07
1.22156e-05
3.99731e-06
-2.71405e-07
1.25852e-05
4.43459e-06
-2.90278e-07
4.80319e-06
-3.09971e-07
1.39869e-06
1.04724e-07
-6.38239e-09
2.68344e-06
3.08866e-07
-1.88481e-08
3.84489e-06
5.04649e-07
-3.1033e-08
4.91636e-06
6.99164e-07
-4.36802e-08
5.92406e-06
9.01274e-07
-5.75794e-08
6.88952e-06
1.11845e-06
-7.34329e-08
7.83036e-06
1.35718e-06
-9.18928e-08
8.76076e-06
1.62304e-06
-1.13563e-07
9.69144e-06
1.92067e-06
-1.38958e-07
1.06293e-05
2.25336e-06
-1.68405e-07
1.15783e-05
2.62276e-06
-2.01855e-07
1.25335e-05
3.02771e-06
-2.3857e-07
1.3472e-05
3.46035e-06
-2.76558e-07
1.43455e-05
3.90086e-06
-3.11668e-07
1.50377e-05
4.30742e-06
-3.36456e-07
4.75216e-06
-3.68009e-07
1.5554e-06
-7.08167e-09
1.05996e-07
2.98258e-06
-2.08786e-08
3.12431e-07
4.27075e-06
-3.42999e-08
5.0986e-07
5.4563e-06
-4.816e-08
7.05073e-07
6.56769e-06
-6.33126e-08
9.06537e-07
7.62849e-06
-8.05059e-08
1.12113e-06
8.65843e-06
-1.00425e-07
1.35446e-06
9.67401e-06
-1.23702e-07
1.61086e-06
1.06889e-05
-1.50874e-07
1.89323e-06
1.17142e-05
-1.82299e-07
2.20254e-06
1.27593e-05
-2.17973e-07
2.53721e-06
1.38261e-05
-2.57186e-07
2.89193e-06
1.48996e-05
-2.97925e-07
3.25459e-06
1.5935e-05
-3.35867e-07
3.60162e-06
1.6792e-05
-3.62818e-07
3.89622e-06
-4.29877e-07
4.21695e-06
1.21657e-07
2.23145e-08
-4.07285e-10
2.34067e-07
6.61625e-08
-1.21395e-09
3.36402e-07
1.09103e-07
-2.01696e-09
4.31438e-07
1.53049e-07
-2.85537e-09
5.21427e-07
2.00465e-07
-3.77583e-09
6.07999e-07
2.53772e-07
-4.81874e-09
6.92015e-07
3.15458e-07
-6.01721e-09
7.73367e-07
3.88162e-07
-7.39425e-09
8.50646e-07
4.74687e-07
-8.95641e-09
9.20752e-07
5.77874e-07
-1.06882e-08
9.78647e-07
7.00276e-07
-1.2554e-08
1.01742e-06
8.43393e-07
-1.45123e-08
1.02968e-06
1.00623e-06
-1.65387e-08
1.01249e-06
1.18296e-06
-1.86536e-08
9.74687e-07
1.35491e-06
-2.07802e-08
1.60914e-06
-2.45372e-08
3.6294e-07
4.36387e-08
-1.23522e-09
6.98266e-07
1.29307e-07
-3.67581e-09
1.00337e-06
2.12986e-07
-6.09949e-09
1.28655e-06
2.98324e-07
-8.63292e-09
1.55468e-06
3.90043e-07
-1.14221e-08
1.81266e-06
4.92699e-07
-1.45939e-08
2.06322e-06
6.10886e-07
-1.82559e-08
2.30634e-06
7.49397e-07
-2.24879e-08
2.53829e-06
9.13198e-07
-2.7324e-08
2.75041e-06
1.10713e-06
-3.27325e-08
2.9286e-06
1.33513e-06
-3.85984e-08
3.0536e-06
1.59863e-06
-4.47339e-08
3.10303e-06
1.89328e-06
-5.09404e-08
3.06468e-06
2.20397e-06
-5.70742e-08
2.96078e-06
2.49505e-06
-6.27651e-08
2.77495e-06
-7.14266e-08
5.98544e-07
6.30553e-08
-2.06568e-09
1.15102e-06
1.8666e-07
-6.13713e-09
1.65297e-06
3.06947e-07
-1.017e-08
2.11856e-06
4.29066e-07
-1.43883e-08
2.55936e-06
5.59658e-07
-1.90426e-08
2.98358e-06
7.04948e-07
-2.43534e-08
3.3962e-06
8.71062e-07
-3.05138e-08
3.79817e-06
1.06425e-06
-3.7678e-08
4.18499e-06
1.29078e-06
-4.59336e-08
4.5448e-06
1.55652e-06
-5.52614e-08
4.85737e-06
1.86581e-06
-6.54704e-08
5.09495e-06
2.21902e-06
-7.61634e-08
5.22188e-06
2.60757e-06
-8.67935e-08
5.21241e-06
3.00737e-06
-9.67403e-08
5.09158e-06
3.37095e-06
-1.05173e-07
3.68678e-06
-1.17472e-07
8.24653e-07
7.96967e-08
-2.87656e-09
1.58421e-06
2.35629e-07
-8.53406e-09
2.27317e-06
3.8676e-07
-1.41239e-08
2.91194e-06
5.39469e-07
-1.99688e-08
3.51637e-06
7.01794e-07
-2.64246e-08
4.09806e-06
8.81052e-07
-3.38082e-08
4.66482e-06
1.08429e-06
-4.24038e-08
5.21982e-06
1.3185e-06
-5.24519e-08
5.7601e-06
1.59046e-06
-6.41146e-08
6.2745e-06
1.90625e-06
-7.74093e-08
6.74163e-06
2.27012e-06
-9.20954e-08
7.13025e-06
2.6815e-06
-1.07582e-07
7.39587e-06
3.12865e-06
-1.22893e-07
7.49803e-06
3.58127e-06
-1.36673e-07
7.44714e-06
3.98423e-06
-1.47352e-07
4.31217e-06
-1.60869e-07
1.03677e-06
9.28562e-08
-3.64757e-09
1.99013e-06
2.74308e-07
-1.08055e-08
2.85402e-06
4.49602e-07
-1.78561e-08
3.65422e-06
6.25836e-07
-2.52179e-08
4.41038e-06
8.11863e-07
-3.33469e-08
5.13767e-06
1.01557e-06
-4.26509e-08
5.84722e-06
1.24436e-06
-5.35027e-08
6.54556e-06
1.50526e-06
-6.62305e-08
7.2334e-06
1.80486e-06
-8.10786e-08
7.90394e-06
2.14877e-06
-9.81241e-08
8.54088e-06
2.54075e-06
-1.17127e-07
9.11569e-06
2.97983e-06
-1.37386e-07
9.58152e-06
3.45345e-06
-1.57538e-07
9.88386e-06
3.92935e-06
-1.75362e-07
9.99393e-06
4.3473e-06
-1.88093e-07
4.67784e-06
-2.01989e-07
1.23187e-06
1.02196e-07
-4.35968e-09
2.36419e-06
3.01723e-07
-1.28945e-08
3.38933e-06
4.93903e-07
-2.127e-08
4.3372e-06
6.86074e-07
-2.99922e-08
5.23111e-06
8.8744e-07
-3.96054e-08
6.08972e-06
1.10601e-06
-5.05955e-08
6.92753e-06
1.34897e-06
-6.34105e-08
7.75484e-06
1.62283e-06
-7.84544e-08
8.57716e-06
1.93331e-06
-9.60471e-08
9.39401e-06
2.28484e-06
-1.16336e-07
1.01987e-05
2.68009e-06
-1.39136e-07
1.09721e-05
3.1177e-06
-1.63735e-07
1.16747e-05
3.58642e-06
-1.88558e-07
1.22468e-05
4.05774e-06
-2.10713e-07
1.26062e-05
4.47388e-06
-2.25946e-07
4.8223e-06
-2.418e-07
1.4092e-06
1.07608e-07
-4.99628e-09
2.70354e-06
3.17421e-07
-1.47529e-08
3.87376e-06
5.18806e-07
-2.42854e-08
4.95356e-06
7.19145e-07
-3.41738e-08
5.96932e-06
9.27601e-07
-4.50333e-08
6.94258e-06
1.15185e-06
-5.74085e-08
7.8908e-06
1.39848e-06
-7.18e-08
8.82768e-06
1.673e-06
-8.86625e-08
9.7632e-06
1.97972e-06
-1.08367e-07
1.07032e-05
2.32125e-06
-1.31117e-07
1.16505e-05
2.69807e-06
-1.56791e-07
1.25984e-05
3.10707e-06
-1.8472e-07
1.35226e-05
3.53756e-06
-2.13319e-07
1.43771e-05
3.96697e-06
-2.39531e-07
1.5053e-05
4.35316e-06
-2.58105e-07
4.77782e-06
-2.82263e-07
1.56685e-06
-5.54408e-09
1.08903e-07
3.00449e-06
-1.63431e-08
3.21049e-07
4.30221e-06
-2.68428e-08
5.24105e-07
5.4968e-06
-3.76786e-08
7.25147e-07
6.61692e-06
-4.95152e-08
9.32935e-07
7.68621e-06
-6.29316e-08
1.15455e-06
8.72421e-06
-7.84526e-08
1.39569e-06
9.74701e-06
-9.65493e-08
1.66064e-06
1.07676e-05
-1.17604e-07
1.95201e-06
1.17959e-05
-1.41827e-07
2.27014e-06
1.28401e-05
-1.69108e-07
2.61237e-06
1.38997e-05
-1.98755e-07
2.97164e-06
1.4958e-05
-2.29098e-07
3.33342e-06
1.5972e-05
-2.56879e-07
3.67163e-06
1.68074e-05
-2.76289e-07
3.94885e-06
-3.26866e-07
4.25069e-06
1.22375e-07
2.27821e-08
-2.79694e-10
2.35461e-07
6.75574e-08
-8.33655e-10
3.38418e-07
1.11428e-07
-1.38515e-09
4.34032e-07
1.56353e-07
-1.96111e-09
5.24573e-07
2.04849e-07
-2.59385e-09
6.11668e-07
2.59365e-07
-3.31176e-09
6.96154e-07
3.2239e-07
-4.13907e-09
7.77888e-07
3.9652e-07
-5.09475e-09
8.55426e-07
4.84447e-07
-6.18974e-09
9.25632e-07
5.88803e-07
-7.42577e-09
9.83448e-07
7.11823e-07
-8.80003e-09
1.02206e-06
8.54653e-07
-1.0316e-08
1.03426e-06
1.01608e-06
-1.19915e-08
1.01715e-06
1.19049e-06
-1.38455e-08
9.79447e-07
1.36011e-06
-1.57424e-08
1.61321e-06
-1.87715e-08
3.65083e-07
4.45524e-08
-8.48368e-10
7.0242e-07
1.32029e-07
-2.5245e-09
1.00936e-06
2.17515e-07
-4.18897e-09
1.29426e-06
3.04752e-07
-5.92921e-09
1.56403e-06
3.9856e-07
-7.84607e-09
1.82357e-06
5.03552e-07
-1.00281e-08
2.07552e-06
6.24321e-07
-1.25527e-08
2.31976e-06
7.65575e-07
-1.54821e-08
2.55245e-06
9.32076e-07
-1.88547e-08
2.76487e-06
1.12828e-06
-2.26786e-08
2.94272e-06
1.3575e-06
-2.69263e-08
3.06703e-06
1.62047e-06
-3.15475e-08
3.11599e-06
1.91234e-06
-3.64946e-08
3.07755e-06
2.2183e-06
-4.16922e-08
2.97356e-06
2.5043e-06
-4.67019e-08
2.78064e-06
-5.346e-08
6.02081e-07
6.43731e-08
-1.41888e-09
1.15784e-06
1.9058e-07
-4.21523e-09
1.66277e-06
3.13457e-07
-6.98478e-09
2.13116e-06
4.38291e-07
-9.88188e-09
2.57466e-06
5.7186e-07
-1.30794e-08
3.00142e-06
7.20465e-07
-1.673e-08
3.4163e-06
8.90231e-07
-2.09699e-08
3.82009e-06
1.0873e-06
-2.59128e-08
4.20808e-06
1.31765e-06
-3.16353e-08
4.56823e-06
1.58662e-06
-3.81568e-08
4.87995e-06
1.89766e-06
-4.54047e-08
5.11586e-06
2.25016e-06
-5.31985e-08
5.24113e-06
2.63477e-06
-6.12728e-08
5.23034e-06
3.02755e-06
-6.92481e-08
5.10847e-06
3.38318e-06
-7.63644e-08
3.69335e-06
-8.54563e-08
8.29504e-07
8.13575e-08
-1.97595e-09
1.59351e-06
2.40563e-07
-5.86187e-09
2.28652e-06
3.9494e-07
-9.70068e-09
2.9291e-06
5.51037e-07
-1.37144e-08
3.53719e-06
7.1706e-07
-1.81478e-08
4.12232e-06
9.0042e-07
-2.32188e-08
4.69215e-06
1.10817e-06
-2.91248e-08
5.2496e-06
1.34715e-06
-3.60362e-08
5.79137e-06
1.62383e-06
-4.40746e-08
6.30586e-06
1.94361e-06
-5.32749e-08
6.77144e-06
2.30973e-06
-6.35175e-08
7.15719e-06
2.72045e-06
-7.44741e-08
7.41918e-06
3.1629e-06
-8.55789e-08
7.51783e-06
3.60673e-06
-9.59756e-08
7.46446e-06
3.99913e-06
-1.04476e-07
4.31949e-06
-1.14304e-07
1.04279e-06
9.4784e-08
-2.50572e-09
2.00166e-06
2.8003e-07
-7.42244e-09
2.87056e-06
4.59077e-07
-1.22644e-08
3.67549e-06
6.39214e-07
-1.73191e-08
4.43616e-06
8.29478e-07
-2.28992e-08
5.16769e-06
1.03787e-06
-2.92844e-08
5.88105e-06
1.27178e-06
-3.67301e-08
6.58242e-06
1.53811e-06
-4.54619e-08
7.27205e-06
1.84308e-06
-5.56489e-08
7.94245e-06
2.1916e-06
-6.73502e-08
8.57718e-06
2.58638e-06
-8.04208e-08
9.14772e-06
3.02508e-06
-9.44234e-08
9.60739e-06
3.49373e-06
-1.08505e-07
9.90329e-06
3.95976e-06
-1.21246e-07
1.00089e-05
4.36522e-06
-1.30761e-07
4.68663e-06
-1.40705e-07
1.23891e-06
1.04309e-07
-2.99512e-09
2.37767e-06
3.07993e-07
-8.85794e-09
3.40868e-06
5.04273e-07
-1.46097e-08
4.36207e-06
7.0069e-07
-2.05975e-08
5.26124e-06
9.06646e-07
-2.71943e-08
6.12481e-06
1.13026e-06
-3.47318e-08
6.96709e-06
1.37874e-06
-4.35148e-08
7.798e-06
1.65845e-06
-5.38156e-08
8.62249e-06
1.97473e-06
-6.58453e-08
9.43932e-06
2.33135e-06
-7.96939e-08
1.02413e-05
2.72991e-06
-9.52245e-08
1.1009e-05
3.16759e-06
-1.11954e-07
1.17028e-05
3.63159e-06
-1.28854e-07
1.22651e-05
4.09281e-06
-1.4406e-07
1.26174e-05
4.49539e-06
-1.54797e-07
4.83364e-06
-1.65883e-07
1.41712e-06
1.09825e-07
-3.43268e-09
2.71869e-06
3.23992e-07
-1.0135e-08
3.8955e-06
5.2966e-07
-1.66812e-08
4.98149e-06
7.34419e-07
-2.34688e-08
6.00316e-06
9.47632e-07
-3.0919e-08
6.982e-06
1.1771e-06
-3.94026e-08
7.93527e-06
1.42942e-06
-4.92584e-08
8.87631e-06
1.70997e-06
-6.07893e-08
9.81449e-06
2.02272e-06
-7.42339e-08
1.07548e-05
2.36963e-06
-8.97056e-08
1.16994e-05
2.75017e-06
-1.07088e-07
1.26405e-05
3.15981e-06
-1.25894e-07
1.35536e-05
3.5863e-06
-1.45053e-07
1.43952e-05
4.00622e-06
-1.62589e-07
1.50609e-05
4.37877e-06
-1.75147e-07
4.79258e-06
-1.91703e-07
1.57549e-06
-3.80924e-09
1.11138e-07
3.02102e-06
-1.12279e-08
3.27672e-07
4.32592e-06
-1.84382e-08
5.35035e-07
5.52726e-06
-2.58756e-08
7.40505e-07
6.6538e-06
-3.39946e-08
9.53047e-07
7.72917e-06
-4.31892e-08
1.17986e-06
8.77273e-06
-5.38136e-08
1.42667e-06
9.80021e-06
-6.61792e-08
1.69763e-06
1.0824e-05
-8.05275e-08
1.99505e-06
1.18531e-05
-9.69694e-08
2.31867e-06
1.28949e-05
-1.15382e-07
2.66491e-06
1.39474e-05
-1.35239e-07
3.02542e-06
1.49939e-05
-1.55388e-07
3.38422e-06
1.5993e-05
-1.73703e-07
3.71435e-06
1.68148e-05
-1.86489e-07
3.97938e-06
-2.20649e-07
4.2703e-06
1.22853e-07
2.30984e-08