/*--------------------------------*- C++ -*----------------------------------*\
| =========                 |                                                 |
| \\      /  F ield         | foam-extend: Open Source CFD                    |
|  \\    /   O peration     | Version:     3.1                                |
|   \\  /    A nd           | Web:         http://www.extend-project.de       |
|    \\/     M anipulation  |                                                 |
\*---------------------------------------------------------------------------*/
FoamFile
{
    version     2.0;
    format      ascii;
    class       volScalarField;
    location    "0.8";
    object      p;
}
// * * * * * * * * * * * * * * * * * * * * * * * * * * * * * * * * * * * * * //

dimensions      [0 2 -2 0 0 0 0];

internalField   nonuniform List<scalar> 
14592
(
0.204203
0.203099
0.201131
0.198557
0.195672
0.192625
0.189507
0.186378
0.183275
0.180229
0.177264
0.174398
0.171646
0.16901
0.166511
0.16441
0.204587
0.203022
0.200954
0.19837
0.195483
0.192434
0.18931
0.186172
0.18306
0.180009
0.177047
0.174199
0.171494
0.168958
0.166599
0.164533
0.205594
0.203376
0.201031
0.198333
0.195371
0.192268
0.189102
0.185927
0.182781
0.1797
0.176713
0.173853
0.171155
0.168658
0.166364
0.164326
0.206901
0.203993
0.201273
0.198395
0.195312
0.192118
0.18888
0.185642
0.18244
0.179301
0.176257
0.173342
0.170598
0.16807
0.165779
0.163821
0.208222
0.204697
0.201579
0.198494
0.195269
0.191966
0.18864
0.185322
0.182042
0.178822
0.175688
0.172676
0.169829
0.167208
0.16487
0.163026
0.209355
0.205335
0.201862
0.198575
0.195209
0.191793
0.188373
0.184966
0.181593
0.17827
0.175017
0.171864
0.168856
0.166067
0.163609
0.16184
0.210144
0.205777
0.202037
0.198585
0.1951
0.191584
0.188069
0.184575
0.181102
0.177661
0.174263
0.170928
0.167693
0.164636
0.161926
0.160033
0.210492
0.205934
0.202043
0.198488
0.19492
0.191327
0.187741
0.184161
0.180588
0.177022
0.173463
0.169911
0.166377
0.162902
0.159641
0.156848
0.205375
0.204211
0.202154
0.19948
0.196509
0.193404
0.190264
0.187153
0.184117
0.181194
0.178425
0.175852
0.173531
0.171522
0.169966
0.169397
0.205802
0.204136
0.201967
0.199281
0.19631
0.193205
0.190061
0.186946
0.183904
0.180982
0.178224
0.175682
0.173425
0.171528
0.170128
0.169842
0.206908
0.204536
0.20206
0.199249
0.196197
0.193035
0.189847
0.186695
0.183618
0.180667
0.177888
0.175338
0.173098
0.171254
0.169946
0.169842
0.208347
0.20523
0.202338
0.199328
0.196144
0.192882
0.189618
0.186395
0.18326
0.180248
0.177407
0.1748
0.17251
0.170638
0.169338
0.169327
0.209808
0.206021
0.202689
0.199448
0.196108
0.192727
0.189366
0.186057
0.182837
0.179733
0.176792
0.174073
0.171665
0.169681
0.168304
0.16832
0.211064
0.206741
0.203014
0.199548
0.196052
0.192548
0.189083
0.185675
0.182351
0.17913
0.176051
0.173166
0.170562
0.168366
0.166788
0.166696
0.211943
0.207242
0.203218
0.199568
0.19594
0.192326
0.188756
0.185251
0.181814
0.178457
0.175207
0.172101
0.169214
0.166667
0.164685
0.164112
0.212333
0.207425
0.203232
0.199468
0.195748
0.192047
0.188399
0.184799
0.181246
0.177744
0.174299
0.170927
0.167659
0.164564
0.161783
0.15957
0.206462
0.205246
0.203114
0.200352
0.197305
0.194148
0.190988
0.187894
0.184917
0.182104
0.179503
0.177171
0.175176
0.173595
0.172578
0.17251
0.206926
0.205175
0.202919
0.200144
0.197097
0.193942
0.190781
0.187686
0.184707
0.181899
0.179316
0.177021
0.175097
0.173626
0.172764
0.172984
0.20812
0.205617
0.203029
0.200118
0.196985
0.193769
0.190562
0.18743
0.184416
0.18158
0.178976
0.176676
0.174769
0.173352
0.17259
0.17301
0.209677
0.20638
0.20334
0.200213
0.196937
0.193615
0.190325
0.187118
0.184043
0.181142
0.178472
0.176109
0.174149
0.172698
0.171939
0.172456
0.211262
0.207253
0.203734
0.200354
0.196909
0.193457
0.190063
0.186763
0.183595
0.180594
0.177814
0.175327
0.173234
0.171654
0.170787
0.171303
0.212629
0.208048
0.204098
0.200472
0.196857
0.193271
0.189765
0.186357
0.183074
0.179944
0.17701
0.174336
0.17202
0.170188
0.169057
0.169389
0.213588
0.208603
0.204329
0.2005
0.196742
0.193038
0.189416
0.185902
0.182494
0.179212
0.176084
0.173159
0.170516
0.168271
0.166622
0.166308
0.214014
0.208808
0.20435
0.200396
0.196538
0.192739
0.189033
0.185413
0.181877
0.178429
0.17508
0.171848
0.168766
0.165885
0.163281
0.160988
0.207425
0.206169
0.203973
0.201138
0.198025
0.194823
0.191645
0.188566
0.185639
0.182916
0.180449
0.1783
0.17654
0.175242
0.174536
0.174668
0.207922
0.206101
0.203772
0.200922
0.197809
0.194611
0.191435
0.188357
0.185431
0.182717
0.180272
0.178165
0.176476
0.175284
0.174726
0.175124
0.209192
0.206581
0.203898
0.200902
0.197698
0.194436
0.191212
0.188096
0.185135
0.182392
0.179927
0.177814
0.176142
0.174998
0.174534
0.175126
0.210849
0.207405
0.20424
0.201013
0.197657
0.194281
0.19097
0.187775
0.184749
0.181938
0.179403
0.177221
0.175489
0.174304
0.173833
0.174517
0.212542
0.208348
0.204671
0.201173
0.197636
0.194122
0.190699
0.187405
0.184279
0.181361
0.178707
0.176391
0.174513
0.173181
0.17258
0.173246
0.214004
0.209208
0.205071
0.201306
0.197588
0.193931
0.190387
0.186977
0.183729
0.18067
0.177849
0.175329
0.173206
0.171593
0.170682
0.171126
0.215031
0.209811
0.205325
0.201343
0.197471
0.193687
0.190019
0.186494
0.18311
0.179886
0.176853
0.174059
0.171577
0.169505
0.168004
0.167713
0.215489
0.210035
0.205353
0.201235
0.197255
0.193369
0.189612
0.185972
0.182448
0.179044
0.175768
0.172638
0.169676
0.16691
0.16436
0.161898
0.208235
0.206947
0.204701
0.201806
0.198639
0.1954
0.192207
0.189139
0.186251
0.183596
0.18123
0.179214
0.177614
0.176497
0.175967
0.176187
0.208759
0.206882
0.204496
0.201584
0.198418
0.195184
0.191995
0.188929
0.186045
0.183402
0.18106
0.179088
0.17756
0.176544
0.176154
0.176626
0.21009
0.207393
0.204635
0.20157
0.198309
0.195007
0.191769
0.188666
0.185745
0.183073
0.180711
0.178731
0.177216
0.176242
0.175938
0.176596
0.21183
0.208268
0.205003
0.201695
0.198273
0.194853
0.191522
0.188335
0.185348
0.182604
0.180168
0.178115
0.176534
0.17551
0.17519
0.175933
0.21361
0.209269
0.205466
0.20187
0.198258
0.194692
0.191245
0.187953
0.18486
0.182004
0.179441
0.177246
0.175508
0.174324
0.173856
0.174569
0.21515
0.210184
0.205895
0.202017
0.198214
0.194497
0.190921
0.187507
0.184284
0.18128
0.178539
0.176127
0.174128
0.17264
0.171832
0.172297
0.216233
0.210825
0.20617
0.202061
0.198094
0.194243
0.190537
0.187001
0.183634
0.180453
0.177488
0.174783
0.172403
0.170425
0.168981
0.168655
0.216716
0.211066
0.206202
0.20195
0.197869
0.19391
0.190108
0.186451
0.182935
0.179562
0.176339
0.173276
0.170388
0.16768
0.165129
0.162505
0.208866
0.207554
0.205271
0.202331
0.199123
0.195855
0.192651
0.189589
0.186729
0.184124
0.181828
0.179901
0.178407
0.1774
0.176968
0.177231
0.209411
0.207493
0.205063
0.202104
0.198898
0.195636
0.192436
0.18938
0.186524
0.183933
0.181663
0.179781
0.178357
0.177448
0.177151
0.177656
0.210789
0.208028
0.205213
0.202096
0.19879
0.195459
0.192209
0.189114
0.186222
0.183601
0.18131
0.179419
0.178004
0.177132
0.176915
0.1776
0.212591
0.208942
0.205602
0.202231
0.198759
0.195304
0.191959
0.188777
0.185816
0.183121
0.180753
0.178785
0.177299
0.17637
0.176129
0.176892
0.214438
0.209988
0.206088
0.202419
0.198749
0.195143
0.191676
0.188385
0.185315
0.182502
0.180002
0.177885
0.176235
0.175136
0.174733
0.175458
0.216038
0.210945
0.206541
0.202577
0.198707
0.194944
0.191343
0.187925
0.184719
0.181752
0.179067
0.176724
0.174801
0.173383
0.172621
0.17308
0.217163
0.211616
0.206831
0.202625
0.198586
0.194683
0.190946
0.187401
0.184045
0.180893
0.177974
0.175327
0.173007
0.171078
0.16965
0.169282
0.217666
0.211868
0.206867
0.202511
0.198353
0.194338
0.190501
0.186829
0.183317
0.179965
0.176776
0.173757
0.170912
0.168229
0.165658
0.162908
0.209299
0.207971
0.205665
0.202694
0.199458
0.196171
0.192958
0.189901
0.187058
0.184484
0.182233
0.180361
0.178929
0.177986
0.177607
0.177889
0.209858
0.207913
0.205455
0.202466
0.199232
0.19595
0.192743
0.189692
0.186855
0.184296
0.182071
0.180245
0.178883
0.178035
0.177788
0.178306
0.211267
0.208465
0.205613
0.202461
0.199125
0.195773
0.192515
0.189424
0.186551
0.183961
0.181715
0.179879
0.178524
0.177709
0.177538
0.178231
0.213111
0.209406
0.206016
0.202604
0.199097
0.195619
0.192262
0.189083
0.186139
0.183474
0.181149
0.179233
0.177802
0.176926
0.176725
0.177493
0.215003
0.210483
0.20652
0.2028
0.199091
0.195457
0.191976
0.188685
0.185628
0.182842
0.180382
0.178313
0.176713
0.175659
0.175289
0.176013
0.216643
0.211468
0.206988
0.202966
0.199052
0.195256
0.191637
0.188216
0.18502
0.182075
0.179424
0.177123
0.175243
0.173861
0.173119
0.173567
0.217797
0.212159
0.207288
0.203018
0.198929
0.19499
0.191232
0.187679
0.184329
0.181195
0.178303
0.17569
0.173404
0.171499
0.170072
0.169671
0.218312
0.21242
0.207327
0.202902
0.198691
0.194636
0.190775
0.187093
0.183582
0.180242
0.177074
0.17408
0.171258
0.168584
0.165993
0.163155
0.209513
0.20817
0.205855
0.202871
0.199622
0.196325
0.193109
0.190054
0.18722
0.184661
0.18243
0.180585
0.179181
0.178266
0.177912
0.178199
0.210083
0.208118
0.205646
0.202642
0.199393
0.196103
0.192892
0.189843
0.187015
0.184471
0.182268
0.180467
0.179132
0.178311
0.178088
0.178608
0.211503
0.208677
0.205805
0.202637
0.199286
0.195924
0.192662
0.189574
0.186709
0.184135
0.18191
0.180098
0.17877
0.17798
0.177831
0.178524
0.213367
0.209633
0.206214
0.202782
0.19926
0.19577
0.192409
0.18923
0.186295
0.183644
0.181338
0.179446
0.17804
0.177187
0.177005
0.177772
0.21528
0.210726
0.206726
0.202982
0.199255
0.195608
0.19212
0.188829
0.185779
0.183006
0.180564
0.178516
0.176938
0.175904
0.175551
0.176271
0.216939
0.211726
0.207203
0.20315
0.199216
0.195406
0.191778
0.188356
0.185165
0.182231
0.179595
0.177312
0.175451
0.174084
0.173353
0.173793
0.218107
0.212428
0.207508
0.203204
0.199093
0.195137
0.191369
0.187813
0.184465
0.18134
0.178461
0.175862
0.17359
0.171694
0.170269
0.169846
0.218628
0.212693
0.207549
0.203087
0.198852
0.194779
0.190906
0.187219
0.183709
0.180375
0.177216
0.174234
0.17142
0.168748
0.166141
0.163243
0.19725
0.196858
0.195662
0.19382
0.191509
0.18884
0.185889
0.182708
0.179326
0.175754
0.17199
0.16802
0.163818
0.15936
0.154626
0.149618
0.197343
0.19694
0.195713
0.19383
0.191479
0.188771
0.185784
0.18257
0.179157
0.175557
0.171765
0.167767
0.163538
0.159054
0.154295
0.149264
0.197592
0.197126
0.195834
0.193883
0.191469
0.188707
0.185673
0.182417
0.178966
0.175331
0.171507
0.16748
0.163225
0.158719
0.153943
0.148902
0.197911
0.19736
0.195981
0.193945
0.191457
0.188631
0.185542
0.182239
0.178746
0.175074
0.171216
0.167158
0.162878
0.158353
0.153567
0.148526
0.198224
0.197591
0.196122
0.193998
0.191431
0.188539
0.185394
0.182041
0.178505
0.174793
0.1709
0.166812
0.162508
0.157967
0.153177
0.148145
0.198481
0.197781
0.196231
0.194024
0.191384
0.188428
0.185227
0.181827
0.178248
0.174497
0.170569
0.166451
0.162125
0.157573
0.152785
0.147772
0.198645
0.197897
0.196282
0.194007
0.191306
0.188294
0.185046
0.181602
0.177983
0.174194
0.170233
0.166088
0.161743
0.157185
0.152406
0.147421
0.198692
0.197915
0.196258
0.193937
0.19119
0.188138
0.184851
0.18137
0.177715
0.173893
0.169902
0.165733
0.161374
0.156815
0.152053
0.147104
0.197369
0.196937
0.195713
0.193852
0.191532
0.188859
0.185908
0.182731
0.179354
0.17579
0.172035
0.168072
0.163875
0.159416
0.15467
0.149639
0.197435
0.196946
0.195698
0.193808
0.191459
0.188757
0.185778
0.182571
0.179167
0.175575
0.171791
0.1678
0.163575
0.159088
0.154316
0.149262
0.197703
0.197094
0.195777
0.193827
0.191423
0.188672
0.185649
0.182403
0.178962
0.175337
0.171522
0.167501
0.163249
0.158739
0.15395
0.148886
0.198058
0.197309
0.195899
0.193869
0.191395
0.188584
0.185509
0.182217
0.178736
0.175073
0.171223
0.167171
0.162894
0.158365
0.153565
0.148501
0.198407
0.19753
0.196023
0.193907
0.191359
0.188484
0.185354
0.182014
0.17849
0.174787
0.170902
0.166819
0.162517
0.157972
0.153168
0.148113
0.198692
0.197713
0.196119
0.193924
0.191304
0.188367
0.185184
0.181797
0.17823
0.174488
0.170567
0.166454
0.162129
0.157572
0.15277
0.147735
0.198875
0.197824
0.196162
0.193901
0.191221
0.18823
0.184999
0.181569
0.177961
0.174182
0.170227
0.166086
0.161741
0.157177
0.152385
0.14738
0.19893
0.19784
0.196134
0.193827
0.191102
0.188072
0.184802
0.181335
0.177691
0.173878
0.169893
0.165727
0.161367
0.156802
0.152027
0.14706
0.197833
0.197311
0.196014
0.194094
0.191733
0.189036
0.186074
0.182898
0.179533
0.17599
0.172261
0.168326
0.164152
0.159696
0.154918
0.149808
0.197924
0.197285
0.195961
0.19402
0.191637
0.188916
0.18593
0.182728
0.179337
0.175767
0.172011
0.168047
0.163843
0.159358
0.154551
0.149415
0.198262
0.197426
0.196017
0.194016
0.191581
0.188814
0.185786
0.182547
0.179121
0.175517
0.171729
0.167736
0.163504
0.158994
0.154167
0.14902
0.198706
0.197652
0.196127
0.194044
0.191538
0.188712
0.185634
0.18235
0.178883
0.175241
0.171417
0.167391
0.163131
0.1586
0.153761
0.148614
0.19914
0.197891
0.196247
0.194073
0.191492
0.188602
0.185469
0.182135
0.178625
0.174943
0.171081
0.167021
0.162733
0.158183
0.153339
0.148202
0.199497
0.198094
0.196344
0.194085
0.19143
0.188478
0.185291
0.181909
0.178354
0.174629
0.170728
0.166634
0.162319
0.157755
0.152912
0.147798
0.199729
0.19822
0.196387
0.194058
0.191342
0.188334
0.185098
0.181671
0.178073
0.174307
0.170369
0.166242
0.161904
0.157329
0.152497
0.147417
0.199807
0.198241
0.196358
0.193981
0.191218
0.188169
0.184893
0.181428
0.177791
0.173988
0.170015
0.165859
0.161502
0.156923
0.15211
0.147074
0.198572
0.197938
0.196538
0.19453
0.192105
0.189366
0.186385
0.183209
0.179863
0.176355
0.172675
0.168794
0.164667
0.16023
0.155408
0.150163
0.198709
0.197892
0.196458
0.194434
0.191992
0.189233
0.18623
0.183031
0.179661
0.176128
0.172421
0.168512
0.164355
0.159888
0.155032
0.149759
0.199145
0.198045
0.196501
0.194414
0.191919
0.189116
0.186074
0.182839
0.179434
0.175867
0.172128
0.168188
0.164002
0.159508
0.154629
0.149342
0.19971
0.198306
0.196612
0.194434
0.191866
0.189003
0.185909
0.182629
0.179181
0.175575
0.171797
0.167822
0.163604
0.159086
0.154192
0.148903
0.200264
0.19859
0.196741
0.194463
0.191813
0.188882
0.185732
0.182399
0.178907
0.175257
0.171437
0.167423
0.163172
0.15863
0.153728
0.148452
0.200723
0.198836
0.196849
0.194475
0.191746
0.188749
0.185542
0.182159
0.178617
0.17492
0.171055
0.167
0.162715
0.158153
0.153252
0.148003
0.201028
0.198992
0.196901
0.194448
0.191653
0.188597
0.185337
0.181906
0.178317
0.174573
0.170663
0.166567
0.16225
0.157671
0.15278
0.147574
0.20114
0.199025
0.196873
0.194368
0.191523
0.188423
0.185121
0.181646
0.178014
0.174227
0.170275
0.166141
0.161795
0.157206
0.152334
0.147184
0.19951
0.198761
0.197244
0.195131
0.192624
0.189831
0.186825
0.183651
0.180333
0.176877
0.173271
0.169479
0.165439
0.161055
0.156194
0.150765
0.199695
0.1987
0.197138
0.195013
0.192494
0.189686
0.186661
0.183465
0.180125
0.176646
0.173015
0.169197
0.165128
0.160714
0.155815
0.15036
0.200243
0.198879
0.197176
0.194981
0.192408
0.189556
0.186492
0.183261
0.179886
0.176373
0.17271
0.16886
0.164761
0.160319
0.155392
0.149918
0.200948
0.199193
0.197299
0.195
0.192347
0.189431
0.186314
0.183036
0.179617
0.176062
0.172357
0.168468
0.164333
0.159863
0.154916
0.149438
0.201645
0.199541
0.197448
0.195033
0.19229
0.189302
0.186125
0.182791
0.179323
0.175719
0.171965
0.16803
0.163855
0.159354
0.154397
0.148934
0.202226
0.199848
0.197578
0.195052
0.192221
0.189161
0.185921
0.182532
0.179009
0.175351
0.171544
0.167557
0.163337
0.158807
0.153848
0.148421
0.202619
0.200048
0.197646
0.195028
0.192124
0.188999
0.185701
0.182259
0.178682
0.174969
0.171106
0.167065
0.162799
0.15824
0.15329
0.147918
0.202773
0.2001
0.197621
0.194945
0.191986
0.188812
0.185469
0.181978
0.17835
0.174585
0.170668
0.166574
0.162263
0.157679
0.152745
0.147444
0.200591
0.199737
0.198098
0.195869
0.19327
0.190416
0.187381
0.184211
0.180932
0.177549
0.17405
0.170395
0.166504
0.162239
0.157367
0.151692
0.200827
0.199666
0.19797
0.195731
0.193123
0.190258
0.187207
0.184019
0.180719
0.177315
0.173795
0.170117
0.166201
0.161907
0.156984
0.151271
0.201492
0.199881
0.198009
0.195692
0.193027
0.190116
0.187027
0.183803
0.180468
0.177031
0.173478
0.169769
0.165823
0.161497
0.156536
0.150787
0.202349
0.200262
0.198154
0.195715
0.192963
0.189983
0.186837
0.183563
0.180181
0.176699
0.173101
0.169348
0.165361
0.161001
0.156014
0.150259
0.203201
0.20069
0.198334
0.195759
0.192906
0.189846
0.186634
0.1833
0.179864
0.176326
0.172671
0.168863
0.164825
0.160427
0.155429
0.149701
0.203918
0.201071
0.198495
0.195789
0.192837
0.189696
0.186416
0.18302
0.179522
0.17592
0.1722
0.168326
0.164227
0.159787
0.154787
0.149118
0.204408
0.201326
0.198584
0.195772
0.192736
0.189524
0.186178
0.182722
0.179161
0.175493
0.171702
0.167754
0.163587
0.1591
0.154107
0.148522
0.204609
0.201402
0.198566
0.195685
0.192589
0.189323
0.185926
0.182414
0.178793
0.175059
0.171196
0.167173
0.162934
0.158397
0.153414
0.147928
0.201766
0.200817
0.19906
0.196712
0.194016
0.191097
0.188033
0.184872
0.181642
0.178354
0.175001
0.171547
0.167905
0.16389
0.159102
0.153006
0.202053
0.200741
0.198912
0.196555
0.193854
0.190926
0.187849
0.184673
0.181427
0.178122
0.174753
0.171284
0.167628
0.163587
0.1587
0.152405
0.202837
0.200999
0.19896
0.196513
0.19375
0.190775
0.187658
0.184446
0.181165
0.177827
0.174427
0.17093
0.167246
0.163174
0.158219
0.151805
0.203848
0.201457
0.199133
0.196546
0.193685
0.190634
0.187457
0.184191
0.180859
0.177473
0.174023
0.170478
0.166749
0.162637
0.157652
0.151233
0.20486
0.201974
0.199351
0.196606
0.193631
0.190491
0.187241
0.183909
0.180517
0.177066
0.173551
0.169937
0.166144
0.161984
0.156996
0.15066
0.205718
0.202438
0.19955
0.196651
0.193563
0.190334
0.187008
0.183605
0.180141
0.176616
0.173019
0.16932
0.165443
0.161221
0.156243
0.150049
0.20631
0.202754
0.199665
0.196642
0.193459
0.19015
0.186749
0.183279
0.179741
0.176134
0.172446
0.168646
0.164666
0.160365
0.155395
0.149388
0.206561
0.202856
0.199654
0.196552
0.193303
0.189932
0.186474
0.182939
0.17933
0.17564
0.171856
0.167945
0.163847
0.159445
0.154472
0.148673
0.202985
0.201953
0.200086
0.197621
0.194828
0.191844
0.188752
0.185605
0.182436
0.179263
0.176094
0.172912
0.169662
0.166187
0.162003
0.155795
0.203322
0.201875
0.199922
0.197448
0.194652
0.191662
0.188561
0.185402
0.182219
0.179036
0.175859
0.172678
0.16944
0.165983
0.161704
0.154932
0.204221
0.202181
0.199982
0.197407
0.194543
0.191503
0.188361
0.185166
0.181948
0.178733
0.175528
0.172326
0.169075
0.165607
0.161262
0.154239
0.205384
0.202719
0.200189
0.197453
0.19448
0.191357
0.188149
0.184895
0.181625
0.178356
0.175098
0.171843
0.168546
0.165038
0.160671
0.153679
0.206554
0.203329
0.20045
0.197532
0.194431
0.191209
0.18792
0.184594
0.181255
0.177913
0.174578
0.171241
0.167861
0.164287
0.15992
0.153128
0.207553
0.203881
0.20069
0.197594
0.194367
0.191044
0.18767
0.184264
0.180843
0.177413
0.173978
0.170529
0.16703
0.163352
0.15898
0.152478
0.208246
0.20426
0.200835
0.197594
0.19426
0.190847
0.187389
0.183906
0.180399
0.17687
0.173318
0.16973
0.166072
0.162242
0.157828
0.151645
0.208546
0.20439
0.200832
0.197502
0.194092
0.19061
0.187088
0.183531
0.179938
0.176306
0.172627
0.16888
0.165025
0.160972
0.15642
0.15049
0.210323
0.205761
0.201855
0.198275
0.194672
0.191036
0.187392
0.18374
0.180074
0.176386
0.172664
0.168886
0.165013
0.160964
0.156461
0.150562
0.209699
0.205284
0.201492
0.19796
0.194369
0.19072
0.187041
0.183332
0.179586
0.17579
0.171923
0.167949
0.163805
0.15937
0.154354
0.148452
0.208656
0.20456
0.201
0.197579
0.194037
0.190402
0.186707
0.182957
0.179146
0.175262
0.171279
0.167161
0.162845
0.158239
0.153175
0.147599
0.207318
0.203698
0.200458
0.197184
0.193715
0.19011
0.186413
0.182634
0.178775
0.174822
0.170754
0.166537
0.162122
0.157445
0.152414
0.147014
0.205854
0.202843
0.199959
0.196836
0.193444
0.189873
0.186178
0.182379
0.178483
0.17448
0.170352
0.166072
0.161602
0.1569
0.151921
0.146665
0.204473
0.202142
0.199589
0.196589
0.193258
0.189712
0.186017
0.182202
0.178278
0.17424
0.170073
0.165754
0.161257
0.156555
0.151626
0.146482
0.20346
0.201763
0.199434
0.196497
0.19319
0.189647
0.185943
0.182113
0.17817
0.174111
0.169922
0.165584
0.161076
0.156379
0.151483
0.146405
0.203112
0.20184
0.199559
0.196593
0.193254
0.189684
0.18596
0.182117
0.178164
0.174097
0.169902
0.165559
0.161049
0.156353
0.151464
0.146398
0.212149
0.207237
0.203027
0.199236
0.195478
0.191731
0.188019
0.184336
0.180675
0.177029
0.173387
0.16973
0.166024
0.162172
0.157792
0.151549
0.21146
0.206708
0.202625
0.19889
0.195146
0.191385
0.187633
0.183886
0.180132
0.176357
0.172538
0.168635
0.164576
0.160211
0.155157
0.148967
0.210308
0.2059
0.202078
0.198468
0.194781
0.191037
0.187267
0.183472
0.179643
0.175762
0.171802
0.167717
0.163436
0.158842
0.153719
0.147985
0.208831
0.204939
0.201474
0.198031
0.194427
0.190716
0.186943
0.183116
0.179229
0.175267
0.171202
0.166995
0.162585
0.157893
0.152801
0.14728
0.207218
0.203986
0.20092
0.197647
0.194128
0.190456
0.186686
0.182835
0.178905
0.174883
0.170746
0.166459
0.161977
0.157248
0.152209
0.146854
0.205702
0.203207
0.200508
0.197374
0.193923
0.19028
0.186509
0.18264
0.178678
0.174614
0.17043
0.166096
0.161578
0.156841
0.151856
0.14663
0.20459
0.202783
0.200334
0.197272
0.193848
0.190209
0.186429
0.182542
0.178558
0.17447
0.170259
0.165901
0.161368
0.156634
0.151685
0.146535
0.204204
0.202859
0.200468
0.197376
0.193918
0.19025
0.186448
0.182546
0.178551
0.174454
0.170236
0.165872
0.161336
0.156604
0.151663
0.146527
0.213818
0.208605
0.204129
0.200146
0.196248
0.192398
0.188621
0.184909
0.181253
0.177642
0.174066
0.170506
0.166917
0.163173
0.1588
0.152202
0.21307
0.208028
0.203691
0.19977
0.195887
0.192023
0.188203
0.184419
0.180657
0.176899
0.173119
0.169273
0.165274
0.160943
0.155824
0.149383
0.211818
0.207144
0.203091
0.199311
0.19549
0.191644
0.187804
0.183968
0.18012
0.176241
0.172299
0.168241
0.163982
0.159386
0.154196
0.148312
0.210216
0.206092
0.20243
0.198834
0.195104
0.191296
0.187453
0.183579
0.179666
0.175694
0.171631
0.16743
0.16302
0.158308
0.153153
0.14752
0.208469
0.205049
0.201822
0.198414
0.194778
0.191013
0.187172
0.183272
0.17931
0.17527
0.171123
0.166829
0.162335
0.157576
0.152478
0.147031
0.206832
0.204197
0.201371
0.198116
0.194555
0.190821
0.18698
0.183059
0.179062
0.174974
0.170773
0.166423
0.161884
0.157115
0.152075
0.146773
0.205634
0.203731
0.201179
0.198003
0.194473
0.190744
0.186893
0.182953
0.178931
0.174815
0.170583
0.166205
0.161648
0.15688
0.151881
0.146663
0.205213
0.203805
0.201319
0.198114
0.194548
0.190788
0.186914
0.182957
0.178923
0.174797
0.170557
0.166173
0.161612
0.156845
0.151855
0.146653
0.21528
0.209819
0.205117
0.200968
0.196946
0.193006
0.189172
0.185433
0.181777
0.178193
0.174668
0.171177
0.167663
0.163971
0.159558
0.152644
0.21448
0.209198
0.204646
0.200565
0.19656
0.192604
0.188723
0.184906
0.181135
0.177389
0.173639
0.169832
0.165871
0.161548
0.156355
0.149699
0.213143
0.208247
0.203999
0.200071
0.196134
0.192198
0.188295
0.18442
0.180555
0.176676
0.172746
0.168705
0.164459
0.15985
0.154593
0.148577
0.211432
0.207115
0.203286
0.199557
0.195718
0.191824
0.187917
0.184002
0.180065
0.176083
0.172019
0.16782
0.163405
0.15867
0.153456
0.147723
0.20957
0.205993
0.20263
0.199105
0.195368
0.191519
0.187616
0.183672
0.179681
0.175623
0.171467
0.167164
0.162655
0.157868
0.152716
0.147189
0.207829
0.205078
0.202144
0.198784
0.195127
0.191313
0.187409
0.183442
0.179412
0.175303
0.171085
0.16672
0.162162
0.157361
0.152273
0.146902
0.206556
0.204575
0.201935
0.198661
0.195038
0.19123
0.187315
0.183328
0.179271
0.17513
0.170879
0.166483
0.161903
0.157103
0.152058
0.14678
0.206105
0.204647
0.20208
0.198777
0.195117
0.191276
0.187337
0.183332
0.179261
0.17511
0.17085
0.166447
0.161863
0.157064
0.152029
0.146769
0.216497
0.210838
0.205954
0.201668
0.197543
0.193527
0.189644
0.185881
0.182224
0.17866
0.17517
0.171724
0.168256
0.164582
0.160111
0.152942
0.215655
0.210181
0.205454
0.201241
0.197135
0.193103
0.189169
0.185323
0.181543
0.177805
0.174075
0.170294
0.166352
0.162023
0.156759
0.14993
0.214247
0.209174
0.204768
0.200717
0.196683
0.192672
0.188716
0.184808
0.180928
0.177047
0.173123
0.169093
0.16485
0.160223
0.154905
0.148781
0.212446
0.207975
0.20401
0.200173
0.196242
0.192275
0.188316
0.184365
0.180407
0.176415
0.172349
0.168148
0.163727
0.158968
0.153702
0.147886
0.21049
0.206787
0.203314
0.199693
0.195871
0.191953
0.187996
0.184014
0.179999
0.175926
0.17176
0.167448
0.162925
0.158112
0.152914
0.147319
0.208663
0.205819
0.202798
0.199352
0.195615
0.191734
0.187777
0.183771
0.179713
0.175584
0.171352
0.166974
0.162398
0.15757
0.15244
0.147013
0.207329
0.205286
0.202574
0.19922
0.19552
0.191645
0.187677
0.183649
0.179563
0.175401
0.171132
0.16672
0.16212
0.157293
0.152209
0.14688
0.206854
0.205356
0.202723
0.19934
0.195602
0.191693
0.187699
0.183653
0.179552
0.175379
0.171101
0.166681
0.162078
0.157251
0.152178
0.146869
0.217437
0.211631
0.206609
0.202219
0.198014
0.193939
0.190018
0.186236
0.182576
0.179023
0.175557
0.17214
0.168695
0.165024
0.1605
0.15314
0.216563
0.210947
0.206087
0.201773
0.197588
0.193496
0.189523
0.185653
0.181865
0.178131
0.174413
0.170647
0.166715
0.162372
0.157049
0.150091
0.2151
0.209896
0.205369
0.201226
0.197117
0.193047
0.189049
0.185115
0.181222
0.177338
0.173418
0.169392
0.165147
0.160502
0.155136
0.148929
0.213231
0.208645
0.204577
0.200657
0.196656
0.192632
0.188631
0.184652
0.180677
0.176677
0.172607
0.168404
0.163974
0.159195
0.153887
0.148009
0.211202
0.207406
0.20385
0.200155
0.196267
0.192295
0.188297
0.184286
0.18025
0.176165
0.17199
0.167671
0.163135
0.1583
0.153066
0.147419
0.20931
0.206397
0.20331
0.199798
0.196
0.192066
0.188068
0.184031
0.179951
0.175807
0.171563
0.167174
0.162583
0.157732
0.15257
0.147099
0.20793
0.20584
0.203075
0.199659
0.195899
0.191973
0.187963
0.183904
0.179794
0.175615
0.171333
0.166907
0.162292
0.157442
0.152328
0.14696
0.207436
0.205908
0.203227
0.199781
0.195983
0.192022
0.187986
0.183907
0.179783
0.175591
0.1713
0.166866
0.162247
0.157398
0.152295
0.146947
0.218078
0.212177
0.207062
0.202601
0.198343
0.194227
0.190279
0.186482
0.18282
0.179274
0.175821
0.17242
0.168988
0.165314
0.16075
0.153266
0.217181
0.211473
0.206524
0.202143
0.197905
0.193772
0.189769
0.185883
0.182088
0.178356
0.174644
0.170887
0.166958
0.162603
0.157238
0.150193
0.215682
0.210392
0.205786
0.201579
0.197419
0.193309
0.189282
0.18533
0.181427
0.177539
0.173621
0.169597
0.165349
0.160689
0.155288
0.149025
0.213766
0.209106
0.20497
0.200993
0.196945
0.192882
0.188852
0.184853
0.180866
0.176859
0.172786
0.168579
0.164143
0.159349
0.154012
0.148091
0.211688
0.207833
0.204221
0.200477
0.196544
0.192534
0.188508
0.184475
0.180426
0.176331
0.17215
0.167825
0.16328
0.158429
0.15317
0.147488
0.209753
0.206795
0.203665
0.200109
0.196268
0.192298
0.188272
0.184213
0.180118
0.175962
0.17171
0.167312
0.16271
0.157845
0.15266
0.147158
0.208342
0.206222
0.203421
0.199964
0.196163
0.192201
0.188163
0.184081
0.179955
0.175764
0.171472
0.167037
0.16241
0.157545
0.15241
0.147014
0.207834
0.206287
0.203573
0.200087
0.196247
0.19225
0.188185
0.184083
0.179942
0.175739
0.171437
0.166994
0.162363
0.1575
0.152376
0.147001
0.218391
0.212446
0.20728
0.202782
0.198499
0.194365
0.190403
0.186601
0.182938
0.179395
0.175948
0.172555
0.169128
0.165454
0.160879
0.153324
0.217483
0.211733
0.206735
0.202318
0.198055
0.193903
0.189887
0.185994
0.182196
0.178464
0.174756
0.171003
0.167075
0.162714
0.157329
0.150221
0.215966
0.210637
0.205985
0.201747
0.197563
0.193434
0.189394
0.185433
0.181525
0.177636
0.173718
0.169695
0.165445
0.160777
0.155358
0.149058
0.214028
0.209333
0.205157
0.201153
0.197082
0.193001
0.188957
0.184949
0.180956
0.176946
0.172872
0.168664
0.164224
0.159421
0.15407
0.148126
0.211927
0.20804
0.204397
0.20063
0.196676
0.192648
0.188608
0.184566
0.18051
0.176411
0.172227
0.167898
0.163349
0.15849
0.153219
0.147518
0.209972
0.206987
0.203834
0.200257
0.196396
0.192408
0.188369
0.1843
0.180198
0.176037
0.171781
0.167379
0.162772
0.157898
0.152702
0.147186
0.20855
0.206406
0.203589
0.200111
0.19629
0.192311
0.188259
0.184167
0.180033
0.175836
0.17154
0.1671
0.162468
0.157596
0.15245
0.14704
0.208032
0.206466
0.20374
0.200235
0.196375
0.19236
0.188282
0.184169
0.18002
0.175811
0.171504
0.167056
0.162419
0.157548
0.152414
0.147027
0.198613
0.197828
0.196153
0.193811
0.19104
0.187962
0.184647
0.181138
0.177454
0.173604
0.169588
0.1654
0.161031
0.156475
0.151735
0.146828
0.198412
0.197639
0.195972
0.193634
0.19086
0.187772
0.184441
0.180912
0.177206
0.173334
0.169298
0.165095
0.160721
0.156174
0.151459
0.146597
0.198107
0.197368
0.195733
0.19342
0.190662
0.187577
0.184242
0.180701
0.176979
0.173091
0.16904
0.164827
0.160451
0.155915
0.151227
0.146407
0.19773
0.197045
0.195461
0.193191
0.19046
0.18739
0.184058
0.180512
0.176781
0.17288
0.168819
0.1646
0.160225
0.1557
0.151037
0.146257
0.197324
0.19671
0.195188
0.192968
0.190272
0.187222
0.183897
0.180351
0.176615
0.172708
0.168639
0.164417
0.160044
0.155531
0.150889
0.146142
0.196942
0.196404
0.194941
0.192771
0.19011
0.18708
0.183767
0.180224
0.176486
0.172575
0.168503
0.164279
0.15991
0.155405
0.150781
0.146059
0.196662
0.196176
0.194755
0.192622
0.189988
0.186976
0.183673
0.180135
0.176398
0.172487
0.168414
0.16419
0.159823
0.155325
0.150711
0.146005
0.196564
0.196079
0.194669
0.19255
0.189928
0.186925
0.183628
0.180093
0.176359
0.172448
0.168376
0.164153
0.159787
0.15529
0.15068
0.145978
0.198847
0.19775
0.196028
0.1937
0.190952
0.187895
0.184598
0.181101
0.177428
0.173586
0.169575
0.165389
0.16102
0.156459
0.151708
0.146785
0.198632
0.197561
0.195851
0.193526
0.190774
0.187706
0.184392
0.180875
0.177179
0.173314
0.169283
0.165082
0.160707
0.156155
0.151431
0.146556
0.198304
0.197291
0.195619
0.193319
0.19058
0.187514
0.184194
0.180664
0.176952
0.17307
0.169023
0.164813
0.160436
0.155896
0.1512
0.14637
0.197895
0.196974
0.195359
0.193099
0.190385
0.187332
0.184013
0.180477
0.176754
0.17286
0.168802
0.164585
0.160209
0.155681
0.151012
0.146224
0.197452
0.196649
0.195102
0.192889
0.190207
0.18717
0.183857
0.18032
0.176591
0.172688
0.168623
0.164402
0.160029
0.155513
0.150867
0.146114
0.197035