/*--------------------------------*- C++ -*----------------------------------*\
| =========                 |                                                 |
| \\      /  F ield         | foam-extend: Open Source CFD                    |
|  \\    /   O peration     | Version:     3.1                                |
|   \\  /    A nd           | Web:         http://www.extend-project.de       |
|    \\/     M anipulation  |                                                 |
\*---------------------------------------------------------------------------*/
FoamFile
{
    version     2.0;
    format      ascii;
    class       surfaceScalarField;
    location    "0.8";
    object      phi;
}
// * * * * * * * * * * * * * * * * * * * * * * * * * * * * * * * * * * * * * //

dimensions      [0 3 -1 0 0 0 0];

internalField   nonuniform List<scalar> 
41600
(
1.47491e-05
-4.47201e-06
-6.44974e-06
6.85563e-06
1.93883e-05
-5.16584e-06
-9.7845e-06
1.03112e-05
2.27903e-05
-3.84766e-06
-9.96195e-06
1.04075e-05
2.49378e-05
-2.48032e-06
-9.15882e-06
9.49166e-06
2.61638e-05
-1.46284e-06
-8.18679e-06
8.42361e-06
2.67854e-05
-7.86911e-07
-7.35516e-06
7.52048e-06
2.7019e-05
-3.49023e-07
-6.78512e-06
6.90062e-06
2.69912e-05
-5.54219e-08
-6.53468e-06
6.61788e-06
2.67601e-05
1.65207e-07
-6.64969e-06
6.7156e-06
2.63485e-05
3.47105e-07
-7.19527e-06
7.25977e-06
2.57463e-05
5.14058e-07
-8.27585e-06
8.36398e-06
2.48995e-05
6.78403e-07
-1.00661e-05
1.02345e-05
2.36471e-05
8.42549e-07
-1.28526e-05
1.32624e-05
2.14403e-05
1.02867e-06
-1.70256e-05
1.82037e-05
1.60963e-05
1.42201e-06
-2.24905e-05
2.64124e-05
1.24731e-06
-2.29251e-05
3.70375e-05
3.24763e-05
-7.67741e-06
-8.56062e-06
9.27087e-06
3.68994e-05
-1.06001e-05
-1.55607e-05
1.65719e-05
4.08289e-05
-8.66175e-06
-1.68444e-05
1.77291e-05
4.36155e-05
-5.94185e-06
-1.58301e-05
1.65051e-05
4.53218e-05
-3.65981e-06
-1.42019e-05
1.46925e-05
4.6211e-05
-2.02813e-06
-1.26773e-05
1.30294e-05
4.65261e-05
-9.19155e-07
-1.15417e-05
1.17968e-05
4.64336e-05
-1.54211e-07
-1.09179e-05
1.11091e-05
4.59998e-05
4.4366e-07
-1.08814e-05
1.10368e-05
4.52451e-05
9.54311e-07
-1.15304e-05
1.16779e-05
4.41219e-05
1.45632e-06
-1.30154e-05
1.31963e-05
4.24838e-05
2.01159e-06
-1.55854e-05
1.58903e-05
3.99538e-05
2.68769e-06
-1.96409e-05
2.03258e-05
3.54719e-05
3.60377e-06
-2.56778e-05
2.75846e-05
2.57511e-05
4.93981e-06
-3.32434e-05
3.94465e-05
4.52891e-06
-3.16343e-05
5.18317e-05
4.64784e-05
-8.48007e-06
-8.35263e-06
9.19939e-06
4.79364e-05
-1.3331e-05
-1.69394e-05
1.82123e-05
4.98198e-05
-1.16631e-05
-1.90859e-05
2.02038e-05
5.13757e-05
-8.34248e-06
-1.81736e-05
1.90183e-05
5.2378e-05
-5.26957e-06
-1.63058e-05
1.69132e-05
5.28572e-05
-2.94008e-06
-1.44686e-05
1.49014e-05
5.29129e-05
-1.28758e-06
-1.3058e-05
1.33707e-05
5.26366e-05
-1.12529e-07
-1.22284e-05
1.2463e-05
5.20375e-05
8.51982e-07
-1.20596e-05
1.22504e-05
5.11101e-05
1.70173e-06
-1.26499e-05
1.283e-05
4.97697e-05
2.57887e-06
-1.41496e-05
1.43674e-05
4.78269e-05
3.59422e-06
-1.68096e-05
1.71698e-05
4.48441e-05
4.87635e-06
-2.10297e-05
2.18238e-05
3.9675e-05
6.60394e-06
-2.72787e-05
2.94477e-05
2.89199e-05
8.82794e-06
-3.49691e-05
4.18361e-05
7.72507e-06
-3.26406e-05
5.41157e-05
5.866e-05
-7.76728e-06
-8.0342e-06
8.96839e-06
5.72058e-05
-1.33401e-05
-1.74582e-05
1.89215e-05
5.65175e-05
-1.22574e-05
-2.01731e-05
2.14556e-05
5.62337e-05
-9.01083e-06
-1.93169e-05
2.0269e-05
5.60443e-05
-5.7504e-06
-1.72514e-05
1.79217e-05
5.57904e-05
-3.15515e-06
-1.51702e-05
1.56391e-05
5.54092e-05
-1.24062e-06
-1.35521e-05
1.38863e-05
5.4857e-05
1.9112e-07
-1.25602e-05
1.28089e-05
5.41061e-05
1.40272e-06
-1.22747e-05
1.24749e-05
5.30868e-05
2.53297e-06
-1.27672e-05
1.29551e-05
5.16871e-05
3.7517e-06
-1.41731e-05
1.43999e-05
4.96991e-05
5.20814e-06
-1.67263e-05
1.71004e-05
4.6683e-05
7.07279e-06
-2.08016e-05
2.16212e-05
4.153e-05
9.54589e-06
-2.68294e-05
2.90405e-05
3.09651e-05
1.25108e-05
-3.41976e-05
4.10797e-05
1.07764e-05
-3.18838e-05
5.30522e-05
6.88339e-05
-6.26919e-06
-7.87888e-06
8.88146e-06
6.52066e-05
-1.1336e-05
-1.79034e-05
1.95266e-05
6.22661e-05
-1.07386e-05
-2.10249e-05
2.24467e-05
6.02063e-05
-7.9897e-06
-2.01663e-05
2.1205e-05
5.87896e-05
-5.04935e-06
-1.78876e-05
1.86033e-05
5.77533e-05
-2.60953e-06
-1.5561e-05
1.60516e-05
5.69053e-05
-7.36572e-07
-1.37376e-05
1.40815e-05
5.60893e-05
7.5502e-07
-1.25861e-05
1.28383e-05
5.52199e-05
2.07152e-06
-1.21612e-05
1.23618e-05
5.41809e-05
3.38576e-06
-1.25152e-05
1.27014e-05
5.28372e-05
4.87335e-06
-1.37585e-05
1.39806e-05
5.09711e-05
6.71113e-06
-1.60979e-05
1.6461e-05
4.81462e-05
9.10692e-06
-1.98776e-05
2.06684e-05
4.32784e-05
1.22884e-05
-2.54964e-05
2.76217e-05
3.31625e-05
1.60217e-05
-3.23604e-05
3.89653e-05
1.3946e-05
-3.02884e-05
5.06812e-05
7.6653e-05
-4.37342e-06
-7.84042e-06
8.89683e-06
7.15662e-05
-8.0028e-06
-1.83297e-05
2.00833e-05
6.69352e-05
-7.64533e-06
-2.1745e-05
2.32827e-05
6.34553e-05
-5.62012e-06
-2.08532e-05
2.19636e-05
6.10206e-05
-3.36655e-06
-1.83686e-05
1.91204e-05
5.93266e-05
-1.42191e-06
-1.58091e-05
1.63156e-05
5.80962e-05
1.4398e-07
-1.37849e-05
1.41348e-05
5.70916e-05
1.50713e-06
-1.24669e-05
1.27194e-05
5.6175e-05
2.79025e-06
-1.18849e-05
1.20827e-05
5.5204e-05
4.17686e-06
-1.20639e-05
1.22438e-05
5.40317e-05
5.83637e-06
-1.30833e-05
1.32926e-05
5.24416e-05
7.96652e-06
-1.5115e-05
1.54498e-05
5.00022e-05
1.08247e-05
-1.84646e-05
1.91862e-05
4.56214e-05
1.4725e-05
-2.35041e-05
2.54483e-05
3.60138e-05
1.95017e-05
-2.97051e-05
3.58327e-05
1.79057e-05
-2.80045e-05
4.73882e-05
8.19204e-05
-2.27045e-06
-7.86102e-06
8.95661e-06
7.59368e-05
-3.86667e-06
-1.86773e-05
2.05248e-05
7.02045e-05
-3.53437e-06
-2.2274e-05
2.38954e-05
6.57723e-05
-2.34973e-06
-2.13293e-05
2.24911e-05
6.26509e-05
-1.02213e-06
-1.86697e-05
1.94467e-05
6.05367e-05
1.75705e-07
-1.59164e-05
1.6433e-05
5.90536e-05
1.27526e-06
-1.37172e-05
1.4069e-05
5.79816e-05
2.32804e-06
-1.22416e-05
1.24927e-05
5.71164e-05
3.46202e-06
-1.14946e-05
1.16881e-05
5.63136e-05
4.80838e-06
-1.1471e-05
1.16423e-05
5.54364e-05
6.52204e-06
-1.22136e-05
1.24051e-05
5.42967e-05
8.81242e-06
-1.38463e-05
1.41401e-05
5.25025e-05
1.20009e-05
-1.66131e-05
1.72311e-05
4.89742e-05
1.65883e-05
-2.08391e-05
2.25042e-05
4.01534e-05
2.29249e-05
-2.61151e-05
3.15127e-05
2.41032e-05
-2.48555e-05
4.29737e-05
8.45425e-05
-7.9038e-06
9.02385e-06
-5.7086e-08
7.8113e-05
-1.88946e-05
2.07934e-05
6.63947e-07
7.18506e-05
-2.2552e-05
2.42166e-05
1.06345e-06
6.69776e-05
-2.15375e-05
2.27242e-05
1.33656e-06
6.35616e-05
-1.87485e-05
1.95364e-05
1.60591e-06
6.12656e-05
-1.58564e-05
1.63761e-05
1.95204e-06
5.97533e-05
-1.3531e-05
1.38824e-05
2.43613e-06
5.87372e-05
-1.19236e-05
1.21718e-05
3.09584e-06
5.80237e-05
-1.10175e-05
1.12058e-05
3.98732e-06
5.74816e-05
-1.07789e-05
1.09404e-05
5.18893e-06
5.70138e-05
-1.12089e-05
1.13798e-05
6.81892e-06
5.65131e-05
-1.2367e-05
1.26115e-05
9.06858e-06
5.57465e-05
-1.43923e-05
1.48759e-05
1.2284e-05
5.39044e-05
-1.74719e-05
1.87305e-05
1.71717e-05
4.73445e-05
-2.12542e-05
2.53887e-05
2.53502e-05
-2.03662e-05
3.5858e-05
3.69146e-05
1.56132e-05
-4.77089e-06
-5.86032e-06
2.03601e-05
-5.58047e-06
-8.95099e-06
2.37658e-05
-4.18978e-06
-9.17787e-06
2.58147e-05
-2.71343e-06
-8.49426e-06
2.68692e-05
-1.60344e-06
-7.63788e-06
2.72735e-05
-8.62546e-07
-6.89691e-06
2.72577e-05
-3.81599e-07
-6.38771e-06
2.69474e-05
-5.78977e-08
-6.16646e-06
2.63833e-05
1.89018e-07
-6.27466e-06
2.55555e-05
3.97722e-07
-6.76514e-06
2.43953e-05
5.97719e-07
-7.71339e-06
2.27493e-05
8.08349e-07
-9.22854e-06
2.03038e-05
1.04285e-06
-1.14499e-05
1.63857e-05
1.34668e-06
-1.44542e-05
9.66501e-06
1.78767e-06
-1.75574e-05
1.44299e-06
-1.5524e-05
3.4527e-05
-8.12055e-06
-7.65551e-06
3.88949e-05
-1.14026e-05
-1.41065e-05
4.26905e-05
-9.4108e-06
-1.5419e-05
4.52472e-05
-6.49567e-06
-1.46046e-05
4.66431e-05
-4.01387e-06
-1.31874e-05
4.71636e-05
-2.22558e-06
-1.18348e-05
4.70651e-05
-1.00458e-06
-1.08202e-05
4.65118e-05
-1.58999e-07
-1.02635e-05
4.55406e-05
5.14139e-07
-1.02352e-05
4.41233e-05
1.10081e-06
-1.08163e-05
4.21234e-05
1.69765e-06
-1.21154e-05
3.92489e-05
2.38369e-06
-1.42861e-05
3.49195e-05
3.24445e-06
-1.75132e-05
2.80246e-05
4.40057e-06
-2.18368e-05
1.67141e-05
5.82286e-06
-2.59682e-05
5.31731e-06
-2.12661e-05
4.95883e-05
-8.91473e-06
-7.36352e-06
5.07642e-05
-1.42872e-05
-1.52308e-05
5.22965e-05
-1.26455e-05
-1.73835e-05
5.34525e-05
-9.11272e-06
-1.67125e-05
5.40199e-05
-5.78074e-06
-1.51064e-05
5.40374e-05
-3.22913e-06
-1.34826e-05
5.36046e-05
-1.40703e-06
-1.22226e-05
5.28032e-05
-1.0726e-07
-1.14789e-05
5.16036e-05
9.84302e-07
-1.13301e-05
4.99465e-05
1.96265e-06
-1.18546e-05
4.765e-05
3.00352e-06
-1.31589e-05
4.43706e-05
4.2453e-06
-1.53918e-05
3.94645e-05
5.84401e-06
-1.87232e-05
3.1763e-05
7.96696e-06
-2.31436e-05
1.94294e-05
1.03897e-05
-2.72024e-05
9.43756e-06
-2.17811e-05
6.27239e-05
-8.13623e-06
-7.00286e-06
6.08254e-05
-1.4258e-05
-1.55889e-05
5.95742e-05
-1.32692e-05
-1.82981e-05
5.87042e-05
-9.8376e-06
-1.7722e-05
5.79434e-05
-6.31079e-06
-1.59606e-05
5.7138e-05
-3.46955e-06
-1.41244e-05
5.62139e-05
-1.35707e-06
-1.2678e-05
5.50958e-05
2.3834e-07
-1.17877e-05
5.3727e-05
1.60706e-06
-1.15287e-05
5.19693e-05
2.91388e-06
-1.19607e-05
4.9613e-05
4.36179e-06
-1.3175e-05
4.62963e-05
6.13931e-06
-1.53036e-05
4.1375e-05
8.45708e-06
-1.84933e-05
3.37129e-05
1.15038e-05
-2.27042e-05
2.1566e-05
1.48332e-05
-2.64943e-05
1.33426e-05
-2.1136e-05
7.36903e-05
-6.56015e-06
-6.8111e-06
6.95273e-05
-1.20987e-05
-1.58998e-05
6.58581e-05
-1.16175e-05
-1.90074e-05
6.30458e-05
-8.7249e-06
-1.84668e-05
6.09289e-05
-5.54857e-06
-1.65329e-05
5.92559e-05
-2.87685e-06
-1.44807e-05
5.78153e-05
-8.06329e-07
-1.28476e-05
5.64154e-05
8.61281e-07
-1.18092e-05
5.49268e-05
2.35591e-06
-1.14214e-05
5.31683e-05
3.88237e-06
-1.17252e-05
5.09072e-05
5.65516e-06
-1.27908e-05
4.77751e-05
7.90153e-06
-1.4728e-05
4.31302e-05
1.0887e-05
-1.76626e-05
3.58352e-05
1.48433e-05
-2.15408e-05
2.41217e-05
1.91739e-05
-2.49876e-05
1.74238e-05
-1.99558e-05
8.21107e-05
-4.58646e-06
-6.74024e-06
7.64409e-05
-8.54482e-06
-1.62138e-05
7.0966e-05
-8.27916e-06
-1.96084e-05
6.66059e-05
-6.1503e-06
-1.90677e-05
6.33678e-05
-3.71493e-06
-1.69641e-05
6.09699e-05
-1.5826e-06
-1.47055e-05
5.91117e-05
1.55816e-07
-1.28888e-05
5.75161e-05
1.6861e-06
-1.16961e-05
5.59973e-05
3.15285e-06
-1.1163e-05
5.43491e-05
4.77296e-06
-1.13063e-05
5.23326e-05
6.75934e-06
-1.2171e-05
4.95886e-05
9.37183e-06
-1.38413e-05
4.54804e-05
1.29513e-05
-1.64207e-05
3.8814e-05
1.78605e-05
-1.98549e-05
2.75614e-05
2.36034e-05
-2.2882e-05
2.25725e-05
-1.83032e-05
8.77787e-05
-2.40637e-06
-6.73501e-06
8.11876e-05
-4.15217e-06
-1.64788e-05
7.45392e-05
-3.85373e-06
-2.00511e-05
6.91432e-05
-2.60062e-06
-1.94829e-05
6.51501e-05
-1.15943e-06
-1.72321e-05
6.22921e-05
1.59185e-07
-1.48002e-05
6.01647e-05
1.38934e-06
-1.28233e-05
5.85112e-05
2.58221e-06
-1.14842e-05
5.70777e-05
3.89012e-06
-1.07984e-05
5.56624e-05
5.47445e-06
-1.07572e-05
5.40489e-05
7.53552e-06
-1.13763e-05
5.19257e-05
1.03552e-05
-1.27065e-05
4.87115e-05
1.437e-05
-1.48175e-05
4.31751e-05
2.02129e-05
-1.76552e-05
3.2712e-05
2.80869e-05
-2.01355e-05
3.0725e-05
-1.61147e-05
9.05982e-05
-6.76062e-06
-1.1289e-07
8.35474e-05
-1.66497e-05
6.53769e-07
7.63334e-05
-2.02841e-05
1.09237e-06
7.04582e-05
-1.96626e-05
1.39962e-06
6.61442e-05
-1.7299e-05
1.70512e-06
6.30893e-05
-1.47411e-05
2.09866e-06
6.09413e-05
-1.26469e-05
2.65335e-06
5.93695e-05
-1.11851e-05
3.41558e-06
5.81369e-05
-1.03526e-05
4.45774e-06
5.70658e-05
-1.01165e-05
5.88318e-06
5.60012e-05
-1.04605e-05
7.8518e-06
5.47527e-05
-1.13914e-05
1.0628e-05
5.29593e-05
-1.29203e-05
1.46913e-05
4.9679e-05
-1.49537e-05
2.0975e-05
4.18408e-05
-1.66294e-05
3.13004e-05
-1.33451e-05
4.65617e-05
1.63543e-05
-5.02512e-06
-5.11605e-06
2.12029e-05
-5.94365e-06
-7.85594e-06
2.46224e-05
-4.49652e-06
-8.1008e-06
2.65923e-05
-2.92636e-06
-7.53786e-06
2.74987e-05
-1.734e-06
-6.81027e-06
2.77098e-05
-9.34042e-07
-6.17393e-06
2.74693e-05
-4.13279e-07
-5.73396e-06
2.69045e-05
-6.11625e-08
-5.54047e-06
2.60458e-05
2.11018e-07
-5.62698e-06
2.48651e-05
4.46297e-07
-6.03073e-06
2.32687e-05
6.80201e-07
-6.79721e-06
2.10799e-05
9.39689e-07
-7.9794e-06
1.79977e-05
1.24962e-06
-9.61727e-06
1.35206e-05
1.66229e-06
-1.16394e-05
7.13752e-06
2.14183e-06
-1.33162e-05
1.67957e-06
-1.0939e-05
3.62907e-05
-8.49253e-06
-6.59521e-06
4.06265e-05
-1.20994e-05
-1.22865e-05
4.43229e-05
-1.00762e-05
-1.35357e-05
4.66911e-05
-6.99629e-06
-1.29028e-05
4.78199e-05
-4.33834e-06
-1.17119e-05
4.80147e-05
-2.40851e-06
-1.0555e-05
4.75452e-05
-1.08429e-06
-9.67975e-06
4.65775e-05
-1.6257e-07
-9.19442e-06
4.51302e-05
5.81483e-07
-9.15835e-06
4.3149e-05
1.24108e-06
-9.62988e-06
4.04594e-05
1.92889e-06
-1.06745e-05
3.6739e-05
2.73805e-06
-1.23641e-05
3.14481e-05
3.76682e-06
-1.47394e-05
2.37835e-05
5.12344e-06
-1.76334e-05
1.30924e-05
6.61091e-06
-1.97461e-05
5.90592e-06
-1.49834e-05
5.2267e-05
-9.27616e-06
-6.26886e-06
5.32226e-05
-1.51114e-05
-1.31744e-05
5.44709e-05
-1.35127e-05
-1.51954e-05
5.52914e-05
-9.80477e-06
-1.47245e-05
5.54828e-05
-6.24601e-06
-1.33901e-05
5.50925e-05
-3.49446e-06
-1.20064e-05
5.42227e-05
-1.51682e-06
-1.09203e-05
5.29484e-05
-9.52648e-08
-1.02719e-05
5.12181e-05
1.11093e-06
-1.01293e-05
4.89411e-05
2.21102e-06
-1.05476e-05
4.58949e-05
3.40417e-06
-1.1588e-05
4.17065e-05
4.84893e-06
-1.33142e-05
3.57822e-05
6.7149e-06
-1.5747e-05
2.72892e-05
9.14098e-06
-1.86682e-05
1.56498e-05
1.16869e-05
-2.0639e-05
1.04691e-05
-1.52694e-05
6.62257e-05
-8.4419e-06
-5.90614e-06
6.39763e-05
-1.50452e-05
-1.34057e-05
6.22627e-05
-1.41584e-05
-1.59388e-05
6.08956e-05
-1.05773e-05
-1.55823e-05
5.96382e-05
-6.81855e-06
-1.41307e-05
5.83445e-05
-3.75621e-06
-1.25689e-05
5.69334e-05
-1.46186e-06
-1.13219e-05
5.53089e-05
2.87038e-07
-1.05455e-05
5.33934e-05
1.80258e-06
-1.03048e-05
5.10093e-05
3.2744e-06
-1.064e-05
4.79056e-05
4.93193e-06
-1.15991e-05
4.36911e-05
6.99077e-06
-1.32309e-05
3.77706e-05
9.67963e-06
-1.55375e-05
2.9335e-05
1.3152e-05
-1.82796e-05
1.78585e-05
1.67073e-05
-2.00382e-05
1.48962e-05
-1.47287e-05
7.78739e-05
-6.80172e-06
-5.70556e-06
7.32901e-05
-1.27505e-05
-1.36106e-05
6.90213e-05
-1.23873e-05
-1.65097e-05
6.55689e-05
-9.38049e-06
-1.62112e-05
6.28416e-05
-5.99909e-06
-1.46251e-05
6.0604e-05
-3.11883e-06
-1.28804e-05
5.8632e-05
-8.66631e-07
-1.14709e-05
5.67082e-05
9.65425e-07
-1.05638e-05
5.46721e-05
2.62676e-06
-1.02095e-05
5.23036e-05
4.35017e-06
-1.04325e-05
4.93272e-05
6.38112e-06
-1.12635e-05
4.53436e-05
8.98107e-06
-1.27348e-05
3.97526e-05
1.24429e-05
-1.48348e-05
3.17174e-05
1.6968e-05
-1.73217e-05
2.06045e-05
2.16804e-05
-1.88479e-05
1.95839e-05
-1.38259e-05
8.68101e-05
-4.76467e-06
-5.62051e-06
8.06859e-05
-9.0071e-06
-1.38331e-05
7.45177e-05
-8.83269e-06
-1.69947e-05
6.94085e-05
-6.62141e-06
-1.67176e-05
6.54695e-05
-4.02764e-06
-1.49965e-05
6.24471e-05
-1.726e-06
-1.30759e-05
6.00255e-05
1.72057e-07
-1.15059e-05
5.78994e-05
1.85825e-06
-1.04629e-05
5.58476e-05
3.49672e-06
-9.98107e-06
5.36245e-05
5.3324e-06
-1.00655e-05
5.09497e-05
7.61228e-06
-1.07274e-05
4.7433e-05
1.06382e-05
-1.19818e-05
4.24677e-05
1.4794e-05
-1.38064e-05
3.51173e-05
2.0435e-05
-1.59716e-05
2.43575e-05
2.6796e-05
-1.72378e-05
2.55e-05
-1.26111e-05
9.28211e-05
-2.52193e-06
-5.60057e-06
8.57593e-05
-4.39537e-06
-1.40287e-05
7.83598e-05
-4.13137e-06
-1.7353e-05
7.21438e-05
-2.82182e-06
-1.70664e-05
6.73902e-05
-1.28035e-06
-1.52259e-05
6.3872e-05
1.48662e-07
-1.31567e-05
6.11671e-05
1.5002e-06
-1.14464e-05
5.8991e-05
2.82446e-06
-1.02743e-05
5.70536e-05
4.29485e-06
-9.65909e-06
5.51165e-05
6.09792e-06
-9.58567e-06
5.29276e-05
8.46887e-06
-1.00439e-05
5.0149e-05
1.17379e-05
-1.10276e-05
4.62226e-05
1.64029e-05
-1.25e-05
4.0122e-05
2.31331e-05
-1.42527e-05
3.00509e-05
3.19415e-05
-1.52098e-05
3.46943e-05
-1.10757e-05
9.58097e-05
-5.61434e-06
-1.63841e-07
8.82785e-05
-1.4159e-05
6.45135e-07
8.02853e-05
-1.75419e-05
1.11966e-06
7.35579e-05
-1.72159e-05
1.4588e-06
6.84606e-05
-1.52807e-05
1.7987e-06
6.47326e-05
-1.31021e-05
2.23759e-06
6.20147e-05
-1.12883e-05
2.85946e-06
5.99434e-05
-1.0008e-05
3.71864e-06
5.82493e-05
-9.26529e-06
4.90165e-06
5.67249e-05
-9.02647e-06
6.53232e-06
5.51903e-05
-9.25889e-06
8.8018e-06
5.34443e-05
-9.9295e-06
1.20221e-05
5.11591e-05
-1.09746e-05
1.67423e-05
4.75591e-05
-1.21924e-05
2.39717e-05
4.01366e-05
-1.27302e-05
3.54647e-05
-9.26512e-06
5.1801e-05
1.69717e-05
-5.23523e-06
-4.24425e-06
2.19106e-05
-6.25103e-06
-6.54376e-06
2.53486e-05
-4.76105e-06
-6.77781e-06
2.72572e-05
-3.11279e-06
-6.3336e-06
2.80402e-05
-1.84983e-06
-5.7435e-06
2.80869e-05
-9.98308e-07
-5.22227e-06
2.76542e-05
-4.42304e-07
-4.85896e-06
2.68734e-05
-6.466e-08
-4.69501e-06
2.5771e-05
2.30507e-07
-4.75515e-06
2.43129e-05
4.90206e-07
-5.06281e-06
2.24013e-05
7.55097e-07
-5.64071e-06
1.98702e-05
1.05768e-06
-6.50595e-06
1.64727e-05
1.42898e-06
-7.64873e-06
1.18736e-05
1.91598e-06
-8.95633e-06
5.97932e-06
2.41681e-06
-9.83868e-06
1.90898e-06
-7.76732e-06
3.77636e-05
-8.79633e-06
-5.4132e-06
4.20818e-05
-1.26846e-05
-1.01711e-05
4.57057e-05
-1.06457e-05
-1.12751e-05
4.79233e-05
-7.43086e-06
-1.08023e-05
4.88303e-05
-4.62314e-06
-9.84562e-06
4.8749e-05
-2.57041e-06
-8.9016e-06
4.79627e-05
-1.15516e-06
-8.18066e-06
4.66432e-05
-1.65461e-07
-7.7741e-06
4.48007e-05
6.42349e-07
-7.72763e-06
4.23729e-05
1.36733e-06
-8.0792e-06
3.91794e-05
2.13526e-06
-8.86122e-06
3.49181e-05
3.04857e-06
-1.00936e-05
2.91445e-05
4.20985e-06
-1.17467e-05
2.13276e-05
5.70484e-06
-1.36053e-05
1.14089e-05
7.22178e-06
-1.46325e-05
6.35122e-06
-1.06563e-05
5.45071e-05
-9.56889e-06
-5.09636e-06
5.52923e-05
-1.57993e-05
-1.08449e-05
5.63154e-05
-1.42509e-05
-1.26132e-05
5.68619e-05
-1.04025e-05
-1.22993e-05
5.67391e-05
-6.65216e-06
-1.12383e-05
5.60029e-05
-3.72759e-06
-1.0113e-05
5.47603e-05
-1.61324e-06
-9.21969e-06
5.3084e-05
-8.33264e-08
-8.67767e-06
5.09133e-05
1.22536e-06
-8.54162e-06
4.81454e-05
2.4333e-06
-8.84564e-06
4.45521e-05
3.7579e-06
-9.61733e-06
3.97838e-05
5.3701e-06
-1.08675e-05
3.33525e-05
7.44123e-06
-1.2547e-05
2.47151e-05
1.0072e-05
-1.4398e-05
1.39091e-05
1.26674e-05
-1.52787e-05
1.11806e-05
-1.08296e-05
6.9155e-05
-8.68872e-06
-4.76546e-06
6.66323e-05
-1.56991e-05
-1.09832e-05
6.45471e-05
-1.49123e-05
-1.31922e-05
6.27702e-05
-1.12139e-05
-1.29941e-05
6.10959e-05
-7.26007e-06
-1.18484e-05
5.93867e-05
-4.00669e-06
-1.05806e-05
5.75593e-05
-1.55244e-06
-9.55521e-06
5.55048e-05
3.32962e-07
-8.90732e-06
5.31352e-05
1.97887e-06
-8.68869e-06
5.02556e-05
3.59538e-06
-8.92248e-06
4.66083e-05
5.4315e-06
-9.62544e-06
4.1825e-05
7.71883e-06
-1.07963e-05
3.5413e-05
1.06879e-05
-1.23722e-05
2.68423e-05
1.44447e-05
-1.40815e-05
1.61732e-05
1.81002e-05
-1.48019e-05
1.59405e-05
-1.04013e-05
8.13725e-05
-6.99722e-06
-4.57874e-06
7.64629e-05
-1.32904e-05
-1.11097e-05
7.17119e-05
-1.3038e-05
-1.3633e-05
6.77304e-05
-9.94299e-06
-1.35006e-05
6.44891e-05
-6.38946e-06
-1.22545e-05
6.17702e-05
-3.32896e-06
-1.08391e-05
5.93433e-05
-9.16964e-07
-9.67948e-06
5.69737e-05
1.06118e-06
-8.92251e-06
5.44826e-05
2.86996e-06
-8.60937e-06
5.16313e-05
4.76483e-06
-8.75078e-06
4.81357e-05
7.01357e-06
-9.34996e-06
4.36162e-05
9.89758e-06
-1.0394e-05
3.75657e-05
1.37154e-05
-1.18118e-05
2.94027e-05
1.86201e-05
-1.3334e-05
1.90289e-05
2.35229e-05
-1.38968e-05
2.10317e-05
-9.72225e-06
9.07385e-05
-4.90995e-06
-4.49415e-06
8.4265e-05
-9.38927e-06
-1.12607e-05
7.75402e-05
-9.29937e-06
-1.40085e-05
7.18117e-05
-7.02435e-06
-1.39077e-05
6.72818e-05
-4.29728e-06
-1.25588e-05
6.37266e-05
-1.8489e-06
-1.10008e-05
6.08218e-05
1.90149e-07
-9.70823e-06
5.82438e-05
2.0145e-06
-8.83821e-06
5.57478e-05
3.80444e-06
-8.41962e-06
5.30689e-05
5.82661e-06
-8.44831e-06
4.99165e-05
8.35201e-06
-8.91351e-06
4.59166e-05
1.17069e-05
-9.79115e-06
4.05425e-05
1.6289e-05
-1.1006e-05
3.30778e-05
2.24168e-05
-1.23036e-05
2.29583e-05
2.91087e-05
-1.27041e-05
2.7442e-05
-8.8389e-06
9.7035e-05
-2.61756e-06
-4.46836e-06
8.9613e-05
-4.5962e-06
-1.13998e-05
8.16118e-05
-4.36444e-06
-1.42866e-05
7.47181e-05
-3.00962e-06
-1.41875e-05
6.93235e-05
-1.38282e-06
-1.27458e-05
6.52414e-05
1.43038e-07
-1.10666e-05
6.20411e-05
1.60194e-06
-9.6579e-06
5.94188e-05
3.04295e-06
-8.68045e-06
5.70602e-05
4.65622e-06
-8.15225e-06
5.47076e-05
6.64746e-06
-8.05399e-06
5.21001e-05
9.27574e-06
-8.36014e-06
4.89146e-05
1.2899e-05
-9.03411e-06
4.46608e-05
1.80393e-05
-9.99643e-06
3.84903e-05
2.53526e-05
-1.10179e-05
2.89578e-05
3.46748e-05
-1.12434e-05
3.72644e-05
-7.76257e-06
0.000100164
-4.47452e-06
-2.08033e-07
9.22664e-05
-1.14957e-05
6.38066e-07
8.36493e-05
-1.44335e-05
1.1443e-06
7.62182e-05
-1.43063e-05
1.51193e-06
7.04604e-05
-1.27887e-05
1.88297e-06
6.6158e-05
-1.10196e-05
2.36305e-06
6.29508e-05
-9.52456e-06
3.04537e-06
6.04522e-05
-8.45738e-06
3.991e-06
5.83706e-05
-7.8251e-06
5.29761e-06
5.64824e-05
-7.59494e-06
7.10418e-06
5.46033e-05
-7.72657e-06
9.62242e-06
5.25504e-05
-8.16837e-06
1.31908e-05
5.00589e-05
-8.8305e-06
1.83868e-05
4.64943e-05
-9.50451e-06
2.62293e-05
3.95751e-05
-9.50891e-06
3.83727e-05
-6.54662e-06
5.51851e-05
1.74654e-05
-5.40209e-06
-3.27141e-06
2.24795e-05
-6.49977e-06
-5.05808e-06
2.59369e-05
-4.97823e-06
-5.257e-06
2.77994e-05
-3.26761e-06
-4.92846e-06
2.84844e-05
-1.94693e-06
-4.48161e-06
2.83983e-05
-1.05266e-06
-4.08353e-06
2.78102e-05
-4.67104e-07
-3.8037e-06
2.68567e-05
-6.79174e-08
-3.67362e-06
2.55647e-05
2.46939e-07
-3.71009e-06
2.39009e-05
5.27359e-07
-3.92633e-06
2.17732e-05
8.17954e-07
-4.33105e-06
1.90361e-05
1.15459e-06
-4.92344e-06
1.54937e-05
1.57078e-06
-5.67709e-06
1.09201e-05
2.10674e-06
-6.48945e-06
5.39913e-06
2.62369e-06
-6.94141e-06
2.08389e-06
-5.36234e-06
3.89438e-05
-9.03507e-06
-4.13875e-06
4.3253e-05
-1.31549e-05
-7.82513e-06
4.68253e-05
-1.11102e-05
-8.71538e-06
4.89269e-05
-7.78934e-06
-8.38215e-06
4.96577e-05
-4.86007e-06
-7.66325e-06
4.93539e-05
-2.7059e-06
-6.94457e-06
4.83116e-05
-1.21457e-06
-6.39089e-06
4.67103e-05
-1.67871e-07
-6.07285e-06
4.45585e-05
6.94016e-07
-6.02296e-06
4.17967e-05
1.47356e-06
-6.26361e-06
3.82536e-05
2.30666e-06
-6.80682e-06
3.36608e-05
3.30091e-06
-7.64712e-06
2.766e-05
4.55851e-06
-8.73365e-06
1.98954e-05
6.14523e-06
-9.8792e-06
1.05535e-05
7.68103e-06
-1.03479e-05
6.68448e-06
-7.36834e-06
5.63039e-05
-9.79731e-06
-3.86771e-06
5.69607e-05
-1.63493e-05
-8.30725e-06
5.78106e-05
-1.48505e-05
-9.72281e-06
5.81417e-05
-1.08936e-05
-9.52626e-06
5.7768e-05
-6.98864e-06
-8.73596e-06
5.67527e-05
-3.92168e-06
-7.88192e-06
5.52088e-05
-1.69338e-06
-7.19696e-06
5.32096e-05
-7.19824e-08
-6.77442e-06
5.06944e-05
1.32226e-06
-6.65462e-06
4.75592e-05
2.61949e-06
-6.85633e-06
4.35859e-05
4.0497e-06
-7.38716e-06
3.84626e-05
5.79038e-06
-8.23358e-06
3.17942e-05
8.0089e-06
-9.32905e-06
2.32223e-05
1.07737e-05
-1.04545e-05
1.30317e-05
1.33941e-05
-1.08011e-05
1.16951e-05
-7.47832e-06
7.15048e-05
-8.88085e-06
-3.5956e-06
6.87751e-05
-1.622e-05
-8.38276e-06
6.64014e-05
-1.55227e-05
-1.01464e-05
6.43e-05
-1.17353e-05
-1.0051e-05
6.22909e-05
-7.62471e-06
-9.20321e-06
6.02455e-05
-4.2143e-06
-8.24266e-06
5.80806e-05
-1.62679e-06
-7.45683e-06
5.56812e-05
3.73044e-07
-6.95295e-06
5.29558e-05
2.12782e-06
-6.76888e-06
4.97055e-05
3.86315e-06
-6.91584e-06
4.56816e-05
5.84143e-06
-7.39327e-06
4.0552e-05
8.30234e-06
-8.17872e-06
3.3914e-05
1.14708e-05
-9.19602e-06
2.5412e-05
1.54121e-05
-1.02179e-05
1.53366e-05
1.9118e-05
-1.04505e-05
1.66785e-05
-7.16364e-06
8.41783e-05
-7.14974e-06
-3.44036e-06
7.90233e-05
-1.37193e-05
-8.45546e-06
7.38977e-05
-1.35634e-05
-1.04666e-05
6.94963e-05
-1.04026e-05
-1.04319e-05
6.58413e-05
-6.71088e-06
-9.5134e-06
6.27319e-05
-3.50222e-06
-8.44182e-06
5.99358e-05
-9.5707e-07
-7.55305e-06
5.72078e-05
1.14342e-06
-6.96486e-06
5.43595e-05
3.07479e-06
-6.70805e-06
5.11468e-05
5.10955e-06
-6.78456e-06
4.72921e-05
7.53027e-06
-7.18409e-06
4.24485e-05
1.06283e-05
-7.87633e-06
3.61903e-05
1.46975e-05
-8.78039e-06
2.8093e-05
1.98477e-05
-9.67233e-06
1.82628e-05
2.4852e-05
-9.8006e-06
2.2039e-05
-6.67786e-06
9.38878e-05
-5.02402e-06
-3.36742e-06
8.71529e-05
-9.69237e-06
-8.55267e-06
7.99965e-05
-9.67533e-06
-1.07402e-05
7.37765e-05
-7.35266e-06
-1.07376e-05
6.87705e-05
-4.51834e-06
-9.74541e-06
6.47827e-05
-1.94906e-06
-8.56611e-06
6.14848e-05
2.07741e-07
-7.57521e-06
5.85425e-05
2.14751e-06
-6.89994e-06
5.56971e-05
4.06296e-06
-6.56244e-06
5.2676e-05
6.23634e-06
-6.55402e-06
4.91933e-05
8.95423e-06
-6.85478e-06
4.49029e-05
1.25551e-05
-7.42755e-06
3.93489e-05
1.7436e-05
-8.19044e-06
3.19478e-05
2.38773e-05
-8.93224e-06
2.2302e-05
3.07537e-05
-8.95996e-06
2.87727e-05
-6.06064e-06
0.000100412
-2.69358e-06
-3.34247e-06
9.27221e-05
-4.7553e-06
-8.64668e-06
8.42549e-05
-4.55146e-06
-1.09434e-05
7.68237e-05
-3.16161e-06
-1.09473e-05
7.09125e-05
-1.46551e-06
-9.88738e-06
6.6372e-05
1.40984e-07
-8.61607e-06
6.27684e-05
1.68954e-06
-7.53608e-06
5.97855e-05
3.22815e-06
-6.77818e-06
5.70941e-05
4.95934e-06
-6.35731e-06
5.44283e-05
7.10233e-06
-6.25416e-06
5.15305e-05
9.93106e-06
-6.43916e-06
4.81024e-05
1.38172e-05
-6.86814e-06
4.37133e-05
1.92881e-05
-7.45929e-06
3.76206e-05
2.69746e-05
-8.02255e-06
2.84911e-05
3.65905e-05
-7.95067e-06
3.90028e-05
-5.32714e-06
0.000103653
-3.34432e-06
-2.44242e-07
9.54833e-05
-8.71358e-06
6.32558e-07
8.63837e-05
-1.10507e-05
1.16537e-06
7.83945e-05
-1.10358e-05
1.55708e-06
7.21046e-05
-9.91906e-06
1.95472e-06
6.73351e-05
-8.57912e-06
2.46996e-06
6.37291e-05
-7.43243e-06
3.20339e-06
6.08843e-05
-6.60572e-06
4.22132e-06
5.84951e-05
-6.1062e-06
5.62965e-06
5.63304e-05
-5.90543e-06
7.57751e-06
5.42107e-05
-5.96462e-06
1.02888e-05
5.19766e-05
-6.23169e-06
1.41146e-05
4.9416e-05
-6.62195e-06
1.96401e-05
4.5978e-05
-6.96522e-06
2.78733e-05
3.94379e-05
-6.77468e-06
4.03963e-05
-4.51774e-06
5.74838e-05
1.78355e-05
-5.527e-06
-2.22286e-06
2.29074e-05
-6.68918e-06
-3.44081e-06
2.6382e-05
-5.14533e-06
-3.58627e-06
2.82119e-05
-3.38779e-06
-3.37063e-06
2.88242e-05
-2.02298e-06
-3.07085e-06
2.86383e-05
-1.09565e-06
-2.80197e-06
2.79332e-05
-4.87037e-07
-2.61165e-06
2.68515e-05
-7.09767e-08
-2.52089e-06
2.54219e-05
2.59407e-07
-2.53991e-06
2.3615e-05
5.55911e-07
-2.6753e-06
2.1347e-05
8.65926e-07
-2.92898e-06
1.84909e-05
1.22717e-06
-3.29459e-06
1.48874e-05
1.67389e-06
-3.7475e-06
1.03724e-05
2.2411e-06
-4.21545e-06
5.09764e-06
2.7693e-06
-4.43599e-06
2.2052e-06
-3.38492e-06
3.983e-05
-9.21155e-06
-2.79832e-06
4.41352e-05
-1.35095e-05
-5.31002e-06
4.76724e-05
-1.14641e-05
-5.93376e-06
4.96897e-05
-8.06472e-06
-5.72259e-06
5.02895e-05
-5.04338e-06
-5.2426e-06
4.98186e-05
-2.81132e-06
-4.75804e-06
4.85838e-05
-1.26096e-06
-4.38214e-06
4.67727e-05
-1.6994e-07
-4.16274e-06
4.43955e-05
7.34091e-07
-4.12048e-06
4.13995e-05
1.55543e-06
-4.26707e-06
3.76261e-05
2.43716e-06
-4.60474e-06
3.28379e-05
3.48938e-06
-5.12109e-06
2.67373e-05
4.81242e-06
-5.77156e-06
1.90671e-05
6.45799e-06
-6.42593e-06
1.01041e-05
8.00654e-06
-6.62209e-06
6.92096e-06
-4.65531e-06
5.76534e-05
-9.96504e-06
-2.59993e-06
5.82183e-05
-1.67617e-05
-5.61987e-06
5.89425e-05
-1.53053e-05
-6.60582e-06
5.91148e-05
-1.12692e-05
-6.49412e-06
5.85536e-05
-7.2477e-06
-5.97044e-06
5.73284e-05
-4.07172e-06
-5.3963e-06
5.55578e-05
-1.75532e-06
-4.93209e-06
5.33178e-05
-6.24482e-08
-4.64183e-06
5.05512e-05
1.3976e-06
-4.55151e-06
4.71579e-05
2.76285e-06
-4.67047e-06
4.29342e-05
4.27127e-06
-4.99756e-06
3.76012e-05
6.10334e-06
-5.51453e-06
3.08292e-05
8.42141e-06
-6.16607e-06
2.23624e-05
1.12715e-05
-6.80127e-06
1.25736e-05
1.39066e-05
-6.91236e-06
1.20573e-05
-4.7228e-06
7.32695e-05
-9.02167e-06
-2.40588e-06
7.03914e-05
-1.66093e-05
-5.65711e-06
6.78066e-05
-1.59843e-05
-6.88262e-06
6.54643e-05
-1.2133e-05
-6.8447e-06
6.32039e-05
-7.90462e-06
-6.28597e-06
6.0905e-05
-4.37413e-06
-5.64131e-06
5.84856e-05
-1.68363e-06
-5.10911e-06
5.58289e-05
4.04938e-07
-4.76359e-06
5.28435e-05
2.24358e-06
-4.62954e-06
4.93328e-05
4.06891e-06
-4.71113e-06
4.50608e-05
6.15182e-06
-5.00189e-06
3.97277e-05
8.73544e-06
-5.47774e-06
3.29928e-05
1.20378e-05
-6.07742e-06
2.45959e-05
1.60957e-05
-6.6453e-06
1.49063e-05
1.98297e-05
-6.68397e-06
1.71906e-05
-4.51809e-06
8.62848e-05
-7.26175e-06
-2.29456e-06
8.09549e-05
-1.40392e-05
-5.6957e-06
7.55552e-05
-1.396e-05
-7.09128e-06
7.08413e-05
-1.07524e-05
-7.09854e-06
6.68753e-05
-6.95698e-06
-6.49509e-06
6.34709e-05
-3.63501e-06
-5.77649e-06
6.03959e-05
-9.87005e-07
-5.17467e-06
5.73996e-05
1.20821e-06
-4.77187e-06
5.42899e-05
3.23368e-06
-4.58847e-06
5.08231e-05
5.37385e-06
-4.62269e-06
4.67322e-05
7.92039e-06
-4.8617e-06
4.1699e-05
1.11689e-05
-5.27659e-06
3.53539e-05
1.54061e-05
-5.80357e-06
2.73563e-05
2.07108e-05
-6.28979e-06
1.78778e-05
2.57725e-05
-6.26493e-06
2.27283e-05
-4.20555e-06
9.62516e-05
-5.10826e-06
-2.24107e-06
8.93313e-05
-9.9181e-06
-5.75341e-06
8.18596e-05
-9.95855e-06
-7.27002e-06
7.52737e-05
-7.60197e-06
-7.30217e-06
6.99096e-05
-4.68697e-06
-6.65131e-06
6.55943e-05
-2.02509e-06
-5.86073e-06
6.19991e-05
2.22788e-07
-5.18975e-06
5.87835e-05
2.25171e-06
-4.72791e-06
5.56817e-05
4.26317e-06
-4.49012e-06
5.24194e-05
6.5499e-06
-4.46775e-06
4.87192e-05
9.40782e-06
-4.64202e-06
4.42601e-05
1.31806e-05
-4.98009e-06
3.86338e-05
1.82602e-05
-5.41829e-06
3.13266e-05
2.48982e-05
-5.81245e-06
2.19867e-05
3.18814e-05
-5.72892e-06
2.9672e-05
-3.81347e-06
0.000102946
-2.75026e-06
-2.22157e-06
9.50669e-05
-4.87365e-06
-5.81156e-06
8.62599e-05
-4.69187e-06
-7.40305e-06
7.84287e-05
-3.27638e-06
-7.44174e-06
7.21287e-05
-1.52773e-06
-6.74665e-06
6.72409e-05
1.41052e-07
-5.89434e-06
6.33318e-05
1.75886e-06
-5.16307e-06
6.00778e-05
3.3728e-06
-4.64532e-06
5.71414e-05
5.19389e-06
-4.35162e-06
5.42537e-05
7.45009e-06
-4.26664e-06
5.11642e-05
1.04239e-05
-4.36579e-06
4.75964e-05
1.44928e-05
-4.61257e-06
4.31594e-05
2.01823e-05
-4.9444e-06
3.71645e-05
2.81019e-05
-5.23129e-06
2.82966e-05
3.78908e-05
-5.09211e-06
4.01677e-05
-3.352e-06
0.000106271
-2.22136e-06
-2.72008e-07
9.79093e-05
-5.85396e-06
6.28613e-07
8.8458e-05
-7.47346e-06
1.18206e-06
8.00536e-05
-7.50029e-06
1.59259e-06
7.33631e-05
-6.76744e-06
2.01116e-06
6.82398e-05
-5.86887e-06
2.55407e-06
6.43313e-05
-5.09237e-06
3.3273e-06
6.12256e-05
-4.52821e-06
4.401e-06