/*--------------------------------*- C++ -*----------------------------------*\
| =========                 |                                                 |
| \\      /  F ield         | foam-extend: Open Source CFD                    |
|  \\    /   O peration     | Version:     3.1                                |
|   \\  /    A nd           | Web:         http://www.extend-project.de       |
|    \\/     M anipulation  |                                                 |
\*---------------------------------------------------------------------------*/
FoamFile
{
    version     2.0;
    format      ascii;
    class       pointVectorField;
    location    "0.8";
    object      pointMotionU;
}
// * * * * * * * * * * * * * * * * * * * * * * * * * * * * * * * * * * * * * //

dimensions      [0 1 -1 0 0 0 0];

internalField   nonuniform List<vector> 
16859
(
(0 0 0)
(0 0 0)
(0 0 0)
(0 0 0)
(0 0 0)
(0 0 0)
(0 0 0)
(0 0 0)
(0 0 0)
(0 0 0)
(0 0 0)
(0 0 0)
(0 0 0)
(0 0 0)
(0 0 0)
(0 0 0)
(0 0 0)
(0 0 0)
(1.79071e-10 -8.97691e-10 1.67448e-10)
(3.42126e-10 -1.75601e-09 3.3384e-10)
(4.85601e-10 -2.59341e-09 5.08546e-10)
(6.10643e-10 -3.44993e-09 7.05214e-10)
(7.16846e-10 -4.36141e-09 9.37881e-10)
(8.01729e-10 -5.36267e-09 1.22232e-09)
(8.58929e-10 -6.4854e-09 1.57647e-09)
(8.75999e-10 -7.75942e-09 2.02138e-09)
(8.30559e-10 -9.21095e-09 2.58141e-09)
(6.84651e-10 -1.08558e-08 3.28328e-09)
(3.79063e-10 -1.26962e-08 4.15581e-09)
(-1.72026e-10 -1.46818e-08 5.21835e-09)
(-1.06995e-09 -1.66482e-08 6.46151e-09)
(-2.36028e-09 -1.82343e-08 7.8169e-09)
(-3.73172e-09 -1.87366e-08 9.06128e-09)
(-8.48546e-09 -7.23441e-09 1.39824e-08)
(0 0 0)
(3.57577e-10 -1.75564e-09 3.28169e-10)
(6.83434e-10 -3.43311e-09 6.53859e-10)
(9.70661e-10 -5.06642e-09 9.94795e-10)
(1.22237e-09 -6.73334e-09 1.3773e-09)
(1.43923e-09 -8.50478e-09 1.82865e-09)
(1.61809e-09 -1.04468e-08 2.3788e-09)
(1.74948e-09 -1.26199e-08 3.06172e-09)
(1.81442e-09 -1.5082e-08 3.91721e-09)
(1.77854e-09 -1.78841e-08 4.991e-09)
(1.58364e-09 -2.10655e-08 6.335e-09)
(1.13841e-09 -2.4644e-08 8.00319e-09)
(3.1314e-10 -2.85632e-08 1.00301e-08)
(-1.0358e-09 -3.26321e-08 1.23947e-08)
(-2.94917e-09 -3.64031e-08 1.49344e-08)
(-4.91298e-09 -3.88615e-08 1.71464e-08)
(-1.181e-08 -4.33266e-08 1.95802e-08)
(0 0 0)
(5.3483e-10 -2.53871e-09 4.76546e-10)
(1.02267e-09 -4.96088e-09 9.48339e-10)
(1.45393e-09 -7.31273e-09 1.44e-09)
(1.83528e-09 -9.70766e-09 1.98925e-09)
(2.17043e-09 -1.22473e-08 2.63458e-09)
(2.45825e-09 -1.50218e-08 3.41716e-09)
(2.6912e-09 -1.81149e-08 4.38354e-09)
(2.85259e-09 -2.16065e-08 5.58796e-09)
(2.91162e-09 -2.55694e-08 7.09302e-09)
(2.81625e-09 -3.00692e-08 8.97096e-09)
(2.48311e-09 -3.51381e-08 1.12938e-08)
(1.79442e-09 -4.07478e-08 1.41162e-08)
(6.2462e-10 -4.67603e-08 1.74297e-08)
(-1.05283e-09 -5.27429e-08 2.10318e-08)
(-2.73794e-09 -5.74706e-08 2.42458e-08)
(-1.10078e-08 -6.77142e-08 3.11981e-08)
(0 0 0)
(7.09269e-10 -3.21508e-09 6.07946e-10)
(1.35718e-09 -6.2782e-09 1.2081e-09)
(1.93284e-09 -9.24673e-09 1.83073e-09)
(2.44752e-09 -1.22632e-08 2.52264e-09)
(2.90922e-09 -1.54507e-08 3.33027e-09)
(3.32171e-09 -1.89166e-08 4.30262e-09)
(3.68432e-09 -2.27593e-08 5.49442e-09)
(3.99077e-09 -2.70703e-08 6.96858e-09)
(4.22721e-09 -3.19341e-08 8.79751e-09)
(4.36979e-09 -3.74248e-08 1.10635e-08)
(4.38001e-09 -4.3585e-08 1.38509e-08)
(4.20433e-09 -5.04171e-08 1.72389e-08)
(3.78243e-09 -5.78098e-08 2.12508e-08)
(3.10315e-09 -6.53117e-08 2.5716e-08)
(2.47515e-09 -7.15136e-08 2.99322e-08)
(-6.4975e-09 -8.76e-08 4.11253e-08)
(0 0 0)
(8.79635e-10 -3.76284e-09 7.19937e-10)
(1.68474e-09 -7.34409e-09 1.42857e-09)
(2.40403e-09 -1.08092e-08 2.16002e-09)
(3.05395e-09 -1.4321e-08 2.9673e-09)
(3.64783e-09 -1.8016e-08 3.90177e-09)
(4.19641e-09 -2.20118e-08 5.01675e-09)
(4.70878e-09 -2.64117e-08 6.3704e-09)
(5.19357e-09 -3.13071e-08 8.02789e-09)
(5.66076e-09 -3.67765e-08 1.00626e-08)
(6.12484e-09 -4.28816e-08 1.25557e-08)
(6.60954e-09 -4.96552e-08 1.55928e-08)
(7.15474e-09 -5.70906e-08 1.92583e-08)
(7.81316e-09 -6.50582e-08 2.35932e-08)
(8.65111e-09 -7.30901e-08 2.84711e-08)
(9.79186e-09 -7.97674e-08 3.32405e-08)
(3.28019e-09 -9.82081e-08 4.82149e-08)
(0 0 0)
(1.04405e-09 -4.1658e-09 8.11446e-10)
(2.00143e-09 -8.12694e-09 1.60756e-09)
(2.86086e-09 -1.1953e-08 2.4243e-09)
(3.64438e-09 -1.58193e-08 3.31834e-09)
(4.37121e-09 -1.987e-08 4.34329e-09)
(5.05946e-09 -2.42248e-08 5.55334e-09)
(5.72837e-09 -2.89835e-08 7.00568e-09)
(6.40141e-09 -3.42262e-08 8.76204e-09)
(7.11117e-09 -4.00111e-08 1.08889e-08)
(7.90673e-09 -4.63676e-08 1.34558e-08)
(8.86468e-09 -5.32852e-08 1.65314e-08)
(1.01034e-08 -6.06957e-08 2.01742e-08)
(1.17884e-08 -6.84121e-08 2.44e-08)
(1.41059e-08 -7.59474e-08 2.9065e-08)
(1.71529e-08 -8.20369e-08 3.35514e-08)
(1.72433e-08 -1.00934e-07 4.87393e-08)
(0 0 0)
(1.19976e-09 -4.41171e-09 8.82327e-10)
(2.30171e-09 -8.60358e-09 1.7449e-09)
(3.29475e-09 -1.2646e-08 2.62377e-09)
(4.20632e-09 -1.67203e-08 3.57694e-09)
(5.0612e-09 -2.09714e-08 4.65785e-09)
(5.88401e-09 -2.55156e-08 5.91867e-09)
(6.7023e-09 -3.04424e-08 7.41221e-09)
(7.55077e-09 -3.58139e-08 9.19247e-09)
(8.47717e-09 -4.16581e-08 1.13134e-08)
(9.55065e-09 -4.79592e-08 1.38252e-08)
(1.08722e-08 -5.46408e-08 1.67664e-08)
(1.25846e-08 -6.15421e-08 2.0149e-08)
(1.48666e-08 -6.83744e-08 2.39229e-08)
(1.7856e-08 -7.4607e-08 2.78659e-08)
(2.14582e-08 -7.92286e-08 3.13475e-08)
(2.97085e-08 -9.49352e-08 4.07094e-08)
(0 0 0)
(1.34386e-09 -4.49402e-09 9.33536e-10)
(2.57976e-09 -8.76212e-09 1.84274e-09)
(3.69673e-09 -1.28733e-08 2.76228e-09)
(4.72693e-09 -1.7008e-08 3.7495e-09)
(5.69968e-09 -2.13074e-08 4.85569e-09)
(6.64442e-09 -2.58798e-08 6.12894e-09)
(7.594e-09 -3.08018e-08 7.61539e-09)
(8.58903e-09 -3.61145e-08 9.35888e-09)
(9.68314e-09 -4.18148e-08 1.13984e-08)
(1.09492e-08 -4.78411e-08 1.37623e-08)
(1.24843e-08 -5.40506e-08 1.64569e-08)
(1.44078e-08 -6.01865e-08 1.94456e-08)
(1.68297e-08 -6.58298e-08 2.26055e-08)
(1.9742e-08 -7.03133e-08 2.56306e-08)
(2.28818e-08 -7.25842e-08 2.78733e-08)
(1.16416e-08 -7.99184e-08 2.95846e-08)
(0 0 0)
(0 0 0)
(0 0 0)
(0 0 0)
(0 0 0)
(0 0 0)
(0 0 0)
(0 0 0)
(0 0 0)
(0 0 0)
(0 0 0)
(0 0 0)
(0 0 0)
(0 0 0)
(0 0 0)
(0 0 0)
(0 0 0)
(0 0 0)
(1.68739e-10 -9.31054e-10 1.63399e-10)
(3.21208e-10 -1.82244e-09 3.25752e-10)
(4.52973e-10 -2.69445e-09 4.96236e-10)
(5.64012e-10 -3.59014e-09 6.88285e-10)
(6.5258e-10 -4.54848e-09 9.15853e-10)
(7.14432e-10 -5.60753e-09 1.19469e-09)
(7.40538e-10 -6.80107e-09 1.54247e-09)
(7.14428e-10 -8.1613e-09 1.98033e-09)
(6.07555e-10 -9.71929e-09 2.53375e-09)
(3.7139e-10 -1.14938e-08 3.2307e-09)
(-7.19866e-11 -1.34877e-08 4.10172e-09)
(-8.41256e-10 -1.56492e-08 5.16968e-09)
(-2.09586e-09 -1.78111e-08 6.43057e-09)
(-3.9752e-09 -1.96223e-08 7.81843e-09)
(-6.24107e-09 -2.04736e-08 9.06887e-09)
(-1.3454e-08 -1.76716e-08 1.17184e-08)
(0 0 0)
(3.37385e-10 -1.82053e-09 3.20194e-10)
(6.42567e-10 -3.56211e-09 6.37902e-10)
(9.07025e-10 -5.26219e-09 9.70492e-10)
(1.13166e-09 -7.00432e-09 1.34387e-09)
(1.31461e-09 -8.86522e-09 1.785e-09)
(1.44933e-09 -1.09159e-08 2.32353e-09)
(1.52184e-09 -1.32233e-08 2.99342e-09)
(1.50655e-09 -1.58537e-08 3.83541e-09)
(1.35834e-09 -1.88645e-08 4.89637e-09)
(1.0014e-09 -2.22997e-08 6.22977e-09)
(3.15151e-10 -2.61832e-08 7.89297e-09)
(-8.79128e-10 -3.04654e-08 9.92676e-09)
(-2.80586e-09 -3.49705e-08 1.23198e-08)
(-5.62201e-09 -3.92991e-08 1.49173e-08)
(-8.89797e-09 -4.2566e-08 1.71739e-08)
(-1.59937e-08 -4.91491e-08 1.97144e-08)
(0 0 0)
(5.05638e-10 -2.63172e-09 4.64881e-10)
(9.6368e-10 -5.14552e-09 9.25008e-10)
(1.36236e-09 -7.59269e-09 1.40452e-09)
(1.70531e-09 -1.00947e-08 1.94051e-09)
(1.99276e-09 -1.27611e-08 2.57093e-09)
(2.21917e-09 -1.56894e-08 3.33654e-09)
(2.37137e-09 -1.89725e-08 4.28408e-09)
(2.42471e-09 -2.27017e-08 5.46872e-09)
(2.33604e-09 -2.69586e-08 6.95411e-09)
(2.03416e-09 -3.18184e-08 8.81451e-09)
(1.40557e-09 -3.73261e-08 1.11264e-08)
(2.83302e-10 -4.3471e-08 1.39519e-08)
(-1.53548e-09 -5.01523e-08 1.72958e-08)
(-4.18761e-09 -5.70054e-08 2.09681e-08)
(-7.28489e-09 -6.28875e-08 2.42449e-08)
(-1.32271e-08 -7.2352e-08 2.90114e-08)
(0 0 0)
(6.72251e-10 -3.33176e-09 5.92955e-10)
(1.28255e-09 -6.5097e-09 1.17817e-09)
(1.81737e-09 -9.59758e-09 1.78529e-09)
(2.28434e-09 -1.27479e-08 2.4603e-09)
(2.68744e-09 -1.60929e-08 3.24897e-09)
(3.02562e-09 -1.97496e-08 4.19988e-09)
(3.29214e-09 -2.38266e-08 5.3678e-09)
(3.47259e-09 -2.84269e-08 6.8162e-09)
(3.54181e-09 -3.36469e-08 8.61877e-09)
(3.45961e-09 -3.95745e-08 1.08602e-08)
(3.16331e-09 -4.62682e-08 1.36292e-08)
(2.5599e-09 -5.37576e-08 1.70136e-08)
(1.52522e-09 -6.19745e-08 2.10508e-08)
(-6.17044e-11 -7.0523e-08 2.55818e-08)
(-2.09378e-09 -7.80175e-08 2.98321e-08)
(-6.56087e-09 -8.96891e-08 3.68834e-08)
(0 0 0)
(8.36118e-10 -3.89816e-09 7.02068e-10)
(1.59719e-09 -7.61242e-09 1.39295e-09)
(2.26901e-09 -1.12155e-08 2.10601e-09)
(2.86401e-09 -1.48812e-08 2.89327e-09)
(3.39123e-09 -1.87564e-08 3.80534e-09)
(3.85658e-09 -2.29691e-08 4.89507e-09)
(4.26328e-09 -2.76332e-08 6.22054e-09)
(4.61273e-09 -3.28514e-08 7.84744e-09)
(4.90577e-09 -3.87147e-08 9.85043e-09)
(5.1453e-09 -4.5298e-08 1.23133e-08)
(5.33988e-09 -5.26506e-08 1.5326e-08)
(5.50676e-09 -6.07918e-08 1.89822e-08)
(5.65722e-09 -6.96254e-08 2.33341e-08)
(5.7665e-09 -7.87153e-08 2.82627e-08)
(5.66148e-09 -8.6633e-08 3.30212e-08)
(5.13565e-09 -9.79242e-08 4.19305e-08)
(0 0 0)
(9.95372e-10 -4.31419e-09 7.91177e-10)
(1.9037e-09 -8.421e-09 1.56719e-09)
(2.71064e-09 -1.23976e-08 2.36318e-09)
(3.43404e-09 -1.64311e-08 3.23471e-09)
(4.08882e-09 -2.06764e-08 4.23458e-09)
(4.68843e-09 -2.52634e-08 5.41645e-09)
(5.2468e-09 -3.03022e-08 6.83744e-09)
(5.78134e-09 -3.58833e-08 8.55981e-09)
(6.31782e-09 -4.20748e-08 1.06515e-08)
(6.89811e-09 -4.89166e-08 1.3185e-08)
(7.59175e-09 -5.64085e-08 1.62339e-08)
(8.51034e-09 -6.44961e-08 1.98661e-08)
(9.80587e-09 -7.30055e-08 2.41073e-08)
(1.16216e-08 -8.14556e-08 2.88205e-08)
(1.37425e-08 -8.85644e-08 3.32949e-08)
(2.07198e-08 -9.72556e-08 4.18333e-08)
(0 0 0)
(1.14722e-09 -4.56736e-09 8.60149e-10)
(2.19643e-09 -8.91178e-09 1.70079e-09)
(3.13347e-09 -1.31114e-08 2.5571e-09)
(3.98154e-09 -1.73594e-08 3.48593e-09)
(4.76126e-09 -2.18114e-08 4.53986e-09)
(5.4929e-09 -2.65933e-08 5.77057e-09)
(6.19932e-09 -3.18039e-08 7.23082e-09)
(6.9102e-09 -3.75133e-08 8.97531e-09)
(7.66821e-09 -4.37564e-08 1.10598e-08)
(8.53805e-09 -5.05217e-08 1.35378e-08)
(9.61787e-09 -5.7733e-08 1.64539e-08)
(1.10499e-08 -6.52245e-08 1.98307e-08)
(1.30091e-08 -7.26937e-08 2.36339e-08)
(1.55989e-08 -7.95903e-08 2.76627e-08)
(1.8409e-08 -8.49357e-08 3.12559e-08)
(3.35779e-08 -8.87506e-08 3.58232e-08)
(0 0 0)
(1.28864e-09 -4.6511e-09 9.09935e-10)
(2.46933e-09 -9.07299e-09 1.79586e-09)
(3.52811e-09 -1.33422e-08 2.69158e-09)
(4.493e-09 -1.76508e-08 3.65327e-09)
(5.38938e-09 -2.215e-08 4.73138e-09)
(6.24268e-09 -2.69572e-08 5.97354e-09)
(7.08165e-09 -3.21564e-08 7.42596e-09)
(7.94271e-09 -3.77945e-08 9.1334e-09)
(8.8755e-09 -4.38715e-08 1.1137e-08)
(9.94973e-09 -5.03237e-08 1.34689e-08)
(1.12611e-08 -5.69974e-08 1.61426e-08)
(1.2929e-08 -6.36107e-08 1.91331e-08)
(1.50601e-08 -6.96941e-08 2.23363e-08)
(1.76173e-08 -7.44938e-08 2.54738e-08)
(2.01603e-08 -7.68661e-08 2.79183e-08)
(1.43395e-08 -7.40512e-08 2.98802e-08)
(0 0 0)
(0 0 0)
(0 0 0)
(0 0 0)
(0 0 0)
(0 0 0)
(0 0 0)
(0 0 0)
(0 0 0)
(0 0 0)
(0 0 0)
(0 0 0)
(0 0 0)
(0 0 0)
(0 0 0)
(0 0 0)
(0 0 0)
(0 0 0)
(1.5814e-10 -9.61883e-10 1.53281e-10)
(2.99791e-10 -1.88406e-09 3.05604e-10)
(4.19525e-10 -2.78797e-09 4.65508e-10)
(5.16167e-10 -3.71953e-09 6.45713e-10)
(5.86647e-10 -4.72023e-09 8.59379e-10)
(6.24913e-10 -5.83e-09 1.12128e-09)
(6.19585e-10 -7.08522e-09 1.44795e-09)
(5.50884e-10 -8.51948e-09 1.8588e-09)
(3.85755e-10 -1.01633e-08 2.3771e-09)
(6.91864e-11 -1.20345e-08 3.02824e-09)
(-4.86225e-10 -1.41297e-08 3.83773e-09)
(-1.41096e-09 -1.63806e-08 4.82045e-09)
(-2.87434e-09 -1.85925e-08 5.96124e-09)
(-5.00859e-09 -2.03877e-08 7.17973e-09)
(-7.52831e-09 -2.12061e-08 8.22728e-09)
(-1.65277e-08 -1.66908e-08 1.05212e-08)
(0 0 0)
(3.16684e-10 -1.88062e-09 3.00361e-10)
(6.00668e-10 -3.68146e-09 5.98313e-10)
(8.41623e-10 -5.44232e-09 9.10063e-10)
(1.03824e-09 -7.25218e-09 1.26009e-09)
(1.18616e-09 -9.19319e-09 1.67387e-09)
(1.2756e-09 -1.13408e-08 2.17926e-09)
(1.28823e-09 -1.37663e-08 2.80801e-09)
(1.19268e-09 -1.65398e-08 3.59786e-09)
(9.36109e-10 -1.97215e-08 4.59193e-09)
(4.31883e-10 -2.33527e-08 5.83747e-09)
(-4.54398e-10 -2.74448e-08 7.38102e-09)
(-1.91386e-09 -3.19229e-08 9.24715e-09)
(-4.16752e-09 -3.65612e-08 1.14007e-08)
(-7.31219e-09 -4.08825e-08 1.36613e-08)
(-1.07753e-08 -4.40026e-08 1.55324e-08)
(-1.7484e-08 -4.95974e-08 1.77966e-08)
(0 0 0)
(4.75654e-10 -2.71764e-09 4.35987e-10)
(9.0301e-10 -5.31554e-09 8.67332e-10)
(1.26804e-09 -7.84964e-09 1.31676e-09)
(1.57123e-09 -1.04491e-08 1.81928e-09)
(1.80915e-09 -1.323e-08 2.41053e-09)
(1.97192e-09 -1.62964e-08 3.12885e-09)
(2.04078e-09 -1.97475e-08 4.01796e-09)
(1.98383e-09 -2.36803e-08 5.12904e-09)
(1.74853e-09 -2.81817e-08 6.52018e-09)
(1.25159e-09 -3.33254e-08 8.25594e-09)
(3.6655e-10 -3.9144e-08 1.03967e-08)
(-1.07982e-09 -4.55977e-08 1.29776e-08)
(-3.26638e-09 -5.25156e-08 1.59577e-08)
(-6.21998e-09 -5.9392e-08 1.90888e-08)
(-9.33951e-09 -6.49898e-08 2.16919e-08)
(-1.48919e-08 -7.33981e-08 2.51355e-08)
(0 0 0)
(6.34149e-10 -3.43927e-09 5.55973e-10)
(1.20568e-09 -6.72276e-09 1.10456e-09)
(1.69832e-09 -9.92045e-09 1.67366e-09)
(2.11579e-09 -1.31935e-08 2.30655e-09)
(2.45762e-09 -1.66819e-08 3.04619e-09)
(2.71775e-09 -2.05106e-08 3.93826e-09)
(2.88316e-09 -2.47957e-08 5.03396e-09)
(2.93156e-09 -2.96474e-08 6.392e-09)
(2.82804e-09 -3.51679e-08 8.07901e-09)
(2.52108e-09 -4.14463e-08 1.01679e-08)
(1.93749e-09 -4.85328e-08 1.2727e-08)
(9.82284e-10 -5.64258e-08 1.58047e-08)
(-4.33621e-10 -6.49711e-08 1.93654e-08)
(-2.30806e-09 -7.35739e-08 2.31371e-08)
(-4.30435e-09 -8.06632e-08 2.63438e-08)
(-8.61646e-09 -9.10355e-08 3.07468e-08)
(0 0 0)
(7.91276e-10 -4.02288e-09 6.58205e-10)
(1.50695e-09 -7.85987e-09 1.30581e-09)
(2.12963e-09 -1.15902e-08 1.97416e-09)
(2.66731e-09 -1.53973e-08 2.71214e-09)
(3.1243e-09 -1.94371e-08 3.56732e-09)
(3.50104e-09 -2.3846e-08 4.58936e-09)
(3.79426e-09 -2.87462e-08 5.83254e-09)
(3.99739e-09 -3.42481e-08 7.35756e-09)
(4.10189e-09 -4.04486e-08 9.2317e-09)
(4.10036e-09 -4.74252e-08 1.15264e-08)
(3.99254e-09 -5.52194e-08 1.43088e-08)
(3.79517e-09 -6.38225e-08 1.7628e-08)
(3.55215e-09 -7.30444e-08 2.14432e-08)
(3.34856e-09 -8.22148e-08 2.5474e-08)
(3.23201e-09 -8.96563e-08 2.89148e-08)
(2.20146e-09 -9.97595e-08 3.37309e-08)
(0 0 0)
(9.45151e-10 -4.45102e-09 7.4166e-10)
(1.80282e-09 -8.69237e-09 1.46899e-09)
(2.55528e-09 -1.2808e-08 2.21494e-09)
(3.21562e-09 -1.69955e-08 3.03173e-09)
(3.79386e-09 -2.14188e-08 3.96901e-09)
(4.2979e-09 -2.62168e-08 5.07718e-09)
(4.73514e-09 -3.15074e-08 6.4097e-09)
(5.11525e-09 -3.73885e-08 8.02419e-09)
(5.45499e-09 -4.39338e-08 9.98194e-09)
(5.78648e-09 -5.11841e-08 1.23445e-08)
(6.17061e-09 -5.91312e-08 1.51652e-08)
(6.71714e-09 -6.76935e-08 1.84726e-08)
(7.59692e-09 -7.66051e-08 2.22027e-08)
(9.03794e-09 -8.51562e-08 2.60569e-08)
(1.1027e-08 -9.17984e-08 2.92363e-08)
(1.69385e-08 -9.99032e-08 3.31221e-08)
(0 0 0)
(1.09294e-09 -4.71091e-09 8.06218e-10)
(2.0876e-09 -9.19633e-09 1.59401e-09)
(2.96635e-09 -1.35412e-08 2.39636e-09)
(3.74755e-09 -1.79493e-08 3.26667e-09)
(4.44686e-09 -2.25855e-08 4.2544e-09)
(5.07909e-09 -2.75841e-08 5.40815e-09)
(5.66076e-09 -3.30512e-08 6.77741e-09)
(6.21409e-09 -3.90628e-08 8.41307e-09)
(6.77306e-09 -4.56577e-08 1.03658e-08)
(7.39253e-09 -5.2823e-08 1.26813e-08)
(8.16074e-09 -6.04716e-08 1.53907e-08)
(9.21272e-09 -6.84074e-08 1.84907e-08)
(1.07246e-08 -7.62442e-08 2.189e-08)
(1.28466e-08 -8.32477e-08 2.52941e-08)
(1.53276e-08 -8.82193e-08 2.8011e-08)
(2.90802e-08 -9.24334e-08 2.95186e-08)
(0 0 0)
(1.23153e-09 -4.79601e-09 8.52787e-10)
(2.35502e-09 -9.36006e-09 1.68292e-09)
(3.35312e-09 -1.37754e-08 2.52206e-09)
(4.24901e-09 -1.82443e-08 3.42301e-09)
(5.06324e-09 -2.29272e-08 4.43321e-09)
(5.81598e-09 -2.79488e-08 5.59754e-09)
(6.53001e-09 -3.33995e-08 6.95955e-09)
(7.23466e-09 -3.93308e-08 8.5612e-09)
(7.97129e-09 -4.57438e-08 1.04405e-08)
(8.79998e-09 -5.25701e-08 1.26255e-08)
(9.80576e-09 -5.96409e-08 1.51234e-08)
(1.10977e-08 -6.66389e-08 1.78995e-08)
(1.2778e-08 -7.30171e-08 2.08329e-08)
(1.48416e-08 -7.78771e-08 2.36351e-08)
(1.69904e-08 -7.98928e-08 2.57471e-08)
(7.90429e-09 -7.88007e-08 2.98587e-08)
(0 0 0)
(0 0 0)
(0 0 0)
(0 0 0)
(0 0 0)
(0 0 0)
(0 0 0)
(0 0 0)
(0 0 0)
(0 0 0)
(0 0 0)
(0 0 0)
(0 0 0)
(0 0 0)
(0 0 0)
(0 0 0)
(0 0 0)
(0 0 0)
(1.47851e-10 -9.89418e-10 1.37491e-10)
(2.79018e-10 -1.93924e-09 2.74163e-10)
(3.87099e-10 -2.87174e-09 4.17564e-10)
(4.69739e-10 -3.83453e-09 5.79089e-10)
(5.22649e-10 -4.87156e-09 7.70532e-10)
(5.38122e-10 -6.02438e-09 1.00491e-09)
(5.02915e-10 -7.33169e-09 1.29692e-09)
(3.95038e-10 -8.82807e-09 1.66317e-09)
(1.7878e-10 -1.05401e-08 2.12221e-09)
(-2.0335e-10 -1.24789e-08 2.69367e-09)
(-8.40666e-10 -1.46309e-08 3.39544e-09)
(-1.86273e-09 -1.69039e-08 4.23191e-09)
(-3.43288e-09 -1.90595e-08 5.17884e-09)
(-5.6743e-09 -2.06614e-08 6.16069e-09)
(-8.29586e-09 -2.1126e-08 6.98294e-09)
(-1.7885e-08 -1.42552e-08 8.84506e-09)
(0 0 0)
(2.96567e-10 -1.93424e-09 2.69407e-10)
(5.59966e-10 -3.78788e-09 5.36595e-10)
(7.77997e-10 -5.60209e-09 8.15854e-10)
(9.47306e-10 -7.47113e-09 1.12933e-09)
(1.06122e-09 -9.48226e-09 1.49992e-09)
(1.10692e-09 -1.17144e-08 1.95231e-09)
(1.06238e-09 -1.42413e-08 2.51428e-09)
(8.91775e-10 -1.71324e-08 3.21756e-09)
(5.37909e-10 -2.04467e-08 4.09747e-09)
(-8.982e-11 -2.42204e-08 5.19061e-09)
(-1.1272e-09 -2.84428e-08 6.52704e-09)
(-2.75788e-09 -3.29974e-08 8.10915e-09)
(-5.17815e-09 -3.75932e-08 9.88139e-09)
(-8.43905e-09 -4.16728e-08 1.16722e-08)
(-1.1934e-08 -4.43584e-08 1.30958e-08)
(-1.85145e-08 -4.85369e-08 1.47547e-08)
(0 0 0)
(4.46483e-10 -2.79421e-09 3.90961e-10)
(8.43978e-10 -5.46679e-09 7.77581e-10)
(1.17612e-09 -8.07742e-09 1.18018e-09)
(1.44043e-09 -1.07628e-08 1.63035e-09)
(1.62992e-09 -1.36446e-08 2.15992e-09)
(1.73063e-09 -1.68318e-08 2.80288e-09)
(1.71878e-09 -2.04271e-08 3.59731e-09)
(1.55653e-09 -2.45282e-08 4.58644e-09)
(1.18549e-09 -2.92233e-08 5.81783e-09)
(5.17445e-10 -3.4581e-08 7.34004e-09)
(-5.7365e-10 -4.06103e-08 9.18887e-09)
(-2.24647e-09 -4.72256e-08 1.1364e-08)
(-4.63719e-09 -5.41833e-08 1.37848e-08)
(-7.69505e-09 -6.08921e-08 1.61995e-08)
(-1.07663e-08 -6.61438e-08 1.80828e-08)
(-1.58942e-08 -7.36509e-08 2.03644e-08)
(0 0 0)
(5.97042e-10 -3.53504e-09 4.98449e-10)
(1.13077e-09 -6.91246e-09 9.9013e-10)
(1.58216e-09 -1.02076e-08 1.50012e-09)
(1.95099e-09 -1.35895e-08 2.06723e-09)
(2.23241e-09 -1.72042e-08 2.72973e-09)
(2.41541e-09 -2.11828e-08 3.52811e-09)
(2.48107e-09 -2.56467e-08 4.50707e-09)
(2.40019e-09 -3.07099e-08 5.71638e-09)
(2.13056e-09 -3.64756e-08 7.2099e-09)
(1.6145e-09 -4.30282e-08 9.0408e-09)
(7.78528e-10 -5.03999e-08 1.12464e-08)
(-4.58034e-10 -5.85482e-08 1.38262e-08)
(-2.13766e-09 -6.72469e-08 1.66807e-08)
(-4.17651e-09 -7.58097e-08 1.95046e-08)
(-6.18256e-09 -8.26843e-08 2.16932e-08)
(-1.03226e-08 -9.26497e-08 2.43103e-08)
(0 0 0)
(7.47555e-10 -4.13403e-09 5.90056e-10)
(1.41889e-09 -8.08039e-09 1.17052e-09)
(1.99338e-09 -1.1924e-08 1.76946e-09)
(2.47449e-09 -1.58567e-08 2.43068e-09)
(2.86166e-09 -2.00417e-08 3.19664e-09)
(3.14978e-09 -2.46223e-08 4.11136e-09)
(3.32894e-09 -2.97268e-08 5.22223e-09)
(3.38478e-09 -3.54705e-08 6.58075e-09)
(3.30009e-09 -4.19527e-08 8.24087e-09)
(3.05914e-09 -4.92479e-08 1.02533e-08)
(2.65703e-09 -5.73843e-08 1.26516e-08)
(2.11593e-09 -6.63235e-08 1.54293e-08)
(1.51313e-09 -7.58132e-08 1.84658e-08)
(9.95699e-10 -8.50943e-08 2.14164e-08)
(6.7303e-10 -9.24978e-08 2.36371e-08)
(-8.33284e-10 -1.02834e-07 2.60038e-08)
(0 0 0)
(8.96128e-10 -4.57301e-09 6.64823e-10)
(1.70425e-09 -8.93438e-09 1.3167e-09)
(2.40314e-09 -1.3174e-08 1.98515e-09)
(3.00097e-09 -1.74982e-08 2.71694e-09)
(3.50258e-09 -2.2079e-08 3.55641e-09)
(3.90992e-09 -2.70624e-08 4.54831e-09)
(4.2233e-09 -3.25727e-08 5.73939e-09)
(4.44381e-09 -3.87128e-08 7.17865e-09)
(4.57812e-09 -4.55592e-08 8.91515e-09)
(4.6471e-09 -5.31516e-08 1.09917e-08)
(4.70067e-09 -6.14713e-08 1.34313e-08)
(4.84101e-09 -7.04196e-08 1.62134e-08)
(5.24336e-09 -7.96843e-08 1.91983e-08)
(6.16131e-09 -8.8491e-08 2.20201e-08)
(7.65466e-09 -9.53102e-08 2.40227e-08)
(1.22778e-08 -1.04574e-07 2.53071e-08)
(0 0 0)
(1.0399e-09 -4.83896e-09 7.22636e-10)
(1.98113e-09 -9.4502e-09 1.42866e-09)
(2.80244e-09 -1.39247e-08 2.14759e-09)
(3.51709e-09 -1.84753e-08 2.92728e-09)
(4.13541e-09 -2.32748e-08 3.81196e-09)
(4.6661e-09 -2.84645e-08 4.84483e-09)
(5.11833e-09 -3.41566e-08 6.06937e-09)
(5.50527e-09 -4.0432e-08 7.52905e-09)
(5.84966e-09 -4.73316e-08 9.26466e-09)
(6.19255e-09 -5.48411e-08 1.13077e-08)
(6.60534e-09 -6.2865e-08 1.36671e-08)
(7.20324e-09 -7.11935e-08 1.63071e-08)
(8.13583e-09 -7.94116e-08 1.90873e-08)
(9.53251e-09 -8.67597e-08 2.16857e-08)
(1.11909e-08 -9.20934e-08 2.3551e-08)
(2.26307e-08 -9.84664e-08 2.35241e-08)
(0 0 0)
(1.17567e-09 -4.9253e-09 7.64319e-10)
(2.24309e-09 -9.61627e-09 1.50823e-09)
(3.18129e-09 -1.4162e-08 2.26009e-09)
(4.00833e-09 -1.87739e-08 3.0672e-09)
(4.73942e-09 -2.36198e-08 3.97205e-09)
(5.38871e-09 -2.88311e-08 5.01464e-09)
(5.97168e-09 -3.45037e-08 6.23344e-09)
(6.50857e-09 -4.06927e-08 7.66464e-09)
(7.02914e-09 -4.74006e-08 9.33919e-09)
(7.57853e-09 -5.4556e-08 1.12761e-08)
(8.22255e-09 -6.19806e-08 1.34704e-08)
(9.04548e-09 -6.93395e-08 1.58724e-08)
(1.01169e-08 -7.60588e-08 1.83479e-08)
(1.14062e-08 -8.12175e-08 2.06317e-08)
(1.26447e-08 -8.35175e-08 2.23149e-08)
(-7.9717e-10 -8.49904e-08 2.64621e-08)
(0 0 0)
(0 0 0)
(0 0 0)
(0 0 0)
(0 0 0)
(0 0 0)
(0 0 0)
(0 0 0)
(0 0 0)
(0 0 0)
(0 0 0)
(0 0 0)
(0 0 0)
(0 0 0)
(0 0 0)
(0 0 0)
(0 0 0)
(0 0 0)
(1.38436e-10 -1.0128e-09 1.16601e-10)
(2.59981e-10 -1.98593e-09 2.32518e-10)
(3.57428e-10 -2.9426e-09 3.54102e-10)
(4.27281e-10 -3.9314e-09 4.90875e-10)
(4.64169e-10 -4.99859e-09 6.52837e-10)
(4.59125e-10 -6.18752e-09 8.50835e-10)
(3.97459e-10 -7.53718e-09 1.09682e-09)
(2.5586e-10 -9.08201e-09 1.40396e-09)
(-2.19232e-12 -1.08461e-08 1.78592e-09)
(-4.33683e-10 -1.28323e-08 2.25553e-09)
(-1.12493e-09 -1.50108e-08 2.82248e-09)
(-2.19768e-09 -1.72665e-08 3.4836e-09)
(-3.80225e-09 -1.93203e-08 4.21166e-09)
(-6.05016e-09 -2.06787e-08 4.94389e-09)
(-8.65494e-09 -2.07518e-08 5.54036e-09)
(-1.82681e-08 -1.19253e-08 6.88693e-09)
(0 0 0)
(2.78133e-10 -1.97965e-09 2.28452e-10)
(5.22682e-10 -3.87804e-09 4.54986e-10)
(7.19827e-10 -5.7377e-09 6.91545e-10)
(8.64288e-10 -7.65722e-09 9.56949e-10)
(9.47262e-10 -9.7278e-09 1.27056e-09)
(9.53269e-10 -1.20301e-08 1.65273e-09)
(8.57556e-10 -1.46391e-08 2.12607e-09)
(6.2158e-10 -1.76238e-08 2.71548e-09)
(1.86343e-10 -2.1039e-08 3.44686e-09)
(-5.37628e-10 -2.49131e-08 4.34455e-09)
(-1.67941e-09 -2.921e-08 5.42297e-09)
(-3.4061e-09 -3.3774e-08 6.66854e-09)
(-5.88364e-09 -3.82599e-08 8.01902e-09)
(-9.12875e-09 -4.20489e-08 9.33107e-09)
(-1.25379e-08 -4.42957e-08 1.03319e-08)
(-1.88852e-08 -4.7449e-08 1.14141e-08)
(0 0 0)
(4.19769e-10 -2.85926e-09 3.31484e-10)
(7.89986e-10 -5.59561e-09 6.59194e-10)
(1.09208e-09 -8.2716e-09 1.00023e-09)
(1.32075e-09 -1.10301e-08 1.38144e-09)
(1.4659e-09 -1.39971e-08 1.82959e-09)
(1.50985e-09 -1.72845e-08 2.37276e-09)
(1.42486e-09 -2.09974e-08 3.04187e-09)
(1.16901e-09 -2.52337e-08 3.87071e-09)
(6.80816e-10 -3.00782e-08 4.89406e-09)
(-1.27354e-10 -3.55909e-08 6.14307e-09)
(-1.37276e-09 -4.17602e-08 7.63181e-09)
(-3.19143e-09 -4.84614e-08 9.33486e-09)
(-5.67612e-09 -5.53975e-08 1.11563e-08)
(-8.72142e-09 -6.19381e-08 1.28813e-08)
(-1.16669e-08 -6.69308e-08 1.41476e-08)
(-1.62804e-08 -7.39645e-08 1.55524e-08)
(0 0 0)
(5.63071e-10 -3.61669e-09 4.2258e-10)
(1.06221e-09 -7.07435e-09 8.39327e-10)
(1.47571e-09 -1.04525e-08 1.27145e-09)
(1.79969e-09 -1.39264e-08 1.75175e-09)
(2.02532e-09 -1.76475e-08 2.31238e-09)
(2.13711e-09 -2.17512e-08 2.98691e-09)
(2.11103e-09 -2.63625e-08 3.8116e-09)
(1.91242e-09 -3.1597e-08 4.82531e-09)
(1.4942e-09 -3.75565e-08 6.06707e-09)
(7.96744e-10 -4.43182e-08 7.56945e-09)
(-2.47492e-10 -5.19011e-08 9.34292e-09)
(-1.6987e-09 -6.02339e-08 1.13529e-08)
(-3.5559e-09 -6.90496e-08 1.34741e-08)
(-5.67524e-09 -7.76403e-08 1.54361e-08)
(-7.63797e-09 -8.44935e-08 1.68308e-08)
(-1.1385e-08 -9.46103e-08 1.82997e-08)
(0 0 0)
(7.07486e-10 -4.22884e-09 5.00223e-10)
(1.33813e-09 -8.2685e-09 9.92222e-10)
(1.86823e-09 -1.22085e-08 1.49974e-09)
(2.29697e-09 -1.62477e-08 2.05978e-09)
(2.61922e-09 -2.05554e-08 2.70802e-09)
(2.82464e-09 -2.52799e-08 3.48099e-09)
(2.89721e-09 -3.05542e-08 4.41722e-09)
(2.81559e-09 -3.64965e-08 5.55684e-09)
(2.55528e-09 -4.32069e-08 6.93863e-09)
(2.09441e-09 -5.0757e-08 8.59225e-09)
(1.42635e-09 -5.91672e-08 1.05223e-08)
(5.80759e-10 -6.8385e-08 1.26843e-08)
(-3.36617e-10 -7.81378e-08 1.49269e-08)
(-1.13053e-09 -8.76598e-08 1.69339e-08)
(-1.63265e-09 -9.52972e-08 1.82694e-08)
(-3.20352e-09 -1.06353e-07 1.93236e-08)
(0 0 0)
(8.51154e-10 -4.67712e-09 5.63584e-10)
(1.61373e-09 -9.14088e-09 1.11611e-09)
(2.26314e-09 -1.34861e-08 1.68253e-09)
(2.80289e-09 -1.79266e-08 2.30237e-09)
(3.23279e-09 -2.26408e-08 3.01291e-09)
(3.54901e-09 -2.77803e-08 3.85138e-09)
(3.74488e-09 -3.34744e-08 4.85586e-09)
(3.81311e-09 -3.98299e-08 6.06463e-09)
(3.75039e-09 -4.69257e-08 7.51277e-09)
(3.56632e-09 -5.48012e-08 9.22419e-09)
(3.2991e-09 -6.34353e-08 1.11958e-08)
(3.03966e-09 -7.27304e-08 1.33745e-08)
(2.96312e-09 -8.2374e-08 1.55951e-08)
(3.34116e-09 -9.16037e-08 1.75211e-08)
(4.32581e-09 -9.88924e-08 1.86975e-08)
(8.18093e-09 -1.09452e-07 1.88231e-08)
(0 0 0)
(9.912e-10 -4.94828e-09 6.12567e-10)
(1.88325e-09 -9.66693e-09 1.21097e-09)
(2.65141e-09 -1.4252e-08 1.82017e-09)
(3.30402e-09 -1.89239e-08 2.48063e-09)
(3.84613e-09 -2.3862e-08 3.22957e-09)
(4.28033e-09 -2.92133e-08 4.10303e-09)
(4.60826e-09 -3.50952e-08 5.1366e-09)
(4.83358e-09 -4.15922e-08 6.36443e-09)
(4.96694e-09 -4.87482e-08 7.81578e-09)
(5.03378e-09 -5.65498e-08 9.50731e-09)
(5.08526e-09 -6.4901e-08 1.14291e-08)
(5.20952e-09 -7.36005e-08 1.3525e-08)
(5.52317e-09 -8.22476e-08 1.56428e-08)
(6.13022e-09 -9.01125e-08 1.74985e-08)
(6.91337e-09 -9.6066e-08 1.87154e-08)
(1.66352e-08 -1.04185e-07 1.81713e-08)
(0 0 0)
(1.12435e-09 -5.03572e-09 6.47875e-10)
(2.14012e-09 -9.83507e-09 1.27838e-09)
(3.02281e-09 -1.44922e-08 1.91549e-09)
(3.78549e-09 -1.92258e-08 2.59922e-09)
(4.43805e-09 -2.42103e-08 3.3654e-09)
(4.98843e-09 -2.95827e-08 4.24751e-09)
(5.4444e-09 -3.54433e-08 5.27722e-09)
(5.81628e-09 -4.18508e-08 6.48325e-09)
(6.12069e-09 -4.88099e-08 7.88801e-09)
(6.38522e-09 -5.62494e-08 9.50068e-09)
(6.65172e-09 -6.39898e-08 1.13055e-08)
(6.97205e-09 -7.16991e-08 1.32455e-08)
(7.37238e-09 -7.8813e-08 1.51914e-08)
(7.7864e-09 -8.44262e-08 1.69277e-08)
(7.98954e-09 -8.72369e-08 1.81871e-08)
(-8.90086e-09 -9.06382e-08 2.19392e-08)
(0 0 0)
(0 0 0)
(0 0 0)
(0 0 0)
(0 0 0)
(0 0 0)
(0 0 0)
(0 0 0)
(0 0 0)
(0 0 0)
(0 0 0)
(0 0 0)
(0 0 0)
(0 0 0)
(0 0 0)
(0 0 0)
(0 0 0)
(0 0 0)
(1.30451e-10 -1.03151e-09 9.14067e-11)
(2.43816e-10 -2.02312e-09 1.82262e-10)
(3.32226e-10 -2.99887e-09 2.77526e-10)
(3.91286e-10 -4.0086e-09 3.84592e-10)
(4.14703e-10 -5.09992e-09 5.11212e-10)
(3.92538e-10 -6.31704e-09 6.65701e-10)
(3.09152e-10 -7.69913e-09 8.56985e-10)
(1.40617e-10 -9.27994e-09 1.09456e-09)
(-1.49262e-10 -1.10809e-08 1.38762e-09)
(-6.15288e-10 -1.30991e-08 1.74358e-09)
(-1.33827e-09 -1.52891e-08 2.16565e-09)
(-2.42931e-09 -1.75152e-08 2.64699e-09)
(-4.023e-09 -1.9468e-08 3.16319e-09)
(-6.21643e-09 -2.06117e-08 3.66706e-09)
(-8.73073e-09 -2.03614e-08 4.06531e-09)
(-1.79911e-08 -1.00004e-08 4.95501e-09)
(0 0 0)
(2.62496e-10 -2.016e-09 1.79081e-10)
(4.91047e-10 -3.95016e-09 3.56615e-10)
(6.70558e-10 -5.84656e-09 5.41916e-10)
(7.94027e-10 -7.80669e-09 7.4966e-10)
(8.50828e-10 -9.92424e-09 9.94857e-10)
(8.23531e-10 -1.22813e-08 1.29306e-09)
(6.85465e-10 -1.49535e-08 1.66112e-09)
(3.96657e-10 -1.80089e-08 2.11694e-09)
(-1.01774e-10 -2.14986e-08 2.67792e-09)
(-8.95446e-10 -2.54419e-08 3.35786e-09)
(-2.10326e-09 -2.97805e-08 4.15961e-09)
(-3.87246e-09 -3.43304e-08 5.06345e-09)
(-6.33799e-09 -3.87074e-08 6.0138e-09)
(-9.48663e-09 -4.22535e-08 6.90351e-09)
(-1.27299e-08 -4.41607e-08 7.55499e-09)
(-1.86052e-08 -4.66038e-08 8.19583e-09)
(0 0 0)
(3.97107e-10 -2.91142e-09 2.59832e-10)
(7.44193e-10 -5.69901e-09 5.16639e-10)
(1.02085e-09 -8.42777e-09 7.83765e-10)
(1.21929e-09 -1.12447e-08 1.08217e-09)
(1.32677e-09 -1.42791e-08 1.43259e-09)
(1.32275e-09 -1.7645e-08 1.85645e-09)
(1.17653e-09 -2.1449e-08 2.37679e-09)
(8.43666e-10 -2.57887e-08 3.01779e-09)
(2.61802e-10 -3.07455e-08 3.8025e-09)
(-6.53055e-10 -3.63689e-08 4.74763e-09)
(-2.00616e-09 -4.26329e-08 5.85282e-09)
(-3.90861e-09 -4.93878e-08 7.08353e-09)
(-6.41216e-09 -5.63036e-08 8.3521e-09)
(-9.36716e-09 -6.27359e-08 9.49801e-09)
(-1.21222e-08 -6.75779e-08 1.02939e-08)
(-1.60646e-08 -7.43809e-08 1.11076e-08)
(0 0 0)
(5.34243e-10 -3.68225e-09 3.31225e-10)
(1.00401e-09 -7.20437e-09 6.57805e-10)
(1.38529e-09 -1.06491e-08 9.963e-10)
(1.67104e-09 -1.41965e-08 1.37231e-09)
(1.84907e-09 -1.8002e-08 1.81073e-09)
(1.90018e-09 -2.22043e-08 2.33719e-09)
(1.79629e-09 -2.69307e-08 2.97871e-09)
(1.49878e-09 -3.22975e-08 3.76302e-09)
(9.57791e-10 -3.84049e-08 4.71555e-09)
(1.14521e-10 -4.53235e-08 5.8526e-09)
(-1.08977e-09 -5.30657e-08 7.16836e-09)
(-2.69311e-09 -6.15455e-08 8.6158e-09)
(-4.65391e-09 -7.04798e-08 1.00787e-08)
(-6.77586e-09 -7.91642e-08 1.13527e-08)
(-8.62352e-09 -8.61044e-08 1.21904e-08)
(-1.17696e-08 -9.65347e-08 1.2975e-08)
(0 0 0)
(6.73452e-10 -4.305e-09 3.92076e-10)
(1.26949e-09 -8.41959e-09 7.77632e-10)
(1.76173e-09 -1.2437e-08 1.17521e-09)
(2.14567e-09 -1.65614e-08 1.61368e-09)
(2.41221e-09 -2.09666e-08 2.12069e-09)
(2.54653e-09 -2.58051e-08 2.72417e-09)
(2.52747e-09 -3.12129e-08 3.45286e-09)
(2.32802e-09 -3.73105e-08 4.33536e-09)
(1.91806e-09 -4.41986e-08 5.39661e-09)
(1.27177e-09 -5.19478e-08 6.65023e-09)
(3.83186e-10 -6.0577e-08 8.08417e-09)
(-7.08238e-10 -7.00333e-08 9.64126e-09)
(-1.86923e-09 -8.00484e-08 1.11817e-08)
(-2.8547e-09 -8.98698e-08 1.24633e-08)