/*--------------------------------*- C++ -*----------------------------------*\
| =========                 |                                                 |
| \\      /  F ield         | foam-extend: Open Source CFD                    |
|  \\    /   O peration     | Version:     3.1                                |
|   \\  /    A nd           | Web:         http://www.extend-project.de       |
|    \\/     M anipulation  |                                                 |
\*---------------------------------------------------------------------------*/
FoamFile
{
    version     2.0;
    format      ascii;
    class       surfaceVectorField;
    location    "0.8";
    object      Sf;
}
// * * * * * * * * * * * * * * * * * * * * * * * * * * * * * * * * * * * * * //

dimensions      [0 2 0 0 0 0 0];

internalField   nonuniform List<vector> 
41600
(
(0.000625847 -6.88719e-06 -5.48052e-08)
(-8.47787e-07 0.000710011 -2.47991e-08)
(-4.85273e-08 -5.45932e-08 0.000707085)
(4.98056e-08 5.60313e-08 -0.000707006)
(0.000626661 -1.32637e-05 -1.05831e-07)
(-8.16091e-07 0.000709497 -7.43672e-08)
(-4.80629e-08 -1.6322e-07 0.000707789)
(4.93451e-08 1.67538e-07 -0.000707663)
(0.000627466 -1.90787e-05 -1.53984e-07)
(-8.06151e-07 0.000708933 -1.25466e-07)
(-5.00872e-08 -2.73497e-07 0.000708444)
(5.14388e-08 2.80775e-07 -0.00070827)
(0.000628306 -2.44849e-05 -2.01805e-07)
(-8.41395e-07 0.000708521 -1.82071e-07)
(-5.60133e-08 -3.92546e-07 0.000709193)
(5.7533e-08 4.03048e-07 -0.000708963)
(0.000629225 -2.96081e-05 -2.51218e-07)
(-9.20616e-07 0.000708234 -2.49098e-07)
(-6.60683e-08 -5.29317e-07 0.000710075)
(6.78538e-08 5.43525e-07 -0.000709776)
(0.000630269 -3.45479e-05 -3.03555e-07)
(-1.0462e-06 0.000708046 -3.32081e-07)
(-8.0961e-08 -6.93773e-07 0.000711129)
(8.31023e-08 7.1238e-07 -0.000710745)
(0.00063149 -3.93743e-05 -3.59066e-07)
(-1.2239e-06 0.000707928 -4.3782e-07)
(-1.02003e-07 -8.98074e-07 0.000712398)
(1.04605e-07 9.21991e-07 -0.000711905)
(0.00063295 -4.41197e-05 -4.16547e-07)
(-1.46341e-06 0.00070784 -5.75052e-07)
(-1.31421e-07 -1.15822e-06 0.000713932)
(1.34603e-07 1.18861e-06 -0.000713299)
(0.000634724 -4.8763e-05 -4.72821e-07)
(-1.77786e-06 0.00070773 -7.55587e-07)
(-1.72978e-07 -1.49669e-06 0.000715782)
(1.76883e-07 1.53502e-06 -0.00071497)
(0.000636904 -5.3207e-05 -5.22118e-07)
(-2.18398e-06 0.000707521 -9.96197e-07)
(-2.33149e-07 -1.94693e-06 0.000718011)
(2.37962e-07 1.99505e-06 -0.000716966)
(0.000639599 -5.72493e-05 -5.56887e-07)
(-2.70164e-06 0.000707107 -1.32185e-06)
(-3.23349e-07 -2.56147e-06 0.00072069)
(3.29215e-07 2.62164e-06 -0.000719333)
(0.000642942 -6.05615e-05 -5.71987e-07)
(-3.34956e-06 0.000706363 -1.77249e-06)
(-4.64013e-07 -3.42653e-06 0.000723908)
(4.70855e-07 3.50117e-06 -0.000722121)
(0.000647066 -6.27086e-05 -5.78982e-07)
(-4.13086e-06 0.000705181 -2.41669e-06)
(-6.89196e-07 -4.68581e-06 0.000727801)
(6.96387e-07 4.77665e-06 -0.000725378)
(0.00065201 -6.33019e-05 -6.45101e-07)
(-4.95373e-06 0.000703609 -3.37166e-06)
(-1.03402e-06 -6.55698e-06 0.000732582)
(1.04315e-06 6.66616e-06 -0.000729145)
(0.000657036 -6.22742e-05 -1.00216e-06)
(-5.0895e-06 0.000701917 -4.77216e-06)
(-1.37019e-06 -9.16953e-06 0.000738248)
(1.43368e-06 9.34957e-06 -0.000733119)
(-2.00575e-05 0.000694722 5.87129e-07)
(-4.95672e-06 -1.57392e-05 0.000750011)
(1.11379e-05 2.21707e-05 -0.000748108)
(0.000625805 -6.77129e-06 -1.63061e-07)
(-1.65614e-06 0.000716781 -4.8641e-08)
(-1.4386e-07 -5.26464e-08 0.000713946)
(1.47653e-07 5.40373e-08 -0.000713759)
(0.000626578 -1.30377e-05 -3.149e-07)
(-1.59298e-06 0.000715759 -1.45728e-07)
(-1.42375e-07 -1.57215e-07 0.000714092)
(1.46175e-07 1.61384e-07 -0.000713869)
(0.000627339 -1.87486e-05 -4.58173e-07)
(-1.57108e-06 0.000714637 -2.45542e-07)
(-1.48152e-07 -2.62823e-07 0.000714138)
(1.52153e-07 2.69835e-07 -0.000713875)
(0.000628129 -2.40538e-05 -6.00454e-07)
(-1.63593e-06 0.000713816 -3.55766e-07)
(-1.65317e-07 -3.75911e-07 0.000714426)
(1.69813e-07 3.86006e-07 -0.00071411)
(0.000628987 -2.90778e-05 -7.47709e-07)
(-1.78458e-06 0.000713244 -4.85794e-07)
(-1.9444e-07 -5.04479e-07 0.000714963)
(1.99703e-07 5.18089e-07 -0.000714579)
(0.000629955 -3.39213e-05 -9.03927e-07)
(-2.02021e-06 0.000712872 -6.46192e-07)
(-2.37413e-07 -6.57107e-07 0.000715756)
(2.43711e-07 6.74849e-07 -0.000715286)
(0.000631076 -3.86599e-05 -1.07007e-06)
(-2.35283e-06 0.000712643 -8.49735e-07)
(-2.9774e-07 -8.43737e-07 0.000716812)
(3.05377e-07 8.66439e-07 -0.000716234)
(0.000632402 -4.33388e-05 -1.24312e-06)
(-2.79846e-06 0.00071249 -1.11259e-06)
(-3.81263e-07 -1.07658e-06 0.000718132)
(3.90584e-07 1.1053e-06 -0.000717421)
(0.000633991 -4.79603e-05 -1.41405e-06)
(-3.37838e-06 0.000712316 -1.45632e-06)
(-4.97602e-07 -1.37122e-06 0.000719701)
(5.09031e-07 1.40731e-06 -0.000718829)
(0.000635911 -5.24653e-05 -1.5663e-06)
(-4.11792e-06 0.000711981 -1.91069e-06)
(-6.62729e-07 -1.74799e-06 0.000721482)
(6.7677e-07 1.79315e-06 -0.000720415)
(0.000638233 -5.67072e-05 -1.67653e-06)
(-5.04044e-06 0.000711293 -2.51851e-06)
(-9.03431e-07 -2.23325e-06 0.000723404)
(9.20551e-07 2.28961e-06 -0.000722097)
(0.000641014 -6.04225e-05 -1.72274e-06)
(-6.15066e-06 0.000710007 -3.34461e-06)
(-1.26396e-06 -2.85856e-06 0.000725358)
(1.28421e-06 2.92884e-06 -0.00072374)
(0.000644246 -6.32085e-05 -1.71612e-06)
(-7.38532e-06 0.00070788 -4.49261e-06)
(-1.80877e-06 -3.65145e-06 0.000727225)
(1.83101e-06 3.73883e-06 -0.000725155)
(0.000647711 -6.45882e-05 -1.79132e-06)
(-8.44706e-06 0.000704882 -6.12797e-06)
(-2.5743e-06 -4.60068e-06 0.00072899)
(2.60213e-06 4.70785e-06 -0.000726159)
(0.000650492 -6.42701e-05 -2.48374e-06)
(-8.01235e-06 0.000701478 -8.45974e-06)
(-3.19076e-06 -5.58139e-06 0.000730869)
(3.33282e-06 5.70242e-06 -0.000726489)
(-1.9266e-05 0.00068808 -4.12359e-06)
(-8.64036e-06 -4.18429e-06 0.000728597)
(1.84425e-05 5.95084e-07 -0.000718714)
(0.000625728 -6.55176e-06 -2.67375e-07)
(-2.38989e-06 0.000723331 -7.03576e-08)
(-2.34192e-07 -4.89221e-08 0.000720616)
(2.40376e-07 5.02202e-08 -0.000720327)
(0.000626424 -1.26087e-05 -5.16306e-07)
(-2.2957e-06 0.000721813 -2.10565e-07)
(-2.31446e-07 -1.45828e-07 0.000720172)
(2.37631e-07 1.49715e-07 -0.000719858)
(0.000627105 -1.81184e-05 -7.50998e-07)
(-2.25812e-06 0.00072014 -3.54179e-07)
(-2.40132e-07 -2.42854e-07 0.000719574)
(2.4664e-07 2.49381e-07 -0.000719231)
(0.000627804 -2.32271e-05 -9.84092e-07)
(-2.34259e-06 0.000718915 -5.12017e-07)
(-2.6679e-07 -3.45248e-07 0.00071936)
(2.74085e-07 3.54621e-07 -0.00071897)
(0.000628554 -2.8057e-05 -1.22584e-06)
(-2.54297e-06 0.000718062 -6.97263e-07)
(-3.12058e-07 -4.59428e-07 0.000719502)
(3.20554e-07 4.72007e-07 -0.000719049)
(0.000629385 -3.27103e-05 -1.48311e-06)
(-2.86132e-06 0.000717509 -9.24513e-07)
(-3.78438e-07 -5.91801e-07 0.000719975)
(3.8856e-07 6.08099e-07 -0.000719439)
(0.000630329 -3.72717e-05 -1.75831e-06)
(-3.3087e-06 0.000717184 -1.21105e-06)
(-4.70531e-07 -7.48973e-07 0.000720749)
(4.82749e-07 7.69661e-07 -0.000720112)
(0.000631418 -4.18076e-05 -2.04799e-06)
(-3.90259e-06 0.000717 -1.57839e-06)
(-5.95761e-07 -9.37648e-07 0.00072178)
(6.10586e-07 9.63559e-07 -0.000721024)
(0.000632687 -4.63603e-05 -2.33949e-06)
(-4.66576e-06 0.000716836 -2.05464e-06)
(-7.65688e-07 -1.16395e-06 0.000722993)
(7.83745e-07 1.19608e-06 -0.000722103)
(0.000634169 -5.09382e-05 -2.60799e-06)
(-5.62213e-06 0.000716519 -2.67759e-06)
(-9.98158e-07 -1.43145e-06 0.000724262)
(1.02014e-06 1.471e-06 -0.000723227)
(0.000635886 -5.54968e-05 -2.81423e-06)
(-6.78373e-06 0.000715803 -3.49978e-06)
(-1.31997e-06 -1.73626e-06 0.00072539)
(1.34663e-06 1.78471e-06 -0.000724202)
(0.000637824 -5.99061e-05 -2.91012e-06)
(-8.11995e-06 0.000714358 -4.59712e-06)
(-1.76784e-06 -2.05555e-06 0.000726084)
(1.79958e-06 2.11479e-06 -0.000724736)
(0.000639883 -6.3899e-05 -2.8664e-06)
(-9.48043e-06 0.000711801 -6.08512e-06)
(-2.37703e-06 -2.32504e-06 0.000725979)
(2.41291e-06 2.39732e-06 -0.00072443)
(0.000641788 -6.70461e-05 -2.77146e-06)
(-1.03945e-05 0.000707944 -8.1458e-06)
(-3.10349e-06 -2.41138e-06 0.000724854)
(3.1461e-06 2.49629e-06 -0.000722931)
(0.000642906 -6.88682e-05 -3.18189e-06)
(-9.27216e-06 0.000703239 -1.10589e-05)
(-3.45019e-06 -2.17446e-06 0.000723208)
(3.59164e-06 2.23618e-06 -0.000720198)
(-2.25624e-05 0.000691499 -5.65371e-06)
(-6.39089e-06 -5.82827e-07 0.000716933)
(1.30352e-05 -6.05949e-07 -0.000710512)
(0.00062562 -6.22747e-06 -3.65207e-07)
(-3.01812e-06 0.000729557 -8.89596e-08)
(-3.16718e-07 -4.37554e-08 0.000726993)
(3.25099e-07 4.49269e-08 -0.000726609)
(0.00062621 -1.19744e-05 -7.04937e-07)
(-2.89401e-06 0.000727556 -2.65898e-07)
(-3.12334e-07 -1.30051e-07 0.000725934)
(3.20708e-07 1.33557e-07 -0.000725539)
(0.00062678 -1.71891e-05 -1.02487e-06)
(-2.83701e-06 0.000725349 -4.46289e-07)
(-3.22644e-07 -2.15298e-07 0.000724669)
(3.31441e-07 2.21171e-07 -0.000724257)
(0.000627356 -2.20102e-05 -1.34271e-06)
(-2.92881e-06 0.000723728 -6.43407e-07)
(-3.56235e-07 -3.03334e-07 0.000723922)
(3.66052e-07 3.11716e-07 -0.000723472)
(0.00062796 -2.65533e-05 -1.67295e-06)
(-3.15846e-06 0.000722594 -8.7333e-07)
(-4.13457e-07 -3.98752e-07 0.00072363)
(4.24827e-07 4.09908e-07 -0.000723124)
(0.000628611 -3.09192e-05 -2.02589e-06)
(-3.52538e-06 0.00072186 -1.15339e-06)
(-4.96706e-07 -5.05501e-07 0.000723738)
(5.10166e-07 5.19806e-07 -0.000723156)
(0.000629324 -3.52005e-05 -2.40621e-06)
(-4.03769e-06 0.000721448 -1.5036e-06)
(-6.10424e-07 -6.26635e-07 0.000724186)
(6.26546e-07 6.4456e-07 -0.000723513)
(0.000630112 -3.94858e-05 -2.8122e-06)
(-4.71007e-06 0.000721263 -1.94845e-06)
(-7.61405e-07 -7.63538e-07 0.000724895)
(7.80772e-07 7.85616e-07 -0.000724119)
(0.000630984 -4.38615e-05 -3.2313e-06)
(-5.56092e-06 0.000721185 -2.51929e-06)
(-9.59251e-07 -9.14078e-07 0.00072575)
(9.82515e-07 9.40845e-07 -0.000724867)
(0.00063194 -4.84143e-05 -3.63537e-06)
(-6.60609e-06 0.00072104 -3.25758e-06)
(-1.21692e-06 -1.069e-06 0.000726571)
(1.24476e-06 1.10095e-06 -0.000725587)
(0.000632967 -5.32264e-05 -3.97484e-06)
(-7.84365e-06 0.000720577 -4.22027e-06)
(-1.54974e-06 -1.20524e-06 0.000727085)
(1.58288e-06 1.24272e-06 -0.000726025)
(0.000634022 -5.83456e-05 -4.17589e-06)
(-9.21397e-06 0.000719434 -5.4888e-06)
(-1.96945e-06 -1.27468e-06 0.000726896)
(2.00822e-06 1.31776e-06 -0.000725804)
(0.000635013 -6.37125e-05 -4.15067e-06)
(-1.05145e-05 0.000717119 -7.18666e-06)
(-2.46377e-06 -1.19087e-06 0.000725487)
(2.50685e-06 1.23892e-06 -0.000724411)
(0.000635777 -6.89984e-05 -3.87602e-06)
(-1.12045e-05 0.000713181 -9.51601e-06)
(-2.9246e-06 -8.37851e-07 0.000722472)
(2.97094e-06 8.86376e-07 -0.000721377)
(0.000636058 -7.33673e-05 -3.71693e-06)
(-9.65629e-06 0.000707593 -1.28396e-05)
(-2.90489e-06 -2.02941e-07 0.000718327)
(3.00764e-06 2.16996e-07 -0.000716705)
(-2.33173e-05 0.00069851 -7.0607e-06)
(-4.46575e-06 1.42827e-06 0.000710924)
(9.62913e-06 -3.14146e-06 -0.000706548)
(0.000625488 -5.80751e-06 -4.54019e-07)
(-3.51693e-06 0.000735364 -1.03656e-07)
(-3.89228e-07 -3.74726e-08 0.000732978)
(3.99563e-07 3.84923e-08 -0.00073251)
(0.00062595 -1.11574e-05 -8.76067e-07)
(-3.36555e-06 0.000732903 -3.09418e-07)
(-3.82745e-07 -1.1094e-07 0.000731296)
(3.93057e-07 1.13982e-07 -0.000730831)
(0.000626388 -1.5998e-05 -1.27312e-06)
(-3.28656e-06 0.000730184 -5.18176e-07)
(-3.93184e-07 -1.82218e-07 0.000729357)
(4.03981e-07 1.8728e-07 -0.000728888)
(0.000626821 -2.0453e-05 -1.66744e-06)
(-3.37309e-06 0.000728176 -7.44868e-07)
(-4.30803e-07 -2.53699e-07 0.00072806)
(4.42779e-07 2.60856e-07 -0.000727564)
(0.000627257 -2.46261e-05 -2.07763e-06)
(-3.60889e-06 0.000726757 -1.00737e-06)
(-4.95281e-07 -3.2812e-07 0.000727309)
(5.09055e-07 3.37526e-07 -0.000726765)
(0.000627704 -2.8612e-05 -2.51773e-06)
(-3.98859e-06 0.000725834 -1.32446e-06)
(-5.88275e-07 -4.07098e-07 0.000727021)
(6.04458e-07 4.18981e-07 -0.00072641)
(0.000628163 -3.25043e-05 -2.99534e-06)
(-4.51504e-06 0.000725325 -1.71703e-06)
(-7.13138e-07 -4.90734e-07 0.000727115)
(7.32342e-07 5.05368e-07 -0.000726424)
(0.000628626 -3.64016e-05 -3.51286e-06)
(-5.19585e-06 0.000725143 -2.21018e-06)
(-8.74474e-07 -5.76527e-07 0.000727495)
(8.97226e-07 5.94142e-07 -0.000726716)
(0.000629078 -4.04186e-05 -4.06215e-06)
(-6.04049e-06 0.000725181 -2.83563e-06)
(-1.07758e-06 -6.57251e-07 0.000728025)
(1.10439e-06 6.77922e-07 -0.000727159)
(0.000629496 -4.47028e-05 -4.61885e-06)
(-7.05534e-06 0.000725301 -3.63523e-06)
(-1.32752e-06 -7.17657e-07 0.000728513)
(1.35879e-06 7.4116e-07 -0.000727578)
(0.000629847 -4.94514e-05 -5.13493e-06)
(-8.22988e-06 0.000725301 -4.66741e-06)
(-1.62533e-06 -7.29669e-07 0.000728681)
(1.66127e-06 7.55225e-07 -0.000727718)
(0.000630091 -5.48986e-05 -5.52281e-06)
(-9.49869e-06 0.000724855 -6.01806e-06)
(-1.95814e-06 -6.46015e-07 0.000728118)
(1.99832e-06 6.71937e-07 -0.000727201)
(0.000630195 -6.12314e-05 -5.64659e-06)
(-1.06606e-05 0.000723429 -7.82316e-06)
(-2.27989e-06 -3.97715e-07 0.00072625)
(2.32175e-06 4.20867e-07 -0.00072549)
(0.000630135 -6.82856e-05 -5.34641e-06)
(-1.11835e-05 0.000720221 -1.03138e-05)
(-2.4666e-06 8.27524e-08 0.000722454)
(2.50569e-06 -6.83494e-08 -0.000721957)
(0.00062987 -7.48436e-05 -4.60431e-06)
(-9.45196e-06 0.000714169 -1.3917e-05)
(-2.20335e-06 7.48833e-07 0.000716485)
(2.2643e-06 -7.66836e-07 -0.00071615)
(-2.29499e-05 0.000708341 -7.82358e-06)
(-2.76435e-06 2.03875e-06 0.000709092)
(6.16281e-06 -3.32572e-06 -0.000707947)
(0.000625341 -5.3076e-06 -5.31862e-07)
(-3.87041e-06 0.000740671 -1.13931e-07)
(-4.50174e-07 -3.04917e-08 0.000738489)
(4.62177e-07 3.13389e-08 -0.000737947)
(0.00062566 -1.01887e-05 -1.02625e-06)
(-3.69621e-06 0.000737781 -3.39688e-07)
(-4.41216e-07 -8.98699e-08 0.000736193)
(4.53163e-07 9.23836e-08 -0.000735668)
(0.000625955 -1.45861e-05 -1.49066e-06)
(-3.59429e-06 0.000734578 -5.6762e-07)
(-4.50366e-07 -1.46197e-07 0.000733588)
(4.62821e-07 1.50344e-07 -0.000733074)
(0.000626233 -1.86047e-05 -1.95111e-06)
(-3.66482e-06 0.000732188 -8.13495e-07)
(-4.89135e-07 -2.00421e-07 0.000731735)
(5.02862e-07 2.06224e-07 -0.000731205)
(0.000626495 -2.23328e-05 -2.43006e-06)
(-3.88625e-06 0.000730478 -1.09597e-06)
(-5.56295e-07 -2.53572e-07 0.000730507)
(5.71952e-07 2.61089e-07 -0.000729939)
(0.000626735 -2.58525e-05 -2.94476e-06)
(-4.247e-06 0.000729345 -1.43384e-06)
(-6.52404e-07 -3.05421e-07 0.000729802)
(6.70654e-07 3.14745e-07 -0.000729177)
(0.000626941 -2.92451e-05 -3.50659e-06)
(-4.74226e-06 0.000728707 -1.84736e-06)
(-7.79238e-07 -3.53989e-07 0.000729522)
(8.00665e-07 3.65211e-07 -0.00072883)
(0.00062709 -3.2599e-05 -4.12373e-06)
(-5.36972e-06 0.000728484 -2.36033e-06)
(-9.38593e-07 -3.94571e-07 0.000729561)
(9.63553e-07 4.07647e-07 -0.000728794)
(0.000627148 -3.60285e-05 -4.79557e-06)
(-6.12716e-06 0.000728596 -3.00235e-06)
(-1.13106e-06 -4.18157e-07 0.000729786)
(1.15979e-06 4.32775e-07 -0.000728947)
(0.000627071 -3.96995e-05 -5.50784e-06)
(-7.01063e-06 0.000728956 -3.8126e-06)
(-1.3544e-06 -4.09487e-07 0.000730023)
(1.38683e-06 4.24916e-07 -0.000729133)
(0.000626812 -4.38612e-05 -6.22603e-06)
(-8.00648e-06 0.000729447 -4.84771e-06)
(-1.59886e-06 -3.45186e-07 0.000730045)
(1.63434e-06 3.5994e-07 -0.000729146)
(0.000626343 -4.88731e-05 -6.87352e-06)
(-9.06674e-06 0.000729856 -6.1966e-06)
(-1.83628e-06 -1.92789e-07 0.000729507)
(1.87304e-06 2.04059e-07 -0.000728681)
(0.000625703 -5.51809e-05 -7.30618e-06)
(-1.00538e-05 0.000729734 -8.01379e-06)
(-2.00694e-06 8.44923e-08 0.000727894)
(2.04072e-06 -8.1395e-08 -0.00072727)
(0.000625049 -6.30404e-05 -7.2545e-06)
(-1.05548e-05 0.000728092 -1.0579e-05)
(-1.99812e-06 5.04983e-07 0.000724405)
(2.02283e-06 -5.16905e-07 -0.000724191)
(0.000624584 -7.14226e-05 -6.15176e-06)
(-9.01532e-06 0.000722593 -1.43859e-05)
(-1.6076e-06 1.00147e-06 0.000717636)
(1.63589e-06 -1.04268e-06 -0.00071827)
(-2.21117e-05 0.000722167 -8.1717e-06)
(-1.51695e-06 1.84778e-06 0.000712161)
(3.59218e-06 -2.81205e-06 -0.00071467)
(0.000625186 -4.74356e-06 -5.97762e-07)
(-4.07026e-06 0.000745414 -1.19603e-07)
(-4.98818e-07 -2.33368e-08 0.000743456)
(5.12179e-07 2.40016e-08 -0.000742852)
(0.000625356 -9.09451e-06 -1.15311e-06)
(-3.87917e-06 0.00074213 -3.56149e-07)
(-4.87184e-07 -6.83872e-08 0.000740569)
(5.00446e-07 7.03533e-08 -0.000739997)
(0.000625504 -1.2991e-05 -1.67367e-06)
(-3.75589e-06 0.000738471 -5.93842e-07)
(-4.93847e-07 -1.09799e-07 0.00073732)
(5.07602e-07 1.1301e-07 -0.000736773)
(0.000625628 -1.65165e-05 -2.18822e-06)
(-3.80355e-06 0.000735709 -8.48507e-07)
(-5.31192e-07 -1.47255e-07 0.000734914)
(5.46252e-07 1.51677e-07 -0.000734365)
(0.00062572 -1.97391e-05 -2.72218e-06)
(-3.99532e-06 0.000733695 -1.13852e-06)
(-5.97071e-07 -1.80414e-07 0.000733202)
(6.14104e-07 1.86033e-07 -0.000732626)
(0.000625766 -2.27194e-05 -3.29533e-06)
(-4.31293e-06 0.000732318 -1.48178e-06)
(-6.90818e-07 -2.07737e-07 0.000732062)
(7.10492e-07 2.14529e-07 -0.000731441)
(0.000625743 -2.5514e-05 -3.92333e-06)
(-4.74239e-06 0.000731493 -1.8967e-06)
(-8.12483e-07 -2.25976e-07 0.000731384)
(8.35303e-07 2.33853e-07 -0.000730707)
(0.000625618 -2.81843e-05 -4.62016e-06)
(-5.27026e-06 0.000731145 -2.40422e-06)
(-9.61295e-07 -2.29592e-07 0.000731057)
(9.8741e-07 2.38326e-07 -0.000730317)
(0.000625342 -3.08115e-05 -5.39235e-06)
(-5.88068e-06 0.000731214 -3.02961e-06)
(-1.13413e-06 -2.10062e-07 0.000730956)
(1.16347e-06 2.19182e-07 -0.000730156)
(0.000624855 -3.35191e-05 -6.2377e-06)
(-6.55537e-06 0.000731655 -3.80584e-06)
(-1.32392e-06 -1.55253e-07 0.000730939)
(1.35591e-06 1.6391e-07 -0.0007301)
(0.000624088 -3.65015e-05 -7.14221e-06)
(-7.27302e-06 0.000732423 -4.78192e-06)
(-1.51554e-06 -4.97876e-08 0.000730835)
(1.54858e-06 5.64379e-08 -0.000729997)
(0.000622993 -4.00726e-05 -8.06481e-06)
(-8.00286e-06 0.000733425 -6.04099e-06)
(-1.67663e-06 1.21627e-07 0.000730396)
(1.70742e-06 -1.19779e-07 -0.000729629)
(0.000621619 -4.47485e-05 -8.91049e-06)
(-8.70186e-06 0.000734417 -7.74568e-06)
(-1.75128e-06 3.64871e-07 0.000729237)
(1.77353e-06 -3.72623e-07 -0.000728659)
(0.000620298 -5.12788e-05 -9.42376e-06)
(-9.23898e-06 0.000734648 -1.02381e-05)
(-1.65246e-06 6.5562e-07 0.000726656)
(1.65797e-06 -6.8127e-07 -0.000726483)
(0.000619814 -5.99037e-05 -8.5567e-06)
(-8.53006e-06 0.000731276 -1.41769e-05)
(-1.24812e-06 9.08561e-07 0.000720542)
(1.24733e-06 -9.66518e-07 -0.000721618)
(-2.25894e-05 0.000745841 -8.13917e-06)
(-8.44789e-07 1.20802e-06 0.000723663)
(1.98771e-06 -1.83679e-06 -0.000730229)
(0.00062503 -4.12314e-06 -6.5123e-07)
(-5.35234e-07 -1.64333e-08 0.000747823)
(5.49634e-07 1.69159e-08 -0.000747171)
(-4.1146e-06 0.000749536 -1.20676e-07)
(0.000625051 -7.89797e-06 -1.25523e-06)
(-5.20859e-07 -4.77323e-08 0.000744383)
(5.35118e-07 4.91547e-08 -0.000743776)
(-3.91446e-06 0.000745904 -3.58912e-07)
(0.000625055 -1.12559e-05 -1.8198e-06)
(-5.24136e-07 -7.51029e-08 0.000740524)
(5.38841e-07 7.73993e-08 -0.000739956)
(-3.77464e-06 0.000741826 -5.97222e-07)
(0.000625033 -1.42533e-05 -2.37541e-06)
(-5.58015e-07 -9.72643e-08 0.000737583)
(5.73999e-07 1.00356e-07 -0.000737025)
(-3.79719e-06 0.000738704 -8.50842e-07)
(0.00062497 -1.69339e-05 -2.9492e-06)
(-6.19512e-07 -1.12824e-07 0.000735386)
(6.37445e-07 1.16634e-07 -0.000734813)
(-3.95089e-06 0.000736372 -1.13711e-06)
(0.000624848 -1.93313e-05 -3.56289e-06)
(-7.06782e-07 -1.19369e-07 0.000733796)
(7.2728e-07 1.23774e-07 -0.000733192)
(-4.21095e-06 0.000734711 -1.4723e-06)
(0.000624637 -2.1471e-05 -4.23559e-06)
(-8.1829e-07 -1.1305e-07 0.000732693)
(8.41753e-07 1.17833e-07 -0.000732044)
(-4.55467e-06 0.000733628 -1.87227e-06)
(0.000624297 -2.33766e-05 -4.98452e-06)
(-9.51332e-07 -8.83284e-08 0.000731959)
(9.77776e-07 9.31964e-08 -0.00073126)
(-4.95698e-06 0.000733046 -2.35397e-06)
(0.000623774 -2.50746e-05 -5.82034e-06)
(-1.10055e-06 -3.79947e-08 0.000731473)
(1.12967e-06 4.2534e-08 -0.00073073)
(-5.38728e-06 0.000732908 -2.9367e-06)
(0.000622996 -2.65985e-05 -6.75007e-06)
(-1.2565e-06 4.66313e-08 0.000731112)
(1.2873e-06 -4.30664e-08 -0.000730344)
(-5.80783e-06 0.000733176 -3.64415e-06)
(0.000621864 -2.79903e-05 -7.77647e-06)
(-1.40272e-06 1.74681e-07 0.000730721)
(1.43301e-06 -1.73011e-07 -0.000729967)
(-6.1708e-06 0.000733813 -4.50975e-06)
(0.000620246 -2.93108e-05 -8.89178e-06)
(-1.50985e-06 3.5169e-07 0.000730053)
(1.53553e-06 -3.52996e-07 -0.000729391)
(-6.41077e-06 0.000734747 -5.58777e-06)
(0.000617959 -3.06841e-05 -1.00669e-05)
(-1.53342e-06 5.72136e-07 0.000728655)
(1.54753e-06 -5.77063e-07 -0.000728247)
(-6.42881e-06 0.000735796 -6.979e-06)
(0.000614716 -3.2458e-05 -1.11756e-05)
(-1.41241e-06 8.08672e-07 0.000725481)
(1.40658e-06 -8.1623e-07 -0.000725729)
(-5.99079e-06 0.00073643 -8.8804e-06)
(0.000610143 -3.63443e-05 -1.13547e-05)
(-1.05692e-06 9.95441e-07 0.00071755)
(1.04142e-06 -1.00604e-06 -0.00071992)
(-3.94149e-06 0.000735173 -1.16275e-05)
(-1.06633e-06 6.67535e-07 0.000748294)
(1.68056e-06 -9.47972e-07 -0.000759925)
(-3.16732e-05 0.000790891 -6.49558e-06)
(0.000625887 -6.99062e-06 -4.83193e-08)
(-8.89758e-07 0.000710112 -2.27435e-08)
(-4.54479e-08 -5.11289e-08 0.000707156)
(0.000626742 -1.34642e-05 -9.34671e-08)
(-8.58011e-07 0.000709588 -6.81268e-08)
(-4.49967e-08 -1.52845e-07 0.000707902)
(0.000627589 -1.93714e-05 -1.36114e-07)
(-8.50577e-07 0.000709015 -1.14635e-07)
(-4.68663e-08 -2.56057e-07 0.000708601)
(0.000628478 -2.48697e-05 -1.78283e-07)
(-8.92176e-07 0.000708598 -1.65574e-07)
(-5.23737e-08 -3.67408e-07 0.000709401)
(0.000629455 -3.00884e-05 -2.21387e-07)
(-9.81761e-07 0.00070831 -2.24917e-07)
(-6.17085e-08 -4.95217e-07 0.000710343)
(0.000630572 -3.51295e-05 -2.6621e-07)
(-1.12227e-06 0.000708121 -2.96803e-07)
(-7.54965e-08 -6.48684e-07 0.000711471)
(0.000631885 -4.00639e-05 -3.12755e-07)
(-1.32046e-06 0.000708 -3.85861e-07)
(-9.48693e-08 -8.38922e-07 0.000712831)
(0.000633463 -4.49223e-05 -3.60049e-07)
(-1.58727e-06 0.000707905 -4.97281e-07)
(-1.21682e-07 -1.08028e-06 0.000714476)
(0.000635386 -4.96791e-05 -4.05755e-07)
(-1.9377e-06 0.000707777 -6.36622e-07)
(-1.58925e-07 -1.39235e-06 0.000716465)
(0.000637755 -5.42291e-05 -4.46842e-07)
(-2.39086e-06 0.000707531 -8.09162e-07)
(-2.11373e-07 -1.80304e-06 0.000718862)
(0.000640688 -5.8362e-05 -4.81997e-07)
(-2.96912e-06 0.00070705 -1.01717e-06)
(-2.86574e-07 -2.3534e-06 0.000721742)
(0.000644312 -6.1749e-05 -5.1697e-07)
(-3.69265e-06 0.00070619 -1.25189e-06)
(-3.95614e-07 -3.10422e-06 0.000725195)
(0.000648732 -6.39866e-05 -5.77763e-07)
(-4.55939e-06 0.000704817 -1.47081e-06)
(-5.50001e-07 -4.14035e-06 0.000729333)
(0.000653886 -6.47943e-05 -7.24725e-07)
(-5.44953e-06 0.000702924 -1.54453e-06)
(-7.38175e-07 -5.54804e-06 0.000734274)
(0.000658927 -6.43692e-05 -1.01732e-06)
(-5.58876e-06 0.000700793 -1.24379e-06)
(-8.229e-07 -7.26293e-06 0.000739784)
(-1.44991e-05 0.000698949 -6.71147e-07)
(-2.10096e-06 -1.03822e-05 0.00075183)
(0.000625839 -6.87233e-06 -1.43978e-07)
(-1.73795e-06 0.000716981 -4.46546e-08)
(-1.34731e-07 -4.93062e-08 0.000714112)
(0.000626647 -1.32335e-05 -2.78512e-07)
(-1.67458e-06 0.000715939 -1.33632e-07)
(-1.33295e-07 -1.47225e-07 0.000714292)
(0.000627444 -1.90343e-05 -4.0562e-07)
(-1.65741e-06 0.000714799 -2.24549e-07)
(-1.38633e-07 -2.46079e-07 0.000714375)
(0.000628275 -2.44292e-05 -5.31359e-07)
(-1.73436e-06 0.000713969 -3.23844e-07)
(-1.54585e-07 -3.51871e-07 0.00071471)
(0.000629183 -2.95464e-05 -6.59938e-07)
(-1.90265e-06 0.000713394 -4.39114e-07)
(-1.81625e-07 -4.72039e-07 0.000715306)
(0.000630212 -3.4489e-05 -7.93869e-07)
(-2.16665e-06 0.000713021 -5.78253e-07)
(-2.21425e-07 -6.14522e-07 0.000716172)
(0.000631408 -3.93338e-05 -9.33403e-07)
(-2.53789e-06 0.00071279 -7.49953e-07)
(-2.76996e-07 -7.88433e-07 0.000717316)
(0.000632828 -4.41248e-05 -1.0757e-06)
(-3.03465e-06 0.000712625 -9.63691e-07)
(-3.53181e-07 -1.00476e-06 0.000718741)
(0.000634531 -4.88603e-05 -1.21393e-06)
(-3.6813e-06 0.000712419 -1.2294e-06)
(-4.57563e-07 -1.27711e-06 0.000720432)
(0.000636586 -5.34726e-05 -1.33833e-06)
(-4.50648e-06 0.000712018 -1.55562e-06)
(-6.01772e-07 -1.6225e-06 0.000722353)
(0.000639053 -5.78027e-05 -1.44218e-06)
(-5.53634e-06 0.000711208 -1.94384e-06)
(-8.02981e-07 -2.06141e-06 0.000724434)
(0.000641953 -6.15698e-05 -1.53417e-06)
(-6.77317e-06 0.000709713 -2.37228e-06)
(-1.08318e-06 -2.61497e-06 0.000726571)
(0.000645175 -6.43542e-05 -1.67043e-06)
(-8.13457e-06 0.000707244 -2.75332e-06)
(-1.45633e-06 -3.29386e-06 0.000728643)
(0.000648277 -6.5678e-05 -1.99194e-06)
(-9.26191e-06 0.000703715 -2.8448e-06)
(-1.86408e-06 -4.06803e-06 0.000730612)
(0.000650249 -6.53573e-05 -2.65375e-06)
(-8.79868e-06 0.000699709 -2.26095e-06)
(-1.95288e-06 -4.81753e-06 0.000732548)
(-1.29949e-05 0.000689997 -9.38613e-08)
(-3.62861e-06 -4.35173e-06 0.000730564)
(0.000625755 -6.64798e-06 -2.36497e-07)
(-2.50751e-06 0.000723626 -6.46503e-08)
(-2.19331e-07 -4.58169e-08 0.000720873)
(0.000626478 -1.27947e-05 -4.57301e-07)
(-2.4128e-06 0.000722077 -1.9324e-07)
(-2.16686e-07 -1.36555e-07 0.000720452)
(0.000627187 -1.83894e-05 -6.65949e-07)
(-2.38166e-06 0.000720378 -3.24179e-07)
(-2.24707e-07 -2.27363e-07 0.000719883)
(0.000627918 -2.35827e-05 -8.72438e-07)
(-2.4828e-06 0.00071914 -4.66593e-07)
(-2.49477e-07 -3.23136e-07 0.000719709)
(0.000628705 -2.85008e-05 -1.08381e-06)
(-2.71036e-06 0.000718283 -6.31074e-07)
(-2.91517e-07 -4.29853e-07 0.000719905)
(0.000629581 -3.32484e-05 -1.3047e-06)
(-3.06778e-06 0.00071773 -8.28547e-07)
(-3.53031e-07 -5.53467e-07 0.000720446)
(0.000630578 -3.79121e-05 -1.53604e-06)
(-3.56786e-06 0.000717405 -1.07072e-06)
(-4.37948e-07 -7.00071e-07 0.000721301)
(0.000631731 -4.2558e-05 -1.77345e-06)
(-4.2308e-06 0.000717209 -1.36998e-06)
(-5.52346e-07 -8.75761e-07 0.000722423)
(0.000633072 -4.7226e-05 -2.00632e-06)
(-5.08278e-06 0.000717009 -1.7388e-06)
(-7.05185e-07 -1.08599e-06 0.000723735)
(0.000634627 -5.1918e-05 -2.21779e-06)
(-6.15093e-06 0.000716612 -2.18675e-06)
(-9.08996e-07 -1.33383e-06 0.000725105)
(0.000636399 -5.65736e-05 -2.38938e-06)
(-7.44826e-06 0.000715743 -2.71212e-06)
(-1.1793e-06 -1.61577e-06 0.00072633)
(0.000638322 -6.10333e-05 -2.51476e-06)
(-8.93586e-06 0.000714031 -3.27895e-06)
(-1.5287e-06 -1.91309e-06 0.000727116)
(0.000640184 -6.49745e-05 -2.63552e-06)
(-1.04303e-05 0.000711038 -3.76078e-06)
(-1.94325e-06 -2.17813e-06 0.000727107)
(0.000641501 -6.7886e-05 -2.89497e-06)
(-1.13804e-05 0.000706541 -3.83393e-06)
(-2.30196e-06 -2.32619e-06 0.000726103)
(0.000641646 -6.92692e-05 -3.51121e-06)
(-1.02136e-05 0.00070121 -3.0186e-06)
(-2.18005e-06 -2.2928e-06 0.000724582)
(-1.45051e-05 0.000692318 -3.99978e-08)
(-2.66562e-06 -1.71291e-06 0.000719469)
(0.000625638 -6.31647e-06 -3.23625e-07)
(-3.16601e-06 0.00072994 -8.1819e-08)
(-2.96611e-07 -4.0967e-08 0.000727334)
(0.000626247 -1.21458e-05 -6.25205e-07)
(-3.04086e-06 0.000727898 -2.44235e-07)
(-2.9241e-07 -1.21756e-07 0.000726287)
(0.000626835 -1.74382e-05 -9.09978e-07)
(-2.99127e-06 0.000725657 -4.08881e-07)
(-3.01907e-07 -2.01529e-07 0.000725039)
(0.000627432 -2.23363e-05 -1.19177e-06)
(-3.10292e-06 0.000724019 -5.86947e-07)
(-3.33107e-07 -2.83852e-07 0.000724324)
(0.00062806 -2.69598e-05 -1.48075e-06)
(-3.36515e-06 0.000722881 -7.91389e-07)
(-3.8627e-07 -3.73029e-07 0.00072408)
(0.000628737 -3.14126e-05 -1.78414e-06)
(-3.77838e-06 0.00072215 -1.03521e-06)
(-4.63472e-07 -4.7276e-07 0.000724248)
(0.00062948 -3.57891e-05 -2.10369e-06)
(-4.35252e-06 0.00072174 -1.33183e-06)
(-5.68452e-07 -5.85904e-07 0.000724766)
(0.000630299 -4.01794e-05 -2.43436e-06)
(-5.10489e-06 0.000721549 -1.69509e-06)
(-7.0668e-07 -7.1383e-07 0.000725551)
(0.0006312 -4.46704e-05 -2.7633e-06)
(-6.05699e-06 0.000721441 -2.1382e-06)
(-8.85298e-07 -8.54874e-07 0.000726479)
(0.000632172 -4.9346e-05 -3.06791e-06)
(-7.2275e-06 0.00072122 -2.67042e-06)
(-1.11248e-06 -1.00139e-06 0.000727359)
(0.000633182 -5.42772e-05 -3.31428e-06)
(-8.6139e-06 0.000720604 -3.28676e-06)
(-1.39393e-06 -1.13472e-06 0.000727906)
(0.000634144 -5.94805e-05 -3.46631e-06)
(-1.01449e-05 0.000719177 -3.94122e-06)
(-1.72274e-06 -1.21818e-06 0.000727711)
(0.000634882 -6.48272e-05 -3.51334e-06)
(-1.15788e-05 0.000716387 -4.48327e-06)
(-2.05283e-06 -1.19292e-06 0.000726257)
(0.000635102 -6.98656e-05 -3.53506e-06)
(-1.22919e-05 0.00071174 -4.54118e-06)
(-2.23342e-06 -9.98382e-07 0.000723201)
(0.000634613 -7.36391e-05 -3.78918e-06)
(-1.07244e-05 0.00070545 -3.57588e-06)
(-1.90494e-06 -6.69628e-07 0.000719138)
(-1.44113e-05 0.000697826 -1.66849e-07)
(-1.92462e-06 -4.54001e-08 0.000712908)
(0.000625498 -5.88647e-06 -4.02695e-07)
(-3.68829e-06 0.000735824 -9.53651e-08)
(-3.64495e-07 -3.50761e-08 0.000733395)
(0.000625968 -1.13101e-05 -7.77904e-07)
(-3.53534e-06 0.000733314 -2.84389e-07)
(-3.58322e-07 -1.03843e-07 0.000731712)
(0.000626415 -1.62195e-05 -1.13153e-06)
(-3.46403e-06 0.000730554 -4.75148e-07)
(-3.67893e-07 -1.70532e-07 0.000729777)
(0.000626856 -2.07421e-05 -1.48103e-06)
(-3.57217e-06 0.000728525 -6.80154e-07)
(-4.02815e-07 -2.37361e-07 0.000728503)
(0.000627302 -2.49856e-05 -1.84021e-06)
(-3.84355e-06 0.000727103 -9.13919e-07)
(-4.62752e-07 -3.06923e-07 0.000727791)
(0.000627758 -2.90476e-05 -2.21875e-06)
(-4.27333e-06 0.000726186 -1.19053e-06)
(-5.49059e-07 -3.80766e-07 0.000727555)
(0.000628222 -3.30237e-05 -2.61943e-06)
(-4.86557e-06 0.000725685 -1.52385e-06)
(-6.64468e-07 -4.59032e-07 0.000727708)
(0.000628686 -3.70158e-05 -3.03816e-06)
(-5.6303e-06 0.000725505 -1.92766e-06)
(-8.12575e-07 -5.39617e-07 0.000728146)
(0.000629128 -4.11424e-05 -3.46231e-06)
(-6.57966e-06 0.000725526 -2.41481e-06)
(-9.96837e-07 -6.16456e-07 0.000728726)
(0.000629514 -4.55534e-05 -3.86629e-06)
(-7.72247e-06 0.000725591 -2.99358e-06)
(-1.21885e-06 -6.76948e-07 0.00072924)
(0.000629796 -5.04441e-05 -4.20361e-06)
(-9.04772e-06 0.000725464 -3.65719e-06)
(-1.47313e-06 -6.98821e-07 0.000729389)
(0.000629907 -5.60272e-05 -4.40368e-06)
(-1.04792e-05 0.000724762 -4.35663e-06)
(-1.73561e-06 -6.47405e-07 0.000728734)
(0.000629771 -6.24298e-05 -4.38393e-06)
(-1.17796e-05 0.000722872 -4.93514e-06)
(-1.94223e-06 -4.79729e-07 0.000726682)
(0.000629302 -6.93441e-05 -4.11195e-06)
(-1.23389e-05 0.000718911 -5.003e-06)
(-1.95097e-06 -1.73495e-07 0.000722644)
(0.000628519 -7.52992e-05 -3.84214e-06)
(-1.06296e-05 0.00071196 -3.98168e-06)
(-1.51544e-06 1.94877e-07 0.000716621)