/*--------------------------------*- C++ -*----------------------------------*\
| =========                 |                                                 |
| \\      /  F ield         | foam-extend: Open Source CFD                    |
|  \\    /   O peration     | Version:     3.1                                |
|   \\  /    A nd           | Web:         http://www.extend-project.de       |
|    \\/     M anipulation  |                                                 |
\*---------------------------------------------------------------------------*/
FoamFile
{
    version     2.0;
    format      ascii;
    class       volVectorField;
    location    "0.8";
    object      U;
}
// * * * * * * * * * * * * * * * * * * * * * * * * * * * * * * * * * * * * * //

dimensions      [0 1 -1 0 0 0 0];

internalField   nonuniform List<vector> 
14592
(
(0.021466 -0.00475687 -0.00944838)
(0.0274029 -0.00426675 -0.0142829)
(0.0337831 -0.00269653 -0.0144766)
(0.0382638 -0.00154789 -0.0132482)
(0.0408434 -0.000817234 -0.011789)
(0.0421953 -0.000375118 -0.0105451)
(0.0427743 -0.000101837 -0.00968646)
(0.0428448 7.99083e-05 -0.00929133)
(0.0425449 0.000222978 -0.00942085)
(0.0419326 0.000342298 -0.0101648)
(0.0410162 0.000444745 -0.0116737)
(0.0397508 0.000522782 -0.0142133)
(0.0380097 0.000546679 -0.0182644)
(0.0353266 0.000492013 -0.0246623)
(0.0301697 0.000547849 -0.0342483)
(0.0205396 0.00116744 -0.0385329)
(0.0498177 -0.00908616 -0.0125413)
(0.055316 -0.0116676 -0.0226606)
(0.0619486 -0.00906044 -0.024405)
(0.0674228 -0.00597375 -0.0228275)
(0.0709402 -0.00354774 -0.020388)
(0.0728838 -0.00187548 -0.0181191)
(0.0737184 -0.000759482 -0.0164233)
(0.0737768 1.39537e-05 -0.0154681)
(0.0732381 0.000609615 -0.0153549)
(0.0721672 0.00112168 -0.01622)
(0.070549 0.00161666 -0.0182835)
(0.0682525 0.00213669 -0.021936)
(0.0649658 0.00270783 -0.0278874)
(0.0598122 0.00337415 -0.0373569)
(0.0501521 0.00427973 -0.0513332)
(0.0319162 0.00462288 -0.0543284)
(0.0736707 -0.0114244 -0.0122145)
(0.0751342 -0.0173359 -0.0245842)
(0.0776323 -0.0147443 -0.0275351)
(0.080433 -0.0103009 -0.0260856)
(0.08252 -0.00635904 -0.0232967)
(0.0836792 -0.00343911 -0.020579)
(0.0840542 -0.00139281 -0.0184885)
(0.0838189 8.60507e-05 -0.017236)
(0.0830584 0.00123881 -0.0169286)
(0.0817816 0.00226637 -0.0177038)
(0.0799339 0.00330725 -0.0197877)
(0.0773348 0.00447132 -0.0235905)
(0.07361 0.00586752 -0.0298649)
(0.0678067 0.00762832 -0.0399045)
(0.0570887 0.00971866 -0.0547037)
(0.0367381 0.00950536 -0.0571604)
(0.094444 -0.0110773 -0.0117081)
(0.0923473 -0.0188394 -0.025239)
(0.0902831 -0.0170539 -0.0289736)
(0.0893861 -0.0123636 -0.0275941)
(0.0891142 -0.00777487 -0.0245272)
(0.088842 -0.00417676 -0.0214714)
(0.0883743 -0.00154608 -0.0190946)
(0.0876496 0.000430607 -0.017618)
(0.0866236 0.00202909 -0.017148)
(0.0852378 0.00351386 -0.0177879)
(0.0833724 0.00507838 -0.0197469)
(0.0808169 0.00689081 -0.0234208)
(0.0771845 0.00912591 -0.0295479)
(0.0715346 0.0119607 -0.0394005)
(0.0610572 0.01512 -0.0539513)
(0.0411371 0.0140977 -0.0565802)
(0.111582 -0.00921466 -0.0114279)
(0.107079 -0.0169736 -0.0257747)
(0.101363 -0.0160337 -0.0300643)
(0.0970447 -0.0118705 -0.0286771)
(0.0943747 -0.00745996 -0.025317)
(0.0925691 -0.00383166 -0.0219277)
(0.0911766 -0.00106566 -0.0192736)
(0.0899365 0.00109837 -0.0175815)
(0.0886733 0.00295279 -0.0169225)
(0.0872537 0.00476027 -0.0173735)
(0.0855065 0.00674537 -0.0191098)
(0.0831993 0.00911994 -0.02249)
(0.0799396 0.01211 -0.0282061)
(0.0747902 0.0159215 -0.0374698)
(0.0649406 0.0200733 -0.0512584)
(0.04605 0.0183797 -0.0542793)
(0.124638 -0.00667854 -0.0113119)
(0.118642 -0.0129527 -0.0262754)
(0.110372 -0.0125225 -0.0309637)
(0.103403 -0.0092784 -0.0295322)
(0.0987549 -0.00563541 -0.0258954)
(0.0956505 -0.00250789 -0.0221949)
(0.0934734 2.96102e-06 -0.0192737)
(0.091823 0.00206106 -0.0173592)
(0.0904215 0.0039555 -0.016489)
(0.0890723 0.00592345 -0.0167011)
(0.0875771 0.00819449 -0.0181258)
(0.0856972 0.0110126 -0.0210654)
(0.0830416 0.0146639 -0.0261349)
(0.0786641 0.0194336 -0.0344509)
(0.0696841 0.0247953 -0.0470418)
(0.0518848 0.0230618 -0.0505041)
(0.133405 -0.00384347 -0.0112809)
(0.126544 -0.00762833 -0.0266605)
(0.116692 -0.00733471 -0.0315932)
(0.10798 -0.00519078 -0.030097)
(0.101991 -0.00270211 -0.0262328)
(0.0980183 -0.000456391 -0.0222797)
(0.0953266 0.00145729 -0.0191292)
(0.0934435 0.00317848 -0.0170076)
(0.0920554 0.00492349 -0.0159168)
(0.0909091 0.00688802 -0.0158525)
(0.0898092 0.00928832 -0.0168908)
(0.0885462 0.0123933 -0.0192555)
(0.0867726 0.0165792 -0.0234394)
(0.0835844 0.0223526 -0.0303959)
(0.0761052 0.0296302 -0.0412014)
(0.0595183 0.0298393 -0.0448353)
(0.137791 -0.000847469 -0.0112855)
(0.130521 -0.00160432 -0.0268611)
(0.119925 -0.00121565 -0.0318726)
(0.1104 -0.000266133 -0.0302954)
(0.103809 0.000832223 -0.026273)
(0.0994588 0.00193974 -0.022147)
(0.0965999 0.00304981 -0.0188376)
(0.094744 0.00427665 -0.0165453)
(0.0935287 0.00572625 -0.0152432)
(0.0927113 0.00753471 -0.0148866)
(0.0921357 0.00988385 -0.0154907)
(0.0916769 0.0130426 -0.017178)
(0.0911489 0.0174671 -0.0202575)
(0.0899717 0.0240086 -0.0253692)
(0.0861001 0.0340825 -0.0334107)
(0.0726981 0.0412055 -0.0360153)
(0.0227983 -0.00512227 -0.00873671)
(0.0288853 -0.00463575 -0.0133073)
(0.0353435 -0.00294506 -0.013593)
(0.0397485 -0.00169487 -0.0125303)
(0.0421041 -0.000894849 -0.0112225)
(0.0431369 -0.000410028 -0.0100946)
(0.0433383 -0.000110615 -0.00931492)
(0.0429838 8.88682e-05 -0.00896295)
(0.0421974 0.000249366 -0.00909803)
(0.0409998 0.000386554 -0.00979937)
(0.0393329 0.000510787 -0.0111871)
(0.0370386 0.000619439 -0.0134493)
(0.03381 0.000694431 -0.0168603)
(0.0288658 0.000750429 -0.0216828)
(0.0206448 0.000881279 -0.0272123)
(0.0109677 0.000586877 -0.0254904)
(0.0531231 -0.0096473 -0.0113944)
(0.0585585 -0.0125805 -0.0209017)
(0.0650199 -0.00985476 -0.0227521)
(0.0702011 -0.0065303 -0.0214646)
(0.073283 -0.00388642 -0.0193064)
(0.074678 -0.00205293 -0.0172589)
(0.0748852 -0.000825358 -0.0157185)
(0.0742494 2.9233e-05 -0.0148559)
(0.072927 0.000695975 -0.0147722)
(0.0709258 0.00128203 -0.0155896)
(0.0681321 0.00186852 -0.017485)
(0.0642474 0.00251541 -0.0207337)
(0.0587084 0.00327481 -0.0257317)
(0.0502029 0.00423757 -0.0327919)
(0.036135 0.00541146 -0.0404421)
(0.0192174 0.00500087 -0.0357541)
(0.0787593 -0.0120187 -0.0109224)
(0.0798932 -0.0185977 -0.0224715)
(0.0818519 -0.015993 -0.0255281)
(0.0840315 -0.0112481 -0.0244397)
(0.0854529 -0.00696739 -0.0220036)
(0.0859005 -0.00376814 -0.0195613)
(0.085524 -0.00151356 -0.0176633)
(0.0844926 0.000127971 -0.016527)
(0.0828568 0.00141984 -0.0162638)
(0.080559 0.00259786 -0.0169963)
(0.0774364 0.00382825 -0.0189046)
(0.0731288 0.00525493 -0.0222738)
(0.0669987 0.00702983 -0.0275128)
(0.0576338 0.0093211 -0.0349186)
(0.0422098 0.0118936 -0.0427998)
(0.0236539 0.0110662 -0.0372915)
(0.101099 -0.0115786 -0.0103366)
(0.0985263 -0.0201265 -0.0228935)
(0.0956182 -0.0184515 -0.0267389)
(0.0937523 -0.013484 -0.0257844)
(0.0925518 -0.0085171 -0.0231295)
(0.0913957 -0.00457858 -0.020389)
(0.090071 -0.00167828 -0.0182294)
(0.0884837 0.000518407 -0.0168855)
(0.0865448 0.00231819 -0.0164683)
(0.0841273 0.00402679 -0.0170715)
(0.0809918 0.00587869 -0.0188592)
(0.0767474 0.00809318 -0.0221016)
(0.070745 0.0109081 -0.0271919)
(0.0615892 0.0145388 -0.0344077)
(0.0464442 0.0184536 -0.0420605)
(0.0281985 0.0169461 -0.0366426)
(0.119515 -0.00959188 -0.00999462)
(0.11448 -0.0180802 -0.0232383)
(0.107723 -0.0173165 -0.0276426)
(0.102144 -0.0129363 -0.0267399)
(0.0982968 -0.00817356 -0.023847)
(0.0954393 -0.00420389 -0.020809)
(0.0930883 -0.00115074 -0.0183932)
(0.0909375 0.00125809 -0.0168463)
(0.0887524 0.00335648 -0.0162501)
(0.0863214 0.00544626 -0.0166743)
(0.0833567 0.00780388 -0.0182529)
(0.0794496 0.010709 -0.0212254)
(0.0739515 0.0144739 -0.0259549)
(0.0654861 0.0193593 -0.0327032)
(0.0511479 0.0245817 -0.0398913)
(0.0335702 0.0224662 -0.0348512)
(0.133535 -0.00693559 -0.00982933)
(0.12699 -0.0137743 -0.023585)
(0.117566 -0.0135136 -0.0283888)
(0.109124 -0.0101132 -0.0274916)
(0.103101 -0.00618309 -0.0243696)
(0.0988073 -0.00275992 -0.021052)
(0.0955926 1.71468e-05 -0.0183875)
(0.0930005 0.00231973 -0.0166307)
(0.0906874 0.00447405 -0.0158339)
(0.0883751 0.00676195 -0.0160325)
(0.0857546 0.00947189 -0.0173217)
(0.0824225 0.0129313 -0.0198972)
(0.0777478 0.0175421 -0.0240746)
(0.0703731 0.0236836 -0.0300984)
(0.0571955 0.0305269 -0.0365802)
(0.0401671 0.0285537 -0.0320247)
(0.142943 -0.00398958 -0.00976279)
(0.135532 -0.00811277 -0.0238616)
(0.124464 -0.00792399 -0.0289104)
(0.114147 -0.00567429 -0.0279847)
(0.10665 -0.0029854 -0.0246707)
(0.101399 -0.000520303 -0.0211241)
(0.0976242 0.00160412 -0.0182457)
(0.0947932 0.00354226 -0.0162917)
(0.0925266 0.00554179 -0.0152851)
(0.0904921 0.00784195 -0.0152236)
(0.088397 0.0107222 -0.0161562)
(0.0858917 0.01455 -0.0182186)
(0.082424 0.0198571 -0.0216509)
(0.0767483 0.0273285 -0.0266557)
(0.0656349 0.0366984 -0.0320946)
(0.0490913 0.0372925 -0.0279251)
(0.14765 -0.000883647 -0.00974675)
(0.139827 -0.00172355 -0.0240068)
(0.127987 -0.00134346 -0.0291382)
(0.116795 -0.000332334 -0.0281522)
(0.10864 0.00086538 -0.024699)
(0.102975 0.00209274 -0.0209927)
(0.0990252 0.00333913 -0.0179636)
(0.096246 0.00473669 -0.0158466)
(0.0942077 0.00641575 -0.0146391)
(0.0925995 0.0085507 -0.014303)
(0.0911911 0.0113851 -0.0148367)
(0.0897611 0.0152939 -0.0162995)
(0.0879926 0.0209235 -0.0188172)
(0.085133 0.0294364 -0.0224847)
(0.078952 0.04244 -0.026444)
(0.064546 0.0511713 -0.0222479)
(0.0239377 -0.00543766 -0.00778683)
(0.0301629 -0.00496262 -0.0119314)
(0.0367042 -0.00317094 -0.0122642)
(0.0410584 -0.00183173 -0.0113727)
(0.0432258 -0.000969147 -0.0102395)
(0.0439784 -0.000445078 -0.00925125)
(0.0438419 -0.000121352 -0.00856453)
(0.0431048 9.49059e-05 -0.00825313)
(0.0418847 0.000271851 -0.00836728)
(0.0401809 0.000426587 -0.00896577)
(0.0379035 0.000573501 -0.0101256)
(0.0348576 0.000716225 -0.0119461)
(0.0307167 0.000849086 -0.0145254)
(0.024791 0.000998327 -0.0178145)
(0.0161841 0.00115307 -0.0207743)
(0.00761446 0.000658854 -0.0173757)
(0.0559591 -0.0101206 -0.010006)
(0.0613579 -0.0133764 -0.0185808)
(0.0676975 -0.0105631 -0.0204028)
(0.0726479 -0.00703524 -0.0193843)
(0.0753635 -0.00419821 -0.0175363)
(0.07628 -0.00221881 -0.0157504)
(0.0759286 -0.000888787 -0.0143955)
(0.0746699 4.16223e-05 -0.0136319)
(0.0726484 0.000773777 -0.0135486)
(0.0698394 0.00142841 -0.0142388)
(0.0660819 0.00209931 -0.015817)
(0.0610237 0.00286067 -0.0184284)
(0.0540816 0.00378162 -0.0222063)
(0.0440947 0.00495226 -0.0270074)
(0.0295603 0.00619914 -0.0309553)
(0.0145856 0.00549134 -0.0243548)
(0.0831307 -0.0125113 -0.00946409)
(0.0840099 -0.0196868 -0.0198223)
(0.0855378 -0.0170969 -0.0227829)
(0.0872048 -0.0121002 -0.0220022)
(0.0880593 -0.00752186 -0.0199416)
(0.0878854 -0.00407121 -0.0178199)
(0.086841 -0.00162638 -0.0161522)
(0.0850953 0.000164438 -0.0151452)
(0.0826786 0.00158552 -0.0149014)
(0.0794949 0.00290134 -0.0155122)
(0.075328 0.00430087 -0.0170923)
(0.0697607 0.00595079 -0.0197879)
(0.0621372 0.0080207 -0.0237268)
(0.0512024 0.0106516 -0.0287217)
(0.0353065 0.0133545 -0.0326765)
(0.0189 0.0120662 -0.0252136)
(0.106816 -0.0119887 -0.00886099)
(0.103876 -0.0212281 -0.0200626)
(0.100288 -0.0196788 -0.0237692)
(0.0976117 -0.0144858 -0.0231592)
(0.0956133 -0.00918934 -0.0209333)
(0.0936819 -0.00494547 -0.0185579)
(0.0915936 -0.00179915 -0.0166603)
(0.0892333 0.000599265 -0.0154696)
(0.0864813 0.00258514 -0.0150854)
(0.0831678 0.00449729 -0.0155783)
(0.0789929 0.00660239 -0.0170479)
(0.0735075 0.00915194 -0.0196265)
(0.0660434 0.0124064 -0.0234272)
(0.0553528 0.0165395 -0.028246)
(0.0397275 0.0207057 -0.0320003)
(0.0235738 0.01862 -0.024606)
(0.126328 -0.00989744 -0.00850045)
(0.120889 -0.0190213 -0.0202598)
(0.113296 -0.0184371 -0.0244937)
(0.10666 -0.0138846 -0.0239734)
(0.101798 -0.00881641 -0.0215613)
(0.0980148 -0.00454093 -0.01893)
(0.094809 -0.00122548 -0.016805)
(0.0918408 0.0014093 -0.015431)
(0.0888332 0.00373131 -0.014886)
(0.0855232 0.00607635 -0.0152188)
(0.0815619 0.00876029 -0.0165044)
(0.0764816 0.0121052 -0.0188521)
(0.0696126 0.0164567 -0.0223563)
(0.0597085 0.0220348 -0.0268133)
(0.0448789 0.0276981 -0.0302572)
(0.0292229 0.0249392 -0.023252)
(0.141172 -0.00714203 -0.00831466)
(0.134215 -0.0144689 -0.020484)
(0.123871 -0.0143748 -0.0250929)
(0.114198 -0.0108521 -0.0246115)
(0.106986 -0.00667317 -0.0220164)
(0.101646 -0.00298492 -0.019143)
(0.0975046 3.53001e-05 -0.0167961)
(0.0940663 0.00256339 -0.015233)
(0.0909385 0.00495616 -0.0145077)
(0.0877872 0.00753273 -0.0146406)
(0.0842435 0.010626 -0.0156762)
(0.0798477 0.0146163 -0.017693)
(0.0739479 0.0199563 -0.0207605)
(0.0652952 0.0270044 -0.0246853)
(0.0516282 0.0345634 -0.0276907)
(0.0362651 0.0319911 -0.0212076)
(0.15113 -0.00410529 -0.00823048)
(0.143308 -0.00851878 -0.0206729)
(0.131277 -0.00843195 -0.0255113)
(0.119619 -0.00609813 -0.0250275)
(0.11082 -0.00323464 -0.0222755)
(0.104443 -0.000571963 -0.0192023)
(0.0997011 0.00174564 -0.0166645)
(0.096018 0.00388426 -0.0149231)
(0.0929645 0.0061173 -0.0140097)
(0.0901532 0.00871966 -0.0139136)
(0.0872377 0.012018 -0.0146446)
(0.0838215 0.016443 -0.0162412)
(0.0793407 0.0226011 -0.0187345)
(0.0726501 0.031202 -0.02194)
(0.0611425 0.0416603 -0.0243345)
(0.0459143 0.0419203 -0.0183692)
(0.156111 -0.000909808 -0.00820306)
(0.147878 -0.00181818 -0.0207731)
(0.135056 -0.00144737 -0.0256907)
(0.122474 -0.0003834 -0.0251639)
(0.112967 0.000903257 -0.0222938)
(0.106145 0.00224032 -0.0190793)
(0.101221 0.00361318 -0.0164051)
(0.0976112 0.00516882 -0.0145164)
(0.0948342 0.0070583 -0.0134235)
(0.0925306 0.00948683 -0.0130873)
(0.0904292 0.0127434 -0.0134805)
(0.0882815 0.0172708 -0.0145931)
(0.0857833 0.0238115 -0.0163992)
(0.0823125 0.0336238 -0.0187065)
(0.0761274 0.0481471 -0.0203357)
(0.0624565 0.0568874 -0.0147631)
(0.0248848 -0.00570166 -0.0066382)
(0.0312307 -0.00524188 -0.0102185)
(0.0378517 -0.00336789 -0.0105559)
(0.0421733 -0.00195338 -0.0098351)
(0.0441877 -0.00103662 -0.00889206)
(0.0447042 -0.000478036 -0.00806102)
(0.0442793 -0.00013272 -0.00747907)
(0.0432164 9.85493e-05 -0.00720951)
(0.041633 0.000290263 -0.00729082)
(0.0395211 0.000460998 -0.00776122)
(0.0367832 0.000628693 -0.00866125)
(0.0332281 0.000801863 -0.010028)
(0.0285679 0.000982479 -0.0118634)
(0.0222687 0.00119654 -0.0140132)
(0.0139051 0.00137437 -0.0155666)
(0.00621463 0.000845647 -0.0123126)
(0.0583236 -0.0105089 -0.00842669)
(0.0637021 -0.0140474 -0.0158009)
(0.0699557 -0.0111712 -0.0174719)
(0.074728 -0.00747498 -0.0166939)
(0.0771447 -0.00447301 -0.0151721)
(0.0776595 -0.00236683 -0.0136767)
(0.076833 -0.000946827 -0.0125315)
(0.0750436 5.07275e-05 -0.0118766)
(0.0724349 0.000840288 -0.0117834)
(0.0689701 0.0015547 -0.0123149)
(0.064477 0.00229783 -0.0135326)
(0.0586104 0.0031535 -0.01549)
(0.0508516 0.00419902 -0.0181784)
(0.0402881 0.00550975 -0.0213095)
(0.0261716 0.00679643 -0.0232731)
(0.0126552 0.00593359 -0.0172942)
(0.0867789 -0.0129091 -0.00788345)
(0.0874633 -0.0205967 -0.0167489)
(0.0886523 -0.0180377 -0.019432)
(0.0899059 -0.012837 -0.0188988)
(0.0902922 -0.0080066 -0.0172208)
(0.0895952 -0.00433862 -0.015451)
(0.0879826 -0.00172737 -0.0140437)
(0.0856283 0.00019446 -0.0131817)
(0.0825549 0.00172885 -0.0129506)
(0.0786513 0.00316343 -0.0134106)
(0.0736866 0.00470442 -0.014621)
(0.0672511 0.00653243 -0.0166314)
(0.0587602 0.00882158 -0.0194202)
(0.0472205 0.0116757 -0.022651)
(0.0317865 0.0144332 -0.0245306)
(0.01696 0.0128121 -0.0178245)
(0.111587 -0.0123159 -0.00731668)
(0.108368 -0.0221416 -0.0168601)
(0.104241 -0.0207189 -0.0202062)
(0.100904 -0.0153476 -0.0198539)
(0.098241 -0.00977401 -0.0180565)
(0.0956543 -0.00526698 -0.0160794)
(0.0929146 -0.00190579 -0.0144788)
(0.089895 0.000669304 -0.013461)
(0.086459 0.0028177 -0.0131089)
(0.0824165 0.00490406 -0.013467)
(0.0774481 0.00721854 -0.014582)
(0.0711105 0.0100314 -0.0164914)
(0.062805 0.0136065 -0.0191612)
(0.0515331 0.0180644 -0.0222421)
(0.0363559 0.022337 -0.0239541)
(0.0217311 0.0197755 -0.0172952)
(0.132013 -0.010139 -0.00697388)
(0.126268 -0.0197972 -0.0169529)
(0.118017 -0.0193822 -0.0207661)
(0.110519 -0.014697 -0.02052)
(0.104808 -0.00937303 -0.0185827)
(0.100241 -0.00483435 -0.0163947)
(0.0963043 -0.0012898 -0.0146014)
(0.0926375 0.00154309 -0.0134265)
(0.0889362 0.00405933 -0.012937)
(0.0849097 0.00662152 -0.0131598)
(0.0801871 0.00957352 -0.0141222)
(0.0743038 0.0132616 -0.0158447)
(0.0666535 0.0180383 -0.0182824)
(0.0562153 0.0240654 -0.0210921)
(0.0417918 0.02994 -0.0225928)
(0.0275422 0.0266139 -0.0162554)
(0.147543 -0.00730394 -0.00679139)
(0.140279 -0.0150385 -0.0170866)
(0.129214 -0.0150978 -0.0212301)
(0.118537 -0.0114822 -0.0210404)
(0.110332 -0.00709512 -0.0189623)
(0.104102 -0.00317861 -0.0165736)
(0.0991682 5.37861e-05 -0.0145917)
(0.0950051 0.00277938 -0.0132551)
(0.0911883 0.00537885 -0.0126124)
(0.0873509 0.00819998 -0.012668)
(0.0831002 0.0116066 -0.0134267)
(0.0779775 0.0160092 -0.0148887)
(0.0713881 0.0218763 -0.0169971)
(0.0622767 0.0295159 -0.0194281)
(0.0489647 0.0374522 -0.0206565)
(0.0348368 0.0343009 -0.0147599)
(0.157958 -0.00419484 -0.00670412)
(0.149832 -0.00884907 -0.0172086)
(0.137051 -0.00885531 -0.0215538)
(0.124303 -0.00645649 -0.0213775)
(0.114415 -0.00344617 -0.0191762)
(0.10708 -0.000612919 -0.0166207)
(0.10151 0.00187363 -0.0144765)
(0.0970956 0.00418782 -0.0129874)
(0.0933743 0.00662275 -0.0121854)
(0.0899244 0.00948013 -0.0120515)
(0.0863771 0.0131187 -0.0125654)
(0.0823381 0.0180051 -0.0137028)
(0.0772972 0.0247749 -0.01539)
(0.0702743 0.0341109 -0.0173297)
(0.0591058 0.0451678 -0.0182055)
(0.0448932 0.0449811 -0.0127732)
(0.163166 -0.000928034 -0.0066725)
(0.154632 -0.00189109 -0.0172741)
(0.141046 -0.00152919 -0.02169)
(0.127336 -0.000421341 -0.0214843)
(0.116699 0.000941768 -0.0191868)
(0.108893 0.00237466 -0.0165123)
(0.103134 0.00385889 -0.014251)
(0.0988109 0.00555285 -0.012636)
(0.0954046 0.00762371 -0.011683)
(0.0925251 0.0102992 -0.0113519)
(0.0898845 0.0138984 -0.0115972)
(0.0872423 0.0189019 -0.0123665)
(0.0843514 0.0260935 -0.013562)
(0.080744 0.0367439 -0.0149147)
(0.0750325 0.0521148 -0.0153994)
(0.0620101 0.0605671 -0.0103742)
(0.0256409 -0.00591359 -0.00532906)
(0.0320863 -0.00546969 -0.00823149)
(0.0387772 -0.003531 -0.00853633)
(0.0430792 -0.00205556 -0.00798269)
(0.0449744 -0.00109417 -0.0072402)
(0.0453015 -0.000506786 -0.00657979)
(0.0446435 -0.00014333 -0.00611329)
(0.0433184 0.000100586 -0.00589099)
(0.0414485 0.000304782 -0.00593995)
(0.0390265 0.000489026 -0.00628228)
(0.03596 0.000673991 -0.00693432)
(0.0320765 0.000871473 -0.00789904)
(0.0271365 0.00108764 -0.00913957)
(0.02073 0.00134604 -0.0104946)
(0.0126804 0.00154609 -0.0112831)
(0.00556639 0.00100493 -0.00866634)
(0.0602157 -0.0108151 -0.00670034)
(0.065584 -0.0145886 -0.0126576)
(0.0717777 -0.0116687 -0.0140722)
(0.0764167 -0.00783871 -0.0135048)
(0.0785993 -0.00470245 -0.0123172)
(0.0787925 -0.00249162 -0.0111333)
(0.0775824 -0.000996703 -0.0102183)
(0.0753659 5.70513e-05 -0.0096855)
(0.0722921 0.000894113 -0.00958802)
(0.0683248 0.00165742 -0.00996441)
(0.0633 0.0024583 -0.0108403)
(0.0569019 0.00338659 -0.0122187)
(0.048691 0.00452282 -0.0140347)
(0.0379526 0.00592825 -0.016002)
(0.0243346 0.00724611 -0.0169191)
(0.0117666 0.00627836 -0.0122057)
(0.0897005 -0.0132186 -0.00621428)
(0.0902395 -0.0213248 -0.0133486)
(0.0911696 -0.0188027 -0.0156005)
(0.0921012 -0.0134429 -0.0152559)
(0.0921165 -0.00840882 -0.0139593)
(0.0909996 -0.00456222 -0.012563)
(0.0889282 -0.00181297 -0.0114405)
(0.0860833 0.000217601 -0.0107418)
(0.0824885 0.00184558 -0.0105327)
(0.0780324 0.00337651 -0.0108487)
(0.0724897 0.00502897 -0.0117123)
(0.0654826 0.00699178 -0.0131208)
(0.056512 0.00943811 -0.0149953)
(0.0447934 0.0124413 -0.0170082)
(0.0298995 0.0152343 -0.0178213)
(0.016092 0.0133778 -0.0125524)
(0.115409 -0.0125678 -0.00572777)
(0.11198 -0.0228682 -0.0133796)
(0.10744 -0.0215605 -0.016179)
(0.103584 -0.0160536 -0.0160017)
(0.100391 -0.0102573 -0.0146232)
(0.0972761 -0.00553451 -0.0130666)
(0.0940087 -0.00199543 -0.0117909)
(0.0904568 0.000725965 -0.0109678)
(0.0864772 0.00300814 -0.0106609)
(0.0818745 0.00523498 -0.0108946)
(0.0763312 0.00771303 -0.0116814)
(0.0694343 0.010723 -0.0130089)
(0.060668 0.0145249 -0.0147889)
(0.0492328 0.019196 -0.0166845)
(0.0345833 0.0235275 -0.0173683)
(0.0209381 0.020618 -0.0121311)
(0.136564 -0.0103236 -0.0054318)
(0.130594 -0.0204113 -0.0134078)
(0.121841 -0.020144 -0.0165916)
(0.113665 -0.0153601 -0.0165179)
(0.107275 -0.00983145 -0.0150392)
(0.102073 -0.00507732 -0.0133182)
(0.0975435 -0.0013432 -0.0118889)
(0.0933113 0.00165377 -0.0109396)
(0.0890572 0.00432909 -0.0105227)
(0.0844788 0.00706529 -0.0106492)
(0.0792043 0.0102253 -0.0113172)
(0.0727955 0.0141683 -0.0125025)
(0.0647226 0.0192433 -0.0141103)
(0.0541437 0.0255624 -0.0158116)
(0.0402109 0.0315538 -0.0163525)
(0.026857 0.0278015 -0.011356)
(0.152642 -0.00742675 -0.0052713)
(0.145154 -0.0154871 -0.0134799)
(0.133542 -0.0156783 -0.0169342)
(0.122078 -0.0119946 -0.0169199)
(0.113077 -0.00744105 -0.0153382)
(0.106127 -0.0033377 -0.0134601)
(0.100548 7.00431e-05 -0.0118801)
(0.0957962 0.0029589 -0.0108011)
(0.0914286 0.00572711 -0.0102623)
(0.0870607 0.00874333 -0.0102578)
(0.0822959 0.0123918 -0.0107699)
(0.0766983 0.0170988 -0.0117616)
(0.0697416 0.0233332 -0.013133)
(0.0605237 0.0313559 -0.0145743)
(0.0476547 0.0395068 -0.0149458)
(0.0343109 0.0359062 -0.0102816)
(0.163421 -0.00426191 -0.00519229)
(0.155076 -0.00910736 -0.0135539)
(0.141727 -0.00919311 -0.0171731)
(0.128126 -0.00674583 -0.017179)
(0.117366 -0.0036176 -0.0155052)
(0.109255 -0.000644547 -0.0134959)
(0.103009 0.00198175 -0.0117863)
(0.0980009 0.00444087 -0.0105851)
(0.0937437 0.00704 -0.00992017)
(0.0897973 0.0100999 -0.00976866)
(0.0857879 0.0139997 -0.0100959)
(0.0813413 0.0192247 -0.0108505)
(0.0760091 0.026418 -0.0119267)
(0.0689396 0.0362269 -0.0130427)
(0.0581845 0.0476302 -0.0132105)
(0.0446187 0.0470736 -0.00890158)
(0.168812 -0.000940279 -0.00516209)
(0.160059 -0.00194531 -0.0135943)
(0.145898 -0.00159118 -0.0172718)
(0.131305 -0.000448415 -0.0172586)
(0.119764 0.000977163 -0.0155106)
(0.11116 0.00248923 -0.0134069)
(0.104721 0.00406592 -0.0116032)
(0.0998161 0.00587374 -0.0103014)
(0.0959025 0.0080915 -0.00951764)
(0.092572 0.0109623 -0.00921438)
(0.0895327 0.0148235 -0.00934091)
(0.0865646 0.020175 -0.00983048)
(0.0834783 0.0278149 -0.0105696)
(0.0799202 0.0390011 -0.0113103)
(0.0746878 0.0548693 -0.0112796)
(0.0620784 0.0630472 -0.00728536)
(0.0262073 -0.00607397 -0.0038952)
(0.0327286 -0.00564509 -0.00602857)
(0.0394747 -0.00365819 -0.00627188)
(0.0437663 -0.00213627 -0.00588185)
(0.0455744 -0.00114039 -0.00534697)
(0.0457598 -0.000530517 -0.00486757)
(0.0449265 -0.000152784 -0.0045262)
(0.0434056 0.000101116 -0.00435901)
(0.0413253 0.000315101 -0.00438342)
(0.0386828 0.000509849 -0.00461072)
(0.035395 0.000707957 -0.00504446)
(0.0313091 0.000923269 -0.0056743)
(0.0262253 0.00116415 -0.00645815)
(0.0198124 0.00145184 -0.00726974)
(0.0120124 0.00166876 -0.00765334)
(0.00525104 0.00111846 -0.00578192)
(0.0616352 -0.0110426 -0.00486524)
(0.0669989 -0.0149983 -0.00923653)
(0.0731524 -0.0120494 -0.0103106)
(0.0776969 -0.00811941 -0.00992746)
(0.0797075 -0.004881 -0.00907745)
(0.0796604 -0.00258972 -0.00822033)
(0.078162 -0.00103683 -0.00755254)
(0.0756257 6.0566e-05 -0.00715703)
(0.0722087 0.000934092 -0.00706972)
(0.0678815 0.00173446 -0.00731193)
(0.0624941 0.00257817 -0.00788999)
(0.0557625 0.00355864 -0.00878721)
(0.047311 0.00475737 -0.00993306)
(0.036553 0.00622533 -0.0111065)
(0.0233267 0.0075661 -0.0115007)
(0.0113383 0.00652515 -0.00815949)
(0.0918927 -0.0134453 -0.00448142)
(0.0923282 -0.0218712 -0.0097036)
(0.093071 -0.0193834 -0.0114018)
(0.0937665 -0.0139068 -0.0111957)
(0.0935066 -0.00871907 -0.0102755)
(0.0920749 -0.00473592 -0.00926785)
(0.0896583 -0.00188044 -0.00845023)
(0.0864456 0.000233792 -0.00793364)
(0.0824654 0.00193339 -0.00776418)
(0.0776128 0.00353685 -0.00796043)
(0.071675 0.00527115 -0.00852584)
(0.0643082 0.00732981 -0.00943839)
(0.0550823 0.00988368 -0.0106159)
(0.0433476 0.0129851 -0.0118071)
(0.0288755 0.0158033 -0.0121126)
(0.0156872 0.0137862 -0.00838408)
(0.118275 -0.0127508 -0.00410812)
(0.114698 -0.0234107 -0.00969576)
(0.109859 -0.022197 -0.011801)
(0.10562 -0.0165923 -0.0117285)
(0.102031 -0.0106286 -0.0107565)
(0.0985186 -0.00574136 -0.00963527)
(0.094853 -0.00206555 -0.00870683)
(0.0909014 0.000768149 -0.0080998)
(0.0865196 0.00315237 -0.0078587)
(0.0815141 0.00548442 -0.00799468)
(0.0755776 0.00808175 -0.00850408)
(0.0683294 0.0112308 -0.00935798)
(0.0593205 0.0151865 -0.0104677)
(0.0478785 0.0199962 -0.0115762)
(0.0336412 0.0243651 -0.0117915)
(0.0205873 0.0212165 -0.00808393)
(0.139977 -0.0104569 -0.00388044)
(0.133849 -0.020868 -0.00969265)
(0.124734 -0.0207183 -0.0120828)
(0.116057 -0.0158647 -0.0120951)
(0.109158 -0.0101827 -0.0110567)
(0.103478 -0.00526449 -0.00981835)
(0.0984999 -0.00138477 -0.00877839)
(0.093842 0.00173814 -0.00807911)
(0.0891778 0.00453422 -0.007758)
(0.0842015 0.00740003 -0.00781673)
(0.0785491 0.0107108 -0.00824165)
(0.0718112 0.0148325 -0.00899623)
(0.063519 0.0201082 -0.00998822)
(0.0529439 0.026615 -0.0109667)
(0.039396 0.0326765 -0.0110901)
(0.026579 0.028628 -0.00754828)
(0.156466 -0.00751487 -0.00375556)
(0.148821 -0.0158195 -0.00972724)
(0.136817 -0.0161146 -0.0123173)
(0.124772 -0.0123833 -0.01238)
(0.115174 -0.0077052 -0.0112719)
(0.107681 -0.00345954 -0.00992115)
(0.101612 8.26594e-05 -0.0087716)
(0.0964167 0.00309654 -0.0079778)
(0.0916392 0.00599243 -0.00756839)
(0.0868874 0.00915333 -0.00753364)
(0.0817697 0.0129762 -0.00784934)
(0.0758748 0.0178952 -0.00847117)
(0.0687312 0.024375 -0.00930513)
(0.0595326 0.0326417 -0.0101152)
(0.0470138 0.0409205 -0.0101359)
(0.0341366 0.0370034 -0.00682283)
(0.167518 -0.00430949 -0.00369302)
(0.159019 -0.00929761 -0.00976913)
(0.145266 -0.00944573 -0.0124809)
(0.131036 -0.00696408 -0.0125629)
(0.119622 -0.00374735 -0.0113913)
(0.110924 -0.000667776 -0.0099462)
(0.104166 0.0020657 -0.00870251)
(0.0987084 0.00463558 -0.00781983)
(0.0940509 0.00735848 -0.0073196)
(0.0897435 0.0105678 -0.00718069)
(0.085415 0.0146551 -0.00736827)
(0.0807129 0.0201147 -0.00782991)
(0.0752372 0.0275888 -0.00847037)
(0.0682158 0.0376965 -0.00907503)
(0.0577884 0.049307 -0.00897871)
(0.0446052 0.0484859 -0.00590902)
(0.173044 -0.000948031 -0.00366834)
(0.164139 -0.00198348 -0.00979237)
(0.14957 -0.00163554 -0.0125475)
(0.134327 -0.000466709 -0.0126177)
(0.122108 0.00100638 -0.0113935)
(0.112901 0.00257908 -0.00988018)
(0.105944 0.00422678 -0.00856783)
(0.100599 0.0061213 -0.00761222)
(0.0963052 0.00844931 -0.00702694)
(0.0926445 0.0114637 -0.00678139)
(0.0893273 0.0155122 -0.00683113)
(0.0861537 0.0211037 -0.00711591)
(0.0829779 0.029039 -0.00753922)
(0.0795169 0.0405609 -0.00791349)
(0.0746541 0.0567276 -0.00771419)
(0.0622808 0.0647026 -0.00485327)
(0.0265882 -0.00618667 -0.00236237)
(0.0331582 -0.00577384 -0.00364678)
(0.0399389 -0.00375282 -0.00380807)
(0.0442271 -0.00219778 -0.00358078)
(0.0459793 -0.0011771 -0.00326016)
(0.0460706 -0.000550726 -0.0029712)
(0.0451206 -0.000162333 -0.00276441)
(0.0434699 9.90853e-05 -0.00266124)
(0.0412521 0.000320308 -0.00267122)
(0.0384692 0.000522615 -0.00279926)
(0.0350459 0.000729858 -0.00304442)
(0.0308447 0.000957064 -0.00339613)
(0.0256911 0.00121374 -0.00382429)
(0.019297 0.00151977 -0.00425308)
(0.0116621 0.00174764 -0.00442711)
(0.00510276 0.00119109 -0.00330885)
(0.0625839 -0.0111935 -0.002946)
(0.0679455 -0.0152793 -0.00559251)
(0.0740713 -0.0123113 -0.00625968)
(0.0785565 -0.00831376 -0.0060407)
(0.0804552 -0.00500617 -0.00553136)
(0.0802485 -0.00265982 -0.00501388)
(0.0785579 -0.00106695 -0.00460871)
(0.0758094 6.05648e-05 -0.00436575)
(0.0721674 0.000959123 -0.00430517)
(0.0676093 0.00178458 -0.00443714)
(0.0619979 0.0026567 -0.00476083)
(0.0550729 0.00367086 -0.00525948)
(0.0465005 0.00490877 -0.00588323)
(0.035765 0.0064152 -0.00649928)
(0.0227973 0.00777051 -0.00665381)
(0.0111407 0.00668283 -0.00466827)
(0.0933519 -0.0135903 -0.00269332)
(0.0937211 -0.0222357 -0.00585883)
(0.0943428 -0.0197733 -0.00690632)
(0.0948843 -0.0142199 -0.00680026)
(0.0944434 -0.00893014 -0.00625389)
(0.0928028 -0.00485518 -0.00564814)
(0.0901561 -0.00192768 -0.00515343)
(0.086699 0.000243304 -0.00483756)
(0.0824658 0.00199118 -0.00472716)
(0.0773583 0.00364289 -0.00483069)
(0.0711759 0.00543063 -0.00514533)
(0.0635999 0.00755044 -0.00565076)
(0.0542454 0.0101712 -0.00628974)
(0.0425372 0.0133326 -0.00691157)
(0.0283428 0.0161666 -0.00701007)
(0.0155074 0.0140486 -0.00479701)
(0.12018 -0.0128676 -0.00245521)
(0.116508 -0.023772 -0.00584375)
(0.111479 -0.0226236 -0.00713815)
(0.106988 -0.0169548 -0.00711572)
(0.103136 -0.0108802 -0.00654193)
(0.0993595 -0.00588234 -0.00586952)
(0.0954282 -0.00211393 -0.00530844)
(0.0912107 0.000795859 -0.00493794)
(0.0865643 0.00324869 -0.00478434)
(0.0812996 0.00565046 -0.00485159)
(0.0751193 0.00832538 -0.00513255)
(0.0676673 0.0115628 -0.00560289)
(0.0585374 0.0156137 -0.00620171)
(0.0471267 0.0205075 -0.00677506)
(0.03316 0.024899 -0.00682214)
(0.0204414 0.0216002 -0.00462191)
(0.142245 -0.0105419 -0.00231046)
(0.136014 -0.0211714 -0.00583523)
(0.126671 -0.0211027 -0.00730254)
(0.117665 -0.0162037 -0.00733276)
(0.110428 -0.0104201 -0.00672153)
(0.10443 -0.00539164 -0.00597969)
(0.0991513 -0.00141339 -0.00535148)
(0.0942097 0.00179467 -0.00492514)
(0.089275 0.00467173 -0.00472329)
(0.0840422 0.00762317 -0.00474428)
(0.0781554 0.0110317 -0.00497511)
(0.0712266 0.0152663 -0.00538718)
(0.0628267 0.0206656 -0.00591782)
(0.0522876 0.0272854 -0.00641693)
(0.0389921 0.0333879 -0.00641377)
(0.0264779 0.0291529 -0.0043111)
(0.159006 -0.00757085 -0.00223036)
(0.151258 -0.0160397 -0.00585084)
(0.13901 -0.0164062 -0.00743992)
(0.126584 -0.012644 -0.00750155)
(0.116589 -0.00788325 -0.00685018)
(0.108733 -0.003542 -0.00604148)
(0.102337 9.11143e-05 -0.00534709)
(0.0968449 0.00318932 -0.00486371)
(0.0917964 0.00617055 -0.00460882)
(0.0867965 0.00942666 -0.00457418)