/*--------------------------------*- C++ -*----------------------------------*\
| =========                 |                                                 |
| \\      /  F ield         | foam-extend: Open Source CFD                    |
|  \\    /   O peration     | Version:     3.1                                |
|   \\  /    A nd           | Web:         http://www.extend-project.de       |
|    \\/     M anipulation  |                                                 |
\*---------------------------------------------------------------------------*/
FoamFile
{
    version     2.0;
    format      ascii;
    class       volVectorField;
    location    "3.9";
    object      D;
}
// * * * * * * * * * * * * * * * * * * * * * * * * * * * * * * * * * * * * * //

dimensions      [0 1 0 0 0 0 0];

internalField   nonuniform List<vector> 
256
(
(0.000264203 0.000178148 0.000303584)
(0.000111142 3.46511e-05 9.01658e-05)
(9.87618e-05 -5.27116e-05 -0.000110374)
(0.000225029 -0.000197171 -0.000337442)
(0.00111208 0.000731501 0.000249038)
(0.000922355 0.000195558 8.58773e-05)
(0.000886927 -0.000232025 -0.000155231)
(0.000999461 -0.000765848 -0.000344202)
(0.00219036 0.0011304 0.000171614)
(0.00199976 0.000328007 3.66945e-05)
(0.00195088 -0.000378728 -0.000149645)
(0.00203887 -0.0011846 -0.000312776)
(0.00347799 0.00143839 5.86338e-05)
(0.00330529 0.000423509 -1.5629e-05)
(0.00324716 -0.000504857 -0.000137079)
(0.00329757 -0.00152499 -0.000241993)
(0.0049029 0.00164673 -5.75864e-05)
(0.00474629 0.000481146 -6.87896e-05)
(0.00468148 -0.000607852 -0.000121658)
(0.00470098 -0.00177673 -0.000164478)
(0.00639758 0.00177454 -0.00016507)
(0.00625526 0.00050815 -0.000119177)
(0.0061857 -0.000690515 -0.00010986)
(0.00618074 -0.00195464 -9.39498e-05)
(0.00790802 0.00184086 -0.000255652)
(0.00777469 0.000512201 -0.000167309)
(0.00770065 -0.000754627 -0.000106156)
(0.00767963 -0.00207194 -4.14501e-05)
(0.0094065 0.00186499 -0.000330333)
(0.00926359 0.000503775 -0.000215635)
(0.00917954 -0.000801356 -0.000113108)
(0.00915446 -0.00214554 -1.80489e-05)
(0.000298759 0.000176668 0.000151805)
(0.000149749 3.62375e-05 4.68229e-05)
(0.000137111 -4.72528e-05 -6.43033e-05)
(0.000253896 -0.000185228 -0.00018234)
(0.00118773 0.000728065 0.000139873)
(0.000974299 0.000199427 4.21208e-05)
(0.000941231 -0.000220484 -0.000102644)
(0.00107946 -0.000748068 -0.000218651)
(0.00224912 0.00114538 9.18927e-05)
(0.00205847 0.000340003 9.59749e-06)
(0.00201229 -0.000373758 -0.000109264)
(0.00210264 -0.00118316 -0.000210869)
(0.00350591 0.00145959 1.49957e-05)
(0.00333531 0.000440002 -2.94725e-05)
(0.00327996 -0.000499292 -0.000106089)
(0.00333023 -0.00152455 -0.000171226)
(0.00489027 0.00167274 -6.93937e-05)
(0.00473866 0.000501722 -7.04763e-05)
(0.00467641 -0.000599425 -9.96438e-05)
(0.00469238 -0.00177338 -0.000121614)
(0.00634364 0.00180265 -0.000149893)
(0.00620745 0.000531665 -0.000110549)
(0.00614032 -0.000677048 -9.52894e-05)
(0.00613014 -0.00194426 -7.54024e-05)
(0.00781664 0.00186921 -0.000219401)
(0.0076909 0.000537226 -0.000149202)
(0.00761958 -0.000735261 -9.75005e-05)
(0.00759183 -0.00205249 -4.26408e-05)
(0.00928729 0.00189226 -0.000276011)
(0.00915238 0.000528613 -0.000186539)
(0.0090714 -0.000777149 -0.000110044)
(0.00903975 -0.00211773 -3.38426e-05)
(0.000314885 0.00018251 7.4188e-05)
(0.000156623 3.8846e-05 2.19766e-05)
(0.000141966 -4.75956e-05 -3.80367e-05)
(0.000263229 -0.00018944 -9.85365e-05)
(0.00122301 0.000723439 6.85041e-05)
(0.000990695 0.00020043 1.44571e-05)
(0.000955372 -0.000212691 -6.66969e-05)
(0.00110744 -0.000736459 -0.000132014)
(0.00228097 0.00113918 3.6851e-05)
(0.00207597 0.000343618 -8.90331e-06)
(0.00202741 -0.000362781 -7.7287e-05)
(0.00212738 -0.00116409 -0.000134178)
(0.00352153 0.00145355 -1.49101e-05)
(0.00334113 0.000446327 -3.78322e-05)
(0.0032832 -0.000484691 -8.00924e-05)
(0.00333822 -0.00149844 -0.00011442)
(0.00488292 0.0016698 -7.38086e-05)
(0.0047245 0.00051147 -6.87796e-05)
(0.00465946 -0.000581207 -8.00264e-05)
(0.00467678 -0.00174215 -8.60937e-05)
(0.00631065 0.00180461 -0.000131787)
(0.00616995 0.00054507 -9.97751e-05)
(0.00609998 -0.00065526 -8.11327e-05)
(0.00608851 -0.00190895 -5.8966e-05)
(0.00775917 0.0018776 -0.000183157)
(0.00763101 0.000554031 -0.000130144)
(0.00755703 -0.000710379 -8.73021e-05)
(0.00752578 -0.0020144 -4.13305e-05)
(0.0092112 0.00190823 -0.000225037)
(0.00907572 0.00054834 -0.000159347)
(0.00899155 -0.000750015 -0.000102386)
(0.00895333 -0.00207817 -4.27828e-05)
(0.000321001 0.000185924 3.43253e-05)
(0.000155989 4.01915e-05 8.93745e-06)
(0.000139625 -4.7751e-05 -2.24669e-05)
(0.000264249 -0.000191761 -5.24261e-05)
(0.00123633 0.000720535 2.78855e-05)
(0.000992176 0.0002011 2.23345e-07)
(0.000954081 -0.000206882 -4.32925e-05)
(0.00111287 -0.000727346 -7.78137e-05)
(0.00229184 0.00113179 5.11786e-06)
(0.00207613 0.000345366 -1.7391e-05)
(0.00202459 -0.000352031 -5.38817e-05)
(0.00213022 -0.00114462 -8.27647e-05)
(0.00352338 0.00144459 -3.03869e-05)
(0.00333456 0.000449934 -3.88578e-05)
(0.00327358 -0.000469492 -5.91794e-05)
(0.00333201 -0.0014707 -7.38437e-05)
(0.00487138 0.00166218 -7.12606e-05)
(0.00470662 0.000517751 -6.19939e-05)
(0.0046385 -0.000562162 -6.24003e-05)
(0.00465713 -0.00170858 -5.88862e-05)
(0.00628341 0.00180074 -0.000112435)
(0.00613814 0.000554599 -8.55859e-05)
(0.00606514 -0.000633062 -6.6427e-05)
(0.00605313 -0.0018717 -4.4349e-05)
(0.00771617 0.00187925 -0.000149859)
(0.00758499 0.000566968 -0.000109119)
(0.00750799 -0.000685797 -7.42944e-05)
(0.00747447 -0.00197527 -3.64461e-05)
(0.00915543 0.00191624 -0.000180655)
(0.00901776 0.000564697 -0.00013193)
(0.00892969 -0.000723661 -8.92491e-05)
(0.00888686 -0.00203835 -4.30742e-05)
(0.000323131 0.000187554 1.44659e-05)
(0.000153987 4.09373e-05 2.67502e-06)
(0.000136413 -4.76688e-05 -1.30967e-05)
(0.00026271 -0.000192446 -2.72129e-05)
(0.00123987 0.000718688 7.30144e-06)
(0.000988424 0.000201901 -5.5985e-06)
(0.000948091 -0.000202401 -2.77631e-05)
(0.00111005 -0.000719895 -4.48295e-05)
(0.00229253 0.0011268 -9.50546e-06)
(0.00206976 0.000347037 -1.88278e-05)
(0.00201579 -0.000343164 -3.67063e-05)
(0.00212425 -0.00112899 -4.97188e-05)
(0.00351823 0.00143813 -3.39929e-05)
(0.00332342 0.000453032 -3.45013e-05)
(0.00326003 -0.000456603 -4.22985e-05)
(0.00332031 -0.00144803 -4.62179e-05)
(0.00485795 0.00165628 -6.2106e-05)
(0.00468843 0.000522874 -5.13995e-05)
(0.00461798 -0.00054585 -4.6565e-05)
(0.00463734 -0.00168067 -3.88752e-05)
(0.00626011 0.00179722 -9.08295e-05)
(0.00611123 0.00056219 -6.88461e-05)
(0.00603597 -0.000614036 -5.14737e-05)
(0.00602363 -0.00184036 -3.18102e-05)
(0.00768245 0.00187944 -0.000117469)
(0.00754866 0.000577177 -8.64992e-05)
(0.00746939 -0.000664774 -5.92185e-05)
(0.00743443 -0.00194202 -2.93604e-05)
(0.00911227 0.00192075 -0.000139537)
(0.00897253 0.000577573 -0.000103716)
(0.00888146 -0.000701107 -7.22073e-05)
(0.00883563 -0.00200423 -3.74657e-05)
(0.000323782 0.000188294 5.19355e-06)
(0.000152221 4.13716e-05 1.0986e-07)
(0.00013383 -4.74897e-05 -7.36709e-06)
(0.000260815 -0.000192395 -1.35554e-05)
(0.00123968 0.000717573 -1.26171e-06)
(0.000983861 0.000202719 -6.53538e-06)
(0.000941934 -0.00019909 -1.70662e-05)
(0.00110529 -0.000714207 -2.48109e-05)
(0.00228955 0.00112393 -1.30891e-05)
(0.00206235 0.000348674 -1.58685e-05)
(0.00200664 -0.000336527 -2.36917e-05)
(0.00211642 -0.0011176 -2.85906e-05)
(0.00351114 0.00143439 -2.93218e-05)
(0.00331241 0.000455801 -2.66529e-05)
(0.00324733 -0.000446862 -2.83326e-05)
(0.00330851 -0.00143153 -2.75493e-05)
(0.00484554 0.00165284 -4.78135e-05)
(0.00467279 0.000527116 -3.82553e-05)
(0.00460072 -0.000533447 -3.22069e-05)
(0.00462043 -0.00166014 -2.4251e-05)
(0.00624137 0.00179519 -6.68554e-05)
(0.00608994 0.000568155 -5.03286e-05)
(0.00601317 -0.000599516 -3.6581e-05)
(0.00600057 -0.00181703 -2.12116e-05)
(0.00765673 0.00187965 -8.47616e-05)
(0.00752101 0.000584935 -6.26609e-05)
(0.00744023 -0.000648692 -4.2911e-05)
(0.00740438 -0.00191696 -2.12421e-05)
(0.00907972 0.00192358 -9.96696e-05)
(0.0089383 0.000587173 -7.47331e-05)
(0.00884524 -0.000683798 -5.27958e-05)
(0.00879764 -0.00197821 -2.83847e-05)
(0.000323934 0.000188602 1.40615e-06)
(0.000151042 4.16173e-05 -5.30755e-07)
(0.000132143 -4.73194e-05 -3.7164e-06)
(0.00025935 -0.000192141 -6.12414e-06)
(0.0012386 0.000716942 -3.01686e-06)
(0.000980311 0.00020337 -4.78944e-06)
(0.000937372 -0.000196901 -9.23638e-06)
(0.00110126 -0.000710385 -1.23173e-05)
(0.00228629 0.00112244 -1.01064e-05)
(0.00205651 0.000349975 -1.03721e-05)
(0.0019997 -0.00033214 -1.32759e-05)
(0.00211004 -0.00111021 -1.46425e-05)
(0.00350516 0.00143251 -1.94474e-05)
(0.00330408 0.000457908 -1.67146e-05)
(0.00323794 -0.000440411 -1.62844e-05)
(0.0032995 -0.00142089 -1.45075e-05)
(0.00483627 0.00165116 -3.00119e-05)
(0.00466153 0.000530196 -2.35234e-05)
(0.00458846 -0.00052521 -1.89082e-05)
(0.00460829 -0.00164686 -1.32115e-05)
(0.00622821 0.0017943 -4.09334e-05)
(0.00607518 0.000572317 -3.06401e-05)
(0.00599748 -0.000589848 -2.18542e-05)
(0.00598471 -0.0018018 -1.21115e-05)
(0.0076392 0.00187998 -5.12886e-05)
(0.00750222 0.000590196 -3.79477e-05)
(0.00742053 -0.000637957 -2.59475e-05)
(0.00738418 -0.00190045 -1.27788e-05)
(0.00905769 0.00192534 -5.9933e-05)
(0.00891513 0.000593563 -4.51096e-05)
(0.00882088 -0.000672213 -3.20862e-05)
(0.00877229 -0.0019609 -1.75382e-05)
(0.000323943 0.000188709 2.15242e-07)
(0.000150465 4.17293e-05 -2.64952e-07)
(0.000131324 -4.72203e-05 -1.12991e-06)
(0.000258579 -0.000191958 -1.73773e-06)
(0.00123782 0.000716657 -1.35e-06)
(0.000978431 0.000203725 -1.72716e-06)
(0.000935004 -0.000195812 -2.92097e-06)
(0.00109907 -0.00070847 -3.70705e-06)
(0.00228434 0.00112182 -3.71705e-06)
(0.00205337 0.000350687 -3.58753e-06)
(0.00199603 -0.000329962 -4.27556e-06)
(0.00210658 -0.00110658 -4.48689e-06)
(0.00350183 0.00143175 -6.77368e-06)
(0.00329967 0.000459044 -5.68367e-06)
(0.00323301 -0.000437208 -5.31261e-06)
(0.00329471 -0.00141569 -4.51512e-06)
(0.00483134 0.00165051 -1.02168e-05)
(0.00465567 0.000531817 -7.93125e-06)
(0.00458213 -0.000521116 -6.23413e-06)
(0.00460198 -0.00164036 -4.18788e-06)
(0.00622141 0.00179399 -1.37821e-05)
(0.00606762 0.000574461 -1.0285e-05)
(0.00598949 -0.000585035 -7.2671e-06)
(0.00597662 -0.00179432 -3.93392e-06)
(0.00763025 0.00188018 -1.71757e-05)
(0.00749269 0.000592862 -1.27073e-05)
(0.00741056 -0.000632602 -8.67798e-06)
(0.00737399 -0.00189229 -4.2578e-06)
(0.00904648 0.00192614 -2.00113e-05)
(0.00890339 0.000596771 -1.5081e-05)
(0.00880858 -0.000666415 -1.07551e-05)
(0.00875957 -0.00195231 -5.9163e-06)
)
;

boundaryField
{
    interface
    {
        type            tractionDisplacement;
        gradient        nonuniform List<vector> 
192
(
(0.0251831 0.0346249 0.000762921)
(0.0121106 0.0345745 0.00179449)
(0.0134608 0.0457061 0.000713508)
(0.0111114 0.0521538 -0.00121726)
(0.00951492 0.0567796 -0.0032702)
(0.00803603 0.0590755 -0.00523335)
(0.0072194 0.0598939 -0.00682618)
(0.00680789 0.0608559 -0.00770082)
(0.0256916 0.0369449 0.000534939)
(0.0140043 0.0346082 0.00138804)
(0.0136505 0.0443505 0.000915933)
(0.0114907 0.0505795 -0.000196555)
(0.00977958 0.0550601 -0.00148803)
(0.00836203 0.0575342 -0.00281538)
(0.00758319 0.0587109 -0.00397059)
(0.00714114 0.0604207 -0.00468233)
(0.0267644 0.03838 0.000154605)
(0.014629 0.0347661 0.000487903)
(0.0141071 0.0436778 0.000253494)
(0.0117124 0.049639 -0.000327438)
(0.0098057 0.0539696 -0.0011191)
(0.00827097 0.0564929 -0.00197024)
(0.0074349 0.0578533 -0.00275431)
(0.00682893 0.0600153 -0.00328991)
(0.0274525 0.0390717 -3.13414e-05)
(0.0151268 0.0348071 2.69989e-05)
(0.0145824 0.0433618 -0.000152452)
(0.0120563 0.0490727 -0.000497596)
(0.0100155 0.0532894 -0.000974168)
(0.00837669 0.0558065 -0.001509)
(0.0074747 0.0572554 -0.00202895)
(0.00677299 0.0596656 -0.00242143)
(0.0278251 0.0393748 -9.67274e-05)
(0.0154563 0.0347803 -0.000159118)
(0.014923 0.0431632 -0.000315286)
(0.0123357 0.0487327 -0.000544255)
(0.0102185 0.0528693 -0.000843743)
(0.00850926 0.0553631 -0.00118541)
(0.00755775 0.0568443 -0.00153539)
(0.00678178 0.059381 -0.00182529)
(0.028016 0.0394928 -9.67568e-05)
(0.0156588 0.0347247 -0.000185864)
(0.0151453 0.0430226 -0.000310011)
(0.0125318 0.0485194 -0.000464351)
(0.0103744 0.0526074 -0.000653785)
(0.00862438 0.0550781 -0.000869689)
(0.00764275 0.0565635 -0.00109807)
(0.00682686 0.059162 -0.00129761)
(0.0281075 0.0395317 -6.60524e-05)
(0.0157716 0.0346722 -0.00013383)
(0.0152751 0.0429282 -0.000213522)
(0.0126514 0.0483896 -0.000304856)
(0.0104742 0.0524512 -0.000412126)
(0.00870256 0.0549052 -0.00053375)
(0.00770431 0.0563866 -0.000664532)
(0.0068672 0.0590138 -0.000782087)
(0.0281432 0.0395413 -2.29383e-05)
(0.0158208 0.0346421 -4.75755e-05)
(0.0153334 0.0428803 -7.49472e-05)
(0.0127064 0.0483273 -0.000105355)
(0.010521 0.0523775 -0.000140348)
(0.00874026 0.0548232 -0.000179922)
(0.007734 0.0563014 -0.000222711)
(0.00688655 0.058937 -0.000261556)
(-0.00202415 0.0123828 0.0134781)
(-0.00390735 -0.00381579 0.00201507)
(-0.00196087 -0.00342785 0.00330015)
(0.000181184 -0.00475452 0.00150065)
(0.00275591 -0.00470562 0.000453911)
(0.00513007 -0.00430111 -0.000569407)
(0.00705867 -0.00367839 -0.00124276)
(0.00850192 -0.00262894 -0.00206531)
(-0.00486311 0.00450375 0.00291293)
(-0.00869653 -0.00157047 0.000568554)
(-0.00622119 -0.00137491 0.000350976)
(-0.00360252 -0.00183121 -0.000232006)
(-0.000639188 -0.0019353 -0.000623934)
(0.00205575 -0.00198469 -0.00097412)
(0.00435145 -0.00204601 -0.00125312)
(0.00628815 -0.00185203 -0.00181311)
(-0.00521907 -0.00645165 -0.00386425)
(-0.00917292 0.000780778 -0.000941542)
(-0.00684529 0.000748574 -0.00127311)
(-0.00423248 0.00115804 -0.00103634)
(-0.00130337 0.000912981 -0.000887787)
(0.00140472 0.000467107 -0.000705174)
(0.00376493 -0.000133431 -0.000551026)
(0.0056672 -0.000786564 -0.000167616)
(-0.00333212 -0.0159884 -0.0135202)
(-0.00553959 0.00233469 -0.00249353)
(-0.00416899 0.0023697 -0.00415555)
(-0.002178 0.00373129 -0.0026705)
(0.000223979 0.00345068 -0.00184386)
(0.00252881 0.00274582 -0.000971249)
(0.00451612 0.00163637 -0.000299223)
(0.00596797 4.42454e-05 0.000439105)
(0.0210364 -0.0332802 -0.00162428)
(0.00858849 -0.0340262 -0.00358092)
(0.00841212 -0.0462474 -0.00321205)
(0.00514086 -0.0528267 -0.00156618)
(0.00282027 -0.0573157 0.000364111)
(0.00091257 -0.0592328 0.0023676)
(-0.000242566 -0.0593624 0.00414978)
(-0.000488222 -0.0584883 0.00539943)
(0.0206516 -0.0360102 -0.000922115)
(0.0101816 -0.0347934 -0.00205691)
(0.00832099 -0.0451028 -0.00185111)
(0.00521106 -0.0513883 -0.000806155)
(0.0027604 -0.0556194 0.000493295)
(0.000853369 -0.0576065 0.00188802)
(-0.000346212 -0.0579786 0.00316112)
(-0.000554453 -0.0575787 0.00417774)
(0.0213578 -0.037362 -0.000390728)
(0.010734 -0.0351551 -0.000815061)
(0.0088055 -0.0445002 -0.00067999)
(0.00552023 -0.0504674 -0.000118996)
(0.00289115 -0.0544892 0.000693306)
(0.000845503 -0.0564679 0.00159596)
(-0.000472911 -0.0569502 0.00247605)
(-0.000868762 -0.056695 0.00326304)
(0.0217744 -0.0378453 -0.000119106)
(0.0111267 -0.0352203 -0.000201757)
(0.0091831 -0.0442097 -5.55691e-05)
(0.00579516 -0.0499083 0.000290819)
(0.00303731 -0.0537832 0.000786104)
(0.00087404 -0.0557126 0.00135803)
(-0.000556022 -0.0562046 0.00194749)
(-0.00106486 -0.0559635 0.00252153)
(0.0219486 -0.037923 -4.03362e-06)
(0.0113634 -0.035163 5.12516e-05)
(0.00941504 -0.0440054 0.000195338)
(0.00597319 -0.0495655 0.000430116)
(0.00314017 -0.0533431 0.000742762)
(0.000897336 -0.0552178 0.00110775)
(-0.000612893 -0.0556826 0.00149999)
(-0.00119212 -0.0554045 0.00190696)
(0.0219999 -0.037853 3.14943e-05)
(0.0114925 -0.0350689 0.00011836)
(0.00954495 -0.0438495 0.000237504)
(0.00607554 -0.0493453 0.00039702)
(0.00320048 -0.0530658 0.000594555)
(0.000910786 -0.0548974 0.000823282)
(-0.000648377 -0.0553281 0.00107466)
(-0.0012623 -0.0550032 0.00134574)
(0.0220027 -0.0377616 2.96042e-05)
(0.0115562 -0.0349863 9.6618e-05)
(0.00961149 -0.043741 0.000174098)
(0.00612916 -0.0492086 0.000268583)
(0.00323204 -0.0528991 0.000379982)
(0.000917075 -0.0547028 0.000507442)
(-0.000668816 -0.0551069 0.000649061)
(-0.00129823 -0.0547448 0.000804673)
(0.0219959 -0.0377051 1.14017e-05)
(0.0115819 -0.03494 3.58726e-05)
(0.00963919 -0.043685 6.26304e-05)
(0.00615188 -0.0491421 9.40741e-05)
(0.00324532 -0.0528198 0.000130292)
(0.000919457 -0.05461 0.000171432)
(-0.00067781 -0.0550002 0.000217388)
(-0.00131314 -0.0546183 0.000268168)
(0.0607924 0.000535147 -0.00198583)
(0.060586 0.000348541 -0.00116736)
(0.0603764 0.000757494 -0.000889964)
(0.0601347 0.00100569 -0.000596879)
(0.0598945 0.00119671 -0.000415371)
(0.0596978 0.00131293 -0.000277535)
(0.0595603 0.00137874 -0.000161677)
(0.0594878 0.00140417 -5.31215e-05)
(0.055978 0.000634779 -0.0013243)
(0.0558618 0.000495007 -0.000957934)
(0.0556461 0.000634472 -0.000852511)
(0.0553632 0.00078563 -0.000687246)
(0.0550576 0.000920166 -0.000530149)
(0.0548004 0.00101651 -0.000375198)
(0.0546212 0.0010776 -0.00022354)
(0.0545317 0.0011079 -7.40152e-05)
(0.0551047 -0.00153469 -0.000731576)
(0.0548744 -0.00135758 -0.00096362)
(0.0544656 -0.00127284 -0.00102872)
(0.054037 -0.00119069 -0.0009548)
(0.0536424 -0.00111498 -0.000783516)
(0.0533292 -0.00105249 -0.000570679)
(0.0531168 -0.00100831 -0.000343781)
(0.0530104 -0.00098454 -0.00011445)
(0.0575223 -0.00228058 -0.000434616)
(0.0569051 -0.00196347 -0.00130179)
(0.0561791 -0.00202699 -0.00147473)
(0.0555365 -0.00204479 -0.00139409)
(0.0550142 -0.00204087 -0.00114656)
(0.0546278 -0.00201693 -0.000834632)
(0.0543746 -0.00199186 -0.000502324)
(0.054249 -0.00197651 -0.000167308)
)
;
        traction        nonuniform List<vector> 
192
(
(21.031 -0.663904 -2.35215)
(21.0306 -0.80878 -4.09484)
(20.8963 -1.20896 -4.91428)
(21.1615 -1.38018 -5.37721)
(21.8249 -1.25087 -5.64072)
(22.7372 -0.699111 -5.71051)
(23.5872 0.486962 -5.50585)
(22.7884 2.44753 -4.81341)
(23.8879 -1.0078 -1.71813)
(24.2499 -1.1869 -3.00899)
(24.9039 -1.65167 -3.61641)
(25.9231 -1.82738 -3.94756)
(27.1629 -1.63107 -4.113)
(28.3542 -0.908327 -4.11702)
(28.7915 0.628919 -3.90933)
(25.7175 3.04625 -3.38098)
(25.761 -1.17323 -1.24361)
(26.0959 -1.34937 -2.16824)
(26.9131 -1.83917 -2.57213)
(28.1255 -2.00591 -2.77343)
(29.497 -1.7538 -2.86065)
(30.6677 -0.914905 -2.84225)
(30.7215 0.819034 -2.69681)
(26.4887 3.41931 -2.3683)
(27.112 -1.2591 -0.913852)
(27.3897 -1.42458 -1.59535)
(28.2316 -1.92833 -1.87961)
(29.4907 -2.08454 -2.01152)
(30.8813 -1.79267 -2.06439)
(31.981 -0.877058 -2.04801)
(31.7687 0.975009 -1.95541)
(26.8494 3.66804 -1.74255)
(28.09 -1.30794 -0.659324)
(28.3275 -1.46183 -1.15485)
(29.1607 -1.97188 -1.35679)
(30.4221 -2.12055 -1.44627)
(31.8019 -1.80254 -1.48148)
(32.8385 -0.837578 -1.47199)
(32.451 1.08999 -1.41595)
(27.0798 3.84079 -1.27485)
(28.7758 -1.33667 -0.44738)
(28.9856 -1.4807 -0.786201)
(29.8055 -1.99334 -0.923073)
(31.0583 -2.13708 -0.982272)
(32.4229 -1.80271 -1.0059)
(33.414 -0.806481 -1.00168)
(32.9141 1.1701 -0.968927)
(27.2427 3.95846 -0.877443)
(29.2131 -1.35357 -0.25807)
(29.408 -1.49062 -0.455152)
(30.2191 -2.00395 -0.534242)
(31.4637 -2.14465 -0.567981)
(32.8169 -1.80069 -0.581782)
(33.7797 -0.785407 -0.580273)
(33.2116 1.22156 -0.561492)
(27.3563 4.03013 -0.506146)
(29.4169 -1.36054 -0.0834797)
(29.6034 -1.49355 -0.147704)
(30.4074 -2.00675 -0.173247)
(31.6454 -2.14633 -0.184032)
(32.9918 -1.79802 -0.188532)
(33.9427 -0.77202 -0.188169)
(33.3308 1.25266 -0.181333)
(27.3664 4.06089 -0.161275)
(2.64902 0.554741 9.28092)
(4.54414 0.978031 5.95421)
(5.44639 0.900944 2.76266)
(6.08406 0.662494 0.332743)
(6.66321 0.503773 -1.33027)
(7.24792 0.548461 -2.25978)
(7.94328 0.809194 -2.43332)
(9.1573 1.10713 -1.69372)
(1.69174 0.492603 8.3034)
(3.05629 0.959769 6.96877)
(3.56775 1.0918 5.12974)
(3.83049 0.938634 3.58314)
(4.0622 0.704461 2.51549)
(4.37348 0.528199 1.92434)
(4.93311 0.449532 1.734)
(6.36131 0.312006 1.61416)
(1.29776 0.393478 7.62578)
(2.53348 0.759355 7.19555)
(3.02783 0.990022 6.08332)
(3.23317 0.914149 5.02213)
(3.37121 0.69028 4.29641)
(3.58137 0.452224 3.92027)
(4.04821 0.254301 3.82808)
(5.38251 0.0105132 3.71832)
(1.22137 0.3786 6.69988)
(2.51794 0.664482 6.57447)
(3.1254 0.918099 5.71833)
(3.38859 0.874276 4.85121)
(3.5368 0.665342 4.25175)
(3.73016 0.406681 3.92061)
(4.15294 0.129202 3.7748)
(5.35628 -0.258135 3.68908)
(-3.95749 0.387662 0.301477)
(-3.0619 0.679592 0.544574)
(-2.09068 0.890377 0.563042)
(-1.34392 0.892323 0.527201)
(-0.783651 0.772255 0.540491)
(-0.227866 0.598344 0.644052)
(0.737665 0.309301 0.849773)
(3.57632 -0.914811 1.11007)
(-4.58006 0.27345 -0.0563845)
(-4.41495 0.457523 -0.0828502)
(-4.07451 0.656175 -0.149314)
(-3.69434 0.734187 -0.203267)
(-3.32173 0.728908 -0.199659)
(-2.86738 0.690447 -0.129459)
(-1.94628 0.567343 -0.00917284)
(1.01448 -0.47956 0.116486)
(-4.92518 0.228271 -0.121379)
(-4.9424 0.35258 -0.187165)
(-4.78369 0.540297 -0.224744)
(-4.52383 0.661664 -0.238056)
(-4.19209 0.730329 -0.209645)
(-3.71097 0.776526 -0.141388)
(-2.71778 0.733994 -0.0612142)
(0.0794099 -0.139135 -0.0288154)
(-5.16664 0.214746 -0.117286)
(-5.23245 0.308319 -0.181534)
(-5.14696 0.491385 -0.199139)
(-4.93469 0.64148 -0.189625)
(-4.60469 0.760484 -0.151293)
(-4.08677 0.862877 -0.0935055)
(-3.04261 0.87458 -0.0446539)
(-0.325329 0.11036 -0.0493992)
(-5.34342 0.211688 -0.0936238)
(-5.42503 0.291832 -0.145485)
(-5.37126 0.476225 -0.151871)
(-5.17693 0.647494 -0.134228)
(-4.8374 0.800677 -0.0980814)
(-4.2883 0.938634 -0.0552633)
(-3.22165 0.981731 -0.0302292)
(-0.574812 0.287524 -0.0558269)
(-5.46367 0.212251 -0.0648005)
(-5.54946 0.288036 -0.100627)
(-5.50799 0.476485 -0.101333)
(-5.31852 0.662727 -0.0842777)
(-4.96897 0.837508 -0.0566233)
(-4.40017 0.996048 -0.0290233)
(-3.32691 1.05652 -0.0193573)
(-0.741673 0.407416 -0.0488928)
(-5.53714 0.213613 -0.0370475)
(-5.62349 0.288911 -0.0573101)
(-5.58629 0.481436 -0.0562818)
(-5.39714 0.677183 -0.0447377)
(-5.04071 0.864308 -0.0280514)
(-4.46179 1.03373 -0.0131964)
(-3.38951 1.10296 -0.0105692)
(-0.848899 0.481159 -0.0336727)
(-5.57067 0.214665 -0.0118927)
(-5.65625 0.290242 -0.0183191)
(-5.62032 0.484941 -0.0177619)
(-5.4311 0.685192 -0.0137945)
(-5.0721 0.878002 -0.00833905)
(-4.48944 1.0525 -0.00372297)
(-3.41633 1.12439 -0.0032326)
(-0.907787 0.516215 -0.0122285)
(10.0228 0.536936 -2.53756)
(9.68859 2.38254 -2.12491)
(9.79578 3.85043 -1.67715)
(9.98244 4.99349 -1.31432)
(10.1587 5.84073 -1.00246)
(10.3004 6.43764 -0.714783)
(10.3985 6.80199 -0.438742)
(10.4415 6.90161 -0.151247)
(6.9948 -1.5334 -0.909764)
(6.11453 -0.574262 -0.795928)
(5.94307 0.45024 -0.617067)
(5.93396 1.29262 -0.487986)
(5.96248 1.9134 -0.383171)
(5.99657 2.34862 -0.279964)
(6.02863 2.63102 -0.170969)
(6.05663 2.79321 -0.0571902)
(5.70493 -3.24061 -0.189592)
(4.63356 -2.54981 -0.210703)
(4.30175 -1.80133 -0.1746)
(4.16396 -1.20273 -0.155432)
(4.09188 -0.773997 -0.138303)
(4.05016 -0.480654 -0.109851)
(4.02688 -0.295617 -0.0680074)
(4.01591 -0.190395 -0.0218431)
(5.42921 -3.19952 0.242244)
(4.34389 -2.66403 0.0446454)
(3.94 -2.17032 -0.0289888)
(3.73412 -1.77501 -0.0647818)
(3.60458 -1.50118 -0.079217)
(3.51852 -1.32054 -0.0727309)
(3.46391 -1.2127 -0.0496025)
(3.43399 -1.16429 -0.017212)
)
;
        pressure        uniform 0;
        value           nonuniform List<vector> 
192
(
(0.000578992 0.000610958 0.000313121)
(0.00126346 0.00116368 0.000271469)
(0.00235862 0.00170173 0.000180533)
(0.00361689 0.00209032 4.34181e-05)
(0.00502183 0.00235647 -9.84639e-05)
(0.00649803 0.00251298 -0.000230487)
(0.00799826 0.00258953 -0.000340979)
(0.0094916 0.00262569 -0.000426593)
(0.000619904 0.000638479 0.000158491)
(0.00136279 0.00116067 0.000157223)
(0.00241976 0.00169976 0.000103342)
(0.00364955 0.00209184 1.25388e-05)
(0.00501251 0.002361 -8.79941e-05)
(0.00644816 0.00252183 -0.000185086)
(0.00791143 0.0026031 -0.000269033)
(0.00937656 0.00264752 -0.00033454)
(0.000649439 0.00066226 7.61206e-05)
(0.00140587 0.00115802 7.46029e-05)
(0.00245731 0.00168515 4.00197e-05)
(0.00366793 0.00207404 -1.9003e-05)
(0.00500549 0.00234442 -8.77973e-05)
(0.00641403 0.00251077 -0.000156415)
(0.00785211 0.00260076 -0.000217586)
(0.00929656 0.00265842 -0.000266161)
(0.000664157 0.00067432 3.39336e-05)
(0.00142542 0.00115562 2.8223e-05)
(0.00247412 0.00167381 3.21221e-06)
(0.00367409 0.002058 -3.66068e-05)
(0.00499658 0.0023283 -8.34377e-05)
(0.00638812 0.00249832 -0.000131297)
(0.00780961 0.00259494 -0.000175221)
(0.0092401 0.00266206 -0.000210923)
(0.000670945 0.000679739 1.32568e-05)
(0.00143307 0.00115344 5.31247e-06)
(0.00247907 0.00166634 -1.34465e-05)
(0.00367242 0.00204729 -4.07961e-05)
(0.00498569 0.00231714 -7.26528e-05)
(0.00636648 0.00248926 -0.000105647)
(0.00777692 0.00259 -0.000136661)
(0.00919705 0.00266301 -0.000162353)
(0.000673982 0.000681954 3.98409e-06)
(0.00143541 0.00115163 -3.58501e-06)
(0.00247887 0.00166172 -1.69642e-05)
(0.00366779 0.00204089 -3.51262e-05)
(0.00497522 0.00231044 -5.59858e-05)
(0.00634917 0.00248367 -7.77265e-05)
(0.00775227 0.0025867 -9.84874e-05)
(0.00916506 0.0026631 -0.00011589)
(0.000675278 0.000682748 5.80492e-07)
(0.00143574 0.00115034 -4.68974e-06)
(0.00247723 0.00165905 -1.27754e-05)
(0.00366331 0.00203738 -2.32581e-05)
(0.0049672 0.0023068 -3.51634e-05)
(0.00633699 0.00248061 -4.76053e-05)
(0.0077355 0.00258481 -5.95952e-05)
(0.00914353 0.00266302 -6.9709e-05)
(0.000675733 0.000682975 -7.14862e-08)
(0.00143558 0.00114968 -1.94469e-06)
(0.00247601 0.00165783 -4.65389e-06)
(0.00366066 0.00203584 -8.09062e-06)
(0.00496285 0.00230523 -1.19712e-05)
(0.00633066 0.00247928 -1.60311e-05)
(0.00772692 0.00258395 -1.99596e-05)
(0.00913256 0.00266285 -2.32808e-05)
(0.000238901 0.000332933 0.000472061)
(0.00106324 0.000683804 0.000274226)
(0.00216585 0.00108755 0.000212866)
(0.00348026 0.00137896 7.73919e-05)
(0.00493735 0.00158791 -5.19125e-05)
(0.00646171 0.00172078 -0.000172188)
(0.00799625 0.00179488 -0.000271186)
(0.00951277 0.00183212 -0.00035615)
(5.03528e-05 9.0948e-05 0.000126577)
(0.000813649 0.000175927 9.29842e-05)
(0.00192199 0.000310821 4.10817e-05)
(0.00326026 0.000400619 -1.8529e-05)
(0.0047383 0.000456954 -7.65888e-05)
(0.00628096 0.000483341 -0.000131354)
(0.00782908 0.000486625 -0.000182973)
(0.00934219 0.000480624 -0.000238299)
(3.35235e-05 -0.000133357 -0.000158677)
(0.000772265 -0.000222265 -0.000167001)
(0.00186532 -0.000369371 -0.000165558)
(0.00319426 -0.000490381 -0.000150034)
(0.00466519 -0.00059644 -0.000132755)
(0.00620326 -0.000684676 -0.000118674)
(0.00774771 -0.000756294 -0.000113044)
(0.00925038 -0.000811188 -0.000115204)
(0.000183377 -0.000397026 -0.000506444)
(0.000930216 -0.000736665 -0.000375371)
(0.00198676 -0.00115498 -0.00036472)
(0.00327034 -0.00147835 -0.000275374)
(0.00470378 -0.0017336 -0.000187526)
(0.00621235 -0.00192032 -0.00010609)
(0.00773608 -0.00205148 -4.51904e-05)
(0.00922905 -0.00214499 -1.256e-05)
(0.000487984 -0.000613174 -0.000357745)
(0.00110682 -0.00119118 -0.000388963)
(0.00214402 -0.00176269 -0.000352926)
(0.00336183 -0.00218533 -0.00026157)
(0.00473623 -0.00249318 -0.000159927)
(0.00619214 -0.00269505 -6.43547e-05)
(0.0076766 -0.00281397 1.04222e-05)
(0.00914835 -0.00287665 4.9444e-05)
(0.000512041 -0.000635355 -0.000193866)
(0.00120673 -0.00118298 -0.000244362)
(0.00220665 -0.00174694 -0.000234008)
(0.00339537 -0.0021669 -0.000181303)
(0.00472688 -0.00246862 -0.000115448)
(0.00614081 -0.00266435 -5.18021e-05)
(0.0075875 -0.00277722 -3.12683e-06)
(0.00903282 -0.00283746 1.83791e-05)
(0.000530201 -0.000656466 -0.000103421)
(0.00124161 -0.0011759 -0.000142203)
(0.00223745 -0.00172034 -0.000142678)
(0.00340723 -0.00212928 -0.000115907)
(0.00471292 -0.00242326 -7.74274e-05)
(0.00609908 -0.0026148 -3.90165e-05)
(0.00751987 -0.00272628 -1.03798e-05)
(0.00894247 -0.00278686 -1.99485e-06)
(0.000536428 -0.000664827 -5.3915e-05)
(0.00125195 -0.0011676 -8.03357e-05)
(0.002245 -0.00169724 -8.34593e-05)
(0.00340445 -0.00209455 -7.02085e-05)
(0.00469509 -0.00238087 -4.90599e-05)
(0.00606406 -0.0025681 -2.73736e-05)
(0.00746752 -0.00267782 -1.21024e-05)
(0.00887355 -0.00273789 -1.1555e-05)
(0.000537068 -0.000666483 -2.72633e-05)
(0.00125209 -0.00115943 -4.41888e-05)
(0.00224194 -0.00167906 -4.72771e-05)
(0.00339498 -0.0020676 -4.08414e-05)
(0.00467659 -0.00234745 -2.95907e-05)
(0.00603485 -0.00253058 -1.79633e-05)
(0.00742677 -0.00263805 -1.06105e-05)
(0.00882073 -0.00269678 -1.36287e-05)
(0.000535814 -0.000665558 -1.31617e-05)
(0.00124894 -0.00115257 -2.33314e-05)
(0.00223573 -0.00166572 -2.56218e-05)
(0.00338445 -0.00204835 -2.25866e-05)
(0.00466043 -0.00232347 -1.68191e-05)
(0.00601196 -0.00250325 -1.09206e-05)
(0.00739628 -0.00260856 -7.80879e-06)
(0.00878186 -0.00266575 -1.15629e-05)
(0.000534383 -0.000664161 -5.75409e-06)
(0.00124572 -0.00114771 -1.11096e-05)
(0.00223019 -0.00165697 -1.24663e-05)
(0.00337611 -0.002036 -1.11502e-05)
(0.00464869 -0.0023081 -8.46168e-06)
(0.00599617 -0.00248559 -5.76852e-06)
(0.00737582 -0.00258929 -4.66555e-06)
(0.00875607 -0.00264522 -7.47977e-06)
(0.000533529 -0.000663272 -1.59521e-06)
(0.00124384 -0.00114522 -3.25865e-06)
(0.00222707 -0.00165264 -3.70401e-06)
(0.00337161 -0.00202997 -3.3392e-06)
(0.00464255 -0.0023006 -2.55924e-06)
(0.00598811 -0.00247694 -1.79102e-06)
(0.00736552 -0.00257979 -1.54045e-06)
(0.00874315 -0.00263504 -2.5642e-06)
(0.0101664 0.00187168 -0.000355156)
(0.0100446 0.00189662 -0.000290603)
(0.00996591 0.0019177 -0.000236162)
(0.00990712 0.00192881 -0.000188116)
(0.00986096 0.00193571 -0.000144729)
(0.00982595 0.00193999 -0.000103139)
(0.0098022 0.00194258 -6.19539e-05)
(0.00979008 0.00194369 -2.06754e-05)
(0.00996331 0.000511709 -0.000232189)
(0.00985066 0.0005348 -0.000198513)
(0.0097713 0.000556271 -0.000170004)
(0.0097098 0.000574518 -0.000140521)
(0.00966075 0.000589076 -0.000110343)
(0.00962331 0.000599879 -7.94231e-05)
(0.0095979 0.000607033 -4.79038e-05)
(0.00958504 0.00061062 -1.60062e-05)
(0.00986835 -0.000820539 -0.000122253)
(0.00975733 -0.000794119 -0.000122089)
(0.00967237 -0.000765926 -0.000115245)
(0.00960515 -0.000738545 -0.000101184)
(0.00955199 -0.000715044 -8.20012e-05)
(0.00951186 -0.000696954 -5.99293e-05)