/*--------------------------------*- C++ -*----------------------------------*\
| =========                 |                                                 |
| \\      /  F ield         | foam-extend: Open Source CFD                    |
|  \\    /   O peration     | Version:     3.1                                |
|   \\  /    A nd           | Web:         http://www.extend-project.de       |
|    \\/     M anipulation  |                                                 |
\*---------------------------------------------------------------------------*/
FoamFile
{
    version     2.0;
    format      ascii;
    class       volVectorField;
    location    "3.9";
    object      D_0;
}
// * * * * * * * * * * * * * * * * * * * * * * * * * * * * * * * * * * * * * //

dimensions      [0 1 0 0 0 0 0];

internalField   nonuniform List<vector> 
256
(
(0.000262818 0.000176698 0.00030093)
(0.000111011 3.43259e-05 8.95072e-05)
(9.86246e-05 -5.22052e-05 -0.000109063)
(0.000223565 -0.000195377 -0.000333855)
(0.00110487 0.000725554 0.000245721)
(0.000916503 0.00019407 8.49691e-05)
(0.000881187 -0.000229617 -0.000153232)
(0.000992647 -0.000758722 -0.000339721)
(0.00217462 0.00112117 0.000168118)
(0.00198537 0.000325718 3.58296e-05)
(0.00193673 -0.000374603 -0.000147634)
(0.00202391 -0.00117326 -0.000308044)
(0.00345122 0.00142675 5.55022e-05)
(0.00327978 0.000420847 -1.63277e-05)
(0.00322203 -0.000499078 -0.000135163)
(0.00327205 -0.00150999 -0.000237531)
(0.00486335 0.0016336 -6.00684e-05)
(0.00470797 0.000478492 -6.91888e-05)
(0.0046437 -0.00060058 -0.000119844)
(0.00466319 -0.00175883 -0.000160428)
(0.00634429 0.0017607 -0.000166769)
(0.0062032 0.000505776 -0.000119179)
(0.00613435 -0.000681954 -0.000108069)
(0.00612971 -0.00193456 -9.02756e-05)
(0.00784076 0.0018269 -0.00025658)
(0.00770868 0.000510268 -0.000166845)
(0.00763551 -0.000745025 -0.000104272)
(0.00761509 -0.00205037 -3.79924e-05)
(0.00932553 0.00185127 -0.000330553)
(0.00918401 0.000502327 -0.000214642)
(0.00910104 -0.000790993 -0.000111005)
(0.00907674 -0.00212303 -1.4562e-05)
(0.000296784 0.00017525 0.000150236)
(0.000148909 3.59259e-05 4.64251e-05)
(0.000136253 -4.68288e-05 -6.34781e-05)
(0.000251858 -0.000183601 -0.000180125)
(0.0011789 0.000722248 0.000137636)
(0.000967055 0.000198002 4.15332e-05)
(0.000934049 -0.000218196 -0.000101254)
(0.00107089 -0.000741123 -0.000215525)
(0.00223134 0.00113614 8.93693e-05)
(0.0020421 0.000337741 8.99633e-06)
(0.00199612 -0.000369634 -0.000107747)
(0.00208556 -0.00117178 -0.000207346)
(0.00347696 0.00144784 1.25864e-05)
(0.00330766 0.0004373 -2.99807e-05)
(0.00325267 -0.000493501 -0.000104565)
(0.00330248 -0.00150946 -0.000167704)
(0.00484861 0.0016594 -7.14444e-05)
(0.00469825 0.000498941 -7.07834e-05)
(0.00463652 -0.000592172 -9.81259e-05)
(0.00465243 -0.0017554 -0.000118238)
(0.00628841 0.00178851 -0.000151458)
(0.00615345 0.000529081 -0.00011057)
(0.00608699 -0.000668564 -9.37252e-05)
(0.0060771 -0.00192416 -7.21631e-05)
(0.00774764 0.00185485 -0.000220454)
(0.00762313 0.000535016 -0.000148876)
(0.00755263 -0.00072579 -9.58062e-05)
(0.00752545 -0.00203094 -3.94375e-05)
(0.0092047 0.00187807 -0.000276555)
(0.00907115 0.000526841 -0.000185818)
(0.00899118 -0.000766929 -0.000108135)
(0.00896028 -0.00209524 -3.05417e-05)
(0.000312577 0.000180991 7.3205e-05)
(0.000155511 3.85121e-05 2.17278e-05)
(0.000140838 -4.71618e-05 -3.74948e-05)
(0.000260867 -0.000187722 -9.7116e-05)
(0.00121318 0.000717531 6.70074e-05)
(0.000982598 0.000198993 1.40791e-05)
(0.000947317 -0.000210435 -6.57399e-05)
(0.00109781 -0.000729447 -0.000129868)
(0.00226174 0.00112987 3.50727e-05)
(0.00205829 0.000341334 -9.30375e-06)
(0.00200991 -0.000358682 -7.61692e-05)
(0.00210884 -0.00115267 -0.000131618)
(0.0034909 0.00144174 -1.67057e-05)
(0.00331189 0.000443586 -3.81787e-05)
(0.00325431 -0.000478936 -7.89006e-05)
(0.00330879 -0.00148335 -0.000111711)
(0.0048395 0.00165638 -7.54455e-05)
(0.00468237 0.00050862 -6.89938e-05)
(0.00461785 -0.000574012 -7.87725e-05)
(0.00463508 -0.0017242 -8.33434e-05)
(0.00625367 0.00179034 -0.000133158)
(0.00611421 0.000542376 -9.97906e-05)
(0.00604491 -0.000646855 -7.97852e-05)
(0.00603372 -0.00188891 -5.61836e-05)
(0.00768844 0.00186304 -0.000184217)
(0.00756151 0.000551666 -0.000129912)
(0.00748835 -0.000700997 -8.58105e-05)
(0.00745767 -0.00199291 -3.84685e-05)
(0.00912686 0.00189373 -0.000225752)
(0.00899272 0.000546372 -0.000158827)
(0.00890957 -0.000739875 -0.000100708)
(0.0088721 -0.00205569 -3.97935e-05)
(0.000318497 0.000184326 3.36899e-05)
(0.000154748 3.9839e-05 8.77824e-06)
(0.000138371 -4.73058e-05 -2.21063e-05)
(0.000261699 -0.000189962 -5.15009e-05)
(0.00122585 0.000714494 2.68763e-05)
(0.000983537 0.000199629 -2.2201e-08)
(0.00094548 -0.00020463 -4.26305e-05)
(0.00110259 -0.000720223 -7.63386e-05)
(0.00227162 0.00112237 3.87291e-06)
(0.00205753 0.000343039 -1.76549e-05)
(0.00200618 -0.000347948 -5.30659e-05)
(0.00211067 -0.00113313 -8.09226e-05)
(0.00349151 0.00143269 -3.17014e-05)
(0.00330414 0.000447148 -3.90883e-05)
(0.00324352 -0.000463767 -5.82635e-05)
(0.00330134 -0.00145559 -7.17964e-05)
(0.00482657 0.00164869 -7.25272e-05)
(0.00466313 0.000514847 -6.2137e-05)
(0.00459554 -0.000555008 -6.13921e-05)
(0.00461403 -0.00169065 -5.67046e-05)
(0.00622495 0.00178638 -0.000113572)
(0.00608093 0.000551833 -8.55935e-05)
(0.00600861 -0.000624707 -6.53085e-05)
(0.00599687 -0.00185168 -4.20487e-05)
(0.00764391 0.00186455 -0.000150818)
(0.00751394 0.000564505 -0.000108953)
(0.00743778 -0.000676465 -7.30386e-05)
(0.00740483 -0.00195378 -3.40138e-05)
(0.00906949 0.00190154 -0.000181386)
(0.00893314 0.0005626 -0.000131558)
(0.00884609 -0.000713562 -8.7841e-05)
(0.00880404 -0.00201583 -4.05127e-05)
(0.000320504 0.000185901 1.40517e-05)
(0.000152674 4.05708e-05 2.57232e-06)
(0.000135091 -4.72152e-05 -1.28584e-05)
(0.000260045 -0.000190589 -2.66111e-05)
(0.00122895 0.000712526 6.62499e-06)
(0.00097943 0.000200395 -5.75769e-06)
(0.000939136 -0.000200144 -2.73099e-05)
(0.00109934 -0.00071267 -4.38263e-05)
(0.00227162 0.00111725 -1.03629e-05)
(0.00205053 0.000344665 -1.89993e-05)
(0.00199675 -0.000339083 -3.61239e-05)
(0.00210401 -0.00111741 -4.84192e-05)
(0.00348545 0.00142613 -3.49291e-05)
(0.00329213 0.000450199 -3.46511e-05)
(0.0032291 -0.00045089 -4.1618e-05)
(0.00328874 -0.00143287 -4.47175e-05)
(0.00481208 0.0016427 -6.30463e-05)
(0.0046439 0.000519922 -5.14918e-05)
(0.00457397 -0.000538716 -4.57905e-05)
(0.00459319 -0.0016627 -3.72172e-05)
(0.00620048 0.00178277 -9.17161e-05)
(0.00605285 0.000559371 -6.88478e-05)
(0.00597828 -0.000605702 -5.05951e-05)
(0.0059662 -0.00182031 -3.00095e-05)
(0.00760893 0.00186463 -0.00011826)
(0.00747635 0.000574648 -8.63825e-05)
(0.00739791 -0.00065546 -5.82236e-05)
(0.00736353 -0.00192049 -2.74211e-05)
(0.00902499 0.00190588 -0.000140181)
(0.00888656 0.000575392 -0.000103456)
(0.00879651 -0.000691019 -7.10969e-05)
(0.00875147 -0.00198165 -3.54142e-05)
(0.000321076 0.000186604 4.93213e-06)
(0.000150865 4.09953e-05 4.5554e-08)
(0.000132467 -4.70302e-05 -7.21608e-06)
(0.000258077 -0.000190499 -1.31779e-05)
(0.00122848 0.000711317 -1.69626e-06)
(0.000974635 0.000201184 -6.63489e-06)
(0.00093275 -0.000196826 -1.67704e-05)
(0.0010943 -0.000706901 -2.41595e-05)
(0.00226816 0.00111427 -1.36502e-05)
(0.00204268 0.000346263 -1.59753e-05)
(0.00198717 -0.000332441 -2.32997e-05)
(0.00209572 -0.00110594 -2.77234e-05)
(0.00347773 0.00142229 -2.99493e-05)
(0.00328051 0.000452928 -2.67456e-05)
(0.00321579 -0.00044115 -2.78614e-05)
(0.0032763 -0.0014163 -2.65204e-05)
(0.0047989 0.00163917 -4.84621e-05)
(0.0046275 0.000524125 -3.83117e-05)
(0.00455596 -0.000526316 -3.16582e-05)
(0.00457551 -0.00164213 -2.30852e-05)
(0.00618086 0.00178066 -6.74876e-05)
(0.00603069 0.000565295 -5.03274e-05)
(0.0059546 -0.000591185 -3.59495e-05)
(0.00594227 -0.00179694 -1.99204e-05)
(0.00758225 0.00186475 -8.53457e-05)
(0.00744774 0.00058236 -6.25835e-05)
(0.00736779 -0.000639376 -4.21923e-05)
(0.00733253 -0.00189538 -1.98353e-05)
(0.00899141 0.0019086 -0.000100164)
(0.00885129 0.000584935 -7.4562e-05)
(0.00875925 -0.000673705 -5.19971e-05)
(0.00871244 -0.00195555 -2.68932e-05)
(0.000321181 0.000186888 1.26101e-06)
(0.00014966 4.12347e-05 -5.66291e-07)
(0.000130756 -4.68563e-05 -3.63258e-06)
(0.000256568 -0.000190222 -5.91585e-06)
(0.00122722 0.000710621 -3.26062e-06)
(0.000970943 0.000201815 -4.8442e-06)
(0.000928048 -0.000194631 -9.06868e-06)
(0.00109011 -0.000703024 -1.19493e-05)
(0.00226461 0.00111271 -1.04247e-05)
(0.00203657 0.000347536 -1.04305e-05)
(0.00197995 -0.000328049 -1.30491e-05)
(0.00208905 -0.00109849 -1.41437e-05)
(0.00347134 0.00142033 -1.98087e-05)
(0.0032718 0.000455006 -1.6765e-05)
(0.00320601 -0.000434693 -1.60068e-05)
(0.00326689 -0.0014056 -1.39054e-05)
(0.00478912 0.00163742 -3.03922e-05)
(0.00461575 0.000527177 -2.35536e-05)
(0.00454321 -0.000518075 -1.85805e-05)
(0.00456287 -0.00162879 -1.25186e-05)
(0.00616712 0.0017797 -4.13116e-05)
(0.00601535 0.00056943 -3.06383e-05)
(0.00593835 -0.000581512 -2.14739e-05)
(0.00592583 -0.00178166 -1.13351e-05)
(0.00756407 0.001865 -5.16454e-05)
(0.00742832 0.000587593 -3.79033e-05)
(0.00734745 -0.000628633 -2.55136e-05)
(0.00731169 -0.00187882 -1.19272e-05)
(0.00896868 0.00191029 -6.02417e-05)
(0.00882743 0.000591292 -4.50124e-05)
(0.00873419 -0.000662109 -3.16054e-05)
(0.0086864 -0.00193819 -1.66345e-05)
(0.000321167 0.000186983 1.68627e-07)
(0.000149072 4.13436e-05 -2.76343e-07)
(0.000129926 -4.67554e-05 -1.10302e-06)
(0.000255777 -0.000190027 -1.67107e-06)
(0.00122636 0.000710304 -1.42866e-06)
(0.000968996 0.00020216 -1.74466e-06)
(0.000925614 -0.000193539 -2.86658e-06)
(0.00108783 -0.00070108 -3.58788e-06)
(0.00226251 0.00111205 -3.82033e-06)
(0.00203331 0.000348234 -3.60611e-06)
(0.00197616 -0.000325867 -4.20128e-06)
(0.00208545 -0.00109483 -4.32394e-06)
(0.00346781 0.00141953 -6.89174e-06)
(0.00326719 0.000456126 -5.69964e-06)
(0.00320089 -0.000431486 -5.22091e-06)
(0.00326191 -0.00140037 -4.31678e-06)
(0.00478394 0.00163673 -1.03422e-05)
(0.00460964 0.000528783 -7.94073e-06)
(0.00453663 -0.000513977 -6.12515e-06)
(0.00455632 -0.00162226 -3.95797e-06)
(0.00616004 0.00177935 -1.39079e-05)
(0.00600751 0.00057156 -1.02842e-05)
(0.00593006 -0.000576694 -7.14012e-06)
(0.00591746 -0.00177415 -3.67486e-06)
(0.0075548 0.00186517 -1.72956e-05)
(0.00741846 0.000590244 -1.26928e-05)
(0.00733717 -0.000623272 -8.53296e-06)
(0.00730118 -0.00187063 -3.97279e-06)
(0.00895712 0.00191105 -2.01161e-05)
(0.00881533 0.000594483 -1.50495e-05)
(0.00872154 -0.000656305 -1.05947e-05)
(0.00867332 -0.00192956 -5.61374e-06)
)
;

boundaryField
{
    interface
    {
        type            tractionDisplacement;
        gradient        nonuniform List<vector> 
192
(
(0.0012504 8.90088e-08 -6.27537e-06)
(0.00125106 2.32615e-07 -7.48491e-06)
(0.0012496 5.25483e-07 -7.47543e-06)
(0.00124673 8.45864e-07 -7.27339e-06)
(0.00124237 1.23213e-06 -6.95727e-06)
(0.00123606 1.75972e-06 -6.48764e-06)
(0.00122701 2.65546e-06 -5.77696e-06)
(0.00121237 4.4017e-06 -4.57372e-06)
(0.00127836 1.58951e-07 -4.18175e-06)
(0.00127813 3.40733e-07 -4.98588e-06)
(0.00127606 6.81215e-07 -4.94782e-06)
(0.00127234 1.07974e-06 -4.77587e-06)
(0.0012667 1.57845e-06 -4.5173e-06)
(0.00125852 2.26978e-06 -4.14438e-06)
(0.00124668 3.43378e-06 -3.60938e-06)
(0.00122774 5.61186e-06 -2.83028e-06)
(0.0012969 2.0556e-07 -2.92788e-06)
(0.00129628 4.22773e-07 -3.50022e-06)
(0.00129375 8.10625e-07 -3.4639e-06)
(0.00128935 1.27314e-06 -3.32432e-06)
(0.00128271 1.85533e-06 -3.11929e-06)
(0.00127309 2.65704e-06 -2.83373e-06)
(0.00125927 3.97152e-06 -2.44508e-06)
(0.00123752 6.33252e-06 -1.9299e-06)
(0.00131022 2.36666e-07 -2.12187e-06)
(0.00130939 4.82114e-07 -2.53952e-06)
(0.00130652 9.12912e-07 -2.50899e-06)
(0.00130157 1.426e-06 -2.39958e-06)
(0.00129415 2.06871e-06 -2.2415e-06)
(0.00128345 2.94405e-06 -2.02736e-06)
(0.00126819 4.35007e-06 -1.74696e-06)
(0.00124452 6.81512e-06 -1.39307e-06)
(0.00131978 2.59652e-07 -1.51365e-06)
(0.00131882 5.26652e-07 -1.81147e-06)
(0.00131569 9.91037e-07 -1.78752e-06)
(0.00131032 1.54199e-06 -1.7059e-06)
(0.0013023 2.22756e-06 -1.58946e-06)
(0.00129082 3.15197e-06 -1.43486e-06)
(0.00127453 4.6157e-06 -1.23756e-06)
(0.00124954 7.14639e-06 -9.95544e-07)
(0.00132642 2.76131e-07 -1.01788e-06)
(0.00132536 5.58719e-07 -1.21811e-06)
(0.00132204 1.04754e-06 -1.20117e-06)
(0.00131638 1.62535e-06 -1.14496e-06)
(0.00130794 2.34023e-06 -1.06545e-06)
(0.0012959 3.29691e-06 -9.61283e-07)
(0.00127891 4.79762e-06 -8.30326e-07)
(0.00125304 7.37104e-06 -6.71486e-07)
(0.00133063 2.87035e-07 -5.86262e-07)
(0.00132951 5.79709e-07 -7.01327e-07)
(0.00132607 1.08477e-06 -6.91544e-07)
(0.00132021 1.68017e-06 -6.58841e-07)
(0.00131151 2.41383e-06 -6.12817e-07)
(0.00129912 3.39091e-06 -5.5309e-07)
(0.00128169 4.9157e-06 -4.77739e-07)
(0.00125526 7.51474e-06 -3.82182e-07)
(0.00133265 2.92824e-07 -1.90632e-07)
(0.00133149 5.90077e-07 -2.27698e-07)
(0.001328 1.10224e-06 -2.24725e-07)
(0.00132205 1.70638e-06 -2.14081e-07)
(0.00131322 2.44881e-06 -1.99112e-07)
(0.00130067 3.43614e-06 -1.79825e-07)
(0.00128303 4.97701e-06 -1.55001e-07)
(0.00125626 7.58408e-06 -1.20792e-07)
(1.09308e-05 7.23725e-08 0.00114973)
(1.30776e-05 1.27851e-07 0.00114889)
(1.31548e-05 1.98457e-07 0.00114824)
(1.29808e-05 2.92527e-07 0.0011473)
(1.2715e-05 4.04896e-07 0.00114595)
(1.23458e-05 5.36693e-07 0.00114413)
(1.18492e-05 6.86119e-07 0.00114175)
(1.13079e-05 8.03277e-07 0.00113874)
(1.00547e-05 2.11513e-08 0.0010997)
(1.20342e-05 3.77271e-08 0.00109949)
(1.21003e-05 5.67502e-08 0.0010993)
(1.19489e-05 8.24212e-08 0.00109902)
(1.17254e-05 1.12105e-07 0.00109863)
(1.14243e-05 1.44074e-07 0.00109811)
(1.10382e-05 1.71046e-07 0.00109746)
(1.0708e-05 1.6209e-07 0.00109671)
(1.00418e-05 -2.70428e-08 0.00105277)
(1.20188e-05 -4.56996e-08 0.00105298)
(1.20844e-05 -6.9588e-08 0.00105321)
(1.1933e-05 -1.00411e-07 0.00105354)
(1.171e-05 -1.3707e-07 0.001054)
(1.141e-05 -1.80176e-07 0.00105463)
(1.10258e-05 -2.2871e-07 0.00105544)
(1.06983e-05 -2.6355e-07 0.00105648)
(1.09054e-05 -8.04064e-08 0.00100291)
(1.30452e-05 -1.36982e-07 0.00100376)
(1.312e-05 -2.11694e-07 0.00100444)
(1.29457e-05 -3.09713e-07 0.00100544)
(1.26804e-05 -4.27843e-07 0.00100685)
(1.23126e-05 -5.69225e-07 0.00100876)
(1.18188e-05 -7.38586e-07 0.00101129)
(1.12818e-05 -8.99354e-07 0.00101456)
(-0.000903606 -9.63547e-08 6.85177e-06)
(-0.000902881 -2.51564e-07 8.12936e-06)
(-0.000904348 -5.72774e-07 8.11249e-06)
(-0.00090722 -9.20022e-07 7.89131e-06)
(-0.000911576 -1.33875e-06 7.54482e-06)
(-0.000917854 -1.91504e-06 7.02877e-06)
(-0.00092686 -2.91625e-06 6.2435e-06)
(-0.00094155 -4.95238e-06 4.89368e-06)
(-0.000876477 -1.72336e-07 4.42126e-06)
(-0.000876696 -3.68407e-07 5.23941e-06)
(-0.000878763 -7.40343e-07 5.19106e-06)
(-0.000882477 -1.17274e-06 5.00456e-06)
(-0.000888098 -1.71422e-06 4.72407e-06)
(-0.000896245 -2.4707e-06 4.31857e-06)
(-0.000908024 -3.77243e-06 3.7342e-06)
(-0.000927051 -6.30466e-06 2.87503e-06)
(-0.000858904 -2.23527e-07 3.02815e-06)
(-0.000859518 -4.57468e-07 3.59773e-06)
(-0.000862036 -8.80012e-07 3.55226e-06)
(-0.00086643 -1.38156e-06 3.40144e-06)
(-0.000873045 -2.0136e-06 3.18024e-06)
(-0.000882602 -2.89053e-06 2.87178e-06)
(-0.000896351 -4.35875e-06 2.45083e-06)
(-0.000918167 -7.09737e-06 1.88924e-06)
(-0.00084644 -2.57774e-07 2.16159e-06)
(-0.000847264 -5.21851e-07 2.57079e-06)
(-0.000850126 -9.90306e-07 2.53274e-06)
(-0.00085506 -1.54618e-06 2.41474e-06)
(-0.000862449 -2.24345e-06 2.24466e-06)
(-0.000873069 -3.20009e-06 2.01421e-06)
(-0.000888236 -4.76849e-06 1.71208e-06)
(-0.000911949 -7.62329e-06 1.32891e-06)
(-0.000837595 -2.83051e-07 1.52365e-06)
(-0.00083856 -5.70096e-07 1.81175e-06)
(-0.000841682 -1.07445e-06 1.78199e-06)
(-0.000847026 -1.67087e-06 1.69407e-06)
(-0.000854997 -2.41412e-06 1.56902e-06)
(-0.000866396 -3.42352e-06 1.40308e-06)
(-0.00088257 -5.05455e-06 1.19126e-06)
(-0.000907581 -7.98206e-06 9.30362e-07)
(-0.000831511 -3.01135e-07 1.01526e-06)
(-0.000832571 -6.04765e-07 1.20705e-06)
(-0.000835879 -1.13523e-06 1.18601e-06)
(-0.000841519 -1.76034e-06 1.1255e-06)
(-0.000849902 -2.53489e-06 1.04024e-06)
(-0.000861845 -3.57878e-06 9.28656e-07)
(-0.000878708 -5.24964e-06 7.88457e-07)
(-0.000904589 -8.22417e-06 6.17775e-07)
(-0.000827684 -3.13066e-07 5.81157e-07)
(-0.000828802 -6.27424e-07 6.90621e-07)
(-0.00083223 -1.17521e-06 6.7841e-07)
(-0.000838059 -1.81904e-06 6.43226e-07)
(-0.000846706 -2.61357e-06 5.93914e-07)
(-0.000858993 -3.67914e-06 5.30029e-07)
(-0.000876286 -5.37574e-06 4.49542e-07)
(-0.000902707 -8.37837e-06 3.46949e-07)
(-0.000825854 -3.19376e-07 1.88378e-07)
(-0.000827006 -6.38536e-07 2.23531e-07)
(-0.000830489 -1.19398e-06 2.19753e-07)
(-0.000836409 -1.8471e-06 2.083e-07)
(-0.000845182 -2.65092e-06 1.92268e-07)
(-0.000857629 -3.72725e-06 1.71653e-07)
(-0.000875121 -5.44102e-06 1.45178e-07)
(-0.000901879 -8.45211e-06 1.08378e-07)
(1.13077e-05 -0.00113956 -9.86196e-07)
(1.18661e-05 -0.00114323 -8.3836e-07)
(1.23873e-05 -0.00114616 -6.69958e-07)
(1.27835e-05 -0.00114847 -5.21832e-07)
(1.30767e-05 -0.00115024 -3.91006e-07)
(1.32868e-05 -0.00115152 -2.72808e-07)
(1.34306e-05 -0.00115236 -1.66012e-07)
(1.35055e-05 -0.00115283 -5.78898e-08)
(1.07333e-05 -0.00109747 -3.23353e-07)
(1.10861e-05 -0.00109878 -2.9851e-07)
(1.14951e-05 -0.00109989 -2.50886e-07)
(1.18192e-05 -0.0011008 -2.02547e-07)
(1.20647e-05 -0.00110151 -1.55909e-07)
(1.22434e-05 -0.00110204 -1.10734e-07)
(1.23687e-05 -0.0011024 -6.67961e-08)
(1.24387e-05 -0.00110257 -2.25708e-08)
(1.07338e-05 -0.00105712 1.29308e-07)
(1.10872e-05 -0.00105654 1.24779e-07)
(1.1494e-05 -0.00105609 9.54584e-08)
(1.18153e-05 -0.00105577 6.74789e-08)
(1.20582e-05 -0.00105555 4.5425e-08)
(1.22347e-05 -0.00105541 2.87838e-08)
(1.23586e-05 -0.00105532 1.65634e-08)
(1.24277e-05 -0.00105528 5.73912e-09)
(1.13263e-05 -0.00101504 7.95589e-07)
(1.18919e-05 -0.00101212 6.58727e-07)
(1.24086e-05 -0.00100987 5.05786e-07)
(1.27978e-05 -0.00100817 3.78169e-07)
(1.3084e-05 -0.00100692 2.73189e-07)
(1.32882e-05 -0.00100604 1.85436e-07)
(1.34278e-05 -0.00100548 1.12584e-07)
(1.35008e-05 -0.00100515 4.00141e-08)
)
;
        traction        nonuniform List<vector> 
192
(
(26.7942 0.00190733 -0.134472)
(26.8085 0.00498462 -0.160391)
(26.7772 0.0112604 -0.160188)
(26.7157 0.0181257 -0.155858)
(26.6222 0.0264028 -0.149084)
(26.487 0.0377082 -0.139021)
(26.293 0.0569026 -0.123792)
(25.9793 0.0943222 -0.0980083)
(27.3935 0.0034061 -0.0896089)
(27.3884 0.00730142 -0.10684)
(27.3441 0.0145975 -0.106025)
(27.2645 0.0231373 -0.10234)
(27.1437 0.033824 -0.0967993)
(26.9683 0.0486382 -0.0888082)
(26.7147 0.0735809 -0.077344)
(26.3087 0.120254 -0.0606489)
(27.7907 0.00440487 -0.0627403)
(27.7773 0.00905942 -0.0750048)
(27.7233 0.0173705 -0.0742265)
(27.6289 0.0272816 -0.0712353)
(27.4865 0.039757 -0.066842)
(27.2806 0.0569365 -0.0607228)
(26.9843 0.085104 -0.0523946)
(26.5182 0.135697 -0.0413549)
(28.0762 0.00507141 -0.0454687)
(28.0584 0.010331 -0.0544183)
(27.997 0.0195624 -0.0537641)
(27.8909 0.0305572 -0.0514196)
(27.7317 0.0443295 -0.0480322)
(27.5026 0.0630869 -0.0434433)
(27.1755 0.0932158 -0.0374349)
(26.6683 0.146038 -0.0298516)
(28.2811 0.00556398 -0.0324353)
(28.2603 0.0112854 -0.0388172)
(28.1933 0.0212365 -0.038304)
(28.0783 0.0330426 -0.0365551)
(27.9065 0.0477333 -0.0340599)
(27.6604 0.0675421 -0.0307469)
(27.3113 0.0989078 -0.0265191)
(26.7759 0.153137 -0.0213331)
(28.4234 0.00591708 -0.0218117)
(28.4006 0.0119725 -0.0261023)
(28.3295 0.0224473 -0.0257394)
(28.2081 0.034829 -0.0245348)
(28.0273 0.0501478 -0.0228311)
(27.7694 0.0706481 -0.0205989)
(27.4052 0.102806 -0.0177927)
(26.8508 0.157951 -0.014389)
(28.5135 0.00615074 -0.0125628)
(28.4894 0.0124223 -0.0150284)
(28.4158 0.023245 -0.0148188)
(28.2903 0.0360036 -0.014118)
(28.1037 0.0517248 -0.0131318)
(27.8383 0.0726623 -0.0118519)
(27.4647 0.105336 -0.0102373)
(26.8984 0.16103 -0.00818961)
(28.5567 0.00627479 -0.00408497)
(28.532 0.0126445 -0.00487923)
(28.4571 0.0236193 -0.00481554)
(28.3296 0.0365652 -0.00458744)
(28.1404 0.0524745 -0.00426669)
(27.8714 0.0736316 -0.00385339)
(27.4935 0.10665 -0.00332146)
(26.9199 0.162516 -0.00258841)
(0.234232 0.00155084 24.637)
(0.280235 0.00273965 24.6191)
(0.281888 0.00425265 24.6052)
(0.278159 0.00626843 24.5849)
(0.272465 0.00867633 24.5561)
(0.264553 0.0115006 24.5171)
(0.253912 0.0147025 24.4661)
(0.242312 0.0172131 24.4015)
(0.215458 0.000453242 23.565)
(0.257875 0.000808438 23.5605)
(0.259292 0.00121608 23.5564)
(0.256048 0.00176617 23.5504)
(0.251258 0.00240225 23.542)
(0.244806 0.00308729 23.5309)
(0.236532 0.00366528 23.517)
(0.229457 0.00347336 23.5009)
(0.215181 -0.00057949 22.5593)
(0.257546 -0.000979277 22.564)
(0.258951 -0.00149117 22.5688)
(0.255708 -0.00215167 22.5758)
(0.250929 -0.00293722 22.5858)
(0.244501 -0.00386092 22.5992)
(0.236268 -0.00490093 22.6167)
(0.22925 -0.00564749 22.6389)
(0.233687 -0.00172299 21.4909)
(0.279539 -0.00293532 21.5091)
(0.281144 -0.00453631 21.5238)
(0.277407 -0.00663671 21.5451)
(0.271722 -0.00916805 21.5754)
(0.263841 -0.0121977 21.6164)
(0.253261 -0.0158268 21.6704)
(0.241752 -0.0192719 21.7405)
(-19.363 -0.00206474 0.146824)
(-19.3475 -0.00539066 0.174201)
(-19.3789 -0.0122737 0.173839)
(-19.4404 -0.0197148 0.1691)
(-19.5338 -0.0286875 0.161675)
(-19.6683 -0.0410367 0.150616)
(-19.8613 -0.0624911 0.133789)
(-20.1761 -0.106122 0.104865)
(-18.7816 -0.00369291 0.0947413)
(-18.7863 -0.00789443 0.112273)
(-18.8306 -0.0158645 0.111237)
(-18.9102 -0.0251302 0.107241)
(-19.0307 -0.0367334 0.10123)
(-19.2052 -0.0529437 0.0925409)
(-19.4577 -0.0808377 0.0800185)
(-19.8654 -0.1351 0.0616077)
(-18.4051 -0.00478987 0.064889)
(-18.4182 -0.00980289 0.0770943)
(-18.4722 -0.0188574 0.0761199)
(-18.5664 -0.0296049 0.0728881)
(-18.7081 -0.0431486 0.0681481)
(-18.9129 -0.06194 0.0615382)
(-19.2075 -0.0934018 0.0525179)
(-19.675 -0.152086 0.0404836)
(-18.138 -0.00552373 0.0463197)
(-18.1556 -0.0111825 0.0550883)
(-18.217 -0.0212208 0.054273)
(-18.3227 -0.0331325 0.0517444)
(-18.481 -0.048074 0.0480998)
(-18.7086 -0.0685733 0.0431617)
(-19.0336 -0.102182 0.0366875)
(-19.5418 -0.163356 0.0284766)
(-17.9485 -0.00606538 0.0326497)
(-17.9691 -0.0122163 0.0388231)
(-18.036 -0.023024 0.0381856)
(-18.1506 -0.0358044 0.0363015)
(-18.3214 -0.0517312 0.0336219)
(-18.5656 -0.0733611 0.0300661)
(-18.9122 -0.108312 0.0255271)
(-19.4482 -0.171044 0.0199363)
(-17.8181 -0.00645288 0.0217555)
(-17.8408 -0.0129593 0.0258653)
(-17.9117 -0.0243264 0.0254145)
(-18.0325 -0.0377215 0.0241178)
(-18.2122 -0.0543192 0.0222908)
(-18.4681 -0.0766882 0.0198998)
(-18.8294 -0.112492 0.0168955)
(-19.3841 -0.176232 0.013238)
(-17.7361 -0.00670857 0.0124534)
(-17.7601 -0.0134448 0.014799)
(-17.8335 -0.0251831 0.0145374)
(-17.9584 -0.0389794 0.0137834)
(-18.1437 -0.0560052 0.0127267)
(-18.407 -0.0788387 0.0113578)
(-18.7775 -0.115194 0.00963305)
(-19.3437 -0.179537 0.00743463)
(-17.6969 -0.00684377 0.00403667)
(-17.7216 -0.0136829 0.00478996)
(-17.7962 -0.0255853 0.00470898)
(-17.9231 -0.0395806 0.00446357)
(-18.111 -0.0568055 0.00412003)
(-18.3778 -0.0798697 0.00367828)
(-18.7526 -0.116593 0.00311095)
(-19.326 -0.181117 0.00232238)
(0.242309 -24.4191 -0.0211328)
(0.254273 -24.4977 -0.0179648)
(0.265441 -24.5605 -0.0143563)
(0.273931 -24.61 -0.0111821)
(0.280215 -24.6479 -0.00837869)
(0.284717 -24.6755 -0.00584588)
(0.287799 -24.6935 -0.0035574)
(0.289404 -24.7035 -0.0012405)
(0.229999 -23.5171 -0.006929)
(0.237559 -23.5453 -0.00639663)
(0.246324 -23.5691 -0.00537612)
(0.253268 -23.5885 -0.00434029)
(0.25853 -23.6038 -0.00334091)
(0.262358 -23.6152 -0.00237288)
(0.265043 -23.6228 -0.00143135)
(0.266544 -23.6265 -0.00048366)
(0.23001 -22.6525 0.00277088)
(0.237582 -22.6402 0.00267384)
(0.2463 -22.6305 0.00204554)
(0.253185 -22.6237 0.00144598)
(0.25839 -22.6189 0.000973392)
(0.262173 -22.6158 0.000616796)
(0.264827 -22.614 0.00035493)
(0.266308 -22.6131 0.000122981)
(0.242706 -21.7508 0.0170483)
(0.254825 -21.6882 0.0141156)
(0.265899 -21.64 0.0108383)
(0.274239 -21.6037 0.00810362)
(0.280372 -21.5769 0.00585405)
(0.284748 -21.558 0.00397363)
(0.287739 -21.5459 0.00241252)
(0.289303 -21.5389 0.000857445)
)
;
        pressure        uniform 0;
        value           nonuniform List<vector> 
192
(
(0.000575182 0.000606881 0.000310131)
(0.001255 0.00115466 0.000267285)
(0.0023415 0.00168798 0.000175981)
(0.00358895 0.00207315 3.92331e-05)
(0.00498126 0.00233709 -0.000101892)
(0.00644385 0.00249251 -0.000232977)
(0.00793019 0.00256883 -0.000342556)
(0.00940984 0.00260523 -0.0004274)
(0.000615434 0.000633863 0.000156705)
(0.00135252 0.00115148 0.000154389)
(0.00240058 0.00168592 0.000100026)
(0.00361942 0.00207458 9.26229e-06)
(0.00496984 0.00234149 -9.09121e-05)
(0.00639206 0.00250116 -0.000187474)
(0.00784162 0.00258209 -0.000270867)
(0.00929316 0.0026266 -0.000335869)
(0.000644398 0.000657168 7.49987e-05)
(0.00139451 0.00114851 7.27135e-05)
(0.00243663 0.00167111 3.76834e-05)
(0.00363611 0.00205668 -2.14652e-05)
(0.00496106 0.00232485 -9.01532e-05)
(0.00635619 0.00249002 -0.000158524)
(0.0077806 0.00257958 -0.000219394)
(0.00921148 0.00263716 -0.000267655)
(0.00065874 0.0006689 3.32093e-05)
(0.00141333 0.00114582 2.69529e-05)
(0.00245238 0.00165954 1.57708e-06)
(0.00364098 0.00204048 -3.8416e-05)
(0.00495075 0.00230862 -8.52702e-05)
(0.00632881 0.00247745 -0.000133048)
(0.00773658 0.0025736 -0.00017683)
(0.00915344 0.00264056 -0.000212349)
(0.000665278 0.000674097 1.27852e-05)
(0.00142049 0.0011434 4.46229e-06)
(0.00245659 0.00165184 -1.45735e-05)
(0.00363838 0.00202959 -4.20883e-05)
(0.00493878 0.00229733 -7.40171e-05)
(0.006306 0.00246826 -0.00010701)
(0.00770265 0.00256851 -0.000137971)
(0.00910906 0.00264131 -0.000163561)
(0.000668153 0.000676165 3.68663e-06)
(0.00142251 0.00114141 -4.13101e-06)
(0.00245588 0.00164703 -1.77026e-05)
(0.00363309 0.00202302 -3.59942e-05)
(0.00492753 0.00229048 -5.69286e-05)
(0.00628781 0.00246256 -7.86967e-05)
(0.00767704 0.00256509 -9.94467e-05)
(0.00907605 0.00264126 -0.000116796)
(0.00066935 0.000676868 4.15347e-07)
(0.00142264 0.00114001 -4.9961e-06)
(0.00245393 0.00164423 -1.31948e-05)
(0.00362818 0.00201939 -2.37588e-05)
(0.004919 0.00228674 -3.5717e-05)
(0.00627506 0.0024594 -4.81851e-05)
(0.00765964 0.00256311 -6.01781e-05)
(0.00905384 0.00264107 -7.02672e-05)
(0.000669759 0.000677052 -1.24542e-07)
(0.00142238 0.00113929 -2.0436e-06)
(0.00245255 0.00164294 -4.79002e-06)
(0.00362534 0.00201779 -8.25437e-06)
(0.00491441 0.00228511 -1.21538e-05)
(0.00626844 0.00245802 -1.62239e-05)
(0.00765074 0.0025622 -2.0155e-05)
(0.00904252 0.00264086 -2.3469e-05)
(0.000238005 0.000329858 0.000468002)
(0.00105721 0.000677725 0.000270573)
(0.00215142 0.0010783 0.000208902)
(0.00345477 0.00136758 7.39641e-05)
(0.0048989 0.00157519 -5.45633e-05)
(0.00640929 0.00170741 -0.000173918)
(0.00792964 0.00178137 -0.000272033)
(0.00943229 0.0018188 -0.00035619)
(5.09698e-05 9.01356e-05 0.000125633)
(0.000809346 0.000174377 9.19752e-05)
(0.00190917 0.000308476 4.01314e-05)
(0.00323621 0.000398003 -1.92621e-05)
(0.00470122 0.000454436 -7.69738e-05)
(0.00622988 0.000481176 -0.000131289)
(0.00776382 0.000484954 -0.00018239)
(0.00926315 0.000479459 -0.000237113)
(3.41711e-05 -0.000131843 -0.000156799)
(0.000768079 -0.000219893 -0.000164879)
(0.00185273 -0.000365337 -0.000163354)
(0.0031706 -0.00048476 -0.000147941)
(0.00462867 -0.00058928 -0.000130772)
(0.00615294 -0.000676147 -0.000116725)
(0.00768338 -0.000746629 -0.000111003)
(0.0091725 -0.000800675 -0.000112957)
(0.000182523 -0.000392791 -0.000501272)
(0.000924598 -0.000729444 -0.000370545)
(0.00197314 -0.00114368 -0.000359406)
(0.00324616 -0.00146364 -0.00027048)
(0.0046672 -0.00171599 -0.000183135)
(0.00616238 -0.00190046 -0.000102179)
(0.00767247 -0.00203 -4.15807e-05)
(0.00915217 -0.00212243 -8.97603e-06)
(0.000484312 -0.000608187 -0.000353801)
(0.00109905 -0.00118077 -0.000383561)
(0.00212815 -0.00174649 -0.000347022)
(0.00333583 -0.00216454 -0.000255909)
(0.00469829 -0.00246886 -0.000154735)
(0.00614126 -0.0026683 -5.96407e-05)
(0.0076124 -0.00278576 1.4827e-05)
(0.00907105 -0.00284772 5.38426e-05)
(0.000507847 -0.000629868 -0.00019141)
(0.00119701 -0.00117237 -0.000240585)
(0.00218866 -0.00173061 -0.000229619)
(0.00336711 -0.00214603 -0.000176847)
(0.00468678 -0.00244429 -0.000111133)
(0.0060879 -0.00263766 -4.76548e-05)
(0.00752146 -0.0027491 9.58145e-07)
(0.00895376 -0.00280857 2.25791e-05)
(0.000525507 -0.000650418 -0.000101847)
(0.00123077 -0.00116494 -0.000139633)
(0.00221793 -0.00170384 -0.000139516)
(0.00337724 -0.00210836 -0.00011249)
(0.00467103 -0.00239898 -7.39185e-05)
(0.00604442 -0.00258819 -3.54525e-05)
(0.0074521 -0.00269822 -6.71743e-06)
(0.00886167 -0.00275794 1.83571e-06)
(0.000531402 -0.000658391 -5.28934e-05)
(0.00124039 -0.00115634 -7.85821e-05)
(0.00222442 -0.00168053 -8.11989e-05)
(0.00337318 -0.00207352 -6.76376e-05)
(0.0046518 -0.00235655 -4.62835e-05)
(0.00600792 -0.00254149 -2.44288e-05)
(0.00739823 -0.00264974 -8.9838e-06)
(0.00879118 -0.0027089 -8.25656e-06)
(0.000531824 -0.000659789 -2.65999e-05)
(0.00124005 -0.00114793 -4.30008e-05)
(0.00222062 -0.00166215 -4.5688e-05)
(0.00336278 -0.00204644 -3.89623e-05)
(0.00463222 -0.00232305 -2.74842e-05)
(0.00597753 -0.0025039 -1.56596e-05)
(0.00735623 -0.0026099 -8.12146e-06)
(0.00873704 -0.00266769 -1.09783e-05)
(0.000530429 -0.000658696 -1.27454e-05)
(0.00123659 -0.00114089 -2.25607e-05)
(0.00221392 -0.00164864 -2.45629e-05)
(0.00335161 -0.00202704 -2.12996e-05)
(0.00461529 -0.00229895 -1.53394e-05)
(0.00595378 -0.00247647 -9.26955e-06)
(0.00732479 -0.00258031 -6.00226e-06)
(0.00869714 -0.00263654 -9.63174e-06)
(0.000528912 -0.000657197 -5.52406e-06)
(0.00123318 -0.00113593 -1.06742e-05)
(0.00220807 -0.00163978 -1.18575e-05)
(0.00334287 -0.00201459 -1.03975e-05)
(0.00460305 -0.00228349 -7.5829e-06)
(0.00593742 -0.00245873 -4.77612e-06)
(0.0073037 -0.00256095 -3.57176e-06)
(0.00867065 -0.00261592 -6.3081e-06)
(0.000528017 -0.00065626 -1.52153e-06)
(0.00123121 -0.00113337 -3.11761e-06)
(0.00220481 -0.00163539 -3.50514e-06)
(0.00333816 -0.0020085 -3.09132e-06)