/*--------------------------------*- C++ -*----------------------------------*\
| =========                 |                                                 |
| \\      /  F ield         | foam-extend: Open Source CFD                    |
|  \\    /   O peration     | Version:     3.1                                |
|   \\  /    A nd           | Web:         http://www.extend-project.de       |
|    \\/     M anipulation  |                                                 |
\*---------------------------------------------------------------------------*/
FoamFile
{
    version     2.0;
    format      ascii;
    class       volSymmTensorField;
    location    "3.9";
    object      epsilon;
}
// * * * * * * * * * * * * * * * * * * * * * * * * * * * * * * * * * * * * * //

dimensions      [0 0 0 0 0 0 0];

internalField   nonuniform List<symmTensor> 
256
(
(-0.00661295 0.00864317 -0.000376795 0.0252025 0.00455555 -0.00266337)
(-0.00220725 0.00732728 -0.00115605 0.00597467 0.00155912 -0.000969752)
(0.00115566 0.00683272 -0.00118224 -0.00687402 -0.00229087 0.00118375)
(0.00521846 0.00730697 -0.000478664 -0.0249606 -0.00557747 0.0029038)
(-0.011691 0.00361366 -0.000422809 0.0162354 -0.00144494 -0.00398537)
(-0.00469008 0.00950377 -0.00181568 0.00620325 -0.000655736 -0.00141386)
(0.00211768 0.00929533 -0.00188021 -0.00519036 0.000324112 0.00193827)
(0.00899857 0.0034597 -0.000655638 -0.0152963 0.000984762 0.00466804)
(-0.00986185 0.00446063 -0.000143799 0.0151363 -0.000793714 -0.00225207)
(-0.00484168 0.00924248 -0.00122405 0.00563062 -0.000335387 -0.000696579)
(0.00150835 0.00923566 -0.00127349 -0.00420647 2.28748e-05 0.0014519)
(0.00668954 0.00448102 -0.000386378 -0.0137883 0.000433975 0.00327912)
(-0.0085408 0.00395148 -0.000133658 0.0113246 -0.00113941 -0.00122228)
(-0.00441384 0.00848887 -0.000990552 0.0044568 -0.000401069 -0.000239411)
(0.000806918 0.00852928 -0.00102739 -0.00293368 0.000152891 0.00124378)
(0.00504808 0.00402819 -0.000398971 -0.00979788 0.000869611 0.00252427)
(-0.00703774 0.00346647 -7.73188e-05 0.00813874 -0.00105143 -7.97407e-05)
(-0.00391988 0.00736899 -0.000779099 0.00336647 -0.000346775 0.000232151)
(0.000218837 0.00744412 -0.000809243 -0.00188228 0.00015151 0.000958099)
(0.00336049 0.00359707 -0.000346922 -0.0065373 0.000861223 0.00158408)
(-0.00587353 0.00270736 -8.70913e-05 0.0054005 -0.000923264 0.000851492)
(-0.00349961 0.00596344 -0.000667603 0.00240725 -0.000305197 0.000619493)
(-0.000230091 0.00609153 -0.000677318 -0.00102982 0.000136089 0.000717257)
(0.00205924 0.00294743 -0.000334108 -0.00376442 0.000800956 0.000787976)
(-0.00515562 0.00177731 -0.000167354 0.00356697 -0.000771341 0.00163371)
(-0.00330164 0.00438741 -0.000637831 0.00170991 -0.00030378 0.000968269)
(-0.000566957 0.00452317 -0.000611807 -0.000388388 7.85557e-05 0.000511225)
(0.00122069 0.00216164 -0.000351538 -0.00178093 0.000629562 0.000104988)
(-0.00548514 0.00102194 -0.000252079 0.00260663 -0.000450653 0.00226758)
(-0.00404158 0.00252416 -0.000594064 0.00155827 -0.000213994 0.00127527)
(-0.00057968 0.00243654 -0.000577916 0.000149128 -2.92341e-05 0.000340788)
(0.00117656 0.00106847 -0.000418761 -0.000705819 0.000214992 -0.000443794)
(-0.00666368 0.0098795 -0.000229592 0.024516 0.00282279 -0.00176963)
(-0.00203682 0.00888165 -0.00092622 0.00583106 0.000878285 -0.000659931)
(0.00106243 0.00845575 -0.00101435 -0.0059365 -0.00164311 0.000792036)
(0.00522162 0.00860198 -0.000441818 -0.0234881 -0.00384083 0.00202)
(-0.0117272 0.0037374 -0.000314914 0.0177427 -0.000544492 -0.00314862)
(-0.00431284 0.00984755 -0.00169463 0.0069523 -0.000383967 -0.00114422)
(0.00195032 0.00973352 -0.00188293 -0.00595131 -0.000180236 0.00153817)
(0.00902577 0.00373583 -0.000765959 -0.0168718 -0.000134612 0.00385878)
(-0.00968173 0.00393149 -8.95888e-05 0.015261 -0.00125078 -0.00223233)
(-0.0043422 0.00849788 -0.00131612 0.00574939 -0.000532493 -0.00075248)
(0.00137708 0.00851946 -0.00151952 -0.00430826 0.000163366 0.00136771)
(0.00661006 0.00396135 -0.000611122 -0.0138839 0.000816948 0.00327316)
(-0.00820981 0.0032976 8.1875e-05 0.011467 -0.00156121 -0.00112084)
(-0.00385196 0.00738207 -0.00090787 0.00455171 -0.000569126 -0.000312265)
(0.000683582 0.00742937 -0.00112226 -0.00295735 0.000331523 0.0010985)
(0.00483658 0.00336675 -0.000496778 -0.00985649 0.00129799 0.00238874)
(-0.00669734 0.00274096 0.000237346 0.00810696 -0.00156322 -1.1811e-05)
(-0.00335915 0.00616301 -0.000581838 0.00339295 -0.000535766 0.000113649)
(0.000124868 0.00623513 -0.000801862 -0.00178235 0.000386899 0.00081875)
(0.00314004 0.00285763 -0.00036747 -0.00636753 0.00142872 0.00145204)
(-0.00553858 0.00204704 0.00031759 0.00533159 -0.00138615 0.000955939)
(-0.0029579 0.0048629 -0.000365325 0.00241369 -0.000472665 0.000492707)
(-0.000308906 0.00498231 -0.000571962 -0.000860918 0.00035212 0.000577341)
(0.00182604 0.00227672 -0.00027397 -0.0034998 0.00133516 0.000616459)
(-0.00484156 0.00122704 0.000311446 0.00347228 -0.0010922 0.00175094)
(-0.0027976 0.00351503 -0.000262188 0.0016794 -0.00041434 0.000830623)
(-0.000631576 0.00365114 -0.000440666 -0.000182824 0.000229432 0.000398108)
(0.000989927 0.00164123 -0.000221145 -0.00144089 0.0010345 -5.43174e-05)
(-0.00517874 0.0007599 0.000252191 0.00254624 -0.000627954 0.00238207)
(-0.00358451 0.0020822 -0.000236559 0.00152918 -0.000280608 0.00112638)
(-0.000676774 0.00199147 -0.00044739 0.000289189 4.7098e-05 0.000263561)
(0.000922109 0.000830667 -0.000297139 -0.000465262 0.000474309 -0.000564481)
(-0.00699621 0.0104125 -0.000151344 0.0247583 0.00140481 -0.00101986)
(-0.00217079 0.00930256 -0.000591915 0.00593068 0.000355235 -0.000359726)
(0.00112483 0.00883986 -0.000665893 -0.00574797 -0.00103656 0.00049181)
(0.00544481 0.00900425 -0.000308983 -0.0234724 -0.00222578 0.00122565)
(-0.012361 0.00382288 -0.00025407 0.0174138 -0.000366398 -0.00192563)
(-0.00460762 0.0100392 -0.00114572 0.00701172 -0.000313665 -0.000636768)
(0.00210067 0.0099303 -0.00130703 -0.00577225 -0.000234224 0.00102919)
(0.00949524 0.0038222 -0.000594686 -0.0163445 -0.000216682 0.0024942)
(-0.0101657 0.00388781 -0.000135176 0.0151889 -0.000963239 -0.00148981)
(-0.00460133 0.00844701 -0.000973043 0.00584115 -0.000456668 -0.000405364)
(0.0014983 0.00846655 -0.00115102 -0.00421032 8.38561e-05 0.00102968)
(0.00696057 0.00388439 -0.000523433 -0.0136078 0.000570938 0.00233298)
(-0.00850784 0.00318682 3.34894e-06 0.0114674 -0.00126642 -0.000755138)
(-0.00402291 0.00711232 -0.000687231 0.0046285 -0.000503331 -8.4374e-05)
(0.000710907 0.00715592 -0.00087216 -0.00285122 0.000274002 0.000902112)
(0.00498521 0.00323306 -0.000411735 -0.00965772 0.00103604 0.00181513)
(-0.00688817 0.00257311 0.000129755 0.00817628 -0.00131644 6.06291e-05)
(-0.00347925 0.00579972 -0.000412884 0.0034767 -0.000481779 0.000254885)
(8.94253e-05 0.00587465 -0.000599397 -0.00168391 0.000356011 0.000734533)
(0.00316042 0.00268499 -0.000293133 -0.00622503 0.00121498 0.00117781)
(-0.00564855 0.00186001 0.000209271 0.00546347 -0.00119247 0.000817326)
(-0.00303791 0.00448684 -0.000216119 0.00249817 -0.000424262 0.000573381)
(-0.00039347 0.00462379 -0.000391168 -0.00076924 0.000344801 0.000584014)
(0.0017393 0.00211772 -0.000196727 -0.00340744 0.0011747 0.000579667)
(-0.00488139 0.00103414 0.000222429 0.00367593 -0.000940348 0.00145521)
(-0.00284528 0.00319925 -0.000123664 0.00176175 -0.000353616 0.000862014)
(-0.000759738 0.00337059 -0.000282202 -0.000107709 0.000242387 0.000485669)
(0.000811936 0.00152655 -0.000146008 -0.00139546 0.000935593 0.000108211)
(-0.00515434 0.000666796 0.000168038 0.00275503 -0.000507247 0.00192831)
(-0.00363239 0.00192387 -0.000151435 0.0016215 -0.000212442 0.00110066)
(-0.000899147 0.00185346 -0.000353096 0.000351449 6.28038e-05 0.000452776)
(0.000636936 0.000787555 -0.000244716 -0.000441916 0.000422596 -0.000169213)
(-0.00723846 0.0106241 -8.12493e-05 0.0248997 0.000601155 -0.000530585)
(-0.00228812 0.00940012 -0.000352218 0.00598963 8.32541e-05 -0.000169692)
(0.00115728 0.00889431 -0.000402391 -0.00564345 -0.000643208 0.000308673)
(0.00560331 0.00910415 -0.000192233 -0.0234271 -0.00123517 0.000713662)
(-0.0128321 0.00385409 -0.00014726 0.0171193 -0.000308595 -0.001009)
(-0.00487039 0.0101389 -0.000714568 0.00702267 -0.000259444 -0.000279672)
(0.00217023 0.010021 -0.000826641 -0.00556009 -0.000203411 0.000684747)
(0.00981675 0.00384868 -0.000391938 -0.0158683 -0.000156798 0.00151207)
(-0.0105912 0.00391829 -9.25234e-05 0.0150412 -0.000688566 -0.000756678)
(-0.00487483 0.008506 -0.000653407 0.00588572 -0.00035024 -0.000110306)
(0.00154776 0.00852357 -0.000778219 -0.00403472 2.72543e-05 0.000754766)
(0.00723797 0.00390425 -0.00037061 -0.0132432 0.00036886 0.00151382)
(-0.00884217 0.00318926 -7.10685e-06 0.0114278 -0.000907407 -0.000278063)
(-0.00425938 0.00710813 -0.000482598 0.0046944 -0.000382619 0.000131384)
(0.00070766 0.00715229 -0.000608977 -0.00270669 0.000183329 0.000727343)
(0.00515929 0.00323185 -0.00029765 -0.00940017 0.00071712 0.0012569)
(-0.00712443 0.00254925 8.04116e-05 0.008235 -0.000965301 0.000291249)
(-0.00367826 0.00574523 -0.000294612 0.00356387 -0.000368999 0.00039748)
(3.71299e-05 0.00582747 -0.000418788 -0.00157239 0.000262704 0.000660259)
(0.00322249 0.00267082 -0.000209596 -0.00606544 0.000881821 0.000886141)
(-0.00580298 0.00181323 0.000140333 0.00560415 -0.000897025 0.000847647)
(-0.00320279 0.00440325 -0.000152517 0.00259906 -0.000328902 0.000658374)
(-0.000485808 0.00455882 -0.000267135 -0.000687925 0.00026761 0.000598961)
(0.00170173 0.00210258 -0.000134867 -0.0033294 0.000882144 0.000519147)
(-0.00496313 0.000968634 0.000151487 0.00388986 -0.000727503 0.00133273)
(-0.00298327 0.00311549 -9.54795e-05 0.00187074 -0.000275325 0.000903776)
(-0.00089366 0.00331466 -0.000200726 -5.14676e-05 0.000195145 0.000579952)
(0.000679925 0.00151981 -0.000100221 -0.00137321 0.000722164 0.000240679)
(-0.00518266 0.000637864 9.38282e-05 0.00299398 -0.000413076 0.00170474)
(-0.00377939 0.00187841 -0.000162324 0.00174966 -0.000169974 0.00112291)
(-0.00111581 0.0018178 -0.00030463 0.000397812 5.24222e-05 0.000633399)
(0.000403586 0.000786811 -0.000198772 -0.000455635 0.00033238 0.000137703)
(-0.00739045 0.0106978 -3.71803e-05 0.0249557 0.000197977 -0.000246694)
(-0.00236577 0.00938989 -0.000198464 0.00602717 -3.51285e-05 -6.01539e-05)
(0.00116701 0.00885134 -0.000230546 -0.00556087 -0.000393695 0.000198698)
(0.00568768 0.00909492 -0.00011236 -0.0233251 -0.000665918 0.000410981)
(-0.0131434 0.00385659 -7.1118e-05 0.016945 -0.000261368 -0.000442324)
(-0.00504806 0.0101686 -0.000419956 0.00703821 -0.000205982 -6.19076e-05)
(0.00218802 0.0100433 -0.00049355 -0.00539035 -0.000155981 0.000467282)
(0.00999521 0.0038506 -0.000239751 -0.0155415 -9.45978e-05 0.000902939)
(-0.0109012 0.00394104 -4.76883e-05 0.0149326 -0.000482383 -0.000246666)
(-0.00507104 0.00855712 -0.000408748 0.0059207 -0.000254733 8.74632e-05)
(0.00155203 0.00857599 -0.000491709 -0.00387451 -7.31743e-07 0.000564063)
(0.0074046 0.00392616 -0.000239368 -0.0129489 0.000236469 0.000957756)
(-0.00911234 0.00321172 4.58529e-07 0.0113899 -0.000618743 9.69458e-05)
(-0.00444132 0.00715687 -0.000314969 0.00474878 -0.00027147 0.000286128)
(0.000685508 0.00720475 -0.000397305 -0.00257112 0.000111849 0.000594433)
(0.00527243 0.00325862 -0.000196781 -0.00917106 0.000469621 0.0008434)
(-0.00733751 0.00256308 5.44593e-05 0.00827093 -0.000663643 0.000510768)
(-0.0038388 0.00577808 -0.000198865 0.0036357 -0.000262168 0.000505992)
(-1.25663e-05 0.00586814 -0.000278011 -0.00146704 0.000174755 0.000595367)
(0.00326794 0.00269725 -0.000139584 -0.00591271 0.000593989 0.000647042)
(-0.00596123 0.00181232 9.24751e-05 0.00570177 -0.000630168 0.00092963)
(-0.00334113 0.00441633 -0.000109112 0.00268204 -0.000237359 0.000728757)
(-0.000560549 0.00458594 -0.000180989 -0.000612541 0.000184423 0.00060014)
(0.00167976 0.00212719 -9.03428e-05 -0.00324445 0.000609474 0.000446563)
(-0.00507167 0.000950887 9.52347e-05 0.00403771 -0.000526263 0.0013094)
(-0.0031057 0.00311434 -8.35225e-05 0.0019593 -0.000202799 0.000947037)
(-0.000997396 0.00333049 -0.000149784 2.22842e-07 0.000135789 0.000641071)
(0.000591921 0.00154237 -7.27322e-05 -0.00133508 0.000508779 0.000310923)
(-0.0052611 0.000632794 3.77554e-05 0.00315839 -0.000308043 0.00160433)
(-0.00391542 0.00187745 -0.000164194 0.00185144 -0.000128061 0.00114963)
(-0.00127579 0.00181701 -0.000257747 0.00044331 3.31368e-05 0.000751799)
(0.000248835 0.000796546 -0.000160779 -0.000447713 0.00023433 0.000327554)
(-0.00747864 0.0107165 -1.3216e-05 0.024971 2.42699e-05 -8.8911e-05)
(-0.00241405 0.0093529 -0.000105149 0.00605322 -6.76668e-05 -3.29489e-07)
(0.0011668 0.00879164 -0.0001247 -0.00549592 -0.000232147 0.000133784)
(0.00572597 0.00905596 -6.17327e-05 -0.0232155 -0.000344565 0.000238387)
(-0.0133325 0.00384703 -2.65029e-05 0.0168518 -0.000201062 -0.000114303)
(-0.00516057 0.0101637 -0.000231075 0.00705845 -0.000150007 6.16413e-05)
(0.00218492 0.0100335 -0.000276999 -0.00526745 -0.00010808 0.000334812)
(0.0100824 0.00384292 -0.000136818 -0.0153286 -5.08503e-05 0.000545194)
(-0.0111027 0.003951 -1.69442e-05 0.0148713 -0.000321819 7.03738e-05)
(-0.00519963 0.0085839 -0.000237092 0.00595201 -0.00017314 0.000206856)
(0.00154041 0.00860483 -0.000289482 -0.00375313 -1.02628e-05 0.000441024)
(0.00749312 0.00393851 -0.000142621 -0.012744 0.000147251 0.000613494)
(-0.00929815 0.00322919 8.44938e-06 0.0113677 -0.000399353 0.000348803)
(-0.0045648 0.00719889 -0.000189401 0.00479162 -0.00017975 0.000384538)
(0.000660818 0.00725061 -0.000240723 -0.0024648 6.35407e-05 0.000503141)
(0.00533413 0.00328203 -0.000119817 -0.00900061 0.000291603 0.000572787)
(-0.00749322 0.00257966 3.9063e-05 0.00829203 -0.000428267 0.000677192)
(-0.00395069 0.0058199 -0.000123655 0.00368869 -0.000173256 0.000579155)
(-5.15719e-05 0.00591624 -0.000172256 -0.00138223 0.000106861 0.000545872)
(0.00329214 0.00272476 -8.61755e-05 -0.00578934 0.000373985 0.000477963)
(-0.00608484 0.00182075 6.04522e-05 0.00576011 -0.000412931 0.00101595)
(-0.00343975 0.00444767 -7.29831e-05 0.00274069 -0.000159034 0.000780475)
(-0.000613581 0.00462707 -0.000116617 -0.000550766 0.000115343 0.000594105)
(0.00166367 0.0021542 -5.73221e-05 -0.00316701 0.000389673 0.000381584)
(-0.00516525 0.00094654 5.80877e-05 0.00412625 -0.000352929 0.00133302)
(-0.00319529 0.00313171 -6.66946e-05 0.00202003 -0.000138606 0.000983416)
(-0.00106807 0.00335859 -0.000107039 4.31446e-05 8.44525e-05 0.000674938)
(0.000535445 0.00156534 -5.08922e-05 -0.0012913 0.000329129 0.000337834)
(-0.00533964 0.000631959 1.13337e-05 0.00326157 -0.000212818 0.0015844)
(-0.00401734 0.00188521 -0.000137818 0.00192236 -8.98107e-05 0.00117645)
(-0.00138094 0.00182309 -0.000196813 0.000482273 1.75612e-05 0.000818449)
(0.000152785 0.000804563 -0.000118997 -0.00042731 0.000151419 0.000423903)
(-0.00752616 0.0107168 -3.00623e-06 0.0249712 -2.52155e-05 -6.82962e-06)
(-0.00244189 0.00931983 -4.96519e-05 0.00607042 -5.48444e-05 3.02293e-05)
(0.00116375 0.00874431 -6.01739e-05 -0.00545096 -0.000121752 9.76555e-05)
(0.00574087 0.00902003 -3.01726e-05 -0.0231299 -0.00016122 0.00014574)
(-0.0134384 0.0038362 -6.53842e-06 0.0168056 -0.000126742 6.10159e-05)
(-0.00522633 0.0101493 -0.000112577 0.00707641 -9.13052e-05 0.000126521)
(0.00217671 0.0100162 -0.000137724 -0.0051879 -6.31271e-05 0.000259468)
(0.0101203 0.00383426 -6.8863e-05 -0.0152 -2.36767e-05 0.000349241)
(-0.0112211 0.0039535 -2.95126e-06 0.0148419 -0.000185742 0.000247707)
(-0.00527645 0.00859392 -0.000120368 0.00597621 -0.000100801 0.000272403)
(0.00152734 0.00861656 -0.000149324 -0.00367348 -9.51471e-06 0.000368446)
(0.00753573 0.00394363 -7.40974e-05 -0.0126168 8.11421e-05 0.000418447)
(-0.00941135 0.00323887 8.98408e-06 0.0113579 -0.000224531 0.000496892)
(-0.00464005 0.00722406 -9.88515e-05 0.00482157 -0.00010261 0.000440856)
(0.000641559 0.00727859 -0.000127013 -0.00239372 3.18727e-05 0.000447203)
(0.00536404 0.0032965 -6.33252e-05 -0.00889112 0.00015901 0.000413931)
(-0.00759166 0.0025907 2.41845e-05 0.00830426 -0.000240129 0.000782842)
(-0.00401993 0.00584911 -6.63033e-05 0.00372326 -9.86684e-05 0.000623276)
(-7.78411e-05 0.00594962 -9.27516e-05 -0.00132441 5.67546e-05 0.000513551)
(0.00330267 0.00274339 -4.61851e-05 -0.00570558 0.000205064 0.00037335)
(-0.00616623 0.00182759 3.44785e-05 0.00579136 -0.00023374 0.00108011)
(-0.00350161 0.00447202 -4.16704e-05 0.00277712 -9.14618e-05 0.000814054)
(-0.000647021 0.00465752 -6.52686e-05 -0.000507893 6.2075e-05 0.000587369)
(0.00165241 0.00217301 -3.16942e-05 -0.0031102 0.000215363 0.000335285)
(-0.00523049 0.00094537 3.08939e-05 0.00417349 -0.000203007 0.00136385)
(-0.0032523 0.00314646 -4.30155e-05 0.00205663 -8.08754e-05 0.00100934)
(-0.00111105 0.00337956 -6.48871e-05 7.3395e-05 4.49755e-05 0.000691666)
(0.000502347 0.00158096 -3.05467e-05 -0.00125534 0.000182988 0.000343948)
(-0.00539837 0.000632329 4.36218e-07 0.00331815 -0.000125387 0.00159216)
(-0.00408315 0.00189219 -9.04875e-05 0.00196536 -5.3315e-05 0.00119699)
(-0.00144337 0.00182793 -0.000123207 0.000510514 7.89247e-06 0.000851987)
(9.86339e-05 0.000809291 -7.33712e-05 -0.00040619 8.39642e-05 0.00046645)
(-0.00754672 0.0107142 -2.58816e-07 0.0249689 -1.43716e-05 2.78862e-05)
(-0.0024546 0.00930161 -1.44461e-05 0.00607907 -2.03978e-05 4.29682e-05)
(0.00116147 0.00871924 -1.77591e-05 -0.005428 -3.78562e-05 8.15108e-05)
(0.00574546 0.00899991 -8.97112e-06 -0.023084 -4.67908e-05 0.000105412)
(-0.0134855 0.00382964 -7.43661e-07 0.0167868 -4.32704e-05 0.000136388)
(-0.00525659 0.0101392 -3.33742e-05 0.0070867 -3.06632e-05 0.000154044)
(0.00217104 0.0100047 -4.13648e-05 -0.00514884 -2.07273e-05 0.000225344)
(0.0101338 0.00382905 -2.08197e-05 -0.0151392 -6.7564e-06 0.000262867)
(-0.0112753 0.00395345 1.40467e-07 0.0148305 -6.0855e-05 0.000325995)
(-0.00531224 0.00859638 -3.65443e-05 0.00598937 -3.31406e-05 0.000300998)
(0.00151951 0.00861994 -4.57893e-05 -0.00363423 -3.68134e-06 0.000334877)
(0.00755245 0.00394515 -2.27972e-05 -0.0125562 2.59799e-05 0.000330759)
(-0.00946423 0.00324284 3.58858e-06 0.0113548 -7.25574e-05 0.000564196)
(-0.00467549 0.00723506 -3.04933e-05 0.00483701 -3.33948e-05 0.000466117)
(0.000631276 0.00729103 -3.94539e-05 -0.00235842 9.62108e-06 0.000420795)
(0.0053758 0.00330304 -1.96769e-05 -0.00883805 5.0521e-05 0.00034107)
(-0.00763856 0.0025958 8.13021e-06 0.00830999 -7.74483e-05 0.000833021)
(-0.0040528 0.00586311 -2.07873e-05 0.00374028 -3.20687e-05 0.000643792)
(-9.09678e-05 0.00596566 -2.9171e-05 -0.00129539 1.76963e-05 0.000497767)
(0.00330625 0.00275232 -1.44826e-05 -0.00566376 6.52611e-05 0.000323883)
(-0.00620578 0.00183088 1.11088e-05 0.00580471 -7.57451e-05 0.00111314)
(-0.00353117 0.00448421 -1.35709e-05 0.00279442 -2.988e-05 0.000830424)
(-0.000663113 0.00467257 -2.10266e-05 -0.000486127 1.94774e-05 0.000583322)
(0.00164657 0.00218215 -1.01433e-05 -0.00308061 6.87596e-05 0.000311609)
(-0.00526289 0.000944885 9.4689e-06 0.00419325 -6.63976e-05 0.00138283)
(-0.00327969 0.003154 -1.49169e-05 0.00207359 -2.6626e-05 0.00102261)
(-0.00113123 0.00338983 -2.18254e-05 8.89472e-05 1.40178e-05 0.000698301)
(0.000487108 0.0015884 -1.02381e-05 -0.00123557 5.85659e-05 0.000343615)
(-0.00542805 0.000632869 -1.17148e-06 0.00334214 -4.17944e-05 0.00160146)
(-0.00411483 0.00189612 -3.14982e-05 0.00198544 -1.77297e-05 0.00120776)
(-0.00147237 0.00183013 -4.19643e-05 0.000525397 2.2436e-06 0.000865432)
(7.43197e-05 0.000811184 -2.48595e-05 -0.000393452 2.68534e-05 0.000481293)
)
;

boundaryField
{
    interface
    {
        type            calculated;
        value           nonuniform List<symmTensor> 
192
(
(-0.0242663 -1.12966e-05 0.00033935 0.0381121 0.00565686 -0.00327415)
(-0.011438 1.01066e-05 0.000579503 0.020529 -0.00174113 -0.00488615)
(-0.0123254 3.22141e-05 0.000699422 0.0197329 -0.00107771 -0.00275394)
(-0.00968889 3.51669e-05 0.00076754 0.0144981 -0.00160168 -0.00148312)
(-0.00785235 -1.88578e-06 0.000807946 0.0102696 -0.00150889 -4.85048e-05)
(-0.00624509 -9.33441e-05 0.000821182 0.00663858 -0.00132758 0.0011164)
(-0.00537641 -0.000268856 0.00079579 0.00433673 -0.00105659 0.00206432)
(-0.00490334 -0.000539632 0.000699006 0.00296048 -0.000584907 0.00279773)
(-0.024679 1.41732e-05 0.000247367 0.037409 0.00354855 -0.00216638)
(-0.0133064 4.67111e-05 0.000425627 0.0220521 -0.00059428 -0.00384621)
(-0.0125734 7.42818e-05 0.000513124 0.0197567 -0.00161883 -0.00269597)
(-0.0101455 7.00969e-05 0.00056169 0.0146283 -0.00210219 -0.00127216)
(-0.00821485 1.70093e-05 0.000587511 0.0102169 -0.00213335 0.00016501)
(-0.00666801 -0.000103048 0.000591103 0.00657468 -0.00189973 0.00141338)
(-0.00582307 -0.00032678 0.000564775 0.00428721 -0.00146654 0.00241346)
(-0.00527935 -0.000646602 0.000490297 0.00294263 -0.000814563 0.00317247)
(-0.0256697 2.19504e-05 0.000179905 0.0378516 0.00178686 -0.00126683)
(-0.0139176 5.98161e-05 0.000308179 0.0213965 -0.000374503 -0.0024099)
(-0.0130537 9.04454e-05 0.000366252 0.0195238 -0.00119886 -0.00188965)
(-0.0104118 8.31062e-05 0.00039544 0.014565 -0.00164157 -0.000968557)
(-0.00830064 2.06792e-05 0.000409358 0.0102747 -0.00173678 6.90247e-05)
(-0.0066391 -0.000116213 0.000408855 0.00674974 -0.0015871 0.00103106)
(-0.00572997 -0.000365309 0.000390396 0.00459662 -0.00124459 0.00182883)
(-0.00499928 -0.000703235 0.000343813 0.00324186 -0.000666358 0.00240094)
(-0.0263124 2.37387e-05 0.000132817 0.0381055 0.000772047 -0.000660521)
(-0.0144067 6.38079e-05 0.000227902 0.0208979 -0.000328102 -0.00127362)
(-0.013536 9.59441e-05 0.000268916 0.0192495 -0.000839772 -0.000989459)
(-0.0107794 8.6755e-05 0.000287922 0.0144576 -0.00115129 -0.00040933)
(-0.00854495 1.83886e-05 0.000296314 0.0103138 -0.00124995 0.000296584)
(-0.00678328 -0.000128977 0.000295302 0.0069143 -0.00117488 0.000989053)
(-0.00580562 -0.00039296 0.00028354 0.00488041 -0.000954454 0.00158451)
(-0.00496713 -0.000739485 0.000253142 0.003545 -0.000543004 0.00202497)
(-0.0266628 2.38045e-05 9.61611e-05 0.0382046 0.000260681 -0.000308734)
(-0.014732 6.44884e-05 0.000165665 0.0206113 -0.000291155 -0.000568531)
(-0.0138801 9.70945e-05 0.000194962 0.0190607 -0.000585102 -0.000353311)
(-0.011072 8.66931e-05 0.000207855 0.0143676 -0.000776438 5.12472e-05)
(-0.00876838 1.46013e-05 0.000213393 0.0103287 -0.000849889 0.000550082)
(-0.00693981 -0.000139312 0.000212863 0.00701908 -0.000817567 0.00105754)
(-0.00591237 -0.000412721 0.000205785 0.00506439 -0.000686763 0.00151216)
(-0.00499407 -0.000764407 0.000185496 0.00374263 -0.000404898 0.00185187)
(-0.0268437 2.34237e-05 6.53978e-05 0.0382286 3.86527e-05 -0.000113386)
(-0.0149333 6.40989e-05 0.000113106 0.0204561 -0.000230865 -0.000160033)
(-0.0141051 9.67129e-05 0.000133058 0.0189527 -0.000390769 4.44019e-05)
(-0.0112761 8.5498e-05 0.000141616 0.0143119 -0.000498913 0.000366285)
(-0.00893658 1.1103e-05 0.000145314 0.0103327 -0.000545421 0.000753166)
(-0.00707001 -0.000146902 0.000145222 0.00707643 -0.000533121 0.00115405)
(-0.00601323 -0.000426403 0.000141117 0.00516915 -0.000459496 0.0015256)
(-0.00505264 -0.000781399 0.000127873 0.00386203 -0.000279829 0.00180888)
(-0.0269311 2.31262e-05 3.7775e-05 0.0382252 -2.6791e-05 -1.20762e-05)
(-0.0150462 6.36155e-05 6.55948e-05 0.0203765 -0.000147926 5.76792e-05)
(-0.014237 9.60599e-05 7.71656e-05 0.0188979 -0.000226106 0.000266523)
(-0.0114006 8.4321e-05 8.20641e-05 0.014283 -0.000280179 0.000552149)
(-0.00904368 8.57022e-06 8.42244e-05 0.0103336 -0.00030512 0.000884228)
(-0.00715726 -0.000151923 8.42978e-05 0.00710448 -0.000301123 0.0012305)
(-0.00608468 -0.0004352 8.19372e-05 0.00522248 -0.00026411 0.00155814)
(-0.005102 -0.000791832 7.39033e-05 0.00392523 -0.000165101 0.00181167)
(-0.0269654 2.28955e-05 1.22272e-05 0.0382186 -1.64095e-05 3.06276e-05)
(-0.0150956 6.31852e-05 2.13052e-05 0.020343 -5.0853e-05 0.000150957)
(-0.0142965 9.55033e-05 2.50503e-05 0.0188754 -7.4197e-05 0.000364276)
(-0.0114579 8.3577e-05 2.66219e-05 0.0142713 -9.05307e-05 0.000636511)
(-0.00909398 7.22306e-06 2.73289e-05 0.0103338 -9.83396e-05 0.000946724)
(-0.00719926 -0.000154692 2.73724e-05 0.00711558 -9.75064e-05 0.00127063)
(-0.00611914 -0.000440127 2.65022e-05 0.00524384 -8.63871e-05 0.00157994)
(-0.00512602 -0.000795945 2.35937e-05 0.00395101 -5.51457e-05 0.00182115)
(-0.0067477 0.00778453 -0.000374839 0.0260398 -9.79008e-05 -0.0133086)
(-0.0120087 0.00355132 -0.00063673 0.0145854 -0.000150316 -0.00199813)
(-0.0102859 0.00493039 -0.000766175 0.0150198 -0.000151952 -0.00328691)
(-0.00899261 0.00450335 -0.00085488 0.0112006 -0.000130065 -0.0014882)
(-0.00745287 0.004052 -0.000934073 0.00820472 -0.000117853 -0.000438939)
(-0.00625015 0.00322208 -0.00101201 0.00552153 -0.000132182 0.000591977)
(-0.00548357 0.00218573 -0.00110475 0.00374302 -0.000175878 0.00127521)
(-0.00577513 0.00121558 -0.00127182 0.00273606 -0.000227581 0.00210704)
(-0.00244077 0.00610312 -0.000231133 0.00618534 -7.56233e-05 -0.00288672)
(-0.00520535 0.00928026 -0.000416401 0.00550912 -0.000139944 -0.000529344)
(-0.00544286 0.00990896 -0.000489785 0.00557771 -0.000165049 -0.000330618)
(-0.00501586 0.00935293 -0.000528661 0.00440363 -0.000149462 0.000240199)
(-0.00449374 0.00827519 -0.000563482 0.00337807 -0.000121977 0.000626206)
(-0.00403495 0.00676791 -0.000608645 0.00243276 -0.000102286 0.000978677)
(-0.003784 0.00501796 -0.0006878 0.00176578 -9.72318e-05 0.00126546)
(-0.00447509 0.00284853 -0.000889346 0.00161023 -8.99918e-05 0.00183623)
(0.00128842 0.00552842 -0.000173881 -0.00767658 -4.95126e-05 0.00390615)
(0.00238423 0.00898533 -0.000339767 -0.00436456 -0.000113861 0.000984361)
(0.00172069 0.00987464 -0.000409158 -0.00409289 -0.000151388 0.00129763)
(0.000952514 0.00938451 -0.000440505 -0.0028738 -0.000145501 0.0010465)
(0.000303177 0.00835363 -0.000463603 -0.00193779 -0.000117538 0.000889448)
(-0.000186061 0.00691221 -0.00049673 -0.00114744 -8.74263e-05 0.000706519)
(-0.000557041 0.00517142 -0.000565234 -0.000547135 -6.42037e-05 0.000558274)
(-0.000583345 0.00277548 -0.00075519 4.88216e-05 -4.07325e-05 0.000183998)
(0.00533745 0.00632412 -0.000162425 -0.0264082 -4.04592e-05 0.0137449)
(0.00923834 0.00324698 -0.000339203 -0.0134684 -0.000106031 0.00251471)
(0.00694997 0.00491759 -0.000421695 -0.0136103 -0.000147647 0.00417569)
(0.00530642 0.00457013 -0.000460881 -0.00966918 -0.00014705 0.0026834)
(0.00356818 0.00418896 -0.000485544 -0.00664166 -0.000120589 0.00185154)
(0.00223048 0.00348385 -0.000517024 -0.00397173 -8.67125e-05 0.000978688)
(0.00135238 0.0025837 -0.000580368 -0.00208155 -5.12619e-05 0.000310804)
(0.00128484 0.00126883 -0.000753088 -0.000909806 -6.00597e-06 -0.000421199)
(0.0218128 3.62522e-05 4.03371e-05 -0.0365352 -0.00690948 0.00355323)
(0.00921067 8.09976e-05 7.31343e-05 -0.0197437 0.00115863 0.00571679)
(0.00952207 0.000111627 7.61823e-05 -0.0184406 0.000661404 0.00401192)
(0.00655063 0.000115314 7.21119e-05 -0.0129656 0.0013087 0.00304398)
(0.00446686 0.000101955 7.46692e-05 -0.00858497 0.00132009 0.00182747)
(0.00267005 8.18775e-05 8.95473e-05 -0.00481718 0.00123851 0.000793922)
(0.00152802 4.93756e-05 0.000118184 -0.00216268 0.000980635 -7.90539e-05)
(0.00123691 -9.85767e-05 0.000152588 -0.000845936 0.0003767 -0.000756115)
(0.0215136 1.5688e-05 -8.02433e-06 -0.0350833 -0.00473611 0.00250897)
(0.0108408 4.29462e-05 -1.25582e-05 -0.0213667 -0.000181578 0.00480401)
(0.00937445 6.65703e-05 -2.16412e-05 -0.0184167 0.00112515 0.00407485)
(0.00654534 7.65016e-05 -2.86861e-05 -0.0130001 0.0018152 0.00292558)
(0.00431109 7.63009e-05 -2.76909e-05 -0.00838152 0.00200549 0.00168247)
(0.00251477 7.35024e-05 -1.74495e-05 -0.00453899 0.0018936 0.000564967)
(0.0013396 6.34971e-05 -5.02568e-07 -0.00181495 0.00149956 -0.000332287)
(0.00111208 -5.88248e-05 1.56842e-05 -0.000600173 0.000734622 -0.000995291)
(0.0222839 6.73854e-06 -1.66011e-05 -0.035273 -0.00269115 0.00152111)
(0.0114099 2.53644e-05 -2.61874e-05 -0.0205494 -0.000233827 0.00309787)
(0.00983464 4.62173e-05 -3.13673e-05 -0.0179657 0.000788448 0.00288589)
(0.00680896 6.09492e-05 -3.30615e-05 -0.0127256 0.00140872 0.00219904)
(0.00438011 7.03978e-05 -2.88179e-05 -0.00820673 0.00165056 0.00134409)
(0.00244145 7.93514e-05 -1.89863e-05 -0.0044574 0.00160922 0.000534455)
(0.00115193 8.09533e-05 -7.66695e-06 -0.00180768 0.00131543 -0.000112499)
(0.000744103 -1.88011e-05 -4.08105e-06 -0.000611725 0.000642947 -0.000498347)
(0.0227276 3.27358e-06 -1.59014e-05 -0.0353042 -0.00144814 0.000871239)
(0.0118088 1.76777e-05 -2.50365e-05 -0.0199088 -0.000136515 0.00183968)
(0.0102025 3.72813e-05 -2.74362e-05 -0.0174773 0.00052007 0.00182138)
(0.00705741 5.55703e-05 -2.60604e-05 -0.0123958 0.000965891 0.00146868)
(0.00448855 7.18962e-05 -2.0573e-05 -0.00801462 0.00118093 0.000960806)
(0.00242729 8.88765e-05 -1.23248e-05 -0.00437898 0.00119051 0.000450875)
(0.0010255 9.83446e-05 -5.43687e-06 -0.00180181 0.00100405 4.80599e-05)
(0.000504847 1.2888e-05 -6.7864e-06 -0.000650361 0.000503206 -0.000130059)
(0.0229086 1.87592e-06 -1.26374e-05 -0.0352048 -0.000750379 0.00048891)
(0.0120462 1.44623e-05 -1.99231e-05 -0.0195016 -5.75937e-05 0.00106361)
(0.0104276 3.39067e-05 -2.07547e-05 -0.0171109 0.000344577 0.00110233)
(0.00721949 5.49389e-05 -1.82773e-05 -0.0121143 0.000633672 0.000927539)
(0.00456812 7.60376e-05 -1.31611e-05 -0.00783318 0.000791561 0.000643877)
(0.00242285 9.8181e-05 -7.0773e-06 -0.00428435 0.000818201 0.000348636)
(0.000938697 0.000112157 -3.5529e-06 -0.0017636 0.000706234 0.000127143)
(0.000345237 3.57479e-05 -7.63154e-06 -0.000653131 0.00035752 9.40145e-05)
(0.0229583 1.38341e-06 -8.72427e-06 -0.0350715 -0.000370348 0.000272983)
(0.0121734 1.33917e-05 -1.37213e-05 -0.0192498 -1.42899e-05 0.000612618)
(0.0105519 3.32105e-05 -1.37675e-05 -0.0168666 0.000221599 0.000662304)
(0.00731155 5.62328e-05 -1.13772e-05 -0.0119116 0.000396433 0.000577046)
(0.00461377 8.038e-05 -7.47526e-06 -0.00768823 0.000498875 0.000421271)
(0.0024184 0.000105531 -3.55845e-06 -0.00419506 0.000523367 0.000258053)
(0.000883011 0.00012196 -2.19897e-06 -0.00171275 0.000458567 0.000152177)