/*--------------------------------*- C++ -*----------------------------------*\
| =========                 |                                                 |
| \\      /  F ield         | foam-extend: Open Source CFD                    |
|  \\    /   O peration     | Version:     3.1                                |
|   \\  /    A nd           | Web:         http://www.extend-project.de       |
|    \\/     M anipulation  |                                                 |
\*---------------------------------------------------------------------------*/
FoamFile
{
    version     2.0;
    format      ascii;
    class       pointVectorField;
    location    "3.9";
    object      pointD;
}
// * * * * * * * * * * * * * * * * * * * * * * * * * * * * * * * * * * * * * //

dimensions      [0 1 0 0 0 0 0];

internalField   nonuniform List<vector> 
405
(
(0 0 0)
(0 0 0)
(0 0 0)
(0 0 0)
(0 0 0)
(0.000884156 0.000940864 0.000389127)
(0.000541536 0.000320903 0.000241462)
(0.000417448 -2.21869e-05 -2.65291e-05)
(0.000479845 -0.000372328 -0.000301873)
(0.000741952 -0.000987511 -0.00047344)
(0.00177437 0.00138743 0.000259221)
(0.00149118 0.000564526 0.000155289)
(0.00134331 -2.62221e-05 -4.96233e-05)
(0.00138864 -0.00062082 -0.000268163)
(0.00156474 -0.00144753 -0.000412502)
(0.00297663 0.00184488 0.00014198)
(0.00270709 0.000794488 7.82026e-05)
(0.00256046 -3.70783e-05 -7.32598e-05)
(0.00257917 -0.000873271 -0.000238922)
(0.00271326 -0.00193588 -0.000349911)
(0.00433772 0.00216427 -1.53069e-05)
(0.00410404 0.000956111 -1.74096e-05)
(0.0039645 -5.7312e-05 -9.44766e-05)
(0.00395839 -0.00107469 -0.000186422)
(0.00403682 -0.00229437 -0.000238963)
(0.00580922 0.00237844 -0.000165198)
(0.00560458 0.00106224 -0.000108011)
(0.00547193 -8.52052e-05 -0.000114843)
(0.00544614 -0.00123376 -0.000136262)
(0.00548139 -0.00255539 -0.000129735)
(0.00732433 0.00250139 -0.000297059)
(0.007142 0.00112141 -0.000189425)
(0.00701525 -0.000117751 -0.000136511)
(0.00697485 -0.00135319 -9.57497e-05)
(0.0069784 -0.00272712 -3.49067e-05)
(0.00884218 0.00256819 -0.000404462)
(0.00867007 0.00114856 -0.000262152)
(0.00854234 -0.000150058 -0.00016238)
(0.00849081 -0.00144099 -7.14994e-05)
(0.008478 -0.0028348 3.08074e-05)
(0.0103578 0.00259951 -0.000477233)
(0.0101573 0.00116369 -0.000317912)
(0.00999055 -0.000170906 -0.0001896)
(0.00994364 -0.00150193 -7.11705e-05)
(0.00994198 -0.0029046 4.95002e-05)
(0 0 0)
(0 0 0)
(0 0 0)
(0 0 0)
(0 0 0)
(0.000956287 0.000893447 0.000225076)
(0.00062754 0.000285032 0.000138661)
(0.000527697 -1.0825e-05 -2.09458e-05)
(0.000577735 -0.000306099 -0.000189398)
(0.000828393 -0.000905672 -0.000296234)
(0.00185116 0.00143146 0.000178142)
(0.00158677 0.000599793 0.000103338)
(0.00146828 -1.77501e-05 -4.28118e-05)
(0.00150147 -0.000635833 -0.00020041)
(0.00166605 -0.00147095 -0.000305065)
(0.0030112 0.00189591 8.49578e-05)
(0.00276528 0.000838161 4.22908e-05)
(0.00264864 -2.81393e-05 -6.26108e-05)
(0.00265745 -0.000896741 -0.000179867)
(0.00277697 -0.00196546 -0.000257452)
(0.0043252 0.00222491 -3.26253e-05)
(0.00411283 0.00100798 -2.97147e-05)
(0.00400132 -4.56309e-05 -8.11046e-05)
(0.00398827 -0.00110138 -0.000145473)
(0.00405508 -0.00232851 -0.000179562)
(0.00574513 0.00243807 -0.000150508)
(0.00556026 0.00111492 -0.000101367)
(0.00545395 -6.90197e-05 -9.94304e-05)
(0.00542352 -0.00125298 -0.000110237)
(0.00544902 -0.0025803 -9.78829e-05)
(0.00721397 0.00255686 -0.000256396)
(0.00704927 0.00117206 -0.000167032)
(0.00694682 -9.60263e-05 -0.00011938)
(0.00690357 -0.0013601 -8.27811e-05)
(0.00689926 -0.00273765 -2.72154e-05)
(0.00869446 0.00261646 -0.000342787)
(0.0085375 0.00119364 -0.00022501)
(0.00843159 -0.000123322 -0.000143187)
(0.0083796 -0.00143201 -7.03489e-05)
(0.00836132 -0.00282632 1.87796e-05)
(0.0101927 0.00264212 -0.000400274)
(0.0100062 0.0012037 -0.000269115)
(0.00985991 -0.000142037 -0.000168761)
(0.00981256 -0.00148274 -7.94847e-05)
(0.00980576 -0.00288358 2.30591e-05)
(0 0 0)
(0 0 0)
(0 0 0)
(0 0 0)
(0 0 0)
(0.0010095 0.000904856 0.000116609)
(0.000661969 0.000285703 6.99683e-05)
(0.000555881 -6.63539e-06 -1.8288e-05)
(0.000609963 -0.000298402 -0.000112903)
(0.000872646 -0.000912676 -0.000170963)
(0.00191143 0.0014259 9.37969e-05)
(0.00163003 0.000602442 4.9299e-05)
(0.00150447 -1.07795e-05 -3.73275e-05)
(0.00154415 -0.000625186 -0.000131451)
(0.00172311 -0.00145654 -0.000190813)
(0.00304864 0.0018877 3.42243e-05)
(0.00279605 0.000845957 7.77735e-06)
(0.00267672 -1.88215e-05 -5.49178e-05)
(0.00268766 -0.000886344 -0.000125428)
(0.00281167 -0.00194087 -0.000168474)
(0.00433387 0.00221782 -4.55639e-05)
(0.00411753 0.0010194 -4.37097e-05)
(0.00400483 -3.31368e-05 -7.15515e-05)
(0.00399208 -0.00108789 -0.000107401)
(0.0040606 -0.00229702 -0.000122521)
(0.00572005 0.00243451 -0.000129323)
(0.0055335 0.00112997 -9.68079e-05)
(0.00542709 -5.28767e-05 -8.8209e-05)
(0.0053955 -0.00123521 -8.72711e-05)
(0.00541992 -0.00254276 -7.09235e-05)
(0.00715643 0.00255912 -0.00020703)
(0.00699118 0.00119026 -0.000146739)
(0.00688953 -7.62447e-05 -0.000106362)
(0.00684415 -0.00133726 -7.24455e-05)
(0.00683682 -0.00269566 -2.60813e-05)
(0.00860917 0.00262745 -0.00027183)
(0.00845304 0.00121444 -0.000191105)
(0.0083487 -0.000100574 -0.000127808)
(0.00829378 -0.00140445 -6.97287e-05)
(0.00827067 -0.00278195 7.19407e-07)
(0.0100926 0.00265988 -0.000313209)
(0.00990812 0.00122635 -0.00022382)
(0.00976291 -0.000117243 -0.000151463)
(0.00970908 -0.00145145 -8.71666e-05)
(0.00969442 -0.0028371 -9.16108e-06)
(0 0 0)
(0 0 0)
(0 0 0)
(0 0 0)
(0 0 0)
(0.00103622 0.000912555 5.322e-05)
(0.000673839 0.000286622 3.13122e-05)
(0.000560816 -4.29397e-06 -1.56123e-05)
(0.000617353 -0.000294991 -6.64105e-05)
(0.000890048 -0.000916198 -9.49685e-05)
(0.00194068 0.00141815 3.65144e-05)
(0.00164589 0.000600682 1.58431e-05)
(0.00151205 -5.48388e-06 -3.15965e-05)
(0.00155492 -0.000613363 -8.34911e-05)
(0.001744 -0.00144027 -0.000112169)
(0.00306836 0.00187275 -3.09449e-06)
(0.00280569 0.000844294 -1.3289e-05)
(0.00267957 -1.04688e-05 -4.66781e-05)
(0.00269208 -0.000868355 -8.44558e-05)
(0.00282353 -0.00191035 -0.000103063)
(0.00433602 0.00220119 -5.67112e-05)
(0.00411325 0.00101945 -4.97287e-05)
(0.00399519 -2.15087e-05 -6.11452e-05)
(0.00398236 -0.00106468 -7.68677e-05)
(0.00405492 -0.00225699 -7.81507e-05)
(0.00570105 0.00242045 -0.000114737)
(0.00551095 0.00113328 -8.81782e-05)
(0.00540029 -3.78501e-05 -7.57651e-05)
(0.00536733 -0.00120788 -6.72852e-05)
(0.00539279 -0.00249676 -4.82193e-05)
(0.00711597 0.0025512 -0.00017013)
(0.00694919 0.00119786 -0.000125233)
(0.00684428 -5.79789e-05 -9.17226e-05)
(0.00679651 -0.00130685 -6.1281e-05)
(0.00678763 -0.00264675 -2.22181e-05)
(0.00854959 0.00262905 -0.000217473)
(0.00839393 0.00122692 -0.000158656)
(0.00828697 -7.94772e-05 -0.000110472)
(0.00822834 -0.001372 -6.46082e-05)
(0.00820085 -0.00273221 -9.00804e-06)
(0.0100215 0.00267126 -0.000247835)
(0.00983853 0.00124432 -0.000183701)
(0.00968966 -9.34206e-05 -0.000131739)
(0.00962854 -0.00141797 -8.45367e-05)
(0.00960623 -0.00278782 -2.47051e-05)
(0 0 0)
(0 0 0)
(0 0 0)
(0 0 0)
(0 0 0)
(0.0010484 0.000915781 2.01815e-05)
(0.000676364 0.000287104 1.12769e-05)
(0.000558598 -2.57161e-06 -1.25477e-05)
(0.000616011 -0.000292019 -3.86127e-05)
(0.000894385 -0.000914586 -5.14257e-05)
(0.00195292 0.00141231 5.82528e-06)
(0.00164838 0.000599153 -1.34932e-06)
(0.00150863 -1.13436e-06 -2.54047e-05)
(0.00155249 -0.000603166 -5.20963e-05)
(0.00174775 -0.00142583 -6.38152e-05)
(0.00307492 0.00186136 -2.19093e-05)
(0.00280373 0.000842085 -2.22932e-05)
(0.00267223 -3.24021e-06 -3.77055e-05)
(0.0026851 -0.000851704 -5.55764e-05)
(0.00282159 -0.00188461 -6.04466e-05)
(0.00433219 0.00218768 -5.83733e-05)
(0.004103 0.0010181 -4.80624e-05)
(0.00398039 -1.13144e-05 -4.96495e-05)
(0.00396711 -0.00104276 -5.35333e-05)
(0.00404278 -0.00222262 -4.74251e-05)
(0.00568421 0.00240825 -9.82588e-05)
(0.00548966 0.00113423 -7.5557e-05)
(0.00537525 -2.4712e-05 -6.18364e-05)
(0.0053411 -0.00118205 -5.00983e-05)
(0.00536765 -0.00245675 -3.09969e-05)
(0.00708528 0.00254313 -0.000137207)
(0.00691565 0.0012022 -0.00010258)
(0.00680769 -4.2092e-05 -7.5183e-05)
(0.00675802 -0.00127838 -4.91724e-05)
(0.0067483 -0.00260364 -1.70125e-05)
(0.00850592 0.0026275 -0.000171289)
(0.00834878 0.00123526 -0.000127348)
(0.00823906 -6.11155e-05 -9.07792e-05)
(0.00817749 -0.0013419 -5.51645e-05)
(0.00814714 -0.00268764 -1.19742e-05)
(0.00996875 0.0026763 -0.000192965)
(0.00978466 0.00125703 -0.000145927)
(0.00963192 -7.2499e-05 -0.000108512)
(0.00956538 -0.00138681 -7.38708e-05)
(0.00953809 -0.00274287 -2.84709e-05)
(0 0 0)
(0 0 0)
(0 0 0)
(0 0 0)
(0 0 0)
(0.00105335 0.000916692 4.7421e-06)
(0.000675619 0.00028738 2.04378e-06)
(0.000554845 -1.21498e-06 -9.33026e-06)
(0.000612391 -0.000289449 -2.19627e-05)
(0.000893479 -0.000911011 -2.69863e-05)
(0.00195661 0.00140828 -7.17083e-06)
(0.00164575 0.000598416 -7.92312e-06)
(0.00150211 2.39381e-06 -1.90072e-05)
(0.00154606 -0.000595234 -3.16471e-05)
(0.00174468 -0.00141419 -3.51048e-05)
(0.00307454 0.00185406 -2.65833e-05)
(0.00279742 0.000840975 -2.272e-05)
(0.00266222 2.67354e-06 -2.836e-05)
(0.00267491 -0.000838663 -3.53882e-05)
(0.00281427 -0.00186518 -3.40817e-05)
(0.00432528 0.00217894 -5.11402e-05)
(0.00409124 0.00101756 -4.05054e-05)
(0.00396539 -2.99245e-06 -3.75265e-05)
(0.00395158 -0.00102539 -3.57871e-05)
(0.00402911 -0.00219672 -2.74594e-05)
(0.00566914 0.00240013 -7.8003e-05)
(0.00547092 0.00113523 -5.95542e-05)
(0.00535378 -1.40643e-05 -4.6957e-05)
(0.00531873 -0.00116138 -3.53718e-05)
(0.00534596 -0.00242619 -1.88234e-05)
(0.00706121 0.00253741 -0.000104631)
(0.00688894 0.0012055 -7.85312e-05)
(0.0067787 -2.93203e-05 -5.73149e-05)
(0.00672772 -0.00125542 -3.67261e-05)
(0.00671746 -0.00257011 -1.18258e-05)
(0.00847282 0.0026257 -0.000128348)
(0.00831396 0.00124129 -9.61307e-05)
(0.0082021 -4.64392e-05 -6.93427e-05)
(0.00813855 -0.00131747 -4.29482e-05)
(0.00810641 -0.00265229 -1.09027e-05)
(0.00992851 0.00267874 -0.000143452)
(0.00974274 0.00126616 -0.000109408)
(0.00958698 -5.57609e-05 -8.29241e-05)
(0.00951691 -0.00136129 -5.81365e-05)
(0.00948656 -0.00270663 -2.49783e-05)
(0 0 0)
(0 0 0)
(0 0 0)
(0 0 0)
(0 0 0)
(0.0010551 0.00091667 -9.2754e-07)
(0.000674178 0.000287561 -1.17807e-06)
(0.000551589 -2.15173e-07 -6.14147e-06)
(0.000608999 -0.000287491 -1.17742e-05)
(0.000891214 -0.0009075 -1.33392e-05)
(0.00195681 0.00140568 -9.5036e-06)
(0.00164214 0.000598204 -8.12994e-06)
(0.00149608 5.01017e-06 -1.26045e-05)
(0.00153983 -0.000589632 -1.79539e-05)
(0.00174014 -0.00140574 -1.81323e-05)
(0.0030718 0.00184976 -2.2031e-05)
(0.00279094 0.000840705 -1.76966e-05)
(0.00265337 7.05227e-06 -1.88991e-05)
(0.00266576 -0.000829521 -2.08593e-05)
(0.00280662 -0.00185176 -1.79562e-05)
(0.00431838 0.00217388 -3.73834e-05)
(0.00408112 0.00101774 -2.89676e-05)
(0.00395316 3.13634e-06 -2.51098e-05)
(0.0039389 -0.00101317 -2.19064e-05)
(0.00401742 -0.00217898 -1.47544e-05)
(0.00565715 0.00239538 -5.41202e-05)
(0.00545635 0.00113641 -4.10452e-05)
(0.00533741 -6.27971e-06 -3.15372e-05)
(0.00530173 -0.00114673 -2.2542e-05)
(0.00532931 -0.0024051 -1.04925e-05)
(0.00704348 0.00253395 -7.08536e-05)
(0.00686923 0.00120809 -5.3177e-05)
(0.00675747 -2.00513e-05 -3.86089e-05)
(0.00670566 -0.00123903 -2.43297e-05)
(0.00669506 -0.00254667 -7.29087e-06)
(0.00844909 0.00262441 -8.59204e-05)
(0.00828875 0.00124555 -6.4513e-05)
(0.00817544 -3.58491e-05 -4.6774e-05)
(0.00811067 -0.0012999 -2.92105e-05)
(0.00807751 -0.0026272 -7.87925e-06)
(0.00989966 0.00267988 -9.55445e-05)
(0.00971234 0.00127237 -7.31049e-05)
(0.00955448 -4.37146e-05 -5.59099e-05)
(0.00948229 -0.00134275 -3.97369e-05)
(0.00945023 -0.00268054 -1.78773e-05)
(0 0 0)
(0 0 0)
(0 0 0)
(0 0 0)
(0 0 0)
(0.00105558 0.000916438 -1.53136e-06)
(0.000673068 0.000287669 -1.25722e-06)
(0.000549511 3.98636e-07 -3.0395e-06)
(0.000606763 -0.000286276 -5.11124e-06)
(0.000889367 -0.000905091 -5.42939e-06)
(0.00195614 0.00140423 -6.01594e-06)
(0.00163946 0.000598203 -4.83332e-06)
(0.00149209 6.61771e-06 -6.27313e-06)
(0.00153563 -0.000586308 -8.10783e-06)
(0.0017367 -0.00140064 -7.63464e-06)
(0.0030693 0.00184752 -1.21945e-05)
(0.00278641 0.000840767 -9.5503e-06)
(0.00264754 9.7366e-06 -9.43829e-06)
(0.00265969 -0.000824137 -9.66256e-06)
(0.00280124 -0.0018439 -7.66493e-06)
(0.0043135 0.00217131 -1.96208e-05)
(0.00407444 0.00101811 -1.50378e-05)
(0.00394531 6.8775e-06 -1.2574e-05)
(0.00393075 -0.00100597 -1.03952e-05)
(0.00400974 -0.00216867 -6.37758e-06)
(0.00564943 0.00239298 -2.76927e-05)
(0.00544715 0.00113734 -2.09155e-05)
(0.00532719 -1.55235e-06 -1.58304e-05)
(0.00529114 -0.00113807 -1.09636e-05)
(0.00531888 -0.00239281 -4.64511e-06)
(0.00703252 0.00253216 -3.57978e-05)
(0.0068571 0.00120978 -2.6845e-05)
(0.00674447 -1.44507e-05 -1.94158e-05)
(0.00669219 -0.00122929 -1.21036e-05)
(0.00668141 -0.0025329 -3.44138e-06)
(0.00843463 0.00262366 -4.31362e-05)
(0.00827338 0.00124813 -3.24068e-05)
(0.00815925 -2.94743e-05 -2.3539e-05)
(0.00809382 -0.00128939 -1.47447e-05)
(0.00806014 -0.00261233 -4.06249e-06)
(0.0098821 0.00268033 -4.78374e-05)
(0.0096938 0.00127598 -3.66348e-05)
(0.00953475 -3.64714e-05 -2.81198e-05)
(0.00946143 -0.00133159 -2.00985e-05)
(0.00942851 -0.00266493 -9.20718e-06)
(0 0 0)
(0 0 0)
(0 0 0)
(0 0 0)
(0 0 0)
(0.00105566 0.000916329 -0)
(0.000672665 0.000287705 -0)
(0.000548806 6.05522e-07 -0)
(0.000605994 -0.000285865 0)
(0.000888684 -0.000904245 0)
(0.00195579 0.00140376 -0)
(0.00163849 0.000598223 0)
(0.00149071 7.1595e-06 -0)
(0.00153417 -0.000585206 0)
(0.00173545 -0.00139893 0)
(0.00306834 0.00184683 -0)
(0.0027848 0.000840825 0)
(0.00264552 1.06402e-05 -0)
(0.00265758 -0.000822361 0)
(0.00279934 -0.00184131 0)
(0.00431176 0.00217053 -0)
(0.00407213 0.00101828 0)
(0.00394262 8.13418e-06 -0)
(0.00392796 -0.00100359 0)
(0.00400708 -0.00216529 0)
(0.00564676 0.00239225 -0)
(0.00544401 0.00113769 0)
(0.00532372 3.15682e-08 0)
(0.00528755 -0.00113521 0)
(0.00531533 -0.00238877 0)
(0.00702879 0.00253161 -0)
(0.00685299 0.00121037 0)
(0.00674009 -1.25785e-05 0)
(0.00668767 -0.00122606 0)
(0.00667682 -0.00252837 0)
(0.00842974 0.0026234 -0)
(0.0082682 0.00124899 0)
(0.00815381 -2.7346e-05 0)
(0.00808818 -0.0012859 0)
(0.00805434 -0.00260742 0)
(0.00987616 0.00268041 -0)
(0.00968756 0.00127716 -0)
(0.00952812 -3.40511e-05 0)
(0.00945445 -0.00132787 0)
(0.00942127 -0.00265974 0)
)
;

boundaryField
{
    interface
    {
        type            calculated;
    }
    symmetry
    {
        type            symmetryPlane;
    }
    bottom
    {
        type            fixedValue;
        value           uniform (0 0 0);
    }
}


// ************************************************************************* //
