/*--------------------------------*- C++ -*----------------------------------*\
| =========                 |                                                 |
| \\      /  F ield         | foam-extend: Open Source CFD                    |
|  \\    /   O peration     | Version:     3.1                                |
|   \\  /    A nd           | Web:         http://www.extend-project.de       |
|    \\/     M anipulation  |                                                 |
\*---------------------------------------------------------------------------*/
FoamFile
{
    version     2.0;
    format      ascii;
    class       volScalarField;
    location    "3.9";
    object      sigmaEq;
}
// * * * * * * * * * * * * * * * * * * * * * * * * * * * * * * * * * * * * * //

dimensions      [1 -1 -2 0 0 0 0];

internalField   nonuniform List<scalar> 
256
(
246.295
108.496
107.071
236.952
184.894
138.478
128.225
166.582
168.158
132.585
122.287
146.8
134.316
119.244
110.032
110.825
104.13
102.311
94.4351
79.8411
78.5977
83.2477
76.6142
53.6663
61.5711
64.3627
56.9283
33.8691
58.3713
50.5904
31.56
19.1775
243.319
122.58
117.987
226.937
193.3
143.076
134.45
176.018
166.432
123.963
114.513
145.152
131.3
106.026
97.0573
107.312
99.726
87.4897
79.6839
74.3068
74.3615
69.3407
62.8422
47.6537
58.0985
52.853
46.0326
28.4812
56.0339
43.8359
26.1608
16.1025
245.94
126.83
120.006
224.788
192.879
144.848
134.737
172.146
166.956
123.792
112.752
142.205
131.617
103.563
93.004
104.279
99.9122
84.0531
74.8119
71.3298
74.3036
65.7657
58.2124
44.935
57.6608
50.008
42.6554
26.2401
54.8157
43.1219
25.1452
13.4016
247.641
127.965
119.577
223.387
192.681
146.045
134.376
169.084
167.387
124.934
112.29
139.524
132.404
104.21
92.1413
101.904
100.842
84.2842
73.7457
69.2116
75.1954
65.7486
57.2385
43.1021
58.3565
50.0899
42.1584
24.7751
55.2069
44.1755
25.6576
12.138
248.433
127.982
118.526
222.005
192.899
146.652
133.775
167.101
167.964
125.985
112.129
137.617
133.332
105.352
92.1827
100.228
101.96
85.3426
73.8856
67.776
76.3357
66.6416
57.4559
41.8999
59.394
50.9067
42.5251
23.8832
56.1107
45.4044
26.4266
11.7194
248.703
127.687
117.513
220.771
193.168
146.888
133.143
165.784
168.49
126.694
111.984
136.334
134.115
106.284
92.3618
99.1072
102.886
86.3146
74.2485
66.8347
77.2893
67.5226
57.8954
41.14
60.2937
51.6867
42.9951
23.3634
57.0098
46.3731
27.0101
11.5629
248.754
127.4
116.777
219.862
193.367
146.949
132.641
164.953
168.864
127.097
111.842
135.534
134.652
106.877
92.4843
98.4153
103.51
86.9675
74.5292
66.2604
77.93
68.1302
58.2365
40.6907
60.9092
52.2198
43.331
23.0767
57.6578
47.0028
27.3592
11.4686
248.745
127.237
116.398
219.385
193.465
146.952
132.367
164.546
169.052
127.275
111.752
135.147
134.919
107.157
92.5366
98.0832
103.817
87.2838
74.6684
65.9865
78.2423
68.4279
58.4081
40.4803
61.2094
52.4803
43.4944
22.947
57.9791
47.307
27.5158
11.4127
)
;

boundaryField
{
    interface
    {
        type            calculated;
        value           nonuniform List<scalar> 
192
(
398.89
210.135
204.223
153.752
114.436
82.2745
65.0363
57.1215
391.357
226.647
206.048
157.608
117.409
86.1789
69.4417
61.2412
397.057
222.903
205.408
157.423
117.191
85.5643
68.2215
57.5272
401.342
220.82
204.954
157.626
117.811
86.3143
68.9837
57.3858
403.621
220.102
204.995
158.096
118.64
87.2989
70.0468
57.9118
404.662
219.932
205.264
158.631
119.403
88.1778
71.0045
58.6843
405.072
219.922
205.523
159.047
119.942
88.7815
71.6581
59.2718
405.198
219.932
205.664
159.261
120.208
89.0743
71.9673
59.5508
278.061
172.076
173.059
138.437
109.835
84.2476
66.4466
62.647
98.5551
132.771
140.446
129.792
113.908
93.9761
73.2834
57.6748
101.64
119.662
128.693
119.493
105.152
86.5077
64.8525
35.9486
273.436
149.853
150.937
114.113
85.4323
59.5504
39.3474
23.1612
379.024
196.066
183.443
129.744
86.9387
50.5972
25.958
15.4589
361.126
211.824
183.081
130.596
86.5241
50.7987
26.9453
16.5902
362.148
205.164
179.262
127.528
83.7947
48.3732
24.5643
12.2447
363.045
200.669
175.727
124.489
81.0853
45.7676
21.7113
9.48804
362.715
198.131
173.336
122.256
79.0324
43.6908
19.3017
7.81322
361.831
196.629
171.811
120.777
77.6262
42.2413
17.5698
6.84869
360.973
195.745
170.894
119.881
76.7584
41.3416
16.4808
6.26458
360.474
195.327
170.46
119.458
76.3449
40.9132
15.9608
5.97551
63.3942
60.7822
59.8568
60.0825
60.982
61.899
62.5789
62.9035
49.4551
44.6841
45.3584
47.1389
48.7681
49.9667
50.7312
51.1034
13.0941
11.6369
12.8902
14.9081
16.465
17.3985
17.89
18.0977
18.5722
15.4062
11.6305
9.84168
9.43948
9.3069
9.17852
9.07922
)
;
    }
    symmetry
    {
        type            symmetryPlane;
    }
    bottom
    {
        type            calculated;
        value           nonuniform List<scalar> 
32
(
225.72
195.875
192.807
193.635
194.431
194.828
194.977
195.014
73.6751
80.5134
81.5221
80.8311
79.8966
79.1244
78.6105
78.3576
79.0299
79.4664
77.4624
74.933
72.9055
71.4919
70.6168
70.2004
227.937
185.749
174.652
170.995
169.25
168.13
167.389
167.012
)
;
    }
}


// ************************************************************************* //
