/*--------------------------------*- C++ -*----------------------------------*\
| =========                 |                                                 |
| \\      /  F ield         | foam-extend: Open Source CFD                    |
|  \\    /   O peration     | Version:     3.1                                |
|   \\  /    A nd           | Web:         http://www.extend-project.de       |
|    \\/     M anipulation  |                                                 |
\*---------------------------------------------------------------------------*/
FoamFile
{
    version     2.0;
    format      ascii;
    class       volSymmTensorField;
    location    "3.9";
    object      sigmaCauchy;
}
// * * * * * * * * * * * * * * * * * * * * * * * * * * * * * * * * * * * * * //

dimensions      [1 -1 -2 0 0 0 0];

internalField   nonuniform List<symmTensor> 
256
(
(179.202 72.1189 -1.03626 419.71 36.5498 204.964)
(26.2367 53.9968 -7.8386 82.6966 11.2553 33.0327)
(-55.0358 46.7853 -8.95536 -113.45 -15.9356 -56.4729)
(-206.536 43.5377 -4.94635 -406.077 -34.8166 -224.05)
(-71.6518 32.6253 -3.20366 126.22 -10.8401 -20.228)
(-26.7156 70.1887 -12.9881 43.7019 -5.07649 -8.43968)
(3.65023 64.2339 -13.4497 -55.178 2.02775 -2.15333)
(43.3268 18.8147 -4.67456 -129.933 6.89349 10.2367)
(-23.2912 40.092 -1.27024 152.635 -6.2585 26.9449)
(-26.5919 68.8237 -8.76099 38.0292 -2.6355 -3.53615)
(-0.96106 63.6375 -9.12458 -51.2478 -0.00687794 -7.34466)
(-4.25989 25.0913 -2.70072 -151.537 2.82638 -31.4434)
(-34.5806 35.4859 -1.4804 102.397 -8.61291 13.6023)
(-27.2948 63.2729 -7.21597 24.5743 -2.90712 -4.44908)
(-0.324465 59.031 -7.26127 -37.9045 1.08399 -3.67781)
(7.08741 23.0204 -2.52104 -102.35 5.95878 -13.8163)
(-31.9405 30.6825 -1.16107 70.946 -7.77197 14.0696)
(-26.0232 54.9214 -5.75599 14.8198 -2.34838 -2.90884)
(-2.33506 51.8421 -5.68896 -28.0594 1.22318 -3.21886)
(3.9987 21.4644 -2.07652 -71.035 6.04806 -11.457)
(-33.528 23.8263 -1.2408 42.0516 -6.66412 11.5516)
(-26.2698 44.4807 -4.98799 6.25041 -1.92964 -2.33553)
(-4.15694 42.7652 -4.76592 -19.2482 1.21963 -2.63817)
(3.98763 18.4324 -1.98783 -41.8521 5.76559 -7.47315)
(-34.0686 16.2008 -1.78762 24.652 -5.45163 12.3769)
(-28.3984 32.9729 -4.80783 0.00493662 -1.85218 -2.01405)
(-6.48792 32.0716 -4.34715 -12.3987 0.862556 -2.71831)
(4.0027 14.0554 -2.19108 -20.7954 4.63988 -5.75955)
(-46.3296 10.5604 -2.30794 8.91046 -3.08104 7.50123)
(-43.5614 19.9706 -4.48807 -8.17806 -1.22346 -8.21055)
(-3.36079 17.5614 -4.16619 -2.06382 0.0763687 1.12216)
(9.67889 6.81529 -2.84645 -5.45629 1.72563 -2.8066)
(181.895 81.7556 -0.557693 416.141 22.4876 213.304)
(33.0509 65.3476 -6.37305 86.3825 6.31518 39.9456)
(-48.3525 58.3424 -7.65859 -100.608 -11.501 -52.8482)
(-196.898 52.2069 -4.27785 -388.774 -24.2918 -221.88)
(-39.4894 34.2667 -2.25548 171.396 -4.15135 18.3259)
(-3.94208 73.2117 -12.1453 69.24 -2.94003 13.263)
(-16.2989 66.8063 -13.5634 -79.3938 -1.34868 -24.1956)
(9.3451 20.0959 -5.69049 -173.529 -0.784546 -29.7181)
(-17.9302 36.1823 -1.04004 158.627 -9.44708 31.6806)
(-15.6884 63.5848 -9.53028 47.2338 -3.85231 4.05653)
(-7.01192 58.51 -10.824 -56.2371 1.22055 -12.5271)
(-7.85819 21.5368 -4.16982 -154.447 5.70651 -34.1044)
(-24.7852 30.686 -0.0663314 112.27 -11.631 22.4914)
(-16.0571 55.4043 -6.70594 34.182 -4.01545 3.34736)
(-6.38947 51.2388 -7.87953 -41.7162 2.50775 -8.92755)
(-0.866685 18.4941 -3.07862 -108.035 9.12929 -20.6368)
(-24.9419 25.3018 0.939116 76.7278 -11.5401 19.9351)
(-16.5751 46.2786 -4.41823 22.4399 -3.71627 2.93679)
(-6.06672 43.3555 -5.55323 -28.5632 2.95721 -6.13568)
(-0.879578 16.4711 -2.02708 -71.8953 10.1368 -15.0236)
(-26.5798 18.9373 1.52801 47.4333 -10.1625 17.6189)
(-17.5337 36.5626 -2.87836 13.0643 -3.23803 2.79183)
(-6.49799 35.0181 -3.93238 -18.0431 2.7296 -4.35271)
(-0.306859 13.9282 -1.3676 -41.453 9.55277 -10.7007)
(-27.628 12.1148 1.57687 29.2688 -7.98046 18.0705)
(-20.9124 26.6448 -2.13707 5.22491 -2.81272 1.82799)
(-7.37277 26.0152 -3.0646 -9.92858 1.85212 -3.12097)
(1.16508 10.6161 -1.11561 -18.6775 7.46073 -7.60446)
(-39.3504 8.56041 1.30005 13.8784 -4.58697 13.5351)
(-36.8086 16.6947 -1.92037 -4.04747 -1.86505 -5.24814)
(-4.93906 14.4954 -3.19868 -1.22673 0.547001 0.0920755)
(5.72019 5.3246 -1.88821 -5.47328 3.50966 -5.58044)
(188.969 86.2681 -0.527582 427.432 11.2192 227.828)
(36.1134 68.4958 -4.13467 90.8912 2.54005 45.8396)
(-48.3993 61.0491 -5.02386 -100.036 -7.24845 -55.7562)
(-203.338 54.6221 -2.86496 -396.67 -14.031 -235.811)
(-40.1429 34.9591 -1.82417 172.615 -2.76429 30.7288)
(-2.00245 74.6974 -8.24443 73.5626 -2.34837 20.6896)
(-17.6396 68.2028 -9.45278 -80.7387 -1.65714 -30.4905)
(7.48221 20.6899 -4.42537 -175.262 -1.33876 -44.8159)
(-18.7408 35.8992 -1.27334 160.835 -7.21968 39.6165)
(-15.012 63.3182 -7.07993 50.5392 -3.26367 9.05129)
(-7.8995 58.1475 -8.21972 -57.199 0.694425 -16.7023)
(-9.94247 21.0453 -3.60342 -156.976 4.05317 -45.3718)
(-26.0293 29.885 -0.491812 113.376 -9.37926 26.0482)
(-15.6362 53.551 -5.11038 36.836 -3.53292 6.86157)
(-7.36797 49.3537 -6.12632 -41.697 2.10505 -11.2607)
(-3.19157 17.6512 -2.56952 -109.777 7.33166 -28.0208)
(-27.1449 24.1005 0.314922 76.697 -9.67221 19.7246)
(-16.3073 43.7569 -3.183 24.8057 -3.35575 5.43681)
(-6.99359 40.8721 -4.13313 -27.9219 2.70681 -7.05168)
(-2.50601 15.367 -1.59727 -72.3453 8.64131 -18.6029)
(-29.1835 17.6266 0.891573 46.8929 -8.71324 14.9286)
(-17.2701 33.9468 -1.7785 15.1735 -2.94626 4.58577)
(-7.27073 32.5592 -2.65535 -16.9303 2.61885 -4.1077)
(-1.53429 12.9176 -0.903403 -41.1101 8.40094 -11.423)
(-29.9456 10.7949 1.07052 29.0201 -6.85833 14.0331)
(-20.6176 24.4508 -1.10213 7.00642 -2.44668 3.00116)
(-8.07242 24.1109 -1.93435 -8.68366 1.87521 -1.99589)
(0.207199 9.91449 -0.642666 -17.8278 6.72971 -6.02061)
(-42.3842 7.94732 0.830924 12.2986 -3.69622 7.09169)
(-37.0262 15.6219 -1.25531 -2.99302 -1.4274 -5.15986)
(-6.23804 13.623 -2.52376 -0.258487 0.611977 1.86827)
(5.54469 5.15244 -1.56281 -3.36811 3.12244 -0.852683)
(192.71 88.1215 -0.34298 434.089 4.80976 236.807)
(37.1956 69.247 -2.50172 93.2052 0.577554 49.0665)
(-48.8048 61.4449 -3.04089 -99.976 -4.48998 -57.7446)
(-206.76 55.1911 -1.73494 -400.812 -7.76196 -243.956)
(-41.2474 35.2017 -1.09918 172.529 -2.32089 39.4375)
(-2.29701 75.4556 -5.17533 75.1528 -1.91597 24.7174)
(-17.9839 68.8993 -5.99884 -80.1665 -1.41386 -33.8792)
(7.16279 20.9297 -2.9048 -174.73 -0.958497 -54.4744)
(-19.4489 36.134 -0.89797 162.028 -5.15214 47.1408)
(-15.9756 63.7956 -4.78193 51.8303 -2.49068 12.0817)
(-8.23913 58.6147 -5.57082 -56.6712 0.284837 -19.4056)
(-10.5027 21.2661 -2.55092 -157.047 2.64589 -53.7622)
(-26.9285 29.9246 -0.430047 114.591 -6.71059 30.9169)
(-16.7023 53.5869 -3.60955 38.0097 -2.67737 9.03763)
(-7.9113 49.3998 -4.28542 -41.1176 1.43235 -13.0023)
(-3.78238 17.7334 -1.8642 -109.806 5.0946 -33.8348)
(-28.0878 23.9717 0.122193 77.9363 -7.08361 22.1146)
(-17.3622 43.4445 -2.28915 25.9504 -2.56754 6.89168)
(-7.66451 40.612 -2.88815 -27.2834 2.00373 -7.80216)
(-3.09764 15.3533 -1.13752 -72.2162 6.28251 -21.7008)
(-30.0827 17.3578 0.55071 48.2105 -6.54795 15.3635)
(-18.2415 33.4332 -1.27455 16.2878 -2.28687 5.49296)
(-7.96532 32.1718 -1.80741 -16.2244 2.02666 -3.94367)
(-2.12027 12.8873 -0.591849 -40.8303 6.31182 -12.1504)
(-30.4379 10.4136 0.688875 30.7689 -5.30068 13.2767)
(-21.5024 23.9374 -0.853204 8.04983 -1.90713 3.4819)
(-8.86152 23.7878 -1.37454 -7.98686 1.50086 -1.08118)
(-0.428986 9.94407 -0.415619 -17.3378 5.19511 -4.75268)
(-42.7861 7.83009 0.38688 13.8612 -2.99611 5.2923)
(-38.054 15.3939 -1.29371 -1.98586 -1.13049 -4.9518)
(-7.67286 13.4656 -2.18236 0.253341 0.512332 3.31252)
(4.72394 5.24151 -1.28584 -2.61233 2.46256 2.19847)
(194.239 88.7861 -0.189303 437.216 1.58533 241.523)
(37.6128 69.1921 -1.43638 94.4801 -0.274147 50.8393)
(-49.0181 61.1638 -1.74903 -99.6526 -2.74344 -58.7863)
(-207.913 55.1357 -0.994643 -401.846 -4.17422 -247.761)
(-42.2498 35.2222 -0.574529 172.37 -1.96673 44.6646)
(-2.75441 75.69 -3.06893 76.0776 -1.50981 27.0617)
(-18.2852 69.1128 -3.59485 -79.4061 -1.07399 -35.8677)
(6.95108 21.0064 -1.76637 -174.035 -0.566406 -60.2928)
(-20.3159 36.305 -0.522506 162.523 -3.6099 52.1071)
(-16.8207 64.1966 -3.01465 52.623 -1.80799 14.0099)
(-8.56751 59.0521 -3.52799 -55.9169 0.0663151 -21.1512)
(-10.6724 21.5007 -1.6389 -156.434 1.70717 -59.0788)
(-27.8623 30.108 -0.267582 115.278 -4.57557 34.5564)
(-17.5866 53.9839 -2.37353 38.8071 -1.89654 10.5284)
(-8.33458 49.8404 -2.80163 -40.4358 0.890988 -14.2351)
(-3.98624 18.0048 -1.22816 -109.266 3.34561 -37.8047)
(-28.9792 24.1136 0.0695199 78.8178 -4.86883 24.2839)
(-18.2139 43.7384 -1.55821 26.7682 -1.82137 7.94938)
(-8.146 40.9666 -1.92108 -26.6633 1.34174 -8.39859)
(-3.35047 15.6141 -0.752831 -71.7532 4.23816 -23.9961)
(-30.8967 17.4129 0.338247 49.2417 -4.59776 16.2461)
(-19.0165 33.5915 -0.917509 17.1181 -1.6479 6.21076)
(-8.47386 32.425 -1.22811 -15.6559 1.40173 -3.90783)
(-2.40555 13.1251 -0.390084 -40.3856 4.36505 -12.8088)
(-30.9877 10.3625 0.394575 32.0888 -3.82984 13.3289)
(-22.2485 23.9963 -0.724957 8.83768 -1.39974 3.92545)
(-9.4749 23.9585 -1.03379 -7.48299 1.05163 -0.512077)
(-0.755788 10.1652 -0.31197 -16.7929 3.665 -3.95997)
(-43.5411 7.87258 0.0612307 14.8449 -2.22215 4.35971)
(-39.1227 15.4643 -1.27251 -1.35656 -0.837443 -4.86807)
(-8.76483 13.5335 -1.85186 0.641687 0.350872 4.21928)
(4.23538 5.37997 -1.05965 -1.95062 1.7472 4.17438)
(194.771 88.9636 -0.0870079 438.551 0.194048 243.879)
(37.7732 68.9328 -0.776888 95.2162 -0.50431 51.8038)
(-49.059 60.7651 -0.951337 -99.2002 -1.61526 -59.2508)
(-208.042 54.9178 -0.538818 -401.522 -2.15488 -249.305)
(-42.9184 35.1493 -0.252614 172.324 -1.51502 47.6768)
(-3.12187 75.6675 -1.70703 76.6913 -1.09531 28.3911)
(-18.5102 69.0891 -2.02576 -78.7199 -0.740083 -36.9944)
(6.73828 21.0089 -1.00161 -173.436 -0.295796 -63.6546)
(-20.9535 36.3802 -0.251769 162.847 -2.41054 55.165)
(-17.4093 64.4122 -1.76477 53.1821 -1.22848 15.1775)
(-8.83746 59.3098 -2.08173 -55.2479 -0.0231312 -22.2212)
(-10.767 21.6533 -0.968954 -155.785 1.06667 -62.2454)
(-28.5339 30.25 -0.122776 115.744 -2.955 36.9881)
(-18.19 54.3184 -1.44026 39.3787 -1.2552 11.485)
(-8.63229 50.2203 -1.70078 -39.8249 0.516533 -15.026)
(-4.08616 18.2357 -0.741692 -108.659 2.08135 -40.28)
(-29.6117 24.2637 0.0662663 79.4309 -3.14299 25.9282)
(-18.7841 44.0783 -0.97868 27.356 -1.20244 8.67645)
(-8.45632 41.3593 -1.19318 -26.1221 0.826774 -8.80462)
(-3.47134 15.8678 -0.460007 -71.2193 2.67166 -25.5093)
(-31.462 17.5168 0.215996 49.9714 -3.01266 17.1607)
(-19.5349 33.8598 -0.617049 17.7078 -1.10218 6.74862)
(-8.79503 32.7626 -0.795427 -15.1867 0.882123 -3.91102)
(-2.55769 13.3671 -0.246471 -39.9113 2.7937 -13.3252)
(-31.3848 10.3837 0.220758 33.0043 -2.56653 13.7593)
(-22.7699 24.1661 -0.565867 9.38237 -0.952676 4.29343)
(-9.87985 24.2001 -0.745536 -7.09609 0.662168 -0.180765)
(-0.942422 10.375 -0.230983 -16.2959 2.37472 -3.56371)
(-44.0225 7.92407 -0.063466 15.659 -1.52959 4.28216)
(-39.8969 15.5735 -1.05392 -0.907841 -0.57943 -4.73552)
(-9.50869 13.6276 -1.41714 0.928069 0.211243 4.70563)
(3.8474 5.48593 -0.795185 -1.51646 1.13635 5.16252)
(194.899 88.9747 -0.0329541 439.052 -0.202467 244.976)
(37.8332 68.6971 -0.374207 95.633 -0.405824 52.3068)
(-49.0261 60.4485 -0.461802 -98.8022 -0.846176 -59.4237)
(-207.846 54.7195 -0.260764 -400.878 -1.00614 -249.818)
(-43.3293 35.0659 -0.0906213 172.315 -0.95602 49.2716)
(-3.36417 75.5718 -0.840655 77.0816 -0.665461 29.0994)
(-18.649 68.9985 -1.01106 -78.2134 -0.430931 -37.588)
(6.57948 20.9893 -0.501287 -172.993 -0.133147 -65.4611)
(-21.3659 36.3997 -0.100275 163.053 -1.39248 56.8635)
(-17.7708 64.4993 -0.903956 53.5557 -0.715443 15.8308)
(-9.02021 59.4292 -1.07595 -54.7673 -0.0385859 -22.8246)
(-10.8268 21.7349 -0.499536 -155.293 0.588617 -63.9873)
(-28.9651 30.3303 -0.0423848 116.035 -1.66245 38.4109)
(-18.5559 54.52 -0.75832 39.7588 -0.716661 12.0453)
(-8.81885 50.4558 -0.898796 -39.3822 0.263779 -15.4839)
(-4.14466 18.3826 -0.388342 -108.194 1.13624 -41.6862)
(-30.0202 24.3623 0.0504456 79.8002 -1.76289 26.9623)
(-19.1256 44.3127 -0.529891 27.7401 -0.684493 9.12729)
(-8.63876 41.6307 -0.643804 -25.7291 0.442088 -9.04584)
(-3.53376 16.0403 -0.243742 -70.796 1.46617 -26.4018)
(-31.8302 17.5921 0.12189 50.4012 -1.70533 17.8191)
(-19.8448 34.0609 -0.354124 18.0839 -0.633082 7.10563)
(-8.97952 33.009 -0.44731 -14.8512 0.477649 -3.91975)
(-2.63745 13.5355 -0.136271 -39.5347 1.5453 -13.6658)
(-31.6618 10.4065 0.107608 33.5342 -1.47539 14.1616)
(-23.0888 24.2989 -0.360252 9.72244 -0.554119 4.55791)
(-10.1194 24.376 -0.454981 -6.82894 0.357088 -0.00277649)
(-1.04111 10.5176 -0.145107 -15.9237 1.32212 -3.39095)
(-44.3526 7.96194 -0.0824089 16.1484 -0.898775 4.41713)
(-40.3896 15.6561 -0.687573 -0.632618 -0.340922 -4.62014)
(-9.96326 13.6937 -0.888296 1.12133 0.109549 4.93835)
(3.59765 5.55092 -0.494627 -1.23382 0.633527 5.60497)
(194.907 88.955 -0.00806166 439.203 -0.115338 245.4)
(37.8527 68.5667 -0.110296 95.8236 -0.150615 52.5217)
(-48.992 60.2807 -0.136837 -98.5762 -0.262937 -59.4727)
(-207.676 54.6092 -0.0771234 -400.448 -0.291611 -249.94)
(-43.5243 35.0151 -0.0208849 172.313 -0.32655 49.9509)
(-3.48305 75.5029 -0.250986 77.273 -0.223317 29.4045)
(-18.7133 68.9337 -0.3044 -77.9462 -0.141295 -37.8409)
(6.49711 20.9743 -0.151035 -172.758 -0.0370236 -66.2444)
(-21.566 36.3997 -0.0255481 163.155 -0.456425 57.6102)
(-17.9421 64.5244 -0.276003 53.744 -0.235289 16.1208)
(-9.11077 59.4713 -0.330332 -54.5184 -0.0166513 -23.0946)
(-10.8565 21.7688 -0.152935 -155.032 0.188545 -64.7546)
(-29.1734 30.3639 -0.0094123 116.176 -0.537389 39.0559)
(-18.728 54.6093 -0.235213 39.9492 -0.233292 12.3013)
(-8.90824 50.5626 -0.279445 -39.1523 0.0804979 -15.6919)
(-4.17306 18.4513 -0.11992 -107.948 0.361198 -42.3182)
(-30.2184 24.408 0.0181023 79.972 -0.568662 27.4507)
(-19.2851 44.4251 -0.167115 27.9295 -0.222435 9.34086)
(-8.72308 41.7618 -0.202727 -25.5244 0.138403 -9.15658)
(-3.56135 16.1239 -0.0758709 -70.5686 0.466808 -26.8117)
(-32.0092 17.6276 0.0386469 50.5966 -0.552578 18.1524)
(-19.9896 34.1608 -0.11563 18.2657 -0.206683 7.28164)
(-9.06331 33.1308 -0.144503 -14.6771 0.150447 -3.92499)
(-2.67258 13.6181 -0.0436616 -39.3315 0.493603 -13.8334)
(-31.7998 10.4169 0.0304168 33.7702 -0.482315 14.3876)
(-23.239 24.3655 -0.124129 9.88411 -0.182107 4.69364)
(-10.2301 24.4621 -0.153552 -6.69208 0.112181 0.0739098)
(-1.08547 10.5863 -0.0498311 -15.7285 0.42349 -3.33283)
(-44.5085 7.98157 -0.0368751 16.3733 -0.299069 4.53505)
(-40.623 15.6993 -0.23869 -0.501201 -0.11288 -4.55461)
(-10.1803 13.7246 -0.302706 1.21849 0.0340457 5.02578)
(3.47082 5.57975 -0.168294 -1.09779 0.203235 5.75888)
)
;

boundaryField
{
    interface
    {
        type            calculated;
        value           nonuniform List<symmTensor> 
192
(
(-20.4441 16.7359 4.19297 450.923 46.5381 126.767)
(-20.743 8.26793 3.70053 214.119 -13.4615 24.9074)
(-20.3926 11.1288 4.61034 214.171 -8.81076 46.4212)
(-20.6859 9.53383 4.73237 154.412 -12.5762 36.8441)
(-21.4389 7.5025 4.92514 108.671 -11.6655 33.5716)
(-22.5067 4.86425 5.01153 69.5116 -10.1295 29.72)
(-23.5178 2.29996 4.87912 45.9135 -8.03488 29.6107)
(-22.8812 -0.390122 4.34279 33.7764 -4.54313 32.4467)
(-23.2221 17.9193 2.95693 444.874 28.8781 134.058)
(-23.9244 9.48934 2.94018 236.191 -4.72362 42.018)
(-24.4181 11.1918 3.14342 211.971 -12.5107 44.4965)
(-25.4562 9.70607 3.16814 153.791 -15.9629 36.7024)
(-26.7883 7.50504 3.21899 105.43 -15.9982 32.2199)
(-28.1311 4.77052 3.2594 66.3715 -14.122 29.1237)
(-28.7361 1.94706 3.19345 43.5147 -10.8818 29.9909)
(-25.8357 -1.03576 2.89304 33.4661 -6.11113 34.8471)
(-25.0263 19.0954 1.89603 453.764 14.5547 145.306)
(-25.7695 9.61297 2.12587 233.494 -2.96894 54.6946)
(-26.4375 11.2408 2.21625 211.514 -9.21842 51.5666)
(-27.6708 9.71025 2.17008 152.943 -12.4008 38.458)
(-29.1358 7.43836 2.14907 104.093 -12.9579 29.707)
(-30.4571 4.6245 2.15311 65.1202 -11.7403 23.7709)
(-30.6797 1.68383 2.12636 43.1928 -9.18974 23.1232)
(-26.6269 -1.46875 2.00944 32.932 -4.97435 26.4829)
(-26.3402 19.7276 1.20419 459.11 6.28461 152.747)
(-27.0641 9.6438 1.53683 231.74 -2.57755 64.9784)
(-27.7603 11.2734 1.61954 211.464 -6.45848 60.0656)
(-29.0422 9.72989 1.58396 153.341 -8.69744 43.6415)
(-30.5259 7.43909 1.55299 104.708 -9.32301 31.6231)
(-31.7758 4.58533 1.5432 66.0271 -8.68599 23.1258)
(-31.7324 1.58054 1.52726 44.7597 -7.041 20.8202)
(-26.9944 -1.64102 1.46401 34.5731 -4.04237 23.1734)
(-27.3013 20.0196 0.760856 461.429 2.11026 156.738)
(-28.0031 9.64703 1.08746 230.848 -2.27379 71.3943)
(-28.6923 11.2815 1.16488 211.494 -4.50462 66.116)
(-29.9774 9.73859 1.15097 153.785 -5.87335 48.0527)
(-31.4499 7.44451 1.13008 105.468 -6.34596 34.0681)
(-32.6362 4.56839 1.11991 67.0434 -6.04895 23.8386)
(-32.4181 1.52097 1.10904 46.1826 -5.06837 20.3544)
(-27.229 -1.74652 1.06942 35.9888 -3.01356 21.8829)
(-27.9803 20.1388 0.465489 462.197 0.299383 158.719)
(-28.6625 9.63841 0.726139 230.388 -1.79736 75.0899)
(-29.3393 11.2797 0.788718 211.597 -3.0113 69.9095)
(-30.6159 9.74152 0.787748 154.162 -3.77924 51.1048)
(-32.073 7.44724 0.777215 106.061 -4.07778 36.0758)
(-33.2136 4.55735 0.770468 67.8095 -3.9484 24.8607)
(-32.8834 1.48102 0.762905 47.2038 -3.3936 20.6906)
(-27.3943 -1.80992 0.735195 37.1218 -2.08312 21.8235)
(-28.4155 20.1809 0.250489 462.324 -0.229726 159.617)
(-29.0859 9.62783 0.41458 230.133 -1.14975 77.0269)
(-29.7544 11.2748 0.454093 211.685 -1.74326 72.0193)
(-31.0228 9.74138 0.456656 154.414 -2.12425 52.906)
(-32.4682 7.44703 0.452328 106.429 -2.28319 37.3702)
(-33.5805 4.54773 0.44877 68.267 -2.23169 25.652)
(-33.1826 1.45225 0.442525 47.8053 -1.95135 21.1264)
(-27.5092 -1.84861 0.421833 37.8253 -1.22862 22.0786)
(-28.6189 20.1917 0.0781853 462.295 -0.137803 159.958)
(-29.2821 9.61994 0.133452 230.021 -0.394934 77.8497)
(-29.9436 11.27 0.146547 211.741 -0.572109 72.9518)
(-31.2052 9.73978 0.147693 154.548 -0.68659 53.7321)
(-32.6438 7.4455 0.146529 106.61 -0.736087 37.9955)
(-33.7443 4.5396 0.145409 68.4833 -0.722776 26.0705)
(-33.3028 1.43159 0.142305 48.0893 -0.638209 21.4056)
(-27.5196 -1.86303 0.133055 38.1763 -0.409924 22.3066)
(39.9315 63.7871 -1.97213 282.548 2.76326 -9.2419)
(-73.6085 31.7443 -4.28969 113.995 -1.60794 -5.92542)
(-47.941 43.4061 -5.43631 128.607 -1.5256 -2.73791)
(-49.0561 39.4625 -6.20217 88.9413 -1.16191 -0.317376)
(-44.2362 34.9644 -6.87046 60.8064 -0.767235 1.32805)
(-42.8849 27.6124 -7.50268 35.1378 -0.619318 2.23945)
(-43.1164 19.2374 -8.22586 18.2719 -0.787628 2.39682)
(-52.5945 12.0609 -9.50357 5.06867 -1.05069 1.64067)
(-3.47842 44.8361 -1.47704 56.4735 -0.485106 -8.29783)
(-35.0372 68.3267 -2.8463 33.9858 -1.67373 -6.93889)
(-34.309 73.5825 -3.44209 33.3034 -1.67803 -5.10226)
(-33.1957 69.4827 -3.81915 21.2967 -1.30745 -3.56263)
(-31.5568 61.47 -4.13572 12.0056 -0.839128 -2.50638)
(-31.3846 50.3181 -4.50563 3.77601 -0.494653 -1.92702)
(-33.018 37.5896 -5.11179 -1.88007 -0.33424 -1.74842)
(-43.7147 22.4312 -6.60067 -5.47154 -0.200841 -1.6434)
(-25.0086 37.8867 -1.40614 -89.6602 -0.0190152 -7.61814)
(7.43621 62.308 -2.57089 -47.4132 -1.40018 -7.17139)
(3.59358 68.19 -3.02248 -48.1963 -1.53572 -6.06108)
(1.64071 65.0635 -3.18211 -37.7256 -1.28159 -5.00709)
(-1.42252 58.2126 -3.32539 -29.4948 -0.84211 -4.2896)
(-4.25746 48.4897 -3.56597 -21.7814 -0.440314 -3.92186)
(-7.26343 36.5743 -4.07436 -15.4138 -0.155216 -3.83877)
(-6.79927 19.9065 -5.42633 -6.74706 0.0774316 -3.74095)
(-65.7387 38.31 -1.59156 -280.985 3.93652 -6.75741)
(43.7499 17.7513 -2.75138 -118.831 -1.02866 -6.55974)
(17.3627 28.1855 -3.15296 -131.766 -1.33584 -5.70547)
(17.3203 26.7835 -3.34921 -94.0692 -1.28421 -4.84535)
(11.3782 25.5109 -3.46224 -66.8895 -0.902568 -4.25211)
(7.94159 22.0729 -3.66026 -41.4915 -0.483045 -3.92735)
(5.8718 16.8766 -4.10623 -22.7157 -0.109047 -3.78876)
(9.61037 8.11357 -5.31242 -8.10566 0.293413 -3.71282)
(-4.37258 -12.5745 -1.30336 -394.614 -42.2054 -135.477)
(-3.26964 -6.1526 0.708603 -202.413 7.9272 -28.4269)
(-2.46348 -8.08552 0.619592 -195.088 4.25256 -41.9786)
(-1.67896 -6.34164 0.944745 -137.342 8.75328 -26.6037)
(-1.04509 -4.53149 1.06232 -92.4535 9.00837 -19.7178)
(-0.383723 -2.57592 1.18557 -53.1909 8.6035 -13.6402)
(0.6605 -1.23373 1.30222 -25.5007 6.87589 -10.7282)
(3.48373 -1.57745 1.31773 -11.108 2.60274 -10.5903)
(-5.05454 -13.3248 -1.21912 -384.34 -29.3551 -142.008)
(-4.6712 -7.33191 -0.2197 -225.527 -1.15497 -48.1843)
(-4.44236 -8.11208 0.117638 -195.755 7.64806 -42.4041)
(-4.02814 -6.42113 0.414774 -139.744 12.4904 -29.7408)
(-3.5728 -4.41589 0.589377 -92.3814 13.9737 -22.1498)
(-3.01055 -2.37592 0.671727 -52.7144 13.3286 -16.7932)
(-2.00291 -0.881978 0.652094 -24.3725 10.6212 -13.882)
(0.948727 -1.13877 0.473701 -11.0769 5.20014 -13.9935)
(-5.44432 -14.0888 -0.784062 -391.082 -16.6211 -155.283)
(-5.20606 -7.47669 -0.288257 -224.74 -1.49046 -65.0043)
(-5.14872 -8.15165 -0.019693 -196.714 5.40408 -54.9346)
(-4.85202 -6.40926 0.249647 -140.564 9.73865 -37.6847)
(-4.43384 -4.31774 0.437891 -92.5307 11.5358 -25.9624)
(-3.8428 -2.20974 0.528873 -52.474 11.3493 -17.3593)
(-2.76043 -0.646808 0.501279 -23.7792 9.33241 -11.7702)
(0.0393092 -0.694454 0.259077 -9.52502 4.57037 -8.78698)
(-5.70375 -14.4021 -0.46146 -394.55 -8.91141 -163.415)
(-5.49686 -7.49096 -0.22273 -223.679 -0.846454 -77.0953)
(-5.50864 -8.12925 -0.0422722 -196.458 3.58014 -65.514)
(-5.25657 -6.34838 0.158226 -140.518 6.6899 -45.0958)
(-4.83816 -4.2137 0.317423 -92.4105 8.2631 -29.9048)
(-4.20895 -2.06401 0.400846 -52.2292 8.4036 -18.2506)
(-3.07342 -0.447064 0.377414 -23.1966 7.13083 -10.0635)
(-0.347416 -0.377509 0.163913 -8.54501 3.58667 -4.87065)
(-5.88379 -14.4614 -0.261016 -395.377 -4.6025 -167.597)
(-5.68804 -7.46419 -0.149575 -222.899 -0.333576 -84.4752)
(-5.72899 -8.076 -0.0311929 -195.865 2.37784 -72.4452)
(-5.49283 -6.2683 0.105945 -140.022 4.39386 -50.3486)
(-5.0635 -4.10764 0.222626 -91.9799 5.54225 -32.9722)
(-4.40218 -1.93235 0.286075 -51.764 5.77871 -19.16)
(-3.24297 -0.283922 0.264208 -22.5165 5.01964 -9.0674)
(-0.583941 -0.145248 0.0905253 -7.71124 2.55377 -2.38818)
(-6.00155 -14.4204 -0.140575 -395.046 -2.26373 -169.58)
(-5.8104 -7.42452 -0.0899836 -222.285 -0.0599249 -88.6891)
(-5.86201 -8.01835 -0.0147165 -195.276 1.53113 -76.5797)
(-5.62945 -6.19344 0.0732384 -139.458 2.75091 -53.6355)
(-5.18913 -4.0158 0.149985 -91.4533 3.49444 -35.0168)
(-4.50757 -1.8267 0.191031 -51.2388 3.69769 -19.8905)
(-3.34127 -0.162424 0.171245 -21.8859 3.26105 -8.60089)
(-0.742124 0.0133913 0.0448817 -7.11124 1.67357 -1.10914)
(-6.0716 -14.3618 -0.0676454 -394.456 -1.00593 -170.441)
(-5.88263 -7.38951 -0.0461154 -221.839 0.0330522 -90.9226)
(-5.93748 -7.97229 -0.00402752 -194.828 0.864716 -78.8416)
(-5.70454 -6.13781 0.0448642 -139.018 1.51308 -55.4928)
(-5.25675 -3.9502 0.0876068 -91.0253 1.92284 -36.2227)
(-4.56482 -1.75426 0.109647 -50.8159 2.04956 -20.3765)
(-3.39938 -0.083137 0.0958786 -21.4185 1.82263 -8.41913)
(-0.844035 0.112118 0.0183216 -6.71667 0.939549 -0.525791)
(-6.10299 -14.3247 -0.0198605 -394.067 -0.281825 -170.75)
(-5.91437 -7.36961 -0.0138541 -221.601 0.0221573 -91.8804)
(-5.97 -7.94733 -0.000296099 -194.588 0.28039 -79.8318)
(-5.7367 -6.10883 0.0153228 -138.783 0.483276 -56.3222)
(-5.28606 -3.9166 0.0289116 -90.7928 0.613529 -36.7753)
(-4.59028 -1.71752 0.0357505 -50.5869 0.655822 -20.616)
(-3.42404 -0.0448834 0.0309544 -21.1727 0.58528 -8.3648)
(-0.900431 0.159076 0.00441819 -6.52727 0.302409 -0.319159)
(-56.9841 13.3382 -2.46529 -0.238064 -2.39614 2.2152)
(-51.7256 12.6989 1.16837 1.65036 -2.19241 6.369)
(-52.727 12.8512 0.614301 3.11543 -1.71488 1.07626)
(-53.316 13.0563 0.116469 4.25266 -1.32347 -1.323)
(-54.2193 13.2689 -0.220563 5.09297 -0.991881 -2.70175)
(-54.9 13.4367 -0.293165 5.68442 -0.699525 -3.12021)
(-55.3563 13.5518 -0.23116 6.045 -0.426476 -3.17642)
(-55.615 13.6048 -0.0885361 6.1429 -0.146516 -3.18691)
(-49.7226 9.68304 -4.14224 -2.05877 -0.694979 -6.86655)
(-44.8962 8.55119 -1.86593 -1.03828 -0.700523 -5.95281)
(-45.2629 8.3924 -1.54396 -0.00220635 -0.538946 -6.27085)
(-46.5634 8.4406 -1.75605 0.841251 -0.397891 -6.25076)
(-47.8691 8.52445 -1.76338 1.46115 -0.292308 -6.32443)
(-48.8399 8.59766 -1.45725 1.89539 -0.204867 -6.31118)
(-49.4544 8.65334 -0.945935 2.17686 -0.122268 -6.26492)
(-49.728 8.69117 -0.327064 2.33812 -0.0403598 -6.21528)
(-5.3178 5.99506 -4.03147 -3.5662 0.0253171 -0.966436)
(-6.97638 5.01099 -3.55887 -2.82213 -0.0219843 -1.95065)
(-8.83298 4.77548 -3.24066 -2.05842 -0.0019859 0.137705)
(-10.6465 4.73041 -2.99011 -1.45472 0.00434875 1.94968)
(-12.0395 4.72816 -2.59094 -1.02349 -9.15894e-05 3.04346)
(-13.0003 4.73375 -1.98683 -0.728605 -0.00426587 3.58969)
(-13.5971 4.73944 -1.24206 -0.542633 -0.00222481 3.82435)
(-13.8755 4.74186 -0.422189 -0.436903 0.000477011 3.91117)
(12.3154 4.74544 -3.23343 -3.47047 0.422282 -3.32474)
(8.61292 3.86684 -2.70706 -2.88353 0.188262 -5.61421)
(7.28241 3.54065 -2.51044 -2.36874 0.108584 -0.57524)
(5.96577 3.41113 -2.15166 -1.96374 0.0566968 3.00807)
(5.04282 3.33508 -1.76939 -1.68376 0.0222451 5.20785)
(4.35978 3.28828 -1.3113 -1.49912 0.00272641 6.25699)
(3.91487 3.25905 -0.806129 -1.38877 -0.00328178 6.68022)
(3.69044 3.24186 -0.272448 -1.33898 -0.00158609 6.80734)
)
;
    }
    symmetry
    {
        type            symmetryPlane;
    }
    bottom
    {
        type            calculated;
        value           nonuniform List<symmTensor> 
32
(
(212.754 82.2223 3.77641 323.22 94.478 213.806)
(209.761 92.8335 2.13389 317.12 47.1703 206.646)
(216.467 98.0869 1.10005 327.042 23.1097 212.057)
(220.476 100.144 0.519126 333.126 10.7086 215.677)
(222.396 100.882 0.220287 336.075 4.51631 217.485)
(223.26 101.119 0.0792558 337.419 1.62198 218.32)
(223.615 101.181 0.0214695 337.976 0.439211 218.669)
(223.736 101.189 0.00328653 338.168 0.0672343 218.79)
(41.0482 32.2962 0.460739 61.0575 26.2009 40.854)
(43.5079 43.5511 0.322468 64.0848 13.6173 42.5774)
(46.5952 45.6067 0.158365 68.6244 6.39929 45.4888)
(48.0917 45.4502 0.0641565 70.9118 2.6041 46.9757)
(48.8812 44.8822 0.018958 72.1552 0.779681 47.7903)
(49.3261 44.3761 0.000769701 72.8694 0.0320268 48.2596)
(49.5732 44.0371 -0.00368992 73.2702 -0.154745 48.5232)
(49.6849 43.8712 -0.001835 73.4522 -0.0772523 48.6428)
(-58.9201 27.5171 -0.494219 -88.2942 -30.7526 -58.81)
(-52.2002 38.3049 -0.400087 -78.9794 -17.9646 -52.8656)
(-52.5931 39.6537 -0.245024 -79.6514 -10.6243 -53.442)
(-52.8748 38.9956 -0.142334 -80.0242 -6.27472 -53.7365)
(-52.8768 38.0992 -0.0810625 -79.9682 -3.65779 -53.7133)
(-52.7404 37.3804 -0.0447365 -79.7204 -2.05772 -53.5506)
(-52.5879 36.912 -0.0222838 -79.4652 -1.03811 -53.3796)
(-52.4944 36.6848 -0.00673316 -79.3128 -0.315636 -53.2769)
(-217.258 58.46 -3.36689 -318.95 -87.6637 -214.455)
(-205.885 66.2761 -2.05542 -303.909 -47.5972 -207.271)
(-211.429 68.5354 -1.15056 -312.075 -25.6554 -214.072)
(-214.397 68.7087 -0.614246 -316.307 -13.6316 -217.371)
(-215.359 68.2804 -0.316936 -317.618 -7.07284 -218.386)
(-215.416 67.7874 -0.156734 -317.639 -3.52313 -218.424)
(-215.198 67.4143 -0.0704147 -317.286 -1.59188 -218.178)
(-215.023 67.2197 -0.0199213 -317.015 -0.451736 -217.987)
)
;
    }
}


// ************************************************************************* //
