/*--------------------------------*- C++ -*----------------------------------*\
| =========                 |                                                 |
| \\      /  F ield         | foam-extend: Open Source CFD                    |
|  \\    /   O peration     | Version:     3.1                                |
|   \\  /    A nd           | Web:         http://www.extend-project.de       |
|    \\/     M anipulation  |                                                 |
\*---------------------------------------------------------------------------*/
FoamFile
{
    version     2.0;
    format      ascii;
    class       volSymmTensorField;
    location    "3.9";
    object      sigma;
}
// * * * * * * * * * * * * * * * * * * * * * * * * * * * * * * * * * * * * * //

dimensions      [1 -1 -2 0 0 0 0];

internalField   nonuniform List<symmTensor> 
256
(
(180.282 61.7369 -2.6914 407.535 32.5397 208.493)
(24.2006 52.3377 -8.25753 82.6429 11.1366 33.0399)
(-56.5255 48.8051 -8.4446 -113.88 -16.3634 -56.3249)
(-203.274 52.1926 -3.41903 -418.839 -39.8391 -219.807)
(-75.5203 25.8119 -3.02006 123.953 -10.321 -20.4805)
(-32.0819 67.8841 -12.9691 45.7276 -4.68383 -8.6803)
(-1.07963 66.3952 -13.4301 -53.2799 2.31508 -2.36111)
(40.9938 24.7121 -4.68313 -132.541 7.03401 10.0614)
(-27.2643 31.8616 -1.02713 151.294 -5.66938 27.0913)
(-33.2638 66.0177 -8.74323 41.5383 -2.39562 -3.65601)
(-7.02919 65.969 -9.09635 -47.8493 0.163392 -7.43234)
(-6.78369 32.0073 -2.75985 -153.054 3.09982 -31.1438)
(-38.6976 28.2249 -0.9547 103.198 -8.13866 13.5775)
(-34.3338 60.6348 -7.07537 29.0279 -2.86478 -4.51647)
(-6.85034 60.9234 -7.33848 -33.5689 1.09208 -3.7299)
(4.2644 28.7728 -2.84979 -101.778 6.2115 -13.7628)
(-35.6802 24.7605 -0.552277 72.7233 -7.51018 14.0199)
(-32.5887 52.6356 -5.56499 19.4567 -2.47696 -2.93126)
(-8.51317 53.1723 -5.78031 -23.5211 1.08221 -3.23272)
(1.25034 25.6933 -2.47801 -69.4482 6.15159 -11.4383)
(-36.5471 19.3383 -0.62208 43.9817 -6.59475 11.4887)
(-31.7524 42.596 -4.76859 10.4394 -2.17998 -2.3303)
(-9.3957 43.511 -4.83799 -15.108 0.972064 -2.62893)
(1.60603 21.0531 -2.38648 -39.9916 5.72112 -7.47446)
(-36.1823 12.6951 -1.19538 26.1219 -5.50958 12.313)
(-32.4897 31.3386 -4.55594 3.307 -2.16986 -1.9904)
(-10.3943 32.3083 -4.37005 -9.11877 0.561112 -2.69296)
(2.21555 15.4403 -2.51099 -19.2246 4.49687 -5.75372)
(-47.9072 7.2996 -1.80057 9.89115 -3.21895 7.46933)
(-46.1262 18.0297 -4.24332 -6.12721 -1.52853 -8.14861)
(-5.42291 17.4039 -4.12797 -0.217143 -0.208815 1.15186)
(8.78896 7.6319 -2.99115 -4.6566 1.53566 -2.785)
(182.155 70.5679 -1.63994 404.867 20.1628 217.112)
(30.227 63.4404 -6.61585 86.4262 6.27346 40.062)
(-50.7261 60.3982 -7.24538 -100.718 -11.7365 -52.6575)
(-194.796 61.4427 -3.15584 -399.865 -27.4345 -217.665)
(-42.8111 26.6957 -2.24938 167.688 -3.88923 18.4647)
(-9.44549 70.3397 -12.1045 71.0198 -2.74262 13.1875)
(-21.2523 69.5251 -13.4495 -77.6925 -1.2874 -24.1963)
(7.50892 26.6845 -5.47114 -177.474 -0.961514 -29.3982)
(-21.3414 28.0821 -0.63992 156.821 -8.93417 31.8686)
(-21.6628 60.6991 -9.40086 50.42 -3.80352 3.97808)
(-12.4991 60.8533 -10.8537 -53.1087 1.1669 -12.5661)
(-9.9384 28.2953 -4.36516 -156.324 5.83534 -33.7734)
(-28.1226 23.5543 0.584821 112.426 -11.1515 22.5129)
(-21.9786 52.729 -6.48479 38.0476 -4.06518 3.30497)
(-11.9069 53.067 -8.01614 -37.9135 2.36802 -8.94321)
(-3.04109 24.0482 -3.54841 -107.992 9.27139 -20.5257)
(-27.8695 19.5783 1.69533 77.8755 -11.1659 19.8843)
(-21.8875 44.0215 -4.15599 26.3418 -3.8269 2.91818)
(-11.09 44.5366 -5.72758 -24.713 2.76356 -6.1337)
(-2.93454 20.4116 -2.62478 -70.8458 10.2052 -14.9917)
(-28.862 14.6217 2.2685 48.7821 -9.90104 17.5274)
(-21.8635 34.735 -2.60946 16.5049 -3.37618 2.78363)
(-10.6705 35.5879 -4.08544 -14.6134 2.51514 -4.34016)
(-2.06103 16.2623 -1.95693 -40.1028 9.53683 -10.7009)
(-29.1303 8.76458 2.22462 30.2543 -7.80146 17.959)
(-24.0912 25.1073 -1.87277 7.88734 -2.95957 1.82467)
(-10.4583 26.0795 -3.14762 -7.25291 1.6388 -3.10339)
(-0.147332 11.7231 -1.57961 -17.5103 7.38926 -7.60622)
(-40.5686 5.42786 1.80137 14.6098 -4.48539 13.4372)
(-38.8744 14.8728 -1.68971 -2.34802 -2.00435 -5.22522)
(-6.60586 14.2248 -3.19564 0.293874 0.336414 0.110818)
(5.04886 5.93334 -2.12242 -4.86094 3.38792 -5.56964)
(189.202 74.375 -1.08103 416.02 10.0344 231.89)
(33.0681 66.4468 -4.22796 90.9357 2.53739 46.0043)
(-50.9846 63.1418 -4.75638 -100.076 -7.40398 -55.5061)
(-201.136 64.3161 -2.20702 -407.687 -15.8985 -231.273)
(-43.6178 27.3063 -1.81479 169.059 -2.61713 30.9203)
(-7.66385 71.7085 -8.18374 75.3315 -2.24047 20.6994)
(-22.7435 70.9307 -9.33592 -78.9787 -1.67303 -30.397)
(5.60839 27.3014 -4.24776 -178.961 -1.54773 -44.3991)
(-22.1359 27.7701 -0.965542 158.969 -6.88028 39.8351)
(-20.9458 60.3358 -6.95031 53.6434 -3.26191 9.02541)
(-13.3313 60.4753 -8.22158 -54.1071 0.598972 -16.6786)
(-11.9142 27.7456 -3.7388 -158.831 4.07813 -44.9684)
(-29.2779 22.763 0.023921 113.403 -9.04586 26.0986)
(-21.2891 50.8023 -4.90879 40.5067 -3.59522 6.84332)
(-12.6106 51.1137 -6.22971 -38.0543 1.95716 -11.2449)
(-5.21101 23.0933 -2.94096 -109.803 7.40029 -27.8545)
(-29.9335 18.3793 0.926819 77.6698 -9.40314 19.7008)
(-21.2471 41.4266 -2.94917 28.4383 -3.44128 5.42533)
(-11.6462 41.9618 -4.28141 -24.3129 2.54294 -7.0383)
(-4.37986 19.1785 -2.0938 -71.4188 8.67846 -18.5414)
(-31.3147 13.2858 1.49479 48.0569 -8.51763 14.8701)
(-21.2189 32.0488 -1.54371 18.3246 -3.03044 4.57608)
(-11.0776 33.0271 -2.79406 -13.7617 2.46287 -4.09557)
(-3.126 15.1266 -1.40519 -39.8884 8.39074 -11.4091)
(-31.2992 7.38672 1.58878 29.8245 -6.71677 13.9622)
(-23.4879 22.8518 -0.883316 9.41939 -2.52583 2.99273)
(-10.8807 24.0756 -2.01573 -6.22331 1.73134 -1.98489)
(-0.990699 10.9039 -1.04292 -16.7578 6.68281 -6.0173)
(-43.5455 4.76283 1.20027 12.95 -3.62319 7.04489)
(-38.9489 13.742 -1.08168 -1.42115 -1.51745 -5.14148)
(-7.77851 13.239 -2.52212 1.15432 0.448599 1.87808)
(4.91822 5.6254 -1.74797 -2.78786 3.01854 -0.839989)
(193.02 75.8863 -0.580352 422.578 4.29396 240.933)
(34.1108 67.1437 -2.51584 93.2376 0.594672 49.2424)
(-51.4124 63.5308 -2.87422 -99.989 -4.59434 -57.4738)
(-204.407 65.0296 -1.37309 -411.768 -8.82262 -239.333)
(-44.8269 27.5292 -1.05186 169.112 -2.20425 39.6239)
(-8.03691 72.421 -5.10405 76.9135 -1.85317 24.7539)
(-23.1429 71.5783 -5.90458 -78.3595 -1.45293 -33.7535)
(5.26986 27.4905 -2.79956 -178.195 -1.11998 -54.0492)
(-22.8892 27.9878 -0.660881 160.199 -4.91833 47.3572)
(-21.9547 60.7571 -4.66719 54.9064 -2.50171 12.0776)
(-13.6902 60.8826 -5.55871 -53.5651 0.194674 -19.3545)
(-12.4627 27.8875 -2.64722 -158.756 2.63471 -53.3495)
(-30.1938 22.7804 -0.0507632 114.591 -6.48148 30.9784)
(-22.3327 50.7724 -3.44713 41.6229 -2.733 9.02991)
(-13.1122 51.0878 -4.34984 -37.5004 1.30949 -12.9716)
(-5.7762 23.0846 -2.12607 -109.772 5.12229 -33.6504)
(-30.8629 18.2089 0.574369 78.8473 -6.89501 22.1063)
(-22.2293 41.0374 -2.10437 29.5002 -2.63571 6.88317)
(-12.2349 41.6248 -2.99134 -23.7315 1.87646 -7.78395)
(-4.93666 19.0773 -1.49711 -71.279 6.29872 -21.6249)
(-32.181 12.9517 1.00238 49.2985 -6.40732 15.3235)
(-22.0964 31.4518 -1.08941 19.3453 -2.3493 5.4833)
(-11.6811 32.563 -1.90811 -13.1248 1.9115 -3.93273)
(-3.68088 15.0184 -0.963333 -39.6175 6.30103 -12.1279)
(-31.7445 6.91881 1.08205 31.4912 -5.19645 13.226)
(-24.2914 22.2535 -0.681997 10.3801 -1.96661 3.47324)
(-11.6001 23.6761 -1.43376 -5.58443 1.39389 -1.07429)
(-1.60924 10.8558 -0.715867 -16.2745 5.15832 -4.74671)
(-43.9324 4.55617 0.670202 14.4722 -2.95054 5.26328)
(-39.9503 13.4172 -1.15946 -0.457147 -1.2141 -4.93393)
(-9.17853 12.9843 -2.17593 1.63302 0.374444 3.31578)
(4.10639 5.62008 -1.4198 -2.03091 2.37414 2.20722)
(194.619 76.4131 -0.265573 425.663 1.41412 245.646)
(34.5481 67.0706 -1.4176 94.4977 -0.250918 51.0168)
(-51.5951 63.2239 -1.64675 -99.6514 -2.8121 -58.5116)
(-205.466 64.9637 -0.802574 -412.7 -4.75656 -243.156)
(-45.8912 27.5471 -0.507986 169.026 -1.86691 44.8307)
(-8.51138 72.6326 -2.99969 77.8191 -1.4713 27.104)
(-23.4433 71.7376 -3.52536 -77.5746 -1.11415 -35.7344)
(5.06032 27.5043 -1.7125 -177.345 -0.675699 -59.8845)
(-23.7985 28.1503 -0.34063 160.728 -3.44559 52.3053)
(-22.8341 61.1223 -2.91963 55.6783 -1.81952 14.0123)
(-14.0344 61.2571 -3.51221 -52.7953 -0.00522674 -21.0913)
(-12.6325 28.044 -1.70977 -158.015 1.68906 -58.6815)
(-31.1662 22.9409 0.00327521 115.279 -4.41959 34.6144)
(-23.2438 51.1205 -2.24978 42.3997 -1.93907 10.5236)
(-13.5489 51.4625 -2.83789 -36.8105 0.79892 -14.1994)
(-5.98601 23.2759 -1.40558 -109.154 3.35444 -37.6219)
(-31.7795 18.3077 0.388995 79.7093 -4.7403 24.2796)
(-23.093 41.272 -1.42047 30.2963 -1.87263 7.94124)
(-12.7217 41.9153 -1.98579 -23.1107 1.24825 -8.3793)
(-5.19652 19.2661 -0.997027 -70.7726 4.24278 -23.9172)
(-33.0062 12.9451 0.660537 50.3009 -4.5012 16.2142)
(-22.87 31.5452 -0.779373 20.1526 -1.69542 6.20064)
(-12.1889 32.7567 -1.29278 -12.5603 1.31731 -3.89829)
(-3.97481 15.1942 -0.645305 -39.1478 4.35339 -12.7834)
(-32.2913 6.79205 0.680248 32.7757 -3.75902 13.2878)
(-25.0316 22.2453 -0.596589 11.1469 -1.44856 3.91649)
(-12.2114 23.7892 -1.06989 -5.08559 0.969918 -0.508098)
(-1.94682 11.0169 -0.519516 -15.7111 3.63414 -3.95395)
(-44.6991 4.51996 0.269682 15.4401 -2.20031 4.33968)
(-41.0294 13.4103 -1.17282 0.162466 -0.914724 -4.85043)
(-10.2654 12.9787 -1.84105 2.0139 0.236691 4.2174)
(3.61561 5.68961 -1.14842 -1.35973 1.67379 4.17789)
(195.202 76.5461 -0.0944003 426.985 0.173356 247.986)
(34.7403 66.8064 -0.751061 95.2207 -0.483334 51.9811)
(-51.5991 62.7974 -0.890716 -99.1899 -1.65819 -58.9778)
(-205.545 64.6854 -0.440948 -412.27 -2.46118 -244.742)
(-46.59 27.4788 -0.189306 169.012 -1.43616 47.8259)
(-8.86802 72.5975 -1.65054 78.4107 -1.07148 28.4335)
(-23.6464 71.6675 -1.97856 -76.8776 -0.771997 -36.8615)
(4.85861 27.4494 -0.977274 -176.649 -0.363216 -63.264)
(-24.4613 28.2214 -0.12103 161.067 -2.29871 55.3461)
(-23.4369 61.3136 -1.69352 56.2177 -1.23671 15.1809)
(-14.3071 61.4631 -2.06773 -52.1181 -0.0733054 -22.1598)
(-12.7256 28.1322 -1.01872 -157.276 1.05179 -61.8657)
(-31.8677 23.0657 0.0603527 115.745 -2.85252 37.0391)
(-23.8721 51.4207 -1.35287 42.9595 -1.28393 11.4803)
(-13.8634 51.7901 -1.71945 -36.1893 0.453862 -14.9896)
(-6.09473 23.4431 -0.855838 -108.486 2.08288 -40.1043)
(-32.4372 18.4262 0.279021 80.3146 -3.05905 25.9229)
(-23.6883 41.5707 -0.88325 30.8786 -1.23755 8.66767)
(-13.0532 42.2588 -1.2304 -22.5579 0.763294 -8.7857)
(-5.33087 19.4626 -0.615539 -70.1986 2.67132 -25.4321)
(-33.5886 13.0053 0.431801 51.0182 -2.94951 17.1314)
(-23.4067 31.769 -0.521308 20.7393 -1.13596 6.73777)
(-12.529 33.0505 -0.832982 -12.0804 0.823882 -3.90271)
(-4.1419 15.3872 -0.409443 -38.6468 2.78338 -13.2996)
(-32.6944 6.761 0.414912 33.6735 -2.52092 13.7219)
(-25.564 22.3694 -0.47639 11.6883 -0.990043 4.28385)
(-12.6289 23.9899 -0.764566 -4.69167 0.603232 -0.178852)
(-2.14709 11.181 -0.363516 -15.1952 2.35092 -3.5586)
(-45.1926 4.51399 0.0809549 16.2446 -1.52013 4.26481)
(-41.8172 13.4658 -0.984417 0.609218 -0.641505 -4.71873)
(-11.0099 13.0221 -1.40581 2.2988 0.125437 4.70005)
(3.22528 5.74688 -0.849979 -0.918253 1.08157 5.16184)
(195.36 76.5487 -0.0214731 427.484 -0.180111 249.069)
(34.8259 66.5702 -0.354656 95.6281 -0.391746 52.4839)
(-51.5383 62.4594 -0.429814 -98.7862 -0.869659 -59.1533)
(-205.326 64.4288 -0.215519 -411.546 -1.15157 -245.291)
(-47.0144 27.4014 -0.046703 169.014 -0.905303 49.4102)
(-9.09374 72.4948 -0.80412 78.7829 -0.65218 29.1409)
(-23.7624 71.544 -0.983745 -76.3668 -0.450908 -37.457)
(4.71058 27.3876 -0.491879 -176.149 -0.16912 -65.0829)
(-24.8865 28.2393 -0.0210804 161.277 -1.32673 57.0334)
(-23.8009 61.3852 -0.85977 56.5752 -0.720005 15.8338)
(-14.4859 61.5469 -1.0666 -51.6346 -0.0679622 -22.7638)
(-12.7827 28.1688 -0.529267 -156.73 0.579587 -63.6204)
(-32.317 23.1348 0.064172 116.035 -1.60379 38.4562)
(-24.2522 51.6004 -0.706082 43.3309 -0.732926 12.04)
(-14.0597 51.9899 -0.907235 -35.7403 0.227662 -15.448)
(-6.15885 23.5464 -0.452323 -107.981 1.13578 -41.5168)
(-32.8628 18.505 0.172747 80.6795 -1.71521 26.9551)
(-24.0479 41.7793 -0.473595 31.2605 -0.704774 9.11782)
(-13.2518 42.4973 -0.662511 -22.1558 0.40539 -9.02753)
(-5.40328 19.5957 -0.329893 -69.7479 1.46475 -26.327)
(-33.9695 13.0542 0.246275 51.4419 -1.66957 17.7901)
(-23.7321 31.943 -0.297645 21.116 -0.653299 7.09414)
(-12.7294 33.268 -0.466204 -11.7356 0.443393 -3.9123)
(-4.23285 15.5215 -0.226387 -38.2514 1.53831 -13.6409)
(-32.9771 6.75264 0.220671 34.1942 -1.45005 14.1254)
(-25.8927 22.4747 -0.307254 12.0283 -0.577681 4.54769)
(-12.8787 24.1397 -0.463479 -4.41842 0.321254 -0.00219256)
(-2.25531 11.2925 -0.218191 -14.8102 1.30706 -3.38673)
(-45.532 4.51664 0.00311585 16.7288 -0.895625 4.4003)
(-42.3195 13.5157 -0.646339 0.884121 -0.380821 -4.60424)
(-11.4649 13.0566 -0.88005 2.49134 0.0563748 4.93043)
(2.97443 5.78065 -0.52408 -0.631457 0.599745 5.60169)
(195.382 76.5299 -0.00184869 427.636 -0.102654 249.486)
(34.8591 66.4401 -0.103187 95.8138 -0.145699 52.6989)
(-51.4898 62.2803 -0.12685 -98.5575 -0.270402 -59.2038)
(-205.148 64.2851 -0.0640795 -411.072 -0.33422 -245.434)
(-47.2142 27.3546 -0.00531186 169.016 -0.309075 50.0847)
(-9.20193 72.4227 -0.238387 78.9644 -0.219023 29.4454)
(-23.8133 71.4622 -0.295463 -76.0982 -0.148052 -37.7112)
(4.63438 27.3504 -0.148712 -175.887 -0.04826 -65.8723)
(-25.0916 28.2389 0.00100334 161.379 -0.434678 57.7747)
(-23.9712 61.4027 -0.261031 56.7546 -0.236719 16.1234)
(-14.5727 61.571 -0.327067 -51.3851 -0.0262953 -23.0343)
(-12.8106 28.1797 -0.162837 -156.444 0.185571 -64.3941)
(-32.5334 23.1632 0.0256327 116.174 -0.518267 39.0982)
(-24.4301 51.679 -0.217809 43.5163 -0.238534 12.2957)
(-14.153 52.0788 -0.281814 -35.5079 0.068722 -15.6564)
(-6.18969 23.5931 -0.140549 -107.717 0.360865 -42.152)
(-33.0691 18.5414 0.0580729 80.8491 -0.553202 27.4422)
(-24.2161 41.8794 -0.14848 31.4488 -0.229062 9.33099)
(-13.3439 42.6119 -0.208364 -21.9469 0.126402 -9.13864)
(-5.43575 19.6594 -0.103447 -69.5072 0.466151 -26.7384)
(-34.1546 13.0777 0.0793483 51.6346 -0.541036 18.1234)
(-23.8845 32.0301 -0.0969353 21.2983 -0.213429 7.26979)
(-12.8211 33.3755 -0.15019 -11.5569 0.139125 -3.91797)
(-4.2735 15.5868 -0.0724524 -38.0391 0.49114 -13.8089)
(-33.1178 6.74918 0.067635 34.426 -0.474269 14.3516)
(-26.0477 22.5286 -0.106549 12.19 -0.190186 4.68303)
(-12.9942 24.2131 -0.155896 -4.27869 0.100127 0.0738441)
(-2.30417 11.3457 -0.0731293 -14.609 0.418328 -3.32911)
(-45.6926 4.52049 -0.0083677 16.9516 -0.298532 4.51814)
(-42.5578 13.5437 -0.224987 1.01559 -0.126641 -4.53926)
(-11.6819 13.0724 -0.299745 2.58792 0.0160257 5.01674)
(2.84744 5.79417 -0.177568 -0.493788 0.19181 5.75439)
)
;

boundaryField
{
    interface
    {
        type            calculated;
        value           nonuniform List<symmTensor> 
192
(
(-22.3073 -0.0806899 2.42393 423.252 40.4061 127.637)
(-21.6297 0.0721902 4.13931 206.706 -12.4367 25.1689)
(-21.5581 0.230101 4.99587 207.43 -7.69796 46.8094)
(-21.691 0.251192 5.48243 151.073 -11.4405 36.9216)
(-22.2488 -0.0134699 5.77105 107.194 -10.7778 33.4929)
(-23.038 -0.666743 5.86559 68.9883 -9.48269 29.5441)
(-23.7651 -1.9204 5.68421 45.6144 -7.54707 29.383)
(-22.8113 -3.85451 4.9929 33.3588 -4.1779 32.1963)
(-25.3688 0.101237 1.76691 418.117 25.3468 135.436)
(-25.0532 0.333651 3.04019 227.507 -4.24486 42.5197)
(-25.7049 0.530585 3.66517 205.225 -11.5631 44.8482)
(-26.6013 0.500692 4.01207 150.355 -15.0156 36.7798)
(-27.7198 0.121495 4.19651 103.935 -15.2382 32.1363)
(-28.7709 -0.736057 4.22216 65.8197 -13.5695 28.9533)
(-29.0562 -2.33414 4.03411 43.1601 -10.4753 29.7762)
(-25.7703 -4.61859 3.50212 32.9581 -5.81831 34.5998)
(-27.4255 0.156789 1.28504 426.298 12.7633 146.881)
(-26.9969 0.427258 2.20128 225.246 -2.67502 55.2008)
(-27.8057 0.646038 2.61609 204.891 -8.5633 51.9377)
(-28.8741 0.593616 2.82457 149.532 -11.7255 38.5775)
(-30.1027 0.147709 2.92398 102.579 -12.4056 29.6806)
(-31.1121 -0.830092 2.92039 64.5224 -11.3364 23.6747)
(-30.9929 -2.60935 2.78854 42.7684 -8.88996 22.9985)
(-26.5159 -5.0231 2.45581 32.3494 -4.7597 26.3428)
(-28.9085 0.169562 0.948692 431.219 5.51462 154.319)
(-28.367 0.455771 1.62787 223.809 -2.34359 65.4405)
(-29.1988 0.685315 1.92083 204.984 -5.99837 60.4193)
(-30.2984 0.619679 2.05659 149.966 -8.22351 43.7738)
(-31.5293 0.131347 2.11653 103.176 -8.92824 31.6245)
(-32.4511 -0.921263 2.1093 65.3888 -8.39197 23.0656)
(-32.0502 -2.80686 2.02529 44.2786 -6.81753 20.7364)
(-26.8674 -5.28204 1.80816 33.9336 -3.8786 23.0762)
(-29.9758 0.170032 0.686865 433.363 1.86201 158.268)
(-29.3597 0.460632 1.18332 223.093 -2.07968 71.8079)
(-30.1824 0.693532 1.39259 205.109 -4.1793 66.4373)
(-31.2743 0.619236 1.48468 150.437 -5.54599 48.1777)
(-32.4832 0.104295 1.52424 103.924 -6.07064 34.0773)
(-33.3299 -0.995087 1.52045 66.3765 -5.83977 23.794)
(-32.743 -2.94801 1.46989 45.6624 -4.90545 20.2894)
(-27.0943 -5.46005 1.32497 35.3107 -2.89213 21.8053)
(-30.7199 0.167312 0.467127 434.082 0.276091 160.211)
(-30.055 0.45785 0.807897 222.726 -1.64903 75.4682)
(-30.8648 0.690807 0.950414 205.262 -2.79121 70.203)
(-31.9418 0.6107 1.01154 150.829 -3.56367 51.2178)
(-33.1284 0.0793072 1.03795 104.509 -3.89586 36.084)
(-33.922 -1.0493 1.0373 67.124 -3.80801 24.8213)
(-33.2157 -3.04574 1.00798 46.6585 -3.28212 20.6331)
(-27.2579 -5.58142 0.913376 36.4183 -1.99878 21.753)
(-31.1926 0.165187 0.269821 434.209 -0.191364 161.086)
(-30.5004 0.454396 0.468534 222.519 -1.05661 77.3843)
(-31.3018 0.686142 0.551183 205.376 -1.61504 72.2949)
(-32.367 0.602293 0.586172 151.087 -2.00128 53.0097)
(-33.538 0.0612158 0.601603 104.871 -2.17943 37.3757)
(-34.2988 -1.08516 0.602127 67.5708 -2.15088 25.6138)
(-33.52 -3.10857 0.585266 47.2454 -1.8865 21.0716)
(-27.373 -5.65594 0.527881 37.1072 -1.17929 22.0104)
(-31.4124 0.163539 0.0873369 434.188 -0.117211 161.416)
(-30.7062 0.451323 0.15218 222.426 -0.363236 78.1977)
(-31.5007 0.682166 0.178931 205.441 -0.529979 73.219)
(-32.5577 0.596979 0.190156 151.223 -0.646648 53.831)
(-33.7201 0.0515933 0.195207 105.05 -0.702426 37.9992)
(-34.4669 -1.10494 0.195517 67.7819 -0.696474 26.0323)
(-33.6419 -3.14376 0.189302 47.5222 -0.617051 21.3515)
(-27.3838 -5.68532 0.168527 37.4521 -0.393898 22.2388)
(37.2812 55.6038 -2.67742 271.478 -0.699292 -9.58221)
(-77.5111 25.3666 -4.54807 112.447 -1.07368 -6.00693)
(-52.7993 35.2171 -5.47268 127.956 -1.08537 -2.80656)
(-53.9496 32.1668 -6.10628 90.288 -0.929036 -0.346661)
(-48.7645 28.9429 -6.67195 63.0754 -0.841809 1.33497)
(-46.5959 23.0149 -7.22861 37.4876 -0.944155 2.27643)
(-45.8162 15.6124 -7.89108 20.088 -1.25627 2.46082)
(-54.5656 8.68269 -9.08443 6.22853 -1.62558 1.73555)
(-5.17916 43.5937 -1.65095 56.4359 -0.540166 -8.36447)
(-40.4037 66.2875 -2.97429 36.1283 -0.999601 -7.00358)
(-41.6742 70.7783 -3.49846 37.0441 -1.17892 -5.15823)
(-41.1423 66.8066 -3.77615 26.1397 -1.06758 -3.59908)
(-39.0904 59.1085 -4.02487 17.1368 -0.871262 -2.51938)
(-37.7283 48.3422 -4.34746 8.46966 -0.730613 -1.91668)
(-37.7822 35.8426 -4.91286 1.85906 -0.694513 -1.7146)
(-46.6596 20.3466 -6.35247 -3.19301 -0.642799 -1.5787)
(-26.2543 39.4887 -1.24201 -90.29 -0.353661 -7.55625)
(2.80208 64.181 -2.4269 -45.4036 -0.813294 -7.19699)
(-3.06032 70.5332 -2.92256 -44.5859 -1.08134 -6.08219)
(-5.69324 67.0322 -3.14646 -33.024 -1.03929 -5.02191)
(-8.47962 59.6688 -3.31145 -24.4865 -0.839559 -4.29198)
(-10.2859 49.373 -3.54807 -17.1528 -0.624474 -3.9103)
(-11.7775 36.9387 -4.03738 -11.7067 -0.458598 -3.81093)
(-9.17425 19.8248 -5.39422 -4.65877 -0.290946 -3.69323)
(-66.5292 45.1723 -1.16018 -293.284 -0.288994 -6.47562)
(41.4835 23.1927 -2.42288 -120.707 -0.757364 -6.54237)
(14.1476 35.1256 -3.01211 -132.711 -1.05462 -5.66864)
(13.9121 32.6438 -3.29201 -93.0564 -1.05035 -4.82375)
(8.03071 29.9211 -3.46817 -64.8967 -0.861349 -4.23096)
(5.03818 24.8846 -3.69303 -39.2633 -0.619375 -3.90317)
(3.68318 18.455 -4.14549 -20.8449 -0.366156 -3.75666)
(8.51795 9.06308 -5.3792 -7.1581 -0.0428998 -3.66805)
(-3.75296 0.258944 0.288122 -420.524 -49.3534 -134.179)
(-3.01323 0.578554 0.522388 -209.83 8.27591 -27.9696)
(-2.0803 0.797339 0.544159 -201.814 4.72431 -41.4385)
(-1.36709 0.823671 0.515085 -140.769 9.34786 -26.4146)
(-0.817198 0.728249 0.533351 -94.0445 9.4292 -19.67)
(-0.259756 0.584839 0.639623 -53.74 8.8465 -13.6607)
(0.718598 0.352683 0.844169 -25.6435 7.00454 -10.7605)
(3.61882 -0.704119 1.08991 -11.2587 2.69072 -10.6171)
(-4.34141 0.112057 -0.0573167 -408.605 -33.8293 -140.089)
(-4.30661 0.306759 -0.0897018 -234.36 -1.29699 -47.4265)
(-4.00235 0.475502 -0.15458 -202.511 8.03679 -41.8566)
(-3.66498 0.54644 -0.204901 -143.276 12.9657 -29.5204)
(-3.32022 0.545006 -0.197792 -93.9817 14.325 -22.0961)
(-2.8838 0.525017 -0.124639 -53.2678 13.5257 -16.811)
(-1.96905 0.453551 -0.00358977 -24.5016 10.7112 -13.9111)
(1.03799 -0.420177 0.11203 -11.1924 5.2473 -14.0147)
(-4.6576 0.0481324 -0.118579 -415.778 -19.2225 -152.963)
(-4.80916 0.181174 -0.187053 -233.09 -1.67019 -64.1808)
(-4.68342 0.330123 -0.224052 -203.257 5.63177 -54.3173)
(-4.47256 0.435351 -0.236153 -144.005 10.0623 -37.4006)
(-4.17828 0.502841 -0.205842 -94.0843 11.7897 -25.8641)
(-3.72528 0.566796 -0.135616 -53.0027 11.4944 -17.3467)
(-2.7469 0.578238 -0.0547639 -23.8869 9.3959 -11.7785)
(0.0869034 -0.134293 -0.0291504 -9.59758 4.59248 -8.78774)
(-4.87978 0.0233827 -0.113581 -419.392 -10.3439 -160.997)
(-5.08435 0.126269 -0.178832 -231.639 -0.97511 -76.2926)
(-5.03066 0.266295 -0.195973 -202.744 3.71479 -64.8959)
(-4.87157 0.396931 -0.186146 -143.823 6.89922 -44.791)
(-4.58555 0.513545 -0.14695 -93.8939 8.43523 -29.7837)
(-4.10242 0.634832 -0.0880339 -52.7186 8.50361 -18.2197)
(-3.07855 0.702462 -0.0388348 -23.2737 7.17182 -10.0603)
(-0.330694 0.0920571 -0.0484743 -8.58218 3.59433 -4.86574)
(-5.04415 0.0133994 -0.090267 -420.14 -5.35985 -165.185)
(-5.26751 0.103302 -0.142308 -230.609 -0.411384 -83.7144)
(-5.24539 0.24219 -0.148248 -201.949 2.46126 -71.8546)
(-5.10723 0.392421 -0.130552 -143.206 4.52623 -50.0498)
(-4.81608 0.543126 -0.0940076 -93.3968 5.65401 -32.8464)
(-4.30616 0.701293 -0.0505521 -52.2148 5.84429 -19.122)
(-3.26307 0.801122 -0.0253779 -22.5652 5.04453 -9.05988)
(-0.589445 0.255342 -0.054511 -7.72064 2.55372 -2.38389)
(-5.1569 0.00988153 -0.0623162 -419.656 -2.64534 -167.195)
(-5.38628 0.095655 -0.0980092 -229.838 -0.102071 -87.9636)
(-5.37671 0.237218 -0.0983393 -201.223 1.58285 -76.0169)
(-5.24546 0.401663 -0.0812657 -142.553 2.83166 -53.3491)
(-4.94708 0.574143 -0.0533947 -92.8185 3.56339 -34.8935)
(-4.42006 0.75379 -0.0254175 -51.6591 3.73834 -19.8511)
(-3.3722 0.87114 -0.015707 -21.9133 3.27548 -8.59244)
(-0.762536 0.366135 -0.0476601 -7.10143 1.67107 -1.10675)
(-5.22622 0.00901415 -0.0355708 -418.928 -1.1797 -168.08)
(-5.4572 0.0943967 -0.0556646 -229.298 0.0132108 -90.2199)
(-5.45219 0.239297 -0.0543849 -200.691 0.893424 -78.298)
(-5.32252 0.412888 -0.0428158 -142.057 1.55677 -55.2167)
(-5.01885 0.597866 -0.0260031 -92.3563 1.96026 -36.1032)
(-4.48313 0.78886 -0.0109372 -51.2158 2.07164 -20.3375)
(-3.43719 0.914806 -0.00829915 -21.4322 1.83011 -8.41082)
(-0.873549 0.4341 -0.0328182 -6.69501 0.937254 -0.524821)
(-5.25799 0.00913186 -0.0114093 -418.461 -0.331343 -168.402)
(-5.48863 0.0948407 -0.017766 -229.016 0.0164472 -91.1887)
(-5.48505 0.241607 -0.0171202 -200.411 0.289646 -79.2979)
(-5.35589 0.419544 -0.013139 -141.795 0.497124 -56.0514)
(-5.05037 0.610248 -0.0076393 -92.107 0.625387 -36.658)
(-4.51154 0.806487 -0.00295392 -50.9767 0.662818 -20.5776)
(-3.46511 0.935084 -0.00246261 -21.1799 0.587604 -8.35673)
(-0.934206 0.465997 -0.0119229 -6.50005 0.301519 -0.318871)
(-59.0629 9.98068 -1.94474 1.11244 -2.57788 2.21606)
(-53.6171 9.54359 1.57409 2.92403 -2.1513 6.31176)
(-54.6303 9.56154 0.897241 4.38128 -1.69301 1.06269)
(-55.2418 9.68016 0.321689 5.52015 -1.32502 -1.31941)
(-56.1772 9.80699 -0.0708858 6.36501 -1.00991 -2.68996)
(-56.8851 9.91488 -0.188613 6.96089 -0.719848 -3.10617)
(-57.3609 9.9928 -0.168243 7.32501 -0.441675 -3.16211)
(-57.629 10.0308 -0.0673037 7.42495 -0.152197 -3.1726)
(-51.1281 7.0742 -3.90231 -1.14693 -0.939231 -6.80485)
(-46.0787 6.14159 -1.68641 -0.241246 -0.813875 -5.9209)
(-46.4241 5.9142 -1.41283 0.76598 -0.62837 -6.24295)
(-47.7448 5.85955 -1.66032 1.5999 -0.495106 -6.22341)
(-49.0738 5.85499 -1.69433 2.21532 -0.38765 -6.29784)
(-50.0623 5.8663 -1.4097 2.64706 -0.282726 -6.28597)
(-50.6887 5.88376 -0.917799 2.92756 -0.172491 -6.24101)
(-50.9689 5.90337 -0.317744 3.08923 -0.0576808 -6.1922)
(-6.01872 5.87531 -4.00249 -2.93036 -0.216054 -0.932689)
(-7.54873 4.76654 -3.53299 -2.29669 -0.227431 -1.92808)
(-9.36683 4.39488 -3.2106 -1.56864 -0.185856 0.151551)
(-11.1682 4.22534 -2.95967 -0.980156 -0.1631 1.95605)
(-12.5555 4.13065 -2.56409 -0.557656 -0.143458 3.04371)
(-13.5122 4.07358 -1.9662 -0.268393 -0.113175 3.58554)
(-14.1059 4.04067 -1.2293 -0.0858544 -0.0698841 3.81744)
(-14.3827 4.02424 -0.417946 0.0181156 -0.0224511 3.90293)
(11.6506 5.60177 -3.31785 -2.89454 0.216304 -3.30009)
(8.09386 4.48511 -2.76046 -2.41978 0.025335 -5.60322)
(6.827 4.05461 -2.52629 -1.95191 -0.0430714 -0.561795)
(5.54643 3.82733 -2.14861 -1.57058 -0.0750574 3.0165)
(4.6465 3.683 -1.75933 -1.3058 -0.0865224 5.21006)
(3.97873 3.58716 -1.30102 -1.13118 -0.0776337 6.25448)
(3.54343 3.52671 -0.799025 -1.02715 -0.0524332 6.67487)
(3.32401 3.49417 -0.269966 -0.980773 -0.0181383 6.80071)
)
;
    }
    symmetry
    {
        type            symmetryPlane;
    }
    bottom
    {
        type            calculated;
        value           nonuniform List<symmTensor> 
32
(
(212.452 75.4866 0 318.679 86.7383 212.452)
(208.467 85.3598 0 312.7 43.3728 208.467)
(214.89 89.967 0 322.336 21.1966 214.89)
(218.829 91.7144 0 328.243 9.80724 218.829)
(220.738 92.3231 0 331.107 4.13313 220.738)
(221.608 92.5091 0 332.411 1.48387 221.608)
(221.968 92.5526 0 332.953 0.401756 221.968)
(222.093 92.5551 0 333.139 0.0614978 222.093)
(40.5925 31.7548 0 60.8887 25.7617 40.5925)
(42.5997 42.7856 0 63.8995 13.378 42.5997)
(45.6079 44.7495 0 68.4118 6.27902 45.6079)
(47.123 44.5682 0 70.6845 2.55356 47.123)
(47.9464 43.9962 0 71.9197 0.76429 47.9464)
(48.4193 43.4916 0 72.629 0.0313885 48.4193)
(48.6847 43.1547 0 73.0271 -0.151644 48.6847)
(48.8052 42.99 0 73.2078 -0.0757006 48.8052)
(-59.112 28.2177 0 -88.6681 -31.5355 -59.112)
(-52.8527 39.1745 0 -79.2791 -18.3724 -52.8527)
(-53.3039 40.5618 0 -79.9559 -10.8676 -53.3039)
(-53.554 39.8929 0 -80.331 -6.41911 -53.554)
(-53.5162 38.9752 0 -80.2744 -3.7419 -53.5162)
(-53.3496 38.2372 0 -80.0244 -2.10488 -53.3496)
(-53.1781 37.7552 0 -79.7672 -1.06183 -53.1781)
(-53.0757 37.5212 0 -79.6135 -0.322833 -53.0757)
(-216.041 64.2939 0 -324.062 -96.4119 -216.041)
(-205.653 72.5418 0 -308.48 -52.097 -205.653)
(-211.251 75.2083 0 -316.877 -28.1533 -211.251)
(-214.157 75.4996 0 -321.235 -14.9789 -214.157)
(-215.056 75.0601 0 -322.584 -7.77512 -215.056)
(-215.07 74.5186 0 -322.605 -3.87297 -215.07)
(-214.826 74.1001 0 -322.239 -1.74976 -214.826)
(-214.639 73.8798 0 -321.959 -0.496494 -214.639)
)
;
    }
}


// ************************************************************************* //
