/*--------------------------------*- C++ -*----------------------------------*\
| =========                 |                                                 |
| \\      /  F ield         | foam-extend: Open Source CFD                    |
|  \\    /   O peration     | Version:     3.1                                |
|   \\  /    A nd           | Web:         http://www.extend-project.de       |
|    \\/     M anipulation  |                                                 |
\*---------------------------------------------------------------------------*/
FoamFile
{
    version     2.0;
    format      ascii;
    class       volScalarField;
    location    "3.9";
    object      sigmaCauchyEq;
}
// * * * * * * * * * * * * * * * * * * * * * * * * * * * * * * * * * * * * * //

dimensions      [1 -1 -2 0 0 0 0];

internalField   nonuniform List<scalar> 
256
(
268.19
110.279
104.4
214.535
187.614
139.17
126.831
163.251
171.989
132.962
121.027
142.69
135.983
119.245
109.147
108.818
104.777
102.095
93.8306
78.8294
78.602
82.9064
76.2375
53.274
61.3525
63.9902
56.7108
33.7612
57.9191
50.1222
31.5161
19.1983
264.708
124.806
115.326
206.516
198.021
144.71
132.256
170.692
170.508
124.711
113.174
140.965
133.306
106.385
96.1568
105.175
100.552
87.5599
79.1352
73.303
74.5176
69.2403
62.5317
47.273
58.0028
52.6611
45.8728
28.3804
55.7062
43.5091
26.1221
16.0999
267.98
129.26
117.281
204.254
197.255
146.526
132.54
167.098
170.883
124.533
111.452
138.137
133.529
103.913
92.1589
102.207
100.679
84.1266
74.3074
70.3743
74.4301
65.6801
57.9302
44.5807
57.5499
49.8359
42.5064
26.1482
54.453
42.804
25.0995
13.4002
270.056
130.454
116.857
202.854
196.721
147.675
132.235
164.362
171.122
125.615
111.04
135.663
134.2
104.513
91.3334
99.9483
101.554
84.3298
73.2618
68.3161
75.3025
65.6503
56.9632
42.774
58.2465
49.9129
42.0059
24.6907
54.8475
43.8464
25.6022
12.1344
271.001
130.483
115.842
201.607
196.714
148.24
131.69
162.609
171.544
126.62
110.92
133.931
135.03
105.62
91.4003
98.3752
102.621
85.3662
73.4135
66.9324
76.4203
66.5311
57.182
41.5935
59.278
50.7218
42.3675
23.8044
55.7444
45.0599
26.364
11.7154
271.316
130.186
114.868
200.539
196.851
148.449
131.102
161.438
171.971
127.3
110.805
132.769
135.747
106.531
91.5977
97.3286
103.511
86.3241
73.7845
66.0291
77.3559
67.4033
57.6222
40.8493
60.1708
51.4949
42.8339
23.2886
56.6368
46.0163
26.9428
11.559
271.37
129.894
114.162
199.768
196.977
148.494
130.631
160.693
172.29
127.688
110.683
132.044
136.246
107.113
91.7324
96.6827
104.113
86.969
74.0707
65.479
77.9842
68.0054
57.9642
40.41
60.7804
52.0232
43.1678
23.0045
57.2788
46.6378
27.2892
11.465
271.355
129.729
113.799
199.365
197.044
148.491
130.374
160.326
172.455
127.859
110.604
131.691
136.496
107.387
91.7907
96.3724
104.409
87.2818
74.2127
65.2167
78.2904
68.3005
58.1363
40.2044
61.0773
52.2814
43.3304
22.8761
57.5968
46.938
27.4445
11.4092
)
;

boundaryField
{
    interface
    {
        type            calculated;
        value           nonuniform List<scalar> 
192
(
426.449
217.514
210.903
157.194
115.962
82.7245
65.081
57.0567
416.797
234.987
212.635
161.023
118.868
86.5827
69.4491
61.1627
422.421
230.538
211.644
160.652
118.56
85.932
68.2112
57.4245
426.716
227.896
210.822
160.651
119.08
86.6407
68.9651
57.2905
428.952
226.832
210.602
160.967
119.831
87.591
70.0196
57.8234
429.921
226.461
210.71
161.401
120.539
88.4437
70.9678
58.599
430.266
226.342
210.879
161.76
121.046
89.0299
71.6134
59.1867
430.355
226.305
210.981
161.948
121.296
89.3142
71.9186
59.4659
292.322
173.679
176.011
139.586
110.158
84.0261
66.0386
62.0466
99.722
132.863
140.488
129.48
113.425
93.4111
72.7416
57.1305
99.5927
118.715
127.513
118.606
104.485
86.0555
64.5676
35.8658
258.771
147.497
147.478
112.341
84.4843
59.1635
39.2361
23.1893
352.331
188.639
176.933
126.481
85.4738
50.1046
25.839
15.4476
337.33
203.042
176.5
127.211
85.0154
50.2656
26.7921
16.5495
338.837
197.022
172.99
124.29
82.363
47.8777
24.4311
12.2178
340.015
193.078
169.827
121.447
79.7529
45.3206
21.6036
9.47002
339.943
190.898
167.72
119.379
77.7853
43.2852
19.214
7.80048
339.284
189.617
166.384
118.016
76.441
41.8655
17.4957
6.839
338.59
188.86
165.58
117.191
75.6119
40.9846
16.4149
6.2566
338.176
188.5
165.198
116.801
75.2169
40.5651
15.8988
5.96827
62.7258
60.2115
59.2797
59.5059
60.396
61.302
61.9727
62.2917
48.9899
44.3105
44.9825
46.7414
48.3488
49.5309
50.2848
50.6521
13.0753
11.6175
12.8653
14.8769
16.4286
17.3581
17.8469
18.0534
18.611
15.4262
11.6449
9.84774
9.44173
9.30798
9.1791
9.07954
)
;
    }
    symmetry
    {
        type            symmetryPlane;
    }
    bottom
    {
        type            calculated;
        value           nonuniform List<scalar> 
32
(
243.291
210.744
207.853
209.009
209.996
210.485
210.67
210.719
74.7898
81.7931
82.9079
82.2496
81.3222
80.5496
80.0338
79.7797
77.3016
77.9115
75.934
73.4478
71.4618
70.0808
69.2276
68.8221
209.704
171.644
161.061
157.52
155.864
154.835
154.17
153.834
)
;
    }
}


// ************************************************************************* //
