/*--------------------------------*- C++ -*----------------------------------*\
| =========                 |                                                 |
| \\      /  F ield         | foam-extend: Open Source CFD                    |
|  \\    /   O peration     | Version:     3.1                                |
|   \\  /    A nd           | Web:         http://www.extend-project.de       |
|    \\/     M anipulation  |                                                 |
\*---------------------------------------------------------------------------*/
FoamFile
{
    version     2.0;
    format      ascii;
    class       volVectorField;
    location    "3.9";
    object      U;
}
// * * * * * * * * * * * * * * * * * * * * * * * * * * * * * * * * * * * * * //

dimensions      [0 1 -1 0 0 0 0];

internalField   nonuniform List<vector> 
256
(
(1.3854e-05 1.44969e-05 2.65391e-05)
(1.30208e-06 3.25212e-06 6.586e-06)
(1.3725e-06 -5.06391e-06 -1.3116e-05)
(1.46333e-05 -1.79388e-05 -3.58656e-05)
(7.21288e-05 5.9471e-05 3.3169e-05)
(5.85252e-05 1.48844e-05 9.0821e-06)
(5.73956e-05 -2.40859e-05 -1.99944e-05)
(6.81351e-05 -7.12664e-05 -4.48056e-05)
(0.000157431 9.22751e-05 3.49571e-05)
(0.000143898 2.28867e-05 8.6493e-06)
(0.000141568 -4.12489e-05 -2.01107e-05)
(0.000149622 -0.000113406 -4.73166e-05)
(0.000267705 0.000116465 3.1316e-05)
(0.000255071 2.66195e-05 6.98781e-06)
(0.000251263 -5.77852e-05 -1.91608e-05)
(0.000255155 -0.00015005 -4.46224e-05)
(0.000395515 0.000131271 2.48198e-05)
(0.000383206 2.654e-05 3.99211e-06)
(0.000377763 -7.27196e-05 -1.81419e-05)
(0.000377874 -0.000179063 -4.05038e-05)
(0.000532909 0.00013837 1.69903e-05)
(0.000520614 2.37382e-05 1.97598e-08)
(0.00051351 -8.56139e-05 -1.79025e-05)
(0.000510273 -0.000200789 -3.67421e-05)
(0.000672654 0.000139648 9.27912e-06)
(0.000660068 1.93253e-05 -4.63425e-06)
(0.000651317 -9.60107e-05 -1.8841e-05)
(0.000645376 -0.000215685 -3.45771e-05)
(0.000809729 0.000137174 2.20024e-06)
(0.000795738 1.44751e-05 -9.9288e-06)
(0.000784977 -0.000103625 -2.1034e-05)
(0.000777147 -0.000225131 -3.48681e-05)
(1.97536e-05 1.41762e-05 1.56921e-05)
(8.40274e-06 3.1157e-06 3.97772e-06)
(8.57281e-06 -4.23971e-06 -8.25223e-06)
(2.03812e-05 -1.62615e-05 -2.2148e-05)
(8.82794e-05 5.81734e-05 2.23661e-05)
(7.24404e-05 1.42491e-05 5.87639e-06)
(7.18283e-05 -2.28763e-05 -1.38988e-05)
(8.57242e-05 -6.94486e-05 -3.12638e-05)
(0.000177891 9.23962e-05 2.52338e-05)
(0.000163708 2.26197e-05 6.01166e-06)
(0.000161671 -4.12476e-05 -1.5176e-05)
(0.000170764 -0.000113779 -3.52317e-05)
(0.000289577 0.000117568 2.4093e-05)
(0.000276439 2.7021e-05 5.08198e-06)
(0.000272839 -5.79098e-05 -1.52404e-05)
(0.000277485 -0.000150908 -3.52146e-05)
(0.000416601 0.000133462 2.0507e-05)
(0.000404145 2.78074e-05 3.07141e-06)
(0.000398928 -7.25287e-05 -1.51789e-05)
(0.000399471 -0.000179811 -3.37583e-05)
(0.000552215 0.000141487 1.5643e-05)
(0.00054002 2.58335e-05 2.09095e-07)
(0.000533241 -8.48435e-05 -1.56422e-05)
(0.000530349 -0.000201016 -3.23923e-05)
(0.000690002 0.000143572 1.05256e-05)
(0.000677719 2.20925e-05 -3.25909e-06)
(0.000669432 -9.47149e-05 -1.69433e-05)
(0.000663811 -0.000215423 -3.20334e-05)
(0.000825961 0.000141856 5.43945e-06)
(0.000812356 1.77149e-05 -7.20724e-06)
(0.000802174 -0.000102201 -1.90892e-05)
(0.000794744 -0.000224862 -3.30087e-05)
(2.30773e-05 1.519e-05 9.82993e-06)
(1.11251e-05 3.33853e-06 2.48766e-06)
(1.12879e-05 -4.33754e-06 -5.41881e-06)
(2.36205e-05 -1.71803e-05 -1.42054e-05)
(9.83423e-05 5.90856e-05 1.49676e-05)
(8.09713e-05 1.43708e-05 3.78e-06)
(8.0552e-05 -2.25587e-05 -9.56989e-06)
(9.62282e-05 -7.01173e-05 -2.14651e-05)
(0.00019223 9.31074e-05 1.77828e-05)
(0.000176858 2.2845e-05 4.00437e-06)
(0.000174962 -4.09869e-05 -1.11786e-05)
(0.000185445 -0.000114217 -2.55951e-05)
(0.000306256 0.000118116 1.79568e-05)
(0.000292353 2.74077e-05 3.46503e-06)
(0.000288808 -5.75421e-05 -1.19186e-05)
(0.000294299 -0.000150897 -2.70913e-05)
(0.000434171 0.000134164 1.63694e-05)
(0.000421295 2.85065e-05 2.14205e-06)
(0.000416081 -7.19557e-05 -1.2539e-05)
(0.000417059 -0.000179429 -2.75037e-05)
(0.000569798 0.000142675 1.3707e-05)
(0.000557449 2.69442e-05 1.54917e-07)
(0.000550658 -8.4053e-05 -1.34748e-05)
(0.000547899 -0.000200417 -2.78241e-05)
(0.000707313 0.000145594 1.06026e-05)
(0.00069507 2.36519e-05 -2.32927e-06)
(0.000686803 -9.38215e-05 -1.49159e-05)
(0.000681139 -0.000214931 -2.86194e-05)
(0.000843415 0.000144969 7.1484e-06)
(0.00083001 1.96855e-05 -5.20531e-06)
(0.000819878 -0.000101407 -1.67883e-05)
(0.000812292 -0.000224833 -2.98925e-05)
(2.50332e-05 1.59737e-05 6.35443e-06)
(1.24067e-05 3.52584e-06 1.59212e-06)
(1.25374e-05 -4.45132e-06 -3.60553e-06)
(2.54928e-05 -1.79913e-05 -9.25204e-06)
(0.000104862 6.04095e-05 1.00919e-05)
(8.63935e-05 1.47085e-05 2.45546e-06)
(8.60103e-05 -2.25214e-05 -6.6203e-06)
(0.0001028 -7.12317e-05 -1.47513e-05)
(0.000202205 9.42596e-05 1.24495e-05)
(0.000185963 2.32648e-05 2.63882e-06)
(0.000184101 -4.08358e-05 -8.15817e-06)
(0.000195485 -0.000114924 -1.84211e-05)
(0.00031868 0.000118986 1.31446e-05)
(0.000304192 2.78594e-05 2.30499e-06)
(0.000300645 -5.72512e-05 -9.15921e-06)
(0.000306727 -0.000151123 -2.04736e-05)
(0.000448111 0.000134909 1.26653e-05)
(0.00043491 2.90436e-05 1.43131e-06)
(0.000429664 -7.15337e-05 -1.00816e-05)
(0.000430953 -0.000179309 -2.1816e-05)
(0.00058459 0.000143588 1.13686e-05)
(0.000572123 2.76601e-05 7.572e-08)
(0.000565286 -8.35504e-05 -1.11856e-05)
(0.000562609 -0.000200188 -2.30036e-05)
(0.000722655 0.000147 9.59291e-06)
(0.000710448 2.46289e-05 -1.66388e-06)
(0.00070214 -9.33252e-05 -1.2558e-05)
(0.000696405 -0.000214883 -2.4323e-05)
(0.000859439 0.000147083 7.30845e-06)
(0.000846185 2.09693e-05 -3.72565e-06)
(0.000836005 -0.000100994 -1.40811e-05)
(0.00082823 -0.000225174 -2.56142e-05)
(2.62702e-05 1.65263e-05 4.14221e-06)
(1.31257e-05 3.66507e-06 1.02692e-06)
(1.3223e-05 -4.5362e-06 -2.38287e-06)
(2.66495e-05 -1.85686e-05 -6.01779e-06)
(0.000109194 6.16175e-05 6.76452e-06)
(8.99448e-05 1.50602e-05 1.59185e-06)
(8.95469e-05 -2.25688e-05 -4.53258e-06)
(0.000107069 -7.22545e-05 -1.00318e-05)
(0.00020916 9.55016e-05 8.57418e-06)
(0.000192314 2.37197e-05 1.71486e-06)
(0.00019044 -4.08085e-05 -5.82384e-06)
(0.000202388 -0.000115777 -1.29963e-05)
(0.000327769 0.00012005 9.3625e-06)
(0.000312873 2.83249e-05 1.49795e-06)
(0.000309307 -5.71287e-05 -6.80468e-06)
(0.000315759 -0.00015167 -1.50041e-05)
(0.00045877 0.000135814 9.40304e-06)
(0.000445344 2.95166e-05 9.23334e-07)
(0.000440071 -7.13412e-05 -7.7448e-06)
(0.000441552 -0.000179616 -1.65803e-05)
(0.00059636 0.000144504 8.86642e-06)
(0.000583814 2.81928e-05 1.73996e-08)
(0.000576947 -8.3337e-05 -8.78588e-06)
(0.00057432 -0.000200429 -1.80074e-05)
(0.000735269 0.000148151 7.90945e-06)
(0.000723091 2.52895e-05 -1.16665e-06)
(0.000714759 -9.31462e-05 -9.94909e-06)
(0.000708976 -0.000215255 -1.9393e-05)
(0.000872864 0.000148641 6.44433e-06)
(0.000859719 2.18163e-05 -2.59914e-06)
(0.000849517 -0.000100877 -1.11044e-05)
(0.00084163 -0.000225807 -2.05144e-05)
(2.70577e-05 1.69038e-05 2.61421e-06)
(1.35586e-05 3.76329e-06 6.43057e-07)
(1.36321e-05 -4.59479e-06 -1.51017e-06)
(2.7381e-05 -1.89576e-05 -3.77461e-06)
(0.000112045 6.25659e-05 4.34557e-06)
(9.22653e-05 1.53509e-05 9.95098e-07)
(9.1844e-05 -2.26382e-05 -2.95857e-06)
(0.000109843 -7.30624e-05 -6.51419e-06)
(0.000213891 9.65807e-05 5.61117e-06)
(0.000196636 2.41124e-05 1.06762e-06)
(0.000194739 -4.08529e-05 -3.92037e-06)
(0.000207037 -0.000116579 -8.67257e-06)
(0.000334154 0.000121057 6.27415e-06)
(0.000318983 2.87311e-05 9.277e-07)
(0.000315394 -5.71282e-05 -4.71247e-06)
(0.00032207 -0.000152331 -1.02889e-05)
(0.000466483 0.000136704 6.48628e-06)
(0.000452907 2.99099e-05 5.63879e-07)
(0.000447614 -7.13123e-05 -5.48722e-06)
(0.000449205 -0.000180143 -1.16584e-05)
(0.000605103 0.000145354 6.32157e-06)
(0.000592507 2.85943e-05 -1.24471e-08)
(0.000585623 -8.33118e-05 -6.31506e-06)
(0.00058302 -0.000200916 -1.29125e-05)
(0.000744834 0.000149093 5.84089e-06)
(0.000732679 2.57444e-05 -7.74034e-07)
(0.000724338 -9.31561e-05 -7.18633e-06)
(0.000718525 -0.00021582 -1.4068e-05)
(0.000883165 0.000149795 4.94633e-06)
(0.000870093 2.23743e-05 -1.71079e-06)
(0.000859895 -0.00010093 -7.98728e-06)
(0.000851959 -0.000226528 -1.49144e-05)
(2.75313e-05 1.71407e-05 1.45133e-06)
(1.38121e-05 3.8261e-06 3.55361e-07)
(1.38708e-05 -4.63161e-06 -8.38223e-07)
(2.78193e-05 -1.91983e-05 -2.08292e-06)
(0.000113787 6.32092e-05 2.43754e-06)
(9.36802e-05 1.55522e-05 5.47564e-07)
(9.32408e-05 -2.26994e-05 -1.67704e-06)
(0.000111527 -7.36162e-05 -3.68022e-06)
(0.000216847 9.7356e-05 3.18337e-06)
(0.000199338 2.4392e-05 5.83979e-07)
(0.000197421 -4.09154e-05 -2.26754e-06)
(0.000209924 -0.000117187 -4.98799e-06)
(0.000338227 0.000121819 3.61308e-06)
(0.000322885 2.90248e-05 5.04085e-07)
(0.000319277 -5.71766e-05 -2.7751e-06)
(0.000326078 -0.000152892 -6.02085e-06)
(0.000471498 0.000137397 3.80364e-06)
(0.000457829 3.01906e-05 3.01943e-07)
(0.000452519 -7.13542e-05 -3.27666e-06)
(0.000454168 -0.000180642 -6.92854e-06)
(0.00061088 0.000146004 3.78255e-06)
(0.000598253 2.88674e-05 -1.80204e-08)
(0.00059136 -8.33644e-05 -3.80301e-06)
(0.000588765 -0.000201395 -7.76446e-06)
(0.000751234 0.000149769 3.56804e-06)
(0.000739094 2.60356e-05 -4.43193e-07)
(0.000730752 -9.32346e-05 -4.33878e-06)
(0.000724921 -0.000216341 -8.51614e-06)
(0.000890109 0.00015057 3.08787e-06)
(0.000877083 2.27168e-05 -9.71867e-07)
(0.000866898 -0.000101036 -4.80751e-06)
(0.000858944 -0.000227134 -9.03722e-06)
(2.77544e-05 1.72554e-05 4.66152e-07)
(1.393e-05 3.85678e-06 1.13912e-07)
(1.39817e-05 -4.64943e-06 -2.68931e-07)
(2.80254e-05 -1.93135e-05 -6.66579e-07)
(0.000114612 6.35331e-05 7.86607e-07)
(9.43516e-05 1.56543e-05 1.74978e-07)
(9.39036e-05 -2.27344e-05 -5.43928e-07)
(0.000112326 -7.38972e-05 -1.19175e-06)
(0.000218271 9.77577e-05 1.03273e-06)
(0.00020064 2.45357e-05 1.85848e-07)
(0.000198712 -4.09567e-05 -7.42811e-07)
(0.00021131 -0.000117512 -1.6295e-06)
(0.000340211 0.000122224 1.18054e-06)
(0.000324788 2.91775e-05 1.59707e-07)
(0.000321169 -5.72159e-05 -9.16983e-07)
(0.000328026 -0.000153208 -1.98339e-06)
(0.000473966 0.000137772 1.25368e-06)
(0.000460253 3.03361e-05 9.47853e-08)
(0.000454936 -7.13941e-05 -1.08984e-06)
(0.000456608 -0.000180935 -2.29916e-06)
(0.00061375 0.000146353 1.25862e-06)
(0.000601109 2.90058e-05 -7.81078e-09)
(0.000594211 -8.34117e-05 -1.26981e-06)
(0.000591619 -0.000201681 -2.59063e-06)
(0.000754436 0.00015012 1.19862e-06)
(0.000742304 2.61785e-05 -1.44431e-07)
(0.000733963 -9.3295e-05 -1.45024e-06)
(0.000728124 -0.000216644 -2.85009e-06)
(0.000893592 0.000150954 1.04757e-06)
(0.000880593 2.2881e-05 -3.15179e-07)
(0.000870417 -0.000101108 -1.60434e-06)
(0.000862456 -0.000227473 -3.02556e-06)
)
;

boundaryField
{
    interface
    {
        type            calculated;
        value           nonuniform List<vector> 
192
(
(3.81001e-05 4.07749e-05 2.9892e-05)
(8.45921e-05 9.02232e-05 4.18333e-05)
(0.00017122 0.000137454 4.55213e-05)
(0.000279335 0.000171701 4.18502e-05)
(0.000405752 0.000193825 3.42854e-05)
(0.000541811 0.000204744 2.48967e-05)
(0.000680749 0.000207063 1.57716e-05)
(0.000817627 0.000204568 8.06481e-06)
(4.47028e-05 4.61597e-05 1.78671e-05)
(0.000102619 9.18428e-05 2.83359e-05)
(0.000191727 0.000138425 3.31545e-05)
(0.000301287 0.000172581 3.27647e-05)
(0.000426705 0.000195029 2.91798e-05)
(0.000561039 0.000206678 2.38873e-05)
(0.000698138 0.000210049 1.83352e-05)
(0.000833965 0.000209176 1.32853e-05)
(5.04076e-05 5.09223e-05 1.12193e-05)
(0.000113605 9.50702e-05 1.88945e-05)
(0.000206773 0.000140357 2.33625e-05)
(0.000318292 0.000173598 2.46215e-05)
(0.000444263 0.000195655 2.35591e-05)
(0.000578382 0.000207575 2.10851e-05)
(0.000715089 0.00021185 1.80824e-05)
(0.000850881 0.000212567 1.49445e-05)
(5.41713e-05 5.41966e-05 7.24295e-06)
(0.000120896 9.80327e-05 1.27008e-05)
(0.000217378 0.000142753 1.63513e-05)
(0.000331067 0.000175197 1.80911e-05)
(0.000458309 0.000196757 1.83253e-05)
(0.000593095 0.000208643 1.75013e-05)
(0.000730244 0.00021339 1.60956e-05)
(0.000866611 0.000215036 1.4255e-05)
(5.66668e-05 5.64144e-05 4.71603e-06)
(0.000125811 0.000100422 8.50173e-06)
(0.000224812 0.00014503 1.12698e-05)
(0.00034044 0.000177015 1.29227e-05)
(0.000469082 0.000198174 1.36435e-05)
(0.000604843 0.00020991 1.36284e-05)
(0.000742751 0.000214834 1.31023e-05)
(0.000879852 0.000216963 1.20767e-05)
(5.82877e-05 5.789e-05 2.97465e-06)
(0.000129065 0.000102193 5.45999e-06)
(0.000229878 0.00014689 7.38408e-06)
(0.000347029 0.000178657 8.68016e-06)
(0.000476888 0.000199553 9.42801e-06)
(0.000613587 0.000211133 9.70127e-06)
(0.000752258 0.000216088 9.59287e-06)
(0.000890055 0.000218436 9.05861e-06)
(5.92716e-05 5.87986e-05 1.65144e-06)
(0.000131058 0.000103357 3.06366e-06)
(0.000233046 0.000148185 4.19356e-06)
(0.000351233 0.000179866 5.00702e-06)
(0.000481964 0.000200611 5.53552e-06)
(0.00061937 0.000212075 5.79837e-06)
(0.000758628 0.00021701 5.82903e-06)
(0.000896946 0.000219444 5.58169e-06)
(5.97373e-05 5.92335e-05 5.30556e-07)
(0.000132001 0.000103933 9.89064e-07)
(0.000234571 0.000148845 1.36123e-06)
(0.000353281 0.000180501 1.63749e-06)
(0.000484461 0.000201179 1.82593e-06)
(0.000622245 0.000212582 1.92841e-06)
(0.000761816 0.000217495 1.95324e-06)
(0.000900403 0.000219949 1.8824e-06)
(8.96456e-06 3.07492e-05 4.05911e-05)
(6.03104e-05 6.0783e-05 3.65255e-05)
(0.00014434 9.24902e-05 3.9636e-05)
(0.000254849 0.000113846 3.42778e-05)
(0.000384458 0.000127201 2.65078e-05)
(0.000524189 0.000133647 1.72979e-05)
(0.000666133 0.000135059 8.46648e-06)
(0.000804878 0.000133251 4.03632e-07)
(-6.16944e-06 8.12433e-06 9.44589e-06)
(4.30215e-05 1.55036e-05 1.00899e-05)
(0.000128199 2.34495e-05 9.50381e-06)
(0.000240414 2.6154e-05 7.33111e-06)
(0.000370781 2.51832e-05 3.84999e-06)
(0.00051072 2.16496e-05 -6.51261e-07)
(0.000652578 1.67105e-05 -5.82438e-06)
(0.00079038 1.1648e-05 -1.18591e-05)
(-6.47623e-06 -1.51434e-05 -1.87828e-05)
(4.18618e-05 -2.37201e-05 -2.12183e-05)
(0.000125859 -4.03361e-05 -2.20479e-05)
(0.00023658 -5.62119e-05 -2.09222e-05)
(0.000365148 -7.16019e-05 -1.98362e-05)
(0.000503212 -8.52929e-05 -1.9497e-05)
(0.000643236 -9.66587e-05 -2.04093e-05)
(0.000778811 -0.000105129 -2.2466e-05)
(8.53831e-06 -4.23531e-05 -5.17238e-05)
(5.61805e-05 -7.22031e-05 -4.82558e-05)
(0.000136139 -0.000113003 -5.31437e-05)
(0.000241844 -0.000147176 -4.89388e-05)
(0.000365763 -0.000176129 -4.3916e-05)
(0.000499666 -0.00019857 -3.91144e-05)
(0.000636137 -0.000214786 -3.60961e-05)
(0.00076888 -0.00022562 -3.58402e-05)
(3.67204e-05 -4.98685e-05 -3.94415e-05)
(7.76606e-05 -0.000104056 -5.40202e-05)
(0.000158706 -0.000162023 -5.90422e-05)
(0.000260012 -0.000207848 -5.66059e-05)
(0.000379386 -0.000243188 -5.19122e-05)
(0.000508874 -0.000267495 -4.71403e-05)
(0.000641936 -0.000282082 -4.40482e-05)
(0.000773039 -0.000289258 -4.39853e-05)
(4.19486e-05 -5.48667e-05 -2.45605e-05)
(9.72145e-05 -0.000106165 -3.77762e-05)
(0.000179865 -0.000163281 -4.38849e-05)
(0.000282525 -0.000208729 -4.45617e-05)
(0.000401022 -0.000243252 -4.31527e-05)
(0.000529026 -0.000266892 -4.14732e-05)
(0.000660418 -0.000281197 -4.08497e-05)
(0.000790627 -0.000288938 -4.19994e-05)
(4.69422e-05 -6.04774e-05 -1.57399e-05)
(0.000108435 -0.00010962 -2.57004e-05)
(0.000195264 -0.000164998 -3.16133e-05)
(0.000299837 -0.00020925 -3.41674e-05)
(0.000418887 -0.00024287 -3.50893e-05)
(0.000546674 -0.0002661 -3.56395e-05)
(0.000677725 -0.0002806 -3.66241e-05)
(0.000807997 -0.000289148 -3.83055e-05)
(5.02588e-05 -6.43653e-05 -1.02158e-05)
(0.000115633 -0.000112645 -1.75352e-05)
(0.000205871 -0.000167072 -2.26035e-05)
(0.000312643 -0.000210272 -2.57088e-05)
(0.000432966 -0.000243175 -2.77636e-05)
(0.000561408 -0.000266119 -2.94481e-05)
(0.000692899 -0.000280805 -3.11864e-05)
(0.000823725 -0.000289879 -3.29848e-05)
(5.24376e-05 -6.69453e-05 -6.6346e-06)
(0.000120379 -0.000115016 -1.18806e-05)
(0.00021317 -0.000169071 -1.58906e-05)
(0.000321922 -0.000211648 -1.87915e-05)
(0.000443675 -0.000244067 -2.10649e-05)
(0.000573112 -0.000266797 -2.30376e-05)
(0.000705382 -0.000281574 -2.48905e-05)
(0.000836975 -0.000290957 -2.65044e-05)
(5.38542e-05 -6.86237e-05 -4.16339e-06)
(0.000123482 -0.00011675 -7.70623e-06)
(0.00021808 -0.00017074 -1.05893e-05)
(0.000328379 -0.000213013 -1.28697e-05)
(0.00045138 -0.000245149 -1.47964e-05)
(0.000581791 -0.000267732 -1.65107e-05)
(0.000714862 -0.000282536 -1.80653e-05)
(0.00084721 -0.000292079 -1.93117e-05)
(5.47136e-05 -6.96406e-05 -2.30029e-06)
(0.000125371 -0.000117885 -4.35413e-06)
(0.000221124 -0.000171925 -6.08819e-06)
(0.000332469 -0.000214073 -7.52681e-06)
(0.000456365 -0.000246063 -8.78788e-06)
(0.000587514 -0.000268557 -9.924e-06)
(0.000721211 -0.000283365 -1.0938e-05)
(0.000854143 -0.000292984 -1.17166e-05)
(5.51202e-05 -7.01219e-05 -7.36809e-07)
(0.000126267 -0.000118448 -1.41034e-06)
(0.000222583 -0.000172537 -1.98876e-06)
(0.000334453 -0.000214645 -2.47882e-06)
(0.000458813 -0.000246576 -2.91513e-06)
(0.000590356 -0.00026903 -3.31041e-06)
(0.000724393 -0.000283833 -3.66082e-06)
(0.000857631 -0.00029348 -3.92418e-06)
(0.000877423 0.000135509 -1.18784e-06)
(0.000894317 0.000140342 2.81089e-06)
(0.000912423 0.000144015 5.03119e-06)
(0.000929019 0.000146474 5.69313e-06)
(0.000942919 0.000148263 5.22725e-06)
(0.000953597 0.000149543 4.09099e-06)
(0.000960802 0.000150383 2.57876e-06)
(0.000964415 0.000150787 8.78805e-07)
(0.000858594 1.34062e-05 -1.25361e-05)
(0.000876285 1.65923e-05 -9.13761e-06)
(0.000894811 1.87124e-05 -6.71324e-06)
(0.000911658 2.01396e-05 -4.85174e-06)
(0.000925709 2.10997e-05 -3.41608e-06)
(0.000936482 2.17277e-05 -2.26458e-06)
(0.000943747 2.21086e-05 -1.29323e-06)
(0.0009474 2.22894e-05 -4.20544e-07)
(0.000846485 -0.000106266 -2.26502e-05)
(0.000864621 -0.000105097 -2.023e-05)
(0.000883052 -0.000104339 -1.76729e-05)
(0.000899778 -0.000103942 -1.47042e-05)
(0.000913786 -0.000103827 -1.15099e-05)
(0.000924562 -0.000103881 -8.22842e-06)
(0.000931847 -0.000103986 -4.93183e-06)
(0.000935513 -0.000104058 -1.64235e-06)
(0.000840007 -0.000228733 -3.58732e-05)
(0.00085807 -0.000228769 -3.36681e-05)
(0.000876066 -0.000228975 -3.03167e-05)
(0.000892487 -0.0002295 -2.5796e-05)
(0.000906359 -0.000230243 -2.05327e-05)
(0.000917099 -0.000231025 -1.48511e-05)
(0.000924384 -0.000231662 -8.96721e-06)
(0.000928054 -0.000232014 -2.99697e-06)
)
;
    }
    symmetry
    {
        type            symmetryPlane;
    }
    bottom
    {
        type            calculated;
        value           uniform (0 0 0);
    }
}


// ************************************************************************* //
