/*--------------------------------*- C++ -*----------------------------------*\
| =========                 |                                                 |
| \\      /  F ield         | foam-extend: Open Source CFD                    |
|  \\    /   O peration     | Version:     3.1                                |
|   \\  /    A nd           | Web:         http://www.extend-project.de       |
|    \\/     M anipulation  |                                                 |
\*---------------------------------------------------------------------------*/
FoamFile
{
    version     2.0;
    format      ascii;
    class       volVectorField;
    location    "1.2";
    object      D;
}
// * * * * * * * * * * * * * * * * * * * * * * * * * * * * * * * * * * * * * //

dimensions      [0 1 0 0 0 0 0];

internalField   nonuniform List<vector> 
256
(
(0.000507241 0.000338212 0.00058194)
(0.000202504 6.36482e-05 0.00015731)
(0.000180372 -0.000113931 -0.000255738)
(0.000441319 -0.000417232 -0.000736569)
(0.00217568 0.0013975 0.000541533)
(0.00179788 0.000348326 0.00017165)
(0.00173026 -0.000513014 -0.000343064)
(0.00195213 -0.00160322 -0.000744258)
(0.00431322 0.00214048 0.000460349)
(0.00393096 0.000557438 0.000123379)
(0.00383339 -0.000864355 -0.000298059)
(0.00399932 -0.00250157 -0.000659148)
(0.00687521 0.00268027 0.000310305)
(0.00652457 0.000669238 7.44649e-05)
(0.00640259 -0.00119764 -0.000231445)
(0.00648346 -0.00326333 -0.000487792)
(0.00970837 0.00300271 0.000150593)
(0.00938772 0.000689205 2.37194e-05)
(0.00924659 -0.0014988 -0.000158305)
(0.009257 -0.00385876 -0.000303469)
(0.0126716 0.00315044 4.22503e-06)
(0.01238 0.000638752 -2.29539e-05)
(0.0122255 -0.00176599 -9.33663e-05)
(0.0121807 -0.00431175 -0.000135843)
(0.0156495 0.00316784 -0.000110812)
(0.0153811 0.000540297 -6.33403e-05)
(0.0152193 -0.00199637 -4.26857e-05)
(0.0151402 -0.00464432 -4.20866e-06)
(0.0185735 0.00310189 -0.000188302)
(0.0183045 0.000416983 -9.79436e-05)
(0.0181371 -0.00219115 -7.7919e-06)
(0.0180541 -0.00488841 7.86104e-05)
(0.000578114 0.000333024 0.00029277)
(0.000287494 6.25717e-05 7.92146e-05)
(0.000267102 -0.000104269 -0.000154873)
(0.000507962 -0.000387804 -0.000413819)
(0.00234547 0.00136863 0.000317657)
(0.00192252 0.00033542 8.81818e-05)
(0.00186118 -0.0005054 -0.000230264)
(0.00213734 -0.00158104 -0.000484754)
(0.00447253 0.00213565 0.000281549)
(0.00408688 0.00054698 6.37347e-05)
(0.00399044 -0.000883354 -0.000216604)
(0.00415851 -0.00252505 -0.000452023)
(0.0069921 0.00268279 0.000192596)
(0.0066397 0.000662977 3.34348e-05)
(0.0065156 -0.00121999 -0.000175063)
(0.00659134 -0.00329369 -0.000348241)
(0.00976219 0.0030143 8.80863e-05)
(0.00944389 0.000690514 4.72167e-07)
(0.00929838 -0.00151624 -0.000125226)
(0.00929582 -0.00388473 -0.000223814)
(0.0126601 0.00316815 -1.11866e-05)
(0.0123727 0.00064759 -3.11006e-05)
(0.0122132 -0.00177279 -7.93657e-05)
(0.0121527 -0.00432455 -0.000107213)
(0.0155813 0.00318894 -9.1282e-05)
(0.01532 0.0005546 -5.91232e-05)
(0.0151544 -0.00199133 -4.46031e-05)
(0.0150586 -0.00464142 -1.59171e-05)
(0.0184683 0.00312462 -0.000145794)
(0.0182073 0.000434385 -8.28972e-05)
(0.0180383 -0.00217679 -2.63105e-05)
(0.017942 -0.00487276 3.61638e-05)
(0.000608979 0.000344491 0.000147333)
(0.000303496 6.59538e-05 3.70871e-05)
(0.000281965 -0.000106794 -9.41416e-05)
(0.000534207 -0.000398037 -0.000233291)
(0.00242213 0.00135561 0.000172883)
(0.0019665 0.000329413 3.87309e-05)
(0.00190601 -0.000498776 -0.00014846)
(0.00221489 -0.00156946 -0.000299331)
(0.00455552 0.00211391 0.000156299)
(0.00414508 0.000539286 2.44964e-05)
(0.00404795 -0.000878061 -0.000148307)
(0.00423906 -0.00250716 -0.000291001)
(0.00705654 0.00265721 0.000105335)
(0.00668766 0.000656003 5.98585e-06)
(0.00656108 -0.00121263 -0.000125215)
(0.00664886 -0.00326763 -0.000232169)
(0.00979477 0.00299238 4.14652e-05)
(0.00946572 0.000687933 -1.44066e-05)
(0.00931651 -0.00150462 -9.39521e-05)
(0.00931846 -0.00385267 -0.000154594)
(0.0126561 0.00315479 -2.17513e-05)
(0.0123626 0.000651521 -3.46676e-05)
(0.012199 -0.00175552 -6.40785e-05)
(0.0121377 -0.00428761 -7.91592e-05)
(0.0155445 0.00318741 -7.46826e-05)
(0.0152809 0.000565564 -5.37613e-05)
(0.0151115 -0.00196858 -4.2557e-05)
(0.0150113 -0.00460199 -2.06568e-05)
(0.0184096 0.00313605 -0.000112222)
(0.0181492 0.000451492 -7.17055e-05)
(0.0179767 -0.00215038 -3.61818e-05)
(0.0178727 -0.0048339 7.10826e-06)
(0.00061983 0.000351368 7.27184e-05)
(0.000302545 6.80016e-05 1.5861e-05)
(0.000279682 -0.000108308 -5.65231e-05)
(0.000541335 -0.000405293 -0.000129903)
(0.00245162 0.00135076 8.87571e-05)
(0.00197567 0.000328112 1.33472e-05)
(0.00191426 -0.000492293 -9.40051e-05)
(0.00224147 -0.00156048 -0.000179633)
(0.00458867 0.0020989 7.92563e-05)
(0.00416033 0.000536899 3.76153e-06)
(0.00406212 -0.000866372 -9.83367e-05)
(0.00426932 -0.00248321 -0.00018003)
(0.00708207 0.0026369 4.9452e-05)
(0.0066998 0.000654148 -7.92567e-06)
(0.00657163 -0.00119619 -8.6208e-05)
(0.00667058 -0.00323235 -0.000147299)
(0.00980499 0.00297268 1.10185e-05)
(0.00946666 0.000688943 -2.05978e-05)
(0.00931545 -0.00148365 -6.74451e-05)
(0.009324 -0.00381014 -0.000100634)
(0.0126474 0.00314086 -2.83477e-05)
(0.0123481 0.000657389 -3.36174e-05)
(0.0121824 -0.00173038 -4.90806e-05)
(0.0121237 -0.00424123 -5.394e-05)
(0.0155174 0.00318278 -6.28447e-05)
(0.0152509 0.000577202 -4.69715e-05)
(0.0150795 -0.00194003 -3.70146e-05)
(0.0149786 -0.0045547 -1.85499e-05)
(0.0183689 0.00314157 -8.87564e-05)
(0.0181074 0.000468556 -6.12122e-05)
(0.0179324 -0.00211983 -3.76057e-05)
(0.0178251 -0.00478805 -6.38621e-06)
(0.000622926 0.000354904 3.47396e-05)
(0.000298209 6.92799e-05 5.87226e-06)
(0.00027426 -0.000108958 -3.31604e-05)
(0.000541547 -0.00040888 -7.08317e-05)
(0.00246013 0.00134919 4.26645e-05)
(0.00197162 0.000329152 1.82079e-06)
(0.00190898 -0.00048634 -5.81238e-05)
(0.00224658 -0.00155242 -0.000104837)
(0.00459745 0.00209158 3.60341e-05)
(0.00415744 0.000538316 -5.09782e-06)
(0.00405814 -0.00085451 -6.31169e-05)
(0.00427517 -0.00246284 -0.000107506)
(0.00708698 0.00262602 1.80451e-05)
(0.00669534 0.000656569 -1.27275e-05)
(0.00656611 -0.0011792 -5.7055e-05)
(0.00667282 -0.00320187 -8.93821e-05)
(0.00980241 0.00296172 -5.14227e-06)
(0.00945721 0.000693589 -2.07392e-05)
(0.00930492 -0.00146235 -4.62167e-05)
(0.00931877 -0.00377272 -6.19108e-05)
(0.0126351 0.00313328 -2.94804e-05)
(0.0123312 0.000665469 -2.92301e-05)
(0.0121643 -0.00170557 -3.5526e-05)
(0.0121086 -0.00419985 -3.40088e-05)
(0.0154948 0.00318101 -5.18092e-05)
(0.0152256 0.00058931 -3.87061e-05)
(0.015053 -0.00191256 -2.9529e-05)
(0.0149529 -0.00451178 -1.37218e-05)
(0.0183369 0.00314619 -6.95861e-05)
(0.0180739 0.000484468 -4.99068e-05)
(0.0178973 -0.00209076 -3.33523e-05)
(0.017789 -0.00474545 -1.03304e-05)
(0.000623322 0.000356698 1.57742e-05)
(0.000294182 7.00943e-05 1.62962e-06)
(0.000269447 -0.00010915 -1.86182e-05)
(0.000539836 -0.000410395 -3.71533e-05)
(0.00246046 0.001349 1.88006e-05)
(0.00196435 0.000330933 -2.23183e-06)
(0.00190066 -0.000481518 -3.42837e-05)
(0.00224406 -0.00154583 -5.84874e-05)
(0.00459631 0.0020889 1.39892e-05)
(0.00414895 0.000541272 -7.08894e-06)
(0.00404872 -0.000844754 -3.83752e-05)
(0.00427155 -0.00244762 -6.10243e-05)
(0.00708331 0.00262172 3.13836e-06)
(0.00668551 0.00066084 -1.20095e-05)
(0.00655551 -0.00116511 -3.55378e-05)
(0.00666712 -0.00317919 -5.11851e-05)
(0.00979481 0.00295752 -1.0621e-05)
(0.0094449 0.000699678 -1.70168e-05)
(0.00929194 -0.00144469 -2.95913e-05)
(0.00930941 -0.00374452 -3.55766e-05)
(0.0126223 0.00313105 -2.52949e-05)
(0.0123151 0.000673941 -2.24611e-05)
(0.0121476 -0.00168507 -2.37663e-05)
(0.0120941 -0.0041681 -1.96651e-05)
(0.0154759 0.00318206 -3.92992e-05)
(0.0152046 0.000600419 -2.89526e-05)
(0.0150314 -0.00188995 -2.12336e-05)
(0.0149322 -0.00447816 -8.73539e-06)
(0.0183116 0.00315087 -5.10468e-05)
(0.0180471 0.000498039 -3.71723e-05)
(0.0178696 -0.00206681 -2.56364e-05)
(0.0177613 -0.0047113 -9.25853e-06)
(0.000623001 0.000357569 6.48972e-06)
(0.000291397 7.05856e-05 1.7453e-07)
(0.000266158 -0.000109151 -9.3319e-06)
(0.000538134 -0.000410917 -1.76083e-05)
(0.00245861 0.00134926 7.25712e-06)
(0.00195819 0.000332517 -2.48013e-06)
(0.00189376 -0.000478174 -1.78868e-05)
(0.00224021 -0.00154119 -2.91495e-05)
(0.00459271 0.00208834 4.24428e-06)
(0.00414103 0.000544067 -5.40122e-06)
(0.00404016 -0.00083798 -2.04739e-05)
(0.0042662 -0.0024376 -3.07842e-05)
(0.00707798 0.0026207 -1.65941e-06)
(0.00667645 0.000664825 -8.20594e-06)
(0.00654593 -0.00115529 -1.92894e-05)
(0.00666036 -0.00316439 -2.59177e-05)
(0.00978735 0.00295677 -9.00699e-06)
(0.00943449 0.000705006 -1.09989e-05)
(0.00928112 -0.00143235 -1.63791e-05)
(0.00930075 -0.00372601 -1.79619e-05)
(0.012612 0.00313142 -1.69148e-05)
(0.0123027 0.000680809 -1.40891e-05)
(0.0121349 -0.00167073 -1.35713e-05)
(0.0120828 -0.00414699 -9.87415e-06)
(0.0154622 0.00318416 -2.4678e-05)
(0.0151894 0.000608886 -1.79308e-05)
(0.0150158 -0.00187411 -1.27274e-05)
(0.0149174 -0.00445545 -4.6387e-06)
(0.0182937 0.00315484 -3.14425e-05)
(0.018028 0.000507966 -2.29864e-05)
(0.0178501 -0.00204998 -1.60001e-05)
(0.0177421 -0.00468786 -6.04026e-06)
(0.000622704 0.000357924 1.72512e-06)
(0.000290006 7.08187e-05 -5.54687e-08)
(0.000264524 -0.000109116 -2.8219e-06)
(0.000537159 -0.000411046 -5.1527e-06)
(0.00245718 0.00134948 1.81e-06)
(0.00195481 0.000333412 -9.91362e-07)
(0.00189001 -0.000476471 -5.53486e-06)
(0.00223777 -0.00153882 -8.78492e-06)
(0.00459019 0.0020884 7.77388e-07)
(0.00413653 0.000545691 -1.9693e-06)
(0.00403532 -0.000834531 -6.41257e-06)
(0.00426278 -0.00243264 -9.3369e-06)
(0.00707454 0.00262071 -1.10667e-06)
(0.00667126 0.000667145 -2.88547e-06)
(0.00654049 -0.00115028 -6.09691e-06)
(0.00665619 -0.00315712 -7.86903e-06)
(0.00978293 0.002957 -3.42477e-06)
(0.00942867 0.000708046 -3.78834e-06)
(0.00927509 -0.00142604 -5.23056e-06)
(0.00929573 -0.00371687 -5.43329e-06)
(0.0126064 0.00313217 -5.92983e-06)
(0.012296 0.000684616 -4.79591e-06)
(0.012128 -0.00166339 -4.40512e-06)
(0.0120766 -0.00413649 -2.96555e-06)
(0.0154548 0.00318564 -8.42573e-06)
(0.0151814 0.000613456 -6.07307e-06)
(0.0150076 -0.00186599 -4.23345e-06)
(0.0149096 -0.00444407 -1.42988e-06)
(0.0182843 0.00315703 -1.06437e-05)
(0.0180181 0.00051323 -7.78187e-06)
(0.01784 -0.0020413 -5.42584e-06)
(0.0177321 -0.004676 -2.0698e-06)
)
;

boundaryField
{
    interface
    {
        type            tractionDisplacement;
        gradient        nonuniform List<vector> 
192
(
(0.051045 0.0640625 0.00240638)
(0.0249449 0.0661146 0.00607918)
(0.0278226 0.0883405 0.00525547)
(0.0231977 0.101798 0.00262853)
(0.0198366 0.111277 -0.000421639)
(0.0164389 0.11573 -0.00340862)
(0.0140571 0.116608 -0.00574429)
(0.0128276 0.116678 -0.00693183)
(0.0519773 0.0690815 0.00146666)
(0.0285326 0.0669357 0.00398152)
(0.0279474 0.0866466 0.003947)
(0.0235931 0.0995541 0.00258869)
(0.0199349 0.108687 0.000775333)
(0.0165948 0.113415 -0.00117258)
(0.0142363 0.114944 -0.00282047)
(0.013021 0.116121 -0.00376441)
(0.0543261 0.0718598 0.000597893)
(0.0298861 0.0676894 0.00177012)
(0.0289565 0.0858992 0.00188637)
(0.0241359 0.0982774 0.00135135)
(0.0200857 0.107108 0.000379216)
(0.0165129 0.111926 -0.000733595)
(0.0140306 0.113806 -0.00174108)
(0.0126102 0.115658 -0.00239088)
(0.0558055 0.0731657 0.000153683)
(0.0309321 0.0680124 0.000611362)
(0.0299354 0.0856531 0.000649482)
(0.0248407 0.0975903 0.000410204)
(0.0205143 0.106219 -7.0237e-05)
(0.0167236 0.111033 -0.000664893)
(0.0140911 0.113074 -0.00124978)
(0.01251 0.115263 -0.00168467)
(0.056604 0.0737242 -3.20559e-05)
(0.0316276 0.0681097 8.15157e-05)
(0.030634 0.0855173 4.55742e-05)
(0.0254044 0.0972378 -8.98603e-05)
(0.020916 0.105743 -0.000335525)
(0.0169732 0.110526 -0.000652584)
(0.0142234 0.112616 -0.00099389)
(0.0125225 0.114948 -0.00128746)
(0.0570136 0.0739348 -8.1426e-05)
(0.032058 0.0680982 -0.00010018)
(0.0310907 0.0854146 -0.000163821)
(0.0257984 0.0970446 -0.000253971)
(0.0212206 0.105486 -0.000387131)
(0.0171855 0.110239 -0.000558741)
(0.014359 0.112331 -0.000756855)
(0.0125915 0.114712 -0.000945969)
(0.0572111 0.0739998 -6.64429e-05)
(0.0323011 0.0680555 -0.000110017)
(0.0313597 0.0853386 -0.000162931)
(0.0260406 0.0969361 -0.000218541)
(0.0214165 0.10535 -0.000288015)
(0.0173301 0.110082 -0.00037556)
(0.0144593 0.112163 -0.000480834)
(0.0126571 0.114556 -0.000587839)
(0.0572893 0.0740139 -2.44341e-05)
(0.0324092 0.0680251 -4.36584e-05)
(0.0314828 0.0852976 -6.36272e-05)
(0.0261541 0.0968857 -8.27459e-05)
(0.0215105 0.10529 -0.000104758)
(0.0174014 0.110012 -0.000132055)
(0.0145096 0.112085 -0.000165373)
(0.0126916 0.114476 -0.00020013)
(-0.00455812 0.0246397 0.0271632)
(-0.0104136 -0.00430333 0.00507746)
(-0.0078641 -0.00333129 0.00771606)
(-0.0048808 -0.00584639 0.00446788)
(-0.000819884 -0.00598779 0.00262031)
(0.00298148 -0.00548498 0.000817454)
(0.00600935 -0.0043613 -0.00035082)
(0.00804354 -0.00239573 -0.00156371)
(-0.0101069 0.00870593 0.00578096)
(-0.0189442 -0.00084084 0.00200472)
(-0.0148877 -5.80204e-05 0.00165679)
(-0.0103923 -0.000862179 0.000789489)
(-0.00513494 -0.0012642 0.00025714)
(-0.000386422 -0.00155469 -0.000188233)
(0.00350159 -0.00166384 -0.000480476)
(0.00634056 -0.00123283 -0.00118258)
(-0.0109257 -0.0142754 -0.00810836)
(-0.0192713 0.00310348 -0.00115725)
(-0.0151529 0.0034668 -0.00193691)
(-0.0104171 0.00439129 -0.00128198)
(-0.00511646 0.00369721 -0.000831115)
(-0.000362785 0.00263781 -0.000307265)
(0.00353127 0.00147509 0.000160536)
(0.00624532 0.000326324 0.00103581)
(-0.00727829 -0.0354891 -0.027162)
(-0.0112284 0.00554177 -0.00443918)
(-0.00893359 0.00589684 -0.0081107)
(-0.00525461 0.00871548 -0.00499124)
(-0.00100012 0.00786301 -0.00323279)
(0.00282918 0.00621111 -0.00137261)
(0.00577492 0.00404762 3.4806e-05)
(0.00750115 0.00137679 0.00150576)
(0.0407963 -0.0690646 -0.00316537)
(0.0161611 -0.068816 -0.00731224)
(0.0152376 -0.0939055 -0.00708353)
(0.00815316 -0.106705 -0.00418965)
(0.00313335 -0.115221 -0.000860464)
(-0.000803715 -0.118507 0.00243207)
(-0.00299329 -0.118465 0.00506604)
(-0.00342343 -0.117055 0.00659997)
(0.0397895 -0.0753409 -0.00202794)
(0.0194018 -0.0710826 -0.00468685)
(0.015088 -0.0918869 -0.00462958)
(0.00835397 -0.104198 -0.00291913)
(0.00308022 -0.112312 -0.000830155)
(-0.000849202 -0.11595 0.00130736)
(-0.00309565 -0.116614 0.00306217)
(-0.00343979 -0.116271 0.00421664)
(0.0412657 -0.0789903 -0.000943649)
(0.0204953 -0.0723205 -0.00212716)
(0.0161162 -0.0910719 -0.00218198)
(0.00903718 -0.102798 -0.00142767)
(0.00340504 -0.110576 -0.00025661)
(-0.000800719 -0.11432 0.000997345)
(-0.00326062 -0.115342 0.0021141)
(-0.00392493 -0.115492 0.00296854)
(0.0422963 -0.0806596 -0.0003405)
(0.0213937 -0.0728505 -0.000756008)
(0.0170265 -0.0908746 -0.000733351)
(0.00974974 -0.102092 -0.000363121)
(0.00385632 -0.109642 0.00024349)
(-0.00058621 -0.113369 0.000938765)
(-0.00324753 -0.114514 0.001609)
(-0.0041113 -0.114876 0.00219181)
(0.0428548 -0.0812964 -6.46358e-05)
(0.0220116 -0.0730337 -0.000125347)
(0.0176634 -0.0907844 -4.11097e-05)
(0.01028 -0.101756 0.000171011)
(0.00423065 -0.109158 0.00049276)
(-0.000375581 -0.112831 0.000876597)
(-0.00318297 -0.113993 0.0012778)
(-0.00417545 -0.114418 0.00167279)
(0.0431308 -0.0814687 3.39612e-05)
(0.0223983 -0.0730519 9.87745e-05)
(0.0180708 -0.0907103 0.000197056)
(0.0106298 -0.101581 0.000331637)
(0.00449 -0.108904 0.000508927)
(-0.000214968 -0.112528 0.000721327)
(-0.00311111 -0.11367 0.000957158)
(-0.00416651 -0.114097 0.00121064)
(0.0432553 -0.0814715 4.56735e-05)
(0.0226175 -0.0730153 0.000119581)
(0.0183073 -0.0906487 0.000193252)
(0.0108373 -0.101486 0.000272106)
(0.00464814 -0.108772 0.000364385)
(-0.000111312 -0.112364 0.000473428)
(-0.00305576 -0.113481 0.000599244)
(-0.00413962 -0.113894 0.000740547)
(0.0433014 -0.0814452 1.87801e-05)
(0.0227153 -0.0729841 4.84869e-05)
(0.0184147 -0.0906133 7.53706e-05)
(0.0109328 -0.101442 0.000101725)
(0.00472184 -0.108714 0.000130743)
(-6.13397e-05 -0.11229 0.000164636)
(-0.00302623 -0.113394 0.000204513)
(-0.00412282 -0.113795 0.00024962)
(0.116402 -0.00353383 -0.000988389)
(0.116247 -0.0035662 -0.000484681)
(0.11606 -0.00303684 -0.000396656)
(0.115803 -0.00268996 -0.000269688)
(0.115537 -0.00244826 -0.000222865)
(0.115317 -0.0023139 -0.000180592)
(0.115164 -0.00224589 -0.000121911)
(0.115083 -0.00222347 -4.32784e-05)
(0.10994 -0.00352789 -0.000244973)
(0.110027 -0.00355383 -0.00035963)
(0.109869 -0.00340452 -0.000498354)
(0.109564 -0.00323404 -0.000508589)
(0.109206 -0.00309002 -0.000464275)
(0.108898 -0.00299104 -0.000370173)
(0.108681 -0.0029307 -0.000238493)
(0.108574 -0.00290154 -8.22911e-05)
(0.10917 -0.00717225 0.000528833)
(0.109238 -0.00685732 -0.000363014)
(0.108946 -0.00686029 -0.00074792)
(0.108539 -0.00685869 -0.000886818)
(0.108117 -0.00684664 -0.000820704)
(0.107769 -0.00682486 -0.000642354)
(0.107531 -0.00680391 -0.000403956)
(0.107413 -0.00678981 -0.000137417)
(0.114337 -0.00847232 0.00102633)
(0.114038 -0.00798156 -0.000603647)
(0.113508 -0.0082703 -0.00115767)
(0.112996 -0.00843742 -0.00134074)
(0.112552 -0.00853635 -0.00120907)
(0.112218 -0.00856666 -0.000927293)
(0.111998 -0.00856765 -0.00057437)
(0.111889 -0.00856176 -0.000193876)
)
;
        traction        nonuniform List<vector> 
192
(
(36.824 -2.38003 -3.24192)
(37.349 -2.24049 -5.12162)
(37.66 -2.79554 -5.73273)
(38.1633 -2.93522 -5.88771)
(38.8163 -2.85176 -5.82132)
(39.4828 -2.38363 -5.54395)
(39.6948 -1.26425 -4.97628)
(37.2314 0.767002 -3.90216)
(41.058 -3.10029 -2.23022)
(42.2382 -2.8275 -3.5424)
(43.4274 -3.40986 -3.9503)
(44.5334 -3.55591 -4.02358)
(45.4645 -3.39575 -3.91971)
(45.9471 -2.72458 -3.64642)
(45.0717 -1.16784 -3.16582)
(39.4002 1.47702 -2.38862)
(43.5776 -3.46754 -1.5198)
(44.7337 -3.08578 -2.39299)
(46.0756 -3.65481 -2.63438)
(47.3129 -3.76947 -2.6543)
(48.2407 -3.52404 -2.54963)
(48.4612 -2.69752 -2.33226)
(46.8553 -0.881866 -1.99131)
(39.557 2.01253 -1.48833)
(45.2756 -3.66574 -1.06367)
(46.3507 -3.21138 -1.67071)
(47.6794 -3.77456 -1.82089)
(48.9188 -3.85434 -1.81618)
(49.7724 -3.54238 -1.72778)
(49.7629 -2.60759 -1.56565)
(47.6767 -0.631525 -1.33002)
(39.4026 2.39126 -0.99287)
(46.4532 -3.77929 -0.73963)
(47.466 -3.27779 -1.16178)
(48.7542 -3.83571 -1.25795)
(49.9617 -3.89076 -1.2447)
(50.7366 -3.53166 -1.17591)
(50.5508 -2.5232 -1.05988)
(48.1398 -0.440706 -0.89927)
(39.2092 2.66314 -0.670445)
(47.2563 -3.84556 -0.488842)
(48.2238 -3.31331 -0.768324)
(49.4753 -3.86686 -0.82861)
(50.6486 -3.9055 -0.815225)
(51.3594 -3.51491 -0.766324)
(51.0474 -2.45753 -0.688179)
(48.4184 -0.304142 -0.583173)
(39.0454 2.85254 -0.433545)
(47.7558 -3.88283 -0.277427)
(48.7001 -3.33207 -0.436631)
(49.9268 -3.8824 -0.469621)
(51.0746 -3.91094 -0.460311)
(51.7412 -3.50091 -0.431226)
(51.3469 -2.41288 -0.385942)
(48.5803 -0.214993 -0.324495)
(38.9344 2.97099 -0.236298)
(47.9836 -3.89824 -0.0891158)
(48.919 -3.33874 -0.140458)
(50.1315 -3.88733 -0.150758)
(51.2661 -3.91138 -0.147458)
(51.9114 -3.49197 -0.137877)
(51.4758 -2.38707 -0.123032)
(48.6242 -0.163078 -0.102056)
(38.83 3.02658 -0.0715073)
(4.5645 0.167057 18.7563)
(7.54968 0.907007 14.266)
(8.71754 0.760703 11.0146)
(9.35964 0.64673 9.12657)
(9.81541 0.600827 8.20906)
(10.1942 0.67851 8.12305)
(10.5757 0.927799 8.89857)
(11.2746 1.29985 10.515)
(3.58641 0.383858 16.5089)
(6.19599 0.720865 14.3287)
(7.07801 0.598977 12.2679)
(7.51775 0.36777 10.9335)
(7.83624 0.157936 10.2515)
(8.13963 0.0215448 10.1488)
(8.51668 0.000960111 10.5995)
(9.4192 0.0487762 11.3801)
(3.28201 0.531919 14.5029)
(5.92508 0.379809 13.426)
(6.85985 0.250699 12.0364)
(7.29634 -0.0420128 11.0586)
(7.57999 -0.320037 10.5591)
(7.83662 -0.544353 10.4968)
(8.16349 -0.688497 10.8679)
(9.01743 -0.744119 11.7029)
(3.34013 0.700808 11.6658)
(6.1336 0.225688 10.4243)
(7.15733 -0.0182714 8.80211)
(7.61233 -0.421301 7.69195)
(7.87951 -0.775559 7.12986)
(8.09406 -1.06536 7.03303)
(8.3497 -1.33512 7.31931)
(9.1124 -1.60781 8.59562)
(-3.23903 0.858878 1.67513)
(0.032097 0.78435 2.77689)
(2.70205 0.356101 3.06724)
(4.47889 -0.296023 3.17193)
(5.67541 -0.929105 3.27526)
(6.58601 -1.52235 3.3991)
(8.00517 -2.46821 3.56053)
(11.2708 -4.95263 3.60694)
(-4.87252 0.628219 0.643076)
(-3.84572 0.610921 1.18594)
(-2.54814 0.462433 1.26746)
(-1.36268 0.083703 1.24684)
(-0.229946 -0.379045 1.25944)
(0.969674 -0.886273 1.32932)
(3.27805 -1.86281 1.47031)
(9.02787 -4.88536 1.68098)
(-5.71594 0.52517 0.373097)
(-5.29843 0.458908 0.781011)
(-4.4322 0.409447 0.880474)
(-3.43239 0.159212 0.88508)
(-2.2861 -0.200944 0.89646)
(-0.797843 -0.647418 0.945807)
(2.21581 -1.64742 1.03773)
(9.0536 -4.8744 1.16967)
(-6.06202 0.506484 0.3)
(-5.77195 0.402111 0.642965)
(-5.01587 0.376628 0.756363)
(-4.00618 0.170266 0.783924)
(-2.74732 -0.151674 0.801304)
(-1.02431 -0.579316 0.832122)
(2.37328 -1.60139 0.87653)
(9.86174 -4.97257 0.939121)
(-6.22091 0.507821 0.239976)
(-5.95618 0.386757 0.506557)
(-5.21673 0.367417 0.604418)
(-4.17105 0.176014 0.63417)
(-2.81696 -0.132934 0.64881)
(-0.932006 -0.557305 0.665614)
(2.70487 -1.59866 0.685059)
(10.6327 -5.07479 0.713876)
(-6.28557 0.510484 0.175935)
(-6.02193 0.383403 0.364314)
(-5.27389 0.365924 0.43603)
(-4.19201 0.178613 0.459553)
(-2.76871 -0.127435 0.469774)
(-0.77537 -0.553712 0.478603)
(3.02094 -1.61121 0.486483)
(11.2356 -5.15891 0.49702)
(-6.30344 0.512036 0.106624)
(-6.03553 0.382976 0.218134)
(-5.27539 0.365723 0.260806)
(-4.16641 0.17873 0.275162)
(-2.698 -0.127635 0.281073)
(-0.636197 -0.556879 0.285966)
(3.26279 -1.62818 0.28879)
(11.6451 -5.21888 0.284732)
(-6.30937 0.512542 0.0352485)
(-6.03892 0.382646 0.0718608)
(-5.27402 0.365602 0.0857437)
(-4.15216 0.178797 0.0904272)
(-2.66265 -0.127352 0.0923394)
(-0.563878 -0.558702 0.0941855)
(3.39749 -1.64499 0.0948784)
(11.8078 -5.24711 0.0890412)
(11.2335 -7.22635 -0.926363)
(11.2584 -3.79996 -0.737932)
(11.7076 -1.14993 -0.506798)
(12.1617 0.949252 -0.343049)
(12.5325 2.53389 -0.235008)
(12.8087 3.66855 -0.158999)
(12.9908 4.3879 -0.105492)
(13.0679 4.64212 -0.0419545)
(8.59723 -9.49309 0.410693)
(8.02724 -7.65008 0.272779)
(8.2029 -5.76235 0.259558)
(8.47093 -4.15686 0.225526)
(8.70598 -2.91675 0.17398)
(8.88683 -2.01243 0.121108)
(9.01451 -1.40824 0.0699455)
(9.09579 -1.07401 0.0223769)
(7.82246 -11.3344 0.820732)
(7.21206 -10.0012 0.64711)
(7.3039 -8.63145 0.540456)
(7.49726 -7.43855 0.435454)
(7.67632 -6.49157 0.328764)
(7.81613 -5.78889 0.229421)
(7.91231 -5.31654 0.138852)
(7.96655 -5.04697 0.0478249)
(7.98913 -9.21699 1.16487)
(7.55863 -7.606 0.863433)
(7.6888 -6.3841 0.660696)
(7.89565 -5.31776 0.515274)
(8.07853 -4.45138 0.385806)
(8.21707 -3.80369 0.267698)
(8.30783 -3.3741 0.159374)
(8.34732 -3.15509 0.0536517)
)
;
        pressure        uniform 0;
        value           nonuniform List<vector> 
192
(
(0.0011453 0.00113899 0.00061202)
(0.00248749 0.00222393 0.000617522)
(0.004661 0.00324474 0.000526042)
(0.00716518 0.00395275 0.000343162)
(0.00995633 0.00439367 0.000145323)
(0.0128771 0.00459707 -3.83827e-05)
(0.0158252 0.00462544 -0.000182615)
(0.0187338 0.00456036 -0.00027495)
(0.00122783 0.00119654 0.000311104)
(0.00270213 0.00220533 0.000367426)
(0.00482187 0.00321873 0.000330886)
(0.00728702 0.00392722 0.000224955)
(0.0100114 0.00437288 9.7778e-05)
(0.0128675 0.00458584 -2.58438e-05)
(0.0157593 0.00462574 -0.000126538)
(0.0186311 0.00457613 -0.00019285)
(0.00128806 0.00124274 0.000154806)
(0.00279571 0.00220173 0.00019501)
(0.00491748 0.00318765 0.000179879)
(0.00735823 0.00388567 0.000122227)
(0.0100458 0.00433123 4.62054e-05)
(0.0128626 0.00455386 -3.09212e-05)
(0.0157199 0.00460998 -9.64461e-05)
(0.0185673 0.00458178 -0.000142108)
(0.0013174 0.00126594 7.46394e-05)
(0.00283827 0.00220092 9.63992e-05)
(0.00496286 0.00316956 8.73748e-05)
(0.00739257 0.00385678 5.45796e-05)
(0.0100614 0.00430042 1.01405e-05)
(0.0128564 0.00452878 -3.66588e-05)
(0.0156936 0.00459621 -7.84669e-05)
(0.0185253 0.00458235 -0.000109815)
(0.00133048 0.00127646 3.43389e-05)
(0.00285547 0.00220056 4.36835e-05)
(0.00498037 0.00316054 3.66038e-05)
(0.00740454 0.00384149 1.69219e-05)
(0.0100639 0.0042835 -9.33633e-06)
(0.0128472 0.00451486 -3.76377e-05)
(0.0156725 0.00458871 -6.42328e-05)
(0.0184934 0.00458305 -8.56794e-05)
(0.00133599 0.00128088 1.47564e-05)
(0.00286119 0.00220023 1.75483e-05)
(0.00498494 0.00315658 1.19414e-05)
(0.00740579 0.00383478 -3.62784e-08)
(0.0100601 0.0042761 -1.54602e-05)
(0.0128371 0.00450904 -3.22791e-05)
(0.0156554 0.0045862 -4.87599e-05)
(0.018469 0.00458477 -6.28714e-05)
(0.00133814 0.00128257 5.65919e-06)
(0.00286237 0.00219995 5.88192e-06)
(0.00498471 0.00315507 2.20765e-06)
(0.00740348 0.0038324 -4.39117e-06)
(0.0100551 0.00427365 -1.26072e-05)
(0.0128287 0.00450745 -2.16093e-05)
(0.0156429 0.0045862 -3.06885e-05)
(0.0184519 0.00458679 -3.87905e-05)
(0.00133882 0.0012831 1.4197e-06)
(0.0028623 0.00219979 1.26427e-06)
(0.00498373 0.00315462 -1.79518e-08)
(0.00740147 0.00383178 -2.14099e-06)
(0.0100518 0.00427313 -4.73424e-06)
(0.0128239 0.00450732 -7.58051e-06)
(0.0156362 0.0045867 -1.04929e-05)
(0.018443 0.00458798 -1.31453e-05)
(0.000450264 0.000646208 0.00092148)
(0.00204551 0.0013437 0.000605001)
(0.00421492 0.00209884 0.0005568)
(0.0068142 0.00260719 0.000366154)
(0.00969812 0.00292786 0.000183347)
(0.0127089 0.00308187 1.44432e-05)
(0.0157246 0.00311333 -0.000115197)
(0.018674 0.00307195 -0.000207848)
(7.6168e-05 0.000172472 0.000229572)
(0.00156108 0.000337816 0.000196709)
(0.00374486 0.000556713 0.000144089)
(0.00639466 0.00065846 8.43335e-05)
(0.00932353 0.000673402 2.69337e-05)
(0.0123752 0.000619318 -2.53068e-05)
(0.0154249 0.000519499 -6.93463e-05)
(0.0183837 0.000401573 -0.000112726)
(4.37998e-05 -0.000292373 -0.000357092)
(0.00148937 -0.000474221 -0.000357529)
(0.00364398 -0.00082102 -0.000322271)
(0.00627237 -0.00114275 -0.00024747)
(0.00918263 -0.00145258 -0.000168694)
(0.012221 -0.00173302 -9.72071e-05)
(0.0152634 -0.00197793 -4.0679e-05)
(0.0182152 -0.00218707 5.15575e-06)
(0.00035034 -0.000860846 -0.00107609)
(0.00181178 -0.00153395 -0.000799748)
(0.00388765 -0.00242786 -0.000760532)
(0.00641778 -0.00315438 -0.000550183)
(0.0092445 -0.00376048 -0.000343879)
(0.0122161 -0.00423411 -0.000153)
(0.0152124 -0.00459373 -3.77359e-06)
(0.0181478 -0.0048712 9.74324e-05)
(0.000951272 -0.00128054 -0.000776136)
(0.00215415 -0.00246342 -0.000835661)
(0.00418979 -0.00367539 -0.000747692)
(0.00658538 -0.00459714 -0.000540163)
(0.00929616 -0.00529903 -0.000314225)
(0.0121707 -0.00579309 -0.000105442)
(0.0151028 -0.00612513 5.91169e-05)
(0.0180113 -0.00635159 0.00016111)
(0.00100533 -0.00132956 -0.000439168)
(0.00237986 -0.00246957 -0.000543339)
(0.00434711 -0.00367364 -0.000509893)
(0.00669577 -0.00459617 -0.00038473)
(0.00933432 -0.00528864 -0.000234191)
(0.0121421 -0.00577393 -9.08711e-05)
(0.0150199 -0.0060991 2.23599e-05)
(0.017899 -0.00632614 8.88718e-05)
(0.00105003 -0.00138542 -0.000245086)
(0.00247108 -0.00247347 -0.00032592)
(0.00444051 -0.00364556 -0.000318276)
(0.00676182 -0.0045526 -0.000250015)
(0.00936102 -0.00523487 -0.000157801)
(0.0121277 -0.00571661 -6.66924e-05)
(0.0149705 -0.00604377 5.76946e-06)
(0.0178236 -0.00627755 4.4215e-05)
(0.00107004 -0.00141354 -0.000134159)
(0.00250889 -0.00247111 -0.000189083)
(0.00448215 -0.00361914 -0.000189197)
(0.00679245 -0.0045085 -0.000151838)
(0.0093722 -0.00518066 -9.75902e-05)
(0.0121164 -0.00565834 -4.22054e-05)
(0.0149381 -0.00598613 1.56267e-06)
(0.0177737 -0.006224 2.10115e-05)
(0.00107723 -0.00142509 -7.16396e-05)
(0.00252172 -0.00246534 -0.000106404)
(0.00449596 -0.00359764 -0.00010802)
(0.00680132 -0.00447381 -8.72445e-05)
(0.00937165 -0.00513719 -5.57513e-05)
(0.0121039 -0.00561023 -2.30514e-05)
(0.0149131 -0.0059367 2.25065e-06)
(0.0177368 -0.00617568 1.05795e-05)
(0.00107897 -0.00142875 -3.67287e-05)
(0.00252403 -0.00245898 -5.72527e-05)
(0.00449744 -0.0035815 -5.85611e-05)
(0.00679999 -0.00444895 -4.70397e-05)
(0.00936553 -0.00510582 -2.9215e-05)
(0.0120914 -0.0055747 -1.06486e-05)
(0.0148933 -0.00589903 3.22908e-06)
(0.0177092 -0.00613751 5.87446e-06)
(0.00107882 -0.00142931 -1.70373e-05)
(0.00252293 -0.00245389 -2.76547e-05)
(0.00449504 -0.00357071 -2.83686e-05)
(0.00679582 -0.00443297 -2.25164e-05)
(0.00935885 -0.00508566 -1.34071e-05)
(0.0120814 -0.00555153 -3.9563e-06)
(0.0148792 -0.00587396 2.85186e-06)
(0.0176904 -0.00611154 3.21658e-06)
(0.00107843 -0.00142911 -4.91795e-06)
(0.00252171 -0.00245112 -8.17883e-06)
(0.00449296 -0.00356531 -8.39477e-06)
(0.00679285 -0.00442514 -6.59747e-06)
(0.00935475 -0.0050758 -3.799e-06)
(0.0120758 -0.00554012 -9.07601e-07)
(0.0148718 -0.00586149 1.12653e-06)
(0.0176806 -0.00609843 1.05046e-06)
(0.0200285 0.00305772 -0.000200657)
(0.0199214 0.00308004 -0.000151853)
(0.0198604 0.00309809 -0.00011718)
(0.0198165 0.00310795 -9.21275e-05)
(0.0197811 0.00311559 -7.2372e-05)
(0.019753 0.00312194 -5.33042e-05)
(0.0197332 0.00312676 -3.29664e-05)
(0.0197228 0.00312924 -1.11847e-05)
(0.0196787 0.000372885 -0.000101006)
(0.0195826 0.000389962 -8.73926e-05)
(0.0195226 0.000408936 -7.79349e-05)
(0.0194769 0.000428131 -6.75695e-05)
(0.0194389 0.000445843 -5.57102e-05)
(0.0194083 0.000460651 -4.17994e-05)
(0.0193865 0.000471332 -2.59676e-05)
(0.0193753 0.00047696 -8.81051e-06)
(0.0195017 -0.0022808 -1.18148e-06)
(0.0194038 -0.00226251 -3.08481e-05)
(0.0193386 -0.00223614 -4.55308e-05)
(0.0192891 -0.00220556 -4.86909e-05)
(0.0192488 -0.00217635 -4.36111e-05)
(0.0192167 -0.00215212 -3.36658e-05)
(0.0191943 -0.00213503 -2.10495e-05)
(0.0191826 -0.00212618 -7.14356e-06)
(0.0194833 -0.00499431 9.14396e-05)
(0.0193675 -0.00497253 2.86182e-05)
(0.0192915 -0.00493728 -7.36259e-06)
(0.0192375 -0.00489352 -2.31455e-05)
(0.0191959 -0.00485216 -2.54438e-05)
(0.019164 -0.00481839 -2.08497e-05)
(0.0191421 -0.00479496 -1.32199e-05)
(0.0191308 -0.00478302 -4.49325e-06)
)
;
    }
    symmetry
    {
        type            symmetryPlane;
    }
    bottom
    {
        type            fixedDisplacement;
        value           uniform (0 0 0);
    }
}


// ************************************************************************* //
