/*--------------------------------*- C++ -*----------------------------------*\
| =========                 |                                                 |
| \\      /  F ield         | foam-extend: Open Source CFD                    |
|  \\    /   O peration     | Version:     3.1                                |
|   \\  /    A nd           | Web:         http://www.extend-project.de       |
|    \\/     M anipulation  |                                                 |
\*---------------------------------------------------------------------------*/
FoamFile
{
    version     2.0;
    format      ascii;
    class       volVectorField;
    location    "1.2";
    object      D_0;
}
// * * * * * * * * * * * * * * * * * * * * * * * * * * * * * * * * * * * * * //

dimensions      [0 1 0 0 0 0 0];

internalField   nonuniform List<vector> 
256
(
(0.000585398 0.000385878 0.000675856)
(0.000229065 6.81342e-05 0.000173968)
(0.000204366 -0.000142056 -0.000319994)
(0.000514871 -0.000505525 -0.000903315)
(0.00253679 0.00159945 0.000654517)
(0.00209567 0.000377515 0.00019751)
(0.00201609 -0.000634776 -0.000426793)
(0.00227063 -0.00192226 -0.000918998)
(0.00503946 0.00243603 0.000587435)
(0.00459217 0.000591055 0.000158686)
(0.00447505 -0.00107522 -0.000363879)
(0.00465884 -0.00300015 -0.000817789)
(0.00803695 0.00302414 0.000439105)
(0.00762485 0.00068129 0.00012013)
(0.00747578 -0.0015019 -0.00027376)
(0.00755435 -0.00392223 -0.000612086)
(0.0113433 0.00335062 0.000276874)
(0.0109646 0.000658819 7.7891e-05)
(0.0107898 -0.00189419 -0.000177247)
(0.0107816 -0.00465008 -0.000392291)
(0.0147899 0.00346955 0.000127247)
(0.0144438 0.0005528 3.81843e-05)
(0.0142504 -0.00224657 -9.2543e-05)
(0.0141744 -0.00520992 -0.000194269)
(0.0182398 0.00343712 1.14493e-05)
(0.0179204 0.000393406 4.55807e-06)
(0.0177163 -0.00255253 -2.57396e-05)
(0.0175974 -0.0056259 -3.94627e-05)
(0.0216114 0.00331255 -6.16571e-05)
(0.0212935 0.000209882 -2.21311e-05)
(0.0210828 -0.00281199 2.34343e-05)
(0.020956 -0.00593552 6.06367e-05)
(0.000673782 0.000379172 0.000343042)
(0.000337059 6.54635e-05 8.65419e-05)
(0.000316129 -0.000130087 -0.000197545)
(0.000602493 -0.000467157 -0.000519144)
(0.00275443 0.00155767 0.000390952)
(0.00226232 0.000354255 0.000102088)
(0.00219344 -0.000631533 -0.000290807)
(0.00251657 -0.00190232 -0.000610063)
(0.00525933 0.00241685 0.000372304)
(0.00480853 0.000564065 8.74891e-05)
(0.00469447 -0.0011107 -0.000267897)
(0.00488371 -0.00304176 -0.000572813)
(0.00821875 0.00301095 0.000292533)
(0.00780425 0.000656438 6.8164e-05)
(0.00765345 -0.00154466 -0.000209589)
(0.00772829 -0.00397566 -0.000448727)
(0.0114612 0.00334732 0.000192985)
(0.0110844 0.000641966 4.49358e-05)
(0.0109046 -0.00193268 -0.000142063)
(0.010883 -0.00470014 -0.000300548)
(0.0148399 0.00347379 9.70736e-05)
(0.0144976 0.000544935 2.17145e-05)
(0.0142984 -0.00227329 -8.05128e-05)
(0.0142058 -0.0052458 -0.000162632)
(0.0182315 0.00344627 2.09e-05)
(0.0179186 0.000392473 1.46412e-06)
(0.0177098 -0.00256642 -3.24097e-05)
(0.0175737 -0.00564541 -5.41827e-05)
(0.0215669 0.00332483 -2.78564e-05)
(0.0212563 0.00021326 -1.42087e-05)
(0.0210431 -0.00281661 -1.94823e-06)
(0.020903 -0.00594314 1.22571e-05)
(0.000713546 0.000392969 0.000176208)
(0.000360799 6.87107e-05 4.00945e-05)
(0.000339895 -0.000133738 -0.000123029)
(0.000640965 -0.000480689 -0.000301493)
(0.00285899 0.00154177 0.000220639)
(0.00233075 0.000343514 4.64577e-05)
(0.00226594 -0.000628507 -0.00019077)
(0.00263075 -0.0018971 -0.000386471)
(0.00538299 0.00238773 0.000220272)
(0.00490528 0.000547478 4.06646e-05)
(0.00479314 -0.00111406 -0.000186153)
(0.00501207 -0.00303449 -0.000379656)
(0.0083313 0.00297442 0.000181008)
(0.00789947 0.000637478 3.20998e-05)
(0.00774792 -0.00154938 -0.000152032)
(0.00783875 -0.00396273 -0.000310307)
(0.0115458 0.00331281 0.000126041)
(0.0111581 0.000625839 2.12451e-05)
(0.0109757 -0.00193518 -0.000108163)
(0.0109608 -0.00468317 -0.000218408)
(0.0148899 0.00344767 7.00974e-05)
(0.0145419 0.000534839 9.59213e-06)
(0.0143392 -0.00227133 -6.64149e-05)
(0.0142467 -0.00522559 -0.000129113)
(0.0182503 0.00343283 2.38741e-05)
(0.0179358 0.000389519 -1.5782e-06)
(0.0177236 -0.00255989 -3.42567e-05)
(0.0175832 -0.00562468 -5.85976e-05)
(0.0215666 0.00332556 -7.29806e-06)
(0.0212573 0.000216678 -1.19788e-05)
(0.0210408 -0.00280751 -1.78389e-05)
(0.0208928 -0.00592546 -1.95641e-05)
(0.000729232 0.000401524 9.0211e-05)
(0.000363073 7.0793e-05 1.69792e-05)
(0.000341476 -0.000136175 -7.60715e-05)
(0.000655075 -0.000491315 -0.000174405)
(0.00290606 0.00153737 0.000120493)
(0.00235511 0.000340163 1.7859e-05)
(0.00229129 -0.000624684 -0.000123335)
(0.00268009 -0.00189449 -0.000239699)
(0.00544415 0.0023701 0.000124411)
(0.00494697 0.000540369 1.49502e-05)
(0.00483567 -0.00110776 -0.000125633)
(0.00507548 -0.00301853 -0.000243855)
(0.00839279 0.00294835 0.000105922)
(0.00794687 0.000628252 1.1522e-05)
(0.00779526 -0.00154089 -0.000106428)
(0.00790062 -0.0039371 -0.000206348)
(0.0115976 0.00328505 7.73033e-05)
(0.0112007 0.000617446 7.23567e-06)
(0.0110174 -0.00192431 -7.89302e-05)
(0.0110111 -0.00465212 -0.000151634)
(0.0149268 0.00342453 4.65028e-05)
(0.0145735 0.000530021 2.09769e-06)
(0.0143695 -0.00225803 -5.18604e-05)
(0.0142807 -0.00519266 -9.6382e-05)
(0.0182723 0.00341887 1.95735e-05)
(0.0179556 0.000389804 -4.00851e-06)
(0.0177419 -0.00254463 -3.16168e-05)
(0.0176012 -0.005593 -5.29043e-05)
(0.0215784 0.00332217 -2.06725e-07)
(0.0212687 0.000222022 -1.17687e-05)
(0.02105 -0.00279157 -2.4273e-05)
(0.0208987 -0.00589745 -3.23152e-05)
(0.000735227 0.000406209 4.56782e-05)
(0.000360403 7.21262e-05 6.23581e-06)
(0.000338079 -0.000137497 -4.61745e-05)
(0.000659563 -0.000497431 -9.96722e-05)
(0.00292618 0.0015372 6.38382e-05)
(0.00236095 0.000340375 4.57259e-06)
(0.00229701 -0.000620641 -7.8092e-05)
(0.00269987 -0.00189168 -0.000145556)
(0.0054726 0.00236264 6.75169e-05)
(0.00496262 0.00053935 2.63115e-06)
(0.00485143 -0.00109958 -8.22646e-05)
(0.00510418 -0.00300473 -0.000152282)
(0.0084244 0.00293514 5.90405e-05)
(0.00796856 0.000626279 1.39107e-06)
(0.00781693 -0.00152946 -7.17408e-05)
(0.00793236 -0.00391449 -0.000132399)
(0.0116274 0.00326973 4.46972e-05)
(0.0112235 0.00061589 1.29133e-07)
(0.0110401 -0.00191039 -5.50136e-05)
(0.0110406 -0.00462403 -0.00010067)
(0.0149514 0.00341122 2.83727e-05)
(0.0145938 0.000530515 -1.83595e-06)
(0.0143893 -0.00224222 -3.81728e-05)
(0.0143042 -0.00516222 -6.77184e-05)
(0.0182904 0.00341071 1.30358e-05)
(0.0179714 0.000393416 -5.30747e-06)
(0.0177569 -0.00252754 -2.61792e-05)
(0.0176172 -0.00556274 -4.22049e-05)
(0.0215905 0.00332031 4.78239e-07)
(0.0212797 0.000228855 -1.13848e-05)
(0.0210598 -0.00277406 -2.40729e-05)
(0.0209073 -0.0058692 -3.28234e-05)
(0.00073745 0.000408783 2.25257e-05)
(0.000357357 7.2986e-05 1.72791e-06)
(0.000334462 -0.000138159 -2.68732e-05)
(0.000660571 -0.000500701 -5.51236e-05)
(0.00293423 0.00153848 3.24222e-05)
(0.0023602 0.000341864 -5.45959e-07)
(0.00229585 -0.000617171 -4.71969e-05)
(0.00270688 -0.00188904 -8.47581e-05)
(0.00548504 0.00236079 3.48572e-05)
(0.0049669 0.00054109 -1.97695e-06)
(0.0048555 -0.00109239 -5.10319e-05)
(0.00511601 -0.00299465 -9.06653e-05)
(0.00843982 0.00293033 3.10634e-05)
(0.00797739 0.000628017 -2.38223e-06)
(0.00782563 -0.00151927 -4.54939e-05)
(0.00794742 -0.00389801 -8.04501e-05)
(0.0116436 0.00326355 2.41319e-05)
(0.011235 0.000618088 -2.49385e-06)
(0.0110513 -0.00189798 -3.57844e-05)
(0.0110564 -0.00460312 -6.27415e-05)
(0.0149664 0.00340581 1.57842e-05)
(0.0146056 0.000533946 -3.11821e-06)
(0.0144009 -0.00222823 -2.58888e-05)
(0.0143186 -0.00513893 -4.40118e-05)
(0.0183027 0.00340786 7.2743e-06)
(0.0179818 0.000398649 -5.1751e-06)
(0.0177669 -0.00251252 -1.92816e-05)
(0.0176283 -0.00553875 -2.98996e-05)
(0.0215994 0.00332073 -5.69795e-07)
(0.0212872 0.000235975 -9.73959e-06)
(0.0210665 -0.00275862 -1.96045e-05)
(0.020914 -0.00584585 -2.64602e-05)
(0.00073824 0.000410146 1.02016e-05)
(0.000355156 7.35078e-05 1.9511e-07)
(0.000331884 -0.00013846 -1.39039e-05)
(0.000660523 -0.000502324 -2.74586e-05)
(0.00293715 0.00153987 1.49241e-05)
(0.00235806 0.000343369 -1.5491e-06)
(0.00229334 -0.000614708 -2.51404e-05)
(0.00270886 -0.00188705 -4.38945e-05)
(0.00549006 0.00236115 1.62048e-05)
(0.00496707 0.000543311 -2.46718e-06)
(0.00485542 -0.00108727 -2.76867e-05)
(0.0051203 -0.00298817 -4.77085e-05)
(0.00844685 0.0029295 1.4613e-05)
(0.0079804 0.000630636 -2.58837e-06)
(0.00782848 -0.00151197 -2.50571e-05)
(0.00795394 -0.00388752 -4.29252e-05)
(0.0116519 0.00326208 1.15309e-05)
(0.0112402 0.000621169 -2.42586e-06)
(0.0110564 -0.00188905 -2.00539e-05)
(0.0110643 -0.00458964 -3.40483e-05)
(0.0149748 0.00340463 7.62519e-06)
(0.0146119 0.000537778 -2.57561e-06)
(0.014407 -0.00221812 -1.49292e-05)
(0.0143264 -0.00512359 -2.45629e-05)
(0.0183101 0.00340783 3.33094e-06)
(0.0179878 0.000403472 -3.71376e-06)
(0.0177726 -0.00250165 -1.17281e-05)
(0.0176349 -0.00552255 -1.76315e-05)
(0.0216047 0.00332224 -1.04199e-06)
(0.0212914 0.00024182 -6.59282e-06)
(0.0210702 -0.00274737 -1.26226e-05)
(0.0209179 -0.00582963 -1.67848e-05)
(0.000738477 0.00041074 2.91339e-06)
(0.000354045 7.37561e-05 -5.27084e-08)
(0.000330588 -0.000138572 -4.2858e-06)
(0.000660336 -0.000502985 -8.29215e-06)
(0.00293803 0.0015407 4.29001e-06)
(0.00235663 0.000344254 -6.91558e-07)
(0.00229169 -0.000613442 -7.8746e-06)
(0.00270921 -0.00188599 -1.35407e-05)
(0.00549173 0.00236177 4.67913e-06)
(0.0049665 0.000544711 -1.01055e-06)
(0.00485469 -0.00108464 -8.75592e-06)
(0.00512154 -0.00298501 -1.48424e-05)
(0.00844949 0.00292977 4.24297e-06)
(0.00798115 0.000632361 -1.03694e-06)
(0.00782913 -0.0015082 -7.98588e-06)
(0.00795626 -0.00388244 -1.34498e-05)
(0.0116553 0.00326212 3.37158e-06)
(0.0112421 0.000623186 -9.52731e-07)
(0.0110583 -0.00188442 -6.44816e-06)
(0.0110674 -0.00458308 -1.07599e-05)
(0.0149785 0.00340478 2.23153e-06)
(0.0146145 0.000540165 -9.73579e-07)
(0.0144095 -0.00221287 -4.87098e-06)
(0.0143297 -0.00511603 -7.87285e-06)
(0.0183134 0.00340838 9.1788e-07)
(0.0179904 0.000406306 -1.34407e-06)
(0.0177751 -0.00249597 -3.92867e-06)
(0.0176378 -0.00551444 -5.80676e-06)
(0.021607 0.00332333 -4.96721e-07)
(0.0212931 0.00024511 -2.33165e-06)
(0.0210718 -0.00274146 -4.34085e-06)
(0.0209196 -0.00582138 -5.71917e-06)
)
;

boundaryField
{
    interface
    {
        type            tractionDisplacement;
        gradient        nonuniform List<vector> 
192
(
(0.0012504 8.90088e-08 -6.27537e-06)
(0.00125106 2.32615e-07 -7.48491e-06)
(0.0012496 5.25483e-07 -7.47543e-06)
(0.00124673 8.45864e-07 -7.27339e-06)
(0.00124237 1.23213e-06 -6.95727e-06)
(0.00123606 1.75972e-06 -6.48764e-06)
(0.00122701 2.65546e-06 -5.77696e-06)
(0.00121237 4.4017e-06 -4.57372e-06)
(0.00127836 1.58951e-07 -4.18175e-06)
(0.00127813 3.40733e-07 -4.98588e-06)
(0.00127606 6.81215e-07 -4.94782e-06)
(0.00127234 1.07974e-06 -4.77587e-06)
(0.0012667 1.57845e-06 -4.5173e-06)
(0.00125852 2.26978e-06 -4.14438e-06)
(0.00124668 3.43378e-06 -3.60938e-06)
(0.00122774 5.61186e-06 -2.83028e-06)
(0.0012969 2.0556e-07 -2.92788e-06)
(0.00129628 4.22773e-07 -3.50022e-06)
(0.00129375 8.10625e-07 -3.4639e-06)
(0.00128935 1.27314e-06 -3.32432e-06)
(0.00128271 1.85533e-06 -3.11929e-06)
(0.00127309 2.65704e-06 -2.83373e-06)
(0.00125927 3.97152e-06 -2.44508e-06)
(0.00123752 6.33252e-06 -1.9299e-06)
(0.00131022 2.36666e-07 -2.12187e-06)
(0.00130939 4.82114e-07 -2.53952e-06)
(0.00130652 9.12912e-07 -2.50899e-06)
(0.00130157 1.426e-06 -2.39958e-06)
(0.00129415 2.06871e-06 -2.2415e-06)
(0.00128345 2.94405e-06 -2.02736e-06)
(0.00126819 4.35007e-06 -1.74696e-06)
(0.00124452 6.81512e-06 -1.39307e-06)
(0.00131978 2.59652e-07 -1.51365e-06)
(0.00131882 5.26652e-07 -1.81147e-06)
(0.00131569 9.91037e-07 -1.78752e-06)
(0.00131032 1.54199e-06 -1.7059e-06)
(0.0013023 2.22756e-06 -1.58946e-06)
(0.00129082 3.15197e-06 -1.43486e-06)
(0.00127453 4.6157e-06 -1.23756e-06)
(0.00124954 7.14639e-06 -9.95544e-07)
(0.00132642 2.76131e-07 -1.01788e-06)
(0.00132536 5.58719e-07 -1.21811e-06)
(0.00132204 1.04754e-06 -1.20117e-06)
(0.00131638 1.62535e-06 -1.14496e-06)
(0.00130794 2.34023e-06 -1.06545e-06)
(0.0012959 3.29691e-06 -9.61283e-07)
(0.00127891 4.79762e-06 -8.30326e-07)
(0.00125304 7.37104e-06 -6.71486e-07)
(0.00133063 2.87035e-07 -5.86262e-07)
(0.00132951 5.79709e-07 -7.01327e-07)
(0.00132607 1.08477e-06 -6.91544e-07)
(0.00132021 1.68017e-06 -6.58841e-07)
(0.00131151 2.41383e-06 -6.12817e-07)
(0.00129912 3.39091e-06 -5.5309e-07)
(0.00128169 4.9157e-06 -4.77739e-07)
(0.00125526 7.51474e-06 -3.82182e-07)
(0.00133265 2.92824e-07 -1.90632e-07)
(0.00133149 5.90077e-07 -2.27698e-07)
(0.001328 1.10224e-06 -2.24725e-07)
(0.00132205 1.70638e-06 -2.14081e-07)
(0.00131322 2.44881e-06 -1.99112e-07)
(0.00130067 3.43614e-06 -1.79825e-07)
(0.00128303 4.97701e-06 -1.55001e-07)
(0.00125626 7.58408e-06 -1.20792e-07)
(1.09308e-05 7.23725e-08 0.00114973)
(1.30776e-05 1.27851e-07 0.00114889)
(1.31548e-05 1.98457e-07 0.00114824)
(1.29808e-05 2.92527e-07 0.0011473)
(1.2715e-05 4.04896e-07 0.00114595)
(1.23458e-05 5.36693e-07 0.00114413)
(1.18492e-05 6.86119e-07 0.00114175)
(1.13079e-05 8.03277e-07 0.00113874)
(1.00547e-05 2.11513e-08 0.0010997)
(1.20342e-05 3.77271e-08 0.00109949)
(1.21003e-05 5.67502e-08 0.0010993)
(1.19489e-05 8.24212e-08 0.00109902)
(1.17254e-05 1.12105e-07 0.00109863)
(1.14243e-05 1.44074e-07 0.00109811)
(1.10382e-05 1.71046e-07 0.00109746)
(1.0708e-05 1.6209e-07 0.00109671)
(1.00418e-05 -2.70428e-08 0.00105277)
(1.20188e-05 -4.56996e-08 0.00105298)
(1.20844e-05 -6.9588e-08 0.00105321)
(1.1933e-05 -1.00411e-07 0.00105354)
(1.171e-05 -1.3707e-07 0.001054)
(1.141e-05 -1.80176e-07 0.00105463)
(1.10258e-05 -2.2871e-07 0.00105544)
(1.06983e-05 -2.6355e-07 0.00105648)
(1.09054e-05 -8.04064e-08 0.00100291)
(1.30452e-05 -1.36982e-07 0.00100376)
(1.312e-05 -2.11694e-07 0.00100444)
(1.29457e-05 -3.09713e-07 0.00100544)
(1.26804e-05 -4.27843e-07 0.00100685)
(1.23126e-05 -5.69225e-07 0.00100876)
(1.18188e-05 -7.38586e-07 0.00101129)
(1.12818e-05 -8.99354e-07 0.00101456)
(-0.000903606 -9.63547e-08 6.85177e-06)
(-0.000902881 -2.51564e-07 8.12936e-06)
(-0.000904348 -5.72774e-07 8.11249e-06)
(-0.00090722 -9.20022e-07 7.89131e-06)
(-0.000911576 -1.33875e-06 7.54482e-06)
(-0.000917854 -1.91504e-06 7.02877e-06)
(-0.00092686 -2.91625e-06 6.2435e-06)
(-0.00094155 -4.95238e-06 4.89368e-06)
(-0.000876477 -1.72336e-07 4.42126e-06)
(-0.000876696 -3.68407e-07 5.23941e-06)
(-0.000878763 -7.40343e-07 5.19106e-06)
(-0.000882477 -1.17274e-06 5.00456e-06)
(-0.000888098 -1.71422e-06 4.72407e-06)
(-0.000896245 -2.4707e-06 4.31857e-06)
(-0.000908024 -3.77243e-06 3.7342e-06)
(-0.000927051 -6.30466e-06 2.87503e-06)
(-0.000858904 -2.23527e-07 3.02815e-06)
(-0.000859518 -4.57468e-07 3.59773e-06)
(-0.000862036 -8.80012e-07 3.55226e-06)
(-0.00086643 -1.38156e-06 3.40144e-06)
(-0.000873045 -2.0136e-06 3.18024e-06)
(-0.000882602 -2.89053e-06 2.87178e-06)
(-0.000896351 -4.35875e-06 2.45083e-06)
(-0.000918167 -7.09737e-06 1.88924e-06)
(-0.00084644 -2.57774e-07 2.16159e-06)
(-0.000847264 -5.21851e-07 2.57079e-06)
(-0.000850126 -9.90306e-07 2.53274e-06)
(-0.00085506 -1.54618e-06 2.41474e-06)
(-0.000862449 -2.24345e-06 2.24466e-06)
(-0.000873069 -3.20009e-06 2.01421e-06)
(-0.000888236 -4.76849e-06 1.71208e-06)
(-0.000911949 -7.62329e-06 1.32891e-06)
(-0.000837595 -2.83051e-07 1.52365e-06)
(-0.00083856 -5.70096e-07 1.81175e-06)
(-0.000841682 -1.07445e-06 1.78199e-06)
(-0.000847026 -1.67087e-06 1.69407e-06)
(-0.000854997 -2.41412e-06 1.56902e-06)
(-0.000866396 -3.42352e-06 1.40308e-06)
(-0.00088257 -5.05455e-06 1.19126e-06)
(-0.000907581 -7.98206e-06 9.30362e-07)
(-0.000831511 -3.01135e-07 1.01526e-06)
(-0.000832571 -6.04765e-07 1.20705e-06)
(-0.000835879 -1.13523e-06 1.18601e-06)
(-0.000841519 -1.76034e-06 1.1255e-06)
(-0.000849902 -2.53489e-06 1.04024e-06)
(-0.000861845 -3.57878e-06 9.28656e-07)
(-0.000878708 -5.24964e-06 7.88457e-07)
(-0.000904589 -8.22417e-06 6.17775e-07)
(-0.000827684 -3.13066e-07 5.81157e-07)
(-0.000828802 -6.27424e-07 6.90621e-07)
(-0.00083223 -1.17521e-06 6.7841e-07)
(-0.000838059 -1.81904e-06 6.43226e-07)
(-0.000846706 -2.61357e-06 5.93914e-07)
(-0.000858993 -3.67914e-06 5.30029e-07)
(-0.000876286 -5.37574e-06 4.49542e-07)
(-0.000902707 -8.37837e-06 3.46949e-07)
(-0.000825854 -3.19376e-07 1.88378e-07)
(-0.000827006 -6.38536e-07 2.23531e-07)
(-0.000830489 -1.19398e-06 2.19753e-07)
(-0.000836409 -1.8471e-06 2.083e-07)
(-0.000845182 -2.65092e-06 1.92268e-07)
(-0.000857629 -3.72725e-06 1.71653e-07)
(-0.000875121 -5.44102e-06 1.45178e-07)
(-0.000901879 -8.45211e-06 1.08378e-07)
(1.13077e-05 -0.00113956 -9.86196e-07)
(1.18661e-05 -0.00114323 -8.3836e-07)
(1.23873e-05 -0.00114616 -6.69958e-07)
(1.27835e-05 -0.00114847 -5.21832e-07)
(1.30767e-05 -0.00115024 -3.91006e-07)
(1.32868e-05 -0.00115152 -2.72808e-07)
(1.34306e-05 -0.00115236 -1.66012e-07)
(1.35055e-05 -0.00115283 -5.78898e-08)
(1.07333e-05 -0.00109747 -3.23353e-07)
(1.10861e-05 -0.00109878 -2.9851e-07)
(1.14951e-05 -0.00109989 -2.50886e-07)
(1.18192e-05 -0.0011008 -2.02547e-07)
(1.20647e-05 -0.00110151 -1.55909e-07)
(1.22434e-05 -0.00110204 -1.10734e-07)
(1.23687e-05 -0.0011024 -6.67961e-08)
(1.24387e-05 -0.00110257 -2.25708e-08)
(1.07338e-05 -0.00105712 1.29308e-07)
(1.10872e-05 -0.00105654 1.24779e-07)
(1.1494e-05 -0.00105609 9.54584e-08)
(1.18153e-05 -0.00105577 6.74789e-08)
(1.20582e-05 -0.00105555 4.5425e-08)
(1.22347e-05 -0.00105541 2.87838e-08)
(1.23586e-05 -0.00105532 1.65634e-08)
(1.24277e-05 -0.00105528 5.73912e-09)
(1.13263e-05 -0.00101504 7.95589e-07)
(1.18919e-05 -0.00101212 6.58727e-07)
(1.24086e-05 -0.00100987 5.05786e-07)
(1.27978e-05 -0.00100817 3.78169e-07)
(1.3084e-05 -0.00100692 2.73189e-07)
(1.32882e-05 -0.00100604 1.85436e-07)
(1.34278e-05 -0.00100548 1.12584e-07)
(1.35008e-05 -0.00100515 4.00141e-08)
)
;
        traction        nonuniform List<vector> 
192
(
(26.7942 0.00190733 -0.134472)
(26.8085 0.00498462 -0.160391)
(26.7772 0.0112604 -0.160188)
(26.7157 0.0181257 -0.155858)
(26.6222 0.0264028 -0.149084)
(26.487 0.0377082 -0.139021)
(26.293 0.0569026 -0.123792)
(25.9793 0.0943222 -0.0980083)
(27.3935 0.0034061 -0.0896089)
(27.3884 0.00730142 -0.10684)
(27.3441 0.0145975 -0.106025)
(27.2645 0.0231373 -0.10234)
(27.1437 0.033824 -0.0967993)
(26.9683 0.0486382 -0.0888082)
(26.7147 0.0735809 -0.077344)
(26.3087 0.120254 -0.0606489)
(27.7907 0.00440487 -0.0627403)
(27.7773 0.00905942 -0.0750048)
(27.7233 0.0173705 -0.0742265)
(27.6289 0.0272816 -0.0712353)
(27.4865 0.039757 -0.066842)
(27.2806 0.0569365 -0.0607228)
(26.9843 0.085104 -0.0523946)
(26.5182 0.135697 -0.0413549)
(28.0762 0.00507141 -0.0454687)
(28.0584 0.010331 -0.0544183)
(27.997 0.0195624 -0.0537641)
(27.8909 0.0305572 -0.0514196)
(27.7317 0.0443295 -0.0480322)
(27.5026 0.0630869 -0.0434433)
(27.1755 0.0932158 -0.0374349)
(26.6683 0.146038 -0.0298516)
(28.2811 0.00556398 -0.0324353)
(28.2603 0.0112854 -0.0388172)
(28.1933 0.0212365 -0.038304)
(28.0783 0.0330426 -0.0365551)
(27.9065 0.0477333 -0.0340599)
(27.6604 0.0675421 -0.0307469)
(27.3113 0.0989078 -0.0265191)
(26.7759 0.153137 -0.0213331)
(28.4234 0.00591708 -0.0218117)
(28.4006 0.0119725 -0.0261023)
(28.3295 0.0224473 -0.0257394)
(28.2081 0.034829 -0.0245348)
(28.0273 0.0501478 -0.0228311)
(27.7694 0.0706481 -0.0205989)
(27.4052 0.102806 -0.0177927)
(26.8508 0.157951 -0.014389)
(28.5135 0.00615074 -0.0125628)
(28.4894 0.0124223 -0.0150284)
(28.4158 0.023245 -0.0148188)
(28.2903 0.0360036 -0.014118)
(28.1037 0.0517248 -0.0131318)
(27.8383 0.0726623 -0.0118519)
(27.4647 0.105336 -0.0102373)
(26.8984 0.16103 -0.00818961)
(28.5567 0.00627479 -0.00408497)
(28.532 0.0126445 -0.00487923)
(28.4571 0.0236193 -0.00481554)
(28.3296 0.0365652 -0.00458744)
(28.1404 0.0524745 -0.00426669)
(27.8714 0.0736316 -0.00385339)
(27.4935 0.10665 -0.00332146)
(26.9199 0.162516 -0.00258841)
(0.234232 0.00155084 24.637)
(0.280235 0.00273965 24.6191)
(0.281888 0.00425265 24.6052)
(0.278159 0.00626843 24.5849)
(0.272465 0.00867633 24.5561)
(0.264553 0.0115006 24.5171)
(0.253912 0.0147025 24.4661)
(0.242312 0.0172131 24.4015)
(0.215458 0.000453242 23.565)
(0.257875 0.000808438 23.5605)
(0.259292 0.00121608 23.5564)
(0.256048 0.00176617 23.5504)
(0.251258 0.00240225 23.542)
(0.244806 0.00308729 23.5309)
(0.236532 0.00366528 23.517)
(0.229457 0.00347336 23.5009)
(0.215181 -0.00057949 22.5593)
(0.257546 -0.000979277 22.564)
(0.258951 -0.00149117 22.5688)
(0.255708 -0.00215167 22.5758)
(0.250929 -0.00293722 22.5858)
(0.244501 -0.00386092 22.5992)
(0.236268 -0.00490093 22.6167)
(0.22925 -0.00564749 22.6389)
(0.233687 -0.00172299 21.4909)
(0.279539 -0.00293532 21.5091)
(0.281144 -0.00453631 21.5238)
(0.277407 -0.00663671 21.5451)
(0.271722 -0.00916805 21.5754)
(0.263841 -0.0121977 21.6164)
(0.253261 -0.0158268 21.6704)
(0.241752 -0.0192719 21.7405)
(-19.363 -0.00206474 0.146824)
(-19.3475 -0.00539066 0.174201)
(-19.3789 -0.0122737 0.173839)
(-19.4404 -0.0197148 0.1691)
(-19.5338 -0.0286875 0.161675)
(-19.6683 -0.0410367 0.150616)
(-19.8613 -0.0624911 0.133789)
(-20.1761 -0.106122 0.104865)
(-18.7816 -0.00369291 0.0947413)
(-18.7863 -0.00789443 0.112273)
(-18.8306 -0.0158645 0.111237)
(-18.9102 -0.0251302 0.107241)
(-19.0307 -0.0367334 0.10123)
(-19.2052 -0.0529437 0.0925409)
(-19.4577 -0.0808377 0.0800185)
(-19.8654 -0.1351 0.0616077)
(-18.4051 -0.00478987 0.064889)
(-18.4182 -0.00980289 0.0770943)
(-18.4722 -0.0188574 0.0761199)
(-18.5664 -0.0296049 0.0728881)
(-18.7081 -0.0431486 0.0681481)
(-18.9129 -0.06194 0.0615382)
(-19.2075 -0.0934018 0.0525179)
(-19.675 -0.152086 0.0404836)
(-18.138 -0.00552373 0.0463197)
(-18.1556 -0.0111825 0.0550883)
(-18.217 -0.0212208 0.054273)
(-18.3227 -0.0331325 0.0517444)
(-18.481 -0.048074 0.0480998)
(-18.7086 -0.0685733 0.0431617)
(-19.0336 -0.102182 0.0366875)
(-19.5418 -0.163356 0.0284766)
(-17.9485 -0.00606538 0.0326497)
(-17.9691 -0.0122163 0.0388231)
(-18.036 -0.023024 0.0381856)
(-18.1506 -0.0358044 0.0363015)
(-18.3214 -0.0517312 0.0336219)
(-18.5656 -0.0733611 0.0300661)
(-18.9122 -0.108312 0.0255271)
(-19.4482 -0.171044 0.0199363)
(-17.8181 -0.00645288 0.0217555)
(-17.8408 -0.0129593 0.0258653)
(-17.9117 -0.0243264 0.0254145)
(-18.0325 -0.0377215 0.0241178)
(-18.2122 -0.0543192 0.0222908)
(-18.4681 -0.0766882 0.0198998)
(-18.8294 -0.112492 0.0168955)
(-19.3841 -0.176232 0.013238)
(-17.7361 -0.00670857 0.0124534)
(-17.7601 -0.0134448 0.014799)
(-17.8335 -0.0251831 0.0145374)
(-17.9584 -0.0389794 0.0137834)
(-18.1437 -0.0560052 0.0127267)
(-18.407 -0.0788387 0.0113578)
(-18.7775 -0.115194 0.00963305)
(-19.3437 -0.179537 0.00743463)
(-17.6969 -0.00684377 0.00403667)
(-17.7216 -0.0136829 0.00478996)
(-17.7962 -0.0255853 0.00470898)
(-17.9231 -0.0395806 0.00446357)
(-18.111 -0.0568055 0.00412003)
(-18.3778 -0.0798697 0.00367828)
(-18.7526 -0.116593 0.00311095)
(-19.326 -0.181117 0.00232238)
(0.242309 -24.4191 -0.0211328)
(0.254273 -24.4977 -0.0179648)
(0.265441 -24.5605 -0.0143563)
(0.273931 -24.61 -0.0111821)
(0.280215 -24.6479 -0.00837869)
(0.284717 -24.6755 -0.00584588)
(0.287799 -24.6935 -0.0035574)
(0.289404 -24.7035 -0.0012405)
(0.229999 -23.5171 -0.006929)
(0.237559 -23.5453 -0.00639663)
(0.246324 -23.5691 -0.00537612)
(0.253268 -23.5885 -0.00434029)
(0.25853 -23.6038 -0.00334091)
(0.262358 -23.6152 -0.00237288)
(0.265043 -23.6228 -0.00143135)
(0.266544 -23.6265 -0.00048366)
(0.23001 -22.6525 0.00277088)
(0.237582 -22.6402 0.00267384)
(0.2463 -22.6305 0.00204554)
(0.253185 -22.6237 0.00144598)
(0.25839 -22.6189 0.000973392)
(0.262173 -22.6158 0.000616796)
(0.264827 -22.614 0.00035493)
(0.266308 -22.6131 0.000122981)
(0.242706 -21.7508 0.0170483)
(0.254825 -21.6882 0.0141156)
(0.265899 -21.64 0.0108383)
(0.274239 -21.6037 0.00810362)
(0.280372 -21.5769 0.00585405)
(0.284748 -21.558 0.00397363)
(0.287739 -21.5459 0.00241252)
(0.289303 -21.5389 0.000857445)
)
;
        pressure        uniform 0;
        value           nonuniform List<vector> 
192
(
(0.00133636 0.00130112 0.000716939)
(0.00290411 0.00255561 0.000759548)
(0.00544878 0.00371624 0.000688088)
(0.00837855 0.00450133 0.000508063)
(0.0116352 0.00496428 0.000306708)
(0.015031 0.00514447 0.000118015)
(0.0184441 0.00511926 -2.81638e-05)
(0.0217975 0.00498566 -0.000116365)
(0.00143929 0.00137323 0.000368042)
(0.00317334 0.00253166 0.000459553)
(0.00566915 0.00367871 0.000446885)
(0.00856431 0.00446068 0.000353246)
(0.0117526 0.00492773 0.000232221)
(0.0150812 0.00511876 0.000112089)
(0.0184365 0.00510727 1.5454e-05)
(0.0217547 0.00499167 -4.44097e-05)
(0.00151646 0.00143073 0.000187871)
(0.00329819 0.0025315 0.000254883)
(0.00580767 0.00364383 0.000261376)
(0.00868453 0.00441015 0.000219428)
(0.0118388 0.00487428 0.000154799)
(0.0151295 0.00507447 8.65116e-05)
(0.0184519 0.00508036 2.89221e-05)
(0.0217485 0.00498808 -9.11847e-06)
(0.00155636 0.00146125 9.48176e-05)
(0.00336097 0.00253558 0.000136167)
(0.0058831 0.00362684 0.000144783)
(0.00875589 0.00437808 0.000127022)
(0.0118963 0.00483719 9.52582e-05)
(0.0151687 0.00504155 5.91995e-05)
(0.0184741 0.00505858 2.67186e-05)
(0.0217584 0.00498129 3.03108e-06)
(0.00157614 0.00147662 4.70401e-05)
(0.0033917 0.00253985 7.02582e-05)
(0.00592183 0.0036208 7.66299e-05)
(0.00879544 0.00436306 6.94935e-05)
(0.0119314 0.004818 5.46701e-05)
(0.0151964 0.00502361 3.65269e-05)
(0.0184935 0.00504623 1.87134e-05)
(0.0217702 0.00497696 3.98615e-06)
(0.00158595 0.00148427 2.26374e-05)
(0.00340643 0.00254326 3.4685e-05)
(0.00594105 0.00362003 3.84957e-05)
(0.00881644 0.00435798 3.57807e-05)
(0.0119518 0.00481048 2.91781e-05)
(0.0152141 0.00501622 2.04133e-05)
(0.0185074 0.00504121 1.09013e-05)
(0.0217797 0.00497569 1.92198e-06)
(0.00159071 0.00148797 1.00072e-05)
(0.0034132 0.00254556 1.55477e-05)
(0.00595011 0.00362103 1.7441e-05)
(0.00882692 0.00435731 1.64855e-05)
(0.0119627 0.00480867 1.37756e-05)
(0.0152244 0.00501427 9.87834e-06)
(0.018516 0.00504012 5.2212e-06)
(0.0217858 0.00497615 3.07093e-07)
(0.00159264 0.00148947 2.81389e-06)
(0.00341581 0.00254672 4.39445e-06)
(0.00595364 0.00362192 4.95378e-06)
(0.0088312 0.00435771 4.72296e-06)
(0.0119674 0.00480867 3.99618e-06)
(0.0152289 0.00501417 2.89248e-06)
(0.0185199 0.00504026 1.49018e-06)
(0.0217885 0.00497672 -8.41233e-08)
(0.000513805 0.000747652 0.00107461)
(0.00236687 0.00155305 0.000732963)
(0.00489948 0.00240489 0.000704136)
(0.00793389 0.00295639 0.000508896)
(0.0112942 0.00327919 0.000319958)
(0.0147918 0.00340346 0.000144439)
(0.0182823 0.00338595 1.16639e-05)
(0.0216807 0.0032873 -7.74586e-05)
(7.61961e-05 0.000192548 0.000256815)
(0.00180481 0.000376667 0.000230452)
(0.00435538 0.000604143 0.000186247)
(0.00744945 0.000683082 0.000135652)
(0.010862 0.000653326 8.60642e-05)
(0.0144069 0.000541434 4.03314e-05)
(0.0179367 0.000379525 2.8783e-06)
(0.0213479 0.000201166 -3.29025e-05)
(3.7959e-05 -0.000364106 -0.000443408)
(0.00172156 -0.000582112 -0.000440476)
(0.00423638 -0.00101422 -0.000390744)
(0.00730267 -0.00142636 -0.00029087)
(0.0106904 -0.00183012 -0.000187719)
(0.0142165 -0.00219941 -9.5207e-05)
(0.0177351 -0.00252305 -2.14654e-05)
(0.0211375 -0.00279846 3.97681e-05)
(0.000399166 -0.00105705 -0.00130434)
(0.00209341 -0.00183973 -0.000980356)
(0.0045091 -0.00290881 -0.00093591)
(0.00745448 -0.00378741 -0.000683918)
(0.0107394 -0.00452878 -0.000438329)
(0.0141835 -0.00511394 -0.000212956)
(0.0176447 -0.00556175 -3.75153e-05)
(0.0210243 -0.00590692 8.24336e-05)
(0.0011074 -0.00153205 -0.000954272)
(0.00249857 -0.00293296 -0.00103928)
(0.00486873 -0.00438064 -0.000942313)
(0.00765642 -0.00548397 -0.000699151)
(0.0108079 -0.00632909 -0.000435155)
(0.0141426 -0.00692849 -0.000193316)
(0.0175337 -0.0073359 -4.38478e-06)
(0.0208868 -0.00761873 0.000114332)
(0.00117872 -0.00159734 -0.000553511)
(0.002793 -0.00295557 -0.000691386)
(0.00509199 -0.00439773 -0.000659273)
(0.00783408 -0.00550547 -0.000514679)
(0.0109092 -0.00634096 -0.000340138)
(0.0141737 -0.00693139 -0.000174965)
(0.0175089 -0.00733273 -4.47875e-05)
(0.0208337 -0.00761857 3.45939e-05)
(0.00124034 -0.00167588 -0.000319224)
(0.0029232 -0.00297542 -0.000428245)
(0.00523591 -0.00438373 -0.000427509)
(0.00795498 -0.00547661 -0.000351478)
(0.0109921 -0.00630272 -0.000246337)
(0.0142156 -0.00689125 -0.000142321)
(0.017516 -0.00729714 -5.89419e-05)
(0.0208165 -0.00759319 -1.09209e-05)
(0.00127157 -0.00172024 -0.000182487)
(0.00298598 -0.00298618 -0.000259297)
(0.00531298 -0.00436979 -0.000267592)
(0.0080274 -0.00544489 -0.000228537)
(0.011049 -0.00626179 -0.000168395)
(0.0142525 -0.00684786 -0.000106139)
(0.017534 -0.00725662 -5.58202e-05)
(0.0208194 -0.00755943 -2.96582e-05)
(0.00128616 -0.00174271 -0.000102965)
(0.00301521 -0.00299051 -0.000153906)
(0.00535126 -0.00435881 -0.000162945)
(0.00806691 -0.00542099 -0.000143133)
(0.0110837 -0.00622986 -0.000109548)
(0.0142788 -0.00681249 -7.35793e-05)
(0.0175507 -0.00722147 -4.46011e-05)
(0.0208267 -0.00752719 -3.181e-05)
(0.00129278 -0.00175352 -5.62759e-05)
(0.00302828 -0.00299143 -8.79079e-05)
(0.00536928 -0.00435083 -9.49339e-05)
(0.00808707 -0.0054048 -8.50922e-05)
(0.0111032 -0.00620779 -6.69129e-05)
(0.0142952 -0.00678706 -4.70066e-05)
(0.0175626 -0.00719487 -3.12214e-05)
(0.0208332 -0.00750124 -2.58086e-05)
(0.00129564 -0.00175843 -2.77706e-05)
(0.00303377 -0.00299108 -4.48803e-05)
(0.00537721 -0.0043456 -4.91573e-05)
(0.0080966 -0.00539487 -4.46525e-05)
(0.0111131 -0.00619413 -3.57321e-05)
(0.0143043 -0.00677089 -2.58397e-05)
(0.0175697 -0.00717736 -1.81594e-05)
(0.0208373 -0.00748349 -1.63024e-05)
(0.00129668 -0.0017603 -8.34261e-06)
(0.00303571 -0.00299064 -1.37395e-05)
(0.00538011 -0.004343 -1.51625e-05)
(0.00810031 -0.00539013 -1.38657e-05)
(0.0111173 -0.00618761 -1.1192e-05)
(0.0143083 -0.00676305 -8.21021e-06)
(0.0175729 -0.00716872 -5.92899e-06)
(0.0208391 -0.00747451 -5.53543e-06)
(0.0232774 0.00323956 -7.07493e-05)
(0.0232328 0.00325205 -3.14221e-05)
(0.023232 0.00325975 -1.03585e-05)
(0.0232423 0.0032609 -2.43606e-06)
(0.0232526 0.00326202 -1.79528e-06)
(0.0232599 0.00326398 -2.71067e-06)
(0.0232641 0.00326618 -2.60448e-06)
(0.0232659 0.00326746 -1.06884e-06)