/*--------------------------------*- C++ -*----------------------------------*\
| =========                 |                                                 |
| \\      /  F ield         | foam-extend: Open Source CFD                    |
|  \\    /   O peration     | Version:     3.1                                |
|   \\  /    A nd           | Web:         http://www.extend-project.de       |
|    \\/     M anipulation  |                                                 |
\*---------------------------------------------------------------------------*/
FoamFile
{
    version     2.0;
    format      ascii;
    class       volSymmTensorField;
    location    "1.2";
    object      epsilon;
}
// * * * * * * * * * * * * * * * * * * * * * * * * * * * * * * * * * * * * * //

dimensions      [0 0 0 0 0 0 0];

internalField   nonuniform List<symmTensor> 
256
(
(-0.0131514 0.0166532 -0.000808249 0.0495784 0.00924431 -0.00546282)
(-0.0042349 0.01387 -0.00233315 0.0112936 0.00283044 -0.00197105)
(0.002482 0.0129858 -0.00244345 -0.0146624 -0.00520467 0.00239739)
(0.0103916 0.014094 -0.00097324 -0.0507536 -0.012109 0.0058499)
(-0.0226887 0.00685738 -0.00100291 0.0325066 -0.00207399 -0.00852497)
(-0.00868019 0.0182793 -0.00370677 0.0120845 -0.000911138 -0.00308201)
(0.00484842 0.0178837 -0.0039024 -0.0107317 0.000932509 0.00380014)
(0.0184182 0.00643509 -0.00131726 -0.0307404 0.00218804 0.00932695)
(-0.0185385 0.0084709 -0.000520452 0.0299708 -0.000936119 -0.0055604)
(-0.00851158 0.0178203 -0.0025495 0.0107416 -0.00031512 -0.00198735)
(0.00396087 0.01784 -0.00263648 -0.00899763 0.000312597 0.00259782)
(0.014067 0.00858529 -0.000694892 -0.0281428 0.00100682 0.00640047)
(-0.015327 0.0074716 -0.000505875 0.0221643 -0.00169442 -0.00389264)
(-0.00721625 0.0163504 -0.00204581 0.0083285 -0.000474417 -0.00135522)
(0.00285727 0.0164256 -0.00212192 -0.00646796 0.000564653 0.00198643)
(0.0109951 0.00762282 -0.000707069 -0.0201211 0.00187258 0.00476097)
(-0.0117541 0.00652212 -0.000389479 0.015485 -0.00161666 -0.00195928)
(-0.00583447 0.0141041 -0.00157252 0.00606498 -0.000428671 -0.00068284)
(0.00190791 0.0141903 -0.00165029 -0.00434969 0.000500895 0.00120786)
(0.00774142 0.00669203 -0.000584201 -0.013538 0.00175397 0.00272095)
(-0.00884583 0.00506155 -0.00037136 0.00967644 -0.00142271 -0.000396535)
(-0.00462848 0.0112509 -0.00126197 0.00407591 -0.00038086 -0.00015056)
(0.00119613 0.0113736 -0.00132833 -0.00261432 0.000427167 0.000546114)
(0.00523913 0.0052916 -0.000538229 -0.00795076 0.00153396 0.0010134)
(-0.00682753 0.00327671 -0.000429906 0.00562594 -0.00110037 0.000836788)
(-0.00376439 0.00798361 -0.00105468 0.00256184 -0.000342778 0.000274147)
(0.000789391 0.00813705 -0.00108465 -0.0013792 0.000319781 -4.2177e-05)
(0.00368039 0.00362744 -0.000518779 -0.00406301 0.00115256 -0.000428085)
(-0.00666049 0.0015838 -0.000494364 0.00358677 -0.000471311 0.00166079)
(-0.00421672 0.00418406 -0.000854735 0.00186456 -0.000155779 0.000535659)
(0.00127628 0.00419738 -0.000873399 -0.000637552 0.000113944 -0.000574752)
(0.00375986 0.00164085 -0.000527457 -0.00210364 0.000434008 -0.00157299)
(-0.0132535 0.0194115 -0.000602267 0.0477062 0.0059111 -0.00351181)
(-0.00391778 0.0173469 -0.00194406 0.0106292 0.00158462 -0.0011899)
(0.00226789 0.0165953 -0.00211038 -0.0128999 -0.00385913 0.00176197)
(0.0103767 0.0169272 -0.000876643 -0.0479052 -0.00865007 0.00424314)
(-0.0228167 0.00741444 -0.00101973 0.0348833 -9.3957e-05 -0.00654083)
(-0.00811239 0.0194288 -0.00364203 0.0128938 -0.000304344 -0.00217304)
(0.00434976 0.0191815 -0.00391033 -0.0129761 -0.000183957 0.00335874)
(0.0184107 0.00723769 -0.00145882 -0.0346234 -0.000308417 0.00806892)
(-0.0183263 0.00772401 -0.000693809 0.0299248 -0.00144138 -0.00529044)
(-0.0078611 0.016799 -0.00295813 0.0106556 -0.000478975 -0.00171511)
(0.00343406 0.0167826 -0.00314996 -0.00954156 0.000650442 0.00280984)
(0.0137997 0.00772866 -0.00109553 -0.0286625 0.00170776 0.00672618)
(-0.0148895 0.00643161 -0.00040677 0.022282 -0.00211339 -0.00357646)
(-0.00657707 0.0145753 -0.00213507 0.00834728 -0.000573935 -0.00117487)
(0.00225867 0.0146013 -0.0023264 -0.00670231 0.00096791 0.00201603)
(0.0104119 0.00650914 -0.000851966 -0.0204522 0.00262304 0.00475033)
(-0.0113451 0.00532531 -0.00012779 0.0153591 -0.00221173 -0.00178309)
(-0.00528288 0.0121172 -0.00144718 0.00604095 -0.000566472 -0.000620987)
(0.00133737 0.0121609 -0.00163859 -0.00425494 0.00101486 0.00122926)
(0.00713252 0.00543793 -0.000572094 -0.0133489 0.00276228 0.00270191)
(-0.00847197 0.00399315 3.98936e-05 0.00951076 -0.00194027 -0.000216114)
(-0.00415932 0.00947182 -0.000935901 0.00403703 -0.000480945 -0.000132225)
(0.000673324 0.00956701 -0.00110653 -0.00237659 0.000902911 0.000550231)
(0.00463397 0.00420179 -0.000360174 -0.00759359 0.00246426 0.000913577)
(-0.00650233 0.0024602 9.33746e-05 0.00541296 -0.00140181 0.000979006)
(-0.00337644 0.00666502 -0.000598196 0.00247258 -0.0003532 0.000240591)
(0.000348354 0.00681667 -0.000724799 -0.00107997 0.000680323 -1.23234e-05)
(0.00314391 0.00284887 -0.000203982 -0.00360819 0.00184373 -0.000516791)
(-0.00634831 0.00123797 6.76009e-05 0.00350841 -0.000605524 0.00170618)
(-0.00388079 0.00357777 -0.000409852 0.00183969 -0.000133542 0.000412234)
(0.000879622 0.00359887 -0.000529737 -0.000421653 0.000331248 -0.000541714)
(0.00327263 0.00133384 -0.000170175 -0.00178786 0.00086354 -0.00164182)
(-0.0138869 0.0205211 -0.000425167 0.0481495 0.00314268 -0.00200029)
(-0.00411891 0.0183332 -0.00130208 0.0106626 0.00069381 -0.000613116)
(0.0024506 0.017581 -0.00142938 -0.0127105 -0.00246038 0.00115083)
(0.0108709 0.0179341 -0.000627931 -0.048223 -0.00520452 0.0026816)
(-0.0240098 0.00766123 -0.000835153 0.0340701 0.00011946 -0.00398659)
(-0.00859255 0.020004 -0.00258895 0.0127617 -0.000178016 -0.00116986)
(0.00475404 0.0197966 -0.00279968 -0.0129081 -0.000305918 0.0023427)
(0.0194613 0.00750757 -0.00116725 -0.0338496 -0.000514573 0.00542092)
(-0.0192482 0.00771261 -0.000700566 0.0295887 -0.000918242 -0.00357803)
(-0.00831539 0.0169077 -0.00231607 0.0106199 -0.000312423 -0.000982453)
(0.00374626 0.0168888 -0.00247209 -0.0095965 0.000472972 0.00217499)
(0.014576 0.0076664 -0.000983078 -0.0283904 0.00116588 0.00497571)
(-0.0154679 0.0062773 -0.000466764 0.0221291 -0.00150141 -0.0025863)
(-0.00690439 0.0142454 -0.00175058 0.00834752 -0.000387412 -0.000673294)
(0.00232956 0.0142666 -0.00189549 -0.00667055 0.000858482 0.0016782)
(0.0107415 0.00634281 -0.000744893 -0.0202927 0.0020665 0.00375522)
(-0.0117176 0.00506525 -0.000229921 0.0153922 -0.00165023 -0.00139007)
(-0.00553412 0.0116058 -0.00117454 0.00610794 -0.000380889 -0.000314552)
(0.00125533 0.0116542 -0.00131191 -0.00418844 0.000976977 0.00110587)
(0.00718779 0.0051896 -0.000493664 -0.0132683 0.00233172 0.00231007)
(-0.00867589 0.00371582 -5.49867e-05 0.00970653 -0.0014791 -0.000273857)
(-0.00433769 0.00894797 -0.000713132 0.00414818 -0.000309511 1.89705e-05)
(0.000493532 0.00906492 -0.000831052 -0.00228609 0.000918503 0.000581988)
(0.00448753 0.00397295 -0.00028153 -0.00759157 0.0021705 0.000976274)
(-0.00656282 0.00221022 2.9617e-05 0.00574463 -0.00107701 0.000597159)
(-0.00348332 0.006266 -0.00041014 0.00260874 -0.000205064 0.000273328)
(0.000117867 0.00645845 -0.000499808 -0.000996909 0.000716892 0.000148152)
(0.00286812 0.00269128 -0.000135486 -0.00368832 0.00168072 -9.96712e-05)
(-0.00628629 0.00114291 4.7097e-06 0.00383883 -0.0004538 0.00110689)
(-0.00393871 0.00341735 -0.000320187 0.00198219 -5.96751e-05 0.000392804)
(0.00058992 0.0034701 -0.000420527 -0.000375051 0.000331691 -0.000189707)
(0.00289374 0.00130133 -0.000150169 -0.0018875 0.000772416 -0.000837696)
(-0.0143602 0.0209506 -0.000266242 0.0484758 0.0015579 -0.00106753)
(-0.00429517 0.0185868 -0.000817936 0.010719 0.000245165 -0.000284638)
(0.00258276 0.017813 -0.000900785 -0.0126361 -0.00151647 0.000739602)
(0.0112641 0.0182791 -0.000398017 -0.0484429 -0.00299611 0.00161908)
(-0.0249077 0.00775671 -0.000561166 0.0334997 6.96447e-05 -0.00219819)
(-0.00898891 0.0202995 -0.00170514 0.0126918 -0.000125552 -0.000544466)
(0.00504216 0.0201061 -0.00184662 -0.012645 -0.000255472 0.00156876)
(0.0202682 0.0076119 -0.000786287 -0.0330773 -0.000383064 0.00339)
(-0.0200521 0.00780873 -0.000529239 0.0292284 -0.000534607 -0.00207147)
(-0.00872657 0.0171311 -0.0016429 0.0105916 -0.000174367 -0.000448332)
(0.00399972 0.0171209 -0.00174893 -0.00941051 0.000318026 0.00156037)
(0.0152795 0.00776103 -0.000717359 -0.0278705 0.000741805 0.00330442)
(-0.0161014 0.00631805 -0.00038992 0.0219597 -0.000909994 -0.00154056)
(-0.00725721 0.0143466 -0.00130746 0.00836859 -0.000200139 -0.000273585)
(0.00245464 0.0143766 -0.00139781 -0.00652786 0.000648447 0.00128466)
(0.0112179 0.0063933 -0.00056058 -0.0199789 0.00142325 0.00263772)
(-0.0121618 0.00506108 -0.000223095 0.015425 -0.00103415 -0.000824975)
(-0.00582385 0.0116142 -0.000907236 0.00619253 -0.000185712 -5.98961e-05)
(0.00126437 0.0116769 -0.000986385 -0.00408341 0.000782604 0.000915453)
(0.00742389 0.00520853 -0.000374238 -0.013128 0.0016928 0.00173585)
(-0.00895395 0.00368169 -8.69947e-05 0.00991188 -0.000953448 -0.000116226)
(-0.00456366 0.00891095 -0.000563937 0.00428447 -0.000140407 0.00014757)
(0.000418026 0.00905068 -0.000627548 -0.00220997 0.000766659 0.000557433)
(0.00452615 0.00398007 -0.000208844 -0.00758723 0.0016409 0.000851267)
(-0.00669406 0.00216012 -1.79385e-05 0.00607073 -0.000721806 0.000458431)
(-0.00364859 0.00623323 -0.000346212 0.00276977 -8.64612e-05 0.000316724)
(-1.7104e-05 0.00645574 -0.00039246 -0.000952707 0.00061329 0.000268562)
(0.00275021 0.00270083 -9.96995e-05 -0.00378519 0.00131538 0.000133434)
(-0.00631197 0.00113171 -5.93529e-05 0.00416713 -0.000330046 0.000811514)
(-0.00407697 0.0034161 -0.000339682 0.00213362 -2.14537e-05 0.000423214)
(0.00039547 0.00348641 -0.000398365 -0.000384933 0.000287152 9.45013e-05)
(0.00265818 0.00132326 -0.000140244 -0.00205044 0.000624972 -0.000295028)
(-0.0146573 0.0210929 -0.000156323 0.0486432 0.000723058 -0.000542571)
(-0.0044119 0.0185895 -0.000492294 0.0107739 4.61893e-05 -0.000111111)
(0.00265662 0.0177941 -0.000542321 -0.0125622 -0.000909055 0.000474288)
(0.0115102 0.0183585 -0.000236972 -0.048478 -0.00167347 0.000963017)
(-0.0254993 0.00778086 -0.000347864 0.0332155 6.75924e-06 -0.00112984)
(-0.00925023 0.0204132 -0.00106875 0.0126941 -9.30984e-05 -0.000196588)
(0.00520488 0.0202253 -0.00115737 -0.0124038 -0.000181157 0.00104111)
(0.0207896 0.00764328 -0.000491758 -0.0325551 -0.0002351 0.00207068)
(-0.0206297 0.00787553 -0.000357161 0.0290134 -0.000309948 -0.00107045)
(-0.00900705 0.017295 -0.00109355 0.0106054 -8.91054e-05 -0.000123996)
(0.00415158 0.0172946 -0.00116173 -0.00919706 0.000210145 0.00109387)
(0.0157745 0.0078372 -0.000477214 -0.0274352 0.000473485 0.00210415)
(-0.016598 0.00638592 -0.000282771 0.0218488 -0.000514192 -0.000769053)
(-0.00751142 0.0145093 -0.000910535 0.0084101 -8.03583e-05 -1.40243e-05)
(0.00254528 0.0145498 -0.000965148 -0.00636103 0.000456661 0.000949625)
(0.0115965 0.00647592 -0.000385515 -0.0196712 0.000932031 0.00174284)
(-0.0125443 0.00511692 -0.000178496 0.0154466 -0.000590888 -0.000343869)
(-0.00604113 0.0117509 -0.00065763 0.00627241 -5.97135e-05 0.000117143)
(0.00128874 0.0118262 -0.000702068 -0.00396228 0.000572773 0.0007233)
(0.00765508 0.0052854 -0.00026391 -0.0129579 0.00114506 0.00119954)
(-0.00922284 0.00371782 -8.80676e-05 0.0100487 -0.000559149 9.72051e-05)
(-0.00474021 0.00901663 -0.000429485 0.00439633 -3.33833e-05 0.000250421)
(0.000386466 0.00917235 -0.000462506 -0.00212812 0.000576624 0.000495573)
(0.00461956 0.00404594 -0.000152297 -0.00753073 0.00114487 0.000643861)
(-0.00685946 0.00217376 -4.50669e-05 0.00628039 -0.000442977 0.000476151)
(-0.0037873 0.00631277 -0.000292994 0.00289126 -1.47831e-05 0.00037456)
(-9.27293e-05 0.00655367 -0.000315045 -0.000908355 0.000468164 0.00032594)
(0.00272827 0.00275391 -8.3361e-05 -0.00381487 0.000942162 0.00020078)
(-0.00641296 0.00114462 -9.54935e-05 0.00437572 -0.000214688 0.000723465)
(-0.00420788 0.00346443 -0.000332176 0.00224109 2.20837e-06 0.000480906)
(0.000281811 0.00354266 -0.00036415 -0.000385874 0.000218744 0.000277309)
(0.00255877 0.00135601 -0.000135453 -0.00214259 0.000454391 5.09738e-06)
(-0.0148304 0.0211219 -8.55844e-05 0.048722 0.000307788 -0.000258239)
(-0.00448461 0.0185225 -0.000281115 0.0108215 -2.41169e-05 -2.44824e-05)
(0.00269525 0.01771 -0.00030953 -0.0124926 -0.000520376 0.000308857)
(0.0116495 0.0183431 -0.000132584 -0.0484289 -0.000894955 0.000574766)
(-0.0258606 0.0077734 -0.00019944 0.0330939 -2.50158e-05 -0.000528379)
(-0.00941436 0.0204349 -0.000631331 0.01273 -6.58883e-05 -1.63695e-05)
(0.00529162 0.0202485 -0.000683533 -0.0122193 -0.000115239 0.000701046)
(0.0210967 0.00764149 -0.000286794 -0.0322242 -0.000127047 0.00126554)
(-0.0210053 0.00790954 -0.000218866 0.0289173 -0.000177992 -0.000468501)
(-0.00918759 0.0173865 -0.000677727 0.0106445 -4.24015e-05 5.48285e-05)
(0.00423624 0.017393 -0.00071911 -0.00902156 0.000133989 0.000773879)
(0.0160861 0.0078801 -0.000292411 -0.0271326 0.000296369 0.00132781)
(-0.0169372 0.00643644 -0.000182665 0.0218 -0.000276241 -0.00027141)
(-0.00767988 0.0146342 -0.000585491 0.00846006 -2.04931e-05 0.000137469)
(0.00260092 0.0146824 -0.000617353 -0.00621613 0.00029993 0.000703049)
(0.0118501 0.00653856 -0.000243465 -0.0194342 0.000580896 0.00112405)
(-0.0128205 0.00516899 -0.000123033 0.0154655 -0.00031513 8.20439e-07)
(-0.00618903 0.0118794 -0.000438205 0.0063397 2.76976e-07 0.000228666)
(0.00130861 0.0119635 -0.000462656 -0.00385261 0.000384763 0.000567222)
(0.00782492 0.00535279 -0.000171286 -0.0128037 0.000725633 0.000790658)
(-0.00943054 0.00375961 -6.9277e-05 0.0101283 -0.000304238 0.000292465)
(-0.00486419 0.00912982 -0.000300597 0.00447692 1.50548e-05 0.000325936)
(0.000372913 0.00929602 -0.000317417 -0.00205202 0.000393689 0.000429487)
(0.00470447 0.00410791 -0.000103371 -0.00745266 0.000739992 0.000443393)
(-0.00700361 0.00219699 -4.67963e-05 0.00639602 -0.00025195 0.000561115)
(-0.00388935 0.00639961 -0.000224564 0.00297083 1.64722e-05 0.000431815)
(-0.000134161 0.00665202 -0.000234649 -0.000865271 0.000322081 0.00034565)
(0.00274036 0.00280296 -6.45619e-05 -0.00379947 0.000619453 0.000182576)
(-0.00652337 0.00115696 -9.14976e-05 0.00449195 -0.000129884 0.000756593)
(-0.00431107 0.00351125 -0.000273918 0.00230784 1.12015e-05 0.000547847)
(0.000219688 0.00359365 -0.000291029 -0.000378467 0.000150421 0.000380298)
(0.00252686 0.00138069 -0.000111207 -0.00218011 0.000302396 0.00013341)
(-0.0149243 0.0211154 -4.16148e-05 0.0487567 0.000114774 -0.000113401)
(-0.00452658 0.0184569 -0.00014259 0.0108566 -3.22386e-05 1.57722e-05)
(0.00271411 0.0176328 -0.000156923 -0.0124396 -0.000264938 0.000212961)
(0.0117222 0.0183082 -6.59111e-05 -0.0483657 -0.000430456 0.000360088)
(-0.0260643 0.00775831 -0.000100626 0.0330499 -2.72444e-05 -0.000213794)
(-0.00951009 0.0204232 -0.000328465 0.0127686 -3.96155e-05 6.98227e-05)
(0.00533487 0.0202369 -0.000355602 -0.0120966 -6.2558e-05 0.000499546)
(0.0212629 0.00763028 -0.000147216 -0.0320289 -5.8899e-05 0.000811093)
(-0.0212274 0.00792329 -0.000116062 0.0288856 -9.30899e-05 -0.000139573)
(-0.00929492 0.0174288 -0.000365026 0.0106849 -1.81724e-05 0.000144618)
(0.00428013 0.0174394 -0.000387105 -0.00890147 7.50907e-05 0.000576747)
(0.016264 0.00789986 -0.000155651 -0.0269467 0.000164768 0.000873191)
(-0.0171443 0.00646572 -0.000100567 0.0217877 -0.000134074 1.40191e-05)
(-0.00778187 0.0147091 -0.000323889 0.00850345 9.07463e-07 0.000217432)
(0.00263145 0.014762 -0.000340514 -0.00611352 0.000169899 0.000544564)
(0.0120004 0.00657573 -0.000132666 -0.0192797 0.000318384 0.000746137)
(-0.0129949 0.00520296 -7.07566e-05 0.0154822 -0.000150385 0.000213612)
(-0.00628013 0.0119651 -0.000248933 0.00638861 1.58755e-05 0.000292017)
(0.00132078 0.0120543 -0.000261202 -0.00377223 0.000220563 0.000460968)
(0.00793073 0.0053964 -9.54631e-05 -0.0126926 0.000400497 0.000525131)
(-0.00956735 0.00378879 -4.33245e-05 0.010171 -0.000147181 0.000431416)
(-0.00494213 0.00920931 -0.000177298 0.0045287 2.34388e-05 0.000374865)
(0.000366802 0.00938166 -0.000185212 -0.00199458 0.000227661 0.000378302)
(0.0047631 0.00414953 -5.98507e-05 -0.00738529 0.000412865 0.00029594)
(-0.00710556 0.00221423 -3.37986e-05 0.00645293 -0.000126712 0.000645609)
(-0.00395552 0.00646089 -0.000140934 0.00301765 1.99841e-05 0.000476152)
(-0.000155824 0.00671975 -0.000145194 -0.000831329 0.000186953 0.000348357)
(0.0027587 0.00283555 -4.12486e-05 -0.00377138 0.000348866 0.000142199)
(-0.00660987 0.00116545 -6.41024e-05 0.00454776 -6.94793e-05 0.000819891)
(-0.00438063 0.00354376 -0.000178181 0.00234461 1.03603e-05 0.000603233)
(0.000187862 0.00362762 -0.000186634 -0.000368187 8.74785e-05 0.000432857)
(0.00252331 0.00139555 -7.30188e-05 -0.00218783 0.000171527 0.000176656)
(-0.0149652 0.0211061 -1.2362e-05 0.0487697 2.78606e-05 -5.29732e-05)
(-0.00454575 0.0184196 -4.34201e-05 0.0108752 -1.32444e-05 3.12487e-05)
(0.00272168 0.0175898 -4.77658e-05 -0.0124113 -8.08403e-05 0.000169013)
(0.0117528 0.018285 -1.98301e-05 -0.0483261 -0.000127013 0.000264846)
(-0.0261556 0.00774814 -3.05338e-05 0.0330377 -1.11027e-05 -8.03692e-05)
(-0.00955415 0.0204106 -0.000101421 0.012792 -1.32389e-05 0.000103634)
(0.00535255 0.0202241 -0.000109792 -0.0120354 -1.96822e-05 0.000405976)
(0.021335 0.00762209 -4.50997e-05 -0.0319379 -1.66977e-05 0.000606944)
(-0.0213299 0.00792743 -3.62006e-05 0.0288791 -2.90902e-05 3.71694e-06)
(-0.00934494 0.017444 -0.000114815 0.0107093 -4.97328e-06 0.000181076)
(0.0042986 0.0174565 -0.000121727 -0.00884098 2.42599e-05 0.000483159)
(0.0163441 0.00790694 -4.86432e-05 -0.0268586 5.30868e-05 0.000664593)
(-0.0172416 0.00647854 -3.20152e-05 0.0217879 -3.99306e-05 0.000142156)
(-0.00782994 0.0147428 -0.000103344 0.00852828 2.32234e-06 0.000251153)
(0.0026447 0.0147978 -0.000108496 -0.00606093 5.50307e-05 0.000467579)
(0.0120695 0.00659233 -4.20176e-05 -0.0192043 0.00010152 0.000568615)
(-0.0130785 0.00521897 -2.30614e-05 0.0154923 -4.41883e-05 0.000313596)
(-0.00632347 0.0120061 -8.05784e-05 0.0064144 7.72659e-06 0.000320257)
(0.00132628 0.0120977 -8.43063e-05 -0.00373021 7.1802e-05 0.000407762)
(0.00798067 0.00541699 -3.06406e-05 -0.0126355 0.000127987 0.000396072)
(-0.00963431 0.0038029 -1.47731e-05 0.0101897 -4.35721e-05 0.00050212)
(-0.0049796 0.00924841 -5.85818e-05 0.00455405 1.00599e-05 0.000398679)
(0.000364339 0.00942351 -6.08883e-05 -0.00196397 7.43973e-05 0.00035102)
(0.00479227 0.00416958 -1.96369e-05 -0.00734766 0.000132545 0.000219524)
(-0.00715709 0.00222272 -1.2369e-05 0.00647528 -3.85074e-05 0.000694972)
(-0.0039878 0.00649116 -4.80779e-05 0.0030392 8.23616e-06 0.000499872)
(-0.000165139 0.00675265 -4.9224e-05 -0.000812703 6.12098e-05 0.000346831)
(0.00277017 0.00285086 -1.429e-05 -0.00375233 0.000112445 0.000114657)
(-0.00665522 0.0011699 -2.31251e-05 0.00456848 -2.22828e-05 0.000862962)
(-0.00441506 0.00356021 -6.16814e-05 0.00236067 3.98133e-06 0.000633879)
(0.000174248 0.00364382 -6.42388e-05 -0.000361109 2.87805e-05 0.000454488)
(0.00252561 0.00140188 -2.56221e-05 -0.00218646 5.55416e-05 0.000186603)
)
;

boundaryField
{
    interface
    {
        type            calculated;
        value           nonuniform List<symmTensor> 
192
(
(-0.0476873 -1.37576e-05 0.000473108 0.0753909 0.0117107 -0.00675373)
(-0.0224298 -3.95959e-05 0.000712053 0.0414075 -0.00236621 -0.0105247)
(-0.0235197 -8.85091e-05 0.000803554 0.0393483 -0.00126064 -0.00686434)
(-0.0177438 -0.000146505 0.000831666 0.0286033 -0.00240118 -0.00478017)
(-0.0134485 -0.000218007 0.000831603 0.0196777 -0.00234186 -0.00231246)
(-0.00960119 -0.000316222 0.000802541 0.0118948 -0.0020647 -0.000315753)
(-0.0071431 -0.000478702 0.000731324 0.00667786 -0.00153366 0.00122631)
(-0.00591446 -0.000720641 0.000582989 0.00403433 -0.000645177 0.00222494)
(-0.0482393 1.49006e-05 0.000324616 0.073512 0.0076143 -0.00438633)
(-0.0258774 -1.16355e-05 0.000491952 0.0438623 0.00013492 -0.00819515)
(-0.0237953 -6.358e-05 0.000548442 0.039112 -0.00186233 -0.00664319)
(-0.0183559 -0.000136054 0.000561592 0.0286901 -0.00289906 -0.00441841)
(-0.0138295 -0.00022806 0.000553049 0.0195078 -0.00308104 -0.00205413)
(-0.0100249 -0.000357623 0.000522511 0.0117394 -0.0027239 1.02364e-05)
(-0.00752491 -0.000569098 0.000462135 0.00652833 -0.0019519 0.00156638)
(-0.00618714 -0.000852012 0.000355086 0.00401325 -0.000850509 0.00250531)
(-0.0502683 2.16579e-05 0.00022376 0.0744863 0.00408266 -0.00253355)
(-0.0271471 -5.00758e-06 0.000337055 0.0424693 0.000326362 -0.00509393)
(-0.0248462 -5.82228e-05 0.000369644 0.0384682 -0.00114882 -0.00462755)
(-0.0190145 -0.000137778 0.000372195 0.0284024 -0.00200738 -0.00335097)
(-0.0141479 -0.000242516 0.000360397 0.0195082 -0.00225444 -0.00177934)
(-0.0101126 -0.000391457 0.000334325 0.0120076 -0.00204909 -0.000305335)
(-0.00745484 -0.000629854 0.000290811 0.00702321 -0.00150305 0.000843083)
(-0.00583943 -0.000925499 0.000221453 0.00447629 -0.000655768 0.00151584)
(-0.0515718 2.18991e-05 0.000158516 0.0751196 0.00203037 -0.0013579)
(-0.0281407 -5.82559e-06 0.000239167 0.0415638 0.000183699 -0.00282733)
(-0.0258189 -6.04507e-05 0.000259717 0.0378837 -0.000661078 -0.00271142)
(-0.0197702 -0.000144575 0.000258114 0.0281055 -0.00120648 -0.00204433)
(-0.0146627 -0.000257712 0.000246561 0.0195011 -0.00140865 -0.00111445)
(-0.0104193 -0.000418736 0.000225809 0.0122513 -0.00132328 -0.000183475)
(-0.00759824 -0.000672994 0.000194983 0.00745267 -0.00101728 0.000571358)
(-0.00578762 -0.000973048 0.000148174 0.00489758 -0.000484924 0.00103074)
(-0.0522844 2.07818e-05 0.000111283 0.0754239 0.000944653 -0.000693405)
(-0.0288079 -8.4692e-06 0.000168622 0.0411119 5.33924e-05 -0.00146392)
(-0.0265082 -6.47733e-05 0.000182235 0.0375406 -0.000389277 -0.00142055)
(-0.0203541 -0.000152185 0.000179565 0.0279064 -0.000686623 -0.00105067)
(-0.0151065 -0.00027093 0.00016996 0.0194862 -0.000812632 -0.000506956)
(-0.010721 -0.000439662 0.000154424 0.0123979 -0.000786898 6.44755e-05)
(-0.0077805 -0.000704021 0.000132927 0.00771043 -0.000636281 0.000554146)
(-0.00583673 -0.00100591 0.000100831 0.00515237 -0.000323195 0.000864798)
(-0.0526551 1.9589e-05 7.40246e-05 0.0755518 0.000403072 -0.000332348)
(-0.0292255 -1.10829e-05 0.000112605 0.040907 -1.38282e-05 -0.000693146)
(-0.0269595 -6.89301e-05 0.000121451 0.0373786 -0.000230407 -0.000639322)
(-0.0207568 -0.00015871 0.000119065 0.0278071 -0.000376105 -0.00040137)
(-0.0154317 -0.000281173 0.000112049 0.0194785 -0.000442486 -5.90961e-05)
(-0.0109613 -0.000454838 0.000101306 0.0124741 -0.000438573 0.000311781)
(-0.00794651 -0.000725731 8.70059e-05 0.00784306 -0.000371604 0.00065042)
(-0.0059323 -0.00102841 6.57807e-05 0.00528833 -0.000200931 0.000884402)
(-0.0528365 1.87601e-05 4.21729e-05 0.0755982 0.000150732 -0.000148093)
(-0.0294637 -1.2966e-05 6.438e-05 0.0408225 -2.88069e-05 -0.000289279)
(-0.0272267 -7.19766e-05 6.93587e-05 0.0373154 -0.000124103 -0.000211514)
(-0.0210032 -0.000163324 6.78029e-05 0.0277693 -0.00018687 -2.72084e-05)
(-0.0156378 -0.000288106 6.35959e-05 0.019479 -0.000216532 0.000220269)
(-0.0111208 -0.000464808 5.72902e-05 0.0125106 -0.000217999 0.000492108)
(-0.00806435 -0.000739731 4.88297e-05 0.0079033 -0.000191959 0.000755154)
(-0.00601528 -0.00104238 3.62174e-05 0.00535028 -0.000110091 0.000954981)
(-0.0529092 1.82752e-05 1.35719e-05 0.0756116 3.66824e-05 -7.11228e-05)
(-0.0295703 -1.40256e-05 2.07715e-05 0.0407937 -1.29266e-05 -0.000117798)
(-0.0273493 -7.36019e-05 2.23515e-05 0.0372965 -3.94545e-05 -2.49665e-05)
(-0.0211187 -0.000165664 2.18183e-05 0.0277591 -5.65511e-05 0.000141091)
(-0.0157362 -0.000291576 2.04318e-05 0.0194817 -6.47551e-05 0.000352088)
(-0.0111987 -0.000470009 1.83563e-05 0.0125251 -6.57354e-05 0.000584687)
(-0.00812271 -0.000747214 1.54528e-05 0.00792497 -5.93305e-05 0.000817785)
(-0.00605869 -0.00104808 1.10703e-05 0.0053717 -3.57445e-05 0.00100611)
(-0.0133946 0.014684 -0.000652485 0.0517163 -0.000103564 -0.0264803)
(-0.023218 0.00648038 -0.0010552 0.029704 -0.000173041 -0.00500109)
(-0.0192137 0.00915249 -0.00122876 0.0298975 -0.000187561 -0.00764982)
(-0.0159988 0.0083526 -0.00131575 0.0219919 -0.000197206 -0.00442889)
(-0.0123084 0.00748783 -0.00137607 0.0156258 -0.000212633 -0.00259862)
(-0.00929297 0.005899 -0.00142377 0.00991993 -0.000239466 -0.000797633)
(-0.00716651 0.00389425 -0.00147159 0.00597892 -0.000286227 0.000378448)
(-0.0069282 0.00185149 -0.00156475 0.00379899 -0.000353197 0.00160016)
(-0.00464368 0.0111555 -0.000481267 0.0119838 -8.02659e-05 -0.00567528)
(-0.00948341 0.0175028 -0.00082893 0.0112032 -0.000129272 -0.00182291)
(-0.00937087 0.0188285 -0.000963118 0.010819 -0.000137883 -0.0015446)
(-0.00797794 0.0177801 -0.00103318 0.00830804 -0.000126319 -0.000734806)
(-0.00647281 0.0156328 -0.00108622 0.00611637 -0.000114478 -0.000243124)
(-0.00515074 0.0125848 -0.00113521 0.0041556 -0.00010958 0.000189534)
(-0.00417162 0.00896669 -0.00119242 0.00269974 -0.00011898 0.000488107)
(-0.00454315 0.00465281 -0.00132201 0.00194581 -0.000144073 0.00120414)
(0.00279952 0.0101536 -0.000428444 -0.0162497 -5.21151e-05 0.00830281)
(0.00557614 0.0169793 -0.000780051 -0.00854221 -9.01145e-05 0.00134843)
(0.00464645 0.0188812 -0.000918575 -0.00858059 -9.55726e-05 0.0020596)
(0.00346011 0.0178988 -0.000992767 -0.00625676 -7.65862e-05 0.0013467)
(0.00240214 0.0157608 -0.00104617 -0.00441971 -5.31149e-05 0.000851384)
(0.00159389 0.0127445 -0.00109419 -0.00279508 -3.34653e-05 0.000310857)
(0.00108692 0.00914443 -0.0011494 -0.00161683 -2.30919e-05 -0.0001532)
(0.00150513 0.0046778 -0.00127514 -0.000799806 -3.07576e-05 -0.00101572)
(0.0106644 0.0120035 -0.000428331 -0.0537062 -5.3538e-05 0.0281871)
(0.0189965 0.00582012 -0.000815014 -0.0265131 -9.01238e-05 0.00452743)
(0.0147084 0.00933369 -0.000958553 -0.0276175 -8.09232e-05 0.00820088)
(0.011655 0.00856476 -0.00103804 -0.0197733 -4.81307e-05 0.00505548)
(0.00829916 0.00771694 -0.00109108 -0.0137 -1.20542e-05 0.00326943)
(0.00570451 0.00617616 -0.00113538 -0.00829018 1.98008e-05 0.00139684)
(0.00403486 0.00426396 -0.00118287 -0.00453041 5.18084e-05 -9.939e-06)
(0.00403125 0.0019114 -0.00129881 -0.00241851 7.87773e-05 -0.00147554)
(0.0440184 8.97349e-05 0.000218171 -0.0733679 -0.0149265 0.00713468)
(0.0186862 0.000110116 0.000372811 -0.0394474 0.00247132 0.0114152)
(0.0197879 8.62514e-05 0.000415076 -0.0373943 0.00137011 0.00788766)
(0.0138881 2.64102e-05 0.000434492 -0.0263743 0.00265487 0.00584419)
(0.00977659 -3.71044e-05 0.000451403 -0.0175396 0.00254051 0.00326681)
(0.00622155 -0.000101818 0.000469586 -0.00997951 0.00223281 0.0011108)
(0.00404094 -0.000209802 0.00049137 -0.00481828 0.00164715 -0.000670824)
(0.00345511 -0.000503009 0.000494153 -0.00234208 0.000625905 -0.00202186)
(0.0434213 3.86652e-05 8.29649e-05 -0.0706586 -0.0106194 0.00521982)
(0.0221274 4.83687e-05 0.000156322 -0.0434088 -0.000533183 0.00996095)
(0.0194342 3.24232e-05 0.000168937 -0.037664 0.00217707 0.00834049)
(0.0138218 -8.22038e-06 0.000169343 -0.0266788 0.00349012 0.00585368)
(0.00939235 -5.67495e-05 0.000173556 -0.0173169 0.00370457 0.00321551)
(0.00587425 -0.000107967 0.00018467 -0.0096425 0.00331775 0.000904687)
(0.00371326 -0.000205789 0.000204212 -0.00440931 0.00247237 -0.000919484)
(0.00333445 -0.000531927 0.000229895 -0.00205637 0.00115812 -0.00228294)
(0.0452373 1.28472e-05 4.78337e-05 -0.0715155 -0.00630298 0.00330232)
(0.0233227 1.17292e-05 0.000103179 -0.0420307 -0.000685135 0.00669597)
(0.0203955 1.56598e-06 0.000117324 -0.0370542 0.00144849 0.00616512)
(0.0143627 -2.68837e-05 0.000120027 -0.0264048 0.00263654 0.00462916)
(0.00952443 -6.34727e-05 0.000123486 -0.0172206 0.00299374 0.00278011)
(0.00573467 -0.000103156 0.000131568 -0.0097205 0.00279418 0.00106891)
(0.00339882 -0.000193696 0.000144354 -0.00463199 0.00216862 -0.0003002)
(0.00275638 -0.00053154 0.000159582 -0.00226167 0.00101403 -0.00120828)
(0.0464438 5.23654e-06 3.86365e-05 -0.0720101 -0.00355454 0.00196683)
(0.0242765 -1.35698e-06 8.56784e-05 -0.0409179 -0.000461495 0.00412257)
(0.0213008 -1.01239e-05 0.000101495 -0.0363076 0.000906866 0.00402297)
(0.0150088 -3.29836e-05 0.000106729 -0.0259786 0.00176278 0.00319573)
(0.00987443 -6.32186e-05 0.000110489 -0.0170535 0.00210865 0.00205649)
(0.00584065 -9.70848e-05 0.00011568 -0.00975843 0.00205137 0.000931789)
(0.00331577 -0.000185061 0.000121804 -0.00481492 0.00165769 1.77052e-05)
(0.00249777 -0.000533332 0.000127875 -0.00250025 0.000807981 -0.000524891)
(0.0470776 3.20094e-06 3.10402e-05 -0.0721502 -0.00193828 0.00114697)
(0.0249208 -5.45808e-06 6.79025e-05 -0.040235 -0.000254028 0.00246172)
(0.0219403 -1.37587e-05 8.15145e-05 -0.0357494 0.000579021 0.00249291)
(0.01551 -3.4177e-05 8.66155e-05 -0.0255912 0.00113177 0.0020458)
(0.0101974 -6.13382e-05 8.95598e-05 -0.0168537 0.00139432 0.00136754)
(0.00599027 -9.23823e-05 9.24945e-05 -0.0097124 0.00140117 0.000667482)
(0.00332014 -0.000179521 9.50614e-05 -0.00488164 0.00116818 0.00010065)
(0.0023804 -0.000535987 9.68736e-05 -0.00263015 0.00058195 -0.000164726)
(0.0473795 2.73934e-06 2.28172e-05 -0.0721267 -0.00101025 0.000666981)
(0.0253175 -6.56501e-06 4.90052e-05 -0.0398319 -0.000119113 0.00145985)
(0.0223482 -1.45546e-05 5.89849e-05 -0.035387 0.000365487 0.00151519)
(0.0158457 -3.39091e-05 6.28955e-05 -0.0253086 0.000697323 0.00125838)
(0.0104303 -5.9637e-05 6.48982e-05 -0.0166756 0.000870089 0.000843462)
(0.00611661 -8.92926e-05 6.64882e-05 -0.00963029 0.000892652 0.000406536)
(0.0033546 -0.000176305 6.74165e-05 -0.00487652 0.000760035 6.56791e-05)
(0.00235195 -0.000538578 6.72078e-05 -0.00268298 0.000385229 -2.68541e-05)
(0.0475096 2.76681e-06 1.38483e-05 -0.0720604 -0.000474575 0.000404506)
(0.0255389 -6.70681e-06 2.93974e-05 -0.039606 -4.62032e-05 0.000901044)
(0.0225834 -1.45128e-05 3.53415e-05 -0.0351743 0.000205058 0.00094975)
(0.0160458 -3.34186e-05 3.77047e-05 -0.0251312 0.000380066 0.00078276)
(0.0105747 -5.84801e-05 3.8849e-05 -0.0165493 0.000475873 0.000505403)