/*--------------------------------*- C++ -*----------------------------------*\
| =========                 |                                                 |
| \\      /  F ield         | foam-extend: Open Source CFD                    |
|  \\    /   O peration     | Version:     3.1                                |
|   \\  /    A nd           | Web:         http://www.extend-project.de       |
|    \\/     M anipulation  |                                                 |
\*---------------------------------------------------------------------------*/
FoamFile
{
    version     2.0;
    format      ascii;
    class       pointVectorField;
    location    "1.2";
    object      pointD;
}
// * * * * * * * * * * * * * * * * * * * * * * * * * * * * * * * * * * * * * //

dimensions      [0 1 0 0 0 0 0];

internalField   nonuniform List<vector> 
405
(
(0 0 0)
(0 0 0)
(0 0 0)
(0 0 0)
(0 0 0)
(0.00172283 0.00180856 0.000816275)
(0.00103326 0.00062505 0.00048819)
(0.000792606 -6.40764e-05 -7.20851e-05)
(0.000923823 -0.000790348 -0.000647616)
(0.00143704 -0.00205915 -0.00100341)
(0.00346001 0.00268662 0.000651742)
(0.00289159 0.00108427 0.00037565)
(0.00260982 -0.000100178 -8.47506e-05)
(0.0027082 -0.00131426 -0.00056002)
(0.00304596 -0.00299792 -0.000870114)
(0.00583344 0.00354138 0.000510752)
(0.00529216 0.0014803 0.000287844)
(0.00501397 -0.00018715 -8.53295e-05)
(0.00505545 -0.0018865 -0.000470114)
(0.00529891 -0.00404494 -0.000725815)
(0.00852513 0.00409925 0.000288543)
(0.00805763 0.00171673 0.000165192)
(0.0077933 -0.000315868 -7.62242e-05)
(0.00777932 -0.00237755 -0.000327556)
(0.00790168 -0.00484447 -0.000478594)
(0.0114302 0.00442367 7.49561e-05)
(0.0110264 0.00182561 4.98543e-05)
(0.0107756 -0.00047322 -6.60686e-05)
(0.010716 -0.00279505 -0.000190695)
(0.0107449 -0.0054581 -0.000238617)
(0.0144073 0.00454971 -0.000107582)
(0.0140584 0.0018335 -4.88517e-05)
(0.0138211 -0.000643035 -5.81348e-05)
(0.0137282 -0.0031347 -7.36649e-05)
(0.0136905 -0.00589499 -3.15237e-05)
(0.0173673 0.00455067 -0.000240748)
(0.0170518 0.00177659 -0.000126279)
(0.0168218 -0.000810983 -5.43988e-05)
(0.0167097 -0.00340748 1.45339e-05)
(0.01664 -0.00620446 0.000119742)
(0.0202894 0.00448624 -0.000306851)
(0.0199435 0.00169262 -0.000167995)
(0.0196689 -0.000959625 -5.20109e-05)
(0.0195784 -0.00362691 6.10139e-05)
(0.0195342 -0.00644029 0.000192761)
(0 0 0)
(0 0 0)
(0 0 0)
(0 0 0)
(0 0 0)
(0.00189069 0.0016912 0.000477018)
(0.00122711 0.000530916 0.000278782)
(0.00103117 -5.33308e-05 -6.09477e-05)
(0.00113471 -0.000653238 -0.000420417)
(0.00162265 -0.00188577 -0.000648576)
(0.00366813 0.00272318 0.000460469)
(0.00313064 0.0011038 0.000256004)
(0.00289419 -0.000122245 -8.01307e-05)
(0.00295782 -0.00137213 -0.000428522)
(0.00326773 -0.00307051 -0.000659147)
(0.00598377 0.00358586 0.000356261)
(0.0054794 0.00150948 0.000192477)
(0.00524052 -0.000216088 -7.82698e-05)
(0.00524683 -0.00196862 -0.000358547)
(0.00545451 -0.00413559 -0.00054562)
(0.00860498 0.00416163 0.000202804)
(0.00816672 0.0017615 0.000109209)
(0.00793238 -0.000340092 -6.97434e-05)
(0.00788635 -0.00246665 -0.000256669)
(0.00797791 -0.00494524 -0.000368327)
(0.0114281 0.00448736 4.47186e-05)
(0.0110483 0.00187521 2.52319e-05)
(0.010821 -0.00048597 -6.07658e-05)
(0.0107337 -0.0028667 -0.000153325)
(0.0107358 -0.00553867 -0.000186182)
(0.0143323 0.00460852 -9.33449e-05)
(0.014002 0.00188208 -4.81966e-05)
(0.0137833 -0.000643155 -5.45674e-05)
(0.0136681 -0.00318107 -6.54003e-05)
(0.0136089 -0.00594781 -2.8709e-05)
(0.0172373 0.00459692 -0.000194238)
(0.0169357 0.0018162 -0.000104937)
(0.0167202 -0.000801172 -5.30869e-05)
(0.016593 -0.00342532 -3.34284e-06)
(0.0165082 -0.00622549 8.28647e-05)
(0.0201365 0.00452387 -0.000243106)
(0.0198028 0.00172515 -0.000135227)
(0.0195417 -0.000945115 -5.5107e-05)
(0.0194391 -0.00362754 2.2007e-05)
(0.0193825 -0.0064417 0.000127633)
(0 0 0)
(0 0 0)
(0 0 0)
(0 0 0)
(0 0 0)
(0.00200343 0.00171158 0.000257087)
(0.00130434 0.000524389 0.000146732)
(0.00109953 -5.2735e-05 -4.80655e-05)
(0.00121383 -0.000643947 -0.000257367)
(0.00172657 -0.0019145 -0.000388378)
(0.0038093 0.00270336 0.0002683)
(0.00323958 0.00109061 0.000142942)
(0.00299082 -0.000126811 -6.60614e-05)
(0.00306942 -0.00136854 -0.000283843)
(0.00340964 -0.00306556 -0.000424357)
(0.00609615 0.00355482 0.000214487)
(0.0055795 0.00149935 0.000107929)
(0.0053343 -0.000223599 -6.71922e-05)
(0.00534411 -0.00197345 -0.000248578)
(0.0055613 -0.00411699 -0.000365728)
(0.00867562 0.00412925 0.000122791)
(0.00823032 0.00175551 5.66211e-05)
(0.00799107 -0.000344507 -6.17462e-05)
(0.00794326 -0.00246903 -0.000184784)
(0.00803823 -0.00491807 -0.000256684)
(0.0114468 0.00446095 2.18046e-05)
(0.0110648 0.0018759 2.11387e-06)
(0.010834 -0.000483951 -5.52906e-05)
(0.0107415 -0.00286234 -0.000115925)
(0.0107413 -0.00550351 -0.000137389)
(0.0143023 0.00459385 -6.99372e-05)
(0.0139723 0.00188982 -4.71944e-05)
(0.0137518 -0.000633617 -5.11571e-05)
(0.0136298 -0.00316797 -5.66938e-05)
(0.0135651 -0.00590835 -3.23585e-05)
(0.0171694 0.00459841 -0.000139485)
(0.0168701 0.00183038 -8.64335e-05)
(0.0166548 -0.00078513 -5.21425e-05)
(0.0165207 -0.00340465 -1.78693e-05)
(0.0164283 -0.00618664 4.0304e-05)
(0.0200511 0.00453768 -0.000172987)
(0.0197217 0.00174426 -0.00010859)
(0.0194619 -0.000924936 -6.04266e-05)
(0.0193503 -0.00360211 -1.37808e-05)
(0.0192835 -0.00640342 5.55352e-05)
(0 0 0)
(0 0 0)
(0 0 0)
(0 0 0)
(0 0 0)
(0.00205986 0.00172783 0.000130214)
(0.00133135 0.000524214 7.33397e-05)
(0.00111627 -5.18364e-05 -3.60129e-05)
(0.00123923 -0.00064243 -0.000154411)
(0.00177501 -0.00193588 -0.000223562)
(0.00387858 0.00268996 0.000139666)
(0.00328319 0.00108161 7.21915e-05)
(0.00302224 -0.000125224 -5.10966e-05)
(0.00311189 -0.00135698 -0.000179888)
(0.00347566 -0.00305232 -0.000255619)
(0.00615779 0.00352492 0.000111015)
(0.00562196 0.00148666 5.20826e-05)
(0.00536696 -0.000220866 -5.39686e-05)
(0.00538383 -0.00195545 -0.000163571)
(0.00561923 -0.00408145 -0.000227331)
(0.00871452 0.00409353 5.82881e-05)
(0.00825727 0.00174327 2.12908e-05)
(0.00801056 -0.000338759 -5.12206e-05)
(0.00796582 -0.00244499 -0.000125939)
(0.00807187 -0.00486916 -0.000164311)
(0.0114566 0.00442857 -2.80853e-06)
(0.0110683 0.00186831 -1.26131e-05)
(0.0108321 -0.000473547 -4.72307e-05)
(0.0107397 -0.00283323 -8.28604e-05)
(0.0107443 -0.00544762 -9.10724e-05)
(0.0142831 0.00457221 -6.06233e-05)
(0.013951 0.00188969 -4.45805e-05)
(0.0137269 -0.000617853 -4.52186e-05)
(0.013603 -0.003135 -4.56296e-05)
(0.0135382 -0.00585121 -2.53914e-05)
(0.0171265 0.00459258 -0.000106709)
(0.0168286 0.00183883 -7.15195e-05)
(0.0166111 -0.000764501 -4.83762e-05)
(0.0164735 -0.00336968 -2.39805e-05)
(0.0163765 -0.00613286 1.81396e-05)
(0.0199954 0.00454627 -0.000130126)
(0.0196691 0.00176078 -8.8703e-05)
(0.0194068 -0.000901159 -5.99315e-05)
(0.0192892 -0.00356813 -3.11824e-05)
(0.0192143 -0.0063552 1.69982e-05)
(0 0 0)
(0 0 0)
(0 0 0)
(0 0 0)
(0 0 0)
(0.0020854 0.00173597 6.22652e-05)
(0.00133782 0.000525096 3.44726e-05)
(0.00111565 -5.01692e-05 -2.56139e-05)
(0.00124351 -0.000640371 -9.08771e-05)
(0.00179447 -0.00194377 -0.000125321)
(0.00390924 0.0026829 6.60153e-05)
(0.00329536 0.00107786 3.2568e-05)
(0.00302607 -0.00012088 -3.74688e-05)
(0.00312201 -0.00134481 -0.000110699)
(0.00350218 -0.00303831 -0.000148176)
(0.00618508 0.00350709 4.887e-05)
(0.00563351 0.00147992 2.00998e-05)
(0.00537136 -0.000213793 -4.08383e-05)
(0.00539324 -0.00193457 -0.000103617)
(0.00564297 -0.00404977 -0.000134075)
(0.0087306 0.00407055 1.80764e-05)
(0.00826193 0.00173632 1.4229e-06)
(0.00800964 -0.000328518 -3.98644e-05)
(0.00796804 -0.00241731 -8.20188e-05)
(0.00808441 -0.00482504 -9.81059e-05)
(0.0114572 0.00440689 -1.83731e-05)
(0.0110616 0.00186424 -1.9517e-05)
(0.0108213 -0.00045957 -3.78066e-05)
(0.0107303 -0.00280074 -5.60953e-05)
(0.010741 -0.00539661 -5.46496e-05)
(0.0142674 0.00455714 -5.42491e-05)
(0.0139313 0.00189091 -4.01259e-05)
(0.0137044 -0.000599896 -3.74594e-05)
(0.0135804 -0.00309951 -3.39214e-05)
(0.0135179 -0.00579785 -1.53609e-05)
(0.0170962 0.00458758 -8.45485e-05)
(0.016797 0.00184639 -5.87241e-05)
(0.0165775 -0.000742956 -4.17873e-05)
(0.0164385 -0.0033329 -2.33112e-05)
(0.0163404 -0.00608063 8.85108e-06)
(0.0199552 0.00455059 -0.000100826)
(0.0196284 0.00177438 -7.19448e-05)
(0.0193634 -0.000876984 -5.38954e-05)
(0.0192428 -0.0035319 -3.52228e-05)
(0.0191649 -0.00630593 -1.4083e-07)
(0 0 0)
(0 0 0)
(0 0 0)
(0 0 0)
(0 0 0)
(0.00209578 0.00173953 2.75818e-05)
(0.0013369 0.000526157 1.48837e-05)
(0.00111021 -4.83134e-05 -1.71369e-05)
(0.00124067 -0.000637936 -5.19369e-05)
(0.00180049 -0.00194454 -6.80063e-05)
(0.00392049 0.00267948 2.74442e-05)
(0.00329459 0.00107729 1.23613e-05)
(0.00301986 -0.000115931 -2.58122e-05)
(0.00311923 -0.00133448 -6.57193e-05)
(0.00350979 -0.00302586 -8.25594e-05)
(0.00619391 0.00349835 1.63577e-05)
(0.00563141 0.00147815 4.28538e-06)
(0.00536447 -0.000205821 -2.88761e-05)
(0.00538939 -0.00191688 -6.28978e-05)
(0.00564868 -0.00402548 -7.52162e-05)
(0.00873356 0.00405897 -1.97772e-06)
(0.00825631 0.00173471 -7.1341e-06)
(0.00800018 -0.000317583 -2.88617e-05)
(0.00796083 -0.0023937 -5.08069e-05)
(0.00808462 -0.00479144 -5.48126e-05)
(0.0114521 0.00439587 -2.36783e-05)
(0.0110504 0.00186453 -1.99982e-05)
(0.0108071 -0.000445625 -2.80684e-05)
(0.0107175 -0.00277286 -3.57827e-05)
(0.0107331 -0.00535699 -2.96666e-05)
(0.0142531 0.0045497 -4.57274e-05)
(0.0139131 0.00189457 -3.31542e-05)
(0.0136841 -0.000583002 -2.86756e-05)
(0.0135605 -0.00306888 -2.32733e-05)
(0.0135004 -0.00575517 -7.05505e-06)
(0.0170726 0.00458568 -6.53859e-05)
(0.0167713 0.00185405 -4.58099e-05)
(0.0165503 -0.000723481 -3.30611e-05)
(0.0164108 -0.00330085 -1.89747e-05)
(0.0163131 -0.00603723 5.48343e-06)
(0.019924 0.00455414 -7.6797e-05)
(0.0195953 0.00178601 -5.57965e-05)
(0.0193282 -0.000855492 -4.36966e-05)
(0.0192064 -0.00349975 -3.08926e-05)
(0.0191278 -0.00626349 -5.12529e-06)
(0 0 0)
(0 0 0)
(0 0 0)
(0 0 0)
(0 0 0)
(0.00209942 0.00174091 1.09615e-05)
(0.00133419 0.000527082 5.67673e-06)
(0.00110477 -4.67329e-05 -1.03785e-05)
(0.00123653 -0.000635791 -2.78149e-05)
(0.00180119 -0.00194273 -3.46684e-05)
(0.0039233 0.00267796 9.39482e-06)
(0.00329008 0.00107804 3.38613e-06)
(0.00301198 -0.000111705 -1.60277e-05)
(0.00311317 -0.00132683 -3.63081e-05)
(0.00350986 -0.00301627 -4.29593e-05)
(0.00619473 0.00349471 2.4304e-06)
(0.00562528 0.00147883 -1.62415e-06)
(0.00535528 -0.000199016 -1.82977e-05)
(0.00538194 -0.00190399 -3.53235e-05)
(0.00564707 -0.00400853 -3.91214e-05)
(0.0087311 0.00405423 -8.12369e-06)
(0.0082481 0.00173588 -8.29752e-06)
(0.00798948 -0.000308385 -1.86286e-05)
(0.00795152 -0.00237644 -2.89299e-05)
(0.00808005 -0.00476835 -2.80445e-05)
(0.0114452 0.00439156 -2.04889e-05)
(0.0110392 0.00186702 -1.58004e-05)
(0.0107941 -0.000434174 -1.84842e-05)
(0.0107053 -0.00275231 -2.07982e-05)
(0.0107243 -0.00532943 -1.43067e-05)
(0.014241 0.00454722 -3.33342e-05)
(0.013898 0.00189909 -2.37026e-05)
(0.0136677 -0.000569476 -1.93415e-05)
(0.0135445 -0.00304607 -1.42765e-05)
(0.0134863 -0.00572481 -2.13098e-06)
(0.0170548 0.00458599 -4.52776e-05)
(0.0167516 0.0018609 -3.16886e-05)
(0.0165295 -0.000708193 -2.28299e-05)
(0.01639 -0.0032767 -1.30338e-05)
(0.016293 -0.00600551 3.793e-06)
(0.0199009 0.00455728 -5.27216e-05)
(0.0195703 0.00179517 -3.85094e-05)
(0.0193015 -0.000838791 -3.06206e-05)
(0.0191793 -0.00347512 -2.21962e-05)
(0.0191011 -0.00623161 -4.83988e-06)
(0 0 0)
(0 0 0)
(0 0 0)
(0 0 0)
(0 0 0)
(0.00210041 0.00174135 3.55627e-06)
(0.00133199 0.000527695 1.74119e-06)
(0.00110111 -4.56973e-05 -4.86599e-06)
(0.00123347 -0.000634361 -1.20339e-05)
(0.00180047 -0.00194086 -1.44472e-05)
(0.00392328 0.00267736 2.33397e-06)
(0.00328616 0.00107889 4.05847e-07)
(0.00300623 -0.000108934 -7.64377e-06)
(0.00310828 -0.00132218 -1.60455e-05)
(0.00350816 -0.00301026 -1.81492e-05)
(0.00619335 0.00349347 -1.08562e-06)
(0.00562009 0.00147998 -2.02579e-06)
(0.0053484 -0.000194544 -8.84184e-06)
(0.00537593 -0.00189623 -1.57726e-05)
(0.00564417 -0.00399854 -1.64693e-05)
(0.00872796 0.00405274 -5.9684e-06)
(0.00824171 0.00173753 -5.13456e-06)
(0.00798169 -0.000302366 -9.10933e-06)
(0.00794446 -0.00236604 -1.30222e-05)
(0.00807557 -0.00475489 -1.158e-05)
(0.0114399 0.00439039 -1.16328e-05)
(0.0110313 0.00186948 -8.61856e-06)
(0.0107851 -0.000426753 -9.15728e-06)
(0.0106969 -0.00273986 -9.47763e-06)
(0.0107177 -0.00531328 -5.5175e-06)
(0.0142329 0.00454692 -1.75928e-05)
(0.0138881 0.00190265 -1.23546e-05)
(0.013657 -0.000560806 -9.72826e-06)
(0.0135341 -0.00303215 -6.7307e-06)
(0.0134771 -0.00570678 -2.21379e-07)
(0.0170435 0.00458692 -2.32793e-05)
(0.016739 0.00186565 -1.62453e-05)
(0.0165163 -0.000698481 -1.16449e-05)
(0.0163769 -0.00326185 -6.57067e-06)
(0.0162805 -0.00598636 2.06136e-06)
(0.0198865 0.00455945 -2.70003e-05)
(0.0195545 0.00180107 -1.97323e-05)
(0.0192847 -0.000828228 -1.57428e-05)
(0.0191624 -0.0034598 -1.14766e-05)
(0.0190848 -0.00621204 -2.66802e-06)
(0 0 0)
(0 0 0)
(0 0 0)
(0 0 0)
(0 0 0)
(0.00210056 0.00174145 -0)
(0.00133118 0.000527909 -0)
(0.00109984 -4.53389e-05 0)
(0.00123237 -0.000633862 0)
(0.00180007 -0.00194011 0)
(0.00392301 0.0026772 -0)
(0.00328468 0.00107924 -0)
(0.00300417 -0.000107975 0)
(0.00310647 -0.00132062 0)
(0.00350734 -0.00300821 0)
(0.0061926 0.0034932 -0)
(0.00561813 0.00148049 0)
(0.0053459 -0.000192994 0)
(0.00537369 -0.00189364 0)
(0.00564291 -0.00399523 0)
(0.00872664 0.00405246 -0)
(0.00823935 0.00173823 -0)
(0.00797888 -0.000300282 0)
(0.00794187 -0.00236258 0)
(0.0080738 -0.00475047 0)
(0.0114379 0.00439023 -0)
(0.0110285 0.00187046 -0)
(0.0107819 -0.000424191 0)
(0.0106939 -0.0027357 0)
(0.0107153 -0.00530796 0)
(0.0142301 0.00454701 -0)
(0.0138846 0.00190397 0)
(0.0136532 -0.000557825 0)
(0.0135305 -0.00302748 0)
(0.0134738 -0.00570081 0)
(0.0170396 0.00458734 -0)
(0.0167347 0.00186734 0)
(0.0165118 -0.000695151 0)
(0.0163723 -0.00325684 0)
(0.0162762 -0.00597996 0)
(0.0198815 0.00456019 -0)
(0.019549 0.0018031 -0)
(0.0192789 -0.000824608 0)
(0.0191567 -0.0034546 0)
(0.0190792 -0.00620545 0)
)
;

boundaryField
{
    interface
    {
        type            calculated;
    }
    symmetry
    {
        type            symmetryPlane;
    }
    bottom
    {
        type            fixedValue;
        value           uniform (0 0 0);
    }
}


// ************************************************************************* //
