/*--------------------------------*- C++ -*----------------------------------*\
| =========                 |                                                 |
| \\      /  F ield         | foam-extend: Open Source CFD                    |
|  \\    /   O peration     | Version:     3.1                                |
|   \\  /    A nd           | Web:         http://www.extend-project.de       |
|    \\/     M anipulation  |                                                 |
\*---------------------------------------------------------------------------*/
FoamFile
{
    version     2.0;
    format      ascii;
    class       volScalarField;
    location    "1.2";
    object      sigmaCauchyEq;
}
// * * * * * * * * * * * * * * * * * * * * * * * * * * * * * * * * * * * * * //

dimensions      [1 -1 -2 0 0 0 0];

internalField   nonuniform List<scalar> 
256
(
568.24
211.879
202.642
386.102
377.547
269.581
245.973
322.004
343.795
255.566
235.306
281.575
263.121
226.696
211.75
217.891
192.981
190.597
180.101
158.371
132.536
149.714
143.115
106.522
88.5448
106.724
102.202
67.2366
69.8722
65.2976
54.846
45.9323
557.138
244.684
226.093
374.889
398.154
284.62
261.107
337.497
339.792
243.951
224.401
280.854
258.115
206.45
190.326
212.472
185.283
167.268
155.39
149.314
124.943
128.279
120.589
96.8643
82.1419
90.2312
85.3602
58.9824
66.4745
57.2697
46.2711
40.83
564.48
255.138
231.486
371.028
394.475
289.084
264.535
333.2
338.534
244.544
224.03
277.956
257.102
202.735
185.338
209.083
184.795
161.869
148.604
145.896
124.845
122.819
114.014
93.7502
82.1119
86.1989
80.6668
56.1771
65.9124
56.397
43.9209
36.4221
569.607
258.023
231.795
369.347
392.79
291.624
265.724
330.102
338.046
246.754
225.006
275.385
257.558
204.055
185.377
206.872
186.042
162.559
148.032
143.974
126.581
123.203
113.336
92.1573
83.8612
86.6857
80.3894
54.7985
67.1719
57.5928
43.836
34.675
572.163
258.208
230.576
368.204
392.771
292.874
265.772
328.541
338.526
248.703
225.849
273.892
258.714
206.203
186.478
205.62
187.786
164.649
149.153
142.955
128.629
125.078
114.391
91.3405
85.8162
88.2892
81.3764
54.1359
68.7902
59.0718
44.399
34.1814
573.229
257.612
229.159
367.272
393.265
293.368
265.316
327.664
339.341
250.028
226.285
273.052
259.93
207.965
187.443
204.931
189.32
166.544
150.353
142.403
130.292
126.852
115.598
90.903
87.3537
89.7605
82.4204
53.7883
70.1699
60.2448
44.9186
34.0636
573.601
256.994
228.062
366.59
393.751
293.506
264.799
327.144
340.058
250.796
226.429
272.579
260.865
209.103
188.04
204.555
190.396
167.823
151.182
142.101
131.397
128.068
116.46
90.6662
88.3586
90.7557
83.1459
53.6035
71.1138
61.0079
45.2418
34.0258
573.7
256.639
227.482
366.229
394.027
293.523
264.482
326.889
340.459
251.14
226.452
272.358
261.361
209.645
188.307
204.383
190.94
168.447
151.583
141.963
131.938
128.665
116.885
90.5587
88.8428
91.2414
83.498
53.5181
71.5777
61.3791
45.3845
34.0033
)
;

boundaryField
{
    interface
    {
        type            calculated;
        value           nonuniform List<scalar> 
192
(
900.654
451.647
430.671
311.333
216.814
137.937
88.9963
66.8027
870.752
482.537
429.576
314.808
218.449
140.695
91.9165
69.6009
882.618
471.378
425.464
312.851
217.93
141.081
92.2604
67.0492
892.509
465.744
422.854
312.057
218.723
142.956
94.5701
68.1584
898.035
464.024
422.252
312.375
220.053
144.939
96.7682
69.6688
900.726
463.862
422.65
313.202
221.365
146.555
98.4434
71.0522
901.9
464.119
423.246
313.991
222.344
147.635
99.5159
71.9984
902.319
464.325
423.623
314.443
222.852
148.164
100.02
72.4469
605.578
350.633
350.386
268.342
201.479
141.031
96.0207
75.4314
188.972
253.967
266.478
242.621
208.568
165.933
119.262
73.4811
194.736
225.933
245.715
228.143
198.765
159.869
114.916
62.5122
494.655
288.645
291.563
224.527
168.796
116.749
76.047
51.9763
659.306
364.079
347.626
252.612
173.562
104.385
58.4474
41.9378
635.446
395.837
348.652
255.12
172.87
104.202
58.5093
42.3772
642.239
386.927
344.532
251.914
170.065
101.944
56.0329
35.652
648.385
381.631
341.089
249.002
167.66
99.9492
54.1528
33.3345
651.564
379.432
339.34
247.228
166.083
98.4716
52.7226
32.459
652.811
378.538
338.558
246.293
165.135
97.4902
51.7368
32.1673
653.135
378.147
338.214
245.829
164.606
96.9011
51.1313
32.032
653.156
377.985
338.077
245.633
164.365
96.6245
50.8491
31.9619
72.8426
70.1301
70.0774
71.0695
72.6009
73.9339
74.873
75.3146
51.2446
47.8033
48.6791
50.4355
52.0085
53.1501
53.8753
54.234
27.7087
22.7391
20.1544
19.3159
19.146
18.9821
18.7753
18.6262
48.5002
43.3687
38.2358
36.046
35.6534
35.6845
35.759
35.7849
)
;
    }
    symmetry
    {
        type            symmetryPlane;
    }
    bottom
    {
        type            calculated;
        value           nonuniform List<scalar> 
32
(
502.233
434.795
429.862
432.262
434.058
434.835
435.061
435.088
136.21
156.687
161.171
160.229
158.18
156.338
155.067
154.431
159.299
156.238
151.521
146.552
142.74
140.13
138.523
137.758
400
325.543
302.398
294.997
292.227
290.895
290.148
289.788
)
;
    }
}


// ************************************************************************* //
