/*--------------------------------*- C++ -*----------------------------------*\
| =========                 |                                                 |
| \\      /  F ield         | foam-extend: Open Source CFD                    |
|  \\    /   O peration     | Version:     3.1                                |
|   \\  /    A nd           | Web:         http://www.extend-project.de       |
|    \\/     M anipulation  |                                                 |
\*---------------------------------------------------------------------------*/
FoamFile
{
    version     2.0;
    format      ascii;
    class       volScalarField;
    location    "1.2";
    object      sigmaEq;
}
// * * * * * * * * * * * * * * * * * * * * * * * * * * * * * * * * * * * * * //

dimensions      [1 -1 -2 0 0 0 0];

internalField   nonuniform List<scalar> 
256
(
484.566
205.611
213.995
480.237
365.778
266.533
251.047
334.733
328.163
253.559
239.905
298.162
256
225.89
214.697
225.814
189.927
190.539
181.867
162.222
131.961
150.136
143.992
107.861
88.865
107.306
102.535
67.4967
70.6763
66.028
54.7387
45.7521
476.674
237.008
237.644
460.883
379.523
278.871
270.464
359.628
323.861
241.213
229.979
298.317
250.222
204.948
193.889
221.294
181.968
166.736
157.385
153.357
124.173
128.345
121.564
98.3111
82.3387
90.5914
85.7204
59.3095
67.1391
57.8327
46.2307
40.7533
481.596
246.797
243.634
458.623
377.254
283.319
274.297
354.609
323.231
241.959
229.711
295.293
249.57
201.379
188.869
217.861
181.676
161.414
150.566
149.881
124.14
122.897
114.976
95.1757
82.2996
86.5314
81.034
56.5122
66.5694
56.9307
43.8993
36.338
485.193
249.478
244.136
458.027
376.761
286.005
275.408
350.391
323.438
244.367
230.563
292.116
250.424
202.854
188.811
215.334
183.087
162.191
149.943
147.813
125.907
123.311
114.282
93.5292
84.019
87.0168
80.763
55.1257
67.796
58.1303
43.8303
34.6048
487.03
249.615
242.901
457.187
377.454
287.352
275.291
348.001
324.411
246.434
231.257
290.046
251.882
205.088
189.813
213.753
184.961
164.329
151.011
146.637
127.989
125.202
115.318
92.6483
85.9665
88.6234
81.7503
54.4448
69.4099
59.622
44.3982
34.1134
487.804
249.018
241.399
456.17
378.322
287.897
274.676
346.591
325.506
247.816
231.566
288.79
253.279
206.89
190.695
212.81
186.58
166.245
152.165
145.955
129.68
126.983
116.504
92.1538
87.5074
90.0985
82.7894
54.0775
70.7955
60.8068
44.9175
33.9933
488.077
248.407
240.219
455.301
378.99
288.057
274.042
345.756
326.362
248.607
231.622
288.059
254.31
208.042
191.232
212.27
187.704
167.531
152.959
145.565
130.805
128.202
117.349
91.8761
88.5193
91.0965
83.5087
53.8769
71.7483
61.578
45.2385
33.9516
488.15
248.056
239.592
454.812
379.338
288.081
273.664
345.356
326.817
248.957
231.599
287.716
254.845
208.589
191.469
212.019
188.27
168.157
153.341
145.383
131.356
128.8
117.765
91.7475
89.0083
91.5835
83.8568
53.7828
72.2177
61.9533
45.3796
33.9267
)
;

boundaryField
{
    interface
    {
        type            calculated;
        value           nonuniform List<scalar> 
192
(
788.885
421.081
403.392
297.5
210.821
136.224
88.8535
67.0354
768.698
448.575
403.04
301.196
212.736
139.138
91.8698
69.8637
780.415
440.21
400.367
299.962
212.523
139.595
92.1825
67.2515
789.695
436.551
399.074
299.854
213.593
141.531
94.4614
68.2955
794.919
435.93
399.321
300.653
215.124
143.564
96.6474
69.7687
797.542
436.338
400.189
301.763
216.564
145.22
98.326
71.1385
798.742
436.869
401.017
302.7
217.615
146.328
99.4069
72.0825
799.192
437.184
401.485
303.212
218.156
146.871
99.9164
72.5313
549.158
342.406
337.583
262.661
199.154
140.831
96.57
76.3731
184.715
252.468
265.081
242.372
208.933
166.669
120.039
74.2635
203.017
228.6
249.437
230.619
200.365
160.697
115.246
62.4267
553.807
296.72
304.936
231.145
172.147
117.895
76.2076
51.7284
765.282
393.082
373.696
265.693
179.385
106.293
58.8753
41.9672
730.317
431.337
375.537
268.946
178.975
106.31
59.0739
42.4773
735.85
420.298
370.588
265.424
176.032
104.008
56.584
35.7238
741.584
413.004
365.921
261.928
173.367
101.907
54.6608
33.404
744.365
409.489
363.193
259.618
171.538
100.322
53.1874
32.5269
745.203
407.792
361.755
258.292
170.394
99.2527
52.1657
32.2309
745.195
406.946
361.021
257.585
169.735
98.6028
51.5348
32.0906
745.033
406.579
360.703
257.274
169.43
98.2957
51.2395
32.0176
73.9614
71.1081
70.9956
71.9512
73.4785
74.8223
75.7746
76.2255
51.8444
48.3015
49.167
50.9366
52.5253
53.679
54.412
54.774
27.6686
22.7192
20.1441
19.3134
19.1475
18.9861
18.7813
18.6332
48.2091
43.1516
38.0306
35.8699
35.4933
35.5293
35.6038
35.6289
)
;
    }
    symmetry
    {
        type            symmetryPlane;
    }
    bottom
    {
        type            calculated;
        value           nonuniform List<scalar> 
32
(
435.702
379.235
373.665
374.888
375.991
376.436
376.524
376.506
132.456
152.358
156.487
155.448
153.39
151.562
150.305
149.678
167.03
163.134
158.404
153.33
149.398
146.686
145.009
144.208
477.396
385.407
360.415
353.033
350.403
349.097
348.305
347.903
)
;
    }
}


// ************************************************************************* //
