/*--------------------------------*- C++ -*----------------------------------*\
| =========                 |                                                 |
| \\      /  F ield         | foam-extend: Open Source CFD                    |
|  \\    /   O peration     | Version:     3.1                                |
|   \\  /    A nd           | Web:         http://www.extend-project.de       |
|    \\/     M anipulation  |                                                 |
\*---------------------------------------------------------------------------*/
FoamFile
{
    version     2.0;
    format      ascii;
    class       volSymmTensorField;
    location    "1.2";
    object      sigma;
}
// * * * * * * * * * * * * * * * * * * * * * * * * * * * * * * * * * * * * * //

dimensions      [1 -1 -2 0 0 0 0];

internalField   nonuniform List<symmTensor> 
256
(
(348.408 118.952 -5.77321 796.478 66.0308 403.326)
(42.4319 99.0717 -16.6654 153.35 20.2175 58.6023)
(-122.028 92.756 -17.4532 -244.488 -37.1762 -122.632)
(-418.803 100.671 -6.95171 -855.555 -86.4927 -451.244)
(-143.591 48.9813 -7.16366 250.661 -14.8142 -42.4214)
(-57.3969 130.567 -26.4769 90.9225 -6.50813 -17.4098)
(4.87248 127.741 -27.8743 -106.414 6.66078 -2.61524)
(88.7694 45.9649 -9.40898 -262.363 15.6289 23.8321)
(-48.5337 60.5065 -3.71751 297.962 -6.68657 44.1672)
(-57.3295 127.288 -18.2107 80.1935 -2.25085 -10.7279)
(-6.55003 127.429 -18.832 -99.1108 2.23283 -16.2861)
(-9.16781 61.3235 -4.96351 -310.667 7.19159 -63.9291)
(-67.4112 53.3686 -3.61339 200.384 -12.103 14.2626)
(-55.0157 116.788 -14.6129 56.0182 -3.38869 -13.1512)
(-2.79457 117.326 -15.1566 -69.4034 4.03324 -9.01489)
(16.179 54.4487 -5.05049 -206.08 13.3755 -28.3506)
(-58.6478 46.5866 -2.782 135.917 -11.5475 11.3148)
(-48.1367 100.743 -11.2323 36.8594 -3.06193 -11.3393)
(-3.9994 101.359 -11.7878 -48.6966 3.57782 -8.99976)
(11.3577 47.8002 -4.17286 -140.638 12.5284 -24.5028)
(-56.9834 36.1539 -2.65257 75.3185 -10.1622 3.36869)
(-43.1053 80.3634 -9.01407 19.0689 -2.72043 -11.1202)
(-3.91441 81.2398 -9.48806 -31.1319 3.05119 -8.55739)
(13.162 37.7971 -3.84449 -81.0515 10.9568 -17.0219)
(-53.9795 23.4051 -3.07076 34.9739 -7.85979 0.765637)
(-40.1513 57.0258 -7.53341 5.03601 -2.44842 -11.3047)
(-3.38984 58.1218 -7.74751 -18.8798 2.28415 -9.32961)
(14.707 25.9103 -3.70556 -40.6029 8.23256 -14.6392)
(-67.7597 11.3128 -3.53117 5.4351 -3.36651 -8.32192)
(-56.0694 29.8861 -6.10525 -12.6318 -1.1127 -22.1239)
(10.0302 29.9813 -6.23856 -3.64005 0.813886 -3.19147)
(28.0451 11.7204 -3.76755 -13.837 3.10006 -10.0467)
(347.345 138.654 -4.30191 782.772 42.2222 416.929)
(50.8952 123.906 -13.8862 154.803 11.3187 70.38)
(-110.516 118.538 -15.0742 -218.858 -27.5652 -114.13)
(-401.386 120.909 -6.26173 -817.685 -61.7862 -445.197)
(-84.0365 52.9603 -7.28376 328.106 -0.671121 32.2193)
(-20.6837 138.777 -26.0145 129.36 -2.17388 21.7402)
(-44.1815 137.011 -27.9309 -167.938 -1.31398 -51.2602)
(15.1644 51.6978 -10.4202 -363.65 -2.20298 -58.7051)
(-40.7876 55.1715 -4.95578 303.863 -10.2955 52.3258)
(-40.7314 119.993 -21.1295 91.5304 -3.42125 3.16852)
(-22.5804 119.875 -22.4997 -115.263 4.64602 -27.039)
(-17.6686 55.2047 -7.8252 -320.97 12.1983 -68.1935)
(-51.8402 45.94 -2.9055 213.67 -15.0957 28.9675)
(-38.4744 104.109 -15.2505 68.1281 -4.09954 0.112787)
(-18.5468 104.295 -16.6172 -82.5538 6.91365 -20.2799)
(-1.20005 46.4939 -6.08547 -221.658 18.736 -41.6401)
(-49.1679 38.038 -0.912784 141.576 -15.7981 19.1325)
(-35.7766 86.5511 -10.337 45.1079 -4.04623 -2.47733)
(-14.5661 86.8637 -11.7042 -54.5111 7.24897 -15.3383)
(0.739992 38.8424 -4.08638 -145.556 19.7306 -30.9072)
(-48.7616 28.5225 0.284954 79.6865 -13.8591 10.2088)
(-33.3453 67.6559 -6.68501 25.2 -3.43532 -4.58035)
(-11.6625 68.3358 -7.90381 -33.4476 6.44937 -12.5417)
(3.87055 30.0128 -2.57267 -83.4692 17.6018 -22.7037)
(-48.0217 17.5728 0.666962 37.0875 -10.0129 5.41639)
(-33.5926 47.6073 -4.27283 8.18607 -2.52286 -7.75671)
(-8.13947 48.6905 -5.17713 -18.3418 4.85945 -10.7157)
(8.4413 20.3491 -1.45701 -39.788 13.1695 -17.7066)
(-61.5409 8.84261 0.482864 8.86424 -4.32517 -4.00885)
(-50.9894 25.5555 -2.92751 -10.1288 -0.953874 -20.3249)
(5.08665 25.7062 -3.78384 -4.20817 2.36606 -5.06575)
(21.1324 9.52742 -1.21554 -15.014 6.16814 -13.9709)
(361.698 146.579 -3.0369 804.816 22.4477 446.603)
(55.3023 130.951 -9.30057 160.885 4.95579 80.3437)
(-112.626 125.578 -10.2099 -220.92 -17.5742 -121.91)
(-417.643 128.101 -4.48522 -839.743 -37.1751 -476.139)
(-84.7313 54.723 -5.96538 330.125 0.853282 58.2917)
(-18.5278 142.886 -18.4925 134.003 -1.27154 34.4915)
(-49.062 141.404 -19.9977 -175.22 -2.18513 -66.2859)
(10.9039 53.6255 -8.33746 -369.888 -3.67552 -89.3846)
(-40.8801 55.0901 -5.00404 307.955 -6.55887 71.0497)
(-40.5085 120.769 -16.5434 94.7439 -2.23159 11.8696)
(-25.7445 120.634 -17.6578 -121.05 3.37837 -36.9679)
(-22.1523 54.76 -7.02199 -329.055 8.32773 -90.7257)
(-52.2712 44.8378 -3.33403 216.279 -10.7244 39.7401)
(-38.3193 101.753 -12.5042 70.6229 -2.76723 6.18852)
(-21.4001 101.904 -13.5392 -85.6866 6.13201 -26.0527)
(-6.07531 45.3058 -5.32067 -227.748 14.7607 -55.9771)
(-51.0611 36.1803 -1.64229 142.581 -11.7873 22.7072)
(-35.8256 82.8983 -8.38954 47.332 -2.72064 1.45703)
(-17.1368 83.2445 -9.37082 -56.0208 6.9784 -18.2043)
(-2.52176 37.0686 -3.52617 -148.636 16.6551 -37.3626)
(-51.1596 26.5416 -0.392762 80.1434 -10.565 8.85495)
(-33.4199 63.9141 -5.0938 27.1935 -2.2108 -2.30086)
(-13.7687 64.7494 -5.93609 -33.6231 6.56073 -13.1368)
(1.65707 28.3782 -2.01093 -84.6223 15.5036 -23.4233)
(-50.0348 15.7873 0.21155 37.8755 -7.6929 1.10784)
(-33.4701 44.7571 -2.92957 10.0446 -1.46474 -6.63689)
(-9.59938 46.1318 -3.57005 -17.5621 5.12066 -9.38306)
(7.34559 19.2234 -0.967754 -39.4861 12.0052 -13.8529)
(-64.0531 8.16367 0.0336407 8.26918 -3.24143 -11.2447)
(-50.4723 24.4096 -2.28705 -8.18021 -0.426251 -19.533)
(4.57318 24.7865 -3.00376 -2.31948 2.36922 -0.995591)
(23.0774 9.29524 -1.07264 -11.0743 5.51726 -3.57574)
(369.543 149.647 -1.90173 818.371 11.1278 464.49)
(57.0236 132.763 -5.8424 164.268 1.75118 85.6703)
(-114.605 127.236 -6.43418 -223.311 -10.8319 -127.77)
(-427.536 130.565 -2.84298 -854.015 -21.4008 -496.43)
(-86.5728 55.4051 -4.00833 330.623 0.497462 75.638)
(-19.0866 144.996 -12.1796 135.775 -0.8968 41.2308)
(-50.1857 143.615 -13.1901 -176.523 -1.8248 -74.9957)
(10.2142 54.3707 -5.61634 -370.826 -2.73617 -110.345)
(-41.7328 55.7766 -3.78028 310.271 -3.81862 86.7004)
(-42.0942 122.365 -11.735 95.8927 -1.24548 17.0361)
(-26.4366 122.292 -12.4924 -122.224 2.27161 -43.8606)
(-23.5268 55.4359 -5.12399 -331.741 5.29861 -109.063)
(-53.3282 45.1289 -2.78514 218.537 -6.49996 50.678)
(-39.8686 102.476 -9.33903 71.7442 -1.42956 10.0144)
(-22.3035 102.69 -9.98437 -86.4642 4.63176 -30.6605)
(-7.34819 45.6664 -4.00415 -230.182 10.166 -68.635)
(-52.0388 36.1506 -1.59354 145.01 -7.38678 28.9388)
(-37.1878 82.9585 -6.48026 48.6436 -1.32652 3.98335)
(-18.1629 83.4068 -7.04561 -56.3613 5.59003 -20.6552)
(-3.66142 37.2038 -2.67313 -150.46 12.0914 -44.2903)
(-51.9324 26.2978 -0.62139 82.8235 -6.81034 11.1942)
(-34.4778 63.6496 -4.02812 28.7231 -1.00291 -0.826182)
(-14.65 64.6477 -4.48249 -33.4214 5.47614 -13.6542)
(0.761012 28.4291 -1.49174 -85.7631 11.7207 -25.4882)
(-50.1705 15.4295 -0.128132 41.0065 -5.15576 0.918724)
(-34.0914 44.5231 -2.47295 11.7541 -0.61758 -5.76768)
(-10.14 46.1124 -2.80329 -16.8229 4.38064 -8.09955)
(6.76519 19.2917 -0.712139 -39.9163 9.39556 -11.9261)
(-64.133 8.08363 -0.423949 10.7177 -2.35747 -13.251)
(-50.8375 24.4007 -2.4263 -6.47604 -0.153241 -18.6933)
(4.32534 24.9029 -2.84547 -1.24897 2.05109 2.17556)
(23.4544 9.45185 -1.00174 -10.1786 4.46409 2.36001)
(373.068 150.663 -1.11659 825.215 5.1647 473.887)
(57.7845 132.782 -3.51638 166.254 0.329924 88.5044)
(-115.757 127.101 -3.87372 -224.462 -6.49325 -131.345)
(-432.139 131.132 -1.69266 -860.626 -11.9534 -507.476)
(-88.047 55.5776 -2.48475 331.345 0.0482803 86.0208)
(-19.6829 145.809 -7.63392 137.063 -0.664989 44.986)
(-50.7913 144.466 -8.26695 -176.568 -1.29398 -80.5326)
(9.99836 54.5949 -3.51256 -371.035 -1.67928 -123.708)
(-42.8798 56.2538 -2.55115 311.713 -2.21392 96.829)
(-43.2742 123.536 -7.81109 96.8146 -0.636467 20.1762)
(-26.7973 123.533 -8.29807 -122.145 1.50104 -48.6381)
(-23.8469 55.98 -3.40867 -332.487 3.38204 -121.492)
(-54.5313 45.6137 -2.0198 220.089 -3.6728 58.5325)
(-41.0152 103.638 -6.50382 72.7099 -0.573988 12.5377)
(-22.764 103.927 -6.89392 -86.3805 3.26187 -34.1616)
(-7.62223 46.2566 -2.75368 -230.963 6.65736 -78.0059)
(-53.0537 36.5495 -1.27497 146.881 -4.22063 34.0922)
(-38.1734 83.935 -4.69736 49.7805 -0.426525 5.81429)
(-18.6553 84.4728 -5.01477 -56.1625 4.09124 -22.6941)
(-3.93844 37.7529 -1.88507 -151.174 8.179 -50.0495)
(-52.6913 26.5558 -0.629054 84.9622 -3.99392 13.8804)
(-35.1937 64.4045 -3.06775 30.0672 -0.238452 0.453615)
(-15.0407 65.5168 -3.30362 -33.002 4.11875 -14.2614)
(0.606642 28.8996 -1.08784 -86.1811 8.17764 -27.7912)
(-50.4664 15.5269 -0.321906 43.3897 -3.16412 1.93086)
(-34.5018 45.0912 -2.09281 13.2021 -0.105594 -4.77428)
(-10.3073 46.8119 -2.25032 -16.1332 3.34403 -7.31678)
(6.83305 19.6708 -0.595436 -39.9037 6.72973 -11.2204)
(-64.575 8.17583 -0.682096 12.487 -1.53348 -13.6005)
(-51.2832 24.7459 -2.37269 -5.21914 0.0157741 -17.7919)
(4.48787 25.3047 -2.60107 -0.281312 1.56245 4.45571)
(24.2952 9.68577 -0.96752 -9.28593 3.24565 6.05469)
(374.544 150.871 -0.611317 828.49 2.19849 478.631)
(58.1447 132.304 -2.00796 167.474 -0.172264 90.0027)
(-116.299 126.5 -2.21093 -224.784 -3.71697 -133.344)
(-433.997 131.022 -0.947026 -863.129 -6.39254 -513.103)
(-88.9335 55.5243 -1.42457 332.17 -0.178684 92.0109)
(-20.1133 145.963 -4.5095 138.061 -0.470631 47.0153)
(-51.1553 144.632 -4.88238 -176.234 -0.823136 -83.9451)
(9.80555 54.5821 -2.04853 -371.058 -0.907481 -131.846)
(-43.7016 56.4967 -1.56333 312.888 -1.27137 102.99)
(-44.0297 124.189 -4.8409 97.6279 -0.302868 21.9876)
(-27.0475 124.236 -5.1365 -121.746 0.957064 -51.7787)
(-23.9369 56.2864 -2.08865 -332.642 2.11692 -129.353)
(-55.3885 45.9746 -1.30475 221.306 -1.97315 63.6528)
(-41.747 104.53 -4.18208 73.5383 -0.146379 14.0912)
(-23.0243 104.875 -4.40967 -86.0032 2.14236 -36.5805)
(-7.6421 46.704 -1.73903 -231.102 4.14926 -84.257)
(-53.7774 36.9213 -0.878805 148.265 -2.25093 37.8032)
(-38.7883 84.8532 -3.13003 50.7027 0.0019784 7.05241)
(-18.8924 85.4532 -3.30469 -55.7583 2.74831 -24.188)
(-3.9376 38.2342 -1.22347 -151.285 5.18309 -54.1824)
(-53.2152 26.8544 -0.494836 86.4906 -2.17313 16.2348)
(-35.6204 65.213 -2.14712 31.1018 0.107534 1.45194)
(-15.1881 66.4002 -2.26727 -32.509 2.81207 -14.7839)
(0.677678 29.3422 -0.738361 -86.1589 5.28566 -29.7586)
(-50.6896 15.6928 -0.334259 45.022 -1.79964 3.34408)
(-34.7342 45.7115 -1.60403 14.2671 0.117659 -3.86867)
(-10.298 47.5144 -1.67607 -15.5203 2.30058 -6.87082)
(7.05219 20.0212 -0.461156 -39.6609 4.42466 -11.2177)
(-64.8073 8.26401 -0.653555 13.8735 -0.927743 -12.8076)
(-51.5845 25.0804 -1.95655 -4.30657 0.0800104 -16.8779)
(4.73376 25.6689 -2.07878 0.461228 1.07444 5.88098)
(24.9085 9.8621 -0.794335 -8.71275 2.15997 7.81241)
(375.098 150.824 -0.297248 829.963 0.819814 480.891)
(58.3218 131.835 -1.0185 168.202 -0.230276 90.7672)
(-116.507 125.949 -1.12088 -224.748 -1.89242 -134.373)
(-434.605 130.773 -0.470794 -863.804 -3.07469 -515.763)
(-89.4338 55.4165 -0.718759 332.811 -0.194603 95.213)
(-20.3811 145.88 -2.34618 138.753 -0.282968 48.0469)
(-51.3529 144.55 -2.54001 -175.863 -0.446843 -85.891)
(9.66502 54.502 -1.05154 -370.991 -0.420707 -136.419)
(-44.2147 56.5949 -0.829018 313.735 -0.664928 106.413)
(-44.4698 124.491 -2.60733 98.2429 -0.129803 22.9554)
(-27.2075 124.567 -2.76504 -121.362 0.536362 -53.6603)
(-23.9632 56.4276 -1.1118 -332.611 1.17692 -133.898)
(-55.9238 46.1837 -0.718334 222.162 -0.957675 66.6353)
(-42.1704 105.065 -2.31349 74.1534 0.00648188 14.9675)
(-23.1684 105.443 -2.43224 -85.6325 1.21357 -38.0747)
(-7.61296 46.9695 -0.947613 -231.042 2.27417 -88.0007)
(-54.2366 37.164 -0.505404 149.171 -1.07418 40.1099)
(-39.1367 85.465 -1.77809 51.3543 0.113397 7.80721)
(-19.0014 86.1021 -1.86573 -55.38 1.57545 -25.1429)
(-3.87698 38.5457 -0.681879 -151.187 2.86069 -56.7741)
(-53.5509 27.0628 -0.309461 87.4376 -1.05129 17.8689)
(-35.8519 65.7808 -1.26641 31.7969 0.16742 2.12664)
(-15.2296 67.0118 -1.32294 -32.0966 1.62615 -15.1474)
(0.790029 29.6395 -0.427505 -85.9842 2.94903 -31.1183)
(-50.8543 15.816 -0.241418 45.9921 -0.905089 4.51121)
(-34.8496 46.1492 -1.00667 14.9587 0.142744 -3.19486)
(-10.2387 47.9982 -1.0371 -15.0637 1.33538 -6.63739)
(7.26962 20.2539 -0.294633 -39.3738 2.4919 -11.4197)
(-64.9594 8.32461 -0.457874 14.7379 -0.496281 -11.8897)
(-51.7587 25.3126 -1.27272 -3.72126 0.0740022 -16.1597)
(4.94948 25.9116 -1.3331 0.977702 0.624847 6.69945)
(25.34 9.96822 -0.521563 -8.31098 1.22519 8.57818)
(375.27 150.758 -0.0883 830.519 0.199004 481.786)
(58.3971 131.569 -0.310143 168.547 -0.0946026 91.09)
(-116.568 125.641 -0.341184 -224.66 -0.577431 -134.801)
(-434.744 130.607 -0.141644 -863.88 -0.907239 -516.801)
(-89.6579 55.3438 -0.218099 333.151 -0.079305 96.5937)
(-20.5081 145.79 -0.724435 139.107 -0.0945639 48.476)
(-51.4371 144.458 -0.78423 -175.637 -0.140587 -86.7698)
(9.593 54.4435 -0.322141 -370.928 -0.119269 -138.464)
(-44.4569 56.6245 -0.258576 314.179 -0.207787 107.926)
(-44.6719 124.6 -0.820108 98.5726 -0.0355234 23.371)
(-27.2845 124.689 -0.869482 -121.139 0.173285 -54.5377)
(-23.9701 56.4782 -0.347451 -332.56 0.379191 -135.966)
(-56.1765 46.2753 -0.22868 222.606 -0.285219 67.9934)
(-42.3638 105.306 -0.73817 74.4806 0.0165881 15.3582)
(-23.2328 105.699 -0.774975 -85.4159 0.393077 -38.7837)
(-7.59115 47.0881 -0.300126 -230.975 0.725143 -89.7405)
(-54.4551 37.2783 -0.164724 149.622 -0.315631 41.2026)
(-39.2935 85.7579 -0.57556 51.6912 0.0551899 8.16167)
(-19.0433 86.4119 -0.602188 -55.1611 0.512872 -25.6041)
(-3.83412 38.6928 -0.218862 -151.092 0.914193 -58.0098)
(-53.7097 27.1635 -0.105522 87.8901 -0.311229 18.6934)
(-35.9524 66.0601 -0.418441 32.1451 0.0718566 2.46387)
(-15.2349 67.3108 -0.434917 -31.8657 0.531409 -15.3301)
(0.860993 29.7827 -0.140264 -85.8528 0.946751 -31.8015)
(-50.9341 15.8766 -0.0883497 46.44 -0.275053 5.15207)
(-34.8947 46.3654 -0.343414 15.2982 0.0588297 -2.83989)
(-10.194 48.2332 -0.3516 -14.8195 0.437213 -6.53708)
(7.39407 20.3633 -0.102072 -39.1952 0.803181 -11.5739)
(-65.0197 8.35642 -0.165179 15.1496 -0.159163 -11.3184)
(-51.8293 25.4301 -0.440581 -3.4312 0.0284381 -15.7654)
(5.06788 26.0273 -0.458848 1.2439 0.205575 7.06959)
(25.5507 10.0134 -0.183015 -8.10693 0.396725 8.84355)
)
;

boundaryField
{
    interface
    {
        type            calculated;
        value           nonuniform List<symmTensor> 
192
(
(-41.3401 -0.0982683 3.37934 837.79 83.6478 251.043)
(-39.4557 -0.282828 5.0861 416.525 -16.9015 45.5803)
(-39.9373 -0.632208 5.73967 409.119 -9.0046 79.0294)
(-39.8928 -1.04646 5.94047 291.158 -17.1513 52.7044)
(-40.1072 -1.55719 5.94002 196.508 -16.7276 39.4359)
(-40.3251 -2.25873 5.73244 113.217 -14.7479 25.9994)
(-40.1496 -3.4193 5.22375 58.5715 -10.9547 19.6319)
(-37.3202 -5.14744 4.1642 33.7425 -4.60841 20.8183)
(-46.1894 0.106433 2.31869 823.463 54.3878 267.046)
(-44.9848 -0.0831104 3.51394 453.156 0.963716 81.3168)
(-46.0584 -0.454143 3.91744 403.279 -13.3024 76.4564)
(-46.6029 -0.971813 4.01137 289.44 -20.7076 52.9509)
(-47.0087 -1.629 3.95035 191.115 -22.0075 37.1011)
(-46.9675 -2.55445 3.73222 108.492 -19.4564 24.712)
(-45.6093 -4.06499 3.30096 54.771 -13.9421 19.3285)
(-39.4593 -6.0858 2.53633 33.4006 -6.07506 22.6296)
(-49.2828 0.1547 1.59829 841.821 29.1619 291.68)
(-47.7886 -0.0357684 2.40753 449.471 2.33116 109.734)
(-48.9806 -0.415877 2.64031 403.265 -8.20587 95.4383)
(-49.5753 -0.984132 2.65854 289.117 -14.3384 62.307)
(-49.8985 -1.73226 2.57426 190.502 -16.1031 38.4482)
(-49.5239 -2.79612 2.38803 108.478 -14.6364 20.5281)
(-47.371 -4.49896 2.07722 56.0437 -10.7361 11.8999)
(-39.5288 -6.6107 1.58181 34.1549 -4.68406 13.0088)
(-51.3718 0.156422 1.13226 853.567 14.5026 307.299)
(-49.6365 -0.0416114 1.70834 448.253 1.31213 131.173)
(-50.802 -0.431791 1.85512 404.217 -4.72199 114.252)
(-51.3435 -1.03268 1.84367 290.626 -8.61769 75.2696)
(-51.5334 -1.8408 1.76115 192.494 -10.0618 45.2396)
(-50.8726 -2.99097 1.61292 111.06 -9.45197 22.2404)
(-48.1905 -4.8071 1.39273 59.316 -7.26626 10.1638)
(-39.3302 -6.95034 1.05839 36.9926 -3.46374 9.37237)
(-52.8005 0.148441 0.794882 859.401 6.74752 315.706)
(-50.9129 -0.0604943 1.20444 448.515 0.381374 144.401)
(-52.0318 -0.462666 1.30168 405.459 -2.78055 127.166)
(-52.5067 -1.08703 1.28261 292.211 -4.90445 85.3753)
(-52.5784 -1.93521 1.214 194.512 -5.80452 51.704)
(-51.7016 -3.14044 1.10303 113.433 -5.6207 25.3374)
(-48.6598 -5.02872 0.949481 61.9897 -4.54486 10.8734)
(-39.1132 -7.18504 0.72022 39.3804 -2.30854 8.75487)
(-53.7611 0.139921 0.528747 862.002 2.87908 319.973)
(-51.7772 -0.0791637 0.804323 449.169 -0.0987726 152.025)
(-52.8571 -0.492358 0.867508 406.701 -1.64576 135.144)
(-53.2764 -1.13364 0.850464 293.609 -2.68646 92.1192)
(-53.259 -2.00838 0.800353 196.1 -3.16062 56.5453)
(-52.23 -3.24884 0.723611 115.166 -3.13267 28.2922)
(-48.9469 -5.1838 0.62147 63.8358 -2.65432 12.4598)
(-38.9389 -7.34581 0.469862 41.2085 -1.43522 9.75186)
(-54.3523 0.134 0.301235 863.038 1.07666 321.994)
(-52.3177 -0.0926145 0.459857 449.727 -0.205764 156.071)
(-53.3725 -0.514119 0.49542 407.643 -0.886449 139.593)
(-53.7537 -1.1666 0.484306 294.621 -1.33478 96.0749)
(-53.6772 -2.0579 0.454257 197.157 -1.54665 59.5948)
(-52.5503 -3.32006 0.409215 116.245 -1.55714 30.3991)
(-49.1154 -5.28379 0.348783 64.9393 -1.37113 13.8811)
(-38.8236 -7.44558 0.258696 42.3589 -0.786363 10.9639)
(-54.6205 0.130537 0.0969422 863.385 0.262017 322.795)
(-52.5658 -0.100183 0.148368 450.034 -0.0923325 157.809)
(-53.6063 -0.525728 0.159654 408.15 -0.281818 141.568)
(-53.969 -1.18331 0.155845 295.158 -0.403937 97.8864)
(-53.8645 -2.08269 0.145942 197.691 -0.462536 61.0517)
(-52.6889 -3.35721 0.131116 116.766 -0.469539 31.4779)
(-49.1615 -5.33724 0.110377 65.4648 -0.423789 14.6992)
(-38.7175 -7.48629 0.0790738 42.9281 -0.255318 11.7454)
(73.4864 104.885 -4.6606 538.564 -0.73974 -19.983)
(-144.63 46.2884 -7.53714 233.385 -1.23601 -14.5091)
(-93.8971 65.3749 -8.77682 256.897 -1.33972 -11.2983)
(-91.9323 59.6615 -9.39821 179.43 -1.40861 -9.28978)
(-77.6486 53.4845 -9.82907 121.881 -1.5188 -8.29311)
(-68.8165 42.1357 -10.1698 68.4185 -1.71047 -8.13553)
(-62.7487 27.816 -10.5113 31.1473 -2.04448 -8.85608)
(-71.3308 13.225 -11.1768 5.29196 -2.52283 -10.414)
(-9.38572 79.6824 -3.43762 109.382 -0.573328 -16.7543)
(-69.2117 125.02 -5.92093 78.55 -0.923371 -14.4938)
(-68.3134 134.489 -6.87941 75.8996 -0.98488 -12.4115)
(-62.7669 127.001 -7.37984 53.5615 -0.90228 -11.0302)
(-54.7995 111.663 -7.75869 35.1231 -0.817698 -10.3018)
(-48.2997 89.8915 -8.10867 18.1741 -0.782718 -10.1549)
(-43.8513 64.0478 -8.51726 5.2299 -0.84986 -10.5675)
(-52.3539 33.2344 -9.44294 -6.00418 -1.0291 -11.3018)
(-53.5366 72.5255 -3.06031 -189.602 -0.372251 -14.2274)
(16.7203 121.281 -5.57179 -84.125 -0.643675 -13.4776)
(6.40988 134.866 -6.56125 -88.069 -0.682662 -12.0676)
(4.00143 127.849 -7.09119 -65.4048 -0.547044 -11.0944)
(0.498205 112.577 -7.47267 -48.2293 -0.379392 -10.5786)
(-1.33428 91.0324 -7.81562 -32.6841 -0.239038 -10.4988)
(-1.99493 65.3174 -8.21 -21.3074 -0.164942 -10.8529)
(6.31675 33.4128 -9.10814 -10.1471 -0.219697 -11.6893)
(-136.036 85.7393 -3.05951 -595.826 -0.382414 -10.8739)
(92.9876 41.5723 -5.82153 -232.081 -0.643741 -10.3631)
(37.7988 66.6692 -6.84681 -264.529 -0.578023 -8.68328)
(39.4957 61.1769 -7.41455 -184.993 -0.343791 -7.64402)
(28.8305 55.121 -7.79346 -128.307 -0.0861015 -7.09618)
(23.7632 44.1154 -8.10983 -76.1989 0.141434 -7.00585)
(21.5991 30.4568 -8.44911 -39.5814 0.37006 -7.29228)
(30.7547 13.6528 -9.27718 -15.315 0.562695 -8.57955)
(-2.93688 0.640964 1.55837 -841.41 -106.618 -266.392)
(-0.0410627 0.78654 2.66293 -415.281 17.6523 -51.977)
(2.50422 0.616081 2.96483 -405.94 9.78653 -82.4979)
(4.31559 0.188644 3.10352 -283.273 18.9634 -53.1412)
(5.6009 -0.265031 3.2243 -189.515 18.1465 -40.8976)
(6.62316 -0.72727 3.35419 -109.099 15.9487 -29.8822)
(8.17586 -1.49858 3.50978 -55.1043 11.7653 -25.4796)
(11.6962 -3.59292 3.52966 -29.7123 4.47075 -27.425)
(-4.3828 0.27618 0.592606 -819.24 -75.8526 -277.251)
(-3.66872 0.34549 1.11659 -471.784 -3.80845 -90.5718)
(-2.4596 0.231594 1.2067 -410.304 15.5505 -81.7004)
(-1.32067 -0.058717 1.20959 -290.61 24.9295 -58.2356)
(-0.183441 -0.405354 1.23968 -190.964 26.4612 -44.3037)
(1.0509 -0.771194 1.31907 -109.783 23.6982 -34.446)
(3.4442 -1.46992 1.45866 -54.5741 17.6598 -29.6468)
(9.46247 -3.79948 1.64211 -29.0434 8.27229 -30.6617)
(-5.10447 0.091766 0.34167 -839.053 -45.0213 -304.64)
(-5.00936 0.0837802 0.73699 -471.82 -4.89382 -123.772)
(-4.22593 0.0111856 0.838031 -414.581 10.3463 -105.872)
(-3.30865 -0.192027 0.857332 -294.505 18.8325 -72.834)
(-2.19701 -0.453376 0.882046 -193.233 21.3838 -50.3707)
(-0.708218 -0.736831 0.93977 -111.102 19.9584 -34.0351)
(2.37195 -1.38355 1.0311 -54.9909 15.4901 -24.0496)
(9.49447 -3.79671 1.13987 -26.3487 7.24309 -18.8245)
(-5.39401 0.0374039 0.275975 -851.493 -25.3896 -323.087)
(-5.43707 -0.00969271 0.611988 -471.111 -3.29639 -149.394)
(-4.76314 -0.0723135 0.724962 -416.252 6.47761 -128.176)
(-3.85306 -0.235597 0.76235 -296.62 12.5913 -88.2318)
(-2.6474 -0.451561 0.789206 -194.989 15.0618 -58.4898)
(-0.938101 -0.693463 0.826288 -112.36 14.6526 -36.0014)
(2.52066 -1.32187 0.870029 -55.5557 11.8406 -21.037)
(10.3072 -3.80952 0.913395 -25.3929 5.77129 -11.2832)
(-5.52599 0.0228638 0.221716 -857.153 -13.8448 -333.602)
(-5.59975 -0.0389863 0.485018 -470.998 -1.81449 -166.022)
(-4.94371 -0.0982766 0.582246 -417.013 4.13586 -143.854)
(-4.00627 -0.244122 0.618682 -297.586 8.08406 -100.179)
(-2.71478 -0.43813 0.639713 -195.937 9.95941 -65.7852)
(-0.850343 -0.659873 0.660675 -113.012 10.0084 -38.8702)
(2.84607 -1.28229 0.67901 -55.7381 8.34411 -20.1503)
(11.0818 -3.82848 0.691954 -24.7078 4.15678 -7.09764)
(-5.5792 0.0195667 0.16298 -859.195 -7.2161 -339.24)
(-5.65564 -0.0468929 0.350037 -471.009 -0.850809 -176.067)
(-4.99241 -0.103961 0.421321 -417.387 2.61062 -153.8)
(-4.02326 -0.242208 0.449254 -297.983 4.98088 -108.219)
(-2.66725 -0.425978 0.463559 -196.28 6.21492 -71.1444)
(-0.697583 -0.637804 0.474916 -113.175 6.37609 -41.4838)
(3.15804 -1.25932 0.481546 -55.6357 5.42882 -20.3343)
(11.6869 -3.84698 0.480056 -24.2769 2.75164 -5.30456)
(-5.59338 0.019763 0.0989162 -859.665 -3.38982 -342.058)
(-5.66535 -0.0479058 0.209981 -470.986 -0.330023 -181.65)
(-4.99102 -0.103663 0.252439 -417.546 1.4647 -159.517)
(-3.99695 -0.238705 0.269319 -298.119 2.71476 -113.019)
(-2.59802 -0.417715 0.277493 -196.341 3.39909 -74.5214)
(-0.561205 -0.624818 0.283703 -113.115 3.5262 -43.3277)
(3.39758 -1.249 0.285555 -55.4326 3.03778 -20.7747)
(12.0975 -3.86221 0.273973 -23.9753 1.55506 -4.65841)
(-5.59807 0.0199873 0.0327222 -859.668 -0.985431 -343.217)
(-5.6672 -0.0482104 0.0692345 -470.956 -0.0801675 -184.128)
(-4.98849 -0.103331 0.0830603 -417.601 0.47445 -162.11)
(-3.98253 -0.236832 0.0885608 -298.157 0.863815 -115.244)
(-2.5635 -0.413245 0.0911892 -196.33 1.08178 -76.1372)
(-0.490345 -0.618288 0.093431 -113.041 1.12736 -44.2645)
(3.53183 -1.25055 0.093754 -55.2876 0.975979 -21.0699)
(12.261 -3.87284 0.0853742 -23.8447 0.502236 -4.51161)
(-80.7203 12.0138 -3.58933 -5.86353 -0.984609 -15.13)
(-74.6966 11.643 0.330939 -2.48713 -0.774068 -11.446)
(-74.8515 11.7758 -0.265659 0.171171 -0.528175 -17.2899)
(-74.9341 11.9816 -0.819127 2.28266 -0.356939 -19.8309)
(-75.4539 12.1674 -1.08243 3.87717 -0.244662 -20.5834)
(-75.8474 12.3129 -0.974401 5.01935 -0.165651 -20.0504)
(-76.1018 12.4131 -0.662064 5.74406 -0.109377 -19.2375)
(-76.2669 12.4617 -0.235258 6.00123 -0.0432073 -18.7551)
(-62.0681 9.59444 -5.27083 -8.46029 0.368966 -22.1272)
(-57.8767 8.82311 -2.50623 -6.69946 0.24646 -21.5113)
(-57.2453 8.78919 -2.42441 -4.81703 0.242404 -20.7212)
(-57.6038 8.87895 -2.88306 -3.2056 0.214478 -19.7468)
(-58.1027 8.97691 -2.92136 -1.95964 0.16678 -18.7426)
(-58.4706 9.05852 -2.42567 -1.05084 0.116473 -17.7274)
(-58.6803 9.12031 -1.57729 -0.443174 0.0673062 -16.9135)
(-58.7431 9.16521 -0.54513 -0.10586 0.0215183 -16.4418)
(11.4278 9.01134 -5.49994 -10.4573 0.793519 -7.88639)
(7.53421 8.25782 -3.50567 -9.1862 0.624263 -8.81793)
(6.77089 8.20019 -3.32343 -7.81619 0.522844 -3.76515)
(6.64455 8.26227 -3.44946 -6.61211 0.422139 0.435529)
(6.90006 8.33679 -3.25498 -5.65405 0.319123 3.42067)
(7.22403 8.39902 -2.61824 -4.94243 0.222837 5.27727)
(7.48745 8.44313 -1.67811 -4.46377 0.134995 6.33388)
(7.64583 8.46773 -0.576697 -4.19046 0.0465566 6.82792)
(36.2118 8.98057 -3.81515 -8.29723 1.13574 -9.47006)
(31.0796 8.36318 -1.42041 -6.73438 0.833346 -11.7371)
(31.711 8.35746 -1.55718 -5.51131 0.636891 -0.654091)
(32.371 8.44459 -1.55188 -4.43121 0.496863 6.97391)
(33.4163 8.5297 -1.48092 -3.5509 0.37228 11.8373)
(34.2476 8.59471 -1.19153 -2.89185 0.258389 14.351)
(34.8118 8.63654 -0.770037 -2.45459 0.153911 15.5262)
(35.0855 8.65106 -0.267828 -2.23232 0.0518517 15.9711)
)
;
    }
    symmetry
    {
        type            symmetryPlane;
    }
    bottom
    {
        type            calculated;
        value           nonuniform List<symmTensor> 
32
(
(419 144.926 0 628.5 166.269 419)
(404.866 165.175 0 607.299 83.6487 404.866)
(417.075 173.994 0 625.612 42.095 417.075)
(425.012 177.094 0 637.518 20.7767 425.012)
(429.157 177.979 0 643.736 9.92559 429.157)
(431.244 178.092 0 646.866 4.50693 431.244)
(432.241 178 0 648.361 1.85421 432.241)
(432.638 177.916 0 648.958 0.492893 432.638)
(75.9319 57.8582 0 113.898 44.9457 75.9319)
(75.7547 82.1412 0 113.632 22.6327 75.7547)
(79.8483 86.7131 0 119.772 10.5963 79.8483)
(82.1235 86.4415 0 123.185 4.53173 82.1235)
(83.4634 85.2027 0 125.195 1.67779 83.4634)
(84.2887 84.0519 0 126.433 0.465606 84.2887)
(84.7787 83.2562 0 127.168 0.0498658 84.7787)
(85.0097 82.8588 0 127.515 -0.0158482 85.0097)
(-125.136 51.5347 0 -187.704 -73.0679 -125.136)
(-114.31 76.315 0 -171.464 -44.2495 -114.31)
(-117.49 80.5614 0 -176.235 -26.8976 -117.49)
(-119.523 79.909 0 -179.284 -16.1494 -119.523)
(-120.492 78.36 0 -180.738 -9.47439 -120.492)
(-120.863 76.9847 0 -181.295 -5.31947 -120.863)
(-120.956 76.0452 0 -181.435 -2.66626 -120.956)
(-120.96 75.5782 0 -181.44 -0.806257 -120.96)
(-435.174 126.091 0 -652.761 -210.448 -435.174)
(-416.706 145.132 0 -625.058 -118.234 -416.706)
(-432.123 152.631 0 -648.185 -66.6544 -432.123)
(-441.515 154.667 0 -662.272 -37.1152 -441.515)
(-446.013 154.728 0 -669.019 -20.2376 -446.013)
(-447.938 154.239 0 -671.908 -10.6152 -447.938)
(-448.648 153.753 0 -672.972 -5.03093 -448.648)
(-448.852 153.474 0 -673.278 -1.4722 -448.852)
)
;
    }
}


// ************************************************************************* //
