/*--------------------------------*- C++ -*----------------------------------*\
| =========                 |                                                 |
| \\      /  F ield         | foam-extend: Open Source CFD                    |
|  \\    /   O peration     | Version:     3.1                                |
|   \\  /    A nd           | Web:         http://www.extend-project.de       |
|    \\/     M anipulation  |                                                 |
\*---------------------------------------------------------------------------*/
FoamFile
{
    version     2.0;
    format      ascii;
    class       volSymmTensorField;
    location    "1.2";
    object      sigmaCauchy;
}
// * * * * * * * * * * * * * * * * * * * * * * * * * * * * * * * * * * * * * //

dimensions      [1 -1 -2 0 0 0 0];

internalField   nonuniform List<symmTensor> 
256
(
(345.829 159.313 1.15267 842.7 82.1981 390.989)
(50.0126 105.027 -15.1643 153.279 20.5346 58.6571)
(-117.139 84.4368 -19.6286 -241.975 -34.958 -123.299)
(-435.472 67.3811 -12.9236 -801.39 -64.482 -469.914)
(-128.524 75.4803 -7.17295 259.728 -16.0613 -41.4859)
(-37.0886 139.138 -26.2299 82.8887 -7.98273 -16.4024)
(22.5634 118.733 -27.8971 -113.431 5.40502 -1.64986)
(97.1878 22.4815 -9.39467 -250.985 14.9528 24.6709)
(-32.5555 92.1313 -3.86618 302.395 -8.21313 43.5994)
(-31.8528 137.079 -17.8648 66.1726 -3.21001 -10.1663)
(16.2172 116.917 -18.8118 -111.72 1.31311 -15.8583)
(-0.758151 33.3476 -4.78362 -302.536 5.76548 -65.1719)
(-51.16 80.2418 -4.80699 196.27 -13.3964 14.3129)
(-28.2011 125.243 -14.6988 38.3816 -3.67875 -12.8046)
(21.6642 107.979 -14.6597 -85.6257 3.69545 -8.72102)
(25.7159 30.5313 -3.80112 -206.342 11.9832 -28.5252)
(-44.2144 67.1763 -4.24946 128.105 -12.2015 11.4071)
(-23.4026 107.235 -11.4841 18.7378 -2.78243 -11.1828)
(18.8949 93.9019 -11.21 -65.5916 3.80777 -8.86682)
(20.561 29.6648 -2.66674 -145.094 11.7601 -24.5327)
(-45.7947 50.1966 -4.07149 67.2863 -10.2207 3.46384)
(-22.9507 84.9159 -9.31852 3.06691 -2.05338 -11.0797)
(15.0464 76.0041 -8.9468 -46.282 3.68047 -8.51788)
(20.9562 25.9404 -2.37676 -86.7878 10.8053 -16.9652)
(-46.6463 32.7815 -4.22168 29.0713 -7.54878 0.805736)
(-25.9296 60.2863 -7.8406 -7.0269 -1.61495 -11.3331)
(10.1367 54.8335 -7.32836 -30.4399 3.0815 -9.34299)
(20.1871 18.8554 -2.53757 -45.2933 8.46471 -14.5912)
(-63.4068 19.1062 -4.16016 2.03873 -2.90749 -8.3825)
(-48.4074 33.5623 -6.26671 -19.4357 -0.361786 -22.2269)
(16.7515 27.8025 -6.03701 -9.76874 1.55018 -3.22476)
(30.4393 6.70437 -3.19731 -15.8531 3.50204 -10.0341)
(348.898 182.093 0.340142 824.258 51.6713 403.704)
(61.9957 130.602 -13.0104 154.116 11.3397 70.0948)
(-101.821 109.732 -16.9593 -217.654 -26.2733 -115.036)
(-413.101 84.5931 -10.9611 -770.134 -47.4377 -463.718)
(-70.2657 82.4588 -6.46789 341.574 -0.773139 31.77)
(1.13135 148.96 -25.7605 121.624 -2.85705 22.1728)
(-25.3453 125.071 -28.2834 -173.725 -1.70716 -51.2889)
(21.3639 25.1676 -11.3639 -345.909 -1.59687 -60.0856)
(-26.3347 86.3992 -5.50978 309.351 -11.2659 51.6287)
(-17.0159 129.879 -21.025 78.2826 -3.49743 3.57961)
(-1.60183 109.029 -22.1286 -126.836 4.61162 -26.8291)
(-10.8243 27.6316 -7.08585 -311.247 11.3275 -69.5882)
(-37.9288 72.5348 -4.37039 211.475 -16.0379 28.816)
(-15.0217 112.737 -15.4554 52.2904 -3.81046 0.348634)
(2.53337 95.1777 -15.7829 -96.8918 7.19071 -20.1428)
(6.0491 23.3243 -4.2922 -219.931 17.772 -42.0616)
(-37.2312 58.1642 -2.76708 135.746 -16.4412 19.1613)
(-14.9263 93.1575 -10.7026 29.3466 -3.5618 -2.37347)
(4.49857 80.1477 -10.7308 -69.0832 7.73116 -15.273)
(7.61575 21.8911 -1.85949 -148.203 19.0813 -30.9899)
(-39.7482 42.2138 -1.47558 73.4586 -14.1803 10.2968)
(-16.6607 72.2932 -7.06941 11.5604 -2.90384 -4.55282)
(3.91636 63.9783 -7.01618 -46.3135 6.99686 -12.5257)
(9.68146 19.3059 -0.443843 -87.6068 17.3123 -22.6517)
(-42.2985 26.6328 -0.667563 32.5616 -10.1298 5.48413)
(-21.8824 50.8327 -4.58681 -1.99055 -2.04289 -7.76814)
(3.00772 46.2188 -4.52111 -28.1232 5.36288 -10.7215)
(12.5676 14.3078 0.180569 -43.3447 13.1021 -17.6373)
(-57.9388 16.4088 -0.210001 6.08421 -4.34135 -4.01322)
(-44.4664 29.133 -3.07212 -16.012 -0.581216 -20.3873)
(10.7914 24.0832 -3.45996 -9.50433 2.79634 -5.07555)
(22.9843 5.21979 -0.382489 -16.6035 6.23485 -13.9238)
(363.684 192.876 -0.507448 846.594 27.5833 432.371)
(67.5151 138.095 -8.93332 160.072 4.90075 79.9038)
(-102.915 116.361 -11.4541 -219.933 -16.7196 -123.168)
(-430.071 89.293 -7.3752 -791.73 -28.2815 -496.528)
(-70.248 84.5508 -5.29251 342.705 1.03421 57.6241)
(4.30978 153.302 -18.3306 126.038 -1.59284 34.5791)
(-29.3305 129.032 -20.3551 -181.175 -2.2478 -66.7771)
(17.3319 26.6002 -9.14924 -352.839 -2.87523 -91.2443)
(-26.3757 86.469 -5.28567 313.376 -6.98398 70.2145)
(-16.5076 130.835 -16.4412 81.5117 -2.08875 12.0443)
(-4.62425 109.512 -17.4024 -132.536 3.56747 -37.0634)
(-15.6273 27.0639 -6.54549 -319.218 7.97952 -92.4739)
(-38.6229 71.4628 -4.31918 214.374 -11.2037 39.4728)
(-15.4711 110.564 -12.6064 55.2413 -2.36418 6.30061)
(-0.997774 92.8377 -12.825 -99.5657 6.51928 -26.0774)
(0.730851 22.2952 -3.92283 -225.708 14.1948 -56.6512)
(-39.5834 56.4001 -2.97029 137.256 -12.1205 22.6664)
(-15.9774 89.7623 -8.6089 32.3 -2.24877 1.50804)
(0.901888 76.7626 -8.47848 -69.8942 7.43326 -18.2118)
(3.83297 20.4013 -1.68092 -150.859 16.2272 -37.578)
(-42.6225 40.4375 -1.68623 74.4401 -10.7294 8.89426)
(-17.7526 68.841 -5.33003 14.3321 -1.79087 -2.28854)
(0.817965 60.7208 -5.08603 -45.7656 6.97724 -13.1449)
(7.01982 17.9656 -0.183385 -88.362 15.281 -23.4399)
(-44.7142 25.1308 -0.773463 33.7876 -7.75532 1.13801)
(-22.4992 48.2438 -3.11433 0.472821 -1.14101 -6.64622)
(0.874617 43.9863 -2.92716 -26.813 5.45575 -9.39146)
(11.1825 13.4323 0.472666 -42.7715 11.9269 -13.8238)
(-60.5886 15.9292 -0.446606 5.63363 -3.22504 -11.2792)
(-44.218 28.1772 -2.35756 -13.8202 -0.150807 -19.5855)
(10.0575 23.4532 -2.71539 -7.43531 2.70259 -1.00435)
(24.8815 5.24941 -0.38162 -12.6356 5.59211 -3.57252)
(371.374 197.373 -0.652546 860.542 13.7229 449.965)
(69.5057 140.085 -5.73621 163.444 1.67765 85.1882)
(-104.706 117.88 -7.20268 -222.392 -10.2746 -129.173)
(-440.872 90.6264 -4.50347 -805.6 -16.15 -517.573)
(-71.6353 85.3843 -3.62498 342.626 0.651392 74.9779)
(4.26452 155.519 -12.1083 127.705 -1.04162 41.1886)
(-30.0202 131.194 -13.4566 -182.68 -1.76929 -75.6582)
(16.7969 27.2128 -6.12943 -354.542 -2.10512 -112.302)
(-26.9826 87.2789 -3.94217 315.408 -3.9972 85.867)
(-17.6883 132.539 -11.6523 82.5891 -1.05779 17.0952)
(-4.99336 111.148 -12.322 -133.838 2.49592 -44.1041)
(-16.9695 27.6984 -4.80424 -322.333 5.17541 -110.91)
(-39.5518 71.8829 -3.37729 216.598 -6.71899 50.3707)
(-16.8695 111.435 -9.35693 56.3896 -1.05414 10.0596)
(-1.80441 93.6725 -9.45131 -100.366 4.98557 -30.7763)
(-0.539683 22.6836 -3.03165 -228.307 9.85072 -69.4208)
(-40.5404 56.5768 -2.4218 139.791 -7.53857 28.8582)
(-17.3761 90.0329 -6.56349 33.7236 -0.918638 4.00596)
(-0.184684 77.0344 -6.34542 -70.171 5.96896 -20.7063)
(2.65992 20.5903 -1.33604 -152.711 11.8264 -44.5859)
(-43.4289 40.4832 -1.45252 77.264 -6.87939 11.2043)
(-18.9188 68.8277 -4.12756 15.9971 -0.657105 -0.82156)
(-0.166773 60.7659 -3.7914 -45.4761 5.80342 -13.6774)
(6.09036 18.0702 -0.121713 -89.4847 11.5724 -25.5535)
(-44.9065 25.0985 -0.784334 37.046 -5.17227 0.932134)
(-23.1931 48.257 -2.55448 2.27104 -0.349979 -5.77659)
(0.286819 44.1214 -2.26993 -26.0313 4.64578 -8.11066)
(10.5932 13.5576 0.399056 -43.1947 9.34432 -11.9232)
(-60.6625 16.1089 -0.758478 8.1107 -2.29985 -13.2889)
(-44.5674 28.3816 -2.45112 -12.1071 0.120662 -18.7425)
(9.8231 23.7156 -2.60866 -6.38152 2.36282 2.16888)
(25.2814 5.48471 -0.462165 -11.7758 4.55262 2.35219)
(374.665 198.996 -0.551241 867.631 6.38455 459.324)
(70.2398 140.17 -3.5202 165.461 0.262735 88.0118)
(-105.929 117.748 -4.33154 -223.578 -6.14266 -132.792)
(-446.081 90.8259 -2.61055 -812.145 -8.97094 -528.803)
(-72.8603 85.6585 -2.3102 343.106 0.13124 85.4253)
(3.85329 156.41 -7.61974 128.989 -0.725647 44.9017)
(-30.4899 132.11 -8.44357 -182.853 -1.21029 -81.2444)
(16.6364 27.4294 -3.79491 -355.253 -1.25418 -125.628)
(-27.9334 87.8672 -2.66793 316.675 -2.2892 96.0561)
(-18.5965 133.801 -7.75606 83.4745 -0.468145 20.1893)
(-5.12621 112.459 -8.18063 -133.888 1.6947 -48.9373)
(-17.2298 28.2575 -3.17534 -323.484 3.3413 -123.309)
(-40.5698 72.5058 -2.36795 218.072 -3.76054 58.2378)
(-17.7595 112.718 -6.48297 57.2981 -0.273232 12.5539)
(-2.03815 94.9832 -6.51818 -100.409 3.54134 -34.3167)
(-0.719556 23.2995 -2.09816 -229.338 6.48331 -78.8085)
(-41.4134 57.1727 -1.75952 141.648 -4.27468 34.0053)
(-18.1548 91.166 -4.70359 34.7967 -0.105217 5.82436)
(-0.484529 78.1827 -4.50706 -70.0882 4.38374 -22.7656)
(2.47534 21.1577 -0.972862 -153.573 8.02311 -50.372)
(-44.0884 40.9881 -1.12608 79.4108 -4.00875 13.8803)
(-19.4762 69.7629 -3.08592 17.2738 0.0357328 0.45533)
(-0.398586 61.7238 -2.7911 -45.1646 4.37261 -14.2918)
(6.02053 18.5519 -0.131981 -90.0003 8.09092 -27.8784)
(-45.1463 25.4541 -0.730782 39.4419 -3.14961 1.93775)
(-23.4783 49.0013 -2.11304 3.64643 0.119148 -4.78231)
(0.254588 44.9098 -1.84999 -25.4453 3.56251 -7.32857)
(10.7343 13.9504 0.196472 -43.2569 6.71158 -11.2294)
(-61.0485 16.4193 -0.898917 9.86644 -1.45237 -13.6388)
(-44.9207 28.8866 -2.37074 -10.91 0.275243 -17.8392)
(10.0628 24.2032 -2.42608 -5.48563 1.8464 4.45271)
(26.1675 5.73903 -0.580892 -10.9362 3.34505 6.0472)
(375.942 199.426 -0.381478 871.048 2.72252 464.091)
(70.4969 139.714 -2.04391 166.72 -0.222918 89.5068)
(-106.593 117.198 -2.47133 -223.924 -3.50854 -134.797)
(-448.289 90.6777 -1.43218 -814.744 -4.77859 -534.409)
(-73.6309 85.6693 -1.36479 343.867 -0.148027 91.4707)
(3.44927 156.624 -4.52051 130.028 -0.493502 46.9193)
(-30.856 132.366 -4.98984 -182.591 -0.749983 -84.6619)
(16.4435 27.4612 -2.18761 -355.578 -0.650102 -133.706)
(-28.6389 88.2059 -1.65175 317.788 -1.3058 102.274)
(-19.2089 134.536 -4.80945 84.2879 -0.177534 21.9849)
(-5.25838 113.248 -5.05737 -133.575 1.09836 -52.093)
(-17.2865 28.6018 -1.92147 -323.922 2.10226 -131.112)
(-41.2867 72.9888 -1.50652 219.244 -2.00311 63.3824)
(-18.2937 113.71 -4.15304 58.078 0.0670779 14.0969)
(-2.1175 96.0088 -4.16162 -100.142 2.33875 -36.7484)
(-0.658221 23.7795 -1.3161 -229.68 4.05361 -85.0412)
(-42.0081 57.699 -1.1497 143.003 -2.26205 37.7229)
(-18.5644 92.1994 -3.10716 35.6363 0.23012 7.05819)
(-0.524469 79.2344 -2.96509 -69.8108 2.95377 -24.2667)
(2.57082 21.6627 -0.637856 -153.828 5.09535 -54.5052)
(-44.5092 41.4626 -0.775736 80.9167 -2.16595 16.2339)
(-19.7214 70.6951 -2.13133 18.2115 0.306271 1.45331)
(-0.364164 62.6731 -1.92025 -44.7999 2.99462 -14.8168)
(6.18256 19.0115 -0.118086 -90.0829 5.23954 -29.852)
(-45.3043 25.795 -0.574153 41.0603 -1.77548 3.34982)
(-23.5709 49.7381 -1.59721 4.62024 0.290062 -3.87536)
(0.408643 45.6721 -1.4036 -24.9455 2.46744 -6.88194)
(11.027 14.3155 0.0591576 -43.091 4.42519 -11.2306)
(-61.2312 16.6643 -0.78773 11.2397 -0.852527 -12.8445)
(-45.1383 29.3302 -1.9455 -10.0547 0.291151 -16.9236)
(10.3782 24.6206 -1.96094 -4.80776 1.30123 5.88156)
(26.8157 5.92215 -0.538364 -10.4032 2.24677 7.80777)
(376.362 199.443 -0.217392 872.597 1.01677 466.377)
(70.5807 139.252 -1.05007 167.479 -0.261051 90.2695)
(-106.902 116.699 -1.25289 -223.905 -1.78339 -135.821)
(-449.078 90.489 -0.701812 -815.543 -2.29174 -537.003)
(-74.0834 85.5974 -0.707225 344.512 -0.188864 94.7071)
(3.15443 156.582 -2.36069 130.765 -0.290314 47.9482)
(-31.0956 132.36 -2.59681 -182.258 -0.399588 -86.6013)
(16.287 27.4328 -1.11108 -355.683 -0.286437 -138.233)
(-29.0921 88.3733 -0.885979 318.629 -0.681212 105.733)
(-19.5868 134.899 -2.59224 84.9185 -0.0541906 22.948)
(-5.37006 113.65 -2.71873 -133.238 0.620659 -53.9755)
(-17.2999 28.7808 -1.00956 -324.062 1.1705 -135.608)
(-41.7361 73.2878 -0.824565 220.086 -0.965548 66.3841)
(-18.5988 114.317 -2.29186 58.6671 0.132601 14.9702)
(-2.15262 96.6395 -2.29106 -99.8433 1.32886 -38.2448)
(-0.578845 24.0743 -0.709076 -229.752 2.22569 -88.7628)
(-42.3812 58.0464 -0.641921 143.89 -1.07165 40.0378)
(-18.7738 92.8891 -1.75505 36.2301 0.248854 7.81211)
(-0.498881 79.9375 -1.67145 -69.5218 1.69677 -25.223)
(2.6962 21.9979 -0.354804 -153.83 2.81634 -57.0897)
(-44.7732 41.7814 -0.451396 81.8435 -1.04054 17.8703)
(-19.8237 71.341 -1.24678 18.835 0.287685 2.12864)
(-0.275978 63.3318 -1.12326 -44.4802 1.73636 -15.1805)
(6.35919 19.3285 -0.0798207 -89.9839 2.92752 -31.2114)
(-45.4224 26.0233 -0.366299 42.0164 -0.884976 4.51789)
(-23.5881 50.2468 -0.994973 5.24633 0.251319 -3.20019)
(0.568822 46.1957 -0.880015 -24.5682 1.44045 -6.64745)
(11.2951 14.5638 -0.00128046 -42.8578 2.49794 -11.4331)
(-61.3489 16.8215 -0.531652 12.0949 -0.444189 -11.925)
(-45.2564 29.6291 -1.26287 -9.50834 0.210627 -16.2038)
(10.6391 24.8964 -1.26551 -4.33391 0.770319 6.70267)
(27.2688 6.03293 -0.376467 -10.0263 1.2837 8.57574)
(376.468 199.387 -0.0702961 873.186 0.247107 467.286)
(70.6043 138.987 -0.322034 167.841 -0.10486 90.5913)
(-107.016 116.422 -0.38138 -223.825 -0.543677 -136.244)
(-449.292 90.3753 -0.209397 -815.697 -0.675091 -537.997)
(-74.2916 85.5405 -0.218093 344.867 -0.0795306 96.1034)
(3.00236 156.513 -0.730521 131.147 -0.0961022 48.3769)
(-31.2109 132.311 -0.801876 -182.047 -0.124444 -87.4747)
(16.2031 27.4062 -0.33816 -355.698 -0.0779488 -140.253)
(-29.3099 88.4386 -0.278355 319.081 -0.212737 107.264)
(-19.7679 135.041 -0.815759 85.2608 -0.0103785 23.3625)
(-5.43234 113.811 -0.854177 -133.036 0.201173 -54.8513)
(-17.3035 28.854 -0.31292 -324.091 0.377188 -137.651)
(-41.9493 73.4266 -0.262003 220.528 -0.286393 67.7521)
(-18.7392 114.595 -0.730405 58.9845 0.0582013 15.3602)
(-2.16824 96.9292 -0.729122 -99.6604 0.430998 -38.9533)
(-0.53419 24.21 -0.222858 -229.749 0.710259 -90.4895)
(-42.5583 58.2134 -0.206349 144.333 -0.313379 41.1352)
(-18.8636 93.2216 -0.566503 36.5393 0.100053 8.1666)
(-0.475817 80.2766 -0.538994 -69.3466 0.552955 -25.6841)
(2.77046 22.1595 -0.113614 -153.786 0.900707 -58.32)
(-44.8972 41.9349 -0.148794 82.2857 -0.306565 18.6966)
(-19.8603 71.6585 -0.410361 19.1476 0.112134 2.46641)
(-0.217285 63.6557 -0.369815 -44.2955 0.568292 -15.3628)
(6.46187 19.4844 -0.0283112 -89.8906 0.940609 -31.8933)
(-45.4796 26.1322 -0.127138 42.4568 -0.267285 5.15973)
(-23.5849 50.4967 -0.338363 5.55356 0.0959572 -2.84437)
(0.662442 46.4513 -0.300339 -24.3625 0.473146 -6.54642)
(11.4437 14.6832 -0.00741858 -42.7054 0.806226 -11.587)
(-61.3921 16.8974 -0.189137 12.5018 -0.14044 -11.3527)
(-45.2992 29.7778 -0.436868 -9.23765 0.0756499 -15.8087)
(10.7786 25.0288 -0.436763 -4.0879 0.255652 7.07419)
(27.4888 6.08157 -0.136008 -9.83309 0.417446 8.8422)
)
;

boundaryField
{
    interface
    {
        type            calculated;
        value           nonuniform List<symmTensor> 
192
(
(-32.3745 66.5997 11.5401 946.164 109.827 249.213)
(-35.2148 32.3139 4.17356 446.112 -19.2276 44.4066)
(-33.957 42.1328 5.24855 434.485 -11.6362 77.4429)
(-34.7835 34.3278 4.06094 302.74 -20.0918 52.1826)
(-36.1692 25.5509 3.77283 200.747 -18.8824 39.3855)
(-37.9126 15.7774 3.64833 114.051 -16.1104 26.1697)
(-39.0195 8.21123 3.54065 58.7108 -11.7951 19.8295)
(-37.1239 3.25235 3.20606 34.2203 -5.14043 20.9819)
(-35.988 70.8119 7.90803 926.716 69.7535 262.929)
(-39.813 36.3727 4.0051 486.868 0.695115 79.3789)
(-39.8925 41.4724 2.99267 428.34 -15.3121 74.9993)
(-41.286 34.124 1.91434 301.269 -22.9074 52.4212)
(-42.9821 24.9557 1.40184 195.437 -23.658 37.0624)
(-44.4958 15.2888 1.32113 109.447 -20.4683 24.8658)
(-44.5011 7.56144 1.47229 55.0696 -14.5254 19.4942)
(-39.3811 2.48432 1.58961 34.0867 -6.42217 22.7755)
(-37.9505 75.6009 4.69335 948.104 37.5113 286.692)
(-42.2765 36.6797 2.83973 481.338 2.42255 107.772)
(-42.5897 41.4277 2.07015 427.683 -9.38081 93.9197)
(-44.1373 33.9629 1.2192 300.777 -15.7417 61.6658)
(-45.8334 24.732 0.736824 194.882 -17.1926 38.3007)
(-47.0633 15.0994 0.615789 109.576 -15.307 20.5801)
(-46.3213 7.35073 0.720827 56.5056 -11.1196 11.9735)
(-39.5881 2.01803 0.906736 35.0022 -4.90766 13.0651)
(-39.3422 78.2633 2.66747 961.887 18.6991 302.269)
(-43.8779 36.8333 1.91556 479.004 1.3551 129.374)
(-44.2009 41.5278 1.4856 428.066 -5.42601 112.813)
(-45.7669 34.0117 0.949628 302.116 -9.48517 74.6067)
(-47.3835 24.8103 0.595992 196.914 -10.7598 45.0378)
(-48.3701 15.2087 0.461539 112.269 -9.89566 22.2393)
(-47.1403 7.42994 0.476511 59.8961 -7.52787 10.198)
(-39.438 1.95207 0.571049 37.9436 -3.6175 9.39993)
(-40.3758 79.5366 1.48507 968.737 8.70163 310.81)
(-44.9844 36.9506 1.25066 478.753 0.344158 142.778)
(-45.2744 41.6402 1.03227 429.002 -3.22217 125.855)
(-46.8155 34.1069 0.733865 303.601 -5.43302 84.7537)
(-48.3496 24.9321 0.51246 198.967 -6.23923 51.4975)
(-49.1537 15.3373 0.398485 114.719 -5.90876 25.318)
(-47.5977 7.5149 0.364105 62.6506 -4.72287 10.8925)
(-39.2431 1.94253 0.388927 40.4004 -2.41534 8.77335)
(-41.1191 80.088 0.803306 971.785 3.70556 315.197)
(-45.7389 37.0244 0.777616 479.201 -0.171657 150.528)
(-45.9926 41.7401 0.673535 430.124 -1.92265 133.938)
(-47.5012 34.2066 0.519903 304.966 -2.99954 91.5477)
(-48.9694 25.0395 0.394638 200.584 -3.42031 56.3531)
(-49.6454 15.4344 0.313798 116.503 -3.31128 28.2713)
(-47.8725 7.56922 0.267873 64.5486 -2.76979 12.475)
(-39.0761 1.953 0.25644 42.2726 -1.50633 9.76935)
(-41.597 80.3017 0.392704 972.996 1.38032 317.293)
(-46.2147 37.063 0.421832 479.687 -0.268515 154.647)
(-46.4421 41.8104 0.376389 431.037 -1.04125 138.453)
(-47.9244 34.2834 0.305571 305.98 -1.50062 95.5399)
(-49.3478 25.1144 0.243582 201.665 -1.68421 59.4176)
(-49.9418 15.4928 0.196492 117.612 -1.65416 30.3818)
(-48.0329 7.5937 0.159888 65.6827 -1.43568 13.8969)
(-38.9631 1.95943 0.137953 43.4485 -0.826424 10.9831)
(-41.8186 80.3687 0.116588 973.398 0.334603 318.129)
(-46.434 37.0776 0.132289 479.977 -0.116314 156.419)
(-46.6458 41.8451 0.119423 431.545 -0.331784 140.458)
(-48.1142 34.3239 0.0990739 306.524 -0.455807 97.3693)
(-49.5162 25.152 0.0805949 202.212 -0.505454 60.8829)
(-50.0695 15.5173 0.065212 118.147 -0.500147 31.4635)
(-48.077 7.59587 0.0508242 66.2236 -0.444327 14.7161)
(-38.8571 1.96525 0.0393566 44.0281 -0.267881 11.7662)
(83.7953 136.764 -1.62692 582.428 13.6807 -18.4081)
(-129.908 71.1933 -6.22773 240.29 -2.89185 -14.1754)
(-75.2461 96.748 -8.26794 259.175 -2.67782 -10.9194)
(-73.4045 86.5917 -9.31859 173.553 -2.34212 -9.04212)
(-60.9402 74.3499 -10.0472 112.455 -1.55724 -8.16323)
(-55.7596 56.4932 -10.516 59.0455 -1.006 -8.11835)
(-54.0374 37.5493 -10.9098 24.2338 -0.925975 -8.92724)
(-66.2747 21.3089 -11.6527 1.4357 -1.20094 -10.5682)
(-3.42527 84.2393 -2.82144 109.501 -0.377105 -16.4823)
(-49.4357 132.911 -5.30547 70.4038 -3.53653 -14.2187)
(-40.7826 144.396 -6.4121 61.2436 -3.04377 -12.1611)
(-33.0851 135.547 -7.22476 34.6519 -2.09178 -10.8423)
(-26.9836 118.256 -7.78442 15.3338 -1.04356 -10.1934)
(-25.4896 94.5499 -8.2129 0.501573 -0.275047 -10.1265)
(-27.7203 67.4751 -8.65596 -8.1919 0.0863828 -10.6092)
(-43.7741 37.1344 -9.62482 -13.4765 0.103742 -11.4156)
(-49.399 66.1458 -3.6469 -186.332 1.34762 -14.4819)
(33.8456 113.763 -6.28564 -91.7424 -3.02454 -13.3073)
(31.2342 124.434 -6.96195 -101.521 -2.70981 -11.9295)
(31.289 118.15 -7.15843 -82.9444 -1.78996 -10.9789)
(26.403 104.47 -7.3694 -66.7504 -0.687516 -10.5091)
(20.2039 85.1023 -7.64661 -49.446 0.188148 -10.4769)
(13.3511 61.4186 -8.04216 -34.162 0.706816 -10.8767)
(13.8595 30.8261 -8.94885 -16.9182 0.849144 -11.7357)
(-134.592 59.5526 -4.33889 -544.404 17.6747 -12.2507)
(101.134 20.1166 -7.31702 -224.07 -1.70266 -10.3411)
(49.0197 38.5713 -7.45824 -258.902 -1.91372 -8.73388)
(51.2202 36.7576 -7.66171 -186.966 -1.49054 -7.64988)
(40.1584 36.1541 -7.71434 -134.193 -0.420472 -7.10927)
(33.2756 31.4271 -7.86987 -83.1191 0.542562 -7.03429)
(28.2726 22.6394 -8.15203 -45.1264 1.21316 -7.34216)
(33.6853 8.12872 -8.93065 -17.6888 1.61564 -8.63705)
(-6.48602 -48.4487 -4.3628 -736.853 -76.6321 -272.22)
(-1.65678 -25.2589 3.44516 -385.186 16.0035 -53.7271)
(-0.459914 -34.5089 3.11707 -376.879 7.51655 -84.7254)
(1.50505 -28.5407 4.6271 -267.487 16.1261 -53.8911)
(3.22825 -21.7231 5.06805 -181.359 16.0603 -41.0778)
(4.96075 -14.0511 5.19982 -105.552 14.6335 -29.7881)
(6.99177 -8.86013 4.98667 -53.4651 10.9599 -25.325)
(10.3576 -8.29343 4.24177 -28.2136 3.924 -27.2709)
(-8.64796 -51.7508 -4.04052 -720.439 -56.2815 -285.67)
(-5.9312 -29.7656 0.496965 -434.796 -3.33316 -93.6705)
(-5.62527 -33.9668 2.10044 -380.829 13.6709 -83.9568)
(-4.27096 -28.1854 3.40335 -274.329 22.6562 -59.1165)
(-2.55367 -20.8044 3.98098 -182.852 24.7286 -44.5056)
(-0.559495 -13.2258 3.99158 -106.299 22.6296 -34.3622)
(2.34667 -8.10022 3.54671 -53.0153 17.0555 -29.5028)
(8.13784 -8.13153 2.72009 -27.5424 7.89777 -30.5189)
(-9.94214 -55.4413 -2.453 -737.075 -33.1102 -315.193)
(-7.47205 -30.4795 0.195521 -436.295 -4.18453 -127.246)
(-7.50514 -34.1249 1.45236 -385.56 9.21794 -108.48)
(-6.31251 -28.1527 2.52574 -278.343 17.2688 -74.0007)
(-4.56292 -20.5737 3.09115 -185.168 20.1211 -50.7588)
(-2.285 -12.9564 3.16476 -107.623 19.1572 -34.0749)
(1.3202 -7.84847 2.82234 -53.4359 15.0341 -23.9967)
(8.2137 -7.78328 2.02956 -24.8815 6.98437 -18.7817)
(-10.5205 -57.3644 -1.26723 -747.631 -18.5295 -334.383)
(-7.97993 -30.7562 0.308088 -436.848 -2.77347 -152.877)
(-8.09631 -34.2712 1.15618 -387.929 5.78951 -130.866)
(-6.87374 -28.1897 1.90442 -280.757 11.5557 -89.5237)
(-5.00622 -20.5566 2.35441 -187.034 14.181 -58.9856)
(-2.49627 -12.9257 2.45655 -108.91 14.0727 -36.1184)
(1.49112 -7.81236 2.22837 -54.0093 11.5038 -21.0348)
(9.03722 -7.75001 1.60544 -23.9271 5.586 -11.2757)
(-10.7747 -58.1672 -0.585023 -752.61 -10.0538 -345.07)
(-8.1771 -30.8726 0.357462 -437.51 -1.49975 -169.388)
(-8.29996 -34.3429 0.907186 -389.239 3.697 -146.479)
(-7.03123 -28.2077 1.38325 -282.013 7.41255 -101.475)
(-5.06624 -20.5595 1.69069 -188.104 9.37026 -66.3134)
(-2.3949 -12.9188 1.77959 -109.609 9.60887 -39.0205)
(1.83169 -7.79783 1.63578 -54.213 8.10828 -20.1705)
(9.81644 -7.75934 1.18766 -23.2464 4.0299 -7.09923)
(-10.868 -58.4241 -0.235324 -754.566 -5.22214 -350.697)
(-8.24502 -30.9042 0.316419 -437.982 -0.685648 -179.312)
(-8.356 -34.3682 0.65761 -389.977 2.3317 -156.334)
(-7.04675 -28.2093 0.942406 -282.625 4.56209 -109.478)
(-5.01079 -20.5499 1.13222 -188.553 5.84188 -71.6684)
(-2.2307 -12.9014 1.19358 -109.82 6.11786 -41.6427)
(2.15523 -7.77927 1.1059 -54.1341 5.27415 -20.3624)
(10.4234 -7.78459 0.808824 -22.8192 2.669 -5.30717)
(-10.8885 -58.4629 -0.0780595 -755.147 -2.44691 -353.469)
(-8.2567 -30.8993 0.211413 -438.223 -0.255939 -184.811)
(-8.35488 -34.3704 0.397673 -390.354 1.30725 -161.982)
(-7.01714 -28.204 0.548055 -282.898 2.4846 -114.241)
(-4.93486 -20.5358 0.649434 -188.688 3.19293 -75.0322)
(-2.08566 -12.8807 0.684311 -109.797 3.3817 -43.4855)
(2.4026 -7.76207 0.636262 -53.9492 2.95035 -20.8045)
(10.8352 -7.8043 0.460594 -22.5207 1.50911 -4.66052)
(-10.8917 -58.4487 -0.0168233 -755.25 -0.710237 -354.596)
(-8.25824 -30.8898 0.0731191 -438.315 -0.0596292 -187.248)
(-8.35164 -34.3672 0.132159 -390.511 0.423351 -164.538)
(-7.00074 -28.1991 0.178999 -283.002 0.79038 -116.446)
(-4.89669 -20.5256 0.210708 -188.715 1.01593 -76.6391)
(-2.01009 -12.8669 0.222122 -109.743 1.08095 -44.4201)
(2.53967 -7.75724 0.20672 -53.8128 0.947785 -21.0997)
(10.9988 -7.81477 0.145843 -22.3913 0.487874 -4.51329)
(-75.9791 19.918 -3.97853 -9.53158 -0.492394 -15.2562)
(-70.2221 19.29 0.0205262 -6.01099 -0.748219 -11.5094)
(-70.334 19.7342 -0.445298 -3.38858 -0.464154 -17.3674)
(-70.3517 20.1677 -0.925495 -1.31784 -0.244422 -19.9078)
(-70.7945 20.5658 -1.14878 0.23902 -0.110709 -20.6581)
(-71.1237 20.8606 -1.01807 1.35337 -0.0486696 -20.123)
(-71.3329 21.0535 -0.689325 2.05953 -0.0308338 -19.3083)
(-71.4763 21.1401 -0.245168 2.30766 -0.015412 -18.8252)
(-58.8166 14.9739 -5.30694 -11.1588 0.976019 -22.2379)
(-54.9174 13.9992 -2.53654 -9.20501 0.538626 -21.5808)
(-54.2843 14.0981 -2.42259 -7.31449 0.510159 -20.781)
(-54.5891 14.3809 -2.85868 -5.72499 0.522448 -19.8031)
(-55.0371 14.643 -2.89071 -4.49993 0.474558 -18.7963)
(-55.3672 14.8414 -2.39986 -3.6066 0.370508 -17.7791)
(-55.5517 14.9764 -1.56113 -3.00982 0.23205 -16.9635)
(-55.5996 15.0566 -0.539755 -2.68042 0.0784 -16.4907)
(13.2342 6.44762 -5.29503 -12.0925 1.39652 -7.91505)
(9.18155 6.26352 -3.37246 -10.7328 1.00905 -8.82311)
(8.41071 6.43992 -3.23566 -9.3718 0.887565 -3.7738)
(8.30062 6.64891 -3.38764 -8.19128 0.800661 0.428256)
(8.56961 6.80418 -3.21166 -7.25234 0.675798 3.41772)
(8.90202 6.91349 -2.58946 -6.5548 0.509278 5.27858)
(9.17029 6.98496 -1.66128 -6.08568 0.31834 6.33825)
(9.33147 7.02416 -0.571007 -5.81792 0.109511 6.83387)
(38.0366 3.7527 -3.42899 -9.69976 1.56557 -9.46038)
(32.7438 3.91885 -1.16752 -8.09448 0.990353 -11.6944)
(33.3436 3.9977 -1.4088 -6.8711 0.821836 -0.660965)
(34.0021 4.1491 -1.45799 -5.81265 0.691534 6.95681)
(35.0522 4.23199 -1.41871 -4.94826 0.561496 11.8228)
(35.8901 4.29133 -1.15077 -4.30184 0.411272 14.3407)
(36.4596 4.32854 -0.746326 -3.87292 0.252512 15.5186)
(36.7349 4.34236 -0.259921 -3.6537 0.0860363 15.9647)
)
;
    }
    symmetry
    {
        type            symmetryPlane;
    }
    bottom
    {
        type            calculated;
        value           nonuniform List<symmTensor> 
32
(
(420.422 170.43 14.2947 645.505 195.529 424.362)
(410.506 193.262 8.17734 623.478 97.8726 398.5)
(423.832 204.473 4.3412 642.853 49.4689 406.939)
(431.999 208.707 2.18302 655.438 24.4854 413.648)
(436.112 210.059 1.04865 662.013 11.7146 417.367)
(438.112 210.348 0.476589 665.325 5.32323 419.291)
(439.035 210.315 0.195998 666.907 2.19082 420.222)
(439.394 210.244 0.0520787 667.54 0.582455 420.595)
(77.4421 59.7034 1.47199 114.478 46.3791 76.6907)
(79.1968 84.7547 1.05238 114.201 23.3529 75.6674)
(83.688 89.6211 0.520432 120.404 10.9517 79.4928)
(85.9126 89.423 0.221944 123.855 4.68803 81.6907)
(87.1171 88.1894 0.0810074 125.889 1.7366 83.005)
(87.8225 87.0275 0.0221792 127.142 0.482089 83.8188)
(88.2313 86.2207 0.00235302 127.886 0.0516414 84.3027)
(88.4221 85.8172 -0.000744282 128.237 -0.016414 84.5308)
(-124.825 48.8262 -2.07217 -185.993 -69.2277 -123.349)
(-112.061 72.6511 -1.86119 -170.034 -42.1251 -114.192)
(-114.927 76.586 -1.19373 -174.729 -25.5703 -118.104)
(-117.051 75.8976 -0.710691 -177.73 -15.3388 -120.424)
(-118.171 74.3944 -0.408795 -179.163 -8.99492 -121.502)
(-118.665 73.0768 -0.225478 -179.712 -5.04944 -121.912)
(-118.838 72.182 -0.111634 -179.85 -2.53081 -122.018)
(-118.88 71.7386 -0.0335499 -179.856 -0.765297 -122.025)
(-441.832 103.045 -13.9682 -630.972 -171.984 -426.888)
(-418.94 119.731 -9.04918 -605.666 -97.5411 -422.675)
(-434.084 124.929 -5.35054 -627.545 -54.5572 -443.999)
(-443.749 125.986 -3.01435 -640.799 -30.2327 -455.587)
(-448.534 125.743 -1.64304 -647.136 -16.4466 -460.881)
(-450.665 125.221 -0.858824 -649.848 -8.61813 -463.085)
(-451.499 124.781 -0.405695 -650.849 -4.08294 -463.884)
(-451.76 124.541 -0.118499 -651.138 -1.19466 -464.113)
)
;
    }
}


// ************************************************************************* //
