/*--------------------------------*- C++ -*----------------------------------*\
| =========                 |                                                 |
| \\      /  F ield         | foam-extend: Open Source CFD                    |
|  \\    /   O peration     | Version:     3.1                                |
|   \\  /    A nd           | Web:         http://www.extend-project.de       |
|    \\/     M anipulation  |                                                 |
\*---------------------------------------------------------------------------*/
FoamFile
{
    version     2.0;
    format      ascii;
    class       volVectorField;
    location    "1.2";
    object      U;
}
// * * * * * * * * * * * * * * * * * * * * * * * * * * * * * * * * * * * * * //

dimensions      [0 1 -1 0 0 0 0];

internalField   nonuniform List<vector> 
256
(
(-0.000781573 -0.000476668 -0.000939162)
(-0.000265612 -4.48597e-05 -0.000166579)
(-0.000239941 0.000281254 0.00064256)
(-0.00073552 0.000882925 0.00166746)
(-0.00361106 -0.00201956 -0.00112984)
(-0.00297783 -0.000291884 -0.000258596)
(-0.00285827 0.00121762 0.000837294)
(-0.00318499 0.00319041 0.0017474)
(-0.00726245 -0.00295551 -0.00127086)
(-0.0066121 -0.000336167 -0.000353067)
(-0.00641662 0.00210869 0.000658201)
(-0.00659522 0.00498575 0.0015864)
(-0.0116174 -0.00343867 -0.001288)
(-0.0110028 -0.000120526 -0.000456654)
(-0.0107319 0.00304261 0.000423153)
(-0.0107088 0.006589 0.00124294)
(-0.0163492 -0.00347911 -0.00126281)
(-0.0157684 0.000303861 -0.000541716)
(-0.0154323 0.00395394 0.000189418)
(-0.0152458 0.00791315 0.000888225)
(-0.0211827 -0.00319119 -0.00123022)
(-0.0206376 0.000859518 -0.000611382)
(-0.0202495 0.00480572 -8.23215e-06)
(-0.0199371 0.0089817 0.000584264)
(-0.0259039 -0.00269277 -0.00122261)
(-0.0253928 0.00146891 -0.000678984)
(-0.0249704 0.0055616 -0.000169461)
(-0.0245724 0.00981579 0.000352541)
(-0.0303788 -0.00210658 -0.00126645)
(-0.0298907 0.00207102 -0.000758124)
(-0.0294569 0.00620841 -0.000312262)
(-0.0290192 0.0104711 0.000179737)
(-0.00095668 -0.000461482 -0.000502717)
(-0.00049565 -2.89181e-05 -7.32727e-05)
(-0.000490268 0.000258183 0.000426721)
(-0.000945312 0.000793528 0.00105325)
(-0.00408957 -0.00189042 -0.000732948)
(-0.00339792 -0.00018835 -0.00013906)
(-0.00332257 0.00126134 0.000605436)
(-0.00379229 0.00321282 0.0012531)
(-0.00786797 -0.00281205 -0.000907549)
(-0.00721648 -0.000170843 -0.000237544)
(-0.00704029 0.00227349 0.000512927)
(-0.00725195 0.00516703 0.00120789)
(-0.0122665 -0.00328155 -0.000999373)
(-0.0116455 6.53835e-05 -0.000347293)
(-0.0113786 0.00324667 0.000345263)
(-0.0113695 0.00681975 0.00100486)
(-0.0169904 -0.00333024 -0.00104899)
(-0.0164048 0.000485482 -0.000444637)
(-0.0160626 0.0041644 0.000168375)
(-0.0158721 0.00815411 0.000767339)
(-0.0217987 -0.00305647 -0.0010826)
(-0.0212489 0.00102655 -0.000528151)
(-0.0208514 0.00500509 1.14708e-05)
(-0.0205305 0.00921246 0.000554192)
(-0.0265021 -0.00257335 -0.00112182)
(-0.0259858 0.00162127 -0.000605873)
(-0.0255543 0.00575094 -0.000121933)
(-0.0251505 0.0100399 0.000382656)
(-0.030986 -0.00200209 -0.00117938)
(-0.0304901 0.00221125 -0.000686885)
(-0.0300476 0.00639824 -0.000243622)
(-0.02961 0.0107038 0.000239067)
(-0.00104568 -0.00048478 -0.000288756)
(-0.000573036 -2.75686e-05 -3.0074e-05)
(-0.000579297 0.000269434 0.000288875)
(-0.00106758 0.000826517 0.000682026)
(-0.00436857 -0.0018616 -0.000477562)
(-0.00364253 -0.000141004 -7.72682e-05)
(-0.00359933 0.00129731 0.000423105)
(-0.00415868 0.00327637 0.000871399)
(-0.00827468 -0.00273819 -0.000639727)
(-0.00760196 -8.19134e-05 -0.000161682)
(-0.00745188 0.00236001 0.000378463)
(-0.00773013 0.00527332 0.000886554)
(-0.0127477 -0.00317216 -0.000756724)
(-0.0121181 0.000185248 -0.00026114)
(-0.0118683 0.00336746 0.000268176)
(-0.011899 0.00695102 0.000781382)
(-0.0175098 -0.0032043 -0.000845762)
(-0.0169241 0.000620941 -0.000356517)
(-0.0165924 0.00430566 0.000142113)
(-0.0164233 0.00830498 0.000638145)
(-0.0223372 -0.00292881 -0.000918487)
(-0.0217929 0.00116682 -0.000442597)
(-0.0214017 0.00515811 2.33642e-05)
(-0.0210899 0.00937978 0.000499536)
(-0.0270579 -0.00245415 -0.000985567)
(-0.0265491 0.00176044 -0.000521831)
(-0.026121 0.00591312 -8.30038e-05)
(-0.0257188 0.0102269 0.000379409)
(-0.0315698 -0.00189509 -0.00104924)
(-0.0310813 0.00234814 -0.000597266)
(-0.0306407 0.00657124 -0.000183429)
(-0.030201 0.0109156 0.000266724)
(-0.00109401 -0.000501557 -0.000174926)
(-0.000605277 -2.79135e-05 -1.11819e-05)
(-0.000617945 0.000278667 0.000195484)
(-0.0011374 0.000860219 0.000445015)
(-0.00454443 -0.00186606 -0.00031736)
(-0.00379437 -0.000120505 -4.51176e-05)
(-0.0037703 0.00132392 0.000293297)
(-0.00438617 0.00334011 0.000600668)
(-0.0085548 -0.002712 -0.000451549)
(-0.00786634 -3.47016e-05 -0.000111887)
(-0.0077355 0.00241386 0.000272963)
(-0.00806159 0.00535318 0.000638248)
(-0.0131073 -0.00311447 -0.000564698)
(-0.0124707 0.000258962 -0.000194477)
(-0.0122362 0.00344694 0.000202202)
(-0.0123004 0.00704753 0.000590493)
(-0.0179258 -0.00312363 -0.000662848)
(-0.01734 0.000714972 -0.000278335)
(-0.0170198 0.00440662 0.00011485)
(-0.0168715 0.00841978 0.000509997)
(-0.0227938 -0.00283669 -0.000748505)
(-0.0222542 0.00127368 -0.000357151)
(-0.0218712 0.00527651 2.77973e-05)
(-0.0215701 0.0095143 0.00042442)
(-0.0275487 -0.00236082 -0.000824182)
(-0.0270465 0.00187399 -0.000429629)
(-0.0266239 0.00604606 -5.39782e-05)
(-0.0262251 0.010383 0.000343545)
(-0.032095 -0.00180603 -0.000885496)
(-0.0316135 0.00246534 -0.000494435)
(-0.0311767 0.0067174 -0.000133327)
(-0.0307359 0.011094 0.00025929)
(-0.00112301 -0.000513043 -0.000109386)
(-0.000621936 -2.84622e-05 -3.63549e-06)
(-0.000638188 0.000285389 0.000130142)
(-0.00118017 0.000885504 0.000288405)
(-0.00466057 -0.00188011 -0.000211737)
(-0.0038933 -0.000112236 -2.7518e-05)
(-0.00388027 0.00134301 0.000199682)
(-0.00453293 0.00339262 0.000407185)
(-0.00875158 -0.00271064 -0.000314829)
(-0.00805178 -1.03416e-05 -7.72897e-05)
(-0.00793293 0.00245071 0.000191477)
(-0.0082901 0.00541894 0.000447765)
(-0.0133742 -0.00309122 -0.000409953)
(-0.0127322 0.000302905 -0.000141185)
(-0.0125082 0.0035026 0.000146858)
(-0.0125954 0.00712627 0.000430172)
(-0.0182495 -0.00308012 -0.000498395)
(-0.0176631 0.000776992 -0.000208683)
(-0.0173513 0.0044804 8.79689e-05)
(-0.0172181 0.00851308 0.000387594)
(-0.023163 -0.00277936 -0.000578531)
(-0.0226259 0.00134954 -0.000273941)
(-0.0222491 0.00536646 2.64677e-05)
(-0.0219562 0.00962375 0.000337095)
(-0.027956 -0.00229706 -0.000648449)
(-0.0274578 0.00195895 -0.000333987)
(-0.0270392 0.00614981 -3.34981e-05)
(-0.0266432 0.0105095 0.000284831)
(-0.0325363 -0.00174113 -0.000700644)
(-0.0320587 0.00255614 -0.00038522)
(-0.0316246 0.00683302 -9.27941e-05)
(-0.031183 0.0112375 0.00022493)
(-0.00114128 -0.000520847 -6.75149e-05)
(-0.000631756 -2.89172e-05 -9.82888e-07)
(-0.000650152 0.000290095 8.25504e-05)
(-0.00120736 0.000903056 0.000179703)
(-0.00473765 -0.00189479 -0.000136216)
(-0.00395847 -0.000109309 -1.68588e-05)
(-0.00395185 0.00135653 0.000129132)
(-0.00462827 0.00343218 0.000262707)
(-0.00888737 -0.0027189 -0.00020868)
(-0.00817951 1.82132e-06 -5.11198e-05)
(-0.00806773 0.00247636 0.000126567)
(-0.00844457 0.00547035 0.00029641)
(-0.0135651 -0.00308613 -0.000279251)
(-0.0129188 0.000328228 -9.62726e-05)
(-0.0127012 0.00354163 9.95604e-05)
(-0.0128031 0.00718826 0.000292649)
(-0.018488 -0.00306032 -0.000347529)
(-0.0179006 0.000815902 -0.00014523)
(-0.017594 0.00453297 6.19306e-05)
(-0.0174703 0.008586 0.000271649)
(-0.0234416 -0.00274764 -0.00041079)
(-0.0229055 0.00139995 -0.000193429)
(-0.0225325 0.00543157 2.12249e-05)
(-0.0222446 0.00970827 0.000243467)
(-0.0282684 -0.00225797 -0.000465735)
(-0.0277719 0.0020177 -0.000237775)
(-0.0273556 0.00622573 -1.952e-05)
(-0.0269612 0.0106059 0.000211643)
(-0.0328778 -0.00169868 -0.00050477)
(-0.0324015 0.00262064 -0.000274327)
(-0.0319686 0.00691814 -6.03191e-05)
(-0.0315265 0.0113454 0.000172017)
(-0.0011524 -0.000525768 -3.71187e-05)
(-0.000637598 -2.92222e-05 -2.058e-07)
(-0.000657257 0.000293097 4.57203e-05)
(-0.00122389 0.000914074 9.85038e-05)
(-0.00478544 -0.00190611 -7.667e-05)
(-0.00399879 -0.000108521 -9.31032e-06)
(-0.00399577 0.00136534 7.25358e-05)
(-0.00468652 0.00345857 0.00014745)
(-0.00897348 -0.00272813 -0.000119605)
(-0.0082604 7.55601e-06 -2.93404e-05)
(-0.00815254 0.00249292 7.21285e-05)
(-0.00854106 0.00550569 0.000169243)
(-0.0136887 -0.00308808 -0.000162724)
(-0.0130395 0.000341894 -5.61757e-05)
(-0.0128255 0.00356682 5.76766e-05)
(-0.0129359 0.00723126 0.000170074)
(-0.0186453 -0.00305308 -0.000205379)
(-0.0180569 0.000838365 -8.57299e-05)
(-0.0177532 0.00456704 3.6748e-05)
(-0.017635 0.00863635 0.000160864)
(-0.0236279 -0.00273212 -0.0002454)
(-0.023092 0.00143031 -0.000115134)
(-0.0227211 0.00547397 1.35786e-05)
(-0.022436 0.00976601 0.000146887)
(-0.0284794 -0.00223663 -0.00028009)
(-0.0279835 0.00205413 -0.00014217)
(-0.0275683 0.00627536 -9.99306e-06)
(-0.0271745 0.010671 0.000129928)
(-0.0331097 -0.00167404 -0.000304005)
(-0.0326336 0.00266146 -0.000163936)
(-0.032201 0.00697393 -3.37744e-05)
(-0.0317583 0.0114177 0.000107445)
(-0.00115773 -0.000528162 -1.18826e-05)
(-0.000640389 -2.9374e-05 -2.7603e-08)
(-0.000660639 0.00029456 1.4639e-05)
(-0.00123177 0.000919386 3.13945e-05)
(-0.00480846 -0.00191216 -2.48002e-05)
(-0.00401819 -0.000108413 -2.99804e-06)
(-0.00401681 0.00136971 2.33974e-05)
(-0.00471434 0.00347176 4.75577e-05)
(-0.0090154 -0.00273374 -3.90174e-05)
(-0.00829976 9.80244e-06 -9.58755e-06)
(-0.00819365 0.00250109 2.34335e-05)
(-0.00858763 0.00552368 5.50555e-05)
(-0.0137495 -0.00309055 -5.34965e-05)
(-0.0130989 0.000347842 -1.84853e-05)
(-0.0128864 0.00357923 1.88898e-05)
(-0.0130007 0.00725327 5.58073e-05)
(-0.0187234 -0.00305119 -6.79635e-05)
(-0.0181344 0.000848594 -2.8356e-05)
(-0.017832 0.00458384 1.21761e-05)
(-0.0177163 0.00866206 5.3266e-05)
(-0.0237212 -0.00272608 -8.16136e-05)
(-0.0231853 0.00144452 -3.82233e-05)
(-0.0228152 0.00549489 4.65861e-06)
(-0.0225313 0.00979531 4.9073e-05)
(-0.0285856 -0.00222748 -9.34361e-05)
(-0.0280898 0.0020715 -4.729e-05)
(-0.027675 0.00629988 -3.04783e-06)
(-0.0272813 0.0107038 4.37687e-05)
(-0.0332268 -0.00166299 -0.00010147)
(-0.0327505 0.0026812 -5.45022e-05)
(-0.0323179 0.00700154 -1.08499e-05)
(-0.0318748 0.0114538 3.64937e-05)
)
;

boundaryField
{
    interface
    {
        type            calculated;
        value           nonuniform List<vector> 
192
(
(-0.00191059 -0.00162132 -0.00104919)
(-0.00416615 -0.0033168 -0.00142025)
(-0.00787781 -0.00471504 -0.00162046)
(-0.0121336 -0.00548589 -0.00164901)
(-0.016789 -0.00570605 -0.00161385)
(-0.0215393 -0.00547407 -0.00156398)
(-0.0261893 -0.00493815 -0.00154451)
(-0.0306371 -0.004253 -0.00158585)
(-0.00211458 -0.00176684 -0.000569384)
(-0.00471216 -0.00326332 -0.000921264)
(-0.00847275 -0.00459982 -0.00115998)
(-0.0127729 -0.00533456 -0.00128291)
(-0.0174119 -0.00554852 -0.00134443)
(-0.0221373 -0.00532921 -0.00137933)
(-0.0267727 -0.00481535 -0.00141992)
(-0.0312361 -0.00415542 -0.0014844)
(-0.00228404 -0.0018799 -0.000330644)
(-0.00502485 -0.00329776 -0.000598734)
(-0.00890189 -0.0045618 -0.000814972)
(-0.013263 -0.00524481 -0.000972013)
(-0.0179299 -0.00543048 -0.00108594)
(-0.0226691 -0.00520614 -0.00117433)
(-0.0273202 -0.00470373 -0.00125368)
(-0.031812 -0.00406301 -0.00132989)
(-0.00238962 -0.00195311 -0.000201782)
(-0.005227 -0.00334664 -0.000397683)
(-0.00920244 -0.00457279 -0.000574083)
(-0.0136331 -0.00521306 -0.000724428)
(-0.0183483 -0.0053677 -0.000851177)
(-0.0231229 -0.00512775 -0.000958583)
(-0.0278053 -0.00462369 -0.00105186)
(-0.0323304 -0.00398932 -0.00112846)
(-0.0024566 -0.00200161 -0.000127012)
(-0.0053623 -0.00339291 -0.000265747)
(-0.00941462 -0.00460259 -0.000400261)
(-0.013909 -0.00521566 -0.000525717)
(-0.0186755 -0.00534499 -0.000640064)
(-0.0234913 -0.00508755 -0.000741646)
(-0.0282094 -0.00457521 -0.000829461)
(-0.0327679 -0.00393913 -0.000896656)
(-0.00249955 -0.00203388 -7.88103e-05)
(-0.0054524 -0.00343027 -0.000171367)
(-0.00956114 -0.00463452 -0.000265543)
(-0.0141065 -0.00523207 -0.00035817)
(-0.018917 -0.00534383 -0.000446383)
(-0.0237701 -0.0050718 -0.000526924)
(-0.0285202 -0.00455011 -0.000596612)
(-0.0331075 -0.00390919 -0.000647934)
(-0.00252569 -0.00205398 -4.348e-05)
(-0.00550825 -0.0034561 -9.66581e-05)
(-0.00965401 -0.00465956 -0.000152334)
(-0.0142344 -0.00524909 -0.000208766)
(-0.0190765 -0.00535021 -0.000263827)
(-0.0239568 -0.00506823 -0.000314876)
(-0.0287306 -0.00453919 -0.000359097)
(-0.0333388 -0.00389363 -0.000390976)
(-0.00253819 -0.0020637 -1.39419e-05)
(-0.00553511 -0.00346926 -3.13019e-05)
(-0.00969918 -0.00467308 -4.97173e-05)
(-0.0142973 -0.00525928 -6.86396e-05)
(-0.0191557 -0.00535544 -8.73043e-05)
(-0.0240504 -0.00506848 -0.00010473)
(-0.0288367 -0.00453554 -0.000119831)
(-0.0334558 -0.0038874 -0.000130612)
(-0.000635403 -0.00101444 -0.00153135)
(-0.00321361 -0.00209346 -0.00127962)
(-0.00684566 -0.0030605 -0.00147336)
(-0.0111968 -0.00349197 -0.00142742)
(-0.0159606 -0.00351333 -0.0013661)
(-0.0208289 -0.00321587 -0.00129996)
(-0.0255777 -0.00272621 -0.00126861)
(-0.0300667 -0.0021535 -0.00130389)
(-2.81214e-07 -0.000200759 -0.000272431)
(-0.00243729 -0.000388509 -0.000337429)
(-0.0061052 -0.000474303 -0.000421585)
(-0.0105478 -0.000246216 -0.000513187)
(-0.0153851 0.000200765 -0.000591305)
(-0.0203167 0.000778838 -0.000656382)
(-0.0251178 0.00139974 -0.000722246)
(-0.0296415 0.00200407 -0.000798233)
(5.84085e-05 0.000717336 0.000863159)
(-0.00232184 0.00107892 0.000829464)
(-0.00592395 0.00193203 0.000684737)
(-0.0103029 0.0028361 0.000434002)
(-0.0150775 0.00377542 0.000190247)
(-0.0199552 0.0046639 -2.00005e-05)
(-0.0247165 0.00545117 -0.000192136)
(-0.029223 0.0061139 -0.000346123)
(-0.000488264 0.00196206 0.00228246)
(-0.00281636 0.00305775 0.00180608)
(-0.00621447 0.00480949 0.00175378)
(-0.010367 0.00633029 0.00133735)
(-0.0149494 0.00768306 0.0009445)
(-0.0196742 0.0087983 0.000599563)
(-0.0243229 0.00968026 0.000337417)
(-0.0287648 0.0103573 0.000149988)
(-0.00156129 0.00251514 0.00178135)
(-0.00344426 0.00469535 0.00203622)
(-0.00678938 0.00705243 0.00194621)
(-0.0107104 0.00886833 0.00158988)
(-0.0151178 0.0103006 0.0012093)
(-0.019719 0.011354 0.000878747)
(-0.024309 0.0121077 0.000635016)
(-0.0287552 0.0126714 0.000467785)
(-0.00173387 0.00267773 0.00114342)
(-0.00413136 0.00485999 0.00148047)
(-0.00744874 0.00724093 0.0014938)
(-0.0113831 0.00909298 0.00129949)
(-0.0157492 0.0105232 0.00105947)
(-0.0203161 0.0115746 0.00084094)
(-0.0248901 0.0123363 0.000671474)
(-0.029347 0.0129243 0.000542779)
(-0.00190308 0.00290464 0.000741374)
(-0.00452121 0.00501956 0.00102325)
(-0.00795392 0.0073817 0.00109233)
(-0.0119316 0.0092401 0.00101463)
(-0.0163105 0.0106785 0.000885351)
(-0.0208785 0.0117464 0.00075629)
(-0.0254553 0.0125337 0.000647114)
(-0.0299289 0.0131564 0.000551359)
(-0.00201529 0.00306706 0.000483278)
(-0.00477088 0.00515074 0.00070214)
(-0.00830825 0.00750645 0.000783951)
(-0.0123495 0.00936391 0.000766988)
(-0.0167676 0.0108113 0.000708043)
(-0.0213612 0.0118953 0.000639332)
(-0.0259595 0.0127049 0.000573829)
(-0.0304569 0.0133543 0.000506697)
(-0.00208929 0.0031762 0.000313257)
(-0.00493489 0.00525163 0.00047502)
(-0.00855305 0.00761164 0.000549254)
(-0.0126558 0.00947175 0.000558882)
(-0.0171203 0.0109267 0.000537965)
(-0.0217487 0.0120226 0.000505279)
(-0.0263757 0.0128477 0.000468518)
(-0.0308992 0.0135151 0.000423896)
(-0.00213806 0.00324769 0.000195472)
(-0.00504245 0.00532454 0.000306552)
(-0.00871847 0.0076933 0.000363728)
(-0.0128708 0.00955848 0.000380526)
(-0.0173763 0.0110197 0.000376979)
(-0.0220378 0.0121236 0.00036358)
(-0.0266923 0.0129584 0.000344504)
(-0.0312395 0.0136373 0.000316831)
(-0.00216812 0.00329122 0.000107333)
(-0.00510841 0.0053719 0.000172255)
(-0.00882167 0.00774884 0.000207888)
(-0.0130078 0.00961893 0.000221361)
(-0.0175429 0.0110848 0.00022325)
(-0.0222293 0.0121936 0.000218834)
(-0.0269045 0.013034 0.000210112)
(-0.0314695 0.0137195 0.000195189)
(-0.00218252 0.00331191 3.42466e-05)
(-0.00513994 0.00539524 5.56066e-05)
(-0.00887144 0.00777688 6.76769e-05)
(-0.0130746 0.00964988 7.26818e-05)
(-0.0176252 0.0111182 7.393e-05)
(-0.0223247 0.0122294 7.30261e-05)
(-0.0270108 0.0130722 7.05552e-05)
(-0.031585 0.0137608 6.58589e-05)
(-0.0324888 -0.00181841 -0.00129907)
(-0.0331147 -0.00172008 -0.00120431)
(-0.0337164 -0.00161666 -0.00106822)
(-0.0342583 -0.00152959 -0.000896914)
(-0.0347145 -0.00146433 -0.000705767)
(-0.0350681 -0.00142039 -0.000505935)
(-0.0353087 -0.00139417 -0.000303619)
(-0.0354304 -0.0013822 -0.000101158)
(-0.0319701 0.00233994 -0.000806085)
(-0.0326007 0.00247796 -0.000726678)
(-0.0332146 0.00261697 -0.000630568)
(-0.0337647 0.00273668 -0.000519518)
(-0.0342248 0.00283036 -0.000402547)
(-0.0345795 0.00289759 -0.000285203)
(-0.0348199 0.00294052 -0.000169793)
(-0.0349411 0.00296144 -5.63379e-05)
(-0.0315405 0.00649103 -0.000384088)
(-0.0321635 0.00668722 -0.000304927)
(-0.0327811 0.00686729 -0.000234452)
(-0.033336 0.0070204 -0.000173433)
(-0.0337989 0.007142 -0.00012267)
(-0.0341547 0.00723169 -8.08477e-05)
(-0.0343954 0.00729058 -4.57387e-05)
(-0.0345166 0.00731977 -1.47722e-05)
(-0.0311597 0.0107656 8.90355e-05)
(-0.0317765 0.0110065 0.00015536)
(-0.0323901 0.0112315 0.000195847)
(-0.0329447 0.011421 0.000202633)
(-0.0334083 0.011573 0.000181494)
(-0.0337649 0.011687 0.000141229)
(-0.0340059 0.0117631 8.90419e-05)
(-0.0341272 0.011801 3.03754e-05)
)
;
    }
    symmetry
    {
        type            symmetryPlane;
    }
    bottom
    {
        type            calculated;
        value           uniform (0 0 0);
    }
}


// ************************************************************************* //
