/*--------------------------------*- C++ -*----------------------------------*\
| =========                 |                                                 |
| \\      /  F ield         | foam-extend: Open Source CFD                    |
|  \\    /   O peration     | Version:     3.1                                |
|   \\  /    A nd           | Web:         http://www.extend-project.de       |
|    \\/     M anipulation  |                                                 |
\*---------------------------------------------------------------------------*/
FoamFile
{
    version     2.0;
    format      ascii;
    class       volVectorField;
    location    "2.1";
    object      D;
}
// * * * * * * * * * * * * * * * * * * * * * * * * * * * * * * * * * * * * * //

dimensions      [0 1 0 0 0 0 0];

internalField   nonuniform List<vector> 
256
(
(0.000221151 0.00013299 0.000223264)
(0.000105958 2.38246e-05 6.97449e-05)
(9.3368e-05 -3.86393e-05 -7.23034e-05)
(0.000179985 -0.000144752 -0.000232668)
(0.000891712 0.00054705 0.000153547)
(0.000743418 0.000146577 6.04437e-05)
(0.000711419 -0.000163737 -9.55328e-05)
(0.000791149 -0.000556047 -0.000212733)
(0.00171244 0.000842575 7.68183e-05)
(0.00156307 0.000250705 1.7041e-05)
(0.00152107 -0.000262682 -8.65099e-05)
(0.00158387 -0.00085177 -0.000172161)
(0.00266858 0.00107221 -1.82717e-05)
(0.00253405 0.000329716 -2.50053e-05)
(0.00248669 -0.000343838 -7.28086e-05)
(0.00252353 -0.0010863 -0.000106865)
(0.00371041 0.00123008 -0.000108259)
(0.00359016 0.000382013 -6.39099e-05)
(0.00354008 -0.000406833 -5.63301e-05)
(0.00355622 -0.00125491 -3.88521e-05)
(0.00479355 0.0013309 -0.000186328)
(0.00468639 0.000412281 -9.76861e-05)
(0.00463536 -0.000455117 -4.15634e-05)
(0.00463588 -0.00137075 2.30592e-05)
(0.00588473 0.0013886 -0.000248491)
(0.00578616 0.000425481 -0.000127775)
(0.00573427 -0.000491355 -3.20891e-05)
(0.00572572 -0.00144529 7.12213e-05)
(0.00697016 0.00141659 -0.000296289)
(0.00686527 0.000428874 -0.000156229)
(0.00680781 -0.00051722 -3.01399e-05)
(0.0067991 -0.00149139 9.67816e-05)
(0.000238246 0.000132222 0.000104952)
(0.000124146 2.55092e-05 3.4776e-05)
(0.000111433 -3.57744e-05 -4.04413e-05)
(0.000193136 -0.000137787 -0.00011843)
(0.000920699 0.000546048 7.69317e-05)
(0.00075605 0.000150852 2.6769e-05)
(0.000725538 -0.000157041 -6.07022e-05)
(0.000822226 -0.000545027 -0.000127022)
(0.00171348 0.000854936 2.55198e-05)
(0.00156653 0.000261099 -2.19783e-06)
(0.00152694 -0.000259886 -6.06344e-05)
(0.00158961 -0.00085148 -0.000105655)
(0.00263611 0.00108751 -4.19993e-05)
(0.00250573 0.000342266 -3.3804e-05)
(0.00246116 -0.000340461 -5.36542e-05)
(0.00249629 -0.00108595 -6.35617e-05)
(0.00364075 0.00124683 -0.000109726)
(0.00352671 0.000395987 -6.40695e-05)
(0.00347936 -0.000401656 -4.36666e-05)
(0.00349154 -0.00125205 -1.56121e-05)
(0.00468856 0.00134682 -0.000170269)
(0.00458827 0.000426673 -9.12357e-05)
(0.00453977 -0.000446717 -3.44924e-05)
(0.00453517 -0.00136245 2.9065e-05)
(0.00574837 0.00140203 -0.00021952)
(0.00565775 0.000439199 -0.00011557)
(0.00560846 -0.000478838 -2.9851e-05)
(0.00559347 -0.00142953 6.29576e-05)
(0.00680931 0.00142634 -0.000255639)
(0.00671256 0.000440782 -0.000137189)
(0.00665778 -0.000500584 -3.34032e-05)
(0.00664266 -0.00146769 7.63712e-05)
(0.000244295 0.000135004 4.54039e-05)
(0.000123119 2.73385e-05 1.47961e-05)
(0.000108673 -3.59567e-05 -2.23007e-05)
(0.000193477 -0.000139537 -5.78403e-05)
(0.000926392 0.000538377 2.76831e-05)
(0.000748067 0.00015088 5.67207e-06)
(0.000715281 -0.00015096 -3.72381e-05)
(0.000820893 -0.000532666 -6.88195e-05)
(0.00170393 0.000845876 -8.22063e-06)
(0.00154687 0.0002629 -1.50009e-05)
(0.00150507 -0.000251043 -4.04781e-05)
(0.00157359 -0.000832975 -5.6921e-05)
(0.00260422 0.00107866 -5.56697e-05)
(0.0024671 0.000345876 -3.83937e-05)
(0.00242041 -0.000328715 -3.79601e-05)
(0.00245814 -0.00106208 -3.0377e-05)
(0.00358384 0.00124011 -0.000104895)
(0.0034652 0.000401733 -6.13653e-05)
(0.00341577 -0.000387179 -3.28029e-05)
(0.00342842 -0.00122429 1.6554e-06)
(0.00460636 0.00134298 -0.00015027)
(0.00450317 0.000434493 -8.26001e-05)
(0.00445274 -0.000429547 -2.80262e-05)
(0.00444695 -0.00133125 3.21552e-05)
(0.00564266 0.00140148 -0.000187993)
(0.0055508 0.000448714 -0.000101944)
(0.0054998 -0.000459115 -2.70691e-05)
(0.00548211 -0.00139522 5.4396e-05)
(0.0066844 0.00142943 -0.000214828)
(0.00658785 0.000451653 -0.000118936)
(0.00653085 -0.00047854 -3.40075e-05)
(0.00651042 -0.00143048 5.86206e-05)
(0.000244281 0.000136067 1.61008e-05)
(0.000118597 2.80838e-05 4.63115e-06)
(0.000102728 -3.58695e-05 -1.18653e-05)
(0.000189253 -0.000139694 -2.59262e-05)
(0.000920091 0.000531443 1.30698e-06)
(0.000733651 0.000150263 -4.62296e-06)
(0.00069842 -0.000145758 -2.23641e-05)
(0.000807823 -0.000521155 -3.3917e-05)
(0.0016853 0.000834778 -2.52268e-05)
(0.00152066 0.000262787 -2.00273e-05)
(0.0014763 -0.000241643 -2.61856e-05)
(0.00154818 -0.000812752 -2.6286e-05)
(0.00256969 0.00106646 -5.9034e-05)
(0.00242655 0.000347169 -3.73304e-05)
(0.00237738 -0.000315622 -2.59074e-05)
(0.00241714 -0.00103529 -9.19508e-06)
(0.00353171 0.00122911 -9.45565e-05)
(0.00340848 0.000405059 -5.45737e-05)
(0.0033567 -0.000370906 -2.36652e-05)
(0.00337017 -0.00119284 1.19407e-05)
(0.00453617 0.00133461 -0.000128057)
(0.00442968 0.000440126 -7.09126e-05)
(0.00437708 -0.000410594 -2.17402e-05)
(0.004371 -0.00129648 3.21945e-05)
(0.00555512 0.00139646 -0.000156511)
(0.00546116 0.000456576 -8.61397e-05)
(0.00540808 -0.000437944 -2.29878e-05)
(0.00538894 -0.00135798 4.61176e-05)
(0.00658179 0.00142793 -0.00017644)
(0.00648376 0.000461645 -9.96241e-05)
(0.00642393 -0.000455479 -3.10565e-05)
(0.00640016 -0.00139124 4.51706e-05)
(0.000242395 0.000136039 2.80623e-06)
(0.00011427 2.83987e-05 9.42061e-08)
(9.74301e-05 -3.56021e-05 -5.96356e-06)
(0.000184425 -0.000138845 -9.88e-06)
(0.000910188 0.000525946 -9.92595e-06)
(0.000719119 0.000149865 -8.15546e-06)
(0.000682034 -0.00014146 -1.30188e-05)
(0.000792783 -0.000511281 -1.45479e-05)
(0.00166484 0.000825926 -2.96633e-05)
(0.00149536 0.000262734 -1.95926e-05)
(0.00144902 -0.00023346 -1.63464e-05)
(0.00152244 -0.000795506 -9.1798e-06)
(0.00253718 0.0010564 -5.36837e-05)
(0.00238977 0.000348233 -3.2182e-05)
(0.00233871 -0.000303959 -1.69661e-05)
(0.00237964 -0.00101214 2.00279e-06)
(0.00348636 0.00121967 -7.89526e-05)
(0.00335965 0.000407797 -4.48196e-05)
(0.00330613 -0.000356265 -1.62757e-05)
(0.00332022 -0.0011653 1.58387e-05)
(0.00447769 0.00132697 -0.000103137)
(0.00436853 0.000444796 -5.70283e-05)
(0.00431436 -0.0003935 -1.59267e-05)
(0.0043083 -0.00126576 2.89837e-05)
(0.00548367 0.0013912 -0.000124023)
(0.00538781 0.000463128 -6.86323e-05)
(0.00533321 -0.000418896 -1.81045e-05)
(0.00531334 -0.00132492 3.73496e-05)
(0.00649819 0.00142511 -0.000138462)
(0.00639867 0.00046998 -7.89788e-05)
(0.00633672 -0.000434802 -2.56697e-05)
(0.00631095 -0.00135641 3.41957e-05)
(0.000240362 0.000135642 -2.05811e-06)
(0.000110994 2.85347e-05 -1.39603e-06)
(9.35165e-05 -3.52929e-05 -2.76e-06)
(0.000180401 -0.000137757 -2.59136e-06)
(0.000900864 0.000521944 -1.20201e-05)
(0.000707245 0.000149723 -7.80196e-06)
(0.000668896 -0.00013815 -7.19222e-06)
(0.000779909 -0.000503583 -4.86672e-06)
(0.00164708 0.000819707 -2.58978e-05)
(0.00147468 0.00026296 -1.57981e-05)
(0.00142699 -0.000227087 -9.64826e-06)
(0.00150101 -0.000782329 -1.11726e-06)
(0.0025104 0.00104934 -4.21548e-05)
(0.00236025 0.000349352 -2.44364e-05)
(0.00230792 -0.000294803 -1.04428e-05)
(0.00234943 -0.000994433 6.01149e-06)
(0.0034503 0.00121295 -5.92081e-05)
(0.00332124 0.000410182 -3.31394e-05)
(0.00326659 -0.000344707 -1.04414e-05)
(0.00328107 -0.00114409 1.47343e-05)
(0.00443222 0.00132137 -7.56754e-05)
(0.00432119 0.000448601 -4.16627e-05)
(0.00426601 -0.000379966 -1.0761e-05)
(0.00426006 -0.00124192 2.28913e-05)
(0.00542871 0.00138706 -9.00587e-05)
(0.00533145 0.000468291 -4.9877e-05)
(0.00527587 -0.000403804 -1.29224e-05)
(0.0052557 -0.0012991 2.76691e-05)
(0.00643394 0.00142245 -9.99123e-05)
(0.00633321 0.000476419 -5.72313e-05)
(0.00626989 -0.000418419 -1.89219e-05)
(0.00624307 -0.00132905 2.42958e-05)
(0.000238835 0.000135234 -2.58075e-06)
(0.000108873 2.85921e-05 -1.31801e-06)
(9.10068e-05 -3.50396e-05 -1.1195e-06)
(0.000177628 -0.000136858 -2.62221e-08)
(0.00089403 0.000519337 -8.93111e-06)
(0.000699087 0.000149716 -5.34874e-06)
(0.000659957 -0.000135905 -3.53294e-06)
(0.000770852 -0.000498343 -9.25617e-07)
(0.00163437 0.000815801 -1.72258e-05)
(0.00146034 0.000263273 -1.01029e-05)
(0.00141182 -0.000222758 -5.01351e-06)
(0.00148603 -0.000773492 1.33765e-06)
(0.00249161 0.00104496 -2.67002e-05)
(0.00233985 0.000350303 -1.5174e-05)
(0.00228675 -0.000288569 -5.60785e-06)
(0.00232852 -0.000982593 5.33762e-06)
(0.00342539 0.00120878 -3.6609e-05)
(0.0032949 0.000411982 -2.02928e-05)
(0.00323957 -0.000336822 -5.78443e-06)
(0.00325427 -0.00112987 1.01706e-05)
(0.00440112 0.00131783 -4.62251e-05)
(0.00428892 0.000451322 -2.53488e-05)
(0.00423316 -0.000370721 -6.18936e-06)
(0.00422732 -0.00122586 1.46214e-05)
(0.00539131 0.00138433 -5.46804e-05)
(0.00529314 0.00047187 -3.02618e-05)
(0.00523701 -0.000393488 -7.71413e-06)
(0.00521673 -0.00128162 1.70482e-05)
(0.00639022 0.00142052 -6.04386e-05)
(0.00628867 0.000480797 -3.46661e-05)
(0.00622458 -0.000407216 -1.15243e-05)
(0.00619726 -0.00131047 1.46277e-05)
(0.000238033 0.000134993 -1.05916e-06)
(0.00010784 2.86127e-05 -5.09732e-07)
(8.97894e-05 -3.48997e-05 -2.89592e-07)
(0.000176229 -0.000136364 2.22719e-07)
(0.000890466 0.000518052 -3.23879e-06)
(0.000694969 0.000149738 -1.8824e-06)
(0.000655467 -0.00013477 -1.05281e-06)
(0.000766225 -0.000495696 3.54998e-09)
(0.0016278 0.00081392 -6.00287e-06)
(0.00145305 0.000263481 -3.46195e-06)
(0.00140413 -0.000220572 -1.54537e-06)
(0.00147837 -0.000769065 7.64149e-07)
(0.00248196 0.00104288 -9.12164e-06)
(0.00232947 0.000350844 -5.13645e-06)
(0.00227601 -0.000285422 -1.76103e-06)
(0.00231788 -0.000976675 2.05714e-06)
(0.00341267 0.00120679 -1.2378e-05)
(0.00328153 0.000412951 -6.8282e-06)
(0.00322589 -0.00033284 -1.84765e-06)
(0.00324069 -0.00112275 3.60726e-06)
(0.00438532 0.00131613 -1.55453e-05)
(0.00427257 0.000452741 -8.50594e-06)
(0.00421655 -0.00036605 -2.01666e-06)
(0.00421078 -0.00121781 5.02194e-06)
(0.00537234 0.00138297 -1.83391e-05)
(0.00527374 0.000473704 -1.01423e-05)
(0.00521738 -0.000388273 -2.56127e-06)
(0.00519708 -0.00127284 5.76175e-06)
(0.00636803 0.00141948 -2.02361e-05)
(0.00626611 0.000483018 -1.16092e-05)
(0.00620166 -0.000401548 -3.86361e-06)
(0.00617416 -0.00130113 4.894e-06)
)
;

boundaryField
{
    interface
    {
        type            tractionDisplacement;
        gradient        nonuniform List<vector> 
192
(
(0.0193107 0.0280853 -1.68135e-06)
(0.00908543 0.0270172 -0.000171225)
(0.010113 0.0346582 -0.0016134)
(0.00829969 0.0387089 -0.00343699)
(0.00707175 0.0415972 -0.00515196)
(0.00594892 0.0429806 -0.0066865)
(0.00536139 0.0435236 -0.00790192)
(0.00502796 0.0444448 -0.00860531)
(0.0196339 0.0290632 3.34603e-05)
(0.0105063 0.0264121 6.87716e-06)
(0.01026 0.033172 -0.000873761)
(0.00861297 0.0372456 -0.00209818)
(0.0072984 0.0401488 -0.00332937)
(0.00620926 0.0417336 -0.00450768)
(0.00561518 0.0425576 -0.00552389)
(0.00524512 0.0439883 -0.00623737)
(0.0201395 0.0295904 -0.000161833)
(0.0109035 0.0260485 -0.000425939)
(0.0105334 0.0322493 -0.00102415)
(0.00873367 0.0362294 -0.00182094)
(0.00729269 0.0391016 -0.00269529)
(0.00612992 0.040773 -0.00355618)
(0.00549733 0.0417481 -0.00433832)
(0.00501253 0.0434761 -0.00495149)
(0.0203923 0.0296644 -0.000231565)
(0.0112112 0.0257089 -0.000586256)
(0.010845 0.0316571 -0.00106037)
(0.00897365 0.0355107 -0.00162948)
(0.00744898 0.0383522 -0.00224811)
(0.00621826 0.0400562 -0.00287116)
(0.00553729 0.0411109 -0.00346142)
(0.00498512 0.0430012 -0.00396679)
(0.0204592 0.0295434 -0.000225486)
(0.011398 0.0253998 -0.000572915)
(0.0110626 0.0312193 -0.00095339)
(0.00917142 0.0350016 -0.00137481)
(0.00760462 0.0378184 -0.00181892)
(0.00632941 0.0395315 -0.00226888)
(0.00561269 0.0406212 -0.00270985)
(0.00500684 0.0425926 -0.00311292)
(0.0204431 0.0293737 -0.000177817)
(0.0115015 0.0251431 -0.000455289)
(0.0111991 0.0308937 -0.000736782)
(0.00930948 0.0346415 -0.00103518)
(0.00772482 0.0374441 -0.00134191)
(0.00642557 0.0391576 -0.00165242)
(0.00568736 0.0402584 -0.00196239)
(0.00505233 0.0422682 -0.00225542)
(0.0204058 0.0292321 -0.000111323)
(0.0115523 0.0249608 -0.000287007)
(0.0112751 0.0306742 -0.000460046)
(0.00939243 0.0344064 -0.000639773)
(0.00780144 0.0372023 -0.000821968)
(0.00649047 0.038914 -0.00100616)
(0.00574066 0.040017 -0.00119162)
(0.00509007 0.0420442 -0.00136987)
(0.0203798 0.0291544 -3.76037e-05)
(0.0115718 0.0248668 -9.7429e-05)
(0.0113077 0.0305634 -0.000155769)
(0.00942993 0.0342896 -0.000215913)
(0.00783726 0.0370828 -0.000276548)
(0.00652174 0.0387934 -0.000337831)
(0.00576646 0.0398965 -0.000399695)
(0.00510852 0.0419283 -0.000459501)
(-0.00089162 0.00852352 0.0101027)
(-0.00122176 -0.00392106 0.00122676)
(0.000920799 -0.00324634 0.00219288)
(0.00290123 -0.00390623 0.000830307)
(0.00497411 -0.00355625 0.000114577)
(0.00675591 -0.00303226 -0.000552806)
(0.00815131 -0.00243745 -0.00093387)
(0.00919138 -0.00148549 -0.00151064)
(-0.0031205 0.003359 0.00222601)
(-0.00511742 -0.00155708 0.000341262)
(-0.0026875 -0.00131122 0.000154758)
(-0.000403705 -0.00152212 -0.000295633)
(0.00195863 -0.00144183 -0.00055875)
(0.00400512 -0.00134349 -0.000770568)
(0.00569913 -0.00128379 -0.000915113)
(0.0071075 -0.00100099 -0.00130135)
(-0.00340281 -0.00407055 -0.00251621)
(-0.00558998 0.000803182 -0.000633152)
(-0.00330426 0.000687801 -0.000816521)
(-0.00101964 0.000949868 -0.000626466)
(0.00134059 0.000796927 -0.000494227)
(0.00343761 0.000519137 -0.000334484)
(0.00522843 0.000131351 -0.000186096)
(0.00665698 -0.000295447 0.000142444)
(-0.00196337 -0.0103029 -0.00969868)
(-0.00284429 0.00260244 -0.00165127)
(-0.00120572 0.00237253 -0.00277357)
(0.000644693 0.00316568 -0.00165885)
(0.00265541 0.00286779 -0.00104998)
(0.00451337 0.00232658 -0.000423982)
(0.00611776 0.00151867 5.13729e-05)
(0.00731907 0.000285671 0.000631699)
(0.0156726 -0.0255839 -0.000839068)
(0.00625176 -0.0260995 -0.00153866)
(0.00614505 -0.0345606 -0.000659463)
(0.00383126 -0.0389305 0.000956832)
(0.00224504 -0.0418722 0.00265516)
(0.000970851 -0.0431024 0.00433814)
(0.000252344 -0.0431949 0.0058462)
(0.000152163 -0.0426788 0.00699133)
(0.0154237 -0.0268445 -0.000404065)
(0.00738047 -0.0260233 -0.00062544)
(0.00604877 -0.033276 4.13062e-05)
(0.00385543 -0.0375474 0.00120036)
(0.00217598 -0.0403826 0.00245767)
(0.000898937 -0.0416962 0.00373235)
(0.000139073 -0.0419537 0.00491118)
(9.60714e-05 -0.0417474 0.00596055)
(0.0157268 -0.0271713 -6.4832e-05)
(0.00776173 -0.025778 0.000119885)
(0.00636705 -0.0324172 0.000653591)
(0.00405347 -0.0365388 0.00143644)
(0.0022536 -0.0392789 0.00233852)
(0.000886683 -0.0406136 0.00326782)
(4.86891e-05 -0.0409438 0.00417686)
(-0.000135761 -0.0407857 0.00505842)
(0.0158155 -0.0269804 8.81185e-05)
(0.00801638 -0.0254228 0.000423192)
(0.00662537 -0.0318313 0.000890519)
(0.00425671 -0.0358138 0.00147085)
(0.00237761 -0.0384885 0.00211671)
(0.000934803 -0.0398087 0.00279015)
(1.91844e-05 -0.040138 0.00347033)
(-0.0002453 -0.0399507 0.00416679)
(0.0157597 -0.0266172 0.000132188)
(0.00815385 -0.0250637 0.000476298)
(0.00678119 -0.0313715 0.00086558)
(0.00439737 -0.0352877 0.0013042)
(0.00247842 -0.0379199 0.00177122)
(0.000986397 -0.039217 0.00225617)
(1.36409e-05 -0.0395234 0.00275452)
(-0.000301936 -0.0392849 0.00328195)
(0.015657 -0.0262603 0.000119869)
(0.00821723 -0.0247586 0.000398789)
(0.0068652 -0.0310185 0.000690568)
(0.00448298 -0.0349082 0.00100386)
(0.0025463 -0.0375182 0.0013271)
(0.00102776 -0.038796 0.00165957)
(2.02631e-05 -0.0390773 0.00200339)
(-0.000321057 -0.0387908 0.00237223)
(0.0155648 -0.0259938 8.01137e-05)
(0.00824116 -0.0245414 0.000257868)
(0.00690559 -0.0307773 0.000437936)
(0.00452967 -0.0346577 0.00062709)
(0.00258658 -0.0372577 0.000818845)
(0.00105533 -0.0385229 0.00101478)
(2.86475e-05 -0.0387856 0.00121783)
(-0.000324073 -0.0384653 0.00143637)
(0.0155127 -0.025854 2.79091e-05)
(0.00824791 -0.0244294 8.86411e-05)
(0.00692115 -0.0306548 0.000149409)
(0.00454988 -0.0345326 0.000212728)
(0.00260505 -0.0371288 0.000276422)
(0.00106893 -0.0383879 0.00034131)
(3.42024e-05 -0.0386413 0.000408635)
(-0.000322963 -0.038304 0.000481078)
(0.0443991 0.00080959 -0.000911234)
(0.0439928 0.000587792 -0.000291278)
(0.0435749 0.000833833 -0.000143738)
(0.0431444 0.000973924 1.91317e-06)
(0.0427435 0.0010858 5.1276e-05)
(0.0424187 0.00115275 5.78756e-05)
(0.0421919 0.00119031 4.06555e-05)
(0.0420746 0.00120396 1.43642e-05)
(0.0407589 0.000829828 -0.000538485)
(0.0403689 0.000697229 -0.000349706)
(0.0399233 0.00078158 -0.000353271)
(0.0394539 0.000879606 -0.00029677)
(0.0389994 0.000970382 -0.000235443)
(0.038626 0.00103673 -0.000169037)
(0.0383659 0.00107939 -0.000101484)
(0.0382345 0.00110064 -3.36622e-05)
(0.0401396 -0.000888817 -0.00022911)
(0.0396738 -0.000666923 -0.000581791)
(0.0390778 -0.000585169 -0.00072557)
(0.0384919 -0.000506202 -0.00072836)
(0.0379656 -0.000435768 -0.000624154)
(0.0375473 -0.000378295 -0.000466936)
(0.0372609 -0.000338041 -0.000285819)
(0.037116 -0.000316855 -9.58978e-05)
(0.0420449 -0.00140792 -0.000110517)
(0.0412999 -0.00104385 -0.00106545)
(0.0404531 -0.00104593 -0.00131311)
(0.0396881 -0.00101323 -0.00129666)
(0.0390535 -0.000975857 -0.00109763)
(0.0385734 -0.000932485 -0.00081581)
(0.0382531 -0.000897381 -0.000497846)
(0.0380927 -0.000878242 -0.000166992)
)
;
        traction        nonuniform List<vector> 
192
(
(22.4926 -0.615851 -2.11595)
(22.8453 -0.648278 -3.67362)
(22.8572 -0.771905 -4.31496)
(22.9048 -0.685618 -4.57515)
(23.0314 -0.426737 -4.62723)
(23.2201 0.0595756 -4.51673)
(23.3911 0.943488 -4.21827)
(22.6372 2.39875 -3.61229)
(24.7985 -0.846733 -1.43357)
(25.3607 -0.874547 -2.52107)
(25.9051 -0.995796 -2.96712)
(26.3436 -0.859219 -3.13079)
(26.6141 -0.50587 -3.13424)
(26.66 0.128972 -3.00967)
(26.2264 1.2592 -2.74706)
(23.7818 2.9868 -2.31403)
(26.1776 -0.926132 -0.967709)
(26.6392 -0.930482 -1.7106)
(27.2275 -1.04199 -1.994)
(27.7134 -0.875349 -2.07785)
(27.9593 -0.461785 -2.05451)
(27.8507 0.267604 -1.95058)
(27.0292 1.53272 -1.76892)
(23.7715 3.35054 -1.51063)
(27.123 -0.949703 -0.673475)
(27.4926 -0.930778 -1.20105)
(28.0403 -1.03253 -1.39419)
(28.4997 -0.844729 -1.44072)
(28.6908 -0.392962 -1.41322)
(28.4585 0.395387 -1.33465)
(27.3896 1.73889 -1.21331)
(23.6564 3.59416 -1.05215)
(27.7832 -0.954978 -0.46637)
(28.0951 -0.916077 -0.839551)
(28.6027 -1.00748 -0.974349)
(29.0234 -0.804873 -1.00252)
(29.1633 -0.328414 -0.979235)
(28.8405 0.497232 -0.923457)
(27.6081 1.89035 -0.843663)
(23.5584 3.76643 -0.739623)
(28.2336 -0.954298 -0.30736)
(28.5122 -0.900358 -0.557436)
(28.9899 -0.982559 -0.648106)
(29.378 -0.769416 -0.665545)
(29.4786 -0.27716 -0.64882)
(29.0934 0.572065 -0.61195)
(27.7537 1.99727 -0.561324)
(23.4918 3.88605 -0.495227)
(28.517 -0.952676 -0.174045)
(28.7782 -0.888914 -0.317321)
(29.2392 -0.964314 -0.369651)
(29.6045 -0.744088 -0.379127)
(29.6793 -0.242312 -0.369242)
(29.2549 0.621299 -0.348291)
(27.8491 2.06634 -0.318894)
(23.4556 3.96062 -0.279696)
(28.6476 -0.950593 -0.0557604)
(28.8982 -0.881949 -0.101982)
(29.3515 -0.954017 -0.118909)
(29.7035 -0.730456 -0.121806)
(29.7657 -0.224365 -0.118548)
(29.3237 0.647245 -0.111766)
(27.8782 2.10364 -0.101606)
(23.4087 3.99324 -0.0876269)
(2.73237 0.538216 11.1752)
(4.83081 0.908994 8.01846)
(5.77109 0.838269 5.28822)
(6.25457 0.659765 3.56821)
(6.52713 0.560022 2.74983)
(6.72191 0.619363 2.63055)
(7.00448 0.848283 3.06036)
(7.80631 1.13191 3.9743)
(1.78036 0.496884 10.2294)
(3.33975 0.915386 8.90103)
(3.92143 0.965421 7.26725)
(4.13019 0.762352 6.11192)
(4.21204 0.525259 5.53003)
(4.30557 0.376539 5.42038)
(4.59355 0.351467 5.64517)
(5.65447 0.353375 5.89617)
(1.37343 0.415998 9.63987)
(2.80685 0.765203 9.17687)
(3.37674 0.906192 8.12519)
(3.5467 0.747218 7.28371)
(3.57352 0.493307 6.84764)
(3.62151 0.275387 6.76287)
(3.88644 0.140457 6.94397)
(4.94222 0.0484221 7.15513)
(1.27402 0.438306 8.83748)
(2.78822 0.739177 8.65164)
(3.47805 0.905847 7.7644)
(3.70043 0.760901 7.0219)
(3.73633 0.505003 6.63713)
(3.77745 0.261357 6.53732)
(4.02778 0.0457472 6.62046)
(5.01893 -0.202658 6.82887)
(-6.73292 0.532873 0.0923371)
(-5.59538 0.873312 0.315987)
(-4.49795 1.0076 0.333959)
(-3.86824 0.886809 0.288647)
(-3.56604 0.708889 0.300574)
(-3.2506 0.566442 0.431633)
(-2.45938 0.355059 0.727525)
(0.0619064 -0.702455 1.20521)
(-7.90023 0.372126 -0.319548)
(-7.68639 0.58715 -0.413144)
(-7.31069 0.742915 -0.481394)
(-7.05093 0.746135 -0.531597)
(-6.89396 0.721797 -0.506339)
(-6.64953 0.751857 -0.379014)
(-5.80623 0.75297 -0.1392)
(-2.84714 -0.147823 0.223737)
(-8.72047 0.301801 -0.352837)
(-8.75432 0.43168 -0.462064)
(-8.65299 0.591218 -0.476982)
(-8.54678 0.684112 -0.468153)
(-8.40597 0.786428 -0.406444)
(-8.02183 0.944027 -0.274323)
(-6.92635 1.04064 -0.0853253)
(-4.02188 0.290292 0.12621)
(-9.31462 0.278529 -0.289471)
(-9.40578 0.364553 -0.368622)
(-9.39458 0.527186 -0.344524)
(-9.33757 0.67849 -0.300069)
(-9.1669 0.867211 -0.226047)
(-8.69325 1.11229 -0.116362)
(-7.42163 1.27346 0.0123168)
(-4.50482 0.610609 0.146954)
(-9.73971 0.274146 -0.209162)
(-9.83678 0.343527 -0.257263)
(-9.85515 0.51408 -0.218691)
(-9.80354 0.704752 -0.164564)
(-9.59271 0.949228 -0.0963615)
(-9.03523 1.24526 -0.0136849)
(-7.67533 1.44393 0.0659252)
(-4.75803 0.834866 0.143315)
(-10.0243 0.276931 -0.13557)
(-10.111 0.343584 -0.160409)
(-10.1338 0.523559 -0.123401)
(-10.0733 0.739485 -0.0762638)
(-9.82887 1.01691 -0.0236779)
(-9.2004 1.33969 0.0323482)
(-7.79206 1.55634 0.0784159)
(-4.89598 0.981336 0.117865)
(-10.1967 0.280599 -0.0746675)
(-10.2746 0.349529 -0.0855769)
(-10.295 0.537476 -0.060372)
(-10.2247 0.768591 -0.029429)
(-9.95 1.06392 0.00311607)
(-9.27163 1.39937 0.0354247)
(-7.85051 1.62339 0.0592537)
(-4.96528 1.06682 0.0760095)
(-10.2772 0.282651 -0.0236544)
(-10.351 0.353548 -0.0266552)
(-10.3711 0.546065 -0.0179457)
(-10.292 0.78431 -0.00728126)
(-10.0001 1.08743 0.00359146)
(-9.29631 1.42807 0.0140998)
(-7.86995 1.65367 0.0215223)
(-4.99963 1.10498 0.0256454)
(7.90901 -4.21151 -1.62092)
(7.26131 -2.85704 -1.26192)
(7.13624 -1.76232 -0.917777)
(7.15125 -0.894042 -0.668134)
(7.2017 -0.241886 -0.482513)
(7.25485 0.224207 -0.33266)
(7.2966 0.515727 -0.203707)
(7.31565 0.603503 -0.0715458)
(5.66165 -5.48831 -0.374089)
(4.5991 -4.81192 -0.279287)
(4.28372 -4.04562 -0.152032)
(4.1771 -3.40051 -0.0825506)
(4.14034 -2.91633 -0.049705)
(4.13102 -2.57076 -0.031255)
(4.13461 -2.34403 -0.017911)
(4.14573 -2.21631 -0.00579889)
(4.80862 -6.4588 0.219122)
(3.63014 -5.92456 0.187649)
(3.21876 -5.33104 0.191849)
(3.04178 -4.83844 0.172115)
(2.95419 -4.47136 0.136465)
(2.90776 -4.21124 0.0974041)
(2.88334 -4.04282 0.0593857)
(2.87145 -3.95204 0.0204987)
(4.7434 -6.14779 0.628571)
(3.56077 -5.75645 0.425547)
(3.10423 -5.39605 0.332792)
(2.88739 -5.06436 0.270518)
(2.76875 -4.80507 0.209084)
(2.70011 -4.61818 0.147735)
(2.65999 -4.49865 0.0869074)
(2.63793 -4.44718 0.0283673)
)
;
        pressure        uniform 0;
        value           nonuniform List<vector> 
192
(
(0.000462534 0.000484057 0.000223243)
(0.00100528 0.000884764 0.000151406)
(0.00183885 0.0012758 5.66508e-05)
(0.00277232 0.00155607 -6.12341e-05)
(0.00379881 0.00175004 -0.000172659)
(0.00486791 0.00186815 -0.000269909)
(0.00595175 0.00193265 -0.000347265)
(0.00703301 0.00197215 -0.000403855)
(0.000483669 0.000495513 0.00010537)
(0.00105203 0.000876199 7.70177e-05)
(0.00184173 0.00126959 1.45978e-05)
(0.00274377 0.00155308 -6.82265e-05)
(0.00373198 0.00174869 -0.000151343)
(0.00476618 0.00186849 -0.000226615)
(0.00581856 0.001934 -0.000288568)
(0.00687487 0.00197619 -0.000333607)
(0.000496039 0.000504884 4.33809e-05)
(0.00106269 0.000863983 2.23589e-05)
(0.0018356 0.00124899 -2.10225e-05)
(0.00271339 0.00153153 -7.84315e-05)
(0.003675 0.00172888 -0.000138586)
(0.00468298 0.00185264 -0.000194722)
(0.00571137 0.00192333 -0.000242222)
(0.00674705 0.00197288 -0.000276722)
(0.000499185 0.000506872 1.32063e-05)
(0.00106023 0.000852804 -6.02122e-06)
(0.00182086 0.00123049 -3.84815e-05)
(0.00268186 0.00151034 -7.94025e-05)
(0.00362482 0.00170851 -0.000122658)
(0.0046139 0.00183531 -0.000163947)
(0.00562434 0.00191034 -0.000199779)
(0.0066441 0.00196544 -0.000226025)
(0.000498134 0.000505332 -1.23429e-08)
(0.00105266 0.000843443 -1.70874e-05)
(0.00180312 0.00121617 -4.15807e-05)
(0.00265182 0.00149392 -7.08688e-05)
(0.00358142 0.0016924 -0.000101689)
(0.00455681 0.00182111 -0.000131498)
(0.00555383 0.00189896 -0.000157896)
(0.00656078 0.00195752 -0.000177373)
(0.000495901 0.000502814 -4.28081e-06)
(0.00104463 0.000836232 -1.77112e-05)
(0.00178707 0.00120588 -3.51076e-05)
(0.00262677 0.00148236 -5.50946e-05)
(0.00354686 0.001681 -7.5982e-05)
(0.00451254 0.00181084 -9.63307e-05)
(0.0054998 0.00189029 -0.000114589)
(0.00649709 0.0019508 -0.000128105)
(0.000493908 0.000500635 -3.97228e-06)
(0.00103843 0.000831347 -1.25187e-05)
(0.00177531 0.00119923 -2.29764e-05)
(0.00260901 0.00147504 -3.46974e-05)
(0.0035229 0.00167381 -4.68836e-05)
(0.00448225 0.00180425 -5.88021e-05)
(0.00546307 0.00188455 -6.95757e-05)
(0.00645384 0.00194608 -7.75619e-05)
(0.000492781 0.000499423 -1.5292e-06)
(0.00103511 0.000828886 -4.45665e-06)
(0.00176915 0.00119596 -7.94998e-06)
(0.00259983 0.0014715 -1.18206e-05)
(0.00351064 0.00167033 -1.58348e-05)
(0.00446684 0.00180104 -1.97682e-05)
(0.00544442 0.00188168 -2.33353e-05)
(0.00643189 0.00194358 -2.59799e-05)
(0.000210005 0.000239534 0.000349548)
(0.00087644 0.000498036 0.000168881)
(0.00172395 0.000801995 0.000104229)
(0.00270484 0.00102338 -7.89291e-06)
(0.00377259 0.00118563 -0.000106827)
(0.004878 0.00129299 -0.000193238)
(0.00598663 0.00135814 -0.000260165)
(0.00708506 0.00139802 -0.000315172)
(6.6952e-05 6.58121e-05 9.757e-05)
(0.00067945 0.000127114 6.47095e-05)
(0.00152948 0.000234314 1.89755e-05)
(0.002529 0.000310689 -2.87007e-05)
(0.00361464 0.00036399 -7.08943e-05)
(0.00473645 0.000395488 -0.000107318)
(0.0058574 0.000409433 -0.000139214)
(0.00695412 0.000416362 -0.000172496)
(5.08329e-05 -8.95212e-05 -0.000103756)
(0.000641544 -0.000153697 -0.000103447)
(0.00147977 -0.000254084 -9.67164e-05)
(0.00247395 -0.000331965 -8.06394e-05)
(0.00355684 -0.000396871 -6.2508e-05)
(0.00467833 -0.000448628 -4.57445e-05)
(0.00579962 -0.000489713 -3.44153e-05)
(0.00689102 -0.000520913 -2.83594e-05)
(0.000155443 -0.000273538 -0.000353902)
(0.000755596 -0.000523517 -0.000233374)
(0.00156879 -0.000822113 -0.00020683)
(0.00253159 -0.00104673 -0.000127601)
(0.00358941 -0.00121906 -5.19769e-05)
(0.0046923 -0.00134166 1.77594e-05)
(0.00580219 -0.0014263 7.18634e-05)
(0.00689058 -0.00148782 0.000104678)
(0.000375893 -0.00046455 -0.000243156)
(0.000869296 -0.000882291 -0.000231966)
(0.00166068 -0.00128378 -0.000180404)
(0.00257142 -0.00157293 -9.49045e-05)
(0.00358428 -0.00177831 -5.66251e-06)
(0.00464802 -0.00190953 7.7286e-05)
(0.00572887 -0.00198522 0.000144299)
(0.006801 -0.00202487 0.000184173)
(0.000385932 -0.000473343 -0.00012348)
(0.000914482 -0.000870318 -0.00013484)
(0.00166522 -0.00126743 -0.000105139)
(0.00254449 -0.00155529 -4.85572e-05)
(0.00351874 -0.00175684 1.51088e-05)
(0.00454641 -0.00188365 7.57194e-05)
(0.00559521 -0.00195395 0.000124347)
(0.00664386 -0.00198953 0.000150878)
(0.000390062 -0.000479178 -5.86507e-05)
(0.000917915 -0.000854892 -6.7321e-05)
(0.00165318 -0.00123819 -4.87511e-05)
(0.00250881 -0.00151881 -1.24215e-05)
(0.00345659 -0.00171527 3.08869e-05)
(0.00445803 -0.00183892 7.3003e-05)
(0.00548272 -0.00190702 0.000106607)
(0.00650872 -0.0019403 0.000121851)
(0.000386947 -0.000476949 -2.48247e-05)
(0.000908028 -0.00083894 -2.86271e-05)
(0.001631 -0.00121064 -1.51545e-05)
(0.00247035 -0.00148296 9.19053e-06)
(0.00339989 -0.00167395 3.83996e-05)
(0.00438268 -0.00179409 6.70714e-05)
(0.00538918 -0.0018597 8.94967e-05)
(0.0063971 -0.00189063 9.72555e-05)
(0.000381421 -0.000471559 -8.22765e-06)
(0.000894707 -0.000824577 -8.59421e-06)
(0.0016072 -0.00118765 1.63995e-06)
(0.00243461 -0.00145323 1.83053e-05)
(0.0033512 -0.0016393 3.7979e-05)
(0.00432063 -0.00175597 5.71858e-05)
(0.00531351 -0.00181897 7.17811e-05)
(0.00630717 -0.00184747 7.52201e-05)
(0.000376113 -0.00046601 -1.093e-06)
(0.000882624 -0.000813065 1.18142e-07)
(0.00158683 -0.00117006 7.51484e-06)
(0.00240547 -0.00143079 1.85598e-05)
(0.0033129 -0.00161307 3.1323e-05)
(0.00427291 -0.00172687 4.3636e-05)
(0.00525595 -0.00178756 5.27115e-05)
(0.00623906 -0.00181394 5.39487e-05)
(0.000372189 -0.000461781 9.75199e-07)
(0.000873866 -0.000805111 2.29773e-06)
(0.00157235 -0.00115821 6.81185e-06)
(0.00238514 -0.00141581 1.31762e-05)
(0.00328661 -0.00159559 2.04062e-05)
(0.00424051 -0.00170739 2.73062e-05)
(0.00521709 -0.00176644 3.22711e-05)
(0.00619321 -0.00179129 3.25824e-05)
(0.000370138 -0.000459539 5.71583e-07)
(0.000869324 -0.000801064 1.11156e-06)
(0.00156488 -0.00115225 2.63177e-06)
(0.00237475 -0.00140833 4.71623e-06)
(0.00327325 -0.00158686 7.06253e-06)
(0.00422414 -0.00169766 9.28831e-06)
(0.0051975 -0.00175586 1.08697e-05)
(0.00617012 -0.00177993 1.09075e-05)
(0.00752515 0.00142671 -0.000307679)
(0.00735922 0.00143369 -0.00025928)
(0.00722908 0.00143985 -0.000216625)
(0.00712109 0.0014401 -0.000176416)
(0.00703249 0.00143868 -0.000137821)
(0.00696417 0.00143686 -9.91889e-05)
(0.00691762 0.0014354 -5.99304e-05)
(0.00689397 0.00143453 -2.00566e-05)
(0.00737476 0.000439247 -0.00016296)
(0.00721717 0.000449498 -0.00014156)
(0.00708689 0.000461423 -0.000123352)
(0.00697693 0.00047264 -0.000103334)
(0.00688616 0.00048211 -8.19218e-05)
(0.00681603 0.000489378 -5.93443e-05)
(0.00676825 0.000494289 -3.59346e-05)
(0.00674404 0.000496776 -1.20299e-05)
(0.00730956 -0.00052833 -3.30038e-05)
(0.0071537 -0.00050892 -4.06756e-05)
(0.00701933 -0.000485854 -4.30771e-05)
(0.00690508 -0.000461806 -4.0161e-05)
(0.00681129 -0.000440249 -3.34717e-05)
(0.00673923 -0.000423148 -2.47586e-05)