/*--------------------------------*- C++ -*----------------------------------*\
| =========                 |                                                 |
| \\      /  F ield         | foam-extend: Open Source CFD                    |
|  \\    /   O peration     | Version:     3.1                                |
|   \\  /    A nd           | Web:         http://www.extend-project.de       |
|    \\/     M anipulation  |                                                 |
\*---------------------------------------------------------------------------*/
FoamFile
{
    version     2.0;
    format      ascii;
    class       volVectorField;
    location    "2.1";
    object      D_0;
}
// * * * * * * * * * * * * * * * * * * * * * * * * * * * * * * * * * * * * * //

dimensions      [0 1 0 0 0 0 0];

internalField   nonuniform List<vector> 
256
(
(0.000204667 0.000118105 0.000193894)
(0.000102231 2.04529e-05 6.13611e-05)
(8.97684e-05 -3.38396e-05 -6.07083e-05)
(0.000163624 -0.000127165 -0.000198132)
(0.000813569 0.000486231 0.000116021)
(0.000678195 0.0001306 4.7507e-05)
(0.000646966 -0.000141379 -7.92296e-05)
(0.000715828 -0.000486859 -0.000171579)
(0.0015478 0.000749252 3.61833e-05)
(0.00141046 0.000225817 3.31108e-06)
(0.00136984 -0.000225087 -7.1519e-05)
(0.00142404 -0.000743656 -0.000130113)
(0.00239642 0.000955272 -5.69471e-05)
(0.00227182 0.00029978 -3.8483e-05)
(0.00222647 -0.000292445 -6.01174e-05)
(0.00225819 -0.000946045 -6.89084e-05)
(0.00331785 0.00109923 -0.000143079)
(0.00320572 0.000350664 -7.63437e-05)
(0.0031582 -0.000343698 -4.61873e-05)
(0.00317212 -0.00109079 -6.28334e-06)
(0.00427536 0.00119406 -0.000216964)
(0.00417474 0.000382295 -0.000108839)
(0.00412672 -0.000382304 -3.35815e-05)
(0.0041274 -0.00118998 5.0568e-05)
(0.00524204 0.00125177 -0.000275746)
(0.0051488 0.000398732 -0.000137812)
(0.00510025 -0.000410937 -2.56979e-05)
(0.00509361 -0.00125392 9.49465e-05)
(0.00620842 0.00128329 -0.000321595)
(0.00610829 0.000406357 -0.000165516)
(0.00605438 -0.000431044 -2.49317e-05)
(0.0060485 -0.00129357 0.000118235)
(0.000216197 0.000118037 8.74573e-05)
(0.000113441 2.25995e-05 2.9696e-05)
(0.000100661 -3.14777e-05 -3.30888e-05)
(0.000170796 -0.000121413 -9.71897e-05)
(0.000826444 0.000487354 5.10956e-05)
(0.000677048 0.000136329 1.80564e-05)
(0.000646893 -0.00013513 -4.93693e-05)
(0.000729575 -0.0004769 -9.81588e-05)
(0.00152865 0.000762514 -4.62195e-06)
(0.00139428 0.00023749 -1.23432e-05)
(0.00135583 -0.000221376 -4.93085e-05)
(0.00140887 -0.000742088 -7.40574e-05)
(0.00234222 0.000970961 -7.26487e-05)
(0.00222217 0.000313375 -4.43978e-05)
(0.00217948 -0.000287686 -4.35098e-05)
(0.00220879 -0.000943627 -3.31598e-05)
(0.00322669 0.00111584 -0.000139043)
(0.00312092 0.000365351 -7.44287e-05)
(0.00307607 -0.000337007 -3.50223e-05)
(0.00308572 -0.00108556 1.21355e-05)
(0.00414978 0.0012095 -0.000197668)
(0.00405609 0.000397098 -0.000101061)
(0.00401056 -0.000372471 -2.71867e-05)
(0.00400595 -0.00117932 5.40723e-05)
(0.00508593 0.00126437 -0.00024524)
(0.00500067 0.000412602 -0.000124876)
(0.00495469 -0.000397049 -2.35732e-05)
(0.00494145 -0.00123577 8.58106e-05)
(0.00602794 0.00129177 -0.000280236)
(0.00593603 0.000418138 -0.000146158)
(0.00588475 -0.000412909 -2.79753e-05)
(0.00587226 -0.00126716 9.76414e-05)
(0.000219122 0.000119867 3.43285e-05)
(0.000109747 2.42981e-05 1.15554e-05)
(9.51283e-05 -3.14678e-05 -1.74559e-05)
(0.000167701 -0.00012214 -4.41912e-05)
(0.00082224 0.000479179 9.97684e-06)
(0.000660548 0.000136711 -2.19715e-07)
(0.000627838 -0.000128909 -2.94278e-05)
(0.000717566 -0.000463452 -4.88173e-05)
(0.00150488 0.000753389 -3.01107e-05)
(0.00136139 0.000239848 -2.23232e-05)
(0.00132048 -0.000212001 -3.21452e-05)
(0.00137795 -0.000722367 -3.37093e-05)
(0.00229363 0.000962441 -7.92521e-05)
(0.00216738 0.000317693 -4.64746e-05)
(0.00212239 -0.00027517 -3.00298e-05)
(0.00215343 -0.000918583 -6.68557e-06)
(0.00315186 0.00110956 -0.000128783)
(0.00304171 0.000371815 -6.97104e-05)
(0.00299466 -0.000321608 -2.55907e-05)
(0.00300433 -0.00105656 2.46192e-05)
(0.00404921 0.00120594 -0.000173828)
(0.00395259 0.000405543 -9.09344e-05)
(0.00390506 -0.000354267 -2.15243e-05)
(0.00389911 -0.00114671 5.40658e-05)
(0.00496159 0.00126369 -0.000211101)
(0.00487495 0.000422572 -0.00011019)
(0.0048272 -0.000376142 -2.11731e-05)
(0.00481129 -0.00119965 7.53465e-05)
(0.00588387 0.00129416 -0.000237458)
(0.00579195 0.000429259 -0.000127109)
(0.00573842 -0.000389463 -2.87308e-05)
(0.00572071 -0.00122754 7.85696e-05)
(0.000217246 0.000120174 8.85197e-06)
(0.000103947 2.49108e-05 2.50841e-06)
(8.78523e-05 -3.12088e-05 -8.62477e-06)
(0.000161436 -0.000121428 -1.69662e-05)
(0.000809477 0.00047115 -1.0917e-05)
(0.000640618 0.00013606 -8.64721e-06)
(0.000605306 -0.000123425 -1.69399e-05)
(0.000697598 -0.000450504 -2.00063e-05)
(0.0014762 0.000741562 -4.0999e-05)
(0.00132584 0.00023987 -2.52598e-05)
(0.0012822 -0.000202139 -2.00993e-05)
(0.00134203 -0.000700777 -9.39184e-06)
(0.00224641 0.000949959 -7.68109e-05)
(0.00211455 0.00031932 -4.33618e-05)
(0.00206694 -0.000261471 -1.98096e-05)
(0.00209936 -0.00089056 8.89124e-06)
(0.00308527 0.00109858 -0.000113406)
(0.0029707 0.000375607 -6.10809e-05)
(0.0029212 -0.000304601 -1.78203e-05)
(0.00293132 -0.00102392 3.03384e-05)
(0.0039634 0.00119763 -0.000147437)
(0.00386349 0.000411673 -7.76839e-05)
(0.00381372 -0.000334439 -1.62109e-05)
(0.00380735 -0.0011106 5.05229e-05)
(0.0048576 0.00125852 -0.000176146)
(0.00476875 0.00043087 -9.30648e-05)
(0.00471888 -0.000353926 -1.77881e-05)
(0.00470152 -0.00116073 6.42128e-05)
(0.005764 0.00129214 -0.000196)
(0.00567042 0.000439578 -0.000106619)
(0.00561403 -0.000365166 -2.63053e-05)
(0.00559312 -0.0011862 6.26841e-05)
(0.000214166 0.000119609 -1.97776e-06)
(9.88812e-05 2.51255e-05 -1.30252e-06)
(8.17888e-05 -3.08136e-05 -3.80537e-06)
(0.000155313 -0.000119955 -3.9876e-06)
(0.000795202 0.000464576 -1.82913e-05)
(0.000622387 0.000135514 -1.08818e-05)
(0.000585138 -0.000118845 -9.28232e-06)
(0.00067795 -0.000439344 -4.9744e-06)
(0.00144859 0.000731734 -4.07963e-05)
(0.00129387 0.000239746 -2.32502e-05)
(0.00124816 -0.00019353 -1.19887e-05)
(0.00130889 -0.00068216 2.85566e-06)
(0.00220443 0.000939231 -6.66567e-05)
(0.00206859 0.000320467 -3.65366e-05)
(0.00201902 -0.000249274 -1.24252e-05)
(0.00205216 -0.0008661 1.53561e-05)
(0.00302867 0.00108875 -9.31784e-05)
(0.00291074 0.000378567 -4.96755e-05)
(0.00285944 -0.00028932 -1.17531e-05)
(0.00286994 -0.0009951 2.99074e-05)
(0.00389235 0.00118972 -0.00011821)
(0.00378978 0.000416641 -6.22383e-05)
(0.00373839 -0.000316587 -1.15041e-05)
(0.00373196 -0.00107854 4.34318e-05)
(0.00477256 0.00125293 -0.000139644)
(0.00468175 0.000437722 -7.40896e-05)
(0.00463032 -0.000333984 -1.38456e-05)
(0.00461224 -0.00112613 5.19307e-05)
(0.00566594 0.0012888 -0.000154203)
(0.00557076 0.000448167 -8.45593e-05)
(0.00551222 -0.000343448 -2.17306e-05)
(0.00548939 -0.00114952 4.84608e-05)
(0.000211348 0.000118844 -5.10908e-06)
(9.51405e-05 2.51916e-05 -2.28302e-06)
(7.73978e-05 -3.04139e-05 -1.38054e-06)
(0.000150447 -0.000118441 1.14507e-06)
(0.000782937 0.0004597 -1.74809e-05)
(0.000608036 0.000135219 -9.5655e-06)
(0.00056948 -0.000115302 -4.73743e-06)
(0.000662008 -0.00043064 1.41071e-06)
(0.00142587 0.000724595 -3.33222e-05)
(0.00126857 0.000239834 -1.82141e-05)
(0.00122146 -0.0001868 -6.70405e-06)
(0.00128238 -0.000667811 6.97222e-06)
(0.00217087 0.00093141 -5.10086e-05)
(0.0020325 0.000321543 -2.73792e-05)
(0.00198161 -0.000239672 -7.28922e-06)
(0.00201507 -0.000847213 1.52127e-05)
(0.00298433 0.00108147 -6.91435e-05)
(0.00286415 0.000381016 -3.64989e-05)
(0.00281169 -0.000277235 -7.21889e-06)
(0.00282244 -0.000972724 2.46602e-05)
(0.00383741 0.00118368 -8.64191e-05)
(0.00373299 0.000420588 -4.53451e-05)
(0.00368057 -0.000302437 -7.54141e-06)
(0.00367418 -0.00105349 3.32912e-05)
(0.00470721 0.00124838 -0.000101362)
(0.00461496 0.000443057 -5.37969e-05)
(0.00456254 -0.000318176 -9.77418e-06)
(0.00454417 -0.00109898 3.8318e-05)
(0.00559052 0.00128563 -0.000111385)
(0.00549408 0.000454767 -6.12699e-05)
(0.00543415 -0.000326245 -1.59882e-05)
(0.0054103 -0.00112067 3.47865e-05)
(0.000209338 0.000118203 -4.28702e-06)
(9.27381e-05 2.52046e-05 -1.81222e-06)
(7.45997e-05 -3.01023e-05 -3.48351e-07)
(0.00014716 -0.000117274 2.05291e-06)
(0.000774269 0.000456487 -1.20266e-05)
(0.000598337 0.000135093 -6.34142e-06)
(0.000558979 -0.00011289 -2.13417e-06)
(0.000651055 -0.000424715 2.64437e-06)
(0.00141001 0.000720001 -2.14909e-05)
(0.00125129 0.000240022 -1.14803e-05)
(0.00120333 -0.000182214 -3.30529e-06)
(0.00126419 -0.000658133 6.01163e-06)
(0.00214769 0.000926408 -3.18606e-05)
(0.00200785 0.000322419 -1.68765e-05)
(0.00195618 -0.000233117 -3.74661e-06)
(0.00198973 -0.000834491 1.07367e-05)
(0.00295397 0.00107679 -4.24832e-05)
(0.00283243 0.00038281 -2.22659e-05)
(0.00277928 -0.000268974 -3.85305e-06)
(0.00279016 -0.00095762 1.60786e-05)
(0.0038 0.00117974 -5.26571e-05)
(0.00369442 0.000423359 -2.75407e-05)
(0.00364141 -0.000292756 -4.2349e-06)
(0.00363509 -0.00103652 2.08866e-05)
(0.00466281 0.00124527 -6.15091e-05)
(0.00456964 0.000446716 -3.2618e-05)
(0.00451667 -0.00030736 -5.78493e-06)
(0.0044982 -0.00108054 2.35202e-05)
(0.00553924 0.00128329 -6.73987e-05)
(0.00544196 0.00045923 -3.71033e-05)
(0.00538125 -0.00031448 -9.71759e-06)
(0.00535693 -0.00110103 2.10314e-05)
(0.000208303 0.000117849 -1.60918e-06)
(9.15707e-05 2.52037e-05 -6.68703e-07)
(7.32454e-05 -2.99338e-05 -4.11733e-08)
(0.000145515 -0.00011665 8.91052e-07)
(0.000769821 0.000454893 -4.24275e-06)
(0.000593476 0.000135052 -2.20311e-06)
(0.000553739 -0.00011167 -5.97789e-07)
(0.000645521 -0.000421722 1.16342e-06)
(0.00140191 0.000717756 -7.39499e-06)
(0.00124257 0.000240158 -3.90968e-06)
(0.00119421 -0.000179895 -9.84782e-07)
(0.00125498 -0.000653269 2.29445e-06)
(0.00213589 0.000923977 -1.08178e-05)
(0.00199538 0.000322909 -5.69383e-06)
(0.00194334 -0.000229803 -1.14526e-06)
(0.00197692 -0.000828107 3.83787e-06)
(0.00293855 0.00107451 -1.43219e-05)
(0.00281639 0.00038376 -7.47891e-06)
(0.00276291 -0.000264796 -1.20413e-06)
(0.00277385 -0.000950037 5.56887e-06)
(0.00378105 0.0011778 -1.76864e-05)
(0.00367492 0.000424789 -9.23352e-06)
(0.00362165 -0.000287859 -1.3616e-06)
(0.00361537 -0.001028 7.11374e-06)
(0.00464033 0.00124369 -2.0622e-05)
(0.00454673 0.000448578 -1.0928e-05)
(0.00449351 -0.000301889 -1.91178e-06)
(0.00447502 -0.00107126 7.93161e-06)
(0.00551325 0.00128202 -2.25674e-05)
(0.00541558 0.000461484 -1.24232e-05)
(0.00535452 -0.000308528 -3.25374e-06)
(0.00533003 -0.00109114 7.04546e-06)
)
;

boundaryField
{
    interface
    {
        type            tractionDisplacement;
        gradient        nonuniform List<vector> 
192
(
(0.0012504 8.90088e-08 -6.27537e-06)
(0.00125106 2.32615e-07 -7.48491e-06)
(0.0012496 5.25483e-07 -7.47543e-06)
(0.00124673 8.45864e-07 -7.27339e-06)
(0.00124237 1.23213e-06 -6.95727e-06)
(0.00123606 1.75972e-06 -6.48764e-06)
(0.00122701 2.65546e-06 -5.77696e-06)
(0.00121237 4.4017e-06 -4.57372e-06)
(0.00127836 1.58951e-07 -4.18175e-06)
(0.00127813 3.40733e-07 -4.98588e-06)
(0.00127606 6.81215e-07 -4.94782e-06)
(0.00127234 1.07974e-06 -4.77587e-06)
(0.0012667 1.57845e-06 -4.5173e-06)
(0.00125852 2.26978e-06 -4.14438e-06)
(0.00124668 3.43378e-06 -3.60938e-06)
(0.00122774 5.61186e-06 -2.83028e-06)
(0.0012969 2.0556e-07 -2.92788e-06)
(0.00129628 4.22773e-07 -3.50022e-06)
(0.00129375 8.10625e-07 -3.4639e-06)
(0.00128935 1.27314e-06 -3.32432e-06)
(0.00128271 1.85533e-06 -3.11929e-06)
(0.00127309 2.65704e-06 -2.83373e-06)
(0.00125927 3.97152e-06 -2.44508e-06)
(0.00123752 6.33252e-06 -1.9299e-06)
(0.00131022 2.36666e-07 -2.12187e-06)
(0.00130939 4.82114e-07 -2.53952e-06)
(0.00130652 9.12912e-07 -2.50899e-06)
(0.00130157 1.426e-06 -2.39958e-06)
(0.00129415 2.06871e-06 -2.2415e-06)
(0.00128345 2.94405e-06 -2.02736e-06)
(0.00126819 4.35007e-06 -1.74696e-06)
(0.00124452 6.81512e-06 -1.39307e-06)
(0.00131978 2.59652e-07 -1.51365e-06)
(0.00131882 5.26652e-07 -1.81147e-06)
(0.00131569 9.91037e-07 -1.78752e-06)
(0.00131032 1.54199e-06 -1.7059e-06)
(0.0013023 2.22756e-06 -1.58946e-06)
(0.00129082 3.15197e-06 -1.43486e-06)
(0.00127453 4.6157e-06 -1.23756e-06)
(0.00124954 7.14639e-06 -9.95544e-07)
(0.00132642 2.76131e-07 -1.01788e-06)
(0.00132536 5.58719e-07 -1.21811e-06)
(0.00132204 1.04754e-06 -1.20117e-06)
(0.00131638 1.62535e-06 -1.14496e-06)
(0.00130794 2.34023e-06 -1.06545e-06)
(0.0012959 3.29691e-06 -9.61283e-07)
(0.00127891 4.79762e-06 -8.30326e-07)
(0.00125304 7.37104e-06 -6.71486e-07)
(0.00133063 2.87035e-07 -5.86262e-07)
(0.00132951 5.79709e-07 -7.01327e-07)
(0.00132607 1.08477e-06 -6.91544e-07)
(0.00132021 1.68017e-06 -6.58841e-07)
(0.00131151 2.41383e-06 -6.12817e-07)
(0.00129912 3.39091e-06 -5.5309e-07)
(0.00128169 4.9157e-06 -4.77739e-07)
(0.00125526 7.51474e-06 -3.82182e-07)
(0.00133265 2.92824e-07 -1.90632e-07)
(0.00133149 5.90077e-07 -2.27698e-07)
(0.001328 1.10224e-06 -2.24725e-07)
(0.00132205 1.70638e-06 -2.14081e-07)
(0.00131322 2.44881e-06 -1.99112e-07)
(0.00130067 3.43614e-06 -1.79825e-07)
(0.00128303 4.97701e-06 -1.55001e-07)
(0.00125626 7.58408e-06 -1.20792e-07)
(1.09308e-05 7.23725e-08 0.00114973)
(1.30776e-05 1.27851e-07 0.00114889)
(1.31548e-05 1.98457e-07 0.00114824)
(1.29808e-05 2.92527e-07 0.0011473)
(1.2715e-05 4.04896e-07 0.00114595)
(1.23458e-05 5.36693e-07 0.00114413)
(1.18492e-05 6.86119e-07 0.00114175)
(1.13079e-05 8.03277e-07 0.00113874)
(1.00547e-05 2.11513e-08 0.0010997)
(1.20342e-05 3.77271e-08 0.00109949)
(1.21003e-05 5.67502e-08 0.0010993)
(1.19489e-05 8.24212e-08 0.00109902)
(1.17254e-05 1.12105e-07 0.00109863)
(1.14243e-05 1.44074e-07 0.00109811)
(1.10382e-05 1.71046e-07 0.00109746)
(1.0708e-05 1.6209e-07 0.00109671)
(1.00418e-05 -2.70428e-08 0.00105277)
(1.20188e-05 -4.56996e-08 0.00105298)
(1.20844e-05 -6.9588e-08 0.00105321)
(1.1933e-05 -1.00411e-07 0.00105354)
(1.171e-05 -1.3707e-07 0.001054)
(1.141e-05 -1.80176e-07 0.00105463)
(1.10258e-05 -2.2871e-07 0.00105544)
(1.06983e-05 -2.6355e-07 0.00105648)
(1.09054e-05 -8.04064e-08 0.00100291)
(1.30452e-05 -1.36982e-07 0.00100376)
(1.312e-05 -2.11694e-07 0.00100444)
(1.29457e-05 -3.09713e-07 0.00100544)
(1.26804e-05 -4.27843e-07 0.00100685)
(1.23126e-05 -5.69225e-07 0.00100876)
(1.18188e-05 -7.38586e-07 0.00101129)
(1.12818e-05 -8.99354e-07 0.00101456)
(-0.000903606 -9.63547e-08 6.85177e-06)
(-0.000902881 -2.51564e-07 8.12936e-06)
(-0.000904348 -5.72774e-07 8.11249e-06)
(-0.00090722 -9.20022e-07 7.89131e-06)
(-0.000911576 -1.33875e-06 7.54482e-06)
(-0.000917854 -1.91504e-06 7.02877e-06)
(-0.00092686 -2.91625e-06 6.2435e-06)
(-0.00094155 -4.95238e-06 4.89368e-06)
(-0.000876477 -1.72336e-07 4.42126e-06)
(-0.000876696 -3.68407e-07 5.23941e-06)
(-0.000878763 -7.40343e-07 5.19106e-06)
(-0.000882477 -1.17274e-06 5.00456e-06)
(-0.000888098 -1.71422e-06 4.72407e-06)
(-0.000896245 -2.4707e-06 4.31857e-06)
(-0.000908024 -3.77243e-06 3.7342e-06)
(-0.000927051 -6.30466e-06 2.87503e-06)
(-0.000858904 -2.23527e-07 3.02815e-06)
(-0.000859518 -4.57468e-07 3.59773e-06)
(-0.000862036 -8.80012e-07 3.55226e-06)
(-0.00086643 -1.38156e-06 3.40144e-06)
(-0.000873045 -2.0136e-06 3.18024e-06)
(-0.000882602 -2.89053e-06 2.87178e-06)
(-0.000896351 -4.35875e-06 2.45083e-06)
(-0.000918167 -7.09737e-06 1.88924e-06)
(-0.00084644 -2.57774e-07 2.16159e-06)
(-0.000847264 -5.21851e-07 2.57079e-06)
(-0.000850126 -9.90306e-07 2.53274e-06)
(-0.00085506 -1.54618e-06 2.41474e-06)
(-0.000862449 -2.24345e-06 2.24466e-06)
(-0.000873069 -3.20009e-06 2.01421e-06)
(-0.000888236 -4.76849e-06 1.71208e-06)
(-0.000911949 -7.62329e-06 1.32891e-06)
(-0.000837595 -2.83051e-07 1.52365e-06)
(-0.00083856 -5.70096e-07 1.81175e-06)
(-0.000841682 -1.07445e-06 1.78199e-06)
(-0.000847026 -1.67087e-06 1.69407e-06)
(-0.000854997 -2.41412e-06 1.56902e-06)
(-0.000866396 -3.42352e-06 1.40308e-06)
(-0.00088257 -5.05455e-06 1.19126e-06)
(-0.000907581 -7.98206e-06 9.30362e-07)
(-0.000831511 -3.01135e-07 1.01526e-06)
(-0.000832571 -6.04765e-07 1.20705e-06)
(-0.000835879 -1.13523e-06 1.18601e-06)
(-0.000841519 -1.76034e-06 1.1255e-06)
(-0.000849902 -2.53489e-06 1.04024e-06)
(-0.000861845 -3.57878e-06 9.28656e-07)
(-0.000878708 -5.24964e-06 7.88457e-07)
(-0.000904589 -8.22417e-06 6.17775e-07)
(-0.000827684 -3.13066e-07 5.81157e-07)
(-0.000828802 -6.27424e-07 6.90621e-07)
(-0.00083223 -1.17521e-06 6.7841e-07)
(-0.000838059 -1.81904e-06 6.43226e-07)
(-0.000846706 -2.61357e-06 5.93914e-07)
(-0.000858993 -3.67914e-06 5.30029e-07)
(-0.000876286 -5.37574e-06 4.49542e-07)
(-0.000902707 -8.37837e-06 3.46949e-07)
(-0.000825854 -3.19376e-07 1.88378e-07)
(-0.000827006 -6.38536e-07 2.23531e-07)
(-0.000830489 -1.19398e-06 2.19753e-07)
(-0.000836409 -1.8471e-06 2.083e-07)
(-0.000845182 -2.65092e-06 1.92268e-07)
(-0.000857629 -3.72725e-06 1.71653e-07)
(-0.000875121 -5.44102e-06 1.45178e-07)
(-0.000901879 -8.45211e-06 1.08378e-07)
(1.13077e-05 -0.00113956 -9.86196e-07)
(1.18661e-05 -0.00114323 -8.3836e-07)
(1.23873e-05 -0.00114616 -6.69958e-07)
(1.27835e-05 -0.00114847 -5.21832e-07)
(1.30767e-05 -0.00115024 -3.91006e-07)
(1.32868e-05 -0.00115152 -2.72808e-07)
(1.34306e-05 -0.00115236 -1.66012e-07)
(1.35055e-05 -0.00115283 -5.78898e-08)
(1.07333e-05 -0.00109747 -3.23353e-07)
(1.10861e-05 -0.00109878 -2.9851e-07)
(1.14951e-05 -0.00109989 -2.50886e-07)
(1.18192e-05 -0.0011008 -2.02547e-07)
(1.20647e-05 -0.00110151 -1.55909e-07)
(1.22434e-05 -0.00110204 -1.10734e-07)
(1.23687e-05 -0.0011024 -6.67961e-08)
(1.24387e-05 -0.00110257 -2.25708e-08)
(1.07338e-05 -0.00105712 1.29308e-07)
(1.10872e-05 -0.00105654 1.24779e-07)
(1.1494e-05 -0.00105609 9.54584e-08)
(1.18153e-05 -0.00105577 6.74789e-08)
(1.20582e-05 -0.00105555 4.5425e-08)
(1.22347e-05 -0.00105541 2.87838e-08)
(1.23586e-05 -0.00105532 1.65634e-08)
(1.24277e-05 -0.00105528 5.73912e-09)
(1.13263e-05 -0.00101504 7.95589e-07)
(1.18919e-05 -0.00101212 6.58727e-07)
(1.24086e-05 -0.00100987 5.05786e-07)
(1.27978e-05 -0.00100817 3.78169e-07)
(1.3084e-05 -0.00100692 2.73189e-07)
(1.32882e-05 -0.00100604 1.85436e-07)
(1.34278e-05 -0.00100548 1.12584e-07)
(1.35008e-05 -0.00100515 4.00141e-08)
)
;
        traction        nonuniform List<vector> 
192
(
(26.7942 0.00190733 -0.134472)
(26.8085 0.00498462 -0.160391)
(26.7772 0.0112604 -0.160188)
(26.7157 0.0181257 -0.155858)
(26.6222 0.0264028 -0.149084)
(26.487 0.0377082 -0.139021)
(26.293 0.0569026 -0.123792)
(25.9793 0.0943222 -0.0980083)
(27.3935 0.0034061 -0.0896089)
(27.3884 0.00730142 -0.10684)
(27.3441 0.0145975 -0.106025)
(27.2645 0.0231373 -0.10234)
(27.1437 0.033824 -0.0967993)
(26.9683 0.0486382 -0.0888082)
(26.7147 0.0735809 -0.077344)
(26.3087 0.120254 -0.0606489)
(27.7907 0.00440487 -0.0627403)
(27.7773 0.00905942 -0.0750048)
(27.7233 0.0173705 -0.0742265)
(27.6289 0.0272816 -0.0712353)
(27.4865 0.039757 -0.066842)
(27.2806 0.0569365 -0.0607228)
(26.9843 0.085104 -0.0523946)
(26.5182 0.135697 -0.0413549)
(28.0762 0.00507141 -0.0454687)
(28.0584 0.010331 -0.0544183)
(27.997 0.0195624 -0.0537641)
(27.8909 0.0305572 -0.0514196)
(27.7317 0.0443295 -0.0480322)
(27.5026 0.0630869 -0.0434433)
(27.1755 0.0932158 -0.0374349)
(26.6683 0.146038 -0.0298516)
(28.2811 0.00556398 -0.0324353)
(28.2603 0.0112854 -0.0388172)
(28.1933 0.0212365 -0.038304)
(28.0783 0.0330426 -0.0365551)
(27.9065 0.0477333 -0.0340599)
(27.6604 0.0675421 -0.0307469)
(27.3113 0.0989078 -0.0265191)
(26.7759 0.153137 -0.0213331)
(28.4234 0.00591708 -0.0218117)
(28.4006 0.0119725 -0.0261023)
(28.3295 0.0224473 -0.0257394)
(28.2081 0.034829 -0.0245348)
(28.0273 0.0501478 -0.0228311)
(27.7694 0.0706481 -0.0205989)
(27.4052 0.102806 -0.0177927)
(26.8508 0.157951 -0.014389)
(28.5135 0.00615074 -0.0125628)
(28.4894 0.0124223 -0.0150284)
(28.4158 0.023245 -0.0148188)
(28.2903 0.0360036 -0.014118)
(28.1037 0.0517248 -0.0131318)
(27.8383 0.0726623 -0.0118519)
(27.4647 0.105336 -0.0102373)
(26.8984 0.16103 -0.00818961)
(28.5567 0.00627479 -0.00408497)
(28.532 0.0126445 -0.00487923)
(28.4571 0.0236193 -0.00481554)
(28.3296 0.0365652 -0.00458744)
(28.1404 0.0524745 -0.00426669)
(27.8714 0.0736316 -0.00385339)
(27.4935 0.10665 -0.00332146)
(26.9199 0.162516 -0.00258841)
(0.234232 0.00155084 24.637)
(0.280235 0.00273965 24.6191)
(0.281888 0.00425265 24.6052)
(0.278159 0.00626843 24.5849)
(0.272465 0.00867633 24.5561)
(0.264553 0.0115006 24.5171)
(0.253912 0.0147025 24.4661)
(0.242312 0.0172131 24.4015)
(0.215458 0.000453242 23.565)
(0.257875 0.000808438 23.5605)
(0.259292 0.00121608 23.5564)
(0.256048 0.00176617 23.5504)
(0.251258 0.00240225 23.542)
(0.244806 0.00308729 23.5309)
(0.236532 0.00366528 23.517)
(0.229457 0.00347336 23.5009)
(0.215181 -0.00057949 22.5593)
(0.257546 -0.000979277 22.564)
(0.258951 -0.00149117 22.5688)
(0.255708 -0.00215167 22.5758)
(0.250929 -0.00293722 22.5858)
(0.244501 -0.00386092 22.5992)
(0.236268 -0.00490093 22.6167)
(0.22925 -0.00564749 22.6389)
(0.233687 -0.00172299 21.4909)
(0.279539 -0.00293532 21.5091)
(0.281144 -0.00453631 21.5238)
(0.277407 -0.00663671 21.5451)
(0.271722 -0.00916805 21.5754)
(0.263841 -0.0121977 21.6164)
(0.253261 -0.0158268 21.6704)
(0.241752 -0.0192719 21.7405)
(-19.363 -0.00206474 0.146824)
(-19.3475 -0.00539066 0.174201)
(-19.3789 -0.0122737 0.173839)
(-19.4404 -0.0197148 0.1691)
(-19.5338 -0.0286875 0.161675)
(-19.6683 -0.0410367 0.150616)
(-19.8613 -0.0624911 0.133789)
(-20.1761 -0.106122 0.104865)
(-18.7816 -0.00369291 0.0947413)
(-18.7863 -0.00789443 0.112273)
(-18.8306 -0.0158645 0.111237)
(-18.9102 -0.0251302 0.107241)
(-19.0307 -0.0367334 0.10123)
(-19.2052 -0.0529437 0.0925409)
(-19.4577 -0.0808377 0.0800185)
(-19.8654 -0.1351 0.0616077)
(-18.4051 -0.00478987 0.064889)
(-18.4182 -0.00980289 0.0770943)
(-18.4722 -0.0188574 0.0761199)
(-18.5664 -0.0296049 0.0728881)
(-18.7081 -0.0431486 0.0681481)
(-18.9129 -0.06194 0.0615382)
(-19.2075 -0.0934018 0.0525179)
(-19.675 -0.152086 0.0404836)
(-18.138 -0.00552373 0.0463197)
(-18.1556 -0.0111825 0.0550883)
(-18.217 -0.0212208 0.054273)
(-18.3227 -0.0331325 0.0517444)
(-18.481 -0.048074 0.0480998)
(-18.7086 -0.0685733 0.0431617)
(-19.0336 -0.102182 0.0366875)
(-19.5418 -0.163356 0.0284766)
(-17.9485 -0.00606538 0.0326497)
(-17.9691 -0.0122163 0.0388231)
(-18.036 -0.023024 0.0381856)
(-18.1506 -0.0358044 0.0363015)
(-18.3214 -0.0517312 0.0336219)
(-18.5656 -0.0733611 0.0300661)
(-18.9122 -0.108312 0.0255271)
(-19.4482 -0.171044 0.0199363)
(-17.8181 -0.00645288 0.0217555)
(-17.8408 -0.0129593 0.0258653)
(-17.9117 -0.0243264 0.0254145)
(-18.0325 -0.0377215 0.0241178)
(-18.2122 -0.0543192 0.0222908)
(-18.4681 -0.0766882 0.0198998)
(-18.8294 -0.112492 0.0168955)
(-19.3841 -0.176232 0.013238)
(-17.7361 -0.00670857 0.0124534)
(-17.7601 -0.0134448 0.014799)
(-17.8335 -0.0251831 0.0145374)
(-17.9584 -0.0389794 0.0137834)
(-18.1437 -0.0560052 0.0127267)
(-18.407 -0.0788387 0.0113578)
(-18.7775 -0.115194 0.00963305)
(-19.3437 -0.179537 0.00743463)
(-17.6969 -0.00684377 0.00403667)
(-17.7216 -0.0136829 0.00478996)
(-17.7962 -0.0255853 0.00470898)
(-17.9231 -0.0395806 0.00446357)
(-18.111 -0.0568055 0.00412003)
(-18.3778 -0.0798697 0.00367828)
(-18.7526 -0.116593 0.00311095)
(-19.326 -0.181117 0.00232238)
(0.242309 -24.4191 -0.0211328)
(0.254273 -24.4977 -0.0179648)
(0.265441 -24.5605 -0.0143563)
(0.273931 -24.61 -0.0111821)
(0.280215 -24.6479 -0.00837869)
(0.284717 -24.6755 -0.00584588)
(0.287799 -24.6935 -0.0035574)
(0.289404 -24.7035 -0.0012405)
(0.229999 -23.5171 -0.006929)
(0.237559 -23.5453 -0.00639663)
(0.246324 -23.5691 -0.00537612)
(0.253268 -23.5885 -0.00434029)
(0.25853 -23.6038 -0.00334091)
(0.262358 -23.6152 -0.00237288)
(0.265043 -23.6228 -0.00143135)
(0.266544 -23.6265 -0.00048366)
(0.23001 -22.6525 0.00277088)
(0.237582 -22.6402 0.00267384)
(0.2463 -22.6305 0.00204554)
(0.253185 -22.6237 0.00144598)
(0.25839 -22.6189 0.000973392)
(0.262173 -22.6158 0.000616796)
(0.264827 -22.614 0.00035493)
(0.266308 -22.6131 0.000122981)
(0.242706 -21.7508 0.0170483)
(0.254825 -21.6882 0.0141156)
(0.265899 -21.64 0.0108383)
(0.274239 -21.6037 0.00810362)
(0.280372 -21.5769 0.00585405)
(0.284748 -21.558 0.00397363)
(0.287739 -21.5459 0.00241252)
(0.289303 -21.5389 0.000857445)
)
;
        pressure        uniform 0;
        value           nonuniform List<vector> 
192
(
(0.000421037 0.00044013 0.000190166)
(0.000915487 0.000791784 0.000104577)
(0.00166189 0.00113661 4.602e-06)
(0.00249102 0.00138508 -0.000111599)
(0.00339952 0.00155997 -0.000218703)
(0.00434526 0.00167047 -0.000311012)
(0.00530625 0.0017359 -0.000384363)
(0.00626889 0.00178128 -0.000438732)
(0.000436324 0.000446424 8.54386e-05)
(0.00094429 0.000782213 4.47207e-05)
(0.00164476 0.00113031 -2.41121e-05)
(0.00244087 0.00138232 -0.000108324)
(0.00331153 0.00155889 -0.000190354)
(0.00422326 0.00167081 -0.000263607)
(0.00515357 0.00173673 -0.000323765)
(0.00609127 0.00178396 -0.000367762)
(0.000443396 0.000451013 3.06955e-05)
(0.000944233 0.000767037 3.07254e-07)
(0.0016238 0.00110832 -4.90564e-05)
(0.00239351 0.00136042 -0.000109354)
(0.00323663 0.0015393 -0.000170482)
(0.00412185 0.0016552 -0.000226645)
(0.00502798 0.00172584 -0.000273936)
(0.00594459 0.00177962 -0.000308231)
(0.000443009 0.00044967 4.88723e-06)
(0.000934629 0.000753007 -2.12179e-05)
(0.00159847 0.00108772 -5.86539e-05)
(0.00234901 0.00133806 -0.000102723)
(0.00317192 0.00151842 -0.000147863)
(0.00403723 0.00163758 -0.000190246)
(0.00492466 0.00171239 -0.000226756)
(0.00582461 0.00177127 -0.000253301)
(0.000439597 0.000445842 -5.5137e-06)
(0.000922169 0.000741284 -2.74908e-05)
(0.00157318 0.00107126 -5.58266e-05)
(0.00230928 0.00132009 -8.79035e-05)
(0.00311719 0.00150126 -0.00012073)
(0.0039676 0.00162264 -0.000151965)
(0.00484067 0.00170029 -0.000179367)
(0.00572697 0.00176243 -0.000199345)
(0.000435795 0.000441779 -7.79652e-06)
(0.000910833 0.000732292 -2.45125e-05)
(0.00155187 0.00105917 -4.46203e-05)
(0.00227728 0.00130703 -6.67341e-05)
(0.0030743 0.00148872 -8.92917e-05)
(0.00391389 0.00161147 -0.000110925)
(0.00477632 0.00169084 -0.000130126)
(0.0056522 0.00175487 -0.000144131)
(0.000432832 0.000438634 -5.94154e-06)
(0.000902571 0.000726218 -1.63799e-05)
(0.00153679 0.00105125 -2.84478e-05)
(0.00225505 0.00129858 -4.14883e-05)
(0.00304486 0.00148059 -5.47579e-05)
(0.0038773 0.00160414 -6.75412e-05)
(0.00473262 0.00168443 -7.89619e-05)
(0.00560143 0.00174948 -8.72879e-05)
(0.000431239 0.000436955 -2.16452e-06)
(0.000898255 0.000723165 -5.71006e-06)
(0.001529 0.00104732 -9.73705e-06)
(0.00224366 0.00129442 -1.40538e-05)
(0.00302987 0.0014766 -1.84415e-05)
(0.00385874 0.00160051 -2.26776e-05)
(0.00471048 0.00168119 -2.6473e-05)
(0.00557568 0.00174662 -2.9238e-05)
(0.000198705 0.000206081 0.000304862)
(0.000810326 0.000435519 0.000127764)
(0.00157257 0.000707724 5.83618e-05)
(0.00244597 0.000907783 -5.01516e-05)
(0.00339224 0.00105676 -0.000144188)
(0.00437078 0.00115821 -0.000225357)
(0.00535388 0.00122288 -0.00028809)
(0.00633267 0.00126575 -0.000340704)
(7.07152e-05 5.58379e-05 8.52634e-05)
(0.000629567 0.000110172 5.03587e-05)
(0.00139216 0.000208474 3.72875e-06)
(0.00228105 0.000280578 -4.33516e-05)
(0.00324259 0.000332847 -8.42525e-05)
(0.00423532 0.000365903 -0.00011915)
(0.00522905 0.000383065 -0.000149741)
(0.00620517 0.000394102 -0.000182015)
(5.49505e-05 -7.62928e-05 -8.74122e-05)
(0.000592401 -0.000132271 -8.63079e-05)
(0.00134374 -0.000217794 -8.04428e-05)
(0.00222783 -0.000282553 -6.70111e-05)
(0.00318716 -0.000335511 -5.16736e-05)
(0.00418003 -0.000377179 -3.73491e-05)
(0.00517449 -0.000410195 -2.78335e-05)
(0.00614557 -0.000435355 -2.31832e-05)
(0.000144944 -0.000233605 -0.000303802)
(0.000692105 -0.000454291 -0.000189285)
(0.00142204 -0.000715 -0.000159773)
(0.00227905 -0.000909755 -8.63277e-05)
(0.00321694 -0.00105829 -1.71123e-05)
(0.00419419 -0.00116369 4.64877e-05)
(0.00517956 -0.00123679 9.59828e-05)
(0.00614911 -0.00129124 0.000126145)
(0.000336719 -0.000413636 -0.000204929)
(0.000784568 -0.0007791 -0.000181398)
(0.0014918 -0.00112726 -0.00012661)
(0.00230099 -0.0013767 -4.50344e-05)
(0.00319799 -0.00155362 3.8259e-05)
(0.00413972 -0.00166714 0.000115329)
(0.00509849 -0.00173356 0.000177963)
(0.00605245 -0.00176917 0.000215454)
(0.000340901 -0.000417076 -9.96823e-05)
(0.000810378 -0.000764571 -9.91597e-05)
(0.00147534 -0.0011088 -6.45879e-05)
(0.0022517 -0.00135688 -8.45082e-06)
(0.00311071 -0.00153017 5.27189e-05)
(0.00401736 -0.00163929 0.000110464)
(0.00494487 -0.0017 0.000156869)
(0.0058755 -0.00173079 0.00018205)
(0.000339607 -0.000417249 -4.33115e-05)
(0.00080233 -0.000745369 -4.27033e-05)
(0.00144767 -0.00107703 -1.90687e-05)
(0.00219836 -0.00131858 1.88754e-05)
(0.00303011 -0.00148719 6.20593e-05)
(0.00391038 -0.00159309 0.000103454)
(0.00481371 -0.0016511 0.000136358)
(0.0057213 -0.00167875 0.000150972)
(0.000332836 -0.000411067 -1.47433e-05)
(0.000784856 -0.000726073 -1.15539e-05)
(0.00141438 -0.00104669 6.38696e-06)
(0.00214645 -0.00128061 3.30455e-05)
(0.00295849 -0.00144412 6.33401e-05)
(0.00381922 -0.00154655 9.24952e-05)
(0.00470368 -0.00160177 0.000115122)
(0.00559255 -0.00162656 0.000122734)
(0.000324861 -0.000403009 -1.58361e-06)
(0.000766398 -0.000709042 3.14532e-06)
(0.00138275 -0.00102113 1.69612e-05)
(0.00210075 -0.00124867 3.58877e-05)
(0.00289826 -0.00140754 5.70151e-05)
(0.0037445 -0.00150659 7.71745e-05)
(0.00461443 -0.00155907 9.23731e-05)
(0.00548827 -0.00158116 9.59184e-05)
(0.000317927 -0.000395694 3.13078e-06)
(0.000750876 -0.000695561 7.81795e-06)
(0.00135699 -0.00100146 1.78049e-05)
(0.00206456 -0.00122429 3.06598e-05)
(0.00285154 -0.00137955 4.47332e-05)
(0.00368725 -0.00147582 5.79939e-05)
(0.0045465 -0.00152596 6.77121e-05)
(0.00540902 -0.00154577 6.91404e-05)
(0.000312997 -0.000390378 3.32997e-06)
(0.000739988 -0.000686311 6.67805e-06)
(0.00133912 -0.000988157 1.27542e-05)
(0.0020397 -0.00120791 2.02706e-05)
(0.00281973 -0.00136075 2.83801e-05)
(0.0036485 -0.00145509 3.59429e-05)
(0.00450068 -0.00150358 4.13668e-05)
(0.00535567 -0.00152181 4.1835e-05)
(0.000310465 -0.000387618 1.32919e-06)
(0.000734425 -0.000681622 2.53469e-06)
(0.00133002 -0.000981461 4.57651e-06)
(0.00202709 -0.0011997 7.05483e-06)