/*--------------------------------*- C++ -*----------------------------------*\
| =========                 |                                                 |
| \\      /  F ield         | foam-extend: Open Source CFD                    |
|  \\    /   O peration     | Version:     3.1                                |
|   \\  /    A nd           | Web:         http://www.extend-project.de       |
|    \\/     M anipulation  |                                                 |
\*---------------------------------------------------------------------------*/
FoamFile
{
    version     2.0;
    format      ascii;
    class       volSymmTensorField;
    location    "2.1";
    object      epsilon;
}
// * * * * * * * * * * * * * * * * * * * * * * * * * * * * * * * * * * * * * //

dimensions      [0 0 0 0 0 0 0];

internalField   nonuniform List<symmTensor> 
256
(
(-0.0050725 0.00723246 -0.000304649 0.0189278 0.00306713 -0.00195021)
(-0.00175632 0.00634675 -0.00090548 0.00443468 0.00115845 -0.000747161)
(0.000748204 0.00588119 -0.000918365 -0.0048584 -0.00146936 0.000803232)
(0.0037957 0.00598948 -0.000387551 -0.01834 -0.00362542 0.0020407)
(-0.00903388 0.00305094 -0.000369169 0.0118119 -0.00142371 -0.00280105)
(-0.0038023 0.00778067 -0.00145934 0.00465947 -0.0005949 -0.00105441)
(0.00132291 0.00761694 -0.00150425 -0.00367477 0.000250324 0.00129471)
(0.0064663 0.00299897 -0.000569648 -0.0110239 0.000940917 0.00320191)
(-0.00770472 0.00352904 -0.000180038 0.0109981 -0.000812539 -0.00138152)
(-0.00400776 0.00730475 -0.00105877 0.00425667 -0.00031817 -0.000456078)
(0.000850481 0.00731947 -0.00110196 -0.00287703 2.59601e-05 0.000938506)
(0.00472755 0.00359159 -0.000401469 -0.0097454 0.000482988 0.00211855)
(-0.00675488 0.00298684 -0.000193574 0.0081549 -0.000997002 -0.000596298)
(-0.00370009 0.00649039 -0.000921406 0.00336063 -0.000343652 -0.00010268)
(0.000342541 0.00655377 -0.00094886 -0.00194853 0.000125513 0.000781215)
(0.00353222 0.00312148 -0.000421431 -0.00680643 0.000764593 0.00153984)
(-0.005632 0.00252241 -0.00016259 0.00584568 -0.000872111 0.000208607)
(-0.00329774 0.0054798 -0.000786732 0.00252932 -0.000280464 0.000229749)
(-4.86977e-05 0.00557663 -0.000805692 -0.00121827 0.000135789 0.000568518)
(0.00234294 0.00270657 -0.000384663 -0.00449151 0.000744792 0.000856714)
(-0.00474886 0.00191122 -0.000177953 0.00390085 -0.000747425 0.000810765)
(-0.00292624 0.00435039 -0.000720487 0.00179912 -0.000238316 0.000473277)
(-0.000309415 0.00449133 -0.000720496 -0.000658992 0.000131693 0.000381123)
(0.0014714 0.00218506 -0.000369464 -0.00259187 0.000697795 0.000287996)
(-0.00419603 0.00122796 -0.000246054 0.00265434 -0.000633347 0.0012952)
(-0.00271871 0.00318578 -0.000719712 0.00127697 -0.000237389 0.000679163)
(-0.000468319 0.00333 -0.000690797 -0.000259613 9.09065e-05 0.000205852)
(0.000963769 0.00160867 -0.000374104 -0.00128996 0.000576034 -0.00021161)
(-0.00443629 0.000747315 -0.000341696 0.00197308 -0.000359231 0.00170419)
(-0.00323918 0.00188142 -0.000746586 0.00116037 -0.000152137 0.000859587)
(-0.000390333 0.00184156 -0.000725302 9.28338e-05 8.86567e-06 2.94821e-05)
(0.00103323 0.000835635 -0.000444865 -0.000566756 0.000236062 -0.000665113)
(-0.00508387 0.00780353 -0.000163841 0.0184553 0.00168885 -0.0012882)
(-0.00161143 0.00708814 -0.000701483 0.00435419 0.00059862 -0.000518438)
(0.000679959 0.00668137 -0.000771414 -0.00431637 -0.000987854 0.000532173)
(0.00378452 0.00662623 -0.000347398 -0.0174003 -0.00228802 0.0014077)
(-0.00899798 0.00289698 -0.00021995 0.012935 -0.000881595 -0.00217553)
(-0.0034548 0.00764574 -0.00130529 0.00523565 -0.000414931 -0.000868446)
(0.00119601 0.00755363 -0.00146729 -0.00417471 -2.42056e-05 0.0010088)
(0.00644677 0.00295526 -0.000632072 -0.0121218 0.000324715 0.00260528)
(-0.00749073 0.00295832 -7.15255e-05 0.0110157 -0.00131533 -0.00133503)
(-0.0035361 0.0064615 -0.00107306 0.00429568 -0.000514666 -0.00051554)
(0.000738634 0.00649979 -0.0012569 -0.00293474 0.000195438 0.000861817)
(0.00461719 0.00303447 -0.000549559 -0.00977908 0.000942696 0.00207356)
(-0.00642344 0.00239592 2.34119e-05 0.00818283 -0.00143987 -0.000459976)
(-0.00317284 0.00548577 -0.000825579 0.00337136 -0.000505076 -0.00016123)
(0.000235121 0.00554912 -0.00101096 -0.00196655 0.000316643 0.000664913)
(0.00332586 0.00251975 -0.00048257 -0.0068262 0.00123993 0.00139502)
(-0.00529712 0.00192773 0.000105896 0.00574301 -0.00135327 0.000333705)
(-0.00277693 0.00448535 -0.000633626 0.00248833 -0.000444972 0.000146206)
(-0.000141027 0.00457115 -0.000814002 -0.00115613 0.000364955 0.00045868)
(0.00212963 0.00209627 -0.000398464 -0.0043533 0.00130695 0.000709634)
(-0.00441987 0.00139674 0.000131459 0.00377292 -0.00116864 0.000974098)
(-0.00243014 0.00349188 -0.000520241 0.00174936 -0.000374855 0.000392692)
(-0.000403401 0.0036155 -0.000679357 -0.000544746 0.000347389 0.000271456)
(0.00124267 0.00165808 -0.000334114 -0.00237688 0.00122856 0.00010508)
(-0.00388172 0.000811587 8.87554e-05 0.00249118 -0.000924504 0.00147152)
(-0.00226119 0.00253052 -0.000503552 0.0011993 -0.000317835 0.000594135)
(-0.000571091 0.00266462 -0.000631225 -0.000107802 0.000258121 0.000112178)
(0.000725413 0.00121272 -0.00030084 -0.000991838 0.00100179 -0.000396404)
(-0.00413157 0.000538361 -3.2661e-05 0.00184722 -0.000513939 0.00186426)
(-0.00282781 0.00154967 -0.000604132 0.00110019 -0.000190225 0.000752636)
(-0.000534316 0.00150057 -0.000752821 0.000216432 0.000106735 -5.56733e-05)
(0.000767973 0.000648647 -0.000417299 -0.000323123 0.000519117 -0.000844692)
(-0.0052983 0.00799036 -0.000105573 0.0184194 0.0006603 -0.000720261)
(-0.00171231 0.00713697 -0.000428694 0.00439058 0.000186702 -0.00027575)
(0.000717572 0.00669648 -0.000487173 -0.00417663 -0.000575804 0.000322439)
(0.00391763 0.00670466 -0.000237916 -0.0172104 -0.00116026 0.000828176)
(-0.00942212 0.00285174 -0.000179468 0.0126571 -0.000679474 -0.00127945)
(-0.00366825 0.0075501 -0.000856475 0.00525051 -0.000343185 -0.000465635)
(0.00128367 0.00745727 -0.000992317 -0.0040395 -5.72875e-05 0.00065877)
(0.00673501 0.00290224 -0.000479099 -0.0117317 0.000240289 0.00162637)
(-0.00781817 0.00283528 -0.000114145 0.0109604 -0.0010902 -0.000831199)
(-0.00371262 0.00623815 -0.00078563 0.00434609 -0.000449474 -0.000249967)
(0.000801184 0.00627621 -0.000941444 -0.00286226 0.000165456 0.000632762)
(0.00483236 0.00289029 -0.000457086 -0.00958493 0.000791158 0.00141302)
(-0.00661728 0.00224921 -4.26467e-05 0.00818524 -0.00124381 -0.000222074)
(-0.00327974 0.00515481 -0.000631026 0.00340978 -0.000455862 1.31408e-05)
(0.000236977 0.00521828 -0.000787728 -0.00189213 0.000307307 0.000526842)
(0.00340421 0.00236346 -0.000395557 -0.00669033 0.00110052 0.000981241)
(-0.00541808 0.00175819 1.99896e-05 0.00578243 -0.00120916 0.000388898)
(-0.00284558 0.00413302 -0.000480565 0.0025291 -0.000407234 0.000262293)
(-0.000177705 0.00422565 -0.000630892 -0.00108634 0.000376771 0.000389977)
(0.00212546 0.00193882 -0.000321908 -0.00424739 0.00121248 0.000484407)
(-0.00448385 0.00122905 4.77317e-05 0.00383519 -0.00106439 0.000914903)
(-0.00246948 0.00316845 -0.000386644 0.00178566 -0.000339105 0.000472745)
(-0.000471882 0.0033113 -0.000519164 -0.00047377 0.000375941 0.000257132)
(0.00116712 0.00153345 -0.000259596 -0.00228495 0.00117273 2.08254e-05)
(-0.00389476 0.000652027 2.09605e-05 0.00257911 -0.000838427 0.00133314)
(-0.00227809 0.00227782 -0.0003865 0.0012298 -0.000268033 0.00064508)
(-0.000673117 0.00244358 -0.000498668 -3.81801e-05 0.000295526 0.000149136)
(0.000583742 0.00113447 -0.000235879 -0.000903867 0.000977982 -0.000361596)
(-0.0041028 0.000449746 -9.82462e-05 0.00193415 -0.000430505 0.00162292)
(-0.00285195 0.00141691 -0.000537815 0.00114045 -0.000135044 0.000767076)
(-0.000713345 0.00138532 -0.000681703 0.000284192 0.00012439 7.10009e-05)
(0.000543177 0.000614416 -0.000380268 -0.000243554 0.000492763 -0.000623029)
(-0.0054356 0.00798821 -5.23045e-05 0.0183097 0.00011553 -0.000342954)
(-0.00179717 0.00702338 -0.00024104 0.00438902 -1.58388e-05 -0.000120864)
(0.000729953 0.00654586 -0.000279678 -0.00407354 -0.000320995 0.00019356)
(0.00399359 0.00661274 -0.000142853 -0.0169772 -0.000509263 0.000451487)
(-0.00971547 0.00279899 -0.000100028 0.0123752 -0.000554989 -0.000589599)
(-0.00385927 0.00745029 -0.000516082 0.00522181 -0.000278188 -0.00018014)
(0.00131003 0.00734779 -0.000607342 -0.00386893 -4.57562e-05 0.000419192)
(0.00690961 0.00284419 -0.000307177 -0.0113472 0.000225871 0.000912784)
(-0.00810838 0.00279269 -8.23902e-05 0.010839 -0.000830846 -0.000301185)
(-0.00391288 0.00614878 -0.000525037 0.00436559 -0.000348017 -2.27788e-05)
(0.000814775 0.00618606 -0.000629976 -0.00272856 0.00012719 0.000441115)
(0.0050049 0.0028423 -0.000316615 -0.00931085 0.000615846 0.000821247)
(-0.00685126 0.002203 -4.68227e-05 0.00816602 -0.000952035 0.000120743)
(-0.00345299 0.00505501 -0.000451444 0.00345404 -0.000353008 0.000176026)
(0.000220549 0.00512196 -0.000554535 -0.00178263 0.000249268 0.000396941)
(0.00351649 0.00232223 -0.000281648 -0.00650384 0.000861317 0.000560885)
(-0.00558816 0.00170598 -8.94612e-06 0.00583115 -0.00094534 0.000570961)
(-0.00299034 0.0040285 -0.000360602 0.00258941 -0.000318181 0.000373397)
(-0.000221666 0.00413178 -0.000456748 -0.000998726 0.000317597 0.000321033)
(0.0021698 0.00190752 -0.000230313 -0.00412414 0.000973315 0.000230434)
(-0.00459824 0.0011717 8.42806e-06 0.00392542 -0.000851429 0.000979494)
(-0.00258787 0.00306987 -0.000303537 0.00185095 -0.000266902 0.000548593)
(-0.000539247 0.00323328 -0.000386195 -0.000403217 0.000326716 0.000243043)
(0.00114775 0.00151829 -0.00018597 -0.00220269 0.000964043 -9.31239e-05)
(-0.00395841 0.000590749 -1.6481e-05 0.00269916 -0.000685091 0.00131346)
(-0.00237679 0.00219894 -0.000326913 0.00129472 -0.000209386 0.000698193)
(-0.00077053 0.0023915 -0.00039717 1.98656e-05 0.000263738 0.000189864)
(0.000497454 0.00113557 -0.000177483 -0.000840078 0.00081908 -0.000352636)
(-0.00413149 0.000416793 -0.00013345 0.002064 -0.000362321 0.00154377)
(-0.00296205 0.00137263 -0.000501243 0.00121589 -0.000105041 0.000815931)
(-0.000879161 0.00135164 -0.000599099 0.000333358 0.000114344 0.000188249)
(0.000377429 0.000616195 -0.000319441 -0.000208473 0.000417994 -0.000474617)
(-0.00551018 0.00792248 -2.0084e-05 0.0181735 -0.00011801 -0.000123791)
(-0.0018498 0.00688037 -0.000125554 0.00437871 -9.24641e-05 -3.20129e-05)
(0.000727026 0.00637619 -0.000149599 -0.00398374 -0.000170411 0.000114691)
(0.00401892 0.00648294 -7.95568e-05 -0.0167288 -0.000173832 0.000227071)
(-0.00989526 0.00274415 -4.41274e-05 0.0121823 -0.000443105 -0.000160669)
(-0.00398296 0.00734171 -0.000289723 0.00520131 -0.000215885 -7.13009e-06)
(0.00130293 0.00723274 -0.000347707 -0.00372321 -2.81206e-05 0.000263234)
(0.00698671 0.00279029 -0.000181486 -0.0110587 0.000203842 0.000463299)
(-0.00831773 0.00276048 -4.62526e-05 0.0107376 -0.00061057 7.42388e-05)
(-0.00405438 0.00608673 -0.000326114 0.00437978 -0.000254173 0.00012825)
(0.000801814 0.00612585 -0.000393011 -0.00260013 9.5121e-05 0.000300789)
(0.00510431 0.00281288 -0.000199891 -0.00907343 0.000463219 0.000407223)
(-0.00704509 0.00218356 -3.32763e-05 0.00814254 -0.000689227 0.000397362)
(-0.00358685 0.00501862 -0.000300846 0.00349326 -0.000254156 0.000290937)
(0.000196165 0.00509072 -0.000364973 -0.0016745 0.000187292 0.000290074)
(0.00359394 0.00231286 -0.000183736 -0.00632792 0.000636362 0.000235921)
(-0.00574871 0.00169044 -1.50936e-05 0.00586454 -0.000690589 0.000746051)
(-0.00310888 0.00400471 -0.000255329 0.00264406 -0.000230099 0.0004552)
(-0.000259249 0.00411764 -0.000313348 -0.000911556 0.000242664 0.00025462)
(0.00221122 0.00191204 -0.000153287 -0.00400125 0.000725408 1.19675e-05)
(-0.00472257 0.00115422 -8.84971e-06 0.00399264 -0.000633809 0.00107396)
(-0.00268955 0.00305196 -0.00022963 0.0019104 -0.000195679 0.000607788)
(-0.000590417 0.00323067 -0.000277883 -0.00033521 0.000253155 0.000218192)
(0.00114777 0.00153352 -0.000127346 -0.00211768 0.000728277 -0.000210037)
(-0.00404808 0.000568239 -3.45978e-05 0.00278559 -0.000521484 0.00135138)
(-0.00246703 0.00218547 -0.000267308 0.00135242 -0.000155568 0.0007454)
(-0.000842402 0.00239523 -0.000307734 7.28929e-05 0.000206267 0.000208223)
(0.000451082 0.00115698 -0.000131217 -0.000775658 0.000625601 -0.000376244)
(-0.00420144 0.000405584 -0.00014082 0.00215384 -0.000279191 0.00153648)
(-0.00306555 0.00136555 -0.000434739 0.00127882 -7.7728e-05 0.000859587)
(-0.000997789 0.00134763 -0.000495251 0.000379532 8.94215e-05 0.000259576)
(0.000278705 0.000626959 -0.000256219 -0.000168228 0.000320116 -0.000400935)
(-0.00554519 0.00784912 -3.73885e-06 0.0180506 -0.000174254 -2.21858e-06)
(-0.00188038 0.00675712 -5.97709e-05 0.00436968 -9.97167e-05 1.59163e-05)
(0.000719266 0.00623516 -7.4075e-05 -0.0039108 -8.45344e-05 6.69256e-05)
(0.00401814 0.00636668 -4.10568e-05 -0.0165138 -2.4467e-05 9.7515e-05)
(-0.00999372 0.00269624 -1.23645e-05 0.012061 -0.000325278 8.79387e-05)
(-0.00405745 0.00724375 -0.000150322 0.00519241 -0.000154344 8.95451e-05)
(0.00128599 0.00713107 -0.000185479 -0.00361205 -1.43104e-05 0.000164618)
(0.00700837 0.002746 -9.92435e-05 -0.0108552 0.000162495 0.000194006)
(-0.00844964 0.00273211 -1.96594e-05 0.0106708 -0.000420557 0.000309687)
(-0.00414453 0.00603384 -0.000187233 0.00439393 -0.00017288 0.000217701)
(0.000782687 0.00607547 -0.000227914 -0.00249821 6.69461e-05 0.000205068)
(0.00515226 0.00278977 -0.000116095 -0.00889679 0.000325256 0.000142514)
(-0.00717803 0.00217025 -1.75234e-05 0.00812603 -0.000466403 0.000585967)
(-0.0036765 0.00499703 -0.000184688 0.0035248 -0.000170002 0.000362246)
(0.000173936 0.00507385 -0.000222865 -0.00158632 0.000129752 0.000211386)
(0.00363733 0.00230962 -0.000110296 -0.0061902 0.000437455 1.41138e-05)
(-0.00586742 0.00168411 -1.08831e-05 0.00588483 -0.000468566 0.000880246)
(-0.00319108 0.00400086 -0.000166263 0.00268596 -0.00015417 0.000508637)
(-0.000286588 0.00412124 -0.000199867 -0.000839207 0.000168714 0.000200384)
(0.0022385 0.00192186 -9.43569e-05 -0.00389887 0.000498655 -0.000149625)
(-0.00482134 0.00114843 -1.12576e-05 0.00403392 -0.000435702 0.00116286)
(-0.002762 0.00305523 -0.000159578 0.00195442 -0.000132897 0.00064945)
(-0.000624478 0.0032446 -0.00018661 -0.000278698 0.000176689 0.000191774)
(0.00115196 0.0015512 -8.14671e-05 -0.00204289 0.000503398 -0.000308358)
(-0.00412619 0.000558329 -3.39875e-05 0.00283707 -0.000364594 0.00140851)
(-0.00253311 0.00218933 -0.000198274 0.00139348 -0.000107334 0.000781796)
(-0.000888918 0.00241024 -0.000220476 0.000116208 0.0001441 0.000211411)
(0.000427271 0.00117688 -9.05824e-05 -0.000717787 0.000434615 -0.000413847)
(-0.00426989 0.000400042 -0.000117126 0.00220941 -0.000197844 0.00156952)
(-0.00314276 0.00136736 -0.000333243 0.00132369 -5.40055e-05 0.00089503)
(-0.00107299 0.00135043 -0.000368911 0.0004178 6.22695e-05 0.000294248)
(0.000223725 0.000635729 -0.000186714 -0.000129117 0.000222995 -0.000381376)
(-0.0055595 0.00779263 1.6896e-06 0.0179613 -0.000134981 6.07527e-05)
(-0.00189697 0.00667099 -2.48882e-05 0.0043639 -7.09387e-05 4.0006e-05)
(0.000711981 0.00613817 -3.24519e-05 -0.00385955 -3.71954e-05 3.96419e-05)
(0.00400937 0.00628378 -1.87755e-05 -0.0163596 2.0245e-05 2.70193e-05)
(-0.0100429 0.00266173 4.29798e-08 0.0119906 -0.000199078 0.000220495)
(-0.00409905 0.00717167 -6.87217e-05 0.00519016 -9.2777e-05 0.000139329)
(0.00127043 0.00705705 -8.75828e-05 -0.00353739 -5.91651e-06 0.000106545)
(0.00700728 0.002715 -4.78783e-05 -0.0107248 0.000104468 4.35842e-05)
(-0.00852458 0.00271051 -5.99969e-06 0.0106325 -0.000247314 0.000441659)
(-0.00419689 0.00599356 -9.39773e-05 0.00440588 -0.000100561 0.000265645)
(0.000766642 0.00603727 -0.000115855 -0.00242892 4.00617e-05 0.000145901)
(0.00517199 0.00277284 -5.89309e-05 -0.00878138 0.000193713 -1.17715e-05)
(-0.00725822 0.00216018 -7.29246e-06 0.0081171 -0.000270658 0.000697592)
(-0.00373025 0.00498105 -9.80627e-05 0.00354701 -9.76257e-05 0.000401949)
(0.000157902 0.00506128 -0.000118276 -0.00152565 7.62791e-05 0.000160496)
(0.00365862 0.00230713 -5.75812e-05 -0.00609815 0.000256357 -0.000120678)
(-0.0059426 0.00168012 -5.8174e-06 0.00589637 -0.000272011 0.000965959)
(-0.00324143 0.00399967 -9.25989e-05 0.00271376 -8.85986e-05 0.000539953)
(-0.000304045 0.00412502 -0.000110023 -0.00078889 9.90268e-05 0.000163153)
(0.00225373 0.00192892 -5.03923e-05 -0.00382779 0.000291453 -0.000253166)
(-0.00488673 0.00114564 -8.1547e-06 0.00405623 -0.000254971 0.00122647)
(-0.0028071 0.00306019 -9.35337e-05 0.00198243 -7.71681e-05 0.000675666)
(-0.000644775 0.00325623 -0.000107183 -0.000239241 0.000103656 0.000171131)
(0.00115583 0.00156342 -4.51043e-05 -0.00198894 0.000294635 -0.000376736)
(-0.00418073 0.000553088 -2.38373e-05 0.00286387 -0.000215749 0.00145655)
(-0.00257487 0.00219434 -0.000121675 0.00141866 -6.31008e-05 0.000806329)
(-0.000915807 0.00242186 -0.000132689 0.000146317 8.43811e-05 0.00020852)
(0.000416316 0.00118994 -5.32843e-05 -0.000675232 0.000254764 -0.000447455)
(-0.00432049 0.000397264 -7.66208e-05 0.00223879 -0.000118448 0.00160556)
(-0.0031922 0.00137016 -0.000208234 0.00135112 -3.19376e-05 0.000919387)
(-0.00111596 0.00135313 -0.000226981 0.000444914 3.63813e-05 0.000308187)
(0.000196224 0.000641016 -0.000113546 -9.846e-05 0.000130778 -0.000384525)
(-0.00556411 0.00776268 1.16e-06 0.0179148 -4.9544e-05 8.72821e-05)
(-0.00190423 0.00662731 -6.57615e-06 0.00436117 -2.52795e-05 4.99046e-05)
(0.000707792 0.00608932 -8.93568e-06 -0.00383319 -1.02696e-05 2.72185e-05)
(0.00400276 0.00624126 -5.33196e-06 -0.0162799 1.21134e-05 -3.98897e-06)
(-0.0100627 0.00264382 1.16846e-06 0.0119582 -6.70269e-05 0.000277317)
(-0.00411759 0.0071339 -1.94806e-05 0.00519016 -3.09635e-05 0.000160088)
(0.00126155 0.00701844 -2.54117e-05 -0.00349992 -1.49938e-06 7.96069e-05)
(0.00700246 0.00269912 -1.40838e-05 -0.0106609 3.599e-05 -2.36596e-05)
(-0.00855794 0.00269887 -1.07718e-06 0.0106153 -8.17215e-05 0.0004999)
(-0.00422082 0.00597174 -2.8307e-05 0.0044127 -3.30333e-05 0.000286131)
(0.0007578 0.00601658 -3.51951e-05 -0.00239403 1.33627e-05 0.000117694)
(0.00517834 0.00276381 -1.7881e-05 -0.00872448 6.44023e-05 -8.24584e-05)
(-0.00729532 0.00215457 -1.91286e-06 0.00811343 -8.88382e-05 0.000748458)
(-0.00375525 0.00497202 -3.05428e-05 0.00355849 -3.18579e-05 0.000419361)
(0.000149619 0.00505402 -3.68514e-05 -0.00149498 2.51744e-05 0.000135652)
(0.00366696 0.00230552 -1.77656e-05 -0.0060524 8.45158e-05 -0.000183872)
(-0.00597837 0.00167788 -1.83179e-06 0.00590163 -8.92794e-05 0.00100682)
(-0.00326513 0.00399873 -2.96394e-05 0.00272754 -2.89244e-05 0.000554214)
(-0.000312495 0.00412653 -3.50129e-05 -0.000763345 3.26202e-05 0.000144415)
(0.00226035 0.00193223 -1.57641e-05 -0.00379179 9.58967e-05 -0.000303162)
(-0.00491856 0.00114419 -2.98171e-06 0.00406575 -8.40175e-05 0.00125874)
(-0.0028285 0.00306271 -3.07954e-05 0.00199589 -2.53364e-05 0.00068821)
(-0.000654166 0.0032619 -3.49368e-05 -0.000219166 3.41065e-05 0.000160071)
(0.00115795 0.00156926 -1.44169e-05 -0.00196108 9.69466e-05 -0.000411288)
(-0.00420788 0.000550565 -8.60424e-06 0.00287475 -7.15379e-05 0.00148278)
(-0.00259481 0.00219697 -4.10233e-05 0.00143043 -2.08634e-05 0.000818542)
(-0.000927968 0.00242745 -4.4322e-05 0.000161634 2.77231e-05 0.000205657)
(0.000412196 0.00119602 -1.76089e-05 -0.000653024 8.38392e-05 -0.000466513)
(-0.00434608 0.000396201 -2.67202e-05 0.0022507 -3.97233e-05 0.00162717)
(-0.00321588 0.00137191 -7.07544e-05 0.00136395 -1.0627e-05 0.00093162)
(-0.00113537 0.00135433 -7.65835e-05 0.000458933 1.19622e-05 0.000312434)
(0.000185005 0.000643205 -3.81419e-05 -8.19371e-05 4.30286e-05 -0.000390737)
)
;

boundaryField
{
    interface
    {
        type            calculated;
        value           nonuniform List<symmTensor> 
192
(
(-0.0187299 -3.79311e-06 0.00030468 0.0288219 0.0036851 -0.00237433)
(-0.00867918 3.39399e-06 0.000522419 0.0147676 -0.00181932 -0.00338099)
(-0.00945995 -4.97573e-06 0.000617871 0.0141837 -0.00113886 -0.00163001)
(-0.00751015 -3.02311e-05 0.000658166 0.0103 -0.00141583 -0.00066571)
(-0.00616831 -7.63404e-05 0.000669025 0.00727934 -0.0012571 0.000339994)
(-0.0049852 -0.000149756 0.000656736 0.00474852 -0.00107707 0.00108963)
(-0.00436864 -0.000276145 0.000617718 0.00323641 -0.000872299 0.00167037)
(-0.00399062 -0.000478232 0.000533406 0.00225977 -0.000477785 0.0021391)
(-0.0190188 1.55839e-05 0.000206106 0.028254 0.00201685 -0.00154325)
(-0.0101024 2.76586e-05 0.000358552 0.0159098 -0.00113954 -0.00257454)
(-0.00965679 1.8028e-05 0.000424527 0.0141365 -0.00175889 -0.0015067)
(-0.00788005 -1.80125e-05 0.000450636 0.0103313 -0.0019644 -0.00038903)
(-0.00646026 -7.96257e-05 0.000454243 0.00716733 -0.00186247 0.000633985)
(-0.00530897 -0.000174692 0.000439785 0.00462341 -0.00161482 0.00145529)
(-0.00467858 -0.000333663 0.000405435 0.00309468 -0.00126125 0.0020755)
(-0.00424443 -0.000566166 0.000344796 0.00215152 -0.000693638 0.002547)
(-0.0194989 1.89649e-05 0.00013984 0.0282032 0.000772859 -0.00087562)
(-0.0105047 3.20755e-05 0.000244819 0.0154009 -0.000865463 -0.00155532)
(-0.0099574 2.18149e-05 0.000287084 0.0139858 -0.00142299 -0.00100099)
(-0.00803758 -1.89793e-05 0.000301036 0.0103129 -0.00165187 -0.00023257)
(-0.006498 -8.9251e-05 0.00030018 0.00721526 -0.0016249 0.000547064)
(-0.00527359 -0.000197274 0.000287938 0.00472208 -0.00144389 0.00121959)
(-0.00460136 -0.00037359 0.000264323 0.00325011 -0.00114253 0.0017482)
(-0.00404262 -0.000615099 0.000227965 0.00229102 -0.000599871 0.00210684)
(-0.0197444 1.79629e-05 9.78112e-05 0.0280394 0.000105245 -0.000414106)
(-0.0108177 3.02648e-05 0.000172994 0.0149663 -0.000712635 -0.000713866)
(-0.0102845 1.90279e-05 0.000202154 0.0137803 -0.00107771 -0.000364509)
(-0.00830155 -2.45357e-05 0.000210343 0.0102606 -0.00125245 0.000158369)
(-0.00668326 -0.000100027 0.000208265 0.00726233 -0.00125946 0.000725174)
(-0.00539256 -0.000215893 0.000198955 0.00483423 -0.0011476 0.00124248)
(-0.00467092 -0.000402176 0.000183273 0.00341462 -0.000934577 0.00166253)
(-0.00404027 -0.000646884 0.00016044 0.00245783 -0.000510257 0.00194495)
(-0.0198134 1.63787e-05 6.80083e-05 0.0278261 -0.000176931 -0.000145865)
(-0.0110103 2.7216e-05 0.000121587 0.0146845 -0.000575251 -0.000187342)
(-0.0105136 1.46971e-05 0.000142184 0.0136208 -0.000794436 9.71818e-05)
(-0.00851586 -3.07668e-05 0.000147434 0.0102079 -0.000906008 0.000494212)
(-0.00685894 -0.000109548 0.000145484 0.00728852 -0.000918397 0.000928172)
(-0.00552544 -0.00023029 0.000138899 0.00490995 -0.000853376 0.00133855)
(-0.00476822 -0.000422833 0.000128661 0.00352327 -0.000713229 0.00168417)
(-0.00408239 -0.000669096 0.000113822 0.00256506 -0.000396595 0.00190786)
(-0.0198028 1.50688e-05 4.49465e-05 0.0276282 -0.000238468 3.05157e-06)
(-0.0111191 2.45311e-05 8.1046e-05 0.014511 -0.000425697 0.000118988)
(-0.0106589 1.07836e-05 9.50268e-05 0.0135176 -0.000550116 0.000390031)
(-0.0086656 -3.60637e-05 9.84297e-05 0.0101713 -0.000614817 0.000729466)
(-0.00699306 -0.000116937 9.70144e-05 0.00730114 -0.000624077 0.00109374)
(-0.0056369 -0.000240735 9.27011e-05 0.00495256 -0.000587491 0.00144479)
(-0.00485889 -0.000437309 8.62492e-05 0.00358391 -0.000500283 0.00174895)
(-0.00414372 -0.000684449 7.67574e-05 0.00262789 -0.000282817 0.00194161)
(-0.0197704 1.42327e-05 2.54975e-05 0.0274821 -0.000180938 8.00376e-05)
(-0.011174 2.27117e-05 4.62561e-05 0.0144108 -0.000261737 0.000282162)
(-0.010741 8.01846e-06 5.43771e-05 0.013458 -0.000324898 0.000554456)
(-0.00875621 -3.97793e-05 5.6298e-05 0.0101503 -0.000357899 0.00086981)
(-0.00707866 -0.000121918 5.54749e-05 0.007307 -0.000363087 0.00120166)
(-0.00571175 -0.000247576 5.30488e-05 0.00497366 -0.000344438 0.00152422)
(-0.00492279 -0.000446641 4.93071e-05 0.00361353 -0.000296825 0.00180823)
(-0.00419232 -0.000694002 4.36583e-05 0.0026593 -0.000170081 0.00198552)
(-0.0197472 1.37162e-05 8.17724e-06 0.0274055 -6.59632e-05 0.000112391)
(-0.0111956 2.16909e-05 1.48884e-05 0.0143647 -8.82982e-05 0.000351958)
(-0.0107767 6.53629e-06 1.75265e-05 0.0134309 -0.000107598 0.000626936)
(-0.00879756 -4.16988e-05 1.81337e-05 0.010141 -0.00011769 0.000933858)
(-0.00711894 -0.000124407 1.78666e-05 0.00730931 -0.000119339 0.00125344)
(-0.00574795 -0.000251117 1.70869e-05 0.00498204 -0.000113627 0.00156512)
(-0.00495388 -0.00045159 1.57878e-05 0.00362481 -9.85656e-05 0.00184143)
(-0.00421637 -0.000697946 1.3773e-05 0.00267122 -5.71775e-05 0.00201292)
(-0.00518822 0.00682326 -0.000386253 0.0194096 -9.2021e-05 -0.010015)
(-0.00931533 0.00318475 -0.000678217 0.010578 -0.000136522 -0.00121757)
(-0.00808257 0.00400217 -0.000812735 0.0109873 -0.00013659 -0.00218478)
(-0.00715888 0.00346489 -0.000879787 0.00813618 -0.00011891 -0.000818124)
(-0.00600762 0.00298789 -0.000916954 0.00596024 -0.000110296 -9.58761e-05)
(-0.00509434 0.00230172 -0.000942641 0.00404209 -0.000122103 0.000580377)
(-0.0045054 0.00152992 -0.000980736 0.00283886 -0.000157146 0.000970498)
(-0.0047164 0.000892979 -0.00109234 0.00211033 -0.000202417 0.00155512)
(-0.0019498 0.00569442 -0.000244633 0.00454955 -7.54423e-05 -0.00221302)
(-0.00424789 0.0078655 -0.000459171 0.00411363 -0.00013186 -0.000326898)
(-0.00454036 0.0079803 -0.000543291 0.00425608 -0.000144436 -0.000150275)
(-0.00423919 0.00723925 -0.000574955 0.003366 -0.000120397 0.000296917)
(-0.00381053 0.00620555 -0.000588973 0.00258154 -9.06197e-05 0.000561863)
(-0.00340096 0.00496559 -0.00060402 0.00185356 -7.24338e-05 0.000779788)
(-0.00314495 0.00365267 -0.000645696 0.00135336 -7.18301e-05 0.000932596)
(-0.00362215 0.00211726 -0.000795638 0.00122117 -7.89313e-05 0.00132796)
(0.000842798 0.00515816 -0.000185873 -0.00531347 -5.37305e-05 0.00253345)
(0.00151268 0.00763443 -0.000381308 -0.00312868 -0.000113518 0.000649299)
(0.00100843 0.00797319 -0.000462702 -0.00281041 -0.000137415 0.00082255)
(0.000456708 0.00730234 -0.00048977 -0.00190736 -0.000118855 0.000627633)
(2.99647e-05 0.00631532 -0.000497402 -0.00125168 -8.54955e-05 0.000495565)
(-0.000246554 0.00513174 -0.000507631 -0.000736449 -5.65985e-05 0.000340584)
(-0.000412966 0.00382252 -0.000547561 -0.000371178 -3.98501e-05 0.000199791)
(-0.00033105 0.00209592 -0.000697678 1.24691e-05 -3.3038e-05 -0.000120233)
(0.00388621 0.00545903 -0.000171543 -0.0191908 -5.05436e-05 0.00980071)
(0.00665722 0.00301841 -0.00038008 -0.00975055 -0.000115638 0.00166007)
(0.00494663 0.0040362 -0.000476005 -0.00965783 -0.000143517 0.00278096)
(0.00375352 0.00360084 -0.000510356 -0.00674084 -0.0001273 0.00166545)
(0.00253203 0.00319003 -0.000519486 -0.0045819 -9.29316e-05 0.00105817)
(0.00164202 0.00260798 -0.000529267 -0.0027534 -5.96047e-05 0.000436963)
(0.00111643 0.00193525 -0.000567784 -0.00153101 -3.06989e-05 -3.1505e-05)
(0.00117686 0.000992164 -0.000709656 -0.000746282 -7.40845e-07 -0.000604674)
(0.016123 5.09538e-05 1.23128e-05 -0.0271443 -0.00444454 0.00250675)
(0.00661308 0.000102285 4.22263e-05 -0.0142331 0.00121949 0.00392695)
(0.00676136 0.000119714 4.54347e-05 -0.013035 0.000764139 0.00258126)
(0.00459685 0.000103307 4.02068e-05 -0.00900404 0.00116921 0.001839)
(0.00312773 7.84409e-05 4.28924e-05 -0.00589979 0.00114436 0.000958792)
(0.00190964 5.97149e-05 6.20295e-05 -0.00332067 0.00107348 0.000228441)
(0.00120237 3.48301e-05 0.000103636 -0.00157914 0.000889918 -0.000396644)
(0.00108736 -9.78153e-05 0.000168582 -0.000684737 0.000390686 -0.000939339)
(0.015903 2.28893e-05 -4.3852e-05 -0.0261333 -0.0027641 0.00174733)
(0.0077465 5.45834e-05 -5.76315e-05 -0.0153806 0.000491856 0.00323268)
(0.00662071 7.03516e-05 -6.65994e-05 -0.0129913 0.00133713 0.00255581)
(0.00456848 6.76775e-05 -7.27431e-05 -0.00901072 0.00175195 0.00166867)
(0.00299675 6.22369e-05 -6.82761e-05 -0.00573637 0.0018383 0.000760792)
(0.00177559 6.64817e-05 -4.9573e-05 -0.00308801 0.00173526 -4.04426e-05)
(0.0010312 7.12284e-05 -1.55702e-05 -0.00125731 0.00143959 -0.00069661)
(0.000985263 -3.73011e-05 3.36791e-05 -0.000421512 0.000778603 -0.00125445)
(0.0162196 9.60318e-06 -4.81473e-05 -0.0259402 -0.00134351 0.00102488)
(0.00812412 2.91684e-05 -6.35875e-05 -0.0147943 0.000402281 0.00200753)
(0.00691297 4.38693e-05 -6.51977e-05 -0.0126874 0.00110987 0.00172199)
(0.00473026 5.23436e-05 -6.33464e-05 -0.00883428 0.00151048 0.00114665)
(0.00303029 6.40448e-05 -5.39572e-05 -0.00561351 0.00165041 0.00048269)
(0.00171715 8.65683e-05 -3.47563e-05 -0.00299944 0.00160033 -0.000137364)
(0.000895609 0.000105846 -7.97435e-06 -0.00118013 0.00136327 -0.000649408)
(0.000708777 1.76075e-05 2.05205e-05 -0.000351765 0.00072788 -0.0009929)
(0.0163046 4.36334e-06 -3.93578e-05 -0.0256284 -0.000534304 0.000545929)
(0.00837176 1.78681e-05 -5.03221e-05 -0.0142946 0.00038419 0.00109224)
(0.00715433 3.22739e-05 -4.65095e-05 -0.0123304 0.000865234 0.000952564)
(0.00490817 4.84162e-05 -3.97989e-05 -0.00860556 0.00116971 0.000596813)
(0.00312336 7.2131e-05 -2.88573e-05 -0.00547202 0.00130633 0.000148838)
(0.0017315 0.000107222 -1.29608e-05 -0.00291375 0.00129615 -0.000291662)
(0.000830736 0.000136375 5.25755e-06 -0.00111443 0.00112761 -0.000652995)
(0.000561441 6.01487e-05 2.32332e-05 -0.000321945 0.000611675 -0.000836424)
(0.0162381 2.65169e-06 -2.83588e-05 -0.0252739 -0.000132898 0.000262453)
(0.0085013 1.38754e-05 -3.48716e-05 -0.0139458 0.000343068 0.000519866)
(0.00729664 2.89984e-05 -2.90885e-05 -0.0120407 0.00065452 0.000418069)
(0.0050305 5.04433e-05 -2.11123e-05 -0.00839729 0.000862276 0.000173052)
(0.00320202 8.20354e-05 -1.11178e-05 -0.00533189 0.000968091 -0.00013884)
(0.00175842 0.000124627 8.57349e-07 -0.00281959 0.000973159 -0.000450248)
(0.000798486 0.000159431 1.21342e-05 -0.0010405 0.000857344 -0.000696711)
(0.000475147 9.05371e-05 2.22992e-05 -0.000280362 0.00046778 -0.000766923)
(0.0161244 2.48448e-06 -1.83382e-05 -0.0249606 3.05941e-05 0.000100501)
(0.00855756 1.33458e-05 -2.15968e-05 -0.0137099 0.000269742 0.000180978)
(0.00737008 2.95879e-05 -1.6119e-05 -0.0118327 0.000461831 8.09494e-05)
(0.00510283 5.44855e-05 -9.21492e-06 -0.00823875 0.000593392 -0.000112523)