/*--------------------------------*- C++ -*----------------------------------*\
| =========                 |                                                 |
| \\      /  F ield         | foam-extend: Open Source CFD                    |
|  \\    /   O peration     | Version:     3.1                                |
|   \\  /    A nd           | Web:         http://www.extend-project.de       |
|    \\/     M anipulation  |                                                 |
\*---------------------------------------------------------------------------*/
FoamFile
{
    version     2.0;
    format      ascii;
    class       pointVectorField;
    location    "2.1";
    object      pointD;
}
// * * * * * * * * * * * * * * * * * * * * * * * * * * * * * * * * * * * * * //

dimensions      [0 1 0 0 0 0 0];

internalField   nonuniform List<vector> 
405
(
(0 0 0)
(0 0 0)
(0 0 0)
(0 0 0)
(0 0 0)
(0.000720699 0.000713176 0.000258134)
(0.000458212 0.000232624 0.000170177)
(0.000359695 -1.2573e-05 -1.12309e-05)
(0.000400854 -0.000260068 -0.00019862)
(0.000592547 -0.000721549 -0.000308499)
(0.00142019 0.00103549 0.000125401)
(0.00120233 0.000415365 8.91988e-05)
(0.00108256 -1.15883e-05 -2.91197e-05)
(0.00111143 -0.000438353 -0.000160092)
(0.00123968 -0.00105194 -0.00023384)
(0.00232948 0.00137123 1.66032e-05)
(0.00212182 0.000592595 2.16528e-05)
(0.00200305 -1.02614e-05 -4.67703e-05)
(0.00201352 -0.000613724 -0.000127947)
(0.00211254 -0.00139374 -0.000165357)
(0.00333479 0.00160642 -0.000111041)
(0.00315527 0.000720922 -5.35788e-05)
(0.00304361 -1.35391e-05 -6.06856e-05)
(0.00303795 -0.000748658 -8.06812e-05)
(0.00309848 -0.00163791 -6.72138e-05)
(0.00440667 0.00176792 -0.000224023)
(0.00425042 0.000809524 -0.000119569)
(0.00414657 -2.15053e-05 -7.16162e-05)
(0.00412922 -0.000851556 -3.56175e-05)
(0.00416095 -0.00181145 2.65995e-05)
(0.005503 0.00186622 -0.000317879)
(0.00536462 0.000864012 -0.000174984)
(0.00526795 -3.33551e-05 -8.16729e-05)
(0.00524311 -0.000926577 2.36577e-06)
(0.00525489 -0.00192334 0.000108464)
(0.00660077 0.00192788 -0.000390838)
(0.0064708 0.000895488 -0.000221762)
(0.00637554 -4.62077e-05 -9.36212e-05)
(0.00634585 -0.000981186 2.84417e-05)
(0.00634891 -0.00199377 0.000168505)
(0.00770289 0.0019637 -0.000434129)
(0.00755182 0.000917437 -0.000252895)
(0.00742819 -5.26442e-05 -0.000105225)
(0.00740446 -0.00101872 3.60366e-05)
(0.00741805 -0.0020389 0.000190688)
(0 0 0)
(0 0 0)
(0 0 0)
(0 0 0)
(0 0 0)
(0.000750878 0.000685133 0.000139259)
(0.000500172 0.000213134 9.38035e-05)
(0.000421416 -6.05352e-06 -9.65577e-06)
(0.000453532 -0.000222351 -0.000119979)
(0.000636401 -0.000672626 -0.000183361)
(0.00143447 0.00107659 7.49181e-05)
(0.00123342 0.00044998 5.4359e-05)
(0.00113925 -4.26409e-06 -2.51654e-05)
(0.00115898 -0.000455959 -0.000115119)
(0.00127742 -0.00107595 -0.000163087)
(0.00229917 0.00141364 -1.4553e-05)
(0.0021125 0.000630128 -2.37386e-07)
(0.00202066 -2.88528e-06 -3.96967e-05)
(0.00202365 -0.000635296 -9.02312e-05)
(0.00211045 -0.00141986 -0.000107251)
(0.00326172 0.00165197 -0.000113366)
(0.00310156 0.000760826 -5.81307e-05)
(0.00301549 -5.35081e-06 -5.1656e-05)
(0.00300436 -0.0007715 -5.64188e-05)
(0.00305473 -0.00166584 -3.35039e-05)
(0.00429122 0.00180884 -0.000205132)
(0.0041531 0.000846447 -0.000111435)
(0.00407326 -1.16711e-05 -6.16192e-05)
(0.00405167 -0.00086881 -2.22991e-05)
(0.00407436 -0.00183208 4.06129e-05)
(0.0053511 0.00190083 -0.000283089)
(0.00522922 0.000896499 -0.000157109)
(0.00515455 -2.10491e-05 -7.12829e-05)
(0.00512601 -0.000935004 6.0384e-06)
(0.00512962 -0.00193309 0.000105413)
(0.00641955 0.00195375 -0.000343324)
(0.00630429 0.000920987 -0.000194588)
(0.00622876 -3.17075e-05 -8.27808e-05)
(0.00619616 -0.000977736 2.27311e-05)
(0.00619223 -0.00198839 0.000150924)
(0.00750639 0.0019829 -0.000376247)
(0.00736908 0.000937284 -0.00021787)
(0.0072638 -3.71264e-05 -9.45499e-05)
(0.00723671 -0.00100674 2.11935e-05)
(0.00724334 -0.00202253 0.000160176)
(0 0 0)
(0 0 0)
(0 0 0)
(0 0 0)
(0 0 0)
(0.000773605 0.000685145 6.20319e-05)
(0.000510127 0.000213279 4.21229e-05)
(0.000426538 -3.144e-06 -9.83365e-06)
(0.000461332 -0.000216844 -6.65992e-05)
(0.000652098 -0.000669433 -9.6073e-05)
(0.00144801 0.00106469 2.3238e-05)
(0.00123525 0.000451371 1.71445e-05)
(0.00113629 8.50261e-07 -2.29763e-05)
(0.00115989 -0.000447635 -6.96838e-05)
(0.0012877 -0.00105771 -8.90127e-05)
(0.00228362 0.0014008 -3.82707e-05)
(0.002093 0.000634891 -2.12208e-05)
(0.00199998 4.00448e-06 -3.52654e-05)
(0.0020039 -0.000626573 -5.61552e-05)
(0.00209292 -0.00139493 -5.37172e-05)
(0.00321603 0.00164054 -0.000109147)
(0.00305371 0.000767371 -6.37403e-05)
(0.00296768 3.48139e-06 -4.57145e-05)
(0.00295639 -0.000760297 -3.44974e-05)
(0.00300716 -0.00163655 -3.74575e-06)
(0.00421403 0.00179967 -0.000177817)
(0.00407536 0.000854453 -0.000104304)
(0.00399637 -7.76484e-07 -5.47823e-05)
(0.00397372 -0.000854392 -1.14656e-05)
(0.00399494 -0.00179867 4.86795e-05)
(0.00524477 0.00189462 -0.000238032)
(0.00512324 0.000905299 -0.000139925)
(0.00505009 -8.14216e-06 -6.38486e-05)
(0.00501981 -0.000916582 7.39189e-06)
(0.00502059 -0.00189588 9.49191e-05)
(0.00628796 0.0019516 -0.00028528)
(0.00617421 0.000929954 -0.000168952)
(0.00610073 -1.7091e-05 -7.47462e-05)
(0.00606569 -0.000954999 1.60018e-05)
(0.00605763 -0.0019477 0.000125921)
(0.00735826 0.00198342 -0.000307883)
(0.00722309 0.000946115 -0.000185204)
(0.00711927 -2.09637e-05 -8.71661e-05)
(0.007087 -0.000979767 5.37678e-06)
(0.00708725 -0.00197798 0.000121498)
(0 0 0)
(0 0 0)
(0 0 0)
(0 0 0)
(0 0 0)
(0.000779535 0.000682136 1.82312e-05)
(0.000507312 0.000212182 1.38714e-05)
(0.000418567 -1.49726e-06 -9.16148e-06)
(0.000454569 -0.000212699 -3.50339e-05)
(0.000650738 -0.00066249 -4.48559e-05)
(0.00144484 0.00104907 -1.07916e-05)
(0.00122312 0.000447163 -4.80456e-06)
(0.00111804 4.67845e-06 -2.00306e-05)
(0.00114319 -0.000436119 -3.90262e-05)
(0.00127753 -0.00103567 -3.99634e-05)
(0.00226293 0.00138034 -5.43345e-05)
(0.00206554 0.000630563 -3.23629e-05)
(0.00196754 1.02138e-05 -3.01604e-05)
(0.00197203 -0.000610014 -3.16638e-05)
(0.00206583 -0.00136265 -1.67842e-05)
(0.00317377 0.00161982 -0.000104769)
(0.0030071 0.000764272 -6.32272e-05)
(0.0029172 1.2177e-05 -3.89998e-05)
(0.00290552 -0.000739614 -1.8289e-05)
(0.00295891 -0.00159775 1.65139e-05)
(0.00414917 0.00178134 -0.000154978)
(0.00400808 0.000853527 -9.34037e-05)
(0.0039261 1.03983e-05 -4.69608e-05)
(0.00390235 -0.000830386 -3.5361e-06)
(0.0039243 -0.00175556 5.23402e-05)
(0.00515815 0.00188041 -0.000200167)
(0.00503564 0.000906928 -0.000120553)
(0.00496031 5.33878e-06 -5.51775e-05)
(0.00492834 -0.000889766 8.12999e-06)
(0.00492815 -0.00184993 8.40444e-05)
(0.00618172 0.001943 -0.000236187)
(0.00606844 0.000934235 -0.000142802)
(0.00599328 -1.5612e-06 -6.52206e-05)
(0.00595554 -0.00092575 1.1148e-05)
(0.00594443 -0.00189941 0.000103802)
(0.00723757 0.00198046 -0.00025226)
(0.0071035 0.000953504 -0.000154932)
(0.00699706 -3.39962e-06 -7.74809e-05)
(0.00695919 -0.000948781 -3.01724e-06)
(0.00695379 -0.00192833 9.32422e-05)
(0 0 0)
(0 0 0)
(0 0 0)
(0 0 0)
(0 0 0)
(0.000777553 0.000677113 -2.47867e-06)
(0.000500324 0.000210763 2.79377e-07)
(0.000408281 -2.59825e-07 -7.6581e-06)
(0.000444362 -0.000208708 -1.71854e-05)
(0.000642776 -0.000653006 -1.75684e-05)
(0.00143422 0.00103573 -2.57927e-05)
(0.00120615 0.000442968 -1.44884e-05)
(0.00109682 7.91606e-06 -1.62892e-05)
(0.00112212 -0.000425377 -2.02307e-05)
(0.00126023 -0.00101545 -1.2684e-05)
(0.00223942 0.00136273 -5.75834e-05)
(0.00203617 0.000625561 -3.45925e-05)
(0.00193422 1.578e-05 -2.43172e-05)
(0.0019386 -0.000593796 -1.6008e-05)
(0.00203579 -0.00133362 3.4953e-06)
(0.00313498 0.00160129 -9.36546e-05)
(0.00296367 0.000759987 -5.68916e-05)
(0.00287042 2.01884e-05 -3.1465e-05)
(0.00285826 -0.00071904 -7.77842e-06)
(0.00291401 -0.00156236 2.59686e-05)
(0.00409424 0.00176433 -0.000129948)
(0.00394978 0.000851016 -7.90046e-05)
(0.00386508 2.08143e-05 -3.81178e-05)
(0.00384049 -0.000806456 1.4187e-06)
(0.0038636 -0.00171583 5.01589e-05)
(0.00508722 0.00186643 -0.00016328)
(0.00496248 0.000906731 -9.93052e-05)
(0.00488499 1.79617e-05 -4.5184e-05)
(0.00485179 -0.00086326 8.23575e-06)
(0.0048515 -0.00180718 7.13837e-05)
(0.00609576 0.00193307 -0.000190268)
(0.00598127 0.000936502 -0.000116101)
(0.00590417 1.3026e-05 -5.38992e-05)
(0.00586442 -0.00089721 8.12685e-06)
(0.00585174 -0.00185419 8.34383e-05)
(0.00713924 0.00197435 -0.000201366)
(0.00700417 0.000958384 -0.000124873)
(0.00689487 1.31736e-05 -6.4722e-05)
(0.00685294 -0.000918643 -6.04874e-06)
(0.00684427 -0.00188148 7.12735e-05)
(0 0 0)
(0 0 0)
(0 0 0)
(0 0 0)
(0 0 0)
(0.000772833 0.000671955 -9.77294e-06)
(0.000493179 0.000209511 -4.80715e-06)
(0.000399188 7.52022e-07 -5.77423e-06)
(0.000434924 -0.000205246 -7.60258e-06)
(0.000633716 -0.000643803 -4.44918e-06)
(0.00142187 0.00102543 -2.78717e-05)
(0.00118992 0.00043985 -1.61069e-05)
(0.00107792 1.06405e-05 -1.21942e-05)
(0.00110289 -0.000416607 -9.48968e-06)
(0.00124284 -0.000998838 1.69679e-07)
(0.00221719 0.00134958 -5.06629e-05)
(0.00200994 0.000621832 -3.04261e-05)
(0.00190534 2.04961e-05 -1.81766e-05)
(0.0019094 -0.000580464 -6.9608e-06)
(0.00200853 -0.00131043 1.1505e-05)
(0.00310172 0.00158742 -7.59086e-05)
(0.00292689 0.000756741 -4.60721e-05)
(0.00283128 2.69788e-05 -2.35879e-05)
(0.00281872 -0.000701961 -1.94235e-06)
(0.00287604 -0.00153409 2.65418e-05)
(0.00404941 0.00175134 -0.000101375)
(0.00390215 0.000849041 -6.17028e-05)
(0.00381546 2.96174e-05 -2.87569e-05)
(0.00379034 -0.000786437 3.63038e-06)
(0.00381441 -0.0016838 4.25309e-05)
(0.00503075 0.0018553 -0.000125078)
(0.00490391 0.000906426 -7.62618e-05)
(0.0048248 2.85812e-05 -3.43644e-05)
(0.00479086 -0.000840983 7.39738e-06)
(0.00479075 -0.00177234 5.63286e-05)
(0.00602788 0.00192439 -0.000144491)
(0.00591196 0.000937955 -8.83969e-05)
(0.00583335 2.52369e-05 -4.12922e-05)
(0.00579234 -0.000873175 5.98646e-06)
(0.00577892 -0.00181698 6.34153e-05)
(0.0070612 0.00196815 -0.000152057)
(0.00692471 0.000961758 -9.45689e-05)
(0.00681318 2.70226e-05 -4.98741e-05)
(0.00676872 -0.000893178 -5.9142e-06)
(0.00675829 -0.00184263 5.26254e-05)
(0 0 0)
(0 0 0)
(0 0 0)
(0 0 0)
(0 0 0)
(0.000768219 0.000667757 -9.62075e-06)
(0.000487536 0.00020859 -5.18185e-06)
(0.000392447 1.52223e-06 -3.80867e-06)
(0.000427771 -0.000202616 -2.87682e-06)
(0.000626198 -0.000636492 5.74519e-07)
(0.00141136 0.00101817 -2.20785e-05)
(0.00117721 0.000437807 -1.28908e-05)
(0.00106363 1.27214e-05 -8.05483e-06)
(0.00108818 -0.000410206 -3.86986e-06)
(0.00122892 -0.000986611 4.18564e-06)
(0.00219954 0.00134063 -3.6969e-05)
(0.00198982 0.000619462 -2.21862e-05)
(0.00188357 2.40837e-05 -1.2028e-05)
(0.00188731 -0.000570758 -2.39287e-06)
(0.00198745 -0.00129372 1.15157e-05)
(0.00307639 0.00157805 -5.31644e-05)
(0.00289924 0.000754732 -3.22143e-05)
(0.00280213 3.21146e-05 -1.56649e-05)
(0.00278927 -0.000689485 4.97186e-07)
(0.00284753 -0.00151381 2.08663e-05)
(0.00401614 0.00174248 -6.94996e-05)
(0.00386691 0.000847877 -4.22702e-05)
(0.00377895 3.62338e-05 -1.92025e-05)
(0.00375351 -0.000771743 3.65517e-06)
(0.00377823 -0.00166073 3.06678e-05)
(0.00498941 0.00184748 -8.48243e-05)
(0.00486101 0.000906335 -5.17237e-05)
(0.00478084 3.65131e-05 -2.30921e-05)
(0.00474648 -0.000824558 5.5804e-06)
(0.00474662 -0.00174706 3.89812e-05)
(0.00597845 0.00191793 -9.74578e-05)
(0.00586133 0.000938969 -5.96408e-05)
(0.00578173 3.43061e-05 -2.78899e-05)
(0.00574002 -0.000855396 4.06976e-06)
(0.00572633 -0.00178981 4.28784e-05)
(0.00700429 0.00196308 -0.000102218)
(0.00686652 0.000963983 -6.35996e-05)
(0.00675346 3.72693e-05 -3.37836e-05)
(0.00670756 -0.000874248 -4.33822e-06)
(0.0066963 -0.00181405 3.50552e-05)
(0 0 0)
(0 0 0)
(0 0 0)
(0 0 0)
(0 0 0)
(0.000765059 0.000665073 -5.61921e-06)
(0.000484017 0.000208034 -3.10859e-06)
(0.000388374 2.00542e-06 -1.88172e-06)
(0.000423394 -0.000200984 -8.40051e-07)
(0.000621379 -0.000631874 1.23902e-06)
(0.0014045 0.00101386 -1.19754e-05)
(0.00116926 0.000436665 -7.02432e-06)
(0.00105485 1.40252e-05 -3.99258e-06)
(0.00107911 -0.000406325 -1.24561e-06)
(0.00122011 -0.000979158 3.21323e-06)
(0.00218832 0.00133543 -1.93611e-05)
(0.00197731 0.000618183 -1.16157e-05)
(0.00187018 2.63224e-05 -5.97538e-06)
(0.00187369 -0.000564893 -5.539e-07)
(0.00197428 -0.00128365 6.83402e-06)
(0.0030606 0.00157267 -2.73091e-05)
(0.00288217 0.000753686 -1.653e-05)
(0.00278425 3.53033e-05 -7.80406e-06)
(0.0027712 -0.000681943 7.71455e-07)
(0.00282994 -0.00150165 1.13403e-05)
(0.00399566 0.00173736 -3.53222e-05)
(0.0038453 0.000847315 -2.14667e-05)
(0.00375664 4.03203e-05 -9.60173e-06)
(0.00373103 -0.00076284 2.19788e-06)
(0.00375613 -0.00164688 1.60158e-05)
(0.00496414 0.00184288 -4.28703e-05)
(0.00483481 0.000906362 -2.61311e-05)
(0.00475406 4.13881e-05 -1.15925e-05)
(0.0047195 -0.000814582 2.99649e-06)
(0.00471981 -0.00173184 1.99338e-05)
(0.0059483 0.00191397 -4.91132e-05)
(0.00583044 0.000939587 -3.00467e-05)
(0.00575029 3.9858e-05 -1.40428e-05)
(0.00570823 -0.000844573 2.08354e-06)
(0.00569448 -0.00177338 2.16577e-05)
(0.00696953 0.00195979 -5.1427e-05)
(0.00683097 0.000965249 -3.19879e-05)
(0.00671706 4.35287e-05 -1.7031e-05)
(0.00667042 -0.000862688 -2.23704e-06)
(0.00665883 -0.00179671 1.75897e-05)
(0 0 0)
(0 0 0)
(0 0 0)
(0 0 0)
(0 0 0)
(0.000763947 0.000664154 -0)
(0.000482827 0.000207849 0)
(0.000387016 2.17001e-06 0)
(0.000421928 -0.000200432 0)
(0.000619731 -0.000630302 0)
(0.00140213 0.00101242 -0)
(0.00116657 0.000436297 0)
(0.0010519 1.44689e-05 0)
(0.00107605 -0.000405026 0)
(0.0012171 -0.000976657 0)
(0.00218449 0.00133373 -0)
(0.00197307 0.00061778 0)
(0.00186567 2.70827e-05 0)
(0.0018691 -0.000562934 0)
(0.00196982 -0.00128029 0)
(0.00305523 0.00157091 -0)
(0.00287641 0.000753366 0)
(0.00277822 3.63832e-05 0)
(0.00276512 -0.000679423 0)
(0.002824 -0.0014976 0)
(0.00398874 0.00173569 -0)
(0.00383802 0.000847153 0)
(0.00374913 4.17004e-05 0)
(0.00372347 -0.000759864 0)
(0.00374869 -0.00164226 0)
(0.00495563 0.00184136 -0)
(0.00482599 0.000906386 0)
(0.00474506 4.30305e-05 0)
(0.00471044 -0.000811243 0)
(0.00471082 -0.00172676 0)
(0.00593815 0.00191263 -0)
(0.00582006 0.000939793 0)
(0.00573972 4.17252e-05 0)
(0.00569757 -0.000840948 0)
(0.00568381 -0.00176789 0)
(0.00695782 0.00195863 -0)
(0.006819 0.000965652 -0)
(0.00670483 4.56335e-05 -0)
(0.00665797 -0.000858808 0)
(0.00664628 -0.00179091 0)
)
;

boundaryField
{
    interface
    {
        type            calculated;
    }
    symmetry
    {
        type            symmetryPlane;
    }
    bottom
    {
        type            fixedValue;
        value           uniform (0 0 0);
    }
}


// ************************************************************************* //
