/*--------------------------------*- C++ -*----------------------------------*\
| =========                 |                                                 |
| \\      /  F ield         | foam-extend: Open Source CFD                    |
|  \\    /   O peration     | Version:     3.1                                |
|   \\  /    A nd           | Web:         http://www.extend-project.de       |
|    \\/     M anipulation  |                                                 |
\*---------------------------------------------------------------------------*/
FoamFile
{
    version     2.0;
    format      ascii;
    class       volSymmTensorField;
    location    "2.1";
    object      sigmaCauchy;
}
// * * * * * * * * * * * * * * * * * * * * * * * * * * * * * * * * * * * * * //

dimensions      [1 -1 -2 0 0 0 0];

internalField   nonuniform List<symmTensor> 
256
(
(133.614 57.9694 -1.29234 312.043 23.9251 154.074)
(16.5392 46.3337 -6.20568 59.2395 8.33037 22.2547)
(-40.7604 40.8103 -6.82768 -81.8022 -10.3218 -41.6031)
(-152.97 37.6429 -3.56303 -302.835 -23.491 -166.45)
(-62.3733 25.6587 -2.87483 84.9742 -10.5194 -20.1527)
(-26.536 56.8748 -10.4696 29.2228 -4.44445 -10.2172)
(-2.63792 53.193 -10.7194 -42.5178 1.64181 -5.76436)
(28.2783 18.1319 -3.97986 -96.9152 6.56886 3.5739)
(-25.3082 29.7748 -1.55944 106.41 -6.13211 17.4052)
(-27.5661 53.7703 -7.6088 25.4172 -2.32888 -6.16016)
(-5.82032 51.0716 -7.85839 -38.0935 0.160245 -8.81165)
(-6.08472 21.9442 -2.74731 -110.5 3.28953 -26.4558)
(-34.3997 25.3183 -1.79978 69.2104 -7.32629 7.25721)
(-28.7086 47.87 -6.69325 15.2138 -2.36597 -7.02997)
(-5.59486 45.8933 -6.71352 -28.1475 0.994792 -6.19568)
(2.11039 19.3152 -2.75497 -73.9069 5.36226 -13.8169)
(-32.1357 21.2707 -1.6118 46.8375 -6.29714 7.55613)
(-27.6228 40.4654 -5.75781 7.87292 -1.80831 -6.06622)
(-6.90659 39.2273 -5.68663 -21.1616 1.16284 -5.93295)
(-0.168888 17.1842 -2.46213 -51.499 5.32087 -12.3559)
(-32.8272 16.1553 -1.72132 26.3509 -5.30468 5.2844)
(-27.2765 32.1765 -5.30119 1.29743 -1.44441 -5.99476)
(-7.75695 31.7619 -5.09085 -15.3154 1.19041 -5.69877)
(-0.0672326 14.2696 -2.35926 -31.4441 5.06701 -9.84537)
(-32.3512 10.7842 -2.19854 14.7136 -4.43348 5.74415)
(-28.0949 23.7144 -5.31754 -3.50976 -1.40983 -6.09594)
(-8.68017 23.6917 -4.90566 -11.0629 0.921865 -6.03176)
(0.191622 10.7317 -2.43017 -17.7547 4.24372 -9.20822)
(-41.6075 7.22629 -2.83869 2.73702 -2.42919 1.30785)
(-39.0923 14.5506 -5.50763 -10.2399 -0.808389 -11.3647)
(-5.44388 13.2273 -5.18241 -4.17462 0.324996 -3.66972)
(5.07691 5.46471 -3.02717 -7.34236 1.83877 -7.61383)
(136.322 62.2888 -0.672732 310.794 13.1293 161.2)
(22.0526 51.731 -4.87865 62.8288 4.29948 28.0104)
(-38.0054 46.5369 -5.69576 -75.1566 -6.95527 -40.6713)
(-148.388 42.0469 -2.98526 -292.672 -14.9291 -166.752)
(-37.0832 24.9015 -1.72765 119.394 -6.53742 9.59256)
(-8.37356 56.2331 -9.38413 49.4069 -3.0455 6.87105)
(-16.6665 52.4815 -10.4911 -58.9868 -0.185919 -20.9583)
(3.27432 17.518 -4.51513 -128.49 2.32052 -25.444)
(-20.2592 25.5457 -0.892537 110.834 -9.71894 21.6933)
(-18.3553 47.7721 -7.7804 32.397 -3.64216 -0.160433)
(-10.646 45.2338 -8.91855 -41.8079 1.48337 -12.9085)
(-9.934 18.1107 -3.69677 -113.172 6.62581 -29.5009)
(-25.4864 20.9686 -0.337375 76.8975 -10.5354 15.3019)
(-18.8645 40.6895 -6.05875 22.5286 -3.49262 -0.606468)
(-10.5014 38.7581 -7.10991 -31.3755 2.42194 -10.5015)
(-5.10246 15.1516 -3.08021 -78.9979 8.78652 -20.1828)
(-25.1542 16.8692 0.211963 51.5821 -9.83062 13.5731)
(-19.0218 33.3161 -4.70438 13.6865 -3.01411 -0.994609)
(-10.2747 32.1205 -5.68623 -22.2974 2.81108 -8.72595)
(-5.29825 12.9896 -2.42045 -53.3481 9.32733 -16.5853)
(-25.7218 12.3448 0.412147 30.9745 -8.43909 11.6941)
(-19.1872 25.9809 -3.89495 6.59754 -2.49071 -1.32637)
(-10.3242 25.5946 -4.73751 -15.3644 2.70395 -7.75865)
(-4.88184 10.6671 -1.96916 -32.4146 8.82173 -13.9557)
(-25.7979 7.67481 0.156599 18.4954 -6.64695 11.7297)
(-21.1385 18.9452 -3.77216 0.502757 -2.07152 -2.46531)
(-10.5128 19.0335 -4.43219 -10.2775 2.0722 -7.33154)
(-3.57087 8.07344 -1.79698 -17.1807 7.23527 -12.3023)
(-34.8283 5.61512 -0.626643 6.82903 -3.64963 7.34839)
(-32.9593 12.0839 -4.4672 -6.98153 -1.14242 -8.60928)
(-8.19944 10.8683 -5.34795 -4.61605 1.00887 -5.77982)
(0.175547 4.2732 -2.75903 -8.36638 3.8292 -11.76)
(139.275 63.781 -0.562085 315.033 5.14952 169.742)
(23.8794 52.1152 -3.02571 65.6472 1.33513 32.2661)
(-38.1996 46.6661 -3.58523 -74.6431 -4.04674 -42.6558)
(-151.196 42.5633 -1.94393 -295.127 -7.54939 -174.631)
(-37.328 24.5369 -1.41931 120.139 -5.01296 18.7288)
(-7.0552 55.5792 -6.18698 52.487 -2.48538 12.6212)
(-17.9349 51.8238 -7.10324 -59.8212 -0.381274 -25.3209)
(0.978035 17.2062 -3.40319 -130.085 1.74194 -36.7764)
(-20.9378 24.6179 -1.13294 112.252 -8.01715 27.0012)
(-17.7867 46.2071 -5.72667 34.8597 -3.16246 3.70355)
(-11.7122 43.6672 -6.67607 -42.551 1.27939 -15.9172)
(-12.1146 17.1655 -3.0637 -115.337 5.58686 -37.8433)
(-26.3008 19.8731 -0.72939 77.6895 -9.06606 17.6453)
(-18.3681 38.3469 -4.65925 24.4807 -3.15199 2.14241)
(-11.6253 36.4426 -5.52686 -31.5819 2.34129 -12.3836)
(-7.52995 14.1252 -2.50075 -80.7996 7.81149 -26.0167)
(-26.5011 15.6257 -0.321206 51.6094 -8.75623 13.573)
(-18.5253 30.8221 -3.59687 15.4277 -2.77683 1.09563)
(-11.315 29.7053 -4.38508 -22.1339 2.86005 -9.72716)
(-7.22245 11.9513 -1.91435 -54.2631 8.65064 -19.9723)
(-27.1515 11.1306 -0.10895 30.665 -7.66821 10.3824)
(-18.6178 23.691 -2.92224 8.14078 -2.28059 0.352381)
(-11.2199 23.4775 -3.59414 -14.8596 2.85954 -8.02485)
(-6.4939 9.85943 -1.47136 -32.6478 8.40505 -15.5328)
(-26.8931 6.53096 -0.250358 18.3219 -6.01725 9.8152)
(-20.5307 17.1542 -2.90929 1.79198 -1.76365 -1.16919)
(-11.3484 17.5116 -3.4821 -9.58602 2.29011 -6.99361)
(-4.91838 7.59946 -1.36105 -16.769 7.04295 -12.3247)
(-36.4678 4.97631 -1.00721 5.70959 -3.03977 3.80797)
(-32.7973 11.1493 -3.9585 -6.17529 -0.780933 -8.05854)
(-9.3462 10.114 -4.84436 -3.84206 1.10361 -4.64511)
(-0.369159 4.12668 -2.53167 -6.68385 3.62852 -9.08706)
(140.071 63.7516 -0.344829 316.034 0.9139 174.333)
(24.185 51.2953 -1.73094 66.6282 -0.123411 34.3484)
(-38.3747 45.6308 -2.05445 -74.1037 -2.25023 -43.7723)
(-151.709 42.0091 -1.11858 -294.583 -3.29909 -178.246)
(-37.7875 24.0907 -0.849217 119.703 -4.09131 25.2926)
(-7.55724 54.8548 -3.75616 53.264 -2.00058 15.5888)
(-18.4477 51.0995 -4.3488 -59.198 -0.29047 -27.6536)
(-0.0332318 16.8913 -2.15132 -129.652 1.62385 -44.0783)
(-21.3437 24.2644 -0.845946 113.091 -6.10299 32.4764)
(-18.6326 45.5769 -3.85164 35.729 -2.44149 5.9806)
(-12.3443 43.0747 -4.46223 -42.1865 0.991326 -17.9296)
(-13.0159 16.9154 -2.09241 -115.501 4.35141 -44.1442)
(-26.7207 19.5192 -0.66993 78.8812 -6.93136 21.3649)
(-19.2136 37.6549 -3.35139 25.3607 -2.43596 3.78742)
(-12.3732 35.8049 -3.88289 -31.2654 1.89713 -13.8412)
(-8.51977 13.9084 -1.75109 -81.2096 6.11448 -30.7631)
(-26.8829 15.2505 -0.431352 52.8827 -6.83814 15.7307)
(-19.2739 30.1058 -2.71116 16.3214 -2.16708 2.27149)
(-12.0907 29.0827 -3.16503 -21.8033 2.40005 -10.5794)
(-8.18453 11.7922 -1.33544 -54.6065 6.9411 -23.0261)
(-27.4268 10.7338 -0.299159 31.9426 -6.12726 11.412)
(-19.2247 23.0208 -2.30003 9.0073 -1.79364 1.22304)
(-11.94 22.9658 -2.66478 -14.4522 2.46867 -8.27655)
(-7.39069 9.80763 -1.01765 -32.7802 6.90347 -17.0791)
(-26.8599 6.11449 -0.439417 19.7549 -4.91029 10.1916)
(-21.0256 16.6247 -2.45588 2.59077 -1.37172 -0.508342)
(-12.0826 17.1851 -2.77106 -9.10883 2.02691 -6.67672)
(-5.7415 7.66659 -1.00447 -16.505 5.89364 -12.4547)
(-36.3789 4.76535 -1.19831 6.98079 -2.5463 3.55347)
(-33.4137 10.8728 -3.67398 -5.39988 -0.586851 -7.49956)
(-10.5585 9.93002 -4.26235 -3.4558 1.00128 -3.79019)
(-1.31054 4.20534 -2.13743 -6.17966 3.07711 -7.77026)
(139.594 63.1967 -0.182922 315.095 -0.905161 176.072)
(24.1051 50.2538 -0.92167 66.9376 -0.674352 35.3552)
(-38.3571 44.462 -1.09789 -73.3502 -1.19091 -44.2188)
(-150.874 41.2297 -0.595232 -292.268 -1.11381 -179.074)
(-38.2796 23.633 -0.436009 119.092 -3.26825 29.1691)
(-8.11011 54.061 -2.13175 53.5683 -1.54714 17.2353)
(-18.8366 50.3332 -2.48951 -58.388 -0.168377 -29.0153)
(-0.724899 16.6011 -1.24579 -128.867 1.45182 -48.4717)
(-21.9296 23.9876 -0.531785 113.293 -4.48466 36.0901)
(-19.3648 45.1334 -2.41248 36.2204 -1.78075 7.39668)
(-12.8637 42.695 -2.77892 -41.5933 0.742138 -19.2879)
(-13.4475 16.7916 -1.29247 -114.96 3.27002 -48.1913)
(-27.2661 19.3614 -0.491679 79.5858 -5.01641 24.188)
(-19.9278 37.4087 -2.24809 25.98 -1.75078 4.89841)
(-12.9334 35.6275 -2.54965 -30.7912 1.424 -14.9337)
(-9.0164 13.9105 -1.11406 -81.0008 4.51545 -34.1028)
(-27.3521 15.1424 -0.384756 53.8362 -4.99275 17.6634)
(-19.9025 29.9589 -1.92855 17.0098 -1.56336 3.11409)
(-12.6409 29.0226 -2.16616 -21.3935 1.83066 -11.2912)
(-8.67849 11.8785 -0.861649 -54.5163 5.17083 -25.3593)
(-27.789 10.6251 -0.336152 32.9837 -4.55765 12.6169)
(-19.7384 22.9199 -1.74253 9.70724 -1.3106 1.89161)
(-12.4482 22.9835 -1.91522 -14.0609 1.90966 -8.56437)
(-7.85158 9.96151 -0.675309 -32.6402 5.2131 -18.3696)
(-27.0152 5.97586 -0.494395 20.8921 -3.73279 10.9556)
(-21.4825 16.5561 -2.00336 3.23584 -1.0121 0.0428669)
(-12.6213 17.2465 -2.14983 -8.72424 1.58456 -6.54705)
(-6.15002 7.86395 -0.739014 -16.1367 4.50139 -12.7015)
(-36.701 4.7097 -1.19482 7.8162 -1.95202 3.68199)
(-34.119 10.8541 -3.17746 -4.89303 -0.417804 -7.13695)
(-11.4401 9.9436 -3.52796 -3.13203 0.788575 -3.28841)
(-1.80219 4.32881 -1.7244 -5.68103 2.36003 -7.02166)
(138.783 62.5786 -0.080812 313.622 -1.34571 176.465)
(23.9445 49.3544 -0.45169 67.0021 -0.724744 35.8181)
(-38.2237 43.491 -0.543472 -72.5818 -0.588493 -44.3072)
(-149.692 40.5348 -0.291412 -289.662 -0.143904 -178.723)
(-38.5874 23.2364 -0.182872 118.62 -2.40105 31.3653)
(-8.52296 53.3452 -1.12212 53.7271 -1.10436 18.1167)
(-19.0957 49.6522 -1.32761 -57.6414 -0.0780438 -29.7795)
(-1.23758 16.3624 -0.6644 -128.1 1.14999 -51.0133)
(-22.3606 23.746 -0.28576 113.347 -3.09018 38.3055)
(-19.8664 44.7531 -1.39901 36.554 -1.21081 8.22845)
(-13.2411 42.376 -1.60812 -41.0257 0.52108 -20.1544)
(-13.7057 16.6966 -0.730458 -114.311 2.29326 -50.6418)
(-27.6621 19.25 -0.303917 80.0447 -3.39507 26.0973)
(-20.4124 37.2627 -1.39041 26.4291 -1.16995 5.59767)
(-13.3113 35.5436 -1.55293 -30.3219 0.985231 -15.6754)
(-9.30423 13.9427 -0.648334 -80.6211 3.10209 -36.2616)
(-27.6911 15.0979 -0.271581 54.5108 -3.3872 19.1333)
(-20.3218 29.9466 -1.26216 17.523 -1.04543 3.68576)
(-12.9895 29.08 -1.37874 -20.9939 1.27173 -11.8076)
(-8.94681 11.9917 -0.511862 -54.2569 3.55297 -26.9664)
(-28.0469 10.5942 -0.272506 33.7431 -3.13192 13.7004)
(-20.0791 22.9612 -1.21291 10.2283 -0.887381 2.38116)
(-12.7594 23.11 -1.28581 -13.7059 1.33283 -8.80635)
(-8.09747 10.1228 -0.419561 -32.3955 3.60256 -19.3463)
(-27.1409 5.91956 -0.418603 21.7093 -2.60766 11.8001)
(-21.8008 16.6018 -1.48376 3.70309 -0.69412 0.469394)
(-12.961 17.3782 -1.54283 -8.41088 1.10917 -6.51999)
(-6.3669 8.03868 -0.510079 -15.7858 3.12771 -13.0186)
(-36.9021 4.68772 -0.97234 8.51025 -1.3788 4.20982)
(-34.6321 10.8885 -2.43214 -4.52137 -0.282453 -6.83335)
(-12.0219 9.99205 -2.63032 -2.88586 0.554966 -3.06581)
(-2.14527 4.42325 -1.26152 -5.35395 1.6462 -6.82396)
(138.075 62.1021 -0.0288962 312.347 -1.04375 176.364)
(23.809 48.7255 -0.194808 66.9924 -0.515046 36.0157)
(-38.0774 42.8237 -0.23812 -71.9787 -0.257817 -44.2607)
(-148.692 40.0409 -0.125902 -287.591 0.142155 -178.11)
(-38.7685 22.9516 -0.0594467 118.294 -1.47034 32.5017)
(-8.78591 52.819 -0.521325 53.8192 -0.663403 18.5581)
(-19.245 49.1548 -0.626653 -57.0824 -0.0276568 -30.1772)
(-1.57046 16.1953 -0.312278 -127.503 0.736605 -52.3795)
(-22.6404 23.5642 -0.130768 113.346 -1.81791 39.5206)
(-20.169 44.4629 -0.709156 36.7753 -0.704405 8.67931)
(-13.4797 42.1314 -0.815766 -40.5982 0.310935 -20.6598)
(-13.8565 16.6244 -0.36085 -113.785 1.36446 -52.0078)
(-27.9183 19.1658 -0.15859 80.3147 -1.97061 27.2185)
(-20.7023 37.1531 -0.743385 26.7285 -0.67164 5.99913)
(-13.5401 35.479 -0.822238 -29.9634 0.578508 -16.1262)
(-9.46911 13.9633 -0.328366 -80.2854 1.81692 -37.5254)
(-27.9142 15.0683 -0.156621 54.9205 -1.96636 20.062)
(-20.5686 29.9471 -0.706151 17.8637 -0.600123 4.03627)
(-13.1897 29.1283 -0.757652 -20.6878 0.746079 -12.1338)
(-9.08778 12.0719 -0.264434 -54.0063 2.07595 -27.9489)
(-28.221 10.5795 -0.172684 34.2051 -1.83244 14.4487)
(-20.2777 23.0071 -0.712042 10.5694 -0.514263 2.70092)
(-12.9315 23.2109 -0.738538 -13.4408 0.782209 -8.97262)
(-8.22006 10.2339 -0.226868 -32.1705 2.10826 -19.9838)
(-27.2418 5.88972 -0.275777 22.1986 -1.54229 12.4348)
(-21.9906 16.648 -0.909893 4.00332 -0.406507 0.761268)
(-13.1527 17.4766 -0.929724 -8.18888 0.650877 -6.53276)
(-6.47148 8.15323 -0.300461 -15.5183 1.83374 -13.2854)
(-37.0515 4.67791 -0.629514 8.93714 -0.823851 4.68264)
(-34.956 10.9208 -1.51877 -4.28766 -0.164294 -6.62103)
(-12.3652 10.0286 -1.61924 -2.71636 0.327085 -2.98838)
(-2.34433 4.48078 -0.769046 -5.13786 0.966437 -6.84227)
(137.68 61.8493 -0.00661788 311.636 -0.383233 176.217)
(23.7352 48.4065 -0.0529591 66.9754 -0.183473 36.0856)
(-37.9877 42.4877 -0.0655803 -71.6517 -0.0709479 -44.2084)
(-148.139 39.7879 -0.0342877 -286.47 0.082514 -177.705)
(-38.8515 22.804 -0.0120369 118.126 -0.495177 32.9761)
(-8.91281 52.5433 -0.14952 53.863 -0.221355 18.7386)
(-19.3115 48.895 -0.181767 -56.7852 -0.00584875 -30.3445)
(-1.73321 16.1096 -0.0902278 -127.18 0.253342 -52.9715)
(-22.776 23.4666 -0.0371217 113.336 -0.60082 40.0483)
(-20.3107 44.3057 -0.214974 36.8869 -0.231431 8.87433)
(-13.594 41.9981 -0.247492 -40.3709 0.103535 -20.891)
(-13.9265 16.5849 -0.107566 -113.498 0.453399 -52.6143)
(-28.0419 19.1191 -0.0490688 80.4392 -0.646885 27.7274)
(-20.8373 37.0907 -0.23252 26.8786 -0.219161 6.17971)
(-13.6471 35.4398 -0.255824 -29.7719 0.190793 -16.3378)
(-9.54464 13.9713 -0.0993736 -80.096 0.598825 -38.1039)
(-28.0228 15.0512 -0.0512745 55.1118 -0.645404 20.5023)
(-20.6823 29.9445 -0.226631 18.0328 -0.195828 4.20099)
(-13.2802 29.1498 -0.240873 -20.5241 0.245708 -12.2901)
(-9.14768 12.1106 -0.0810474 -53.8601 0.682933 -28.4097)
(-28.3064 10.5709 -0.0593497 34.4199 -0.603753 14.822)
(-20.3683 23.0298 -0.234648 10.7365 -0.168695 2.85727)
(-13.007 23.2602 -0.240744 -13.3005 0.257451 -9.05576)
(-8.26973 10.2877 -0.0715606 -32.0412 0.693657 -20.2947)
(-27.2941 5.87457 -0.0966873 22.4224 -0.511234 12.7655)
(-22.078 16.6714 -0.306684 4.1485 -0.134168 0.907869)
(-13.2378 17.524 -0.310768 -8.07396 0.214117 -6.54734)
(-6.51387 8.20716 -0.0994084 -15.3771 0.60352 -13.4342)
(-37.1211 4.67434 -0.21851 9.13781 -0.276047 4.95233)
(-35.1079 10.9387 -0.515924 -4.17431 -0.0543325 -6.51136)
(-12.5251 10.0454 -0.54646 -2.63086 0.108026 -2.97168)
(-2.43916 4.50588 -0.258648 -5.034 0.318163 -6.8974)
)
;

boundaryField
{
    interface
    {
        type            calculated;
        value           nonuniform List<symmTensor> 
192
(
(-22.2099 10.1333 3.01232 331.833 29.2718 92.6815)
(-22.7234 4.67105 3.31208 147.924 -13.7758 14.4994)
(-22.663 5.99108 3.99416 148.979 -8.8877 32.4369)
(-22.7429 4.82657 4.10326 105.632 -10.7904 25.6309)
(-22.9201 3.53301 4.14607 73.5271 -9.48287 23.2648)
(-23.1788 1.97827 4.06632 46.4425 -8.05567 20.1102)
(-23.4199 0.44054 3.80843 31.0425 -6.51052 19.7754)
(-22.7456 -1.39995 3.29609 22.2747 -3.62813 21.2669)
(-24.4953 10.5533 1.95125 326.844 15.92 98.0339)
(-25.2273 5.26329 2.31144 164.296 -8.62775 27.607)
(-25.7209 5.92637 2.52404 146.917 -13.2322 31.6119)
(-26.1844 4.81979 2.55208 105.027 -14.6173 26.7198)
(-26.5046 3.40709 2.52503 71.1704 -13.7445 23.7942)
(-26.6188 1.7626 2.44031 44.3833 -11.8466 21.5296)
(-26.2598 0.0221591 2.25593 29.401 -9.24029 21.9983)
(-23.9015 -2.00413 1.95693 22.2095 -5.1236 24.8354)
(-25.8611 10.8576 1.16541 328.428 6.10648 104.718)
(-26.5109 5.20629 1.54143 161.965 -6.52069 36.4118)
(-27.0524 5.831 1.63094 146.569 -10.6562 35.9755)
(-27.5618 4.71097 1.59859 104.623 -12.2374 27.5215)
(-27.8567 3.24934 1.54141 70.438 -11.9397 22.0346)
(-27.8157 1.53794 1.4686 43.665 -10.5482 18.3465)
(-27.0698 -0.298274 1.35686 29.1971 -8.33406 18.2577)
(-23.9009 -2.40669 1.23348 21.8311 -4.4073 20.2237)
(-26.8054 10.8902 0.695147 327.865 0.835978 108.804)
(-27.3692 5.10231 1.05123 160.006 -5.35678 43.7815)
(-27.8717 5.7331 1.10871 146.514 -8.06272 42.0052)
(-28.3538 4.62509 1.07165 105.313 -9.27056 31.3654)
(-28.5927 3.15357 1.01483 71.3635 -9.24588 23.8554)
(-28.4274 1.40841 0.955185 44.7213 -8.37475 18.7169)
(-27.4345 -0.48142 0.883092 30.5352 -6.80811 17.7563)
(-23.7899 -2.61298 0.826184 23.1552 -3.73856 19.1515)
(-27.4699 10.7963 0.414452 325.929 -1.39223 110.564)
(-27.9759 5.00163 0.712507 158.613 -4.31949 48.3113)
(-28.4394 5.63683 0.755706 146.364 -5.94243 46.3602)
(-28.8818 4.54768 0.728773 105.914 -6.7064 34.746)
(-29.0686 3.07952 0.684355 72.3286 -6.74214 26.0619)
(-28.8123 1.31724 0.639346 45.836 -6.2268 19.9488)
(-27.656 -0.606828 0.591247 31.8031 -5.194 18.3727)
(-23.6945 -2.75199 0.563968 24.3402 -2.90319 19.2796)
(-27.9259 10.6733 0.24115 323.767 -1.87817 111.115)
(-28.3963 4.91895 0.461114 157.638 -3.19484 50.8595)
(-28.8306 5.55699 0.492623 146.222 -4.11493 49.0957)
(-29.2398 4.48473 0.475694 106.347 -4.55186 37.1279)
(-29.3865 3.02244 0.445181 73.0576 -4.58244 27.8725)
(-29.0673 1.25128 0.414156 46.6866 -4.28726 21.2386)
(-27.8037 -0.695131 0.38265 32.7461 -3.64328 19.3294)
(-23.6295 -2.84469 0.368258 25.3046 -2.06964 20.024)
(-28.214 10.5725 0.124716 322.046 -1.42493 111.159)
(-28.6645 4.86115 0.257483 156.992 -1.96372 52.1508)
(-29.0827 5.50062 0.276414 146.101 -2.43024 50.6032)
(-29.4686 4.44019 0.267009 106.606 -2.65005 38.5439)
(-29.5889 2.98261 0.249356 73.5077 -2.66642 29.0462)
(-29.2303 1.20628 0.231251 47.2114 -2.51378 22.1722)
(-27.9005 -0.754234 0.211969 33.3224 -2.16158 20.1097)
(-23.5941 -2.90314 0.202369 25.9176 -1.24418 20.7211)
(-28.3471 10.5166 0.0379035 321.119 -0.519394 111.098)
(-28.7856 4.83058 0.0817163 156.672 -0.662352 52.6837)
(-29.1964 5.47088 0.0878175 146.036 -0.804788 51.2624)
(-29.5687 4.41677 0.0846771 106.731 -0.871428 39.1948)
(-29.6762 2.96188 0.0789036 73.7245 -0.876402 29.614)
(-29.3 1.18193 0.0729614 47.4615 -0.829254 22.6512)
(-27.9306 -0.787192 0.065929 33.598 -0.717706 20.5385)
(-23.5474 -2.92792 0.0614896 26.2234 -0.418037 21.1361)
(25.0918 53.77 -2.32065 204.636 1.09946 -11.1624)
(-63.2925 26.3863 -4.77602 76.7112 -1.2965 -8.00075)
(-44.4192 33.1667 -5.8538 88.893 -1.17035 -5.27994)
(-45.9669 28.7734 -6.42348 59.5513 -0.870044 -3.57192)
(-42.3876 24.6681 -6.75077 39.2952 -0.62824 -2.76862)
(-41.0648 19.0218 -6.9819 20.9142 -0.593829 -2.66256)
(-40.6111 13.0306 -7.28966 9.41466 -0.793038 -3.10326)
(-47.5101 8.36209 -8.15268 -0.558572 -1.07265 -4.02931)
(-7.04004 41.4277 -1.62134 37.9484 -0.524497 -10.2253)
(-33.361 57.3115 -3.24093 21.4506 -1.30033 -8.87928)
(-34.1048 58.6026 -3.88375 22.0036 -1.22155 -7.2507)
(-33.8885 53.2561 -4.16849 13.096 -0.868073 -6.10393)
(-32.5432 45.7124 -4.30891 6.1249 -0.499627 -5.53257)
(-31.8047 36.6435 -4.44675 -0.219869 -0.274105 -5.43241)
(-32.1492 27.1354 -4.77206 -4.57834 -0.225931 -5.6659)
(-39.5313 16.3383 -5.88972 -7.83668 -0.25501 -5.92837)
(-20.6346 35.8506 -1.44498 -65.4131 -0.278721 -9.63342)
(0.0569204 53.4575 -2.77536 -37.4075 -1.12702 -9.16011)
(-2.71482 55.7191 -3.34046 -36.2104 -1.15806 -8.11165)
(-4.24254 51.1953 -3.49973 -28.0572 -0.870865 -7.27737)
(-6.22542 44.4383 -3.54592 -22.0735 -0.492918 -6.84919)
(-7.65468 36.2647 -3.62367 -16.9344 -0.195328 -6.77174)
(-8.8478 27.1379 -3.9203 -12.9865 -0.0296739 -6.96023)
(-7.30023 14.9904 -4.98524 -7.32204 0.0326485 -7.18146)
(-50.0962 34.8334 -1.51844 -209.299 1.63772 -8.85137)
(28.5659 18.4911 -2.84692 -89.3411 -1.01887 -8.64391)
(9.77545 25.0829 -3.44618 -96.3535 -1.16329 -7.75947)
(9.96288 22.6761 -3.63744 -67.8064 -0.969249 -7.02341)
(5.83871 20.5449 -3.671 -48.0958 -0.602873 -6.64473)
(3.72398 17.1938 -3.7259 -30.5525 -0.270849 -6.55085)
(2.83527 12.9578 -3.99419 -18.3358 -0.00882384 -6.64047)
(6.58722 6.49354 -4.97787 -8.35898 0.23813 -6.85831)
(-6.91544 -7.10733 -0.712267 -301.127 -28.2953 -104.653)
(-5.67622 -3.04891 0.493843 -150.552 8.33894 -24.9692)
(-4.6358 -3.91764 0.484148 -142.513 5.08185 -34.5968)
(-3.98847 -2.99422 0.620548 -99.3787 7.97731 -23.6455)
(-3.66042 -2.13378 0.681927 -67.3173 7.92143 -19.0713)
(-3.30926 -1.20778 0.8209 -40.3684 7.51966 -15.2389)
(-2.4956 -0.642763 1.07735 -22.2606 6.26711 -13.846)
(-0.000583421 -1.25053 1.41701 -12.4632 2.71462 -14.3368)
(-8.09996 -7.42799 -0.823676 -294.333 -17.7385 -109.906)
(-7.78702 -3.77261 -0.345849 -168.126 3.38504 -40.2294)
(-7.44885 -4.03874 -0.169664 -143.912 9.20169 -36.5396)
(-7.17258 -3.10925 -0.0373237 -102.28 12.1831 -27.8158)
(-6.98385 -2.07936 0.0737977 -68.4895 12.8992 -22.852)
(-6.69853 -1.01328 0.208027 -41.1289 12.2601 -19.5883)
(-5.8229 -0.227373 0.379931 -22.109 10.2092 -18.1184)
(-2.88276 -0.714474 0.564114 -12.8176 5.50683 -18.7889)
(-8.92767 -7.62434 -0.579283 -296.099 -8.59073 -118.228)
(-8.85643 -3.87403 -0.377764 -167.919 2.79001 -52.7391)
(-8.78997 -4.10536 -0.193938 -145.227 7.66292 -45.9266)
(-8.66615 -3.11566 -0.0310421 -103.676 10.526 -34.206)
(-8.49019 -1.9688 0.114064 -69.3688 11.5942 -26.6027)
(-8.06129 -0.782799 0.257316 -41.4686 11.3123 -21.2525)
(-6.92953 0.106288 0.387906 -21.7404 9.67134 -17.9544)
(-4.03586 -0.207826 0.417993 -11.5733 5.15836 -16.1557)
(-9.51889 -7.56687 -0.359512 -295.307 -3.39135 -122.81)
(-9.50598 -3.85395 -0.269513 -166.975 2.66029 -61.6537)
(-9.52853 -4.08118 -0.102716 -145.259 5.97568 -53.8625)
(-9.453 -3.05827 0.0532794 -104.157 8.15123 -40.1896)
(-9.24518 -1.84299 0.193398 -69.8183 9.17474 -30.4186)
(-8.72426 -0.578576 0.31491 -41.664 9.15914 -23.1409)
(-7.41357 0.384438 0.397946 -21.3412 7.99863 -18.0283)
(-4.50367 0.158981 0.38064 -10.8348 4.33725 -14.4888)
(-9.93712 -7.40593 -0.207502 -293.035 -0.818903 -124.725)
(-9.93404 -3.78896 -0.162062 -165.99 2.36899 -67.054)
(-9.98511 -4.00945 -0.0234846 -144.774 4.5184 -59.1248)
(-9.91442 -2.96972 0.106679 -104.07 6.0062 -44.5416)
(-9.66523 -1.71573 0.22162 -69.8454 6.79581 -33.459)
(-9.05907 -0.407891 0.313225 -41.5603 6.87371 -24.8135)
(-7.65864 0.596976 0.358406 -20.8702 6.08019 -18.3733)
(-4.74614 0.421793 0.318579 -10.2083 3.31748 -13.6402)
(-10.2147 -7.23695 -0.110526 -290.556 0.223309 -125.304)
(-10.2054 -3.71559 -0.0840182 -165.087 1.85889 -70.1179)
(-10.2599 -3.92864 0.0196351 -144.174 3.18658 -62.3097)
(-10.18 -2.88203 0.115921 -103.774 4.13143 -47.3536)
(-9.89656 -1.60817 0.198869 -69.6612 4.66325 -35.5681)
(-9.21877 -0.279823 0.260371 -41.319 4.7415 -26.0934)
(-7.76936 0.743766 0.282115 -20.4291 4.22087 -18.8199)
(-4.87704 0.595475 0.239663 -9.7688 2.31426 -13.4312)
(-10.382 -7.10793 -0.0516906 -288.605 0.414979 -125.349)
(-10.3668 -3.65688 -0.0368402 -164.398 1.18119 -71.7312)
(-10.4182 -3.86375 0.0267424 -143.675 1.90297 -64.0749)
(-10.3283 -2.81503 0.0853832 -103.487 2.4244 -48.9892)
(-10.0143 -1.53197 0.134936 -69.4507 2.72575 -36.8537)
(-9.28635 -0.195408 0.170021 -41.0855 2.77497 -26.9289)
(-7.82408 0.834429 0.17926 -20.1067 2.47583 -19.2011)
(-4.94217 0.698603 0.147769 -9.48068 1.3596 -13.476)
(-10.4598 -7.03981 -0.0148151 -287.552 0.181285 -125.281)
(-10.442 -3.6254 -0.0099724 -164.025 0.404489 -72.4192)
(-10.4928 -3.82872 0.0112887 -143.399 0.633433 -64.8557)
(-10.394 -2.77961 0.0309159 -103.319 0.799986 -49.7328)
(-10.0627 -1.49314 0.0472627 -69.3213 0.897186 -37.4542)
(-9.30921 -0.153727 0.0586017 -40.9492 0.913385 -27.3356)
(-7.84175 0.876719 0.0611497 -19.937 0.815287 -19.4106)
(-4.97463 0.745174 0.0493542 -9.34445 0.447752 -13.5558)
(-50.0678 10.0216 -3.14122 -4.63766 -1.49165 -3.24456)
(-45.0527 9.15482 -1.12492 -3.24293 -1.21595 0.913473)
(-45.3131 9.02341 -1.57365 -2.13829 -0.853039 -1.85487)
(-45.463 9.02517 -1.77871 -1.26543 -0.595142 -2.59799)
(-45.9683 9.07737 -1.72725 -0.611165 -0.412143 -2.83733)
(-46.3735 9.13122 -1.38789 -0.14384 -0.276566 -2.59503)
(-46.6523 9.17302 -0.892053 0.14837 -0.167882 -2.28488)
(-46.8145 9.19276 -0.308291 0.236531 -0.0592073 -2.119)
(-43.3298 7.35647 -5.57759 -5.77999 -0.161019 -10.4889)
(-39.0429 6.12365 -5.03052 -5.05438 -0.0859673 -9.63736)
(-39.0961 5.7962 -4.81342 -4.27261 0.0309301 -9.40217)
(-39.9507 5.7053 -4.62283 -3.62095 0.0915632 -8.94177)
(-40.8522 5.6852 -4.06181 -3.13309 0.101732 -8.6635)
(-41.5256 5.68633 -3.12753 -2.7852 0.0843275 -8.42918)
(-41.95 5.69517 -1.95728 -2.55714 0.0539649 -8.25813)
(-42.1383 5.70779 -0.665191 -2.42904 0.0185492 -8.15697)
(-7.00415 5.08208 -5.40655 -6.66047 0.427016 -6.16906)
(-9.34847 3.98988 -6.21919 -6.08278 0.42302 -7.76823)
(-10.9246 3.63304 -6.03284 -5.47316 0.41721 -6.24435)
(-12.4047 3.50615 -5.48237 -4.97342 0.374543 -4.97384)
(-13.5044 3.45425 -4.60732 -4.6024 0.304712 -4.23296)
(-14.241 3.43066 -3.45592 -4.33987 0.222379 -3.8999)
(-14.6845 3.41943 -2.13232 -4.17 0.135945 -3.78151)
(-14.8891 3.41343 -0.720086 -4.07847 0.0462565 -3.74884)
(7.17973 4.45405 -3.47426 -6.33395 0.768045 -8.55504)
(2.96845 3.43963 -3.74679 -5.899 0.562697 -11.9105)
(1.56077 3.03973 -3.66659 -5.51988 0.46574 -8.80315)
(0.340988 2.87192 -3.1908 -5.17927 0.38531 -6.86112)
(-0.417514 2.78372 -2.60335 -4.91474 0.302155 -5.78997)
(-0.93272 2.73564 -1.91186 -4.7247 0.215453 -5.43769)
(-1.24454 2.70789 -1.16651 -4.60327 0.127885 -5.40249)
(-1.39834 2.69189 -0.392368 -4.55078 0.042085 -5.4481)
)
;
    }
    symmetry
    {
        type            symmetryPlane;
    }
    bottom
    {
        type            calculated;
        value           nonuniform List<symmTensor> 
32
(
(157.941 67.3607 2.30717 238.478 68.0044 157.985)
(156.037 72.5018 1.16791 234.972 31.9384 153.901)
(159.047 74.4287 0.51828 239.479 13.8331 156.355)
(160.167 74.4581 0.183806 241.234 4.90761 157.39)
(160.04 73.8807 0.0317879 241.104 0.855324 157.294)
(159.5 73.2465 -0.0231163 240.333 -0.627176 156.801)
(158.971 72.7669 -0.0288004 239.559 -0.786287 156.306)
(158.663 72.514 -0.0117797 239.105 -0.32266 156.016)
(28.4517 30.6297 0.33917 42.0646 20.1614 28.1597)
(30.5896 35.9164 0.198199 45.0062 10.0609 29.9375)
(32.6074 35.6493 0.0836529 48.0765 4.28423 31.9213)
(33.3483 34.3513 0.0252243 49.2742 1.3414 32.7034)
(33.6141 33.1024 0.000494408 49.7469 0.0272901 33.0144)
(33.7018 32.1549 -0.00711663 49.9312 -0.404431 33.1361)
(33.7245 31.5411 -0.00659055 49.998 -0.381834 33.1801)
(33.7274 31.242 -0.00252467 50.0181 -0.147673 33.1933)
(-43.1921 26.1897 -0.306741 -64.9787 -20.2811 -43.3507)
(-39.735 31.3007 -0.204859 -60.1037 -11.3596 -40.2251)
(-40.0515 30.5217 -0.110163 -60.5328 -6.26331 -40.5657)
(-40.0827 28.8524 -0.0554069 -60.495 -3.33249 -40.556)
(-39.8778 27.3672 -0.0264124 -60.1201 -1.67511 -40.3077)
(-39.5931 26.2715 -0.0117334 -59.6477 -0.775363 -39.9903)
(-39.3453 25.5694 -0.00463169 -59.2491 -0.314534 -39.7217)
(-39.2051 25.2289 -0.00118213 -59.0265 -0.0813693 -39.5716)
(-160.95 47.9575 -1.87151 -237.988 -61.9949 -159.979)
(-154.308 51.6066 -1.02303 -228.835 -31.6448 -155.349)
(-156.812 51.6407 -0.500328 -232.451 -15.4381 -158.336)
(-157.264 50.5046 -0.219353 -233.002 -6.91875 -158.835)
(-156.473 49.2352 -0.0814688 -231.755 -2.63762 -157.989)
(-155.354 48.1859 -0.0209051 -230.058 -0.692165 -156.809)
(-154.405 47.466 -0.000208317 -228.635 -0.00700709 -155.817)
(-153.879 47.1035 0.00175555 -227.849 0.0595295 -155.269)
)
;
    }
}


// ************************************************************************* //
