/*--------------------------------*- C++ -*----------------------------------*\
| =========                 |                                                 |
| \\      /  F ield         | foam-extend: Open Source CFD                    |
|  \\    /   O peration     | Version:     3.1                                |
|   \\  /    A nd           | Web:         http://www.extend-project.de       |
|    \\/     M anipulation  |                                                 |
\*---------------------------------------------------------------------------*/
FoamFile
{
    version     2.0;
    format      ascii;
    class       volSymmTensorField;
    location    "2.1";
    object      sigma;
}
// * * * * * * * * * * * * * * * * * * * * * * * * * * * * * * * * * * * * * //

dimensions      [1 -1 -2 0 0 0 0];

internalField   nonuniform List<symmTensor> 
256
(
(133.841 51.6604 -2.17607 305.272 21.9081 156.143)
(15.0434 45.334 -6.46771 59.2649 8.27464 22.2517)
(-41.898 42.0085 -6.55975 -81.9452 -10.4954 -41.5049)
(-151.511 42.782 -2.76822 -309.623 -25.8958 -164.046)
(-64.8567 21.7924 -2.63692 84.0417 -10.1693 -20.3364)
(-29.977 55.5762 -10.4238 30.4642 -4.24928 -10.3492)
(-5.65268 54.4067 -10.7447 -41.3504 1.78803 -5.85409)
(26.8204 21.4212 -4.06891 -98.1098 6.72084 3.50333)
(-27.7218 25.2074 -1.28598 105.87 -5.80385 17.4438)
(-31.5863 52.1768 -7.56266 27.4453 -2.27264 -6.21718)
(-9.46862 52.2819 -7.87114 -36.0937 0.185429 -8.83988)
(-7.65028 25.6542 -2.86763 -111.029 3.44992 -26.286)
(-36.7673 21.3346 -1.38267 69.7312 -7.12144 7.22257)
(-32.7456 46.3599 -6.58147 17.6881 -2.45465 -7.04979)
(-9.33581 46.8126 -6.77757 -25.7006 0.89652 -6.20242)
(0.453564 22.2963 -3.01022 -73.3939 5.46138 -13.7777)
(-34.1959 18.0172 -1.16136 47.7875 -6.22937 7.52272)
(-31.2507 39.1414 -5.61951 10.3712 -2.00331 -6.05432)
(-10.3257 39.8331 -5.75494 -18.6798 0.969923 -5.91705)
(-1.71972 19.3326 -2.74759 -50.5373 5.31994 -12.3356)
(-34.4524 13.6516 -1.2711 27.3312 -5.33875 5.25918)
(-30.2425 31.0742 -5.14633 3.51013 -1.70226 -5.96017)
(-10.5999 32.081 -5.1464 -13.0969 0.940667 -5.66746)
(-1.38247 15.6076 -2.63903 -30.4058 4.98425 -9.83534)
(-33.4929 8.77112 -1.75753 15.4384 -4.52391 5.73021)
(-30.3134 22.7556 -5.1408 -1.77286 -1.69564 -6.04288)
(-10.8034 23.7857 -4.93426 -9.31266 0.649332 -5.98791)
(-0.79879 11.4905 -2.67217 -16.8969 4.11453 -9.19435)
(-42.5309 5.33796 -2.44069 3.25037 -2.56594 1.32972)
(-40.5546 13.4387 -5.33276 -9.12924 -1.08669 -11.2777)
(-6.6169 13.154 -5.18073 -3.16571 0.0633262 -3.61822)
(4.54259 5.96882 -3.17761 -6.8859 1.68616 -7.58845)
(136.304 55.7395 -1.17029 304.44 12.0632 163.416)
(20.2659 50.6296 -5.0106 62.8775 4.27585 28.0729)
(-39.4894 47.724 -5.5101 -75.1774 -7.0561 -40.545)
(-147.369 47.3302 -2.48141 -298.689 -16.343 -164.346)
(-39.1073 20.6927 -1.57107 117.557 -6.29711 9.62446)
(-11.6429 54.6124 -9.32348 50.4318 -2.9638 6.83109)
(-19.5984 53.9545 -10.4806 -57.9606 -0.172897 -20.9356)
(2.19441 21.109 -4.5148 -130.438 2.31939 -25.2448)
(-22.2211 21.1308 -0.510896 109.967 -9.39521 21.7483)
(-21.7716 46.1536 -7.6647 34.1697 -3.67619 -0.196162)
(-13.7853 46.4271 -8.97786 -40.0237 1.39598 -12.9054)
(-11.139 21.6748 -3.92542 -113.969 6.73354 -29.3078)
(-27.3186 17.1137 0.167228 77.0119 -10.2848 15.2776)
(-22.1305 39.1841 -5.89699 24.6138 -3.60769 -0.618984)
(-13.5565 39.6366 -7.22115 -29.2827 2.26174 -10.4865)
(-6.31986 17.9982 -3.44693 -78.8346 8.85663 -20.1116)
(-26.6996 13.7695 0.756401 52.1585 -9.6662 13.5206)
(-21.8696 32.0382 -4.5259 15.7394 -3.17837 -0.989992)
(-12.9856 32.6511 -5.8143 -20.2363 2.60682 -8.70195)
(-6.41759 14.9734 -2.84617 -52.7242 9.33533 -16.5604)
(-26.8969 9.9767 0.938995 31.6229 -8.34739 11.6314)
(-21.4737 24.942 -3.71601 8.37989 -2.67754 -1.3106)
(-12.5484 25.825 -4.85255 -13.5581 2.48135 -7.72803)
(-5.82569 11.8434 -2.38653 -31.6796 8.77543 -13.9513)
(-26.5697 5.79705 0.633967 18.951 -6.6036 11.6677)
(-22.8335 18.0752 -3.5968 1.88418 -2.27025 -2.43839)
(-12.1752 19.033 -4.50875 -8.86595 1.84372 -7.29466)
(-4.28747 8.66225 -2.14886 -16.5535 7.15566 -12.3004)
(-35.5126 3.84544 -0.233293 7.19301 -3.67099 7.31473)
(-34.1269 11.069 -4.31523 -6.06972 -1.35875 -8.55228)
(-9.15308 10.7184 -5.37729 -3.7906 0.762394 -5.73421)
(-0.226525 4.6332 -2.98071 -8.02007 3.70798 -11.7456)
(139.31 57.074 -0.75409 308.723 4.71643 172.011)
(22.0908 50.9783 -3.0621 65.6829 1.33358 32.352)
(-39.6834 47.832 -3.47981 -74.642 -4.11288 -42.5058)
(-150.083 47.8904 -1.6994 -300.998 -8.28755 -172.151)
(-39.3649 20.3696 -1.28191 118.344 -4.85339 18.797)
(-10.2501 53.9293 -6.11768 53.4554 -2.45132 12.6258)
(-20.7889 53.2662 -7.08798 -58.8116 -0.409196 -25.2525)
(-0.0403363 20.7303 -3.42213 -131.945 1.71635 -36.5306)
(-22.8299 20.252 -0.81532 111.302 -7.78715 27.077)
(-21.0401 44.5582 -5.61164 36.5221 -3.21053 3.69312)
(-14.6817 44.8301 -6.7246 -40.8492 1.18183 -15.8848)
(-13.1909 20.645 -3.2649 -116.172 5.65113 -37.6148)
(-28.0392 16.0658 -0.30462 77.693 -8.88438 17.6408)
(-21.3814 36.8201 -4.50733 26.4009 -3.25616 2.13921)
(-14.426 37.2734 -5.62663 -29.6339 2.19505 -12.3556)
(-8.61103 16.8819 -2.8254 -80.7149 7.86082 -25.918)
(-27.9399 12.5585 0.142783 52.0637 -8.63684 13.5385)
(-21.0997 29.5216 -3.43261 17.2909 -2.90882 1.09943)
(-13.7561 30.1832 -4.50637 -20.2463 2.69122 -9.7012)
(-8.21141 13.8487 -2.29935 -53.7318 8.66056 -19.9332)
(-28.2241 8.7789 0.340941 31.1977 -7.6028 10.3385)
(-20.6545 22.6318 -2.76174 9.73934 -2.42218 0.361394)
(-13.2066 23.6522 -3.70831 -13.2201 2.68529 -7.99935)
(-7.33503 10.9532 -1.85425 -31.9927 8.37666 -15.5228)
(-27.5698 4.65734 0.149718 18.6721 -5.98876 9.77233)
(-22.0322 16.2701 -2.76072 3.02416 -1.91452 -1.1524)
(-12.8388 17.4542 -3.56192 -8.30359 2.1109 -6.96561)
(-5.56929 8.10334 -1.68485 -16.1951 6.98558 -12.3217)
(-37.1018 3.21247 -0.701758 6.0193 -3.07504 3.79616)
(-33.8627 10.1208 -3.84154 -5.34559 -0.964599 -8.01256)
(-10.2118 9.89516 -4.86931 -3.08651 0.888503 -4.60931)
(-0.740237 4.38868 -2.7162 -6.35975 3.51973 -9.07028)
(140.19 57.0586 -0.373604 309.8 0.825212 176.566)
(22.4628 50.167 -1.72171 66.6499 -0.113134 34.4364)
(-39.7864 46.7562 -1.9977 -74.097 -2.29282 -43.6178)
(-150.505 47.2338 -1.02038 -300.296 -3.63759 -175.805)
(-39.8232 19.9928 -0.714489 117.967 -3.96421 25.3616)
(-10.6747 53.2164 -3.6863 54.1901 -1.98706 15.6048)
(-21.21 52.4842 -4.33816 -58.2026 -0.32683 -27.5731)
(-1.0004 20.3156 -2.19412 -131.406 1.61336 -43.8349)
(-23.2112 19.9478 -0.588501 112.127 -5.93462 32.5545)
(-21.8073 43.9199 -3.75027 37.3247 -2.48583 5.97916)
(-15.2183 44.1861 -4.49983 -40.5278 0.908498 -17.8873)
(-14.0322 20.3022 -2.26153 -116.288 4.3989 -43.9154)
(-28.4305 15.7357 -0.334448 78.8358 -6.80025 21.3695)
(-22.1345 36.1072 -3.2246 27.2014 -2.52148 3.78702)
(-15.0695 36.5855 -3.96096 -29.3779 1.78049 -13.8095)
(-9.54611 16.5873 -2.01177 -81.1199 6.15226 -30.6576)
(-28.2876 12.1856 -0.0639009 53.2788 -6.75243 15.7061)
(-21.753 28.775 -2.57573 18.1024 -2.27272 2.27373)
(-14.4313 29.5127 -3.26249 -19.9817 2.26855 -10.5549)
(-9.12857 13.6252 -1.64509 -54.0853 6.95225 -22.9812)
(-28.4636 8.36928 0.0602004 32.4197 -6.08163 11.3774)
(-21.1751 21.9277 -2.16812 10.5307 -1.90644 1.22815)
(-13.8435 23.0949 -2.75853 -12.8719 2.33368 -8.25572)
(-8.20258 10.8449 -1.32836 -32.1343 6.88602 -17.066)
(-27.4999 4.21963 -0.117721 20.0542 -4.89351 10.1563)
(-22.461 15.7067 -2.33509 3.76406 -1.49561 -0.496866)
(-13.5152 17.0821 -2.83693 -7.86954 1.88384 -6.65526)
(-6.37904 8.11122 -1.26773 -15.9328 5.85057 -12.4511)
(-36.9925 2.9771 -0.953216 7.26105 -2.588 3.54509)
(-34.4464 9.80451 -3.5803 -4.60407 -0.750296 -7.4609)
(-11.3876 9.65458 -4.27928 -2.72677 0.816745 -3.76326)
(-1.67067 4.40139 -2.28172 -5.85569 2.98567 -7.75672)
(139.778 56.5891 -0.143457 308.948 -0.842927 178.252)
(22.4571 49.1455 -0.896813 66.9465 -0.660458 35.4413)
(-39.693 45.5442 -1.06856 -73.3414 -1.21722 -44.0668)
(-149.62 46.3067 -0.568263 -297.818 -1.24166 -176.704)
(-40.3039 19.6011 -0.315196 117.393 -3.16504 29.2288)
(-11.1465 52.4408 -2.06945 54.4554 -1.54204 17.2523)
(-21.5083 51.6624 -2.48362 -57.4093 -0.200861 -28.9347)
(-1.64712 19.9306 -1.29633 -130.543 1.45601 -48.2429)
(-23.7824 19.7177 -0.330376 112.327 -4.36121 36.1603)
(-22.4792 43.4767 -2.32938 37.7648 -1.81552 7.39672)
(-15.666 43.7561 -2.80722 -39.9656 0.679436 -19.2447)
(-14.425 20.092 -1.42779 -115.694 3.30871 -47.9756)
(-28.9677 15.5969 -0.237688 79.5153 -4.92305 24.1926)
(-22.8011 35.8473 -2.1489 27.7711 -1.8154 4.89738)
(-15.5739 36.3623 -2.60695 -28.9358 1.3378 -14.9031)
(-10.0157 16.5205 -1.3124 -80.8861 4.54544 -34.0015)
(-28.7495 12.0746 -0.107812 54.2023 -4.93278 17.6416)
(-22.3438 28.6051 -1.82378 18.7487 -1.64356 3.11395)
(-14.9401 29.4117 -2.2382 -19.5995 1.73331 -11.2696)
(-9.60649 13.6574 -1.09491 -53.9813 5.18149 -25.3154)
(-28.818 8.24443 -0.0632122 33.4335 -4.52721 12.5858)
(-21.6591 21.7997 -1.64021 11.1976 -1.39771 1.89328)
(-14.3235 23.0762 -1.98488 -12.5006 1.80825 -8.54769)
(-8.65805 10.9537 -0.909613 -31.9827 5.20198 -18.3567)
(-27.645 4.05885 -0.247127 21.1669 -3.72489 10.9225)
(-22.8962 15.6105 -1.90934 4.38558 -1.1112 0.0497558)
(-14.0355 17.1088 -2.1981 -7.4977 1.47334 -6.53106)
(-6.78969 8.26414 -0.937267 -15.5521 4.46858 -12.6992)
(-37.3121 2.89703 -1.00586 8.0827 -1.99422 3.673)
(-35.1417 9.75392 -3.10528 -4.11041 -0.5552 -7.10497)
(-12.2511 9.62595 -3.53751 -2.41307 0.638725 -3.2699)
(-2.15866 4.47828 -1.83014 -5.35103 2.28654 -7.01322)
(139.009 56.0651 -0.0267061 307.551 -1.24467 178.602)
(22.3575 48.2651 -0.426935 67.0008 -0.712262 35.9025)
(-39.4996 44.5369 -0.529107 -72.5715 -0.603817 -44.1592)
(-148.415 45.4763 -0.293263 -295.072 -0.174764 -176.42)
(-40.5949 19.2589 -0.0883177 116.939 -2.32342 31.417)
(-11.4888 51.7411 -1.07373 54.5815 -1.10246 18.1325)
(-21.6921 50.9362 -1.32485 -56.678 -0.102217 -29.7018)
(-2.12407 19.6143 -0.708882 -129.721 1.16068 -50.7981)
(-24.199 19.515 -0.140424 112.376 -3.00398 38.3676)
(-22.931 43.0988 -1.33738 38.058 -1.23486 8.22783)
(-15.9873 43.3962 -1.62796 -39.4223 0.478186 -20.1132)
(-14.6555 19.927 -0.829246 -115.006 2.32326 -50.4394)
(-29.3579 15.5018 -0.125167 79.9568 -3.33145 26.0992)
(-23.253 35.6931 -1.3192 28.1848 -1.2143 5.59517)
(-15.9147 36.2418 -1.59189 -28.488 0.926801 -15.6472)
(-10.287 16.4973 -0.787831 -80.4837 3.12468 -36.1671)
(-29.0865 12.0294 -0.0777364 54.8582 -3.3469 19.1112)
(-22.7432 28.5775 -1.18759 19.2357 -1.10122 3.68339)
(-15.2672 29.4374 -1.42762 -19.2145 1.2051 -11.7889)
(-9.8679 13.7276 -0.673978 -53.7063 3.56182 -26.9259)
(-29.0747 8.20308 -0.0804114 34.1772 -3.11216 13.6696)
(-21.9876 21.8231 -1.13984 11.7011 -0.949267 2.37993)
(-14.6234 23.1757 -1.33293 -12.1536 1.26206 -8.79307)
(-8.90429 11.08 -0.581908 -31.7246 3.5957 -19.3352)
(-27.7673 3.98807 -0.242768 21.9704 -2.60424 11.7663)
(-23.2056 15.6381 -1.41624 4.84144 -0.766673 0.472293)
(-14.368 17.216 -1.57483 -7.18849 1.02928 -6.50847)
(-7.01039 8.40629 -0.647017 -15.1894 3.10439 -13.0184)
(-37.5129 2.85744 -0.836613 8.76785 -1.41317 4.19717)
(-35.6489 9.76686 -2.38031 -3.74573 -0.385753 -6.80756)
(-12.8205 9.64595 -2.63508 -2.172 0.444782 -3.05451)
(-2.49865 4.54092 -1.33367 -5.01895 1.59282 -6.8208)
(138.326 55.6616 0.0120686 306.332 -0.96415 178.47)
(22.2635 47.6499 -0.177773 66.984 -0.506705 36.099)
(-39.3134 43.8441 -0.231799 -71.9672 -0.265682 -44.1158)
(-147.408 44.8841 -0.134111 -292.901 0.144607 -175.854)
(-40.7613 19.0123 0.000306998 116.62 -1.42199 32.5486)
(-11.7012 51.2262 -0.490869 54.6503 -0.662693 18.5729)
(-21.7887 50.4075 -0.625592 -56.1302 -0.0422608 -30.1021)
(-2.43274 19.3929 -0.341988 -129.09 0.746203 -52.1734)
(-24.4672 19.3608 -0.0428549 112.369 -1.76653 39.5774)
(-23.1974 42.8111 -0.671266 38.251 -0.71829 8.67791)
(-16.1866 43.1234 -0.827534 -39.012 0.286155 -20.6204)
(-14.788 19.806 -0.420935 -114.455 1.38366 -51.8149)
(-29.6092 15.4299 -0.052089 80.2145 -1.93327 27.218)
(-23.5202 35.5789 -0.700448 28.4602 -0.697327 5.99546)
(-16.1186 36.152 -0.844828 -28.144 0.544851 -16.1001)
(-10.4415 16.4795 -0.411294 -80.1327 1.83112 -37.4365)
(-29.3081 12.0009 -0.0415529 55.256 -1.94294 20.0387)
(-22.9775 28.5691 -0.661421 19.5595 -0.632847 4.03232)
(-15.4543 29.4644 -0.785876 -18.9175 0.707334 -12.1172)
(-10.0052 13.778 -0.359945 -53.4446 2.0818 -27.9116)
(-29.2485 8.18317 -0.0582478 34.6298 -1.82122 14.4172)
(-22.1792 21.8585 -0.668098 12.0317 -0.551201 2.69763)
(-14.7896 23.2588 -0.765589 -11.893 0.740397 -8.96172)
(-9.02769 11.1673 -0.322174 -31.4903 2.10453 -19.9746)
(-27.8668 3.95063 -0.170266 22.4518 -1.54107 12.3995)
(-23.3902 15.6739 -0.869106 5.135 -0.45072 0.761195)
(-14.5553 17.299 -0.947776 -6.96874 0.602722 -6.52443)
(-7.11734 8.49955 -0.380602 -14.9141 1.81974 -13.2871)
(-37.6625 2.8376 -0.547291 9.1895 -0.846061 4.6664)
(-35.9684 9.78684 -1.48738 -3.51617 -0.228126 -6.59997)
(-13.1548 9.6652 -1.62129 -2.00571 0.259867 -2.98233)
(-2.695 4.57868 -0.811044 -4.79988 0.934132 -6.8432)
(137.942 55.4477 0.00828575 305.649 -0.353886 178.309)
(22.2105 47.3379 -0.0469725 66.9634 -0.180568 36.1686)
(-39.204 43.4952 -0.0638263 -71.6396 -0.0733545 -44.0653)
(-146.853 44.5804 -0.0380855 -291.729 0.0865243 -175.473)
(-40.8361 18.8844 0.00834618 116.455 -0.478763 33.0209)
(-11.8019 50.9564 -0.139147 54.6821 -0.221168 18.753)
(-21.8284 50.1317 -0.181512 -55.8389 -0.0107099 -30.2709)
(-2.58337 19.2794 -0.100599 -128.75 0.257071 -52.7699)
(-24.5963 19.2777 -0.00769412 112.355 -0.583725 40.1026)
(-23.32 42.6553 -0.202193 38.348 -0.235952 8.87253)
(-16.2805 42.9756 -0.251393 -38.7936 0.095448 -20.8527)
(-14.849 19.7415 -0.127722 -114.155 0.460016 -52.4261)
(-29.7299 15.3898 -0.0136633 80.3326 -0.634558 27.7256)
(-23.6432 35.5145 -0.218163 28.5978 -0.227556 6.17546)
(-16.2129 36.1001 -0.263224 -27.96 0.179817 -16.3126)
(-10.5119 16.468 -0.126897 -79.9358 0.603684 -38.0178)
(-29.4158 11.9848 -0.0130842 55.4413 -0.63771 20.4784)
(-23.0847 28.5624 -0.21171 19.7201 -0.206603 4.19626)
(-15.5382 29.4752 -0.250092 -18.7585 0.233001 -12.2745)
(-10.0633 13.8016 -0.112601 -53.2929 0.684976 -28.3741)
(-29.3336 8.17281 -0.0212979 34.84 -0.600125 14.79)
(-22.2664 21.8765 -0.219967 12.1935 -0.180974 2.85294)
(-14.8621 23.2993 -0.249549 -11.7549 0.243618 -9.04608)
(-9.0777 11.209 -0.102978 -31.3565 0.692476 -20.2866)
(-27.9183 3.93261 -0.0614588 22.6719 -0.510985 12.7293)
(-23.4749 15.6926 -0.293024 5.27684 -0.149025 0.906218)
(-14.638 17.3389 -0.316586 -6.85513 0.198022 -6.54069)
(-7.16062 8.543 -0.125778 -14.7693 0.598851 -13.4371)
(-37.7321 2.83 -0.190859 9.38778 -0.283738 4.93396)
(-36.1179 9.79934 -0.505389 -3.4048 -0.0759075 -6.49286)
(-13.3098 9.67379 -0.547025 -1.92195 0.0854441 -2.96837)
(-2.7881 4.59432 -0.272442 -4.69483 0.307347 -6.90054)
)
;

boundaryField
{
    interface
    {
        type            calculated;
        value           nonuniform List<symmTensor> 
192
(
(-23.5311 -0.0270936 2.17628 316.124 26.3221 93.294)
(-23.3174 0.0242428 3.73156 144.159 -12.9951 14.5269)
(-23.3749 -0.0355409 4.41336 145.508 -8.13474 32.5532)
(-23.2992 -0.215937 4.70119 103.916 -10.1131 25.5897)
(-23.3303 -0.545289 4.77875 72.7244 -8.97927 23.1576)
(-23.4236 -1.06969 4.69097 46.1031 -7.69337 19.9681)
(-23.517 -1.97246 4.41227 30.8047 -6.23071 19.6187)
(-22.6724 -3.41594 3.81004 21.9733 -3.41275 21.1113)
(-25.9638 0.111314 1.47218 311.699 14.4061 98.8616)
(-25.9747 0.197562 2.56109 159.827 -8.13954 27.7954)
(-26.5052 0.128772 3.03234 143.447 -12.5635 31.7098)
(-26.8261 -0.128661 3.21883 103.255 -14.0315 26.6812)
(-26.9869 -0.568755 3.24459 70.3531 -13.3033 23.6863)
(-26.9252 -1.2478 3.14132 44.0203 -11.5344 21.3909)
(-26.3957 -2.38331 2.89597 29.1276 -9.00892 21.8478)
(-23.8302 -4.04405 2.46283 21.8551 -4.95455 24.68)
(-27.4391 0.135464 0.998854 313.291 5.52042 105.584)
(-27.3082 0.229111 1.74871 157.732 -6.18188 36.6163)
(-27.8757 0.155821 2.0506 143.147 -10.1642 36.0987)
(-28.2299 -0.135567 2.15026 102.845 -11.7991 27.5202)
(-28.3526 -0.637507 2.14414 69.5993 -11.6064 21.9693)
(-28.1246 -1.4091 2.0567 43.2731 -10.3135 18.2554)
(-27.1961 -2.6685 1.88802 28.8858 -8.16096 18.1578)
(-23.8011 -4.39356 1.62832 21.4393 -4.28479 20.1237)
(-28.4457 0.128306 0.698652 312.867 0.751752 109.628)
(-28.2027 0.216177 1.23567 155.969 -5.09025 43.9677)
(-28.7286 0.135914 1.44396 143.163 -7.69792 42.1286)
(-29.0476 -0.175255 1.50245 103.539 -8.9461 31.3804)
(-29.1056 -0.714475 1.48761 70.5058 -8.99611 23.8118)
(-28.7446 -1.54209 1.4211 44.3039 -8.19717 18.6486)
(-27.5603 -2.87268 1.30909 30.1935 -6.67555 17.6785)
(-23.6803 -4.6206 1.146 22.7347 -3.64469 19.0713)
(-29.1415 0.116991 0.485773 311.141 -1.26379 111.341)
(-28.8328 0.1944 0.868475 154.702 -4.10893 48.4741)
(-29.3195 0.104979 1.0156 143.069 -5.67455 46.4718)
(-29.595 -0.219763 1.0531 104.146 -6.47149 34.7626)
(-29.5958 -0.782482 1.03917 71.4574 -6.55998 26.0264)
(-29.1379 -1.64493 0.992137 45.4005 -6.09554 19.8906)
(-27.7843 -3.02024 0.919007 31.4406 -5.09449 18.3042)
(-23.581 -4.77925 0.813015 23.9009 -2.83282 19.2065)
(-29.6118 0.107634 0.321046 309.181 -1.70334 111.858)
(-29.2674 0.175222 0.5789 153.805 -3.04069 51.005)
(-29.7256 0.0770255 0.678763 142.964 -3.9294 49.1955)
(-29.9662 -0.257598 0.70307 104.583 -4.39155 37.1414)
(-29.9243 -0.835265 0.69296 72.1771 -4.45769 27.8385)
(-29.4 -1.71953 0.662151 46.2391 -4.19636 21.1836)
(-27.9353 -3.12363 0.616066 32.3704 -3.57345 19.2635)
(-23.5155 -4.88892 0.548267 24.8532 -2.02012 19.9512)
(-29.906 0.101662 0.182125 307.612 -1.29242 111.883)
(-29.5436 0.162227 0.3304 153.205 -1.86955 52.2862)
(-29.9863 0.0572747 0.388408 142.863 -2.3207 50.6953)
(-30.203 -0.284138 0.402129 104.843 -2.55642 38.5543)
(-30.1334 -0.87084 0.396249 72.6213 -2.59348 29.0118)
(-29.5677 -1.7684 0.37892 46.7567 -2.46027 22.1179)
(-28.0346 -3.19029 0.352193 32.9391 -2.12018 20.0441)
(-23.4807 -4.95716 0.311845 25.4594 -1.21486 20.6467)
(-30.0408 0.097973 0.0584089 306.764 -0.471166 111.813)
(-29.6679 0.154935 0.106346 152.906 -0.630702 52.8147)
(-30.1036 0.0466878 0.125189 142.808 -0.768559 51.3511)
(-30.3066 -0.297849 0.129526 104.969 -0.840641 39.2035)
(-30.2236 -0.888623 0.127618 72.8353 -0.852422 29.5791)
(-29.6394 -1.7937 0.12205 47.0034 -0.811621 22.5968)
(-28.0655 -3.22564 0.11277 33.2109 -0.70404 20.4725)
(-23.4345 -4.98533 0.0983785 25.7625 -0.408411 21.0604)
(23.0322 48.7376 -2.75895 198.731 -0.657293 -11.4446)
(-65.8941 22.7482 -4.84441 76.2011 -0.975159 -8.05291)
(-47.4482 28.5869 -5.80525 88.7649 -0.975645 -5.32118)
(-48.8609 24.7492 -6.28419 60.3896 -0.849354 -3.56975)
(-44.9581 21.3421 -6.54967 40.5266 -0.78783 -2.73137)
(-43.1292 16.4408 -6.73315 22.131 -0.872166 -2.5955)
(-42.1249 10.928 -7.00526 10.3341 -1.12247 -3.01133)
(-48.702 6.37842 -7.8024 0.0603654 -1.44583 -3.90543)
(-8.40241 40.6744 -1.74738 38.0215 -0.538874 -10.2826)
(-36.9301 56.1822 -3.27979 22.795 -0.941855 -8.92299)
(-38.6391 57.0022 -3.88065 24.1926 -1.03168 -7.28135)
(-38.5125 51.7089 -4.10682 15.8103 -0.859975 -6.11169)
(-36.7486 44.3254 -4.20695 8.90908 -0.647284 -5.51717)
(-35.2585 35.4685 -4.31443 2.2738 -0.517385 -5.39599)
(-34.7352 26.0905 -4.61212 -2.6044 -0.513072 -5.60989)
(-41.2014 15.1233 -5.68313 -6.60618 -0.563795 -5.84342)
(-21.6546 36.844 -1.32767 -65.6279 -0.383789 -9.57856)
(-3.00505 54.5317 -2.72363 -36.1576 -0.810844 -9.17207)
(-6.78887 56.9514 -3.30501 -34.0663 -0.981537 -8.11657)
(-8.49519 52.1596 -3.49836 -25.3814 -0.848967 -7.2743)
(-10.1595 45.1094 -3.55287 -19.3141 -0.610682 -6.8338)
(-10.9385 36.6553 -3.62593 -14.4378 -0.404275 -6.74468)
(-11.2977 27.3037 -3.91115 -10.9992 -0.284644 -6.92084)
(-8.63341 14.9708 -4.98342 -6.1797 -0.235986 -7.12757)
(-50.8684 38.9931 -1.2253 -215.704 -0.361026 -8.62203)
(27.0765 21.5601 -2.71486 -90.1218 -0.825987 -8.61742)
(7.75818 28.83 -3.40004 -96.5593 -1.02512 -7.71085)
(7.92689 25.7203 -3.6454 -67.0328 -0.909287 -6.98787)
(3.9187 22.7859 -3.71061 -46.8951 -0.663797 -6.60883)
(2.09411 18.6284 -3.78048 -29.3017 -0.425748 -6.5134)
(1.60191 13.8232 -4.0556 -17.3084 -0.219278 -6.59764)
(5.91903 7.08688 -5.06897 -7.81769 -0.00529175 -6.80621)
(-6.47133 0.363956 0.0879488 -315.524 -31.7467 -103.73)
(-5.52156 0.730605 0.301616 -154.423 8.71068 -24.7082)
(-4.45242 0.855102 0.324534 -145.855 5.45814 -34.3103)
(-3.85375 0.737911 0.287191 -101.003 8.35148 -23.5526)
(-3.56286 0.560292 0.306374 -68.0451 8.17403 -19.0553)
(-3.25382 0.426535 0.443068 -40.6132 7.66769 -15.2624)
(-2.46045 0.248786 0.740255 -22.3283 6.35655 -13.8819)
(0.0993971 -0.698681 1.20416 -12.5584 2.79062 -14.377)
(-7.59133 0.163495 -0.313228 -307.851 -19.7436 -108.704)
(-7.54571 0.389882 -0.411654 -172.74 3.51326 -39.7873)
(-7.20642 0.502512 -0.47571 -147.292 9.55094 -36.2414)
(-6.99042 0.483411 -0.519594 -103.985 12.5139 -27.7034)
(-6.86362 0.444549 -0.487686 -69.243 13.1307 -22.8347)
(-6.64378 0.474869 -0.354093 -41.3838 12.3947 -19.6155)
(-5.81596 0.508774 -0.111216 -22.1624 10.2828 -18.1575)
(-2.82961 -0.266436 0.240565 -12.878 5.56145 -18.8276)
(-8.37007 0.0685942 -0.343909 -309.512 -9.59649 -116.904)
(-8.5799 0.208345 -0.454197 -172.283 2.87344 -52.2698)
(-8.51331 0.313352 -0.465698 -148.516 7.92763 -45.5917)
(-8.46052 0.373883 -0.452474 -105.35 10.7891 -34.0577)
(-8.36258 0.457463 -0.385409 -70.1041 11.7886 -26.5598)
(-8.0154 0.618345 -0.24826 -41.7053 11.4309 -21.2619)
(-6.9446 0.756046 -0.0569596 -21.7713 9.73765 -17.9804)
(-4.02142 0.125768 0.146575 -11.5967 5.19914 -16.1763)
(-8.9372 0.0311667 -0.281127 -308.459 -3.81646 -121.499)
(-9.21 0.127629 -0.359443 -171.112 2.74421 -61.2066)
(-9.2332 0.230528 -0.332211 -148.41 6.18024 -53.5315)
(-9.23573 0.34583 -0.284278 -105.762 8.35506 -40.0311)
(-9.11642 0.515222 -0.206124 -70.512 9.3309 -30.363)
(-8.68797 0.765872 -0.0925774 -41.8683 9.25819 -23.1391)
(-7.44751 0.974108 0.037554 -21.3416 8.05435 -18.0456)
(-4.51724 0.429633 0.165951 -10.8271 4.36911 -14.502)
(-9.34607 0.0189407 -0.202563 -305.86 -0.949273 -123.458)
(-9.62773 0.0991102 -0.249083 -169.964 2.45049 -66.638)
(-9.68075 0.207131 -0.207775 -147.805 4.67514 -58.8134)
(-9.69269 0.36031 -0.150802 -105.606 6.15911 -44.3888)
(-9.53871 0.585967 -0.0794129 -70.4952 6.91494 -33.402)
(-9.0317 0.890193 0.00612392 -41.7318 6.95114 -24.8079)
(-7.70694 1.13879 0.0866726 -20.8426 6.12389 -18.3869)
(-4.77948 0.646694 0.15928 -10.176 3.34128 -13.6514)
(-9.62164 0.0177463 -0.130987 -303.086 0.218529 -124.078)
(-9.8943 0.095327 -0.154263 -168.948 1.92673 -69.7271)
(-9.95217 0.211342 -0.115135 -147.115 3.29879 -62.0174)
(-9.95769 0.389182 -0.0658209 -105.255 4.23851 -47.2102)
(-9.77341 0.648422 -0.0109083 -70.2751 4.7472 -35.5144)
(-9.19851 0.98178 0.0471059 -41.4641 4.79685 -26.0879)
(-7.82745 1.24988 0.093765 -20.3804 4.25231 -18.8329)
(-4.92319 0.79005 0.129827 -9.71922 2.33112 -13.443)
(-9.78954 0.0195935 -0.0720132 -300.919 0.442451 -124.15)
(-10.0538 0.0994161 -0.0818255 -168.185 1.22576 -71.3565)
(-10.1097 0.22268 -0.0552802 -146.557 1.97068 -63.7959)
(-10.1068 0.41547 -0.0229612 -104.931 2.48801 -48.8534)
(-9.89413 0.693355 0.0110084 -70.04 2.77569 -36.8036)
(-9.27099 1.04109 0.0444935 -41.2129 2.80815 -26.9247)
(-7.88814 1.31684 0.0686694 -20.0446 2.4948 -19.2146)
(-4.99577 0.874415 0.0833883 -9.42054 1.36974 -13.4889)
(-9.86824 0.0209793 -0.0227897 -299.754 0.195035 -124.097)
(-10.1284 0.102701 -0.0253988 -167.777 0.419982 -72.0524)
(-10.1842 0.230169 -0.0162297 -146.251 0.656082 -64.5833)
(-10.1732 0.430101 -0.00509498 -104.745 0.821096 -49.601)
(-9.94421 0.71622 0.00625764 -69.8983 0.913759 -37.4062)
(-9.29632 1.07004 0.0171552 -41.0678 0.924429 -27.3323)
(-7.90858 1.34746 0.0246925 -19.8683 0.821622 -19.4246)
(-5.03155 0.912039 0.0281391 -9.27944 0.451123 -13.5695)
(-51.3473 8.09056 -2.74677 -3.85601 -1.67143 -3.19198)
(-46.1618 7.38727 -0.805614 -2.54032 -1.29836 0.918658)
(-46.4009 7.2141 -1.34185 -1.45825 -0.945535 -1.8342)
(-46.5452 7.1921 -1.60349 -0.597009 -0.690065 -2.57526)
(-47.0545 7.21541 -1.59491 0.050604 -0.499596 -2.81649)
(-47.464 7.24978 -1.29306 0.513696 -0.345046 -2.57885)
(-47.7459 7.2801 -0.834185 0.803449 -0.211215 -2.27304)
(-47.9096 7.29597 -0.288681 0.89058 -0.0740499 -2.10957)
(-44.2242 5.88303 -5.40615 -5.23913 -0.407346 -10.3976)
(-39.7664 4.79151 -4.90916 -4.60998 -0.301141 -9.56739)
(-39.7804 4.44437 -4.72299 -3.86078 -0.168455 -9.34355)
(-40.6279 4.31114 -4.55371 -3.22436 -0.095063 -8.8916)
(-41.5261 4.2544 -4.00976 -2.74551 -0.0590779 -8.62161)
(-42.1953 4.23096 -3.09046 -2.40341 -0.0378401 -8.39497)
(-42.6158 4.22539 -1.93485 -2.1787 -0.021842 -8.22979)
(-42.8022 4.23142 -0.657663 -2.05176 -0.00710958 -8.13182)
(-7.48424 5.06503 -5.42034 -6.26635 0.191602 -6.1116)
(-9.7372 3.86273 -6.23497 -5.7761 0.168119 -7.71489)
(-11.2707 3.42561 -6.03693 -5.20042 0.17651 -6.20045)
(-12.7262 3.22705 -5.47869 -4.71651 0.15994 -4.94016)
(-13.8069 3.12314 -4.60076 -4.35438 0.1272 -4.20942)
(-14.5276 3.06508 -3.44972 -4.09727 0.0908839 -3.88513)
(-14.9595 3.03314 -2.12817 -3.93062 0.0555099 -3.77313)
(-15.1579 3.01725 -0.718669 -3.84072 0.0192135 -3.74381)
(6.71469 4.99758 -3.59935 -5.95525 0.59934 -8.52699)
(2.61654 3.79396 -3.84899 -5.60942 0.400605 -11.8928)
(1.26213 3.3193 -3.72916 -5.2706 0.311992 -8.78125)
(0.0762329 3.08575 -3.22913 -4.94983 0.253512 -6.84325)
(-0.659157 2.95392 -2.62757 -4.69687 0.195973 -5.77823)
(-1.15799 2.87569 -1.92736 -4.51369 0.138459 -5.43216)
(-1.45901 2.8294 -1.1754 -4.39633 0.0813876 -5.40172)
(-1.60717 2.80457 -0.395284 -4.34598 0.0265356 -5.44988)
)
;
    }
    symmetry
    {
        type            symmetryPlane;
    }
    bottom
    {
        type            calculated;
        value           nonuniform List<symmTensor> 
32
(
(157.311 63.1859 0 235.967 63.7898 157.311)
(155.009 68.0702 0 232.513 29.9862 155.009)
(157.946 69.7985 0 236.92 12.9725 157.946)
(159.091 69.7946 0 238.637 4.60023 159.091)
(159.006 69.2557 0 238.509 0.801779 159.006)
(158.502 68.6748 0 237.753 -0.58803 158.502)
(157.997 68.2386 0 236.995 -0.737357 157.997)
(157.701 68.0095 0 236.551 -0.302617 157.701)
(27.9897 30.2738 0 41.9845 19.9271 27.9897)
(29.943 35.4703 0 44.9145 9.93599 29.943)
(31.9811 35.1768 0 47.9716 4.22745 31.9811)
(32.7758 33.8849 0 49.1638 1.32319 32.7758)
(33.0894 32.6486 0 49.6341 0.026916 33.0894)
(33.2116 31.7125 0 49.8175 -0.398867 33.2116)
(33.2559 31.1066 0 49.8839 -0.376574 33.2559)
(33.2693 30.8115 0 49.9039 -0.145638 33.2693)
(-43.4535 26.6766 0 -65.1802 -20.6581 -43.4535)
(-40.1841 31.838 0 -60.2762 -11.5547 -40.1841)
(-40.4716 31.0495 0 -60.7074 -6.37162 -40.4716)
(-40.446 29.351 0 -60.6691 -3.39007 -40.446)
(-40.1945 27.8372 0 -60.2918 -1.70388 -40.1945)
(-39.8777 26.719 0 -59.8166 -0.788571 -39.8777)
(-39.6104 26.0019 0 -59.4156 -0.319856 -39.6104)
(-39.4612 25.6541 0 -59.1917 -0.0827406 -39.4612)
(-160.517 51.4244 0 -240.776 -66.4766 -160.517)
(-154.257 55.1817 0 -231.385 -33.837 -154.257)
(-156.717 55.2793 0 -235.075 -16.5258 -156.717)
(-157.09 54.0722 0 -235.635 -7.40748 -157.09)
(-156.239 52.6929 0 -234.358 -2.82286 -156.239)
(-155.081 51.5431 0 -232.621 -0.740389 -155.081)
(-154.111 50.7509 0 -231.166 -0.00749203 -154.111)
(-153.575 50.3512 0 -230.362 0.063634 -153.575)
)
;
    }
}


// ************************************************************************* //
