/*--------------------------------*- C++ -*----------------------------------*\
| =========                 |                                                 |
| \\      /  F ield         | foam-extend: Open Source CFD                    |
|  \\    /   O peration     | Version:     3.1                                |
|   \\  /    A nd           | Web:         http://www.extend-project.de       |
|    \\/     M anipulation  |                                                 |
\*---------------------------------------------------------------------------*/
FoamFile
{
    version     2.0;
    format      ascii;
    class       volScalarField;
    location    "2.1";
    object      sigmaEq;
}
// * * * * * * * * * * * * * * * * * * * * * * * * * * * * * * * * * * * * * //

dimensions      [1 -1 -2 0 0 0 0];

internalField   nonuniform List<scalar> 
256
(
188.476
90.4718
85.8682
175.215
138.851
111.796
102.486
121.655
125.957
104.81
95.4578
105.559
100.576
92.2152
83.9249
78.823
78.3315
77.598
70.6276
56.6252
59.9179
62.4039
56.6794
38.6611
48.1139
48.5004
42.3063
25.7446
46.2038
39.4374
24.7016
16.877
184.954
96.769
91.1607
167.801
143.857
110.826
102.396
126.961
123.288
94.8432
86.1765
103.09
97.2176
79.9485
72.0415
75.4405
74.2657
65.0863
58.4984
52.3054
56.255
51.2356
46.0329
34.5439
45.0165
39.4616
34.3011
22.5598
43.7485
33.9512
21.3366
15.3608
184.583
96.8922
89.9009
164.399
142.837
109.452
99.7949
123.493
123.298
92.6452
82.606
100.463
97.1984
76.6316
67.4122
72.9035
74.1593
61.5606
53.8573
49.9216
55.96
47.9977
42.0517
32.4636
44.4828
36.9949
31.5246
20.9441
42.7704
33.1457
20.2356
13.0858
183.549
95.5296
87.4449
161.319
141.807
108.361
97.4377
120.478
123.205
92.05
80.6264
97.9968
97.6019
76.0825
65.547
70.7714
74.7154
61.0536
52.2276
47.9614
56.4759
47.5849
40.817
30.6521
44.8773
36.8421
30.8284
19.3654
43.0946
33.7935
20.0917
11.3825
182.206
93.9138
85.058
158.496
141.141
107.318
95.4099
118.247
123.223
91.7545
79.2788
96.0913
98.1339
76.1761
64.6557
69.1663
75.4674
61.3466
51.6863
46.503
57.2493
47.9588
40.5625
29.249
45.5931
37.2895
30.8081
18.0928
43.819
34.5579
20.1453
10.2058
180.929
92.5334
83.1498
156.173
140.667
106.415
93.7909
116.616
123.255
91.5022
78.2807
94.7062
98.5758
76.327
64.1256
68.0315
76.1021
61.7182
51.4934
45.4945
57.9238
48.406
40.585
28.2779
46.2457
37.744
30.9302
17.2051
44.5404
35.1159
20.1328
9.43118
179.973
91.5698
81.8523
154.54
140.343
105.758
92.6655
115.527
123.273
91.2937
77.5927
93.7936
98.869
76.416
63.7869
67.3021
76.5286
61.9767
51.4053
44.8628
58.384
48.7219
40.6422
27.6809
46.7036
38.0518
31.027
16.6688
45.065
35.4503
20.0675
8.9661
179.469
91.0809
81.2006
153.701
140.175
105.414
92.0898
114.979
123.276
91.1744
77.2381
93.3378
99.0098
76.4503
63.6144
66.9434
76.736
62.1002
51.3639
44.558
58.6092
48.8758
40.6736
27.3982
46.9299
38.1995
31.0717
16.4196
45.3281
35.6023
20.0132
8.74848
)
;

boundaryField
{
    interface
    {
        type            calculated;
        value           nonuniform List<scalar> 
192
(
302.368
153.919
149.87
112.817
85.0501
62.8246
51.5255
45.4862
296.779
166.257
151.262
115.955
87.6002
66.131
54.9301
48.6322
297.593
163.161
150.742
115.814
87.2747
65.3839
53.7632
45.933
297.381
160.992
150.239
116.042
87.7637
65.8405
54.1565
45.8866
296.191
159.768
149.988
116.407
88.4249
66.5417
54.8627
46.3492
294.745
159.036
149.897
116.778
89.0321
67.2078
55.5596
47.0245
293.549
158.587
149.858
117.047
89.4548
67.675
56.0554
47.5521
292.888
158.363
149.835
117.177
89.66
67.9035
56.296
47.8144
212.759
130.167
130.943
104.867
83.5344
64.8524
52.3376
50.1106
84.9662
110.377
112.947
101.562
87.0783
70.7837
55.2413
44.8084
81.7843
99.3882
102.351
92.2388
79.1763
64.1504
47.964
27.4161
201.21
110.657
109.723
82.1605
61.3037
43.29
29.8748
20.0893
279.175
141.111
129.445
90.1299
60.0055
35.6204
20.5258
14.6875
266.813
151.791
129.131
91.0999
60.5686
37.2349
23.1473
17.0096
264.685
146.904
126.388
88.9548
58.6312
35.4618
21.545
13.9375
262.131
143.25
123.621
86.621
56.3783
33.0031
18.8569
11.5936
259.054
140.838
121.539
84.7912
54.5438
30.8161
16.2092
9.73546
256.189
139.185
120.066
83.5079
53.2404
29.2113
14.1246
8.54128
254.05
138.11
119.107
82.6918
52.4186
28.195
12.7384
7.87875
252.921
137.572
118.63
82.2931
52.0215
27.7073
12.0582
7.60136
50.1477
47.2906
46.5542
46.7822
47.5039
48.2297
48.7685
49.0307
39.2091
35.0388
35.3498
36.5672
37.5916
38.2523
38.6249
38.7919
12.9194
13.1621
13.2819
13.5566
13.5482
13.2273
12.8295
12.5717
17.7369
15.7144
12.3693
9.91983
8.29717
7.1552
6.38536
5.98421
)
;
    }
    symmetry
    {
        type            symmetryPlane;
    }
    bottom
    {
        type            calculated;
        value           nonuniform List<scalar> 
32
(
174.274
150.35
146.141
144.93
143.915
142.935
142.169
141.752
64.3166
65.5343
63.4155
60.9784
58.9197
57.3871
56.3896
55.9
62.3477
62.0097
58.5106
55.0263
52.3195
50.4097
49.2022
48.6181
166.23
136.083
126.991
122.904
120.234
118.255
116.895
116.198
)
;
    }
}


// ************************************************************************* //
