/*--------------------------------*- C++ -*----------------------------------*\
| =========                 |                                                 |
| \\      /  F ield         | foam-extend: Open Source CFD                    |
|  \\    /   O peration     | Version:     3.1                                |
|   \\  /    A nd           | Web:         http://www.extend-project.de       |
|    \\/     M anipulation  |                                                 |
\*---------------------------------------------------------------------------*/
FoamFile
{
    version     2.0;
    format      ascii;
    class       volVectorField;
    location    "2.1";
    object      U;
}
// * * * * * * * * * * * * * * * * * * * * * * * * * * * * * * * * * * * * * //

dimensions      [0 1 -1 0 0 0 0];

internalField   nonuniform List<vector> 
256
(
(0.000164833 0.000148849 0.000293704)
(3.72672e-05 3.37168e-05 8.3838e-05)
(3.59958e-05 -4.79971e-05 -0.00011595)
(0.000163614 -0.000175872 -0.000345365)
(0.000781429 0.000608186 0.000375257)
(0.000652223 0.000159777 0.000129367)
(0.000644523 -0.000223572 -0.000163032)
(0.000753211 -0.000691886 -0.00041154)
(0.00164639 0.000933224 0.00040635)
(0.00152613 0.000248879 0.000137299)
(0.00151227 -0.000375951 -0.000149909)
(0.00159831 -0.00108114 -0.000420475)
(0.00272159 0.00116938 0.000386753)
(0.00262231 0.00029936 0.000134777)
(0.0026022 -0.00051393 -0.000126912)
(0.00265342 -0.00140258 -0.000379565)
(0.00392563 0.00130853 0.000348194)
(0.00384445 0.000313492 0.000124338)
(0.00381885 -0.000631342 -0.000101428)
(0.00384102 -0.00164115 -0.000325687)
(0.00518191 0.00136834 0.000306354)
(0.00511646 0.000299858 0.00011153)
(0.00508637 -0.000728131 -7.98189e-05)
(0.00508483 -0.00180761 -0.000275088)
(0.00642693 0.00136832 0.00027255)
(0.00637359 0.000267489 0.000100373)
(0.00634014 -0.000804181 -6.39121e-05)
(0.00632104 -0.00191361 -0.000237252)
(0.00761745 0.00133296 0.000253058)
(0.00756981 0.000225171 9.2865e-05)
(0.00753432 -0.000861758 -5.20822e-05)
(0.00750598 -0.00197814 -0.000214536)
(0.000220487 0.000141853 0.000174944)
(0.000107052 2.90974e-05 5.07993e-05)
(0.000107725 -4.29677e-05 -7.35249e-05)
(0.000223398 -0.000163746 -0.000212399)
(0.000942541 0.000586944 0.000258361)
(0.000790019 0.000145231 8.71264e-05)
(0.000786445 -0.00021911 -0.000113329)
(0.00092651 -0.000681271 -0.000288631)
(0.00184832 0.000924216 0.000301417)
(0.00172252 0.000236097 0.000101453)
(0.00171117 -0.000385105 -0.000113259)
(0.00180739 -0.00109393 -0.000315978)
(0.0029389 0.00116554 0.000306495)
(0.00283558 0.000288906 0.000105937)
(0.00281684 -0.000527751 -0.000101444)
(0.00287501 -0.00142321 -0.00030402)
(0.00414067 0.00130985 0.000293173)
(0.00405791 0.000306365 0.000103592)
(0.00403292 -0.000646494 -8.64427e-05)
(0.00405823 -0.00166496 -0.000277476)
(0.0053878 0.00137326 0.000273987)
(0.00532184 0.000295745 9.82566e-05)
(0.00529208 -0.000742454 -7.30564e-05)
(0.00529219 -0.00183123 -0.000250073)
(0.00662435 0.00137662 0.000257204)
(0.00657078 0.000265972 9.3054e-05)
(0.00653771 -0.000817888 -6.27784e-05)
(0.00652016 -0.00193752 -0.00022853)
(0.00781367 0.00134571 0.000245964)
(0.00776532 0.000226445 8.96949e-05)
(0.00773024 -0.000876745 -5.4279e-05)
(0.00770401 -0.00200526 -0.000212702)
(0.000251729 0.000151371 0.000110753)
(0.000133715 3.04038e-05 3.24072e-05)
(0.000135448 -4.48888e-05 -4.84482e-05)
(0.000257763 -0.000173974 -0.000136491)
(0.00104152 0.00059198 0.000177063)
(0.000875191 0.000141696 5.89178e-05)
(0.000874424 -0.000220507 -7.81037e-05)
(0.00103327 -0.000692139 -0.000200022)
(0.00199049 0.000924869 0.000218901)
(0.00185477 0.000230519 7.32223e-05)
(0.00184587 -0.000390418 -8.33291e-05)
(0.00195641 -0.00110607 -0.000232117)
(0.00310588 0.00116221 0.000235823)
(0.00299722 0.000281831 8.08094e-05)
(0.00298026 -0.000535448 -7.93034e-05)
(0.00304709 -0.00143494 -0.000236915)
(0.00431974 0.00130546 0.000238881)
(0.00423493 0.000299181 8.34513e-05)
(0.00421111 -0.000655704 -7.2122e-05)
(0.00424087 -0.00167727 -0.000229638)
(0.00557151 0.00137041 0.000235579)
(0.00550575 0.0002895 8.33427e-05)
(0.00547675 -0.000752803 -6.50188e-05)
(0.00547836 -0.00184541 -0.000219106)
(0.00681069 0.00137786 0.000231083)
(0.00675849 0.000261427 8.24566e-05)
(0.00672595 -0.000829732 -5.89597e-05)
(0.00670823 -0.00195574 -0.000209505)
(0.0080053 0.00135268 0.000226297)
(0.007959 0.000223935 8.17346e-05)
(0.00792436 -0.000890764 -5.27671e-05)
(0.00789705 -0.00202938 -0.00019949)
(0.000270345 0.00015893 7.24885e-05)
(0.000146498 3.17303e-05 2.12274e-05)
(0.000148762 -4.66068e-05 -3.24049e-05)
(0.000278167 -0.000182657 -8.95994e-05)
(0.00110615 0.000602935 0.00012224)
(0.00093033 0.000142035 4.02424e-05)
(0.000931141 -0.000223331 -5.42417e-05)
(0.00110225 -0.000706508 -0.000139108)
(0.002091 0.000932162 0.000157722)
(0.00194825 0.00022917 5.23252e-05)
(0.001941 -0.000395044 -6.08627e-05)
(0.00206146 -0.00111975 -0.000168942)
(0.00323277 0.00116498 0.000177768)
(0.00311997 0.000278491 6.03141e-05)
(0.00310436 -0.000541507 -6.09776e-05)
(0.00317784 -0.00144727 -0.000180863)
(0.00446437 0.00130527 0.000188499)
(0.00437782 0.000294522 6.50723e-05)
(0.004355 -0.000663055 -5.84487e-05)
(0.00438846 -0.00168929 -0.000183977)
(0.00572762 0.00136981 0.000193802)
(0.00566186 0.000284534 6.77125e-05)
(0.00563354 -0.00076155 -5.52932e-05)
(0.00563648 -0.00185882 -0.000183284)
(0.00697515 0.0013794 0.000196344)
(0.00692405 0.000257065 6.92514e-05)
(0.00689202 -0.000840175 -5.19971e-05)
(0.00687423 -0.00197246 -0.000180953)
(0.00817787 0.00135791 0.000195595)
(0.00813337 0.000220666 6.99481e-05)
(0.00809906 -0.000903124 -4.75123e-05)
(0.00807045 -0.00205048 -0.000175135)
(0.000282292 0.000164299 4.78398e-05)
(0.000153889 3.27314e-05 1.39673e-05)
(0.000156413 -4.78847e-05 -2.15819e-05)
(0.000291123 -0.000188891 -5.89239e-05)
(0.00114986 0.000613694 8.36535e-05)
(0.000967315 0.000143502 2.72634e-05)
(0.000968961 -0.000226141 -3.73649e-05)
(0.00114834 -0.000719363 -9.57354e-05)
(0.00216251 0.00094192 0.000111329)
(0.00201489 0.000229876 3.65761e-05)
(0.00200856 -0.000399294 -4.35776e-05)
(0.00213548 -0.00113346 -0.000120355)
(0.00332754 0.0011717 0.00012973)
(0.00321177 0.000277664 4.35458e-05)
(0.00319696 -0.000546846 -4.54087e-05)
(0.00327481 -0.00146036 -0.000133533)
(0.00457698 0.00130921 0.000142258)
(0.00448911 0.000292303 4.85588e-05)
(0.0044669 -0.000669446 -4.52263e-05)
(0.00450278 -0.00170197 -0.000140688)
(0.00585345 0.00137248 0.000150729)
(0.00578756 0.000281557 5.21001e-05)
(0.00575965 -0.000769124 -4.42262e-05)
(0.00576345 -0.00187223 -0.000144481)
(0.0071111 0.00138268 0.000156205)
(0.00706063 0.000254057 5.45722e-05)
(0.00702889 -0.000849125 -4.25891e-05)
(0.00701097 -0.00198793 -0.000145811)
(0.00832253 0.00136315 0.000157411)
(0.00827912 0.000218132 5.58051e-05)
(0.00824501 -0.000913541 -3.93912e-05)
(0.00821562 -0.00206884 -0.000142651)
(0.000290136 0.000167984 3.05097e-05)
(0.000158533 3.34316e-05 8.86987e-06)
(0.000161187 -4.87898e-05 -1.37945e-05)
(0.000299535 -0.000193162 -3.73643e-05)
(0.00117927 0.000622442 5.46076e-05)
(0.000992083 0.000145046 1.76354e-05)
(0.000994158 -0.000228484 -2.45479e-05)
(0.00117901 -0.00072943 -6.27744e-05)
(0.00221211 0.000951114 7.4244e-05)
(0.00206115 0.000231251 2.41598e-05)
(0.00205528 -0.000402869 -2.94422e-05)
(0.00218633 -0.00114518 -8.08948e-05)
(0.00339532 0.00117933 8.85382e-05)
(0.00327749 0.000278088 2.94278e-05)
(0.00326307 -0.000551308 -3.15359e-05)
(0.00334364 -0.0014722 -9.20118e-05)
(0.00465975 0.00131484 9.93539e-05)
(0.00457092 0.000291655 3.35948e-05)
(0.004549 -0.000674718 -3.22255e-05)
(0.00458634 -0.00171364 -9.92593e-05)
(0.00594807 0.00137682 0.000107437)
(0.00588202 0.000280136 3.68244e-05)
(0.00585436 -0.000775289 -3.21959e-05)
(0.00585878 -0.00188428 -0.000103999)
(0.00721499 0.00138688 0.000113029)
(0.00716485 0.000252342 3.91991e-05)
(0.00713329 -0.000856285 -3.14819e-05)
(0.00711533 -0.00200114 -0.000106488)
(0.00843416 0.00136823 0.000114729)
(0.00839131 0.00021651 4.0386e-05)
(0.00835738 -0.000921741 -2.93369e-05)
(0.00832771 -0.00208387 -0.000104907)
(0.000294977 0.000170307 1.70627e-05)
(0.000161351 3.38746e-05 4.9421e-06)
(0.000164071 -4.93729e-05 -7.71144e-06)
(0.000304685 -0.000195843 -2.07913e-05)
(0.00119761 0.000628504 3.09549e-05)
(0.0010075 0.000146227 9.92672e-06)
(0.00100978 -0.000230145 -1.39878e-05)
(0.00119797 -0.000736281 -3.56998e-05)
(0.00224361 0.000957997 4.26506e-05)
(0.00209052 0.000232506 1.37745e-05)
(0.00208486 -0.000405437 -1.70822e-05)
(0.00221836 -0.0011536 -4.67398e-05)
(0.00343915 0.00118556 5.16038e-05)
(0.00332001 0.00027884 1.70252e-05)
(0.00330575 -0.000554517 -1.86124e-05)
(0.00338789 -0.00148101 -5.3991e-05)
(0.0047142 0.00131988 5.8742e-05)
(0.00462473 0.000291723 1.97304e-05)
(0.00460297 -0.000678485 -1.93138e-05)
(0.00464117 -0.00172247 -5.90806e-05)
(0.00601116 0.0013809 6.43195e-05)
(0.00594499 0.000279631 2.19192e-05)
(0.00591748 -0.00077965 -1.95446e-05)
(0.00592229 -0.00189331 -6.26518e-05)
(0.00728495 0.00139064 6.82861e-05)
(0.00723493 0.000251541 2.35616e-05)
(0.00720343 -0.000861276 -1.92921e-05)
(0.00718537 -0.00201076 -6.47202e-05)
(0.00850978 0.00137231 6.96009e-05)
(0.00846715 0.000215671 2.4372e-05)
(0.00843324 -0.000927363 -1.80673e-05)
(0.00840331 -0.00209443 -6.40374e-05)
(0.0002973 0.000171435 5.50021e-06)
(0.000162694 3.40894e-05 1.58971e-06)
(0.00016544 -4.96596e-05 -2.48419e-06)
(0.000307138 -0.000197141 -6.68333e-06)
(0.00120645 0.000631591 1.00396e-05)
(0.00101493 0.000146855 3.20711e-06)
(0.00101728 -0.000231003 -4.55016e-06)
(0.00120704 -0.000739741 -1.15987e-05)
(0.00225894 0.00096164 1.39212e-05)
(0.00210481 0.000233225 4.47731e-06)
(0.00209921 -0.000406774 -5.60591e-06)
(0.00223385 -0.00115796 -1.5303e-05)
(0.0034607 0.00118899 1.69611e-05)
(0.00334091 0.000279351 5.57375e-06)
(0.0033267 -0.00055619 -6.15766e-06)
(0.00340957 -0.00148568 -1.78074e-05)
(0.00474121 0.00132277 1.94395e-05)
(0.00465144 0.000291908 6.50706e-06)
(0.00462973 -0.000680445 -6.43522e-06)
(0.00466836 -0.00172718 -1.96161e-05)
(0.0060427 0.00138331 2.14116e-05)
(0.00597646 0.000279518 7.27581e-06)
(0.00594902 -0.000781909 -6.55056e-06)
(0.00595404 -0.00189812 -2.0918e-05)
(0.0073201 0.00139283 2.28296e-05)
(0.00727012 0.000251256 7.8569e-06)
(0.00723863 -0.000863836 -6.49491e-06)
(0.00722053 -0.00201581 -2.16985e-05)
(0.00854789 0.0013746 2.33127e-05)
(0.00850532 0.00021534 8.14045e-06)
(0.00847139 -0.000930208 -6.09873e-06)
(0.00844127 -0.00209985 -2.15146e-05)
)
;

boundaryField
{
    interface
    {
        type            calculated;
        value           nonuniform List<vector> 
192
(
(0.000414973 0.000439265 0.000330769)
(0.000897932 0.000929803 0.000468291)
(0.00176959 0.00139189 0.000520488)
(0.00281304 0.00170994 0.000503651)
(0.00399285 0.00190072 0.000460437)
(0.00522652 0.00197688 0.000411024)
(0.00645506 0.00196755 0.000370982)
(0.00764126 0.00190863 0.000348769)
(0.000473452 0.000490891 0.000199313)
(0.00107738 0.00093986 0.00032297)
(0.00196972 0.00139271 0.000387098)
(0.00302902 0.00170769 0.000400975)
(0.00420454 0.00189801 0.000390108)
(0.00542917 0.00197681 0.000369915)
(0.0066499 0.00197275 0.00035197)
(0.00783597 0.00192233 0.000341551)
(0.000526425 0.000538717 0.000126854)
(0.00118453 0.000969459 0.000220516)
(0.002118 0.00140669 0.000280339)
(0.00319876 0.0017111 0.000309228)
(0.00438367 0.00189571 0.000318966)
(0.00561134 0.00197437 0.00031923)
(0.00683394 0.00197491 0.000317138)
(0.00802463 0.00193261 0.000315095)
(0.000561757 0.000572029 8.31903e-05)
(0.00125602 0.000997977 0.000151967)
(0.00222389 0.00142775 0.000201724)
(0.00332848 0.00172276 0.000233208)
(0.00452899 0.00190098 0.000252051)
(0.00576665 0.0019773 0.000262997)
(0.00699675 0.00197948 0.000269771)
(0.00819491 0.0019417 0.000272764)
(0.000585373 0.000594896 5.50136e-05)
(0.00130494 0.00102159 0.000104034)
(0.00229947 0.00144907 0.000142459)
(0.00342546 0.00173832 0.000170347)
(0.00464233 0.00191136 0.000190412)
(0.00589207 0.00198473 0.000204678)
(0.00713161 0.00198666 0.000214701)
(0.00833812 0.00195085 0.000219724)
(0.000601062 0.000610349 3.51571e-05)
(0.00133799 0.00103941 6.80128e-05)
(0.00235192 0.00146706 9.51269e-05)
(0.00349481 0.00175328 0.000116396)
(0.00472565 0.00192283 0.000133097)
(0.00598647 0.00199362 0.000145945)
(0.00723483 0.00199458 0.000155373)
(0.00844894 0.00195935 0.00016026)
(0.000610763 0.00062001 1.96926e-05)
(0.00135863 0.00105128 3.86124e-05)
(0.00238523 0.00147981 5.47142e-05)
(0.00353965 0.00176466 6.79091e-05)
(0.00478047 0.00193215 7.87424e-05)
(0.00604946 0.00200115 8.73911e-05)
(0.00730442 0.00200117 9.38616e-05)
(0.00852416 0.00196597 9.72593e-05)
(0.000615416 0.000624677 6.35311e-06)
(0.00136858 0.00105722 1.25341e-05)
(0.00240144 0.00148639 1.78707e-05)
(0.00356169 0.00177073 2.23326e-05)
(0.00480766 0.00193729 2.60669e-05)
(0.00608096 0.00200539 2.90948e-05)
(0.00733941 0.00200486 3.13769e-05)
(0.0085621 0.00196961 3.2581e-05)
(0.000113005 0.000334528 0.000446863)
(0.000661139 0.000625173 0.000411171)
(0.00151377 0.000942709 0.000458674)
(0.00258874 0.00115599 0.000422587)
(0.00380343 0.00128866 0.000373606)
(0.00507215 0.00134784 0.000321189)
(0.00632742 0.00135259 0.000279252)
(0.0075239 0.00132267 0.000255322)
(-3.76328e-05 9.97415e-05 0.000123067)
(0.000498826 0.000169422 0.000143508)
(0.00137317 0.000258408 0.000152467)
(0.00247958 0.000301114 0.000146509)
(0.00372053 0.000311428 0.000133582)
(0.00501127 0.000295842 0.000118322)
(0.0062835 0.000263683 0.000105267)
(0.00748953 0.000222602 9.51833e-05)
(-4.11765e-05 -0.000132284 -0.000163438)
(0.00049143 -0.000214257 -0.000171394)
(0.00136028 -0.000362906 -0.000162736)
(0.00246119 -0.000494121 -0.000136283)
(0.00369683 -0.000613604 -0.000108344)
(0.00498293 -0.000714493 -8.39539e-05)
(0.00625133 -0.00079518 -6.58178e-05)
(0.00745458 -0.000855586 -5.17614e-05)
(0.000104989 -0.000399336 -0.000500998)
(0.000634912 -0.000692258 -0.000440894)
(0.00146753 -0.00107113 -0.000470576)
(0.00252541 -0.00136977 -0.000412729)
(0.00372474 -0.00160777 -0.000348646)
(0.00498105 -0.00177975 -0.000287283)
(0.00622628 -0.00189508 -0.000241193)
(0.00741472 -0.00196579 -0.000214673)
(0.000391741 -0.000509141 -0.000382272)
(0.00084728 -0.00103191 -0.000505678)
(0.00168876 -0.00156515 -0.00053794)
(0.00270428 -0.00196237 -0.000498702)
(0.00386289 -0.00224688 -0.000439215)
(0.00508295 -0.00242383 -0.000380431)
(0.00630384 -0.00251665 -0.000336639)
(0.00748543 -0.00255699 -0.000312805)
(0.000450314 -0.000562672 -0.000237981)
(0.00104104 -0.00105747 -0.000356802)
(0.00189874 -0.00158635 -0.00040551)
(0.00292791 -0.00198412 -0.000401064)
(0.00408029 -0.00226664 -0.000376101)
(0.00529046 -0.00244356 -0.000347442)
(0.00650334 -0.0025395 -0.000325214)
(0.0076836 -0.00258745 -0.000311724)
(0.000504557 -0.000619295 -0.000153392)
(0.00115585 -0.00109523 -0.000246177)
(0.00205508 -0.00161164 -0.000296824)
(0.0031045 -0.00200228 -0.000312968)
(0.00426477 -0.00228082 -0.000311724)
(0.00547656 -0.00245833 -0.000304512)
(0.00669006 -0.0025592 -0.000297512)
(0.00787418 -0.00261551 -0.000291209)
(0.000541108 -0.000658825 -0.000100815)
(0.00123172 -0.00112867 -0.000170732)
(0.00216618 -0.0016395 -0.000215415)
(0.00323903 -0.00202351 -0.00023855)
(0.004414 -0.00229829 -0.000249405)
(0.00563458 -0.00247543 -0.000254238)
(0.00685503 -0.00257933 -0.000256254)
(0.00804542 -0.00264073 -0.000254782)
(0.0005656 -0.000685498 -6.64404e-05)
(0.00128309 -0.00115535 -0.000117395)
(0.00224456 -0.00166522 -0.000153212)
(0.00333862 -0.00204558 -0.000175824)
(0.00452941 -0.00231753 -0.000190361)
(0.00576135 -0.00249379 -0.000199887)
(0.00699078 -0.00259893 -0.00020592)
(0.00818907 -0.00266308 -0.000206983)
(0.000581866 -0.000703161 -4.22378e-05)
(0.00131748 -0.00117504 -7.69981e-05)
(0.0022984 -0.00168604 -0.000102901)
(0.00340915 -0.00206492 -0.000121001)
(0.00461357 -0.00233516 -0.000134102)
(0.00585659 -0.00251051 -0.000143579)
(0.00709449 -0.00261602 -0.000150006)
(0.00830039 -0.00268165 -0.000151917)
(0.000591917 -0.000714025 -2.35477e-05)
(0.00133879 -0.001188 -4.38032e-05)
(0.00233228 -0.00170051 -5.94237e-05)
(0.00345442 -0.00207901 -7.09436e-05)
(0.00466879 -0.00234838 -7.97398e-05)
(0.00592009 -0.00252305 -8.63669e-05)
(0.00716408 -0.00262856 -9.0957e-05)
(0.00837542 -0.00269482 -9.25263e-05)
(0.000596726 -0.000719218 -7.57605e-06)
(0.00134899 -0.00119442 -1.42313e-05)
(0.00234865 -0.00170789 -1.94475e-05)
(0.00347657 -0.00208637 -2.3386e-05)
(0.00469617 -0.00235541 -2.64621e-05)
(0.00595186 -0.00252972 -2.88177e-05)
(0.00719905 -0.00263513 -3.04668e-05)
(0.00841312 -0.00270158 -3.10399e-05)
(0.00818306 0.00131106 0.000245922)
(0.00838404 0.00132592 0.000239474)
(0.00858043 0.00133537 0.000220714)
(0.0087576 0.0013424 0.000190574)
(0.00890645 0.00134868 0.000152938)
(0.00902158 0.00135426 0.000111131)
(0.00909973 0.00135854 6.72591e-05)
(0.00913917 0.00136087 2.25018e-05)
(0.00812157 0.000205934 9.10291e-05)
(0.00832595 0.000208149 8.84023e-05)
(0.00852645 0.00020607 8.09998e-05)
(0.00870625 0.000203139 6.93809e-05)
(0.00885651 0.00020082 5.52559e-05)
(0.00897232 0.00019924 3.98886e-05)
(0.00905071 0.000198379 2.40135e-05)
(0.00909022 0.00019802 8.00974e-06)
(0.00808583 -0.000886222 -4.64912e-05)
(0.00829064 -0.000902868 -4.87802e-05)
(0.00849165 -0.000917806 -4.79595e-05)
(0.00867179 -0.000931007 -4.33712e-05)
(0.00882227 -0.00094205 -3.59572e-05)
(0.00893828 -0.000950689 -2.67486e-05)
(0.00901672 -0.000956579 -1.64783e-05)
(0.00905621 -0.000959554 -5.56668e-06)
(0.00807209 -0.00200422 -0.000203387)
(0.00827593 -0.00203383 -0.000201153)
(0.00847405 -0.00206065 -0.000189312)
(0.00865209 -0.00208384 -0.000166293)
(0.00880142 -0.00210362 -0.000135175)
(0.00891703 -0.00211954 -9.91665e-05)
(0.0089952 -0.00213057 -6.04569e-05)
(0.00903451 -0.00213617 -2.03047e-05)
)
;
    }
    symmetry
    {
        type            symmetryPlane;
    }
    bottom
    {
        type            calculated;
        value           uniform (0 0 0);
    }
}


// ************************************************************************* //
