/*--------------------------------*- C++ -*----------------------------------*\
| =========                 |                                                 |
| \\      /  F ield         | foam-extend: Open Source CFD                    |
|  \\    /   O peration     | Version:     3.1                                |
|   \\  /    A nd           | Web:         http://www.extend-project.de       |
|    \\/     M anipulation  |                                                 |
\*---------------------------------------------------------------------------*/
FoamFile
{
    version     2.0;
    format      ascii;
    class       volVectorField;
    location    "1.5";
    object      cellMotionU;
}
// * * * * * * * * * * * * * * * * * * * * * * * * * * * * * * * * * * * * * //

dimensions      [0 1 -1 0 0 0 0];

internalField   nonuniform List<vector> 
14592
(
(-1.04525e-10 -9.4798e-11 -1.41976e-11)
(-3.0326e-10 -2.77007e-10 -4.17071e-11)
(-4.85597e-10 -4.49751e-10 -6.84016e-11)
(-6.58458e-10 -6.21886e-10 -9.58601e-11)
(-8.28544e-10 -8.01321e-10 -1.25343e-10)
(-1.0029e-09 -9.95652e-10 -1.57763e-10)
(-1.18957e-09 -1.2129e-09 -1.93534e-10)
(-1.39833e-09 -1.46236e-09 -2.32197e-10)
(-1.64153e-09 -1.75604e-09 -2.71702e-10)
(-1.93479e-09 -2.11054e-09 -3.06941e-10)
(-2.29693e-09 -2.54988e-09 -3.27006e-10)
(-2.74696e-09 -3.10906e-09 -3.10005e-10)
(-3.29371e-09 -3.83586e-09 -2.13535e-10)
(-3.90834e-09 -4.78139e-09 4.04577e-11)
(-4.46995e-09 -5.93894e-09 5.71679e-10)
(-4.73327e-09 -6.98345e-09 1.37575e-09)
(-3.10822e-10 -2.79999e-10 -4.22395e-11)
(-9.01713e-10 -8.18118e-10 -1.24091e-10)
(-1.44357e-09 -1.32812e-09 -2.03552e-10)
(-1.95668e-09 -1.83583e-09 -2.8533e-10)
(-2.46059e-09 -2.36421e-09 -3.73226e-10)
(-2.97578e-09 -2.93504e-09 -4.70073e-10)
(-3.52546e-09 -3.57088e-09 -5.77337e-10)
(-4.13777e-09 -4.29745e-09 -6.9419e-10)
(-4.84832e-09 -5.14728e-09 -8.1564e-10)
(-5.70255e-09 -6.16445e-09 -9.28829e-10)
(-6.75679e-09 -7.4124e-09 -1.00642e-09)
(-8.07359e-09 -8.98287e-09 -9.9434e-10)
(-9.70152e-09 -1.10035e-08 -7.91554e-10)
(-1.16177e-08 -1.36242e-08 -2.23404e-10)
(-1.35969e-08 -1.68968e-08 9.44807e-10)
(-1.49905e-08 -2.01026e-08 2.6031e-09)
(-5.10546e-10 -4.53682e-10 -6.9441e-11)
(-1.48072e-09 -1.32534e-09 -2.04019e-10)
(-2.36915e-09 -2.15052e-09 -3.34687e-10)
(-3.20836e-09 -2.97038e-09 -4.69263e-10)
(-4.02948e-09 -3.82093e-09 -6.14145e-10)
(-4.86465e-09 -4.73556e-09 -7.74319e-10)
(-5.74991e-09 -5.74746e-09 -9.52868e-10)
(-6.72856e-09 -6.89318e-09 -1.14993e-09)
(-7.85496e-09 -8.21613e-09 -1.36023e-09)
(-9.19909e-09 -9.77318e-09 -1.56892e-09)
(-1.08503e-08 -1.16423e-08 -1.74385e-09)
(-1.29177e-08 -1.39334e-08 -1.82282e-09)
(-1.55183e-08 -1.67954e-08 -1.69378e-09)
(-1.87298e-08 -2.04006e-08 -1.17303e-09)
(-2.24357e-08 -2.48057e-08 -3.08595e-11)
(-2.57407e-08 -2.91126e-08 1.5932e-09)
(-6.99843e-10 -6.09043e-10 -9.52842e-11)
(-2.02898e-09 -1.77871e-09 -2.79953e-10)
(-3.24373e-09 -2.88437e-09 -4.59285e-10)
(-4.38725e-09 -3.97998e-09 -6.44112e-10)
(-5.50027e-09 -5.11184e-09 -8.4346e-10)
(-6.6242e-09 -6.32127e-09 -1.06468e-09)
(-7.80459e-09 -7.64735e-09 -1.31314e-09)
(-9.09511e-09 -9.12958e-09 -1.59123e-09)
(-1.05623e-08 -1.08109e-08 -1.89631e-09)
(-1.2291e-08 -1.27415e-08 -2.217e-09)
(-1.43914e-08 -1.49843e-08 -2.52724e-09)
(-1.70038e-08 -1.76189e-08 -2.7766e-09)
(-2.02985e-08 -2.07407e-08 -2.87624e-09)
(-2.44453e-08 -2.44309e-08 -2.68014e-09)
(-2.94452e-08 -2.86061e-08 -1.98271e-09)
(-3.42455e-08 -3.23055e-08 -7.80581e-10)
(-8.75495e-10 -7.40328e-10 -1.19286e-10)
(-2.53712e-09 -2.16148e-09 -3.50482e-10)
(-4.05219e-09 -3.50267e-09 -5.74994e-10)
(-5.47241e-09 -4.82765e-09 -8.06484e-10)
(-6.84597e-09 -6.18992e-09 -1.05653e-09)
(-8.22073e-09 -7.63498e-09 -1.3349e-09)
(-9.64814e-09 -9.203e-09 -1.64965e-09)
(-1.11871e-08 -1.09293e-08 -2.00623e-09)
(-1.29089e-08 -1.28461e-08 -2.40629e-09)
(-1.49027e-08 -1.49814e-08 -2.84503e-09)
(-1.72819e-08 -1.73584e-08 -3.30755e-09)
(-2.01907e-08 -1.99912e-08 -3.76357e-09)
(-2.38047e-08 -2.28757e-08 -4.16011e-09)
(-2.82997e-08 -2.59623e-08 -4.40932e-09)
(-3.36647e-08 -2.90624e-08 -4.36755e-09)
(-3.87598e-08 -3.14607e-08 -3.92022e-09)
(-1.03497e-09 -8.42963e-10 -1.41034e-10)
(-2.99788e-09 -2.4605e-09 -4.14357e-10)
(-4.78298e-09 -3.98454e-09 -6.79696e-10)
(-6.44844e-09 -5.48561e-09 -9.5325e-10)
(-8.04758e-09 -7.02132e-09 -1.24889e-09)
(-9.63216e-09 -8.63852e-09 -1.57874e-09)
(-1.12561e-08 -1.03743e-08 -1.95332e-09)
(-1.29792e-08 -1.22559e-08 -2.3814e-09)
(-1.48713e-08 -1.4298e-08 -2.86893e-09)
(-1.70169e-08 -1.64986e-08 -3.41772e-09)
(-1.95199e-08 -1.883e-08 -4.02302e-09)
(-2.25076e-08 -2.12265e-08 -4.67048e-09)
(-2.61285e-08 -2.35684e-08 -5.3318e-09)
(-3.05179e-08 -2.56727e-08 -5.95599e-09)
(-3.5614e-08 -2.73148e-08 -6.4463e-09)
(-4.03039e-08 -2.8264e-08 -6.64679e-09)
(-1.17649e-09 -9.13684e-10 -1.60175e-10)
(-3.40616e-09 -2.66638e-09 -4.70551e-10)
(-5.42833e-09 -4.31544e-09 -7.71642e-10)
(-7.30552e-09 -5.93529e-09 -1.08178e-09)
(-9.09409e-09 -7.58514e-09 -1.41676e-09)
(-1.08474e-08 -9.31089e-09 -1.79064e-09)
(-1.26193e-08 -1.1145e-08 -2.2161e-09)
(-1.44673e-08 -1.31047e-08 -2.70448e-09)
(-1.6456e-08 -1.51872e-08 -3.26526e-09)
(-1.86607e-08 -1.73613e-08 -3.90495e-09)
(-2.11699e-08 -1.95525e-08 -4.62485e-09)
(-2.40884e-08 -2.16224e-08 -5.41708e-09)
(-2.75352e-08 -2.33395e-08 -6.25497e-09)
(-3.16248e-08 -2.43603e-08 -7.07046e-09)
(-3.63544e-08 -2.43032e-08 -7.70823e-09)
(-4.09421e-08 -2.32763e-08 -7.94236e-09)
(-1.29894e-09 -9.50457e-10 -1.76475e-10)
(-3.75895e-09 -2.77335e-09 -5.18326e-10)
(-5.98396e-09 -4.48684e-09 -8.49589e-10)
(-8.03891e-09 -6.16646e-09 -1.19019e-09)
(-9.98145e-09 -7.87135e-09 -1.55741e-09)
(-1.18647e-08 -9.64509e-09 -1.96664e-09)
(-1.37406e-08 -1.15154e-08 -2.43207e-09)
(-1.56624e-08 -1.34912e-08 -2.96676e-09)
(-1.7688e-08 -1.55565e-08 -3.58237e-09)
(-1.98815e-08 -1.766e-08 -4.28813e-09)
(-2.2316e-08 -1.96993e-08 -5.08865e-09)
(-2.50737e-08 -2.14958e-08 -5.97841e-09)
(-2.82411e-08 -2.27574e-08 -6.92677e-09)
(-3.188e-08 -2.30216e-08 -7.8334e-09)
(-3.58814e-08 -2.16068e-08 -8.40719e-09)
(-3.93692e-08 -1.81603e-08 -8.09744e-09)
(-1.01903e-10 -9.84949e-11 -1.35037e-11)
(-2.95368e-10 -2.87923e-10 -3.96556e-11)
(-4.72066e-10 -4.67899e-10 -6.50042e-11)
(-6.38287e-10 -6.47859e-10 -9.1038e-11)
(-8.0006e-10 -8.36283e-10 -1.18954e-10)
(-9.63628e-10 -1.04133e-09 -1.49629e-10)
(-1.136e-09 -1.27159e-09 -1.83488e-10)
(-1.32558e-09 -1.53695e-09 -2.20189e-10)
(-1.54292e-09 -1.84993e-09 -2.57966e-10)
(-1.80117e-09 -2.22741e-09 -2.92362e-10)
(-2.11572e-09 -2.69305e-09 -3.13846e-10)
(-2.50057e-09 -3.27936e-09 -3.03459e-10)
(-2.95638e-09 -4.02574e-09 -2.25677e-10)
(-3.44001e-09 -4.95853e-09 -2.00816e-11)
(-3.81056e-09 -6.01295e-09 3.88977e-10)
(-3.84194e-09 -6.83097e-09 9.5218e-10)
(-3.03057e-10 -2.90893e-10 -4.01717e-11)
(-8.78351e-10 -8.50322e-10 -1.17985e-10)
(-1.40351e-09 -1.38161e-09 -1.93428e-10)
(-1.89697e-09 -1.91237e-09 -2.70952e-10)
(-2.37629e-09 -2.4672e-09 -3.54157e-10)
(-2.85955e-09 -3.06949e-09 -4.45748e-10)
(-3.36686e-09 -3.74344e-09 -5.47205e-10)
(-3.92229e-09 -4.51651e-09 -6.57979e-10)
(-4.55582e-09 -5.42259e-09 -7.73801e-10)
(-5.30522e-09 -6.50678e-09 -8.83562e-10)
(-6.21596e-09 -7.83131e-09 -9.63477e-10)
(-7.33462e-09 -9.48147e-09 -9.67318e-10)
(-8.68425e-09 -1.15627e-08 -8.12293e-10)
(-1.01981e-08 -1.41587e-08 -3.70557e-10)
(-1.15854e-08 -1.71549e-08 4.78426e-10)
(-1.22403e-08 -1.96815e-08 1.52072e-09)
(-4.97912e-10 -4.71299e-10 -6.60398e-11)
(-1.4427e-09 -1.37735e-09 -1.93957e-10)
(-2.30398e-09 -2.2369e-09 -3.18003e-10)
(-3.11127e-09 -3.09387e-09 -4.45546e-10)
(-3.89246e-09 -3.98688e-09 -5.8263e-10)
(-4.67578e-09 -4.95183e-09 -7.33978e-10)
(-5.4922e-09 -6.02463e-09 -9.02649e-10)
(-6.37805e-09 -7.24409e-09 -1.08897e-09)
(-7.3781e-09 -8.65607e-09 -1.28862e-09)
(-8.54862e-09 -1.03184e-08 -1.48876e-09)
(-9.95911e-09 -1.23075e-08 -1.66176e-09)
(-1.16889e-08 -1.47239e-08 -1.75513e-09)
(-1.38081e-08 -1.76869e-08 -1.68005e-09)
(-1.63169e-08 -2.12814e-08 -1.31378e-09)
(-1.89829e-08 -2.53443e-08 -5.80291e-10)
(-2.0972e-08 -2.87568e-08 2.24064e-10)
(-6.82756e-10 -6.32597e-10 -9.06048e-11)
(-1.97758e-09 -1.84824e-09 -2.66112e-10)
(-3.15568e-09 -2.99975e-09 -4.36321e-10)
(-4.2562e-09 -4.14474e-09 -6.11425e-10)
(-5.31552e-09 -5.33288e-09 -7.99915e-10)
(-6.36978e-09 -6.60881e-09 -1.00873e-09)
(-7.45757e-09 -8.01479e-09 -1.24298e-09)
(-8.62297e-09 -9.59339e-09 -1.50509e-09)
(-9.91871e-09 -1.139e-08 -1.79297e-09)
(-1.14096e-08 -1.34562e-08 -2.09686e-09)
(-1.31752e-08 -1.58522e-08 -2.39414e-09)
(-1.53084e-08 -1.86473e-08 -2.64223e-09)
(-1.79041e-08 -2.19057e-08 -2.77151e-09)
(-2.10099e-08 -2.56241e-08 -2.69067e-09)
(-2.44577e-08 -2.95185e-08 -2.34643e-09)
(-2.73081e-08 -3.24511e-08 -1.93274e-09)
(-8.5451e-10 -7.68825e-10 -1.13416e-10)
(-2.47403e-09 -2.24559e-09 -3.33115e-10)
(-3.94422e-09 -3.64211e-09 -5.46153e-10)
(-5.31195e-09 -5.0265e-09 -7.65376e-10)
(-6.62016e-09 -6.45617e-09 -1.00162e-09)
(-7.91041e-09 -7.98057e-09 -1.26409e-09)
(-9.22561e-09 -9.64322e-09 -1.5602e-09)
(-1.06129e-08 -1.1483e-08 -1.89512e-09)
(-1.21264e-08 -1.35343e-08 -2.27029e-09)
(-1.3829e-08 -1.58261e-08 -2.68123e-09)
(-1.57938e-08 -1.83786e-08 -3.11402e-09)
(-1.80994e-08 -2.11959e-08 -3.54089e-09)
(-2.08135e-08 -2.42483e-08 -3.91697e-09)
(-2.39371e-08 -2.74264e-08 -4.18522e-09)
(-2.72312e-08 -3.04157e-08 -4.31011e-09)
(-2.97497e-08 -3.24023e-08 -4.3608e-09)
(-1.01075e-09 -8.75266e-10 -1.34081e-10)
(-2.92507e-09 -2.55576e-09 -3.93775e-10)
(-4.65858e-09 -4.14233e-09 -6.45505e-10)
(-6.26398e-09 -5.7103e-09 -9.04454e-10)
(-7.78876e-09 -7.32167e-09 -1.18361e-09)
(-9.27763e-09 -9.02729e-09 -1.4942e-09)
(-1.07751e-08 -1.08681e-08 -1.84595e-09)
(-1.2328e-08 -1.28743e-08 -2.24663e-09)
(-1.39868e-08 -1.5063e-08 -2.70122e-09)
(-1.58068e-08 -1.7432e-08 -3.2101e-09)
(-1.78453e-08 -1.99504e-08 -3.76623e-09)
(-2.01537e-08 -2.25432e-08 -4.35131e-09)
(-2.27526e-08 -2.50743e-08 -4.93164e-09)
(-2.55675e-08 -2.734e-08 -5.45957e-09)
(-2.8265e-08 -2.91068e-08 -5.89627e-09)
(-2.99614e-08 -3.01725e-08 -6.2462e-09)
(-1.14972e-09 -9.4852e-10 -1.52267e-10)
(-3.32579e-09 -2.76908e-09 -4.47138e-10)
(-5.29128e-09 -4.48542e-09 -7.32737e-10)
(-7.10291e-09 -6.17699e-09 -1.02622e-09)
(-8.81099e-09 -7.90772e-09 -1.34235e-09)
(-1.04615e-08 -9.72746e-09 -1.69406e-09)
(-1.20988e-08 -1.16724e-08 -2.09289e-09)
(-1.37672e-08 -1.37626e-08 -2.54875e-09)
(-1.55121e-08 -1.59971e-08 -3.06921e-09)
(-1.73799e-08 -1.83436e-08 -3.65779e-09)
(-1.94143e-08 -2.07232e-08 -4.3107e-09)
(-2.16474e-08 -2.29872e-08 -5.01039e-09)
(-2.40787e-08 -2.48921e-08 -5.71425e-09)
(-2.66306e-08 -2.61006e-08 -6.33863e-09)
(-2.9063e-08 -2.63318e-08 -6.76409e-09)
(-3.08209e-08 -2.59227e-08 -6.95641e-09)
(-1.27033e-09 -9.86499e-10 -1.67752e-10)
(-3.67318e-09 -2.87966e-09 -4.92526e-10)
(-5.83806e-09 -4.66263e-09 -8.06697e-10)
(-7.82408e-09 -6.41624e-09 -1.12896e-09)
(-9.68279e-09 -8.20411e-09 -1.47534e-09)
(-1.14603e-08 -1.0074e-08 -1.86005e-09)
(-1.31994e-08 -1.20569e-08 -2.29583e-09)
(-1.49412e-08 -1.41644e-08 -2.79394e-09)
(-1.67264e-08 -1.63814e-08 -3.36354e-09)
(-1.85944e-08 -1.86551e-08 -4.00993e-09)
(-2.05812e-08 -2.08767e-08 -4.73088e-09)
(-2.27127e-08 -2.2855e-08 -5.50864e-09)
(-2.4988e-08 -2.4281e-08 -6.2919e-09)
(-2.73368e-08 -2.46939e-08 -6.95659e-09)
(-2.94988e-08 -2.35378e-08 -7.24195e-09)
(-3.08006e-08 -2.08773e-08 -6.85428e-09)
(-9.90485e-11 -1.01943e-10 -1.23327e-11)
(-2.86767e-10 -2.98124e-10 -3.62117e-11)
(-4.57259e-10 -4.84869e-10 -5.93427e-11)
(-6.16054e-10 -6.72176e-10 -8.30908e-11)
(-7.68336e-10 -8.69029e-10 -1.08567e-10)
(-9.19299e-10 -1.08407e-09 -1.36623e-10)
(-1.07458e-09 -1.3263e-09 -1.67773e-10)
(-1.24073e-09 -1.60594e-09 -2.0197e-10)
(-1.42579e-09 -1.93544e-09 -2.3818e-10)
(-1.63955e-09 -2.33087e-09 -2.73545e-10)
(-1.89301e-09 -2.81325e-09 -3.01906e-10)
(-2.19479e-09 -3.40865e-09 -3.11312e-10)
(-2.53992e-09 -4.14232e-09 -2.80418e-10)
(-2.88322e-09 -5.0136e-09 -1.75451e-10)
(-3.09894e-09 -5.92146e-09 4.19637e-11)
(-3.02506e-09 -6.52762e-09 3.42181e-10)
(-2.9461e-10 -3.01067e-10 -3.66872e-11)
(-8.52897e-10 -8.80391e-10 -1.07726e-10)
(-1.35971e-09 -1.43166e-09 -1.76565e-10)
(-1.83121e-09 -1.98407e-09 -2.47267e-10)
(-2.28249e-09 -2.56373e-09 -3.23167e-10)
(-2.7285e-09 -3.19545e-09 -4.06878e-10)
(-3.18529e-09 -3.90474e-09 -5.00087e-10)
(-3.67131e-09 -4.71994e-09 -6.03014e-10)
(-4.20887e-09 -5.67504e-09 -7.13341e-10)
(-4.82519e-09 -6.81299e-09 -8.24176e-10)
(-5.55146e-09 -8.18919e-09 -9.20672e-10)
(-6.41563e-09 -9.87183e-09 -9.7481e-10)
(-7.41913e-09 -1.19293e-08 -9.398e-10)
(-8.48032e-09 -1.43759e-08 -7.51868e-10)
(-9.34051e-09 -1.70109e-08 -3.6739e-10)
(-9.58623e-09 -1.90413e-08 9.00362e-11)
(-4.84176e-10 -4.87735e-10 -6.03013e-11)
(-1.40133e-09 -1.42596e-09 -1.77074e-10)
(-2.23281e-09 -2.31775e-09 -2.90233e-10)
(-3.00452e-09 -3.20965e-09 -4.06503e-10)
(-3.74029e-09 -4.1427e-09 -5.31459e-10)
(-4.46333e-09 -5.15509e-09 -6.69606e-10)
(-5.19785e-09 -6.28479e-09 -8.24151e-10)
(-5.97091e-09 -7.57239e-09 -9.96434e-10)
(-6.81409e-09 -9.06411e-09 -1.18456e-09)
(-7.76493e-09 -1.08154e-08 -1.38129e-09)
(-8.8662e-09 -1.2894e-08 -1.57046e-09)
(-1.01598e-08 -1.53783e-08 -1.72276e-09)
(-1.16674e-08 -1.83397e-08 -1.79381e-09)
(-1.33435e-08 -2.17772e-08 -1.7363e-09)
(-1.49848e-08 -2.54306e-08 -1.55292e-09)
(-1.61032e-08 -2.83065e-08 -1.39663e-09)
(-6.64217e-10 -6.54598e-10 -8.27226e-11)
(-1.92175e-09 -1.91327e-09 -2.4291e-10)
(-3.05973e-09 -3.10786e-09 -3.98133e-10)
(-4.11244e-09 -4.29946e-09 -5.57673e-10)
(-5.11088e-09 -5.54095e-09 -7.29321e-10)
(-6.08445e-09 -6.88002e-09 -9.19566e-10)
(-7.06265e-09 -8.36187e-09 -1.13351e-09)
(-8.07671e-09 -1.00315e-08 -1.37435e-09)
(-9.16086e-09 -1.19357e-08 -1.64227e-09)
(-1.03525e-08 -1.41243e-08 -1.93273e-09)
(-1.16899e-08 -1.66501e-08 -2.23398e-09)
(-1.32048e-08 -1.95616e-08 -2.52493e-09)
(-1.49046e-08 -2.28782e-08 -2.77636e-09)
(-1.6739e-08 -2.65167e-08 -2.96366e-09)
(-1.85393e-08 -3.01062e-08 -3.09956e-09)
(-1.98812e-08 -3.26219e-08 -3.24269e-09)
(-8.31793e-10 -7.95467e-10 -1.03536e-10)
(-2.40566e-09 -2.3243e-09 -3.04011e-10)
(-3.82686e-09 -3.7729e-09 -4.98233e-10)
(-5.13644e-09 -5.21354e-09 -6.9785e-10)
(-6.37092e-09 -6.70751e-09 -9.12758e-10)
(-7.56371e-09 -8.30791e-09 -1.1514e-09)
(-8.74686e-09 -1.00619e-08 -1.42089e-09)
(-9.95186e-09 -1.20116e-08 -1.7266e-09)
(-1.12098e-08 -1.4194e-08 -2.07146e-09)
(-1.25489e-08 -1.66383e-08 -2.45463e-09)
(-1.39877e-08 -1.93608e-08 -2.86994e-09)
(-1.55198e-08 -2.23525e-08 -3.30487e-09)
(-1.70835e-08 -2.55542e-08 -3.74246e-09)
(-1.85132e-08 -2.88031e-08 -4.16986e-09)
(-1.94994e-08 -3.1721e-08 -4.58878e-09)
(-1.97308e-08 -3.35346e-08 -4.95959e-09)
(-9.84575e-10 -9.05464e-10 -1.22377e-10)
(-2.84639e-09 -2.645e-09 -3.59315e-10)
(-4.52375e-09 -4.29051e-09 -5.8873e-10)
(-6.06289e-09 -5.92205e-09 -8.2439e-10)
(-7.50415e-09 -7.60593e-09 -1.07804e-09)
(-8.88332e-09 -9.39719e-09 -1.35992e-09)
(-1.02329e-08 -1.13408e-08 -1.67892e-09)
(-1.15824e-08 -1.34711e-08 -2.04245e-09)
(-1.29572e-08 -1.58088e-08 -2.45572e-09)
(-1.43734e-08 -1.83545e-08 -2.9206e-09)
(-1.58273e-08 -2.10781e-08 -3.43372e-09)
(-1.72714e-08 -2.39026e-08 -3.9842e-09)
(-1.85703e-08 -2.66859e-08 -4.55226e-09)
(-1.94314e-08 -2.92139e-08 -5.11197e-09)
(-1.937e-08 -3.12324e-08 -5.63845e-09)
(-1.81461e-08 -3.24771e-08 -6.06533e-09)
(-1.12088e-09 -9.81114e-10 -1.38962e-10)
(-3.23919e-09 -2.86536e-09 -4.0795e-10)
(-5.14323e-09 -4.64522e-09 -6.68166e-10)
(-6.88289e-09 -6.4052e-09 -9.35123e-10)
(-8.50099e-09 -8.21373e-09 -1.22208e-09)
(-1.00344e-08 -1.01253e-08 -1.54074e-09)
(-1.15152e-08 -1.21803e-08 -1.90137e-09)
(-1.29704e-08 -1.44035e-08 -2.31283e-09)
(-1.44205e-08 -1.67982e-08 -2.78176e-09)
(-1.58736e-08 -1.93369e-08 -3.31104e-09)
(-1.73144e-08 -2.19457e-08 -3.89663e-09)
(-1.86806e-08 -2.44832e-08 -4.52173e-09)
(-1.98235e-08 -2.67209e-08 -5.14683e-09)
(-2.04564e-08 -2.83554e-08 -5.69771e-09)
(-2.01811e-08 -2.91468e-08 -6.07184e-09)
(-1.902e-08 -2.93104e-08 -6.22483e-09)
(-1.23961e-09 -1.02027e-09 -1.53086e-10)
(-3.58104e-09 -2.97937e-09 -4.4931e-10)
(-5.68102e-09 -4.82808e-09 -7.35515e-10)
(-7.59168e-09 -6.6523e-09 -1.02851e-09)
(-9.35727e-09 -8.52046e-09 -1.34274e-09)
(-1.10149e-08 -1.04847e-08 -1.69082e-09)
(-1.25959e-08 -1.25808e-08 -2.08398e-09)
(-1.41256e-08 -1.48246e-08 -2.53184e-09)
(-1.56219e-08 -1.72061e-08 -3.04172e-09)
(-1.70915e-08 -1.96775e-08 -3.61662e-09)
(-1.85215e-08 -2.21365e-08 -4.25128e-09)
(-1.98635e-08 -2.44024e-08 -4.92368e-09)
(-2.10076e-08 -2.61878e-08 -5.57785e-09)
(-2.17406e-08 -2.70806e-08 -6.09044e-09)
(-2.17179e-08 -2.66046e-08 -6.2248e-09)
(-2.07456e-08 -2.475e-08 -5.74629e-09)
(-9.61835e-11 -1.05033e-10 -1.07313e-11)
(-2.78123e-10 -3.07266e-10 -3.1507e-11)
(-4.42337e-10 -5.00103e-10 -5.16329e-11)
(-5.93545e-10 -6.94029e-10 -7.23053e-11)
(-7.36023e-10 -8.98479e-10 -9.45237e-11)
(-8.73845e-10 -1.1225e-09 -1.19108e-10)
(-1.01118e-09 -1.37542e-09 -1.46671e-10)
(-1.15271e-09 -1.66758e-09 -1.77533e-10)
(-1.30402e-09 -2.01112e-09 -2.11536e-10)
(-1.47208e-09 -2.42083e-09 -2.47709e-10)
(-1.66508e-09 -2.91461e-09 -2.83709e-10)
(-1.89018e-09 -3.51207e-09 -3.14916e-10)
(-2.14556e-09 -4.22718e-09 -3.33129e-10)
(-2.40011e-09 -5.04369e-09 -3.24944e-10)
(-2.56071e-09 -5.8509e-09 -2.7186e-10)
(-2.50193e-09 -6.34336e-09 -1.71707e-10)
(-2.86133e-10 -3.10176e-10 -3.19195e-11)
(-8.27333e-10 -9.07364e-10 -9.37265e-11)
(-1.31558e-09 -1.47659e-09 -1.53609e-10)
(-1.76467e-09 -2.04853e-09 -2.15136e-10)
(-2.187e-09 -2.65062e-09 -2.813e-10)
(-2.5942e-09 -3.30888e-09 -3.54579e-10)
(-2.99798e-09 -4.04983e-09 -4.36904e-10)
(-3.41106e-09 -4.90234e-09 -5.29459e-10)
(-3.8483e-09 -5.89971e-09 -6.32252e-10)
(-4.32775e-09 -7.08169e-09 -7.43431e-10)
(-4.87059e-09 -8.49547e-09 -8.58193e-10)
(-5.49714e-09 -1.01922e-08 -9.67505e-10)
(-6.21169e-09 -1.22104e-08 -1.0572e-09)
(-6.96333e-09 -1.4525e-08 -1.10943e-09)
(-7.57652e-09 -1.69176e-08 -1.11005e-09)
(-7.75414e-09 -1.86981e-08 -1.06875e-09)
(-4.70409e-10 -5.02477e-10 -5.24623e-11)
(-1.35981e-09 -1.46957e-09 -1.54037e-10)
(-2.16117e-09 -2.39039e-09 -2.52449e-10)
(-2.89657e-09 -3.31386e-09 -3.53583e-10)
(-3.58553e-09 -4.28319e-09 -4.62408e-10)
(-4.24582e-09 -5.33858e-09 -5.83124e-10)
(-4.89457e-09 -6.51985e-09 -7.19192e-10)
(-5.54919e-09 -7.86871e-09 -8.7311e-10)
(-6.22843e-09 -9.43111e-09 -1.04611e-09)
(-6.953e-09 -1.1259e-08 -1.23752e-09)
(-7.74516e-09 -1.34097e-08 -1.44436e-09)
(-8.62553e-09 -1.594e-08 -1.66145e-09)
(-9.60413e-09 -1.88827e-08 -1.88394e-09)
(-1.06609e-08 -2.21863e-08 -2.11414e-09)
(-1.17078e-08 -2.55744e-08 -2.36815e-09)
(-1.24961e-08 -2.8192e-08 -2.63022e-09)
(-6.45651e-10 -6.74329e-10 -7.19547e-11)
(-1.86579e-09 -1.97164e-09 -2.11265e-10)
(-2.96328e-09 -3.20509e-09 -3.46214e-10)
(-3.9673e-09 -4.43893e-09 -4.84897e-10)
(-4.90312e-09 -5.72899e-09 -6.342e-10)
(-5.79288e-09 -7.1258e-09 -8.00074e-10)
(-6.65647e-09 -8.67724e-09 -9.87632e-10)
(-7.51191e-09 -1.04305e-08 -1.2011e-09)
(-8.37511e-09 -1.24333e-08 -1.44364e-09)
(-9.2583e-09 -1.47338e-08 -1.71725e-09)
(-1.01661e-08 -1.73763e-08 -2.02309e-09)
(-1.10884e-08 -2.03902e-08 -2.36335e-09)
(-1.19925e-08 -2.37589e-08 -2.74563e-09)
(-1.28246e-08 -2.73486e-08 -3.18843e-09)
(-1.35438e-08 -3.07618e-08 -3.70863e-09)
(-1.41358e-08 -3.30773e-08 -4.20657e-09)
(-8.09075e-10 -8.19375e-10 -9.00406e-11)
(-2.33723e-09 -2.39504e-09 -2.64356e-10)
(-3.7091e-09 -3.89069e-09 -4.33141e-10)
(-4.95961e-09 -5.38247e-09 -6.06534e-10)
(-6.11838e-09 -6.93527e-09 -7.93204e-10)
(-7.21024e-09 -8.60582e-09 -1.00077e-09)
(-8.25559e-09 -1.04448e-08 -1.23593e-09)
(-9.26991e-09 -1.2498e-08 -1.50465e-09)
(-1.02615e-08 -1.48051e-08 -1.81202e-09)
(-1.12259e-08 -1.73971e-08 -2.16237e-09)
(-1.2136e-08 -2.02878e-08 -2.55998e-09)
(-1.29222e-08 -2.34591e-08 -3.01104e-09)
(-1.3448e-08 -2.68302e-08 -3.52779e-09)
(-1.34981e-08 -3.02007e-08 -4.13055e-09)
(-1.28674e-08 -3.315e-08 -4.82269e-09)
(-1.18073e-08 -3.49112e-08 -5.44654e-09)
(-9.58459e-10 -9.32601e-10 -1.06412e-10)
(-2.76779e-09 -2.72526e-09 -3.12377e-10)
(-4.38876e-09 -4.42413e-09 -5.11678e-10)
(-5.86075e-09 -6.11363e-09 -7.16224e-10)
(-7.21651e-09 -7.86424e-09 -9.3626e-10)
(-8.48231e-09 -9.73518e-09 -1.1808e-09)
(-9.67796e-09 -1.17759e-08 -1.45797e-09)
(-1.08153e-08 -1.40255e-08 -1.77498e-09)
(-1.18944e-08 -1.651e-08 -2.13815e-09)
(-1.28951e-08 -1.92358e-08 -2.55255e-09)
(-1.37608e-08 -2.21785e-08 -3.02184e-09)
(-1.43689e-08 -2.5267e-08 -3.54834e-09)
(-1.44868e-08 -2.83624e-08 -4.13374e-09)
(-1.37349e-08 -3.12446e-08 -4.77907e-09)
(-1.16926e-08 -3.36177e-08 -5.46967e-09)
(-8.74671e-09 -3.50928e-08 -6.07035e-09)
(-1.09216e-09 -1.01042e-09 -1.20813e-10)
(-3.15286e-09 -2.95204e-09 -3.54597e-10)
(-4.99534e-09 -4.78949e-09 -5.80574e-10)
(-6.66226e-09 -6.61197e-09 -8.12126e-10)
(-8.18856e-09 -8.49252e-09 -1.06078e-09)
(-9.60133e-09 -1.04901e-08 -1.33662e-09)
(-1.09197e-08 -1.26503e-08 -1.64874e-09)
(-1.2153e-08 -1.50037e-08 -2.00512e-09)
(-1.32966e-08 -1.75609e-08 -2.41232e-09)
(-1.43231e-08 -2.03036e-08 -2.87445e-09)
(-1.51661e-08 -2.3171e-08 -3.39117e-09)
(-1.56922e-08 -2.60418e-08 -3.95377e-09)
(-1.56619e-08 -2.87176e-08 -4.53838e-09)
(-1.471e-08 -3.09327e-08 -5.0973e-09)
(-1.25066e-08 -3.24479e-08 -5.55996e-09)
(-9.67534e-09 -3.3263e-08 -5.86826e-09)
(-1.20908e-09 -1.05063e-09 -1.33072e-10)
(-3.48943e-09 -3.06922e-09 -3.90504e-10)
(-5.52453e-09 -4.97756e-09 -6.38969e-10)
(-7.35933e-09 -6.86654e-09 -8.93003e-10)
(-9.03017e-09 -8.80918e-09 -1.16498e-09)
(-1.05648e-08 -1.08625e-08 -1.46579e-09)
(-1.19822e-08 -1.30676e-08 -1.80499e-09)
(-1.32913e-08 -1.54467e-08 -2.19084e-09)
(-1.44877e-08 -1.7998e-08 -2.62955e-09)
(-1.55473e-08 -2.06848e-08 -3.12369e-09)
(-1.6415e-08 -2.34214e-08 -3.66871e-09)
(-1.69888e-08 -2.6053e-08 -4.24583e-09)
(-1.70986e-08 -2.83344e-08 -4.80775e-09)
(-1.65024e-08 -2.99165e-08 -5.25162e-09)
(-1.49812e-08 -3.03778e-08 -5.38351e-09)
(-1.29091e-08 -2.95489e-08 -5.01334e-09)
(-9.35389e-11 -1.07659e-10 -8.758e-12)
(-2.7014e-10 -3.15043e-10 -2.57151e-11)
(-4.28527e-10 -5.1307e-10 -4.21451e-11)
(-5.72655e-10 -7.12652e-10 -5.90405e-11)
(-7.05946e-10 -9.23603e-10 -7.72502e-11)
(-8.3143e-10 -1.15531e-09 -9.75175e-11)
(-9.51979e-10 -1.41735e-09 -1.20507e-10)
(-1.07067e-09 -1.72012e-09 -1.46815e-10)
(-1.19136e-09 -2.07541e-09 -1.76997e-10)
(-1.31952e-09 -2.49683e-09 -2.11599e-10)
(-1.46322e-09 -2.99967e-09 -2.51234e-10)
(-1.63331e-09 -3.59884e-09 -2.96637e-10)
(-1.83965e-09 -4.30158e-09 -3.4837e-10)
(-2.07633e-09 -5.08555e-09 -4.05074e-10)
(-2.28783e-09 -5.843e-09 -4.57824e-10)
(-2.35324e-09 -6.29335e-09 -4.82497e-10)
(-2.78314e-10 -3.17925e-10 -2.60497e-11)
(-8.03719e-10 -9.30296e-10 -7.64858e-11)
(-1.27474e-09 -1.51484e-09 -1.25367e-10)
(-1.70292e-09 -2.10348e-09 -1.75639e-10)
(-2.09813e-09 -2.72478e-09 -2.29833e-10)
(-2.46892e-09 -3.40582e-09 -2.90185e-10)
(-2.82309e-09 -4.1739e-09 -3.58723e-10)
(-3.16855e-09 -5.05825e-09 -4.37335e-10)
(-3.51465e-09 -6.09139e-09 -5.2792e-10)
(-3.87425e-09 -7.31019e-09 -6.32625e-10)
(-4.26651e-09 -8.75498e-09 -7.54414e-10)
(-4.71907e-09 -1.04644e-08 -8.97914e-10)
(-5.26421e-09 -1.24584e-08 -1.07017e-09)
(-5.91425e-09 -1.46948e-08 -1.27863e-09)
(-6.5889e-09 -1.6963e-08 -1.51783e-09)
(-7.0068e-09 -1.86401e-08 -1.72298e-09)
(-4.57707e-10 -5.15002e-10 -4.28055e-11)
(-1.32147e-09 -1.50667e-09 -1.25685e-10)
(-2.09492e-09 -2.45227e-09 -2.05993e-10)
(-2.79649e-09 -3.40277e-09 -2.88582e-10)
(-3.4416e-09 -4.40327e-09 -3.77632e-10)
(-4.04305e-09 -5.49575e-09 -4.76877e-10)
(-4.61152e-09 -6.72155e-09 -5.89758e-10)
(-5.15634e-09 -8.12337e-09 -7.19663e-10)
(-5.68644e-09 -9.74687e-09 -8.70217e-10)
(-6.21212e-09 -1.16408e-08 -1.04605e-09)
(-6.74792e-09 -1.38546e-08 -1.25419e-09)
(-7.31738e-09 -1.64284e-08 -1.50664e-09)
(-7.95977e-09 -1.93701e-08 -1.82342e-09)
(-8.73362e-09 -2.26022e-08 -2.23153e-09)
(-9.68526e-09 -2.58515e-08 -2.74067e-09)
(-1.06355e-08 -2.83443e-08 -3.23043e-09)
(-6.28543e-10 -6.91116e-10 -5.8702e-11)
(-1.81417e-09 -2.02134e-09 -1.72348e-10)
(-2.87417e-09 -3.28798e-09 -2.8243e-10)
(-3.83286e-09 -4.55808e-09 -3.95602e-10)
(-4.71009e-09 -5.89006e-09 -5.17621e-10)
(-5.52131e-09 -7.33699e-09 -6.53661e-10)
(-6.27772e-09 -8.94918e-09 -8.08587e-10)
(-6.98607e-09 -1.0776e-08 -9.87294e-10)
(-7.64804e-09 -1.28663e-08 -1.19525e-09)
(-8.25908e-09 -1.5267e-08 -1.43963e-09)
(-8.80711e-09 -1.80169e-08 -1.73158e-09)
(-9.27309e-09 -2.11317e-08 -2.08998e-09)
(-9.64024e-09 -2.45701e-08 -2.54575e-09)
(-9.9274e-09 -2.81666e-08 -3.1384e-09)
(-1.02556e-08 -3.15064e-08 -3.87459e-09)
(-1.07907e-08 -3.37168e-08 -4.56101e-09)
(-7.88166e-10 -8.39731e-10 -7.34448e-11)
(-2.27419e-09 -2.45531e-09 -2.15607e-10)
(-3.60042e-09 -3.99122e-09 -3.53239e-10)
(-4.79601e-09 -5.52702e-09 -4.94627e-10)
(-5.88407e-09 -7.13085e-09 -6.46973e-10)
(-6.88141e-09 -8.86272e-09 -8.16738e-10)
(-7.79801e-09 -1.07768e-08 -1.01007e-09)
(-8.63552e-09 -1.29225e-08 -1.23309e-09)
(-9.38418e-09 -1.53432e-08 -1.49261e-09)
(-1.00172e-08 -1.80724e-08 -1.79722e-09)
(-1.04813e-08 -2.11251e-08 -2.15961e-09)
(-1.06839e-08 -2.44787e-08 -2.60044e-09)
(-1.04839e-08 -2.8039e-08 -3.15232e-09)
(-9.71624e-09 -3.15773e-08 -3.85509e-09)
(-8.34061e-09 -3.46274e-08 -4.70804e-09)
(-6.89944e-09 -3.63888e-08 -5.48356e-09)
(-9.34448e-10 -9.55715e-10 -8.67783e-11)
(-2.69548e-09 -2.7937e-09 -2.54723e-10)
(-4.26435e-09 -4.53831e-09 -4.17164e-10)
(-5.67402e-09 -6.27785e-09 -5.83833e-10)
(-6.95004e-09 -8.08659e-09 -7.63143e-10)
(-8.10984e-09 -1.00277e-08 -9.62653e-10)
(-9.16174e-09 -1.21552e-08 -1.18942e-09)
(-1.01024e-08 -1.45133e-08 -1.45037e-09)
(-1.09116e-08 -1.71345e-08 -1.75262e-09)
(-1.15436e-08 -2.0033e-08 -2.10424e-09)
(-1.19107e-08 -2.3194e-08 -2.51544e-09)
(-1.18587e-08 -2.65572e-08 -3.00063e-09)
(-1.1137e-08 -2.99929e-08 -3.58053e-09)
(-9.39765e-09 -3.32749e-08 -4.27924e-09)
(-6.37076e-09 -3.60529e-08 -5.09272e-09)
(-2.78298e-09 -3.77849e-08 -5.83686e-09)
(-1.0658e-09 -1.0354e-09 -9.85084e-11)
(-3.07357e-09 -3.02603e-09 -2.89096e-10)
(-4.85928e-09 -4.9129e-09 -4.73213e-10)
(-6.45882e-09 -6.78951e-09 -6.61763e-10)
(-7.8996e-09 -8.73301e-09 -8.64108e-10)
(-9.19969e-09 -1.08069e-08 -1.08862e-09)
(-1.03665e-08 -1.3062e-08 -1.34293e-09)
(-1.1394e-08 -1.55354e-08 -1.63413e-09)
(-1.22575e-08 -1.82466e-08 -1.96879e-09)
(-1.29044e-08 -2.11894e-08 -2.35272e-09)
(-1.32386e-08 -2.43211e-08 -2.7903e-09)
(-1.30977e-08 -2.75463e-08 -3.283e-09)
(-1.22303e-08 -3.07027e-08 -3.82601e-09)
(-1.03141e-08 -3.35607e-08 -4.40267e-09)
(-7.18343e-09 -3.58655e-08 -4.97759e-09)
(-3.78137e-09 -3.7378e-08 -5.46722e-09)
(-1.18111e-09 -1.07655e-09 -1.08496e-10)
(-3.4054e-09 -3.14594e-09 -3.18314e-10)
(-5.38082e-09 -5.10556e-09 -5.20706e-10)
(-7.14543e-09 -7.05066e-09 -7.27416e-10)
(-8.72822e-09 -9.05868e-09 -9.48537e-10)
(-1.01481e-08 -1.11914e-08 -1.19288e-09)
(-1.14129e-08 -1.34954e-08 -1.46831e-09)
(-1.25174e-08 -1.60005e-08 -1.7817e-09)
(-1.34392e-08 -1.87147e-08 -2.13858e-09)
(-1.41323e-08 -2.16161e-08 -2.54203e-09)
(-1.45186e-08 -2.46407e-08 -2.99039e-09)
(-1.44782e-08 -2.76677e-08 -3.4723e-09)
(-1.38491e-08 -3.05017e-08 -3.95668e-09)
(-1.24663e-08 -3.28596e-08 -4.37337e-09)
(-1.03328e-08 -3.43698e-08 -4.58558e-09)
(-8.17757e-09 -3.46903e-08 -4.43871e-09)
(-9.13331e-11 -1.09725e-10 -6.48181e-12)
(-2.63475e-10 -3.21159e-10 -1.90318e-11)
(-4.16987e-10 -5.2328e-10 -3.11988e-11)
(-5.55178e-10 -7.27332e-10 -4.3726e-11)
(-6.80757e-10 -9.43433e-10 -5.72671e-11)
(-7.95912e-10 -1.18123e-09 -7.24283e-11)
(-9.02511e-10 -1.45052e-09 -8.98158e-11)
(-1.00253e-09 -1.76172e-09 -1.10109e-10)
(-1.09888e-09 -2.12638e-09 -1.34185e-10)
(-1.1969e-09 -2.55724e-09 -1.63341e-10)
(-1.30679e-09 -3.06782e-09 -1.99651e-10)
(-1.4464e-09 -3.6702e-09 -2.46384e-10)
(-1.64154e-09 -4.36834e-09 -3.08035e-10)
(-1.91458e-09 -5.13905e-09 -3.88415e-10)
(-2.2436e-09 -5.88186e-09 -4.82992e-10)
(-2.48986e-09 -6.33323e-09 -5.60025e-10)
(-2.7179e-10 -3.24014e-10 -1.92764e-11)
(-7.84015e-10 -9.48343e-10 -5.66051e-11)
(-1.24063e-09 -1.54497e-09 -9.27958e-11)
(-1.65128e-09 -2.14682e-09 -1.3006e-10)
(-2.02373e-09 -2.78336e-09 -1.70341e-10)
(-2.36403e-09 -3.4825e-09 -2.15448e-10)
(-2.67697e-09 -4.27221e-09 -2.67197e-10)
(-2.9671e-09 -5.18198e-09 -3.27652e-10)
(-3.24066e-09 -6.24385e-09 -3.99507e-10)
(-3.50941e-09 -7.49257e-09 -4.86821e-10)
(-3.79726e-09 -8.96391e-09 -5.96207e-10)
(-4.14947e-09 -1.06887e-08 -7.38427e-10)
(-4.63943e-09 -1.2677e-08 -9.29221e-10)
(-5.3521e-09 -1.48813e-08 -1.18514e-09)
(-6.28903e-09 -1.71034e-08 -1.50234e-09)
(-7.11228e-09 -1.87591e-08 -1.78934e-09)
(-4.47119e-10 -5.2486e-10 -3.16742e-11)
(-1.2895e-09 -1.53587e-09 -9.30024e-11)
(-2.0396e-09 -2.50102e-09 -1.52447e-10)
(-2.7128e-09 -3.47294e-09 -2.13638e-10)
(-3.32114e-09 -4.49822e-09 -2.79769e-10)
(-3.87332e-09 -5.62031e-09 -3.53815e-10)
(-4.37509e-09 -6.8818e-09 -4.38799e-10)
(-4.82997e-09 -8.32634e-09 -5.38154e-10)
(-5.24111e-09 -9.99946e-09 -6.56426e-10)
(-5.61519e-09 -1.1948e-08 -8.00522e-10)
(-5.97044e-09 -1.4216e-08 -9.81871e-10)
(-6.35108e-09 -1.68334e-08 -1.21944e-09)
(-6.84867e-09 -1.9793e-08 -1.54193e-09)
(-7.6175e-09 -2.30034e-08 -1.98211e-09)
(-8.81471e-09 -2.61938e-08 -2.54174e-09)
(-1.02014e-08 -2.86293e-08 -3.06769e-09)
(-6.14286e-10 -7.04325e-10 -4.34291e-11)
(-1.77114e-09 -2.06048e-09 -1.27507e-10)
(-2.7998e-09 -3.35335e-09 -2.08965e-10)
(-3.72052e-09 -4.65222e-09 -2.92764e-10)
(-4.54863e-09 -6.01764e-09 -3.83272e-10)
(-5.29411e-09 -7.50479e-09 -4.84556e-10)
(-5.96142e-09 -9.16608e-09 -6.00738e-10)
(-6.5492e-09 -1.10528e-08 -7.3648e-10)
(-7.05026e-09 -1.32153e-08 -8.97891e-10)
(-7.45265e-09 -1.57004e-08 -1.09415e-09)
(-7.74357e-09 -1.85439e-08 -1.34036e-09)
(-7.92038e-09 -2.17531e-08 -1.66155e-09)
(-8.0166e-09 -2.52712e-08 -2.09559e-09)
(-8.15195e-09 -2.89098e-08 -2.68509e-09)
(-8.58001e-09 -3.22337e-08 -3.42812e-09)
(-9.45802e-09 -3.43846e-08 -4.11245e-09)
(-7.70755e-10 -8.55763e-10 -5.43252e-11)
(-2.22168e-09 -2.50281e-09 -1.59484e-10)
(-3.50981e-09 -4.07058e-09 -2.61286e-10)
(-4.65941e-09 -5.64139e-09 -3.65907e-10)
(-5.68822e-09 -7.28608e-09 -4.78754e-10)
(-6.60649e-09 -9.06745e-09 -6.04856e-10)
(-7.41603e-09 -1.10428e-08 -7.4921e-10)
(-8.10845e-09 -1.32648e-08 -9.17361e-10)
(-8.66245e-09 -1.57806e-08 -1.11626e-09)
(-9.03998e-09 -1.86275e-08 -1.35594e-09)
(-9.18168e-09 -2.1823e-08 -1.65231e-09)
(-9.00395e-09 -2.53441e-08 -2.03132e-09)