/*--------------------------------*- C++ -*----------------------------------*\
| =========                 |                                                 |
| \\      /  F ield         | foam-extend: Open Source CFD                    |
|  \\    /   O peration     | Version:     3.1                                |
|   \\  /    A nd           | Web:         http://www.extend-project.de       |
|    \\/     M anipulation  |                                                 |
\*---------------------------------------------------------------------------*/
FoamFile
{
    version     2.0;
    format      ascii;
    class       surfaceScalarField;
    location    "1.5";
    object      meshPhi;
}
// * * * * * * * * * * * * * * * * * * * * * * * * * * * * * * * * * * * * * //

dimensions      [0 3 -1 0 0 0 0];

internalField   nonuniform List<scalar> 
41600
(
-1.0509e-07
-1.8314e-08
-6.02335e-10
6.15432e-10
-2.0232e-07
-5.4206e-08
-1.80967e-09
1.8487e-09
-2.90887e-07
-8.90467e-08
-3.06006e-09
3.12492e-09
-3.73096e-07
-1.24175e-07
-4.45094e-09
4.54246e-09
-4.50811e-07
-1.61372e-07
-6.1062e-09
6.2259e-09
-5.2545e-07
-2.02377e-07
-8.17202e-09
8.32138e-09
-5.97922e-07
-2.48999e-07
-1.08366e-08
1.1016e-08
-6.6846e-07
-3.03224e-07
-1.43584e-08
1.45655e-08
-7.36354e-07
-3.67301e-07
-1.91103e-08
1.93375e-08
-7.9953e-07
-4.43787e-07
-2.5653e-08
2.58829e-08
-8.54072e-07
-5.35536e-07
-3.48629e-08
3.50591e-08
-8.93898e-07
-6.45549e-07
-4.81528e-08
4.82388e-08
-9.11279e-07
-7.76494e-07
-6.78062e-08
6.76143e-08
-8.9985e-07
-9.28862e-07
-9.71351e-08
9.63425e-08
-8.60976e-07
-1.09017e-06
-1.37647e-07
1.36353e-07
-1.44343e-06
-2.37959e-07
3.2824e-07
-3.13443e-07
-3.57598e-08
-1.79185e-09
1.83075e-09
-6.03375e-07
-1.05815e-07
-5.37892e-09
5.49481e-09
-8.67408e-07
-1.7373e-07
-9.0848e-09
9.27734e-09
-1.11242e-06
-2.42052e-07
-1.31963e-08
1.34677e-08
-1.34398e-06
-3.14184e-07
-1.80739e-08
1.84286e-08
-1.56638e-06
-3.93408e-07
-2.41373e-08
2.45792e-08
-1.78246e-06
-4.83098e-07
-3.19188e-08
3.24485e-08
-1.99318e-06
-5.86908e-07
-4.21363e-08
4.27459e-08
-2.19685e-06
-7.08904e-07
-5.58009e-08
5.64671e-08
-2.38798e-06
-8.53586e-07
-7.43884e-08
7.50604e-08
-2.55587e-06
-1.02572e-06
-1.00119e-07
1.00695e-07
-2.68345e-06
-1.22973e-06
-1.36396e-07
1.36673e-07
-2.74837e-06
-1.46806e-06
-1.88355e-07
1.87901e-07
-2.73069e-06
-1.7368e-06
-2.62677e-07
2.60657e-07
-2.63132e-06
-2.00847e-06
-3.60583e-07
3.5675e-07
-2.40234e-06
-5.53099e-07
7.00103e-07
-5.16608e-07
-5.16091e-08
-2.92014e-09
2.98359e-09
-9.94274e-07
-1.52656e-07
-8.75463e-09
8.94366e-09
-1.42903e-06
-2.50433e-07
-1.47574e-08
1.50713e-08
-1.83224e-06
-3.48486e-07
-2.13834e-08
2.18255e-08
-2.21315e-06
-4.51562e-07
-2.91958e-08
2.97725e-08
-2.57898e-06
-5.64169e-07
-3.88351e-08
3.95522e-08
-2.93481e-06
-6.90852e-07
-5.10935e-08
5.19504e-08
-3.28296e-06
-8.36426e-07
-6.70057e-08
6.79878e-08
-3.62198e-06
-1.00611e-06
-8.79712e-08
8.9039e-08
-3.94497e-06
-1.20549e-06
-1.15932e-07
1.17002e-07
-4.23736e-06
-1.44012e-06
-1.53613e-07
1.54529e-07
-4.4748e-06
-1.71442e-06
-2.04816e-07
2.0528e-07
-4.62365e-06
-2.02889e-06
-2.74528e-07
2.73949e-07
-4.65074e-06
-2.37405e-06
-3.67708e-07
3.64946e-07
-4.55007e-06
-2.71178e-06
-4.81025e-07
4.74945e-07
-3.17975e-06
-6.49639e-07
7.5412e-07
-7.11546e-07
-6.52259e-08
-3.94269e-09
4.02869e-09
-1.3691e-06
-1.92845e-07
-1.18013e-08
1.20574e-08
-1.96713e-06
-3.16055e-07
-1.9842e-08
2.02669e-08
-2.52128e-06
-4.39135e-07
-2.8654e-08
2.92516e-08
-3.04437e-06
-5.67829e-07
-3.89529e-08
3.97312e-08
-3.54665e-06
-7.07477e-07
-5.15291e-08
5.24942e-08
-4.03575e-06
-8.6333e-07
-6.73259e-08
6.8475e-08
-4.51619e-06
-1.04079e-06
-8.75241e-08
8.88347e-08
-4.9883e-06
-1.2455e-06
-1.13641e-07
1.15055e-07
-5.44643e-06
-1.48331e-06
-1.47638e-07
1.49038e-07
-5.87635e-06
-1.75971e-06
-1.9202e-07
1.93187e-07
-6.25225e-06
-2.07848e-06
-2.49821e-07
2.50361e-07
-6.53534e-06
-2.43851e-06
-3.24141e-07
3.23316e-07
-6.68158e-06
-2.82686e-06
-4.16258e-07
4.12685e-07
-6.66746e-06
-3.20079e-06
-5.1856e-07
5.10242e-07
-3.69251e-06
-6.51951e-07
7.36157e-07
-8.95382e-07
-7.61105e-08
-4.82582e-09
4.93173e-09
-1.72231e-06
-2.24913e-07
-1.44183e-08
1.47335e-08
-2.47363e-06
-3.68214e-07
-2.41684e-08
2.46909e-08
-3.16898e-06
-5.10736e-07
-3.47587e-08
3.54924e-08
-3.82455e-06
-6.58844e-07
-4.70017e-08
4.79551e-08
-4.45356e-06
-8.18303e-07
-6.17634e-08
6.29423e-08
-5.06642e-06
-9.94597e-07
-8.00334e-08
8.14315e-08
-5.67048e-06
-1.19314e-06
-1.0299e-07
1.04576e-07
-6.26921e-06
-1.41937e-06
-1.32058e-07
1.33753e-07
-6.86075e-06
-1.67864e-06
-1.68929e-07
1.70575e-07
-7.4355e-06
-1.97576e-06
-2.1551e-07
2.16816e-07
-7.97263e-06
-2.31379e-06
-2.73693e-07
2.74133e-07
-8.43612e-06
-2.69117e-06
-3.44512e-07
3.43155e-07
-8.77485e-06
-3.09458e-06
-4.26102e-07
4.21283e-07
-8.93314e-06
-3.48107e-06
-5.0827e-07
4.9744e-07
-3.96735e-06
-6.06119e-07
6.68066e-07
-1.06555e-06
-8.39119e-08
-5.54909e-09
5.67181e-09
-2.04895e-06
-2.47838e-07
-1.65461e-08
1.69112e-08
-2.94135e-06
-4.05292e-07
-2.76408e-08
2.82453e-08
-3.76594e-06
-5.61161e-07
-3.95676e-08
4.0415e-08
-4.54191e-06
-7.22066e-07
-5.31835e-08
5.42818e-08
-5.28521e-06
-8.93821e-07
-6.93648e-08
7.07185e-08
-6.00894e-06
-1.08171e-06
-8.90641e-08
9.06631e-08
-6.72346e-06
-1.29066e-06
-1.13354e-07
1.15158e-07
-7.43604e-06
-1.52533e-06
-1.43441e-07
1.45351e-07
-8.15001e-06
-1.78998e-06
-1.80624e-07
1.82444e-07
-8.86322e-06
-2.08812e-06
-2.26153e-07
2.27515e-07
-9.56501e-06
-2.42187e-06
-2.80924e-07
2.81161e-07
-1.02307e-05
-2.7901e-06
-3.44597e-07
3.42544e-07
-1.08116e-05
-3.18291e-06
-4.13593e-07
4.07234e-07
-1.12155e-05
-3.56415e-06
-4.76282e-07
4.62819e-07
-4.03536e-06
-5.48958e-07
5.96903e-07
-1.21988e-06
-8.84294e-08
-6.10518e-09
6.24143e-09
-2.34484e-06
-2.61052e-07
-1.81657e-08
1.85708e-08
-3.36424e-06
-4.26437e-07
-3.02355e-08
3.09052e-08
-4.30424e-06
-5.89397e-07
-4.30636e-08
4.40005e-08
-5.18651e-06
-7.56485e-07
-5.75068e-08
5.87182e-08
-6.02924e-06
-9.33246e-07
-7.44021e-08
7.58905e-08
-6.84778e-06
-1.12443e-06
-9.46095e-08
9.6361e-08
-7.65506e-06
-1.33413e-06
-1.19035e-07
1.21003e-07
-8.46169e-06
-1.56574e-06
-1.48618e-07
1.50689e-07
-9.27587e-06
-1.82185e-06
-1.84247e-07
1.86196e-07
-1.01028e-05
-2.104e-06
-2.26596e-07
2.28007e-07
-1.09432e-05
-2.41234e-06
-2.75864e-07
2.75978e-07
-1.17884e-05
-2.74522e-06
-3.31115e-07
3.28584e-07
-1.2607e-05
-3.09743e-06
-3.88688e-07
3.81154e-07
-1.32956e-05
-3.45048e-06
-4.37759e-07
4.22146e-07
-3.92641e-06
-5.0662e-07
5.49056e-07
-1.35654e-06
-6.49838e-09
6.64482e-09
-8.96036e-08
-2.6065e-06
-1.92937e-08
1.97288e-08
-2.64406e-07
-3.73733e-06
-3.19909e-08
3.2709e-08
-4.31498e-07
-4.77746e-06
-4.53233e-08
4.63259e-08
-5.9543e-07
-5.7504e-06
-6.0113e-08
6.1406e-08
-7.62426e-07
-6.6759e-06
-7.71244e-08
7.87084e-08
-9.37533e-07
-7.57078e-06
-9.70948e-08
9.89535e-08
-1.12478e-06
-8.44955e-06
-1.20741e-07
1.22824e-07
-1.32718e-06
-9.32479e-06
-1.48727e-07
1.50915e-07
-1.54665e-06
-1.02074e-05
-1.81563e-07
1.83627e-07
-1.78376e-06
-1.11067e-05
-2.19444e-07
2.20967e-07
-2.03735e-06
-1.20292e-05
-2.62005e-07
2.62255e-07
-2.30396e-06
-1.29748e-05
-3.07803e-07
3.05528e-07
-2.57714e-06
-1.39216e-05
-3.53e-07
3.46166e-07
-2.84545e-06
-1.47781e-05
-3.87788e-07
3.74116e-07
-3.08587e-06
-4.8928e-07
5.35807e-07
-3.50913e-06
-1.0676e-07
-1.91925e-08
-5.66471e-10
-2.0556e-07
-5.68376e-08
-1.70215e-09
-2.95625e-07
-9.34753e-08
-2.87892e-09
-3.79334e-07
-1.30573e-07
-4.18885e-09
-4.58613e-07
-1.70071e-07
-5.74888e-09
-5.34918e-07
-2.13872e-07
-7.69651e-09
-6.09167e-07
-2.63978e-07
-1.02073e-08
-6.81566e-07
-3.22597e-07
-1.35185e-08
-7.51322e-07
-3.92247e-07
-1.79637e-08
-8.16233e-07
-4.75811e-07
-2.40243e-08
-8.72252e-07
-5.76523e-07
-3.24054e-08
-9.13333e-07
-6.9779e-07
-4.41301e-08
-9.32385e-07
-8.42594e-07
-6.05685e-08
-9.25066e-07
-1.01121e-06
-8.29943e-08
-8.97454e-07
-1.19009e-06
-1.1001e-07
-1.47538e-06
-1.5898e-07
-3.18406e-07
-3.74703e-08
-1.68525e-09
-6.13007e-07
-1.10937e-07
-5.05954e-09
-8.81488e-07
-1.82341e-07
-8.5473e-09
-1.13096e-06
-2.54479e-07
-1.24196e-08
-1.36717e-06
-3.31046e-07
-1.70172e-08
-1.59453e-06
-4.15642e-07
-2.2735e-08
-1.81592e-06
-5.11996e-07
-3.00704e-08
-2.03222e-06
-6.24171e-07
-3.96837e-08
-2.24153e-06
-7.56718e-07
-5.24817e-08
-2.43797e-06
-9.14703e-07
-6.97335e-08
-2.61037e-06
-1.10351e-06
-9.32224e-08
-2.74153e-06
-1.32812e-06
-1.25388e-07
-2.81029e-06
-1.59116e-06
-1.69194e-07
-2.80119e-06
-1.88773e-06
-2.26716e-07
-2.72699e-06
-2.18856e-06
-2.93061e-07
-2.51115e-06
-3.86869e-07
-5.24736e-07
-5.40669e-08
-2.74643e-09
-1.01004e-06
-1.60011e-07
-8.23475e-09
-1.45207e-06
-2.62784e-07
-1.38841e-08
-1.86257e-06
-3.66275e-07
-2.01248e-08
-2.25108e-06
-4.75643e-07
-2.74892e-08
-2.62505e-06
-5.95827e-07
-3.65817e-08
-2.98964e-06
-7.3185e-07
-4.8144e-08
-3.34709e-06
-8.89071e-07
-6.31317e-08
-3.69563e-06
-1.07333e-06
-8.28057e-08
-4.02778e-06
-1.29093e-06
-1.08841e-07
-4.32809e-06
-1.54812e-06
-1.43422e-07
-4.57151e-06
-1.84986e-06
-1.89211e-07
-4.72492e-06
-2.19652e-06
-2.48774e-07
-4.75941e-06
-2.57694e-06
-3.22329e-07
-4.6834e-06
-2.95106e-06
-4.01096e-07
-3.33306e-06
-4.84777e-07
-7.2263e-07
-6.83151e-08
-3.70801e-09
-1.39059e-06
-2.02083e-07
-1.10999e-08
-1.99852e-06
-3.31545e-07
-1.86666e-08
-2.56258e-06
-4.61393e-07
-2.69657e-08
-3.09602e-06
-5.97871e-07
-3.66746e-08
-3.60941e-06
-7.4683e-07
-4.85404e-08
-4.11055e-06
-9.14074e-07
-6.34499e-08
-4.60392e-06
-1.10562e-06
-8.24996e-08
-5.08953e-06
-1.32781e-06
-1.07065e-07
-5.56104e-06
-1.58724e-06
-1.38851e-07
-6.00307e-06
-1.89015e-06
-1.79864e-07
-6.38833e-06
-2.24081e-06
-2.32132e-07
-6.67715e-06
-2.63784e-06
-2.96727e-07
-6.82758e-06
-3.06644e-06
-3.71223e-07
-6.82874e-06
-3.48195e-06
-4.44385e-07
-3.8883e-06
-5.12544e-07
-9.09147e-07
-7.96926e-08
-4.53823e-09
-1.74897e-06
-2.35615e-07
-1.356e-08
-2.51254e-06
-3.8613e-07
-2.27341e-08
-3.22015e-06
-5.36418e-07
-3.27069e-08
-3.88852e-06
-6.93395e-07
-4.42483e-08
-4.53131e-06
-8.63382e-07
-5.81789e-08
-5.15919e-06
-1.05244e-06
-7.54337e-08
-5.7796e-06
-1.26663e-06
-9.71153e-08
-6.39577e-06
-1.51207e-06
-1.24528e-07
-7.00522e-06
-1.79486e-06
-1.59161e-07
-7.59711e-06
-2.12056e-06
-2.02549e-07
-8.14868e-06
-2.49278e-06
-2.5585e-07
-8.62149e-06
-2.90984e-06
-3.18657e-07
-8.96302e-06
-3.35686e-06
-3.86563e-07
-9.12396e-06
-3.78869e-06
-4.47289e-07
-4.19809e-06
-4.99706e-07
-1.08167e-06
-8.78343e-08
-5.21781e-09
-2.08015e-06
-2.59548e-07
-1.55592e-08
-2.98684e-06
-4.24861e-07
-2.59965e-08
-3.82569e-06
-5.89142e-07
-3.7226e-08
-4.61654e-06
-7.59585e-07
-5.00603e-08
-5.37587e-06
-9.42565e-07
-6.53324e-08
-6.11719e-06
-1.14394e-06
-8.39478e-08
-6.85104e-06
-1.36924e-06
-1.06918e-07
-7.58464e-06
-1.62375e-06
-1.35366e-07
-8.32093e-06
-1.91242e-06
-1.70457e-07
-9.05672e-06
-2.23947e-06
-2.13211e-07
-9.77946e-06
-2.60768e-06
-2.64081e-07
-1.04612e-05
-3.01621e-06
-3.21811e-07
-1.10485e-05
-3.45447e-06
-3.81197e-07
-1.14449e-05
-3.88417e-06
-4.29623e-07
-4.29416e-06
-4.72176e-07
-1.238e-06
-9.25348e-08
-5.73991e-09
-2.37987e-06
-2.73298e-07
-1.70795e-08
-3.41523e-06
-4.46869e-07
-2.84317e-08
-4.37111e-06
-6.1854e-07
-4.05071e-08
-5.26992e-06
-7.95431e-07
-5.41187e-08
-6.13045e-06
-9.8363e-07
-7.0065e-08
-6.96855e-06
-1.18842e-06
-8.91684e-08
-7.79746e-06
-1.4144e-06
-1.12293e-07
-8.62795e-06
-1.66553e-06
-1.40326e-07
-9.46807e-06
-1.94497e-06
-1.74092e-07
-1.03224e-05
-2.2548e-06
-2.14157e-07
-1.11901e-05
-2.5958e-06
-2.60496e-07
-1.20599e-05
-2.96693e-06
-3.11641e-07
-1.28942e-05
-3.36356e-06
-3.62877e-07
-1.35754e-05
-3.76698e-06
-4.0282e-07
-4.20346e-06
-4.49688e-07
-1.37626e-06
-6.10861e-09
-9.3736e-08
-2.6446e-06
-1.81367e-08
-2.76725e-07
-3.79271e-06
-3.00762e-08
-4.52021e-07
-4.84994e-06
-4.26229e-08
-6.24635e-07
-5.84061e-06
-5.65577e-08
-8.01334e-07
-6.78512e-06
-7.26119e-08
-9.87665e-07
-7.70084e-06
-9.14943e-08
-1.18811e-06
-8.6027e-06
-1.13897e-07
-1.40614e-06
-9.50355e-06
-1.40461e-07
-1.64408e-06
-1.04143e-05
-1.71682e-07
-1.90286e-06
-1.1344e-05
-2.07729e-07
-2.18167e-06
-1.22979e-05
-2.48149e-07
-2.47728e-06
-1.32735e-05
-2.9122e-07
-2.78333e-06
-1.4243e-05
-3.32442e-07
-3.08798e-06
-1.50954e-05
-3.61561e-07
-3.36643e-06
-4.37843e-07
-3.75308e-06
-1.08241e-07
-1.99906e-08
-5.0914e-10
-2.0844e-07
-5.92266e-08
-1.52998e-09
-2.99842e-07
-9.74876e-08
-2.5879e-09
-3.8489e-07
-1.36349e-07
-3.7655e-09
-4.65556e-07
-1.77877e-07
-5.16715e-09
-5.43329e-07
-2.24101e-07
-6.91421e-09
-6.19134e-07
-2.77149e-07
-9.15859e-09
-6.9316e-07
-3.39355e-07
-1.20991e-08
-7.64572e-07
-4.13346e-07
-1.60015e-08
-8.31122e-07
-5.02052e-07
-2.12215e-08
-8.88788e-07
-6.08603e-07
-2.82217e-08
-9.31788e-07
-7.35955e-07
-3.75546e-08
-9.53821e-07
-8.85878e-07
-4.97227e-08
-9.51987e-07
-1.05607e-06
-6.46896e-08
-9.3305e-07
-1.2298e-06
-8.05103e-08
-1.51859e-06
-1.04267e-07
-3.2281e-07
-3.90247e-08
-1.51477e-09
-6.21568e-07
-1.15588e-07
-4.54797e-09
-8.94024e-07
-1.90146e-07
-7.68363e-09
-1.14747e-06
-2.65699e-07
-1.11652e-08
-1.3878e-06
-3.46186e-07
-1.52969e-08
-1.61954e-06
-4.35441e-07
-2.0428e-08
-1.84557e-06
-5.37432e-07
-2.69898e-08
-2.06674e-06
-6.56451e-07
-3.55369e-08
-2.28102e-06
-7.97236e-07
-4.67941e-08
-2.48238e-06
-9.64914e-07
-6.16998e-08
-2.65963e-06
-1.16463e-06
-8.14143e-08
-2.7961e-06
-1.40038e-06
-1.07206e-07
-2.87247e-06
-1.67235e-06
-1.3997e-07
-2.87684e-06
-1.97061e-06
-1.78858e-07
-2.824e-06
-2.25981e-06
-2.1816e-07
-2.55284e-06
-2.61973e-07
-5.31946e-07
-5.63009e-08
-2.46867e-09
-1.02405e-06
-1.66691e-07
-7.40229e-09
-1.47258e-06
-2.73981e-07
-1.24815e-08
-1.88958e-06
-3.82344e-07
-1.80931e-08
-2.28484e-06
-4.97277e-07
-2.47134e-08
-2.66597e-06
-6.24042e-07
-3.28779e-08
-3.03819e-06
-7.67982e-07
-4.32322e-08
-3.4037e-06
-9.34757e-07
-5.65827e-08
-3.76053e-06
-1.13044e-06
-7.39437e-08
-4.10086e-06
-1.36135e-06
-9.65548e-08
-4.40904e-06
-1.63335e-06
-1.25817e-07
-4.66026e-06
-1.94993e-06
-1.62993e-07
-4.8232e-06
-2.30792e-06
-2.08347e-07
-4.87285e-06
-2.6892e-06
-2.59237e-07
-4.82085e-06
-3.04547e-06
-3.06997e-07
-3.37799e-06
-3.45119e-07
-7.3246e-07
-7.11231e-08
-3.33299e-09
-1.40968e-06
-2.10474e-07
-9.97773e-09
-2.02644e-06
-3.45589e-07
-1.67809e-08
-2.59934e-06
-4.81508e-07
-2.42443e-08
-3.14195e-06
-6.24879e-07
-3.29749e-08
-3.66509e-06
-7.81938e-07
-4.3637e-08
-4.17669e-06
-9.5886e-07
-5.70062e-08
-4.68117e-06
-1.16199e-06
-7.40153e-08
-5.1783e-06
-1.39792e-06
-9.57794e-08
-5.66128e-06
-1.67324e-06
-1.23565e-07
-6.11412e-06
-1.99361e-06
-1.58631e-07
-6.50915e-06
-2.36158e-06
-2.01756e-07
-6.80734e-06
-2.77154e-06
-2.52112e-07
-6.96939e-06
-3.20058e-06
-3.0531e-07
-6.98853e-06
-3.59442e-06
-3.51283e-07
-3.94006e-06
-3.83581e-07
-9.2135e-07
-8.29487e-08
-4.07913e-09
-1.77266e-06
-2.45338e-07
-1.21887e-08
-2.54716e-06
-4.02378e-07
-2.04369e-08
-3.26568e-06
-5.59638e-07
-2.94061e-08
-3.94538e-06
-7.24479e-07
-3.97876e-08
-4.60024e-06
-9.03642e-07
-5.23137e-08
-5.24112e-06
-1.10358e-06
-6.78077e-08
-5.87543e-06
-1.33068e-06
-8.72158e-08
-6.50619e-06
-1.59129e-06
-1.11607e-07
-7.13035e-06
-1.89147e-06
-1.42098e-07
-7.73614e-06
-2.23615e-06
-1.79627e-07
-8.29956e-06
-2.62712e-06
-2.24411e-07
-8.7811e-06
-3.05833e-06
-2.7474e-07
-9.12832e-06
-3.50645e-06
-3.2519e-07
-9.29612e-06
-3.91581e-06
-3.65357e-07
-4.26055e-06
-3.93116e-07
-1.09596e-06
-9.14005e-08
-4.68968e-09
-2.10786e-06
-2.70189e-07
-1.39847e-08
-3.02729e-06
-4.42617e-07
-2.33683e-08
-3.87883e-06
-6.14456e-07
-3.3468e-08
-4.68285e-06
-7.93366e-07
-4.50152e-08
-5.45621e-06
-9.86151e-07
-5.87562e-08
-6.21267e-06
-1.19905e-06
-7.54943e-08
-6.96285e-06
-1.4379e-06
-9.61074e-08
-7.71377e-06
-1.70819e-06
-1.21527e-07
-8.46779e-06
-2.01478e-06
-1.52642e-07
-9.22061e-06
-2.36126e-06
-1.90052e-07
-9.95779e-06
-2.74869e-06
-2.33586e-07
-1.06485e-05
-3.17224e-06
-2.81201e-07
-1.12362e-05
-3.61327e-06
-3.2736e-07
-1.16268e-05
-4.02257e-06
-3.61759e-07
-4.37004e-06
-3.89058e-07
-1.25404e-06
-9.62684e-08
-5.15851e-09
-2.41096e-06
-2.84431e-07
-1.53499e-08
-3.46057e-06
-4.65417e-07
-2.5555e-08
-4.43059e-06
-6.44922e-07
-3.64153e-08
-5.34401e-06
-8.30532e-07
-4.8664e-08
-6.2201e-06
-1.02875e-06
-6.3019e-08
-7.07502e-06
-1.2452e-06
-8.02158e-08
-7.92214e-06
-1.48477e-06
-1.01012e-07
-8.77211e-06
-1.75155e-06
-1.26159e-07
-9.63246e-06
-2.04857e-06
-1.5629e-07
-1.05066e-05
-2.37733e-06
-1.91712e-07
-1.13915e-05
-2.73706e-06
-2.32026e-07
-1.22719e-05
-3.12334e-06
-2.75304e-07
-1.31041e-05
-3.52464e-06
-3.16819e-07
-1.37694e-05
-3.91184e-06
-3.47474e-07
-4.29208e-06
-3.83956e-07
-1.39374e-06
-5.48931e-09
-9.74958e-08
-2.67841e-06
-1.62983e-08
-2.87928e-07
-3.84194e-06
-2.703e-08
-4.70661e-07
-4.91441e-06
-3.83134e-08
-6.51093e-07
-5.92075e-06
-5.08538e-08
-8.36438e-07
-6.88189e-06
-6.53112e-08
-1.03262e-06
-7.81555e-06
-8.23242e-08
-1.24445e-06
-8.73685e-06
-1.02507e-07
-1.47559e-06
-9.65856e-06
-1.2641e-07
-1.72846e-06
-1.05912e-05
-1.54418e-07
-2.00383e-06
-1.15426e-05
-1.86555e-07
-2.30028e-06
-1.2516e-05
-2.22172e-07
-2.61319e-06
-1.35044e-05
-2.59315e-07
-2.93338e-06
-1.44731e-05
-2.93632e-07
-3.24355e-06
-1.53064e-05
-3.16792e-07
-3.51012e-06
-3.79532e-07
-3.84797e-06
-1.09513e-07
-2.06867e-08
-4.32499e-10
-2.10916e-07
-6.13076e-08
-1.29968e-09
-3.0347e-07
-1.00974e-07
-2.1982e-09
-3.89668e-07
-1.41346e-07
-3.19777e-09
-4.7152e-07
-1.84586e-07
-4.3858e-09
-5.5054e-07
-2.3281e-07
-5.86226e-09
-6.27662e-07
-2.88217e-07
-7.74894e-09
-7.03065e-07
-3.53185e-07
-1.01986e-08
-7.75896e-07
-4.3033e-07
-1.34022e-08
-8.43901e-07
-5.22463e-07
-1.75897e-08
-9.03124e-07
-6.32408e-07
-2.30111e-08
-9.48022e-07
-7.62521e-07
-2.98731e-08
-9.72784e-07
-9.13634e-07
-3.81839e-08
-9.75041e-07
-1.08255e-06
-4.74529e-08
-9.6099e-07
-1.25317e-06
-5.61877e-08
-1.55052e-06
-6.80134e-08
-3.26592e-07
-4.03802e-08
-1.28682e-09
-6.28926e-07
-1.19639e-07
-3.86357e-09
-9.04802e-07
-1.96927e-07
-6.52697e-09
-1.16166e-06
-2.75407e-07
-9.48261e-09
-1.40552e-06
-3.59202e-07
-1.29856e-08
-1.64096e-06
-4.52308e-07
-1.73243e-08
-1.87092e-06
-5.58825e-07
-2.28451e-08
-2.0962e-06
-6.83123e-07
-2.99755e-08
-2.31471e-06
-8.2991e-07
-3.92378e-08
-2.52038e-06
-1.00407e-06
-5.12382e-08
-2.70213e-06
-1.21012e-06
-6.65897e-08
-2.84386e-06
-1.45085e-06
-8.57032e-08
-2.92742e-06
-1.72444e-06
-1.08317e-07
-2.94221e-06
-2.01879e-06
-1.32682e-07
-2.90168e-06
-2.29887e-06
-1.54514e-07
-2.58336e-06
-1.74952e-07
-5.38135e-07
-5.82491e-08
-2.09725e-09
-1.03609e-06
-1.7251e-07
-6.28862e-09
-1.49021e-06
-2.83711e-07
-1.06032e-08
-1.91278e-06
-3.96253e-07
-1.53681e-08
-2.3138e-06
-5.15887e-07
-2.09835e-08
-2.701e-06
-6.481e-07
-2.78923e-08
-3.07965e-06
-7.98411e-07
-3.66158e-08
-3.4519e-06
-9.72575e-07
-4.7779e-08
-3.81568e-06
-1.1766e-06
-6.21174e-08
-4.16302e-06
-1.41644e-06
-8.043e-08
-4.47825e-06
-1.69704e-06
-1.03425e-07
-4.73703e-06
-2.02009e-06
-1.3135e-07
-4.90928e-06
-2.37945e-06
-1.63249e-07
-4.97154e-06
-2.75357e-06
-1.95868e-07
-4.93414e-06
-3.09385e-06
-2.22899e-07
-3.40503e-06
-2.39494e-07
-7.40894e-07
-7.35722e-08
-2.83162e-09
-1.42608e-06
-2.17784e-07
-8.47683e-09
-2.05044e-06
-3.57797e-07
-1.42563e-08
-2.63091e-06
-4.98927e-07
-2.05951e-08
-3.18134e-06
-6.4813e-07
-2.80039e-08
-3.71273e-06
-8.11908e-07
-3.70346e-08
-4.23309e-06
-9.96639e-07
-4.83173e-08
-4.74679e-06
-1.20877e-06
-6.25806e-08
-5.25343e-06
-1.45478e-06
-8.06399e-08
-5.7459e-06
-1.74079e-06
-1.03311e-07
-6.20793e-06
-2.07134e-06
-1.31189e-07
-6.61183e-06
-2.44675e-06
-1.64158e-07
-6.91926e-06
-2.85776e-06
-2.0049e-07
-7.09222e-06
-3.27717e-06
-2.35776e-07
-7.12371e-06
-3.65001e-06
-2.62813e-07
-3.96575e-06
-2.77429e-07
-9.31819e-07
-8.57892e-08
-3.46555e-09
-1.79299e-06
-2.53812e-07
-1.03553e-08
-2.57689e-06
-4.1651e-07
-1.73629e-08
-3.30477e-06
-5.79758e-07
-2.4982e-08
-3.99413e-06
-7.51265e-07
-3.37961e-08
-4.65917e-06
-9.38056e-07
-4.44164e-08
-5.31089e-06
-1.1468e-06
-5.75159e-08
-5.95666e-06
-1.38397e-06
-7.38417e-08
-6.59926e-06
-1.65578e-06
-9.41843e-08
-7.23518e-06
-1.96775e-06
-1.19267e-07
-7.85203e-06
-2.32357e-06
-1.49488e-07
-8.42514e-06
-2.72263e-06
-1.8441e-07
-8.91464e-06
-3.15496e-06
-2.21828e-07
-9.26871e-06
-3.59246e-06
-2.56812e-07
-9.44358e-06
-3.97847e-06
-2.81952e-07
-4.2894e-06
-2.96721e-07
-1.10821e-06
-9.45125e-08
-3.98423e-09
-2.13164e-06
-2.79466e-07
-1.18811e-08
-3.06202e-06
-4.58066e-07
-1.98535e-08
-3.92444e-06
-6.36406e-07
-2.84346e-08
-4.73967e-06
-8.22507e-07
-3.82431e-08
-5.52486e-06
-1.02346e-06
-4.99046e-08
-6.29392e-06
-1.24572e-06
-6.4081e-08
-7.05746e-06
-1.49521e-06
-8.14735e-08
-7.82223e-06
-1.77723e-06
-1.02781e-07
-8.59004e-06
-2.09608e-06
-1.28583e-07
-9.35565e-06
-2.45412e-06
-1.59092e-07
-1.01033e-05
-2.85006e-06
-1.93715e-07
-1.08007e-05
-3.27524e-06
-2.30217e-07
-1.13905e-05
-3.70622e-06
-2.63848e-07
-1.17816e-05
-4.09242e-06
-2.87262e-07
-4.40611e-06
-3.055e-07
-1.26781e-06
-9.95278e-08
-4.38239e-09
-2.43764e-06
-2.94141e-07
-1.30405e-08
-3.49949e-06
-4.81565e-07
-2.1711e-08
-4.48164e-06
-6.67818e-07
-3.09397e-08
-5.40752e-06
-8.60844e-07
-4.1348e-08
-6.29672e-06
-1.06743e-06
-5.35407e-08
-7.16561e-06
-1.2934e-06
-6.81288e-08
-8.02756e-06
-1.54369e-06
-8.57252e-08
-8.89298e-06
-1.82222e-06
-1.069e-07
-9.76877e-06
-2.13145e-06
-1.32069e-07
-1.06572e-05
-2.47171e-06
-1.61283e-07
-1.15535e-05
-2.84008e-06
-1.939e-07
-1.24399e-05
-3.2287e-06
-2.27959e-07
-1.32708e-05
-3.62164e-06
-2.59522e-07
-1.39304e-05
-3.98797e-06
-2.82143e-07
-4.33677e-06
-3.10751e-07
-1.40873e-06
-4.66317e-09
-1.00779e-07
-2.70745e-06
-1.38455e-08
-2.97705e-07
-3.88422e-06
-2.29633e-08
-4.869e-07
-4.96977e-06
-3.25522e-08
-6.74074e-07
-5.98948e-06
-4.32115e-08
-8.66787e-07
-6.96464e-06
-5.54993e-08
-1.07123e-06
-7.91321e-06
-6.99508e-08
-1.29239e-06
-8.85032e-06
-8.70675e-08
-1.53395e-06
-9.78854e-06
-1.07273e-07
-1.79816e-06
-1.07378e-05
-1.3081e-07
-2.08525e-06
-1.17046e-05
-1.57559e-07
-2.39274e-06
-1.26903e-05
-1.8676e-07
-2.71411e-06
-1.36852e-05
-2.16536e-07
-3.03728e-06
-1.46515e-05
-2.43279e-07
-3.34124e-06
-1.54752e-05
-2.60916e-07
-3.5902e-06
-3.11345e-07
-3.8993e-06
-1.10557e-07
-2.12626e-08
-3.39496e-10
-2.12947e-07
-6.30273e-08
-1.02015e-09
-3.06446e-07
-1.03847e-07
-1.72517e-09
-3.93583e-07
-1.45447e-07
-2.50876e-09
-4.76402e-07
-1.90055e-07
-3.43834e-09
-5.56432e-07
-2.39843e-07
-4.58968e-09
-6.34615e-07
-2.97036e-07
-6.05236e-09
-7.11125e-07
-3.64008e-07
-7.93363e-09
-7.851e-07
-4.433e-07
-1.03578e-08
-8.54289e-07
-5.37553e-07
-1.34561e-08
-9.14786e-07
-6.49283e-07
-1.73365e-08
-9.61178e-07
-7.80407e-07
-2.20209e-08
-9.87841e-07
-9.31354e-07
-2.73371e-08
-9.92435e-07
-1.09903e-06
-3.27911e-08
-9.80547e-07
-1.26854e-06
-3.74672e-08
-1.57305e-06
-4.35603e-08
-3.29692e-07
-4.15015e-08
-1.01015e-09
-6.34959e-07
-1.22986e-07
-3.03277e-09
-9.13638e-07
-2.02516e-07
-5.12273e-09
-1.17329e-06
-2.83374e-07
-7.44009e-09
-1.42002e-06
-3.69815e-07
-1.01819e-08
-1.65846e-06
-4.65933e-07
-1.35669e-08
-1.89157e-06
-5.75884e-07
-1.78507e-08
-2.12014e-06
-7.0402e-07
-2.33343e-08
-2.34204e-06
-8.54904e-07
-3.03586e-08
-2.5512e-06
-1.03308e-06
-3.9268e-08
-2.73663e-06
-1.24244e-06
-5.03127e-08
-2.88252e-06
-1.48488e-06
-6.34563e-08
-2.97117e-06
-1.75762e-06
-7.80604e-08
-2.99205e-06
-2.04832e-06
-9.25351e-08
-2.95703e-06
-2.32368e-06
-1.04237e-07
-2.60757e-06
-1.13943e-07
-5.43206e-07
-5.98607e-08
-1.64642e-09
-1.04595e-06
-1.77319e-07
-4.9366e-09
-1.50465e-06
-2.91732e-07
-8.32258e-09
-1.93178e-06
-4.07671e-07
-1.20594e-08
-2.33748e-06
-5.3107e-07
-1.64564e-08
-2.72958e-06
-6.67551e-07
-2.1851e-08
-3.11338e-06
-8.22707e-07
-2.86293e-08
-3.49101e-06
-1.00226e-06
-3.72338e-08
-3.86032e-06
-1.21199e-06
-4.81474e-08
-4.21325e-06
-1.45738e-06
-6.1821e-08
-4.53414e-06
-1.74245e-06
-7.8508e-08
-4.79893e-06
-2.06754e-06
-9.79551e-08
-4.97799e-06
-2.42492e-06
-1.18916e-07
-5.04792e-06
-2.79231e-06
-1.38698e-07
-5.01729e-06
-3.12309e-06
-1.53388e-07
-3.42702e-06
-1.60436e-07
-7.47803e-07
-7.55987e-08
-2.22302e-09
-1.43951e-06
-2.23827e-07
-6.65467e-09
-2.07009e-06
-3.67865e-07
-1.11908e-08
-2.65674e-06
-5.13235e-07
-1.6163e-08
-3.21353e-06
-6.67114e-07
-2.19676e-08
-3.75158e-06
-8.36167e-07
-2.90261e-08
-4.27893e-06
-1.02685e-06
-3.78079e-08
-4.79993e-06
-1.24556e-06
-4.88333e-08
-5.31405e-06
-1.49851e-06
-6.26421e-08
-5.81394e-06
-1.79119e-06
-7.96913e-08
-6.28317e-06
-2.12702e-06
-1.00145e-07
-6.69405e-06
-2.50458e-06
-1.23487e-07
-7.00848e-06
-2.91259e-06
-1.47943e-07
-7.18861e-06
-3.32269e-06
-1.70058e-07
-7.22634e-06
-3.68211e-06
-1.85313e-07
-3.98529e-06
-1.91787e-07
-9.40393e-07
-8.81402e-08
-2.72079e-09
-1.80965e-06
-2.60818e-07
-8.12969e-09
-2.60124e-06
-4.28168e-07
-1.36302e-08
-3.33676e-06
-5.96296e-07
-1.96085e-08
-4.03395e-06
-7.73156e-07
-2.65179e-08
-4.7072e-06
-9.65953e-07
-3.48278e-08
-5.36755e-06
-1.18143e-06
-4.50428e-08
-6.02233e-06
-1.426e-06
-5.77017e-08
-6.67411e-06
-1.70556e-06
-7.33336e-08
-7.31905e-06
-2.02493e-06
-9.23431e-08
-7.9443e-06
-2.38656e-06
-1.14785e-07
-8.52476e-06
-2.78791e-06
-1.39973e-07
-9.02045e-06
-3.21671e-06
-1.65881e-07
-9.37972e-06
-3.64348e-06
-1.88772e-07
-9.55896e-06
-4.01379e-06
-2.03902e-07
-4.30918e-06
-2.11905e-07
-1.11825e-06
-9.70892e-08
-3.12805e-09
-2.15112e-06
-2.87141e-07
-9.32776e-09
-3.09047e-06
-4.7082e-07
-1.55862e-08
-3.96177e-06
-6.54462e-07
-2.2321e-08
-4.78609e-06
-8.46349e-07
-3.00142e-08
-5.58079e-06
-1.05376e-06
-3.91483e-08
-6.35987e-06
-1.28321e-06
-5.02234e-08
-7.13385e-06
-1.54055e-06
-6.37509e-08
-7.90926e-06
-1.83075e-06
-8.0205e-08
-8.68742e-06
-2.15739e-06
-9.99101e-08
-9.46239e-06
-2.52154e-06
-1.22835e-07
-1.02175e-05
-2.92001e-06
-1.48262e-07
-1.09199e-05
-3.34176e-06
-1.74258e-07
-1.15124e-05
-3.76185e-06
-1.97302e-07
-1.19053e-05
-4.13185e-06
-2.12582e-07
-4.4293e-06
-2.24764e-07
-1.27908e-06
-1.02228e-07
-3.44066e-09
-2.45951e-06
-3.02177e-07
-1.02381e-08
-3.53138e-06
-4.94903e-07
-1.7045e-08
-4.52343e-06
-6.86666e-07
-2.42897e-08
-5.45941e-06
-8.85673e-07
-3.24574e-08
-6.35916e-06
-1.09888e-06
-4.20164e-08
-7.23913e-06
-1.3322e-06
-5.34323e-08
-8.11266e-06
-1.59048e-06
-6.71568e-08
-8.98985e-06
-1.87728e-06
-8.35818e-08
-9.87705e-06
-2.19437e-06
-1.02937e-07
-1.07757e-05
-2.54088e-06
-1.25118e-07
-1.16797e-05
-2.91204e-06
-1.49444e-07
-1.25702e-05
-3.29784e-06
-1.74273e-07
-1.34014e-05
-3.6808e-06
-1.96719e-07
-1.406e-05
-4.03178e-06
-2.12528e-07
-4.36496e-06
-2.33827e-07
-1.42101e-06
-3.66106e-09
-1.035e-07
-2.73124e-06
-1.087e-08
-3.058e-07
-3.91888e-06
-1.80284e-08
-5.00321e-07
-5.0151e-06
-2.5557e-08
-6.93009e-07
-6.04567e-06
-3.39249e-08
-8.91675e-07
-7.03211e-06
-4.3566e-08
-1.10269e-06
-7.99252e-06
-5.48912e-08
-1.33108e-06
-8.94196e-06
-6.82739e-08
-1.58047e-06
-9.89272e-06
-8.40072e-08
-1.85275e-06
-1.08541e-05
-1.02213e-07
-2.14754e-06
-1.18317e-05
-1.22694e-07
-2.46122e-06
-1.28255e-05
-1.44731e-07
-2.78567e-06
-1.38242e-05
-1.6678e-07
-3.10689e-06
-1.47896e-05
-1.86169e-07
-3.40244e-06
-1.56099e-05
-1.98754e-07
-3.63755e-06
-2.36723e-07
-3.93193e-06
-1.11355e-07
-2.17048e-08
-2.3369e-10
-2.145e-07
-6.43466e-08
-7.02164e-10
-3.08719e-07
-1.06046e-07
-1.1872e-09
-3.96573e-07
-1.48572e-07
-1.72581e-09
-4.80124e-07
-1.942e-07
-2.36365e-09
-5.60917e-07
-2.45126e-07
-3.1512e-09
-6.39897e-07
-3.03584e-07
-4.14662e-09
-7.17235e-07
-3.71915e-07
-5.41654e-09
-7.92062e-07
-4.52577e-07
-7.03286e-09
-8.62129e-07
-5.48058e-07
-9.06096e-09
-9.23549e-07
-6.60648e-07
-1.15345e-08
-9.70955e-07
-7.92031e-07
-1.44112e-08
-9.9875e-07
-9.42572e-07
-1.75159e-08
-1.00449e-06
-1.10956e-06
-2.05053e-08
-9.93398e-07
-1.27902e-06
-2.28949e-08
-1.58868e-06
-2.60275e-08
-3.32061e-07
-4.23626e-08
-6.95355e-10
-6.39569e-07
-1.25554e-07
-2.08751e-09
-9.20387e-07
-2.06793e-07
-3.52548e-09
-1.18216e-06
-2.89448e-07
-5.11856e-09
-1.43107e-06
-3.77858e-07
-7.00029e-09
-1.67177e-06
-4.76174e-07
-9.31679e-09
-1.90725e-06
-5.88558e-07
-1.22342e-08
-2.13827e-06
-7.19303e-07
-1.59401e-08
-2.3627e-06
-8.72807e-07
-2.06322e-08
-2.57443e-06
-1.05331e-06
-2.64806e-08
-2.76253e-06
-1.26425e-06
-3.355e-08
-2.91127e-06
-1.50703e-06
-4.16696e-08
-3.00302e-06
-1.77859e-06
-5.02635e-08
-3.02692e-06
-2.06707e-06
-5.82542e-08
-2.99395e-06
-2.34064e-06
-6.42215e-08
-2.62632e-06
-6.88301e-08
-5.47079e-07
-6.10986e-08
-1.13339e-09
-1.05349e-06
-1.81009e-07
-3.3981e-09
-1.51567e-06
-2.97872e-07
-5.728e-09
-1.94627e-06
-4.16379e-07
-8.29738e-09
-2.35552e-06
-5.42583e-07
-1.13163e-08
-2.75131e-06
-6.82181e-07
-1.50107e-08
-3.13897e-06
-8.40776e-07
-1.96323e-08
-3.5206e-06
-1.024e-06
-2.54585e-08
-3.89399e-06
-1.2374e-06
-3.27702e-08
-4.25102e-06
-1.486e-06
-4.17877e-08
-4.57603e-06
-1.77317e-06
-5.2544e-08
-4.84497e-06
-2.09845e-06
-6.46809e-08
-5.02829e-06
-2.45357e-06
-7.71907e-08
-5.1022e-06
-2.81663e-06
-8.82932e-08
-5.07416e-06
-3.14287e-06
-9.58509e-08
-3.44548e-06
-9.87625e-08
-7.5308e-07
-7.71554e-08
-1.53037e-09
-1.44976e-06
-2.28465e-07
-4.58095e-09
-2.08509e-06
-3.75574e-07
-7.70259e-09
-2.67645e-06
-5.24152e-07
-1.11223e-08
-3.23804e-06
-6.8152e-07
-1.51096e-08
-3.78109e-06
-8.54434e-07
-1.99476e-08
-4.31367e-06
-1.04936e-06
-2.5944e-08
-4.84008e-06
-1.27257e-06
-3.34269e-08
-5.35968e-06
-1.52998e-06
-4.27132e-08
-5.86498e-06
-1.82654e-06
-5.40226e-08
-6.33939e-06
-2.16481e-06
-6.73246e-08
-6.75515e-06
-2.54236e-06
-8.20882e-08
-7.07415e-06
-2.94708e-06
-9.69738e-08
-7.25828e-06
-3.3509e-06
-1.09732e-07
-7.29865e-06
-3.70328e-06
-1.17841e-07
-4.00227e-06
-1.20627e-07
-9.4694e-07
-8.99469e-08
-1.87311e-09
-1.82237e-06
-2.66197e-07
-5.59657e-09
-2.61982e-06
-4.371e-07
-9.38231e-09
-3.36115e-06
-6.08922e-07
-1.3495e-08
-4.06427e-06
-7.89784e-07
-1.82438e-08
-4.74368e-06
-9.86985e-07
-2.39447e-08
-5.41047e-06
-1.20728e-06
-3.09307e-08
-6.07189e-06
-1.45693e-06
-3.95445e-08
-6.73036e-06
-1.7415e-06
-5.01e-08
-7.38177e-06
-2.0652e-06
-6.27898e-08
-8.01298e-06
-2.42952e-06
-7.75271e-08
-8.5986e-06
-2.83074e-06
-9.36969e-08
-9.09853e-06
-3.25561e-06
-1.09831e-07
-9.46113e-06
-3.67483e-06
-1.23519e-07
-9.64263e-06
-4.03645e-06
-1.3203e-07
-4.32574e-06
-1.3627e-07
-1.12591e-06
-9.907e-08
-2.15355e-09
-2.16599e-06
-2.93035e-07
-6.42158e-09
-3.11218e-06
-4.80596e-07
-1.07294e-08
-3.99024e-06
-6.68258e-07
-1.53637e-08
-4.82144e-06
-8.64477e-07
-2.06539e-08
-5.62328e-06
-1.07663e-06
-2.6926e-08
-6.4098e-06
-1.31124e-06
-3.45119e-08
-7.19146e-06
-1.574e-06
-4.37405e-08
-7.97456e-06
-1.86955e-06
-5.48961e-08