/*--------------------------------*- C++ -*----------------------------------*\
| =========                 |                                                 |
| \\      /  F ield         | foam-extend: Open Source CFD                    |
|  \\    /   O peration     | Version:     3.1                                |
|   \\  /    A nd           | Web:         http://www.extend-project.de       |
|    \\/     M anipulation  |                                                 |
\*---------------------------------------------------------------------------*/
FoamFile
{
    version     2.0;
    format      ascii;
    class       volScalarField;
    location    "1.5";
    object      p;
}
// * * * * * * * * * * * * * * * * * * * * * * * * * * * * * * * * * * * * * //

dimensions      [0 2 -2 0 0 0 0];

internalField   nonuniform List<scalar> 
14592
(
0.0305569
0.0304455
0.0304829
0.0306003
0.0307121
0.030765
0.0307395
0.0306407
0.0304843
0.030288
0.0300533
0.0297674
0.0293891
0.0288362
0.027938
0.026617
0.030508
0.0303311
0.0303394
0.0304636
0.0306014
0.0306864
0.0306914
0.030619
0.0304862
0.0303113
0.0301013
0.0298482
0.0295191
0.029024
0.0281194
0.0262963
0.0303971
0.0301687
0.0301426
0.0302777
0.0304499
0.0305732
0.0306113
0.0305646
0.0304533
0.0303005
0.0301221
0.0299177
0.0296602
0.0292561
0.0283696
0.0260412
0.0302932
0.0300332
0.0299691
0.0300996
0.0302918
0.0304412
0.0305018
0.0304711
0.0303726
0.0302309
0.0300721
0.0299036
0.0297068
0.0293886
0.0285825
0.0259482
0.0302143
0.0299366
0.0298379
0.0299483
0.0301411
0.0302998
0.0303686
0.0303392
0.0302406
0.0300945
0.0299345
0.0297757
0.0296133
0.0293674
0.0287041
0.0259588
0.0301441
0.0298594
0.0297366
0.0298218
0.0300016
0.0301548
0.0302182
0.030183
0.0300585
0.0298869
0.0296986
0.029513
0.0293451
0.029137
0.0286621
0.0259811
0.0300662
0.0297779
0.0296406
0.0297031
0.0298629
0.0300008
0.0300483
0.0299837
0.0298264
0.0296085
0.0293594
0.0290973
0.0288569
0.0285935
0.0283064
0.0257119
0.029975
0.029696
0.0295414
0.0295849
0.0297274
0.0298405
0.029857
0.0297585
0.0295558
0.0292722
0.028931
0.0285315
0.0281097
0.0275261
0.0272773
0.0235429
0.0307525
0.0306318
0.0306722
0.0308071
0.0309467
0.0310346
0.0310517
0.0310066
0.0309198
0.0308189
0.0307136
0.0306061
0.0304798
0.0302891
0.0299755
0.0297776
0.0307071
0.0305163
0.0305219
0.0306609
0.0308268
0.0309494
0.0310007
0.0309859
0.0309272
0.030852
0.030776
0.030706
0.0306301
0.0304851
0.030165
0.0299501
0.0306038
0.0303606
0.0303273
0.0304736
0.0306731
0.030835
0.0309215
0.0309351
0.0309017
0.0308522
0.0308144
0.0308031
0.0308142
0.0307804
0.0305128
0.0302586
0.0305106
0.0302385
0.0301661
0.0303041
0.0305205
0.0307065
0.0308146
0.0308444
0.0308241
0.030787
0.0307731
0.0308072
0.0308959
0.030978
0.0308026
0.0305609
0.0304428
0.0301575
0.0300523
0.0301669
0.0303791
0.0305698
0.0306823
0.030711
0.0306866
0.0306431
0.0306276
0.030675
0.0308071
0.030983
0.0309191
0.0307075
0.0303803
0.030093
0.0299666
0.0300537
0.0302473
0.0304262
0.0305268
0.0305405
0.0304867
0.0304118
0.030361
0.0303754
0.0304954
0.0307102
0.0307445
0.0305651
0.0303046
0.0300171
0.0298784
0.0299409
0.0301092
0.0302651
0.0303428
0.0303207
0.0302234
0.0300905
0.0299639
0.029882
0.0299002
0.0300276
0.0300659
0.0295773
0.0302084
0.0299316
0.0297765
0.0298175
0.0299637
0.0300896
0.0301271
0.030062
0.0299078
0.0296935
0.0294512
0.0291952
0.0289717
0.0286894
0.0285138
0.0254464
0.0309546
0.0308267
0.0308722
0.0310255
0.0311931
0.0313155
0.0313735
0.0313782
0.0313538
0.0313368
0.0313393
0.0313703
0.0314226
0.0314636
0.0314717
0.0315831
0.0309123
0.0307111
0.0307166
0.0308717
0.031066
0.0312255
0.0313211
0.0313599
0.0313678
0.0313801
0.0314149
0.0314846
0.0315819
0.0316554
0.0316586
0.0317856
0.0308172
0.030563
0.0305264
0.030686
0.0309134
0.0311132
0.031246
0.031316
0.0313534
0.031393
0.0314694
0.0316013
0.0317867
0.0319635
0.0320299
0.0321756
0.030735
0.0304545
0.0303788
0.0305277
0.0307695
0.0309918
0.0311453
0.0312312
0.0312817
0.0313339
0.0314359
0.0316159
0.0318816
0.0321709
0.032327
0.0325366
0.0306781
0.0303886
0.0302825
0.0304062
0.0306401
0.030863
0.0310171
0.0310988
0.0311412
0.0311845
0.0312828
0.0314747
0.0317817
0.0321546
0.0323887
0.0326331
0.0306231
0.0303358
0.0302119
0.030307
0.0305178
0.0307232
0.0308593
0.0309184
0.0309263
0.0309319
0.0309877
0.0311382
0.031421
0.0318066
0.0320583
0.0322703
0.0305496
0.0302648
0.0301308
0.0302001
0.0303812
0.0305565
0.0306629
0.0306792
0.0306337
0.0305709
0.0305376
0.0305749
0.0307303
0.0309814
0.0310852
0.0307639
0.0304487
0.0301757
0.0300259
0.0300719
0.0302267
0.0303665
0.0304234
0.0303875
0.0302745
0.0301165
0.0299486
0.0297852
0.0296585
0.0294388
0.0291445
0.0256381
0.0311487
0.0310159
0.0310674
0.0312389
0.0314331
0.0315876
0.0316826
0.0317312
0.0317602
0.0318104
0.0318953
0.0320253
0.0321936
0.0323712
0.0325443
0.0327481
0.0311101
0.0309008
0.0309081
0.0310792
0.0313005
0.0314942
0.0316299
0.0317156
0.0317788
0.031863
0.0319824
0.0321506
0.0323587
0.0325594
0.0327176
0.0329121
0.0310226
0.0307603
0.030723
0.0308968
0.0311508
0.0313859
0.0315607
0.0316802
0.0317772
0.0318883
0.0320504
0.0322801
0.0325705
0.0328584
0.0330672
0.0332779
0.0309506
0.0306644
0.0305887
0.0307502
0.0310172
0.0312736
0.0314682
0.0316031
0.0317136
0.0318358
0.0320227
0.0322988
0.0326643
0.0330505
0.0333297
0.0335903
0.0309036
0.0306122
0.0305086
0.0306442
0.0309005
0.0311541
0.031346
0.0314732
0.0315715
0.0316822
0.0318618
0.0321453
0.0325446
0.0329964
0.033321
0.0336033
0.0308556
0.0305697
0.0304514
0.0305581
0.030788
0.0310193
0.0311879
0.0312867
0.0313444
0.0314114
0.0315412
0.0317744
0.0321362
0.032573
0.0328564
0.0330549
0.0307841
0.0305027
0.0303762
0.0304568
0.0306532
0.0308478
0.030981
0.0310301
0.0310258
0.0310153
0.0310453
0.0311514
0.0313655
0.0316295
0.0316674
0.0312061
0.0306786
0.03041
0.0302684
0.0303242
0.030491
0.0306459
0.0307198
0.030708
0.0306272
0.0305102
0.0303913
0.0302782
0.0301848
0.0299385
0.0294735
0.0254968
0.031322
0.0311858
0.0312434
0.0314312
0.0316491
0.0318315
0.031958
0.0320429
0.0321148
0.032215
0.0323587
0.0325542
0.0327927
0.0330454
0.0332945
0.033519
0.0312869
0.0310716
0.0310813
0.0312671
0.0315122
0.0317357
0.0319054
0.0320298
0.0321372
0.0322754
0.0324549
0.0326879
0.0329614
0.0332277
0.0334512
0.0336512
0.031206
0.0309378
0.0309013
0.0310884
0.0313662
0.0316321
0.0318424
0.0320023
0.0321443
0.0323112
0.0325334
0.0328253
0.0331736
0.0335126
0.0337697
0.0339728
0.0311428
0.0308529
0.0307788
0.0309528
0.0312426
0.0315289
0.0317586
0.0319338
0.0320918
0.0322649
0.0325096
0.0328441
0.0332598
0.0336822
0.0339899
0.0342259
0.0311043
0.0308121
0.0307126
0.0308605
0.0311378
0.0314187
0.0316429
0.0318072
0.0319489
0.0321082
0.0323416
0.0326779
0.0331187
0.0335895
0.0339173
0.0341578
0.0310623
0.0307782
0.0306666
0.0307859
0.0310344
0.0312888
0.0314854
0.0316163
0.031712
0.0318223
0.0319996
0.0322778
0.0326692
0.0331024
0.0333483
0.033471
0.0309923
0.0307142
0.0305961
0.0306892
0.0309012
0.0311128
0.03127
0.0313455
0.0313718
0.0313973
0.0314662
0.0316069
0.0318361
0.0320687
0.0320074
0.0313939
0.0308829
0.0306184
0.0304856
0.0305529
0.0307329
0.0309033
0.0309905
0.0309975
0.0309399
0.0308502
0.0307601
0.0306693
0.0305752
0.0302721
0.0296462
0.0252969
0.0314631
0.0313249
0.0313878
0.0315891
0.0318261
0.0320309
0.0321821
0.0322946
0.0323988
0.0325332
0.0327158
0.0329519
0.0332297
0.0335195
0.033799
0.0340246
0.0314309
0.0312115
0.0312238
0.0314217
0.0316862
0.0319334
0.0321297
0.0322835
0.0324229
0.0325996
0.0328189
0.0330916
0.033401
0.0336981
0.0339419
0.0341367
0.0313554
0.0310832
0.0310482
0.0312465
0.0315438
0.0318343
0.0320724
0.0322626
0.032436
0.0326435
0.0329051
0.0332338
0.0336113
0.0339698
0.0342354
0.034417
0.0312991
0.0310069
0.0309351
0.0311201
0.0314288
0.0317391
0.0319963
0.0322021
0.0323957
0.0326026
0.0328839
0.0332512
0.0336888
0.0341186
0.034421
0.034619
0.0312673
0.0309751
0.0308798
0.031039
0.031334
0.031637
0.0318865
0.0320789
0.0322519
0.0324435
0.0327099
0.033074
0.0335288
0.0339939
0.0342998
0.0344854
0.0312298
0.0309477
0.0308424
0.0309735
0.031238
0.0315114
0.0317301
0.0318849
0.0320075
0.0321462
0.0323514
0.032651
0.0330474
0.0334583
0.0336537
0.0337038
0.0311611
0.0308859
0.0307754
0.0308803
0.0311063
0.0313316
0.0315082
0.0316033
0.0316507
0.031699
0.0317897
0.0319445
0.0321685
0.0323599
0.0322088
0.0314763
0.0310484
0.0307874
0.0306626
0.0307409
0.0309334
0.0311176
0.0312146
0.0312349
0.0311928
0.0311198
0.0310445
0.03096
0.0308513
0.0304901
0.0297373
0.0251194
0.0315629
0.0314242
0.0314914
0.0317025
0.0319531
0.0321736
0.0323417
0.0324728
0.0325981
0.0327539
0.03296
0.0332192
0.0335174
0.0338241
0.0341143
0.0343328
0.0315327
0.0313117
0.0313269
0.0315344
0.0318129
0.0320768
0.0322915
0.0324652
0.032627
0.0328264
0.0330697
0.0333649
0.0336929
0.0340037
0.0342555
0.0344285
0.0314607
0.0311872
0.0311545
0.0313621
0.031674
0.031982
0.0322393
0.0324498
0.0326435
0.0328766
0.0331618
0.0335108
0.033902
0.0342662
0.0345277
0.0346867
0.0314091
0.0311166
0.0310476
0.031242
0.0315653
0.0318931
0.0321694
0.0323955
0.0326108
0.0328398
0.0331424
0.0335268
0.0339726
0.0343995
0.0346874
0.0348566
0.0313818
0.0310906
0.0309994
0.0311682
0.0314774
0.031797
0.0320642
0.0322754
0.0324682
0.0326794
0.0329644
0.0333417
0.033799
0.0342516
0.0345282
0.0346852
0.0313474
0.0310674
0.0309675
0.0311085
0.0313865
0.0316746
0.0319088
0.0320795
0.032219
0.0323744
0.0325946
0.032903
0.0332958
0.0336843
0.0338379
0.0338362
0.0312794
0.031007
0.0309026
0.0310175
0.0312557
0.0314931
0.0316827
0.0317905
0.031851
0.0319122
0.0320138
0.0321727
0.0323865
0.0325439
0.032327
0.0315137
0.0311646
0.0309067
0.030788
0.0308758
0.0310793
0.0312739
0.0313791
0.0314081
0.0313753
0.0313112
0.0312426
0.0311575
0.0310327
0.030627
0.029785
0.0249966
0.031612
0.0314726
0.0315401
0.0317551
0.0320121
0.0322404
0.0324171
0.0325574
0.0326927
0.0328584
0.0330749
0.0333436
0.0336493
0.0339615
0.0342548
0.0344699
0.0315824
0.03136
0.0313742
0.0315848
0.0318697
0.0321416
0.0323653
0.0325486
0.0327209
0.0329307
0.0331843
0.0334885
0.0338228
0.0341378
0.0343933
0.0345547
0.0315124
0.0312378
0.0312033
0.0314131
0.031731
0.0320471
0.0323137
0.0325341
0.0327377
0.0329823
0.0332774
0.033634
0.0340288
0.0343926
0.0346516
0.0348012
0.0314633
0.0311704
0.0310999
0.031296
0.0316252
0.0319609
0.0322462
0.0324821
0.0327077
0.0329469
0.0332583
0.0336486
0.0340951
0.0345163
0.0347922
0.0349611
0.0314384
0.0311476
0.0310558
0.0312263
0.0315409
0.0318676
0.032143
0.0323633
0.0325656
0.0327856
0.0330781
0.0334595
0.0339146
0.0343567
0.0346154
0.0347708
0.0314057
0.0311267
0.0310269
0.0311698
0.0314525
0.0317469
0.0319882
0.0321664
0.0323139
0.0324768
0.0327028
0.0330133
0.0334011
0.0337746
0.0339066
0.0338852
0.0313382
0.0310671
0.0309633
0.03108
0.0313223
0.0315647
0.0317601
0.031874
0.0319404
0.0320074
0.0321129
0.0322718
0.0324775
0.0326145
0.032361
0.0315019
0.0312224
0.0309663
0.0308484
0.0309376
0.0311446
0.0313432
0.0314518
0.0314847
0.0314562
0.0313961
0.0313297
0.031243
0.0311073
0.0306777
0.0297646
0.0248975
0.0301297
0.0301855
0.0302767
0.0303295
0.0303014
0.0301697
0.0299243
0.0295623
0.0290829
0.0284832
0.0277558
0.0268882
0.0258643
0.0246703
0.0232972
0.0217726
0.0301116
0.0301757
0.0302862
0.0303545
0.0303364
0.0302093
0.0299646
0.0296011
0.0291195
0.0285181
0.0277899
0.0269233
0.0259026
0.0247136
0.0233433
0.0218229
0.0300662
0.0301345
0.030269
0.0303646
0.0303673
0.0302518
0.0300106
0.0296454
0.0291599
0.0285548
0.0278251
0.0269603
0.0259433
0.0247645
0.023406
0.0219037
0.0300059
0.030067
0.0302161
0.0303366
0.0303615
0.03026
0.0300243
0.0296582
0.0291682
0.0285574
0.0278234
0.0269577
0.0259445
0.0247753
0.0234276
0.0219394
0.0299377
0.0299863
0.0301405
0.0302783
0.0303211
0.030232
0.0300016
0.0296347
0.0291398
0.028523
0.0277835
0.0269151
0.0259032
0.0247412
0.0234057
0.0219371
0.0298666
0.0299035
0.0300578
0.0302055
0.0302608
0.0301803
0.0299523
0.0295828
0.0290821
0.0284579
0.0277117
0.0268388
0.0258268
0.024671
0.0233494
0.0219027
0.0297971
0.0298259
0.0299781
0.030131
0.0301916
0.0301143
0.0298855
0.0295112
0.0290031
0.0283704
0.0276162
0.0267379
0.0257253
0.024576
0.0232715
0.0218513
0.0297318
0.0297561
0.0299065
0.0300597
0.0301209
0.030042
0.0298089
0.0294276
0.0289107
0.0282687
0.027506
0.0266221
0.0256094
0.024468
0.0231845
0.0217958
0.0300927
0.0301298
0.0302143
0.0302676
0.0302445
0.0301189
0.0298787
0.0295202
0.0290425
0.0284424
0.0277126
0.0268399
0.0258068
0.0245997
0.0232061
0.0216612
0.0300573
0.0300897
0.0301858
0.0302522
0.0302411
0.030124
0.0298885
0.0295317
0.0290537
0.0284523
0.0277223
0.0268495
0.0258169
0.0246135
0.023222
0.0216876
0.0299973
0.03002
0.0301326
0.030225
0.0302371
0.0301356
0.0299076
0.0295524
0.029073
0.0284701
0.0277366
0.0268645
0.0258356
0.0246421
0.0232593
0.0217392
0.0299309
0.0299356
0.0300559
0.0301717
0.0302074
0.0301229
0.0299034
0.0295499
0.0290684
0.0284608
0.0277248
0.0268526
0.0258268
0.0246423
0.0232691
0.0217664
0.0298616
0.0298461
0.0299654
0.0300968
0.0301517
0.0300818
0.02987
0.0295187
0.0290336
0.0284215
0.0276814
0.0268074
0.0257831
0.0246062
0.0232442
0.0217599
0.0297908
0.0297587
0.0298734
0.0300138
0.0300815
0.030022
0.0298155
0.0294627
0.0289736
0.0283556
0.0276098
0.0267325
0.025709
0.0245393
0.023192
0.0217302
0.0297236
0.0296785
0.0297882
0.0299326
0.0300071
0.0299523
0.0297459
0.02939
0.0288948
0.0282694
0.0275168
0.0266352
0.0256125
0.0244509
0.0231231
0.0216894
0.0296577
0.0296079
0.0297146
0.0298592
0.0299344
0.0298787
0.029669
0.0293071
0.028804
0.0281702
0.0274103
0.0265244
0.0255035
0.0243517
0.0230486
0.0216487
0.0300543
0.0300683
0.0301462
0.030205
0.0301936
0.0300819
0.0298558
0.0295112
0.029047
0.0284595
0.027739
0.0268693
0.0258249
0.024584
0.023118
0.0214687
0.0300056
0.0300045
0.0300904
0.0301637
0.0301678
0.0300688
0.0298513
0.0295116
0.0290496
0.0284636
0.0277443
0.0268752
0.0258313
0.0245947
0.0231284
0.0214931
0.0299252
0.029903
0.0300002
0.0301015
0.0301338
0.0300557
0.0298504
0.029516
0.0290555
0.0284688
0.0277485
0.0268818
0.0258424
0.0246168
0.0231553
0.0215357
0.0298428
0.0297928
0.0298909
0.0300161
0.0300761
0.0300196
0.029827
0.0294975
0.0290376
0.0284485
0.0277267
0.0268609
0.0258248
0.0246082
0.0231521
0.0215477
0.0297632
0.0296861
0.0297757
0.0299156
0.0299971
0.0299589
0.0297775
0.029453
0.0289913
0.0283992
0.0276741
0.026807
0.0257723
0.0245633
0.0231164
0.0215307
0.029686
0.029588
0.0296667
0.0298139
0.0299096
0.0298838
0.0297103
0.0293865
0.0289219
0.0283245
0.0275939
0.0267234
0.0256894
0.0244882
0.0230574
0.0214981
0.0296179
0.0295013
0.02957
0.02972
0.0298233
0.0298046
0.0296321
0.0293057
0.0288354
0.0282305
0.0274925
0.0266171
0.0255838
0.0243923
0.0229859
0.0214622
0.0295488
0.029428
0.0294922
0.0296404
0.0297442
0.0297245
0.0295493
0.0292171
0.0287386
0.0281245
0.0273779
0.0264972
0.0254657
0.0242859
0.0229124
0.0214329
0.0300417
0.0300289
0.0300978
0.0301636
0.0301677
0.0300756
0.0298713
0.0295506
0.0291121
0.0285515
0.0278566
0.0270028
0.0259518
0.0246627
0.023075
0.0212253
0.0299866
0.0299496
0.0300229
0.0301045
0.0301272
0.0300516
0.0298594
0.0295466
0.0291129
0.0285577
0.0278653
0.0270145
0.025966
0.0246841
0.0230931
0.0212647
0.0298885
0.0298211
0.0298994
0.0300104
0.0300658
0.0300162
0.0298409
0.0295375
0.0291097
0.0285548
0.0278649
0.0270191
0.0259768
0.0247071
0.0231146
0.0212985
0.029789
0.0296876
0.0297588
0.0298929
0.0299793
0.0299555
0.0297971
0.029502
0.029077
0.0285227
0.0278329
0.0269894
0.0259506
0.024689
0.0230944
0.0212885
0.0296972
0.0295652
0.0296202
0.0297662
0.0298754
0.0298729
0.0297287
0.0294408
0.0290158
0.0284595
0.0277669
0.026922
0.0258839
0.024629
0.0230401
0.0212541
0.0296131
0.0294577
0.0294952
0.0296451
0.0297687
0.0297801
0.0296451
0.0293597
0.0289318
0.0283699
0.0276707
0.0268212
0.0257825
0.024536
0.022965
0.0212139
0.0295403
0.0293636
0.0293862
0.0295369
0.0296682
0.0296868
0.0295542
0.0292656
0.0288312
0.0282601
0.0275512
0.0266942
0.0256545
0.0244189
0.0228798
0.02118
0.029468
0.0292907
0.0293076
0.0294519
0.0295803
0.0295973
0.029461
0.0291655
0.0287211
0.0281379
0.027417
0.0265508
0.0255104
0.0242879
0.0227935
0.0211589
0.0300651
0.0300248
0.0300826
0.0301551
0.0301767
0.030108
0.0299316
0.029643
0.029241
0.0287231
0.0280709
0.0272515
0.0262079
0.0248656
0.0231133
0.0209457
0.0300074
0.0299331
0.0299896
0.0300779
0.0301206
0.030072
0.0299112
0.029634
0.0292411
0.0287297
0.0280827
0.0272688
0.0262299
0.0248974
0.0231422
0.0210046
0.0298966
0.0297842
0.0298371
0.0299534
0.0300317
0.0300134
0.029874
0.0296101
0.0292258
0.0287188
0.0280774
0.0272712
0.0262395
0.0249156
0.0231481
0.0210074
0.0297845
0.0296348
0.0296717
0.0298074
0.0299175
0.0299281
0.029809
0.0295565
0.0291778
0.0286735
0.0280342
0.0272311
0.026202
0.0248804
0.0230985
0.0209555
0.029684
0.0295041
0.0295172
0.029659
0.0297908
0.0298237
0.0297208
0.029477
0.0290997
0.0285939
0.0279517
0.0271464
0.0261165
0.0247979
0.023016
0.0208953
0.0295969
0.0293928
0.0293832
0.0295229
0.0296666
0.0297131
0.0296191
0.0293791
0.0289978
0.0284849
0.0278341
0.0270216
0.0259891
0.0246785
0.0229174
0.0208503
0.0295183
0.0292946
0.0292688
0.0294028
0.0295523
0.0296052
0.029514
0.0292679
0.0288781
0.0283528
0.0276881
0.0268635
0.0258267
0.0245294
0.022811
0.0208287
0.0294451
0.029223
0.0291842
0.0293132
0.0294553
0.0295037
0.0294062
0.0291516
0.0287485
0.0282064
0.0275234
0.0266829
0.0256402
0.0243585
0.0227005
0.0208255
0.0301297
0.030065
0.0301126
0.0301927
0.0302334
0.0301912
0.0300471
0.0297977
0.0294438
0.0289836
0.0283962
0.0276397
0.026634
0.0252495
0.0232909
0.0206103
0.0300717
0.0299638
0.0300033
0.0300979
0.0301617
0.0301428
0.0300181
0.0297838
0.0294423
0.0289909
0.0284118
0.0276634
0.0266633
0.0252786
0.0232969
0.0205842
0.0299536
0.0298022
0.0298289
0.029948
0.0300485
0.0300633
0.0299638
0.0297461
0.029416
0.0289732
0.0284038
0.0276659
0.0266727
0.0252766
0.0232456
0.0204275
0.0298355
0.029646
0.0296484
0.029781
0.0299119
0.0299568
0.0298799
0.029676
0.0293539
0.0289157
0.0283505
0.0276171
0.0266251
0.025213
0.0231391
0.0202465
0.0297332
0.0295153
0.0294878
0.0296193
0.029768
0.0298341
0.0297734
0.0295786
0.0292588
0.028819
0.0282507
0.0275141
0.02652
0.0251007
0.0230166
0.020121
0.0296467
0.0294067
0.0293532
0.0294755
0.0296309
0.0297081
0.0296538
0.029464
0.0291371
0.0286874
0.0281074
0.0273597
0.0263608
0.0249474
0.0228918
0.0200736
0.0295652
0.0293089
0.0292388
0.0293504
0.0295042
0.0295864
0.0295355
0.0293329
0.028994
0.0285269
0.0279262
0.0271586
0.0261508
0.0247548
0.0227661
0.0201106
0.029488
0.0292369
0.0291488
0.0292513
0.0294009
0.0294715
0.0294092
0.0291956
0.0288384
0.028347
0.0277179
0.0269221
0.025898
0.0245241
0.022635
0.0202241
0.0302365
0.0301519
0.0301924
0.0302821
0.030344
0.030331
0.0302234
0.0300196
0.0297244
0.0293388
0.0288443
0.0281954
0.0272932
0.0259402
0.0237756
0.0202634
0.0301798
0.030044
0.0300691
0.0301712
0.0302576
0.0302711
0.0301865
0.0300015
0.0297218
0.0293487
0.0288668
0.0282312
0.0273393
0.0259668
0.0236895
0.0197766
0.0300604
0.029877
0.0298808
0.0300027
0.0301257
0.030175
0.0301187
0.0299534
0.0296884
0.0293282
0.0288618
0.0282444
0.0273661
0.0259569
0.0235414
0.01914
0.0299423
0.0297223
0.0296952
0.0298239
0.0299742
0.0300532
0.0300203
0.0298702
0.0296154
0.0292618
0.0288037
0.0281961
0.0273257
0.0258833
0.0233788
0.0186418
0.0298448
0.0295987
0.029538
0.0296581
0.0298207
0.0299179
0.0298998
0.0297565
0.0295048
0.0291491
0.0286883
0.028079
0.0272114
0.0257545
0.0232369
0.0183579
0.029761
0.029498
0.0294101
0.0295143
0.0296768
0.0297811
0.0297672
0.0296285
0.0293627
0.0289928
0.028516
0.0278909
0.027019
0.0255657
0.0231066
0.0182759
0.0296796
0.0294043
0.0292996
0.029388
0.029541
0.0296466
0.0296306
0.0294745
0.0291923
0.0287976
0.0282899
0.0276317
0.0267416
0.0253024
0.0229687
0.0184065
0.0295985
0.0293298
0.029206
0.0292821
0.0294318
0.0295174
0.0294849
0.0293115
0.029004
0.028574
0.0280219
0.0273111
0.026378
0.0249413
0.0227957
0.0188033
0.0303816
0.0302816
0.0303187
0.0304209
0.0305066
0.0305254
0.0304577
0.0303049
0.0300769
0.0297818
0.0294094
0.0289244
0.0282396
0.0271548
0.0251771
0.02111
0.0303279
0.0301695
0.0301841
0.030296
0.030407
0.0304552
0.0304143
0.0302841
0.0300754
0.0297972
0.0294433
0.0289816
0.0283254
0.0272414
0.0250876
0.020005
0.0302115
0.0300029
0.0299889
0.0301158
0.0302624
0.0303479
0.0303378
0.0302303
0.0300397
0.029779
0.0294487
0.0290202
0.0284037
0.0273187
0.0249951
0.0188978
0.0300987
0.0298558
0.0298064
0.0299339
0.0301042
0.0302177
0.0302308
0.0301389
0.0299603
0.0297087
0.0293922
0.0289859
0.0284011
0.0273187
0.024927
0.0181635
0.0300092
0.0297443
0.0296599
0.0297723
0.0299488
0.0300764
0.0301012
0.0300119
0.0298372
0.0295826
0.0292644
0.0288617
0.0282948
0.0272259
0.0248759
0.0177882
0.029932
0.0296547
0.0295439
0.0296349
0.0298047
0.0299334
0.0299588
0.0298736
0.0296748
0.0294005
0.0290607
0.0286371
0.0280677
0.0270125
0.0247934
0.0176762
0.0298523
0.0295671
0.0294401
0.0295113
0.0296668
0.0297882
0.0298046
0.029695
0.0294742
0.0291651
0.0287806
0.0283037
0.0276956
0.0266251
0.0246058
0.0177578
0.0297662
0.0294887
0.0293436
0.0293988
0.0295429
0.0296435
0.029637
0.0295021
0.029247
0.0288884
0.028437
0.027868
0.0271583
0.0259638
0.0241698
0.0178954
0.0298592
0.029573
0.0294135
0.0294484
0.0295761
0.0296695
0.0296594
0.0295235
0.0292681
0.0289092
0.0284583
0.0278859
0.0271767
0.0259471
0.0241483
0.0175395
0.0297287
0.0294354
0.0292785
0.0293157
0.0294368
0.0295139
0.029477
0.0293025
0.0289942
0.0285623
0.0280064
0.0272843
0.0263313
0.0248311
0.0225664
0.0183213
0.0296059
0.0293084
0.0291632
0.029213
0.0293333
0.0293957
0.0293322
0.0291204
0.0287634
0.028269
0.0276317
0.0268189
0.0257568
0.0243255
0.0222962
0.0198557
0.0295208
0.0292227
0.0291014
0.029171
0.0292909
0.0293363
0.0292442
0.0289956
0.0285947
0.0280502
0.0273574
0.0265
0.0254182
0.0240988
0.0223352
0.020459
0.0294932
0.0292077
0.0291234
0.0292117
0.0293232
0.029344
0.0292186
0.0289327
0.0284924
0.0279081
0.0271786
0.0262989
0.0252271
0.0239793
0.0224107
0.0207553
0.0295255
0.0292794
0.0292376
0.0293313
0.0294197
0.0294058
0.0292431
0.0289212
0.028448
0.0278341
0.0270818
0.0261918
0.0251377
0.0239395
0.0225169
0.0210132
0.0296084
0.0294211
0.0294188
0.0295045
0.0295597
0.0295064
0.0293074
0.028956
0.0284601
0.0278297
0.0270686
0.0261784
0.0251433
0.0239786
0.0226434
0.0212221
0.029661
0.0295455
0.0295779
0.0296626
0.0296979
0.0296187
0.0293964
0.0290282
0.0285227
0.027889
0.0271305
0.026247
0.0252261
0.0240748
0.0227666
0.0213587
0.03008
0.0297954
0.0296327
0.0296623
0.02979
0.0298906
0.0298956
0.0297848
0.029566
0.0292586
0.0288783
0.0283986
0.0277984
0.0266471
0.0246495
0.0170213
0.02993
0.0296344
0.0294708
0.0295001
0.0296193
0.029701
0.0296753
0.0295189
0.0292364
0.0288392
0.0283272
0.0276511
0.0267323
0.0251705
0.0226561
0.0175707
0.0297824
0.0294781
0.0293218
0.0293622
0.0294809
0.0295481
0.0294939
0.0292956
0.0289561
0.0284833
0.0278696
0.0270741
0.0260087
0.0245083
0.0223045
0.01954
0.0296686
0.0293611
0.0292253
0.0292862
0.0294071
0.0294593
0.0293765
0.0291385
0.0287493
0.0282172
0.0275353
0.026682
0.0255852
0.0242217
0.0223412
0.0203371
0.0296197
0.0293192
0.0292186
0.0293013
0.0294179
0.029448
0.0293324
0.029055
0.0286221
0.028044
0.0273177
0.0264359
0.0253465
0.0240668
0.022413
0.0206735
0.0296383
0.0293727
0.0293163
0.0294088
0.0295057
0.0295028
0.0293496
0.0290344
0.0285651
0.0279532
0.0271997
0.0263039
0.0252321
0.0240074
0.0225232
0.0209571
0.029712
0.029507
0.0294954
0.0295845
0.02965
0.0296077
0.0294168
0.0290701
0.0285759
0.0279451
0.0271808
0.0262838
0.0252329
0.0240454
0.0226644
0.0211931
0.0297603
0.0296333
0.0296628
0.0297544
0.0298007
0.0297314
0.0295155
0.0291503
0.0286455
0.0280111
0.02725
0.0263608
0.0253267
0.0241548
0.022807
0.0213518
0.0303078
0.0300265
0.0298666
0.0298983
0.0300306
0.0301394
0.0301579
0.0300681
0.0298795
0.029613
0.0292848
0.0288628
0.0283077
0.027123
0.024901
0.0164818
0.0301383
0.0298431
0.0296788
0.0297071
0.0298282
0.0299152
0.0298986
0.0297566
0.0294945
0.029124
0.0286434
0.0279936
0.0270796
0.0254302
0.0226962
0.0170277
0.0299667
0.0296588
0.0294975
0.0295343
0.0296541
0.029726
0.0296791
0.0294906
0.0291641
0.0287071
0.0281093
0.0273211
0.0262406
0.0246643
0.0223014
0.0192699
0.0298265
0.029512
0.0293672
0.0294238
0.0295472
0.0296055
0.0295298
0.0292992
0.028918
0.0283942
0.0277184
0.0268638
0.025747
0.0243346
0.022344
0.0202206
0.0297554
0.0294438
0.0293317
0.0294118
0.0295338
0.0295723
0.0294643
0.0291928
0.0287644
0.0281895
0.0274636
0.0265764
0.0254673
0.0241537
0.0224206
0.0206034
0.02976
0.0294788
0.0294115
0.0295045
0.0296097
0.0296167
0.0294712
0.0291606
0.0286933
0.0280811
0.0273244
0.0264211
0.025331
0.0240793
0.0225378
0.0209134
0.0298238
0.0296046
0.0295864
0.0296798
0.0297552
0.0297229
0.0295389
0.0291952
0.0287011
0.0280683
0.0272994
0.0263944
0.0253272
0.024117
0.0226929
0.0211741
0.029868
0.0297318
0.0297604
0.0298595
0.0299166
0.0298566
0.0296461
0.0292826
0.028777
0.0281403
0.0273752
0.026479
0.0254311
0.0242388
0.0228532
0.0213529
0.0305261
0.0302488
0.0300948
0.0301335
0.030274
0.0303921
0.0304222
0.0303492
0.0301834
0.0299459
0.0296508
0.0292571
0.0287073
0.0274494
0.0250101
0.0159532
0.0303387
0.0300448
0.0298834
0.0299154
0.0300416
0.0301348
0.0301259
0.0299946
0.0297471
0.0293946
0.0289327
0.0282921
0.0273636
0.0256219
0.0226959
0.0165893
0.0301449
0.0298352
0.0296727
0.0297102
0.0298336
0.0299106
0.0298693
0.0296877
0.0293698
0.0289226
0.0283329
0.0275429
0.0264395
0.0247893
0.0222873
0.019044
0.029981
0.0296616
0.0295116
0.0295672
0.0296947
0.0297588
0.0296886
0.029463
0.0290864
0.0285669
0.0278927
0.0270319
0.025892
0.0244311
0.0223431
0.0201173
0.0298892
0.0295691
0.0294494
0.029529
0.029657
0.029703
0.0296011
0.0293336
0.0289073
0.028333
0.0276046
0.0267097
0.0255799
0.0242329
0.0224298
0.0205449
0.0298804
0.0295868
0.0295117
0.0296066
0.0297197
0.0297357
0.0295965
0.0292889
0.0288218
0.0282078
0.0274463
0.0265343
0.025426
0.0241485
0.0225562
0.02088
0.0299346
0.0297042
0.0296815
0.0297796
0.0298645
0.0298413
0.029663
0.0293211
0.0288259
0.02819
0.0274155
0.0265018
0.0254188
0.024187
0.0227241
0.0211624
0.029975
0.0298317
0.0298605
0.0299673
0.0300347
0.0299832
0.0297773
0.0294145
0.0289071
0.0282671
0.0274969
0.0265931
0.0255315
0.0243196
0.0228996
0.0213584
0.0307203
0.0304466
0.0302995
0.0303473
0.0304976
0.0306253
0.030665
0.0306045
0.0304545
0.0302353
0.0299583
0.0295735
0.0290086
0.0276682
0.0250412
0.0154833
0.0305172
0.030225
0.0300679
0.0301059
0.0302389
0.0303385
0.0303359
0.0302122
0.0299742
0.0296322
0.029179
0.0285364
0.0275838
0.0257553
0.022669
0.0162306
0.0303043
0.0299938
0.0298322
0.0298727
0.0300011
0.0300831
0.0300463
0.0298692
0.0295563
0.0291138
0.0285263
0.0277286
0.0265992
0.0248822
0.022265
0.0188596
0.0301203
0.0297973
0.0296446
0.0297014
0.0298336
0.0299031
0.0298371
0.0296145
0.0292402
0.0287218
0.0280458
0.0271759
0.0260128
0.0245079
0.0223389
0.0200302
0.0300107
0.0296842
0.0295593
0.02964
0.0297737
0.0298264
0.0297293
0.0294642
0.0290383
0.0284628
0.0277304
0.0268264
0.0256769
0.0242996
0.0224383
0.0204969
0.0299894
0.0296868
0.0296062
0.0297034
0.0298239
0.0298475
0.0297135
0.0294078
0.0289399
0.028323
0.027556
0.0266352
0.02551
0.0242093
0.0225745
0.0208547
0.0300354
0.0297966
0.0297708
0.0298736
0.0299669
0.0299515
0.0297779
0.0294371
0.0289402
0.0283006
0.0275202
0.0265981
0.0255006
0.0242495
0.0227536
0.0211553
0.0300726
0.029924
0.0299537
0.0300675
0.0301442
0.0301002
0.029898
0.0295355
0.0290258
0.028382
0.0276064
0.0266949
0.0256208
0.024391
0.0229416
0.0213654
0.0308778
0.0306072
0.0304665
0.0305234
0.0306833
0.0308196
0.0308666
0.0308148
0.0306749
0.0304662
0.0301972
0.0298109
0.0292239
0.0278102
0.0250389
0.0151161
0.0306622
0.0303717
0.0302189
0.0302636
0.0304036
0.0305091
0.0305112
0.0303924
0.0301599
0.0298231
0.0293723
0.0287221
0.0277441
0.0258431
0.0226346
0.0159586
0.0304342
0.0301235
0.0299636
0.0300081
0.0301417
0.0302283
0.0301948
0.0300203
0.0297097
0.0292687
0.0286798
0.0278722
0.0267185
0.0249468
0.0222417
0.01872
0.0302344
0.029909
0.0297553
0.0298143
0.0299511
0.0300251
0.0299623
0.0297414
0.0293675
0.0288484
0.0281688
0.0272893
0.0261056
0.0245646
0.0223337
0.0199631
0.0301108
0.0297796
0.0296517
0.029734
0.0298729
0.029931
0.0298375
0.0295737
0.0291473
0.0285697
0.0278326
0.0269199
0.0257536
0.0243514
0.0224452
0.0204604
0.0300792
0.0297702
0.0296861
0.0297857
0.0299123
0.0299421
0.029812
0.0295073
0.0290381
0.0284182
0.027646
0.0267171
0.0255779
0.0242582
0.0225903
0.0208364
0.0301187
0.0298738
0.0298462
0.029953
0.0300532
0.0300441
0.0298741
0.029534
0.0290352
0.028392
0.0276064
0.0266767
0.0255672
0.0243002
0.0227785
0.0211514
0.0301533
0.0300011
0.0300319
0.0301517
0.0302359
0.030198
0.0299987
0.0296361
0.0291242
0.0284767
0.0276962
0.026778
0.0256931
0.0244487
0.0229759
0.021372
0.0309885
0.0307206
0.0305849
0.03065
0.030819
0.0309628
0.0310155
0.0309693
0.030835
0.0306313
0.030365
0.029974
0.0293678
0.0279019
0.0250344
0.0148816
0.0307642
0.0304755
0.0303264
0.0303775
0.0305247
0.0306357
0.0306416
0.0305258
0.0302959
0.029961
0.0295095
0.0288516
0.0278532
0.0259002
0.0226079
0.0157797
0.0305258
0.0302156
0.0300577
0.0301068
0.0302461
0.0303371
0.0303063
0.0301332
0.0298233
0.0293819
0.0287902
0.0279738
0.026801
0.0249895
0.0222239
0.0186278
0.0303151
0.0299888
0.0298354
0.0298976
0.0300394
0.0301176
0.0300571
0.0298369
0.0294627
0.0289419
0.0282585
0.0273708
0.0261715
0.0246043
0.0223319
0.0199212
0.0301818
0.0298484
0.0297195
0.0298045
0.0299484
0.0300109
0.0299199
0.0296566
0.0292292
0.0286492
0.027908
0.0269882
0.0258094
0.0243894
0.0224532
0.0204388
0.0301431
0.0298309
0.0297455
0.0298481
0.0299798
0.0300142
0.0298867
0.0295825
0.0291119
0.0284892
0.0277126
0.0267774
0.0256279
0.0242945
0.0226042
0.0208264
0.0301782
0.0299303
0.0299024
0.0300129
0.0301184
0.0301138
0.0299462
0.0296061
0.0291057
0.0284595
0.0276696
0.0267343
0.025616
0.0243375
0.0227981
0.0211507
0.0302109
0.030057
0.0300891
0.0302134
0.0303032
0.0302695
0.0300722
0.0297093
0.0291955
0.0285452
0.0277608
0.0268373
0.0257447
0.0244898
0.0230009
0.0213777
0.0310437
0.0307774
0.0306418
0.0307077