/*--------------------------------*- C++ -*----------------------------------*\
| =========                 |                                                 |
| \\      /  F ield         | foam-extend: Open Source CFD                    |
|  \\    /   O peration     | Version:     3.1                                |
|   \\  /    A nd           | Web:         http://www.extend-project.de       |
|    \\/     M anipulation  |                                                 |
\*---------------------------------------------------------------------------*/
FoamFile
{
    version     2.0;
    format      ascii;
    class       surfaceScalarField;
    location    "1.5";
    object      phi;
}
// * * * * * * * * * * * * * * * * * * * * * * * * * * * * * * * * * * * * * //

dimensions      [0 3 -1 0 0 0 0];

internalField   nonuniform List<scalar> 
41600
(
1.17052e-05
1.04952e-07
-1.65489e-06
1.65548e-06
1.19273e-05
-2.98917e-07
-4.00155e-06
4.07837e-06
1.26276e-05
-8.03881e-07
-5.59657e-06
5.70015e-06
1.36405e-05
-1.09149e-06
-6.51756e-06
6.59624e-06
1.46913e-05
-1.08114e-06
-6.94374e-06
6.97409e-06
1.55636e-05
-8.54773e-07
-7.10271e-06
7.08515e-06
1.61534e-05
-5.36748e-07
-7.21348e-06
7.16046e-06
1.64423e-05
-2.16353e-07
-7.46157e-06
7.38894e-06
1.64625e-05
5.43896e-08
-7.99956e-06
7.92495e-06
1.62842e-05
2.36429e-07
-8.97366e-06
8.91555e-06
1.59728e-05
3.19679e-07
-1.05343e-05
1.05261e-05
1.56023e-05
2.57363e-07
-1.28865e-05
1.29996e-05
1.51887e-05
-1.11158e-08
-1.63176e-05
1.67424e-05
1.44178e-05
-5.85264e-07
-2.10593e-05
2.24154e-05
1.12898e-05
-1.1057e-06
-2.61744e-05
3.04081e-05
-7.54697e-07
-2.32158e-05
3.60224e-05
3.30207e-05
1.32835e-07
-1.98488e-06
2.08271e-06
3.33651e-05
-1.02931e-06
-6.82857e-06
7.2146e-06
3.44265e-05
-2.40164e-06
-1.09928e-05
1.1529e-05
3.60279e-05
-3.21598e-06
-1.3762e-05
1.42851e-05
3.77695e-05
-3.23779e-06
-1.51743e-05
1.55893e-05
3.92662e-05
-2.63617e-06
-1.56463e-05
1.5931e-05
4.02817e-05
-1.72777e-06
-1.56939e-05
1.58695e-05
4.07309e-05
-7.6981e-07
-1.57873e-05
1.58915e-05
4.06207e-05
9.11453e-08
-1.63115e-05
1.6385e-05
3.99925e-05
7.80013e-07
-1.75913e-05
1.7676e-05
3.88621e-05
1.29267e-06
-1.99343e-05
2.00917e-05
3.71736e-05
1.5919e-06
-2.37126e-05
2.40665e-05
3.4659e-05
1.61768e-06
-2.94293e-05
3.03151e-05
3.02043e-05
1.28382e-06
-3.74958e-05
4.00814e-05
2.04962e-05
5.31546e-07
-4.59366e-05
5.40074e-05
-9.47412e-07
-3.83713e-05
6.13224e-05
5.13418e-05
1.2141e-07
-1.35046e-06
1.45413e-06
5.11571e-05
-1.39757e-06
-6.30792e-06
6.86082e-06
5.13154e-05
-3.42199e-06
-1.16867e-05
1.25489e-05
5.197e-05
-4.78926e-06
-1.59504e-05
1.6869e-05
5.29533e-05
-5.01428e-06
-1.8536e-05
1.93292e-05
5.39374e-05
-4.22059e-06
-1.96484e-05
2.02487e-05
5.46244e-05
-2.83716e-06
-1.98674e-05
2.02898e-05
5.48286e-05
-1.2698e-06
-1.98389e-05
2.01348e-05
5.4466e-05
2.25337e-07
-2.01259e-05
2.03543e-05
5.34859e-05
1.53791e-06
-2.11871e-05
2.14093e-05
5.18099e-05
2.67532e-06
-2.34336e-05
2.37269e-05
4.92492e-05
3.64225e-06
-2.73164e-05
2.78268e-05
4.53292e-05
4.43375e-06
-3.34397e-05
3.45436e-05
3.85201e-05
4.99806e-06
-4.24343e-05
4.55291e-05
2.48308e-05
4.61014e-06
-5.23319e-05
6.19427e-05
2.25703e-07
-4.38605e-05
7.15795e-05
6.66485e-05
8.79458e-08
-8.4162e-07
9.0036e-07
6.5969e-05
-1.28864e-06
-5.01648e-06
5.58704e-06
6.49652e-05
-3.43783e-06
-1.05593e-05
1.1579e-05
6.40825e-05
-5.0804e-06
-1.56797e-05
1.68535e-05
6.35319e-05
-5.52726e-06
-1.92477e-05
2.03112e-05
6.32418e-05
-4.759e-06
-2.1068e-05
2.18966e-05
6.29908e-05
-3.17819e-06
-2.16081e-05
2.22001e-05
6.25467e-05
-1.24105e-06
-2.15864e-05
2.20017e-05
6.17475e-05
7.09678e-07
-2.16936e-05
2.20084e-05
6.04266e-05
2.5683e-06
-2.24947e-05
2.27853e-05
5.84079e-05
4.3388e-06
-2.4476e-05
2.48312e-05
5.53895e-05
6.0819e-06
-2.81375e-05
2.87162e-05
5.07733e-05
7.86159e-06
-3.41365e-05
3.53248e-05
4.27568e-05
9.73426e-06
-4.33203e-05
4.66005e-05
2.67793e-05
1.03937e-05
-5.40416e-05
6.42355e-05
3.13388e-06
-4.61596e-05
7.63336e-05
7.89135e-05
2.63871e-08
-5.85774e-07
5.99337e-07
7.80105e-05
-9.08577e-07
-3.99135e-06
4.51427e-06
7.61791e-05
-2.67641e-06
-9.27176e-06
1.03418e-05
7.39423e-05
-4.16475e-06
-1.47617e-05
1.60828e-05
7.18183e-05
-4.64778e-06
-1.89944e-05
2.02389e-05
7.00545e-05
-3.97953e-06
-2.13929e-05
2.23772e-05
6.86217e-05
-2.44473e-06
-2.22379e-05
2.29372e-05
6.73191e-05
-4.16351e-07
-2.22508e-05
2.27288e-05
6.59693e-05
1.71061e-06
-2.22063e-05
2.25552e-05
6.43091e-05
3.9203e-06
-2.27556e-05
2.30638e-05
6.20788e-05
6.20498e-06
-2.4436e-05
2.48002e-05
5.88765e-05
8.6987e-06
-2.77758e-05
2.83612e-05
5.40042e-05
1.15445e-05
-3.34498e-05
3.46391e-05
4.54134e-05
1.50372e-05
-4.24886e-05
4.57764e-05
2.78682e-05
1.76115e-05
-5.36382e-05
6.39658e-05
8.10675e-06
-4.66956e-05
7.84084e-05
8.8095e-05
-4.17485e-08
-4.72768e-07
4.55212e-07
8.71449e-05
-4.25452e-07
-3.34982e-06
3.81685e-06
8.48775e-05
-1.48298e-06
-8.3082e-06
9.38213e-06
8.17393e-05
-2.43085e-06
-1.39067e-05
1.53111e-05
7.84127e-05
-2.68762e-06
-1.85316e-05
1.9898e-05
7.54062e-05
-2.06737e-06
-2.13262e-05
2.24205e-05
7.28931e-05
-7.03676e-07
-2.23886e-05
2.31607e-05
7.0838e-05
1.12282e-06
-2.24022e-05
2.2918e-05
6.89797e-05
3.21045e-06
-2.21954e-05
2.25539e-05
6.70777e-05
5.52189e-06
-2.24723e-05
2.27726e-05
6.48071e-05
8.13163e-06
-2.38012e-05
2.41452e-05
6.16943e-05
1.12614e-05
-2.67154e-05
2.72655e-05
5.69606e-05
1.51512e-05
-3.18624e-05
3.29895e-05
4.83321e-05
2.05264e-05
-4.04074e-05
4.35467e-05
2.95684e-05
2.62751e-05
-5.16126e-05
6.17127e-05
1.64315e-05
-4.56808e-05
7.84055e-05
9.41956e-05
-9.64735e-08
-4.17676e-07
3.81999e-07
9.32575e-05
8.72323e-08
-2.97808e-06
3.40356e-06
9.08119e-05
-1.01927e-07
-7.68549e-06
8.74998e-06
8.71917e-05
-2.59235e-07
-1.32771e-05
1.47257e-05
8.31385e-05
-7.73337e-08
-1.80919e-05
1.95349e-05
7.93262e-05
5.77647e-07
-2.11023e-05
2.22696e-05
7.61211e-05
1.68327e-06
-2.22739e-05
2.3092e-05
7.35395e-05
3.17115e-06
-2.22433e-05
2.27766e-05
7.14144e-05
4.98022e-06
-2.18499e-05
2.22052e-05
6.9494e-05
7.16095e-06
-2.18278e-05
2.21092e-05
6.74542e-05
9.8632e-06
-2.2744e-05
2.30522e-05
6.4822e-05
1.3413e-05
-2.51015e-05
2.5582e-05
6.07867e-05
1.81866e-05
-2.94636e-05
3.04635e-05
5.3044e-05
2.54964e-05
-3.6993e-05
3.97657e-05
3.39749e-05
3.6008e-05
-4.77321e-05
5.70682e-05
3.1565e-05
-4.25393e-05
7.55674e-05
9.72157e-05
-3.79355e-07
3.34741e-07
-1.14407e-07
9.63189e-05
-2.77398e-06
3.17699e-06
5.81011e-07
9.38277e-05
-7.33241e-06
8.38783e-06
1.33387e-06
9.00355e-05
-1.28737e-05
1.43385e-05
2.06816e-06
8.57129e-05
-1.77263e-05
1.92009e-05
2.77059e-06
8.16048e-05
-2.07976e-05
2.19954e-05
3.48795e-06
7.81415e-05
-2.19607e-05
2.27991e-05
4.3082e-06
7.54324e-05
-2.18303e-05
2.23686e-05
5.34191e-06
7.3361e-05
-2.12377e-05
2.15843e-05
6.70512e-06
7.17148e-05
-2.09044e-05
2.11628e-05
8.54869e-06
7.02316e-05
-2.13621e-05
2.16279e-05
1.10807e-05
6.85953e-05
-2.30346e-05
2.342e-05
1.46639e-05
6.61413e-05
-2.6346e-05
2.71528e-05
1.98338e-05
6.11091e-05
-3.20771e-05
3.41319e-05
2.84737e-05
4.56308e-05
-4.16222e-05
4.89892e-05
4.41194e-05
-3.54534e-05
6.538e-05
6.41253e-05
1.24898e-05
7.49981e-08
-1.58111e-06
1.26257e-05
-3.73187e-07
-3.76431e-06
1.32198e-05
-9.26317e-07
-5.26429e-06
1.41142e-05
-1.2509e-06
-6.1611e-06
1.50254e-05
-1.24981e-06
-6.60513e-06
1.57203e-05
-1.00372e-06
-6.79387e-06
1.60804e-05
-6.4892e-07
-6.92467e-06
1.60763e-05
-2.89055e-07
-7.16841e-06
1.57195e-05
2.05845e-08
-7.66337e-06
1.50588e-05
2.26353e-07
-8.5393e-06
1.41048e-05
3.26116e-07
-9.9064e-06
1.28404e-05
2.71782e-07
-1.18939e-05
1.11454e-05
2.36683e-09
-1.4625e-05
8.63403e-06
-5.47876e-07
-1.8e-05
4.35588e-06
-1.27938e-06
-2.06169e-05
-2.2115e-06
-1.57868e-05
3.52845e-05
1.02396e-07
-1.82728e-06
3.54678e-05
-1.14996e-06
-6.23509e-06
3.62988e-05
-2.66176e-06
-1.00883e-05
3.76217e-05
-3.60229e-06
-1.27335e-05
3.90374e-05
-3.67984e-06
-1.416e-05
4.01433e-05
-3.04703e-06
-1.47089e-05
4.06804e-05
-2.04511e-06
-1.48348e-05
4.05403e-05
-9.68406e-07
-1.49679e-05
3.96993e-05
1.41023e-08
-1.54641e-05
3.81534e-05
7.99384e-07
-1.66184e-05
3.58308e-05
1.39309e-06
-1.86787e-05
3.2537e-05
1.75081e-06
-2.18977e-05
2.78184e-05
1.80043e-06
-2.65088e-05
2.06797e-05
1.40564e-06
-3.23106e-05
9.58276e-06
2.75068e-07
-3.63941e-05
-2.50346e-06
-2.59859e-05
5.49189e-05
9.28282e-08
-1.22087e-06
5.45811e-05
-1.49722e-06
-5.62282e-06
5.44482e-05
-3.70494e-06
-1.05107e-05
5.46955e-05
-5.27989e-06
-1.45201e-05
5.51855e-05
-5.63302e-06
-1.70728e-05
5.56029e-05
-4.83479e-06
-1.8278e-05
5.56415e-05
-3.3307e-06
-1.86205e-05
5.5093e-05
-1.57789e-06
-1.86809e-05
5.38368e-05
1.25301e-07
-1.89809e-05
5.17588e-05
1.62941e-06
-1.99391e-05
4.86766e-05
2.94806e-06
-2.19064e-05
4.42358e-05
4.08036e-06
-2.52052e-05
3.7736e-05
5.00891e-06
-3.01483e-05
2.77723e-05
5.55575e-06
-3.66207e-05
1.23252e-05
4.7345e-06
-4.13443e-05
-4.29027e-07
-2.92559e-05
7.13185e-05
4.93833e-08
-7.69894e-07
7.05447e-05
-1.35091e-06
-4.38897e-06
6.9268e-05
-3.66012e-06
-9.32743e-06
6.79119e-05
-5.53203e-06
-1.40714e-05
6.67274e-05
-6.15512e-06
-1.75411e-05
6.56974e-05
-5.42269e-06
-1.94501e-05
6.46317e-05
-3.72881e-06
-2.01443e-05
6.32954e-05
-1.57639e-06
-2.02516e-05
6.14929e-05
6.4239e-07
-2.04082e-05
5.89824e-05
2.77952e-06
-2.11343e-05
5.54682e-05
4.84108e-06
-2.28548e-05
5.04573e-05
6.89267e-06
-2.59389e-05
4.30764e-05
9.00865e-06
-3.07554e-05
3.158e-05
1.10707e-05
-3.73388e-05
1.33723e-05
1.13767e-05
-4.24761e-05
3.65765e-06
-3.02854e-05
8.44396e-05
-2.49913e-08
-5.58013e-07
8.3501e-05
-9.47797e-07
-3.45581e-06
8.14635e-05
-2.82022e-06
-8.07421e-06
7.876e-05
-4.49951e-06
-1.30907e-05
7.5923e-05
-5.15288e-06
-1.71596e-05
7.32793e-05
-4.53776e-06
-1.96342e-05
7.08768e-05
-2.90814e-06
-2.06561e-05
6.85497e-05
-6.68226e-07
-2.08318e-05
6.60999e-05
1.75544e-06
-2.08695e-05
6.31919e-05
4.30323e-06
-2.13714e-05
5.94335e-05
6.97744e-06
-2.28139e-05
5.42105e-05
9.93451e-06
-2.55946e-05
4.6509e-05
1.33722e-05
-3.01118e-05
3.42283e-05
1.74172e-05
-3.65544e-05
1.40192e-05
1.98824e-05
-4.19349e-05
1.01942e-05
-3.01394e-05
9.42493e-05
-9.85116e-08
-4.70838e-07
9.32979e-05
-4.55039e-07
-2.89116e-06
9.08946e-05
-1.56172e-06
-7.16341e-06
8.7337e-05
-2.62868e-06
-1.222e-05
8.32787e-05
-3.00061e-06
-1.66255e-05
7.93079e-05
-2.4117e-06
-1.94814e-05
7.57135e-05
-9.63446e-07
-2.0739e-05
7.25269e-05
1.06377e-06
-2.09476e-05
6.94994e-05
3.44005e-06
-2.08524e-05
6.63246e-05
6.11754e-06
-2.11118e-05
6.25453e-05
9.19045e-06
-2.22349e-05
5.74628e-05
1.29294e-05
-2.46278e-05
4.99679e-05
1.76882e-05
-2.86835e-05
3.75713e-05
2.41464e-05
-3.47399e-05
1.56757e-05
3.03602e-05
-4.01947e-05
2.08311e-05
-2.89422e-05
0.000100763
-1.49151e-07
-4.29396e-07
9.98377e-05
6.27146e-08
-2.57032e-06
9.73062e-05
-1.31419e-07
-6.58432e-06
9.3318e-05
-3.25026e-07
-1.15925e-05
8.85501e-05
-1.75349e-07
-1.61493e-05
8.37386e-05
5.06506e-07
-1.9209e-05
7.93935e-05
1.69746e-06
-2.05898e-05
7.5628e-05
3.36529e-06
-2.07794e-05
7.2308e-05
5.43779e-06
-2.05276e-05
6.9139e-05
7.97961e-06
-2.05208e-05
6.56786e-05
1.11819e-05
-2.12751e-05
6.12301e-05
1.54558e-05
-2.31794e-05
5.46944e-05
2.13334e-05
-2.65731e-05
4.33434e-05
3.0403e-05
-3.18986e-05
2.07351e-05
4.24673e-05
-3.72309e-05
3.99156e-05
-2.65148e-05
0.000103988
-3.98179e-07
-1.56299e-07
0.000103108
-2.39323e-06
5.6201e-07
0.000100559
-6.25801e-06
1.34359e-06
9.64324e-05
-1.11987e-05
2.12653e-06
9.14137e-05
-1.57767e-05
2.89384e-06
8.63206e-05
-1.88933e-05
3.69529e-06
8.17092e-05
-2.02737e-05
4.62193e-06
7.78179e-05
-2.03814e-05
5.80766e-06
7.45826e-05
-1.99552e-05
7.39055e-06
7.17706e-05
-1.9671e-05
9.55821e-06
6.90346e-05
-2.00212e-05
1.2577e-05
6.58704e-05
-2.13437e-05
1.69291e-05
6.1423e-05
-2.38778e-05
2.33127e-05
5.33685e-05
-2.79693e-05
3.43497e-05
3.44549e-05
-3.30816e-05
5.28403e-05
-2.20553e-05
7.79993e-05
1.31588e-05
4.56061e-08
-1.4374e-06
1.32181e-05
-4.4323e-07
-3.38043e-06
1.37213e-05
-1.04249e-06
-4.72499e-06
1.45159e-05
-1.40485e-06
-5.55083e-06
1.53082e-05
-1.41702e-06
-5.98038e-06
1.58488e-05
-1.15661e-06
-6.1779e-06
1.60064e-05
-7.69863e-07
-6.31239e-06
1.57445e-05
-3.74146e-07
-6.53236e-06
1.50596e-05
-2.26218e-08
-6.9559e-06
1.40005e-05
2.03966e-07
-7.68413e-06
1.25559e-05
3.2874e-07
-8.79055e-06
1.06936e-05
3.05631e-07
-1.03372e-05
8.31812e-06
8.66085e-08
-1.23362e-05
5.23983e-06
-3.72051e-07
-1.45497e-05
1.46483e-06
-1.18182e-06
-1.566e-05
-2.39416e-06
-1.10032e-05
3.72227e-05
7.17046e-08
-1.61529e-06
3.72696e-05
-1.25943e-06
-5.46575e-06
3.79093e-05
-2.89743e-06
-8.87311e-06
3.90011e-05
-3.95934e-06
-1.12708e-05
4.01419e-05
-4.09887e-06
-1.26189e-05
4.09104e-05
-3.44799e-06
-1.31861e-05
4.10269e-05
-2.36639e-06
-1.33548e-05
4.03651e-05
-1.18203e-06
-1.34982e-05
3.88817e-05
-7.84855e-08
-1.39248e-05
3.65581e-05
7.96285e-07
-1.48871e-05
3.32907e-05
1.47987e-06
-1.65624e-05
2.88694e-05
1.92528e-06
-1.90961e-05
2.29066e-05
2.0719e-06
-2.25312e-05
1.48547e-05
1.76902e-06
-2.63998e-05
4.7585e-06
4.80124e-07
-2.79599e-05
-2.68503e-06
-1.82682e-05
5.79831e-05
6.22521e-08
-1.06571e-06
5.75206e-05
-1.58535e-06
-4.83439e-06
5.71541e-05
-3.95126e-06
-9.09028e-06
5.70693e-05
-5.71788e-06
-1.26768e-05
5.71461e-05
-6.2013e-06
-1.50472e-05
5.70761e-05
-5.41542e-06
-1.62406e-05
5.65458e-05
-3.81241e-06
-1.66441e-05
5.53298e-05
-1.89312e-06
-1.67538e-05
5.3288e-05
7.22595e-09
-1.70248e-05
5.02703e-05
1.69286e-06
-1.7818e-05
4.60589e-05
3.19295e-06
-1.9408e-05
4.02708e-05
4.50631e-06
-2.19982e-05
3.22612e-05
5.61903e-06
-2.56859e-05
2.11184e-05
6.30178e-06
-3.00107e-05
6.71731e-06
5.30241e-06
-3.17654e-05
-2.64806e-07
-2.04022e-05
7.53163e-05
9.22964e-09
-6.80935e-07
7.44685e-05
-1.40611e-06
-3.72041e-06
7.29837e-05
-3.84612e-06
-7.94781e-06
7.12532e-05
-5.92226e-06
-1.21366e-05
6.95463e-05
-6.71641e-06
-1.5319e-05
6.78845e-05
-6.03508e-06
-1.71687e-05
6.61053e-05
-4.25336e-06
-1.79241e-05
6.39776e-05
-1.9098e-06
-1.81072e-05
6.12908e-05
5.56962e-07
-1.82712e-05
5.77591e-05
2.95626e-06
-1.88659e-05
5.30397e-05
5.2959e-06
-2.02385e-05
4.65948e-05
7.64777e-06
-2.26354e-05
3.75687e-05
1.00938e-05
-2.6204e-05
2.46809e-05
1.24311e-05
-3.05803e-05
7.37762e-06
1.26291e-05
-3.24995e-05
4.46083e-06
-2.08311e-05
8.91674e-05
-7.52827e-08
-5.1005e-07
8.81995e-05
-9.83617e-07
-2.91038e-06
8.6016e-05
-2.93539e-06
-6.80146e-06
8.29593e-05
-4.77917e-06
-1.1177e-05
7.95486e-05
-5.59295e-06
-1.48723e-05
7.61628e-05
-5.04205e-06
-1.72415e-05
7.29158e-05
-3.34186e-06
-1.83206e-05
6.96795e-05
-9.11263e-07
-1.8594e-05
6.62576e-05
1.77866e-06
-1.86693e-05
6.22754e-05
4.64128e-06
-1.90742e-05
5.72837e-05
7.67731e-06
-2.02036e-05
5.06097e-05
1.10602e-05
-2.2333e-05
4.1218e-05
1.50175e-05
-2.56439e-05
2.74075e-05
1.95802e-05
-2.9893e-05
7.90927e-06
2.21292e-05
-3.19369e-05
1.19828e-05
-2.04724e-05
9.95138e-05
-1.51458e-07
-4.43556e-07
9.85546e-05
-4.8155e-07
-2.43408e-06
9.60644e-05
-1.62049e-06
-5.98804e-06
9.22053e-05
-2.78657e-06
-1.03535e-05
8.75742e-05
-3.26476e-06
-1.43226e-05
8.28022e-05
-2.71514e-06
-1.70363e-05
7.82723e-05
-1.20265e-06
-1.83483e-05
7.40854e-05
1.00132e-06
-1.86732e-05
7.00208e-05
3.64008e-06
-1.86493e-05
6.57457e-05
6.65458e-06
-1.885e-05
6.07447e-05
1.01484e-05
-1.9705e-05
5.42544e-05
1.44258e-05
-2.15032e-05
4.51178e-05
1.99084e-05
-2.44377e-05
3.11375e-05
2.72242e-05
-2.84037e-05
9.70103e-06
3.39035e-05
-3.05325e-05
2.40555e-05
-1.9424e-05
0.000106382
-1.96261e-07
-4.12164e-07
0.000105454
4.36265e-08
-2.16777e-06
0.000102875
-1.48104e-07
-5.47785e-06
9.86356e-05
-3.69756e-07
-9.76968e-06
9.33231e-05
-2.49894e-07
-1.38517e-05
8.76918e-05
4.52917e-07
-1.67457e-05
8.23689e-05
1.71267e-06
-1.81823e-05
7.75588e-05
3.5414e-06
-1.85093e-05
7.31771e-05
5.85443e-06
-1.83602e-05
6.89223e-05
8.72579e-06
-1.83373e-05
6.43028e-05
1.23748e-05
-1.88819e-05
5.85595e-05
1.72673e-05
-2.02775e-05
5.05576e-05
2.40332e-05
-2.2696e-05
3.7699e-05
3.4355e-05
-2.61707e-05
1.52649e-05
4.74775e-05
-2.83709e-05
4.50501e-05
-1.76952e-05
0.000109783
-3.86745e-07
-1.9153e-07
0.000108901
-2.0197e-06
5.51675e-07
0.000106326
-5.1914e-06
1.36015e-06
0.00010198
-9.40841e-06
2.18651e-06
9.64386e-05
-1.34974e-05
3.01186e-06
9.05493e-05
-1.64407e-05
3.88956e-06
8.49577e-05
-1.78823e-05
4.91293e-06
8.00252e-05
-1.81464e-05
6.23883e-06
7.57534e-05
-1.78529e-05
8.02402e-06
7.19199e-05
-1.75976e-05
1.04859e-05
6.81476e-05
-1.78088e-05
1.39347e-05
6.38819e-05
-1.87402e-05
1.89296e-05
5.8283e-05
-2.05096e-05
2.62639e-05
4.89959e-05
-2.31816e-05
3.88543e-05
3.00476e-05
-2.56024e-05
5.89466e-05
-1.46666e-05
8.49023e-05
1.37129e-05
2.07609e-08
-1.23166e-06
1.3706e-05
-5.05467e-07
-2.86809e-06
1.41328e-05
-1.14589e-06
-4.00586e-06
1.48451e-05
-1.54406e-06
-4.71906e-06
1.55397e-05
-1.57152e-06
-5.10351e-06
1.59527e-05
-1.30167e-06
-5.2892e-06
1.59417e-05
-8.88476e-07
-5.41296e-06
1.54667e-05
-4.61093e-07
-5.5962e-06
1.45192e-05
-7.49713e-08
-5.9335e-06
1.3156e-05
1.76756e-07
-6.49762e-06
1.13685e-05
3.30279e-07
-7.33342e-06
9.14291e-06
3.48171e-07
-8.45971e-06
6.44643e-06
1.96845e-07
-9.83653e-06
3.27436e-06
-1.64234e-07
-1.12134e-05
1.28534e-07
-9.63902e-07
-1.15503e-05
-2.22973e-06
-7.68287e-06
3.88362e-05
4.39177e-08
-1.35447e-06
3.87683e-05
-1.35336e-06
-4.54996e-06
3.92513e-05
-3.09994e-06
-7.402e-06
4.01552e-05
-4.27186e-06
-9.44686e-06
4.10712e-05
-4.47378e-06
-1.06326e-05
4.15604e-05
-3.81527e-06
-1.11617e-05
4.13255e-05
-2.6688e-06
-1.13396e-05
4.02292e-05
-1.3912e-06
-1.14717e-05
3.82154e-05
-1.74908e-07
-1.18111e-05
3.52792e-05
7.80743e-07
-1.25549e-05
3.13175e-05
1.55538e-06
-1.38259e-05
2.6162e-05
2.10026e-06
-1.56926e-05
1.95597e-05
2.37014e-06
-1.81022e-05
1.13475e-05
2.19878e-06
-2.05506e-05
2.37892e-06
8.98151e-07
-2.08534e-05
-2.44719e-06
-1.29076e-05
6.0535e-05
3.31434e-08
-8.86208e-07
5.99707e-05
-1.65936e-06
-3.96406e-06
5.94178e-05
-4.15605e-06
-7.48127e-06
5.90669e-05
-6.09071e-06
-1.05071e-05
5.88077e-05
-6.69734e-06
-1.25644e-05
5.83345e-05
-5.9347e-06
-1.3648e-05
5.73278e-05
-4.25431e-06
-1.40519e-05
5.55517e-05
-2.19262e-06
-1.41763e-05
5.28591e-05
-1.1371e-07
-1.43934e-05
4.90903e-05
1.73486e-06
-1.50033e-05
4.40329e-05
3.40605e-06
-1.62013e-05
3.73424e-05
4.89758e-06
-1.8105e-05
2.85204e-05
6.20223e-06
-2.06959e-05
1.70999e-05
7.05077e-06
-2.34422e-05
3.93951e-06
6.02539e-06
-2.37323e-05
1.46102e-07
-1.43668e-05
7.86442e-05
-2.86739e-08
-5.73216e-07
7.77363e-05
-1.45274e-06
-3.01914e-06
7.6092e-05
-3.99551e-06
-6.46407e-06
7.40698e-05
-6.24532e-06
-9.95977e-06
7.19436e-05
-7.19547e-06
-1.26947e-05
6.97616e-05
-6.57216e-06
-1.43492e-05
6.73845e-05
-4.72583e-06
-1.50756e-05
6.45903e-05
-2.22117e-06
-1.52844e-05
6.11697e-05
4.65298e-07
-1.54296e-05
5.68163e-05
3.0986e-06
-1.58763e-05
5.11885e-05
5.6892e-06
-1.68939e-05
4.37745e-05
8.31249e-06
-1.86363e-05
3.38451e-05
1.10524e-05
-2.11248e-05
2.05638e-05
1.364e-05
-2.38882e-05
4.47518e-06
1.38361e-05
-2.42217e-05
5.30011e-06
-1.45542e-05
9.31018e-05
-1.21251e-07
-4.4018e-07
9.21066e-05
-1.01481e-06
-2.35315e-06
8.98168e-05
-3.02421e-06
-5.48295e-06
8.64952e-05
-5.00366e-06
-9.09705e-06
8.26344e-05
-5.96012e-06
-1.22468e-05
7.86442e-05
-5.47628e-06
-1.43472e-05
7.46915e-05
-3.72648e-06
-1.53672e-05
7.06903e-05
-1.14181e-06
-1.56722e-05
6.64565e-05
1.78577e-06
-1.5756e-05
6.16065e-05
4.92549e-06
-1.60511e-05
5.56826e-05
8.27851e-06
-1.6869e-05
4.80267e-05
1.20268e-05
-1.83914e-05
3.77001e-05
1.64072e-05
-2.06721e-05
2.34115e-05
2.1368e-05
-2.33325e-05
5.02438e-06
2.40155e-05
-2.37291e-05
1.34714e-05
-1.41785e-05
0.000103895
-1.98478e-07
-3.90401e-07
0.000102921
-5.04449e-07
-1.97055e-06
0.000100371
-1.66254e-06
-4.79998e-06
9.62964e-05
-2.90757e-06
-8.37466e-06
9.12273e-05
-3.47858e-06
-1.1735e-05
8.58117e-05
-2.97044e-06
-1.41266e-05
8.05066e-05
-1.41178e-06
-1.53579e-05
7.54756e-05
9.39624e-07
-1.57236e-05
7.05427e-05
3.80592e-06
-1.57365e-05
6.5374e-05
7.11346e-06
-1.58694e-05
5.94459e-05
1.0967e-05
-1.64653e-05
5.20026e-05
1.56894e-05
-1.77225e-05
4.19549e-05
2.17307e-05
-1.97135e-05
2.74486e-05
2.96484e-05
-2.21777e-05
6.96109e-06
3.66293e-05
-2.26588e-05
2.64146e-05
-1.3355e-05
0.000111058
-2.36978e-07
-3.66717e-07
0.000110117
2.89439e-08
-1.75931e-06
0.000107508
-1.55513e-07
-4.37631e-06
0.000103097
-3.97407e-07
-7.8689e-06
9.73783e-05
-3.03419e-07
-1.1308e-05
9.10961e-05
4.14557e-07
-1.38485e-05
8.49682e-05
1.72839e-06
-1.51946e-05
7.92795e-05
3.69387e-06
-1.5575e-05
7.4005e-05
6.21455e-06
-1.54944e-05
6.88625e-05
9.369e-06
-1.54502e-05
6.33562e-05
1.33917e-05
-1.58003e-05
5.67339e-05
1.87791e-05
-1.67449e-05
4.7917e-05
2.62065e-05
-1.83549e-05
3.45406e-05
3.73563e-05
-2.05022e-05
1.28373e-05
5.10852e-05
-2.11234e-05
4.84139e-05
-1.21483e-05
0.000114606
-3.46414e-07
-2.20724e-07
0.000113709
-1.64093e-06
5.47084e-07
0.000111121
-4.13888e-06
1.37998e-06
0.00010663
-7.55896e-06
2.24403e-06
0.000100705
-1.09954e-05
3.11944e-06
9.41925e-05
-1.35766e-05
4.06344e-06
8.77971e-05
-1.49293e-05
5.17069e-06
8.19897e-05
-1.52639e-05
6.6188e-06
7.68431e-05
-1.5071e-05
8.57931e-06
7.21669e-05
-1.48439e-05
1.12914e-05
6.75902e-05
-1.49345e-05
1.50941e-05
6.25676e-05
-1.55287e-05
2.05902e-05
5.6323e-05
-1.66729e-05
2.86144e-05
4.6611e-05
-1.83095e-05
4.2196e-05
2.81898e-05
-1.92733e-05
6.31774e-05
-1.00322e-05
8.93224e-05
1.41539e-05
-2.10986e-10
-9.72965e-07
1.4092e-05
-5.57396e-07
-2.24878e-06
1.44567e-05
-1.23219e-06
-3.13835e-06
1.51037e-05
-1.66169e-06
-3.70434e-06
1.57218e-05
-1.70433e-06
-4.01728e-06
1.60346e-05
-1.42881e-06
-4.17323e-06
1.58915e-05
-9.94758e-07
-4.27506e-06
1.52508e-05
-5.40842e-07
-4.4147e-06
1.41069e-05
-1.26436e-07
-4.66317e-06
1.25258e-05
1.50097e-07
-5.0666e-06
1.05137e-05
3.31583e-07
-5.65286e-06
8.08244e-06
3.90207e-07
-6.4187e-06
5.25397e-06
3.03324e-07
-7.31139e-06
2.1427e-06
2.10516e-08
-8.12314e-06
-5.70163e-07
-7.23567e-07
-8.11388e-06
-2.03751e-06
-5.23103e-06
4.01258e-05
2.02939e-08
-1.05303e-06
3.99647e-05
-1.42972e-06
-3.51657e-06
4.03229e-05
-3.26465e-06
-5.72773e-06
4.10791e-05
-4.52992e-06
-7.3349e-06
4.1819e-05
-4.78888e-06
-8.28787e-06
4.20882e-05
-4.1297e-06
-8.73004e-06
4.15753e-05
-2.93285e-06
-8.88867e-06
4.01362e-05
-1.57796e-06
-8.99545e-06
3.77133e-05
-2.73429e-07
-9.24127e-06
3.43213e-05
7.6103e-07
-9.77382e-06
2.98773e-05
1.61827e-06
-1.06685e-05
2.4269e-05
2.2574e-06
-1.19515e-05
1.73664e-05
2.64507e-06
-1.35413e-05
9.25267e-06
2.59964e-06
-1.50155e-05
1.1252e-06
1.34512e-06
-1.47946e-05
-2.12577e-06
-8.87058e-06
6.25754e-05
7.68494e-09
-6.85312e-07
6.19299e-05
-1.71853e-06
-3.02974e-06
6.12319e-05
-4.31824e-06
-5.72972e-06
6.06746e-05
-6.39182e-06
-8.08777e-06
6.01526e-05
-7.10638e-06
-9.72496e-06
5.9361e-05
-6.37141e-06
-1.06147e-05
5.7976e-05
-4.63341e-06
-1.09663e-05
5.5758e-05
-2.45648e-06
-1.10798e-05
5.25526e-05
-2.24605e-07
-1.12368e-05
4.82187e-05
1.76076e-06
-1.16692e-05
4.25604e-05
3.58153e-06
-1.25063e-05
3.52938e-05
5.23033e-06
-1.38114e-05
2.60606e-05
6.70576e-06
-1.55234e-05
1.46923e-05
7.70824e-06
-1.71825e-05
2.46516e-06
6.71954e-06
-1.68796e-05
6.1297e-07
-9.86486e-06
8.13042e-05
-6.16699e-08
-4.4777e-07
8.0348e-05
-1.49031e-06
-2.29108e-06
7.85829e-05
-4.1104e-06
-4.90688e-06
7.63393e-05
-6.50018e-06
-7.60774e-06
7.38891e-05
-7.58332e-06
-9.76762e-06
7.12976e-05
-7.01686e-06
-1.11122e-05
6.84446e-05
-5.12539e-06
-1.17307e-05
6.51189e-05
-2.49137e-06
-1.19238e-05
6.11237e-05
3.78491e-07
-1.20375e-05
5.61448e-05
3.2078e-06
-1.23444e-05
4.9866e-05
6.01005e-06
-1.30435e-05
4.18253e-05
8.85978e-06
-1.42251e-05
3.14245e-05
1.18392e-05
-1.58575e-05
1.81313e-05
1.46309e-05
-1.75178e-05
2.96862e-06
1.48703e-05
-1.72098e-05
6.03969e-06
-9.9496e-06
9.62462e-05
-1.60472e-07
-3.49952e-07
9.5226e-05
-1.04064e-06
-1.78254e-06
9.28581e-05
-3.09008e-06
-4.13537e-06
8.93417e-05
-5.17597e-06
-6.90492e-06
8.51395e-05
-6.2516e-06
-9.37626e-06
8.06779e-05
-5.83026e-06
-1.10723e-05
7.6165e-05
-4.04785e-06
-1.19318e-05
7.15531e-05
-1.33976e-06
-1.22119e-05
6.6679e-05
1.78229e-06
-1.22858e-05
6.11652e-05
5.15168e-06
-1.24812e-05
5.45699e-05
8.7652e-06
-1.30288e-05
4.62758e-05
1.28061e-05
-1.40436e-05
3.54548e-05
1.75095e-05
-1.55213e-05
2.10989e-05
2.27603e-05
-1.71061e-05
3.57283e-06
2.54996e-05
-1.68322e-05
1.46348e-05
-9.64004e-06
0.000107397
-2.3786e-07
-3.14213e-07
0.000106405
-5.23357e-07
-1.49552e-06
0.000103812
-1.69142e-06
-3.60609e-06
9.95844e-05
-2.99635e-06
-6.32666e-06
9.41904e-05
-3.64359e-06
-8.9491e-06
8.82787e-05
-3.17369e-06
-1.08715e-05
8.23614e-05
-1.58413e-06
-1.19043e-05
7.66567e-05
8.84446e-07
-1.22431e-05
7.10356e-05
3.93632e-06
-1.22694e-05
6.51794e-05
7.48355e-06
-1.2345e-05
5.85792e-05
1.16263e-05
-1.27262e-05
5.05131e-05
1.66938e-05
-1.35441e-05
3.99796e-05
2.31428e-05
-1.48133e-05
2.53632e-05
3.14682e-05
-1.62691e-05
5.61915e-06
3.86514e-05
-1.60667e-05
2.81206e-05
-9.04314e-06
0.000114797
-2.7051e-07
-2.96944e-07
0.000113835
1.78887e-08
-1.3385e-06
0.000111205
-1.57067e-07
-3.28051e-06
0.000106678
-4.12577e-07
-5.92556e-06
0.000100665
-3.39697e-07
-8.59892e-06
9.38853e-05
3.9187e-07
-1.06345e-05
8.71258e-05
1.74341e-06
-1.17626e-05
8.07367e-05
3.81906e-06
-1.21205e-05
7.4752e-05
6.50869e-06
-1.2082e-05
6.89212e-05
9.8918e-06
-1.20276e-05
6.2766e-05
1.42088e-05
-1.22276e-05
5.55642e-05
1.99698e-05
-1.28191e-05
4.63098e-05
2.78649e-05
-1.38226e-05
3.28052e-05
3.95521e-05
-1.50815e-05
1.16974e-05
5.36528e-05
-1.50169e-05
5.07392e-05
-8.22801e-06
0.000118462
-2.8156e-07
-2.44127e-07
0.000117543
-1.24988e-06
5.45919e-07
0.000114946
-3.09827e-06
1.39988e-06
0.00011036
-5.68138e-06
2.2953e-06
0.000104161
-8.34735e-06
3.21198e-06
9.71789e-05
-1.04143e-05
4.21122e-06
9.01544e-05
-1.15481e-05
5.38676e-06
8.36494e-05
-1.18751e-05
6.93523e-06
7.78041e-05
-1.17556e-05
9.0385e-06
7.24686e-05
-1.15672e-05
1.19506e-05
6.72949e-05
-1.1579e-05
1.60271e-05
6.17645e-05
-1.19225e-05
2.18939e-05
5.51694e-05
-1.26088e-05
3.03959e-05
4.53523e-05
-1.35515e-05
4.46112e-05
2.74176e-05
-1.38014e-05
6.61155e-05
-6.77846e-06
9.23928e-05
1.44829e-05
-1.6675e-08
-6.72011e-07
1.43785e-05
-5.9804e-07
-1.54633e-06
1.4696e-05
-1.29967e-06
-2.15624e-06
1.52944e-05
-1.75447e-06
-2.54828e-06
1.58565e-05
-1.81044e-06
-2.76886e-06
1.60962e-05
-1.53195e-06
-2.88099e-06
1.58566e-05
-1.08244e-06
-2.95306e-06
1.50959e-05
-6.07538e-07
-3.04643e-06
1.38163e-05
-1.75871e-07
-3.20774e-06
1.20883e-05
1.26576e-07
-3.46515e-06
9.9373e-06
3.31252e-07
-3.83311e-06
7.39712e-06
4.239e-07
-4.30242e-06
4.52707e-06
3.88304e-07
-4.82964e-06
1.50674e-06
1.69622e-07
-5.27243e-06
-9.16654e-07
-5.25926e-07
-5.16456e-06
-1.88441e-06
-3.26526e-06
4.10913e-05
1.77222e-09
-7.19393e-07
4.08593e-05
-1.48781e-06
-2.39483e-06
4.11242e-05
-3.38981e-06
-3.90247e-06
4.17714e-05
-4.72818e-06
-5.00843e-06
4.23818e-05
-5.03439e-06
-5.67433e-06
4.24892e-05
-4.37826e-06
-5.9911e-06
4.17717e-05
-3.14476e-06
-6.10885e-06
4.00821e-05
-1.73039e-06
-6.18303e-06
3.7363e-05
-3.54927e-07
-6.3431e-06
3.36543e-05
7.41002e-07
-6.67953e-06
2.88937e-05
1.66535e-06
-7.24208e-06
2.30193e-05
2.382e-06
-8.03514e-06
1.59891e-05
2.86532e-06
-8.98816e-06
8.03017e-06
2.92138e-06
-9.80832e-06
4.81306e-07
1.71753e-06
-9.48916e-06
-1.84245e-06
-5.57098e-06
6.4104e-05
-1.25415e-08
-4.66365e-07
6.33972e-05
-1.76278e-06
-2.04793e-06
6.25922e-05
-4.43843e-06
-3.87614e-06
6.18836e-05
-6.61843e-06
-5.48891e-06
6.11688e-05
-7.41949e-06
-6.62511e-06
6.01425e-05
-6.71101e-06
-7.25558e-06
5.84777e-05
-4.93279e-06
-7.51349e-06
5.59349e-05
-2.66918e-06
-7.59824e-06
5.23527e-05
-3.10328e-07
-7.6992e-06
4.76208e-05
1.77443e-06
-7.9707e-06
4.15593e-05
3.71423e-06
-8.49362e-06
3.39406e-05
5.48765e-06
-9.2984e-06
2.45108e-05
7.09746e-06
-1.03257e-05
1.32772e-05
8.22294e-06
-1.12505e-05
1.67338e-06
7.2838e-06
-1.0842e-05
1.0059e-06
-6.20871e-06
8.32971e-05
-8.78034e-08
-3.0657e-07
8.23033e-05
-1.51851e-06
-1.54154e-06
8.04506e-05
-4.19335e-06
-3.29927e-06
7.80475e-05
-6.68807e-06
-5.13496e-06
7.53617e-05
-7.87549e-06
-6.62583e-06
7.24688e-05
-7.35808e-06
-7.57224e-06
6.92626e-05
-5.43708e-06
-8.02024e-06
6.55417e-05
-2.70613e-06
-8.16594e-06
6.11281e-05
3.05683e-07
-8.23985e-06
5.57026e-05
3.28576e-06
-8.43035e-06
4.89823e-05
6.25187e-06
-8.86082e-06
4.05529e-05
9.27456e-06
-9.58251e-06
2.99155e-05
1.24331e-05
-1.05558e-05
1.67199e-05
1.53772e-05
-1.14765e-05
2.17886e-06
1.56664e-05
-1.10514e-05
6.61725e-06
-6.24723e-06
9.86021e-05
-1.9115e-07
-2.42128e-07
9.75599e-05
-1.06043e-06
-1.19843e-06
9.51358e-05
-3.1361e-06
-2.76852e-06
9.14825e-05
-5.29996e-06
-4.63969e-06
8.70357e-05
-6.46748e-06
-6.33752e-06
8.22298e-05
-6.09833e-06
-7.52608e-06
7.7302e-05
-4.29617e-06
-8.14494e-06
7.22356e-05
-1.49521e-06
-8.35641e-06
6.68913e-05
1.77365e-06
-8.40939e-06
6.09016e-05
5.31899e-06
-8.52474e-06
5.38481e-05
9.1302e-06
-8.85361e-06
4.5155e-05
1.3388e-05
-9.46399e-06
3.40799e-05
1.83222e-05
-1.03352e-05
1.97834e-05
2.37745e-05
-1.12068e-05
2.82844e-06
2.65888e-05
-1.07996e-05
1.54847e-05
-6.03355e-06
0.000110021
-2.68321e-07
-2.18893e-07
0.00010901
-5.37834e-07
-1.00708e-06
0.000106386
-1.71013e-06
-2.40806e-06
0.000102054
-3.05755e-06
-4.23697e-06
9.64316e-05
-3.76269e-06
-6.03154e-06
9.01607e-05
-3.32421e-06
-7.37467e-06
8.37918e-05
-1.71556e-06
-8.1161e-06
7.75869e-05
8.3991e-07
-8.37328e-06
7.14573e-05
4.03193e-06
-8.39813e-06
6.51051e-05
7.76063e-06
-8.43449e-06
5.80431e-05
1.21189e-05
-8.6529e-06
4.95846e-05
1.74359e-05
-9.13355e-06
3.87977e-05
2.41661e-05
-9.87045e-06
2.42067e-05
3.27602e-05
-1.06639e-05
4.95247e-06
4.00822e-05
-1.03058e-05
2.93124e-05
-5.64579e-06
0.000117599
-2.96201e-07
-2.0753e-07
0.000116616
9.97371e-09
-9.03076e-07
0.000113969
-1.55581e-07
-2.18769e-06
0.000109365
-4.1946e-07
-3.95946e-06
0.000103149
-3.62378e-07
-5.7837e-06
9.60117e-05
3.82854e-07
-7.20414e-06
8.87892e-05
1.75642e-06
-8.01205e-06
8.18801e-05
3.91469e-06
-8.28612e-06
7.5369e-05
6.73166e-06
-8.27069e-06
6.90382e-05
1.02859e-05
-8.22219e-06
6.24329e-05
1.48185e-05
-8.3219e-06
5.48619e-05
2.08439e-05
-8.6561e-06
4.53773e-05
2.90533e-05
-9.22521e-06
3.18774e-05
4.10828e-05
-9.90416e-06
1.11661e-05
5.54215e-05
-9.64483e-06
5.23262e-05
-5.13346e-06
0.000121353
-1.97214e-07
-2.61759e-07
0.000120411
-8.44216e-07
5.46459e-07
0.000117804
-2.06456e-06
1.41726e-06
0.000113158
-3.79133e-06
2.33703e-06
0.00010677
-5.60744e-06
3.28546e-06
9.94566e-05
-7.04548e-06
4.32761e-06
9.19713e-05
-7.86105e-06
5.55457e-06