/*--------------------------------*- C++ -*----------------------------------*\
| =========                 |                                                 |
| \\      /  F ield         | foam-extend: Open Source CFD                    |
|  \\    /   O peration     | Version:     3.1                                |
|   \\  /    A nd           | Web:         http://www.extend-project.de       |
|    \\/     M anipulation  |                                                 |
\*---------------------------------------------------------------------------*/
FoamFile
{
    version     2.0;
    format      ascii;
    class       pointVectorField;
    location    "1.5";
    object      pointMotionU;
}
// * * * * * * * * * * * * * * * * * * * * * * * * * * * * * * * * * * * * * //

dimensions      [0 1 -1 0 0 0 0];

internalField   nonuniform List<vector> 
16859
(
(0 0 0)
(0 0 0)
(0 0 0)
(0 0 0)
(0 0 0)
(0 0 0)
(0 0 0)
(0 0 0)
(0 0 0)
(0 0 0)
(0 0 0)
(0 0 0)
(0 0 0)
(0 0 0)
(0 0 0)
(0 0 0)
(0 0 0)
(0 0 0)
(-4.09333e-10 -3.59884e-10 -5.59114e-11)
(-7.92222e-10 -7.03196e-10 -1.10174e-10)
(-1.14969e-09 -1.03611e-09 -1.6447e-10)
(-1.49551e-09 -1.37441e-09 -2.21683e-10)
(-1.84356e-09 -1.73252e-09 -2.84064e-10)
(-2.20901e-09 -2.12476e-09 -3.53083e-10)
(-2.60969e-09 -2.56675e-09 -4.28983e-10)
(-3.06764e-09 -3.07734e-09 -5.09853e-10)
(-3.61069e-09 -3.68139e-09 -5.89809e-10)
(-4.27329e-09 -4.4136e-09 -6.55685e-10)
(-5.09474e-09 -5.32335e-09 -6.81238e-10)
(-6.10954e-09 -6.47785e-09 -6.1787e-10)
(-7.31969e-09 -7.95334e-09 -3.83496e-10)
(-8.63483e-09 -9.77948e-09 1.33085e-10)
(-9.79164e-09 -1.17206e-08 9.61148e-10)
(-1.11842e-08 -1.58926e-08 6.27634e-09)
(0 0 0)
(-8.09516e-10 -7.04629e-10 -1.10675e-10)
(-1.56619e-09 -1.37643e-09 -2.18093e-10)
(-2.27159e-09 -2.02713e-09 -3.25618e-10)
(-2.95247e-09 -2.68709e-09 -4.39029e-10)
(-3.6355e-09 -3.38366e-09 -5.6293e-10)
(-4.34961e-09 -4.14333e-09 -7.00544e-10)
(-5.12859e-09 -4.9942e-09 -8.53023e-10)
(-6.01405e-09 -5.96904e-09 -1.01795e-09)
(-7.05863e-09 -7.10962e-09 -1.18649e-09)
(-8.32866e-09 -8.47272e-09 -1.33836e-09)
(-9.90368e-09 -1.01373e-08 -1.43345e-09)
(-1.18662e-08 -1.2209e-08 -1.39951e-09)
(-1.42665e-08 -1.4806e-08 -1.12056e-09)
(-1.7035e-08 -1.79736e-08 -4.55417e-10)
(-1.98177e-08 -2.13444e-08 5.85851e-10)
(-2.63296e-08 -3.33036e-08 6.28254e-09)
(0 0 0)
(-1.19269e-09 -1.0207e-09 -1.63275e-10)
(-2.30628e-09 -1.993e-09 -3.21751e-10)
(-3.34201e-09 -2.93308e-09 -4.80452e-10)
(-4.33809e-09 -3.88373e-09 -6.48048e-10)
(-5.33214e-09 -4.88261e-09 -8.31635e-10)
(-6.36439e-09 -5.96483e-09 -1.03661e-09)
(-7.48121e-09 -7.16568e-09 -1.266e-09)
(-8.73912e-09 -8.52365e-09 -1.5189e-09)
(-1.02094e-08 -1.00845e-08 -1.78767e-09)
(-1.19828e-08 -1.19063e-08 -2.05311e-09)
(-1.41729e-08 -1.40649e-08 -2.27706e-09)
(-1.6911e-08 -1.66553e-08 -2.39284e-09)
(-2.03198e-08 -1.97701e-08 -2.2989e-09)
(-2.44205e-08 -2.34008e-08 -1.88251e-09)
(-2.88899e-08 -2.70896e-08 -1.18812e-09)
(-4.18432e-08 -3.77741e-08 5.12991e-09)
(0 0 0)
(-1.55181e-09 -1.29601e-09 -2.12716e-10)
(-2.99863e-09 -2.52932e-09 -4.19176e-10)
(-4.34031e-09 -3.71918e-09 -6.25994e-10)
(-5.62449e-09 -4.9181e-09 -8.44652e-10)
(-6.89736e-09 -6.17084e-09 -1.08479e-09)
(-8.20738e-09 -7.51708e-09 -1.35433e-09)
(-9.60928e-09 -8.99349e-09 -1.65895e-09)
(-1.11686e-08 -1.06356e-08 -2.00097e-09)
(-1.29668e-08 -1.24797e-08 -2.37719e-09)
(-1.51073e-08 -1.45645e-08 -2.77553e-09)
(-1.77207e-08 -1.6931e-08 -3.17055e-09)
(-2.09646e-08 -1.96177e-08 -3.51888e-09)
(-2.50022e-08 -2.26356e-08 -3.75895e-09)
(-2.99059e-08 -2.58809e-08 -3.83069e-09)
(-3.53758e-08 -2.8882e-08 -3.7957e-09)
(-5.11557e-08 -3.603e-08 9.94065e-10)
(0 0 0)
(-1.88114e-09 -1.52069e-09 -2.58098e-10)
(-3.6322e-09 -2.9663e-09 -5.08568e-10)
(-5.25037e-09 -4.3578e-09 -7.59466e-10)
(-6.79053e-09 -5.75448e-09 -1.02489e-09)
(-8.30489e-09 -7.20515e-09 -1.31693e-09)
(-9.84695e-09 -8.75034e-09 -1.64608e-09)
(-1.14756e-08 -1.04233e-08 -2.021e-09)
(-1.32593e-08 -1.22501e-08 -2.44792e-09)
(-1.52815e-08 -1.4248e-08 -2.92933e-09)
(-1.76456e-08 -1.64223e-08 -3.46213e-09)
(-2.04804e-08 -1.87599e-08 -4.03572e-09)
(-2.39396e-08 -2.12183e-08 -4.63143e-09)
(-2.81804e-08 -2.3706e-08 -5.22679e-09)
(-3.32656e-08 -2.6045e-08 -5.8131e-09)
(-3.8894e-08 -2.78933e-08 -6.47852e-09)
(-5.38846e-08 -3.07316e-08 -4.66788e-09)
(0 0 0)
(-2.17646e-09 -1.68725e-09 -2.98652e-10)
(-4.19891e-09 -3.28968e-09 -5.88369e-10)
(-6.0608e-09 -4.82881e-09 -8.78428e-10)
(-7.82202e-09 -6.36797e-09 -1.1852e-09)
(-9.53837e-09 -7.95747e-09 -1.52297e-09)
(-1.12655e-08 -9.63608e-09 -1.9045e-09)
(-1.30628e-08 -1.14309e-08 -2.34122e-09)
(-1.49972e-08 -1.33555e-08 -2.84294e-09)
(-1.71473e-08 -1.54049e-08 -3.41716e-09)
(-1.96078e-08 -1.7548e-08 -4.06807e-09)
(-2.24928e-08 -1.97145e-08 -4.79538e-09)
(-2.59348e-08 -2.17782e-08 -5.59375e-09)
(-3.00659e-08 -2.35408e-08 -6.45431e-09)
(-3.4939e-08 -2.47464e-08 -7.37466e-09)
(-4.03187e-08 -2.52192e-08 -8.43508e-09)
(-5.36695e-08 -2.4247e-08 -8.47212e-09)
(0 0 0)
(-2.43495e-09 -1.79063e-09 -3.3378e-10)
(-4.69363e-09 -3.48999e-09 -6.57371e-10)
(-6.76482e-09 -5.11938e-09 -9.80971e-10)
(-8.71137e-09 -6.74378e-09 -1.32278e-09)
(-1.05905e-08 -8.41309e-09 -1.6988e-09)
(-1.24578e-08 -1.01631e-08 -2.12357e-09)
(-1.43704e-08 -1.20144e-08 -2.61061e-09)
(-1.63905e-08 -1.39687e-08 -3.17232e-09)
(-1.85884e-08 -1.60025e-08 -3.81966e-09)
(-2.10454e-08 -1.80558e-08 -4.56121e-09)
(-2.38558e-08 -2.00162e-08 -5.40152e-09)
(-2.7124e-08 -2.16965e-08 -6.3375e-09)
(-3.09473e-08 -2.2812e-08 -7.34984e-09)
(-3.53494e-08 -2.2995e-08 -8.38753e-09)
(-4.01084e-08 -2.20478e-08 -9.42137e-09)
(-5.53656e-08 -1.36084e-08 -8.40596e-09)
(0 0 0)
(-2.65492e-09 -1.82803e-09 -3.63072e-10)
(-5.1135e-09 -3.56223e-09 -7.14752e-10)
(-7.35921e-09 -5.22323e-09 -1.06581e-09)
(-9.45601e-09 -6.87564e-09 -1.43574e-09)
(-1.14609e-08 -8.5678e-09 -1.84167e-09)
(-1.34274e-08 -1.03323e-08 -2.29929e-09)
(-1.54091e-08 -1.21846e-08 -2.82329e-09)
(-1.74614e-08 -1.41186e-08 -3.42748e-09)
(-1.96449e-08 -1.60999e-08 -4.12457e-09)
(-2.20261e-08 -1.80552e-08 -4.92537e-09)
(-2.46787e-08 -1.98581e-08 -5.83719e-09)
(-2.76778e-08 -2.1313e-08 -6.86032e-09)
(-3.1081e-08 -2.21463e-08 -7.98089e-09)
(-3.48657e-08 -2.20444e-08 -9.16244e-09)
(-3.88306e-08 -2.09003e-08 -1.04248e-08)
(-4.07317e-08 -2.09804e-09 -5.22603e-09)
(0 0 0)
(0 0 0)
(0 0 0)
(0 0 0)
(0 0 0)
(0 0 0)
(0 0 0)
(0 0 0)
(0 0 0)
(0 0 0)
(0 0 0)
(0 0 0)
(0 0 0)
(0 0 0)
(0 0 0)
(0 0 0)
(0 0 0)
(0 0 0)
(-3.99767e-10 -3.74594e-10 -5.41794e-11)
(-7.72747e-10 -7.32421e-10 -1.06703e-10)
(-1.11914e-09 -1.08043e-09 -1.5916e-10)
(-1.45168e-09 -1.43557e-09 -2.14313e-10)
(-1.78307e-09 -1.81346e-09 -2.74308e-10)
(-2.12708e-09 -2.22963e-09 -3.40535e-10)
(-2.49981e-09 -2.70105e-09 -4.13195e-10)
(-2.92113e-09 -3.24813e-09 -4.90383e-10)
(-3.41612e-09 -3.89763e-09 -5.6628e-10)
(-4.01583e-09 -4.68658e-09 -6.27756e-10)
(-4.75513e-09 -5.66735e-09 -6.48235e-10)
(-5.66218e-09 -6.91085e-09 -5.77369e-10)
(-6.72748e-09 -8.49677e-09 -3.27311e-10)
(-7.83529e-09 -1.04496e-08 2.26011e-10)
(-8.66295e-09 -1.24553e-08 1.10461e-09)
(-7.73563e-09 -1.58466e-08 5.00146e-09)
(0 0 0)
(-7.90709e-10 -7.3336e-10 -1.07241e-10)
(-1.5279e-09 -1.43348e-09 -2.11208e-10)
(-2.21156e-09 -2.11359e-09 -3.15079e-10)
(-2.86634e-09 -2.8063e-09 -4.24383e-10)
(-3.51662e-09 -3.5412e-09 -5.43505e-10)
(-4.18855e-09 -4.34708e-09 -6.75489e-10)
(-4.91243e-09 -5.25449e-09 -8.21359e-10)
(-5.72533e-09 -6.29899e-09 -9.78644e-10)
(-6.67407e-09 -7.52557e-09 -1.13854e-09)
(-7.81747e-09 -8.99478e-09 -1.28073e-09)
(-9.22546e-09 -1.07902e-08 -1.36449e-09)
(-1.09678e-08 -1.30233e-08 -1.31491e-09)
(-1.30762e-08 -1.58188e-08 -1.00791e-09)
(-1.5443e-08 -1.92187e-08 -2.85235e-10)
(-1.75761e-08 -2.27392e-08 8.43623e-10)
(-1.96894e-08 -3.07436e-08 3.5384e-09)
(0 0 0)
(-1.16527e-09 -1.06216e-09 -1.58195e-10)
(-2.25045e-09 -2.07529e-09 -3.11564e-10)
(-3.25452e-09 -3.05765e-09 -4.64844e-10)
(-4.21262e-09 -4.05524e-09 -6.26322e-10)
(-5.15903e-09 -5.1088e-09 -8.02742e-10)
(-6.12987e-09 -6.25654e-09 -9.99183e-10)
(-7.16622e-09 -7.53695e-09 -1.21839e-09)
(-8.31757e-09 -8.99194e-09 -1.45922e-09)
(-9.64579e-09 -1.06708e-08 -1.71379e-09)
(-1.1229e-08 -1.26354e-08 -1.96247e-09)
(-1.31636e-08 -1.49655e-08 -2.16573e-09)
(-1.55591e-08 -1.77595e-08 -2.25276e-09)
(-1.85095e-08 -2.11132e-08 -2.11089e-09)
(-2.19885e-08 -2.50093e-08 -1.60245e-09)
(-2.54566e-08 -2.88674e-08 -7.3121e-10)
(-3.1988e-08 -3.57433e-08 1.30224e-09)
(0 0 0)
(-1.51664e-09 -1.34842e-09 -2.0608e-10)
(-2.9271e-09 -2.63326e-09 -4.05862e-10)
(-4.22828e-09 -3.87631e-09 -6.05573e-10)
(-5.464e-09 -5.13403e-09 -8.1617e-10)
(-6.67616e-09 -6.4549e-09 -1.0468e-09)
(-7.90796e-09 -7.88217e-09 -1.30487e-09)
(-9.2072e-09 -9.456e-09 -1.59556e-09)
(-1.06299e-08 -1.12153e-08 -1.92059e-09)
(-1.22446e-08 -1.31994e-08 -2.27596e-09)
(-1.41359e-08 -1.5449e-08 -2.6482e-09)
(-1.64082e-08 -1.80058e-08 -3.00876e-09)
(-1.91821e-08 -2.09065e-08 -3.30679e-09)
(-2.25709e-08 -2.41566e-08 -3.46269e-09)
(-2.65721e-08 -2.76359e-08 -3.37485e-09)
(-3.06142e-08 -3.07798e-08 -3.00245e-09)
(-3.86735e-08 -3.50594e-08 -2.222e-09)
(0 0 0)
(-1.83934e-09 -1.58188e-09 -2.50027e-10)
(-3.54722e-09 -3.08753e-09 -4.92366e-10)
(-5.11746e-09 -4.54082e-09 -7.34591e-10)
(-6.60048e-09 -6.0055e-09 -9.90133e-10)
(-8.0435e-09 -7.53446e-09 -1.27044e-09)
(-9.49388e-09 -9.17199e-09 -1.58528e-09)
(-1.10023e-08 -1.09548e-08 -1.94251e-09)
(-1.26261e-08 -1.29117e-08 -2.34728e-09)
(-1.44326e-08 -1.50616e-08 -2.80048e-09)
(-1.65018e-08 -1.74091e-08 -3.29615e-09)
(-1.89275e-08 -1.99372e-08 -3.81793e-09)
(-2.18116e-08 -2.25942e-08 -4.33454e-09)
(-2.52359e-08 -2.52751e-08 -4.79576e-09)
(-2.91494e-08 -2.77899e-08 -5.13248e-09)
(-3.29493e-08 -2.97746e-08 -5.27663e-09)
(-3.97527e-08 -3.19656e-08 -6.13658e-09)
(0 0 0)
(-2.12925e-09 -1.75477e-09 -2.89296e-10)
(-4.10306e-09 -3.42335e-09 -5.69581e-10)
(-5.91118e-09 -5.03035e-09 -8.49563e-10)
(-7.60865e-09 -6.64387e-09 -1.14482e-09)
(-9.24589e-09 -8.31843e-09 -1.46884e-09)
(-1.0872e-08 -1.00965e-08 -1.83346e-09)
(-1.25375e-08 -1.20084e-08 -2.24898e-09)
(-1.42974e-08 -1.40694e-08 -2.72363e-09)
(-1.62133e-08 -1.62746e-08 -3.26245e-09)
(-1.83545e-08 -1.8589e-08 -3.8652e-09)
(-2.07974e-08 -2.09325e-08 -4.52289e-09)
(-2.36177e-08 -2.31601e-08 -5.21192e-09)
(-2.68642e-08 -2.50461e-08 -5.88468e-09)
(-3.04702e-08 -2.63142e-08 -6.45878e-09)
(-3.39217e-08 -2.68331e-08 -6.82728e-09)
(-3.94997e-08 -2.83675e-08 -8.41384e-09)
(0 0 0)
(-2.38364e-09 -1.8619e-09 -3.23315e-10)
(-4.5896e-09 -3.631e-09 -6.36356e-10)
(-6.60286e-09 -5.33174e-09 -9.48679e-10)
(-8.48123e-09 -7.03399e-09 -1.27759e-09)
(-1.02766e-08 -8.79186e-09 -1.63815e-09)
(-1.20377e-08 -1.06447e-08 -2.04383e-09)
(-1.38134e-08 -1.26156e-08 -2.50673e-09)
(-1.56543e-08 -1.47074e-08 -3.0373e-09)
(-1.76146e-08 -1.6895e-08 -3.64334e-09)
(-1.97528e-08 -1.91115e-08 -4.32796e-09)
(-2.21298e-08 -2.12294e-08 -5.08511e-09)
(-2.48022e-08 -2.30315e-08 -5.88989e-09)
(-2.78e-08 -2.41814e-08 -6.67646e-09)
(-3.10515e-08 -2.4236e-08 -7.29417e-09)
(-3.40927e-08 -2.29961e-08 -7.49643e-09)
(-4.41461e-08 -1.97101e-08 -7.91696e-09)
(0 0 0)
(-2.60078e-09 -1.90042e-09 -3.51695e-10)
(-5.00394e-09 -3.70539e-09 -6.91911e-10)
(-7.18917e-09 -5.43865e-09 -1.03073e-09)
(-9.21548e-09 -7.16966e-09 -1.38666e-09)
(-1.11346e-08 -8.95082e-09 -1.77584e-09)
(-1.29941e-08 -1.0818e-08 -2.21274e-09)
(-1.48396e-08 -1.27888e-08 -2.71049e-09)
(-1.67168e-08 -1.48576e-08 -3.28077e-09)
(-1.86729e-08 -1.69872e-08 -3.93293e-09)
(-2.07568e-08 -1.9096e-08 -4.67217e-09)
(-2.30188e-08 -2.104e-08 -5.49568e-09)
(-2.55051e-08 -2.25897e-08 -6.38468e-09)
(-2.82413e-08 -2.34121e-08 -7.28859e-09)
(-3.1176e-08 -2.31028e-08 -8.10267e-09)
(-3.40413e-08 -2.15016e-08 -8.72836e-09)
(-3.31303e-08 -8.15709e-09 -5.2901e-09)
(0 0 0)
(0 0 0)
(0 0 0)
(0 0 0)
(0 0 0)
(0 0 0)
(0 0 0)
(0 0 0)
(0 0 0)
(0 0 0)
(0 0 0)
(0 0 0)
(0 0 0)
(0 0 0)
(0 0 0)
(0 0 0)
(0 0 0)
(0 0 0)
(-3.88894e-10 -3.88539e-10 -5.05205e-11)
(-7.50561e-10 -7.60168e-10 -9.94661e-11)
(-1.08414e-09 -1.12256e-09 -1.48303e-10)
(-1.40092e-09 -1.49377e-09 -1.99607e-10)
(-1.71193e-09 -1.89045e-09 -2.55415e-10)
(-2.02884e-09 -2.32912e-09 -3.1712e-10)
(-2.36492e-09 -2.82768e-09 -3.85147e-10)
(-2.73625e-09 -3.40726e-09 -4.58235e-10)
(-3.16268e-09 -4.09461e-09 -5.32051e-10)
(-3.66814e-09 -4.9252e-09 -5.96648e-10)
(-4.27773e-09 -5.94596e-09 -6.32104e-10)
(-5.00632e-09 -7.21351e-09 -6.01982e-10)
(-5.8272e-09 -8.77374e-09 -4.47261e-10)
(-6.60968e-09 -1.05836e-08 -9.74228e-11)
(-7.06864e-09 -1.22763e-08 4.30751e-10)
(-5.71701e-09 -1.41206e-08 2.72461e-09)
(0 0 0)
(-7.69359e-10 -7.6061e-10 -9.99904e-11)
(-1.48435e-09 -1.48769e-09 -1.96864e-10)
(-2.14287e-09 -2.19587e-09 -2.93547e-10)
(-2.76677e-09 -2.91989e-09 -3.95188e-10)
(-3.37713e-09 -3.69134e-09 -5.05925e-10)
(-3.99595e-09 -4.54095e-09 -6.28757e-10)
(-4.64789e-09 -5.50109e-09 -7.65031e-10)
(-5.36228e-09 -6.60867e-09 -9.13316e-10)
(-6.17509e-09 -7.90889e-09 -1.06726e-09)
(-7.12982e-09 -9.45972e-09 -1.2118e-09)
(-8.2747e-09 -1.13356e-08 -1.31716e-09)
(-9.64889e-09 -1.36239e-08 -1.331e-09)
(-1.12431e-08 -1.63934e-08 -1.17539e-09)
(-1.29109e-08 -1.95755e-08 -7.75781e-10)
(-1.4229e-08 -2.25964e-08 -1.98704e-10)
(-1.49981e-08 -2.88606e-08 7.43658e-10)
(0 0 0)
(-1.13419e-09 -1.10152e-09 -1.47483e-10)
(-2.18708e-09 -2.15354e-09 -2.90363e-10)
(-3.15464e-09 -3.17634e-09 -4.32993e-10)
(-4.06796e-09 -4.21895e-09 -5.83068e-10)
(-4.95656e-09 -5.32495e-09 -7.4691e-10)
(-5.85047e-09 -6.53531e-09 -9.29411e-10)
(-6.78244e-09 -7.89109e-09 -1.13354e-09)
(-7.79024e-09 -9.43621e-09 -1.35921e-09)
(-8.91884e-09 -1.12206e-08 -1.60109e-09)
(-1.02216e-08 -1.33033e-08 -1.84514e-09)
(-1.1758e-08 -1.57537e-08 -2.06343e-09)
(-1.35832e-08 -1.86432e-08 -2.2088e-09)
(-1.57157e-08 -2.2006e-08 -2.21667e-09)
(-1.80529e-08 -2.57064e-08 -2.03751e-09)
(-2.01575e-08 -2.90707e-08 -1.74209e-09)
(-2.41219e-08 -3.45164e-08 -1.54297e-09)
(0 0 0)
(-1.47688e-09 -1.3982e-09 -1.92099e-10)
(-2.84608e-09 -2.73216e-09 -3.7818e-10)
(-4.10075e-09 -4.02621e-09 -5.63946e-10)
(-5.27958e-09 -5.34056e-09 -7.59544e-10)
(-6.41849e-09 -6.72723e-09 -9.73484e-10)
(-7.55293e-09 -8.23284e-09 -1.21275e-09)
(-8.72004e-09 -9.90076e-09 -1.48244e-09)
(-9.9606e-09 -1.17725e-08 -1.78491e-09)
(-1.13203e-08 -1.38886e-08 -2.11801e-09)
(-1.28497e-08 -1.62876e-08 -2.4725e-09)
(-1.45994e-08 -1.90025e-08 -2.82858e-09)
(-1.66078e-08 -2.20466e-08 -3.15325e-09)
(-1.88674e-08 -2.53742e-08 -3.4033e-09)
(-2.1246e-08 -2.87709e-08 -3.54659e-09)
(-2.3302e-08 -3.15983e-08 -3.60645e-09)
(-2.66255e-08 -3.50293e-08 -3.97721e-09)
(0 0 0)
(-1.79219e-09 -1.64002e-09 -2.33032e-10)
(-3.45127e-09 -3.203e-09 -4.58704e-10)
(-4.96668e-09 -4.71567e-09 -6.83932e-10)
(-6.38295e-09 -6.2461e-09 -9.21113e-10)
(-7.74043e-09 -7.85123e-09 -1.18082e-09)
(-9.07754e-09 -9.57918e-09 -1.47209e-09)
(-1.04327e-08 -1.14703e-08 -1.80228e-09)
(-1.18454e-08 -1.35563e-08 -2.17644e-09)
(-1.33561e-08 -1.58581e-08 -2.59601e-09)
(-1.50033e-08 -1.83797e-08 -3.05681e-09)
(-1.68149e-08 -2.10984e-08 -3.54637e-09)
(-1.87866e-08 -2.39485e-08 -4.04162e-09)
(-2.08383e-08 -2.67974e-08 -4.51029e-09)
(-2.2732e-08 -2.94101e-08 -4.92241e-09)
(-2.39956e-08 -3.13834e-08 -5.2595e-09)
(-2.33419e-08 -3.34675e-08 -6.07167e-09)
(0 0 0)
(-2.07617e-09 -1.81898e-09 -2.69599e-10)
(-3.99519e-09 -3.5508e-09 -5.30561e-10)
(-5.74209e-09 -5.22316e-09 -7.90809e-10)
(-7.36552e-09 -6.90886e-09 -1.06469e-09)
(-8.90855e-09 -8.66677e-09 -1.36455e-09)
(-1.04108e-08 -1.05435e-08 -1.70122e-09)
(-1.19098e-08 -1.2573e-08 -2.084e-09)
(-1.34418e-08 -1.4774e-08 -2.52019e-09)
(-1.50404e-08 -1.71439e-08 -3.01393e-09)
(-1.67316e-08 -1.96483e-08 -3.56406e-09)
(-1.85223e-08 -2.22051e-08 -4.16036e-09)
(-2.03763e-08 -2.46649e-08 -4.77797e-09)
(-2.2169e-08 -2.6801e-08 -5.37099e-09)
(-2.3627e-08 -2.83533e-08 -5.87463e-09)
(-2.4355e-08 -2.92115e-08 -6.23373e-09)
(-2.03291e-08 -3.14449e-08 -6.95374e-09)
(0 0 0)
(-2.32614e-09 -1.92972e-09 -3.01278e-10)
(-4.47296e-09 -3.76556e-09 -5.92698e-10)
(-6.42059e-09 -5.53514e-09 -8.82931e-10)
(-8.2203e-09 -7.31323e-09 -1.18787e-09)
(-9.91648e-09 -9.1584e-09 -1.52125e-09)
(-1.15487e-08 -1.11141e-08 -1.89524e-09)
(-1.3153e-08 -1.32073e-08 -2.32053e-09)
(-1.47622e-08 -1.54442e-08 -2.80591e-09)
(-1.64044e-08 -1.78019e-08 -3.35708e-09)
(-1.80988e-08 -2.02147e-08 -3.97398e-09)
(-1.98451e-08 -2.25545e-08 -4.64546e-09)
(-2.16046e-08 -2.46044e-08 -5.3386e-09)
(-2.32636e-08 -2.60404e-08 -5.97899e-09)
(-2.45863e-08 -2.6476e-08 -6.42549e-09)
(-2.52317e-08 -2.58066e-08 -6.51041e-09)
(-2.69521e-08 -2.39254e-08 -6.09183e-09)
(0 0 0)
(-2.54033e-09 -1.96935e-09 -3.27712e-10)
(-4.88157e-09 -3.8421e-09 -6.44408e-10)
(-6.99867e-09 -5.64519e-09 -9.59207e-10)
(-8.94421e-09 -7.45295e-09 -1.28909e-09)
(-1.07628e-08 -9.32221e-09 -1.64872e-09)
(-1.24934e-08 -1.12929e-08 -2.05106e-09)
(-1.41701e-08 -1.33863e-08 -2.50755e-09)
(-1.58231e-08 -1.55997e-08 -3.02776e-09)
(-1.74779e-08 -1.78981e-08 -3.61815e-09)
(-1.91524e-08 -2.02005e-08 -4.27959e-09)
(-2.08519e-08 -2.23614e-08 -5.00223e-09)
(-2.25591e-08 -2.41491e-08 -5.75615e-09)
(-2.42181e-08 -2.52354e-08 -6.47648e-09)
(-2.57176e-08 -2.52481e-08 -7.05379e-09)
(-2.69519e-08 -2.40868e-08 -7.42558e-09)
(-2.10554e-08 -1.19878e-08 -3.5978e-09)
(0 0 0)
(0 0 0)
(0 0 0)
(0 0 0)
(0 0 0)
(0 0 0)
(0 0 0)
(0 0 0)
(0 0 0)
(0 0 0)
(0 0 0)
(0 0 0)
(0 0 0)
(0 0 0)
(0 0 0)
(0 0 0)
(0 0 0)
(0 0 0)
(-3.77532e-10 -4.01309e-10 -4.50928e-11)
(-7.27323e-10 -7.85606e-10 -8.87687e-11)
(-1.04731e-09 -1.16124e-09 -1.32339e-10)
(-1.34713e-09 -1.54725e-09 -1.78132e-10)
(-1.63588e-09 -1.9612e-09 -2.28048e-10)
(-1.92275e-09 -2.42044e-09 -2.83525e-10)
(-2.21772e-09 -2.9435e-09 -3.45367e-10)
(-2.53247e-09 -3.55159e-09 -4.13348e-10)
(-2.8811e-09 -4.27043e-09 -4.85462e-10)
(-3.28035e-09 -5.13195e-09 -5.56627e-10)
(-3.74725e-09 -6.17462e-09 -6.16631e-10)
(-4.28981e-09 -7.43761e-09 -6.47481e-10)
(-4.88205e-09 -8.93626e-09 -6.2179e-10)
(-5.41685e-09 -1.05896e-08 -5.09187e-10)
(-5.68214e-09 -1.20419e-08 -3.14697e-10)
(-4.3252e-09 -1.31435e-08 7.72847e-10)
(0 0 0)
(-7.47066e-10 -7.85573e-10 -8.92394e-11)
(-1.43877e-09 -1.5374e-09 -1.75671e-10)
(-2.07066e-09 -2.27144e-09 -2.61904e-10)
(-2.66136e-09 -3.02437e-09 -3.52583e-10)
(-3.22819e-09 -3.82957e-09 -4.5154e-10)
(-3.78823e-09 -4.71941e-09 -5.61787e-10)
(-4.35957e-09 -5.72759e-09 -6.85267e-10)
(-4.96262e-09 -6.89149e-09 -8.22264e-10)
(-5.62129e-09 -8.25486e-09 -9.70334e-10)
(-6.36323e-09 -9.86999e-09 -1.12255e-09)
(-7.21705e-09 -1.17973e-08 -1.26514e-09)
(-8.20138e-09 -1.40952e-08 -1.37542e-09)
(-9.29637e-09 -1.67827e-08 -1.42388e-09)
(-1.03871e-08 -1.97331e-08 -1.39008e-09)
(-1.11968e-08 -2.24018e-08 -1.30134e-09)
(-1.13847e-08 -2.80826e-08 -1.34303e-09)
(0 0 0)
(-1.10177e-09 -1.13759e-09 -1.31607e-10)
(-2.12084e-09 -2.22535e-09 -2.59058e-10)
(-3.04979e-09 -3.28547e-09 -3.86222e-10)
(-3.91509e-09 -4.36978e-09 -5.20014e-10)
(-4.74078e-09 -5.52447e-09 -6.66228e-10)
(-5.54976e-09 -6.793e-09 -8.29621e-10)
(-6.36508e-09 -8.21853e-09 -1.01371e-09)
(-7.21105e-09 -9.84625e-09 -1.22024e-09)
(-8.11373e-09 -1.17252e-08 -1.44825e-09)
(-9.10013e-09 -1.39089e-08 -1.69273e-09)
(-1.01943e-08 -1.64519e-08 -1.9433e-09)
(-1.14077e-08 -1.93943e-08 -2.18448e-09)
(-1.27197e-08 -2.27157e-08 -2.40114e-09)
(-1.40466e-08 -2.6219e-08 -2.59313e-09)
(-1.51761e-08 -2.92625e-08 -2.77677e-09)
(-1.78249e-08 -3.42096e-08 -3.44322e-09)
(0 0 0)
(-1.43548e-09 -1.44385e-09 -1.7139e-10)
(-2.76156e-09 -2.82303e-09 -3.37334e-10)
(-3.96714e-09 -4.16424e-09 -5.0288e-10)
(-5.08513e-09 -5.53125e-09 -6.77101e-10)
(-6.14456e-09 -6.97943e-09 -8.67714e-10)
(-7.17187e-09 -8.55866e-09 -1.08129e-09)
(-8.19183e-09 -1.03153e-08 -1.32317e-09)
(-9.22767e-09 -1.22934e-08 -1.59714e-09)
(-1.02998e-08 -1.4534e-08 -1.90474e-09)
(-1.14217e-08 -1.70729e-08 -2.24453e-09)
(-1.25908e-08 -1.99325e-08 -2.61184e-09)
(-1.37724e-08 -2.31018e-08 -3.00024e-09)
(-1.48777e-08 -2.64909e-08 -3.4067e-09)
(-1.57549e-08 -2.98305e-08 -3.83582e-09)
(-1.62507e-08 -3.24876e-08 -4.2605e-09)
(-1.6991e-08 -3.55679e-08 -5.24663e-09)
(0 0 0)
(-1.7432e-09 -1.69339e-09 -2.07874e-10)
(-3.35137e-09 -3.3092e-09 -4.0907e-10)
(-4.80909e-09 -4.87691e-09 -6.09683e-10)
(-6.15422e-09 -6.46875e-09 -8.20748e-10)
(-7.41919e-09 -8.14562e-09 -1.05175e-09)
(-8.63214e-09 -9.95956e-09 -1.31095e-09)
(-9.81722e-09 -1.19548e-08 -1.60546e-09)
(-1.09936e-08 -1.41669e-08 -1.94098e-09)
(-1.21718e-08 -1.66198e-08 -2.32126e-09)
(-1.33457e-08 -1.93189e-08 -2.74741e-09)
(-1.44759e-08 -2.22391e-08 -3.2174e-09)
(-1.54608e-08 -2.53058e-08 -3.72654e-09)
(-1.60975e-08 -2.83663e-08 -4.26983e-09)
(-1.60763e-08 -3.11513e-08 -4.84074e-09)
(-1.52311e-08 -3.32183e-08 -5.38371e-09)
(-1.03813e-08 -3.5235e-08 -6.51601e-09)
(0 0 0)
(-2.02115e-09 -1.87797e-09 -2.40454e-10)
(-3.88317e-09 -3.66813e-09 -4.73055e-10)
(-5.56585e-09 -5.40123e-09 -7.04755e-10)
(-7.11066e-09 -7.15462e-09 -9.48265e-10)
(-8.55221e-09 -8.99156e-09 -1.21456e-09)
(-9.91918e-09 -1.09631e-08 -1.51332e-09)
(-1.12342e-08 -1.31078e-08 -1.85304e-09)
(-1.25123e-08 -1.54496e-08 -2.24074e-09)
(-1.37555e-08 -1.79909e-08 -2.68127e-09)
(-1.49433e-08 -2.07035e-08 -3.17587e-09)
(-1.6012e-08 -2.35121e-08 -3.71979e-09)
(-1.68214e-08 -2.62769e-08 -4.29861e-09)
(-1.71108e-08 -2.87831e-08 -4.88373e-09)
(-1.65104e-08 -3.07757e-08 -5.43001e-09)
(-1.49156e-08 -3.20735e-08 -5.87172e-09)
(-5.67717e-09 -3.4857e-08 -6.84137e-09)
(0 0 0)
(-2.26668e-09 -1.99208e-09 -2.68675e-10)
(-4.35216e-09 -3.88955e-09 -5.28372e-10)
(-6.23119e-09 -5.72323e-09 -7.86669e-10)
(-7.94769e-09 -7.57269e-09 -1.0576e-09)
(-9.53756e-09 -9.5011e-09 -1.35327e-09)
(-1.10296e-08 -1.15566e-08 -1.68438e-09)
(-1.24453e-08 -1.37714e-08 -2.06028e-09)
(-1.37971e-08 -1.61573e-08 -2.48866e-09)
(-1.50843e-08 -1.86983e-08 -2.97445e-09)
(-1.62833e-08 -2.13378e-08 -3.51745e-09)
(-1.73322e-08 -2.39605e-08 -4.10763e-09)
(-1.81042e-08 -2.63715e-08 -4.71586e-09)
(-1.8377e-08 -2.82836e-08 -5.27768e-09)
(-1.78508e-08 -2.93558e-08 -5.67353e-09)
(-1.64672e-08 -2.94288e-08 -5.76135e-09)
(-1.41489e-08 -2.90904e-08 -5.75692e-09)
(0 0 0)
(-2.47798e-09 -2.03276e-09 -2.92226e-10)
(-4.75521e-09 -3.96816e-09 -5.74408e-10)
(-6.80137e-09 -5.83635e-09 -8.54492e-10)
(-8.66183e-09 -7.71652e-09 -1.14743e-09)
(-1.03731e-08 -9.67015e-09 -1.46607e-09)
(-1.19641e-08 -1.17419e-08 -1.82166e-09)
(-1.34558e-08 -1.39582e-08 -2.22394e-09)
(-1.48608e-08 -1.63224e-08 -2.68075e-09)
(-1.618e-08 -1.88065e-08 -3.19673e-09)
(-1.73979e-08 -2.13388e-08 -3.77072e-09)
(-1.84741e-08 -2.37873e-08 -4.39061e-09)
(-1.93339e-08 -2.59413e-08 -5.02409e-09)
(-1.98653e-08 -2.75036e-08 -5.60466e-09)
(-1.99647e-08 -2.81317e-08 -6.0225e-09)
(-1.97882e-08 -2.766e-08 -6.19608e-09)
(-1.30045e-08 -1.78165e-08 -2.27929e-09)
(0 0 0)
(0 0 0)
(0 0 0)
(0 0 0)
(0 0 0)
(0 0 0)
(0 0 0)
(0 0 0)
(0 0 0)
(0 0 0)
(0 0 0)
(0 0 0)
(0 0 0)
(0 0 0)
(0 0 0)
(0 0 0)
(0 0 0)
(0 0 0)
(-3.66582e-10 -4.1248e-10 -3.81009e-11)
(-7.04889e-10 -8.07875e-10 -7.50052e-11)
(-1.01164e-09 -1.19514e-09 -1.11834e-10)
(-1.29483e-09 -1.59418e-09 -1.50596e-10)
(-1.56162e-09 -2.02334e-09 -1.92998e-10)
(-1.81874e-09 -2.50065e-09 -2.40479e-10)
(-2.07305e-09 -3.04507e-09 -2.94193e-10)
(-2.33232e-09 -3.67767e-09 -3.54927e-10)
(-2.60619e-09 -4.42285e-09 -4.22958e-10)
(-2.90718e-09 -5.30887e-09 -4.97828e-10)
(-3.25066e-09 -6.3665e-09 -5.78067e-10)
(-3.65055e-09 -7.6215e-09 -6.60814e-10)
(-4.10318e-09 -9.07107e-09 -7.41121e-10)
(-4.54901e-09 -1.06223e-08 -8.10071e-10)
(-4.82983e-09 -1.19461e-08 -8.50672e-10)
(-4.04987e-09 -1.27533e-08 -5.97709e-10)
(0 0 0)
(-7.25589e-10 -8.07413e-10 -7.53943e-11)
(-1.39478e-09 -1.58094e-09 -1.48413e-10)
(-2.00076e-09 -2.33771e-09 -2.21283e-10)
(-2.55894e-09 -3.11613e-09 -2.97997e-10)
(-3.08283e-09 -3.95114e-09 -3.81971e-10)
(-3.58469e-09 -4.87652e-09 -4.76144e-10)
(-4.07635e-09 -5.92698e-09 -5.82995e-10)
(-4.57023e-09 -7.14004e-09 -7.04491e-10)
(-5.08058e-09 -8.55758e-09 -8.42016e-10)
(-5.62482e-09 -1.02261e-08 -9.96384e-10)
(-6.22415e-09 -1.21934e-08 -1.16819e-09)
(-6.90089e-09 -1.44955e-08 -1.35877e-09)
(-7.66588e-09 -1.71205e-08 -1.57158e-09)
(-8.48227e-09 -1.99224e-08 -1.80991e-09)
(-9.18354e-09 -2.24027e-08 -2.04941e-09)
(-9.79349e-09 -2.78309e-08 -2.74163e-09)
(0 0 0)
(-1.07057e-09 -1.16916e-09 -1.11171e-10)
(-2.05697e-09 -2.28828e-09 -2.18818e-10)
(-2.9484e-09 -3.38127e-09 -3.26229e-10)
(-3.7667e-09 -4.50246e-09 -4.39323e-10)
(-4.53041e-09 -5.70039e-09 -5.63207e-10)
(-5.25541e-09 -7.02072e-09 -7.02375e-10)
(-5.9555e-09 -8.50849e-09 -8.60814e-10)
(-6.6428e-09 -1.02099e-08 -1.04209e-09)
(-7.32782e-09 -1.21729e-08 -1.24953e-09)
(-8.01907e-09 -1.44459e-08 -1.48684e-09)
(-8.72213e-09 -1.70704e-08 -1.75957e-09)
(-9.43885e-09 -2.00621e-08 -2.07795e-09)
(-1.01695e-08 -2.33653e-08 -2.45966e-09)
(-1.09192e-08 -2.67559e-08 -2.92186e-09)
(-1.16571e-08 -2.96317e-08 -3.41594e-09)
(-1.44382e-08 -3.43061e-08 -4.65165e-09)
(0 0 0)
(-1.39568e-09 -1.48384e-09 -1.44749e-10)
(-2.68016e-09 -2.90273e-09 -2.84868e-10)
(-3.83812e-09 -4.28557e-09 -4.24624e-10)
(-4.89665e-09 -5.69933e-09 -5.71747e-10)
(-5.8779e-09 -7.20247e-09 -7.3295e-10)
(-6.79943e-09 -8.84793e-09 -9.1424e-10)
(-7.67418e-09 -1.06851e-08 -1.12112e-09)
(-8.5094e-09 -1.27603e-08 -1.35882e-09)
(-9.30417e-09 -1.51161e-08 -1.63267e-09)
(-1.00446e-08 -1.77865e-08 -1.9491e-09)
(-1.06957e-08 -2.0786e-08 -2.31779e-09)
(-1.11926e-08 -2.4086e-08 -2.75518e-09)
(-1.14422e-08 -2.75661e-08 -3.28649e-09)
(-1.13713e-08 -3.09221e-08 -3.92971e-09)
(-1.10787e-08 -3.35198e-08 -4.60235e-09)
(-1.12621e-08 -3.63449e-08 -6.07083e-09)
(0 0 0)
(-1.69617e-09 -1.74019e-09 -1.75527e-10)
(-3.25533e-09 -3.40245e-09 -3.45362e-10)
(-4.65717e-09 -5.01885e-09 -5.14628e-10)
(-5.9329e-09 -6.66544e-09 -6.92677e-10)
(-7.10706e-09 -8.40682e-09 -8.87656e-10)
(-8.19761e-09 -1.02989e-08 -1.1069e-09)
(-9.21507e-09 -1.23901e-08 -1.3572e-09)
(-1.016e-08 -1.47205e-08 -1.64501e-09)
(-1.10174e-08 -1.73184e-08 -1.97675e-09)
(-1.17472e-08 -2.01931e-08 -2.35955e-09)
(-1.22662e-08 -2.33219e-08 -2.80275e-09)
(-1.24243e-08 -2.66277e-08 -3.32021e-09)
(-1.19875e-08 -2.99451e-08 -3.93101e-09)
(-1.06999e-08 -3.29724e-08 -4.64368e-09)
(-8.68546e-09 -3.5205e-08 -5.36719e-09)
(-2.31092e-09 -3.72004e-08 -6.91418e-09)
(0 0 0)
(-1.96841e-09 -1.92974e-09 -2.03001e-10)
(-3.77565e-09 -3.77127e-09 -3.99289e-10)
(-5.39628e-09 -5.55821e-09 -5.94681e-10)
(-6.86456e-09 -7.37217e-09 -7.99895e-10)
(-8.20669e-09 -9.28063e-09 -1.02426e-09)
(-9.44059e-09 -1.13392e-08 -1.27613e-09)
(-1.05746e-08 -1.35917e-08 -1.56316e-09)
(-1.16039e-08 -1.60682e-08 -1.89234e-09)
(-1.25042e-08 -1.87792e-08 -2.26986e-09)
(-1.32188e-08 -2.17065e-08 -2.70087e-09)
(-1.36376e-08 -2.47886e-08 -3.18881e-09)
(-1.3567e-08 -2.79033e-08 -3.73409e-09)
(-1.2708e-08 -3.08535e-08 -4.331e-09)
(-1.07353e-08 -3.33784e-08 -4.95885e-09)
(-7.83921e-09 -3.5189e-08 -5.5435e-09)
(3.52206e-09 -3.86453e-08 -6.98255e-09)
(0 0 0)
(-2.2098e-09 -2.04684e-09 -2.26793e-10)
(-4.23645e-09 -3.99864e-09 -4.45894e-10)
(-6.04934e-09 -5.88926e-09 -6.63616e-10)
(-7.68504e-09 -7.80276e-09 -8.91742e-10)
(-9.17099e-09 -9.80688e-09 -1.14046e-09)
(-1.05253e-08 -1.19548e-08 -1.41882e-09)
(-1.17556e-08 -1.42845e-08 -1.73486e-09)
(-1.28556e-08 -1.68156e-08 -2.09547e-09)
(-1.37996e-08 -1.9542e-08 -2.50573e-09)
(-1.45318e-08 -2.24219e-08 -2.9673e-09)
(-1.49504e-08 -2.5362e-08 -3.47528e-09)
(-1.48876e-08 -2.82003e-08 -4.0116e-09)
(-1.41034e-08 -3.06952e-08 -4.5331e-09)
(-1.23724e-08 -3.25431e-08 -4.95502e-09)
(-9.94347e-09 -3.34915e-08 -5.16154e-09)
(-6.32624e-09 -3.51777e-08 -5.81438e-09)
(0 0 0)
(-2.41846e-09 -2.08847e-09 -2.46645e-10)
(-4.63444e-09 -4.07915e-09 -4.84675e-10)
(-6.61236e-09 -6.00525e-09 -7.20681e-10)
(-8.39042e-09 -7.95055e-09 -9.67179e-10)
(-9.99707e-09 -9.98116e-09 -1.23489e-09)
(-1.14512e-08 -1.21469e-08 -1.53318e-09)
(-1.27612e-08 -1.44804e-08 -1.87013e-09)
(-1.39233e-08 -1.69928e-08 -2.2522e-09)
(-1.49176e-08 -1.96671e-08 -2.68318e-09)
(-1.5703e-08 -2.24472e-08 -3.16201e-09)
(-1.62117e-08 -2.5224e-08 -3.67849e-09)
(-1.63477e-08 -2.78204e-08 -4.20546e-09)
(-1.60111e-08 -2.99816e-08 -4.68661e-09)
(-1.52024e-08 -3.13929e-08 -5.02572e-09)
(-1.4362e-08 -3.18017e-08 -5.12837e-09)
(-9.31339e-09 -2.53454e-08 -1.8053e-09)
(0 0 0)
(0 0 0)
(0 0 0)
(0 0 0)
(0 0 0)
(0 0 0)
(0 0 0)
(0 0 0)
(0 0 0)
(0 0 0)
(0 0 0)
(0 0 0)
(0 0 0)
(0 0 0)
(0 0 0)
(0 0 0)
(0 0 0)
(0 0 0)
(-3.56939e-10 -4.21652e-10 -2.9792e-11)
(-6.8511e-10 -8.26172e-10 -5.86537e-11)
(-9.80138e-10 -1.22302e-09 -8.74764e-11)
(-1.24855e-09 -1.63283e-09 -1.17869e-10)
(-1.4958e-09 -2.07458e-09 -1.51253e-10)
(-1.72653e-09 -2.56686e-09 -1.88942e-10)
(-1.94509e-09 -3.12895e-09 -2.32229e-10)
(-2.15648e-09 -3.7818e-09 -2.82522e-10)
(-2.36793e-09 -4.54867e-09 -3.41583e-10)
(-2.59156e-09 -5.45499e-09 -4.11957e-10)
(-2.84777e-09 -6.52603e-09 -4.97608e-10)
(-3.167e-09 -7.77927e-09 -6.04462e-10)
(-3.5813e-09 -9.2034e-09 -7.39349e-10)
(-4.08579e-09 -1.07055e-08 -9.02857e-10)
(-4.54718e-09 -1.19791e-08 -1.06465e-09)
(-4.73092e-09 -1.27939e-08 -1.25943e-09)
(0 0 0)
(-7.06681e-10 -8.25349e-10 -5.89463e-11)
(-1.35601e-09 -1.61672e-09 -1.16043e-10)
(-1.93905e-09 -2.39226e-09 -1.73056e-10)
(-2.46835e-09 -3.19177e-09 -2.33173e-10)
(-2.95404e-09 -4.05152e-09 -2.99221e-10)
(-3.40429e-09 -5.00647e-09 -3.73832e-10)
(-3.82589e-09 -6.09217e-09 -4.59642e-10)
(-4.22546e-09 -7.34625e-09 -5.59597e-10)
(-4.61169e-09 -8.80913e-09 -6.77513e-10)
(-4.99926e-09 -1.0523e-08 -8.1912e-10)
(-5.41528e-09 -1.25265e-08 -9.93728e-10)
(-5.90693e-09 -1.48413e-08 -1.2161e-09)
(-6.54261e-09 -1.74392e-08 -1.5057e-09)
(-7.37686e-09 -2.01694e-08 -1.87339e-09)
(-8.29331e-09 -2.25654e-08 -2.26477e-09)
(-9.95931e-09 -2.78954e-08 -3.22159e-09)
(0 0 0)
(-1.04311e-09 -1.1951e-09 -8.69044e-11)
(-2.00072e-09 -2.34004e-09 -1.71059e-10)
(-2.85894e-09 -3.46018e-09 -2.55061e-10)
(-3.63551e-09 -4.61197e-09 -3.43616e-10)
(-4.34413e-09 -5.84595e-09 -4.40907e-10)
(-4.99467e-09 -7.20966e-09 -5.50859e-10)
(-5.59342e-09 -8.74984e-09 -6.77452e-10)
(-6.14351e-09 -1.05137e-08 -8.25206e-10)
(-6.6458e-09 -1.25487e-08 -1.00008e-09)
(-7.10137e-09 -1.48996e-08 -1.21116e-09)
(-7.51696e-09 -1.75992e-08 -1.47341e-09)
(-7.91674e-09 -2.0647e-08 -1.8109e-09)
(-8.36293e-09 -2.39654e-08 -2.2561e-09)
(-8.97131e-09 -2.73146e-08 -2.82875e-09)
(-9.8027e-09 -3.01111e-08 -3.4453e-09)
(-1.36177e-08 -3.46077e-08 -4.86709e-09)