/*--------------------------------*- C++ -*----------------------------------*\
| =========                 |                                                 |
| \\      /  F ield         | foam-extend: Open Source CFD                    |
|  \\    /   O peration     | Version:     3.1                                |
|   \\  /    A nd           | Web:         http://www.extend-project.de       |
|    \\/     M anipulation  |                                                 |
\*---------------------------------------------------------------------------*/
FoamFile
{
    version     2.0;
    format      ascii;
    class       surfaceVectorField;
    location    "1.5";
    object      Sf;
}
// * * * * * * * * * * * * * * * * * * * * * * * * * * * * * * * * * * * * * //

dimensions      [0 2 0 0 0 0 0];

internalField   nonuniform List<vector> 
41600
(
(0.000625516 -2.70021e-06 -1.68484e-08)
(-5.1544e-07 0.000705826 -1.26701e-08)
(1.46443e-08 1.64749e-08 0.00070478)
(-1.49337e-08 -1.68004e-08 -0.00070475)
(0.000626009 -5.2027e-06 -3.23298e-08)
(-4.93291e-07 0.000705628 -3.78962e-08)
(1.45002e-08 4.9258e-08 0.00070526)
(-1.47775e-08 -5.02211e-08 -0.000705207)
(0.000626491 -7.48413e-06 -4.6316e-08)
(-4.81165e-07 0.000705408 -6.35688e-08)
(1.5193e-08 8.26439e-08 0.00070571)
(-1.54552e-08 -8.42142e-08 -0.000705632)
(0.000626984 -9.59905e-06 -5.91177e-08)
(-4.92626e-07 0.000705242 -9.14052e-08)
(1.70733e-08 1.189e-07 0.000706187)
(-1.7312e-08 -1.21035e-07 -0.000706083)
(0.000627509 -1.15918e-05 -7.10855e-08)
(-5.25689e-07 0.00070512 -1.23534e-07)
(2.00434e-08 1.60579e-07 0.000706714)
(-2.02311e-08 -1.63195e-07 -0.000706579)
(0.00062809 -1.35016e-05 -8.25088e-08)
(-5.80012e-07 0.000705038 -1.62293e-07)
(2.39025e-08 2.09899e-07 0.000707313)
(-2.39897e-08 -2.12828e-07 -0.000707139)
(0.000628745 -1.53571e-05 -9.2872e-08)
(-6.55626e-07 0.000704984 -2.10341e-07)
(2.82874e-08 2.68453e-07 0.000708004)
(-2.82033e-08 -2.71392e-07 -0.000707783)
(0.000629498 -1.71715e-05 -1.01098e-07)
(-7.53724e-07 0.000704942 -2.7082e-07)
(3.25915e-08 3.36757e-07 0.000708804)
(-3.22142e-08 -3.3919e-07 -0.000708525)
(0.000630374 -1.89401e-05 -1.05723e-07)
(-8.76483e-07 0.000704895 -3.47929e-07)
(3.54611e-08 4.13164e-07 0.000709733)
(-3.45758e-08 -4.14197e-07 -0.00070938)
(0.000631398 -2.06264e-05 -1.03816e-07)
(-1.02555e-06 0.00070481 -4.47527e-07)
(3.40722e-08 4.91429e-07 0.000710805)
(-3.24069e-08 -4.89623e-07 -0.00071036)
(0.0006326 -2.21584e-05 -9.17293e-08)
(-1.20495e-06 0.00070465 -5.78585e-07)
(2.29193e-08 5.56159e-07 0.000712039)
(-2.01816e-08 -5.49429e-07 -0.000711473)
(0.000634016 -2.34158e-05 -6.67558e-08)
(-1.4195e-06 0.000704368 -7.56836e-07)
(-7.9291e-09 5.75056e-07 0.000713456)
(1.20045e-08 -5.60651e-07 -0.000712724)
(0.000635681 -2.42326e-05 -3.18598e-08)
(-1.67138e-06 0.000703916 -1.01224e-06)
(-7.63424e-08 4.85486e-07 0.000715089)
(8.19338e-08 -4.60052e-07 -0.000714112)
(0.000637611 -2.44663e-05 -9.65603e-09)
(-1.9376e-06 0.000703317 -1.40206e-06)
(-2.05345e-07 1.80171e-07 0.000717019)
(2.13584e-07 -1.38718e-07 -0.00071564)
(0.000639551 -2.41576e-05 -8.10478e-08)
(-1.97242e-06 0.000702729 -2.00644e-06)
(-3.75545e-07 -4.53288e-07 0.000719293)
(4.08052e-07 5.40322e-07 -0.000717215)
(-7.943e-06 0.00070054 -6.48368e-07)
(-1.81763e-06 -2.81167e-06 0.000724235)
(3.74341e-06 4.99442e-06 -0.000723215)
(0.000625495 -2.66262e-06 -5.04192e-08)
(-1.00962e-06 0.000708488 -2.48378e-08)
(4.32318e-08 1.56838e-08 0.000707466)
(-4.40973e-08 -1.60064e-08 -0.000707403)
(0.000625968 -5.13203e-06 -9.68962e-08)
(-9.65765e-07 0.000708099 -7.42497e-08)
(4.27181e-08 4.6786e-08 0.000707725)
(-4.35562e-08 -4.77502e-08 -0.000707642)
(0.000626429 -7.38358e-06 -1.39126e-07)
(-9.41091e-07 0.000707661 -1.24454e-07)
(4.46757e-08 7.82407e-08 0.000707929)
(-4.54823e-08 -7.98418e-08 -0.000707826)
(0.0006269 -9.47071e-06 -1.77888e-07)
(-9.62312e-07 0.000707331 -1.78769e-07)
(5.01737e-08 1.12234e-07 0.000708214)
(-5.09192e-08 -1.14456e-07 -0.000708088)
(0.0006274 -1.14418e-05 -2.14476e-07)
(-1.0257e-06 0.000707094 -2.41366e-07)
(5.88672e-08 1.51202e-07 0.000708592)
(-5.9473e-08 -1.53989e-07 -0.000708438)
(0.00062795 -1.3336e-05 -2.4971e-07)
(-1.12961e-06 0.000706935 -3.16796e-07)
(7.02128e-08 1.97259e-07 0.000709077)
(-7.05586e-08 -2.00507e-07 -0.000708887)
(0.000628569 -1.51806e-05 -2.81975e-07)
(-1.27424e-06 0.000706832 -4.10108e-07)
(8.34679e-08 2.52352e-07 0.000709673)
(-8.33131e-08 -2.55826e-07 -0.000709441)
(0.000629275 -1.69931e-05 -3.08435e-07)
(-1.46163e-06 0.000706757 -5.27454e-07)
(9.71316e-08 3.18113e-07 0.000710384)
(-9.60573e-08 -3.21276e-07 -0.000710101)
(0.00063009 -1.87771e-05 -3.24362e-07)
(-1.69414e-06 0.000706681 -6.76706e-07)
(1.07589e-07 3.94905e-07 0.000711207)
(-1.04985e-07 -3.9683e-07 -0.000710863)
(0.000631034 -2.05163e-05 -3.21649e-07)
(-1.97387e-06 0.000706548 -8.68417e-07)
(1.07677e-07 4.80525e-07 0.000712125)
(-1.02737e-07 -4.79792e-07 -0.000711707)
(0.000632123 -2.21583e-05 -2.89886e-07)
(-2.30241e-06 0.000706287 -1.11843e-06)
(8.39695e-08 5.68664e-07 0.000713107)
(-7.57683e-08 -5.63177e-07 -0.000712599)
(0.000633367 -2.3607e-05 -2.18816e-07)
(-2.67562e-06 0.000705803 -1.45267e-06)
(1.28607e-08 6.46672e-07 0.000714103)
(-4.25201e-10 -6.33432e-07 -0.000713478)
(0.000634749 -2.47111e-05 -1.10179e-07)
(-3.07106e-06 0.000704995 -1.91746e-06)
(-1.44451e-07 6.95185e-07 0.000715049)
(1.62124e-07 -6.69904e-07 -0.000714252)
(0.000636173 -2.52913e-05 -1.00636e-08)
(-3.3884e-06 0.000703853 -2.5961e-06)
(-4.29587e-07 6.96852e-07 0.000715931)
(4.56255e-07 -6.52781e-07 -0.000714837)
(0.000637262 -2.52756e-05 -1.04016e-07)
(-3.14538e-06 0.000702638 -3.60818e-06)
(-7.75589e-07 6.65903e-07 0.00071686)
(8.59557e-07 -5.90247e-07 -0.000715164)
(-7.33032e-06 0.000698789 -2.7915e-06)
(-2.87151e-06 1.56181e-06 0.000715932)
(5.59237e-06 -2.82671e-06 -0.000713332)
(0.000625454 -2.58551e-06 -8.34623e-08)
(-1.46247e-06 0.000711074 -3.59683e-08)
(6.99481e-08 1.43612e-08 0.000710082)
(-7.13778e-08 -1.46734e-08 -0.000709988)
(0.000625888 -4.98319e-06 -1.60681e-07)
(-1.39787e-06 0.000710497 -1.07489e-07)
(6.89158e-08 4.27377e-08 0.000710103)
(-7.031e-08 -4.36692e-08 -0.000709992)
(0.000626308 -7.16771e-06 -2.30962e-07)
(-1.36013e-06 0.000709847 -1.80043e-07)
(7.1896e-08 7.12375e-08 0.000710043)
(-7.32424e-08 -7.2766e-08 -0.000709917)
(0.000626736 -9.1945e-06 -2.95857e-07)
(-1.38853e-06 0.00070936 -2.58351e-07)
(8.0673e-08 1.01892e-07 0.000710117)
(-8.19279e-08 -1.03983e-07 -0.000709972)
(0.000627188 -1.11134e-05 -3.58318e-07)
(-1.47692e-06 0.000709016 -3.48424e-07)
(9.45919e-08 1.3695e-07 0.000710328)
(-9.5667e-08 -1.39587e-07 -0.000710159)
(0.000627681 -1.29598e-05 -4.19166e-07)
(-1.62152e-06 0.000708785 -4.56703e-07)
(1.13038e-07 1.78568e-07 0.000710675)
(-1.13743e-07 -1.81695e-07 -0.000710474)
(0.000628229 -1.47642e-05 -4.75888e-07)
(-1.82232e-06 0.000708639 -5.90185e-07)
(1.35363e-07 2.29112e-07 0.000711149)
(-1.35271e-07 -2.32531e-07 -0.000710912)
(0.000628847 -1.65549e-05 -5.24935e-07)
(-2.08124e-06 0.000708551 -7.57352e-07)
(1.5981e-07 2.91142e-07 0.00071174)
(-1.5823e-07 -2.94455e-07 -0.000711461)
(0.000629548 -1.83486e-05 -5.5854e-07)
(-2.39987e-06 0.000708477 -9.68863e-07)
(1.82107e-07 3.67613e-07 0.000712428)
(-1.78075e-07 -3.70132e-07 -0.000712102)
(0.000630346 -2.01567e-05 -5.64856e-07)
(-2.77909e-06 0.000708357 -1.23876e-06)
(1.93911e-07 4.62299e-07 0.000713172)
(-1.86084e-07 -4.6285e-07 -0.000712795)
(0.000631243 -2.19674e-05 -5.27253e-07)
(-3.21283e-06 0.000708094 -1.58717e-06)
(1.80263e-07 5.80615e-07 0.000713898)
(-1.66915e-07 -5.77219e-07 -0.000713466)
(0.000632224 -2.37344e-05 -4.25338e-07)
(-3.6779e-06 0.00070756 -2.04487e-06)
(1.16138e-07 7.32025e-07 0.000714491)
(-9.52395e-08 -7.21514e-07 -0.000714001)
(0.000633235 -2.53576e-05 -2.46759e-07)
(-4.1132e-06 0.000706596 -2.66357e-06)
(-3.42411e-08 9.35868e-07 0.000714793)
(6.52473e-08 -9.13393e-07 -0.000714226)
(0.000634141 -2.66629e-05 -2.17032e-08)
(-4.34164e-06 0.000705117 -3.53311e-06)
(-2.97245e-07 1.22975e-06 0.000714689)
(3.44641e-07 -1.18842e-06 -0.000713977)
(0.000634632 -2.74684e-05 6.21959e-08)
(-3.74616e-06 0.000703384 -4.79935e-06)
(-5.8392e-07 1.65088e-06 0.000714369)
(6.94191e-07 -1.59156e-06 -0.000713261)
(-8.65881e-06 0.000700476 -3.51045e-06)
(-1.49451e-06 2.59596e-06 0.000712118)
(2.73644e-06 -2.94894e-06 -0.000711882)
(0.000625396 -2.46781e-06 -1.14897e-07)
(-1.85602e-06 0.000713542 -4.55777e-08)
(9.39763e-08 1.2642e-08 0.00071259)
(-9.59353e-08 -1.29253e-08 -0.000712466)
(0.000625772 -4.75302e-06 -2.217e-07)
(-1.77243e-06 0.000712783 -1.36183e-07)
(9.23991e-08 3.76266e-08 0.000712357)
(-9.43083e-08 -3.84656e-08 -0.000712222)
(0.000626136 -6.83385e-06 -3.18798e-07)
(-1.72185e-06 0.000711929 -2.27951e-07)
(9.62227e-08 6.27075e-08 0.00071202)
(-9.80567e-08 -6.40782e-08 -0.000711875)
(0.000626503 -8.76333e-06 -4.0962e-07)
(-1.75385e-06 0.000711292 -3.26786e-07)
(1.07856e-07 8.96034e-08 0.00071187)
(-1.0959e-07 -9.15033e-08 -0.000711711)
(0.000626886 -1.05837e-05 -4.98737e-07)
(-1.85909e-06 0.000710839 -4.40184e-07)
(1.26447e-07 1.20319e-07 0.000711898)
(-1.28004e-07 -1.22767e-07 -0.000711717)
(0.000627298 -1.23336e-05 -5.86213e-07)
(-2.03241e-06 0.000710538 -5.75886e-07)
(1.51582e-07 1.56967e-07 0.000712085)
(-1.5268e-07 -1.59936e-07 -0.000711878)
(0.000627749 -1.40531e-05 -6.69772e-07)
(-2.27249e-06 0.000710362 -7.42291e-07)
(1.82863e-07 2.0197e-07 0.000712417)
(-1.82954e-07 -2.05352e-07 -0.000712181)
(0.000628245 -1.57804e-05 -7.46428e-07)
(-2.57986e-06 0.000710282 -9.49481e-07)
(2.19032e-07 2.58458e-07 0.000712876)
(-2.17274e-07 -2.62058e-07 -0.000712607)
(0.000628795 -1.75511e-05 -8.07063e-07)
(-2.95476e-06 0.000710251 -1.20996e-06)
(2.57171e-07 3.31379e-07 0.000713424)
(-2.52259e-07 -3.34776e-07 -0.000713123)
(0.000629401 -1.93981e-05 -8.37783e-07)
(-3.39493e-06 0.000710206 -1.54e-06)
(2.91036e-07 4.29015e-07 0.000714009)
(-2.8108e-07 -4.3132e-07 -0.000713677)
(0.000630059 -2.13574e-05 -8.17531e-07)
(-3.88855e-06 0.000710053 -1.96236e-06)
(3.09548e-07 5.65174e-07 0.000714535)
(-2.91876e-07 -5.64689e-07 -0.00071418)
(0.00063075 -2.34524e-05 -7.16213e-07)
(-4.39754e-06 0.000709649 -2.51072e-06)
(2.95584e-07 7.63494e-07 0.000714855)
(-2.66783e-07 -7.57177e-07 -0.00071449)
(0.00063142 -2.56648e-05 -4.9936e-07)
(-4.82755e-06 0.000708791 -3.23902e-06)
(2.24954e-07 1.06011e-06 0.000714755)
(-1.8058e-07 -1.04307e-06 -0.000714397)
(0.000631967 -2.78564e-05 -1.5548e-07)
(-4.95591e-06 0.000707275 -4.24002e-06)
(8.08441e-08 1.49505e-06 0.000714036)
(-1.32442e-08 -1.46117e-06 -0.000713673)
(0.000632207 -2.96797e-05 2.05771e-07)
(-4.10803e-06 0.000705161 -5.68587e-06)
(-9.63748e-08 2.05657e-06 0.000712848)
(2.17994e-07 -2.00994e-06 -0.000712322)
(-9.1859e-06 0.000703535 -4.10376e-06)
(-3.33567e-07 2.97417e-06 0.000710191)
(7.62662e-07 -3.48724e-06 -0.000711439)
(0.000625322 -2.30733e-06 -1.44023e-07)
(-2.17597e-06 0.00071585 -5.33552e-08)
(1.15005e-07 1.09653e-08 0.00071495)
(-1.17445e-07 -1.12231e-08 -0.000714798)
(0.000625628 -4.43998e-06 -2.78257e-07)
(-2.07578e-06 0.000714917 -1.59311e-07)
(1.12954e-07 3.26334e-08 0.000714453)
(-1.15329e-07 -3.33995e-08 -0.000714296)
(0.000625921 -6.37801e-06 -4.00759e-07)
(-2.01283e-06 0.000713869 -2.66391e-07)
(1.17461e-07 5.43166e-08 0.000713833)
(-1.19758e-07 -5.55954e-08 -0.000713672)
(0.000626214 -8.16668e-06 -5.17039e-07)
(-2.04406e-06 0.000713082 -3.81455e-07)
(1.31471e-07 7.74096e-08 0.000713448)
(-1.33695e-07 -7.92344e-08 -0.000713277)
(0.000626514 -9.84599e-06 -6.31673e-07)
(-2.15755e-06 0.00071252 -5.12929e-07)
(1.541e-07 1.03619e-07 0.000713274)
(-1.56159e-07 -1.06022e-07 -0.000713086)
(0.00062683 -1.14587e-05 -7.44924e-07)
(-2.3465e-06 0.000712153 -6.6932e-07)
(1.85149e-07 1.34753e-07 0.000713286)
(-1.86717e-07 -1.37757e-07 -0.00071308)
(0.000627165 -1.30454e-05 -8.56564e-07)
(-2.60732e-06 0.000711953 -8.59907e-07)
(2.246e-07 1.7299e-07 0.000713467)
(-2.25077e-07 -1.76607e-07 -0.000713237)
(0.000627522 -1.46468e-05 -9.64764e-07)
(-2.93781e-06 0.000711888 -1.09564e-06)
(2.72367e-07 2.21575e-07 0.000713788)
(-2.70815e-07 -2.25764e-07 -0.000713533)
(0.000627897 -1.63118e-05 -1.06137e-06)
(-3.33547e-06 0.00071192 -1.38983e-06)
(3.27913e-07 2.85999e-07 0.000714206)
(-3.22755e-07 -2.90571e-07 -0.00071393)
(0.000628287 -1.80991e-05 -1.13308e-06)
(-3.79562e-06 0.000711998 -1.75978e-06)
(3.88996e-07 3.7575e-07 0.000714662)
(-3.77861e-07 -3.80208e-07 -0.000714371)
(0.000628684 -2.00885e-05 -1.15892e-06)
(-4.30602e-06 0.000712046 -2.23019e-06)
(4.51143e-07 5.06933e-07 0.000715067)
(-4.3044e-07 -5.10126e-07 -0.000714774)
(0.000629077 -2.23816e-05 -1.10226e-06)
(-4.82665e-06 0.000711941 -2.83782e-06)
(5.08675e-07 7.06228e-07 0.000715281)
(-4.73274e-07 -7.05576e-07 -0.00071501)
(0.000629446 -2.50567e-05 -9.07776e-07)
(-5.25276e-06 0.000711457 -3.64067e-06)
(5.48085e-07 1.01264e-06 0.000715077)
(-4.91497e-07 -1.0035e-06 -0.000714869)
(0.000629744 -2.80414e-05 -5.11326e-07)
(-5.34014e-06 0.000710236 -4.73751e-06)
(5.43786e-07 1.46224e-06 0.000714157)
(-4.57371e-07 -1.43843e-06 -0.000714056)
(0.000629859 -3.08212e-05 1.33897e-07)
(-4.35417e-06 0.000707904 -6.31615e-06)
(4.41732e-07 2.02514e-06 0.000712357)
(-3.11187e-07 -1.98887e-06 -0.000712372)
(-9.48511e-06 0.000707789 -4.41967e-06)
(6.74105e-07 2.80937e-06 0.000709789)
(-1.10018e-06 -3.16412e-06 -0.000712845)
(0.000625238 -2.10734e-06 -1.70779e-07)
(-2.4112e-06 0.000717958 -5.90167e-08)
(1.33169e-07 9.40218e-09 0.000717121)
(-1.36049e-07 -9.64042e-09 -0.000716945)
(0.000625463 -4.05119e-06 -3.29737e-07)
(-2.29763e-06 0.000716861 -1.76075e-07)
(1.30645e-07 2.79113e-08 0.000716358)
(-1.33453e-07 -2.8626e-08 -0.000716182)
(0.000625676 -5.80941e-06 -4.75688e-07)
(-2.22323e-06 0.000715628 -2.94065e-07)
(1.35577e-07 4.62267e-08 0.000715453)
(-1.38326e-07 -4.74276e-08 -0.00071528)
(0.000625885 -7.42355e-06 -6.14867e-07)
(-2.25028e-06 0.000714698 -4.20387e-07)
(1.51394e-07 6.5416e-08 0.000714825)
(-1.54101e-07 -6.71284e-08 -0.000714647)
(0.000626094 -8.93253e-06 -7.51141e-07)
(-2.36448e-06 0.000714032 -5.63926e-07)
(1.77197e-07 8.67943e-08 0.000714441)
(-1.79778e-07 -8.90718e-08 -0.000714253)
(0.000626306 -1.03701e-05 -8.8768e-07)
(-2.55608e-06 0.000713594 -7.33595e-07)
(2.1296e-07 1.11759e-07 0.000714271)
(-2.15092e-07 -1.14686e-07 -0.00071407)
(0.000626518 -1.17675e-05 -1.02684e-06)
(-2.81846e-06 0.000713354 -9.38955e-07)
(2.59129e-07 1.42056e-07 0.000714286)
(-2.60192e-07 -1.45726e-07 -0.000714068)
(0.000626726 -1.3162e-05 -1.16767e-06)
(-3.14623e-06 0.000713287 -1.19091e-06)
(3.16858e-07 1.80278e-07 0.000714456)
(-3.15883e-07 -1.84808e-07 -0.00071422)
(0.000626919 -1.46038e-05 -1.30536e-06)
(-3.53345e-06 0.000713368 -1.50258e-06)
(3.87915e-07 2.30759e-07 0.000714739)
(-3.83191e-07 -2.36278e-07 -0.000714488)
(0.000627085 -1.61671e-05 -1.4299e-06)
(-3.97289e-06 0.000713567 -1.89112e-06)
(4.74049e-07 3.00934e-07 0.000715083)
(-4.62868e-07 -3.07434e-07 -0.000714827)
(0.000627212 -1.79627e-05 -1.52508e-06)
(-4.45539e-06 0.000713848 -2.38183e-06)
(5.7709e-07 4.0318e-07 0.000715424)
(-5.55138e-07 -4.10263e-07 -0.000715177)
(0.000627299 -2.01468e-05 -1.55715e-06)
(-4.95266e-06 0.000714132 -3.01458e-06)
(7.01787e-07 5.57792e-07 0.000715657)
(-6.62289e-07 -5.64115e-07 -0.000715448)
(0.000627367 -2.29051e-05 -1.46582e-06)
(-5.38643e-06 0.000714218 -3.85647e-06)
(8.46232e-07 7.9718e-07 0.000715588)
(-7.80226e-07 -7.99311e-07 -0.000715463)
(0.000627466 -2.63487e-05 -1.14215e-06)
(-5.54296e-06 0.000713671 -5.02503e-06)
(9.74558e-07 1.15816e-06 0.000714876)
(-8.70596e-07 -1.14917e-06 -0.000714912)
(0.000627596 -3.00174e-05 -3.06849e-07)
(-4.62754e-06 0.00071155 -6.72375e-06)
(9.39915e-07 1.63228e-06 0.000712866)
(-7.97042e-07 -1.60953e-06 -0.000713294)
(-9.86113e-06 0.00071393 -4.58956e-06)
(1.54319e-06 2.31729e-06 0.000711249)
(-2.61962e-06 -2.55641e-06 -0.000716227)
(0.000625146 -1.87495e-06 -1.94155e-07)
(-2.55426e-06 0.000719833 -6.23425e-08)
(1.48621e-07 7.903e-09 0.000719071)
(-1.51902e-07 -8.11597e-09 -0.000718873)
(0.000625283 -3.60002e-06 -3.74473e-07)
(-2.43151e-06 0.000718587 -1.85857e-07)
(1.45535e-07 2.3352e-08 0.000718044)
(-1.48743e-07 -2.39881e-08 -0.000717854)
(0.000625411 -5.15254e-06 -5.40599e-07)
(-2.34791e-06 0.000717182 -3.10048e-07)
(1.50556e-07 3.83438e-08 0.000716859)
(-1.53722e-07 -3.94123e-08 -0.000716677)
(0.000625533 -6.5675e-06 -6.9815e-07)
(-2.3687e-06 0.000716115 -4.42464e-07)
(1.67511e-07 5.36167e-08 0.000715989)
(-1.70669e-07 -5.51538e-08 -0.000715809)
(0.000625648 -7.87236e-06 -8.5186e-07)
(-2.47691e-06 0.000715338 -5.92002e-07)
(1.95434e-07 7.00711e-08 0.00071539)
(-1.98538e-07 -7.21472e-08 -0.000715208)
(0.000625755 -9.08828e-06 -1.00866e-06)
(-2.65962e-06 0.000714812 -7.67612e-07)
(2.34417e-07 8.85865e-08 0.000715025)
(-2.37161e-07 -9.13134e-08 -0.000714834)
(0.000625845 -1.02374e-05 -1.17204e-06)
(-2.90682e-06 0.000714506 -9.78468e-07)
(2.8523e-07 1.10189e-07 0.000714855)
(-2.87013e-07 -1.13728e-07 -0.000714653)
(0.000625908 -1.1347e-05 -1.34246e-06)
(-3.20934e-06 0.000714401 -1.23454e-06)
(3.49783e-07 1.36249e-07 0.000714849)
(-3.49688e-07 -1.4084e-07 -0.000714635)
(0.000625927 -1.2454e-05 -1.51878e-06)
(-3.55675e-06 0.000714481 -1.54771e-06)
(4.31273e-07 1.68802e-07 0.000714972)
(-4.27599e-07 -1.74795e-07 -0.000714751)
(0.000625882 -1.36149e-05 -1.69583e-06)
(-3.93712e-06 0.000714736 -1.93322e-06)
(5.33848e-07 2.11018e-07 0.000715184)
(-5.2376e-07 -2.1885e-07 -0.000714965)
(0.000625746 -1.49246e-05 -1.86579e-06)
(-4.34052e-06 0.000715168 -2.41415e-06)
(6.62969e-07 2.67735e-07 0.000715445)
(-6.4192e-07 -2.77987e-07 -0.000715243)
(0.000625505 -1.65264e-05 -2.0102e-06)
(-4.75182e-06 0.000715747 -3.0297e-06)
(8.29389e-07 3.46147e-07 0.000715687)
(-7.89858e-07 -3.59576e-07 -0.000715527)
(0.000625193 -1.86544e-05 -2.09009e-06)
(-5.14332e-06 0.000716362 -3.85424e-06)
(1.04163e-06 4.59211e-07 0.000715778)
(-9.72346e-07 -4.75823e-07 -0.000715701)
(0.000624962 -2.16615e-05 -2.00017e-06)
(-5.42713e-06 0.000716694 -5.03914e-06)
(1.26866e-06 6.33299e-07 0.000715464)
(-1.1531e-06 -6.49453e-07 -0.00071554)
(0.000625117 -2.56287e-05 -1.24764e-06)
(-4.94186e-06 0.000715525 -6.85639e-06)
(1.32625e-06 9.11872e-07 0.000713811)
(-1.16783e-06 -9.196e-07 -0.000714431)
(-1.13633e-05 0.000724793 -4.59923e-06)
(2.4221e-06 1.55341e-06 0.000716251)
(-3.99685e-06 -1.73078e-06 -0.000723424)
(0.000625051 -1.61479e-06 -2.1327e-07)
(1.61483e-07 6.48342e-09 0.000720769)
(-1.6512e-07 -6.67074e-09 -0.000720555)
(-2.60126e-06 0.000721448 -6.33045e-08)
(0.000625097 -3.10021e-06 -4.10825e-07)
(1.57738e-07 1.90501e-08 0.000719494)
(-1.61292e-07 -1.96027e-08 -0.000719293)
(-2.47468e-06 0.000720073 -1.88578e-07)
(0.000625139 -4.4309e-06 -5.92654e-07)
(1.62474e-07 3.09061e-08 0.000718041)
(-1.66007e-07 -3.1827e-08 -0.000717855)
(-2.38565e-06 0.000718513 -3.14194e-07)
(0.000625173 -5.62668e-06 -7.64238e-07)
(1.79868e-07 4.24457e-08 0.000716932)
(-1.83442e-07 -4.37791e-08 -0.000716755)
(-2.39936e-06 0.000717312 -4.47625e-07)
(0.000625196 -6.70094e-06 -9.32391e-07)
(2.08787e-07 5.41456e-08 0.000716113)
(-2.12379e-07 -5.59624e-08 -0.000715939)
(-2.49675e-06 0.000716415 -5.97549e-07)
(0.000625202 -7.66555e-06 -1.10518e-06)
(2.49277e-07 6.62696e-08 0.000715537)
(-2.52625e-07 -6.86834e-08 -0.000715359)
(-2.6624e-06 0.000715779 -7.72369e-07)
(0.000625181 -8.5321e-06 -1.28641e-06)
(3.0219e-07 7.8972e-08 0.000715162)
(-3.04758e-07 -8.21834e-08 -0.000714979)
(-2.88281e-06 0.000715376 -9.80269e-07)
(0.000625117 -9.31092e-06 -1.4786e-06)
(3.69562e-07 9.22676e-08 0.000714955)
(-3.70497e-07 -9.65609e-08 -0.000714767)
(-3.144e-06 0.000715184 -1.22974e-06)
(0.000624987 -1.00142e-05 -1.68247e-06)
(4.54731e-07 1.05741e-07 0.000714879)
(-4.52446e-07 -1.11535e-07 -0.000714692)
(-3.42943e-06 0.00071519 -1.53033e-06)
(0.000624761 -1.06586e-05 -1.89761e-06)
(5.62046e-07 1.18138e-07 0.000714899)
(-5.53899e-07 -1.26179e-07 -0.000714723)
(-3.71899e-06 0.000715389 -1.89359e-06)
(0.000624391 -1.12664e-05 -2.12441e-06)
(6.96987e-07 1.26603e-07 0.000714979)
(-6.78838e-07 -1.38301e-07 -0.000714831)
(-3.98896e-06 0.000715788 -2.33579e-06)
(0.000623811 -1.18672e-05 -2.36037e-06)
(8.68594e-07 1.23513e-07 0.000715033)
(-8.33666e-07 -1.41667e-07 -0.000714944)
(-4.2063e-06 0.000716366 -2.88283e-06)
(0.000622918 -1.25279e-05 -2.59776e-06)
(1.08351e-06 9.08549e-08 0.000714878)
(-1.02123e-06 -1.21138e-07 -0.000714915)
(-4.31323e-06 0.000717053 -3.58079e-06)
(0.000621551 -1.34229e-05 -2.78912e-06)
(1.31242e-06 -2.08662e-09 0.000714079)
(-1.20715e-06 -5.23408e-08 -0.00071441)
(-4.16547e-06 0.000717643 -4.51632e-06)
(0.000619538 -1.5285e-05 -2.53037e-06)
(1.39554e-06 -1.64951e-07 0.000711293)
(-1.24986e-06 6.9901e-08 -0.000712591)
(-3.07473e-06 0.000717482 -5.817e-06)
(3.47297e-06 3.16611e-07 0.000727063)
(-5.37115e-06 -4.85289e-07 -0.000736958)
(-1.75254e-05 0.000746584 -3.88535e-06)
(0.000625538 -2.73109e-06 -1.39623e-08)
(-5.36913e-07 0.000705857 -1.15544e-08)
(1.3809e-08 1.55351e-08 0.000704805)
(0.000626053 -5.2622e-06 -2.68938e-08)
(-5.14569e-07 0.000705659 -3.45398e-08)
(1.3684e-08 4.64603e-08 0.000705308)
(0.000626557 -7.56937e-06 -3.83272e-08)
(-5.03302e-07 0.000705437 -5.77999e-08)
(1.43656e-08 7.79976e-08 0.000705779)
(0.000627075 -9.70753e-06 -4.82933e-08)
(-5.17314e-07 0.00070527 -8.27235e-08)
(1.62023e-08 1.12344e-07 0.00070628)
(0.000627631 -1.17217e-05 -5.71257e-08)
(-5.54651e-07 0.000705148 -1.11035e-07)
(1.91005e-08 1.51983e-07 0.000706834)
(0.000628247 -1.36513e-05 -6.45349e-08)
(-6.15081e-07 0.000705065 -1.44408e-07)
(2.29004e-08 1.99116e-07 0.000707465)
(0.000628947 -1.55236e-05 -6.96623e-08)
(-6.98883e-07 0.00070501 -1.84596e-07)
(2.73135e-08 2.55444e-07 0.000708193)
(0.000629755 -1.73497e-05 -7.1393e-08)
(-8.07489e-07 0.000704966 -2.33415e-07)
(3.17962e-08 3.21747e-07 0.000709039)
(0.000630699 -1.91221e-05 -6.80218e-08)
(-9.43604e-07 0.000704914 -2.92488e-07)
(3.51785e-08 3.96915e-07 0.000710022)
(0.000631808 -2.07989e-05 -5.69803e-08)
(-1.10957e-06 0.000704817 -3.63129e-07)
(3.51596e-08 4.76013e-07 0.000711157)
(0.000633114 -2.23028e-05 -3.62387e-08)
(-1.31076e-06 0.000704638 -4.45818e-07)
(2.72443e-08 5.46653e-07 0.000712464)
(0.000634656 -2.35108e-05 -5.70736e-09)
(-1.55365e-06 0.000704325 -5.37602e-07)
(3.99468e-09 5.8337e-07 0.000713963)
(0.000636467 -2.42667e-05 2.75867e-08)
(-1.84169e-06 0.000703826 -6.2443e-07)
(-4.57542e-08 5.40382e-07 0.00071568)
(0.000638539 -2.44697e-05 4.26582e-08)
(-2.14806e-06 0.000703157 -6.61872e-07)
(-1.29746e-07 3.51158e-07 0.000717666)
(0.000640596 -2.42626e-05 1.41309e-08)
(-2.21508e-06 0.000702492 -5.64491e-07)
(-2.17505e-07 -2.69839e-08 0.000719886)
(-6.17762e-06 0.000701674 -1.83619e-07)
(-8.09467e-07 -1.13278e-06 0.000724732)
(0.000625517 -2.69346e-06 -4.19785e-08)
(-1.05162e-06 0.000708551 -2.26739e-08)
(4.07534e-08 1.47751e-08 0.000707519)
(0.000626012 -5.1917e-06 -8.0953e-08)
(-1.00731e-06 0.00070816 -6.7705e-08)
(4.02835e-08 4.40667e-08 0.000707797)
(0.000626496 -7.46962e-06 -1.15605e-07)
(-9.84251e-07 0.000707719 -1.13149e-07)
(4.21978e-08 7.36946e-08 0.000708019)
(0.000626991 -9.58099e-06 -1.46173e-07)
(-1.01035e-06 0.000707388 -1.61752e-07)
(4.75467e-08 1.05769e-07 0.000708324)
(0.000627522 -1.1575e-05 -1.73392e-07)
(-1.08202e-06 0.00070715 -2.16884e-07)
(5.60259e-08 1.42669e-07 0.000708725)
(0.000628107 -1.34907e-05 -1.96538e-07)
(-1.19783e-06 0.000706992 -2.81931e-07)
(6.72067e-08 1.86525e-07 0.000709237)
(0.00062877 -1.53545e-05 -2.13211e-07)
(-1.35817e-06 0.000706887 -3.60252e-07)
(8.0495e-08 2.39331e-07 0.000709866)
(0.000629531 -1.71821e-05 -2.20035e-07)
(-1.56582e-06 0.000706809 -4.55121e-07)
(9.45978e-08 3.02856e-07 0.000710612)
(0.000630412 -1.89734e-05 -2.11476e-07)
(-1.82388e-06 0.000706722 -5.69765e-07)
(1.06499e-07 3.77937e-07 0.000711476)
(0.000631435 -2.07074e-05 -1.79753e-07)
(-2.13548e-06 0.000706569 -7.06685e-07)
(1.10215e-07 4.63229e-07 0.000712437)
(0.000632618 -2.23269e-05 -1.18935e-07)
(-2.50377e-06 0.000706273 -8.65897e-07)
(9.45432e-08 5.5361e-07 0.000713466)
(0.000633961 -2.37274e-05 -2.51895e-08)
(-2.92548e-06 0.000705733 -1.03985e-06)
(4.16439e-08 6.38548e-07 0.000714511)
(0.000635425 -2.47521e-05 8.79157e-08)
(-3.37677e-06 0.000704844 -1.19949e-06)
(-7.32983e-08 7.01924e-07 0.000715511)
(0.000636854 -2.52283e-05 1.70302e-07)
(-3.74368e-06 0.000703602 -1.26124e-06)
(-2.6282e-07 7.27866e-07 0.000716448)
(0.000637845 -2.51208e-05 1.56899e-07)
(-3.53505e-06 0.00070233 -1.07933e-06)
(-4.47325e-07 7.20475e-07 0.000717388)
(-5.45048e-06 0.000698807 -1.89702e-07)
(-1.286e-06 1.10637e-06 0.000716486)
(0.000625476 -2.61578e-06 -6.99193e-08)
(-1.52316e-06 0.000711168 -3.28546e-08)
(6.59046e-08 1.35092e-08 0.000710163)
(0.00062593 -5.04151e-06 -1.34643e-07)
(-1.45785e-06 0.000710588 -9.80504e-08)
(6.49467e-08 4.0211e-08 0.000710198)
(0.000626372 -7.25155e-06 -1.92514e-07)
(-1.4224e-06 0.000709934 -1.63791e-07)
(6.78632e-08 6.70666e-08 0.000710152)
(0.000626824 -9.30241e-06 -2.44394e-07)
(-1.45773e-06 0.000709444 -2.34061e-07)
(7.63823e-08 9.60265e-08 0.000710241)
(0.000627304 -1.12452e-05 -2.91334e-07)
(-1.55792e-06 0.000709101 -3.13662e-07)
(8.99375e-08 1.29251e-07 0.000710472)
(0.000627831 -1.31151e-05 -3.32199e-07)
(-1.71936e-06 0.000708871 -4.07374e-07)
(1.0808e-07 1.68839e-07 0.000710841)
(0.00062842 -1.49415e-05 -3.63227e-07)
(-1.9422e-06 0.000708726 -5.19795e-07)
(1.30329e-07 2.17145e-07 0.000711339)
(0.000629088 -1.67517e-05 -3.78832e-07)
(-2.22939e-06 0.000708633 -6.55398e-07)
(1.55274e-07 2.76795e-07 0.000711956)
(0.00062985 -1.85597e-05 -3.6969e-07)
(-2.58335e-06 0.000708547 -8.18551e-07)
(1.79453e-07 3.50834e-07 0.000712667)
(0.000630719 -2.03737e-05 -3.23482e-07)
(-3.00608e-06 0.000708402 -1.01242e-06)
(1.95684e-07 4.42909e-07 0.000713431)
(0.000631697 -2.21746e-05 -2.27908e-07)
(-3.49222e-06 0.000708097 -1.23597e-06)
(1.91298e-07 5.57937e-07 0.000714172)
(0.000632758 -2.39047e-05 -6.94601e-08)
(-4.0172e-06 0.000707492 -1.47635e-06)
(1.46643e-07 7.03275e-07 0.000714769)
(0.000633824 -2.54453e-05 1.47519e-07)
(-4.51355e-06 0.00070643 -1.6902e-06)
(3.67578e-08 8.90399e-07 0.000715067)
(0.00063471 -2.65956e-05 3.73419e-07)
(-4.78115e-06 0.000704848 -1.76179e-06)
(-1.45975e-07 1.1347e-06 0.000714964)
(0.000635121 -2.71629e-05 5.18906e-07)
(-4.21339e-06 0.000703113 -1.5049e-06)
(-3.16808e-07 1.4345e-06 0.000714649)
(-6.04973e-06 0.000699856 -3.69131e-07)
(-6.5349e-07 1.93187e-06 0.000712487)
(0.000625415 -2.49585e-06 -9.66752e-08)
(-1.93276e-06 0.000713665 -4.16713e-08)
(8.85151e-08 1.19001e-08 0.000712696)
(0.000625811 -4.80762e-06 -1.8608e-07)
(-1.84832e-06 0.000712902 -1.24373e-07)
(8.70544e-08 3.54209e-08 0.000712473)
(0.000626194 -6.91267e-06 -2.66346e-07)
(-1.8005e-06 0.000712042 -2.0772e-07)
(9.0813e-08 5.90569e-08 0.000712145)
(0.000626584 -8.86609e-06 -3.39527e-07)
(-1.84111e-06 0.000711403 -2.96653e-07)
(1.02095e-07 8.44561e-08 0.000712006)
(0.000626993 -1.0711e-05 -4.07332e-07)
(-1.96098e-06 0.000710953 -3.97187e-07)
(1.20154e-07 1.13523e-07 0.000712049)
(0.000627435 -1.24851e-05 -4.67725e-07)
(-2.15476e-06 0.000710654 -5.1505e-07)
(1.44769e-07 1.48281e-07 0.000712253)
(0.000627922 -1.42287e-05 -5.15907e-07)
(-2.42164e-06 0.00071048 -6.55686e-07)
(1.75759e-07 1.911e-07 0.000712601)
(0.000628462 -1.59798e-05 -5.4461e-07)
(-2.76305e-06 0.000710398 -8.24458e-07)
(2.12239e-07 2.45051e-07 0.000713073)
(0.000629064 -1.77732e-05 -5.41849e-07)
(-3.18011e-06 0.000710357 -1.02633e-06)
(2.5191e-07 3.14784e-07 0.000713629)
(0.000629731 -1.96395e-05 -4.91546e-07)
(-3.67167e-06 0.000710289 -1.26469e-06)
(2.89353e-07 4.07874e-07 0.000714211)
(0.000630459 -2.1609e-05 -3.72106e-07)
(-4.22594e-06 0.000710094 -1.53767e-06)
(3.15198e-07 5.36671e-07 0.000714717)
(0.000631225 -2.36941e-05 -1.57382e-07)
(-4.80153e-06 0.00070962 -1.82828e-06)
(3.14539e-07 7.20568e-07 0.000714992)
(0.000631963 -2.58486e-05 1.73309e-07)
(-5.2927e-06 0.00070866 -2.08173e-06)
(2.66009e-07 9.84441e-07 0.000714816)
(0.000632556 -2.78893e-05 5.99544e-07)
(-5.44853e-06 0.000707039 -2.15783e-06)
(1.55523e-07 1.3444e-06 0.000714006)
(0.000632858 -2.94239e-05 1.013e-06)
(-4.62753e-06 0.000704943 -1.84114e-06)
(1.51016e-08 1.76139e-06 0.00071277)
(-6.11871e-06 0.000702125 -5.62382e-07)
(-8.00294e-08 2.27445e-06 0.000710013)
(0.00062534 -2.33318e-06 -1.21345e-07)
(-2.26561e-06 0.000715998 -4.88091e-08)
(1.08301e-07 1.03116e-08 0.000715078)
(0.000625662 -4.49045e-06 -2.34218e-07)
(-2.16437e-06 0.000715061 -1.45661e-07)
(1.06389e-07 3.06779e-08 0.000714587)
(0.000625973 -6.45167e-06 -3.36069e-07)
(-2.10447e-06 0.000714007 -2.43126e-07)
(1.10815e-07 5.10505e-08 0.000713971)
(0.000626284 -8.26349e-06 -4.30278e-07)
(-2.14551e-06 0.000713219 -3.46857e-07)
(1.24376e-07 7.27611e-08 0.000713592)
(0.000626606 -9.96509e-06 -5.18663e-07)
(-2.27538e-06 0.00071266 -4.63666e-07)
(1.46295e-07 9.74319e-08 0.000713428)
(0.000626947 -1.15997e-05 -5.98306e-07)
(-2.48713e-06 0.000712297 -5.99856e-07)
(1.7657e-07 1.2678e-07 0.000713451)
(0.000627313 -1.32103e-05 -6.64856e-07)
(-2.77771e-06 0.000712101 -7.61416e-07)
(2.15444e-07 1.629e-07 0.000713639)
(0.000627705 -1.48383e-05 -7.10696e-07)
(-3.14566e-06 0.000712039 -9.54145e-07)
(2.63081e-07 2.08861e-07 0.000713963)
(0.000628122 -1.65334e-05 -7.22401e-07)
(-3.58925e-06 0.000712068 -1.18324e-06)
(3.19273e-07 2.69732e-07 0.000714375)
(0.000628562 -1.83538e-05 -6.80401e-07)
(-4.10502e-06 0.000712131 -1.4522e-06)
(3.82187e-07 3.54171e-07 0.000714808)
(0.000629021 -2.03782e-05 -5.5551e-07)
(-4.68113e-06 0.000712149 -1.75898e-06)
(4.47918e-07 4.76386e-07 0.000715164)
(0.000629492 -2.26973e-05 -3.05625e-07)
(-5.27316e-06 0.000711987 -2.08475e-06)
(5.09595e-07 6.58813e-07 0.000715287)
(0.000629961 -2.53632e-05 1.24965e-07)
(-5.76259e-06 0.000711408 -2.36794e-06)
(5.48558e-07 9.30561e-07 0.000714932)
(0.000630401 -2.82497e-05 7.64746e-07)
(-5.87379e-06 0.00071008 -2.45252e-06)
(5.29271e-07 1.30789e-06 0.000713812)
(0.000630732 -3.0743e-05 1.49926e-06)
(-4.9141e-06 0.000707721 -2.10062e-06)
(3.97292e-07 1.74069e-06 0.000711882)
(-6.01726e-06 0.000705457 -7.48788e-07)
(4.36364e-07 2.2141e-06 0.000709015)
(0.000625252 -2.13097e-06 -1.43999e-07)
(-2.51018e-06 0.00071813 -5.40187e-08)