/*--------------------------------*- C++ -*----------------------------------*\
| =========                 |                                                 |
| \\      /  F ield         | foam-extend: Open Source CFD                    |
|  \\    /   O peration     | Version:     3.1                                |
|   \\  /    A nd           | Web:         http://www.extend-project.de       |
|    \\/     M anipulation  |                                                 |
\*---------------------------------------------------------------------------*/
FoamFile
{
    version     2.0;
    format      ascii;
    class       volVectorField;
    location    "1.5";
    object      U;
}
// * * * * * * * * * * * * * * * * * * * * * * * * * * * * * * * * * * * * * //

dimensions      [0 1 -1 0 0 0 0];

internalField   nonuniform List<vector> 
14592
(
(0.0185025 0.000231655 -0.00236179)
(0.0187546 0.000195132 -0.00576793)
(0.0194988 3.13171e-06 -0.0080651)
(0.0209153 -0.000163349 -0.00936066)
(0.0226118 -0.00021201 -0.00993003)
(0.0241579 -0.000161936 -0.0101152)
(0.0253027 -6.66434e-05 -0.0102377)
(0.0259601 2.51392e-05 -0.0105646)
(0.0261499 8.38984e-05 -0.0113142)
(0.02596 9.2451e-05 -0.0126949)
(0.0254996 4.92159e-06 -0.0149319)
(0.0248826 -0.000243181 -0.0183499)
(0.0242258 -0.000746254 -0.0234646)
(0.0235072 -0.00150689 -0.0309699)
(0.0214488 -0.00196747 -0.0403393)
(0.0132845 -0.000255003 -0.0388231)
(0.0524906 0.000172928 -0.00287987)
(0.0528338 -0.00106286 -0.00995722)
(0.0539051 -0.00237396 -0.0159898)
(0.0560278 -0.0030483 -0.0199263)
(0.0587572 -0.00294509 -0.0218605)
(0.0613747 -0.00228806 -0.0224331)
(0.0633614 -0.00139695 -0.0224091)
(0.0644707 -0.000511117 -0.0224701)
(0.0646563 0.000242168 -0.0231663)
(0.063975 0.00082059 -0.0249601)
(0.062488 0.00117733 -0.0283049)
(0.0601922 0.00124022 -0.0337862)
(0.0569521 0.000874355 -0.04232)
(0.0522277 -7.35075e-05 -0.0552486)
(0.0431713 -0.00142772 -0.0714703)
(0.0204396 -0.00176766 -0.0639744)
(0.0819212 0.000320942 -0.00196925)
(0.0818349 -0.0017625 -0.00926822)
(0.0816944 -0.00433488 -0.0171076)
(0.0821518 -0.00591538 -0.023209)
(0.0834113 -0.00602295 -0.0268037)
(0.0850046 -0.00492186 -0.0282511)
(0.0863561 -0.0031867 -0.0284297)
(0.0870569 -0.00131142 -0.0282832)
(0.0868973 0.000408899 -0.0286179)
(0.0857893 0.00187679 -0.030088)
(0.0836566 0.00305427 -0.0332937)
(0.0803366 0.00391088 -0.0389426)
(0.0754594 0.00436157 -0.0481242)
(0.0682139 0.0042035 -0.062709)
(0.0550743 0.00272432 -0.082252)
(0.0225608 -0.00114803 -0.0734332)
(0.106497 0.000426915 -0.00121573)
(0.106126 -0.00169238 -0.00740437)
(0.104691 -0.00485432 -0.0155351)
(0.10282 -0.00713786 -0.0229028)
(0.10145 -0.00765433 -0.0279029)
(0.100729 -0.00648878 -0.0303354)
(0.100327 -0.00427399 -0.0309401)
(0.099818 -0.00166745 -0.0307785)
(0.0988708 0.000890168 -0.0308436)
(0.0972336 0.00324277 -0.03194)
(0.094662 0.00536468 -0.0347738)
(0.090837 0.00728912 -0.0401268)
(0.0852147 0.00901574 -0.0491677)
(0.0768061 0.0104241 -0.0641685)
(0.0618595 0.0098024 -0.0856732)
(0.0227246 0.00172583 -0.0777787)
(0.126133 0.000463759 -0.000827409)
(0.125733 -0.00112339 -0.00589468)
(0.123574 -0.00403085 -0.013685)
(0.119897 -0.00640916 -0.0216222)
(0.116035 -0.00717258 -0.0275851)
(0.112775 -0.0061709 -0.0308283)
(0.110221 -0.00390368 -0.0318442)
(0.108111 -0.00103454 -0.0317128)
(0.106105 0.00201279 -0.0315544)
(0.103842 0.0050097 -0.0322932)
(0.100935 0.00796076 -0.0347052)
(0.0969192 0.0109819 -0.0396113)
(0.0911061 0.0141744 -0.0481919)
(0.082296 0.0176456 -0.0629896)
(0.0668198 0.0189794 -0.0856165)
(0.0224366 0.00707712 -0.0793333)
(0.140816 0.000462865 -0.000652383)
(0.140486 -0.000383477 -0.0049345)
(0.13808 -0.00244402 -0.0122801)
(0.133368 -0.00428852 -0.0204053)
(0.127739 -0.00492201 -0.0269462)
(0.122433 -0.00406297 -0.0307501)
(0.117973 -0.00200745 -0.0320611)
(0.114396 0.000756234 -0.0319201)
(0.111422 0.00387388 -0.0315245)
(0.108618 0.00717015 -0.0318769)
(0.105558 0.010706 -0.0337918)
(0.101666 0.0147078 -0.0380883)
(0.0961673 0.0194058 -0.045886)
(0.0875403 0.0253844 -0.0598326)
(0.0726951 0.0301589 -0.0828117)
(0.0234758 0.0161022 -0.0784463)
(0.150581 0.000447848 -0.000567382)
(0.150319 0.00034247 -0.00437131)
(0.147898 -0.000551262 -0.0113608)
(0.142727 -0.00140356 -0.0194964)
(0.13611 -0.00154267 -0.0263252)
(0.129525 -0.00069102 -0.0304401)
(0.123825 0.00105727 -0.0319003)
(0.119261 0.00345269 -0.0316912)
(0.115662 0.00627489 -0.0310306)
(0.112647 0.00951579 -0.0309608)
(0.109792 0.0133225 -0.0322891)
(0.106465 0.0180652 -0.035777)
(0.102025 0.0241508 -0.0424026)
(0.0942837 0.0330674 -0.0545842)
(0.0825698 0.0435757 -0.0768653)
(0.0288626 0.032765 -0.0741044)
(0.155433 0.000435231 -0.000510966)
(0.155226 0.00105409 -0.00406021)
(0.152884 0.00144469 -0.0108316)
(0.147603 0.00181708 -0.018902)
(0.140643 0.00239913 -0.0257941)
(0.133593 0.00334748 -0.0300031)
(0.127433 0.00472544 -0.0314575)
(0.122545 0.00653161 -0.0311109)
(0.118875 0.00880543 -0.0301725)
(0.11611 0.0116826 -0.0296652)
(0.113913 0.0154025 -0.0303434)
(0.111689 0.0204418 -0.0328355)
(0.109495 0.0274412 -0.0379152)
(0.103501 0.0384892 -0.0470423)
(0.102328 0.059335 -0.0670212)
(0.0445457 0.0584805 -0.0626502)
(0.0197909 0.000194048 -0.00230752)
(0.0199457 0.000129682 -0.0055399)
(0.0205342 -6.99697e-05 -0.00774782)
(0.0217682 -0.000241075 -0.00904295)
(0.0232601 -0.000286677 -0.00965964)
(0.0245552 -0.000224976 -0.0099006)
(0.025377 -0.000114585 -0.0100626)
(0.0256209 -9.46246e-06 -0.0103992)
(0.0252833 5.48136e-05 -0.0111164)
(0.0244236 6.43982e-05 -0.0124079)
(0.0230953 -2.99641e-05 -0.0144549)
(0.0213055 -0.000290208 -0.0174862)
(0.0190008 -0.000796709 -0.0217704)
(0.0158104 -0.00152944 -0.0273233)
(0.0104656 -0.0022202 -0.0323038)
(0.00341859 -0.00250699 -0.026517)
(0.0561748 0.000131829 -0.00269719)
(0.0563395 -0.00122823 -0.00925302)
(0.0570949 -0.00268102 -0.0149498)
(0.0587956 -0.00345937 -0.0188026)
(0.061036 -0.00338203 -0.0208224)
(0.0630825 -0.00267132 -0.0215431)
(0.0643796 -0.0016787 -0.021653)
(0.0646453 -0.000679418 -0.0217923)
(0.0637928 0.000173435 -0.0224866)
(0.0618273 0.000834197 -0.0241737)
(0.0587124 0.00124918 -0.0272437)
(0.0542768 0.00134612 -0.0321341)
(0.0481422 0.000991618 -0.0393479)
(0.0392292 3.83801e-05 -0.0489046)
(0.0246624 -0.00160747 -0.0568897)
(0.00643396 -0.00407126 -0.0442577)
(0.087687 0.000303152 -0.00180522)
(0.0874588 -0.0019077 -0.00838624)
(0.0869721 -0.00473564 -0.0156457)
(0.0868461 -0.00656794 -0.0215163)
(0.08736 -0.00680366 -0.0251719)
(0.0880959 -0.00566339 -0.0268219)
(0.0884794 -0.00375982 -0.0272158)
(0.0880742 -0.00165597 -0.0272226)
(0.0866243 0.000297087 -0.0276122)
(0.0839694 0.00197935 -0.0290063)
(0.0799103 0.00334151 -0.0319452)
(0.0740806 0.00435196 -0.0369804)
(0.0658254 0.00491381 -0.044768)
(0.0536721 0.00473964 -0.0555663)
(0.0333832 0.00291284 -0.0649987)
(0.00728865 -0.00270871 -0.0507288)
(0.113979 0.000418352 -0.00112699)
(0.113544 -0.00175972 -0.00655976)
(0.11185 -0.00517933 -0.0139306)
(0.109368 -0.00779532 -0.020907)
(0.107071 -0.00854333 -0.0259064)
(0.105221 -0.00740238 -0.0285661)
(0.103568 -0.00501313 -0.0294493)
(0.101707 -0.00210855 -0.029506)
(0.0992768 0.000794301 -0.0296768)
(0.0959422 0.00349539 -0.0307323)
(0.0913144 0.00595878 -0.0333215)
(0.084839 0.00822366 -0.0380703)
(0.0756339 0.0102968 -0.0457322)
(0.0620181 0.0118876 -0.0568629)
(0.0385235 0.0110141 -0.0672213)
(0.00672292 0.00170414 -0.0533165)
(0.134968 0.000451382 -0.00080268)
(0.134553 -0.00113179 -0.00515717)
(0.13226 -0.00422301 -0.01208)
(0.128061 -0.0069103 -0.019485)
(0.123214 -0.00793642 -0.0253724)
(0.118632 -0.00701023 -0.0288491)
(0.114574 -0.00459886 -0.0301934)
(0.110874 -0.00141723 -0.0303368)
(0.107201 0.00203425 -0.0303288)
(0.103123 0.00548122 -0.0310598)
(0.0980976 0.00892398 -0.0332529)
(0.0914038 0.0125017 -0.0375762)
(0.0819551 0.0163728 -0.0448248)
(0.0679538 0.0204428 -0.0558334)
(0.0427995 0.0217897 -0.0667331)
(0.00610484 0.00910892 -0.0536947)
(0.150658 0.000448783 -0.000667772)
(0.150322 -0.00036402 -0.00429708)
(0.147881 -0.00252199 -0.0107196)
(0.142771 -0.00458559 -0.0182064)
(0.136196 -0.00543137 -0.0246012)
(0.129479 -0.00464426 -0.0286337)
(0.123342 -0.00246872 -0.0303114)
(0.117987 0.000587676 -0.0304929)
(0.1132 0.00412084 -0.03029)
(0.108504 0.00792418 -0.0306695)
(0.103323 0.0120727 -0.0323997)
(0.0968264 0.0168454 -0.036157)
(0.0877799 0.0226069 -0.0427106)
(0.0743326 0.0298121 -0.0531365)
(0.0489196 0.0351574 -0.064187)
(0.00715426 0.0209997 -0.0520543)
(0.161092 0.00044044 -0.000604756)
(0.160817 0.000373261 -0.00380342)
(0.158418 -0.000549306 -0.00984584)
(0.152955 -0.00150616 -0.0172752)
(0.145464 -0.00175154 -0.0239049)
(0.137456 -0.000922858 -0.0282401)
(0.129994 0.000949729 -0.0300949)
(0.123551 0.0036107 -0.0302467)
(0.118065 0.00682575 -0.0298153)
(0.113151 0.0105848 -0.0298083)
(0.108253 0.0150795 -0.0309973)
(0.102525 0.020777 -0.0340241)
(0.0947991 0.0283026 -0.0395502)
(0.0831155 0.0393126 -0.0487745)
(0.0605549 0.051339 -0.0594906)
(0.0131001 0.0421219 -0.0478064)
(0.16628 0.000441324 -0.000559303)
(0.166053 0.00108982 -0.00352998)
(0.163762 0.00150375 -0.00934747)
(0.158252 0.00188979 -0.0166818)
(0.150471 0.00249725 -0.0233506)
(0.142025 0.0035101 -0.027776)
(0.134107 0.00503091 -0.0296377)
(0.127326 0.00707037 -0.0296754)
(0.121785 0.00968462 -0.0289939)
(0.117198 0.0130462 -0.0285845)
(0.113138 0.0174662 -0.0291776)
(0.108861 0.0235703 -0.0313253)
(0.103916 0.0322372 -0.0355126)
(0.0952467 0.0464248 -0.0426815)
(0.0856602 0.070759 -0.0527856)
(0.0283799 0.071345 -0.0389782)
(0.0208901 0.000158178 -0.00215164)
(0.0209574 6.36711e-05 -0.00509413)
(0.021411 -0.000146797 -0.00712161)
(0.0224905 -0.000325511 -0.00834793)
(0.0238096 -0.000371087 -0.0089669)
(0.0248888 -0.000300506 -0.00923558)
(0.0254275 -0.000177117 -0.00941446)
(0.0253069 -5.98288e-05 -0.00973014)
(0.0245065 9.89252e-06 -0.0103631)
(0.0230775 2.44217e-05 -0.0114737)
(0.0210564 -6.45783e-05 -0.0131851)
(0.0184197 -0.000306916 -0.0156191)
(0.015098 -0.000756021 -0.0188434)
(0.0107979 -0.00139473 -0.0225626)
(0.00508733 -0.00216816 -0.0248162)
(-0.000309231 -0.00285171 -0.0180099)
(0.0593278 9.27446e-05 -0.00243459)
(0.0593388 -0.00137991 -0.00828165)
(0.059831 -0.00296526 -0.0134351)
(0.0611823 -0.00384793 -0.0170194)
(0.0630142 -0.00380611 -0.0189915)
(0.0645735 -0.0030558 -0.0197797)
(0.0652695 -0.0019749 -0.0199761)
(0.0647906 -0.000872197 -0.0201505)
(0.0630201 7.30976e-05 -0.0207726)
(0.059943 0.000817496 -0.0222267)
(0.0554863 0.00130302 -0.0248057)
(0.0494354 0.00147191 -0.0287758)
(0.0414008 0.00121794 -0.0342965)
(0.0304569 0.00038943 -0.0408022)
(0.0154345 -0.00141222 -0.0442081)
(0.000413205 -0.00440033 -0.0301641)
(0.0926233 0.000282344 -0.00160555)
(0.0922763 -0.00203544 -0.00734447)
(0.0915126 -0.00508942 -0.0138008)
(0.090916 -0.00715922 -0.019183)
(0.0908136 -0.00753114 -0.0226807)
(0.0908211 -0.00637521 -0.0243864)
(0.0903628 -0.00433015 -0.0249114)
(0.0889809 -0.00202043 -0.0250164)
(0.0863896 0.000148071 -0.0253931)
(0.0823893 0.00203669 -0.0265917)
(0.0767232 0.00358517 -0.0290504)
(0.0689678 0.00477267 -0.0331339)
(0.0584413 0.00551343 -0.039111)
(0.0437204 0.00548252 -0.0464867)
(0.022632 0.00343051 -0.0505193)
(0.000290598 -0.00281237 -0.03409)
(0.120384 0.000403854 -0.0010165)
(0.119891 -0.00181705 -0.0056523)
(0.118003 -0.00545228 -0.0120867)
(0.11505 -0.00836884 -0.0183925)
(0.112004 -0.00934588 -0.0231099)
(0.109205 -0.00825387 -0.0257863)
(0.106468 -0.00572587 -0.0268215)
(0.103413 -0.00255686 -0.0270239)
(0.0996682 0.000663949 -0.0272345)
(0.0948526 0.00369187 -0.0281397)
(0.0885031 0.00647964 -0.0302853)
(0.0799851 0.00907583 -0.0341058)
(0.0683649 0.011494 -0.0399581)
(0.0518688 0.0133517 -0.0475307)
(0.0270972 0.0122872 -0.0520359)
(-0.000826672 0.00230354 -0.0352399)
(0.142531 0.000433624 -0.000752175)
(0.142089 -0.00113906 -0.0044083)
(0.139706 -0.00437367 -0.0103471)
(0.135129 -0.0073299 -0.016952)
(0.129515 -0.0086055 -0.022447)
(0.123842 -0.00777314 -0.0258961)
(0.118492 -0.00525442 -0.0274042)
(0.113389 -0.00180044 -0.0277326)
(0.108236 0.00202013 -0.0278096)
(0.102568 0.00588305 -0.0284353)
(0.095764 0.00977885 -0.0302277)
(0.0870027 0.0138635 -0.0336641)
(0.0751284 0.018321 -0.039153)
(0.0581381 0.0229284 -0.0465856)
(0.0312191 0.0242697 -0.0514049)
(-0.00165297 0.0109097 -0.0349468)
(0.159084 0.000431613 -0.000649427)
(0.158721 -0.000347209 -0.00366914)
(0.156262 -0.00257281 -0.00910208)
(0.15089 -0.00482017 -0.0157056)
(0.143607 -0.00586202 -0.0216221)
(0.135751 -0.00515879 -0.0255879)
(0.128188 -0.00289576 -0.0274389)
(0.121272 0.000413892 -0.0278409)
(0.114872 0.00432352 -0.0277677)
(0.108511 0.00859036 -0.0280911)
(0.101543 0.0132916 -0.0294768)
(0.0930289 0.0187407 -0.0324177)
(0.081661 0.0253718 -0.0373269)
(0.0653485 0.0335219 -0.044304)
(0.0376941 0.0392561 -0.0492609)
(-0.000426465 0.0245561 -0.0333388)
(0.170094 0.000432431 -0.000602413)
(0.169779 0.000402574 -0.00325255)
(0.167401 -0.000532087 -0.00831468)
(0.161767 -0.00157219 -0.0148151)
(0.153648 -0.0019142 -0.0209105)
(0.144513 -0.00111812 -0.0251516)
(0.135569 0.000854012 -0.0271891)
(0.127484 0.00374822 -0.0275933)
(0.120322 0.00731792 -0.0273351)
(0.113727 0.0115463 -0.0273258)
(0.107096 0.0166517 -0.0282444)
(0.099493 0.0231627 -0.0305676)
(0.0896685 0.0318311 -0.0346551)
(0.0755935 0.0443029 -0.040784)
(0.05039 0.0572646 -0.0457018)
(0.00625999 0.0481185 -0.0302251)
(0.175571 0.000448706 -0.000565551)
(0.175295 0.00112823 -0.0030204)
(0.173043 0.00156949 -0.00786809)
(0.167417 0.00197203 -0.0142574)
(0.159063 0.00260244 -0.0203693)
(0.14953 0.00366959 -0.0246907)
(0.140147 0.00531667 -0.0267432)
(0.131719 0.00756636 -0.0270588)
(0.124512 0.0104895 -0.0265891)
(0.118304 0.014287 -0.0262333)
(0.112645 0.0193216 -0.0266457)
(0.106739 0.0263135 -0.0282491)
(0.100043 0.0362864 -0.0312996)
(0.0897747 0.0525476 -0.0360741)
(0.077991 0.0787615 -0.0411441)
(0.0218458 0.0782938 -0.0244903)
(0.0218016 0.000123975 -0.001902)
(0.0217923 2.06375e-06 -0.00445337)
(0.0221311 -0.000219871 -0.00622138)
(0.0230823 -0.000407727 -0.0073161)
(0.0242596 -0.000455662 -0.00789253)
(0.0251611 -0.000378988 -0.00815939)
(0.0254645 -0.000244987 -0.00833368)
(0.0250411 -0.000116519 -0.00860641)
(0.0238632 -3.78708e-05 -0.00912663)
(0.0219871 -1.87637e-05 -0.0100139)
(0.0194572 -9.54171e-05 -0.0113449)
(0.0162624 -0.00030708 -0.0131651)
(0.012376 -0.000685986 -0.0154357)
(0.00767166 -0.00122244 -0.0177876)
(0.00229272 -0.00196443 -0.018585)
(-0.00190106 -0.00269683 -0.0125645)
(0.0619525 5.72959e-05 -0.00209962)
(0.0618328 -0.0015115 -0.00708528)
(0.0621072 -0.00321376 -0.0115243)
(0.0631736 -0.00419399 -0.0146788)
(0.0646728 -0.00419228 -0.016478)
(0.0658315 -0.00341505 -0.0172517)
(0.0660274 -0.00226094 -0.0174858)
(0.0649264 -0.00106803 -0.0176604)
(0.0623925 -3.83069e-05 -0.0181713)
(0.0584157 0.000784656 -0.0193329)
(0.052931 0.00134519 -0.0213484)
(0.0457483 0.00160331 -0.0243544)
(0.0365695 0.00148013 -0.0283178)
(0.0248048 0.000812797 -0.0325132)
(0.0104258 -0.000966798 -0.0335011)
(-0.00229771 -0.00413614 -0.021249)
(0.0967332 0.000262133 -0.00137092)
(0.0962864 -0.0021419 -0.00617625)
(0.095301 -0.00538685 -0.0116588)
(0.0943293 -0.00766865 -0.0163384)
(0.0937293 -0.00817356 -0.0194803)
(0.0931387 -0.00701952 -0.0210975)
(0.0919788 -0.00486111 -0.0216659)
(0.0897772 -0.00237476 -0.0218173)
(0.0862318 -1.6711e-05 -0.0221361)
(0.0811324 0.00206164 -0.0230875)
(0.0742141 0.00378764 -0.0249981)
(0.0650772 0.00515636 -0.0280862)
(0.0531304 0.00609992 -0.03239)
(0.0372814 0.00626378 -0.0371696)
(0.0167708 0.00419855 -0.0383196)
(-0.00288661 -0.00237214 -0.0238573)
(0.125716 0.000387357 -0.000880025)
(0.125171 -0.00186319 -0.00469628)
(0.123133 -0.00567176 -0.0100752)
(0.119818 -0.00884737 -0.0154916)
(0.11618 -0.0100366 -0.0196819)
(0.112609 -0.00900714 -0.0221733)
(0.10897 -0.00637441 -0.0232298)
(0.104909 -0.00298238 -0.0235044)
(0.100062 0.000516812 -0.0237078)
(0.0940309 0.0038371 -0.0244148)
(0.0863304 0.00691781 -0.0260595)
(0.0763358 0.00981718 -0.0289212)
(0.0631846 0.0125554 -0.0331093)
(0.0453582 0.0146831 -0.0379964)
(0.0209559 0.0136025 -0.0393358)
(-0.00420553 0.00316498 -0.0243755)
(0.148828 0.000414299 -0.000670761)
(0.148352 -0.0011447 -0.00364581)
(0.145901 -0.00448682 -0.00853841)
(0.141051 -0.00766723 -0.0141473)
(0.134849 -0.0091666 -0.0189833)
(0.128303 -0.00843426 -0.0221606)
(0.121883 -0.00584065 -0.0236639)
(0.115601 -0.00215901 -0.0240829)
(0.109201 0.00198142 -0.0241931)
(0.10222 0.00620853 -0.0246718)
(0.0940151 0.0105 -0.0260184)
(0.0837553 0.0150209 -0.0285542)
(0.07034 0.019963 -0.0324389)
(0.0519227 0.0250034 -0.0371987)
(0.0251056 0.0264171 -0.038706)
(-0.00507258 0.012525 -0.0239035)
(0.166102 0.000414253 -0.000593455)
(0.165698 -0.00033304 -0.00303777)
(0.163222 -0.00260265 -0.00746214)
(0.157675 -0.00499787 -0.0130161)
(0.149871 -0.00621151 -0.0181841)
(0.141121 -0.00559429 -0.0218122)
(0.132391 -0.00327202 -0.0236393)
(0.124165 0.000247612 -0.0241504)
(0.116403 0.00448032 -0.0241529)
(0.10866 0.00914754 -0.0243857)
(0.100275 0.0143199 -0.0253944)
(0.0902933 0.0203285 -0.0275214)
(0.0774555 0.0276349 -0.0309474)
(0.0597366 0.0364653 -0.0353791)
(0.0319149 0.0424862 -0.0370203)
(-0.00363918 0.0272665 -0.0225757)
(0.177594 0.000424936 -0.000558156)
(0.177224 0.000429009 -0.00270001)
(0.174854 -0.000506248 -0.00679004)
(0.169118 -0.00160963 -0.0122196)
(0.160555 -0.00203485 -0.0175151)
(0.150552 -0.0012753 -0.0213778)
(0.140408 0.000772856 -0.0233835)
(0.130951 0.00386086 -0.0239191)
(0.122371 0.00773409 -0.0237803)
(0.114371 0.0123635 -0.0237427)
(0.106356 0.0179787 -0.024371)
(0.0973758 0.025142 -0.0260049)
(0.0862305 0.0346643 -0.0288084)
(0.0709547 0.0481171 -0.032676)
(0.0452909 0.0616344 -0.0344525)
(0.00357073 0.0522724 -0.0203973)
(0.183311 0.000456385 -0.000528449)
(0.182974 0.00116562 -0.00251036)
(0.180741 0.00163519 -0.00641008)
(0.175058 0.00205559 -0.0117267)
(0.166309 0.0027063 -0.0170217)
(0.155952 0.00381763 -0.020952)
(0.145392 0.00557113 -0.0229755)
(0.135591 0.00799995 -0.0234466)
(0.126974 0.0111873 -0.0231392)
(0.119403 0.0153534 -0.022821)
(0.112451 0.0208924 -0.0230445)
(0.105325 0.0285785 -0.0241213)
(0.0975249 0.0395063 -0.0261655)
(0.0864318 0.057101 -0.0291646)
(0.0742849 0.0843802 -0.0314175)
(0.0192366 0.082694 -0.0165219)
(0.0225279 9.41665e-05 -0.00157093)
(0.0224545 -5.11855e-05 -0.00364641)
(0.022699 -0.000283659 -0.00508984)
(0.0235473 -0.00048062 -0.00599926)
(0.024613 -0.000532163 -0.00649285)
(0.0253753 -0.000451659 -0.00673079)
(0.025494 -0.000309366 -0.00688293)
(0.0248336 -0.000171231 -0.00709993)
(0.0233673 -8.35305e-05 -0.00749751)
(0.0211625 -5.90333e-05 -0.00815675)
(0.0182816 -0.000120797 -0.00912353)
(0.0147426 -0.000300065 -0.0104006)
(0.0105696 -0.000614377 -0.0119116)
(0.00577367 -0.00105687 -0.0133259)
(0.00080072 -0.00173416 -0.0134267)
(-0.00261042 -0.00249909 -0.00870645)
(0.0640505 2.73661e-05 -0.00170208)
(0.0638237 -0.00161938 -0.00570538)
(0.0639232 -0.00341864 -0.00929445)
(0.0647647 -0.00448354 -0.011886)
(0.066003 -0.00452116 -0.0134036)
(0.0668469 -0.00372706 -0.0140887)
(0.0666476 -0.00251515 -0.0143171)
(0.0650547 -0.0012472 -0.0144682)
(0.061924 -0.000142626 -0.0148544)
(0.0572625 0.000747274 -0.0157162)
(0.0510338 0.00137792 -0.0171864)
(0.0431005 0.00172388 -0.0193211)
(0.0332772 0.00172698 -0.0220106)
(0.0212601 0.00121429 -0.0245895)
(0.00760471 -0.000481425 -0.0244636)
(-0.00360734 -0.00377928 -0.0148879)
(0.100019 0.000244251 -0.00110422)
(0.099491 -0.00222629 -0.00490878)
(0.0983317 -0.00562443 -0.00929135)
(0.097069 -0.0080841 -0.0130987)
(0.0960814 -0.00870826 -0.0157181)
(0.0950205 -0.00756657 -0.0171184)
(0.0933044 -0.00532169 -0.0176501)
(0.0904531 -0.00269149 -0.0178062)
(0.0861531 -0.000174801 -0.0180477)
(0.0802042 0.00206644 -0.0187483)
(0.0723639 0.00394864 -0.0201331)
(0.0622845 0.00548212 -0.022323)
(0.0494966 0.00661515 -0.0252523)
(0.0332263 0.00696932 -0.028209)
(0.0134498 0.00497515 -0.0280432)
(-0.00443549 -0.00183554 -0.0166814)
(0.129978 0.000371488 -0.000717359)
(0.129387 -0.00189871 -0.00370081)
(0.127235 -0.00584049 -0.0079467)
(0.123648 -0.00922738 -0.0123104)
(0.119557 -0.0105998 -0.0157731)
(0.115382 -0.00963552 -0.0179032)
(0.111027 -0.00692786 -0.0188607)
(0.106164 -0.00335711 -0.0191428)
(0.100442 0.000370194 -0.0193127)
(0.0934688 0.00393821 -0.0198201)
(0.084763 0.00726739 -0.0209933)
(0.0737498 0.0104241 -0.0230023)
(0.0596732 0.013434 -0.0258346)
(0.0413012 0.0158006 -0.0288464)
(0.0175153 0.0147815 -0.0287373)
(-0.00583972 0.00399451 -0.0169373)
(0.153863 0.000396171 -0.000558681)
(0.153352 -0.00114894 -0.00286642)
(0.150847 -0.00456838 -0.00668396)
(0.145799 -0.00792653 -0.0111604)
(0.13916 -0.00961426 -0.0151271)
(0.131942 -0.00897659 -0.0178226)
(0.124678 -0.00633436 -0.0191664)
(0.117454 -0.00247282 -0.0195887)
(0.110061 0.00193016 -0.0196984)
(0.102055 0.00645803 -0.020031)
(0.0928009 0.0110752 -0.020969)
(0.0815019 0.0159488 -0.0227206)
(0.0671472 0.0212703 -0.0253168)
(0.0481133 0.0266444 -0.0282273)
(0.0217489 0.0281594 -0.0282105)
(-0.00668741 0.0138519 -0.0164918)
(0.171715 0.000398687 -0.000502009)
(0.171267 -0.0003217 -0.00239327)
(0.168773 -0.00261803 -0.00581442)
(0.163106 -0.00512678 -0.0102124)
(0.154926 -0.00648224 -0.0144253)
(0.1455 -0.00594408 -0.0174868)
(0.135858 -0.00358511 -0.0191101)
(0.126588 9.89033e-05 -0.0196274)
(0.117737 0.00459393 -0.0196644)
(0.108908 0.00958747 -0.0198089)
(0.0994547 0.0151389 -0.0204836)
(0.0884487 0.0215846 -0.0219194)
(0.0747091 0.0293916 -0.0241734)
(0.0563597 0.0386997 -0.0268607)
(0.0288298 0.0449356 -0.0269615)
(-0.00506833 0.0292856 -0.0154924)
(0.183593 0.000418604 -0.000475845)
(0.183168 0.000451361 -0.00213328)
(0.180792 -0.000478026 -0.0052768)
(0.174994 -0.00162719 -0.00955214)
(0.166123 -0.00212006 -0.0138497)
(0.155474 -0.00139642 -0.0170973)
(0.144398 0.000707381 -0.0188762)
(0.133853 0.00394838 -0.019428)
(0.124137 0.00806641 -0.0193641)
(0.115027 0.0130185 -0.0193026)
(0.105957 0.0190355 -0.0196862)
(0.0960055 0.0266945 -0.0207518)
(0.0840442 0.0368268 -0.0225581)
(0.0682214 0.0509299 -0.0248852)
(0.0426556 0.0647982 -0.0251682)
(0.00251877 0.0552162 -0.0140031)
(0.189503 0.000463529 -0.000452669)
(0.189104 0.00119893 -0.00198622)
(0.186875 0.0016949 -0.00497342)
(0.181161 0.00213265 -0.00914691)
(0.172145 0.00280055 -0.0134341)
(0.161185 0.00394574 -0.0167353)
(0.14972 0.00578466 -0.0185309)
(0.138831 0.00835772 -0.0190384)
(0.129082 0.0117579 -0.0188487)
(0.120425 0.0162171 -0.018574)
(0.112477 0.0221466 -0.0186535)
(0.104475 0.0303485 -0.0193114)
(0.0959854 0.0419436 -0.0205869)
(0.0845111 0.0603921 -0.0223701)
(0.0725274 0.088329 -0.0231625)
(0.0182144 0.0857093 -0.011337)
(0.0230703 7.03144e-05 -0.00117207)
(0.0229468 -9.41927e-05 -0.00270441)
(0.0231193 -0.000335766 -0.003772)
(0.0238902 -0.000540967 -0.00445312)
(0.0248737 -0.000596486 -0.00483076)
(0.0255342 -0.000513794 -0.00501756)
(0.025518 -0.000365278 -0.00513475)
(0.0246849 -0.000218875 -0.0052905)
(0.0230144 -0.000120463 -0.0055669)
(0.0205839 -9.34696e-05 -0.00601429)
(0.0174751 -0.000141973 -0.00665882)
(0.0137359 -0.000293709 -0.00748671)
(0.00943162 -0.000557804 -0.00842457)
(0.00466096 -0.000930354 -0.00922493)
(-1.43387e-06 -0.00154688 -0.00906875)
(-0.00294528 -0.00234371 -0.00573828)
(0.0656218 4.03753e-06 -0.00125296)
(0.0653125 -0.00170228 -0.00418063)
(0.0652805 -0.00357652 -0.00681631)
(0.0659547 -0.00470909 -0.0087414)
(0.067001 -0.00478094 -0.00988995)
(0.0676137 -0.00397736 -0.0104253)
(0.0671235 -0.0027227 -0.0106134)
(0.0651692 -0.0013966 -0.0107275)
(0.0616036 -0.000230225 -0.0109929)
(0.0564543 0.000711339 -0.0115753)
(0.0497203 0.00139978 -0.0125584)
(0.0413147 0.00181947 -0.013957)
(0.0311475 0.0019255 -0.0156564)
(0.0191104 0.00153562 -0.0171518)
(0.0060143 -7.73031e-05 -0.0166706)
(-0.00427225 -0.00347453 -0.00989445)
(0.102481 0.000229958 -0.000809217)
(0.10189 -0.00228903 -0.00356352)
(0.100602 -0.00580186 -0.00675453)
(0.0991254 -0.00839945 -0.00956183)
(0.0978537 -0.00912096 -0.0115277)
(0.0964465 -0.00799561 -0.0126064)
(0.0943192 -0.00568903 -0.0130355)
(0.0909883 -0.00294987 -0.0131665)
(0.0861323 -0.000311502 -0.0133311)
(0.0795701 0.0020593 -0.0138006)
(0.0710921 0.00406673 -0.0147206)
(0.0604018 0.00573371 -0.016153)
(0.0471371 0.00702061 -0.0180089)
(0.0307532 0.00753146 -0.0197338)
(0.011565 0.00561828 -0.0191513)
(-0.00522481 -0.00137205 -0.0110934)
(0.133173 0.000358222 -0.000530134)
(0.132543 -0.00192436 -0.00267106)
(0.130306 -0.00596226 -0.00573367)
(0.126523 -0.00950918 -0.00892691)
(0.122104 -0.0110268 -0.0115087)
(0.117488 -0.0101209 -0.0131355)
(0.112603 -0.0073631 -0.0138947)
(0.107142 -0.00365883 -0.0141328)
(0.100776 0.000241499 -0.0142555)
(0.0931197 0.00400322 -0.0145877)
(0.0837101 0.00752633 -0.0153553)
(0.072028 0.010883 -0.0166569)
(0.0574138 0.014103 -0.0184406)
(0.0388513 0.0166581 -0.0201919)
(0.0155834 0.0157149 -0.0196141)
(-0.00666519 0.00466752 -0.0112276)
(0.157637 0.000381254 -0.000418714)
(0.157094 -0.00115185 -0.00206663)
(0.154547 -0.0046238 -0.00479679)
(0.14936 -0.0081134 -0.00804906)
(0.142411 -0.00994741 -0.0109898)
(0.134706 -0.00938965 -0.0130371)
(0.126822 -0.00671852 -0.0140937)
(0.118895 -0.00272473 -0.0144481)
(0.110766 0.00187871 -0.0145366)
(0.102013 0.00663639 -0.0147456)
(0.0920195 0.0115016 -0.0153442)
(0.0800335 0.01664 -0.0164612)
(0.065126 0.0222397 -0.0180777)
(0.0458515 0.0278568 -0.0197574)
(0.0199051 0.0294667 -0.0192317)
(-0.00747474 0.0148519 -0.0108872)
(0.175923 0.000386247 -0.000379718)
(0.175435 -0.000313124 -0.00172891)
(0.172922 -0.00262436 -0.00415958)
(0.167174 -0.00521474 -0.00733559)
(0.158735 -0.00667859 -0.010444)
(0.148826 -0.00620578 -0.0127604)
(0.138516 -0.00382629 -0.0140317)
(0.128471 -2.25791e-05 -0.014468)
(0.118811 0.0046704 -0.0145116)
(0.109184 0.00991069 -0.0145886)
(0.0989725 0.0157456 -0.015)
(0.0872839 0.0225105 -0.0158942)
(0.0730081 0.0306695 -0.0172754)
(0.0543967 0.0403029 -0.0188123)
(0.0271885 0.0466971 -0.0183763)
(-0.00571106 0.0307219 -0.0101967)
(0.188091 0.000413774 -0.000361468)
(0.187617 0.000468822 -0.00154478)
(0.18523 -0.000452401 -0.00376853)
(0.179391 -0.00163259 -0.00684263)
(0.170313 -0.00217639 -0.0100026)
(0.159209 -0.00148381 -0.012454)
(0.147457 0.000658216 -0.0138448)
(0.136105 0.00401199 -0.0143145)
(0.125544 0.00831318 -0.0142922)
(0.115613 0.0135064 -0.0142256)
(0.105789 0.0198186 -0.0144332)
(0.0951827 0.0278313 -0.0150719)
(0.0827304 0.0383793 -0.0161531)
(0.0666777 0.0529059 -0.0174704)
(0.0413139 0.0670056 -0.0171895)
(0.00214367 0.0572527 -0.0092193)
(0.194147 0.000469457 -0.000344803)
(0.193694 0.00122581 -0.00144013)
(0.191457 0.00174384 -0.00354824)
(0.185726 0.00219665 -0.0065419)
(0.176534 0.00287817 -0.00968848)
(0.165155 0.00404761 -0.0121761)
(0.153038 0.00595033 -0.0135821)
(0.141344 0.00863132 -0.0140243)
(0.13075 0.0121903 -0.0139161)
(0.121287 0.0168662 -0.0137016)
(0.112618 0.0230782 -0.0136994)
(0.104016 0.0316411 -0.0140628)
(0.0951064 0.0436809 -0.0147965)
(0.0834742 0.0626663 -0.0157872)
(0.0717596 0.0910256 -0.0159016)
(0.017861 0.0877579 -0.00744838)
(0.0234288 5.35973e-05 -0.000717552)
(0.0232719 -0.000126529 -0.00165165)
(0.0233964 -0.000376306 -0.00230029)
(0.0241154 -0.000589118 -0.00271777)
(0.025045 -0.000648835 -0.00295292)
(0.0256394 -0.000565165 -0.00307149)
(0.0255357 -0.000412199 -0.00314523)
(0.0245911 -0.000259889 -0.0032384)
(0.0227908 -0.000155889 -0.00339911)
(0.0202207 -0.000124204 -0.00365557)
(0.0169773 -0.000162433 -0.00401975)
(0.0131308 -0.000295072 -0.00447804)
(0.00877287 -0.000526338 -0.00498101)
(0.00405008 -0.000855009 -0.00538058)
(-0.000411198 -0.00143426 -0.00521167)
(-0.00309409 -0.00223921 -0.0032478)
(0.0666649 -1.15341e-05 -0.000759752)
(0.0663 -0.00175966 -0.00253531)
(0.0661814 -0.00368596 -0.00413329)
(0.0667446 -0.00486658 -0.00530926)
(0.067665 -0.00496472 -0.00602007)
(0.0681269 -0.00415705 -0.00635813)
(0.0674465 -0.00287426 -0.00648036)
(0.065255 -0.0015083 -0.00655035)
(0.0614089 -0.000298883 -0.00670381)
(0.0559502 0.000679003 -0.00703472)
(0.048904 0.00140868 -0.00759083)
(0.040225 0.00188051 -0.00837124)
(0.0298861 0.00205749 -0.00929578)
(0.0178919 0.00175108 -0.0100588)
(0.00517014 0.000198321 -0.00964535)
(-0.00457995 -0.00327096 -0.00563228)
(0.104118 0.000220703 -0.000487893)
(0.103483 -0.00232977 -0.0021481)
(0.10211 -0.0059187 -0.00407222)
(0.100494 -0.00861023 -0.00577809)
(0.0990358 -0.00940145 -0.00698801)
(0.0974023 -0.00829171 -0.00766341)
(0.0950054 -0.0059463 -0.00793967)
(0.0913597 -0.00313398 -0.00802545)
(0.086141 -0.000409878 -0.00812018)
(0.0791836 0.00204786 -0.00838469)
(0.0703067 0.00414185 -0.00890196)
(0.0592535 0.00590192 -0.00969972)
(0.0457364 0.00729569 -0.0107106)
(0.029349 0.00791644 -0.0115932)
(0.0105495 0.00606928 -0.0110907)
(-0.00561586 -0.00105381 -0.00632699)
(0.135299 0.000349239 -0.000320025)
(0.13464 -0.00193977 -0.00160352)
(0.132347 -0.00603926 -0.00343892)
(0.128437 -0.00969276 -0.00536873)
(0.123805 -0.0113114 -0.00695051)
(0.118901 -0.0104502 -0.00796393)
(0.113669 -0.00766295 -0.00844793)
(0.107815 -0.00387053 -0.00860491)
(0.101025 0.000146812 -0.00867691)
(0.0929255 0.00404041 -0.00886186)
(0.0830731 0.0076959 -0.00928829)
(0.0709892 0.0111886 -0.0100076)
(0.056083 0.0145509 -0.0109743)
(0.0374718 0.0172352 -0.0118668)
(0.0145518 0.0163527 -0.0113542)
(-0.00707067 0.00512969 -0.00639575)
(0.160151 0.000370941 -0.000254421)
(0.15958 -0.00115277 -0.00123942)
(0.157005 -0.0046565 -0.00286663)
(0.151729 -0.0082318 -0.0048219)
(0.144581 -0.0101656 -0.00661617)
(0.136562 -0.0096665 -0.00788695)
(0.128271 -0.00698059 -0.00855735)
(0.119882 -0.00290086 -0.00879077)
(0.111268 0.00183569 -0.00884721)
(0.102028 0.00674965 -0.00895882)
(0.0915665 0.0117821 -0.00928422)
(0.0791646 0.0170967 -0.0098935)
(0.0639529 0.0228785 -0.0107615)
(0.0445973 0.028655 -0.0116108)
(0.0189392 0.0303346 -0.011125)
(-0.00784938 0.015517 -0.00618819)
(0.178727 0.000377691 -0.000231942)
(0.178205 -0.00030687 -0.00103791)
(0.175676 -0.00262519 -0.00248061)
(0.169878 -0.00526743 -0.00438173)